/*--------------------------------*- C++ -*----------------------------------*\
  =========                 |
  \\      /  F ield         | OpenFOAM: The Open Source CFD Toolbox
   \\    /   O peration     | Website:  https://openfoam.org
    \\  /    A nd           | Version:  13
     \\/     M anipulation  |
\*---------------------------------------------------------------------------*/
FoamFile
{
    format      ascii;
    class       volScalarField;
    location    "250";
    object      p;
}
// * * * * * * * * * * * * * * * * * * * * * * * * * * * * * * * * * * * * * //

dimensions      [0 2 -2 0 0 0 0];

internalField   nonuniform List<scalar> 
10720
(
-89.568
-163.576
-250.927
-336.349
-414.751
-494.682
-565.091
-623.832
-674.773
-714.311
-744.425
-766.421
-781.089
-789.634
-792.51
-789.262
-780.809
-765.815
-745.422
-718.251
-685.337
-645.871
-602.086
-554.887
-507.774
-465.828
-428.038
-390.816
-353.884
-317.466
-281.381
-245.488
-209.684
-173.74
-137.403
-99.5666
-59.8716
-12.3306
35.3644
-14.6685
53.3764
126.79
195.815
255.262
301.149
329.815
340.825
340.147
329.197
309.413
286.321
262.857
240.043
218.568
198.304
179.343
161.276
143.853
126.579
109.409
92.0236
74.5173
57.2875
42.2286
30.409
20.7786
12.9502
6.92684
2.76553
0.369401
-0.367539
0.475187
2.901
6.92141
12.9541
21.5529
36.4459
61.5175
23.7287
-32.6035
-95.5157
-162.139
-230.399
-300.121
-367.631
-430.828
-489.086
-540.626
-585.125
-622.576
-653.042
-676.592
-693.15
-702.43
-705.036
-700.541
-689.492
-671.276
-646.451
-614.743
-577.835
-536.871
-494.936
-456.345
-420.637
-385.021
-349.327
-313.873
-278.567
-243.307
-208.013
-172.477
-136.455
-98.8607
-59.3504
-11.9096
35.0942
74.5156
123.109
171.805
219.134
261.207
295.422
318.788
330.046
330.544
321.546
305.637
286.19
265.332
244.175
223.481
203.517
184.448
166.124
148.37
130.868
113.526
96.1359
78.782
61.8718
46.8799
34.722
24.6781
16.4227
9.97842
5.40004
2.61747
1.53314
2.06502
4.21545
8.00559
13.8569
22.3141
37.1146
61.1978
40.1986
-10.2306
-66.7903
-129.046
-193.411
-259.202
-324.829
-387.59
-445.911
-498.803
-545.034
-584.294
-616.403
-641.301
-659.182
-670.248
-674.731
-672.445
-663.582
-647.909
-625.726
-597.085
-563.246
-525.49
-486.367
-449.414
-414.741
-380.189
-345.44
-310.772
-276.126
-241.405
-206.546
-171.354
-135.601
-98.2189
-58.882
-11.6335
34.8558
85.8086
130.343
174.827
217.241
254.204
284.108
304.907
315.916
317.844
311.539
298.898
282.206
263.31
243.487
223.613
204.151
185.336
167.164
149.517
132.165
114.988
97.8457
80.8036
64.2343
49.3069
36.9164
26.6559
18.2139
11.5921
6.83615
3.8857
2.64331
3.02891
5.04642
8.72561
14.4892
22.8791
37.5569
60.6537
65.1284
22.7035
-25.5988
-78.6264
-134.178
-192.18
-250.959
-308.689
-364.037
-415.862
-463.028
-504.864
-540.889
-570.81
-594.406
-611.676
-622.379
-626.244
-623.216
-613.177
-596.3
-572.793
-543.673
-510.268
-474.784
-440.241
-407.223
-374.144
-340.627
-306.956
-273.136
-239.094
-204.783
-170.031
-134.622
-97.5194
-58.4205
-11.4894
34.4525
103.192
139.901
176.84
212.693
244.342
270.547
289.478
300.374
303.522
299.454
289.628
275.749
259.307
241.47
223.088
204.677
186.543
168.8
151.417
134.264
117.251
100.306
83.5019
67.1887
52.3275
39.7615
29.289
20.6239
13.7615
8.75245
5.54857
4.06396
4.22804
6.05017
9.56752
15.2017
23.4819
37.9619
60.0762
73.3089
35.6046
-7.53585
-55.2122
-105.301
-158.203
-212.518
-266.598
-319.415
-369.811
-416.636
-459.096
-496.521
-528.381
-554.291
-574.015
-587.19
-593.702
-593.416
-586.322
-572.526
-552.312
-526.511
-496.381
-463.821
-431.346
-399.769
-367.974
-335.576
-302.849
-269.843
-236.496
-202.772
-168.507
-133.497
-96.7331
-57.9402
-11.4339
33.8159
107.229
139.767
172.593
204.452
232.594
256.185
273.745
284.538
288.629
286.425
279.027
267.714
253.642
237.813
221.02
203.798
186.507
169.351
152.382
135.557
118.831
102.179
85.6877
69.6836
54.9652
42.3039
31.6605
22.8069
15.7403
10.5151
7.09625
5.40831
5.38653
7.04185
10.4167
15.9306
24.0957
38.3472
59.4652
78.565
45.1446
6.69576
-35.7833
-80.439
-127.979
-177.102
-226.492
-275.396
-322.754
-367.582
-409.111
-446.602
-479.416
-507.058
-529.123
-545.242
-555.163
-558.614
-555.447
-545.663
-529.497
-507.626
-481.197
-451.864
-421.754
-391.838
-361.446
-330.252
-298.523
-266.36
-233.731
-200.612
-166.858
-132.276
-95.8924
-57.4637
-11.4944
32.9521
108.629
137.35
166.521
195.029
220.338
241.84
258.304
268.956
273.735
273.013
267.621
258.546
246.685
232.861
217.778
201.938
185.714
169.357
152.986
136.63
120.295
104.001
87.8525
72.1621
57.6095
44.8964
34.1082
25.0848
17.8253
12.3871
8.74925
6.84711
6.62375
8.09519
11.3106
16.6871
24.7163
38.6943
58.8009
79.7503
49.6006
14.8169
-23.6424
-63.9958
-107.19
-152.059
-197.456
-242.87
-287.355
-330.055
-370.276
-407.256
-440.313
-468.875
-492.425
-510.485
-522.662
-528.622
-528.179
-521.32
-508.266
-489.587
-466.302
-439.836
-411.958
-383.687
-354.693
-324.719
-294.012
-262.714
-230.822
-198.329
-165.107
-130.979
-95.0108
-57.0025
-11.6804
31.871
106.901
132.754
159.142
185.033
208.104
227.921
243.467
253.935
259.202
259.64
255.884
248.713
238.832
226.902
213.519
199.125
184.078
168.65
153.007
137.234
121.384
105.519
89.7633
74.4186
60.0754
47.3735
36.4874
27.3257
19.8956
14.2594
10.412
8.3017
7.88026
9.16908
12.2235
17.4554
25.3339
38.995
58.089
79.0781
51.7049
20.0528
-14.9166
-51.5139
-90.8179
-131.756
-173.326
-215.197
-256.557
-296.667
-334.942
-370.678
-403.205
-431.915
-456.242
-475.629
-489.652
-497.93
-500.18
-496.294
-486.406
-470.963
-450.834
-427.242
-401.674
-375.149
-347.619
-318.919
-289.283
-258.891
-227.771
-195.931
-163.264
-129.616
-94.0947
-56.5575
-11.9839
30.5864
103.765
127.217
151.283
175.004
196.223
214.637
229.377
239.619
245.223
246.55
244.108
238.531
230.38
220.182
208.429
195.492
181.693
167.301
152.502
137.419
122.148
106.785
91.4737
76.5063
62.4119
49.7753
38.8336
29.5618
21.9816
16.1614
12.1122
9.79705
9.17656
10.2785
13.1645
18.2398
25.9484
39.2485
57.3351
77.0393
51.977
22.9596
-9.07436
-42.4962
-78.4519
-115.969
-154.143
-192.788
-231.194
-268.739
-304.95
-339.184
-370.812
-399.243
-423.878
-444.127
-459.501
-469.563
-473.952
-472.493
-465.276
-452.653
-435.357
-414.426
-391.091
-366.321
-340.271
-312.87
-284.34
-254.888
-224.572
-193.418
-161.337
-128.195
-93.1513
-56.1261
-12.3899
29.1223
99.6751
121.143
143.278
165.181
184.831
202.06
216.076
226.062
231.888
233.891
232.499
228.24
221.575
212.926
202.689
191.166
178.633
165.336
151.462
137.157
122.546
107.752
92.9359
78.3841
64.5802
52.0638
41.1133
31.7651
24.0599
18.074
13.8347
11.3206
10.503
11.4162
14.1286
19.0362
26.5561
39.4536
56.5398
74.2143
51.1338
24.3891
-5.1002
-35.77
-68.7929
-103.264
-138.368
-174.021
-209.598
-244.59
-278.614
-311.1
-341.499
-369.241
-393.73
-414.378
-430.655
-442.101
-448.317
-449.037
-444.281
-434.294
-419.678
-401.297
-380.166
-357.179
-332.639
-306.564
-279.175
-250.697
-221.221
-190.786
-159.323
-126.718
-92.1868
-55.7091
-12.8875
27.5107
95.0964
114.873
135.36
155.705
174.008
190.207
203.567
213.274
219.23
221.742
221.184
218.007
212.603
205.314
196.46
186.276
174.989
162.811
149.916
136.457
122.575
108.413
94.1421
80.0456
66.574
54.2302
43.319
33.9297
26.1261
19.9941
15.5774
12.8715
11.8593
12.5819
15.1149
19.8431
27.1549
39.6101
55.7053
70.9045
49.5364
24.7633
-2.51533
-30.7875
-61.2406
-93.0229
-125.392
-158.324
-191.277
-223.835
-255.701
-286.372
-315.369
-342.175
-366.224
-386.935
-403.771
-416.231
-423.909
-426.45
-423.814
-416.168
-403.985
-387.977
-368.967
-347.757
-324.739
-300.01
-273.79
-246.319
-217.713
-188.03
-157.218
-125.185
-91.2042
-55.3108
-13.4708
25.7756
90.2705
108.592
127.653
146.647
163.777
179.065
191.818
201.237
207.251
210.142
210.241
207.95
203.609
197.5
189.884
180.942
170.852
159.785
147.896
135.329
122.231
108.755
95.0768
81.4747
68.3773
56.257
45.4334
36.0407
28.1678
21.9119
17.333
14.4442
13.2414
13.7727
16.1212
20.6582
27.7423
39.7183
54.8349
67.3311
47.4644
24.4243
-0.909403
-27.0761
-55.2574
-84.6461
-114.557
-145.019
-175.55
-205.807
-235.568
-264.399
-291.893
-317.584
-340.949
-361.437
-378.517
-391.67
-400.491
-404.563
-403.782
-398.235
-388.281
-374.488
-357.52
-338.071
-316.581
-293.213
-268.187
-241.752
-214.048
-185.149
-155.022
-123.596
-90.2052
-54.9353
-14.1382
23.9328
85.3722
102.424
120.236
138.038
154.135
168.606
180.792
189.921
195.934
199.1
199.718
198.149
194.697
189.603
183.085
175.276
166.311
156.325
145.443
133.795
121.521
108.774
95.7314
82.6626
69.9796
58.1312
47.4433
38.0864
30.175
23.8191
19.0952
16.0341
14.646
14.9859
17.1451
21.4791
28.316
39.7794
53.9315
63.6398
45.098
23.5949
-0.0147986
-24.3176
-50.4794
-77.7328
-105.437
-133.66
-161.975
-190.088
-217.843
-244.867
-270.818
-295.291
-317.811
-337.865
-354.941
-368.516
-378.191
-383.514
-384.309
-380.603
-372.653
-360.904
-345.872
-328.149
-308.182
-286.181
-262.369
-236.997
-210.224
-182.141
-152.732
-121.949
-89.1903
-54.5858
-14.8866
21.9909
80.5053
96.4417
113.142
129.884
145.06
158.79
170.445
179.283
185.254
188.614
189.637
188.654
185.945
181.72
176.163
169.375
161.453
152.498
142.605
131.882
120.456
108.472
96.0994
83.6005
71.3708
59.8396
49.3345
40.0536
32.1362
25.7062
20.8563
17.6355
16.0687
16.2183
18.1836
22.3032
28.8737
39.7941
52.9988
59.928
42.5669
22.4384
0.369657
-22.2698
-46.626
-71.9659
-97.6816
-123.878
-150.164
-176.291
-202.152
-227.431
-251.842
-275.043
-296.609
-316.064
-332.93
-346.697
-356.965
-363.285
-365.408
-363.304
-357.148
-347.272
-334.067
-318.02
-299.559
-278.926
-256.341
-232.055
-206.241
-179.005
-150.349
-120.245
-88.1598
-54.2653
-15.7117
19.9581
75.7435
90.6843
106.394
122.179
136.528
149.578
160.732
169.284
175.179
178.67
180.008
179.501
177.409
173.924
169.203
163.325
156.357
148.372
139.434
129.625
119.055
107.854
96.1808
84.2836
72.5427
61.3713
51.0943
41.9299
34.0401
27.5636
22.6086
19.242
17.5047
17.466
19.2337
23.1277
29.413
39.7647
52.0403
56.2604
39.9618
21.0705
0.389158
-20.7583
-43.4917
-67.1057
-91.0289
-115.383
-139.81
-164.104
-188.193
-211.81
-234.722
-256.634
-277.177
-295.918
-312.416
-326.187
-336.83
-343.914
-347.13
-346.401
-341.829
-333.652
-322.154
-307.717
-290.736
-271.461
-250.111
-226.93
-202.101
-175.742
-147.871
-118.484
-87.114
-53.9738
-16.6096
17.8438
71.1322
85.1776
99.9915
114.911
128.508
140.93
151.613
159.88
165.677
169.248
170.829
170.705
169.127
166.269
162.273
157.201
151.098
144.01
135.979
127.06
117.341
106.933
95.9798
84.7099
73.4891
62.7165
52.7104
43.7029
35.8753
29.381
24.3434
20.8469
18.9484
18.7247
20.2917
23.9496
29.9318
39.693
51.0604
52.6814
37.3462
19.5756
0.151359
-19.6498
-40.9144
-62.9661
-85.2652
-107.944
-130.672
-153.277
-175.717
-197.763
-219.227
-239.864
-259.348
-277.297
-293.307
-306.926
-317.755
-325.398
-329.496
-329.929
-326.743
-320.094
-310.176
-297.275
-281.735
-263.802
-243.689
-221.627
-197.805
-172.351
-145.299
-116.665
-86.0529
-53.7118
-17.5737
15.6569
66.6986
79.9339
93.9327
108.063
120.97
132.81
143.048
151.035
156.716
160.328
162.093
162.279
161.125
158.799
155.428
151.063
145.737
139.473
132.292
124.227
115.342
105.726
95.5024
84.8802
74.2075
63.8681
54.1726
45.3609
37.6302
31.1479
26.0517
22.4427
20.394
19.9897
21.3537
24.7657
30.4279
39.5816
50.0632
49.2216
34.7631
18.0137
-0.264189
-18.8439
-38.7728
-59.4063
-80.2273
-101.378
-122.555
-143.605
-164.512
-185.083
-205.165
-224.556
-242.976
-260.085
-275.519
-288.862
-299.724
-307.74
-312.529
-313.93
-311.94
-306.653
-298.183
-286.733
-272.585
-255.97
-237.086
-216.153
-193.357
-168.834
-142.633
-114.79
-84.9766
-53.4776
-18.597
13.4068
62.4586
74.9571
88.2093
101.613
113.887
125.183
134.999
142.712
148.263
151.886
153.787
154.221
153.42
151.543
148.71
144.965
140.331
134.816
128.425
121.169
113.089
104.253
94.7615
84.7995
74.6963
64.8203
55.4716
46.893
39.2938
32.8538
27.7241
24.0214
21.8348
21.2557
22.4153
25.5726
30.8997
39.4333
49.0531
45.8995
32.2434
16.4324
-0.798853
-18.2613
-36.9736
-56.3112
-75.7847
-95.5389
-115.292
-134.911
-154.399
-173.59
-192.366
-210.556
-227.921
-244.165
-258.961
-271.929
-282.698
-290.931
-296.241
-298.432
-297.462
-293.375
-286.222
-276.128
-263.316
-247.985
-230.318
-210.517
-188.762
-165.193
-139.874
-112.858
-83.884
-53.2698
-19.6712
11.1058
58.4203
70.2436
82.809
95.5424
107.228
118.016
127.431
134.876
140.289
143.898
145.898
146.529
146.021
144.523
142.152
138.947
134.926
130.088
124.422
117.924
110.615
102.539
93.7719
84.4759
74.9578
65.57
56.5999
48.2893
40.8553
34.4881
29.3508
25.5745
23.2635
22.5169
23.4717
26.3669
31.3451
39.2515
48.0353
42.7258
29.8089
14.8608
-1.40536
-17.8459
-35.4409
-53.5923
-71.8305
-90.3067
-108.753
-127.055
-145.23
-163.135
-180.676
-197.718
-214.052
-229.425
-243.544
-256.065
-266.643
-274.956
-280.638
-283.459
-283.345
-280.304
-274.337
-265.502
-253.958
-239.871
-223.402
-204.73
-184.027
-161.434
-137.024
-110.87
-82.7752
-53.086
-20.7874
8.76552
54.5865
65.7877
77.7176
89.8301
100.966
111.277
120.311
127.494
132.763
136.339
138.407
139.197
138.929
137.753
135.777
133.043
129.563
125.331
120.328
114.534
107.952
100.607
92.5503
83.9193
74.997
66.1166
57.5524
49.5415
42.3048
36.0405
30.922
27.0933
24.6726
23.7671
24.5178
27.1449
31.7629
39.0392
47.0147
39.7072
27.4739
13.3235
-2.05192
-17.5504
-34.1186
-51.178
-68.2834
-85.5849
-102.83
-119.916
-136.875
-153.582
-169.965
-185.915
-201.254
-215.763
-229.184
-241.207
-251.512
-259.795
-265.72
-269.027
-269.62
-267.48
-262.571
-254.892
-244.544
-231.654
-216.355
-198.805
-179.16
-157.56
-134.087
-108.827
-81.649
-52.9229
-21.9361
6.39817
50.9559
61.5818
72.9213
84.456
95.078
104.938
113.61
120.538
125.659
129.188
131.301
132.214
132.145
131.24
129.604
127.279
124.275
120.584
116.18
111.034
105.134
98.4851
91.1181
83.144
74.8207
66.4613
58.3256
50.6425
43.6331
37.501
32.4277
28.5686
26.0541
24.9994
25.5483
27.903
32.1515
38.8001
45.9961
36.8454
25.2469
11.8377
-2.71194
-17.3407
-32.9598
-49.013
-65.0745
-81.2939
-97.432
-113.399
-129.232
-144.825
-160.123
-175.039
-189.424
-203.087
-215.801
-227.289
-237.262
-245.426
-251.481
-255.147
-256.313
-254.941
-250.965
-244.338
-235.109
-223.361
-209.2
-192.756
-174.172
-153.578
-131.064
-106.731
-80.5038
-52.776
-23.1068
4.01737
47.5261
57.6164
68.4055
79.4
89.5396
98.9736
107.301
113.982
118.953
122.423
124.56
125.571
125.667
124.99
123.645
121.674
119.089
115.879
112.014
107.461
102.193
96.2019
89.4975
82.1655
74.4382
66.6079
58.9179
51.5867
44.8322
38.8602
33.8584
29.9911
27.3997
26.2069
26.5575
28.6373
32.51
38.5375
44.9848
34.1405
23.1333
10.414
-3.36687
-17.1887
-31.929
-47.0507
-62.1484
-77.3668
-92.4835
-107.415
-122.207
-136.766
-151.05
-164.993
-178.466
-191.307
-203.318
-214.252
-223.844
-231.818
-237.909
-241.826
-243.444
-242.715
-239.555
-233.878
-225.686
-215.022
-201.958
-186.602
-169.073
-149.495
-127.96
-104.582
-79.3384
-52.6405
-24.2883
1.63733
44.291
53.8819
64.1554
74.6434
84.3288
93.3605
101.358
107.799
112.62
116.024
118.17
119.255
119.487
119.004
117.908
116.244
114.025
111.241
107.86
103.844
99.1601
93.7846
87.7106
81.0005
73.8613
66.5627
59.3303
52.3707
45.8954
40.1096
35.2045
31.3514
28.7007
27.382
27.5395
29.344
32.8372
38.2549
43.9857
31.5905
21.1352
9.06099
-4.00229
-17.0753
-30.9974
-45.2554
-59.4596
-73.7533
-87.9233
-101.898
-115.724
-129.322
-142.66
-155.688
-168.296
-180.346
-191.665
-202.033
-211.213
-218.944
-224.989
-229.063
-231.029
-230.831
-228.374
-223.547
-216.309
-206.664
-194.655
-180.36
-163.878
-145.32
-124.781
-102.382
-78.1505
-52.5108
-25.4703
-0.728652
41.2438
50.3686
60.1583
70.1691
79.4265
88.0766
95.7594
101.967
106.638
109.97
112.113
113.255
113.598
113.279
112.397
110.999
109.1
106.692
103.743
100.214
96.0635
91.2601
85.7812
79.6686
73.1037
66.3334
59.5657
52.9925
46.8172
41.2414
36.4572
32.6405
29.9487
28.5171
28.4883
30.0194
33.1325
37.9556
43.0035
29.1914
19.2532
7.78338
-4.60826
-16.9822
-30.1427
-43.5969
-56.9718
-70.4068
-83.7014
-96.7882
-109.72
-122.422
-134.877
-147.046
-158.836
-170.13
-180.774
-190.576
-199.321
-206.768
-212.704
-216.854
-219.076
-219.307
-217.451
-213.378
-207.011
-198.32
-187.315
-174.05
-158.599
-141.062
-121.532
-100.133
-76.9385
-52.3799
-26.6408
-3.06591
38.3782
47.0651
56.4002
65.9615
74.8141
83.1009
90.4821
96.4649
100.988
104.243
106.373
107.556
107.991
107.811
107.113
105.946
104.327
102.25
99.6859
96.5932
92.9294
88.6539
83.7328
78.1891
72.1802
65.93
59.6283
53.4524
47.594
42.2489
37.6082
33.8496
31.1348
29.6043
29.3977
30.6595
33.395
37.6427
42.0426
26.9384
17.4864
6.58425
-5.17764
-16.8974
-29.3466
-42.0508
-54.6536
-67.2911
-79.7722
-92.0354
-104.135
-116.007
-127.639
-139.003
-150.021
-160.593
-170.585
-179.826
-188.124
-195.259
-201.034
-205.194
-207.591
-208.162
-206.814
-203.402
-197.823
-190.017
-179.965
-167.693
-153.255
-136.734
-118.218
-97.8382
-75.699
-52.2412
-27.788
-5.36043
35.6866
43.962
52.868
62.0039
70.4728
78.4142
85.5073
91.2731
95.6511
98.8261
100.935
102.148
102.658
102.595
102.055
101.088
99.7144
97.9289
95.7055
93.0044
89.7811
85.9897
81.5875
76.5817
71.1064
65.3638
59.525
53.7518
48.2233
43.1273
38.6502
34.9701
32.2509
30.6361
30.2617
31.2605
33.6243
37.3189
41.1071
24.8265
15.8326
5.46458
-5.70554
-16.8121
-28.5954
-40.5987
-52.4813
-64.3758
-76.0999
-87.598
-98.9242
-110.022
-120.887
-131.498
-141.789
-151.675
-161.04
-169.733
-177.58
-184.382
-189.956
-194.071
-196.577
-197.41
-196.482
-193.646
-188.775
-181.785
-172.63
-161.312
-147.862
-132.346
-114.849
-95.4977
-74.4308
-52.0862
-28.9001
-7.59817
33.1614
41.0488
49.5491
58.2816
66.3868
73.9995
80.816
86.3728
90.6083
93.7018
95.7835
97.0169
97.588
97.6246
97.2205
96.4276
95.2674
93.7381
91.8168
89.4652
86.6391
83.2891
79.3665
74.8651
69.8987
64.6471
59.2637
53.8943
48.7046
43.8719
39.5768
35.9943
33.2888
31.6049
31.074
31.8188
33.8197
36.9867
40.2005
22.8506
14.2882
4.42467
-6.18842
-16.7189
-27.8773
-39.2244
-50.4338
-61.6349
-72.6532
-83.4393
-94.0461
-104.424
-114.574
-124.48
-134.088
-143.324
-152.089
-160.248
-167.647
-174.103
-179.446
-183.473
-186.029
-187.056
-186.474
-184.134
-179.895
-173.651
-165.336
-154.928
-142.438
-127.913
-111.43
-93.1167
-73.1305
-51.9077
-29.967
-9.7658
30.7947
38.3155
46.4317
54.7822
62.5412
69.8408
76.3922
81.7469
85.8433
88.8547
90.905
92.1502
92.771
92.8919
92.6054
91.9634
90.99
89.686
88.0313
85.9908
83.5211
80.5721
77.0903
73.0596
68.574
63.7933
58.8535
53.885
49.0388
44.4806
40.3826
36.9154
34.2408
32.5034
31.8289
32.3306
33.9808
36.6479
39.3255
21.0046
12.8505
3.46275
-6.62394
-16.6128
-27.1838
-37.9149
-48.495
-59.0474
-69.4076
-79.5296
-89.4669
-99.1736
-108.656
-117.903
-126.869
-135.492
-143.685
-151.328
-158.285
-164.389
-169.482
-173.385
-175.944
-177.108
-176.804
-174.887
-171.207
-165.643
-158.11
-148.565
-137.001
-123.447
-107.971
-90.6962
-71.7962
-51.6986
-30.9766
-11.8505
28.5787
35.7528
43.5052
51.4921
58.9218
65.9229
72.2198
77.3796
81.3403
84.2697
86.2854
87.5361
88.1973
88.3898
88.2045
87.6938
86.8834
85.777
84.3577
82.5933
80.4425
77.8561
74.7776
71.1825
67.1484
62.8161
58.3049
53.7302
49.2283
44.9521
41.0639
37.7273
35.1001
33.3247
32.5207
32.7925
34.1069
36.3044
38.4844
19.2824
11.5148
2.57757
-7.01166
-16.4901
-26.5084
-36.6603
-46.65
-56.5954
-66.3405
-75.8421
-85.1548
-94.2365
-103.095
-111.726
-120.091
-128.136
-135.785
-142.933
-149.457
-155.208
-160.038
-163.789
-166.315
-167.566
-167.482
-165.923
-162.734
-157.785
-150.976
-142.246
-131.57
-118.963
-104.481
-88.2408
-70.4252
-51.4489
-31.9192
-13.8392
26.506
33.3514
40.7582
48.3991
55.5151
62.2311
68.2843
73.2559
77.0848
79.9326
81.9113
83.1623
83.8559
84.1097
84.0112
83.6147
82.9469
82.0139
80.802
79.2823
77.4165
75.1561
72.4443
69.2507
65.6379
61.7292
57.6289
53.4376
49.277
45.2867
41.6177
38.4251
35.8605
34.0626
33.144
33.2012
34.1975
35.957
37.6785
17.6784
10.2769
1.76689
-7.35177
-16.3482
-25.8449
-35.4521
-44.8867
-54.2631
-63.4322
-72.3547
-81.0839
-89.5819
-97.8591
-105.914
-113.715
-121.216
-128.35
-135.025
-141.13
-146.531
-151.09
-154.671
-157.132
-158.43
-158.515
-157.255
-154.496
-150.099
-143.956
-135.992
-126.165
-114.476
-100.969
-85.7543
-69.0156
-51.1528
-32.7839
-15.7207
24.5693
31.1022
38.1808
45.4923
52.3088
58.7522
64.5719
69.362
73.0629
75.8301
77.77
79.0173
79.7363
80.0422
80.0192
79.7222
79.1792
78.398
77.3685
76.0654
74.453
72.4851
70.1056
67.2799
64.0578
60.5468
56.837
53.0156
49.1901
45.4862
42.0429
39.0052
36.517
34.7114
33.6941
33.5536
34.2519
35.6063
36.9083
16.1866
9.13273
1.0278
-7.64474
-16.1857
-25.1901
-34.2838
-43.1966
-52.0386
-60.6683
-69.0486
-77.2324
-85.1855
-92.9191
-100.436
-107.708
-114.698
-121.346
-127.569
-133.27
-138.328
-142.615
-146.011
-148.383
-149.695
-149.906
-148.894
-146.508
-142.606
-137.073
-129.824
-120.804
-110
-97.4459
-83.2403
-67.566
-50.8027
-33.5625
-17.4857
22.7612
28.9975
35.7633
42.7609
49.2913
55.4741
61.0691
65.6851
69.262
71.9498
73.8494
75.0895
75.8288
76.1785
76.221
76.0106
75.5768
74.9288
74.0598
72.9479
71.5605
69.8541
67.7745
65.2841
62.4224
59.2822
55.941
52.4736
48.9737
45.5536
42.3393
39.4651
37.0654
35.2666
34.1667
33.8468
34.2694
35.2524
36.1736
14.8012
8.07754
0.357516
-7.89188
-16.002
-24.5409
-33.15
-41.5719
-49.9118
-58.035
-65.9077
-73.5812
-81.0246
-88.2504
-95.2641
-102.042
-108.551
-114.74
-120.535
-125.849
-130.572
-134.588
-137.791
-140.057
-141.356
-141.656
-140.848
-138.783
-135.322
-130.346
-123.762
-115.506
-105.551
-93.9209
-80.7037
-66.0757
-50.3922
-34.2469
-19.1256
21.0747
27.029
33.4968
40.1943
46.4516
52.3849
57.7644
62.2127
65.6692
68.2793
70.1382
71.3687
72.1233
72.5101
72.6091
72.4744
72.1358
71.6048
70.8769
69.9334
68.7453
67.2721
65.462
63.2763
60.745
57.9485
54.9528
51.8212
48.6351
45.493
42.5085
39.8036
37.5029
35.7242
34.5582
34.0783
34.249
34.8949
35.4734
13.5164
7.10683
-0.24712
-8.09475
-15.7965
-23.8949
-32.0462
-40.0049
-47.8724
-55.52
-62.9172
-70.113
-77.0799
-83.8313
-90.3741
-96.6885
-102.747
-108.504
-113.894
-118.838
-123.238
-126.987
-129.992
-132.14
-133.406
-133.766
-133.122
-131.333
-128.264
-123.794
-117.825
-110.286
-101.142
-90.4042
-78.1496
-64.5434
-49.9163
-34.8299
-20.6325
19.5033
25.1889
31.3725
37.7835
43.7795
49.4739
54.6468
58.9329
62.2734
64.8074
66.6253
67.8435
68.6095
69.028
69.1758
69.107
68.8519
68.4231
67.8192
67.024
66.0121
64.7463
63.1776
61.2672
59.0377
56.5577
53.8838
51.0687
48.1821
45.31
42.553
40.021
37.8277
36.0814
34.8657
34.2459
34.1897
34.5329
34.8057
12.3267
6.21618
-0.789398
-8.25515
-15.5696
-23.2511
-30.9693
-38.4913
-45.9133
-53.1139
-60.0646
-66.8129
-73.3336
-79.6414
-85.7443
-91.6254
-97.261
-102.612
-107.619
-112.212
-116.302
-119.791
-122.597
-124.619
-125.835
-126.231
-125.719
-124.166
-121.443
-117.43
-112.029
-105.163
-96.7875
-86.9061
-75.583
-62.9705
-49.37
-35.3058
-22.0007
18.0405
23.47
29.3823
35.5194
41.2654
46.7309
51.7049
55.8353
59.0634
61.523
63.2996
64.504
65.278
65.723
65.9132
65.9019
65.7196
65.3807
64.8852
64.2205
63.364
62.282
60.9289
59.2665
57.3113
55.1216
52.7451
50.2261
47.6232
45.0107
42.4766
40.1188
38.0393
36.3368
35.0872
34.348
34.0907
34.1651
34.1683
11.2269
5.40109
-1.27264
-8.37521
-15.3221
-22.6082
-29.9169
-37.0262
-44.0288
-50.8086
-57.34
-63.6689
-69.772
-75.6645
-81.3556
-86.8313
-92.0711
-97.0404
-101.687
-105.947
-109.74
-112.979
-115.588
-117.479
-118.634
-119.047
-118.638
-117.287
-114.868
-111.269
-106.389
-100.149
-92.5005
-83.4366
-73.0099
-61.3573
-48.7509
-35.6708
-23.2256
16.68
21.8651
27.5184
33.3934
38.9
44.1459
48.9291
52.9095
56.0289
58.4156
60.1514
61.3403
62.1197
62.587
62.8137
62.8523
62.7337
62.4733
62.0729
61.5227
60.8029
59.8836
58.7224
57.2825
55.5754
53.6504
51.5476
49.3035
46.9673
44.6021
42.2843
40.0997
38.1387
36.4897
35.2213
34.3832
33.951
33.7898
33.5579
10.2114
4.6573
-1.70025
-8.45711
-15.0548
-21.9659
-28.8866
-35.6059
-42.213
-48.5966
-54.734
-60.6692
-66.381
-71.8852
-77.1914
-82.2878
-87.1569
-91.7684
-96.0754
-100.021
-103.533
-106.531
-108.947
-110.706
-111.792
-112.206
-111.878
-110.698
-108.548
-105.319
-100.917
-95.2593
-88.2931
-80.0052
-70.4361
-59.7059
-48.0571
-35.9215
-24.3041
15.4159
20.3678
25.7733
31.3977
36.675
41.7102
46.3097
50.1454
53.1599
55.4759
57.171
58.3433
59.1253
59.6109
59.8692
59.9512
59.8884
59.6964
59.3792
58.9293
58.3297
57.5538
56.563
55.3222
53.8384
52.1536
50.3012
48.3108
46.2234
44.092
41.9819
39.9675
38.1279
36.5409
35.2677
34.3508
33.7696
33.4051
32.971
9.27552
3.98056
-2.07557
-8.50327
-14.7691
-21.3243
-27.8774
-34.2281
-40.4613
-46.4719
-52.2386
-57.8044
-63.1494
-68.2898
-73.2359
-77.9779
-82.5003
-86.7767
-90.7652
-94.4148
-97.6598
-100.428
-102.658
-104.285
-105.298
-105.701
-105.435
-104.399
-102.485
-99.5911
-95.6238
-90.5041
-84.1763
-76.621
-67.8675
-58.019
-47.2876
-36.0566
-25.2345
14.2426
18.9717
24.1402
29.5244
34.582
39.4148
43.8379
47.5342
50.4471
52.6941
54.3487
55.5037
56.2863
56.7869
57.072
57.1919
57.1774
57.0453
56.8007
56.4384
55.9442
55.2946
54.4546
53.3911
52.1077
50.6398
49.0151
47.2575
45.4005
43.4884
41.5761
39.7272
38.01
36.4919
35.2269
34.2505
33.5457
33.0089
32.4038
8.41432
3.36678
-2.40187
-8.51583
-14.4662
-20.6833
-26.888
-32.8897
-38.7698
-44.4288
-49.847
-55.0659
-60.0671
-64.867
-69.4763
-73.8865
-78.085
-82.048
-85.7379
-89.109
-92.1027
-94.6523
-96.7042
-98.2023
-99.1384
-99.5226
-99.3041
-98.391
-96.6841
-94.089
-90.5177
-85.8936
-80.16
-73.2925
-65.3105
-56.3002
-46.4436
-36.0756
-26.0165
13.1545
17.6707
22.6122
27.7665
32.6133
37.252
41.505
45.0672
47.8817
50.0616
51.676
52.8127
53.594
54.1067
54.4147
54.5672
54.5948
54.5147
54.3334
54.0476
53.6457
53.1068
52.3997
51.4937
50.3895
49.1166
47.698
46.1526
44.5078
42.7996
41.0741
39.3846
37.7892
36.3457
35.1003
34.0827
33.2786
32.599
31.8521
7.62322
2.81179
-2.68231
-8.49724
-14.1477
-20.0433
-25.9175
-31.5889
-37.1356
-42.4631
-47.5533
-52.4461
-57.1249
-61.6062
-65.9004
-70.0006
-73.8963
-77.5663
-80.977
-84.0872
-86.844
-89.1877
-91.0697
-92.4428
-93.3022
-93.6617
-93.4779
-92.6689
-91.1441
-88.8168
-85.6049
-81.4359
-76.2528
-70.0278
-62.7715
-54.5533
-45.5269
-35.9803
-26.6517
12.1464
16.4591
21.1834
26.117
30.7618
35.2138
39.3034
42.7358
45.4553
47.5698
49.1444
50.2623
51.0404
51.5625
51.8898
52.0704
52.1345
52.0995
51.9733
51.754
51.4324
50.9905
50.4006
49.6339
48.6892
47.5908
46.3577
45.0048
43.5539
42.0342
40.4836
38.9463
37.4709
36.1058
34.8903
33.8484
32.9679
32.1732
31.3115
6.89774
2.31194
-2.92019
-8.44993
-13.8148
-19.405
-24.9656
-30.3242
-35.5557
-40.5704
-45.3516
-49.9382
-54.3148
-58.4974
-62.4971
-66.3078
-69.9208
-73.3172
-76.4671
-79.3333
-81.8681
-84.018
-85.7395
-86.993
-87.7767
-88.1074
-87.9491
-87.2284
-85.8638
-83.7761
-80.8899
-77.1367
-72.4616
-66.834
-60.2565
-52.7832
-44.5409
-35.7731
-27.1424
11.2134
15.3315
19.8476
24.5698
29.0206
33.2933
37.2253
40.5326
43.1601
45.2106
46.746
47.8443
48.6177
49.1468
49.4903
49.6948
49.7904
49.7944
49.7158
49.5543
49.3026
48.9454
48.4582
47.8143
47.011
46.0682
45.0014
43.8221
42.5474
41.2008
39.8127
38.4195
37.0609
35.7768
34.5999
33.549
32.6134
31.7294
30.7781
6.23365
1.86343
-3.11845
-8.37623
-13.4694
-18.7692
-24.0318
-29.0944
-34.0277
-38.7472
-43.2378
-47.5366
-51.6295
-55.5325
-59.2566
-62.797
-66.1461
-69.2874
-72.1941
-74.8325
-77.16
-79.1284
-80.699
-81.8387
-82.5491
-82.8491
-82.709
-82.0635
-80.8399
-78.9665
-76.3746
-73.0007
-68.7924
-63.7173
-57.7716
-50.9953
-43.49
-35.4581
-27.4923
10.3509
14.2825
18.5995
23.1186
27.3832
31.4833
35.2636
38.4502
40.9885
42.9768
44.4731
45.5513
46.3186
46.8525
47.2092
47.434
47.5565
47.5942
47.5567
47.4452
47.254
46.9705
46.5728
46.0371
45.3587
44.554
43.6354
42.6119
41.4965
40.3077
39.0698
37.8118
36.5658
35.3641
34.233
33.1867
32.2154
31.2656
30.2475
5.62686
1.46277
-3.28009
-8.27841
-13.1128
-18.1364
-23.1163
-27.8983
-32.5498
-36.9907
-41.2075
-45.2356
-49.0625
-52.7036
-56.1703
-59.4582
-62.5612
-65.4648
-68.1449
-70.5712
-72.7054
-74.5042
-75.9339
-76.9667
-77.607
-77.8756
-77.7482
-77.167
-76.0676
-74.3858
-72.0596
-69.0306
-65.2496
-60.6834
-55.3227
-49.1951
-42.3794
-35.0404
-27.7067
9.55427
13.3075
17.4333
21.7578
25.8433
29.7776
33.4116
36.4815
38.9333
40.8608
42.3186
43.3761
44.1361
44.6727
45.04
45.2817
45.4271
45.4937
45.4914
45.4228
45.284
45.0642
44.7447
44.3035
43.7352
43.0525
42.2656
41.3811
40.4089
39.3632
38.263
37.1311
35.9928
34.8735
33.7939
32.764
31.7746
30.7802
29.7161
5.07359
1.10646
-3.40787
-8.15875
-12.7464
-17.5075
-22.2191
-26.7351
-31.1199
-35.2978
-39.2567
-43.0306
-46.6078
-50.0039
-53.2297
-56.2821
-59.156
-61.8384
-64.3076
-66.5368
-68.4912
-70.1325
-71.4307
-72.3637
-72.9377
-73.175
-73.0564
-72.5308
-71.5411
-70.0306
-67.9439
-65.2279
-61.8364
-57.7368
-52.9153
-47.3886
-41.2152
-34.5262
-27.7916
8.81922
12.4017
16.3441
20.4818
24.3955
28.17
31.663
34.6199
36.9878
38.8559
40.2755
41.3118
42.0633
42.6008
42.9762
43.232
43.3966
43.4876
43.5155
43.4838
43.3899
43.2252
42.9733
42.6147
42.1428
41.5676
40.897
40.136
39.2919
38.3753
37.4007
36.3855
35.3493
34.3115
33.2877
32.2842
31.2918
30.2718
29.1804
4.5701
0.791384
-3.50464
-8.0193
-12.3722
-16.8834
-21.3401
-25.604
-29.7366
-33.6664
-37.3823
-40.917
-44.2603
-47.4269
-50.4277
-53.2603
-55.9207
-58.3973
-60.6709
-62.717
-64.5048
-66.0001
-67.1766
-68.017
-68.5289
-68.7361
-68.6232
-68.1459
-67.2536
-65.8964
-64.0251
-61.5922
-58.5548
-54.8813
-50.5545
-45.5817
-40.004
-33.9225
-27.7539
8.14177
11.5606
15.3273
19.2855
23.0338
26.6546
30.0114
32.8593
35.1457
36.9556
38.3374
39.352
40.0938
40.6306
41.0119
41.279
41.4597
41.5712
41.6246
41.6243
41.5688
41.4514
41.2581
40.9711
40.5834
40.1024
39.5342
38.8825
38.1524
37.3515
36.4907
35.583
34.643
33.6848
32.7197
31.7508
30.7685
29.7396
28.6372
4.11292
0.51442
-3.573
-7.86217
-11.9914
-16.2648
-20.4794
-24.5044
-28.3985
-32.094
-35.581
-38.891
-42.0148
-44.9666
-47.7574
-50.3852
-52.8469
-55.1323
-57.2242
-59.1008
-60.7345
-62.0949
-63.159
-63.9137
-64.3682
-64.5469
-64.4381
-64.0028
-63.1971
-61.977
-60.2996
-58.1222
-55.4058
-52.1198
-48.2449
-43.7806
-38.7531
-33.2372
-27.6013
7.51803
10.78
14.3782
18.164
21.7534
25.2261
28.4516
31.1938
33.4009
35.1539
36.4981
37.4906
38.2216
38.7561
39.1413
39.4174
39.6112
39.7397
39.8146
39.8407
39.818
39.741
39.5979
39.373
39.0585
38.6596
38.1813
37.6258
36.9966
36.2991
35.5409
34.7316
33.8814
33.0003
32.0956
31.1678
30.2067
29.1832
28.0841