/*--------------------------------*- C++ -*----------------------------------*\
  =========                 |
  \\      /  F ield         | OpenFOAM: The Open Source CFD Toolbox
   \\    /   O peration     | Website:  https://openfoam.org
    \\  /    A nd           | Version:  13
     \\/     M anipulation  |
\*---------------------------------------------------------------------------*/
FoamFile
{
    format      ascii;
    class       surfaceScalarField;
    location    "250";
    object      phi;
}
// * * * * * * * * * * * * * * * * * * * * * * * * * * * * * * * * * * * * * //

dimensions      [0 3 -1 0 0 0 0];

internalField   nonuniform List<scalar> 
21254
(
-0.241747
0.261259
-0.0195118
0.283222
-0.0219629
0.302022
-0.0188001
0.31877
-0.0167481
0.33461
-0.0158394
0.347215
-0.0126053
0.357136
-0.0099205
0.36518
-0.00804421
0.370427
-0.00524744
0.373952
-0.00352519
0.376009
-0.00205616
0.376427
-0.000418178
0.37557
0.000857017
0.373398
0.00217224
0.369848
0.00354913
0.365212
0.00463657
0.359308
0.00590352
0.352243
0.00706491
0.343881
0.00836283
0.334461
0.00941932
0.32367
0.0107911
0.312091
0.0115797
0.299997
0.0120931
0.288704
0.0112935
0.279413
0.00929134
0.271439
0.00797308
0.263657
0.00778289
0.255747
0.00790934
0.247377
0.00837069
0.238456
0.00892031
0.22896
0.00949633
0.218879
0.0100812
0.208147
0.0107314
0.196527
0.0116203
0.183491
0.0130363
0.167979
0.0155117
0.14764
0.0203394
0.117051
0.0305895
0.0951442
0.0219102
-0.218651
-0.0230967
-0.19476
-0.0238905
-0.165313
-0.0294468
-0.132938
-0.0323756
-0.0987469
-0.0341909
-0.063336
-0.0354109
-0.0282822
-0.0350537
0.00428241
-0.0325646
0.0337907
-0.0295083
0.059953
-0.0261624
0.0823278
-0.0223747
0.101337
-0.0190093
0.117333
-0.0159957
0.130681
-0.013348
0.1421
-0.0114195
0.151926
-0.00982548
0.160639
-0.0087131
0.168478
-0.00783873
0.175755
-0.00727767
0.182598
-0.00684242
0.189177
-0.00657944
0.195486
-0.00630869
0.201456
-0.00597049
0.206463
-0.00500717
0.210321
-0.00385737
0.213307
-0.00298574
0.215418
-0.00211122
0.216771
-0.00135324
0.21738
-0.000609021
0.217187
0.000192576
0.216097
0.00109069
0.214243
0.00185367
0.211751
0.00249162
0.208685
0.00306663
0.204903
0.00378202
0.19998
0.00492313
0.192736
0.00724371
0.177834
0.0149016
0.155095
0.0227396
-0.220602
0.242176
-0.0410859
0.264232
-0.0440194
0.287249
-0.0418167
0.30871
-0.0382093
0.329639
-0.036768
0.349016
-0.0319832
0.366445
-0.0273485
0.382184
-0.0237837
0.395828
-0.018891
0.407435
-0.0151331
0.417028
-0.0116488
0.424743
-0.00813299
0.430891
-0.00529064
0.435627
-0.00256455
0.438838
0.00033872
0.440206
0.00326817
0.439658
0.00645165
0.437321
0.00940222
0.432695
0.0129891
0.426075
0.016039
0.417064
0.019802
0.405959
0.0226847
0.392756
0.0252958
0.378098
0.025952
0.363252
0.0241368
0.348666
0.0225597
0.334435
0.0220138
0.320782
0.0215625
0.307528
0.0216248
0.294528
0.0219196
0.281578
0.0224472
0.268517
0.0231423
0.255097
0.0241515
0.241106
0.0256111
0.22615
0.0279922
0.209233
0.0324287
0.189088
0.040485
0.156826
0.0628514
0.113362
0.0653768
-0.198544
-0.0451544
-0.174909
-0.0475258
-0.147232
-0.0571235
-0.117944
-0.0616633
-0.0868292
-0.0653058
-0.0543225
-0.0679177
-0.0219526
-0.0674235
0.00904657
-0.0635638
0.0375272
-0.0579889
0.0628814
-0.0515165
0.0850218
-0.0445151
0.104249
-0.0382361
0.121003
-0.0327497
0.135509
-0.0278545
0.148206
-0.0241163
0.159394
-0.0210132
0.169363
-0.0186829
0.178424
-0.0168988
0.186828
-0.0156826
0.194692
-0.0147057
0.202174
-0.0140613
0.209345
-0.0134801
0.216133
-0.0127588
0.22208
-0.0109537
0.226909
-0.00868682
0.230825
-0.00690199
0.233825
-0.00511076
0.235959
-0.00348773
0.237276
-0.00192542
0.237922
-0.000453971
0.238
0.00101255
0.237451
0.0024031
0.236144
0.00379806
0.234036
0.00517458
0.23107
0.00674864
0.226999
0.00899339
0.221806
0.0124371
0.210881
0.0258268
0.189784
0.0438356
-0.214095
0.235839
-0.0628298
0.257735
-0.0659161
0.28136
-0.0654418
0.302958
-0.0598072
0.323488
-0.0572976
0.343135
-0.0516305
0.360607
-0.0448206
0.376317
-0.0394931
0.38982
-0.0323939
0.401404
-0.0267173
0.411099
-0.0213444
0.419071
-0.0161046
0.425148
-0.0113679
0.42981
-0.00722622
0.432805
-0.00265591
0.434873
0.0011995
0.435703
0.00562146
0.435643
0.00946247
0.434362
0.0142706
0.431799
0.018602
0.427838
0.0237624
0.42231
0.0282131
0.415187
0.0324188
0.406565
0.0345739
0.396964
0.0337374
0.386447
0.0330768
0.374904
0.033557
0.362481
0.0339854
0.349351
0.0347546
0.335613
0.0356584
0.321413
0.0366471
0.306784
0.0377711
0.291669
0.0392658
0.275897
0.0413837
0.259078
0.0448109
0.240219
0.0512879
0.218143
0.0625613
0.185169
0.0958252
0.137586
0.112962
-0.192208
-0.067041
-0.168211
-0.0715233
-0.139491
-0.0858431
-0.109592
-0.0915622
-0.0783358
-0.096562
-0.0458735
-0.10038
-0.0138224
-0.0994746
0.0161478
-0.093534
0.043707
-0.0855481
0.0686838
-0.0764933
0.0907785
-0.0666098
0.110148
-0.0576052
0.127148
-0.0497501
0.142054
-0.0427605
0.155177
-0.0372392
0.166853
-0.0326891
0.177348
-0.029178
0.186929
-0.0264798
0.195805
-0.0245582
0.20414
-0.0230406
0.212119
-0.0220406
0.219757
-0.0211182
0.226962
-0.019964
0.233434
-0.0174252
0.238885
-0.0141383
0.243419
-0.0114354
0.247092
-0.00878384
0.249936
-0.00633214
0.252016
-0.00400544
0.253325
-0.00176315
0.253935
0.000402954
0.253839
0.00249912
0.25306
0.00457712
0.251525
0.00670935
0.24913
0.00914367
0.24549
0.0126335
0.240175
0.0177521
0.229487
0.0365149
0.209466
0.0638563
-0.206477
0.22923
-0.0855832
0.252039
-0.0887254
0.277113
-0.0905151
0.299991
-0.0826857
0.322155
-0.0794618
0.343388
-0.0728635
0.362872
-0.0643044
0.38042
-0.0570408
0.396247
-0.0482209
0.410129
-0.0405996
0.422183
-0.0333987
0.432407
-0.0263283
0.440832
-0.0197931
0.447496
-0.01389
0.452719
-0.007879
0.45613
-0.00221153
0.457875
0.0038763
0.457711
0.00962655
0.455965
0.016017
0.452514
0.0220532
0.447506
0.0287707
0.44119
0.0345289
0.433695
0.0399133
0.425528
0.042741
0.417119
0.0421462
0.408524
0.0416716
0.399371
0.0427099
0.389511
0.0438462
0.378762
0.0455035
0.366947
0.0474734
0.354061
0.049533
0.340093
0.0517388
0.325046
0.0543132
0.308797
0.0576332
0.291093
0.0625152
0.270989
0.0713917
0.247232
0.0863179
0.212953
0.130104
0.164735
0.161181
-0.184005
-0.0895122
-0.159898
-0.0956303
-0.130647
-0.115094
-0.100609
-0.1216
-0.069284
-0.127887
-0.0367151
-0.132949
-0.00474295
-0.131447
0.0248529
-0.12313
0.0519017
-0.112597
0.0764747
-0.101066
0.0982323
-0.0883675
0.117413
-0.0767858
0.134426
-0.066763
0.14951
-0.057845
0.162983
-0.0507118
0.175068
-0.0447744
0.186056
-0.0401651
0.196123
-0.0365477
0.205502
-0.033937
0.214331
-0.0318695
0.222722
-0.0304318
0.230742
-0.0291376
0.23833
-0.0275522
0.245168
-0.0242639
0.251016
-0.0199861
0.255933
-0.0163525
0.259964
-0.0128147
0.263157
-0.0095254
0.265545
-0.00639347
0.267185
-0.00340281
0.268104
-0.000516443
0.268329
0.00227483
0.267856
0.00504953
0.266672
0.00789382
0.264655
0.0111604
0.261426
0.0158621
0.256391
0.0227867
0.246202
0.0467037
0.226538
0.0835203
-0.202368
0.225938
-0.109154
0.249633
-0.11242
0.276125
-0.117007
0.299774
-0.106335
0.322967
-0.102655
0.345309
-0.095205
0.365699
-0.0846941
0.384239
-0.0755808
0.40123
-0.0652126
0.416016
-0.0553849
0.428988
-0.0463711
0.440085
-0.0374249
0.449584
-0.0292921
0.457152
-0.0214578
0.462968
-0.0136955
0.467035
-0.00627836
0.469509
0.00140169
0.470431
0.00870474
0.469554
0.0168939
0.467142
0.0244651
0.463049
0.0328638
0.457414
0.0401641
0.450473
0.0468541
0.442624
0.0505905
0.434441
0.0503291
0.426132
0.0499807
0.417551
0.0512913
0.408633
0.0527639
0.399237
0.0548997
0.389193
0.0575168
0.378254
0.060472
0.366191
0.0638019
0.352789
0.0677157
0.337758
0.0726636
0.32069
0.079583
0.300707
0.0913751
0.276376
0.110649
0.241385
0.165096
0.193082
0.209486
-0.178854
-0.113026
-0.154041
-0.120443
-0.123548
-0.145587
-0.0926828
-0.152466
-0.0606501
-0.15992
-0.0274667
-0.166132
0.00492625
-0.16384
0.0345738
-0.152777
0.061442
-0.139465
0.0857603
-0.125385
0.107229
-0.109836
0.126186
-0.0957423
0.143123
-0.0837006
0.158252
-0.0729739
0.171885
-0.0643446
0.184283
-0.0571725
0.195622
-0.0515043
0.206085
-0.0470108
0.215865
-0.0437172
0.2251
-0.0411047
0.233884
-0.0392153
0.242256
-0.0375097
0.250182
-0.0354781
0.257387
-0.0314692
0.263612
-0.0262108
0.268888
-0.0216281
0.273247
-0.0171739
0.276742
-0.0130203
0.2794
-0.00905191
0.281255
-0.00525751
0.282346
-0.00160766
0.282727
0.00189362
0.282392
0.00538478
0.281302
0.00898373
0.279405
0.0130578
0.276309
0.0189583
0.271407
0.027688
0.261763
0.0563477
0.242767
0.102517
-0.199047
0.223635
-0.133742
0.24866
-0.137444
0.276532
-0.144879
0.301393
-0.131196
0.325608
-0.126869
0.349326
-0.118923
0.370687
-0.106055
0.390514
-0.0954073
0.408494
-0.0831925
0.424512
-0.0714028
0.438797
-0.0606561
0.451159
-0.0497872
0.461821
-0.0399542
0.47076
-0.0303963
0.477833
-0.0207691
0.483358
-0.0118034
0.486954
-0.00219398
0.488715
0.00694399
0.48875
0.0168583
0.486885
0.0263309
0.483169
0.0365789
0.477829
0.0455045
0.471017
0.0536665
0.463154
0.0584529
0.454758
0.0587256
0.446091
0.0586473
0.437109
0.0602732
0.427827
0.0620466
0.418247
0.064479
0.4083
0.0674644
0.397912
0.07086
0.386852
0.0748622
0.374849
0.0797189
0.361472
0.0860398
0.346108
0.0949477
0.327569
0.109914
0.304236
0.133982
0.269879
0.199453
0.222093
0.257273
-0.174566
-0.137507
-0.148937
-0.146072
-0.117137
-0.177387
-0.0851324
-0.18447
-0.0521029
-0.19295
-0.0179925
-0.200243
0.0151066
-0.196939
0.0450943
-0.182765
0.0720576
-0.166428
0.0963021
-0.149629
0.117591
-0.131125
0.136328
-0.114479
0.15311
-0.100483
0.168195
-0.0880584
0.181886
-0.0780358
0.194441
-0.0697268
0.206018
-0.0630818
0.21681
-0.0578024
0.226941
-0.0538486
0.23654
-0.0507031
0.245696
-0.0483714
0.254431
-0.0462447
0.262691
-0.0437383
0.270291
-0.0390694
0.276903
-0.0328232
0.282519
-0.0272438
0.287222
-0.0218771
0.291008
-0.0168062
0.293924
-0.0119679
0.296
-0.00733323
0.297274
-0.00288123
0.297771
0.00139641
0.297498
0.00565779
0.29647
0.0100116
0.294537
0.0149902
0.291407
0.0220889
0.286387
0.0327078
0.277029
0.0657056
0.258739
0.120807
-0.197034
0.222952
-0.15966
0.249014
-0.163506
0.278458
-0.174324
0.304599
-0.157337
0.330074
-0.152345
0.354871
-0.14372
0.37741
-0.128594
0.39809
-0.116088
0.417125
-0.102228
0.434088
-0.0883655
0.449209
-0.0757773
0.462629
-0.0632074
0.474213
-0.051538
0.484024
-0.0402069
0.492123
-0.0288689
0.498332
-0.0180118
0.502803
-0.00666566
0.505441
0.00430606
0.506269
0.0160305
0.505223
0.027377
0.502344
0.0394584
0.497694
0.0501546
0.491598
0.0597617
0.484242
0.0658094
0.476134
0.0668334
0.467513
0.0672684
0.458385
0.0694009
0.448785
0.0716468
0.438798
0.0744662
0.428392
0.0778706
0.417575
0.081677
0.406304
0.0861326
0.394451
0.0915725
0.381681
0.0988097
0.367488
0.109141
0.350665
0.126737
0.329379
0.155267
0.297343
0.231489
0.251102
0.303515
-0.171344
-0.163197
-0.14461
-0.172806
-0.111362
-0.210635
-0.07805
-0.217782
-0.0438216
-0.227178
-0.00847104
-0.235593
0.0255967
-0.231007
0.0562392
-0.213407
0.0835485
-0.193738
0.107945
-0.174026
0.12916
-0.152339
0.147745
-0.133064
0.164376
-0.117115
0.179352
-0.103034
0.193007
-0.0916911
0.205626
-0.0823464
0.217377
-0.0748326
0.2284
-0.0688249
0.238826
-0.0642747
0.248747
-0.0606239
0.258232
-0.0578567
0.267295
-0.0553079
0.275912
-0.0523553
0.283838
-0.0469951
0.290843
-0.0398284
0.29685
-0.0332506
0.301878
-0.0269057
0.305978
-0.0209061
0.309151
-0.0151408
0.311458
-0.00964052
0.3129
-0.0043227
0.313533
0.000763565
0.313364
0.00582677
0.31234
0.0110354
0.310407
0.0169235
0.307182
0.0253137
0.301976
0.037914
0.292697
0.074984
0.275031
0.138473
-0.195748
0.223002
-0.186914
0.250499
-0.191003
0.281629
-0.205453
0.308972
-0.18468
0.33574
-0.179113
0.361791
-0.169772
0.385351
-0.152153
0.407249
-0.137986
0.427101
-0.12208
0.445002
-0.106267
0.461178
-0.0919532
0.475463
-0.0774927
0.487932
-0.0640072
0.498703
-0.0509774
0.507707
-0.0378727
0.514899
-0.0252036
0.520306
-0.0120732
0.523858
0.000754139
0.525467
0.0144217
0.525137
0.0277071
0.522953
0.041642
0.518918
0.0541896
0.513273
0.0654065
0.506373
0.0727097
0.498542
0.0746642
0.49004
0.0757703
0.480924
0.0785169
0.471198
0.0813736
0.460906
0.0847577
0.450113
0.0886634
0.43877
0.0930201
0.426926
0.097977
0.414489
0.10401
0.401361
0.111937
0.387153
0.123349
0.37102
0.142871
0.351451
0.174837
0.322639
0.260301
0.279151
0.347004
-0.168828
-0.190117
-0.140937
-0.200698
-0.105974
-0.245597
-0.0711428
-0.252614
-0.0354901
-0.262831
0.00123029
-0.272313
0.0365192
-0.266296
0.0680282
-0.244916
0.0958734
-0.221583
0.120562
-0.198714
0.141854
-0.173632
0.160357
-0.151567
0.176859
-0.133617
0.191705
-0.11788
0.205277
-0.105262
0.217916
-0.0949855
0.229738
-0.0866551
0.240923
-0.0800097
0.251566
-0.0749177
0.261758
-0.070816
0.271528
-0.0676265
0.280918
-0.0646977
0.289863
-0.0613006
0.298157
-0.0552889
0.305532
-0.0472034
0.311905
-0.0396241
0.317289
-0.0322889
0.32171
-0.0253272
0.325162
-0.0185928
0.327687
-0.0121662
0.329332
-0.00596772
0.330099
-2.93789e-06
0.330018
0.00590787
0.329043
0.0120102
0.327061
0.0189052
0.323744
0.0286309
0.318366
0.0432919
0.309085
0.0842643
0.292031
0.155527
-0.195312
0.223934
-0.215536
0.25288
-0.219949
0.285709
-0.238282
0.314444
-0.213416
0.342686
-0.207354
0.370098
-0.197185
0.394882
-0.176937
0.417667
-0.160771
0.438638
-0.143051
0.457377
-0.125006
0.474265
-0.108841
0.489371
-0.0925993
0.502709
-0.0773452
0.514287
-0.0625552
0.524106
-0.0476918
0.532188
-0.0332857
0.538399
-0.0182834
0.542692
-0.00353949
0.545058
0.012056
0.54545
0.0273156
0.543947
0.0431441
0.540592
0.0575452
0.535551
0.0704469
0.52914
0.0791211
0.521689
0.0821152
0.513405
0.0840541
0.504342
0.0875799
0.494573
0.0911424
0.48416
0.0951707
0.473095
0.0997291
0.461387
0.104728
0.449041
0.110323
0.436001
0.117049
0.422154
0.125785
0.407279
0.138224
0.390738
0.159412
0.371647
0.193927
0.345647
0.2863
0.305357
0.387294
-0.166901
-0.218528
-0.137655
-0.229943
-0.100918
-0.282334
-0.0645272
-0.289005
-0.0272204
-0.300137
0.011075
-0.310609
0.047827
-0.303048
0.080386
-0.277476
0.108953
-0.25015
0.13411
-0.223871
0.1556
-0.195122
0.174129
-0.170096
0.190555
-0.150044
0.205285
-0.132609
0.218753
-0.118731
0.231322
-0.107554
0.243175
-0.0985088
0.254448
-0.0912826
0.265245
-0.0857147
0.275654
-0.0812247
0.285707
-0.0776793
0.295367
-0.0743585
0.30462
-0.0705528
0.313266
-0.0639352
0.321031
-0.0549683
0.327758
-0.046351
0.333498
-0.0380292
0.338222
-0.0300508
0.341975
-0.0223461
0.344754
-0.0149458
0.346589
-0.00780242
0.347515
-0.000928507
0.34752
0.00590295
0.346589
0.0129411
0.344606
0.0208882
0.341213
0.0320237
0.335647
0.0488582
0.326384
0.0935269
0.309932
0.171979
-0.19532
0.225556
-0.245772
0.256052
-0.250445
0.290778
-0.273008
0.320972
-0.24361
0.350502
-0.236885
0.379392
-0.226074
0.405351
-0.202895
0.42928
-0.1847
0.45124
-0.165011
0.470861
-0.144627
0.488608
-0.126588
0.504596
-0.108587
0.518644
-0.091393
0.530943
-0.0748548
0.54163
-0.058378
0.55042
-0.0420765
0.557411
-0.0252745
0.562462
-0.00858982
0.565628
0.00888967
0.566809
0.0261348
0.565922
0.0440312
0.563218
0.0602493
0.558758
0.0749065
0.552852
0.0850273
0.545755
0.0892123
0.537641
0.0921679
0.528686
0.0965353
0.518934
0.100894
0.508382
0.105723
0.497136
0.110975
0.485149
0.116714
0.472397
0.123076
0.458841
0.130605
0.44436
0.140265
0.428729
0.153855
0.411331
0.17681
0.391631
0.213628
0.367127
0.310804
0.329607
0.424815
-0.165539
-0.248309
-0.134827
-0.260655
-0.0961286
-0.321033
-0.0578779
-0.327255
-0.01889
-0.339125
0.0212415
-0.35074
0.0595228
-0.341329
0.0933225
-0.311275
0.122783
-0.27961
0.148578
-0.249666
0.170391
-0.216935
0.189018
-0.188723
0.205437
-0.166463
0.220075
-0.147247
0.233433
-0.132088
0.245922
-0.120043
0.257739
-0.110326
0.269038
-0.102582
0.279958
-0.0966348
0.290531
-0.0917981
0.300767
-0.0879151
0.310704
-0.0842956
0.320262
-0.0801101
0.329239
-0.072912
0.337352
-0.0630816
0.344463
-0.0534618
0.350536
-0.0441022
0.355603
-0.0351187
0.359641
-0.0263837
0.362674
-0.0179785
0.364735
-0.00986372
0.365805
-0.00199841
0.36593
0.00577761
0.365056
0.0138151
0.363054
0.0228905
0.359572
0.035505
0.353885
0.0545455
0.344663
0.102749
0.328789
0.187852
-0.195953
0.22776
-0.277579
0.259835
-0.28252
0.296491
-0.309664
0.328369
-0.275488
0.359519
-0.268034
0.389884
-0.256439
0.416989
-0.230001
0.442151
-0.209862
0.465151
-0.188011
0.485718
-0.165194
0.504259
-0.145129
0.520883
-0.125211
0.535734
-0.106243
0.548881
-0.0880022
0.560159
-0.0696557
0.569728
-0.0516455
0.577441
-0.0329874
0.583281
-0.0144304
0.587109
0.00506199
0.588961
0.024283
0.588794
0.0441983
0.586669
0.0623739
0.58279
0.0787855
0.577395
0.0904225
0.570699
0.0959083
0.56289
0.0999764
0.554055
0.10537
0.544275
0.110675
0.533675
0.116323
0.522214
0.122436
0.509955
0.128973
0.496873
0.136159
0.482884
0.144594
0.467852
0.155297
0.45152
0.170187
0.433314
0.195016
0.412555
0.234387
0.388364
0.334995
0.352674
0.460506
-0.164496
-0.279767
-0.132277
-0.292874
-0.0915029
-0.361807
-0.051321
-0.367437
-0.0103683
-0.380078
0.0316291
-0.392738
0.0716741
-0.381374
0.106864
-0.346465
0.137391
-0.310137
0.1639
-0.276175
0.186177
-0.239212
0.205016
-0.207561
0.221502
-0.18295
0.236084
-0.161829
0.249343
-0.145348
0.261732
-0.132432
0.273483
-0.122076
0.284784
-0.113882
0.295731
-0.107582
0.306415
-0.102482
0.316854
-0.0983539
0.327014
-0.0944553
0.336828
-0.0899241
0.346134
-0.0822179
0.354598
-0.0715462
0.362061
-0.0609248
0.368502
-0.0505427
0.373892
-0.0405093
0.378246
-0.0307373
0.381541
-0.0212734
0.383802
-0.0121255
0.385067
-0.00326317
0.3853
0.00554436
0.384491
0.0146241
0.38248
0.0249023
0.378948
0.0390367
0.373124
0.0603693
0.36396
0.111913
0.348724
0.203088
-0.196907
0.230515
-0.311187
0.26435
-0.316355
0.303046
-0.34836
0.336527
-0.308969
0.369291
-0.300799
0.401243
-0.288391
0.42986
-0.258618
0.456159
-0.236161
0.480235
-0.212086
0.501708
-0.186667
0.521151
-0.164572
0.538643
-0.142704
0.554112
-0.121712
0.567883
-0.101774
0.579937
-0.0817088
0.590194
-0.061903
0.598568
-0.0413612
0.605043
-0.0209053
0.609552
0.000552577
0.612095
0.0217402
0.612605
0.0436887
0.611144
0.0638348
0.607848
0.0820814
0.602951
0.0953194
0.596644
0.102215
0.589111
0.10751
0.580428
0.114053
0.570721
0.120382
0.560027
0.127017
0.54842
0.134043
0.535901
0.141492
0.522462
0.149598
0.508072
0.158984
0.492529
0.17084
0.475581
0.187135
0.45667
0.213926
0.434884
0.256174
0.410259
0.359619
0.375659
0.495106
-0.163811
-0.312862
-0.129863
-0.326822
-0.0869562
-0.404714
-0.044683
-0.40971
-0.00168666
-0.423075
0.0423607
-0.436785
0.0843473
-0.423361
0.121035
-0.383153
0.152733
-0.341836
0.180144
-0.303585
0.202996
-0.262065
0.222146
-0.226711
0.238734
-0.199538
0.253323
-0.176418
0.266507
-0.158533
0.278801
-0.144726
0.290455
-0.13373
0.301703
-0.125131
0.312676
-0.118555
0.323422
-0.113228
0.33398
-0.108912
0.34432
-0.104796
0.354408
-0.100012
0.364014
-0.0918239
0.372817
-0.0803491
0.380632
-0.0687402
0.387411
-0.0573217
0.393149
-0.0462471
0.397787
-0.0353749
0.401365
-0.0248517
0.403863
-0.0146235
0.405296
-0.00469668
0.405675
0.00516609
0.404918
0.0153812
0.402922
0.0268981
0.399329
0.0426296
0.393398
0.0663
0.384358
0.120953
0.369778
0.217668
-0.198363
0.23368
-0.346504
0.269377
-0.352052
0.310233
-0.389216
0.34557
-0.344306
0.380089
-0.335317
0.413684
-0.321985
0.443722
-0.288657
0.47136
-0.263798
0.4965
-0.237226
0.518962
-0.20913
0.539243
-0.184853
0.557476
-0.160936
0.573767
-0.138004
0.588247
-0.116253
0.600918
-0.0943798
0.611772
-0.0727574
0.620818
-0.0504076
0.627983
-0.0280698
0.633153
-0.00461764
0.636267
0.0186261
0.637407
0.0425491
0.636529
0.0647128
0.633798
0.0848122
0.629449
0.0996679
0.623635
0.108029
0.6164
0.114745
0.607923
0.12253
0.598269
0.130035
0.587531
0.137755
0.575786
0.145788
0.56304
0.154238
0.549272
0.163366
0.534436
0.17382
0.51838
0.186896
0.500838
0.204676
0.481274
0.233491
0.458675
0.278772
0.433383
0.384912
0.399432
0.529057
-0.163347
-0.347878
-0.12774
-0.362429
-0.0824651
-0.449988
-0.0380022
-0.454173
0.00723988
-0.468317
0.0535528
-0.483098
0.0975023
-0.46731
0.135892
-0.421542
0.168889
-0.374833
0.197305
-0.332001
0.220827
-0.285587
0.240375
-0.246259
0.257189
-0.216351
0.271834
-0.191062
0.284974
-0.171673
0.297181
-0.156932
0.308738
-0.145288
0.319908
-0.1363
0.330838
-0.129486
0.341619
-0.124009
0.35226
-0.119553
0.362768
-0.115303
0.373063
-0.110307
0.382961
-0.101722
0.392079
-0.0894674
0.400233
-0.076894
0.407355
-0.0644436
0.413402
-0.0522937
0.418363
-0.0403367
0.422219
-0.0287078
0.424963
-0.0173672
0.426603
-0.00633601
0.427111
0.00465741
0.426445
0.0160479
0.424453
0.0288893
0.42084
0.0462432
0.414831
0.072309
0.40588
0.129904
0.392008
0.23154
-0.200063
0.237325
-0.383767
0.274989
-0.389716
0.318145
-0.432372
0.355374
-0.381536
0.391677
-0.37162
0.427033
-0.357341
0.458622
-0.320246
0.487576
-0.292752
0.513952
-0.263602
0.537414
-0.232592
0.558664
-0.206103
0.577685
-0.179957
0.594691
-0.155009
0.609847
-0.131409
0.623063
-0.107596
0.634601
-0.0842957
0.644271
-0.0600768
0.652029
-0.0358278
0.657851
-0.0104402
0.66163
0.0148469
0.663352
0.0408278
0.663086
0.0649789
0.660931
0.086967
0.657089
0.10351
0.651694
0.113424
0.644787
0.121652
0.636546
0.130771
0.627016
0.139566
0.616267
0.148504
0.604397
0.157658
0.591416
0.167219
0.577334
0.177448
0.562061
0.189093
0.545515
0.203443
0.527376
0.222815
0.507166
0.253701
0.483814
0.302125
0.457926
0.410799
0.42447
0.562514
-0.163268
-0.384673
-0.125614
-0.400083
-0.0779606
-0.497641
-0.0311205
-0.501013
0.0164324
-0.515869
0.0650757
-0.531741
0.11129
-0.513524
0.151464
-0.461716
0.185932
-0.409301
0.215453
-0.361522
0.239758
-0.309892
0.25978
-0.266281
0.276871
-0.233442
0.29162
-0.205812
0.304745
-0.184798
0.316892
-0.169079
0.328362
-0.156758
0.339424
-0.147362
0.350296
-0.140358
0.361073
-0.134786
0.371769
-0.130249
0.382386
-0.125919
0.392884
-0.120806
0.403034
-0.111872
0.412448
-0.098881
0.420922
-0.0853679
0.428375
-0.0718969
0.434762
-0.0586807
0.440036
-0.0456105
0.444175
-0.0328472
0.447162
-0.0203536
0.448993
-0.00816689
0.449659
0.00399124
0.449083
0.0166239
0.447122
0.0308499
0.443482
0.0498827
0.437429
0.0783619
0.428654
0.138679
0.415475
0.244719
-0.202078
0.241449
-0.423138
0.281135
-0.429402
0.326706
-0.477943
0.365892
-0.420721
0.404129
-0.409857
0.441442
-0.394654
0.47456
-0.353364
0.504962
-0.323154
0.5327
-0.29134
0.557267
-0.257159
0.579407
-0.228244
0.59928
-0.19983
0.61692
-0.172649
0.632756
-0.147245
0.646728
-0.121569
0.658835
-0.0964026
0.669108
-0.07035
0.677439
-0.0441584
0.683751
-0.0167522
0.688101
0.0104966
0.690437
0.0384919
0.690694
0.0647221
0.689096
0.0885653
0.685778
0.106828
0.680854
0.118348
0.674353
0.128153
0.666324
0.1388
0.656932
0.148958
0.646242
0.159193
0.634279
0.16962
0.621106
0.180392
0.606703
0.191851
0.591059
0.204737
0.573998
0.220505
0.55524
0.241573
0.534376
0.274564
0.510378
0.326124
0.483916
0.43726
0.450986
0.595444
-0.163279
-0.423472
-0.123749
-0.439613
-0.0734338
-0.547957
-0.02411
-0.550337
0.0259335
-0.565913
0.0771442
-0.582952
0.125648
-0.562028
0.167803
-0.503871
0.203792
-0.44529
0.234576
-0.392306
0.259737
-0.335052
0.280361
-0.286905
0.297806
-0.250887
0.312726
-0.220733
0.3259
-0.197972
0.337988
-0.181167
0.349361
-0.168131
0.360344
-0.158345
0.371133
-0.151147
0.381861
-0.145513
0.392574
-0.140962
0.403291
-0.136637
0.413951
-0.131466
0.424326
-0.122247
0.434032
-0.108587
0.442806
-0.0941422
0.450577
-0.0796677
0.457272
-0.0653756
0.462857
-0.0511949
0.46727
-0.0372609
0.470518
-0.0236012
0.472576
-0.0102255
0.473386
0.00318183
0.472927
0.0170825
0.471015
0.0327621
0.467368
0.0535301
0.461301
0.0844292
0.452673
0.147307
0.440242
0.25715
-0.204462
0.245993
-0.464668
0.287809
-0.471219
0.335895
-0.526029
0.377149
-0.461975
0.417507
-0.450216
0.456777
-0.433923
0.491603
-0.388191
0.523566
-0.355116
0.552601
-0.320375
0.578268
-0.282825
0.601406
-0.251382
0.622158
-0.220582
0.640674
-0.191164
0.657142
-0.163714
0.671705
-0.136131
0.684397
-0.109095
0.695222
-0.0811752
0.704111
-0.0530472
0.711072
-0.0237133
0.715943
0.00562541
0.718775
0.0356599
0.719619
0.0638781
0.71852
0.0896641
0.715701
0.109647
0.711216
0.122833
0.705088
0.134281
0.697366
0.146522
0.688143
0.158181
0.677494
0.169843
0.665472
0.181642
0.652139
0.193725
0.637475
0.206516
0.621418
0.220794
0.603862
0.238061
0.58453
0.260905
0.563037
0.296057
0.538371
0.35079
0.511409
0.464223
0.479024
0.627829
-0.163498
-0.464436
-0.121821
-0.481291
-0.0688042
-0.600973
-0.016851
-0.60229
0.035837
-0.618601
0.0897343
-0.636849
0.140736
-0.61303
0.184963
-0.548098
0.222653
-0.48298
0.25476
-0.424413
0.280913
-0.361205
0.302181
-0.308173
0.320039
-0.268745
0.335197
-0.235891
0.348448
-0.211223
0.360533
-0.193251
0.371826
-0.179424
0.382706
-0.169225
0.393404
-0.161845
0.404076
-0.156186
0.414774
-0.15166
0.425535
-0.147398
0.436332
-0.142263
0.446936
-0.132851
0.456885
-0.118537
0.465936
-0.103193
0.474007
-0.0877388
0.481012
-0.07238
0.486901
-0.0570845
0.491614
-0.0419738
0.495118
-0.0271053
0.497375
-0.0124823
0.498378
0.00217852
0.498026
0.0174349
0.496178
0.0346099
0.492548
0.0571606
0.486484
0.0904926
0.478067
0.155724
0.466413
0.268804
-0.20706
0.250811
-0.508418
0.294958
-0.515366
0.345727
-0.576798
0.389216
-0.505465
0.431738
-0.492737
0.473043
-0.475228
0.509728
-0.424876
0.543304
-0.388692
0.573722
-0.350794
0.600624
-0.309727
0.624899
-0.275657
0.646509
-0.242192
0.665793
-0.210447
0.682993
-0.180914
0.698156
-0.151294
0.71145
-0.122388
0.722816
-0.0925413
0.73227
-0.0625015
0.7397
-0.0311428
0.745129
0.000195983
0.748468
0.0323215
0.749781
0.0625644
0.749216
0.09023
0.746873
0.111989
0.74287
0.126836
0.737112
0.140039
0.729681
0.153954
0.720655
0.167207
0.710078
0.18042
0.698048
0.193672
0.684572
0.207201
0.669659
0.221429
0.653248
0.237205
0.635219
0.256089
0.615336
0.280788
0.593172
0.318221
0.567906
0.376055
0.540486
0.491643
0.508618
0.659697
-0.163873
-0.507623
-0.119986
-0.525178
-0.0641008
-0.656858
-0.00931356
-0.657078
0.0461478
-0.674062
0.102852
-0.693554
0.15656
-0.666737
0.202971
-0.59451
0.242494
-0.522502
0.27604
-0.45796
0.303241
-0.388406
0.325244
-0.330177
0.343618
-0.287118
0.359058
-0.251331
0.372442
-0.224607
0.384559
-0.205368
0.395807
-0.190672
0.406598
-0.180015
0.417197
-0.172444
0.427781
-0.166769
0.438452
-0.162331
0.449238
-0.158184
0.460142
-0.153167
0.470912
-0.143621
0.481085
-0.12871
0.490411
-0.112519
0.498762
-0.0960896
0.506074
-0.0796921
0.512249
-0.0632589
0.517247
-0.0469726
0.52101
-0.0308679
0.523512
-0.0149839
0.524682
0.0010087
0.52445
0.0176661
0.522689
0.0363715
0.519086
0.0607629
0.513091
0.0964883
0.504877
0.163938
0.49398
0.2797
-0.209985
0.256137
-0.554571
0.302726
-0.561954
0.356181
-0.630253
0.402139
-0.551422
0.446828
-0.537427
0.490407
-0.518807
0.528942
-0.463411
0.564235
-0.423985
0.596197
-0.382756
0.62441
-0.337939
0.64967
-0.300917
0.672319
-0.264842
0.692368
-0.230496
0.710287
-0.198834
0.726185
-0.167192
0.740019
-0.136223
0.751964
-0.104486
0.761922
-0.0724594
0.769904
-0.0391251
0.775788
-0.00568766
0.7796
0.0285098
0.781437
0.0607269
0.781289
0.0903778
0.779412
0.113866
0.775823
0.130426
0.770449
0.145413
0.763342
0.161061
0.754539
0.17601
0.744116
0.190842
0.732077
0.205711
0.718491
0.220788
0.703345
0.236574
0.686595
0.253955
0.668136
0.274548
0.64767
0.301255
0.624925
0.340967
0.599057
0.401923
0.57116
0.51954
0.539833
0.691024
-0.164457
-0.553152
-0.118188
-0.571447
-0.0592205
-0.715825
-0.00152612
-0.714772
0.0569287
-0.732517
0.116642
-0.753267
0.173089
-0.723184
0.221927
-0.643348
0.263355
-0.563931
0.298492
-0.493096
0.326852
-0.416766
0.349681
-0.353006
0.368612
-0.306048
0.384398
-0.267118
0.397969
-0.238177
0.410129
-0.217529
0.421371
-0.201914
0.432072
-0.190716
0.442571
-0.182944
0.453066
-0.177264
0.463681
-0.172946
0.47447
-0.168974
0.485459
-0.164156
0.496386
-0.154548
0.506768
-0.139092
0.51632
-0.12207
0.524928
-0.104698
0.532506
-0.08727
0.538979
-0.0697325
0.544247
-0.0522402
0.548282
-0.0349034
0.550997
-0.0176988
0.552371
-0.000365339
0.552302
0.0177356
0.550605
0.0380677
0.547097
0.0642714
0.541162
0.102423
0.533227
0.171873
0.523103
0.289825
-0.213143
0.261824
-0.603252
0.310884
-0.611014
0.367408
-0.686777
0.415676
-0.59969
0.46289
-0.584641
0.508735
-0.564652
0.549381
-0.504056
0.586405
-0.46101
0.619952
-0.416302
0.649498
-0.367484
0.676038
-0.327458
0.699618
-0.288421
0.72061
-0.251488
0.739285
-0.217509
0.755813
-0.18372
0.770268
-0.150678
0.782731
-0.116949
0.793173
-0.0829011
0.801589
-0.0475406
0.807958
-0.012057
0.812265
0.0242026
0.814476
0.0585157
0.814779
0.0900757
0.813356
0.115289
0.810184
0.133598
0.805232
0.150365
0.798444
0.167849
0.789864
0.184589
0.779557
0.201149
0.767577
0.217691
0.753915
0.23445
0.738573
0.251916
0.721516
0.271012
0.70263
0.293433
0.68167
0.322215
0.658333
0.364303
0.631907
0.42835
0.603581
0.547865
0.572754
0.721851
-0.165147
-0.601149
-0.116374
-0.620219
-0.0541907
-0.778009
0.00656974
-0.775532
0.0681634
-0.794111
0.131065
-0.816169
0.190515
-0.782634
0.241827
-0.69466
0.285326
-0.60743
0.322116
-0.529886
0.351742
-0.446392
0.375482
-0.376746
0.39504
-0.325607
0.411248
-0.283326
0.425051
-0.25198
0.43732
-0.229798
0.448553
-0.213147
0.459202
-0.201365
0.469607
-0.193348
0.480029
-0.187687
0.49056
-0.183477
0.501345
-0.179759
0.512382
-0.175192
0.52344
-0.165606
0.534003
-0.149656
0.543751
-0.131818
0.552616
-0.113562
0.560453
-0.095107
0.567175
-0.0764547
0.572741
-0.057806
0.577023
-0.0391855
0.579981
-0.0206569
0.58153
-0.00191465
0.581613
0.0176529
0.580056
0.0396249
0.576616
0.0677108
0.570824
0.108215
0.563143
0.179554
0.553807
0.299161
-0.216594
0.267892
-0.65455
0.319624
-0.662746
0.379201
-0.746354
0.430193
-0.650682
0.47985
-0.634299
0.528226
-0.613029
0.570889
-0.546719
0.609869
-0.499989
0.645113
-0.451547
0.676145
-0.398516
0.703862
-0.355176
0.728596
-0.313155
0.750469
-0.273361
0.76994
-0.23698
0.787112
-0.200892
0.802208
-0.165775
0.815182
-0.129923
0.826111
-0.0938301
0.835034
-0.0564629
0.841814
-0.0188372
0.846509
0.019508
0.84915
0.0558747
0.849854
0.0893709
0.848832
0.116312
0.846077
0.136352
0.841478
0.154964
0.835009
0.174318
0.826722
0.192876
0.816589
0.211282
0.804648
0.229631
0.79093
0.248168
0.775443
0.267404
0.758116
0.288339
0.738837
0.312712
0.717394
0.343658
0.693507
0.388191
0.666557
0.4553
0.637823
0.576599
0.607449