/*--------------------------------*- C++ -*----------------------------------*\
  =========                 |
  \\      /  F ield         | OpenFOAM: The Open Source CFD Toolbox
   \\    /   O peration     | Website:  https://openfoam.org
    \\  /    A nd           | Version:  13
     \\/     M anipulation  |
\*---------------------------------------------------------------------------*/
FoamFile
{
    format      ascii;
    class       volVectorField;
    location    "250";
    object      U;
}
// * * * * * * * * * * * * * * * * * * * * * * * * * * * * * * * * * * * * * //

dimensions      [0 1 -1 0 0 0 0];

internalField   nonuniform List<vector> 
10720
(
(0.355063 28.5435 1.69143e-17)
(2.17767 30.8179 -1.56878e-17)
(4.44513 33.0031 0)
(7.03805 34.6786 -4.11882e-16)
(9.89298 35.9395 4.61424e-16)
(12.943 36.7434 3.3294e-16)
(16.0305 36.9866 4.55828e-16)
(19.0624 36.7112 0)
(21.9604 35.9808 0)
(24.6469 34.8347 0)
(27.0935 33.3549 1.17404e-16)
(29.2883 31.6322 0)
(31.2022 29.6877 2.3725e-15)
(32.8301 27.5587 0)
(34.1609 25.2755 0)
(35.2067 22.885 0)
(35.9554 20.407 -3.99905e-15)
(36.4105 17.8935 -5.97774e-15)
(36.5531 15.3685 5.31828e-15)
(36.3942 12.8922 0)
(35.9162 10.5008 4.37299e-15)
(35.1558 8.26726 -8.56835e-15)
(34.1605 6.24312 4.26737e-15)
(33.0404 4.49153 -1.2799e-16)
(31.9945 3.06001 0)
(31.1083 1.89572 1.69291e-15)
(30.2856 0.910372 2.61971e-17)
(29.4276 0.0625515 -7.41822e-16)
(28.4973 -0.670423 -2.70827e-15)
(27.4907 -1.3032 -9.8324e-15)
(26.4112 -1.84238 4.3825e-15)
(25.262 -2.29127 7.99084e-15)
(24.0412 -2.65092 6.8936e-15)
(22.7401 -2.92189 2.35634e-14)
(21.312 -3.09988 -9.53409e-15)
(19.7198 -3.18321 -6.74472e-17)
(17.6618 -3.11898 2.20627e-17)
(15.2408 -2.89981 3.95454e-15)
(9.8225 -2.30322 1.36557e-14)
(-1.09884 26.1044 1.07013e-18)
(-2.28685 23.3458 -8.60495e-18)
(-3.14021 20.2321 4.58901e-17)
(-3.52329 16.6101 -1.37137e-16)
(-3.28064 12.8598 -4.71367e-16)
(-2.36615 9.11324 8.42646e-16)
(-0.841243 5.64757 4.20099e-15)
(1.05268 2.75489 2.5686e-15)
(3.03541 0.384015 0)
(5.23708 -1.691 0)
(7.51602 -3.25942 2.08147e-15)
(9.6369 -4.28208 7.60154e-16)
(11.5217 -4.87913 -1.26585e-15)
(13.1745 -5.17767 1.04257e-15)
(14.6196 -5.27953 1.72035e-15)
(15.8891 -5.25066 1.10889e-15)
(17.0133 -5.14036 1.41541e-15)
(18.0242 -4.97873 9.39652e-16)
(18.9528 -4.78645 0)
(19.8216 -4.56712 0)
(20.6485 -4.32262 -1.29761e-15)
(21.445 -4.04287 -5.97817e-17)
(22.2129 -3.71264 8.80087e-16)
(22.9224 -3.30105 -6.1315e-16)
(23.5074 -2.80281 2.359e-17)
(23.9496 -2.2554 0)
(24.2744 -1.68523 1.04008e-16)
(24.498 -1.10832 0)
(24.6267 -0.536002 0)
(24.6593 0.0202973 1.94006e-17)
(24.5733 0.55231 0)
(24.3821 1.05302 6.85385e-18)
(24.1049 1.51641 -4.60765e-17)
(23.7564 1.93712 -5.74818e-16)
(23.3316 2.31145 5.39743e-16)
(22.8204 2.64028 -2.74074e-18)
(22.0972 2.91579 0)
(21.0942 3.10211 5.16442e-15)
(18.2627 3.22379 9.22529e-15)
(7.07615 24.7959 -5.53072e-18)
(9.00669 26.5346 -2.70244e-18)
(11.3539 28.1054 0)
(14.0486 29.4046 0)
(16.9419 30.3721 -1.35458e-16)
(20.0376 30.9474 -3.19123e-16)
(23.2175 31.0867 0)
(26.3464 30.8129 0)
(29.3682 30.1378 6.73711e-16)
(32.1941 29.1127 0)
(34.7701 27.7987 2.47186e-15)
(37.0662 26.2437 0)
(39.0765 24.5291 8.82748e-16)
(40.8084 22.7087 -8.69709e-16)
(42.2675 20.8021 1.74922e-15)
(43.4229 18.8382 -3.49763e-15)
(44.274 16.829 3.74303e-15)
(44.8107 14.7999 3.42513e-15)
(45.0337 12.7591 3.35426e-15)
(44.9254 10.7379 2.03842e-16)
(44.4867 8.7621 -3.50215e-15)
(43.7089 6.88674 3.32541e-15)
(42.6178 5.15343 -1.87608e-16)
(41.2489 3.62011 0)
(39.7115 2.33865 0)
(38.1533 1.25563 0)
(36.6321 0.293643 1.41281e-16)
(35.1393 -0.55731 -3.15622e-17)
(33.6762 -1.29988 1.98522e-15)
(32.2377 -1.94073 3.76394e-17)
(30.8082 -2.48262 -2.9814e-17)
(29.3699 -2.92809 -8.71487e-17)
(27.9042 -3.27948 4.74587e-15)
(26.3959 -3.53918 -7.96532e-15)
(24.8048 -3.70717 -4.32858e-17)
(23.1124 -3.78448 -9.22366e-15)
(21.0598 -3.73093 0)
(18.8684 -3.54524 -1.14433e-15)
(13.5772 -2.78706 7.24958e-15)
(5.43962 22.941 7.02841e-18)
(4.01453 20.8752 -3.93005e-17)
(2.75483 18.4538 -4.94845e-16)
(1.78835 15.6998 6.09061e-16)
(1.29134 12.7083 0)
(1.35006 9.61197 -1.31477e-15)
(1.99395 6.60579 -9.42185e-16)
(3.1506 3.91553 -7.34638e-15)
(4.64165 1.57172 2.36578e-15)
(6.38006 -0.380076 -1.78879e-15)
(8.25522 -1.81421 2.24856e-15)
(10.1048 -2.77223 -6.39881e-16)
(11.8397 -3.3722 0)
(13.4273 -3.71385 -4.27304e-16)
(14.859 -3.88 5.24977e-17)
(16.1456 -3.92402 -9.5309e-16)
(17.3025 -3.89102 0)
(18.3527 -3.80665 0)
(19.3198 -3.6892 -9.86154e-17)
(20.2264 -3.53653 9.47263e-17)
(21.0879 -3.347 -1.12084e-15)
(21.9166 -3.10427 -1.21066e-16)
(22.7142 -2.78856 5.31774e-17)
(23.4576 -2.36338 5.92382e-16)
(24.0928 -1.84159 -4.19684e-16)
(24.5952 -1.2899 -3.09159e-16)
(24.9806 -0.737029 0)
(25.2619 -0.194042 0)
(25.4425 0.33269 0)
(25.5275 0.834334 8.56185e-18)
(25.5464 1.30332 0)
(25.4955 1.73675 0)
(25.3641 2.13358 1.17259e-16)
(25.1457 2.49278 2.13682e-16)
(24.8322 2.81597 -4.37563e-16)
(24.4322 3.10836 8.09066e-16)
(23.8445 3.36787 -2.49203e-15)
(23.2547 3.58741 -3.95611e-15)
(21.1604 3.6276 -6.21663e-15)
(8.36103 22.8306 -9.88463e-19)
(9.76477 24.3542 1.96568e-17)
(11.466 25.8308 -1.60808e-17)
(13.4175 27.1855 -4.35988e-17)
(15.5637 28.3 -1.77874e-16)
(17.9052 29.1496 6.14632e-16)
(20.367 29.6942 -4.29779e-16)
(22.8727 29.8974 -5.01775e-16)
(25.3673 29.7576 4.35355e-18)
(27.7929 29.287 -6.51255e-16)
(30.0974 28.5071 6.03526e-16)
(32.2493 27.4475 -1.56718e-15)
(34.2211 26.1397 -7.4794e-16)
(35.9991 24.6125 0)
(37.5664 22.9015 -1.78955e-15)
(38.9375 21.0318 3.59517e-15)
(40.1171 19.0241 0)
(41.0858 16.9222 -6.80659e-15)
(41.8337 14.7558 -3.403e-15)
(42.3332 12.5775 3.96731e-16)
(42.5722 10.425 -3.9315e-16)
(42.5291 8.36635 -1.78223e-16)
(42.2055 6.45056 -2.53282e-15)
(41.6094 4.74007 1.27256e-15)
(40.7921 3.27979 0)
(39.8308 2.01352 1.11165e-15)
(38.7469 0.872325 -1.31303e-16)
(37.5345 -0.143869 0)
(36.2114 -1.03183 1.74564e-15)
(34.8049 -1.79586 3.24032e-15)
(33.336 -2.4388 -5.71275e-15)
(31.8181 -2.96471 -4.91734e-15)
(30.2541 -3.37872 -1.05639e-16)
(28.6398 -3.6856 -6.98832e-15)
(26.9407 -3.88766 -5.60477e-15)
(25.1386 -3.9845 8.04407e-15)
(22.9917 -3.94315 0)
(20.7238 -3.71949 -8.9633e-16)
(15.8483 -3.03347 -1.10422e-14)
(7.20739 21.2219 -1.25126e-17)
(6.19094 19.4588 -5.02157e-17)
(5.33148 17.3792 1.95074e-16)
(4.63305 15.0447 0)
(4.24476 12.5349 3.80919e-16)
(4.21634 9.91535 0)
(4.57773 7.31284 2.70417e-15)
(5.31495 4.89273 1.63543e-15)
(6.37933 2.73694 1.54041e-15)
(7.71255 0.900126 0)
(9.19889 -0.563309 -2.26055e-15)
(10.7214 -1.66632 -4.84487e-16)
(12.2045 -2.46501 2.19202e-15)
(13.6074 -3.0176 0)
(14.9106 -3.3767 -1.02057e-15)
(16.1112 -3.5871 -3.08154e-16)
(17.2149 -3.68797 1.27161e-15)
(18.2346 -3.70659 6.59043e-16)
(19.1864 -3.66237 1.81304e-16)
(20.0874 -3.56152 -9.82992e-17)
(20.9498 -3.40712 1.02155e-15)
(21.7822 -3.19121 0)
(22.585 -2.90065 0)
(23.3385 -2.51373 2.33527e-17)
(23.9994 -2.04371 0)
(24.544 -1.53889 6.39981e-16)
(24.9827 -1.01876 -8.41815e-18)
(25.3266 -0.491178 -4.03066e-17)
(25.5796 0.0360168 0)
(25.7432 0.552714 -2.493e-17)
(25.8225 1.05144 3.79352e-17)
(25.823 1.52572 0)
(25.7469 1.96952 -7.87116e-17)
(25.5943 2.3776 0)
(25.3533 2.74814 0)
(25.0228 3.0819 3.88345e-17)
(24.4912 3.37803 -5.23718e-17)
(23.8791 3.59505 3.95366e-15)
(22.0045 3.63215 1.20266e-14)
(10.9041 20.9178 -1.00238e-17)
(12.2002 22.2178 -6.35957e-18)
(13.7496 23.4805 -6.985e-18)
(15.5272 24.6319 -1.17805e-17)
(17.4834 25.5811 0)
(19.6245 26.3099 0)
(21.893 26.7752 -7.17318e-16)
(24.2264 26.9426 8.57479e-16)
(26.5775 26.8059 0)
(28.8905 26.3681 -1.0344e-15)
(31.1136 25.6445 -1.30853e-15)
(33.2087 24.6583 -1.23567e-15)
(35.1414 23.4403 1.4713e-15)
(36.8849 22.0238 1.38692e-15)
(38.4202 20.4422 0)
(39.7321 18.7296 2.19899e-15)
(40.7927 16.9284 7.61278e-16)
(41.5925 15.0708 6.1362e-15)
(42.1293 13.1829 3.71692e-16)
(42.4083 11.2933 -3.68576e-16)
(42.4374 9.43331 3.11493e-15)
(42.2317 7.64732 -5.10093e-16)
(41.8192 5.97612 2.77688e-15)
(41.2359 4.46429 1.15909e-15)
(40.5376 3.14366 -6.86102e-17)
(39.7814 1.97697 -1.00571e-15)
(38.9702 0.909629 7.42421e-18)
(38.0712 -0.0627769 -7.44823e-18)
(37.0651 -0.936665 -1.67246e-15)
(35.9457 -1.71249 -4.42755e-17)
(34.7106 -2.3864 2.79251e-15)
(33.3629 -2.95406 -4.75165e-15)
(31.907 -3.41274 -3.83722e-15)
(30.3482 -3.76107 -1.89826e-18)
(28.6647 -3.99739 5.09846e-15)
(26.8475 -4.11608 0)
(24.6771 -4.08779 4.1899e-15)
(22.3399 -3.8224 7.76323e-16)
(17.7157 -3.17491 4.60562e-15)
(9.81021 19.5552 -2.52792e-17)
(8.82502 18.0743 6.50845e-17)
(7.95498 16.3256 2.93088e-16)
(7.22002 14.3467 0)
(6.74766 12.2099 -3.4006e-16)
(6.57657 9.95832 0)
(6.73283 7.69005 -2.17459e-15)
(7.20459 5.53756 -1.01371e-16)
(7.96212 3.57113 1.12484e-15)
(8.96749 1.84298 1.00197e-15)
(10.1367 0.406064 3.60712e-17)
(11.387 -0.729457 1.69058e-15)
(12.6563 -1.5922 -1.09917e-15)
(13.9003 -2.22215 3.4837e-16)
(15.0911 -2.65924 1.18879e-15)
(16.2154 -2.94305 1.3087e-15)
(17.2698 -3.10811 -1.17297e-15)
(18.2576 -3.18182 5.35373e-18)
(19.1881 -3.1842 0)
(20.0728 -3.12491 1.21977e-15)
(20.9208 -3.00751 5.97398e-17)
(21.7383 -2.82673 -9.17087e-16)
(22.5246 -2.57183 0)
(23.2634 -2.22613 2.20655e-17)
(23.9183 -1.79686 0)
(24.4663 -1.32252 -3.00764e-16)
(24.9132 -0.82592 0)
(25.2689 -0.318891 3.78226e-17)
(25.5375 0.188457 -1.1971e-18)
(25.7214 0.68564 6.75534e-19)
(25.8247 1.16365 -3.43761e-17)
(25.8529 1.61497 -1.12685e-18)
(25.8089 2.03549 0)
(25.6948 2.42273 1.84944e-16)
(25.5009 2.77673 3.42574e-18)
(25.2263 3.09747 -8.16356e-16)
(24.7649 3.3855 5.06232e-15)
(24.2067 3.57227 1.20852e-17)
(22.5109 3.59823 0)
(12.4702 19.4571 -1.43651e-17)
(13.5706 20.6082 -3.95789e-19)
(14.8929 21.7482 -1.16761e-17)
(16.4021 22.8136 1.66453e-16)
(18.0559 23.7215 -5.62683e-17)
(19.876 24.4659 -1.96299e-16)
(21.8149 25.0068 3.09475e-16)
(23.8245 25.3086 0)
(25.8743 25.3605 1.19998e-15)
(27.918 25.1555 5.57318e-16)
(29.9143 24.6946 0)
(31.8295 23.9878 1.18758e-15)
(33.6301 23.0522 -6.25118e-16)
(35.288 21.907 1.73817e-15)
(36.7811 20.5748 0)
(38.0887 19.0792 -2.88444e-15)
(39.1986 17.4375 2.73958e-15)
(40.1009 15.6712 -1.68099e-16)
(40.7807 13.8124 0)
(41.2223 11.9056 2.96268e-15)
(41.4163 9.99663 -2.99007e-15)
(41.3616 8.14349 -1.5253e-16)
(41.0761 6.39926 -2.3228e-15)
(40.5954 4.81574 -2.13216e-15)
(39.9796 3.4287 0)
(39.2956 2.21092 0)
(38.5687 1.11061 -2.30369e-16)
(37.7877 0.11446 -2.57941e-17)
(36.9434 -0.77925 1.59059e-15)
(36.0292 -1.57515 -4.2221e-17)
(35.0322 -2.27367 4.21557e-17)
(33.9355 -2.87245 4.44882e-15)
(32.7206 -3.36829 0)
(31.3724 -3.75686 1.2396e-14)
(29.8581 -4.03239 -4.26871e-17)
(28.165 -4.18268 0)
(26.0907 -4.17862 -3.21628e-17)
(23.7962 -3.89245 0)
(19.3924 -3.26344 -3.91405e-15)
(11.5357 18.2569 2.38949e-17)
(10.6917 16.965 -1.55969e-16)
(9.92551 15.4388 1.72395e-16)
(9.25021 13.7136 2.77206e-16)
(8.7786 11.8564 -1.09364e-15)
(8.53991 9.88998 -1.41777e-15)
(8.56532 7.88928 1.74231e-15)
(8.85371 5.96317 -1.92881e-15)
(9.39062 4.17651 -8.69868e-16)
(10.1511 2.57567 -7.74099e-16)
(11.0732 1.20357 1.49297e-15)
(12.0956 0.076112 -1.43536e-15)
(13.1694 -0.821733 -6.29539e-16)
(14.2546 -1.51547 6.12452e-16)
(15.3217 -2.03074 -1.33222e-15)
(16.3537 -2.39743 2.43817e-16)
(17.3413 -2.64217 0)
(18.2817 -2.78767 -9.28654e-16)
(19.1786 -2.85133 3.28618e-16)
(20.0381 -2.84361 -1.27616e-15)
(20.8661 -2.76876 0)
(21.6662 -2.62417 7.94757e-16)
(22.4363 -2.40231 6.25329e-16)
(23.1615 -2.09229 -4.75714e-16)
(23.8111 -1.70003 0)
(24.3624 -1.25752 -3.17801e-16)
(24.8168 -0.788471 0)
(25.1821 -0.304897 0)
(25.4617 0.183512 0)
(25.6577 0.666441 4.03878e-17)
(25.774 1.1348 0)
(25.8156 1.58181 0)
(25.7857 2.00228 -1.63524e-16)
(25.687 2.39188 -1.75566e-16)
(25.5112 2.7489 0)
(25.2595 3.07094 -8.47637e-16)
(24.834 3.35798 6.27663e-17)
(24.3232 3.52711 0)
(22.8182 3.54036 -5.22245e-15)
(13.9555 18.1778 1.71232e-17)
(14.952 19.1975 -1.21898e-17)
(16.1449 20.2139 0)
(17.5014 21.1679 8.07184e-18)
(18.9805 21.9861 -1.35152e-16)
(20.6125 22.6685 1.851e-16)
(22.3561 23.1772 4.54794e-17)
(24.1724 23.4801 -7.71384e-16)
(26.0402 23.5644 -9.33427e-17)
(27.9208 23.4192 1.14466e-15)
(29.7786 23.0408 -4.08013e-16)
(31.5837 22.4325 9.17769e-16)
(33.3026 21.6046 4.58963e-16)
(34.9061 20.5709 3.32622e-16)
(36.3686 19.3501 0)
(37.6667 17.9639 -6.25869e-16)
(38.7789 16.4381 -1.38012e-15)
(39.681 14.8102 -5.10344e-15)
(40.3558 13.1138 1.50465e-15)
(40.7943 11.3801 -1.90976e-15)
(40.992 9.64387 -2.9915e-16)
(40.9529 7.94635 0)
(40.6932 6.33079 2.07978e-15)
(40.2443 4.83991 1.32481e-16)
(39.6572 3.50633 -5.91426e-17)
(38.9894 2.31714 -8.23979e-16)
(38.2697 1.23464 1.89996e-16)
(37.4977 0.248214 3.97539e-16)
(36.6742 -0.641022 -1.48767e-15)
(35.804 -1.436 -7.94645e-17)
(34.8865 -2.13831 2.53321e-15)
(33.9136 -2.74721 4.11474e-15)
(32.868 -3.26098 0)
(31.7258 -3.67575 -1.86425e-17)
(30.4377 -3.98439 -4.64164e-15)
(28.971 -4.16922 0)
(27.1154 -4.19872 -7.41828e-15)
(25.0104 -3.91365 0)
(20.9021 -3.31577 3.54941e-15)
(13.1008 17.1185 -2.4113e-17)
(12.325 15.9857 6.37081e-17)
(11.6069 14.6442 0)
(10.9599 13.1244 0)
(10.4839 11.4892 4.70179e-16)
(10.1989 9.75184 2.3514e-15)
(10.1343 7.96982 0)
(10.2946 6.23637 -1.41152e-15)
(10.672 4.6129 -1.35597e-15)
(11.247 3.13662 1.36418e-15)
(11.9746 1.84189 -5.5076e-17)
(12.8084 0.747456 5.95589e-16)
(13.7117 -0.153734 2.9335e-17)
(14.6509 -0.877221 1.57612e-15)
(15.5988 -1.43855 1.41512e-15)
(16.5371 -1.85913 -1.32871e-15)
(17.4538 -2.1591 1.87256e-16)
(18.3419 -2.35697 -3.48212e-16)
(19.2 -2.46778 1.61191e-16)
(20.0299 -2.50173 9.37689e-16)
(20.8342 -2.46375 1.21393e-16)
(21.6136 -2.3532 -8.82003e-17)
(22.3649 -2.16471 -5.3307e-16)
(23.0745 -1.891 0)
(23.7156 -1.53695 2.2291e-17)
(24.2665 -1.12848 5.91354e-16)
(24.725 -0.688315 -3.15528e-18)
(25.0966 -0.22891 3.1293e-18)
(25.3841 0.239545 0)
(25.589 0.706116 -3.79314e-17)
(25.7147 1.1611 0)
(25.7658 1.59666 0)
(25.7453 2.00686 1.50503e-16)
(25.6558 2.38723 2.1952e-16)
(25.4894 2.73579 0)
(25.2473 3.0486 7.89028e-16)
(24.8383 3.32517 -4.6968e-15)
(24.3471 3.47079 2.17458e-17)
(22.9967 3.46127 4.77703e-15)
(15.163 17.0905 -2.94877e-19)
(16.0601 18.0054 -1.19441e-17)
(17.1337 18.9249 -3.09572e-18)
(18.3493 19.7935 3.01767e-18)
(19.6663 20.5458 9.10199e-17)
(21.1209 21.1874 0)
(22.6755 21.6848 -3.49399e-16)
(24.2973 22.0087 9.30754e-18)
(25.9736 22.1473 -3.44982e-16)
(27.6717 22.0887 -6.96418e-16)
(29.3631 21.8253 0)
(31.0234 21.3558 -1.66991e-15)
(32.6222 20.684 -1.42947e-15)
(34.1324 19.8174 -3.46932e-15)
(35.5286 18.7684 0)
(36.7857 17.5535 -2.12948e-15)
(37.8808 16.1931 -2.22931e-15)
(38.7952 14.7065 2.40849e-15)
(39.5123 13.1181 -2.36757e-15)
(40.0165 11.4622 2.19174e-15)
(40.2972 9.77818 2.68933e-16)
(40.3512 8.11394 -2.31518e-15)
(40.1877 6.51768 0)
(39.8311 5.03423 -1.98368e-15)
(39.3232 3.69595 1.1632e-16)
(38.714 2.49635 8.62968e-16)
(38.0333 1.40493 0)
(37.2862 0.410636 -2.95497e-17)
(36.477 -0.485717 6.33305e-17)
(35.6148 -1.28667 2.43422e-15)
(34.7066 -1.99415 -2.25641e-15)
(33.7552 -2.60836 -3.91942e-15)
(32.7572 -3.12896 3.32311e-15)
(31.7033 -3.55436 -6.13672e-17)
(30.5557 -3.87962 4.45024e-15)
(29.2864 -4.08724 6.22066e-15)
(27.6846 -4.1464 3.6042e-15)
(25.8811 -3.87435 -1.14442e-17)
(22.1951 -3.32545 -3.56945e-18)
(14.3879 16.1422 9.79396e-18)
(13.6812 15.1343 1.25372e-16)
(13.0148 13.9387 1.72725e-16)
(12.4014 12.5828 -3.23117e-16)
(11.9315 11.1265 -1.29184e-15)
(11.6202 9.57543 4.25448e-16)
(11.494 7.97414 1.11032e-15)
(11.5631 6.40537 2.89947e-15)
(11.8229 4.92755 1.17222e-15)
(12.257 3.5687 -1.09964e-15)
(12.8317 2.357 -3.80701e-17)
(13.5117 1.31095 -5.33819e-16)
(14.2691 0.426791 0)
(15.077 -0.304998 -2.59415e-17)
(15.9118 -0.893307 -8.72145e-16)
(16.7567 -1.35297 3.81421e-16)
(17.5987 -1.69831 -3.73969e-16)
(18.4284 -1.94299 0)
(19.2413 -2.09877 5.68234e-16)
(20.0358 -2.17443 -9.92634e-16)
(20.8114 -2.1744 0)
(21.5667 -2.09897 7.29047e-16)
(22.2971 -1.94458 0)
(22.9896 -1.70667 -2.78213e-17)
(23.6206 -1.38965 2.75319e-17)
(24.1693 -1.01479 -2.8905e-16)
(24.6307 -0.603321 -5.22439e-18)
(25.0079 -0.168287 -3.18849e-18)
(25.3028 0.279667 8.49057e-19)
(25.5164 0.72936 -4.85664e-17)
(25.6514 1.17066 -7.0396e-17)
(25.7118 1.59544 1.09078e-16)
(25.7003 1.99736 3.0712e-18)
(25.6192 2.37116 2.5895e-17)
(25.4607 2.71394 0)
(25.2257 3.01963 1.50363e-17)
(24.8285 3.28661 2.17165e-15)
(24.3482 3.41037 -1.0459e-17)
(23.1148 3.37445 4.37001e-15)
(16.2198 16.134 3.67398e-18)
(17.0421 16.9593 1.78351e-17)
(18.0245 17.7924 0)
(19.1328 18.5814 -2.53944e-17)
(20.3264 19.2671 3.85803e-17)
(21.6443 19.8591 0)
(23.0524 20.3263 -1.29984e-16)
(24.5219 20.6429 1.0047e-15)
(26.0459 20.7984 -1.3816e-15)
(27.5974 20.7802 4.40834e-16)
(29.1524 20.5793 5.9335e-16)
(30.6917 20.1916 2.12838e-15)
(32.1886 19.6165 1.51856e-15)
(33.6181 18.857 1.80398e-15)
(34.9554 17.9209 4.74973e-16)
(36.1753 16.8201 1.56609e-15)
(37.2538 15.571 2.1417e-15)
(38.1687 14.1951 2.06473e-15)
(38.8978 12.7227 -1.51643e-15)
(39.4249 11.1845 -4.63531e-15)
(39.7398 9.61475 0)
(39.8398 8.05296 8.49565e-17)
(39.7329 6.54102 1.80241e-15)
(39.4403 5.11878 1.88817e-15)
(38.9965 3.81644 -1.07206e-16)
(38.4432 2.6348 -7.79037e-16)
(37.808 1.55302 5.58257e-18)
(37.0984 0.562682 -3.95505e-16)
(36.3185 -0.334062 4.16161e-17)
(35.4767 -1.13774 -4.56749e-15)
(34.5801 -1.84915 -7.73144e-18)
(33.634 -2.46761 -6.16356e-17)
(32.6402 -2.99228 -3.19599e-15)
(31.5998 -3.42156 -6.10574e-17)
(30.4911 -3.75165 -4.15625e-15)
(29.3106 -3.96638 -1.18938e-14)
(27.8788 -4.04041 3.41397e-15)
(26.3703 -3.77819 6.5804e-16)
(23.2049 -3.28558 2.84947e-15)
(15.5045 15.2803 -4.52572e-17)
(14.8505 14.3765 -1.71062e-16)
(14.2249 13.3026 -1.25439e-16)
(13.6401 12.0825 -3.20442e-16)
(13.1786 10.7741 7.22364e-16)
(12.8516 9.37756 -5.23437e-17)
(12.6835 7.92806 -2.84935e-15)
(12.6866 6.50116 -9.9996e-16)
(12.8584 5.15202 1.37538e-17)
(13.1845 3.90099 0)
(13.6389 2.77185 -9.42195e-16)
(14.1937 1.78167 8.8152e-16)
(14.8276 0.927696 -8.51336e-16)
(15.5197 0.203688 -4.36857e-16)
(16.2504 -0.394951 3.66243e-16)
(17.0054 -0.878345 3.63843e-16)
(17.7723 -1.25583 1.31003e-15)
(18.5409 -1.53676 -3.10361e-16)
(19.3047 -1.72973 -5.3085e-16)
(20.0598 -1.84169 0)
(20.8032 -1.87631 -8.10076e-16)
(21.5315 -1.83422 -6.05156e-16)
(22.2388 -1.71295 -1.19508e-17)
(22.9126 -1.50989 -6.55168e-17)
(23.5316 -1.22915 -2.17057e-17)
(24.0758 -0.887931 3.32496e-16)
(24.538 -0.505841 -6.52596e-18)
(24.9193 -0.096182 5.26908e-17)
(25.2204 0.330138 9.52887e-18)
(25.4418 0.761824 4.45119e-17)
(25.5854 1.1884 -1.02053e-17)
(25.6547 1.60125 -2.36084e-16)
(25.652 1.99342 -2.20337e-16)
(25.5791 2.35895 -2.18432e-16)
(25.4285 2.69422 -9.37457e-18)
(25.2008 2.99129 5.21954e-18)
(24.8153 3.24716 -2.17892e-15)
(24.3467 3.35013 -3.02669e-15)
(23.2112 3.28835 -4.01751e-15)
(17.1336 15.2879 -1.12212e-17)
(17.8916 16.0369 -6.26012e-18)
(18.796 16.7959 -7.76592e-18)
(19.8124 17.5162 -4.38696e-17)
(20.9008 18.1436 7.14661e-17)
(22.101 18.6908 -1.57911e-16)
(23.3816 19.1296 4.94602e-16)
(24.7169 19.4369 0)
(26.104 19.6044 4.21696e-16)
(27.5197 19.6199 1.06996e-17)
(28.9448 19.4741 -5.0971e-16)
(30.3645 19.1615 -1.96269e-15)
(31.7555 18.6788 -7.93406e-16)
(33.0958 18.0259 0)
(34.3627 17.2065 0)
(35.5317 16.2286 0)
(36.5789 15.1051 0)
(37.4816 13.8535 -2.00067e-15)
(38.2195 12.4942 1.98426e-15)
(38.7742 11.0549 1.94079e-15)
(39.1326 9.56889 -1.56094e-15)
(39.2888 8.07567 1.36797e-15)
(39.2468 6.61722 -1.40944e-15)
(39.0229 5.23336 -1.03113e-16)
(38.646 3.95365 -4.69144e-17)
(38.1513 2.78287 7.88766e-16)
(37.5654 1.70674 1.69718e-16)
(36.8986 0.718599 0)
(36.156 -0.179092 0)
(35.3454 -0.98562 3.83079e-17)
(34.4734 -1.70112 0)
(33.5444 -2.32424 3.4035e-15)
(32.5602 -2.85339 -3.02494e-15)
(31.5231 -3.28603 -4.88269e-15)
(30.4174 -3.61805 7.75964e-15)
(29.2536 -3.83202 5.66718e-15)
(27.885 -3.90776 -3.26157e-15)
(26.5544 -3.64159 -1.27924e-15)
(23.9044 -3.19447 -2.73238e-15)
(16.4703 14.5139 0)
(15.8622 13.6975 4.78155e-17)
(15.2731 12.7254 2.39176e-16)
(14.7154 11.6195 -1.03569e-15)
(14.2649 10.4354 9.12772e-16)
(13.9296 9.16893 -7.47166e-16)
(13.7329 7.8485 6.81143e-18)
(13.6878 6.54471 7.58652e-16)
(13.793 5.30914 8.07713e-16)
(14.0359 4.15639 0)
(14.3952 3.10654 3.91038e-16)
(14.8482 2.17515 -1.19582e-15)
(15.3785 1.35936 1.89998e-15)
(15.9698 0.654428 3.46933e-16)
(16.6065 0.0579043 -7.06805e-16)
(17.2769 -0.43689 -6.59211e-16)
(17.9701 -0.835713 -6.06852e-16)
(18.6763 -1.14436 0)
(19.3884 -1.36839 0)
(20.1008 -1.51258 0)
(20.8087 -1.57948 7.61444e-16)
(21.5072 -1.56946 0)
(22.1893 -1.48068 -4.92802e-16)
(22.8428 -1.31173 -6.31258e-17)
(23.448 -1.06628 -3.82224e-16)
(23.9856 -0.758453 -2.9493e-16)
(24.4469 -0.405958 0)
(24.8309 -0.022113 -4.39718e-17)
(25.1372 0.382033 -1.01196e-17)
(25.3656 0.795098 1.89117e-18)
(25.5174 1.20633 1.57478e-16)
(25.5954 1.60666 -1.75032e-17)
(25.6013 1.98869 2.14004e-16)
(25.5367 2.34572 -2.54891e-16)
(25.3942 2.67329 0)
(25.1741 2.96164 -1.44057e-17)
(24.801 3.20617 -3.3539e-17)
(24.3461 3.29023 2.87781e-15)
(23.3004 3.20454 -2.41408e-17)
(17.9369 14.5298 1.37255e-17)
(18.641 15.2124 0)
(19.48 15.9059 3.69104e-17)
(20.4194 16.5647 -2.31713e-18)
(21.4199 17.1387 -4.07211e-17)
(22.5217 17.6424 1.48271e-16)
(23.6951 18.0502 -2.18697e-16)
(24.9166 18.3419 -2.59635e-16)
(26.1864 18.5105 0)
(27.4842 18.5448 -4.41249e-16)
(28.7946 18.4358 -4.70341e-16)
(30.1064 18.1774 4.66836e-16)
(31.3996 17.7647 1.73417e-15)
(32.6555 17.195 6.91573e-16)
(33.8536 16.469 -2.09099e-15)
(34.9707 15.5916 -1.50209e-15)
(35.9836 14.5719 1.18024e-15)
(36.87 13.4239 8.69084e-16)
(37.6081 12.1674 -4.34384e-16)
(38.1781 10.8285 4.32588e-16)
(38.5655 9.43731 1.09759e-15)
(38.7631 8.02891 2.04238e-16)
(38.7726 6.64131 -1.91761e-16)
(38.6069 5.31142 -1.2755e-15)
(38.2893 4.06734 0)
(37.8489 2.91708 -6.68489e-16)
(37.3103 1.85295 -3.19124e-16)
(36.6854 0.871336 -2.94378e-16)
(35.9806 -0.024306 -1.08894e-15)
(35.2037 -0.831779 4.07713e-15)
(34.3613 -1.55017 1.67912e-15)
(33.4575 -2.17746 3.89819e-18)
(32.4932 -2.71115 3.89526e-17)
(31.4696 -3.14768 0)
(30.3709 -3.48196 -3.6666e-15)
(29.2095 -3.69413 0)
(27.8553 -3.76728 0)
(26.5773 -3.48766 6.17629e-16)
(24.3365 -3.0627 4.37555e-18)
(17.3176 13.8246 -4.6487e-17)
(16.7486 13.0828 1.60748e-16)
(16.1914 12.198 1.06577e-17)
(15.6585 11.1898 2.30401e-16)
(15.2204 10.1117 -8.37919e-16)
(14.8819 8.95624 6.29593e-16)
(14.6655 7.74694 3.61846e-17)
(14.5853 6.55104 -6.33329e-16)
(14.6396 5.41571 -6.24132e-16)
(14.8177 4.35175 -6.67272e-16)
(15.1014 3.37653 -1.33045e-15)
(15.4716 2.504 0)
(15.9154 1.73054 -6.86712e-16)
(16.4198 1.05193 -2.45374e-17)
(16.9726 0.466967 0)
(17.5649 -0.0291955 -5.82063e-16)
(18.1875 -0.439645 -2.77649e-16)
(18.832 -0.767566 -2.62075e-16)
(19.4911 -1.016 9.07869e-16)
(20.1585 -1.18753 8.12849e-16)
(20.8284 -1.28325 -8.47952e-17)
(21.4947 -1.30309 6.32784e-16)
(22.1497 -1.24538 1.2682e-16)
(22.7812 -1.1092 -6.06888e-17)
(23.3709 -0.897895 3.41169e-16)
(23.9 -0.623032 2.08622e-17)
(24.3585 -0.300286 0)
(24.7436 0.0572974 0)
(25.054 0.438597 -1.97958e-18)
(25.2887 0.832259 5.0276e-18)
(25.4481 1.22734 -1.7279e-16)
(25.5343 1.61435 -1.70476e-17)
(25.5487 1.98544 2.71151e-16)
(25.4925 2.33321 2.44124e-16)
(25.3583 2.65237 1.09161e-17)
(25.1461 2.93146 3.6238e-18)
(24.7861 3.16422 4.04637e-15)
(24.3465 3.23083 -2.74824e-15)
(23.3866 3.12379 2.25294e-17)
(18.6464 13.845 5.2397e-18)
(19.3037 14.4696 0)
(20.086 15.1052 -2.49479e-17)
(20.959 15.7092 0)
(21.8838 16.2352 -8.88077e-17)
(22.9005 16.6987 8.60642e-17)
(23.9809 17.0767 1.66835e-16)
(25.1034 17.351 2.44986e-16)
(26.2697 17.5162 0)
(27.4623 17.5624 -2.95251e-16)
(28.6686 17.4814 4.82329e-16)
(29.8805 17.2666 -9.87123e-16)
(31.0809 16.9127 -5.51052e-16)
(32.254 16.4155 -5.58395e-16)
(33.3818 15.7736 1.33294e-15)
(34.4431 14.9891 1.43684e-15)
(35.4161 14.0681 -1.53423e-15)
(36.2786 13.0218 -1.52086e-15)
(37.0097 11.866 0)
(37.5894 10.6225 3.97411e-16)
(38.0016 9.31838 -7.69431e-16)
(38.2372 7.98668 1.89592e-16)
(38.295 6.66342 4.24481e-18)
(38.1842 5.38385 3.01754e-15)
(37.9232 4.17495 -1.64977e-16)
(37.5359 3.04665 9.99972e-17)
(37.0442 1.99625 2.96345e-16)
(36.4611 1.02289 3.1375e-16)
(35.794 0.130909 9.41241e-16)
(35.0509 -0.676147 -1.88529e-15)
(34.2388 -1.39633 -1.54639e-15)
(33.3623 -2.02694 -6.06786e-15)
(32.4221 -2.56475 5.2293e-15)
(31.4191 -3.00515 -7.41045e-17)
(30.3372 -3.34218 3.42933e-15)
(29.1863 -3.55335 -1.07408e-16)
(27.8463 -3.62417 5.98908e-17)
(26.5603 -3.33118 3.85902e-18)
(24.5916 -2.90519 -2.10637e-15)
(18.0656 13.1999 2.25587e-17)
(17.5309 12.5225 -8.35578e-17)
(17.0025 11.7132 1.65919e-16)
(16.4925 10.7896 0)
(16.0674 9.80311 4.90265e-16)
(15.7292 8.74354 0)
(15.5 7.63133 0)
(15.3938 6.53034 0)
(15.4092 5.48393 1.16251e-15)
(15.5365 4.50013 -5.7677e-16)
(15.7597 3.59431 6.51472e-16)
(16.0625 2.77898 0)
(16.434 2.04965 0)
(16.8641 1.40192 -5.93844e-16)
(17.343 0.835115 0)
(17.8641 0.345498 5.42326e-16)
(18.4205 -0.068708 1.27088e-17)
(19.0049 -0.408586 0)
(19.6108 -0.675088 -6.49026e-16)
(20.2319 -0.869024 -9.63669e-16)
(20.862 -0.990147 -6.72393e-16)
(21.494 -1.03753 -5.87374e-16)
(22.1201 -1.00923 1.0093e-15)
(22.7283 -0.904459 0)
(23.3007 -0.726087 3.41614e-16)
(23.8193 -0.483456 3.19076e-16)
(24.2732 -0.190348 1.21054e-16)
(24.6581 0.140719 0)
(24.9714 0.49869 -9.49651e-18)
(25.2114 0.872299 -5.95883e-17)
(25.3778 1.25052 1.80937e-16)
(25.4719 1.62353 -1.65631e-17)
(25.4946 1.98305 -2.48485e-16)
(25.4468 2.32099 2.68178e-16)
(25.321 2.63122 -2.04537e-18)
(25.1173 2.9007 1.06489e-17)
(24.7713 3.12138 -3.94088e-15)
(24.348 3.17226 2.57423e-15)
(23.4703 3.04674 6.26941e-15)
(19.2776 13.2218 2.13454e-18)
(19.8939 13.7951 -1.52294e-17)
(20.6265 14.3793 0)
(21.4417 14.9339 9.10845e-19)
(22.301 15.4162 0)
(23.244 15.8422 0)
(24.2436 16.1912 1.84531e-17)
(25.2795 16.4469 2.11465e-16)
(26.3551 16.6049 4.86554e-16)
(27.4545 16.6567 1.2321e-15)
(28.5675 16.5951 6.92843e-16)
(29.6884 16.4137 7.9594e-16)
(30.8027 16.1069 0)
(31.8974 15.6696 1.53719e-15)
(32.9569 15.0987 -5.43704e-16)
(33.9619 14.3945 0)
(34.8925 13.5607 1.28123e-15)
(35.7275 12.6053 1.45733e-15)
(36.4464 11.5414 0)
(37.0291 10.3882 1.41344e-15)
(37.4586 9.17031 -1.38075e-15)
(37.7243 7.91721 0)
(37.8231 6.6618 -1.63407e-16)
(37.7609 5.43694 3.16459e-17)
(37.5518 4.26818 7.7834e-17)
(37.2149 3.16672 1.16583e-15)
(36.7693 2.13388 -3.98687e-18)
(36.2277 1.1717 -3.10462e-17)
(35.5985 0.285728 -2.61342e-17)
(34.8894 -0.519206 5.71889e-17)
(34.1077 -1.23989 1.55847e-15)
(33.2586 -1.87281 5.49256e-15)
(32.3433 -2.41399 4.31317e-17)
(31.3631 -2.85784 -3.99292e-15)
(30.3026 -3.1976 -3.11744e-15)
(29.17 -3.40845 -4.62093e-15)
(27.8565 -3.47751 -2.70312e-15)
(26.5594 -3.1774 2.17333e-17)
(24.7586 -2.73688 1.9643e-15)
(18.7306 12.6295 -5.29394e-17)
(18.2264 12.0086 -2.01052e-16)
(17.7239 11.2655 4.0145e-16)
(17.2353 10.4159 0)
(16.8232 9.5094 8.02266e-16)
(16.4881 8.5337 0)
(16.2508 7.50699 -4.5441e-16)
(16.1256 6.49011 1.82793e-15)
(16.1111 5.52287 -1.41797e-15)
(16.1983 4.61166 0)
(16.373 3.76992 1.05788e-15)
(16.6207 3.00899 1.02574e-15)
(16.932 2.32371 0)
(17.2986 1.70946 -1.01662e-15)
(17.7128 1.16545 2.46956e-16)
(18.1699 0.688173 -2.47073e-16)
(18.6649 0.276741 2.41303e-16)
(19.1919 -0.0686647 4.25278e-16)
(19.7456 -0.347499 -1.50862e-17)
(20.3201 -0.559024 5.1806e-16)
(20.909 -0.701712 1.54657e-16)
(21.5053 -0.773749 -1.47389e-16)
(22.1011 -0.772801 -4.79088e-16)
(22.6844 -0.697779 4.13411e-16)
(23.2379 -0.550861 -3.03351e-16)
(23.7442 -0.3396 -3.23469e-16)
(24.1917 -0.0758791 -1.15154e-16)
(24.5748 0.228513 -1.33136e-18)
(24.8898 0.562717 1.03997e-17)
(25.1342 0.915681 5.69874e-17)
(25.3069 1.27636 8.82061e-18)
(25.4085 1.63466 -1.60411e-17)
(25.4394 1.98192 3.03256e-16)
(25.3999 2.30939 -2.75071e-16)
(25.2828 2.6101 1.11357e-17)
(25.088 2.86956 -7.93145e-16)
(24.7567 3.07799 1.91395e-15)
(24.3506 3.11468 0)
(23.5516 2.97312 -6.01091e-15)
(19.8418 12.6512 8.69088e-18)
(20.4218 13.1789 0)
(21.1105 13.7168 0)
(21.8746 14.2269 -2.20986e-17)
(22.6763 14.6696 -1.95253e-17)
(23.5544 15.0611 0)
(24.4828 15.3824 0)
(25.4425 15.6191 -6.99314e-16)
(26.4376 15.7681 -3.49316e-17)
(27.4539 15.8217 -4.21037e-17)
(28.4828 15.7738 -1.60334e-15)
(29.5206 15.6183 -4.16886e-16)
(30.5551 15.35 7.9249e-16)
(31.5755 14.9631 -6.77028e-17)
(32.5686 14.454 0)
(33.5173 13.821 0)
(34.4036 13.066 -3.5165e-15)
(35.2074 12.1945 -6.44081e-16)
(35.9092 11.2173 6.58141e-16)
(36.4896 10.1498 -1.37141e-15)
(36.9308 9.01386 2.60286e-15)
(37.2211 7.83623 1.23194e-15)
(37.3554 6.64706 -1.19149e-15)
(37.3368 5.47706 -1.3436e-15)
(37.1756 4.35036 2.12797e-16)
(36.8866 3.27863 -1.14883e-15)
(36.486 2.26612 -1.2958e-16)
(35.9859 1.31754 2.88827e-17)
(35.3946 0.439655 -2.88481e-17)
(34.7201 -0.361408 9.69343e-17)
(33.9695 -1.08123 -4.00951e-17)
(33.1482 -1.71542 -2.71377e-15)
(32.2582 -2.25913 -1.02895e-16)
(31.3011 -2.70586 1.22218e-16)
(30.2633 -3.04797 0)
(29.152 -3.25888 4.29779e-15)
(27.8722 -3.32593 2.532e-15)
(26.5825 -3.02523 0)
(24.8952 -2.56672 0)
(19.3252 12.106 0)
(18.848 11.5349 1.80396e-16)
(18.3695 10.8502 -6.02822e-16)
(17.901 10.0662 -2.94316e-16)
(17.502 9.23012 -7.31571e-16)
(17.1718 8.32838 0)
(16.9299 7.37766 0)
(16.7909 6.4358 -8.18035e-16)
(16.7533 5.53952 8.58003e-16)
(16.8087 4.69392 0)
(16.9442 3.91105 -4.48792e-16)
(17.1467 3.20135 -4.85024e-16)
(17.4078 2.55923 4.59979e-16)
(17.7204 1.97946 4.78084e-16)
(18.0783 1.46092 -8.88625e-16)
(18.4784 1.00024 0)
(18.9171 0.596741 -2.02094e-16)
(19.3902 0.251294 1.19895e-17)
(19.8933 -0.0346415 8.99494e-16)
(20.4215 -0.259165 -1.67875e-16)
(20.9688 -0.419599 1.6103e-16)
(21.5285 -0.513303 -1.23711e-16)
(22.0927 -0.537384 1.75327e-16)
(22.6497 -0.490274 -8.39717e-16)
(23.1829 -0.373273 -2.99783e-16)
(23.6751 -0.192282 2.62738e-16)
(24.1146 0.0425273 -1.61688e-17)
(24.4942 0.320276 0)
(24.8096 0.63046 -9.81512e-18)
(25.0575 0.962292 5.99861e-17)
(25.2358 1.30482 -9.21692e-17)
(25.3445 1.64775 1.6219e-16)
(25.3832 1.98207 -6.11757e-16)
(25.352 2.29845 6.303e-16)
(25.2439 2.58907 -9.56214e-18)
(25.0583 2.83817 7.5123e-16)
(24.7426 3.03416 3.48325e-17)
(24.3547 3.05833 -7.47525e-17)
(23.6304 2.90341 -5.39271e-15)
(20.3487 12.1262 -8.42817e-18)
(20.8962 12.6129 0)
(21.5455 13.109 0)
(22.264 13.5787 1.79374e-17)