# vtk DataFile Version 2.0
sampleSurface
ASCII
DATASET POLYDATA
POINTS 1819 float
-0.00740185 5e-05 0 -0.0075 5e-05 0 -0.0075 0 0 -0.00740185 0
0 -0.00730371 5e-05 0 -0.00730371 0 0 -0.00720556 5e-05 0
-0.00720556 0 0 -0.00710741 5e-05 0 -0.00710741 0 0 -0.00700924
5e-05 0 -0.00700924 0 0 -0.00691093 5e-05 0 -0.00691093 0
0 -0.00681118 5e-05 0 -0.00681117 0 0 -0.0067 0 0
-0.0067 5e-05 0 -0.00740185 0.0001 0 -0.0075 0.0001 0 -0.00730371
0.0001 0 -0.00720556 0.0001 0 -0.00710741 0.0001 0 -0.00700924 0.0001
0 -0.00691093 0.0001 0 -0.00681119 0.0001 0 -0.0067 0.0001 0
-0.00740185 0.00015 0 -0.0075 0.00015 0 -0.00730371 0.00015 0 -0.00720556
0.00015 0 -0.00710741 0.00015 0 -0.00700924 0.00015 0 -0.00691093 0.00015
0 -0.00681122 0.00015 0 -0.0067 0.00015 0 -0.00740185 0.0002 0
-0.0075 0.0002 0 -0.00730371 0.0002 0 -0.00720556 0.0002 0 -0.00710741
0.0002 0 -0.00700924 0.0002 0 -0.00691093 0.0002 0 -0.00681125 0.0002
0 -0.0067 0.0002 0 -0.00740185 0.00025 0 -0.0075 0.00025 0
-0.00730371 0.00025 0 -0.00720556 0.00025 0 -0.00710741 0.00025 0 -0.00700924
0.00025 0 -0.00691094 0.00025 0 -0.0068113 0.00025 0 -0.0067 0.00025
0 -0.00740185 0.0003 0 -0.0075 0.0003 0 -0.00730371 0.0003 0
-0.00720556 0.0003 0 -0.00710741 0.0003 0 -0.00700924 0.0003 0 -0.00691094
0.0003 0 -0.00681135 0.0003 0 -0.0067 0.0003 0 -0.00740185 0.00035
0 -0.0075 0.00035 0 -0.00730371 0.00035 0 -0.00720556 0.00035 0
-0.00710741 0.00035 0 -0.00700924 0.00035 0 -0.00691095 0.00035 0 -0.00681142
0.00035 0 -0.0067 0.00035 0 -0.00740185 0.0004 0 -0.0075 0.0004
0 -0.00730371 0.0004 0 -0.00720556 0.0004 0 -0.00710741 0.0004 0
-0.00700924 0.0004 0 -0.00691095 0.0004 0 -0.00681149 0.0004 0 -0.0067
0.0004 0 -0.00740185 0.00045 0 -0.0075 0.00045 0 -0.00730371 0.00045
0 -0.00720556 0.00045 0 -0.00710741 0.00045 0 -0.00700924 0.00045 0
-0.00691096 0.00045 0 -0.00681158 0.00045 0 -0.0067 0.00045 0 -0.00740185
0.0005 0 -0.0075 0.0005 0 -0.00730371 0.0005 0 -0.00720556 0.0005
0 -0.00710741 0.0005 0 -0.00700924 0.0005 0 -0.00691096 0.0005 0
-0.00681168 0.0005 0 -0.0067 0.0005 0 -0.00740185 0.00055 0 -0.0075
0.00055 0 -0.00730371 0.00055 0 -0.00720556 0.00055 0 -0.00710741 0.00055
0 -0.00700924 0.00055 0 -0.00691097 0.00055 0 -0.00681179 0.00055 0
-0.0067 0.00055 0 -0.00740185 0.0006 0 -0.0075 0.0006 0 -0.00730371
0.0006 0 -0.00720556 0.0006 0 -0.00710741 0.0006 0 -0.00700924 0.0006
0 -0.00691098 0.0006 0 -0.00681191 0.0006 0 -0.0067 0.0006 0
-0.00740185 0.00065 0 -0.0075 0.00065 0 -0.00730371 0.00065 0 -0.00720556
0.00065 0 -0.00710741 0.00065 0 -0.00700924 0.00065 0 -0.00691098 0.00065
0 -0.00681204 0.00065 0 -0.0067 0.00065 0 -0.00740185 0.0007 0
-0.0075 0.0007 0 -0.00730371 0.0007 0 -0.00720556 0.0007 0 -0.00710741
0.0007 0 -0.00700924 0.0007 0 -0.00691099 0.0007 0 -0.00681218 0.0007
0 -0.0067 0.0007 0 -0.00740185 0.00075 0 -0.0075 0.00075 0
-0.00730371 0.00075 0 -0.00720556 0.00075 0 -0.00710741 0.00075 0 -0.00700924
0.00075 0 -0.00691099 0.00075 0 -0.00681211 0.00075 0 -0.0067 0.00075
0 -0.00308999 0.000183339 0 -0.0032 0.000183339 0 -0.0032 0 0
-0.00308999 0 0 -0.00297531 0.000183339 0 -0.00297531 0 0 -0.00285626
0.000183339 0 -0.00285626 0 0 -0.00273276 0.000183339 0 -0.00273276 0
0 -0.00260467 0.000183339 0 -0.00260467 0 0 -0.00247182 0.000183339 0
-0.00247182 0 0 -0.00233404 0.000183339 0 -0.00233404 0 0 -0.00219113
0.000183339 0 -0.00219113 0 0 -0.00204292 0.000183339 0 -0.00204292 0
0 -0.00188919 0.000183339 0 -0.0018892 0 0 -0.00172976 0.000183339 0
-0.00172976 0 0 -0.0015644 0.000183339 0 -0.0015644 0 0 -0.0013929
0.000183339 0 -0.0013929 0 0 -0.00121503 0.000183339 0 -0.00121503 0
0 -0.00103054 0.000183339 0 -0.00103054 0 0 -0.000839204 0.000183339 0
-0.000839207 0 0 -0.000640757 0.000183339 0 -0.00064076 0 0 -0.000434936
0.000183339 0 -0.000434939 0 0 -0.000221468 0.000183339 0 -0.000221471 0
0 0 0 0 0 0.000183339 0 -0.00308999 0.000353777 0
-0.0032 0.000353777 0 -0.00297531 0.000353777 0 -0.00285625 0.000353777 0 -0.00273276
0.000353777 0 -0.00260467 0.000353777 0 -0.00247182 0.000353777 0 -0.00233403 0.000353777
0 -0.00219113 0.000353777 0 -0.00204291 0.000353777 0 -0.00188919 0.000353777 0
-0.00172975 0.000353777 0 -0.0015644 0.000353777 0 -0.00139289 0.000353777 0 -0.00121502
0.000353777 0 -0.00103054 0.000353777 0 -0.000839198 0.000353777 0 -0.000640751 0.000353777
0 -0.00043493 0.000353777 0 -0.000221461 0.000353777 0 0 0.000353777 0
-0.00308999 0.000512223 0 -0.0032 0.000512223 0 -0.00297531 0.000512223 0 -0.00285625
0.000512223 0 -0.00273275 0.000512223 0 -0.00260466 0.000512223 0 -0.00247181 0.000512223
0 -0.00233403 0.000512223 0 -0.00219112 0.000512223 0 -0.00204291 0.000512223 0
-0.00188918 0.000512223 0 -0.00172975 0.000512223 0 -0.00156439 0.000512223 0 -0.00139289
0.000512223 0 -0.00121501 0.000512223 0 -0.00103053 0.000512223 0 -0.000839192 0.000512223
0 -0.000640745 0.000512223 0 -0.000434924 0.000512223 0 -0.000221455 0.000512223 0
0 0.000512223 0 -0.00309 0.000659519 0 -0.0032 0.000659519 0 -0.00297531
0.000659519 0 -0.00285625 0.000659519 0 -0.00273275 0.000659519 0 -0.00260466 0.000659519
0 -0.00247181 0.000659519 0 -0.00233402 0.000659519 0 -0.00219112 0.000659519 0
-0.0020429 0.000659519 0 -0.00188918 0.000659519 0 -0.00172974 0.000659519 0 -0.00156439
0.000659519 0 -0.00139288 0.000659519 0 -0.00121501 0.000659519 0 -0.00103053 0.000659519
0 -0.000839187 0.000659519 0 -0.000640739 0.000659519 0 -0.000434918 0.000659519 0
-0.00022145 0.000659519 0 0 0.000659519 0 -0.00309 0.000796451 0 -0.0032
0.000796451 0 -0.00297531 0.000796451 0 -0.00285624 0.000796451 0 -0.00273274 0.000796451
0 -0.00260465 0.000796451 0 -0.0024718 0.000796451 0 -0.00233402 0.000796451 0
-0.00219111 0.000796451 0 -0.0020429 0.000796451 0 -0.00188917 0.000796451 0 -0.00172974
0.000796451 0 -0.00156438 0.000796451 0 -0.00139288 0.000796451 0 -0.001215 0.000796451
0 -0.00103052 0.000796451 0 -0.000839182 0.000796451 0 -0.000640734 0.000796451 0
-0.000434913 0.000796451 0 -0.000221445 0.000796451 0 0 0.000796451 0 -0.00309001
0.000923748 0 -0.0032 0.000923748 0 -0.0029753 0.000923748 0 -0.00285624 0.000923748
0 -0.00273274 0.000923748 0 -0.00260465 0.000923748 0 -0.0024718 0.000923748 0
-0.00233401 0.000923748 0 -0.00219111 0.000923748 0 -0.00204289 0.000923748 0 -0.00188917
0.000923748 0 -0.00172973 0.000923748 0 -0.00156438 0.000923748 0 -0.00139287 0.000923748
0 -0.001215 0.000923748 0 -0.00103052 0.000923748 0 -0.000839177 0.000923748 0
-0.000640729 0.000923748 0 -0.000434908 0.000923748 0 -0.00022144 0.000923748 0 0
0.000923748 0 -0.00309002 0.00104209 0 -0.0032 0.00104209 0 -0.0029753 0.00104209
0 -0.00285624 0.00104209 0 -0.00273274 0.00104209 0 -0.00260465 0.00104209 0
-0.0024718 0.00104209 0 -0.00233401 0.00104209 0 -0.0021911 0.00104209 0 -0.00204289
0.00104209 0 -0.00188916 0.00104209 0 -0.00172973 0.00104209 0 -0.00156437 0.00104209
0 -0.00139287 0.00104209 0 -0.00121499 0.00104209 0 -0.00103051 0.00104209 0
-0.000839172 0.00104209 0 -0.000640725 0.00104209 0 -0.000434904 0.00104209 0 -0.000221435
0.00104209 0 0 0.00104209 0 -0.00309002 0.0011521 0 -0.0032 0.0011521
0 -0.0029753 0.0011521 0 -0.00285623 0.0011521 0 -0.00273273 0.0011521 0
-0.00260464 0.0011521 0 -0.00247179 0.0011521 0 -0.00233401 0.0011521 0 -0.0021911
0.0011521 0 -0.00204288 0.0011521 0 -0.00188916 0.0011521 0 -0.00172973 0.0011521
0 -0.00156437 0.0011521 0 -0.00139286 0.0011521 0 -0.00121499 0.0011521 0
-0.00103051 0.0011521 0 -0.000839168 0.0011521 0 -0.00064072 0.0011521 0 -0.000434899
0.0011521 0 -0.000221431 0.0011521 0 0 0.0011521 0 -0.00309003 0.00125437
0 -0.0032 0.00125437 0 -0.0029753 0.00125437 0 -0.00285623 0.00125437 0
-0.00273273 0.00125437 0 -0.00260464 0.00125437 0 -0.00247179 0.00125437 0 -0.002334
0.00125437 0 -0.0021911 0.00125437 0 -0.00204288 0.00125437 0 -0.00188916 0.00125437
0 -0.00172972 0.00125437 0 -0.00156436 0.00125437 0 -0.00139286 0.00125437 0
-0.00121499 0.00125437 0 -0.0010305 0.00125437 0 -0.000839164 0.00125437 0 -0.000640717
0.00125437 0 -0.000434896 0.00125437 0 -0.000221427 0.00125437 0 0 0.00125437
0 -0.00309004 0.00134945 0 -0.0032 0.00134945 0 -0.0029753 0.00134945 0
-0.00285623 0.00134945 0 -0.00273273 0.00134945 0 -0.00260463 0.00134945 0 -0.00247178
0.00134945 0 -0.002334 0.00134945 0 -0.00219109 0.00134945 0 -0.00204288 0.00134945
0 -0.00188915 0.00134945 0 -0.00172972 0.00134945 0 -0.00156436 0.00134945 0
-0.00139286 0.00134945 0 -0.00121498 0.00134945 0 -0.0010305 0.00134945 0 -0.000839161
0.00134945 0 -0.000640713 0.00134945 0 -0.000434892 0.00134945 0 -0.000221424 0.00134945
0 0 0.00134945 0 -0.00309005 0.00143783 0 -0.0032 0.00143783 0
-0.0029753 0.00143783 0 -0.00285622 0.00143783 0 -0.00273272 0.00143783 0 -0.00260463
0.00143783 0 -0.00247178 0.00143783 0 -0.00233399 0.00143783 0 -0.00219109 0.00143783
0 -0.00204287 0.00143783 0 -0.00188915 0.00143783 0 -0.00172972 0.00143783 0
-0.00156436 0.00143783 0 -0.00139285 0.00143783 0 -0.00121498 0.00143783 0 -0.0010305
0.00143783 0 -0.000839157 0.00143783 0 -0.00064071 0.00143783 0 -0.000434889 0.00143783
0 -0.000221421 0.00143783 0 0 0.00143783 0 -0.00309006 0.00152 0
-0.0032 0.00152 0 -0.0029753 0.00152 0 -0.00285622 0.00152 0 -0.00273272
0.00152 0 -0.00260463 0.00152 0 -0.00247178 0.00152 0 -0.00233399 0.00152
0 -0.00219109 0.00152 0 -0.00204287 0.00152 0 -0.00188915 0.00152 0
-0.00172971 0.00152 0 -0.00156435 0.00152 0 -0.00139285 0.00152 0 -0.00121498
0.00152 0 -0.00103049 0.00152 0 -0.000839154 0.00152 0 -0.000640707 0.00152
0 -0.000434886 0.00152 0 -0.000221418 0.00152 0 0 0.00152 0
-0.00309007 0.00159638 0 -0.0032 0.00159638 0 -0.0029753 0.00159638 0 -0.00285622
0.00159638 0 -0.00273272 0.00159638 0 -0.00260463 0.00159638 0 -0.00247178 0.00159638
0 -0.00233399 0.00159638 0 -0.00219108 0.00159638 0 -0.00204287 0.00159638 0
-0.00188914 0.00159638 0 -0.00172971 0.00159638 0 -0.00156435 0.00159638 0 -0.00139285
0.00159638 0 -0.00121497 0.00159638 0 -0.00103049 0.00159638 0 -0.000839152 0.00159638
0 -0.000640704 0.00159638 0 -0.000434884 0.00159638 0 -0.000221416 0.00159638 0
[...]
POINT_DATA 1819
FIELD attributes 2
p 1 1819 float
-0.0846921 -0.133149 -0.125147 -0.0853713 -0.0388823 -0.0396318 -0.00355439 -0.00438265 0.0208844 0.0201136 0.0309066
0.0300881 0.0295109 0.0290771 0.0142949 0.0142754 -0.000204355 -8.23492e-05 -0.0829114 -0.130085 -0.0372303
-0.00201155 0.0221323 0.0318904 0.0295889 0.0133537 -0.00106064 -0.080137 -0.126605 -0.0349378 -0.000166198
0.0234345 0.032394 0.0287978 0.0109608 -0.00430652 -0.076264 -0.121889 -0.0317206 0.00246007 0.0253751
0.0332028 0.0277565 0.00749671 -0.00919832 -0.0713936 -0.115957 -0.0276964 0.00574649 0.0278303 0.0342138
0.0262694 0.00265323 -0.0160359 -0.0656487 -0.108903 -0.0230042 0.0095568 0.0306786 0.035315 0.0241216
-0.00396851 -0.0253082 -0.0591778 -0.10086 -0.0178039 0.0137393 0.033792 0.0363867 0.0210356 -0.0129023
-0.0376659 -0.0521644 -0.0919973 -0.012295 0.0180975 0.0369946 0.0372403 0.0165714 -0.0249516 -0.0540662
-0.04483 -0.0825246 -0.00672148 0.0223775 0.0400353 0.0375348 0.00998587 -0.041402 -0.0760555 -0.03743
-0.0726905 -0.00136955 0.0262642 0.0425674 0.0366683 5.17749e-05 -0.0641103 -0.105762 -0.030244 -0.0627766
0.00344355 0.0293881 0.0441368 0.0338842 -0.0145393 -0.0943918 -0.144191 -0.023555 -0.0530826 0.00738915
0.0313029 0.0440995 0.0287762 -0.0334455 -0.130874 -0.189286 -0.017623 -0.0439013 0.010154 0.0314738
0.0416315 0.0216419 -0.0533679 -0.173244 -0.245962 -0.0126623 -0.0354892 0.01151 0.0294912 0.0362645
0.0132849 -0.0693057 -0.22166 -0.323595 -0.00803588 -0.0268281 0.0114936 0.0249476 0.0275883 0.00346526
-0.0739176 -0.211226 -0.282464 4.22597 4.23653 4.23935 4.22911 4.21127 4.21458 4.19127
4.19476 4.15961 4.16309 4.12467 4.12827 4.08508 4.0887 4.04263 4.0462 3.99906
4.0025 3.95609 3.95932 3.91519 3.91815 3.87753 3.88016 3.84389 3.84618 3.81472
3.81667 3.79016 3.79178 3.77011 3.77144 3.75434 3.75543 3.74253 3.74344 3.73443
3.7352 3.73002 3.7307 3.72942 3.72885 4.21769 4.22801 4.2027 4.18234 4.15043
4.11522 4.0755 4.03312 3.98986 3.94742 3.90724 3.87043 3.83771 3.80946 3.78577
3.7665 3.75138 3.74009 3.73236 3.72816 3.727 4.20465 4.2152 4.1894 4.16861
4.1361 4.10059 4.06069 4.01847 3.97572 3.93415 3.89514 3.85967 3.8284 3.80158
3.77922 3.76113 3.747 3.73649 3.7293 3.72541 3.72433 4.18643 4.19728 4.17087
4.14957 4.11639 4.08064 4.04069 3.99888 3.95703 3.91681 3.87947 3.8459 3.81657
3.79164 3.77103 3.75446 3.74159 3.73205 3.72556 3.72206 3.72108 4.16293 4.17409
4.14707 4.12527 4.09152 4.05573 4.016 3.975 3.93455 3.8962 3.86109 3.82991
3.80298 3.78034 3.76178 3.74698 3.73556 3.72715 3.72144 3.71837 3.71751 4.13364
4.14508 4.11759 4.09545 4.06138 4.02592 3.98687 3.94727 3.90883 3.87297 3.84065
3.81235 3.78824 3.7682 3.75194 3.73909 3.72924 3.72204 3.71717 3.71456 3.71383
4.09773 4.10935 4.08174 4.05958 4.0257 3.99117 3.9535 3.91606 3.88038 3.84771
3.81875 3.79381 3.77286 3.75567 3.74188 3.73109 3.72289 3.71693 3.71292 3.71079
3.71019 4.05405 4.06565 4.03858 4.01705 3.98416 3.95147 3.91611 3.88181 3.84975
3.82098 3.79596 3.77478 3.75728 3.74312 3.73191 3.72322 3.71669 3.71197 3.70882
3.70716 3.7067 4.00108 4.01228 3.98696 3.9671 3.93644 3.90682 3.87501 3.84497
3.81747 3.79334 3.77279 3.75572 3.74187 3.73085 3.72225 3.71568 3.71078 3.70728
3.70496 3.70375 3.70341 3.9368 3.94694 3.92542 3.90887 3.88222 3.85732 3.83059
3.80607 3.78412 3.76532 3.74969 3.73701 3.72694 3.7191 3.71309 3.70857 3.70526
3.70293 3.70139 3.7006 3.70039 3.85849 3.8664 3.85221 3.84149 3.82132 3.80324
3.78334 3.76572 3.75027 3.73744 3.72709 3.71897 3.71273 3.70802 3.70453 3.702
3.70019 3.69894 3.69814 3.69775 3.69765 3.76255 3.76613 3.76529 3.7641 3.75372
3.74498 3.73391 3.72456 3.71648 3.71014 3.70533 3.70184 3.69939 3.69774 3.69667
3.69599 3.69558 3.69535 3.69522 3.69519 3.69519 3.64406 3.63942 3.66241 3.67595
3.67963 3.68319 3.68303 3.68326 3.68331 3.68383 3.68469 3.68581 3.68706 3.68833
3.68952 3.69057 3.69145 3.69214 3.69263 3.69292 3.69301 3.49626 3.47609 3.54132
3.57655 3.59964 3.61869 3.63154 3.64249 3.65124 3.65886 3.66539 3.67101 3.6758
3.67981 3.68309 3.68573 3.68778 3.6893 3.69035 3.69093 3.6911 3.30964 3.26004
3.4001 3.46576 3.51467 3.55253 3.58026 3.60286 3.62073 3.63549 3.64758 3.65752
3.66562 3.67217 3.67738 3.68145 3.68455 3.68682 3.68835 3.68919 3.68943 3.07039
2.96597 3.2375 3.34395 3.42596 3.48583 3.53017 3.56497 3.59211 3.61389 3.63133
3.64534 3.65653 3.6654 3.67235 3.67771 3.68174 3.68466 3.68662 3.68769 3.68799
2.75796 2.55469 3.05306 3.21224 3.33534 3.4199 3.48211 3.52931 3.56562 3.59418
3.61668 3.63446 3.64847 3.65944 3.66795 3.67444 3.6793 3.68279 3.68514 3.6864
3.68675 2.33932 1.96605 2.84624 3.07373 3.24504 3.35612 3.43666 3.49622 3.54142
3.5764 3.6036 3.62484 3.6414 3.65425 3.66413 3.67163 3.6772 3.68119 3.68386
3.68529 3.68569 1.77304 1.12384 2.61801 2.93348 3.15727 3.29578 3.39444 3.46596
3.51958 3.56053 3.59204 3.61641 3.63524 3.64975 3.66084 3.66921 3.67541 3.67983
3.68278 3.68436 3.68479 1.07674 -4.02203 2.37243 2.80398 3.07822 3.24261 3.35771
3.43995 3.50099 3.54715 3.58237 3.60941 3.63017 3.64606 3.65815 3.66725 3.67395
3.67873 3.68191 3.6836 3.68407 -0.00268519 -0.0147468 0.00949763 0.0162416 0.0138713 -0.00815547
-0.0627602 -0.129316 -0.163995 8.55052e-05 -0.00670679 0.00617854 0.00796491 0.002953 -0.0142462 -0.0476268
-0.0826094 -0.102514 0.000861166 -0.00225796 0.00268694 0.00132494 -0.00474952 -0.0176829 -0.0383608 -0.060575
-0.0765787 0.00063918 -6.87871e-05 -0.000630098 -0.00402148 -0.010567 -0.0210206 -0.0353442 -0.0501935 -0.0623283
-0.000391751 0.000510141 -0.00374419 -0.00838048 -0.0151239 -0.0243081 -0.0354171 -0.0468667 -0.0575135 -0.00230133
-0.000160484 -0.00664775 -0.011995 -0.0187801 -0.0270794 -0.0364472 -0.0460998 -0.0556165 -0.00413343 -0.000988859
-0.00914086 -0.0150242 -0.0219207 -0.0298101 -0.0383774 -0.0472107 -0.0561299 -0.00537825 -0.00145797 -0.0111373
-0.0175253 -0.0246199 -0.0323916 -0.0406407 -0.0491453 -0.0577875 -0.00631678 -0.00179965 -0.012746 -0.0196136
-0.0269759 -0.0348173 -0.0430251 -0.0514787 -0.0600481 -0.00705319 -0.00206983 -0.0140616 -0.0213756 -0.0290413
-0.0370596 -0.0453811 -0.0539448 -0.0625798 -0.00764602 -0.00229376 -0.0151511 -0.0228724 -0.0308509 -0.0391002
-0.0476157 -0.0563786 -0.0651685 -0.00813098 -0.00248454 -0.01606 -0.0241447 -0.0324271 -0.0409338 -0.0496861
-0.0586951 -0.0676949 -0.00853664 -0.00265024 -0.0168323 -0.0252348 -0.0337918 -0.0425572 -0.0515503 -0.0607361
-0.0699168 -0.00886966 -0.00278839 -0.0174857 -0.0261571 -0.0349491 -0.0440169 -0.0533662 -0.0625393 -0.0718929
-0.00901599 -0.00336818 -0.0177807 -0.0265734 -0.0354736 -0.0447185 -0.0543116 -0.0635048 -0.0732373 -0.150618
-0.186108 -0.133579 -0.158099 -0.124182 -0.142101 -0.118643 -0.132466 -0.116039 -0.126998 -0.115673
-0.124572 -0.117111 -0.124479 -0.120049 -0.126242 -0.124276 -0.129541 -0.129638 -0.134156 -0.136034
-0.139925 -0.143397 -0.146742 -0.151687 -0.154541 -0.160885 -0.163287 -0.170991 -0.172966 -0.18202
-0.183582 -0.194 -0.195158 -0.206979 -0.207732 -0.221011 -0.221357 -0.236157 -0.236097 -0.25249
-0.252023 -0.270107 -0.269223 -0.289118 -0.287805 -0.309649 -0.307889 -0.33184 -0.329611 -0.355845
-0.353126 -0.381834 -0.3786 -0.409994 -0.406216 -0.440527 -0.436171 -0.473657 -0.46868 -0.50963
-0.503983 -0.548693 -0.542335 -0.590989 -0.583934 -0.636339 -0.628718 -0.684079 -0.676127 -0.733409
-0.725227 -0.785079 -0.776051 -0.845578 -0.833452 -0.933198 -0.913121 -1.0849 -1.04854 -1.36302
-1.29791 -1.85489 -1.74363 -2.62746 -2.45588 -3.64921 -3.42452 -4.73682 -4.50137 -5.61549
-5.43181 -6.12056 -6.03533 -6.35553 -6.32832 -7.46965 -7.61587 -5.2512 -0.105045 -0.103451
-0.102776 -0.102957 -0.104296 -0.106724 -0.110192 -0.114639 -0.120007 -0.126252 -0.133349 -0.141283
-0.150051 -0.159661 -0.17013 -0.181489 -0.193777 -0.207047 -0.221356 -0.236778 -0.253401 -0.27133
-0.29068 -0.311585 -0.334186 -0.358639 -0.385118 -0.413822 -0.444966 -0.478782 -0.515522 -0.555414
-0.598548 -0.644702 -0.693314 -0.744078 -0.798939 -0.86649 -0.968482 -1.14739 -1.47065 -2.03274
-2.89683 -3.99657 -5.09518 -5.88756 -6.23893 -6.384 -6.80829 -4.46176 -0.0835656 -0.0873035
-0.0905281 -0.093804 -0.0974773 -0.101686 -0.106515 -0.112006 -0.118184 -0.125064 -0.132662 -0.140993
-0.15008 -0.159947 -0.17063 -0.182169 -0.194613 -0.208018 -0.222454 -0.238009 -0.25478 -0.272871
-0.292401 -0.313501 -0.336319 -0.361022 -0.387799 -0.416857 -0.448421 -0.482735 -0.520062 -0.560649
-0.604645 -0.652006 -0.702561 -0.756696 -0.817519 -0.895383 -1.01482 -1.22296 -1.59222 -2.21968
-3.1582 -4.31401 -5.40445 -6.10556 -6.32536 -6.32516 -6.09154 -3.61854 -0.0704871 -0.076203
-0.0813662 -0.0864367 -0.0916748 -0.0972175 -0.103165 -0.109588 -0.116542 -0.12407 -0.132212 -0.141005
-0.150487 -0.160699 -0.171686 -0.183498 -0.196195 -0.209842 -0.224516 -0.240303 -0.257301 -0.275618
-0.295372 -0.316699 -0.339757 -0.364725 -0.391799 -0.421195 -0.453154 -0.487947 -0.525873 -0.567236
-0.612296 -0.661233 -0.714299 -0.772615 -0.840493 -0.929906 -1.06694 -1.29977 -1.7033 -2.36745
-3.33302 -4.48916 -5.5299 -6.13166 -6.23015 -6.02945 -5.26042 -2.81119 -0.0660639 -0.0727267
-0.0788505 -0.08485 -0.0909457 -0.0972596 -0.103886 -0.110898 -0.118356 -0.126316 -0.134824 -0.143929
-0.153677 -0.164119 -0.175306 -0.187297 -0.200155 -0.213953 -0.228771 -0.244698 -0.261836 -0.280297
-0.300208 -0.321712 -0.344971 -0.370166 -0.397503 -0.427208 -0.459543 -0.494808 -0.533335 -0.575482
-0.621602 -0.672057 -0.72746 -0.789604 -0.863802 -0.962973 -1.11315 -1.35985 -1.77163 -2.4256
-3.34793 -4.41885 -5.34124 -5.81815 -5.79929 -5.39379 -4.28317 -2.06085 -0.0640637 -0.0710582
-0.0776527 -0.0841944 -0.0908496 -0.0977088 -0.104847 -0.11233 -0.120216 -0.12856 -0.137414 -0.14683
-0.156859 -0.167557 -0.178981 -0.191194 -0.204265 -0.218268 -0.233289 -0.249421 -0.266768 -0.285447
-0.305589 -0.327342 -0.350873 -0.376371 -0.404047 -0.434142 -0.466932 -0.502731 -0.541896 -0.584818
-0.631911 -0.683683 -0.741075 -0.806466 -0.885839 -0.992099 -1.14916 -1.39628 -1.78947 -2.38716
-3.19916 -4.10647 -4.84868 -5.18218 -5.06591 -4.52935 -3.31139 -1.43474 -0.0644506 -0.0716033
-0.0784526 -0.0853151 -0.0923244 -0.0995498 -0.107051 -0.114883 -0.1231 -0.131753 -0.140895 -0.150578
-0.160857 -0.171789 -0.183435 -0.195861 -0.209138 -0.223347 -0.238574 -0.254916 -0.272482 -0.291392
-0.311782 -0.333806 -0.357634 -0.383462 -0.411511 -0.442031 -0.475309 -0.511674 -0.551498 -0.595197
-0.643247 -0.696312 -0.755654 -0.824129 -0.90799 -1.01928 -1.17837 -1.41622 -1.77383 -2.28914
-2.95628 -3.66602 -4.20955 -4.41039 -4.23485 -3.66013 -2.50599 -0.979053 -0.0660331 -0.0732814
-0.0802914 -0.0873682 -0.0946242 -0.102115 -0.109889 -0.117995 -0.12648 -0.135393 -0.144784 -0.154708
-0.165217 -0.176372 -0.188236 -0.200876 -0.214367 -0.228791 -0.244238 -0.26081 -0.278617 -0.297786
-0.318456 -0.340786 -0.364954 -0.391161 -0.419639 -0.450648 -0.484489 -0.521507 -0.562095 -0.606708
-0.655913 -0.710556 -0.772205 -0.844048 -0.932265 -1.0475 -1.20602 -1.43031 -1.74725 -2.17692
-2.702 -3.22874 -3.59963 -3.69836 -3.49375 -2.93366 -1.91145 -0.674515 -0.0682784 -0.0756063
-0.0827385 -0.0899789 -0.0974257 -0.105126 -0.11312 -0.121452 -0.130164 -0.139303 -0.148918 -0.159062
-0.169789 -0.181159 -0.193237 -0.206092 -0.219802 -0.234451 -0.250132 -0.26695 -0.28502 -0.304473
-0.325453 -0.348126 -0.372677 -0.399318 -0.428291 -0.459873 -0.494384 -0.532196 -0.573741 -0.619543
-0.670295 -0.727041 -0.791602 -0.867329 -0.960037 -1.07867 -1.2354 -1.44518 -1.72357 -2.07754
-2.48364 -2.86504 -3.10729 -3.13503 -2.9133 -2.3822 -1.49213 -0.472612 -0.0708533 -0.0782655
-0.0855089 -0.0928917 -0.100501 -0.108379 -0.116562 -0.125088 -0.134 -0.143342 -0.153161 -0.163509
-0.174442 -0.18602 -0.198309 -0.21138 -0.225312 -0.240192 -0.256117 -0.273195 -0.291545 -0.311303
-0.332622 -0.355673 -0.380651 -0.407781 -0.437323 -0.469575 -0.504888 -0.543676 -0.586435 -0.63379
-0.686599 -0.746108 -0.814305 -0.894517 -0.991933 -1.11363 -1.26794 -1.46357 -1.70761 -1.99866
-2.31174 -2.58604 -2.74185 -2.72021 -2.48222 -1.97879 -1.19706 -0.333051 -0.0735285 -0.0810311
-0.088385 -0.0959028 -0.103661 -0.111699 -0.120051 -0.128753 -0.137845 -0.147371 -0.157379 -0.167918
-0.179047 -0.190824 -0.203318 -0.216601 -0.230755 -0.245869 -0.262043 -0.279389 -0.298031 -0.318112
-0.339793 -0.363252 -0.388696 -0.416368 -0.446547 -0.479564 -0.515811 -0.55576 -0.599996 -0.649266
-0.704642 -0.767551 -0.840049 -0.925323 -1.02781 -1.15263 -1.30458 -1.48719 -1.70126 -1.94043
-2.18144 -2.37765 -2.47221 -2.414 -2.16427 -1.6858 -0.987301 -0.232565 -0.0761765 -0.0837836
-0.0912574 -0.0989126 -0.106817 -0.115007 -0.123517 -0.132383 -0.141644 -0.151344 -0.161529 -0.172252
-0.183569 -0.195541 -0.208237 -0.221732 -0.236108 -0.251458 -0.267886 -0.285507 -0.304451 -0.324864
-0.346918 -0.370801 -0.396728 -0.424965 -0.455818 -0.48965 -0.526898 -0.568102 -0.613936 -0.665241
-0.723427 -0.790074 -0.86715 -0.957723 -1.06557 -1.19398 -1.34454 -1.5165 -1.7059 -1.90341
-2.08885 -2.2272 -2.27477 -2.18895 -1.93274 -1.47638 -0.83984 -0.160396 -0.0785903 -0.0863508
-0.0939521 -0.101743 -0.109787 -0.118119 -0.126775 -0.135792 -0.145208 -0.155067 -0.165417 -0.17631
-0.187802 -0.199957 -0.212843 -0.226537 -0.241124 -0.256698 -0.273365 -0.291246 -0.310472 -0.331199
-0.353641 -0.377965 -0.404364 -0.433144 -0.464639 -0.499244 -0.537438 -0.579825 -0.627172 -0.680477
-0.741081 -0.810743 -0.891812 -0.987154 -1.0997 -1.23135 -1.38173 -1.54716 -1.7203 -1.88955
-2.03676 -2.13464 -2.14848 -2.04127 -1.77888 -1.33868 -0.744333 -0.112051 -0.0810273 -0.0890789
-0.0967719 -0.104701 -0.11288 -0.121352 -0.130151 -0.139311 -0.148874 -0.158881 -0.169381 -0.180426
-0.192073 -0.204385 -0.217432 -0.231292 -0.24605 -0.261801 -0.278654 -0.296728 -0.31616 -0.337101
-0.359727 -0.384258 -0.410947 -0.440072 -0.47197 -0.507054 -0.545832 -0.588943 -0.637213 -0.691746
-0.753711 -0.825068 -0.908505 -1.00675 -1.12217 -1.25613 -1.40761 -1.5716 -1.73894 -1.89632
-2.02524 -2.10091 -2.09318 -1.96947 -1.69923 -1.26533 -0.692773 -0.0827567 -0.0823895 -0.0905971
-0.0983197 -0.10632 -0.114569 -0.123115 -0.131987 -0.141221 -0.150857 -0.160938 -0.171511 -0.182628
-0.194347 -0.206731 -0.219849 -0.23378 -0.248609 -0.264432 -0.281359 -0.299505 -0.319012 -0.340016
-0.362623 -0.387133 -0.413878 -0.443083 -0.475077 -0.510273 -0.549187 -0.592464 -0.640932 -0.69567
-0.758002 -0.829908 -0.913984 -1.01297 -1.12928 -1.26423 -1.41662 -1.58113 -1.74815 -1.90375
-2.02869 -2.09805 -2.08273 -1.95212 -1.67761 -1.24419 -0.677589 -0.0389113 0.575506 2.15014
2.69914 3.01347 3.1997 3.32818 3.41921 3.48628 3.53664 3.57483 3.60397 3.62624
3.64322 3.65609 3.66574 3.67284 3.67789 3.68125 3.68303 3.68352 0.452181 1.98002
2.61102 2.95562 3.16161 3.30198 3.40093 3.4734 3.5275 3.5683 3.59931 3.62289
3.64081 3.65435 3.66447 3.67191 3.67718 3.68069 3.68255 3.68305 0.516289 1.86174
2.53407 2.90095 3.12529 3.27694 3.38356 3.46123 3.51891 3.56222 3.59497 3.61979
3.63858 3.65274 3.66331 3.67105 3.67654 3.68018 3.68211 3.68263 0.597124 1.78047
2.46806 2.85066 3.09123 3.25335 3.36725 3.44986 3.51093 3.55659 3.59098 3.61695
3.63655 3.65128 3.66225 3.67028 3.67596 3.67972 3.68172 3.68225 0.652828 1.72207
2.41103 2.80524 3.05975 3.23142 3.35213 3.43936 3.50362 3.55145 3.58736 3.61438
3.63472 3.64998 3.66131 3.66959 3.67544 3.67932 3.68137 3.68192 0.693022 1.68028
2.36151 2.76476 3.03106 3.21135 3.33832 3.42982 3.497 3.54684 3.58412 3.6121
3.63311 3.64882 3.66048 3.66899 3.67499 3.67896 3.68106 3.68162 0.72212 1.65096
2.31886 2.7292 3.00532 3.19329 3.32591 3.42129 3.49113 3.54278 3.58129 3.61012
3.63171 3.64783 3.65977 3.66847 3.6746 3.67866 3.6808 3.68137 0.741778 1.63008
2.28266 2.69845 2.98266 3.17737 3.31501 3.41385 3.48604 3.53928 3.57887 3.60843
3.63053 3.647 3.65918 3.66804 3.67428 3.67841 3.68059 3.68117 0.756373 1.61477
2.25244 2.67238 2.96317 3.16369 3.30569 3.40753 3.48176 3.53637 3.57688 3.60705
3.62957 3.64632 3.6587 3.6677 3.67403 3.67821 3.68042 3.681 0.769656 1.60347
2.22773 2.65089 2.94697 3.15237 3.29804 3.40241 3.47833 3.53406 3.57532 3.60599
3.62884 3.64582 3.65834 3.66744 3.67384 3.67807 3.68029 3.68088 0.782503 1.59536
2.2083 2.63397 2.9342 3.14354 3.29215 3.39854 3.4758 3.53239 3.57421 3.60525
3.62833 3.64547 3.65811 3.66727 3.67372 3.67798 3.68021 3.68081 0.794235 1.59028
2.19444 2.62196 2.92522 3.13748 3.28823 3.39605 3.47422 3.5314 3.57358 3.60484
3.62807 3.6453 3.65799 3.6672 3.67367 3.67794 3.68018 3.68078 0.805387 1.58943
2.18736 2.61578 2.92072 3.13463 3.28654 3.39509 3.47371 3.53113 3.57345 3.60479
3.62806 3.64531 3.65801 3.66721 3.67368 3.67795 3.6802 3.6808 0.817164 1.59343
2.18741 2.61555 2.92071 3.13491 3.28698 3.39557 3.47416 3.53152 3.57377 3.60505
3.62826 3.64547 3.65813 3.66731 3.67376 3.67801 3.68026 3.68088 0.824778 1.59786
2.19006 2.61749 2.92221 3.1361 3.28791 3.3963 3.47472 3.53195 3.5741 3.60529
3.62845 3.6456 3.65823 3.66739 3.67381 3.67806 3.68031 3.68092 
U 3 1819 float
0.541913 -0.00549717 -4.06576e-20 0.53264 -0.00075609 2.37169e-20 0.533712 -0.000843369 -3.6787e-05 0.543204 -0.00305627
-0.000133312 0.571395 -0.0109943 -1.21973e-18 0.572637 -0.00608177 -0.000265282 0.620617 -0.0162984 5.96311e-19
0.621701 -0.00900475 -0.000392781 0.688608 -0.0207761 -3.79471e-19 0.689517 -0.0114252 -0.000498357 0.767742
-0.0243297 -4.33681e-19 0.768213 -0.0134366 -0.000586096 0.865054 -0.0245923 -1.0842e-18 0.864958 -0.0134753
-0.000587784 0.941504 -0.0184308 5.42101e-20 0.941492 -0.010086 -0.000439943 0.980376 -0.00389255 -0.00016979
0.990316 -0.00338368 -1.04354e-18 0.538134 -0.0102972 2.49366e-18 0.528741 -0.00158305 7.18284e-19 0.567757
-0.0206244 2.33103e-18 0.617377 -0.0305926 -1.40946e-18 0.685942 -0.0392135 1.6263e-18 0.76623 -0.0456721
-1.51788e-18 0.865004 -0.0465788 6.50521e-19 0.941616 -0.0348054 -1.6263e-18 0.989008 -0.00687203 -8.13152e-19
0.531844 -0.0151845 2.71051e-19 0.52239 -0.00239367 3.72694e-19 0.561671 -0.0304267 2.1684e-19 0.611835
-0.0451976 1.30104e-18 0.68143 -0.0582203 -3.25261e-18 0.763487 -0.0676404 2.1684e-18 0.864524 -0.0693386
-6.50521e-19 0.94213 -0.0514445 6.50521e-19 0.988834 -0.0100191 8.94467e-19 0.522905 -0.0202435 2.27682e-18
0.513401 -0.00325426 6.23416e-19 0.55295 -0.0406396 -4.11997e-18 0.603773 -0.0605549 -1.0842e-18 0.674839
-0.0783694 1.0842e-18 0.759397 -0.0911824 -2.1684e-18 0.863752 -0.0935573 -1.73472e-18 0.943304 -0.0686942
3.90313e-18 0.989 -0.0132852 -2.43945e-18 0.511288 -0.0253578 3.14419e-18 0.501756 -0.00415948 5.28549e-19
0.541518 -0.0510497 1.30104e-18 0.59306 -0.0764078 -3.46945e-18 0.665988 -0.0994612 -8.67362e-19 0.753883
-0.116183 0 0.862883 -0.119129 4.33681e-19 0.945312 -0.0862075 5.42101e-18 0.989463 -0.0165414
2.27682e-18 0.496968 -0.0304913 -2.49366e-18 0.487451 -0.00511056 -1.32815e-18 0.527287 -0.061611 -6.50521e-19
0.579513 -0.0927679 -1.73472e-18 0.654613 -0.121681 -8.67362e-19 0.746797 -0.14305 0 0.862183
-0.146511 -8.67362e-19 0.948567 -0.103951 1.69136e-17 0.990323 -0.0196433 6.83047e-18 0.479927 -0.0355983
-3.14419e-18 0.470495 -0.00610357 -1.27394e-18 0.510143 -0.0722621 3.46945e-18 0.562866 -0.109642 1.30104e-18
0.640308 -0.145266 -2.1684e-18 0.737882 -0.172411 -4.33681e-19 0.862083 -0.176404 -4.33681e-19 0.953801
-0.121889 5.63785e-18 0.991792 -0.0223625 1.46367e-18 0.460169 -0.040603 -4.33681e-19 0.450929 -0.00712669
-1.89735e-19 0.489963 -0.0828774 1.73472e-18 0.542765 -0.126957 6.07153e-18 0.622462 -0.170439 -4.33681e-19
0.726684 -0.205127 -1.73472e-18 0.863041 -0.209791 -8.67362e-19 0.961967 -0.139908 -6.50521e-18 0.994189
-0.024323 -2.81893e-18 0.437742 -0.0453903 6.72205e-18 0.428845 -0.00815866 1.51788e-18 0.466632 -0.0932405
3.46945e-18 0.518762 -0.144499 -4.33681e-19 0.600121 -0.197354 -7.80626e-18 0.712074 -0.242294 -8.67362e-19
0.864168 -0.247973 0 0.972887 -0.157895 -1.73472e-18 0.997759 -0.0250331 1.6263e-18 0.412766
-0.0497983 1.34441e-17 0.40441 -0.00916756 2.43945e-18 0.440073 -0.10301 2.60209e-18 0.490285 -0.16181
-1.30104e-18 0.571708 -0.225882 -2.60209e-18 0.690989 -0.284816 -1.56125e-17 0.859416 -0.292426 0
0.981268 -0.176454 -2.60209e-18 1.00187 -0.0242832 4.22839e-18 0.385465 -0.0536121 5.42101e-18 0.377892