# vtk DataFile Version 2.0
sampleSurface
ASCII
DATASET POLYDATA
POINTS 1819 float
-0.00735155 5e-05 0 -0.0075 5e-05 0 -0.0075 0 0 -0.00735155 0
0 -0.0072031 5e-05 0 -0.0072031 0 0 -0.00705465 5e-05 0
-0.00705465 0 0 -0.00690621 5e-05 0 -0.00690621 0 0 -0.00675776
5e-05 0 -0.00675776 0 0 -0.00660944 5e-05 0 -0.00660944 0
0 -0.00646091 5e-05 0 -0.00646091 0 0 -0.0063 0 0
-0.0063 5e-05 0 -0.00735155 0.0001 0 -0.0075 0.0001 0 -0.0072031
0.0001 0 -0.00705465 0.0001 0 -0.00690621 0.0001 0 -0.00675776 0.0001
0 -0.00660944 0.0001 0 -0.00646093 0.0001 0 -0.0063 0.0001 0
-0.00735155 0.00015 0 -0.0075 0.00015 0 -0.0072031 0.00015 0 -0.00705465
0.00015 0 -0.00690621 0.00015 0 -0.00675776 0.00015 0 -0.00660944 0.00015
0 -0.00646096 0.00015 0 -0.0063 0.00015 0 -0.00735155 0.0002 0
-0.0075 0.0002 0 -0.0072031 0.0002 0 -0.00705465 0.0002 0 -0.00690621
0.0002 0 -0.00675776 0.0002 0 -0.00660944 0.0002 0 -0.00646099 0.0002
0 -0.0063 0.0002 0 -0.00735155 0.00025 0 -0.0075 0.00025 0
-0.0072031 0.00025 0 -0.00705465 0.00025 0 -0.00690621 0.00025 0 -0.00675776
0.00025 0 -0.00660943 0.00025 0 -0.00646104 0.00025 0 -0.0063 0.00025
0 -0.00735155 0.0003 0 -0.0075 0.0003 0 -0.0072031 0.0003 0
-0.00705465 0.0003 0 -0.00690621 0.0003 0 -0.00675776 0.0003 0 -0.00660943
0.0003 0 -0.0064611 0.0003 0 -0.0063 0.0003 0 -0.00735155 0.00035
0 -0.0075 0.00035 0 -0.0072031 0.00035 0 -0.00705465 0.00035 0
-0.00690621 0.00035 0 -0.00675776 0.00035 0 -0.00660942 0.00035 0 -0.00646117
0.00035 0 -0.0063 0.00035 0 -0.00735155 0.0004 0 -0.0075 0.0004
0 -0.0072031 0.0004 0 -0.00705465 0.0004 0 -0.00690621 0.0004 0
-0.00675776 0.0004 0 -0.00660942 0.0004 0 -0.00646125 0.0004 0 -0.0063
0.0004 0 -0.00735155 0.00045 0 -0.0075 0.00045 0 -0.0072031 0.00045
0 -0.00705465 0.00045 0 -0.00690621 0.00045 0 -0.00675776 0.00045 0
-0.00660941 0.00045 0 -0.00646134 0.00045 0 -0.0063 0.00045 0 -0.00735155
0.0005 0 -0.0075 0.0005 0 -0.0072031 0.0005 0 -0.00705465 0.0005
0 -0.00690621 0.0005 0 -0.00675776 0.0005 0 -0.0066094 0.0005 0
-0.00646144 0.0005 0 -0.0063 0.0005 0 -0.00735155 0.00055 0 -0.0075
0.00055 0 -0.0072031 0.00055 0 -0.00705465 0.00055 0 -0.00690621 0.00055
0 -0.00675776 0.00055 0 -0.00660939 0.00055 0 -0.00646156 0.00055 0
-0.0063 0.00055 0 -0.00735155 0.0006 0 -0.0075 0.0006 0 -0.0072031
0.0006 0 -0.00705465 0.0006 0 -0.00690621 0.0006 0 -0.00675776 0.0006
0 -0.00660937 0.0006 0 -0.00646169 0.0006 0 -0.0063 0.0006 0
-0.00735155 0.00065 0 -0.0075 0.00065 0 -0.0072031 0.00065 0 -0.00705465
0.00065 0 -0.00690621 0.00065 0 -0.00675776 0.00065 0 -0.00660935 0.00065
0 -0.00646183 0.00065 0 -0.0063 0.00065 0 -0.00735155 0.0007 0
-0.0075 0.0007 0 -0.0072031 0.0007 0 -0.00705465 0.0007 0 -0.00690621
0.0007 0 -0.00675776 0.0007 0 -0.00660935 0.0007 0 -0.00646201 0.0007
0 -0.0063 0.0007 0 -0.00735155 0.00075 0 -0.0075 0.00075 0
-0.0072031 0.00075 0 -0.00705465 0.00075 0 -0.00690621 0.00075 0 -0.00675776
0.00075 0 -0.00660935 0.00075 0 -0.00646127 0.00075 0 -0.0063 0.00075
0 -0.00270423 0.000183339 0 -0.0028 0.000183339 0 -0.0028 0 0
-0.00270424 0 0 -0.002604 0.000183339 0 -0.002604 0 0 -0.00249983
0.000183339 0 -0.00249984 0 0 -0.00239176 0.000183339 0 -0.00239176 0
0 -0.00227966 0.000183339 0 -0.00227966 0 0 -0.0021634 0.000183339 0
-0.0021634 0 0 -0.00204281 0.000183339 0 -0.00204282 0 0 -0.00191774
0.000183339 0 -0.00191775 0 0 -0.00178803 0.000183339 0 -0.00178804 0
0 -0.0016535 0.000183339 0 -0.0016535 0 0 -0.00151397 0.000183339 0
-0.00151397 0 0 -0.00136925 0.000183339 0 -0.00136925 0 0 -0.00121915
0.000183339 0 -0.00121916 0 0 -0.00106348 0.000183339 0 -0.00106349 0
0 -0.000902025 0.000183339 0 -0.000902032 0 0 -0.000734569 0.000183339 0
-0.000734576 0 0 -0.000560891 0.000183339 0 -0.000560898 0 0 -0.00038076
0.000183339 0 -0.000380767 0 0 -0.000193934 0.000183339 0 -0.000193941 0
0 0 0 0 0 0.000183339 0 -0.00270423 0.000353777 0
-0.0028 0.000353777 0 -0.00260399 0.000353777 0 -0.00249983 0.000353777 0 -0.00239175
0.000353777 0 -0.00227965 0.000353777 0 -0.00216339 0.000353777 0 -0.0020428 0.000353777
0 -0.00191773 0.000353777 0 -0.00178802 0.000353777 0 -0.00165349 0.000353777 0
-0.00151395 0.000353777 0 -0.00136924 0.000353777 0 -0.00121914 0.000353777 0 -0.00106347
0.000353777 0 -0.000902011 0.000353777 0 -0.000734555 0.000353777 0 -0.000560877 0.000353777
0 -0.000380745 0.000353777 0 -0.000193919 0.000353777 0 0 0.000353777 0
-0.00270424 0.000512223 0 -0.0028 0.000512223 0 -0.00260399 0.000512223 0 -0.00249982
0.000512223 0 -0.00239174 0.000512223 0 -0.00227964 0.000512223 0 -0.00216338 0.000512223
0 -0.00204279 0.000512223 0 -0.00191772 0.000512223 0 -0.00178801 0.000512223 0
-0.00165348 0.000512223 0 -0.00151394 0.000512223 0 -0.00136922 0.000512223 0 -0.00121913
0.000512223 0 -0.00106346 0.000512223 0 -0.000901998 0.000512223 0 -0.000734542 0.000512223
0 -0.000560863 0.000512223 0 -0.000380731 0.000512223 0 -0.000193905 0.000512223 0
0 0.000512223 0 -0.00270424 0.000659519 0 -0.0028 0.000659519 0 -0.00260398
0.000659519 0 -0.00249981 0.000659519 0 -0.00239173 0.000659519 0 -0.00227963 0.000659519
0 -0.00216337 0.000659519 0 -0.00204278 0.000659519 0 -0.00191771 0.000659519 0
-0.001788 0.000659519 0 -0.00165346 0.000659519 0 -0.00151393 0.000659519 0 -0.00136921
0.000659519 0 -0.00121912 0.000659519 0 -0.00106344 0.000659519 0 -0.000901985 0.000659519
0 -0.000734529 0.000659519 0 -0.00056085 0.000659519 0 -0.000380718 0.000659519 0
-0.000193891 0.000659519 0 0 0.000659519 0 -0.00270425 0.000796451 0 -0.0028
0.000796451 0 -0.00260398 0.000796451 0 -0.0024998 0.000796451 0 -0.00239172 0.000796451
0 -0.00227962 0.000796451 0 -0.00216336 0.000796451 0 -0.00204277 0.000796451 0
-0.0019177 0.000796451 0 -0.00178799 0.000796451 0 -0.00165345 0.000796451 0 -0.00151392
0.000796451 0 -0.0013692 0.000796451 0 -0.0012191 0.000796451 0 -0.00106343 0.000796451
0 -0.000901973 0.000796451 0 -0.000734516 0.000796451 0 -0.000560837 0.000796451 0
-0.000380705 0.000796451 0 -0.000193878 0.000796451 0 0 0.000796451 0 -0.00270426
0.000923748 0 -0.0028 0.000923748 0 -0.00260398 0.000923748 0 -0.0024998 0.000923748
0 -0.00239172 0.000923748 0 -0.00227962 0.000923748 0 -0.00216335 0.000923748 0
-0.00204276 0.000923748 0 -0.00191769 0.000923748 0 -0.00178798 0.000923748 0 -0.00165344
0.000923748 0 -0.00151391 0.000923748 0 -0.00136919 0.000923748 0 -0.00121909 0.000923748
0 -0.00106342 0.000923748 0 -0.000901961 0.000923748 0 -0.000734504 0.000923748 0
-0.000560825 0.000923748 0 -0.000380693 0.000923748 0 -0.000193866 0.000923748 0 0
0.000923748 0 -0.00270427 0.00104209 0 -0.0028 0.00104209 0 -0.00260397 0.00104209
0 -0.00249979 0.00104209 0 -0.00239171 0.00104209 0 -0.00227961 0.00104209 0
-0.00216334 0.00104209 0 -0.00204275 0.00104209 0 -0.00191768 0.00104209 0 -0.00178797
0.00104209 0 -0.00165343 0.00104209 0 -0.0015139 0.00104209 0 -0.00136918 0.00104209
0 -0.00121908 0.00104209 0 -0.00106341 0.00104209 0 -0.00090195 0.00104209 0
-0.000734493 0.00104209 0 -0.000560814 0.00104209 0 -0.000380681 0.00104209 0 -0.000193855
0.00104209 0 0 0.00104209 0 -0.00270428 0.0011521 0 -0.0028 0.0011521
0 -0.00260397 0.0011521 0 -0.00249978 0.0011521 0 -0.0023917 0.0011521 0
-0.0022796 0.0011521 0 -0.00216333 0.0011521 0 -0.00204274 0.0011521 0 -0.00191767
0.0011521 0 -0.00178796 0.0011521 0 -0.00165342 0.0011521 0 -0.00151389 0.0011521
0 -0.00136917 0.0011521 0 -0.00121907 0.0011521 0 -0.0010634 0.0011521 0
-0.000901939 0.0011521 0 -0.000734482 0.0011521 0 -0.000560803 0.0011521 0 -0.000380671
0.0011521 0 -0.000193845 0.0011521 0 0 0.0011521 0 -0.00270429 0.00125437
0 -0.0028 0.00125437 0 -0.00260397 0.00125437 0 -0.00249977 0.00125437 0
-0.00239169 0.00125437 0 -0.00227959 0.00125437 0 -0.00216332 0.00125437 0 -0.00204273
0.00125437 0 -0.00191766 0.00125437 0 -0.00178795 0.00125437 0 -0.00165341 0.00125437
0 -0.00151388 0.00125437 0 -0.00136916 0.00125437 0 -0.00121906 0.00125437 0
-0.00106339 0.00125437 0 -0.000901929 0.00125437 0 -0.000734472 0.00125437 0 -0.000560793
0.00125437 0 -0.000380661 0.00125437 0 -0.000193836 0.00125437 0 0 0.00125437
0 -0.0027043 0.00134945 0 -0.0028 0.00134945 0 -0.00260396 0.00134945 0
-0.00249977 0.00134945 0 -0.00239168 0.00134945 0 -0.00227958 0.00134945 0 -0.00216331
0.00134945 0 -0.00204272 0.00134945 0 -0.00191765 0.00134945 0 -0.00178794 0.00134945
0 -0.0016534 0.00134945 0 -0.00151387 0.00134945 0 -0.00136915 0.00134945 0
-0.00121905 0.00134945 0 -0.00106338 0.00134945 0 -0.00090192 0.00134945 0 -0.000734463
0.00134945 0 -0.000560784 0.00134945 0 -0.000380652 0.00134945 0 -0.000193827 0.00134945
0 0 0.00134945 0 -0.00270432 0.00143783 0 -0.0028 0.00143783 0
-0.00260396 0.00143783 0 -0.00249976 0.00143783 0 -0.00239167 0.00143783 0 -0.00227957
0.00143783 0 -0.0021633 0.00143783 0 -0.00204271 0.00143783 0 -0.00191765 0.00143783
0 -0.00178793 0.00143783 0 -0.00165339 0.00143783 0 -0.00151386 0.00143783 0
-0.00136914 0.00143783 0 -0.00121904 0.00143783 0 -0.00106337 0.00143783 0 -0.000901912
0.00143783 0 -0.000734455 0.00143783 0 -0.000560776 0.00143783 0 -0.000380644 0.00143783
0 -0.000193819 0.00143783 0 0 0.00143783 0 -0.00270433 0.00152 0
-0.0028 0.00152 0 -0.00260396 0.00152 0 -0.00249975 0.00152 0 -0.00239167
0.00152 0 -0.00227956 0.00152 0 -0.0021633 0.00152 0 -0.00204271 0.00152
0 -0.00191764 0.00152 0 -0.00178792 0.00152 0 -0.00165339 0.00152 0
-0.00151385 0.00152 0 -0.00136913 0.00152 0 -0.00121904 0.00152 0 -0.00106336
0.00152 0 -0.000901904 0.00152 0 -0.000734448 0.00152 0 -0.000560769 0.00152
0 -0.000380637 0.00152 0 -0.000193812 0.00152 0 0 0.00152 0
-0.00270435 0.00159638 0 -0.0028 0.00159638 0 -0.00260395 0.00159638 0 -0.00249974
0.00159638 0 -0.00239166 0.00159638 0 -0.00227956 0.00159638 0 -0.00216329 0.00159638
0 -0.0020427 0.00159638 0 -0.00191763 0.00159638 0 -0.00178792 0.00159638 0
-0.00165338 0.00159638 0 -0.00151384 0.00159638 0 -0.00136913 0.00159638 0 -0.00121903
0.00159638 0 -0.00106336 0.00159638 0 -0.000901898 0.00159638 0 -0.000734441 0.00159638
[...]
POINT_DATA 1819
FIELD attributes 2
p 1 1819 float
0.00317546 -0.0477308 -0.0402791 0.0028865 0.0528117 0.0524432 0.0946446 0.0941597 0.122918 0.122371 0.124947
0.124446 0.0966387 0.0965048 0.0526031 0.0529203 0.0280574 0.0276936 0.0037285 -0.0460201 0.0532267
0.095033 0.123262 0.125014 0.095789 0.0508066 0.0256445 0.00439392 -0.0445119 0.0533558 0.094822
0.122814 0.123991 0.0933532 0.0470567 0.0214948 0.00531256 -0.0425513 0.053535 0.0945431 0.122232
0.122584 0.0898772 0.0417079 0.0156048 0.00642885 -0.0401401 0.0536945 0.0940992 0.121366 0.12057
0.0850836 0.0344551 0.00767112 0.007675 -0.0373345 0.0537459 0.0933663 0.120026 0.117653 0.0785991
0.0248925 -0.00274637 0.00898136 -0.0342096 0.0536045 0.0922244 0.118007 0.113478 0.0699956 0.0127059
-0.0158499 0.010273 -0.030853 0.0531816 0.0905432 0.115075 0.107668 0.0588994 -0.00236824 -0.0318699
0.0114715 -0.0273614 0.0523835 0.088169 0.111017 0.100031 0.0453163 -0.0201237 -0.050558 0.0124997
-0.0238352 0.0511242 0.0849439 0.10567 0.0908139 0.0300258 -0.0395138 -0.0707775 0.0132905 -0.0203733
0.0493492 0.0807761 0.0989651 0.0807016 0.0147677 -0.0584553 -0.0904665 0.0138003 -0.0170646 0.0470499
0.0756768 0.0910049 0.0704453 0.00181962 -0.0742207 -0.107448 0.0140116 -0.0139823 0.0442499 0.0697239
0.0819949 0.0602974 -0.00809404 -0.0893293 -0.12828 0.0139216 -0.0111797 0.0409881 0.0630477 0.0721772
0.0498427 -0.0172235 -0.108844 -0.160007 0.0134338 -0.00795473 0.0364361 0.0542031 0.0596746 0.0366921
-0.027481 -0.114373 -0.169055 4.42909 4.43269 4.43546 4.43227 4.42011 4.4234 4.40543
4.40884 4.38481 4.38829 4.35865 4.36223 4.32759 4.33122 4.29275 4.2964 4.25543
4.25903 4.217 4.22048 4.1788 4.1821 4.14204 4.1451 4.10773 4.11052 4.07665
4.07915 4.04934 4.05154 4.02612 4.02804 4.00717 4.00884 3.99253 3.99399 3.98225
3.98356 3.97659 3.9778 3.97614 3.97513 4.42086 4.42427 4.41173 4.39683 4.37595
4.3495 4.31821 4.28326 4.246 4.20781 4.17004 4.13387 4.10027 4.06997 4.04344
4.02097 4.00268 3.98859 3.97871 3.9733 3.97182 4.40803 4.41149 4.39874 4.38356
4.36226 4.33538 4.30374 4.26865 4.2315 4.19374 4.15668 4.12146 4.08898 4.05989
4.03458 4.01327 3.996 3.98274 3.97349 3.96842 3.96702 4.39002 4.39357 4.38054
4.36503 4.34323 4.31591 4.28397 4.24886 4.21208 4.17508 4.13915 4.10535 4.07447
4.04706 4.0234 4.00362 3.98769 3.97552 3.96705 3.96244 3.96116 4.3668 4.37043
4.35715 4.34133 4.31909 4.29141 4.25934 4.22451 4.18847 4.15266 4.11833 4.08643
4.05762 4.0323 4.01067 3.99272 3.97838 3.96748 3.95994 3.95585 3.9547 4.33787
4.34155 4.32815 4.31214 4.28962 4.26184 4.22998 4.19588 4.1611 4.12705 4.09488
4.06539 4.0391 4.01628 3.99698 3.98112 3.96855 3.95906 3.95252 3.94899 3.94801
4.30239 4.30603 4.2928 4.27686 4.25442 4.22698 4.19592 4.1632 4.13036 4.09875
4.06936 4.04283 4.01951 3.99954 3.98284 3.96926 3.95858 3.95058 3.9451 3.94217
3.94135 4.25922 4.26268 4.25011 4.23473 4.21298 4.18663 4.1572 4.12674 4.0967
4.0683 4.04235 4.01931 3.99938 3.98255 3.96865 3.95748 3.94878 3.94231 3.93791
3.93557 3.93492 4.20683 4.20983 4.19884 4.18483 4.16476 4.14059 4.11394 4.08682
4.06058 4.03623 4.0144 3.99536 3.97917 3.96571 3.95476 3.94606 3.93936 3.93443
3.9311 3.92935 3.92886 4.14314 4.14523 4.13735 4.12607 4.10919 4.08874 4.06633
4.04388 4.02253 4.00312 3.98605 3.97146 3.95929 3.94936 3.94141 3.9352 3.93049
3.92706 3.92477 3.92358 3.92326 4.06538 4.06576 4.06363 4.05723 4.04574 4.03107
4.01473 3.99845 3.98317 3.96954 3.95781 3.94803 3.94008 3.93375 3.92881 3.92505
3.92226 3.92027 3.91897 3.91831 3.91814 3.96975 3.96696 3.9752 3.97702 3.97403
3.96778 3.95965 3.95117 3.94312 3.93605 3.93015 3.92543 3.92179 3.91907 3.91709
3.91569 3.91474 3.91411 3.91374 3.91357 3.91354 3.85105 3.84232 3.86915 3.88417
3.8939 3.89933 3.90181 3.90278 3.90305 3.9032 3.90347 3.90396 3.90464 3.90546
3.90632 3.90717 3.90794 3.90857 3.90906 3.90935 3.90944 3.70196 3.68185 3.74217
3.77761 3.8056 3.82645 3.84207 3.85408 3.86361 3.87146 3.87812 3.88383 3.88876
3.89298 3.89655 3.8995 3.90185 3.90365 3.90492 3.90562 3.90582 3.51207 3.46977
3.5909 3.65662 3.70985 3.75019 3.78147 3.80589 3.8254 3.84127 3.85436 3.86522
3.87424 3.88169 3.88777 3.89265 3.89646 3.89931 3.90128 3.90236 3.90266 3.26595
3.1799 3.41246 3.52107 3.60797 3.67189 3.72113 3.75903 3.78897 3.81295 3.83238
3.84821 3.8611 3.87156 3.87996 3.8866 3.89173 3.89552 3.89812 3.89952 3.89991
2.94027 2.76918 3.20523 3.37159 3.50191 3.59329 3.6622 3.71425 3.75476 3.78675
3.8123 3.83283 3.84933 3.86256 3.87307 3.8813 3.8876 3.89223 3.89538 3.89707
3.89753 2.49578 2.16467 2.96842 3.21092 3.39426 3.51618 3.60577 3.67214 3.7231
3.7628 3.79416 3.81907 3.83889 3.85463 3.86703 3.87668 3.88402 3.88938 3.89302
3.89497 3.8955 1.88111 1.27073 2.70348 3.04539 3.28828 3.44224 3.55277 3.6332
3.69418 3.74118 3.77793 3.80687 3.82971 3.84771 3.8618 3.87269 3.88094 3.88695
3.89101 3.89318 3.89376 1.09815 -3.42479 2.41532 2.89066 3.19222 3.37646 3.5062
3.59937 3.66932 3.72276 3.76423 3.79665 3.82207 3.84198 3.85748 3.86942 3.87843
3.88497 3.88938 3.89173 3.89235 0.0120049 -0.00358389 0.0288223 0.0405139 0.0415717 0.0201065
-0.0328134 -0.0921825 -0.132711 0.00976022 -0.000893799 0.0205883 0.0268517 0.0245422 0.00652787 -0.0315589
-0.0711889 -0.0991987 0.0071649 0.000598304 0.0129717 0.0149984 0.0102367 -0.00526182 -0.032809 -0.0616516
-0.0838622 0.00460473 0.00128474 0.00621423 0.00503354 -0.00143873 -0.0153335 -0.0363926 -0.058899 -0.0778652
0.00196077 0.00121091 0.000319254 -0.00328406 -0.0109931 -0.023866 -0.0412902 -0.0601511 -0.077093 -0.00100195
0.000349478 -0.00478276 -0.0102699 -0.0188963 -0.0311835 -0.0466146 -0.0634013 -0.0790027 -0.00372369 -0.00063692
-0.00911135 -0.0161123 -0.0254895 -0.0375578 -0.0519869 -0.0676949 -0.0825403 -0.00585472 -0.00134516 -0.0127131
-0.0209394 -0.0309919 -0.0430973 -0.057103 -0.0723279 -0.0867989 -0.00756852 -0.00191219 -0.015676 -0.024918
-0.035598 -0.0479096 -0.0618435 -0.0769637 -0.0913377 -0.00893463 -0.0023725 -0.0180851 -0.0281797 -0.0394398
-0.0520518 -0.0661148 -0.0813621 -0.0958275 -0.0100123 -0.00274644 -0.0200213 -0.0308284 -0.0426156 -0.055572
-0.0698701 -0.0853757 -0.100047 -0.0108483 -0.00304789 -0.0215522 -0.0329456 -0.045204 -0.058528 -0.0731112
-0.0889065 -0.103819 -0.0114728 -0.0032844 -0.022719 -0.0345679 -0.0472082 -0.0608742 -0.0757161 -0.0916452
-0.106773 -0.0119001 -0.00346022 -0.0235439 -0.0357257 -0.0486593 -0.0627067 -0.0779554 -0.0936956 -0.109163
-0.0120656 -0.00434466 -0.0238734 -0.036196 -0.0492629 -0.0635391 -0.0790901 -0.094724 -0.111317 -0.142012
-0.16079 -0.137553 -0.149817 -0.135863 -0.143864 -0.136769 -0.142184 -0.139576 -0.143181 -0.143951
-0.146232 -0.149686 -0.150965 -0.156637 -0.157132 -0.164704 -0.164565 -0.173817 -0.173147 -0.18393
-0.182803 -0.195014 -0.193482 -0.207056 -0.205154 -0.220051 -0.217807 -0.234003 -0.231436 -0.248917
-0.246042 -0.264802 -0.261631 -0.281664 -0.278207 -0.299503 -0.295771 -0.318307 -0.314308 -0.33803
-0.333779 -0.358563 -0.354087 -0.379683 -0.375045 -0.400997 -0.396323 -0.421946 -0.417436 -0.441937
-0.437832 -0.460697 -0.457157 -0.478896 -0.475784 -0.498982 -0.495605 -0.52626 -0.521109 -0.569916
-0.560391 -0.642629 -0.625746 -0.766605 -0.737433 -0.973459 -0.924205 -1.29502 -1.21715 -1.75846
-1.64384 -2.37077 -2.2161 -3.09963 -2.91166 -3.86025 -3.65857 -4.53022 -4.34478 -4.99943
-4.86151 -5.22183 -5.14993 -5.23403 -5.22294 -5.13581 -5.15964 -5.03858 -5.06723 -5.02312
-5.03592 -5.13544 -5.13129 -5.39894 -5.36661 -6.68048 -6.78565 -4.76643 -0.113342 -0.118535
-0.122866 -0.127662 -0.133218 -0.139615 -0.146879 -0.155019 -0.164035 -0.173928 -0.1847 -0.196355
-0.208907 -0.222368 -0.236751 -0.25207 -0.26834 -0.285575 -0.303779 -0.322939 -0.343002 -0.363826
-0.385129 -0.40645 -0.427183 -0.446786 -0.465217 -0.48358 -0.504965 -0.535764 -0.587404 -0.670887
-0.813676 -1.0552 -1.42491 -1.94997 -2.62906 -3.41321 -4.19666 -4.8399 -5.23166 -5.34679
-5.2559 -5.09151 -4.97928 -4.98573 -5.11829 -5.40672 -6.05889 -4.00563 -0.0981469 -0.106696
-0.113986 -0.121112 -0.128504 -0.136357 -0.144785 -0.153863 -0.163643 -0.174164 -0.185461 -0.197563
-0.2105 -0.2243 -0.238989 -0.254596 -0.271146 -0.28866 -0.307147 -0.326593 -0.346934 -0.36802
-0.389572 -0.411167 -0.432302 -0.452609 -0.472262 -0.492629 -0.517175 -0.553048 -0.613073 -0.709793
-0.877909 -1.15629 -1.57716 -2.16569 -2.91141 -3.7476 -4.54637 -5.15438 -5.46564 -5.47419
-5.27722 -5.04191 -4.91175 -4.93583 -5.08326 -5.31743 -5.34191 -3.18545 -0.0915768 -0.101209
-0.109762 -0.118142 -0.12668 -0.135538 -0.144831 -0.154647 -0.165054 -0.17611 -0.187866 -0.200366
-0.213653 -0.227766 -0.242747 -0.258637 -0.27547 -0.293274 -0.312064 -0.33184 -0.352558 -0.374109
-0.396281 -0.41876 -0.441192 -0.463372 -0.485665 -0.509695 -0.53939 -0.582494 -0.652144 -0.76829
-0.963433 -1.27579 -1.74152 -2.38173 -3.17791 -4.04833 -4.84672 -5.41139 -5.64639 -5.56345
-5.28381 -4.99938 -4.85867 -4.88589 -5.00267 -5.07227 -4.57304 -2.43759 -0.0903059 -0.100317
-0.10943 -0.118435 -0.127605 -0.137072 -0.146935 -0.157275 -0.168161 -0.179655 -0.191815 -0.204695
-0.218345 -0.232815 -0.248157 -0.264416 -0.28164 -0.299868 -0.31914 -0.339479 -0.360882 -0.383295
-0.406582 -0.430534 -0.45496 -0.479897 -0.506033 -0.535397 -0.572425 -0.625456 -0.708459 -0.843139
-1.0606 -1.39778 -1.88975 -2.5536 -3.36561 -4.23603 -5.0116 -5.53094 -5.70965 -5.57511
-5.2628 -4.9671 -4.81955 -4.80902 -4.81325 -4.63379 -3.75242 -1.78646 -0.0917773 -0.101884
-0.111255 -0.120614 -0.130191 -0.140092 -0.150397 -0.161175 -0.172494 -0.184414 -0.196995 -0.210298
-0.224381 -0.239303 -0.255124 -0.271905 -0.289707 -0.308595 -0.32863 -0.34987 -0.372351 -0.396067
-0.420968 -0.446987 -0.47418 -0.502968 -0.534525 -0.571384 -0.618381 -0.683918 -0.781581 -0.931884
-1.1629 -1.50782 -1.99763 -2.64621 -3.42818 -4.25655 -4.98653 -5.46748 -5.62308 -5.48733
-5.19337 -4.91301 -4.74058 -4.63457 -4.47181 -4.04813 -2.96204 -1.25423 -0.0950171 -0.105143
-0.114649 -0.124227 -0.134084 -0.144308 -0.154967 -0.166122 -0.177837 -0.190173 -0.203194 -0.216964
-0.23155 -0.247022 -0.263453 -0.280921 -0.29951 -0.319308 -0.34041 -0.362909 -0.38689 -0.412425
-0.439596 -0.46858 -0.499818 -0.534262 -0.573665 -0.62096 -0.680956 -0.761229 -0.873376 -1.03454
-1.26793 -1.60079 -2.05829 -2.6511 -3.35647 -4.09996 -4.7588 -5.20355 -5.36415 -5.26721
-5.02343 -4.76368 -4.5458 -4.32615 -4.0087 -3.42093 -2.2968 -0.861462 -0.0990904 -0.109221
-0.118823 -0.128573 -0.138661 -0.149164 -0.160144 -0.171657 -0.183764 -0.196529 -0.21002 -0.224309
-0.239471 -0.255591 -0.272759 -0.291075 -0.310648 -0.331603 -0.354076 -0.378216 -0.40419 -0.432205
-0.462562 -0.495793 -0.532837 -0.57527 -0.625411 -0.686295 -0.762229 -0.858982 -0.984599 -1.15134
-1.37628 -1.68002 -2.0818 -2.58962 -3.18549 -3.81209 -4.3751 -4.77281 -4.94372 -4.89973
-4.71689 -4.48196 -4.22882 -3.92754 -3.51254 -2.85186 -1.78995 -0.591898 -0.10355 -0.113702
-0.123394 -0.133302 -0.1436 -0.154362 -0.165643 -0.177501 -0.189998 -0.2032 -0.217181 -0.232022
-0.247812 -0.26465 -0.282647 -0.30193 -0.322645 -0.344957 -0.369065 -0.395203 -0.423661 -0.454839
-0.489335 -0.528135 -0.572747 -0.62535 -0.688723 -0.765535 -0.859681 -0.97427 -1.11204 -1.27974
-1.48812 -1.75185 -2.08602 -2.49789 -2.97545 -3.47784 -3.93714 -4.27805 -4.44962 -4.45113
-4.32605 -4.12381 -3.86221 -3.52419 -3.06526 -2.39001 -1.42242 -0.408425 -0.108042 -0.118233
-0.128023 -0.138088 -0.148591 -0.159601 -0.171173 -0.183367 -0.196245 -0.209881 -0.224356 -0.239759
-0.256195 -0.273781 -0.29265 -0.31296 -0.334897 -0.35868 -0.384582 -0.412944 -0.444206 -0.479002
-0.51828 -0.563462 -0.616615 -0.680543 -0.758474 -0.853222 -0.966352 -1.09741 -1.24559 -1.4113
-1.59919 -1.81938 -2.0851 -2.4055 -2.7757 -3.16899 -3.53765 -3.82611 -3.99237 -4.0263
-3.94691 -3.77711 -3.52352 -3.17583 -2.70257 -2.03843 -1.15969 -0.279229 -0.11231 -0.122551
-0.132449 -0.142675 -0.15338 -0.164628 -0.176478 -0.188989 -0.202231 -0.216281 -0.231227 -0.247172
-0.264232 -0.282543 -0.302259 -0.323566 -0.34669 -0.371907 -0.399566 -0.43011 -0.464134 -0.502499
-0.546459 -0.597805 -0.6591 -0.733625 -0.824897 -0.935776 -1.06517 -1.21003 -1.36623 -1.52897
-1.69775 -1.87917 -2.08557 -2.32871 -2.61086 -2.91734 -3.21554 -3.46328 -3.62403 -3.68029
-3.63337 -3.48903 -3.24689 -2.89936 -2.42397 -1.77923 -0.972204 -0.185432 -0.116166 -0.126486
-0.136511 -0.146905 -0.157804 -0.169274 -0.181375 -0.194172 -0.207736 -0.222152 -0.237512 -0.25393
-0.271534 -0.290475 -0.310926 -0.333094 -0.357234 -0.383673 -0.412813 -0.445178 -0.481498 -0.522789
-0.570503 -0.626716 -0.694254 -0.776552 -0.876997 -0.997605 -1.13716 -1.29083 -1.4513 -1.61125
-1.7673 -1.92328 -2.08973 -2.27861 -2.49625 -2.73696 -2.98031 -3.19501 -3.34891 -3.4191
-3.39407 -3.268 -3.03579 -2.69083 -2.21789 -1.59376 -0.841072 -0.118293 -0.11935 -0.129841
-0.14002 -0.150575 -0.161644 -0.173298 -0.185604 -0.198627 -0.212449 -0.227153 -0.242831 -0.259606
-0.277613 -0.297009 -0.317982 -0.340757 -0.365615 -0.392905 -0.423066 -0.456684 -0.494556 -0.537783
-0.587917 -0.647103 -0.718154 -0.804344 -0.908704 -1.03272 -1.1749 -1.33025 -1.49087 -1.64905
-1.80091 -1.9486 -2.09975 -2.26348 -2.44578 -2.64483 -2.84816 -3.03359 -3.17468 -3.24735
-3.23283 -3.11735 -2.89145 -2.54839 -2.07854 -1.47228 -0.757661 -0.0737762 -0.122192 -0.132736
-0.142862 -0.153461 -0.164597 -0.176339 -0.188746 -0.201884 -0.215828 -0.230669 -0.246508 -0.263462
-0.281665 -0.30128 -0.322499 -0.345567 -0.370776 -0.398482 -0.42915 -0.463393 -0.502033 -0.546193
-0.597427 -0.657808 -0.729972 -0.81689 -0.921195 -1.04414 -1.18444 -1.33769 -1.4972 -1.65604
-1.81059 -1.96245 -2.1169 -2.2801 -2.4553 -2.63971 -2.82289 -2.98747 -3.11217 -3.17535
-3.1574 -3.04189 -2.81643 -2.47214 -2.00207 -1.40543 -0.711008 -0.0432954 -0.123724 -0.134126
-0.144116 -0.154683 -0.165812 -0.177561 -0.189981 -0.203136 -0.217092 -0.231946 -0.247813 -0.264799
-0.283038 -0.302694 -0.323966 -0.347099 -0.372385 -0.400189 -0.430979 -0.465376 -0.504207 -0.548592
-0.600069 -0.660646 -0.732858 -0.819533 -0.923132 -1.04486 -1.18364 -1.3355 -1.4947 -1.65469
-1.81188 -1.9678 -2.12703 -2.29466 -2.47237 -2.65596 -2.83461 -2.99201 -3.10874 -3.16486
-3.14172 -3.02327 -2.79648 -2.4507 -1.97931 -1.3847 -0.695789 0.021043 0.538386 2.15948
2.7655 3.11383 3.32335 3.46867 3.57226 3.64952 3.70818 3.75345 3.78865 3.81612
3.83754 3.85415 3.86691 3.8765 3.88345 3.88813 3.89062 3.89128 0.414154 1.97323
2.66165 3.04405 3.27605 3.43516 3.54819 3.63202 3.69539 3.74405 3.78171 3.81098
3.83372 3.85131 3.86477 3.87487 3.88217 3.88708 3.88968 3.89038 0.487068 1.85248
2.57324 2.97873 3.23098 3.40303 3.52518 3.61537 3.68327 3.73519 3.77521 3.80619
3.83018 3.84868 3.86279 3.87337 3.88099 3.88612 3.88883 3.88955 0.576013 1.77411
2.49922 2.91937 3.18879 3.37268 3.50344 3.59968 3.67192 3.72693 3.76918 3.80177
3.82693 3.84627 3.86099 3.872 3.87992 3.88525 3.88806 3.8888 0.637259 1.71928
2.43648 2.86634 3.14991 3.34442 3.48317 3.5851 3.6614 3.71932 3.76366 3.79774
3.82397 3.84409 3.85937 3.87077 3.87897 3.88447 3.88737 3.88813 0.683297 1.68081
2.38287 2.81949 3.11455 3.31848 3.46453 3.57172 3.6518 3.71242 3.75867 3.79412
3.82133 3.84214 3.85793 3.86968 3.87812 3.88378 3.88676 3.88755 0.719876 1.65455
2.3374 2.77855 3.08283 3.29504 3.44766 3.55965 3.64319 3.70625 3.75424 3.79093
3.81901 3.84045 3.85667 3.86874 3.87739 3.88319 3.88624 3.88704 0.748092 1.63642
2.29933 2.74329 3.05487 3.27426 3.4327 3.54898 3.63561 3.70086 3.7504 3.78817
3.81702 3.839 3.85561 3.86794 3.87678 3.88269 3.8858 3.88662 0.771028 1.62343
2.26786 2.71343 3.03078 3.25629 3.41977 3.53982 3.62916 3.69631 3.74717 3.78588
3.81538 3.83781 3.85474 3.8673 3.87628 3.88229 3.88545 3.88628 0.791305 1.61398
2.24231 2.68878 3.01066 3.24128 3.40903 3.53227 3.62389 3.69263 3.74459 3.78406
3.81409 3.83689 3.85407 3.8668 3.8759 3.88198 3.88518 3.88603 0.809271 1.60721
2.22232 2.66933 2.9947 3.22946 3.40064 3.52645 3.61988 3.68988 3.74269 3.78274
3.81316 3.83623 3.8536 3.86645 3.87564 3.88178 3.885 3.88585 0.824239 1.60302
2.2081 2.65544 2.98336 3.22118 3.39489 3.52255 3.61727 3.68812 3.74151 3.78194
3.81262 3.83585 3.85333 3.86626 3.8755 3.88167 3.88491 3.88577 0.837583 1.60287
2.20098 2.64822 2.97751 3.21706 3.39217 3.52082 3.6162 3.68747 3.74112 3.7817
3.81248 3.83577 3.85328 3.86624 3.87549 3.88166 3.88491 3.88577 0.852306 1.60765
2.20147 2.64789 2.9772 3.21705 3.39239 3.52115 3.61656 3.68781 3.74142 3.78196
3.81269 3.83594 3.85342 3.86635 3.87558 3.88174 3.88498 3.88585 0.861163 1.61224
2.20434 2.64996 2.97879 3.21832 3.3934 3.52196 3.61719 3.68831 3.7418 3.78225
3.81291 3.83612 3.85355 3.86645 3.87566 3.8818 3.88504 3.88591 
U 3 1819 float
0.343699 -0.0056217 -5.69206e-19 0.32941 -0.000576577 -2.03288e-20 0.330157 -0.000695628 -3.03427e-05 0.344659 -0.0031053
-0.000135451 0.389866 -0.0117292 2.71051e-19 0.390884 -0.00646836 -0.000282145 0.471 -0.0183501 -1.0842e-19
0.471982 -0.0101109 -0.000441028 0.589074 -0.0244619 -8.67362e-19 0.589796 -0.0134401 -0.000586246 0.734541
-0.0276466 2.1684e-18 0.734642 -0.0151709 -0.000661743 0.886274 -0.0237685 -1.84314e-18 0.885638 -0.0130104
-0.000567505 0.988854 -0.0107367 -9.21572e-19 0.988155 -0.00590309 -0.000257488 1.00796 -0.000389545 -1.69914e-05
1.00368 -0.000281949 -3.81165e-20 0.340932 -0.0104923 -8.13152e-20 0.326675 -0.00122032 0 0.386908
-0.0219142 9.75782e-19 0.468075 -0.0343813 -3.25261e-19 0.586877 -0.0461073 -8.67362e-19 0.734215 -0.0522545
-4.33681e-19 0.888198 -0.0449419 6.50521e-19 0.991027 -0.0199367 -1.0842e-18 1.00449 -0.000417624 8.47033e-21
0.336422 -0.0153208 3.25261e-19 0.322317 -0.00183307 -1.89735e-19 0.382042 -0.0320546 5.42101e-19 0.463138
-0.0505281 3.03577e-18 0.583085 -0.0682823 -1.51788e-18 0.733624 -0.0777259 -1.0842e-18 0.891555 -0.0667017
-2.38524e-18 0.994961 -0.0287972 7.58942e-19 1.00524 -0.000299879 2.28699e-20 0.330115 -0.0202063 0
0.316242 -0.00247074 -4.20128e-19 0.375175 -0.0424111 4.66207e-18 0.456031 -0.0672731 2.1684e-19 0.577501
-0.0917076 1.30104e-18 0.732693 -0.105024 4.33681e-19 0.896541 -0.089764 -1.73472e-18 1.00096 -0.0374778
2.81893e-18 1.00636 6.78511e-05 -2.11758e-22 0.322027 -0.0249937 -1.40946e-18 0.30848 -0.00312476 6.77626e-20
0.366261 -0.0526844 1.30104e-18 0.446595 -0.0842505 3.46945e-18 0.569849 -0.116118 -4.77049e-18 0.731155
-0.134072 2.1684e-18 0.903066 -0.113971 -3.03577e-18 1.00909 -0.0455248 -1.0842e-18 1.00794 0.000848211
7.45389e-20 0.312201 -0.0296082 -1.19262e-18 0.29909 -0.00379101 -5.42101e-20 0.355265 -0.0627375 -3.68629e-18
0.434623 -0.101354 3.46945e-18 0.559644 -0.141626 4.33681e-19 0.728132 -0.165259 4.33681e-19 0.910048
-0.139632 -1.12757e-17 1.01878 -0.0527555 -2.38524e-18 1.01001 0.00220379 6.77626e-20 0.300701 -0.0339806
-1.51788e-18 0.288155 -0.00446275 8.13152e-20 0.34216 -0.0724344 -3.25261e-18 0.419828 -0.118455 -4.33681e-19
0.546006 -0.168269 8.67362e-18 0.721386 -0.198892 -3.46945e-18 0.914057 -0.1672 -3.03577e-18 1.02778
-0.0593762 2.1684e-19 1.01245 0.00420533 0 0.287625 -0.0380261 -8.67362e-19 0.27579 -0.00512895
-6.77626e-20 0.326929 -0.081581 -2.81893e-18 0.401839 -0.135259 -4.77049e-18 0.52746 -0.195667 3.46945e-18
0.706719 -0.234718 8.67362e-19 0.908201 -0.197114 4.33681e-18 1.03118 -0.0663513 4.77049e-18 1.01476
0.00666055 -7.86047e-19 0.273106 -0.0416408 -1.19262e-18 0.262139 -0.00577449 -4.33681e-19 0.309598 -0.0899114
-2.1684e-18 0.380292 -0.15122 4.33681e-19 0.502038 -0.222701 8.67362e-19 0.678546 -0.271362 1.73472e-18
0.883012 -0.22956 6.93889e-18 1.02154 -0.075776 5.42101e-18 1.01598 0.00889403 -8.67362e-19 0.25733
-0.0447084 3.25261e-19 0.247389 -0.00638103 4.87891e-19 0.290311 -0.0971003 -8.67362e-19 0.355032 -0.165496
-4.77049e-18 0.468001 -0.247461 -8.67362e-19 0.632236 -0.306146 -8.67362e-19 0.830318 -0.264186 1.73472e-18
0.991227 -0.0909417 -1.56125e-17 1.01461 0.00957835 -2.98156e-19 0.240538 -0.0471186 -1.0842e-18 0.231758
-0.00692868 0 0.269434 -0.102801 -4.77049e-18 0.326419 -0.177013 -1.04083e-17 0.425079 -0.267593
-6.07153e-18 0.567166 -0.335737 -8.67362e-19 0.748198 -0.299864 0 0.935308 -0.115527 -1.12757e-17
1.0085 0.00674781 -8.13152e-20 0.223024 -0.0487969 0 0.215483 -0.00739907 -5.42101e-19 0.247585