/*--------------------------------*- C++ -*----------------------------------*\
  =========                 |
  \\      /  F ield         | OpenFOAM: The Open Source CFD Toolbox
   \\    /   O peration     | Website:  https://openfoam.org
    \\  /    A nd           | Version:  13
     \\/     M anipulation  |
\*---------------------------------------------------------------------------*/
FoamFile
{
    format      ascii;
    class       volScalarField;
    location    "50";
    object      nuTilda;
}
// * * * * * * * * * * * * * * * * * * * * * * * * * * * * * * * * * * * * * //

dimensions      [0 2 -1 0 0 0 0];

internalField   nonuniform List<scalar> 
10720
(
0.0813476
0.0856712
0.0903625
0.0952758
0.100761
0.106811
0.113569
0.120979
0.129053
0.137563
0.146178
0.154594
0.162287
0.168909
0.174042
0.1775
0.179388
0.179979
0.179421
0.177917
0.175475
0.172178
0.168066
0.163352
0.158398
0.153463
0.148557
0.143556
0.138368
0.132986
0.127411
0.12162
0.115583
0.109254
0.102443
0.0950286
0.0859069
0.0757176
0.0532298
0.077189
0.072407
0.0668757
0.0594865
0.0502181
0.0406657
0.0386213
0.0371699
0.0452038
0.0524133
0.0580814
0.0629521
0.0675261
0.0720226
0.0764521
0.0807553
0.0848451
0.0886631
0.0921895
0.0954646
0.0985547
0.101526
0.104425
0.107253
0.109802
0.111838
0.113346
0.114385
0.115038
0.11531
0.115334
0.11514
0.114687
0.113937
0.112835
0.111408
0.109221
0.106864
0.0977182
0.101034
0.100578
0.0997991
0.0987014
0.0975057
0.0961147
0.0945902
0.0930589
0.0915549
0.0901522
0.089219
0.0893813
0.0905404
0.0924141
0.0950952
0.0985955
0.10305
0.108288
0.114185
0.120406
0.126801
0.132924
0.13842
0.142704
0.145115
0.145716
0.144923
0.143043
0.140372
0.137137
0.133504
0.12959
0.125486
0.121276
0.117064
0.11293
0.109189
0.105112
0.102696
0.101494
0.101616
0.101917
0.101729
0.101252
0.1003
0.0984747
0.0961024
0.0928119
0.0890912
0.0851515
0.0811683
0.0772874
0.0735713
0.0701418
0.0670384
0.0643014
0.061945
0.0599716
0.0583583
0.0570879
0.0561402
0.0554919
0.0551163
0.0549899
0.0550617
0.0552591
0.055533
0.0559776
0.0574203
0.0600942
0.0634366
0.0668285
0.0698664
0.0723871
0.0745419
0.0762849
0.0797337
0.0829004
0.122198
0.122043
0.121671
0.121069
0.120352
0.119426
0.118292
0.117005
0.115512
0.113838
0.112
0.109999
0.107868
0.10564
0.10334
0.101044
0.0987297
0.0965803
0.0947905
0.0935486
0.0930444
0.093337
0.0943317
0.0959669
0.0983458
0.10374
0.109883
0.115614
0.120515
0.124417
0.127294
0.129219
0.130329
0.130778
0.130734
0.130214
0.129902
0.127143
0.132866
0.122315
0.122242
0.122179
0.121878
0.12138
0.120679
0.119718
0.118404
0.116772
0.114774
0.112399
0.10971
0.106762
0.103589
0.100288
0.0969
0.0934856
0.0900894
0.0867635
0.0835187
0.0803946
0.0773961
0.074517
0.0716637
0.0687891
0.0659549
0.0632017
0.0605671
0.0580977
0.0558099
0.0540952
0.0538133
0.0547417
0.0564595
0.05864
0.0611762
0.063985
0.0668307
0.0720724
0.129491
0.129399
0.129201
0.128895
0.128519
0.128033
0.127429
0.126728
0.125897
0.124944
0.123865
0.122646
0.121278
0.11976
0.118075
0.116272
0.1143
0.111994
0.109317
0.106338
0.103096
0.0997311
0.0964455
0.093523
0.0911133
0.0895942
0.0892414
0.0903037
0.0944762
0.100082
0.106314
0.112675
0.118824
0.124544
0.129785
0.134439
0.139258
0.141091
0.149529
0.129537
0.129509
0.129454
0.129296
0.129021
0.128636
0.128103
0.127378
0.126469
0.125344
0.123991
0.122424
0.120651
0.118664
0.116499
0.114169
0.111703
0.109131
0.106487
0.103788
0.101061
0.0983133
0.0955404
0.0926579
0.0896004
0.086414
0.0831286
0.0797809
0.0764063
0.0730392
0.0696993
0.0664983
0.0635866
0.0610237
0.0592694
0.0592536
0.0603477
0.0616651
0.0653131
0.133094
0.133034
0.132906
0.132711
0.132471
0.13216
0.131779
0.131335
0.13081
0.130206
0.129517
0.128729
0.127835
0.126824
0.12568
0.124393
0.122934
0.12129
0.119427
0.117309
0.114865
0.112062
0.108884
0.105415
0.101847
0.0983313
0.0949933
0.0919741
0.0898683
0.0888875
0.0909537
0.0952859
0.101315
0.108658
0.116992
0.125928
0.135914
0.144538
0.156367
0.133109
0.133087
0.133037
0.132931
0.132747
0.132504
0.132175
0.131737
0.131188
0.130509
0.129691
0.128741
0.127658
0.126428
0.125067
0.12357
0.121946
0.120202
0.118354
0.116405
0.114372
0.112252
0.110041
0.107669
0.105075
0.102281
0.0993018
0.0961565
0.0928663
0.0894584
0.0859585
0.0823931
0.0787992
0.0752126
0.0717015
0.0684461
0.0656446
0.0633856
0.0632286
0.135108
0.135068
0.134983
0.134856
0.134701
0.134504
0.134265
0.133989
0.133663
0.133288
0.132858
0.132363
0.131799
0.131157
0.130422
0.129584
0.128624
0.127525
0.126251
0.124778
0.123064
0.121077
0.118772
0.116133
0.113222
0.110077
0.106702
0.103134
0.0994789
0.0958505
0.0929307
0.0910962
0.0923092
0.0961507
0.102581
0.111623
0.123804
0.138268
0.155037
0.135107
0.135089
0.135049
0.134978
0.134846
0.134684
0.134469
0.134184
0.133828
0.133388
0.13286
0.132247
0.131548
0.130752
0.129867
0.128887
0.127812
0.126642
0.125383
0.124032
0.122595
0.121064
0.119431
0.11764
0.115638
0.113429
0.111012
0.108392
0.105573
0.102567
0.0993851
0.096044
0.0925601
0.0889503
0.0852284
0.0813799
0.0774423
0.0732202
0.0674335
0.136346
0.136319
0.136262
0.136178
0.136078
0.135953
0.135803
0.135627
0.135417
0.13517
0.134883
0.134549
0.134163
0.133719
0.133207
0.13262
0.131941
0.131159
0.13026
0.129228
0.12803
0.126643
0.125033
0.123178
0.121088
0.118818
0.116394
0.113742
0.110715
0.107262
0.103528
0.0996939
0.0963557
0.0950541
0.0965301
0.101193
0.110403
0.126027
0.147064
0.136334
0.13632
0.13629
0.136242
0.136144
0.136033
0.135888
0.135696
0.135455
0.135158
0.134801
0.134387
0.133916
0.133379
0.132781
0.132116
0.131383
0.130581
0.129712
0.12877
0.127757
0.126665
0.125482
0.124168
0.12268
0.12101
0.119151
0.117094
0.114835
0.112369
0.109695
0.106818
0.103741
0.100471
0.0970087
0.0933185
0.0893021
0.0850031
0.0765715
0.137151
0.137136
0.1371
0.13705
0.136994
0.136924
0.136837
0.136731
0.1366
0.136439
0.136248
0.136021
0.135757
0.13545
0.135094
0.134682
0.134205
0.133652
0.133009
0.132262
0.131389
0.130375
0.129198
0.127848
0.126387
0.124916
0.123428
0.121842
0.120037
0.117879
0.115246
0.112058
0.108233
0.104268
0.101383
0.100567
0.103407
0.113961
0.135217
0.137133
0.137121
0.137098
0.137068
0.136998
0.136922
0.136824
0.136692
0.136526
0.13632
0.136073
0.135787
0.135459
0.135086
0.13467
0.134205
0.133692
0.133127
0.132512
0.131842
0.131116
0.130327
0.129465
0.1285
0.127397
0.12615
0.124746
0.123173
0.121419
0.119474
0.117326
0.11497
0.112398
0.109604
0.106577
0.103286
0.099567
0.0956737
0.0870342
0.137698
0.137691
0.137672
0.13765
0.137628
0.137597
0.137554
0.137494
0.137411
0.137306
0.137176
0.13702
0.136835
0.136619
0.136366
0.136072
0.135729
0.13533
0.134863
0.134321
0.133688
0.132949
0.132104
0.131184
0.130245
0.129315
0.128373
0.127383
0.126295
0.125035
0.123493
0.121541
0.118986
0.115674
0.11182
0.107964
0.105395
0.107707
0.123645
0.137673
0.137661
0.137644
0.137628
0.137582
0.137532
0.137466
0.137376
0.137262
0.137119
0.136947
0.136747
0.136517
0.136253
0.135958
0.135627
0.13526
0.134855
0.134412
0.133926
0.133396
0.132817
0.132181
0.131463
0.13064
0.129703
0.128641
0.127443
0.126096
0.124585
0.122897
0.121019
0.118937
0.116637
0.114097
0.111288
0.108018
0.104615
0.0967255
0.138079
0.138081
0.138076
0.138076
0.138079
0.138076
0.138061
0.13803
0.13798
0.137913
0.137828
0.137725
0.137601
0.137456
0.137286
0.137088
0.136854
0.136579
0.136253
0.135878
0.135458
0.135
0.134502
0.133956
0.13338
0.132782
0.132151
0.131479
0.130747
0.129929
0.12898
0.127823
0.126328
0.124273
0.121436
0.117591
0.113084
0.108914
0.116204
0.138049
0.138036
0.138022
0.138019
0.137992
0.137962
0.13792
0.137861
0.137784
0.137687
0.137568
0.137429
0.137267
0.137081
0.136871
0.136634
0.136369
0.136076
0.135752
0.135396
0.135005
0.134574
0.134097
0.133557
0.132934
0.132222
0.131412
0.130494
0.129455
0.128283
0.126964
0.125483
0.123825
0.121971
0.119894
0.117565
0.114791
0.111897
0.105038
0.13835
0.138358
0.138366
0.138383
0.138404
0.138417
0.138419
0.138407
0.138382
0.138344
0.138295
0.138235
0.138164
0.138083
0.137988
0.137876
0.137744
0.137587
0.137401
0.137197
0.13698
0.136742
0.136472
0.136161
0.135817
0.135443
0.135031
0.134575
0.134069
0.133503
0.132861
0.132115
0.131207
0.13001
0.128318
0.125639
0.121801
0.115232
0.114472
0.138315
0.1383
0.13829
0.138298
0.138288
0.138273
0.138249
0.138212
0.138163
0.138099
0.13802
0.137925
0.137814
0.137684
0.137536
0.137367
0.137177
0.136965
0.136728
0.136466
0.136175
0.135853
0.135492
0.135081
0.134604
0.134057
0.133432
0.132721
0.131914
0.131
0.129965
0.128798
0.127483
0.126001
0.124325
0.122428
0.120127
0.117726
0.111934
0.138544
0.138557
0.138574
0.138605
0.138637
0.13866
0.138673
0.138675
0.138669
0.138657
0.13864
0.138621
0.138602
0.138582
0.138563
0.138538
0.138506
0.13846
0.138394
0.138309
0.138205
0.138081
0.137929
0.13775
0.137548
0.137324
0.137072
0.136786
0.136461
0.136088
0.13566
0.135165
0.134582
0.133854
0.132899
0.131293
0.128854
0.123131
0.117472
0.138506
0.138491
0.138485
0.138503
0.138505
0.138502
0.13849
0.13847
0.138442
0.138403
0.138353
0.138292
0.138218
0.138131
0.138029
0.137912
0.137778
0.137627
0.137456
0.137264
0.137048
0.136806
0.136533
0.136217
0.13585
0.135425
0.134938
0.134383
0.133749
0.13303
0.132214
0.131289
0.130243
0.12906
0.127712
0.126182
0.124295
0.122345
0.117546
0.138685
0.138701
0.138727
0.138768
0.138806
0.138835
0.138856
0.13887
0.138882
0.138893
0.138907
0.138927
0.138954
0.138982
0.13901
0.139029
0.13904
0.139038
0.139021
0.138991
0.138951
0.138898
0.138829
0.138741
0.138637
0.138519
0.138383
0.138228
0.138047
0.137835
0.137584
0.137286
0.136931
0.136489
0.135954
0.135043
0.133697
0.130106
0.122984
0.138647
0.138634
0.138632
0.138659
0.138669
0.138674
0.138671
0.138663
0.138651
0.138631
0.138603
0.138567
0.138522
0.138466
0.138401
0.138323
0.138232
0.138127
0.138006
0.137867
0.137709
0.137529
0.137322
0.13708
0.136795
0.136464
0.136083
0.135645
0.135145
0.134574
0.133926
0.133189
0.132354
0.131407
0.130325
0.129096
0.12756
0.126044
0.122157
0.138792
0.138811
0.138846
0.138893
0.138934
0.138967
0.138995
0.139021
0.13905
0.139082
0.139123
0.13917
0.139218
0.139264
0.139304
0.139337
0.139362
0.139378
0.139383
0.13938
0.139371
0.139356
0.139334
0.139303
0.139263
0.139215
0.139158
0.139092
0.139014
0.138921
0.138808
0.138668
0.138494
0.138263
0.137995
0.137514
0.136783
0.135181
0.128939
0.138758
0.138747
0.13875
0.138783
0.138798
0.138806
0.138809
0.13881
0.138809
0.138804
0.138793
0.138777
0.138754
0.138723
0.138685
0.138637
0.138579
0.13851
0.138427
0.138329
0.138215
0.138082
0.137926
0.137742
0.137522
0.137264
0.136964
0.136619
0.136222
0.135769
0.135252
0.134664
0.133997
0.133241
0.132381
0.131417
0.130238
0.129197
0.126166
0.138882
0.138905
0.138951
0.139001
0.139042
0.139079
0.139113
0.139149
0.139192
0.139239
0.139291
0.139344
0.139394
0.13944
0.139481
0.139516
0.139546
0.13957
0.139587
0.139597
0.139606
0.139612
0.139616
0.139617
0.139614
0.139607
0.139598
0.139586
0.139573
0.139557
0.139535
0.139507
0.139466
0.139395
0.139317
0.139129
0.138711
0.138412
0.134056
0.138854
0.138846
0.138853
0.138888
0.138904
0.138913
0.138918
0.138924
0.138933
0.138939
0.138942
0.138941
0.138936
0.138925
0.138908
0.138884
0.138851
0.138808
0.138754
0.138687
0.138607
0.13851
0.138394
0.138254
0.138085
0.137885
0.137651
0.137379
0.137067
0.136709
0.136302
0.13584
0.135321
0.134744
0.134114
0.13344
0.132633
0.131947
0.129636
0.138968
0.138998
0.139058
0.139105
0.139144
0.139183
0.139222
0.139264
0.139311
0.13936
0.13941
0.139458
0.139504
0.139546
0.139585
0.13962
0.139652
0.139679
0.139703
0.139722
0.13974
0.139758
0.139777
0.139795
0.139813
0.139831
0.139849
0.139868
0.139891
0.139919
0.139951
0.139989
0.140033
0.14007
0.140124
0.140145
0.139918
0.140264
0.137843
0.138945
0.138942
0.138951
0.138987
0.138999
0.139004
0.139008
0.139018
0.139034
0.13905
0.139064
0.139076
0.139086
0.13909
0.13909
0.139083
0.139069
0.139046
0.139014
0.13897
0.138915
0.138845
0.13876
0.138655
0.138526
0.138373
0.138194
0.137986
0.137749
0.137479
0.137178
0.136845
0.136489
0.136114
0.135713
0.135278
0.134731
0.13426
0.13252
0.13906
0.139101
0.13917
0.139209
0.139244
0.139285
0.139322
0.139363
0.139407
0.13945
0.139493
0.139535
0.139575
0.139612
0.139648
0.139682
0.139713
0.139742
0.139769
0.139792
0.139816
0.139841
0.139869
0.139898
0.139929
0.13996
0.139994
0.140031
0.140075
0.140126
0.140186
0.14026
0.14035
0.14045
0.140583
0.140742
0.140666
0.141231
0.140324
0.139038
0.139037
0.13905
0.139085
0.139091
0.139089
0.13909
0.139103
0.139125
0.139149
0.139173
0.139196
0.139216
0.139232
0.139244
0.139249
0.139248
0.139239
0.139222
0.139196
0.139159
0.139111
0.13905
0.138974
0.138879
0.138768
0.138639
0.138493
0.138332
0.138159
0.137974
0.137778
0.137572
0.137349
0.1371
0.136817
0.136442
0.136113
0.134831
0.13916
0.139211
0.139282
0.139311
0.139343
0.139379
0.139412
0.139446
0.139482
0.139517
0.139552
0.139587
0.139621
0.139654
0.139686
0.139717
0.139747
0.139776
0.139804
0.13983
0.139857
0.139887
0.13992
0.139956
0.139994
0.140035
0.140078
0.140126
0.14018
0.140244
0.140319
0.14041
0.140522
0.140653
0.140827
0.14106
0.14111
0.141687
0.141759
0.139133
0.139135
0.139149
0.139185
0.139184
0.139173
0.13917
0.139185
0.139213
0.139244
0.139276
0.139307
0.139335
0.139358
0.139377
0.139389
0.139396
0.139396
0.13939
0.139376
0.139354
0.139323
0.139282
0.13923
0.139167
0.139096
0.139018
0.138936
0.138851
0.138761
0.138666
0.138559
0.138443
0.138311
0.138158
0.137978
0.137726
0.137504
0.136601
0.139264
0.139321
0.139386
0.139408
0.139435
0.139464
0.139489
0.139515
0.139542
0.139569
0.139596
0.139624
0.139652
0.13968
0.139709
0.139737
0.139765
0.139793
0.139821
0.139848
0.139877
0.139908
0.139944
0.139984
0.140027
0.140073
0.140123
0.140177
0.140239
0.140309
0.140391
0.14049
0.140611
0.140755
0.140944
0.141208
0.141351
0.141867
0.142463
0.139229
0.139231
0.139246
0.139285
0.139278
0.13926
0.139253
0.139272
0.139304
0.139339
0.139376
0.139409
0.13944
0.139465
0.139487
0.139503
0.139515
0.139521
0.139522
0.139517
0.139506
0.139488
0.139464
0.139435
0.139402
0.139367
0.139331
0.139294
0.139255
0.139213
0.139164
0.139107
0.139042
0.138967
0.138877
0.138768
0.138611
0.138474
0.137878
0.139364
0.139422
0.139478
0.139496
0.139517
0.139538
0.139555
0.139573
0.139592
0.139611
0.139631
0.139653
0.139675
0.139699
0.139723
0.139747
0.139773
0.139799
0.139826
0.139853
0.139881
0.139913
0.13995
0.139992
0.140038
0.140087
0.140141
0.1402
0.140266
0.14034
0.140426
0.140528
0.140651
0.140797
0.140989
0.141257
0.141461
0.141908
0.142711
0.139322
0.139321
0.139336
0.13938
0.13937
0.139347
0.13934
0.139363
0.139397
0.13943
0.139464
0.139495
0.139521
0.139545
0.139567
0.139585
0.139601
0.139612
0.139619
0.139621
0.139619
0.139612
0.139602
0.13959
0.139577
0.139566
0.139553
0.139539
0.139523
0.139505
0.139481
0.139452
0.139418
0.139379
0.13933
0.139271
0.139181
0.139107
0.138742
0.139454
0.139509
0.139558
0.139572
0.139588
0.139602
0.139612
0.139623
0.139634
0.139647
0.139661
0.139677
0.139694
0.139712
0.139732
0.139753
0.139775
0.139799
0.139824
0.13985
0.139877
0.139908
0.139945
0.139987
0.140034
0.140084
0.14014
0.140202
0.14027
0.140347
0.140435
0.140538
0.14066
0.140805
0.140993
0.141252
0.141488
0.141881
0.142706
0.139409
0.139403
0.139418
0.139467
0.139456
0.139432
0.139429
0.139454
0.139484
0.13951
0.139536
0.139559
0.139581
0.139601
0.139621
0.139638
0.139655
0.139669
0.139681
0.139689
0.139694
0.139696
0.139696
0.139695
0.139695
0.139695
0.139694
0.139692
0.139689
0.139683
0.139675
0.139663
0.139649
0.139631
0.13961
0.139582
0.139536
0.139504
0.139298
0.139531
0.139581
0.139625
0.139637
0.139648
0.139657
0.139661
0.139666
0.139672
0.139678
0.139687
0.139698
0.139711
0.139725
0.139741
0.139758
0.139777
0.139797
0.13982
0.139843
0.139869
0.139898
0.139933
0.139973
0.140019
0.14007
0.140126
0.140189
0.140258
0.140336
0.140425
0.140528
0.140649
0.14079
0.14097
0.141217
0.141466
0.141819
0.142581
0.139487
0.139476
0.139488
0.139541
0.139532
0.13951
0.139513
0.139536
0.139559
0.139577
0.139594
0.139611
0.139626
0.139642
0.139658
0.139674
0.13969
0.139705
0.139718
0.13973
0.13974
0.139747
0.139753
0.139759
0.139765
0.139772
0.139778
0.139783
0.139787
0.139791
0.139792
0.139792
0.13979
0.139787
0.139782
0.139775
0.139758
0.139753
0.139647
0.139595
0.13964
0.139679
0.13969
0.139699
0.139703
0.139703
0.139704
0.139705
0.139708
0.139713
0.13972
0.139729
0.139739
0.139751
0.139764
0.13978
0.139797
0.139816
0.139837
0.13986
0.139886
0.139917
0.139955
0.139999
0.140048
0.140103
0.140165
0.140235
0.140313
0.140401
0.140503
0.140621
0.140759
0.140931
0.141164
0.141415
0.141741
0.142416
0.139555
0.139538
0.139548
0.139602
0.139596
0.139579
0.139586
0.139606
0.139622
0.139633
0.139644
0.139655
0.139666
0.139677
0.139689
0.139702
0.139716
0.139729
0.139743
0.139755
0.139767
0.139777
0.139786
0.139796
0.139806
0.139816
0.139827
0.139836
0.139846
0.139855
0.139863
0.139871
0.139877
0.139883
0.13989
0.139897
0.139898
0.139909
0.139864
0.139647
0.139688
0.139725
0.139735
0.139741
0.139743
0.13974
0.139738
0.139737
0.139738
0.13974
0.139744
0.13975
0.139756
0.139765
0.139774
0.139786
0.139799
0.139815
0.139833
0.139852
0.139875
0.139903
0.139937
0.139977
0.140023
0.140076
0.140136
0.140203
0.14028
0.140368
0.140467
0.140583
0.140716
0.14088
0.1411
0.141346
0.141652
0.142248
0.139612
0.139593
0.1396
0.139652
0.139648
0.139636
0.139646
0.139663
0.139675
0.139683
0.139689
0.139695
0.139701
0.139709
0.139717
0.139726
0.139737
0.139748
0.13976
0.139772
0.139784
0.139795
0.139806
0.139817
0.139829
0.139841
0.139854
0.139867
0.13988
0.139893
0.139905
0.139918
0.13993
0.139943
0.139958
0.139973
0.139987
0.140009
0.140001
0.139691
0.139729
0.139763
0.139772
0.139776
0.139776
0.139772
0.139769
0.139767
0.139767
0.139768
0.13977
0.139773
0.139777
0.139782
0.139789
0.139797
0.139806
0.139818
0.139832
0.139848
0.139867
0.139891
0.13992
0.139956
0.139998
0.140047
0.140104
0.140168
0.140243
0.140327
0.140424
0.140537
0.140666
0.140821
0.141027
0.141266
0.141556
0.142093
0.13966
0.139642
0.139646
0.139693
0.13969
0.139681
0.139692
0.139709
0.139719
0.139725
0.139728
0.139731
0.139734
0.139738
0.139743
0.139749
0.139757
0.139765
0.139775
0.139785
0.139796
0.139806
0.139817
0.139829
0.139841
0.139855
0.139869
0.139883
0.139898
0.139913
0.139929
0.139945
0.139961
0.139979
0.139999
0.140021
0.140043
0.140072
0.140088
0.139728
0.139763
0.139795
0.139803
0.139806
0.139805
0.1398
0.139797
0.139796
0.139795
0.139795
0.139796
0.139797
0.139799
0.139802
0.139806
0.139811
0.139817
0.139826
0.139836
0.139848
0.139863
0.139883
0.139907
0.139938
0.139975
0.140019
0.140071
0.140132
0.140203
0.140284
0.140377
0.140485
0.14061
0.140757
0.14095
0.141179
0.141455
0.141946
0.139703
0.139688
0.13969
0.139729
0.139724
0.139717
0.139728
0.139745
0.139755
0.13976
0.139763
0.139764
0.139765
0.139766
0.139769
0.139772
0.139776
0.139782
0.139789
0.139797
0.139806
0.139815
0.139825
0.139836
0.139848
0.139861
0.139876
0.13989
0.139906
0.139923
0.13994
0.139958
0.139977
0.139998
0.140021
0.140047
0.140075
0.140111
0.14014
0.139761
0.139793
0.139823
0.13983
0.139831
0.139829
0.139825
0.139823
0.139822
0.139821
0.139821
0.139821
0.139821
0.139821
0.139822
0.139824
0.139827
0.139831
0.139836
0.139843
0.139853
0.139864
0.139879
0.139898
0.139923
0.139955
0.139994
0.140041
0.140096
0.140162
0.140239
0.140328
0.140432
0.140551
0.140691
0.14087
0.141088
0.141349
0.141801
0.139743
0.13973
0.139731
0.139762
0.139755
0.139747
0.139757
0.139773
0.139784
0.139789
0.139792
0.139793
0.139793
0.139792
0.139793
0.139794
0.139796
0.139799
0.139804
0.139809
0.139816
0.139823
0.139832
0.139841
0.139852
0.139865
0.139878
0.139893
0.139909
0.139926
0.139944
0.139963
0.139983
0.140006
0.140031
0.14006
0.140092
0.140131
0.14017
0.139792
0.139821
0.139849
0.139853
0.139852
0.13985
0.139847
0.139846
0.139845
0.139844
0.139843
0.139843
0.139842
0.139842
0.139842
0.139842
0.139844
0.139846
0.139849
0.139854
0.13986
0.139868
0.139879
0.139894
0.139914
0.13994
0.139972
0.140013
0.140062
0.140122
0.140194
0.140278
0.140377
0.140491
0.140624
0.140791
0.140996
0.141242
0.141655
0.139779
0.13977
0.13977
0.139793
0.139784
0.139774
0.139783
0.139797
0.139808
0.139814
0.139817
0.139818
0.139817
0.139816
0.139815
0.139815
0.139815
0.139816
0.139818
0.139822
0.139826
0.139832
0.139838
0.139846
0.139856
0.139867
0.139879
0.139893
0.139908
0.139925
0.139943
0.139962
0.139983
0.140006
0.140033
0.140063
0.140097
0.140138
0.140184
0.139821
0.139847
0.139872
0.139873
0.139871
0.139869
0.139867
0.139866
0.139865
0.139864
0.139864
0.139863
0.139862
0.139861
0.13986
0.13986
0.139861
0.139861
0.139863
0.139866
0.13987
0.139875
0.139883
0.139893
0.139908
0.139929
0.139955
0.139989
0.140032
0.140086
0.140151
0.140229
0.140322
0.14043
0.140556
0.140713
0.140905
0.141136
0.141508
0.139813
0.139806
0.139807
0.139824
0.139813
0.139801
0.139807
0.139819
0.139829
0.139836
0.139839
0.13984
0.13984
0.139838
0.139836
0.139835
0.139834
0.139833
0.139834
0.139835
0.139838
0.139841
0.139845
0.139851
0.139859
0.139869
0.139879
0.139892
0.139906
0.139921
0.139939
0.139958
0.139979
0.140002
0.140029
0.14006
0.140095
0.140136
0.140186
0.139849
0.139871
0.139893
0.139891
0.139886
0.139885
0.139884
0.139884
0.139884
0.139883
0.139882
0.139881
0.13988
0.139879
0.139878
0.139878
0.139878
0.139878
0.139879
0.13988
0.139883
0.139886
0.13989
0.139897
0.139908
0.139923
0.139944
0.139971
0.140007
0.140053
0.140111
0.140182
0.140268
0.14037
0.140489
0.140636
0.140817
0.141033
0.141366
0.139845
0.139839
0.13984
0.139852
0.139841
0.139828
0.139831
0.139841
0.139849
0.139855
0.139858
0.13986
0.139859
0.139858
0.139856
0.139854
0.139852
0.13985
0.139849
0.139849
0.13985
0.139851
0.139854
0.139858
0.139864
0.139871
0.13988
0.139891
0.139903
0.139918
0.139934
0.139952
0.139972
0.139995
0.140021
0.140052
0.140087
0.140129
0.140179
0.139876
0.139895
0.139913
0.139907
0.139901
0.1399
0.1399
0.1399
0.1399
0.1399
0.139899
0.139898
0.139897
0.139897
0.139896
0.139896
0.139895
0.139895
0.139895
0.139896
0.139897
0.139899
0.139901
0.139905
0.139912
0.139922
0.139937
0.139958
0.139987
0.140025
0.140075
0.140138
0.140216
0.140311
0.140424
0.140561
0.14073
0.140934
0.141232
0.139873
0.139869
0.139869
0.139877
0.139867
0.139854
0.139855
0.139862
0.139869
0.139873
0.139876
0.139877
0.139877
0.139876
0.139874
0.139871
0.139869
0.139867
0.139865
0.139863
0.139863
0.139863
0.139864
0.139866
0.13987
0.139875
0.139882
0.139891
0.139902
0.139914
0.139929
0.139946
0.139965
0.139986
0.140011
0.140041
0.140076
0.140116
0.140167
0.139901
0.139918
0.139931
0.139922
0.139916
0.139915
0.139915
0.139916
0.139916
0.139915
0.139915
0.139915
0.139914
0.139914
0.139914
0.139913
0.139913
0.139913
0.139913
0.139913
0.139913
0.139914
0.139914
0.139916
0.139919
0.139926
0.139936
0.139951
0.139973
0.140003
0.140044
0.140099
0.140168
0.140255
0.140359
0.140487
0.140646
0.140839
0.141107
0.139899
0.139895
0.139893
0.139899
0.139889
0.139879
0.139879
0.139883
0.139888
0.139891
0.139893
0.139894
0.139893
0.139892
0.13989
0.139888
0.139885
0.139883
0.13988
0.139878
0.139876
0.139875
0.139875
0.139875
0.139877
0.139881
0.139886
0.139893
0.139902
0.139912
0.139925
0.13994
0.139958
0.139977
0.140001
0.14003
0.140062
0.140102
0.140151
0.139925
0.13994
0.139949
0.139937
0.139932
0.139931
0.139931
0.13993
0.13993
0.139929
0.13993
0.139931
0.139931
0.139931
0.139931
0.139931
0.13993
0.13993
0.13993
0.139929
0.139929
0.139929
0.139929
0.139929
0.13993
0.139934
0.13994
0.13995
0.139965
0.139988
0.14002
0.140065
0.140125
0.140202
0.140298
0.140416
0.140564
0.140746
0.140991
0.139922
0.139918
0.139914
0.139917
0.139909
0.1399
0.1399
0.139903
0.139906
0.139908
0.139909
0.139909
0.139908
0.139907
0.139905
0.139903
0.1399
0.139898
0.139895
0.139892
0.13989
0.139888
0.139886
0.139885
0.139886
0.139888
0.139891
0.139896
0.139903
0.139912
0.139923
0.139936
0.139951
0.139969
0.139991
0.140018
0.140049
0.140086
0.140133
0.139946
0.13996
0.139965
0.139953
0.139949
0.139948
0.139946
0.139944
0.139943
0.139943
0.139944
0.139946
0.139946
0.139947
0.139947
0.139947
0.139947
0.139946
0.139946
0.139945
0.139945
0.139945
0.139944
0.139943
0.139943
0.139945
0.139948
0.139953
0.139963
0.139979
0.140003
0.140039
0.140089
0.140155
0.140241
0.140349
0.140485
0.140656
0.14088
0.139943
0.139937
0.139932
0.139932
0.139924
0.139917
0.139918
0.139921
0.139923
0.139923
0.139924
0.139923
0.139922
0.139921
0.139919
0.139917
0.139914
0.139911
0.139909
0.139906
0.139903
0.1399
0.139898
0.139896
0.139895
0.139896
0.139898
0.139901
0.139906
0.139912
0.139921
0.139933
0.139946
0.139962
0.139982
0.140006
0.140035
0.14007
0.140114
0.139965
0.139977
0.13998
0.139967
0.139965
0.139964
0.139961
0.139959
0.139958
0.139958
0.139959
0.13996
0.139961
0.139961
0.139962
0.139962
0.139962
0.139961
0.139961
0.139961
0.13996
0.13996
0.139959
0.139958
0.139957
0.139957
0.139958
0.139961
0.139966
0.139976
0.139993
0.14002
0.140059
0.140115
0.140189
0.140286
0.140409
0.14057
0.140776
0.139959
0.139953
0.139947
0.139944
0.139937
0.139931
0.139933
0.139936
0.139938
0.139938
0.139937
0.139936
0.139935
0.139933
0.139931
0.139929
0.139927
0.139924
0.139921
0.139918
0.139915
0.139912
0.139909
0.139907
0.139905
0.139905
0.139905
0.139906
0.13991
0.139915
0.139922
0.139931
0.139943
0.139957
0.139974
0.139996
0.140022
0.140054
0.140095
0.139979
0.139991
0.139992
0.139981
0.13998
0.139979
0.139976
0.139974
0.139973
0.139973
0.139973
0.139974
0.139974
0.139975
0.139975
0.139976
0.139976
0.139976
0.139975
0.139975
0.139975
0.139974
0.139973
0.139972
0.139971
0.13997
0.13997
0.139971
0.139973
0.139978
0.139989
0.140007
0.140037
0.140082
0.140144
0.140229
0.140339
0.140486
0.140676
0.139973
0.139966
0.13996
0.139956
0.139948
0.139942
0.139944
0.139948
0.13995
0.13995
0.139949
0.139948
0.139946
0.139945
0.139943
0.13994
0.139938
0.139935
0.139933
0.13993
0.139926
0.139923
0.13992
0.139917
0.139915
0.139913
0.139913
0.139913
0.139915
0.139918
0.139923
0.139931
0.13994
0.139952
0.139968
0.139987
0.140011
0.14004
0.140077
0.13999
0.140001
0.140002
0.139992
0.139993
0.139993
0.13999
0.13999
0.139989
0.139988
0.139987
0.139987
0.139987
0.139987
0.139988
0.139988
0.139989
0.139989
0.139989
0.139988
0.139988
0.139988
0.139987
0.139985
0.139984
0.139983
0.139982
0.139982
0.139982
0.139984
0.13999
0.140002
0.140023
0.140057
0.140107
0.140179
0.140275
0.140408
0.140581
0.139984
0.139978
0.139974
0.139967
0.139958
0.139952
0.139953
0.139957
0.139959
0.139959
0.139959
0.139957
0.139956
0.139954
0.139952
0.13995
0.139948
0.139945
0.139942
0.13994
0.139936
0.139933
0.13993
0.139927
0.139924
0.139922
0.13992
0.13992
0.13992
0.139922
0.139926
0.139932
0.13994
0.13995
0.139963
0.13998
0.140001
0.140027
0.14006
0.139999
0.140008
0.140009
0.140002
0.140004
0.140005
0.140004
0.140004
0.140004
0.140002
0.140001
0.14
0.14
0.14
0.14
0.14
0.140001
0.140001
0.140001
0.140001
0.140001
0.14
0.139999
0.139998
0.139996
0.139995
0.139994
0.139993
0.139992
0.139992
0.139994
0.140001
0.140015
0.140039
0.140078
0.140136
0.140218
0.140336
0.140492
0.139994
0.13999
0.139987
0.139979
0.13997
0.139962
0.139961
0.139965
0.139967
0.139967
0.139966
0.139965
0.139964
0.139962
0.139961
0.139959
0.139956
0.139954
0.139951
0.139948
0.139945
0.139942
0.139938
0.139935
0.139932
0.13993
0.139928
0.139926
0.139926
0.139927
0.139929
0.139934
0.13994
0.139948
0.139959
0.139974
0.139992
0.140016
0.140046
0.140008
0.140015
0.140016
0.140013
0.140015
0.140016
0.140016
0.140017
0.140017
0.140016
0.140015
0.140014
0.140013
0.140012
0.140012
0.140012
0.140012
0.140013
0.140013
0.140013
0.140012
0.140012
0.140011
0.140009
0.140008
0.140007
0.140006
0.140004
0.140003
0.140001
0.140001
0.140004
0.140012
0.140028
0.140056
0.140102
0.140169
0.140271
0.140409
0.140004
0.140003
0.140001
0.139992
0.139982
0.139973
0.13997
0.139971
0.139972
0.139972
0.139972
0.139971
0.13997
0.139969
0.139967
0.139965
0.139963
0.139961
0.139958
0.139955
0.139952
0.139949
0.139945
0.139942
0.139939
0.139937
0.139934
0.139932
0.139931
0.139931
0.139933
0.139936
0.139941
0.139948
0.139957
0.13997
0.139985
0.140006
0.140032
0.140019
0.140023
0.140024
0.140024
0.140025
0.140027
0.140028
0.140029
0.140028
0.140027
0.140027
0.140026
0.140025
0.140025
0.140024
0.140024
0.140024
0.140024
0.140024
0.140024
0.140024
0.140023
0.140022
0.140021
0.140019
0.140018
0.140017
0.140015
0.140013
0.140011
0.14001
0.14001
0.140013
0.140022
0.140042
0.140076
0.140129
0.140214
0.140333
0.140017
0.140017
0.140014
0.140006
0.139996
0.139986
0.139979
0.139978
0.139978
0.139977
0.139976
0.139975
0.139974
0.139973
0.139972
0.13997
0.139968
0.139966
0.139963
0.139961
0.139958
0.139954
0.139951
0.139948
0.139945
0.139942
0.13994
0.139938
0.139936
0.139936
0.139937
0.139939
0.139943
0.139948
0.139956
0.139966
0.13998
0.139998
0.140021
0.140031
0.140033
0.140034
0.140035
0.140037
0.140039
0.140039
0.140039
0.140039
0.140038
0.140038
0.140038
0.140037
0.140037
0.140036
0.140035
0.140035
0.140035
0.140035
0.140035
0.140035
0.140034
0.140033
0.140032
0.14003
0.140029
0.140027
0.140026
0.140024
0.140021
0.140019
0.140017
0.140017
0.140022
0.140033
0.140057
0.140097
0.140165
0.140266
0.140031
0.140031
0.140027
0.140019
0.140009
0.139999
0.13999
0.139986
0.139983
0.139981
0.13998
0.139978
0.139977
0.139976
0.139975
0.139974
0.139972
0.13997
0.139967
0.139965
0.139962
0.139959
0.139955
0.139952
0.13995
0.139947
0.139944
0.139942
0.139941
0.13994
0.13994
0.139942
0.139945
0.139949
0.139955
0.139964
0.139976
0.139992
0.140011
0.140044
0.140045
0.140046
0.140046
0.140049
0.14005
0.140051
0.140051
0.14005
0.140049
0.140049
0.140048
0.140048
0.140048
0.140047
0.140047
0.140046
0.140045
0.140045
0.140045
0.140045
0.140045
0.140044
0.140042
0.14004
0.140039
0.140038
0.140036
0.140034
0.140031
0.140028
0.140025
0.140024
0.140024
0.14003
0.140045
0.140073
0.140126
0.140207
0.140044
0.140043
0.140039
0.140031
0.140022
0.140012
0.140002
0.139995
0.13999
0.139987
0.139984
0.139982
0.13998
0.139979
0.139977
0.139976
0.139974
0.139972
0.13997
0.139967
0.139965
0.139961
0.139958
0.139955
0.139953
0.13995
0.139948
0.139946
0.139944
0.139943
0.139943
0.139944
0.139947
0.13995
0.139956
0.139963
0.139973
0.139987
0.140003
0.140057
0.140057