/*--------------------------------*- C++ -*----------------------------------*\
  =========                 |
  \\      /  F ield         | OpenFOAM: The Open Source CFD Toolbox
   \\    /   O peration     | Website:  https://openfoam.org
    \\  /    A nd           | Version:  13
     \\/     M anipulation  |
\*---------------------------------------------------------------------------*/
FoamFile
{
    format      ascii;
    class       volScalarField;
    location    "50";
    object      p;
}
// * * * * * * * * * * * * * * * * * * * * * * * * * * * * * * * * * * * * * //

dimensions      [0 2 -2 0 0 0 0];

internalField   nonuniform List<scalar> 
10720
(
70.7737
9.88986
-62.7974
-137.02
-208.93
-283.663
-352.579
-413.433
-468.392
-514.147
-551.863
-582.348
-605.947
-623.235
-634.589
-639.946
-640.386
-634.529
-623.157
-605.018
-580.999
-550.454
-515.427
-476.833
-437.813
-402.831
-371.01
-339.193
-307.116
-275.074
-243.104
-211.266
-179.62
-148
-116.121
-82.9146
-48.2501
-7.09281
30.7928
129.12
181.057
233.176
279.167
313.892
333.034
338.549
333.437
317.002
292.544
264.995
237.703
211.931
188.398
167.469
148.294
130.717
114.141
98.2325
82.3593
66.4738
50.221
33.7712
17.629
3.9557
-6.171
-14.114
-20.3598
-24.8614
-27.5066
-28.3071
-27.3388
-24.7417
-20.6319
-15.1665
-8.06688
1.10115
16.1955
40.8693
127.905
81.8995
29.2719
-27.9831
-88.1393
-150.953
-213.398
-273.447
-330.241
-382.031
-428.211
-468.432
-502.458
-530.311
-551.99
-567.302
-576.314
-578.569
-574.514
-563.609
-546.316
-522.428
-493.446
-460.434
-426.113
-394.211
-364.318
-333.986
-303.057
-271.911
-240.664
-209.406
-178.221
-146.959
-115.349
-82.3447
-47.8346
-6.72647
30.3651
168.467
206.198
242.529
275.761
302.232
319.08
325.53
321.903
309.233
290.093
267.421
243.57
219.908
197.31
176.283
156.645
138.31
120.961
104.314
87.9249
71.6607
55.2782
38.9093
23.0509
9.36839
-1.22001
-9.68254
-16.4373
-21.4307
-24.5434
-25.7739
-25.206
-22.9755
-19.1914
-13.9939
-7.09505
1.93167
16.9667
40.6502
133.091
92.1614
45.1251
-7.49484
-63.3222
-121.91
-181.643
-240.228
-296.193
-348.36
-395.453
-436.927
-472.439
-501.805
-524.856
-541.531
-551.844
-555.79
-553.465
-544.598
-529.418
-507.992
-481.467
-451.037
-418.979
-388.361
-359.268
-329.801
-299.677
-269.229
-238.579
-207.809
-177.006
-146.035
-114.643
-81.8076
-47.4383
-6.47059
30.3255
169.194
203.038
235.37
264.456
287.33
302.42
309.266
307.767
298.478
283.064
263.598
242.09
219.994
198.304
177.66
158.206
139.899
122.551
105.909
89.6246
73.5111
57.3932
41.3607
25.8559
12.192
1.28904
-7.44075
-14.4055
-19.586
-22.8824
-24.3027
-23.9318
-21.8958
-18.2904
-13.2356
-6.43367
2.54491
17.4974
40.3289
138.827
104.164
63.9461
18.988
-29.0981
-80.3867
-133.378
-186.454
-238.438
-288.154
-334.453
-376.586
-413.956
-446.123
-472.686
-493.396
-508.177
-516.794
-519.101
-514.846
-504.118
-487.072
-464.61
-437.929
-408.991
-380.432
-352.754
-324.563
-295.529
-265.98
-236.08
-205.915
-175.582
-144.969
-113.844
-81.2241
-47.0441
-6.31527
30.2616
169.331
197.811
225.353
250.547
270.683
284.652
291.878
292.017
285.433
273.305
257.188
238.682
219.018
199.126
179.663
160.92
142.968
125.752
109.118
92.8306
76.7311
60.7062
44.8337
29.5154
15.8239
4.6393
-4.37501
-11.6055
-17.0566
-20.6429
-22.3677
-22.3042
-20.5594
-17.2106
-12.3562
-5.69136
3.20553
18.0165
40.0266
136.654
105.942
70.1438
29.971
-13.0685
-59.4206
-107.823
-156.89
-205.732
-253.224
-298.278
-340.081
-377.892
-411.103
-439.215
-461.855
-478.725
-489.521
-494.068
-492.218
-484.028
-469.726
-450.047
-426.118
-399.632
-372.805
-346.338
-319.251
-291.209
-262.517
-233.358
-203.809
-173.971
-143.746
-112.925
-80.562
-46.6261
-6.21732
29.9767
163.725
188.876
213.33
235.816
253.958
267.077
274.575
275.986
271.582
262.189
248.967
233.176
215.823
197.741
179.582
161.716
144.32
127.444
111.026
94.9228
79.0125
63.22
47.6202
32.5759
18.9706
7.61698
-1.62107
-9.06925
-14.7465
-18.5788
-20.5636
-20.7652
-19.2747
-16.152
-11.4741
-4.92902
3.89125
18.5438
39.7169
132.446
105.135
73.1979
37.3715
-0.964277
-42.5003
-86.1005
-130.648
-175.505
-219.678
-262.245
-302.452
-339.534
-372.815
-401.728
-425.782
-444.532
-457.68
-464.959
-466.155
-461.201
-450.247
-433.868
-413.068
-389.317
-364.496
-339.455
-313.598
-286.643
-258.871
-230.485
-201.574
-172.244
-142.419
-111.921
-79.846
-46.2017
-6.20433
29.4777
156.557
178.916
200.843
221.175
237.76
250.195
257.861
260.226
257.521
250.352
239.607
226.29
211.204
195.054
178.433
161.725
145.161
128.862
112.845
97.0464
81.3968
65.8637
50.5329
35.74
22.2285
10.7391
1.2889
-6.37479
-12.283
-16.3724
-18.6345
-19.1215
-17.9057
-15.026
-10.5374
-4.12294
4.60738
19.0623
39.3815
126.557
101.911
73.0328
40.6424
6.07922
-31.5191
-71.139
-111.818
-153.136
-194.219
-234.288
-272.684
-308.653
-341.511
-370.648
-395.491
-415.523
-430.336
-439.573
-442.972
-440.42
-432.058
-418.363
-400.224
-378.906
-355.987
-332.364
-307.742
-281.892
-255.062
-227.469
-199.209
-170.402
-140.996
-110.842
-79.0855
-45.7828
-6.29385
28.7852
148.354
168.534
188.468
207.073
222.407
234.256
242
245.076
243.692
238.314
229.641
218.48
205.468
191.182
176.137
160.692
145.097
129.524
114.047
98.6697
83.3761
68.1759
53.1689
38.6664
25.3023
13.7483
4.13196
-3.72192
-9.84471
-14.1789
-16.7064
-17.4662
-16.5131
-13.8671
-9.56324
-3.2823
5.34576
19.5597
39.0191
119.993
97.5729
71.2744
41.8092
10.4766
-23.6795
-59.735
-96.8515
-134.759
-172.722
-210.074
-246.27
-280.629
-312.497
-341.258
-366.313
-387.089
-403.107
-413.983
-419.418
-419.204
-413.411
-402.397
-386.909
-368.025
-347.074
-324.957
-301.622
-276.915
-251.06
-224.284
-196.699
-168.437
-139.471
-109.688
-78.2827
-45.3714
-6.48455
27.9042
139.866
158.247
176.529
193.697
208.001
219.334
227.077
230.68
230.318
226.374
219.415
210.105
198.951
186.417
172.937
158.818
144.308
129.597
114.794
99.9559
85.1121
70.3113
55.6698
41.4793
28.2943
16.7238
6.97326
-1.05404
-7.37961
-11.9473
-14.7299
-15.7535
-15.0583
-12.6464
-8.53408
-2.40106
6.1015
20.0246
38.6198
113.134
92.5768
68.451
41.4534
12.8531
-18.3494
-51.3148
-85.2889
-120.126
-155.184
-189.913
-223.876
-256.465
-287.08
-315.136
-340.028
-361.157
-378.01
-390.129
-397.193
-398.91
-395.302
-386.641
-373.547
-356.93
-337.894
-317.296
-295.259
-271.71
-246.852
-220.917
-194.034
-166.347
-137.851
-108.467
-77.4469
-44.9721
-6.77358
26.8366
131.394
148.276
165.174
181.128
194.555
205.418
213.105
217.093
217.521
214.723
209.175
201.433
191.91
180.975
168.985
156.192
142.819
129.054
115.024
100.819
86.5091
72.1739
57.9439
44.0984
31.1314
19.5988
9.7588
1.58799
-4.91721
-9.69882
-12.7203
-13.9951
-13.5504
-11.3718
-7.45829
-1.49008
6.86026
20.4419
38.1673
106.26
87.2953
65.0359
40.1655
13.9184
-14.7185
-44.9654
-76.1398
-108.182
-140.531
-172.738
-204.456
-235.15
-264.304
-291.369
-315.755
-336.878
-354.2
-367.224
-375.608
-379.009
-377.374
-370.884
-360.035
-345.582
-328.427
-309.363
-288.641
-266.264
-242.423
-217.357
-191.21
-164.131
-136.141
-107.19
-76.5912
-44.5938
-7.16175
25.5992
123.144
138.749
154.461
169.373
182.037
192.461
200.056
204.314
205.352
203.471
199.08
192.658
184.549
175.048
164.445
152.939
140.717
127.951
114.769
101.28
87.5783
73.7694
59.9971
46.5298
33.8189
22.3761
12.4931
4.21061
-2.45045
-7.42735
-10.6734
-12.1892
-11.9902
-10.0469
-6.34195
-0.558024
7.61179
20.8023
37.653
99.5256
81.9377
61.2969
38.272
14.0705
-12.3262
-40.1842
-68.881
-98.4063
-128.274
-158.117
-187.67
-216.467
-244.062
-269.965
-293.625
-314.476
-331.981
-345.615
-355.018
-359.813
-359.873
-355.305
-346.496
-334.054
-318.711
-301.173
-281.77
-260.575
-237.774
-213.605
-188.226
-161.794
-134.347
-105.869
-75.7308
-44.2511
-7.65461
24.2063
115.217
129.72
144.403
158.405
170.393
180.406
187.877
192.318
193.826
192.679
189.236
183.922
177.028
168.796
159.461
149.174
138.082
126.332
114.044
101.33
88.2994
75.0734
61.8035
48.7498
36.3348
25.0334
15.1562
6.79802
0.0075232
-5.14418
-8.59971
-10.3461
-10.3874
-8.68027
-5.19262
0.3886
8.34998
21.1043
37.0773
93.0203
76.6403
57.4212
36.0176
13.6072
-10.8169
-36.5605
-63.047
-90.308
-117.911
-145.557
-173.044
-199.976
-225.977
-250.611
-273.374
-293.737
-311.178
-325.166
-335.32
-341.255
-342.771
-339.907
-332.95
-322.378
-308.772
-292.741
-274.659
-254.654
-232.911
-209.667
-185.089
-159.342
-132.477
-104.511
-74.8764
-43.9537
-8.25313
22.675
107.67
121.21
134.986
148.18
159.563
169.186
176.511
181.067
182.934
182.374
179.709
175.322
169.468
162.349
154.157
145.002
134.996
124.255
112.883
100.985
88.6747
76.0803
63.3544
50.7512
38.6707
27.5594
17.7363
9.33987
2.44784
-2.85732
-6.50647
-8.47256
-8.74811
-7.27735
-4.01436
1.34716
9.07416
21.3522
36.448
86.7994
71.4861
53.5274
33.56
12.7335
-9.9418
-33.8057
-58.3166
-83.5387
-109.087
-134.706
-160.254
-185.391
-209.804
-233.117
-254.878
-274.598
-291.779
-305.906
-316.574
-323.411
-326.148
-324.767
-319.467
-310.613
-298.651
-284.096
-267.327
-248.515
-227.846
-205.552
-181.806
-156.779
-130.537
-103.121
-74.0339
-43.7068
-8.95408
21.0143
100.524
113.216
126.178
138.651
149.483
158.739
165.902
170.517
172.656
172.566
170.54
166.928
161.961
155.811
148.638
140.52
131.538
121.779
111.324
100.264
88.7082
76.7828
64.6388
52.5217
40.8138
29.9386
20.2172
11.8218
4.85832
-0.576767
-4.40201
-6.57557
-7.07796
-5.84221
-2.80946
2.31758
9.78568
21.5522
35.7755
80.8881
66.5267
49.695
31.0111
11.596
-9.5181
-31.7026
-54.4419
-77.8269
-101.506
-125.265
-149.003
-172.435
-195.299
-217.28
-237.975
-256.938
-273.706
-287.786
-298.763
-306.283
-310.026
-309.922
-306.093
-298.805
-288.391
-275.266
-259.794
-242.173
-222.588
-201.264
-178.379
-154.105
-128.523
-101.698
-73.2013
-43.5064
-9.74661
19.2383
93.785
105.716
117.948
129.767
140.097
149
155.99
160.625
162.965
163.251
161.749
158.786
154.573
149.264
142.993
135.816
127.786
118.965
109.41
99.1928
88.4112
77.1832
65.653
54.0545
42.7547
32.1588
22.5854
14.2311
7.22812
1.68836
-2.29372
-4.66123
-5.3817
-4.37857
-1.58022
3.29893
10.4857
21.7105
35.0699
75.2963
61.7921
45.9754
28.4473
10.2985
-9.41525
-30.0884
-51.2346
-72.9576
-94.9357
-116.988
-139.049
-160.875
-182.256
-202.919
-222.517
-240.647
-256.886
-270.772
-281.888
-289.893
-294.444
-295.421
-292.881
-287.006
-278.033
-266.281
-252.082
-235.643
-217.147
-196.81
-174.809
-151.32
-126.434
-100.239
-72.3731
-43.3451
-10.6213
17.3627
87.4469
98.6914
110.259
121.485
131.348
139.913
146.723
151.344
153.832
154.415
153.346
150.924
147.354
142.772
137.296
130.965
123.81
115.872
107.185
97.8005
87.7997
77.2878
66.3963
55.3444
44.4852
34.2088
24.8275
16.5548
9.54576
3.92838
-0.189686
-2.73605
-3.66477
-2.89061
-0.329737
4.28972
11.1737
21.8313
34.3384
70.0237
57.2981
42.4018
25.9217
8.91504
-9.53217
-28.8397
-48.5459
-68.762
-89.1913
-109.682
-130.193
-150.517
-170.483
-189.866
-208.361
-225.615
-241.241
-254.813
-265.923
-274.242
-279.422
-281.298
-279.873
-275.262
-267.617
-257.172
-244.211
-228.939
-211.531
-192.191
-171.096
-148.421
-124.264
-98.7376
-71.5406
-43.2131
-11.563
15.4126
81.4971
92.1178
103.078
113.759
123.187
131.427
138.052
142.635
145.225
146.046
145.331
143.364
140.34
136.386
131.606
126.03
119.674
112.557
104.695
96.1211
86.8954
77.1067
66.8706
56.3892
46.0004
36.0797
26.9317
18.7804
11.7995
6.13279
1.90133
-0.807347
-1.93324
-1.38341
0.937834
5.28689
11.8487
21.9179
33.5866
65.0658
53.0501
38.9934
23.4698
7.5
-9.79666
-27.8656
-46.2636
-65.1095
-84.129
-103.188
-122.267
-141.191
-159.822
-177.973
-195.382
-211.737
-226.694
-239.858
-250.845
-259.33
-264.98
-267.587
-267.114
-263.62
-257.188
-247.974
-236.208
-222.079
-205.752
-187.416
-167.243
-145.406
-122.012
-97.1892
-70.6981
-43.1054
-12.5601
13.4124
75.919
85.9701
96.3725
106.548
115.568
123.497
129.933
134.457
137.115
138.122
137.699
136.113
133.554
130.142
125.972
121.067
115.432
109.073
101.988
94.1909
85.724
76.6561
67.084
57.1901
47.2962
37.7639
28.8875
20.8959
13.9778
8.2913
3.97039
1.11741
-0.193462
0.137844
2.21829
6.28763
12.5092
21.9738
32.8185
60.4124
49.0481
35.764
21.1147
6.09321
-10.1549
-27.0931
-44.3004
-61.8962
-79.6264
-97.3727
-115.134
-132.757
-150.134
-167.111
-183.462
-198.917
-213.166
-225.854
-236.62
-245.147
-251.124
-254.311
-254.637
-252.12
-246.786
-238.72
-228.098
-215.082
-199.823
-182.492
-163.254
-142.278
-119.676
-95.5905
-69.8402
-43.0167
-13.5976
11.3897
70.6943
80.2213
90.108
99.8128
108.449
116.079
122.323
126.775
129.472
130.625
130.441
129.176
127.014
124.068
120.432
116.12
111.134
105.467
99.1049
92.0458
84.3124
75.954
67.0469
57.7518
48.3724
39.2561
30.6857
22.8904
16.0692
10.393
6.00773
3.0298
1.54748
1.6672
3.50663
7.28825
13.154
22.0024
32.04
56.0509
45.288
32.7157
18.8737
4.72077
-10.5648
-26.4684
-42.5849
-59.0388
-75.5882
-92.1302
-108.675
-125.093
-141.296
-157.159
-172.49
-187.056
-200.58
-212.743
-223.213
-231.679
-237.859
-241.491
-242.477
-240.803
-236.451
-229.447
-219.909
-207.971
-193.76
-177.431
-159.136
-139.04
-117.257
-93.9409
-68.9666
-42.9472
-14.6659
9.36007
65.8047
74.8468
84.2552
93.519
101.79
109.134
115.187
119.553
122.267
123.532
123.545
122.551
120.727
118.185
115.013
111.227
106.82
101.782
96.0881
89.7218
82.6894
75.0209
66.7716
58.0804
49.2308
40.5535
32.3192
24.754
18.0631
12.4273
8.00374
4.92146
3.28228
3.19868
4.79813
8.28557
13.7815
22.0076
31.2561
51.9686
41.7637
29.8506
16.7547
3.40288
-10.9972
-25.9486
-41.0657
-56.471
-71.9369
-87.3705
-102.794
-118.093
-133.2
-148.014
-162.37
-176.067
-188.863
-200.47
-210.583
-218.906
-225.183
-229.139
-230.659
-229.703
-226.221
-220.188
-211.671
-200.767
-187.58
-172.243
-154.897
-135.695
-114.755
-92.2401
-68.0764
-42.8935
-15.7546
7.33262
61.2312
69.8236
78.7852
87.635
95.5607
102.627
108.49
112.763
115.475
116.825
117.001
116.233
114.699
112.506
109.74
106.417
102.528
98.0572
92.975
87.2536
80.8846
73.8803
66.2757
58.1869
49.8753
41.6547
33.7824
26.4781
19.9491
14.3837
9.94812
6.78303
5.00286
4.72543
6.08705
9.27556
14.3909
21.9929
30.4725
48.1513
38.4655
27.1664
14.7635
2.15262
-11.4291
-25.5028
-39.699
-54.1395
-68.6082
-83.0229
-97.4111
-111.675
-125.76
-139.587
-153.016
-165.873
-177.946
-188.977
-198.692
-206.806
-213.088
-217.265
-219.204
-218.851
-216.131
-210.979
-203.414
-193.496
-181.303
-166.945
-150.547
-132.251
-112.176
-90.4899
-67.1696
-42.855
-16.8589
5.30691
56.9569
65.1286
73.6715
82.1308
89.7281
96.5279
102.202
106.375
109.071
110.484
110.792
110.217
108.931
107.041
104.629
101.712
98.2839
94.3248
89.7999
84.6743
78.9275
72.5566
65.5775
58.083
50.3122
42.5611
35.072
28.0556
21.7181
16.2521
11.831
8.60538
6.70102
6.24067
7.36805
10.2548
14.9808
21.9621
29.6949
44.5855
35.3847
24.6579
12.9015
0.978641
-11.8441
-25.1051
-38.4513
-52
-65.5496
-79.0239
-92.457
-105.761
-118.896
-131.798
-144.348
-156.398
-167.763
-178.211
-187.497
-195.351
-201.564
-205.871
-208.129
-208.274
-206.213
-201.852
-195.168
-186.182
-174.948
-161.55
-146.095
-128.713
-109.52
-88.6903
-66.2448
-42.8262
-17.9712
3.28368
52.9629
60.7403
68.8889
76.9804
84.2648
90.8078
96.2962
100.364
103.032
104.489
104.906
104.494
103.421
101.793
99.6911
97.1336
94.1138
90.6127
86.5929
82.0142
76.8468
71.0744
64.696
57.7824
50.5504
43.2762
36.1864
29.481
23.3618
18.0227
13.6422
10.3787
8.36776
7.73681
8.63478
11.2189
15.5504
21.9183
28.9292
41.2573
32.5103
22.3203
11.1685
-0.114507
-12.2307
-24.7373
-37.2953
-50.0204
-62.7192
-75.3247
-87.8734
-100.288
-112.539
-124.576
-136.298
-147.577
-158.253
-168.121
-176.958
-184.515
-190.597
-194.958
-197.448
-197.993
-196.496
-192.838
-186.961
-178.853
-168.538
-156.077
-141.556
-125.091
-106.794
-86.8435
-65.3003
-42.8041
-19.0875
1.26324
49.232
56.6392
64.4166
72.1591
79.1456
85.441
90.7461
94.705
97.3365
98.8237
99.3283
99.0541
98.1652
96.7659
94.9348
92.693
90.0357
86.9441
83.3801
79.3008
74.6694
69.4585
63.6522
57.3016
50.6006
43.8054
37.1263
30.7504
24.8732
19.6869
15.3722
12.0936
9.99444
9.20648
9.88145
12.1642
16.0985
21.8649
28.1804
38.1533
29.833
20.1467
9.56191
-1.12318
-12.5801
-24.3845
-36.2109
-48.171
-60.0832
-71.8841
-83.6141
-95.2032
-106.631
-117.86
-128.803
-139.35
-149.361
-158.655
-167.033
-174.266
-180.17
-184.521
-187.166
-188.027
-187.005
-183.967
-178.825
-171.535
-162.095
-150.541
-136.939
-121.39
-104.001
-84.9498
-64.333
-42.7802
-20.1968
-0.744994
45.7487
52.8067
60.2338
67.6461
74.3473
80.4029
85.5282
89.3764
91.9648
93.4696
94.046
93.8885
93.1584
91.9576
90.3643
88.401
86.0649
83.3385
80.1849
76.5593
72.4204
67.7325
62.4673
56.6575
50.475
44.1559
37.8937
31.8621
26.247
21.2365
17.0119
13.7404
11.5717
10.6414
11.1014
13.0862
16.6243
21.8046
27.4535
35.2601
27.3418
18.1302
8.07809
-2.04612
-12.8873
-24.0356
-35.1802
-46.4301
-57.6114
-68.6662
-79.6362
-90.4599
-101.124
-111.597
-121.808
-131.661
-141.035
-149.769
-157.685
-164.575
-170.264
-174.553
-177.287
-178.389
-177.763
-175.266
-170.785
-164.254
-155.642
-144.963
-132.262
-117.624
-101.148
-83.0124
-63.3399
-42.7492
-21.2895
-2.72903
42.4978
49.2265
56.3219
63.4191
69.8472
75.6718
80.6213
84.3586
86.898
88.4105
89.0445
88.9867
88.3941
87.367
85.9822
84.2644
82.2126
79.8117
77.0259
73.8109
70.1225
65.9186
61.1611
55.8672
50.1868
44.3367
38.4932
32.8157
27.4791
22.6653
18.5528
15.3103
13.0911
12.0338
12.2886
13.9812
17.1267
21.7399
26.7528
32.5655
25.0274
16.2632
6.71286
-2.88513
-13.1483
-23.6832
-34.1917
-44.7793
-55.2807
-65.6427
-75.9069
-86.0188
-95.9713
-105.74
-115.264
-124.462
-133.227
-141.419
-148.876
-155.412
-160.86
-165.044
-167.813
-169.091
-168.788
-166.757
-162.869
-157.034
-149.202
-139.362
-127.539
-113.802
-98.2416
-81.0308
-62.318
-42.7009
-22.3516
-4.67192
39.465
45.8821
52.6624
59.4592
65.6257
71.2275
76.0052
79.632
82.1185
83.6309
84.3111
84.338
83.8649
82.9898
81.7884
80.2868
78.4869
76.3754
73.9191
71.0745
67.7962
64.0377
59.7536
54.9475
49.7502
44.3579
38.9304
33.6125
28.5671
23.9673
19.9874
16.7946
14.5439
13.3755
13.4362
14.8446
17.6048
21.6728
26.082
30.0579
22.8786
14.5383
5.46134
-3.64089
-13.3615
-23.3212
-33.2344
-43.2041
-53.0714
-62.7887
-72.3968
-81.8476
-91.1372
-100.249
-109.129
-117.709
-125.896
-133.564
-140.572
-146.748
-151.936
-155.982
-158.739
-160.138
-160.095
-158.463
-155.1
-149.902
-142.798
-133.758
-122.787
-109.935
-95.288
-79.0097
-61.2639
-42.629
-23.3728
-6.55846
36.6366
42.7584
49.2393
55.7492
61.665
67.0523
71.6623
75.1788
77.6096
79.1157
79.8327
79.9319
79.5625
78.8209
77.7811
76.4709
74.8941
73.04
70.8778
68.3662
65.4595
62.1092
58.2641
53.917
49.1801
44.2308
39.2124
34.2557
29.5101
25.1387
21.309
18.1853
15.9218
14.6587
14.5383
15.6728
18.0577
21.6049
25.4442
27.7257
20.8872
12.9473
4.3187
-4.31695
-13.5261
-22.9453
-32.3017
-41.6926
-50.9685
-60.0846
-69.0824
-77.917
-86.5899
-95.0877
-103.365
-111.364
-119.003
-126.17
-132.738
-138.555
-143.472
-147.355
-150.063
-151.535
-151.696
-150.399
-147.501
-142.88
-136.453
-128.17
-118.02
-106.038
-92.2944
-76.9486
-60.1742
-42.5247
-24.3389
-8.37428
33.9997
39.8416
46.0373
52.2731
57.9482
63.1286
67.5755
70.9828
73.356
74.8508
75.5968
75.7578
75.4794
74.855
73.958
72.8168
71.4376
69.812
67.9124
65.6992
63.1283
60.1504
56.7104
52.7919
48.491
43.967
39.3478
34.7496
30.3086
26.1765
22.5125
19.4753
17.2168
15.8758
15.5884
16.4614
18.4843
21.5375
24.8413
25.5581
19.0426
11.4831
3.27907
-4.91551
-13.6433
-22.5536
-31.3865
-40.2357
-48.9586
-57.5131
-65.9416
-74.2029
-82.3001
-90.2254
-97.9395
-105.392
-112.512
-119.201
-125.344
-130.805
-135.444
-139.145
-141.777
-143.284
-143.598
-142.583
-140.089
-135.99
-130.188
-122.62
-113.258
-102.12
-89.2699
-74.8516
-59.0468
-42.38
-25.2414
-10.1076
31.5428
37.1184
43.0422
49.015
54.4597
59.4405
63.729
67.0284
69.3429
70.8225
71.591
71.8051
71.6063
71.0857
70.3144
69.323
68.1191
66.6966
65.0306
63.0849
60.8167
58.1769
55.1085
51.5882
47.6974
43.5787
39.3455
35.1001
30.9649
27.0796
23.5936
20.6587
18.4222
17.0198
16.5807
17.2068
18.8835
21.4712
24.2751
23.5452
17.3368
10.1383
2.33689
-5.4409
-13.7131
-22.1441
-30.4849
-38.8254
-47.03
-55.0601
-62.9569
-70.6831
-78.244
-85.6348
-92.8218
-99.7624
-106.392
-112.626
-118.361
-123.473
-127.834
-131.341
-133.872
-135.381
-135.809
-135.026
-132.884
-129.252
-124.025
-117.126
-108.515
-98.1968
-86.2205
-72.7209
-57.8785
-42.1881
-26.0692
-11.7472
29.2545
34.5764
40.2405
45.9623
51.1851
55.9731
60.1081
63.3015
65.5566
67.0179
67.8035
68.0634
67.9341
67.5056
66.8461
65.9875
64.9392
63.6968
62.239
60.5322
58.5359
56.2019
53.4732
50.3209
46.8136
43.0786
39.2156
35.3137
31.4821
27.8478
24.5495
21.7303
19.5314
18.0837
17.5093
17.9048
19.2539
21.406
23.7459
21.6775
15.761
8.90588
1.48672
-5.8961
-13.7383
-21.7166
-29.5939
-37.4565
-45.1754
-52.7142
-60.114
-67.3407
-74.4007
-81.2923
-87.9866
-94.4468
-100.616
-106.418
-111.761
-116.535
-120.619
-123.924
-126.339
-127.824
-128.33
-127.736
-125.897
-122.683
-117.981
-111.707
-103.81
-94.2802
-83.1568
-70.5605
-56.6687
-41.9431
-26.8154
-13.2847
27.1245
32.2049
37.6209
43.1015
48.1113
52.7134
56.6988
59.7889
61.9843
63.4249
64.2229
64.5221
64.4546
64.1074
63.5474
62.8068
61.8966
60.8144
59.5417
58.0482
56.2955
54.2377
51.8178
49.0038
45.8531
42.4789
38.9682
35.3982
31.8649
28.4827
25.3787
22.6864
20.5393
19.0622
18.3692
18.5522
19.5942
21.342
23.2539
19.9463
14.3078
7.77913
0.723198
-6.28579
-13.7202
-21.2711
-28.7119
-36.1249
-43.3874
-50.466
-57.4006
-64.1601
-70.7522
-77.1777
-83.4113
-89.421
-95.157
-100.551
-105.521
-109.968
-113.781
-116.88
-119.167
-120.608
-121.163
-120.72
-119.142
-116.298
-112.074
-106.381
-99.157
-90.383
-80.0865
-68.374
-55.4161
-41.6384
-27.4718
-14.7117
25.1431
29.9932
35.1717
40.421
45.2259
49.6485
53.489
56.4778
58.6135
60.0315
60.8385
61.1718
61.1588
60.8839
60.4124
59.7769
58.9894
58.0497
56.9418
55.638
54.1034
52.2937
50.1542
47.6498
44.8288
41.7916
38.614
35.3618
32.1188
28.9866
26.081
23.5244
21.4416
19.9501
19.1556
19.1453
19.9029
21.278
22.7977
18.343
12.9691
6.75171
0.0410644
-6.61283
-13.6615
-20.808
-27.8364
-34.8261
-41.6596
-48.3068
-54.8057
-61.1284
-67.2835
-73.2731
-79.0757
-84.6634
-89.9925
-95.0019
-99.6178
-103.751
-107.3
-110.193
-112.345
-113.727
-114.306
-113.984
-112.627
-110.11
-106.32
-101.164
-94.5725
-86.519
-77.0194
-66.1667
-54.1201
-41.2702
-28.0324
-16.0205
23.3012
27.9315
32.8828
37.9098
42.5178
46.7672
50.467
53.3564
55.4331
56.8268
57.6395
58.0019
58.0372
57.8272
57.4347
56.8929
56.2148
55.4016
54.4401
53.3054
51.9654
50.3786
48.4921
46.27
43.7524
41.0282
38.1633
35.2131
32.25
29.3636
26.6574
24.243
22.2353
20.7435
19.8647
19.6811
20.1782
21.213
22.3761
16.8598
11.7385
5.81742
-0.564526
-6.88168
-13.5643
-20.3281
-26.9676
-33.5575
-39.9877
-46.2295
-52.3201
-58.2336
-63.9801
-69.5626
-74.9623
-80.1551
-85.1026
-89.7493
-94.0298
-97.863
-101.158
-103.848
-105.86
-107.172
-107.758
-107.528
-106.359
-104.131
-100.732
-96.0695
-90.0707
-82.6997
-73.9642
-63.9427
-52.7815
-40.8331
-28.4911
-17.2054
21.5902
26.0106
30.7442
35.5582
39.9763
44.0585
47.6218
50.4142
52.432
53.8002
54.6157
55.0033
55.0813
54.9292
54.6076
54.1495
53.5687
52.8682
52.0368
51.0526
49.886
48.4986
46.8401
44.8744
42.6348
40.1999
37.6265
34.9612
32.2657
29.6181
27.1101
24.842
22.9183
21.4391
20.4932
20.1567
20.4182
21.1449
21.9859
15.4893
10.6086
4.9705
-1.0986
-7.0955
-13.4314
-19.8328
-26.1042
-32.3178
-38.3681
-44.2291
-49.9366
-55.4672
-60.831
-66.0325
-71.0555
-75.8787
-80.4682
-84.7744
-88.7381
-92.2863
-95.3369
-97.8295
-99.7015
-100.935
-101.512
-101.352
-100.342
-98.3673
-95.3217
-91.112
-85.6647
-78.9377
-70.9306
-61.7078
-51.4012
-40.3254
-28.8449
-18.2614
20.0019
24.2215
28.747
33.3559
37.5916
41.5124
44.9433
47.641
49.6005
50.9419
51.7579
52.1666
52.2828
52.1824
51.9243
51.5407
51.047
50.4466
49.7311
48.8804
47.8685
46.6593
45.2057
43.472
41.4858
39.3167
37.0136
34.6152
32.1735
29.7558
27.4426
25.3228
23.49
22.0352
21.0387
20.5701
20.6213
21.0721
21.625
14.2241
9.57354
4.20508
-1.56578
-7.25858
-13.2646
-19.3227
-25.2465
-31.1049
-36.7973
-42.3003
-47.6484
-52.8199
-57.8258
-62.6711
-67.3417
-71.8191
-76.0733
-80.0597
-83.7251
-87.0036
-89.821
-92.1227
-93.8553
-95.0058
-95.5633
-95.4562
-94.5793
-92.8265
-90.0974
-86.302
-81.366
-75.2435
-67.9266
-59.4673
-49.9804
-39.7449
-29.0902
-19.1856
18.5286
22.5563
26.8819
31.2944
35.3544
39.1195
42.422
45.0273
46.9291
48.2429
49.057
49.4837
49.633
49.5789
49.3771
49.0609
48.6444
48.1337
47.5207
46.7893
45.9145
44.8645
43.5947
42.0704
40.3144
38.3884
36.3344
34.1842
31.9813
29.7831
27.6592
25.6874
23.951
22.5309
21.4994
20.9191
20.7855
20.9918
21.2889
13.0573
8.62649
3.51572
-1.97092
-7.37399
-13.0674
-18.7999
-24.3946
-29.9175
-35.2729
-40.439
-45.4497
-50.2846
-54.9553
-59.4673
-63.8087
-67.9628
-71.9031
-75.5898
-78.9751
-81.9989
-84.5946
-86.7133
-88.3099
-89.3757
-89.9052
-89.8354
-89.0702
-87.5119
-85.0668
-81.6488
-77.185
-71.6271
-64.9612
-57.2267
-48.5224
-39.0912
-29.2266
-19.9764
17.163
21.007
25.1413
29.3648
33.256
36.8708
40.0492
42.5643
44.4092
45.6945
46.5046
46.9459
47.1245
47.1111
46.9601
46.7033
46.3564
45.925
45.4038
44.7778
44.0255
43.1172
42.0117
40.6759
39.1282
37.4234
35.5978
33.6771
31.6973
29.7068
27.7651
25.9396
24.3029
22.9265
21.8747
21.2026
20.9095
20.9018
20.9746
11.9827
7.76198
2.89703
-2.3183
-7.44609
-12.8418
-18.2656
-23.549
-28.7545
-33.7922
-38.6417
-43.3355
-47.855
-52.2118
-56.4122
-60.4455
-64.2976
-67.9446
-71.3507
-74.4728
-77.2573
-79.6436
-81.588
-83.0529
-84.0334
-84.5296
-84.4853
-83.8138
-82.4256
-80.2346
-77.1596
-73.1303
-68.0973
-62.0415
-54.9917
-47.0302
-38.3654
-29.2538
-20.6337
15.8978
19.5664
23.5168
27.5591
31.2879
34.758
37.8161
40.2438
42.0324
43.2887
44.0927
44.5456
44.7494
44.7721
44.6662
44.4626
44.1773
43.8167
43.3768
42.8446
42.2011
41.4189
40.4603
39.2936
37.9338
36.4297
34.8124
33.1026
31.3298
29.5343
27.7665
26.0837
24.5486
23.2232
22.1643
21.4195
20.9914
20.7991
20.677
10.9939
6.97377
2.34407
-2.61246
-7.47788
-12.5908
-17.7216
-22.7098
-27.616
-32.354
-36.9055
-41.3015
-45.5251
-49.5883
-53.4973
-57.2428
-60.8128
-64.1857
-67.3295
-70.2053
-72.765
-74.9541
-76.7334
-78.072
-78.9689
-79.428
-79.4
-78.807
-77.5678
-75.6039
-72.8397
-69.209
-64.6617
-59.1753
-52.7685
-45.5079
-37.5699
-29.1742
-21.1592
14.7269
18.2272
22.0018
25.8696
29.4424
32.773
35.715
38.0574
39.7911
41.018
41.8141
42.276
42.5012
42.5555
42.4892
42.3328
42.1022
41.8043
41.4365
40.9876
40.4405
39.7705
38.943
37.9276
36.7369
35.414
33.9859
32.4689
30.887
29.2733
27.6698
26.125
24.6918
23.4235
22.3692
21.5699
21.0302
20.6812
20.3925
10.0852
6.25714
1.85194
-2.8575
-7.47325
-12.3169
-17.1694
-21.8784
-26.5012
-30.9566
-35.2273
-39.3436
-43.2901
-47.0782
-50.7148
-54.1916
-57.4983
-60.6155
-63.5144
-66.1602
-68.5094
-70.5135
-72.1373
-73.3559
-74.1715
-74.5913
-74.5728
-74.0455
-72.937
-71.176
-68.6932
-65.4262
-61.3266
-56.3686
-50.5624
-43.96
-36.708
-28.9905
-21.5554
13.6437
16.9831
20.5888
24.2893
27.7118
30.9081
33.738
35.9978
37.6777
38.8748
39.6618
40.1301
40.3734
40.4552
40.4236
40.3086
40.1262
39.8837
39.5795
39.2043
38.7425
38.1722
37.4611
36.581
35.542
34.3823
33.1253
31.7837
30.3768
28.9315
27.4823
26.0694
24.7371
23.5305
22.4911
21.6537
21.0244
20.545
20.1157
9.25106
5.60653
1.41624
-3.05737
-7.43502
-12.0229
-16.611
-21.0553
-25.4102
-29.5988
-33.6055
-37.459
-41.1453
-44.676
-48.0579
-51.284
-54.3451
-57.2239
-59.8947
-62.326
-64.4788
-66.3098
-67.7877
-68.8928
-69.6305
-70.0105
-69.996
-69.5239
-68.5302
-66.9503
-64.7216
-61.7862
-58.0972
-53.6272
-48.3792
-42.3917
-35.784
-28.7072
-21.8262
12.6426
15.8275
19.2714
22.8108
26.0889
29.1558
31.8773
34.0573
35.6846
36.8522
37.629
38.1016
38.3601
38.4654
38.4641
38.3851
38.2448
38.0508
37.8026
37.4919
37.1055
36.6231
36.0155
35.256
34.3527
33.3396
32.2368
31.0541
29.8068
28.5165
27.211
25.9234
24.69
23.5482
22.5327
21.6723
20.9739
20.3885
19.8432
8.48595
5.01739
1.0325
-3.21575
-7.36672
-11.7108
-16.0479
-20.2416
-24.3431
-28.28
-32.0378
-35.6444
-39.0869
-42.3765
-45.5206
-48.5127
-51.3448
-54.0017
-56.4603
-58.6919
-60.6619
-62.3314
-63.6733
-64.6719
-65.3355
-65.676
-65.6615
-65.2361
-64.343
-62.925
-60.9255
-58.2911
-54.9775
-50.9562
-46.2242
-40.8085
-34.8034
-28.3296
-21.9771
11.7173
14.7542
18.0424
21.4273
24.5664
27.5085
30.1256
32.2282
33.8044
34.9428
35.7087
36.184
36.4551
36.5807
36.6053
36.5576
36.4538
36.3019
36.1023
35.8482
35.5277
35.1228
34.6066
33.9542
33.1722
32.2904
31.326
30.2868
29.1844
28.0357
26.8634
25.6938
24.5564
23.4814
22.4972
21.6271
20.8782
20.209
19.5699
7.7845
4.48434
0.696453
-3.33654
-7.27086
-11.3833
-15.482
-19.4378
-23.2997
-26.999
-30.5226
-33.8973
-37.111
-40.1753
-43.097
-45.8709
-48.49
-50.9406
-53.2017
-55.2481
-57.0482
-58.5679
-59.7831
-60.6825
-61.2762
-61.5778
-61.5607
-61.175
-60.3706
-59.0972
-57.304
-54.9423
-51.9704
-48.3598
-44.1028
-39.2161
-33.7721
-27.8641
-22.014
10.8619
13.7568
16.8957
20.1317
23.1371
25.9591
28.4754
30.5031
32.0297
33.1395
33.894
34.3708
34.6525
34.7954
34.8425
34.8217
34.7492
34.6336
34.476
34.2709
34.0078
33.6706
33.2348
32.6773
32.0031
31.2383
30.3981
29.4878
28.5162
27.4966
26.4468
25.3877
24.3425
23.3353
22.3885
21.5205
20.7379
20.0054
19.2932
7.1414
4.00293
0.403546
-3.4234
-7.15138
-11.0426
-14.9147
-18.645
-22.2801
-25.7552
-29.0584
-32.2151
-35.2147
-38.0679
-40.7821
-43.3526
-45.7735
-48.0323
-50.1104
-51.9849
-53.6277
-55.0086
-56.1067
-56.9139
-57.4422
-57.7069
-57.6852
-57.3333
-56.6073
-55.463
-53.8552
-51.7397
-49.0777
-45.8415
-42.0198
-37.6205
-32.697
-27.3179
-21.9442
10.0711
12.8295
15.8248
18.9177
21.7941
24.5003
26.9191
28.8746
30.353
31.4348
32.1779
32.6552
32.9459
33.104
33.1704
33.1728
33.1274
33.0427
32.921
32.7578
32.5442
32.2659
31.9005
31.4267
30.8477
30.1871
29.4574
28.6625
27.8086
26.906
25.9684
25.012
24.0549
23.1156
22.2109
21.355
20.5536
19.7761
19.0089
6.55182
3.56824
0.149552
-3.48031
-7.011
-10.6917
-14.348
-17.8641
-21.2847
-24.5481
-27.6435
-30.5955
-33.3943
-36.0504
-38.5711
-40.9521
-43.1887
-45.2695
-47.1779
-48.8934
-50.391
-51.6438
-52.6337
-53.3559
-53.8237
-54.0536
-54.0263
-53.7035
-53.0469
-52.0177
-50.5761
-48.6822
-46.3005
-43.4044
-39.98
-36.028
-31.5853
-26.699
-21.7754
9.33982
11.9673
14.8246
17.7795
20.5315
23.1258
25.4503
27.3356
28.7672
29.8216
30.5531
31.0304
31.329
31.5004
31.5839
31.6065
31.5842
31.5259
31.4348
31.3074
31.1362
30.9085
30.6041
30.2034
29.7085
29.1398
28.5083
27.8162
27.0678
26.2707
25.4353
24.574
23.7003