/*--------------------------------*- C++ -*----------------------------------*\
  =========                 |
  \\      /  F ield         | OpenFOAM: The Open Source CFD Toolbox
   \\    /   O peration     | Website:  https://openfoam.org
    \\  /    A nd           | Version:  13
     \\/     M anipulation  |
\*---------------------------------------------------------------------------*/
FoamFile
{
    format      ascii;
    class       surfaceScalarField;
    location    "50";
    object      phi;
}
// * * * * * * * * * * * * * * * * * * * * * * * * * * * * * * * * * * * * * //

dimensions      [0 3 -1 0 0 0 0];

internalField   nonuniform List<scalar> 
21254
(
-0.186964
0.207123
-0.0201585
0.229501
-0.0223782
0.249628
-0.0201258
0.26805
-0.0184226
0.285722
-0.017671
0.300595
-0.0148731
0.312995
-0.0123993
0.323574
-0.0105788
0.331479
-0.00790464
0.337607
-0.00612789
0.342168
-0.00456086
0.345065
-0.00289652
0.346799
-0.00173308
0.347365
-0.000565571
0.346433
0.000932054
0.344056
0.00237773
0.339965
0.00409093
0.33427
0.00569593
0.326891
0.00737951
0.318121
0.00877062
0.30776
0.0103621
0.296441
0.0113201
0.28451
0.0119301
0.273256
0.0112523
0.26384
0.00941434
0.255647
0.00819121
0.247624
0.00802242
0.239459
0.00816568
0.230814
0.00864449
0.221581
0.00923276
0.211718
0.00987526
0.201169
0.0105446
0.189853
0.0113208
0.177492
0.0123624
0.163535
0.0139715
0.146925
0.0166119
0.125511
0.0214573
0.0948172
0.0307217
0.0924352
0.00277319
-0.164027
-0.0229371
-0.140002
-0.0240236
-0.111182
-0.0288198
-0.0800317
-0.0311501
-0.0475099
-0.0325222
-0.0144636
-0.033047
0.0175274
-0.0319909
0.0475864
-0.0300581
0.0746142
-0.0270272
0.0979391
-0.0233241
0.117432
-0.0194927
0.133586
-0.0161527
0.146918
-0.0133317
0.157876
-0.0109576
0.167214
-0.00933724
0.175205
-0.00799069
0.182327
-0.00712115
0.188783
-0.00645498
0.194871
-0.00608649
0.200683
-0.00581117
0.206375
-0.0056913
0.21191
-0.00553457
0.217195
-0.00528789
0.221546
-0.00435505
0.224765
-0.00322369
0.227151
-0.00239043
0.228695
-0.00154735
0.229542
-0.000848298
0.229615
-6.89645e-05
0.228831
0.00077465
0.227268
0.00155771
0.22509
0.00217338
0.222399
0.00268361
0.219238
0.0031532
0.215462
0.00376763
0.210668
0.00478211
0.203834
0.00682025
0.190038
0.0139137
0.172038
0.0178229
-0.170617
0.191797
-0.0413376
0.213573
-0.0441545
0.236506
-0.0430584
0.258061
-0.0399772
0.279199
-0.0388087
0.299007
-0.0346805
0.317017
-0.0304093
0.33345
-0.0270119
0.347923
-0.0223771
0.360463
-0.0186677
0.371093
-0.0151902
0.379835
-0.0116382
0.386781
-0.0086784
0.392112
-0.00589564
0.396095
-0.00305116
0.39865
-0.000176186
0.399719
0.00302163
0.399338
0.00607817
0.396947
0.00977122
0.392708
0.0130108
0.38614
0.0169309
0.377406
0.0200546
0.366412
0.022924
0.353691
0.0239724
0.340407
0.0226964
0.327005
0.021592
0.313623
0.0214035
0.30052
0.0212685
0.287575
0.0215909
0.27468
0.0221291
0.261663
0.0229032
0.248358
0.0238481
0.234528
0.0251561
0.219938
0.0269565
0.204165
0.0297592
0.186164
0.0346188
0.164719
0.0429355
0.131094
0.0643625
0.0980411
0.036032
-0.14908
-0.0444736
-0.125973
-0.0471296
-0.0989597
-0.0558332
-0.0704891
-0.0596206
-0.0403637
-0.0626483
-0.00891854
-0.0644923
0.0222234
-0.0631326
0.0508937
-0.0587278
0.0767977
-0.0529304
0.0998258
-0.0463515
0.119786
-0.039452
0.136996
-0.0333625
0.151826
-0.0281613
0.164494
-0.0236248
0.175487
-0.0203294
0.185102
-0.0176044
0.193627
-0.0156453
0.201377
-0.0142036
0.208601
-0.0133099
0.215398
-0.012606
0.221919
-0.0122125
0.228228
-0.0118429
0.234232
-0.0112933
0.239429
-0.0095556
0.243528
-0.00732728
0.246749
-0.00561555
0.24909
-0.00389248
0.250595
-0.00235511
0.251411
-0.000882857
0.251687
0.000489862
0.251382
0.00185833
0.250425
0.00312427
0.248725
0.00437576
0.246281
0.00558868
0.243079
0.00695922
0.238882
0.00896532
0.233807
0.0118819
0.223173
0.0246497
0.204694
0.0361448
-0.166152
0.187862
-0.0630469
0.209893
-0.0661852
0.233748
-0.0669139
0.255716
-0.0619448
0.276828
-0.0599197
0.297181
-0.0550332
0.315517
-0.0487457
0.33221
-0.0437045
0.346833
-0.037
0.359593
-0.0314269
0.370509
-0.026106
0.379725
-0.0208538
0.387079
-0.0160316
0.392945
-0.0117618
0.397012
-0.00711674
0.399823
-0.0029876
0.401198
0.00164801
0.401529
0.00574697
0.400597
0.010704
0.398425
0.0151836
0.39497
0.0203873
0.390126
0.0248989
0.383887
0.0291632
0.376322
0.0315363
0.367863
0.0311532
0.358503
0.0309508
0.348072
0.0318332
0.336648
0.0326926
0.324346
0.0338922
0.311227
0.0352478
0.297418
0.0367197
0.282928
0.0383348
0.267708
0.0403788
0.251573
0.0430915
0.234127
0.0472139
0.21437
0.054375
0.191212
0.0661184
0.1575
0.0980933
0.111573
0.0821486
-0.144385
-0.0662399
-0.120789
-0.0707258
-0.0926872
-0.0839349
-0.0636001
-0.0887084
-0.0333791
-0.0928698
-0.00211847
-0.0957531
0.0285667
-0.0938172
0.0568576
-0.0870181
0.0826261
-0.078698
0.105749
-0.0694735
0.125956
-0.0596584
0.143469
-0.0508749
0.15866
-0.0433521
0.171822
-0.0367868
0.18329
-0.031796
0.19343
-0.0277437
0.202512
-0.0247266
0.210809
-0.0225
0.218526
-0.0210256
0.22582
-0.0198998
0.232875
-0.0192665
0.239686
-0.018654
0.246138
-0.0177469
0.251903
-0.0153245
0.256677
-0.0121053
0.26057
-0.00951305
0.263642
-0.00696759
0.265923
-0.00463801
0.26749
-0.00244718
0.268336
-0.000362742
0.268541
0.0016487
0.268089
0.00357182
0.267
0.00545897
0.265203
0.00737849
0.262616
0.0095398
0.258872
0.0127001
0.253648
0.0170929
0.243357
0.0350178
0.22489
0.0544982
-0.161102
0.183647
-0.0855916
0.206388
-0.0889259
0.231468
-0.0919938
0.254429
-0.0849056
0.276814
-0.0823047
0.298396
-0.076615
0.318291
-0.0686402
0.336387
-0.0618007
0.352838
-0.0534503
0.367413
-0.0460014
0.380224
-0.0389162
0.391256
-0.0318856
0.400524
-0.0252987
0.408039
-0.0192767
0.414064
-0.0131408
0.418345
-0.00726884
0.42101
-0.00101591
0.421806
0.00495141
0.420975
0.0115358
0.418373
0.0177874
0.414114
0.0246473
0.40844
0.0305734
0.401506
0.0360972
0.393839
0.0392023
0.385898
0.0390931
0.377769
0.0390785
0.369119
0.0404824
0.359803
0.0420077
0.349628
0.0440685
0.338375
0.0465017
0.325983
0.0491207
0.312356
0.0519616
0.297443
0.0552974
0.281067
0.059472
0.262934
0.0653592
0.242097
0.0752163
0.21737
0.0908741
0.18277
0.132707
0.132669
0.132371
-0.138807
-0.0885349
-0.115014
-0.0945187
-0.0862004
-0.112749
-0.0567344
-0.118175
-0.0261512
-0.123453
0.0054478
-0.127352
0.036229
-0.124598
0.0644925
-0.115281
0.0900971
-0.104302
0.113108
-0.0924831
0.133263
-0.0798126
0.15086
-0.0684716
0.166311
-0.0588025
0.179866
-0.0503412
0.191869
-0.0437984
0.202544
-0.0384174
0.212216
-0.0343979
0.221061
-0.0313437
0.229318
-0.0292814
0.237122
-0.0277024
0.244582
-0.026726
0.251759
-0.0258299
0.258574
-0.0245638
0.264685
-0.021438
0.269839
-0.0172634
0.274105
-0.0137833
0.277529
-0.010395
0.28016
-0.00727281
0.28204
-0.00432529
0.283219
-0.00154883
0.28374
0.00112243
0.283623
0.00368225
0.282871
0.00620351
0.281472
0.00876882
0.279317
0.0116834
0.276045
0.0159579
0.271133
0.0219903
0.261515
0.0447121
0.243056
0.0728306
-0.158473
0.1819
-0.109018
0.205573
-0.112598
0.232063
-0.118484
0.255815
-0.108657
0.279189
-0.105679
0.301824
-0.0992494
0.322571
-0.089388
0.34159
-0.0808191
0.359116
-0.0709761
0.374543
-0.0614278
0.388232
-0.0526042
0.400113
-0.0437658
0.410424
-0.0356102
0.418859
-0.0277108
0.425557
-0.0198379
0.430537
-0.0122486
0.433862
-0.00434066
0.43558
0.00323463
0.435458
0.0116588
0.43374
0.0195058
0.430287
0.0281016
0.425222
0.0356384
0.418765
0.0425549
0.411299
0.0466671
0.403391
0.0470009
0.395252
0.0472155
0.386766
0.048967
0.377896
0.0508765
0.368531
0.0534327
0.358524
0.0565069
0.347641
0.0600093
0.335617
0.0639838
0.322195
0.0687212
0.307007
0.074658
0.289563
0.08281
0.268923
0.0958535
0.243639
0.116179
0.208388
0.167977
0.157505
0.183392
-0.135149
-0.111859
-0.110642
-0.119026
-0.0806015
-0.14279
-0.0502649
-0.148512
-0.0189053
-0.154813
0.0134058
-0.159663
0.0447398
-0.155931
0.0732718
-0.143812
0.098948
-0.129977
0.121982
-0.115516
0.142107
-0.0999363
0.159725
-0.0860893
0.175317
-0.0743933
0.189095
-0.0641189
0.201401
-0.0561039
0.212512
-0.049527
0.222612
-0.0444979
0.231899
-0.0406297
0.240581
-0.0379623
0.2488
-0.0359203
0.256647
-0.0345726
0.26416
-0.0333432
0.271295
-0.0316995
0.277756
-0.0279012
0.283273
-0.0227847
0.287886
-0.0184008
0.29163
-0.0141434
0.294559
-0.0102042
0.296708
-0.00647221
0.2981
-0.00294581
0.298792
0.000426342
0.29884
0.00363063
0.298238
0.00680002
0.296956
0.0100456
0.294956
0.0136775
0.291869
0.0190361
0.287136
0.0267104
0.278164
0.0537297
0.260161
0.0907635
-0.156585
0.181029
-0.133463
0.205949
-0.137518
0.233783
-0.146317
0.258659
-0.133533
0.282984
-0.130004
0.306857
-0.123122
0.328462
-0.110993
0.348588
-0.100946
0.366952
-0.0893396
0.383414
-0.0778888
0.398206
-0.0673953
0.411148
-0.0567079
0.422432
-0.0468937
0.432032
-0.0373103
0.439806
-0.0276112
0.446029
-0.0184713
0.450364
-0.0086745
0.452881
0.000718934
0.453686
0.010854
0.452591
0.0206019
0.449626
0.0310684
0.444985
0.0402806
0.438801
0.048739
0.431469
0.053999
0.42348
0.0549894
0.415083
0.0556118
0.406237
0.0578115
0.396963
0.06015
0.387274
0.0631207
0.37712
0.0666625
0.366451
0.0706846
0.355043
0.0753936
0.342637
0.0811326
0.328782
0.0885172
0.312812
0.0987909
0.293486
0.115184
0.269066
0.140623
0.23418
0.202878
0.183775
0.233888
-0.132277
-0.136167
-0.10691
-0.144393
-0.0755093
-0.174191
-0.0439901
-0.180032
-0.0115671
-0.187236
0.0217642
-0.192994
0.0539503
-0.188116
0.0829967
-0.172857
0.108943
-0.155922
0.1321
-0.138672
0.152259
-0.120095
0.169856
-0.103685
0.185479
-0.0900159
0.199396
-0.0780355
0.211916
-0.068623
0.223307
-0.0609167
0.23374
-0.0549297
0.243431
-0.0503197
0.25251
-0.0470405
0.261118
-0.0445273
0.269351
-0.0428044
0.277226
-0.0412176
0.284682
-0.0391554
0.291525
-0.0347464
0.297415
-0.028678
0.302352
-0.0233418
0.306427
-0.0182221
0.309633
-0.0134147
0.312027
-0.00886567
0.31363
-0.00455523
0.314494
-0.00044327
0.31465
0.00346903
0.314105
0.0073374
0.312887
0.0112547
0.310858
0.0156942
0.30776
0.0221193
0.302937
0.0315192
0.294286
0.0624268
0.27685
0.108106
-0.155632
0.181384
-0.159215
0.207369
-0.163503
0.236749
-0.175697
0.262862
-0.159646
0.288392
-0.155534
0.313305
-0.148035
0.335999
-0.133686
0.356919
-0.121865
0.376234
-0.108654
0.393541
-0.0951955
0.409079
-0.0829332
0.422967
-0.0705953
0.435081
-0.0590071
0.445479
-0.0477075
0.454201
-0.0363326
0.461077
-0.0253467
0.46625
-0.0138471
0.469586
-0.00261651
0.47111
0.00933081
0.470744
0.0209694
0.468516
0.033297
0.464484
0.0443134
0.458952
0.054272
0.452098
0.0608528
0.444407
0.0626798
0.436097
0.0639199
0.427167
0.0667398
0.417641
0.0696742
0.407593
0.0731669
0.396989
0.0772648
0.385842
0.0818352
0.3741
0.0871341
0.361646
0.0935877
0.348146
0.102015
0.333075
0.113866
0.315214
0.133041
0.292585
0.16327
0.259464
0.236018
0.210478
0.282985
-0.130124
-0.161675
-0.103654
-0.170864
-0.0707737
-0.207073
-0.0379129
-0.212893
-0.00423239
-0.220917
0.0304034
-0.227629
0.0636628
-0.221375
0.0934775
-0.202671
0.119902
-0.182345
0.143351
-0.16212
0.163617
-0.14036
0.181236
-0.121302
0.196878
-0.105658
0.210849
-0.0920059
0.223481
-0.0812543
0.235056
-0.0724909
0.24577
-0.0656426
0.255768
-0.060317
0.265197
-0.0564685
0.274159
-0.0534882
0.282734
-0.0513791
0.290937
-0.0494203
0.298742
-0.0469614
0.305894
-0.0419
0.312166
-0.0349527
0.317482
-0.0286632
0.321869
-0.0226123
0.325378
-0.0169284
0.328017
-0.0115023
0.329841
-0.00638417
0.330862
-0.00146685
0.331145
0.00318173
0.330699
0.00777945
0.32948
0.0124673
0.327455
0.0177148
0.324272
0.0252949
0.31928
0.0364992
0.310706
0.0710226
0.293804
0.124969
-0.155257
0.18234
-0.186297
0.209728
-0.19089
0.240765
-0.206733
0.268065
-0.186946
0.294844
-0.182313
0.320959
-0.17415
0.344618
-0.157346
0.366652
-0.143899
0.386718
-0.12872
0.404861
-0.113338
0.421328
-0.0994002
0.435973
-0.085239
0.448858
-0.071892
0.460094
-0.0589433
0.46961
-0.0458483
0.477359
-0.0330949
0.483354
-0.019841
0.487523
-0.00678476
0.489767
0.00708866
0.49008
0.0206575
0.488525
0.0348527
0.485096
0.0477441
0.480012
0.0593572
0.473609
0.0672564
0.4662
0.0700886
0.458027
0.0720919
0.449137
0.0756289
0.439526
0.0792836
0.429228
0.0834641
0.418293
0.0882004
0.406669
0.0934634
0.394381
0.0994245
0.381337
0.106636
0.367427
0.115929
0.352252
0.129049
0.334962
0.150334
0.313906
0.184346
0.283408
0.266533
0.236888
0.329582
-0.128508
-0.188424
-0.100859
-0.198514
-0.0662569
-0.241675
-0.0318498
-0.247301
0.00329501
-0.256062
0.0393672
-0.263701
0.073926
-0.255933
0.104687
-0.233431
0.131758
-0.209415
0.155635
-0.185996
0.176108
-0.160832
0.193792
-0.138986
0.209455
-0.12132
0.223445
-0.105995
0.236123
-0.0939308
0.247849
-0.0842163
0.258737
-0.0765296
0.268983
-0.070562
0.278691
-0.0661762
0.287969
-0.0627647
0.296852
-0.0602612
0.305393
-0.0579609
0.313525
-0.0550926
0.321039
-0.0494154
0.327671
-0.0415868
0.333343
-0.0343392
0.338073
-0.0273461
0.341891
-0.0207509
0.344795
-0.0144075
0.346824
-0.0084189
0.348036
-0.00268463
0.34844
0.00277082
0.348072
0.00814034
0.346896
0.013633
0.344819
0.01978
0.341547
0.0285519
0.336394
0.0416368
0.327799
0.079641
0.311441
0.141258
-0.155532
0.183992
-0.214757
0.212818
-0.219715
0.245545
-0.23946
0.274214
-0.215615
0.302418
-0.210517
0.329851
-0.201583
0.354678
-0.182172
0.377565
-0.166786
0.398664
-0.149818
0.417576
-0.132249
0.434689
-0.116513
0.450069
-0.100618
0.463727
-0.0855497
0.475684
-0.0708995
0.485932
-0.0560966
0.494487
-0.0416486
0.501214
-0.0265681
0.506072
-0.0116409
0.509013
0.00414764
0.509992
0.0196797
0.509067
0.0357788
0.506266
0.0505467
0.501742
0.0638817
0.495794
0.0732049
0.488741
0.0771409
0.480776
0.0800567
0.47194
0.084463
0.462296
0.0889254
0.451894
0.0938638
0.440714
0.0993772
0.428761
0.105419
0.416011
0.112174
0.402401
0.120245
0.387802
0.130526
0.371985
0.144869
0.354321
0.167993
0.333846
0.204834
0.305831
0.294568
0.26233
0.37318
-0.127311
-0.216645
-0.0983077
-0.227518
-0.0619127
-0.278071
-0.0258977
-0.283316
0.0109149
-0.292875
0.0486151
-0.301401
0.0846907
-0.292008
0.116578
-0.265317
0.14445
-0.237286
0.168889
-0.210434
0.189679
-0.18162
0.207507
-0.156813
0.22322
-0.137032
0.237223
-0.119997
0.249932
-0.106639
0.2617
-0.0959841
0.272735
-0.0875635
0.283154
-0.0809806
0.293086
-0.0761073
0.30263
-0.0723086
0.311833
-0.0694635
0.320659
-0.066786
0.329102
-0.0635367
0.336966
-0.05728
0.343983
-0.0486062
0.35
-0.0403588
0.355077
-0.0324276
0.359185
-0.0248626
0.362378
-0.0176011
0.364649
-0.0106925
0.366036
-0.004076
0.366587
0.00221631
0.366293
0.0084304
0.365153
0.0147675
0.363071
0.0218574
0.359724
0.031893
0.354385
0.0469628
0.345781
0.0882549
0.329966
0.157055
-0.156152
0.186208
-0.244813
0.216573
-0.250079
0.251173
-0.27406
0.281289
-0.245731
0.310779
-0.240006
0.339646
-0.23045
0.36561
-0.208136
0.389586
-0.190762
0.411619
-0.171851
0.43135
-0.15198
0.449249
-0.134411
0.465421
-0.116789
0.479713
-0.0998419
0.492312
-0.0834977
0.503333
-0.0671165
0.512518
-0.0508335
0.519946
-0.033995
0.525484
-0.0171779
0.529152
0.000480398
0.53086
0.0179736
0.530508
0.0361323
0.528319
0.0527372
0.524346
0.0678557
0.51888
0.0786715
0.512169
0.0838525
0.504373
0.0878533
0.495645
0.0931897
0.486023
0.0985468
0.475492
0.104394
0.464144
0.110723
0.451929
0.117637
0.438797
0.125307
0.424698
0.134348
0.409493
0.145733
0.392954
0.161414
0.374481
0.186469
0.353609
0.225721
0.327136
0.321057
0.286519
0.413862
-0.126537
-0.246261
-0.0960642
-0.257991
-0.0577036
-0.316433
-0.0198261
-0.321194
0.0187157
-0.331416
0.0582778
-0.340963
0.095949
-0.329679
0.129124
-0.298492
0.157963
-0.266123
0.183113
-0.235583
0.204318
-0.202823
0.222354
-0.174848
0.238169
-0.152846
0.252188
-0.134014
0.264903
-0.119353
0.276714
-0.107794
0.287805
-0.0986538
0.298347
-0.0915216
0.308479
-0.0862387
0.318246
-0.0820749
0.327667
-0.0788837
0.336798
-0.0759163
0.345559
-0.0722969
0.353756
-0.0654775
0.36112
-0.0559716
0.367517
-0.0467589
0.372918
-0.0378316
0.377361
-0.0293104
0.380827
-0.0210684
0.383338
-0.0132094
0.384939
-0.00568422
0.385619
0.00152878
0.385434
0.0086073
0.384342
0.0158498
0.382233
0.023954
0.378791
0.0353183
0.373331
0.0524066
0.364734
0.0968591
0.349429
0.172308
-0.157265
0.1889
-0.276447
0.220846
-0.282024
0.257367
-0.31058
0.289132
-0.277497
0.320209
-0.271084
0.350527
-0.260767
0.377624
-0.235233
0.402783
-0.21592
0.425807
-0.194875
0.446427
-0.172599
0.465066
-0.153049
0.481824
-0.133547
0.496843
-0.11486
0.510202
-0.0968569
0.521752
-0.0786653
0.531636
-0.0607172
0.539714
-0.0420722
0.545966
-0.0234286
0.550238
-0.00379115
0.552562
0.0156508
0.552874
0.0358219
0.551222
0.05439
0.547791
0.0712881
0.542805
0.0836577
0.536474
0.0901839
0.528971
0.0953565
0.520363
0.101797
0.510718
0.108189
0.500146
0.114964
0.488596
0.122269
0.476123
0.130113
0.462677
0.138752
0.448163
0.14886
0.432427
0.161466
0.41521
0.178632
0.395936
0.205737
0.374145
0.247524
0.348217
0.347003
0.309744
0.452421
-0.12599
-0.277535
-0.0939952
-0.289987
-0.0535531
-0.356875
-0.0137273
-0.361021
0.0267905
-0.371935
0.0682662
-0.382438
0.10774
-0.369152
0.142355
-0.333106
0.172305
-0.296073
0.198251
-0.261528
0.219993
-0.224563
0.23832
-0.193173
0.254292
-0.168818
0.268363
-0.148085
0.281087
-0.132077
0.292894
-0.1196
0.304024
-0.109783
0.314654
-0.102152
0.324892
-0.0964757
0.334834
-0.0920163
0.344511
-0.0885605
0.353897
-0.0853018
0.362929
-0.0813284
0.371466
-0.0740152
0.379184
-0.0636908
0.385933
-0.05351
0.391697
-0.0435991
0.396455
-0.0340725
0.400229
-0.0248408
0.402991
-0.015975
0.404779
-0.00747644
0.40564
0.000661865
0.405551
0.0086938
0.404513
0.016883
0.402385
0.0260785
0.398886
0.03881
0.393281
0.058
0.384701
0.105442
0.36996
0.187041
-0.158632
0.192052
-0.309867
0.225748
-0.31572
0.264298
-0.349129
0.297667
-0.310866
0.33034
-0.303758
0.362218
-0.292646
0.390778
-0.263792
0.41705
-0.242192
0.441115
-0.218939
0.4626
-0.194083
0.482082
-0.17253
0.499642
-0.151107
0.515228
-0.130445
0.529154
-0.110782
0.541401
-0.0909119
0.551903
-0.0712185
0.560573
-0.0507416
0.56739
-0.0302445
0.572285
-0.00868551
0.575236
0.0127018
0.576168
0.0348907
0.575132
0.0554283
0.572245
0.0741764
0.567728
0.0881762
0.561766
0.0961467
0.554527
0.102596
0.54607
0.110254
0.536501
0.117757
0.525846
0.125617
0.514162
0.133951
0.501445
0.142832
0.487662
0.152535
0.472766
0.163756
0.45654
0.177694
0.438731
0.196445
0.418751
0.225718
0.395957
0.270329
0.369811
0.373162
0.332714
0.489565
-0.12571
-0.310457
-0.0919945
-0.323704
-0.0493996
-0.399471
-0.0074749
-0.402946
0.0351123
-0.414522
0.0786719
-0.425998
0.120117
-0.410596
0.156277
-0.369265
0.187453
-0.327248
0.21435
-0.288424
0.236723
-0.246934
0.255432
-0.211882
0.271597
-0.184982
0.285754
-0.16224
0.298494
-0.144816
0.310307
-0.131413
0.321431
-0.120906
0.332102
-0.112822
0.342445
-0.106819
0.352517
-0.102087
0.362367
-0.0984101
0.371971
-0.0949047
0.381305
-0.0906624
0.390156
-0.0828658
0.398222
-0.071758
0.405328
-0.0606168
0.41143
-0.0497039
0.416532
-0.0391779
0.42058
-0.0288911
0.423617
-0.0190177
0.425631
-0.00949819
0.426647
-0.000363218
0.426691
0.00864016
0.425693
0.017871
0.42357
0.0281878
0.42
0.0423636
0.414275
0.0637065
0.405775
0.113939
0.391614
0.201158
-0.160407
0.195555
-0.345014
0.231102
-0.351266
0.2718
-0.389827
0.307001
-0.346068
0.34141
-0.338166
0.374914
-0.32615
0.404871
-0.293749
0.432446
-0.269767
0.457551
-0.244043
0.479986
-0.216518
0.500268
-0.192811
0.518525
-0.169364
0.534868
-0.146788
0.54944
-0.125354
0.562248
-0.103719
0.573287
-0.0822566
0.582561
-0.0600154
0.589998
-0.0376804
0.595492
-0.0141787
0.59896
0.00923586
0.600467
0.0333843
0.599965
0.0559312
0.597601
0.0765423
0.593594
0.0921843
0.588095
0.101647
0.581138
0.109553
0.57288
0.118511
0.563369
0.127267
0.552678
0.136305
0.54087
0.145755
0.527943
0.155761
0.51385
0.166627
0.498536
0.179067
0.481827
0.194401
0.463457
0.214813
0.442847
0.246321
0.419207
0.293978
0.392501
0.399886
0.35619
0.525942
-0.12559
-0.345274
-0.0901877
-0.359106
-0.0452278
-0.444431
-0.00109375
-0.447081
0.0437485
-0.459364
0.0895927
-0.471842
0.133048
-0.454051
0.17094
-0.407156
0.203458
-0.359765
0.231407
-0.316371
0.254509
-0.270035
0.27368
-0.231051
0.290126
-0.201427
0.304421
-0.176534
0.317192
-0.157587
0.329001
-0.143221
0.34012
-0.132025
0.350803
-0.123504
0.361186
-0.117201
0.371362
-0.112263
0.381352
-0.1084
0.391168
-0.10472
0.400744
-0.100238
0.409909
-0.0920314
0.418304
-0.0801529
0.425756
-0.0680704
0.432205
-0.0561544
0.437614
-0.0445891
0.441983
-0.0332597
0.445291
-0.0223287
0.447542
-0.0117539
0.448754
-0.00157974
0.448916
0.0084727
0.447997
0.0187865
0.445867
0.0303142
0.442264
0.0459605
0.436445
0.0695142
0.427978
0.122407
0.414447
0.214688
-0.162384
0.199473
-0.382103
0.236975
-0.388769
0.279961
-0.432813
0.31704
-0.383148
0.353222
-0.374348
0.388469
-0.361397
0.41995
-0.325231
0.448823
-0.298639
0.47513
-0.270349
0.498535
-0.239922
0.519742
-0.214017
0.538747
-0.188368
0.555758
-0.163799
0.570956
-0.140551
0.584261
-0.117023
0.595918
-0.0939131
0.605753
-0.0698502
0.613723
-0.0456493
0.619801
-0.0202554
0.623871
0.00516721
0.625907
0.0313501
0.625965
0.0558747
0.62413
0.0783786
0.620592
0.0957238
0.615484
0.106756
0.608837
0.116201
0.600804
0.126545
0.591414
0.136657
0.58072
0.146998
0.568799
0.157673
0.555654
0.168908
0.541272
0.181007
0.525551
0.194786
0.508384
0.211566
0.489459
0.233739
0.468252
0.267527
0.443845
0.318392
0.416567
0.427174
0.38075
0.561785
-0.125766
-0.381892
-0.0883447
-0.396527
-0.0409811
-0.491795
0.00552962
-0.493592
0.0527122
-0.506547
0.100919
-0.520048
0.146652
-0.499785
0.186371
-0.446874
0.220388
-0.393781
0.249488
-0.34547
0.273414
-0.293959
0.293108
-0.250744
0.309895
-0.218213
0.324355
-0.190994
0.337191
-0.170422
0.34902
-0.15505
0.360133
-0.143137
0.370785
-0.134156
0.381188
-0.127603
0.391435
-0.12251
0.401542
-0.118506
0.411519
-0.114696
0.421335
-0.110052
0.430779
-0.101475
0.439489
-0.0888629
0.447276
-0.0758577
0.454064
-0.0629442
0.459818
-0.0503446
0.464497
-0.0379412
0.468085
-0.0259215
0.470571
-0.0142481
0.471965
-0.0029833
0.472274
0.00815214
0.471434
0.0196142
0.469323
0.032412
0.465679
0.0495864
0.459795
0.0753778
0.45145
0.130742
0.438529
0.22757
-0.164625
0.203808
-0.421285
0.243334
-0.428295
0.288719
-0.478199
0.327751
-0.422179
0.365852
-0.41245
0.403025
-0.39857
0.436026
-0.358232
0.466321
-0.328933
0.493953
-0.297981
0.518433
-0.264401
0.540504
-0.236088
0.560322
-0.208186
0.577938
-0.181414
0.593767
-0.15638
0.607767
-0.131022
0.619942
-0.106088
0.630323
-0.0802302
0.638807
-0.054132
0.645322
-0.0267691
0.649903
0.000587291
0.652496
0.0287577
0.653028
0.0553448
0.651701
0.0797069
0.648645
0.0987808
0.643972
0.11143
0.637705
0.122469
0.629872
0.134379
0.620614
0.145913
0.60998
0.157631
0.597978
0.169672
0.584658
0.18223
0.569979
0.195684
0.553913
0.210848
0.53627
0.229204
0.516772
0.253235
0.494974
0.289317
0.469943
0.343431
0.442104
0.455028
0.406741
0.597195
-0.126005
-0.420513
-0.0866811
-0.435851
-0.0366621
-0.541815
0.0123477
-0.542602
0.0620327
-0.556233
0.112823
-0.570839
0.160884
-0.547845
0.202601
-0.488591
0.238187
-0.429365
0.268582
-0.375864
0.29341
-0.318786
0.313747
-0.271081
0.330932
-0.235396
0.345625
-0.205686
0.358565
-0.183361
0.370409
-0.166893
0.381498
-0.154225
0.392147
-0.144804
0.402543
-0.137998
0.412812
-0.132778
0.423002
-0.128696
0.433137
-0.12483
0.443158
-0.120073
0.452858
-0.111174
0.461888
-0.0978922
0.469993
-0.083963
0.477112
-0.0700637
0.48318
-0.0564133
0.488173
-0.0429336
0.492033
-0.0297836
0.494777
-0.0169961
0.496392
-0.00460411
0.496835
0.00770423
0.496102
0.0203412
0.494027
0.0344843
0.49036
0.053248
0.484439
0.081288
0.476178
0.139005
0.463924
0.239826
-0.167181
0.20852
-0.462623
0.250174
-0.469949
0.298068
-0.526093
0.33916
-0.463271
0.379358
-0.452648
0.418474
-0.437687
0.453162
-0.39292
0.484995
-0.360765
0.513906
-0.326892
0.539463
-0.289957
0.562503
-0.259126
0.583167
-0.228849
0.601609
-0.199856
0.618037
-0.172807
0.632583
-0.145568
0.645294
-0.118798
0.656174
-0.0911099
0.66516
-0.063117
0.672257
-0.0338651
0.677304
-0.00445842
0.680342
0.0257209
0.681405
0.0542842
0.68053
0.0805829
0.677929
0.101383
0.673661
0.1157
0.667739
0.128392
0.660193
0.141925
0.651097
0.155011
0.640503
0.168224
0.628449
0.181724
0.614984
0.195696
0.600064
0.210603
0.583616
0.227291
0.565518
0.247299
0.545492
0.273258
0.523126
0.311681
0.497487
0.369072
0.469182
0.483338
0.434308
0.632077
-0.126404
-0.46129
-0.0849364
-0.477319
-0.032201
-0.594551
0.0194471
-0.594251
0.0717936
-0.608579
0.125292
-0.624338
0.175875
-0.598427
0.219698
-0.532413
0.25701
-0.466675
0.288761
-0.407614
0.314616
-0.34464
0.335636
-0.292099
0.353288
-0.253048
0.368256
-0.220653
0.38134
-0.196445
0.393232
-0.178784
0.404315
-0.165308
0.414931
-0.155419
0.425309
-0.148376
0.435594
-0.143063
0.445832
-0.138933
0.456068
-0.135065
0.466276
-0.13028
0.476248
-0.121146
0.485548
-0.107192
0.493955
-0.0923688
0.501391
-0.0775012
0.507781
-0.0628035
0.513085
-0.0482398
0.517247
-0.0339502
0.520246
-0.0200024
0.522053
-0.00642149
0.522684
0.007061
0.522048
0.0209638
0.520026
0.0364911
0.516358
0.0568968
0.510416
0.0872087
0.502301
0.147104
0.490743
0.251346
-0.169925
0.213489
-0.506187
0.257463
-0.513922
0.308024
-0.576655
0.351341
-0.506588
0.393685
-0.494992
0.434828
-0.47883
0.471351
-0.429443
0.504774
-0.394187
0.535053
-0.35717
0.561819
-0.316722
0.585959
-0.283266
0.607456
-0.250346
0.626636
-0.219035
0.643755
-0.189926
0.658864
-0.160676
0.672129
-0.132062
0.683502
-0.102482
0.692998
-0.072612
0.700508
-0.0413743
0.706059
-0.0100078
0.709547
0.0222343
0.711027
0.0528053
0.710634
0.0809774
0.708466
0.103552
0.704639
0.119529
0.699057
0.133975
0.691781
0.149203
0.68287
0.163923
0.672346
0.178747
0.660289
0.193781
0.646692
0.209295
0.631544
0.22575
0.61477
0.24406
0.596237
0.265826
0.575707
0.293782
0.552735
0.334647
0.526562
0.395251
0.497868
0.512046
0.463518
0.666459
-0.126924
-0.504291
-0.0832393
-0.521003
-0.0276287
-0.650162
0.0268577
-0.648738
0.0819976
-0.66372
0.138329
-0.680669
0.191633
-0.651731
0.237677
-0.578456
0.276844
-0.505842
0.310071
-0.44084
0.337007
-0.371574
0.358801
-0.313892
0.376995
-0.271241
0.392299
-0.235957
0.405553
-0.209699
0.41754
-0.190771
0.428631
-0.176398
0.439228
-0.166015
0.449574
-0.158722
0.45984
-0.153328
0.470123
-0.149215
0.480442
-0.145384
0.490808
-0.140644
0.500984
-0.131321
0.510547
-0.116754
0.519258
-0.101079
0.526997
-0.0852395
0.533711
-0.0695171
0.53931
-0.0538382
0.543765
-0.0384055
0.547024
-0.0232645
0.549075
-0.00847763
0.549867
0.0062633
0.549343
0.0214823
0.547396
0.0384337
0.543739
0.0605491
0.537837
0.0931001
0.529857
0.155087
0.518972
0.262236
-0.172957
0.218919
-0.552149
0.265322
-0.560326
0.318578
-0.629912
0.364334
-0.552344
0.408851
-0.53951
0.452239
-0.522219
0.490602
-0.467806
0.525723
-0.429307
0.557521
-0.388967
0.58557
-0.344771
0.610685
-0.30838
0.633186
-0.272846
0.653108
-0.238956
0.670911
-0.207729
0.686709
-0.176473
0.700477
-0.14583
0.712379
-0.114383
0.722329
-0.0825617
0.730335
-0.0493789
0.736288
-0.0159597
0.740195
0.0183288
0.742144
0.050858
0.742122
0.081001
0.740373
0.105303
0.73692
0.122983
0.731689
0.139207
0.724712
0.156181
0.716008
0.172628
0.705631
0.189124
0.693567
0.205843
0.67987
0.222992
0.664509
0.241108
0.647424
0.26114
0.628498
0.284745
0.607435
0.314839
0.58394
0.358136
0.557234
0.421954
0.528157
0.541124
0.49442
0.700191
-0.127611
-0.549636
-0.0815455
-0.56707
-0.0228513
-0.708857
0.0345581
-0.706148
0.0926986
-0.721861
0.152062
-0.740032
0.20814
-0.707809
0.256623
-0.626937
0.297731
-0.546949
0.332575
-0.475683
0.3607
-0.399698
0.383346
-0.336538
0.402136
-0.29003
0.417818
-0.251639
0.431307
-0.223188
0.443384
-0.202847
0.454523
-0.187537
0.46509
-0.176581
0.475404
-0.169035
0.485645
-0.163569
0.495934
-0.159503
0.506321
-0.155769
0.516828
-0.15115
0.52721
-0.141703
0.537022
-0.126564
0.545991
-0.110048
0.554014
-0.0932625
0.561014
-0.0765181
0.566928
-0.059753
0.571661
-0.0431418
0.575198
-0.0268084
0.577462
-0.0107518
0.578457
0.00525683
0.578089
0.0218347
0.576195
0.0403105
0.572615
0.0641091
0.566744
0.0989487
0.558978
0.162833
0.548781
0.272396
-0.1762
0.224687
-0.600637
0.273566
-0.609205
0.329864
-0.68621
0.377942
-0.600422
0.424953
-0.586522
0.470601
-0.567867
0.511045
-0.50825
0.54789
-0.466152
0.581251
-0.422328
0.610617
-0.374136
0.636978
-0.334741
0.660393
-0.29626
0.68122
-0.259782
0.699749
-0.226257
0.716144
-0.192868
0.730492
-0.160176
0.742871
-0.126762
0.75326
-0.0929502
0.761653
-0.0577708
0.768034
-0.0223396
0.772382
0.0139822
0.774657
0.0485848
0.775035
0.0806251
0.773692
0.106647
0.770616
0.126062
0.76577
0.144055
0.759083
0.162869
0.750584
0.181129
0.740314
0.199395
0.728308
0.21785
0.714544
0.236759
0.699003
0.256649
0.681637
0.278502
0.662322
0.304054
0.640813
0.336343
0.616787
0.382151
0.589587
0.449159
0.56018
0.570543
0.527065
0.733329
-0.128384
-0.597452
-0.0798135
-0.615641
-0.0178994
-0.770772
0.0425959
-0.766644
0.103889
-0.783154
0.166458
-0.802601
0.22556
-0.76691
0.276549
-0.677925
0.319754
-0.590153
0.356281
-0.512208
0.385698
-0.429114
0.409283
-0.360122
0.428732
-0.309479
0.444867
-0.267773
0.458622
-0.236942
0.47085
-0.215075
0.48203
-0.198716
0.492597
-0.187147
0.502875
-0.179313
0.51311
-0.173803
0.523377
-0.169769
0.533819
-0.16621
0.54443
-0.16176
0.555
-0.152271
0.565036
-0.136599
0.574239
-0.11925
0.582552
-0.101574
0.589837
-0.0838018
0.596018
-0.0659327
0.601064
-0.0481878
0.604856
-0.0306029
0.607368
-0.0132677
0.608535
0.00408438
0.608315
0.0220494
0.606552
0.0420693
0.603022
0.0676334
0.597261
0.104701
0.589682
0.170417
0.580192
0.281891
-0.179707
0.230816
-0.651746
0.282364
-0.660752
0.341711
-0.745557
0.392489
-0.651201
0.441942
-0.635975
0.490096
-0.616022
0.532554
-0.550708
0.571328
-0.504925
0.606369
-0.457368
0.637195
-0.404961
0.664717
-0.362262
0.689253
-0.320796
0.710939
-0.281468
0.730233
-0.245551
0.747244
-0.209878
0.762193
-0.175125
0.775046
-0.139613
0.785878
-0.103782
0.794727
-0.0666188
0.801469
-0.0290802
0.806156
0.00929703
0.808809
0.0459335
0.80954
0.0798955
0.808551
0.107637
0.805848
0.128766
0.801319
0.148587
0.794923
0.169266
0.786692
0.189361
0.776582
0.209506
0.764613
0.22982
0.750798
0.250574
0.735126
0.272319
0.717515
0.296107
0.697843
0.323719
0.675898
0.358279
0.651384
0.406655
0.623719
0.476816
0.594001
0.600258
0.561498
0.765818