/*--------------------------------*- C++ -*----------------------------------*\
  =========                 |
  \\      /  F ield         | OpenFOAM: The Open Source CFD Toolbox
   \\    /   O peration     | Website:  https://openfoam.org
    \\  /    A nd           | Version:  13
     \\/     M anipulation  |
\*---------------------------------------------------------------------------*/
FoamFile
{
    format      ascii;
    class       volVectorField;
    location    "50";
    object      U;
}
// * * * * * * * * * * * * * * * * * * * * * * * * * * * * * * * * * * * * * //

dimensions      [0 1 -1 0 0 0 0];

internalField   nonuniform List<vector> 
10720
(
(1.22127 22.3237 -7.09385e-18)
(2.63853 24.6066 6.4455e-18)
(4.48318 26.8484 0)
(6.66066 28.6867 -2.20074e-16)
(9.12409 30.181 2.48745e-16)
(11.8163 31.2737 2.11178e-16)
(14.5965 31.8617 3.25186e-16)
(17.3747 31.9693 0)
(20.0742 31.641 0)
(22.614 30.9058 0)
(24.9586 29.8353 1.00493e-16)
(27.0889 28.5022 0)
(28.9857 26.9457 2.00545e-15)
(30.6526 25.2223 0)
(32.0568 23.3457 0)
(33.1783 21.3386 0)
(33.9973 19.2076 -3.48905e-15)
(34.5127 16.9924 -5.26036e-15)
(34.704 14.7138 4.70778e-15)
(34.5808 12.4319 0)
(34.1294 10.1886 3.91539e-15)
(33.3884 8.06279 -7.72305e-15)
(32.4084 6.11488 3.87095e-15)
(31.2989 4.4157 -1.16483e-16)
(30.2508 3.01975 0)
(29.3475 1.88331 1.56017e-15)
(28.501 0.925521 2.42273e-17)
(27.6167 0.107212 -6.89572e-16)
(26.656 -0.593621 -2.52392e-15)
(25.6131 -1.19124 -9.17867e-15)
(24.4912 -1.69218 4.09425e-15)
(23.2933 -2.0997 7.46944e-15)
(22.0183 -2.41502 6.44805e-15)
(20.6562 -2.639 2.2064e-14)
(19.1555 -2.76724 -8.93091e-15)
(17.479 -2.79903 -6.35023e-17)
(15.3126 -2.67862 1.93099e-17)
(12.8433 -2.40675 2.6297e-15)
(7.28213 -1.96453 1.42395e-14)
(0.161501 19.9305 -1.21327e-17)
(-0.611798 17.2781 -3.87116e-17)
(-1.02405 14.3157 1.16653e-16)
(-0.95888 10.9516 -3.04347e-16)
(-0.286199 7.53842 -1.01782e-15)
(0.921745 4.34074 1.86044e-15)
(2.46564 1.55972 7.7671e-15)
(4.29436 -0.991908 1.73343e-15)
(6.44493 -3.19215 0)
(8.70768 -4.82864 0)
(10.8664 -5.88301 1.26086e-15)
(12.8179 -6.46867 4.74582e-16)
(14.5363 -6.71206 -8.18993e-16)
(16.0214 -6.71701 6.79513e-16)
(17.2984 -6.57562 1.12941e-15)
(18.4093 -6.34662 7.28876e-16)
(19.3889 -6.07124 9.06346e-16)
(20.2695 -5.77213 5.91006e-16)
(21.0819 -5.46474 0)
(21.848 -5.14784 0)
(22.5854 -4.81963 -7.21319e-16)
(23.3039 -4.46607 -2.78794e-17)
(24.0029 -4.06851 3.72088e-16)
(24.6473 -3.59274 -1.75496e-16)
(25.1659 -3.03322 2.56365e-17)
(25.5411 -2.43018 0)
(25.8033 -1.81092 -6.64121e-17)
(25.9697 -1.19037 0)
(26.0518 -0.580068 0)
(26.0172 0.0123279 -1.17975e-16)
(25.8708 0.579097 0)
(25.6325 1.11218 4.90571e-16)
(25.3201 1.60405 8.28238e-16)
(24.9476 2.0484 3.51756e-15)
(24.5105 2.44158 -9.98873e-16)
(24.004 2.78592 3.12729e-18)
(23.3094 3.07773 0)
(22.3966 3.29042 2.16464e-15)
(19.7104 3.48547 5.74144e-15)
(6.55662 19.3888 -1.88267e-17)
(8.07826 21.1419 1.28327e-17)
(9.98569 22.7926 0)
(12.2262 24.2334 0)
(14.6925 25.3938 -7.26169e-17)
(17.3853 26.2146 -2.00801e-16)
(20.2001 26.6442 0)
(23.0188 26.6886 0)
(25.7838 26.3504 5.08128e-16)
(28.41 25.6683 0)
(30.8413 24.6908 2.01886e-15)
(33.0457 23.4623 0)
(34.9989 22.0306 7.6111e-16)
(36.6844 20.4336 -7.50353e-16)
(38.1121 18.7267 1.54786e-15)
(39.2962 16.959 -3.15075e-15)
(40.228 15.1557 3.40647e-15)
(40.891 13.3405 3.13081e-15)
(41.279 11.518 3.0789e-15)
(41.3656 9.71312 1.88094e-16)
(41.1418 7.94625 -3.23171e-15)
(40.5879 6.26461 3.07279e-15)
(39.7182 4.70428 -1.72822e-16)
(38.5577 3.31775 0)
(37.2022 2.15277 0)
(35.7892 1.16195 0)
(34.3758 0.275629 1.31568e-16)
(32.9574 -0.512972 -2.94458e-17)
(31.539 -1.20269 1.85413e-15)
(30.12 -1.7958 3.54353e-17)
(28.69 -2.29166 -2.77305e-17)
(27.2353 -2.69066 -8.04187e-17)
(25.7403 -2.99445 4.41552e-15)
(24.1899 -3.20574 -7.39508e-15)
(22.5406 -3.32455 -3.98246e-17)
(20.77 -3.35229 -8.45928e-15)
(18.6024 -3.24371 0)
(16.2978 -3.00859 -7.34635e-16)
(10.7223 -2.27841 7.5524e-15)
(5.32721 17.5535 2.61893e-17)
(4.31519 15.549 -8.01235e-17)
(3.52778 13.228 -8.63907e-16)
(3.05532 10.6329 1.08958e-15)
(3.07817 7.88709 0)
(3.6382 5.16906 -2.14055e-15)
(4.65548 2.60814 -1.20141e-15)
(6.0343 0.286412 -5.81251e-15)
(7.71811 -1.63105 1.5618e-15)
(9.58338 -3.0546 -1.19453e-15)
(11.4727 -4.00746 1.56605e-15)
(13.2705 -4.57706 -4.52657e-16)
(14.9222 -4.85759 0)
(16.4023 -4.93146 -2.92559e-16)
(17.7086 -4.8809 6.12471e-17)
(18.8637 -4.75238 -6.30589e-16)
(19.8908 -4.58257 0)
(20.8164 -4.38886 0)
(21.6662 -4.18374 -6.16006e-17)
(22.4647 -3.9588 5.95871e-17)
(23.2278 -3.70776 -6.5562e-16)
(23.9677 -3.40913 -6.44531e-17)
(24.6846 -3.03933 2.66607e-17)
(25.3519 -2.5585 2.13819e-16)
(25.9111 -1.98197 -5.76351e-17)
(26.3378 -1.38235 1.13651e-18)
(26.6513 -0.788879 0)
(26.8671 -0.210403 0)
(26.984 0.348202 0)
(27.0318 0.878601 9.15311e-18)
(27.0116 1.37585 0)
(26.9142 1.83598 0)
(26.7325 2.25563 -1.35311e-15)
(26.4672 2.63221 -1.13515e-15)
(26.1161 2.96743 8.10472e-16)
(25.6964 3.26903 -3.66254e-16)
(25.1044 3.53971 -2.30767e-16)
(24.5634 3.78907 -1.73493e-15)
(22.4575 3.87569 -3.96471e-15)
(8.47203 17.925 -4.86438e-18)
(9.57821 19.4526 -4.99932e-17)
(10.9589 20.9681 3.53312e-17)
(12.5813 22.3891 2.46286e-18)
(14.4084 23.6106 -8.20466e-17)
(16.441 24.6097 3.36802e-16)
(18.6138 25.3386 -2.48802e-16)
(20.8598 25.7572 -3.41379e-16)
(23.1277 25.8584 1.16085e-17)
(25.3601 25.6463 -4.87476e-16)
(27.5051 25.1357 4.8029e-16)
(29.5281 24.3518 -1.27561e-15)
(31.3981 23.325 -6.2997e-16)
(33.095 22.0828 0)
(34.6003 20.6527 -1.54146e-15)
(35.8979 19.0663 3.1664e-15)
(36.9983 17.3346 0)
(37.8991 15.4879 -6.15584e-15)
(38.5946 13.5553 -3.10249e-15)
(39.063 11.5896 3.6542e-16)
(39.2956 9.63051 -3.61725e-16)
(39.2759 7.74645 -1.65637e-16)
(39.0074 5.98738 -2.35726e-15)
(38.4968 4.414 1.18731e-15)
(37.7871 3.0694 0)
(36.943 1.90043 1.04382e-15)
(35.9765 0.842597 -1.2348e-16)
(34.8739 -0.103178 0)
(33.6449 -0.930854 1.64369e-15)
(32.3117 -1.64045 3.04707e-15)
(30.8934 -2.23119 -5.36109e-15)
(29.4038 -2.70479 -4.60132e-15)
(27.8477 -3.06587 -9.72777e-17)
(26.2214 -3.32011 -6.49647e-15)
(24.4885 -3.47046 -5.17933e-15)
(22.6295 -3.5176 7.34178e-15)
(20.393 -3.42544 0)
(18.0351 -3.15798 -5.49234e-16)
(13.0058 -2.58218 -1.12771e-14)
(7.60166 16.3386 -2.72469e-17)
(6.87255 14.6336 -8.13258e-17)
(6.32337 12.6529 3.52425e-16)
(5.95694 10.4567 0)
(5.90733 8.14318 5.687e-16)
(6.21403 5.81152 0)
(6.87839 3.55371 3.20032e-15)
(7.8787 1.47326 1.3542e-15)
(9.15504 -0.316326 1.15322e-15)
(10.6086 -1.76717 0)
(12.1304 -2.87352 -1.67284e-15)
(13.6318 -3.66271 -3.50663e-16)
(15.0603 -4.18415 1.60161e-15)
(16.3846 -4.49254 0)
(17.5915 -4.64203 -7.20485e-16)
(18.6874 -4.67433 -2.17455e-16)
(19.6853 -4.62386 8.72442e-16)
(20.6022 -4.51329 4.42919e-16)
(21.457 -4.35858 1.15646e-16)
(22.2681 -4.16184 -6.54542e-17)
(23.0489 -3.92253 6.00076e-16)
(23.8077 -3.62877 0)
(24.5435 -3.26463 0)
(25.2338 -2.80679 2.66239e-17)
(25.8318 -2.27087 0)
(26.3136 -1.70912 2.27366e-17)
(26.6923 -1.13995 7.13405e-19)
(26.9812 -0.568135 2.56803e-17)
(27.1831 0.00131631 0)
(27.3 0.560692 9.18756e-17)
(27.3357 1.10209 -1.77783e-16)
(27.2946 1.61512 0)
(27.1787 2.09039 6.57165e-16)
(26.9899 2.52053 0)
(26.7193 2.90419 0)
(26.3727 3.24553 3.82888e-17)
(25.8401 3.55238 -6.3549e-17)
(25.2654 3.79638 1.73739e-15)
(23.406 3.91032 7.71401e-15)
(10.7503 16.5142 -2.14408e-17)
(11.7577 17.8199 -2.67275e-17)
(13.0005 19.1231 3.13575e-17)
(14.459 20.3445 1.92731e-17)
(16.1009 21.3994 0)
(17.9339 22.2728 0)
(19.9087 22.9163 -4.34658e-16)
(21.9722 23.2913 5.6066e-16)
(24.0816 23.3876 0)
(26.1847 23.2007 -7.78282e-16)
(28.2317 22.7388 -1.03107e-15)
(30.184 22.0196 -9.9698e-16)
(32.0061 21.0675 1.21991e-15)
(33.6701 19.9084 1.16855e-15)
(35.1515 18.5704 0)
(36.4327 17.0841 1.90848e-15)
(37.497 15.4823 6.75435e-16)
(38.3203 13.8106 5.53231e-15)
(38.8907 12.1005 3.38416e-16)
(39.2074 10.3807 -3.34712e-16)
(39.274 8.68149 2.85542e-15)
(39.1044 7.04578 -4.68929e-16)
(38.7264 5.51302 2.56718e-15)
(38.1787 4.12576 1.07598e-15)
(37.5191 2.91336 -6.40574e-17)
(36.8046 1.84115 -9.41441e-16)
(36.0392 0.85864 6.97475e-18)
(35.1913 -0.0378184 -7.00746e-18)
(34.2402 -0.84281 -1.57635e-15)
(33.1768 -1.55383 -4.16621e-17)
(31.9945 -2.16494 2.62495e-15)
(30.6913 -2.67086 -4.45582e-15)
(29.2671 -3.0693 -3.58299e-15)
(27.722 -3.36027 -4.80789e-18)
(26.0285 -3.54269 4.70387e-15)
(24.1745 -3.61219 0)
(21.933 -3.53668 3.68337e-15)
(19.5135 -3.23405 4.68614e-16)
(14.8275 -2.72484 4.64091e-15)
(9.93741 15.1644 -3.62666e-17)
(9.24272 13.7238 1.18192e-16)
(8.69076 12.0438 4.53187e-16)
(8.29288 10.1705 0)
(8.15701 8.19481 -4.86995e-16)
(8.31101 6.17527 0)
(8.75633 4.17843 -2.26575e-15)
(9.47886 2.30298 -6.94529e-17)
(10.443 0.646252 8.98261e-16)
(11.5861 -0.748889 7.71023e-16)
(12.8307 -1.86087 2.04289e-17)
(14.1058 -2.69548 1.30648e-15)
(15.3621 -3.28503 -8.08193e-16)
(16.5645 -3.67027 2.60978e-16)
(17.6916 -3.89305 8.6889e-16)
(18.7378 -3.99247 9.3758e-16)
(19.7068 -4.00066 -8.20452e-16)
(20.6071 -3.94165 1.09721e-17)
(21.4512 -3.83206 0)
(22.2529 -3.67746 7.88775e-16)
(23.0232 -3.47742 3.52857e-17)
(23.7688 -3.22266 -5.26757e-16)
(24.4886 -2.89933 0)
(25.1644 -2.48869 2.56561e-17)
(25.7575 -1.999 0)
(26.2445 -1.47146 -2.1707e-17)
(26.6333 -0.928114 0)
(26.9356 -0.378048 -2.42627e-17)
(27.1557 0.171151 1.46972e-18)
(27.2949 0.709854 -1.06151e-18)
(27.3569 1.22727 1.62184e-16)
(27.3466 1.71401 4.91649e-18)
(27.2675 2.16316 0)
(27.1234 2.56999 -4.49935e-16)
(26.9072 2.93519 -6.25995e-18)
(26.6227 3.26222 3.19162e-16)
(26.167 3.56202 6.54195e-16)
(25.6418 3.77769 3.88368e-18)
(23.9946 3.90083 0)
(12.404 15.4226 -2.80824e-17)
(13.2645 16.575 -1.7359e-17)
(14.3279 17.7422 5.30783e-17)
(15.5683 18.8539 -9.69966e-17)
(16.9577 19.8345 7.16383e-18)
(18.5159 20.6815 -7.71143e-17)
(20.203 21.3506 1.76519e-16)
(21.9782 21.805 0)
(23.8142 22.0318 8.46915e-16)
(25.668 22.019 4.26968e-16)
(27.5003 21.7639 0)
(29.2779 21.2725 9.50684e-16)
(30.9666 20.5575 -5.16747e-16)
(32.5372 19.6344 1.44104e-15)
(33.9644 18.5229 0)
(35.2255 17.2466 -2.48374e-15)
(36.3007 15.8299 2.40973e-15)
(37.1783 14.2899 -1.52069e-16)
(37.8465 12.6475 0)
(38.2891 10.942 2.68799e-15)
(38.4944 9.21727 -2.7234e-15)
(38.4588 7.53017 -1.39875e-16)
(38.1963 5.93345 -2.13353e-15)
(37.7391 4.47833 -1.96478e-15)
(37.1449 3.20021 0)
(36.4777 2.07526 0)
(35.7616 1.05677 -2.14428e-16)
(34.9868 0.134237 -2.40821e-17)
(34.1458 -0.690899 1.48761e-15)
(33.2349 -1.41956 -3.94602e-17)
(32.2436 -2.05012 3.94513e-17)
(31.1557 -2.58024 4.14806e-15)
(29.9514 -3.00852 0)
(28.6101 -3.33359 1.14592e-14)
(27.0896 -3.55119 -3.93369e-17)
(25.369 -3.65098 0)
(23.2345 -3.60067 -3.06539e-17)
(20.8543 -3.28389 0)
(16.4181 -2.78182 -3.95822e-15)
(11.7014 14.2366 4.22016e-17)
(11.0953 12.9819 -2.37608e-16)
(10.5933 11.5167 2.49234e-16)
(10.2049 9.88208 3.58623e-16)
(10.0237 8.16229 -1.49666e-15)
(10.0727 6.38666 -1.72733e-15)
(10.365 4.60715 1.70892e-15)
(10.8923 2.91671 -1.59792e-15)
(11.6296 1.39595 -7.02397e-16)
(12.5347 0.0774893 -6.16883e-16)
(13.5505 -1.01624 1.18925e-15)
(14.6211 -1.88085 -1.11948e-15)
(15.7063 -2.53549 -4.79414e-16)
(16.7737 -3.00736 4.69195e-16)
(17.8001 -3.32415 -9.84561e-16)
(18.7745 -3.51603 1.86684e-16)
(19.6943 -3.60844 0)
(20.5618 -3.62176 -6.43787e-16)
(21.3841 -3.57072 2.23272e-16)
(22.1701 -3.46274 -8.32805e-16)
(22.9277 -3.29906 0)
(23.6616 -3.07412 4.57554e-16)
(24.3698 -2.7779 3.35268e-16)
(25.0362 -2.39781 -2.01782e-16)
(25.628 -1.94026 0)
(26.1222 -1.43931 -6.33268e-17)
(26.5218 -0.918213 0)
(26.8363 -0.386647 0)
(27.0695 0.14785 0)
(27.2231 0.675624 -5.90816e-17)
(27.3002 1.1868 0)
(27.306 1.67193 0)
(27.2441 2.1226 4.82229e-16)
(27.1191 2.53258 4.26509e-16)
(26.9253 2.9015 0)
(26.6677 3.23125 2.24619e-16)
(26.2529 3.53316 6.79437e-17)
(25.7731 3.73667 0)
(24.3312 3.8558 -3.40358e-15)
(13.8504 14.4789 3.66257e-17)
(14.6248 15.5002 -2.62385e-17)
(15.579 16.5413 0)
(16.687 17.5371 1.13901e-17)
(17.921 18.4198 1.72739e-17)
(19.3081 19.1936 7.20771e-17)
(20.8134 19.8172 3.95466e-17)
(22.4044 20.2578 -4.67885e-16)
(24.0627 20.5014 -6.91802e-17)
(25.753 20.5339 8.4405e-16)
(27.4423 20.3479 -3.05519e-16)
(29.1016 19.9438 7.25536e-16)
(30.6983 19.3276 3.66965e-16)
(32.2029 18.5096 2.68505e-16)
(33.5885 17.5048 0)
(34.8295 16.3327 -5.40019e-16)
(35.9037 15.0148 -1.20177e-15)
(36.7908 13.5788 -4.57066e-15)
(37.468 12.0619 1.35798e-15)
(37.9219 10.4972 -1.73156e-15)
(38.1448 8.91943 -2.71206e-16)
(38.1375 7.36896 0)
(37.9132 5.88757 1.90436e-15)
(37.5 4.51622 1.21353e-16)
(36.9455 3.28611 -5.45058e-17)
(36.3037 2.18606 -7.60026e-16)
(35.6005 1.18237 1.75645e-16)
(34.8348 0.267249 3.68001e-16)
(34.0074 -0.554945 -1.37826e-15)
(33.1242 -1.28329 -7.35687e-17)
(32.187 -1.91706 2.34581e-15)
(31.1907 -2.4554 3.8035e-15)
(30.1209 -2.8985 0)
(28.9542 -3.24589 -1.42847e-17)
(27.6369 -3.4927 -4.20951e-15)
(26.1299 -3.62447 0)
(24.2096 -3.60634 -6.38192e-15)
(22.0055 -3.29512 0)
(17.8419 -2.8008 3.54048e-15)
(13.211 13.4303 -4.12265e-17)
(12.6554 12.3277 9.51753e-17)
(12.1813 11.036 0)
(11.798 9.59203 0)
(11.5873 8.07529 6.29309e-16)
(11.5656 6.49659 2.7247e-15)
(11.75 4.89799 0)
(12.1357 3.36717 -1.20471e-15)
(12.7034 1.97211 -1.14051e-15)
(13.4246 0.737701 1.12871e-15)
(14.2564 -0.314724 -4.1778e-17)
(15.1555 -1.17509 4.82659e-16)
(16.0902 -1.85458 3.27669e-17)
(17.0329 -2.37136 1.22316e-15)
(17.9613 -2.74358 1.07039e-15)
(18.8621 -2.99375 -9.88144e-16)
(19.7286 -3.14208 1.34572e-16)
(20.5586 -3.20607 -2.47679e-16)
(21.3542 -3.19919 1.13281e-16)
(22.12 -3.12962 6.31658e-16)
(22.8609 -3.00001 7.95112e-17)
(23.5793 -2.80722 -5.06567e-17)
(24.2723 -2.54342 -2.81873e-16)
(24.9256 -2.1993 0)
(25.5114 -1.77949 6.88785e-18)
(26.0076 -1.31144 1.32236e-16)
(26.4131 -0.817809 2.3902e-19)
(26.7352 -0.309369 -2.37322e-19)
(26.9772 0.205366 0)
(27.1407 0.716071 5.55833e-17)
(27.2284 1.21213 0)
(27.2453 1.68348 0)
(27.1946 2.12206 -4.46395e-16)
(27.0805 2.52212 -3.52068e-16)
(26.8976 2.8834 0)
(26.6506 3.20627 -2.09672e-16)
(26.2534 3.50162 -8.41535e-16)
(25.7909 3.68747 7.65878e-18)
(24.5049 3.78772 3.12376e-15)
(15.063 13.6727 3.31994e-18)
(15.7616 14.5881 -2.34275e-17)
(16.6207 15.5275 4.19815e-17)
(17.6132 16.4297 -4.07343e-17)
(18.7109 17.2343 -3.29472e-18)
(19.9451 17.9505 0)
(21.2843 18.5418 -1.83995e-16)
(22.7014 18.9785 -8.79632e-18)
(24.1855 19.2487 -2.43563e-16)
(25.7069 19.3377 -5.05448e-16)
(27.2397 19.2357 0)
(28.7604 18.9393 -1.31168e-15)
(30.2397 18.4491 -1.15884e-15)
(31.6506 17.7697 -2.8666e-15)
(32.9672 16.9109 0)
(34.1633 15.8863 -1.81439e-15)
(35.215 14.7141 -1.92401e-15)
(36.1009 13.4165 2.14523e-15)
(36.8031 12.0137 -2.13232e-15)
(37.3047 10.536 1.98244e-15)
(37.5934 9.01979 2.44976e-16)
(37.6643 7.51008 -2.10892e-15)
(37.5243 6.05348 0)
(37.1952 4.69365 -1.81719e-15)
(36.7158 3.46235 1.06543e-16)
(36.1324 2.35503 7.93236e-16)
(35.4714 1.34502 0)
(34.736 0.424247 -2.71949e-17)
(33.9287 -0.403423 5.82653e-17)
(33.0579 -1.13694 2.23843e-15)
(32.1306 -1.77597 -2.06979e-15)
(31.1506 -2.32023 -3.58506e-15)
(30.1166 -2.77087 3.02734e-15)
(29.0203 -3.12911 -5.33253e-17)
(27.8227 -3.39178 3.9826e-15)
(26.4932 -3.54502 5.46944e-15)
(24.8119 -3.55454 3.05395e-15)
(22.8893 -3.2581 -7.61908e-18)
(19.0879 -2.78871 -4.52133e-18)
(14.4806 12.7344 1.63909e-17)
(13.9708 11.753 1.74114e-16)
(13.524 10.6008 2.16883e-16)
(13.1495 9.31057 -4.33191e-16)
(12.9207 7.95752 -1.62764e-15)
(12.8501 6.54022 4.69073e-16)
(12.9561 5.09447 1.01664e-15)
(13.237 3.70247 2.52495e-15)
(13.6769 2.42223 9.93933e-16)
(14.2554 1.27231 -9.28086e-16)
(14.9395 0.271888 -2.00103e-17)
(15.6951 -0.567328 -4.27477e-16)
(16.4976 -1.25258 0)
(17.3247 -1.79606 -1.64164e-17)
(18.1566 -2.20915 -6.68397e-16)
(18.9803 -2.50798 2.8459e-16)
(19.7873 -2.70752 -2.79699e-16)
(20.5721 -2.82127 0)
(21.3338 -2.86014 4.00611e-16)
(22.0735 -2.83153 -6.69234e-16)
(22.7931 -2.73822 0)
(23.4929 -2.57842 4.50621e-16)
(24.1692 -2.34638 0)
(24.8089 -2.03568 -1.26537e-17)
(25.3878 -1.65044 1.25445e-17)
(25.8847 -1.21321 -7.344e-17)
(26.2955 -0.745675 -1.71455e-18)
(26.625 -0.259758 -3.65291e-20)
(26.8759 0.235256 -5.62787e-19)
(27.0494 0.728938 3.99749e-17)
(27.1478 1.21079 9.44616e-17)
(27.1754 1.6714 -1.89513e-16)
(27.1352 2.10265 -6.12348e-18)
(27.0306 2.49832 2.6851e-17)
(26.8562 2.85717 0)
(26.6163 3.1772 5.60541e-19)
(26.2301 3.46761 4.11763e-16)
(25.7758 3.63697 -1.03764e-17)
(24.6025 3.71264 2.88467e-15)
(16.1117 12.9651 6.35894e-18)
(16.7513 13.7909 3.61598e-17)
(17.5363 14.6419 0)
(18.4392 15.4605 -2.01905e-17)
(19.4311 16.192 -3.37967e-17)
(20.5456 16.8492 0)
(21.7537 17.3987 -6.97419e-17)
(23.0321 17.8144 6.10323e-16)
(24.3749 18.0861 -9.2176e-16)
(25.7575 18.1993 2.91904e-16)
(27.1586 18.1435 4.36021e-16)
(28.5598 17.9131 1.66048e-15)
(29.9358 17.505 1.21799e-15)
(31.2621 16.92 1.48125e-15)
(32.5142 16.1633 4.00308e-16)
(33.6662 15.2447 1.33339e-15)
(34.6936 14.1781 1.84288e-15)
(35.5739 12.9821 1.81265e-15)
(36.2852 11.6817 -1.36182e-15)
(36.8085 10.3069 -4.1878e-15)
(37.1305 8.89075 0)
(37.2463 7.47133 7.77959e-17)
(37.1614 6.08946 1.64487e-15)
(36.8942 4.78403 1.72728e-15)
(36.4769 3.58478 -9.80199e-17)
(35.9484 2.49376 -7.14422e-16)
(35.3335 1.49299 5.12635e-18)
(34.638 0.57642 -3.62817e-16)
(33.8644 -0.251411 3.81197e-17)
(33.0196 -0.988125 -4.17639e-15)
(32.11 -1.63251 -7.18735e-18)
(31.1404 -2.18328 -5.60311e-17)
(30.1136 -2.6406 -2.88349e-15)
(29.0305 -3.00534 -5.33936e-17)
(27.8686 -3.27505 -3.67816e-15)
(26.6222 -3.43705 -1.03213e-14)
(25.1059 -3.4613 2.8467e-15)
(23.4707 -3.17592 3.76146e-16)
(20.117 -2.74142 2.83712e-15)
(15.5735 12.1197 -6.5761e-17)
(15.1003 11.2388 -2.33767e-16)
(14.6766 10.2025 -1.59236e-16)
(14.3114 9.04018 -3.98682e-16)
(14.0714 7.82175 8.9096e-16)
(13.9669 6.53913 -5.92686e-17)
(14.0152 5.22427 -2.56056e-15)
(14.2169 3.95293 -8.6573e-16)
(14.5591 2.77578 2.24245e-17)
(15.026 1.70665 0)
(15.5913 0.762723 -7.89865e-16)
(16.2277 -0.0443236 7.26619e-16)
(16.9163 -0.719909 -6.89499e-16)
(17.6395 -1.27259 -3.4824e-16)
(18.3808 -1.70921 2.83425e-16)
(19.1286 -2.04116 2.82313e-16)
(19.8739 -2.27883 9.82433e-16)
(20.6101 -2.432 -2.30036e-16)
(21.3336 -2.50908 -3.75958e-16)
(22.0432 -2.51631 0)
(22.7381 -2.45625 -5.39144e-16)
(23.4168 -2.32797 -3.76424e-16)
(24.0745 -2.12723 -1.08422e-17)
(24.699 -1.84983 -3.62566e-17)
(25.269 -1.49957 -8.37816e-18)
(25.7641 -1.09473 1.14284e-16)
(26.1781 -0.655492 -5.70739e-19)
(26.5134 -0.194404 9.01073e-19)
(26.7719 0.278864 -2.65474e-18)
(26.9542 0.753985 -3.71277e-17)
(27.0624 1.22062 -1.13971e-17)
(27.0998 1.66937 3.60185e-16)
(27.0693 2.09198 3.04636e-16)
(26.9737 2.48184 2.86218e-16)
(26.8074 2.8367 5.35255e-18)
(26.5741 3.15218 -1.79803e-18)
(26.1984 3.43521 -5.15694e-16)
(25.7528 3.58728 -1.50402e-15)
(24.6717 3.63698 -2.65734e-15)
(17.0226 12.3382 -1.97124e-17)
(17.6127 13.0877 -1.53982e-17)
(18.3354 13.8624 -6.92596e-17)
(19.1629 14.6086 2.0509e-16)
(20.0663 15.2759 -4.85118e-17)
(21.0794 15.8797 -3.79737e-17)
(22.1757 16.3898 2.34256e-16)
(23.3343 16.7829 0)
(24.5527 17.0513 2.79627e-16)
(25.8102 17.1812 1.71625e-17)
(27.0896 17.1622 -3.72148e-16)
(28.3768 16.9879 -1.53182e-15)
(29.6501 16.6533 -6.41794e-16)
(30.8882 16.1563 0)
(32.0688 15.4987 0)
(33.1675 14.6862 0)
(34.1601 13.7296 0)
(35.0234 12.6443 -1.73785e-15)
(35.7363 11.4495 1.78347e-15)
(36.2792 10.1697 1.75254e-15)
(36.6366 8.83581 -1.4137e-15)
(36.8009 7.48491 1.24404e-15)
(36.7738 6.15708 -1.28512e-15)
(36.5695 4.89089 -9.39405e-17)
(36.2144 3.71558 -4.29679e-17)
(35.7413 2.63715 7.21962e-16)
(35.174 1.64376 1.55394e-16)
(34.521 0.730864 0)
(33.7859 -0.097108 0)
(32.9749 -0.836955 3.43603e-17)
(32.0935 -1.48688 0)
(31.1456 -2.04469 3.07292e-15)
(30.133 -2.50938 -2.7117e-15)
(29.0578 -2.88045 -4.33734e-15)
(27.9031 -3.15473 6.8073e-15)
(26.6786 -3.31879 4.87101e-15)
(25.2327 -3.34646 -2.69054e-15)
(23.7952 -3.05989 -7.20257e-16)
(20.9051 -2.65564 -2.68036e-15)
(16.5222 11.5715 0)
(16.08 10.775 6.6187e-17)
(15.6771 9.83616 3.04425e-16)
(15.322 8.78185 -1.2866e-15)
(15.0758 7.67635 1.0693e-15)
(14.9473 6.50808 -7.56084e-16)
(14.9526 5.30606 1.73049e-17)
(15.0939 4.13996 6.88651e-16)
(15.3603 3.05519 7.10595e-16)
(15.7391 2.06205 0)
(16.2087 1.17544 3.28339e-16)
(16.7463 0.406455 -9.97547e-16)
(17.3375 -0.249698 1.54982e-15)
(17.9686 -0.79958 2.7635e-16)
(18.6262 -1.24752 -5.5548e-16)
(19.3008 -1.60129 -5.08027e-16)
(19.9841 -1.86782 -4.57919e-16)
(20.669 -2.05364 0)
(21.3509 -2.16453 0)
(22.0265 -2.20503 0)
(22.6934 -2.17708 5.08445e-16)
(23.3482 -2.07998 0)
(23.9855 -1.91054 -2.98677e-16)
(24.5935 -1.66611 -3.60552e-17)
(25.1529 -1.35015 -1.81179e-16)
(25.6445 -0.977637 -1.00701e-16)
(26.0602 -0.566866 0)
(26.4002 -0.130651 -3.17728e-19)
(26.6653 0.321065 2.74179e-18)
(26.8559 0.777949 -6.16666e-19)
(26.9732 1.22967 -1.39402e-16)
(27.0201 1.6669 -1.92423e-17)
(26.999 2.0812 -2.97425e-16)
(26.9122 2.46537 2.16347e-16)
(26.754 2.81602 0)
(26.5276 3.12634 -1.51661e-18)
(26.1627 3.40076 -5.55842e-17)
(25.7277 3.53563 1.43509e-15)
(24.7309 3.55952 -1.44264e-17)
(17.8223 11.7762 2.03702e-17)
(18.3708 12.4595 0)
(19.0412 13.1674 1.3544e-16)
(19.8054 13.8495 -1.0807e-16)
(20.6347 14.459 1.48036e-17)
(21.5631 15.0132 3.54735e-17)
(22.5652 15.4842 -1.01961e-16)
(23.6221 15.852 -1.51164e-16)
(24.734 16.1101 0)
(25.8826 16.2461 -3.21125e-16)
(27.0545 16.2504 -3.58151e-16)
(28.2389 16.1163 3.54115e-16)
(29.4172 15.8376 1.37351e-15)
(30.5716 15.4102 5.68686e-16)
(31.6823 14.8333 -1.72964e-15)
(32.7263 14.1099 -1.26637e-15)
(33.6809 13.2472 1.00647e-15)
(34.5227 12.2572 7.5125e-16)
(35.231 11.1568 -3.87976e-16)
(35.7846 9.969 3.91514e-16)
(36.1668 8.72202 9.94634e-16)
(36.3684 7.44912 1.84828e-16)
(36.3891 6.18673 -1.74909e-16)
(36.2394 4.97073 -1.16338e-15)
(35.9406 3.82899 0)
(35.5197 2.77038 -6.10831e-16)
(34.9985 1.78899 -2.91674e-16)
(34.3871 0.882758 -2.68914e-16)
(33.6902 0.0566613 -9.93306e-16)
(32.9143 -0.685018 3.70867e-15)
(32.0647 -1.33953 1.5211e-15)
(31.1447 -1.90378 4.50193e-18)
(30.1552 -2.37556 3.41628e-17)
(29.0972 -2.75302 0)
(27.9537 -3.03172 -3.19687e-15)
(26.7376 -3.1963 0)
(25.3131 -3.22306 0)
(23.963 -2.92581 3.44086e-16)
(21.4711 -2.53701 6.11462e-18)
(17.3542 11.0773 -6.71683e-17)
(16.9387 10.3529 2.14665e-16)
(16.5541 9.49751 1.57301e-17)
(16.2095 8.53572 2.89612e-16)
(15.9605 7.5267 -9.3658e-16)
(15.8152 6.45685 6.12097e-16)
(15.7881 5.35285 1.74455e-17)
(15.8826 4.27934 -5.79089e-16)
(16.0898 3.27725 -5.58175e-16)
(16.3985 2.35435 -5.86813e-16)
(16.7903 1.52374 -1.1367e-15)
(17.2461 0.795609 0)
(17.7545 0.165064 -5.6539e-16)
(18.3049 -0.37348 -1.83915e-17)
(18.8865 -0.822711 0)
(19.4921 -1.18831 -4.55173e-16)
(20.1147 -1.47444 -2.15522e-16)
(20.7476 -1.68515 -1.98522e-16)
(21.3857 -1.82396 6.64646e-16)
(22.0247 -1.89362 5.78014e-16)
(22.6609 -1.89502 -5.66344e-17)
(23.2897 -1.82747 4.17432e-16)
(23.9048 -1.6884 7.08825e-17)
(24.4949 -1.47601 -3.56643e-17)
(25.0422 -1.1935 1.62613e-16)
(25.5283 -0.853142 9.36395e-18)
(25.9439 -0.471136 0)
(26.2872 -0.0601976 0)
(26.558 0.369484 3.9607e-19)
(26.756 0.80758 -1.86744e-18)
(26.8817 1.24373 1.1363e-16)
(26.9376 1.66852 -1.89626e-17)
(26.9256 2.0733 -2.30291e-16)
(26.8475 2.45036 -2.08034e-16)
(26.6975 2.79523 -2.15227e-18)
(26.4784 3.0989 4.0318e-18)
(26.1251 3.36324 1.09163e-15)
(25.7022 3.48099 -1.41021e-15)
(24.7856 3.48 1.35412e-17)
(18.5294 11.2679 7.94589e-18)
(19.0419 11.8934 0)
(19.6672 12.5424 -6.86892e-17)
(20.3771 13.1675 0)
(21.143 13.7254 2.45932e-18)
(21.9985 14.2342 -2.37387e-18)
(22.9196 14.6687 7.61623e-17)
(23.8887 15.0108 1.4208e-16)
(24.9074 15.2557 0)
(25.9599 15.3924 -2.01024e-16)
(27.0352 15.4124 3.64763e-16)
(28.1256 15.309 -7.60805e-16)
(29.2153 15.0755 -4.31829e-16)
(30.2893 14.7071 -4.48213e-16)
(31.3302 14.2011 1.1031e-15)
(32.3176 13.5578 1.20824e-15)
(33.2299 12.7819 -1.30785e-15)
(34.045 11.8823 -1.31155e-15)
(34.7419 10.8734 0)
(35.3001 9.77385 3.59224e-16)
(35.7019 8.60886 -6.953e-16)
(35.9363 7.40902 1.70346e-16)
(36.0004 6.20844 3.03909e-18)
(35.9013 5.04117 2.74741e-15)
(35.6557 3.93384 -1.5037e-16)
(35.2853 2.89712 9.11956e-17)
(34.8096 1.92968 2.70428e-16)
(34.2394 1.03186 2.86181e-16)
(33.5806 0.209267 8.57228e-16)
(32.8395 -0.532763 -1.71222e-15)
(32.0219 -1.19051 -1.39852e-15)
(31.1313 -1.75996 -5.45431e-15)
(30.1685 -2.23784 4.6615e-15)
(29.1342 -2.62096 -6.56004e-17)
(28.0107 -2.90383 2.97832e-15)
(26.8098 -3.06873 -9.09382e-17)
(25.4017 -3.09419 4.99291e-17)
(24.0701 -2.78431 5.62016e-18)
(21.8721 -2.39443 -2.07516e-15)
(18.0892 10.6282 3.4541e-17)
(17.6972 9.9661 -1.08445e-16)
(17.3295 9.18299 2.07436e-16)
(16.9952 8.30127 0)
(16.746 7.37598 5.35377e-16)
(16.5889 6.39179 0)
(16.5373 5.37395 0)
(16.5955 4.38231 0)
(16.7557 3.4544 1.03682e-15)
(17.0081 2.59606 -5.00323e-16)
(17.3366 1.81897 5.64843e-16)
(17.7245 1.13244 0)
(18.1627 0.531184 0)
(18.6427 0.00984715 -4.8376e-16)
(19.1562 -0.433391 0)
(19.6979 -0.802798 4.25855e-16)
(20.2623 -1.101 7.99338e-18)
(20.8435 -1.32997 0)
(21.4367 -1.49127 -4.78126e-16)
(22.0373 -1.58608 -6.90285e-16)
(22.6405 -1.61432 -4.67491e-16)
(23.2412 -1.57479 -3.85878e-16)
(23.8325 -1.46502 6.29348e-16)
(24.4034 -1.28366 0)
(24.937 -1.03361 1.78958e-16)
(25.4159 -0.724828 1.41745e-16)
(25.8297 -0.371542 4.12111e-17)
(26.175 0.0139101 0)
(26.4504 0.421208 -3.74675e-19)
(26.655 0.840026 1.01279e-17)
(26.7888 1.25998 -8.67255e-17)
(26.8533 1.67155 -1.86165e-17)
(26.8501 2.06589 2.12488e-16)
(26.7807 2.43478 -1.41735e-16)
(26.6392 2.77276 -2.58426e-18)
(26.4279 3.06883 -1.41426e-18)
(26.0871 3.32228 -1.13878e-15)
(25.6772 3.42407 1.32266e-15)
(24.8372 3.39983 4.17981e-15)
(19.1586 10.8048 4.86964e-18)
(19.6397 11.3792 -2.41529e-17)
(20.2255 11.9759 0)
(20.8883 12.5499 -7.02906e-17)
(21.5993 13.0614 0)
(22.3918 13.5286 0)
(23.2426 13.9286 2.08654e-17)
(24.1352 14.2453 1.32153e-16)
(25.0724 14.475 3.18568e-16)
(26.0401 14.6083 8.68109e-16)
(27.0294 14.6376 5.13977e-16)
(28.0346 14.5566 6.12748e-16)
(29.0425 14.359 0)
(30.0408 14.0388 1.2499e-15)
(31.0146 13.5924 -4.44712e-16)
(31.9455 13.0185 0)
(32.8138 12.3194 1.0895e-15)
(33.5987 11.5014 1.254e-15)
(34.2797 10.5761 0)
(34.837 9.55952 1.27137e-15)
(35.2519 8.47423 -1.24651e-15)
(35.5124 7.34757 0)
(35.6135 6.21058 -1.48653e-16)
(35.5594 5.09491 2.80128e-17)
(35.3626 4.02573 7.07271e-17)
(35.0402 3.0148 1.06231e-15)
(34.609 2.06443 -3.65413e-18)
(34.0798 1.17755 -2.82912e-17)
(33.459 0.360679 -2.37843e-17)
(32.753 -0.379859 5.18773e-17)
(31.9674 -1.03921 1.40788e-15)
(31.1064 -1.61243 4.9318e-15)
(30.1712 -2.09518 3.89543e-17)
(29.1627 -2.48298 -3.51638e-15)
(28.0639 -2.76939 -2.70383e-15)
(26.8859 -2.93434 -3.91424e-15)
(25.5055 -2.95872 -2.19403e-15)
(24.1729 -2.64034 1.43e-17)
(22.1746 -2.23815 1.92158e-15)
(18.7431 10.2171 -7.32092e-17)
(18.3719 9.60969 -2.5569e-16)
(18.0197 8.88992 4.95411e-16)
(17.6957 8.07827 0)
(17.4482 7.22616 8.48162e-16)
(17.283 6.31758 0)
(17.2129 5.37596 -4.17862e-16)
(17.2425 4.45722 1.66655e-15)
(17.3654 3.59601 -1.27275e-15)
(17.5722 2.79701 0)
(17.8487 2.07045 9.13877e-16)
(18.1801 1.42483 8.70532e-16)
(18.5587 0.854519 0)
(18.9778 0.354284 -8.34702e-16)
(19.4307 -0.0774584 1.97518e-16)
(19.914 -0.444464 -1.97618e-16)
(20.4234 -0.748247 1.88515e-16)
(20.9544 -0.989395 3.24142e-16)
(21.5027 -1.16799 -1.49472e-17)
(22.0637 -1.28383 3.74903e-16)
(22.6325 -1.33575 1.02137e-16)
(23.2033 -1.32197 -1.01425e-16)
(23.7693 -1.23992 -3.022e-16)
(24.3197 -1.08827 2.47171e-16)
(24.8383 -0.86943 -1.59269e-16)
(25.3082 -0.591552 -1.45526e-16)
(25.7185 -0.266928 -3.92639e-17)
(26.0644 0.0927381 -2.26289e-19)
(26.3434 0.477134 5.84836e-19)
(26.5538 0.876035 -9.69708e-18)
(26.6949 1.27904 1.01211e-17)
(26.7677 1.67651 -1.8206e-17)
(26.7733 2.05941 -1.48887e-16)
(26.7125 2.41904 1.45867e-16)
(26.5797 2.74907 -8.08236e-19)
(26.3766 3.03677 -6.16278e-17)
(26.0491 3.279 5.7311e-16)
(25.6533 3.36633 0)
(24.886 3.32059 -4.01494e-15)
(19.7214 10.3803 1.28405e-17)
(20.1747 10.9093 0)
(20.7256 11.459 0)
(21.3468 11.9872 1.096e-16)
(22.0098 12.4567 -2.01518e-17)
(22.747 12.8859 0)
(23.5361 13.2537 0)
(24.3616 13.5458 -4.05427e-16)
(25.227 13.7597 -2.15908e-17)
(26.1194 13.8869 -2.84633e-17)
(27.0315 13.9211 -1.19262e-15)
(27.9595 13.8565 -3.24465e-16)
(28.8922 13.6871 6.27024e-16)
(29.8196 13.407 -5.41471e-17)
(30.7289 13.0116 0)
(31.6041 12.4985 0)
(32.4274 11.8682 -2.98438e-15)
(33.1795 11.1246 -5.55721e-16)
(33.8406 10.2773 5.6865e-16)
(34.392 9.33908 -1.23239e-15)
(34.815 8.32967 2.3473e-15)
(35.096 7.27352 1.1141e-15)
(35.2286 6.19898 -1.08006e-15)
(35.2145 5.13538 -1.22077e-15)
(35.0624 4.10637 1.93366e-16)
(34.7855 3.12406 -1.04552e-15)
(34.3976 2.19349 -1.17966e-16)
(33.909 1.31997 2.62897e-17)
(33.3262 0.511008 -2.61919e-17)
(32.6556 -0.226038 8.7784e-17)
(31.9027 -0.885268 -3.63217e-17)
(31.0718 -1.46081 -2.4345e-15)
(30.1646 -1.94721 -9.10456e-17)
(29.1825 -2.33875 1.07281e-16)
(28.1102 -2.62797 0)
(26.9585 -2.79266 3.63593e-15)
(25.6153 -2.81563 2.05376e-15)
(24.2903 -2.49456 0)
(22.4308 -2.07532 0)
(19.3281 9.83876 0)
(18.9756 9.27962 2.2692e-16)
(18.6379 8.616 -7.33098e-16)
(18.324 7.86613 -3.43096e-16)
(18.0796 7.07872 -7.69848e-16)
(17.9091 6.23734 0)
(17.8249 5.3637 0)
(17.8321 4.51033 -7.49337e-16)
(17.9249 3.70947 7.71067e-16)
(18.0946 2.96478 0)
(18.3283 2.2854 -3.859e-16)
(18.6126 1.67929 -4.10062e-16)
(18.9406 1.1406 3.82602e-16)
(19.307 0.663743 3.90526e-16)
(19.7064 0.247111 -7.21117e-16)
(20.1367 -0.112699 0)
(20.5951 -0.416749 -1.56726e-16)
(21.078 -0.664775 1.23637e-17)
(21.582 -0.855878 6.78071e-16)
(22.1031 -0.988719 -1.17798e-16)
(22.6364 -1.06112 1.12387e-16)
(23.1762 -1.0707 -8.24633e-17)
(23.7157 -1.01456 1.14949e-16)
(24.2442 -0.891182 -5.09874e-16)
(24.7463 -0.702313 -1.69453e-16)
(25.2056 -0.454496 1.28023e-16)
(25.6107 -0.158281 -7.20354e-18)
(25.9558 0.175456 0)
(26.2373 0.536607 -1.72264e-18)
(26.4526 0.915077 1.5533e-18)
(26.6006 1.30052 2.5003e-17)
(26.6813 1.68317 -7.01385e-17)
(26.6954 2.05387 2.56511e-16)
(26.6434 2.40342 -1.82573e-16)
(26.5195 2.72471 2.34218e-18)
(26.3251 3.00358 5.99555e-17)
(26.0116 3.23441 1.5179e-17)
(25.6309 3.30918 -3.97122e-17)
(24.9324 3.2446 -3.59011e-15)
(20.2274 9.98917 -1.16112e-17)
(20.6558 10.4774 0)
(21.1755 10.9848 0)
(21.7596 11.4715 -3.78029e-17)