/*--------------------------------*- C++ -*----------------------------------*\
  =========                 |
  \\      /  F ield         | OpenFOAM: The Open Source CFD Toolbox
   \\    /   O peration     | Website:  https://openfoam.org
    \\  /    A nd           | Version:  13
     \\/     M anipulation  |
\*---------------------------------------------------------------------------*/
FoamFile
{
    format      ascii;
    class       volScalarField;
    location    "2.35";
    object      alphas;
}
// * * * * * * * * * * * * * * * * * * * * * * * * * * * * * * * * * * * * * //

dimensions      [];

internalField   nonuniform List<scalar> 
2268
(
2
2
2
2
2
2
2
2
2
2
2
2
2
2
2
2
2
2
2
1.99995
1.99959
1.99943
1.99943
2
2
2
2
2
2
2
2
2
2
2
2
2
2
2
2
2
2
2
1.99999
1.99998
1.99993
1.99968
2
2
2
2
2
2
2
2
2
2
2
2
2
2
2
2
2
2
2
2
2
2
2
2
2
2
2
2
2
2
2
2
2
2
2
2
2
2
2
2
2
2
2
2
2
2
2
2
2
2
2
2
2
2
2
2
2
2
2
2
2
2
2
2
2
2
2
2
2
1.89112
1.91143
1.92661
1.94312
1.96242
1.9796
1.99182
1.99824
2
2
2
2
2
2
2
2
2
1.98736
1.95194
1.92199
1.90056
1.91156
1.95893
0.439444
0.50214
0.547215
0.599696
0.675975
0.777365
0.89631
1.02167
1.13878
1.23033
1.27619
1.2627
1.21734
1.15166
1.06075
0.947128
0.817663
0.698767
0.614037
0.548432
0.510439
0.541606
0.700165
2.05992e-08
4.58646e-08
1.96366e-07
5.4336e-06
4.40233e-06
9.02675e-07
1.08824e-07
1.17595e-08
3.58934e-09
3.07156e-09
0.00362779
0.0226837
0.0257323
0.0172669
0.00739196
0.0013037
9.38552e-07
2.34888e-06
3.232e-05
0.000196295
0.00049349
0.00101238
0.0020008
1.8474
1.85674
1.86269
1.85567
1.86543
1.88665
1.96805
1.79945
1.75679
1.72374
1.72374
1.73227
1.75059
1.68965
1.74791
1.68346
1.7073
1.7759
1.76582
1.44764
1.43262
1.46226
1.51211
1.5205
1.52422
1.59282
1.74747
1.80712
1.84287
1.93802
1.88603
1.8143
1.82364
1.78965
1.73454
1.75009
1.77602
1.76692
0.731815
0.581039
0.693007
0.881561
1.04284
1.0207
0.72439
0.799166
1.02631
1.53911
2.06933
2.13985
1.94933
1.93329
2.05508
2.01955
1.81037
1.69038
1.60453
0.371871
0.340737
0.349123
0.397221
0.660428
0.901795
0.692299
0.351142
0.219747
0.274271
1.62194
2.51541
2.26907
2.2604
2.34757
2.25258
1.89432
1.6694
1.6179
0.237907
0.255107
0.256675
0.308229
0.632569
0.890686
0.883582
0.774467
0.205244
0.0147552
0.651389
2.07999
2.39647
2.39185
2.32204
2.26873
2.08853
1.81111
1.8754
0.255815
0.256382
0.23797
0.200903
0.791127
1.08041
1.0958
0.872074
0.242626
0.0145948
0.021532
1.75461
2.09892
2.23109
2.1763
0.979266
0.498356
0.632269
1.56177
0.246563
0.272701
0.260042
0.220183
1.00955
1.15537
1.00092
0.300977
0.0482029
0.00973911
0.000879777
0.478506
1.98517
2.0097
1.10291
0.173717
0.000286121
0.00271179
0.881619
0.387459
0.270402
0.259953
0.384999
1.27962
1.26892
0.431271
0.0140915
0.00058492
0.000663922
0.000551628
0.0265254
0.686914
0.883639
0.243418
0.000267805
0.000314241
0.0124865
0.404619
3.49823e-08
1.14218e-07
7.86793e-07
1.82021e-06
7.89146e-06
1.41764e-06
2.00306e-07
2.39512e-08
1.00833e-08
8.11742e-09
8.93974e-09
1.03235e-08
4.15177e-08
2.10166e-08
5.24053e-08
1.44733e-07
1.12156e-08
3.69222e-06
1.60775e-05
1.1714e-05
5.06686e-06
1.39803e-06
-1.27223e-05
6.20203e-08
9.00467e-07
5.45561e-05
0.000515326
6.41905e-05
1.49839e-06
1.09476e-07
6.54799e-08
3.95694e-08
3.13244e-08
2.72451e-08
2.19739e-08
1.20339e-08
1.24085e-08
2.17537e-08
3.15646e-09
7.99386e-09
9.88001e-09
7.81075e-09
6.00976e-09
0.00409163
0.0310095
0.0272108
2.39232e-07
0.00136415
0.00715815
0.00172987
6.66304e-05
8.8573e-07
5.976e-07
5.12586e-07
5.36071e-07
5.08062e-07
2.78185e-07
4.50586e-08
0.000608736
0.000800393
2.35488e-08
0.0170278
0.0301868
0.0656867
0.215191
0.35524
0.406024
0.431515
0.409922
0.133297
0.0727162
0.0202456
0.0261925
0.032046
0.0291973
0.110591
0.179602
0.180638
0.193802
0.218371
0.264531
0.371346
0.476661
0.561629
0.666837
0.785842
0.912057
1.01067
1.03523
1.01605
1.08725
1.26572
0.499224
0.420931
0.547349
0.647815
0.661156
0.654872
0.906394
0.961652
1.0705
1.14208
1.19558
1.27683
1.32188
1.28398
1.23984
1.2736
1.28697
1.08858
1.02967
1.02553
1.02173
1.15324
1.18273
0.906983
0.977773
0.999916
1.00168
1.008
1.16614
1.24141
1.10984
1.05659
1.10734
1.13649
1.03846
1.00004
1.00322
1.02805
1.03971
1.02786
1.00215
1.0001
1.00114
1.00962
1.01775
1.00381
1.05321
0.998419
0.999569
0.999945
1
1
1
1
1
1
1
1
1
1
1
1
1
1
1.0001
1.00014
1.00004
1
1
1.05374
0.998317
1.12432
1.1621
1.12076
1.14515
1.1633
1.08553
1.03853
1.02506
1.0163
1.0064
1.00027
1
1
1
1
1
1
1
1
1
0.999999
1.16606
1.84403
2.45604
2.62735
2.7122
2.75416
2.58609
2.37596
2.2704
2.22807
2.16663
2.04037
1.89423
1.77504
1.69072
1.62424
1.58826
1.56943
1.55191
1.51536
1.49314
1.53021
1.5711
2.52961
2.94314
2.99995
2.99998
2.99999
3
3
3
3
3
3
3
3
3
3
3
2.99374
2.99467
2.99127
2.98536
2.99652
3
3
2.99985
2.99995
2.99999
2.99998
2.99998
3
3
3
3
3
3
3
3
3
3
3
3
3
3
3
3
3
3
3
3
2.99999
2.99992
2.99987
2.99995
3
3
2.99999
2.99996
2.99999
3
3
3
3
3
3
3
3
3
3
3
3
3
3
3
2.99987
2.99986
2.99994
3
2.99998
2.99982
2.99967
2.9999
2.99999
3
3
3
3
3
3
3
3
3
3
3
3
3
2.99999
2.99993
2.99993
2.99999
3
3
2.99967
2.99967
2.99966
2.99985
2.99999
3
3
3
3
3
3
3
3
3
3
3
3
2.99999
3
3
3
3
3
2.99979
2.99967
2.99967
2.9998
2.99999
2.99999
2.99999
2.99999
3
3
3
3
3
3
3
3
3
3
3
3
3
3
3
2.99999
2.99981
2.99978
2.99994
2.99999
2.99999
2.99999
2.99999
3
3
3
3
3
3
3
3
3
3
3
3
3
3
3
3
2.99999
3
3
3
2.99999
2.99999
3
3
3
3
3
3
3
3
3
3
3
3
3
3
3
3
3
3
3
3
3
3
3
3
3
3
3
3
3
3
3
3
3
3
3
3
3
3
3
3
3
3
3
3
3
3
3
3
3
3
3
3
3
3
3
3
3
3
3
3
3
3
3
3
3
3
3
3
3
3
3
3
3
3
3
3
3
3
3
3
3
3
3
3
3
3
3
3
3
3
3
3
3
3
3
3
3
3
3
3
3
3
3
3
3
3
3
3
3
3
3
3
3
3
3
3
3
3
3
3
3
3
3
3
3
3
3
3
3
3
3
3
3
3
3
3
3
3
3
3
3
3
3
3
3
3
3
3
3
3
3
3
3
3
3
3
3
3
3
3
3
3
3
3
3
3
3
3
3
3
3
3
3
3
3
3
3
3
3
3
3
3
3
3
3
3
3
3
3
3
3
3
3
3
3
3
3
3
3
3
3
3
3
3
3
3
3
3
3
3
3
3
3
3
3
3
3
3
3
3
3
3
3
3
3
3
3
3
3
3
3
3
3
3
3
3
3
3
3
3
3
3
3
3
3
3
3
3
3
3
3
3
3
3
3
3
3
3
3
3
3
3
3
3
3
3
3
3
3
3
3
3
3
3
3
3
3
3
3
3
3
3
3
3
3
3
3
3
3
3
3
3
3
3
3
3
3
3
3
3
3
3
3
3
3
3
3
3
3
3
3
3
3
3
3
3
3
3
3
3
3
3
3
3
3
3
3
3
3
3
3
3
3
3
3
3
3
3
3
3
3
3
3
3
3
3
3
3
3
3
3
3
3
3
3
3
3
3
3
3
3
3
3
3
3
3
3
3
3
3
3
3
3
3
3
3
3
3
3
3
3
3
3
3
3
3
3
3
3
3
3
3
3
3
3
3
3
3
3
3
3
3
3
3
3
3
3
3
3
3
3
3
3
3
3
3
3
3
3
3
3
3
3
3
3
3
3
3
3
3
3
3
3
3
3
3
3
3
3
3
3
3
3
3
3
3
3
3
3
3
3
3
3
3
3
3
3
3
3
3
3
3
3
3
3
3
3
3
3
3
3
3
3
3
3
3
3
3
3
3
3
3
3
3
3
3
3
3
3
3
3
3
3
3
3
3
3
3
3
3
3
3
3
3
3
3
3
3
3
3
3
3
3
3
3
3
3
3
3
3
3
3
3
3
3
3
3
3
3
3
3
3
3
3
3
3
3
3
3
3
3
3
3
3
3
3
3
3
3
3
3
3
3
3
3
3
3
3
3
3
3
3
3
3
3
3
3
3
3
3
3
3
3
3
3
3
3
3
3
3
3
3
3
-3.26061e-06
0.0010694
0.0480215
0.195767
0.0100236
0.00166003
0.560176
1.21742
0.745361
1.1811
1.34491
1.23831
1.28823
1.16045
1.12003
1.12098
1.04072
0.999368
0.999955
1.00011
0.999977
1.00001
1.00001
1.00001
1
1
0.99999
0.999981
0.999995
0.999995
0.999998
1
1.57745
1.62508
1.6747
1.72882
3
3
3
3
3
3
3
3
3
3
3
3
3
3
3
3
3
3
3
3
3
3
3
3
3
3
3
3
3
3
3
3
3
3
3
3
3
3
3
3
3
3
3
3
3
3
3
3
3
3
3
3
3
3
3
3
3
3
3
3
3
3
3
3
3
3
3
3
3
3
3
3
3
3
3
3
3
3
3
3
3
3
3
3
3
3
3
3
3
3
3
3
3
3
3
3
3
3
3
3
3
3
3
3
3
3
3
3
3
3
3
3
3
3
3
3
3
3
3
3
3
3
3
3
3
3
3
3
3
3
3
3
0.728354
0.405739
0.34462
0.669121
1.31482
0.875895
0.178765
0.0114892
0.00913458
0.00297469
0.00149543
0.0010201
0.00663388
0.0175152
0.000250962
0.000368783
0.00107103
0.0198443
0.238181
0.884244
0.609715
0.721091
1.17109
1.28076
0.789262
0.560132
0.321019
0.196404
0.0842518
0.0233136
0.00373966
0.00149289
0.00104966
0.0013476
0.0137152
0.0299599
0.151414
0.181538
1.22364
1.11978
1.02203
1.08957
1.21144
1.1752
1.18636
0.972454
0.926721
0.849677
0.756463
0.648456
0.559123
0.536348
0.553693
0.580878
0.621049
0.858593
0.915834
1.03299
1.00106
1.00101
1.03785
1.14135
1.15876
1.03338
1.00046
1.00004
1.00002
1.00002
1.00006
0.999841
0.999472
0.999702
1.00041
1.0007
1.03818
1.09296
1
1.00074
1.00185
1.00806
1.00317
1.00001
1
1
1.00002
1.00001
1
1
1.00004
1.00035
1.00049
1.00038
1.00023
1.00009
1.00104
1.00001
1.00007
1.00024
1
1
1
1
1
1
1
1
1
1
1
1
1.00002
0.999669
0.998759
0.998313
0.999996
1
1
1
1
1
1
1
1
1
0.999999
0.999985
1.00045
1.04422
1.1423
1.27476
1.40158
1.46253
1.3928
0.999999
1.00052
1.00011
1
1
1.00564
1.05883
1.13389
1.22652
1.33757
1.48783
1.7372
2.13913
2.47587
2.67641
2.80582
2.8866
2.89072
2.7925
1.81378
1.89729
1.97617
2.06278
2.17251
2.31897
2.45282
2.58857
2.72191
2.84734
2.9519
2.99512
2.9902
2.99026
2.99562
2.99949
2.99914
2.99888
2.99789
3
3
3
3
2.99998
2.99998
2.99995
2.99988
2.99925
2.99844
2.99844
2.99892
2.99932
2.99959
2.99998
3
3
3
3
3
3
3
3
2.99995
2.99981
2.9998
2.99984
2.99982
2.99981
2.99868
2.99793
2.99794
2.9997
3
3
3
3
3
3
3
3
3
2.99883
2.99804
2.99804
2.99928
2.99999
2.99998
2.99879
2.99797
2.99958
3
3
3
3
3
3
3
3
3
3
2.99935
2.99804
2.99804
2.99835
3
3
3
3
3
3
3
3
3
3
3
3
3
3
3
3
2.99999
2.99983
2.99988
2.99995
3
3
3
3
3
3
3
3
3
3
3
3
3
3
3
3
3
3
3
3
3
3
3
3
3
3
3
3
3
3
3
3
3
3
3
3
3
3
3
3
3
3
3
3
3
3
3
3
3
3
3
3
3
3
3
3
3
3
3
3
3
3
3
3
3
3
3
3
3
3
3
3
3
3
3
3
3
3
3
3
3
3
3
3
3
3
3
3
3
3
3
3
3
3
3
3
3
3
3
3
3
3
3
3
3
3
3
3
3
3
3
3
3
3
3
3
3
3
3
3
3
3
3
3
3
3
3
3
3
3
3
3
3
3
3
3
3
3
3
3
3
3
3
3
3
3
3
3
3
3
3
3
3
3
3
3
3
3
3
3
3
3
3
3
3
3
3
3
3
3
3
3
3
3
3
3
3
3
3
3
3
3
3
3
3
3
3
3
3
3
3
3
3
3
3
3
3
3
3
3
3
3
3
3
3
3
3
3
3
3
3
3
3
3
3
3
3
3
3
3
3
3
3
3
3
3
3
3
3
3
3
3
3
3
3
3
3
3
3
3
3
3
3
3
3
3
3
3
3
3
3
3
3
3
3
3
3
3
3
3
3
3
3
3
3
3
3
3
3
3
3
3
3
3
3
3
3
3
3
3
3
3
3
3
3
3
3
3
3
3
3
3
3
3
3
3
3
3
3
3
3
3
3
3
3
3
3
3
3
3
3
3
3
3
3
3
3
3
3
3
3
3
3
3
3
3
3
3
3
3
3
3
3
3
3
3
3
3
3
3
3
3
3
3
3
3
3
3
3
3
3
3
3
3
3
3
3
3
3
3
3
3
3
3
3
3
3
3
3
3
3
3
3
3
3
3
3
3
3
3
3
3
3
3
3
3
3
3
3
3
3
3
3
3
3
3
3
3
3
3
3
3
3
3
3
3
3
3
3
3
3
3
3
3
3
3
3
3
3
3
3
3
3
3
3
3
3
3
3
3
3
3
3
3
3
3
3
3
3
3
3
3
3
3
3
3
3
3
3
3
3
3
3
3
3
3
3
3
3
3
3
3
3
3
3
3
3
3
3
3
3
3
3
3
3
3
3
3
3
3
3
3
3
3
3
3
3
3
3
3
3
3
3
3
3
3
3
3
3
3
3
3
3
3
3
3
3
3
3
3
3
3
3
3
3
3
3
3
3
3
3
3
3
3
3
3
3
3
3
3
3
3
3
3
3
3
3
3
3
3
3
3
)
;

boundaryField
{
    leftWall
    {
        type            calculated;
        value           nonuniform List<scalar> 
50
(
2
2
2
2
2
1.89112
0.439444
2.05992e-08
3.49823e-08
6.20203e-08
2.39232e-07
0.133297
0.499224
0.906983
1.05321
1.05374
1.16606
2.52961
2.99985
3
3
3
3
3
3
3
3
3
3
3
3
3
3
3
3
3
3
3
3
3
3
3
3
3
3
3
3
3
3
3
)
;
    }
    rightWall
    {
        type            calculated;
        value           nonuniform List<scalar> 
50
(
1.76582
1.76692
1.60453
1.6179
1.8754
1.56177
0.881619
0.404619
0.238181
0.181538
0.915834
1.09296
1.00104
0.998313
1.3928
2.7925
2.99789
3
3
3
3
3
3
3
3
3
3
3
3
3
3
3
3
3
3
3
3
3
3
3
3
3
3
3
3
3
3
3
3
3
)
;
    }
    lowerWall
    {
        type            calculated;
        value           nonuniform List<scalar> 
62
(
2
2
2
2
2
2
2
2
2
2
2
2
2
2
2
2
2
2
2
1.99995
1.99959
1.99943
1.99943
1.99943
1.99968
2
2
2
1.95893
0.700165
0.0020008
-3.26061e-06
0.0010694
0.0480215
0.195767
1.8474
1.44764
0.731815
0.371871
0.237907
0.255815
0.246563
0.387459
1.8474
1.85674
1.86269
1.85567
1.86543
1.88665
1.96805
1.79945
1.75679
1.72374
1.72374
1.73227
1.75059
1.68965
1.74791
1.68346
1.7073
1.7759
1.76582
)
;
    }
    atmosphere
    {
        type            calculated;
        value           nonuniform List<scalar> 
46
(
3
3
3
3
3
3
3
3
3
3
3
3
3
3
3
3
3
3
3
3
3
3
3
3
3
3
3
3
3
3
3
3
3
3
3
3
3
3
3
3
3
3
3
3
3
3
)
;
    }
    defaultFaces
    {
        type            empty;
    }
}


// ************************************************************************* //
