/*--------------------------------*- C++ -*----------------------------------*\
  =========                 |
  \\      /  F ield         | OpenFOAM: The Open Source CFD Toolbox
   \\    /   O peration     | Website:  https://openfoam.org
    \\  /    A nd           | Version:  13
     \\/     M anipulation  |
\*---------------------------------------------------------------------------*/
FoamFile
{
    format      ascii;
    class       volScalarField;
    location    "2.35";
    object      alpha.air;
}
// * * * * * * * * * * * * * * * * * * * * * * * * * * * * * * * * * * * * * //

dimensions      [];

internalField   nonuniform List<scalar> 
2268
(
5.25078e-13
4.7836e-13
4.67674e-13
4.03747e-13
2.99998e-13
1.80408e-13
9.06624e-14
4.01905e-14
1.58798e-14
1.08537e-14
1.05466e-14
1.43508e-14
3.4141e-14
1.00944e-13
2.17607e-13
3.09881e-13
4.37566e-13
1.13654e-12
2.53645e-12
3.15392e-12
1.92877e-12
3.49554e-13
3.49554e-13
1.99509e-12
2.04814e-12
1.86621e-12
1.5149e-12
1.25178e-12
8.15348e-13
4.23491e-13
2.20837e-13
1.17064e-13
1.01862e-13
1.3462e-13
3.45742e-13
9.74573e-13
2.54443e-12
4.92385e-12
6.32106e-12
9.79596e-12
2.63687e-11
4.29416e-11
6.86917e-11
1.2316e-10
3.59528e-10
2.9324e-11
5.25297e-12
6.13479e-12
5.50062e-12
4.20882e-12
3.71353e-12
2.33137e-12
9.50785e-13
4.94423e-13
3.89049e-13
4.87524e-13
9.8864e-13
2.41646e-12
6.31214e-12
1.60494e-11
3.67541e-11
8.3798e-11
1.59016e-10
2.53116e-10
4.35717e-10
9.25838e-10
2.19218e-09
3.91481e-09
1.17478e-09
1.65532e-11
1.52335e-11
1.4071e-11
1.39643e-11
1.20239e-11
9.59158e-12
5.73609e-12
2.49224e-12
1.68955e-12
1.72106e-12
2.74228e-12
7.01937e-12
1.62537e-11
4.38e-11
1.03007e-10
2.01524e-10
3.55373e-10
5.42442e-10
7.85166e-10
1.02585e-09
1.46926e-09
2.34676e-09
1.12515e-09
3.25313e-11
2.42795e-11
1.39045e-11
1.59467e-11
1.43327e-11
1.58908e-11
1.86831e-11
1.61225e-11
1.17436e-11
9.20535e-12
8.58206e-12
1.25371e-11
2.49296e-11
5.69751e-11
1.16684e-10
1.57204e-10
2.00903e-10
2.72182e-10
1.59067e-10
1.57411e-10
2.36163e-10
5.64469e-10
2.60237e-10
3.08926e-10
1.14252e-10
7.0751e-10
1.58191e-11
1.50386e-11
1.58191e-11
2.54481e-11
4.15792e-11
3.88253e-11
3.30766e-11
3.09102e-11
3.41584e-11
4.56102e-11
6.39147e-11
8.61184e-11
9.23771e-11
1.09774e-10
5.8336e-11
8.30484e-12
6.20968e-06
6.29506e-05
0.000192832
0.000332888
2.86428e-09
4.45679e-09
1.36594e-08
9.05073e-07
5.06573e-07
5.15346e-08
1.78244e-09
3.73405e-10
2.03203e-10
1.4644e-10
1.45147e-10
1.74544e-10
2.91169e-10
2.027e-10
8.69221e-11
1.01365e-10
1.18845e-07
1.81715e-08
1.81712e-11
3.99758e-05
0.000423873
0.00119232
0.00120354
5.65834e-09
1.42088e-08
6.46226e-08
1.81623e-06
1.4679e-06
3.00496e-07
3.59291e-08
3.74382e-09
1.12381e-09
7.86961e-10
6.94812e-10
7.39718e-10
1.19512e-09
7.41298e-10
8.72616e-11
4.35165e-08
5.93378e-08
4.56393e-09
1.05093e-05
6.54224e-05
0.000162061
0.000328089
0.000650982
0.000342533
0.000339209
0.00277591
0.0157037
0.0262005
0.0335184
0.0610816
0.0655934
0.0609344
0.0444294
0.044577
0.0579136
0.0765436
0.0796881
0.0604019
0.0281893
0.0138885
0.0138564
0.0138615
0.00597787
0.00647958
0.00571266
0.00414715
0.00212709
0.00230673
0.00478574
0.0173131
0.015257
0.0336972
0.0629247
0.0536501
0.053738
0.0774752
0.0739925
0.050002
0.0172626
0.0138335
0.0138369
0.0167732
0.0177735
0.0197911
0.0237573
0.0241937
0.00859906
0.000781864
7.29189e-06
7.22939e-06
0.0302678
0.167539
0.178673
0.0966268
0.103674
0.1592
0.139016
0.0312789
0.0138168
0.0138199
0.0143592
0.014454
0.0176968
0.0264875
0.0264817
0.0192903
8.3443e-05
1.03694e-05
0.000118257
0.0115538
0.352106
0.560802
0.435739
0.43679
0.47197
0.428782
0.27361
0.142541
0.0911678
0.0143505
0.0136204
0.0137589
0.0138133
0.0165773
0.0200833
0.0198997
0.00721378
0.00244098
0.00102893
0.216194
0.572347
0.572346
0.572346
0.572312
0.572269
0.525315
0.424364
0.417035
0.0556102
0.050147
0.0231846
0.0127153
0.0126655
0.0439442
0.0651324
0.0515568
0.00405039
5.69617e-05
0.00710114
0.563907
0.572348
0.572348
0.566025
0.201527
0.0847835
0.209068
0.398686
0.0637123
0.0771281
0.0706136
0.0166407
0.0492868
0.0778116
0.102975
0.0380148
0.000581825
4.3114e-05
4.33868e-05
0.140676
0.567469
0.569867
0.265597
1.04153e-05
9.98729e-06
3.886e-06
0.158351
0.0833733
0.0746845
0.0694104
0.0733309
0.164591
0.177789
0.113524
0.00369426
6.45283e-05
4.36924e-05
3.93706e-05
3.20247e-05
0.157338
0.200763
0.0189787
1.54699e-05
3.09212e-05
3.88669e-06
3.886e-06
1.01721e-08
3.66287e-08
2.61067e-07
6.05725e-07
2.62954e-06
4.71845e-07
6.59853e-08
7.40541e-09
2.94263e-09
2.37247e-09
2.70191e-09
3.15541e-09
3.44914e-09
5.0255e-09
1.6389e-08
4.6014e-08
-2.90727e-11
1.22029e-06
5.35806e-06
3.90176e-06
1.30522e-06
3.61521e-07
-7.53829e-06
1.9338e-08
2.98956e-07
1.81844e-05
0.000171774
2.13957e-05
4.95127e-07
3.5028e-08
2.07055e-08
1.22849e-08
9.2808e-09
7.54645e-09
6.66162e-09
3.52904e-09
3.62078e-09
6.5927e-09
-4.06485e-10
1.09871e-14
-2.03696e-23
1.09845e-14
1.88924e-12
0.00136388
0.0103365
0.00907028
7.93231e-08
0.000454715
0.00238605
0.000576623
2.22092e-05
2.44728e-07
1.97878e-07
1.69741e-07
1.77586e-07
1.64555e-07
8.70423e-08
1.37806e-08
0.000202912
0.000266797
7.48239e-09
0.00567594
0.0100623
0.0218955
0.0717303
0.118413
0.122602
0.0816422
0.0319423
0.0444323
0.0242334
0.00292286
3.5321e-05
2.79337e-05
0.00482222
0.0368636
0.0598675
0.0597968
0.0619862
0.0671759
0.0777098
0.110422
0.143955
0.156265
0.157511
0.161174
0.16407
0.164965
0.136181
0.0653546
0.0651598
0.147093
0.145939
0.0351814
5.9054e-05
5.82525e-05
3.59617e-05
0.0478995
0.188856
0.202197
0.202034
0.202117
0.202045
0.201719
0.189021
0.154287
0.12818
0.144635
0.147491
0.0443441
0.0148326
0.0127671
0.0108645
0.0766166
0.091358
0.143839
0.00136305
0.000192701
0.000842197
0.00400185
0.0830677
0.120705
0.0549204
0.028294
0.0536714
0.0682433
0.0192307
2.23845e-05
0.00160898
0.0140264
0.0198572
0.0139311
0.00107627
5.1818e-05
0.000567887
0.00481192
0.00887768
0.00190725
0.0343901
6.54538e-05
6.29566e-05
2.85345e-06
5.23626e-07
1.8494e-07
2.67641e-07
3.78295e-07
2.85923e-07
1.99252e-07
1.3458e-07
1.636e-07
5.43947e-18
-2.38737e-20
-1.73032e-20
9.68427e-12
1.99337e-09
2.83852e-08
5.16047e-05
7.10358e-05
1.86506e-05
2.28396e-18
3.50926e-10
0.027103
0.000160529
0.0622076
0.0810505
0.0603822
0.0725751
0.0816495
0.0427666
0.0192671
0.0125278
0.00814796
0.00319986
0.000136116
-4.06194e-19
-1.07459e-19
9.5567e-20
-2.50738e-17
-5.99009e-19
5.34374e-19
-5.37367e-19
2.7931e-19
6.11729e-20
-1.27412e-13
0.0830277
0.422069
0.728038
0.813677
0.856098
0.877079
0.793046
0.687982
0.635201
0.614035
0.583314
0.520187
0.447113
0.387522
0.345359
0.312121
0.294129
0.284714
0.275953
0.257682
0.246571
0.265106
0.285552
0.764804
0.97157
0.999976
0.99999
0.999995
0.999998
1
1
1
1
1
1
1
1
1
1
0.996871
0.997333
0.995635
0.992679
0.998262
1
1
0.999924
0.999976
0.999995
0.999992
0.999991
0.999999
1
1
1
1
1
1
1
1
1
1
1
1
1
1
1
1
1
0.999998
0.999999
0.999997
0.999966
0.999935
0.999976
1
1
0.999997
0.999982
0.999996
0.999999
1
1
1
1
1
1
1
1
1
1
1
0.999999
0.999998
0.999998
0.999935
0.999933
0.999971
1
0.999989
0.999911
0.999837
0.999953
0.999995
1
1
1
1
1
1
1
1
1
1
1
0.999999
0.999998
0.999996
0.999966
0.999965
0.999994
1
1
0.999837
0.999835
0.999833
0.999929
0.999998
0.999999
0.999999
0.999999
0.999999
1
1
1
1
1
1
0.999999
0.999998
0.999997
1
1
1
1
1
0.999894
0.999836
0.999834
0.9999
0.999997
0.999997
0.999998
0.999998
0.999999
1
1
1
1
1
1
0.999999
0.999999
0.999998
1
1
1
1
1
0.999993
0.999903
0.999889
0.999973
0.999997
0.999997
0.999997
0.999997
0.999999
1
1
1
1
1
1
1
0.999999
0.999999
1
1
1
1
1
1
0.999997
0.999999
0.999999
0.999998
0.999997
0.999998
0.999999
1
1
1
1
1
1
1
1
1
1
1
1
1
1
1
1
1
1
1
0.999999
0.999999
0.999999
1
1
1
1
1
1
1
1
1
1
1
1
1
1
1
1
1
1
1
0.999999
0.999999
0.999999
1
1
1
1
1
1
1
1
1
1
1
1
1
1
1
1
1
1
1
1
1
0.999999
1
1
1
1
1
1
1
1
1
1
1
1
1
1
1
1
1
1
1
1
1
1
1
1
1
1
1
1
1
1
1
1
1
1
1
1
1
1
1
1
1
1
1
1
1
1
1
1
1
1
1
1
1
1
1
1
1
1
1
1
1
1
1
1
1
1
1
1
1
1
1
1
1
1
1
1
1
1
1
1
1
1
1
1
1
1
1
1
1
1
1
1
1
1
1
1
1
1
1
1
1
1
1
1
1
1
1
1
1
1
1
1
1
1
1
1
1
1
1
1
1
1
1
1
1
1
1
1
1
1
1
1
1
1
1
1
1
1
1
1
1
1
1
1
1
1
1
1
1
1
1
1
1
1
1
1
1
1
1
1
1
1
1
1
1
1
1
1
1
1
1
1
1
1
1
1
1
1
1
1
1
1
1
1
1
1
1
1
1
1
1
1
1
1
1
1
1
1
1
1
1
1
1
1
1
1
1
1
1
1
1
1
1
1
1
1
1
1
1
1
1
1
1
1
1
1
1
1
1
1
1
1
1
1
1
1
1
1
1
1
1
1
1
1
1
1
1
1
1
1
1
1
1
1
1
1
1
1
1
1
1
1
1
1
1
1
1
1
1
1
1
1
1
1
1
1
1
1
1
1
1
1
1
1
1
1
1
1
1
1
1
1
1
1
1
1
1
1
1
1
1
1
1
1
1
1
1
1
1
1
1
1
1
1
1
1
1
1
1
1
1
1
1
1
1
1
1
1
1
1
1
1
1
1
1
1
1
1
1
1
1
1
1
1
1
1
1
1
1
1
1
1
1
1
1
1
1
1
1
1
1
1
1
1
1
1
1
1
1
1
1
1
1
1
1
1
1
1
1
1
1
1
1
1
1
1
1
1
1
1
1
1
1
1
1
1
1
1
1
1
1
1
1
1
1
1
1
1
1
1
1
1
1
1
1
1
1
1
1
1
1
1
1
1
1
1
1
1
1
1
1
1
1
1
1
1
1
1
1
1
1
1
1
1
1
1
1
1
1
1
1
1
1
1
1
1
1
1
1
1
1
1
1
1
1
1
1
1
1
1
1
1
1
1
1
1
1
1
1
1
1
1
1
1
1
1
1
1
1
1
1
1
1
1
1
1
1
1
1
1
1
1
1
1
1
1
1
1
1
1
1
1
1
1
1
1
-2.46176e-06
0.00035738
0.00051356
0.000770755
0.00334121
0.000547987
0.0443931
0.174581
0.112207
0.177026
0.186465
0.186506
0.146584
0.0811863
0.0688207
0.068485
0.0204936
6.81047e-05
2.30163e-19
2.03303e-15
2.17927e-06
2.58154e-06
1.10105e-05
1.55453e-05
2.21127e-06
3.32592e-06
2.90361e-06
6.81936e-07
4.22674e-20
-3.41379e-13
-3.87859e-19
3.5682e-07
0.288728
0.312541
0.337352
0.364412
1
1
1
1
1
1
1
1
1
1
1
1
1
1
1
1
1
1
1
1
1
1
1
1
1
1
1
1
1
1
1
1
1
1
1
1
1
1
1
1
1
1
1
1
1
1
1
1
1
1
1
1
1
1
1
1
1
1
1
1
1
1
1
1
1
1
1
1
1
1
1
1
1
1
1
1
1
1
1
1
1
1
1
1
1
1
1
1
1
1
1
1
1
1
1
1
1
1
1
1
1
1
1
1
1
1
1
1
1
1
1
1
1
1
1
1
1
1
1
1
1
1
1
1
1
1
1
1
1
1
1
1
0.142622
0.115416
0.103571
0.177746
0.178177
0.178141
0.0595546
0.00378761
0.00303858
0.000963992
0.000424729
2.66863e-05
1.18443e-06
3.61959e-07
2.69664e-06
4.78446e-05
0.000287992
0.000285342
0.00164068
0.186476
0.178875
0.178976
0.178794
0.161521
0.177857
0.162045
0.0329461
0.00126124
0.00116232
0.00116589
0.00105956
0.000311589
0.000170739
0.00024201
0.000136953
0.00322884
0.0369841
0.0417373
0.186465
0.0844566
0.0239576
0.0451382
0.130632
0.17777
0.145294
0.0118654
0.000379056
0.000238702
0.000639493
0.000839766
0.000472892
0.000285164
0.000237337
0.000133393
0.00400197
0.0644948
0.0643456
0.0165702
0.000536451
0.000515294
0.0193303
0.0775768
0.0793541
0.0166545
0.000224131
1.57328e-05
6.20417e-06
8.54528e-06
3.03637e-05
8.07317e-05
0.000175417
0.000237814
0.000186913
0.000266503
0.0173842
0.0430458
1.75671e-06
0.000377341
0.000924854
0.00409433
0.00158483
3.76635e-06
4.47882e-07
2.05567e-06
9.28747e-06
2.40661e-06
2.19235e-09
3.44627e-09
1.84681e-05
0.000173118
0.000237429
0.000188825
0.000125582
1.17894e-05
1.74752e-23
1.60295e-05
3.92173e-05
0.000117745
3.37915e-09
3.4758e-09
2.19663e-07
4.25688e-07
5.06613e-07
5.17361e-07
3.95882e-08
3.26472e-08
7.78351e-09
1.90568e-08
1.93088e-10
-1.75311e-07
-1.3221e-07
-1.32319e-11
0
-3.01695e-09
1.61365e-07
4.77726e-08
1.3192e-08
3.28986e-09
3.39411e-09
4.55841e-08
7.98546e-08
7.3348e-08
6.20256e-08
4.69127e-09
1.66814e-10
1.57233e-10
0.000455896
0.0231761
0.0729425
0.139463
0.202738
0.233251
0.198674
1.34462e-07
0.000260112
5.30948e-05
4.67592e-09
7.94618e-08
0.00281986
0.0294172
0.0669462
0.113258
0.168787
0.243916
0.368665
0.572297
0.74151
0.841776
0.906328
0.945544
0.94683
0.898015
0.406888
0.448646
0.488085
0.531392
0.586256
0.659484
0.726411
0.794284
0.860972
0.923697
0.976034
0.998171
0.996273
0.996282
0.998285
0.999797
0.999663
0.999498
0.999094
1
1
1
0.999999
0.999991
0.99999
0.999981
0.999953
0.999705
0.999399
0.999399
0.999532
0.99966
0.999795
0.999989
1
1
1
1
1
1
1
1
0.999973
0.999906
0.999906
0.999936
0.999928
0.999922
0.999341
0.998966
0.998968
0.999849
1
0.999999
0.999999
1
0.999999
1
1
1
0.999998
0.999416
0.99902
0.999022
0.999638
0.999995
0.99999
0.999397
0.998985
0.99979
1
1
0.999999
0.999999
1
0.999999
1
1
1
1
0.999676
0.999021
0.999021
0.999175
1
1
1
1
1
1
1
1
1
1
0.999999
1
1
1
1
1
0.999996
0.999915
0.999938
0.999974
1
1
1
1
1
1
1
1
1
1
1
1
1
1
1
1
1
1
1
1
1
1
1
1
1
1
1
1
1
1
1
1
1
1
1
1
1
1
1
1
1
1
1
1
1
1
1
1
1
1
1
1
1
1
1
1
1
1
1
1
1
1
1
1
1
1
1
1
1
1
1
1
1
1
1
1
1
1
1
1
1
1
1
1
1
1
1
1
1
1
1
1
1
1
1
1
1
1
1
1
1
1
1
1
1
1
1
1
1
1
1
1
1
1
1
1
1
1
1
1
1
1
1
1
1
1
1
1
1
1
1
1
1
1
1
1
1
1
1
1
1
1
1
1
1
1
1
1
1
1
1
1
1
1
1
1
1
1
1
1
1
1
1
1
1
1
1
1
1
1
1
1
1
1
1
1
1
1
1
1
1
1
1
1
1
1
1
1
1
1
1
1
1
1
1
1
1
1
1
1
1
1
1
1
1
1
1
1
1
1
1
1
1
1
1
1
1
1
1
1
1
1
1
1
1
1
1
1
1
1
1
1
1
1
1
1
1
1
1
1
1
1
1
1
1
1
1
1
1
1
1
1
1
1
1
1
1
1
1
1
1
1
1
1
1
1
1
1
1
1
1
1
1
1
1
1
1
1
1
1
1
1
1
1
1
1
1
1
1
1
1
1
1
1
1
1
1
1
1
1
1
1
1
1
1
1
1
1
1
1
1
1
1
1
1
1
1
1
1
1
1
1
1
1
1
1
1
1
1
1
1
1
1
1
1
1
1
1
1
1
1
1
1
1
1
1
1
1
1
1
1
1
1
1
1
1
1
1
1
1
1
1
1
1
1
1
1
1
1
1
1
1
1
1
1
1
1
1
1
1
1
1
1
1
1
1
1
1
1
1
1
1
1
1
1
1
1
1
1
1
1
1
1
1
1
1
1
1
1
1
1
1
1
1
1
1
1
1
1
1
1
1
1
1
1
1
1
1
1
1
1
1
1
1
1
1
1
1
1
1
1
1
1
1
1
1
1
1
1
1
1
1
1
1
1
1
1
1
1
1
1
1
1
1
1
1
1
1
1
1
1
1
1
1
1
1
1
1
1
1
1
1
1
1
1
1
1
1
1
1
1
1
1
1
1
1
1
1
1
1
1
1
1
1
1
1
1
1
1
1
1
1
1
1
1
1
1
1
1
1
1
1
1
1
1
1
1
1
1
1
1
1
1
1
1
1
1
1
1
1
1
1
)
;

boundaryField
{
    leftWall
    {
        type            alphaContactAngle;
        contactAngleProperties 
        {
            mercury         
            {
                theta0          90;
            }
            water           
            {
                theta0          90;
            }
            oil             
            {
                theta0          90;
            }
        }
        value           nonuniform List<scalar> 
50
(
5.25078e-13
1.99509e-12
5.25297e-12
1.65532e-11
3.25313e-11
3.08926e-10
2.86428e-09
5.65834e-09
1.01721e-08
1.9338e-08
7.93231e-08
0.0444323
0.145939
0.143839
0.0343901
0.027103
0.0830277
0.764804
0.999924
0.999998
0.999999
0.999999
0.999999
0.999999
1
1
1
1
1
1
1
1
1
1
1
1
1
1
1
1
1
1
1
1
1
1
1
1
1
1
)
;
    }
    rightWall
    {
        type            alphaContactAngle;
        contactAngleProperties 
        {
            mercury         
            {
                theta0          90;
            }
            water           
            {
                theta0          90;
            }
            oil             
            {
                theta0          90;
            }
        }
        value           nonuniform List<scalar> 
50
(
0.0138615
0.0138369
0.0138199
0.0911678
0.417035
0.398686
0.158351
3.886e-06
0.00164068
0.0417373
0.0643456
0.0430458
1.74752e-23
-3.01695e-09
0.198674
0.898015
0.999094
1
0.999999
0.999999
0.999999
1
1
1
1
1
1
1
1
1
1
1
1
1
1
1
1
1
1
1
1
1
1
1
1
1
1
1
1
1
)
;
    }
    lowerWall
    {
        type            alphaContactAngle;
        contactAngleProperties 
        {
            mercury         
            {
                theta0          90;
            }
            water           
            {
                theta0          90;
            }
            oil             
            {
                theta0          90;
            }
        }
        value           nonuniform List<scalar> 
62
(
5.25078e-13
4.7836e-13
4.67674e-13
4.03747e-13
2.99998e-13
1.80408e-13
9.06624e-14
4.01905e-14
1.58798e-14
1.08537e-14
1.05466e-14
1.43508e-14
3.4141e-14
1.00944e-13
2.17607e-13
3.09881e-13
4.37566e-13
1.13654e-12
2.53645e-12
3.15392e-12
1.92877e-12
3.49554e-13
3.49554e-13
3.49554e-13
2.9324e-11
1.17478e-09
1.12515e-09
2.60237e-10
0.000332888
0.00120354
0.000650982
-2.46176e-06
0.00035738
0.00051356
0.000770755
0.000342533
0.00597787
0.0167732
0.0143592
0.0143505
0.0556102
0.0637123
0.0833733
0.000342533
0.000339209
0.00277591
0.0157037
0.0262005
0.0335184
0.0610816
0.0655934
0.0609344
0.0444294
0.044577
0.0579136
0.0765436
0.0796881
0.0604019
0.0281893
0.0138885
0.0138564
0.0138615
)
;
    }
    atmosphere
    {
        type            inletOutlet;
        inletValue      uniform 1;
        value           nonuniform List<scalar> 
46
(
1
1
1
1
1
1
1
1
1
1
1
1
1
1
1
1
1
1
1
1
1
1
1
1
1
1
1
1
1
1
1
1
1
1
1
1
1
1
1
1
1
1
1
1
1
1
)
;
    }
    defaultFaces
    {
        type            empty;
    }
}


// ************************************************************************* //
