/*--------------------------------*- C++ -*----------------------------------*\
  =========                 |
  \\      /  F ield         | OpenFOAM: The Open Source CFD Toolbox
   \\    /   O peration     | Website:  https://openfoam.org
    \\  /    A nd           | Version:  13
     \\/     M anipulation  |
\*---------------------------------------------------------------------------*/
FoamFile
{
    format      ascii;
    class       volScalarField;
    location    "2.35";
    object      alpha.water;
}
// * * * * * * * * * * * * * * * * * * * * * * * * * * * * * * * * * * * * * //

dimensions      [];

internalField   nonuniform List<scalar> 
2268
(
9.60161e-11
1.10345e-10
1.23971e-10
1.30952e-10
1.37729e-10
1.44759e-10
1.50934e-10
1.55589e-10
1.58692e-10
1.64322e-10
1.75107e-10
1.93868e-10
2.24616e-10
2.70274e-10
3.34491e-10
4.22608e-10
5.39499e-10
7.0217e-10
1.17231e-09
1.97973e-09
2.6593e-09
2.77878e-09
2.77882e-09
2.28964e-10
2.84495e-10
2.67623e-10
2.58896e-10
2.72957e-10
3.00582e-10
3.37286e-10
3.82166e-10
4.24792e-10
4.61071e-10
4.89855e-10
5.2007e-10
5.52308e-10
5.82137e-10
6.07402e-10
6.48291e-10
7.27675e-10
8.94205e-10
1.25955e-09
1.71754e-09
2.34135e-09
2.59003e-09
2.53713e-09
3.17964e-10
4.30356e-10
3.71867e-10
3.25314e-10
3.45035e-10
3.8146e-10
4.40951e-10
5.33386e-10
6.47017e-10
7.72675e-10
9.07674e-10
1.01291e-09
1.07242e-09
1.05896e-09
9.59308e-10
8.28896e-10
1.01207e-09
1.28144e-09
1.5298e-09
1.78457e-09
2.13678e-09
2.57541e-09
1.57478e-09
2.7861e-10
4.4655e-10
3.44248e-10
2.74646e-10
3.05504e-10
3.27179e-10
3.57825e-10
4.71772e-10
6.0828e-10
7.71984e-10
1.03867e-09
1.28572e-09
1.36056e-09
1.26189e-09
9.03757e-10
6.67185e-10
6.91656e-10
7.79285e-10
8.29387e-10
9.25081e-10
9.96662e-10
1.42557e-09
1.28002e-09
1.12213e-10
1.07653e-10
1.06338e-10
1.0953e-10
1.04179e-10
1.08236e-10
1.0466e-10
2.92094e-10
4.01331e-10
3.87205e-10
3.40226e-10
3.66132e-10
2.99721e-10
1.75504e-10
8.05519e-11
6.61241e-11
1.42197e-10
1.50516e-10
8.4508e-11
1.17319e-10
1.53365e-10
3.17975e-10
2.11253e-10
0.0544425
0.0442832
0.0366959
0.0284395
0.0187887
0.0101992
0.00408938
0.00088198
-4.79864e-13
-4.46876e-12
-1.59417e-12
-7.56845e-11
9.0492e-10
1.96093e-11
2.98558e-08
2.82816e-07
7.22384e-07
0.00632144
0.0240283
0.0390077
0.0497528
0.0443132
0.0206858
0.780278
0.74893
0.726393
0.700153
0.662013
0.611318
0.551845
0.489165
0.430609
0.384835
0.361903
0.36865
0.391328
0.424171
0.469624
0.526436
0.591169
0.650615
0.692981
0.725804
0.744989
0.729769
0.650495
1
1
1
0.999998
0.999999
1
1
1
1
1
0.998186
0.988658
0.987134
0.991367
0.996304
0.999348
1
0.999999
0.999989
0.999935
0.999831
0.999644
0.999301
0.0107279
0.0107401
0.0199253
0.0533496
0.0645697
0.0579711
0.0295183
0.00784839
0.000673527
0.000673527
0.000673527
0.00140755
0.00814695
0.10836
0.12443
0.124455
0.0720206
0.00335249
0.0134123
0.0785591
0.0880825
0.0789646
0.053704
0.0669278
0.184827
0.189645
0.106177
0.0518673
0.0542508
0.017686
0.000788233
0.0046634
0.0715599
0.109878
0.117008
0.0359719
0.00318529
0.012312
0.449503
0.59208
0.47329
0.292833
0.202939
0.24308
0.574998
0.600401
0.486828
0.24556
0.0459374
0.000746417
0.00312834
0.00973059
0.0148601
0.010023
0.00146155
0.00274761
0.00100969
0.80038
0.834979
0.832393
0.80032
0.504171
0.190086
0.353693
0.727234
0.888603
0.868606
0.364386
0.000788191
0.000987466
0.000988566
0.000991342
0.000999712
0.00099889
0.00100533
0.00100689
0.884324
0.877394
0.876662
0.85093
0.519344
0.193812
0.197278
0.274988
0.83063
0.992954
0.782402
0.209825
0.000988565
0.000987631
0.00101254
0.00573753
0.0684282
0.103816
0.0352449
0.884324
0.884325
0.884324
0.884323
0.341631
0.110858
0.113749
0.311
0.842147
0.992731
0.992785
0.373221
0.0965594
0.0148504
0.0403064
0.4579
0.671211
0.785866
0.235599
0.884262
0.884328
0.884334
0.833701
0.168643
0.104747
0.308704
0.834336
0.97526
0.995152
0.999582
0.802861
0.149766
0.13003
0.428282
0.826304
0.999734
0.997296
0.435084
0.803637
0.884259
0.884272
0.772575
0.089659
0.167212
0.829114
0.994801
0.999737
0.99969
0.999744
0.973575
0.627762
0.517887
0.794539
0.999763
0.999752
0.987521
0.595388
1
1
1
0.999999
0.999997
1
1
1
1
1
1
1
1
1
1
1
1
0.999999
0.999995
0.999996
0.999998
0.999999
0.999998
1
1
0.999982
0.999828
0.999979
0.999999
1
1
1
1
1
1
1
1
1
1
1
1
1
1
0.998636
0.989663
0.99093
1
0.999545
0.997614
0.999423
0.999978
1
1
1
1
1
1
1
0.999797
0.999733
1
0.994324
0.989938
0.978104
0.92827
0.881587
0.83918
0.731769
0.653974
0.955568
0.97575
0.9856
0.973878
0.96801
0.980447
0.963136
0.940133
0.938955
0.93017
0.915981
0.890888
0.849497
0.811248
0.750901
0.648185
0.536506
0.416083
0.319261
0.237133
0.114655
0.0430673
0.0285913
0.792654
0.649432
0.452769
0.352301
0.338916
0.440927
0.471318
0.442742
0.333571
0.262155
0.208512
0.126612
0.0561618
0.0245919
0.0165235
0.0156728
0.0080092
0.000103163
4.97942e-19
-6.35241e-20
4.31851e-20
-7.61844e-22
3.02087e-20
0.380695
0.0249529
0.000469456
-2.14027e-24
-4.8925e-07
-1.09903e-06
5.32822e-26
2.70021e-27
-4.95193e-26
2.93038e-26
-3.66358e-14
-1.5501e-13
9.66881e-27
-2.43952e-26
-1.06287e-26
1.25145e-18
4.71315e-19
2.06474e-16
3.26393e-10
2.44693e-07
1.8153e-06
2.68392e-06
1.73177e-05
0.0155685
0.00171238
0.000556933
6.09864e-05
-4.67964e-10
1.87769e-08
1.20948e-08
2.10815e-09
8.49953e-09
6.86142e-09
2.49852e-09
3.09863e-09
8.41335e-09
1.74729e-08
2.19812e-08
2.03702e-08
1.81345e-08
1.50296e-08
1.31892e-07
5.29521e-07
6.6314e-07
6.85107e-07
1.18227e-06
0.00046478
0.00200376
9.09139e-05
1.97751e-08
3.31827e-07
4.34546e-07
2.03663e-07
5.69435e-08
1.40739e-07
4.66255e-08
1.21542e-09
1.20317e-09
1.79801e-08
7.65209e-08
1.00678e-07
9.15293e-08
9.64006e-08
2.6934e-07
3.5166e-07
3.40139e-07
2.34858e-07
2.75358e-07
1.11521e-06
2.32815e-08
0.000104112
3.33008e-05
1.21231e-08
2.10253e-08
9.41264e-08
2.3493e-07
2.48703e-07
2.48354e-07
1.90469e-07
1.32691e-09
1.46591e-09
1.53655e-08
1.64787e-07
1.99673e-07
1.98787e-07
1.99673e-07
6.74864e-08
3.15238e-09
1.03581e-08
1.41983e-07
3.38755e-07
7.31127e-07
2.22003e-08
1.89109e-08
4.00847e-06
1.93796e-06
1e-08
2.03494e-08
9.23213e-08
1.26666e-07
1.3839e-07
9.78392e-08
5.47516e-08
9.19239e-09
1.07773e-08
4.77119e-08
1.42093e-07
1.42148e-07
2.49685e-08
2.54101e-09
2.4597e-09
1.16789e-09
4.60561e-10
4.94851e-10
5.04962e-10
7.85945e-08
2.05794e-06
3.73713e-06
6.19852e-06
2.94765e-06
6.7035e-08
1.31703e-08
1.09574e-08
1.088e-08
1.06967e-08
9.73484e-09
2.17966e-08
1.12678e-08
1.63516e-09
1.39584e-09
1.518e-09
3.52149e-09
8.63233e-09
4.2892e-09
1.63636e-09
4.98346e-10
8.54551e-10
5.55488e-09
2.53567e-08
6.05738e-07
1.3951e-06
6.51763e-06
5.65924e-06
9.81615e-07
7.68694e-09
1.76602e-08
1.00373e-07
4.3525e-07
4.76004e-07
1.7429e-07
5.50825e-08
8.15189e-09
9.19649e-09
2.25964e-08
2.28473e-08
1.13245e-08
2.02885e-09
2.06469e-09
1.03449e-09
6.95964e-10
6.49965e-10
9.18172e-09
2.1665e-07
3.2683e-07
1.68115e-06
4.58081e-06
1.02051e-06
7.31741e-09
2.35914e-10
2.02143e-07
1.96927e-06
2.63843e-06
6.76689e-07
3.78311e-07
1.14457e-07
1.38821e-07
1.64423e-07
1.01038e-07
2.11666e-08
4.12496e-09
4.30382e-09
2.83347e-09
1.36066e-09
4.73883e-10
8.8225e-09
8.88657e-09
6.77182e-08
6.37314e-08
1.79959e-06
1.78391e-07
3.53279e-09
2.56762e-10
5.38899e-08
1.6714e-06
3.12235e-06
3.1067e-06
1.99996e-06
8.80766e-07
8.78936e-07
8.63942e-07
3.3661e-07
6.27485e-08
1.29141e-08
8.91894e-09
6.0738e-09
4.16771e-09
2.14562e-09
1.90482e-08
1.61335e-08
5.67872e-08
1.53257e-08
5.43548e-10
6.83661e-10
9.35457e-10
2.6671e-10
1.89189e-10
5.31685e-07
2.50395e-06
3.16805e-06
3.15441e-06
2.70715e-06
2.34799e-06
2.0992e-06
7.06396e-07
1.04489e-07
3.19629e-08
1.41309e-08
1.17787e-08
9.62693e-09
6.57654e-09
2.19492e-08
1.63071e-08
5.57802e-08
1.46361e-08
1.95093e-09
1.15711e-09
7.00546e-10
2.29251e-10
1.93026e-10
3.29712e-09
2.94261e-07
2.86063e-06
3.15394e-06
3.17086e-06
3.16578e-06
2.9535e-06
9.7616e-07
1.25765e-07
4.242e-08
1.9533e-08
2.54868e-08
2.20179e-08
1.50042e-08
2.12365e-08
1.39028e-08
2.62771e-08
8.58231e-09
3.71118e-09
1.60418e-09
4.71499e-10
2.77116e-10
3.75249e-10
3.99897e-10
4.11445e-10
2.15884e-07
1.30057e-06
2.99221e-06
2.41531e-06
7.19719e-07
3.90665e-07
2.04037e-07
4.47773e-08
1.50705e-08
2.51551e-08
2.45522e-08
2.07507e-08
1.92788e-08
1.03282e-08
1.00755e-08
6.1551e-09
3.76565e-09
1.49605e-09
5.84845e-10
5.56347e-10
8.40563e-10
8.42434e-10
5.15928e-10
5.16546e-10
4.62195e-07
6.8886e-07
3.30748e-07
1.8483e-07
9.61816e-08
1.1039e-07
5.44477e-08
1.50874e-08
1.98102e-08
1.82734e-08
1.655e-08
1.66857e-08
6.98872e-09
5.67962e-09
4.49137e-09
3.15124e-09
1.94027e-09
1.18196e-09
1.16501e-09
1.35161e-09
1.51902e-09
7.65546e-10
8.75292e-09
9.15169e-08
6.02758e-08
3.90295e-08
4.04709e-08
4.75276e-08
4.2436e-08
3.23169e-08
1.50195e-08
1.26498e-08
1.29821e-08
1.16949e-08
1.634e-08
5.01099e-09
3.8471e-09
3.38325e-09
2.63308e-09
1.97978e-09
1.58103e-09
1.35478e-09
1.36617e-09
1.58826e-09
1.94614e-09
5.75742e-09
1.84798e-09
1.28171e-09
4.41485e-09
1.48414e-08
1.95877e-08
1.96949e-08
1.59866e-08
9.5897e-09
8.04846e-09
7.54647e-09
7.08038e-09
1.79023e-08
4.1396e-09
2.94179e-09
2.74057e-09
2.31552e-09
1.87801e-09
1.55718e-09
1.31216e-09
1.16971e-09
1.3104e-09
1.5857e-09
2.15341e-09
1.45541e-09
1.27562e-09
2.42499e-09
5.79364e-09
8.79796e-09
9.0009e-09
7.63169e-09
5.39157e-09
4.39783e-09
3.99069e-09
3.78659e-09
1.79334e-08
3.89595e-09
2.45146e-09
2.39065e-09
2.11737e-09
1.7655e-09
1.45364e-09
1.23021e-09
9.66827e-10
9.28388e-10
9.88094e-10
1.00922e-09
8.93372e-10
8.98091e-10
1.36426e-09
2.47705e-09
3.80219e-09
3.79061e-09
3.3276e-09
2.61524e-09
2.02553e-09
1.73057e-09
1.70119e-09
1.79334e-08
4.1056e-09
2.14542e-09
2.19125e-09
1.91414e-09
1.60896e-09
1.32376e-09
1.0787e-09
8.63894e-10
6.92266e-10
5.82492e-10
5.19225e-10
4.65706e-10
4.91499e-10
7.13884e-10
1.07238e-09
1.49444e-09
1.50511e-09
1.28371e-09
1.00458e-09
7.69886e-10
6.76923e-10
6.56072e-10
1.79334e-08
5.38522e-09
2.06963e-09
2.03204e-09
1.75221e-09
1.42502e-09
1.15865e-09
9.19099e-10
7.22637e-10
5.44336e-10
4.16018e-10
3.19936e-10
2.60791e-10
2.59798e-10
3.1376e-10
4.03012e-10
5.17804e-10
5.16601e-10
4.32867e-10
3.36776e-10
2.61939e-10
2.21769e-10
2.19188e-10
1.68232e-08
7.27138e-09
2.26163e-09
1.95101e-09
1.55401e-09
1.20794e-09
9.4268e-10
7.38975e-10
5.7827e-10
4.4256e-10
3.2553e-10
2.3767e-10
1.74036e-10
1.42777e-10
1.37252e-10
1.41408e-10
1.61838e-10
1.48672e-10
1.24194e-10
9.83496e-11
7.49925e-11
6.68036e-11
6.52939e-11
1.62558e-08
7.22218e-09
2.98992e-09
1.91868e-09
1.38424e-09
9.98885e-10
7.3652e-10
5.60253e-10
4.32687e-10
3.33794e-10
2.5313e-10
1.79202e-10
1.2686e-10
8.74992e-11
6.62112e-11
5.51568e-11
4.81409e-11
4.20129e-11
3.36855e-11
2.71403e-11
2.18448e-11
1.90932e-11
1.86323e-11
1.34517e-08
6.75707e-09
3.27308e-09
1.83543e-09
1.18872e-09
7.96917e-10
5.49921e-10
3.91811e-10
2.90676e-10
2.24749e-10
1.7182e-10
1.27142e-10
9.07088e-11
6.01553e-11
3.97395e-11
2.6583e-11
1.8586e-11
1.34613e-11
1.00408e-11
8.21616e-12
6.76898e-12
6.06752e-12
5.60347e-12
1.24022e-08
6.19673e-09
3.15229e-09
1.69179e-09
1.01201e-09
6.16161e-10
3.82248e-10
2.61953e-10
1.87772e-10
1.39442e-10
1.05418e-10
7.81631e-11
5.53797e-11
3.82566e-11
2.48995e-11
1.53959e-11
9.34483e-12
5.87541e-12
3.72133e-12
2.8783e-12
2.37105e-12
2.0101e-12
1.8021e-12
9.99634e-09
5.4025e-09
2.8268e-09
1.474e-09
8.24452e-10
4.6791e-10
2.68707e-10
1.64817e-10
1.08647e-10
7.65056e-11
5.61853e-11
4.23726e-11
2.99827e-11
2.10781e-11
1.39365e-11
8.51857e-12
4.88593e-12
2.71486e-12
1.59452e-12
1.08332e-12
8.094e-13
6.70248e-13
5.6615e-13
8.27761e-09
4.42488e-09
2.30522e-09
1.17604e-09
6.22368e-10
3.31989e-10
1.76104e-10
9.70586e-11
5.99218e-11
3.94035e-11
2.69186e-11
1.96871e-11
1.39992e-11
9.88274e-12
6.52936e-12
4.02379e-12
2.25203e-12
1.21461e-12
6.18626e-13
3.83441e-13
2.75503e-13
2.04092e-13
1.69189e-13
6.3659e-09
3.29063e-09
1.68512e-09
8.41303e-10
4.26212e-10
2.15902e-10
1.06008e-10
5.41591e-11
3.01919e-11
1.79778e-11
1.19584e-11
8.12658e-12
5.71707e-12
3.97058e-12
2.58469e-12
1.61285e-12
9.0652e-13
4.48952e-13
2.29653e-13
1.26701e-13
7.92431e-14
5.77534e-14
4.5142e-14
4.46706e-09
2.20717e-09
1.09855e-09
5.33651e-10
2.56749e-10
1.23294e-10
5.78281e-11
2.78311e-11
1.37483e-11
7.54847e-12
4.6241e-12
3.05616e-12
2.04724e-12
1.34108e-12
8.94909e-13
5.48636e-13
2.98832e-13
1.47478e-13
6.81935e-14
3.54383e-14
2.16885e-14
1.42056e-14
1.07404e-14
2.67703e-09
1.30178e-09
6.23e-10
2.92328e-10
1.35058e-10
5.99909e-11
2.71847e-11
1.22738e-11
5.71657e-12
2.89271e-12
1.64214e-12
1.0245e-12
6.53879e-13
4.12206e-13
2.60626e-13
1.54135e-13
8.15918e-14
3.93711e-14
1.73406e-14
8.41638e-15
4.84173e-15
3.17581e-15
2.19986e-15
1.44926e-09
6.41274e-10
2.92722e-10
1.31848e-10
5.84746e-11
2.58637e-11
1.12573e-11
4.79037e-12
2.07371e-12
9.76615e-13
5.22083e-13
2.97543e-13
1.79493e-13
1.06898e-13
6.42792e-14
3.79493e-14
1.89817e-14
8.45975e-15
3.64453e-15
1.71414e-15
9.52985e-16
5.93543e-16
3.87642e-16
6.11128e-10
2.71437e-10
1.17464e-10
5.03739e-11
2.14945e-11
9.15596e-12
3.81754e-12
1.55885e-12
6.45983e-13
2.88808e-13
1.40477e-13
7.56582e-14
4.27011e-14
2.52519e-14
1.44912e-14
7.70654e-15
3.77569e-15
1.5314e-15
6.45782e-16
3.01916e-16
1.67643e-16
1.0007e-16
5.95361e-17
2.35764e-10
9.77155e-11
3.98809e-11
1.62245e-11
6.71759e-12
2.79779e-12
1.13715e-12
4.42853e-13
1.65229e-13
6.91524e-14
3.21057e-14
1.67616e-14
9.40415e-15
5.44983e-15
2.97811e-15
1.50947e-15
6.55416e-16
2.55099e-16
1.04015e-16
4.77019e-17
2.55749e-17
1.40834e-17
7.61832e-18
6.60061e-11
2.54323e-11
9.81947e-12
4.22743e-12
1.74768e-12
6.6704e-13
2.66765e-13
1.03694e-13
4.09087e-14
1.63401e-14
7.30763e-15
3.68683e-15
1.99544e-15
1.05841e-15
5.49861e-16
2.58122e-16
1.02686e-16
3.75929e-17
1.49683e-17
6.68364e-18
3.42412e-18
1.66691e-18
7.95381e-19
1.57364e-11
5.67494e-12
2.23082e-12
9.00208e-13
3.60194e-13
1.52136e-13
6.12665e-14
2.37135e-14
9.08731e-15
3.50668e-15
1.47714e-15
6.79085e-16
3.57413e-16
1.85965e-16
9.11646e-17
3.88953e-17
1.45232e-17
4.95219e-18
1.97874e-18
8.6941e-19
3.87961e-19
1.67082e-19
7.99776e-20
2.35105e-12
9.32979e-13
3.95792e-13
1.66376e-13
7.15098e-14
3.01798e-14
1.09244e-14
4.16486e-15
1.592e-15
6.10519e-16
2.56076e-16
1.24357e-16
6.22801e-17
3.06882e-17
1.37773e-17
5.43129e-18
1.89796e-18
6.45102e-19
2.42768e-19
9.96806e-20
3.99685e-20
1.48598e-20
4.58865e-21
2.0693e-13
9.65019e-14
5.19532e-14
2.4029e-14
1.02582e-14
4.55534e-15
1.94061e-15
7.789e-16
2.91587e-16
1.08654e-16
4.38338e-17
2.01844e-17
9.86089e-18
4.63272e-18
1.96847e-18
7.30731e-19
2.44539e-19
7.74004e-20
2.7237e-20
9.80517e-21
3.31864e-21
9.73283e-22
8.81616e-23
3.44736e-15
4.48646e-15
4.90079e-15
3.10956e-15
1.50435e-15
6.698e-16
2.81088e-16
1.08095e-16
4.32919e-17
1.69741e-17
6.82519e-18
3.07001e-18
1.47802e-18
6.67601e-19
2.72255e-19
9.55924e-20
2.90209e-20
9.49457e-21
3.16744e-21
9.76884e-22
2.8454e-22
2.42316e-23
5.50026e-25
6.00246e-21
5.87743e-17
3.69123e-16
3.36815e-16
1.92579e-16
9.17011e-17
3.98465e-17
1.56836e-17
6.17824e-18
2.44853e-18
9.60076e-19
4.20134e-19
1.98329e-19
9.08814e-20
3.63775e-20
1.2158e-20
3.74457e-21
1.22031e-21
3.79889e-22
1.01516e-22
1.56096e-23
4.672e-25
5.15168e-27
0.999998
0.999643
0.976246
0.850683
0.996659
0.999443
0.541819
0.149359
0.479912
0.174148
0.0288293
0.135149
0.00523275
0.0021639
0.0182712
0.0167396
0.00042438
0.000997236
0.000223161
2.00877e-05
4.77632e-05
2.33805e-06
9.60723e-06
2.02426e-05
1.09313e-06
2.43369e-06
1.54755e-05
2.03631e-05
4.50394e-06
4.54077e-06
2.37672e-06
5.60102e-07
2.47275e-06
8.23552e-07
1.76548e-09
1.73378e-09
1.05197e-09
4.11335e-10
5.06312e-09
6.06316e-09
1.15472e-08
1.32267e-08
1.53839e-08
1.44317e-08
4.20196e-10
2.48061e-10
2.36166e-10
2.94354e-10
3.13378e-10
2.79379e-10
2.28676e-10
1.70105e-10
7.0771e-10
6.6177e-10
6.29707e-10
4.86633e-10
3.66584e-09
2.54805e-09
2.22079e-09
1.79675e-09
1.03096e-08
8.2998e-09
5.69606e-09
4.32928e-09
1.64757e-08
9.37233e-09
9.66263e-09
7.80971e-09
1.44708e-08
1.14973e-08
8.65278e-09
8.49013e-09
1.11494e-08
8.36606e-09
8.17065e-09
7.17947e-09
6.53328e-09
6.14925e-09
5.38344e-09
4.98457e-09
3.75409e-09
3.42901e-09
3.29545e-09
3.09585e-09
1.73702e-09
1.68418e-09
1.7106e-09
1.64628e-09
6.9396e-10
7.22628e-10
7.41406e-10
7.39463e-10
2.32201e-10
2.4411e-10
2.77473e-10
2.73872e-10
6.92692e-11
7.30327e-11
7.77846e-11
8.01846e-11
1.9401e-11
1.98052e-11
2.13957e-11
2.08548e-11
5.62664e-12
5.43233e-12
5.32507e-12
5.17392e-12
1.757e-12
1.64287e-12
1.57876e-12
1.46183e-12
5.44576e-13
4.94892e-13
4.56664e-13
4.16159e-13
1.56872e-13
1.40495e-13
1.30657e-13
1.16652e-13
4.15078e-14
3.71174e-14
3.36223e-14
2.84232e-14
9.61671e-15
8.3656e-15
7.35207e-15
6.02689e-15
1.92346e-15
1.60198e-15
1.30272e-15
1.04697e-15
3.20738e-16
2.69668e-16
2.14698e-16
1.50966e-16
4.78455e-17
3.64735e-17
2.68473e-17
1.83134e-17
5.65049e-18
4.09543e-18
2.88527e-18
1.94958e-18
5.53321e-19
3.93927e-19
1.8694e-19
4.3502e-20
2.77729e-20
9.88759e-21
2.64884e-21
2.59927e-22
3.02908e-22
6.57254e-23
1.35297e-23
6.74261e-25
4.17508e-25
1.49932e-25
6.38214e-27
1.48171e-27
-3.59086e-43
1.08071e-28
4.38974e-28
1.42675e-27
-3.39119e-46
1.08431e-28
3.82581e-28
1.09722e-27
0.601512
0.830463
0.86315
0.700396
0.0825018
0.493026
0.940395
0.996149
0.996952
0.998995
0.999465
0.99914
0.993433
0.982507
0.999761
0.999745
0.99952
0.980727
0.765173
0.493671
0.748629
0.639119
0.198137
0.0524633
0.566729
0.764145
0.745074
0.80613
0.918096
0.979072
0.998437
0.999183
0.999314
0.999155
0.986639
0.976731
0.924926
0.905296
0.149642
0.049722
0.0265211
0.00116391
0.0498234
0.180541
0.104473
0.0514199
0.0740489
0.150802
0.244817
0.353226
0.441827
0.464228
0.446886
0.419544
0.387414
0.2766
0.219763
0.00052015
1.83695e-05
2.48514e-05
0.00081122
0.0138028
1.4658e-19
-7.22814e-20
-9.74145e-20
2.6669e-19
7.60386e-20
-6.2255e-19
1.22161e-18
0.000326551
0.000911849
0.000870142
2.83811e-05
3.1154e-05
3.34e-05
3.53963e-05
1.93846e-05
1.79743e-05
4.66282e-06
0.000135394
5.19648e-08
5.04697e-08
1.21249e-08
3.14906e-09
1.1309e-07
2.95391e-07
2.96017e-07
1.32884e-07
1.54222e-09
1.33551e-21
7.15585e-07
2.52946e-05
6.55443e-05
8.13064e-05
0.000306603
2.043e-05
3.87315e-06
1.67177e-09
1.60754e-09
6.96447e-08
2.4279e-08
3.30156e-08
5.28162e-08
7.58985e-08
1.15411e-07
1.7499e-07
2.9138e-12
1.59064e-11
-4.50588e-12
1.65359e-08
2.85632e-06
0.000402702
0.00139034
0.00185758
4.0859e-06
7.31352e-09
7.32907e-10
6.62587e-09
2.68438e-08
2.4555e-09
8.32097e-09
8.72872e-09
1.43929e-08
7.39555e-08
1.282e-06
1.71546e-05
0.000555399
0.00285695
0.00509975
0.00613185
0.00579671
0.00527236
0.00511281
8.66734e-07
3.19218e-07
2.90946e-10
1.18056e-09
1.21834e-09
1.75223e-10
4.25883e-08
1.95023e-07
1.71967e-10
1.52955e-10
1.71967e-10
0.00012812
0.0069197
0.00987584
0.00987567
0.00944074
0.00642544
0.00420917
0.00453593
1.76549e-09
1.48886e-08
4.22408e-10
1.75316e-08
1.65053e-07
1.48974e-07
4.65002e-08
8.65158e-08
5.17274e-05
8.26056e-05
0.000236732
0.00152434
0.00303645
0.00301146
0.0013334
0.000151003
0.000261884
0.000310891
0.000602521
6.2231e-09
7.3409e-09
5.10182e-08
2.92624e-07
7.41783e-07
3.90703e-06
1.43982e-05
3.48565e-05
0.000229275
0.000481438
0.000481394
0.000196041
5.84133e-13
-1.64878e-15
3.40299e-27
-4.37222e-09
7.48936e-10
-1.84111e-21
8.69418e-10
2.50498e-08
4.51777e-08
1.051e-07
1.24964e-07
6.8275e-08
3.45527e-06
1.35719e-05
3.84241e-05
5.41314e-05
4.8558e-05
7.23052e-09
6.93818e-09
7.58772e-09
3.94105e-09
3.61945e-09
7.8219e-09
3.18943e-09
8.02451e-10
7.2855e-10
1.07589e-09
5.84179e-09
1.82162e-08
2.37687e-08
1.09399e-08
3.75724e-11
3.65852e-11
4.17977e-11
5.09376e-07
1.22925e-08
1.51174e-08
4.10944e-08
3.60482e-08
3.26395e-09
3.21213e-09
3.82997e-09
2.87831e-09
9.23453e-10
1.13518e-09
1.11973e-10
3.98538e-11
3.95226e-11
3.98538e-11
3.95228e-11
4.52974e-11
5.53708e-11
6.29844e-11
1.64322e-09
2.03881e-08
4.37254e-08
4.7985e-08
3.50524e-08
5.95884e-09
5.66033e-10
1.54276e-09
1.12576e-09
3.31564e-10
6.35827e-10
2.80204e-10
1.28252e-10
8.4708e-11
7.61458e-11
8.31666e-11
1.46095e-10
2.76744e-10
4.31587e-10
2.39531e-09
9.27471e-09
3.11179e-08
3.35296e-08
6.22954e-09
2.04721e-09
5.19606e-10
2.03719e-10
1.21779e-10
9.96622e-11
3.37051e-10
9.7187e-10
2.39947e-10
1.04277e-10
8.61427e-11
1.01289e-10
1.72872e-10
3.22554e-10
6.08109e-10
1.18723e-09
1.75012e-09
1.41993e-09
4.70393e-10
4.59568e-10
3.69314e-10
3.06007e-10
9.42723e-11
3.08056e-11
4.83897e-11
1.99007e-10
3.46922e-09
6.20416e-10
1.34627e-10
1.00236e-10
9.25565e-11
1.07751e-10
1.45297e-10
2.02995e-10
4.47914e-10
9.61234e-10
1.53042e-09
1.43276e-09
4.45193e-10
3.73831e-10
2.15694e-10
7.00022e-11
1.72148e-11
2.25378e-11
8.9174e-11
6.56629e-09
1.92407e-09
1.87434e-10
1.3625e-10
1.09265e-10
1.03274e-10
1.30739e-10
1.74383e-10
2.25031e-10
3.60556e-10
4.21449e-10
3.39416e-10
3.77684e-10
2.91713e-10
1.42072e-10
3.95217e-11
8.29592e-12
9.41542e-12
4.4338e-11
7.16632e-09
4.21304e-09
7.35316e-10
2.25146e-10
1.33137e-10
1.1067e-10
1.13955e-10
1.3779e-10
1.67913e-10
2.16495e-10
2.31804e-10
1.66255e-10
1.18311e-10
8.50189e-11
4.26788e-11
1.39283e-11
2.8428e-12
4.61174e-12
1.77673e-11
6.16102e-09
4.87783e-09
2.09559e-09
8.29567e-10
3.50059e-10
1.79653e-10
1.35295e-10
1.27221e-10
1.26704e-10
1.28588e-10
1.2249e-10
9.16609e-11
5.63286e-11
2.79054e-11
1.0478e-11
1.35803e-12
7.58078e-13
1.48648e-12
5.02772e-12
4.30251e-09
3.69242e-09
2.66466e-09
1.48727e-09
8.48401e-10
4.75642e-10
2.6091e-10
1.52318e-10
1.06911e-10
7.7157e-11
6.12765e-11
4.70749e-11
2.93579e-11
1.65915e-11
5.73913e-12
7.74564e-13
3.73513e-13
3.72148e-13
1.046e-12
2.67133e-09
2.32374e-09
1.96704e-09
1.50638e-09
1.00921e-09
6.36059e-10
3.82686e-10
2.17331e-10
1.1326e-10
5.50892e-11
3.65214e-11
2.3593e-11
1.28854e-11
6.50885e-12
1.76768e-12
2.96075e-13
1.03385e-13
6.62633e-14
1.58513e-13
1.4588e-09
1.31089e-09
1.14491e-09
9.83451e-10
7.90838e-10
5.72459e-10
3.81438e-10
2.29577e-10
1.22876e-10
5.20342e-11
2.72675e-11
1.38156e-11
5.07443e-12
1.52267e-12
3.38758e-13
9.93661e-14
2.29457e-14
1.2129e-14
1.64954e-14
6.84392e-10
6.36547e-10
5.75919e-10
4.92061e-10
4.21327e-10
3.46536e-10
2.69107e-10
1.79953e-10
1.04433e-10
5.25156e-11
2.16303e-11
7.34124e-12
2.1687e-12
5.82949e-13
1.40947e-13
4.52189e-14
5.25922e-15
2.18242e-15
2.14899e-15
2.58594e-10
2.48822e-10
2.34036e-10
2.09663e-10
1.7798e-10
1.48987e-10
1.22122e-10
9.9556e-11
6.63889e-11
3.67131e-11
1.61973e-11
5.27716e-12
1.24679e-12
2.52018e-13
6.13569e-14
7.73577e-15
1.17613e-15
7.80398e-16
3.77749e-16
7.42054e-11
7.4676e-11
7.29136e-11
6.66711e-11
5.99432e-11
5.14809e-11
4.45048e-11
3.84517e-11
2.9021e-11
1.82848e-11
9.48168e-12
3.32483e-12
7.24707e-13
1.15842e-13
2.30613e-14
2.17243e-15
4.68163e-16
4.3861e-16
2.16576e-16
1.87468e-11
1.8515e-11
1.79827e-11
1.68094e-11
1.54475e-11
1.38737e-11
1.26395e-11
1.1359e-11
9.25258e-12
6.9916e-12
4.16801e-12
1.6416e-12
3.62483e-13
4.89862e-14
4.73912e-15
3.47721e-16
2.21609e-16
2.94275e-16
1.39325e-16
4.53235e-12
4.2458e-12
3.96176e-12
3.62188e-12
3.2853e-12
3.02336e-12
2.84325e-12
2.61007e-12
2.36688e-12
1.95758e-12
1.32786e-12
5.93516e-13
1.45576e-13
1.77494e-14
8.26764e-16
8.98097e-17
1.09148e-16
1.67811e-16
1.10498e-16
1.19713e-12
1.03895e-12
9.00987e-13
7.65361e-13
6.5833e-13
5.87608e-13
5.23526e-13
4.97499e-13
4.85769e-13
4.39787e-13
3.23731e-13
1.62601e-13
2.96332e-14
2.15684e-15
1.22329e-16
3.72216e-17
5.17416e-17
1.05597e-16
7.06716e-17
3.24687e-13
2.60866e-13
2.00936e-13
1.55075e-13
1.26917e-13
9.29516e-14
8.15622e-14
8.05776e-14
7.90889e-14
7.31826e-14
5.727e-14
2.01194e-14
2.91594e-15
1.66e-16
1.49441e-17
1.33554e-17
2.48852e-17
6.31935e-17
5.27803e-17
8.40202e-14
6.21644e-14
4.34548e-14
3.38892e-14
2.15218e-14
1.10668e-14
8.4574e-15
8.52105e-15
8.42692e-15
8.21519e-15
4.73743e-15
1.5405e-15
1.97451e-16
6.31978e-18
2.10121e-18
4.47953e-18
1.28154e-17
4.56548e-17
2.91065e-17
1.93523e-14
1.2229e-14
8.83165e-15
5.91599e-15
2.62164e-15
8.22928e-16
4.944e-16
5.26346e-16
5.91611e-16
4.96524e-16
3.02204e-16
8.24439e-17
6.30912e-18
2.38136e-19
5.08224e-19
2.25598e-18
8.6526e-18
2.53757e-17
2.0008e-17
3.6902e-15
2.27135e-15
1.52711e-15
6.76056e-16
1.81841e-16
2.64968e-17
1.40337e-17
1.76631e-17
2.22898e-17
1.57969e-17
8.29709e-18
2.24708e-18
1.69609e-19
8.45766e-20
2.98268e-19
1.62593e-18
6.34433e-18
1.70284e-17
9.2084e-18
5.85891e-16
3.74826e-16
1.57582e-16
3.86577e-17
4.27957e-18
2.26818e-19
2.01652e-19
3.85714e-19
3.8412e-19
3.21843e-19
1.47541e-19
2.84183e-20
2.321e-20
5.17332e-20
2.11853e-19
1.2495e-18
4.53157e-18
8.04933e-18
5.79951e-18
8.44633e-17
4.06147e-17
8.21849e-18
7.42389e-19
2.69907e-20
1.83955e-21
2.77109e-21
5.04796e-21
6.20669e-21
6.21126e-21
6.20479e-21
9.99425e-21
1.85652e-20
4.36237e-20
1.8054e-19
1.00256e-18
2.70681e-18
5.08205e-18
2.27126e-18
9.65809e-18
2.30792e-18
1.66228e-19
2.92841e-21
9.48895e-23
9.31423e-23
1.57916e-22
3.51261e-22
7.81461e-22
1.78144e-21
4.10991e-21
8.93007e-21
1.71799e-20
4.03391e-20
1.68706e-19
6.90926e-19
1.68509e-18
2.04819e-18
1.26931e-18
4.83695e-19
3.30289e-20
4.0696e-22
1.04501e-23
1.42923e-23
3.36598e-23
9.24036e-23
2.49799e-22
6.61664e-22
1.64857e-21
3.88828e-21
8.37551e-21
1.60059e-20
3.69361e-20
1.29426e-19
4.22059e-19
9.16146e-19
1.15244e-18
4.01741e-19
3.68972e-21
7.85431e-23
1.72559e-24
2.86847e-24
8.52108e-24
2.68814e-23
7.80309e-23
2.15954e-22
5.62237e-22
1.39555e-21
3.25545e-21
6.94702e-21
1.31361e-20
2.97447e-20
9.32646e-20
2.73222e-19
5.06222e-19
3.78445e-19
1.76312e-19
8.33883e-24
3.48361e-25
5.96907e-25
2.09442e-24
6.94149e-24
2.13354e-23
6.22224e-23
1.68241e-22
4.34984e-22
1.07104e-21
2.47774e-21
5.23589e-21
9.87801e-21
2.11579e-20
6.09636e-20
1.55022e-19
2.09896e-19
1.73731e-19
4.37007e-20
3.15906e-26
1.05478e-25
4.33195e-25
1.53915e-24
4.99769e-24
1.50797e-23
4.26881e-23
1.14717e-22
2.93219e-22
7.15825e-22
1.64633e-21
3.44269e-21
6.4683e-21
1.3702e-20
3.16379e-20
8.82491e-20
9.16311e-20
4.455e-20
1.82469e-20
1.64352e-26
7.58774e-26
2.82604e-25
9.24574e-25
2.85952e-24
8.19444e-24
2.30698e-23
6.26456e-23
1.61119e-22
3.99837e-22
9.28059e-22
1.95447e-21
3.68281e-21
7.76564e-21
1.59243e-20
4.11349e-20
2.89508e-20
1.63777e-20
7.16487e-21
1.07162e-26
4.15036e-26
1.38214e-25
4.18581e-25
1.24387e-24
3.62342e-24
1.01805e-23
2.78098e-23
7.33105e-23
1.84549e-22
4.33102e-22
9.12349e-22
1.71305e-21
3.61861e-21
7.17461e-21
1.59787e-20
8.66296e-21
5.6514e-21
2.161e-21
3.90472e-27
1.22123e-26
3.5471e-26
9.7976e-26
3.02592e-25
9.44563e-25
2.78948e-24
7.67883e-24
2.01592e-23
5.11042e-23
1.20221e-22
2.5887e-22
4.91872e-22
1.00389e-21
1.90201e-21
3.76272e-21
2.19478e-21
1.12162e-21
1.45633e-22
)
;

boundaryField
{
    leftWall
    {
        type            alphaContactAngle;
        contactAngleProperties 
        {
            mercury         
            {
                theta0          90;
            }
            air             
            {
                theta0          90;
            }
            oil             
            {
                theta0          90;
            }
        }
        value           nonuniform List<scalar> 
50
(
9.60161e-11
2.28964e-10
3.17964e-10
2.7861e-10
1.12213e-10
0.0544425
0.780278
1
1
1
1
0.955568
0.792654
0.380695
0.0155685
0.00046478
2.32815e-08
2.22003e-08
7.85945e-08
2.53567e-08
9.18172e-09
8.8225e-09
1.90482e-08
2.19492e-08
2.12365e-08
1.92788e-08
1.66857e-08
1.634e-08
1.79023e-08
1.79334e-08
1.79334e-08
1.79334e-08
1.68232e-08
1.62558e-08
1.34517e-08
1.24022e-08
9.99634e-09
8.27761e-09
6.3659e-09
4.46706e-09
2.67703e-09
1.44926e-09
6.11128e-10
2.35764e-10
6.60061e-11
1.57364e-11
2.35105e-12
2.0693e-13
3.44736e-15
6.00246e-21
)
;
    }
    rightWall
    {
        type            alphaContactAngle;
        contactAngleProperties 
        {
            mercury         
            {
                theta0          90;
            }
            air             
            {
                theta0          90;
            }
            oil             
            {
                theta0          90;
            }
        }
        value           nonuniform List<scalar> 
50
(
0.0134123
0.012312
0.00100969
0.00100689
0.0352449
0.235599
0.435084
0.595388
0.765173
0.905296
0.219763
3.53963e-05
0.000306603
0.00185758
0.00511281
0.00453593
0.000602521
8.69418e-10
7.2855e-10
1.13518e-09
6.35827e-10
3.37051e-10
1.99007e-10
8.9174e-11
4.4338e-11
1.77673e-11
5.02772e-12
1.046e-12
1.58513e-13
1.64954e-14
2.14899e-15
3.77749e-16
2.16576e-16
1.39325e-16
1.10498e-16
7.06716e-17
5.27803e-17
2.91065e-17
2.0008e-17
9.2084e-18
5.79951e-18
2.27126e-18
1.26931e-18
4.01741e-19
1.76312e-19
4.37007e-20
1.82469e-20
7.16487e-21
2.161e-21
1.45633e-22
)
;
    }
    lowerWall
    {
        type            alphaContactAngle;
        contactAngleProperties 
        {
            mercury         
            {
                theta0          90;
            }
            air             
            {
                theta0          90;
            }
            oil             
            {
                theta0          90;
            }
        }
        value           nonuniform List<scalar> 
62
(
9.60161e-11
1.10345e-10
1.23971e-10
1.30952e-10
1.37729e-10
1.44759e-10
1.50934e-10
1.55589e-10
1.58692e-10
1.64322e-10
1.75107e-10
1.93868e-10
2.24616e-10
2.70274e-10
3.34491e-10
4.22608e-10
5.39499e-10
7.0217e-10
1.17231e-09
1.97973e-09
2.6593e-09
2.77878e-09
2.77882e-09
2.77882e-09
2.53713e-09
1.57478e-09
1.28002e-09
2.11253e-10
0.0206858
0.650495
0.999301
0.999998
0.999643
0.976246
0.850683
0.0107279
0.0785591
0.449503
0.80038
0.884324
0.884324
0.884262
0.803637
0.0107279
0.0107401
0.0199253
0.0533496
0.0645697
0.0579711
0.0295183
0.00784839
0.000673527
0.000673527
0.000673527
0.00140755
0.00814695
0.10836
0.12443
0.124455
0.0720206
0.00335249
0.0134123
)
;
    }
    atmosphere
    {
        type            inletOutlet;
        inletValue      uniform 0;
        value           nonuniform List<scalar> 
46
(
0
0
3.69123e-16
3.36815e-16
1.92579e-16
9.17011e-17
3.98465e-17
1.56836e-17
6.17824e-18
2.44853e-18
9.60076e-19
4.20134e-19
1.98329e-19
9.08814e-20
3.63775e-20
1.2158e-20
3.74457e-21
1.22031e-21
3.79889e-22
1.01516e-22
1.56096e-23
0
0
0
0
0
1.09722e-27
0
0
0
0
0
0
0
0
0
0
0
2.5887e-22
0
0
0
0
0
0
0
)
;
    }
    defaultFaces
    {
        type            empty;
    }
}


// ************************************************************************* //
