/*--------------------------------*- C++ -*----------------------------------*\
  =========                 |
  \\      /  F ield         | OpenFOAM: The Open Source CFD Toolbox
   \\    /   O peration     | Website:  https://openfoam.org
    \\  /    A nd           | Version:  13
     \\/     M anipulation  |
\*---------------------------------------------------------------------------*/
FoamFile
{
    format      ascii;
    class       volScalarField;
    location    "2.35";
    object      alpha.oil;
}
// * * * * * * * * * * * * * * * * * * * * * * * * * * * * * * * * * * * * * //

dimensions      [];

internalField   nonuniform List<scalar> 
2268
(
1.36868e-14
9.71589e-14
5.29898e-13
1.85114e-12
4.76241e-12
1.08069e-11
2.23816e-11
4.32491e-11
7.94994e-11
1.5375e-10
2.89361e-10
5.3453e-10
1.0173e-09
1.93792e-09
3.68096e-09
7.24057e-09
1.28896e-08
1.32692e-08
1.37089e-08
5.15487e-05
0.000406881
0.00056709
0.000567144
1.36795e-14
9.07041e-14
4.61799e-13
2.17071e-12
5.51243e-12
1.2515e-11
2.60195e-11
5.39335e-11
1.01962e-10
1.89545e-10
3.43023e-10
6.76244e-10
1.24856e-09
2.23759e-09
4.76968e-09
9.0362e-09
1.77051e-08
2.37859e-08
1.36081e-08
6.48926e-06
2.12776e-05
7.27697e-05
0.000321961
3.95176e-14
1.43579e-13
3.71091e-13
2.08214e-12
5.39728e-12
1.22849e-11
2.58694e-11
5.25932e-11
1.03095e-10
1.93003e-10
3.74188e-10
6.85311e-10
1.23093e-09
2.20865e-09
3.87872e-09
6.46358e-09
9.78787e-09
1.32512e-08
1.32691e-08
1.04979e-08
1.08022e-08
1.04979e-08
1.31596e-06
7.53399e-13
6.40896e-13
7.4072e-13
1.78723e-12
4.12809e-12
9.60255e-12
2.36461e-11
5.08834e-11
1.09901e-10
2.22877e-10
4.47461e-10
9.1707e-10
1.48788e-09
2.74061e-09
4.67421e-09
7.28343e-09
9.09177e-09
9.2535e-09
9.31058e-09
1.2097e-08
1.34605e-08
1.76409e-08
4.76395e-08
5.1601e-12
2.58232e-12
2.41077e-12
2.61785e-12
3.87847e-12
7.85327e-12
1.73157e-11
3.79844e-11
7.72572e-11
2.03211e-10
4.46343e-10
9.56578e-10
1.73119e-09
2.91447e-09
4.90932e-09
9.90906e-09
3.2703e-08
1.77685e-08
8.87075e-08
4.69214e-08
1.28632e-08
1.11351e-08
9.95489e-09
3.14137e-10
2.17933e-10
1.41684e-10
9.39331e-11
5.47306e-11
3.48912e-11
2.14733e-11
2.85146e-11
5.20332e-11
1.15242e-10
2.91361e-10
7.68393e-10
1.56681e-09
2.65504e-09
3.14116e-09
2.02782e-09
1.55456e-09
9.69109e-07
2.04887e-06
1.56344e-06
2.92678e-07
7.58605e-06
2.91871e-05
2.34157e-09
1.90544e-09
1.37775e-09
1.01232e-09
7.58718e-10
5.35585e-10
2.9163e-10
1.01948e-10
5.49257e-11
5.73171e-11
1.29065e-10
3.20159e-10
7.14186e-10
1.4788e-09
1.2094e-09
7.30292e-10
4.76997e-10
1.64344e-06
2.2012e-06
1.05913e-06
6.14578e-06
4.71057e-05
4.78643e-05
3.62423e-09
3.23827e-09
2.49864e-09
1.99451e-09
1.691e-09
1.31748e-09
1.03628e-09
5.28039e-10
2.17893e-10
1.34839e-10
1.36876e-10
2.18066e-10
3.96996e-10
6.70603e-10
6.7783e-10
6.86687e-10
6.98795e-08
3.69574e-07
7.92047e-07
2.80241e-08
7.3084e-06
2.81146e-05
4.78523e-05
0.131485
0.122121
0.100231
0.053333
0.0316319
0.0309269
0.0339938
0.250449
0.302798
0.319345
0.319491
0.322825
0.309664
0.173316
0.0636274
0.0958149
0.16255
0.231251
0.221222
0.401215
0.397694
0.385524
0.384626
0.347773
0.108437
0.0326724
0.0574843
0.104404
0.0823303
0.0895285
0.166043
0.230114
0.110712
0.0645903
0.0814493
0.195226
0.231438
0.222289
0.385951
0.252574
0.380204
0.55653
0.575478
0.50174
0.126396
3.91231e-05
4.17458e-05
3.9426e-05
0.00633789
0.037328
0.141043
0.150927
0.0743989
0.0994229
0.217983
0.317944
0.407269
0.0417282
0.00375838
0.00378765
0.0286267
0.357711
0.737323
0.600399
0.1944
0.00316406
7.1056e-05
0.00139731
0.0438168
0.164697
0.174409
0.122422
0.174206
0.377294
0.471129
0.471251
0.00779609
0.00372457
0.0037587
0.00372457
0.34532
0.741773
0.741762
0.68277
0.135937
0.000365751
1.24648e-19
0.072708
0.173901
0.178517
0.248248
0.292063
0.299924
0.405617
0.471146
0.0311474
0.0251153
0.0165673
0.0431653
0.538277
0.741824
0.741835
0.557482
0.0771308
5.77379e-09
2.32586e-17
0.0628572
0.280312
0.311556
0.309114
0.306461
0.244005
0.00506646
0.365715
0.0486251
0.0357723
0.0419035
0.129056
0.702454
0.712944
0.484644
0.0683665
0.00185947
2.69782e-12
-1.29437e-25
0.0564486
0.282765
0.300103
0.306121
0.173686
0.000256159
0.00269991
0.406565
0.0886401
0.0357643
0.0409128
0.143181
0.705654
0.574448
0.0240241
-4.90846e-19
6.47268e-06
2.05767e-08
-2.36503e-09
0.0263567
0.2149
0.281351
0.186482
0.000220988
0.000211776
0.0124745
0.404608
3.92774e-09
3.78559e-09
3.02962e-09
2.46767e-09
2.2355e-09
1.50569e-09
1.72844e-09
1.13971e-09
6.60054e-10
4.13618e-10
2.58177e-10
2.70909e-10
4.07423e-10
6.97479e-10
1.83336e-09
5.08501e-09
7.16618e-09
5.99086e-09
2.26211e-12
7.31997e-09
1.15098e-06
3.13335e-07
9.89256e-06
3.40128e-09
2.96453e-09
2.12885e-09
2.02139e-09
2.06223e-09
1.16127e-08
3.12232e-09
2.17748e-09
1.26613e-09
8.81396e-10
5.69505e-10
3.17818e-10
4.21144e-10
5.40476e-10
7.65064e-10
1.55937e-09
5.66727e-10
2.45738e-11
2.28306e-12
2.12319e-09
1.67244e-13
3.62635e-23
-4.53027e-23
5.69164e-10
4.09446e-10
3.56214e-10
4.11533e-10
4.72752e-10
1.48991e-07
1.4184e-09
8.68062e-10
9.87931e-10
1.24269e-08
1.54423e-08
2.43899e-09
1.646e-20
-8.41777e-21
7.32279e-21
1.73365e-19
1.59632e-20
1.58527e-22
1.15933e-30
1.84137e-19
0.0382175
0.186589
0.314073
6.82837e-10
1.61861e-05
0.011477
0.0260865
0.0319622
0.0147306
-4.57808e-15
-1.50241e-15
0.00124802
0.0078434
0.0168431
0.0314021
0.0400811
0.0447973
0.0928341
0.194304
0.302321
0.419847
0.515774
0.626685
0.81999
0.891771
0.824195
0.0614065
0.315387
0.547172
0.64764
0.661048
0.511173
0.339826
0.355062
0.464395
0.535729
0.589443
0.671669
0.754817
0.821121
0.855297
0.839693
0.8445
0.955553
0.985167
0.987233
0.989135
0.92338
0.908627
0.475466
0.973684
0.999338
0.999158
0.995999
0.916933
0.879295
0.94508
0.971706
0.946329
0.931757
0.980769
0.999978
0.998391
0.985974
0.980143
0.986069
0.998924
0.999948
0.999432
0.995186
0.991119
0.998061
0.950041
0.998222
0.99938
0.999936
0.999999
1
1
1
1
1
1
1
1
1
1
1
1
1
0.999948
0.999928
0.99998
0.999999
0.999998
0.972432
0.997836
0.937701
0.918949
0.939617
0.927424
0.91835
0.957233
0.980733
0.987472
0.991852
0.9968
0.999864
1
1
1
1
1
1
1
1
1
0.999999
0.916972
0.577827
0.271929
0.186323
0.143902
0.122921
0.206954
0.312018
0.364798
0.385964
0.416686
0.479813
0.552887
0.612478
0.654641
0.687879
0.705871
0.715286
0.724047
0.742318
0.753429
0.734894
0.714448
0.235196
0.02843
1.97838e-05
8.35746e-06
4.80706e-06
2.31158e-06
1.27536e-08
3.00054e-08
2.11844e-15
1.34816e-35
-4.54439e-42
1.04642e-24
6.81952e-18
3.21406e-12
0
4.98017e-11
0.00312937
0.00266726
0.00436493
0.00732149
0.00173837
-4.17945e-11
-2.59156e-10
7.61085e-05
2.20369e-05
1.57229e-06
1.66631e-06
6.04898e-06
6.00827e-07
3.00566e-07
3.29282e-07
9.25503e-08
-6.9633e-23
1.76193e-24
4.61071e-24
1.18503e-08
9.27559e-10
-1.94602e-09
-4.74332e-10
2.36367e-15
6.42515e-10
1.03426e-09
4.19592e-16
7.79602e-10
4.25399e-09
1.93972e-08
2.36223e-06
8.51248e-07
1.43611e-06
2.78191e-05
5.89708e-05
2.30489e-05
9.89849e-08
3.44915e-07
3.38746e-06
1.74827e-05
3.06071e-06
7.44481e-07
1.14483e-07
1.13189e-07
7.3191e-08
3.7674e-08
5.19597e-08
7.58852e-08
7.57563e-08
6.80286e-08
6.98209e-08
8.56739e-08
1.02475e-07
1.06729e-06
1.66626e-06
1.89955e-06
6.28851e-05
6.28786e-05
2.80742e-05
2.72577e-07
1.09558e-05
8.90918e-05
0.000161408
4.47953e-05
4.10622e-06
5.88941e-10
8.69675e-10
1.31385e-08
5.01321e-08
1.35302e-07
1.82374e-07
1.61784e-07
1.38121e-07
1.09932e-07
8.60753e-08
9.55718e-08
1.19328e-06
1.91267e-06
3.48132e-06
3.406e-05
3.35917e-05
6.06947e-06
1.22194e-07
1.81577e-07
0.000163128
0.00016358
0.00016358
6.83838e-05
1.08964e-10
4.43011e-10
5.53513e-09
3.95542e-08
2.71915e-07
2.84517e-07
2.61569e-07
2.07084e-07
1.6219e-07
1.15878e-07
7.61538e-08
8.69949e-07
1.91874e-06
2.60743e-06
4.99614e-08
4.11377e-08
4.92091e-08
5.00903e-08
5.37043e-08
0.000105538
0.00016358
0.00016358
9.68085e-05
1.65436e-26
2.01301e-09
5.46747e-09
2.21145e-08
2.16781e-07
2.84288e-07
2.79249e-07
2.37478e-07
1.86803e-07
1.25621e-07
6.94134e-08
5.54677e-07
1.24354e-06
1.54845e-06
1.37184e-07
5.00076e-08
6.37031e-08
5.67568e-08
5.3052e-08
7.29265e-06
9.71571e-05
0.000110741
2.40694e-05
-3.11578e-10
3.07505e-08
1.4953e-08
6.37745e-09
3.51591e-08
2.47145e-07
2.81808e-07
2.395e-07
1.85077e-07
1.17929e-07
8.50023e-08
3.45591e-07
6.00289e-07
6.04416e-07
1.24323e-07
9.19143e-08
9.82701e-08
8.95195e-08
1.5907e-07
4.32991e-07
3.42377e-06
1.10697e-06
2.88974e-07
4.19223e-07
1.42971e-07
5.63035e-08
6.2334e-09
6.37811e-09
4.52174e-08
1.82479e-07
1.79769e-07
1.34364e-07
1.10302e-07
7.64813e-08
2.20325e-07
2.66775e-07
1.91112e-07
1.00135e-07
8.96027e-08
8.98441e-08
1.08395e-07
1.42003e-07
8.71739e-08
1.9063e-07
1.83458e-07
2.86552e-07
8.51246e-07
7.78011e-07
2.00893e-07
1.30014e-08
6.24043e-09
1.26724e-08
7.36063e-08
1.10556e-07
9.16679e-08
6.26571e-08
5.44478e-08
1.19241e-07
1.41835e-07
1.06017e-07
7.94189e-08
7.22702e-08
7.24978e-08
7.33662e-08
8.17446e-08
3.5434e-08
3.48461e-08
4.26026e-08
5.6323e-07
8.45437e-07
8.41733e-07
1.97267e-07
3.04352e-08
8.5703e-09
8.94844e-09
2.74002e-08
4.65909e-08
3.8766e-08
3.66302e-08
2.80508e-08
6.84095e-08
1.00012e-07
8.27092e-08
6.46487e-08
5.39434e-08
4.49926e-08
4.62435e-08
3.51802e-08
2.95078e-08
3.01176e-08
5.83396e-08
3.23378e-07
6.44345e-07
3.92824e-07
9.63185e-08
3.20224e-08
1.13091e-08
9.60263e-09
1.29985e-08
2.02686e-08
1.94809e-08
1.60031e-08
1.28384e-08
5.7284e-08
8.49059e-08
7.54201e-08
5.63982e-08
4.15845e-08
2.97907e-08
2.86036e-08
2.37833e-08
2.34041e-08
3.18079e-08
5.36544e-08
1.09584e-07
1.33873e-07
8.51729e-08
4.52052e-08
2.09706e-08
1.11751e-08
9.49128e-09
9.36338e-09
1.0491e-08
1.01477e-08
8.66179e-09
6.72223e-09
4.75682e-08
7.60894e-08
6.84692e-08
5.11126e-08
3.68653e-08
2.50031e-08
1.9371e-08
1.6564e-08
1.65384e-08
2.15518e-08
3.08145e-08
3.59625e-08
2.91394e-08
2.58818e-08
1.78865e-08
1.24319e-08
9.07429e-09
7.84673e-09
7.17692e-09
6.78401e-09
6.20627e-09
5.24439e-09
4.35244e-09
3.34722e-08
6.23798e-08
6.14849e-08
4.8184e-08
3.13154e-08
2.15513e-08
1.51707e-08
1.20026e-08
1.07879e-08
1.21981e-08
1.41947e-08
1.35387e-08
1.13792e-08
9.87846e-09
8.66251e-09
7.44472e-09
6.27375e-09
5.50554e-09
4.8168e-09
4.38717e-09
3.93127e-09
3.52566e-09
2.94936e-09
3.13543e-08
5.46647e-08
5.41655e-08
4.03235e-08
2.88711e-08
1.90789e-08
1.26492e-08
8.70932e-09
6.92141e-09
6.30169e-09
6.25017e-09
5.70861e-09
5.06942e-09
4.70194e-09
4.43049e-09
4.1646e-09
3.66228e-09
3.28511e-09
2.87563e-09
2.6222e-09
2.41448e-09
2.11154e-09
1.84253e-09
1.95582e-08
3.26766e-08
3.44417e-08
2.89081e-08
2.24634e-08
1.57486e-08
1.01632e-08
6.447e-09
4.55358e-09
3.63684e-09
3.18084e-09
2.89137e-09
2.64053e-09
2.51188e-09
2.37722e-09
2.19831e-09
1.98079e-09
1.71957e-09
1.53449e-09
1.40704e-09
1.26447e-09
1.16274e-09
1.00543e-09
1.64519e-08
2.61174e-08
2.51609e-08
2.09186e-08
1.67711e-08
1.21297e-08
7.90066e-09
4.84505e-09
3.11906e-09
2.22998e-09
1.77465e-09
1.47211e-09
1.34782e-09
1.26247e-09
1.19719e-09
1.10471e-09
9.64975e-10
8.57776e-10
7.50011e-10
6.80941e-10
6.12909e-10
5.37311e-10
4.74578e-10
9.4373e-09
1.64847e-08
1.6244e-08
1.32754e-08
1.00551e-08
7.94352e-09
5.57773e-09
3.34567e-09
2.01903e-09
1.34506e-09
9.62563e-10
7.70034e-10
6.80284e-10
6.19055e-10
5.68753e-10
5.10891e-10
4.48639e-10
3.91134e-10
3.4077e-10
3.03037e-10
2.6259e-10
2.3247e-10
1.96939e-10
7.09444e-09
1.10461e-08
1.04699e-08
8.23075e-09
6.04727e-09
4.52094e-09
3.21541e-09
2.10674e-09
1.30057e-09
8.11217e-10
5.34781e-10
3.78823e-10
3.0095e-10
2.67071e-10
2.45384e-10
2.20477e-10
1.94122e-10
1.69717e-10
1.43304e-10
1.24224e-10
1.0661e-10
8.77837e-11
7.37893e-11
4.18952e-09
6.67802e-09
5.98616e-09
4.51389e-09
3.18664e-09
2.40938e-09
1.76753e-09
1.15064e-09
7.0795e-10
4.34547e-10
2.719e-10
1.84095e-10
1.3195e-10
1.08959e-10
9.471e-11
8.47685e-11
7.48899e-11
6.37378e-11
5.41311e-11
4.60688e-11
3.75429e-11
3.06861e-11
2.43248e-11
2.57689e-09
3.64933e-09
3.07292e-09
2.20844e-09
1.47768e-09
1.08803e-09
8.09044e-10
5.31685e-10
3.43577e-10
2.11571e-10
1.25721e-10
8.04909e-11
5.39352e-11
4.09283e-11
3.33977e-11
2.87718e-11
2.50445e-11
2.18744e-11
1.82292e-11
1.51845e-11
1.23514e-11
9.28372e-12
7.31478e-12
1.46564e-09
1.79835e-09
1.41907e-09
9.7014e-10
6.15733e-10
4.34292e-10
3.16351e-10
2.16835e-10
1.41148e-10
8.61622e-11
5.28272e-11
3.17062e-11
2.02956e-11
1.42307e-11
1.07255e-11
8.88215e-12
7.67179e-12
6.49279e-12
5.5155e-12
4.48781e-12
3.42224e-12
2.566e-12
1.91032e-12
7.45717e-10
7.95848e-10
5.91745e-10
3.8566e-10
2.30372e-10
1.5399e-10
1.10392e-10
7.7974e-11
4.99772e-11
3.07555e-11
1.86068e-11
1.12422e-11
6.84859e-12
4.35465e-12
3.22326e-12
2.53665e-12
2.12831e-12
1.80158e-12
1.45655e-12
1.15646e-12
8.7497e-13
6.0264e-13
4.36459e-13
3.18543e-10
3.13929e-10
2.20334e-10
1.36836e-10
7.74116e-11
4.68342e-11
3.30859e-11
2.34926e-11
1.57142e-11
9.78649e-12
5.8793e-12
3.49487e-12
2.05988e-12
1.25177e-12
8.56218e-13
6.46937e-13
5.26192e-13
4.38009e-13
3.45941e-13
2.60916e-13
1.86745e-13
1.27883e-13
8.46952e-14
1.23698e-10
1.03111e-10
6.80881e-11
4.04297e-11
2.20021e-11
1.33527e-11
9.24001e-12
6.47979e-12
4.31187e-12
2.70318e-12
1.63095e-12
9.2598e-13
5.27558e-13
3.05172e-13
2.00157e-13
1.51576e-13
1.17605e-13
9.19532e-14
7.09892e-14
5.14291e-14
3.47199e-14
2.22857e-14
1.39783e-14
3.76143e-11
3.01704e-11
1.87459e-11
1.06672e-11
5.65623e-12
3.31303e-12
2.20031e-12
1.52624e-12
1.02591e-12
6.51646e-13
3.79453e-13
2.12273e-13
1.16265e-13
6.8298e-14
4.36677e-14
3.04914e-14
2.40075e-14
1.78313e-14
1.31134e-14
8.86845e-15
5.78463e-15
3.52137e-15
2.02797e-15
1.06273e-11
7.79124e-12
4.52172e-12
2.45109e-12
1.28062e-12
7.29181e-13
4.70764e-13
3.19871e-13
2.04176e-13
1.27558e-13
7.4731e-14
4.22473e-14
2.37369e-14
1.40876e-14
8.87185e-15
6.17208e-15
4.50304e-15
3.23872e-15
2.23912e-15
1.41539e-15
8.48025e-16
4.69881e-16
2.553e-16
2.22994e-12
1.46407e-12
8.03776e-13
4.67893e-13
2.47859e-13
1.28788e-13
8.20774e-14
5.78398e-14
4.08497e-14
2.54294e-14
1.49738e-14
8.45441e-15
4.72269e-15
2.65065e-15
1.65557e-15
1.13008e-15
7.95458e-16
5.4081e-16
3.44989e-16
1.98872e-16
1.09074e-16
5.47343e-17
3.23321e-17
4.09309e-13
2.41738e-13
1.33457e-13
7.26917e-14
3.86445e-14
2.25399e-14
1.47289e-14
1.07743e-14
7.61232e-15
4.74229e-15
2.70255e-15
1.42929e-15
7.97071e-16
4.566e-16
2.84069e-16
1.89206e-16
1.30528e-16
8.30179e-17
4.86086e-17
2.55145e-17
1.22776e-17
6.42244e-18
7.26698e-18
4.81723e-14
3.02675e-14
1.81677e-14
1.0476e-14
6.03335e-15
3.57632e-15
2.13483e-15
1.58578e-15
1.13719e-15
7.23285e-16
4.20994e-16
2.41927e-16
1.3232e-16
7.50531e-17
4.57769e-17
3.0504e-17
2.02538e-17
1.19109e-17
6.19857e-18
2.96675e-18
1.43486e-18
1.13045e-18
3.62513e-18
3.39286e-15
2.43932e-15
1.91271e-15
1.2224e-15
6.97309e-16
4.34441e-16
3.13847e-16
2.52779e-16
1.82656e-16
1.14919e-16
6.56222e-17
3.6583e-17
2.01747e-17
1.15139e-17
7.21392e-18
4.82927e-18
3.0667e-18
1.57455e-18
7.27492e-19
3.28637e-19
2.16647e-19
4.74412e-19
2.709e-18
4.61324e-17
9.37149e-17
1.5531e-16
1.37699e-16
8.85041e-17
5.53704e-17
3.90661e-17
3.10396e-17
2.45691e-17
1.64043e-17
9.36593e-18
5.20253e-18
2.94736e-18
1.72521e-18
1.12181e-18
7.39258e-19
4.18605e-19
2.11911e-19
9.3092e-20
4.9035e-20
7.27741e-20
3.03368e-19
1.97504e-18
1.14409e-23
1.01186e-18
1.04646e-17
1.34919e-17
1.01702e-17
6.71491e-18
4.94067e-18
3.97007e-18
3.19941e-18
2.19351e-18
1.22444e-18
6.74431e-19
3.92712e-19
2.51549e-19
1.70851e-19
1.09957e-19
6.21777e-20
3.01286e-20
1.40023e-20
1.15083e-20
3.28908e-20
1.62065e-19
1.10633e-18
4.12464e-06
1.06012e-06
6.56449e-07
0.103638
2.96462e-23
1.30825e-06
0.400578
0.658446
0.407022
0.647626
0.783893
0.677902
0.847892
0.916408
0.912248
0.914026
0.978928
0.998705
0.999599
0.999847
0.99993
0.999984
0.999979
0.999964
0.999997
0.999994
0.999982
0.999979
0.999995
0.999995
0.999998
0.999999
0.71127
0.687459
0.662648
0.635588
1.14448e-09
1.32349e-25
3.00976e-17
2.09023e-17
3.94026e-08
5.94246e-08
8.5765e-08
8.87886e-08
1.92515e-07
3.10205e-07
3.05289e-07
3.28825e-07
1.3488e-07
1.68345e-07
2.2763e-07
2.20667e-07
8.86265e-08
1.06012e-07
1.12877e-07
1.30894e-07
6.96135e-08
6.6434e-08
7.2497e-08
7.70345e-08
5.77236e-08
4.76396e-08
4.74234e-08
5.18362e-08
6.25392e-08
2.66189e-08
3.65635e-08
3.27471e-08
4.28579e-08
2.78727e-08
1.79033e-08
1.8926e-08
2.51633e-08
1.41491e-08
1.42365e-08
1.0802e-08
1.06077e-08
9.08199e-09
6.87236e-09
5.68789e-09
6.1452e-09
4.73224e-09
4.18697e-09
3.53378e-09
3.78531e-09
3.29959e-09
2.84913e-09
2.50532e-09
2.70546e-09
2.3356e-09
2.07036e-09
1.88284e-09
1.70121e-09
1.54181e-09
1.38748e-09
1.25966e-09
9.47146e-10
8.5814e-10
7.7026e-10
7.21189e-10
4.45778e-10
4.0503e-10
3.7306e-10
3.41749e-10
1.85888e-10
1.67685e-10
1.50781e-10
1.38096e-10
6.8605e-11
6.16488e-11
5.55977e-11
4.93243e-11
2.26481e-11
1.9768e-11
1.74499e-11
1.51182e-11
6.52221e-12
5.61527e-12
4.9925e-12
4.24166e-12
1.68874e-12
1.44364e-12
1.25372e-12
1.00071e-12
3.76588e-13
3.13683e-13
2.63034e-13
2.0418e-13
7.1507e-14
5.68987e-14
4.41904e-14
3.39086e-14
1.12033e-14
9.09543e-15
7.00114e-15
4.7643e-15
1.59576e-15
1.19655e-15
8.87185e-16
6.45438e-16
1.94685e-16
1.53444e-16
1.29749e-16
1.28038e-16
2.90252e-17
3.01453e-17
3.89997e-17
6.44108e-17
9.4146e-18
1.38435e-17
2.59415e-17
6.20669e-17
5.8765e-18
1.09097e-17
2.77506e-17
8.23338e-17
4.8088e-18
1.12529e-17
3.67156e-17
1.19044e-16
3.88553e-18
1.24796e-17
4.4866e-17
1.45632e-16
3.35448e-18
1.17613e-17
3.94707e-17
1.14693e-16
0.211245
0.0487503
0.032651
0.107834
0.698349
0.316194
3.06564e-19
-4.48786e-12
-6.12796e-24
-1.4039e-08
-1.19813e-09
0.000727583
0.00650203
0.0174713
0.000228869
0.000189333
0.000176083
0.0189879
0.233114
0.31489
0.0719014
0.179646
0.611433
0.775838
0.255138
0.0736228
0.221778
0.192596
0.0807194
0.019709
0.000445666
0.000452737
0.000492247
0.000584396
0.0131428
0.0198078
0.0357173
0.0496066
0.663545
0.865234
0.948886
0.953239
0.819544
0.641487
0.749984
0.936572
0.925561
0.848957
0.754543
0.645931
0.557695
0.53548
0.552773
0.580168
0.608125
0.652702
0.708987
0.982541
0.999437
0.999458
0.979858
0.90862
0.920595
0.983271
0.999762
0.999974
0.999988
0.999991
0.999966
0.999587
0.99888
0.998795
0.999721
0.999503
0.97914
0.950014
0.999963
0.999603
0.999068
0.995767
0.998412
0.999996
1
0.999998
0.999988
0.999996
0.999999
0.999999
0.999979
0.999819
0.999745
0.999763
0.999761
0.99976
0.998347
0.999964
0.999957
0.999882
0.999999
0.999999
1
1
0.999999
0.999999
1
1
1
1
1
1
0.999978
0.999525
0.99846
0.997972
0.999996
1
1
1
1
1
1
1
1
1
0.999999
0.999981
0.998894
0.973244
0.920441
0.852435
0.789563
0.760181
0.795646
0.999999
0.999739
0.999947
1
1
0.99718
0.970583
0.933053
0.886742
0.831213
0.756084
0.631207
0.419325
0.245884
0.145618
0.0816233
0.0460897
0.0476966
0.0964479
0.593112
0.551354
0.511915
0.468607
0.413743
0.340516
0.273589
0.205716
0.138962
0.0761896
0.0236597
3.19963e-09
2.68256e-09
1.52915e-19
-1.83454e-18
1.95303e-18
6.68327e-20
6.63664e-20
-2.05171e-19
5.9714e-17
3.33109e-12
1.83749e-09
1.90913e-07
7.66357e-06
4.46102e-06
3.18291e-10
1.89921e-23
-2.07948e-13
2.08126e-16
2.98588e-09
0.000220331
0.000340052
0.000204531
1.08785e-05
1.20671e-07
2.81324e-07
1.70991e-07
9.30553e-08
7.00491e-08
4.77973e-08
4.38445e-08
3.6635e-08
2.67363e-05
8.84462e-05
7.5397e-05
1.48026e-05
4.3511e-06
1.76751e-05
0.00065929
0.00103352
0.0010322
0.000150591
4.32371e-07
5.21582e-07
6.07738e-07
4.67098e-07
5.42862e-07
3.27249e-07
2.89579e-07
3.58227e-07
1.91268e-06
0.000583593
0.000979841
0.000977947
0.000361692
4.53174e-06
1.03415e-05
0.000602765
0.00101474
0.00021012
2.99005e-07
4.13481e-07
6.03466e-07
5.41158e-07
3.99035e-07
5.84455e-07
2.48836e-07
2.55432e-07
4.66551e-07
3.44971e-07
0.000323562
0.000978558
0.000978983
0.00082519
1.36303e-07
1.3771e-07
1.36293e-07
1.52684e-07
1.52715e-07
3.08224e-07
4.07343e-07
4.10569e-07
2.25957e-07
2.8861e-07
5.87275e-07
1.37801e-07
1.88982e-07
2.85619e-07
4.79984e-07
1.54779e-07
4.15039e-06
8.46226e-05
6.19599e-05
2.61287e-05
1.35185e-07
1.7301e-07
2.95571e-07
3.63732e-07
2.941e-07
1.55548e-07
9.42874e-08
8.17557e-08
2.36049e-07
2.74003e-07
8.91935e-08
1.24708e-07
1.84741e-07
1.89328e-07
1.38018e-07
1.29497e-07
1.2665e-07
1.29498e-07
1.29369e-07
1.70736e-07
3.19765e-07
4.92048e-07
4.89469e-07
4.36234e-07
1.8229e-07
5.09249e-08
6.96048e-08
8.51321e-08
4.5375e-08
5.30149e-08
6.27679e-08
9.19733e-08
1.12847e-07
1.46043e-07
2.75216e-07
3.50852e-07
3.82864e-07
2.83206e-07
1.26898e-07
9.24121e-08
2.23351e-07
3.65996e-07
3.46654e-07
1.6535e-07
4.46361e-08
3.68146e-08
2.20866e-08
1.36159e-08
3.17477e-08
3.48869e-08
4.15602e-08
4.63712e-08
5.75499e-08
1.16665e-07
3.19676e-07
4.05787e-07
3.60232e-07
2.07176e-07
4.21073e-08
4.75117e-08
1.16181e-07
1.20542e-07
4.38097e-08
2.65369e-08
2.70603e-08
1.35366e-08
1.36447e-08
1.62837e-08
1.75234e-08
2.23084e-08
2.46749e-08
2.37382e-08
2.49313e-08
4.15906e-08
1.20555e-07
1.31299e-07
6.35842e-08
4.45632e-08
2.72072e-08
1.46392e-08
1.01016e-08
1.07759e-08
1.72798e-08
1.50363e-08
1.38783e-08
1.39649e-08
8.04858e-09
7.39934e-09
1.00036e-08
1.26365e-08
1.54509e-08
1.69143e-08
1.36797e-08
1.01415e-08
9.58431e-09
1.19153e-08
1.90847e-08
1.88444e-08
1.31544e-08
8.2589e-09
1.02305e-08
1.13592e-08
1.21592e-08
1.4312e-08
1.49584e-08
3.93501e-09
3.32355e-09
3.77652e-09
5.44168e-09
6.85494e-09
8.78031e-09
9.93452e-09
9.69453e-09
9.11105e-09
1.00701e-08
1.10426e-08
1.08932e-08
9.06518e-09
7.73086e-09
7.65024e-09
9.74003e-09
1.1803e-08
1.67802e-08
1.55645e-08
2.45224e-09
1.95718e-09
1.86622e-09
2.12717e-09
2.8866e-09
3.62719e-09
4.33012e-09
4.69446e-09
5.28466e-09
5.57247e-09
5.33188e-09
4.92377e-09
4.55801e-09
4.65614e-09
5.47707e-09
7.6242e-09
1.25655e-08
1.81163e-08
2.49972e-08
1.82083e-09
1.44186e-09
1.24877e-09
1.17925e-09
1.19666e-09
1.38015e-09
1.61359e-09
1.8868e-09
2.12109e-09
2.2639e-09
2.23142e-09
2.1148e-09
2.32695e-09
2.94025e-09
4.13766e-09
6.71171e-09
1.36202e-08
3.20543e-08
2.71995e-08
1.43366e-09
1.12047e-09
9.18759e-10
7.59877e-10
6.76399e-10
6.40568e-10
6.60437e-10
7.48504e-10
8.53259e-10
9.50807e-10
1.08122e-09
1.29697e-09
1.65743e-09
2.34981e-09
3.61372e-09
6.60628e-09
1.6389e-08
3.76409e-08
4.85768e-08
9.97542e-10
7.85906e-10
6.32985e-10
5.01542e-10
3.94626e-10
3.27607e-10
2.94417e-10
3.00536e-10
3.50524e-10
4.48566e-10
5.9448e-10
8.31058e-10
1.23874e-09
1.98213e-09
3.38932e-09
6.88642e-09
1.84843e-08
6.71368e-08
5.20606e-08
5.69524e-10
4.59922e-10
3.69894e-10
2.83602e-10
2.19417e-10
1.71134e-10
1.49476e-10
1.51172e-10
1.85916e-10
2.59127e-10
4.01523e-10
6.42533e-10
1.06503e-09
1.82052e-09
3.33612e-09
7.27177e-09
2.23833e-08
7.21596e-08
8.7051e-08
2.69755e-10
2.17632e-10
1.73187e-10
1.32991e-10
1.01959e-10
8.02897e-11
7.39341e-11
8.39438e-11
1.15937e-10
1.86198e-10
3.16732e-10
5.61387e-10
9.92483e-10
1.77124e-09
3.32086e-09
7.81672e-09
2.67551e-08
8.76188e-08
8.58214e-08
1.06e-10
8.35392e-11
6.54409e-11
4.97534e-11
3.84363e-11
3.30758e-11
3.59855e-11
5.02297e-11
8.25201e-11
1.49636e-10
2.79815e-10
5.25987e-10
9.73917e-10
1.76118e-09
3.37626e-09
8.57951e-09
3.12422e-08
8.71987e-08
7.69622e-08
3.58685e-11
2.71056e-11
2.05567e-11
1.54183e-11
1.28079e-11
1.35529e-11
1.93033e-11
3.34402e-11
6.70465e-11
1.31687e-10
2.62788e-10
5.19899e-10
9.89726e-10
1.8174e-09
3.42834e-09
9.40999e-09
3.69399e-08
9.70229e-08
5.31914e-08
1.05352e-11
7.55264e-12
5.30391e-12
4.13844e-12
4.28576e-12
6.56189e-12
1.27357e-11
2.66536e-11
5.81245e-11
1.23533e-10
2.58911e-10
5.34538e-10
1.04601e-09
1.94982e-09
3.55184e-09
1.01809e-08
4.32264e-08
9.69022e-08
5.50153e-08
2.73284e-12
1.83978e-12
1.27648e-12
1.25058e-12
1.9878e-12
4.29514e-12
9.90601e-12
2.34035e-11
5.29458e-11
1.20929e-10
2.64708e-10
5.66533e-10
1.13453e-09
2.07645e-09
3.82266e-09
1.09624e-08
4.74233e-08
9.70046e-08
3.63135e-08
6.17659e-13
3.6788e-13
3.27738e-13
5.39373e-13
1.33123e-12
3.39234e-12
8.70943e-12
2.15866e-11
5.12349e-11
1.22427e-10
2.80775e-10
6.07648e-10
1.23836e-09
2.32876e-09
4.13375e-09
1.1419e-08
4.71099e-08
8.3542e-08
3.33887e-08
1.14537e-13
7.82305e-14
1.21168e-13
3.44735e-13
1.06251e-12
2.96639e-12
8.03923e-12
2.0577e-11
5.10133e-11
1.27912e-10
3.01584e-10
6.66563e-10
1.38322e-09
2.59832e-09
4.54084e-09
1.26274e-08
3.74572e-08
6.04286e-08
1.2846e-08
1.88051e-14
2.21194e-14
7.46513e-14
2.83577e-13
9.19343e-13
2.70493e-12
7.54284e-12
2.04117e-11
5.32284e-11
1.35416e-10
3.25828e-10
7.29927e-10
1.50473e-09
2.83264e-09
4.81587e-09
1.26583e-08
2.86318e-08
1.21998e-08
1.03261e-08
3.90965e-15
1.38188e-14
6.51848e-14
2.59101e-13
8.44883e-13
2.61606e-12
7.60878e-12
2.10203e-11
5.55793e-11
1.42981e-10
3.46988e-10
7.75713e-10
1.60641e-09
2.93196e-09
4.98998e-09
1.19292e-08
1.50555e-08
1.38053e-08
3.47884e-09
1.95023e-15
1.30573e-14
6.28465e-14
2.42905e-13
8.24619e-13
2.59322e-12
7.66359e-12
2.1648e-11
5.79895e-11
1.48943e-10
3.6053e-10
7.98163e-10
1.62174e-09
2.93354e-09
4.99783e-09
9.26539e-09
1.04175e-08
4.41955e-09
3.10544e-09
1.7427e-15
1.26723e-14
5.90715e-14
2.35596e-13
8.00317e-13
2.5854e-12
7.67044e-12
2.13389e-11
5.76733e-11
1.47349e-10
3.53999e-10
7.73131e-10
1.55211e-09
2.76513e-09
4.29678e-09
6.82297e-09
5.19834e-09
3.93896e-09
1.26425e-09
1.80489e-15
1.22156e-14
5.60727e-14
2.23534e-13
7.57342e-13
2.44299e-12
7.18485e-12
2.01309e-11
5.33291e-11
1.35293e-10
3.20929e-10
6.91413e-10
1.35756e-09
2.39009e-09
3.46784e-09
4.91289e-09
3.68426e-09
1.35713e-09
8.1741e-10
1.85946e-15
1.1727e-14
5.17498e-14
1.99109e-13
6.72838e-13
2.10079e-12
6.2153e-12
1.70698e-11
4.48634e-11
1.12739e-10
2.65024e-10
5.63656e-10
1.09015e-09
1.82526e-09
2.61075e-09
2.7797e-09
1.782e-09
8.74852e-10
3.29993e-10
1.89114e-15
1.02132e-14
4.32783e-14
1.57239e-13
5.21159e-13
1.60135e-12
4.61625e-12
1.26383e-11
3.29059e-11
8.19738e-11
1.91686e-10
4.03055e-10
7.63739e-10
1.27256e-09
1.60892e-09
1.7816e-09
1.04954e-09
3.11901e-10
2.04492e-10
1.66411e-15
7.8409e-15
2.99931e-14
1.00914e-13
3.20267e-13
9.39596e-13
2.69993e-12
7.48283e-12
1.96463e-11
4.96914e-11
1.17313e-10
2.48576e-10
4.6586e-10
7.74723e-10
9.63177e-10
9.77511e-10
4.45008e-10
1.70144e-10
1.08043e-10
1.12562e-15
4.47822e-15
1.53886e-14
4.81354e-14
1.4721e-13
4.40262e-13
1.26501e-12
3.53842e-12
9.54082e-12
2.45272e-11
5.86268e-11
1.24678e-10
2.31183e-10
3.90067e-10
5.07764e-10
4.62731e-10
1.87143e-10
8.02197e-11
4.31576e-11
4.1874e-16
1.35099e-15
4.0649e-15
1.16505e-14
3.7128e-14
1.19323e-13
3.61072e-13
1.02004e-12
2.7496e-12
7.13939e-12
1.71533e-11
3.73858e-11
6.99768e-11
1.15758e-10
1.51361e-10
1.32657e-10
5.90605e-11
2.07789e-11
3.74608e-12
)
;

boundaryField
{
    leftWall
    {
        type            alphaContactAngle;
        contactAngleProperties 
        {
            mercury         
            {
                theta0          90;
            }
            air             
            {
                theta0          90;
            }
            water           
            {
                theta0          90;
            }
        }
        value           nonuniform List<scalar> 
50
(
1.36868e-14
1.36795e-14
3.95176e-14
7.53399e-13
5.1601e-12
3.14137e-10
2.34157e-09
3.62423e-09
3.92774e-09
3.40128e-09
5.69164e-10
6.82837e-10
0.0614065
0.475466
0.950041
0.972432
0.916972
0.235196
7.61085e-05
2.36223e-06
1.06729e-06
1.19328e-06
8.69949e-07
5.54677e-07
3.45591e-07
2.20325e-07
1.19241e-07
6.84095e-08
5.7284e-08
4.75682e-08
3.34722e-08
3.13543e-08
1.95582e-08
1.64519e-08
9.4373e-09
7.09444e-09
4.18952e-09
2.57689e-09
1.46564e-09
7.45717e-10
3.18543e-10
1.23698e-10
3.76143e-11
1.06273e-11
2.22994e-12
4.09309e-13
4.81723e-14
3.39286e-15
4.61324e-17
1.14409e-23
)
;
    }
    rightWall
    {
        type            alphaContactAngle;
        contactAngleProperties 
        {
            mercury         
            {
                theta0          90;
            }
            air             
            {
                theta0          90;
            }
            water           
            {
                theta0          90;
            }
        }
        value           nonuniform List<scalar> 
50
(
0.221222
0.222289
0.407269
0.471251
0.471146
0.365715
0.406565
0.404608
0.233114
0.0496066
0.708987
0.950014
0.998347
0.997972
0.795646
0.0964479
-2.05171e-19
9.30553e-08
5.42862e-07
5.84455e-07
5.87275e-07
2.74003e-07
4.5375e-08
1.36159e-08
1.36447e-08
1.39649e-08
1.49584e-08
1.55645e-08
2.49972e-08
2.71995e-08
4.85768e-08
5.20606e-08
8.7051e-08
8.58214e-08
7.69622e-08
5.31914e-08
5.50153e-08
3.63135e-08
3.33887e-08
1.2846e-08
1.03261e-08
3.47884e-09
3.10544e-09
1.26425e-09
8.1741e-10
3.29993e-10
2.04492e-10
1.08043e-10
4.31576e-11
3.74608e-12
)
;
    }
    lowerWall
    {
        type            alphaContactAngle;
        contactAngleProperties 
        {
            mercury         
            {
                theta0          90;
            }
            air             
            {
                theta0          90;
            }
            water           
            {
                theta0          90;
            }
        }
        value           nonuniform List<scalar> 
62
(
1.36868e-14
9.71589e-14
5.29898e-13
1.85114e-12
4.76241e-12
1.08069e-11
2.23816e-11
4.32491e-11
7.94994e-11
1.5375e-10
2.89361e-10
5.3453e-10
1.0173e-09
1.93792e-09
3.68096e-09
7.24057e-09
1.28896e-08
1.32692e-08
1.37089e-08
5.15487e-05
0.000406881
0.00056709
0.000567144
0.000567144
0.000321961
1.31596e-06
4.76395e-08
9.95489e-09
2.91871e-05
4.78643e-05
4.78523e-05
4.12464e-06
1.06012e-06
6.56449e-07
0.103638
0.131485
0.401215
0.385951
0.0417282
0.00779609
0.0311474
0.0486251
0.0886401
0.131485
0.122121
0.100231
0.053333
0.0316319
0.0309269
0.0339938
0.250449
0.302798
0.319345
0.319491
0.322825
0.309664
0.173316
0.0636274
0.0958149
0.16255
0.231251
0.221222
)
;
    }
    atmosphere
    {
        type            inletOutlet;
        inletValue      uniform 0;
        value           nonuniform List<scalar> 
46
(
0
0
1.04646e-17
1.34919e-17
1.01702e-17
6.71491e-18
4.94067e-18
3.97007e-18
3.19941e-18
2.19351e-18
1.22444e-18
6.74431e-19
3.92712e-19
2.51549e-19
1.70851e-19
1.09957e-19
6.21777e-20
3.01286e-20
1.40023e-20
1.15083e-20
3.28908e-20
0
0
0
0
0
1.14693e-16
0
0
0
0
0
0
0
0
0
0
0
3.73858e-11
0
0
0
0
0
0
0
)
;
    }
    defaultFaces
    {
        type            empty;
    }
}


// ************************************************************************* //
