/*--------------------------------*- C++ -*----------------------------------*\
  =========                 |
  \\      /  F ield         | OpenFOAM: The Open Source CFD Toolbox
   \\    /   O peration     | Website:  https://openfoam.org
    \\  /    A nd           | Version:  13
     \\/     M anipulation  |
\*---------------------------------------------------------------------------*/
FoamFile
{
    format      ascii;
    class       volScalarField;
    location    "2.35";
    object      alpha.mercury;
}
// * * * * * * * * * * * * * * * * * * * * * * * * * * * * * * * * * * * * * //

dimensions      [];

internalField   nonuniform List<scalar> 
2268
(
1
1
1
1
1
1
1
1
1
1
1
1
1
1
1
1
1
1
1
0.999948
0.999593
0.999433
0.999433
1
1
1
1
1
1
1
1
1
1
1
1
1
1
1
1
1
1
1
0.999994
0.999979
0.999927
0.999678
1
1
1
1
1
1
1
1
1
1
1
1
1
1
1
1
1
1
1
1
1
1
0.999999
1
1
1
1
1
1
1
1
1
1
1
1
1
1
1
1
1
1
1
1
1
1
1
1
1
1
1
1
1
1
1
1
1
1
1
1
1
1
1
1
1
1
1
1
1
1
0.945558
0.955717
0.963304
0.971561
0.981211
0.989801
0.995911
0.999118
1
1
1
1
1
1
1
1
0.999999
0.993678
0.97597
0.960985
0.950184
0.955486
0.978952
0.219722
0.25107
0.273607
0.299846
0.337987
0.388682
0.448155
0.510835
0.569391
0.615165
0.638097
0.63135
0.608672
0.575829
0.530376
0.473564
0.408831
0.349383
0.307017
0.274155
0.254581
0.268991
0.348253
1.64157e-27
5.11925e-28
4.2234e-27
-8.5378e-09
-1.52532e-09
-6.50188e-11
8.92428e-21
1.51968e-20
3.30872e-26
2.87919e-10
0.00181389
0.0113419
0.0128661
0.00863346
0.00369598
0.000651784
3.4533e-07
9.82809e-07
1.87458e-14
-1.90963e-18
-1.47607e-18
1.8056e-18
-3.80939e-18
0.857444
0.8668
0.877068
0.877614
0.877598
0.877584
0.875406
0.67611
0.635594
0.635552
0.635259
0.617854
0.605646
0.638636
0.751541
0.75154
0.751541
0.75154
0.751504
0.514248
0.507744
0.529799
0.557523
0.583172
0.704429
0.772896
0.819025
0.828472
0.829722
0.829861
0.779518
0.711485
0.740252
0.751539
0.751541
0.75154
0.751543
0.751562
0.147772
0.137572
0.126715
0.12688
0.19739
0.24658
0.297824
0.399552
0.513123
0.724133
0.780186
0.783253
0.759202
0.735669
0.751541
0.751538
0.749276
0.665492
0.577902
0.143532
0.146809
0.146123
0.144566
0.111636
0.0533006
0.0458246
0.0783554
0.108114
0.119769
0.28211
0.394593
0.398577
0.387813
0.404617
0.396012
0.348097
0.385324
0.436574
0.0935298
0.105261
0.10582
0.131532
0.118759
0.0443317
0.0410601
0.0350274
0.0309921
0.00565133
0.00140409
0.14512
0.252765
0.248149
0.178428
0.129931
0.106333
0.0662036
0.0765733
0.0289183
0.0404128
0.0759243
0.059796
0.107427
0.103374
0.0792831
0.0799609
0.0766723
0.00721195
0.000114314
1.4583e-05
0.0507808
0.101246
0.0845546
0.0341115
-9.39673e-10
-9.66908e-08
-3.31342e-09
0.00340062
0.00277201
0.00314886
0.0206022
0.0796154
0.104498
0.103677
0.0592831
0.022299
0.00480489
0.000374808
1.52427e-05
-2.23617e-21
-4.39181e-08
-1.02979e-11
-2.92458e-10
-2.99017e-23
1.11176e-07
1.83539e-09
0.0243493
0.00529204
0.00540431
0.0109126
0.040096
0.0805508
0.033338
0.00150437
0.000192431
0.000266412
0.000216759
3.63235e-05
5.14862e-08
4.99069e-11
3.8118e-23
2.03335e-07
4.85076e-06
1.39278e-07
2.20521e-10
2.69142e-10
2.73358e-10
2.81168e-10
2.82357e-10
3.0395e-10
3.00416e-10
3.10739e-10
2.97634e-10
2.9766e-10
2.93199e-10
2.87919e-10
2.93199e-10
1.53814e-08
2.62131e-09
7.02397e-10
8.03037e-10
2.06834e-09
1.26809e-08
1.63696e-09
6.82468e-10
1.0604e-10
6.4832e-11
2.65341e-11
3.02507e-10
3.16853e-10
3.54314e-10
5.14525e-10
6.36858e-10
6.97181e-10
6.34928e-10
5.93002e-10
7.2427e-10
1.30033e-09
2.01814e-09
8.35601e-10
5.12817e-10
5.02828e-10
6.05273e-10
1.40827e-09
3.71355e-09
4.92772e-09
3.90422e-09
1.94045e-09
7.34275e-10
1.45476e-10
4.81249e-12
3.46789e-10
4.22371e-10
6.38366e-10
9.09805e-10
1.17417e-09
1.27743e-09
1.27356e-09
1.24773e-09
1.16209e-09
9.85007e-10
8.081e-10
6.38857e-10
5.04103e-10
5.03536e-10
5.50805e-10
7.73481e-10
1.81246e-09
2.52779e-09
2.23212e-09
1.63888e-09
8.66432e-10
1.35309e-10
1.09723e-05
3.84832e-10
4.73709e-10
6.38222e-10
7.23014e-10
7.72011e-10
8.07562e-10
8.38006e-10
8.44207e-10
8.63955e-10
9.0875e-10
9.65719e-10
1.01417e-09
1.0435e-09
1.10275e-09
1.29766e-09
1.59579e-09
2.19196e-09
3.28622e-09
3.70744e-09
1.61347e-09
8.02962e-10
1.5814e-06
0.000120054
3.8691e-10
4.43916e-10
5.30457e-10
5.86362e-10
6.45397e-10
7.43915e-10
8.63329e-10
1.01487e-09
1.20131e-09
1.3969e-09
1.61953e-09
1.80374e-09
1.91525e-09
1.95286e-09
1.94952e-09
1.98898e-09
3.02717e-09
4.61239e-09
3.72403e-09
1.60221e-09
3.5273e-07
3.39829e-06
1.53704e-05
4.40401e-10
5.23246e-10
5.80147e-10
6.22989e-10
6.98513e-10
9.01678e-10
1.10092e-09
1.21127e-09
1.28657e-09
1.36383e-09
1.46249e-09
1.52639e-09
1.54275e-09
1.51073e-09
1.43021e-09
1.68014e-09
4.16954e-09
6.11697e-09
5.90984e-09
3.73374e-09
4.02395e-09
8.85154e-07
1.4836e-05
4.67573e-10
4.82993e-10
4.79179e-10
4.97481e-10
5.50802e-10
7.18745e-10
7.67661e-10
7.48573e-10
7.29132e-10
7.33881e-10
7.70143e-10
8.62363e-10
9.74288e-10
1.09364e-09
1.20144e-09
1.37759e-09
1.51733e-09
1.58438e-09
1.52658e-09
1.44632e-09
2.83074e-07
7.30544e-07
9.35949e-07
4.67938e-10
4.58753e-10
3.54285e-10
2.94889e-10
2.85084e-10
3.02648e-10
2.9136e-10
2.36341e-10
2.05716e-10
2.01821e-10
2.44017e-10
3.81526e-10
5.42723e-10
8.74472e-10
1.31546e-09
1.79509e-09
2.41173e-09
4.69069e-09
1.3133e-08
1.58121e-08
1.3152e-08
1.79978e-09
4.07536e-10
4.68187e-10
4.65634e-10
3.37638e-10
1.94232e-10
1.36457e-10
1.10588e-10
7.93799e-11
4.93719e-11
3.86217e-11
3.67435e-11
4.79105e-11
1.14366e-10
1.94911e-10
2.43592e-10
2.81728e-10
3.54173e-10
5.72176e-10
9.2474e-10
1.10787e-09
1.12659e-09
3.73568e-10
8.88618e-10
1.35188e-09
4.47587e-10
4.39116e-10
3.62715e-10
2.19504e-10
1.40475e-10
1.01282e-10
6.00744e-11
3.23447e-11
2.23824e-11
1.8932e-11
1.88816e-11
2.78377e-11
3.53834e-11
3.78705e-11
3.91751e-11
4.07488e-11
4.76148e-11
7.93207e-11
1.28998e-10
1.99014e-10
4.03817e-10
8.68141e-10
1.84255e-09
3.71609e-10
3.82866e-10
3.7331e-10
3.15043e-10
2.29598e-10
1.74174e-10
1.50713e-10
9.25964e-11
5.26424e-11
2.86555e-11
1.7111e-11
1.36294e-11
1.24713e-11
1.28053e-11
1.28718e-11
1.40248e-11
1.55786e-11
1.65476e-11
2.04053e-11
6.4581e-11
2.94551e-10
8.2082e-10
2.712e-09
2.68882e-10
2.52644e-10
3.30983e-10
3.82189e-10
3.103e-10
2.6205e-10
2.11907e-10
1.69536e-10
1.1901e-10
7.16844e-11
3.83925e-11
1.89978e-11
1.11186e-11
8.68422e-12
7.40381e-12
6.70306e-12
6.81512e-12
7.60305e-12
9.36989e-12
1.35366e-11
3.4837e-11
9.22381e-11
1.62631e-10
1.58747e-10
2.13866e-10
3.34447e-10
4.0531e-10
3.61556e-10
3.33751e-10
2.76716e-10
2.24991e-10
1.764e-10
1.2211e-10
6.76282e-11
3.11923e-11
1.69778e-11
1.0587e-11
7.25946e-12
5.13612e-12
4.01866e-12
3.5855e-12
3.51243e-12
4.04862e-12
4.65257e-12
4.86241e-12
3.67989e-12
1.50314e-10
2.28067e-10
3.69729e-10
4.06688e-10
3.89198e-10
3.51008e-10
2.97932e-10
2.5136e-10
2.02674e-10
1.55901e-10
1.02536e-10
5.91168e-11
2.84146e-11
1.56443e-11
1.0342e-11
6.02977e-12
3.80569e-12
2.74912e-12
1.99638e-12
1.64835e-12
1.65075e-12
2.31759e-12
2.90003e-12
1.33064e-10
2.64864e-10
3.74828e-10
4.03318e-10
3.84734e-10
3.43997e-10
2.9083e-10
2.43892e-10
2.05207e-10
1.6676e-10
1.14139e-10
7.58916e-11
3.84132e-11
2.04669e-11
1.27376e-11
7.81115e-12
4.64299e-12
2.93813e-12
1.84514e-12
1.22396e-12
9.30986e-13
8.21886e-13
1.16704e-12
1.14113e-10
2.5837e-10
3.48631e-10
3.57333e-10
3.37379e-10
2.94814e-10
2.55848e-10
2.10194e-10
1.80379e-10
1.48715e-10
1.13607e-10
7.50376e-11
4.23969e-11
2.48106e-11
1.52908e-11
9.20969e-12
5.62153e-12
3.43601e-12
2.0977e-12
1.26702e-12
9.08414e-13
6.5099e-13
5.47751e-13
1.00173e-10
2.24472e-10
2.95475e-10
2.83963e-10
2.5526e-10
2.17127e-10
1.79717e-10
1.6387e-10
1.40995e-10
1.137e-10
8.79913e-11
6.27966e-11
3.86252e-11
2.35186e-11
1.63071e-11
9.89864e-12
5.98575e-12
3.67536e-12
2.26122e-12
1.29257e-12
9.51856e-13
6.59517e-13
4.70689e-13
8.6554e-11
1.80084e-10
2.29946e-10
2.2254e-10
1.94038e-10
1.64227e-10
1.32856e-10
1.11012e-10
9.87989e-11
8.10775e-11
6.34038e-11
4.53026e-11
3.22219e-11
2.10654e-11
1.40596e-11
9.11622e-12
5.57069e-12
3.53059e-12
2.16504e-12
1.30602e-12
9.58919e-13
6.30504e-13
4.53743e-13
6.88203e-11
1.34367e-10
1.68005e-10
1.61514e-10
1.44849e-10
1.2535e-10
9.69591e-11
8.13305e-11
6.32386e-11
5.11714e-11
3.98504e-11
2.83126e-11
2.3019e-11
1.58055e-11
1.02589e-11
7.05759e-12
4.83402e-12
2.96488e-12
1.83703e-12
1.18882e-12
8.36247e-13
5.83609e-13
4.08194e-13
4.98161e-11
9.41017e-11
1.14284e-10
1.09534e-10
9.82332e-11
8.32117e-11
6.76602e-11
5.30628e-11
4.11579e-11
2.79886e-11
2.00966e-11
1.61475e-11
1.31305e-11
9.49386e-12
6.51548e-12
4.92824e-12
3.44833e-12
2.35365e-12
1.5028e-12
9.8825e-13
7.23766e-13
5.0154e-13
3.46541e-13
3.56624e-11
6.36056e-11
7.4342e-11
7.09817e-11
6.32692e-11
5.23709e-11
4.4046e-11
3.51773e-11
2.41483e-11
1.6271e-11
1.13305e-11
8.9971e-12
7.1438e-12
5.24865e-12
4.06393e-12
3.12407e-12
2.26099e-12
1.63623e-12
1.17454e-12
8.09379e-13
5.92927e-13
4.17718e-13
2.86994e-13
2.46927e-11
4.27719e-11
4.75211e-11
4.50616e-11
4.04355e-11
3.37828e-11
2.75915e-11
2.20648e-11
1.46174e-11
9.75769e-12
6.94037e-12
5.02061e-12
3.94628e-12
3.12075e-12
2.42325e-12
1.89499e-12
1.4119e-12
1.07953e-12
8.26483e-13
6.09188e-13
4.43266e-13
3.11942e-13
2.25095e-13
1.57197e-11
2.81439e-11
3.05669e-11
2.91917e-11
2.44798e-11
2.1268e-11
1.74094e-11
1.35513e-11
9.66926e-12
6.3866e-12
4.15774e-12
3.10848e-12
2.33848e-12
1.81487e-12
1.42816e-12
1.10425e-12
8.46367e-13
6.81997e-13
5.34113e-13
4.05096e-13
2.93925e-13
2.17472e-13
1.57345e-13
1.15982e-11
1.9167e-11
1.99769e-11
1.79587e-11
1.59597e-11
1.34818e-11
1.11049e-11
8.51366e-12
6.19959e-12
4.17051e-12
2.82704e-12
1.96473e-12
1.41067e-12
1.05222e-12
7.90431e-13
6.02174e-13
4.71555e-13
3.96074e-13
3.14825e-13
2.42068e-13
1.8219e-13
1.3014e-13
9.77606e-14
7.13283e-12
1.13803e-11
1.16794e-11
1.05812e-11
9.41774e-12
8.11185e-12
6.65257e-12
5.23618e-12
3.94748e-12
2.80515e-12
1.87785e-12
1.26447e-12
8.54874e-13
5.96428e-13
4.19219e-13
3.16096e-13
2.53445e-13
2.04134e-13
1.6405e-13
1.28464e-13
9.34284e-14
7.19763e-14
5.28552e-14
5.04059e-12
7.48136e-12
7.1433e-12
6.24288e-12
5.45546e-12
4.60547e-12
3.79353e-12
3.07029e-12
2.40946e-12
1.78673e-12
1.24114e-12
7.82979e-13
5.08893e-13
3.21504e-13
2.15778e-13
1.57169e-13
1.187e-13
9.55913e-14
7.41379e-14
5.78509e-14
4.42409e-14
3.22694e-14
2.4628e-14
2.84862e-12
4.3413e-12
4.03936e-12
3.37217e-12
2.74237e-12
2.32964e-12
1.96876e-12
1.59224e-12
1.28607e-12
1.01433e-12
7.2756e-13
4.80045e-13
3.04544e-13
1.81324e-13
1.11995e-13
7.35825e-14
5.19981e-14
3.89779e-14
2.93985e-14
2.29533e-14
1.70229e-14
1.31651e-14
9.64985e-15
1.84372e-12
2.53649e-12
2.24193e-12
1.77142e-12
1.37533e-12
1.07927e-12
8.63409e-13
7.45047e-13
6.38494e-13
5.25138e-13
3.90913e-13
2.62748e-13
1.61308e-13
9.75215e-14
5.74724e-14
3.43916e-14
2.19258e-14
1.52128e-14
1.05443e-14
8.00313e-15
6.05218e-15
4.33582e-15
3.24777e-15
9.93177e-13
1.37153e-12
1.13905e-12
8.46692e-13
6.24779e-13
4.84616e-13
3.83101e-13
3.12903e-13
2.65163e-13
2.26377e-13
1.76874e-13
1.27393e-13
7.94762e-14
4.83041e-14
2.76383e-14
1.53865e-14
8.81076e-15
5.34156e-15
3.54247e-15
2.52957e-15
1.77698e-15
1.29495e-15
9.12681e-16
5.4326e-13
6.80596e-13
5.27456e-13
3.66757e-13
2.54624e-13
1.90715e-13
1.48154e-13
1.15946e-13
1.0139e-13
8.84148e-14
6.98724e-14
5.17131e-14
3.38194e-14
2.08637e-14
1.1726e-14
6.28316e-15
3.28691e-15
1.83855e-15
1.06074e-15
7.10851e-16
4.99089e-16
3.24057e-16
2.3093e-16
2.76917e-13
3.06744e-13
2.21328e-13
1.43844e-13
9.39647e-14
6.75457e-14
5.04407e-14
3.97359e-14
3.34953e-14
2.93512e-14
2.47738e-14
1.82138e-14
1.23851e-14
7.70957e-15
4.28033e-15
2.26727e-15
1.1406e-15
5.54828e-16
3.08195e-16
1.86498e-16
1.15302e-16
7.49131e-17
5.01174e-17
1.27292e-13
1.24454e-13
8.41563e-14
5.13538e-14
3.12986e-14
2.15407e-14
1.57264e-14
1.24584e-14
9.98598e-15
8.72074e-15
7.4384e-15
5.74729e-15
3.89809e-15
2.35245e-15
1.36612e-15
7.07063e-16
3.35145e-16
1.56724e-16
7.5964e-17
4.24179e-17
2.55172e-17
1.47795e-17
9.59164e-18
4.92525e-14
4.50917e-14
2.87114e-14
1.65009e-14
9.41091e-15
5.91687e-15
4.29286e-15
3.36834e-15
2.76523e-15
2.41877e-15
2.0758e-15
1.61197e-15
1.08904e-15
6.51401e-16
3.63931e-16
1.81358e-16
8.26394e-17
3.70474e-17
1.66487e-17
8.38808e-18
4.59686e-18
2.63557e-18
1.55176e-18
1.73579e-14
1.36012e-14
8.14482e-15
4.43493e-15
2.40462e-15
1.53684e-15
1.11404e-15
8.58978e-16
6.90079e-16
6.0166e-16
5.2175e-16
3.91246e-16
2.59562e-16
1.50285e-16
8.07037e-17
4.06352e-17
1.74826e-17
7.13325e-18
3.04955e-18
1.42664e-18
7.25012e-19
3.85761e-19
2.12569e-19
4.81327e-15
3.6619e-15
2.07186e-15
1.07592e-15
5.63822e-16
3.52287e-16
2.50108e-16
1.91031e-16
1.53364e-16
1.33968e-16
1.12456e-16
8.37281e-17
5.36282e-17
3.14977e-17
1.63702e-17
7.47174e-18
3.14987e-18
1.16109e-18
4.74036e-19
2.08701e-19
1.01102e-19
5.06601e-20
2.54262e-20
1.24561e-15
8.77771e-16
4.65981e-16
2.29792e-16
1.17915e-16
7.2042e-17
5.07071e-17
3.81905e-17
2.90301e-17
2.47483e-17
2.10212e-17
1.58389e-17
1.0372e-17
6.0711e-18
3.02961e-18
1.32282e-18
4.95594e-19
1.74235e-19
6.63694e-20
2.709e-20
1.2194e-20
5.55869e-21
2.52578e-21
2.41648e-16
1.5401e-16
7.74347e-17
4.10202e-17
2.12716e-17
1.1901e-17
8.43913e-18
6.67917e-18
5.63466e-18
4.79096e-18
4.09876e-18
3.06722e-18
1.97115e-18
1.06023e-18
5.02936e-19
2.03241e-19
6.97161e-20
2.28119e-20
8.14411e-21
3.05861e-21
1.28649e-21
5.14633e-22
2.04286e-22
4.13725e-17
2.38737e-17
1.21071e-17
5.97942e-18
3.09757e-18
1.9672e-18
1.46053e-18
1.21839e-18
1.0337e-18
8.87044e-19
7.30233e-19
5.08122e-19
3.16877e-19
1.66788e-19
7.45479e-20
2.73614e-20
8.78307e-21
2.6061e-21
8.92683e-22
3.18767e-22
1.1417e-22
4.0019e-23
1.62272e-23
4.59476e-18
2.82713e-18
1.56219e-18
8.1472e-19
4.58278e-19
2.97828e-19
2.06085e-19
1.7696e-19
1.5376e-19
1.36291e-19
1.14013e-19
8.42469e-20
4.99487e-20
2.47148e-20
1.00427e-20
3.38868e-21
1.01027e-21
2.92097e-22
8.89789e-23
2.86606e-23
9.13279e-24
2.78972e-24
7.31728e-25
3.0665e-19
2.16182e-19
1.56384e-19
9.04021e-20
5.02129e-20
3.46661e-20
2.9657e-20
2.79485e-20
2.48025e-20
2.19813e-20
1.78298e-20
1.24918e-20
7.15792e-21
3.34303e-21
1.27436e-21
4.02694e-22
1.13463e-22
2.9286e-23
7.92507e-24
2.2048e-24
5.92209e-25
1.45546e-25
1.02798e-26
3.97662e-21
7.88722e-21
1.21121e-20
9.71784e-21
6.15433e-21
4.30888e-21
3.63665e-21
3.42226e-21
3.37937e-21
3.22998e-21
2.56542e-21
1.73115e-21
9.67863e-22
4.30478e-22
1.56644e-22
4.6651e-23
1.1628e-23
2.96096e-24
7.4013e-25
1.72653e-25
4.04042e-26
2.55402e-27
1.74264e-28
6.92634e-28
8.03127e-23
7.80454e-22
9.14361e-22
6.86308e-22
5.13155e-22
4.57764e-22
4.37012e-22
4.46524e-22
4.46522e-22
3.39231e-22
2.17568e-22
1.17725e-22
5.25132e-23
1.8673e-23
5.2374e-24
1.27716e-24
3.10732e-25
6.99729e-26
1.40167e-26
1.75141e-27
4.39952e-29
5.84157e-29
1.43318e-11
-1.89956e-06
0.0232401
0.0449083
5.3116e-12
7.37856e-06
0.0132094
0.0176146
0.000859823
0.00120134
0.000812268
0.000442877
0.000291251
0.000241688
0.000659743
0.000749876
0.000154396
0.000229235
0.000178295
0.000133222
1.99854e-05
1.06253e-05
3.43086e-10
3.42128e-10
3.40118e-10
3.42271e-10
3.41138e-10
1.25163e-09
4.15106e-10
4.34297e-10
4.25766e-10
2.62972e-09
1.6455e-09
1.98233e-09
4.84482e-09
8.91699e-09
2.94327e-09
3.25867e-09
3.51766e-09
3.45644e-09
4.924e-09
5.72741e-09
6.72877e-09
6.81714e-09
1.4872e-10
3.91858e-11
2.1336e-11
1.43562e-10
2.7212e-12
2.36647e-12
3.03538e-12
2.01837e-12
2.76217e-12
1.97594e-12
1.57526e-12
1.44735e-12
1.5519e-12
1.55744e-12
1.45624e-12
1.36369e-12
6.37501e-13
7.72877e-13
8.75968e-13
1.08449e-12
3.76026e-13
3.35651e-13
3.22788e-13
3.22871e-13
3.45245e-13
2.84559e-13
2.30817e-13
1.95446e-13
3.25344e-13
2.58191e-13
2.25789e-13
1.90315e-13
2.83882e-13
2.41017e-13
1.98314e-13
1.76786e-13
2.40718e-13
1.9923e-13
1.70018e-13
1.47922e-13
1.854e-13
1.58087e-13
1.33857e-13
1.16151e-13
1.34701e-13
1.12876e-13
9.67617e-14
8.49669e-14
8.43162e-14
7.26687e-14
6.22879e-14
5.4393e-14
4.65901e-14
3.97013e-14
3.38702e-14
3.0132e-14
2.15892e-14
1.86501e-14
1.59564e-14
1.38617e-14
8.59245e-15
7.24397e-15
6.15265e-15
5.31743e-15
2.85574e-15
2.45233e-15
2.06987e-15
1.73969e-15
8.16083e-16
6.72435e-16
5.68263e-16
4.65764e-16
1.96511e-16
1.62579e-16
1.38516e-16
1.12321e-16
4.24219e-17
3.47206e-17
2.93487e-17
2.2299e-17
7.92712e-18
6.38196e-18
5.15093e-18
3.82559e-18
1.2535e-18
9.5611e-19
7.17732e-19
5.25201e-19
1.62282e-19
1.27057e-19
9.37556e-20
5.95124e-20
1.88885e-20
1.32887e-20
9.04947e-21
5.55198e-21
1.71555e-21
1.14859e-21
7.43078e-22
4.52684e-22
1.29484e-22
8.58093e-23
3.58212e-23
6.63778e-24
4.38665e-24
1.47624e-24
3.87512e-25
3.49723e-26
2.8322e-26
8.48609e-27
3.30632e-27
4.43851e-27
2.5332e-28
5.91447e-28
1.82812e-27
5.75182e-27
2.20923e-28
6.08215e-28
2.13413e-27
6.81991e-27
1.62816e-28
5.57958e-28
1.84676e-27
5.27766e-27
0.044622
0.00537073
0.000627897
0.0140246
0.0409718
0.012639
5.0679e-05
6.31652e-05
9.41264e-06
4.13638e-05
0.000110621
0.000106227
6.41508e-05
2.13994e-05
7.0016e-06
1.79578e-05
1.54878e-05
1.72018e-07
7.26768e-05
0.00496262
0.000594736
0.00225884
0.0116361
0.0101777
0.000276585
0.000186776
0.000201478
1.23169e-05
2.27081e-05
5.3458e-05
5.76555e-05
5.26928e-05
2.2598e-05
1.85896e-05
8.07953e-05
0.000232792
0.00237219
0.00335968
0.000348438
0.000587095
0.000635416
0.000458896
9.14517e-07
0.000201686
0.000248803
0.000142714
1.13693e-05
1.95924e-06
8.30486e-07
3.00727e-06
4.67961e-06
6.4722e-06
0.000103994
0.000154617
0.000459075
0.00620339
0.00690531
0.000368586
7.99585e-06
1.67824e-06
9.15083e-07
9.31399e-07
5.0683e-05
7.47809e-05
1.43562e-05
1.06432e-05
5.83856e-06
6.18737e-07
3.61709e-06
5.62293e-06
3.26847e-05
9.67484e-05
6.32768e-05
0.000199383
0.00344255
0.00690469
1.55379e-05
1.51924e-06
2.96961e-06
3.2985e-06
2.81318e-06
2.27875e-09
1.04975e-11
8.98786e-12
2.99197e-06
1.45749e-06
2.09228e-07
9.54965e-07
2.20696e-06
8.1939e-06
1.67699e-05
2.31752e-05
4.76548e-05
0.000146761
0.00134616
1.26722e-08
1.76716e-07
6.09267e-07
1.37861e-06
6.96704e-07
1.91275e-08
8.99173e-12
9.04262e-12
8.75281e-12
1.2389e-10
2.93692e-08
4.43822e-08
4.32204e-08
8.29834e-08
2.67589e-07
1.97136e-05
7.18096e-05
0.000149496
0.000170354
2.06881e-08
1.11417e-07
1.35779e-07
1.15258e-07
8.50623e-08
2.77413e-08
2.07366e-09
8.62851e-11
4.10299e-11
3.5496e-09
6.69097e-08
1.83194e-06
9.43853e-05
0.000723036
0.00151697
0.00196964
0.00190273
0.00129567
0.000567224
5.9295e-08
1.55335e-07
1.50839e-07
1.05549e-07
1.43677e-08
5.31909e-09
1.59506e-08
2.5024e-07
4.83631e-11
1.31963e-11
3.09592e-09
1.76454e-10
0.00145875
0.00273013
0.00273079
0.00260829
0.00194095
0.0012643
0.00100109
1.54857e-08
2.4963e-08
3.14733e-08
3.31421e-08
4.88589e-08
5.35342e-08
1.36886e-08
1.34493e-08
1.35222e-05
3.1246e-05
6.96486e-05
0.000304932
0.000690869
0.000706932
0.000381903
5.24912e-05
7.49308e-05
0.000190783
0.000303409
3.38192e-09
3.88573e-09
2.40339e-08
1.03447e-07
2.71222e-07
1.40162e-06
4.90432e-06
1.17901e-05
6.61365e-05
0.000120028
0.000120002
5.17245e-05
1.02961e-12
1.18458e-26
1.05507e-18
-2.46347e-09
1.56208e-09
2.10091e-21
2.85215e-10
1.16026e-08
2.31497e-08
4.10167e-08
3.68196e-08
5.58558e-09
1.61047e-06
5.4096e-06
1.099e-05
1.36322e-05
1.14522e-05
1.85658e-08
1.78172e-08
2.88767e-08
1.63861e-08
9.67438e-09
1.52695e-08
1.57565e-08
1.3291e-09
2.54271e-10
4.69202e-10
2.0307e-09
5.64876e-09
6.93143e-09
4.82556e-09
7.74706e-12
1.10654e-11
8.79216e-12
1.32949e-07
1.99867e-08
2.82888e-08
7.70124e-08
7.51637e-08
5.1721e-08
1.69811e-09
9.99598e-09
1.32316e-08
5.47021e-09
2.72369e-10
1.62488e-12
1.26645e-12
1.26335e-12
1.26814e-12
1.3045e-12
1.72434e-11
1.45371e-10
6.70559e-10
5.8028e-09
2.3924e-08
5.82877e-08
7.51489e-08
6.37797e-08
2.11396e-08
1.04543e-09
1.96061e-09
2.49866e-09
8.46684e-10
1.28419e-10
1.44263e-12
1.74348e-12
3.05821e-12
6.57684e-12
4.11055e-11
2.51096e-10
8.37272e-10
1.67415e-09
4.70132e-09
1.12295e-08
2.9279e-08
3.12884e-08
7.81148e-09
2.52888e-09
1.04316e-09
3.3967e-10
9.10867e-11
6.27196e-11
6.00929e-11
1.40207e-12
1.79806e-12
4.10376e-12
1.26816e-11
1.45733e-10
4.49392e-10
1.01641e-09
1.98639e-09
3.59176e-09
4.75617e-09
3.83998e-09
1.36299e-09
1.05089e-09
9.58789e-10
7.29999e-10
2.94733e-10
6.67063e-11
3.0944e-11
3.37974e-11
1.68604e-12
3.89205e-12
1.2423e-11
3.46067e-11
9.15476e-11
2.20101e-10
3.90768e-10
6.32971e-10
1.47693e-09
2.7069e-09
4.37486e-09
4.55002e-09
3.03696e-09
1.90131e-09
9.7462e-10
2.37763e-10
3.96971e-11
1.43482e-11
1.14996e-11
1.50818e-12
4.95273e-12
1.29978e-11
3.47494e-11
8.90131e-11
1.83128e-10
3.54674e-10
5.35971e-10
6.65857e-10
1.04394e-09
1.7325e-09
2.36962e-09
2.40225e-09
1.42953e-09
5.88045e-10
1.47757e-10
2.28742e-11
5.46657e-12
4.6053e-12
1.07323e-12
6.02065e-12
1.47123e-11
2.93984e-11
7.46389e-11
1.36645e-10
2.27365e-10
3.97485e-10
5.45712e-10
7.07034e-10
7.42399e-10
6.23202e-10
5.44957e-10
3.64035e-10
1.61656e-10
5.00708e-11
6.92997e-12
2.43734e-12
1.64791e-12
4.18099e-13
3.16383e-12
1.277e-11
2.84985e-11
5.27546e-11
7.64821e-11
1.36981e-10
2.34872e-10
3.29851e-10
3.88493e-10
4.02637e-10
2.96403e-10
1.78051e-10
8.84286e-11
3.63332e-11
4.62638e-12
1.01822e-12
7.38795e-13
4.35241e-13
2.09642e-13
1.077e-12
5.3159e-12
1.49644e-11
2.96295e-11
5.16343e-11
7.80544e-11
1.09639e-10
1.38503e-10
1.61572e-10
1.68129e-10
1.42556e-10
9.43373e-11
5.43801e-11
1.84923e-11
1.83117e-12
4.54801e-13
1.90926e-13
8.30567e-14
1.41212e-13
3.82842e-13
1.69472e-12
5.38851e-12
1.17927e-11
2.04336e-11
3.09384e-11
4.0648e-11
5.06919e-11
5.7073e-11
5.60595e-11
4.84263e-11
3.44035e-11
2.03589e-11
5.84432e-12
6.45888e-13
1.2254e-13
3.48428e-14
1.12803e-14
1.00247e-13
1.5486e-13
4.68202e-13
1.37345e-12
3.07156e-12
5.65438e-12
8.54218e-12
1.15996e-11
1.39868e-11
1.53926e-11
1.4579e-11
1.2404e-11
8.51407e-12
3.59524e-12
6.23007e-13
8.9494e-14
2.14582e-14
6.25428e-15
1.07831e-15
6.87349e-14
7.51838e-14
1.33267e-13
2.85894e-13
6.09425e-13
1.18431e-12
1.94236e-12
2.67106e-12
3.18398e-12
3.30348e-12
3.19722e-12
2.8616e-12
2.02346e-12
8.4868e-13
1.35448e-13
2.82498e-14
3.5417e-15
7.27925e-16
1.55432e-16
4.22777e-14
3.85128e-14
4.35015e-14
6.23079e-14
9.63909e-14
1.6092e-13
2.69923e-13
4.22227e-13
5.13311e-13
5.42465e-13
5.27045e-13
4.70531e-13
3.37571e-13
1.41858e-13
2.64286e-14
1.91458e-15
4.11467e-16
1.39747e-16
4.14935e-17
2.21367e-14
1.80236e-14
1.60269e-14
1.5331e-14
1.66373e-14
2.14848e-14
3.36006e-14
5.2938e-14
6.5203e-14
6.70954e-14
6.96378e-14
6.50839e-14
4.96922e-14
2.23734e-14
4.82499e-15
3.4579e-16
7.30824e-17
5.24568e-17
2.72327e-17
9.84274e-15
7.39958e-15
5.72498e-15
4.47857e-15
3.76642e-15
3.45311e-15
3.75958e-15
4.83667e-15
5.52781e-15
6.49529e-15
7.0441e-15
6.96962e-15
5.81991e-15
2.87703e-15
4.83215e-16
3.83198e-17
2.34697e-17
3.47978e-17
1.85137e-17
3.62656e-15
2.58553e-15
1.87765e-15
1.33208e-15
9.38004e-16
6.64868e-16
4.95205e-16
4.11177e-16
4.30003e-16
4.85818e-16
5.79825e-16
6.14585e-16
5.56719e-16
3.07061e-16
4.21592e-17
8.43305e-18
1.26045e-17
2.16698e-17
1.47747e-17
1.11878e-15
7.58501e-16
5.23337e-16
3.51338e-16
2.37027e-16
1.61474e-16
8.0751e-17
4.33635e-17
3.7272e-17
3.90675e-17
4.46167e-17
4.86159e-17
2.83484e-17
1.1805e-17
3.70521e-18
3.86231e-18
6.8361e-18
1.41515e-17
9.75464e-18
2.90536e-16
1.86729e-16
1.15204e-16
7.24397e-17
4.98963e-17
2.50679e-17
1.19109e-17
7.14565e-18
4.57414e-18
3.33705e-18
3.24798e-18
1.99538e-18
1.11661e-18
6.15143e-19
8.81112e-19
1.697e-18
3.76351e-18
8.9108e-18
7.47203e-18
6.49772e-17
3.90418e-17
2.1808e-17
1.44791e-17
7.07954e-18
2.27209e-18
9.85335e-19
7.13299e-19
5.31031e-19
3.56175e-19
1.61756e-19
1.05338e-19
1.07043e-19
1.74956e-19
3.92541e-19
9.41255e-19
2.27938e-18
6.68522e-18
4.34323e-18
1.25198e-17
6.2695e-18
3.7551e-18
2.04274e-18
5.69405e-19
1.00954e-19
4.46056e-20
4.02222e-20
3.84902e-20
2.87578e-20
2.43495e-20
3.78255e-20
7.34175e-20
1.4826e-19
3.00212e-19
6.85859e-19
1.72167e-18
4.01275e-18
3.10288e-18
1.92117e-18
9.63764e-19
5.42007e-19
1.63488e-19
2.26742e-20
1.9757e-21
1.6743e-21
2.45049e-21
4.19098e-21
7.91857e-21
1.69498e-20
3.59137e-20
7.42146e-20
1.44731e-19
2.67455e-19
5.8686e-19
1.37984e-18
2.86486e-18
1.56799e-18
2.44009e-19
1.32258e-19
3.98671e-20
5.45158e-21
3.15031e-22
2.40157e-22
4.83473e-22
1.23142e-21
3.05897e-21
7.44998e-21
1.71703e-20
3.73496e-20
7.54292e-20
1.40219e-19
2.44558e-19
5.12099e-19
1.09281e-18
1.55291e-18
1.05374e-18
2.78979e-20
1.09768e-20
1.32422e-21
7.3845e-23
6.91914e-23
1.58769e-22
4.39641e-22
1.18441e-21
3.02967e-21
7.49364e-21
1.74301e-20
3.77831e-20
7.43798e-20
1.299e-19
2.25678e-19
4.53862e-19
7.77293e-19
1.07434e-18
4.81086e-19
2.47216e-21
4.39813e-22
2.41484e-23
1.86968e-23
4.79659e-23
1.44821e-22
4.18874e-22
1.14616e-21
2.94544e-21
7.15734e-21
1.65189e-20
3.52604e-20
6.75969e-20
1.20506e-19
2.12968e-19
3.65517e-19
5.67733e-19
5.3251e-19
2.98108e-19
8.85096e-23
5.17574e-24
4.08702e-24
1.30196e-23
4.29061e-23
1.35731e-22
3.93395e-22
1.06355e-21
2.77364e-21
6.76368e-21
1.55637e-20
3.29391e-20
6.27768e-20
1.09891e-19
1.78072e-19
2.72355e-19
3.68429e-19
3.45083e-19
1.21615e-19
4.79572e-25
7.142e-25
2.93817e-24
1.14521e-23
3.7936e-23
1.19532e-22
3.42494e-22
9.32164e-22
2.37836e-21
5.76772e-21
1.31288e-20
2.74778e-20
5.16172e-20
8.98996e-20
1.3924e-19
1.99432e-19
2.3114e-19
1.54818e-19
6.40744e-20
9.64474e-26
5.8936e-25
2.54862e-24
9.56247e-24
3.14874e-23
9.5649e-23
2.74972e-22
7.31206e-22
1.85312e-21
4.45969e-21
1.00733e-20
2.08641e-20
3.89505e-20
6.53839e-20
9.93048e-20
1.25738e-19
1.18556e-19
8.5269e-20
2.42295e-20
9.1921e-26
4.87287e-25
2.01148e-24
7.09313e-24
2.28109e-23
6.80252e-23
1.89906e-22
5.02074e-22
1.25883e-21
3.00569e-21
6.75491e-21
1.38464e-20
2.5677e-20
4.2999e-20
5.83892e-20
7.59414e-20
6.34206e-20
3.05379e-20
1.33198e-20
7.77653e-26
3.57009e-25
1.32122e-24
4.29176e-24
1.31525e-23
3.72654e-23
1.0345e-22
2.76342e-22
6.97582e-22
1.694e-21
3.84456e-21
7.93785e-21
1.47169e-20
2.45869e-20
3.18659e-20
3.94468e-20
2.53171e-20
1.44091e-20
6.79803e-21
5.09996e-26
1.96562e-25
6.51022e-25
1.95847e-24
5.76609e-24
1.66005e-23
4.59814e-23
1.23551e-22
3.1971e-22
7.87971e-22
1.80911e-21
3.73743e-21
6.89152e-21
1.16093e-20
1.52837e-20
1.74438e-20
9.31506e-21
6.06303e-21
2.71332e-21
1.87142e-26
5.83064e-26
1.68549e-25
4.62611e-25
1.41338e-24
4.3552e-24
1.26707e-23
3.42998e-23
8.84087e-23
2.19547e-22
5.05566e-22
1.06767e-21
1.99059e-21
3.27229e-21
4.26716e-21
4.67422e-21
2.6912e-21
1.43955e-21
2.49282e-22
)
;

boundaryField
{
    leftWall
    {
        type            alphaContactAngle;
        contactAngleProperties 
        {
            air             
            {
                theta0          90;
            }
            water           
            {
                theta0          90;
            }
            oil             
            {
                theta0          90;
            }
        }
        value           nonuniform List<scalar> 
50
(
1
1
1
1
1
0.945558
0.219722
1.64157e-27
2.69142e-10
3.02507e-10
3.46789e-10
3.84832e-10
3.8691e-10
4.40401e-10
4.67573e-10
4.67938e-10
4.68187e-10
4.47587e-10
3.71609e-10
2.68882e-10
1.58747e-10
1.50314e-10
1.33064e-10
1.14113e-10
1.00173e-10
8.6554e-11
6.88203e-11
4.98161e-11
3.56624e-11
2.46927e-11
1.57197e-11
1.15982e-11
7.13283e-12
5.04059e-12
2.84862e-12
1.84372e-12
9.93177e-13
5.4326e-13
2.76917e-13
1.27292e-13
4.92525e-14
1.73579e-14
4.81327e-15
1.24561e-15
2.41648e-16
4.13725e-17
4.59476e-18
3.0665e-19
3.97662e-21
6.92634e-28
)
;
    }
    rightWall
    {
        type            alphaContactAngle;
        contactAngleProperties 
        {
            air             
            {
                theta0          90;
            }
            water           
            {
                theta0          90;
            }
            oil             
            {
                theta0          90;
            }
        }
        value           nonuniform List<scalar> 
50
(
0.751504
0.751562
0.577902
0.436574
0.0765733
-3.31342e-09
1.83539e-09
2.20521e-10
7.26768e-05
0.00335968
0.00690531
0.00690469
0.00134616
0.000170354
0.000567224
0.00100109
0.000303409
2.85215e-10
2.54271e-10
2.72369e-10
1.28419e-10
6.00929e-11
3.37974e-11
1.14996e-11
4.6053e-12
1.64791e-12
4.35241e-13
8.30567e-14
1.12803e-14
1.07831e-15
1.55432e-16
4.14935e-17
2.72327e-17
1.85137e-17
1.47747e-17
9.75464e-18
7.47203e-18
4.34323e-18
3.10288e-18
1.56799e-18
1.05374e-18
4.81086e-19
2.98108e-19
1.21615e-19
6.40744e-20
2.42295e-20
1.33198e-20
6.79803e-21
2.71332e-21
2.49282e-22
)
;
    }
    lowerWall
    {
        type            alphaContactAngle;
        contactAngleProperties 
        {
            air             
            {
                theta0          90;
            }
            water           
            {
                theta0          90;
            }
            oil             
            {
                theta0          90;
            }
        }
        value           nonuniform List<scalar> 
62
(
1
1
1
1
1
1
1
1
1
1
1
1
1
1
1
1
1
1
1
0.999948
0.999593
0.999433
0.999433
0.999433
0.999678
0.999999
1
1
0.978952
0.348253
-3.80939e-18
1.43318e-11
-1.89956e-06
0.0232401
0.0449083
0.857444
0.514248
0.147772
0.143532
0.0935298
0.0289183
0.00340062
0.0243493
0.857444
0.8668
0.877068
0.877614
0.877598
0.877584
0.875406
0.67611
0.635594
0.635552
0.635259
0.617854
0.605646
0.638636
0.751541
0.75154
0.751541
0.75154
0.751504
)
;
    }
    atmosphere
    {
        type            inletOutlet;
        inletValue      uniform 0;
        value           nonuniform List<scalar> 
46
(
0
0
7.80454e-22
9.14361e-22
6.86308e-22
5.13155e-22
4.57764e-22
4.37012e-22
4.46524e-22
4.46522e-22
3.39231e-22
2.17568e-22
1.17725e-22
5.25132e-23
1.8673e-23
5.2374e-24
1.27716e-24
3.10732e-25
6.99729e-26
1.40167e-26
1.75141e-27
0
0
0
0
0
5.27766e-27
0
0
0
0
0
0
0
0
0
0
0
1.06768e-21
0
0
0
0
0
0
0
)
;
    }
    defaultFaces
    {
        type            empty;
    }
}


// ************************************************************************* //
