/*--------------------------------*- C++ -*----------------------------------*\
  =========                 |
  \\      /  F ield         | OpenFOAM: The Open Source CFD Toolbox
   \\    /   O peration     | Website:  https://openfoam.org
    \\  /    A nd           | Version:  13
     \\/     M anipulation  |
\*---------------------------------------------------------------------------*/
FoamFile
{
    format      ascii;
    class       volScalarField;
    location    "2.35";
    object      epsilon;
}
// * * * * * * * * * * * * * * * * * * * * * * * * * * * * * * * * * * * * * //

dimensions      [0 2 -3 0 0 0 0];

internalField   nonuniform List<scalar> 
2268
(
0.00415575
0.0167026
0.0310744
0.0448749
0.0576483
0.0694094
0.0803038
0.0905035
0.100129
0.109215
0.117776
0.126102
0.134779
0.142649
0.148979
0.153088
0.154214
0.151397
0.143264
0.127758
0.101905
0.0624985
0.0103065
0.00721994
0.0112906
0.016473
0.0215943
0.0264733
0.0311257
0.0356166
0.0400238
0.0444172
0.0488512
0.0533796
0.0580945
0.0630696
0.0678864
0.0721371
0.0754223
0.0772911
0.0772199
0.0745641
0.0684508
0.0576681
0.0413029
0.0230741
0.0116188
0.0125225
0.0157074
0.019147
0.0225954
0.0260094
0.0293966
0.0327861
0.0362135
0.0397162
0.0433362
0.0471151
0.0510404
0.0548771
0.0583432
0.0611364
0.0629173
0.0633115
0.0619066
0.0582255
0.0517469
0.0427029
0.042372
0.0157406
0.014465
0.0166504
0.0193982
0.0223376
0.0253538
0.028401
0.0314679
0.0345616
0.0377004
0.0409122
0.0442211
0.0476064
0.0509112
0.0539176
0.0563869
0.0580581
0.0586615
0.0579423
0.0556984
0.0519231
0.0479032
0.063418
0.0196299
0.0165186
0.0180582
0.0204602
0.0232107
0.0261185
0.0290867
0.0320691
0.0350485
0.0380257
0.0410153
0.0440326
0.0470636
0.0499999
0.0526677
0.0548795
0.0564418
0.0571762
0.0569654
0.0558517
0.0543325
0.0549386
0.0864854
0.0235559
0.0186648
0.0197195
0.0219574
0.0246905
0.0276405
0.0306594
0.0336721
0.0366416
0.0395546
0.0424151
0.0452326
0.0480011
0.0506501
0.0530395
0.0550267
0.0564797
0.0573042
0.0575119
0.0573818
0.0579793
0.0636038
0.114319
0.0280131
0.0210185
0.0216166
0.0238019
0.0266313
0.0297185
0.0328653
0.0359738
0.038992
0.0418947
0.0446789
0.0473501
0.0499096
0.0523186
0.0544634
0.0562411
0.0575766
0.0584545
0.0590027
0.0597271
0.0623284
0.0739011
0.155242
0.0336593
0.0236228
0.023746
0.0259754
0.0289923
0.0322844
0.0356079
0.0388518
0.0419519
0.0448744
0.0476107
0.0501668
0.0525514
0.0547544
0.0566767
0.0582486
0.059446
0.0603226
0.061103
0.062462
0.0666096
0.084238
0.246244
0.0100717
0.0629285
0.104503
0.130827
0.145875
0.153827
0.154325
0.14797
0.145554
0.141226
0.131923
0.115116
0.0922043
0.0806831
0.0771584
0.0655284
0.0512635
0.0323382
0.00824032
0.0212103
0.039443
0.0554792
0.0677111
0.0769045
0.0828632
0.0845595
0.0831553
0.0800232
0.0746071
0.0671629
0.0586228
0.050018
0.0429528
0.0379778
0.0327331
0.0270811
0.0203808
0.0127725
0.0373788
0.0424713
0.050951
0.0581164
0.0639725
0.0690586
0.0713004
0.0701336
0.0681027
0.0645205
0.0582249
0.050971
0.0439456
0.0380195
0.0333266
0.0293952
0.025685
0.0218425
0.0200919
0.0550313
0.0501437
0.0530964
0.056543
0.0599073
0.0632611
0.0653646
0.0648775
0.0638846
0.062398
0.0571134
0.0502496
0.0433112
0.0374883
0.0329299
0.0296692
0.0271613
0.025353
0.0277284
0.0781144
0.0614716
0.0579368
0.0577653
0.0589958
0.0606045
0.0616247
0.0613079
0.0606102
0.0603336
0.0573341
0.051719
0.0445073
0.0382019
0.0336155
0.030813
0.0292587
0.0293759
0.0371903
0.11555
0.0775828
0.0645324
0.0604208
0.0595568
0.0597065
0.0597893
0.059044
0.0579548
0.0570922
0.0551074
0.0519944
0.0463443
0.0394778
0.0346287
0.0320079
0.0310379
0.0326135
0.0483601
0.18064
0.0981428
0.071825
0.0636391
0.0609324
0.0596861
0.0590036
0.0579172
0.0564732
0.0550145
0.0528745
0.0501918
0.0466338
0.0409417
0.0358365
0.0330105
0.0318686
0.0328892
0.0468866
0.288648
0.115895
0.0774484
0.0664343
0.0624971
0.0601637
0.0587978
0.0574153
0.0557213
0.0539183
0.051652
0.0489304
0.0457143
0.0413958
0.0369274
0.0340129
0.0324526
0.0329205
0.0453114
0.0416018
0.0270944
0.0270077
0.0295678
0.0330065
0.0366722
0.0402934
0.0437689
0.0470306
0.0500334
0.0527684
0.0552346
0.0574338
0.0593728
0.0610001
0.0622941
0.0632955
0.0641264
0.0651009
0.0669841
0.0718518
0.0866667
0.142926
0.0573251
0.0327846
0.0325177
0.0356904
0.0396955
0.0437367
0.0475912
0.0512307
0.0546022
0.0576769
0.0604448
0.0628993
0.065041
0.0668452
0.0683178
0.0694573
0.0703456
0.0711207
0.0720758
0.0738509
0.0777835
0.0869545
0.107987
0.0798247
0.0412303
0.039878
0.0430866
0.04725
0.051392
0.0553114
0.0590117
0.0624286
0.0655512
0.0683795
0.0708971
0.073083
0.0748912
0.0762747
0.077296
0.0780714
0.078725
0.07948
0.0807837
0.0833628
0.0884185
0.0969388
0.110052
0.0533027
0.0497368
0.0522257
0.0559767
0.0598302
0.0635739
0.0671578
0.0704563
0.0734985
0.0762954
0.078802
0.0809735
0.082722
0.0839596
0.0847689
0.0853321
0.0857162
0.086049
0.0866123
0.0877529
0.0899403
0.0930295
0.154082
0.0702164
0.0624919
0.0631962
0.0658149
0.0688587
0.0720349
0.075158
0.07806
0.0807999
0.08337
0.0856952
0.0876685
0.0891555
0.0901022
0.0906305
0.0908566
0.0907943
0.0905814
0.0904095
0.090437
0.0908479
0.0913335
0.225689
0.0925477
0.0772217
0.0746864
0.0753705
0.0771428
0.0793447
0.0816355
0.0838841
0.0861747
0.0884162
0.0904485
0.092137
0.0933659
0.0940984
0.0944251
0.0943977
0.0940128
0.0934267
0.0927922
0.0921939
0.0916679
0.0909162
0.290275
0.111873
0.0902529
0.0847369
0.0832003
0.0834268
0.0845696
0.0861453
0.0879211
0.0898726
0.09184
0.0936077
0.0950441
0.096078
0.0966912
0.0969107
0.0967432
0.0962147
0.0954701
0.0946234
0.0936989
0.0926551
0.0912751
0.311435
0.12722
0.103593
0.0952462
0.0911886
0.089452
0.0891585
0.0899864
0.0914984
0.0933115
0.0950475
0.096466
0.0975077
0.098196
0.0985736
0.0986404
0.098369
0.0977773
0.0969707
0.0960449
0.0950152
0.0938084
0.0922269
0.298404
0.140643
0.121345
0.110009
0.102372
0.0973368
0.094308
0.0940496
0.0953991
0.0973199
0.0989855
0.100007
0.100448
0.1005
0.10037
0.100119
0.0997195
0.099091
0.0982751
0.0973699
0.0964455
0.0954639
0.0940604
0.305919
0.168735
0.150393
0.13034
0.115776
0.105349
0.099694
0.0981983
0.0994587
0.102062
0.104241
0.105109
0.104906
0.103959
0.102819
0.101773
0.101096
0.100425
0.0996842
0.099016
0.0985862
0.0985654
0.0974652
0.305207
0.160327
0.133036
0.121249
0.110627
0.102013
0.0980653
0.09723
0.0988546
0.102048
0.104782
0.105662
0.10507
0.103826
0.102709
0.101607
0.100702
0.0998177
0.098956
0.0980775
0.0977124
0.0973703
0.0965422
0.205214
0.131922
0.115353
0.106189
0.0988484
0.0937322
0.0918363
0.0924543
0.0945074
0.0970949
0.0992111
0.100294
0.100546
0.100418
0.100186
0.0997492
0.0992346
0.0985246
0.0977739
0.0966865
0.0956356
0.0945105
0.0931496
0.171054
0.113582
0.0997976
0.094257
0.0889139
0.0858122
0.0853926
0.0869494
0.0894917
0.0922029
0.0944807
0.0958788
0.0963812
0.0964291
0.09651
0.0966668
0.0967237
0.0965258
0.0960318
0.0951619
0.0937701
0.0923597
0.0909782
0.185027
0.0968855
0.0879387
0.0832422
0.0795209
0.0779338
0.0785028
0.0806899
0.0836687
0.0866458
0.0891964
0.0910096
0.0919609
0.0924124
0.0928615
0.0934223
0.0938445
0.0939492
0.0936461
0.0928303
0.0916536
0.0904396
0.0891055
0.157579
0.0856364
0.0771097
0.0734445
0.0712424
0.0707138
0.0718123
0.0741737
0.0772256
0.0802989
0.0829809
0.0850576
0.0864741
0.08753
0.0885306
0.089491
0.0902621
0.0906953
0.09068
0.0901643
0.089261
0.0882102
0.0870461
0.135112
0.0753752
0.0681923
0.0656733
0.0645151
0.0646106
0.0658918
0.0681204
0.070921
0.0738689
0.0765562
0.0787856
0.0805611
0.0821095
0.0835859
0.0849494
0.0860682
0.0868181
0.0871163
0.0869334
0.0863535
0.0855502
0.0845875
0.121973
0.069028
0.062078
0.0599751
0.059323
0.0596955
0.0609494
0.0629045
0.0653226
0.0679397
0.07048
0.0727539
0.0747715
0.0766493
0.0784308
0.0800518
0.0814037
0.0823909
0.0829528
0.0830718
0.0828091
0.082278
0.0815556
0.11464
0.0653706
0.0579085
0.0557814
0.0552914
0.0557295
0.05686
0.05852
0.0605463
0.0627718
0.0650491
0.0672476
0.0693351
0.071339
0.0732343
0.0749558
0.0764178
0.0775488
0.0783026
0.0786648
0.078678
0.0784157
0.0779483
0.109834
0.0624711
0.0546352
0.052411
0.0519509
0.0523719
0.0533683
0.0547782
0.0564795
0.0583666
0.06035
0.0623682
0.0643712
0.0663217
0.0681767
0.069876
0.0713466
0.0725348
0.0734033
0.0739385
0.074168
0.0741398
0.0739141
0.106007
0.059609
0.0516549
0.0493946
0.0489462
0.0493427
0.0502377
0.051467
0.0529307
0.0545569
0.0562893
0.0580838
0.0599056
0.0617048
0.0634257
0.065015
0.0664203
0.0675983
0.0685135
0.0691532
0.0695353
0.069692
0.0696707
0.102243
0.0566098
0.0487363
0.0465102
0.0460875
0.0464755
0.0473094
0.0484232
0.0497273
0.0511661
0.0526989
0.0542911
0.0559093
0.0575196
0.0590698
0.0605148
0.061813
0.0629303
0.0638402
0.064529
0.065007
0.0652954
0.0654339
0.0981142
0.0534997
0.0458419
0.043695
0.043309
0.0437008
0.0445025
0.0455473
0.0467499
0.0480603
0.0494444
0.0508728
0.0523161
0.0537444
0.055128
0.0564258
0.0576067
0.0586435
0.0595164
0.0602137
0.0607426
0.0611196
0.0613737
0.0935039
0.0503476
0.0429983
0.0409546
0.0406082
0.0410073
0.0417908
0.0427939
0.0439318
0.0451561
0.0464345
0.0477403
0.0490481
0.0503332
0.0515734
0.0527412
0.053814
0.0547704
0.0555952
0.0562803
0.0568313
0.0572631
0.0575978
0.0884626
0.0472111
0.0402364
0.0383106
0.0380035
0.0384086
0.0391787
0.040153
0.0412473
0.0424129
0.0436175
0.0448359
0.0460452
0.0472249
0.0483563
0.0494234
0.0504075
0.0512956
0.0520756
0.0527424
0.0533016
0.0537675
0.0541585
0.0831073
0.0441295
0.0375777
0.0357825
0.0355163
0.0359265
0.0366845
0.0376355
0.0386971
0.0398203
0.0409728
0.0421297
0.0432702
0.0443762
0.0454325
0.0464269
0.0473468
0.0481835
0.0489293
0.0495814
0.0501451
0.0506348
0.0510689
0.0775862
0.0411337
0.035038
0.0333863
0.0331666
0.0335842
0.0343318
0.0352628
0.0362977
0.0373881
0.0385019
0.0396148
0.0407074
0.0417634
0.0427696
0.0437158
0.0445938
0.0453973
0.0461225
0.0467679
0.0473393
0.0478511
0.0483211
0.0720524
0.0382548
0.0326347
0.0311388
0.0309742
0.0314053
0.0321466
0.0330611
0.0340735
0.0351371
0.0362205
0.0373007
0.038359
0.0393809
0.0403544
0.0412709
0.0421248
0.0429114
0.0436288
0.0442771
0.0448621
0.045398
0.0459026
0.0666661
0.0355311
0.0303913
0.0290615
0.0289621
0.0294146
0.0301557
0.0310585
0.0320522
0.0330932
0.0341516
0.0352056
0.0362382
0.037236
0.0381885
0.0390882
0.039931
0.0407133
0.0414342
0.0420949
0.0427008
0.0432655
0.0438061
0.0615861
0.0330101
0.028341
0.027183
0.0271577
0.0276399
0.0283872
0.0292828
0.0302615
0.0312828
0.0323194
0.0333511
0.0343629
0.0353428
0.0362817
0.0371734
0.0380146
0.0388027
0.039537
0.0402192
0.040854
0.0414536
0.0420346
0.0569729
0.0307507
0.0265267
0.0255398
0.0255935
0.026111
0.0268692
0.0277609
0.0287266
0.0297297
0.0307456
0.0317568
0.0327502
0.0337158
0.034646
0.0355366
0.0363843
0.0371872
0.0379449
0.0386586
0.0393318
0.039975
0.0406032
0.0529722
0.0288197
0.0249993
0.0241741
0.0243056
0.024859
0.0256286
0.0265162
0.0274681
0.0284518
0.0294462
0.0304367
0.0314127
0.0323664
0.0332923
0.0341879
0.0350505
0.0358786
0.0366716
0.0374295
0.0381539
0.0388525
0.0395385
0.0497015
0.0272854
0.0238128
0.0231306
0.0233308
0.0239141
0.0246895
0.0255676
0.0265005
0.0274602
0.0284296
0.0293971
0.0303553
0.0312993
0.0322261
0.0331346
0.0340235
0.0348914
0.0357365
0.0365566
0.0373502
0.0381212
0.0388795
0.0472247
0.0262074
0.0230189
0.0224528
0.0227046
0.0233033
0.0240714
0.0249278
0.0258308
0.0267576
0.027695
0.0286355
0.0295751
0.0305122
0.0314471
0.032381
0.0333137
0.0342434
0.0351658
0.0360748
0.0369639
0.0378311
0.0386819
0.0455431
0.0256291
0.0226638
0.0221825
0.0224606
0.0230508
0.0237887
0.0246026
0.025458
0.0263375
0.0272328
0.0281403
0.0290603
0.0299957
0.0309509
0.0319302
0.0329347
0.0339607
0.0349993
0.0360371
0.037059
0.0380554
0.0390253
0.0445916
0.02558
0.0227961
0.0223683
0.0226373
0.023181
0.0238522
0.0245912
0.0253723
0.0261844
0.0270236
0.027891
0.0287918
0.0297347
0.0307304
0.031788
0.0329097
0.0340872
0.0353017
0.0365265
0.0377337
0.038902
0.0400234
0.0442701
0.0261073
0.0235036
0.0230947
0.0232962
0.0237283
0.0242723
0.0248867
0.0255554
0.0262728
0.0270387
0.0278584
0.0287432
0.0297103
0.0307805
0.0319709
0.0332842
0.0347012
0.0361826
0.0376787
0.0391407
0.0405333
0.041841
0.0445411
0.0274006
0.0250292
0.0245582
0.0245603
0.0247513
0.025063
0.0254753
0.0259783
0.0265665
0.0272394
0.028005
0.0288821
0.029902
0.0311035
0.0325188
0.0341483
0.0359462
0.0378323
0.0397168
0.0415203
0.0431922
0.0447147
0.0458565
0.0303017
0.0281261
0.0272423
0.0266786
0.0263476
0.0262386
0.026331
0.0265977
0.0270165
0.0275766
0.028285
0.0291712
0.0302909
0.0317197
0.0335209
0.0356802
0.0380859
0.040578
0.0430036
0.0452428
0.0472373
0.0489786
0.0513613
0.0384387
0.0350678
0.0322501
0.0300884
0.0286399
0.0277913
0.0273994
0.0273476
0.0275578
0.0279901
0.0286446
0.0295676
0.0308628
0.0326871
0.0351789
0.0382456
0.0416083
0.0449701
0.0481041
0.0508504
0.0531728
0.0550848
0.0835514
0.0654919
0.0515652
0.0415204
0.0352859
0.0316529
0.0296217
0.0285668
0.0281278
0.0281066
0.0284088
0.0290215
0.030021
0.0316091
0.0341497
0.0380208
0.0426657
0.0474354
0.0518931
0.0558181
0.0590472
0.0616488
0.0636015
0.302196
0.139828
0.0842268
0.0560239
0.0419789
0.0349776
0.0314223
0.0296259
0.0287985
0.0285637
0.0287552
0.0293461
0.0304645
0.0325125
0.03645
0.0438772
0.05111
0.0574394
0.0627398
0.067134
0.0705579
0.073394
0.075165
1.57475
0.211388
0.117052
0.069448
0.0474605
0.037401
0.0326194
0.0302849
0.0291973
0.0288276
0.0289532
0.0295407
0.0307829
0.0334117
0.0400376
0.0613076
0.0706094
0.0763997
0.0805077
0.0837714
0.0863224
0.0892155
0.0903213
0.388524
0.307328
0.277596
0.305663
0.13478
0.137631
0.135503
0.132989
0.103262
0.105514
0.105699
0.103864
0.0945496
0.0948557
0.0942891
0.0927527
0.0910107
0.090433
0.0894237
0.0879617
0.0897756
0.0888063
0.0876011
0.0861898
0.089795
0.0886968
0.0874647
0.0861301
0.0906469
0.0895335
0.0883532
0.0871323
0.0926122
0.0915548
0.0904202
0.0892436
0.0962183
0.0950385
0.0938497
0.0925914
0.0957617
0.0949795
0.093865
0.0928395
0.092126
0.0912842
0.0903635
0.0894691
0.0898261
0.0890328
0.0881937
0.087345
0.0879908
0.0872557
0.0865112
0.0857419
0.0860633
0.0854222
0.0847892
0.0841194
0.0837636
0.0832272
0.0827087
0.0821437
0.0809107
0.0804872
0.0800875
0.0796334
0.0774889
0.0771795
0.0768962
0.0765562
0.0736291
0.0734254
0.0732491
0.0730173
0.0695342
0.0694184
0.06933
0.0691929
0.0654152
0.0653676
0.0653465
0.065285
0.0614418
0.0614423
0.0614686
0.0614659
0.0577271
0.0577612
0.0578197
0.0578601
0.05433
0.0543867
0.0544662
0.0545377
0.0512724
0.0513468
0.0514423
0.0515355
0.0485516
0.0486415
0.0487502
0.0488621
0.0461602
0.0462666
0.04639
0.0465191
0.0440921
0.0442171
0.0443569
0.0445045
0.0423531
0.0425002
0.0426599
0.042827
0.0409592
0.0411322
0.0413151
0.0415051
0.0399398
0.0401437
0.0403555
0.0405716
0.0393357
0.0395767
0.0398224
0.0400694
0.0392058
0.0394914
0.0397778
0.0400602
0.0396318
0.0399705
0.040304
0.0406276
0.0407297
0.0411302
0.041518
0.0418873
0.0426619
0.0431307
0.043576
0.0439932
0.0456568
0.0461939
0.0466945
0.0471545
0.0500275
0.0506195
0.0511589
0.0516458
0.0561875
0.0567969
0.0573382
0.0578167
0.0646433
0.0651969
0.0656694
0.0660804
0.0759572
0.0763319
0.0766179
0.0768649
0.090619
0.0906782
0.0906167
0.0904955
0.167394
0.106469
0.0801955
0.0693601
0.0645707
0.0612929
0.059072
0.0572316
0.0552858
0.0531797
0.0507503
0.0480049
0.0449256
0.0415095
0.0382041
0.035507
0.0335066
0.033292
0.0435146
0.115917
0.092582
0.0782234
0.0703227
0.0658788
0.062631
0.0602066
0.0581004
0.0559919
0.0537016
0.0511859
0.048499
0.0456076
0.0426047
0.0398512
0.0374763
0.0351136
0.0334518
0.0411144
0.0971464
0.0853796
0.0765259
0.0706576
0.0667434
0.063823
0.0614436
0.0592907
0.0571523
0.0548778
0.0524425
0.0498862
0.0471671
0.044339
0.0416715
0.0392563
0.0367362
0.034325
0.0448026
0.0886637
0.0816104
0.0756593
0.0712368
0.0679199
0.0651711
0.062765
0.0605323
0.0583551
0.056135
0.0538318
0.0514405
0.0489206
0.0462604
0.0435716
0.0409293
0.0382275
0.0363867
0.0554477
0.0848735
0.0799402
0.0755834
0.072097
0.0692525
0.0666848
0.0642767
0.0619716
0.059745
0.0575497
0.0553427
0.0530869
0.050733
0.0482152
0.0454938
0.04257
0.0396171
0.0387102
0.0679158
0.0835653
0.0797032
0.0762405
0.0733175
0.070769
0.0683468
0.0659643
0.0636332
0.0613796
0.0592025
0.0570726
0.0549409
0.0527403
0.0503622
0.0476763
0.0446034
0.0413586
0.0402708
0.0719255
0.083798
0.0805337
0.0775854
0.0750021
0.0726397
0.0703097
0.0679485
0.0655916
0.0633064
0.061134
0.0590705
0.0570765
0.0550664
0.052878
0.0503347
0.0473407
0.044068
0.0428399
0.0742228
0.0850718
0.0822219
0.0796098
0.0772903
0.0751079
0.0728675
0.0704993
0.0680734
0.0657287
0.0635537
0.0615624
0.059753
0.0580332
0.0561505
0.0538634
0.0513265
0.0486009
0.0482838
0.0793316
0.0872709
0.0846772
0.0823683
0.0804116
0.0785482
0.0764627
0.0740345
0.0714368
0.0690024
0.0668771
0.06499
0.0633439
0.0618727
0.060359
0.0585559
0.0575737
0.0556198
0.0511144
0.0714682
0.0903739
0.087907
0.0859248
0.0846212
0.0834014
0.0816177
0.0789303
0.0758118
0.0731143
0.0711179
0.0695643
0.0683492
0.0667854
0.0651267
0.0632359
0.0602754
0.0555684
0.052033
0.0668121
0.0911525
0.0889362
0.0873559
0.0864716
0.0856815
0.0842494
0.0814391
0.078043
0.0754101
0.073836
0.0722767
0.0703451
0.0680531
0.0656917
0.0623827
0.0581764
0.0564168
0.0585229
0.0732609
0.0880753
0.0861711
0.0845262
0.0831818
0.0819314
0.0802475
0.077925
0.07535
0.0732143
0.0716211
0.0695837
0.0668358
0.0639383
0.0611929
0.0586994
0.0573641
0.0584568
0.0637082
0.0844459
0.0859418
0.0839409
0.0820113
0.0802224
0.0784514
0.0764748
0.0742686
0.0720038
0.0699269
0.0679602
0.0656869
0.0630077
0.060463
0.058545
0.0574973
0.0577881
0.0602172
0.0671734
0.0947817
0.0843929
0.0823146
0.0801856
0.078055
0.0759574
0.073871
0.0717466
0.0696013
0.0674559
0.0652371
0.0629013
0.0606234
0.0587416
0.0574993
0.0570564
0.0577662
0.0605066
0.0684697
0.103219
0.0828595
0.080792
0.0785706
0.0762884
0.0740745
0.072001
0.0700039
0.0679774
0.0658302
0.0635453
0.0612747
0.059245
0.057643
0.0565633
0.0561306
0.0567376
0.059467
0.0681905
0.109478
0.0809911
0.078991
0.0768128
0.0745497
0.0723523
0.0703176
0.0683994
0.0664637
0.0643812
0.0621603
0.0599651
0.0579943
0.0563798
0.0551867
0.0545767
0.0550095
0.0577248
0.0670876
0.113733
0.078607
0.076729
0.0746778
0.0725381
0.0704345
0.068456
0.066578
0.0646877
0.0626788
0.0605515
0.0584292
0.0564635
0.0547658
0.0534374
0.0526856
0.0530241
0.0557861
0.065624
0.11628
0.0756776
0.073964
0.0720885
0.0701218
0.0681553
0.066259
0.0644226
0.0625722
0.0606337
0.0586052
0.0565679
0.0546335
0.0529077
0.0515197
0.0507165
0.0510446
0.0538713
0.0639869
0.117361
0.0722924
0.0707719
0.069098
0.0673287
0.0655264
0.0637429
0.0619785
0.0601917
0.0583391
0.0564209
0.0544911
0.0526344
0.0509525
0.0495901
0.0488114
0.0491683
0.0520265
0.0622171
0.117183
0.0686188
0.067302
0.0658408
0.0642794
0.062659
0.0610182
0.0593631
0.0576747
0.0559325
0.054141
0.0523399
0.0505973
0.0490089
0.0477225
0.0470035
0.0473952
0.0502397
0.0603526
0.115949
0.0648442
0.0637274
0.0624777
0.0611244
0.0596946
0.0582173
0.0567012
0.055141
0.0535306
0.0518793
0.0502196
0.0486092
0.0471367
0.0459455
0.0452936
0.0457066
0.0484936
0.058403
0.113907
0.061141
0.0602075
0.0591555
0.0580012
0.0567609
0.0554557
0.0540946
0.0526796
0.0512129
0.0497067
0.0481903
0.046714
0.0453596
0.0442628
0.0436698
0.0440857
0.0467804
0.0564138
0.111284
0.057632
0.0568602
0.0559847
0.055014
0.0539535
0.0528174
0.0516138
0.0503475
0.049025
0.04766
0.0462793
0.0449286
0.0436827
0.0426692
0.0421217
0.0425243
0.0451041
0.0543974
0.108209
0.0543885
0.0537562
0.0530371
0.0522306
0.0513339
0.0503553
0.0493011
0.0481767
0.0469902
0.0457556
0.0444977
0.0432581
0.0421063
0.0411619
0.040647
0.0410259
0.0434862
0.0524426
0.10488
0.0514465
0.050936
0.0503543
0.0496913
0.0489391
0.0481014
0.0471823
0.0461867
0.0451226
0.0440035
0.0428526
0.0417083
0.0406357
0.0397478
0.0392566
0.0396092
0.0419553
0.0505893
0.101593
0.0488253
0.04842
0.0479569
0.0474177
0.0467908
0.0460763
0.0452759
0.0443934
0.0434363
0.0424171
0.0413576
0.040294
0.0392876
0.0384466
0.0379748
0.0383047
0.0405537
0.0488953
0.098474
0.0465285
0.0462161
0.0458558
0.045424
0.0449055
0.0442977
0.0436002
0.0428158
0.041951
0.0410176
0.0400362
0.0390412
0.0380915
0.0372911
0.0368377
0.0371527
0.0393262
0.0474308
0.0958026
0.0445595
0.0443315
0.0440628
0.0437252
0.0433015
0.0427867
0.0421788
0.0414796
0.040695
0.0398361
0.0389226
0.0379875
0.0370878
0.0363248
0.0358914
0.0362
0.0383206
0.0462466
0.093602
0.0429274
0.0427799
0.0425954
0.0423429
0.042004
0.0415716
0.0410431
0.0404196
0.0397062
0.0389137
0.0380611
0.0371807
0.0363278
0.0356013
0.0351908
0.0355029
0.0375931
0.0454011
0.09208
0.0416536
0.0415853
0.0414812
0.041308
0.0410469
0.0406899
0.0402337
0.0396792
0.0390313
0.0383005
0.0375056
0.0366779
0.0358717
0.035184
0.0348014
0.0351265
0.0372084
0.0449613
0.091272
0.0407708
0.0407834
0.0407584
0.0406617
0.0404743
0.0401883
0.0398002
0.039311
0.0387258
0.0380555
0.0373183
0.0365454
0.0357899
0.0351468
0.0348007
0.035152
0.0372498
0.0450171
0.09142
0.0403252
0.0404228
0.0404779
0.0404568
0.0403414
0.040124
0.0398018
0.0393766
0.0388543
0.038246
0.0375706
0.0368589
0.0361632
0.0355771
0.0352828
0.0356797
0.0378244
0.0456852
0.0926079
0.0403791
0.0405676
0.0407052
0.04076
0.0407156
0.0405656
0.0403089
0.0399482
0.039491
0.0389495
0.0383436
0.0377048
0.0370853
0.0365779
0.0363633
0.0368412
0.0390795
0.0471374
0.0952066
0.0410173
0.041302
0.0415241
0.0416546
0.0416801
0.0415968
0.0414053
0.0411108
0.0407227
0.0402552
0.0397305
0.0391822
0.0386646
0.0382717
0.0381849
0.0388034
0.0412177
0.0496145
0.0994974
0.0423527
0.0427362
0.043042
0.0432459
0.0433387
0.0433199
0.0431931
0.0429665
0.042652
0.0422675
0.0418387
0.0414043
0.0410244
0.0408006
0.0409169
0.0417829
0.0445177
0.0534895
0.106237
0.0445355
0.0450141
0.0453975
0.045668
0.0458219
0.0458628
0.0457984
0.0456399
0.045403
0.0451099
0.0447923
0.044498
0.044301
0.044318
0.0447557
0.0460497
0.0493678
0.0593305
0.116371
0.0477641
0.0483231
0.0487689
0.0490921
0.0492954
0.0493873
0.0493793
0.0492862
0.0491274
0.0489299
0.0487341
0.0486017
0.0486318
0.0489759
0.0498989
0.051914
0.0563063
0.0680901
0.13204
0.0522967
0.0529045
0.0533849
0.0537373
0.0539712
0.0540997
0.0541375
0.0541019
0.0540143
0.0539053
0.0538263
0.053858
0.0541359
0.0548829
0.0564836
0.0596545
0.0660131
0.0813594
0.157195
0.0584591
0.0590649
0.0595373
0.0598846
0.0601222
0.0602666
0.0603337
0.0603398
0.0603019
0.0602447
0.0602412
0.0603812
0.060876
0.0620375
0.064462
0.0693217
0.0791484
0.10195
0.202074
0.0666473
0.0671852
0.0675943
0.067893
0.0681011
0.0682354
0.0683094
0.0683308
0.0682883
0.0681521
0.0681014
0.0681759
0.0687737
0.0702245
0.0734099
0.0803043
0.0955584
0.134104
0.296006
0.077319
0.0777313
0.07802
0.0782242
0.0783677
0.078464
0.0785195
0.078518
0.0783438
0.0775949
0.0772082
0.076782
0.0773865
0.078838
0.0822899
0.0906252
0.111714
0.179801
0.547884
0.0909983
0.0912768
0.091402
0.0914773
0.0915294
0.0915657
0.0915843
0.0915403
0.0910566
0.0870595
0.0858803
0.08414
0.0851664
0.0863893
0.0892647
0.0965671
0.113706
0.196632
1.46856
)
;

boundaryField
{
    leftWall
    {
        type            epsilonWallFunction;
        value           nonuniform List<scalar> 
50
(
0.00415575
0.00721994
0.0116188
0.0157406
0.0196299
0.0235559
0.0280131
0.0336593
0.0416018
0.0573251
0.0798247
0.110052
0.154082
0.225689
0.290275
0.311435
0.298404
0.305919
0.305207
0.205214
0.171054
0.185027
0.157579
0.135112
0.121973
0.11464
0.109834
0.106007
0.102243
0.0981142
0.0935039
0.0884626
0.0831073
0.0775862
0.0720524
0.0666661
0.0615861
0.0569729
0.0529722
0.0497015
0.0472247
0.0455431
0.0445916
0.0442701
0.0445411
0.0458565
0.0513613
0.0835514
0.302196
1.57475
)
;
    }
    rightWall
    {
        type            epsilonWallFunction;
        value           nonuniform List<scalar> 
50
(
0.00824032
0.0127725
0.0200919
0.0277284
0.0371903
0.0483601
0.0468866
0.0453114
0.0435146
0.0411144
0.0448026
0.0554477
0.0679158
0.0719255
0.0742228
0.0793316
0.0714682
0.0668121
0.0732609
0.0844459
0.0947817
0.103219
0.109478
0.113733
0.11628
0.117361
0.117183
0.115949
0.113907
0.111284
0.108209
0.10488
0.101593
0.098474
0.0958026
0.093602
0.09208
0.091272
0.09142
0.0926079
0.0952066
0.0994974
0.106237
0.116371
0.13204
0.157195
0.202074
0.296006
0.547884
1.46856
)
;
    }
    lowerWall
    {
        type            epsilonWallFunction;
        value           nonuniform List<scalar> 
62
(
0.00415575
0.0167026
0.0310744
0.0448749
0.0576483
0.0694094
0.0803038
0.0905035
0.100129
0.109215
0.117776
0.126102
0.134779
0.142649
0.148979
0.153088
0.154214
0.151397
0.143264
0.127758
0.101905
0.0624985
0.0103065
0.0103065
0.0230741
0.042372
0.063418
0.0864854
0.114319
0.155242
0.246244
0.388524
0.307328
0.277596
0.305663
0.0100717
0.0212103
0.0373788
0.0550313
0.0781144
0.11555
0.18064
0.288648
0.0100717
0.0629285
0.104503
0.130827
0.145875
0.153827
0.154325
0.14797
0.145554
0.141226
0.131923
0.115116
0.0922043
0.0806831
0.0771584
0.0655284
0.0512635
0.0323382
0.00824032
)
;
    }
    atmosphere
    {
        type            inletOutlet;
        inletValue      uniform 0.1;
        value           nonuniform List<scalar> 
46
(
0.1
0.1
0.117052
0.069448
0.0474605
0.037401
0.0326194
0.0302849
0.0291973
0.0288276
0.0289532
0.0295407
0.0307829
0.0334117
0.0400376
0.1
0.1
0.1
0.1
0.1
0.1
0.1
0.1
0.1
0.1
0.1
0.1
0.1
0.1
0.1
0.1
0.1
0.1
0.1
0.1
0.1
0.0870595
0.0858803
0.08414
0.0851664
0.0863893
0.0892647
0.0965671
0.1
0.1
0.1
)
;
    }
    defaultFaces
    {
        type            empty;
    }
}


// ************************************************************************* //
