/*--------------------------------*- C++ -*----------------------------------*\
  =========                 |
  \\      /  F ield         | OpenFOAM: The Open Source CFD Toolbox
   \\    /   O peration     | Website:  https://openfoam.org
    \\  /    A nd           | Version:  13
     \\/     M anipulation  |
\*---------------------------------------------------------------------------*/
FoamFile
{
    format      ascii;
    class       volScalarField;
    location    "2.35";
    object      k;
}
// * * * * * * * * * * * * * * * * * * * * * * * * * * * * * * * * * * * * * //

dimensions      [0 2 -2 0 0 0 0];

internalField   nonuniform List<scalar> 
2268
(
0.000974826
0.00248544
0.00376966
0.00482536
0.00571317
0.00647737
0.00714837
0.00774749
0.00828759
0.00877462
0.00921207
0.0096122
0.0100153
0.0103788
0.0106645
0.0108442
0.0108861
0.0107467
0.0103565
0.00959824
0.00826405
0.00598113
0.00180083
0.00233137
0.00571794
0.00825386
0.0103679
0.0121899
0.0137976
0.0152417
0.0165569
0.0177658
0.018882
0.0199158
0.0208759
0.0217635
0.0225503
0.0231846
0.0236089
0.0237539
0.0235247
0.0227736
0.0212574
0.0185611
0.0139876
0.0051073
0.0032037
0.00760615
0.0107596
0.0134169
0.0157536
0.017849
0.0197479
0.0214797
0.0230643
0.0245159
0.0258483
0.0270749
0.0281975
0.029187
0.0299821
0.0305138
0.0306983
0.0304212
0.0295086
0.0276763
0.0244353
0.018892
0.00766577
0.00392538
0.00912132
0.0127636
0.0158467
0.0185929
0.0210796
0.0233413
0.0253989
0.0272673
0.0289595
0.030491
0.0318787
0.0331291
0.0342185
0.0350837
0.0356526
0.0358375
0.0355199
0.0345205
0.0325457
0.0290726
0.0230189
0.0100272
0.00455396
0.0104562
0.0145845
0.0180756
0.0212052
0.0240518
0.0266405
0.0289847
0.0310951
0.0329832
0.0346646
0.0361589
0.0374781
0.0386078
0.0394874
0.0400473
0.0402039
0.0398446
0.0387987
0.036782
0.033257
0.0269358
0.0123167
0.00515428
0.0117384
0.0163791
0.0202846
0.0237928
0.0269847
0.0298781
0.032482
0.0348046
0.036857
0.0386556
0.0402214
0.0415717
0.0427034
0.0435609
0.044081
0.0441899
0.0437882
0.042725
0.0407417
0.0373144
0.0309701
0.0147992
0.00580566
0.0130897
0.0182569
0.0225808
0.0264655
0.0299913
0.03317
0.0360096
0.0385188
0.040709
0.0425985
0.0442096
0.0455643
0.046672
0.0474821
0.0479405
0.047987
0.0475417
0.0464813
0.0445909
0.0414083
0.0354251
0.01809
0.00658964
0.0146332
0.0202961
0.025034
0.0292916
0.0331385
0.0365819
0.0396338
0.0423046
0.0446075
0.0465634
0.0481971
0.0495353
0.0506026
0.0513487
0.0517289
0.0516989
0.0512018
0.0501472
0.0483747
0.0455365
0.0404474
0.0245321
0.00177482
0.00596807
0.00835835
0.00969221
0.0103977
0.0107589
0.0107759
0.0104764
0.0103964
0.0102239
0.00979474
0.00893509
0.00772149
0.00710642
0.00692815
0.00620587
0.00525952
0.00384132
0.00152424
0.00513518
0.0135658
0.0184791
0.0214464
0.0230182
0.0238776
0.0239307
0.0231693
0.0229086
0.022502
0.0213434
0.0195217
0.0172616
0.0158029
0.0146457
0.0131388
0.0111671
0.00822913
0.00361985
0.00746923
0.0180334
0.0239698
0.0275645
0.0295075
0.0305058
0.0307293
0.0301547
0.0297457
0.0291109
0.0275525
0.0253043
0.022764
0.0206541
0.0188081
0.0168687
0.0144335
0.010786
0.00491291
0.00965207
0.0216862
0.0282819
0.0321459
0.0341727
0.0350026
0.0353211
0.0349665
0.0345653
0.0340068
0.0322817
0.0297803
0.0269131
0.024286
0.021925
0.0196949
0.0170739
0.0132287
0.00610847
0.0121849
0.0250956
0.0321543
0.0360562
0.0380732
0.0386747
0.0387722
0.0384384
0.0379263
0.0373496
0.0359997
0.0336458
0.0304368
0.0272739
0.0244877
0.0220341
0.0193391
0.01559
0.00749312
0.0158238
0.0287388
0.0358918
0.0396843
0.0415361
0.0419665
0.0418381
0.0412891
0.0404685
0.039402
0.0380977
0.0363717
0.0335174
0.0298679
0.0266619
0.0239466
0.0210807
0.0172299
0.00895278
0.0213199
0.0329882
0.0396312
0.0431229
0.0447321
0.0449262
0.0446003
0.0438602
0.0427587
0.0412947
0.0396805
0.0378535
0.0355858
0.032161
0.0286041
0.0254978
0.0221704
0.0176317
0.00865165
0.029098
0.0379885
0.0433449
0.0462948
0.0476575
0.0476156
0.0470866
0.0461741
0.0448523
0.0431466
0.0412874
0.0392161
0.0368388
0.0337825
0.030288
0.0268685
0.0229725
0.0175965
0.0084069
0.00762694
0.017152
0.0235482
0.0289401
0.0337664
0.0380768
0.0418867
0.0452302
0.0481273
0.0505951
0.0526614
0.0543507
0.0556834
0.0566826
0.0573268
0.0575892
0.0574499
0.0568784
0.0558312
0.0542286
0.0518993
0.0483518
0.0407837
0.00951041
0.0213877
0.0288563
0.0350666
0.0404984
0.0452129
0.0492876
0.0528192
0.0558521
0.0584233
0.060566
0.0623037
0.063654
0.0646089
0.0651864
0.0653701
0.0651623
0.0645511
0.0635254
0.0620889
0.060231
0.0579444
0.0551533
0.0119258
0.026375
0.0349081
0.0417076
0.0474833
0.0523791
0.0565508
0.0601455
0.0632199
0.065832
0.068025
0.069818
0.0712159
0.0721988
0.072745
0.0728843
0.0726441
0.0720253
0.0710348
0.0697249
0.0681655
0.0665312
0.0651007
0.0148419
0.0322509
0.0417773
0.0489178
0.0547583
0.0596084
0.0637178
0.0672505
0.0702538
0.0728193
0.0749999
0.0767996
0.078211
0.0791958
0.0797069
0.0797797
0.0794953
0.0788474
0.077843
0.0765568
0.0750754
0.0735983
0.0723094
0.0185414
0.0391452
0.049451
0.0566079
0.062209
0.0667592
0.0706004
0.0738862
0.0766718
0.0790772
0.0811489
0.0828754
0.0842164
0.0851112
0.0855336
0.0855411
0.0851827
0.0844575
0.083413
0.0821303
0.0806927
0.0792584
0.0779103
0.0236697
0.0467591
0.0572834
0.0639886
0.0690294
0.0730798
0.0764626
0.0793262
0.0817808
0.0839726
0.0859065
0.0875251
0.0887722
0.0895969
0.0899862
0.0899894
0.0896322
0.08891
0.0879005
0.0866952
0.0853718
0.0840263
0.0826598
0.0279321
0.0527827
0.0636289
0.0699715
0.0743735
0.0778395
0.0807635
0.0833053
0.0855614
0.0876341
0.0894922
0.0910442
0.0922326
0.0930313
0.0934433
0.0934932
0.0931911
0.0925557
0.091671
0.0906156
0.0894339
0.0881602
0.0867705
0.029066
0.0570171
0.0689972
0.0751381
0.0789535
0.0817944
0.0841738
0.0864471
0.0886697
0.0907763
0.0926217
0.0940946
0.0951699
0.0958714
0.0962431
0.0963076
0.0960657
0.0955366
0.0947874
0.0938866
0.0928667
0.09172
0.0903789
0.0279897
0.0593979
0.0745796
0.0808738
0.0840037
0.0858568
0.0872275
0.0891656
0.0914744
0.0937944
0.095757
0.0971674
0.0980518
0.0985164
0.0986985
0.0986729
0.0984591
0.0980275
0.0974099
0.0966707
0.09586
0.0949677
0.0938012
0.0281841
0.0609917
0.0822774
0.0875373
0.0889688
0.0891078
0.089712
0.0913717
0.0938717
0.0967421
0.0991606
0.100677
0.101391
0.10146
0.101195
0.100811
0.100527
0.100168
0.0997053
0.0992158
0.0987871
0.0985072
0.0975478
0.0296271
0.0594914
0.0741592
0.0820365
0.0852574
0.0865042
0.0882465
0.0905237
0.0934597
0.0968402
0.0997135
0.10138
0.102011
0.102044
0.101926
0.101623
0.101303
0.10091
0.100463
0.0999285
0.0996014
0.0991995
0.0984445
0.0223983
0.0491036
0.065373
0.0738777
0.0784867
0.0814053
0.0843077
0.087525
0.090891
0.0941396
0.0968314
0.0987028
0.0998711
0.100596
0.101063
0.101247
0.101257
0.101054
0.100733
0.100115
0.0994259
0.0986067
0.097573
0.0194635
0.0452299
0.0593195
0.0678491
0.072749
0.0764834
0.0801893
0.0840472
0.0878489
0.0913283
0.0942461
0.0964
0.0977876
0.0986662
0.0993617
0.0999501
0.100368
0.100534
0.100418
0.0999666
0.0991085
0.0981551
0.0971347
0.0208839
0.0422079
0.0547064
0.0623116
0.0673432
0.0715773
0.0757798
0.0800853
0.0842792
0.0880462
0.0912271
0.0936933
0.0953967
0.0965619
0.0975231
0.0984073
0.0990998
0.0994957
0.099532
0.0991483
0.0984516
0.0976499
0.0966893
0.0188394
0.0390495
0.0500592
0.0572058
0.0624262
0.0669906
0.0714432
0.0759069
0.0802432
0.0841778
0.0875221
0.0902011
0.0922195
0.0937888
0.0951365
0.0963189
0.0972718
0.097907
0.0981527
0.0979839
0.0974867
0.0968188
0.0959952
0.0168752
0.035503
0.0458711
0.0528659
0.0582707
0.0630148
0.0675245
0.0719323
0.0761774
0.0800957
0.0835084
0.0863313
0.0886114
0.0905305
0.0922282
0.0937168
0.0949346
0.0958078
0.0962855
0.0963583
0.096095
0.0956126
0.0949469
0.0155552
0.0328631
0.0426335
0.0495186
0.0549932
0.0597693
0.0641989
0.0684217
0.0724421
0.0761849
0.0795369
0.0824305
0.0849097
0.0870907
0.0890416
0.0907525
0.0921703
0.0932398
0.0939266
0.0942296
0.0942022
0.0939245
0.0934427
0.0148183
0.0310379
0.0403654
0.0470824
0.0524923
0.0571791
0.0614416
0.0654217
0.0691633
0.0726508
0.075848
0.0787183
0.0812845
0.0836023
0.0856867
0.0875212
0.0890639
0.0902752
0.0911316
0.091634
0.0918226
0.0917525
0.0914678
0.0143439
0.0298596
0.0387948
0.0452818
0.0505335
0.0550571
0.0591146
0.0628448
0.0663141
0.0695456
0.072542
0.0753076
0.0778484
0.0801744
0.0822845
0.0841581
0.0857576
0.0870558
0.0880349
0.0886956
0.0890672
0.0891878
0.0890964
0.0139857
0.0290349
0.0375973
0.0438211
0.0488697
0.0532027
0.0570546
0.0605584
0.0637911
0.066796
0.0695978
0.0722114
0.074648
0.0769027
0.0789612
0.0808036
0.0824045
0.083742
0.0847983
0.0855736
0.0860894
0.0863724
0.0864544
0.0136509
0.0283216
0.0365255
0.0424798
0.0473153
0.0514594
0.0551259
0.0584399
0.0614803
0.0642985
0.0669278
0.0693882
0.0716894
0.0738323
0.0758
0.0775754
0.0791392
0.0804743
0.0815685
0.0824192
0.0830411
0.0834527
0.0836812
0.0132896
0.0275789
0.035439
0.0411329
0.045763
0.0497328
0.0532402
0.0564012
0.0592915
0.0619632
0.0644512
0.0667769
0.0689506
0.0709736
0.0728409
0.0745359
0.0760452
0.077356
0.0784594
0.0793526
0.0800468
0.0805565
0.0809016
0.0128825
0.0267494
0.0342807
0.0397293
0.0441682
0.0479815
0.051354
0.054393
0.0571686
0.0597294
0.0621086
0.064327
0.0663955
0.0683175
0.0700919
0.0717097
0.0731623
0.0744405
0.075538
0.0764532
0.0771948
0.0777759
0.0782114
0.0124282
0.0258238
0.0330413
0.0382624
0.0425261
0.0462001
0.0494582
0.0523994
0.0550875
0.0575663
0.0598655
0.0620046
0.0639943
0.0658393
0.0675405
0.069096
0.0704998
0.0717475
0.0728349
0.0737618
0.0745358
0.0751693
0.0756748
0.0119336
0.0248166
0.0317366
0.0367489
0.0408547
0.0444058
0.0475665
0.0504284
0.0530493
0.055468
0.0577106
0.0597943
0.0617294
0.0635213
0.0651722
0.0666831
0.0680518
0.069277
0.0703571
0.0712933
0.0720925
0.0727669
0.0733293
0.0114098
0.0237535
0.0303943
0.0352181
0.0391841
0.0426284
0.0457066
0.0485039
0.0510727
0.0534473
0.0556505
0.0576974
0.0595973
0.0613557
0.0629758
0.0644596
0.0658081
0.0670217
0.0681015
0.0690494
0.0698724
0.070583
0.0711937
0.0108701
0.0226657
0.0290488
0.0337058
0.037551
0.0409047
0.0439141
0.0466589
0.0491871
0.0515291
0.0537051
0.0557282
0.0576069
0.0593465
0.0609506
0.0624219
0.0637633
0.0649765
0.0660639
0.0670287
0.0678776
0.0686231
0.0692784
0.0103293
0.021588
0.0277386
0.0322518
0.0359957
0.0392748
0.0422283
0.0449311
0.0474274
0.0497449
0.0519016
0.0539093
0.0557758
0.0575064
0.0591049
0.0605746
0.0619193
0.0631416
0.0642446
0.0652323
0.066111
0.0668931
0.0675917
0.0098042
0.0205576
0.0265048
0.0308979
0.0345598
0.0377794
0.0406888
0.0433582
0.0458291
0.0481272
0.0502692
0.0522662
0.0541258
0.0558533
0.0574531
0.0589288
0.0602847
0.061524
0.06265
0.0636668
0.0645803
0.0654021
0.0661453
0.00931296
0.0196129
0.0253887
0.0296852
0.0332832
0.0364569
0.0393317
0.0419744
0.0444242
0.0467056
0.048835
0.0508232
0.0526782
0.0544059
0.056011
0.0574985
0.0588721
0.0601354
0.0612917
0.0623447
0.0632992
0.0641656
0.0649564
0.00887415
0.0187901
0.0244285
0.0286509
0.0322009
0.0353397
0.0381872
0.0408073
0.0432379
0.0455032
0.0476197
0.0495991
0.0514501
0.0531798
0.0547937
0.0562977
0.0576956
0.0589907
0.0601859
0.0612835
0.062287
0.0632047
0.0640483
0.0085047
0.0181186
0.0236547
0.027824
0.0313393
0.0344517
0.0372764
0.0398754
0.0422864
0.044534
0.0466358
0.0486049
0.0504517
0.0521849
0.0538116
0.0553382
0.0567689
0.0581064
0.059352
0.0605061
0.0615696
0.0625481
0.0634514
0.00821636
0.0176167
0.0230861
0.0272222
0.0307147
0.0338064
0.0366099
0.0391867
0.0415753
0.0438018
0.0458857
0.0478425
0.0496852
0.0514246
0.0530702
0.0546292
0.0561058
0.0575014
0.0588146
0.0600422
0.0611812
0.0622334
0.0632061
0.00801362
0.017289
0.0227292
0.0268528
0.0303327
0.0334073
0.0361884
0.0387391
0.0411
0.0433002
0.0453622
0.0473048
0.0491445
0.0508957
0.0525708
0.0541783
0.0557221
0.0572004
0.058607
0.0599328
0.061169
0.0623121
0.0633659
0.00789235
0.0171296
0.0225832
0.0267174
0.030194
0.0332513
0.0360047
0.0385214
0.0408464
0.0430132
0.0450485
0.0469757
0.0488162
0.0505894
0.0523121
0.0539948
0.0556397
0.0572393
0.0587782
0.0602376
0.0616
0.0628552
0.0640038
0.00784321
0.0171353
0.0226575
0.0268272
0.0303039
0.0333352
0.0360471
0.0385155
0.0407923
0.0429164
0.0449199
0.0468319
0.0486806
0.0504933
0.0522935
0.054095
0.055896
0.0576766
0.0594053
0.0610473
0.0625725
0.0639636
0.0652185
0.00786392
0.0173539
0.0230205
0.0272375
0.0306921
0.0336646
0.0363035
0.0386983
0.0409084
0.0429779
0.0449442
0.0468433
0.0487132
0.0505934
0.0525197
0.0545118
0.0565575
0.0586118
0.0606133
0.0625021
0.064232
0.0657797
0.0671452
0.00801117
0.0180572
0.0239333
0.0281186
0.0314416
0.0342626
0.0367626
0.0390407
0.0411578
0.0431585
0.0450828
0.0469745
0.0488854
0.0508767
0.0530087
0.055313
0.0577491
0.0602171
0.0626042
0.064816
0.0667891
0.0685013
0.0699624
0.00865363
0.0203874
0.0262034
0.0298829
0.0327149
0.0351653
0.0374049
0.0395023
0.0414943
0.0434116
0.0452912
0.0471841
0.0491642
0.0513329
0.0538065
0.0566472
0.0597172
0.0627964
0.0656979
0.0682988
0.0705284
0.0723851
0.0738934
0.0120075
0.0282886
0.0318278
0.0332734
0.0347088
0.0363751
0.0381763
0.0400193
0.0418576
0.0436831
0.0455195
0.0474254
0.0495095
0.0519545
0.0550226
0.0588981
0.0630029
0.0669052
0.0703839
0.0733564
0.0757846
0.0777301
0.0791895
0.0280777
0.050017
0.0434667
0.0388125
0.0373522
0.0377304
0.0389404
0.0404911
0.0421735
0.0439142
0.0457157
0.0476452
0.0498648
0.0527194
0.056902
0.063355
0.0690084
0.0736644
0.0774292
0.0804723
0.0828668
0.0848324
0.086092
0.0852929
0.0878257
0.0584553
0.0446158
0.0396545
0.0387441
0.039452
0.0407845
0.042361
0.0440479
0.0458294
0.0477813
0.0501264
0.0534688
0.0596804
0.0756241
0.0820834
0.0859166
0.088571
0.0906177
0.0922588
0.0940152
0.0947452
0.0335455
0.0287415
0.0266961
0.0283133
0.0534228
0.0526291
0.0528069
0.0535114
0.0643762
0.0640307
0.0638608
0.0637352
0.0714938
0.0709967
0.0705363
0.0700517
0.076952
0.0763252
0.0756795
0.0749961
0.0815721
0.0808376
0.0800702
0.0792776
0.0856109
0.084826
0.0840066
0.0831646
0.0891984
0.0883982
0.0875724
0.0867332
0.0926995
0.0919188
0.0910924
0.09024
0.0965606
0.0957058
0.0948333
0.0939124
0.0977344
0.0970983
0.0962558
0.0954481
0.0967387
0.0960751
0.0953448
0.0946105
0.0962422
0.0956197
0.0949493
0.0942509
0.0958419
0.095269
0.0946694
0.0940311
0.0952536
0.0947546
0.0942396
0.093678
0.0943301
0.0939135
0.0934877
0.0930093
0.0929639
0.0926359
0.0923035
0.0919137
0.091133
0.0908949
0.0906553
0.0903568
0.0889009
0.0887484
0.0885962
0.0883857
0.0863833
0.0863056
0.086229
0.0860982
0.0837154
0.0836994
0.0836847
0.083621
0.0810201
0.0810518
0.0810849
0.0810766
0.0783952
0.0784633
0.0785326
0.0785683
0.0759083
0.0760036
0.0760994
0.0761693
0.0736026
0.07372
0.0738369
0.0739329
0.071501
0.0716373
0.0717719
0.0718904
0.0696177
0.0697727
0.0699251
0.070064
0.0679627
0.0681372
0.0683078
0.0684672
0.0665498
0.0667459
0.0669366
0.0671166
0.0653967
0.0656166
0.0658294
0.0660319
0.0645287
0.0647754
0.0650138
0.0652401
0.0639766
0.0642534
0.0645198
0.0647723
0.0637819
0.0640926
0.06439
0.0646699
0.0639985
0.0643464
0.0646769
0.064986
0.064699
0.0650867
0.0654521
0.0657903
0.065979
0.0664065
0.0668047
0.0671699
0.0679657
0.0684276
0.0688522
0.0692366
0.0708228
0.0713041
0.0717388
0.0721276
0.0747495
0.0752204
0.0756368
0.0760031
0.0799623
0.0803734
0.0807244
0.0810287
0.0866627
0.0869389
0.0871552
0.0873414
0.0949615
0.0950232
0.0950207
0.0949902
0.0394411
0.0457908
0.0489231
0.0508557
0.051773
0.0514586
0.0506302
0.0494535
0.047879
0.0459236
0.0437509
0.0413643
0.0387072
0.0357341
0.03243
0.0287004
0.0240603
0.0175376
0.00818721
0.0549063
0.0552664
0.0557076
0.0561492
0.0562455
0.0556438
0.0546209
0.0532111
0.0514111
0.049228
0.0467796
0.0441236
0.0412291
0.0381012
0.0347319
0.0308497
0.0255848
0.0178981
0.00795528
0.0633064
0.0622239
0.0614427
0.0608602
0.0602126
0.0593031
0.0580602
0.0564662
0.0545066
0.052189
0.0495857
0.046754
0.0436752
0.0403431
0.0367617
0.0326925
0.0274245
0.0195347
0.00851019
0.0690934
0.0675745
0.0662729
0.0651546
0.0640361
0.0627355
0.0611811
0.0593386
0.0571923
0.054746
0.0520305
0.0490733
0.0458599
0.0423612
0.0385493
0.0342605
0.0290122
0.0218687
0.0099067
0.0737833
0.0720544
0.0704861
0.0690567
0.0676222
0.0660098
0.0641617
0.0620584
0.0597058
0.0571068
0.0542668
0.0511849
0.047839
0.0441781
0.0401271
0.0355514
0.0301728
0.0233804
0.0114147
0.077922
0.0760574
0.0743206
0.0726761
0.070999
0.0691453
0.0670564
0.0647337
0.0621948
0.0594494
0.0564927
0.0533044
0.0498452
0.0460398
0.0417773
0.0369172
0.0312526
0.0242774
0.0119644
0.0817423
0.0797907
0.077939
0.0761426
0.0742865
0.0722454
0.0699671
0.0674614
0.0647622
0.0618915
0.0588449
0.0555941
0.052078
0.0481833
0.0437679
0.0386848
0.0327212
0.0253805
0.0122775
0.0853276
0.0833655
0.0814571
0.0795897
0.0776444
0.0754865
0.0730588
0.0703906
0.0675545
0.0645914
0.0614939
0.0582377
0.0547397
0.0508217
0.0462861
0.0410701
0.0348485
0.0271221
0.0127086
0.0888046
0.0868483
0.084972
0.0831769
0.0812894
0.0791091
0.0765516
0.0737052
0.0707509
0.0677538
0.0646425
0.061376
0.0578598
0.0538897
0.0491971
0.0440565
0.0371582
0.0269317
0.0119496
0.0922944
0.0903259
0.0885488
0.087037
0.0854345
0.0833559
0.0805953
0.0774046
0.0742517
0.0712645
0.0682506
0.0650948
0.061353
0.0569712
0.0516074
0.0446151
0.0354851
0.0246661
0.0111596
0.0940973
0.0922028
0.0905812
0.089245
0.0878388
0.085924
0.0830628
0.0796806
0.0765204
0.0737156
0.0706381
0.066999
0.0626744
0.0576053
0.0511549
0.0431799
0.0346729
0.0248894
0.0115904
0.0934193
0.0916787
0.0899874
0.0883668
0.086689
0.0846225
0.0820146
0.0790696
0.076173
0.0733676
0.0700356
0.0659346
0.0612358
0.0559358
0.0498883
0.0432334
0.035834
0.0266537
0.0126374
0.0930606
0.0912601
0.0893954
0.0875121
0.0855308
0.0832934
0.0807535
0.0779955
0.0751575
0.0721798
0.0687546
0.0647239
0.0602734
0.0555175
0.0503652
0.0446498
0.0378795
0.0288318
0.0136615
0.0928888
0.0910549
0.0890848
0.0870121
0.0848521
0.0825687
0.0801046
0.0774543
0.0746249
0.0715534
0.0681549
0.064437
0.0604755
0.0562509
0.0516107
0.0462858
0.0397187
0.0306091
0.0144876
0.0926132
0.0908125
0.0888139
0.0866775
0.0844776
0.0822404
0.0799024
0.0773825
0.0746143
0.0715668
0.0682817
0.0648089
0.0611393
0.0571684
0.0527105
0.0474916
0.0409788
0.0318358
0.0151012
0.0920388
0.090315
0.0883796
0.0862921
0.0841424
0.0819767
0.0797454
0.0773468
0.0746849
0.0717424
0.0685752
0.0652276
0.0616639
0.0577604
0.0533432
0.048157
0.0416948
0.0325935
0.0155255
0.0910512
0.0894418
0.0876254
0.0856553
0.0836064
0.0815235
0.0793725
0.0770628
0.0745078
0.0716819
0.0686199
0.0653447
0.0618163
0.0579293
0.0535329
0.0483914
0.0420168
0.0330251
0.015786
0.0896162
0.0881474
0.0864801
0.0846578
0.0827345
0.0807452
0.0786667
0.0764314
0.07397
0.0712532
0.0682902
0.0650838
0.0615962
0.0577428
0.0533943
0.0483313
0.0420727
0.033215
0.0159085
0.0877705
0.0864586
0.0849545
0.0832923
0.0815072
0.0796238
0.0776268
0.0754693
0.0730998
0.0704886
0.0676277
0.0645061
0.0610874
0.0573011
0.0530317
0.0480682
0.0419343
0.0332169
0.0159146
0.0856063
0.0844565
0.0831201
0.0816215
0.0799817
0.0782174
0.0763179
0.0742516
0.0719808
0.0694781
0.0667263
0.0637059
0.0603802
0.0566853
0.0525127
0.0476558
0.0416408
0.033055
0.0158229
0.0832407
0.0822498
0.0810788
0.0797419
0.0782505
0.0766153
0.0748282
0.072867
0.0707039
0.0683142
0.0656766
0.0627664
0.0595456
0.0559524
0.0518806
0.0471253
0.0412181
0.0327595
0.0156552
0.0807963
0.0799528
0.0789373
0.0777555
0.0764109
0.0749093
0.0732435
0.0713967
0.069347
0.067072
0.0645488
0.0617495
0.0586344
0.0551415
0.0511647
0.0465016
0.0406914
0.0323543
0.0154302
0.0783743
0.0776631
0.076789
0.0757522
0.0745487
0.0731792
0.0716366
0.0699065
0.0679704
0.0658073
0.0633934
0.0606991
0.0576829
0.0542819
0.0503903
0.0458085
0.0400863
0.0318723
0.0151617
0.0760483
0.075454
0.0747077
0.0738037
0.0727313
0.0714873
0.0700634
0.0684463
0.066619
0.0645609
0.0622479
0.0596488
0.056721
0.0534008
0.0495832
0.0450717
0.0394289
0.0313341
0.0148708
0.0738698
0.0733801
0.0727492
0.0719642
0.0710107
0.0698821
0.0685684
0.0670564
0.0653291
0.0633663
0.0611431
0.0586275
0.0557762
0.0525251
0.0487709
0.0443224
0.0387543
0.0307767
0.0145782
0.0718782
0.071481
0.0709523
0.0702732
0.0694261
0.0684014
0.0671876
0.0657705
0.0641331
0.0622548
0.0601102
0.0576666
0.0548804
0.0516881
0.0479881
0.0435949
0.0380967
0.0302379
0.0142936
0.0700973
0.0697829
0.0693454
0.0687606
0.0680084
0.0670767
0.0659523
0.0646202
0.0630629
0.0612591
0.0591831
0.0568017
0.0540712
0.0509288
0.0472754
0.0429313
0.0374969
0.0297468
0.0140465
0.0685447
0.0683069
0.0679521
0.0674523
0.0667854
0.0659374
0.0648935
0.0636379
0.0621525
0.0604155
0.0584003
0.0560737
0.0533916
0.0502921
0.0466784
0.0423759
0.0369967
0.0293406
0.0138387
0.0672377
0.0670732
0.0667955
0.066374
0.0657854
0.0650139
0.0640439
0.0628588
0.0614397
0.0597641
0.057805
0.0555284
0.0528899
0.0498278
0.0462469
0.0419772
0.0366391
0.0290522
0.0136965
0.0661977
0.0661054
0.0659016
0.0655542
0.065039
0.0643395
0.0634393
0.0623212
0.0609656
0.0593496
0.0574449
0.0552166
0.0526192
0.0495904
0.0460353
0.0417859
0.0364696
0.0289183
0.0136218
0.0654515
0.0654319
0.0653007
0.065025
0.0645807
0.0639508
0.0631187
0.0620669
0.0607754
0.05922
0.0573716
0.0551933
0.0526375
0.0496396
0.046103
0.0418596
0.0365383
0.0289753
0.013642
0.065032
0.0650871
0.0650286
0.0648237
0.0644493
0.0638886
0.0631252
0.0621416
0.0609173
0.0594275
0.057641
0.0555183
0.0530083
0.050042
0.0465179
0.0422632
0.0369039
0.0292704
0.0137628
0.0649805
0.0651131
0.0651278
0.0649935
0.0646888
0.0641981
0.0635057
0.0625945
0.0614439
0.0600279
0.0583132
0.0562569
0.0538024
0.0508732
0.0473592
0.0430769
0.0376396
0.02986
0.0140223
0.06535
0.0655616
0.0656491
0.0655846
0.0653497
0.0649303
0.0643124
0.0634798
0.0624119
0.0610818
0.059454
0.0574809
0.055099
0.0522212
0.0487226
0.0443992
0.0388426
0.0308254
0.0144414
0.066207
0.066496
0.0666537
0.0666568
0.0664904
0.0661436
0.0656042
0.0648576
0.0638838
0.0626554
0.0611346
0.0592692
0.0569872
0.054188
0.0507225
0.0463577
0.040642
0.0322791
0.015088
0.0676352
0.0679948
0.0682158
0.0682808
0.0681799
0.0679053
0.067448
0.0667952
0.0659283
0.0648201
0.0634313
0.0617058
0.0595633
0.0568857
0.0534961
0.0491145
0.0432173
0.0343905
0.0160324
0.0697383
0.0701535
0.0704246
0.0705412
0.0704989
0.0702941
0.0699209
0.069369
0.0686216
0.0676525
0.0664227
0.0648741
0.0629216
0.0604301
0.0571925
0.0528669
0.0468138
0.0374147
0.0174405
0.0726424
0.0730868
0.0733864
0.0735383
0.0735435
0.0734025
0.0731125
0.0726658
0.0720468
0.0712303
0.0701814
0.0688442
0.0671343
0.0649116
0.0619438
0.0578246
0.0517515
0.0417464
0.019582
0.0764928
0.076928
0.0772256
0.0773898
0.0774266
0.0773396
0.0771285
0.0767858
0.0762936
0.075623
0.0747556
0.073637
0.0722145
0.0703464
0.067801
0.0641483
0.0584145
0.0480423
0.0231238
0.0814458
0.081825
0.0820838
0.0822325
0.0822811
0.0822351
0.082094
0.0818461
0.0814542
0.0808536
0.0801126
0.079153
0.0780404
0.0765946
0.0746318
0.0718237
0.0672062
0.0575084
0.0297231
0.0876537
0.0879356
0.0881186
0.0882237
0.0882637
0.0882442
0.0881621
0.0879915
0.0876233
0.0867451
0.0859581
0.0849393
0.0841936
0.0832091
0.0819455
0.0804453
0.0784996
0.0722824
0.0444906
0.0952606
0.0954286
0.0955066
0.0955463
0.0955623
0.0955579
0.0955285
0.0954353
0.0950044
0.0922393
0.0911063
0.0895751
0.0894725
0.0889477
0.0883297
0.0883658
0.0923542
0.0934261
0.087172
)
;

boundaryField
{
    leftWall
    {
        type            kqRWallFunction;
        value           nonuniform List<scalar> 
50
(
0.000974826
0.00233137
0.0032037
0.00392538
0.00455396
0.00515428
0.00580566
0.00658964
0.00762694
0.00951041
0.0119258
0.0148419
0.0185414
0.0236697
0.0279321
0.029066
0.0279897
0.0281841
0.0296271
0.0223983
0.0194635
0.0208839
0.0188394
0.0168752
0.0155552
0.0148183
0.0143439
0.0139857
0.0136509
0.0132896
0.0128825
0.0124282
0.0119336
0.0114098
0.0108701
0.0103293
0.0098042
0.00931296
0.00887415
0.0085047
0.00821636
0.00801362
0.00789235
0.00784321
0.00786392
0.00801117
0.00865363
0.0120075
0.0280777
0.0852929
)
;
    }
    rightWall
    {
        type            kqRWallFunction;
        value           nonuniform List<scalar> 
50
(
0.00152424
0.00361985
0.00491291
0.00610847
0.00749312
0.00895278
0.00865165
0.0084069
0.00818721
0.00795528
0.00851019
0.0099067
0.0114147
0.0119644
0.0122775
0.0127086
0.0119496
0.0111596
0.0115904
0.0126374
0.0136615
0.0144876
0.0151012
0.0155255
0.015786
0.0159085
0.0159146
0.0158229
0.0156552
0.0154302
0.0151617
0.0148708
0.0145782
0.0142936
0.0140465
0.0138387
0.0136965
0.0136218
0.013642
0.0137628
0.0140223
0.0144414
0.015088
0.0160324
0.0174405
0.019582
0.0231238
0.0297231
0.0444906
0.087172
)
;
    }
    lowerWall
    {
        type            kqRWallFunction;
        value           nonuniform List<scalar> 
62
(
0.000974826
0.00248544
0.00376966
0.00482536
0.00571317
0.00647737
0.00714837
0.00774749
0.00828759
0.00877462
0.00921207
0.0096122
0.0100153
0.0103788
0.0106645
0.0108442
0.0108861
0.0107467
0.0103565
0.00959824
0.00826405
0.00598113
0.00180083
0.00180083
0.0051073
0.00766577
0.0100272
0.0123167
0.0147992
0.01809
0.0245321
0.0335455
0.0287415
0.0266961
0.0283133
0.00177482
0.00513518
0.00746923
0.00965207
0.0121849
0.0158238
0.0213199
0.029098
0.00177482
0.00596807
0.00835835
0.00969221
0.0103977
0.0107589
0.0107759
0.0104764
0.0103964
0.0102239
0.00979474
0.00893509
0.00772149
0.00710642
0.00692815
0.00620587
0.00525952
0.00384132
0.00152424
)
;
    }
    atmosphere
    {
        type            inletOutlet;
        inletValue      uniform 0.1;
        value           nonuniform List<scalar> 
46
(
0.1
0.1
0.0584553
0.0446158
0.0396545
0.0387441
0.039452
0.0407845
0.042361
0.0440479
0.0458294
0.0477813
0.0501264
0.0534688
0.0596804
0.1
0.1
0.1
0.1
0.1
0.1
0.1
0.1
0.1
0.1
0.1
0.1
0.1
0.1
0.1
0.1
0.1
0.1
0.1
0.1
0.1
0.0922393
0.0911063
0.0895751
0.0894725
0.0889477
0.0883297
0.0883658
0.1
0.1
0.1
)
;
    }
    defaultFaces
    {
        type            empty;
    }
}


// ************************************************************************* //
