/*--------------------------------*- C++ -*----------------------------------*\
  =========                 |
  \\      /  F ield         | OpenFOAM: The Open Source CFD Toolbox
   \\    /   O peration     | Website:  https://openfoam.org
    \\  /    A nd           | Version:  13
     \\/     M anipulation  |
\*---------------------------------------------------------------------------*/
FoamFile
{
    format      ascii;
    class       volScalarField;
    location    "2.35";
    object      nut;
}
// * * * * * * * * * * * * * * * * * * * * * * * * * * * * * * * * * * * * * //

dimensions      [0 2 -1 0 0 0 0];

internalField   nonuniform List<scalar> 
2268
(
2.05801e-05
3.32862e-05
4.1157e-05
4.66979e-05
5.09578e-05
5.44028e-05
5.72691e-05
5.96896e-05
6.17363e-05
6.34478e-05
6.48487e-05
6.59426e-05
6.6981e-05
6.7962e-05
6.87065e-05
6.91352e-05
6.9162e-05
6.86552e-05
6.73808e-05
6.48992e-05
6.03158e-05
5.15156e-05
2.8319e-05
6.77535e-05
0.000260618
0.000372206
0.000448007
0.000505166
0.000550468
0.000587021
0.00061643
0.000639528
0.000656844
0.000668746
0.000675147
0.000675897
0.000674163
0.00067063
0.000665112
0.000657028
0.000645002
0.000626002
0.000594131
0.000537668
0.000426333
0.000101742
7.95029e-05
0.000415796
0.000663336
0.000846149
0.000988514
0.00110241
0.00119395
0.00126651
0.00132206
0.00136197
0.00138757
0.00140028
0.00140201
0.0013971
0.00138668
0.00137068
0.00134803
0.00131557
0.00126591
0.00118399
0.00103847
0.000752213
0.000124817
8.81018e-05
0.000517654
0.000880574
0.00116508
0.00139284
0.00157734
0.00172646
0.00184503
0.00193612
0.00200207
0.00204519
0.00206831
0.00207489
0.00206991
0.00205458
0.00202883
0.00199092
0.00193568
0.00185097
0.00171154
0.00146504
0.000995512
0.000142688
9.50829e-05
0.000595685
0.0010601
0.0014372
0.00174358
0.00199338
0.002196
0.00235773
0.0024829
0.00257483
0.00263675
0.00267238
0.00268605
0.00268302
0.0026645
0.00263013
0.00257738
0.002499
0.0023783
0.0021801
0.0018321
0.00118857
0.000157867
0.000101503
0.00066441
0.00122442
0.00168653
0.00206349
0.002371
0.00262051
0.00282005
0.00297537
0.00309089
0.00317064
0.00321888
0.00324032
0.00324032
0.00321986
0.00317813
0.00311169
0.00301141
0.0028566
0.00260344
0.00216134
0.0013572
0.000172427
0.000108289
0.00073367
0.00138773
0.00192802
0.00236707
0.002724
0.00301297
0.00324409
0.00342462
0.00356011
0.00365535
0.00371497
0.00374376
0.00374713
0.00372562
0.00367785
0.00359951
0.00347996
0.00329554
0.00299615
0.00247589
0.00152832
0.00018972
0.000116108
0.000815813
0.00156126
0.00217141
0.00266345
0.00306138
0.00338242
0.00363885
0.00383942
0.00399081
0.00409852
0.00416743
0.00420231
0.00420891
0.00418694
0.0041345
0.00404653
0.0039114
0.00370402
0.00337181
0.00280173
0.0017479
0.000219961
2.81478e-05
5.09405e-05
6.01663e-05
6.46235e-05
6.67015e-05
6.77241e-05
6.77195e-05
6.6757e-05
6.68325e-05
6.66139e-05
6.54496e-05
6.24171e-05
5.81961e-05
5.63328e-05
5.59878e-05
5.28955e-05
4.85653e-05
4.10665e-05
2.53749e-05
0.000111894
0.000419917
0.000553957
0.000611351
0.00062006
0.000619247
0.000609525
0.000581004
0.000590235
0.000610806
0.000610437
0.000585072
0.000536138
0.000523266
0.000508317
0.00047464
0.000414439
0.000299039
9.23307e-05
0.000134329
0.000689128
0.00101489
0.00117664
0.00122494
0.0012128
0.00119194
0.00116688
0.00116931
0.0011821
0.00117343
0.0011306
0.00106126
0.00100983
0.000955302
0.000871225
0.000729973
0.000479356
0.000108118
0.000152361
0.000844097
0.0013558
0.00164481
0.00175437
0.00174303
0.00171778
0.0016961
0.00168317
0.00166803
0.00164216
0.00158843
0.00150511
0.00141599
0.00131381
0.00117664
0.000965956
0.000621226
0.000121111
0.000171061
0.000922065
0.00160607
0.00202551
0.00221137
0.00222123
0.00219548
0.00216899
0.00213588
0.00208092
0.00203435
0.00196994
0.00187331
0.00175248
0.00160545
0.00141808
0.00115043
0.000744635
0.000135874
0.000195026
0.000958109
0.00179661
0.00234581
0.00260712
0.00265477
0.00263489
0.0025986
0.00254325
0.00244739
0.00237045
0.00228988
0.00218165
0.00203376
0.00184752
0.00161241
0.00128861
0.00081924
0.000149166
0.000226464
0.00099793
0.00196807
0.00262988
0.00295551
0.00304347
0.00303416
0.00298935
0.00291373
0.00278968
0.0026801
0.00256934
0.00244397
0.00227371
0.00205481
0.00177254
0.00138811
0.000850701
0.000143678
0.000263998
0.00112068
0.00218326
0.00290345
0.00327073
0.00339162
0.00339372
0.00334204
0.00324931
0.00310742
0.00297023
0.00282873
0.00267179
0.00248125
0.0022358
0.00191023
0.00146356
0.000846501
0.00014038
0.000125844
0.000977218
0.00184786
0.00254931
0.00310894
0.00355817
0.00391887
0.00420662
0.00443246
0.00460467
0.00472991
0.00481329
0.00485878
0.00487028
0.00484872
0.00479157
0.00469297
0.00454046
0.00430932
0.00395119
0.00337387
0.00242782
0.00104738
0.000142003
0.00125574
0.00230465
0.00310083
0.00371857
0.0042065
0.00459399
0.00490113
0.00514175
0.00532614
0.00546187
0.00555424
0.00560669
0.00562027
0.00559786
0.0055371
0.00543247
0.00527296
0.00503904
0.00469801
0.00419754
0.00347514
0.00253523
0.000160354
0.00151849
0.00275018
0.00363355
0.0042946
0.00480467
0.00520362
0.00551709
0.00576192
0.00595027
0.00609051
0.00618799
0.00624569
0.00626428
0.00624408
0.0061852
0.00608346
0.00593062
0.00571384
0.00541619
0.00501648
0.00450557
0.00393475
0.000180145
0.00175621
0.00315824
0.00412376
0.00482097
0.00534486
0.00574758
0.0060609
0.00630466
0.00649318
0.00663538
0.00673632
0.00679884
0.00682378
0.00681026
0.00675757
0.0066652
0.00652761
0.00633777
0.00609018
0.00578064
0.00542031
0.00505838
0.000200805
0.00196409
0.00352183
0.00456357
0.00529206
0.00582514
0.0062275
0.00653724
0.00677774
0.00696521
0.00710883
0.00721335
0.00728102
0.00731254
0.0073077
0.00726638
0.00718768
0.00707066
0.00691306
0.00671483
0.00647984
0.00622327
0.00598139
0.000223417
0.00212622
0.00382438
0.00493408
0.00568995
0.00623077
0.00663167
0.0069374
0.00717572
0.00736441
0.00751213
0.00762265
0.00769772
0.0077382
0.00774483
0.00771859
0.00765965
0.00756758
0.00744311
0.00728989
0.00711491
0.00693195
0.00676379
0.000241902
0.00224129
0.00403729
0.00520011
0.00598348
0.00653637
0.00694159
0.00725031
0.00749386
0.00769063
0.0078484
0.00796958
0.00805538
0.0081073
0.00812739
0.00811765
0.00807924
0.00801322
0.00792209
0.00780998
0.00768268
0.0075495
0.00742394
0.000244143
0.00229985
0.00413595
0.00533477
0.00615241
0.00673131
0.0071521
0.00747424
0.00773356
0.0079479
0.0081232
0.00826033
0.00835993
0.00842416
0.0084571
0.00846269
0.00844347
0.00840125
0.00833879
0.00825992
0.008169
0.00807103
0.00797113
0.000236283
0.00225771
0.00412534
0.00535094
0.00620378
0.00681576
0.00726108
0.00760817
0.007894
0.00813569
0.00833705
0.00849673
0.00861416
0.00869151
0.00873497
0.00875229
0.00874931
0.00872779
0.00868971
0.00863789
0.00857502
0.00850267
0.00841884
0.000233692
0.00198417
0.00405112
0.00529116
0.00615318
0.00678332
0.00726566
0.00765177
0.00797386
0.00825296
0.00848949
0.00867892
0.00881942
0.00891191
0.00896374
0.00898719
0.00899645
0.00899215
0.00897538
0.00894745
0.00890895
0.00886041
0.00878675
0.000258838
0.00198675
0.00372051
0.00499551
0.0059135
0.00660181
0.00714698
0.00758519
0.00795233
0.00827085
0.00854016
0.00875445
0.00891374
0.00902636
0.00910349
0.00914757
0.00917162
0.00918134
0.00917934
0.0091633
0.00913742
0.00909568
0.00903459
0.000220022
0.00164494
0.00333435
0.00462585
0.00560873
0.00636296
0.00696567
0.00745726
0.00786716
0.00821468
0.00850579
0.00874227
0.00892805
0.00906977
0.00917539
0.00924898
0.00929879
0.00932838
0.00934038
0.00932992
0.00930297
0.00925924
0.00919859
0.000199321
0.00162101
0.00317334
0.00439559
0.00535707
0.00613519
0.00677728
0.00731177
0.00776126
0.00814158
0.00846109
0.00872317
0.00892931
0.00908596
0.0092068
0.00930105
0.00937339
0.00942381
0.00945044
0.00945125
0.00942757
0.00938827
0.00933369
0.000212144
0.0016549
0.00306294
0.00419794
0.00513273
0.00591653
0.00658362
0.00715367
0.00764047
0.00805224
0.00839736
0.00868105
0.00890648
0.00908081
0.00921767
0.00932925
0.00941844
0.00948326
0.0095209
0.00953067
0.00951783
0.00948917
0.00944267
0.000202712
0.00160257
0.00292483
0.00401018
0.00492309
0.0057117
0.00639684
0.00699126
0.00750409
0.00794197
0.00830807
0.008609
0.0088512
0.00904456
0.00920118
0.0093301
0.00943432
0.00951229
0.00956171
0.00958334
0.00958233
0.00956407
0.0095278
0.00018969
0.00150502
0.00277706
0.00383006
0.00473676
0.00553126
0.00622779
0.00683618
0.00736411
0.00781626
0.00819827
0.00851397
0.00877196
0.00898337
0.00915876
0.00930502
0.00942429
0.00951556
0.00957778
0.00961246
0.00962418
0.00961728
0.00959175
0.000178537
0.0014081
0.00263516
0.00367966
0.00458814
0.00538589
0.00608595
0.00669806
0.00723038
0.00768877
0.00807819
0.00840546
0.00867802
0.00890589
0.00909791
0.00925951
0.00939248
0.00949655
0.00957168
0.00961974
0.00964465
0.00964975
0.0096356
0.000172386
0.00132631
0.00253232
0.00357659
0.00448514
0.00527997
0.00597531
0.00658236
0.0071106
0.00756762
0.00795957
0.00829311
0.0085764
0.00881764
0.00902309
0.00919738
0.00934224
0.0094581
0.00954562
0.00960671
0.00964471
0.00966219
0.00965988
0.000168592
0.00128449
0.00247924
0.00352101
0.00442392
0.0052092
0.00589317
0.00648894
0.00700751
0.00745793
0.00784774
0.00818384
0.00847325
0.00872285
0.00893804
0.00912234
0.00927715
0.00940353
0.00950247
0.00957582
0.00962636
0.00965611
0.00966576
0.000166064
0.00127283
0.00246289
0.00349888
0.0043914
0.00516282
0.00583168
0.00641302
0.00691917
0.00736028
0.00774474
0.00807976
0.00837164
0.00862594
0.00884717
0.00903837
0.00920117
0.0093367
0.00944585
0.00953037
0.00959259
0.00963405
0.00965532
0.000164033
0.00127523
0.00246367
0.00349187
0.00437183
0.005128
0.00578106
0.00634759
0.00684099
0.00727212
0.00764987
0.00798152
0.0082731
0.00852941
0.00875418
0.00895012
0.00911896
0.00926184
0.00937979
0.00947424
0.00954703
0.00959932
0.00963154
0.000162007
0.00127952
0.00246572
0.0034849
0.00435205
0.00509377
0.00573242
0.00628573
0.0067678
0.00718991
0.00756114
0.00788879
0.00817868
0.00843535
0.00866206
0.00886127
0.00903469
0.00918354
0.00930883
0.00941174
0.00949372
0.00955572
0.00959786
0.00015974
0.00127906
0.00245974
0.00346867
0.00432362
0.00505276
0.0056795
0.00622224
0.00669544
0.00711053
0.00747661
0.00780088
0.00808905
0.00834549
0.00857338
0.00877501
0.00895204
0.00910575
0.00923711
0.00934712
0.00943694
0.00950732
0.00955821
0.000157145
0.00127127
0.00244195
0.00343927
0.00428282
0.0050015
0.00561912
0.00615428
0.00662147
0.00703204
0.00739495
0.00771729
0.00800461
0.00826118
0.0084902
0.00869393
0.00887407
0.00903184
0.00916826
0.00928421
0.00938063
0.00945811
0.00951652
0.000154222
0.00125603
0.00241231
0.00339673
0.0042296
0.00493978
0.00555088
0.00608128
0.00654522
0.0069538
0.00731574
0.00763791
0.00792571
0.00818334
0.00841397
0.00861994
0.00880301
0.00896442
0.0091052
0.00922616
0.0093281
0.00941154
0.00947634
0.000151014
0.00123453
0.00237294
0.00334354
0.00416641
0.00486974
0.0054765
0.00600451
0.00646757
0.00687638
0.00723934
0.00756306
0.00785276
0.00811254
0.00834555
0.00855421
0.00874031
0.00890519
0.00904987
0.00917518
0.0092818
0.00937024
0.00944037
0.00014759
0.00120863
0.00232713
0.0032836
0.00409718
0.00479497
0.00539903
0.00592645
0.00639041
0.00680115
0.0071667
0.00749336
0.00778617
0.0080491
0.00828527
0.00849713
0.00868652
0.00885487
0.00900322
0.00913239
0.00924305
0.00933569
0.00941024
0.00014404
0.00118048
0.00227857
0.00322131
0.00402638
0.00471961
0.00532207
0.00585002
0.00631602
0.00672978
0.00709893
0.00742947
0.00772623
0.00799304
0.00823297
0.00844847
0.00864141
0.00881328
0.00896514
0.00909783
0.009212
0.00930816
0.00938632
0.00014047
0.00115223
0.00223087
0.00316083
0.00395816
0.00464748
0.0052489
0.00577793
0.00624647
0.00666373
0.00703694
0.00737181
0.00767293
0.00794402
0.00818807
0.00840747
0.00860412
0.0087795
0.00893471
0.00907057
0.00918773
0.00928674
0.00936772
0.000137009
0.00112582
0.00218695
0.00310532
0.00389551
0.0045812
0.00518172
0.00571187
0.00618297
0.00660376
0.00698106
0.00732031
0.00762588
0.00790135
0.0081496
0.00837297
0.0085733
0.00875206
0.00891032
0.0090489
0.00916843
0.00926954
0.00935246
0.000133798
0.00110258
0.00214837
0.00305612
0.00383948
0.00452153
0.00512098
0.00565206
0.00612552
0.00654963
0.00693084
0.00727431
0.00758421
0.00786396
0.00811633
0.00834355
0.00854738
0.00872919
0.00888999
0.00903058
0.00915162
0.00925384
0.00933765
0.000130976
0.00108283
0.00211478
0.00301227
0.00378871
0.00446695
0.0050652
0.00559709
0.00607281
0.00650012
0.00688511
0.00723265
0.00754675
0.00783065
0.00808699
0.00831784
0.0085248
0.00870907
0.00887159
0.00901313
0.00913444
0.00923643
0.00931977
0.000128657
0.00106578
0.00208381
0.00297043
0.00373955
0.0044139
0.00501115
0.00554418
0.00602248
0.00645326
0.0068422
0.00719393
0.00751226
0.00780032
0.00806052
0.00829472
0.00850424
0.00869007
0.00885304
0.00899397
0.00911385
0.00921385
0.00929506
0.000126905
0.00104966
0.00205153
0.00292558
0.00368676
0.00435753
0.00495463
0.00548986
0.00597177
0.00640688
0.00680045
0.00715687
0.00747983
0.00777225
0.00803634
0.00827356
0.00848484
0.00867088
0.00883245
0.00897063
0.00908681
0.00918273
0.00925995
0.000125719
0.00103237
0.00201351
0.00287208
0.00362459
0.00429267
0.00489139
0.00543083
0.00591821
0.00635921
0.00675864
0.00712073
0.00744905
0.00774638
0.00801453
0.00825437
0.00846622
0.00865045
0.00880804
0.00894067
0.00905055
0.00914015
0.00921168
0.00012506
0.00101219
0.00196577
0.00280466
0.00354775
0.00421486
0.00481804
0.00536471
0.00586025
0.00630933
0.00671635
0.00708548
0.00742028
0.00772331
0.0079958
0.00823763
0.00844821
0.00862774
0.00877796
0.00890184
0.00900286
0.0090844
0.00914919
0.000124957
0.000989185
0.00190556
0.00271881
0.00345192
0.00412091
0.00473268
0.00529063
0.0057977
0.00625746
0.00667408
0.00705185
0.00739448
0.00770425
0.00798139
0.00822412
0.00843051
0.00860121
0.00874009
0.00885234
0.00894304
0.00901615
0.0090745
0.00012596
0.000968449
0.0018329
0.00261209
0.00333495
0.00400997
0.00463568
0.00520968
0.00573196
0.00620505
0.0066332
0.00702118
0.00737305
0.00769072
0.00797275
0.00821451
0.00841213
0.00856878
0.00869278
0.00879229
0.00887368
0.00894035
0.00899426
0.000131221
0.000973192
0.00176217
0.00249205
0.00320137
0.00388597
0.00453097
0.00512563
0.00566629
0.00615474
0.00659576
0.00699507
0.0073574
0.00768421
0.0079714
0.0082095
0.0083919
0.00852966
0.00863817
0.00872743
0.00880393
0.00886852
0.00892118
0.000155308
0.00109971
0.00176806
0.0023998
0.00307271
0.00376217
0.00442812
0.00504568
0.00560604
0.00611029
0.00656423
0.00697501
0.00734844
0.00768559
0.00797881
0.00821152
0.00837307
0.00849297
0.00859171
0.00867647
0.00875396
0.00882057
0.00887383
0.000234789
0.00161022
0.00201886
0.00241998
0.00299118
0.00366298
0.00434316
0.0049807
0.00555842
0.00607628
0.00654119
0.00696193
0.00734574
0.00769365
0.00799466
0.00823314
0.00838573
0.00850252
0.0086002
0.00868147
0.00875907
0.00882481
0.00887468
0.000415774
0.00328402
0.0026273
0.00257964
0.00298192
0.00361219
0.00429443
0.00494319
0.00553136
0.00605737
0.0065288
0.00695564
0.00734626
0.00770094
0.00800641
0.00839553
0.00858797
0.0086957
0.00876977
0.00882212
0.00887431
0.00891658
0.00894473
0.000260671
0.000241914
0.000231061
0.000236037
0.00190577
0.00181125
0.00185214
0.00193785
0.00361204
0.0034971
0.00347248
0.00351995
0.00486541
0.0047825
0.00474904
0.00476161
0.00585586
0.00579765
0.00576429
0.00575475
0.00667065
0.00662256
0.00658681
0.00656278
0.00734595
0.00730117
0.00726168
0.00722711
0.00789957
0.00785496
0.00781187
0.00777023
0.00835083
0.00830558
0.00825928
0.00821227
0.00872136
0.00867399
0.00862445
0.00857271
0.00897729
0.0089338
0.00888367
0.0088317
0.00914241
0.00910056
0.00905405
0.00900426
0.00928049
0.00924245
0.00920002
0.00915324
0.00939541
0.00936164
0.00932373
0.00928094
0.00948829
0.0094596
0.00942691
0.00938904
0.00956064
0.00953747
0.00951044
0.0094781
0.00961315
0.00959564
0.00957445
0.00954789
0.00964616
0.00963429
0.00961886
0.00959806
0.00966063
0.00965422
0.00964431
0.009629
0.00965838
0.00965708
0.00965224
0.00964204
0.00964217
0.0096455
0.00964523
0.00963961
0.00961532
0.00962276
0.0096265
0.00962497
0.00958168
0.00959269
0.00959989
0.00960192
0.00954511
0.00955914
0.00956925
0.00957428
0.00950923
0.00952577
0.00953827
0.00954578
0.00947682
0.00949541
0.00950988
0.00951946
0.00944963
0.00946992
0.00948603
0.00949732
0.00942808
0.00944975
0.00946719
0.0094799
0.00941133
0.00943408
0.00945257
0.00946642
0.00939731
0.0094208
0.00944004
0.00945473
0.00938303
0.00940687
0.0094265
0.0094417
0.0093648
0.00938848
0.00940807
0.0094234
0.00933872
0.0093617
0.00938077
0.0093958
0.0093012
0.00932292
0.009341
0.00935537
0.00924968
0.00926973
0.00928654
0.00930004
0.0091836
0.0092019
0.00921741
0.0092301
0.00910577
0.00912264
0.00913718
0.00914937
0.0090236
0.00903969
0.00905378
0.0090659
0.00894992
0.00896581
0.00897977
0.00899191
0.00890203
0.00891745
0.00893077
0.00894227
0.00889894
0.00891178
0.00892275
0.00893212
0.00895609
0.00896187
0.00896749
0.00897374
0.000836375
0.00177246
0.00268608
0.00335593
0.00373606
0.00388819
0.00390553
0.00384593
0.0037318
0.00356918
0.00339451
0.00320781
0.00300147
0.0027686
0.00247757
0.00208788
0.00155494
0.000831467
0.000138637
0.00234067
0.00296919
0.00357055
0.00403491
0.00432187
0.00444924
0.0044598
0.00438599
0.00424846
0.00406144
0.00384773
0.00361286
0.00335438
0.00306663
0.00272432
0.00228553
0.00167777
0.000861863
0.000138535
0.00371289
0.00408134
0.00443991
0.00471791
0.00488888
0.00495929
0.00493769
0.00483987
0.00467851
0.00446688
0.0042196
0.00394367
0.00363976
0.00330366
0.00291874
0.00245036
0.00184258
0.00100057
0.000145485
0.00484585
0.00503574
0.00522459
0.00536326
0.00543371
0.00543519
0.00536735
0.00523516
0.00504473
0.00480522
0.00452606
0.00421336
0.00386917
0.00349116
0.00306953
0.00258105
0.00198166
0.00118289
0.0001593
0.00577281
0.00584518
0.00591594
0.00595302
0.00594272
0.00588074
0.00576423
0.00559309
0.00537
0.00510005
0.00478906
0.00444159
0.0040599
0.00364312
0.00318541
0.00267209
0.00206818
0.00127092
0.000172665
0.00653937
0.00653206
0.00652042
0.00648363
0.00641067
0.00629578
0.00613499
0.00592678
0.00567187
0.00537276
0.00503268
0.0046545
0.00423981
0.00378795
0.00329473
0.00275
0.00212544
0.00131722
0.000179119
0.00717633
0.0071149
0.00704648
0.00695704
0.00683736
0.0066811
0.00648411
0.00624459
0.00596262
0.00563926
0.00527582
0.00487352
0.00443266
0.00395149
0.00342521
0.00284504
0.00218664
0.0013533
0.000182779
0.00770257
0.00760725
0.00750125
0.00737617
0.00722399
0.00703796
0.00681401
0.0065508
0.00624878
0.00590815
0.00552829
0.00510847
0.00464698
0.00413988
0.00357972
0.0029577
0.00224887
0.00137116
0.000183227
0.00813288
0.00801675
0.00788922
0.00774336
0.00757137
0.00736623
0.00712389
0.0068441
0.00652893
0.00617778
0.00578672
0.00535223
0.00486964
0.00433024
0.00372007
0.00303415
0.0022342
0.00127711
0.000179819
0.00848302
0.00835301
0.00821276
0.00805695
0.00787655
0.0076618
0.00740658
0.00711278
0.00678661
0.00642703
0.00602656
0.00557959
0.00507262
0.00448533
0.00379056
0.00297212
0.00203942
0.00105236
0.00016776
0.00874234
0.00860304
0.00845329
0.00828966
0.00810452
0.00788688
0.0076247
0.00732173
0.00698824
0.00662359
0.00621331
0.00574308
0.00519486
0.00454629
0.00377531
0.00288442
0.00191785
0.000952676
0.000165033
0.00891788
0.00877844
0.00862212
0.00844875
0.00825505
0.00803124
0.00776869
0.00746756
0.00713263
0.0067641
0.00634414
0.0058541
0.00527828
0.00460172
0.00381599
0.00293253
0.00197696
0.00100361
0.000170207
0.0090692
0.00892957
0.00877
0.00859177
0.00839241
0.0081648
0.00790241
0.00760371
0.00727013
0.00689953
0.0064769
0.00598381
0.0054076
0.00473819
0.00397061
0.00310487
0.00214452
0.00111375
0.000177222
0.00920159
0.00906509
0.00890744
0.00872974
0.00853094
0.00830614
0.00804927
0.00775739
0.00743003
0.00706332
0.00664626
0.00616415
0.00560346
0.00495266
0.00420164
0.00333782
0.00234655
0.00123153
0.000183009
0.00931635
0.00918682
0.00903535
0.00886333
0.00867076
0.00845423
0.00820806
0.00792799
0.00761134
0.00725408
0.0068481
0.00638058
0.00583629
0.00520019
0.00445489
0.0035777
0.00254147
0.00133767
0.000187473
0.00941341
0.00929361
0.00915193
0.00898956
0.00880684
0.00860121
0.00836761
0.00810107
0.00779739
0.00745215
0.00705794
0.00660268
0.0060699
0.00544088
0.00469237
0.00379423
0.00271046
0.00142515
0.000190742
0.00949189
0.00938348
0.0092536
0.009103
0.00893173
0.00873768
0.00851633
0.00826248
0.00797122
0.00763726
0.00725291
0.00680607
0.00627969
0.00565189
0.00489544
0.00397472
0.00284815
0.00149578
0.000192877
0.00955098
0.00945455
0.00933703
0.00919863
0.00903891
0.00885587
0.00864542
0.00840244
0.00812157
0.00779679
0.00741974
0.00697799
0.00645403
0.00582458
0.00505921
0.0041186
0.00295724
0.00155174
0.000194079
0.00959063
0.00950601
0.00940047
0.00927367
0.00912469
0.00895151
0.00875034
0.00851622
0.00824357
0.00792575
0.00755382
0.007115
0.00659144
0.00595899
0.00518553
0.00422935
0.00304198
0.00159606
0.000194524
0.00961193
0.00953851
0.00944407
0.00932781
0.00918841
0.0090238
0.00883038
0.00860337
0.00833705
0.00802439
0.00765603
0.00721895
0.00669508
0.00605984
0.00528009
0.00431261
0.00310623
0.00162937
0.000194334
0.00961709
0.00955403
0.00946961
0.00936271
0.0092317
0.00907446
0.00888751
0.00866622
0.0084048
0.008096
0.00773019
0.0072942
0.00676991
0.00613249
0.00534829
0.00437292
0.00315308
0.0016538
0.000193646
0.00960932
0.00955562
0.00948009
0.00938141
0.00925773
0.00910685
0.00892538
0.00870876
0.00845122
0.00814536
0.00778142
0.00734618
0.00682149
0.00618245
0.00539515
0.00441449
0.00318555
0.00167002
0.000192553
0.00959238
0.00954694
0.00947918
0.00938772
0.00927049
0.00912517
0.00894841
0.00873573
0.00848134
0.0081778
0.00781526
0.00738047
0.00685532
0.00621495
0.00542539
0.00444116
0.00320641
0.0016807
0.000191194
0.00957004
0.00953189
0.00947096
0.00938584
0.00927429
0.00913387
0.00896125
0.00875197
0.00850023
0.00819856
0.00783707
0.00740249
0.00687674
0.00623508
0.00544356
0.00445648
0.00321751
0.00168497
0.000189765
0.00954598
0.00951424
0.00945937
0.00937983
0.00927331
0.00913728
0.00896834
0.00876205
0.0085126
0.00821244
0.00785164
0.0074169
0.0068902
0.00624689
0.0054532
0.00446368
0.00322178
0.00168512
0.000188271
0.00952341
0.00949726
0.00944768
0.00937306
0.00927102
0.00913892
0.00897333
0.00876972
0.00852226
0.00822333
0.0078629
0.00742765
0.00689956
0.0062541
0.00545775
0.00446541
0.00322097
0.00168298
0.000186726
0.00950441
0.00948305
0.00943808
0.00936778
0.00926975
0.00914123
0.0089787
0.00877759
0.00853194
0.00823406
0.00787381
0.00743776
0.00690792
0.00625986
0.00546034
0.00446478
0.00321775
0.00167905
0.000185355
0.00948966
0.0094724
0.0094314
0.00936492
0.00927049
0.00914529
0.00898568
0.00878699
0.00854316
0.00824634
0.00788626
0.00744938
0.00691763
0.00626671
0.00546368
0.00446449
0.00321466
0.00167533
0.00018414
0.00947835
0.00946457
0.00942701
0.00936392
0.00927281
0.00915078
0.0089941
0.00879798
0.00855622
0.00826078
0.00790119
0.00746373
0.00693027
0.00627654
0.0054699
0.00446689
0.00321384
0.00167315
0.000183355
0.00946839
0.00945749
0.00942289
0.00936286
0.00927493
0.00915612
0.00900262
0.0088095
0.00857038
0.008277
0.00791862
0.0074813
0.00694672
0.00629061
0.00548059
0.0044737
0.00321709
0.00167398
0.000182967
0.00945654
0.00944795
0.00941591
0.00935875
0.00927403
0.00915873
0.00900894
0.00881961
0.00858414
0.00829398
0.00793807
0.00750209
0.00696744
0.00630976
0.00549684
0.00448624
0.00322564
0.0016785
0.000183213
0.00943887
0.00943206
0.00940229
0.00934799
0.00926676
0.00915556
0.00901041
0.0088261
0.00859578
0.00831058
0.00795897
0.00752614
0.00699301
0.00633493
0.00551975
0.00450552
0.00324053
0.00168781
0.000184082
0.00941134
0.00940591
0.00937832
0.00932712
0.00924996
0.00914382
0.00900465
0.00882708
0.00860403
0.00832619
0.00798148
0.00755435
0.00702494
0.00636799
0.0055512
0.00453313
0.00326274
0.00170238
0.000185873
0.00937057
0.00936634
0.00934113
0.00929359
0.00922147
0.00912175
0.00899035
0.00882181
0.00860877
0.0083415
0.00800719
0.00758928
0.00706669
0.00641296
0.00559515
0.00457219
0.00329438
0.00172366
0.000188648
0.0093147
0.00931189
0.00928963
0.00924668
0.00918089
0.00908931
0.00896792
0.00881119
0.0086116
0.00835896
0.00803966
0.00763581
0.00712449
0.00647711
0.00565902
0.00462902
0.00333933
0.00175313
0.000192855
0.00924446
0.00924368
0.00922529
0.00918815
0.00913023
0.00904876
0.00893986
0.0087981
0.00861593
0.00838283
0.00808438
0.00770111
0.00720754
0.00657156
0.0057549
0.0047145
0.00340497
0.00179408
0.00019879
0.00916397
0.00916615
0.00915268
0.00912257
0.00907406
0.00900462
0.00891069
0.00878714
0.00862661
0.00841851
0.00814783
0.00779352
0.00732692
0.00671068
0.0058997
0.00484536
0.00350294
0.0018503
0.000207325
0.00908132
0.00908715
0.00907936
0.00905719
0.00901921
0.00896333
0.00888645
0.00878396
0.00864894
0.00847111
0.00823552
0.00792003
0.00749284
0.00690955
0.00611388
0.00504457
0.00365139
0.00192785
0.000219542
0.00900807
0.0090174
0.00901522
0.0090011
0.00897403
0.00893244
0.00887385
0.00879429
0.00868736
0.00854341
0.00834903
0.00808228
0.00770984
0.00717914
0.00641817
0.00534248
0.00388009
0.00203752
0.00023815
0.00895773
0.00896894
0.00897112
0.00896406
0.00894723
0.00891963
0.00887942
0.00882312
0.00874427
0.00863301
0.00848181
0.00827079
0.00797002
0.00751882
0.00682866
0.00578149
0.00425395
0.00221954
0.000268616
0.00894328
0.00895316
0.00895719
0.00895512
0.00894685
0.0089319
0.00890899
0.00887472
0.00882017
0.00872768
0.00861297
0.00845669
0.00824396
0.00790402
0.00734423
0.00642681
0.00496444
0.00261527
0.000325156
0.00897503
0.00897923
0.0089816
0.00898168
0.00897956
0.00897516
0.00896784
0.00895465
0.00892111
0.00879546
0.00869853
0.00858252
0.00845966
0.00824236
0.00786641
0.0072775
0.00675108
0.00399507
0.0004657
)
;

boundaryField
{
    leftWall
    {
        type            nutkWallFunction;
        Cmu             0.09;
        kappa           0.41;
        E               9.8;
        value           nonuniform List<scalar> 
50
(
2.39007e-06
7.06441e-06
8.16349e-06
8.95387e-06
9.57976e-06
1.0165e-05
1.16707e-05
1.36014e-05
1.45651e-05
1.61445e-05
1.79343e-05
1.98464e-05
2.19961e-05
2.46137e-05
2.65534e-05
2.70421e-05
2.65819e-05
2.68476e-05
2.64861e-05
2.17268e-05
1.96594e-05
2.06785e-05
1.91978e-05
1.76864e-05
1.66136e-05
1.5992e-05
1.55823e-05
1.5268e-05
1.49702e-05
1.46442e-05
1.42707e-05
1.38459e-05
1.33731e-05
1.28602e-05
1.23173e-05
1.17579e-05
1.11983e-05
1.06591e-05
1.01635e-05
9.73531e-06
9.39365e-06
9.14931e-06
9.00145e-06
8.94117e-06
8.9666e-06
9.14632e-06
9.90913e-06
1.34442e-05
2.53098e-05
4.91427e-05
)
;
    }
    rightWall
    {
        type            nutkWallFunction;
        Cmu             0.09;
        kappa           0.41;
        E               9.8;
        value           nonuniform List<scalar> 
50
(
2.95753e-06
9.57532e-06
1.10952e-05
1.23432e-05
1.44483e-05
1.73278e-05
1.70429e-05
1.68131e-05
1.66063e-05
1.63391e-05
1.67485e-05
1.79321e-05
1.9328e-05
1.97941e-05
2.00228e-05
2.03685e-05
2.0918e-05
1.50815e-05
1.55521e-05
1.66513e-05
1.76772e-05
1.84719e-05
1.90457e-05
1.94353e-05
1.96716e-05
1.97819e-05
1.97874e-05
1.97049e-05
1.95532e-05
1.93483e-05
1.91017e-05
1.88315e-05
1.85569e-05
1.82866e-05
1.80494e-05
1.78479e-05
1.77091e-05
1.76359e-05
1.76557e-05
1.77738e-05
1.80257e-05
1.8427e-05
1.90333e-05
1.9893e-05
2.11228e-05
2.28896e-05
2.55856e-05
3.00432e-05
3.83047e-05
5.57616e-05
)
;
    }
    lowerWall
    {
        type            nutkWallFunction;
        Cmu             0.09;
        kappa           0.41;
        E               9.8;
        value           nonuniform List<scalar> 
62
(
2.39007e-06
3.67273e-06
4.44227e-06
4.97162e-06
5.3693e-06
5.68525e-06
5.94622e-06
6.16812e-06
6.36025e-06
6.52772e-06
6.67386e-06
6.80424e-06
6.93264e-06
7.046e-06
7.1336e-06
7.18805e-06
7.20068e-06
7.15856e-06
7.03913e-06
6.79975e-06
6.35209e-06
5.48266e-06
3.16914e-06
3.16914e-06
1.00929e-05
1.21411e-05
1.37195e-05
1.50663e-05
1.63984e-05
1.90619e-05
2.50153e-05
2.90148e-05
2.70304e-05
2.56015e-05
2.58505e-05
3.1612e-06
1.14051e-05
1.45392e-05
1.65394e-05
1.87868e-05
2.19573e-05
2.57448e-05
2.90762e-05
3.1612e-06
5.50002e-06
6.41089e-06
6.86172e-06
7.08487e-06
7.19307e-06
7.18747e-06
7.14511e-06
7.13383e-06
7.08365e-06
6.94677e-06
6.66556e-06
6.2385e-06
6.01626e-06
5.9217e-06
5.63715e-06
5.22165e-06
4.51494e-06
2.95753e-06
)
;
    }
    atmosphere
    {
        type            calculated;
        value           nonuniform List<scalar> 
46
(
0.009
0.009
0.0026273
0.00257964
0.00298192
0.00361219
0.00429443
0.00494319
0.00553136
0.00605737
0.0065288
0.00695564
0.00734626
0.00770094
0.00800641
0.009
0.009
0.009
0.009
0.009
0.009
0.009
0.009
0.009
0.009
0.009
0.009
0.009
0.009
0.009
0.009
0.009
0.009
0.009
0.009
0.009
0.00879546
0.00869853
0.00858252
0.00845966
0.00824236
0.00786641
0.0072775
0.009
0.009
0.009
)
;
    }
    defaultFaces
    {
        type            empty;
    }
}


// ************************************************************************* //
