/*--------------------------------*- C++ -*----------------------------------*\
  =========                 |
  \\      /  F ield         | OpenFOAM: The Open Source CFD Toolbox
   \\    /   O peration     | Website:  https://openfoam.org
    \\  /    A nd           | Version:  13
     \\/     M anipulation  |
\*---------------------------------------------------------------------------*/
FoamFile
{
    format      ascii;
    class       volScalarField;
    location    "2.35";
    object      p;
}
// * * * * * * * * * * * * * * * * * * * * * * * * * * * * * * * * * * * * * //

dimensions      [1 -1 -2 0 0 0 0];

internalField   nonuniform List<scalar> 
2268
(
5480.88
5499.05
5522.29
5549.32
5578.11
5606.62
5632.84
5654.85
5670.83
5679.36
5679.5
5670.76
5653.9
5630.75
5602.83
5571.8
5539.57
5508.78
5483.18
5466.93
5463.43
5474.18
5495.81
4679.34
4695.51
4715.82
4739.82
4766.77
4794.77
4821.73
4845.53
4864.17
4876.05
4880.03
4875.31
4862.3
4842.42
4817.27
4788.41
4757.58
4727.25
4701.21
4683.63
4677.51
4685.45
4704.39
3876.89
3891.3
3908.51
3929.04
3953.6
3980.75
4008.38
4034.21
4055.99
4071.86
4080.45
4080.21
4071.33
4055.06
4032.82
4006.06
3976.31
3946.1
3918.71
3898.62
3888.63
3893.96
3911.73
3072.63
3086.32
3100.74
3118.02
3140.19
3166.44
3194.8
3222.9
3248.17
3268.42
3282.09
3286.23
3281.11
3268.07
3248.3
3223.08
3193.76
3162.23
3132.29
3108.14
3093.2
3096.51
3116.3
2267.06
2281.38
2292.74
2306.92
2326.72
2351.98
2381.03
2411.54
2440.72
2465.93
2484.82
2493.69
2492.24
2482.17
2464.42
2440.06
2409.81
2374.81
2339.88
2309.69
2288.33
2289.59
2315.46
1483.56
1499.6
1507.72
1518.5
1535.14
1558.34
1586.82
1618.4
1649.93
1677.42
1697.4
1706.83
1705.05
1693.65
1673.12
1644.18
1607.95
1569.07
1532.54
1500.45
1476.68
1475.54
1511.22
994.56
1002.65
1003.37
1004.2
1006.65
1011.73
1019.39
1029.29
1040.22
1050.42
1059.25
1064.76
1063.24
1055.67
1042.8
1025.42
1004.08
980.411
960.734
942.629
927.651
921.454
939.955
854.141
854.007
849.682
843.229
834.665
824.646
813.885
803.374
794.009
786.251
781.295
780.573
780.036
778.93
777.86
776.826
775.454
772.221
767.284
760.885
752.914
742.166
739.73
2058.75
2069.25
2089.52
2116.76
2159.89
2232.91
2310.4
2362.44
2442.61
2542.1
2624.87
2665.57
2677.48
2705.75
2733.88
2720.2
2680.97
2632.18
2586.69
1498.69
1506.08
1515.28
1532.65
1566.58
1600.97
1662.55
1765.14
1859.98
1962.93
2044.19
2106.68
2141.64
2141.41
2122.8
2101.39
2061.81
2015.63
1973.85
1208.55
1218.82
1226.54
1234.22
1230.33
1197.07
1206.95
1254.99
1307.87
1348.37
1418.06
1494.93
1548.33
1545.48
1519.8
1491.87
1451.88
1435.23
1424.84
1047.19
1058.83
1071.89
1083.59
1072.2
1035.85
1020.08
1013.32
1012.92
974.271
983.748
1035.54
1089.51
1098.92
1066.39
1037.33
1007.06
998.886
997.181
900.78
908.413
920.492
927.399
943.681
952.775
940.884
923.37
902.322
859.299
830.141
818.08
837.25
852.546
837.751
828.156
817.397
799.393
773.971
797.281
798.63
797.675
800.048
820.037
855.853
856.449
836.915
808.932
787.877
770.878
738.122
712.171
714.6
728.53
744.012
746.829
740.589
721.325
728.948
727.964
715.367
713.877
716.636
743.318
746.502
733.885
718.181
720.021
710.756
697.453
674.916
664.131
674.715
688.524
695.279
690.542
685.661
666.421
669.36
658.224
649.559
642.446
644.415
651.482
653.756
652.001
657.201
652.249
646.188
642.084
635.914
634.185
635.112
637.459
635.306
639.333
760.846
760.915
758.513
753.421
746.601
738.672
729.996
721.12
712.459
704.188
696.61
690.435
686.065
682.658
679.485
676.236
672.627
668.411
662.729
655.635
646.614
635.823
624.136
635.361
632.913
628.957
623.125
616.126
608.327
600.052
591.927
584.283
577.229
571.028
565.845
561.807
558.526
555.507
552.221
548.558
543.922
537.703
530.321
521.765
511.716
501.303
512.868
508.019
502.211
495.324
488.106
480.466
472.261
464.551
457.619
451.465
446.067
441.497
437.58
434.559
431.831
428.777
425.609
422.239
418.212
413.678
408.186
401.807
395.951
395.784
387.522
377.935
369.388
362.387
355.891
348.837
342.72
336.586
331.572
327.92
325.169
323.583
323.291
323.349
323.289
323.784
325.084
325.803
325.4
323.874
321.804
321.039
291.991
279.288
269.394
262.527
256.906
251.654
248.645
246.82
244.464
242.67
242.27
243.352
245.106
247.074
249.268
251.857
254.825
257.722
259.774
260.773
261.19
261.508
261.813
209.226
198.177
191.229
186.737
183.051
180.211
179.753
179.842
180.44
181.016
182.418
184.798
187.17
189.103
191.045
193.243
195.046
195.99
197.063
197.944
198.621
199.316
199.13
147.297
137.172
129.487
124.605
121.524
119.948
119.539
118.876
118.425
118.664
119.594
120.892
122.763
124.825
127.005
129.08
130.7
131.898
133.025
133.925
134.515
134.776
134.528
94.0447
79.2746
67.1532
60.1517
55.9293
53.5181
54.5175
56.105
55.8057
55.0686
55.5557
57.4289
59.9169
62.2594
64.2273
65.9713
67.5242
68.8504
69.9563
70.8088
71.2828
71.2425
70.4202
43.9638
28.237
18.5833
14.4012
12.2141
11.2226
13.4529
15.4977
15.7442
15.3381
15.6394
16.9692
18.5373
19.7079
20.4094
21.0239
21.5743
22.0467
22.6237
23.2871
23.5316
23.2525
23.0795
12.113
6.1986
5.33998
5.21029
5.1703
5.17504
5.14549
5.13793
5.13056
5.14407
5.18991
5.23677
5.24276
5.20096
5.08847
4.95822
5.0733
5.16391
5.31376
5.49421
5.4826
5.68835
5.77627
4.71876
4.74652
4.78169
4.78732
4.82253
4.86519
4.9063
4.95728
5.014
5.07307
5.12886
5.17641
5.2114
5.22137
5.21269
5.21463
5.24525
5.30973
5.38539
5.47774
5.59108
5.6756
5.75768
4.62611
4.61588
4.64524
4.68855
4.72574
4.75752
4.7903
4.82873
4.87453
4.9241
4.97211
5.01607
5.05781
5.09502
5.12881
5.16906
5.21497
5.27359
5.33838
5.40727
5.47855
5.52421
5.56556
4.50494
4.50568
4.54032
4.5782
4.60628
4.63304
4.66119
4.69277
4.73072
4.77332
4.81786
4.85979
4.89696
4.93854
4.98218
5.02433
5.07661
5.12891
5.19058
5.25722
5.31091
5.35751
5.38542
4.38727
4.39352
4.42463
4.45021
4.47286
4.49685
4.52293
4.55162
4.58513
4.62335
4.66515
4.70356
4.73681
4.76819
4.80495
4.84681
4.88959
4.94055
5.00132
5.06802
5.13104
5.1717
5.20645
4.28112
4.28448
4.29998
4.31732
4.33636
4.35809
4.38243
4.40914
4.43844
4.47369
4.51159
4.54805
4.58183
4.61391
4.6477
4.68498
4.72719
4.77726
4.8356
4.89831
4.9577
4.99942
5.03333
4.15064
4.15368
4.16528
4.18031
4.19763
4.21763
4.24049
4.2658
4.29288
4.32397
4.35855
4.39441
4.43004
4.46492
4.50143
4.54077
4.58386
4.63249
4.68685
4.74354
4.79687
4.83361
4.86317
4.01051
4.01493
4.02547
4.03926
4.05553
4.07454
4.09646
4.12098
4.14758
4.17648
4.20881
4.24384
4.27946
4.3156
4.35346
4.39375
4.43701
4.48418
4.53512
4.587
4.63515
4.66763
4.69347
3.86776
3.87271
3.88232
3.89498
3.91036
3.92863
3.94982
3.97376
4.00006
4.02873
4.05999
4.09343
4.1282
4.16421
4.20198
4.2419
4.28431
4.32975
4.3778
4.42587
4.47017
4.49954
4.52211
3.7225
3.72732
3.73604
3.74774
3.76235
3.77995
3.8005
3.82384
3.84968
3.87786
3.9083
3.94069
3.97459
4.00992
4.04689
4.0857
4.12664
4.17006
4.21545
4.26047
4.3016
4.32835
4.34865
3.57451
3.57897
3.58692
3.59784
3.61176
3.62873
3.64865
3.67133
3.69653
3.72401
3.7536
3.78502
3.81796
3.8523
3.88812
3.92551
3.96475
4.00608
4.04898
4.0912
4.12966
4.15421
4.17223
3.42418
3.42817
3.43543
3.44566
3.45894
3.47526
3.4945
3.51646
3.54087
3.56751
3.59612
3.62646
3.65827
3.69139
3.7258
3.7616
3.79905
3.83834
3.87889
3.91868
3.95462
3.9769
3.99412
3.27188
3.27538
3.28199
3.29156
3.30418
3.31982
3.33832
3.35946
3.38298
3.40862
3.43613
3.46525
3.49575
3.52745
3.56028
3.59433
3.62986
3.66708
3.70545
3.74291
3.77655
3.79676
3.81353
3.1179
3.12093
3.12692
3.13585
3.14779
3.16269
3.18037
3.2006
3.22311
3.24763
3.27389
3.30165
3.33067
3.36079
3.39193
3.42413
3.45763
3.49265
3.5287
3.56393
3.59544
3.61434
3.62838
2.96246
2.96509
2.97051
2.9788
2.99003
3.00414
3.02092
3.04014
3.06153
3.08481
3.10971
3.13598
3.16339
3.19179
3.22109
3.25135
3.28273
3.31544
3.34906
3.38174
3.41097
3.42826
3.43932
2.8058
2.80809
2.813
2.82066
2.83116
2.84442
2.86023
2.87836
2.89852
2.92044
2.94387
2.96854
2.99424
3.0208
3.04815
3.07634
3.10553
3.13584
3.16686
3.197
3.22373
3.23903
3.24815
2.64811
2.65015
2.6546
2.66165
2.6714
2.68376
2.69854
2.71548
2.73433
2.75481
2.77666
2.79963
2.82352
2.84816
2.87348
2.89951
2.92639
2.95425
2.98269
3.01014
3.0344
3.04789
3.05492
2.48959
2.49143
2.49548
2.50195
2.51094
2.52237
2.53605
2.55175
2.5692
2.58815
2.60834
2.62955
2.65155
2.6742
2.69741
2.72122
2.74575
2.77112
2.79693
2.82179
2.84348
2.855
2.86054
2.33041
2.33212
2.33582
2.34173
2.34994
2.36041
2.37295
2.38734
2.40334
2.4207
2.43918
2.45855
2.47861
2.49921
2.52028
2.54183
2.56399
2.58687
2.6101
2.63225
2.65146
2.6611
2.66458
2.17074
2.17236
2.17574
2.18109
2.18853
2.198
2.20937
2.22241
2.23691
2.25264
2.26936
2.28687
2.30496
2.32349
2.3424
2.36168
2.38148
2.40187
2.42248
2.44209
2.4588
2.46652
2.46869
2.01069
2.01226
2.01534
2.02015
2.02679
2.03526
2.04542
2.05709
2.07007
2.08415
2.0991
2.11472
2.13083
2.1473
2.16404
2.18107
2.1985
2.21642
2.23449
2.25149
2.26582
2.27192
2.27253
1.85041
1.85192
1.85471
1.85896
1.86479
1.87223
1.88118
1.89147
1.90293
1.91536
1.92854
1.9423
1.95645
1.97087
1.98547
2.00027
2.01536
2.03082
2.04631
2.06078
2.07264
2.07693
2.07644
1.68999
1.69145
1.69392
1.69758
1.70259
1.70899
1.71672
1.72564
1.7356
1.7464
1.75786
1.76979
1.78203
1.79444
1.80694
1.81955
1.83233
1.84534
1.85829
1.8701
1.87949
1.88196
1.87965
1.52957
1.53095
1.53307
1.5361
1.54024
1.54558
1.5521
1.55968
1.56817
1.57741
1.5872
1.59737
1.60776
1.61824
1.62871
1.63919
1.64972
1.66034
1.67072
1.68001
1.68692
1.68749
1.68388
1.3693
1.37056
1.37226
1.3746
1.37782
1.38208
1.38739
1.39366
1.40075
1.40849
1.41671
1.42522
1.43386
1.4425
1.45106
1.45951
1.46789
1.4762
1.48419
1.491
1.49563
1.49464
1.48954
1.20936
1.21046
1.21166
1.21319
1.21542
1.21856
1.22268
1.22768
1.23344
1.23978
1.24652
1.25348
1.2605
1.26745
1.27422
1.2808
1.28719
1.29339
1.29914
1.30377
1.30627
1.30379
1.29784
1.04999
1.05089
1.05145
1.05202
1.05314
1.05511
1.05803
1.06182
1.06633
1.07138
1.07677
1.08233
1.08788
1.09329
1.09846
1.10335
1.10796
1.11229
1.11612
1.11877
1.11951
1.11587
1.10885
0.89148
0.892121
0.891845
0.891218
0.89104
0.891774
0.893514
0.896158
0.89952
0.90339
0.907566
0.911862
0.91611
0.920169
0.923936
0.927364
0.930452
0.933204
0.935416
0.936577
0.935935
0.931458
0.924269
0.73414
0.734496
0.73303
0.730803
0.7291
0.72852
0.729115
0.730701
0.733024
0.735841
0.738935
0.742119
0.745229
0.748122
0.750691
0.752888
0.754727
0.756224
0.757247
0.75728
0.755759
0.75105
0.743899
0.578254
0.578242
0.574921
0.570521
0.567069
0.565192
0.564755
0.565414
0.566826
0.568712
0.570848
0.573054
0.575175
0.57707
0.57862
0.57981
0.580656
0.581213
0.58133
0.580674
0.578597
0.573788
0.567228
0.423467
0.422606
0.416261
0.409325
0.404342
0.401546
0.400406
0.40038
0.40106
0.402158
0.403468
0.404836
0.406125
0.407197
0.40794
0.408372
0.408392
0.408239
0.407713
0.40656
0.40411
0.398876
0.391793
0.268827
0.264533
0.252356
0.244598
0.239753
0.237161
0.235978
0.235652
0.235841
0.236333
0.236988
0.237706
0.238386
0.238909
0.239161
0.238991
0.238552
0.237909
0.237129
0.235749
0.233186
0.228657
0.220204
0.100584
0.0902238
0.0818228
0.0794227
0.078022
0.0773931
0.0771414
0.0771202
0.0772505
0.0774832
0.0777896
0.0781482
0.0785228
0.0788479
0.0790404
0.0788378
0.078276
0.0776478
0.077018
0.0765143
0.0759718
0.0740198
0.0673226
602.126
597.184
595.331
590.454
487.37
478.63
470.286
465.471
391.157
388.693
387.65
385.421
322.604
323.785
323.497
321.813
261.208
260.583
259.793
258.702
197.983
197.263
196.572
195.657
134.282
133.963
133.394
132.502
68.8551
68.266
68.1154
68.1882
23.1894
23.1976
23.1438
23.0165
5.89208
5.96883
6.04766
6.12243
5.83516
5.90361
5.99625
6.0482
5.63166
5.72365
5.83499
5.9039
5.4638
5.56633
5.68656
5.76033
5.2901
5.39763
5.52376
5.60284
5.11681
5.22538
5.35477
5.43708
4.94389
5.05127
5.18098
5.26495
4.77016
4.87495
5.00394
5.08781
4.59505
4.6966
4.82265
4.90542
4.41712
4.51467
4.63763
4.71823
4.23644
4.32949
4.44764
4.52592
4.05356
4.14161
4.25518
4.32999
3.86919
3.95193
4.05902
4.12999
3.68003
3.7582
3.86006
3.92657
3.48685
3.56011
3.65617
3.71973
3.29094
3.35892
3.44982
3.50956
3.09396
3.15683
3.24096
3.29681
2.89526
2.9529
3.03135
3.08276
2.69535
2.7477
2.81929
2.86693
2.49518
2.54222
2.60804
2.65122
2.29584
2.33787
2.39652
2.43534
2.09596
2.13295
2.18571
2.21992
1.89553
1.92748
1.97356
2.00422
1.69569
1.72266
1.76345
1.79042
1.49835
1.52084
1.55539
1.57907
1.30345
1.32171
1.35147
1.37181
1.1119
1.12629
1.15077
1.16866
0.924981
0.935947
0.956508
0.971703
0.743736
0.752034
0.767979
0.780682
0.56618
0.57217
0.584822
0.594891
0.389437
0.39299
0.401935
0.410674
0.212984
0.213064
0.219658
0.228685
0.0606721
0.0592588
0.0619828
0.0681645
571.409
576.747
570.854
559.863
551.594
548.576
555.843
560.353
560.555
563.365
561.532
558.762
558.618
555.217
549.83
547.191
548.318
549.473
554.044
456.896
462.334
460.572
453.431
448.159
447.944
445.704
443.168
441.542
440.904
439.024
437.024
435.406
431.989
427.427
424.775
425.414
427.891
431.293
381.338
379.778
379.028
377.579
374.513
368.624
362.454
356.909
351.348
345.601
339.813
334.546
329.789
324.906
320.483
317.907
317.913
320.616
322.8
318.798
317.255
315.498
313.968
311.242
305.419
299.404
292.567
285.647
278.13
270.121
262.136
254.818
248.616
243.768
240.627
239.47
240.411
243.215
256.511
254.45
252.439
250.497
247.758
242.844
236.34
229.528
222.615
215.329
207.691
200.007
192.701
186.142
180.599
176.339
173.505
172.478
174.113
193.78
191.574
189.332
186.898
183.633
178.926
173.127
166.742
160.017
152.92
145.478
137.806
130.251
123.284
117.104
111.811
107.673
106.089
108.356
130.696
128.564
126.268
123.658
120.333
115.912
110.511
104.463
97.9764
91.1177
83.8313
75.9184
67.7325
60.2369
53.9031
48.6154
44.2535
42.5706
45.2384
68.1727
66.5585
64.3933
61.895
58.7394
54.7579
50.3557
45.6385
40.7304
35.7342
30.9188
26.4412
22.1756
18.3549
15.0812
12.7575
11.1862
10.793
11.9909
22.4695
21.5335
20.5208
19.2857
17.7517
15.8553
14.0777
12.3163
10.6106
9.00686
7.67742
7.19504
7.41788
7.42493
7.14239
6.90178
6.95041
7.02106
7.09199
6.17363
6.17214
6.16605
6.20868
6.27598
6.34796
6.38778
6.42077
6.51328
6.63878
6.7001
6.66616
6.6098
6.60317
6.62623
6.64312
6.64082
6.63477
6.63438
6.07683
6.08525
6.10188
6.14281
6.20166
6.25543
6.28591
6.29934
6.32034
6.36685
6.42261
6.45979
6.46336
6.46308
6.47913
6.4926
6.4938
6.48974
6.48619
5.93974
5.94001
5.95709
5.99138
6.0392
6.0878
6.12114
6.14335
6.1679
6.20407
6.24303
6.2729
6.29231
6.31689
6.3352
6.34572
6.34646
6.34018
6.33339
5.79625
5.79293
5.80639
5.83408
5.86288
5.9001
5.93997
5.98161
6.01891
6.05292
6.07922
6.10677
6.13908
6.16488
6.18098
6.18879
6.18772
6.18046
6.17301
5.64276
5.63797
5.6509
5.67614
5.70081
5.72903
5.7667
5.81208
5.86114
5.89846
5.92821
5.95543
5.98212
6.00355
6.01704
6.02228
6.01985
6.01232
6.00523
5.48029
5.47608
5.48869
5.51495
5.54421
5.57648
5.6134
5.65539
5.69831
5.73531
5.76595
5.79264
5.81616
5.83427
5.84513
5.84869
5.84555
5.8381
5.83144
5.31038
5.30679
5.32002
5.34739
5.37893
5.41309
5.45027
5.48951
5.52873
5.56386
5.5941
5.62005
5.64164
5.65748
5.66667
5.66919
5.6658
5.65862
5.65243
5.13361
5.13052
5.14408
5.17227
5.20485
5.23991
5.27661
5.31419
5.35091
5.38454
5.41404
5.43911
5.45933
5.47382
5.48201
5.48404
5.48066
5.4739
5.46832
4.95094
4.94776
4.96136
4.98985
5.02288
5.05812
5.09433
5.1306
5.16567
5.19802
5.22662
5.25086
5.27013
5.28378
5.29145
5.29331
5.29024
5.28418
5.27917
4.76235
4.75921
4.77254
4.80093
4.83393
4.869
4.90464
4.93989
4.9737
5.00495
5.03267
5.05615
5.07475
5.0879
5.09535
5.0974
5.09483
5.0895
5.0852
4.56891
4.56549
4.57838
4.60633
4.63895
4.67356
4.70855
4.7429
4.77569
4.80597
4.8329
4.85574
4.87385
4.88674
4.89425
4.8966
4.89471
4.89028
4.88658
4.37054
4.36731
4.37945
4.40674
4.43874
4.47271
4.50695
4.54044
4.57233
4.60178
4.62801
4.65032
4.66809
4.68088
4.68854
4.69142
4.69026
4.68664
4.68366
4.1682
4.16532
4.17645
4.20283
4.23406
4.26724
4.30066
4.33331
4.36436
4.39305
4.41866
4.44052
4.45805
4.47085
4.47881
4.48218
4.48182
4.47913
4.47671
3.96181
3.95976
3.96988
3.9952
4.02558
4.05788
4.09043
4.12222
4.15246
4.18044
4.20548
4.22696
4.24432
4.25719
4.26545
4.26946
4.26984
4.26794
4.2662
3.75328
3.74952
3.75962
3.78427
3.81366
3.84503
3.87668
3.90761
3.93708
3.9644
3.98894
4.01009
4.02735
4.04035
4.049
4.05357
4.05471
4.05369
4.0525
3.54078
3.53659
3.54638
3.57021
3.5986
3.62899
3.65971
3.6898
3.71852
3.74523
3.76932
3.79022
3.80746
3.82068
3.82977
3.835
3.83682
3.83657
3.83617
3.32605
3.32149
3.33086
3.35373
3.38105
3.41038
3.44012
3.46932
3.49729
3.5234
3.54707
3.56778
3.58505
3.59855
3.60818
3.61404
3.61673
3.61717
3.61742
3.10917
3.10477
3.11366
3.1355
3.16168
3.18987
3.21857
3.24685
3.27404
3.29955
3.32282
3.34335
3.36069
3.37451
3.38465
3.39131
3.39479
3.39588
3.39676
2.89151
2.88699
2.89538
2.91611
2.94106
2.96806
2.99565
3.02297
3.04936
3.07425
3.09713
3.1175
3.13493
3.14908
3.15981
3.16713
3.17148
3.17343
3.17455
2.67293
2.66868
2.6765
2.69608
2.71976
2.74551
2.77196
2.79827
2.82382
2.84808
2.87055
2.89075
2.90827
2.92277
2.93404
2.94217
2.9473
2.94995
2.95152
2.45468
2.4503
2.4576
2.476
2.49838
2.52284
2.5481
2.57335
2.59802
2.62161
2.64364
2.66366
2.68126
2.69608
2.70794
2.71673
2.72273
2.7262
2.72809
2.23638
2.23245
2.23928
2.25653
2.2776
2.30073
2.32473
2.34888
2.37262
2.39549
2.41704
2.43683
2.45446
2.46958
2.48194
2.49154
2.49831
2.50245
2.50486
2.01934
2.01579
2.02232
2.03845
2.05819
2.07995
2.10265
2.12561
2.14836
2.17044
2.19145
2.21095
2.22856
2.24391
2.25678
2.26697
2.27456
2.2795
2.28224
1.80379
1.80123
1.80755
1.82261
1.84102
1.86137
1.8827
1.90441
1.92607
1.94728
1.96766
1.98679
2.00428
2.01978
2.03301
2.04387
2.05211
2.0576
2.06081
1.59153
1.58973
1.59595
1.60997
1.62703
1.64592
1.6658
1.68616
1.70663
1.72686
1.7465
1.76516
1.78242
1.79794
1.81145
1.82266
1.83147
1.8375
1.84088
1.3829
1.38232
1.38847
1.40146
1.41715
1.43452
1.45285
1.47174
1.49088
1.51
1.52877
1.54681
1.5637
1.57908
1.59263
1.60414
1.61316
1.6193
1.62287
1.17952
1.17987
1.18599
1.19792
1.21218
1.22792
1.24458
1.26185
1.2795
1.29734
1.31508
1.33233
1.34868
1.36373
1.37716
1.38852
1.39747
1.40351
1.40686
0.981552
0.98303
0.989014
0.999834
1.01258
1.02659
1.04143
1.05688
1.07284
1.08918
1.10568
1.12191
1.13753
1.15204
1.16507
1.17616
1.18457
1.18987
1.19294
0.789737
0.791775
0.797546
0.807162
0.818279
0.830399
0.843218
0.856628
0.870625
0.885205
0.900129
0.914981
0.929637
0.943426
0.955967
0.966408
0.974104
0.978452
0.980809
0.602508
0.605358
0.610816
0.619119
0.628434
0.638444
0.64899
0.660074
0.671812
0.68421
0.697047
0.710046
0.723462
0.736303
0.748277
0.75842
0.765445
0.768341
0.770627
0.419057
0.423105
0.428273
0.43511
0.442399
0.450062
0.458088
0.466586
0.475667
0.485329
0.495396
0.504317
0.518093
0.529944
0.541778
0.552179
0.55948
0.561072
0.563589
0.240951
0.247218
0.251773
0.256856
0.261892
0.267034
0.272392
0.278085
0.284184
0.290691
0.2963
0.29993
0.315201
0.326798
0.337881
0.348441
0.356818
0.356179
0.358993
0.0768474
0.0805016
0.0826073
0.0846246
0.0865703
0.0885263
0.0905587
0.0927316
0.0950611
0.0975253
0.0989776
0.0999134
0.108333
0.115481
0.121774
0.127419
0.133868
0.125651
0.130374
)
;

boundaryField
{
    leftWall
    {
        type            calculated;
        value           nonuniform List<scalar> 
50
(
5480.88
4679.34
3876.89
3072.63
2267.06
1483.56
994.56
854.141
760.846
635.361
512.868
395.784
291.991
209.226
147.297
94.0447
43.9638
12.113
4.71876
4.62611
4.50494
4.38727
4.28112
4.15064
4.01051
3.86776
3.7225
3.57451
3.42418
3.27188
3.1179
2.96246
2.8058
2.64811
2.48959
2.33041
2.17074
2.01069
1.85041
1.68999
1.52957
1.3693
1.20936
1.04999
0.89148
0.73414
0.578254
0.423467
0.268827
0.100584
)
;
    }
    rightWall
    {
        type            calculated;
        value           nonuniform List<scalar> 
50
(
2586.69
1973.85
1424.84
997.181
773.971
721.325
685.661
639.333
554.044
431.293
322.8
243.215
174.113
108.356
45.2384
11.9909
7.09199
6.63438
6.48619
6.33339
6.17301
6.00523
5.83144
5.65243
5.46832
5.27917
5.0852
4.88658
4.68366
4.47671
4.2662
4.0525
3.83617
3.61742
3.39676
3.17455
2.95152
2.72809
2.50486
2.28224
2.06081
1.84088
1.62287
1.40686
1.19294
0.980809
0.770627
0.563589
0.358993
0.130374
)
;
    }
    lowerWall
    {
        type            calculated;
        value           nonuniform List<scalar> 
62
(
5879.03
5897.2
5920.44
5947.47
5976.26
6004.77
6030.99
6053
6068.98
6077.51
6077.65
6068.91
6052.05
6028.9
6000.98
5969.95
5937.72
5906.93
5881.33
5865.06
5861.42
5872.12
5893.74
5495.81
4704.39
3911.73
3116.3
2315.46
1511.22
939.955
739.73
664.723
659.757
676.123
684.98
2058.75
1498.69
1208.55
1047.19
900.78
797.281
728.948
666.421
2402.39
2416.48
2440.78
2468.53
2511.68
2584.48
2660.32
2635.55
2700.15
2799.87
2882.52
2916.36
2923.41
2965.76
3037.7
3024.5
2984.71
2934.91
2889.56
)
;
    }
    atmosphere
    {
        type            calculated;
        value           nonuniform List<scalar> 
46
(
-0.00159243
-0.000693494
-0.000755179
-0.000334364
-0.000149151
-7.55558e-05
-4.75678e-05
-3.85738e-05
-3.88662e-05
-4.51693e-05
-5.65725e-05
-7.32849e-05
-9.68354e-05
-0.000132185
-0.000193133
-0.000323929
-0.000473185
-0.000630898
-0.000767759
-0.000900297
-0.000995884
-0.000595894
-0.000641869
-0.000485939
-0.000478332
-0.000498879
-0.00060943
-0.000338777
-0.000227228
-0.000188858
-0.000175751
-0.000173494
-0.000174934
-0.000175939
-0.000174264
-0.000169492
-0.000163996
-0.00020081
-3.03953e-05
-0.000189916
-8.65727e-05
-0.000100309
-0.000197976
-0.000426527
-0.000142669
-0.000529817
)
;
    }
    defaultFaces
    {
        type            empty;
    }
}


// ************************************************************************* //
