/*--------------------------------*- C++ -*----------------------------------*\
  =========                 |
  \\      /  F ield         | OpenFOAM: The Open Source CFD Toolbox
   \\    /   O peration     | Website:  https://openfoam.org
    \\  /    A nd           | Version:  13
     \\/     M anipulation  |
\*---------------------------------------------------------------------------*/
FoamFile
{
    format      ascii;
    class       volScalarField;
    location    "2.35";
    object      p_rgh;
}
// * * * * * * * * * * * * * * * * * * * * * * * * * * * * * * * * * * * * * //

dimensions      [1 -1 -2 0 0 0 0];

internalField   nonuniform List<scalar> 
2268
(
5879.03
5897.2
5920.44
5947.47
5976.26
6004.77
6030.99
6053
6068.98
6077.51
6077.65
6068.91
6052.05
6028.9
6000.98
5969.95
5937.72
5906.93
5881.33
5865.06
5861.42
5872.12
5893.74
5873.79
5889.96
5910.27
5934.27
5961.22
5989.21
6016.18
6039.98
6058.62
6070.49
6074.47
6069.76
6056.75
6036.87
6011.72
5982.86
5952.03
5921.7
5895.65
5878.07
5871.94
5879.82
5898.47
5867.64
5882.05
5899.26
5919.78
5944.35
5971.5
5999.13
6024.96
6046.74
6062.61
6071.2
6070.96
6062.08
6045.81
6023.57
5996.81
5967.06
5936.85
5909.46
5889.37
5879.38
5884.71
5902.48
5859.68
5873.37
5887.79
5905.07
5927.24
5953.48
5981.85
6009.94
6035.22
6055.47
6069.14
6073.28
6068.16
6055.12
6035.35
6010.12
5980.81
5949.28
5919.34
5895.19
5880.25
5883.56
5903.35
5850.41
5864.73
5876.09
5890.27
5910.07
5935.32
5964.38
5994.89
6024.07
6049.28
6068.17
6077.04
6075.59
6065.52
6047.77
6023.41
5993.16
5958.16
5923.23
5893.03
5871.68
5872.94
5898.81
5642.39
5699.64
5738.53
5782.8
5838.58
5896.62
5949.89
5994.47
6029.58
6057.07
6077.04
6086.47
6084.7
6073.29
6052.77
6023.83
5987.59
5923.08
5814.72
5721.85
5654.26
5674.58
5805.38
2430.35
2588.7
2697.45
2824.05
3009.33
3257.41
3550.14
3860.49
4152.1
4381.71
4500.47
4473.64
4363.41
4198.41
3967.67
3677.97
3346.34
3037.71
2814.96
2639.32
2530.37
2592.94
2991.37
1295.58
1295.45
1291.12
1284.67
1276.1
1266.09
1255.33
1244.81
1235.45
1227.69
1232.77
1284.74
1292.64
1268.12
1239.74
1221.87
1216.9
1213.67
1208.72
1202.3
1194.28
1183.46
1180.87
2402.39
2416.48
2440.78
2468.53
2511.68
2584.48
2660.32
2635.55
2700.15
2799.87
2882.52
2916.36
2923.41
2965.76
3037.7
3024.5
2984.71
2934.91
2889.56
2137.58
2137.89
2172.09
2220.3
2284.41
2463.48
2603.93
2755.34
2858.74
2962.42
3040.94
3045.18
3002.04
3036.81
3033.03
3013
2971.28
2923.81
2882.45
1597.27
1598.4
1576.42
1570.85
1695.49
1760.63
1893.76
2138.75
2401.01
2826.08
2978.46
3057.07
3070.56
3022.56
3023.61
2996.8
2959.75
2783.85
2605.41
1616.41
1640.39
1651.02
1654.33
1524.05
1299.51
1282.5
1401.54
1497.63
1487.02
1845.28
2140.08
2217.62
2198.03
2206.99
2159.28
2016.35
2121.57
2262.7
1471.19
1518.49
1532.38
1624.6
1552.53
1261.2
1238.51
1212.14
1251.38
1142.6
1042.46
1403.45
1766.44
1765.8
1510.42
1334.09
1256.41
1117.95
1120.2
1215.27
1265.98
1419.16
1355.2
1488.25
1464.57
1360.6
1378.05
1429.84
1140.83
1092.77
869.363
1011.39
1213.44
1162.11
1091.31
1003.64
995.879
856.918
1094.18
1087.51
1078.04
1164.17
1327.63
1460.68
1493.98
1373.03
1207.07
1125.62
1095.12
1015.54
786.521
771.502
897.228
1037.88
1077.81
1072.61
929.949
1186.2
1099.24
1089.91
1087.41
1077.31
1326.17
1221.94
1101.89
1094.48
1100.1
1094.87
1082
966.706
926.719
1026.1
1076.5
1078.87
1073.99
991.466
1294.31
1294.38
1291.98
1286.89
1280.07
1272.14
1263.46
1254.59
1245.93
1237.66
1230.08
1223.9
1219.53
1216.13
1212.95
1209.7
1206.09
1201.88
1196.19
1189.1
1180.08
1169.29
1157.6
1294.02
1291.57
1287.61
1281.67
1274.77
1266.99
1258.71
1250.59
1242.95
1235.89
1229.69
1224.51
1220.47
1217.19
1214.17
1210.88
1207.22
1202.58
1196.37
1188.98
1179.53
1163.58
1154
1296.72
1291.52
1284.2
1278.73
1271.95
1264.32
1256.12
1248.41
1241.47
1235.32
1229.92
1225.35
1221.28
1218.21
1215.69
1208.19
1201.59
1188.95
1145.9
1104.81
1081.06
1048.6
1031.81
1264.48
1274.56
1279.11
1266.55
1256.88
1253.87
1224.41
1197.4
1190.77
1180.77
1168.31
1149.38
1114.14
1081.25
1048.29
1000.98
949.054
894.305
850.61
825.935
800.867
766.366
723.257
1143.7
1114.09
1020.62
961.803
949.271
972.07
912.031
888.543
829.817
791.049
762.946
721.844
693.72
697.288
708.783
702.44
699.972
752.012
769.242
771.306
772.71
739.135
731.994
926.422
791.574
771.11
765.969
760.456
711.871
689.638
727.787
743.79
729.683
722.655
753.392
766.877
767.892
762.65
761.474
766.706
775.087
776.753
777.335
775.558
773.914
777.981
777.569
780.547
772.121
766.959
763.841
762.265
761.856
761.193
760.742
760.981
761.911
763.209
765.081
767.142
769.322
771.397
773.017
774.215
775.309
776.197
776.825
777.106
776.862
780.22
785.489
728.368
708.047
718.365
707.376
701.991
730.933
747.166
751.17
754.738
760.092
764.736
767.174
769.142
770.886
772.439
773.765
774.871
775.724
776.198
776.157
775.335
747.878
472.534
228.461
158.656
123.974
106.912
173.51
256.031
296.707
312.513
336.346
386.03
443.571
490.387
523.385
549.458
563.79
571.474
578.762
593.42
602.176
587.7
571.866
208.621
31.4116
7.02324
6.88065
6.83452
6.83721
6.80587
6.79839
6.791
6.80445
6.85022
6.89701
6.90299
6.86126
6.74893
6.61868
9.32608
9.03382
10.5901
13.2199
8.58297
7.34859
7.43653
6.57213
6.55525
6.57517
6.58528
6.61859
6.65126
6.69201
6.74301
6.79951
6.8585
6.91429
6.96186
6.99684
7.00678
6.99811
7.00004
7.03067
7.09516
7.17081
7.26316
7.3765
7.46104
7.54318
6.53902
6.52846
6.55988
6.63813
6.70337
6.69198
6.70102
6.7397
6.78856
6.85221
6.88655
6.92772
6.96863
7.00575
7.0395
7.07974
7.12567
7.18429
7.24906
7.31795
7.38922
7.4349
7.47627
6.54184
6.54362
6.57872
6.68131
6.71528
6.69945
6.69729
6.73971
6.85744
6.9771
6.90453
6.90114
6.93353
6.97457
7.01828
7.06052
7.11276
7.16494
7.22655
7.29317
7.34682
7.3934
7.42132
6.54957
6.55661
6.58954
6.64808
6.67397
6.66478
6.68408
6.71282
6.92216
6.96435
7.00928
6.94501
6.90212
6.93108
6.96785
7.00972
7.05161
7.10199
7.16263
7.22926
7.29223
7.33283
7.36753
6.56835
6.5729
6.58929
6.60362
6.62261
6.64435
6.66868
6.6954
6.84504
6.94771
6.99012
6.95191
6.87522
6.90628
6.93926
6.97599
7.01524
7.06402
7.12219
7.1848
7.24413
7.28578
7.31962
6.56275
6.56661
6.57867
6.59191
6.60909
6.62911
6.65195
6.67725
6.71304
6.85227
6.9039
6.84166
6.84902
6.88398
6.92046
6.95927
6.99764
7.04448
7.09868
7.15527
7.20854
7.24519
7.2747
6.54758
6.55231
6.56289
6.57603
6.59224
6.61126
6.63316
6.65777
6.68471
6.7174
6.7468
6.78134
6.81986
6.85994
6.89623
6.93216
6.97459
7.02134
7.07204
7.12384
7.17196
7.20441
7.2302
6.52988
6.53487
6.54439
6.55691
6.57227
6.59053
6.61175
6.63573
6.66196
6.69076
6.72201
6.75558
6.79234
6.82885
6.8649
6.90418
6.94635
6.99184
7.03982
7.08783
7.13212
7.16144
7.184
6.50968
6.51451
6.52318
6.53484
6.54943
6.56703
6.58758
6.61093
6.6367
6.66488
6.69533
6.72846
6.76299
6.79823
6.83425
6.87282
6.91375
6.95716
7.00255
7.04755
7.08866
7.11541
7.13569
6.48682
6.49129
6.49922
6.51011
6.52402
6.54097
6.56089
6.58355
6.60874
6.63623
6.66586
6.69767
6.73106
6.76504
6.80043
6.83777
6.87699
6.91831
6.96121
7.00342
7.04187
7.06642
7.08443
6.46168
6.46567
6.47291
6.48312
6.49637
6.51267
6.53191
6.55386
6.57827
6.60492
6.63357
6.66399
6.69584
6.72889
6.76323
6.799
6.83645
6.87573
6.91629
6.95607
6.99201
7.01428
7.0315
6.43457
6.43807
6.44466
6.45421
6.4668
6.48242
6.50091
6.52204
6.54556
6.57121
6.59873
6.62786
6.65835
6.69005
6.72287
6.75691
6.79244
6.82966
6.86802
6.90549
6.93912
6.95933
6.97609
6.40576
6.4088
6.41478
6.42369
6.4356
6.45048
6.46815
6.48837
6.51088
6.5354
6.56167
6.58942
6.61844
6.64856
6.67969
6.71189
6.74539
6.78041
6.81646
6.85169
6.88319
6.9021
6.91613
6.37552
6.37815
6.38356
6.39182
6.40303
6.41712
6.43389
6.4531
6.47449
6.49776
6.52266
6.54893
6.57634
6.60474
6.63404
6.6643
6.69568
6.72839
6.76201
6.79469
6.82391
6.8412
6.85227
6.34403
6.34631
6.35121
6.35886
6.36934
6.38259
6.39839
6.41651
6.43666
6.45859
6.48201
6.50668
6.53238
6.55894
6.5863
6.61448
6.64367
6.67398
6.705
6.73514
6.76186
6.77717
6.78629
6.31153
6.31355
6.31798
6.32503
6.33477
6.34712
6.36189
6.37883
6.39767
6.41814
6.43999
6.46296
6.48685
6.51149
6.53681
6.56284
6.58972
6.61758
6.64602
6.67347
6.69773
6.71123
6.71825
6.27819
6.28002
6.28405
6.29051
6.29949
6.31091
6.32459
6.34028
6.35773
6.37668
6.39687
6.41807
6.44008
6.46272
6.48594
6.50974
6.53428
6.55965
6.58545
6.61031
6.63201
6.64353
6.64906
6.2442
6.24589
6.24957
6.25547
6.26368
6.27414
6.28668
6.30106
6.31706
6.33442
6.3529
6.37227
6.39233
6.41293
6.434
6.45555
6.47771
6.50059
6.52382
6.54597
6.56518
6.57482
6.5783
6.2097
6.21131
6.21468
6.22002
6.22745
6.23692
6.24829
6.26133
6.27583
6.29156
6.30828
6.32578
6.34387
6.36241
6.38131
6.4006
6.42039
6.44078
6.46139
6.48101
6.49772
6.50543
6.5076
6.17484
6.17639
6.17947
6.18426
6.1909
6.19937
6.20953
6.2212
6.23418
6.24825
6.26321
6.27883
6.29494
6.31141
6.32815
6.34518
6.36261
6.38053
6.3986
6.4156
6.42993
6.43603
6.43664
6.13974
6.14124
6.14402
6.14826
6.1541
6.16154
6.17048
6.18078
6.19224
6.20466
6.21785
6.23161
6.24576
6.26017
6.27477
6.28957
6.30466
6.32012
6.33561
6.35009
6.36194
6.36623
6.36574
6.10451
6.10596
6.10843
6.11208
6.11709
6.12349
6.13121
6.14014
6.1501
6.1609
6.17236
6.18429
6.19653
6.20893
6.22144
6.23404
6.24683
6.25984
6.27278
6.2846
6.29399
6.29645
6.29414
6.06927
6.07065
6.07276
6.07579
6.07993
6.08527
6.09179
6.09937
6.10786
6.1171
6.12689
6.13707
6.14746
6.15793
6.16841
6.17888
6.18941
6.20003
6.21041
6.2197
6.22661
6.22718
6.22357
6.03419
6.03545
6.03715
6.03948
6.0427
6.04697
6.05228
6.05855
6.06563
6.07338
6.08159
6.0901
6.09874
6.10738
6.11594
6.12439
6.13277
6.14109
6.14908
6.15589
6.16051
6.15952
6.15443
5.99945
6.00054
6.00174
6.00327
6.0055
6.00865
6.01276
6.01776
6.02352
6.02986
6.0366
6.04356
6.05059
6.05753
6.06431
6.07088
6.07727
6.08347
6.08922
6.09385
6.09635
6.09387
6.08793
5.96527
5.96616
5.96672
5.9673
5.96841
5.97039
5.97331
5.9771
5.98161
5.98666
5.99205
5.9976
6.00316
6.00857
6.01374
6.01863
6.02324
6.02756
6.03139
6.03404
6.03478
6.03114
6.02412
5.93195
5.93259
5.93232
5.93169
5.93151
5.93224
5.93398
5.93663
5.93999
5.94386
5.94804
5.95233
5.95658
5.96064
5.96441
5.96783
5.97092
5.97367
5.97589
5.97705
5.9764
5.97193
5.96474
5.8998
5.90016
5.89869
5.89647
5.89476
5.89418
5.89478
5.89637
5.89869
5.90151
5.9046
5.90778
5.91089
5.91379
5.91636
5.91855
5.92039
5.92189
5.92291
5.92294
5.92142
5.91671
5.90956
5.86911
5.8691
5.86578
5.86138
5.85793
5.85605
5.85561
5.85627
5.85769
5.85957
5.86171
5.86391
5.86603
5.86793
5.86948
5.87067
5.87152
5.87207
5.87219
5.87153
5.86946
5.86465
5.85809
5.83952
5.83866
5.83231
5.82538
5.8204
5.8176
5.81646
5.81643
5.81711
5.81821
5.81952
5.82089
5.82218
5.82325
5.82399
5.82443
5.82445
5.82429
5.82377
5.82261
5.82016
5.81493
5.80785
5.81008
5.80578
5.7936
5.78585
5.781
5.77841
5.77723
5.7769
5.77709
5.77758
5.77824
5.77895
5.77963
5.78016
5.78041
5.78024
5.7798
5.77916
5.77838
5.777
5.77443
5.7699
5.76145
5.76703
5.75667
5.74827
5.74587
5.74446
5.74384
5.74358
5.74356
5.74369
5.74393
5.74423
5.74459
5.74497
5.74529
5.74548
5.74528
5.74472
5.74409
5.74346
5.74296
5.74241
5.74046
5.73377
1135.59
1130.45
1283.86
1396.02
1143.83
1136.99
1076.82
937.773
936.068
791.901
726.237
761.89
716.465
745.329
762.923
761.763
770.054
781.276
779.433
777.63
778.031
777.143
776.291
775.38
776.598
776.28
775.719
774.832
773.773
773.184
773.031
773.103
569.544
551.311
532.252
511.397
7.55237
7.62913
7.70796
7.78273
7.62075
7.68924
7.78193
7.83388
7.54245
7.63455
7.74589
7.81483
7.49973
7.6023
7.72259
7.79636
7.4512
7.55874
7.68488
7.76398
7.40308
7.51166
7.64105
7.72336
7.35537
7.46273
7.59244
7.67641
7.30686
7.41159
7.54059
7.62445
7.25692
7.35844
7.48447
7.56724
7.20416
7.30168
7.42464
7.50523
7.14864
7.24169
7.35983
7.43811
7.09094
7.17899
7.29255
7.36737
7.03175
7.11449
7.22158
7.29255
6.96779
7.04595
7.14781
7.21432
6.8998
6.97305
7.06912
7.13268
6.82908
6.89706
6.98796
7.0477
6.75729
6.82016
6.9043
6.96014
6.68378
6.74142
6.81987
6.87129
6.60907
6.66142
6.73301
6.78065
6.53409
6.58113
6.64695
6.69013
6.45995
6.50198
6.56062
6.59945
6.38526
6.42225
6.47501
6.50923
6.31003
6.34198
6.38806
6.41872
6.23538
6.26236
6.30314
6.33011
6.16324
6.18572
6.22028
6.24396
6.09353
6.11179
6.14155
6.16189
6.02717
6.04157
6.06604
6.08393
5.96545
5.97642
5.99698
6.01217
5.9094
5.9177
5.93364
5.94635
5.85704
5.86303
5.87568
5.88575
5.80549
5.80904
5.81799
5.82673
5.75423
5.75431
5.76091
5.76993
5.72711
5.7257
5.72843
5.73461
1270.77
1071.6
1044.61
1063.58
1077.68
987.244
1057.91
1092.22
1092.47
1096.59
1095.51
1092.73
1090.78
1084.17
1083.28
1080.7
1081.69
1077.72
1024.94
930.106
984.524
960.945
889.108
829.021
907.833
975.034
1008.78
1036.05
1072.4
1090.87
1095.32
1094.15
1090.56
1085.89
1079.69
1077.35
1070.03
1073.88
762.538
764.155
778.469
756.994
734.881
763.837
741.038
765.806
772.266
796.559
827.45
864.616
894.744
898.733
888.528
875.793
864.803
859.079
846.214
770.409
771.64
769.821
760.104
736.862
724.548
747.26
747.16
740.291
732.722
724.65
716.691
709.521
703.863
699.727
695.83
696.25
727.839
760.009
773.852
771.408
769.127
765.621
764.101
759.965
753.462
746.649
739.774
732.47
724.816
717.143
709.844
703.286
697.825
693.689
691.239
691.614
709.534
773.502
771.276
768.993
766.639
763.364
758.646
752.846
746.461
739.737
732.64
725.198
717.527
709.971
703.005
696.828
691.83
688.711
688.873
691.726
773.016
770.883
768.587
765.977
762.651
758.229
752.828
746.78
740.293
733.435
726.15
718.277
711.694
701.634
678.128
638.438
592.179
560.439
572.977
773.089
771.293
769.273
766.811
763.654
757.689
734.575
703.461
665.967
621.906
564.237
472.088
356.15
258.724
184.925
134.632
91.0882
75.7988
106.734
478.315
445.393
414.171
379.764
336.206
278.219
225.176
171.425
118.948
69.6769
29.1445
17.3998
27.9557
28.258
18.6527
9.75838
10.443
12.9946
15.8515
7.83393
7.83245
7.82689
7.87187
7.94987
8.04984
8.18203
8.40359
10.0392
11.7933
11.8539
9.99576
8.55173
8.43283
8.29546
8.30337
8.30131
8.29513
8.29468
7.86263
7.87135
7.88851
7.92937
8.01115
8.16471
8.29336
8.43191
8.53544
8.53123
8.79586
9.16643
9.16909
8.38306
8.26517
8.27886
8.28014
8.2756
8.2721
7.85067
7.85096
7.86822
7.90404
8.50634
8.93258
8.96412
8.3988
8.08723
8.12507
8.72907
9.15303
8.40526
8.22913
8.24625
8.25716
8.25794
8.25131
8.24456
7.83231
7.829
7.84266
7.87023
8.22738
8.92998
8.97029
8.85571
8.05501
8.08956
8.11686
8.14489
8.17687
8.20159
8.21723
8.22507
8.22382
8.21658
8.20942
7.8039
7.79917
7.8122
7.83765
7.86197
7.89451
8.01897
8.03994
8.05045
8.05995
8.09031
8.11773
8.14375
8.16494
8.17823
8.18338
8.18094
8.17357
8.16653
7.76658
7.76241
7.77509
7.80136
7.83056
7.86283
7.89977
7.94179
7.98476
8.02185
8.05262
8.07943
8.10295
8.12099
8.13155
8.13495
8.13182
8.12439
8.11769
7.72184
7.71825
7.73152
7.75891
7.79049
7.82481
7.86209
7.90138
7.94051
7.97549
8.00574
8.03186
8.05356
8.06934
8.07829
8.08063
8.07724
8.07003
8.06383
7.67024
7.66714
7.68071
7.70891
7.74151
7.77664
7.81361
7.8513
7.88797
7.92142
7.95073
7.97583
7.99614
8.0106
8.01866
8.02066
8.01728
8.0105
8.00492
7.61275
7.60956
7.62316
7.65165
7.68469
7.71993
7.75617
7.79255
7.82764
7.8599
7.88849
7.91269
7.93194
7.94558
7.95325
7.95511
7.95204
7.94597
7.94096
7.54935
7.5462
7.55953
7.58792
7.62093
7.65599
7.69163
7.72688
7.7607
7.79195
7.81968
7.84316
7.86174
7.87488
7.88234
7.88439
7.88182
7.87649
7.87219
7.48109
7.47767
7.49055
7.51851
7.55113
7.58574
7.62073
7.65508
7.68787
7.71816
7.74509
7.76793
7.78603
7.79892
7.80642
7.80877
7.80689
7.80247
7.79877
7.40791
7.40467
7.41682
7.4441
7.47611
7.51007
7.54431
7.57781
7.6097
7.63915
7.66538
7.68768
7.70546
7.71825
7.72591
7.72879
7.72764
7.72403
7.72106
7.33076
7.32787
7.33901
7.36539
7.39661
7.42979
7.46322
7.49586
7.52692
7.55561
7.58122
7.60308
7.62061
7.63341
7.64137
7.64475
7.64439
7.64173
7.6393
7.24956
7.24751
7.25763
7.28295
7.31333
7.34563
7.37818
7.40997
7.44021
7.46819
7.49323
7.5147
7.53207
7.54494
7.5532
7.55722
7.55762
7.55575
7.55403
7.16622
7.16246
7.17256
7.19722
7.22661
7.25797
7.28962
7.32055
7.35002
7.37734
7.40188
7.42303
7.44029
7.4533
7.46195
7.46652
7.46768
7.46675
7.46553
7.07891
7.07473
7.08452
7.10835
7.13674
7.16712
7.19784
7.22793
7.25665
7.28336
7.30745
7.32836
7.3456
7.35882
7.36791
7.37315
7.375
7.37483
7.37446
6.98938
6.98482
6.99419
7.01706
7.04438
7.07371
7.10345
7.13265
7.16062
7.18673
7.21041
7.23111
7.24838
7.26188
7.27151
7.27738
7.28011
7.28066
7.2809
6.8977
6.8933
6.90218
6.92403
6.9502
6.9784
7.00709
7.03537
7.06256
7.08807
7.11135
7.13188
7.14922
7.16304
7.17318
7.17985
7.18337
7.18457
7.18543
6.80523
6.80071
6.8091
6.82983
6.85478
6.88178
6.90937
6.93669
6.96308
6.98797
7.01085
7.03122
7.04865
7.06281
7.07354
7.08087
7.08527
7.08734
7.08837
6.71184
6.70759
6.71541
6.73499
6.75867
6.78443
6.81088
6.83718
6.86273
6.88699
6.90946
6.92967
6.94719
6.96169
6.97296
6.98111
6.98631
6.98906
6.99055
6.61879
6.61441
6.62171
6.64011
6.66249
6.68695
6.7122
6.73746
6.76213
6.78572
6.80775
6.82777
6.84537
6.86019
6.87205
6.88086
6.88693
6.89051
6.89227
6.52568
6.52175
6.52859
6.54584
6.5669
6.59003
6.61404
6.63818
6.66192
6.68479
6.70634
6.72614
6.74377
6.75889
6.77125
6.78086
6.78771
6.79193
6.79424
6.43384
6.43028
6.43682
6.45295
6.47269
6.49445
6.51715
6.54011
6.56285
6.58494
6.60595
6.62545
6.64306
6.65841
6.67129
6.68149
6.68914
6.69413
6.69676
6.34348
6.34092
6.34724
6.3623
6.38071
6.40106
6.42239
6.4441
6.46576
6.48697
6.50735
6.52648
6.54398
6.55948
6.57271
6.58359
6.59187
6.59732
6.60053
6.25642
6.25462
6.26084
6.27485
6.29192
6.31081
6.33069
6.35105
6.37152
6.39175
6.41139
6.43004
6.44731
6.46283
6.47635
6.48758
6.49639
6.50242
6.50577
6.17298
6.1724
6.17855
6.19154
6.20723
6.2246
6.24293
6.26182
6.28096
6.30008
6.31886
6.33689
6.35379
6.36917
6.38272
6.39425
6.40327
6.40939
6.41296
6.0948
6.09515
6.10126
6.11319
6.12745
6.14319
6.15986
6.17712
6.19477
6.21262
6.23036
6.24761
6.26396
6.27901
6.29245
6.30381
6.31276
6.3188
6.32214
6.02202
6.0235
6.02948
6.0403
6.05305
6.06706
6.0819
6.09735
6.11331
6.12965
6.14615
6.16238
6.178
6.19251
6.20555
6.21664
6.22505
6.23035
6.23341
5.9554
5.95744
5.96321
5.97283
5.98394
5.99606
6.00888
6.02229
6.03629
6.05087
6.06579
6.08065
6.0953
6.1091
6.12164
6.13208
6.13977
6.14412
6.14647
5.89337
5.89622
5.90168
5.90998
5.91929
5.9293
5.93985
5.95093
5.96267
5.97507
5.98791
6.00091
6.01432
6.02717
6.03914
6.04928
6.05631
6.0592
6.06149
5.83511
5.83916
5.84433
5.85116
5.85845
5.86612
5.87414
5.88264
5.89172
5.90138
5.91145
5.92037
5.93415
5.946
5.95783
5.96824
5.97553
5.97713
5.97964
5.7822
5.78847
5.79302
5.7981
5.80314
5.80828
5.81364
5.81933
5.82543
5.83194
5.83755
5.84118
5.85645
5.86805
5.87913
5.88969
5.89807
5.89743
5.90024
5.74329
5.74694
5.74905
5.75107
5.75301
5.75497
5.757
5.75917
5.7615
5.76397
5.76542
5.76636
5.77478
5.78192
5.78822
5.79386
5.80031
5.79209
5.79682
)
;

boundaryField
{
    leftWall
    {
        type            fixedFluxPressure;
        gradient        uniform 0;
        value           nonuniform List<scalar> 
50
(
5879.03
5873.79
5867.64
5859.68
5850.41
5642.39
2430.35
1295.58
1294.31
1294.02
1296.72
1264.48
1143.7
926.422
777.569
780.22
747.878
208.621
6.57213
6.53902
6.54184
6.54957
6.56835
6.56275
6.54758
6.52988
6.50968
6.48682
6.46168
6.43457
6.40576
6.37552
6.34403
6.31153
6.27819
6.2442
6.2097
6.17484
6.13974
6.10451
6.06927
6.03419
5.99945
5.96527
5.93195
5.8998
5.86911
5.83952
5.81008
5.76703
)
;
    }
    rightWall
    {
        type            fixedFluxPressure;
        gradient        uniform 0;
        value           nonuniform List<scalar> 
50
(
2889.56
2882.45
2605.41
2262.7
1120.2
856.918
929.949
991.466
1024.94
1073.88
846.214
760.009
709.534
691.726
572.977
106.734
15.8515
8.29468
8.2721
8.24456
8.20942
8.16653
8.11769
8.06383
8.00492
7.94096
7.87219
7.79877
7.72106
7.6393
7.55403
7.46553
7.37446
7.2809
7.18543
7.08837
6.99055
6.89227
6.79424
6.69676
6.60053
6.50577
6.41296
6.32214
6.23341
6.14647
6.06149
5.97964
5.90024
5.79682
)
;
    }
    lowerWall
    {
        type            fixedFluxPressure;
        gradient        uniform 0;
        value           nonuniform List<scalar> 
62
(
5879.03
5897.2
5920.44
5947.47
5976.26
6004.77
6030.99
6053
6068.98
6077.51
6077.65
6068.91
6052.05
6028.9
6000.98
5969.95
5937.72
5906.93
5881.33
5865.06
5861.42
5872.12
5893.74
5893.74
5898.47
5902.48
5903.35
5898.81
5805.38
2991.37
1180.87
1135.59
1130.45
1283.86
1396.02
2402.39
2137.58
1597.27
1616.41
1471.19
1215.27
1094.18
1186.2
2402.39
2416.48
2440.78
2468.53
2511.68
2584.48
2660.32
2635.55
2700.15
2799.87
2882.52
2916.36
2923.41
2965.76
3037.7
3024.5
2984.71
2934.91
2889.56
)
;
    }
    atmosphere
    {
        type            prghTotalPressure;
        rho             rho;
        psi             none;
        gamma           1;
        p0              uniform 0;
        value           nonuniform List<scalar> 
46
(
5.72745
5.72835
5.72829
5.72871
5.72889
5.72896
5.72899
5.729
5.729
5.72899
5.72898
5.72897
5.72894
5.72891
5.72885
5.72872
5.72857
5.72841
5.72827
5.72814
5.72804
5.72844
5.7284
5.72855
5.72856
5.72854
5.72843
5.7287
5.72881
5.72885
5.72886
5.72887
5.72887
5.72886
5.72887
5.72887
5.72888
5.72884
5.72901
5.72885
5.72895
5.72894
5.72884
5.72861
5.7289
5.72851
)
;
        rho             rho;
    }
    defaultFaces
    {
        type            empty;
    }
}


// ************************************************************************* //
