/*--------------------------------*- C++ -*----------------------------------*\
  =========                 |
  \\      /  F ield         | OpenFOAM: The Open Source CFD Toolbox
   \\    /   O peration     | Website:  https://openfoam.org
    \\  /    A nd           | Version:  13
     \\/     M anipulation  |
\*---------------------------------------------------------------------------*/
FoamFile
{
    format      ascii;
    class       surfaceScalarField;
    location    "2.35";
    object      phi;
}
// * * * * * * * * * * * * * * * * * * * * * * * * * * * * * * * * * * * * * //

dimensions      [0 3 -1 0 0 0 0];

internalField   nonuniform List<scalar> 
4432
(
5.58282e-07
-5.58281e-07
1.34275e-06
-7.84471e-07
2.47528e-06
-1.13252e-06
3.78711e-06
-1.31183e-06
5.15634e-06
-1.36924e-06
6.49694e-06
-1.3406e-06
7.74435e-06
-1.24741e-06
8.84802e-06
-1.10368e-06
9.76276e-06
-9.1474e-07
1.04443e-05
-6.8154e-07
1.08533e-05
-4.08957e-07
1.09578e-05
-1.04595e-07
1.07679e-05
1.89912e-07
1.03007e-05
4.67245e-07
9.58016e-06
7.20534e-07
8.63083e-06
9.4933e-07
7.48034e-06
1.15049e-06
6.16209e-06
1.31826e-06
4.7125e-06
1.44959e-06
3.17461e-06
1.53789e-06
1.65049e-06
1.52412e-06
5.29136e-07
1.12135e-06
5.29139e-07
7.46033e-07
-1.30431e-06
1.74325e-06
-1.78168e-06
2.87243e-06
-2.26171e-06
4.09224e-06
-2.53164e-06
5.34543e-06
-2.62242e-06
6.5776e-06
-2.57277e-06
7.73908e-06
-2.40889e-06
8.78444e-06
-2.14904e-06
9.66877e-06
-1.79907e-06
1.03461e-05
-1.35888e-06
1.07729e-05
-8.3578e-07
1.09221e-05
-2.53765e-07
1.07868e-05
3.25231e-07
1.03878e-05
8.66198e-07
9.74749e-06
1.36088e-06
8.88862e-06
1.80819e-06
7.8363e-06
2.20281e-06
6.61969e-06
2.53487e-06
5.26917e-06
2.80011e-06
3.8137e-06
2.99336e-06
2.31688e-06
3.02094e-06
9.11746e-07
2.52649e-06
1.44087e-06
9.78493e-07
-2.2828e-06
2.04971e-06
-2.8529e-06
3.12184e-06
-3.33383e-06
4.2306e-06
-3.64041e-06
5.36208e-06
-3.7539e-06
6.48362e-06
-3.69432e-06
7.55604e-06
-3.48131e-06
8.53829e-06
-3.13129e-06
9.38743e-06
-2.64821e-06
1.00577e-05
-2.02919e-06
1.05048e-05
-1.28282e-06
1.06935e-05
-4.42509e-07
1.06159e-05
4.02885e-07
1.02885e-05
1.19356e-06
9.73207e-06
1.91731e-06
8.96688e-06
2.57338e-06
8.01519e-06
3.1545e-06
6.90473e-06
3.64533e-06
5.66281e-06
4.04202e-06
4.31267e-06
4.3435e-06
2.87642e-06
4.45719e-06
1.36284e-06
4.04007e-06
2.80371e-06
1.20577e-06
-3.48856e-06
2.30812e-06
-3.95524e-06
3.30987e-06
-4.33557e-06
4.31066e-06
-4.64119e-06
5.32865e-06
-4.77188e-06
6.34699e-06
-4.71265e-06
7.33449e-06
-4.4688e-06
8.25425e-06
-4.05104e-06
9.06642e-06
-3.46038e-06
9.72689e-06
-2.68966e-06
1.0192e-05
-1.74795e-06
1.0419e-05
-6.69439e-07
1.0396e-05
4.25821e-07
1.01378e-05
1.45179e-06
9.66322e-06
2.39186e-06
8.99091e-06
3.24568e-06
8.13875e-06
4.00666e-06
7.12974e-06
4.65432e-06
5.99455e-06
5.17721e-06
4.75052e-06
5.58752e-06
3.3843e-06
5.82339e-06
1.8047e-06
5.61966e-06
4.60839e-06
1.4301e-06
-4.91866e-06
2.52879e-06
-5.05393e-06
3.45809e-06
-5.26487e-06
4.36205e-06
-5.54514e-06
5.27974e-06
-5.68957e-06
6.20585e-06
-5.63876e-06
7.11508e-06
-5.37803e-06
7.97404e-06
-4.91e-06
8.74579e-06
-4.23212e-06
9.38972e-06
-3.33359e-06
9.86324e-06
-2.22147e-06
1.01218e-05
-9.27963e-07
1.01483e-05
3.99302e-07
9.95429e-06
1.64578e-06
9.55491e-06
2.79124e-06
8.96413e-06
3.83646e-06
8.20183e-06
4.76896e-06
7.29217e-06
5.56398e-06
6.26067e-06
6.2087e-06
5.12053e-06
6.72766e-06
3.8321e-06
7.11182e-06
2.20056e-06
7.25121e-06
6.80896e-06
1.64979e-06
-6.56844e-06
2.72514e-06
-6.12927e-06
3.6052e-06
-6.14493e-06
4.43041e-06
-6.37035e-06
5.25786e-06
-6.51702e-06
6.09577e-06
-6.47666e-06
6.92415e-06
-6.20641e-06
7.71327e-06
-5.69911e-06
8.42845e-06
-4.9473e-06
9.03863e-06
-3.94377e-06
9.50923e-06
-2.69206e-06
9.7894e-06
-1.20814e-06
9.85459e-06
3.34119e-07
9.71546e-06
1.78491e-06
9.38503e-06
3.12167e-06
8.87733e-06
4.34416e-06
8.20026e-06
5.44602e-06
7.37715e-06
6.38709e-06
6.44312e-06
7.14273e-06
5.40836e-06
7.76241e-06
4.21477e-06
8.30541e-06
2.61747e-06
8.8485e-06
9.42641e-06
1.92172e-06
-8.49015e-06
2.94976e-06
-7.1573e-06
3.78801e-06
-6.98316e-06
4.54152e-06
-7.12384e-06
5.28631e-06
-7.26179e-06
6.0419e-06
-7.23223e-06
6.791e-06
-6.9555e-06
7.50326e-06
-6.41136e-06
8.14678e-06
-5.59081e-06
8.68614e-06
-4.48313e-06
9.10218e-06
-3.1081e-06
9.37849e-06
-1.48445e-06
9.47966e-06
2.32946e-07
9.39551e-06
1.86905e-06
9.13223e-06
3.38494e-06
8.69897e-06
4.77741e-06
8.11476e-06
6.03021e-06
7.40727e-06
7.09456e-06
6.60947e-06
7.9405e-06
5.71738e-06
8.65449e-06
4.69904e-06
9.32372e-06
3.24605e-06
1.03015e-05
1.26724e-05
2.28533e-06
-1.07755e-05
3.2605e-06
-8.13246e-06
4.02954e-06
-7.75218e-06
4.68412e-06
-7.77841e-06
5.30738e-06
-7.88505e-06
5.93735e-06
-7.86219e-06
6.56466e-06
-7.58279e-06
7.16359e-06
-7.01029e-06
7.69691e-06
-6.12412e-06
8.14098e-06
-4.9272e-06
8.48992e-06
-3.45703e-06
8.74672e-06
-1.74124e-06
8.8568e-06
1.2286e-07
8.80466e-06
1.92119e-06
8.5987e-06
3.59089e-06
8.27253e-06
5.10357e-06
7.86605e-06
6.43668e-06
7.38441e-06
7.57619e-06
6.86347e-06
8.46143e-06
6.32977e-06
9.18818e-06
5.79057e-06
9.86291e-06
5.28002e-06
1.0812e-05
1.79524e-05
5.69947e-07
-5.69945e-07
1.2905e-06
-7.20554e-07
1.71102e-06
-4.20515e-07
1.33218e-06
3.78834e-07
6.96329e-08
1.26255e-06
-1.36177e-06
1.4314e-06
-2.97557e-06
1.6138e-06
-5.90337e-06
2.9278e-06
-8.01175e-06
2.10837e-06
-8.62251e-06
6.10758e-07
-8.12882e-06
-4.93691e-07
-7.5539e-06
-5.74926e-07
-8.39678e-06
8.42889e-07
-8.32627e-06
-7.05128e-08
-6.16021e-06
-2.16606e-06
-3.95465e-06
-2.20556e-06
-1.661e-06
-2.29365e-06
1.89403e-07
-1.8504e-06
1.89406e-07
1.03414e-06
-1.60407e-06
1.77989e-06
-1.4663e-06
2.05307e-06
-6.93701e-07
1.88104e-06
5.50868e-07
1.38515e-06
1.75843e-06
-5.55503e-07
3.37205e-06
-3.12634e-06
4.18463e-06
-4.80613e-06
4.60758e-06
-6.3621e-06
3.66434e-06
-7.39974e-06
1.64839e-06
-8.0038e-06
1.10369e-07
-8.00255e-06
-5.76179e-07
-7.3547e-06
1.95031e-07
-6.43342e-06
-9.91779e-07
-5.35635e-06
-3.24313e-06
-3.7193e-06
-3.8426e-06
-2.0073e-06
-4.00564e-06
-5.44485e-07
-3.31321e-06
-3.55071e-07
7.59988e-07
-2.36405e-06
1.64342e-06
-2.34973e-06
2.07886e-06
-1.12914e-06
2.61658e-06
1.31463e-08
2.77437e-06
1.60064e-06
4.23654e-07
5.72277e-06
-2.12416e-06
6.73245e-06
-3.61482e-06
6.09823e-06
-4.80048e-06
4.85e-06
-6.47614e-06
3.32405e-06
-7.7016e-06
1.33583e-06
-7.91251e-06
-3.65271e-07
-6.95313e-06
-7.64341e-07
-5.84031e-06
-2.1046e-06
-4.77787e-06
-4.30557e-06
-3.41178e-06
-5.2087e-06
-2.29365e-06
-5.12377e-06
-1.48251e-06
-4.12434e-06
-1.83759e-06
8.24374e-07
-3.18841e-06
1.51538e-06
-3.04072e-06
1.9869e-06
-1.60066e-06
2.64791e-06
-6.47865e-07
3.25612e-06
9.92434e-07
1.72786e-06
7.25103e-06
-1.44136e-07
8.60443e-06
-1.56464e-06
7.51874e-06
-2.36235e-06
5.6477e-06
-4.97692e-06
5.93862e-06
-6.9219e-06
3.2808e-06
-7.48327e-06
1.96102e-07
-6.60005e-06
-1.64756e-06
-5.25843e-06
-3.44621e-06
-4.27877e-06
-5.28522e-06
-3.02052e-06
-6.46694e-06
-1.89049e-06
-6.25378e-06
-1.20439e-06
-4.81044e-06
-3.04197e-06
1.64099e-06
-4.8294e-06
1.74688e-06
-3.14661e-06
2.05703e-06
-1.91081e-06
1.74459e-06
-3.35426e-07
1.8585e-06
8.78522e-07
2.23886e-06
6.87067e-06
1.91268e-06
8.93062e-06
1.31173e-06
8.11969e-06
1.0733e-06
5.88613e-06
-1.35784e-06
8.36976e-06
-4.1847e-06
6.10766e-06
-5.96388e-06
1.97528e-06
-5.88647e-06
-1.72497e-06
-4.91542e-06
-4.41726e-06
-4.18247e-06
-6.01817e-06
-2.89262e-06
-7.75679e-06
-9.51386e-07
-8.19502e-06
1.69139e-06
-7.45321e-06
-1.35059e-06
3.11328e-06
-7.94267e-06
2.78513e-06
-2.81846e-06
2.33994e-06
-1.46562e-06
1.41496e-06
5.89556e-07
9.50143e-07
1.34334e-06
1.782e-06
6.03882e-06
2.4049e-06
8.30772e-06
2.53804e-06
7.98655e-06
2.21871e-06
6.20546e-06
1.24135e-06
9.34713e-06
5.09623e-08
7.29805e-06
-2.27102e-06
4.29727e-06
-4.45642e-06
4.60425e-07
-4.89141e-06
-3.98226e-06
-4.67357e-06
-6.23602e-06
-3.15464e-06
-9.27572e-06
-8.46028e-07
-1.05036e-05
4.36497e-06
-1.26642e-05
3.0144e-06
4.95131e-06
-1.2894e-05
4.50725e-06
-2.3744e-06
3.06727e-06
-2.56375e-08
1.95603e-06
1.7008e-06
8.89569e-07
2.4098e-06
1.43382e-06
5.49457e-06
2.2189e-06
7.52264e-06
2.4755e-06
7.72996e-06
1.91829e-06
6.76268e-06
1.98447e-06
9.28095e-06
1.71261e-06
7.56991e-06
1.32089e-06
4.68899e-06
-1.15712e-06
2.93844e-06
-3.86425e-06
-1.27514e-06
-4.13845e-06
-5.96181e-06
-3.25247e-06
-1.01617e-05
-1.38356e-06
-1.23725e-05
8.87067e-07
-1.49348e-05
3.90146e-06
6.28932e-06
-1.91833e-05
5.67629e-06
-1.76137e-06
4.23172e-06
1.41894e-06
2.87145e-06
3.06107e-06
1.46527e-06
3.81598e-06
1.22226e-06
5.73757e-06
1.66838e-06
7.07652e-06
1.92829e-06
7.47004e-06
1.6332e-06
7.05777e-06
1.96458e-06
8.94958e-06
2.02131e-06
7.51319e-06
1.61447e-06
5.09584e-06
5.04106e-07
4.0488e-06
-1.32735e-06
5.56322e-07
-2.25186e-06
-5.03731e-06
-2.40118e-06
-1.00124e-05
-1.79632e-06
-1.29774e-05
-1.18598e-06
-1.55452e-05
2.71549e-06
3.28255e-06
-1.4058e-05
5.71593e-06
-1.05658e-05
7.09896e-06
-9.1352e-06
7.97958e-06
-8.65904e-06
8.7171e-06
-8.62256e-06
9.46281e-06
-8.60789e-06
1.02058e-05
-8.32581e-06
1.09334e-05
-7.73788e-06
1.16289e-05
-6.81964e-06
1.22716e-05
-5.56983e-06
1.28365e-05
-4.02202e-06
1.33207e-05
-2.22538e-06
1.374e-05
-2.9648e-07
1.40927e-05
1.56847e-06
1.43995e-05
3.28411e-06
1.46764e-05
4.82671e-06
1.49885e-05
6.12452e-06
1.53934e-05
7.17135e-06
1.58378e-05
8.01702e-06
1.64718e-05
8.5541e-06
1.7507e-05
8.82772e-06
1.92235e-05
9.0955e-06
9.58946e-06
2.75864e-05
9.25697e-07
-1.49837e-05
1.72483e-06
-1.1365e-05
1.98938e-06
-9.39977e-06
2.02352e-06
-8.69319e-06
2.10076e-06
-8.69981e-06
2.32163e-06
-8.82876e-06
2.63659e-06
-8.64078e-06
3.05251e-06
-8.1538e-06
3.57488e-06
-7.34201e-06
4.19387e-06
-6.18882e-06
4.91936e-06
-4.74751e-06
5.73892e-06
-3.04494e-06
6.67203e-06
-1.22958e-06
7.71954e-06
5.20953e-07
8.87185e-06
2.13181e-06
1.00725e-05
3.62609e-06
1.13448e-05
4.85216e-06
1.27075e-05
5.8087e-06
1.40392e-05
6.68536e-06
1.54268e-05
7.16651e-06
1.70003e-05
7.25423e-06
1.89875e-05
7.10826e-06
6.20498e-06
2.2372e-05
-1.13121e-06
-1.38525e-05
-2.23386e-06
-1.02623e-05
-3.34985e-06
-8.28378e-06
-4.34877e-06
-7.69428e-06
-4.97339e-06
-8.07521e-06
-5.16326e-06
-8.6389e-06
-5.11896e-06
-8.68509e-06
-4.83953e-06
-8.43324e-06
-4.32087e-06
-7.86067e-06
-3.59713e-06
-6.91257e-06
-2.67226e-06
-5.67238e-06
-1.54033e-06
-4.17687e-06
-2.59036e-07
-2.51087e-06
1.21675e-06
-9.54834e-07
2.84859e-06
4.99972e-07
4.49671e-06
1.97798e-06
6.14893e-06
3.19994e-06
7.84154e-06
4.1161e-06
9.52033e-06
5.00658e-06
1.11693e-05
5.51752e-06
1.26882e-05
5.73539e-06
1.39007e-05
5.89571e-06
5.30944e-06
1.47963e-05
-2.70484e-06
-1.11477e-05
-5.51202e-06
-7.45514e-06
-8.1361e-06
-5.65971e-06
-1.02154e-05
-5.61498e-06
-1.16046e-05
-6.68606e-06
-1.22668e-05
-7.97669e-06
-1.25718e-05
-8.3801e-06
-1.23674e-05
-8.63761e-06
-1.19057e-05
-8.32236e-06
-1.12088e-05
-7.60953e-06
-1.02505e-05
-6.63066e-06
-9.08455e-06
-5.34279e-06
-7.71988e-06
-3.87554e-06
-6.11871e-06
-2.556e-06
-4.36161e-06
-1.25713e-06
-2.60978e-06
2.26154e-07
-9.25353e-07
1.51553e-06
9.01783e-07
2.28897e-06
2.78997e-06
3.1184e-06
4.56257e-06
3.74493e-06
6.03857e-06
4.2594e-06
6.91118e-06
5.02311e-06
5.26663e-06
6.954e-06
-4.26459e-06
-6.88311e-06
-9.26305e-06
-2.45671e-06
-1.31887e-05
-1.73404e-06
-1.60911e-05
-2.71257e-06
-1.81516e-05
-4.62561e-06
-1.96712e-05
-6.45706e-06
-2.05857e-05
-7.46561e-06
-2.06882e-05
-8.5351e-06
-2.03696e-05
-8.64104e-06
-1.98472e-05
-8.13185e-06
-1.91096e-05
-7.36834e-06
-1.79729e-05
-6.47943e-06
-1.64552e-05
-5.39327e-06
-1.47235e-05
-4.28775e-06
-1.29131e-05
-3.06747e-06
-1.10105e-05
-1.67649e-06
-9.02563e-06
-4.69328e-07
-6.94942e-06
2.12761e-07
-4.86599e-06
1.03497e-06
-2.91738e-06
1.79633e-06
-1.17949e-06
2.52153e-06
4.41265e-07
3.40236e-06
3.62675e-06
2.08115e-06
-8.41976e-06
1.53659e-06
-1.4983e-05
4.10649e-06
-1.98165e-05
3.09942e-06
-2.33996e-05
8.70521e-07
-2.61286e-05
-1.89659e-06
-2.84387e-05
-4.14697e-06
-2.97509e-05
-6.15345e-06
-3.0183e-05
-8.10295e-06
-2.99313e-05
-8.89274e-06
-2.93136e-05
-8.74954e-06
-2.83753e-05
-8.3067e-06
-2.69255e-05
-7.92922e-06
-2.50111e-05
-7.30762e-06
-2.28578e-05
-6.44106e-06
-2.05833e-05
-5.34203e-06
-1.81221e-05
-4.13763e-06
-1.55338e-05
-3.0577e-06
-1.31154e-05
-2.20555e-06
-1.07373e-05
-1.34317e-06
-8.42406e-06
-5.1691e-07
-6.20461e-06
3.02086e-07
-3.87478e-06
1.07254e-06
1.31052e-06
-1.55856e-06
-1.17669e-05
1.33034e-05
-1.89203e-05
1.12598e-05
-2.47631e-05
8.94225e-06
-2.93841e-05
5.49154e-06
-3.29931e-05
1.7124e-06
-3.5598e-05
-1.5421e-06
-3.68441e-05
-4.90734e-06
-3.70722e-05
-7.8749e-06
-3.66385e-05
-9.32635e-06
-3.57558e-05
-9.63234e-06
-3.44322e-05
-9.63024e-06
-3.27285e-05
-9.63294e-06
-3.06177e-05
-9.4184e-06
-2.82078e-05
-8.85099e-06
-2.55852e-05
-7.96465e-06
-2.28167e-05
-6.90608e-06
-2.00327e-05
-5.84169e-06
-1.73544e-05
-4.8838e-06
-1.47112e-05
-3.98638e-06
-1.20727e-05
-3.15545e-06
-9.43803e-06
-2.33253e-06
-6.80408e-06
-1.56141e-06
-1.13068e-06
-4.36287e-06
-7.6848e-06
2.09882e-05
-1.64828e-05
2.00579e-05
-2.43714e-05
1.68308e-05
-3.05307e-05
1.16508e-05
-3.52218e-05
6.40356e-06
-3.89268e-05
2.1629e-06
-4.07818e-05
-3.05235e-06
-4.09454e-05
-7.71135e-06
-4.03412e-05
-9.93049e-06
-3.93402e-05
-1.06334e-05
-3.79767e-05
-1.09938e-05
-3.61759e-05
-1.14337e-05
-3.39431e-05
-1.16512e-05
-3.14072e-05
-1.13869e-05
-2.86416e-05
-1.07303e-05
-2.57108e-05
-9.83686e-06
-2.27808e-05
-8.77164e-06
-1.99327e-05
-7.73186e-06
-1.71218e-05
-6.79732e-06
-1.42442e-05
-6.03302e-06
-1.13323e-05
-5.2444e-06
-8.51695e-06
-4.3768e-06
-3.77395e-06
-5.87368e-06
1.52518e-07
2.08357e-05
-6.50502e-06
2.67154e-05
-1.76387e-05
2.79645e-05
-2.57529e-05
1.97649e-05
-3.24734e-05
1.3124e-05
-3.92436e-05
8.93314e-06
-4.18725e-05
-4.23493e-07
-4.23806e-05
-7.20329e-06
-4.1922e-05
-1.03891e-05
-4.08713e-05
-1.16841e-05
-3.93892e-05
-1.24759e-05
-3.74576e-05
-1.33653e-05
-3.51874e-05
-1.39214e-05
-3.26574e-05
-1.39169e-05
-2.99753e-05
-1.34123e-05
-2.71607e-05
-1.26514e-05
-2.42663e-05
-1.1666e-05
-2.13957e-05
-1.06024e-05
-1.85318e-05
-9.6612e-06
-1.56241e-05
-8.94072e-06
-1.27021e-05
-8.16635e-06
-9.83766e-06
-7.24123e-06
-6.49184e-06
-7.11977e-06
1.38946e-05
6.94062e-06
5.45919e-08
4.05552e-05
-1.19674e-05
3.99861e-05
-2.13297e-05
2.9127e-05
-2.87776e-05
2.05717e-05
-3.32647e-05
1.34202e-05
-3.73106e-05
3.6224e-06
-4.05097e-05
-4.00425e-06
-4.16176e-05
-9.28105e-06
-4.06831e-05
-1.26186e-05
-3.88475e-05
-1.43113e-05
-3.68698e-05
-1.53428e-05
-3.49887e-05
-1.58023e-05
-3.30988e-05
-1.58065e-05
-3.07783e-05
-1.57326e-05
-2.81981e-05
-1.52314e-05
-2.51949e-05
-1.4669e-05
-2.23907e-05
-1.34064e-05
-1.96666e-05
-1.23851e-05
-1.65454e-05
-1.20617e-05
-1.36975e-05
-1.10142e-05
-1.06092e-05
-1.03294e-05
-9.1144e-06
-7.98639e-06
-1.52984e-05
2.22386e-05
-2.49494e-06
2.77512e-05
-3.68801e-06
4.11786e-05
-9.60588e-06
3.50445e-05
-1.50979e-05
2.60635e-05
-1.90123e-05
1.73345e-05
-2.2894e-05
7.50412e-06
-2.50464e-05
-1.8518e-06
-2.49871e-05
-9.34024e-06
-2.30389e-05
-1.45665e-05
-1.98703e-05
-1.74795e-05
-1.65945e-05
-1.86181e-05
-1.44079e-05
-1.79883e-05
-1.47366e-05
-1.54772e-05
-1.81577e-05
-1.23107e-05
-2.30129e-05
-1.03754e-05
-2.70096e-05
-1.06716e-05
-2.85614e-05
-1.18539e-05
-2.9335e-05
-1.1611e-05
-3.13852e-05
-1.00111e-05
-3.22981e-05
-1.01009e-05
-3.09239e-05
-1.17029e-05
-1.15221e-05
-2.85157e-05
6.00035e-06
1.62383e-05
4.13545e-06
2.96161e-05
2.96922e-06
4.23449e-05
-1.4635e-06
3.94773e-05
-5.23258e-06
2.98327e-05
-7.87754e-06
1.99795e-05
-1.01726e-05
9.79919e-06
-1.22518e-05
2.27485e-07
-1.35351e-05
-8.05687e-06
-1.40119e-05
-1.40896e-05
-1.41564e-05
-1.73349e-05
-1.43769e-05
-1.83976e-05
-1.52005e-05
-1.71646e-05
-1.69395e-05
-1.37382e-05
-1.97216e-05
-9.52852e-06
-2.23206e-05
-7.77639e-06
-2.48712e-05
-8.12091e-06
-2.65965e-05
-1.01286e-05
-2.77904e-05
-1.0417e-05
-2.89877e-05
-8.81373e-06
-2.89702e-05
-1.01182e-05
-2.87392e-05
-1.19339e-05
-1.40144e-05
-2.62465e-05
2.88984e-06
1.33491e-05
-2.47539e-06
3.49818e-05
-3.26291e-06
4.31328e-05
-1.77193e-06
3.79866e-05
-1.40306e-06
2.9464e-05
-1.93496e-06
2.05116e-05
-3.41378e-06
1.12781e-05
-5.56626e-06
2.38006e-06
-7.84509e-06
-5.77799e-06
-1.03498e-05
-1.15849e-05
-1.31077e-05
-1.4577e-05
-1.62744e-05
-1.52309e-05
-1.94013e-05
-1.40379e-05
-2.14367e-05
-1.1703e-05
-2.18859e-05
-9.07961e-06
-2.18902e-05
-7.77241e-06
-2.1366e-05
-8.64534e-06
-2.16702e-05
-9.82458e-06
-2.19511e-05
-1.01363e-05
-2.13563e-05
-9.40879e-06
-2.20127e-05
-9.46195e-06
-2.20687e-05
-1.18779e-05
-1.30231e-05
-2.30599e-05
-9.98035e-06
2.33305e-05
-9.52684e-06
3.4529e-05
-4.09776e-06
3.77043e-05
-1.11623e-07
3.40009e-05
1.87533e-06
2.74773e-05
2.34223e-06
2.00449e-05
1.40375e-06
1.22167e-05
-7.29861e-07
4.51376e-06
-3.5875e-06
-2.92031e-06
-6.94149e-06
-8.23094e-06
-1.04041e-05
-1.11145e-05
-1.39127e-05
-1.17225e-05
-1.70302e-05
-1.09206e-05
-1.89835e-05
-9.75004e-06
-1.93525e-05
-8.71094e-06
-1.86827e-05
-8.4426e-06
-1.83116e-05
-9.01685e-06
-1.84564e-05
-9.68017e-06
-1.87597e-05
-9.83339e-06
-1.86708e-05
-9.49799e-06
-1.85142e-05
-9.61888e-06
-1.97156e-05
-1.06767e-05
-1.15559e-05
-2.11828e-05
-5.97848e-06
2.93098e-05
-4.79495e-06
3.33462e-05
-7.5388e-07
3.36637e-05
2.79645e-06
3.04509e-05
4.95342e-06
2.53207e-05
5.70876e-06
1.92898e-05
5.08932e-06
1.28363e-05
3.26087e-06
6.34231e-06
2.75155e-07
6.54527e-08
-3.11974e-06
-4.83604e-06
-6.58077e-06
-7.65349e-06
-9.79292e-06
-8.51045e-06
-1.23501e-05
-8.3636e-06
-1.39941e-05
-8.10629e-06
-1.47193e-05
-7.986e-06
-1.49575e-05
-8.20463e-06
-1.52562e-05
-8.71846e-06
-1.57653e-05
-9.17137e-06
-1.62941e-05
-9.30483e-06
-1.66194e-05
-9.17298e-06
-1.70222e-05
-9.21637e-06
-1.8006e-05
-9.69303e-06
-1.03986e-05
-1.91633e-05
-2.28534e-06
3.1596e-05
-6.74605e-07
3.17361e-05
2.552e-06
3.04376e-05
5.48276e-06
2.75205e-05
7.41749e-06
2.33862e-05
8.20731e-06
1.85002e-05
7.82905e-06
1.32147e-05
6.34208e-06
7.82938e-06
3.739e-06
2.6686e-06
5.66003e-07
-1.66302e-06
-2.67573e-06
-4.41177e-06
-5.5569e-06
-5.62933e-06
-7.773e-06
-6.14758e-06
-9.35395e-06
-6.52543e-06
-1.04131e-05
-6.92701e-06
-1.12005e-05
-7.41734e-06
-1.19685e-05
-7.95055e-06
-1.2781e-05
-8.359e-06
-1.35474e-05
-8.53854e-06
-1.41732e-05
-8.54742e-06
-1.47963e-05
-8.59342e-06
-1.56825e-05
-8.80682e-06
-9.52674e-06
-1.65543e-05
1.07874e-07
3.14886e-05
2.08839e-06
2.9756e-05
4.78822e-06
2.77381e-05
7.21754e-06
2.50915e-05
8.90567e-06
2.16983e-05
9.68081e-06
1.77252e-05
9.49776e-06
1.33979e-05
8.36483e-06
8.9624e-06
6.33866e-06
4.69484e-06
3.63525e-06
1.04043e-06
7.9282e-07
-1.56933e-06
-1.68557e-06
-3.15095e-06
-3.6787e-06
-4.15446e-06
-5.25481e-06
-4.94933e-06
-6.52283e-06
-5.65901e-06
-7.6143e-06
-6.32588e-06
-8.64413e-06
-6.92074e-06
-9.63575e-06
-7.36739e-06
-1.05417e-05
-7.63265e-06
-1.13271e-05
-7.76212e-06
-1.20517e-05
-7.86888e-06
-1.2828e-05
-8.03051e-06
-8.82253e-06
-1.35321e-05
1.35778e-06
3.01313e-05
3.48106e-06
2.76331e-05
5.82294e-06
2.53965e-05
7.89337e-06
2.30212e-05
9.39441e-06
2.01974e-05
1.01796e-05
1.69401e-05
1.01891e-05
1.33885e-05
9.41807e-06
9.7335e-06
7.90857e-06
6.2044e-06
5.8515e-06
3.09755e-06
3.60919e-06
6.73014e-07
1.53192e-06
-1.07364e-06
-2.5358e-07
-2.36894e-06
-1.78244e-06
-3.42044e-06
-3.1166e-06
-4.32481e-06
-4.32179e-06
-5.12065e-06
-5.44984e-06
-5.79264e-06
-6.50542e-06
-6.31176e-06
-7.46198e-06
-6.67606e-06
-8.29321e-06
-6.93091e-06
-9.03294e-06
-7.12918e-06
-9.73013e-06
-7.33321e-06
-8.25479e-06
-1.02977e-05
1.78247e-06
2.8349e-05
3.83137e-06
2.55843e-05
5.89143e-06
2.33366e-05
7.7106e-06
2.12022e-05
9.09284e-06
1.88153e-05
9.91663e-06
1.61164e-05
1.01215e-05
1.31837e-05
9.69736e-06
1.01578e-05
8.68705e-06
7.21476e-06
7.23013e-06
4.55452e-06
5.56817e-06
2.33502e-06
3.92338e-06
5.71192e-07
2.40294e-06
-8.48451e-07
1.01856e-06
-2.03602e-06
-2.49304e-07
-3.05689e-06
-1.42867e-06
-3.94121e-06
-2.53491e-06
-4.68633e-06
-3.56069e-06
-5.2859e-06
-4.48496e-06
-5.75173e-06
-5.29782e-06
-6.11805e-06
-6.00045e-06
-6.42648e-06
-6.60983e-06
-6.72382e-06
-7.75209e-06
-7.1123e-06
1.71373e-06
2.66355e-05
3.55135e-06
2.37469e-05
5.35862e-06
2.15294e-05
6.98294e-06
1.9578e-05
8.28263e-06
1.75157e-05
9.15543e-06
1.52437e-05
9.54309e-06
1.27961e-05
9.4311e-06
1.02698e-05
8.85377e-06
7.79215e-06
7.90957e-06
5.49877e-06
6.75214e-06
3.4925e-06
5.52842e-06
1.79497e-06
4.32076e-06
3.59259e-07
3.15996e-06
-8.75152e-07
2.05338e-06
-1.95024e-06
9.98333e-07
-2.8861e-06
-1.1575e-09
-3.68676e-06
-9.31029e-07
-4.35595e-06
-1.77396e-06
-4.90872e-06
-2.51032e-06
-5.38167e-06
-3.14684e-06
-5.78993e-06
-3.68993e-06
-6.18056e-06
-7.34489e-06
-4.09692e-06
1.43222e-06
2.52033e-05
2.9941e-06
2.2185e-05
4.55827e-06
1.99653e-05
6.00942e-06
1.81269e-05
7.23396e-06
1.62912e-05
8.14265e-06
1.4335e-05
8.6796e-06
1.22592e-05
8.82568e-06
1.01238e-05
8.60206e-06
8.01583e-06
8.07382e-06
6.02707e-06
7.33934e-06
4.22703e-06
6.49465e-06
2.63971e-06
5.6052e-06
1.24876e-06
4.70579e-06
2.43255e-08
3.814e-06
-1.05838e-06
2.9407e-06
-2.01273e-06
2.09932e-06
-2.8453e-06
1.30796e-06
-3.5645e-06
5.88175e-07
-4.18886e-06
-5.20826e-08
-4.74138e-06
-6.03683e-07
-5.23823e-06
-1.07843e-06
-5.70575e-06
-6.98812e-06
-1.43495e-06
1.1124e-06
2.4091e-05
2.39195e-06
2.09055e-05
3.72393e-06
1.86334e-05
5.01007e-06
1.68408e-05
6.15268e-06
1.51486e-05
7.07177e-06
1.3416e-05
7.71364e-06
1.16174e-05
8.05484e-06
9.78264e-06
8.10393e-06
7.96679e-06
7.90084e-06
6.2302e-06
7.50751e-06
4.62042e-06
6.98798e-06
3.1593e-06
6.39194e-06
1.84486e-06
5.75237e-06
6.63958e-07
5.09052e-06
-3.96468e-07
4.42167e-06
-1.34381e-06
3.76307e-06
-2.18662e-06
3.13333e-06
-2.93468e-06
2.54866e-06
-3.60411e-06
2.03003e-06
-4.2227e-06
1.591e-06
-4.79915e-06
1.25187e-06
-5.36645e-06
-6.60969e-06
8.73658e-07
8.33928e-07
2.32569e-05
1.86414e-06
1.98752e-05
2.98839e-06
1.75091e-05
4.11966e-06
1.57095e-05
5.17264e-06
1.40957e-05
6.07569e-06
1.2513e-05
6.77799e-06
1.09151e-05
7.25305e-06
9.30762e-06
7.49959e-06
7.7203e-06
7.53951e-06
6.19033e-06
7.41086e-06
4.74911e-06
7.15609e-06
3.41412e-06
6.81205e-06
2.18896e-06
6.40679e-06
1.06927e-06
5.96135e-06
4.90441e-08
5.49269e-06
-8.75086e-07
5.01583e-06
-1.70969e-06
4.54897e-06
-2.46773e-06
4.10968e-06
-3.16474e-06
3.70409e-06
-3.81707e-06
3.34536e-06
-4.44031e-06
3.02721e-06
-5.04822e-06
-6.32704e-06
2.74479e-06
6.28681e-07
2.26281e-05
1.46198e-06
1.90418e-05
2.4128e-06
1.65582e-05
3.40586e-06
1.47164e-05
4.3672e-06
1.31343e-05
5.23363e-06
1.16466e-05
5.95843e-06
1.01904e-05
6.51411e-06
8.75197e-06
6.89281e-06
7.34163e-06
7.10432e-06
5.97887e-06
7.17101e-06
4.68247e-06
7.12054e-06
3.46465e-06
6.97953e-06
2.33004e-06
6.77055e-06
1.27831e-06
6.51222e-06
3.07438e-07
6.22101e-06
-5.83804e-07
5.90988e-06
-1.39848e-06
5.59207e-06
-2.14983e-06
5.28126e-06
-2.85385e-06
4.99413e-06
-3.5299e-06
4.72755e-06
-4.17367e-06
4.47861e-06
-4.79912e-06
-6.13458e-06
4.28636e-06
5.00482e-07
2.21274e-05
1.19571e-06
1.83465e-05
2.01404e-06
1.57398e-05
2.89159e-06
1.38388e-05
3.76598e-06
1.22599e-05
4.58315e-06
1.08294e-05
5.30174e-06
9.47179e-06
5.89531e-06
8.15843e-06
6.35258e-06
6.8844e-06
6.67584e-06
5.65565e-06
6.87742e-06
4.48094e-06
6.97499e-06
3.36713e-06
6.98735e-06
2.31773e-06
6.93203e-06
1.3337e-06
6.82454e-06
4.14991e-07
6.67882e-06
-4.38011e-07
6.50602e-06
-1.22561e-06
6.31677e-06
-1.96049e-06
6.12471e-06
-2.66173e-06
5.93225e-06
-3.3374e-06
5.75253e-06
-3.99384e-06
5.58896e-06
-4.63546e-06
-5.96564e-06
5.42024e-06
4.43467e-07
2.16837e-05
1.05732e-06
1.77324e-05
1.78409e-06
1.50129e-05
2.57176e-06
1.30511e-05
3.36924e-06
1.14624e-05
4.13188e-06
1.00667e-05
4.8247e-06
8.77898e-06
5.42407e-06
7.55909e-06
5.91793e-06
6.39057e-06
6.30462e-06
5.26901e-06
6.59042e-06
4.19518e-06
6.78651e-06
3.17109e-06
6.90607e-06
2.19823e-06
6.96236e-06
1.27747e-06
6.96773e-06
4.0968e-07
6.93327e-06
-4.03479e-07
6.86876e-06
-1.16102e-06
6.78249e-06
-1.87415e-06
6.68026e-06
-2.55942e-06
6.57704e-06
-3.23411e-06
6.46856e-06
-3.8853e-06
6.3531e-06
-4.51986e-06
-5.85667e-06
6.24432e-06
4.45966e-07
2.12375e-05
1.02839e-06
1.71498e-05
1.70192e-06
1.43393e-05
2.4255e-06
1.23274e-05
3.15903e-06
1.07288e-05
3.86733e-06
9.35843e-06
4.52245e-06
8.12386e-06
5.10493e-06
6.97662e-06
5.60394e-06
5.89159e-06
6.01645e-06
4.85653e-06
6.34563e-06
3.86605e-06
6.59873e-06
2.91804e-06
6.78513e-06
2.01187e-06
6.91485e-06
1.14781e-06
6.99751e-06
3.27081e-07
7.04164e-06
-4.47536e-07
7.05504e-06
-1.17435e-06
7.04492e-06
-1.86394e-06
7.01743e-06
-2.53185e-06
6.97259e-06
-3.18923e-06
6.91976e-06
-3.83237e-06
6.86016e-06
-4.46016e-06
-5.74903e-06
6.75271e-06
4.9643e-07
2.07407e-05
1.08805e-06
1.6558e-05
1.74073e-06
1.36864e-05
2.42362e-06
1.16445e-05
3.10681e-06
1.00456e-05
3.76433e-06
8.7009e-06
4.37557e-06
7.51261e-06
4.92611e-06
6.4261e-06
5.40774e-06
5.40998e-06
5.81795e-06
4.44635e-06
6.15883e-06
3.52521e-06
6.43566e-06
2.64126e-06
6.65554e-06
1.79205e-06
6.8262e-06
9.7721e-07
6.95514e-06
1.98195e-07
7.04869e-06
-5.41022e-07
7.11357e-06
-1.23915e-06
7.15425e-06
-1.90456e-06
7.17226e-06
-2.54978e-06
7.17713e-06
-3.19404e-06
7.16239e-06
-3.81757e-06
7.12458e-06
-4.42223e-06
-5.6928e-06
7.06853e-06
5.82388e-07
2.01581e-05
1.21437e-06
1.59258e-05
1.87219e-06
1.30285e-05
2.53393e-06
1.09826e-05
3.17924e-06
9.40022e-06
3.79098e-06
8.08912e-06
4.35595e-06
6.94764e-06
4.8652e-06
5.91686e-06
5.31408e-06
4.96113e-06
5.70184e-06
4.05863e-06
6.03092e-06
3.19617e-06
6.306e-06
2.36622e-06
6.53307e-06
1.56503e-06
6.71852e-06
7.91813e-07
6.86839e-06
4.83838e-08
6.98747e-06
-6.60038e-07
7.08084e-06
-1.33246e-06
7.15213e-06
-1.97577e-06
7.20491e-06
-2.60248e-06
7.2328e-06
-3.22189e-06
7.24298e-06
-3.82766e-06
7.23492e-06
-4.41405e-06
-5.62172e-06
7.16401e-06
6.93205e-07
1.94646e-05
1.38784e-06
1.52309e-05
2.06957e-06
1.23466e-05
2.7249e-06
1.03272e-05
3.34238e-06
8.78269e-06
3.91332e-06
7.51817e-06
4.4317e-06
6.42925e-06
4.89428e-06
5.4543e-06
5.30043e-06
4.555e-06
5.65195e-06
3.70714e-06
5.95254e-06
2.89562e-06
6.20727e-06
2.11153e-06
6.42189e-06
1.35046e-06
6.60221e-06
6.11541e-07
6.7534e-06
-1.02743e-07
6.87933e-06
-7.8591e-07
6.98427e-06
-1.43733e-06
7.07024e-06
-2.06167e-06
7.13548e-06
-2.66765e-06
7.18484e-06
-3.27118e-06
7.20771e-06
-3.85046e-06
7.19624e-06
-4.40248e-06
-5.57021e-06
7.14491e-06
8.20348e-07
1.86441e-05
1.5922e-06
1.4459e-05
2.31007e-06
1.16286e-05
2.9687e-06
9.66851e-06
3.56525e-06
8.18611e-06
4.09909e-06
6.98431e-06
4.57125e-06
5.95709e-06
4.98412e-06
5.04144e-06
5.34135e-06
4.1978e-06
5.64762e-06
3.4009e-06
5.90848e-06
2.6348e-06
6.12994e-06
1.89011e-06
6.31816e-06
1.16229e-06
6.47892e-06
4.50824e-07
6.61713e-06
-2.40893e-07
6.73628e-06
-9.05002e-07
6.83951e-06
-1.5405e-06
6.92802e-06
-2.15012e-06
7.00206e-06
-2.74162e-06
7.0523e-06
-3.32137e-06
7.07988e-06
-3.87796e-06
7.07933e-06
-4.40181e-06
-5.48423e-06
6.99351e-06
9.58617e-07
1.76853e-05
1.81638e-06
1.36011e-05
2.57692e-06
1.0868e-05
3.24369e-06
9.0017e-06
3.82252e-06
7.60726e-06
4.32083e-06
6.486e-06
4.74655e-06
5.53138e-06
5.10768e-06
4.68034e-06
5.41207e-06
3.89344e-06
5.66744e-06
3.14556e-06
5.88132e-06
2.42096e-06
6.06101e-06
1.71046e-06
6.21343e-06
1.00992e-06
6.34478e-06
3.19515e-07
6.46007e-06
-3.56131e-07
6.56291e-06
-1.00779e-06
6.65597e-06
-1.63349e-06
6.73847e-06
-2.23256e-06
6.80622e-06
-2.8093e-06
6.85907e-06
-3.37418e-06
6.88443e-06
-3.90325e-06
6.87166e-06
-4.38897e-06
-5.41944e-06
6.80703e-06
1.10627e-06
1.65791e-05
2.05546e-06
1.26519e-05
2.86095e-06
1.00625e-05
3.53615e-06
8.3265e-06
4.09643e-06
7.047e-06
4.55778e-06
6.02467e-06
4.93527e-06
5.15391e-06
5.24243e-06
4.37321e-06
5.49119e-06
3.64471e-06
5.69208e-06
2.94471e-06
5.85452e-06
2.25855e-06
5.98711e-06
1.57792e-06
6.09765e-06
8.99411e-07
6.19314e-06
2.24075e-07
6.2791e-06
-4.42051e-07
6.35982e-06
-1.08846e-06
6.43694e-06
-1.71056e-06
6.50902e-06
-2.30457e-06
6.57317e-06
-2.87339e-06
6.61561e-06
-3.41659e-06
6.63545e-06
-3.92302e-06
6.62701e-06
-4.38042e-06
-5.32234e-06
6.53003e-06
1.26569e-06
1.53134e-05
2.31213e-06
1.16055e-05
3.1621e-06
9.2126e-06
3.84139e-06
7.64724e-06
4.37743e-06
6.51098e-06
4.79651e-06
5.60563e-06
5.12152e-06
4.82894e-06
5.37152e-06
4.12324e-06
5.56211e-06
3.45417e-06
5.70614e-06
2.80072e-06
5.81448e-06
2.15025e-06
5.89672e-06
1.49571e-06
5.96157e-06
8.34596e-07
6.01698e-06
1.68709e-07
6.06966e-06
-4.94694e-07
6.12474e-06
-1.14349e-06
6.18379e-06
-1.76958e-06
6.24371e-06
-2.36444e-06
6.29568e-06
-2.92532e-06
6.33552e-06
-3.45639e-06
6.34738e-06
-3.93484e-06
6.31941e-06
-4.35241e-06
-5.2309e-06
6.22811e-06
1.44491e-06
1.38686e-05
2.59833e-06
1.04522e-05
3.48986e-06
8.32115e-06
4.16309e-06
6.97409e-06
4.66315e-06
6.01098e-06
5.02992e-06
5.23891e-06
5.29529e-06
4.56361e-06
5.48367e-06
3.93491e-06
5.61353e-06
3.32435e-06
5.69909e-06
2.7152e-06
5.75187e-06
2.0975e-06
5.78185e-06
1.46576e-06
5.7984e-06
8.18087e-07
5.8106e-06
1.56537e-07
5.82706e-06
-5.11122e-07
5.85436e-06
-1.17076e-06
5.894e-06
-1.80919e-06
5.94128e-06
-2.41167e-06
5.98745e-06
-2.97146e-06
6.01483e-06
-3.48375e-06
6.01672e-06
-3.93669e-06
5.98581e-06
-4.32143e-06
-5.09812e-06
5.85313e-06
1.65932e-06
1.22095e-05
2.93654e-06
9.17511e-06
3.86254e-06
7.39527e-06
4.51078e-06
6.32593e-06
4.9551e-06
5.56674e-06
5.25427e-06
4.9398e-06
5.45027e-06
4.36766e-06
5.57191e-06
3.81332e-06
5.63895e-06
3.25734e-06
5.66547e-06
2.68872e-06
5.6623e-06
2.10069e-06
5.63895e-06
1.48914e-06
5.60496e-06
8.52104e-07
5.57074e-06
1.90783e-07
5.54759e-06
-4.87945e-07
5.54481e-06
-1.16796e-06
5.56501e-06
-1.82935e-06
5.60016e-06
-2.4468e-06
5.63465e-06
-3.00592e-06
5.65642e-06
-3.50551e-06
5.64586e-06
-3.9261e-06
5.59023e-06
-4.26579e-06
-4.97297e-06
5.46521e-06
1.93266e-06
1.02771e-05
3.35899e-06
7.74898e-06
4.30254e-06
6.45187e-06
4.8931e-06
5.73549e-06
5.25231e-06
5.20761e-06
5.46434e-06
4.72784e-06
5.58065e-06
4.25141e-06
5.63173e-06
3.76228e-06
5.63583e-06
3.25329e-06
5.60461e-06
2.71997e-06
5.54656e-06
2.15878e-06
5.46953e-06
1.5662e-06
5.38253e-06
9.39129e-07
5.29745e-06
2.7588e-07
5.22941e-06
-4.19877e-07
5.19317e-06
-1.1317e-06
5.19283e-06
-1.82898e-06
5.21682e-06
-2.47077e-06
5.24689e-06
-3.03596e-06
5.25559e-06
-3.5142e-06
5.23011e-06
-3.90059e-06
5.16074e-06
-4.19635e-06
-4.80183e-06
4.98966e-06
2.29636e-06
7.98104e-06
3.90229e-06
6.14328e-06
4.82442e-06
5.52993e-06
5.30445e-06
5.25559e-06
5.54108e-06
4.97109e-06
5.647e-06
4.62199e-06
5.67768e-06
4.2208e-06
5.65937e-06
3.78064e-06
5.60476e-06
3.30794e-06
5.52042e-06
2.80435e-06
5.41078e-06
2.26845e-06
5.28065e-06
1.69636e-06