/*--------------------------------*- C++ -*----------------------------------*\
  =========                 |
  \\      /  F ield         | OpenFOAM: The Open Source CFD Toolbox
   \\    /   O peration     | Website:  https://openfoam.org
    \\  /    A nd           | Version:  13
     \\/     M anipulation  |
\*---------------------------------------------------------------------------*/
FoamFile
{
    format      ascii;
    class       volScalarField;
    location    "2.35";
    object      rho;
}
// * * * * * * * * * * * * * * * * * * * * * * * * * * * * * * * * * * * * * //

dimensions      [1 -3 0 0 0 0 0];

internalField   nonuniform List<scalar> 
2268
(
13529
13529
13529
13529
13529
13529
13529
13529
13529
13529
13529
13529
13529
13529
13529
13529
13529
13529
13529
13528.3
13523.7
13521.6
13521.6
13529
13529
13529
13529
13529
13529
13529
13529
13529
13529
13529
13529
13529
13529
13529
13529
13529
13529
13529
13528.9
13528.7
13528.1
13524.8
13529
13529
13529
13529
13529
13529
13529
13529
13529
13529
13529
13529
13529
13529
13529
13529
13529
13529
13529
13529
13529
13529
13529
13529
13529
13529
13529
13529
13529
13529
13529
13529
13529
13529
13529
13529
13529
13529
13529
13529
13529
13529
13529
13529
13529
13529
13529
13529
13529
13529
13529
13529
13529
13529
13529
13529
13529
13529
13529
13529
13529
13529
13529
13529
13529
13529
13529
13529
13529
12846.9
12974.2
13069.2
13172.7
13293.6
13401.2
13477.8
13517.9
13529
13529
13529
13529
13529
13529
13529
13529
13529
13449.8
13227.9
13040.2
12904.8
12971.1
13264.9
3752.9
4145.66
4428.03
4756.78
5234.64
5869.8
6614.93
7400.25
8133.89
8707.4
8994.71
8910.18
8626.06
8214.56
7645.08
6933.29
6122.25
5377.42
4846.62
4434.85
4189.22
4368.97
5362.04
1000
1000
1000
999.998
999.999
1000
1000
1000
1000
1000
1022.73
1142.1
1161.2
1108.17
1046.31
1008.17
1000
1000.01
999.989
999.935
999.834
999.658
999.326
11676.8
11798.7
11935.9
11953.3
11953.4
11946.3
11889.9
9280.23
8751.09
8758.77
8754.88
8521.82
8356.83
8835.21
10323.9
10340
10320.9
10286.6
10291.1
7236.43
7156.21
7439.38
7788.74
8130.55
9769.27
10662.5
11215.5
11312.5
11320.8
11289.7
10630
9745.46
10141.9
10309.8
10325.4
10301.2
10286.5
10291.3
2641.71
2579.6
2377.74
2287.68
3161.19
3829.94
4667.46
6005.97
7428.89
10042.4
10604.4
10616.2
10345
10038.2
10219.8
10227.4
10247.4
9165.17
8023.09
2763.11
2823.05
2811.2
2770.49
2193.38
1279.87
1273.85
1884.5
2352.86
2489.01
4182.1
5361.71
5476.12
5335.35
5536.74
5446.18
4899.32
5449.77
6143.13
2153.6
2303.34
2310.19
2632.3
2298.71
1164.48
1123.68
1090.27
1317.89
1069.59
801.614
2210.08
3508.16
3448.02
2539.66
1910.17
1657.5
1202.72
1307.2
1291.19
1443.68
1919.81
1714.9
2064.16
1880.36
1557.35
1671.58
1918.01
1090.3
994.338
405.411
924.302
1540.96
1339.37
1072.83
793.299
788.607
418.855
954.645
939.793
947.957
1176.97
1597.04
1875.05
1953.78
1670.6
1277.87
1060.16
1004.65
831.432
291.716
280.651
581.608
913.147
999.862
998.648
638.525
1177.46
973.812
977.913
991.876
985.109
1544.39
1292.27
1015.16
1002.34
1003.29
1002.68
987.245
735.37
658.763
887.799
999.877
999.924
993.761
797.692
1000
1000
1000
999.999
999.997
1000
1000
1000
1000
1000
1000
1000
1000
1000
1000
1000
1000
999.999
999.995
999.996
999.998
999.999
1000
1000
1000
999.982
999.828
999.979
1000
1000
1000
1000
1000
1000
1000
1000
1000
1000
1000
1000
1000
1000
1000
998.637
989.674
990.939
1000
999.546
997.616
999.424
999.978
1000
1000
1000
1000
1000
1000
1000
999.797
999.733
1000
994.33
989.948
978.126
928.341
881.705
858.412
825.145
811.19
955.612
975.783
991.342
986.921
983.991
987.817
963.173
940.192
939.639
934.154
924.47
906.667
869.648
833.791
797.474
745.494
687.827
626.171
577.313
550.612
524.716
489.04
442.46
823.503
807.161
726.355
676.122
669.44
696.562
641.42
620.475
565.97
530.221
503.436
462.648
433.759
435.307
444.3
435.664
430.407
477.924
492.599
493.629
494.583
461.813
454.613
618.572
511.796
500.139
499.58
498.003
458.549
439.768
472.595
485.881
473.218
465.947
490.404
499.989
499.197
493.001
490.091
493.048
499.463
499.974
499.717
497.6
495.583
499.25
490.624
500.824
500.247
500.029
500
500
500
500
500
500
500
500
500
500
500
500
500
500
499.974
499.965
499.995
500.01
500.013
486.708
500.922
469.004
459.556
469.869
463.785
459.257
478.659
490.386
493.749
495.934
498.403
499.932
500
500
500
500
500
500
500
500
500
500.001
458.569
289.44
136.726
93.9754
72.807
62.3377
104.27
156.697
183.035
193.596
208.926
240.427
276.891
306.627
327.666
344.252
353.23
357.928
362.299
371.417
376.961
367.712
357.51
118.363
15.1866
1.01388
1.00611
1.00241
1.00118
1.0001
1.00014
1.00014
1.0001
1.00005
1.00001
1.00001
1.00005
1.00014
1.00014
2.56158
2.33096
3.1781
4.65343
1.86745
1.00001
1.00003
1.03806
1.01306
1.00452
1.00703
1.00597
1.00037
1.00017
1.00018
1.00006
1.00001
1.00001
1.00002
1.00002
1
1
1
1
1.00001
1.00001
1
1
1.00001
1.00005
1.00121
1.00103
1.00211
1.0204
1.03508
1.01249
1.00006
1.00019
1.00179
1.00916
1.002
1.00055
1.00011
1.00006
1.00005
1.00004
1.00005
1.00005
1.00004
1.00004
1.00004
1.00004
1.00005
1.00054
1.00105
1.00128
1.03306
1.03596
1.01503
1.00015
1.00547
1.04466
1.08251
1.02499
1.00273
1.00038
1.00011
1.00015
1.00019
1.00017
1.00011
1.00008
1.00007
1.00006
1.00004
1.00005
1.00061
1.00097
1.00181
1.01707
1.01857
1.00321
1.00007
1.00009
1.08146
1.0833
1.08475
1.03723
1.002
1.00088
1.00088
1.00088
1.00047
1.0002
1.00014
1.00011
1.00009
1.00006
1.00004
1.00045
1.00098
1.00136
1.00005
1.00003
1.00003
1.00003
1.00003
1.05267
1.08216
1.08413
1.05147
1.00315
1.00271
1.00235
1.00211
1.00081
1.00025
1.00017
1.00013
1.0001
1.00007
1.00004
1.0003
1.00064
1.00083
1.00009
1.00003
1.00004
1.00003
1.00003
1.00364
1.04849
1.05556
1.01487
1.00315
1.00318
1.00317
1.00295
1.00099
1.00025
1.00018
1.00014
1.00012
1.00008
1.00006
1.0002
1.00032
1.00033
1.00007
1.00005
1.00005
1.00005
1.00008
1.00022
1.00171
1.00055
1.00036
1.00151
1.00306
1.00244
1.00072
1.00039
1.00023
1.00014
1.0001
1.00009
1.00008
1.00006
1.00013
1.00015
1.00011
1.00006
1.00005
1.00005
1.00006
1.00007
1.00005
1.0001
1.00009
1.00014
1.00089
1.00108
1.00043
1.00019
1.0001
1.00012
1.00009
1.00007
1.00007
1.00005
1.00004
1.00008
1.00008
1.00006
1.00005
1.00004
1.00004
1.00004
1.00004
1.00002
1.00002
1.00002
1.00029
1.00051
1.00048
1.00014
1.00006
1.00005
1.00005
1.00005
1.00004
1.00003
1.00003
1.00003
1.00005
1.00006
1.00005
1.00004
1.00003
1.00003
1.00003
1.00002
1.00002
1.00002
1.00003
1.00017
1.00032
1.0002
1.00005
1.00003
1.00003
1.00002
1.00002
1.00002
1.00002
1.00002
1.00001
1.00005
1.00005
1.00004
1.00003
1.00002
1.00002
1.00002
1.00001
1.00001
1.00002
1.00003
1.00006
1.00007
1.00004
1.00003
1.00002
1.00001
1.00001
1.00001
1.00001
1.00001
1.00001
1.00001
1.00004
1.00004
1.00004
1.00003
1.00002
1.00001
1.00001
1.00001
1.00001
1.00001
1.00002
1.00002
1.00002
1.00001
1.00001
1.00001
1.00001
1.00001
1.00001
1.00001
1.00001
1
1
1.00003
1.00004
1.00003
1.00003
1.00002
1.00001
1.00001
1.00001
1.00001
1.00001
1.00001
1.00001
1.00001
1.00001
1.00001
1
1
1
1
1
1
1
1
1.00003
1.00003
1.00003
1.00002
1.00002
1.00001
1.00001
1.00001
1
1
1
1
1
1
1
1
1
1
1
1
1
1
1
1.00003
1.00002
1.00002
1.00002
1.00001
1.00001
1.00001
1
1
1
1
1
1
1
1
1
1
1
1
1
1
1
1
1.00002
1.00002
1.00002
1.00001
1.00001
1.00001
1
1
1
1
1
1
1
1
1
1
1
1
1
1
1
1
1
1.00002
1.00002
1.00001
1.00001
1.00001
1
1
1
1
1
1
1
1
1
1
1
1
1
1
1
1
1
1
1.00002
1.00001
1.00001
1.00001
1
1
1
1
1
1
1
1
1
1
1
1
1
1
1
1
1
1
1
1.00001
1.00001
1.00001
1
1
1
1
1
1
1
1
1
1
1
1
1
1
1
1
1
1
1
1
1.00001
1.00001
1
1
1
1
1
1
1
1
1
1
1
1
1
1
1
1
1
1
1
1
1
1.00001
1
1
1
1
1
1
1
1
1
1
1
1
1
1
1
1
1
1
1
1
1
1
1
1
1
1
1
1
1
1
1
1
1
1
1
1
1
1
1
1
1
1
1
1
1
1
1
1
1
1
1
1
1
1
1
1
1
1
1
1
1
1
1
1
1
1
1
1
1
1
1
1
1
1
1
1
1
1
1
1
1
1
1
1
1
1
1
1
1
1
1
1
1
1
1
1
1
1
1
1
1
1
1
1
1
1
1
1
1
1
1
1
1
1
1
1
1
1
1
1
1
1
1
1
1
1
1
1
1
1
1
1
1
1
1
1
1
1
1
1
1
1
1
1
1
1
1
1
1
1
1
1
1
1
1
1
1
1
1
1
1
1
1
1
1
1
1
1
1
1
1
1
1
1
1
1
1
1
1
1
1
1
1
1
1
1
1
1
1
1
1
1
1
1
1
1
1
1
1
1
1
1
1
1
1
1
1
1
1
1
1
1
1
1
1
1
1
1
1
1
1
1
1
1
1
1
1
1
1
1
1
1
1
1
1
1
1
1
1
1
1
1
1
1
1
1
1
1
1
1
1
1
1
1
1
1
1
1
1
1
1
1
1
1
1
1
1
1
1
1
1
1
1
1
1
1000
999.619
1290.66
1510.07
996.662
999.544
920.862
717.064
695.167
514.39
431.952
480.278
433.266
463.719
483.39
483.966
491.998
503.451
502.435
501.746
500.283
500.138
499.999
500.002
499.999
500
500.006
500.01
500.002
500.002
500.001
500
355.926
344.043
331.661
318.158
1.00004
1.00004
1.00005
1.00005
1.0001
1.00012
1.00015
1.00015
1.0001
1.00016
1.00015
1.00017
1.00007
1.00008
1.00011
1.00011
1.00004
1.00005
1.00006
1.00007
1.00004
1.00004
1.00004
1.00004
1.00004
1.00003
1.00003
1.00003
1.00005
1.00002
1.00003
1.00002
1.00004
1.00003
1.00002
1.00002
1.00002
1.00002
1.00002
1.00001
1.00001
1.00001
1.00001
1.00001
1.00001
1.00001
1.00001
1
1
1
1
1
1
1
1
1
1
1
1
1
1
1
1
1
1
1
1
1
1
1
1
1
1
1
1
1
1
1
1
1
1
1
1
1
1
1
1
1
1
1
1
1
1
1
1
1
1
1
1
1
1
1
1
1
1
1
1
1
1
1
1
1
1
1
1
1
1
1
1
1
1
1
1
1
1
1
1
1
1
1
1
1
1310.97
927.614
888.074
944.229
986.162
822.295
941.14
997.008
997.082
999.555
1000.96
1000.94
997.552
991.532
999.971
1000.08
999.818
990.223
882.715
718.442
792.805
759.681
661.458
578.238
698.217
803.645
858.722
902.596
958.764
989.651
999.441
1000.12
999.866
999.699
994.304
989.787
974.915
975.595
486.314
490.366
509.585
484.037
459.738
504.191
482.976
521.649
536.983
575.307
622.1
676.233
720.739
732.056
724.679
711.72
697.692
686.941
667.742
496.794
499.846
499.777
490.772
468.203
461.063
492.664
500.075
500.131
500.073
500.004
500.032
500.196
500.794
501.577
500.745
502.48
536.195
568.499
500.211
499.84
499.58
498.068
499.246
499.998
500
499.999
500.034
500.018
500.003
500.013
500.02
500.02
500.1
500.22
500.591
501.947
517.692
500.002
499.985
499.949
500.018
500.009
500
500
500
500
500
500
500.001
500.001
500.001
500.004
500.258
501.137
502.643
503.148
500.002
500.001
500.002
500.002
500.001
500
500
500
500
500
500.002
500.032
501.28
499.284
485.916
459.136
426.523
403.125
410.809
500.001
499.872
499.975
500.001
500
498.593
485.321
466.597
443.484
415.775
378.286
316.1
236.89
170.495
120.471
86.4463
56.6749
46.109
67.2016
296.963
276.126
256.446
234.836
207.459
170.918
137.521
103.652
70.5768
39.5238
13.9849
6.64794
13.3795
13.5718
7.49845
1.86095
2.27529
3.89149
5.70644
1.00005
1.00006
1.00038
1.00179
1.00823
1.02509
1.08073
1.19432
2.12374
3.1047
3.1043
2.00552
1.16969
1.10206
1.00543
1.00002
1.00016
1.00009
1.00005
1.00022
1.00038
1.00068
1.00064
1.01349
1.06937
1.12436
1.19444
1.24066
1.21226
1.32924
1.51597
1.51546
1.07537
1.00035
1.00047
1.00052
1.00025
1.00028
1.00017
1.00018
1.00027
1.00107
1.29129
1.48894
1.488
1.18048
1.00457
1.00544
1.30118
1.50744
1.1059
1.00085
1.00023
1.00044
1.00045
1.00027
1.0003
1.00012
1.00013
1.00023
1.00017
1.16146
1.4883
1.48851
1.41178
1.00015
1.00041
1.0009
1.00114
1.00097
1.00045
1.00022
1.00023
1.00015
1.00016
1.0003
1.00007
1.00009
1.00014
1.00024
1.00008
1.00207
1.04224
1.03094
1.0131
1.00023
1.00051
1.0006
1.00029
1.00018
1.00009
1.00005
1.00004
1.00012
1.00014
1.00005
1.00006
1.00009
1.00009
1.00007
1.00007
1.00008
1.00009
1.00011
1.00015
1.00021
1.00026
1.00026
1.00023
1.0001
1.00003
1.00004
1.00004
1.00002
1.00003
1.00003
1.00005
1.00006
1.00007
1.00014
1.00018
1.0002
1.00016
1.0001
1.00011
1.00017
1.00022
1.0002
1.0001
1.00003
1.00002
1.00001
1.00001
1.00002
1.00002
1.00002
1.00002
1.00003
1.00006
1.00016
1.00021
1.00019
1.00012
1.00004
1.00006
1.00009
1.00008
1.00003
1.00002
1.00001
1.00001
1.00001
1.00002
1.00001
1.00001
1.00001
1.00001
1.00001
1.00002
1.00007
1.00007
1.00004
1.00003
1.00002
1.00001
1.00001
1.00001
1.00001
1.00001
1.00001
1.00001
1.00001
1.00001
1.00001
1.00001
1.00001
1.00001
1.00001
1.00001
1.00001
1.00001
1.00002
1.00001
1.00001
1.00001
1.00001
1.00001
1.00001
1.00001
1.00001
1.00001
1.00001
1
1
1
1.00001
1.00001
1.00001
1.00001
1.00001
1.00001
1.00001
1.00001
1
1
1
1.00001
1.00001
1.00001
1
1
1
1
1
1
1
1
1
1
1
1
1
1
1
1
1.00001
1.00001
1.00001
1
1
1
1
1
1
1
1
1
1
1
1
1
1
1
1
1.00001
1.00002
1.00001
1
1
1
1
1
1
1
1
1
1
1
1
1
1
1
1
1.00001
1.00002
1.00002
1
1
1
1
1
1
1
1
1
1
1
1
1
1
1
1
1.00001
1.00003
1.00003
1
1
1
1
1
1
1
1
1
1
1
1
1
1
1
1
1.00001
1.00004
1.00004
1
1
1
1
1
1
1
1
1
1
1
1
1
1
1
1
1.00001
1.00004
1.00004
1
1
1
1
1
1
1
1
1
1
1
1
1
1
1
1
1.00002
1.00004
1.00004
1
1
1
1
1
1
1
1
1
1
1
1
1
1
1
1
1.00002
1.00005
1.00003
1
1
1
1
1
1
1
1
1
1
1
1
1
1
1
1.00001
1.00002
1.00005
1.00003
1
1
1
1
1
1
1
1
1
1
1
1
1
1
1
1.00001
1.00002
1.00005
1.00002
1
1
1
1
1
1
1
1
1
1
1
1
1
1
1
1.00001
1.00002
1.00004
1.00002
1
1
1
1
1
1
1
1
1
1
1
1
1
1
1
1.00001
1.00002
1.00003
1.00001
1
1
1
1
1
1
1
1
1
1
1
1
1
1
1
1.00001
1.00001
1.00001
1.00001
1
1
1
1
1
1
1
1
1
1
1
1
1
1
1
1.00001
1.00001
1.00001
1
1
1
1
1
1
1
1
1
1
1
1
1
1
1
1
1
1.00001
1
1
1
1
1
1
1
1
1
1
1
1
1
1
1
1
1
1
1
1
1
1
1
1
1
1
1
1
1
1
1
1
1
1
1
1
1
1
1
1
1
1
1
1
1
1
1
1
1
1
1
1
1
1
1
1
1
1
1
1
1
1
1
1
1
1
1
1
1
1
1
1
1
1
1
1
1
1
1
1
1
1
1
1
1
1
1
1
1
1
1
1
1
1
1
1
1
1
1
1
1
1
1
1
1
1
1
1
1
1
1
1
1
1
1
1
1
1
1
1
1
1
1
1
1
1
1
1
1
1
1
1
1
1
1
)
;

boundaryField
{
    leftWall
    {
        type            calculated;
        value           nonuniform List<scalar> 
50
(
13529
13529
13529
13529
13529
12846.9
3752.9
1000
1000
1000
1000
955.612
823.503
618.572
490.624
486.708
458.569
118.363
1.03806
1.00121
1.00054
1.00061
1.00045
1.0003
1.0002
1.00013
1.00008
1.00005
1.00005
1.00004
1.00003
1.00003
1.00003
1.00002
1.00002
1.00002
1.00001
1.00001
1.00001
1
1
1
1
1
1
1
1
1
1
1
)
;
    }
    rightWall
    {
        type            calculated;
        value           nonuniform List<scalar> 
50
(
10291.1
10291.3
8023.09
6143.13
1307.2
418.855
638.525
797.692
882.715
975.595
667.742
568.499
517.692
503.148
410.809
67.2016
5.70644
1.00005
1.00028
1.0003
1.0003
1.00014
1.00002
1.00001
1.00001
1.00001
1.00001
1.00001
1.00001
1.00001
1.00002
1.00003
1.00004
1.00004
1.00004
1.00003
1.00003
1.00002
1.00002
1.00001
1.00001
1
1
1
1
1
1
1
1
1
)
;
    }
    lowerWall
    {
        type            calculated;
        value           nonuniform List<scalar> 
62
(
13529
13529
13529
13529
13529
13529
13529
13529
13529
13529
13529
13529
13529
13529
13529
13529
13529
13529
13529
13528.3
13523.7
13521.6
13521.6
13521.6
13524.8
13529
13529
13529
13264.9
5362.04
999.326
1000
999.619
1290.66
1510.07
11676.8
7236.43
2641.71
2763.11
2153.6
1291.19
954.645
1177.46
11676.8
11798.7
11935.9
11953.3
11953.4
11946.3
11889.9
9280.23
8751.09
8758.77
8754.88
8521.82
8356.83
8835.21
10323.9
10340
10320.9
10286.6
10291.1
)
;
    }
    atmosphere
    {
        type            calculated;
        value           nonuniform List<scalar> 
46
(
1
1
1
1
1
1
1
1
1
1
1
1
1
1
1
1
1
1
1
1
1
1
1
1
1
1
1
1
1
1
1
1
1
1
1
1
1
1
1
1
1
1
1
1
1
1
)
;
    }
    defaultFaces
    {
        type            empty;
    }
}


// ************************************************************************* //
