/*--------------------------------*- C++ -*----------------------------------*\
  =========                 |
  \\      /  F ield         | OpenFOAM: The Open Source CFD Toolbox
   \\    /   O peration     | Website:  https://openfoam.org
    \\  /    A nd           | Version:  13
     \\/     M anipulation  |
\*---------------------------------------------------------------------------*/
FoamFile
{
    format      ascii;
    class       volVectorField;
    location    "2.35";
    object      U;
}
// * * * * * * * * * * * * * * * * * * * * * * * * * * * * * * * * * * * * * //

dimensions      [0 1 -1 0 0 0 0];

internalField   nonuniform List<vector> 
2268
(
(0.00474082 -0.00272602 0)
(0.0102516 -0.00296256 0)
(0.0214232 -0.00459395 0)
(0.0357035 -0.00545861 0)
(0.0511695 -0.00569555 0)
(0.0667699 -0.0054967 0)
(0.081664 -0.0049943 0)
(0.0951891 -0.00427992 0)
(0.106801 -0.00340243 0)
(0.115992 -0.00237906 0)
(0.122276 -0.00124232 0)
(0.125225 -7.73573e-05 0)
(0.124698 0.00112404 0)
(0.120874 0.0022257 0)
(0.11401 0.00321323 0)
(0.104381 0.00408735 0)
(0.0922807 0.00482979 0)
(0.0780708 0.00541048 0)
(0.0621676 0.005808 0)
(0.0450486 0.00598651 0)
(0.0270883 0.00567766 0)
(0.0111489 0.00361146 0)
(0.00399586 0.00193044 0)
(0.00476609 -0.00465665 0)
(0.0140234 -0.00707274 0)
(0.0260353 -0.00959542 0)
(0.0396784 -0.0109492 0)
(0.053941 -0.0113885 0)
(0.0682582 -0.0111563 0)
(0.0820438 -0.0104022 0)
(0.0947537 -0.00922603 0)
(0.10588 -0.00766302 0)
(0.114907 -0.00572019 0)
(0.121302 -0.00343783 0)
(0.124622 -0.00095811 0)
(0.12466 0.00152497 0)
(0.121545 0.00383691 0)
(0.115541 0.0059455 0)
(0.106901 0.00784438 0)
(0.0958891 0.00950183 0)
(0.0828292 0.0108741 0)
(0.0680909 0.0119697 0)
(0.0520383 0.0127426 0)
(0.034801 0.0127193 0)
(0.0182275 0.0100861 0)
(0.00507302 0.00509197 0)
(0.00623435 -0.00923073 0)
(0.0174759 -0.0122705 0)
(0.0293694 -0.0149913 0)
(0.0419038 -0.0166146 0)
(0.0547761 -0.0171855 0)
(0.0677396 -0.0168865 0)
(0.0803741 -0.0158575 0)
(0.0922145 -0.0142003 0)
(0.102785 -0.0119451 0)
(0.111583 -0.00908271 0)
(0.118074 -0.00565728 0)
(0.121754 -0.00181924 0)
(0.122357 0.00202423 0)
(0.119985 0.00561025 0)
(0.114879 0.00888696 0)
(0.107269 0.0118545 0)
(0.0973817 0.0144964 0)
(0.085511 0.0167537 0)
(0.0720056 0.0185388 0)
(0.057189 0.0198741 0)
(0.0410521 0.0202136 0)
(0.0246715 0.0176304 0)
(0.00837699 0.0111353 0)
(0.0081546 -0.0153869 0)
(0.02057 -0.0185474 0)
(0.032068 -0.0209613 0)
(0.0434544 -0.0226536 0)
(0.055012 -0.0233183 0)
(0.0667134 -0.0229762 0)
(0.0782619 -0.0217027 0)
(0.0892547 -0.0195798 0)
(0.0992543 -0.0166212 0)
(0.107783 -0.0128066 0)
(0.114335 -0.00817333 0)
(0.118356 -0.00295749 0)
(0.119499 0.00231125 0)
(0.117838 0.0072532 0)
(0.113601 0.0117888 0)
(0.106998 0.0159151 0)
(0.0982313 0.0195754 0)
(0.0875103 0.0226509 0)
(0.0751845 0.0251894 0)
(0.0616001 0.0271329 0)
(0.0466068 0.0280703 0)
(0.0306334 0.0263246 0)
(0.0124242 0.0200765 0)
(0.0106141 -0.0233095 0)
(0.0232328 -0.0250196 0)
(0.0342887 -0.0266229 0)
(0.0446129 -0.0282007 0)
(0.0550051 -0.0289496 0)
(0.0655871 -0.0286423 0)
(0.0761534 -0.0272419 0)
(0.0863475 -0.0247791 0)
(0.0957633 -0.0212558 0)
(0.103959 -0.0166194 0)
(0.110465 -0.0109456 0)
(0.114726 -0.00437547 0)
(0.116345 0.00230536 0)
(0.115343 0.00857075 0)
(0.111916 0.0143269 0)
(0.106226 0.0195606 0)
(0.0984072 0.0242075 0)
(0.0887781 0.0281551 0)
(0.0776407 0.0312935 0)
(0.0652211 0.033787 0)
(0.0513829 0.0354278 0)
(0.0359394 0.0351875 0)
(0.0166648 0.0307354 0)
(0.0138497 -0.0310813 0)
(0.0254049 -0.0297615 0)
(0.036378 -0.03043 0)
(0.0458906 -0.031811 0)
(0.055274 -0.0325954 0)
(0.0648153 -0.0323569 0)
(0.0744096 -0.0309561 0)
(0.0837368 -0.0283761 0)
(0.0924313 -0.0245816 0)
(0.100054 -0.0195144 0)
(0.106348 -0.013174 0)
(0.110762 -0.00570923 0)
(0.112724 0.0020259 0)
(0.112266 0.00926962 0)
(0.109542 0.0158928 0)
(0.104705 0.0219034 0)
(0.0979089 0.0272725 0)
(0.0892581 0.0318505 0)
(0.079133 0.0354789 0)
(0.0678968 0.0383766 0)
(0.0552595 0.0406121 0)
(0.0404283 0.0418486 0)
(0.022843 0.0397318 0)
(0.0182231 -0.0381699 0)
(0.0278081 -0.0343681 0)
(0.0388244 -0.0342387 0)
(0.0476052 -0.0354718 0)
(0.056064 -0.0363634 0)
(0.0646509 -0.0362503 0)
(0.0733188 -0.0348346 0)
(0.0817633 -0.0320472 0)
(0.089591 -0.0278378 0)
(0.0964285 -0.0221825 0)
(0.101934 -0.015127 0)
(0.105939 -0.00684832 0)
(0.108167 0.00178151 0)
(0.108259 0.00993353 0)
(0.106247 0.0174379 0)
(0.102243 0.024275 0)
(0.0962994 0.0303574 0)
(0.0888724 0.0353768 0)
(0.0802818 0.0395238 0)
(0.0705602 0.0429018 0)
(0.0597082 0.0459054 0)
(0.0464569 0.0493212 0)
(0.0324003 0.0545312 0)
(0.0231988 -0.0524883 0)
(0.0313008 -0.0402913 0)
(0.0420422 -0.038633 0)
(0.0498275 -0.0390711 0)
(0.0569629 -0.0396171 0)
(0.0641054 -0.0392913 0)
(0.0713579 -0.0376466 0)
(0.0784575 -0.0346017 0)
(0.0850706 -0.0301425 0)
(0.0905905 -0.0242115 0)
(0.0952377 -0.0170791 0)
(0.0988275 -0.00840708 0)
(0.10091 0.000894499 0)
(0.101271 0.00977594 0)
(0.0997576 0.0180584 0)
(0.0966015 0.0257675 0)
(0.0923798 0.0329219 0)
(0.0872166 0.039453 0)
(0.0813736 0.0444657 0)
(0.0753559 0.0488415 0)
(0.0693226 0.0530517 0)
(0.0608563 0.0595256 0)
(0.0608429 0.0919095 0)
(0.00305352 -0.00152031 0)
(0.01116 -0.0029195 0)
(0.0182688 -0.00203559 0)
(0.0183153 0.0012822 0)
(0.009524 0.00490662 0)
(-0.00591596 0.0051231 0)
(-0.0225669 0.00627097 0)
(-0.0514606 0.0134619 0)
(-0.0815445 0.00946835 0)
(-0.0963339 0.00182372 0)
(-0.0961477 -0.00330465 0)
(-0.0887254 -0.0025404 0)
(-0.0920193 0.00580222 0)
(-0.0983786 0.00102212 0)
(-0.083348 -0.00842592 0)
(-0.0586233 -0.00862857 0)
(-0.0331995 -0.00937796 0)
(-0.0062973 -0.00843197 0)
(0.00916067 0.00115662 0)
(0.00861975 -0.0046695 0)
(0.0166926 -0.00524801 0)
(0.0226356 -0.00246727 0)
(0.0233106 0.00259629 0)
(0.0213415 0.00756635 0)
(0.00765772 0.0119656 0)
(-0.0212049 0.0143594 0)
(-0.0464416 0.0184577 0)
(-0.0643935 0.0146668 0)
(-0.0790749 0.00637388 0)
(-0.0896164 -0.000482149 0)
(-0.092675 -0.00254047 0)
(-0.0887645 0.00234875 0)
(-0.0802915 -0.00263324 0)
(-0.0682958 -0.01365 0)
(-0.0524231 -0.0158469 0)
(-0.0329419 -0.0167022 0)
(-0.0137146 -0.0133709 0)
(-0.00296285 0.000362379 0)
(0.00654855 -0.00953849 0)
(0.0147009 -0.00918047 0)
(0.0218571 -0.00404674 0)
(0.0273202 0.00178905 0)
(0.0340236 0.00844557 0)
(0.0218008 0.0211186 0)
(-0.0110974 0.024945 0)
(-0.034419 0.0252111 0)
(-0.0473183 0.02027 0)
(-0.064198 0.0117499 0)
(-0.0826528 0.00331837 0)
(-0.0916716 -0.00214423 0)
(-0.0869314 -0.00130847 0)
(-0.073537 -0.00731137 0)
(-0.060926 -0.0180831 0)
(-0.0474553 -0.0219742 0)
(-0.0323739 -0.0221847 0)
(-0.0196626 -0.0180567 0)
(-0.0165104 -0.00507025 0)
(0.0078717 -0.0141642 0)
(0.0142183 -0.0137606 0)
(0.0210448 -0.0072385 0)
(0.026571 -0.00204783 0)
(0.0347028 0.00611989 0)
(0.0330624 0.0327516 0)
(0.0086678 0.0378105 0)
(-0.011359 0.0329954 0)
(-0.0201127 0.0249882 0)
(-0.0415721 0.019676 0)
(-0.0702431 0.00917146 0)
(-0.0849918 -0.00110361 0)
(-0.0826807 -0.00594706 0)
(-0.0680965 -0.0132985 0)
(-0.0547455 -0.0227768 0)
(-0.0426733 -0.027418 0)
(-0.0279045 -0.0269544 0)
(-0.0148187 -0.0219285 0)
(-0.0119807 -0.0165896 0)
(0.0199441 -0.0177246 0)
(0.0188462 -0.0152118 0)
(0.0229005 -0.00898264 0)
(0.0218343 -0.00283498 0)
(0.0205459 0.00433359 0)
(0.02422 0.0361116 0)
(0.0243928 0.045667 0)
(0.0181595 0.0395846 0)
(0.0159673 0.028607 0)
(0.00245791 0.0359243 0)
(-0.0340041 0.0213015 0)
(-0.0621239 0.00444045 0)
(-0.0695967 -0.00845351 0)
(-0.062358 -0.0190233 0)
(-0.0527927 -0.0274325 0)
(-0.0419632 -0.0338926 0)
(-0.0235605 -0.0331379 0)
(0.00303259 -0.0262571 0)
(0.0240551 -0.0151183 0)
(0.0395756 -0.0277856 0)
(0.032471 -0.0143324 0)
(0.0301226 -0.00872932 0)
(0.021337 -0.000282196 0)
(0.0117849 0.00499747 0)
(0.0146186 0.0310432 0)
(0.0245646 0.0417835 0)
(0.028944 0.0395908 0)
(0.0280293 0.0303123 0)
(0.0222924 0.0451294 0)
(0.00978625 0.0357977 0)
(-0.0122746 0.0132037 0)
(-0.0431714 -0.00606968 0)
(-0.0542615 -0.0219418 0)
(-0.0560207 -0.0310086 0)
(-0.0472708 -0.0422676 0)
(-0.0252584 -0.0453966 0)
(0.00836343 -0.0493787 0)
(0.0625581 0.00815277 0)
(0.0638848 -0.0565266 0)
(0.0536944 -0.0122854 0)
(0.0427389 -0.00422602 0)
(0.029052 0.00523953 0)
(0.0133856 0.00852628 0)
(0.0112929 0.0277679 0)
(0.0210254 0.0383485 0)
(0.0283117 0.0381872 0)
(0.0256668 0.0313053 0)
(0.0222127 0.0459735 0)
(0.0218137 0.0369389 0)
(0.0192654 0.0248153 0)
(0.00353406 0.00763475 0)
(-0.0330974 -0.0154088 0)
(-0.0475315 -0.0305076 0)
(-0.0439412 -0.048209 0)
(-0.0285465 -0.0582968 0)
(-0.00733881 -0.06942 0)
(0.0242392 0.0194983 0)
(0.0843815 -0.0834727 0)
(0.0669698 -0.0109207 0)
(0.0564844 0.00363377 0)
(0.0412199 0.011752 0)
(0.0220614 0.014702 0)
(0.0127791 0.0270125 0)
(0.0162746 0.0355271 0)
(0.0218599 0.0369682 0)
(0.0203991 0.0336955 0)
(0.0199093 0.044755 0)
(0.0231972 0.0372101 0)
(0.0225607 0.0242924 0)
(0.0150718 0.0198545 0)
(-0.00592602 0.000239235 0)
(-0.0230153 -0.0271096 0)
(-0.0281573 -0.0502533 0)
(-0.024519 -0.062169 0)
(-0.0201815 -0.0746128 0)
(-0.00160298 0.0169088 0)
(0.0126679 -0.0738854 0)
(0.0260176 -0.0580174 0)
(0.0348055 -0.0527718 0)
(0.0405251 -0.0512357 0)
(0.0447073 -0.0514291 0)
(0.0486561 -0.0514292 0)
(0.0527027 -0.0499065 0)
(0.0567048 -0.0464559 0)
(0.0605579 -0.0407854 0)
(0.0641703 -0.0330468 0)
(0.0674224 -0.0230427 0)
(0.0703642 -0.0120868 0)
(0.07284 -7.96993e-05 0)
(0.0748164 0.0116396 0)
(0.0765509 0.022482 0)
(0.0780852 0.0320817 0)
(0.0795747 0.0399362 0)
(0.081498 0.0458581 0)
(0.0837485 0.0507325 0)
(0.0863992 0.0541852 0)
(0.0903113 0.0570167 0)
(0.0972756 0.0611351 0)
(0.12077 0.0786687 0)
(0.000374615 -0.0818727 0)
(0.00840444 -0.0620396 0)
(0.0101702 -0.0521031 0)
(0.0106908 -0.0482783 0)
(0.0108142 -0.0477634 0)
(0.0115924 -0.0478075 0)
(0.0131085 -0.0463101 0)
(0.0150912 -0.0431749 0)
(0.0176266 -0.0383428 0)
(0.0206854 -0.0315811 0)
(0.0243152 -0.0235143 0)
(0.0284999 -0.013817 0)
(0.0332029 -0.00358515 0)
(0.0385498 0.00627665 0)
(0.044458 0.0153314 0)
(0.0508108 0.0235274 0)
(0.057459 0.0303233 0)
(0.0644904 0.0357759 0)
(0.0717656 0.040367 0)
(0.0789702 0.0430918 0)
(0.0866755 0.0440307 0)
(0.0955051 0.0438783 0)
(0.1122 0.0401872 0)
(-0.00704792 -0.0780347 0)
(-0.00892722 -0.0596704 0)
(-0.0152293 -0.0487329 0)
(-0.0210828 -0.0448497 0)
(-0.0255808 -0.0456376 0)
(-0.0277648 -0.0474395 0)
(-0.0279686 -0.0469071 0)
(-0.0270602 -0.0448137 0)
(-0.0248763 -0.040996 0)
(-0.0215063 -0.035396 0)
(-0.0170906 -0.0281166 0)
(-0.0115503 -0.0195703 0)
(-0.00504387 -0.0101892 0)
(0.00241443 -0.00121501 0)
(0.0108146 0.00708387 0)
(0.0197014 0.0150871 0)
(0.0285831 0.0217311 0)
(0.0375245 0.0269537 0)
(0.0466258 0.0318529 0)
(0.0556993 0.0344871 0)
(0.064181 0.0350971 0)
(0.0715466 0.0347307 0)
(0.0780973 0.0311626 0)
(-0.0128465 -0.0675399 0)
(-0.0232045 -0.0485157 0)
(-0.0375422 -0.0388133 0)
(-0.0499683 -0.0370524 0)
(-0.0592858 -0.0406961 0)
(-0.064887 -0.0453693 0)
(-0.067249 -0.0464743 0)
(-0.0674555 -0.0463389 0)
(-0.0655467 -0.0438566 0)
(-0.0623353 -0.0391945 0)
(-0.0578653 -0.0330118 0)
(-0.052224 -0.0252121 0)
(-0.0453438 -0.0164035 0)
(-0.0372768 -0.00849548 0)
(-0.02825 -0.00100223 0)
(-0.0187535 0.00700348 0)
(-0.00938031 0.0139436 0)
(-8.36994e-05 0.0184256 0)
(0.00999736 0.022767 0)
(0.0199866 0.0256166 0)
(0.0287369 0.0273162 0)
(0.035199 0.0299066 0)
(0.0378557 0.0286009 0)
(-0.0206701 -0.0532511 0)
(-0.0389664 -0.0299857 0)
(-0.0611634 -0.0225326 0)
(-0.0793573 -0.0244393 0)
(-0.0928866 -0.0323046 0)
(-0.102446 -0.0402824 0)
(-0.108664 -0.0433478 0)
(-0.111591 -0.0461495 0)
(-0.11078 -0.0453193 0)
(-0.108221 -0.0419267 0)
(-0.104893 -0.0370326 0)
(-0.0999396 -0.0310269 0)
(-0.0927744 -0.024289 0)
(-0.0838607 -0.0179516 0)
(-0.0742589 -0.0112448 0)
(-0.0643461 -0.00345305 0)
(-0.0536588 0.00307225 0)
(-0.0428123 0.00661455 0)
(-0.0317433 0.0111305 0)
(-0.0207019 0.0149754 0)
(-0.0108319 0.0187008 0)
(-0.00183744 0.023414 0)
(0.0068868 0.0246678 0)
(-0.0444902 -0.0178434 0)
(-0.0652486 0.000947525 0)
(-0.0943283 0.00183972 0)
(-0.116992 -0.0060313 0)
(-0.134025 -0.0180246 0)
(-0.147265 -0.0288167 0)
(-0.157319 -0.0368824 0)
(-0.16179 -0.0451281 0)
(-0.162031 -0.0471568 0)
(-0.159559 -0.0451924 0)
(-0.155215 -0.0420487 0)
(-0.148921 -0.0387765 0)
(-0.139907 -0.0341475 0)
(-0.128729 -0.0286922 0)
(-0.116739 -0.0223806 0)
(-0.103951 -0.015381 0)
(-0.0903701 -0.00913575 0)
(-0.0767643 -0.00484139 0)
(-0.0639029 -0.000249907 0)
(-0.051346 0.0041433 0)
(-0.0391702 0.00838522 0)
(-0.0270175 0.0127705 0)
(-0.01435 0.0140781 0)
(-0.0635 0.0390166 0)
(-0.0845952 0.0440743 0)
(-0.118335 0.0354963 0)
(-0.14642 0.019125 0)
(-0.168641 0.000985159 0)
(-0.185427 -0.014149 0)
(-0.196028 -0.0290034 0)
(-0.199591 -0.0428725 0)
(-0.198537 -0.0497268 0)
(-0.194768 -0.0505679 0)
(-0.188907 -0.0494554 0)
(-0.180744 -0.0484346 0)
(-0.170431 -0.0460913 0)
(-0.158181 -0.0422086 0)
(-0.144525 -0.0367309 0)
(-0.129977 -0.030521 0)
(-0.114948 -0.024586 0)
(-0.100221 -0.0196729 0)
(-0.0860023 -0.014879 0)
(-0.0718726 -0.0103164 0)
(-0.057706 -0.00594858 0)
(-0.0435143 -0.00178804 0)
(-0.0296772 0.000196216 0)
(-0.0408804 0.0936683 0)
(-0.0669645 0.0848255 0)
(-0.110333 0.0650352 0)
(-0.148861 0.0410449 0)
(-0.177988 0.0171831 0)
(-0.200888 -0.00304872 0)
(-0.215747 -0.0243983 0)
(-0.220778 -0.0426387 0)
(-0.21927 -0.05199 0)
(-0.214468 -0.0549945 0)
(-0.207912 -0.0562516 0)
(-0.199413 -0.0575303 0)
(-0.188578 -0.0576576 0)
(-0.17572 -0.0555333 0)
(-0.161471 -0.0515601 0)
(-0.145955 -0.0464047 0)
(-0.130018 -0.0407742 0)
(-0.114532 -0.0353483 0)
(-0.0994074 -0.0304142 0)
(-0.0843224 -0.0261834 0)
(-0.0685408 -0.0217216 0)
(-0.0529555 -0.0172486 0)
(-0.0382721 -0.014835 0)
(-0.00875893 0.126012 0)
(-0.0059048 0.117578 0)
(-0.0649676 0.0931483 0)
(-0.116744 0.0623398 0)
(-0.15806 0.0342102 0)
(-0.194988 0.0124909 0)
(-0.219406 -0.0154475 0)
(-0.228123 -0.0405854 0)
(-0.228028 -0.05263 0)
(-0.223206 -0.0566278 0)
(-0.215767 -0.0589179 0)
(-0.206407 -0.0617139 0)
(-0.195251 -0.0634795 0)
(-0.182445 -0.0627178 0)
(-0.16831 -0.059861 0)
(-0.153445 -0.0556008 0)
(-0.138083 -0.0501623 0)
(-0.122495 -0.044778 0)
(-0.107178 -0.0397863 0)
(-0.0914806 -0.0355197 0)
(-0.0761566 -0.0312383 0)
(-0.0605171 -0.0267227 0)
(-0.0451926 -0.0224949 0)
(0.00759999 0.117629 0)
(0.0585058 0.116477 0)
(-0.025698 0.113571 0)
(-0.0903329 0.0862979 0)
(-0.137706 0.0599586 0)
(-0.169156 0.0435513 0)
(-0.189161 -0.00904469 0)
(-0.210996 -0.0411534 0)
(-0.224012 -0.0509557 0)
(-0.222787 -0.0531513 0)
(-0.213656 -0.0558457 0)
(-0.203083 -0.0611671 0)
(-0.19267 -0.0643311 0)
(-0.182833 -0.0643921 0)
(-0.172698 -0.0620982 0)
(-0.158672 -0.0592779 0)
(-0.142988 -0.0540721 0)
(-0.127762 -0.0483076 0)
(-0.112476 -0.0437856 0)
(-0.0978445 -0.0401161 0)
(-0.0811965 -0.0353272 0)
(-0.0645912 -0.0275923 0)
(-0.0500322 -0.0248391 0)
(-0.151866 0.0129508 0)
(-8.73428e-05 0.26948 0)
(-0.0215201 0.333501 0)
(-0.029821 0.246953 0)
(-0.0679645 0.181691 0)
(-0.092958 0.124874 0)
(-0.113504 0.0570234 0)
(-0.131445 -0.00612423 0)
(-0.13685 -0.0556331 0)
(-0.13045 -0.0896124 0)
(-0.115734 -0.106359 0)
(-0.0968634 -0.113018 0)
(-0.0805986 -0.113396 0)
(-0.0753737 -0.109214 0)
(-0.0864184 -0.102848 0)
(-0.110709 -0.0888545 0)
(-0.136292 -0.0919597 0)
(-0.151039 -0.0869698 0)
(-0.1563 -0.0823972 0)
(-0.159442 -0.0823221 0)
(-0.171446 -0.0716406 0)
(-0.176832 -0.0898138 0)
(-0.155964 -0.075619 0)
(0.0183149 0.156412 0)
(0.021075 0.129283 0)
(0.0342912 0.223097 0)
(0.00443246 0.213441 0)
(-0.0209082 0.1585 0)
(-0.0367475 0.105122 0)
(-0.0488153 0.0484139 0)
(-0.060802 -0.00380074 0)
(-0.0699982 -0.0491953 0)
(-0.0744788 -0.0816688 0)
(-0.0758309 -0.0995108 0)
(-0.0761497 -0.105851 0)
(-0.0783528 -0.0991746 0)
(-0.0848931 -0.0777579 0)
(-0.0983922 -0.0528487 0)
(-0.113021 -0.0511614 0)
(-0.127102 -0.0454374 0)
(-0.139217 -0.0598796 0)
(-0.146168 -0.059993 0)
(-0.152348 -0.0458826 0)
(-0.155041 -0.0666404 0)
(-0.158225 -0.0559694 0)
(-0.153017 -0.0743387 0)
(0.0127656 -0.0165923 0)
(0.0023395 0.185896 0)
(-0.0199693 0.246123 0)
(-0.0132964 0.213414 0)
(-0.0077093 0.161906 0)
(-0.0079143 0.109715 0)
(-0.0134398 0.0565937 0)
(-0.0236038 0.00618804 0)
(-0.035757 -0.0383274 0)
(-0.0483193 -0.0706438 0)
(-0.0621487 -0.0878563 0)
(-0.0786377 -0.0929279 0)
(-0.0966918 -0.0874275 0)
(-0.111679 -0.0742356 0)
(-0.117993 -0.0562877 0)
(-0.118171 -0.0436972 0)
(-0.115745 -0.0529642 0)
(-0.114666 -0.060649 0)
(-0.117549 -0.0627654 0)
(-0.115806 -0.0567462 0)
(-0.114636 -0.0496045 0)
(-0.119516 -0.0724606 0)
(-0.125503 -0.0753929 0)
(-0.0551313 0.158212 0)
(-0.0544429 0.204823 0)
(-0.0361912 0.217738 0)
(-0.00909929 0.193477 0)
(0.00670795 0.153654 0)
(0.0131811 0.109527 0)
(0.0117711 0.0635905 0)
(0.00301802 0.0187623 0)
(-0.0108274 -0.0234094 0)
(-0.0275617 -0.0533668 0)
(-0.0461303 -0.0688811 0)
(-0.0654462 -0.0718889 0)
(-0.0844797 -0.0660388 0)
(-0.098961 -0.0568754 0)
(-0.104856 -0.0492027 0)
(-0.102646 -0.0477905 0)
(-0.09867 -0.0504513 0)
(-0.0979968 -0.0546999 0)
(-0.0997772 -0.0553976 0)
(-0.10052 -0.0527996 0)
(-0.0976769 -0.0549508 0)
(-0.102836 -0.060054 0)
(-0.115094 -0.0657302 0)
(-0.0353201 0.128774 0)
(-0.0322674 0.176074 0)
(-0.0152533 0.189687 0)
(0.00706664 0.17283 0)
(0.022675 0.142251 0)
(0.0304752 0.106374 0)
(0.0308135 0.0680207 0)
(0.0238615 0.0297085 0)
(0.0105499 -0.00740044 0)
(-0.00709508 -0.0349833 0)
(-0.0259875 -0.0502241 0)
(-0.0445409 -0.053839 0)
(-0.0607213 -0.0510345 0)
(-0.0722783 -0.0469186 0)
(-0.0782425 -0.0435892 0)
(-0.0800225 -0.0430475 0)
(-0.0808483 -0.0457137 0)
(-0.0829293 -0.0485848 0)
(-0.0859008 -0.0495599 0)
(-0.0881601 -0.0488345 0)
(-0.0886934 -0.0495216 0)
(-0.0948652 -0.0540533 0)
(-0.105016 -0.0585045 0)
(-0.0161021 0.161419 0)
(-0.00999214 0.173389 0)
(0.00502545 0.171309 0)
(0.0226418 0.155413 0)
(0.0360431 0.131018 0)
(0.0435095 0.101974 0)
(0.0446559 0.0706405 0)
(0.0395221 0.0388148 0)
(0.028156 0.00796467 0)
(0.0119975 -0.0170101 0)
(-0.00573994 -0.0320633 0)
(-0.0227629 -0.0376196 0)
(-0.0368071 -0.0385988 0)
(-0.04693 -0.0392208 0)
(-0.0536906 -0.0402869 0)
(-0.0582658 -0.0423101 0)
(-0.0621749 -0.045026 0)
(-0.0663157 -0.047186 0)
(-0.0705325 -0.0479822 0)
(-0.0742729 -0.0477202 0)
(-0.0764973 -0.0479519 0)
(-0.0831246 -0.0495178 0)
(-0.0918169 -0.0532921 0)
(-0.00369641 0.17352 0)
(0.00548472 0.166345 0)
(0.0186157 0.156367 0)
(0.0329589 0.14132 0)
(0.0443715 0.121302 0)
(0.051155 0.0977382 0)
(0.0528043 0.0720876 0)
(0.049231 0.0458705 0)
(0.0404791 0.0206288 0)
(0.0272933 -0.000864344 0)
(0.0117757 -0.0154175 0)
(-0.00296449 -0.0230526 0)
(-0.0151022 -0.0274092 0)
(-0.0245432 -0.0308881 0)
(-0.0319862 -0.0341382 0)
(-0.0381386 -0.037385 0)
(-0.0437207 -0.0403898 0)
(-0.0490628 -0.0426112 0)
(-0.0540914 -0.0437597 0)
(-0.0585834 -0.0441101 0)
(-0.0617993 -0.0444245 0)
(-0.0683155 -0.0452085 0)
(-0.0758117 -0.0492298 0)
(0.00282722 0.168185 0)
(0.0133612 0.155058 0)
(0.0252119 0.142942 0)
(0.0373815 0.129378 0)
(0.0472559 0.112803 0)
(0.0535472 0.0935373 0)
(0.05574 0.0725257 0)
(0.053676 0.0509298 0)
(0.0473725 0.0301376 0)
(0.037422 0.0120138 0)
(0.0254066 -0.00156012 0)
(0.0134529 -0.0107531 0)
(0.00301093 -0.0172148 0)
(-0.00581162 -0.0224333 0)
(-0.0133873 -0.0269518 0)
(-0.0201263 -0.0309783 0)
(-0.0263384 -0.0344053 0)
(-0.0321344 -0.0369854 0)
(-0.0374503 -0.0386586 0)
(-0.0422774 -0.0396698 0)
(-0.0456309 -0.0404261 0)
(-0.0519933 -0.0413112 0)
(-0.0587896 -0.0458813 0)
(0.00524424 0.15801 0)
(0.0156527 0.143288 0)
(0.0263469 0.131056 0)
(0.0369555 0.118967 0)
(0.0457705 0.105082 0)
(0.0518224 0.0892177 0)
(0.0546385 0.0719301 0)
(0.0540314 0.0541012 0)
(0.0500517 0.0368178 0)
(0.0431614 0.0213782 0)
(0.0344607 0.00883167 0)
(0.0253591 -0.000759547 0)
(0.0167695 -0.00827278 0)
(0.00898523 -0.0144546 0)
(0.00191105 -0.0197532 0)
(-0.00463238 -0.0243591 0)
(-0.0107487 -0.0282182 0)
(-0.0164211 -0.0312457 0)
(-0.0215866 -0.0334852 0)
(-0.0262222 -0.0351561 0)
(-0.0296058 -0.0365088 0)
(-0.0354466 -0.0378091 0)
(-0.0415628 -0.0430812 0)
(0.00528814 0.148086 0)
(0.014681 0.132669 0)
(0.024118 0.120649 0)
(0.0334626 0.109733 0)
(0.0414868 0.0978792 0)
(0.0474311 0.0846378 0)
(0.0508651 0.0702953 0)
(0.0515925 0.0554804 0)
(0.0496482 0.0409991 0)
(0.0453845 0.0277244 0)
(0.0395306 0.0163295 0)
(0.0329747 0.00691389 0)
(0.0263767 -0.000889897 0)
(0.0199936 -0.00752867 0)
(0.0139027 -0.0132615 0)
(0.00809909 -0.0182185 0)
(0.00258294 -0.0224205 0)
(-0.00255321 -0.0258739 0)
(-0.00723536 -0.0286461 0)
(-0.0115243 -0.0309282 0)
(-0.0144133 -0.0328569 0)
(-0.019947 -0.0347123 0)
(-0.0255907 -0.0406564 0)
(0.00432464 0.13952 0)
(0.0122986 0.123503 0)
(0.0204017 0.111587 0)
(0.028598 0.101461 0)
(0.0359257 0.0910712 0)
(0.0417516 0.0798048 0)
(0.0456812 0.0677448 0)
(0.0475113 0.0553048 0)
(0.0472405 0.0430498 0)
(0.0451047 0.0315737 0)
(0.0415757 0.0213225 0)
(0.0372238 0.0124261 0)
(0.0325012 0.00474007 0)
(0.0276663 -0.00195164 0)
(0.022831 -0.00782627 0)
(0.018074 -0.0129708 0)
(0.0134652 -0.017405 0)
(0.00911551 -0.0211669 0)
(0.0051074 -0.024362 0)
(0.00149286 -0.0271513 0)
(-0.00107082 -0.0296166 0)
(-0.00605895 -0.0319615 0)
(-0.0111088 -0.0385745 0)
(0.0031725 0.132667 0)
(0.00968497 0.11588 0)
(0.0164698 0.10381 0)
(0.0235854 0.0940945 0)
(0.0302295 0.0846779 0)
(0.0358533 0.0748392 0)
(0.040092 0.0645035 0)
(0.0427372 0.0539039 0)
(0.0437473 0.0434134 0)
(0.0432591 0.0334289 0)
(0.0415672 0.0242573 0)
(0.0390357 0.0160257 0)
(0.0359848 0.00869841 0)
(0.0326307 0.00217488 0)
(0.0291074 -0.00363533 0)
(0.0255039 -0.00879327 0)
(0.0219298 -0.0133443 0)
(0.0185079 -0.0173283 0)
(0.0153108 -0.020838 0)
(0.0123164 -0.0240091 0)
(0.0104485 -0.0269175 0)
(0.00567631 -0.0297261 0)
(0.000946763 -0.0365532 0)
(0.00218709 0.127485 0)
(0.00740548 0.109717 0)
(0.013019 0.0972317 0)
(0.0191499 0.0875963 0)
(0.0251203 0.0787515 0)
(0.0304514 0.0698937 0)
(0.0348081 0.0608222 0)
(0.0379826 0.0516243 0)
(0.0399007 0.0425206 0)
(0.0406238 0.0337654 0)
(0.0403264 0.0255662 0)
(0.0392398 0.018031 0)
(0.0375851 0.0111722 0)
(0.0355386 0.00494944 0)
(0.033227 -0.000681518 0)
(0.0307412 -0.00574419 0)
(0.0281891 -0.010288 0)
(0.0256894 -0.0143771 0)
(0.0233064 -0.0180887 0)
(0.0210759 -0.0215461 0)
(0.0195826 -0.0248152 0)
(0.0156455 -0.0279961 0)
(0.0115462 -0.034842 0)
(0.00149482 0.123627 0)
(0.0057021 0.104768 0)
(0.0103546 0.09169 0)
(0.0156392 0.0818965 0)
(0.0209772 0.0733227 0)
(0.0259545 0.0651003 0)
(0.0302707 0.0569291 0)
(0.0337266 0.0487801 0)
(0.0362285 0.0407547 0)
(0.0377862 0.0329995 0)
(0.0384948 0.0256462 0)
(0.0384977 0.0187754 0)
(0.0379462 0.0124132 0)
(0.0369744 0.00655199 0)
(0.0356947 0.0011721 0)
(0.0341937 -0.00373542 0)
(0.0325611 -0.00819453 0)
(0.0309067 -0.0122847 0)
(0.0292861 -0.0160878 0)
(0.0276338 -0.0197001 0)
(0.026834 -0.0231449 0)
(0.0234408 -0.0265125 0)
(0.0198617 -0.0335873 0)
(0.00110386 0.120667 0)
(0.00460748 0.100722 0)
(0.00855226 0.0869749 0)
(0.0131599 0.0768859 0)
(0.0179397 0.0683834 0)
(0.0225414 0.0605491 0)
(0.0267042 0.053005 0)
(0.0302467 0.0456313 0)
(0.0330686 0.0384368 0)
(0.0351493 0.0314855 0)
(0.0365337 0.0248488 0)
(0.037308 0.0185776 0)
(0.0375741 0.0126958 0)
(0.0374313 0.00720739 0)
(0.0369701 0.00210889 0)
(0.0362724 -0.00260248 0)
(0.0354054 -0.00693233 0)
(0.0344632 -0.0109511 0)
(0.0334841 -0.0147601 0)
(0.0324935 -0.0184239 0)
(0.0319986 -0.0219506 0)
(0.0293226 -0.0253869 0)
(0.0264137 -0.0325999 0)
(0.000987573 0.118195 0)
(0.00408179 0.0972593 0)
(0.00756412 0.0828612 0)
(0.0116736 0.0724304 0)
(0.0159924 0.0638913 0)
(0.0202306 0.0562865 0)
(0.0241719 0.0491789 0)
(0.0276595 0.0423787 0)
(0.0305986 0.0358238 0)
(0.0329548 0.0295144 0)
(0.0347442 0.0234739 0)
(0.0360173 0.0177252 0)
(0.0368422 0.0122823 0)
(0.0372916 0.00715108 0)
(0.0374361 0.0023348 0)
(0.0373437 -0.00216087 0)
(0.0370685 -0.00633319 0)
(0.0366939 -0.0102443 0)
(0.0362515 -0.0139942 0)
(0.0356572 -0.0176464 0)
(0.0357159 -0.0211868 0)
(0.0333816 -0.0246372 0)
(0.0308061 -0.0318467 0)
(0.00110226 0.115859 0)
(0.00403195 0.0940909 0)
(0.00728188 0.0791314 0)
(0.0110646 0.0683882 0)
(0.0150273 0.0597812 0)
(0.0189375 0.0523234 0)
(0.0226244 0.045533 0)
(0.0259623 0.0391676 0)
(0.0288703 0.0331114 0)
(0.031313 0.0273164 0)
(0.0332931 0.021768 0)
(0.0348409 0.0164646 0)
(0.0360032 0.0114084 0)
(0.0368332 0.00660266 0)
(0.0373858 0.00205333 0)
(0.0377135 -0.00222755 0)
(0.0378636 -0.00623191 0)
(0.0379013 -0.0100181 0)
(0.0378427 -0.0136718 0)
(0.0376913 -0.0172742 0)
(0.0378716 -0.020778 0)
(0.0360739 -0.0241995 0)
(0.0339899 -0.0312999 0)
(0.00140444 0.113364 0)
(0.00436304 0.0909703 0)
(0.00757247 0.0755931 0)
(0.0111787 0.0646241 0)
(0.014886 0.0559787 0)
(0.0185144 0.0486469 0)
(0.0219395 0.0421133 0)
(0.0250691 0.036097 0)
(0.027843 0.0304428 0)
(0.0302337 0.0250666 0)
(0.0322414 0.0199252 0)
(0.0338875 0.0149971 0)
(0.0352064 0.0102736 0)
(0.0362394 0.00575411 0)
(0.0370292 0.00144595 0)
(0.0376157 -0.00263307 0)
(0.0380369 -0.00647373 0)
(0.0383545 -0.0101283 0)
(0.03857 -0.013671 0)
(0.0385925 -0.0171901 0)
(0.0391301 -0.0206147 0)
(0.0374897 -0.0239538 0)
(0.0356593 -0.0308805 0)
(0.00184701 0.110487 0)
(0.00497418 0.0877032 0)
(0.00829834 0.0720873 0)
(0.0118504 0.0610203 0)
(0.015389 0.0524113 0)
(0.0187831 0.0452313 0)
(0.0219533 0.0389404 0)
(0.0248424 0.0332302 0)
(0.0274144 0.0279175 0)
(0.0296559 0.022893 0)
(0.0315722 0.0180925 0)
(0.0331833 0.0134801 0)
(0.0345187 0.00903837 0)
(0.0356128 0.00476381 0)
(0.036501 0.000664803 0)
(0.0372129 -0.00323347 0)
(0.0377837 -0.00692543 0)
(0.0382578 -0.0104516 0)
(0.0386261 -0.0138812 0)
(0.0388923 -0.0172876 0)
(0.039375 -0.0206036 0)
(0.0381003 -0.0238212 0)
(0.0366669 -0.0305069 0)
(0.0023881 0.107066 0)
(0.00578133 0.0841454 0)
(0.00933192 0.0684926 0)
(0.0129202 0.0574831 0)
(0.0163579 0.0490163 0)
(0.0195586 0.0420474 0)
(0.0224864 0.036019 0)
(0.0251193 0.0306041 0)
(0.0274476 0.0256014 0)
(0.0294749 0.0208847 0)
(0.0312167 0.0163763 0)
(0.0326968 0.0120308 0)
(0.0339451 0.00782532 0)
(0.0349931 0.00375485 0)
(0.0358732 -0.0001691 0)
(0.0366076 -0.00391532 0)
(0.0372283 -0.00747963 0)
(0.0377733 -0.0108933 0)
(0.0382347 -0.0142135 0)
(0.0385085 -0.0175069 0)
(0.0391922 -0.0207037 0)
(0.0379684 -0.0237632 0)
(0.036588 -0.0301762 0)
(0.00299219 0.102991 0)
(0.00671618 0.0801989 0)
(0.0105663 0.0647259 0)
(0.0142503 0.0539461 0)
(0.0176322 0.0457471 0)
(0.0206686 0.0390704 0)
(0.0233653 0.0333471 0)
(0.0257348 0.0282395 0)
(0.0277941 0.0235359 0)
(0.029566 0.019101 0)
(0.0310781 0.01485 0)
(0.0323618 0.0107324 0)
(0.0334498 0.00672344 0)
(0.0343751 0.00281882 0)
(0.0351687 -0.000965906 0)
(0.0358505 -0.00459231 0)
(0.0364515 -0.00805646 0)
(0.0369966 -0.0113796 0)
(0.037468 -0.0146055 0)
(0.0378475 -0.0177978 0)
(0.0383671 -0.0208624 0)
(0.0374116 -0.0237758 0)
(0.0362801 -0.0298487 0)
(0.00363694 0.098189 0)
(0.00773557 0.0758034 0)
(0.0119255 0.0607382 0)
(0.0157359 0.0503708 0)
(0.0190844 0.042576 0)
(0.0219696 0.036285 0)
(0.0244391 0.0309231 0)
(0.0265393 0.0261485 0)
(0.0283137 0.0217466 0)
(0.0298042 0.0175799 0)
(0.0310518 0.0135617 0)
(0.0320961 0.00964124 0)
(0.0329754 0.00579434 0)
(0.0337256 0.00201982 0)
(0.0343792 -0.00166128 0)
(0.0349564 -0.00520242 0)
(0.0354858 -0.00859777 0)
(0.0359898 -0.0118536 0)
(0.0364442 -0.0150037 0)
(0.0367372 -0.0180959 0)
(0.0373596 -0.0210314 0)
(0.0363799 -0.023762 0)
(0.0353083 -0.0294838 0)
(0.00431251 0.0926097 0)
(0.00882473 0.070925 0)
(0.0133716 0.0565083 0)
(0.0173155 0.0467442 0)
(0.0206287 0.0394967 0)
(0.0233567 0.0336904 0)
(0.0255903 0.0287514 0)
(0.0274107 0.0243415 0)
(0.0288869 0.0202504 0)
(0.0300792 0.0163449 0)
(0.0310406 0.0125418 0)
(0.0318193 0.00879317 0)
(0.032459 0.00507844 0)
(0.033 0.00140064 0)
(0.033478 -0.00221141 0)
(0.0339174 -0.00570493 0)
(0.0343476 -0.009064 0)
(0.0347782 -0.0122779 0)
(0.0351737 -0.0153683 0)
(0.0355085 -0.0183578 0)
(0.0359195 -0.0211527 0)
(0.0351387 -0.0237041 0)
(0.0343185 -0.0290257 0)
(0.00502733 0.0862062 0)
(0.010002 0.0655386 0)
(0.0149135 0.0520338 0)
(0.0189766 0.0430779 0)
(0.0222264 0.0365263 0)
(0.0247666 0.0313044 0)
(0.0267386 0.0268481 0)
(0.0282596 0.0228329 0)
(0.0294228 0.0190616 0)
(0.0303041 0.0154118 0)
(0.0309664 0.0118087 0)
(0.0314637 0.00821064 0)
(0.0318446 0.00460144 0)
(0.0321544 0.000989336 0)
(0.0324341 -0.00258948 0)
(0.0327156 -0.00607468 0)
(0.0330275 -0.0094338 0)
(0.033377 -0.0126354 0)
(0.033727 -0.015681 0)
(0.0339485 -0.0185787 0)
(0.0344209 -0.0212409 0)
(0.0336043 -0.0235949 0)
(0.0327321 -0.0285132 0)
(0.00581726 0.0789023 0)
(0.0113296 0.0596083 0)
(0.0166118 0.0473252 0)
(0.0207554 0.0394102 0)
(0.0238796 0.0337116 0)
(0.0261718 0.0291684 0)
(0.0278359 0.0252447 0)
(0.0290269 0.0216442 0)
(0.0298594 0.0181945 0)
(0.0304197 0.0147916 0)
(0.0307754 0.011374 0)
(0.0309829 0.00790729 0)
(0.0310929 0.0043805 0)
(0.0311554 0.000804845 0)
(0.0312194 -0.00277762 0)
(0.0313277 -0.00629705 0)
(0.0315148 -0.00969758 0)
(0.0317782 -0.0129205 0)
(0.0320619 -0.0159416 0)
(0.0323078 -0.018761 0)
(0.0325602 -0.0212816 0)
(0.0319071 -0.0234603 0)
(0.0311797 -0.0279304 0)
(0.00676395 0.070565 0)
(0.0129205 0.0530681 0)
(0.01858 0.042408 0)
(0.0227263 0.0358175 0)
(0.0256155 0.0311367 0)
(0.0275633 0.0273522 0)
(0.0288527 0.0239886 0)
(0.0296755 0.0208035 0)
(0.0301597 0.0176634 0)
(0.0303934 0.0144919 0)
(0.0304414 0.0112431 0)
(0.030356 0.00789175 0)
(0.0301866 0.00442829 0)
(0.0299862 0.000863752 0)
(0.029815 -0.00275987 0)
(0.0297336 -0.0063604 0)
(0.0297865 -0.00985181 0)
(0.0299702 -0.013133 0)
(0.0302104 -0.0161492 0)
(0.0303447 -0.0188878 0)
(0.0306363 -0.0212553 0)
(0.0298997 -0.023224 0)
(0.0291028 -0.0272442 0)
(0.008015 0.0609595 0)
(0.0149388 0.0458067 0)
(0.0209644 0.0373414 0)
(0.0249676 0.0324357 0)
(0.0274486 0.0289361 0)
(0.02892 0.0259541 0)
(0.0297569 0.0231393 0)
(0.0301765 0.0203393 0)
(0.0303044 0.0174781 0)
(0.0302171 0.0145133 0)
(0.0299654 0.0114168 0)
(0.0295904 0.00816942 0)
(0.0291345 0.0047587 0)
(0.0286517 0.00118709 0)
(0.0282164 -0.0025128 0)
(0.0279176 -0.0062491 0)
(0.0278276 -0.00989432 0)
(0.0279316 -0.0132761 0)
(0.0281161 -0.0163054 0)
(0.0282821 -0.0189418 0)
(0.0283508 -0.0211265 0)
(0.0277018 -0.0228533 0)