/*--------------------------------*- C++ -*----------------------------------*\
  =========                 |
  \\      /  F ield         | OpenFOAM: The Open Source CFD Toolbox
   \\    /   O peration     | Website:  https://openfoam.org
    \\  /    A nd           | Version:  13
     \\/     M anipulation  |
\*---------------------------------------------------------------------------*/
FoamFile
{
    format      ascii;
    class       volScalarField;
    location    "3";
    object      alpha.oil;
}
// * * * * * * * * * * * * * * * * * * * * * * * * * * * * * * * * * * * * * //

dimensions      [];

internalField   nonuniform List<scalar> 
2268
(
9.15445e-14
6.31742e-13
2.53434e-12
7.53447e-12
1.82924e-11
3.88128e-11
7.74039e-11
1.47821e-10
2.76022e-10
5.06674e-10
9.04749e-10
1.68191e-09
2.94513e-09
4.6984e-09
7.5584e-09
1.14854e-08
1.47413e-08
1.50923e-08
2.20309e-05
0.000369494
0.000541324
0.000540608
0.000490493
9.16535e-14
6.38573e-13
2.65099e-12
8.16745e-12
1.97961e-11
4.21497e-11
8.38042e-11
1.64721e-10
3.25463e-10
6.5026e-10
1.32006e-09
2.60403e-09
5.19309e-09
9.83151e-09
1.76999e-08
3.12792e-08
5.27311e-08
3.24551e-07
3.49904e-06
4.20315e-06
1.97601e-05
2.45561e-05
8.17587e-09
1.479e-13
6.30964e-13
1.70762e-12
4.1511e-12
1.5195e-11
4.85197e-11
9.1787e-11
1.61431e-10
2.95996e-10
6.06863e-10
1.02514e-09
1.68008e-09
2.59335e-09
4.03603e-09
7.04531e-09
1.53585e-08
3.61485e-08
5.24944e-08
1.27385e-08
1.17085e-08
1.13898e-08
1.6586e-08
2.07667e-08
2.04214e-13
1.23929e-12
2.4931e-12
5.87625e-12
1.53162e-11
3.45401e-11
7.05759e-11
1.76594e-10
3.57828e-10
5.94476e-10
1.07513e-09
1.89311e-09
3.15217e-09
5.02708e-09
7.81845e-09
1.22637e-08
1.92796e-08
2.87173e-08
3.93539e-08
2.99938e-08
3.17461e-08
1.95082e-07
4.02261e-07
2.7636e-11
3.21243e-11
2.63405e-11
2.28083e-11
2.43528e-11
3.70825e-11
6.92787e-11
1.23146e-10
2.26443e-10
4.49093e-10
8.29322e-10
1.67267e-09
2.94826e-09
4.23884e-09
5.61258e-09
1.14936e-08
4.54388e-08
8.93888e-08
1.06974e-07
3.34123e-08
3.8103e-08
2.14457e-06
1.48546e-05
1.73374e-10
2.05728e-10
1.7509e-10
1.32081e-10
1.06824e-10
8.36127e-11
7.87479e-11
9.30742e-11
1.14723e-10
2.00202e-10
5.09835e-10
1.13223e-09
1.58128e-09
1.46627e-09
7.21024e-10
9.16242e-10
3.14932e-07
8.84224e-07
1.00084e-06
7.19059e-07
1.59499e-06
1.18207e-05
2.19707e-05
6.69357e-10
5.55594e-10
4.37955e-10
3.7736e-10
3.39463e-10
2.82283e-10
2.05692e-10
1.54073e-10
1.41235e-10
1.54122e-10
2.65682e-10
5.17265e-10
6.59395e-10
7.08713e-10
7.42091e-10
1.34814e-09
3.48816e-07
1.02059e-06
1.17896e-06
1.17181e-06
4.25525e-06
1.20442e-05
1.81451e-05
2.53836e-09
2.17541e-09
1.64123e-09
1.26606e-09
1.08852e-09
9.48971e-10
7.30268e-10
4.75064e-10
3.38714e-10
3.1161e-10
3.27578e-10
3.52067e-10
4.21959e-10
6.91448e-10
2.08524e-09
8.66056e-09
9.49278e-09
2.83568e-08
2.46149e-07
3.84673e-07
1.93463e-06
1.93479e-07
8.45322e-22
0.114398
0.080561
0.0461165
0.0411764
0.0883896
0.285159
0.285484
0.285484
0.261921
0.252279
0.270258
0.22898
0.105372
0.0614068
0.0738159
0.108063
0.189165
0.231101
0.222931
0.147524
0.126081
0.111384
0.0571981
0.0502412
0.0922303
0.12945
0.0845244
0.0416868
0.0438254
0.176909
0.234354
0.130217
0.0616907
0.061513
0.150302
0.231317
0.231158
0.2229
0.440011
0.407159
0.396802
0.391438
0.194228
0.0020107
0.00177137
0.00170486
0.00171132
0.00170262
0.0376693
0.157791
0.17393
0.0884897
0.0630969
0.201145
0.362702
0.424087
0.442644
0.438307
0.42121
0.419704
0.399946
0.405837
0.261805
0.164202
0.11933
0.0858305
0.00934208
0.0526906
0.163077
0.173123
0.213276
0.259154
0.3422
0.385796
0.382728
0.443856
0.216764
0.0463536
0.0503297
0.00869598
0.194445
0.581179
0.664793
0.678372
0.563886
0.126023
0.0145289
0.0179672
0.263452
0.311499
0.297168
0.131266
0.068884
0.000163457
0.308505
0.00595218
0.005941
0.0061242
0.00612731
0.318391
0.746766
0.746511
0.726354
0.652348
0.163824
4.2857e-06
4.4844e-06
0.251554
0.311827
0.0135888
0.000163457
0.000163556
0.000163494
0.190685
0.0129629
0.00842211
0.00612862
0.00612425
0.32679
0.747089
0.745159
0.538104
0.0780111
0.00554404
9.69881e-06
4.54208e-06
0.130785
0.312108
0.000374264
0.000163435
0.000163439
0.000217412
0.0315819
0.00562289
0.0133205
0.0111074
0.00623038
0.144669
0.668493
0.580307
0.135007
5.72944e-08
5.25137e-08
5.07668e-07
0.000182205
0.106144
0.300353
0.0257921
0.000169189
0.000163587
0.00367204
0.00427105
3.17093e-09
3.15796e-09
2.52836e-09
2.17534e-09
1.92225e-09
1.78614e-09
1.71932e-09
1.58831e-09
1.27066e-09
9.70425e-10
7.04075e-10
5.03502e-10
3.84891e-10
3.67135e-10
1.06657e-09
2.41918e-09
2.86069e-24
1.1845e-35
-1.78296e-20
-8.42647e-21
1.49912e-07
9.13882e-07
2.40897e-22
2.21721e-09
1.78587e-09
1.55684e-09
1.2562e-09
1.06855e-09
4.34525e-09
4.3011e-09
3.11281e-09
2.30741e-09
1.7802e-09
1.25376e-09
7.89041e-10
4.19208e-10
1.44501e-09
2.09545e-08
-1.3762e-11
-6.21469e-19
3.24467e-20
2.0096e-19
-1.08114e-18
0.00315978
0.00993905
0.0049648
6.976e-10
6.78886e-11
-4.20606e-15
-8.76013e-15
-1.62947e-27
-1.19929e-27
-1.74427e-11
2.51092e-14
-2.51092e-14
-2.4946e-14
-2.15099e-14
-1.07351e-14
-3.228e-15
0.000378165
0.0066801
0.0170027
0.0378174
0.0931135
0.207552
0.359854
0.465602
0.537835
0.475873
5.87717e-19
5.90858e-25
0.0712826
0.124915
0.157528
0.154702
0.0915395
0.0328802
0.0374356
0.0667067
0.109636
0.161931
0.269092
0.410503
0.512701
0.572044
0.634445
0.733121
0.861385
0.924022
0.933265
0.965068
0.944225
0.344965
0.583887
0.819239
0.874242
0.901026
0.902478
0.742875
0.650438
0.673022
0.725291
0.769598
0.812725
0.846225
0.940614
0.971254
0.935694
0.907106
0.968453
0.999986
1
0.999969
0.999847
0.984029
0.914531
0.984579
0.999808
0.99993
0.999524
0.969185
0.9513
0.973271
0.996598
0.996987
0.99737
1
1
1
1
1
1
1
1
0.999998
0.999744
0.99964
0.999984
0.999555
0.999627
0.999828
0.999929
0.999931
0.999726
1
1
1
1
1
1
1
1
1
1
1
1
1
1
0.999999
0.999999
0.999996
0.889092
0.904032
0.915587
0.916662
0.909025
0.891889
0.870501
0.847168
0.823715
0.803102
0.784421
0.767943
0.753763
0.74345
0.744433
0.757902
0.77834
0.799418
0.823382
0.854181
0.888474
0.921613
0.946388
0.114639
0.139518
0.163374
0.169415
0.163956
0.150796
0.132552
0.109545
0.0864858
0.0693608
0.0582779
0.0513581
0.0473903
0.0465202
0.0506998
0.0608383
0.0774925
0.0997164
0.127381
0.159776
0.195728
0.233523
0.262337
9.08232e-09
-2.11759e-24
5.58586e-25
-1.07588e-22
1.07997e-22
2.11759e-24
7.41185e-09
3.33007e-10
3.50618e-09
3.29914e-10
7.81499e-08
3.20921e-08
8.2525e-08
4.19752e-07
6.28989e-07
9.25117e-07
1.14203e-06
1.27517e-06
1.28756e-06
1.21773e-06
9.92744e-07
1.50502e-06
5.77819e-07
1.04164e-06
3.4912e-07
5.64944e-08
1.31099e-07
3.7068e-07
4.6469e-07
2.03329e-06
5.43045e-06
1.12115e-06
4.06821e-07
8.18443e-08
2.57106e-08
2.41966e-08
2.40041e-08
2.24777e-08
2.15825e-08
2.07938e-08
2.70918e-08
4.45487e-08
6.73638e-08
9.20291e-08
1.60737e-07
1.67476e-07
1.34796e-06
9.75676e-07
1.68048e-06
6.69876e-07
6.89201e-07
1.22368e-05
8.99297e-05
0.000135338
4.34535e-05
7.77316e-08
3.86578e-09
3.42919e-08
2.81004e-08
4.75744e-08
1.35089e-07
1.97572e-07
1.42218e-07
1.2193e-07
1.06639e-07
9.49821e-08
9.34561e-08
1.11529e-07
1.56338e-07
2.6283e-06
1.35138e-05
2.86103e-05
4.73092e-06
1.99018e-06
8.1892e-05
0.000164659
0.000163138
0.000128483
1.88936e-10
2.46765e-10
4.79321e-09
5.85152e-09
1.33277e-07
2.6171e-07
2.63233e-07
2.47246e-07
1.62401e-07
1.23262e-07
1.01294e-07
1.05006e-07
1.10448e-07
1.57261e-07
4.65658e-06
4.04607e-05
4.78254e-05
2.65181e-05
1.55424e-06
7.84964e-05
0.000164148
0.000164027
0.000149089
4.85143e-11
4.55387e-11
6.75959e-11
1.35363e-08
2.13742e-07
2.66169e-07
2.65977e-07
2.54671e-07
1.87865e-07
1.19626e-07
9.25545e-08
9.35208e-08
8.69519e-08
1.09935e-07
4.75141e-06
4.4582e-05
4.81735e-05
2.82133e-05
1.47384e-07
1.53567e-06
8.06836e-05
0.000153267
3.04414e-05
1.82751e-09
2.05464e-09
4.82473e-09
7.83166e-09
1.18122e-07
1.99978e-07
2.4041e-07
2.41041e-07
1.77108e-07
1.12281e-07
8.24167e-08
7.41179e-08
5.73017e-08
6.80341e-08
3.06944e-06
2.30955e-05
4.49252e-05
3.01736e-06
1.31747e-07
1.09704e-07
9.90421e-08
9.9e-08
9.90366e-08
2.37286e-07
1.05783e-08
3.80221e-08
2.90927e-08
2.64293e-08
8.13631e-08
1.50089e-07
1.78328e-07
1.52472e-07
1.04953e-07
7.89134e-08
5.32255e-08
3.25219e-08
3.63462e-08
2.04754e-06
3.57959e-06
2.6437e-06
4.15445e-07
1.3667e-07
9.3549e-08
1.03818e-07
9.92507e-08
1.13444e-07
2.25176e-07
5.52968e-07
5.73008e-07
2.44427e-08
1.09395e-08
2.28691e-08
6.08582e-08
9.39375e-08
1.12494e-07
8.61358e-08
6.03799e-08
4.343e-08
2.64718e-08
1.96399e-08
1.11116e-06
8.72812e-07
3.16861e-07
1.57319e-07
1.02904e-07
9.49551e-08
1.02534e-07
1.05748e-07
1.69934e-07
3.93158e-07
6.88969e-07
6.68577e-07
3.99882e-07
2.15322e-08
7.64329e-09
1.58989e-08
4.36296e-08
6.26332e-08
5.40171e-08
3.96727e-08
2.79622e-08
1.79361e-08
1.27427e-08
6.91093e-07
4.01754e-07
1.63169e-07
9.03663e-08
8.78689e-08
8.62425e-08
8.23499e-08
7.23338e-08
9.39238e-08
2.24542e-07
5.0861e-07
6.41608e-07
3.76655e-07
6.25365e-08
7.55021e-09
7.65863e-09
1.63835e-08
2.74532e-08
2.70037e-08
2.1623e-08
1.6978e-08
1.18992e-08
7.89318e-09
5.54409e-07
3.92093e-07
1.86735e-07
8.6436e-08
7.45241e-08
7.3251e-08
6.51697e-08
5.20898e-08
5.29781e-08
1.03118e-07
2.12406e-07
3.16894e-07
2.22644e-07
5.39397e-08
1.57133e-08
1.09611e-08
9.84548e-09
1.18656e-08
1.28031e-08
1.13515e-08
8.92259e-09
6.6488e-09
5.14567e-09
3.93647e-07
3.75987e-07
1.92865e-07
8.52043e-08
6.78322e-08
5.84905e-08
4.79953e-08
3.78939e-08
3.44791e-08
4.53185e-08
6.5681e-08
7.5953e-08
5.96516e-08
3.32462e-08
1.91434e-08
1.12482e-08
8.42656e-09
7.87849e-09
7.50622e-09
6.79689e-09
5.69753e-09
4.53378e-09
3.52393e-09
2.97388e-07
3.18715e-07
1.58511e-07
8.25116e-08
5.98008e-08
4.59859e-08
3.56925e-08
2.68358e-08
2.31437e-08
2.64587e-08
3.02306e-08
2.76668e-08
2.06386e-08
1.68604e-08
1.21975e-08
8.50846e-09
6.73706e-09
5.83808e-09
5.10634e-09
4.52433e-09
3.83599e-09
3.10408e-09
2.61056e-09
1.67015e-07
2.10849e-07
1.26455e-07
7.41983e-08
5.25577e-08
3.73802e-08
2.72286e-08
1.97561e-08
1.60402e-08
1.59542e-08
1.63847e-08
1.41962e-08
1.09297e-08
8.73013e-09
6.98936e-09
5.67158e-09
4.70559e-09
4.00254e-09
3.38323e-09
2.95875e-09
2.55883e-09
2.17259e-09
1.82738e-09
1.01579e-07
1.47205e-07
9.97434e-08
6.55807e-08
4.63364e-08
3.12896e-08
2.20082e-08
1.53149e-08
1.14287e-08
9.70636e-09
8.55139e-09
7.02292e-09
5.47498e-09
4.50338e-09
3.881e-09
3.36788e-09
2.868e-09
2.42806e-09
2.04206e-09
1.78969e-09
1.55097e-09
1.28528e-09
1.13061e-09
6.52249e-08
9.70473e-08
7.69492e-08
5.64969e-08
4.00571e-08
2.65731e-08
1.78802e-08
1.19968e-08
8.30167e-09
6.22897e-09
4.8471e-09
3.72898e-09
2.95944e-09
2.47179e-09
2.14449e-09
1.87093e-09
1.59668e-09
1.34354e-09
1.11755e-09
9.66816e-10
8.20807e-10
6.96795e-10
6.12893e-10
4.69301e-08
7.20989e-08
6.32017e-08
4.71761e-08
3.34599e-08
2.24301e-08
1.47029e-08
9.40933e-09
6.06326e-09
4.06266e-09
2.8336e-09
2.05735e-09
1.59787e-09
1.31663e-09
1.11417e-09
9.61916e-10
8.14804e-10
6.71548e-10
5.62233e-10
4.73364e-10
3.99333e-10
3.29203e-10
2.84281e-10
3.4085e-08
5.16103e-08
4.77359e-08
3.66813e-08
2.63355e-08
1.7922e-08
1.17281e-08
7.35064e-09
4.49309e-09
2.78303e-09
1.79394e-09
1.19991e-09
8.73514e-10
6.8743e-10
5.62784e-10
4.69928e-10
3.85748e-10
3.23343e-10
2.62675e-10
2.18717e-10
1.81644e-10
1.43623e-10
1.21713e-10
2.48248e-08
3.71816e-08
3.4908e-08
2.64433e-08
1.89042e-08
1.29879e-08
8.54143e-09
5.29165e-09
3.17525e-09
1.88984e-09
1.13604e-09
6.97522e-10
4.58667e-10
3.29657e-10
2.55177e-10
2.05729e-10
1.69517e-10
1.4093e-10
1.14135e-10
9.27954e-11
7.60498e-11
5.66142e-11
4.70134e-11
1.72565e-08
2.6162e-08
2.33679e-08
1.77343e-08
1.25729e-08
8.57552e-09
5.61759e-09
3.44774e-09
2.03328e-09
1.17275e-09
6.72729e-10
3.8681e-10
2.34103e-10
1.5288e-10
1.08697e-10
8.28263e-11
6.70252e-11
5.47318e-11
4.38139e-11
3.52409e-11
2.77537e-11
2.01986e-11
1.61206e-11
1.2993e-08
1.74628e-08
1.51294e-08
1.12139e-08
7.72326e-09
5.12218e-09
3.2907e-09
1.99987e-09
1.16467e-09
6.56981e-10
3.64833e-10
1.98565e-10
1.12904e-10
6.57186e-11
4.3359e-11
3.09274e-11
2.36058e-11
1.8841e-11
1.50192e-11
1.19157e-11
9.18956e-12
6.48554e-12
5.08826e-12
8.53385e-09
1.11549e-08
9.28195e-09
6.58765e-09
4.32099e-09
2.74775e-09
1.71357e-09
1.02192e-09
5.82921e-10
3.23012e-10
1.7244e-10
9.09568e-11
4.68757e-11
2.65389e-11
1.60929e-11
1.0558e-11
7.58728e-12
5.82931e-12
4.5711e-12
3.61295e-12
2.68361e-12
1.90222e-12
1.43105e-12
5.45628e-09
6.90434e-09
5.37061e-09
3.59317e-09
2.21935e-09
1.33754e-09
7.83497e-10
4.51784e-10
2.52503e-10
1.34609e-10
6.90661e-11
3.41611e-11
1.78644e-11
9.43939e-12
5.32693e-12
3.29997e-12
2.24931e-12
1.66884e-12
1.26564e-12
9.66797e-13
7.28243e-13
4.94896e-13
3.57582e-13
3.34803e-09
3.67626e-09
2.68272e-09
1.68385e-09
9.74392e-10
5.54681e-10
3.12605e-10
1.73741e-10
9.47771e-11
4.71583e-11
2.36774e-11
1.18483e-11
5.87791e-12
2.99103e-12
1.59739e-12
9.36143e-13
5.76242e-13
4.15746e-13
3.04897e-13
2.26452e-13
1.57651e-13
1.10751e-13
7.7174e-14
1.88927e-09
1.90112e-09
1.25037e-09
7.43558e-10
4.08932e-10
2.10493e-10
1.09363e-10
5.67652e-11
2.904e-11
1.5078e-11
7.4042e-12
3.56043e-12
1.67285e-12
8.1675e-13
4.08493e-13
2.23303e-13
1.37382e-13
9.36493e-14
6.63385e-14
4.77314e-14
3.34707e-14
2.20573e-14
1.42798e-14
8.74016e-10
7.10248e-10
4.4389e-10
2.44988e-10
1.27191e-10
6.37716e-11
3.22669e-11
1.63373e-11
8.31683e-12
4.16343e-12
1.99424e-12
9.10651e-13
4.07431e-13
1.87503e-13
9.20231e-14
4.91495e-14
2.94132e-14
1.91577e-14
1.32791e-14
8.9315e-15
5.85597e-15
3.77861e-15
2.30892e-15
3.95285e-10
2.69471e-10
1.57902e-10
8.30754e-11
4.1188e-11
1.97193e-11
9.46631e-12
4.60355e-12
2.25977e-12
1.06314e-12
4.79483e-13
2.07714e-13
8.87534e-14
3.90633e-14
1.87696e-14
9.91996e-15
5.79819e-15
3.68133e-15
2.41373e-15
1.55107e-15
9.65163e-16
5.70512e-16
3.21267e-16
1.30111e-10
8.59871e-11
4.91247e-11
2.51947e-11
1.21181e-11
5.58193e-12
2.57701e-12
1.16643e-12
5.38701e-13
2.42028e-13
1.03195e-13
4.22908e-14
1.74492e-14
7.55592e-15
3.54365e-15
1.82268e-15
1.04177e-15
6.4135e-16
4.03248e-16
2.42138e-16
1.39007e-16
7.49759e-17
4.02702e-17
3.64684e-11
2.23743e-11
1.22684e-11
6.28331e-12
3.02716e-12
1.38895e-12
6.05835e-13
2.73817e-13
1.20822e-13
5.20968e-14
2.12309e-14
8.26452e-15
3.21494e-15
1.32234e-15
5.95103e-16
3.00885e-16
1.69715e-16
1.01599e-16
6.0477e-17
3.38549e-17
1.75611e-17
8.83523e-18
6.00397e-18
6.38624e-12
3.8322e-12
2.2863e-12
1.2493e-12
6.37565e-13
3.02425e-13
1.33852e-13
5.87625e-14
2.48857e-14
1.04336e-14
4.03943e-15
1.47855e-15
5.39989e-16
2.11316e-16
9.27221e-17
4.63482e-17
2.58771e-17
1.49465e-17
8.25201e-18
4.16672e-18
1.99904e-18
1.1463e-18
2.15938e-18
5.82514e-13
4.06629e-13
2.85203e-13
1.97399e-13
1.13844e-13
5.75876e-14
2.56455e-14
1.13036e-14
4.8671e-15
1.99952e-15
7.51026e-16
2.6008e-16
8.78525e-17
3.21637e-17
1.36332e-17
6.80822e-18
3.7706e-18
2.04518e-18
1.01027e-18
4.57463e-19
2.33105e-19
3.1205e-19
1.60504e-18
1.2205e-14
1.80188e-14
2.44342e-14
2.41027e-14
1.69716e-14
9.62118e-15
4.66419e-15
2.11046e-15
9.26073e-16
3.79698e-16
1.39408e-16
4.4628e-17
1.376e-17
4.66271e-18
1.92272e-18
9.60079e-19
5.03337e-19
2.51181e-19
1.13269e-19
5.15061e-20
5.22017e-20
1.89417e-19
1.21038e-18
1.03131e-22
1.71877e-16
1.33552e-15
2.62017e-15
2.34009e-15
1.50336e-15
7.52503e-16
3.75239e-16
1.70754e-16
7.08325e-17
2.55535e-17
7.93858e-18
2.18109e-18
7.16176e-19
2.86012e-19
1.38582e-19
6.81197e-20
3.02913e-20
1.27996e-20
8.33577e-21
2.01121e-20
9.08963e-20
6.20466e-19
3.00169e-23
2.96289e-06
0.00695654
0.0146287
9.20767e-21
0.00640682
0.0599725
0.0763397
0.451765
0.53939
0.627397
0.665328
0.863596
0.862818
0.862788
0.87609
0.968038
0.967143
0.986991
0.997162
0.999981
0.999982
0.999978
0.999977
0.999993
0.999993
0.99999
0.999989
0.954442
0.959368
0.963675
0.968392
0.266719
0.271146
0.276818
0.28478
1.24787e-06
1.04342e-06
4.60692e-07
1.1727e-06
2.25177e-07
1.94805e-07
1.98762e-07
1.96901e-07
2.0953e-07
2.16195e-07
2.11477e-07
2.24371e-07
1.90809e-07
2.01445e-07
2.01884e-07
2.19779e-07
1.26882e-07
1.56238e-07
1.5122e-07
1.55412e-07
8.24085e-08
8.76242e-08
9.96665e-08
1.0019e-07
4.51703e-08
4.8716e-08
5.4005e-08
5.61705e-08
1.93651e-08
2.49402e-08
2.87026e-08
3.01617e-08
9.67721e-09
9.91127e-09
1.12751e-08
1.2803e-08
5.75185e-09
4.89137e-09
5.18826e-09
5.14789e-09
3.54265e-09
2.96726e-09
2.71252e-09
2.59932e-09
2.66592e-09
2.12835e-09
1.92684e-09
1.73536e-09
2.1092e-09
1.78952e-09
1.48504e-09
1.34093e-09
1.53811e-09
1.33547e-09
1.19639e-09
1.04463e-09
9.89757e-10
8.68256e-10
7.85045e-10
7.13656e-10
5.48054e-10
4.71374e-10
4.43935e-10
4.07718e-10
2.63473e-10
2.22638e-10
2.06667e-10
1.99854e-10
1.09893e-10
9.56247e-11
8.99457e-11
8.11927e-11
4.27784e-11
3.50784e-11
3.10961e-11
3.02016e-11
1.48039e-11
1.24194e-11
1.12334e-11
9.86249e-12
4.52746e-12
3.80076e-12
3.28162e-12
2.94405e-12
1.23703e-12
1.04523e-12
9.22788e-13
7.89108e-13
2.98341e-13
2.4662e-13
2.10113e-13
1.77088e-13
6.42556e-14
5.32813e-14
4.34245e-14
3.45328e-14
1.14413e-14
9.02852e-15
7.4162e-15
5.73549e-15
1.81264e-15
1.40261e-15
1.09894e-15
8.07296e-16
2.45121e-16
1.87218e-16
1.47956e-16
1.16963e-16
3.13332e-17
2.6696e-17
2.71527e-17
3.58528e-17
6.26758e-18
8.05763e-18
1.42574e-17
3.18601e-17
3.32457e-18
6.24127e-18
1.57812e-17
4.63052e-17
2.86237e-18
6.89569e-18
2.18292e-17
7.06363e-17
2.46889e-18
7.66449e-18
2.75388e-17
8.96069e-17
1.81816e-18
6.32235e-18
2.20025e-17
6.82078e-17
0.00411393
0.00378397
0.0137727
0.0186775
0.0213598
0.370808
0.325026
0.0340968
7.02311e-07
5.694e-08
6.42079e-05
0.018483
0.148905
0.110564
0.00317756
0.000203696
0.0199953
0.111913
0.000800285
0.0119445
0.00395237
0.0117478
0.0112642
0.01478
0.233867
0.189618
0.0131985
0.0152912
0.00696573
0.00244315
0.00307026
0.073155
0.0418704
0.1128
0.330165
0.430833
0.198541
0.0327858
0.504208
0.392815
0.400086
0.234119
0.20686
0.428664
0.294769
0.177866
0.54498
0.693219
0.685079
0.532504
0.409117
0.584372
0.833108
0.877368
0.800791
0.650361
0.568243
0.921382
0.890611
0.886884
0.901766
0.876839
0.762329
0.708444
0.745811
0.979511
0.999684
0.999991
0.99842
0.987268
0.999706
0.999846
0.998374
0.982623
0.977648
0.995175
0.999753
0.999975
0.999996
0.999996
0.99968
0.918083
0.830689
0.922324
0.999964
0.999978
0.999998
1
1
0.999998
0.999846
0.999732
0.999973
0.999934
0.999941
0.999984
0.999991
0.999997
0.99996
0.999896
0.997443
0.990897
0.997987
1
1
0.999999
1
0.999999
0.999999
0.999979
0.999957
0.999973
0.999978
0.999978
0.999993
0.999997
0.999998
0.999997
0.999996
0.999997
1
1
1
1
1
0.999999
0.999987
0.999983
0.999984
0.999973
0.999651
0.999332
0.999585
0.976537
0.986516
0.995807
0.997808
0.996538
0.997556
0.998495
0.998783
0.998773
0.998795
0.998888
0.998999
0.999107
0.998872
0.993403
0.980692
0.969749
0.960462
0.967918
0.295538
0.299952
0.312255
0.346345
0.403648
0.461992
0.50233
0.519598
0.524105
0.526162
0.528151
0.530295
0.53247
0.52388
0.44571
0.37332
0.340378
0.32745
0.348584
7.2558e-07
5.99327e-07
4.14611e-07
3.91806e-07
4.38709e-07
6.97972e-07
1.50535e-06
5.42101e-22
-5.97573e-11
-5.74366e-10
3.75436e-21
-2.49028e-21
4.65992e-23
1.29961e-21
1.96785e-13
9.26727e-16
1.76689e-16
1.48523e-16
7.08274e-17
2.20149e-07
2.74396e-07
3.58616e-07
0.000181661
0.000506489
0.00065388
0.000456966
1.74964e-05
-1.42792e-09
5.56434e-08
1.15931e-05
4.02776e-05
5.21756e-05
5.59707e-05
2.11907e-06
1.26015e-07
5.17596e-08
3.05723e-08
7.63026e-09
2.73953e-07
4.70505e-07
3.40518e-07
0.000383981
0.000800003
0.000799013
0.000673029
0.00017098
4.83309e-13
1.01545e-06
0.000309358
0.000547538
0.00054752
0.0003487
9.59109e-06
6.19133e-07
1.91674e-07
1.55489e-07
7.21187e-08
2.47817e-07
4.18506e-07
4.10823e-07
4.0889e-05
3.57646e-07
2.28761e-07
3.59474e-07
1.64345e-05
1.80743e-06
9.22876e-07
0.000104701
0.00033194
0.000246359
8.28772e-05
2.58769e-06
6.39623e-07
3.26349e-07
2.71777e-07
1.15896e-07
1.66466e-07
1.98889e-07
1.86222e-07
3.705e-07
1.23434e-07
1.20503e-07
3.42982e-07
4.07769e-07
1.28194e-06
3.77394e-06
1.57906e-07
1.4285e-07
1.40346e-07
1.39416e-07
5.76398e-07
4.64314e-07
3.89539e-07
3.73179e-07
2.25363e-07
9.85987e-08
1.07766e-07
1.11907e-07
1.3214e-07
1.61796e-07
1.67525e-07
1.95751e-07
2.82347e-07
5.49983e-07
8.31513e-07
3.12165e-07
1.79812e-07
1.4739e-07
1.37453e-07
2.24038e-07
2.97201e-07
3.42017e-07
3.68763e-07
3.47598e-07
6.17271e-08
7.83878e-08
1.0502e-07
1.55461e-07
1.97431e-07
2.11766e-07
1.90622e-07
1.76733e-07
1.98434e-07
2.05592e-07
2.46068e-07
2.16909e-07
1.79293e-07
1.37978e-07
1.72169e-07
1.96217e-07
2.16763e-07
2.90974e-07
3.29665e-07
3.19394e-08
4.18026e-08
5.94534e-08
8.80969e-08
1.22504e-07
1.49455e-07
1.52024e-07
1.35566e-07
1.226e-07
1.32035e-07
1.68991e-07
1.67772e-07
1.33028e-07
9.29469e-08
8.94876e-08
9.07425e-08
1.16264e-07
1.2428e-07
1.35272e-07
1.43816e-08
1.7218e-08
2.11619e-08
2.55929e-08
3.36963e-08
4.40782e-08
5.14297e-08
5.10569e-08
5.03312e-08
5.62878e-08
6.9918e-08
7.78826e-08
6.5312e-08
4.91255e-08
4.04349e-08
4.40186e-08
4.00066e-08
3.47608e-08
2.80581e-08
5.83014e-09
7.41033e-09
8.53365e-09
9.2014e-09
9.59422e-09
9.62806e-09
1.06257e-08
1.38127e-08
1.79378e-08
2.20862e-08
2.54614e-08
2.72836e-08
2.69194e-08
2.36776e-08
2.07899e-08
1.86811e-08
1.70443e-08
1.70287e-08
1.73382e-08
2.5869e-09
3.12161e-09
4.06183e-09
5.03294e-09
6.0753e-09
7.05354e-09
7.9531e-09
8.98947e-09
1.01973e-08
1.11317e-08
1.16897e-08
1.21849e-08
1.23766e-08
1.23874e-08
1.28965e-08
1.37484e-08
1.50613e-08
1.97388e-08
2.23737e-08
1.59683e-09
1.48875e-09
1.67748e-09
2.14245e-09
2.6826e-09
3.31184e-09
3.98593e-09
4.65839e-09
5.33437e-09
5.88391e-09
6.23099e-09
6.42618e-09
6.85989e-09
8.00052e-09
9.76889e-09
1.32954e-08
1.97595e-08
3.13957e-08
5.56376e-08
1.20793e-09
1.02001e-09
9.20943e-10
9.03117e-10
1.05626e-09
1.30414e-09
1.60022e-09
1.92768e-09
2.26513e-09
2.65536e-09
3.04928e-09
3.53785e-09
4.32432e-09
5.64218e-09
8.40493e-09
1.40368e-08
2.52122e-08
5.55829e-08
8.02833e-08
9.11834e-10
7.4996e-10
6.24004e-10
5.3899e-10
5.04968e-10
5.27904e-10
6.3317e-10
7.85727e-10
9.9904e-10
1.27828e-09
1.621e-09
2.10104e-09
2.85139e-09
4.20894e-09
6.90835e-09
1.35142e-08
3.14279e-08
7.06926e-08
8.46405e-08
6.20266e-10
5.05102e-10
4.20222e-10
3.41169e-10
2.81485e-10
2.53741e-10
2.62202e-10
3.24973e-10
4.47451e-10
6.38265e-10
9.11353e-10
1.32532e-09
2.00974e-09
3.22836e-09
5.89679e-09
1.33569e-08
3.40682e-08
8.81786e-08
8.44131e-08
3.4813e-10
2.95416e-10
2.4415e-10
1.95631e-10
1.59442e-10
1.35047e-10
1.33553e-10
1.60412e-10
2.29696e-10
3.58917e-10
5.71701e-10
9.16469e-10
1.49646e-09
2.52258e-09
4.80904e-09
1.1492e-08
3.50495e-08
8.83396e-08
6.04348e-08
1.66895e-10
1.39515e-10
1.15931e-10
9.52767e-11
7.67726e-11
6.60504e-11
6.78418e-11
8.74141e-11
1.3425e-10
2.27654e-10
3.95632e-10
6.91313e-10
1.2025e-09
2.10824e-09
4.03484e-09
1.04941e-08
3.49538e-08
9.37771e-08
4.35039e-08
6.69254e-11
5.61732e-11
4.60081e-11
3.72644e-11
3.07564e-11
2.8465e-11
3.32775e-11
4.95673e-11
8.64133e-11
1.61017e-10
3.02539e-10
5.64971e-10
1.0314e-09
1.85478e-09
3.57018e-09
9.48109e-09
3.72648e-08
9.4613e-08
3.22148e-08
2.42804e-11
1.91358e-11
1.54087e-11
1.22639e-11
1.06821e-11
1.14673e-11
1.67772e-11
3.00668e-11
6.15062e-11
1.24384e-10
2.50274e-10
4.95713e-10
9.44866e-10
1.74963e-09
3.31941e-09
9.1824e-09
3.92831e-08
9.41723e-08
2.80378e-08
7.56795e-12
5.80653e-12
4.40212e-12
3.52023e-12
3.51226e-12
5.15678e-12
1.00187e-11
2.14475e-11
4.82638e-11
1.04919e-10
2.23839e-10
4.67285e-10
9.29004e-10
1.74259e-09
3.28309e-09
8.88257e-09
4.07681e-08
9.31604e-08
1.92909e-08
2.1785e-12
1.57716e-12
1.14768e-12
1.03501e-12
1.44931e-12
3.04964e-12
7.21967e-12
1.75536e-11
4.11759e-11
9.54701e-11
2.14762e-10
4.65474e-10
9.54513e-10
1.81357e-09
3.37091e-09
9.14478e-09
4.00288e-08
6.23696e-08
1.22707e-08
5.42613e-13
3.65115e-13
2.80785e-13
3.69045e-13
8.43863e-13
2.25034e-12
6.00164e-12
1.53047e-11
3.79454e-11
9.19999e-11
2.16388e-10
4.8034e-10
1.00745e-09
1.95011e-09
3.55575e-09
9.33327e-09
3.53183e-08
3.40006e-08
6.63843e-09
1.15284e-13
7.82803e-14
8.47245e-14
2.02636e-13
6.3746e-13
1.89085e-12
5.33509e-12
1.4232e-11
3.62609e-11
9.28168e-11
2.25301e-10
5.10541e-10
1.09225e-09
2.12375e-09
3.82553e-09
1.02403e-08
2.62368e-08
1.74023e-08
3.52365e-09
2.09946e-14
1.79196e-14
4.20221e-14
1.58709e-13
5.45482e-13
1.7015e-12
4.96028e-12
1.38961e-11
3.71849e-11
9.58514e-11
2.40546e-10
5.54454e-10
1.17754e-09
2.32171e-09
4.06528e-09
1.02137e-08
1.93386e-08
7.05601e-09
2.10059e-09
3.81438e-15
7.88194e-15
3.47158e-14
1.45738e-13
5.11522e-13
1.64552e-12
4.98191e-12
1.42434e-11
3.87379e-11
1.01502e-10
2.56236e-10
5.94683e-10
1.27005e-09
2.41145e-09
4.30324e-09
9.54558e-09
1.1119e-08
7.09555e-09
1.26803e-09
1.15443e-15
6.63403e-15
3.41099e-14
1.41599e-13
5.0756e-13
1.65523e-12
5.11937e-12
1.48812e-11
4.09418e-11
1.07961e-10
2.71367e-10
6.22431e-10
1.31858e-09
2.48738e-09
4.2898e-09
7.88948e-09
7.89986e-09
3.23315e-09
7.78446e-10
8.75111e-16
6.64815e-15
3.3692e-14
1.41945e-13
5.08505e-13
1.70817e-12
5.23539e-12
1.52044e-11
4.20558e-11
1.10426e-10
2.77009e-10
6.30134e-10
1.31259e-09
2.416e-09
3.91692e-09
6.20523e-09
4.68495e-09
2.21733e-09
3.92589e-10
9.42122e-16
6.87865e-15
3.373e-14
1.41044e-13
5.04593e-13
1.68136e-12
5.16484e-12
1.49457e-11
4.0872e-11
1.07224e-10
2.6603e-10
5.96217e-10
1.21897e-09
2.19853e-09
3.32434e-09
4.40321e-09
3.16836e-09
9.3325e-10
2.31519e-10
1.04149e-15
7.01233e-15
3.29799e-14
1.32763e-13
4.7372e-13
1.53781e-12
4.72585e-12
1.35281e-11
3.69212e-11
9.58839e-11
2.36091e-10
5.23388e-10
1.05069e-09
1.82318e-09
2.59662e-09
2.82333e-09
1.60634e-09
5.5069e-10
1.14084e-10
1.13274e-15
6.56758e-15
2.92285e-14
1.12663e-13
3.91882e-13
1.25744e-12
3.80953e-12
1.08768e-11
2.96854e-11
7.7255e-11
1.89519e-10
4.13311e-10
8.07117e-10
1.37629e-09
1.74136e-09
1.71911e-09
8.67496e-10
2.14602e-10
6.4497e-11
1.05791e-15
5.34985e-15
2.17463e-14
7.76809e-14
2.59048e-13
8.17294e-13
2.48529e-12
7.31656e-12
2.0187e-11
5.33316e-11
1.29982e-10
2.8869e-10
5.6872e-10
9.06698e-10
1.05712e-09
9.14392e-10
3.51852e-10
1.04363e-10
3.28728e-11
7.36786e-16
3.18348e-15
1.17049e-14
3.92667e-14
1.30483e-13
4.23189e-13
1.31849e-12
3.96083e-12
1.13572e-11
3.11083e-11
7.83158e-11
1.74432e-10
3.30134e-10
5.27263e-10
5.8173e-10
4.0865e-10
1.27792e-10
3.9175e-11
1.01063e-11
2.75732e-16
9.90258e-16
3.20873e-15
1.02492e-14
3.91884e-14
1.3994e-13
4.82271e-13
1.57469e-12
4.80494e-12
1.38225e-11
3.62262e-11
8.33046e-11
1.55382e-10
2.32751e-10
2.2757e-10
1.19461e-10
3.4425e-11
6.62353e-12
4.16456e-13
)
;

boundaryField
{
    leftWall
    {
        type            alphaContactAngle;
        contactAngleProperties 
        {
            mercury         
            {
                theta0          90;
            }
            air             
            {
                theta0          90;
            }
            water           
            {
                theta0          90;
            }
        }
        value           nonuniform List<scalar> 
50
(
9.15445e-14
9.16535e-14
1.479e-13
2.04214e-13
2.7636e-11
1.73374e-10
6.69357e-10
2.53836e-09
3.17093e-09
2.21721e-09
6.976e-10
5.87717e-19
0.344965
0.914531
0.999555
0.889092
0.114639
9.08232e-09
1.04164e-06
1.34796e-06
2.6283e-06
4.65658e-06
4.75141e-06
3.06944e-06
2.04754e-06
1.11116e-06
6.91093e-07
5.54409e-07
3.93647e-07
2.97388e-07
1.67015e-07
1.01579e-07
6.52249e-08
4.69301e-08
3.4085e-08
2.48248e-08
1.72565e-08
1.2993e-08
8.53385e-09
5.45628e-09
3.34803e-09
1.88927e-09
8.74016e-10
3.95285e-10
1.30111e-10
3.64684e-11
6.38624e-12
5.82514e-13
1.2205e-14
1.03131e-22
)
;
    }
    rightWall
    {
        type            alphaContactAngle;
        contactAngleProperties 
        {
            mercury         
            {
                theta0          90;
            }
            air             
            {
                theta0          90;
            }
            water           
            {
                theta0          90;
            }
        }
        value           nonuniform List<scalar> 
50
(
0.222931
0.2229
0.442644
0.443856
0.308505
0.190685
0.0315819
0.00427105
0.000800285
0.0327858
0.568243
0.995175
0.999941
0.999978
0.999585
0.967918
0.348584
7.08274e-17
7.63026e-09
7.21187e-08
1.15896e-07
2.25363e-07
3.47598e-07
3.29665e-07
1.35272e-07
2.80581e-08
1.73382e-08
2.23737e-08
5.56376e-08
8.02833e-08
8.46405e-08
8.44131e-08
6.04348e-08
4.35039e-08
3.22148e-08
2.80378e-08
1.92909e-08
1.22707e-08
6.63843e-09
3.52365e-09
2.10059e-09
1.26803e-09
7.78446e-10
3.92589e-10
2.31519e-10
1.14084e-10
6.4497e-11
3.28728e-11
1.01063e-11
4.16456e-13
)
;
    }
    lowerWall
    {
        type            alphaContactAngle;
        contactAngleProperties 
        {
            mercury         
            {
                theta0          90;
            }
            air             
            {
                theta0          90;
            }
            water           
            {
                theta0          90;
            }
        }
        value           nonuniform List<scalar> 
62
(
9.15445e-14
6.31742e-13
2.53434e-12
7.53447e-12
1.82924e-11
3.88128e-11
7.74039e-11
1.47821e-10
2.76022e-10
5.06674e-10
9.04749e-10
1.68191e-09
2.94513e-09
4.6984e-09
7.5584e-09
1.14854e-08
1.47413e-08
1.50923e-08
2.20309e-05
0.000369494
0.000541324
0.000540608
0.000490493
0.000490493
8.17587e-09
2.07667e-08
4.02261e-07
1.48546e-05
2.19707e-05
1.81451e-05
8.45322e-22
3.00169e-23
2.96289e-06
0.00695654
0.0146287
0.114398
0.147524
0.440011
0.438307
0.216764
0.00595218
0.0129629
0.00562289
0.114398
0.080561
0.0461165
0.0411764
0.0883896
0.285159
0.285484
0.285484
0.261921
0.252279
0.270258
0.22898
0.105372
0.0614068
0.0738159
0.108063
0.189165
0.231101
0.222931
)
;
    }
    atmosphere
    {
        type            inletOutlet;
        inletValue      uniform 0;
        value           nonuniform List<scalar> 
46
(
0
0
1.33552e-15
2.62017e-15
2.34009e-15
1.50336e-15
7.52503e-16
3.75239e-16
1.70754e-16
7.08325e-17
2.55535e-17
7.93858e-18
2.18109e-18
7.16176e-19
0
0
0
0
0
0
0
0
0
0
0
0
0
0
0
0
0
0
1.3994e-13
0
1.57469e-12
0
0
3.62262e-11
0
0
0
0
0
0
0
0
)
;
    }
    defaultFaces
    {
        type            empty;
    }
}


// ************************************************************************* //
