/*--------------------------------*- C++ -*----------------------------------*\
  =========                 |
  \\      /  F ield         | OpenFOAM: The Open Source CFD Toolbox
   \\    /   O peration     | Website:  https://openfoam.org
    \\  /    A nd           | Version:  13
     \\/     M anipulation  |
\*---------------------------------------------------------------------------*/
FoamFile
{
    format      ascii;
    class       volScalarField;
    location    "3";
    object      alphas;
}
// * * * * * * * * * * * * * * * * * * * * * * * * * * * * * * * * * * * * * //

dimensions      [];

internalField   nonuniform List<scalar> 
2268
(
2
2
2
2
2
2
2
2
2
2
2
2
2
2
2
2
2
2
1.99998
1.99963
1.99946
1.99946
1.99951
2
2
2
2
2
2
2
2
2
2
2
2
2
2
2
2
2
2
2
2
1.99998
1.99998
2
2
2
2
2
2
2
2
2
2
2
2
2
2
2
2
2
2
2
2
2
2
2
2
2
2
2
2
2
2
2
2
2
2
2
2
2
2
2
2
2
2
2
2
2
2
2
2
2
2
2
2
2
2
2
2
2
2
2
2
2
2
2
2
2
2
2
2
2
1.99999
2
2
2
2
2
2
2
2
2
1.99135
1.96293
1.93382
1.9019
1.86666
1.83049
1.79542
1.76314
1.73539
1.71393
1.69972
1.68999
1.67236
1.63957
1.93885
1.86676
1.7875
1.70028
1.59079
1.46017
1.3137
1.15735
0.997367
0.848636
0.721022
0.607602
0.509669
0.429132
0.363965
0.312119
0.271784
0.241962
0.221967
0.210313
0.203225
0.191501
0.159929
0.569752
0.418299
0.313535
0.231874
0.15829
0.0970842
0.0517055
0.0220317
0.00539501
1.51406e-08
2.56055e-08
3.41757e-08
4.15263e-08
6.07676e-08
1.16368e-07
2.4082e-07
6.56638e-07
1.57967e-06
8.63968e-06
6.73793e-05
0.000417534
0.00237709
0.00800414
1.8716
1.85864
1.90168
1.91388
1.93516
1.76914
1.76891
1.762
1.78186
1.79153
1.76922
1.71092
1.71084
1.75113
1.72634
1.65901
1.73659
1.77671
1.76817
1.83848
1.85992
1.87751
1.82425
1.83021
1.87699
1.87119
1.83706
1.95833
2.06644
1.88241
1.77113
1.86694
1.98538
1.93952
1.87476
1.77769
1.77657
1.76824
1.54655
1.57764
1.59205
1.55974
1.36964
1.23963
1.21508
1.10365
1.29878
2.17036
2.33957
2.08998
2.13894
2.27183
2.2762
1.97914
1.68564
1.60068
1.60958
0.869389
0.869912
0.946696
0.884747
0.803628
0.588217
0.372262
0.273146
0.325049
0.966569
2.07906
2.37134
2.40109
2.36068
2.27809
1.98958
1.50436
1.30746
1.66735
0.344101
0.170576
0.204172
0.274603
0.38811
0.651099
0.72405
0.774498
0.673762
0.21048
0.381765
1.4654
2.18509
2.15698
0.724524
0.300347
0.255237
0.0725362
0.801134
0.139639
0.147173
0.15486
0.160303
0.525607
0.848856
0.960354
1.01596
0.957505
0.281195
0.0019698
0.164219
1.57928
1.13332
0.0135984
0.000181729
0.000177836
0.000193322
0.602548
0.127854
0.193988
0.203003
0.137343
0.534194
1.01358
1.04745
0.923039
0.335997
0.05189
0.00104955
0.00121955
1.11021
0.664535
0.000384205
0.00020229
0.000182266
0.000330851
0.322672
0.107424
0.200182
0.207308
0.12941
0.263508
1.04601
1.28788
0.590703
0.0206622
0.00114373
0.00105903
0.000875222
1.20006
0.743987
0.0265233
0.000191604
0.000341524
0.0200364
0.444043
7.42256e-07
4.95201e-07
8.02162e-06
1.70395e-05
6.40229e-05
2.13551e-06
3.92234e-07
3.27185e-07
2.21642e-07
1.4062e-07
1.16775e-07
1.28418e-07
1.39288e-07
1.65768e-07
2.29684e-07
1.34257e-06
1.51766e-06
2.67845e-06
3.89235e-06
3.8685e-06
4.47797e-06
4.98883e-06
0.00844
8.18164e-08
4.2381e-08
0.000634447
0.000995615
9.91234e-05
1.04341e-07
1.07356e-07
1.0792e-07
1.0623e-07
2.08063e-07
4.00085e-07
5.57143e-07
6.75337e-07
7.67579e-07
8.11238e-07
0.000197331
0.00586737
0.00951807
0.0197821
0.0456306
0.08248
0.0981351
0.119371
5.58892e-08
4.303e-08
0.00560707
0.0016719
0.000283237
2.76055e-05
1.25483e-08
4.51117e-07
0.00117886
0.00427036
0.00948343
0.018195
0.0394029
0.0859161
0.154425
0.243711
0.338464
0.411641
0.50502
0.640334
0.74559
0.817961
0.873703
0.267937
0.179156
0.0894006
0.124919
0.157547
0.154703
0.139441
0.291952
0.398516
0.430929
0.485784
0.57343
0.680385
0.826468
0.962925
1.02291
1.08541
1.18394
1.21286
1.15196
1.13347
1.06986
1.11147
0.688744
0.79428
0.825711
0.874244
0.901027
0.902478
1.10249
1.20327
1.22597
1.26165
1.30625
1.35004
1.30755
1.11877
1.05749
1.12861
1.18579
1.06309
1.00003
1
1.00006
1.0003
1.03194
1.14842
1.03076
1.00025
0.999934
0.999525
1.06158
1.0974
1.05346
1.0068
1.00603
1.00526
1
1
1
1
1
1
1
1
1
1.00051
1.00071
1
1.00066
0.999628
0.999829
0.99998
1.00011
1.00055
1
1
1
1
1
1
1
1
1
1
1
1
1
1
1
1
0.999999
1.22159
1.19048
1.16778
1.16661
1.18195
1.21622
1.259
1.30566
1.35257
1.3938
1.43116
1.46411
1.49247
1.5131
1.51113
1.4842
1.44332
1.40116
1.35324
1.29164
1.22305
1.15677
1.10722
2.77069
2.72034
2.67282
2.66114
2.67209
2.69841
2.7349
2.78091
2.82703
2.86128
2.88344
2.89728
2.90522
2.90696
2.8986
2.87832
2.84501
2.80057
2.74524
2.68045
2.60854
2.53295
2.47532
3
3
3
3
3
3
3
3
3
3
3
3
3
3
3
3
3
3
3
3
3
3
3
3
3
3
3
3
3
3
2.99999
3
3
3
3
3
3
3
3
3
3
3
3
3
3
3
3
2.99999
2.99999
3
3
2.99998
2.99982
2.99972
2.9999
3
3
3
3
3
3
3
3
3
3
3
3
3
3
2.99999
2.99996
2.99993
2.99999
3
2.99984
2.99967
2.99966
2.99973
2.99999
3
3
3
3
3
3
3
3
3
3
3
3
3
2.99999
2.99991
2.99989
2.99994
3
2.99984
2.99967
2.99967
2.99969
2.99999
2.99999
2.99999
3
3
3
3
3
3
3
3
3
3
3
2.99999
2.9999
2.99989
2.99994
3
3
2.99984
2.99969
2.99993
2.99999
2.99999
2.99999
2.99999
3
3
3
3
3
3
3
3
3
3
2.99999
2.99995
2.99991
2.99999
3
3
3
3
3
3
2.99999
2.99999
2.99999
3
3
3
3
3
3
3
3
3
3
3
2.99999
2.99999
3
3
3
3
3
3
3
3
3
3
3
3
3
3
3
3
3
3
3
3
3
3
3
3
3
3
3
3
3
3
3
3
3
3
3
3
3
3
3
3
3
3
3
3
3
3
3
3
3
3
3
3
3
3
3
3
3
3
3
3
3
3
3
3
3
3
3
3
3
3
3
3
3
3
3
3
3
3
3
3
3
3
3
3
3
3
3
3
3
3
3
3
3
3
3
3
3
3
3
3
3
3
3
3
3
3
3
3
3
3
3
3
3
3
3
3
3
3
3
3
3
3
3
3
3
3
3
3
3
3
3
3
3
3
3
3
3
3
3
3
3
3
3
3
3
3
3
3
3
3
3
3
3
3
3
3
3
3
3
3
3
3
3
3
3
3
3
3
3
3
3
3
3
3
3
3
3
3
3
3
3
3
3
3
3
3
3
3
3
3
3
3
3
3
3
3
3
3
3
3
3
3
3
3
3
3
3
3
3
3
3
3
3
3
3
3
3
3
3
3
3
3
3
3
3
3
3
3
3
3
3
3
3
3
3
3
3
3
3
3
3
3
3
3
3
3
3
3
3
3
3
3
3
3
3
3
3
3
3
3
3
3
3
3
3
3
3
3
3
3
3
3
3
3
3
3
3
3
3
3
3
3
3
3
3
3
3
3
3
3
3
3
3
3
3
3
3
3
3
3
3
3
3
3
3
3
3
3
3
3
3
3
3
3
3
3
3
3
3
3
3
3
3
3
3
3
3
3
3
3
3
3
3
3
3
3
3
3
3
3
3
3
3
3
3
3
3
3
3
3
3
3
3
3
3
3
3
3
3
3
3
3
3
3
3
3
3
3
3
3
3
3
3
3
3
3
3
3
3
3
3
3
3
3
3
3
3
3
3
3
3
3
3
3
3
3
3
3
3
3
3
3
3
3
3
3
3
3
3
3
3
3
3
3
3
3
3
3
3
3
3
3
3
3
3
3
3
3
3
3
3
3
3
3
3
3
3
3
3
3
3
3
3
3
3
3
3
3
3
3
3
3
3
3
3
3
3
3
3
3
3
3
3
3
3
3
3
3
3
3
3
3
3
3
3
3
3
3
3
3
3
3
3
3
3
3
3
3
3
3
3
3
3
3
3
3
3
3
3
3
3
3
3
3
3
3
3
3
3
3
3
3
3
3
3
3
3
3
3
3
3
3
3
3
3
3
3
3
3
3
3
3
3
3
3
3
3
3
3
3
3
3
3
3
3
3
3
3
3
3
3
3
3
3
3
3
3
3
3
3
3
3
3
3
3
3
3
3
3
3
3
3
3
3
3
3
3
3
3
3
3
3
3
3
3
3
3
3
3
3
3
3
3
3
3
0.0529576
0.099441
0.11859
0.0921019
0.281078
0.358895
0.227331
0.0985306
0.863277
0.950971
1.03891
0.91077
1.27036
1.27435
1.2744
1.24755
1.06392
1.0657
1.02583
1.00535
0.999997
0.999997
1
0.99999
0.999997
0.999995
0.999992
0.99999
1.09111
1.08126
1.07264
1.06321
2.46656
2.45771
2.44636
2.43044
3
3
3
3
3
3
3
3
3
3
3
3
3
3
3
3
3
3
3
3
3
3
3
3
3
3
3
3
3
3
3
3
3
3
3
3
3
3
3
3
3
3
3
3
3
3
3
3
3
3
3
3
3
3
3
3
3
3
3
3
3
3
3
3
3
3
3
3
3
3
3
3
3
3
3
3
3
3
3
3
3
3
3
3
3
3
3
3
3
3
3
3
3
3
3
3
3
3
3
3
3
3
3
3
3
3
3
3
3
3
3
3
3
3
3
3
3
3
3
3
3
3
3
3
3
3
3
3
3
3
3
3
0.031266
0.0365364
0.0609698
0.0620644
0.127396
0.933056
0.939669
0.254853
0.00163614
0.00160739
0.00133058
0.0702174
1.34005
0.458919
0.00319854
0.000224561
0.0572073
0.28966
0.478335
0.0665723
0.0843008
0.230669
0.224883
0.507721
0.821503
0.76536
0.371586
0.0296971
0.00701939
0.0038721
0.0238802
0.432845
0.0937259
0.116097
0.33412
0.524975
0.40101
0.411819
0.794092
0.878105
0.944407
0.778101
0.759662
0.988386
0.841678
0.711522
0.662318
0.693266
0.685834
0.534738
0.412392
0.588536
0.833546
0.887786
0.949237
0.853337
0.720156
1.15675
1.21854
1.22094
1.10856
1.13574
1.30497
1.25109
1.27043
1.0341
0.999719
1.00002
0.998515
0.987371
0.999776
1.00028
1.00312
1.03269
1.04074
1.00741
1.00025
1.00002
1
1.00001
1.00064
1.16383
1.33861
1.15531
1.00003
0.99999
1
1
1
1
1.00029
1.00051
1.00003
1.00001
0.999952
0.999984
0.999991
1
1.00006
1.00019
1.0051
1.01821
1.00403
1
1
1
1
1
1
1.00004
1.00009
1.00005
1
0.99999
0.999993
0.999997
1
0.999998
0.999997
0.999998
1
1
1
1
1
0.999999
0.999991
0.999989
0.999993
0.999981
0.999869
0.999753
0.99962
1.04692
1.02697
1.00839
1.00438
1.00692
1.00489
1.00301
1.00243
1.00245
1.00241
1.00222
1.002
1.00178
1.00219
1.00806
1.02077
1.03611
1.05305
1.04004
2.40892
2.4001
2.37549
2.30731
2.1927
2.07602
1.99534
1.9608
1.95178
1.94765
1.94366
1.93935
1.93504
1.95022
2.08521
2.22161
2.2875
2.31335
2.27151
3
3
3
3
3
3
2.99999
2.99999
2.99997
2.99994
2.99977
2.99939
2.9991
2.99673
2.99018
2.98697
2.98862
2.99051
2.98476
3
3
3
2.99964
2.99899
2.99869
2.99909
2.99996
2.99995
2.9999
2.99977
2.99953
2.99916
2.999
3
3
3
3
3
3
3
3
2.99923
2.9984
2.9984
2.99865
2.99966
2.99998
2.99995
2.99933
2.99888
2.99888
2.9993
2.99998
3
3
3
3
3
3
3
2.99992
3
3
3
2.99997
2.99999
2.99999
2.99979
2.99934
2.99951
2.99983
2.99999
3
3
3
3
3
3
3
3
3
3
3
3
3
2.99999
3
3
3
3
3
3
3
3
3
3
3
3
3
3
3
3
3
3
3
3
3
3
3
3
3
3
3
3
3
3
3
3
3
3
3
3
3
3
3
3
3
3
3
3
3
3
3
3
3
3
3
3
3
3
3
3
3
3
3
3
3
3
3
3
3
3
3
3
3
3
3
3
3
3
3
3
3
3
3
3
3
3
3
3
3
3
3
3
3
3
3
3
3
3
3
3
3
3
3
3
3
3
3
3
3
3
3
3
3
3
3
3
3
3
3
3
3
3
3
3
3
3
3
3
3
3
3
3
3
3
3
3
3
3
3
3
3
3
3
3
3
3
3
3
3
3
3
3
3
3
3
3
3
3
3
3
3
3
3
3
3
3
3
3
3
3
3
3
3
3
3
3
3
3
3
3
3
3
3
3
3
3
3
3
3
3
3
3
3
3
3
3
3
3
3
3
3
3
3
3
3
3
3
3
3
3
3
3
3
3
3
3
3
3
3
3
3
3
3
3
3
3
3
3
3
3
3
3
3
3
3
3
3
3
3
3
3
3
3
3
3
3
3
3
3
3
3
3
3
3
3
3
3
3
3
3
3
3
3
3
3
3
3
3
3
3
3
3
3
3
3
3
3
3
3
3
3
3
3
3
3
3
3
3
3
3
3
3
3
3
3
3
3
3
3
3
3
3
3
3
3
3
3
3
3
3
3
3
3
3
3
3
3
3
3
3
3
3
3
3
3
3
3
3
3
3
3
3
3
3
3
3
3
3
3
3
3
3
3
3
3
3
3
3
3
3
3
3
3
3
3
3
3
3
3
3
3
3
3
3
3
3
3
3
3
3
3
3
3
3
3
3
3
3
3
3
3
3
3
3
3
3
3
3
3
3
3
3
3
3
3
3
3
3
3
3
3
3
3
3
3
3
3
3
3
3
3
3
3
3
3
3
3
3
3
3
3
3
3
3
3
3
3
3
3
3
3
3
3
3
3
3
3
3
3
3
3
3
3
3
3
3
3
3
3
3
3
3
3
3
3
3
3
3
3
3
3
3
3
3
3
3
3
3
3
3
3
3
3
3
3
3
3
3
3
3
3
3
3
3
3
3
3
3
3
3
3
3
3
3
3
3
3
3
3
3
3
3
3
3
3
3
3
3
3
3
3
3
3
3
3
3
3
3
3
3
3
3
3
3
3
3
3
3
3
3
3
3
3
3
3
3
3
3
3
3
3
3
3
3
3
)
;

boundaryField
{
    leftWall
    {
        type            calculated;
        value           nonuniform List<scalar> 
50
(
2
2
2
2
2
2
1.93885
0.569752
7.42256e-07
8.18164e-08
5.58892e-08
0.267937
0.688744
1.14842
1.00066
1.22159
2.77069
3
3
3
2.99999
2.99999
2.99999
2.99999
3
3
3
3
3
3
3
3
3
3
3
3
3
3
3
3
3
3
3
3
3
3
3
3
3
3
)
;
    }
    rightWall
    {
        type            calculated;
        value           nonuniform List<scalar> 
50
(
1.76817
1.76824
1.60958
1.66735
0.801134
0.602548
0.322672
0.444043
0.478335
0.411819
0.720156
1.00741
0.999952
0.99999
0.99962
1.04004
2.27151
2.98476
3
3
3
3
3
3
3
3
3
3
3
3
3
3
3
3
3
3
3
3
3
3
3
3
3
3
3
3
3
3
3
3
)
;
    }
    lowerWall
    {
        type            calculated;
        value           nonuniform List<scalar> 
62
(
2
2
2
2
2
2
2
2
2
2
2
2
2
2
2
2
2
2
1.99998
1.99963
1.99946
1.99946
1.99951
1.99951
2
2
2
1.99999
1.63957
0.159929
0.00800414
0.0529576
0.099441
0.11859
0.0921019
1.8716
1.83848
1.54655
0.869389
0.344101
0.139639
0.127854
0.107424
1.8716
1.85864
1.90168
1.91388
1.93516
1.76914
1.76891
1.762
1.78186
1.79153
1.76922
1.71092
1.71084
1.75113
1.72634
1.65901
1.73659
1.77671
1.76817
)
;
    }
    atmosphere
    {
        type            calculated;
        value           nonuniform List<scalar> 
46
(
3
3
3
3
3
3
3
3
3
3
3
3
3
3
3
3
3
3
3
3
3
3
3
3
3
3
3
3
3
3
3
3
3
3
3
3
3
3
3
3
3
3
3
3
3
3
)
;
    }
    defaultFaces
    {
        type            empty;
    }
}


// ************************************************************************* //
