/*--------------------------------*- C++ -*----------------------------------*\
  =========                 |
  \\      /  F ield         | OpenFOAM: The Open Source CFD Toolbox
   \\    /   O peration     | Website:  https://openfoam.org
    \\  /    A nd           | Version:  13
     \\/     M anipulation  |
\*---------------------------------------------------------------------------*/
FoamFile
{
    format      ascii;
    class       volScalarField;
    location    "3";
    object      alpha.air;
}
// * * * * * * * * * * * * * * * * * * * * * * * * * * * * * * * * * * * * * //

dimensions      [];

internalField   nonuniform List<scalar> 
2268
(
6.0886e-13
7.33722e-13
7.8509e-13
5.98169e-13
3.59263e-13
1.73779e-13
7.43479e-14
4.02885e-14
3.66826e-14
4.77455e-14
8.73361e-14
1.83856e-13
3.50219e-13
6.0525e-13
1.08537e-12
1.67572e-12
2.13264e-12
2.49664e-12
5.52389e-12
1.37108e-11
2.37087e-11
7.27213e-11
4.07647e-10
1.85591e-12
2.37827e-12
2.40607e-12
2.11151e-12
1.41629e-12
6.85088e-13
3.194e-13
2.55697e-13
3.37697e-13
6.43246e-13
1.37958e-12
2.60299e-12
4.63815e-12
8.03699e-12
1.31661e-11
2.01419e-11
2.57139e-11
2.21615e-11
2.30318e-11
1.56142e-10
8.81607e-10
2.79416e-09
7.58986e-09
3.97992e-12
5.94913e-12
5.6887e-12
4.58386e-12
3.94061e-12
2.71418e-12
1.09777e-12
8.6897e-13
1.31676e-12
3.50572e-12
7.6014e-12
1.61959e-11
3.17263e-11
5.83005e-11
1.05829e-10
2.10909e-10
4.83434e-10
9.56684e-10
3.01811e-09
4.29029e-09
6.19772e-09
9.37103e-09
2.33566e-08
9.33332e-12
1.0848e-11
7.9034e-12
5.59065e-12
7.06952e-12
6.83982e-12
5.27625e-12
4.2739e-12
4.81381e-12
7.88294e-12
1.58256e-11
3.17842e-11
5.92821e-11
1.05718e-10
2.06134e-10
5.65134e-10
2.25405e-09
1.03423e-08
3.18449e-08
4.45676e-08
1.83108e-08
1.28398e-08
2.07572e-08
1.07102e-11
5.90477e-12
5.77815e-12
5.6791e-12
7.75659e-12
1.01293e-11
1.10207e-11
1.13172e-11
1.15402e-11
1.32576e-11
1.84444e-11
3.32473e-11
5.89447e-11
8.4977e-11
8.53097e-11
9.03341e-11
1.98501e-10
1.38033e-08
5.92621e-08
7.12992e-08
1.1e-08
1.12482e-08
1.13191e-08
5.05422e-10
6.07788e-09
2.57054e-08
2.4869e-08
7.01509e-12
7.64363e-12
1.02761e-11
1.44784e-11
1.96236e-11
3.28637e-11
4.78018e-11
6.17914e-11
8.26412e-11
2.00132e-10
2.06804e-09
5.70652e-09
3.72682e-09
3.73458e-09
3.45393e-08
2.09465e-07
3.40954e-05
0.000456036
0.000921155
4.58118e-10
9.52862e-09
1.81337e-07
2.61477e-07
9.8572e-09
4.98972e-12
5.23166e-12
6.88006e-12
1.55979e-11
2.75168e-10
1.21098e-09
2.12981e-09
2.98108e-09
5.09287e-09
1.78657e-08
5.00582e-08
9.01462e-08
1.41993e-07
6.75502e-07
9.94098e-06
0.000140643
0.00169038
0.00317243
1.2414e-09
1.13567e-08
1.09566e-07
2.48736e-07
1.31852e-08
7.55933e-07
4.95401e-12
4.93365e-12
2.65531e-10
4.943e-09
8.42598e-09
1.12745e-08
1.37015e-08
2.00254e-08
3.80943e-08
7.74315e-08
2.16448e-07
5.18976e-07
2.79784e-06
2.23316e-05
0.000138535
0.000792423
0.00266807
0.000368082
0.00732482
0.033152
0.03887
0.0562824
0.0565252
0.0565542
0.0492273
0.04552
0.0455486
0.06501
0.0597274
0.064995
0.0613307
0.0488848
0.0150592
0.0139212
0.0133538
0.0131926
0.000368082
0.000368082
0.00429008
0.00957742
0.0171485
0.0316475
0.0292046
0.0328501
0.0873485
0.122962
0.0624083
0.060009
0.0790929
0.139328
0.124095
0.072827
0.0135013
0.0131924
0.0131921
0.00520886
0.00633284
0.00899057
0.0107877
0.0018851
0.000668404
6.97366e-05
2.99158e-05
0.108207
0.370035
0.379982
0.25037
0.314049
0.361487
0.340471
0.181447
0.0495089
0.0259256
0.053538
0.0157482
0.0165905
0.023503
0.0237657
0.0213899
0.00274124
3.00177e-05
3.0282e-05
0.0162978
0.263307
0.572276
0.575475
0.57539
0.575125
0.575068
0.485203
0.300501
0.212143
0.254374
0.011848
0.00992274
0.00992657
0.0184606
0.0202318
0.00335029
3.04808e-05
0.0117949
0.0156476
0.0170185
0.120218
0.474665
0.575382
0.573533
0.142452
0.0563603
0.0621176
0.0241243
0.164129
0.0110691
0.0113557
0.0141817
0.00897153
0.00875324
0.00311045
0.0325449
0.0504285
0.0532024
0.0107262
3.15713e-05
0.0545319
0.43938
0.273767
3.08043e-06
3.08126e-06
3.84265e-06
3.74153e-06
0.137286
0.0167972
0.0496241
0.0498101
0.0229653
0.0107222
0.0297804
0.0498644
0.0766023
0.0480091
0.00336082
3.30724e-05
0.000197854
0.326476
0.117476
3.08128e-06
8.69307e-06
5.07285e-06
1.53715e-05
0.0970279
0.0281552
0.0514022
0.0515871
0.0335101
0.0309883
0.0688644
0.178864
0.114063
0.00359916
0.000113366
3.39009e-05
3.1023e-05
0.364635
0.147878
0.000243443
3.1808e-06
5.81021e-05
0.00523951
0.146575
1.17079e-08
1.91729e-08
1.93545e-08
1.95756e-08
2.13403e-05
7.1124e-07
1.30167e-07
1.08532e-07
7.34529e-08
4.6536e-08
3.86347e-08
4.25357e-08
4.61758e-08
5.49286e-08
7.5707e-08
4.46118e-07
5.05173e-07
8.91779e-07
1.29677e-06
1.28945e-06
1.44268e-06
1.49865e-06
0.00281333
1.24944e-08
1.30334e-08
0.000210048
0.000330385
3.30205e-05
3.30759e-08
3.39963e-08
3.45631e-08
3.42479e-08
6.83214e-08
1.32377e-07
1.84811e-07
2.24412e-07
2.54719e-07
2.62084e-07
6.57754e-05
0.00195579
0.00317269
0.00659403
0.0152102
0.02644
0.0293984
0.0381351
1.30336e-08
1.36168e-08
0.00186902
0.000557301
9.44104e-05
9.20108e-06
3.54887e-09
1.49719e-07
0.000392952
0.00142345
0.00316114
0.00606499
0.0131343
0.0285126
0.0492481
0.0755694
0.100216
0.106176
0.0991559
0.0934933
0.0933292
0.093375
0.13261
0.0893124
0.0597186
0.00603931
1.0562e-06
6.14125e-06
2.6182e-07
0.0159671
0.0863573
0.12036
0.121407
0.125383
0.137166
0.137098
0.138655
0.150075
0.150289
0.150323
0.150273
0.117159
0.0759776
0.066735
0.0349318
0.0557484
0.114593
0.0701309
0.00215725
4.62223e-07
3.97015e-07
2.31764e-07
0.11987
0.184277
0.184317
0.178787
0.178885
0.179106
0.153775
0.0593861
0.0287461
0.0643059
0.0928937
0.0315467
1.4278e-05
1.17684e-07
3.12662e-05
0.000152168
0.0159668
0.0779636
0.0153948
0.000146092
1.23482e-06
4.47456e-07
0.0307978
0.0486998
0.0267294
0.00340182
0.00301333
0.00262967
3.46462e-07
4.98715e-09
5.04722e-10
3.40508e-15
9.52563e-19
6.39756e-25
8.85248e-27
-1.69868e-24
1.52158e-06
0.00025561
0.000356463
1.54965e-07
0.000366956
3.47744e-07
4.80376e-07
1.7189e-05
5.92335e-05
0.000273706
1.77092e-08
2.1403e-08
1.76058e-08
2.79255e-08
2.5914e-08
1.26432e-08
1.15587e-08
5.60295e-09
1.11536e-08
1.16403e-08
7.04525e-10
7.24462e-12
-7.05907e-12
-6.18858e-10
-5.92832e-10
-5.4374e-19
5.7281e-15
0.110833
0.095482
0.0840643
0.0833167
0.0909747
0.108111
0.129499
0.152832
0.176285
0.196898
0.215579
0.232057
0.246237
0.25655
0.255567
0.242098
0.22166
0.200581
0.176618
0.145819
0.111526
0.0783873
0.0536097
0.88535
0.860273
0.836483
0.830575
0.836044
0.849204
0.867448
0.890455
0.913514
0.930639
0.941722
0.948642
0.95261
0.95348
0.9493
0.939162
0.922507
0.900284
0.872619
0.840224
0.804272
0.766477
0.737662
1
1
1
0.999999
0.999999
1
1
1
1
1
1
1
1
1
0.999999
0.999999
0.999999
0.999999
0.999999
0.999999
0.999999
0.999998
0.999999
0.999999
0.999999
0.999999
0.999999
1
1
0.999998
0.999994
0.999999
0.999999
1
1
1
1
1
1
1
1
1
1
1
1
1
0.999998
0.999996
0.999995
0.999999
0.999999
0.999988
0.99991
0.999862
0.999954
0.999999
1
1
1
1
1
1
1
1
1
1
1
1
1
0.999996
0.999982
0.999967
0.999995
0.999998
0.999918
0.999834
0.999834
0.999868
0.999997
0.999999
0.999999
1
1
1
1
1
1
1
1
1
1
1
0.999995
0.999956
0.999948
0.999972
0.999998
0.999921
0.999835
0.999834
0.999848
0.999997
0.999997
0.999998
0.999999
0.999999
1
1
1
1
1
1
1
1
1
0.999995
0.999953
0.999948
0.999971
1
0.999998
0.999919
0.999847
0.999968
0.999997
0.999997
0.999997
0.999997
0.999999
1
1
1
1
1
1
1
1
1
0.999997
0.999977
0.999954
0.999997
1
1
1
1
1
0.999999
0.999997
0.999997
0.999998
1
1
1
1
1
1
1
1
1
1
0.999998
0.999996
0.999997
1
1
1
1
1
1
1
0.999999
0.999999
0.999999
1
1
1
1
1
1
1
1
1
1
0.999999
0.999999
1
1
1
1
1
1
1
1
0.999999
0.999999
1
1
1
1
1
1
1
1
1
1
1
0.999999
1
1
1
1
1
1
1
1
1
0.999999
0.999999
1
1
1
1
1
1
1
1
1
1
1
0.999999
1
1
1
1
1
1
1
1
1
1
1
1
1
1
1
1
1
1
1
1
1
1
1
1
1
1
1
1
1
1
1
1
1
1
1
1
1
1
1
1
1
1
1
1
1
1
1
1
1
1
1
1
1
1
1
1
1
1
1
1
1
1
1
1
1
1
1
1
1
1
1
1
1
1
1
1
1
1
1
1
1
1
1
1
1
1
1
1
1
1
1
1
1
1
1
1
1
1
1
1
1
1
1
1
1
1
1
1
1
1
1
1
1
1
1
1
1
1
1
1
1
1
1
1
1
1
1
1
1
1
1
1
1
1
1
1
1
1
1
1
1
1
1
1
1
1
1
1
1
1
1
1
1
1
1
1
1
1
1
1
1
1
1
1
1
1
1
1
1
1
1
1
1
1
1
1
1
1
1
1
1
1
1
1
1
1
1
1
1
1
1
1
1
1
1
1
1
1
1
1
1
1
1
1
1
1
1
1
1
1
1
1
1
1
1
1
1
1
1
1
1
1
1
1
1
1
1
1
1
1
1
1
1
1
1
1
1
1
1
1
1
1
1
1
1
1
1
1
1
1
1
1
1
1
1
1
1
1
1
1
1
1
1
1
1
1
1
1
1
1
1
1
1
1
1
1
1
1
1
1
1
1
1
1
1
1
1
1
1
1
1
1
1
1
1
1
1
1
1
1
1
1
1
1
1
1
1
1
1
1
1
1
1
1
1
1
1
1
1
1
1
1
1
1
1
1
1
1
1
1
1
1
1
1
1
1
1
1
1
1
1
1
1
1
1
1
1
1
1
1
1
1
1
1
1
1
1
1
1
1
1
1
1
1
1
1
1
1
1
1
1
1
1
1
1
1
1
1
1
1
1
1
1
1
1
1
1
1
1
1
1
1
1
1
1
1
1
1
1
1
1
1
1
1
1
1
1
1
1
1
1
1
1
1
1
1
1
1
1
1
1
1
1
1
1
1
1
1
1
1
1
1
1
1
1
1
1
1
1
1
1
1
1
1
1
1
1
1
1
1
1
1
1
1
1
1
1
1
1
1
1
1
1
1
1
1
1
1
1
1
1
1
1
1
1
1
1
1
1
1
1
1
1
1
1
1
1
1
1
1
1
1
1
1
1
1
1
1
1
1
1
1
1
1
1
1
1
1
1
1
1
1
1
1
1
1
1
1
1
1
1
1
1
1
1
1
1
1
0.00980095
0.0159978
0.0145751
0.00349142
0.0935383
0.117495
0.0557861
0.00739697
0.137169
0.137192
0.137169
0.0818059
0.135587
0.137169
0.137191
0.12364
0.0319603
0.0328504
0.0128614
0.00255138
8.28881e-12
-3.17181e-20
-4.50635e-21
-4.30542e-22
3.2156e-23
-1.34208e-15
-8.49872e-15
-3.18134e-14
0.0455554
0.0406311
0.0363221
0.0316056
0.733281
0.728854
0.723182
0.71522
0.999999
0.999999
1
0.999999
1
1
1
1
1
1
1
1
1
1
1
1
1
1
1
1
1
1
1
1
1
1
1
1
1
1
1
1
1
1
1
1
1
1
1
1
1
1
1
1
1
1
1
1
1
1
1
1
1
1
1
1
1
1
1
1
1
1
1
1
1
1
1
1
1
1
1
1
1
1
1
1
1
1
1
1
1
1
1
1
1
1
1
1
1
1
1
1
1
1
1
1
1
1
1
1
1
1
1
1
1
1
1
1
1
1
1
1
1
1
1
1
1
1
1
1
1
1
1
1
1
1
1
1
1
1
1
1
0.00354537
0.00831961
0.00842774
0.0084545
0.0318593
0.171444
0.18088
0.0694244
0.000526898
0.000516539
0.000368972
0.0171646
0.397043
0.11611
3.0911e-06
3.10015e-06
0.0117028
0.0579808
0.159174
0.0182089
0.0264555
0.0669601
0.0689202
0.160996
0.18088
0.18088
0.119428
0.00478387
2.68676e-09
0.000455156
0.00689278
0.119855
0.0172562
0.00109346
0.00118237
0.0295719
0.0657902
0.126344
0.0965012
0.160966
0.18088
0.180882
0.180876
0.18088
0.18088
0.177818
0.0390421
9.85517e-11
0.000251527
0.000740543
0.00108006
0.00138396
0.000142105
0.00308414
0.0462096
0.0643055
0.0475304
0.0781278
0.109152
0.111351
0.0687047
0.0858877
0.18088
0.18088
0.174787
0.0181109
1.16595e-10
8.72322e-06
3.14402e-05
3.43503e-05
1.99496e-05
0.000124952
0.0014928
0.0153119
0.018392
0.00258923
-2.36735e-08
0
4.07159e-07
3.48138e-06
0.000319334
0.0819161
0.169303
0.0776388
4.4694e-08
9.90602e-11
5.50735e-07
3.78142e-08
1.91445e-08
1.33233e-06
0.000139478
0.000243308
9.78014e-06
-1.35504e-10
-6.98729e-26
-4.24426e-24
2.708e-09
9.20508e-07
3.43012e-05
9.68676e-05
0.0025516
0.00910275
0.00201291
1.43652e-07
1.24705e-07
2.65222e-07
1.53485e-07
1.77552e-08
4.4599e-07
2.12477e-05
4.24803e-05
2.68133e-05
6.24392e-06
1.31241e-07
-5.86657e-14
6.48571e-25
7.95638e-07
4.24557e-14
-4.87009e-08
4.10402e-15
1.37862e-08
2.22183e-07
1.70905e-07
2.23119e-07
1.68495e-07
1.75712e-08
1.78741e-08
1.77592e-08
1.64778e-06
6.62818e-08
-2.60454e-21
-4.83246e-09
-2.13036e-10
0.0234617
0.0134832
0.00419247
0.00219156
0.00346159
0.002443
0.00150522
0.0012174
0.00122693
0.0012052
0.0011119
0.00100069
0.000890157
0.00110616
0.00468834
0.012446
0.0205965
0.0292373
0.0232257
0.704462
0.700048
0.687745
0.653655
0.596352
0.538008
0.497669
0.480401
0.475893
0.473827
0.471833
0.46968
0.46752
0.475414
0.54549
0.614277
0.647223
0.660147
0.639438
0.999999
0.999999
1
1
0.999999
0.999999
0.999996
0.999994
0.999989
0.999977
0.999904
0.99976
0.999655
0.998785
0.99625
0.994977
0.99543
0.996093
0.994326
1
1
1
0.999818
0.999493
0.999346
0.999543
0.999979
0.999979
0.999959
0.999904
0.999809
0.999671
0.999609
0.999998
1
1
1
1
1
1
1
0.999616
0.9992
0.999201
0.999327
0.999829
0.999991
0.999981
0.999671
0.999441
0.999445
0.999651
0.99999
0.999999
1
1
1
1
1
1
0.999959
1
1
1
0.999984
0.999998
0.999997
0.999895
0.999668
0.999754
0.999917
0.999997
0.999999
1
1
1
1
1
1
1
1
1
1
1
0.999999
0.999996
1
1
1
1
0.999999
1
1
1
1
1
1
1
1
1
1
1
1
0.999999
0.999999
1
1
1
1
1
1
1
1
1
1
1
1
1
1
1
1
1
1
1
1
1
1
1
1
1
1
1
1
1
1
1
1
1
1
1
1
1
1
1
1
1
1
1
1
1
1
1
1
1
1
1
1
1
1
1
1
1
1
1
1
1
1
1
1
1
1
1
1
1
1
1
1
1
1
1
1
1
1
1
1
1
1
1
1
1
1
1
1
1
1
1
1
1
1
1
1
1
1
1
1
1
1
1
1
1
1
1
1
1
1
1
1
1
1
1
1
1
1
1
1
1
1
1
1
1
1
1
1
1
1
1
1
1
1
1
1
1
1
1
1
1
1
1
1
1
1
1
1
1
1
1
1
1
1
1
1
1
1
1
1
1
1
1
1
1
1
1
1
1
1
1
1
1
1
1
1
1
1
1
1
1
1
1
1
1
1
1
1
1
1
1
1
1
1
1
1
1
1
1
1
1
1
1
1
1
1
1
1
1
1
1
1
1
1
1
1
1
1
1
1
1
1
1
1
1
1
1
1
1
1
1
1
1
1
1
1
1
1
1
1
1
1
1
1
1
1
1
1
1
1
1
1
1
1
1
1
1
1
1
1
1
1
1
1
1
1
1
1
1
1
1
1
1
1
1
1
1
1
1
1
1
1
1
1
1
1
1
1
1
1
1
1
1
1
1
1
1
1
1
1
1
1
1
1
1
1
1
1
1
1
1
1
1
1
1
1
1
1
1
1
1
1
1
1
1
1
1
1
1
1
1
1
1
1
1
1
1
1
1
1
1
1
1
1
1
1
1
1
1
1
1
1
1
1
1
1
1
1
1
1
1
1
1
1
1
1
1
1
1
1
1
1
1
1
1
1
1
1
1
1
1
1
1
1
1
1
1
1
1
1
1
1
1
1
1
1
1
1
1
1
1
1
1
1
1
1
1
1
1
1
1
1
1
1
1
1
1
1
1
1
1
1
1
1
1
1
1
1
1
1
1
1
1
1
1
1
1
1
1
1
1
1
1
1
1
1
1
1
1
1
1
1
1
1
1
1
1
1
1
1
1
1
1
1
1
1
1
1
1
1
1
1
1
1
1
1
1
1
1
1
1
1
1
1
1
1
1
1
1
1
1
1
1
1
1
1
1
1
1
1
1
1
1
1
1
1
1
1
1
1
1
1
1
1
1
1
1
1
1
1
1
1
)
;

boundaryField
{
    leftWall
    {
        type            alphaContactAngle;
        contactAngleProperties 
        {
            mercury         
            {
                theta0          90;
            }
            water           
            {
                theta0          90;
            }
            oil             
            {
                theta0          90;
            }
        }
        value           nonuniform List<scalar> 
50
(
6.0886e-13
1.85591e-12
3.97992e-12
9.33332e-12
1.07102e-11
5.05422e-10
4.58118e-10
1.2414e-09
1.17079e-08
1.24944e-08
1.30336e-08
0.0893124
0.114593
0.0779636
0.000366956
0.110833
0.88535
1
0.999999
0.999998
0.999996
0.999995
0.999995
0.999997
0.999998
0.999999
0.999999
0.999999
1
1
1
1
1
1
1
1
1
1
1
1
1
1
1
1
1
1
1
1
1
1
)
;
    }
    rightWall
    {
        type            alphaContactAngle;
        contactAngleProperties 
        {
            mercury         
            {
                theta0          90;
            }
            water           
            {
                theta0          90;
            }
            oil             
            {
                theta0          90;
            }
        }
        value           nonuniform List<scalar> 
50
(
0.0131926
0.0131921
0.053538
0.254374
0.164129
0.137286
0.0970279
0.146575
0.159174
0.126344
0.0475304
0.00258923
-6.98729e-26
1.31241e-07
-2.13036e-10
0.0232257
0.639438
0.994326
1
1
1
1
1
1
1
1
1
1
1
1
1
1
1
1
1
1
1
1
1
1
1
1
1
1
1
1
1
1
1
1
)
;
    }
    lowerWall
    {
        type            alphaContactAngle;
        contactAngleProperties 
        {
            mercury         
            {
                theta0          90;
            }
            water           
            {
                theta0          90;
            }
            oil             
            {
                theta0          90;
            }
        }
        value           nonuniform List<scalar> 
62
(
6.0886e-13
7.33722e-13
7.8509e-13
5.98169e-13
3.59263e-13
1.73779e-13
7.43479e-14
4.02885e-14
3.66826e-14
4.77455e-14
8.73361e-14
1.83856e-13
3.50219e-13
6.0525e-13
1.08537e-12
1.67572e-12
2.13264e-12
2.49664e-12
5.52389e-12
1.37108e-11
2.37087e-11
7.27213e-11
4.07647e-10
4.07647e-10
7.58986e-09
2.33566e-08
2.07572e-08
1.13191e-08
0.000921155
0.00317243
0.00266807
0.00980095
0.0159978
0.0145751
0.00349142
0.000368082
0.000368082
0.00520886
0.0157482
0.011848
0.0110691
0.0167972
0.0281552
0.000368082
0.00732482
0.033152
0.03887
0.0562824
0.0565252
0.0565542
0.0492273
0.04552
0.0455486
0.06501
0.0597274
0.064995
0.0613307
0.0488848
0.0150592
0.0139212
0.0133538
0.0131926
)
;
    }
    atmosphere
    {
        type            inletOutlet;
        inletValue      uniform 1;
        value           nonuniform List<scalar> 
46
(
1
1
1
1
1
1
1
1
1
1
1
1
1
1
1
1
1
1
1
1
1
1
1
1
1
1
1
1
1
1
1
1
1
1
1
1
1
0.999999
1
1
1
1
1
1
1
1
)
;
    }
    defaultFaces
    {
        type            empty;
    }
}


// ************************************************************************* //
