/*--------------------------------*- C++ -*----------------------------------*\
  =========                 |
  \\      /  F ield         | OpenFOAM: The Open Source CFD Toolbox
   \\    /   O peration     | Website:  https://openfoam.org
    \\  /    A nd           | Version:  13
     \\/     M anipulation  |
\*---------------------------------------------------------------------------*/
FoamFile
{
    format      ascii;
    class       volScalarField;
    location    "3";
    object      alpha.mercury;
}
// * * * * * * * * * * * * * * * * * * * * * * * * * * * * * * * * * * * * * //

dimensions      [];

internalField   nonuniform List<scalar> 
2268
(
1
1
1
1
1
1
1
1
1
1
1
1
1
1
1
1
1
1
0.999978
0.999631
0.999459
0.999459
0.99951
1
1
1
1
1
1
1
1
1
1
1
1
1
1
1
1
1
1
0.999996
0.999996
0.99998
0.999975
1
1
1
1
1
1
1
1
1
1
1
1
1
1
1
1
1
1
1
1
1
1
1
1
1
1
1
1
1
1
1
1
1
1
1
1
1
1
1
1
1
1
1
1
1
1
1
1
1
1
1
1
1
1
1
1
1
1
1
1
1
1
1
1
1
1
1
1
0.999998
0.999985
1
1
1
1
1
1
1
1
1
0.995676
0.981465
0.966911
0.950952
0.933328
0.915243
0.89771
0.881572
0.867693
0.856964
0.84986
0.844945
0.835491
0.818395
0.969426
0.933379
0.893752
0.85014
0.795394
0.730087
0.656849
0.578677
0.498684
0.424318
0.360511
0.303801
0.254835
0.214566
0.181982
0.156059
0.135892
0.12098
0.110982
0.105141
0.101399
0.0932087
0.0751968
0.284876
0.209149
0.156767
0.115937
0.0791451
0.048541
0.0258528
0.0110159
0.00269751
3.10558e-21
2.62519e-21
6.31169e-21
1.09079e-20
2.82775e-20
1.06194e-19
-6.76933e-11
-1.09934e-09
-2.80779e-09
3.43541e-19
-1.17865e-10
-3.45408e-09
-1.85302e-07
-3.5403e-08
0.87805
0.87805
0.878055
0.878044
0.838959
0.657202
0.656879
0.664415
0.691688
0.701301
0.651964
0.651377
0.70524
0.752863
0.752932
0.752883
0.752829
0.752771
0.752828
0.844924
0.866366
0.876628
0.869161
0.864261
0.844908
0.827063
0.826992
0.827299
0.826866
0.759138
0.678374
0.749723
0.752852
0.752863
0.752987
0.752934
0.752916
0.752882
0.545458
0.57574
0.584139
0.567971
0.584877
0.617808
0.60655
0.550925
0.486224
0.529279
0.580977
0.59054
0.511433
0.549439
0.595848
0.616825
0.587205
0.549406
0.503159
0.191919
0.199465
0.228241
0.206752
0.16681
0.159094
0.103985
0.0768623
0.0951627
0.0836529
0.154769
0.240922
0.250901
0.211012
0.146864
0.0958841
0.108529
0.144153
0.230185
0.0458966
0.0472273
0.0620313
0.105262
0.0664845
0.0299346
0.0295831
0.0303707
0.031467
0.0167004
0.00329156
0.0117208
0.0977448
0.06244
-3.26707e-20
7.86468e-20
-3.54089e-09
4.10895e-10
0.000120661
0.0502396
0.0535823
0.0530956
0.0636304
0.0904783
0.0463796
0.0581039
0.0691625
0.072775
0.0425961
0.000935401
0.000309372
0.00479516
9.80036e-05
1.84761e-07
4.51385e-06
1.37582e-06
9.3018e-06
3.27963e-06
0.0322498
0.0183469
0.0237219
0.0311616
0.0876185
0.088574
0.0763511
0.0775639
0.0569791
0.0181318
0.000470316
0.000310724
4.25973e-09
3.20438e-08
3.48925e-07
6.38807e-06
1.80388e-06
3.3662e-05
3.43529e-06
0.00866767
0.0163275
0.0207194
0.0113244
0.0129371
0.0854599
0.0854906
0.0567536
0.00493234
0.000401791
0.000478409
0.000299974
5.27156e-06
5.18509e-08
4.46587e-07
6.4364e-06
1.81535e-06
0.000322922
2.38659e-05
3.5198e-07
2.17262e-07
3.98051e-06
8.4893e-06
1.01474e-11
2.25163e-13
6.34718e-12
2.23317e-13
6.34718e-12
2.10385e-11
8.35799e-11
1.53534e-10
1.87804e-10
3.07695e-10
7.48199e-10
8.97481e-10
1.06792e-09
1.55463e-09
1.02263e-09
7.01172e-11
3.20319e-12
-2.10495e-07
1.81406e-21
2.1058e-08
7.47423e-10
2.15073e-06
2.22959e-06
3.04293e-08
3.8393e-10
5.32912e-10
5.58936e-10
5.8967e-10
6.59199e-10
8.49549e-10
9.59754e-10
8.40918e-10
9.88396e-10
2.01607e-09
2.5192e-09
3.05876e-09
4.00312e-09
3.31756e-09
5.81026e-12
7.71159e-08
3.92987e-07
3.84052e-07
8.04536e-09
1.05592e-09
3.17108e-10
3.07593e-10
2.8436e-09
1.12014e-09
9.59583e-10
9.79639e-10
1.00988e-09
1.01958e-09
1.02243e-09
1.00214e-09
9.46239e-10
8.49904e-10
8.49025e-10
8.7303e-10
1.00463e-09
1.85914e-09
2.13937e-09
6.61322e-12
1.63905e-07
6.08218e-07
6.11109e-07
1.30516e-09
4.72214e-10
4.68853e-10
5.58463e-10
9.16316e-10
8.38184e-10
8.56061e-10
9.09784e-10
9.50462e-10
1.01237e-09
1.1143e-09
1.25791e-09
1.38796e-09
1.46433e-09
1.48388e-09
1.55551e-09
1.89296e-09
2.82437e-09
3.79203e-09
3.15485e-09
3.14503e-09
7.40279e-08
7.55465e-08
4.74856e-10
4.80433e-10
5.29848e-10
5.86558e-10
6.41752e-10
7.35657e-10
8.73802e-10
1.0215e-09
1.13081e-09
1.25278e-09
1.4276e-09
1.63385e-09
1.69122e-09
1.68997e-09
1.65486e-09
1.75075e-09
2.31395e-09
3.69431e-09
4.2364e-09
6.33939e-09
4.16127e-09
3.90647e-07
3.53347e-06
4.62769e-10
4.8178e-10
5.13929e-10
5.54525e-10
6.36833e-10
8.13698e-10
9.73346e-10
1.0737e-09
1.11672e-09
1.14934e-09
1.19385e-09
1.2513e-09
1.30238e-09
1.29003e-09
1.33326e-09
1.72351e-09
2.68972e-09
3.80762e-09
4.10704e-09
6.32314e-09
1.27884e-07
1.52118e-06
7.46979e-06
4.64076e-10
4.58653e-10
4.27249e-10
4.37482e-10
5.16603e-10
5.76234e-10
5.73866e-10
5.13388e-10
4.60308e-10
4.65984e-10
5.24728e-10
6.27748e-10
7.53125e-10
8.93759e-10
1.04991e-09
1.22452e-09
1.73499e-09
3.34277e-09
3.6554e-09
1.63342e-08
1.91088e-07
5.20407e-07
1.3821e-06
4.61647e-10
4.4932e-10
3.91705e-10
3.13629e-10
2.63008e-10
2.23868e-10
1.69547e-10
1.21387e-10
1.11212e-10
1.20538e-10
1.60879e-10
2.38945e-10
3.47047e-10
4.98478e-10
6.36968e-10
7.41922e-10
1.31213e-09
4.49903e-09
5.62396e-09
6.45813e-09
2.8672e-08
1.76531e-08
1.81556e-07
4.08046e-10
4.25597e-10
3.8919e-10
2.76607e-10
1.587e-10
9.00015e-11
5.16877e-11
3.46653e-11
3.23988e-11
3.50922e-11
4.68064e-11
6.41609e-11
7.72098e-11
9.05559e-11
1.10028e-10
1.50853e-10
2.68835e-10
9.86262e-10
1.6437e-09
1.19099e-09
5.81141e-10
6.2185e-10
5.8114e-10
3.00735e-10
3.53811e-10
3.24785e-10
2.28913e-10
1.37251e-10
8.7199e-11
5.45332e-11
3.71248e-11
2.90817e-11
2.4209e-11
2.07741e-11
1.84119e-11
1.62488e-11
1.51611e-11
1.49947e-11
1.70657e-11
1.90295e-11
2.82076e-11
1.04543e-10
3.30725e-10
6.27815e-10
1.17244e-09
2.05883e-09
2.61004e-10
3.15758e-10
2.61251e-10
1.5568e-10
1.02606e-10
8.58688e-11
6.91568e-11
4.89354e-11
3.14593e-11
2.28247e-11
1.64942e-11
1.27524e-11
1.04573e-11
8.5248e-12
7.92143e-12
8.0974e-12
1.08714e-11
3.71171e-11
1.19832e-10
3.17474e-10
6.70057e-10
1.21722e-09
1.93114e-09
2.54857e-10
2.99125e-10
2.21842e-10
1.62781e-10
1.45591e-10
1.33782e-10
1.14505e-10
8.88942e-11
5.42108e-11
3.00333e-11
1.80352e-11
1.17376e-11
8.21109e-12
5.7812e-12
4.601e-12
4.71141e-12
6.85342e-12
2.63322e-11
8.39523e-11
1.9304e-10
3.81479e-10
5.76105e-10
7.36066e-10
2.58904e-10
3.06178e-10
2.56517e-10
2.09743e-10
2.02184e-10
1.86047e-10
1.56692e-10
1.13672e-10
7.67013e-11
3.74287e-11
1.94571e-11
1.1766e-11
7.58607e-12
4.86446e-12
3.37377e-12
2.87329e-12
2.77498e-12
5.86895e-12
1.7046e-11
4.41979e-11
1.0212e-10
1.61976e-10
1.89896e-10
2.65774e-10
3.30631e-10
3.09887e-10
2.78492e-10
2.52424e-10
2.16839e-10
1.74854e-10
1.31074e-10
8.10915e-11
4.39659e-11
2.18198e-11
1.23925e-11
7.91545e-12
4.81426e-12
3.26876e-12
2.36749e-12
1.67938e-12
1.433e-12
2.2712e-12
7.91265e-12
1.85661e-11
3.37493e-11
3.54478e-11
2.63689e-10
3.57115e-10
3.62168e-10
3.2497e-10
2.80346e-10
2.39284e-10
1.76272e-10
1.29148e-10
7.92753e-11
4.32186e-11
2.66958e-11
1.56015e-11
9.52684e-12
6.17202e-12
3.40181e-12
2.04546e-12
1.41384e-12
1.14259e-12
1.01002e-12
1.41393e-12
2.91797e-12
5.66814e-12
6.8429e-12
2.52457e-10
3.61297e-10
3.765e-10
3.45619e-10
2.92561e-10
2.40129e-10
1.70838e-10
1.17531e-10
7.69285e-11
4.67569e-11
2.64086e-11
1.66378e-11
1.12974e-11
7.08201e-12
4.00658e-12
2.23809e-12
1.33004e-12
1.01071e-12
8.17964e-13
7.16932e-13
7.62125e-13
1.1713e-12
3.09193e-12
2.3291e-10
3.54657e-10
3.76075e-10
3.38698e-10
2.74482e-10
2.16547e-10
1.63658e-10
1.03288e-10
7.13415e-11
4.67819e-11
2.8314e-11
1.67733e-11
1.07815e-11
7.1085e-12
4.79537e-12
2.66923e-12
1.45726e-12
9.64775e-13
7.56347e-13
6.02234e-13
4.96272e-13
4.93971e-13
1.39581e-12
2.0783e-10
3.3365e-10
3.54581e-10
3.08128e-10
2.46292e-10
1.9375e-10
1.25988e-10
8.99036e-11
5.88156e-11
3.71772e-11
2.48845e-11
1.84964e-11
1.10576e-11
7.522e-12
4.22322e-12
2.55475e-12
1.68966e-12
1.00883e-12
7.29025e-13
5.75577e-13
4.27309e-13
3.29428e-13
4.46743e-13
1.78593e-10
2.93326e-10
3.10651e-10
2.66858e-10
2.10974e-10
1.5352e-10
1.04026e-10
8.04241e-11
4.99783e-11
3.01303e-11
1.91181e-11
1.25515e-11
9.20774e-12
6.6564e-12
3.97427e-12
2.50515e-12
1.79182e-12
1.07307e-12
7.11485e-13
5.48003e-13
4.01673e-13
2.86981e-13
2.24155e-13
1.50088e-10
2.47066e-10
2.68661e-10
2.27201e-10
1.75085e-10
1.28702e-10
8.73475e-11
6.24657e-11
3.91078e-11
2.10827e-11
1.35009e-11
9.13333e-12
6.73832e-12
4.86298e-12
3.34421e-12
2.33295e-12
1.63175e-12
1.05818e-12
6.98527e-13
5.10965e-13
3.70442e-13
2.55363e-13
1.9032e-13
1.22256e-10
2.03616e-10
2.22173e-10
1.85868e-10
1.4303e-10
1.03742e-10
6.95858e-11
4.71995e-11
3.14082e-11
1.45478e-11
8.92145e-12
6.18209e-12
4.76685e-12
3.42879e-12
2.51417e-12
1.81221e-12
1.28127e-12
9.12978e-13
6.3517e-13
4.49632e-13
3.19819e-13
2.26818e-13
1.63915e-13
9.93423e-11
1.62478e-10
1.74614e-10
1.46237e-10
1.11093e-10
7.9565e-11
5.33977e-11
3.55267e-11
2.30605e-11
1.08487e-11
6.16479e-12
4.38006e-12
3.27622e-12
2.42107e-12
1.76208e-12
1.27484e-12
9.31699e-13
6.92664e-13
4.9999e-13
3.58102e-13
2.54488e-13
1.7603e-13
1.31991e-13
7.61085e-11
1.21441e-10
1.31898e-10
1.08854e-10
8.19651e-11
5.80498e-11
3.89769e-11
2.56997e-11
1.6201e-11
8.88781e-12
4.6829e-12
3.27947e-12
2.27366e-12
1.61899e-12
1.16239e-12
8.38027e-13
6.20173e-13
4.73765e-13
3.49202e-13
2.5469e-13
1.81478e-13
1.29033e-13
9.43965e-14
5.69587e-11
8.81877e-11
9.42631e-11
7.69029e-11
5.73883e-11
4.02493e-11
2.74163e-11
1.80826e-11
1.14206e-11
6.59346e-12
3.84497e-12
2.43275e-12
1.57267e-12
1.05844e-12
7.29495e-13
5.12631e-13
3.78042e-13
2.90365e-13
2.17651e-13
1.61355e-13
1.15612e-13
7.93346e-14
5.99005e-14
4.08192e-11
6.06806e-11
6.29596e-11
5.11052e-11
3.78085e-11
2.64926e-11
1.81067e-11
1.21255e-11
7.77643e-12
4.74885e-12
2.88357e-12
1.76528e-12
1.09233e-12
6.88389e-13
4.41967e-13
2.99346e-13
2.15287e-13
1.61289e-13
1.19186e-13
8.87432e-14
6.27151e-14
4.43725e-14
3.29554e-14
2.84004e-11
4.10544e-11
4.0925e-11
3.24557e-11
2.37736e-11
1.66955e-11
1.14561e-11
7.69038e-12
5.01815e-12
3.18645e-12
1.9987e-12
1.23112e-12
7.42383e-13
4.44439e-13
2.63164e-13
1.66881e-13
1.12532e-13
7.90958e-14
5.73251e-14
4.1628e-14
3.00312e-14
2.07946e-14
1.5328e-14
1.88628e-11
2.63518e-11
2.50429e-11
1.96482e-11
1.43147e-11
1.00622e-11
6.91308e-12
4.65401e-12
3.07293e-12
2.01001e-12
1.29854e-12
8.06916e-13
4.88252e-13
2.86788e-13
1.62338e-13
9.42214e-14
5.67166e-14
3.7499e-14
2.48822e-14
1.76067e-14
1.25523e-14
8.55787e-15
6.26354e-15
1.22043e-11
1.64237e-11
1.48899e-11
1.13401e-11
8.13895e-12
5.67449e-12
3.869e-12
2.59081e-12
1.73066e-12
1.15398e-12
7.57332e-13
4.76347e-13
2.88902e-13
1.68951e-13
9.43707e-14
5.16034e-14
2.90032e-14
1.73736e-14
1.04965e-14
6.82011e-15
4.75159e-15
2.99327e-15
2.19529e-15
7.61721e-12
9.92055e-12
8.42087e-12
6.23968e-12
4.38037e-12
2.98907e-12
1.99875e-12
1.31258e-12
8.68121e-13
5.77952e-13
3.8075e-13
2.41621e-13
1.48731e-13
8.80924e-14
4.97721e-14
2.65559e-14
1.43342e-14
7.82291e-15
4.26928e-15
2.50284e-15
1.56547e-15
9.41741e-16
6.52918e-16
4.90922e-12
5.75792e-12
4.62163e-12
3.2857e-12
2.22312e-12
1.46149e-12
9.44742e-13
6.04393e-13
3.91663e-13
2.57487e-13
1.68836e-13
1.06499e-13
6.6225e-14
3.84828e-14
2.23197e-14
1.21674e-14
6.33931e-15
3.26622e-15
1.63178e-15
8.5405e-16
4.90803e-16
2.6786e-16
1.79687e-16
2.9065e-12
3.21452e-12
2.43427e-12
1.63966e-12
1.05193e-12
6.58492e-13
4.08245e-13
2.5212e-13
1.57735e-13
1.01396e-13
6.47793e-14
4.06498e-14
2.41956e-14
1.46562e-14
8.51255e-15
4.6391e-15
2.39816e-15
1.19038e-15
5.69365e-16
2.75933e-16
1.3833e-16
7.30299e-17
4.46261e-17
1.66538e-12
1.74201e-12
1.22745e-12
7.74736e-13
4.66144e-13
2.75392e-13
1.59155e-13
9.35788e-14
5.62764e-14
3.42892e-14
2.11427e-14
1.27605e-14
7.92825e-15
4.71753e-15
2.70667e-15
1.49073e-15
7.67253e-16
3.76357e-16
1.71147e-16
7.76387e-17
3.73935e-17
1.76529e-17
1.00001e-17
9.10146e-13
8.40055e-13
5.50698e-13
3.22793e-13
1.80116e-13
9.99199e-14
5.52278e-14
3.09431e-14
1.78539e-14
1.00612e-14
6.07102e-15
3.76446e-15
2.27886e-15
1.34484e-15
7.60989e-16
4.15088e-16
1.96866e-16
9.65773e-17
4.22e-17
1.82725e-17
7.75861e-18
3.65057e-18
1.91586e-18
4.58763e-13
3.92882e-13
2.32846e-13
1.28458e-13
6.76027e-14
3.37526e-14
1.71278e-14
8.86279e-15
4.73986e-15
2.77393e-15
1.64809e-15
9.90829e-16
5.7898e-16
3.33508e-16
1.80328e-16
9.32099e-17
4.54686e-17
2.09972e-17
8.93982e-18
3.68026e-18
1.54423e-18
6.59899e-19
3.13363e-19
1.89997e-13
1.35396e-13
7.59553e-14
3.84621e-14
1.88408e-14
9.09973e-15
4.49737e-15
2.28117e-15
1.21452e-15
6.83814e-16
3.95282e-16
2.27739e-16
1.28348e-16
7.06191e-17
3.77619e-17
1.91355e-17
9.11132e-18
3.94648e-18
1.63836e-18
6.13442e-19
2.36116e-19
9.8557e-20
4.34015e-20
7.706e-14
4.69204e-14
2.48624e-14
1.19822e-14
5.56781e-15
2.55943e-15
1.20273e-15
5.88043e-16
3.03221e-16
1.60325e-16
8.74156e-17
4.80382e-17
2.60072e-17
1.38694e-17
7.24321e-18
3.5678e-18
1.62006e-18
6.75891e-19
2.55638e-19
9.09298e-20
3.26028e-20
1.23907e-20
4.98412e-21
2.29333e-14
1.37753e-14
7.19925e-15
3.39303e-15
1.52388e-15
6.7027e-16
3.02894e-16
1.38409e-16
6.75174e-17
3.41986e-17
1.77464e-17
9.3362e-18
4.93946e-18
2.57471e-18
1.29049e-18
5.98456e-19
2.54018e-19
9.81815e-20
3.50132e-20
1.16498e-20
3.8652e-21
1.33356e-21
4.7992e-22
5.83769e-15
3.32634e-15
1.6879e-15
7.97159e-16
3.57534e-16
1.55946e-16
6.6542e-17
3.05903e-17
1.43723e-17
7.04689e-18
3.53403e-18
1.78384e-18
8.91398e-19
4.35916e-19
2.03157e-19
8.80554e-20
3.46141e-20
1.22631e-20
3.98789e-21
1.21929e-21
3.70648e-22
1.16721e-22
3.81417e-23
9.37947e-16
5.31384e-16
2.96043e-16
1.49679e-16
7.09587e-17
3.19396e-17
1.38706e-17
6.23902e-18
2.84503e-18
1.37446e-18
6.66449e-19
3.20217e-19
1.50257e-19
6.83472e-20
2.9489e-20
1.16725e-20
4.15011e-21
1.32641e-21
3.89692e-22
1.07519e-22
2.96705e-23
8.30679e-24
2.77527e-24
7.95936e-17
5.29382e-17
3.47865e-17
2.22915e-17
1.19538e-17
5.74907e-18
2.52246e-18
1.14981e-18
5.40513e-19
2.60709e-19
1.248e-19
5.72898e-20
2.46681e-20
1.01229e-20
3.91261e-21
1.3841e-21
4.33954e-22
1.21793e-22
3.15999e-23
7.71572e-24
1.84174e-24
4.81961e-25
4.07689e-26
1.59103e-18
2.23707e-18
2.8147e-18
2.5639e-18
1.68105e-18
9.10263e-19
4.38447e-19
2.07869e-19
1.01189e-19
4.96393e-20
2.35982e-20
1.00995e-20
3.89662e-21
1.4048e-21
4.73018e-22
1.43777e-22
3.78969e-23
9.0412e-24
2.01759e-24
4.24949e-25
9.95704e-26
6.34746e-27
1.94719e-28
8.3057e-27
2.0586e-20
1.45728e-19
2.61157e-19
2.18411e-19
1.35079e-19
6.7927e-20
3.61355e-20
1.85526e-20
9.37778e-21
4.44676e-21
1.83841e-21
6.2351e-22
2.0086e-22
5.58158e-23
1.33451e-23
2.77275e-24
5.33541e-25
1.00243e-25
1.81094e-26
2.84213e-27
6.00475e-29
3.55591e-29
0.0117773
0.0257223
0.0339543
0.0334995
0.000231408
2.26196e-06
-6.0465e-11
1.47923e-26
2.30391e-06
2.59576e-06
1.34854e-06
1.20807e-05
7.78557e-07
1.24503e-05
2.07928e-05
0.000270013
7.28593e-07
2.85578e-06
0.000126628
0.000266275
7.75027e-06
7.34891e-06
1.34656e-05
6.34334e-06
1.74541e-06
1.10794e-06
9.22482e-07
2.72333e-07
2.28066e-07
1.11777e-07
5.77322e-08
1.97998e-08
6.21846e-10
8.19337e-10
3.53697e-09
5.61217e-09
2.57398e-09
3.07294e-09
4.03867e-09
6.08218e-09
2.14236e-09
2.27605e-09
3.5047e-09
6.5547e-09
7.23075e-10
6.49905e-10
1.14353e-09
2.25125e-09
1.56163e-10
1.2187e-10
2.3678e-10
4.96736e-10
2.40907e-11
2.28751e-11
3.91109e-11
7.76243e-11
7.46555e-12
1.04425e-11
1.82714e-11
2.93029e-11
6.77352e-12
1.14302e-11
1.8585e-11
2.76016e-11
4.82615e-12
9.62376e-12
1.5487e-11
2.35208e-11
1.26238e-12
3.46958e-12
7.63103e-12
1.42233e-11
2.59239e-13
4.85216e-13
1.45575e-12
4.1529e-12
1.45428e-13
1.36106e-13
1.74978e-13
3.55991e-13
1.26809e-13
1.09423e-13
9.72093e-14
8.58328e-14
1.01442e-13
8.75117e-14
7.86797e-14
7.5155e-14
7.38192e-14
6.22433e-14
5.50434e-14
4.96761e-14
4.81278e-14
4.01266e-14
3.43271e-14
3.0359e-14
2.72511e-14
2.20309e-14
1.93581e-14
1.67157e-14
1.31108e-14
1.04728e-14
9.00945e-15
8.13333e-15
5.28375e-15
4.29002e-15
3.79046e-15
3.214e-15
1.87584e-15
1.44234e-15
1.2021e-15
1.10814e-15
5.69144e-16
4.47571e-16
3.84026e-16
3.20535e-16
1.49734e-16
1.17711e-16
9.66351e-17
8.27714e-17
3.53058e-17
2.78068e-17
2.3282e-17
1.89537e-17
7.45523e-18
5.68402e-18
4.55518e-18
3.63919e-18
1.40168e-18
1.05546e-18
8.0214e-19
6.00326e-19
2.16128e-19
1.52064e-19
1.15773e-19
8.3527e-20
2.90257e-20
1.98722e-20
1.41825e-20
9.40802e-21
3.20118e-21
2.0949e-21
1.41716e-21
8.55232e-22
2.88049e-22
1.77607e-22
1.2553e-22
6.1228e-23
2.31967e-23
1.06631e-23
4.68851e-24
1.25584e-24
5.38137e-25
1.91194e-25
7.23972e-26
1.49756e-26
2.84144e-27
1.76157e-27
1.21772e-27
3.41098e-27
1.78059e-28
3.75849e-28
1.30845e-27
4.18757e-27
8.89852e-29
2.99829e-28
1.03026e-27
3.1419e-27
0.00825796
0.00389678
0.0109569
0.00901174
0.005229
0.0239574
0.0360015
0.00624138
2.73745e-05
2.88578e-05
7.97272e-05
0.000120268
8.52901e-06
1.23894e-05
5.85028e-06
5.78256e-06
0.00105181
0.00190247
6.12364e-06
5.37131e-07
0.00049088
0.00902035
0.00342917
0.00497696
0.0224982
0.0165511
5.14316e-05
2.71461e-05
2.68257e-05
3.17377e-05
6.58162e-05
6.19256e-05
4.35194e-05
8.17624e-06
0.000203921
0.00271355
0.00254885
6.95303e-07
0.000189996
0.00119569
0.000840847
0.000668388
0.00508662
0.008541
0.00213445
0.000101426
0.000106051
2.34872e-05
3.13309e-07
5.85833e-06
1.75934e-05
6.16938e-06
5.66809e-06
0.000582607
0.00490882
0.00502957
0.004661
0.000490173
0.000235666
4.44051e-06
0.000339598
0.000618976
6.20187e-07
3.1628e-06
0.000127852
0.00012566
1.74603e-05
2.88693e-07
2.63929e-07
1.06677e-07
4.96171e-06
2.87378e-05
0.000133622
0.00206489
0.00396039
0.00223558
0.000246764
2.45863e-05
3.2487e-06
2.67999e-07
2.67509e-07
5.00495e-07
7.2518e-06
3.71708e-05
3.5388e-05
5.95297e-06
1.03093e-06
3.14943e-07
1.09217e-07
5.86096e-07
1.42525e-05
2.44521e-05
1.47073e-05
3.84352e-05
5.75808e-06
6.61061e-09
6.59698e-09
2.73377e-07
2.78266e-07
8.31414e-07
8.34283e-07
4.9394e-07
2.8512e-09
4.96246e-09
6.96394e-08
3.56777e-07
1.65807e-07
1.11342e-07
1.42479e-07
4.94696e-08
4.88845e-08
5.09544e-08
1.33663e-06
5.60702e-06
7.97502e-09
2.37031e-08
2.02298e-07
2.87199e-07
5.3394e-07
4.36375e-07
9.29855e-08
4.79769e-09
1.17194e-08
5.4707e-09
5.74241e-09
6.4275e-08
1.89439e-06
2.60345e-06
2.3257e-06
3.54912e-06
0.000109019
0.000210921
1.74468e-05
9.44693e-09
7.55142e-08
1.61942e-07
2.27316e-07
1.8057e-07
1.6097e-07
4.59857e-08
3.1346e-08
2.44206e-08
3.04322e-08
5.46742e-09
5.7229e-09
2.50161e-07
2.73026e-07
0.0002971
0.0013703
0.00228542
0.00243924
0.00122078
1.62816e-08
3.78546e-08
4.29638e-08
3.44797e-08
3.80234e-08
1.6882e-07
2.81534e-07
2.04626e-07
7.00515e-07
2.37561e-06
3.1026e-06
5.93141e-06
6.39856e-06
4.85269e-05
0.00151363
0.00272956
0.00272936
0.00272954
0.0023076
9.72335e-09
1.19195e-08
1.62548e-08
1.60121e-08
6.8216e-08
2.33057e-07
6.86902e-07
1.68659e-06
2.71751e-06
6.62905e-06
2.85777e-05
5.43007e-05
6.91859e-05
0.0001876
0.000712726
0.0010207
0.00116283
0.00111545
0.000891038
9.01849e-09
1.05791e-08
8.99428e-09
4.72106e-09
1.67436e-08
3.02539e-08
2.30117e-10
1.46041e-06
5.41032e-06
9.43873e-06
2.18676e-05
2.97226e-05
4.64249e-05
6.04225e-05
4.08263e-10
3.4787e-10
5.52643e-10
4.71477e-10
8.34364e-10
2.99352e-09
3.7732e-09
2.1018e-09
2.36826e-10
2.33048e-10
2.30576e-10
2.32936e-10
1.88225e-07
2.00232e-06
3.68899e-06
3.75979e-06
2.4212e-06
1.00439e-06
1.76978e-09
2.90659e-09
1.2468e-08
3.22852e-09
5.80021e-10
5.49162e-10
6.79819e-10
7.87763e-10
2.94215e-10
2.56768e-10
7.20251e-10
1.74409e-09
3.34865e-09
3.27165e-09
9.18219e-08
3.5341e-07
1.13845e-09
1.0478e-09
1.12156e-09
1.88347e-09
1.67388e-09
3.4577e-09
4.75448e-09
2.88959e-09
3.91879e-08
1.12205e-10
1.52242e-10
2.17129e-10
4.78082e-10
1.05735e-09
2.36519e-09
6.29952e-09
8.90966e-09
7.32609e-09
1.77767e-08
1.31073e-08
2.25099e-09
1.50279e-09
1.75356e-09
3.23212e-09
7.56907e-09
8.60883e-09
4.87889e-09
3.11153e-09
4.49591e-11
1.05391e-10
2.31961e-10
4.55139e-10
7.95298e-10
1.27093e-09
2.35153e-09
4.24539e-09
3.56169e-09
3.86729e-09
4.81522e-09
2.35186e-09
1.53752e-09
2.16533e-09
4.07565e-09
7.0063e-09
7.20253e-09
2.86107e-09
7.43007e-10
4.02551e-11
8.57391e-11
1.61629e-10
2.75446e-10
4.36361e-10
8.00242e-10
1.3797e-09
3.13435e-09
3.50594e-09
3.11569e-09
2.31403e-09
1.39414e-09
1.2194e-09
1.58548e-09
2.6884e-09
3.96976e-09
3.28102e-09
1.23979e-09
7.36306e-10
3.42994e-11
6.80636e-11
1.22856e-10
2.0563e-10
3.17024e-10
4.65083e-10
6.67682e-10
1.57534e-09
2.3407e-09
2.40041e-09
1.752e-09
1.02561e-09
8.38109e-10
8.39841e-10
1.19037e-09
1.36009e-09
1.07014e-09
4.16634e-10
3.45114e-10
2.39386e-11
4.55297e-11
7.98807e-11
1.33249e-10
2.19338e-10
3.40948e-10
4.70745e-10
6.2314e-10
9.49005e-10
1.09131e-09
1.01086e-09
6.33808e-10
4.55842e-10
3.80256e-10
3.54831e-10
3.62293e-10
2.42737e-10
8.50845e-11
5.50958e-11
1.1358e-11
2.23553e-11
3.6893e-11
6.08308e-11
1.14046e-10
1.99961e-10
2.62895e-10
3.18762e-10
3.74177e-10
4.17545e-10
4.14069e-10
2.98154e-10
1.98517e-10
1.43143e-10
9.03546e-11
6.02858e-11
3.07386e-11
7.68505e-12
1.4679e-12
2.97324e-12
9.60138e-12
1.89334e-11
3.23584e-11
5.16257e-11
7.63517e-11
1.03899e-10
1.31238e-10
1.55187e-10
1.67981e-10
1.58415e-10
1.2606e-10
8.06833e-11
4.64989e-11
1.62526e-11
7.0015e-12
2.08274e-12
1.73737e-13
1.65646e-14
4.15406e-13
1.79026e-12
5.5082e-12
1.05568e-11
1.75067e-11
2.60525e-11
3.56228e-11
4.5763e-11
5.64334e-11
6.44466e-11
6.48796e-11
4.96654e-11
2.84338e-11
1.13213e-11
2.73881e-12
5.77351e-13
2.76379e-14
3.67809e-15
3.78003e-16
9.37261e-14
2.54312e-13
8.02327e-13
2.18114e-12
4.37559e-12
6.79975e-12
9.54284e-12
1.25221e-11
1.59116e-11
1.94349e-11
2.08811e-11
1.65354e-11
8.82004e-12
2.91724e-12
5.39925e-13
6.42777e-14
3.47938e-15
4.66645e-16
4.01598e-17
4.73835e-14
6.22449e-14
1.30695e-13
3.11252e-13
7.18315e-13
1.39148e-12
2.05762e-12
2.73937e-12
3.64081e-12
4.70445e-12
5.317e-12
4.55905e-12
2.31192e-12
6.97153e-13
1.04058e-13
1.04369e-14
5.34693e-16
7.56828e-17
2.14794e-17
2.65507e-14
2.47083e-14
3.06439e-14
4.72004e-14
8.30396e-14
1.62171e-13
3.00256e-13
4.34874e-13
6.19493e-13
8.6011e-13
1.02797e-12
9.84445e-13
5.20026e-13
1.48972e-13
1.87302e-14
1.11329e-15
8.96667e-17
3.47702e-17
1.4794e-17
1.33992e-14
1.13176e-14
1.02648e-14
1.00777e-14
1.19755e-14
1.82738e-14
3.38516e-14
5.21943e-14
8.12894e-14
1.22646e-13
1.59074e-13
1.64815e-13
9.74701e-14
2.91891e-14
3.62086e-15
1.39163e-16
2.7936e-17
2.30425e-17
1.03386e-17
6.13343e-15
4.71233e-15
3.74824e-15
3.10661e-15
2.69235e-15
2.62295e-15
3.1878e-15
4.48692e-15
7.531e-15
1.28842e-14
1.83219e-14
2.04083e-14
1.40556e-14
4.66188e-15
5.49745e-16
2.66594e-17
1.31158e-17
1.4778e-17
7.32385e-18
2.36026e-15
1.77853e-15
1.33114e-15
9.96371e-16
7.39952e-16
5.61631e-16
4.23885e-16
3.87308e-16
6.18193e-16
1.14258e-15
1.79336e-15
2.15351e-15
1.72991e-15
6.74385e-16
7.19861e-17
6.31125e-18
7.12698e-18
1.0536e-17
4.89144e-18
7.99505e-16
5.63216e-16
4.07723e-16
2.88919e-16
2.08256e-16
1.52596e-16
8.33527e-17
4.4956e-17
5.31726e-17
9.19278e-17
1.52157e-16
1.9514e-16
1.64124e-16
5.57513e-17
7.15721e-18
2.86275e-18
3.81353e-18
7.25861e-18
3.3256e-18
2.22856e-16
1.53987e-16
1.03485e-16
6.87324e-17
4.95662e-17
2.93033e-17
1.37741e-17
7.85587e-18
6.44994e-18
7.89806e-18
1.21147e-17
1.43113e-17
4.08844e-18
7.43203e-19
7.6646e-19
1.25408e-18
2.18655e-18
4.98214e-18
2.11186e-18
5.60547e-17
3.67445e-17
2.28255e-17
1.48037e-17
9.8313e-18
3.90568e-18
1.23516e-18
8.34238e-19
8.15833e-19
8.29214e-19
9.07339e-19
2.841e-19
1.09683e-19
1.53541e-19
3.15767e-19
7.01963e-19
1.59252e-18
3.3721e-18
1.32589e-18
1.19919e-17
7.25277e-18
4.23249e-18
2.79864e-18
1.1853e-18
2.64763e-19
5.51527e-20
5.75783e-20
7.35111e-20
8.2362e-20
3.8419e-20
3.48905e-20
6.1198e-20
1.22987e-19
2.48877e-19
5.46248e-19
1.27179e-18
2.18949e-18
7.86149e-19
2.16485e-18
1.24539e-18
7.93872e-19
3.35217e-19
8.15837e-20
8.07225e-21
2.10148e-21
3.68951e-21
7.22259e-21
7.48765e-21
1.33032e-20
2.81679e-20
5.94532e-20
1.18815e-19
2.24463e-19
4.75152e-19
1.00244e-18
1.47773e-18
4.5215e-19
3.24546e-19
1.82806e-19
9.78642e-20
2.36618e-20
2.08541e-21
2.58365e-22
3.85395e-22
9.60154e-22
2.20992e-21
5.36582e-21
1.29129e-20
2.87755e-20
5.98996e-20
1.16635e-19
2.07937e-19
4.1459e-19
8.02323e-19
8.93948e-19
2.61677e-19
4.16776e-20
2.34059e-20
6.80682e-21
7.08167e-22
7.46296e-23
1.14221e-22
2.95427e-22
8.10248e-22
2.13779e-21
5.40368e-21
1.30869e-20
2.93861e-20
6.02105e-20
1.1033e-19
1.94509e-19
3.74088e-19
5.99477e-19
5.79786e-19
1.33447e-19
4.91119e-21
1.36631e-21
1.76644e-22
2.08314e-23
3.32366e-23
9.38516e-23
2.81333e-22
7.96072e-22
2.11755e-21
5.33887e-21
1.2827e-20
2.83345e-20
5.68281e-20
1.0343e-19
1.83367e-19
3.10246e-19
4.48952e-19
3.17386e-19
7.32883e-20
3.64702e-22
5.19613e-23
5.02702e-24
8.60087e-24
2.74341e-23
8.98549e-23
2.70015e-22
7.6584e-22
2.05173e-21
5.15682e-21
1.23765e-20
2.72766e-20
5.40536e-20
9.71218e-20
1.61985e-19
2.40531e-19
3.00182e-19
2.01532e-19
3.41829e-20
8.84043e-24
7.36383e-25
1.84276e-24
7.21263e-24
2.52894e-23
8.26953e-23
2.48892e-22
7.02999e-22
1.86287e-21
4.69438e-21
1.1188e-20
2.43299e-20
4.75362e-20
8.41545e-20
1.32934e-19
1.79764e-19
1.88194e-19
9.21872e-20
1.84304e-20
1.34817e-25
3.59693e-25
1.61432e-24
6.36299e-24
2.22229e-23
7.05763e-23
2.12008e-22
5.9174e-22
1.56599e-21
3.91336e-21
9.27497e-21
2.00075e-20
3.86221e-20
6.64436e-20
9.93986e-20
1.2192e-19
9.8497e-20
4.89042e-20
8.40956e-21
5.42294e-26
3.10746e-25
1.35327e-24
5.08302e-24
1.72249e-23
5.39632e-23
1.5955e-22
4.43293e-22
1.17321e-21
2.94203e-21
6.9517e-21
1.47661e-20
2.8006e-20
4.76429e-20
6.36454e-20
7.32915e-20
4.96761e-20
1.7802e-20
4.4418e-21
4.9144e-26
2.42807e-25
9.57366e-25
3.30941e-24
1.07022e-23
3.28649e-23
9.73895e-23
2.78786e-22
7.45245e-22
1.89679e-21
4.4536e-21
9.64997e-21
1.8668e-20
2.97787e-20
3.63986e-20
3.70352e-20
1.90751e-20
7.73062e-21
2.21806e-21
3.33448e-26
1.39747e-25
4.95725e-25
1.60146e-24
5.14239e-24
1.61658e-23
4.89624e-23
1.42581e-22
3.95455e-22
1.04505e-21
2.53815e-21
5.50115e-21
1.02766e-20
1.64015e-20
1.8606e-20
1.55495e-20
6.20193e-21
2.68091e-21
6.78219e-22
1.2329e-26
4.27665e-26
1.3317e-25
4.077e-25
1.50113e-24
5.17426e-24
1.73014e-23
5.46859e-23
1.6111e-22
4.467e-22
1.12852e-21
2.52214e-21
4.65729e-21
6.93929e-21
6.85298e-21
4.27848e-21
1.56649e-21
4.35047e-22
2.98851e-23
)
;

boundaryField
{
    leftWall
    {
        type            alphaContactAngle;
        contactAngleProperties 
        {
            air             
            {
                theta0          90;
            }
            water           
            {
                theta0          90;
            }
            oil             
            {
                theta0          90;
            }
        }
        value           nonuniform List<scalar> 
50
(
1
1
1
1
1
1
0.969426
0.284876
3.5198e-07
2.1058e-08
8.04536e-09
1.30516e-09
4.74856e-10
4.62769e-10
4.64076e-10
4.61647e-10
4.08046e-10
3.00735e-10
2.61004e-10
2.54857e-10
2.58904e-10
2.65774e-10
2.63689e-10
2.52457e-10
2.3291e-10
2.0783e-10
1.78593e-10
1.50088e-10
1.22256e-10
9.93423e-11
7.61085e-11
5.69587e-11
4.08192e-11
2.84004e-11
1.88628e-11
1.22043e-11
7.61721e-12
4.90922e-12
2.9065e-12
1.66538e-12
9.10146e-13
4.58763e-13
1.89997e-13
7.706e-14
2.29333e-14
5.83769e-15
9.37947e-16
7.95936e-17
1.59103e-18
8.3057e-27
)
;
    }
    rightWall
    {
        type            alphaContactAngle;
        contactAngleProperties 
        {
            air             
            {
                theta0          90;
            }
            water           
            {
                theta0          90;
            }
            oil             
            {
                theta0          90;
            }
        }
        value           nonuniform List<scalar> 
50
(
0.752828
0.752882
0.503159
0.230185
0.000120661
3.27963e-06
3.43529e-06
2.38659e-05
6.12364e-06
6.95303e-07
0.004661
0.00223558
5.75808e-06
5.60702e-06
1.74468e-05
0.00122078
0.0023076
0.000891038
8.34364e-10
5.49162e-10
3.91879e-08
3.11153e-09
7.43007e-10
7.36306e-10
3.45114e-10
5.50958e-11
1.4679e-12
1.65646e-14
3.78003e-16
4.01598e-17
2.14794e-17
1.4794e-17
1.03386e-17
7.32385e-18
4.89144e-18
3.3256e-18
2.11186e-18
1.32589e-18
7.86149e-19
4.5215e-19
2.61677e-19
1.33447e-19
7.32883e-20
3.41829e-20
1.84304e-20
8.40956e-21
4.4418e-21
2.21806e-21
6.78219e-22
2.98851e-23
)
;
    }
    lowerWall
    {
        type            alphaContactAngle;
        contactAngleProperties 
        {
            air             
            {
                theta0          90;
            }
            water           
            {
                theta0          90;
            }
            oil             
            {
                theta0          90;
            }
        }
        value           nonuniform List<scalar> 
62
(
1
1
1
1
1
1
1
1
1
1
1
1
1
1
1
1
1
1
0.999978
0.999631
0.999459
0.999459
0.99951
0.99951
1
1
1
0.999985
0.818395
0.0751968
-3.5403e-08
0.0117773
0.0257223
0.0339543
0.0334995
0.87805
0.844924
0.545458
0.191919
0.0458966
0.0502396
0.0322498
0.00866767
0.87805
0.87805
0.878055
0.878044
0.838959
0.657202
0.656879
0.664415
0.691688
0.701301
0.651964
0.651377
0.70524
0.752863
0.752932
0.752883
0.752829
0.752771
0.752828
)
;
    }
    atmosphere
    {
        type            inletOutlet;
        inletValue      uniform 0;
        value           nonuniform List<scalar> 
46
(
0
0
1.45728e-19
2.61157e-19
2.18411e-19
1.35079e-19
6.7927e-20
3.61355e-20
1.85526e-20
9.37778e-21
4.44676e-21
1.83841e-21
6.2351e-22
2.0086e-22
0
0
0
0
0
0
0
0
0
0
0
0
0
0
0
0
0
0
5.17426e-24
0
5.46858e-23
0
0
1.12852e-21
0
0
0
0
0
0
0
0
)
;
    }
    defaultFaces
    {
        type            empty;
    }
}


// ************************************************************************* //
