/*--------------------------------*- C++ -*----------------------------------*\
  =========                 |
  \\      /  F ield         | OpenFOAM: The Open Source CFD Toolbox
   \\    /   O peration     | Website:  https://openfoam.org
    \\  /    A nd           | Version:  13
     \\/     M anipulation  |
\*---------------------------------------------------------------------------*/
FoamFile
{
    format      ascii;
    class       volScalarField;
    location    "3";
    object      alpha.water;
}
// * * * * * * * * * * * * * * * * * * * * * * * * * * * * * * * * * * * * * //

dimensions      [];

internalField   nonuniform List<scalar> 
2268
(
1.10515e-10
1.39065e-10
1.55084e-10
1.62911e-10
1.71673e-10
1.79724e-10
1.8704e-10
1.93616e-10
2.00798e-10
2.11526e-10
2.30681e-10
2.6282e-10
3.05406e-10
3.54951e-10
4.26179e-10
5.20349e-10
6.48131e-10
1.00727e-09
1.82517e-09
2.56921e-09
2.76826e-09
2.76865e-09
2.75609e-09
2.03491e-10
2.44055e-10
2.55662e-10
2.5646e-10
2.86255e-10
3.26517e-10
3.76088e-10
4.27972e-10
4.76291e-10
5.18058e-10
5.6121e-10
5.96113e-10
6.28696e-10
6.55821e-10
6.8544e-10
7.42715e-10
8.44773e-10
1.04626e-09
1.48846e-09
2.11073e-09
2.42484e-09
2.38083e-09
1.76266e-09
3.80888e-10
9.61895e-10
1.18296e-09
9.84196e-10
7.15235e-10
5.11771e-10
4.71062e-10
5.76708e-10
6.95024e-10
8.21477e-10
8.97025e-10
9.46576e-10
9.55862e-10
9.24621e-10
8.62813e-10
8.61379e-10
9.21087e-10
1.08019e-09
1.3805e-09
1.53807e-09
1.57559e-09
1.4998e-09
8.4652e-10
1.97337e-10
4.56125e-10
6.78662e-10
7.65424e-10
1.17492e-09
1.60781e-09
1.14319e-09
3.76788e-10
5.12336e-10
6.02563e-10
7.35056e-10
8.21998e-10
8.10326e-10
6.01691e-10
5.46551e-10
5.237e-10
5.34304e-10
4.97821e-10
4.69809e-10
4.84369e-10
8.1355e-10
3.13767e-10
2.65405e-10
1.19137e-10
1.15503e-10
1.04167e-10
8.68695e-11
7.78418e-11
7.30968e-11
8.52074e-11
9.08292e-11
1.12227e-10
3.75197e-11
-1.72428e-12
2.41138e-11
-2.52972e-12
2.12774e-11
-7.15088e-20
8.38613e-12
-5.9963e-12
2.90217e-12
-5.41876e-12
3.54795e-12
-9.09276e-12
9.36935e-12
-2.00075e-19
1.13603e-10
1.02779e-10
5.88024e-09
3.60869e-09
2.39813e-08
1.65651e-08
1.09287e-08
9.11097e-09
1.21012e-08
0.00432436
0.0185346
0.0330891
0.0490479
0.0666724
0.0847566
0.10229
0.118428
0.132306
0.143035
0.150139
0.15502
0.164041
0.180662
0.0305738
0.0666208
0.106248
0.14986
0.204606
0.269913
0.343151
0.421323
0.501316
0.575682
0.639489
0.696199
0.745165
0.785434
0.818018
0.843941
0.864108
0.879019
0.889016
0.894848
0.898456
0.905089
0.921613
0.715124
0.790851
0.843233
0.884063
0.920855
0.951458
0.974147
0.988984
0.997302
1
1
1
1
1
1
1
1
0.999999
0.999997
0.999977
0.99986
0.999208
0.997332
0.00718471
0.0340642
0.0426761
0.0419093
0.0163688
0.00111396
0.00108264
0.000874155
0.000871296
0.000871296
0.0127679
0.0599158
0.124393
0.124399
0.124367
0.123995
0.0440849
0.0027737
0.0110484
0.00718388
0.00718471
0.00769769
0.0640636
0.0683496
0.0312138
0.0142827
0.0556339
0.043666
0.0063474
0.0015441
0.0272627
0.0409671
0.0461298
0.0615293
0.0238849
0.00224742
0.00273375
0.0110258
0.00932279
0.0107677
0.0100681
0.0298028
0.219009
0.379513
0.391609
0.44734
0.403858
0.0989839
0.00137169
0.00129814
0.000588037
0.000584835
0.000584841
0.000583254
0.000583829
0.000581736
0.000658799
0.354026
0.362734
0.328551
0.369537
0.405962
0.57636
0.731783
0.803777
0.802709
0.643698
0.220264
0.0205266
0.000586467
0.000586488
0.0189137
0.0767133
0.205174
0.260976
0.0715856
0.725492
0.896496
0.877712
0.867581
0.718838
0.385537
0.305594
0.279462
0.389
0.840258
0.861962
0.495647
0.0634218
0.0525283
0.56038
0.812374
0.868998
0.975712
0.527245
0.932739
0.929121
0.926599
0.921271
0.582378
0.203744
0.16284
0.154055
0.221674
0.782853
0.999029
0.945154
0.304271
0.414308
0.986408
0.999829
0.999831
0.999823
0.672026
0.93799
0.923607
0.920339
0.939749
0.574869
0.134557
0.128626
0.30773
0.817001
0.972963
0.999487
0.999487
0.542739
0.570416
0.999622
0.999821
0.99983
0.999734
0.871387
0.957554
0.91895
0.916586
0.948935
0.811406
0.177183
0.155338
0.694176
0.991468
0.999485
0.999487
0.999487
0.529216
0.551769
0.973964
0.999821
0.999776
0.990766
0.84913
1
1
0.999996
0.999991
0.999979
0.999999
1
1
1
1
1
1
1
1
1
1
0.999999
0.999999
0.999999
0.999999
0.999998
0.999998
0.997187
1
1
0.999788
0.999667
0.999967
1
1
1
1
1
1
1
1
1
1
0.999934
0.998044
0.996827
0.993406
0.98479
0.9704
0.960662
0.9569
1
1
0.998131
0.999443
0.999906
0.999991
1
1
0.999607
0.998577
0.996839
0.993935
0.986866
0.971109
0.944072
0.907428
0.861967
0.800711
0.693292
0.546653
0.441069
0.368789
0.391516
0.910688
0.940281
0.922678
0.875083
0.842466
0.845297
0.892493
0.880762
0.842204
0.811886
0.764982
0.700903
0.59381
0.450842
0.337225
0.277667
0.215232
0.116606
0.0214561
3.2756e-13
2.4375e-16
-6.65661e-20
2.69643e-05
0.540442
0.345982
0.178604
0.125757
0.098974
0.097522
0.137255
0.165285
0.142661
0.095922
0.0515169
0.00816898
4.49346e-13
2.85205e-18
3.25071e-18
1.58812e-18
1.68691e-18
1.17334e-18
1.48534e-18
1.88512e-09
9.38821e-09
1.05176e-07
8.60252e-07
0.00750495
2.57447e-05
4.56655e-05
6.84252e-05
0.000475617
1.68691e-05
4.97468e-19
1.37565e-22
7.95023e-24
-1.10348e-18
-6.52955e-19
4.66724e-24
1.04622e-09
7.13918e-09
9.60247e-09
7.98664e-09
1.00683e-08
1.90732e-08
7.81879e-08
1.28416e-07
4.03889e-07
1.92769e-06
8.27886e-06
7.77212e-05
0.000372395
0.00017167
5.41719e-05
1.0235e-05
3.94962e-08
1.22508e-08
9.45413e-09
5.23205e-09
3.2107e-09
2.11007e-09
2.07944e-09
1.64083e-08
5.22839e-08
5.87426e-08
3.73419e-08
3.60092e-08
4.02922e-08
1.96604e-07
3.01517e-07
3.75701e-07
9.2866e-07
2.77702e-06
7.50375e-05
0.000486321
0.00034858
2.08065e-05
9.11515e-08
1.50611e-07
2.5446e-07
2.11684e-07
6.89387e-08
1.35011e-09
1.35016e-09
1.35005e-09
4.88768e-08
1.90557e-07
1.94075e-07
1.35682e-07
1.39588e-07
2.00179e-07
2.03104e-07
1.20406e-07
3.39426e-08
1.36258e-07
2.28763e-06
1.13875e-05
0.000209471
0.000142403
1.04182e-05
9.60948e-08
1.18096e-07
2.53387e-07
2.56037e-07
1.96047e-07
1.41568e-08
1.35019e-09
1.35046e-09
2.3219e-08
1.83885e-07
1.9435e-07
1.66741e-07
4.12852e-08
3.72834e-08
4.65019e-08
3.58765e-10
3.08835e-10
2.1489e-07
8.49296e-07
2.86176e-07
2.59425e-07
2.86126e-07
1.46695e-06
7.23762e-07
2.30714e-07
9.54288e-08
7.1784e-08
6.75591e-08
5.50372e-08
3.41691e-08
1.80557e-08
1.13172e-08
1.44249e-08
3.32572e-08
2.32671e-08
3.54561e-09
1.40324e-09
5.66421e-10
6.15755e-10
6.26945e-09
5.14519e-08
8.97297e-10
3.13851e-07
8.56138e-07
9.18658e-07
4.54441e-07
1.09539e-10
1.47314e-08
5.49473e-08
1.5083e-07
2.56295e-07
1.8894e-07
8.88067e-08
5.08297e-08
4.42622e-08
3.67329e-08
3.08078e-08
1.43834e-08
4.77981e-09
2.44042e-09
1.46015e-09
1.30535e-09
2.0757e-09
4.69136e-09
1.63887e-09
5.97327e-07
2.64896e-06
3.18552e-06
2.55192e-07
2.5812e-11
2.42762e-11
5.64413e-07
2.3553e-06
2.71242e-06
1.23339e-06
4.9519e-07
3.08195e-07
2.70321e-07
2.19038e-07
1.04046e-07
1.34314e-08
5.05946e-09
4.40692e-09
3.51156e-09
2.43535e-09
1.3355e-09
1.1551e-09
1.08968e-09
1.01538e-06
4.14163e-06
4.15839e-06
4.69421e-07
2.42763e-11
9.41075e-08
1.17913e-06
3.04098e-06
3.19969e-06
3.03065e-06
1.00494e-06
7.67496e-07
4.84868e-07
3.46326e-07
1.23804e-07
3.94119e-08
5.80796e-09
5.67542e-09
3.7838e-09
2.42111e-09
1.26181e-09
5.47788e-10
4.92635e-10
5.9261e-07
3.9412e-06
4.0578e-06
1.4878e-06
2.3928e-11
7.30356e-09
6.17896e-07
1.79562e-06
3.30283e-06
3.36556e-06
3.36776e-06
2.15119e-06
9.45913e-07
3.6567e-07
9.64337e-08
3.42099e-08
1.128e-08
8.01831e-09
5.87274e-09
4.36963e-09
2.87224e-09
1.57774e-09
4.98827e-10
2.05513e-07
1.99288e-06
3.61651e-06
9.99655e-07
2.9547e-11
3.88482e-11
3.36875e-10
4.49874e-08
1.9238e-06
3.30575e-06
3.36739e-06
3.31459e-06
2.57592e-06
4.38065e-07
1.22589e-08
1.34712e-08
1.17148e-08
1.4251e-08
1.82155e-08
1.53393e-08
1.01784e-08
7.11789e-09
2.01959e-09
6.54992e-08
3.29377e-07
9.33501e-07
2.1995e-07
2.51495e-11
2.09559e-10
7.03259e-10
8.74011e-09
8.55547e-08
1.06405e-06
2.82551e-06
3.2329e-06
2.12106e-06
7.54701e-08
1.1841e-08
1.17561e-08
1.18479e-08
1.45123e-08
1.96395e-08
1.96294e-08
1.86144e-08
1.24761e-08
8.0511e-09
1.46297e-08
4.53063e-09
4.58142e-09
4.4374e-09
1.12837e-08
1.01151e-09
1.07921e-09
3.56889e-09
1.33331e-08
6.81231e-08
3.89133e-07
7.74286e-07
5.2683e-07
6.47078e-08
4.50321e-08
5.40813e-08
3.47518e-08
7.76091e-09
1.26974e-08
1.80915e-08
1.72324e-08
1.1786e-08
9.28623e-09
1.3303e-08
7.87815e-09
7.41311e-09
4.32937e-09
3.35613e-09
1.25789e-09
1.18733e-09
3.55982e-09
1.02189e-08
2.3368e-08
3.71212e-08
3.7702e-08
1.56646e-08
3.12256e-08
4.77192e-08
5.52073e-08
3.00194e-08
7.72353e-09
8.69478e-09
1.23324e-08
1.1642e-08
9.0448e-09
7.31455e-09
1.92488e-08
1.66431e-08
1.39964e-08
4.95678e-09
2.61601e-09
1.31587e-09
8.46949e-10
1.43183e-09
2.41123e-09
3.61374e-09
4.5064e-09
3.26549e-09
2.36139e-09
1.59988e-08
2.79607e-08
3.1893e-08
2.25305e-08
9.32021e-09
6.84665e-09
7.86798e-09
7.68029e-09
6.51988e-09
5.337e-09
1.96592e-08
1.55217e-08
1.48769e-08
5.4491e-09
2.74627e-09
1.71544e-09
1.21387e-09
1.40694e-09
1.72744e-09
2.06446e-09
2.34358e-09
1.85987e-09
1.32937e-09
4.59289e-09
1.14932e-08
1.37464e-08
1.20558e-08
7.89291e-09
5.44048e-09
4.83799e-09
4.34429e-09
3.87857e-09
3.49423e-09
1.94726e-08
1.26633e-08
1.31266e-08
5.14236e-09
2.93521e-09
2.0079e-09
1.54843e-09
1.38621e-09
1.36818e-09
1.48539e-09
1.61009e-09
1.49503e-09
1.24986e-09
1.84759e-09
4.25255e-09
5.80788e-09
5.65253e-09
4.63822e-09
3.48508e-09
2.71329e-09
2.29707e-09
2.06493e-09
1.93729e-09
1.90409e-08
1.03488e-08
9.26603e-09
4.60612e-09
2.86147e-09
2.03187e-09
1.58864e-09
1.31995e-09
1.14737e-09
1.04728e-09
1.00525e-09
9.16967e-10
8.22397e-10
9.11877e-10
1.69823e-09
2.41755e-09
2.53051e-09
2.2073e-09
1.71549e-09
1.30247e-09
1.01221e-09
8.93778e-10
8.85209e-10
1.84728e-08
8.32014e-09
6.63888e-09
3.85341e-09
2.65191e-09
1.97926e-09
1.55873e-09
1.26399e-09
1.02707e-09
8.17487e-10
6.48509e-10
5.5381e-10
4.76417e-10
4.70856e-10
6.6723e-10
9.2064e-10
1.00799e-09
9.06211e-10
7.11745e-10
5.3315e-10
4.02142e-10
3.41314e-10
3.396e-10
1.82249e-08
7.12833e-09
4.81244e-09
3.17399e-09
2.38974e-09
1.86432e-09
1.48525e-09
1.17862e-09
9.19365e-10
6.88171e-10
5.09113e-10
3.79578e-10
2.91232e-10
2.56637e-10
2.66712e-10
3.22145e-10
3.52637e-10
3.21718e-10
2.54508e-10
1.91726e-10
1.40295e-10
1.1144e-10
1.10349e-10
1.81533e-08
6.43475e-09
3.51452e-09
2.64405e-09
2.13861e-09
1.70773e-09
1.35158e-09
1.05251e-09
8.01271e-10
5.9119e-10
4.25885e-10
2.99149e-10
2.09884e-10
1.55884e-10
1.28839e-10
1.17899e-10
1.14224e-10
1.01142e-10
7.97091e-11
6.03973e-11
4.33024e-11
3.43099e-11
3.35313e-11
1.81391e-08
6.36706e-09
2.8615e-09
2.32538e-09
1.9315e-09
1.53316e-09
1.1804e-09
8.90524e-10
6.60675e-10
4.80877e-10
3.44928e-10
2.41747e-10
1.64953e-10
1.11288e-10
7.52739e-11
5.45156e-11
4.17195e-11
3.19802e-11
2.4327e-11
1.81132e-11
1.3574e-11
1.05631e-11
9.8033e-12
1.80517e-08
7.2241e-09
2.74443e-09
2.20806e-09
1.76884e-09
1.3493e-09
9.96626e-10
7.21659e-10
5.15883e-10
3.66853e-10
2.60691e-10
1.8185e-10
1.24834e-10
8.3129e-11
5.29488e-11
3.34557e-11
2.09737e-11
1.37889e-11
8.87172e-12
6.27022e-12
4.71598e-12
3.57866e-12
3.19154e-12
1.73953e-08
7.73133e-09
3.20417e-09
2.22909e-09
1.62336e-09
1.16081e-09
8.091e-10
5.5335e-10
3.78995e-10
2.60591e-10
1.79632e-10
1.22685e-10
8.31213e-11
5.52929e-11
3.52984e-11
2.15644e-11
1.28322e-11
7.6507e-12
4.34698e-12
2.66438e-12
1.85496e-12
1.28684e-12
1.09187e-12
1.59595e-08
7.45612e-09
3.7824e-09
2.2372e-09
1.47874e-09
9.7918e-10
6.37147e-10
4.07455e-10
2.6137e-10
1.69368e-10
1.11011e-10
7.29214e-11
4.83104e-11
3.18429e-11
2.04869e-11
1.24941e-11
7.44428e-12
4.26291e-12
2.28254e-12
1.25128e-12
7.51363e-13
4.69547e-13
3.65035e-13
1.47797e-08
6.97781e-09
3.69251e-09
2.12973e-09
1.30782e-09
8.04761e-10
4.86516e-10
2.89236e-10
1.72283e-10
1.0372e-10
6.35861e-11
3.91207e-11
2.48878e-11
1.55424e-11
1.00023e-11
6.19636e-12
3.65375e-12
2.06774e-12
1.06953e-12
5.43476e-13
2.98671e-13
1.64189e-13
1.18551e-13
1.25437e-08
6.2511e-09
3.37879e-09
1.89962e-09
1.09897e-09
6.33918e-10
3.57239e-10
1.97074e-10
1.07897e-10
5.98639e-11
3.34656e-11
1.91773e-11
1.09932e-11
6.77419e-12
4.21422e-12
2.5628e-12
1.50293e-12
8.37759e-13
4.30707e-13
2.12263e-13
1.04203e-13
5.49823e-14
3.56072e-14
1.0495e-08
5.42938e-09
2.90719e-09
1.58242e-09
8.68484e-10
4.72042e-10
2.4566e-10
1.2583e-10
6.3772e-11
3.18979e-11
1.60169e-11
8.15186e-12
4.5365e-12
2.58297e-12
1.52066e-12
9.07549e-13
5.23036e-13
2.88908e-13
1.43959e-13
6.8597e-14
3.33966e-14
1.602e-14
9.64798e-15
8.28794e-09
4.28043e-09
2.23162e-09
1.1833e-09
6.15722e-10
3.15053e-10
1.54806e-10
7.38328e-11
3.47671e-11
1.51931e-11
6.98565e-12
3.34927e-12
1.67612e-12
8.88516e-13
4.91251e-13
2.80804e-13
1.47655e-13
8.08042e-14
3.90426e-14
1.80975e-14
8.0069e-15
3.93066e-15
2.2384e-15
6.1751e-09
3.20534e-09
1.5839e-09
8.04878e-10
4.01316e-10
1.88723e-10
8.62687e-11
3.81055e-11
1.61671e-11
6.90766e-12
2.87628e-12
1.23788e-12
5.52126e-13
2.68922e-13
1.35778e-13
7.1425e-14
3.76663e-14
1.92795e-14
9.06131e-15
4.04204e-15
1.8094e-15
8.35519e-16
4.43641e-16
3.78744e-09
1.86191e-09
9.03441e-10
4.36659e-10
2.06857e-10
9.40708e-11
4.13793e-11
1.71379e-11
6.90703e-12
2.70072e-12
1.03913e-12
3.98848e-13
1.59183e-13
6.95747e-14
3.32607e-14
1.6656e-14
8.38898e-15
3.98545e-15
1.81906e-15
7.4805e-16
3.16102e-16
1.47535e-16
7.50996e-17
2.24768e-09
1.03744e-09
4.84018e-10
2.24769e-10
1.01245e-10
4.36652e-11
1.80883e-11
7.12267e-12
2.68994e-12
9.54947e-13
3.30491e-13
1.14403e-13
4.14626e-14
1.64233e-14
7.36116e-15
3.50587e-15
1.66148e-15
7.51435e-16
3.13647e-16
1.23734e-16
5.01433e-17
2.21326e-17
1.06072e-17
9.79839e-10
4.6806e-10
2.18523e-10
9.84145e-11
4.2607e-11
1.76026e-11
6.98619e-12
2.54423e-12
8.88531e-13
2.92534e-13
9.19715e-14
2.86613e-14
9.51194e-15
3.54855e-15
1.48869e-15
6.58848e-16
2.90062e-16
1.21359e-16
4.78412e-17
1.79269e-17
6.92305e-18
2.87217e-18
1.26671e-18
3.66128e-10
1.70034e-10
7.7329e-11
3.4414e-11
1.47179e-11
5.99543e-12
2.23359e-12
8.01718e-13
2.62163e-13
8.04196e-14
2.33287e-14
6.64206e-15
1.99713e-15
6.80365e-16
2.62405e-16
1.08204e-16
4.41573e-17
1.70097e-17
6.19221e-18
2.19226e-18
8.02806e-19
3.12761e-19
1.28427e-19
8.46804e-11
4.02477e-11
1.99005e-11
9.32508e-12
4.15226e-12
1.72142e-12
6.43109e-13
2.21555e-13
6.77791e-14
1.96314e-14
5.18897e-15
1.33523e-15
3.64759e-16
1.14679e-16
4.14309e-17
1.58588e-17
5.93572e-18
2.09465e-18
7.0514e-19
2.33332e-19
8.05485e-20
2.86388e-20
1.18069e-20
9.82553e-12
5.60778e-12
3.28578e-12
1.91338e-12
9.50304e-13
4.13939e-13
1.53835e-13
5.25663e-14
1.59677e-14
4.36669e-15
1.08135e-15
2.55655e-16
6.29098e-17
1.79721e-17
5.95798e-18
2.08898e-18
7.06426e-19
2.2502e-19
6.93196e-20
2.11698e-20
6.53545e-21
2.18645e-21
2.8031e-22
2.40323e-13
2.96657e-13
3.43665e-13
2.85771e-13
1.72707e-13
8.34507e-14
3.33983e-14
1.14939e-14
3.46731e-15
9.18324e-16
2.16603e-16
4.58748e-17
1.01629e-17
2.59587e-18
7.77069e-19
2.43201e-19
7.17232e-20
2.03817e-20
5.77772e-21
1.60549e-21
4.98183e-22
4.98212e-23
1.4416e-24
7.69207e-21
3.21325e-15
2.19455e-14
3.65704e-14
2.79548e-14
1.518e-14
6.20176e-15
2.28939e-15
6.96918e-16
1.81964e-16
4.13093e-17
8.44708e-18
1.60912e-18
3.80135e-19
9.88837e-20
2.58616e-20
6.46237e-21
1.63393e-21
4.2934e-22
1.06792e-22
2.1114e-23
6.42452e-25
5.62881e-27
0.978422
0.958277
0.944514
0.94838
0.90623
0.876096
0.884241
0.916263
0.411064
0.323416
0.235433
0.252854
0.000816353
1.32484e-08
-2.29196e-19
2.51377e-16
9.08262e-07
3.43467e-06
2.05959e-05
2.02808e-05
1.12168e-05
1.06456e-05
8.8043e-06
1.65703e-05
4.87307e-06
6.25209e-06
8.76933e-06
1.0323e-05
2.24669e-06
1.14998e-06
2.3561e-06
2.88805e-06
3.67346e-07
2.30221e-10
3.55586e-10
2.30197e-10
7.63816e-10
1.14773e-09
3.64426e-09
5.41216e-09
1.65427e-09
2.33e-09
6.47709e-09
1.52781e-08
1.05129e-09
1.07576e-09
2.38294e-09
5.28094e-09
3.80051e-10
3.14064e-10
5.40893e-10
1.20196e-09
3.29815e-10
2.91941e-10
2.57564e-10
3.07043e-10
6.85661e-10
7.37263e-10
5.02802e-10
3.06268e-10
2.13163e-09
1.3459e-09
1.09662e-09
6.64222e-10
7.2763e-09
2.80703e-09
2.16439e-09
1.7355e-09
6.39094e-09
5.9336e-09
4.69213e-09
3.23593e-09
4.58352e-09
4.17685e-09
3.94724e-09
3.69451e-09
2.98871e-09
2.75914e-09
2.60876e-09
2.49995e-09
1.75691e-09
1.64867e-09
1.59216e-09
1.50888e-09
8.62098e-10
8.34676e-10
8.32709e-10
8.06658e-10
3.35281e-10
3.6014e-10
3.73499e-10
3.68689e-10
1.11896e-10
1.11913e-10
1.31149e-10
1.3558e-10
3.31053e-11
3.15351e-11
3.6537e-11
3.86924e-11
9.83222e-12
8.6869e-12
9.48694e-12
1.05086e-11
3.01328e-12
2.71815e-12
2.76092e-12
2.69233e-12
1.02415e-12
8.59634e-13
8.03669e-13
8.24567e-13
3.39069e-13
2.91705e-13
2.73768e-13
2.50663e-13
1.0463e-13
8.93461e-14
7.95548e-14
7.43886e-14
2.9753e-14
2.52359e-14
2.28405e-14
2.02755e-14
7.60383e-15
6.22025e-15
5.39361e-15
4.70495e-15
1.74349e-15
1.41667e-15
1.16905e-15
9.59212e-16
3.31051e-16
2.55565e-16
2.10953e-16
1.66907e-16
5.51714e-17
4.15899e-17
3.24222e-17
2.37542e-17
7.58173e-18
5.51661e-18
4.11344e-18
2.75711e-18
8.59544e-19
5.93997e-19
4.57473e-19
2.57696e-19
8.75324e-20
4.69524e-20
2.26272e-20
6.75924e-21
3.17768e-21
1.141e-21
4.16813e-22
7.46489e-23
1.90001e-23
9.76757e-24
6.48213e-25
4.42653e-26
2.87887e-26
6.52782e-28
1.16283e-27
8.55991e-28
8.67372e-30
5.55732e-29
2.14703e-28
6.53052e-28
0.984083
0.984
0.966843
0.963856
0.941552
0.43379
0.458092
0.890237
0.999445
0.999455
0.999487
0.964232
0.454043
0.773313
0.996813
0.999787
0.96725
0.828204
0.840019
0.969846
0.969101
0.912272
0.916387
0.819247
0.562755
0.612951
0.867322
0.979898
0.993007
0.99707
0.989971
0.806928
0.94083
0.886098
0.668448
0.536882
0.73312
0.84087
0.3991
0.445023
0.418193
0.584331
0.607177
0.381915
0.522217
0.644215
0.415872
0.306758
0.314669
0.466749
0.589786
0.414238
0.166744
0.118965
0.148091
0.280304
0.379566
4.24448e-17
7.19136e-07
0.00176115
0.0291901
0.0366539
0.0567908
0.110673
0.0792745
0.00225195
0.000298313
3.7154e-08
0.00154828
0.0126977
0.000269347
-1.78644e-19
-1.05337e-19
-9.09649e-10
-4.98254e-20
2.24239e-22
-1.48955e-09
3.09861e-07
6.46554e-08
2.79398e-08
-7.88471e-25
2.96237e-20
4.02288e-20
7.93949e-12
4.79636e-07
1.57666e-05
3.72341e-08
1.00136e-07
3.28245e-07
1.90994e-07
1.79557e-07
-1.0328e-20
2.80989e-06
2.74368e-05
5.32987e-05
1.63604e-05
9.47741e-06
2.29359e-06
5.23102e-06
6.74057e-06
4.38182e-06
1.44357e-19
2.53158e-10
1.30275e-09
1.31832e-09
4.4818e-08
1.69239e-07
4.63039e-07
5.43579e-07
5.35487e-21
-5.35511e-21
-4.21648e-25
1.41653e-05
1.59357e-05
7.34054e-06
3.16556e-06
1.46834e-06
2.22672e-06
3.5565e-06
2.27168e-06
8.11513e-08
1.85104e-10
6.69141e-09
9.57676e-09
5.60129e-08
9.47858e-07
1.13904e-05
1.38856e-05
1.24695e-05
2.3181e-05
0.000239639
0.000457447
0.000397612
1.50637e-06
4.50412e-07
7.13887e-08
2.32726e-07
5.14572e-07
6.49422e-07
6.29249e-08
2.07845e-10
2.34844e-08
2.13214e-07
5.31074e-08
9.0508e-08
2.43125e-06
2.15301e-05
0.0016114
0.00549205
0.00736881
0.00786176
0.00763512
3.55577e-10
2.30198e-10
1.43925e-08
2.48112e-08
5.29048e-08
4.83188e-07
8.17956e-07
6.10079e-07
1.56894e-06
8.39026e-06
1.29792e-05
1.83391e-05
3.15404e-06
0.0006571
0.00728677
0.00967345
0.00967016
0.00967337
0.00967013
1.13415e-08
2.042e-08
4.43814e-08
6.73079e-08
1.95215e-07
5.68308e-07
1.58784e-06
4.16663e-06
8.14073e-06
1.65083e-05
6.77136e-05
0.000185565
0.000275754
0.00102771
0.00303723
0.00400253
0.00340682
0.00279163
0.00478251
2.51271e-08
3.58989e-08
3.5512e-08
1.89679e-08
4.33607e-08
8.37316e-08
1.29824e-10
2.45485e-06
1.59001e-05
3.10946e-05
6.25004e-05
0.00012072
0.000230346
0.000274922
6.91545e-10
3.44551e-11
4.58505e-11
7.54727e-11
4.58504e-11
7.74612e-09
1.10348e-08
7.20435e-09
1.29803e-10
1.29365e-10
1.293e-10
1.29457e-10
2.34646e-07
7.03353e-06
1.44588e-05
1.57941e-05
8.87451e-06
6.54317e-06
1.58583e-08
3.08449e-08
3.81993e-08
9.27895e-09
1.67439e-09
1.58907e-07
1.76278e-09
2.08805e-09
4.99425e-10
1.30086e-10
3.03532e-10
8.93796e-10
1.94563e-09
2.82216e-09
4.54854e-07
1.34975e-06
6.29708e-10
6.17481e-10
6.29708e-10
1.50487e-08
2.20707e-09
6.29252e-09
1.24638e-08
6.4679e-09
1.0887e-07
3.61989e-10
3.22802e-10
1.51465e-10
2.10158e-10
4.50681e-10
1.26441e-09
4.55357e-09
9.0983e-09
2.05575e-09
2.87629e-08
3.39567e-09
7.76219e-10
6.66493e-10
1.61839e-09
4.61087e-09
1.76367e-08
2.22767e-08
1.75381e-08
1.12393e-08
2.04976e-10
1.3199e-10
1.3985e-10
1.88575e-10
2.76725e-10
4.25203e-10
8.47519e-10
2.37191e-09
2.03048e-09
2.77309e-09
3.29211e-09
1.3769e-09
7.53698e-10
2.77109e-09
7.60539e-09
1.60634e-08
1.90435e-08
1.26397e-08
8.63006e-09
3.39476e-10
1.30042e-10
1.34089e-10
1.47633e-10
1.88399e-10
2.96927e-10
4.8015e-10
1.01299e-09
1.21049e-09
1.15681e-09
1.18556e-09
5.85375e-10
5.3421e-10
2.07913e-09
4.99082e-09
8.56037e-09
8.8137e-09
7.07526e-09
8.56926e-09
9.00167e-10
2.6776e-10
1.56227e-10
1.48044e-10
1.57086e-10
1.84029e-10
2.26707e-10
3.83375e-10
5.20335e-10
5.44377e-10
4.58839e-10
3.25975e-10
3.30029e-10
9.02607e-10
2.1285e-09
2.73836e-09
3.00483e-09
2.52378e-09
3.52182e-09
1.86268e-09
8.15346e-10
3.65149e-10
2.14614e-10
1.62437e-10
1.57612e-10
1.63151e-10
1.84027e-10
2.22707e-10
2.36343e-10
2.15708e-10
1.68334e-10
1.59905e-10
2.88123e-10
5.54215e-10
7.12258e-10
6.26613e-10
4.63379e-10
5.05323e-10
2.89585e-09
1.46112e-09
7.63339e-10
4.28606e-10
2.38889e-10
1.52128e-10
1.21344e-10
1.12765e-10
1.11044e-10
1.06858e-10
9.4193e-11
7.42763e-11
6.40808e-11
7.19756e-11
9.687e-11
9.99555e-11
7.0899e-11
3.41647e-11
1.1518e-11
2.36018e-09
1.69889e-09
1.0139e-09
6.36237e-10
3.79296e-10
2.0384e-10
1.10827e-10
7.3757e-11
5.85861e-11
5.07855e-11
4.33663e-11
3.40802e-11
2.31251e-11
1.62663e-11
1.21199e-11
9.77265e-12
4.37565e-12
7.59936e-13
1.82974e-13
1.42382e-09
1.29486e-09
1.01165e-09
6.77276e-10
4.44245e-10
2.63228e-10
1.41625e-10
6.92128e-11
4.03492e-11
2.9749e-11
2.28629e-11
1.52813e-11
8.23394e-12
3.55886e-12
1.29661e-12
4.78856e-13
4.13076e-14
1.43725e-14
5.34375e-15
7.80805e-10
7.14127e-10
6.38018e-10
5.68721e-10
4.1782e-10
2.77027e-10
1.66555e-10
8.57473e-11
4.10031e-11
2.17474e-11
1.24689e-11
6.4169e-12
2.87464e-12
9.72621e-13
2.35078e-13
4.7687e-14
5.45717e-15
1.64573e-15
4.38893e-16
3.59123e-10
3.46643e-10
3.20159e-10
2.86826e-10
2.58738e-10
2.20114e-10
1.49902e-10
9.02919e-11
4.6055e-11
2.02149e-11
8.18608e-12
3.10821e-12
1.08613e-12
3.22529e-13
7.29818e-14
1.38682e-14
1.29467e-15
4.72878e-16
1.77104e-16
1.33332e-10
1.33221e-10
1.33742e-10
1.2505e-10
1.11839e-10
1.00313e-10
8.97302e-11
6.56069e-11
3.93355e-11
1.90955e-11
7.34748e-12
2.24695e-12
5.80767e-13
1.37498e-13
2.8249e-14
3.29609e-15
4.75135e-16
2.8897e-16
1.11252e-16
3.80625e-11
4.13449e-11
4.22355e-11
4.12972e-11
3.97269e-11
3.66607e-11
3.47837e-11
2.98454e-11
2.23693e-11
1.34037e-11
6.07616e-12
1.88957e-12
4.08145e-13
7.24126e-14
1.23036e-14
8.8707e-16
2.35996e-16
1.89105e-16
7.56984e-17
9.97018e-12
1.02798e-11
1.06251e-11
1.08833e-11
1.06173e-11
1.03364e-11
1.01047e-11
9.61269e-12
8.46851e-12
6.48291e-12
3.63684e-12
1.30809e-12
2.78101e-13
3.79062e-14
3.69626e-15
2.32439e-16
1.16119e-16
1.11595e-16
5.21264e-17
2.54193e-12
2.54037e-12
2.50292e-12
2.4445e-12
2.38817e-12
2.36152e-12
2.35454e-12
2.32019e-12
2.37158e-12
2.17046e-12
1.50396e-12
6.59107e-13
1.57205e-13
1.87156e-14
9.10013e-16
6.40118e-17
5.53827e-17
7.65612e-17
3.36132e-17
7.3873e-13
6.64629e-13
6.16087e-13
5.56189e-13
5.13321e-13
4.8004e-13
4.49501e-13
4.57455e-13
5.1612e-13
5.414e-13
4.45737e-13
2.38713e-13
5.68486e-14
4.57749e-15
1.70999e-16
2.65709e-17
2.61038e-17
5.06539e-17
2.19369e-17
2.12771e-13
1.83028e-13
1.53514e-13
1.26886e-13
1.09483e-13
8.63628e-14
7.19262e-14
7.67156e-14
9.11494e-14
1.03204e-13
9.64111e-14
5.30041e-14
8.50077e-15
3.79975e-16
1.61127e-17
9.32726e-18
1.26943e-17
3.29113e-17
1.32005e-17
6.05069e-14
4.84129e-14
3.7209e-14
2.96374e-14
2.3451e-14
1.34371e-14
8.01069e-15
8.89516e-15
1.17129e-14
1.47303e-14
1.36984e-14
4.58307e-15
5.30602e-16
2.14027e-17
1.74069e-18
2.89848e-18
8.02672e-18
2.09089e-17
7.7468e-18
1.52441e-14
1.11009e-14
8.01144e-15
6.30652e-15
3.74236e-15
1.44329e-15
5.45749e-16
6.74531e-16
1.05776e-15
1.48383e-15
7.29743e-16
1.98744e-16
2.67462e-17
9.12967e-19
4.32926e-19
1.56095e-18
5.77801e-18
1.24097e-17
4.21951e-18
3.31813e-15
2.28699e-15
1.71486e-15
9.81532e-16
3.92996e-16
8.31776e-17
2.02619e-17
3.61708e-17
7.88372e-17
4.35417e-17
1.71203e-17
6.23223e-18
9.04666e-19
9.70407e-20
2.2257e-19
1.14646e-18
4.05636e-18
7.66694e-18
2.17535e-18
6.13517e-16
4.08172e-16
2.61164e-16
9.69459e-17
1.85455e-17
1.31864e-18
4.90339e-19
1.63337e-18
1.06426e-18
5.3046e-19
3.18965e-19
1.10052e-19
2.90753e-20
4.36941e-20
1.59826e-19
8.75882e-19
2.86214e-18
4.03445e-18
1.1203e-18
9.83104e-17
6.37499e-17
2.49443e-17
4.47629e-18
2.60135e-19
7.11768e-21
1.20292e-20
9.30844e-21
7.27621e-21
7.87322e-21
7.64589e-21
9.17476e-21
1.55932e-20
3.51692e-20
1.38728e-19
7.27372e-19
1.80807e-18
2.3069e-18
4.83538e-19
1.44974e-17
5.36162e-18
1.03795e-18
6.21027e-20
7.32612e-22
1.14297e-22
1.45003e-22
2.72377e-22
6.0386e-22
1.3723e-21
3.18977e-21
7.0785e-21
1.42083e-20
3.297e-20
1.29881e-19
5.19197e-19
1.19507e-18
9.9625e-19
2.26509e-19
1.38545e-18
2.63708e-19
1.46512e-20
1.25587e-22
1.36275e-23
2.4498e-23
6.43964e-23
1.80912e-22
4.86333e-22
1.24634e-21
3.06509e-21
6.89451e-21
1.37303e-20
3.12752e-20
1.0901e-19
3.31608e-19
6.88657e-19
5.4755e-19
8.06363e-20
4.57742e-20
1.35752e-21
7.85663e-24
2.54408e-24
5.96299e-24
1.87611e-23
5.68358e-23
1.6288e-22
4.39286e-22
1.13279e-21
2.7681e-21
6.14151e-21
1.20867e-20
2.70428e-20
8.45105e-20
2.20955e-19
3.80033e-19
1.90798e-19
3.3756e-20
5.13774e-22
5.10727e-24
5.44443e-25
1.43982e-24
4.90419e-24
1.57299e-23
4.79309e-23
1.36049e-22
3.67271e-22
9.39119e-22
2.28112e-21
5.02316e-21
9.79514e-21
2.12296e-20
5.95264e-20
1.41803e-19
1.62747e-19
8.64625e-20
1.14019e-20
2.34633e-24
9.61463e-26
2.9572e-25
1.10215e-24
3.7698e-24
1.19524e-23
3.58503e-23
1.01286e-22
2.73421e-22
7.01426e-22
1.69767e-21
3.68089e-21
7.08122e-21
1.52843e-20
3.50918e-20
8.27014e-20
6.74253e-20
2.31748e-20
4.88562e-21
1.22229e-26
5.16559e-26
2.04544e-25
7.12276e-25
2.32531e-24
7.22732e-24
2.17342e-23
6.32891e-23
1.72502e-22
4.48984e-22
1.07897e-21
2.38682e-21
4.72302e-21
9.70146e-21
1.9468e-20
3.84498e-20
2.14695e-20
8.19936e-21
2.11994e-21
6.99046e-27
2.94797e-26
1.05164e-25
3.42071e-25
1.10924e-24
3.53102e-24
1.0857e-23
3.21654e-23
9.09569e-23
2.45761e-22
6.10803e-22
1.35169e-21
2.61703e-21
5.43038e-21
9.7208e-21
1.44207e-20
5.75022e-21
2.4307e-21
5.57732e-22
2.57204e-27
8.95619e-27
2.80208e-26
8.63426e-26
3.21654e-25
1.12398e-24
3.81793e-24
1.22815e-23
3.68877e-23
1.04542e-22
2.70197e-22
6.16711e-22
1.18404e-21
2.27495e-21
3.40762e-21
3.52851e-21
1.28759e-21
3.41308e-22
2.19881e-23
)
;

boundaryField
{
    leftWall
    {
        type            alphaContactAngle;
        contactAngleProperties 
        {
            mercury         
            {
                theta0          90;
            }
            air             
            {
                theta0          90;
            }
            oil             
            {
                theta0          90;
            }
        }
        value           nonuniform List<scalar> 
50
(
1.10515e-10
2.03491e-10
3.80888e-10
1.97337e-10
1.19137e-10
1.13603e-10
0.0305738
0.715124
1
1
1
0.910688
0.540442
0.00750495
7.77212e-05
7.50375e-05
1.13875e-05
2.86176e-07
3.13851e-07
5.97327e-07
1.01538e-06
5.9261e-07
2.05513e-07
6.54992e-08
1.46297e-08
1.3303e-08
1.92488e-08
1.96592e-08
1.94726e-08
1.90409e-08
1.84728e-08
1.82249e-08
1.81533e-08
1.81391e-08
1.80517e-08
1.73953e-08
1.59595e-08
1.47797e-08
1.25437e-08
1.0495e-08
8.28794e-09
6.1751e-09
3.78744e-09
2.24768e-09
9.79839e-10
3.66128e-10
8.46804e-11
9.82553e-12
2.40323e-13
7.69207e-21
)
;
    }
    rightWall
    {
        type            alphaContactAngle;
        contactAngleProperties 
        {
            mercury         
            {
                theta0          90;
            }
            air             
            {
                theta0          90;
            }
            oil             
            {
                theta0          90;
            }
        }
        value           nonuniform List<scalar> 
50
(
0.0110484
0.0110258
0.000658799
0.0715856
0.527245
0.672026
0.871387
0.84913
0.840019
0.84087
0.379566
2.24239e-22
5.32987e-05
1.59357e-05
0.000397612
0.00763512
0.00967013
0.00478251
4.58504e-11
1.58907e-07
1.0887e-07
1.12393e-08
8.63006e-09
8.56926e-09
3.52182e-09
5.05323e-10
1.1518e-11
1.82974e-13
5.34375e-15
4.38893e-16
1.77104e-16
1.11252e-16
7.56984e-17
5.21264e-17
3.36132e-17
2.19369e-17
1.32005e-17
7.7468e-18
4.21951e-18
2.17535e-18
1.1203e-18
4.83538e-19
2.26509e-19
8.06363e-20
3.3756e-20
1.14019e-20
4.88562e-21
2.11994e-21
5.57732e-22
2.19881e-23
)
;
    }
    lowerWall
    {
        type            alphaContactAngle;
        contactAngleProperties 
        {
            mercury         
            {
                theta0          90;
            }
            air             
            {
                theta0          90;
            }
            oil             
            {
                theta0          90;
            }
        }
        value           nonuniform List<scalar> 
62
(
1.10515e-10
1.39065e-10
1.55084e-10
1.62911e-10
1.71673e-10
1.79724e-10
1.8704e-10
1.93616e-10
2.00798e-10
2.11526e-10
2.30681e-10
2.6282e-10
3.05406e-10
3.54951e-10
4.26179e-10
5.20349e-10
6.48131e-10
1.00727e-09
1.82517e-09
2.56921e-09
2.76826e-09
2.76865e-09
2.75609e-09
2.75609e-09
1.76266e-09
8.4652e-10
2.65405e-10
-2.00075e-19
0.180662
0.921613
0.997332
0.978422
0.958277
0.944514
0.94838
0.00718471
0.00718388
0.00932279
0.354026
0.725492
0.932739
0.93799
0.957554
0.00718471
0.0340642
0.0426761
0.0419093
0.0163688
0.00111396
0.00108264
0.000874155
0.000871296
0.000871296
0.0127679
0.0599158
0.124393
0.124399
0.124367
0.123995
0.0440849
0.0027737
0.0110484
)
;
    }
    atmosphere
    {
        type            inletOutlet;
        inletValue      uniform 0;
        value           nonuniform List<scalar> 
46
(
0
0
2.19455e-14
3.65705e-14
2.79548e-14
1.518e-14
6.20176e-15
2.28939e-15
6.96918e-16
1.81964e-16
4.13093e-17
8.44708e-18
1.60912e-18
3.80135e-19
0
0
0
0
0
0
0
0
0
0
0
0
0
0
0
0
0
0
1.12398e-24
0
1.22815e-23
0
0
2.70197e-22
0
0
0
0
0
0
0
0
)
;
    }
    defaultFaces
    {
        type            empty;
    }
}

