/*--------------------------------*- C++ -*----------------------------------*\
  =========                 |
  \\      /  F ield         | OpenFOAM: The Open Source CFD Toolbox
   \\    /   O peration     | Website:  https://openfoam.org
    \\  /    A nd           | Version:  13
     \\/     M anipulation  |
\*---------------------------------------------------------------------------*/
FoamFile
{
    format      ascii;
    class       volScalarField;
    location    "3";
    object      epsilon;
}
// * * * * * * * * * * * * * * * * * * * * * * * * * * * * * * * * * * * * * //

dimensions      [0 2 -3 0 0 0 0];

internalField   nonuniform List<scalar> 
2268
(
0.00292814
0.0155006
0.0274879
0.0386713
0.0491447
0.0589878
0.068196
0.0767412
0.0846165
0.0919071
0.0990032
0.105138
0.110104
0.113699
0.115721
0.115929
0.113952
0.109195
0.100684
0.0869078
0.065911
0.0363759
0.00625884
0.00597673
0.0109792
0.0168804
0.0221561
0.0267263
0.0306937
0.0341539
0.0371889
0.0398727
0.042294
0.0446295
0.0466607
0.0483065
0.0494968
0.0501537
0.0501778
0.0494239
0.047676
0.0446154
0.0397918
0.0326544
0.0229029
0.0134594
0.0107338
0.0112765
0.0153252
0.0191693
0.0224926
0.0253296
0.0277586
0.0298556
0.0316867
0.0333193
0.0348259
0.0361288
0.0371812
0.0379413
0.038364
0.0383949
0.0379609
0.0369633
0.0352749
0.0327458
0.0292309
0.0248066
0.0240596
0.0155129
0.0122515
0.0151496
0.0182609
0.0210401
0.0234408
0.0255062
0.0272924
0.0288505
0.0302297
0.031467
0.0325273
0.0333809
0.0340004
0.0343598
0.0344324
0.0341891
0.0336022
0.0326634
0.0314236
0.030074
0.0292482
0.0359204
0.0200324
0.0134191
0.015435
0.0180592
0.0205287
0.0227178
0.0246311
0.0263009
0.0277619
0.0290491
0.0301838
0.031148
0.0319223
0.0324896
0.0328379
0.0329615
0.0328638
0.03257
0.0321632
0.0318702
0.0322651
0.0349178
0.0501019
0.0242219
0.014644
0.0159444
0.0182114
0.0204825
0.022561
0.024415
0.0260525
0.0274918
0.0287562
0.0298588
0.0307896
0.0315358
0.0320882
0.0324452
0.0326182
0.0326361
0.0325641
0.0325558
0.0329921
0.0348831
0.0413837
0.0695544
0.028211
0.0158782
0.0165912
0.0185837
0.0207176
0.0227374
0.0245789
0.0262263
0.0276811
0.0289567
0.0300614
0.0309896
0.031733
0.0322874
0.0326591
0.0328734
0.0329787
0.0330683
0.0333424
0.0342915
0.0373291
0.0479451
0.101877
0.0317865
0.0171114
0.0173371
0.019109
0.021139
0.0231249
0.0249759
0.0266524
0.0281374
0.0294348
0.0305491
0.0314775
0.0322155
0.0327629
0.0331334
0.0333647
0.0335201
0.03371
0.0341544
0.0353807
0.038972
0.0524702
0.169882
0.00540853
0.01696
0.0270532
0.0359561
0.0442393
0.0505865
0.0568987
0.0619683
0.0654017
0.0691162
0.0634333
0.0577887
0.0590079
0.0519382
0.0430395
0.0354336
0.026912
0.0162059
0.00269335
0.00746706
0.0115388
0.0158747
0.0202636
0.0247627
0.0288443
0.031581
0.0334075
0.0341665
0.0340607
0.0320329
0.0302782
0.0287775
0.0253033
0.021513
0.0182616
0.0148632
0.0107133
0.00516314
0.0116164
0.0131417
0.0163078
0.019372
0.0222948
0.0249148
0.0267273
0.0278846
0.0285088
0.0286373
0.0273476
0.0258853
0.0244966
0.0215664
0.018493
0.0160825
0.0139846
0.0119412
0.0104038
0.0162778
0.0156495
0.0180048
0.020341
0.0221752
0.0238091
0.0250795
0.0259254
0.0264998
0.026925
0.0263864
0.0253232
0.0243587
0.0212681
0.0181125
0.0160271
0.0147926
0.0146611
0.0191601
0.0223356
0.0186696
0.0198636
0.0214344
0.0227825
0.0237601
0.0246058
0.0251943
0.0255046
0.0256363
0.0254296
0.0253144
0.0258672
0.0220791
0.0183833
0.0166556
0.0159875
0.017316
0.0329389
0.0324084
0.0225852
0.0219222
0.0224891
0.0233128
0.0241205
0.0247558
0.0251008
0.0251323
0.0250036
0.0246741
0.0246835
0.0273233
0.0225616
0.0188033
0.0173439
0.0167068
0.0179177
0.0361207
0.0536852
0.0275114
0.0241519
0.0237198
0.023954
0.0245257
0.0250857
0.0252778
0.0252095
0.024967
0.0245743
0.024238
0.0266903
0.0223495
0.0191674
0.017773
0.0171141
0.017912
0.0356154
0.099438
0.0323059
0.0262562
0.0249811
0.0247305
0.0249713
0.0254008
0.0255435
0.0254211
0.0250339
0.0245447
0.0239002
0.0251811
0.0220722
0.0195491
0.0182244
0.0175867
0.0179088
0.0329739
0.0352598
0.0188729
0.0185476
0.0200395
0.0219144
0.0238266
0.0256555
0.0273284
0.0288059
0.0300796
0.0311545
0.0320344
0.0327218
0.0332228
0.0335625
0.0337932
0.0339916
0.0342777
0.0348714
0.036248
0.0395894
0.0482833
0.0741989
0.0360989
0.0209414
0.0203253
0.0214789
0.0230333
0.0246587
0.0262198
0.0276341
0.0288748
0.0299471
0.0308618
0.0316237
0.032242
0.0327312
0.0331157
0.0334414
0.0337733
0.034206
0.0348987
0.0361432
0.0384894
0.0429309
0.0509774
0.0383839
0.0237804
0.0226029
0.0232841
0.0244263
0.0256781
0.0268968
0.0280133
0.0290083
0.0298915
0.0306716
0.0313543
0.0319496
0.0324732
0.0329496
0.0334124
0.0339008
0.0344648
0.0351879
0.0362034
0.037714
0.0399371
0.0428916
0.0412818
0.0272223
0.0253864
0.0255664
0.0262702
0.0271162
0.0279798
0.0288172
0.029594
0.0303138
0.0309911
0.0316311
0.032231
0.0327947
0.0333518
0.0339293
0.0345271
0.0351298
0.0357642
0.0364854
0.0373586
0.0384073
0.0395182
0.0458464
0.0307543
0.0285465
0.0282498
0.0284752
0.0288905
0.0294176
0.029999
0.0305839
0.0311644
0.0317555
0.0323563
0.0329547
0.0335448
0.0341408
0.0347516
0.0353443
0.0358773
0.0363578
0.0368099
0.0372359
0.0376348
0.0379556
0.0502058
0.0341454
0.0317314
0.0309866
0.0307714
0.0308287
0.031071
0.0314194
0.0318257
0.0322717
0.0327582
0.0332883
0.0338692
0.0344912
0.0351031
0.035672
0.036187
0.0366346
0.036972
0.0371854
0.037286
0.037297
0.0372317
0.0537631
0.0375781
0.0345325
0.0334154
0.0329295
0.0327708
0.0328065
0.0329558
0.0331934
0.0335001
0.0338722
0.0343188
0.0348524
0.0354536
0.0360382
0.0365411
0.0369566
0.0372828
0.0374658
0.0374837
0.0373639
0.0371521
0.0368926
0.0587974
0.0407081
0.0370761
0.035669
0.0350118
0.034708
0.0345787
0.0345501
0.0346188
0.0347842
0.035044
0.0354056
0.035876
0.0364197
0.0369369
0.0373461
0.037633
0.0377986
0.0378121
0.0376704
0.0374083
0.0370735
0.0367125
0.065085
0.0437441
0.0396374
0.0379526
0.0371451
0.0367228
0.0364359
0.0362086
0.0360896
0.0361118
0.036262
0.0365419
0.0369508
0.0374347
0.0378569
0.0381207
0.0382289
0.0382075
0.0380561
0.037789
0.0374369
0.0370376
0.0366361
0.0765253
0.0476337
0.042275
0.0402609
0.03936
0.038876
0.0384282
0.0379401
0.0375734
0.0374096
0.0374065
0.0375136
0.0377169
0.0379876
0.0382461
0.0384235
0.038492
0.0384328
0.0382338
0.0379176
0.0375177
0.0370661
0.0366247
0.0925401
0.0474963
0.0414708
0.0396688
0.039218
0.0391525
0.0389369
0.0384934
0.0380557
0.037769
0.0375972
0.0374721
0.0374038
0.0374085
0.0374643
0.0375313
0.0375773
0.0375671
0.0374693
0.0372755
0.0369939
0.0366469
0.036286
0.0982575
0.0479379
0.0407202
0.0385945
0.0378803
0.0376686
0.0375304
0.0373197
0.0370931
0.0369211
0.0368128
0.0367287
0.0366814
0.0366841
0.0367238
0.036773
0.0368041
0.0367902
0.0367062
0.0365425
0.0363076
0.0360232
0.0357292
0.0992615
0.0475196
0.0396353
0.0372241
0.0363187
0.0359791
0.0358272
0.0357236
0.0356615
0.035648
0.035667
0.035691
0.0357237
0.035774
0.0358377
0.0359007
0.0359466
0.0359566
0.0359107
0.035797
0.035618
0.0353888
0.0351357
0.0978179
0.0468214
0.0387325
0.036101
0.0350163
0.0345515
0.0343477
0.034272
0.0342859
0.0343599
0.0344646
0.034577
0.0346907
0.0348048
0.0349156
0.0350145
0.035091
0.0351321
0.0351232
0.0350531
0.0349204
0.0347333
0.034504
0.0935589
0.0455756
0.0376706
0.0349676
0.0337991
0.0332863
0.0330727
0.0330106
0.0330478
0.0331497
0.0332935
0.0334582
0.0336287
0.0337963
0.0339535
0.0340921
0.0342032
0.0342769
0.0343018
0.0342687
0.0341757
0.034027
0.0338246
0.0883083
0.0439235
0.0363758
0.0337145
0.0325495
0.0320471
0.031862
0.0318291
0.0318812
0.0319956
0.0321594
0.0323529
0.0325591
0.032764
0.0329566
0.0331274
0.0332678
0.0333691
0.0334223
0.0334203
0.0333616
0.0332495
0.033079
0.0837309
0.0419616
0.0348211
0.0323007
0.0312147
0.0307632
0.0306222
0.0306303
0.0307152
0.0308547
0.0310396
0.0312548
0.0314842
0.0317131
0.0319292
0.0321225
0.0322844
0.032407
0.0324831
0.0325071
0.0324787
0.0324004
0.0322631
0.0794116
0.0397173
0.0330399
0.0307417
0.0297866
0.0294156
0.0293319
0.0293909
0.0295226
0.0297009
0.0299153
0.0301539
0.0304033
0.03065
0.0308827
0.0310919
0.0312695
0.0314086
0.0315032
0.0315494
0.0315471
0.0314986
0.0313923
0.0745191
0.0372974
0.0311215
0.0290842
0.0282861
0.028014
0.0280003
0.0281176
0.0283026
0.0285264
0.0287771
0.0290437
0.0293147
0.0295791
0.0298269
0.03005
0.0302414
0.0303951
0.0305065
0.0305726
0.0305938
0.0305717
0.0304941
0.0691532
0.034799
0.0291798
0.0273946
0.0267521
0.0265856
0.0266473
0.0268259
0.027065
0.0273361
0.0276263
0.0279244
0.0282203
0.0285049
0.0287701
0.0290089
0.0292156
0.0293853
0.0295145
0.0296009
0.0296453
0.0296486
0.029599
0.0636156
0.0323107
0.0272771
0.025742
0.02524
0.0251654
0.0252979
0.0255351
0.0258253
0.0261427
0.0264725
0.0268036
0.0271272
0.0274356
0.0277219
0.0279804
0.0282062
0.0283956
0.0285458
0.0286552
0.0287245
0.0287545
0.0287344
0.0582396
0.029937
0.0254694
0.0241656
0.0237904
0.0237967
0.0239874
0.0242731
0.0246077
0.0249658
0.0253319
0.0256956
0.0260486
0.0263837
0.0266951
0.0269778
0.0272276
0.0274414
0.0276171
0.0277533
0.0278508
0.0279101
0.0279221
0.0533252
0.0277693
0.0238044
0.0226979
0.0224279
0.0225005
0.0227388
0.0230637
0.0234339
0.0238257
0.0242242
0.0246189
0.0250017
0.0253659
0.0257059
0.0260171
0.0262956
0.0265387
0.0267445
0.0269117
0.0270409
0.0271326
0.0271793
0.0490722
0.0258646
0.0223107
0.0213591
0.0211697
0.0212928
0.0215678
0.0219233
0.0223221
0.0227423
0.0231697
0.023594
0.0240069
0.024402
0.0247737
0.0251172
0.0254288
0.0257055
0.0259455
0.0261473
0.0263113
0.0264379
0.026521
0.0455751
0.0242387
0.0209948
0.020156
0.0200242
0.0201836
0.0204861
0.0208658
0.0212885
0.021734
0.0221884
0.0226418
0.023086
0.0235142
0.0239204
0.0242998
0.0246483
0.0249624
0.02524
0.0254794
0.0256803
0.025843
0.025963
0.0427859
0.0228691
0.0198442
0.0190838
0.0189918
0.0191776
0.0195016
0.0199022
0.0203471
0.0208172
0.0212994
0.0217835
0.0222613
0.0227257
0.0231702
0.0235893
0.0239782
0.0243332
0.0246512
0.0249303
0.0251695
0.0253686
0.0255245
0.0404934
0.021693
0.0188358
0.0181314
0.0180688
0.018276
0.01862
0.0190417
0.0195105
0.020008
0.0205212
0.0210401
0.0215561
0.0220615
0.022549
0.0230124
0.0234461
0.0238453
0.0242066
0.024527
0.0248049
0.0250398
0.0252292
0.0385438
0.0206617
0.0179427
0.017286
0.0172502
0.0174795
0.0178462
0.0182933
0.0187913
0.0193221
0.0198729
0.0204336
0.020995
0.0215484
0.0220857
0.0225995
0.0230831
0.0235308
0.0239378
0.0243007
0.0246172
0.0248864
0.0251064
0.036832
0.0197425
0.0171469
0.016538
0.0165338
0.0167916
0.0171881
0.0176685
0.018204
0.0187772
0.0193755
0.0199881
0.020605
0.0212163
0.0218125
0.0223847
0.0229247
0.0234257
0.0238818
0.0242888
0.0246438
0.0249455
0.0251922
0.0352827
0.018914
0.0164399
0.0158866
0.0159238
0.0162206
0.0166576
0.017182
0.0177665
0.0183944
0.019053
0.0197309
0.0204169
0.0210992
0.0217666
0.0224079
0.0230132
0.0235739
0.0240835
0.0245366
0.0249299
0.0252617
0.0255308
0.0338589
0.0181702
0.0158265
0.0153429
0.0154357
0.0157843
0.016274
0.0168548
0.0175014
0.0181984
0.0189333
0.0196938
0.0204666
0.0212376
0.0219924
0.022717
0.0233991
0.0240284
0.0245969
0.0250988
0.0255304
0.0258898
0.0261761
0.0325595
0.0175243
0.0153294
0.0149355
0.0151002
0.0155137
0.0160671
0.0167155
0.0174374
0.0182194
0.0190495
0.019914
0.0207966
0.0216793
0.0225432
0.0233701
0.0241443
0.0248534
0.0254882
0.0260424
0.0265124
0.0268965
0.0271942
0.0314312
0.0170171
0.0149986
0.0147184
0.0149698
0.0154561
0.0160786
0.0168011
0.0176087
0.0184917
0.0194387
0.0204339
0.0214563
0.0224814
0.0234835
0.0244381
0.0253247
0.0261283
0.0268386
0.0274496
0.0279582
0.0283638
0.0286666
0.0305802
0.0167369
0.0149317
0.014787
0.0151289
0.0156811
0.0163637
0.0171558
0.0180532
0.0190516
0.0201405
0.0213001
0.022502
0.0237115
0.0248917
0.0260083
0.0270342
0.0279511
0.0287484
0.0294214
0.0299692
0.0303928
0.030694
0.0302185
0.0168644
0.0153124
0.0153056
0.015709
0.0162858
0.0169908
0.0178277
0.0188073
0.0199324
0.021192
0.02256
0.0239957
0.025448
0.0268619
0.0281875
0.029388
0.0304419
0.0313398
0.0320811
0.0326686
0.0331071
0.0334003
0.0307611
0.0177732
0.0164903
0.0165554
0.0169103
0.0173997
0.018037
0.0188603
0.0198969
0.0211545
0.0226193
0.0242541
0.0259995
0.0277779
0.0295047
0.031104
0.032525
0.0337443
0.0347583
0.0355741
0.0362026
0.036654
0.0369351
0.0330986
0.0202668
0.0191401
0.0190121
0.0190244
0.0191799
0.0195742
0.0202769
0.0213214
0.0227113
0.0244229
0.0264029
0.0285646
0.0307908
0.0329468
0.0349095
0.0366085
0.0380243
0.0391685
0.0400644
0.0407357
0.0412012
0.0414721
0.0393887
0.0261651
0.0245637
0.0234422
0.0224336
0.0217803
0.0216363
0.0220538
0.0230325
0.0245481
0.0265564
0.0289832
0.0317104
0.034566
0.0373298
0.039782
0.0418254
0.0434636
0.0447442
0.0457209
0.0464377
0.0469247
0.0471985
0.0554942
0.0397349
0.0351204
0.0309063
0.0275111
0.0252628
0.0241612
0.0240849
0.0249097
0.02654
0.0288975
0.031892
0.035385
0.0391487
0.0428205
0.0459399
0.0483894
0.0502505
0.0516497
0.0526934
0.0534552
0.0539783
0.0542858
0.100603
0.0707745
0.0543347
0.0423278
0.0342877
0.0294167
0.0269077
0.0261474
0.0267435
0.0284742
0.0312186
0.0348935
0.0393946
0.0445023
0.0496533
0.05368
0.056547
0.0585623
0.0600073
0.0610693
0.0618579
0.06243
0.0628157
0.277618
0.135746
0.0845607
0.0570078
0.0417919
0.0335208
0.0293906
0.0278957
0.0282458
0.0300569
0.0331713
0.0375586
0.043271
0.0503472
0.0581767
0.063333
0.0664616
0.0684277
0.0697565
0.0707252
0.071475
0.0720721
0.072559
1.56745
0.208514
0.115476
0.0696452
0.0473689
0.0362657
0.0309312
0.0289261
0.0291083
0.0309668
0.0343269
0.0392393
0.0460311
0.0554679
0.0679928
0.0740226
0.076961
0.0785708
0.0795874
0.0803226
0.0809187
0.0814445
0.0819592
0.172846
0.132132
0.133434
0.148164
0.0601678
0.0600423
0.0590181
0.0556877
0.0448063
0.0451602
0.0446649
0.0431935
0.040029
0.0401079
0.0398678
0.0392324
0.0380356
0.0379995
0.0378295
0.0374792
0.037116
0.0370079
0.0368401
0.036584
0.0366728
0.0365168
0.0363323
0.0361049
0.0364388
0.0362609
0.0360733
0.035867
0.0363451
0.0361586
0.035973
0.0357856
0.0363312
0.0361528
0.0359922
0.0358429
0.0360549
0.0359273
0.035825
0.0357255
0.035538
0.03542
0.0353143
0.0352094
0.0349577
0.0348399
0.0347253
0.0346108
0.0343307
0.0342147
0.0340996
0.0339858
0.033663
0.033556
0.0334483
0.0333406
0.0329365
0.0328423
0.0327451
0.0326448
0.0321413
0.0320598
0.0319731
0.0318804
0.0312898
0.0312192
0.0311419
0.0310569
0.0304095
0.0303486
0.0302803
0.0302036
0.0295325
0.0294813
0.0294224
0.0293552
0.0286874
0.0286469
0.0285988
0.0285425
0.0278966
0.0278682
0.0278321
0.0277881
0.0271772
0.0271622
0.0271393
0.0271086
0.0265437
0.0265428
0.0265336
0.0265165
0.0260107
0.026024
0.0260285
0.0260246
0.0255958
0.0256227
0.0256401
0.0256487
0.0253217
0.0253612
0.0253902
0.0254097
0.0252172
0.0252673
0.025306
0.0253344
0.0253177
0.0253761
0.025422
0.0254563
0.0256667
0.0257305
0.0257803
0.0258169
0.0263173
0.026383
0.0264327
0.0264673
0.0273347
0.027398
0.0274428
0.02747
0.0287996
0.0288556
0.02889
0.0289036
0.0308124
0.0308558
0.0308738
0.0308668
0.0334975
0.0335235
0.0335193
0.033485
0.037007
0.0370124
0.0369824
0.0369164
0.0415209
0.0415075
0.0414535
0.0413573
0.047239
0.0472185
0.0471541
0.047043
0.0543535
0.0543551
0.0543166
0.0542338
0.0629715
0.0630512
0.0631161
0.0631643
0.0728693
0.0731079
0.0734221
0.0738488
0.0823997
0.0828326
0.0835734
0.0849396
0.0556892
0.0341963
0.0287086
0.0267535
0.0259587
0.0257583
0.0258753
0.0258851
0.0255683
0.0249828
0.0243157
0.0234783
0.0237287
0.0221717
0.0203273
0.0191945
0.0185873
0.018175
0.027133
0.0434771
0.0347244
0.0307265
0.0286356
0.0275283
0.0269322
0.0266693
0.0263228
0.0257
0.0249151
0.0241555
0.0236287
0.0241868
0.0229468
0.0214831
0.0205771
0.019532
0.0181994
0.0228578
0.0392971
0.0347874
0.0319288
0.0299877
0.0287496
0.027932
0.0274087
0.0268185
0.0260383
0.0251448
0.0243431
0.0238713
0.0240329
0.0229987
0.0216323
0.0204529
0.0191985
0.018405
0.0231429
0.0375488
0.0348589
0.032719
0.0310116
0.0297133
0.0287691
0.0280601
0.0273419
0.0264971
0.0255986
0.0247819
0.024154
0.023741
0.0227962
0.0216412
0.020626
0.0198158
0.0200622
0.0298563
0.0365936
0.0348608
0.0332286
0.0317817
0.0305321
0.0295442
0.028745
0.0279669
0.0271106
0.0262353
0.0254075
0.0246609
0.0239744
0.0231276
0.0222635
0.0215628
0.0212
0.0223719
0.0367975
0.036005
0.0348196
0.0335617
0.0323406
0.0312187
0.0302989
0.0295231
0.0287287
0.0278633
0.0269944
0.0261591
0.0253703
0.0246165
0.0238472
0.0231406
0.0226234
0.0225624
0.0244027
0.0418091
0.0356561
0.034796
0.033815
0.0327924
0.0318235
0.0310119
0.0302964
0.029518
0.0286568
0.0277862
0.0269444
0.0261437
0.0253848
0.0246588
0.0240138
0.0235663
0.0236541
0.0258607
0.0449555
0.0354956
0.0348392
0.0340575
0.0332004
0.0323781
0.0316797
0.0310244
0.0302689
0.0294114
0.0285314
0.0276798
0.026872
0.0261092
0.0253978
0.0247783
0.0243603
0.0245201
0.0269086
0.0461545
0.0354737
0.0349645
0.0343206
0.0335769
0.0328852
0.0323199
0.0317424
0.0309939
0.0301091
0.0291963
0.0283309
0.0275245
0.0267581
0.0260383
0.0254293
0.0250606
0.0253355
0.0280385
0.048411
0.0355971
0.0352023
0.0346276
0.033912
0.0333217
0.032949
0.0325198
0.031748
0.0307711
0.0297784
0.0289035
0.0281397
0.0274
0.0266528
0.0259698
0.025641
0.026087
0.0293173
0.0535394
0.0355489
0.035171
0.0345837
0.0339063
0.0334177
0.0330976
0.0326962
0.0320101
0.0310957
0.0300717
0.0291635
0.0284996
0.0278836
0.0270378
0.0261571
0.0257821
0.0263783
0.0297753
0.0493431
0.0350234
0.0346753
0.0341928
0.0336397
0.0331394
0.0327179
0.0323022
0.0317548
0.0310139
0.0300909
0.0291513
0.0283569
0.0276058
0.0267544
0.0259418
0.0255345
0.0261149
0.0296035
0.0530697
0.0344124
0.0340821
0.0336602
0.0331629
0.0326753
0.0322267
0.0317689
0.0312043
0.0305056
0.0296949
0.0288459
0.0280251
0.0272015
0.0263555
0.0255455
0.0250343
0.0254404
0.0288573
0.0539735
0.0337892
0.0334748
0.0330923
0.0326334
0.0321494
0.0316663
0.0311611
0.0305878
0.0299314
0.0291982
0.0284183
0.0276123
0.0267526
0.025841
0.0249517
0.0242964
0.024376
0.027055
0.0489162
0.0331482
0.0328398
0.0324731
0.0320301
0.0315392
0.0310247
0.0304873
0.0299131
0.0292938
0.0286231
0.0278982
0.0271047
0.0262099
0.0252306
0.0242514
0.0234323
0.0231473
0.0249135
0.0424714
0.0324567
0.0321462
0.031782
0.0313466
0.0308566
0.0303329
0.029786
0.0292172
0.0286217
0.0279865
0.02729
0.0265009
0.0255897
0.0245761
0.0235307
0.0225746
0.0219909
0.0230249
0.0371237
0.0316975
0.0313855
0.0310239
0.0305994
0.0301228
0.0296096
0.029071
0.0285117
0.0279283
0.0273057
0.0266175
0.0258306
0.0249228
0.0239099
0.0228467
0.0218253
0.0210758
0.0216427
0.0332347
0.0308823
0.0305754
0.0302234
0.0298163
0.0293623
0.0288708
0.0283495
0.027802
0.0272245
0.0266033
0.0259154
0.0251352
0.0242489
0.0232707
0.0222455
0.0212562
0.020522
0.0210112
0.0316597
0.0300409
0.0297479
0.0294134
0.0290296
0.0286026
0.0281368
0.0276361
0.0271015
0.0265292
0.0259086
0.0252245
0.0244606
0.0236125
0.0226976
0.0217604
0.0208926
0.0203381
0.0211066
0.0322355
0.0292085
0.0289373
0.028626
0.0282693
0.0278705
0.0274308
0.0269513
0.026431
0.025867
0.025253
0.0245807
0.0238441
0.0230478
0.0222148
0.021397
0.0207034
0.0204178
0.0216525
0.0341168
0.0284151
0.0281711
0.0278869
0.027559
0.0271879
0.0267734
0.0263147
0.0258106
0.0252597
0.0246592
0.0240073
0.0233066
0.0225693
0.0218254
0.0211355
0.0206265
0.0206219
0.0223569
0.0365258
0.0276827
0.0274688
0.0272137
0.0269144
0.0265699
0.0261791
0.0257409
0.0252548
0.0247206
0.0241392
0.0235139
0.0228533
0.0221758
0.0215174
0.0209467
0.0206051
0.0208513
0.0230464
0.0390072
0.0270261
0.0268434
0.0266175
0.0263453
0.0260254
0.0256566
0.0252382
0.0247707
0.0242556
0.0236965
0.0231003
0.0224801
0.0218585
0.0212761
0.0208077
0.0206065
0.0210617
0.023656
0.0413473
0.0264571
0.0263045
0.0261061
0.0258586
0.0255605
0.0252114
0.0248115
0.0243621
0.0238666
0.0233306
0.0227636
0.0221812
0.0216094
0.0210921
0.0207086
0.0206219
0.0212484
0.0241824
0.0434643
0.0259873
0.0258624
0.0256882
0.0254615
0.0251818
0.0248492
0.0244653
0.0240325
0.0235555
0.0230416
0.0225022
0.0219545
0.0214266
0.0209645
0.0206516
0.0206592
0.021428
0.0246534
0.0453588
0.0256314
0.0255302
0.0253754
0.0251649
0.0248988
0.0245786
0.024207
0.0237879
0.0233273
0.0228337
0.0223195
0.0218033
0.0213142
0.0209002
0.0206475
0.0207352
0.0216271
0.0251141
0.0471542
0.0254093
0.0253259
0.0251845
0.0249839
0.0247255
0.0244122
0.024048
0.0236385
0.023191
0.0227149
0.0222237
0.0217365
0.0212829
0.0209117
0.020712
0.0208697
0.0218704
0.0255963
0.0488604
0.0253467
0.0252739
0.025138
0.0249394
0.0246807
0.0243667
0.0240034
0.023598
0.0231593
0.0226978
0.0222274
0.0217674
0.0213472
0.0210159
0.0208641
0.021084
0.022181
0.0261235
0.0504706
0.025476
0.0254047
0.0252645
0.0250574
0.024788
0.0244634
0.0240922
0.0236837
0.0232484
0.0227981
0.0223468
0.0219134
0.0215265
0.0212341
0.021127
0.0214014
0.0225796
0.0267041
0.0519873
0.0258373
0.0257563
0.0255991
0.0253698
0.0250758
0.0247274
0.0243363
0.0239151
0.0234767
0.023034
0.0226013
0.0221965
0.0218458
0.0215947
0.021532
0.0218555
0.0231008
0.0273751
0.0534882
0.0264801
0.0263753
0.0261849
0.0259154
0.0255781
0.0251876
0.0247606
0.024314
0.0238642
0.023426
0.0230139
0.0226437
0.0223377
0.0221365
0.0221241
0.0224964
0.0237989
0.0281993
0.0551074
0.0274655
0.0273194
0.0270748
0.0267415
0.0263356
0.0258782
0.0253931
0.0249041
0.024433
0.0239976
0.0236124
0.0232902
0.0230473
0.0229159
0.0229707
0.0234015
0.0247596
0.0292752
0.0570284
0.0288699
0.0286615
0.0283362
0.0279077
0.0273986
0.0268396
0.0262656
0.0257114
0.025207
0.0247755
0.0244316
0.0241837
0.0240388
0.024016
0.024175
0.0246928
0.0261216
0.0307623
0.0595421
0.030791
0.0304953
0.0300563
0.0294914
0.028832
0.0281227
0.0274163
0.0267652
0.0262135
0.0257922
0.0255175
0.0253907
0.0254054
0.0255609
0.0258947
0.0265626
0.0281106
0.0329265
0.063107
0.0333541
0.0329441
0.0323524
0.0315985
0.0307242
0.0297954
0.0288938
0.0281013
0.0274854
0.0270906
0.0269346
0.0270084
0.0272842
0.027734
0.0283657
0.0293068
0.0310908
0.0362169
0.0685058
0.0367209
0.0361727
0.0353868
0.03438
0.0332046
0.0319572
0.0307684
0.0297709
0.0290714
0.0287357
0.0287833
0.0291847
0.0298776
0.0307981
0.031923
0.0333564
0.0356249
0.0413807
0.0770442
0.0410989
0.0404029
0.0393897
0.0380611
0.036474
0.0347679
0.0331575
0.0318642
0.0310612
0.030847
0.031238
0.0321591
0.0334863
0.0351114
0.0369994
0.0392763
0.0425194
0.0496283
0.0909662
0.0467487
0.0459317
0.0446891
0.0429853
0.0408594
0.0385047
0.0362852
0.0345734
0.0336576
0.0336786
0.0346354
0.0363434
0.0385562
0.0411251
0.0440659
0.0476656
0.0527749
0.0628523
0.114171
0.0539849
0.0531463
0.0517435
0.0496715
0.0468925
0.0436619
0.0406121
0.0383421
0.0373508
0.0378015
0.039649
0.0424589
0.0457368
0.0493382
0.0534671
0.058863
0.0672705
0.0839117
0.154301
0.0631695
0.0625279
0.0611535
0.0588515
0.0553632
0.051085
0.0470724
0.0441702
0.0432625
0.044418
0.0475444
0.0517006
0.0559025
0.0601898
0.0651545
0.072374
0.0857703
0.116726
0.231352
0.0747257
0.0746412
0.0736129
0.0714077
0.0670525
0.0620823
0.0572636
0.0541487
0.053449
0.0554851
0.0602899
0.0657294
0.0700128
0.073904
0.0784775
0.0861538
0.104351
0.163145
0.432531
0.0893861
0.0901413
0.0897818
0.0882213
0.0806975
0.0792974
0.071728
0.0731891
0.0687066
0.0711097
0.0803656
0.086163
0.0886415
0.0903962
0.0924784
0.096696
0.110734
0.192667
1.45101
)
;

boundaryField
{
    leftWall
    {
        type            epsilonWallFunction;
        value           nonuniform List<scalar> 
50
(
0.00292814
0.00597673
0.0107338
0.0155129
0.0200324
0.0242219
0.028211
0.0317865
0.0352598
0.0360989
0.0383839
0.0412818
0.0458464
0.0502058
0.0537631
0.0587974
0.065085
0.0765253
0.0925401
0.0982575
0.0992615
0.0978179
0.0935589
0.0883083
0.0837309
0.0794116
0.0745191
0.0691532
0.0636156
0.0582396
0.0533252
0.0490722
0.0455751
0.0427859
0.0404934
0.0385438
0.036832
0.0352827
0.0338589
0.0325595
0.0314312
0.0305802
0.0302185
0.0307611
0.0330986
0.0393887
0.0554942
0.100603
0.277618
1.56745
)
;
    }
    rightWall
    {
        type            epsilonWallFunction;
        value           nonuniform List<scalar> 
50
(
0.00269335
0.00516314
0.0104038
0.0191601
0.0329389
0.0361207
0.0356154
0.0329739
0.027133
0.0228578
0.0231429
0.0298563
0.0367975
0.0418091
0.0449555
0.0461545
0.048411
0.0535394
0.0493431
0.0530697
0.0539735
0.0489162
0.0424714
0.0371237
0.0332347
0.0316597
0.0322355
0.0341168
0.0365258
0.0390072
0.0413473
0.0434643
0.0453588
0.0471542
0.0488604
0.0504706
0.0519873
0.0534882
0.0551074
0.0570284
0.0595421
0.063107
0.0685058
0.0770442
0.0909662
0.114171
0.154301
0.231352
0.432531
1.45101
)
;
    }
    lowerWall
    {
        type            epsilonWallFunction;
        value           nonuniform List<scalar> 
62
(
0.00292814
0.0155006
0.0274879
0.0386713
0.0491447
0.0589878
0.068196
0.0767412
0.0846165
0.0919071
0.0990032
0.105138
0.110104
0.113699
0.115721
0.115929
0.113952
0.109195
0.100684
0.0869078
0.065911
0.0363759
0.00625884
0.00625884
0.0134594
0.0240596
0.0359204
0.0501019
0.0695544
0.101877
0.169882
0.172846
0.132132
0.133434
0.148164
0.00540853
0.00746706
0.0116164
0.0162778
0.0223356
0.0324084
0.0536852
0.099438
0.00540853
0.01696
0.0270532
0.0359561
0.0442393
0.0505865
0.0568987
0.0619683
0.0654017
0.0691162
0.0634333
0.0577887
0.0590079
0.0519382
0.0430395
0.0354336
0.026912
0.0162059
0.00269335
)
;
    }
    atmosphere
    {
        type            inletOutlet;
        inletValue      uniform 0.1;
        value           nonuniform List<scalar> 
46
(
0.1
0.1
0.115476
0.0696452
0.0473689
0.0362657
0.0309312
0.0289261
0.0291083
0.0309668
0.0343269
0.0392393
0.0460311
0.0554679
0.0679928
0.0740226
0.076961
0.0785708
0.0795874
0.0803226
0.0809187
0.0814445
0.0819592
0.0823997
0.0828326
0.0835734
0.0849396
0.1
0.1
0.1
0.1
0.0806975
0.1
0.071728
0.1
0.0687066
0.0711097
0.1
0.1
0.1
0.1
0.1
0.1
0.1
0.1
0.1
)
;
    }
    defaultFaces
    {
        type            empty;
    }
}


// ************************************************************************* //
