/*--------------------------------*- C++ -*----------------------------------*\
  =========                 |
  \\      /  F ield         | OpenFOAM: The Open Source CFD Toolbox
   \\    /   O peration     | Website:  https://openfoam.org
    \\  /    A nd           | Version:  13
     \\/     M anipulation  |
\*---------------------------------------------------------------------------*/
FoamFile
{
    format      ascii;
    class       volScalarField;
    location    "3";
    object      k;
}
// * * * * * * * * * * * * * * * * * * * * * * * * * * * * * * * * * * * * * //

dimensions      [0 2 -2 0 0 0 0];

internalField   nonuniform List<scalar> 
2268
(
0.000774584
0.00236421
0.0034575
0.00433871
0.00509145
0.00575389
0.00634335
0.00686919
0.00733851
0.00776138
0.00816034
0.00849607
0.00876171
0.00894978
0.00905239
0.00905898
0.00895104
0.00869597
0.00823549
0.00746619
0.00621261
0.00418398
0.00127899
0.00207267
0.00553776
0.00775999
0.00956411
0.0111036
0.0124581
0.0136664
0.0147497
0.0157219
0.0165946
0.0173587
0.0180068
0.0185268
0.0189025
0.0191151
0.0191395
0.0189356
0.0184364
0.0175281
0.016017
0.013582
0.00972929
0.00353835
0.00306556
0.00750609
0.0102495
0.0124693
0.0143633
0.0160241
0.0175003
0.0188196
0.0199999
0.0210535
0.0219741
0.0227538
0.0233773
0.023826
0.0240783
0.024105
0.0238607
0.0232702
0.0222072
0.0204559
0.0176444
0.013116
0.00521486
0.00391756
0.0090374
0.0120991
0.0145759
0.0167019
0.018571
0.0202329
0.0217169
0.0230416
0.0242192
0.0252456
0.0261121
0.0268032
0.0273
0.0275806
0.0276163
0.0273622
0.0267449
0.0256408
0.023835
0.0209295
0.016089
0.00680791
0.00464132
0.0103124
0.013611
0.016279
0.0185881
0.020629
0.0224487
0.024074
0.0255225
0.0268054
0.0279202
0.0288584
0.0296053
0.0301428
0.0304509
0.0305034
0.0302596
0.0296529
0.0285703
0.0268109
0.0239699
0.0190327
0.00848938
0.0052613
0.0113952
0.0148978
0.0177285
0.0201973
0.0223929
0.0243574
0.0261139
0.0276772
0.0290579
0.0302544
0.0312589
0.0320575
0.0326342
0.0329712
0.0330467
0.0328263
0.0322528
0.0312286
0.0295773
0.0269166
0.0221134
0.0105495
0.00581605
0.0123193
0.0160147
0.0189966
0.0216129
0.023953
0.0260551
0.0279372
0.0296104
0.0310854
0.0323606
0.0334289
0.0342782
0.034894
0.0352612
0.0353634
0.0351737
0.0346459
0.0336992
0.0321893
0.0297957
0.0254346
0.0135832
0.00628656
0.0131123
0.0169932
0.0201213
0.0228771
0.0253534
0.0275868
0.0295892
0.0313662
0.0329293
0.0342756
0.0353991
0.0362899
0.0369353
0.0373244
0.0374477
0.037287
0.036807
0.0359441
0.0345881
0.0325096
0.0289308
0.0190848
0.0011616
0.00252857
0.00346466
0.00415949
0.00473213
0.00514856
0.00556592
0.00590073
0.00613642
0.00638511
0.00605707
0.0057009
0.00577715
0.0053094
0.00467935
0.00410697
0.00341884
0.00243966
0.00073766
0.00255906
0.00564972
0.0078195
0.00935499
0.010583
0.0114013
0.0122903
0.0130281
0.0136025
0.0139429
0.0135093
0.0129062
0.0127589
0.011663
0.0103909
0.00917579
0.00777651
0.00578544
0.0020102
0.00344733
0.00777396
0.010706
0.0126277
0.0139608
0.0150159
0.0159971
0.0168167
0.0174578
0.017885
0.0175725
0.0170106
0.0165286
0.0150651
0.0134133
0.011885
0.0102096
0.007885
0.00320339
0.00433458
0.00983524
0.0132692
0.0154474
0.0167525
0.0177555
0.0187377
0.0195623
0.0202112
0.0206475
0.0205466
0.0200939
0.0195791
0.0177285
0.0156874
0.0139415
0.0121906
0.00992312
0.00480485
0.0053835
0.0119443
0.0156405
0.017878
0.0192774
0.0201669
0.0210945
0.0218695
0.0223957
0.0226059
0.0225371
0.0224021
0.0224379
0.0200515
0.0175411
0.015725
0.0139071
0.011663
0.0068959
0.00695065
0.0142274
0.0179972
0.0200602
0.0214188
0.0223627
0.0232717
0.0239557
0.0243153
0.0243316
0.0240834
0.0238635
0.0247647
0.0217591
0.0190954
0.0172183
0.0151269
0.0124138
0.00733277
0.00973316
0.0169741
0.0204573
0.0222251
0.0233939
0.0243254
0.0252311
0.0258284
0.0260938
0.0259961
0.0256257
0.0250827
0.0257293
0.0228311
0.0203678
0.0183403
0.0159648
0.0126752
0.00726534
0.0146017
0.0202064
0.022995
0.0243832
0.0253126
0.0261198
0.026955
0.0274919
0.0276758
0.0274473
0.0269519
0.0261213
0.0260263
0.0236974
0.0214703
0.0192982
0.0166378
0.0126819
0.00690418
0.00676781
0.014125
0.0183006
0.0216557
0.0246073
0.0272632
0.0296621
0.0318077
0.0337002
0.0353487
0.0367525
0.0379148
0.0388318
0.0394946
0.0399004
0.0400503
0.0399376
0.0395419
0.0388237
0.037721
0.0361257
0.0337314
0.0293672
0.00683568
0.014953
0.0195839
0.0232055
0.0263212
0.0290833
0.0315425
0.0337098
0.0356035
0.0372392
0.0386367
0.0398045
0.0407471
0.0414653
0.0419588
0.0422305
0.042276
0.0420802
0.0416175
0.0408526
0.0397316
0.0381387
0.0358559
0.00709238
0.0156889
0.020713
0.0245534
0.0277783
0.0305815
0.0330388
0.0351863
0.0370567
0.0386806
0.0400837
0.0412807
0.0422809
0.0430894
0.0437094
0.0441413
0.0443732
0.0443808
0.0441347
0.043603
0.0427583
0.041581
0.0401123
0.00742255
0.0164403
0.0219006
0.0259558
0.0292667
0.0320801
0.0345171
0.0366488
0.0385058
0.0401295
0.0415568
0.0428072
0.0438848
0.0447889
0.0455284
0.046104
0.0464864
0.0466251
0.0464893
0.0460646
0.0453564
0.044394
0.0432831
0.00794934
0.0177406
0.023392
0.0275464
0.0308756
0.0336639
0.0360797
0.0381979
0.0400513
0.0416831
0.0431393
0.0444398
0.0455852
0.0465703
0.0473945
0.0480501
0.0484945
0.0486765
0.0485791
0.0482048
0.0475699
0.0467348
0.0458168
0.00845019
0.0190759
0.0249347
0.0291762
0.0325333
0.0353272
0.0377339
0.0398319
0.0416732
0.043303
0.044762
0.0460781
0.0472696
0.0483311
0.0492166
0.0498913
0.0503377
0.0505373
0.0504527
0.0500868
0.0494821
0.0487184
0.04791
0.00884053
0.0197307
0.0261283
0.0306463
0.0341514
0.037022
0.0394444
0.0415211
0.0433358
0.0449419
0.0463815
0.0476905
0.0488937
0.0499809
0.0508836
0.0515467
0.0519645
0.052138
0.0520354
0.0516649
0.0510842
0.0503787
0.0496484
0.00939068
0.0207423
0.0274664
0.0322048
0.0358553
0.0387995
0.0412277
0.0432677
0.0450305
0.0465901
0.0479927
0.0492743
0.0504589
0.0515268
0.0524018
0.0530217
0.0533803
0.0534878
0.0533382
0.0529571
0.0524042
0.0517545
0.0510852
0.0100899
0.0220954
0.0291875
0.0340738
0.0378042
0.0407745
0.0431635
0.0451131
0.046779
0.0482644
0.0496073
0.0508419
0.0519888
0.0530182
0.0538312
0.0543595
0.0546145
0.054629
0.0544226
0.0540327
0.0535107
0.0529146
0.0523052
0.0112898
0.0233979
0.0312706
0.0363297
0.0400941
0.0430475
0.0453347
0.0471048
0.0485905
0.0499321
0.0511496
0.0522403
0.0532173
0.0540746
0.0547629
0.0552393
0.0554932
0.0555233
0.0553381
0.0549787
0.0544942
0.0539313
0.0533551
0.0128288
0.0256444
0.0327375
0.0375643
0.0413648
0.0444152
0.0467314
0.0484309
0.0497772
0.0509539
0.0519834
0.0528461
0.0535731
0.0541958
0.0547128
0.0551062
0.0553624
0.0554661
0.0554081
0.0551998
0.0548657
0.05444
0.0539754
0.0133679
0.0267757
0.0334941
0.0380705
0.0415995
0.0444397
0.0466944
0.04845
0.0498515
0.0510227
0.0520248
0.0528588
0.0535575
0.0541501
0.0546411
0.0550212
0.055279
0.0554047
0.0553917
0.0552471
0.0549923
0.0546566
0.0542797
0.0134634
0.02702
0.0335323
0.0379298
0.041292
0.0439939
0.0461816
0.0479523
0.0494117
0.0506394
0.0516822
0.0525533
0.05328
0.0538876
0.0543872
0.0547795
0.0550613
0.0552275
0.0552734
0.0552009
0.0550231
0.0547612
0.0544415
0.0133345
0.0269335
0.0333397
0.0376072
0.0408441
0.0434464
0.0455771
0.0473419
0.0488292
0.0500931
0.0511716
0.0520856
0.0528565
0.0535028
0.0540364
0.0544621
0.0547811
0.054992
0.055092
0.0550811
0.0549665
0.0547615
0.054479
0.0129445
0.0265599
0.032904
0.0370903
0.0402546
0.042812
0.0449256
0.0466906
0.0481849
0.0494604
0.0505586
0.0515047
0.0523151
0.0530032
0.0535783
0.0540455
0.0544073
0.0546638
0.0548135
0.054856
0.0547961
0.0546422
0.0543968
0.0124486
0.0259744
0.0322595
0.0363878
0.0395137
0.0420543
0.0441739
0.0459525
0.0474542
0.0487394
0.0498548
0.0508269
0.0516712
0.0523974
0.0530123
0.0535201
0.0539233
0.0542224
0.0544169
0.0545067
0.054496
0.0543907
0.0541862
0.0120037
0.0252175
0.031417
0.0355043
0.0386166
0.0411546
0.0432835
0.0450809
0.0466051
0.0479141
0.0490545
0.0500547
0.0509305
0.051691
0.0523416
0.0528863
0.0533272
0.0536652
0.0539006
0.0540337
0.0540684
0.0540095
0.0538476
0.0115843
0.0243169
0.0304
0.0344592
0.0375709
0.0401151
0.0422564
0.0440778
0.0456355
0.0469811
0.0481571
0.0491916
0.0501012
0.0508955
0.0515804
0.0521598
0.052636
0.0530105
0.0532839
0.0534572
0.0535342
0.0535186
0.0533984
0.0111077
0.0233212
0.0292578
0.0332858
0.0363992
0.0389543
0.0411141
0.0429643
0.0445612
0.0459502
0.0471695
0.0482449
0.0491931
0.0500243
0.050745
0.0513598
0.0518715
0.0522819
0.0525925
0.0528047
0.052922
0.0529473
0.0528676
0.0105742
0.0222727
0.0280543
0.0320302
0.0351367
0.0377038
0.0398851
0.0417669
0.0434048
0.0448402
0.0461069
0.0472281
0.0482197
0.049092
0.0498524
0.0505057
0.0510553
0.0515037
0.051853
0.0521048
0.0522624
0.0523281
0.052289
0.0100087
0.0212033
0.0268298
0.0307466
0.0338334
0.0364025
0.0386028
0.0405156
0.0421936
0.0436758
0.0449913
0.0461609
0.0471994
0.0481172
0.0489215
0.0496176
0.0502093
0.0506995
0.0510905
0.0513844
0.0515842
0.0516919
0.0516956
0.0094423
0.02015
0.0256214
0.0294728
0.0325333
0.0350984
0.03731
0.0392476
0.0409616
0.0424871
0.0438497
0.045068
0.0461555
0.047122
0.0479743
0.0487177
0.0493561
0.0498924
0.0503292
0.0506687
0.0509138
0.0510662
0.0511156
0.00890649
0.0191485
0.0244642
0.0282434
0.03127
0.0338242
0.0360411
0.0379976
0.0397415
0.0413052
0.0427118
0.0439778
0.045115
0.0461323
0.0470357
0.0478302
0.0485193
0.0491059
0.0495926
0.0499814
0.0502749
0.0504749
0.050573
0.00842625
0.0182275
0.0233869
0.027087
0.030072
0.0326081
0.0348244
0.0367941
0.0385627
0.0401604
0.041608
0.04292
0.044107
0.0451762
0.046133
0.0469815
0.0477246
0.0483649
0.0489046
0.0493456
0.0496901
0.0499398
0.0500881
0.00801733
0.0174053
0.0224082
0.0260236
0.0289605
0.031473
0.0336838
0.0356625
0.0374522
0.0390809
0.0405673
0.0419245
0.0431611
0.0442832
0.0452951
0.0461997
0.0469993
0.0476957
0.0482906
0.0487855
0.0491822
0.0494822
0.0496808
0.00768285
0.0166864
0.021536
0.0250638
0.0279493
0.0304351
0.0326381
0.0346241
0.0364336
0.0380924
0.0396174
0.0410198
0.0423069
0.0434833
0.0445518
0.0455143
0.0463721
0.0471261
0.0477773
0.0483266
0.0487754
0.0491248
0.0493719
0.00740404
0.0160718
0.0207686
0.0242101
0.0270454
0.0295054
0.0317017
0.0336964
0.0355273
0.037218
0.0387836
0.0402335
0.0415733
0.0428062
0.0439336
0.0449559
0.0458734
0.0466859
0.0473936
0.0479968
0.0484962
0.0488928
0.0491847
0.00716342
0.0155426
0.020102
0.023463
0.0262519
0.0286908
0.0308854
0.0328942
0.0347515
0.0364789
0.0380897
0.0395915
0.0409883
0.0422816
0.0434711
0.044556
0.0455349
0.0464067
0.0471705
0.047826
0.0483734
0.0488136
0.0491455
0.00694941
0.0150783
0.019521
0.0228168
0.0255718
0.028
0.0302018
0.0322323
0.0341236
0.0358953
0.0375587
0.0391195
0.0405799
0.0419393
0.043196
0.044347
0.0453897
0.0463217
0.0471413
0.0478473
0.0484397
0.048919
0.049285
0.00675376
0.0146659
0.0190166
0.0222676
0.0250062
0.0274387
0.029661
0.0317252
0.0336617
0.035488
0.037214
0.0388435
0.0403766
0.0418106
0.0431413
0.0443641
0.0454744
0.0464685
0.0473438
0.0480985
0.0487323
0.0492456
0.0496388
0.00657223
0.0143008
0.0185889
0.02182
0.0245636
0.0270185
0.0292769
0.031389
0.0333837
0.0352777
0.0370792
0.0387903
0.0404086
0.0419287
0.0433437
0.0446463
0.0458299
0.0468892
0.0478206
0.0486223
0.0492935
0.0498351
0.0502478
0.00640535
0.0139892
0.0182498
0.0214902
0.0242624
0.0267588
0.0290693
0.0312434
0.0333103
0.0352864
0.037179
0.038988
0.0407081
0.0423301
0.0438434
0.0452371
0.046502
0.0476312
0.0486204
0.0494675
0.0501723
0.0507359
0.0511598
0.0062596
0.0137513
0.0180274
0.0213097
0.0241342
0.0266889
0.0290641
0.0313118
0.0334636
0.035537
0.0375385
0.0394659
0.0413094
0.0430548
0.0446856
0.0461863
0.0475439
0.0487497
0.0497991
0.0506905
0.0514246
0.0520037
0.0524304
0.00614996
0.0136281
0.0179735
0.0213319
0.0242274
0.0268491
0.0292937
0.0316203
0.0338658
0.0360508
0.0381818
0.040253
0.0422487
0.0441465
0.0459216
0.0475509
0.0490166
0.0503082
0.0514213
0.0523561
0.0531153
0.0537033
0.054124
0.0061055
0.0136957
0.0181777
0.0216417
0.0246123
0.0272922
0.0297948
0.0321933
0.0345346
0.0368439
0.0391275
0.041375
0.0435614
0.0456521
0.0476085
0.0493961
0.0509904
0.0523791
0.0535599
0.054537
0.0553169
0.0559074
0.0563145
0.00618184
0.0140947
0.018795
0.0223732
0.0253876
0.0280817
0.0306028
0.0330475
0.0354758
0.0379188
0.0403819
0.0428476
0.0452774
0.0476176
0.0498079
0.0517945
0.0535433
0.055042
0.0562941
0.0573113
0.0581073
0.0586948
0.0590829
0.00649156
0.0150985
0.0200989
0.023735
0.0266846
0.0292851
0.0317416
0.0341797
0.0366724
0.0392541
0.0419275
0.0446653
0.0474111
0.0500827
0.0525833
0.0548248
0.0567594
0.0583798
0.0597033
0.0607558
0.0615624
0.0621434
0.0625119
0.00728264
0.0172658
0.02257
0.0260318
0.0286547
0.0309522
0.0332021
0.0355502
0.0380695
0.0407899
0.0437077
0.0467852
0.0499462
0.0530705
0.0559992
0.0585735
0.0607273
0.0624733
0.0638585
0.0649346
0.0657444
0.0663184
0.0666746
0.00913088
0.0217824
0.0269928
0.0296336
0.0314102
0.0330657
0.0349107
0.0370624
0.0395607
0.042414
0.0456088
0.0491035
0.0528116
0.056575
0.0601298
0.0631454
0.0655425
0.0673942
0.0688096
0.0698829
0.070682
0.0712496
0.0716103
0.0135588
0.0313292
0.0344729
0.0347921
0.0348766
0.0354589
0.0366909
0.0385482
0.0409811
0.0439543
0.0474448
0.0514257
0.05584
0.0605327
0.0650861
0.0686832
0.0713048
0.0731893
0.0745617
0.0755785
0.0763365
0.0768919
0.0772772
0.0269399
0.0516871
0.0460663
0.0411851
0.0385512
0.0377248
0.0382419
0.0397725
0.0421198
0.0451892
0.0489537
0.0534338
0.0586845
0.0647127
0.0710146
0.0752991
0.0780056
0.0797601
0.0809617
0.0818321
0.0824911
0.0830038
0.0834144
0.0851295
0.0878385
0.059899
0.0468952
0.0412535
0.0392023
0.0391797
0.0404793
0.0427631
0.0458882
0.0498311
0.0546746
0.0606602
0.0682423
0.0774402
0.0821909
0.0846693
0.0860928
0.0870051
0.0876513
0.08815
0.088566
0.0889545
0.0193931
0.0162253
0.01637
0.0176453
0.0335428
0.032461
0.0318978
0.0315925
0.0390053
0.0384134
0.0379693
0.0375407
0.0425199
0.042099
0.0417473
0.0414072
0.0452086
0.0448681
0.044563
0.0442567
0.047372
0.0470589
0.0467664
0.0464717
0.0491469
0.0488433
0.048551
0.0482583
0.050612
0.0503206
0.0500373
0.0497551
0.0518651
0.0515875
0.051316
0.0510482
0.052946
0.0526902
0.0524473
0.0522122
0.0536419
0.0534385
0.0532498
0.0530584
0.0539976
0.0538124
0.053629
0.0534387
0.054185
0.0540082
0.0538249
0.0536327
0.0542372
0.0540685
0.0538909
0.0537047
0.0541737
0.0540182
0.0538521
0.0536758
0.0539877
0.0538484
0.053696
0.0535305
0.0536756
0.0535523
0.0534138
0.0532587
0.053252
0.0531434
0.0530178
0.0528735
0.0527462
0.0526515
0.0525385
0.0524057
0.0521934
0.0521128
0.0520132
0.0518932
0.0516276
0.0515624
0.0514777
0.0513724
0.0510777
0.0510295
0.0509613
0.0508725
0.0505673
0.0505376
0.0504874
0.0504165
0.0501162
0.0501059
0.0500746
0.0500222
0.0497427
0.0497521
0.0497396
0.0497058
0.049466
0.0494943
0.0495
0.0494838
0.0493081
0.0493538
0.0493761
0.049376
0.0492943
0.0493552
0.0493918
0.0494051
0.0494544
0.0495277
0.0495755
0.049599
0.0498232
0.0499051
0.0499603
0.0499899
0.0504409
0.0505273
0.0505855
0.0506166
0.0513545
0.0514407
0.051497
0.051524
0.0526192
0.0527002
0.052749
0.0527662
0.0542996
0.0543703
0.0544062
0.0544075
0.0564705
0.0565267
0.0565448
0.056525
0.0592156
0.0592549
0.0592529
0.0592092
0.0626235
0.0626477
0.0626281
0.0625633
0.0667766
0.0667954
0.0667696
0.0666972
0.0717284
0.0717635
0.071759
0.0717116
0.077451
0.0775403
0.0776104
0.077659
0.0836825
0.0838771
0.0841165
0.0844213
0.0892986
0.0896195
0.0901387
0.0910478
0.0227638
0.0251423
0.0267474
0.0275961
0.0281727
0.0287416
0.0293573
0.0297379
0.029728
0.0293068
0.0286079
0.0275322
0.026787
0.0251763
0.0230812
0.0207064
0.0175404
0.0123415
0.00605888
0.031316
0.0312867
0.0315734
0.0317074
0.0318152
0.0319557
0.0321736
0.0321937
0.0318664
0.0312062
0.0303296
0.0293433
0.0287881
0.0271132
0.0248995
0.0221957
0.0180339
0.01169
0.0054025
0.0367849
0.0360741
0.0356914
0.0353266
0.0350289
0.0347885
0.0346478
0.0343496
0.0337776
0.032923
0.0319122
0.0308927
0.0300644
0.0282612
0.0257978
0.0226865
0.018417
0.0125158
0.00545331
0.0407492
0.0398447
0.0391263
0.038453
0.0378285
0.03729
0.0368386
0.0362962
0.0355385
0.0345616
0.0334407
0.0322345
0.0309395
0.0290079
0.0265066
0.0234759
0.0196464
0.0145691
0.00646081
0.0436923
0.0427873
0.0419356
0.0411071
0.0402866
0.0395444
0.0388687
0.0381401
0.0372442
0.0361717
0.0349459
0.0335668
0.0319887
0.030002
0.0275967
0.0247295
0.021156
0.0162952
0.00742525
0.0459546
0.0451051
0.0442281
0.0433301
0.0424272
0.0415975
0.0408102
0.0399438
0.0389187
0.0377434
0.0364184
0.0349249
0.0332159
0.0311952
0.0288172
0.0259898
0.0224572
0.0175198
0.00807978
0.0477647
0.0469836
0.0461329
0.0452256
0.0443084
0.0434522
0.042608
0.0416419
0.0405083
0.0392313
0.0378126
0.0362317
0.034447
0.0323862
0.0299769
0.0271009
0.0234917
0.0183925
0.00847548
0.0492877
0.0485714
0.0477614
0.0468741
0.0459754
0.0451214
0.044237
0.0431929
0.0419638
0.0405868
0.0390771
0.0374166
0.0355616
0.0334467
0.0309856
0.028032
0.0242992
0.0190398
0.0086196
0.0506119
0.0499572
0.0491895
0.0483173
0.0474518
0.0466345
0.045738
0.0446171
0.0432794
0.0417915
0.0401929
0.0384628
0.0365383
0.0343472
0.0318126
0.0287828
0.0249454
0.0195553
0.00889128
0.0518227
0.0512265
0.0504709
0.0495758
0.0487392
0.0480188
0.0471758
0.045964
0.0444764
0.0428484
0.0411707
0.0394086
0.0374405
0.0351556
0.0324724
0.0293377
0.0254169
0.0198925
0.009484
0.0527251
0.0521277
0.0513362
0.0504414
0.0496541
0.0489331
0.0480553
0.0468395
0.0453271
0.043604
0.0418394
0.040102
0.0381818
0.0357823
0.0328755
0.029591
0.0255581
0.0197816
0.0090047
0.0531019
0.0525234
0.0518024
0.0509885
0.050164
0.0493227
0.0483841
0.0472236
0.0457905
0.0440911
0.0422472
0.0403566
0.0382813
0.0358216
0.0329483
0.0296472
0.0256594
0.0201188
0.0094289
0.0532918
0.0527275
0.0520474
0.0512606
0.0504167
0.0495154
0.0484999
0.0472825
0.0458401
0.0441862
0.0423646
0.0403965
0.0382036
0.0356959
0.0327995
0.0294487
0.0254393
0.0199958
0.00953512
0.0533719
0.0528225
0.0521679
0.0513944
0.0505252
0.0495625
0.0484722
0.0472099
0.0457627
0.0441283
0.0423148
0.0403031
0.0380209
0.0354077
0.0324169
0.0289763
0.0248689
0.0193635
0.00894583
0.0533527
0.0528099
0.0521618
0.0513841
0.0504842
0.0494665
0.0483193
0.0470242
0.045571
0.0439462
0.0421284
0.0400719
0.0377019
0.0349771
0.0318706
0.0283036
0.024047
0.0184097
0.00817595
0.0532164
0.0526729
0.0520203
0.0512339
0.0503137
0.0492645
0.0480843
0.0467667
0.0453017
0.0436677
0.0418263
0.039719
0.0372762
0.0344621
0.031246
0.0275443
0.0231247
0.0173341
0.00749522
0.0529542
0.0524105
0.0517548
0.0509658
0.050041
0.0489825
0.0477899
0.0464591
0.0449783
0.0433219
0.0414461
0.039291
0.0367961
0.0339224
0.0306313
0.0268307
0.0222947
0.0164138
0.00697671
0.0525813
0.0520439
0.0513934
0.0506118
0.0496956
0.0486435
0.0474528
0.0461169
0.0446221
0.0429417
0.0410336
0.0388449
0.0363239
0.033429
0.0301137
0.0262829
0.0217241
0.0158697
0.00675893
0.0521297
0.051608
0.0509726
0.050208
0.0493102
0.0482744
0.0470947
0.0457617
0.0442601
0.0425641
0.0406386
0.0384389
0.0359212
0.0330456
0.0297617
0.0259776
0.0214951
0.0157694
0.00683613
0.0516379
0.0511414
0.0505296
0.04979
0.0489171
0.047904
0.0467422
0.0454202
0.0439224
0.0422269
0.0403035
0.0381171
0.035632
0.0328108
0.0296041
0.0259249
0.0215814
0.016021
0.00709238
0.0511417
0.0506779
0.0500967
0.0493878
0.0485445
0.0475587
0.0464204
0.0451177
0.0436362
0.0419565
0.0400543
0.037903
0.0354727
0.0327298
0.0296271
0.0260787
0.021889
0.0164716
0.00741686
0.0506701
0.0502439
0.0496983
0.0490238
0.0482134
0.0472582
0.0461482
0.0448722
0.0434169
0.0417659
0.0399001
0.0377984
0.0354359
0.0327817
0.0297893
0.02637
0.0223164
0.0169979
0.00774614
0.0502444
0.0498589
0.0493514
0.0487133
0.0479372
0.0470148
0.0459364
0.044692
0.0432699
0.0416564
0.0398359
0.0377911
0.0355002
0.0329337
0.0300436
0.0267358
0.0227885
0.0175279
0.00805209
0.0498814
0.0495372
0.0490681
0.0484662
0.0477243
0.046835
0.0457898
0.0445793
0.0431938
0.0416219
0.0398503
0.0378633
0.0356411
0.033154
0.0303512
0.0271322
0.0232611
0.0180267
0.00832525
0.0495956
0.0492913
0.0488587
0.0482908
0.0475811
0.0467233
0.0457102
0.0445338
0.0431853
0.0416549
0.0399313
0.0379993
0.0358392
0.0334197
0.0306872
0.0275346
0.0237139
0.0184825
0.00856715
0.0494025
0.0491342
0.0487342
0.0481961
0.0475149
0.046685
0.0457008
0.0445556
0.043242
0.0417511
0.0400717
0.0381889
0.0360823
0.0337187
0.0310404
0.0279346
0.024143
0.0188977
0.00879175
0.0493199
0.049082
0.0487085
0.0481944
0.0475356
0.0467282
0.0457678
0.0446492
0.0433661
0.04191
0.0402699
0.0384303
0.0363688
0.0340496
0.0314113
0.0283354
0.024555
0.0192807
0.00900232
0.0493698
0.0491545
0.0487996
0.0483014
0.0476572
0.0468647
0.0459213
0.0448231
0.0435647
0.0421382
0.0405319
0.0387291
0.0367048
0.0344201
0.0318092
0.0287483
0.0249627
0.0196439
0.00920114
0.0495782
0.0493762
0.04903
0.0485374
0.0478977
0.0471104
0.046175
0.0450895
0.0438494
0.042447
0.0408698
0.0390987
0.0371058
0.0348476
0.0322534
0.0291936
0.0253859
0.020005
0.0093867
0.0499768
0.0497766
0.0494268
0.0489271
0.048279
0.0474847
0.0465465
0.0454644
0.0442357
0.0428526
0.0413012
0.0395597
0.0375951
0.0353586
0.0327726
0.0297007
0.0258527
0.0203874
0.00956897
0.0506025
0.0503908
0.0500227
0.0495002
0.0488276
0.0480109
0.0470562
0.0459669
0.0447423
0.0433751
0.0418498
0.0401399
0.0382063
0.0359914
0.0334087
0.0303126
0.0264035
0.0208242
0.00976437
0.0514995
0.0512609
0.0508569
0.0502921
0.0495747
0.0487161
0.0477277
0.0466185
0.0453912
0.0440397
0.0425458
0.0408775
0.0389858
0.0368011
0.0342233
0.0310932
0.0270986
0.0213639
0.00999447
0.0527208
0.052438
0.0519773
0.0513463
0.0505584
0.0496324
0.0485885
0.047444
0.046208
0.0448765
0.0434287
0.0418239
0.0399994
0.0378676
0.0353074
0.032139
0.0280305
0.0220812
0.0102928
0.0543306
0.053985
0.0534439
0.0527176
0.0518263
0.0507993
0.0496708
0.0484721
0.0472227
0.0459233
0.04455
0.0430499
0.04134
0.0393058
0.036795
0.0335947
0.0293408
0.0230933
0.0107096
0.0564071
0.0559809
0.055334
0.0544783
0.0534417
0.0522689
0.0510164
0.0497385
0.0484733
0.04723
0.0459806
0.0446545
0.0431388
0.0412797
0.0388792
0.0356735
0.031244
0.0245822
0.0113266
0.0590452
0.0585259
0.0577502
0.056728
0.0554941
0.0541154
0.0526843
0.0512942
0.0500142
0.0488687
0.0478236
0.0467802
0.0455805
0.0440166
0.0418276
0.0386756
0.0340517
0.0268229
0.0122683
0.0623581
0.0617471
0.0608307
0.0596081
0.0581171
0.0564542
0.0547705
0.0532247
0.0519383
0.0509588
0.0502415
0.0496383
0.0489225
0.0478163
0.0459839
0.0429916
0.0381895
0.0302137
0.0137275
0.0664751
0.065803
0.0647608
0.063323
0.0615162
0.0594745
0.0574466
0.0556941
0.054426
0.0537194
0.053507
0.0535498
0.0535118
0.0530411
0.0517363
0.0490674
0.0441869
0.0353109
0.0159949
0.0715346
0.0708825
0.0697799
0.0681584
0.0659995
0.0634883
0.0610315
0.0590319
0.0578452
0.0575659
0.0580847
0.0589959
0.0597865
0.0600641
0.0594249
0.057298
0.0526196
0.0428953
0.0195769
0.0776707
0.0771939
0.07617
0.0744777
0.0719704
0.0689735
0.0660878
0.0638744
0.0628953
0.0632226
0.0647048
0.0666392
0.0682194
0.0691538
0.0691821
0.0678346
0.0639599
0.0541382
0.0257157
0.085017
0.0849478
0.0842093
0.0826569
0.0797038
0.0765855
0.0733958
0.071366
0.0705755
0.0715772
0.0742907
0.0772133
0.0791507
0.080307
0.0807554
0.0803153
0.0781844
0.0707976
0.0393667
0.0938634
0.0943537
0.0940952
0.0930204
0.0881203
0.0876947
0.0827037
0.0840609
0.0805422
0.0818423
0.0878633
0.0912274
0.0924936
0.0931105
0.0934503
0.093621
0.0936802
0.0934606
0.0868768
)
;

boundaryField
{
    leftWall
    {
        type            kqRWallFunction;
        value           nonuniform List<scalar> 
50
(
0.000774584
0.00207267
0.00306556
0.00391756
0.00464132
0.0052613
0.00581605
0.00628656
0.00676781
0.00683568
0.00709238
0.00742255
0.00794934
0.00845019
0.00884053
0.00939068
0.0100899
0.0112898
0.0128288
0.0133679
0.0134634
0.0133345
0.0129445
0.0124486
0.0120037
0.0115843
0.0111077
0.0105742
0.0100087
0.0094423
0.00890649
0.00842625
0.00801733
0.00768285
0.00740404
0.00716342
0.00694941
0.00675376
0.00657223
0.00640535
0.0062596
0.00614996
0.0061055
0.00618184
0.00649156
0.00728264
0.00913088
0.0135588
0.0269399
0.0851295
)
;
    }
    rightWall
    {
        type            kqRWallFunction;
        value           nonuniform List<scalar> 
50
(
0.00073766
0.0020102
0.00320339
0.00480485
0.0068959
0.00733277
0.00726534
0.00690418
0.00605888
0.0054025
0.00545331
0.00646081
0.00742525
0.00807978
0.00847548
0.0086196
0.00889128
0.009484
0.0090047
0.0094289
0.00953512
0.00894583
0.00817595
0.00749522
0.00697671
0.00675893
0.00683613
0.00709238
0.00741686
0.00774614
0.00805209
0.00832525
0.00856715
0.00879175
0.00900232
0.00920114
0.0093867
0.00956897
0.00976437
0.00999447
0.0102928
0.0107096
0.0113266
0.0122683
0.0137275
0.0159949
0.0195769
0.0257157
0.0393667
0.0868768
)
;
    }
    lowerWall
    {
        type            kqRWallFunction;
        value           nonuniform List<scalar> 
62
(
0.000774584
0.00236421
0.0034575
0.00433871
0.00509145
0.00575389
0.00634335
0.00686919
0.00733851
0.00776138
0.00816034
0.00849607
0.00876171
0.00894978
0.00905239
0.00905898
0.00895104
0.00869597
0.00823549
0.00746619
0.00621261
0.00418398
0.00127899
0.00127899
0.00353835
0.00521486
0.00680791
0.00848938
0.0105495
0.0135832
0.0190848
0.0193931
0.0162253
0.01637
0.0176453
0.0011616
0.00255906
0.00344733
0.00433458
0.0053835
0.00695065
0.00973316
0.0146017
0.0011616
0.00252857
0.00346466
0.00415949
0.00473213
0.00514856
0.00556592
0.00590073
0.00613642
0.00638511
0.00605707
0.0057009
0.00577715
0.0053094
0.00467935
0.00410697
0.00341884
0.00243966
0.00073766
)
;
    }
    atmosphere
    {
        type            inletOutlet;
        inletValue      uniform 0.1;
        value           nonuniform List<scalar> 
46
(
0.1
0.1
0.059899
0.0468952
0.0412535
0.0392023
0.0391797
0.0404793
0.0427631
0.0458882
0.0498311
0.0546746
0.0606602
0.0682423
0.0774402
0.0821909
0.0846693
0.0860928
0.0870051
0.0876513
0.08815
0.088566
0.0889545
0.0892986
0.0896195
0.0901387
0.0910478
0.1
0.1
0.1
0.1
0.0881203
0.1
0.0827037
0.1
0.0805422
0.0818423
0.1
0.1
0.1
0.1
0.1
0.1
0.1
0.1
0.1
)
;
    }
    defaultFaces
    {
        type            empty;
    }
}


// ************************************************************************* //
