/*--------------------------------*- C++ -*----------------------------------*\
  =========                 |
  \\      /  F ield         | OpenFOAM: The Open Source CFD Toolbox
   \\    /   O peration     | Website:  https://openfoam.org
    \\  /    A nd           | Version:  13
     \\/     M anipulation  |
\*---------------------------------------------------------------------------*/
FoamFile
{
    format      ascii;
    class       volScalarField;
    location    "3";
    object      nut;
}
// * * * * * * * * * * * * * * * * * * * * * * * * * * * * * * * * * * * * * //

dimensions      [0 2 -1 0 0 0 0];

internalField   nonuniform List<scalar> 
2268
(
1.84411e-05
3.24538e-05
3.91404e-05
4.38102e-05
4.74732e-05
5.0513e-05
5.31033e-05
5.53382e-05
5.728e-05
5.89891e-05
6.05354e-05
6.17902e-05
6.27506e-05
6.34031e-05
6.37321e-05
6.37103e-05
6.32799e-05
6.2327e-05
6.06264e-05
5.77274e-05
5.27028e-05
4.33119e-05
2.35226e-05
6.46901e-05
0.000251386
0.000321057
0.000371567
0.000415176
0.000455086
0.000492165
0.000526496
0.000557928
0.000586
0.000607651
0.000625411
0.000639495
0.000649683
0.00065568
0.000657043
0.000652927
0.000641646
0.000619763
0.000580243
0.000508428
0.000371976
8.37176e-05
7.87969e-05
0.00044967
0.000616937
0.000729998
0.000825491
0.000912347
0.000992963
0.00106767
0.00113611
0.00119728
0.00124785
0.00128972
0.00132284
0.00134658
0.00136009
0.00136202
0.00134981
0.00131848
0.00125824
0.00115007
0.000958554
0.000624137
0.000101728
8.90393e-05
0.000599984
0.000869652
0.0010471
0.00119324
0.00132416
0.00144448
0.00155524
0.00165621
0.00174634
0.00182288
0.0018866
0.00193696
0.0019728
0.0019925
0.00199345
0.00197087
0.00191584
0.00181153
0.00162711
0.0013109
0.000796529
0.000116126
9.67816e-05
0.000713243
0.00108022
0.00132068
0.00151478
0.00168591
0.00184137
0.00198322
0.00211173
0.00222615
0.00232436
0.00240635
0.00247108
0.0025169
0.00254137
0.00254057
0.00250756
0.00242973
0.00228408
0.00202992
0.00160266
0.000933677
0.000129461
0.000102854
0.000798044
0.00125279
0.00155325
0.00179245
0.00200034
0.00218699
0.00235579
0.00250774
0.00264266
0.00275898
0.00285618
0.00293291
0.00298706
0.00301553
0.00301327
0.00297158
0.002875
0.00269599
0.00238643
0.00186926
0.00106346
0.000144007
0.000107915
0.000860229
0.00139124
0.00174767
0.00202922
0.00227102
0.0024858
0.00267839
0.00285068
0.00300336
0.0031352
0.00324542
0.00333248
0.003394
0.00342635
0.00342377
0.00337634
0.00326689
0.00306539
0.00271945
0.00214043
0.00121436
0.000162993
0.000111899
0.000904301
0.00149905
0.00190685
0.00222822
0.00250169
0.00274236
0.00295645
0.0031469
0.00331547
0.0034611
0.00358282
0.00367915
0.00374753
0.00378411
0.00378273
0.00373294
0.00361697
0.00340447
0.0030432
0.0024407
0.00143566
0.000192963
2.24532e-05
3.39287e-05
3.99342e-05
4.33061e-05
4.55563e-05
4.71606e-05
4.9002e-05
5.05691e-05
5.18183e-05
5.30884e-05
5.20535e-05
5.06158e-05
5.09049e-05
4.8848e-05
4.57873e-05
4.28419e-05
3.90889e-05
3.30543e-05
1.81828e-05
7.8932e-05
0.000248964
0.000346654
0.000388698
0.000407067
0.000405592
0.000430466
0.000457255
0.000487395
0.00051368
0.000512758
0.00049512
0.000509114
0.000483821
0.000451697
0.000414945
0.000366183
0.000281185
7.04383e-05
9.20736e-05
0.00041388
0.000632558
0.000740827
0.000786788
0.000814495
0.000861732
0.000912763
0.000962143
0.00100528
0.00101623
0.00100607
0.00100371
0.000947131
0.000875607
0.00079047
0.000670831
0.000468595
8.87709e-05
0.000103882
0.000556303
0.00088012
0.00105579
0.00113902
0.0011917
0.00125996
0.00132849
0.00138734
0.00142502
0.00143993
0.001435
0.00141636
0.00133003
0.00122284
0.00109145
0.000904162
0.000604467
0.000108444
0.000116781
0.000687754
0.00110837
0.00134205
0.00146804
0.00154054
0.00162759
0.00170851
0.00176992
0.00179403
0.00179762
0.00178423
0.00175169
0.00163891
0.00150637
0.00133617
0.00108877
0.000706994
0.000129932
0.000134164
0.000806622
0.00132975
0.00161043
0.00177108
0.00186597
0.00196889
0.00205765
0.00211723
0.002131
0.00211563
0.00207636
0.0020201
0.00188867
0.00174528
0.00153843
0.00123268
0.000774055
0.000133974
0.000158817
0.000942549
0.00155951
0.00187422
0.00205621
0.00217141
0.00228395
0.00237519
0.00243082
0.00243609
0.00240499
0.00233611
0.00223225
0.00209908
0.0019479
0.00170331
0.00134034
0.000807252
0.000133388
0.000192974
0.00113747
0.0018125
0.00214195
0.00233176
0.0024589
0.00257438
0.00266299
0.00271174
0.0027084
0.00266357
0.0025694
0.00242099
0.00228981
0.00212224
0.00183918
0.00141661
0.000808255
0.000130106
0.000116912
0.000951435
0.00162512
0.00210621
0.0024868
0.0028076
0.0030865
0.00333192
0.00354836
0.00373868
0.00390208
0.00403871
0.00414744
0.00422554
0.00426916
0.00427193
0.00422314
0.00410531
0.00389015
0.00353285
0.00296685
0.00212088
0.00104609
0.000116496
0.000960932
0.00169826
0.00225639
0.00270706
0.00308716
0.00341512
0.00370091
0.00395102
0.00416762
0.00435332
0.00450914
0.00463462
0.0047277
0.00478471
0.00479966
0.00476274
0.00465903
0.00446668
0.00415582
0.00369125
0.00304934
0.00226979
0.000117945
0.000931561
0.0017083
0.00233027
0.00284314
0.00327791
0.00365249
0.00397765
0.00426044
0.00450486
0.00471457
0.00489147
0.00503577
0.00514587
0.00521847
0.00524838
0.00522726
0.00514347
0.00498207
0.00472635
0.00436296
0.00389633
0.00337617
0.000120113
0.000893593
0.00170042
0.00237161
0.00293444
0.00341574
0.00383237
0.0041948
0.00450912
0.00478112
0.00501523
0.0052139
0.00537771
0.00550529
0.00559355
0.00563825
0.00563294
0.00556938
0.00543875
0.0052343
0.00495598
0.00461826
0.00426659
0.000124051
0.000921026
0.00172514
0.00241744
0.00301305
0.00353035
0.00398256
0.00437738
0.00472044
0.00501768
0.00527437
0.00549323
0.00567511
0.00581883
0.00592141
0.00597939
0.00598837
0.00594377
0.00584176
0.00568145
0.00546947
0.00522316
0.00497755
0.000128003
0.000959133
0.00176344
0.00247244
0.00309565
0.0036434
0.00412431
0.00454471
0.00491109
0.00522945
0.0055048
0.00574037
0.00593747
0.00609519
0.0062104
0.00628008
0.00630197
0.00627445
0.00619639
0.00607179
0.00591006
0.00572736
0.00554859
0.000130832
0.000932378
0.00177925
0.0025296
0.00318768
0.00376422
0.00426829
0.00470812
0.00509197
0.00542623
0.00571596
0.00596449
0.00617328
0.00634147
0.00646598
0.00654429
0.00657603
0.0065621
0.00650436
0.00640903
0.00628584
0.00614827
0.00601332
0.000134983
0.000951211
0.00183126
0.00261693
0.00330473
0.00390359
0.00442396
0.00487664
0.00527161
0.00561628
0.00591534
0.0061718
0.00638725
0.00656104
0.00669074
0.00677493
0.00681452
0.00681202
0.00677157
0.00670025
0.00660704
0.0065024
0.00639761
0.000140777
0.00100444
0.00193433
0.00275324
0.00346275
0.00407459
0.00460199
0.00505866
0.0054571
0.00580561
0.00610776
0.0063664
0.00658321
0.00675799
0.00688915
0.00697642
0.00702209
0.00702977
0.0070045
0.00695327
0.00688375
0.00680378
0.00672082
0.000149904
0.00103439
0.00208176
0.00295041
0.00367577
0.00429
0.00481343
0.00526348
0.00565541
0.00599816
0.00629477
0.00654735
0.0067579
0.00692767
0.00705712
0.0071473
0.00720032
0.00721922
0.00720848
0.00717448
0.00712374
0.00706233
0.00699554
0.00016006
0.00124614
0.0023259
0.00320143
0.00392662
0.00453467
0.00504776
0.00548405
0.00585981
0.00618675
0.00646868
0.0067075
0.00690591
0.00706648
0.00719122
0.00728198
0.00734084
0.00737038
0.00737417
0.00735688
0.00732344
0.0072785
0.00722597
0.000163683
0.001346
0.00247952
0.00337983
0.00411155
0.00471851
0.00522864
0.00566098
0.00602983
0.00634593
0.00661705
0.00684654
0.00703782
0.00719387
0.00731702
0.00740923
0.00747252
0.00750939
0.00752303
0.00751733
0.00749632
0.00746354
0.00742155
0.000164351
0.00138273
0.00255321
0.0034784
0.00422517
0.00484148
0.00535758
0.00579303
0.00616174
0.00647417
0.00673995
0.00696442
0.0071518
0.00730555
0.00742842
0.00752272
0.00759061
0.00763441
0.00765686
0.00766103
0.00765002
0.00762644
0.00759198
0.000163598
0.00139438
0.0025828
0.00352585
0.00428777
0.00491681
0.00544299
0.00588566
0.00625873
0.00657276
0.00683797
0.0070614
0.00724812
0.00740212
0.00752655
0.00762401
0.00769677
0.00774708
0.00777724
0.00778969
0.00778681
0.00777048
0.00774161
0.000161186
0.00139304
0.00258665
0.00354077
0.00431487
0.00495573
0.00549238
0.00594357
0.00632298
0.00664168
0.00690991
0.00713565
0.00732464
0.0074813
0.00760914
0.00771096
0.00778916
0.00784589
0.00788318
0.00790301
0.00790725
0.00789726
0.00787329
0.000157936
0.00138241
0.00257482
0.00353458
0.00431711
0.00496678
0.00551191
0.00597086
0.00635706
0.00668209
0.00695582
0.00718648
0.00738018
0.00754163
0.00767456
0.00778196
0.00786629
0.00792966
0.00797394
0.00800078
0.00801169
0.00800767
0.00798853
0.000154877
0.00136394
0.00255112
0.0035123
0.00429963
0.00495506
0.00550619
0.00597141
0.00636437
0.00669649
0.00697725
0.00721466
0.00741492
0.00758286
0.00772234
0.00783646
0.0079277
0.00799816
0.00804956
0.00808339
0.00810086
0.00810274
0.00808852
0.000152089
0.00133992
0.00251739
0.00347636
0.00426507
0.00492357
0.00547884
0.00594936
0.00634883
0.00668835
0.00697701
0.00722237
0.00743051
0.00760626
0.00775349
0.0078753
0.00797421
0.00805225
0.00811108
0.008152
0.00817609
0.0081839
0.00817476
0.000149013
0.00131239
0.00247552
0.00342849
0.00421553
0.00487504
0.00543327
0.00590853
0.00631437
0.00666148
0.00695852
0.00721262
0.00742959
0.00761411
0.00777
0.00790031
0.00800752
0.00809361
0.00816015
0.00820835
0.00823914
0.00825296
0.00824907
0.000145521
0.00128298
0.0024275
0.00337053
0.00415342
0.00481245
0.00537292
0.00585267
0.00626486
0.00661974
0.00692552
0.00718888
0.00741531
0.0076093
0.00777451
0.0079139
0.00802989
0.00812439
0.00819889
0.00825453
0.00829213
0.00831205
0.00831356
0.00014172
0.00125228
0.00237509
0.00330518
0.00408172
0.00473916
0.00530147
0.00578563
0.00620426
0.00656709
0.00688184
0.0071548
0.00739111
0.00759501
0.00776997
0.00791883
0.0080439
0.00814703
0.00822964
0.00829281
0.00833728
0.00836339
0.00837044
0.000137778
0.00122063
0.00231969
0.00323509
0.00400402
0.00465908
0.00522288
0.00571142
0.00613657
0.00650746
0.00683135
0.00711409
0.00736049
0.00757451
0.00775942
0.00791792
0.0080522
0.00816402
0.00825477
0.00832544
0.00837677
0.00840908
0.00842176
0.000133882
0.00118835
0.00226281
0.00316294
0.00392382
0.00457618
0.00514128
0.00563412
0.00606577
0.00644476
0.0067778
0.00707033
0.00732682
0.00755096
0.0077458
0.00791387
0.00805727
0.00817767
0.0082764
0.00835444
0.00841249
0.00845089
0.00846918
0.000130219
0.00115609
0.00220635
0.00309158
0.0038446
0.00449429
0.00506063
0.00555768
0.00599574
0.00638268
0.00672472
0.00702686
0.00729323
0.00752723
0.00773171
0.00790905
0.00806123
0.00818987
0.00829623
0.00838131
0.00844579
0.00849005
0.00851377
0.000126933
0.00112486
0.00215252
0.00302394
0.00376965
0.00441691
0.00498454
0.0054857
0.00592996
0.00632459
0.00667528
0.00698661
0.00726237
0.0075057
0.00771926
0.00790527
0.00806563
0.00820189
0.00831532
0.00840688
0.00847731
0.00852703
0.00855588
0.000124161
0.00109577
0.00210347
0.00296259
0.00370184
0.00434708
0.0049161
0.00542125
0.00587142
0.00627329
0.00663205
0.00695189
0.00723626
0.00748808
0.00770982
0.00790359
0.00807122
0.00821422
0.00833388
0.00843118
0.00850688
0.00856147
0.00859498
0.000121842
0.00107164
0.00206097
0.00290942
0.00364335
0.00428711
0.00485767
0.00536667
0.00582235
0.00623083
0.00659684
0.00692419
0.00721607
0.00747517
0.00770385
0.00790413
0.00807781
0.0082264
0.0083512
0.00845325
0.00853338
0.00859215
0.00862975
0.00011982
0.00105227
0.00202691
0.00286625
0.00359558
0.00423837
0.00481066
0.0053234
0.00578407
0.00619831
0.00657045
0.006904
0.0072019
0.00746672
0.00770074
0.00790597
0.0080842
0.00823698
0.00836565
0.00847133
0.00855493
0.0086171
0.00865816
0.000118008
0.00103645
0.00200014
0.00283314
0.00355954
0.0042021
0.00477617
0.00529207
0.00575687
0.00617571
0.00655253
0.0068906
0.00719269
0.00746134
0.0076988
0.00790715
0.00808822
0.00824366
0.00837487
0.00848304
0.00856913
0.0086339
0.00867775
0.000116351
0.00102347
0.00197975
0.00280904
0.00353422
0.00417738
0.00475338
0.00527204
0.00573999
0.00616199
0.00654172
0.00688227
0.00718641
0.00745671
0.00769554
0.00790506
0.00808725
0.00824382
0.00837625
0.00848578
0.00857343
0.00864001
0.00868602
0.000114814
0.00101299
0.00196501
0.00279283
0.00351805
0.00416235
0.00474023
0.00526108
0.00573111
0.00615474
0.00653546
0.00687636
0.00718031
0.00745006
0.00768817
0.00789701
0.00807868
0.00823498
0.00836745
0.00847735
0.00856573
0.00863345
0.00868105
0.00011341
0.00100505
0.0019554
0.00278294
0.00350856
0.00415395
0.00473339
0.0052558
0.00572688
0.00615069
0.00653062
0.00686984
0.00717151
0.00743868
0.00767426
0.00788084
0.00806068
0.00821562
0.00834721
0.00845671
0.00854517
0.00861344
0.00866212
0.000112195
0.0010001
0.0019501
0.00277676
0.00350182
0.00414766
0.00472832
0.00525196
0.00572349
0.00614649
0.00652424
0.00686017
0.0071579
0.00742098
0.00765272
0.007856
0.00803316
0.00818607
0.00831622
0.00842481
0.00851286
0.00858119
0.00863043
0.000111313
0.000998711
0.00194715
0.00276962
0.00349179
0.00413739
0.00471966
0.0052452
0.00571757
0.00613961
0.00651456
0.00684631
0.00713915
0.00739734
0.0076247
0.00782433
0.00799862
0.00814932
0.0082778
0.00838518
0.0084724
0.0085403
0.00858954
0.000111023
0.00100101
0.00194213
0.00275406
0.00347055
0.00411631
0.00470229
0.00523213
0.0057072
0.00612933
0.00650182
0.00682935
0.00711725
0.00737072
0.00759409
0.00779061
0.00796248
0.00811124
0.00823808
0.00834402
0.00843
0.00849688
0.00854541
0.000111809
0.00100598
0.00192797
0.0027212
0.00343034
0.00407892
0.00467306
0.00521161
0.00569276
0.00611713
0.00648839
0.00681254
0.00709645
0.00734647
0.00756742
0.00776234
0.00793294
0.00808035
0.0082056
0.00830976
0.0083939
0.00845902
0.00850601
0.000114586
0.00101233
0.00189952
0.0026668
0.00336863
0.00402431
0.00463251
0.00518536
0.00567683
0.00610619
0.00647802
0.00680036
0.00708229
0.00733155
0.0075531
0.00774911
0.00792019
0.0080669
0.00819036
0.008292
0.00837334
0.00843574
0.00848033
0.000121185
0.0010254
0.00186643
0.00260168
0.00329409
0.00395878
0.00458554
0.00515754
0.00566312
0.00609999
0.00647423
0.00679694
0.0070802
0.00733331
0.0075605
0.00776172
0.00793544
0.00808174
0.00820243
0.00830004
0.00837702
0.00843546
0.00847685
0.000135213
0.00107469
0.00186715
0.0025572
0.00322757
0.00389507
0.00453985
0.00513292
0.00565461
0.00610042
0.00647858
0.00680433
0.00709387
0.00735824
0.00759925
0.00781151
0.00798986
0.0081348
0.00825035
0.00834121
0.00841144
0.00846425
0.00850174
0.000164465
0.00124814
0.00196843
0.00257383
0.0031928
0.0038468
0.00450279
0.00511473
0.00565186
0.00610653
0.00648943
0.00682115
0.00712354
0.00741038
0.00767841
0.00790917
0.00809227
0.00823226
0.00833816
0.00841815
0.00847836
0.00852336
0.00855612
0.000235282
0.00177126
0.00225861
0.00267786
0.00320057
0.00382104
0.0044783
0.00510355
0.00565278
0.00611458
0.00650207
0.00684171
0.00716294
0.00748593
0.00780168
0.00805735
0.00823993
0.00836724
0.00845703
0.0085215
0.00856845
0.00860343
0.00863044
0.00041611
0.00333025
0.00279634
0.00284189
0.00323348
0.0038139
0.00446651
0.00509821
0.00565413
0.00611995
0.00651041
0.00685633
0.00719445
0.0075563
0.00793802
0.00821345
0.00838347
0.00849014
0.00856027
0.00860839
0.00864248
0.00866791
0.00868921
0.000195828
0.000179317
0.000180748
0.000189128
0.00168297
0.00157946
0.0015516
0.00161306
0.00305599
0.0029407
0.00290496
0.00293649
0.00406493
0.003977
0.00393439
0.00393323
0.00483609
0.00476805
0.00472455
0.00470339
0.00544159
0.00538557
0.00534305
0.00531286
0.00592776
0.00587977
0.0058391
0.00580525
0.00632681
0.00628486
0.00624663
0.00621188
0.00666112
0.006624
0.00658826
0.00655381
0.00694433
0.00691131
0.0068783
0.00684517
0.00718268
0.00715364
0.00712347
0.00709206
0.00738412
0.00735798
0.00732977
0.00729954
0.00755888
0.00753504
0.00750866
0.00747979
0.00771179
0.00768987
0.00766521
0.00763782
0.00784634
0.00782623
0.00780322
0.00777726
0.00796444
0.00794609
0.00792467
0.00790005
0.00806738
0.00805078
0.00803091
0.00800757
0.00815664
0.00814179
0.00812345
0.0081014
0.00823409
0.00822101
0.00820423
0.00818353
0.00830184
0.00829059
0.00827545
0.00825618
0.0083621
0.00835278
0.00833937
0.00832167
0.00841692
0.00840961
0.00839804
0.00838204
0.00846791
0.00846264
0.00845298
0.00843881
0.00851601
0.00851281
0.00850512
0.00849284
0.00856149
0.00856033
0.00855458
0.00854423
0.00860376
0.00860453
0.00860068
0.00859219
0.00864142
0.008644
0.00864192
0.00863522
0.00867239
0.0086766
0.00867617
0.00867114
0.00869419
0.00869986
0.00870094
0.00869746
0.00870435
0.00871131
0.00871375
0.0087117
0.00870095
0.00870904
0.00871273
0.00871202
0.00868329
0.00869236
0.00869715
0.00869767
0.00865253
0.00866237
0.00866808
0.00866966
0.00861211
0.00862242
0.00862877
0.00863113
0.00856786
0.00857827
0.00858485
0.00858762
0.00852768
0.00853774
0.00854409
0.00854677
0.00850062
0.00850994
0.00851568
0.00851785
0.00849553
0.00850401
0.00850906
0.00851066
0.00851917
0.00852725
0.00853222
0.00853397
0.00857338
0.00858231
0.008589
0.00859319
0.00864902
0.00866095
0.00867318
0.00868567
0.00870977
0.00872662
0.00874978
0.00878357
0.000837453
0.00166369
0.00224282
0.00256186
0.00275179
0.00288633
0.00299772
0.00307477
0.00311081
0.00309413
0.0030292
0.00290574
0.00272156
0.00257291
0.00235874
0.00201036
0.00148972
0.000754227
0.000121767
0.00203008
0.00253705
0.00291993
0.00315978
0.00330928
0.00341246
0.00349325
0.00354367
0.00355612
0.00351771
0.00342736
0.00327961
0.00308382
0.00288324
0.00259734
0.00215474
0.00149856
0.000675795
0.00011492
0.003099
0.00336676
0.00359076
0.00374543
0.00384118
0.00389951
0.00394189
0.00395961
0.00394354
0.00387966
0.00376515
0.00359815
0.00338486
0.00312549
0.00276889
0.00226477
0.00159006
0.000765988
0.00011565
0.00398
0.00409893
0.00421096
0.00429121
0.00433442
0.00435014
0.0043527
0.00433647
0.00428985
0.00419965
0.00406126
0.00387165
0.00362886
0.0033221
0.00292192
0.00240475
0.00175305
0.000952206
0.000125829
0.00469514
0.00472645
0.00476317
0.00478519
0.00478418
0.00476366
0.0047302
0.00468124
0.00460491
0.00448843
0.00432587
0.004112
0.00384138
0.00350278
0.00307867
0.00255253
0.00190009
0.00106821
0.000134848
0.00527882
0.00525859
0.00524558
0.00522486
0.0051894
0.00513984
0.00507713
0.00499835
0.00489244
0.00474954
0.0045631
0.00432701
0.00403374
0.00367265
0.00322976
0.00268715
0.00201172
0.00113204
0.00014053
0.00575867
0.00570961
0.00566441
0.00561357
0.00555222
0.00547945
0.00539303
0.00528708
0.00515353
0.00498516
0.00477581
0.0045191
0.00420701
0.00382816
0.00336786
0.00280491
0.00209973
0.00117729
0.00014381
0.00615949
0.00609447
0.00602814
0.00595614
0.00587548
0.00578397
0.00567687
0.00554716
0.00538861
0.00519623
0.00496506
0.0046889
0.00435924
0.00396417
0.00348731
0.00290315
0.00216722
0.00121249
0.000144878
0.00649891
0.00642409
0.00634501
0.0062576
0.00616237
0.00605603
0.00593141
0.00578055
0.00559895
0.00538382
0.00513192
0.00483733
0.00449039
0.00407767
0.00358184
0.00297519
0.00221051
0.00122749
0.00014697
0.00678997
0.00670905
0.00662068
0.00652272
0.00641612
0.00629829
0.00615933
0.0059891
0.00578573
0.00554895
0.005278
0.00496712
0.00460443
0.00417338
0.00365429
0.00302105
0.00222876
0.00121478
0.0001512
0.00703802
0.00695338
0.00685835
0.00675361
0.00664013
0.00651106
0.00635664
0.0061685
0.00594646
0.00569033
0.00540224
0.0050785
0.0047055
0.00426194
0.00371875
0.00305664
0.0022287
0.00118279
0.000147895
0.0072461
0.00716024
0.0070633
0.00695562
0.00683412
0.0066919
0.00652253
0.0063205
0.00608465
0.00581447
0.00551037
0.00516909
0.00477766
0.00431656
0.00376624
0.00309801
0.00226906
0.00123056
0.000150771
0.0074276
0.0073416
0.00724309
0.00713113
0.00700119
0.0068471
0.00666382
0.00644805
0.00619947
0.00591742
0.00559971
0.00524061
0.00482901
0.00435119
0.0037902
0.00311774
0.00228944
0.001247
0.000151605
0.00758735
0.00750173
0.00740156
0.0072847
0.00714637
0.00698155
0.00678602
0.00655784
0.00629706
0.00600235
0.0056706
0.0052944
0.00486321
0.00436646
0.00379041
0.00311019
0.00228346
0.00124728
0.000147242
0.00772851
0.00764317
0.00754093
0.00741893
0.0072728
0.00709835
0.0068923
0.00665308
0.00638034
0.00607252
0.00572554
0.00533186
0.00488094
0.00436398
0.00376953
0.00307687
0.00224834
0.00122434
0.000141652
0.00785289
0.00776762
0.00766316
0.00753644
0.00738359
0.00720107
0.00698613
0.00673718
0.00645322
0.00613217
0.00576949
0.00535771
0.00488697
0.00434922
0.00373419
0.00302472
0.00218852
0.00117449
0.000136195
0.00796194
0.00787681
0.00777048
0.00763991
0.00748168
0.00729275
0.0070706
0.00681335
0.00651936
0.00618592
0.00580822
0.00537891
0.00488933
0.0043315
0.00369616
0.00296855
0.00212257
0.00112034
0.000131811
0.00805742
0.0079728
0.00786529
0.00773201
0.00756988
0.00737623
0.00714858
0.00688473
0.00658239
0.00623831
0.00584741
0.00540292
0.00489707
0.00432195
0.00366883
0.00292484
0.0020697
0.00107877
0.000129865
0.00814141
0.00805787
0.00795008
0.00781534
0.00765087
0.00745421
0.00722286
0.0069543
0.00664573
0.00629339
0.00589248
0.00543647
0.00491815
0.00433004
0.00366345
0.00290703
0.0020446
0.00106037
0.000130475
0.00821618
0.00813448
0.00802738
0.00789244
0.00772715
0.00752917
0.00729595
0.00702469
0.00671227
0.00635488
0.00594748
0.00548404
0.00495786
0.00436147
0.00368633
0.00292171
0.00205301
0.00106688
0.000132696
0.00828407
0.00820494
0.00809953
0.0079656
0.00780093
0.00760325
0.00736991
0.00709803
0.00678436
0.00642483
0.00601447
0.00554766
0.0050178
0.00441741
0.00373773
0.00296749
0.00209104
0.0010922
0.000135545
0.00834714
0.00827122
0.00816839
0.0080366
0.00787386
0.00767791
0.00744609
0.00717553
0.00686279
0.00650373
0.00609349
0.00562653
0.00509624
0.00449486
0.00381283
0.0030373
0.0021496
0.00112832
0.000138442
0.00840686
0.00833472
0.0082352
0.0081065
0.00794677
0.00775377
0.00752486
0.00725712
0.00694707
0.00659054
0.00618263
0.00571773
0.00518901
0.00458808
0.0039041
0.00312195
0.00221913
0.00116886
0.000141128
0.00846404
0.00839606
0.0083004
0.00817553
0.00801961
0.00783046
0.0076055
0.00734166
0.00703551
0.00668283
0.00627864
0.00581695
0.00529058
0.00469023
0.00400352
0.00321279
0.0022918
0.00120942
0.000143518
0.00851861
0.008455
0.00836361
0.00824301
0.00809144
0.00790674
0.00768632
0.00742715
0.00712559
0.00677739
0.00637741
0.00591929
0.00539518
0.00479473
0.00410397
0.00330284
0.00236194
0.00124705
0.000145631
0.00856972
0.00851054
0.0084236
0.00830754
0.00816062
0.00798068
0.00776512
0.00751087
0.00721422
0.00687072
0.0064749
0.00601996
0.00549743
0.00489591
0.00419983
0.00338702
0.00242563
0.0012798
0.000147527
0.00861576
0.00856094
0.0084785
0.0083671
0.00822499
0.00804998
0.00783942
0.00759016
0.00729835
0.00695932
0.00656731
0.00611507
0.00559333
0.00498974
0.00428739
0.00346245
0.00248122
0.0013071
0.000149277
0.00865452
0.00860394
0.00852598
0.00841931
0.00828213
0.00811219
0.00790674
0.00766249
0.00737541
0.0070406
0.00665193
0.00620171
0.00567999
0.00507362
0.00436463
0.00352789
0.00252838
0.00132943
0.000150969
0.00868348
0.00863703
0.00856357
0.00846176
0.00832971
0.00816505
0.00796491
0.00772581
0.00744349
0.00711276
0.00672715
0.00627852
0.0057564
0.00514698
0.00443154
0.00358407
0.00256869
0.00134878
0.000152536
0.00870024
0.00865784
0.008589
0.00849229
0.00836573
0.00820678
0.00801239
0.00777882
0.00750156
0.00717509
0.00679257
0.00634547
0.00582289
0.00521057
0.00448931
0.00363259
0.00260392
0.00136651
0.000154069
0.00870293
0.00866458
0.00860057
0.00850938
0.00838888
0.00823637
0.00804849
0.00782124
0.00754974
0.00722812
0.00684916
0.00640397
0.00588129
0.00526659
0.00454043
0.003676
0.00263639
0.00138402
0.000155712
0.00869083
0.00865653
0.0085976
0.00851246
0.00839885
0.0082538
0.00807363
0.00785394
0.00758944
0.00727382
0.00689947
0.00645711
0.00593518
0.00531897
0.00458894
0.00371817
0.00266928
0.00140315
0.000157642
0.00866484
0.00863448
0.00858082
0.0085023
0.00839655
0.00826031
0.00808948
0.00787915
0.00762351
0.00731573
0.00694773
0.00650982
0.00599014
0.00537375
0.00464096
0.00376474
0.00270711
0.0014265
0.000160135
0.00862794
0.00860115
0.00855269
0.00848122
0.00838433
0.0082585
0.00809909
0.00790051
0.00765631
0.00735903
0.00700003
0.00656917
0.00605421
0.00543975
0.00470553
0.00382396
0.00275623
0.0014577
0.000163574
0.00858541
0.0085614
0.00851765
0.00845326
0.00836607
0.00825239
0.00810693
0.0079232
0.00769386
0.0074107
0.00706448
0.00664467
0.00613856
0.0055297
0.00479605
0.0039081
0.00282582
0.00150166
0.000168545
0.00854474
0.00852231
0.00848218
0.00842425
0.00834713
0.00824737
0.00811894
0.00795401
0.00774398
0.00747965
0.00715134
0.00674858
0.00625827
0.00566175
0.00493248
0.00403586
0.00292932
0.0015648
0.000175822
0.00851525
0.00849304
0.00845484
0.00840181
0.00833425
0.00825003
0.00814242
0.00800139
0.00781627
0.00757648
0.00727251
0.00689561
0.00643269
0.00586065
0.0051435
0.00423526
0.00308705
0.00165547
0.000186441
0.00850729
0.00848442
0.00844627
0.00839548
0.00833545
0.00826783
0.00818544
0.00807454
0.00792084
0.00771171
0.0074395
0.00710121
0.00668418
0.00615689
0.00546676
0.00454593
0.00332968
0.00178541
0.000201673
0.00853106
0.00850839
0.00846929
0.00841732
0.00836026
0.0083086
0.00825458
0.00817976
0.00806265
0.00788978
0.00765833
0.00737764
0.00703368
0.00658096
0.0059442
0.00501972
0.00370436
0.00197351
0.000223543
0.00859507
0.00857699
0.00853865
0.00848277
0.00842033
0.00838135
0.00835062
0.00831317
0.00822938
0.00809892
0.00792529
0.00773048
0.0074925
0.00715075
0.00661128
0.00572219
0.00429261
0.00225986
0.000257255
0.00870532
0.00870099
0.00866981
0.00861103
0.00852679
0.00850292
0.00846654
0.00846519
0.00838709
0.00831027
0.00823885
0.00816333
0.00805331
0.00785382
0.00747894
0.00673852
0.00527214
0.00276508
0.000322466
0.00887085
0.00888868
0.00887543
0.00882725
0.00866033
0.0087283
0.00858229
0.0086893
0.00849749
0.00847754
0.00864544
0.00869305
0.00868618
0.00863156
0.00849891
0.00815794
0.00713276
0.00408031
0.000468143
)
;

boundaryField
{
    leftWall
    {
        type            nutkWallFunction;
        Cmu             0.09;
        kappa           0.41;
        E               9.8;
        value           nonuniform List<scalar> 
50
(
2.14922e-06
6.69626e-06
8.00144e-06
8.94575e-06
9.66294e-06
1.02301e-05
1.0725e-05
1.1925e-05
1.37726e-05
1.38372e-05
1.40782e-05
1.43825e-05
1.48518e-05
1.52816e-05
1.56045e-05
1.60533e-05
1.68068e-05
1.27433e-05
1.42281e-05
1.47262e-05
1.48219e-05
1.47105e-05
1.43506e-05
1.38792e-05
1.34499e-05
1.30375e-05
1.25614e-05
1.20158e-05
1.142e-05
1.08041e-05
1.02014e-05
9.64365e-06
9.15429e-06
8.74335e-06
8.39292e-06
8.08438e-06
7.80491e-06
7.5451e-06
7.30014e-06
7.07151e-06
6.86902e-06
6.7149e-06
6.65194e-06
6.75982e-06
7.18991e-06
8.23767e-06
1.0455e-05
1.48872e-05
2.46257e-05
4.90909e-05
)
;
    }
    rightWall
    {
        type            nutkWallFunction;
        Cmu             0.09;
        kappa           0.41;
        E               9.8;
        value           nonuniform List<scalar> 
50
(
2.11492e-06
7.32665e-06
9.16647e-06
1.1326e-05
1.53328e-05
1.57795e-05
1.57107e-05
1.53422e-05
1.44347e-05
1.36795e-05
1.36685e-05
1.48205e-05
1.58691e-05
1.65056e-05
1.68762e-05
1.69747e-05
1.71418e-05
1.79765e-05
1.25659e-05
1.30879e-05
1.32208e-05
1.2494e-05
1.15091e-05
1.05928e-05
9.86144e-06
9.54488e-06
9.65748e-06
1.00264e-05
1.04828e-05
1.09345e-05
1.13443e-05
1.17027e-05
1.20144e-05
1.22994e-05
1.25629e-05
1.28085e-05
1.30349e-05
1.32549e-05
1.34881e-05
1.37594e-05
1.41058e-05
1.45804e-05
1.52639e-05
1.62674e-05
1.77392e-05
1.98593e-05
2.28855e-05
2.74128e-05
3.56437e-05
5.56601e-05
)
;
    }
    lowerWall
    {
        type            nutkWallFunction;
        Cmu             0.09;
        kappa           0.41;
        E               9.8;
        value           nonuniform List<scalar> 
62
(
2.14922e-06
3.5897e-06
4.27046e-06
4.73644e-06
5.09474e-06
5.3867e-06
5.63138e-06
5.83934e-06
6.01771e-06
6.17316e-06
6.31562e-06
6.43258e-06
6.52335e-06
6.5867e-06
6.62096e-06
6.62316e-06
6.58712e-06
6.50103e-06
6.34203e-06
6.06521e-06
5.5783e-06
4.65872e-06
2.70849e-06
2.70849e-06
8.54091e-06
1.01889e-05
1.15028e-05
1.27183e-05
1.41912e-05
1.81047e-05
2.22867e-05
2.23207e-05
2.03367e-05
2.02974e-05
2.10171e-05
2.59966e-06
8.15094e-06
9.46927e-06
1.11615e-05
1.32041e-05
1.48631e-05
1.7546e-05
2.1534e-05
2.59966e-06
3.71693e-06
4.29047e-06
4.6629e-06
4.94575e-06
5.17475e-06
5.36205e-06
5.50602e-06
5.59874e-06
5.69855e-06
5.57478e-06
5.43249e-06
5.46158e-06
5.2449e-06
4.95298e-06
4.67101e-06
4.28592e-06
3.6686e-06
2.11492e-06
)
;
    }
    atmosphere
    {
        type            calculated;
        value           nonuniform List<scalar> 
46
(
0.009
0.009
0.00279634
0.00284189
0.00323348
0.0038139
0.00446651
0.00509821
0.00565413
0.00611995
0.00651041
0.00685633
0.00719445
0.0075563
0.00793802
0.00821345
0.00838347
0.00849014
0.00856027
0.00860839
0.00864248
0.00866791
0.00868921
0.00870977
0.00872662
0.00874978
0.00878357
0.009
0.009
0.009
0.009
0.00866033
0.009
0.00858229
0.009
0.00849749
0.00847754
0.009
0.009
0.009
0.009
0.009
0.009
0.009
0.009
0.009
)
;
    }
    defaultFaces
    {
        type            empty;
    }
}


// ************************************************************************* //
