/*--------------------------------*- C++ -*----------------------------------*\
  =========                 |
  \\      /  F ield         | OpenFOAM: The Open Source CFD Toolbox
   \\    /   O peration     | Website:  https://openfoam.org
    \\  /    A nd           | Version:  13
     \\/     M anipulation  |
\*---------------------------------------------------------------------------*/
FoamFile
{
    format      ascii;
    class       volScalarField;
    location    "3";
    object      p;
}
// * * * * * * * * * * * * * * * * * * * * * * * * * * * * * * * * * * * * * //

dimensions      [1 -1 -2 0 0 0 0];

internalField   nonuniform List<scalar> 
2268
(
6046.83
6014.1
5971.44
5917.58
5856.8
5792.18
5726.05
5660.23
5596.15
5534.83
5476.98
5423.27
5374.03
5329.39
5289.4
5254.12
5223.52
5197.37
5175.03
5155.33
5137.26
5121.52
5105.3
5257.29
5226.48
5184.85
5131.14
5069.56
5003.47
4935.4
4867.36
4800.92
4737.23
4677.13
4621.39
4570.41
4524.41
4483.44
4447.51
4416.52
4390.22
4368.07
4349.23
4332.99
4320
4305.84
4470.99
4439.66
4398.36
4344.88
4282.62
4215.13
4145.05
4074.58
4005.47
3939.02
3876.15
3817.9
3764.79
3717.12
3674.99
3638.39
3607.21
3581.22
3559.97
3542.84
3529.16
3518.64
3505.76
3688.79
3653.62
3610.88
3557.16
3494.34
3425.69
3353.86
3281.14
3209.44
3140.26
3074.51
3013.66
2958.36
2908.96
2865.63
2828.39
2797.16
2771.8
2751.97
2737.09
2726.05
2716.86
2703.8
2910.67
2869.78
2824.16
2769.44
2705.82
2635.91
2562.26
2487.24
2413.03
2341.33
2272.84
2209.81
2152.85
2102.24
2058.13
2020.56
1989.44
1964.73
1946.24
1933.41
1924.35
1915.36
1900.34
2136.71
2087.94
2037.72
1980.49
1914.87
1842.92
1767.41
1690.92
1616
1545.98
1482.42
1425.24
1374.71
1331.02
1293.83
1262.73
1237.31
1217.33
1202.52
1192.36
1185.1
1177.71
1164
1376.4
1326.25
1283.3
1238.81
1191.02
1141.62
1092.75
1045.97
1002.58
964.91
933.418
905.713
881.616
860.999
843.398
828.43
815.711
804.984
795.969
788.535
782.559
778.535
774.106
867.02
845.694
830.536
815.599
800.893
787.342
775.542
765.606
757.561
751.189
745.667
740.359
735.066
729.587
723.919
718.14
712.246
706.226
700.021
693.879
688.623
686.386
687.647
2681.91
2719.79
2742.29
2732.14
2689.4
2615.35
2558.87
2507.95
2465.8
2435.8
2393.96
2366.2
2381.71
2389.21
2388.94
2388.12
2383.7
2380.23
2378.57
1984.53
2014.53
2036.86
2033.53
2019.98
2011.58
1966.57
1909.75
1856.29
1824.56
1823.92
1823.12
1792.95
1782.09
1781.06
1779.64
1777.11
1774.34
1771.98
1413.64
1428.49
1450.18
1456.22
1438.18
1421.09
1384.96
1344.76
1315.33
1282.4
1286.05
1306.4
1283.83
1260.63
1241.2
1230.14
1235.39
1247.43
1261.38
1091.43
1095.34
1110.93
1130.42
1114.15
1078.19
1060.89
1049.57
1040.9
1010.58
982.647
971.949
973.376
951.191
937.004
933.329
939.989
949.004
953.805
953.179
952.415
956.634
972.202
981.419
961.038
961.601
959.484
946.641
920.351
883.634
853.594
828.013
830.323
850.853
858.815
856.837
847.622
832.942
861.027
856.948
857.669
858.955
879.057
890.112
889.459
885.159
870.371
844.233
823.33
804.117
766.3
778.652
799.971
802.494
800.147
791.442
787.575
771.828
772.336
773.279
768.887
773.201
801.225
803.262
791.827
775.067
766.05
761.267
748.724
727.079
737.257
742.683
743.556
741.534
734.777
735.882
699.346
702.595
702.475
697.321
689.072
702.551
710.542
701.837
698.5
700.953
701.312
693.479
683.905
691.499
687.044
685.886
684.17
678.45
682.018
676.598
676.265
677.063
676.526
674.975
672.799
670.133
667.003
663.533
659.8
655.603
650.932
645.804
640.22
634.253
628.042
621.647
615.142
608.542
602.169
596.971
594.719
596.827
555.12
554.488
554.347
553.341
551.619
549.396
546.613
543.105
539.14
534.795
530.117
525.045
519.566
513.645
507.397
501.033
494.661
488.376
482.113
476.239
471.775
469.447
469.06
434.21
434.271
433.751
431.842
429.387
426.864
423.918
419.699
415.091
410.504
405.648
400.493
395.152
389.655
384.386
379.859
375.763
371.966
369.165
367.905
367.629
368.122
368.783
319.516
318.386
316.549
314.364
312.03
309.528
306.27
303.077
299.653
296.086
292.632
289.626
287.841
287.355
286.892
286.344
286.453
287.871
290.057
292.72
295.332
297.709
299.405
223.233
223.35
223.363
223.097
222.214
220.344
218.355
217.222
216.228
214.899
214.074
214.057
215.032
217.026
219.287
221.21
223.56
226.504
229.536
232.044
234.411
236.541
238.828
153.097
155.064
156.981
157.923
157.935
157.204
156.74
156.323
156.045
155.993
156.203
156.725
157.099
157.369
158.591
160.849
163.248
165.094
167.16
169.49
171.833
174.081
176.286
94.1945
95.4708
96.3552
96.7722
96.6437
96.2854
95.8568
94.9381
93.9273
93.2376
93.0786
93.1543
93.5154
94.1718
95.4902
97.3816
99.6003
101.814
104.161
106.689
109.257
111.65
113.653
37.5396
38.6897
39.4578
39.6525
39.3801
38.7463
37.8354
36.7824
35.7236
34.9785
34.3397
34.089
34.1276
34.4895
35.3585
36.7617
38.6125
40.7107
43.0214
45.5211
48.0699
50.4328
52.497
7.32264
7.90707
8.33943
8.45876
8.3371
8.05437
7.65498
7.14425
6.59805
6.14796
5.85701
5.69588
5.63563
5.68194
5.87944
6.2585
6.83913
7.58597
8.46728
9.44613
10.4819
11.485
12.2241
3.65879
3.64939
3.60714
3.60332
3.61256
3.6261
3.64138
3.65549
3.66038
3.6553
3.64771
3.63993
3.63047
3.61759
3.59772
3.56868
3.52994
3.48149
3.42404
3.36267
3.30132
3.23628
3.17861
3.55248
3.5521
3.54856
3.54627
3.54498
3.54321
3.5396
3.53123
3.51654
3.49925
3.48067
3.46046
3.43747
3.41075
3.37927
3.34259
3.30108
3.25568
3.20785
3.15963
3.11255
3.06803
3.02286
3.43724
3.43231
3.42644
3.42177
3.41885
3.41663
3.41272
3.40466
3.39224
3.3758
3.3581
3.33811
3.31516
3.28873
3.25813
3.22315
3.18388
3.14093
3.09531
3.04857
3.00243
2.9596
2.91678
3.32537
3.31997
3.31283
3.30612
3.30049
3.29554
3.28908
3.27959
3.26771
3.25236
3.23547
3.21589
3.19319
3.16709
3.13729
3.10356
3.06596
3.02478
2.98076
2.93536
2.89037
2.84847
2.80577
3.21346
3.20869
3.20211
3.19482
3.18721
3.17835
3.16866
3.1574
3.14367
3.12908
3.11206
3.09187
3.06851
3.04191
3.01199
2.97864
2.94189
2.90197
2.85951
2.81584
2.77263
2.73219
2.69032
3.10065
3.0964
3.09058
3.08324
3.07497
3.06414
3.05156
3.03815
3.02349
3.00889
2.99095
2.96974
2.94547
2.91821
2.88802
2.85484
2.81875
2.7799
2.73882
2.69667
2.655
2.61621
2.57525
2.9871
2.98325
2.97782
2.97098
2.96272
2.95186
2.93828
2.92344
2.90881
2.89247
2.8733
2.8512
2.82629
2.79872
2.76849
2.73559
2.7001
2.66215
2.62217
2.58123
2.54069
2.50287
2.46338
2.87335
2.87007
2.86499
2.85878
2.85055
2.8399
2.82691
2.81223
2.79628
2.77858
2.75845
2.73575
2.71055
2.68291
2.65282
2.62032
2.58545
2.5483
2.50926
2.4693
2.4297
2.39269
2.35435
2.75963
2.75684
2.75244
2.74644
2.73841
2.72805
2.71542
2.70082
2.68448
2.66618
2.64563
2.62273
2.5975
2.57
2.54023
2.50824
2.47404
2.43769
2.39952
2.36047
2.32173
2.28551
2.24812
2.64595
2.64357
2.63962
2.63397
2.62626
2.61627
2.60401
2.58964
2.57329
2.55488
2.53431
2.51153
2.48654
2.4594
2.43013
2.39878
2.36533
2.32982
2.29254
2.25438
2.21652
2.18113
2.14458
2.53232
2.5303
2.52676
2.52148
2.51415
2.50458
2.49276
2.47877
2.46268
2.4445
2.42421
2.40178
2.37726
2.35068
2.32209
2.29151
2.25892
2.22431
2.18797
2.15077
2.11382
2.07931
2.04368
2.41878
2.41711
2.41396
2.40906
2.40213
2.39301
2.38169
2.36819
2.35258
2.33486
2.31507
2.29322
2.26935
2.24352
2.21576
2.18608
2.15446
2.12087
2.08557
2.04939
2.01345
1.97989
1.94512
2.30537
2.30402
2.30125
2.29673
2.29022
2.28159
2.27081
2.2579
2.24289
2.22581
2.20671
2.18561
2.16257
2.13764
2.11085
2.08222
2.05169
2.01923
1.98508
1.95007
1.91523
1.8827
1.84892
2.19211
2.19104
2.1886
2.18447
2.17841
2.17029
2.1601
2.14784
2.13354
2.11723
2.09895
2.07875
2.05668
2.03279
2.00712
1.97966
1.95036
1.91917
1.88633
1.85259
1.81903
1.78771
1.75494
2.07898
2.07814
2.07602
2.07226
2.06665
2.05908
2.04952
2.03797
2.02445
2.009
1.99166
1.97248
1.9515
1.92878
1.90435
1.8782
1.85026
1.82048
1.78908
1.75681
1.72468
1.69476
1.66312
1.96598
1.96532
1.96348
1.96009
1.95494
1.94793
1.93902
1.92822
1.91555
1.90104
1.88473
1.86665
1.84687
1.82543
1.80235
1.77762
1.75117
1.72294
1.69313
1.66244
1.63192
1.60363
1.57294
1.85308
1.85256
1.85097
1.84793
1.84324
1.83679
1.82857
1.81856
1.80678
1.79326
1.77803
1.76115
1.74265
1.72258
1.70095
1.67775
1.65289
1.62633
1.59822
1.56926
1.54041
1.51358
1.48467
1.74028
1.73987
1.73851
1.7358
1.73155
1.72567
1.71813
1.70893
1.69807
1.68558
1.6715
1.65586
1.63871
1.62008
1.59998
1.57839
1.55523
1.53043
1.50415
1.47701
1.44992
1.42464
1.39791
1.62756
1.62725
1.62609
1.6237
1.61988
1.61456
1.6077
1.59931
1.58939
1.57796
1.56505
1.55069
1.53494
1.5178
1.4993
1.4794
1.45802
1.43507
1.41071
1.38554
1.36034
1.33682
1.31224
1.51493
1.5147
1.51373
1.51164
1.50824
1.50347
1.4973
1.48972
1.48074
1.47037
1.45865
1.4456
1.43127
1.41567
1.39881
1.38065
1.36111
1.3401
1.31775
1.29459
1.2714
1.24976
1.22713
1.40234
1.40219
1.40141
1.39962
1.39664
1.39242
1.38693
1.38015
1.37211
1.36281
1.35228
1.34055
1.32765
1.3136
1.2984
1.28201
1.26434
1.24531
1.22501
1.20397
1.18284
1.1631
1.14252
1.28979
1.28973
1.28913
1.28762
1.28506
1.28138
1.27656
1.27058
1.26346
1.25522
1.24587
1.23544
1.22397
1.21147
1.19793
1.1833
1.16752
1.15048
1.13229
1.11339
1.09441
1.07669
1.05811
1.17724
1.17728
1.17686
1.17565
1.17349
1.17034
1.16618
1.16098
1.15477
1.14755
1.13935
1.13019
1.12012
1.10913
1.09722
1.08435
1.07044
1.0554
1.03933
1.02263
1.00585
0.990188
0.973861
1.06468
1.06483
1.0646
1.06367
1.06192
1.0593
1.05577
1.05133
1.04598
1.03975
1.03265
1.02473
1.016
1.00647
0.996148
0.984982
0.972904
0.959845
0.945878
0.931358
0.916788
0.903234
0.889027
0.952066
0.952342
0.95231
0.951684
0.950343
0.94823
0.945315
0.941591
0.937069
0.931773
0.925731
0.918972
0.91152
0.903389
0.894575
0.885041
0.87473
0.863583
0.851659
0.839286
0.826869
0.81533
0.803297
0.839364
0.839786
0.839974
0.839661
0.838729
0.837118
0.834794
0.831751
0.828009
0.823596
0.818541
0.812875
0.806623
0.799799
0.792401
0.784402
0.775758
0.766425
0.756462
0.746129
0.7358
0.726246
0.716199
0.726519
0.727115
0.727544
0.727563
0.727051
0.725939
0.724185
0.72179
0.718781
0.715194
0.711061
0.706412
0.70127
0.695652
0.689559
0.682973
0.675873
0.668231
0.660097
0.651714
0.643354
0.635672
0.627662
0.613478
0.614267
0.614961
0.615341
0.615277
0.614671
0.613475
0.611699
0.609381
0.606567
0.603293
0.599582
0.595457
0.590934
0.586019
0.580705
0.575002
0.56891
0.56248
0.555884
0.549356
0.543433
0.537183
0.50017
0.501173
0.502177
0.502983
0.503413
0.503329
0.502678
0.50149
0.499823
0.497735
0.495262
0.492421
0.489219
0.485677
0.481804
0.4776
0.47314
0.468454
0.46357
0.458627
0.453775
0.44941
0.444841
0.386551
0.38781
0.389259
0.390601
0.391565
0.391989
0.391845
0.391199
0.390137
0.38873
0.387013
0.38499
0.38265
0.38
0.377015
0.373748
0.370384
0.36697
0.363509
0.360074
0.356772
0.353902
0.350863
0.272653
0.274351
0.276528
0.278496
0.279936
0.280757
0.281019
0.280835
0.280314
0.279536
0.278539
0.277321
0.275862
0.274169
0.272087
0.269616
0.267254
0.265032
0.262881
0.260842
0.258995
0.257558
0.256313
0.158582
0.161024
0.164776
0.167154
0.168765
0.169742
0.170256
0.170438
0.17039
0.170184
0.169864
0.169458
0.168987
0.168642
0.166923
0.165142
0.163715
0.162604
0.161624
0.160778
0.160157
0.159948
0.160628
0.0497914
0.0505215
0.0539218
0.0554276
0.0563849
0.0569672
0.0573394
0.0575711
0.0577084
0.0577876
0.0578397
0.0579015
0.0580044
0.0584909
0.0580143
0.0567863
0.0561756
0.0558594
0.0556338
0.055478
0.0554334
0.0556111
0.0565339
601.173
602.884
604.101
605.207
467.988
465.545
462.608
462.704
369.301
369.185
368.559
367.758
300.678
301.53
301.889
301.16
240.679
241.43
241.625
241.265
177.569
178.135
178.345
178.354
114.546
114.976
115.347
115.721
54.0139
54.5455
54.6701
54.6138
12.4048
12.4348
12.4797
12.603
3.12985
3.08499
3.03218
2.98091
2.96575
2.91494
2.86009
2.81795
2.86251
2.80818
2.74854
2.70157
2.74903
2.69223
2.63034
2.58247
2.63209
2.57392
2.51062
2.46212
2.51709
2.45851
2.3945
2.34558
2.40528
2.3466
2.28219
2.233
2.29652
2.23801
2.17339
2.12409
2.19078
2.13216
2.06794
2.01878
2.08798
2.02963
1.96551
1.91692
1.98794
1.9302
1.86653
1.81846
1.89047
1.83359
1.77063
1.72317
1.79541
1.73958
1.67778
1.63117
1.70292
1.64842
1.58797
1.54219
1.61283
1.56019
1.50135
1.45633
1.52501
1.47417
1.41684
1.37317
1.43888
1.38998
1.33485
1.29268
1.35449
1.30783
1.25493
1.2145
1.27142
1.22734
1.17722
1.13858
1.18925
1.14801
1.10067
1.06417
1.10749
1.06922
1.02528
0.991091
1.02626
0.991177
0.950505
0.918835
0.94528
0.913535
0.876535
0.847249
0.863924
0.835613
0.802047
0.775328
0.781409
0.756475
0.726739
0.702603
0.697601
0.676016
0.649784
0.628353
0.612168
0.593847
0.57132
0.552425
0.524722
0.509546
0.490356
0.474116
0.434979
0.422718
0.407075
0.39347
0.343572
0.334123
0.32167
0.310742
0.251705
0.245113
0.235974
0.227402
0.160629
0.157568
0.151579
0.144653
0.058537
0.0583457
0.0564624
0.053181
599.571
601.164
599.615
598.128
595.578
596.199
597.777
599.604
606.012
609.045
610.131
610.024
616.888
612.242
601.493
596.692
596.037
596.672
601.667
467.787
470.769
469.171
472.516
475.948
476.245
475.745
480.886
483.522
485.462
488.172
494.006
507.718
496.793
485.139
482.858
486.229
490.765
494.581
367.423
367.777
367.127
370.48
373.051
372.163
374.495
378.56
380.561
383.032
385.546
389.462
396.769
392.242
390.145
392.159
394.814
395.78
395.989
299.467
299.3
299.36
298.729
298.724
299.91
301.188
304.165
307.889
310.953
312.81
313.844
316.111
317.71
320
321.198
320.452
318.438
317.498
240.335
240.667
240.654
240.059
240.954
243.315
244.907
246.368
247.397
249
250.483
251.775
253.509
254.748
255.846
256.236
255.169
253.223
253.046
178.364
178.976
179.382
179.694
180.955
183.707
185.973
186.223
186.25
187.18
188.271
189.345
190.574
191.498
192.229
192.45
191.847
190.667
190.443
116.366
117.311
118.104
118.813
120.009
121.823
123.326
123.933
124.357
125.091
125.929
126.752
127.59
128.233
128.739
128.976
128.656
127.923
127.66
54.4995
55.2356
56.1691
57.229
58.8015
60.488
61.7707
62.5115
63.0363
63.6181
64.2008
64.7631
65.2939
65.5329
65.3242
64.8736
64.3596
63.9945
64.1457
12.8696
13.1663
13.5619
14.4107
15.5979
16.7135
17.4503
17.8475
18.0929
18.3165
18.5369
18.7684
19.0099
19.1741
19.2438
18.9237
18.4822
18.2968
18.5537
2.92545
2.9137
2.90862
2.90863
2.89991
2.86374
2.81622
2.78129
2.7815
2.80508
2.8636
2.93136
2.99357
3.15741
3.54697
3.85057
3.97447
3.94745
3.91223
2.77814
2.75816
2.74799
2.74717
2.75035
2.74391
2.72807
2.70983
2.70466
2.71311
2.73453
2.75949
2.78063
2.77908
2.72236
2.70785
2.71549
2.72713
2.73202
2.65848
2.63961
2.62466
2.6111
2.59801
2.58488
2.57461
2.56835
2.56627
2.56785
2.5743
2.58546
2.5895
2.5878
2.59378
2.59647
2.60198
2.60685
2.6097
2.539
2.51898
2.50119
2.47927
2.45802
2.44347
2.43633
2.43697
2.43763
2.43756
2.43712
2.44109
2.44688
2.4553
2.4657
2.47263
2.47919
2.48489
2.48868
2.41938
2.39986
2.38161
2.36181
2.34444
2.33129
2.3235
2.3206
2.31966
2.31919
2.31862
2.32002
2.32657
2.33606
2.34644
2.35425
2.36156
2.36768
2.37142
2.30289
2.28398
2.26639
2.24835
2.23261
2.22058
2.21271
2.20868
2.20685
2.20641
2.20718
2.21004
2.21594
2.22404
2.23292
2.24086
2.24817
2.254
2.25707
2.19035
2.172
2.15512
2.13814
2.12345
2.11198
2.10409
2.09947
2.09725
2.09689
2.09822
2.10155
2.10719
2.11455
2.12274
2.13055
2.13767
2.14313
2.1456
2.08163
2.06374
2.04746
2.03119
2.01713
2.006
1.99806
1.99312
1.99065
1.99026
1.99176
1.9952
2.00059
2.00746
2.01511
2.0227
2.02959
2.03473
2.03671
1.97658
1.95905
1.94327
1.92748
1.91381
1.90286
1.89487
1.88968
1.88698
1.88645
1.88789
1.89122
1.89629
1.90271
1.90992
1.91719
1.92379
1.92863
1.93034
1.87512
1.85787
1.84251
1.82703
1.81358
1.8027
1.79459
1.78917
1.78619
1.78541
1.78662
1.78967
1.79435
1.80033
1.80708
1.81397
1.82023
1.82479
1.82646
1.77705
1.76015
1.74512
1.72986
1.7165
1.70558
1.6973
1.69159
1.68827
1.68713
1.68798
1.69062
1.69486
1.70034
1.70661
1.71307
1.71898
1.72333
1.72508
1.68245
1.6658
1.65107
1.63594
1.62258
1.61153
1.60301
1.59695
1.59322
1.59163
1.59201
1.59416
1.59787
1.60282
1.60858
1.6146
1.62018
1.62439
1.62628
1.59117
1.57484
1.5603
1.54524
1.53182
1.52058
1.51174
1.50527
1.50106
1.49895
1.49877
1.50036
1.50348
1.50785
1.51308
1.51867
1.52395
1.52807
1.5301
1.5032
1.48718
1.47275
1.45771
1.44417
1.43268
1.42348
1.41655
1.4118
1.40909
1.4083
1.40925
1.41174
1.41551
1.4202
1.42535
1.43036
1.4344
1.43654
1.41826
1.40263
1.38829
1.37324
1.35956
1.3478
1.33819
1.33075
1.32541
1.32207
1.3206
1.32087
1.32269
1.32582
1.32996
1.33467
1.33939
1.34333
1.34554
1.33627
1.32105
1.30679
1.29172
1.27789
1.26583
1.2558
1.24783
1.24187
1.23784
1.23565
1.23519
1.23629
1.23877
1.24232
1.24656
1.25098
1.2548
1.25701
1.25693
1.24223
1.22805
1.21299
1.19901
1.18665
1.17618
1.16766
1.16106
1.15633
1.15339
1.15217
1.15253
1.1543
1.15723
1.16096
1.165
1.16863
1.17088
1.18019
1.16587
1.15184
1.13681
1.1227
1.11005
1.09915
1.09008
1.08284
1.07739
1.0737
1.07169
1.07127
1.07231
1.07458
1.07775
1.08137
1.08475
1.08693
1.10557
1.09171
1.07786
1.06289
1.04869
1.03579
1.02448
1.01488
1.00699
1.00082
0.996353
0.993545
0.992332
0.9926
0.994157
0.996717
0.999845
1.00292
1.00498
1.03287
1.01938
1.00576
0.990914
0.976665
0.963547
0.95187
0.941753
0.933243
0.92636
0.921111
0.917486
0.915447
0.914908
0.915713
0.917592
0.920179
0.92289
0.924786
0.961487
0.948486
0.935133
0.920473
0.90624
0.892966
0.880968
0.870381
0.861276
0.853694
0.847669
0.843216
0.840327
0.838948
0.838951
0.840121
0.842109
0.844397
0.846115
0.891196
0.878568
0.865528
0.851114
0.836976
0.823624
0.811377
0.800383
0.79073
0.782483
0.775696
0.770413
0.766657
0.76441
0.763584
0.763989
0.765354
0.767214
0.768716
0.821266
0.809101
0.79641
0.782334
0.768392
0.755067
0.742669
0.731355
0.721226
0.712364
0.704846
0.698744
0.694115
0.690978
0.689291
0.688933
0.689656
0.691064
0.692382
0.751282
0.739499
0.727243
0.713613
0.699993
0.686828
0.674409
0.662893
0.652387
0.642987
0.63479
0.627895
0.622394
0.618357
0.615803
0.614653
0.614757
0.615767
0.6169
0.680405
0.6692
0.657479
0.644436
0.6313
0.618462
0.606188
0.594621
0.583873
0.574044
0.565246
0.557603
0.551248
0.546304
0.542864
0.540957
0.54047
0.541116
0.542149
0.608297
0.597673
0.58663
0.574343
0.561885
0.54958
0.537655
0.526232
0.515418
0.505307
0.496018
0.487702
0.480523
0.474673
0.47035
0.467671
0.466662
0.467061
0.468035
0.534301
0.524482
0.514272
0.502949
0.491401
0.479873
0.468552
0.457509
0.446855
0.436657
0.427033
0.418156
0.410213
0.403467
0.398238
0.394825
0.393339
0.39356
0.394597
0.458255
0.449306
0.440116
0.429979
0.419604
0.409147
0.398733
0.388354
0.378143
0.36811
0.358373
0.349104
0.340497
0.332896
0.326766
0.322563
0.320632
0.320789
0.321924
0.379858
0.372032
0.36403
0.355311
0.346424
0.337397
0.328252
0.318871
0.309418
0.299877
0.290353
0.280939
0.271845
0.263496
0.256469
0.251442
0.248952
0.248963
0.250241
0.299587
0.29284
0.28615
0.279079
0.272052
0.264913
0.257463
0.249437
0.241085
0.23245
0.223648
0.214429
0.205156
0.196328
0.188547
0.182513
0.179113
0.178635
0.179736
0.218087
0.212262
0.206962
0.201755
0.196948
0.192514
0.18691
0.18095
0.173759
0.166539
0.159654
0.150733
0.141807
0.133116
0.124982
0.117913
0.11283
0.110476
0.110523
0.135
0.129573
0.125811
0.122565
0.120174
0.120466
0.115431
0.113679
0.106235
0.101099
0.0994115
0.0893837
0.0815297
0.0741859
0.0669202
0.0595114
0.0522426
0.0457329
0.0426081
0.0469858
0.0439337
0.042311
0.0410535
0.0402076
0.0419374
0.0396701
0.040032
0.0364802
0.0341361
0.0351472
0.0297927
0.0257731
0.0224356
0.0190433
0.0150803
0.00991726
0.00250317
-0.00126105
)
;

boundaryField
{
    leftWall
    {
        type            calculated;
        value           nonuniform List<scalar> 
50
(
6046.83
5257.29
4470.99
3688.79
2910.67
2136.71
1376.4
867.02
676.598
555.12
434.21
319.516
223.233
153.097
94.1945
37.5396
7.32264
3.65879
3.55248
3.43724
3.32537
3.21346
3.10065
2.9871
2.87335
2.75963
2.64595
2.53232
2.41878
2.30537
2.19211
2.07898
1.96598
1.85308
1.74028
1.62756
1.51493
1.40234
1.28979
1.17724
1.06468
0.952066
0.839364
0.726519
0.613478
0.50017
0.386551
0.272653
0.158582
0.0497914
)
;
    }
    rightWall
    {
        type            calculated;
        value           nonuniform List<scalar> 
50
(
2378.57
1771.98
1261.38
953.805
832.942
787.575
735.882
682.018
601.667
494.581
395.989
317.498
253.046
190.443
127.66
64.1457
18.5537
3.91223
2.73202
2.6097
2.48868
2.37142
2.25707
2.1456
2.03671
1.93034
1.82646
1.72508
1.62628
1.5301
1.43654
1.34554
1.25701
1.17088
1.08693
1.00498
0.924786
0.846115
0.768716
0.692382
0.6169
0.542149
0.468035
0.394597
0.321924
0.250241
0.179736
0.110523
0.0426081
-0.00126105
)
;
    }
    lowerWall
    {
        type            calculated;
        value           nonuniform List<scalar> 
62
(
6444.98
6412.25
6369.59
6315.73
6254.95
6190.33
6124.2
6058.38
5994.3
5932.98
5875.13
5821.42
5772.18
5727.54
5687.55
5652.27
5621.67
5595.52
5573.17
5553.34
5535.21
5519.46
5503.27
5105.3
4305.84
3505.76
2703.8
1900.34
1164
774.106
687.647
672.394
684.654
692.199
693.401
2681.91
1984.53
1413.64
1091.43
953.179
861.027
771.828
699.346
3033.4
3071.57
3093.82
3083.57
3025.21
2881.25
2824.64
2776.72
2745.08
2718.76
2657.89
2630.68
2667.72
2693.53
2693.47
2693.11
2687.52
2683.43
2681.92
)
;
    }
    atmosphere
    {
        type            calculated;
        value           uniform 0;
    }
    defaultFaces
    {
        type            empty;
    }
}


// ************************************************************************* //
