/*--------------------------------*- C++ -*----------------------------------*\
  =========                 |
  \\      /  F ield         | OpenFOAM: The Open Source CFD Toolbox
   \\    /   O peration     | Website:  https://openfoam.org
    \\  /    A nd           | Version:  13
     \\/     M anipulation  |
\*---------------------------------------------------------------------------*/
FoamFile
{
    format      ascii;
    class       volScalarField;
    location    "3";
    object      p_rgh;
}
// * * * * * * * * * * * * * * * * * * * * * * * * * * * * * * * * * * * * * //

dimensions      [1 -1 -2 0 0 0 0];

internalField   nonuniform List<scalar> 
2268
(
6444.98
6412.25
6369.59
6315.73
6254.95
6190.33
6124.2
6058.38
5994.3
5932.98
5875.13
5821.42
5772.18
5727.54
5687.55
5652.27
5621.67
5595.52
5573.17
5553.34
5535.21
5519.46
5503.27
6451.74
6420.93
6379.3
6325.59
6264.01
6197.92
6129.84
6061.81
5995.37
5931.67
5871.58
5815.84
5764.86
5718.86
5677.89
5641.96
5610.97
5584.67
5562.51
5543.68
5527.41
5514.42
5500.28
6461.74
6430.41
6389.11
6335.63
6273.37
6205.88
6135.8
6065.33
5996.22
5929.77
5866.9
5808.65
5755.54
5707.87
5665.74
5629.14
5597.96
5571.97
5550.72
5533.59
5519.91
5509.39
5496.51
6475.84
6440.67
6397.93
6344.2
6281.39
6212.74
6140.91
6068.18
5996.49
5927.31
5861.56
5800.71
5745.41
5696.01
5652.68
5615.44
5584.21
5558.85
5539.02
5524.14
5513.1
5503.91
5490.85
6494.02
6453.13
6407.5
6352.79
6289.17
6219.26
6145.61
6070.59
5996.38
5924.68
5856.19
5793.16
5736.2
5685.59
5641.48
5603.9
5572.79
5548.08
5529.59
5516.76
5507.7
5498.7
5483.63
6516.36
6467.58
6417.37
6360.14
6294.52
6222.57
6147.06
6070.57
5995.65
5908.09
5786.89
5670.68
5555.43
5440.25
5329.71
5227.5
5136.62
5060.36
5002.03
4963.05
4935.85
4889.97
4806.77
6405.8
6182.86
5949.96
5696.42
5386.22
5023.78
4623.85
4202.37
3775.54
3381.4
3044.06
2744.52
2485.71
2272.07
2098.29
1959.06
1849.67
1767.47
1710.53
1675.09
1651.13
1607.25
1515.92
2884.05
2443.9
2139.03
1898.26
1680.07
1497.25
1359.97
1267.97
1213.92
1192.63
1187.11
1181.8
1176.51
1171.03
1165.36
1159.58
1153.69
1147.67
1141.46
1135.31
1130
1127.48
1127.91
3033.4
3071.57
3093.82
3083.57
3025.21
2881.25
2824.64
2776.72
2745.08
2718.76
2657.89
2630.68
2667.72
2693.53
2693.47
2693.11
2687.52
2683.43
2681.92
3000.9
3055.56
3089.55
3079.88
3060.55
3027.61
2961.43
2906.19
2850.16
2814.71
2738.62
2646.16
2697.82
2688.14
2688.48
2687.79
2686.86
2684.11
2682.08
2533.25
2606.19
2643.73
2620.1
2649.04
2706.98
2650.2
2507.46
2342.85
2350.8
2445.66
2493.85
2314.89
2361.07
2432.16
2473
2431.15
2372.45
2295.71
1744.4
1769.37
1857.97
1823.98
1704.5
1667.3
1518.36
1441.67
1480.33
1377.35
1464.92
1664.55
1690.72
1561.5
1377.03
1251.71
1324.53
1443.99
1655.86
1338.51
1365.24
1418.06
1580.34
1435.81
1247.39
1236.59
1232.17
1237.11
1219.44
1125.69
1029.38
1230.11
1109.38
1038.67
1091.38
1096.14
1106.08
1013.92
1383.98
1393.36
1391.17
1436.86
1515.39
1280.07
1317.49
1355.52
1366.47
1310.74
1150.84
1111.46
926.66
963.763
1121.49
1126.21
1123.85
1115.17
1036.05
1300.1
1222.28
1249.36
1290.89
1509.16
1454.08
1390.22
1413.99
1397.5
1233.2
1146.09
1132.72
959.864
1015.24
1125.19
1126.13
1124.09
1117.47
1075.36
1175.07
1208.73
1233.31
1185.24
1156.47
1438.73
1417.85
1377.07
1165.63
1144.57
1145.38
1136.52
941.143
1001.43
1122.69
1127.32
1125.56
1118.56
1058.01
1210.07
1209.73
1210.56
1210.05
1208.43
1206.27
1203.6
1200.47
1197
1193.27
1189.07
1184.4
1179.27
1173.69
1167.72
1161.51
1155.11
1148.61
1142.01
1135.64
1130.44
1128.18
1128.79
1213.78
1213.15
1212.89
1211.8
1210.26
1208.06
1205.27
1201.77
1197.8
1193.46
1188.78
1183.71
1178.23
1172.31
1166.06
1159.65
1152.04
1144.95
1136.44
1124.89
1112
1105.49
1101
1218.07
1218.13
1216.14
1215.26
1213.17
1210.71
1207.77
1203.56
1198.64
1193.25
1187.03
1179.6
1168.72
1151.04
1127.06
1097.87
1066.32
1036.18
994.029
937.512
895.921
868.072
862.294
1147.46
1173.2
1187.72
1166.64
1149.47
1148.26
1159.21
1118.76
1082.38
1064.56
1037.98
1000.51
950.078
883.903
826.618
798.902
770.618
727.23
701.19
712.781
719.585
736.389
728.656
960.69
883.194
831.732
805.251
790.518
787.897
744.592
724.714
712
689.356
665.517
642.97
652.793
703.5
721.574
705.145
692.741
727.346
746.651
749.167
751.518
753.59
747.758
692.061
725.892
736.643
737.682
737.93
719.115
708.284
720.578
733.796
733.97
734.402
736.445
736.819
737.089
738.311
740.569
742.968
744.814
746.88
749.21
751.407
753.619
756.124
736.326
738.027
738.782
739.113
738.929
738.427
738.174
737.255
736.244
735.555
735.396
735.471
735.833
736.489
737.807
739.699
741.917
744.132
746.478
749.007
751.577
753.977
755.995
664.535
676.775
685.478
685.968
680.293
667.605
651.647
634.179
616.621
601.375
587.593
575.75
565.813
558.92
560.481
571.359
587.588
604.515
623.685
647.851
674.526
700.202
719.702
96.6856
116.631
135.234
139.777
135.459
125.096
110.722
92.5883
74.3795
60.8118
52.0315
46.57
43.4706
42.8506
46.2496
54.3945
67.7317
85.5015
107.573
133.366
161.94
191.894
214.705
5.31949
5.31004
5.26784
5.26598
5.27398
5.28671
5.30176
5.31583
5.32071
5.31561
5.30805
5.30021
5.29078
5.27818
5.25851
5.2297
5.19111
5.14276
5.08533
5.02391
4.96239
4.89785
4.83936
5.33939
5.33935
5.33567
5.33262
5.33072
5.32907
5.32692
5.32175
5.30341
5.28537
5.26631
5.24599
5.22299
5.19625
5.16476
5.12805
5.08652
5.04112
4.9933
4.94512
4.89806
4.85363
4.80847
5.35028
5.34891
5.34473
5.33351
5.33012
5.33891
5.41015
5.44879
5.34945
5.28884
5.26965
5.24934
5.22631
5.1998
5.16907
5.13397
5.09464
5.05166
5.00603
4.95928
4.91314
4.87033
4.82756
5.36591
5.37793
5.38616
5.34769
5.33832
5.41472
5.49455
5.4873
5.44055
5.29433
5.27331
5.25326
5.22998
5.20373
5.17361
5.13971
5.10202
5.06076
5.01669
4.97127
4.92629
4.88439
4.84173
5.38077
5.42184
5.42345
5.38763
5.34989
5.42401
5.508
5.49916
5.47256
5.29734
5.28032
5.25751
5.23156
5.20392
5.17348
5.13999
5.10318
5.06319
5.02065
4.97694
4.93373
4.89329
4.85144
5.39273
5.43801
5.44
5.40391
5.36133
5.35209
5.4298
5.4993
5.3488
5.30264
5.28484
5.26351
5.23755
5.20554
5.17446
5.14134
5.10524
5.06632
5.02518
4.98299
4.9413
4.90248
4.86153
5.40234
5.42323
5.44552
5.38653
5.37427
5.36339
5.3498
5.33497
5.32052
5.3067
5.2915
5.27041
5.24282
5.21032
5.18
5.14719
5.11173
5.07375
5.03373
4.99275
4.95219
4.91433
4.87483
5.41257
5.41121
5.40494
5.39591
5.38734
5.37661
5.36363
5.34894
5.33304
5.31561
5.29672
5.27501
5.2485
5.21967
5.18954
5.15711
5.12223
5.08504
5.04598
5.006
4.96638
4.92933
4.89097
5.42292
5.41981
5.41467
5.40845
5.40034
5.38996
5.37734
5.36275
5.34651
5.32854
5.30841
5.28549
5.25985
5.23188
5.20214
5.17018
5.13595
5.09957
5.06139
5.02233
4.98358
4.94733
4.90993
5.43394
5.43115
5.42686
5.42109
5.41337
5.40337
5.39109
5.37672
5.3604
5.34217
5.322
5.2994
5.27404
5.2465
5.21719
5.18585
5.15239
5.11685
5.07956
5.0414
5.00353
4.96813
4.93157
5.44535
5.44309
5.43925
5.4338
5.42643
5.41686
5.40502
5.39101
5.37493
5.35682
5.33669
5.31441
5.28975
5.26294
5.23431
5.20373
5.17113
5.13651
5.10017
5.06296
5.02601
4.99149
4.95586
5.4568
5.45508
5.45166
5.44657
5.4396
5.43047
5.41913
5.40562
5.38999
5.37229
5.35254
5.3307
5.30681
5.28093
5.25316
5.22348
5.19185
5.15825
5.12295
5.08677
5.05082
5.01726
4.98249
5.46846
5.46711
5.46409
5.45943
5.45288
5.44423
5.43343
5.4205
5.40548
5.38841
5.36931
5.34821
5.32515
5.30022
5.27343
5.24479
5.21426
5.1818
5.14765
5.11263
5.07779
5.04526
5.01148
5.48019
5.47916
5.47659
5.47235
5.46625
5.45811
5.4479
5.43563
5.42132
5.40501
5.38673
5.36652
5.34444
5.32055
5.29488
5.26742
5.23811
5.20693
5.17408
5.14034
5.10678
5.07546
5.04269
5.49216
5.49136
5.48915
5.48533
5.47968
5.47209
5.46251
5.45094
5.43742
5.42196
5.40462
5.38543
5.36445
5.34173
5.3173
5.29114
5.2632
5.23343
5.20202
5.16975
5.13762
5.1077
5.07606
5.5043
5.50365
5.50177
5.49834
5.49315
5.48612
5.47719
5.46639
5.45371
5.43919
5.42287
5.40479
5.38501
5.36357
5.34049
5.31576
5.28931
5.26108
5.23127
5.20058
5.17005
5.14177
5.11108
5.51656
5.51605
5.51443
5.51136
5.50664
5.50017
5.49193
5.48191
5.47012
5.4566
5.44137
5.42448
5.40598
5.38591
5.36428
5.34108
5.31622
5.28966
5.26155
5.23259
5.20374
5.17691
5.148
5.52894
5.52852
5.52713
5.5244
5.52013
5.51424
5.50668
5.49747
5.48661
5.47412
5.46003
5.44439
5.42724
5.40861
5.38851
5.36692
5.34375
5.31895
5.29267
5.26554
5.23844
5.21317
5.18643
5.5414
5.54107
5.53989
5.53748
5.53364
5.52831
5.52144
5.51304
5.50312
5.49168
5.47877
5.46442
5.44866
5.43152
5.41302
5.39312
5.37174
5.34879
5.32443
5.29926
5.27406
5.25054
5.22596
5.55394
5.55369
5.55271
5.5506
5.54719
5.54241
5.53623
5.52864
5.51966
5.50929
5.49756
5.48452
5.47018
5.45459
5.43773
5.41957
5.40002
5.37901
5.35666
5.33351
5.31032
5.28868
5.26604
5.56654
5.56637
5.56557
5.56376
5.56077
5.55654
5.55104
5.54427
5.53622
5.52692
5.51639
5.50466
5.49176
5.47771
5.46251
5.44612
5.42845
5.40942
5.38912
5.36807
5.34695
5.3272
5.30663
5.57917
5.57909
5.57847
5.57695
5.57438
5.57069
5.56587
5.55989
5.55277
5.54452
5.53517
5.52474
5.51327
5.50077
5.48723
5.47261
5.45682
5.43979
5.4216
5.40269
5.38372
5.36599
5.34742
5.5918
5.59182
5.59139
5.59016
5.588
5.58485
5.58068
5.57548
5.56927
5.56204
5.55384
5.54469
5.53461
5.52363
5.51172
5.49885
5.48494
5.4699
5.45382
5.43713
5.42035
5.40469
5.38836
5.60442
5.60455
5.60431
5.60337
5.60162
5.59899
5.59546
5.59102
5.58567
5.57944
5.57234
5.56442
5.55569
5.54616
5.53584
5.52467
5.5126
5.49954
5.48557
5.47105
5.45648
5.44293
5.42872
5.61699
5.61725
5.61721
5.61658
5.61523
5.61312
5.6102
5.60648
5.60196
5.59666
5.59062
5.58386
5.57641
5.56828
5.55946
5.54993
5.53962
5.52847
5.51655
5.50417
5.49176
5.48022
5.46818
5.62947
5.62988
5.63006
5.62975
5.62881
5.6272
5.62488
5.62183
5.61809
5.61368
5.60862
5.60296
5.5967
5.58988
5.58248
5.57448
5.56584
5.55651
5.54654
5.53621
5.52588
5.51633
5.50628
5.64181
5.6424
5.64282
5.64284
5.64233
5.64121
5.63946
5.63707
5.63406
5.63047
5.62634
5.62169
5.61655
5.61093
5.60483
5.59825
5.59115
5.58351
5.57537
5.56699
5.55863
5.55095
5.54294
5.65395
5.65474
5.65543
5.65581
5.65575
5.65514
5.65395
5.65217
5.64985
5.64704
5.64376
5.64005
5.63593
5.6314
5.62649
5.62117
5.61547
5.60938
5.60295
5.59635
5.58983
5.5839
5.57765
5.66584
5.66684
5.66784
5.66865
5.66908
5.66899
5.66834
5.66715
5.66549
5.6634
5.66093
5.65809
5.65488
5.65134
5.64747
5.64326
5.6388
5.63412
5.62923
5.62429
5.61944
5.61507
5.61051
5.67741
5.67867
5.68012
5.68146
5.68242
5.68285
5.6827
5.68206
5.681
5.67959
5.67787
5.67585
5.67351
5.67086
5.66787
5.66461
5.66124
5.65783
5.65437
5.65093
5.64763
5.64476
5.64172
5.68871
5.6904
5.69258
5.69455
5.69599
5.69681
5.69707
5.69689
5.69637
5.69559
5.69459
5.69337
5.69192
5.69022
5.68814
5.68567
5.68331
5.68109
5.67893
5.6769
5.67505
5.67361
5.67237
5.69983
5.70227
5.70602
5.7084
5.71001
5.71099
5.7115
5.71169
5.71164
5.71143
5.71111
5.71071
5.71024
5.70989
5.70817
5.70639
5.70496
5.70385
5.70287
5.70203
5.70141
5.7012
5.70188
5.71623
5.71696
5.72036
5.72187
5.72283
5.72341
5.72378
5.72401
5.72415
5.72423
5.72428
5.72434
5.72445
5.72493
5.72446
5.72323
5.72262
5.7223
5.72208
5.72192
5.72188
5.72205
5.72298
1208.13
1299.75
1354.89
1356.82
1067.01
1044.8
1064.81
1091.36
868.707
834.234
799.12
826.912
694.08
693.981
694.428
702.798
741.318
741.64
753.827
760.67
757.412
757.972
758.273
758.179
756.896
757.315
757.685
758.05
726.886
730.879
734.034
737.296
218.241
221.661
226.051
232.273
4.79116
4.74615
4.69288
4.64225
4.75142
4.70059
4.64578
4.60372
4.77333
4.71901
4.65938
4.61246
4.78503
4.72824
4.66635
4.61851
4.79322
4.73509
4.67178
4.62328
4.80337
4.74481
4.68081
4.63189
4.81672
4.75805
4.69365
4.64445
4.83314
4.77463
4.71001
4.66071
4.85258
4.79397
4.72974
4.68058
4.87497
4.81661
4.7525
4.70391
4.90012
4.84238
4.7787
4.73063
4.92784
4.87095
4.80799
4.76054
4.95797
4.90214
4.84033
4.79373
4.99067
4.93617
4.87572
4.82994
5.02577
4.97313
4.91429
4.86928
5.06314
5.01231
4.95498
4.91131
5.10221
5.05331
4.99818
4.95601
5.14301
5.09636
5.04345
5.00303
5.18514
5.14106
5.09094
5.0523
5.22816
5.18692
5.13958
5.10308
5.2716
5.23333
5.18939
5.1552
5.31557
5.28048
5.23981
5.20814
5.35978
5.32803
5.29103
5.26175
5.40362
5.3753
5.34174
5.31502
5.4463
5.42136
5.39163
5.36749
5.48768
5.4661
5.43986
5.41843
5.52744
5.50912
5.4866
5.4677
5.56519
5.55002
5.53083
5.51459
5.60064
5.58838
5.57274
5.55913
5.63443
5.62498
5.61253
5.6016
5.66776
5.66117
5.65203
5.64346
5.70188
5.69882
5.69283
5.6859
5.72498
5.72479
5.72291
5.71962
1185.25
1155.23
1198.15
1182.34
1141.32
1099.52
1188.78
1128.69
1139.38
1142.43
1143.92
1130.22
899.097
1054.42
1134.15
1130.14
1124.96
1082.1
1050.13
1110.54
1114.77
1154.34
1110.42
1064.88
1124.53
1089.53
1057.04
1134.22
1142.05
1145.99
1147.66
1063.93
1130.67
1106
1033.69
1005.94
1061.78
1059.32
879.964
883.372
860.794
927.499
984.149
930.252
922.143
954.457
921.293
895.427
900.707
964.093
1019.61
946.043
847.427
835.456
876.842
923.78
965.691
724.358
707.104
704.228
739.379
738.28
698.205
724.005
716.951
756.711
765.821
767.335
769.062
776.393
772.408
774.809
776.629
792.488
811.527
797.328
760.782
758.121
757.821
757.184
757.915
718.169
674.752
723.923
764.996
766.211
767.619
768.902
770.633
771.878
773.089
773.563
772.486
770.878
770.274
758.093
758.702
759.107
759.401
760.635
761.966
760.434
764.779
765.97
766.9
767.997
769.068
770.295
771.22
771.938
772.146
771.552
770.411
770.257
758.688
759.63
760.425
761.137
762.338
764.149
765.645
766.25
766.674
767.408
768.246
769.071
769.946
770.603
771.102
771.367
772.951
774.064
770.525
742.91
750.666
758.137
760.606
761.284
763.687
765.627
766.57
767.088
767.685
768.333
768.974
769.588
769.689
773.534
790.074
801.959
798.688
780.527
240.78
244.458
254.278
281.238
326.318
372.127
403.765
417.388
421.097
422.942
424.708
426.648
428.542
424.005
404.788
377.929
352.245
342.166
349.844
4.58651
4.57472
4.56962
4.56965
4.56234
4.53071
4.49575
4.4863
4.51625
4.64156
5.27797
6.11891
6.66501
10.7355
26.252
35.0735
37.4016
35.2901
33.5167
4.56401
4.54413
4.534
4.69458
4.98748
5.11276
4.92061
4.55048
4.64911
4.78201
5.16992
5.514
6.14468
6.56411
4.50967
4.49338
4.50096
4.51258
4.51746
4.56944
4.55079
4.53566
4.88779
5.27134
5.25727
5.12689
4.64729
4.54206
4.60237
4.90717
5.09761
5.06056
4.83093
4.51366
4.50806
4.51287
4.51763
4.5207
4.57508
4.55523
4.53742
4.55661
4.49421
4.47955
4.47259
4.48956
4.47872
4.48678
4.57932
4.81413
4.73298
4.57537
4.50418
4.50919
4.51548
4.52106
4.5259
4.58056
4.56108
4.54281
4.52322
4.5056
4.49249
4.48506
4.48231
4.48226
4.48484
4.48018
4.48124
4.48776
4.49726
4.50816
4.516
4.52328
4.52926
4.53278
4.58919
4.5703
4.55271
4.5347
4.51901
4.507
4.4992
4.49533
4.49379
4.49367
4.49388
4.49651
4.50235
4.51046
4.51951
4.52764
4.53502
4.54073
4.5437
4.60181
4.58348
4.56664
4.54972
4.53509
4.52365
4.51575
4.51117
4.50899
4.50863
4.50998
4.51324
4.51883
4.52616
4.53443
4.54232
4.54944
4.55492
4.55743
4.61826
4.60037
4.58412
4.56788
4.55388
4.54278
4.53486
4.52992
4.52746
4.52709
4.52862
4.53203
4.53736
4.54419
4.55185
4.55945
4.56636
4.57149
4.57348
4.63838
4.62085
4.60508
4.58929
4.57564
4.56471
4.55673
4.55155
4.54885
4.54833
4.5498
4.55312
4.55816
4.56457
4.57176
4.57904
4.58563
4.59046
4.59216
4.6621
4.64486
4.62949
4.61402
4.60057
4.58969
4.58159
4.57617
4.5732
4.57242
4.57364
4.57669
4.58137
4.58734
4.59408
4.60097
4.60722
4.61179
4.61345
4.68922
4.67232
4.65729
4.64204
4.62868
4.61775
4.60948
4.60377
4.60045
4.59932
4.60016
4.60281
4.60704
4.61252
4.61879
4.62526
4.63116
4.63552
4.63728
4.71982
4.70317
4.68843
4.67331
4.65995
4.6489
4.64037
4.63432
4.63059
4.629
4.62938
4.63153
4.63524
4.64019
4.64595
4.65198
4.65757
4.6618
4.66373
4.75372
4.73739
4.72286
4.7078
4.69437
4.68313
4.67429
4.66783
4.66362
4.66151
4.66133
4.66292
4.66604
4.67041
4.67564
4.68124
4.68654
4.69071
4.69278
4.79095
4.77493
4.7605
4.74545
4.73192
4.72043
4.71123
4.7043
4.69954
4.69684
4.69605
4.69701
4.69949
4.70326
4.70796
4.71312
4.71815
4.72226
4.72443
4.8312
4.81557
4.80123
4.78618
4.7725
4.76074
4.75113
4.7437
4.73836
4.73501
4.73354
4.73381
4.73563
4.73877
4.74291
4.74763
4.75239
4.75643
4.75863
4.8744
4.85919
4.84493
4.82986
4.81603
4.80397
4.79394
4.78596
4.78
4.77598
4.77379
4.77332
4.77443
4.77691
4.78046
4.78472
4.78917
4.79309
4.79525
4.92026
4.90556
4.89138
4.87632
4.86234
4.84998
4.83951
4.83099
4.82439
4.81966
4.81673
4.8155
4.81586
4.81763
4.82056
4.82431
4.8284
4.83213
4.83429
4.96871
4.9544
4.94037
4.92533
4.91122
4.89858
4.88768
4.87861
4.87137
4.86592
4.86222
4.86021
4.8598
4.86084
4.86311
4.86629
4.86996
4.87346
4.87552
5.01928
5.00543
4.99158
4.97661
4.96241
4.94951
4.9382
4.9286
4.92071
4.91454
4.91007
4.90727
4.90605
4.90632
4.90788
4.91045
4.91364
4.91682
4.91876
5.07178
5.05829
5.04467
5.02983
5.01558
5.00246
4.99078
4.98067
4.97216
4.96527
4.96003
4.9564
4.95436
4.95383
4.95463
4.95652
4.95918
4.96199
4.96374
5.1256
5.11259
5.09924
5.08458
5.07035
5.05707
5.04508
5.03449
5.02538
5.0178
5.01178
5.00733
5.00444
5.00306
5.00307
5.00425
5.0063
5.00863
5.01025
5.1805
5.16787
5.15483
5.14042
5.12628
5.11293
5.10068
5.08969
5.08003
5.07179
5.065
5.05972
5.05596
5.05372
5.05289
5.05331
5.05473
5.05659
5.05803
5.23576
5.2236
5.21091
5.19683
5.18289
5.16956
5.15717
5.14585
5.13572
5.12686
5.11934
5.11324
5.10861
5.10548
5.1038
5.10345
5.10421
5.1056
5.10689
5.29097
5.27919
5.26694
5.2533
5.23969
5.22652
5.2141
5.20258
5.19208
5.18268
5.17448
5.16759
5.16209
5.15805
5.1555
5.15437
5.15449
5.15547
5.1566
5.34529
5.33409
5.32237
5.30932
5.29619
5.28335
5.27107
5.25951
5.24876
5.23893
5.23013
5.22249
5.21614
5.2112
5.20776
5.20587
5.20538
5.20602
5.20704
5.39838
5.38775
5.37671
5.36442
5.35197
5.33966
5.32774
5.31631
5.3055
5.29539
5.2861
5.27778
5.27061
5.26476
5.26044
5.25777
5.25676
5.25715
5.25812
5.44958
5.43976
5.42955
5.41822
5.40668
5.39515
5.38383
5.37278
5.36213
5.35193
5.34231
5.33343
5.32549
5.31875
5.31352
5.31012
5.30863
5.30884
5.30987
5.49872
5.48978
5.48059
5.47045
5.46007
5.44962
5.4392
5.42882
5.41861
5.40858
5.39884
5.38958
5.38097
5.37337
5.36724
5.36304
5.36111
5.36126
5.36239
5.54552
5.5377
5.52969
5.52098
5.51209
5.50306
5.49392
5.48454
5.47508
5.46554
5.45602
5.44661
5.43751
5.42916
5.42214
5.41711
5.41462
5.41463
5.41591
5.59045
5.5837
5.57701
5.56994
5.56291
5.55577
5.54832
5.5403
5.53194
5.52331
5.51451
5.50529
5.49602
5.48719
5.47941
5.47338
5.46997
5.46949
5.4706
5.63414
5.62832
5.62302
5.61781
5.613
5.60857
5.60296
5.597
5.58981
5.58259
5.57571
5.56679
5.55786
5.54917
5.54104
5.53397
5.52888
5.52653
5.52658
5.67625
5.67082
5.66706
5.66381
5.66142
5.66171
5.65668
5.65493
5.64748
5.64235
5.64066
5.63063
5.62278
5.61544
5.60817
5.60076
5.59349
5.58698
5.58386
5.71343
5.71038
5.70875
5.7075
5.70665
5.70838
5.70611
5.70647
5.70292
5.70058
5.70159
5.69624
5.69222
5.68888
5.68549
5.68152
5.67636
5.66895
5.66518
)
;

boundaryField
{
    leftWall
    {
        type            fixedFluxPressure;
        gradient        uniform 0;
        value           nonuniform List<scalar> 
50
(
6444.98
6451.74
6461.74
6475.84
6494.02
6516.36
6405.8
2884.05
1210.07
1213.78
1218.07
1147.46
960.69
692.061
736.326
664.535
96.6856
5.31949
5.33939
5.35028
5.36591
5.38077
5.39273
5.40234
5.41257
5.42292
5.43394
5.44535
5.4568
5.46846
5.48019
5.49216
5.5043
5.51656
5.52894
5.5414
5.55394
5.56654
5.57917
5.5918
5.60442
5.61699
5.62947
5.64181
5.65395
5.66584
5.67741
5.68871
5.69983
5.71623
)
;
    }
    rightWall
    {
        type            fixedFluxPressure;
        gradient        uniform 0;
        value           nonuniform List<scalar> 
50
(
2681.92
2682.08
2295.71
1655.86
1013.92
1036.05
1075.36
1058.01
1050.13
1059.32
965.691
797.328
770.274
770.257
770.525
780.527
349.844
33.5167
4.51746
4.5207
4.5259
4.53278
4.5437
4.55743
4.57348
4.59216
4.61345
4.63728
4.66373
4.69278
4.72443
4.75863
4.79525
4.83429
4.87552
4.91876
4.96374
5.01025
5.05803
5.10689
5.1566
5.20704
5.25812
5.30987
5.36239
5.41591
5.4706
5.52658
5.58386
5.66518
)
;
    }
    lowerWall
    {
        type            fixedFluxPressure;
        gradient        uniform 0;
        value           nonuniform List<scalar> 
62
(
6444.98
6412.25
6369.59
6315.73
6254.95
6190.33
6124.2
6058.38
5994.3
5932.98
5875.13
5821.42
5772.18
5727.54
5687.55
5652.27
5621.67
5595.52
5573.17
5553.34
5535.21
5519.46
5503.27
5503.27
5500.28
5496.51
5490.85
5483.63
4806.77
1515.92
1127.91
1208.13
1299.75
1354.89
1356.82
3033.4
3000.9
2533.25
1744.4
1338.51
1383.98
1300.1
1175.07
3033.4
3071.57
3093.82
3083.57
3025.21
2881.25
2824.64
2776.72
2745.08
2718.76
2657.89
2630.68
2667.72
2693.53
2693.47
2693.11
2687.52
2683.43
2681.92
)
;
    }
    atmosphere
    {
        type            prghTotalPressure;
        rho             rho;
        psi             none;
        gamma           1;
        p0              uniform 0;
        value           nonuniform List<scalar> 
46
(
5.72904
5.72904
5.72904
5.72904
5.72904
5.72904
5.72904
5.72904
5.72904
5.72904
5.72904
5.72904
5.72904
5.72904
5.72904
5.72904
5.72904
5.72904
5.72904
5.72904
5.72904
5.72904
5.72904
5.72904
5.72904
5.72904
5.72904
5.72904
5.72904
5.72904
5.72904
5.72904
5.72904
5.72904
5.72904
5.72904
5.72904
5.72904
5.72904
5.72904
5.72904
5.72904
5.72904
5.72904
5.72904
5.72904
)
;
        rho             rho;
    }
    defaultFaces
    {
        type            empty;
    }
}


// ************************************************************************* //
