/*--------------------------------*- C++ -*----------------------------------*\
  =========                 |
  \\      /  F ield         | OpenFOAM: The Open Source CFD Toolbox
   \\    /   O peration     | Website:  https://openfoam.org
    \\  /    A nd           | Version:  13
     \\/     M anipulation  |
\*---------------------------------------------------------------------------*/
FoamFile
{
    format      ascii;
    class       surfaceScalarField;
    location    "3";
    object      phi;
}
// * * * * * * * * * * * * * * * * * * * * * * * * * * * * * * * * * * * * * //

dimensions      [0 3 -1 0 0 0 0];

internalField   nonuniform List<scalar> 
4432
(
-1.86044e-07
1.86046e-07
-1.20387e-06
1.01782e-06
-2.53489e-06
1.33101e-06
-3.78447e-06
1.24957e-06
-4.84902e-06
1.06454e-06
-5.69044e-06
8.41408e-07
-6.30035e-06
6.09906e-07
-6.68719e-06
3.86833e-07
-6.86679e-06
1.79603e-07
-6.85748e-06
-9.31197e-09
-6.68378e-06
-1.737e-07
-6.36756e-06
-3.16211e-07
-5.93541e-06
-4.32138e-07
-5.41621e-06
-5.19195e-07
-4.83532e-06
-5.80879e-07
-4.21005e-06
-6.25252e-07
-3.54827e-06
-6.6177e-07
-2.84694e-06
-7.01316e-07
-2.09666e-06
-7.50267e-07
-1.30296e-06
-7.93685e-07
-5.29645e-07
-7.73309e-07
-4.61032e-08
-4.83535e-07
-4.60903e-08
-5.78994e-07
7.65032e-07
-1.65638e-06
2.0952e-06
-2.83653e-06
2.51114e-06
-3.93338e-06
2.3464e-06
-4.85753e-06
1.98866e-06
-5.57821e-06
1.56208e-06
-6.08816e-06
1.11984e-06
-6.3934e-06
6.92062e-07
-6.50698e-06
2.93168e-07
-6.44715e-06
-6.91481e-08
-6.23795e-06
-3.82906e-07
-5.90309e-06
-6.51075e-07
-5.46934e-06
-8.65886e-07
-4.96495e-06
-1.02359e-06
-4.41544e-06
-1.13039e-06
-3.84074e-06
-1.19995e-06
-3.25369e-06
-1.24883e-06
-2.65903e-06
-1.29598e-06
-2.05574e-06
-1.35355e-06
-1.44315e-06
-1.40628e-06
-8.44702e-07
-1.37177e-06
-3.06629e-07
-1.02162e-06
-3.52747e-07
-9.01517e-07
1.66655e-06
-1.95085e-06
3.14453e-06
-2.99333e-06
3.55362e-06
-3.94488e-06
3.29796e-06
-4.74194e-06
2.78573e-06
-5.35957e-06
2.17971e-06
-5.79078e-06
1.55105e-06
-6.03929e-06
9.40576e-07
-6.11502e-06
3.68892e-07
-6.03324e-06
-1.50924e-07
-5.81702e-06
-5.99133e-07
-5.48823e-06
-9.79863e-07
-5.07232e-06
-1.28181e-06
-4.59594e-06
-1.49997e-06
-4.08381e-06
-1.64252e-06
-3.55668e-06
-1.72709e-06
-3.0303e-06
-1.77522e-06
-2.51396e-06
-1.81233e-06
-2.01004e-06
-1.85748e-06
-1.51533e-06
-1.90099e-06
-1.02557e-06
-1.86153e-06
-5.10967e-07
-1.53623e-06
-8.63713e-07
-1.09643e-06
2.76301e-06
-2.12924e-06
4.17737e-06
-3.06261e-06
4.48702e-06
-3.88812e-06
4.12349e-06
-4.57407e-06
3.47171e-06
-5.10373e-06
2.70939e-06
-5.47093e-06
1.91827e-06
-5.67766e-06
1.14731e-06
-5.73089e-06
4.22127e-07
-5.64165e-06
-2.40182e-07
-5.43061e-06
-8.10189e-07
-5.11687e-06
-1.29361e-06
-4.72421e-06
-1.67449e-06
-4.27762e-06
-1.94658e-06
-3.8006e-06
-2.11958e-06
-3.314e-06
-2.21371e-06
-2.8354e-06
-2.25384e-06
-2.3772e-06
-2.27056e-06
-1.94441e-06
-2.29029e-06
-1.53139e-06
-2.31404e-06
-1.11497e-06
-2.27797e-06
-6.17734e-07
-2.03349e-06
-1.48148e-06
-1.18612e-06
3.94915e-06
-2.20969e-06
5.20097e-06
-3.05684e-06
5.3342e-06
-3.77584e-06
4.84251e-06
-4.36738e-06
4.06327e-06
-4.8242e-06
3.16623e-06
-5.14112e-06
2.23519e-06
-5.3188e-06
1.32499e-06
-5.36126e-06
4.64592e-07
-5.2736e-06
-3.27846e-07
-5.07406e-06
-1.00972e-06
-4.77835e-06
-1.58932e-06
-4.40973e-06
-2.0431e-06
-3.99149e-06
-2.36482e-06
-3.54538e-06
-2.56568e-06
-3.09159e-06
-2.66748e-06
-2.64852e-06
-2.6969e-06
-2.23064e-06
-2.68842e-06
-1.84553e-06
-2.67538e-06
-1.48719e-06
-2.67235e-06
-1.12174e-06
-2.64341e-06
-6.51097e-07
-2.50411e-06
-2.13255e-06
-1.20226e-06
5.15145e-06
-2.21311e-06
6.21185e-06
-2.98506e-06
6.10615e-06
-3.61156e-06
5.46901e-06
-4.12317e-06
4.57487e-06
-4.52007e-06
3.56312e-06
-4.79719e-06
2.51228e-06
-4.95411e-06
1.4819e-06
-4.99657e-06
5.07057e-07
-4.92318e-06
-4.01231e-07
-4.73804e-06
-1.19484e-06
-4.46204e-06
-1.86529e-06
-4.11807e-06
-2.38704e-06
-3.72599e-06
-2.75687e-06
-3.30575e-06
-2.98588e-06
-2.87627e-06
-3.09693e-06
-2.45589e-06
-3.11725e-06
-2.06055e-06
-3.08373e-06
-1.70173e-06
-3.03415e-06
-1.37846e-06
-2.99559e-06
-1.05718e-06
-2.96465e-06
-6.63281e-07
-2.89796e-06
-2.79583e-06
-1.25287e-06
6.40433e-06
-2.15451e-06
7.11345e-06
-2.83543e-06
6.78703e-06
-3.37391e-06
6.00745e-06
-3.81539e-06
5.01633e-06
-4.16153e-06
3.90923e-06
-4.40401e-06
2.75476e-06
-4.53853e-06
1.61641e-06
-4.57029e-06
5.38822e-07
-4.49427e-06
-4.77245e-07
-4.30334e-06
-1.38577e-06
-4.02711e-06
-2.1415e-06
-3.68915e-06
-2.72497e-06
-3.30779e-06
-3.1382e-06
-2.90128e-06
-3.39235e-06
-2.48605e-06
-3.51213e-06
-2.07873e-06
-3.52454e-06
-1.69526e-06
-3.46716e-06
-1.35253e-06
-3.37685e-06
-1.05932e-06
-3.28875e-06
-7.93118e-07
-3.2308e-06
-5.42922e-07
-3.14812e-06
-3.33876e-06
-1.24033e-06
7.6447e-06
-1.98463e-06
7.85769e-06
-2.53236e-06
7.33467e-06
-2.96001e-06
6.43502e-06
-3.31355e-06
5.36981e-06
-3.58923e-06
4.18488e-06
-3.77276e-06
2.93827e-06
-3.8555e-06
1.69915e-06
-3.82917e-06
5.12481e-07
-3.68309e-06
-6.23318e-07
-3.42462e-06
-1.64424e-06
-3.07955e-06
-2.48657e-06
-2.67392e-06
-3.13061e-06
-2.23496e-06
-3.57715e-06
-1.78453e-06
-3.84278e-06
-1.33796e-06
-3.95869e-06
-9.10609e-07
-3.95189e-06
-5.20028e-07
-3.85774e-06
-1.96704e-07
-3.70017e-06
2.40514e-08
-3.5095e-06
1.1308e-07
-3.31982e-06
6.42774e-08
-3.09931e-06
-3.2745e-06
1.17962e-06
-1.17962e-06
3.39513e-06
-2.21552e-06
5.2202e-06
-1.82507e-06
6.19781e-06
-9.77604e-07
6.37651e-06
-1.78702e-07
4.71704e-06
1.65948e-06
3.16778e-06
1.54927e-06
1.77363e-06
1.39416e-06
9.06631e-07
8.67001e-07
1.27304e-06
-3.66402e-07
6.77307e-07
5.95736e-07
-7.55264e-07
1.43258e-06
-4.47138e-07
-3.08122e-07
8.47924e-08
-5.31926e-07
3.0268e-07
-2.17883e-07
4.13051e-07
-1.10368e-07
3.93628e-07
1.94262e-08
3.91499e-07
2.13378e-09
3.91502e-07
1.59037e-06
-2.77e-06
3.35349e-06
-3.97864e-06
4.83103e-06
-3.30261e-06
5.28703e-06
-1.4336e-06
4.81795e-06
2.90391e-07
4.4635e-06
2.01394e-06
3.55105e-06
2.46172e-06
2.61636e-06
2.32886e-06
1.64138e-06
1.84199e-06
8.41714e-07
4.33272e-07
6.41775e-07
7.95684e-07
1.05149e-06
1.02287e-06
8.18587e-07
-7.52081e-08
5.5538e-07
-2.68711e-07
3.82824e-07
-4.53214e-08
2.51715e-07
2.07463e-08
1.35539e-07
1.35608e-07
-1.14947e-09
1.38829e-07
3.90359e-07
1.60956e-06
-4.37954e-06
2.71217e-06
-5.08122e-06
4.04236e-06
-4.63277e-06
5.02243e-06
-2.41366e-06
5.03946e-06
2.73352e-07
4.69591e-06
2.35747e-06
3.98957e-06
3.16803e-06
3.24622e-06
3.07219e-06
2.7972e-06
2.29099e-06
1.68473e-06
1.54574e-06
1.22316e-06
1.25726e-06
1.75865e-06
4.8738e-07
1.52211e-06
1.61329e-07
9.70208e-07
2.83185e-07
5.08753e-07
4.16131e-07
8.11096e-08
4.48391e-07
-1.63715e-07
3.80434e-07
-5.26081e-07
5.01197e-07
-1.35722e-07
1.21248e-06
-5.59203e-06
1.72121e-06
-5.58994e-06
2.64595e-06
-5.55748e-06
4.3914e-06
-4.15909e-06
5.37233e-06
-7.0759e-07
4.86797e-06
2.86183e-06
4.34682e-06
3.68917e-06
4.0958e-06
3.3232e-06
4.4703e-06
1.9165e-06
3.78637e-06
2.22968e-06
2.91686e-06
2.12678e-06
2.43227e-06
9.71981e-07
1.99054e-06
6.03079e-07
9.15498e-07
1.35823e-06
3.48193e-07
9.83447e-07
6.81556e-08
7.28442e-07
2.03359e-07
2.45243e-07
7.26767e-07
-2.21964e-08
5.91071e-07
6.78794e-07
-6.27082e-06
9.36142e-07
-5.84726e-06
1.38106e-06
-6.00237e-06
2.51764e-06
-5.29566e-06
4.32766e-06
-2.51761e-06
4.09194e-06
3.09754e-06
4.43261e-06
3.34849e-06
5.30014e-06
2.45567e-06
6.13835e-06
1.07829e-06
6.65736e-06
1.71066e-06
5.93585e-06
2.84829e-06
4.63986e-06
2.26798e-06
1.68004e-06
3.56292e-06
-8.20018e-07
3.85829e-06
-4.12818e-07
5.7625e-07
9.1271e-07
-5.9708e-07
2.47754e-06
-1.31958e-06
5.39975e-06
-2.9444e-06
5.99083e-06
8.20251e-07
-7.09104e-06
5.94429e-07
-5.62143e-06
1.06833e-06
-6.47625e-06
1.16916e-06
-5.39647e-06
2.1466e-06
-3.49504e-06
3.21788e-06
2.02629e-06
4.20136e-06
2.36505e-06
5.334e-06
1.32309e-06
6.18727e-06
2.25043e-07
6.73101e-06
1.16693e-06
6.98899e-06
2.59033e-06
7.09081e-06
2.16618e-06
1.18592e-06
9.46783e-06
-1.57981e-06
6.62403e-06
-1.86695e-07
-8.16838e-07
1.42322e-06
-2.20697e-06
3.2987e-06
-3.19504e-06
4.6642e-06
-4.30989e-06
1.06551e-05
6.57068e-07
-7.74809e-06
3.74324e-07
-5.3387e-06
9.50557e-07
-7.05248e-06
1.02657e-06
-5.47246e-06
9.79277e-07
-3.44772e-06
2.37759e-06
6.28005e-07
3.7048e-06
1.03789e-06
4.73319e-06
2.9473e-07
5.05818e-06
-9.99308e-08
5.3572e-06
8.6792e-07
6.15089e-06
1.79665e-06
6.03072e-06
2.28636e-06
1.46162e-06
1.40369e-05
-2.61339e-07
8.34701e-06
4.92363e-07
-1.57051e-06
1.6202e-06
-3.3348e-06
2.78152e-06
-4.35635e-06
3.23148e-06
-4.75982e-06
1.38866e-05
2.81998e-07
-8.03008e-06
2.04005e-07
-5.26069e-06
7.6426e-07
-7.61274e-06
1.06699e-06
-5.77518e-06
7.27587e-07
-3.10831e-06
1.61879e-06
-2.63189e-07
2.88416e-06
-2.27476e-07
3.36424e-06
-1.85342e-07
3.39185e-06
-1.27537e-07
3.68892e-06
5.70844e-07
4.42426e-06
1.06132e-06
4.38462e-06
2.32599e-06
1.61126e-06
1.68103e-05
1.09423e-06
8.86406e-06
1.27101e-06
-1.74728e-06
1.53148e-06
-3.59526e-06
1.77138e-06
-4.59623e-06
1.57693e-06
-4.56537e-06
1.54635e-05
-2.88111e-06
1.05258e-05
-3.52462e-06
8.50115e-06
-3.65488e-06
7.4649e-06
-3.64738e-06
6.42748e-06
-3.51144e-06
5.23385e-06
-3.22444e-06
3.89788e-06
-2.82101e-06
2.53484e-06
-2.37081e-06
1.24896e-06
-1.88003e-06
2.16969e-08
-1.31336e-06
-1.19e-06
-6.79647e-07
-2.27798e-06
2.04034e-08
-3.18666e-06
7.60383e-07
-3.87064e-06
1.49616e-06
-4.313e-06
2.19494e-06
-4.54164e-06
2.85181e-06
-4.61564e-06
3.44931e-06
-4.54947e-06
3.95827e-06
-4.36678e-06
4.28096e-06
-4.02295e-06
4.2743e-06
-3.50293e-06
3.75302e-06
-2.79863e-06
2.38264e-06
-1.72903e-06
1.08394e-07
-1.00031e-06
-2.60901e-07
1.07867e-05
5.60948e-08
8.18426e-06
6.68401e-07
6.85271e-06
1.34012e-06
5.75587e-06
2.04203e-06
4.53204e-06
2.82585e-06
3.11414e-06
3.63275e-06
1.72798e-06
4.32593e-06
5.55814e-07
4.90834e-06
-5.60713e-07
5.40474e-06
-1.68641e-06
5.8444e-06
-2.71765e-06
6.23203e-06
-3.57432e-06
6.57226e-06
-4.21091e-06
6.83713e-06
-4.57791e-06
7.00657e-06
-4.71112e-06
7.09054e-06
-4.69965e-06
7.07827e-06
-4.53725e-06
6.95964e-06
-4.2482e-06
6.64802e-06
-3.71136e-06
6.02924e-06
-2.88418e-06
5.11875e-06
-1.88818e-06
4.03305e-06
-6.43356e-07
8.66278e-07
3.27515e-06
1.71365e-06
9.07308e-06
3.10656e-06
6.79141e-06
4.36635e-06
5.59299e-06
5.37062e-06
4.75166e-06
6.31156e-06
3.59113e-06
7.30091e-06
2.12481e-06
8.29973e-06
7.2917e-07
9.0093e-06
-1.53746e-07
9.48115e-06
-1.03256e-06
9.78634e-06
-1.99159e-06
9.90046e-06
-2.83177e-06
9.83492e-06
-3.50878e-06
9.65034e-06
-4.02633e-06
9.34406e-06
-4.27162e-06
8.88107e-06
-4.24811e-06
8.3146e-06
-4.13317e-06
7.61748e-06
-3.84011e-06
6.70215e-06
-3.33286e-06
5.57195e-06
-2.58114e-06
4.36805e-06
-1.68027e-06
3.08965e-06
-6.09763e-07
1.94901e-06
4.97299e-07
1.81809e-06
9.97178e-07
4.1006e-06
4.97243e-06
5.67231e-06
5.21966e-06
7.00612e-06
4.25915e-06
8.25687e-06
3.50088e-06
9.43621e-06
2.41177e-06
1.05366e-05
1.02446e-06
1.12873e-05
-2.1556e-08
1.18657e-05
-7.32173e-07
1.22001e-05
-1.36703e-06
1.22066e-05
-1.99803e-06
1.18589e-05
-2.48405e-06
1.11559e-05
-2.80576e-06
1.02632e-05
-3.13359e-06
9.4213e-06
-3.42972e-06
8.45489e-06
-3.28167e-06
7.19403e-06
-2.87228e-06
5.61771e-06
-2.26376e-06
3.97619e-06
-1.69132e-06
2.33517e-06
-9.40101e-07
8.61777e-07
-2.06866e-07
-4.13096e-07
6.65126e-07
-1.39364e-06
1.47784e-06
2.56647e-06
-2.14201e-06
3.33791e-06
1.63445e-06
6.00716e-06
2.55034e-06
8.07715e-06
2.18909e-06
1.00002e-05
1.57778e-06
1.16718e-05
7.40087e-07
1.27519e-05
-5.56011e-08
1.31981e-05
-4.67862e-07
1.3523e-05
-1.05703e-06
1.3699e-05
-1.54301e-06
1.33336e-05
-1.63271e-06
1.25216e-05
-1.67205e-06
1.13101e-05
-1.59422e-06
9.88601e-06
-1.70944e-06
8.50518e-06
-2.04886e-06
7.04413e-06
-1.82058e-06
5.27145e-06
-1.09955e-06
3.30146e-06
-2.93738e-07
1.4976e-06
1.12579e-07
-1.24158e-07
6.81682e-07
-1.66197e-06
1.33097e-06
-2.95697e-06
1.96014e-06
-4.03103e-06
2.55194e-06
3.23956e-06
-4.70411e-06
1.86758e-06
-2.33225e-07
5.42603e-06
-1.00821e-06
8.46878e-06
-8.53729e-07
1.09189e-05
-8.72432e-07
1.27268e-05
-1.06781e-06
1.3777e-05
-1.10585e-06
1.44299e-05
-1.12078e-06
1.47044e-05
-1.33157e-06
1.45686e-05
-1.40723e-06
1.40561e-05
-1.12012e-06
1.31474e-05
-7.63378e-07
1.19701e-05
-4.16863e-07
1.04747e-05
-2.14091e-07
8.53265e-06
-1.06741e-07
6.41196e-06
3.00142e-07
4.3203e-06
9.92142e-07
2.33143e-06
1.69517e-06
2.61291e-07
2.18276e-06
-1.68265e-06
2.62566e-06
-3.37961e-06
3.02797e-06
-4.7578e-06
3.33837e-06
-5.77902e-06
3.57317e-06
3.78763e-06
-6.32706e-06
4.06706e-06
-4.3003e-06
7.05498e-06
-3.99614e-06
9.69012e-06
-3.48887e-06
1.1924e-05
-3.10632e-06
1.35989e-05
-2.74269e-06
1.47791e-05
-2.28606e-06
1.56018e-05
-1.94351e-06
1.58663e-05
-1.59605e-06
1.56021e-05
-1.14302e-06
1.48811e-05
-3.99078e-07
1.38369e-05
2.80771e-07
1.24499e-05
9.70155e-07
1.06836e-05
1.55215e-06
8.50394e-06
2.07294e-06
6.11245e-06
2.69161e-06
3.72274e-06
3.38183e-06
1.4207e-06
3.99719e-06
-8.28082e-07
4.43151e-06
-2.91889e-06
4.71645e-06
-4.70238e-06
4.81144e-06
-6.08203e-06
4.718e-06
-7.02449e-06
4.51563e-06
4.30167e-06
-7.53853e-06
4.41266e-06
-8.71276e-06
7.6289e-06
-7.21189e-06
1.03729e-05
-6.23243e-06
1.261e-05
-5.34312e-06
1.43618e-05
-4.49424e-06
1.56546e-05
-3.57871e-06
1.64355e-05
-2.72432e-06
1.66485e-05
-1.80901e-06
1.62506e-05
-7.451e-07
1.54638e-05
3.87652e-07
1.42538e-05
1.4907e-06
1.26786e-05
2.54526e-06
1.06908e-05
3.53977e-06
8.27745e-06
4.48608e-06
5.63274e-06
5.3361e-06
2.99067e-06
6.02363e-06
4.8456e-07
6.503e-06
-1.86282e-06
6.77858e-06
-3.96208e-06
6.8154e-06
-5.69905e-06
6.54812e-06
-7.01148e-06
6.03016e-06
-7.8965e-06
5.40041e-06
4.88076e-06
-8.47577e-06
3.20681e-06
-1.19193e-05
6.95107e-06
-1.09547e-05
1.03226e-05
-9.60314e-06
1.28343e-05
-7.85434e-06
1.47279e-05
-6.38751e-06
1.60997e-05
-4.95032e-06
1.69427e-05
-3.56717e-06
1.70796e-05
-1.9458e-06
1.64853e-05
-1.50792e-07
1.53974e-05
1.4754e-06
1.3982e-05
2.90589e-06
1.22179e-05
4.30901e-06
1.00198e-05
5.73739e-06
7.3674e-06
7.13791e-06
4.51769e-06
8.18519e-06
1.75032e-06
8.79037e-06
-7.57812e-07
9.01055e-06
-2.97593e-06
8.99616e-06
-4.84824e-06
8.68725e-06
-6.35241e-06
8.05189e-06
-7.47724e-06
7.15466e-06
-8.17585e-06
6.09878e-06
5.28281e-06
-8.57812e-06
7.1846e-06
-1.91057e-05
7.56918e-06
-1.13395e-05
9.51453e-06
-1.15485e-05
1.18677e-05
-1.02075e-05
1.37043e-05
-8.22414e-06
1.4958e-05
-6.20399e-06
1.55538e-05
-4.16306e-06
1.55157e-05
-1.90782e-06
1.49117e-05
4.53038e-07
1.38089e-05
2.57812e-06
1.23319e-05
4.3826e-06
1.05608e-05
6.07986e-06
8.58927e-06
7.70856e-06
6.52649e-06
9.20028e-06
4.39222e-06
1.0319e-05
2.21329e-06
1.09688e-05
4.6935e-08
1.11764e-05
-1.96943e-06
1.1012e-05
-3.72849e-06
1.04458e-05
-5.20214e-06
9.52508e-06
-6.39682e-06
8.3489e-06
-7.24042e-06
6.94194e-06
5.72155e-06
-7.67935e-06
-1.84325e-06
-1.72646e-05
1.4482e-07
-1.33305e-05
8.46722e-07
-1.22522e-05
1.2471e-06
-1.06092e-05
1.66845e-06
-8.64648e-06
2.36175e-06
-6.89805e-06
3.45699e-06
-5.25889e-06
4.58994e-06
-3.04121e-06
5.02672e-06
1.5956e-08
4.84039e-06
2.76429e-06
4.31693e-06
4.90606e-06
3.69739e-06
6.69955e-06
3.12559e-06
8.28065e-06
2.68371e-06
9.64255e-06
2.33332e-06
1.06699e-05
1.96267e-06
1.13399e-05
1.48796e-06
1.16515e-05
8.99083e-07
1.16013e-05
2.04408e-07
1.11407e-05
-5.68747e-07
1.02983e-05
-1.3667e-06
9.14669e-06
-2.19589e-06
7.77128e-06
6.17308e-06
-2.6473e-06
-3.18551e-06
-1.40803e-05
-3.98696e-06
-1.25309e-05
-4.72273e-06
-1.15181e-05
-5.46785e-06
-9.86542e-06
-5.84255e-06
-8.27285e-06
-5.5238e-06
-7.21767e-06
-4.56212e-06
-6.22123e-06
-3.41288e-06
-4.19096e-06
-2.33133e-06
-1.06595e-06
-1.8262e-06
2.25894e-06
-1.56543e-06
4.64521e-06
-1.39495e-06
6.52915e-06
-1.21572e-06
8.10163e-06
-9.69537e-07
9.3967e-06
-6.82343e-07
1.03831e-05
-3.87713e-07
1.10458e-05
-1.29508e-07
1.13938e-05
5.91542e-08
1.14131e-05
1.40287e-07
1.106e-05
8.6999e-08
1.03518e-05
-1.2663e-07
9.36051e-06
-5.37871e-07
8.1824e-06
6.86878e-06
-1.23318e-06
-3.43095e-06
-1.06499e-05
-5.30877e-06
-1.06537e-05
-6.85351e-06
-9.97393e-06
-8.12252e-06
-8.597e-06
-8.98136e-06
-7.41455e-06
-9.15537e-06
-7.04414e-06
-8.81068e-06
-6.56635e-06
-8.17852e-06
-4.82349e-06
-7.28327e-06
-1.96155e-06
-6.55737e-06
1.53268e-06
-5.87126e-06
3.95876e-06
-5.20944e-06
5.86701e-06
-4.54542e-06
7.43731e-06
-3.85991e-06
8.71091e-06
-3.15808e-06
9.68099e-06
-2.4584e-06
1.03459e-05
-1.77741e-06
1.07126e-05
-1.1391e-06
1.07745e-05
-5.935e-07
1.05141e-05
-1.90129e-07
9.94795e-06
3.78235e-08
9.13203e-06
6.24441e-08
8.15741e-06
7.12701e-06
-1.95922e-07
-3.58797e-06
-7.06259e-06
-5.78989e-06
-8.45227e-06
-7.57089e-06
-8.19342e-06
-8.95888e-06
-7.20947e-06
-9.96127e-06
-6.41261e-06
-1.06578e-05
-6.348e-06
-1.10247e-05
-6.19981e-06
-1.09371e-05
-4.9115e-06
-1.06374e-05
-2.26157e-06
-9.91992e-06
8.14871e-07
-9.07552e-06
3.11399e-06
-8.17303e-06
4.96414e-06
-7.22959e-06
6.49349e-06
-6.26319e-06
7.74411e-06
-5.28085e-06
8.69824e-06
-4.29913e-06
9.36373e-06
-3.33612e-06
9.7492e-06
-2.4173e-06
9.85532e-06
-1.58374e-06
9.68009e-06
-8.79044e-07
9.24266e-06
-3.36682e-07
8.58905e-06
4.33962e-08
7.77667e-06
6.98273e-06
1.87421e-07
-3.18176e-06
-3.8815e-06
-5.6096e-06
-6.02503e-06
-7.48563e-06
-6.31791e-06
-8.96543e-06
-5.73014e-06
-1.00172e-05
-5.36129e-06
-1.09849e-05
-5.38074e-06
-1.18619e-05
-5.32315e-06
-1.23997e-05
-4.37397e-06
-1.24954e-05
-2.16624e-06
-1.19335e-05
2.52675e-07
-1.11227e-05
2.30284e-06
-1.01722e-05
4.01328e-06
-9.1414e-06
5.46231e-06
-8.05975e-06
6.6621e-06
-6.9466e-06
7.58471e-06
-5.82465e-06
8.2414e-06
-4.71629e-06
8.64045e-06
-3.6473e-06
8.78595e-06
-2.65174e-06
8.6841e-06
-1.76464e-06
8.35495e-06
-1.01646e-06
7.84024e-06
-4.34702e-07
7.1943e-06
6.53804e-06
9.75763e-09
-2.55962e-06
-1.32293e-06
-5.05347e-06
-3.53196e-06
-7.09215e-06
-4.27984e-06
-8.63153e-06
-4.19129e-06
-9.78172e-06
-4.21156e-06
-1.08288e-05
-4.33407e-06
-1.1906e-05
-4.24636e-06
-1.28123e-05
-3.468e-06
-1.30758e-05
-1.90304e-06
-1.27689e-05
-5.45524e-08
-1.21245e-05
1.65819e-06
-1.12796e-05
3.16811e-06
-1.03012e-05
4.48357e-06
-9.22903e-06
5.58966e-06
-8.10087e-06
6.45624e-06
-6.94701e-06
7.08723e-06
-5.79387e-06
7.487e-06
-4.66868e-06
7.66044e-06
-3.60152e-06
7.61656e-06
-2.62314e-06
7.37606e-06
-1.75662e-06
6.97314e-06
-1.0136e-06
6.45079e-06
5.93059e-06
-4.06379e-07
-2.1981e-06
8.74246e-07
-4.48834e-06
-1.24252e-06
-6.5287e-06
-2.24015e-06
-8.04392e-06
-2.67661e-06
-9.27827e-06
-2.97769e-06
-1.04139e-05
-3.19882e-06
-1.15118e-05
-3.14892e-06
-1.23893e-05
-2.59076e-06
-1.27983e-05
-1.49441e-06
-1.27204e-05
-1.32654e-07
-1.229e-05
1.22751e-06
-1.16179e-05
2.49577e-06
-1.07696e-05
3.63499e-06
-9.79206e-06
4.61187e-06
-8.73193e-06
5.39587e-06
-7.62472e-06
5.97976e-06
-6.50111e-06
6.36314e-06
-5.38988e-06
6.54895e-06
-4.31976e-06
6.54614e-06
-3.31671e-06
6.37254e-06
-2.40152e-06
6.05749e-06
-1.58255e-06
5.63128e-06
5.21919e-06
-8.71282e-07
-1.99262e-06
2.86562e-06
-3.99422e-06
7.58195e-07
-5.78907e-06
-4.45978e-07
-7.26757e-06
-1.19867e-06
-8.52324e-06
-1.7225e-06
-9.6679e-06
-2.05458e-06
-1.07128e-05
-2.10438e-06
-1.15448e-05
-1.75914e-06
-1.20164e-05
-1.02308e-06
-1.2094e-05
-5.53022e-08
-1.18494e-05
9.82682e-07
-1.13537e-05
1.99987e-06
-1.06622e-05
2.94328e-06
-9.82188e-06
3.77131e-06
-8.87766e-06
4.45144e-06
-7.86744e-06
4.96932e-06
-6.82378e-06
5.31926e-06
-5.77629e-06
5.50125e-06
-4.75249e-06
5.52206e-06
-3.77794e-06
5.39759e-06
-2.87007e-06
5.14914e-06
-2.03803e-06
4.79888e-06
4.47703e-06
-1.29605e-06
-1.73541e-06
4.60019e-06
-3.42922e-06
2.4512e-06
-4.99154e-06
1.11567e-06
-6.36346e-06
1.72701e-07
-7.57559e-06
-5.1084e-07
-8.67243e-06
-9.58146e-07
-9.64724e-06
-1.12993e-06
-1.04248e-05
-9.81893e-07
-1.09162e-05
-5.31927e-07
-1.10956e-05
1.2383e-07
-1.09925e-05
8.79305e-07
-1.06505e-05
1.65769e-06
-1.01123e-05
2.40488e-06
-9.41884e-06
3.07762e-06
-8.6103e-06
3.64269e-06
-7.7228e-06
4.08161e-06
-6.78837e-06
4.38463e-06
-5.83625e-06
4.54892e-06
-4.89327e-06
4.57884e-06
-3.98203e-06
4.48595e-06
-3.12153e-06
4.28825e-06
-2.32277e-06
3.99961e-06
3.7506e-06
-1.59644e-06
-1.41963e-06
6.01854e-06
-2.82873e-06
3.85938e-06
-4.16566e-06
2.45192e-06
-5.39254e-06
1.39903e-06
-6.5111e-06
6.07264e-07
-7.52652e-06
5.68842e-08
-8.41918e-06
-2.37617e-07
-9.13786e-06
-2.63522e-07
-9.62726e-06
-4.27935e-08
-9.86506e-06
3.61387e-07
-9.86238e-06
8.76398e-07
-9.64472e-06
1.43982e-06
-9.24231e-06
2.00227e-06
-8.68806e-06
2.52316e-06
-8.01631e-06
2.97074e-06
-7.25937e-06
3.32447e-06
-6.44702e-06
3.57209e-06
-5.60665e-06
3.70837e-06
-4.7632e-06
3.73513e-06
-3.93983e-06
3.66221e-06
-3.15301e-06
3.50097e-06
-2.41468e-06
3.261e-06
3.08193e-06
-1.74615e-06
-1.08141e-06
7.09913e-06
-2.22243e-06
4.99963e-06
-3.3444e-06
3.57327e-06
-4.41017e-06
2.46427e-06
-5.4039e-06
1.60056e-06
-6.31401e-06
9.66616e-07
-7.11591e-06
5.63959e-07
-7.77073e-06
3.91005e-07
-8.24065e-06
4.26869e-07
-8.50719e-06
6.27693e-07
-8.57188e-06
9.40871e-07
-8.44889e-06
1.31663e-06
-8.1592e-06
1.71238e-06
-7.72812e-06
2.09189e-06
-7.18365e-06
2.42607e-06
-6.55352e-06
2.69414e-06
-5.86421e-06
2.8826e-06
-5.14074e-06
2.98469e-06
-4.40655e-06
3.00071e-06
-3.6811e-06
2.93636e-06
-2.98284e-06
2.80237e-06
-2.32534e-06
2.60299e-06
2.48182e-06
-1.72531e-06
-7.559e-07
7.85379e-06
-1.64459e-06
5.8875e-06
-2.56057e-06
4.48863e-06
-3.45958e-06
3.3628e-06
-4.31582e-06
2.45639e-06
-5.10828e-06
1.75872e-06
-5.81166e-06
1.26702e-06
-6.39569e-06
9.74764e-07
-6.83226e-06
8.63195e-07
-7.10472e-06
8.99935e-07
-7.20984e-06
1.04578e-06
-7.15499e-06
1.26158e-06
-6.95432e-06
1.51152e-06
-6.62683e-06
1.7642e-06
-6.19456e-06
1.99361e-06
-5.68057e-06
2.17996e-06
-5.10776e-06
2.30959e-06
-4.49816e-06
2.37491e-06
-3.87219e-06
2.37448e-06
-3.24997e-06
2.31379e-06
-2.64598e-06
2.19792e-06
-2.07245e-06
2.02918e-06
1.96543e-06
-1.55624e-06
-4.70753e-07
8.32396e-06
-1.12624e-06
6.54232e-06
-1.84516e-06
5.20698e-06
-2.57693e-06
4.0941e-06
-3.29022e-06
3.16929e-06
-3.96001e-06
2.42817e-06
-4.56145e-06
1.86818e-06
-5.06911e-06
1.48216e-06
-5.46053e-06
1.25438e-06
-5.72102e-06
1.16022e-06
-5.84526e-06
1.16983e-06
-5.8361e-06
1.25224e-06
-5.70267e-06
1.3779e-06
-5.45877e-06
1.52012e-06
-5.12144e-06
1.65609e-06
-4.70938e-06
1.76771e-06
-4.24179e-06
1.84182e-06
-3.73775e-06
1.87068e-06
-3.21584e-06
1.85234e-06
-2.69185e-06
1.78943e-06
-2.18115e-06
1.68689e-06
-1.69567e-06
1.54318e-06
1.52561e-06
-1.25595e-06
-2.40192e-07
8.56294e-06
-6.87944e-07
6.98927e-06
-1.22143e-06
5.73989e-06
-1.78937e-06
4.6616e-06
-2.35904e-06
3.73859e-06
-2.90447e-06
2.97328e-06
-3.40195e-06
2.36538e-06
-3.82926e-06
1.90923e-06
-4.16744e-06
1.59235e-06
-4.40326e-06
1.39585e-06
-4.53029e-06
1.29668e-06
-4.54852e-06
1.27029e-06
-4.46334e-06
1.29256e-06
-4.28449e-06
1.34109e-06
-4.02483e-06
1.39626e-06
-3.69921e-06
1.44192e-06
-3.3235e-06
1.46593e-06
-2.91368e-06
1.46069e-06
-2.48531e-06
1.42374e-06
-2.05483e-06
1.35861e-06
-1.63347e-06
1.26512e-06
-1.22914e-06
1.13864e-06
1.17092e-06
-8.74584e-07
-6.56897e-08
8.62807e-06
-3.37208e-07
7.26017e-06
-7.00333e-07
6.10249e-06
-1.11178e-06
5.07262e-06
-1.54119e-06
4.16765e-06
-1.96377e-06
3.39556e-06
-2.35753e-06
2.75888e-06
-2.70267e-06
2.25415e-06
-2.98251e-06
1.872e-06
-3.18482e-06
1.59798e-06
-3.30254e-06
1.41424e-06
-3.33374e-06
1.30133e-06
-3.28105e-06
1.23971e-06
-3.15097e-06
1.21085e-06
-2.95297e-06
1.19811e-06
-2.69862e-06
1.18741e-06
-2.40067e-06
1.16783e-06
-2.07254e-06
1.1324e-06
-1.72837e-06
1.07938e-06
-1.38013e-06
1.01004e-06
-1.04439e-06
9.2914e-07
-7.406e-07
8.34402e-07
8.65943e-07
-4.35672e-07
4.50304e-08
8.58188e-06
-7.14251e-08
7.37592e-06
-2.80376e-07
6.31093e-06
-5.46231e-07
5.33808e-06
-8.42554e-07
4.46364e-06
-1.14718e-06
3.69992e-06
-1.44026e-06
3.05172e-06
-1.70401e-06
2.5177e-06
-1.92338e-06
2.09119e-06
-2.08686e-06
1.7613e-06
-2.18696e-06
1.5142e-06
-2.22038e-06
1.33461e-06
-2.18764e-06
1.20685e-06
-2.09271e-06
1.11578e-06
-1.94229e-06
1.04756e-06
-1.74519e-06
9.90168e-07
-1.51165e-06
9.34165e-07
-1.25253e-06
8.73146e-07
-9.78909e-07
8.0557e-07
-7.03891e-07
7.34766e-07
-4.38919e-07
6.6382e-07
-1.87406e-07
5.82742e-07
6.3808e-07
4.03344e-08
1.20172e-07
8.46144e-06
1.27303e-07
7.36831e-06
5.17023e-08
6.3861e-06
-8.32337e-08
5.47265e-06
-2.57576e-07
4.63768e-06
-4.52749e-07
3.89484e-06
-6.51344e-07
3.2501e-06
-8.37485e-07
2.70366e-06
-9.97383e-07
2.25094e-06
-1.12006e-06
1.88384e-06
-1.19772e-06
1.59175e-06
-1.22602e-06
1.36279e-06
-1.20389e-06
1.1846e-06
-1.13325e-06
1.04502e-06
-1.01862e-06
9.32809e-07
-8.66733e-07
8.38163e-07
-6.85535e-07
7.52857e-07
-4.8401e-07
6.715e-07
-2.71832e-07
5.93256e-07
-5.6656e-08
5.19333e-07
1.55324e-07
4.51652e-07
3.56381e-07
3.81291e-07
4.6702e-07
5.27376e-07
1.7179e-07
8.28858e-06
2.77585e-07
7.26187e-06
3.14716e-07
6.34852e-06
2.93416e-07
5.49361e-06
2.26919e-07
4.70391e-06
1.29686e-07
3.99185e-06
1.63571e-08
3.36325e-06
-9.89433e-08
2.8188e-06
-2.03497e-07
2.35536e-06
-2.86617e-07
1.96684e-06
-3.40255e-07
1.64529e-06
-3.59277e-07
1.38172e-06
-3.41451e-07
1.16669e-06
-2.87264e-07
9.90743e-07
-1.99661e-07
8.45111e-07
-8.36064e-08
7.22014e-07
5.50993e-08
6.14059e-07
2.09999e-07
5.16517e-07
3.74708e-07
4.28413e-07
5.4091e-07
3.52941e-07
7.03305e-07
2.88984e-07
8.56353e-07
2.28166e-07
3.41177e-07
9.82118e-07
2.1456e-07
8.07383e-06
4.0069e-07
7.07538e-06
5.31014e-07
6.21785e-06
6.04889e-07
5.41945e-06
6.29322e-07
4.67924e-06
6.14991e-07
4.00599e-06
5.74235e-07
3.40385e-06
5.19723e-07
2.87319e-06
4.63421e-07
2.41156e-06
4.15699e-07
2.01448e-06
3.84726e-07
1.67619e-06
3.76212e-07
1.39016e-06
3.93318e-07
1.14951e-06
4.36742e-07
9.4725e-07
5.04756e-07
7.77024e-07
5.94145e-07
6.32553e-07
7.00918e-07
5.0722e-07
8.20014e-07
3.97343e-07
9.45453e-07
3.02884e-07
1.07325e-06
2.24948e-07
1.19618e-06
1.65955e-07
1.30821e-06
1.15824e-07
2.41492e-07
1.40786e-06
2.59182e-07
7.81381e-06
5.13958e-07
6.82018e-06
7.20887e-07
6.01065e-06
8.71863e-07
5.26826e-06
9.69435e-07
4.5815e-06
1.02155e-06
3.95374e-06
1.03887e-06
3.38641e-06
1.03309e-06
2.87889e-06
1.01562e-06
2.42896e-06
9.96692e-07
2.03335e-06
9.84704e-07
1.68813e-06
9.85832e-07
1.38899e-06
1.0039e-06
1.13141e-06
1.0404e-06
9.10701e-07
1.09437e-06
7.23003e-07
1.16401e-06
5.62862e-07
1.24627e-06
4.24906e-07
1.33726e-06
3.06313e-07
1.43318e-06
2.0686e-07
1.52803e-06
1.29973e-07
1.61912e-06
7.4645e-08
1.70334e-06
3.1537e-08
1.72653e-07
1.77208e-06
3.13753e-07
7.5003e-06
6.30817e-07
6.50304e-06
9.00845e-07
5.74049e-06
1.11201e-06
5.05697e-06
1.26476e-06
4.42865e-06
1.36585e-06
3.85257e-06
1.4253e-06
3.3269e-06
1.45445e-06
2.84969e-06
1.46463e-06
2.41875e-06
1.46614e-06
2.03181e-06
1.46762e-06
1.68664e-06
1.47557e-06
1.38102e-06
1.49424e-06
1.11272e-06
1.5256e-06
8.79314e-07
1.56923e-06
6.79353e-07
1.62407e-06
5.07994e-07
1.68769e-06
3.6125e-07
1.75692e-06
2.37046e-07
1.82794e-06
1.35775e-07
1.89865e-06
5.91242e-08
1.96443e-06
8.77624e-09
2.02171e-06
-2.60165e-08
1.16369e-07
2.07789e-06
3.82642e-07
7.11724e-06
7.60244e-07
6.12532e-06
1.08264e-06
5.41805e-06
1.33852e-06
4.80105e-06
1.52893e-06
4.2382e-06
1.66131e-06
3.72017e-06
1.74628e-06
3.24192e-06
1.79567e-06
2.80029e-06
1.8212e-06
2.39323e-06
1.83349e-06
2.01953e-06
1.84148e-06
1.67867e-06
1.85196e-06
1.37056e-06
1.86938e-06
1.0953e-06
1.89592e-06
8.52777e-07
1.93137e-06
6.43902e-07
1.97486e-06
4.64499e-07
2.02406e-06
3.12028e-07
2.07639e-06
1.84698e-07
2.12955e-06
8.25503e-08
2.17951e-06
9.07514e-09
2.22515e-06
-3.70277e-08
2.26507e-06
-6.59911e-08
8.47442e-08
2.29663e-06
4.68806e-07
6.64895e-06
9.07637e-07
5.68671e-06
1.27354e-06
5.05226e-06
1.5598e-06
4.51486e-06
1.77098e-06
4.02708e-06
1.91723e-06
3.57397e-06
2.01115e-06
3.14805e-06
2.06591e-06
2.74557e-06
2.09409e-06
2.36509e-06
2.10691e-06
2.00676e-06
2.11365e-06
1.67197e-06
2.12138e-06
1.36287e-06
2.13471e-06
1.08201e-06
2.15544e-06
8.32059e-07
2.18377e-06
6.15585e-07
2.21812e-06
4.30159e-07
2.2561e-06
2.74043e-07
2.29515e-06
1.45639e-07
2.3325e-06
4.51634e-08
2.36771e-06
-2.6231e-08
2.39767e-06
-6.70131e-08
2.41973e-06
-8.8224e-08
5.93649e-08
2.44504e-06
5.72786e-07
6.07623e-06
1.07479e-06
5.18496e-06
1.47625e-06
4.65102e-06
1.7793e-06
4.21198e-06
1.99502e-06
3.81149e-06
2.13838e-06
3.43072e-06
2.22533e-06
3.0612e-06
2.27115e-06
2.69984e-06
2.28966e-06
2.34665e-06
2.2928e-06
2.00371e-06
2.29028e-06
1.67456e-06
2.28942e-06
1.36379e-06
2.29492e-06
1.07656e-06
2.30852e-06
8.18494e-07
2.32984e-06
5.94291e-07
2.35643e-06
4.03592e-07
2.38518e-06
2.45295e-07
2.41335e-06
1.17464e-07
2.43951e-06
1.89713e-08
2.46108e-06
-4.78335e-08
2.47864e-06
-8.46674e-08
2.49219e-06
-1.01818e-07
4.74462e-08
2.50408e-06
6.94124e-07
5.38303e-06
1.26041e-06
4.61922e-06
1.68932e-06
4.22248e-06
1.99567e-06
3.90589e-06
2.20021e-06
3.60716e-06
2.32496e-06
3.30612e-06
2.39041e-06
2.99589e-06
2.41442e-06
2.67595e-06
2.41216e-06
2.34902e-06
2.39621e-06
2.01976e-06
2.3767e-06
1.69416e-06
2.36127e-06
1.37929e-06
2.35488e-06
1.083e-06
2.35932e-06
8.14108e-07
2.37332e-06
5.80322e-07
2.39292e-06
3.84009e-07
2.41396e-06
2.24267e-07
2.43326e-06
9.81627e-08
2.44864e-06
3.58625e-09
2.46074e-06
-5.99886e-08
2.46903e-06
-9.2961e-08
2.47296e-06
-1.05806e-07
3.25874e-08
2.48771e-06
8.29907e-07
4.55365e-06
1.45968e-06
3.99e-06
1.90653e-06
3.77607e-06
2.20213e-06
3.61062e-06
2.3805e-06
3.42904e-06
2.47283e-06
3.214e-06
2.50482e-06
2.96408e-06
2.49683e-06
2.68409e-06
2.46497e-06
2.38102e-06
2.42213e-06
2.06271e-06
2.37868e-06
1.7377e-06
2.34274e-06
1.41532e-06
2.31997e-06
1.10584e-06
2.31277e-06
8.21361e-07
2.31894e-06
5.74199e-07
2.33209e-06
3.7088e-07
2.34628e-06
2.101e-07
2.35779e-06
8.66628e-08
2.36534e-06
-3.97368e-09
2.36827e-06
-6.29032e-08
2.36912e-06
-9.38334e-08
2.37042e-06
-1.0717e-07
2.53162e-08
2.37772e-06
9.75613e-07
3.57911e-06
1.6638e-06
3.30254e-06
2.11571e-06
3.32468e-06
2.3854e-06
3.34131e-06
2.52434e-06
3.29039e-06
2.57414e-06
3.16444e-06
2.56522e-06
2.97319e-06
2.5194e-06
2.73008e-06
2.45272e-06
2.44784e-06
2.37767e-06
2.13789e-06
2.30457e-06
1.81091e-06
2.24224e-06
1.47774e-06
2.19795e-06
1.15021e-06
2.17601e-06
8.43366e-07
2.17378e-06
5.76487e-07
2.18066e-06
3.6404e-07
2.18839e-06
2.02408e-07
2.19258e-06
8.24945e-08
2.19121e-06
-2.56706e-09
2.18658e-06
-5.82792e-08
2.18095e-06
-8.81607e-08
2.1779e-06
-1.04025e-07
8.90136e-09
2.19423e-06
1.12324e-06
2.45661e-06
1.85669e-06
2.56978e-06
2.29478e-06
2.88709e-06
2.52367e-06
3.11279e-06
2.61503e-06
3.19933e-06
2.61929e-06
3.16041e-06
2.5692e-06
3.02347e-06
2.48599e-06
2.81345e-06
2.38421e-06
2.54976e-06
2.27501e-06
2.24722e-06
2.16814e-06
1.91789e-06
2.0734e-06
1.57257e-06