/*--------------------------------*- C++ -*----------------------------------*\
  =========                 |
  \\      /  F ield         | OpenFOAM: The Open Source CFD Toolbox
   \\    /   O peration     | Website:  https://openfoam.org
    \\  /    A nd           | Version:  13
     \\/     M anipulation  |
\*---------------------------------------------------------------------------*/
FoamFile
{
    format      ascii;
    class       volScalarField;
    location    "3";
    object      rho;
}
// * * * * * * * * * * * * * * * * * * * * * * * * * * * * * * * * * * * * * //

dimensions      [1 -3 0 0 0 0 0];

internalField   nonuniform List<scalar> 
2268
(
13529
13529
13529
13529
13529
13529
13529
13529
13529
13529
13529
13529
13529
13529
13529
13529
13529
13529
13528.7
13524.2
13521.9
13522
13522.6
13529
13529
13529
13529
13529
13529
13529
13529
13529
13529
13529
13529
13529
13529
13529
13529
13529
13529
13529
13528.9
13528.7
13528.7
13529
13529
13529
13529
13529
13529
13529
13529
13529
13529
13529
13529
13529
13529
13529
13529
13529
13529
13529
13529
13529
13529
13529
13529
13529
13529
13529
13529
13529
13529
13529
13529
13529
13529
13529
13529
13529
13529
13529
13529
13529
13529
13529
13529
13529
13529
13529
13529
13529
13529
13529
13529
13529
13529
13529
13529
13529
13529
13529
13529
13529
13529
13529
13529
13529
13529
13529
13529
13529
13528.8
13529
13529
13529
13529
13529
13529
13529
13529
13529
13474.8
13296.8
13114.4
12914.5
12693.7
12467.1
12247.4
12045.2
11871.3
11736.9
11647.9
11586.3
11467.4
11252.7
13145.9
12694.3
12197.8
11651.4
10965.5
10147.3
9229.66
8250.24
7248.01
6316.28
5516.84
4806.32
4192.82
3688.3
3280.06
2955.27
2702.58
2515.76
2390.49
2317.3
2270.29
2166.12
1938.96
4569.21
3620.43
2964.14
2452.57
1991.61
1608.17
1323.91
1138.02
1033.8
1000
1000
1000
1000
1000
1000
1000
1000
999.999
999.997
999.977
999.861
999.206
997.334
11943.5
11953.5
11945
11941.6
11410.9
9035.03
9030.8
9132.53
9489.72
9614.95
8968.39
8986.95
9718.33
10340.7
10347.7
10363.8
10323.7
10302.6
10307.5
11511.9
11791.3
11923.3
11851.5
11786.1
11508.1
11268.4
11286.3
11257.1
11215
10360.4
9322.23
10249.2
10262.4
10277.9
10286.3
10304.4
10304.5
10308.2
7608.83
8003.54
8111.3
7909.62
8228.93
8738.84
8598.51
7901.66
6982.94
7260.82
7880.62
8069.86
7007.05
7478.55
8093.7
8446.36
8126.28
7645.57
7029.27
3169.66
3271.92
3626.3
3366.68
2865.68
2859.65
2220.7
1903.31
2133.1
1780.37
2341.05
3362.07
3482.16
2962.58
2135.98
1545.51
1866.67
2402.8
3407.94
1454.82
1558.62
1742.11
2296.04
1715.55
1081.11
1038.22
1029.55
1096.68
1129.23
913.878
663.676
1518.11
1053.6
709.107
878.063
903.502
975.818
683.294
1615.42
1657.02
1648.01
1785.2
1965.66
1204.6
1322.22
1452.98
1532.47
1441.06
1011.69
949.396
495.361
571.821
993.205
999.972
999.932
1000.03
767.55
1380.8
1176.08
1244.39
1364.42
1923.67
1706.45
1534.21
1626.22
1626.93
1221.04
1005.85
1003.69
608.458
726.588
999.814
999.99
999.936
1000.3
887.321
1077.66
1146.56
1202.5
1105.29
1058.8
1667.68
1602.27
1529.61
1058.2
1004.92
1005.96
1003.64
582.724
702.094
986.866
999.993
999.883
996.976
851.735
1000
1000
1000.05
1000.11
999.979
999.999
1000
1000
1000
1000
1000
1000
1000
1000
1000
1000
1000
999.999
999.999
999.999
999.998
999.995
997.189
1000
1000
999.817
999.698
999.967
1000
1000
1000
1000
1000
1000
1000
1000
1000
1000
999.934
998.046
996.831
993.413
984.805
972.007
965.666
959.425
1000
1000
998.133
999.443
999.906
999.991
1000
1000
999.607
998.578
996.842
993.941
986.879
971.327
947.461
916.005
880.976
847.374
797.167
726.673
673.965
637.808
629.594
910.777
940.341
958.325
937.541
921.23
922.649
938.279
897.289
861.043
845.361
819.925
782.005
728.493
656.232
593.725
563.839
532.605
483.317
452.266
462.087
466.699
482.57
472.196
713.039
637.996
588.225
562.878
549.487
548.761
508.812
490.688
479.356
458.746
436.495
414.71
423.266
470.366
485.656
467.911
453.646
484.258
499.993
500
499.984
499.929
492.079
464.849
492.331
499.95
500.034
500.238
484.64
475.699
486.662
498.303
498.496
498.688
500
500
500
500
500
500
500
500
499.999
499.874
499.843
500.101
499.856
500.186
500.086
500.019
499.976
499.863
500
500
500
500
500
500
500
500
500
500
500
500
500
500
500.003
500.007
500.019
444.732
452.598
458.226
458.435
454.604
446.053
435.38
423.737
412.034
401.748
392.426
384.204
377.128
371.982
372.472
379.193
389.392
399.91
411.868
427.237
444.349
460.885
473.252
58.216
70.8285
82.6661
85.5483
82.8143
76.2475
67.1436
55.663
44.1566
35.6111
30.0807
26.6277
24.6478
24.2138
26.2994
31.3585
39.6688
50.7585
64.5632
80.7281
98.6684
117.528
131.907
1.00029
1.00026
1.00029
1.00147
1.00072
1.00023
1.0001
1.00007
1.00007
1.00006
1.00007
1.00003
1.00005
1.00022
1.00035
1.00049
1.00057
1.00064
1.00064
1.00061
1.00051
1.00082
1.00032
1.00084
1.00103
1.00095
1.00052
1.00019
1.00025
1.00107
1.00286
1.00082
1.00039
1.00013
1.00006
1.00006
1.00005
1.00004
1.00003
1.00002
1.00002
1.00003
1.00004
1.00006
1.0001
1.00011
1.00127
1.00314
1.00402
1.00059
1.00035
1.00611
1.04544
1.06989
1.02439
1.00127
1.0005
1.00033
1.00028
1.00024
1.00017
1.00011
1.00008
1.00007
1.00006
1.00005
1.00005
1.00006
1.00009
1.00233
1.01089
1.01843
1.00283
1.001
1.04096
1.08335
1.08445
1.06731
1.00303
1.001
1.00077
1.00049
1.00041
1.00025
1.00017
1.00013
1.00009
1.00007
1.00005
1.00006
1.00006
1.00008
1.00292
1.02413
1.02792
1.01472
1.00078
1.03918
1.08253
1.08365
1.0777
1.00336
1.00336
1.00215
1.00095
1.00047
1.00023
1.00017
1.00014
1.0001
1.00007
1.00005
1.00005
1.00005
1.00006
1.00258
1.02424
1.02766
1.01508
1.00008
1.00077
1.04026
1.07653
1.01711
1.0033
1.00337
1.00331
1.00258
1.0005
1.00011
1.00013
1.00013
1.0001
1.00007
1.00006
1.00005
1.00004
1.00004
1.0016
1.01186
1.02336
1.00173
1.00007
1.00006
1.00005
1.00006
1.00014
1.00118
1.00283
1.00325
1.00213
1.00009
1.00005
1.00009
1.0001
1.00009
1.00007
1.00006
1.00005
1.00003
1.00003
1.00104
1.0018
1.00133
1.00022
1.00008
1.00005
1.00006
1.00005
1.00007
1.00018
1.00067
1.00106
1.00054
1.00007
1.00006
1.00008
1.00008
1.00006
1.00006
1.00005
1.00004
1.00002
1.00002
1.00057
1.00045
1.00017
1.00009
1.00006
1.00005
1.00005
1.00006
1.0001
1.00022
1.00038
1.00037
1.00022
1.00004
1.00005
1.00006
1.00005
1.00004
1.00004
1.00003
1.00003
1.00002
1.00001
1.00037
1.00022
1.0001
1.00005
1.00005
1.00005
1.00004
1.00004
1.00005
1.00012
1.00026
1.00032
1.00019
1.00005
1.00003
1.00004
1.00003
1.00002
1.00002
1.00002
1.00002
1.00001
1.00001
1.0003
1.00021
1.00011
1.00005
1.00004
1.00004
1.00003
1.00003
1.00003
1.00005
1.00011
1.00016
1.00011
1.00003
1.00002
1.00002
1.00002
1.00001
1.00001
1.00001
1.00001
1.00001
1.00001
1.00022
1.0002
1.00011
1.00005
1.00004
1.00003
1.00003
1.00002
1.00002
1.00002
1.00003
1.00004
1.00003
1.00002
1.00001
1.00001
1.00001
1.00001
1.00001
1.00001
1.00001
1
1
1.00017
1.00017
1.00009
1.00005
1.00003
1.00003
1.00002
1.00002
1.00001
1.00001
1.00002
1.00001
1.00001
1.00001
1.00001
1.00001
1.00001
1.00001
1
1
1
1
1
1.0001
1.00012
1.00007
1.00004
1.00003
1.00002
1.00002
1.00001
1.00001
1.00001
1.00001
1.00001
1.00001
1
1
1
1
1
1
1
1
1
1
1.00007
1.00008
1.00006
1.00004
1.00003
1.00002
1.00001
1.00001
1.00001
1.00001
1
1
1
1
1
1
1
1
1
1
1
1
1
1.00005
1.00006
1.00004
1.00003
1.00002
1.00002
1.00001
1.00001
1.00001
1
1
1
1
1
1
1
1
1
1
1
1
1
1
1.00004
1.00004
1.00003
1.00003
1.00002
1.00001
1.00001
1.00001
1
1
1
1
1
1
1
1
1
1
1
1
1
1
1
1.00004
1.00003
1.00003
1.00002
1.00002
1.00001
1.00001
1
1
1
1
1
1
1
1
1
1
1
1
1
1
1
1
1.00003
1.00003
1.00002
1.00002
1.00001
1.00001
1.00001
1
1
1
1
1
1
1
1
1
1
1
1
1
1
1
1
1.00002
1.00002
1.00002
1.00001
1.00001
1.00001
1
1
1
1
1
1
1
1
1
1
1
1
1
1
1
1
1
1.00002
1.00002
1.00001
1.00001
1.00001
1
1
1
1
1
1
1
1
1
1
1
1
1
1
1
1
1
1
1.00002
1.00001
1.00001
1.00001
1
1
1
1
1
1
1
1
1
1
1
1
1
1
1
1
1
1
1
1.00001
1.00001
1.00001
1
1
1
1
1
1
1
1
1
1
1
1
1
1
1
1
1
1
1
1
1.00001
1.00001
1
1
1
1
1
1
1
1
1
1
1
1
1
1
1
1
1
1
1
1
1
1.00001
1
1
1
1
1
1
1
1
1
1
1
1
1
1
1
1
1
1
1
1
1
1
1
1
1
1
1
1
1
1
1
1
1
1
1
1
1
1
1
1
1
1
1
1
1
1
1
1
1
1
1
1
1
1
1
1
1
1
1
1
1
1
1
1
1
1
1
1
1
1
1
1
1
1
1
1
1
1
1
1
1
1
1
1
1
1
1
1
1
1
1
1
1
1
1
1
1
1
1
1
1
1
1
1
1
1
1
1
1
1
1
1
1
1
1
1
1
1
1
1
1
1
1
1
1
1
1
1
1
1
1
1
1
1
1
1
1
1
1
1
1
1
1
1
1
1
1
1
1
1
1
1
1
1
1
1
1
1
1
1
1
1
1
1
1
1
1
1
1
1
1
1
1
1
1
1
1
1
1
1
1
1
1
1
1
1
1
1
1
1
1
1
1
1
1
1
1
1
1
1
1
1
1
1
1
1
1137.77
1306.29
1407.38
1408.91
909.455
879.448
914.283
954.441
637.114
593.283
549.286
585.763
432.761
431.715
431.813
441.821
484.062
483.647
495.242
502.206
500.107
500.101
500.18
500.091
500.025
500.018
500.016
500.009
477.272
479.727
481.877
484.231
134.093
136.302
139.132
143.105
1.00066
1.00056
1.00029
1.00067
1.00014
1.00013
1.00015
1.0002
1.00012
1.00012
1.00012
1.00015
1.0001
1.0001
1.0001
1.00012
1.00006
1.00008
1.00008
1.00008
1.00004
1.00004
1.00005
1.00005
1.00002
1.00003
1.00003
1.00003
1.00002
1.00002
1.00002
1.00002
1.00001
1.00001
1.00001
1.00001
1.00001
1.00001
1.00001
1.00001
1
1
1
1
1
1
1
1
1
1
1
1
1
1
1
1
1
1
1
1
1
1
1
1
1
1
1
1
1
1
1
1
1
1
1
1
1
1
1
1
1
1
1
1
1
1
1
1
1
1
1
1
1
1
1
1
1
1
1
1
1
1
1
1
1
1
1
1
1
1
1
1
1
1
1
1
1
1
1
1
1
1
1
1
1
1
1
1
1
1
1
1
1097.87
1038.62
1121.97
1095.12
1023.01
943.486
1107.85
991.795
999.816
999.846
1000.6
975.118
529.008
828.879
998.481
999.968
991.489
909.957
840.661
975.844
977.745
1040.25
968.481
894.132
984.247
931.86
874.736
987.915
996.853
998.721
992.404
844.463
962.371
942.61
836.291
789.039
866.94
857.398
653.872
657.768
629.793
710.614
779.605
711.979
698.659
734.698
689.836
653.685
657.213
733.081
794.583
706.509
583.375
565.534
614.944
673.594
726.793
467.401
448.604
445.375
484.736
483.534
438.144
465.119
454.084
493.726
500.377
499.999
500.762
506.333
500.189
500.312
500.996
519.263
542.422
527.835
503.215
500.32
500.042
500.002
499.844
459.13
415.612
461.743
500.461
500.085
500.013
500.004
500.002
500.007
500.116
500.197
500.188
500.514
500.102
500.008
500.005
500.004
499.989
499.966
498.74
495.464
498.996
500
500.001
500.005
500.002
500.002
500.002
499.99
499.979
499.987
500.021
500.081
500.004
500.002
500.003
500.005
500.009
500.007
500.001
500
500
500
500
500.001
500.03
500.041
500.036
500.058
501.54
502.977
500.426
488.293
493.273
497.91
498.909
498.275
498.783
499.25
499.393
499.388
499.399
499.445
499.501
499.56
499.462
502.337
514.389
523.183
521.122
508.133
148.474
150.677
156.816
173.826
202.421
231.537
251.667
260.283
262.54
263.595
264.602
265.716
266.792
263.729
251.165
233.876
217.432
210.987
215.821
1.0005
1.00048
1.00047
1.00048
1.00134
1.00407
1.01163
1.02698
1.0449
1.10617
1.45424
1.91996
2.21142
4.56453
13.676
18.8065
20.1342
18.8787
17.8317
1.00026
1.00032
1.00034
1.09073
1.25301
1.32678
1.22803
1.03094
1.08907
1.15878
1.36405
1.54279
1.88419
2.11997
1.00106
1.00007
1.00003
1.00002
1.00002
1.00018
1.0003
1.00021
1.19161
1.3992
1.39871
1.33584
1.0881
1.03411
1.06486
1.22101
1.31484
1.29334
1.17404
1.00486
1.00052
1.00015
1.00009
1.0002
1.00013
1.00022
1.00021
1.02041
1.00019
1.00014
1.00023
1.00825
1.0026
1.00659
1.05226
1.16565
1.12295
1.0414
1.00132
1.00037
1.00024
1.00018
1.0007
1.00008
1.0001
1.0001
1.00019
1.00008
1.00009
1.00026
1.00033
1.00074
1.00215
1.00026
1.0001
1.00009
1.00009
1.00034
1.00035
1.00033
1.00027
1.00017
1.00005
1.00006
1.00006
1.00007
1.00009
1.0001
1.00013
1.0002
1.00032
1.00047
1.00022
1.00012
1.0001
1.0001
1.00017
1.00026
1.00029
1.00024
1.00019
1.00003
1.00004
1.00005
1.00008
1.0001
1.00012
1.00011
1.00013
1.00015
1.00015
1.00016
1.00013
1.00011
1.00009
1.00013
1.00016
1.00016
1.00017
1.00018
1.00002
1.00002
1.00003
1.00005
1.00007
1.00008
1.00009
1.00009
1.00009
1.0001
1.00011
1.0001
1.00008
1.00006
1.00006
1.00007
1.00008
1.00007
1.00008
1.00001
1.00001
1.00001
1.00001
1.00002
1.00003
1.00003
1.00003
1.00004
1.00004
1.00005
1.00005
1.00004
1.00003
1.00003
1.00003
1.00002
1.00002
1.00002
1.00001
1.00001
1.00001
1.00001
1.00001
1.00001
1.00001
1.00001
1.00001
1.00002
1.00002
1.00002
1.00002
1.00001
1.00001
1.00001
1.00001
1.00001
1.00001
1
1
1
1
1
1
1.00001
1.00001
1.00001
1.00001
1.00001
1.00001
1.00001
1.00001
1.00001
1.00001
1.00001
1.00001
1.00001
1
1
1
1
1
1
1
1
1
1
1
1
1
1
1
1.00001
1.00001
1.00002
1.00003
1
1
1
1
1
1
1
1
1
1
1
1
1
1
1
1.00001
1.00001
1.00003
1.00004
1
1
1
1
1
1
1
1
1
1
1
1
1
1
1
1.00001
1.00002
1.00004
1.00004
1
1
1
1
1
1
1
1
1
1
1
1
1
1
1
1.00001
1.00002
1.00004
1.00004
1
1
1
1
1
1
1
1
1
1
1
1
1
1
1
1.00001
1.00002
1.00004
1.00003
1
1
1
1
1
1
1
1
1
1
1
1
1
1
1
1.00001
1.00002
1.00005
1.00002
1
1
1
1
1
1
1
1
1
1
1
1
1
1
1
1
1.00002
1.00005
1.00002
1
1
1
1
1
1
1
1
1
1
1
1
1
1
1
1
1.00002
1.00005
1.00001
1
1
1
1
1
1
1
1
1
1
1
1
1
1
1
1
1.00002
1.00005
1.00001
1
1
1
1
1
1
1
1
1
1
1
1
1
1
1
1
1.00002
1.00003
1.00001
1
1
1
1
1
1
1
1
1
1
1
1
1
1
1
1
1.00002
1.00002
1
1
1
1
1
1
1
1
1
1
1
1
1
1
1
1
1.00001
1.00001
1.00001
1
1
1
1
1
1
1
1
1
1
1
1
1
1
1
1
1.00001
1.00001
1
1
1
1
1
1
1
1
1
1
1
1
1
1
1
1
1
1
1.00001
1
1
1
1
1
1
1
1
1
1
1
1
1
1
1
1
1
1
1
1
1
1
1
1
1
1
1
1
1
1
1
1
1
1
1
1
1
1
1
1
1
1
1
1
1
1
1
1
1
1
1
1
1
1
1
1
1
1
1
1
1
1
1
1
1
1
1
1
1
1
1
1
1
1
1
1
1
1
1
1
1
1
1
1
1
1
1
1
1
1
1
1
1
1
1
1
1
1
1
1
1
1
1
1
1
1
1
1
1
1
1
1
1
1
1
1
1
1
1
1
1
1
1
1
1
1
1
1
1
1
1
1
1
1
1
1
1
1
1
1
1
1
1
1
1
1
1
1
1
1
1
1
1
1
)
;

boundaryField
{
    leftWall
    {
        type            calculated;
        value           nonuniform List<scalar> 
50
(
13529
13529
13529
13529
13529
13529
13145.9
4569.21
1000
1000
1000
910.777
713.039
464.849
499.856
444.732
58.216
1.00029
1.00084
1.00127
1.00233
1.00292
1.00258
1.0016
1.00104
1.00057
1.00037
1.0003
1.00022
1.00017
1.0001
1.00007
1.00005
1.00004
1.00004
1.00003
1.00002
1.00002
1.00002
1.00001
1.00001
1.00001
1
1
1
1
1
1
1
1
)
;
    }
    rightWall
    {
        type            calculated;
        value           nonuniform List<scalar> 
50
(
10307.5
10308.2
7029.27
3407.94
683.294
767.55
887.321
851.735
840.661
857.398
726.793
527.835
500.102
500.081
500.426
508.133
215.821
17.8317
1.00002
1.0002
1.0007
1.00017
1.00019
1.00018
1.00008
1.00002
1.00001
1.00001
1.00003
1.00004
1.00004
1.00004
1.00003
1.00002
1.00002
1.00001
1.00001
1.00001
1
1
1
1
1
1
1
1
1
1
1
1
)
;
    }
    lowerWall
    {
        type            calculated;
        value           nonuniform List<scalar> 
62
(
13529
13529
13529
13529
13529
13529
13529
13529
13529
13529
13529
13529
13529
13529
13529
13529
13529
13529
13528.7
13524.2
13521.9
13522
13522.6
13522.6
13529
13529
13529
13528.8
11252.7
1938.96
997.334
1137.77
1306.29
1407.38
1408.91
11943.5
11511.9
7608.83
3169.66
1454.82
1615.42
1380.8
1077.66
11943.5
11953.5
11945
11941.6
11410.9
9035.03
9030.8
9132.53
9489.72
9614.95
8968.39
8986.95
9718.33
10340.7
10347.7
10363.8
10323.7
10302.6
10307.5
)
;
    }
    atmosphere
    {
        type            calculated;
        value           nonuniform List<scalar> 
46
(
1
1
1
1
1
1
1
1
1
1
1
1
1
1
1
1
1
1
1
1
1
1
1
1
1
1
1
1
1
1
1
1
1
1
1
1
1
0.999999
1
1
1
1
1
1
1
1
)
;
    }
    defaultFaces
    {
        type            empty;
    }
}


// ************************************************************************* //
