/*--------------------------------*- C++ -*----------------------------------*\
  =========                 |
  \\      /  F ield         | OpenFOAM: The Open Source CFD Toolbox
   \\    /   O peration     | Website:  https://openfoam.org
    \\  /    A nd           | Version:  13
     \\/     M anipulation  |
\*---------------------------------------------------------------------------*/
FoamFile
{
    format      ascii;
    class       volVectorField;
    location    "3";
    object      U;
}
// * * * * * * * * * * * * * * * * * * * * * * * * * * * * * * * * * * * * * //

dimensions      [0 1 -1 0 0 0 0];

internalField   nonuniform List<vector> 
2268
(
(-0.000308701 0.000782915 0)
(-0.00609561 0.00421337 0)
(-0.021616 0.0055819 0)
(-0.0366914 0.00521525 0)
(-0.0499752 0.00445501 0)
(-0.0608717 0.00353456 0)
(-0.0691177 0.00257799 0)
(-0.0747469 0.00165827 0)
(-0.077917 0.000803199 0)
(-0.078831 2.20224e-05 0)
(-0.077716 -0.000679783 0)
(-0.0748502 -0.0012995 0)
(-0.0705051 -0.00182303 0)
(-0.0650076 -0.00223816 0)
(-0.0586766 -0.00255912 0)
(-0.0517552 -0.00282205 0)
(-0.0443828 -0.0030671 0)
(-0.0365816 -0.00333954 0)
(-0.0282818 -0.0036587 0)
(-0.019482 -0.00393433 0)
(-0.010469 -0.00386483 0)
(-0.00149385 -0.00228389 0)
(-0.000476182 -0.000604362 0)
(-0.00368061 0.00212153 0)
(-0.0120399 0.00868359 0)
(-0.0258401 0.0108968 0)
(-0.0392097 0.0102375 0)
(-0.0508183 0.00870782 0)
(-0.0602304 0.00686954 0)
(-0.0672329 0.00495822 0)
(-0.0718398 0.00310789 0)
(-0.0741751 0.0013821 0)
(-0.074417 -0.000185293 0)
(-0.0728069 -0.00155295 0)
(-0.0696267 -0.00272557 0)
(-0.0651564 -0.00366986 0)
(-0.059722 -0.00436878 0)
(-0.053641 -0.00485066 0)
(-0.0471755 -0.0051786 0)
(-0.0405139 -0.00542824 0)
(-0.0337572 -0.00568419 0)
(-0.0269212 -0.00599436 0)
(-0.0199885 -0.00626044 0)
(-0.0130101 -0.00604385 0)
(-0.00594897 -0.00406098 0)
(-0.0025608 -0.000287261 0)
(-0.0069337 0.00638433 0)
(-0.0161071 0.0140718 0)
(-0.0284092 0.0164218 0)
(-0.0400903 0.0153257 0)
(-0.0501354 0.0129691 0)
(-0.0582345 0.0101635 0)
(-0.0642101 0.00725539 0)
(-0.0680575 0.00443929 0)
(-0.0698655 0.00181089 0)
(-0.069772 -0.000576743 0)
(-0.0680027 -0.00264232 0)
(-0.0648208 -0.00440493 0)
(-0.0604908 -0.00581416 0)
(-0.0553211 -0.00684348 0)
(-0.0496128 -0.00753045 0)
(-0.0436273 -0.00795928 0)
(-0.0375754 -0.00823316 0)
(-0.0316038 -0.00847154 0)
(-0.0257814 -0.00875607 0)
(-0.0200982 -0.00900969 0)
(-0.014489 -0.0087656 0)
(-0.00865654 -0.00685362 0)
(-0.00444137 -0.00305119 0)
(-0.00908116 0.0119222 0)
(-0.0186508 0.0197303 0)
(-0.0298801 0.0217544 0)
(-0.0401069 0.0201288 0)
(-0.0487766 0.0169955 0)
(-0.0557361 0.0132941 0)
(-0.0608513 0.0094433 0)
(-0.0641046 0.00568745 0)
(-0.0655573 0.00215014 0)
(-0.0653049 -0.00108012 0)
(-0.0635314 -0.00386414 0)
(-0.060469 -0.00623345 0)
(-0.056363 -0.00810902 0)
(-0.051501 -0.00945928 0)
(-0.046165 -0.0103317 0)
(-0.0406089 -0.0108284 0)
(-0.0350548 -0.011075 0)
(-0.0296793 -0.0112236 0)
(-0.024589 -0.0113979 0)
(-0.0197855 -0.0115738 0)
(-0.0151252 -0.0113576 0)
(-0.0101047 -0.00980428 0)
(-0.00539037 -0.00641321 0)
(-0.0102496 0.0181696 0)
(-0.0199229 0.0255379 0)
(-0.0303953 0.026797 0)
(-0.0393948 0.0245108 0)
(-0.0468888 0.0206356 0)
(-0.0528894 0.0161177 0)
(-0.0573072 0.011407 0)
(-0.0601155 0.00678658 0)
(-0.0613515 0.00241341 0)
(-0.0610647 -0.00160307 0)
(-0.0593763 -0.00505889 0)
(-0.0564809 -0.00798578 0)
(-0.0526198 -0.0102761 0)
(-0.0480636 -0.0118976 0)
(-0.0430694 -0.0129106 0)
(-0.0378775 -0.0134324 0)
(-0.0327102 -0.0136058 0)
(-0.0277604 -0.0136095 0)
(-0.023164 -0.0136072 0)
(-0.0189425 -0.0136441 0)
(-0.0149266 -0.0134634 0)
(-0.0104555 -0.0124592 0)
(-0.00592775 -0.0102647 0)
(-0.010924 0.0246653 0)
(-0.0202263 0.0312078 0)
(-0.0300889 0.0312416 0)
(-0.0380102 0.0280983 0)
(-0.0445002 0.0234817 0)
(-0.0496995 0.0182408 0)
(-0.0535524 0.0128305 0)
(-0.0560206 0.00756698 0)
(-0.0571454 0.00262249 0)
(-0.0569592 -0.00193193 0)
(-0.0554409 -0.00587563 0)
(-0.0527407 -0.00920697 0)
(-0.0491395 -0.0118086 0)
(-0.0448793 -0.0136549 0)
(-0.0401872 -0.0148062 0)
(-0.0352845 -0.0153825 0)
(-0.0303851 -0.0155307 0)
(-0.0256866 -0.0154425 0)
(-0.0213544 -0.0153077 0)
(-0.0174673 -0.0152334 0)
(-0.0139252 -0.0151099 0)
(-0.00993544 -0.0146961 0)
(-0.00685684 -0.0144731 0)
(-0.0132894 0.0321444 0)
(-0.0197973 0.0359435 0)
(-0.0289024 0.0346158 0)
(-0.0357466 0.0308029 0)
(-0.0413254 0.0257206 0)
(-0.0458402 0.0200109 0)
(-0.0492148 0.0140796 0)
(-0.0513724 0.00826158 0)
(-0.0523177 0.00277069 0)
(-0.0520555 -0.00231883 0)
(-0.0504951 -0.00675301 0)
(-0.0477595 -0.010445 0)
(-0.044191 -0.013274 0)
(-0.0400313 -0.015246 0)
(-0.0354849 -0.0164332 0)
(-0.0307483 -0.0169701 0)
(-0.026008 -0.0170112 0)
(-0.0214467 -0.0167635 0)
(-0.0172589 -0.01644 0)
(-0.0136236 -0.0162014 0)
(-0.0106101 -0.0160585 0)
(-0.00729979 -0.0158482 0)
(-0.00658318 -0.0166932 0)
(-0.0151537 0.03532 0)
(-0.018356 0.0388374 0)
(-0.0262016 0.0367282 0)
(-0.0316054 0.032369 0)
(-0.0360427 0.0269241 0)
(-0.0396591 0.0209206 0)
(-0.0423067 0.0147277 0)
(-0.0438455 0.00866537 0)
(-0.044175 0.00293508 0)
(-0.0431867 -0.00256483 0)
(-0.0408472 -0.00761774 0)
(-0.0373233 -0.0119189 0)
(-0.0329664 -0.015328 0)
(-0.0280819 -0.0178112 0)
(-0.022953 -0.0193989 0)
(-0.017789 -0.0202055 0)
(-0.0127552 -0.0203574 0)
(-0.00802537 -0.0200509 0)
(-0.00388127 -0.0194615 0)
(-0.000747814 -0.0188052 0)
(0.000877827 -0.018335 0)
(0.00136341 -0.0178193 0)
(0.00118685 -0.0188661 0)
(0.0053834 -0.00308201 0)
(0.027914 -0.00778767 0)
(0.0506949 -0.00602749 0)
(0.0660083 -0.00344052 0)
(0.072145 -0.00121748 0)
(0.066169 0.00742467 0)
(0.0445599 0.00702015 0)
(0.0275195 0.00591297 0)
(0.0125934 0.00325977 0)
(0.0104638 -0.00346527 0)
(0.0152616 0.00228044 0)
(-0.00250184 0.00740751 0)
(-0.00920969 -0.00232263 0)
(-0.00131244 -0.00349757 0)
(0.00284178 -0.001581 0)
(0.00426753 -0.000957014 0)
(0.00473584 -0.000169855 0)
(0.00392269 -0.000511922 0)
(0.00487766 0.00150625 0)
(0.011866 -0.0100699 0)
(0.0296517 -0.0157935 0)
(0.0478004 -0.0128602 0)
(0.0595985 -0.00544102 0)
(0.0594267 0.000711837 0)
(0.0541778 0.00939543 0)
(0.0454777 0.0104619 0)
(0.0344733 0.00953512 0)
(0.0237398 0.00683175 0)
(0.0134072 0.000407726 0)
(0.00760214 0.00317358 0)
(0.00903542 0.00538864 0)
(0.0113892 -0.000776935 0)
(0.00816719 -0.0019582 0)
(0.00535069 -0.00072176 0)
(0.00358287 -0.000347634 0)
(0.00198403 0.000392092 0)
(0.0010294 0.000526328 0)
(-0.00111336 0.00273568 0)
(0.0142778 -0.0185877 0)
(0.0251593 -0.0221539 0)
(0.0386403 -0.0188183 0)
(0.0532804 -0.00852568 0)
(0.0595542 0.0021057 0)
(0.0566835 0.010815 0)
(0.0494196 0.0133644 0)
(0.040514 0.0127754 0)
(0.035069 0.00979092 0)
(0.0255102 0.00449836 0)
(0.0147631 0.00446925 0)
(0.0168042 0.00311274 0)
(0.0204554 -6.6699e-05 0)
(0.0138645 -0.000247753 0)
(0.00789117 0.000613018 0)
(0.00315932 0.000888448 0)
(-0.000805534 0.00127254 0)
(-0.00249091 0.0014892 0)
(-0.00716056 0.000633472 0)
(0.00954685 -0.0250405 0)
(0.0166374 -0.0264232 0)
(0.0245653 -0.0245342 0)
(0.0404082 -0.0155501 0)
(0.0578418 -0.000110329 0)
(0.0600624 0.0125757 0)
(0.0524866 0.0164843 0)
(0.0471933 0.0160684 0)
(0.049912 0.0111105 0)
(0.0485413 0.00933224 0)
(0.0363396 0.00807093 0)
(0.0313388 0.00293869 0)
(0.0277315 0.00103815 0)
(0.0144273 0.00290712 0)
(0.00572229 0.00332243 0)
(0.00191207 0.00344705 0)
(0.000705307 0.00260433 0)
(0.00508171 0.00257353 0)
(0.0115056 -0.00204205 0)
(0.00425012 -0.0280981 0)
(0.00887735 -0.0278727 0)
(0.0121355 -0.028805 0)
(0.0225466 -0.0236502 0)
(0.0391805 -0.00812335 0)
(0.0503185 0.0157538 0)
(0.0481838 0.0187488 0)
(0.054764 0.0154551 0)
(0.0659553 0.00780282 0)
(0.0750762 0.0105446 0)
(0.0723471 0.0126713 0)
(0.0636271 0.00722788 0)
(0.0386356 0.00704157 0)
(0.000602902 0.0106382 0)
(-0.012138 0.00525938 0)
(0.00171463 0.0019788 0)
(0.0182819 -0.00119176 0)
(0.0373575 -0.00525789 0)
(0.0672389 0.0112453 0)
(0.00917514 -0.0327372 0)
(0.006047 -0.0286025 0)
(0.00869155 -0.0306893 0)
(0.0126536 -0.0265905 0)
(0.0189013 -0.015129 0)
(0.030169 0.0126033 0)
(0.0420586 0.014364 0)
(0.054777 0.00887442 0)
(0.0663175 0.00262162 0)
(0.0742172 0.00734643 0)
(0.0787002 0.0139712 0)
(0.0864059 0.011258 0)
(0.0535909 0.0294517 0)
(-0.0148763 0.026287 0)
(-0.0135843 -0.000675229 0)
(0.00655961 -0.00711286 0)
(0.0266978 -0.0116849 0)
(0.0428571 -0.0186326 0)
(0.0645446 0.040546 0)
(0.0115057 -0.0370698 0)
(0.00257488 -0.0262073 0)
(0.00735045 -0.0327633 0)
(0.011847 -0.0265553 0)
(0.0101514 -0.0167028 0)
(0.0177967 0.00608329 0)
(0.0348962 0.00784631 0)
(0.0490693 0.00346019 0)
(0.0566758 0.000219249 0)
(0.059462 0.00495818 0)
(0.0650359 0.0108874 0)
(0.0754968 0.0113425 0)
(0.0500301 0.060359 0)
(-0.00623824 0.0383046 0)
(-0.000630102 -0.0062405 0)
(0.0118155 -0.0143406 0)
(0.0259261 -0.0193417 0)
(0.0317091 -0.0230779 0)
(0.0495036 0.0593084 0)
(0.00931808 -0.0384646 0)
(-0.000418639 -0.0257332 0)
(0.00544818 -0.0358216 0)
(0.0115438 -0.0273985 0)
(0.00836942 -0.0164119 0)
(0.0124271 0.00106732 0)
(0.0262773 0.00177121 0)
(0.0367149 0.000278479 0)
(0.0393918 -0.000648977 0)
(0.0398115 0.00333436 0)
(0.0456407 0.0067839 0)
(0.0540447 0.0115151 0)
(0.0388689 0.0768311 0)
(0.00710026 0.0426968 0)
(0.013648 -0.00846235 0)
(0.0162101 -0.017596 0)
(0.0201481 -0.0224667 0)
(0.0141011 -0.0232648 0)
(0.0301116 0.0729922 0)
(-0.0157064 0.0536621 0)
(-0.0168206 0.0489551 0)
(-0.0195967 0.0447878 0)
(-0.0198827 0.039258 0)
(-0.0194636 0.0330118 0)
(-0.0182836 0.0258379 0)
(-0.0163465 0.0179915 0)
(-0.0140043 0.0100064 0)
(-0.0114805 0.00212552 0)
(-0.00863834 -0.00544409 0)
(-0.005455 -0.0121448 0)
(-0.00184518 -0.0175061 0)
(0.00206648 -0.0214153 0)
(0.00607255 -0.0239308 0)
(0.00994534 -0.0252531 0)
(0.0135997 -0.0256721 0)
(0.016994 -0.0253369 0)
(0.0200301 -0.0244445 0)
(0.0223465 -0.022964 0)
(0.0232309 -0.0209215 0)
(0.0218065 -0.0184442 0)
(0.0173305 -0.0145074 0)
(0.00742407 -0.00588908 0)
(-0.00307384 0.0596689 0)
(-0.000516824 0.0475518 0)
(0.00169794 0.0404558 0)
(0.00528419 0.0341583 0)
(0.00894874 0.0272675 0)
(0.0129905 0.0195605 0)
(0.0173934 0.011913 0)
(0.0214723 0.00508689 0)
(0.0249061 -0.00146101 0)
(0.0277698 -0.00792912 0)
(0.0302622 -0.013843 0)
(0.0324746 -0.0187674 0)
(0.0344322 -0.0224439 0)
(0.036077 -0.0246912 0)
(0.03725 -0.0257194 0)
(0.0379286 -0.0259651 0)
(0.0381537 -0.0254212 0)
(0.0378483 -0.0241645 0)
(0.036726 -0.0217526 0)
(0.0342491 -0.0180415 0)
(0.0301004 -0.0131334 0)
(0.0247987 -0.0062836 0)
(0.0202179 0.00385499 0)
(0.00518841 0.0551899 0)
(0.0137501 0.0415628 0)
(0.0201249 0.034175 0)
(0.0260785 0.0287235 0)
(0.0313044 0.0221587 0)
(0.0366326 0.0142288 0)
(0.0420601 0.00657528 0)
(0.046652 0.00100058 0)
(0.0499014 -0.00442363 0)
(0.0519717 -0.0101165 0)
(0.0530784 -0.0152739 0)
(0.0531579 -0.0195163 0)
(0.0524036 -0.0227222 0)
(0.0510654 -0.0244916 0)
(0.0490721 -0.0249252 0)
(0.046354 -0.0246915 0)
(0.0429231 -0.023558 0)
(0.0385851 -0.0214946 0)
(0.0331322 -0.0179401 0)
(0.0268393 -0.0130093 0)
(0.0200814 -0.007092 0)
(0.0133415 -0.00041806 0)
(0.0077542 0.00744833 0)
(0.0155614 0.0407203 0)
(0.0267526 0.0342495 0)
(0.0340241 0.0280979 0)
(0.0409361 0.0233466 0)
(0.0476907 0.0169723 0)
(0.0538942 0.00899119 0)
(0.0588126 0.0021756 0)
(0.0624188 -0.00244967 0)
(0.0649253 -0.00664794 0)
(0.0659355 -0.0111042 0)
(0.0649576 -0.0149718 0)
(0.0620403 -0.0179477 0)
(0.0576753 -0.0203334 0)
(0.0529769 -0.0217311 0)
(0.0481659 -0.0212402 0)
(0.0422501 -0.0198879 0)
(0.0346502 -0.0174402 0)
(0.0258892 -0.0143022 0)
(0.0169091 -0.00997532 0)
(0.00845226 -0.00528241 0)
(0.000953 0.000189637 0)
(-0.00521885 0.00556637 0)
(-0.00997052 0.012221 0)
(0.0115162 0.0191533 0)
(0.0264533 0.0214167 0)
(0.0380633 0.0181195 0)
(0.048907 0.0144358 0)
(0.0586664 0.00895583 0)
(0.066032 0.00271766 0)
(0.0699881 -0.00154393 0)
(0.0720597 -0.00514005 0)
(0.0735171 -0.00821183 0)
(0.0730222 -0.010293 0)
(0.0699098 -0.0117436 0)
(0.0643623 -0.0123703 0)
(0.0570695 -0.0136293 0)
(0.0495201 -0.0154566 0)
(0.0419858 -0.0143908 0)
(0.0333153 -0.0111589 0)
(0.0230598 -0.00715508 0)
(0.0127969 -0.00440961 0)
(0.00352919 -0.000775615 0)
(-0.00503613 0.00302792 0)
(-0.0127572 0.00712186 0)
(-0.0192167 0.0109526 0)
(-0.0240487 0.0157376 0)
(0.00427185 0.00352133 0)
(0.0209043 0.00379257 0)
(0.0380733 0.00340602 0)
(0.0526159 0.00170418 0)
(0.0641467 -0.00120317 0)
(0.0717188 -0.00338023 0)
(0.0762413 -0.00447754 0)
(0.0786682 -0.00659862 0)
(0.0790341 -0.00816143 0)
(0.077366 -0.00747803 0)
(0.0734871 -0.00638701 0)
(0.0678659 -0.00508438 0)
(0.0606079 -0.00486731 0)
(0.0512819 -0.00560802 0)
(0.0403047 -0.00405045 0)
(0.0289221 -0.000158121 0)
(0.0178137 0.00400406 0)
(0.0068216 0.00634552 0)
(-0.00402069 0.00893183 0)
(-0.013922 0.0117628 0)
(-0.0222993 0.0143052 0)
(-0.0287945 0.0165178 0)
(-0.0330287 0.0188095 0)
(0.017209 -0.0105254 0)
(0.0305352 -0.0149175 0)
(0.0453834 -0.0134485 0)
(0.0585462 -0.0121016 0)
(0.0690725 -0.0112712 0)
(0.0767687 -0.00982594 0)
(0.0821382 -0.00854729 0)
(0.0850429 -0.00810103 0)
(0.0850377 -0.00688137 0)
(0.082321 -0.00399096 0)
(0.0775374 -0.000968704 0)
(0.0710147 0.0018601 0)
(0.0625941 0.0040453 0)
(0.0519054 0.00581925 0)
(0.0393987 0.00861246 0)
(0.0263736 0.0124361 0)
(0.0137247 0.0161432 0)
(0.00145792 0.0187566 0)
(-0.0103654 0.0208243 0)
(-0.0208952 0.0222101 0)
(-0.029473 0.0227679 0)
(-0.0357015 0.0227019 0)
(-0.0395237 0.0224216 0)
(0.0185568 -0.0282446 0)
(0.0332678 -0.0250728 0)
(0.0488631 -0.0224587 0)
(0.0621886 -0.0200435 0)
(0.0729442 -0.0174717 0)
(0.0811237 -0.0143183 0)
(0.0867791 -0.0116605 0)
(0.0895208 -0.00895482 0)
(0.0889441 -0.00572938 0)
(0.0856248 -0.00130443 0)
(0.0802219 0.00293812 0)
(0.0727965 0.00691301 0)
(0.0632799 0.0105102 0)
(0.0513517 0.013908 0)
(0.0374783 0.0175666 0)
(0.0230541 0.0213366 0)
(0.009172 0.0246555 0)
(-0.00394562 0.0270936 0)
(-0.0160313 0.0285864 0)
(-0.0264094 0.0288249 0)
(-0.0346233 0.0278456 0)
(-0.0405818 0.0262039 0)
(-0.0443604 0.0248729 0)
(0.0149794 -0.0513295 0)
(0.0276686 -0.0399745 0)
(0.0473885 -0.0334042 0)
(0.0627774 -0.0283483 0)
(0.0745715 -0.0237401 0)
(0.0833586 -0.0189052 0)
(0.0894568 -0.0143543 0)
(0.0921654 -0.00947132 0)
(0.0907163 -0.00402081 0)
(0.0859995 0.00217881 0)
(0.0793406 0.00748489 0)
(0.0708316 0.012517 0)
(0.0602892 0.0172128 0)
(0.0470987 0.0217444 0)
(0.031908 0.0261106 0)
(0.0165754 0.0300556 0)
(0.00239118 0.0330733 0)
(-0.0103747 0.0349874 0)
(-0.0214308 0.0354935 0)
(-0.0304947 0.0342139 0)
(-0.0375132 0.0314676 0)
(-0.0423951 0.0280643 0)
(-0.0451168 0.0244741 0)
(0.0511684 -0.0789893 0)
(0.0281644 -0.0515417 0)
(0.0457669 -0.0421659 0)
(0.0583836 -0.035157 0)
(0.0694642 -0.0293215 0)
(0.0777431 -0.0232721 0)
(0.0829222 -0.0172633 0)
(0.0843569 -0.00975285 0)
(0.0822714 -0.000387593 0)
(0.0774636 0.00900769 0)
(0.0706351 0.01748 0)
(0.0618196 0.0262146 0)
(0.0516548 0.0352319 0)
(0.0407532 0.0437173 0)
(0.0293875 0.048943 0)
(0.0177277 0.0500931 0)
(0.00596087 0.0484502 0)
(-0.00554105 0.0458538 0)
(-0.0157741 0.0423447 0)
(-0.024346 0.0378137 0)
(-0.0314292 0.0325089 0)
(-0.0374182 0.0270413 0)
(-0.0400988 0.0240168 0)
(-0.0132435 -0.128809 0)
(-0.00356922 -0.0980142 0)
(0.00326931 -0.0995183 0)
(0.00616056 -0.0853572 0)
(0.00779974 -0.0670277 0)
(0.0105843 -0.0496591 0)
(0.0156773 -0.0328247 0)
(0.0219731 -0.0139789 0)
(0.0264083 0.00578122 0)
(0.0270962 0.0222039 0)
(0.0249519 0.0350863 0)
(0.0216396 0.0464612 0)
(0.0182872 0.0571746 0)
(0.015491 0.0670538 0)
(0.0134089 0.0746924 0)
(0.0115704 0.0798761 0)
(0.00931017 0.082289 0)
(0.0063951 0.0817964 0)
(0.00291406 0.0779761 0)
(-0.000979075 0.0712643 0)
(-0.00533741 0.0624281 0)
(-0.00912535 0.0515442 0)
(-0.0109943 0.0404545 0)
(-0.0176954 -0.0788655 0)
(-0.0208619 -0.0681069 0)
(-0.02332 -0.0643867 0)
(-0.027395 -0.0559619 0)
(-0.0308037 -0.0465421 0)
(-0.031093 -0.0389984 0)
(-0.0274918 -0.0317432 0)
(-0.021456 -0.0197555 0)
(-0.0150713 -0.00279944 0)
(-0.0106332 0.0144114 0)
(-0.00879512 0.027032 0)
(-0.00784538 0.0372784 0)
(-0.00700299 0.0459763 0)
(-0.00589303 0.0532256 0)
(-0.00445689 0.0588166 0)
(-0.00288566 0.062554 0)
(-0.00138713 0.0645271 0)
(-0.000178715 0.0645809 0)
(0.00057064 0.0623304 0)
(0.000683427 0.0579589 0)
(-0.000109606 0.0519352 0)
(-0.000933373 0.0446526 0)
(-0.00120179 0.0362185 0)
(-0.0161101 -0.0661936 0)
(-0.0252318 -0.062185 0)
(-0.0331012 -0.0570581 0)
(-0.040545 -0.0488698 0)
(-0.0464033 -0.0417304 0)
(-0.049271 -0.0383195 0)
(-0.0487403 -0.034822 0)
(-0.0458601 -0.024886 0)
(-0.0415531 -0.00865957 0)
(-0.0370109 0.00993338 0)
(-0.0332328 0.0231795 0)
(-0.0296804 0.0334974 0)
(-0.0261635 0.0420035 0)
(-0.0225491 0.0489035 0)
(-0.0188311 0.0541088 0)
(-0.0150702 0.0576123 0)
(-0.0113689 0.0594462 0)
(-0.00782245 0.0595831 0)
(-0.00461978 0.0579216 0)
(-0.00200861 0.054548 0)
(-0.000385879 0.0497918 0)
(0.00115006 0.0440878 0)
(0.00347067 0.037921 0)
(-0.0160824 -0.0476959 0)
(-0.0265298 -0.0510378 0)
(-0.0364376 -0.0484289 0)
(-0.0447433 -0.0420728 0)
(-0.0511747 -0.0369897 0)
(-0.0557642 -0.0362003 0)
(-0.0586136 -0.0347825 0)
(-0.0593602 -0.0268535 0)
(-0.0583352 -0.0118536 0)
(-0.0553856 0.00600119 0)
(-0.0510527 0.0188965 0)
(-0.0463501 0.0290529 0)
(-0.0413518 0.037363 0)
(-0.0362194 0.044104 0)
(-0.0309794 0.0492289 0)
(-0.0257043 0.0527671 0)
(-0.0204793 0.0547668 0)
(-0.0154238 0.0552208 0)
(-0.0107047 0.0540829 0)
(-0.00652231 0.0514422 0)
(-0.00318711 0.0475521 0)
(0.000131696 0.0428466 0)
(0.00447386 0.0381035 0)
(-0.013187 -0.0293112 0)
(-0.0247876 -0.0391509 0)
(-0.0357587 -0.039373 0)
(-0.044576 -0.0350834 0)
(-0.0511931 -0.0319395 0)
(-0.0565495 -0.0319704 0)
(-0.0616407 -0.0315524 0)
(-0.0656887 -0.0254764 0)
(-0.0674063 -0.0123796 0)
(-0.066003 0.00266342 0)
(-0.0621536 0.0144998 0)
(-0.0572738 0.0241968 0)
(-0.0519169 0.0322887 0)
(-0.046204 0.0389417 0)
(-0.0402941 0.044032 0)
(-0.0342757 0.0476144 0)
(-0.0282749 0.0497377 0)
(-0.0224235 0.05042 0)
(-0.0168747 0.0496809 0)
(-0.0117825 0.0476276 0)
(-0.00743436 0.0444976 0)
(-0.00294173 0.0405821 0)
(0.00273768 0.0367498 0)
(-0.00934445 -0.0136994 0)
(-0.0215393 -0.0258644 0)
(-0.0332529 -0.028737 0)
(-0.0426561 -0.0269566 0)
(-0.0496059 -0.0259767 0)
(-0.0553793 -0.0263498 0)
(-0.0612774 -0.0260619 0)
(-0.0668643 -0.0214124 0)
(-0.0701487 -0.0111914 0)
(-0.0699191 0.000304038 0)
(-0.0671339 0.0104977 0)
(-0.0630332 0.0192338 0)
(-0.0580559 0.0267636 0)
(-0.052503 0.0330371 0)
(-0.046559 0.0379071 0)
(-0.0404044 0.0414093 0)
(-0.034187 0.0435829 0)
(-0.0280632 0.0444556 0)
(-0.0221768 0.0440744 0)
(-0.0166447 0.0425538 0)
(-0.0117654 0.0400965 0)
(-0.00663335 0.0369694 0)
(-9.44532e-05 0.0338346 0)
(-0.00753917 -0.000865032 0)
(-0.0187708 -0.0128204 0)
(-0.0301579 -0.0176036 0)
(-0.0394923 -0.0185672 0)
(-0.0467076 -0.01946 0)
(-0.052928 -0.0203766 0)
(-0.0590377 -0.0199327 0)
(-0.0646239 -0.0163776 0)
(-0.0682045 -0.0092817 0)
(-0.0690026 -0.000698783 0)
(-0.0675014 0.00754226 0)
(-0.0644301 0.0150793 0)
(-0.0602729 0.0217426 0)
(-0.0553137 0.0274059 0)
(-0.0497974 0.0318923 0)
(-0.0439388 0.0351976 0)
(-0.0379204 0.0373314 0)
(-0.0319109 0.0383176 0)
(-0.0260545 0.0382082 0)
(-0.0204585 0.0371101 0)
(-0.0153792 0.0351975 0)
(-0.0100045 0.0326615 0)
(-0.00303299 0.030172 0)
(-0.00700321 0.0103237 0)
(-0.0166072 -0.0010161 0)
(-0.0266433 -0.00706987 0)
(-0.0353425 -0.0103749 0)
(-0.0425678 -0.0126706 0)
(-0.0489521 -0.0141462 0)
(-0.0549081 -0.0141183 0)
(-0.0601232 -0.0116953 0)
(-0.0637295 -0.00683813 0)
(-0.0651655 -0.000669368 0)
(-0.0646264 0.00576679 0)
(-0.0625591 0.0119286 0)
(-0.0593061 0.0175631 0)
(-0.0551363 0.0224524 0)
(-0.0502938 0.0264245 0)
(-0.0450031 0.0294176 0)
(-0.0394559 0.0314148 0)
(-0.0338312 0.0324243 0)
(-0.0282735 0.0324903 0)
(-0.0228701 0.0317049 0)
(-0.0179125 0.0302042 0)
(-0.0125292 0.0281343 0)
(-0.00545254 0.026165 0)
(-0.00614265 0.0204178 0)
(-0.014243 0.0089655 0)
(-0.0228215 0.00206469 0)
(-0.0306723 -0.0026191 0)
(-0.0375773 -0.00594612 0)
(-0.0437575 -0.00804892 0)
(-0.0493789 -0.00863213 0)
(-0.0541945 -0.00732913 0)
(-0.0576733 -0.0042084 0)
(-0.0594631 9.61193e-05 0)
(-0.0596171 0.00488213 0)
(-0.0583681 0.00970091 0)
(-0.0559513 0.014254 0)
(-0.0525924 0.0183059 0)
(-0.0485107 0.0216739 0)
(-0.0439134 0.0242672 0)
(-0.0389887 0.026042 0)
(-0.0339132 0.0269902 0)
(-0.0288272 0.0271419 0)
(-0.023823 0.0265721 0)
(-0.0191448 0.0253877 0)
(-0.0140015 0.0236779 0)
(-0.00710372 0.0221514 0)
(-0.00491114 0.0289738 0)
(-0.0116534 0.0173371 0)
(-0.0188951 0.00988786 0)
(-0.0257742 0.00443112 0)
(-0.0320788 0.000402784 0)
(-0.0378227 -0.00231281 0)
(-0.0429938 -0.00358154 0)
(-0.047391 -0.00328193 0)
(-0.0506841 -0.00153072 0)
(-0.0526373 0.00126342 0)
(-0.0532428 0.00463992 0)
(-0.0526157 0.0082262 0)
(-0.0509094 0.0117398 0)
(-0.0482969 0.0149504 0)
(-0.0449613 0.0176806 0)
(-0.0410847 0.0198226 0)
(-0.0368397 0.0213148 0)
(-0.032394 0.0221348 0)
(-0.0278791 0.022299 0)
(-0.023366 0.0218652 0)
(-0.0191477 0.0209091 0)
(-0.014345 0.0194988 0)
(-0.00778902 0.0183495 0)
(-0.00351302 0.0357432 0)
(-0.0090043 0.0242128 0)
(-0.0149966 0.0165159 0)
(-0.0208833 0.0106327 0)
(-0.0264408 0.00612883 0)
(-0.0315757 0.00290933 0)
(-0.0362155 0.00100454 0)
(-0.0401775 0.000432269 0)
(-0.043233 0.00107514 0)
(-0.0452162 0.00265442 0)
(-0.0460952 0.00484254 0)
(-0.0459152 0.00734046 0)
(-0.0447762 0.00990007 0)
(-0.0428053 0.0123125 0)
(-0.0401483 0.0144125 0)
(-0.0369582 0.0160866 0)
(-0.0333875 0.0172641 0)
(-0.0295879 0.0179114 0)
(-0.0256782 0.0180339 0)
(-0.0217374 0.0176722 0)
(-0.0179945 0.0168864 0)
(-0.0136661 0.0157079 0)
(-0.00758428 0.0149058 0)
(-0.00215904 0.0406829 0)
(-0.00647905 0.0296698 0)
(-0.0112943 0.022006 0)
(-0.0161907 0.0159371 0)
(-0.0209402 0.0111298 0)
(-0.0253975 0.00751206 0)
(-0.029449 0.00507281 0)
(-0.0329432 0.00378373 0)
(-0.0357117 0.00353692 0)
(-0.0376264 0.00413286 0)
(-0.0386363 0.00532947 0)
(-0.0387565 0.00689035 0)
(-0.0380478 0.00860464 0)
(-0.0366016 0.0102898 0)
(-0.0345302 0.0117965 0)
(-0.0319581 0.0130144 0)
(-0.0290155 0.0138692 0)
(-0.0258374 0.0143211 0)
(-0.0225298 0.0143666 0)
(-0.0191431 0.0140346 0)
(-0.0159577 0.0133671 0)
(-0.0120896 0.0123824 0)
(-0.00648844 0.0118877 0)
(-0.0010176 0.043937 0)
(-0.00423745 0.0338053 0)
(-0.00794664 0.0264019 0)
(-0.0118725 0.0203333 0)
(-0.0157917 0.0153662 0)
(-0.0195379 0.0114597 0)
(-0.0229825 0.00859623 0)
(-0.0259905 0.00673506 0)
(-0.0284276 0.0057827 0)
(-0.0301899 0.0055888 0)
(-0.0312235 0.00597102 0)
(-0.0315238 0.00674254 0)
(-0.0311249 0.00772827 0)
(-0.0300899 0.00877181 0)
(-0.0285037 0.00974144 0)
(-0.026465 0.0105345 0)
(-0.0240829 0.0110778 0)
(-0.0214732 0.0113295 0)
(-0.0187267 0.0112795 0)
(-0.0159016 0.0109499 0)
(-0.0132016 0.0103679 0)
(-0.00983915 0.00952943 0)
(-0.004769 0.0093253 0)
(-0.000189411 0.0457802 0)
(-0.00238474 0.0367436 0)
(-0.005069 0.0297602 0)
(-0.00806158 0.02383 0)
(-0.0111546 0.0188235 0)
(-0.0141807 0.0147366 0)
(-0.0170094 0.0115608 0)
(-0.019518 0.00926013 0)
(-0.0215932 0.00775848 0)
(-0.0231464 0.00694043 0)
(-0.024124 0.00666583 0)
(-0.0245097 0.00678679 0)
(-0.0243189 0.00715967 0)
(-0.0235934 0.00765266 0)
(-0.0223954 0.00815154 0)
(-0.0208019 0.00856362 0)
(-0.0189019 0.00882043 0)
(-0.0167953 0.00888004 0)
(-0.0145586 0.00873017 0)
(-0.0122222 0.00838708 0)
(-0.0100443 0.0078604 0)
(-0.00708572 0.00714399 0)
(-0.00251513 0.00718759 0)
(0.000326351 0.0465274 0)
(-0.000957005 0.0386411 0)
(-0.00270966 0.0321545 0)
(-0.00482658 0.0264573 0)
(-0.00711979 0.0215094 0)
(-0.00943747 0.017342 0)
(-0.0116553 0.0139615 0)
(-0.0136617 0.0113434 0)
(-0.0153577 0.0094291 0)
(-0.0166641 0.00813015 0)
(-0.0175286 0.00733788 0)
(-0.0179272 0.00693503 0)
(-0.0178623 0.0068048 0)
(-0.0173592 0.00683747 0)
(-0.0164621 0.00693551 0)
(-0.0152295 0.00701735 0)
(-0.0137335 0.00702072 0)
(-0.012057 0.00690589 0)
(-0.0102622 0.00666074 0)
(-0.00839718 0.00629755 0)
(-0.00662926 0.00582854 0)
(-0.00409107 0.00523363 0)
(-6.94257e-05 0.00540878 0)
(0.000611967 0.0465156 0)
(8.96566e-05 0.0396471 0)
(-0.000855828 0.0336687 0)
(-0.00216911 0.0282644 0)
(-0.0037092 0.0234529 0)
(-0.00534957 0.0192929 0)
(-0.0069779 0.0158065 0)
(-0.00849332 0.0129813 0)
(-0.00980704 0.010775 0)
(-0.0108468 0.00912013 0)
(-0.011561 0.00793257 0)
(-0.0119206 0.00711968 0)
(-0.0119183 0.00658729 0)
(-0.0115666 0.00624519 0)
(-0.0108951 0.00601141 0)
(-0.00994747 0.00581564 0)
(-0.00878077 0.00560252 0)
(-0.00746473 0.00533603 0)
(-0.00605108 0.0050069 0)
(-0.00455293 0.00462644 0)
(-0.00319635 0.00421796 0)
(-0.00107106 0.00374496 0)
(0.00250107 0.00399064 0)
(0.000730294 0.0460288 0)
(0.00083076 0.0399055 0)
(0.000570521 0.0344065 0)
(-2.73098e-05 0.0293199 0)
(-0.000882209 0.0247009 0)
(-0.00189739 0.0206241 0)
(-0.00297559 0.0171197 0)
(-0.00402726 0.0141859 0)
(-0.00497198 0.0117931 0)
(-0.00574252 0.00989094 0)
(-0.00628795 0.00841482 0)
(-0.00657534 0.00729222 0)
(-0.0065901 0.00644822 0)
(-0.00633486 0.00580958 0)
(-0.00582762 0.00530848 0)
(-0.0051001 0.00488561 0)
(-0.00419861 0.00449453 0)
(-0.00317867 0.00410345 0)
(-0.00208152 0.00370758 0)
(-0.000924897 0.00332024 0)
(0.000148938 0.00295364 0)
(0.00182776 0.00255003 0)
(0.00498106 0.00293482 0)
(0.000769613 0.0452217 0)
(0.00137023 0.039572 0)
(0.00167781 0.0344828 0)
(0.00169304 0.0297181 0)
(0.00143971 0.0253303 0)
(0.000981463 0.0213939 0)
(0.000397621 0.0179437 0)
(-0.000233237 0.0149834 0)
(-0.000838506 0.0124937 0)
(-0.00135445 0.0104373 0)
(-0.00172994 0.00876408 0)
(-0.00192926 0.00741831 0)
(-0.00193248 0.0063417 0)
(-0.00173486 0.00547631 0)
(-0.00134637 0.00476901 0)
(-0.000790427 0.00417306 0)
(-0.000101296 0.0036463 0)
(0.000676284 0.00316105 0)
(0.00151483 0.00271068 0)
(0.00242858 0.00230782 0)
(0.00320833 0.00195301 0)
(0.00460266 0.00160582 0)
(0.00741628 0.00214668 0)
(0.000808469 0.0441763 0)
(0.00180948 0.0387648 0)
(0.00258549 0.0340062 0)
(0.00311177 0.0295506 0)
(0.0033642 0.02542 0)
(0.00337651 0.0216746 0)
(0.00321232 0.0183432 0)
(0.00294062 0.0154299 0)
(0.00262871 0.0129202 0)
(0.0023374 0.0107863 0)
(0.00211721 0.00899203 0)
(0.00200588 0.0074961 0)
(0.00202752 0.00625481 0)
(0.0021925 0.00522399 0)
(0.00249796 0.00436235 0)
(0.00292703 0.003633 0)
(0.00345668 0.00299774 0)
(0.00405214 0.00243373 0)
(0.00469456 0.00193881 0)
(0.00537617 0.0015231 0)
(0.00598651 0.00119103 0)
(0.00709982 0.000892247 0)
(0.00954641 0.00154142 0)
(0.000897332 0.0429071 0)
(0.0022301 0.0375642 0)
(0.00339738 0.0330762 0)
(0.00434056 0.02892 0)
(0.00500103 0.025066 0)
(0.00539093 0.0215488 0)
(0.00556252 0.0183849 0)
(0.00557833 0.0155742 0)
(0.00550173 0.0131047 0)
(0.00539184 0.0109558 0)
(0.00529941 0.00910179 0)
(0.00526419 0.00751362 0)
(0.00531329 0.00616065 0)
(0.00546143 0.00501161 0)
(0.00570879 0.00403886 0)
(0.00604541 0.00321138 0)
(0.00645564 0.00249623 0)
(0.00690961 0.00187612 0)
(0.00739149 0.00135038 0)
(0.00792488 0.000930886 0)
(0.00833113 0.000622395 0)
(0.00926335 0.000369304 0)
(0.0114561 0.0010931 0)
(0.00106852 0.0413793 0)
(0.00269371 0.0360173 0)
(0.00419687 0.0317738 0)
(0.00547307 0.0279213 0)
(0.00644597 0.0243665 0)
(0.00711668 0.0211114 0)
(0.00753327 0.0181553 0)
(0.00775601 0.0154914 0)
(0.00784732 0.0131079 0)
(0.00786625 0.01099 0)
(0.00786443 0.00912109 0)
(0.00788312 0.00748363 0)
(0.0079516 0.0060594 0)
(0.00808716 0.00482932 0)
(0.00829137 0.003779 0)
(0.00855996 0.0028807 0)
(0.00887927 0.00210918 0)
(0.00922518 0.0014516 0)
(0.00958786 0.000908356 0)
(0.00996803 0.000494289 0)
(0.010281 0.000210363 0)
(0.0110086 4.38297e-06 0)
(0.0129001 0.000772847 0)
(0.00133701 0.039524 0)
(0.00323976 0.0341442 0)
(0.0050412 0.0301635 0)
(0.00657765 0.0266419 0)
(0.00777195 0.0234179 0)
(0.00862701 0.020458 0)
(0.00919515 0.0177432 0)
(0.00954002 0.0152593 0)
(0.00972631 0.0129944 0)
(0.00981497 0.0109388 0)
(0.00985919 0.00908506 0)
(0.00990181 0.00742676 0)
(0.00997343 0.00595808 0)
(0.0100926 0.0046722 0)
(0.010261 0.00356699 0)
(0.010477 0.00261856 0)
(0.0107275 0.0018094 0)
(0.0109893 0.0011294 0)
(0.0112547 0.000580198 0)
(0.0115497 0.000176911 0)
(0.0117252 -8.04222e-05 0)
(0.0123335 -0.000249175 0)
(0.0139982 0.000550744 0)
(0.00171182 0.037254 0)
(0.00389144 0.0319457 0)
(0.00596587 0.0282972 0)
(0.00769723 0.0251621 0)
(0.00902638 0.0223133 0)
(0.00997142 0.019684 0)
(0.0105985 0.0172391 0)
(0.0109802 0.0149587 0)
(0.0111871 0.0128324 0)
(0.0112837 0.0108569 0)
(0.0113256 0.00903402 0)
(0.0113573 0.00736935 0)
(0.0114104 0.00586968 0)
(0.011503 0.00454197 0)
(0.0116368 0.00339444 0)
(0.0118096 0.00240985 0)
(0.0120052 0.00157658 0)
(0.0122026 0.000886013 0)
(0.012397 0.000339768 0)
(0.0125887 -5.03457e-05 0)
(0.0127198 -0.00028345 0)
(0.01318 -0.000414621 0)
(0.0145701 0.000392352 0)
(0.00219601 0.0344736 0)
(0.00465589 0.029413 0)
(0.00698253 0.0262194 0)
(0.00884839 0.0235568 0)
(0.0102295 0.0211422 0)
(0.0111737 0.0188822 0)
(0.0117705 0.0167314 0)
(0.0121073 0.0146692 0)
(0.0122631 0.0126904 0)
(0.0123072 0.0108001 0)
(0.0122978 0.00901122 0)
(0.0122813 0.00734176 0)
(0.0122905 0.00581244 0)
(0.0123429 0.00444518 0)
(0.0124396 0.00325875 0)
(0.0125737 0.00224518 0)
(0.0127249 0.00139712 0)
(0.01287 0.000705454 0)
(0.0130009 0.000168775 0)
(0.0131435 -0.000203761 0)
(0.0131812 -0.00041031 0)
(0.0135592 -0.000514381 0)
(0.014783 0.000292357 0)
(0.00279335 0.031087 0)
(0.00552566 0.0265366 0)
(0.00808311 0.0239728 0)
(0.0100232 0.0218985 0)
(0.011375 0.0199905 0)
(0.0122315 0.0181403 0)
(0.0127158 0.0163029 0)
(0.0129339 0.0144652 0)
(0.0129744 0.0126327 0)
(0.012911 0.0108224 0)
(0.0128044 0.00905981 0)
(0.0127027 0.00737659 0)
(0.0126406 0.00580776 0)
(0.0126364 0.00439201 0)
(0.0126905 0.00316128 0)
(0.012788 0.00211985 0)
(0.0129009 0.00126259 0)
(0.0130033 0.000577233 0)
(0.0130879 5.6463e-05 0)
(0.0131577 -0.0002938 0)
(0.0131785 -0.000479521 0)
(0.0134493 -0.000552784 0)
(0.0144573 0.000226569 0)
(0.00350342 0.0270068 0)
(0.00647589 0.0233147 0)
(0.00923509 0.0216026 0)
(0.0111858 0.0202589 0)
(0.0124267 0.0189398 0)
(0.0131162 0.0175387 0)
(0.0134184 0.0160266 0)
(0.013459 0.0144107 0)
(0.0133338 0.0127146 0)
(0.0131188 0.0109714 0)
(0.0128755 0.00922021 0)
(0.0126535 0.00750605 0)