/*--------------------------------*- C++ -*----------------------------------*\
  =========                 |
  \\      /  F ield         | OpenFOAM: The Open Source CFD Toolbox
   \\    /   O peration     | Website:  https://openfoam.org
    \\  /    A nd           | Version:  13
     \\/     M anipulation  |
\*---------------------------------------------------------------------------*/
FoamFile
{
    format      ascii;
    class       volScalarField;
    location    "1.45";
    object      alpha.oil;
}
// * * * * * * * * * * * * * * * * * * * * * * * * * * * * * * * * * * * * * //

dimensions      [];

internalField   nonuniform List<scalar> 
2268
(
3.77161e-16
3.88162e-15
3.20531e-14
1.23251e-13
3.06003e-13
6.62882e-13
1.15009e-12
2.49327e-12
5.04974e-12
9.36049e-12
1.67415e-11
3.28992e-11
6.2083e-11
1.20503e-10
2.33101e-10
4.59044e-10
8.92697e-10
1.57228e-09
2.39142e-09
2.55083e-09
3.09347e-09
0.000412831
0.000568199
4.27406e-16
4.87537e-15
1.88573e-14
5.68073e-14
2.12441e-13
5.9304e-13
1.28449e-12
2.95986e-12
6.21486e-12
1.27783e-11
2.92207e-11
5.60287e-11
1.08703e-10
2.13155e-10
4.02928e-10
7.48145e-10
1.47539e-09
3.10576e-09
7.4126e-09
1.52826e-08
3.10135e-09
0.000102439
0.000566906
7.13011e-16
3.22341e-15
9.28435e-15
2.75688e-14
1.08552e-13
5.3808e-13
1.4202e-12
3.23955e-12
7.3539e-12
1.88723e-11
4.00158e-11
8.13744e-11
1.6334e-10
3.02688e-10
5.03831e-10
8.24609e-10
1.05059e-09
1.02312e-09
1.82659e-08
3.19142e-08
1.81196e-08
1.86125e-08
0.000349491
7.88012e-16
2.51042e-15
7.76251e-15
1.67014e-14
5.73124e-14
2.55697e-13
7.76338e-13
2.15035e-12
6.22445e-12
1.61429e-11
3.63733e-11
7.77288e-11
1.65553e-10
3.25973e-10
7.80119e-10
2.11071e-09
2.91837e-09
4.31381e-09
1.66219e-08
3.25578e-08
3.32685e-08
2.12242e-08
1.6537e-05
3.53754e-13
6.77678e-13
1.55574e-12
1.53302e-12
1.11634e-12
8.18842e-13
6.68986e-13
7.75426e-13
1.92148e-12
5.3084e-12
1.61655e-11
4.18021e-11
1.06309e-10
1.75844e-10
4.43572e-10
4.53585e-09
6.24527e-09
5.38764e-09
8.87151e-09
1.09928e-08
1.72802e-08
1.69723e-07
1.19843e-07
3.8758e-11
4.18927e-11
7.40104e-11
7.92002e-11
7.1343e-11
4.63958e-11
2.51493e-11
1.01863e-11
3.43684e-12
3.51306e-12
6.62028e-12
1.51623e-11
6.46751e-11
2.37771e-10
2.45039e-10
2.62944e-09
5.89857e-08
3.18906e-08
2.31663e-08
2.21993e-08
1.64573e-08
8.84082e-08
8.10687e-08
5.50725e-10
6.13178e-10
6.41059e-10
5.64022e-10
4.72631e-10
2.79743e-10
1.36308e-10
7.24295e-11
4.19633e-11
2.71819e-11
2.78283e-11
3.87953e-11
9.48772e-11
3.58834e-10
5.09474e-10
4.37048e-10
4.21859e-10
3.92223e-07
4.9965e-07
2.73358e-06
3.51558e-07
6.29872e-08
2.80576e-08
2.37641e-09
2.52489e-09
2.35751e-09
2.05817e-09
1.75216e-09
1.03889e-09
4.82254e-10
2.62377e-10
1.33422e-10
7.78675e-11
6.9612e-11
1.12678e-10
2.0385e-10
3.43928e-10
4.90751e-10
4.41391e-10
4.16417e-10
5.67743e-10
5.51277e-06
6.46158e-06
6.07009e-06
2.50973e-08
0.000379827
0.0968313
0.0312537
0.0398829
0.310774
0.37429
0.374325
0.370102
0.353906
0.356026
0.352621
0.180429
0.0572344
0.0579595
0.121561
0.170977
0.256597
0.267959
0.264605
0.268576
0.101035
0.0260159
0.00126867
0.013252
0.0406819
0.0232778
0.0150634
0.0235778
0.0520349
0.130681
0.251008
0.0909703
0.0578393
0.0708054
0.168633
0.216732
0.225009
0.252995
0.399315
0.114297
0.347489
0.0237798
0.000321747
8.44942e-09
8.21091e-11
0.00378961
0.0908345
0.163708
0.231058
0.285743
0.282571
0.22902
0.220569
0.192336
0.259585
0.266665
0.28252
0.520221
0.114175
0.466575
0.1275
-8.43958e-13
1.29766e-07
6.18141e-10
0.00497722
0.147377
0.247014
0.247279
0.247662
0.262525
0.263801
0.263524
0.258859
0.184782
0.142701
0.316831
0.520409
0.114877
0.28382
0.0744497
-8.54751e-10
1.17296e-07
2.47823e-10
0.000353166
0.0136086
0.0814704
0.221526
0.247066
0.140443
0.149574
0.120659
0.135815
0.122102
0.122093
0.300736
0.520218
0.51502
0.597106
0.0587112
-1.41405e-09
2.63779e-07
9.33683e-07
2.0874e-05
3.00368e-06
2.27889e-06
0.0133171
0.107776
0.167902
0.167109
0.108947
0.118687
0.1274
0.139829
0.243649
0.470929
0.901907
0.889537
0.224081
-3.03598e-10
3.75871e-07
1.74446e-06
1.75863e-05
2.58362e-05
2.4598e-05
5.94895e-05
7.48002e-05
0.0440607
0.0329484
0.088274
0.282932
0.621968
0.661132
0.534278
0.469879
0.902296
0.902308
0.362737
-4.4782e-10
7.38686e-07
2.13101e-05
2.45168e-05
2.22181e-05
2.07891e-05
2.10946e-05
2.07892e-05
3.75145e-05
0.0001054
0.110234
0.625991
0.977224
0.998545
0.791555
0.6482
6.0173e-09
5.68745e-09
5.32367e-09
4.90269e-09
4.46362e-09
2.71801e-09
1.18992e-09
6.21264e-10
3.0798e-10
1.67436e-10
1.3804e-10
2.55491e-10
5.29103e-10
6.0422e-10
5.78547e-10
4.83657e-10
4.06339e-10
4.16416e-10
1.99694e-06
3.87454e-06
2.30413e-10
0.000248056
0.000497366
1.30695e-08
1.00722e-08
9.10817e-09
8.83817e-09
8.87266e-09
6.46049e-09
2.85638e-09
1.53226e-09
7.11198e-10
3.60344e-10
2.85572e-10
7.1415e-10
1.66931e-09
1.8665e-09
1.91859e-09
4.74043e-09
9.30002e-09
1.14479e-08
-1.39652e-10
4.89689e-10
-5.57176e-12
8.99324e-05
0.000238747
1.32081e-08
7.20622e-09
5.95154e-09
6.87288e-09
9.51591e-09
4.00991e-09
3.4311e-09
1.56748e-09
5.5749e-10
2.59404e-10
2.05514e-10
1.19892e-09
3.19217e-09
4.02061e-09
4.2853e-09
5.59941e-09
7.0379e-09
6.41596e-09
3.50841e-09
5.41341e-09
7.69652e-09
2.43155e-05
1.1718e-05
5.44482e-09
-9.36719e-19
1.23051e-09
0.00704957
0.0073962
0.00131741
1.40279e-06
-3.6156e-15
-2.06741e-15
-2.30829e-15
-1.83894e-15
-1.18937e-14
-4.73405e-14
-1.94126e-13
-1.58577e-13
-2.83125e-14
-2.17002e-14
-2.07983e-12
7.23942e-27
0
4.55982e-21
5.00104e-11
4.77832e-11
5.72939e-09
0.081834
0.41796
0.572488
0.570019
0.442273
0.293064
0.198382
0.180507
0.154237
0.13414
0.117949
0.106373
0.102349
0.106906
0.10265
0.0841456
0.0608928
0.0592208
0.119789
0.26407
0.448048
0.755236
0.0515081
0.739581
0.982823
0.985501
0.980738
0.901768
0.812021
0.806757
0.824775
0.787451
0.766174
0.754608
0.750851
0.748112
0.743025
0.759793
0.832624
0.909168
0.927221
0.93446
0.954162
0.983555
0.999274
0.250831
0.940702
0.959654
0.983175
0.986898
0.988005
0.992392
0.998724
0.999996
1
1
1
1
1
1
1
1
1
1
1
1
0.999999
0.999999
0.234713
0.311944
0.263963
0.476882
0.709161
0.843229
0.922107
0.966698
0.992728
1
1
1
1
1
1
1
1
0.999999
0.999999
0.999999
0.999999
0.999999
1
0.123047
0.000886891
4.93858e-18
3.97402e-12
1.19238e-14
0.0861211
0.184382
0.295022
0.419277
0.554173
0.686893
0.779039
0.853356
0.91142
0.95182
0.978955
0.993659
0.999173
1
1
1
1
1
0.0402107
0.0090992
6.54624e-19
1.98999e-09
1.01787e-09
5.07848e-15
1.15228e-09
2.77103e-15
1.24031e-16
2.58195e-15
6.34415e-18
0.0398165
0.0932266
0.158968
0.230928
0.316702
0.407522
0.49167
0.56257
0.621157
0.659711
0.661759
0.63688
0.0106493
0.00576413
3.19916e-06
1.0293e-07
2.37334e-08
1.62191e-08
2.23378e-08
3.18278e-08
2.45802e-15
-6.35798e-20
7.08397e-17
-6.93399e-23
-2.01886e-13
1.28499e-19
1.65248e-18
2.68679e-18
-6.63598e-12
8.2584e-10
5.68726e-22
6.00623e-09
1.90034e-08
6.59608e-08
7.47406e-08
0.000688433
0.000858527
3.78432e-05
4.1617e-07
1.11418e-07
6.88422e-08
1.3276e-07
5.53659e-07
1.85921e-06
3.02891e-06
1.06268e-06
1.4346e-12
-2.82943e-12
1.17229e-09
3.06626e-09
2.80317e-09
2.1544e-09
-3.53136e-11
1.16001e-08
-1.16336e-08
-2.13024e-08
-1.31687e-08
9.80919e-08
7.0028e-07
1.10686e-06
5.36123e-06
8.08833e-07
1.48314e-07
8.9748e-08
1.93483e-07
8.25817e-07
6.87899e-06
5.07477e-05
0.00011827
3.97644e-06
3.1859e-08
2.25724e-09
1.00092e-08
2.79491e-08
1.5547e-07
6.07409e-07
8.9162e-07
7.262e-07
6.91307e-07
5.89132e-07
5.41286e-07
6.93292e-07
2.14409e-06
1.95776e-06
3.57494e-07
7.69852e-08
9.45293e-08
2.20816e-07
8.8704e-07
1.43561e-05
0.000172271
0.000172607
9.8056e-05
1.07837e-07
1.13191e-09
1.09452e-08
4.98152e-08
3.39109e-07
1.14897e-06
1.09213e-06
9.48593e-07
7.00038e-07
5.05329e-07
1.32785e-07
1.88707e-07
6.6709e-07
1.21551e-07
6.96019e-08
6.7995e-08
9.36253e-08
1.7967e-07
6.75533e-07
1.53314e-05
0.000160205
0.000172272
0.00017234
2.17453e-05
8.14359e-10
7.42041e-10
4.99692e-08
3.55855e-07
7.16881e-07
5.49193e-07
1.48101e-07
7.35661e-08
3.51912e-08
1.20764e-08
2.58444e-08
5.00875e-08
1.04081e-07
8.59597e-08
7.36882e-08
7.32754e-08
9.67718e-08
1.23677e-07
1.72375e-07
1.00093e-05
0.000156814
0.000172041
6.98479e-05
7.03808e-10
6.03223e-08
6.44253e-08
6.51313e-08
1.72435e-08
4.59922e-08
8.76566e-09
1.59502e-09
1.19469e-09
1.18648e-09
2.61233e-08
6.62461e-08
1.02464e-07
9.74052e-08
7.38535e-08
5.30496e-08
4.44171e-08
4.33035e-08
2.93858e-08
1.71109e-08
5.53367e-06
8.51736e-05
4.24873e-05
6.79775e-07
6.6148e-07
1.54104e-08
1.56483e-08
1.65726e-08
1.84792e-08
7.53646e-09
2.33161e-09
1.27658e-09
1.1883e-09
2.07011e-08
6.09155e-08
9.26967e-08
9.72143e-08
7.11773e-08
3.64527e-08
2.37516e-08
1.95478e-08
1.66816e-08
1.5048e-08
1.33591e-08
1.36702e-08
6.58993e-08
1.11449e-05
2.36937e-06
1.99011e-07
1.73719e-08
1.86463e-08
1.89364e-08
1.36345e-08
6.34854e-09
2.26285e-09
2.24784e-09
1.30598e-08
4.28432e-08
7.5985e-08
8.87084e-08
6.90928e-08
3.91695e-08
2.31301e-08
1.94375e-08
1.99298e-08
1.7388e-08
1.36907e-08
1.33644e-08
4.37886e-07
2.77898e-06
2.78714e-06
5.94535e-07
5.44141e-08
1.80672e-08
1.6412e-08
1.7733e-08
1.22931e-08
9.97115e-09
7.24025e-09
8.35556e-09
2.53294e-08
4.85836e-08
6.45492e-08
6.56769e-08
4.06734e-08
2.23032e-08
1.73508e-08
1.80679e-08
1.90353e-08
1.75985e-08
1.50423e-08
1.34007e-08
7.27465e-09
7.89889e-07
7.22957e-07
6.47971e-08
1.61944e-08
1.47887e-08
1.38794e-08
1.45602e-08
1.4074e-08
1.11662e-08
3.86212e-09
1.39469e-08
2.82419e-08
4.20768e-08
4.88372e-08
3.98944e-08
2.17795e-08
1.35409e-08
1.25189e-08
1.391e-08
1.48603e-08
1.41126e-08
9.32763e-09
6.61896e-09
4.74802e-09
4.59541e-09
5.00985e-08
4.0293e-08
1.30351e-08
7.33829e-09
1.00629e-08
1.08963e-08
1.00766e-08
1.83013e-09
6.8509e-09
1.42379e-08
2.19989e-08
3.12838e-08
3.26621e-08
1.93498e-08
1.0714e-08
7.92508e-09
7.75107e-09
8.9485e-09
9.93347e-09
9.7718e-09
7.44093e-09
4.75559e-09
4.87887e-09
1.26941e-08
1.59417e-08
9.50756e-09
6.2732e-09
6.23873e-09
6.38927e-09
6.5253e-09
6.64316e-10
2.85687e-09
6.22538e-09
1.02384e-08
1.55815e-08
2.1365e-08
1.60633e-08
8.64146e-09
5.53906e-09
4.36648e-09
4.36265e-09
5.20995e-09
5.97777e-09
6.13761e-09
5.31497e-09
4.13764e-09
3.23159e-09
3.23776e-09
3.69418e-09
3.5882e-09
3.24279e-09
3.52721e-09
3.6827e-09
2.27189e-10
9.68791e-10
2.34038e-09
4.01769e-09
5.60975e-09
1.10452e-08
1.0771e-08
6.15028e-09
3.9377e-09
2.65397e-09
2.12774e-09
2.28066e-09
2.74579e-09
3.15783e-09
3.28026e-09
2.93415e-09
2.5232e-09
2.06778e-09
1.78898e-09
1.76062e-09
1.80645e-09
1.85198e-09
1.86152e-09
6.60406e-11
3.09099e-10
7.64571e-10
1.44785e-09
1.74127e-09
4.01281e-09
5.54715e-09
3.72135e-09
2.47058e-09
1.6299e-09
1.13376e-09
9.95908e-10
1.11084e-09
1.31507e-09
1.49797e-09
1.53466e-09
1.35494e-09
1.17467e-09
9.81783e-10
9.0864e-10
8.54996e-10
9.1034e-10
9.12898e-10
1.34979e-11
8.01091e-11
2.15742e-10
4.39311e-10
5.84195e-10
1.29204e-09
2.04023e-09
1.7291e-09
1.26033e-09
8.7512e-10
5.88102e-10
4.58336e-10
4.43656e-10
5.10349e-10
5.98441e-10
6.55235e-10
6.29392e-10
5.69396e-10
4.88187e-10
4.43233e-10
4.23125e-10
4.13983e-10
4.06679e-10
2.52699e-12
1.72197e-11
5.1728e-11
1.13585e-10
1.69645e-10
4.10212e-10
6.78892e-10
6.41257e-10
5.10908e-10
3.77167e-10
2.66496e-10
1.96835e-10
1.74885e-10
1.86755e-10
2.16118e-10
2.43654e-10
2.4745e-10
2.38444e-10
2.09437e-10
1.95425e-10
1.79483e-10
1.72459e-10
1.66574e-10
3.01804e-13
2.94714e-12
9.99078e-12
2.39428e-11
4.09834e-11
1.08953e-10
1.85904e-10
1.94272e-10
1.6438e-10
1.29133e-10
9.59275e-11
7.25494e-11
6.26343e-11
6.37164e-11
7.21713e-11
8.21183e-11
8.86302e-11
8.50187e-11
8.08506e-11
7.59387e-11
7.2223e-11
6.4195e-11
5.99182e-11
3.38612e-14
3.80071e-13
1.46874e-12
3.94257e-12
7.81176e-12
2.37041e-11
4.22631e-11
4.70263e-11
4.26368e-11
3.57715e-11
2.82348e-11
2.22288e-11
1.94856e-11
1.958e-11
2.21486e-11
2.55197e-11
2.80636e-11
2.75056e-11
2.69242e-11
2.60874e-11
2.36294e-11
2.17894e-11
1.8571e-11
2.20265e-15
3.42891e-14
1.58e-13
4.68687e-13
1.09135e-12
4.06801e-12
8.03753e-12
9.31325e-12
8.81791e-12
7.84e-12
6.58589e-12
5.47279e-12
5.03256e-12
5.26801e-12
6.16844e-12
7.25001e-12
8.01721e-12
8.25762e-12
8.09843e-12
7.91219e-12
7.38484e-12
6.24803e-12
4.9879e-12
6.80698e-17
1.83201e-15
1.06631e-14
3.77025e-14
1.21513e-13
5.41821e-13
1.24303e-12
1.53246e-12
1.50065e-12
1.40888e-12
1.25527e-12
1.10906e-12
1.10451e-12
1.25487e-12
1.53779e-12
1.82784e-12
2.05694e-12
2.13516e-12
2.12863e-12
2.036e-12
1.89412e-12
1.52164e-12
1.10984e-12
1.36956e-18
5.68297e-17
4.64107e-16
2.31489e-15
9.88756e-15
5.01151e-14
1.49315e-13
1.96563e-13
2.10084e-13
2.06666e-13
1.94415e-13
1.91628e-13
2.1202e-13
2.62651e-13
3.27903e-13
3.9323e-13
4.47472e-13
4.75768e-13
4.78612e-13
4.58203e-13
4.13366e-13
2.97851e-13
2.10204e-13
1.41991e-20
8.77887e-19
1.27806e-17
1.03528e-16
7.03273e-16
3.91462e-15
1.19654e-14
1.83058e-14
2.15624e-14
2.29998e-14
2.43958e-14
2.79805e-14
3.50662e-14
4.62948e-14
6.10532e-14
7.60053e-14
8.74151e-14
9.23648e-14
9.32183e-14
8.54249e-14
7.13957e-14
4.99031e-14
3.06651e-14
1.1716e-22
1.08399e-20
3.5973e-19
4.6637e-18
4.01487e-17
2.41316e-16
8.20373e-16
1.40542e-15
1.90022e-15
2.38888e-15
2.89944e-15
3.65415e-15
5.02979e-15
7.23323e-15
1.00494e-14
1.27772e-14
1.45823e-14
1.56619e-14
1.55225e-14
1.38864e-14
1.06921e-14
6.56205e-15
3.90104e-15
1.14535e-24
1.27229e-22
9.42439e-21
1.85338e-19
1.89547e-18
1.09157e-17
4.36662e-17
9.1375e-17
1.51568e-16
2.2122e-16
3.08364e-16
4.42107e-16
6.79971e-16
1.0406e-15
1.4921e-15
1.96217e-15
2.33596e-15
2.46647e-15
2.31144e-15
1.87128e-15
1.27268e-15
7.84286e-16
5.32182e-16
1.43204e-26
1.91036e-24
2.48966e-22
6.46711e-21
7.13297e-20
4.82904e-19
2.10046e-18
5.41676e-18
1.16906e-17
1.92447e-17
3.00372e-17
4.94389e-17
8.3669e-17
1.35851e-16
2.0051e-16
2.68845e-16
3.17639e-16
3.21026e-16
2.78454e-16
2.08129e-16
1.39715e-16
9.71594e-17
1.23948e-16
2.48844e-28
3.29748e-26
5.64841e-24
1.86539e-22
2.30414e-21
1.81895e-20
8.79753e-20
2.74841e-19
7.89849e-19
1.49971e-18
2.69971e-18
5.04966e-18
9.24133e-18
1.59e-17
2.43277e-17
3.27335e-17
3.74155e-17
3.61227e-17
2.9613e-17
2.17094e-17
1.63017e-17
1.93181e-17
5.0303e-17
1.94903e-29
6.94384e-28
1.13123e-25
4.78266e-24
6.93257e-23
5.85591e-22
3.30484e-21
1.29044e-20
4.84599e-20
1.05826e-19
2.20519e-19
4.66342e-19
9.28235e-19
1.66767e-18
2.63731e-18
3.51551e-18
3.91526e-18
3.69927e-18
3.06465e-18
2.62971e-18
3.08456e-18
6.62253e-18
2.43384e-17
3.41407e-30
4.49558e-29
2.36166e-27
1.18574e-25
1.94662e-24
1.81751e-23
1.23943e-22
5.76546e-22
2.68865e-21
6.73457e-21
1.61163e-20
3.89023e-20
8.29982e-20
1.58109e-19
2.56802e-19
3.47292e-19
3.96667e-19
3.95008e-19
3.84551e-19
4.73665e-19
8.40096e-19
2.531e-18
1.35915e-17
6.20271e-31
7.20682e-30
1.00409e-28
3.37223e-27
6.15264e-26
6.3637e-25
4.98448e-24
2.8363e-23
1.55714e-22
4.39137e-22
1.19431e-21
3.16437e-21
7.48715e-21
1.5251e-20
2.56408e-20
3.67116e-20
4.55276e-20
5.27541e-20
6.75821e-20
1.21548e-19
3.03212e-19
1.46167e-18
8.92738e-18
1.07438e-31
1.31036e-30
1.34647e-29
1.83765e-28
2.82852e-27
2.85284e-26
2.31853e-25
1.49422e-24
9.20399e-24
3.04186e-23
9.6314e-23
2.86983e-22
7.41772e-22
1.62132e-21
2.93698e-21
4.56812e-21
6.56351e-21
9.18555e-21
1.52505e-20
3.76278e-20
1.53967e-19
8.29865e-19
5.56892e-18
1.45911e-32
2.07553e-31
2.14534e-30
2.19217e-29
2.3306e-28
2.0988e-27
1.67573e-26
1.17183e-25
7.28462e-25
2.81675e-24
9.89156e-24
3.15073e-23
8.72242e-23
2.03031e-22
4.0526e-22
6.8056e-22
1.11576e-21
1.8315e-21
3.81016e-21
1.31685e-20
6.70365e-20
3.77125e-19
2.72026e-18
0.000495754
0.000276871
4.86526e-05
9.16163e-08
0.000189744
8.7252e-05
1.9115e-08
0
8.09534e-09
1.91158e-08
1.78759e-12
0.0350052
2.60824e-11
0.308151
0.740179
0.754843
0.945623
0.975532
0.989774
0.999437
0.999998
1
1
1
1
1
1
1
1
1
1
1
1
1
1
0.997513
0.605463
0.581485
0.563702
0.510975
1.83659e-07
1.973e-07
1.62874e-07
1.75743e-07
2.25838e-07
2.41887e-07
2.85633e-07
2.56178e-07
5.27651e-07
4.0602e-07
3.94764e-07
3.37882e-07
9.60224e-08
8.04775e-08
6.41489e-08
5.03081e-08
1.94973e-09
5.11393e-09
1.33585e-08
1.27127e-08
1.24545e-09
2.06931e-09
1.96667e-09
2.18183e-09
1.16195e-09
1.15653e-09
1.11638e-09
1.09692e-09
1.60646e-09
1.30181e-09
1.14158e-09
1.08403e-09
3.60251e-09
2.54513e-09
2.42124e-09
2.00538e-09
6.67789e-09
5.58288e-09
5.02638e-09
4.29408e-09
8.58657e-09
6.93854e-09
6.45467e-09
5.52806e-09
6.02706e-09
5.65517e-09
5.15448e-09
4.76052e-09
3.59637e-09
3.38632e-09
3.23809e-09
3.04238e-09
1.76548e-09
1.66426e-09
1.66516e-09
1.5729e-09
8.64565e-10
8.01021e-10
7.59474e-10
7.16339e-10
3.73131e-10
3.35866e-10
3.1822e-10
2.9123e-10
1.54922e-10
1.39564e-10
1.26981e-10
1.11022e-10
5.43958e-11
4.69345e-11
4.32362e-11
3.66572e-11
1.67701e-11
1.41068e-11
1.27089e-11
1.04558e-11
4.32091e-12
3.53063e-12
3.02543e-12
2.4246e-12
8.94012e-13
6.88386e-13
5.6538e-13
4.41367e-13
1.64641e-13
1.19062e-13
9.06913e-14
6.59682e-14
2.26789e-14
1.63666e-14
1.17429e-14
8.76494e-15
2.89041e-15
2.19602e-15
1.90392e-15
1.93325e-15
4.82517e-16
5.0991e-16
6.33327e-16
8.98545e-16
1.56828e-16
2.07326e-16
3.20476e-16
5.70015e-16
7.38074e-17
1.13745e-16
2.07195e-16
4.70513e-16
3.90286e-17
6.95331e-17
1.75072e-16
5.14286e-16
2.44113e-17
5.6307e-17
1.81948e-16
5.8312e-16
1.85724e-17
5.69519e-17
1.99064e-16
6.38039e-16
1.30494e-17
5.06881e-17
1.83671e-16
5.68024e-16
1.05088e-17
3.60833e-17
1.13985e-16
3.02278e-16
0.697809
0.876835
0.483813
0.00306455
2.20055e-07
-1.22753e-24
-1.71932e-06
0.0185071
0.109486
0.20028
0.224554
0.253724
0.345464
0.579887
0.899987
0.998655
0.999066
0.991384
0.838831
0.42152
0.809908
0.68997
0.0625559
-3.87831e-11
-9.89772e-09
0.0265602
0.523735
0.90482
0.940193
0.952188
0.967909
0.987896
0.999564
0.999249
0.999
0.999141
0.999909
0.923781
0.746035
0.964818
0.837577
0.583392
0.0759241
0.0820769
0.591022
0.996132
0.999985
0.999853
0.999791
0.999808
0.999969
0.999986
0.99987
0.999601
0.999776
0.999955
0.943921
0.956828
0.999634
0.999741
0.905507
0.786277
0.752126
0.880739
0.999073
0.999998
0.999985
0.999953
0.999966
0.999997
0.999999
0.999999
0.999991
0.999988
0.999983
0.930465
0.999962
0.999714
0.99971
0.99994
0.963732
0.960982
0.99354
0.999944
0.999997
0.999991
0.999934
0.999939
0.999986
0.999999
0.999996
0.99999
0.999989
0.999472
0.93161
1
0.999888
0.999851
0.999918
0.999948
0.999968
0.999993
0.999997
0.999995
0.999977
0.999994
0.999999
0.999999
0.999999
0.999996
0.999995
0.999991
0.995228
0.962918
1
0.999999
1
1
0.999999
0.999999
0.999999
0.999366
0.999982
0.999999
0.999999
0.990971
0.786129
0.609554
0.57853
0.607285
0.640643
0.741122
0.747366
1
1
1
1
0.994695
0.958026
0.880601
0.822937
0.60186
0.263149
0.189789
0.114493
0.0347405
0.00700882
0.00317297
0.0053969
0.00764185
0.0258102
0.0536089
0.984781
0.967307
0.890917
0.695187
0.489863
0.303506
0.0549304
1.70831e-06
0.000348748
2.27976e-06
2.94065e-06
4.58775e-06
4.43932e-06
1.71427e-06
1.20029e-06
1.84658e-07
-2.22366e-08
1.26935e-05
1.03388e-07
0.373631
0.282537
0.142253
1.34393e-07
1.53502e-07
1.73329e-07
1.43973e-07
1.21513e-07
7.05138e-07
4.09978e-07
3.36706e-07
2.02543e-07
1.77244e-07
0.000444423
0.0014329
0.00190207
0.000770194
5.22754e-06
5.37874e-08
1.44869e-07
8.97792e-08
1.05828e-07
1.4916e-07
3.20191e-07
2.68643e-07
1.5408e-07
8.24797e-08
0.000302984
0.000520392
4.72291e-05
1.77531e-07
0.000176837
0.00276089
0.0028321
0.0022663
0.000777018
1.68152e-07
1.20327e-07
2.03208e-07
1.26925e-07
1.10802e-07
3.05894e-07
1.00366e-06
8.45806e-07
1.4539e-07
0.000360556
0.00108054
0.00106206
0.000323608
2.03378e-07
0.000429807
0.00231584
0.00145058
0.000175515
0.00010905
1.58656e-07
3.23879e-07
2.1311e-07
5.42334e-08
1.28693e-07
7.51319e-07
1.0452e-06
8.4766e-07
1.50563e-07
0.000411672
0.00103394
0.000917319
0.000146219
5.58702e-06
0.000176507
0.000100964
4.36502e-08
4.22596e-08
6.63643e-08
3.19224e-07
2.92195e-07
3.90503e-08
3.82527e-08
1.33449e-07
1.96303e-07
6.82105e-07
3.76597e-06
1.0678e-05
4.72782e-05
8.24314e-05
8.70793e-05
6.11382e-06
6.00334e-07
3.91666e-08
3.78431e-08
4.45634e-08
6.14205e-08
1.98727e-07
5.33728e-07
1.64969e-06
1.20067e-08
1.76495e-08
4.84965e-08
1.10993e-07
2.93217e-07
5.67997e-07
6.94003e-07
1.24197e-07
1.51747e-07
1.60317e-07
6.42496e-07
6.70158e-07
3.11618e-08
3.66314e-08
4.97311e-08
1.2095e-07
2.88982e-07
1.1135e-06
1.65322e-06
2.66224e-09
4.65965e-09
9.26194e-09
1.64476e-08
2.69304e-08
3.74859e-08
3.25653e-08
1.84627e-08
5.77615e-08
1.69541e-07
4.25381e-07
6.0927e-07
3.81928e-08
3.54504e-08
5.03603e-08
8.47121e-08
3.09878e-07
6.58494e-07
1.4034e-06
1.07442e-09
1.5401e-09
2.65683e-09
4.17384e-09
5.20777e-09
5.61642e-09
6.26902e-09
1.13899e-08
2.98522e-08
7.08057e-08
1.67608e-07
1.53033e-07
1.88085e-08
2.71361e-08
3.473e-08
6.12716e-08
1.2613e-07
2.99972e-07
2.32958e-07
1.03319e-09
9.7394e-10
9.81504e-10
1.61326e-09
2.65581e-09
3.28259e-09
3.79457e-09
5.01522e-09
9.14267e-09
1.68543e-08
2.14494e-08
2.64936e-08
1.0981e-08
1.36484e-08
1.81773e-08
3.11838e-08
5.94261e-08
6.14988e-08
9.11452e-08
1.61196e-09
1.00041e-09
8.0399e-10
7.68983e-10
9.63114e-10
1.53892e-09
2.08358e-09
2.50743e-09
3.21568e-09
4.62155e-09
5.05248e-09
3.83915e-09
5.63828e-09
6.21028e-09
7.71018e-09
9.23495e-09
1.2318e-08
2.64319e-08
1.47341e-08
3.39933e-09
1.79845e-09
9.36374e-10
6.90651e-10
6.21865e-10
6.756e-10
8.48876e-10
1.12374e-09
1.44888e-09
1.76307e-09
2.07262e-09
2.20677e-09
2.94553e-09
3.46513e-09
4.39052e-09
6.02837e-09
7.80807e-09
7.68792e-09
9.36766e-09
4.51198e-09
2.79231e-09
1.32201e-09
9.00007e-10
5.42682e-10
4.33242e-10
4.23844e-10
4.74948e-10
6.36644e-10
8.54149e-10
1.06693e-09
1.34896e-09
1.86616e-09
2.56164e-09
3.65845e-09
5.07105e-09
7.34449e-09
8.91272e-09
9.37944e-09
4.1196e-09
2.85181e-09
1.56031e-09
1.07348e-09
5.83288e-10
3.81933e-10
2.71894e-10
2.48246e-10
2.96935e-10
4.58609e-10
6.4944e-10
9.38464e-10
1.41968e-09
2.18637e-09
3.29535e-09
5.66773e-09
9.23947e-09
1.2145e-08
1.22622e-08
2.77712e-09
2.1308e-09
1.34458e-09
9.24828e-10
5.5072e-10
3.39775e-10
2.12737e-10
1.62951e-10
1.71274e-10
2.79264e-10
4.53182e-10
7.40822e-10
1.21444e-09
1.99477e-09
3.34791e-09
6.01816e-09
1.11313e-08
1.66471e-08
1.40265e-08
1.4741e-09
1.20027e-09
8.41114e-10
6.10986e-10
3.83875e-10
2.43339e-10
1.52717e-10
1.1341e-10
1.24825e-10
2.05455e-10
3.66589e-10
6.52512e-10
1.11662e-09
1.9509e-09
3.39293e-09
6.84774e-09
1.44477e-08
2.27329e-08
1.82072e-08
6.66086e-10
5.41796e-10
4.00145e-10
2.99611e-10
1.98588e-10
1.31613e-10
8.75058e-11
7.40696e-11
9.59251e-11
1.7457e-10
3.35223e-10
6.32168e-10
1.14794e-09
2.02372e-09
3.64982e-09
7.6832e-09
1.74747e-08
3.32653e-08
2.19997e-08
2.66089e-10
2.1345e-10
1.55975e-10
1.16048e-10
8.03432e-11
5.57842e-11
4.37807e-11
4.83604e-11
8.20997e-11
1.6332e-10
3.32708e-10
6.50145e-10
1.21952e-09
2.12107e-09
3.92785e-09
9.65934e-09
2.56937e-08
3.98452e-08
3.60949e-08
9.70341e-11
7.19221e-11
5.06585e-11
3.60948e-11
2.60257e-11
2.075e-11
2.29554e-11
3.78428e-11
7.76875e-11
1.66458e-10
3.51503e-10
7.14529e-10
1.32448e-09
2.31507e-09
4.43875e-09
1.10654e-08
3.27661e-08
8.24657e-08
4.05295e-08
2.96325e-11
2.10829e-11
1.39313e-11
9.67019e-12
7.90282e-12
9.2844e-12
1.65791e-11
3.60397e-11
8.14864e-11
1.81542e-10
3.94136e-10
8.09886e-10
1.50278e-09
2.56057e-09
4.87483e-09
1.49767e-08
4.71391e-08
1.07021e-07
4.79442e-08
7.63789e-12
5.07972e-12
3.09876e-12
2.44144e-12
3.24735e-12
6.7487e-12
1.61612e-11
3.88656e-11
9.01146e-11
2.06203e-10
4.53066e-10
9.37179e-10
1.72958e-09
2.79207e-09
5.40853e-09
1.9526e-08
6.10407e-08
1.10262e-07
4.853e-08
1.5461e-12
9.64937e-13
7.00961e-13
1.07832e-12
2.63222e-12
7.04222e-12
1.78543e-11
4.37049e-11
1.03887e-10
2.38539e-10
5.30278e-10
1.09711e-09
2.00359e-09
3.04544e-09
6.59725e-09
2.58097e-08
7.94891e-08
1.10182e-07
4.91109e-08
2.64085e-13
1.78725e-13
3.1976e-13
9.72287e-13
2.88611e-12
7.86428e-12
2.01744e-11
4.97854e-11
1.20509e-10
2.79848e-10
6.19641e-10
1.27875e-09
2.30595e-09
3.58123e-09
7.78368e-09
3.0612e-08
8.80808e-08
1.10262e-07
4.05359e-08
4.0027e-14
7.03685e-14
2.95176e-13
1.02963e-12
3.19436e-12
8.72116e-12
2.23341e-11
5.62572e-11
1.37635e-10
3.24316e-10
7.23779e-10
1.5005e-09
2.69596e-09
4.49747e-09
9.99978e-09
3.34048e-08
9.32443e-08
9.73372e-08
3.21584e-08
1.24493e-14
6.35594e-14
3.13156e-13
1.10256e-12
3.3316e-12
9.19997e-12
2.43466e-11
6.20401e-11
1.54709e-10
3.68115e-10
8.3053e-10
1.68972e-09
3.10535e-09
5.45152e-09
1.13181e-08
3.24258e-08
7.83474e-08
6.74229e-08
1.58074e-08
1.07159e-14
6.96207e-14
3.2735e-13
1.1034e-12
3.32064e-12
9.3716e-12
2.54543e-11
6.62867e-11
1.68699e-10
4.08683e-10
9.15972e-10
1.84932e-09
3.44752e-09
6.02325e-09
1.15692e-08
2.66235e-08
4.66724e-08
2.28205e-08
9.40379e-09
1.10127e-14
7.24056e-14
3.09098e-13
1.04086e-12
3.18043e-12
9.35675e-12
2.57917e-11
6.89735e-11
1.75361e-10
4.29303e-10
9.58341e-10
1.9177e-09
3.60267e-09
5.9663e-09
1.00098e-08
1.82755e-08
1.20657e-08
1.01856e-08
3.35028e-09
1.06355e-14
6.47109e-14
2.6784e-13
9.27172e-13
2.98805e-12
8.8856e-12
2.51424e-11
6.72254e-11
1.72032e-10
4.1756e-10
9.24553e-10
1.82766e-09
3.40783e-09
5.32122e-09
7.11496e-09
1.01853e-08
6.18543e-09
2.47524e-09
1.71118e-09
9.7182e-15
5.64189e-14
2.26412e-13
8.22344e-13
2.66565e-12
8.03233e-12
2.2625e-11
6.03029e-11
1.53058e-10
3.68941e-10
8.079e-10
1.56147e-09
2.82321e-09
4.18025e-09
4.64074e-09
4.80358e-09
2.56725e-09
9.56701e-10
5.63182e-10
8.92958e-15
4.66977e-14
1.89099e-13
6.76806e-13
2.18483e-12
6.56129e-12
1.83415e-11
4.81456e-11
1.19942e-10
2.84669e-10
6.12955e-10
1.15472e-09
1.97251e-09
2.80085e-09
2.91442e-09
2.2658e-09
9.98304e-10
3.06729e-10
2.54911e-10
7.41019e-15
3.51623e-14
1.39617e-13
4.78478e-13
1.54782e-12
4.55875e-12
1.25926e-11
3.25762e-11
7.96652e-11
1.85568e-10
3.93673e-10
7.27016e-10
1.16373e-09
1.62681e-09
1.71069e-09
1.14526e-09
4.77871e-10
1.74826e-10
8.65493e-11
5.38292e-15
2.25078e-14
8.29581e-14
2.72715e-13
8.2291e-13
2.35554e-12
6.45704e-12
1.67738e-11
4.08718e-11
9.42404e-11
1.99037e-10
3.69143e-10
5.70994e-10
7.99822e-10
8.43463e-10
5.57394e-10
2.36692e-10
7.33391e-11
4.60965e-11
2.93732e-15
1.07861e-14
3.6413e-14
1.13511e-13
3.37248e-13
9.57316e-13
2.57013e-12
6.75283e-12
1.65634e-11
3.81096e-11
8.01638e-11
1.50334e-10
2.33001e-10
3.26509e-10
3.44965e-10
2.31231e-10
7.44471e-11
3.52905e-11
2.35449e-11
8.72572e-16
2.76408e-15
8.5405e-15
2.50769e-14
7.67062e-14
2.29255e-13
6.32315e-13
1.71506e-12
4.52461e-12
1.09438e-11
2.39853e-11
4.6807e-11
7.54553e-11
1.06685e-10
1.14526e-10
7.78848e-11
2.68573e-11
1.39828e-11
9.88497e-12
)
;

boundaryField
{
    leftWall
    {
        type            alphaContactAngle;
        contactAngleProperties 
        {
            mercury         
            {
                theta0          90;
            }
            air             
            {
                theta0          90;
            }
            water           
            {
                theta0          90;
            }
        }
        value           nonuniform List<scalar> 
50
(
3.77161e-16
4.27406e-16
7.13011e-16
7.88012e-16
3.53754e-13
3.8758e-11
5.50725e-10
2.37641e-09
6.0173e-09
1.30695e-08
1.32081e-08
5.44482e-09
5.72939e-09
0.0515081
0.250831
0.234713
0.123047
0.0402107
0.0106493
0.000688433
7.0028e-07
6.93292e-07
1.88707e-07
2.58444e-08
2.61233e-08
2.07011e-08
1.30598e-08
8.35556e-09
3.86212e-09
1.83013e-09
6.64316e-10
2.27189e-10
6.60406e-11
1.34979e-11
2.52699e-12
3.01804e-13
3.38612e-14
2.20265e-15
6.80698e-17
1.36956e-18
1.41991e-20
1.1716e-22
1.14535e-24
1.43204e-26
2.48844e-28
1.94903e-29
3.41407e-30
6.20271e-31
1.07438e-31
1.45911e-32
)
;
    }
    rightWall
    {
        type            alphaContactAngle;
        contactAngleProperties 
        {
            mercury         
            {
                theta0          90;
            }
            air             
            {
                theta0          90;
            }
            water           
            {
                theta0          90;
            }
        }
        value           nonuniform List<scalar> 
50
(
0.268576
0.399315
0.520221
0.520409
0.520218
0.470929
0.469879
0.6482
0.838831
0.923781
0.943921
0.930465
0.93161
0.962918
0.747366
0.0536089
1.03388e-07
5.37874e-08
1.20327e-07
3.23879e-07
2.92195e-07
1.64969e-06
1.65322e-06
1.4034e-06
2.32958e-07
9.11452e-08
1.47341e-08
9.36766e-09
9.37944e-09
1.22622e-08
1.40265e-08
1.82072e-08
2.19997e-08
3.60949e-08
4.05295e-08
4.79442e-08
4.853e-08
4.91109e-08
4.05359e-08
3.21584e-08
1.58074e-08
9.40379e-09
3.35028e-09
1.71118e-09
5.63182e-10
2.54911e-10
8.65493e-11
4.60965e-11
2.35449e-11
9.88497e-12
)
;
    }
    lowerWall
    {
        type            alphaContactAngle;
        contactAngleProperties 
        {
            mercury         
            {
                theta0          90;
            }
            air             
            {
                theta0          90;
            }
            water           
            {
                theta0          90;
            }
        }
        value           nonuniform List<scalar> 
62
(
3.77161e-16
3.88162e-15
3.20531e-14
1.23251e-13
3.06003e-13
6.62882e-13
1.15009e-12
2.49327e-12
5.04974e-12
9.36049e-12
1.67415e-11
3.28992e-11
6.2083e-11
1.20503e-10
2.33101e-10
4.59044e-10
8.92697e-10
1.57228e-09
2.39142e-09
2.55083e-09
3.09347e-09
0.000412831
0.000568199
0.000568199
0.000566906
0.000349491
1.6537e-05
1.19843e-07
8.10687e-08
2.80576e-08
0.000379827
0.000495754
0.000276871
4.86526e-05
9.16163e-08
0.0968313
0.101035
0.114297
0.114175
0.114877
0.51502
0.901907
0.902296
0.0968313
0.0312537
0.0398829
0.310774
0.37429
0.374325
0.370102
0.353906
0.356026
0.352621
0.180429
0.0572344
0.0579595
0.121561
0.170977
0.256597
0.267959
0.264605
0.268576
)
;
    }
    atmosphere
    {
        type            inletOutlet;
        inletValue      uniform 0;
        value           nonuniform List<scalar> 
46
(
0
0
0
0
0
0
0
0
0
0
0
0
0
0
0
0
0
0
0
0
0
0
0
0
0
0
0
0
0
0
0
7.67061e-14
2.29255e-13
6.32315e-13
1.71506e-12
4.52461e-12
1.09438e-11
2.39853e-11
4.6807e-11
7.54553e-11
1.06685e-10
1.14526e-10
7.78848e-11
2.68573e-11
1.39828e-11
9.88497e-12
)
;
    }
    defaultFaces
    {
        type            empty;
    }
}


// ************************************************************************* //
