/*--------------------------------*- C++ -*----------------------------------*\
  =========                 |
  \\      /  F ield         | OpenFOAM: The Open Source CFD Toolbox
   \\    /   O peration     | Website:  https://openfoam.org
    \\  /    A nd           | Version:  13
     \\/     M anipulation  |
\*---------------------------------------------------------------------------*/
FoamFile
{
    format      ascii;
    class       volScalarField;
    location    "1.45";
    object      alpha.air;
}
// * * * * * * * * * * * * * * * * * * * * * * * * * * * * * * * * * * * * * //

dimensions      [];

internalField   nonuniform List<scalar> 
2268
(
1.29297e-13
1.72249e-13
2.21618e-13
1.92177e-13
1.67036e-13
1.32817e-13
8.78643e-14
4.99132e-14
2.49923e-14
1.21505e-14
6.99515e-15
4.31782e-15
2.68776e-15
1.53065e-15
8.30117e-16
6.83192e-16
6.92342e-16
8.56172e-16
1.89678e-15
9.30995e-15
3.25478e-14
2.19391e-14
4.53367e-15
8.2989e-13
1.57614e-12
1.62637e-12
1.36435e-12
1.26506e-12
1.05786e-12
7.63353e-13
4.92813e-13
2.62848e-13
1.21567e-13
8.18381e-14
5.00788e-14
3.04067e-14
1.80516e-14
1.07655e-14
7.75811e-15
7.30616e-15
8.1129e-15
1.66591e-14
4.67347e-14
1.54797e-13
1.98063e-13
8.34522e-14
4.24374e-12
5.53514e-12
4.66926e-12
3.77888e-12
3.43447e-12
3.08456e-12
2.64567e-12
1.97546e-12
1.1892e-12
6.62982e-13
3.66145e-13
2.38424e-13
1.46606e-13
1.01513e-13
6.76713e-14
4.49484e-14
3.86248e-14
3.59785e-14
5.88501e-14
1.92164e-13
6.19758e-13
1.31957e-12
1.32656e-12
1.43002e-11
1.69894e-11
1.68847e-11
1.5737e-11
1.27452e-11
1.00541e-11
7.98813e-12
5.62016e-12
3.69788e-12
2.29032e-12
1.4196e-12
8.83402e-13
5.23428e-13
3.60525e-13
3.04213e-13
2.07437e-13
1.65737e-13
1.39356e-13
1.67096e-13
4.18939e-13
8.1163e-13
2.20523e-12
3.12618e-12
9.35341e-11
9.9511e-11
9.70207e-11
8.7936e-11
7.10982e-11
4.91384e-11
3.1365e-11
2.04015e-11
1.44037e-11
1.13117e-11
8.25922e-12
5.343e-12
3.67737e-12
3.49855e-12
3.32847e-12
2.304e-12
1.02693e-12
1.37342e-13
2.89182e-13
2.04257e-14
7.50094e-29
3.51322e-13
1.49244e-13
3.28497e-10
3.01459e-10
2.86368e-10
2.74412e-10
2.65113e-10
2.68136e-10
2.53912e-10
1.89338e-10
1.08633e-10
7.32762e-11
4.80624e-11
3.00488e-11
1.94965e-11
1.59799e-11
2.08913e-11
2.45479e-11
4.55711e-11
2.4045e-09
3.89871e-09
8.91994e-10
2.04264e-14
2.06913e-13
3.12864e-14
6.82112e-10
5.17878e-10
4.30547e-10
4.16662e-10
4.62207e-10
6.37274e-10
7.27553e-10
6.69e-10
6.17144e-10
4.59262e-10
3.15086e-10
2.01448e-10
1.2207e-10
7.1544e-11
7.6604e-11
5.33042e-11
4.55349e-11
3.21623e-09
3.61839e-09
-9.72478e-10
7.00511e-07
-7.36424e-09
3.10284e-06
1.49666e-09
9.05154e-10
5.93945e-10
5.6118e-10
7.41702e-10
1.37328e-09
1.77838e-09
1.67261e-09
1.41533e-09
1.10557e-09
7.67987e-10
5.03911e-10
3.22249e-10
2.29553e-10
2.40489e-10
2.53947e-10
4.236e-10
1.75012e-09
1.14719e-13
9.07332e-06
6.7331e-05
6.91834e-05
2.04011e-05
0.00694315
0.0549977
0.0631534
0.0835174
0.0827432
0.073917
0.0480669
0.048037
0.0511751
0.0617077
0.194278
0.197458
0.123265
0.059088
0.0102115
0.00992188
0.0129371
0.0173926
0.0149039
0.00212492
0.00266807
2.50405e-05
0.00352204
0.00749111
0.0107681
0.0983213
0.180022
0.185452
0.154478
0.175066
0.312557
0.313335
0.215663
0.0967372
0.0462623
0.0584174
0.0722856
0.0180993
2.64636e-06
1.13577e-06
2.39717e-05
2.24037e-05
2.16889e-05
0.0484607
0.413989
0.555008
0.554869
0.480229
0.392772
0.405751
0.497016
0.497036
0.497016
0.402843
0.360205
0.276942
0.0763767
1.08571e-06
0.00230741
0.000231324
0.000162073
2.17778e-05
0.00887687
0.202539
0.430783
0.52825
0.537129
0.536934
0.5047
0.406566
0.340471
0.363546
0.40007
0.34343
0.204866
0.0913029
0.00113981
0.0238616
0.00530818
0.000157223
5.87446e-05
1.48464e-05
0.000990393
0.0123422
0.0268084
0.124253
0.38383
0.504586
0.256711
0.00794666
0.00743449
0.0296161
0.00107954
0.000915714
0.044428
0.002484
0.0292558
0.0213525
0.000878367
2.59525e-05
1.09659e-05
8.38843e-06
3.9412e-09
3.78733e-10
9.64063e-08
0.0145626
0.0599589
0.0259929
0.0139717
0.00698811
0.00205222
0.00173966
0.0106305
0.0893784
0.000425036
0.0184595
0.0217329
0.00342216
1.1624e-05
9.39687e-06
9.23036e-06
7.3203e-06
2.2612e-05
3.70579e-05
1.17021e-06
-6.42268e-13
-6.08564e-09
-2.72442e-23
2.66379e-16
0.00104022
0.00275595
0.0273197
0.118334
0.00130453
0.00545771
0.00328346
0.00347748
9.97602e-05
2.36986e-05
4.19148e-05
6.82134e-05
0.0001069
0.000117744
6.77398e-05
4.34793e-05
2.432e-05
8.29891e-06
8.48963e-06
8.77341e-06
9.22124e-06
0.00904531
0.1183
2.80124e-09
1.59232e-09
8.28147e-10
8.17137e-10
1.46488e-09
2.99213e-09
3.93969e-09
3.3849e-09
2.91475e-09
2.6335e-09
1.94997e-09
1.29541e-09
7.63372e-10
5.75798e-10
5.55453e-10
5.84972e-10
5.73617e-10
3.07474e-10
9.47594e-12
5.42443e-06
5.13996e-05
5.77538e-05
1.29232e-05
4.41278e-09
2.27895e-09
9.03853e-10
1.16968e-09
4.12145e-09
9.41512e-09
1.38851e-08
1.21715e-08
1.19375e-08
1.3413e-08
1.28458e-08
1.11765e-08
8.62187e-09
6.23906e-09
3.68118e-09
1.78356e-09
8.98584e-10
5.00456e-10
2.56783e-08
8.02136e-08
4.09029e-07
5.16597e-07
4.90596e-08
3.52438e-09
8.79638e-10
8.11809e-10
3.56942e-09
7.41556e-09
2.35883e-08
4.32173e-08
5.81557e-08
7.52676e-08
1.01638e-07
1.21513e-07
1.35321e-07
1.41153e-07
1.58581e-07
1.49645e-07
1.24433e-07
7.10676e-08
5.64975e-09
-3.91697e-10
1.4775e-15
1.34111e-15
1.70113e-16
5.50207e-17
3.38375e-09
4.2474e-07
0.0140577
0.00620682
0.00535999
0.00595194
0.0108609
0.0154697
0.0127366
0.00823527
0.0103976
0.0116051
0.00840044
0.0032061
0.00299099
0.0140158
0.0135173
0.00287774
9.1945e-06
0.00359378
0.0439108
0.120054
0.229655
0.0166614
0.111124
0.0586553
0.019208
0.0199967
0.0770169
0.16704
0.190916
0.173232
0.175132
0.203062
0.215077
0.19683
0.159863
0.155041
0.209674
0.258445
0.257223
0.254788
0.268948
0.270217
0.250786
0.122939
0.469272
0.209852
0.0171771
0.0144987
0.0192622
0.0982315
0.187979
0.193209
0.171543
0.199931
0.2203
0.224272
0.216647
0.213998
0.222738
0.216381
0.153802
0.081459
0.0635639
0.0593759
0.0450625
0.0164413
0.000721851
0.711419
0.0592976
0.0403432
0.0168188
0.0130999
0.011995
0.00760791
0.00127645
4.15705e-06
4.18008e-08
-5.924e-12
4.30459e-15
-3.53302e-18
-3.41798e-13
-2.94048e-14
-1.26813e-15
-8.85157e-25
-2.74083e-12
-7.46313e-13
6.53163e-17
7.56282e-12
4.93735e-10
7.56845e-12
0.765287
0.68805
0.736007
0.523088
0.290829
0.156771
0.0778933
0.0333014
0.00727173
3.17199e-09
2.15783e-19
5.44769e-19
-1.22696e-18
2.47989e-20
2.37154e-21
-4.48029e-20
5.97145e-09
7.06961e-07
8.40724e-07
4.02139e-07
1.13273e-07
1.93009e-08
1.30089e-09
0.876953
0.999106
0.99997
0.999976
0.999999
0.913879
0.815618
0.704977
0.580723
0.445826
0.313107
0.220961
0.146644
0.0885796
0.0481799
0.0210453
0.00634053
0.000827051
-2.21807e-09
-9.63981e-09
-2.20191e-09
-1.99773e-10
6.93317e-19
0.959789
0.990898
0.999992
1
1
1
1
1
1
1
1
0.960183
0.906773
0.841032
0.769072
0.683298
0.592478
0.50833
0.43743
0.378843
0.340289
0.338241
0.36312
0.989351
0.994235
0.999997
1
1
1
1
1
1
1
0.999999
1
1
1
1
1
1
1
1
1
1
1
1
0.999312
0.999141
0.999962
1
1
1
1
0.999999
0.999998
0.999997
0.999998
0.999999
1
1
1
1
1
1
1
1
1
1
1
0.999999
0.999999
0.999995
0.999999
1
1
1
0.999999
0.999993
0.999948
0.999879
0.999994
0.999999
1
1
1
1
0.999999
0.999999
0.999999
0.999999
0.999999
0.999999
0.999999
0.999998
0.999998
1
1
1
1
0.999999
0.999986
0.999827
0.999825
0.999899
0.999998
0.999999
0.999999
0.999999
0.999999
0.999999
0.999999
0.999999
0.999999
0.999999
1
1
0.999999
1
1
1
1
1
0.999999
0.999985
0.99984
0.999826
0.999825
0.999976
0.999999
0.999999
0.999998
0.999998
0.999999
0.999999
1
1
1
1
1
1
1
1
1
1
1
1
1
0.99999
0.999843
0.999827
0.999927
0.999997
0.999997
0.999997
0.999997
0.999999
1
1
1
1
1
1
1
1
1
1
1
1
1
1
1
0.999994
0.999915
0.999957
0.999997
0.999997
0.999997
0.999997
0.999999
1
1
1
1
1
1
1
1
1
1
1
1
1
1
1
1
1
1
0.999989
0.999998
0.999999
1
1
1
1
1
1
1
1
1
1
1
1
1
1
1
1
1
1
1
1
0.999997
0.999997
0.999999
1
1
1
1
1
1
1
1
1
1
1
1
1
1
1
1
1
1
1
1
1
0.999999
0.999999
1
1
1
1
1
1
1
1
1
1
1
1
1
1
1
1
1
1
1
1
1
1
1
1
1
1
1
1
1
1
1
1
1
1
1
1
1
1
1
1
1
1
1
1
1
1
1
1
1
1
1
1
1
1
1
1
1
1
1
1
1
1
1
1
1
1
1
1
1
1
1
1
1
1
1
1
1
1
1
1
1
1
1
1
1
1
1
1
1
1
1
1
1
1
1
1
1
1
1
1
1
1
1
1
1
1
1
1
1
1
1
1
1
1
1
1
1
1
1
1
1
1
1
1
1
1
1
1
1
1
1
1
1
1
1
1
1
1
1
1
1
1
1
1
1
1
1
1
1
1
1
1
1
1
1
1
1
1
1
1
1
1
1
1
1
1
1
1
1
1
1
1
1
1
1
1
1
1
1
1
1
1
1
1
1
1
1
1
1
1
1
1
1
1
1
1
1
1
1
1
1
1
1
1
1
1
1
1
1
1
1
1
1
1
1
1
1
1
1
1
1
1
1
1
1
1
1
1
1
1
1
1
1
1
1
1
1
1
1
1
1
1
1
1
1
1
1
1
1
1
1
1
1
1
1
1
1
1
1
1
1
1
1
1
1
1
1
1
1
1
1
1
1
1
1
1
1
1
1
1
1
1
1
1
1
1
1
1
1
1
1
1
1
1
1
1
1
1
1
1
1
1
1
1
1
1
1
1
1
1
1
1
1
1
1
1
1
1
1
1
1
1
1
1
1
1
1
1
1
1
1
1
1
1
1
1
1
1
1
1
1
1
1
1
1
1
1
1
1
1
1
1
1
1
1
1
1
1
1
1
1
1
1
1
1
1
1
1
1
1
1
1
1
1
1
1
1
1
1
1
1
1
1
1
1
1
1
1
1
1
1
1
1
1
1
1
1
1
1
1
1
1
1
1
1
1
1
1
1
1
1
1
1
1
1
1
1
1
1
1
1
1
1
1
1
1
1
1
1
1
1
1
1
1
1
1
1
1
1
1
1
1
1
1
1
1
1
1
1
1
1
1
1
1
1
1
1
1
1
1
1
1
1
1
1
1
1
1
1
1
1
1
1
1
1
1
1
1
1
1
1
1
1
1
1
1
1
1
1
1
1
1
1
1
1
1
1
1
1
1
1
1
1
1
1
1
1
1
1
1
1
1
1
8.11136e-13
4.66043e-10
0.0166844
0.21851
4.53914e-13
0.000252181
0.0890673
0.233405
0.0358207
0.23271
0.233495
0.233407
0.233399
0.233495
0.233426
0.233495
0.0402979
0.0242935
0.0101935
0.000563111
2.07153e-09
4.76453e-09
8.01486e-10
1.53979e-12
1.19329e-09
5.10744e-09
4.74991e-09
8.02292e-10
2.4638e-09
3.18028e-09
2.46654e-09
1.19901e-10
-2.92787e-19
1.57362e-18
1.61357e-18
0.00248727
0.394537
0.418515
0.436298
0.489025
1
1
1
1
1
1
1
1
0.999999
1
1
1
1
1
1
1
1
1
1
1
1
1
1
1
1
1
1
1
1
1
1
1
1
1
1
1
1
1
1
1
1
1
1
1
1
1
1
1
1
1
1
1
1
1
1
1
1
1
1
1
1
1
1
1
1
1
1
1
1
1
1
1
1
1
1
1
1
1
1
1
1
1
1
1
1
1
1
1
1
1
1
1
1
1
1
1
1
1
1
1
1
1
1
1
1
1
1
1
1
1
1
1
1
1
1
1
1
1
1
1
1
1
1
1
1
1
1
1
0.124351
0.0232271
0.0316737
0.00465091
0.000531926
0.000115513
0.00141836
0.00331575
0.00118558
1.75267e-05
9.26734e-05
0.000209941
0.000209075
0.000136406
0.000153029
0.00069568
0.000625412
3.2418e-05
0.056122
0.233407
0.0949956
0.13464
0.133997
0.0640918
0.0490694
0.0471868
0.0100633
4.97056e-08
1.31771e-05
0.000100077
0.000160901
7.5341e-05
3.17879e-06
0.000632121
0.000847099
0.000779897
3.53076e-05
0.0272949
0.221349
0.0308347
0.103216
0.180636
0.18071
0.180654
0.129616
0.00299158
8.2256e-07
0.000145622
0.000208837
0.000191848
2.47582e-05
6.50474e-07
0.000112566
0.000388627
0.000223378
3.58861e-05
0.0364832
0.0410512
0.000304361
0.000228168
0.0944828
0.18063
0.180674
0.0814319
-1.93009e-07
1.18726e-06
1.44742e-05
4.71146e-05
3.43445e-05
2.64576e-06
5.83917e-07
3.86612e-07
1.24014e-09
8.65234e-06
9.63429e-06
0.0607947
1.29938e-06
2.21134e-06
4.62e-06
7.93521e-08
0.0362684
0.0390056
0.00639235
4.90749e-09
3.68904e-08
8.13997e-06
6.57278e-05
6.08461e-05
1.41349e-05
6.27968e-07
6.37882e-09
1.37484e-09
3.76269e-06
2.01803e-06
0.0488925
8.02292e-10
2.15551e-05
2.11123e-05
1.76025e-09
2.70304e-09
2.39906e-12
2.70203e-09
2.89068e-06
4.7046e-06
2.3304e-05
6.274e-06
7.02184e-07
8.68566e-07
8.7141e-08
1.09738e-09
2.69615e-07
5.63355e-06
2.39967e-06
0.0107634
4.48571e-07
7.05142e-07
2.09159e-08
2.29106e-07
9.78555e-07
7.42553e-07
6.22395e-07
0.000634164
1.84428e-05
1.00528e-06
1.33312e-06
0.00902892
0.213871
0.390446
0.421469
0.392715
0.359357
0.254068
0.226353
-7.5954e-11
-2.1449e-08
-6.363e-09
9.97819e-09
0.00530548
0.0419743
0.119399
0.177063
0.39814
0.736851
0.810211
0.885507
0.96526
0.992991
0.996827
0.994592
0.992116
0.973232
0.922704
0.0152192
0.0326934
0.109083
0.304813
0.510137
0.696494
0.94507
0.999998
0.999651
0.999998
0.999997
0.999995
0.999996
0.999998
0.999995
0.999948
0.999788
0.999975
0.995886
0.626369
0.717463
0.857747
1
1
1
1
1
0.999999
1
1
1
1
0.999551
0.998552
0.998071
0.999198
0.999995
1
1
1
1
1
1
1
1
1
0.999697
0.99948
0.999953
1
0.999822
0.997227
0.997156
0.997733
0.999223
1
1
1
1
1
1
0.999999
0.999999
1
0.999639
0.998919
0.998938
0.999676
0.999999
0.999568
0.997679
0.998547
0.999824
0.999891
1
1
1
1
1
0.999999
0.999999
0.999999
1
0.999588
0.998966
0.999083
0.999854
0.999994
0.999823
0.999899
1
1
1
1
1
1
1
1
1
0.999999
0.999996
0.999989
0.999953
0.999918
0.999913
0.999994
0.999999
1
1
1
1
1
0.999999
0.999998
1
1
1
1
1
0.999999
0.999999
1
1
1
0.999999
0.999999
1
1
1
1
1
0.999999
0.999998
1
1
1
1
1
1
1
1
1
1
1
0.999999
1
1
1
1
1
0.999999
0.999999
1
1
1
1
1
1
1
1
1
1
1
1
1
1
1
1
1
1
1
1
1
1
1
1
1
1
1
1
1
1
1
1
1
1
1
1
1
1
1
1
1
1
1
1
1
1
1
1
1
1
1
1
1
1
1
1
1
1
1
1
1
1
1
1
1
1
1
1
1
1
1
1
1
1
1
1
1
1
1
1
1
1
1
1
1
1
1
1
1
1
1
1
1
1
1
1
1
1
1
1
1
1
1
1
1
1
1
1
1
1
1
1
1
1
1
1
1
1
1
1
1
1
1
1
1
1
1
1
1
1
1
1
1
1
1
1
1
1
1
1
1
1
1
1
1
1
1
1
1
1
1
1
1
1
1
1
1
1
1
1
1
1
1
1
1
1
1
1
1
1
1
1
1
1
1
1
1
1
1
1
1
1
1
1
1
1
1
1
1
1
1
1
1
1
1
1
1
1
1
1
1
1
1
1
1
1
1
1
1
1
1
1
1
1
1
1
1
1
1
1
1
1
1
1
1
1
1
1
1
1
1
1
1
1
1
1
1
1
1
1
1
1
1
1
1
1
1
1
1
1
1
1
1
1
1
1
1
1
1
1
1
1
1
1
1
1
1
1
1
1
1
1
1
1
1
1
1
1
1
1
1
1
1
1
1
1
1
1
1
1
1
1
1
1
1
1
1
1
1
1
1
1
1
1
1
1
1
1
1
1
1
1
1
1
1
1
1
1
1
1
1
1
1
1
1
1
1
1
1
1
1
1
1
1
1
1
1
1
1
1
1
1
1
1
1
1
1
1
1
1
1
1
1
1
1
1
1
1
1
1
1
1
1
1
1
1
1
1
1
1
1
1
1
1
1
1
1
1
1
1
1
1
1
1
1
1
1
1
1
1
1
1
1
1
1
1
1
1
1
1
1
1
1
1
1
1
1
1
1
1
1
1
1
1
1
1
1
1
1
1
1
1
1
1
1
1
1
1
1
1
1
1
1
1
1
1
1
1
1
1
1
1
1
1
1
1
1
1
1
1
1
1
1
1
1
1
1
1
1
1
1
1
1
1
1
1
1
1
1
1
1
1
1
1
1
1
1
1
1
1
1
1
1
1
1
1
1
1
1
1
1
1
1
1
)
;

boundaryField
{
    leftWall
    {
        type            alphaContactAngle;
        contactAngleProperties 
        {
            mercury         
            {
                theta0          90;
            }
            water           
            {
                theta0          90;
            }
            oil             
            {
                theta0          90;
            }
        }
        value           nonuniform List<scalar> 
50
(
1.29297e-13
8.2989e-13
4.24374e-12
1.43002e-11
9.35341e-11
3.28497e-10
6.82112e-10
1.49666e-09
2.80124e-09
4.41278e-09
3.52438e-09
3.38375e-09
0.0166614
0.469272
0.711419
0.765287
0.876953
0.959789
0.989351
0.999312
0.999999
0.999999
1
1
1
1
1
1
1
1
1
1
1
1
1
1
1
1
1
1
1
1
1
1
1
1
1
1
1
1
)
;
    }
    rightWall
    {
        type            alphaContactAngle;
        contactAngleProperties 
        {
            mercury         
            {
                theta0          90;
            }
            water           
            {
                theta0          90;
            }
            oil             
            {
                theta0          90;
            }
        }
        value           nonuniform List<scalar> 
50
(
0.0149039
0.0180993
0.0763767
0.0913029
0.044428
0.0893784
0.118334
0.1183
0.056122
0.0272949
0.0364832
0.0607947
0.0488925
0.0107634
0.226353
0.922704
0.995886
1
1
1
1
0.999998
0.999998
0.999999
1
1
1
1
1
1
1
1
1
1
1
1
1
1
1
1
1
1
1
1
1
1
1
1
1
1
)
;
    }
    lowerWall
    {
        type            alphaContactAngle;
        contactAngleProperties 
        {
            mercury         
            {
                theta0          90;
            }
            water           
            {
                theta0          90;
            }
            oil             
            {
                theta0          90;
            }
        }
        value           nonuniform List<scalar> 
62
(
1.29297e-13
1.72249e-13
2.21618e-13
1.92177e-13
1.67036e-13
1.32817e-13
8.78643e-14
4.99132e-14
2.49923e-14
1.21505e-14
6.99515e-15
4.31782e-15
2.68776e-15
1.53065e-15
8.30117e-16
6.83192e-16
6.92342e-16
8.56172e-16
1.89678e-15
9.30995e-15
3.25478e-14
2.19391e-14
4.53367e-15
4.53367e-15
8.34522e-14
1.32656e-12
3.12618e-12
1.49244e-13
3.12864e-14
3.10284e-06
2.04011e-05
8.11136e-13
4.66043e-10
0.0166844
0.21851
0.00694315
0.00212492
2.64636e-06
1.08571e-06
0.00113981
0.002484
0.000425036
0.00130453
0.00694315
0.0549977
0.0631534
0.0835174
0.0827432
0.073917
0.0480669
0.048037
0.0511751
0.0617077
0.194278
0.197458
0.123265
0.059088
0.0102115
0.00992188
0.0129371
0.0173926
0.0149039
)
;
    }
    atmosphere
    {
        type            inletOutlet;
        inletValue      uniform 1;
        value           nonuniform List<scalar> 
46
(
1
1
1
1
1
1
1
1
1
1
1
1
1
1
1
1
1
1
1
1
1
1
1
1
1
1
1
1
1
1
1
1
1
1
1
1
1
1
1
1
1
1
1
1
1
1
)
;
    }
    defaultFaces
    {
        type            empty;
    }
}


// ************************************************************************* //
