/*--------------------------------*- C++ -*----------------------------------*\
  =========                 |
  \\      /  F ield         | OpenFOAM: The Open Source CFD Toolbox
   \\    /   O peration     | Website:  https://openfoam.org
    \\  /    A nd           | Version:  13
     \\/     M anipulation  |
\*---------------------------------------------------------------------------*/
FoamFile
{
    format      ascii;
    class       volScalarField;
    location    "1.45";
    object      alpha.mercury;
}
// * * * * * * * * * * * * * * * * * * * * * * * * * * * * * * * * * * * * * //

dimensions      [];

internalField   nonuniform List<scalar> 
2268
(
1
1
1
1
1
1
1
1
1
1
1
1
1
1
1
1
1
1
1
1
1
0.999587
0.999432
1
1
1
1
1
1
1
1
1
1
1
1
1
1
1
1
1
1
1
1
1
0.999898
0.999433
1
1
1
1
1
1
1
1
1
1
1
1
1
1
1
1
1
1
1
1
1
1
0.999651
1
1
1
1
1
1
1
1
1
1
1
1
1
1
1
1
1
1
1
1
1
1
0.999983
0.928323
0.934841
0.941364
0.94938
0.961773
0.977636
0.991888
0.999406
1
1
1
1
1
1
1
1
1
1
1
1
1
1
1
0.178417
0.209633
0.228529
0.247218
0.278565
0.333
0.416059
0.529339
0.669833
0.793689
0.893628
0.964571
0.996665
1
1
1
1
1
1
1
1
1
1
4.80408e-10
3.33663e-10
1.12401e-11
6.31223e-20
1.54966e-20
7.82897e-21
8.06495e-21
2.08558e-21
0
0.0390943
0.128623
0.266337
0.459318
0.683239
0.850823
0.976173
1
1
1
0.999997
0.999999
1
0.999997
1.67469e-09
1.57633e-09
1.35393e-09
1.22733e-09
1.12578e-09
9.00029e-10
5.03864e-10
2.43304e-10
1.39748e-17
1.07568e-19
1.67799e-20
1.00703e-20
8.23447e-21
0.00581752
0.0842235
0.218288
0.427103
0.643527
0.806019
0.917109
0.988015
0.999931
0.9996
0.876312
0.876129
0.853656
0.596583
0.53736
0.546275
0.578214
0.595791
0.590927
0.584496
0.605729
0.664718
0.695564
0.696139
0.697037
0.698699
0.698045
0.699114
0.697631
0.8762
0.875641
0.855825
0.869373
0.868667
0.868795
0.832066
0.788093
0.76127
0.713612
0.570456
0.580981
0.600814
0.620013
0.612172
0.637005
0.674015
0.655831
0.563697
0.860475
0.438703
0.394873
0.569835
0.489473
0.339637
0.259751
0.259026
0.273523
0.287469
0.320204
0.31039
0.271485
0.261079
0.288878
0.304422
0.308764
0.341583
0.382648
0.853523
0.305993
0.161531
0.0644011
0.0112337
0.000181238
7.98693e-09
5.19513e-09
0.00343149
0.060179
0.171937
0.206075
0.238615
0.205117
0.209299
0.200194
0.160925
0.151178
0.190336
0.853431
0.590758
0.224631
0.000188354
7.1565e-05
0.000144711
0.000798616
0.000989141
0.00023315
0.000127108
0.000545236
0.0576951
0.109046
0.176497
0.192078
0.193278
0.137146
0.076182
0.0578524
0.474486
0.313259
0.254176
0.0049539
7.75952e-05
0.000315202
0.00139269
0.0013815
0.000768148
0.00013828
-3.70539e-09
9.34388e-10
9.985e-11
1.11283e-10
1.03858e-10
0.00823805
0.00737168
0.00112055
0.00666518
0.0969
0.0783026
0.12715
0.0262877
8.62043e-05
9.18623e-05
0.000215181
0.000257186
0.000106815
2.22672e-05
4.58241e-05
4.44915e-05
2.54905e-05
5.22903e-05
1.66755e-05
4.85728e-06
3.91221e-06
0.00128685
0.0111737
0.0949705
0.0895332
0.069959
0.0195411
-1.11777e-06
5.41377e-05
3.37485e-05
1.01535e-05
4.68452e-07
7.14684e-23
5.94438e-05
9.88094e-05
6.10781e-05
0.000308403
0.00063215
0.000400342
5.24815e-05
0.001338
0.0130218
2.29014e-09
2.47209e-09
2.47987e-09
2.52988e-09
2.61655e-09
2.42667e-09
1.9024e-09
1.37147e-09
8.28175e-10
4.2053e-10
1.8163e-10
6.63119e-11
3.47366e-11
3.64971e-11
4.98311e-11
1.02897e-08
0.0012984
0.012991
0.0418943
0.0874352
0.141297
0.232987
0.462509
1.12134e-09
1.73361e-09
2.02832e-09
2.44053e-09
3.00771e-09
3.11783e-09
3.02786e-09
2.43879e-09
1.63749e-09
9.51145e-10
5.06483e-10
2.65121e-10
2.20035e-10
3.33312e-10
4.7951e-10
5.55056e-10
6.64959e-08
3.22932e-08
8.82175e-09
1.66377e-09
4.32073e-06
4.71566e-09
-1.71218e-06
3.34395e-10
3.88891e-10
5.22949e-10
5.8275e-10
7.38443e-10
1.02676e-09
9.67627e-10
8.95301e-10
7.6173e-10
5.78493e-10
3.67603e-10
2.23914e-10
9.60188e-11
7.70787e-11
7.68518e-11
8.11063e-11
3.82591e-10
1.53031e-09
1.86646e-10
3.40778e-09
1.36017e-06
2.43659e-08
8.27008e-05
2.3099e-10
2.49345e-10
2.92972e-10
3.01438e-10
2.43068e-10
1.89251e-10
1.86745e-10
2.09208e-10
2.52282e-10
2.73901e-10
2.69499e-10
2.79681e-10
3.09692e-10
2.79875e-10
2.82527e-10
3.7622e-10
3.48717e-10
2.59479e-10
1.64306e-10
1.48833e-12
1.99996e-07
1.32997e-07
1.97062e-06
2.16904e-10
3.14816e-10
4.4032e-10
4.90952e-10
5.63606e-10
6.61321e-10
8.0882e-10
9.86848e-10
1.226e-09
1.46677e-09
1.60144e-09
1.73898e-09
1.93225e-09
2.29891e-09
2.63639e-09
3.2018e-09
2.94019e-09
1.91914e-09
4.41866e-10
2.95562e-15
1.36673e-09
5.09327e-09
6.41032e-05
2.73034e-10
5.51e-10
5.95509e-10
6.1494e-10
6.75931e-10
8.60173e-10
1.13312e-09
1.42241e-09
1.76725e-09
2.14317e-09
2.29088e-09
2.44185e-09
2.70513e-09
3.50757e-09
4.16825e-09
4.23815e-09
3.4422e-09
1.55475e-09
4.25146e-10
7.07534e-12
1.06613e-07
3.32167e-06
3.89669e-06
4.33914e-10
6.12438e-10
5.66175e-10
4.83714e-10
4.92377e-10
6.30838e-10
7.78533e-10
8.85406e-10
1.025e-09
1.19794e-09
1.26078e-09
1.15194e-09
1.03574e-09
1.02883e-09
1.41353e-09
1.54493e-09
1.43331e-09
2.20564e-09
4.26811e-09
7.11568e-09
4.7695e-09
5.64678e-10
6.32144e-10
4.85113e-10
6.08362e-10
4.5674e-10
2.79778e-10
2.27142e-10
1.9119e-10
1.62103e-10
1.34248e-10
1.29787e-10
1.53158e-10
2.03305e-10
2.08268e-10
2.22498e-10
2.29211e-10
1.73006e-10
1.82129e-10
2.23164e-10
2.39547e-10
2.48908e-10
2.86462e-10
2.88318e-10
4.90197e-10
8.1053e-10
4.58193e-10
5.80252e-10
4.43015e-10
2.65319e-10
2.07959e-10
1.4802e-10
9.44367e-11
6.05433e-11
3.90137e-11
3.15083e-11
3.42051e-11
3.94212e-11
4.34826e-11
4.80302e-11
7.54961e-11
1.0059e-10
1.17699e-10
1.51574e-10
2.16312e-10
2.77921e-10
3.2716e-10
4.04502e-10
4.96312e-10
4.1081e-10
4.94295e-10
5.07051e-10
3.60117e-10
2.84096e-10
2.07464e-10
1.2593e-10
7.87738e-11
3.70536e-11
2.19139e-11
1.44429e-11
1.28888e-11
1.40435e-11
1.72994e-11
2.28159e-11
3.03673e-11
3.81056e-11
4.47748e-11
5.23382e-11
6.41883e-11
8.33567e-11
1.00707e-10
1.08983e-10
3.36514e-10
3.50095e-10
4.6481e-10
4.69593e-10
4.05715e-10
3.22704e-10
2.52528e-10
1.63308e-10
7.62061e-11
3.08709e-11
1.25448e-11
7.67068e-12
6.36253e-12
5.97214e-12
6.32263e-12
5.98771e-12
5.87392e-12
6.00245e-12
6.4116e-12
7.50295e-12
9.31329e-12
1.00133e-11
9.67055e-12
1.94653e-10
1.63159e-10
3.43037e-10
4.56924e-10
4.47237e-10
3.74325e-10
3.03316e-10
2.54095e-10
1.76193e-10
7.09722e-11
2.12317e-11
8.12058e-12
5.88052e-12
4.91523e-12
4.04478e-12
3.08648e-12
2.41934e-12
2.02701e-12
1.91041e-12
1.69973e-12
1.65038e-12
1.70527e-12
1.68723e-12
5.39461e-11
8.57555e-11
2.53295e-10
4.2482e-10
4.11324e-10
3.48184e-10
3.02217e-10
2.73038e-10
2.3394e-10
1.51247e-10
7.55338e-11
2.32033e-11
1.09748e-11
7.46279e-12
5.03899e-12
3.09257e-12
2.17001e-12
1.66456e-12
1.36488e-12
1.02854e-12
8.31661e-13
6.72132e-13
5.6335e-13
2.35381e-11
8.77522e-11
2.29116e-10
3.53166e-10
3.19202e-10
2.71113e-10
2.65212e-10
2.71222e-10
2.53365e-10
2.05426e-10
1.34923e-10
6.60139e-11
2.22261e-11
1.30983e-11
7.8676e-12
4.25512e-12
2.80156e-12
1.89323e-12
1.27199e-12
8.45109e-13
6.05707e-13
4.46887e-13
3.36922e-13
1.11938e-11
7.03795e-11
2.11908e-10
2.58198e-10
2.46649e-10
2.33696e-10
2.34414e-10
2.40778e-10
2.47633e-10
2.17785e-10
1.74206e-10
1.15293e-10
5.44829e-11
2.26237e-11
1.32314e-11
7.96695e-12
4.93567e-12
3.43073e-12
1.96923e-12
1.21507e-12
6.97093e-13
4.59917e-13
2.93722e-13
7.02364e-12
5.45006e-11
1.25986e-10
1.78741e-10
1.82949e-10
1.86258e-10
1.88502e-10
1.91145e-10
1.95007e-10
2.09668e-10
1.84525e-10
1.43299e-10
9.05941e-11
4.78137e-11
2.68185e-11
1.84491e-11
9.79207e-12
5.42244e-12
3.97697e-12
2.33723e-12
1.24268e-12
6.24927e-13
3.73799e-13
7.17575e-12
3.06323e-11
6.58526e-11
8.4504e-11
1.11701e-10
1.29331e-10
1.28804e-10
1.34227e-10
1.42016e-10
1.4787e-10
1.58962e-10
1.44752e-10
1.01479e-10
6.00493e-11
3.57227e-11
2.24242e-11
1.28385e-11
7.52152e-12
4.97141e-12
2.82719e-12
1.84731e-12
8.11405e-13
5.06474e-13
4.56942e-12
1.82354e-11
3.50932e-11
4.58279e-11
6.37497e-11
7.5146e-11
7.90972e-11
7.8841e-11
7.83058e-11
8.52464e-11
9.17958e-11
9.3011e-11
9.60117e-11
5.83295e-11
3.62792e-11
2.50442e-11
1.39482e-11
8.37719e-12
4.79207e-12
2.93536e-12
1.96747e-12
9.94691e-13
7.20539e-13
2.33055e-12
9.81794e-12
2.08218e-11
2.9285e-11
3.85923e-11
4.74774e-11
4.9533e-11
4.70346e-11
4.38404e-11
4.05415e-11
4.11406e-11
4.29106e-11
4.58877e-11
4.97207e-11
3.04442e-11
2.15772e-11
1.37489e-11
7.85868e-12
4.07755e-12
2.47104e-12
1.65149e-12
1.16215e-12
7.57431e-13
1.19006e-12
4.75215e-12
1.08917e-11
1.76144e-11
2.27838e-11
2.81494e-11
3.17236e-11
3.07307e-11
2.72227e-11
2.26081e-11
1.74473e-11
1.71539e-11
1.76912e-11
1.91316e-11
2.00644e-11
1.08888e-11
8.13849e-12
6.16252e-12
3.48472e-12
2.06543e-12
1.38013e-12
8.79598e-13
6.4829e-13
4.50841e-13
2.0728e-12
5.06445e-12
9.0132e-12
1.2666e-11
1.69093e-11
1.97201e-11
2.00281e-11
1.80579e-11
1.26459e-11
1.00539e-11
8.2574e-12
6.88064e-12
6.40972e-12
6.45917e-12
5.89651e-12
4.02338e-12
3.31341e-12
2.68683e-12
1.70022e-12
1.00554e-12
6.16403e-13
4.88503e-13
1.69113e-13
7.92439e-13
2.02879e-12
3.85894e-12
6.42579e-12
8.54763e-12
1.10179e-11
1.19816e-11
1.1399e-11
9.49479e-12
6.32466e-12
4.42272e-12
3.56239e-12
2.85772e-12
2.29956e-12
2.18001e-12
2.05057e-12
1.57991e-12
1.26556e-12
1.10753e-12
8.70828e-13
5.15462e-13
3.28055e-13
4.85763e-14
2.58038e-13
6.85236e-13
1.44325e-12
2.69217e-12
4.01171e-12
5.20347e-12
6.45821e-12
6.75716e-12
5.82205e-12
4.44403e-12
2.73186e-12
1.86258e-12
1.3337e-12
1.0977e-12
9.35543e-13
8.2424e-13
7.4607e-13
6.14059e-13
5.45946e-13
4.60415e-13
3.48356e-13
2.14619e-13
1.3369e-14
6.89788e-14
1.96228e-13
4.32698e-13
8.82995e-13
1.72028e-12
2.17925e-12
2.82119e-12
3.5525e-12
3.3773e-12
2.63927e-12
1.69149e-12
1.06314e-12
6.99241e-13
4.79287e-13
3.90394e-13
3.46067e-13
3.04931e-13
2.71453e-13
2.48711e-13
2.1033e-13
1.61592e-13
1.29416e-13
3.32556e-15
1.79885e-14
5.03342e-14
1.18242e-13
2.42697e-13
5.56945e-13
8.64069e-13
1.03949e-12
1.52505e-12
1.71308e-12
1.36587e-12
9.98096e-13
5.87563e-13
3.66991e-13
2.29764e-13
1.61725e-13
1.29848e-13
1.13239e-13
9.92002e-14
9.06131e-14
7.71318e-14
6.74572e-14
5.83515e-14
5.43897e-16
3.83328e-15
1.14845e-14
2.85521e-14
6.99974e-14
1.66639e-13
2.76622e-13
3.508e-13
5.04945e-13
7.23594e-13
6.20383e-13
4.61994e-13
3.13966e-13
1.80246e-13
1.05932e-13
6.92743e-14
4.91508e-14
4.10653e-14
3.47226e-14
3.12552e-14
2.82652e-14
2.48186e-14
2.20011e-14
8.86192e-17
6.89738e-16
2.2992e-15
6.185e-15
1.78161e-14
4.95239e-14
8.33932e-14
1.12566e-13
1.55442e-13
2.35438e-13
2.29775e-13
1.8519e-13
1.29461e-13
7.94862e-14
4.34806e-14
2.61781e-14
1.71744e-14
1.43284e-14
1.1559e-14
1.04288e-14
9.0932e-15
8.06943e-15
7.20488e-15
8.87212e-18
1.01599e-16
3.87818e-16
1.16901e-15
3.93522e-15
1.26109e-14
2.19218e-14
3.14741e-14
4.38881e-14
6.77943e-14
6.83798e-14
5.83595e-14
4.37979e-14
2.91671e-14
1.4877e-14
8.61684e-15
5.49483e-15
4.36524e-15
3.6694e-15
3.22016e-15
2.90485e-15
2.39132e-15
2.07605e-15
9.34356e-19
1.16613e-17
5.23483e-17
1.855e-16
7.21575e-16
2.6712e-15
5.14935e-15
7.35468e-15
1.09358e-14
1.70818e-14
1.76448e-14
1.54388e-14
1.19729e-14
8.29719e-15
4.29075e-15
2.39522e-15
1.51491e-15
1.19494e-15
1.00415e-15
8.9128e-16
7.56344e-16
6.55798e-16
5.21149e-16
5.89865e-20
9.7156e-19
5.46885e-18
2.28863e-17
1.01523e-16
4.54535e-16
9.9323e-16
1.48782e-15
2.31009e-15
3.5725e-15
3.77631e-15
3.29369e-15
2.61512e-15
1.84378e-15
9.49992e-16
5.50999e-16
3.83125e-16
2.84285e-16
2.43746e-16
2.1682e-16
1.91876e-16
1.5339e-16
1.14861e-16
1.92791e-21
4.99992e-20
3.85771e-19
2.07872e-18
1.19551e-17
6.09478e-17
1.58309e-16
2.61512e-16
4.21977e-16
6.29959e-16
6.53281e-16
5.73225e-16
4.72627e-16
3.13472e-16
1.69274e-16
1.06393e-16
8.00777e-17
5.93321e-17
5.16647e-17
4.49175e-17
3.98489e-17
3.05445e-17
2.10823e-17
4.98724e-23
1.59061e-21
1.9854e-20
1.57412e-19
1.04404e-18
5.78537e-18
1.98628e-17
3.72528e-17
6.26472e-17
9.03555e-17
9.1519e-17
8.35385e-17
6.81852e-17
4.32412e-17
2.48712e-17
1.68843e-17
1.34858e-17
1.04772e-17
9.19206e-18
8.17767e-18
7.09868e-18
4.89863e-18
3.30543e-18
9.76512e-25
2.86738e-23
7.62706e-22
9.07007e-21
8.06048e-20
4.71759e-19
1.59912e-18
4.12421e-18
7.04316e-18
9.28737e-18
9.85863e-18
9.40503e-18
7.60008e-18
4.89622e-18
3.11771e-18
2.40159e-18
1.99068e-18
1.58658e-18
1.38839e-18
1.22185e-18
9.98279e-19
6.77529e-19
3.9474e-19
2.70058e-26
4.89562e-25
3.01042e-23
4.95677e-22
4.94728e-21
3.09871e-20
1.16981e-19
3.38503e-19
6.39496e-19
8.82022e-19
9.53579e-19
8.97543e-19
6.82756e-19
4.54471e-19
3.45483e-19
2.9247e-19
2.45878e-19
2.12791e-19
1.80964e-19
1.60019e-19
1.22342e-19
7.24459e-20
3.87517e-20
8.55518e-28
9.04067e-27
1.08062e-24
2.25479e-23
2.50177e-22
1.51947e-21
6.9068e-21
2.32975e-20
4.90758e-20
7.01003e-20
7.72829e-20
7.07582e-20
5.35016e-20
4.08114e-20
3.51868e-20
3.19181e-20
2.92109e-20
2.52489e-20
2.23999e-20
1.78398e-20
1.18252e-20
6.63137e-21
3.18563e-21
2.66693e-29
2.12018e-28
3.48023e-26
8.4529e-25
9.9793e-24
7.28136e-23
3.67099e-22
1.40088e-21
3.42195e-21
4.88975e-21
5.25259e-21
4.77962e-21
3.89839e-21
3.47204e-21
3.27931e-21
3.1361e-21
2.92067e-21
2.60858e-21
2.18783e-21
1.58583e-21
9.74269e-22
4.70653e-22
2.35308e-22
6.80204e-31
4.5845e-30
8.70948e-28
2.4667e-26
3.32798e-25
2.88719e-24
1.62505e-23
6.71551e-23
1.93798e-22
2.84601e-22
3.06914e-22
2.88404e-22
2.71171e-22
2.75026e-22
2.77369e-22
2.75916e-22
2.60694e-22
2.3203e-22
1.81383e-22
1.18614e-22
6.31955e-23
3.09123e-23
6.14517e-24
1.37155e-32
7.96199e-32
1.72409e-29
5.94593e-28
9.597e-27
9.07678e-26
5.93635e-25
2.73663e-24
9.13759e-24
1.38766e-23
1.55543e-23
1.63748e-23
1.79417e-23
1.97436e-23
2.09963e-23
2.14223e-23
2.05025e-23
1.77546e-23
1.28771e-23
7.6259e-24
3.94145e-24
7.58191e-25
5.24511e-26
2.16937e-34
1.09613e-33
2.8067e-31
1.24826e-29
2.24457e-28
2.38787e-27
1.91081e-26
9.41174e-26
3.54112e-25
5.59919e-25
6.85125e-25
8.59069e-25
1.04852e-24
1.24173e-24
1.39623e-24
1.47711e-24
1.43721e-24
1.20821e-24
8.11452e-25
4.72957e-25
1.10115e-25
9.19242e-27
1.47432e-27
1.51913e-36
1.12606e-35
3.93468e-33
2.45449e-31
4.72263e-30
5.82612e-29
5.73429e-28
3.25558e-27
1.3467e-26
2.22034e-26
3.03771e-26
4.29307e-26
5.85695e-26
7.47718e-26
8.73608e-26
9.57549e-26
9.47803e-26
7.908e-26
4.64538e-26
1.59e-26
2.28803e-27
2.70962e-28
5.06235e-28
-1.13162e-37
-1.61712e-38
5.22792e-35
4.90633e-33
1.00608e-31
1.37404e-30
1.59783e-29
9.63994e-29
4.29086e-28
7.68206e-28
1.21492e-27
1.98327e-27
2.95036e-27
4.03876e-27
4.98285e-27
5.64183e-27
5.58403e-27
4.4073e-27
2.22166e-27
5.82123e-28
5.96323e-29
5.40403e-29
2.78317e-28
-9.14003e-39
-3.87544e-39
6.74666e-37
8.78663e-35
1.97296e-33
2.96747e-32
4.00047e-31
2.59577e-30
1.22506e-29
2.40527e-29
4.2844e-29
7.91835e-29
1.29856e-28
1.94629e-28
2.67779e-28
3.04272e-28
3.01854e-28
2.27942e-28
1.02683e-28
2.12844e-29
5.60882e-30
1.90263e-29
1.32646e-28
0.230475
0.0336796
0.0255145
0.0332756
0.00542766
0.00375685
0.0012747
0.0240185
0.000173144
0.00012262
0.016884
0.0442921
4.64891e-08
0.0007758
0.0112417
0.011378
0.00012254
0.000174053
3.25408e-05
3.31266e-10
2.18226e-06
2.35301e-07
9.14442e-10
6.08287e-10
6.81321e-10
1.11644e-09
1.20638e-09
7.12147e-10
1.0166e-09
1.22495e-09
1.3315e-09
1.28745e-09
5.31127e-10
5.16505e-10
6.82757e-10
1.04607e-09
1.13983e-10
1.14959e-10
1.12231e-10
1.23303e-10
9.11536e-12
8.63782e-12
7.36078e-12
6.25683e-12
1.81315e-12
1.74223e-12
1.6958e-12
1.43434e-12
4.59189e-13
3.86344e-13
3.52323e-13
3.24546e-13
2.67596e-13
2.40808e-13
2.18261e-13
2.00565e-13
1.97013e-13
1.63971e-13
1.39325e-13
1.20895e-13
2.21408e-13
1.63429e-13
1.25694e-13
1.05638e-13
2.92147e-13
2.13353e-13
1.70418e-13
1.32054e-13
4.30085e-13
3.1963e-13
2.37306e-13
1.8969e-13
4.8242e-13
3.7665e-13
3.20038e-13
2.61283e-13
4.51313e-13
3.80481e-13
3.22338e-13
2.77545e-13
3.86565e-13
3.34205e-13
2.95025e-13
2.55287e-13
2.80253e-13
2.49186e-13
2.21954e-13
1.98568e-13
1.7832e-13
1.5393e-13
1.38923e-13
1.24204e-13
9.95479e-14
8.15789e-14
7.17901e-14
6.41143e-14
4.65116e-14
3.75621e-14
3.26328e-14
2.83484e-14
1.7732e-14
1.44118e-14
1.22393e-14
1.03234e-14
6.1452e-15
5.06867e-15
4.33074e-15
3.49773e-15
1.78342e-15
1.44763e-15
1.25432e-15
9.9659e-16
4.51966e-16
3.57662e-16
3.09374e-16
2.40167e-16
9.56412e-17
7.46301e-17
6.1305e-17
4.66694e-17
1.62737e-17
1.19407e-17
9.3632e-18
6.91624e-18
2.49419e-18
1.71345e-18
1.23338e-18
8.32474e-19
2.78267e-19
1.86657e-19
1.19562e-19
7.4321e-20
2.54618e-20
1.55787e-20
9.51006e-21
6.08612e-21
2.00552e-21
1.27849e-21
4.06082e-22
3.13162e-23
6.21688e-23
7.99302e-24
5.19451e-25
4.46707e-26
1.66988e-27
4.98258e-27
1.10233e-26
2.60196e-26
1.66122e-27
4.28723e-27
9.98322e-27
2.75553e-26
1.64749e-27
3.07415e-27
9.37391e-27
2.95785e-26
9.58805e-28
2.85369e-27
9.82312e-27
3.09929e-26
6.4248e-28
2.45277e-27
8.73484e-27
2.65461e-26
5.04904e-28
1.70701e-27
5.31539e-27
1.38466e-26
0.0440839
0.0999165
0.109529
0.0289362
3.17666e-07
1.63225e-07
3.30257e-08
1.71586e-09
5.63612e-09
2.55536e-10
1.78111e-05
0.000104043
7.25064e-05
0.000100342
0.000611468
0.000649712
0.00030835
1.08731e-06
0.0105137
0.0595513
0.0950934
0.106004
0.0799849
0.00146289
4.11635e-05
4.74954e-05
4.18548e-06
1.69769e-09
1.83371e-08
2.49085e-08
7.32768e-06
6.51612e-05
0.000117467
0.0001178
0.000153387
7.93569e-05
9.54195e-07
0.00443358
0.0133126
0.00433812
0.0592005
0.0581186
0.00567489
2.03063e-06
1.65996e-06
1.18305e-07
1.58086e-07
2.55378e-07
2.15272e-07
3.73905e-08
6.58764e-06
1.38118e-05
1.70846e-05
1.01693e-05
9.92251e-07
9.4111e-07
0.00202391
0.00212087
1.12139e-05
2.95196e-07
1.47794e-05
0.00331402
0.00297276
5.07909e-05
8.73254e-08
1.13348e-07
2.33794e-07
2.32746e-07
6.29169e-08
-7.91119e-11
-1.8057e-09
1.13494e-07
9.22255e-06
3.49038e-06
9.54223e-07
0.00278517
4.66321e-06
4.52708e-06
2.5418e-09
3.61203e-09
6.67225e-09
1.23328e-05
6.80137e-05
5.64182e-05
3.3074e-06
1.19585e-06
1.73022e-08
2.06662e-08
-7.29535e-12
4.66779e-09
4.20515e-06
9.6868e-06
7.54867e-06
1.414e-06
0.00561566
5.31435e-10
6.3745e-09
1.34205e-07
1.23864e-07
6.2502e-08
1.92972e-10
1.19795e-10
3.89448e-10
1.0906e-07
7.23719e-08
1.39248e-08
7.93519e-09
4.55043e-09
6.20137e-07
4.21854e-06
5.11065e-06
3.6285e-06
0.000539888
0.00591654
6.57739e-10
9.70257e-08
1.40378e-07
1.30105e-07
6.1355e-08
2.34979e-08
1.79518e-09
2.14568e-10
2.53919e-11
1.30818e-09
2.02258e-09
1.12592e-09
1.2644e-09
4.01563e-07
7.98833e-07
1.25841e-07
1.06102e-08
0.0008439
0.0059984
1.70599e-09
1.48355e-10
1.61266e-10
3.61682e-10
2.28533e-10
3.91486e-09
4.64715e-09
1.81716e-09
7.51182e-11
6.37616e-11
7.80335e-11
1.55364e-10
1.62798e-09
6.32794e-09
5.29392e-09
9.0884e-06
0.000237619
0.000629845
0.00279962
9.37645e-10
2.33165e-10
2.02739e-10
3.10208e-10
2.16758e-10
1.36871e-10
1.27926e-10
4.88284e-11
1.20249e-11
1.764e-11
1.31161e-11
4.99137e-10
6.56399e-09
2.10799e-08
1.60436e-06
4.66507e-05
0.000204326
1.21574e-05
1.55964e-09
1.23672e-10
1.23504e-10
1.00109e-10
5.77242e-11
3.03658e-11
1.26299e-11
3.55756e-12
1.27475e-12
2.62025e-12
1.16766e-11
1.28393e-11
3.28294e-09
3.84679e-09
1.88225e-06
1.16919e-05
2.42219e-05
2.9137e-05
2.13204e-08
1.78938e-09
4.77272e-12
3.10763e-12
2.22348e-12
2.01962e-12
1.23847e-12
8.39287e-13
4.88501e-13
5.44477e-13
4.74444e-12
1.37026e-11
1.31173e-11
1.36853e-11
4.55411e-07
9.75628e-06
9.57367e-06
4.18825e-07
1.34878e-09
2.69012e-08
1.64549e-09
8.95679e-13
6.25958e-13
4.87233e-13
3.80849e-13
2.67253e-13
2.54094e-13
3.62131e-13
2.00404e-12
5.277e-12
1.85237e-12
4.93777e-10
8.33951e-08
1.84328e-06
4.94716e-06
2.64453e-06
3.144e-11
4.97342e-10
1.66022e-08
1.12531e-09
3.28931e-13
2.6808e-13
1.94801e-13
1.53357e-13
1.51847e-13
2.2422e-13
9.23312e-13
1.84007e-12
1.84076e-12
1.84672e-12
3.50032e-08
3.28604e-07
6.97337e-07
1.28309e-12
6.45018e-13
3.5039e-11
1.46742e-10
1.80372e-10
1.04067e-10
1.83388e-13
1.30603e-13
9.78016e-14
9.5493e-14
1.03114e-13
5.91051e-13
6.76172e-12
2.95655e-11
1.02522e-09
1.57012e-08
5.59179e-08
8.27934e-08
1.28308e-12
1.79892e-12
8.36283e-12
3.2214e-11
1.11396e-10
1.93435e-10
2.69761e-12
1.09219e-13
7.66656e-14
7.30626e-14
1.01041e-13
1.85651e-13
2.97432e-12
4.54279e-11
2.50478e-10
1.37139e-09
1.00333e-08
2.50246e-08
1.59658e-08
5.33769e-13
7.49628e-13
7.09126e-12
1.99104e-11
2.6862e-11
3.91127e-11
9.52741e-13
8.50985e-14
5.53177e-14
5.29816e-14
8.45745e-14
1.77741e-13
4.40747e-12
5.69014e-11
1.78944e-10
4.66377e-10
1.38225e-09
1.757e-09
4.4268e-09
2.52481e-11
6.3549e-13
3.47955e-12
6.65162e-12
8.71456e-12
2.86595e-12
1.68667e-13
1.01308e-13
5.08995e-14
3.8283e-14
6.81761e-14
7.88594e-13
4.47088e-12
1.71768e-11
5.29646e-11
1.25559e-10
2.10331e-10
2.79205e-10
5.06892e-10
3.66557e-12
3.27217e-13
1.13369e-12
1.80244e-12
1.65919e-12
5.84435e-13
1.46581e-14
1.43574e-13
6.71356e-14
3.69684e-14
2.95788e-14
1.49948e-13
1.04454e-12
3.83176e-12
1.0912e-11
2.52574e-11
4.27135e-11
2.67596e-11
7.92931e-11
1.88167e-13
8.06517e-14
2.62469e-13
5.74656e-13
4.55717e-13
1.10543e-14
7.50226e-15
2.07416e-13
1.06664e-13
5.38754e-14
2.72634e-14
2.31138e-14
7.78446e-14
6.09707e-13
1.92712e-12
4.14312e-12
6.94574e-12
6.06227e-12
2.07581e-12
5.86516e-14
1.75614e-14
4.51296e-14
6.1068e-14
4.33632e-14
8.71754e-15
4.96506e-15
2.29804e-13
1.34979e-13
7.2831e-14
3.87368e-14
2.16122e-14
1.5605e-14
4.212e-14
2.41266e-13
6.13712e-13
9.50536e-13
9.93333e-13
3.67396e-13
1.90092e-14
5.34999e-15
8.65528e-15
1.44887e-14
1.2508e-14
6.83208e-15
4.06833e-15
2.14294e-13
1.38961e-13
7.50732e-14
4.75121e-14
2.4743e-14
1.33358e-14
1.0119e-14
2.2106e-14
6.79896e-14
1.13694e-13
1.20752e-13
4.07553e-14
5.75145e-15
2.07587e-15
2.81608e-15
3.06941e-15
3.18795e-15
4.45095e-15
2.61442e-15
1.70744e-13
1.15977e-13
6.7597e-14
4.43957e-14
2.40183e-14
1.3746e-14
7.15822e-15
4.98571e-15
7.06899e-15
1.13474e-14
1.23941e-14
4.16048e-15
1.4376e-15
8.12803e-16
1.03166e-15
1.22079e-15
1.71921e-15
2.22507e-15
1.5351e-15
1.09169e-13
7.69629e-14
4.80074e-14
3.22337e-14
1.90199e-14
1.1111e-14
5.89302e-15
3.1206e-15
1.89521e-15
1.28776e-15
1.12166e-15
4.85135e-16
3.17109e-16
2.92528e-16
4.54925e-16
6.72877e-16
1.05743e-15
1.2377e-15
9.20263e-16
5.70145e-14
4.11272e-14
2.67576e-14
1.86693e-14
1.1426e-14
6.88788e-15
3.80566e-15
2.04381e-15
1.06417e-15
3.74751e-16
1.53633e-16
7.19758e-17
6.71617e-17
9.11321e-17
1.77752e-16
3.9176e-16
6.40951e-16
7.30457e-16
5.33249e-16
2.47873e-14
1.76725e-14
1.17771e-14
8.28732e-15
5.20353e-15
3.23056e-15
1.83027e-15
1.064e-15
4.35517e-16
1.43598e-16
3.41301e-17
1.10145e-17
9.4774e-18
3.02085e-17
8.88924e-17
2.09952e-16
3.71541e-16
4.28296e-16
2.84937e-16
8.78936e-15
6.2322e-15
4.10616e-15
2.85177e-15
1.84175e-15
1.14604e-15
7.05677e-16
3.64618e-16
1.39127e-16
3.46629e-17
5.15608e-18
8.03832e-19
3.17088e-18
1.30789e-17
4.31575e-17
1.09886e-16
2.04285e-16
2.45768e-16
1.46497e-16
2.84825e-15
1.88627e-15
1.19722e-15
7.82237e-16
5.04238e-16
3.24737e-16
1.93334e-16
9.49245e-17
3.08871e-17
4.49338e-18
1.34153e-19
2.22613e-19
1.21961e-18
5.70502e-18
2.069e-17
5.48784e-17
1.08725e-16
1.34377e-16
7.7313e-17
7.40359e-16
4.71482e-16
2.76091e-16
1.6872e-16
1.11033e-16
6.98273e-17
3.64886e-17
1.47211e-17
3.10053e-18
4.20323e-20
3.32578e-20
1.0163e-19
5.13839e-19
2.5067e-18
9.61612e-18
2.72082e-17
5.59714e-17
6.54316e-17
3.97936e-17
1.60779e-16
9.66254e-17
4.99187e-17
2.90665e-17
1.86372e-17
9.09652e-18
3.79281e-18
8.07893e-19
1.96041e-20
1.40689e-20
2.8618e-20
7.14621e-20
2.63026e-19
1.1571e-18
4.48438e-18
1.29827e-17
2.81369e-17
3.5588e-17
1.81844e-17
2.69965e-17
1.47182e-17
7.03387e-18
4.04507e-18
1.4835e-18
5.47595e-19
8.2379e-20
4.07801e-21
6.54736e-21
1.41053e-20
3.03545e-20
6.89353e-20
1.8321e-19
6.0359e-19
2.18979e-18
6.06168e-18
1.40772e-17
2.10877e-17
1.17847e-17
3.68705e-18
1.68161e-18
9.45656e-19
2.32425e-19
3.80742e-20
1.81599e-21
1.45272e-21
3.11844e-21
7.16533e-21
1.60951e-20
3.46624e-20
7.37937e-20
1.64428e-19
4.04796e-19
1.15819e-18
2.89807e-18
6.9142e-18
1.14111e-17
5.5371e-18
3.6988e-19
1.84492e-19
3.96414e-20
2.23598e-21
3.46715e-22
5.8873e-22
1.39033e-21
3.40345e-21
8.11284e-21
1.85183e-20
3.99626e-20
8.27605e-20
1.66415e-19
3.36384e-19
7.33821e-19
1.57686e-18
4.39331e-18
5.21887e-18
3.04557e-18
3.50268e-20
5.53347e-21
2.32026e-22
9.59831e-23
2.10287e-22
5.64016e-22
1.47962e-21
3.71755e-21
9.00364e-21
2.06565e-20
4.47199e-20
8.99568e-20
1.7027e-19
3.04862e-19
5.3922e-19
1.26102e-18
2.4675e-18
2.79062e-18
1.17844e-18
1.22032e-21
3.23903e-23
2.33945e-23
6.71843e-23
2.01131e-22
5.64873e-22
1.51967e-21
3.89098e-21
9.55658e-21
2.21453e-20
4.74197e-20
9.3325e-20
1.66516e-19
2.71194e-19
4.76882e-19
9.29272e-19
1.41821e-18
1.13336e-18
5.57592e-19
1.86269e-24
4.28213e-24
1.8297e-23
6.15505e-23
1.86758e-22
5.43302e-22
1.47171e-21
3.82219e-21
9.33388e-21
2.13831e-20
4.60863e-20
8.96742e-20
1.5102e-19
2.48652e-19
4.11504e-19
6.49338e-19
7.06873e-19
5.69411e-19
1.84862e-19
6.07187e-25
3.70129e-24
1.52512e-23
5.22528e-23
1.66213e-22
4.86018e-22
1.34542e-21
3.48954e-21
8.54857e-21
1.95845e-20
4.16177e-20
7.95748e-20
1.33091e-19
2.11637e-19
3.10682e-19
4.14844e-19
3.9867e-19
2.22457e-19
8.64796e-20
5.32988e-25
3.07281e-24
1.21725e-23
4.34808e-23
1.38187e-22
4.06724e-22
1.11486e-21
2.87369e-21
6.97585e-21
1.59116e-20
3.339e-20
6.24782e-20
1.03582e-19
1.58032e-19
2.05709e-19
2.32435e-19
1.89538e-19
1.0284e-19
3.03356e-20
4.66688e-25
2.40636e-24
9.53842e-24
3.33241e-23
1.04716e-22
3.05449e-22
8.26294e-22
2.08745e-21
4.96637e-21
1.11596e-20
2.29429e-20
4.19983e-20
6.82391e-20
9.93335e-20
1.16499e-19
1.13266e-19
7.54808e-20
3.41916e-20
1.46609e-20
3.67288e-25
1.70577e-24
6.58694e-24
2.18976e-23
6.86108e-23
1.95073e-22
5.17904e-22
1.28198e-21
2.98634e-21
6.58787e-21
1.32862e-20
2.3797e-20
3.74927e-20
5.22264e-20
5.61855e-20
4.81482e-20
2.78952e-20
1.42618e-20
5.2847e-21
2.54061e-25
1.03109e-24
3.66777e-24
1.16298e-23
3.37945e-23
9.28376e-23
2.43434e-22
6.02995e-22
1.39703e-21
3.05245e-21
6.11152e-21
1.08944e-20
1.67152e-20
2.26034e-20
2.24545e-20
1.81178e-20
9.56424e-21
3.90847e-21
2.7361e-21
1.32975e-25
4.7197e-25
1.5348e-24
4.5999e-24
1.31156e-23
3.55388e-23
9.0823e-23
2.26248e-22
5.25201e-22
1.14014e-21
2.26265e-21
4.02987e-21
6.096e-21
8.06995e-21
7.62677e-21
6.07315e-21
2.15189e-21
1.62486e-21
1.34521e-21
3.89024e-26
1.1898e-25
3.53171e-25
9.92606e-25
2.89967e-24
8.23164e-24
2.15136e-23
5.5127e-23
1.36864e-22
3.10316e-22
6.36853e-22
1.16511e-21
1.78916e-21
2.35367e-21
2.19772e-21
1.79267e-21
7.35764e-22
6.02505e-22
5.48981e-22
)
;

boundaryField
{
    leftWall
    {
        type            alphaContactAngle;
        contactAngleProperties 
        {
            air             
            {
                theta0          90;
            }
            water           
            {
                theta0          90;
            }
            oil             
            {
                theta0          90;
            }
        }
        value           nonuniform List<scalar> 
50
(
1
1
1
1
0.928323
0.178417
4.80408e-10
1.67469e-09
2.29014e-09
1.12134e-09
3.34395e-10
2.3099e-10
2.16904e-10
2.73034e-10
4.33914e-10
4.85113e-10
4.58193e-10
4.1081e-10
3.36514e-10
1.94653e-10
5.39461e-11
2.35381e-11
1.11938e-11
7.02364e-12
7.17575e-12
4.56942e-12
2.33055e-12
1.19006e-12
4.50841e-13
1.69113e-13
4.85763e-14
1.3369e-14
3.32556e-15
5.43897e-16
8.86192e-17
8.87212e-18
9.34356e-19
5.89865e-20
1.92791e-21
4.98724e-23
9.76512e-25
2.70058e-26
8.55518e-28
2.66693e-29
6.80204e-31
1.37155e-32
2.16937e-34
1.51913e-36
-1.13162e-37
-9.14003e-39
)
;
    }
    rightWall
    {
        type            alphaContactAngle;
        contactAngleProperties 
        {
            air             
            {
                theta0          90;
            }
            water           
            {
                theta0          90;
            }
            oil             
            {
                theta0          90;
            }
        }
        value           nonuniform List<scalar> 
50
(
0.697631
0.563697
0.382648
0.190336
0.0578524
0.00666518
0.0111737
0.0130218
0.0105137
0.00443358
0.00202391
0.00278517
0.00561566
0.00591654
0.0059984
0.00279962
1.55964e-09
1.78938e-09
1.64549e-09
1.12531e-09
1.04067e-10
2.69761e-12
9.52741e-13
1.68667e-13
1.46581e-14
7.50226e-15
4.96506e-15
4.06833e-15
2.61442e-15
1.5351e-15
9.20263e-16
5.33249e-16
2.84937e-16
1.46497e-16
7.7313e-17
3.97936e-17
1.81844e-17
1.17847e-17
5.5371e-18
3.04557e-18
1.17844e-18
5.57592e-19
1.84862e-19
8.64796e-20
3.03356e-20
1.46609e-20
5.2847e-21
2.7361e-21
1.34521e-21
5.48981e-22
)
;
    }
    lowerWall
    {
        type            alphaContactAngle;
        contactAngleProperties 
        {
            air             
            {
                theta0          90;
            }
            water           
            {
                theta0          90;
            }
            oil             
            {
                theta0          90;
            }
        }
        value           nonuniform List<scalar> 
62
(
1
1
1
1
1
1
1
1
1
1
1
1
1
1
1
1
1
1
1
1
1
0.999587
0.999432
0.999432
0.999433
0.999651
0.999983
1
1
0.999997
0.9996
0.230475
0.0336796
0.0255145
0.0332756
0.876312
0.8762
0.860475
0.853523
0.853431
0.474486
0.0969
0.0949705
0.876312
0.876129
0.853656
0.596583
0.53736
0.546275
0.578214
0.595791
0.590927
0.584496
0.605729
0.664718
0.695564
0.696139
0.697037
0.698699
0.698045
0.699114
0.697631
)
;
    }
    atmosphere
    {
        type            inletOutlet;
        inletValue      uniform 0;
        value           nonuniform List<scalar> 
46
(
0
0
0
0
0
0
0
0
0
0
0
0
0
0
0
0
0
0
0
0
0
0
0
0
0
0
0
0
0
0
0
2.89967e-24
8.23163e-24
2.15136e-23
5.5127e-23
1.36864e-22
3.10316e-22
6.36853e-22
1.16511e-21
1.78916e-21
2.35367e-21
2.19772e-21
1.79267e-21
7.35764e-22
6.02504e-22
5.48981e-22
)
;
    }
    defaultFaces
    {
        type            empty;
    }
}


// ************************************************************************* //
