/*--------------------------------*- C++ -*----------------------------------*\
  =========                 |
  \\      /  F ield         | OpenFOAM: The Open Source CFD Toolbox
   \\    /   O peration     | Website:  https://openfoam.org
    \\  /    A nd           | Version:  13
     \\/     M anipulation  |
\*---------------------------------------------------------------------------*/
FoamFile
{
    format      ascii;
    class       volScalarField;
    location    "1.45";
    object      alpha.water;
}
// * * * * * * * * * * * * * * * * * * * * * * * * * * * * * * * * * * * * * //

dimensions      [];

internalField   nonuniform List<scalar> 
2268
(
2.57274e-11
5.10185e-11
8.2506e-11
9.02054e-11
9.22445e-11
9.65303e-11
1.00219e-10
1.03258e-10
1.05666e-10
1.07135e-10
1.08482e-10
1.11682e-10
1.16087e-10
1.24715e-10
1.42049e-10
1.7555e-10
2.33025e-10
3.09435e-10
4.71417e-10
8.2982e-10
1.58589e-09
2.34676e-09
2.58256e-09
7.1437e-11
3.29036e-10
3.28866e-10
3.02571e-10
2.81204e-10
2.83896e-10
3.07397e-10
3.42625e-10
3.77448e-10
4.09803e-10
4.38392e-10
4.4533e-10
4.40048e-10
4.12418e-10
3.84108e-10
3.78422e-10
4.08377e-10
4.89217e-10
6.84946e-10
1.07126e-09
2.08018e-09
3.01118e-09
2.91928e-09
7.44183e-10
1.28426e-09
6.22447e-10
4.4445e-10
3.7028e-10
3.53697e-10
4.15048e-10
4.97357e-10
5.86712e-10
7.33934e-10
8.86641e-10
1.00972e-09
1.10338e-09
1.12914e-09
1.08637e-09
9.18251e-10
6.90105e-10
6.63976e-10
8.66419e-10
1.19939e-09
2.21324e-09
3.03563e-09
3.04209e-09
3.17164e-10
3.10701e-10
3.05122e-10
2.98692e-10
2.98955e-10
2.94074e-10
2.94497e-10
2.94164e-10
2.94281e-10
2.95373e-10
6.94604e-10
1.07684e-09
1.42366e-09
1.65874e-09
1.80496e-09
1.71093e-09
1.03633e-09
7.22089e-10
8.36356e-10
1.16668e-09
1.78084e-09
2.69606e-09
2.19283e-09
0.071677
0.0651592
0.0586359
0.0506205
0.0382269
0.0223641
0.00811224
0.000594173
2.9424e-10
2.94845e-10
2.99068e-10
3.8877e-10
6.13448e-10
6.45698e-10
7.96547e-10
8.1723e-10
5.8502e-10
4.70147e-10
6.18018e-10
8.12146e-10
1.22278e-09
1.1357e-09
6.72098e-10
0.821583
0.790367
0.771471
0.752782
0.721435
0.667
0.583941
0.470661
0.330167
0.206311
0.106372
0.0354285
0.00333471
1.56822e-18
4.78179e-10
5.60025e-21
4.25856e-11
8.31333e-11
5.19817e-11
8.20838e-11
1.86098e-10
2.33546e-10
6.86143e-11
1
1
1
1
1
1
1
1
1
0.960906
0.871377
0.733663
0.540682
0.316761
0.149177
0.0238273
7.84409e-08
9.38516e-15
-4.06295e-08
-2.25261e-08
-2.66068e-08
-1.01869e-08
-1.32736e-09
1
1
1
1
1
1
1
1
1
1
1
1
1
0.994182
0.915776
0.781712
0.572897
0.356473
0.193975
0.0828754
0.0119115
1.66771e-13
-1.4521e-10
0.0199131
0.0376198
0.0433081
0.0091251
0.00560622
0.00548244
0.00361665
0.00226636
0.00187189
0.00117532
0.0195638
0.0805901
0.123212
0.123212
0.121775
0.0347818
0.0210589
0.018889
0.018889
0.0206402
0.0956747
0.142881
0.113853
0.0831597
0.0971594
0.0545492
0.00830796
0.00124287
0.00122894
0.00346989
0.0154912
0.0280115
0.0935188
0.122458
0.1
0.0425584
0.018889
0.018889
0.0252255
0.213807
0.581323
0.42982
0.510505
0.611903
0.32247
0.0951318
0.00789958
0.00124459
0.00128107
0.00128809
0.00247873
0.0213157
0.0217697
0.0331499
0.0643653
0.0989544
0.0207536
0.0323012
0.225125
0.710738
0.935437
0.988744
0.990942
0.792484
0.42184
0.221305
0.155413
0.0434669
0.0266994
0.0910179
0.190888
0.168297
0.214954
0.352943
0.327125
0.197953
0.0305517
0.101561
0.695611
0.999654
0.99987
0.99984
0.997858
0.97306
0.891488
0.654094
0.368559
0.297276
0.484669
0.694897
0.664673
0.655005
0.739681
0.622166
0.377502
0.00801001
0.0603789
0.66576
0.994168
0.999896
0.999673
0.998578
0.998615
0.99923
0.986544
0.877661
0.772139
0.806898
0.877081
0.874325
0.86231
0.85106
0.7446
0.433028
0.000767699
0.0137012
0.627037
0.97029
0.999902
0.999897
0.999758
0.99971
0.999846
0.999881
0.999878
0.955895
0.967026
0.911674
0.717051
0.376987
0.336108
0.437116
0.400614
0.00142924
0.00270139
0.564021
0.976981
0.999901
0.999901
0.9999
0.999899
0.999872
0.999861
0.999852
0.99982
0.999809
0.889449
0.373368
0.0223673
0.00139316
0.198062
0.220478
1
1
1
1
1
1
1
1
1
1
1
1
1
1
1
1
0.998702
0.987009
0.958104
0.912556
0.858652
0.766707
0.536981
1
1
1
1
1
1
1
1
1
1
1
1
1
1
1
1
1
1
1
1
0.999995
0.99991
0.999763
1
1
1
1
1
1
1
1
1
1
1
1
1
1
1
1
1
1
1
1
0.999999
0.999976
0.999906
1
1
0.985942
0.986744
0.987244
0.992731
0.989138
0.98453
0.987263
0.991765
0.989602
0.988395
0.9916
0.996794
0.997009
0.985984
0.986483
0.997122
0.999991
0.996406
0.956089
0.879945
0.770344
0.983339
0.807042
0.523385
0.408304
0.409984
0.48071
0.539895
0.610702
0.646261
0.670631
0.662799
0.666974
0.696796
0.737789
0.738053
0.687676
0.657409
0.681884
0.685991
0.611264
0.465713
0.301166
0.121761
0.47922
0.050567
4.21987e-09
2.6129e-12
1.43128e-13
-7.18572e-12
-6.15004e-20
3.35746e-05
0.0036819
0.0126184
0.013526
0.0211199
0.0325021
0.0378897
0.0342367
0.0238264
0.013574
0.00937303
0.0092152
0.00616423
0.000774897
2.29425e-08
1.15031e-08
0.0377499
4.12343e-07
3.09002e-06
6.24276e-06
2.31403e-06
-1.35189e-17
2.17041e-10
2.99521e-24
3.0606e-19
9.48956e-11
3.60877e-10
3.02258e-10
8.27181e-26
-1.79516e-10
-2.13179e-09
-7.1244e-09
-7.64574e-09
-9.68811e-13
3.47752e-09
1.07438e-13
1.39193e-08
1.17176e-06
6.18367e-07
9.09897e-12
6.09224e-06
3.06255e-05
2.93227e-05
9.6778e-06
1.4933e-25
2.84206e-08
2.46724e-07
3.00637e-07
1.15023e-07
9.56363e-09
4.48051e-09
7.46232e-09
8.25681e-09
6.769e-08
2.59332e-07
2.94168e-07
2.67207e-07
2.44447e-07
7.81322e-07
1.03632e-06
7.21504e-07
1.65182e-08
8.09348e-29
7.42339e-06
2.99513e-05
2.42508e-05
1.23554e-06
4.10772e-12
1.03177e-07
4.73616e-07
4.75528e-07
4.12221e-07
1.09701e-08
1.38345e-08
1.69111e-08
9.58674e-09
2.85018e-08
1.59037e-07
1.07085e-07
1.68233e-10
1.69719e-10
1.68233e-10
1.69719e-10
1.68233e-10
4.63294e-09
-1.05183e-15
3.13137e-06
7.55411e-06
1.59194e-10
1.78125e-11
2.74791e-08
7.63951e-08
1.38536e-07
3.25009e-07
3.06274e-07
2.47679e-07
2.41442e-07
4.43159e-08
4.75305e-09
5.86403e-10
4.45159e-10
4.37337e-10
5.03852e-10
7.97403e-10
4.64596e-10
1.87022e-10
1.69729e-10
1.69251e-10
-1.78334e-08
7.46752e-07
6.32705e-08
1.13897e-08
8.60491e-10
3.68458e-09
7.56395e-09
8.19759e-10
8.35591e-10
1.01453e-07
5.18027e-07
4.30998e-07
7.87493e-08
1.7516e-08
5.73775e-09
2.257e-09
4.6661e-10
1.01666e-09
7.81033e-10
5.94156e-10
4.82377e-10
3.59232e-10
3.22362e-10
-1.37366e-07
1.19281e-15
3.01233e-09
4.6492e-09
1.16959e-08
6.64335e-09
7.97861e-10
8.19244e-10
5.44068e-09
3.19642e-07
1.13678e-06
1.10778e-06
9.7521e-08
2.98242e-08
7.52788e-09
3.526e-10
5.85445e-10
2.35199e-09
1.20965e-09
6.28172e-10
5.87976e-10
5.01227e-10
4.68442e-10
-1.07945e-07
-9.59687e-09
4.24858e-09
1.9697e-08
1.85961e-08
5.04145e-09
7.83514e-10
1.43315e-09
4.32399e-09
8.92844e-07
2.52756e-06
2.52087e-06
9.80243e-07
2.93737e-07
1.89811e-07
2.13295e-07
2.07983e-07
4.42271e-08
8.67722e-10
6.14895e-10
8.19636e-10
4.6284e-10
4.65562e-10
3.72195e-08
4.27476e-08
1.65793e-08
2.14372e-08
1.8198e-08
3.46173e-09
8.34655e-10
1.04613e-09
2.01873e-10
8.67016e-07
2.37997e-06
2.52779e-06
1.87067e-06
6.88478e-07
5.33618e-07
8.63204e-07
8.78588e-07
1.49688e-07
9.27624e-10
1.11361e-09
1.93528e-09
1.5669e-09
8.27254e-10
4.46209e-08
1.38968e-08
1.26095e-08
1.64615e-08
6.76174e-09
3.43538e-09
1.35753e-09
3.95815e-10
1.92365e-10
8.763e-08
1.33615e-06
2.5354e-06
2.63786e-06
1.3395e-06
1.22358e-06
2.41779e-06
1.94342e-06
6.43692e-07
1.21508e-08
1.21614e-08
3.13138e-08
2.81593e-08
1.47269e-08
1.84463e-08
1.17704e-08
6.37525e-09
4.65736e-09
3.82352e-09
3.80223e-09
1.92915e-09
4.69232e-10
2.25369e-10
2.04661e-10
1.99219e-10
9.99948e-07
2.70948e-06
2.83008e-06
3.07291e-06
3.04374e-06
3.07291e-06
1.05002e-06
5.80758e-08
2.49356e-08
4.58432e-08
4.47059e-08
2.49194e-08
2.10648e-08
1.57515e-08
3.37561e-09
2.9113e-09
3.26395e-09
3.38984e-09
2.25275e-09
1.07811e-09
4.03467e-10
1.99223e-10
2.01454e-10
1.99957e-10
9.18011e-07
2.00543e-06
2.31236e-06
2.96264e-06
2.68937e-06
6.01485e-07
8.71623e-08
2.2069e-08
4.3937e-08
4.13347e-08
2.80377e-08
2.07932e-08
1.3538e-08
3.67485e-09
2.90139e-09
3.08008e-09
2.75054e-09
2.40467e-09
1.66648e-09
6.99194e-10
3.16182e-10
2.21237e-10
2.05081e-10
9.69127e-10
3.05476e-07
2.99884e-08
3.20769e-07
1.9252e-07
1.09214e-07
5.62543e-08
2.50619e-08
3.08496e-08
3.11145e-08
2.42313e-08
1.81138e-08
1.35577e-08
4.40106e-09
2.82851e-09
2.81787e-09
2.57442e-09
2.35168e-09
1.9743e-09
1.22104e-09
5.30321e-10
3.05469e-10
2.19434e-10
1.20239e-08
4.04522e-08
2.13517e-08
1.30305e-09
2.06614e-09
3.10341e-08
6.56142e-08
3.52838e-08
8.53665e-09
1.20471e-08
1.27541e-08
1.55153e-08
1.22621e-08
5.65083e-09
2.79086e-09
2.46635e-09
2.27385e-09
2.1894e-09
2.02141e-09
1.58345e-09
8.56543e-10
3.9752e-10
2.54925e-10
1.41403e-10
1.35964e-10
1.27454e-09
1.05583e-09
5.17897e-09
1.81028e-08
1.93607e-08
1.48609e-08
5.9292e-09
1.86036e-09
2.65666e-09
1.21123e-08
1.01405e-08
5.84077e-09
2.90017e-09
2.24656e-09
1.98165e-09
1.86083e-09
1.82278e-09
1.68123e-09
1.05559e-09
5.8084e-10
3.43282e-10
2.02406e-10
1.31291e-10
1.2608e-10
1.75881e-10
2.89721e-10
8.12383e-10
3.05807e-09
2.97414e-09
1.44651e-09
6.9071e-10
5.56119e-10
1.07169e-08
7.96853e-09
5.22178e-09
2.72245e-09
2.06724e-09
1.59837e-09
1.45478e-09
1.38774e-09
1.34224e-09
1.20318e-09
7.56733e-10
4.13032e-10
2.45753e-10
1.55039e-10
1.24431e-10
1.3565e-10
1.88602e-10
2.43423e-10
3.78951e-10
5.36273e-10
4.85536e-10
2.77931e-10
1.69092e-10
8.69001e-09
5.93841e-09
4.21855e-09
2.25503e-09
1.70557e-09
1.26715e-09
1.0788e-09
9.82002e-10
9.49368e-10
8.96953e-10
7.86117e-10
4.80652e-10
2.736e-10
1.4367e-10
9.34445e-11
7.27741e-11
6.86352e-11
8.40121e-11
9.62372e-11
1.12794e-10
1.09442e-10
1.01502e-10
7.83015e-11
6.78236e-09
4.18494e-09
3.01527e-09
1.63906e-09
1.21798e-09
9.25028e-10
7.40306e-10
6.43597e-10
6.03947e-10
5.8451e-10
5.50882e-10
4.35277e-10
2.82759e-10
1.58329e-10
7.91421e-11
4.9982e-11
3.87059e-11
3.52236e-11
3.7544e-11
4.17261e-11
4.40295e-11
4.38348e-11
4.12871e-11
4.7101e-09
2.8658e-09
1.96629e-09
1.11782e-09
7.50167e-10
5.63155e-10
4.63861e-10
3.90161e-10
3.4916e-10
3.33447e-10
3.17116e-10
2.86599e-10
2.17643e-10
1.43511e-10
7.57862e-11
3.77355e-11
2.31383e-11
1.8326e-11
1.70001e-11
1.80136e-11
1.89613e-11
2.04092e-11
2.04324e-11
2.88334e-09
1.73564e-09
1.13409e-09
6.65438e-10
4.25036e-10
2.98711e-10
2.42251e-10
2.05936e-10
1.79955e-10
1.68804e-10
1.61045e-10
1.45641e-10
1.26691e-10
9.35235e-11
5.69352e-11
2.94751e-11
1.40018e-11
9.79299e-12
8.05278e-12
7.90984e-12
8.58127e-12
9.07201e-12
9.15509e-12
1.49072e-09
9.26663e-10
5.84693e-10
3.45604e-10
2.13077e-10
1.42079e-10
1.12171e-10
9.45627e-11
8.203e-11
7.40888e-11
7.03677e-11
6.46423e-11
5.69189e-11
4.62223e-11
3.16873e-11
1.72996e-11
7.43476e-12
4.88551e-12
3.61591e-12
3.43263e-12
3.48495e-12
3.73532e-12
3.84227e-12
6.19177e-10
4.05216e-10
2.47349e-10
1.4541e-10
8.98914e-11
5.67102e-11
4.32066e-11
3.61359e-11
3.16961e-11
2.85096e-11
2.63013e-11
2.40688e-11
2.14805e-11
1.82754e-11
1.30589e-11
7.81787e-12
3.3046e-12
2.01737e-12
1.50709e-12
1.38021e-12
1.41845e-12
1.41095e-12
1.43572e-12
2.09298e-10
1.45373e-10
8.69911e-11
5.06483e-11
3.09382e-11
1.91424e-11
1.39129e-11
1.12735e-11
1.01873e-11
9.28331e-12
8.5549e-12
7.79374e-12
6.92276e-12
5.90414e-12
4.31382e-12
2.70931e-12
1.17326e-12
6.97172e-13
5.28404e-13
4.94194e-13
4.86141e-13
4.95161e-13
4.71506e-13
5.41091e-11
4.0984e-11
2.53955e-11
1.42692e-11
8.32902e-12
5.20714e-12
3.70134e-12
2.96256e-12
2.68239e-12
2.46902e-12
2.30134e-12
2.07848e-12
1.84733e-12
1.58177e-12
1.15004e-12
7.28722e-13
3.6364e-13
1.88681e-13
1.60865e-13
1.57231e-13
1.59984e-13
1.50905e-13
1.3652e-13
8.62303e-12
8.49858e-12
5.4545e-12
3.08744e-12
1.83788e-12
1.17936e-12
8.09493e-13
6.50087e-13
5.85685e-13
5.44936e-13
5.10526e-13
4.60554e-13
4.17286e-13
3.47387e-13
2.51446e-13
1.57611e-13
8.35449e-14
4.7415e-14
4.39546e-14
4.37675e-14
4.42016e-14
3.97243e-14
3.26935e-14
1.39034e-12
1.47107e-12
1.00391e-12
5.85398e-13
3.3298e-13
2.12349e-13
1.44992e-13
1.19147e-13
1.02348e-13
9.71834e-14
9.13125e-14
8.52313e-14
7.76259e-14
6.32173e-14
4.46165e-14
2.67039e-14
1.49333e-14
1.07124e-14
1.05423e-14
1.07837e-14
1.05857e-14
8.601e-15
6.74032e-15
1.8158e-13
2.10795e-13
1.49684e-13
8.99776e-14
5.34871e-14
3.3793e-14
2.21179e-14
1.52921e-14
1.39183e-14
1.31925e-14
1.29561e-14
1.26046e-14
1.15724e-14
9.25432e-15
6.34193e-15
3.89119e-15
2.50893e-15
2.19739e-15
2.25651e-15
2.22638e-15
2.03156e-15
1.57273e-15
1.0567e-15
2.46835e-14
2.7244e-14
2.0198e-14
1.23925e-14
7.15969e-15
4.32055e-15
2.81912e-15
1.87083e-15
1.56337e-15
1.62262e-15
1.65568e-15
1.61249e-15
1.41148e-15
1.09215e-15
7.59207e-16
5.01991e-16
4.02688e-16
4.05572e-16
4.15356e-16
4.00976e-16
3.35247e-16
2.24698e-16
1.37721e-16
3.13114e-15
3.3828e-15
2.46114e-15
1.49216e-15
8.42434e-16
4.722e-16
3.00325e-16
1.99391e-16
1.59514e-16
1.71152e-16
1.79101e-16
1.73504e-16
1.51102e-16
1.16941e-16
8.29758e-17
6.6839e-17
6.76774e-17
6.96811e-17
6.84619e-17
5.95787e-17
4.33858e-17
2.73209e-17
1.52631e-17
3.553e-16
3.68471e-16
2.57973e-16
1.54003e-16
8.48332e-17
4.81058e-17
2.97367e-17
1.95304e-17
1.51422e-17
1.61014e-17
1.66721e-17
1.62011e-17
1.4235e-17
1.12115e-17
9.082e-18
9.217e-18
9.85821e-18
9.9994e-18
9.08298e-18
7.1167e-18
4.79622e-18
2.62772e-18
1.49542e-18
3.67798e-17
3.50483e-17
2.34711e-17
1.37304e-17
7.64189e-18
4.31245e-18
2.562e-18
1.64221e-18
1.21551e-18
1.28137e-18
1.34689e-18
1.32485e-18
1.19317e-18
1.03484e-18
1.06049e-18
1.17754e-18
1.27162e-18
1.23312e-18
1.02604e-18
7.19175e-19
4.20718e-19
2.29071e-19
6.06307e-20
3.42599e-18
3.00942e-18
1.93835e-18
1.11464e-18
6.14858e-19
3.40766e-19
1.96513e-19
1.21458e-19
8.56305e-20
8.79881e-20
9.47354e-20
9.64214e-20
9.50952e-20
1.00533e-19
1.17549e-19
1.36869e-19
1.44315e-19
1.31572e-19
9.93831e-20
6.26883e-20
3.52296e-20
8.64054e-21
8.70662e-22
2.81233e-19
2.34429e-19
1.46762e-19
8.29301e-20
4.48653e-20
2.43686e-20
1.35823e-20
7.83618e-21
5.22112e-21
5.1958e-21
5.80995e-21
6.57939e-21
7.53667e-21
9.47686e-21
1.21695e-20
1.43396e-20
1.46659e-20
1.25249e-20
8.61158e-21
5.24901e-21
1.45629e-21
1.79602e-22
1.58335e-23
2.1091e-20
1.65496e-20
1.00515e-20
5.55657e-21
2.96529e-21
1.57501e-21
8.43299e-22
4.65202e-22
2.9838e-22
2.96421e-22
3.57506e-22
4.61413e-22
6.44896e-22
9.27861e-22
1.22247e-21
1.41336e-21
1.40254e-21
1.14434e-21
6.63578e-22
2.46327e-22
4.5222e-23
5.57177e-24
3.56307e-25
1.3881e-21
1.03502e-21
6.10219e-22
3.31563e-22
1.74594e-22
8.95405e-23
4.58011e-23
2.36453e-23
1.45457e-23
1.54334e-23
2.18842e-23
3.47561e-23
5.71464e-23
8.75326e-23
1.14977e-22
1.26036e-22
1.19439e-22
8.73241e-23
4.24052e-23
1.22173e-23
1.69881e-24
7.01297e-26
7.25184e-28
6.23227e-23
4.94904e-23
2.87164e-23
1.52987e-23
7.8752e-24
4.03502e-24
2.03457e-24
9.952e-25
6.14565e-25
7.86295e-25
1.38011e-24
2.62349e-24
4.78059e-24
7.47429e-24
9.92555e-24
1.01595e-23
9.09033e-24
6.03037e-24
2.58099e-24
6.17755e-25
5.73325e-26
1.40134e-27
5.08639e-29
0.769029
0.966044
0.957752
0.748215
0.994383
0.995904
0.909658
0.742577
0.964006
0.767167
0.749621
0.687295
0.766601
0.457578
0.0151534
0.000284466
0.0139563
8.86399e-10
1.12104e-15
-9.77606e-16
1.48723e-09
2.81196e-08
3.61233e-08
1.13499e-08
1.27117e-09
1.38834e-09
2.04914e-09
4.80258e-09
1.53365e-09
1.618e-09
1.98818e-09
1.69103e-09
5.87372e-09
4.58638e-09
1.12249e-09
7.64416e-10
1.79971e-10
1.78911e-10
1.81136e-10
1.70897e-10
2.98948e-10
2.90907e-10
2.87619e-10
2.92629e-10
4.63874e-10
4.58458e-10
4.32632e-10
3.93986e-10
4.94307e-10
5.15975e-10
4.53057e-10
3.88626e-10
1.87254e-09
1.80424e-09
1.24859e-09
9.80226e-10
9.54113e-09
7.0151e-09
4.55196e-09
3.73585e-09
1.57195e-08
1.15199e-08
9.19429e-09
8.61472e-09
1.59038e-08
1.15913e-08
1.14504e-08
9.88386e-09
1.78327e-08
1.52567e-08
1.13418e-08
1.11373e-08
1.20525e-08
1.04962e-08
1.01834e-08
9.24392e-09
4.40288e-09
4.48831e-09
4.57468e-09
4.52424e-09
4.76481e-10
7.00879e-10
1.14062e-09
1.43969e-09
1.67271e-10
1.70012e-10
2.28597e-10
3.10723e-10
7.5282e-11
7.53871e-11
7.54972e-11
7.62094e-11
3.84134e-11
3.70691e-11
3.77762e-11
3.76933e-11
1.94651e-11
1.85598e-11
1.80131e-11
1.77357e-11
8.6885e-12
8.12437e-12
7.96858e-12
7.64037e-12
3.72243e-12
3.51452e-12
3.32371e-12
3.08283e-12
1.36649e-12
1.23961e-12
1.20381e-12
1.08951e-12
4.48141e-13
4.03653e-13
3.81617e-13
3.36073e-13
1.25877e-13
1.09345e-13
9.93786e-14
8.50184e-14
2.83215e-14
2.33503e-14
2.04717e-14
1.70993e-14
5.63626e-15
4.3671e-15
3.53511e-15
2.71913e-15
8.21213e-16
6.16916e-16
4.50594e-16
3.25501e-16
1.00569e-16
6.97892e-17
4.9142e-17
3.619e-17
1.07523e-17
7.68694e-18
3.32122e-18
5.20278e-19
5.47728e-19
1.15598e-19
1.17716e-20
2.75668e-22
1.26717e-21
3.81432e-24
8.7411e-27
2.02393e-26
1.75655e-28
3.95529e-28
1.55549e-27
5.44488e-27
1.72941e-28
4.88512e-28
1.86054e-27
6.19729e-27
1.71113e-28
5.58478e-28
2.03352e-27
6.50651e-27
1.68378e-28
5.30279e-28
1.82799e-27
5.5574e-27
1.08829e-28
3.53395e-28
1.10262e-27
2.8807e-27
0.133756
2.15646e-05
0.374985
0.963348
0.999468
0.999884
0.998583
0.978177
0.889328
0.799703
0.775335
0.745962
0.654255
0.419876
0.0992485
9.99544e-19
2.37066e-21
0.00858249
0.0945329
0.285522
2.55373e-06
0.0693858
0.723462
0.934445
0.950889
0.926206
0.466197
0.09518
0.0597934
0.0477118
0.0319225
0.0119633
0.000315235
1.07969e-06
1.99761e-09
-8.64861e-11
5.50768e-05
0.0444906
0.0193037
8.70405e-06
6.47725e-06
0.177854
0.737691
0.737267
0.27936
0.000876638
1.38046e-05
7.30305e-07
3.22947e-08
-8.22379e-21
-8.70058e-21
-2.39138e-21
-5.40917e-11
3.72204e-10
3.3329e-27
8.57142e-06
0.0175719
8.11654e-09
5.00811e-05
3.07315e-05
-4.39867e-06
0.0297794
0.0642279
0.0377781
0.000927585
3.94709e-07
1.67694e-09
1.51134e-09
5.95474e-10
3.99754e-10
5.92139e-09
2.72252e-09
1.66259e-17
6.06701e-27
5.93458e-06
0.00595546
3.1797e-05
0.000279426
0.000285774
5.94876e-05
6.14264e-10
2.88257e-10
5.07269e-10
9.04021e-09
5.00451e-09
5.88452e-09
4.90769e-09
1.68514e-09
8.18522e-09
1.93092e-08
8.19969e-09
2.85486e-17
0
0.00052475
0.0138822
-6.28004e-10
9.01179e-05
0.000127426
8.22447e-05
5.23936e-05
3.20769e-05
7.23207e-06
4.43861e-07
1.65967e-09
1.42652e-09
1.98482e-09
2.42647e-09
8.22766e-09
1.51513e-08
8.10827e-08
9.7553e-08
-5.7436e-09
0.00422979
0.0204024
1.31494e-09
5.40023e-11
5.54098e-11
5.10158e-11
4.77816e-11
4.85938e-11
4.91282e-11
6.82577e-10
1.64393e-09
1.3541e-09
5.29766e-10
3.90695e-10
3.66992e-09
4.97283e-09
3.63333e-08
5.19636e-10
3.78139e-25
0.00396635
0.0202825
1.70469e-10
1.00745e-08
2.9634e-08
3.21868e-08
1.48692e-08
3.72439e-10
4.81185e-11
4.77817e-11
7.60517e-11
1.07469e-10
7.34049e-11
7.40691e-11
7.60998e-11
8.16783e-11
3.71727e-10
2.02393e-06
4.78537e-06
0.000327648
0.0208872
4.16388e-10
1.15526e-10
9.15708e-11
4.02135e-10
3.77634e-10
1.34481e-10
7.92298e-11
5.99969e-11
4.7822e-11
4.04114e-11
2.84378e-11
2.05457e-11
2.25094e-09
6.82006e-07
1.96984e-06
5.61756e-06
8.03675e-06
3.17432e-09
0.00411429
1.55585e-10
1.33869e-10
9.77581e-11
9.14141e-11
1.03116e-10
1.06063e-10
9.33185e-11
7.7268e-11
4.5191e-11
2.39178e-11
2.01437e-11
1.78445e-11
9.41583e-10
2.40224e-06
3.27676e-06
2.66915e-06
2.89782e-06
9.99624e-09
-4.79793e-09
2.85424e-10
2.57617e-10
2.2658e-10
1.96858e-10
1.56091e-10
1.26686e-10
7.80758e-11
3.80085e-11
3.04294e-11
1.49655e-11
2.18767e-10
5.73532e-08
8.45228e-07
2.02453e-06
1.87892e-06
4.02248e-08
3.29013e-09
5.52087e-09
4.35669e-08
3.34176e-10
2.86779e-10
2.4293e-10
1.84959e-10
1.21517e-10
7.19621e-11
3.70791e-11
2.43314e-11
2.22025e-11
1.50957e-11
5.06139e-09
2.30779e-07
8.36846e-07
3.59996e-07
7.6566e-08
5.16922e-11
1.97415e-10
1.74114e-09
4.48106e-08
3.20094e-10
2.66621e-10
2.18299e-10
1.41803e-10
8.59342e-11
4.21408e-11
2.62268e-11
2.29351e-11
2.24243e-11
3.29634e-09
4.41122e-08
1.20982e-07
7.02533e-08
1.02488e-12
1.08774e-12
6.99207e-11
2.67213e-10
3.33548e-11
1.33362e-13
9.27103e-10
4.43739e-10
2.15195e-10
1.23459e-10
6.59531e-11
3.56758e-11
2.71036e-11
2.92716e-11
5.16242e-10
7.09923e-09
2.10882e-08
6.98191e-09
1.02485e-12
1.09183e-12
2.2072e-12
2.14437e-11
9.06468e-11
1.71008e-12
1.16214e-13
3.36462e-09
1.11335e-09
2.99077e-10
1.38343e-10
6.52987e-11
3.64277e-11
2.93564e-11
4.55547e-11
2.86423e-10
1.60291e-09
3.07193e-09
3.21449e-09
1.08717e-12
1.61666e-12
1.6738e-12
1.8959e-12
4.69691e-12
-1.34079e-14
1.36165e-13
6.73752e-09
3.07419e-09
8.2758e-10
2.55592e-10
8.40321e-11
4.60075e-11
3.09399e-11
3.40969e-11
7.30653e-11
2.23711e-10
3.53311e-10
1.30902e-09
3.34437e-12
2.77729e-12
1.77581e-12
1.08679e-12
1.08223e-12
1.61663e-13
1.2971e-13
8.1334e-09
4.68444e-09
2.3968e-09
7.36095e-10
1.94888e-10
6.00887e-11
3.33928e-11
2.67465e-11
3.07565e-11
4.54531e-11
8.62672e-11
1.61772e-10
4.61563e-12
3.64664e-12
1.73758e-12
9.9393e-13
5.4294e-13
2.40186e-13
1.07295e-13
9.28162e-09
5.80192e-09
3.96083e-09
2.35683e-09
7.63019e-10
1.96037e-10
7.59303e-11
3.75493e-11
2.51258e-11
2.13133e-11
1.8837e-11
2.964e-11
4.93616e-12
3.30442e-12
1.66622e-12
9.12097e-13
4.75443e-13
2.05794e-13
8.582e-14
8.20828e-09
5.88345e-09
4.32079e-09
2.66615e-09
1.83619e-09
9.47626e-10
3.70082e-10
1.24376e-10
4.32843e-11
2.04226e-11
1.28805e-11
8.39661e-12
4.73488e-12
2.953e-12
1.51993e-12
7.53863e-13
3.49912e-13
1.60503e-13
6.58163e-14
4.50832e-09
4.10298e-09
3.38885e-09
2.51869e-09
1.83637e-09
1.23796e-09
7.74719e-10
4.09151e-10
1.39294e-10
3.76329e-11
1.35588e-11
7.10701e-12
4.06654e-12
2.40796e-12
1.18166e-12
5.14644e-13
2.26667e-13
1.15637e-13
5.3105e-14
1.74785e-09
1.96494e-09
1.9526e-09
1.76684e-09
1.39926e-09
9.98239e-10
7.25859e-10
4.64264e-10
2.50056e-10
8.1416e-11
2.24685e-11
7.29423e-12
3.08448e-12
1.59767e-12
7.2569e-13
2.34445e-13
8.00513e-14
6.67838e-14
3.19091e-14
4.91263e-10
7.16073e-10
8.26128e-10
8.33848e-10
7.60959e-10
6.38782e-10
4.71395e-10
3.4503e-10
2.28416e-10
9.2301e-11
3.10466e-11
8.76583e-12
2.20888e-12
8.00641e-13
2.88029e-13
5.08915e-14
2.86815e-14
2.70762e-14
1.63013e-14
1.0354e-10
1.704e-10
2.51547e-10
2.94845e-10
3.03649e-10
2.80197e-10
2.35766e-10
1.83177e-10
1.37757e-10
6.79269e-11
2.63808e-11
7.27397e-12
1.38748e-12
2.82385e-13
6.88048e-14
1.45646e-14
1.49444e-14
1.33676e-14
8.82362e-15
3.86998e-11
4.51905e-11
6.44863e-11
8.42134e-11
9.44075e-11
9.26396e-11
8.59427e-11
7.36011e-11
6.16696e-11
3.50026e-11
1.47337e-11
3.85296e-12
5.70314e-13
5.05009e-14
6.27397e-15
6.75074e-15
8.03183e-15
7.41456e-15
4.82378e-15
1.76496e-11
1.76284e-11
1.93681e-11
2.25297e-11
2.53165e-11
2.65048e-11
2.4479e-11
2.37338e-11
1.84124e-11
1.18483e-11
4.86231e-12
1.06872e-12
5.45462e-14
2.93384e-15
2.22017e-15
3.09516e-15
4.13352e-15
4.10802e-15
2.46417e-15
7.41798e-12
7.01295e-12
6.70677e-12
6.6592e-12
6.82162e-12
6.90373e-12
6.82199e-12
6.00417e-12
4.53176e-12
2.45567e-12
8.26975e-13
5.47989e-14
3.06944e-15
6.41128e-16
8.55433e-16
1.36423e-15
2.06719e-15
2.22754e-15
1.21836e-15
2.87762e-12
2.48849e-12
2.14928e-12
1.92353e-12
1.81643e-12
1.76075e-12
1.6952e-12
1.43885e-12
9.26737e-13
3.29765e-13
2.43454e-14
2.534e-15
3.41277e-16
1.84243e-16
3.04876e-16
5.89307e-16
1.01861e-15
1.15694e-15
6.22159e-16
9.65702e-13
7.99553e-13
6.35359e-13
5.15318e-13
4.53716e-13
4.16079e-13
3.44068e-13
2.38725e-13
1.00238e-13
5.97183e-15
1.19497e-15
2.59267e-16
4.33935e-17
4.95487e-17
1.09995e-16
2.58262e-16
4.86039e-16
5.34247e-16
3.09669e-16
2.72997e-13
2.06925e-13
1.44221e-13
1.08884e-13
9.22723e-14
6.80734e-14
4.37645e-14
1.59539e-14
1.22514e-15
2.90412e-16
1.06285e-16
2.09415e-17
6.15403e-18
1.32482e-17
4.11653e-17
1.09365e-16
2.25812e-16
2.78564e-16
1.35463e-16
6.1141e-14
4.25335e-14
2.79131e-14
2.0666e-14
1.126e-14
5.72768e-15
1.33786e-15
8.82119e-17
1.62286e-17
5.68086e-18
2.23724e-18
5.19908e-19
9.0149e-19
3.87799e-18
1.57227e-17
4.44139e-17
1.03785e-16
1.58059e-16
8.53224e-17
1.13463e-14
6.82717e-15
4.83086e-15
1.9705e-15
5.65615e-16
5.66726e-17
3.5798e-18
2.34357e-19
5.40141e-20
1.73826e-20
1.73509e-20
4.20329e-20
2.39335e-19
1.32849e-18
5.89117e-18
1.74555e-17
4.58453e-17
8.05705e-17
3.74798e-17
1.55413e-15
9.9464e-16
3.58663e-16
5.95469e-17
6.60105e-18
6.76761e-19
4.65231e-20
2.71062e-21
2.84075e-21
5.33749e-21
1.16605e-20
2.68896e-20
1.02718e-19
5.2975e-19
2.32149e-18
7.19865e-18
2.67609e-17
3.32268e-17
1.92092e-17
1.97568e-16
5.63593e-17
6.73718e-18
6.81871e-19
1.09075e-19
1.32928e-20
1.2604e-21
1.26549e-21
2.41623e-21
5.41447e-21
1.19552e-20
2.45239e-20
5.92644e-20
2.44335e-19
1.00336e-18
5.0267e-18
1.29951e-17
1.59137e-17
6.35833e-18
1.06343e-17
7.07418e-19
5.69663e-20
1.15038e-20
2.49681e-21
3.94885e-22
4.6495e-22
9.81006e-22
2.38424e-21
5.62436e-21
1.23079e-20
2.40557e-20
4.41349e-20
1.3571e-19
7.30414e-19
3.01521e-18
6.11815e-18
5.06298e-18
2.497e-18
4.38544e-20
3.41581e-21
8.93836e-22
1.51606e-22
1.17776e-22
1.44445e-22
3.50085e-22
9.11639e-22
2.28256e-21
5.3554e-21
1.1851e-20
2.30645e-20
3.80901e-20
1.16312e-19
5.45714e-19
1.66881e-18
2.21347e-18
1.95665e-18
5.37075e-19
1.82884e-23
1.46675e-23
1.24067e-23
1.64225e-23
4.03325e-23
1.12377e-22
3.12987e-22
8.2663e-22
2.07386e-21
4.87278e-21
1.06315e-20
2.05709e-20
3.41659e-20
9.19329e-20
3.30343e-19
8.40515e-19
9.57237e-19
4.94421e-19
1.62854e-19
1.57983e-25
7.14717e-25
2.69523e-24
9.64809e-24
3.09596e-23
9.22413e-23
2.56836e-22
6.7495e-22
1.67633e-21
3.92059e-21
8.43578e-21
1.60483e-20
2.66091e-20
6.04836e-20
1.73856e-19
3.64898e-19
3.33984e-19
1.56939e-19
2.62941e-20
9.99106e-26
5.19339e-25
2.07563e-24
7.32098e-24
2.32589e-23
6.87458e-23
1.88838e-22
4.85712e-22
1.1802e-21
2.71529e-21
5.7124e-21
1.06401e-20
1.74056e-20
3.53811e-20
7.8902e-20
1.32394e-19
9.22446e-20
2.82671e-20
7.44948e-21
7.82983e-26
3.66184e-25
1.42542e-24
4.77923e-24
1.51318e-23
4.35535e-23
1.17286e-22
2.95111e-22
7.00626e-22
1.57936e-21
3.25268e-21
5.92468e-21
9.46453e-21
1.76404e-20
3.0306e-20
4.06184e-20
2.25572e-20
7.38246e-21
1.45639e-21
5.38591e-26
2.19946e-25
7.87704e-25
2.51677e-24
7.38098e-24
2.05055e-23
5.44971e-23
1.37108e-22
3.23252e-22
7.20331e-22
1.47055e-21
2.66482e-21
4.15978e-21
7.1403e-21
9.73117e-21
1.08985e-20
5.03518e-21
1.16007e-21
6.37966e-22
2.79983e-26
9.98807e-26
3.26644e-25
9.8577e-25
2.83572e-24
7.76525e-24
2.00952e-23
5.08073e-23
1.1989e-22
2.6497e-22
5.35503e-22
9.69312e-22
1.49209e-21
2.36613e-21
2.71462e-21
2.66285e-21
6.69134e-22
4.02353e-22
2.87564e-22
8.1203e-27
2.49287e-26
7.43578e-26
2.10338e-25
6.20356e-25
1.78031e-24
4.7104e-24
1.22488e-23
3.08967e-23
7.12433e-23
1.48723e-22
2.76329e-22
4.31134e-22
6.45742e-22
6.6885e-22
6.07401e-22
1.91784e-22
1.346e-22
1.14423e-22
)
;

boundaryField
{
    leftWall
    {
        type            alphaContactAngle;
        contactAngleProperties 
        {
            mercury         
            {
                theta0          90;
            }
            air             
            {
                theta0          90;
            }
            oil             
            {
                theta0          90;
            }
        }
        value           nonuniform List<scalar> 
50
(
2.57274e-11
7.1437e-11
7.44183e-10
3.17164e-10
0.071677
0.821583
1
1
1
1
1
1
0.983339
0.47922
0.0377499
9.09897e-12
8.09348e-29
-1.05183e-15
-1.78334e-08
-1.37366e-07
-1.07945e-07
3.72195e-08
4.46209e-08
1.84463e-08
2.10648e-08
2.07932e-08
1.81138e-08
1.55153e-08
1.21123e-08
1.07169e-08
8.69001e-09
6.78236e-09
4.7101e-09
2.88334e-09
1.49072e-09
6.19177e-10
2.09298e-10
5.41091e-11
8.62303e-12
1.39034e-12
1.8158e-13
2.46835e-14
3.13114e-15
3.553e-16
3.67798e-17
3.42599e-18
2.81233e-19
2.1091e-20
1.3881e-21
6.23227e-23
)
;
    }
    rightWall
    {
        type            alphaContactAngle;
        contactAngleProperties 
        {
            mercury         
            {
                theta0          90;
            }
            air             
            {
                theta0          90;
            }
            oil             
            {
                theta0          90;
            }
        }
        value           nonuniform List<scalar> 
50
(
0.018889
0.018889
0.0207536
0.197953
0.377502
0.433028
0.400614
0.220478
0.0945329
0.0444906
0.0175719
0.00595546
0.0138822
0.0204024
0.0202825
0.0208872
0.00411429
-4.79793e-09
4.35669e-08
4.48106e-08
1.33362e-13
1.16214e-13
1.36165e-13
1.2971e-13
1.07295e-13
8.582e-14
6.58163e-14
5.3105e-14
3.19091e-14
1.63013e-14
8.82362e-15
4.82378e-15
2.46417e-15
1.21836e-15
6.22159e-16
3.09669e-16
1.35463e-16
8.53224e-17
3.74798e-17
1.92092e-17
6.35833e-18
2.497e-18
5.37075e-19
1.62854e-19
2.62941e-20
7.44948e-21
1.45639e-21
6.37966e-22
2.87564e-22
1.14423e-22
)
;
    }
    lowerWall
    {
        type            alphaContactAngle;
        contactAngleProperties 
        {
            mercury         
            {
                theta0          90;
            }
            air             
            {
                theta0          90;
            }
            oil             
            {
                theta0          90;
            }
        }
        value           nonuniform List<scalar> 
62
(
2.57274e-11
5.10185e-11
8.2506e-11
9.02054e-11
9.22445e-11
9.65303e-11
1.00219e-10
1.03258e-10
1.05666e-10
1.07135e-10
1.08482e-10
1.11682e-10
1.16087e-10
1.24715e-10
1.42049e-10
1.7555e-10
2.33025e-10
3.09435e-10
4.71417e-10
8.2982e-10
1.58589e-09
2.34676e-09
2.58256e-09
2.58256e-09
2.91928e-09
3.04209e-09
2.19283e-09
6.72098e-10
6.86143e-11
-1.32736e-09
-1.4521e-10
0.769029
0.966044
0.957752
0.748215
0.0199131
0.0206402
0.0252255
0.0323012
0.0305517
0.00801001
0.000767699
0.00142924
0.0199131
0.0376198
0.0433081
0.0091251
0.00560622
0.00548244
0.00361665
0.00226636
0.00187189
0.00117532
0.0195638
0.0805901
0.123212
0.123212
0.121775
0.0347818
0.0210589
0.018889
0.018889
)
;
    }
    atmosphere
    {
        type            inletOutlet;
        inletValue      uniform 0;
        value           nonuniform List<scalar> 
46
(
0
0
0
0
0
0
0
0
0
0
0
0
0
0
0
0
0
0
0
0
0
0
0
0
0
0
0
0
0
0
0
6.20356e-25
1.78031e-24
4.7104e-24
1.22488e-23
3.08967e-23
7.12433e-23
1.48723e-22
2.76329e-22
4.31134e-22
6.45742e-22
6.6885e-22
6.07401e-22
1.91784e-22
1.346e-22
1.14423e-22
)
;
    }
    defaultFaces
    {
        type            empty;
    }
}


// ************************************************************************* //
