/*--------------------------------*- C++ -*----------------------------------*\
  =========                 |
  \\      /  F ield         | OpenFOAM: The Open Source CFD Toolbox
   \\    /   O peration     | Website:  https://openfoam.org
    \\  /    A nd           | Version:  13
     \\/     M anipulation  |
\*---------------------------------------------------------------------------*/
FoamFile
{
    format      ascii;
    class       volScalarField;
    location    "1.45";
    object      alphas;
}
// * * * * * * * * * * * * * * * * * * * * * * * * * * * * * * * * * * * * * //

dimensions      [];

internalField   nonuniform List<scalar> 
2268
(
2
2
2
2
2
2
2
2
2
2
2
2
2
2
2
2
2
2
2
2
2
1.99959
1.99943
2
2
2
2
2
2
2
2
2
2
2
2
2
2
2
2
2
2
2
2
2
1.9999
1.99943
2
2
2
2
2
2
2
2
2
2
2
2
2
2
2
2
2
2
2
2
2
2
1.99965
2
2
2
2
2
2
2
2
2
2
2
2
2
2
2
2
2
2
2
2
2
2
1.99998
1.85665
1.86968
1.88273
1.89876
1.92355
1.95527
1.98378
1.99881
2
2
2
2
2
2
2
2
2
2
2
2
2
2
2
0.356833
0.419267
0.457059
0.494436
0.55713
0.666
0.832118
1.05868
1.33967
1.58738
1.78726
1.92914
1.99333
2
2
2
2
2
2
2
2
2
2
3.55788e-09
2.83414e-09
1.95518e-09
1.81401e-09
1.85925e-09
2.19156e-09
2.31897e-09
2.07943e-09
1.8934e-09
0.0781887
0.257247
0.532673
0.918637
1.36648
1.70165
1.95235
2
2
2
2
2
2
2
1.02158e-08
8.393e-09
6.84721e-09
6.19637e-09
6.22883e-09
6.95879e-09
6.82512e-09
5.7668e-09
4.37941e-09
3.39457e-09
2.37357e-09
1.62441e-09
1.1706e-09
0.011635
0.168447
0.436576
0.854206
1.28705
1.61204
1.83425
1.97624
2.00007
1.99964
1.87029
1.9485
1.93665
1.75449
1.69724
1.68863
1.67073
1.6896
1.69141
1.70674
1.97472
1.97904
1.81888
1.6911
1.59568
1.68376
1.70286
1.71501
1.70855
1.85981
1.7853
1.71299
1.76256
1.80049
1.79317
1.97416
2.13983
2.13093
2.02134
1.91712
2.1906
2.19947
1.95782
1.68319
1.62953
1.74829
1.78151
1.58101
1.83525
1.2249
0.813598
1.14006
0.979012
0.824656
1.76526
2.27391
2.37536
2.24668
2.10447
2.1206
2.26304
2.23384
2.26114
2.07696
1.96481
1.79651
1.51465
1.82122
1.08548
0.451255
0.129288
0.0225329
0.0269931
0.612595
1.43973
1.83863
1.97902
2.20234
2.18878
1.96073
1.69517
1.76809
1.78538
1.49484
1.23379
1.17499
1.82516
1.53692
0.539636
0.000848376
0.000319481
0.000333962
0.00492158
0.0526133
0.162362
0.59454
1.39964
1.76959
1.1378
0.497493
0.542274
0.597505
0.399625
0.455848
0.769207
1.47144
1.31139
0.631122
0.0125429
0.000233312
0.000664235
0.00283143
0.00276602
0.00153858
0.013594
0.151464
0.347779
0.245088
0.150863
0.139651
0.150032
0.159791
0.277782
0.752394
1.09698
1.10152
0.543579
0.0628419
0.000207656
0.00021366
0.000475638
0.00056217
0.000306064
0.000215198
0.000169959
0.0441497
0.0329993
0.0883785
0.282965
0.625099
0.669408
0.618811
0.847228
1.09615
1.09775
0.512505
0.0495146
0.000297784
0.000200681
0.000217758
0.000247165
0.000342426
0.000374326
0.000342896
0.000365571
0.000300516
0.110876
0.627281
0.978051
0.998678
0.821367
1.02914
1.90013e-08
1.54086e-08
1.27678e-08
1.24139e-08
1.40914e-08
1.65477e-08
1.68138e-08
1.35189e-08
1.07086e-08
8.909e-09
6.35122e-09
4.27433e-09
2.88869e-09
2.40461e-09
2.34457e-09
2.2818e-08
0.00259681
0.025982
0.0837905
0.174891
0.282748
0.466395
0.925554
2.85505e-08
2.03763e-08
1.58764e-08
1.72283e-08
2.72524e-08
4.09415e-08
5.05674e-08
4.29244e-08
3.97986e-08
4.25016e-08
3.98359e-08
3.4774e-08
2.7975e-08
2.12503e-08
1.39212e-08
1.12012e-08
1.44988e-07
7.75356e-08
9.45388e-08
2.44458e-07
9.86854e-06
9.14917e-05
0.00023547
2.445e-08
1.06229e-08
9.43286e-09
1.87466e-08
3.32395e-08
7.68283e-08
1.35018e-07
1.77825e-07
2.27884e-07
3.06329e-07
3.6548e-07
4.0761e-07
4.26842e-07
4.79918e-07
4.53373e-07
3.7906e-07
2.21006e-07
2.64258e-08
2.70661e-09
1.2229e-08
2.72803e-06
2.43642e-05
0.00017712
1.60581e-08
1.27472e-06
0.0421731
0.02567
0.0234762
0.0191732
0.0325841
0.0464091
0.0382099
0.0247058
0.0311929
0.0348154
0.0252013
0.00961831
0.00897298
0.0420474
0.0405518
0.00863322
2.75838e-05
0.0107813
0.131733
0.360164
0.688968
0.0499842
0.415206
0.593926
0.630112
0.630009
0.673324
0.794186
0.771131
0.700204
0.679634
0.743324
0.76318
0.696865
0.581937
0.572029
0.731672
0.85948
0.832561
0.823584
0.926632
1.07472
1.20041
1.12418
1.45932
1.36914
1.03435
1.029
1.03852
1.19646
1.37596
1.38639
1.3394
1.38724
1.42707
1.42742
1.40079
1.39011
1.41124
1.40893
1.29403
1.15355
1.11791
1.11259
1.08935
1.03289
1.00145
2.38509
1.11859
1.08068
1.03363
1.0262
1.02399
1.01522
1.00255
1.00001
1
1
1
1
1
1
1
1
1
1
1
1
0.999999
0.999999
2.53057
2.37609
2.47198
2.04615
1.58165
1.31354
1.15579
1.0666
1.01454
1
1
1
1
1
1
1
1
1
1
1
0.999999
0.999999
1
2.75391
2.9982
2.99991
2.99993
3
2.82776
2.63124
2.40995
2.16144
1.89165
1.62621
1.44192
1.29329
1.17716
1.09636
1.04209
1.01268
1.00165
1
1
1
1
1
2.91958
2.98179
2.99998
3
3
3
3
3
3
3
3
2.92037
2.81355
2.68206
2.53814
2.3666
2.18496
2.01666
1.87486
1.75769
1.68058
1.67648
1.72624
2.9787
2.98847
2.99999
3
3
3
3
3
3
3
3
3
3
3
3
3
3
3
3
3
3
3
3
2.99862
2.99828
2.99992
3
3
3
3
3
3
2.99999
2.99999
3
3
3
3
3
3
3
3
3
3
3
3
3
3
2.99999
3
3
3
3
3
2.99999
2.9999
2.99976
2.99998
3
3
3
3
3
3
3
3
3
3
3
3
3
3
3
3
3
3
3
2.99997
2.99965
2.99965
2.9998
2.99999
3
3
3
3
3
3
3
3
3
3
3
3
3
3
3
3
3
3
2.99997
2.99968
2.99965
2.99965
2.99995
3
3
2.99999
2.99999
3
3
3
3
3
3
3
3
3
3
3
3
3
3
3
2.99998
2.99969
2.99965
2.99985
2.99999
2.99999
2.99999
2.99999
3
3
3
3
3
3
3
3
3
3
3
3
3
3
3
3
2.99999
2.99983
2.99991
2.99999
2.99999
2.99999
2.99999
3
3
3
3
3
3
3
3
3
3
3
3
3
3
3
3
3
3
3
2.99998
3
3
3
3
3
3
3
3
3
3
3
3
3
3
3
3
3
3
3
3
3
3
2.99999
2.99999
3
3
3
3
3
3
3
3
3
3
3
3
3
3
3
3
3
3
3
3
3
3
3
3
3
3
3
3
3
3
3
3
3
3
3
3
3
3
3
3
3
3
3
3
3
3
3
3
3
3
3
3
3
3
3
3
3
3
3
3
3
3
3
3
3
3
3
3
3
3
3
3
3
3
3
3
3
3
3
3
3
3
3
3
3
3
3
3
3
3
3
3
3
3
3
3
3
3
3
3
3
3
3
3
3
3
3
3
3
3
3
3
3
3
3
3
3
3
3
3
3
3
3
3
3
3
3
3
3
3
3
3
3
3
3
3
3
3
3
3
3
3
3
3
3
3
3
3
3
3
3
3
3
3
3
3
3
3
3
3
3
3
3
3
3
3
3
3
3
3
3
3
3
3
3
3
3
3
3
3
3
3
3
3
3
3
3
3
3
3
3
3
3
3
3
3
3
3
3
3
3
3
3
3
3
3
3
3
3
3
3
3
3
3
3
3
3
3
3
3
3
3
3
3
3
3
3
3
3
3
3
3
3
3
3
3
3
3
3
3
3
3
3
3
3
3
3
3
3
3
3
3
3
3
3
3
3
3
3
3
3
3
3
3
3
3
3
3
3
3
3
3
3
3
3
3
3
3
3
3
3
3
3
3
3
3
3
3
3
3
3
3
3
3
3
3
3
3
3
3
3
3
3
3
3
3
3
3
3
3
3
3
3
3
3
3
3
3
3
3
3
3
3
3
3
3
3
3
3
3
3
3
3
3
3
3
3
3
3
3
3
3
3
3
3
3
3
3
3
3
3
3
3
3
3
3
3
3
3
3
3
3
3
3
3
3
3
3
3
3
3
3
3
3
3
3
3
3
3
3
3
3
3
3
3
3
3
3
3
3
3
3
3
3
3
3
3
3
3
3
3
3
3
3
3
3
3
3
3
3
3
3
3
3
3
3
3
3
3
3
3
3
3
3
3
3
3
3
3
3
3
3
3
3
3
3
3
3
3
3
3
3
3
3
3
3
3
3
3
3
3
3
3
3
3
3
3
3
3
3
3
3
3
3
3
3
3
3
3
3
3
3
3
3
3
3
3
3
3
3
3
3
3
3
3
3
3
3
3
3
3
3
3
3
3
3
3
3
3
3
3
3
3
3
3
3
3
3
3
3
3
3
3
3
3
3
3
3
3
3
3
3
3
3
3
3
3
3
3
3
3
3
3
3
3
3
3
0.461446
0.067636
0.101131
0.72208
0.0110451
0.0083575
0.269751
0.748252
0.107808
0.698375
0.734252
0.823812
0.700196
1.01019
1.46294
1.47808
1.06676
1.04876
1.02042
1.00113
1
1
1
1
1
1
1
1
1
1
1
1
1
1
1
1.00497
1.78907
1.83703
1.8726
1.97805
3
3
3
3
3
3
3
3
3
3
3
3
3
3
3
3
3
3
3
3
3
3
3
3
3
3
3
3
3
3
3
3
3
3
3
3
3
3
3
3
3
3
3
3
3
3
3
3
3
3
3
3
3
3
3
3
3
3
3
3
3
3
3
3
3
3
3
3
3
3
3
3
3
3
3
3
3
3
3
3
3
3
3
3
3
3
3
3
3
3
3
3
3
3
3
3
3
3
3
3
3
3
3
3
3
3
3
3
3
3
3
3
3
3
3
3
3
3
3
3
3
3
3
3
3
3
3
3
1.15903
1.14635
0.797892
0.0748896
0.00159663
0.000346867
0.00425342
0.0284543
0.113043
0.200332
0.224868
0.254562
0.346236
0.580497
0.901669
1.00204
1.00156
0.991483
1.02822
1.24084
1.28508
1.3059
0.624518
0.195201
0.14729
0.168216
0.553933
0.90482
0.940233
0.952488
0.968407
0.988253
0.999809
1.00138
1.00185
1.00164
1.00002
1.01453
1.43671
1.066
1.26563
1.24154
0.629404
0.624043
0.979875
1.00511
0.999988
1.00029
1.00042
1.00038
1.00006
1.00002
1.00024
1.00079
1.00045
1.00006
1.05742
1.08422
1.00057
1.00043
1.18898
1.33479
1.30009
1.12514
0.999072
1
1.00003
1.00009
1.00007
1.00001
1
1
1.00001
1.00002
1.00001
1.11842
0.999975
0.99973
0.999723
0.999941
1.07254
1.07802
1.01285
1.00006
1
1.00002
1.00013
1.00012
1.00003
1
1
1.00001
1.00002
0.999481
1.08952
1
0.999953
0.999915
0.999918
0.999948
0.999968
0.999993
1.00001
1.00001
1.00005
1.00001
1
1
1
1
1.00001
1.00001
0.996315
1.00704
1
1
1
1
1
1
1
1.00127
1.00004
1
1
1.01806
1.42774
1.78089
1.84294
1.78543
1.71871
1.50501
1.43842
1
1
1
1
1.01061
1.08395
1.2388
1.35413
1.79628
2.4737
2.62042
2.77101
2.93052
2.98598
2.99365
2.98919
2.98446
2.94677
2.82732
1.03044
1.06539
1.21817
1.60963
2.02027
2.39299
2.89014
3
2.9993
3
2.99999
2.99999
2.99999
2.99999
2.99999
2.99994
2.99977
2.99996
2.98766
2.25274
2.43493
2.71549
3
3
3
3
3
3
3
3
3
3
2.9991
2.99711
2.99616
2.99842
2.99999
3
3
3
3
3
3
3
3
3
2.99939
2.99896
2.99991
3
2.99964
2.99446
2.99432
2.99547
2.99845
3
3
3
3
3
3
3
3
3
2.99928
2.99784
2.99788
2.99935
3
2.99914
2.99536
2.9971
2.99965
2.99978
3
3
3
3
3
3
3
3
3
2.99918
2.99793
2.99817
2.99971
2.99999
2.99965
2.9998
3
3
3
3
3
3
3
3
3
3
2.99999
2.99998
2.99991
2.99984
2.99983
2.99999
3
3
3
3
3
3
3
3
3
3
3
3
3
3
3
3
3
3
3
3
3
3
3
3
3
3
3
3
3
3
3
3
3
3
3
3
3
3
3
3
3
3
3
3
3
3
3
3
3
3
3
3
3
3
3
3
3
3
3
3
3
3
3
3
3
3
3
3
3
3
3
3
3
3
3
3
3
3
3
3
3
3
3
3
3
3
3
3
3
3
3
3
3
3
3
3
3
3
3
3
3
3
3
3
3
3
3
3
3
3
3
3
3
3
3
3
3
3
3
3
3
3
3
3
3
3
3
3
3
3
3
3
3
3
3
3
3
3
3
3
3
3
3
3
3
3
3
3
3
3
3
3
3
3
3
3
3
3
3
3
3
3
3
3
3
3
3
3
3
3
3
3
3
3
3
3
3
3
3
3
3
3
3
3
3
3
3
3
3
3
3
3
3
3
3
3
3
3
3
3
3
3
3
3
3
3
3
3
3
3
3
3
3
3
3
3
3
3
3
3
3
3
3
3
3
3
3
3
3
3
3
3
3
3
3
3
3
3
3
3
3
3
3
3
3
3
3
3
3
3
3
3
3
3
3
3
3
3
3
3
3
3
3
3
3
3
3
3
3
3
3
3
3
3
3
3
3
3
3
3
3
3
3
3
3
3
3
3
3
3
3
3
3
3
3
3
3
3
3
3
3
3
3
3
3
3
3
3
3
3
3
3
3
3
3
3
3
3
3
3
3
3
3
3
3
3
3
3
3
3
3
3
3
3
3
3
3
3
3
3
3
3
3
3
3
3
3
3
3
3
3
3
3
3
3
3
3
3
3
3
3
3
3
3
3
3
3
3
3
3
3
3
3
3
3
3
3
3
3
3
3
3
3
3
3
3
3
3
3
3
3
3
3
3
3
3
3
3
3
3
3
3
3
3
3
3
3
3
3
3
3
3
3
3
3
3
3
3
3
3
3
3
3
3
3
3
3
3
3
3
3
3
3
3
3
3
3
3
3
3
3
3
3
3
3
3
3
3
3
3
3
3
3
3
3
3
3
3
3
3
3
3
3
3
3
3
3
3
3
3
3
3
3
3
3
3
3
3
3
3
3
3
3
3
3
3
3
3
3
3
3
3
3
3
3
3
3
3
3
3
3
3
3
3
3
3
3
3
3
3
3
3
3
3
3
3
3
3
3
3
3
3
3
3
3
3
3
3
3
3
3
3
3
3
3
3
3
3
3
3
)
;

boundaryField
{
    leftWall
    {
        type            calculated;
        value           nonuniform List<scalar> 
50
(
2
2
2
2
1.85665
0.356833
3.55788e-09
1.02158e-08
1.90013e-08
2.85505e-08
2.445e-08
1.60581e-08
0.0499842
1.45932
2.38509
2.53057
2.75391
2.91958
2.9787
2.99862
3
3
3
3
3
3
3
3
3
3
3
3
3
3
3
3
3
3
3
3
3
3
3
3
3
3
3
3
3
3
)
;
    }
    rightWall
    {
        type            calculated;
        value           nonuniform List<scalar> 
50
(
1.70855
1.58101
1.51465
1.17499
0.769207
0.752394
0.847228
1.02914
1.02822
1.01453
1.05742
1.11842
1.08952
1.00704
1.43842
2.82732
2.98766
3
3
3
3
3
3
3
3
3
3
3
3
3
3
3
3
3
3
3
3
3
3
3
3
3
3
3
3
3
3
3
3
3
)
;
    }
    lowerWall
    {
        type            calculated;
        value           nonuniform List<scalar> 
62
(
2
2
2
2
2
2
2
2
2
2
2
2
2
2
2
2
2
2
2
2
2
1.99959
1.99943
1.99943
1.99943
1.99965
1.99998
2
2
2
1.99964
0.461446
0.067636
0.101131
0.72208
1.87029
1.85981
1.83525
1.82122
1.82516
1.47144
1.09698
1.09615
1.87029
1.9485
1.93665
1.75449
1.69724
1.68863
1.67073
1.6896
1.69141
1.70674
1.97472
1.97904
1.81888
1.6911
1.59568
1.68376
1.70286
1.71501
1.70855
)
;
    }
    atmosphere
    {
        type            calculated;
        value           nonuniform List<scalar> 
46
(
3
3
3
3
3
3
3
3
3
3
3
3
3
3
3
3
3
3
3
3
3
3
3
3
3
3
3
3
3
3
3
3
3
3
3
3
3
3
3
3
3
3
3
3
3
3
)
;
    }
    defaultFaces
    {
        type            empty;
    }
}


// ************************************************************************* //
