/*--------------------------------*- C++ -*----------------------------------*\
  =========                 |
  \\      /  F ield         | OpenFOAM: The Open Source CFD Toolbox
   \\    /   O peration     | Website:  https://openfoam.org
    \\  /    A nd           | Version:  13
     \\/     M anipulation  |
\*---------------------------------------------------------------------------*/
FoamFile
{
    format      ascii;
    class       volScalarField;
    location    "1.45";
    object      epsilon;
}
// * * * * * * * * * * * * * * * * * * * * * * * * * * * * * * * * * * * * * //

dimensions      [0 2 -3 0 0 0 0];

internalField   nonuniform List<scalar> 
2268
(
0.0064969
0.0329443
0.0680789
0.103608
0.137556
0.16983
0.199811
0.226929
0.250589
0.270074
0.284622
0.29372
0.29726
0.295462
0.288903
0.280131
0.272482
0.262745
0.24825
0.224819
0.186182
0.12227
0.0231502
0.0109599
0.022954
0.0378315
0.0527747
0.0669586
0.0800938
0.0920091
0.102624
0.111873
0.119667
0.125915
0.130614
0.133891
0.136001
0.137376
0.138987
0.141692
0.144097
0.144427
0.139642
0.124884
0.0945335
0.0559312
0.019006
0.025828
0.0368313
0.0478905
0.0582874
0.0677979
0.0763607
0.0839928
0.0907263
0.0965717
0.101535
0.105667
0.109088
0.111994
0.114705
0.117741
0.121526
0.125366
0.127953
0.126904
0.11869
0.101337
0.105797
0.0281814
0.0315095
0.0409492
0.0504431
0.0592523
0.0672319
0.0743937
0.0808062
0.086542
0.0916447
0.0961409
0.100083
0.103569
0.106746
0.109842
0.1132
0.117109
0.121189
0.12446
0.125144
0.121075
0.113653
0.157332
0.0386011
0.0393885
0.04789
0.0563529
0.0640807
0.0710225
0.0772546
0.0828791
0.0879824
0.0926177
0.0968107
0.100606
0.104081
0.107348
0.110562
0.113965
0.117785
0.121812
0.125346
0.127215
0.126624
0.128345
0.210282
0.0516335
0.0497962
0.0572924
0.0646589
0.0713042
0.0772616
0.0826557
0.0875993
0.0921673
0.0964072
0.100326
0.103952
0.107349
0.1106
0.113821
0.117188
0.120887
0.124807
0.128493
0.131359
0.13397
0.144785
0.267273
0.0681484
0.0631003
0.0689184
0.0748
0.0801575
0.0850525
0.089612
0.0939248
0.0980159
0.101877
0.105503
0.108918
0.112171
0.115344
0.118526
0.121847
0.125471
0.129351
0.133233
0.137046
0.142633
0.16287
0.337778
0.0884897
0.0786551
0.0818847
0.0857906
0.0896327
0.0934137
0.0971851
0.100956
0.104664
0.108219
0.111612
0.114852
0.117978
0.121072
0.124215
0.127516
0.131152
0.135132
0.13936
0.144157
0.152344
0.181652
0.473346
0.106111
0.228705
0.363162
0.408908
0.458035
0.523026
0.576943
0.611173
0.61888
0.594316
0.541453
0.492902
0.45545
0.393029
0.314411
0.247795
0.191851
0.111202
0.0313148
0.110271
0.159978
0.21223
0.243036
0.262
0.282379
0.301331
0.311072
0.308825
0.293428
0.268928
0.238767
0.213063
0.183865
0.15152
0.122982
0.0980863
0.0684035
0.0431404
0.14822
0.165861
0.197296
0.230928
0.241547
0.252316
0.265637
0.273431
0.271558
0.257804
0.234426
0.207901
0.184121
0.160133
0.134496
0.111035
0.0904583
0.0703998
0.0681245
0.183717
0.180514
0.192427
0.228036
0.241631
0.249161
0.260418
0.27007
0.272549
0.261381
0.237215
0.210031
0.185094
0.161349
0.136468
0.113312
0.0935994
0.0774864
0.0973583
0.209039
0.180427
0.191885
0.214246
0.228333
0.238011
0.248973
0.259018
0.26499
0.261914
0.246412
0.220748
0.194933
0.170356
0.144989
0.121097
0.10104
0.0858579
0.112874
0.201679
0.170747
0.18948
0.20684
0.211784
0.220324
0.231471
0.241739
0.248508
0.249535
0.242745
0.225624
0.204717
0.182202
0.157297
0.132879
0.112033
0.0961367
0.116168
0.184737
0.161939
0.188442
0.206245
0.203688
0.207614
0.217389
0.227833
0.235258
0.2376
0.233495
0.222677
0.208156
0.190664
0.169155
0.146611
0.125893
0.108992
0.134871
0.192319
0.159115
0.187159
0.206747
0.201211
0.200734
0.207975
0.217766
0.225601
0.229027
0.226839
0.219317
0.208662
0.195333
0.178185
0.158867
0.139515
0.122272
0.16582
0.116593
0.100667
0.101086
0.102481
0.104267
0.106506
0.109187
0.112194
0.11534
0.118471
0.121526
0.124518
0.127511
0.130574
0.133804
0.13734
0.141319
0.145835
0.151017
0.157525
0.168413
0.195907
0.303732
0.168699
0.132572
0.127874
0.12684
0.127044
0.12804
0.129688
0.131794
0.134021
0.136144
0.138147
0.140122
0.142179
0.144453
0.147117
0.150308
0.154136
0.158806
0.164324
0.170809
0.178953
0.191634
0.220456
0.235391
0.164608
0.154229
0.151897
0.151724
0.152353
0.153509
0.154967
0.156258
0.157178
0.157877
0.158579
0.159395
0.16041
0.161735
0.163486
0.165788
0.168904
0.172732
0.17702
0.18173
0.187437
0.195703
0.325611
0.199827
0.182154
0.178037
0.177332
0.177615
0.1784
0.179307
0.179656
0.179367
0.17883
0.178345
0.177983
0.177808
0.177951
0.178588
0.179845
0.181657
0.183983
0.186684
0.189686
0.193081
0.197062
0.469892
0.245926
0.213773
0.204942
0.202329
0.20176
0.202119
0.202403
0.201789
0.20047
0.199032
0.197686
0.196413
0.195379
0.194898
0.195205
0.19623
0.197727
0.199606
0.201969
0.204856
0.208046
0.211517
0.669113
0.298892
0.245566
0.228539
0.22239
0.220476
0.220348
0.220109
0.218917
0.217231
0.215605
0.214075
0.212611
0.211531
0.211293
0.212075
0.213542
0.215416
0.217867
0.221045
0.224799
0.228925
0.233403
0.907368
0.35362
0.278049
0.249509
0.237249
0.232534
0.230935
0.229965
0.228711
0.227423
0.226338
0.22545
0.224812
0.224744
0.225606
0.227472
0.230043
0.23317
0.237038
0.241725
0.247074
0.252915
0.259184
0.907964
0.400661
0.332011
0.279675
0.254401
0.24411
0.239879
0.237443
0.235539
0.234213
0.233551
0.233481
0.23401
0.235314
0.237564
0.24082
0.244958
0.249933
0.255829
0.262628
0.270139
0.278177
0.286681
0.77416
0.495372
0.469901
0.333199
0.278969
0.259349
0.251719
0.247252
0.243631
0.241173
0.240153
0.240666
0.242286
0.244824
0.248342
0.252894
0.258546
0.265357
0.273361
0.282477
0.29252
0.303336
0.314786
0.62777
0.457604
0.441016
0.370908
0.304763
0.276514
0.267139
0.261476
0.255125
0.250289
0.247303
0.247919
0.250604
0.254562
0.259472
0.265375
0.272512
0.281073
0.29113
0.302636
0.315541
0.329891
0.346145
0.486443
0.383995
0.357489
0.324816
0.293886
0.274141
0.265556
0.262268
0.257652
0.254286
0.252239
0.253174
0.258323
0.264854
0.271949
0.279806
0.288774
0.299156
0.311034
0.324804
0.340839
0.360073
0.38404
0.42449
0.314793
0.309405
0.296442
0.280415
0.269511
0.262585
0.257391
0.253024
0.250811
0.250275
0.252465
0.257536
0.264084
0.27173
0.280593
0.290851
0.30272
0.316768
0.333175
0.352321
0.374125
0.399991
0.398436
0.278826
0.276606
0.274161
0.268754
0.262703
0.257366
0.252087
0.24814
0.24697
0.248112
0.250883
0.254357
0.259742
0.267169
0.276923
0.289077
0.303465
0.31971
0.336786
0.353301
0.368574
0.38744
0.388592
0.261752
0.254246
0.254595
0.254243
0.252294
0.249011
0.245636
0.243718
0.24405
0.24605
0.248409
0.251792
0.25644
0.262787
0.271103
0.281339
0.29319
0.306276
0.319699
0.332631
0.345011
0.359367
0.406535
0.255068
0.240485
0.239963
0.241003
0.240997
0.23991
0.238793
0.238668
0.239766
0.241704
0.243939
0.246646
0.250241
0.254944
0.260972
0.268353
0.276922
0.286369
0.296205
0.305747
0.314937
0.325042
0.42998
0.251409
0.230304
0.227711
0.228721
0.229865
0.230558
0.23125
0.232422
0.234039
0.235745
0.237452
0.239479
0.242167
0.245587
0.249839
0.254973
0.260856
0.267213
0.273673
0.279829
0.285673
0.291552
0.441642
0.245633
0.22003
0.215766
0.216562
0.218472
0.220455
0.222452
0.224563
0.226686
0.228561
0.230148
0.231799
0.233851
0.236374
0.239394
0.242892
0.246742
0.250718
0.254549
0.257961
0.260987
0.26374
0.434354
0.235207
0.208053
0.203129
0.203976
0.20652
0.209469
0.212452
0.215356
0.218043
0.220351
0.222239
0.223907
0.225661
0.227637
0.229842
0.232228
0.234695
0.23708
0.239211
0.240893
0.242172
0.243129
0.410824
0.220222
0.194011
0.18944
0.190709
0.193904
0.197663
0.201474
0.205115
0.208433
0.211303
0.21368
0.215665
0.217469
0.219233
0.220997
0.222741
0.224401
0.225879
0.227074
0.22785
0.228262
0.228398
0.375132
0.20155
0.178097
0.174609
0.176648
0.180566
0.185076
0.189633
0.193977
0.197948
0.201435
0.204386
0.206845
0.208939
0.210783
0.212443
0.213938
0.215248
0.216324
0.217117
0.217531
0.217631
0.217513
0.330928
0.180197
0.160695
0.158747
0.161775
0.166467
0.171688
0.176926
0.181922
0.186523
0.190624
0.194169
0.197165
0.199685
0.201813
0.203623
0.205159
0.206433
0.207436
0.208149
0.208512
0.20859
0.20848
0.281884
0.157324
0.142387
0.142161
0.146208
0.151642
0.157496
0.163325
0.168893
0.174056
0.17872
0.182825
0.186358
0.189355
0.191878
0.19399
0.195745
0.197175
0.198294
0.199103
0.19957
0.199755
0.199754
0.232056
0.134375
0.123984
0.125357
0.130229
0.136268
0.142614
0.148899
0.154915
0.160535
0.165668
0.170257
0.174276
0.177739
0.180684
0.183163
0.185225
0.18691
0.188241
0.189235
0.189877
0.190224
0.190359
0.188547
0.113354
0.106447
0.108965
0.114327
0.120714
0.127339
0.133894
0.140195
0.146126
0.151601
0.156563
0.160979
0.164846
0.168184
0.171029
0.173421
0.175398
0.176986
0.178208
0.17906
0.179594
0.179888
0.15166
0.0946266
0.0904444
0.0936568
0.0991328
0.105512
0.112151
0.118757
0.125145
0.131214
0.136876
0.142074
0.146769
0.150945
0.154607
0.157775
0.160478
0.162745
0.164601
0.166069
0.167152
0.167897
0.16837
0.121917
0.078703
0.0764767
0.0799912
0.0852842
0.0913521
0.0977056
0.104087
0.110342
0.116367
0.122045
0.127327
0.132164
0.136533
0.140425
0.143845
0.14681
0.149339
0.151451
0.153167
0.154493
0.155466
0.156146
0.0995887
0.0659406
0.0648905
0.068365
0.0732481
0.0787876
0.0846445
0.0905939
0.0964962
0.102246
0.107757
0.11297
0.117809
0.122244
0.126257
0.12984
0.132998
0.135739
0.138076
0.140023
0.141587
0.142797
0.1437
0.0841095
0.0563452
0.0557703
0.0589352
0.063266
0.0681659
0.0733939
0.0787697
0.0841713
0.0895032
0.094685
0.0996507
0.10434
0.108716
0.112741
0.116389
0.119658
0.122547
0.125059
0.127203
0.128982
0.130419
0.131548
0.0742432
0.0495584
0.0489254
0.0516031
0.0553201
0.0595544
0.0641154
0.0688604
0.0736876
0.0785141
0.0832678
0.0878853
0.0923108
0.0964997
0.100414
0.104028
0.107327
0.11029
0.112915
0.115205
0.117159
0.118793
0.120129
0.0685114
0.0449933
0.0439674
0.046076
0.0491907
0.052796
0.0567254
0.0608573
0.0651077
0.069407
0.0736928
0.0779085
0.0820028
0.0859312
0.089656
0.0931467
0.0963806
0.0993387
0.102011
0.10439
0.106467
0.108251
0.109759
0.0655984
0.0420147
0.040448
0.0420022
0.0445615
0.0476187
0.0509938
0.0545792
0.0583027
0.0621058
0.0659355
0.069743
0.073483
0.0771145
0.0806015
0.0839129
0.0870234
0.0899118
0.0925624
0.0949637
0.0971044
0.098986
0.100616
0.0645676
0.0401266
0.0379855
0.039039
0.0411347
0.0437429
0.0466624
0.049792
0.0530667
0.0564356
0.0598538
0.06328
0.0666756
0.0700045
0.0732342
0.0763355
0.0792832
0.0820553
0.0846338
0.0870043
0.0891533
0.0910749
0.092772
0.0646344
0.0389544
0.0363023
0.0369715
0.0387207
0.0409833
0.0435491
0.0463169
0.0492257
0.0522304
0.055293
0.0583792
0.0614565
0.0644947
0.0674658
0.0703438
0.0731052
0.0757292
0.0781972
0.0804934
0.0826029
0.0845168
0.0862312
0.0655417
0.0383602
0.0353377
0.0357691
0.0372921
0.0393119
0.0416132
0.0440973
0.0467083
0.0494073
0.0521626
0.054946
0.0577314
0.0604941
0.0632108
0.0658593
0.0684193
0.0708716
0.0731986
0.0753845
0.077414
0.0792757
0.0809614
0.0675934
0.0385366
0.0353196
0.0356602
0.0370539
0.0388958
0.040981
0.0432216
0.0455702
0.0479945
0.0504687
0.0529701
0.0554778
0.0579719
0.0604336
0.0628446
0.0651878
0.0674464
0.0696046
0.0716472
0.0735593
0.0753279
0.0769415
0.0720813
0.0402722
0.0369385
0.0372139
0.0384556
0.0400849
0.0419247
0.0439023
0.0459772
0.0481212
0.0503113
0.0525279
0.0547534
0.0569714
0.0591667
0.0613243
0.06343
0.0654696
0.0674292
0.0692949
0.0710524
0.0726881
0.0741881
0.0822258
0.0453926
0.0414687
0.041309
0.0421114
0.0433271
0.0447883
0.0464158
0.0481592
0.0499823
0.0518578
0.0537644
0.0556849
0.0576045
0.0595099
0.0613887
0.0632288
0.0650186
0.0667458
0.0683983
0.0699625
0.0714248
0.0727693
0.104349
0.0570976
0.0506492
0.0488994
0.0485871
0.0490075
0.0498735
0.0510223
0.0523513
0.0537949
0.0553102
0.0568684
0.0584494
0.0600378
0.0616211
0.0631882
0.064729
0.0662334
0.0676912
0.0690917
0.0704226
0.0716707
0.0728187
0.150434
0.0800094
0.0660788
0.0604735
0.0580484
0.0572389
0.0573131
0.0578834
0.0587372
0.0597562
0.0608728
0.0620473
0.0632548
0.0644786
0.0657062
0.0669277
0.0681343
0.0693174
0.0704688
0.0715792
0.072638
0.073633
0.0745464
0.248927
0.119596
0.0876029
0.075144
0.0698594
0.0676937
0.0669931
0.0670169
0.0674145
0.0680136
0.068726
0.0695041
0.070321
0.0711598
0.072009
0.0728599
0.0737054
0.0745388
0.0753536
0.0761426
0.0768974
0.0776078
0.0782574
0.506668
0.177151
0.109639
0.0896439
0.0824558
0.0796672
0.0786219
0.0783371
0.0784107
0.0786653
0.0790176
0.0794257
0.079867
0.0803285
0.0808014
0.0812797
0.0817584
0.0822331
0.0826998
0.0831538
0.0835897
0.0840006
0.0843739
1.59743
0.211251
0.115488
0.0987237
0.0941404
0.092588
0.092012
0.0918106
0.0917726
0.0918138
0.0918967
0.0920036
0.092125
0.0922556
0.092392
0.0925319
0.0926736
0.0928155
0.0929562
0.0930941
0.0932273
0.0933535
0.0934673
0.74467
0.576179
0.452351
0.363464
0.256561
0.262087
0.255712
0.240311
0.203062
0.20695
0.208099
0.206268
0.20041
0.202944
0.205058
0.206415
0.214558
0.217028
0.219511
0.221889
0.237137
0.240025
0.242974
0.245884
0.264163
0.267817
0.271445
0.274996
0.293373
0.298226
0.303038
0.307755
0.32369
0.330247
0.337029
0.343957
0.359833
0.36988
0.379993
0.389945
0.406243
0.421459
0.436321
0.450467
0.425671
0.445786
0.465692
0.478915
0.408545
0.423191
0.436512
0.445714
0.374311
0.384005
0.392387
0.397865
0.334707
0.340349
0.344806
0.347542
0.29648
0.299069
0.300909
0.301896
0.265736
0.266522
0.26682
0.266737
0.243575
0.243446
0.242975
0.242352
0.228198
0.227705
0.226942
0.226136
0.217128
0.216545
0.215731
0.21492
0.208108
0.207553
0.206782
0.20603
0.199458
0.198969
0.198276
0.197599
0.190163
0.189757
0.189158
0.188564
0.179805
0.179496
0.179009
0.178512
0.168426
0.168234
0.167879
0.167498
0.156363
0.156303
0.156099
0.155855
0.144098
0.144181
0.144137
0.144044
0.132128
0.132353
0.132468
0.13253
0.120878
0.121235
0.121496
0.121702
0.110651
0.11112
0.111506
0.111836
0.101621
0.102177
0.10266
0.103089
0.0938493
0.0944664
0.0950191
0.09552
0.087339
0.08799
0.0885845
0.0891302
0.082064
0.0827229
0.0833323
0.0838963
0.0780062
0.0786492
0.0792483
0.0798052
0.0751822
0.0757862
0.0763512
0.0768767
0.0736612
0.0742042
0.0747118
0.075182
0.0735773
0.0740383
0.0744667
0.074859
0.0751446
0.0755056
0.0758362
0.0761316
0.0786761
0.0789257
0.0791479
0.0793366
0.0846103
0.0847494
0.0848671
0.0849569
0.093539
0.0935807
0.0936133
0.0936339
0.191658
0.163946
0.182954
0.204075
0.201429
0.197137
0.200281
0.208045
0.215909
0.220785
0.221202
0.217503
0.21128
0.202851
0.190454
0.174047
0.155946
0.141503
0.232892
0.200661
0.182037
0.187216
0.20172
0.205557
0.203242
0.204288
0.209327
0.215599
0.220652
0.223204
0.223259
0.221453
0.21671
0.206084
0.189842
0.171888
0.165574
0.340865
0.198478
0.195125
0.199803
0.210065
0.216379
0.217571
0.218841
0.221638
0.225195
0.228659
0.231555
0.233764
0.234827
0.232394
0.223088
0.207076
0.189362
0.188286
0.405802
0.20739
0.208893
0.214887
0.224713
0.232694
0.236826
0.238995
0.240199
0.241386
0.242947
0.245275
0.2483
0.250792
0.249575
0.240968
0.225053
0.207725
0.209714
0.454651
0.225589
0.227888
0.232241
0.240354
0.249308
0.256017
0.259658
0.261101
0.261639
0.262365
0.264272
0.267375
0.269976
0.268287
0.258566
0.241252
0.22311
0.226077
0.490415
0.250429
0.253635
0.25711
0.263412
0.271641
0.278961
0.283698
0.286118
0.286873
0.287362
0.288782
0.291363
0.293251
0.290013
0.27737
0.256356
0.235361
0.237476
0.516195
0.280626
0.28564
0.290125
0.296132
0.303691
0.310795
0.315672
0.318425
0.319116
0.319478
0.320828
0.323223
0.324814
0.319984
0.302903
0.275019
0.248496
0.24774
0.536533
0.315419
0.323244
0.330082
0.337382
0.345424
0.352567
0.3575
0.360766
0.361108
0.361201
0.363131
0.366042
0.369796
0.367835
0.346749
0.306045
0.268239
0.262209
0.561226
0.355531
0.36714
0.376948
0.386743
0.396594
0.40456
0.410226
0.41559
0.414599
0.414236
0.418995
0.417772
0.406531
0.378865
0.33969
0.291128
0.249687
0.251462
0.541328
0.405699
0.419543
0.431361
0.444789
0.457494
0.465752
0.473386
0.475925
0.462657
0.444349
0.435136
0.420014
0.390367
0.351907
0.306735
0.259766
0.223521
0.229015
0.441653
0.46927
0.480502
0.490182
0.505094
0.510877
0.50701
0.49947
0.478651
0.44447
0.410695
0.387573
0.366108
0.341421
0.308626
0.267566
0.226828
0.201255
0.205876
0.35728
0.490636
0.491801
0.498009
0.50218
0.497111
0.477891
0.450485
0.422748
0.390216
0.359551
0.337011
0.31795
0.297624
0.268089
0.232395
0.199884
0.180643
0.187759
0.301689
0.453467
0.449458
0.445665
0.44214
0.432287
0.41147
0.386678
0.361357
0.334875
0.311079
0.292769
0.277288
0.259384
0.233245
0.204201
0.180436
0.168326
0.177236
0.262961
0.401518
0.394488
0.385247
0.376508
0.3644
0.34681
0.327418
0.307695
0.287979
0.270429
0.256335
0.243371
0.227248
0.205848
0.184558
0.169186
0.163087
0.171692
0.238932
0.348542
0.341289
0.331067
0.320507
0.308569
0.294757
0.280299
0.265761
0.251719
0.239241
0.228458
0.21736
0.203583
0.18746
0.173137
0.163924
0.161712
0.169721
0.226822
0.301581
0.295581
0.286938
0.27752
0.267489
0.257082
0.246496
0.236058
0.226207
0.217287
0.208841
0.199502
0.188421
0.176733
0.167248
0.161889
0.161583
0.169195
0.223596
0.265688
0.261045
0.254539
0.247243
0.239584
0.231863
0.224108
0.216545
0.209402
0.202657
0.195765
0.187966
0.179184
0.170589
0.163982
0.160478
0.160847
0.16863
0.226093
0.240993
0.237412
0.23265
0.227248
0.221538
0.215713
0.209827
0.204031
0.198414
0.192832
0.186875
0.180191
0.173
0.166232
0.161052
0.158256
0.158806
0.167381
0.231412
0.224769
0.22195
0.218361
0.214253
0.209823
0.205171
0.200361
0.195492
0.190586
0.185508
0.180014
0.17399
0.167723
0.161904
0.15734
0.154751
0.155443
0.165278
0.237422
0.213678
0.211386
0.208501
0.205149
0.201432
0.197401
0.193112
0.188627
0.183952
0.179005
0.173676
0.167981
0.162196
0.156844
0.152556
0.150086
0.15109
0.162434
0.242916
0.204936
0.202986
0.200498
0.197542
0.194176
0.190428
0.186343
0.181965
0.177308
0.172346
0.167062
0.16154
0.156037
0.150978
0.146915
0.144673
0.146183
0.159081
0.247353
0.196634
0.19491
0.19265
0.189905
0.186717
0.183104
0.179104
0.174756
0.17009
0.165126
0.159907
0.154556
0.149315
0.144554
0.140803
0.13894
0.141096
0.155442
0.250529
0.187715
0.18616
0.184066
0.18148
0.178434
0.174943
0.171041
0.166773
0.162183
0.157323
0.152274
0.147179
0.142271
0.137895
0.134566
0.133208
0.136067
0.151664
0.252389
0.177787
0.176403
0.174485
0.17208
0.169221
0.165915
0.162198
0.15812
0.153736
0.14912
0.144372
0.139646
0.135167
0.131264
0.128447
0.127656
0.131203
0.147812
0.252947
0.166924
0.165745
0.16405
0.161889
0.159291
0.15626
0.152835
0.149066
0.145018
0.140774
0.136444
0.132183
0.128209
0.124838
0.12257
0.122351
0.126514
0.14389
0.252212
0.155465
0.154541
0.153126
0.151274
0.149009
0.146338
0.143295
0.139933
0.136318
0.132537
0.128703
0.124965
0.121531
0.118705
0.116974
0.117278
0.121954
0.139866
0.25024
0.143867
0.143237
0.142149
0.140653
0.138773
0.136514
0.133911
0.131013
0.127886
0.124614
0.121305
0.118102
0.115202
0.112892
0.111645
0.112389
0.117452
0.135707
0.247163
0.132577
0.132264
0.131524
0.130403
0.128927
0.127101
0.124956
0.122537
0.119906
0.117142
0.114347
0.111653
0.109243
0.107388
0.106546
0.107625
0.112939
0.131371
0.243106
0.121968
0.121967
0.121568
0.120815
0.119729
0.118321
0.116615
0.114653
0.112491
0.110201
0.107876
0.105635
0.103649
0.102171
0.101639
0.10294
0.108363
0.126712
0.237463
0.112298
0.112581
0.112493
0.112074
0.111341
0.110309
0.108997
0.107443
0.105696
0.103821
0.101901
0.100043
0.0984027
0.0972167
0.0969011
0.098315
0.103685
0.121643
0.230213
0.103712
0.104231
0.104406
0.10427
0.103837
0.103121
0.102142
0.100931
0.0995331
0.0980037
0.0964155
0.0948658
0.0934935
0.0925186
0.0923329
0.0937549
0.0989372
0.116265
0.221589
0.0962628
0.0969601
0.097342
0.0974272
0.0972304
0.0967648
0.0960499
0.0951129
0.0939919
0.0927361
0.0914087
0.0900963
0.0889233
0.08809
0.087961
0.0893129
0.0942101
0.110733
0.212048
0.0899483
0.0907643
0.0912889
0.091531
0.0915038
0.0912217
0.0907017
0.0899687
0.0890564
0.0880075
0.0868775
0.0857415
0.0847106
0.083966
0.0838451
0.0850786
0.0896319
0.105243
0.202067
0.0847468
0.085623
0.0862252
0.0865584
0.0866339
0.0864672
0.0860747
0.0854803
0.084714
0.0838135
0.0828269
0.0818203
0.0808921
0.0802057
0.080071
0.0811707
0.0853652
0.100032
0.192248
0.0806465
0.0815235
0.0821396
0.0824963
0.082605
0.0824841
0.082153
0.0816356
0.0809595
0.0801579
0.0792733
0.078364
0.0775178
0.0768822
0.0767407
0.0777278
0.0815975
0.0953721
0.183181
0.077668
0.0784857
0.0790479
0.0793531
0.0794171
0.0792668
0.0789289
0.0784292
0.0777932
0.0770501
0.0762372
0.0754071
0.0746397
0.0740698
0.0739578
0.0748934
0.0785281
0.0915545
0.175501
0.075883
0.0765777
0.0770086
0.0771707
0.0770911
0.0768195
0.0763982
0.0758558
0.075214
0.0744958
0.0737336
0.0729758
0.0722979
0.0718273
0.0718081
0.0727925
0.0763415
0.0888591
0.169738
0.0754302
0.0759351
0.0761423
0.0760357
0.0756673
0.0751484
0.0745505
0.073901
0.0732096
0.0724882
0.0717618
0.071076
0.0705059
0.0701792
0.0703345
0.0715013
0.0751706
0.0875107
0.166313
0.0765397
0.0767916
0.0766671
0.0761074
0.075203
0.0742468
0.0733542
0.0725289
0.0717478
0.0709997
0.0702977
0.0696843
0.0692393
0.0690991
0.069512
0.071008
0.0750419
0.0876117
0.165383
0.0795659
0.0795325
0.0789812
0.0777049
0.0757645
0.0740661
0.072736
0.0716714
0.0707707
0.0699794
0.0692917
0.0687465
0.0684311
0.0684995
0.0692262
0.071172
0.0758075
0.0890502
0.166854
0.0850295
0.0847747
0.0838419
0.081598
0.0773741
0.0744577
0.0725571
0.0712238
0.0701979
0.0693592
0.0686773
0.0681863
0.0679826
0.0682414
0.0692745
0.0717002
0.0770687
0.0913619
0.170319
0.0936298
0.0934204
0.0926534
0.0900087
0.0796475
0.0750406
0.0725964
0.0710558
0.0699424
0.0690706
0.0683889
0.0679281
0.0677904
0.0681674
0.0694013
0.0721668
0.0781188
0.0934513
0.174507
)
;

boundaryField
{
    leftWall
    {
        type            epsilonWallFunction;
        value           nonuniform List<scalar> 
50
(
0.0064969
0.0109599
0.019006
0.0281814
0.0386011
0.0516335
0.0681484
0.0884897
0.116593
0.168699
0.235391
0.325611
0.469892
0.669113
0.907368
0.907964
0.77416
0.62777
0.486443
0.42449
0.398436
0.388592
0.406535
0.42998
0.441642
0.434354
0.410824
0.375132
0.330928
0.281884
0.232056
0.188547
0.15166
0.121917
0.0995887
0.0841095
0.0742432
0.0685114
0.0655984
0.0645676
0.0646344
0.0655417
0.0675934
0.0720813
0.0822258
0.104349
0.150434
0.248927
0.506668
1.59743
)
;
    }
    rightWall
    {
        type            epsilonWallFunction;
        value           nonuniform List<scalar> 
50
(
0.0313148
0.0431404
0.0681245
0.0973583
0.112874
0.116168
0.134871
0.16582
0.232892
0.340865
0.405802
0.454651
0.490415
0.516195
0.536533
0.561226
0.541328
0.441653
0.35728
0.301689
0.262961
0.238932
0.226822
0.223596
0.226093
0.231412
0.237422
0.242916
0.247353
0.250529
0.252389
0.252947
0.252212
0.25024
0.247163
0.243106
0.237463
0.230213
0.221589
0.212048
0.202067
0.192248
0.183181
0.175501
0.169738
0.166313
0.165383
0.166854
0.170319
0.174507
)
;
    }
    lowerWall
    {
        type            epsilonWallFunction;
        value           nonuniform List<scalar> 
62
(
0.0064969
0.0329443
0.0680789
0.103608
0.137556
0.16983
0.199811
0.226929
0.250589
0.270074
0.284622
0.29372
0.29726
0.295462
0.288903
0.280131
0.272482
0.262745
0.24825
0.224819
0.186182
0.12227
0.0231502
0.0231502
0.0559312
0.105797
0.157332
0.210282
0.267273
0.337778
0.473346
0.74467
0.576179
0.452351
0.363464
0.106111
0.110271
0.14822
0.183717
0.209039
0.201679
0.184737
0.192319
0.106111
0.228705
0.363162
0.408908
0.458035
0.523026
0.576943
0.611173
0.61888
0.594316
0.541453
0.492902
0.45545
0.393029
0.314411
0.247795
0.191851
0.111202
0.0313148
)
;
    }
    atmosphere
    {
        type            inletOutlet;
        inletValue      uniform 0.1;
        value           nonuniform List<scalar> 
46
(
0.1
0.1
0.1
0.1
0.1
0.1
0.1
0.1
0.1
0.1
0.1
0.1
0.1
0.1
0.1
0.1
0.1
0.1
0.1
0.1
0.1
0.1
0.1
0.1
0.1
0.1
0.1
0.1
0.1
0.1
0.1
0.0796475
0.0750406
0.0725964
0.0710558
0.0699424
0.0690706
0.0683889
0.0679281
0.0677904
0.0681674
0.0694013
0.0721668
0.0781188
0.0934513
0.174507
)
;
    }
    defaultFaces
    {
        type            empty;
    }
}


// ************************************************************************* //
