/*--------------------------------*- C++ -*----------------------------------*\
  =========                 |
  \\      /  F ield         | OpenFOAM: The Open Source CFD Toolbox
   \\    /   O peration     | Website:  https://openfoam.org
    \\  /    A nd           | Version:  13
     \\/     M anipulation  |
\*---------------------------------------------------------------------------*/
FoamFile
{
    format      ascii;
    class       volScalarField;
    location    "1.45";
    object      k;
}
// * * * * * * * * * * * * * * * * * * * * * * * * * * * * * * * * * * * * * //

dimensions      [0 2 -2 0 0 0 0];

internalField   nonuniform List<scalar> 
2268
(
0.00132629
0.00391788
0.00633727
0.00837505
0.0101114
0.0116397
0.0129813
0.0141437
0.0151261
0.0159181
0.016504
0.0168725
0.017022
0.016958
0.0166941
0.0163026
0.0159522
0.0155191
0.0149014
0.0139223
0.0122696
0.00925535
0.00310656
0.00308356
0.00913836
0.0139844
0.0181647
0.0217918
0.0249473
0.0276767
0.03001
0.0319652
0.033545
0.034743
0.0355576
0.0360002
0.036096
0.0358876
0.0354319
0.0348434
0.0340934
0.0330101
0.0312184
0.0280307
0.02225
0.00912475
0.00445465
0.0120772
0.0181511
0.0233861
0.0279234
0.0318567
0.0352502
0.0381512
0.0405924
0.0425873
0.0441383
0.0452502
0.0459385
0.0462301
0.0461715
0.0458369
0.0453191
0.0446038
0.0434767
0.0414601
0.0376669
0.0304913
0.0139675
0.00579825
0.0145664
0.0216043
0.0275849
0.0327316
0.0371719
0.0409941
0.0442637
0.0470268
0.0493072
0.0511137
0.0524563
0.0533532
0.0538302
0.0539272
0.0537173
0.0532788
0.0526024
0.0514577
0.0493257
0.0452332
0.0372937
0.0181929
0.00715343
0.017089
0.0249928
0.031571
0.037173
0.0419784
0.0461061
0.0496398
0.0526365
0.0551288
0.0571305
0.0586566
0.0597282
0.0603696
0.0606113
0.060516
0.0601487
0.0594981
0.0583328
0.0561325
0.0519011
0.0435066
0.0220483
0.00867948
0.01991
0.0285788
0.0356351
0.0415766
0.0466436
0.0509893
0.0547149
0.0578839
0.060537
0.0626896
0.0643599
0.0655724
0.0663514
0.0667219
0.0667343
0.066442
0.065824
0.0646546
0.0624362
0.0581909
0.0495677
0.0258447
0.0104338
0.0231418
0.032437
0.0398593
0.0460436
0.0512955
0.0558019
0.0596783
0.0629871
0.0657624
0.0680254
0.0698026
0.0711217
0.0720125
0.0724986
0.0726165
0.0724166
0.0718636
0.0707381
0.0685759
0.0644518
0.0558995
0.0301943
0.0124085
0.0266779
0.0364874
0.0441571
0.0504914
0.0558694
0.0605035
0.0645133
0.0679514
0.0708369
0.0732028
0.0750792
0.0764968
0.0774906
0.0780862
0.0783129
0.0782328
0.0778005
0.0768006
0.0748075
0.0709885
0.0630662
0.0378505
0.0081263
0.0138328
0.0189448
0.0205653
0.0222603
0.0243961
0.0261299
0.0272505
0.0275599
0.0268929
0.0253386
0.0239261
0.0227563
0.0206834
0.0178813
0.0152702
0.0127655
0.00878147
0.00369281
0.0149375
0.0309857
0.0408604
0.0463383
0.0497813
0.0540167
0.0577127
0.0602513
0.0610736
0.0597976
0.0565495
0.0533943
0.0500599
0.0456114
0.040028
0.0342766
0.0280488
0.0197225
0.00817976
0.0183755
0.0405478
0.0515258
0.0601113
0.0650123
0.0701035
0.0749399
0.0784769
0.0798742
0.0785511
0.0747279
0.0702945
0.0655615
0.0598184
0.0526805
0.0450005
0.0365484
0.0259925
0.0111398
0.0212579
0.0475085
0.0579173
0.0683587
0.0752567
0.0811323
0.086849
0.0915386
0.0941364
0.0933632
0.0892227
0.0838008
0.0779165
0.0711001
0.0626935
0.0534386
0.0432867
0.0309093
0.0141644
0.0231192
0.0500965
0.0627954
0.0721031
0.079775
0.0867698
0.0932758
0.0986542
0.102269
0.103227
0.100823
0.0953827
0.0888063
0.0811657
0.0717939
0.0612708
0.0496012
0.0349902
0.015644
0.0226406
0.0498208
0.066088
0.0758832
0.0819889
0.089013
0.0960552
0.101941
0.106002
0.107907
0.107314
0.103587
0.0978725
0.0903871
0.0806291
0.06922
0.0561624
0.0386875
0.0160023
0.0215568
0.0488582
0.0689393
0.0803844
0.0850659
0.0911251
0.0981165
0.104374
0.108841
0.111128
0.11105
0.108613
0.104254
0.0977935
0.0885946
0.0771673
0.0632253
0.0433254
0.0177581
0.0228491
0.0492716
0.0715084
0.0846204
0.0888665
0.0938904
0.100376
0.106678
0.111448
0.114099
0.114451
0.112669
0.10912
0.103541
0.0952616
0.0843274
0.0701331
0.0490282
0.020481
0.0149162
0.0318327
0.0427169
0.0508302
0.057376
0.062898
0.0676691
0.0718169
0.0753831
0.078389
0.0808701
0.082872
0.0844448
0.0856251
0.0864489
0.0869613
0.0871985
0.0870973
0.0864855
0.0849962
0.0819825
0.0759779
0.0620849
0.0191121
0.0401102
0.0526431
0.06156
0.0685104
0.074214
0.0790495
0.0831944
0.0866818
0.0895347
0.0918253
0.0936463
0.0950758
0.0961838
0.0970372
0.0976747
0.0980884
0.0982993
0.0981091
0.0971295
0.0946839
0.0899132
0.0834437
0.0239374
0.0499045
0.0640659
0.0738464
0.0812616
0.0871427
0.0919765
0.0960032
0.099244
0.101747
0.103657
0.105123
0.106233
0.107045
0.107608
0.10796
0.108102
0.108101
0.107792
0.106844
0.104849
0.101529
0.0972676
0.0298194
0.0613486
0.0767519
0.0870811
0.0947421
0.100659
0.105406
0.109242
0.112153
0.114243
0.115746
0.116847
0.117627
0.11814
0.118448
0.11862
0.118688
0.11857
0.118195
0.117398
0.115997
0.113931
0.111448
0.0382263
0.0739468
0.0898378
0.10013
0.107699
0.113522
0.118182
0.121803
0.124375
0.126115
0.12733
0.128181
0.128724
0.129055
0.129308
0.129584
0.129857
0.130006
0.129938
0.129626
0.129057
0.128186
0.127189
0.0483066
0.0864062
0.101793
0.11129
0.118377
0.123995
0.128561
0.132037
0.134439
0.136088
0.137291
0.13815
0.13873
0.139185
0.139707
0.140382
0.141096
0.141731
0.142314
0.14287
0.143341
0.143706
0.144097
0.0587341
0.0962099
0.111577
0.119937
0.126148
0.131326
0.13563
0.138976
0.14142
0.143258
0.144716
0.145903
0.146915
0.147894
0.149007
0.150303
0.151685
0.153091
0.154569
0.156135
0.15774
0.159364
0.161073
0.0579507
0.102175
0.123062
0.128611
0.132873
0.137198
0.141122
0.144263
0.146666
0.148617
0.150341
0.151949
0.153531
0.155194
0.157015
0.159037
0.16123
0.163575
0.166094
0.168775
0.171558
0.174404
0.177339
0.0519566
0.104381
0.145984
0.140125
0.139919
0.142877
0.146482
0.149443
0.151592
0.153375
0.15514
0.157125
0.159287
0.161601
0.164099
0.166804
0.169754
0.172972
0.176469
0.180217
0.184163
0.188266
0.192484
0.0447805
0.0908053
0.130578
0.144321
0.145486
0.147886
0.151968
0.15524
0.156955
0.158252
0.159536
0.161748
0.164502
0.167553
0.170775
0.174168
0.177826
0.181817
0.186167
0.19088
0.195959
0.201437
0.207417
0.0377017
0.0822416
0.113896
0.131351
0.140249
0.145902
0.151063
0.155699
0.158435
0.160605
0.162536
0.165078
0.168944
0.173154
0.177376
0.181656
0.186111
0.190839
0.195861
0.201372
0.207541
0.214719
0.223261
0.0351959
0.0805661
0.108491
0.125647
0.13626
0.144027
0.149912
0.154224
0.157272
0.16002
0.162664
0.16586
0.169878
0.174244
0.178807
0.18359
0.188628
0.193968
0.199803
0.206232
0.213471
0.22153
0.230637
0.0341146
0.078421
0.10461
0.122009
0.133967
0.142405
0.148545
0.152751
0.155921
0.159036
0.162385
0.165958
0.1695
0.173523
0.178089
0.183294
0.189131
0.195499
0.202224
0.209008
0.215441
0.221337
0.228188
0.0333049
0.0771911
0.101752
0.11872
0.131023
0.13994
0.146237
0.150771
0.154482
0.158118
0.161845
0.165349
0.168947
0.172777
0.17703
0.181816
0.187093
0.192716
0.198522
0.204197
0.209516
0.214487
0.219812
0.034209
0.0773158
0.100176
0.116241
0.128163
0.13699
0.143478
0.148418
0.152588
0.156461
0.160177
0.163668
0.167054
0.170537
0.174235
0.178243
0.182565
0.18712
0.191779
0.196363
0.200639
0.204583
0.208561
0.0354358
0.0775169
0.0988759
0.113815
0.125086
0.133673
0.14026
0.145511
0.149985
0.153978
0.157573
0.160844
0.16397
0.167125
0.170371
0.173763
0.177319
0.18098
0.18463
0.188123
0.191303
0.194153
0.196755
0.0360276
0.0768097
0.0969206
0.110841
0.12145
0.129754
0.136369
0.141806
0.146458
0.150543
0.154136
0.157318
0.160281
0.163198
0.166127
0.169093
0.172091
0.175065
0.177915
0.180524
0.182775
0.184666
0.186221
0.0356465
0.0749042
0.093945
0.107035
0.117092
0.12514
0.131738
0.137286
0.142074
0.14627
0.149958
0.153211
0.156163
0.158969
0.161708
0.164396
0.167015
0.169517
0.171824
0.173854
0.175515
0.176814
0.177775
0.0343896
0.071834
0.0899089
0.102341
0.111973
0.119821
0.1264
0.132039
0.136963
0.141309
0.145154
0.148563
0.151624
0.154454
0.157128
0.159672
0.162075
0.164305
0.16631
0.168034
0.169406
0.17044
0.171166
0.0324208
0.0677408
0.0849011
0.0967894
0.106112
0.113825
0.120408
0.126147
0.131222
0.135746
0.139787
0.143397
0.146637
0.149585
0.152305
0.154828
0.15716
0.159287
0.161177
0.162795
0.164089
0.165075
0.165792
0.0298779
0.0628008
0.0790574
0.0904719
0.0995675
0.107199
0.113813
0.119661
0.124897
0.129614
0.133868
0.137698
0.141149
0.144272
0.147116
0.149716
0.152088
0.154232
0.156133
0.157772
0.15911
0.160167
0.160979
0.0269037
0.057229
0.0725698
0.0835401
0.0924423
0.100019
0.106676
0.112634
0.118026
0.12293
0.127393
0.131443
0.135112
0.138435
0.141449
0.144186
0.146667
0.148902
0.150887
0.152613
0.154055
0.15523
0.156174
0.0236819
0.0512859
0.0656904
0.0762112
0.0848997
0.0924182
0.0991026
0.105151
0.110677
0.115745
0.120393
0.124644
0.128518
0.13204
0.135238
0.138138
0.140763
0.143124
0.145228
0.147071
0.148636
0.14994
0.151016
0.0206573
0.0452362
0.0587057
0.0687547
0.0771897
0.0846049
0.0912739
0.0973694
0.102985
0.108175
0.112969
0.117384
0.121433
0.125133
0.128504
0.131567
0.134341
0.13684
0.139071
0.141038
0.142729
0.144159
0.145359
0.0178889
0.0395895
0.0520681
0.0615673
0.0696473
0.0768647
0.0834488
0.0895284
0.0951698
0.100423
0.105307
0.109835
0.114014
0.117854
0.12137
0.124575
0.127487
0.130116
0.132471
0.134557
0.136367
0.137915
0.139227
0.0154739
0.0346456
0.0461276
0.0550275
0.0626866
0.069606
0.0759888
0.0819407
0.0875227
0.0927698
0.0976745
0.102252
0.106503
0.110434
0.114053
0.117367
0.12039
0.123129
0.125593
0.127787
0.129706
0.131363
0.13278
0.0135175
0.0306149
0.0411488
0.0494301
0.0566199
0.0631661
0.0692637
0.0749984
0.0804179
0.0855445
0.0903835
0.0949424
0.0992015
0.103164
0.106834
0.110214
0.113311
0.116132
0.118682
0.120964
0.122978
0.124731
0.126243
0.0120665
0.0275777
0.0372628
0.0449434
0.0516499
0.0577851
0.0635367
0.0689822
0.0741623
0.0790945
0.0837827
0.0882249
0.0924125
0.0963438
0.10001
0.103405
0.106534
0.109399
0.112004
0.11435
0.116436
0.118268
0.119862
0.0110911
0.0254767
0.034448
0.0415819
0.0478273
0.0535523
0.0589357
0.0640541
0.0689464
0.0736293
0.0781065
0.0823741
0.0864243
0.0902499
0.0938429
0.0971978
0.100315
0.103183
0.105806
0.108184
0.110314
0.112202
0.113858
0.0105032
0.0241517
0.0325577
0.0392261
0.0450656
0.0504156
0.0554478
0.0602392
0.0648303
0.0692396
0.0734724
0.0775262
0.0813941
0.085068
0.0885394
0.091801
0.0948474
0.0976725
0.100274
0.10265
0.104792
0.106706
0.108397
0.0101978
0.0234019
0.0313908
0.0376957
0.0432023
0.0482397
0.0529669
0.0574627
0.0617698
0.0659099
0.0698916
0.0737153
0.0773766
0.0808685
0.0841835
0.0873137
0.0902525
0.0929934
0.0955315
0.0978624
0.0999803
0.101886
0.103583
0.0100902
0.0230559
0.0307659
0.0368153
0.0420821
0.0468835
0.0513687
0.0556177
0.0596762
0.0635698
0.0673113
0.0709056
0.0743518
0.0776461
0.0807826
0.0837549
0.0865563
0.0891804
0.0916214
0.0938743
0.0959328
0.0977945
0.099462
0.0101061
0.0229972
0.0305765
0.0364971
0.0416272
0.0462729
0.0505804
0.054632
0.0584783
0.0621504
0.0656671
0.0690385
0.0722683
0.0753566
0.0783006
0.0810957
0.0837368
0.086218
0.0885338
0.0906788
0.0926469
0.0944347
0.0960417
0.0102161
0.0232203
0.0308522
0.0367867
0.0418827
0.0464435
0.050621
0.0545069
0.0581611
0.061624
0.0649216
0.0680704
0.0710795
0.0739529
0.0766912
0.0792924
0.0817531
0.0840689
0.0862347
0.0882457
0.0900959
0.0917813
0.0932997
0.0104562
0.0238773
0.031799
0.037895
0.0430367
0.0475481
0.0516052
0.0553212
0.0587733
0.0620141
0.065079
0.067991
0.0707642
0.0734065
0.0759215
0.0783097
0.0805693
0.0826973
0.0846897
0.086542
0.0882489
0.089806
0.0912095
0.0109646
0.0253383
0.033821
0.0401876
0.0453919
0.0498239
0.053712
0.0572063
0.0604078
0.063384
0.0661793
0.0688223
0.0713309
0.0737158
0.0759825
0.0781332
0.0801676
0.0820838
0.0838785
0.0855479
0.0870871
0.0884917
0.0897565
0.0120447
0.0281938
0.0374706
0.0441147
0.0492923
0.0535269
0.0571312
0.0603037
0.0631712
0.065814
0.0682829
0.0706092
0.0728124
0.074904
0.0768902
0.0787738
0.0805552
0.0822329
0.0838043
0.0852662
0.0866139
0.0878429
0.0889469
0.0141873
0.0331684
0.0433458
0.0501022
0.0550246
0.0588523
0.0620028
0.0647207
0.0671506
0.069378
0.0714537
0.073408
0.0752586
0.0770157
0.0786848
0.0802681
0.081766
0.083177
0.0844989
0.0857284
0.0868614
0.0878933
0.0888167
0.0181131
0.0410933
0.0519898
0.0584228
0.0627079
0.0658529
0.0683597
0.0704902
0.0723854
0.0741224
0.0757443
0.0772752
0.0787286
0.0801117
0.0814279
0.0826784
0.0838627
0.0849795
0.0860263
0.0870002
0.0878972
0.0887127
0.0894389
0.0252412
0.0530495
0.0637422
0.0690289
0.0721831
0.0743762
0.0760912
0.0775467
0.0788488
0.0800512
0.0811823
0.0822567
0.0832822
0.0842624
0.0851985
0.0860904
0.0869371
0.0877369
0.0884875
0.0891864
0.08983
0.0904143
0.0909315
0.0403247
0.0704784
0.0783544
0.0813388
0.0829499
0.0840627
0.0849559
0.0857367
0.086452
0.0871245
0.0877655
0.0883806
0.0889722
0.0895413
0.0900874
0.0906099
0.0911075
0.0915788
0.0920221
0.0924355
0.0928164
0.093162
0.093466
0.0861722
0.0935548
0.0939137
0.0940587
0.0942479
0.094458
0.0946706
0.0948794
0.0950829
0.095281
0.0954742
0.0956623
0.0958452
0.0960227
0.0961943
0.0963593
0.0965173
0.0966676
0.0968096
0.0969423
0.097065
0.0971764
0.097274
0.0515664
0.0436108
0.0373219
0.0325507
0.0783079
0.0740147
0.0698713
0.0661473
0.0943866
0.0921136
0.0898461
0.0879359
0.109838
0.108776
0.107932
0.107396
0.126758
0.126612
0.12664
0.126895
0.144643
0.145147
0.145767
0.146506
0.162509
0.163571
0.164663
0.165784
0.179635
0.181258
0.18286
0.184426
0.195658
0.197899
0.200162
0.202419
0.212179
0.215499
0.218729
0.221811
0.230606
0.235359
0.239812
0.243942
0.238892
0.244964
0.250754
0.254597
0.234987
0.239465
0.243407
0.246052
0.224737
0.227791
0.230312
0.231855
0.211908
0.213764
0.215134
0.215861
0.198625
0.199539
0.200108
0.200306
0.187151
0.187487
0.187565
0.187434
0.178211
0.178257
0.178097
0.177812
0.171433
0.171387
0.171163
0.17086
0.166065
0.166036
0.165846
0.165602
0.161338
0.161375
0.161259
0.1611
0.15664
0.156754
0.156726
0.156657
0.151588
0.151781
0.151839
0.151856
0.146025
0.146292
0.146435
0.146534
0.139982
0.140322
0.140546
0.140723
0.133617
0.134025
0.134328
0.134581
0.127157
0.127628
0.128006
0.128331
0.120842
0.12137
0.121814
0.122205
0.114891
0.115465
0.115964
0.116411
0.109465
0.110072
0.110612
0.111101
0.104667
0.105292
0.105857
0.106373
0.100537
0.101167
0.101741
0.102268
0.0970835
0.0977009
0.0982682
0.0987904
0.094287
0.0948768
0.0954214
0.0959238
0.0921235
0.092672
0.0931798
0.0936481
0.0905793
0.091074
0.0915322
0.0919537
0.0896627
0.0900928
0.0904899
0.090853
0.0894116
0.0897677
0.0900943
0.0903895
0.0899022
0.0901775
0.090427
0.0906477
0.0912573
0.0914489
0.0916189
0.0917637
0.0936555
0.0937658
0.0938606
0.0939365
0.0973348
0.09737
0.097399
0.0974205
0.0334661
0.0538017
0.0749408
0.0898712
0.0953445
0.0993883
0.104835
0.110758
0.115736
0.118894
0.119906
0.118948
0.116341
0.111843
0.104548
0.0939098
0.0793212
0.0580426
0.0257661
0.062588
0.0714135
0.0852526
0.098018
0.105228
0.109372
0.113825
0.118713
0.123111
0.12626
0.127805
0.127765
0.126199
0.122468
0.115263
0.104124
0.0887888
0.0673326
0.0334909
0.0860254
0.0911009
0.100397
0.110267
0.117508
0.122133
0.125984
0.12964
0.132787
0.135128
0.136504
0.136833
0.135815
0.132428
0.125251
0.113763
0.0978476
0.0757944
0.0379504
0.107228
0.110531
0.117068
0.124978
0.1317
0.136452
0.13987
0.142325
0.144136
0.14538
0.146142
0.146311
0.145318
0.141892
0.134547
0.122713
0.106357
0.0834697
0.0413166
0.127785
0.130029
0.134177
0.13996
0.14582
0.150476
0.15358
0.155383
0.15632
0.156706
0.156796
0.156476
0.155013
0.150962
0.142853
0.130221
0.113163
0.0893704
0.043885
0.147911
0.149849
0.152588
0.156566
0.16111
0.165032
0.167672
0.169076
0.169411
0.169095
0.168428
0.16735
0.165093
0.16004
0.150582
0.136435
0.118111
0.0932814
0.0457516
0.167667
0.169828
0.172136
0.175073
0.178439
0.181404
0.183291
0.184085
0.183753
0.182762
0.181425
0.179609
0.17661
0.170532
0.159295
0.142698
0.12226
0.0958573
0.046976
0.18697
0.189726
0.192201
0.19478
0.197454
0.199599
0.200732
0.200967
0.199873
0.198154
0.196286
0.193796
0.19057
0.184694
0.17189
0.151286
0.127058
0.0980142
0.0477549
0.206101
0.209727
0.21262
0.215306
0.217777
0.219396
0.219992
0.220099
0.217912
0.215377
0.213588
0.20902
0.200612
0.186747
0.168285
0.144992
0.119484
0.0930229
0.046996
0.226551
0.2305
0.233518
0.236667
0.239269
0.240229
0.240573
0.239038
0.23271
0.224454
0.218002
0.20886
0.194538
0.176855
0.156054
0.1327
0.108283
0.0827391
0.0417005
0.249274
0.252079
0.253968
0.256842
0.256746
0.253601
0.249095
0.240566
0.227843
0.214406
0.20312
0.191367
0.177905
0.161371
0.141185
0.119022
0.0968915
0.0711744
0.036146
0.257885
0.257623
0.258103
0.257499
0.253994
0.246197
0.235642
0.224441
0.211316
0.197935
0.186153
0.174668
0.162138
0.146064
0.126838
0.106501
0.086243
0.0641754
0.0319353
0.248113
0.246127
0.243523
0.240554
0.235444
0.226762
0.216356
0.205245
0.193217
0.181305
0.170409
0.159775
0.147715
0.132191
0.114426
0.0963091
0.0782663
0.0586803
0.028768
0.232651
0.22952
0.225123
0.220479
0.214469
0.20635
0.197141
0.187321
0.176953
0.166662
0.156908
0.146945
0.135255
0.120893
0.105198
0.0894029
0.0731562
0.0544163
0.0265764
0.215811
0.212431
0.207576
0.202219
0.196053
0.188848
0.180963
0.172584
0.163862
0.155127
0.146433
0.137055
0.126045
0.113248
0.0996434
0.0856587
0.0705872
0.0521368
0.0253002
0.19985
0.196827
0.192432
0.187379
0.18174
0.175556
0.168893
0.16185
0.154547
0.14708
0.139262
0.130539
0.120456
0.109137
0.0971328
0.0844179
0.070013
0.0516188
0.0247812
0.186775
0.18427
0.180665
0.176387
0.171599
0.166397
0.160794
0.15485
0.148622
0.142068
0.134942
0.126879
0.117693
0.107536
0.0966289
0.0846792
0.0706438
0.0522552
0.024798
0.177111
0.175109
0.172266
0.168807
0.164863
0.1605
0.155737
0.15061
0.145124
0.139185
0.13258
0.125083
0.116617
0.107268
0.0970514
0.0855655
0.0717772
0.0534442
0.0251111
0.170247
0.16869
0.166466
0.163685
0.160419
0.156705
0.152557
0.147992
0.142988
0.137451
0.131221
0.124157
0.116215
0.107407
0.0976349
0.0864667
0.0729106
0.0547284
0.0255258
0.16514
0.163966
0.162214
0.159936
0.157169
0.153922
0.150204
0.146015
0.141324
0.136055
0.130098
0.12336
0.115798
0.107374
0.0979347
0.0870484
0.0737733
0.0558519
0.0259247
0.160806
0.159948
0.158551
0.15664
0.154232
0.151322
0.147909
0.143985
0.139521
0.13446
0.128728
0.122259
0.115008
0.106906
0.0977758
0.0872011
0.0742757
0.0567104
0.0262534
0.156518
0.155919
0.154796
0.153165
0.151031
0.148382
0.145212
0.141508
0.137246
0.132387
0.126879
0.120674
0.113724
0.105945
0.0971496
0.0869363
0.0744257
0.0572901
0.0264924
0.151856
0.151471
0.150575
0.149177
0.147277
0.144861
0.141916
0.138431
0.134388
0.129757
0.124505
0.118592
0.111967
0.10454
0.0961205
0.0863179
0.0742656
0.0575998
0.0266369
0.14666
0.146464
0.145769
0.144586
0.142911
0.140726
0.138018
0.134776
0.130985
0.126626
0.121671
0.116088
0.109824
0.102783
0.0947745
0.0854118
0.0738376
0.0576599
0.0266882
0.140969
0.140947
0.140446
0.139474
0.138029
0.136087
0.133636
0.130667
0.127165
0.123116
0.118498
0.113278
0.107401
0.100769
0.0931875
0.0842735
0.0731724
0.0574772
0.0266466
0.134943
0.135089
0.134779
0.134022
0.132811
0.131125
0.12895
0.126275
0.123088
0.119376
0.115117
0.110277
0.104798
0.0985778
0.0914198
0.0829393
0.0722879
0.0570578
0.0265152
0.128804
0.129113
0.12899
0.128444
0.12747
0.126042
0.124149
0.121777
0.118915
0.115547
0.11165
0.107187
0.102098
0.0962727
0.0895133
0.0814357
0.0711966
0.0564026
0.026301
0.122781
0.123242
0.123296
0.122953
0.122204
0.121027
0.119407
0.117331
0.114783
0.111747
0.108196
0.10409
0.0993617
0.0938987
0.0874996
0.0797813
0.0699105
0.0555185
0.0260157
0.117076
0.11767
0.117882
0.117721
0.117176
0.116228
0.11486
0.113055
0.110797
0.108065
0.104828
0.101042
0.096635
0.0914901
0.085404
0.0779974
0.0684501
0.0544528
0.0256353
0.111836
0.112537
0.11288
0.112872
0.112502
0.111751
0.110601
0.109033
0.107027
0.10456
0.101595
0.0980847
0.0939519
0.0890761
0.0832534
0.0761112
0.0668609
0.0532415
0.0251378
0.107153
0.107928
0.10837
0.108481
0.108249
0.107657
0.106684
0.105311
0.103516
0.101268
0.0985303
0.095248
0.0913409
0.0866857
0.0810842
0.0741712
0.0651748
0.0519002
0.0245316
0.103067
0.103881
0.104386
0.104578
0.104445
0.10397
0.103134
0.101913
0.100283
0.0982114
0.0956548
0.0925567
0.0888336
0.0843608
0.0789386
0.072211
0.0634297
0.0504703
0.0238476
0.0995829
0.1004
0.10093
0.101164
0.101092
0.100695
0.0999542
0.0988449
0.0973397
0.0954035
0.0929904
0.0900389
0.0864627
0.0821351
0.0768572
0.0702811
0.0616829
0.0490106
0.023116
0.0966847
0.0974711
0.0979899
0.0982308
0.0981811
0.0978247
0.0971411
0.0961062
0.0946903
0.0928555
0.0905529
0.0877174
0.0842595
0.0800506
0.0748925
0.0684442
0.0600042
0.0475893
0.022382
0.0943544
0.0950789
0.0955529
0.0957643
0.0957008
0.0953482
0.0946875
0.0936943
0.0923373
0.0905762
0.088359
0.0856174
0.0822591
0.0781534
0.0731017
0.0667681
0.0584694
0.0462832
0.0216884
0.0925844
0.0932175
0.0936136
0.0937592
0.0936444
0.0932592
0.0925882
0.0916075
0.0902843
0.0885754
0.0864258
0.0837642
0.0804957
0.0764872
0.0715392
0.065318
0.0571522
0.0451673
0.0210883
0.0913893
0.0919028
0.0921868
0.092226
0.0920156
0.0915569
0.0908414
0.0898461
0.0885353
0.0868621
0.084768
0.0821786
0.0789966
0.075087
0.0702482
0.0641458
0.0561134
0.044307
0.0206249
0.0908156
0.0911834
0.0913183
0.0911996
0.0908325
0.0902469
0.0894475
0.0884104
0.0870932
0.0854427
0.0833952
0.0808733
0.0777776
0.0739714
0.0692514
0.0632801
0.0553883
0.043743
0.0203377
0.0909529
0.091155
0.091103
0.090755
0.0901292
0.0893374
0.0884056
0.0872985
0.0859581
0.084319
0.0823102
0.0798506
0.0768392
0.0731389
0.0685453
0.0627168
0.0549756
0.0434808
0.0202406
0.0919475
0.0919826
0.0917195
0.0910476
0.0899551
0.088829
0.0877054
0.0865021
0.0851248
0.0834874
0.0815085
0.0791026
0.0761675
0.072567
0.0680973
0.0624144
0.0548291
0.0434792
0.0203301
0.0940156
0.0939277
0.0934995
0.0924313
0.0903495
0.088687
0.0873152
0.0860022
0.0845826
0.0829402
0.080981
0.0786146
0.0757387
0.0722185
0.0678528
0.0622979
0.0548571
0.0436443
0.0205711
0.0974347
0.0973522
0.0970177
0.0958454
0.0911706
0.0887752
0.0871672
0.085768
0.0843172
0.0826687
0.0807184
0.0783728
0.0755291
0.0720543
0.0677496
0.0622736
0.0549284
0.0438188
0.0208699
)
;

boundaryField
{
    leftWall
    {
        type            kqRWallFunction;
        value           nonuniform List<scalar> 
50
(
0.00132629
0.00308356
0.00445465
0.00579825
0.00715343
0.00867948
0.0104338
0.0124085
0.0149162
0.0191121
0.0239374
0.0298194
0.0382263
0.0483066
0.0587341
0.0579507
0.0519566
0.0447805
0.0377017
0.0351959
0.0341146
0.0333049
0.034209
0.0354358
0.0360276
0.0356465
0.0343896
0.0324208
0.0298779
0.0269037
0.0236819
0.0206573
0.0178889
0.0154739
0.0135175
0.0120665
0.0110911
0.0105032
0.0101978
0.0100902
0.0101061
0.0102161
0.0104562
0.0109646
0.0120447
0.0141873
0.0181131
0.0252412
0.0403247
0.0861722
)
;
    }
    rightWall
    {
        type            kqRWallFunction;
        value           nonuniform List<scalar> 
50
(
0.00369281
0.00817976
0.0111398
0.0141644
0.015644
0.0160023
0.0177581
0.020481
0.0257661
0.0334909
0.0379504
0.0413166
0.043885
0.0457516
0.046976
0.0477549
0.046996
0.0417005
0.036146
0.0319353
0.028768
0.0265764
0.0253002
0.0247812
0.024798
0.0251111
0.0255258
0.0259247
0.0262534
0.0264924
0.0266369
0.0266882
0.0266466
0.0265152
0.026301
0.0260157
0.0256353
0.0251378
0.0245316
0.0238476
0.023116
0.022382
0.0216884
0.0210883
0.0206249
0.0203377
0.0202406
0.0203301
0.0205711
0.0208699
)
;
    }
    lowerWall
    {
        type            kqRWallFunction;
        value           nonuniform List<scalar> 
62
(
0.00132629
0.00391788
0.00633727
0.00837505
0.0101114
0.0116397
0.0129813
0.0141437
0.0151261
0.0159181
0.016504
0.0168725
0.017022
0.016958
0.0166941
0.0163026
0.0159522
0.0155191
0.0149014
0.0139223
0.0122696
0.00925535
0.00310656
0.00310656
0.00912475
0.0139675
0.0181929
0.0220483
0.0258447
0.0301943
0.0378505
0.0515664
0.0436108
0.0373219
0.0325507
0.0081263
0.0149375
0.0183755
0.0212579
0.0231192
0.0226406
0.0215568
0.0228491
0.0081263
0.0138328
0.0189448
0.0205653
0.0222603
0.0243961
0.0261299
0.0272505
0.0275599
0.0268929
0.0253386
0.0239261
0.0227563
0.0206834
0.0178813
0.0152702
0.0127655
0.00878147
0.00369281
)
;
    }
    atmosphere
    {
        type            inletOutlet;
        inletValue      uniform 0.1;
        value           nonuniform List<scalar> 
46
(
0.1
0.1
0.1
0.1
0.1
0.1
0.1
0.1
0.1
0.1
0.1
0.1
0.1
0.1
0.1
0.1
0.1
0.1
0.1
0.1
0.1
0.1
0.1
0.1
0.1
0.1
0.1
0.1
0.1
0.1
0.1
0.0911706
0.0887752
0.0871672
0.085768
0.0843172
0.0826687
0.0807184
0.0783728
0.0755291
0.0720543
0.0677496
0.0622736
0.0549284
0.0438188
0.0208699
)
;
    }
    defaultFaces
    {
        type            empty;
    }
}


// ************************************************************************* //
