/*--------------------------------*- C++ -*----------------------------------*\
  =========                 |
  \\      /  F ield         | OpenFOAM: The Open Source CFD Toolbox
   \\    /   O peration     | Website:  https://openfoam.org
    \\  /    A nd           | Version:  13
     \\/     M anipulation  |
\*---------------------------------------------------------------------------*/
FoamFile
{
    format      ascii;
    class       volScalarField;
    location    "1.45";
    object      nut;
}
// * * * * * * * * * * * * * * * * * * * * * * * * * * * * * * * * * * * * * //

dimensions      [0 2 -1 0 0 0 0];

internalField   nonuniform List<scalar> 
2268
(
2.43678e-05
4.19339e-05
5.30926e-05
6.09292e-05
6.68942e-05
7.17982e-05
7.59033e-05
7.9338e-05
8.21741e-05
8.4439e-05
8.61298e-05
8.72308e-05
8.77255e-05
8.75966e-05
8.68199e-05
8.53879e-05
8.40513e-05
8.24976e-05
8.05015e-05
7.75945e-05
7.27728e-05
6.30532e-05
3.75187e-05
7.80803e-05
0.000327432
0.000465241
0.000562695
0.000638295
0.000699343
0.000749272
0.000789817
0.000822001
0.0008463
0.000862778
0.000871195
0.000871164
0.00086222
0.000843763
0.000812939
0.00077115
0.000725984
0.000679028
0.000628129
0.000566245
0.000471321
0.000133977
9.3968e-05
0.000508262
0.000805064
0.0010278
0.00120394
0.00134719
0.00146452
0.00155961
0.00163455
0.00169026
0.00172686
0.00174399
0.00174109
0.0017175
0.00167266
0.001606
0.00152102
0.00142825
0.00132955
0.00121907
0.00107584
0.000825703
0.00016596
0.000107368
0.000606049
0.00102583
0.00135764
0.00162731
0.00184968
0.00203306
0.0021822
0.00229989
0.00238757
0.00244573
0.00247444
0.00247363
0.0024431
0.00238282
0.00229417
0.00218153
0.00205489
0.00191475
0.00174976
0.00152091
0.00110136
0.000189335
0.000119308
0.000667276
0.00117389
0.00159185
0.00194075
0.00223305
0.00247648
0.00267583
0.00283413
0.00295328
0.00303428
0.00307789
0.0030848
0.00305551
0.00299051
0.00289207
0.00276442
0.00261551
0.0024432
0.00222912
0.00191461
0.00132732
0.000208062
0.00013131
0.000716458
0.00128302
0.00176754
0.00218186
0.00253433
0.00283092
0.00307577
0.00327176
0.00342117
0.0035255
0.00358624
0.00360485
0.0035825
0.00352013
0.00342024
0.00328662
0.00312443
0.00292795
0.00267089
0.00227481
0.00152727
0.000224921
0.000143772
0.000763847
0.00137401
0.00191162
0.00238033
0.00278429
0.00312733
0.00341268
0.00364292
0.00382052
0.0039475
0.00402612
0.0040585
0.00404637
0.00399106
0.00389493
0.00376163
0.00359327
0.00338017
0.0030883
0.00262116
0.0017267
0.000242918
0.000156598
0.000814365
0.00146327
0.00204552
0.00255983
0.00300732
0.00339004
0.0037103
0.00397046
0.00417308
0.00432103
0.00441715
0.00446402
0.00446373
0.00441792
0.00432858
0.00419997
0.00403133
0.00380921
0.00349378
0.00297709
0.00197059
0.0002724
5.60102e-05
7.52989e-05
8.89454e-05
9.30864e-05
9.73658e-05
0.000102414
0.000106509
0.000109352
0.000110456
0.000109521
0.00010672
0.000104527
0.000102331
9.79631e-05
9.15262e-05
8.4691e-05
7.64462e-05
6.24114e-05
3.91929e-05
0.000182112
0.000540136
0.000708014
0.000795155
0.000851284
0.000929966
0.00099481
0.0010503
0.00108702
0.00109675
0.0010702
0.00107463
0.00105856
0.00101833
0.0009517
0.000859796
0.000721876
0.000511784
0.000139585
0.000205029
0.000892136
0.00121108
0.00140824
0.00157482
0.00175298
0.00190275
0.00202711
0.00211443
0.00215406
0.00214389
0.00213908
0.00210106
0.00201109
0.00185709
0.0016414
0.00132902
0.000863708
0.000163943
0.000221378
0.00112532
0.0015689
0.00184428
0.00210951
0.00237767
0.00260676
0.00279238
0.00292626
0.00300137
0.00302032
0.00300924
0.00295194
0.00281979
0.00259213
0.00226817
0.00180168
0.00110967
0.000185466
0.000230122
0.00125186
0.00184951
0.00218392
0.00250846
0.00284696
0.00314506
0.00338177
0.00355221
0.00366162
0.00371281
0.00370923
0.0036412
0.00348041
0.0031995
0.00279008
0.00219146
0.00128338
0.000195139
0.000228748
0.00130831
0.00207456
0.00250553
0.00285666
0.00323659
0.00358747
0.00386895
0.00406943
0.00419965
0.00426975
0.00428026
0.00421124
0.00403555
0.00371968
0.00324526
0.0025339
0.00140118
0.000198392
0.000226389
0.00132668
0.00226985
0.0028197
0.00319734
0.00359967
0.00398556
0.00430336
0.00453195
0.00467783
0.00475333
0.00476797
0.00469939
0.00451433
0.00417612
0.00365546
0.00285773
0.00155001
0.000210434
0.00024432
0.00137317
0.00245893
0.00311712
0.00353238
0.00395244
0.00436009
0.00470331
0.00495499
0.0051159
0.00519709
0.00520929
0.00513579
0.00493957
0.00458361
0.00402854
0.00317298
0.00176932
0.000227671
0.000171747
0.000905945
0.00162461
0.00226905
0.00284157
0.00334306
0.00377443
0.00413737
0.00443416
0.00466812
0.00484338
0.00496393
0.00503315
0.00505346
0.00502682
0.0049556
0.00484239
0.00468156
0.00445761
0.00412755
0.00359177
0.00265197
0.00114215
0.00019487
0.0010922
0.0019505
0.00268896
0.00332509
0.00387141
0.0043365
0.00472645
0.00504573
0.00529938
0.00549322
0.00563271
0.005722
0.00576394
0.00576046
0.00571248
0.00561791
0.00547615
0.00527183
0.00497089
0.00450875
0.00379679
0.00284255
0.000219082
0.00136166
0.00239514
0.00323111
0.00391706
0.00448593
0.00495979
0.00535272
0.00567295
0.00592786
0.00612518
0.00627175
0.00637213
0.00642897
0.00644365
0.00641634
0.00634396
0.00622677
0.00605405
0.00580386
0.00544434
0.00494959
0.00435093
0.000245778
0.00169511
0.0029106
0.00383337
0.00455556
0.00513409
0.00560499
0.00598993
0.00630115
0.00654876
0.0067424
0.00689
0.00699647
0.00706454
0.00709574
0.00709099
0.00704947
0.00696535
0.00683387
0.00664446
0.0063841
0.00605043
0.00567263
0.000279879
0.00200114
0.00339788
0.00440292
0.0051595
0.00574866
0.00621931
0.00659693
0.00689943
0.00714048
0.00733129
0.00748021
0.00759261
0.00767204
0.0077212
0.00774197
0.00773402
0.00769313
0.00761271
0.00748764
0.00731744
0.00710824
0.00688334
0.000313875
0.00224811
0.00379759
0.00487749
0.00567103
0.00627611
0.00675075
0.00712851
0.00743047
0.0076729
0.0078681
0.00802381
0.00814705
0.00824234
0.00831364
0.00836326
0.00839055
0.00839256
0.00836653
0.00831084
0.00822602
0.00811896
0.00800657
0.000342168
0.00235584
0.00402965
0.00518874
0.0060367
0.00667513
0.00716909
0.0075589
0.0078701
0.00812164
0.00832758
0.00849813
0.0086408
0.00875906
0.00885733
0.00893818
0.00900159
0.00904621
0.00907125
0.00907657
0.00906355
0.00903746
0.00900905
0.000332883
0.00234507
0.00410526
0.00532289
0.0062459
0.00693993
0.00747209
0.00788853
0.00821934
0.0084873
0.00870991
0.00889998
0.00906568
0.0092118
0.00933988
0.00945251
0.00955089
0.00963506
0.00970513
0.00976157
0.00980568
0.00984088
0.00987309
0.000313829
0.0019795
0.00408173
0.00530362
0.006316
0.00708403
0.00767176
0.00812935
0.00848912
0.00877859
0.00901988
0.00923245
0.00942493
0.00960018
0.00975897
0.00990183
0.010031
0.0101476
0.0102527
0.0103479
0.010435
0.0105163
0.010593
0.000287488
0.00162172
0.00347959
0.00505398
0.00625057
0.00711836
0.00778057
0.00829501
0.00869039
0.00900531
0.00926257
0.00949751
0.00971848
0.00992546
0.0101159
0.0102878
0.0104436
0.0105851
0.0107143
0.0108353
0.0109526
0.0110701
0.011186
0.000262986
0.00158526
0.00326584
0.00478049
0.00602372
0.00698861
0.00773403
0.00831901
0.00876824
0.00912933
0.00942605
0.00968728
0.00994411
0.0101882
0.0104123
0.0106141
0.0107951
0.0109566
0.0111002
0.0112363
0.0113737
0.0115238
0.0116813
0.000262639
0.00185576
0.00342373
0.00479301
0.00595904
0.00692718
0.00770279
0.00831673
0.00879803
0.00918852
0.00951503
0.0098068
0.0100851
0.0103471
0.0105895
0.010811
0.0110099
0.0111856
0.0113424
0.011489
0.0116408
0.0118057
0.0119688
0.000262885
0.00198506
0.00356063
0.00488674
0.00601008
0.00694755
0.00771628
0.00833032
0.00881765
0.00921702
0.00956507
0.00988025
0.0101657
0.0104331
0.0106839
0.010919
0.0111366
0.011335
0.011512
0.0116738
0.0118237
0.0119626
0.0120955
0.000256901
0.00204874
0.00366501
0.00498238
0.00607703
0.00698589
0.00772929
0.00832887
0.00881278
0.00921993
0.00958122
0.0099056
0.0102024
0.0104767
0.0107333
0.0109741
0.0111977
0.0114006
0.011581
0.0117382
0.0118772
0.0120009
0.0121007
0.000259076
0.00210923
0.0037556
0.0050678
0.00613399
0.00700826
0.00772259
0.00830222
0.00877987
0.009189
0.00955347
0.00988301
0.0101832
0.0104597
0.0107168
0.0109565
0.0111781
0.0113795
0.011559
0.0117157
0.0118498
0.0119607
0.0120439
0.000262833
0.00215107
0.00382052
0.00511985
0.0061568
0.00699617
0.00767951
0.00824049
0.00871081
0.00911748
0.00947899
0.00980568
0.0101042
0.0103803
0.0106373
0.0108767
0.0110983
0.0113006
0.0114813
0.0116384
0.0117705
0.0118758
0.0119502
0.000264511
0.00216167
0.0038423
0.00512462
0.00612992
0.00693571
0.00759194
0.00813566
0.00859665
0.00899789
0.00935506
0.00967813
0.00997461
0.0102502
0.0105081
0.0107493
0.0109735
0.0111789
0.0113627
0.0115224
0.0116552
0.0117598
0.0118338
0.000263288
0.00214687
0.00381781
0.005076
0.00604949
0.00682456
0.00745664
0.00798424
0.00843556
0.00883102
0.0091847
0.00950613
0.00980236
0.0100789
0.0103387
0.0105827
0.0108103
0.0110195
0.0112076
0.0113718
0.0115092
0.0116186
0.0116989
0.000259084
0.00210883
0.00374992
0.00497588
0.00591695
0.00666383
0.00727461
0.00778807
0.00823103
0.00862216
0.00897423
0.00929606
0.00959403
0.00987293
0.0101355
0.0103827
0.0106139
0.0108274
0.0110206
0.011191
0.0113358
0.0114538
0.0115448
0.000252177
0.00204909
0.0036426
0.00482872
0.00573675
0.00645779
0.00705028
0.00755229
0.00798919
0.0083781
0.00873061
0.00905465
0.00935587
0.00963833
0.00990452
0.0101554
0.0103906
0.0106088
0.0108079
0.0109858
0.0111398
0.011269
0.0113732
0.000242778
0.00196982
0.00350047
0.00464049
0.00551526
0.00621289
0.00679029
0.00728382
0.00771721
0.0081061
0.00846089
0.00878864
0.00909428
0.00938131
0.00965195
0.00990724
0.0101472
0.0103708
0.0105766
0.0107629
0.0109271
0.0110686
0.011187
0.000231098
0.00187361
0.00332877
0.00441827
0.00526032
0.00593732
0.00650283
0.00699083
0.00742315
0.00781395
0.00817256
0.00850521
0.00881624
0.0091087
0.00938464
0.00964515
0.00989052
0.0101202
0.0103332
0.0105281
0.0107028
0.0108566
0.0109891
0.000217513
0.00176166
0.00313243
0.00416997
0.00498135
0.0056411
0.00619797
0.00668313
0.00711643
0.00751069
0.00787424
0.00821263
0.00852971
0.00882821
0.00911003
0.00937633
0.00962759
0.00986367
0.0100839
0.0102871
0.0104717
0.0106369
0.0107824
0.00020369
0.00162471
0.00291387
0.00390447
0.00469041
0.00533676
0.00588809
0.00637275
0.00680859
0.0072073
0.00757638
0.00792086
0.00824419
0.00854888
0.00883672
0.00910889
0.00936603
0.00960825
0.00983513
0.0100459
0.0102393
0.0104144
0.0105712
0.000189907
0.00149069
0.00269777
0.00364254
0.00440387
0.0050396
0.0055883
0.00607444
0.0065137
0.00691723
0.00729176
0.00764201
0.00797119
0.00828162
0.008575
0.00885254
0.00911496
0.00936254
0.00959512
0.00981216
0.0100126
0.0101959
0.0103616
0.000176758
0.00137261
0.002504
0.00340691
0.00414689
0.00477329
0.0053189
0.00580558
0.00624802
0.0066562
0.00703533
0.00739035
0.00772423
0.00803922
0.00833698
0.00861869
0.00888515
0.00913676
0.00937351
0.00959509
0.0098007
0.00998974
0.0101619
0.000165128
0.00127925
0.00234843
0.00321656
0.00393898
0.00455777
0.005101
0.00558789
0.00603167
0.00644139
0.00682302
0.00718124
0.00751796
0.00783561
0.00813587
0.00841987
0.00868847
0.00894213
0.009181
0.00940491
0.00961326
0.00980554
0.00998153
0.000155798
0.00121479
0.00224074
0.00308461
0.00379499
0.00440867
0.0049503
0.00543698
0.00588091
0.00629066
0.00667221
0.00702983
0.00736634
0.00768413
0.00798445
0.00826818
0.00853641
0.0087896
0.00902799
0.00925155
0.00945985
0.00965247
0.00982925
0.00014912
0.00117872
0.00218291
0.00301561
0.00372145
0.00433396
0.0048757
0.00536249
0.00580592
0.00621436
0.00659386
0.00694876
0.00728219
0.00759645
0.00789313
0.00817345
0.00843844
0.00868812
0.00892297
0.0091431
0.00934819
0.00953795
0.00971224
0.000144917
0.00116678
0.0021698
0.00300551
0.00371578
0.00433283
0.0048779
0.00536646
0.00580986
0.00621653
0.00659274
0.00694312
0.0072711
0.00757921
0.0078693
0.00814272
0.00840047
0.00864309
0.00887106
0.00908446
0.00928292
0.00946637
0.00963476
0.00014268
0.00117312
0.00219255
0.00304477
0.00376961
0.0043982
0.00495148
0.00544487
0.00588988
0.00629524
0.00666766
0.00701225
0.00733288
0.00763248
0.00791322
0.00817671
0.00842413
0.00865626
0.00887362
0.00907647
0.00926473
0.00943837
0.00959741
0.000141916
0.00119227
0.00224266
0.00312464
0.00387462
0.00452247
0.00508947
0.00559125
0.0060398
0.00644453
0.00681283
0.00715051
0.00746207
0.00775097
0.00801982
0.00827058
0.0085047
0.00872318
0.00892674
0.0091158
0.00929051
0.00945089
0.0095971
0.000142215
0.0012219
0.00231785
0.00324258
0.00402767
0.00470207
0.00528722
0.00579959
0.0062523
0.00665591
0.00701888
0.00734796
0.0076484
0.00792431
0.00817878
0.0084142
0.00863229
0.00883436
0.00902131
0.00919377
0.00935209
0.00949647
0.00962716
0.000143317
0.00126502
0.00242425
0.003405
0.00423344
0.00493819
0.00554209
0.00606364
0.006518
0.00691753
0.00727215
0.00758968
0.00787623
0.00813653
0.00837418
0.00859188
0.0087917
0.00897514
0.00914333
0.00929709
0.00943697
0.00956337
0.00967665
0.000145575
0.0013315
0.00257664
0.00362429
0.0044987
0.00523126
0.00584853
0.00637271
0.00682215
0.0072116
0.0075527
0.00785442
0.00812364
0.00836555
0.00858409
0.00878224
0.00896222
0.00912571
0.00927397
0.00940798
0.00952847
0.00963602
0.00973111
0.000150109
0.00143481
0.00278699
0.0039059
0.00482215
0.00557362
0.00619319
0.00670877
0.00714308
0.0075139
0.00783468
0.00811541
0.00836348
0.00858432
0.00878198
0.00895944
0.00911897
0.00926227
0.00939065
0.00950516
0.00960664
0.00969581
0.00977329
0.000158791
0.00157603
0.00304721
0.00423999
0.0051928
0.00595152
0.00655881
0.00705122
0.00745763
0.00779944
0.00809193
0.00834584
0.00856872
0.00876589
0.00894119
0.00909742
0.00923664
0.00936043
0.00947003
0.00956645
0.00965055
0.00972314
0.00978489
0.000173602
0.00173409
0.00333859
0.00462012
0.00560836
0.00636074
0.00693737
0.00738872
0.00775201
0.00805276
0.00830783
0.00852822
0.00872117
0.00889153
0.00904264
0.00917684
0.00929585
0.00940095
0.00949318
0.00957339
0.00964238
0.0097009
0.00974965
0.000196283
0.00189952
0.00368144
0.00507975
0.00609672
0.00681869
0.00733819
0.00772586
0.00802843
0.00827481
0.0084824
0.00866164
0.00881889
0.00895815
0.00908201
0.00919221
0.00928999
0.00937623
0.00945167
0.00951691
0.00957257
0.00961926
0.00965758
0.000230351
0.00211782
0.00417425
0.00570703
0.00671256
0.00735466
0.00777824
0.00807579
0.00830001
0.00847974
0.00863066
0.00876143
0.00887692
0.00897998
0.00907234
0.0091551
0.00922897
0.00929446
0.00935196
0.00940182
0.00944439
0.00948007
0.00950925
0.000288842
0.00252354
0.0050397
0.00664229
0.00751023
0.00798306
0.00826203
0.00844517
0.00857861
0.00868439
0.00877337
0.00885106
0.00892039
0.00898295
0.00903964
0.00909099
0.00913731
0.00917879
0.00921558
0.00924778
0.00927555
0.00929904
0.00931841
0.000418366
0.00372885
0.00687327
0.00806528
0.008492
0.00867292
0.00876654
0.00882458
0.00886613
0.00889913
0.00892717
0.00895198
0.00897442
0.00899493
0.00901377
0.00903106
0.00904685
0.00906117
0.00907404
0.00908547
0.00909545
0.00910403
0.0091112
0.000321376
0.00029708
0.000277137
0.000262362
0.00215111
0.00188119
0.00171826
0.00163868
0.00394852
0.00369
0.00349117
0.00337399
0.00541792
0.00524729
0.00511285
0.00502895
0.00673984
0.00664773
0.0065755
0.00653129
0.00794028
0.00789952
0.00787046
0.00785643
0.00899759
0.00899113
0.00898982
0.00899498
0.00989934
0.009915
0.00993073
0.00994674
0.010644
0.0106731
0.0106988
0.0107211
0.0112602
0.0112998
0.0113312
0.0113555
0.0117814
0.0118291
0.0118625
0.0118892
0.0120662
0.012115
0.0121518
0.0121812
0.0121644
0.0121952
0.0122156
0.0122247
0.0121439
0.0121612
0.0121664
0.0121602
0.0120747
0.0120833
0.0120805
0.0120666
0.011976
0.0119819
0.0119767
0.0119611
0.0118625
0.01187
0.0118667
0.0118537
0.0117349
0.0117471
0.0117487
0.0117413
0.0115909
0.0116098
0.0116184
0.0116187
0.011431
0.0114577
0.0114747
0.011484
0.0112572
0.0112923
0.0113182
0.0113372
0.0110713
0.0111147
0.0111495
0.0111779
0.0108754
0.0109264
0.0109694
0.0110065
0.0106732
0.0107308
0.0107809
0.0108256
0.0104708
0.0105337
0.0105897
0.0106405
0.0102762
0.010343
0.0104035
0.010459
0.0100987
0.0101678
0.0102312
0.0102898
0.0099469
0.0100169
0.0100816
0.0101417
0.00982801
0.00989726
0.00996155
0.0100215
0.00974622
0.0098131
0.00987537
0.00993346
0.00970227
0.00976525
0.0098239
0.00987856
0.00969312
0.00975081
0.00980445
0.00985429
0.00971237
0.00976352
0.00981094
0.00985479
0.00974975
0.00979347
0.00983379
0.00987082
0.00979161
0.00982755
0.00986043
0.0098903
0.00982168
0.00985012
0.00987585
0.00989888
0.00982262
0.0098445
0.00986401
0.00988114
0.0097788
0.00979548
0.00981015
0.00982279
0.00968021
0.00969304
0.00970425
0.00971384
0.00952654
0.00953632
0.00954493
0.00955237
0.00933009
0.00933673
0.00934264
0.00934786
0.00911561
0.00911814
0.0091204
0.00912242
0.000525926
0.00158904
0.00276271
0.003562
0.00406174
0.00450966
0.00493875
0.00530679
0.00558351
0.00576229
0.00584973
0.00585451
0.00576565
0.00554991
0.00516516
0.00456034
0.00363117
0.00214274
0.000256558
0.00175696
0.00252141
0.00349393
0.00428652
0.00484809
0.00529717
0.00570791
0.00605913
0.0063269
0.00650226
0.00658624
0.00658045
0.00647252
0.00622884
0.00580199
0.00513986
0.00412774
0.00246435
0.000296151
0.00335571
0.00382801
0.00454028
0.00520934
0.00574327
0.00617032
0.00652743
0.00682453
0.00704688
0.00718698
0.00724229
0.0072085
0.00706954
0.0067917
0.0063289
0.00562488
0.00455041
0.00274599
0.00031942
0.00498962
0.00526365
0.00573998
0.00625581
0.0067086
0.00707572
0.00736724
0.0075899
0.00774598
0.00782957
0.00783675
0.00775927
0.00757822
0.00726031
0.00676132
0.00602199
0.004901
0.00299002
0.00033792
0.00651451
0.00667732
0.0069769
0.00733498
0.00767612
0.00795991
0.00817536
0.00832219
0.00840566
0.00842383
0.00837262
0.00824167
0.00801041
0.00764498
0.00710316
0.00632605
0.00516576
0.00317961
0.000353437
0.00786247
0.00796788
0.00815014
0.00837539
0.00859984
0.0087869
0.00891883
0.0089921
0.00900406
0.00895522
0.008841
0.00865084
0.00836493
0.0079484
0.00735746
0.0065351
0.00533447
0.00329771
0.000364957
0.00901594
0.00908751
0.00919185
0.00931527
0.0094361
0.00952935
0.00957831
0.009578
0.00952272
0.00940966
0.0092334
0.00898245
0.00864246
0.00817945
0.00753954
0.00666369
0.00541363
0.00333808
0.000370167
0.00997469
0.0100222
0.0100724
0.0101207
0.0101583
0.01017
0.0101438
0.0100755
0.00995668
0.00978364
0.00954905
0.00923424
0.00883871
0.00834633
0.00766885
0.00673061
0.00541654
0.00329742
0.000365713
0.0107529
0.0107825
0.0107937
0.0107878
0.0107627
0.0107082
0.0106178
0.0104909
0.010308
0.0100785
0.00979909
0.00941192
0.00890968
0.00828446
0.00750331
0.00649898
0.00514598
0.00309707
0.000367201
0.011386
0.0113975
0.0113774
0.0113335
0.0112624
0.0111517
0.0110033
0.0108054
0.0105345
0.010204
0.00982962
0.00934738
0.00872524
0.00799923
0.00714543
0.00610101
0.00472115
0.0026903
0.00035436
0.0119172
0.011902
0.0118425
0.0117545
0.0116127
0.0114164
0.0111806
0.0108816
0.0105117
0.0100739
0.00958067
0.00900255
0.00834309
0.00759381
0.00670487
0.00562086
0.00419824
0.00221455
0.00032912
0.0121993
0.0121457
0.012039
0.0118832
0.0116798
0.0114151
0.0110935
0.0107242
0.0102991
0.00980677
0.00925419
0.00863592
0.00794958
0.00716222
0.00623042
0.00510703
0.00370568
0.00197414
0.000304246
0.0122179
0.0121303
0.0119761
0.011779
0.011541
0.0112472
0.0108951
0.0104918
0.0100334
0.00951022
0.00892698
0.00828567
0.00757094
0.00674267
0.00577078
0.00462652
0.00327522
0.00174853
0.000283251
0.0121324
0.0120185
0.0118397
0.0116199
0.0113604
0.0110499
0.010683
0.0102635
0.00978581
0.00924406
0.00864418
0.00798513
0.00724519
0.00638997
0.00539666
0.00425189
0.00295342
0.00155221
0.000266049
0.0120263
0.0119002
0.0117133
0.0114828
0.0112108
0.0108893
0.0105148
0.0100868
0.00960028
0.0090528
0.00844723
0.00777771
0.00702345
0.00615731
0.00516119
0.0040285
0.00277302
0.00144144
0.000253983
0.0119192
0.011796
0.0116147
0.0113865
0.0111131
0.0107895
0.010415
0.00998726
0.00950291
0.00896015
0.00835779
0.00768729
0.00693059
0.00606557
0.00507708
0.00396181
0.00273027
0.00141733
0.000247185
0.0118171
0.0117068
0.0115408
0.0113253
0.0110615
0.0107474
0.010383
0.0099659
0.00949352
0.00896341
0.00837146
0.00770805
0.00695736
0.00610095
0.00512459
0.00402142
0.0027924
0.00145736
0.000244787
0.0117146
0.011624
0.0114799
0.0112856
0.0110418
0.0107478
0.0104032
0.0100059
0.00955322
0.00904167
0.00846544
0.00781462
0.00707497
0.00622975
0.00526355
0.00416369
0.00291977
0.00153581
0.000245238
0.0116055
0.011539
0.0114215
0.0112546
0.0110383
0.0107719
0.0104543
0.010083
0.00965504
0.00916586
0.00860875
0.00797373
0.00724723
0.00641281
0.00545273
0.00434816
0.00307789
0.001631
0.000246991
0.0114864
0.0114466
0.0113582
0.0112219
0.0110369
0.0108018
0.0105147
0.0101726
0.00977176
0.00930697
0.00877087
0.00815327
0.00744057
0.0066157
0.0056583
0.00454386
0.00324195
0.00172839
0.000249008
0.0113561
0.0113431
0.0112841
0.0111787
0.0110255
0.0108222
0.0105662
0.0102539
0.00988087
0.00944123
0.00892706
0.00832771
0.00762907
0.00681297
0.0058565
0.0047304
0.00339655
0.00181949
0.000250781
0.0112128
0.0112255
0.0111942
0.011118
0.0109949
0.010822
0.010596
0.0103127
0.00996698
0.00955243
0.00906047
0.00847981
0.00779556
0.00698827
0.00603272
0.00489574
0.00353324
0.00190035
0.000252132
0.0110563
0.0110922
0.0110859
0.0110361
0.0109405
0.0107956
0.0105975
0.0103415
0.010022
0.0096319
0.00916194
0.00860012
0.00793064
0.00713277
0.0061793
0.005034
0.00364808
0.0019688
0.000253012
0.0108885
0.0109445
0.0109602
0.0109336
0.0108623
0.0107425
0.0105698
0.0103391
0.0100441
0.00967725
0.0092286
0.0086854
0.00803094
0.00724331
0.00629363
0.00514323
0.00373984
0.00202432
0.000253427
0.0107145
0.0107873
0.0108214
0.0108147
0.0107645
0.0106666
0.0105165
0.0103084
0.0100359
0.00969062
0.00926209
0.00873683
0.00809731
0.00732059
0.00637639
0.00522417
0.00380888
0.00206635
0.000253373
0.0105416
0.0106278
0.0106767
0.0106863
0.0106537
0.0105744
0.0104436
0.0102555
0.0100028
0.00967696
0.00926683
0.00875835
0.00813324
0.00736771
0.00643033
0.00527896
0.00385636
0.00209489
0.000252857
0.0103786
0.0104743
0.0105344
0.0105566
0.0105379
0.0104736
0.0103589
0.0101873
0.00995163
0.00964258
0.00924868
0.0087553
0.00814359
0.00738902
0.0064592
0.00531066
0.00388419
0.0021098
0.000251885
0.0102339
0.0103352
0.0104025
0.0104335
0.0104248
0.0103719
0.0102694
0.0101111
0.00988916
0.00959402
0.0092138
0.00873346
0.00813367
0.00738932
0.00646724
0.00532272
0.00389476
0.00211163
0.000250564
0.0101142
0.0102172
0.0102877
0.0103235
0.0103209
0.0102755
0.0101818
0.0100331
0.00982156
0.00953726
0.00916798
0.00869834
0.00810864
0.00737335
0.00645863
0.00531885
0.00389144
0.00210603
0.000249072
0.0100238
0.0101244
0.0101942
0.0102309
0.0102308
0.0101891
0.0101005
0.00995816
0.00975376
0.00947726
0.00911616
0.0086548
0.00807321
0.00734555
0.0064375
0.00530298
0.00388035
0.00209729
0.000247041
0.00996371
0.0100582
0.0101236
0.0101576
0.0101564
0.0101153
0.0100286
0.00988934
0.00968916
0.0094177
0.00906223
0.00860685
0.00803141
0.00730985
0.00640853
0.00528104
0.00386405
0.00208512
0.000244424
0.00993171
0.0100167
0.0100746
0.0101028
0.0100976
0.0100541
0.00996661
0.00982799
0.0096296
0.00936089
0.00900884
0.00855759
0.00798696
0.00727105
0.00637574
0.00525454
0.00384353
0.00207032
0.000241378
0.00992245
0.0099952
0.010043
0.0100631
0.0100517
0.0100038
0.00991355
0.00977372
0.00957541
0.00930789
0.00895802
0.00850966
0.0079426
0.00723097
0.00634065
0.00522515
0.00382041
0.00205414
0.000237997
0.00992739
0.00998628
0.0100224
0.010033
0.0100141
0.00996066
0.00986672
0.00972476
0.00952572
0.00925857
0.00890996
0.00846355
0.00789904
0.00719062
0.0063044
0.00519417
0.00379598
0.00203762
0.000234519
0.00993531
0.00997994
0.0100041
0.010005
0.00997855
0.00991968
0.00982209
0.00967807
0.00947827
0.00921138
0.00886374
0.0084188
0.00785614
0.0071501
0.00626717
0.00516183
0.00377071
0.00202148
0.000231109
0.00993289
0.00996429
0.00997769
0.00997026
0.00993783
0.00987495
0.00977502
0.00963002
0.0094303
0.00916423
0.00881784
0.00837428
0.00781301
0.00710852
0.00622798
0.00512702
0.00374355
0.00200545
0.000228059
0.0099058
0.00992654
0.00993209
0.00991966
0.00988466
0.00982095
0.00972136
0.00957749
0.00937944
0.00911531
0.00877082
0.00832878
0.00776845
0.00706451
0.006185
0.00508736
0.00371206
0.00198832
0.000225552
0.00984053
0.00985443
0.00985673
0.00984488
0.00981335
0.0097541
0.00965891
0.00951915
0.00932488
0.00906411
0.0087223
0.0082819
0.00772193
0.00701716
0.00613665
0.00504038
0.00367308
0.00196788
0.000223831
0.00972722
0.00973845
0.00974312
0.00973995
0.00972163
0.00967458
0.00958908
0.00945682
0.00926846
0.00901232
0.00867379
0.00823501
0.0076746
0.00696734
0.00608327
0.00498544
0.00362476
0.00194212
0.000222945
0.00956302
0.00957435
0.00958611
0.00960132
0.00961234
0.00958811
0.00951801
0.00939615
0.00921513
0.00896425
0.00862914
0.00819169
0.00763008
0.00691884
0.0060288
0.00492609
0.00356905
0.00191061
0.000222939
0.00935562
0.00936622
0.00938426
0.00942326
0.00949508
0.00950721
0.00945676
0.00934622
0.00917236
0.00892624
0.008594
0.0081574
0.00759418
0.00687847
0.00598142
0.00487156
0.00351423
0.00187643
0.000223612
0.00912548
0.00913046
0.00914289
0.00918545
0.00939247
0.00945212
0.00941963
0.00931738
0.00914818
0.00890495
0.00857436
0.00813811
0.00757361
0.00685466
0.00595234
0.0048363
0.00347602
0.00184918
0.000224631
)
;

boundaryField
{
    leftWall
    {
        type            nutkWallFunction;
        Cmu             0.09;
        kappa           0.41;
        E               9.8;
        value           nonuniform List<scalar> 
50
(
2.75406e-06
8.02278e-06
9.48417e-06
1.06925e-05
1.18112e-05
1.41796e-05
1.68555e-05
1.82672e-05
1.98913e-05
2.23012e-05
2.47349e-05
2.73597e-05
3.06572e-05
3.41571e-05
3.74943e-05
3.73534e-05
3.58126e-05
3.43023e-05
3.30386e-05
3.09091e-05
2.87024e-05
2.82696e-05
2.87519e-05
2.93966e-05
2.97034e-05
2.95061e-05
2.88469e-05
2.77863e-05
2.6361e-05
2.46037e-05
2.25708e-05
2.05138e-05
1.84751e-05
1.65443e-05
1.485e-05
1.3501e-05
1.25413e-05
1.19393e-05
1.16191e-05
1.1505e-05
1.15219e-05
1.16385e-05
1.18905e-05
1.24134e-05
1.348e-05
1.54449e-05
1.86465e-05
2.3573e-05
3.18501e-05
4.94209e-05
)
;
    }
    rightWall
    {
        type            nutkWallFunction;
        Cmu             0.09;
        kappa           0.41;
        E               9.8;
        value           nonuniform List<scalar> 
50
(
4.44644e-06
1.40108e-05
1.63339e-05
1.89646e-05
2.11776e-05
2.24446e-05
2.33982e-05
2.48576e-05
2.76779e-05
3.15094e-05
3.35079e-05
3.47763e-05
3.55541e-05
3.62298e-05
3.65826e-05
3.64687e-05
4.08585e-05
3.68789e-05
3.38705e-05
3.14112e-05
2.94365e-05
2.80023e-05
2.71332e-05
2.67717e-05
2.67792e-05
2.69966e-05
2.72827e-05
2.75556e-05
2.77787e-05
2.794e-05
2.80371e-05
2.80715e-05
2.80436e-05
2.79554e-05
2.7811e-05
2.76177e-05
2.7358e-05
2.7015e-05
2.65918e-05
2.61072e-05
2.558e-05
2.50415e-05
2.45233e-05
2.40675e-05
2.37103e-05
2.34867e-05
2.34107e-05
2.34808e-05
2.36686e-05
2.38997e-05
)
;
    }
    lowerWall
    {
        type            nutkWallFunction;
        Cmu             0.09;
        kappa           0.41;
        E               9.8;
        value           nonuniform List<scalar> 
62
(
2.75406e-06
4.52111e-06
5.62892e-06
6.39072e-06
6.96283e-06
7.42333e-06
7.80103e-06
8.11138e-06
8.36298e-06
8.5594e-06
8.7013e-06
8.78915e-06
8.82447e-06
8.80936e-06
8.74676e-06
8.65284e-06
8.56773e-06
8.46112e-06
8.30622e-06
8.05336e-06
7.60347e-06
6.68818e-06
4.06688e-06
4.06688e-06
1.31432e-05
1.59547e-05
1.79963e-05
1.96442e-05
2.11201e-05
2.26732e-05
2.51368e-05
3.1603e-05
3.17762e-05
2.97726e-05
2.76452e-05
6.32868e-06
1.81807e-05
1.99948e-05
2.13774e-05
2.22098e-05
2.24199e-05
2.36278e-05
2.4286e-05
6.32868e-06
8.05535e-06
9.30052e-06
9.74597e-06
1.01393e-05
1.0568e-05
1.08908e-05
1.10888e-05
1.11476e-05
1.10239e-05
1.06728e-05
1.03895e-05
1.01798e-05
9.76611e-06
9.153e-06
8.49485e-06
7.82595e-06
6.59899e-06
4.44644e-06
)
;
    }
    atmosphere
    {
        type            calculated;
        value           nonuniform List<scalar> 
46
(
0.009
0.009
0.009
0.009
0.009
0.009
0.009
0.009
0.009
0.009
0.009
0.009
0.009
0.009
0.009
0.009
0.009
0.009
0.009
0.009
0.009
0.009
0.009
0.009
0.009
0.009
0.009
0.009
0.009
0.009
0.009
0.00939247
0.00945212
0.00941963
0.00931738
0.00914818
0.00890495
0.00857436
0.00813811
0.00757361
0.00685466
0.00595234
0.0048363
0.00347602
0.00184918
0.000224631
)
;
    }
    defaultFaces
    {
        type            empty;
    }
}


// ************************************************************************* //
