/*--------------------------------*- C++ -*----------------------------------*\
  =========                 |
  \\      /  F ield         | OpenFOAM: The Open Source CFD Toolbox
   \\    /   O peration     | Website:  https://openfoam.org
    \\  /    A nd           | Version:  13
     \\/     M anipulation  |
\*---------------------------------------------------------------------------*/
FoamFile
{
    format      ascii;
    class       volScalarField;
    location    "1.45";
    object      p;
}
// * * * * * * * * * * * * * * * * * * * * * * * * * * * * * * * * * * * * * //

dimensions      [1 -1 -2 0 0 0 0];

internalField   nonuniform List<scalar> 
2268
(
4672.95
4689.79
4718.27
4757.99
4808.43
4872.89
4953.79
5051.52
5164.94
5292.03
5430.01
5575.76
5726.23
5878.92
6031.71
6183.98
6336.47
6490.64
6646.41
6800.89
6946.21
7065.51
7156.52
3874.28
3888.79
3912.64
3949
3996.56
4058.19
4136.16
4231.03
4341.93
4467.38
4605.19
4752.63
4906.82
5065.42
5226.05
5387.88
5550.26
5714.39
5879.08
6040.08
6186.66
6296.49
6376.61
3074.88
3089.73
3109.46
3140.92
3183.9
3241.27
3315.15
3406.26
3513.99
3637.78
3775.64
3925.29
4083.81
4249
4418.16
4589.87
4762.33
4935.99
5108.29
5273.56
5419.35
5525.12
5614.88
2272.75
2292.06
2307.84
2333.56
2370.88
2423.41
2493.1
2580.6
2685.53
2807.58
2946.22
3098.66
3261.88
3433.99
3611.3
3791.76
3971.5
4151.37
4327.73
4494.11
4638.41
4748.17
4862.01
1494.92
1519.32
1531.59
1549.76
1577.77
1621.21
1683.35
1766
1867.8
1985.65
2122.24
2275.16
2441.59
2619.55
2804.77
2993.77
3179.09
3363.06
3540.84
3706.19
3849.35
3968.66
4116.29
1026.87
1041.16
1046.85
1054.27
1065.3
1083.24
1110.44
1148.51
1197.34
1267
1363.83
1488.54
1642.16
1817.52
2003.95
2198.71
2387.32
2574.51
2752.78
2916.23
3058.25
3189.18
3371.78
901.713
906.23
907.342
908.427
908.957
909.029
908.984
909.628
911.747
924.718
954.218
1000.74
1067.7
1156.25
1276.83
1426.45
1600.19
1784.72
1960.83
2122.06
2263.66
2403.62
2619.06
841.091
845.947
848.075
849.415
850.345
851.163
852.274
854.252
857.423
859.125
859.377
859.094
859.296
864.349
893.135
945.765
1028.27
1129.43
1237.76
1349.91
1458.2
1584.4
1825.15
3664.35
3197.64
3016.83
2703.94
2495.03
2311.85
2161.98
2059.31
1995.44
1954.33
1925.38
1958.39
2005.47
2046.42
2071.57
2086.09
2079.49
2058.12
2022.23
3014.61
2505.22
2334.31
2129.46
1940.06
1743.34
1589.98
1500.07
1451.14
1432.52
1442.94
1453.53
1474.03
1502.32
1525.28
1529
1507.25
1496.27
1498.87
2404.66
1993.94
1823.71
1557.51
1366.14
1218.94
1122.27
1062.7
1023.85
1023.12
1068.99
1087.63
1116.67
1140.56
1154.27
1140.31
1099.58
1079.2
1102.74
1866.5
1652.16
1537.91
1239.18
1093.14
1016.38
968.537
928.133
894.912
876.146
868.312
872.574
904.125
939.729
943.837
928.731
893.086
854.14
850.178
1388.89
1265.41
1303.52
1117.47
1012.99
951.706
909.625
877.298
852.266
823.771
785.742
764.556
756.678
764.97
757.176
746.892
737.93
723.793
718.968
976.237
927.325
1073.55
1023.2
944.892
891.777
850.728
817.832
792.055
766.299
740.495
711.139
681.681
656.543
636.873
622.809
630.679
647.583
655.219
767.184
788.705
907.992
927.856
874.3
828.328
789.721
756.8
729.166
703.382
681.052
655.87
629.763
606.103
584.808
572.528
579.472
597.767
610.562
681.055
722.377
810.154
839.609
802.595
762.23
726.667
694.325
665.351
639.397
617.64
596.569
573.269
552.326
537.9
534.806
542.495
554.922
566.599
744.834
749.259
751.681
753.002
754.007
755.02
756.355
758.442
761.18
764.203
767.044
770.076
773.436
777.552
780.907
783.799
786.066
793.481
810.589
835.323
859.87
877.091
846.729
612.474
615.576
617.491
618.623
619.789
621.18
622.935
625.321
628.199
631.057
633.929
636.944
640.239
643.697
646.241
647.31
647.816
646.185
640.86
628.6
604.725
561.908
507.978
479.96
479.7
479.856
480.681
482.341
484.502
487.143
490.674
494.567
498.134
501.285
504.681
508.492
512.05
514.418
515.16
515.013
513.301
507.947
496.369
476.275
447.632
416.733
350.368
342.609
340.002
340.671
343.466
346.809
350.772
356.501
362.281
366.917
370.675
374.895
379.721
384.119
386.508
386.764
386.63
386.226
382.912
374.542
360.85
344.285
328.817
223.677
214.427
216.906
221.821
227.052
231.697
237.084
244.015
250.737
256.265
261.286
266.306
271.218
275.533
278.731
281.059
283.199
284.753
284.242
281.01
275.72
269.379
263.526
121.392
121.269
129.049
137.952
146.483
154.541
162.539
169.754
176.72
183.319
189.671
195.323
199.83
203.76
207.74
211.731
214.857
216.486
216.938
216.642
215.372
212.663
208.118
57.6592
55.7951
60.6935
69.5881
79.5297
89.6546
99.3496
107.374
114.781
122.38
129.447
135.325
140.555
145.348
149.786
153.449
155.78
157.029
157.704
157.534
156.183
153.566
150.232
23.3038
15.6441
16.4601
20.2562
24.6979
30.4973
36.0315
41.902
48.6876
55.9622
62.5931
68.6087
74.061
78.7376
82.7883
86.2673
89.0525
91.1292
92.4954
93.0493
92.5815
91.1173
89.3293
9.04124
5.79617
5.41435
4.86339
4.61173
6.39155
8.07848
10.0308
12.5718
15.4507
18.2011
20.7986
23.26
25.3946
27.1893
28.9808
30.7593
32.3715
33.6251
34.2823
33.8206
32.5672
29.6801
5.88045
5.07708
4.87136
4.76549
4.70943
4.61079
4.42983
4.333
4.21392
4.10405
3.74688
4.3362
4.92114
5.50621
6.05045
6.67946
7.39094
8.08667
8.53902
8.74909
8.41281
7.79177
7.4051
4.72136
4.66075
4.64617
4.60932
4.56719
4.50945
4.45203
4.39726
4.31847
4.1984
4.08865
3.94769
3.80533
3.67957
3.55023
3.40657
3.25189
3.08066
2.88443
2.68196
2.35057
2.25172
2.28116
4.30948
4.3424
4.41841
4.42177
4.38512
4.34281
4.28406
4.22191
4.16045
4.07697
4.01141
3.93216
3.86011
3.77965
3.68419
3.57174
3.44442
3.30682
3.15953
2.99298
2.8375
2.74968
2.71318
4.1843
4.19964
4.2353
4.23682
4.21654
4.17172
4.11453
4.05183
3.98442
3.92859
3.83969
3.76787
3.67306
3.58031
3.48082
3.37041
3.24849
3.11726
2.98542
2.84798
2.7255
2.64019
2.57612
4.0644
4.0733
4.08492
4.07997
4.05555
4.01423
3.96016
3.89675
3.82527
3.75148
3.67885
3.58616
3.48951
3.39796
3.30213
3.19715
3.08227
2.95791
2.82937
2.71339
2.5983
2.52368
2.47108
3.93307
3.93629
3.93803
3.92806
3.90371
3.86479
3.81346
3.75166
3.68077
3.60434
3.52497
3.43763
3.34721
3.25726
3.16394
3.06327
2.95379
2.83579
2.71242
2.59457
2.49756
2.43116
2.38339
3.79482
3.794
3.79048
3.77786
3.7534
3.71644
3.66806
3.60977
3.54294
3.46961
3.39301
3.31081
3.22462
3.13659
3.04509
2.94769
2.84325
2.73172
2.61666
2.50672
2.41111
2.35262
2.31653
3.6524
3.64892
3.64246
3.62833
3.60398
3.56883
3.52359
3.46945
3.40756
3.33903
3.26464
3.18627
3.10508
3.02082
2.93205
2.83847
2.73938
2.63497
2.52828
2.42678
2.33822
2.28556
2.25171
3.50725
3.50215
3.4941
3.47926
3.45543
3.42217
3.37999
3.32982
3.27257
3.20889
3.13935
3.06489
2.98771
2.90707
2.82211
2.73299
2.63945
2.54181
2.44264
2.34845
2.26615
2.21817
2.18676
3.36007
3.35437
3.34565
3.33068
3.3077
3.27636
3.23707
3.19051
3.1374
3.0783
3.01365
2.94421
2.87104
2.79418
2.71374
2.62964
2.54181
2.45058
2.35828
2.27063
2.19408
2.15026
2.12124
3.21147
3.20593
3.19716
3.18253
3.16066
3.13126
3.09468
3.05143
3.00208
2.94712
2.887
2.82227
2.75362
2.68134
2.60574
2.52695
2.4449
2.35991
2.27405
2.19261
2.12147
2.08107
2.05479
3.06204
3.05713
3.04879
3.03481
3.0142
2.98674
2.95271
2.91255
2.86671
2.81562
2.7597
2.69946
2.63541
2.56795
2.49741
2.42396
2.34762
2.26867
2.18899
2.11333
2.04723
2.00976
1.98527
2.91229
2.9083
2.90067
2.88752
2.86825
2.84267
2.81108
2.77382
2.73128
2.68386
2.63194
2.57598
2.51646
2.45377
2.38824
2.32006
2.24927
2.17613
2.10229
2.03213
1.97073
1.93552
1.91277
2.76272
2.75964
2.75286
2.74065
2.7227
2.69897
2.66966
2.63513
2.59571
2.55175
2.50364
2.45179
2.39663
2.33855
2.27789
2.21482
2.14939
2.08183
2.01363
1.94869
1.89179
1.85878
1.83719
2.61348
2.61145
2.60544
2.59414
2.57748
2.55549
2.52835
2.49637
2.45987
2.41919
2.37467
2.32673
2.27575
2.22211
2.16613
2.10798
2.04771
1.98552
1.92271
1.86289
1.81034
1.77942
1.75954
2.46478
2.46352
2.45828
2.44792
2.4325
2.41215
2.38702
2.35742
2.32365
2.28605
2.24493
2.20068
2.15368
2.10429
2.05279
1.99936
1.94404
1.88701
1.82944
1.77449
1.72616
1.69738
1.67873
2.31648
2.31579
2.31125
2.30183
2.28766
2.26888
2.24562
2.2182
2.18697
2.15224
2.11433
2.07358
2.03036
1.985
1.93779
1.88887
1.8383
1.78621
1.73362
1.68339
1.63909
1.61227
1.59503
2.16848
2.16815
2.16423
2.15574
2.14277
2.12549
2.10403
2.07871
2.04986
2.01778
1.98285
1.9454
1.90577
1.86425
1.82112
1.77651
1.73046
1.68309
1.6353
1.58957
1.5492
1.52447
1.50832
2.02065
2.02055
2.01717
2.00955
1.99773
1.98187
1.96214
1.93885
1.91229
1.88278
1.85067
1.81629
1.78
1.74213
1.70288
1.66238
1.62065
1.57779
1.53455
1.4932
1.45666
1.4341
1.41945
1.87294
1.87295
1.87002
1.86321
1.85247
1.83798
1.81992
1.79858
1.77424
1.74723
1.71786
1.68648
1.6534
1.61894
1.58333
1.54671
1.50909
1.47053
1.43168
1.39453
1.36175
1.34152
1.328
1.72531
1.72539
1.72286
1.71676
1.70704
1.69385
1.6774
1.65796
1.6358
1.61123
1.58454
1.55607
1.52614
1.49502
1.46293
1.43
1.39625
1.36174
1.32706
1.29398
1.2649
1.24718
1.2345
1.57796
1.57803
1.5758
1.57033
1.56154
1.54961
1.53473
1.51715
1.49713
1.47495
1.4509
1.4253
1.39844
1.37059
1.34195
1.31264
1.28265
1.25204
1.22135
1.19215
1.16674
1.15216
1.13927
1.43106
1.4311
1.42907
1.42413
1.41621
1.40548
1.39213
1.37638
1.35847
1.33866
1.31723
1.29447
1.27064
1.24601
1.22075
1.19497
1.16867
1.14188
1.11506
1.08965
1.06754
1.05462
1.04595
1.28498
1.28486
1.28293
1.27844
1.27134
1.26178
1.24994
1.23601
1.2202
1.20275
1.18392
1.16395
1.14312
1.12165
1.09971
1.07739
1.05469
1.03163
1.00862
0.986906
0.968166
0.957576
0.951611
1.13985
1.13954
1.13765
1.13358
1.12729
1.1189
1.10858
1.09648
1.08279
1.06769
1.05143
1.03424
1.01635
0.99798
0.979276
0.96032
0.941113
0.921662
0.902322
0.884187
0.868716
0.860456
0.856669
0.995936
0.995409
0.993571
0.989948
0.984496
0.977336
0.96858
0.958344
0.946769
0.934026
0.920311
0.905839
0.890824
0.875454
0.85987
0.844143
0.828271
0.812253
0.7964
0.781646
0.769252
0.763189
0.76111
0.853523
0.852827
0.851109
0.848
0.843486
0.837645
0.830527
0.822195
0.812749
0.802326
0.791099
0.779259
0.766999
0.754491
0.74186
0.729169
0.716414
0.70359
0.690953
0.679318
0.669741
0.665605
0.665055
0.712928
0.712137
0.710649
0.708225
0.704821
0.700433
0.695033
0.688625
0.681274
0.673095
0.664244
0.654894
0.645221
0.635377
0.625475
0.615568
0.605652
0.595717
0.585986
0.577122
0.569992
0.567435
0.567847
0.574391
0.573627
0.572579
0.571098
0.569039
0.566248
0.562603
0.558072
0.552709
0.546625
0.539972
0.53291
0.525599
0.518173
0.510729
0.503312
0.495916
0.488535
0.481339
0.474867
0.469815
0.46839
0.469383
0.438125
0.437481
0.437206
0.437075
0.436598
0.435446
0.43346
0.430631
0.427042
0.422825
0.41813
0.41311
0.407902
0.402622
0.397346
0.392115
0.386919
0.381754
0.376757
0.372344
0.369028
0.368466
0.369667
0.304696
0.304887
0.306234
0.307891
0.308974
0.309186
0.308501
0.307013
0.304863
0.302205
0.299182
0.295922
0.292539
0.289119
0.285722
0.282372
0.279068
0.275802
0.272678
0.270005
0.26815
0.26823
0.269628
0.173355
0.176423
0.181896
0.185735
0.187774
0.18859
0.188547
0.187867
0.186722
0.185247
0.183551
0.181723
0.179837
0.177948
0.176089
0.174277
0.172507
0.170774
0.169152
0.167828
0.167017
0.167333
0.168434
0.0509385
0.0499496
0.058806
0.0627265
0.0641982
0.0647495
0.0648484
0.0646703
0.0643117
0.0638353
0.0632852
0.0626961
0.0620935
0.0614972
0.0609181
0.0603614
0.0598238
0.0593048
0.0588273
0.0584535
0.0582583
0.0583665
0.0587607
666.14
632.788
633.731
629.993
498.535
503.897
505.823
503.443
398.654
391.258
388.275
388.26
322.858
319.392
315.025
311.327
259.851
257.459
255.88
253.554
203.733
200.563
198.285
196.177
146.981
144.47
142.207
139.915
87.8189
86.1455
84.1171
81.4264
22.7801
19.7844
18.9938
19.6545
6.87252
7.20916
6.66114
5.96521
2.01852
1.95816
1.84437
1.67284
2.62208
2.44396
2.20174
2.01138
2.41249
2.1912
1.92644
1.7494
2.30625
2.09656
1.82833
1.64814
2.23662
2.02676
1.759
1.58356
2.17202
1.96401
1.70216
1.53335
2.11004
1.90737
1.65371
1.49236
2.05005
1.85531
1.61273
1.45858
1.99195
1.80705
1.57563
1.42871
1.93364
1.75954
1.541
1.40095
1.87294
1.7105
1.50466
1.37224
1.80861
1.65788
1.4665
1.3421
1.74174
1.60308
1.42548
1.3095
1.67269
1.546
1.38296
1.2749
1.60062
1.4858
1.33621
1.23636
1.52461
1.42091
1.28538
1.19373
1.44548
1.35242
1.22959
1.14623
1.36365
1.28055
1.17039
1.09474
1.27902
1.2053
1.10642
1.03849
1.19145
1.12634
1.03882
0.978376
1.10184
1.04527
0.968032
0.914884
1.01375
0.963706
0.895639
0.848994
0.924564
0.881029
0.820739
0.779485
0.834112
0.796672
0.744482
0.708565
0.742846
0.711209
0.66631
0.635558
0.650648
0.624448
0.586818
0.560674
0.556905
0.535775
0.50463
0.482943
0.461093
0.444477
0.419858
0.402377
0.363711
0.351227
0.332336
0.318846
0.265675
0.257012
0.243672
0.233514
0.167426
0.162459
0.153886
0.146228
0.0593077
0.0578348
0.0550149
0.0515079
610.845
612.462
663.184
704.95
687.455
656.053
625.641
594.553
566.196
543.363
523.828
505.124
489.755
479.624
478.121
483.231
491.192
498.674
506.519
486.952
465.218
486.781
520.565
526.948
512.586
490.625
470.176
454.344
440.094
426.001
413.208
404.38
402.011
406.861
414.235
421.385
428.512
438.185
376.114
357.982
360.176
368.638
385.98
388.346
381.927
377.75
373.475
364.807
354.475
345.225
338.952
337.269
340.304
345.523
351.901
361.331
376.155
309.504
298.719
283.808
283.917
295.419
302.564
305.73
305.454
300.869
293.071
284.703
277.499
272.383
270.236
271.559
275.133
281.268
293.355
313.54
251.018
242.647
233.028
232.493
237.689
240.123
239.178
235.517
229.316
221.344
214.055
208.646
204.264
201.263
201.037
203.099
208.092
220.28
242.112
193.609
186.939
179.596
176.187
176.327
174.943
170.895
165.471
158.445
149.204
142.46
138.168
131.072
123.765
121.316
122.126
125.266
135.558
156.333
136.111
130.144
123.319
117.826
113.693
108.845
102.051
95.5782
85.6549
70.9297
62.6983
57.2837
47.7975
38.9444
36.8853
37.6529
39.5657
44.4974
60.89
77.065
72.2201
66.6754
60.3235
54.3152
46.4815
35.5339
30.0029
24.2711
14.1693
11.0711
8.61548
5.07605
3.49096
3.28965
3.86313
4.8296
5.21598
10.602
23.406
23.9819
22.0387
17.5648
14.4109
10.1934
4.17424
1.91266
1.77517
1.82561
1.92893
2.11555
2.22743
2.27037
2.28239
2.32259
2.38697
2.2415
2.64222
4.9981
4.94226
4.24588
1.77591
1.65743
1.72916
1.90621
1.81181
1.68248
1.61798
1.61241
1.65981
1.76414
1.91285
1.97469
1.94446
1.91234
1.85511
1.96294
1.56036
1.58834
1.91625
1.88645
1.7594
1.68801
1.67828
1.66167
1.59747
1.5586
1.55371
1.57987
1.63858
1.73053
1.77202
1.75987
1.74318
1.73708
1.79738
1.83262
1.78074
1.78107
1.73842
1.65716
1.59832
1.57536
1.54754
1.51686
1.49703
1.49824
1.5157
1.53217
1.5658
1.58872
1.61078
1.63401
1.63822
1.66002
1.66224
1.66808
1.65475
1.61917
1.56426
1.51965
1.48533
1.45188
1.42269
1.41215
1.41732
1.42659
1.42909
1.43749
1.4729
1.50789
1.53574
1.55434
1.55665
1.5534
1.57867
1.57566
1.53895
1.4921
1.44901
1.40968
1.37004
1.33864
1.32778
1.33168
1.33495
1.33886
1.35396
1.38012
1.40838
1.43541
1.45828
1.46478
1.49251
1.52094
1.51581
1.47828
1.43255
1.38784
1.34613
1.30807
1.27826
1.2617
1.25614
1.25472
1.25775
1.2692
1.29056
1.31607
1.34115
1.35891
1.36065
1.44916
1.47673
1.46788
1.42817
1.38159
1.33522
1.29193
1.25343
1.22243
1.20164
1.18985
1.18399
1.18429
1.19252
1.20943
1.23069
1.25078
1.26362
1.26272
1.41375
1.43819
1.42637
1.38492
1.33714
1.28925
1.24437
1.20439
1.17126
1.14657
1.12983
1.11973
1.11657
1.12124
1.13329
1.14922
1.16457
1.17405
1.17252
1.38319
1.40384
1.38934
1.34646
1.29749
1.2481
1.20153
1.15965
1.12398
1.09557
1.07443
1.06019
1.05315
1.05359
1.06072
1.07192
1.08328
1.0902
1.08881
1.35605
1.37235
1.35538
1.31127
1.2612
1.21044
1.16218
1.11825
1.07995
1.04814
1.02313
1.005
0.994028
0.99026
0.992932
0.999856
1.00783
1.01278
1.01153
1.32985
1.34232
1.32318
1.27809
1.22716
1.17525
1.1255
1.07965
1.03891
1.0041
0.975714
0.954046
0.93938
0.931719
0.930361
0.933619
0.93863
0.941901
0.940989
1.30372
1.31249
1.29161
1.2459
1.19438
1.14167
1.09075
1.04333
1.00053
0.963192
0.931913
0.907126
0.889149
0.878008
0.873151
0.873119
0.875653
0.8777
0.876994
1.27597
1.28185
1.25963
1.2137
1.16199
1.10889
1.05725
1.00869
0.964313
0.924979
0.891344
0.863929
0.843104
0.828951
0.821037
0.818294
0.818686
0.819633
0.819271
1.24658
1.24956
1.22637
1.18063
1.12918
1.07616
1.02428
0.975103
0.929704
0.888941
0.853517
0.824012
0.800848
0.784181
0.773745
0.768597
0.767229
0.767396
0.767187
1.21426
1.2149
1.19108
1.14596
1.09525
1.0428
0.991212
0.941964
0.896109
0.854503
0.817875
0.786841
0.761873
0.743198
0.730655
0.723635
0.720746
0.72013
0.720163
1.17893
1.17727
1.15319
1.10912
1.0596
1.00824
0.957463
0.908695
0.862954
0.821086
0.78383
0.751827
0.725584
0.7054
0.691255
0.6826
0.678501
0.677335
0.677377
1.1394
1.13621
1.11228
1.06968
1.02181
0.972012
0.922552
0.874792
0.829712
0.788139
0.75081
0.718376
0.691375
0.670156
0.654774
0.644967
0.639831
0.638032
0.638154
1.09598
1.09147
1.0681
1.02736
0.981569
0.933776
0.886105
0.839843
0.795931
0.75517
0.718283
0.685923
0.658638
0.636827
0.620652
0.60986
0.603952
0.601669
0.601651
1.04808
1.04295
1.02054
0.982044
0.938707
0.893317
0.847853
0.803529
0.761239
0.721755
0.685777
0.653946
0.626817
0.604812
0.588128
0.576768
0.570251
0.567254
0.567274
0.996319
0.990715
0.969684
0.933748
0.893167
0.850514
0.807613
0.765605
0.725334
0.687532
0.652873
0.621974
0.595382
0.573533
0.556696
0.544821
0.537741
0.534605
0.534358
0.940556
0.934941
0.915633
0.882527
0.844954
0.805302
0.765256
0.725876
0.687953
0.652178
0.619186
0.589568
0.563851
0.542474
0.525718
0.513724
0.506216
0.502663
0.502263
0.881888
0.875703
0.858534
0.828467
0.794079
0.757626
0.720657
0.684154
0.648847
0.615379
0.584352
0.556328
0.531808
0.511211
0.494848
0.482765
0.474986
0.471102
0.470306
0.820274
0.813321
0.798495
0.771665
0.740551
0.707416
0.673681
0.640247
0.607788
0.576887
0.548098
0.521941
0.498885
0.479305
0.463456
0.451549
0.44349
0.439113
0.438033
0.754364
0.750046
0.736489
0.712346
0.68447
0.654696
0.62429
0.594058
0.564605
0.53646
0.510114
0.486026
0.464606
0.446191
0.431048
0.419271
0.411079
0.406399
0.404845
0.686627
0.683806
0.671802
0.65044
0.625771
0.599368
0.572336
0.545377
0.519021
0.493732
0.46994
0.448042
0.42839
0.411275
0.396911
0.385557
0.377281
0.372223
0.370403
0.616927
0.61473
0.604294
0.585671
0.564157
0.541102
0.517449
0.493791
0.470581
0.448216
0.427061
0.407454
0.389686
0.374007
0.360639
0.349712
0.341581
0.336436
0.334248
0.544529
0.542701
0.53371
0.517747
0.499323
0.47958
0.459292
0.438943
0.418907
0.399513
0.381063
0.363834
0.348066
0.333963
0.3217
0.311558
0.303703
0.298487
0.296231
0.469381
0.467529
0.459865
0.446471
0.431077
0.414615
0.397678
0.380638
0.363791
0.347399
0.331707
0.316933
0.303268
0.290886
0.279975
0.270671
0.263388
0.258453
0.256105
0.390985
0.389117
0.382682
0.3718
0.359443
0.346281
0.332697
0.318968
0.305318
0.291953
0.279061
0.266809
0.255349
0.24482
0.235366
0.227264
0.220684
0.216038
0.213949
0.309721
0.307596
0.302326
0.293967
0.284675
0.27492
0.264734
0.254325
0.243883
0.233568
0.223516
0.213848
0.204671
0.1961
0.188295
0.181368
0.175696
0.171681
0.169679
0.225548
0.222943
0.21874
0.212985
0.207482
0.201408
0.19475
0.187713
0.180513
0.173286
0.166125
0.159096
0.152259
0.145687
0.139465
0.133826
0.128971
0.125233
0.123566
0.137959
0.134299
0.131273
0.127953
0.12731
0.12573
0.122639
0.118986
0.115049
0.110959
0.106756
0.102452
0.0980447
0.0935412
0.088996
0.0844914
0.080273
0.0769068
0.0754427
0.0464591
0.0441254
0.0424518
0.0405546
0.0415717
0.0424057
0.0419236
0.0410014
0.0398878
0.0386652
0.0373445
0.0359198
0.0343781
0.0327082
0.0309149
0.0290512
0.0272209
0.0258147
0.0252915
)
;

boundaryField
{
    leftWall
    {
        type            calculated;
        value           nonuniform List<scalar> 
50
(
4672.95
3874.28
3074.88
2272.75
1494.92
1026.87
901.713
841.091
744.834
612.474
479.96
350.368
223.677
121.392
57.6592
23.3038
9.04124
5.88045
4.72136
4.30948
4.1843
4.0644
3.93307
3.79482
3.6524
3.50725
3.36007
3.21147
3.06204
2.91229
2.76272
2.61348
2.46478
2.31648
2.16848
2.02065
1.87294
1.72531
1.57796
1.43106
1.28498
1.13985
0.995936
0.853523
0.712928
0.574391
0.438125
0.304696
0.173355
0.0509385
)
;
    }
    rightWall
    {
        type            calculated;
        value           nonuniform List<scalar> 
50
(
2022.23
1498.87
1102.74
850.178
718.968
655.219
610.562
566.599
506.519
438.185
376.155
313.54
242.112
156.333
60.89
10.602
2.64222
1.96294
1.79738
1.66002
1.55665
1.46478
1.36065
1.26272
1.17252
1.08881
1.01153
0.940989
0.876994
0.819271
0.767187
0.720163
0.677377
0.638154
0.601651
0.567274
0.534358
0.502263
0.470306
0.438033
0.404845
0.370403
0.334248
0.296231
0.256105
0.213949
0.169679
0.123566
0.0754427
0.0252915
)
;
    }
    lowerWall
    {
        type            calculated;
        value           nonuniform List<scalar> 
62
(
5071.1
5087.94
5116.42
5156.14
5206.58
5271.04
5351.94
5449.67
5563.09
5690.18
5828.16
5973.91
6124.38
6277.07
6429.86
6582.13
6734.62
6888.79
7044.56
7199.04
7344.35
7463.5
7554.45
7156.52
6376.61
5614.88
4862.01
4116.29
3371.78
2619.06
1825.15
909.479
721.791
715.294
705.024
3664.35
3014.61
2404.66
1866.5
1388.89
976.237
767.184
681.055
4015.26
3548.03
3358.58
2946.31
2714.66
2535.02
2397.75
2301.8
2236.01
2192.27
2169.79
2226.26
2286.89
2329
2355.2
2369.08
2361.98
2340.92
2304.5
)
;
    }
    atmosphere
    {
        type            calculated;
        value           nonuniform List<scalar> 
46
(
0
-0.000213428
-0.000297327
-0.000316387
-0.00030514
-0.000289348
-0.00027462
-0.000261243
-0.000248524
-0.000235673
-0.00022205
-0.000207156
-0.000190689
-0.000172479
-0.000152569
-0.000131173
-0.000108731
-8.58307e-05
-6.34245e-05
-4.29785e-05
-2.62267e-05
-1.31942e-05
-7.44925e-06
-4.5193e-05
-4.1716e-05
-3.05141e-05
-1.86539e-05
-1.65056e-05
-2.85478e-06
0
0
0
0
0
0
0
0
0
0
0
0
0
0
0
0
0
)
;
    }
    defaultFaces
    {
        type            empty;
    }
}


// ************************************************************************* //
