/*--------------------------------*- C++ -*----------------------------------*\
  =========                 |
  \\      /  F ield         | OpenFOAM: The Open Source CFD Toolbox
   \\    /   O peration     | Website:  https://openfoam.org
    \\  /    A nd           | Version:  13
     \\/     M anipulation  |
\*---------------------------------------------------------------------------*/
FoamFile
{
    format      ascii;
    class       volScalarField;
    location    "1.45";
    object      p_rgh;
}
// * * * * * * * * * * * * * * * * * * * * * * * * * * * * * * * * * * * * * //

dimensions      [1 -1 -2 0 0 0 0];

internalField   nonuniform List<scalar> 
2268
(
5071.1
5087.94
5116.42
5156.14
5206.58
5271.04
5351.94
5449.67
5563.09
5690.18
5828.16
5973.91
6124.38
6277.07
6429.86
6582.13
6734.62
6888.79
7044.56
7199.04
7344.35
7463.5
7554.45
5068.73
5083.24
5107.09
5143.44
5191.01
5252.64
5330.61
5425.48
5536.38
5661.83
5799.64
5947.08
6101.27
6259.87
6420.5
6582.32
6744.71
6908.84
7073.53
7234.53
7381.11
7490.82
7570.41
5065.63
5080.48
5100.21
5131.67
5174.65
5232.02
5305.9
5397.01
5504.74
5628.53
5766.39
5916.04
6074.56
6239.75
6408.91
6580.62
6753.08
6926.74
7099.04
7264.3
7410.1
7515.87
7604.96
5059.8
5079.11
5094.89
5120.61
5157.92
5210.46
5280.15
5367.65
5472.57
5594.62
5733.27
5885.71
6048.93
6221.04
6398.35
6578.81
6758.55
6938.42
7114.78
7281.16
7425.46
7535.21
7649.02
4840.41
4886.44
4920.36
4965.12
5034.26
5130.34
5239.78
5347.38
5451.15
5568.99
5705.59
5858.51
6024.94
6202.9
6388.11
6577.11
6762.44
6946.41
7124.19
7289.54
7432.7
7552
7699.64
2074.24
2215.14
2297.47
2380.69
2518.86
2757.58
3121.66
3619.19
4237.86
4809.86
5312.04
5724.49
6008.28
6197.17
6383.6
6578.36
6766.96
6954.16
7132.43
7295.88
7437.9
7568.83
7751.42
1284.3
1288.81
1289.92
1291.01
1291.54
1291.61
1291.57
1292.21
1294.33
1494.69
1953.34
2659.97
3651.97
4813.84
5737.72
6488.19
6776.14
6960.67
7136.78
7298
7439.6
7579.56
7794.99
1282.53
1287.39
1289.52
1290.86
1291.79
1292.6
1293.71
1295.69
1298.86
1300.57
1300.82
1300.53
1300.74
1337.96
1800.4
2594.52
3831.93
5130.09
6137.14
6863.69
7364.13
7556.23
7795.09
4015.26
3548.03
3358.58
2946.31
2714.66
2535.02
2397.75
2301.8
2236.01
2192.27
2169.79
2226.26
2286.89
2329
2355.2
2369.08
2361.98
2340.92
2304.5
4067.47
3560.73
3369.22
3178.52
2986.78
2790.67
2589.33
2443.2
2362.86
2290.79
2135.73
2152.89
2196.73
2254.3
2274.75
2308.27
2326.02
2292.47
2191.47
4129.77
2924.31
2697.1
2755.18
2415.68
1985.12
1687.16
1599.12
1581.65
1612.65
1727.7
1726.57
1674.41
1679.74
1746.78
1770.37
1743.4
1794.6
1905.84
4263.72
2599.41
2147.65
1611.37
1328.14
1221.03
1132.35
1030.3
975.618
1101.47
1382.08
1479.56
1615.16
1577.94
1588.57
1550.08
1429.07
1375.55
1475.05
4470.34
3446.8
2302.55
1382.92
1278.08
1217.05
1176.83
1140.38
1100.02
1026.84
918.135
1068.77
1295.68
1597.46
1639.49
1629.14
1441.46
1201.4
1095.17
3140.28
2415.49
2411.79
1366.73
1268.92
1216.77
1180.09
1147.16
1118.89
1088.43
1042.06
988.294
969.949
958.113
939.125
958.66
961.105
932.976
900.846
1441.55
1369.4
1848.88
1435.14
1257.29
1211.35
1173.33
1140.61
1112.25
1086.05
1063.84
1030.24
1006.16
972.05
913.347
835.759
834.551
873.873
911.593
1448.03
1457.44
1557.01
1387.59
1243.98
1203.95
1168.27
1135.79
1106.74
1080.78
1059.37
1038.53
1015.01
971.138
844.664
762.764
763.823
825.062
884.819
1278.3
1282.73
1285.15
1286.47
1287.47
1288.49
1289.82
1291.91
1294.65
1297.67
1300.51
1303.54
1306.9
1311.02
1314.37
1317.27
1328.21
1413.78
1624.07
1953.19
2337.71
2967.7
4471.38
1271.14
1274.24
1276.15
1277.28
1278.45
1279.84
1281.6
1283.98
1286.86
1289.72
1292.59
1295.61
1298.9
1302.36
1304.9
1305.97
1306.48
1304.85
1299.52
1287.26
1263.42
1220.54
1166.55
1263.82
1263.56
1263.71
1264.54
1266.2
1268.36
1271
1274.53
1278.42
1281.99
1285.14
1288.54
1292.35
1295.91
1298.27
1299.02
1298.87
1297.16
1291.8
1280.23
1260.14
1231.48
1201.4
1259.42
1251.66
1236.29
1240.88
1244.29
1249.86
1249.96
1251.5
1259.77
1268.49
1270.28
1273.41
1281.14
1290.26
1292.84
1283.09
1283.41
1292.66
1291.95
1280.33
1230.03
1144.31
1029.33
1240.71
1091.54
974.411
940.174
945.866
957.658
947.191
978.416
1012.65
1029.8
1016.36
1017.34
1047.09
1091.68
1097.5
1045.58
1006.9
1021.74
1024.61
975.43
894.217
812.813
781.03
707.423
608.891
698.831
709.284
715.058
677.428
633.502
637.71
659.327
654.681
649.775
657.531
673.049
681.635
678.44
680.074
713.462
754.511
765.225
765.583
769.472
782.921
787.479
268.181
660.101
677.151
701.128
713.451
724.282
736.79
748.873
757.095
764.698
771.764
777.642
782.872
787.665
792.104
795.767
798.097
799.346
800.021
799.851
798.501
795.884
792.549
189.835
236.516
203.612
357.196
525.019
625.122
686.148
723.389
748.487
760.877
767.508
773.523
778.975
783.652
787.703
791.182
793.967
796.043
797.409
797.964
797.497
796.032
794.244
104.828
8.02192
6.99531
6.43561
6.14865
73.8933
150.846
237.547
335.264
441.47
545.88
619.059
678.445
725.056
757.796
780.372
793.414
799.25
801.137
801.794
801.332
800.079
797.192
40.8532
14.2807
6.54412
6.42572
6.36965
6.27106
6.09018
5.99345
5.87468
5.76478
5.40751
38.9827
83.8149
138.863
199.023
270.711
346.663
417.07
476.26
525.006
556.61
557.686
536.688
15.9944
11.5829
6.43455
6.39485
6.35264
6.29489
6.23748
6.18271
6.10389
5.984
5.87498
5.73387
5.59088
5.46502
5.33566
5.19198
5.0373
4.86607
4.66984
4.46738
4.136
4.03719
4.06664
6.87618
7.07152
6.36511
6.33279
6.29587
6.2535
6.1948
6.13305
6.07284
5.99107
5.9252
5.84488
5.77091
5.69032
5.59481
5.48235
5.35503
5.21744
5.07015
4.90358
4.74809
4.66028
4.62388
6.2206
6.23655
6.27656
6.2735
6.25255
6.20764
6.15053
6.08848
6.02722
6.01776
6.00078
5.81284
5.71089
5.61671
5.51701
5.40667
5.28487
5.15376
5.02213
4.88452
4.76201
4.6766
4.61248
6.22623
6.23671
6.24807
6.24141
6.21668
6.17534
6.1214
6.05871
6.00175
6.10012
6.03111
5.85836
5.65466
5.56044
5.46429
5.36006
5.24553
5.12047
4.99155
4.87541
4.76005
4.68523
4.63222
6.21958
6.22328
6.2244
6.21438
6.19
6.1511
6.09987
6.03862
5.98446
6.0735
6.01075
5.92622
5.66423
5.54651
5.45292
5.35504
5.24482
5.12426
4.99926
4.88095
4.7839
4.71746
4.66963
6.20628
6.20548
6.20201
6.18937
6.16489
6.12793
6.07958
6.02131
5.95454
5.89305
5.99309
5.93162
5.72658
5.5548
5.46395
5.36648
5.26212
5.14566
5.02824
4.91818
4.82261
4.76411
4.72798
6.18907
6.18562
6.17918
6.16504
6.14066
6.10549
6.06024
6.0061
5.94418
5.87563
5.80823
5.83066
5.69777
5.56334
5.47532
5.38257
5.2828
5.1731
5.06511
4.96343
4.87491
4.82225
4.78836
6.16911
6.16404
6.15601
6.14117
6.11731
6.084
6.04181
5.99163
5.93437
5.87069
5.80114
5.72668
5.64958
5.58446
5.48711
5.39588
5.30176
5.2039
5.10459
5.01031
4.92801
4.88003
4.84861
6.14711
6.14144
6.13273
6.11778
6.09477
6.0634
6.02408
5.97751
5.9244
5.86529
5.80064
5.7312
5.65865
5.58513
5.50464
5.41744
5.32886
5.23766
5.14546
5.05773
4.98109
4.93727
4.90825
6.12369
6.11816
6.10942
6.0948
6.07293
6.04349
6.00688
5.96362
5.91427
5.85931
5.79919
5.73446
5.6658
5.59352
5.51906
5.44017
5.35717
5.27215
5.18629
5.10484
5.03367
4.99326
4.96698
6.09944
6.09454
6.08621
6.07224
6.05164
6.02416
5.99011
5.94994
5.90409
5.853
5.79708
5.73684
5.67279
5.60532
5.53478
5.46132
5.38505
5.30609
5.22638
5.1507
5.08461
5.04714
5.02264
6.07488
6.07088
6.06326
6.05012
6.03085
6.00528
5.97367
5.93639
5.89385
5.84642
5.79451
5.73855
5.67903
5.61633
5.5508
5.48262
5.41184
5.3387
5.26486
5.1947
5.13329
5.09809
5.07533
6.0505
6.04742
6.04063
6.02842
6.01048
5.98675
5.95744
5.9229
5.88347
5.83951
5.7914
5.73954
5.68438
5.62631
5.56565
5.50257
5.43715
5.36958
5.30138
5.23644
5.17954
5.14653
5.12494
6.02645
6.02441
6.0184
6.00709
5.99044
5.96846
5.94131
5.90933
5.87282
5.83213
5.78762
5.73967
5.68869
5.63506
5.57908
5.52093
5.46066
5.39846
5.33566
5.27583
5.22328
5.19237
5.17248
6.00293
6.00167
5.99642
5.98606
5.97064
5.95029
5.92517
5.89557
5.8618
5.82419
5.78307
5.73882
5.69182
5.64243
5.59093
5.5375
5.48218
5.42515
5.36758
5.31263
5.26429
5.23552
5.21687
5.97982
5.97912
5.97458
5.96516
5.95099
5.93221
5.90895
5.88153
5.8503
5.81557
5.77766
5.73691
5.69369
5.64834
5.60112
5.5522
5.50163
5.44954
5.39695
5.34672
5.30243
5.27561
5.25836
5.95701
5.95668
5.95276
5.94426
5.9313
5.91401
5.89256
5.86724
5.83838
5.80631
5.77137
5.73393
5.69429
5.65278
5.60964
5.56503
5.51899
5.47162
5.42382
5.37809
5.33772
5.31299
5.29684
5.93438
5.93427
5.93089
5.92327
5.91145
5.89559
5.87586
5.85257
5.82601
5.7965
5.76439
5.73001
5.69372
5.65585
5.6166
5.5761
5.53437
5.49151
5.44827
5.40692
5.37038
5.34782
5.33317
5.91186
5.91186
5.90894
5.90212
5.89139
5.87689
5.85883
5.83749
5.81316
5.78615
5.75678
5.72539
5.69232
5.65785
5.62224
5.58562
5.54801
5.50944
5.4706
5.43345
5.40066
5.38044
5.36692
5.88942
5.8895
5.88697
5.88087
5.87114
5.85795
5.84151
5.82207
5.79991
5.77534
5.74865
5.72018
5.69024
5.65912
5.62704
5.59411
5.56036
5.52585
5.49116
5.45809
5.42901
5.41129
5.3986
5.86726
5.86733
5.8651
5.85963
5.85085
5.83891
5.82403
5.80645
5.78643
5.76425
5.74021
5.71461
5.68775
5.6599
5.63126
5.60194
5.57196
5.54135
5.51065
5.48145
5.45605
5.44146
5.42857
5.84556
5.84559
5.84357
5.83863
5.83071
5.81998
5.80663
5.79088
5.77297
5.75316
5.73173
5.70896
5.68514
5.66051
5.63525
5.60946
5.58317
5.55637
5.52956
5.50414
5.48204
5.46912
5.46045
5.82467
5.82455
5.82262
5.81814
5.81103
5.80147
5.78963
5.7757
5.7599
5.74245
5.72361
5.70365
5.68282
5.66135
5.6394
5.61708
5.59438
5.57132
5.54831
5.5266
5.50786
5.49727
5.4913
5.80473
5.80442
5.80254
5.79847
5.79217
5.78379
5.77347
5.76137
5.74767
5.73258
5.71632
5.69913
5.68124
5.66287
5.64416
5.62521
5.606
5.58655
5.56721
5.54907
5.5336
5.52534
5.52156
5.78602
5.78549
5.78365
5.78003
5.77458
5.76742
5.75866
5.74842
5.73685
5.72411
5.71039
5.69592
5.6809
5.66553
5.64995
5.63422
5.61835
5.60233
5.58648
5.57173
5.55933
5.55327
5.55119
5.7688
5.7681
5.76638
5.76328
5.75876
5.75292
5.7458
5.73747
5.72802
5.7176
5.70637
5.69453
5.68228
5.66977
5.65714
5.64444
5.63169
5.61887
5.60623
5.59459
5.58502
5.58088
5.58033
5.7534
5.75261
5.75112
5.7487
5.74529
5.7409
5.7355
5.7291
5.72174
5.71357
5.70471
5.69536
5.68569
5.67585
5.66594
5.65604
5.64612
5.63619
5.62646
5.61759
5.61046
5.6079
5.60832
5.74006
5.73929
5.73824
5.73676
5.7347
5.73191
5.72827
5.72374
5.71837
5.71229
5.70564
5.69857
5.69126
5.68384
5.67639
5.66898
5.66158
5.6542
5.647
5.64053
5.63548
5.63405
5.63505
5.72898
5.72834
5.72807
5.72793
5.72746
5.7263
5.72432
5.72149
5.7179
5.71368
5.70899
5.70397
5.69876
5.69348
5.68821
5.68297
5.67778
5.67261
5.66762
5.6632
5.65989
5.65933
5.66053
5.72075
5.72094
5.72229
5.72395
5.72503
5.72524
5.72456
5.72307
5.72092
5.71826
5.71524
5.71198
5.70859
5.70517
5.70178
5.69843
5.69512
5.69186
5.68873
5.68606
5.6842
5.68428
5.68568
5.7146
5.71767
5.72314
5.72698
5.72902
5.72984
5.7298
5.72912
5.72797
5.7265
5.7248
5.72297
5.72109
5.7192
5.71734
5.71553
5.71375
5.71202
5.7104
5.70908
5.70827
5.70858
5.70968
5.71738
5.71639
5.72525
5.72917
5.73064
5.73119
5.73129
5.73111
5.73075
5.73028
5.72973
5.72914
5.72854
5.72794
5.72736
5.7268
5.72627
5.72575
5.72527
5.7249
5.7247
5.72481
5.7252
2739.93
1391.29
1328.83
1269.42
1201.92
1193.37
1116.4
1206.73
1156.16
994.089
1155.1
1410.61
1019.95
885.17
803.699
794.826
765.045
764.389
768.181
770.386
783.486
780.287
778.005
775.897
789.298
786.787
784.524
782.232
792.733
791.06
789.032
786.341
790.292
787.296
786.505
785.261
510.128
490.6
475.319
430.942
3.80409
3.74375
3.62993
3.45841
4.5329
4.3548
4.11262
3.92224
4.44883
4.22742
3.96264
3.78555
4.46736
4.25765
3.98939
3.80919
4.52283
4.31297
4.04521
3.86977
4.58345
4.37543
4.11356
3.94476
4.64666
4.44398
4.19032
4.02896
4.71187
4.51712
4.27453
4.12038
4.77895
4.59405
4.36263
4.2157
4.84582
4.67172
4.45318
4.31313
4.91031
4.74787
4.54203
4.40961
4.97117
4.82044
4.62907
4.50466
5.0295
4.89084
4.71323
4.59726
5.08563
4.95895
4.7959
4.68785
5.13876
5.02393
4.87435
4.7745
5.18794
5.08424
4.94871
4.85706
5.234
5.14094
5.01811
4.93476
5.27737
5.19427
5.08411
5.00846
5.31793
5.24422
5.14534
5.0774
5.35556
5.29045
5.20293
5.14248
5.39114
5.33457
5.25734
5.20419
5.42825
5.3782
5.31014
5.26349
5.46426
5.42072
5.36043
5.31918
5.499
5.46156
5.40937
5.37345
5.53293
5.50129
5.45639
5.42564
5.56592
5.53972
5.50209
5.47595
5.59738
5.57625
5.5451
5.52341
5.62676
5.61014
5.58552
5.56804
5.65457
5.64209
5.6232
5.6097
5.68173
5.67307
5.65973
5.64957
5.70867
5.70371
5.69513
5.68748
5.72575
5.72428
5.72146
5.71795
1186.56
1567.49
1782.79
1428.52
1220.64
1189.46
1158.35
1121.32
1069.83
1023.4
997.468
971.498
931.448
859.014
775.537
754.295
759.902
767.696
856.604
1344.65
1579.39
1704.4
1730.52
1155.51
1139.3
1109.88
949.768
815.021
789.112
771.012
753.062
738.185
732.453
736.996
744.604
751.14
757.857
811.245
824.988
782.157
1316.34
1353.18
1054.3
998.589
832.662
768.853
765.409
756.681
746.323
737.078
730.938
729.337
732.363
737.403
743.752
753.258
781.37
770.527
753.262
738.247
695.756
720.795
739.535
741.089
760.402
755.396
747.593
739.21
732.009
726.907
724.761
726.086
729.767
735.83
747.89
776.182
768.219
759.974
750.296
749.647
736.094
737.282
753.918
753.4
746.483
738.479
731.144
725.738
721.379
718.385
718.216
720.352
725.314
737.692
816.853
773.329
766.699
759.379
755.956
756.079
754.682
750.619
745.189
738.164
728.912
722.176
717.888
710.792
703.494
701.1
701.923
705.037
725.884
831.03
778.428
772.462
765.638
760.145
756.01
751.162
744.368
737.489
727.96
713.246
705.015
693.813
553.016
430.98
409.04
428.229
451.523
540.621
671.533
781.979
777.134
771.59
765.238
755.497
721.867
656.451
610.353
449.092
200.706
145.998
90.5717
30.926
9.83165
6.93178
9.24589
16.1542
37.2574
132.539
779.26
766.451
705.996
551.597
391.17
244.207
47.7847
3.44899
3.57733
3.36238
3.46621
3.65409
3.76599
3.80819
3.85467
4.83511
8.17729
4.03871
10.4866
316.192
240.67
123.756
3.43624
3.31777
3.38953
3.56655
3.47212
3.34328
3.27854
3.27291
3.32027
3.42459
3.98751
5.09001
5.72888
4.86983
3.52016
3.62324
3.3459
3.37383
3.70176
3.672
3.54509
3.47366
3.46383
3.44716
3.65282
3.80764
3.3812
3.36554
3.59405
6.21492
6.3152
5.57457
4.22089
3.5233
3.58301
3.74342
3.69146
3.69178
3.64932
3.56872
3.50974
3.4861
3.8019
4.45765
4.4202
3.71739
3.4291
3.90179
5.81287
4.9508
3.68873
3.64859
3.54941
3.57105
3.69826
3.70393
3.69069
3.65574
3.60112
3.55631
3.52129
3.90588
4.50884
4.37983
3.60272
3.47736
3.66355
3.57586
3.50875
3.54374
3.57161
3.59047
3.59275
3.71444
3.73971
3.7368
3.70016
3.65383
3.61407
3.58219
3.58202
3.58856
3.58315
3.50095
3.49903
3.4999
3.515
3.54117
3.56944
3.59662
3.61985
3.62755
3.77872
3.80715
3.80206
3.76459
3.71908
3.67468
3.63311
3.59441
3.56466
3.54839
3.54385
3.54218
3.54397
3.55543
3.57681
3.6024
3.62767
3.64638
3.64873
3.86057
3.88813
3.87928
3.83957
3.79301
3.74665
3.70336
3.66484
3.6339
3.61327
3.6018
3.59626
3.59573
3.60395
3.62088
3.64218
3.66253
3.67579
3.67579
3.95035
3.97478
3.96295
3.9215
3.87373
3.82584
3.78096
3.74098
3.70788
3.68325
3.66663
3.65652
3.65318
3.65785
3.66991
3.68588
3.70131
3.711
3.70939
4.04499
4.06563
4.05112
4.00825
3.95927
3.90988
3.86331
3.82143
3.78577
3.75737
3.73623
3.72201
3.71494
3.71538
3.72251
3.73373
3.74514
3.75205
3.75071
4.14304
4.15933
4.14236
4.09825
4.04818
3.99741
3.94915
3.90522
3.86692
3.83512
3.81011
3.79198
3.781
3.77724
3.77991
3.78684
3.79481
3.79978
3.79852
4.24203
4.2545
4.23535
4.19027
4.13933
4.08742
4.03766
3.99181
3.95107
3.91627
3.88788
3.86621
3.85155
3.84389
3.84253
3.84579
3.8508
3.85408
3.85317
4.34109
4.34985
4.32897
4.28326
4.23174
4.17903
4.12812
4.08069
4.03789
4.00055
3.96927
3.94449
3.92651
3.91537
3.91051
3.91048
3.91302
3.91507
3.91437
4.43853
4.44441
4.42219
4.37625
4.32455
4.27144
4.2198
4.17124
4.12687
4.08753
4.0539
4.02648
4.00566
3.99151
3.98359
3.98086
3.98125
3.9822
3.98184
4.53433
4.53731
4.51412
4.46838
4.41693
4.36391
4.31203
4.26285
4.21745
4.17669
4.14126
4.11176
4.0886
4.07193
4.0615
4.05635
4.05499
4.05517
4.05496
4.6272
4.62784
4.60402
4.5589
4.50819
4.45575
4.40415
4.35491
4.30905
4.26744
4.23082
4.19978
4.17482
4.15614
4.1436
4.13659
4.13371
4.13311
4.13314
4.71707
4.7154
4.69133
4.64726
4.59774
4.54638
4.4956
4.44683
4.40109
4.35922
4.32197
4.28996
4.26372
4.24354
4.2294
4.22075
4.21667
4.21553
4.21555
4.80273
4.79954
4.77561
4.73301
4.68514
4.63534
4.58588
4.53812
4.49304
4.45147
4.41414
4.38171
4.35471
4.33349
4.31811
4.30832
4.30321
4.30143
4.30155
4.8845
4.87999
4.85663
4.81589
4.77009
4.7223
4.67463
4.62837
4.58446
4.54369
4.50681
4.47445
4.44717
4.42536
4.40919
4.39841
4.39254
4.39035
4.39025
4.9618
4.95666
4.93426
4.89576
4.85243
4.80704
4.76157
4.71725
4.67496
4.63547
4.5995
4.56767
4.54054
4.51854
4.50186
4.49052
4.48406
4.48118
4.48109
5.03523
5.02963
5.0086
4.97266
4.93208
4.88943
4.84653
4.80452
4.76425
4.72645
4.69179
4.66089
4.6343
4.61245
4.59562
4.58377
4.57678
4.57374
4.57337
5.10466
5.09905
5.07974
5.04664
5.00906
4.96941
4.92936
4.88998
4.85206
4.81629
4.7833
4.75368
4.72796
4.70659
4.68984
4.67789
4.67049
4.667
4.66647
5.17119
5.16501
5.14784
5.11777
5.08338
5.04693
5.00996
4.97346
4.93815
4.90468
4.87366
4.84563
4.82112
4.80052
4.78417
4.77213
4.76448
4.76064
4.7597
5.23477
5.22782
5.21299
5.18616
5.15505
5.12191
5.08818
5.05474
5.02229
4.99139
4.9626
4.93644
4.91339
4.89381
4.87798
4.86612
4.85819
4.85383
4.8526
5.29406
5.28974
5.27618
5.25204
5.22416
5.19439
5.16398
5.13375
5.1043
5.07615
5.04981
5.02572
5.0043
4.9859
4.97077
4.95904
4.95095
4.94624
4.94457
5.35151
5.34869
5.33669
5.31533
5.29066
5.26425
5.23722
5.21026
5.18391
5.15862
5.13483
5.11293
5.09328
5.07618
5.06182
5.05051
5.04228
5.03716
5.03531
5.40701
5.40481
5.39438
5.37575
5.35424
5.33118
5.30753
5.28387
5.26066
5.2383
5.21714
5.19754
5.17978
5.1641
5.15074
5.13984
5.13169
5.12654
5.12434
5.4598
5.45798
5.44899
5.43302
5.4146
5.39486
5.37457
5.35422
5.33418
5.31479
5.29634
5.27911
5.26335
5.24925
5.23699
5.22686
5.21899
5.21377
5.21151
5.50985
5.508
5.50033
5.48694
5.47155
5.45509
5.43815
5.42111
5.40426
5.38787
5.37218
5.35741
5.34374
5.33137
5.32046
5.31115
5.30386
5.29893
5.29658
5.55665
5.55478
5.54835
5.53746
5.52511
5.51195
5.49836
5.48463
5.47098
5.45762
5.44473
5.43248
5.42102
5.41049
5.40104
5.39293
5.38635
5.3817
5.37961
5.60058
5.59846
5.59319
5.58483
5.57553
5.56578
5.55559
5.54518
5.53474
5.52443
5.51438
5.50471
5.49553
5.48696
5.47916
5.47223
5.46656
5.46254
5.46054
5.6416
5.639
5.63479
5.62904
5.62354
5.61746
5.6108
5.60377
5.59657
5.58934
5.58218
5.57515
5.56831
5.56174
5.55552
5.54988
5.54503
5.54129
5.53962
5.67921
5.67555
5.67252
5.6692
5.66856
5.66698
5.66389
5.66023
5.6563
5.65221
5.648
5.6437
5.63929
5.63479
5.63025
5.62574
5.62152
5.61816
5.61669
5.7129
5.71057
5.70889
5.707
5.70801
5.70885
5.70837
5.70744
5.70633
5.70511
5.70379
5.70236
5.70082
5.69915
5.69736
5.69549
5.69366
5.69226
5.69173
)
;

boundaryField
{
    leftWall
    {
        type            fixedFluxPressure;
        gradient        uniform 0;
        value           nonuniform List<scalar> 
50
(
5071.1
5068.73
5065.63
5059.8
4840.41
2074.24
1284.3
1282.53
1278.3
1271.14
1263.82
1259.42
1240.71
707.423
268.181
189.835
104.828
40.8532
15.9944
6.87618
6.2206
6.22623
6.21958
6.20628
6.18907
6.16911
6.14711
6.12369
6.09944
6.07488
6.0505
6.02645
6.00293
5.97982
5.95701
5.93438
5.91186
5.88942
5.86726
5.84556
5.82467
5.80473
5.78602
5.7688
5.7534
5.74006
5.72898
5.72075
5.7146
5.71738
)
;
    }
    rightWall
    {
        type            fixedFluxPressure;
        gradient        uniform 0;
        value           nonuniform List<scalar> 
50
(
2304.5
2191.47
1905.84
1475.05
1095.17
900.846
911.593
884.819
856.604
811.245
781.37
776.182
816.853
831.03
671.533
132.539
10.4866
3.62324
3.58301
3.57105
3.59275
3.62755
3.64873
3.67579
3.70939
3.75071
3.79852
3.85317
3.91437
3.98184
4.05496
4.13314
4.21555
4.30155
4.39025
4.48109
4.57337
4.66647
4.7597
4.8526
4.94457
5.03531
5.12434
5.21151
5.29658
5.37961
5.46054
5.53962
5.61669
5.69173
)
;
    }
    lowerWall
    {
        type            fixedFluxPressure;
        gradient        uniform 0;
        value           nonuniform List<scalar> 
62
(
5071.1
5087.94
5116.42
5156.14
5206.58
5271.04
5351.94
5449.67
5563.09
5690.18
5828.16
5973.91
6124.38
6277.07
6429.86
6582.13
6734.62
6888.79
7044.56
7199.04
7344.35
7463.5
7554.45
7554.45
7570.41
7604.96
7649.02
7699.64
7751.42
7794.99
7795.09
2739.93
1391.29
1328.83
1269.42
4015.26
4067.47
4129.77
4263.72
4470.34
3140.28
1441.55
1448.03
4015.26
3548.03
3358.58
2946.31
2714.66
2535.02
2397.75
2301.8
2236.01
2192.27
2169.79
2226.26
2286.89
2329
2355.2
2369.08
2361.98
2340.92
2304.5
)
;
    }
    atmosphere
    {
        type            prghTotalPressure;
        rho             rho;
        psi             none;
        gamma           1;
        p0              uniform 0;
        value           nonuniform List<scalar> 
46
(
5.72904
5.72883
5.72874
5.72872
5.72873
5.72875
5.72877
5.72878
5.72879
5.7288
5.72882
5.72883
5.72885
5.72887
5.72889
5.72891
5.72893
5.72895
5.72898
5.729
5.72901
5.72903
5.72903
5.72899
5.729
5.72901
5.72902
5.72902
5.72904
5.72904
5.72904
5.72904
5.72904
5.72904
5.72904
5.72904
5.72904
5.72904
5.72904
5.72904
5.72904
5.72904
5.72904
5.72904
5.72904
5.72904
)
;
        rho             rho;
    }
    defaultFaces
    {
        type            empty;
    }
}


// ************************************************************************* //
