/*--------------------------------*- C++ -*----------------------------------*\
  =========                 |
  \\      /  F ield         | OpenFOAM: The Open Source CFD Toolbox
   \\    /   O peration     | Website:  https://openfoam.org
    \\  /    A nd           | Version:  13
     \\/     M anipulation  |
\*---------------------------------------------------------------------------*/
FoamFile
{
    format      ascii;
    class       surfaceScalarField;
    location    "1.45";
    object      phi;
}
// * * * * * * * * * * * * * * * * * * * * * * * * * * * * * * * * * * * * * //

dimensions      [0 3 -1 0 0 0 0];

internalField   nonuniform List<scalar> 
4432
(
-1.04774e-06
1.04774e-06
-7.13379e-07
-3.34357e-07
1.42541e-07
-8.5592e-07
1.02036e-06
-8.77814e-07
1.88121e-06
-8.60858e-07
2.7938e-06
-9.12592e-07
3.81598e-06
-1.02218e-06
4.97063e-06
-1.15465e-06
6.25127e-06
-1.28065e-06
7.62381e-06
-1.37254e-06
9.02765e-06
-1.40384e-06
1.03791e-05
-1.35145e-06
1.15768e-05
-1.19772e-06
1.25026e-05
-9.25774e-07
1.30137e-05
-5.11087e-07
1.2966e-05
4.76602e-08
1.22295e-05
7.36533e-07
1.07082e-05
1.52126e-06
8.35108e-06
2.35713e-06
5.19783e-06
3.15326e-06
1.55978e-06
3.63805e-06
-1.12171e-06
2.68149e-06
-1.12171e-06
8.17347e-10
1.04692e-06
7.40636e-07
-1.07417e-06
1.49871e-06
-1.61399e-06
2.20349e-06
-1.58259e-06
2.89198e-06
-1.54934e-06
3.63942e-06
-1.66002e-06
4.49796e-06
-1.88072e-06
5.48635e-06
-2.14303e-06
6.59839e-06
-2.39268e-06
7.80669e-06
-2.58083e-06
9.0646e-06
-2.66175e-06
1.03066e-05
-2.59346e-06
1.14498e-05
-2.34096e-06
1.23911e-05
-1.86702e-06
1.29922e-05
-1.11221e-06
1.31076e-05
-6.77357e-08
1.25921e-05
1.25199e-06
1.13525e-05
2.76093e-06
9.34949e-06
4.36012e-06
6.64661e-06
5.85614e-06
3.53781e-06
6.74685e-06
7.35003e-07
5.4843e-06
-3.8671e-07
8.76745e-07
1.70175e-07
1.75046e-06
-1.94789e-06
2.42322e-06
-2.28675e-06
3.01673e-06
-2.17611e-06
3.60288e-06
-2.13549e-06
4.2517e-06
-2.30884e-06
5.00613e-06
-2.63514e-06
5.87882e-06
-3.01573e-06
6.8635e-06
-3.37735e-06
7.93742e-06
-3.65475e-06
9.06113e-06
-3.78546e-06
1.01825e-05
-3.71479e-06
1.12357e-05
-3.39417e-06
1.21365e-05
-2.76781e-06
1.27603e-05
-1.73601e-06
1.29687e-05
-2.76161e-07
1.262e-05
1.60068e-06
1.16258e-05
3.75514e-06
9.95201e-06
6.0339e-06
7.65723e-06
8.15092e-06
4.95004e-06
9.45404e-06
2.15371e-06
8.28064e-06
1.767e-06
1.65082e-06
-1.48064e-06
2.52225e-06
-2.81933e-06
3.13471e-06
-2.8992e-06
3.66431e-06
-2.7057e-06
4.19191e-06
-2.66309e-06
4.78225e-06
-2.89917e-06
5.46941e-06
-3.32231e-06
6.26059e-06
-3.80689e-06
7.14676e-06
-4.26352e-06
8.1066e-06
-4.61458e-06
9.10903e-06
-4.78788e-06
1.01093e-05
-4.7151e-06
1.10572e-05
-4.34201e-06
1.18938e-05
-3.60443e-06
1.25089e-05
-2.35109e-06
1.27773e-05
-5.44579e-07
1.25621e-05
1.81585e-06
1.17847e-05
4.53258e-06
1.04093e-05
7.40927e-06
8.46946e-06
1.00908e-05
6.06641e-06
1.18571e-05
3.24445e-06
1.11026e-05
5.01144e-06
2.14708e-06
-3.62772e-06
3.02433e-06
-3.69658e-06
3.64251e-06
-3.51739e-06
4.17128e-06
-3.23447e-06
4.69363e-06
-3.18545e-06
5.2673e-06
-3.47285e-06
5.91688e-06
-3.97189e-06
6.6454e-06
-4.53541e-06
7.45186e-06
-5.06999e-06
8.31745e-06
-5.48017e-06
9.21302e-06
-5.68346e-06
1.00985e-05
-5.60053e-06
1.09388e-05
-5.18238e-06
1.16913e-05
-4.35684e-06
1.22665e-05
-2.92634e-06
1.25592e-05
-8.37284e-07
1.24437e-05
1.93136e-06
1.18577e-05
5.11856e-06
1.07564e-05
8.51056e-06
9.13633e-06
1.17109e-05
6.99118e-06
1.40022e-05
4.12436e-06
1.39694e-05
9.13581e-06
2.31315e-06
-5.94089e-06
3.29601e-06
-4.67945e-06
4.02122e-06
-4.24261e-06
4.61591e-06
-3.82917e-06
5.18273e-06
-3.75227e-06
5.77619e-06
-4.06631e-06
6.42419e-06
-4.61989e-06
7.13146e-06
-5.24268e-06
7.85938e-06
-5.79792e-06
8.62474e-06
-6.24553e-06
9.40869e-06
-6.46743e-06
1.01646e-05
-6.35641e-06
1.08755e-05
-5.89337e-06
1.15262e-05
-5.00748e-06
1.20325e-05
-3.4327e-06
1.23152e-05
-1.11996e-06
1.22633e-05
1.98325e-06
1.18393e-05
5.54259e-06
1.09874e-05
9.36248e-06
9.66813e-06
1.30301e-05
7.78238e-06
1.5888e-05
4.92436e-06
1.68274e-05
1.40602e-05
2.45215e-06
-8.39306e-06
3.8594e-06
-6.08671e-06
4.83425e-06
-5.21747e-06
5.56894e-06
-4.56387e-06
6.17171e-06
-4.35504e-06
6.70107e-06
-4.59568e-06
7.20739e-06
-5.12622e-06
7.72576e-06
-5.76105e-06
8.25803e-06
-6.33019e-06
8.91897e-06
-6.90647e-06
9.63397e-06
-7.18242e-06
1.03285e-05
-7.05092e-06
1.09562e-05
-6.52108e-06
1.14521e-05
-5.50337e-06
1.18177e-05
-3.79833e-06
1.1999e-05
-1.30125e-06
1.19718e-05
2.01044e-06
1.16949e-05
5.81951e-06
1.10804e-05
9.97697e-06
1.00734e-05
1.40371e-05
8.50864e-06
1.74528e-05
5.77023e-06
1.95658e-05
1.98304e-05
2.70671e-06
-1.10998e-05
4.82711e-06
-8.20712e-06
6.25869e-06
-6.64905e-06
7.26889e-06
-5.57407e-06
8.00569e-06
-5.09185e-06
8.56229e-06
-5.15228e-06
9.01669e-06
-5.58062e-06
9.43646e-06
-6.18083e-06
9.86478e-06
-6.75851e-06
1.02056e-05
-7.24731e-06
1.05301e-05
-7.50693e-06
1.08518e-05
-7.37259e-06
1.11263e-05
-6.79558e-06
1.13287e-05
-5.70582e-06
1.15644e-05
-4.03401e-06
1.16535e-05
-1.39033e-06
1.16289e-05
2.03498e-06
1.14163e-05
6.03219e-06
1.09702e-05
1.04231e-05
1.02584e-05
1.47489e-05
9.13447e-06
1.85767e-05
6.97141e-06
2.17289e-05
2.68018e-05
-1.6133e-06
1.6133e-06
-1.64776e-06
3.4459e-08
9.29467e-09
-1.65705e-06
-1.14552e-06
1.15481e-06
-3.39047e-06
2.24496e-06
-5.07942e-06
1.68894e-06
-6.54064e-06
1.46122e-06
-7.54312e-06
1.00248e-06
-8.17851e-06
6.35397e-07
-8.72483e-06
5.46314e-07
-1.02447e-05
1.51983e-06
-1.04651e-05
2.20449e-07
-9.40259e-06
-1.06252e-06
-7.88784e-06
-1.51475e-06
-6.52271e-06
-1.36513e-06
-4.77834e-06
-1.74437e-06
-2.28568e-06
-2.49266e-06
-6.22738e-07
-1.66294e-06
-6.22738e-07
4.02983e-07
1.21032e-06
2.0356e-06
-1.59815e-06
1.14099e-06
-7.62448e-07
-5.32139e-07
2.82794e-06
-2.56422e-06
4.27704e-06
-4.23066e-06
3.35539e-06
-5.68434e-06
2.9149e-06
-6.80917e-06
2.1273e-06
-7.73382e-06
1.56005e-06
-8.51028e-06
1.32278e-06
-8.75171e-06
1.76126e-06
-8.57997e-06
4.87145e-08
-7.74845e-06
-1.89404e-06
-6.33404e-06
-2.92916e-06
-4.61089e-06
-3.08828e-06
-2.58303e-06
-3.77222e-06
-9.73172e-07
-4.10252e-06
-2.57526e-07
-2.37859e-06
-8.80263e-07
2.35351e-06
-1.14319e-06
6.12567e-06
-5.3703e-06
6.05265e-06
-6.89427e-07
3.08164e-06
5.79896e-06
5.99969e-07
6.75871e-06
-1.25688e-06
5.21224e-06
-2.92019e-06
4.57821e-06
-4.45252e-06
3.65963e-06
-5.96366e-06
3.07119e-06
-7.05917e-06
2.41829e-06
-6.92035e-06
1.62244e-06
-6.68848e-06
-1.83152e-07
-5.71734e-06
-2.86518e-06
-4.30856e-06
-4.33795e-06
-2.55004e-06
-4.8468e-06
-6.5452e-07
-5.66774e-06
4.10594e-07
-5.16763e-06
4.00768e-07
-2.36876e-06
-4.79499e-07
7.19938e-07
-1.86312e-06
8.35025e-06
-1.30006e-05
1.24317e-05
-4.77085e-06
8.96365e-06
9.26699e-06
5.95226e-06
9.77012e-06
4.24447e-06
6.92003e-06
3.02132e-06
5.80138e-06
1.15512e-06
5.52584e-06
-1.29649e-06
5.52281e-06
-3.12156e-06
4.24336e-06
-3.90024e-06
2.40113e-06
-3.93907e-06
-1.44311e-07
-3.15517e-06
-3.64908e-06
-1.81582e-06
-5.6773e-06
-5.63682e-07
-6.09894e-06
7.6637e-07
-6.99779e-06
1.70797e-06
-6.10923e-06
1.88923e-06
-2.55003e-06
1.40974e-06
-4.58323e-07
-1.4048e-06
6.9053e-06
-2.03643e-05
1.4769e-05
-1.26345e-05
1.59153e-05
8.12067e-06
1.41701e-05
1.15154e-05
1.22949e-05
8.7952e-06
1.10134e-05
7.08284e-06
9.63089e-06
6.90835e-06
7.58407e-06
7.56963e-06
4.61285e-06
7.21458e-06
1.59835e-06
5.41562e-06
3.44266e-07
1.10977e-06
7.13936e-08
-3.37621e-06
5.28202e-07
-6.13411e-06
9.27697e-07
-6.49844e-06
1.20222e-06
-7.27232e-06
1.27748e-06
-6.18449e-06
1.51985e-06
-2.79241e-06
2.92957e-06
-9.88034e-08
-1.306e-06
5.77485e-06
-2.62379e-05
1.26713e-05
-1.9531e-05
1.81292e-05
2.6628e-06
1.86457e-05
1.09989e-05
1.74457e-05
9.99517e-06
1.6053e-05
8.47549e-06
1.45946e-05
8.36676e-06
1.30513e-05
9.11298e-06
1.12703e-05
8.99555e-06
9.17221e-06
7.51373e-06
6.84099e-06
3.44099e-06
4.95558e-06
-1.49081e-06
3.81229e-06
-4.99082e-06
2.9944e-06
-5.68055e-06
1.61515e-06
-5.89307e-06
-2.60598e-07
-4.30875e-06
-2.36168e-06
-6.91331e-07
5.67911e-07
1.76225e-06
-3.06824e-06
5.84301e-06
-3.03187e-05
1.1667e-05
-2.5355e-05
1.86192e-05
-4.28943e-06
2.10454e-05
8.57274e-06
2.09352e-05
1.01054e-05
1.9899e-05
9.51173e-06
1.85325e-05
9.73329e-06
1.70971e-05
1.05484e-05
1.56251e-05
1.04675e-05
1.41817e-05
8.95712e-06
1.25309e-05
5.09183e-06
1.06815e-05
3.58515e-07
8.79946e-06
-3.10875e-06
6.49158e-06
-3.37266e-06
3.21665e-06
-2.61814e-06
-4.8904e-07
-6.03063e-07
-3.7681e-06
2.58774e-06
-3.2002e-06
5.80168e-06
-8.86991e-06
8.2816e-06
-3.27986e-05
1.2893e-05
-2.99663e-05
1.92905e-05
-1.0687e-05
2.25959e-05
5.26734e-06
2.33411e-05
9.36024e-06
2.28444e-05
1.00084e-05
2.17265e-05
1.08512e-05
2.04222e-05
1.18526e-05
1.91303e-05
1.17594e-05
1.79103e-05
1.01772e-05
1.65487e-05
6.45341e-06
1.47286e-05
2.17863e-06
1.24532e-05
-8.33409e-07
9.42263e-06
-3.42034e-07
5.45133e-06
1.35316e-06
1.13937e-06
3.70889e-06
-2.23345e-06
5.96056e-06
-5.43363e-06
6.64191e-06
-1.77417e-05
1.20505e-05
-1.36158e-05
1.59169e-05
-1.05154e-05
1.86714e-05
-8.32861e-06
2.06161e-05
-7.03659e-06
2.19686e-05
-6.50474e-06
2.29369e-05
-6.54892e-06
2.37421e-05
-6.98595e-06
2.45544e-05
-7.57085e-06
2.53788e-05
-8.07171e-06
2.61643e-05
-8.29244e-06
2.68928e-05
-8.10106e-06
2.74102e-05
-7.31296e-06
2.74374e-05
-5.73299e-06
2.6766e-05
-3.36268e-06
2.57928e-05
-4.17113e-07
2.46188e-05
3.209e-06
2.36554e-05
6.99557e-06
2.29939e-05
1.10845e-05
2.2564e-05
1.51788e-05
2.2339e-05
1.88017e-05
2.43143e-05
1.97536e-05
1.0125e-05
4.09911e-05
6.40403e-06
-2.41457e-05
1.12479e-05
-1.84597e-05
1.48043e-05
-1.40717e-05
1.75027e-05
-1.1027e-05
1.95927e-05
-9.12658e-06
2.11929e-05
-8.105e-06
2.24419e-05
-7.79787e-06
2.35732e-05
-8.1173e-06
2.4722e-05
-8.7196e-06
2.58716e-05
-9.22128e-06
2.69884e-05
-9.40926e-06
2.80843e-05
-9.197e-06
2.91872e-05
-8.41583e-06
3.03304e-05
-6.87619e-06
3.14204e-05
-4.45267e-06
3.23462e-05
-1.34295e-06
3.33998e-05
2.15541e-06
3.4634e-05
5.76135e-06
3.62869e-05
9.43155e-06
3.86406e-05
1.28252e-05
4.24155e-05
1.50267e-05
4.81677e-05
1.40015e-05
8.44674e-06
4.98459e-05
4.23204e-06
-2.83778e-05
7.39914e-06
-2.16268e-05
9.89884e-06
-1.65714e-05
1.21668e-05
-1.3295e-05
1.42832e-05
-1.1243e-05
1.61688e-05
-9.99057e-06
1.78063e-05
-9.43536e-06
1.9406e-05
-9.71702e-06
2.10811e-05
-1.03947e-05
2.2759e-05
-1.08992e-05
2.43537e-05
-1.10039e-05
2.59606e-05
-1.08039e-05
2.77494e-05
-1.02047e-05
2.97691e-05
-8.89582e-06
3.19534e-05
-6.63703e-06
3.41939e-05
-3.58338e-06
3.67404e-05
-3.91135e-07
3.98602e-05
2.64151e-06
4.36856e-05
5.60617e-06
4.82216e-05
8.28913e-06
5.32945e-05
9.95384e-06
5.80269e-05
9.26902e-06
5.55279e-06
6.09208e-05
-2.72383e-08
-2.83505e-05
6.99626e-07
-2.23536e-05
2.024e-06
-1.78958e-05
3.99712e-06
-1.52681e-05
6.3321e-06
-1.3578e-05
8.65875e-06
-1.23172e-05
1.07669e-05
-1.15436e-05
1.29568e-05
-1.19068e-05
1.52398e-05
-1.26778e-05
1.74833e-05
-1.31427e-05
1.95808e-05
-1.31015e-05
2.1679e-05
-1.29021e-05
2.39712e-05
-1.24969e-05
2.65671e-05
-1.14917e-05
2.93868e-05
-9.4568e-06
3.2336e-05
-6.53252e-06
3.5635e-05
-3.69021e-06
3.95584e-05
-1.28187e-06
4.40744e-05
1.09017e-06
4.89816e-05
3.38194e-06
5.39749e-05
4.96047e-06
5.83975e-05
4.8465e-06
2.77149e-06
6.11788e-05
-7.28459e-06
-2.10659e-05
-1.0036e-05
-1.96022e-05
-9.04474e-06
-1.88871e-05
-6.84004e-06
-1.74728e-05
-3.95182e-06
-1.64662e-05
-9.74435e-07
-1.52946e-05
1.87291e-06
-1.43909e-05
4.75185e-06
-1.47858e-05
7.63709e-06
-1.5563e-05
1.03948e-05
-1.59005e-05
1.30663e-05
-1.57729e-05
1.57563e-05
-1.55922e-05
1.85115e-05
-1.52521e-05
2.13621e-05
-1.43423e-05
2.43794e-05
-1.24741e-05
2.77385e-05
-9.89157e-06
3.15957e-05
-7.54746e-06
3.59504e-05
-5.63654e-06
4.06723e-05
-3.63169e-06
4.57038e-05
-1.64959e-06
5.09417e-05
-2.77452e-07
5.58842e-05
-9.59755e-08
-1.2731e-06
5.99288e-05
-2.10167e-05
-4.92421e-08
-2.4173e-05
-1.64457e-05
-2.28039e-05
-2.02562e-05
-2.02705e-05
-2.00062e-05
-1.7187e-05
-1.95497e-05
-1.37554e-05
-1.87262e-05
-1.00368e-05
-1.81095e-05
-6.37583e-06
-1.84467e-05
-2.8892e-06
-1.90496e-05
4.71135e-07
-1.92608e-05
3.91537e-06
-1.92171e-05
7.42377e-06
-1.91006e-05
1.08127e-05
-1.8641e-05
1.41223e-05
-1.76519e-05
1.76561e-05
-1.60079e-05
2.17631e-05
-1.39986e-05
2.63299e-05
-1.21142e-05
3.10746e-05
-1.03812e-05
3.60546e-05
-8.61174e-06
4.13975e-05
-6.99247e-06
4.6998e-05
-5.87789e-06
5.25373e-05
-5.63527e-06
-6.42628e-06
5.76905e-05
-3.1235e-05
3.11858e-05
-3.12704e-05
-1.64104e-05
-3.11763e-05
-2.03504e-05
-2.94712e-05
-2.17113e-05
-2.66666e-05
-2.23543e-05
-2.31827e-05
-2.22101e-05
-1.92779e-05
-2.20143e-05
-1.54473e-05
-2.22774e-05
-1.17231e-05
-2.27738e-05
-7.89397e-06
-2.30899e-05
-3.95861e-06
-2.31525e-05
-7.75579e-08
-2.29816e-05
3.75286e-06
-2.24714e-05
7.63111e-06
-2.15301e-05
1.17918e-05
-2.01685e-05
1.63756e-05
-1.85824e-05
2.12688e-05
-1.70074e-05
2.63737e-05
-1.54861e-05
3.17676e-05
-1.40056e-05
3.74696e-05
-1.26944e-05
4.33731e-05
-1.17814e-05
4.92551e-05
-1.15172e-05
-1.21222e-05
5.49511e-05
-1.50534e-05
4.62393e-05
-2.57197e-05
-5.74404e-06
-3.24922e-05
-1.35779e-05
-3.22784e-05
-2.19251e-05
-3.02141e-05
-2.44187e-05
-2.70147e-05
-2.54096e-05
-2.34422e-05
-2.55868e-05
-1.98153e-05
-2.59043e-05
-1.61934e-05
-2.63958e-05
-1.23911e-05
-2.68922e-05
-8.42932e-06
-2.71143e-05
-4.47451e-06
-2.69364e-05
-5.33556e-07
-2.64123e-05
3.54935e-06
-2.5613e-05
7.88599e-06
-2.45051e-05
1.25696e-05
-2.3266e-05
1.75858e-05
-2.20235e-05
2.29021e-05
-2.08023e-05
2.85239e-05
-1.96274e-05
3.44437e-05
-1.86141e-05
4.05609e-05
-1.78985e-05
4.66957e-05
-1.7652e-05
-1.80754e-05
5.26489e-05
1.71209e-05
2.91184e-05
-3.71375e-06
1.50906e-05
-2.48408e-05
7.54894e-06
-3.12371e-05
-1.55291e-05
-3.21263e-05
-2.35297e-05
-2.82895e-05
-2.92465e-05
-2.47406e-05
-2.91358e-05
-2.10062e-05
-2.96387e-05
-1.72603e-05
-3.01417e-05
-1.35437e-05
-3.06088e-05
-1.0011e-05
-3.0647e-05
-6.43026e-06
-3.05172e-05
-2.62753e-06
-3.02151e-05
1.4092e-06
-2.96498e-05
5.74664e-06
-2.88426e-05
1.04346e-05
-2.7954e-05
1.54795e-05
-2.70684e-05
2.08669e-05
-2.61898e-05
2.65636e-05
-2.53241e-05
3.26015e-05
-2.4652e-05
3.89308e-05
-2.42279e-05
4.54133e-05
-2.41344e-05
-2.45663e-05
5.19043e-05
2.34597e-05
5.65873e-06
2.93791e-05
9.17116e-06
1.47612e-05
2.21669e-05
-5.12669e-06
4.35882e-06
-1.81244e-05
-1.05321e-05
-2.55394e-05
-2.18315e-05
-2.41977e-05
-3.04775e-05
-2.00598e-05
-3.37765e-05
-1.67281e-05
-3.34734e-05
-1.32388e-05
-3.40985e-05
-1.07645e-05
-3.31214e-05
-7.2813e-06
-3.40007e-05
-3.8829e-06
-3.36137e-05
1.4554e-07
-3.36783e-05
4.64963e-06
-3.33467e-05
9.53911e-06
-3.28435e-05
1.47559e-05
-3.22852e-05
2.02587e-05
-3.16927e-05
2.59724e-05
-3.10377e-05
3.19343e-05
-3.0614e-05
3.80732e-05
-3.03668e-05
4.44246e-05
-3.04859e-05
-3.10146e-05
5.08729e-05
1.42343e-05
-8.57565e-06
1.84086e-05
4.99677e-06
1.87757e-05
2.17998e-05
1.21415e-05
1.09933e-05
6.22277e-06
-4.61317e-06
2.48363e-06
-1.80921e-05
2.09434e-06
-3.00879e-05
3.34707e-06
-3.5029e-05
3.94598e-06
-3.4072e-05
6.36771e-07
-3.0789e-05
-3.47596e-06
-2.90089e-05
-6.4115e-06
-3.10654e-05
-4.54475e-06
-3.54806e-05
-7.09936e-07
-3.75133e-05
3.8477e-06
-3.79045e-05
8.83093e-06
-3.78269e-05
1.41954e-05
-3.76498e-05
1.99981e-05
-3.74954e-05
2.57591e-05
-3.67988e-05
3.16968e-05
-3.65519e-05
3.7994e-05
-3.66641e-05
4.4602e-05
-3.70942e-05
-3.80036e-05
5.15906e-05
-2.19916e-06
-6.37686e-06
-6.01501e-08
2.85748e-06
8.58487e-06
1.31545e-05
1.31519e-05
6.42607e-06
1.25095e-05
-3.97058e-06
1.13112e-05
-1.68937e-05
8.39576e-06
-2.71724e-05
5.59246e-06
-3.22256e-05
3.94618e-06
-3.24256e-05
1.06774e-06
-2.791e-05
4.47822e-07
-2.83886e-05
5.78929e-07
-3.11962e-05
3.12988e-06
-3.80314e-05
6.95661e-06
-4.13399e-05
1.1561e-05
-4.25089e-05
1.66425e-05
-4.29083e-05
2.1756e-05
-4.27634e-05
2.60886e-05
-4.1828e-05
2.89975e-05
-3.97077e-05
2.93797e-05
-3.69339e-05
2.70236e-05
-3.4308e-05
2.40415e-05
-3.41123e-05
-3.45898e-05
2.06272e-05
-4.17646e-06
-2.20079e-06
-3.27531e-06
1.95599e-06
3.76794e-06
6.11097e-06
8.32276e-06
1.87103e-06
1.04986e-05
-6.14661e-06
9.06408e-06
-1.54593e-05
5.19046e-06
-2.32989e-05
8.84501e-07
-2.79198e-05
-1.91181e-06
-2.96294e-05
-2.54759e-07
-2.95671e-05
7.93785e-07
-2.94368e-05
3.74543e-06
-3.41476e-05
4.86098e-06
-3.91468e-05
5.67271e-06
-4.21515e-05
6.79636e-06
-4.36324e-05
8.08703e-06
-4.41989e-05
9.24343e-06
-4.39197e-05
9.95163e-06
-4.25362e-05
1.01597e-05
-3.99158e-05
9.27211e-06
-3.60459e-05
8.08777e-06
-3.31234e-05
6.5763e-06
-3.26006e-05
-3.27978e-05
4.78389e-06
-1.34374e-06
-8.57532e-07
-1.40293e-06
2.01483e-06
2.09447e-06
2.61332e-06
5.02246e-06
-1.05719e-06
5.94692e-06
-7.07127e-06
4.54228e-06
-1.40549e-05
1.45891e-06
-2.02157e-05
-1.86941e-06
-2.45917e-05
-4.07953e-06
-2.74196e-05
-3.95349e-06
-2.96934e-05
-1.49332e-06
-3.18971e-05
-2.49082e-07
-3.53919e-05
-8.59126e-07
-3.85368e-05
-2.15278e-06
-4.0858e-05
-3.62517e-06
-4.21601e-05
-5.20162e-06
-4.26226e-05
-6.86451e-06
-4.2257e-05
-8.4056e-06
-4.09953e-05
-9.51908e-06
-3.88024e-05
-9.52817e-06
-3.60368e-05
-9.38199e-06
-3.32693e-05
-9.68914e-06
-3.22934e-05
-3.2265e-05
-1.02224e-05
-1.27737e-06
4.19607e-07
-1.33686e-06
2.07407e-06
1.75501e-07
1.10075e-06
1.43756e-06
-2.31943e-06
1.61122e-06
-7.24509e-06
3.64724e-07
-1.28085e-05
-1.87014e-06
-1.7981e-05
-4.23818e-06
-2.22238e-05
-5.9559e-06
-2.5702e-05
-6.70447e-06
-2.8945e-05
-6.62204e-06
-3.19797e-05
-7.08881e-06
-3.49253e-05
-8.63226e-06
-3.69935e-05
-1.08821e-05
-3.86083e-05
-1.33879e-05
-3.96544e-05
-1.59818e-05
-4.00289e-05
-1.84997e-05
-3.97392e-05
-2.07237e-05
-3.87714e-05
-2.2354e-05
-3.71723e-05
-2.32396e-05
-3.51512e-05
-2.33912e-05
-3.31177e-05
-2.39919e-05
-3.16928e-05
-3.05108e-05
-2.57468e-05
-1.8648e-06
2.28406e-06
-2.3428e-06
2.55185e-06
-1.99288e-06
7.5067e-07
-1.72325e-06
-2.58919e-06
-2.05376e-06
-6.91471e-06
-3.20152e-06
-1.16609e-05
-4.94363e-06
-1.6239e-05
-6.83762e-06
-2.033e-05
-8.55952e-06
-2.39803e-05
-1.01217e-05
-2.7383e-05
-1.15033e-05
-3.05982e-05
-1.31861e-05
-3.32426e-05
-1.5317e-05
-3.48627e-05
-1.79104e-05
-3.6015e-05
-2.07119e-05
-3.6853e-05
-2.35449e-05
-3.7196e-05
-2.62685e-05
-3.70158e-05
-2.87446e-05
-3.62955e-05
-3.08441e-05
-3.50729e-05
-3.25517e-05
-3.34437e-05
-3.40303e-05
-3.16391e-05
-3.57614e-05
-2.99618e-05
-2.83391e-05
-3.79336e-05
-2.42012e-06
4.70408e-06
-3.46038e-06
3.592e-06
-3.86194e-06
1.15212e-06
-4.21159e-06
-2.23963e-06
-4.88128e-06
-6.24511e-06
-6.03144e-06
-1.05108e-05
-7.58133e-06
-1.46892e-05
-9.33332e-06
-1.85781e-05
-1.11621e-05
-2.21516e-05
-1.30918e-05
-2.54534e-05
-1.52712e-05
-2.84189e-05
-1.76714e-05
-3.08426e-05
-2.0223e-05
-3.23111e-05
-2.2935e-05
-3.33031e-05
-2.57998e-05
-3.39884e-05
-2.86975e-05
-3.42983e-05
-3.15391e-05
-3.41744e-05
-3.42408e-05
-3.35938e-05
-3.67451e-05
-3.25688e-05
-3.90325e-05
-3.11562e-05
-4.11996e-05
-2.94721e-05
-4.34456e-05
-2.77159e-05
-2.59086e-05
-4.58767e-05
-2.77074e-06
7.47465e-06
-4.21685e-06
5.03803e-06
-5.1014e-06
2.03661e-06
-5.85652e-06
-1.48456e-06
-6.77358e-06
-5.3281e-06
-7.9912e-06
-9.29326e-06
-9.50769e-06
-1.31728e-05
-1.12564e-05
-1.68295e-05
-1.3198e-05
-2.021e-05
-1.53597e-05
-2.32918e-05
-1.77909e-05
-2.59878e-05
-2.05125e-05
-2.8121e-05
-2.32687e-05
-2.9555e-05
-2.60492e-05
-3.05227e-05
-2.8913e-05
-3.11247e-05
-3.18225e-05
-3.13889e-05
-3.47168e-05
-3.12802e-05
-3.75404e-05
-3.07704e-05
-4.02501e-05
-2.98592e-05
-4.28315e-05
-2.85748e-05
-4.52997e-05
-2.70039e-05
-4.77364e-05
-2.52793e-05
-2.33646e-05
-5.0281e-05
-2.75786e-06
1.02326e-05
-4.41419e-06
6.69437e-06
-5.5825e-06
3.20491e-06
-6.60045e-06
-4.66629e-07
-7.69614e-06
-4.23245e-06
-8.99655e-06
-7.99288e-06
-1.05393e-05
-1.16301e-05
-1.23172e-05
-1.50517e-05
-1.43256e-05
-1.82017e-05
-1.65856e-05
-2.10318e-05
-1.91073e-05
-2.34661e-05
-2.18281e-05
-2.54003e-05
-2.46063e-05
-2.67768e-05
-2.74151e-05
-2.7714e-05
-3.02515e-05
-2.82883e-05
-3.31195e-05
-2.85211e-05
-3.59877e-05
-2.8412e-05
-3.88148e-05
-2.79435e-05
-4.15652e-05
-2.71088e-05
-4.42106e-05
-2.59293e-05
-4.67472e-05
-2.44673e-05
-4.92074e-05
-2.28192e-05
-2.08929e-05
-5.16796e-05
-2.4186e-06
1.26512e-05
-4.04894e-06
8.32475e-06
-5.32114e-06
4.47713e-06
-6.47444e-06
6.86683e-07
-7.67666e-06
-3.03024e-06
-9.03699e-06
-6.63256e-06
-1.06052e-05
-1.00619e-05
-1.23967e-05
-1.32601e-05
-1.44182e-05
-1.61803e-05
-1.66734e-05
-1.87767e-05
-1.91488e-05
-2.09907e-05
-2.17876e-05
-2.27615e-05
-2.44949e-05
-2.40696e-05
-2.7234e-05
-2.49749e-05
-2.99974e-05
-2.55249e-05
-3.27723e-05
-2.57463e-05
-3.55417e-05
-2.56427e-05
-3.82756e-05
-2.52097e-05
-4.09407e-05
-2.44438e-05
-4.35125e-05
-2.33574e-05
-4.5972e-05
-2.20077e-05
-4.83276e-05
-2.04637e-05
-1.85673e-05
-5.06538e-05
-1.81026e-06
1.44616e-05
-3.20128e-06
9.71589e-06
-4.40766e-06
5.68357e-06
-5.57688e-06
1.85594e-06
-6.80905e-06
-1.79805e-06
-8.18402e-06
-5.25758e-06
-9.7463e-06
-8.49965e-06
-1.15148e-05
-1.14916e-05
-1.34952e-05
-1.41999e-05
-1.56827e-05
-1.65892e-05
-1.80538e-05
-1.86197e-05
-2.05584e-05
-2.02569e-05
-2.31346e-05
-2.14935e-05
-2.57477e-05
-2.23619e-05
-2.83776e-05
-2.28951e-05
-3.101e-05
-2.31139e-05
-3.36258e-05
-2.3027e-05
-3.6201e-05
-2.26345e-05
-3.87091e-05
-2.19358e-05
-4.11205e-05
-2.0946e-05
-4.34204e-05
-1.97079e-05
-4.56109e-05
-1.82732e-05
-1.648e-05
-4.76987e-05
-1.00358e-06
1.54654e-05
-1.99287e-06
1.07053e-05
-2.99591e-06
6.6867e-06
-4.06878e-06
2.92887e-06
-5.25096e-06
-6.15823e-07
-6.58296e-06
-3.92556e-06
-8.0942e-06
-6.98841e-06
-9.79701e-06
-9.78881e-06
-1.16915e-05
-1.23055e-05
-1.37663e-05
-1.45143e-05
-1.5996e-05
-1.639e-05
-1.83396e-05
-1.79133e-05
-2.07506e-05
-1.90825e-05
-2.31963e-05
-1.99163e-05
-2.56544e-05
-2.0437e-05
-2.81067e-05
-2.06616e-05
-3.05344e-05
-2.05994e-05
-3.29152e-05
-2.02538e-05
-3.52232e-05
-1.96279e-05
-3.74377e-05
-1.87314e-05
-3.95384e-05
-1.76072e-05
-4.15175e-05
-1.62941e-05
-1.46227e-05
-4.33753e-05
-1.22371e-07
1.5588e-05
-5.85263e-07
1.11684e-05
-1.27914e-06
7.3807e-06
-2.15818e-06
3.80799e-06
-3.20998e-06
4.36041e-07
-4.43592e-06
-2.69959e-06
-5.84524e-06
-5.57908e-06
-7.43863e-06
-8.19541e-06
-9.20844e-06
-1.05357e-05
-1.11383e-05
-1.25845e-05
-1.32021e-05
-1.43262e-05
-1.5365e-05
-1.57505e-05
-1.75897e-05
-1.68578e-05
-1.98462e-05
-1.76598e-05
-2.21111e-05
-1.81721e-05
-2.43648e-05
-1.8408e-05
-2.65877e-05
-1.83765e-05
-2.87592e-05
-1.80824e-05
-3.08578e-05
-1.75293e-05
-3.28598e-05
-1.67293e-05
-3.47509e-05
-1.5716e-05
-3.65241e-05
-1.4521e-05
-1.30148e-05
-3.81324e-05
7.83064e-07
1.48053e-05
8.42384e-07
1.11093e-05
5.2255e-07
7.70069e-06
-8.05667e-08
4.41122e-06
-9.26302e-07
1.28185e-06
-1.9834e-06
-1.64245e-06
-3.23858e-06
-4.32386e-06
-4.67909e-06
-6.75489e-06
-6.28946e-06
-8.92533e-06
-8.04787e-06
-1.08261e-05
-9.92743e-06
-1.24466e-05
-1.18967e-05
-1.37812e-05
-1.39238e-05
-1.48307e-05
-1.59806e-05
-1.5603e-05
-1.80439e-05
-1.61089e-05
-2.00931e-05
-1.63588e-05
-2.21092e-05
-1.63605e-05
-2.40721e-05
-1.61196e-05
-2.59606e-05
-1.56409e-05
-2.77574e-05
-1.49325e-05
-2.94458e-05
-1.40276e-05
-3.10141e-05
-1.29528e-05
-1.15955e-05
-3.24339e-05
1.48415e-06
1.33215e-05
2.09128e-06
1.05024e-05
2.18729e-06
7.60485e-06
1.91407e-06
4.68457e-06
1.33889e-06
1.85711e-06
5.13531e-07
-8.17032e-07
-5.33774e-07
-3.27652e-06
-1.77982e-06
-5.50883e-06
-3.1984e-06
-7.50674e-06
-4.76141e-06
-9.26307e-06
-6.44114e-06
-1.07669e-05
-8.20736e-06
-1.2015e-05
-1.00305e-05
-1.30076e-05
-1.18839e-05
-1.37496e-05
-1.37444e-05
-1.42484e-05
-1.55918e-05
-1.45115e-05
-1.74065e-05
-1.45458e-05
-1.91696e-05
-1.43565e-05
-2.08632e-05
-1.39474e-05
-2.24664e-05
-1.33292e-05
-2.39681e-05
-1.25259e-05
-2.53601e-05
-1.15608e-05
-1.03677e-05
-2.65883e-05
1.97548e-06
1.13464e-05
3.04735e-06
9.43084e-06
3.54877e-06
7.10362e-06
3.62735e-06
4.60612e-06
3.36112e-06
2.12344e-06
2.80702e-06
-2.62866e-07
2.00687e-06
-2.47634e-06
9.95211e-07
-4.49714e-06
-1.97242e-07
-6.31427e-06
-1.54185e-06
-7.91845e-06
-3.00704e-06
-9.30173e-06
-4.56101e-06
-1.0461e-05
-6.17539e-06
-1.13932e-05
-7.82432e-06
-1.21007e-05
-9.48448e-06
-1.25882e-05
-1.11352e-05
-1.28608e-05
-1.27576e-05
-1.29234e-05
-1.43334e-05
-1.27808e-05
-1.58433e-05
-1.24375e-05
-1.72725e-05
-1.19e-05
-1.86062e-05
-1.11923e-05
-1.98315e-05
-1.03355e-05
-9.28124e-06
-2.09183e-05
2.23469e-06
9.11193e-06
3.65663e-06
8.00914e-06
4.51306e-06
6.24738e-06
4.92785e-06
4.19146e-06
4.97662e-06
2.07476e-06
4.71297e-06
8.48852e-10
4.18263e-06
-1.94596e-06
3.42523e-06
-3.73971e-06
2.47662e-06
-5.36564e-06
1.36992e-06
-6.81174e-06
1.36665e-07
-8.06848e-06
-1.19439e-06
-9.12997e-06
-2.59496e-06
-9.99268e-06
-4.03778e-06
-1.06579e-05
-5.49929e-06
-1.11267e-05
-6.95904e-06
-1.14011e-05
-8.3975e-06
-1.1485e-05
-9.79661e-06
-1.13817e-05
-1.11395e-05
-1.10947e-05
-1.24078e-05
-1.06316e-05
-1.35898e-05
-1.00103e-05
-1.46761e-05
-9.24926e-06
-8.33779e-06
-1.56199e-05
2.29922e-06
6.81316e-06
3.93853e-06
6.37012e-06
5.06402e-06
5.12209e-06
5.76559e-06
3.49002e-06
6.10302e-06
1.73742e-06
6.12057e-06
-1.66418e-08
5.86115e-06
-1.6865e-06
5.36494e-06
-3.24347e-06
4.66831e-06
-4.669e-06
3.80479e-06
-5.94822e-06
2.80615e-06
-7.06983e-06
1.70232e-06
-8.02614e-06
5.21539e-07
-8.8119e-06
-7.11853e-07
-9.42452e-06
-1.97563e-06
-9.86298e-06
-3.24775e-06
-1.0129e-05
-4.50839e-06
-1.02244e-05
-5.73967e-06
-1.01505e-05
-6.92356e-06
-9.91081e-06
-8.04511e-06
-9.51002e-06
-9.08972e-06
-8.9657e-06
-1.0044e-05
-8.29499e-06
-7.4885e-06
-1.08936e-05
2.22898e-06
4.58436e-06
3.96113e-06
4.63816e-06
5.25854e-06
3.82483e-06
6.17366e-06
2.575e-06
6.74619e-06
1.16496e-06
7.0087e-06
-2.791e-07
6.99776e-06
-1.67554e-06
6.74936e-06
-2.99506e-06
6.29689e-06
-4.21653e-06
5.67198e-06
-5.3233e-06
4.90489e-06
-6.30274e-06
4.02426e-06
-7.1455e-06
3.05698e-06
-7.84462e-06
2.02775e-06
-8.39529e-06
9.59615e-07
-8.79485e-06
-1.27011e-07
-9.04236e-06
-1.21396e-06
-9.13746e-06
-2.2835e-06
-9.08098e-06
-3.31881e-06
-8.87554e-06
-4.3017e-06
-8.52708e-06
-5.21895e-06
-8.04846e-06
-6.05892e-06
-7.4551e-06
-6.74319e-06
-6.80451e-06
2.08252e-06
2.50219e-06
3.81049e-06
2.91038e-06
5.18589e-06
2.44955e-06
6.23423e-06
1.52674e-06
6.97637e-06
4.22869e-07
7.43091e-06
-7.33607e-07
7.62773e-06
-1.87234e-06
7.59589e-06
-2.9632e-06
7.36361e-06
-3.98424e-06
6.95871e-06
-4.9184e-06
6.40845e-06
-5.75248e-06
5.73908e-06
-6.47613e-06
4.97566e-06
-7.0812e-06
4.1418e-06
-7.56144e-06
3.2593e-06
-7.91235e-06
2.3479e-06
-8.13097e-06
1.42605e-06
-8.21562e-06
5.11127e-07
-8.16609e-06
-3.80231e-07
-7.9842e-06
-1.2352e-06
-7.67208e-06
-2.03815e-06
-7.24551e-06
-2.76271e-06
-6.73055e-06
-6.07891e-06
-3.42729e-06
1.90073e-06
6.01431e-07
3.55593e-06
1.25524e-06
4.93823e-06
1.06729e-06
6.04925e-06
4.1576e-07
6.89475e-06
-4.22608e-07
7.48414e-06
-1.32299e-06
7.83908e-06
-2.22727e-06
7.98103e-06
-3.10516e-06
7.93246e-06
-3.93567e-06
7.71672e-06
-4.70267e-06
7.35744e-06
-5.3932e-06
6.87787e-06
-5.99655e-06
6.30046e-06
-6.50379e-06
5.64663e-06
-6.90761e-06
4.93651e-06
-7.20223e-06
4.18887e-06
-7.38334e-06
3.42131e-06
-7.44808e-06
2.65004e-06
-7.39485e-06
1.889e-06
-7.22318e-06
1.15366e-06
-6.93669e-06
4.45483e-07
-6.53735e-06
-2.51152e-07
-6.03399e-06
-5.57024e-06
-7.60046e-07
1.70171e-06
-1.10015e-06
3.25035e-06
-2.93381e-07
4.58946e-06
-2.7182e-07
5.70896e-06
-7.03742e-07
6.60258e-06
-1.31624e-06
7.27479e-06
-1.99521e-06
7.73781e-06
-2.6903e-06
8.00677e-06
-3.37413e-06
8.09929e-06
-4.0282e-06
8.03467e-06
-4.63806e-06
7.83292e-06
-5.19146e-06
7.51407e-06
-5.6777e-06
7.09769e-06
-6.08742e-06
6.60266e-06
-6.41258e-06
6.04694e-06
-6.64651e-06
5.44755e-06
-6.78396e-06
4.82052e-06
-6.82106e-06
4.1811e-06
-6.75545e-06
3.5442e-06
-6.58629e-06
2.92243e-06
-6.31489e-06
2.33147e-06
-5.94639e-06
1.79737e-06
-5.49989e-06
-5.0511e-06
1.27799e-06
1.50752e-06
-2.60786e-06
2.93201e-06
-1.71798e-06
4.19835e-06
-1.53823e-06
5.28735e-06
-1.79279e-06
6.18724e-06
-2.21617e-06
6.89651e-06
-2.70452e-06
7.42099e-06
-3.21481e-06
7.7715e-06
-3.72466e-06
7.96217e-06
-4.21889e-06
8.00899e-06
-4.6849e-06
7.92872e-06
-5.1112e-06
7.73826e-06
-5.48724e-06
7.45421e-06
-5.80337e-06
7.09274e-06
-6.0511e-06
6.66942e-06
-6.22318e-06
6.19918e-06
-6.31372e-06
5.69641e-06
-6.31829e-06
5.1748e-06
-6.23386e-06
4.64699e-06
-6.05849e-06
4.12662e-06
-5.79447e-06
3.62579e-06
-5.44555e-06
3.1532e-06
-5.02736e-06
-4.61035e-06
2.71227e-06
1.33415e-06
-3.94215e-06
2.62931e-06
-3.01329e-06
3.80403e-06
-2.71306e-06
4.83576e-06
-2.8246e-06
5.70823e-06
-3.08871e-06
6.41555e-06
-3.41188e-06
6.96069e-06
-3.75999e-06
7.35228e-06
-4.11628e-06
7.60214e-06
-4.46877e-06
7.72358e-06
-4.80635e-06
7.73051e-06
-5.11814e-06
7.63685e-06
-5.39358e-06
7.45636e-06
-5.62287e-06
7.20246e-06
-5.7972e-06
6.88828e-06
-5.90899e-06
6.52656e-06
-5.952e-06
6.12966e-06
-5.92138e-06
5.70947e-06
-5.81367e-06
5.2781e-06
-5.62711e-06
4.84564e-06
-5.36198e-06
4.42261e-06
-5.02252e-06
4.01907e-06
-4.62379e-06
-4.2271e-06
3.63561e-06
1.19465e-06
-5.13711e-06
2.36329e-06
-4.18215e-06
3.4328e-06
-3.78274e-06
4.38262e-06
-3.77453e-06
5.19651e-06
-3.90267e-06
5.86819e-06
-4.08363e-06
6.39993e-06
-4.29177e-06
6.79911e-06
-4.51549e-06
7.07566e-06
-4.74533e-06
7.24056e-06
-4.97126e-06
7.30502e-06
-5.1826e-06
7.28023e-06
-5.36878e-06
7.17717e-06
-5.5198e-06
7.00671e-06
-5.62672e-06
6.77956e-06
-5.68182e-06
6.50629e-06
-5.67871e-06
6.19738e-06
-5.61245e-06
5.86307e-06
-5.47936e-06
5.51298e-06
-5.277e-06
5.15709e-06
-5.00603e-06
4.80407e-06
-4.66948e-06
4.45998e-06
-4.27977e-06
-3.90903e-06
4.14178e-06
1.10031e-06
-6.2378e-06
2.13981e-06
-5.22192e-06
3.08231e-06
-4.72544e-06
3.92521e-06
-4.61756e-06
4.65444e-06
-4.632e-06
5.26419e-06
-4.69343e-06
5.7565e-06
-4.78412e-06
6.13771e-06
-4.89673e-06
6.41595e-06
-5.02358e-06
6.59987e-06
-5.15518e-06
6.69811e-06
-5.28084e-06
6.71922e-06
-5.38987e-06
6.67165e-06
-5.4722e-06
6.56388e-06
-5.51893e-06
6.4044e-06
-5.52231e-06
6.20184e-06
-5.47612e-06
5.96473e-06
-5.37533e-06
5.70175e-06
-5.21636e-06
5.42168e-06
-4.99691e-06
5.13222e-06
-4.71653e-06
4.84062e-06
-4.37788e-06
4.55463e-06
-3.99372e-06
-3.63575e-06
4.28118e-06
1.03287e-06
-7.27103e-06
1.92873e-06
-6.11808e-06
2.72658e-06
-5.52349e-06
3.44293e-06
-5.33406e-06
4.06821e-06
-5.25739e-06
4.59747e-06
-5.22276e-06
5.03227e-06
-5.21897e-06
5.37757e-06
-5.24206e-06
5.63955e-06
-5.28558e-06
5.82442e-06
-5.34005e-06
5.93838e-06
-5.39479e-06
5.98747e-06
-5.43895e-06
5.97791e-06
-5.46263e-06
5.91598e-06
-5.45696e-06
5.80826e-06
-5.41457e-06
5.66147e-06
-5.3293e-06
5.4827e-06
-5.19653e-06
5.27906e-06
-5.01271e-06
5.05734e-06
-4.77517e-06