/*--------------------------------*- C++ -*----------------------------------*\
  =========                 |
  \\      /  F ield         | OpenFOAM: The Open Source CFD Toolbox
   \\    /   O peration     | Website:  https://openfoam.org
    \\  /    A nd           | Version:  13
     \\/     M anipulation  |
\*---------------------------------------------------------------------------*/
FoamFile
{
    format      ascii;
    class       volScalarField;
    location    "1.45";
    object      rho;
}
// * * * * * * * * * * * * * * * * * * * * * * * * * * * * * * * * * * * * * //

dimensions      [1 -3 0 0 0 0 0];

internalField   nonuniform List<scalar> 
2268
(
13529
13529
13529
13529
13529
13529
13529
13529
13529
13529
13529
13529
13529
13529
13529
13529
13529
13529
13529
13529
13529
13523.6
13521.6
13529
13529
13529
13529
13529
13529
13529
13529
13529
13529
13529
13529
13529
13529
13529
13529
13529
13529
13529
13529
13529
13527.7
13521.6
13529
13529
13529
13529
13529
13529
13529
13529
13529
13529
13529
13529
13529
13529
13529
13529
13529
13529
13529
13529
13529
13529
13524.4
13529
13529
13529
13529
13529
13529
13529
13529
13529
13529
13529
13529
13529
13529
13529
13529
13529
13529
13529
13529
13529
13529
13528.8
12631
12712.6
12794.4
12894.8
13050.1
13248.8
13427.4
13521.6
13529
13529
13529
13529
13529
13529
13529
13529
13529
13529
13529
13529
13529
13529
13529
3235.38
3626.5
3863.25
4097.4
4490.14
5172.16
6212.81
7632.09
9392.33
10944.1
12196.3
13085.1
13487.2
13529
13529
13529
13529
13529
13529
13529
13529
13529
13529
1000
1000
1000
1000
1000
1000
1000
1000
1000
1489.81
2611.52
4336.93
6754.8
9560.31
11660
13230.5
13529
13529
13529
13529
13529
13529
13529
1000
1000
1000
1000
1000
1000
1000
1000
1000
1000
1000
1000
1000
1072.89
2055.24
3734.93
6351.17
9062.75
11098.6
12490.4
13378.8
13528.1
13523.8
11924
11906.4
11612.4
8235.77
7462.78
7583.28
8011.37
8239.72
8174.59
8085.19
8304.88
9102.37
9562.59
9602.11
9637.48
9615.79
9598.91
9609.52
9591.44
11925.3
11955.2
11722
11882.2
11855.7
11862.7
11319.2
10682.4
10326.7
9721.18
7846.85
7921.39
8185.66
8517.29
8488.94
8826.45
9273.87
9018.19
7844.82
11723.7
6322.77
5935.45
8139.29
7132.59
5206.9
3838.95
3645.46
3790.8
4006.42
4476.59
4342.24
3790.41
3664.24
4026.66
4281.87
4375.33
4861.77
5457.79
11636.7
4598.19
2959.84
1806.72
1140.73
993.403
795.175
495.96
391.765
1093.75
2493.97
2946.45
3451.55
3098.02
3129.69
3016.17
2601.79
2531.03
3033.3
11634.1
8235.85
3771.87
1002.2
1000.84
1001.8
1008.84
993.259
935.404
766.701
499.853
1148.56
2034.99
3143.06
3331.21
3330.94
2656.18
1803.2
1420.34
6684.84
4597.04
4133.89
1061.19
1000.95
1003.94
1017.43
1017.31
1009.62
995.074
931.564
856.15
890.478
931.569
933.676
1037.46
1020.71
881.595
758.755
1762.68
1517.84
2459.31
1325.94
1001.07
1001.14
1002.68
1003.2
1001.3
1000.21
1000.54
978.527
983.845
956.518
858.743
688.038
666.73
721.692
786.84
1737.43
1665.16
1691.87
1241.36
999.886
1000.64
1000.37
1000.05
999.889
999.872
1000.67
1001.18
1000.69
948.739
694.916
516.395
501.376
611.95
720.868
1000
1000
1000
1000
1000
1000
1000
1000
1000
1000
1000
1000
1000
1000
1000
1000
1016.27
1162.76
1524.89
2095.47
2770.26
3918.91
6794.51
1000
1000
1000
1000
1000
1000
1000
1000
1000
1000
1000
1000
1000
1000
1000
1000
1000
1000
1000
1000
1000.05
999.955
999.859
1000
1000
1000
1000
1000
1000
1000
1000
1000
1000
1000
1000
1000
1000
1000
1000
1000
1000
1000
1000
1000.02
999.988
1001.03
1000
1000
985.956
990.275
990.947
993.395
989.149
984.546
987.276
991.773
989.613
988.406
991.608
996.797
997.012
985.998
986.496
997.125
999.991
996.41
956.136
880.067
770.6
983.355
848.07
732.423
694.567
695.014
701.924
686.594
710.084
736.688
747.924
730.072
726.164
750.18
789.123
791.661
739.211
699.741
712.588
715.857
671.427
598.018
525.441
500.369
505.443
420.567
491.429
492.765
490.388
450.982
406.199
403.605
416.241
406.544
396.833
398.648
408.144
412.16
405.972
403.939
430.04
464.038
472.889
473.454
477.903
491.839
499.691
163.877
470.411
479.87
491.611
493.464
494.014
496.204
499.363
499.998
500
500
500
500
500
500
500
500
500
500
500
500
500.001
500
118.122
156.666
132.748
238.994
354.881
421.771
461.131
483.383
496.372
500
500
500
500
500
500
500
500
500
500
500
500
500
500
62.4006
1.44998
1.02993
1.02423
1.00124
43.9744
93.0065
148.217
210.22
277.533
343.76
389.741
426.824
455.799
475.958
489.499
496.836
499.587
500
500
500
500
500
21.0651
5.54363
1.00755
1.00001
1
1.00003
1.00008
1.00014
1.00033
1.00031
1.00025
20.8687
47.5201
80.325
116.233
159.034
204.354
246.343
281.723
310.957
330.196
331.218
318.803
6.31397
3.87705
1.00167
1.00007
1.00002
1.00002
1.00002
1.00002
1
1.0001
1.00052
1.00043
1.00008
1.00002
1.00001
1
1
1
1
1
1.00001
1.00003
1.00004
1.34339
1.42841
1.01889
1.00022
1.00007
1.00005
1.00007
1.00028
1.00094
1.00183
1.00167
1.00111
1.0001
1.00003
1.00001
1
1
1
1.00001
0.999995
0.99999
0.999994
1.00005
1.00024
1.00054
1.00268
1.00043
1.0001
1.00005
1.0001
1.00042
1.00344
1.02622
1.06154
1.0045
1.001
1.00029
1.00019
1.00023
1.00029
1.00035
1.00045
1.00036
1.00035
1.00029
1.00027
1.00038
1.00111
1.001
1.0002
1.00006
1.00005
1.00011
1.00045
1.00717
1.08683
1.08851
1.05146
1.00192
1.00069
1.00054
1.00089
1.00105
1.00072
1.00055
1.00047
1.00035
1.00025
1.00007
1.00014
1.00035
1.00008
1.00005
1.00004
1.00005
1.00009
1.00034
1.00765
1.08003
1.0873
1.08853
1.01349
1.00134
1.00122
1.00244
1.00212
1.001
1.00029
1.00009
1.00007
1.00005
1.00002
1.00003
1.00004
1.00006
1.00005
1.00004
1.00004
1.00005
1.00006
1.00009
1.005
1.07825
1.08685
1.03756
1.00283
1.0031
1.00307
1.0031
1.00106
1.00008
1.00003
1.00005
1.00005
1.00003
1.00003
1.00005
1.00006
1.00005
1.00004
1.00003
1.00003
1.00002
1.00002
1.00001
1.00276
1.0425
1.02212
1.00234
1.00264
1.00297
1.00269
1.00061
1.0001
1.00003
1.00005
1.00004
1.00003
1.00003
1.00004
1.00005
1.00005
1.00004
1.00002
1.00002
1.00001
1.00001
1.00001
1.00001
1.00001
1.00004
1.00587
1.00121
1.00042
1.0002
1.00012
1.00007
1.00003
1.00003
1.00003
1.00003
1.00002
1.00004
1.00004
1.00005
1.00004
1.00002
1.00001
1.00001
1.00001
1.00001
1.00001
1.00001
1.00023
1.00143
1.00141
1.0003
1.00003
1.00004
1.00007
1.00004
1.00001
1.00002
1.00002
1.00002
1.00002
1.00003
1.00004
1.00004
1.00002
1.00001
1.00001
1.00001
1.00001
1.00001
1.00001
1.00001
1
1.0004
1.00036
1.00004
1.00003
1.00003
1.00002
1.00001
1.00001
1.00001
1.00001
1.00002
1.00002
1.00002
1.00003
1.00002
1.00001
1.00001
1.00001
1.00001
1.00001
1.00001
1
1
1
1
1.00003
1.00002
1.00001
1.00001
1.00001
1.00001
1.00001
1.00001
1.00001
1.00001
1.00001
1.00002
1.00002
1.00001
1.00001
1.00001
1.00001
1.00001
1.00001
1.00001
1
1
1
1.00001
1.00001
1.00001
1
1
1
1
1.00001
1.00001
1.00001
1.00001
1.00001
1.00001
1.00001
1.00001
1
1
1
1
1
1
1
1
1
1
1
1
1
1
1
1.00001
1
1
1
1
1.00001
1.00001
1
1
1
1
1
1
1
1
1
1
1
1
1
1
1
1
1
1
1
1
1
1
1
1
1
1
1
1
1
1
1
1
1
1
1
1
1
1
1
1
1
1
1
1
1
1
1
1
1
1
1
1
1
1
1
1
1
1
1
1
1
1
1
1
1
1
1
1
1
1
1
1
1
1
1
1
1
1
1
1
1
1
1
1
1
1
1
1
1
1
1
1
1
1
1
1
1
1
1
1
1
1
1
1
1
1
1
1
1
1
1
1
1
1
1
1
1
1
1
1
1
1
1
1
1
1
1
1
1
1
1
1
1
1
1
1
1
1
1
1
1
1
1
1
1
1
1
1
1
1
1
1
1
1
1
1
1
1
1
1
1
1
1
1
1
1
1
1
1
1
1
1
1
1
1
1
1
1
1
1
1
1
1
1
1
1
1
1
1
1
1
1
1
1
1
1
1
1
1
1
1
1
1
1
1
1
1
1
1
1
1
1
1
1
1
1
1
1
1
1
1
1
1
1
1
1
1
1
1
1
1
1
1
1
1
1
1
1
1
1
1
1
1
1
1
1
1
1
1
1
1
1
1
1
1
1
1
1
1
1
1
1
1
1
1
1
1
1
1
1
1
1
1
1
1
1
1
1
1
1
1
1
1
1
1
1
1
1
1
1
1
1
1
1
1
1
1
1
1
1
1
1
1
1
1
1
1
1
1
1
1
1
1
1
1
1
1
1
1
1
1
1
1
1
1
1
1
1
1
1
1
1
1
1
1
1
1
1
1
1
1
1
1
1
1
1
1
1
1
1
1
1
1
1
1
1
1
1
1
1
1
1
1
1
1
1
1
1
1
1
1
1
1
1
1
1
1
1
1
1
1
1
1
1
1
1
1
1
1
1
1
1
1
1
1
1
1
1
1
1
1
1
1
1
1
1
1
1
1
1
1
1
1
1
1
1
1
1
1
1
1
1
1
1
1
1
1
1
1
1
3887.38
1421.83
1302.98
1198.62
1067.91
1046.77
926.992
1067.76
966.384
769.059
978.279
1304.26
766.835
622.383
537.565
531.872
488.466
490.145
495.337
499.719
500.028
500.003
500
500
500
500
500
500
500
500
500
500
500
500
500
498.759
303.126
291.161
282.287
255.977
1.00009
1.0001
1.00008
1.00009
1.00011
1.00012
1.00014
1.00013
1.00026
1.0002
1.0002
1.00017
1.00005
1.00004
1.00003
1.00003
1.00001
1.00001
1.00001
1.00001
1.00002
1.00001
1.00001
1.00001
1.00002
1.00001
1.00001
1.00001
1.00002
1.00002
1.00001
1.00001
1.00001
1.00001
1.00001
1.00001
1.00001
1.00001
1.00001
1.00001
1
1
1
1
1
1
1
1
1
1
1
1
1
1
1
1
1
1
1
1
1
1
1
1
1
1
1
1
1
1
1
1
1
1
1
1
1
1
1
1
1
1
1
1
1
1
1
1
1
1
1
1
1
1
1
1
1
1
1
1
1
1
1
1
1
1
1
1
1
1
1
1
1
1
1
1
1
1
1
1
1
1
1
1
1
1
1
1
1079.2
1790.23
2098.74
1356.36
999.472
999.887
998.584
987.434
944.072
899.843
887.853
874.232
827.968
711.177
557.515
508.118
503.705
504.289
656.245
1302.18
1691.57
1848.63
1836.99
954.301
951.495
940.175
728.132
547.59
529.89
523.806
515.976
506.793
501.687
501.22
501.576
500.645
500.022
566.39
572.649
541.139
1219.82
1256.02
852.609
778.514
575.023
498.947
500.009
499.931
499.899
499.905
500.073
500.18
500.166
499.939
499.901
499.999
516.95
507.148
500.019
499.905
453.043
467.934
480.69
478.916
500.465
500.001
499.996
499.98
499.984
499.999
500
500.001
500.12
500.041
500.011
508.929
500.076
500.198
500.141
500.03
481.902
480.697
497.696
500.735
500.043
500.012
499.967
499.97
499.993
500
500.055
500.126
500.096
500.28
555.71
500
500.034
500.055
500.043
500.027
500.016
500.004
499.999
499.999
499.989
499.997
500
500
500.008
500.055
500.067
500.044
509.148
581.917
500
500.001
500.002
500.002
500
500
500
499.684
499.991
500
499.999
495.495
393.278
305.173
289.697
304.037
320.681
386.198
475.344
500
500
500
500
497.353
479.055
440.42
411.646
301.328
132.311
95.7045
58.132
18.3355
4.49749
2.58339
3.81802
8.03257
22.7271
86.4904
492.406
483.686
445.568
347.899
245.442
152.449
28.4103
1.00085
1.17403
1.00114
1.00147
1.0023
1.00231
1.00182
1.02427
1.63679
3.77214
1.1708
5.11025
187.442
141.986
71.9844
1.00007
1.00008
1.00009
1.00007
1.00006
1.00035
1.0002
1.00017
1.00015
1.00014
1.24963
1.87646
2.27947
1.78139
1.00291
1.00005
1.00007
1.00005
1.00005
1.00007
1.00016
1.00013
1.00008
1.00004
1.15119
1.25968
1.02357
1.00015
1.09525
2.51169
2.54461
2.13659
1.38775
1.00045
1.00013
1.0001
1.00006
1.00006
1.00015
1.0005
1.00042
1.00007
1.17992
1.53919
1.52997
1.16149
1.00146
1.24025
2.22289
1.75969
1.08758
1.05442
1.00031
1.00022
1.00011
1.00003
1.00006
1.00038
1.00052
1.00042
1.00008
1.20542
1.51594
1.45775
1.07348
1.00735
1.09758
1.05038
1.00002
1.00002
1.00004
1.00016
1.00015
1.00002
1.00002
1.00007
1.0001
1.00034
1.00188
1.00533
1.02359
1.04115
1.04367
1.00383
1.00143
1.00002
1.00002
1.00002
1.00003
1.0001
1.00027
1.00082
1.00001
1.00001
1.00002
1.00006
1.00015
1.00028
1.00035
1.00007
1.00009
1.00022
1.00066
1.00055
1.00002
1.00002
1.00002
1.00006
1.00014
1.00056
1.00082
1.00001
1.00001
1.00001
1.00001
1.00001
1.00002
1.00002
1.00001
1.00004
1.0001
1.00024
1.00037
1.00002
1.00002
1.00003
1.00004
1.00015
1.00033
1.0007
1.00001
1.00001
1
1
1
1
1
1.00001
1.00002
1.00004
1.00009
1.00008
1.00001
1.00001
1.00002
1.00003
1.00006
1.00015
1.00012
1.00001
1.00001
1
1
1
1
1
1
1
1.00001
1.00001
1.00001
1.00001
1.00001
1.00001
1.00002
1.00003
1.00003
1.00005
1.00001
1.00001
1
1
1
1
1
1
1
1
1
1
1
1
1
1
1.00001
1.00001
1.00001
1.00001
1
1
1
1
1
1
1
1
1
1
1
1
1
1
1
1
1
1
1
1
1
1
1
1
1
1
1
1
1
1
1
1
1
1
1
1
1
1
1
1
1
1
1
1
1
1
1
1
1
1
1
1
1
1
1.00001
1.00001
1
1
1
1
1
1
1
1
1
1
1
1
1
1
1
1
1.00001
1.00001
1.00001
1
1
1
1
1
1
1
1
1
1
1
1
1
1
1
1
1.00001
1.00001
1.00001
1
1
1
1
1
1
1
1
1
1
1
1
1
1
1
1
1.00001
1.00002
1.00001
1
1
1
1
1
1
1
1
1
1
1
1
1
1
1
1
1.00001
1.00002
1.00002
1
1
1
1
1
1
1
1
1
1
1
1
1
1
1
1.00001
1.00002
1.00004
1.00002
1
1
1
1
1
1
1
1
1
1
1
1
1
1
1
1.00001
1.00002
1.00005
1.00002
1
1
1
1
1
1
1
1
1
1
1
1
1
1
1
1.00001
1.00003
1.00006
1.00002
1
1
1
1
1
1
1
1
1
1
1
1
1
1
1
1.00001
1.00004
1.00005
1.00002
1
1
1
1
1
1
1
1
1
1
1
1
1
1
1
1.00002
1.00004
1.00006
1.00002
1
1
1
1
1
1
1
1
1
1
1
1
1
1
1
1.00002
1.00005
1.00005
1.00002
1
1
1
1
1
1
1
1
1
1
1
1
1
1
1.00001
1.00002
1.00004
1.00003
1.00001
1
1
1
1
1
1
1
1
1
1
1
1
1
1
1.00001
1.00001
1.00002
1.00001
1
1
1
1
1
1
1
1
1
1
1
1
1
1
1
1
1.00001
1.00001
1.00001
1
1
1
1
1
1
1
1
1
1
1
1
1
1
1
1
1.00001
1
1
1
1
1
1
1
1
1
1
1
1
1
1
1
1
1
1
1
1
1
1
1
1
1
1
1
1
1
1
1
1
1
1
1
1
1
1
1
1
1
1
1
1
1
1
1
1
1
1
1
1
1
1
1
1
1
1
1
1
1
1
1
1
1
1
1
1
1
1
1
1
1
1
1
1
1
1
1
1
1
1
1
1
1
1
1
1
1
1
1
1
1
1
1
1
1
1
1
1
1
1
1
1
1
1
1
1
1
1
1
1
1
1
1
1
1
)
;

boundaryField
{
    leftWall
    {
        type            calculated;
        value           nonuniform List<scalar> 
50
(
13529
13529
13529
13529
12631
3235.38
1000
1000
1000
1000
1000
1000
983.355
505.443
163.877
118.122
62.4006
21.0651
6.31397
1.34339
1.00024
1.00038
1.00014
1.00003
1.00003
1.00003
1.00002
1.00002
1.00001
1.00001
1.00001
1.00001
1
1
1
1
1
1
1
1
1
1
1
1
1
1
1
1
1
1
)
;
    }
    rightWall
    {
        type            calculated;
        value           nonuniform List<scalar> 
50
(
9591.44
7844.82
5457.79
3033.3
1420.34
758.755
786.84
720.868
656.245
566.39
516.95
508.929
555.71
581.917
475.344
86.4904
5.11025
1.00005
1.00013
1.00022
1.00015
1.00082
1.00082
1.0007
1.00012
1.00005
1.00001
1
1
1.00001
1.00001
1.00001
1.00001
1.00002
1.00002
1.00002
1.00002
1.00002
1.00002
1.00002
1.00001
1
1
1
1
1
1
1
1
1
)
;
    }
    lowerWall
    {
        type            calculated;
        value           nonuniform List<scalar> 
62
(
13529
13529
13529
13529
13529
13529
13529
13529
13529
13529
13529
13529
13529
13529
13529
13529
13529
13529
13529
13529
13529
13523.6
13521.6
13521.6
13521.6
13524.4
13528.8
13529
13529
13529
13523.8
3887.38
1421.83
1302.98
1198.62
11924
11925.3
11723.7
11636.7
11634.1
6684.84
1762.68
1737.43
11924
11906.4
11612.4
8235.77
7462.78
7583.28
8011.37
8239.72
8174.59
8085.19
8304.88
9102.37
9562.59
9602.11
9637.48
9615.79
9598.91
9609.52
9591.44
)
;
    }
    atmosphere
    {
        type            calculated;
        value           nonuniform List<scalar> 
46
(
1
1
1
1
1
1
1
1
1
1
1
1
1
1
1
1
1
1
1
1
1
1
1
1
1
1
1
1
1
1
1
1
1
1
1
1
1
1
1
1
1
1
1
1
1
1
)
;
    }
    defaultFaces
    {
        type            empty;
    }
}


// ************************************************************************* //
