/*--------------------------------*- C++ -*----------------------------------*\
  =========                 |
  \\      /  F ield         | OpenFOAM: The Open Source CFD Toolbox
   \\    /   O peration     | Website:  https://openfoam.org
    \\  /    A nd           | Version:  13
     \\/     M anipulation  |
\*---------------------------------------------------------------------------*/
FoamFile
{
    format      ascii;
    class       volVectorField;
    location    "1.45";
    object      U;
}
// * * * * * * * * * * * * * * * * * * * * * * * * * * * * * * * * * * * * * //

dimensions      [0 1 -1 0 0 0 0];

internalField   nonuniform List<vector> 
2268
(
(-0.00939231 0.0033199 0)
(-0.0132888 -0.00105242 0)
(-0.00317117 -0.00429489 0)
(0.00677723 -0.0046025 0)
(0.0165711 -0.00457656 0)
(0.026595 -0.00476259 0)
(0.0375963 -0.00515578 0)
(0.0500268 -0.00562558 0)
(0.0639811 -0.00604278 0)
(0.0792345 -0.00628129 0)
(0.0952464 -0.00621767 0)
(0.11118 -0.00575991 0)
(0.125976 -0.00486021 0)
(0.138388 -0.00348624 0)
(0.146922 -0.00160436 0)
(0.149907 0.000749592 0)
(0.145747 0.00358138 0)
(0.133129 0.00673955 0)
(0.111183 0.0101293 0)
(0.0797898 0.0134931 0)
(0.0402174 0.0157555 0)
(-0.00489949 0.0108581 0)
(-0.0162767 -0.00513821 0)
(-0.00325728 0.0072109 0)
(0.00344692 -0.00346005 0)
(0.0131004 -0.00669029 0)
(0.0212207 -0.00678222 0)
(0.0289753 -0.00669535 0)
(0.0370254 -0.00719004 0)
(0.0461264 -0.00815183 0)
(0.0566666 -0.00929454 0)
(0.0687095 -0.0103944 0)
(0.0820666 -0.0112306 0)
(0.0963091 -0.0115777 0)
(0.110779 -0.0112484 0)
(0.124639 -0.0100813 0)
(0.136863 -0.00791619 0)
(0.146053 -0.00454263 0)
(0.150553 2.47721e-05 0)
(0.148622 0.0057274 0)
(0.138853 0.0122054 0)
(0.120438 0.0190593 0)
(0.093436 0.0254867 0)
(0.0593031 0.0292474 0)
(0.0211183 0.0225979 0)
(-0.000320107 -0.00635812 0)
(0.0059213 0.00476111 0)
(0.0153199 -0.00798503 0)
(0.0242053 -0.0105764 0)
(0.0311363 -0.0102694 0)
(0.0376672 -0.0101026 0)
(0.044571 -0.0108989 0)
(0.0525232 -0.0124057 0)
(0.0618094 -0.0141657 0)
(0.0724541 -0.0157976 0)
(0.084302 -0.0170031 0)
(0.0969858 -0.0175408 0)
(0.109964 -0.0171182 0)
(0.122573 -0.0155261 0)
(0.134021 -0.0125355 0)
(0.143102 -0.00767557 0)
(0.14826 -0.000856945 0)
(0.147806 0.00784885 0)
(0.140363 0.0178324 0)
(0.12519 0.0283831 0)
(0.102352 0.0381701 0)
(0.0730669 0.0439654 0)
(0.039238 0.0369586 0)
(0.0152762 0.00257635 0)
(0.0156342 -0.0030533 0)
(0.0242241 -0.0130799 0)
(0.0326501 -0.0143222 0)
(0.0388707 -0.0135207 0)
(0.0447212 -0.0133238 0)
(0.0509781 -0.0144674 0)
(0.0582274 -0.0165309 0)
(0.0666713 -0.0188828 0)
(0.076285 -0.0210911 0)
(0.0869082 -0.022759 0)
(0.0982289 -0.0234953 0)
(0.109796 -0.0230471 0)
(0.121049 -0.0211136 0)
(0.131473 -0.0172908 0)
(0.140114 -0.0110326 0)
(0.145538 -0.00214448 0)
(0.146163 0.00932976 0)
(0.140698 0.02251 0)
(0.128472 0.0364648 0)
(0.109426 0.049428 0)
(0.0842162 0.0575974 0)
(0.0533245 0.0520802 0)
(0.0275113 0.0178788 0)
(0.0227275 -0.0150266 0)
(0.0296064 -0.0177229 0)
(0.0383896 -0.0173295 0)
(0.044631 -0.0161141 0)
(0.0504833 -0.0159154 0)
(0.0566507 -0.0173262 0)
(0.0636289 -0.0198024 0)
(0.0715211 -0.0226566 0)
(0.0802457 -0.0254318 0)
(0.0898759 -0.0276338 0)
(0.100067 -0.0287964 0)
(0.11032 -0.0284378 0)
(0.120271 -0.0262504 0)
(0.129545 -0.0219314 0)
(0.137435 -0.0144881 0)
(0.142718 -0.00381638 0)
(0.143991 0.0101807 0)
(0.140174 0.026258 0)
(0.130643 0.043268 0)
(0.115099 0.0591716 0)
(0.0935235 0.0700501 0)
(0.0649482 0.0676089 0)
(0.0375022 0.0379375 0)
(0.0256857 -0.0237069 0)
(0.0317127 -0.0213206 0)
(0.0423128 -0.0197918 0)
(0.0493845 -0.0181622 0)
(0.055877 -0.0179528 0)
(0.0624259 -0.0196861 0)
(0.0694825 -0.0226603 0)
(0.0772297 -0.0260227 0)
(0.0854292 -0.0291198 0)
(0.0940053 -0.0314736 0)
(0.102945 -0.0326226 0)
(0.111906 -0.0321234 0)
(0.120286 -0.0298323 0)
(0.128142 -0.0253885 0)
(0.135065 -0.0174206 0)
(0.139813 -0.00548685 0)
(0.141306 0.0105744 0)
(0.138767 0.0290369 0)
(0.131615 0.0486942 0)
(0.119336 0.0673283 0)
(0.10124 0.0812021 0)
(0.0751774 0.0836012 0)
(0.0467475 0.0629395 0)
(0.0251423 -0.0360664 0)
(0.0362076 -0.0268938 0)
(0.050656 -0.0239491 0)
(0.0598294 -0.0213848 0)
(0.0672789 -0.0207535 0)
(0.0735687 -0.0222299 0)
(0.0793491 -0.0249514 0)
(0.0851242 -0.027961 0)
(0.0906814 -0.0305891 0)
(0.0978494 -0.0334901 0)
(0.105977 -0.0352215 0)
(0.114077 -0.035155 0)
(0.121839 -0.0329945 0)
(0.12827 -0.0280847 0)
(0.133323 -0.0192821 0)
(0.136583 -0.00632451 0)
(0.13754 0.0108507 0)
(0.135999 0.0306695 0)
(0.131082 0.0522958 0)
(0.12196 0.0733771 0)
(0.107759 0.0905819 0)
(0.0850951 0.0991821 0)
(0.0570645 0.0934103 0)
(0.0238735 -0.0549296 0)
(0.0444367 -0.0397101 0)
(0.0646527 -0.0329539 0)
(0.0780834 -0.0281947 0)
(0.087758 -0.0264897 0)
(0.0949066 -0.0276181 0)
(0.100469 -0.0305945 0)
(0.105378 -0.0343603 0)
(0.110491 -0.03772 0)
(0.114659 -0.0400417 0)
(0.118226 -0.0406259 0)
(0.122085 -0.0388053 0)
(0.125348 -0.0349648 0)
(0.127876 -0.0293008 0)
(0.131157 -0.0204259 0)
(0.132979 -0.00690432 0)
(0.133539 0.0113019 0)
(0.132228 0.0324149 0)
(0.128487 0.0553471 0)
(0.122086 0.0778065 0)
(0.111767 0.0971779 0)
(0.0945262 0.110628 0)
(0.0767749 0.122275 0)
(-0.0661494 0.0132893 0)
(0.00130111 -0.00119384 0)
(-0.0159724 -0.0102072 0)
(0.00449483 0.00391969 0)
(-0.0259996 0.0104328 0)
(-0.0494706 0.00712738 0)
(-0.0673052 0.00551339 0)
(-0.0810546 0.00338922 0)
(-0.0894111 0.0019055 0)
(-0.0960991 0.00194948 0)
(-0.109123 0.00636919 0)
(-0.120123 0.00120461 0)
(-0.11436 -0.00463477 0)
(-0.0984902 -0.00618546 0)
(-0.0825335 -0.00464121 0)
(-0.0663297 -0.00625054 0)
(-0.0402543 -0.0117054 0)
(-0.0111121 -0.00898605 0)
(-0.00790177 -0.00562952 0)
(-0.0470127 0.00745926 0)
(0.0403915 0.000248549 0)
(0.0165 -0.00466776 0)
(0.00873669 0.010512 0)
(-0.0199491 0.0163347 0)
(-0.0404663 0.0121188 0)
(-0.0572972 0.00979341 0)
(-0.0715847 0.00676175 0)
(-0.0832729 0.00463386 0)
(-0.0934472 0.00405196 0)
(-0.0991762 0.00730118 0)
(-0.101093 0.000763076 0)
(-0.0949211 -0.0071775 0)
(-0.0809241 -0.0108404 0)
(-0.0628078 -0.0111505 0)
(-0.0418502 -0.0139639 0)
(-0.0193621 -0.0169819 0)
(-0.0035566 -0.0108154 0)
(-0.00239977 -0.00296258 0)
(-0.0516776 -9.45682e-05 0)
(0.0849648 -0.0105896 0)
(0.075086 0.00108378 0)
(0.0538342 0.0209771 0)
(0.0180156 0.0236158 0)
(-0.00501384 0.0178416 0)
(-0.0235299 0.0160311 0)
(-0.0420324 0.0123637 0)
(-0.0606209 0.00899015 0)
(-0.0761849 0.00726703 0)
(-0.0804566 0.00744611 0)
(-0.0795998 -0.000825574 0)
(-0.07216 -0.0120185 0)
(-0.0580115 -0.0174846 0)
(-0.0394552 -0.0190037 0)
(-0.01853 -0.022687 0)
(0.000482167 -0.0221323 0)
(0.00697499 -0.0118877 0)
(0.00704089 -0.00499256 0)
(-0.0759362 -0.00739555 0)
(0.0849276 -0.048789 0)
(0.12657 -0.0095892 0)
(0.127989 0.034715 0)
(0.0834237 0.0368612 0)
(0.0566353 0.0283691 0)
(0.0427319 0.0248321 0)
(0.0260133 0.0213413 0)
(-0.000858473 0.0209001 0)
(-0.0273138 0.017445 0)
(-0.0433625 0.00972443 0)
(-0.0465944 -0.00181502 0)
(-0.0416478 -0.0166931 0)
(-0.0283461 -0.0255416 0)
(-0.013762 -0.0275962 0)
(0.0010662 -0.0318178 0)
(0.0151955 -0.0280061 0)
(0.0192754 -0.0124783 0)
(0.0286793 -0.000556334 0)
(-0.0818501 -0.00287651 0)
(0.0632697 -0.0829509 0)
(0.114406 -0.0439975 0)
(0.193608 0.049814 0)
(0.177686 0.0585932 0)
(0.149862 0.0414706 0)
(0.132499 0.0334692 0)
(0.119345 0.0324259 0)
(0.102228 0.0331553 0)
(0.0721932 0.026462 0)
(0.0292398 0.0171939 0)
(0.00817461 0.00222478 0)
(0.00021997 -0.0166635 0)
(0.00300244 -0.0285915 0)
(0.00833807 -0.0314326 0)
(0.0126505 -0.035621 0)
(0.0150897 -0.0310607 0)
(0.0120918 -0.0132554 0)
(0.0230513 0.0135348 0)
(-0.0696464 -0.00525808 0)
(0.0588687 -0.109662 0)
(0.0938613 -0.0771408 0)
(0.186868 0.0288432 0)
(0.220026 0.0574431 0)
(0.207602 0.0469375 0)
(0.191343 0.0381725 0)
(0.175352 0.0371863 0)
(0.158734 0.0407262 0)
(0.139368 0.0402708 0)
(0.118438 0.0324218 0)
(0.0905328 0.0098789 0)
(0.0651215 -0.0139794 0)
(0.047878 -0.0289811 0)
(0.0391468 -0.0308509 0)
(0.0273825 -0.0337842 0)
(0.0106217 -0.0275542 0)
(-0.0140264 -0.00947846 0)
(-0.0331883 0.0149771 0)
(-0.0335748 -0.0143276 0)
(0.0633872 -0.139483 0)
(0.0896614 -0.107836 0)
(0.177962 -0.00376345 0)
(0.236761 0.0487163 0)
(0.243775 0.0497855 0)
(0.234455 0.0441788 0)
(0.219932 0.0442369 0)
(0.203591 0.0479013 0)
(0.186653 0.0476277 0)
(0.170707 0.0403934 0)
(0.153033 0.0211371 0)
(0.132468 -0.00270518 0)
(0.111445 -0.0203701 0)
(0.0886531 -0.0235003 0)
(0.0568784 -0.023109 0)
(0.0177421 -0.0141991 0)
(-0.0247729 0.00334783 0)
(-0.0538476 -0.00816594 0)
(0.0330273 -0.025943 0)
(0.0924232 -0.160861 0)
(0.112971 -0.138535 0)
(0.183925 -0.0358535 0)
(0.247664 0.03476 0)
(0.267011 0.0480876 0)
(0.266113 0.0479918 0)
(0.255423 0.0503404 0)
(0.240697 0.05475 0)
(0.225506 0.0542233 0)
(0.211661 0.0466566 0)
(0.19764 0.02833 0)
(0.179503 0.00636865 0)
(0.156275 -0.00995274 0)
(0.126963 -0.0102824 0)
(0.087079 -0.00384774 0)
(0.0388268 0.00739667 0)
(-0.010184 0.0197682 0)
(-0.0325815 -0.0249478 0)
(0.026918 -0.0767314 0)
(0.0521359 -0.0579995 0)
(0.0763712 -0.0456437 0)
(0.0939065 -0.0369601 0)
(0.106263 -0.0323212 0)
(0.114839 -0.0312233 0)
(0.120825 -0.0327159 0)
(0.125374 -0.0356501 0)
(0.129612 -0.039088 0)
(0.133993 -0.0427089 0)
(0.138344 -0.0449711 0)
(0.142454 -0.0452492 0)
(0.146236 -0.0424763 0)
(0.148249 -0.0344877 0)
(0.146132 -0.0227276 0)
(0.141242 -0.00636304 0)
(0.134816 0.0126494 0)
(0.129154 0.0340799 0)
(0.125169 0.0580472 0)
(0.122386 0.0820368 0)
(0.120497 0.103748 0)
(0.122243 0.121208 0)
(0.150416 0.128755 0)
(0.0250688 -0.116972 0)
(0.0494562 -0.0888567 0)
(0.0708546 -0.0676288 0)
(0.0874797 -0.0527689 0)
(0.100235 -0.0436125 0)
(0.109984 -0.0391021 0)
(0.117398 -0.0382388 0)
(0.12355 -0.0402079 0)
(0.12959 -0.0433398 0)
(0.135777 -0.0459754 0)
(0.141863 -0.0471719 0)
(0.147807 -0.0460374 0)
(0.153705 -0.0413685 0)
(0.159845 -0.0327658 0)
(0.165832 -0.0192144 0)
(0.171218 -0.00181125 0)
(0.176429 0.0176843 0)
(0.182491 0.0384419 0)
(0.19006 0.0600376 0)
(0.200497 0.0808626 0)
(0.216095 0.0973284 0)
(0.238112 0.0942062 0)
(0.262975 0.0305296 0)
(0.0146237 -0.148033 0)
(0.0325478 -0.111623 0)
(0.0466376 -0.0845767 0)
(0.0594052 -0.0666542 0)
(0.0712665 -0.0553371 0)
(0.0820417 -0.0488066 0)
(0.0913956 -0.0462196 0)
(0.0998801 -0.0476621 0)
(0.108607 -0.0510126 0)
(0.117672 -0.0537637 0)
(0.126466 -0.0545452 0)
(0.134916 -0.0533803 0)
(0.143911 -0.0496336 0)
(0.154142 -0.0417345 0)
(0.165495 -0.0290285 0)
(0.17732 -0.0122989 0)
(0.189925 0.00586453 0)
(0.204934 0.0237394 0)
(0.223536 0.0415331 0)
(0.245871 0.0576008 0)
(0.271685 0.0671606 0)
(0.299124 0.0617796 0)
(0.321604 0.0348511 0)
(-0.00471836 -0.15822 0)
(0.00147144 -0.121884 0)
(0.0064157 -0.0954724 0)
(0.0157755 -0.0784617 0)
(0.0276577 -0.0677156 0)
(0.0403146 -0.0606095 0)
(0.0523091 -0.0568216 0)
(0.0637036 -0.0582499 0)
(0.0756785 -0.0620971 0)
(0.0878389 -0.0647097 0)
(0.0995051 -0.0648517 0)
(0.11066 -0.0636754 0)
(0.122286 -0.0609356 0)
(0.135351 -0.0548213 0)
(0.149831 -0.043323 0)
(0.165214 -0.0270768 0)
(0.181906 -0.0105099 0)
(0.201198 0.00436011 0)
(0.223882 0.0188919 0)
(0.249194 0.0324863 0)
(0.276048 0.04166 0)
(0.302432 0.0398933 0)
(0.322962 0.0253716 0)
(-0.0399317 -0.137381 0)
(-0.0506935 -0.118268 0)
(-0.0525491 -0.100055 0)
(-0.0435427 -0.0877264 0)
(-0.0294419 -0.0798728 0)
(-0.0133601 -0.0729258 0)
(0.00268745 -0.0680518 0)
(0.0179975 -0.0701287 0)
(0.033316 -0.07429 0)
(0.0484686 -0.0763751 0)
(0.0629457 -0.0758226 0)
(0.077335 -0.0749147 0)
(0.0919493 -0.0731003 0)
(0.106876 -0.0679243 0)
(0.122347 -0.0571617 0)
(0.139182 -0.0421087 0)
(0.158681 -0.0281275 0)
(0.180896 -0.0167497 0)
(0.205119 -0.00500249 0)
(0.231302 0.00656526 0)
(0.259062 0.0143778 0)
(0.287423 0.0140576 0)
(0.312234 0.00483966 0)
(-0.101615 -0.0809627 0)
(-0.12811 -0.0988089 0)
(-0.12698 -0.105589 0)
(-0.11658 -0.101072 0)
(-0.101015 -0.0965829 0)
(-0.0834043 -0.0900945 0)
(-0.0641875 -0.0854186 0)
(-0.0437556 -0.0875258 0)
(-0.02461 -0.091418 0)
(-0.00644568 -0.0928374 0)
(0.011712 -0.0923897 0)
(0.030449 -0.0918148 0)
(0.0490015 -0.0898306 0)
(0.0668302 -0.0848128 0)
(0.0847805 -0.075373 0)
(0.105109 -0.0631524 0)
(0.128721 -0.0520633 0)
(0.153717 -0.0425352 0)
(0.179693 -0.0326813 0)
(0.20742 -0.0233928 0)
(0.237144 -0.0170925 0)
(0.267389 -0.0157191 0)
(0.296455 -0.0203407 0)
(-0.183836 0.0662552 0)
(-0.160285 -0.08885 0)
(-0.169157 -0.111612 0)
(-0.164353 -0.114587 0)
(-0.151665 -0.115596 0)
(-0.134131 -0.114275 0)
(-0.114228 -0.112514 0)
(-0.0932122 -0.113795 0)
(-0.0728808 -0.116387 0)
(-0.0526586 -0.117349 0)
(-0.0318632 -0.116869 0)
(-0.0108147 -0.115298 0)
(0.00988251 -0.112116 0)
(0.0303777 -0.106543 0)
(0.0517041 -0.0982684 0)
(0.0750673 -0.0883346 0)
(0.100604 -0.0787287 0)
(0.127527 -0.0697524 0)
(0.155657 -0.0608882 0)
(0.185459 -0.0529037 0)
(0.216746 -0.0471546 0)
(0.248649 -0.0455751 0)
(0.280147 -0.0489338 0)
(-0.119848 0.197755 0)
(-0.095319 -0.0709826 0)
(-0.167776 -0.10857 0)
(-0.177627 -0.121051 0)
(-0.168844 -0.126415 0)
(-0.154565 -0.127013 0)
(-0.135666 -0.127684 0)
(-0.116091 -0.130076 0)
(-0.0963887 -0.133119 0)
(-0.0770665 -0.135793 0)
(-0.0560276 -0.137223 0)
(-0.0344027 -0.137288 0)
(-0.0136006 -0.134808 0)
(0.00782112 -0.130228 0)
(0.0302722 -0.123601 0)
(0.054425 -0.115973 0)
(0.0805048 -0.108266 0)
(0.108262 -0.100657 0)
(0.137603 -0.0932278 0)
(0.168633 -0.0866367 0)
(0.201075 -0.0820384 0)
(0.234101 -0.080457 0)
(0.267103 -0.0828679 0)
(-0.050072 0.292722 0)
(0.134336 0.0106037 0)
(-0.106375 -0.0976985 0)
(-0.166982 -0.118992 0)
(-0.174116 -0.124437 0)
(-0.161132 -0.134524 0)
(-0.143104 -0.138031 0)
(-0.122545 -0.141209 0)
(-0.102601 -0.145128 0)
(-0.0823783 -0.148884 0)
(-0.0630274 -0.150512 0)
(-0.044482 -0.14952 0)
(-0.0244767 -0.148118 0)
(-0.00372973 -0.145572 0)
(0.0187488 -0.141571 0)
(0.0429678 -0.136975 0)
(0.0691212 -0.13228 0)
(0.0971079 -0.127515 0)
(0.126922 -0.122788 0)
(0.158334 -0.118847 0)
(0.191549 -0.11616 0)
(0.226521 -0.115393 0)
(0.262081 -0.1184 0)
(-0.00400929 0.133915 0)
(0.177017 0.12275 0)
(0.157062 0.185277 0)
(0.0233301 -0.0302157 0)
(-0.060798 -0.102307 0)
(-0.138646 -0.151833 0)
(-0.139446 -0.142364 0)
(-0.118718 -0.141596 0)
(-0.0968717 -0.144448 0)
(-0.0814229 -0.147826 0)
(-0.0649953 -0.155281 0)
(-0.0473828 -0.159555 0)
(-0.0307649 -0.160847 0)
(-0.0108612 -0.15924 0)
(0.0123009 -0.155863 0)
(0.0376675 -0.151882 0)
(0.0648284 -0.147788 0)
(0.0936694 -0.143672 0)
(0.123733 -0.139625 0)
(0.15514 -0.13667 0)
(0.187527 -0.134943 0)
(0.220982 -0.134702 0)
(0.255933 -0.135657 0)
(0.019568 -0.0496374 0)
(0.109281 0.0238724 0)
(0.110994 0.125235 0)
(0.0822521 0.070639 0)
(0.0467589 -0.0497279 0)
(0.0172925 -0.112782 0)
(0.00994085 -0.199569 0)
(0.0163119 -0.231119 0)
(0.0216615 -0.22059 0)
(0.0158435 -0.225518 0)
(-0.00521532 -0.177453 0)
(-0.0359854 -0.184596 0)
(-0.0331123 -0.171022 0)
(-0.0152115 -0.165734 0)
(0.00768528 -0.16026 0)
(0.0335571 -0.155097 0)
(0.0612497 -0.151144 0)
(0.0911524 -0.148219 0)
(0.123411 -0.144972 0)
(0.153512 -0.143286 0)
(0.185513 -0.144606 0)
(0.222664 -0.144928 0)
(0.257804 -0.147401 0)
(-0.024925 -0.0662997 0)
(0.00116133 0.0153876 0)
(0.0194837 0.0930945 0)
(0.0599639 0.0407275 0)
(0.0713759 -0.00994406 0)
(0.0649042 -0.0983037 0)
(0.0540836 -0.161054 0)
(0.035959 -0.188535 0)
(0.0262426 -0.186233 0)
(0.0121758 -0.138854 0)
(0.00242043 -0.179058 0)
(0.000142219 -0.175527 0)
(0.00830883 -0.229959 0)
(0.0262573 -0.256191 0)
(0.0486677 -0.265641 0)
(0.0752693 -0.269509 0)
(0.103279 -0.270482 0)
(0.129806 -0.269017 0)
(0.14949 -0.260395 0)
(0.15773 -0.255999 0)
(0.152201 -0.241933 0)
(0.141384 -0.246199 0)
(0.123851 -0.259885 0)
(-0.0164401 -0.0150529 0)
(-0.0251829 0.013325 0)
(0.000554621 0.0529587 0)
(0.0347877 0.0232665 0)
(0.0537157 -0.031479 0)
(0.0559568 -0.0875416 0)
(0.0399363 -0.135202 0)
(0.0153577 -0.161645 0)
(-0.00708667 -0.168749 0)
(-0.00852748 -0.16616 0)
(0.000213601 -0.144608 0)
(0.0124659 -0.184531 0)
(0.0251135 -0.216663 0)
(0.0282302 -0.233034 0)
(0.0330712 -0.240035 0)
(0.0397671 -0.242715 0)
(0.0466309 -0.241312 0)
(0.0516803 -0.234005 0)
(0.0547591 -0.221091 0)
(0.0526845 -0.196599 0)
(0.0455624 -0.189624 0)
(0.0423618 -0.186674 0)
(0.0394223 -0.179142 0)
(0.000457297 -0.00963217 0)
(-0.0127611 0.0094795 0)
(0.00140317 0.0216264 0)
(0.0208308 0.000349409 0)
(0.0318953 -0.0352365 0)
(0.0306833 -0.0781029 0)
(0.0172518 -0.11486 0)
(-0.00198478 -0.138946 0)
(-0.0187241 -0.151719 0)
(-0.0251607 -0.159217 0)
(-0.0151435 -0.173034 0)
(-0.00262709 -0.190401 0)
(-0.000936807 -0.210246 0)
(-0.0072605 -0.224504 0)
(-0.0153534 -0.232376 0)
(-0.0236179 -0.235384 0)
(-0.0325429 -0.23389 0)
(-0.0417427 -0.227191 0)
(-0.0495712 -0.214391 0)
(-0.0523146 -0.199005 0)
(-0.0521102 -0.178493 0)
(-0.0476399 -0.174482 0)
(-0.0447249 -0.179643 0)
(-0.00232825 -0.00334364 0)
(-0.00913289 0.00970917 0)
(-0.00327255 0.00802594 0)
(0.00533315 -0.0105766 0)
(0.00977626 -0.0393477 0)
(0.00682597 -0.0721715 0)
(-0.00342454 -0.102021 0)
(-0.0169942 -0.125061 0)
(-0.0289336 -0.142529 0)
(-0.0354118 -0.158058 0)
(-0.035958 -0.171921 0)
(-0.0356474 -0.189087 0)
(-0.0406586 -0.202636 0)
(-0.0515769 -0.213378 0)
(-0.0648028 -0.219858 0)
(-0.0788326 -0.222215 0)
(-0.0929186 -0.220453 0)
(-0.106177 -0.214585 0)
(-0.117108 -0.204858 0)
(-0.12376 -0.192777 0)
(-0.12678 -0.182474 0)
(-0.123773 -0.175408 0)
(-0.124572 -0.16892 0)
(-0.00757642 0.00571617 0)
(-0.0118375 0.0114626 0)
(-0.0116018 0.00377263 0)
(-0.00939971 -0.0142216 0)
(-0.00920866 -0.0387511 0)
(-0.0132535 -0.0660127 0)
(-0.021515 -0.0919219 0)
(-0.031833 -0.114381 0)
(-0.0418617 -0.133972 0)
(-0.050493 -0.152789 0)
(-0.0579353 -0.170134 0)
(-0.0657129 -0.184686 0)
(-0.0757777 -0.194163 0)
(-0.0885491 -0.201232 0)
(-0.103456 -0.206262 0)
(-0.11882 -0.208135 0)
(-0.13402 -0.20681 0)
(-0.148362 -0.202183 0)
(-0.16088 -0.194532 0)
(-0.170897 -0.184509 0)
(-0.180382 -0.173908 0)
(-0.18424 -0.165368 0)
(-0.189865 -0.158231 0)
(-0.0122082 0.0177547 0)
(-0.0162496 0.0157824 0)
(-0.0196397 0.0043433 0)
(-0.0213653 -0.0136668 0)
(-0.0238856 -0.0358764 0)
(-0.0287874 -0.0598812 0)
(-0.0362531 -0.083323 0)
(-0.0453501 -0.104884 0)
(-0.0550039 -0.124572 0)
(-0.0649479 -0.142934 0)
(-0.0758943 -0.159969 0)
(-0.0881914 -0.173684 0)
(-0.101308 -0.181547 0)
(-0.115567 -0.18708 0)
(-0.130668 -0.191042 0)
(-0.146267 -0.192816 0)
(-0.161875 -0.192071 0)
(-0.176974 -0.188675 0)
(-0.191132 -0.182761 0)
(-0.20385 -0.17475 0)
(-0.216953 -0.165329 0)
(-0.224421 -0.15589 0)
(-0.232504 -0.146582 0)
(-0.0142259 0.0326641 0)
(-0.0192473 0.0228522 0)
(-0.0250558 0.00810593 0)
(-0.0292769 -0.0104548 0)
(-0.0336049 -0.0314782 0)
(-0.0392958 -0.0535216 0)
(-0.0467071 -0.0751717 0)
(-0.0555265 -0.095556 0)
(-0.0654061 -0.114398 0)
(-0.0763627 -0.13168 0)
(-0.088685 -0.146969 0)
(-0.102592 -0.15924 0)
(-0.117419 -0.167053 0)
(-0.132254 -0.172176 0)
(-0.147401 -0.175572 0)
(-0.163003 -0.177131 0)
(-0.178677 -0.17655 0)
(-0.194211 -0.1737 0)
(-0.209224 -0.168585 0)
(-0.223315 -0.161392 0)
(-0.238183 -0.152649 0)
(-0.247093 -0.14316 0)
(-0.256239 -0.132963 0)
(-0.013835 0.0478713 0)
(-0.0197466 0.0315409 0)
(-0.0269122 0.0139065 0)
(-0.0326584 -0.00549509 0)
(-0.0381962 -0.0259563 0)
(-0.044556 -0.046717 0)
(-0.0521816 -0.0669472 0)
(-0.0610945 -0.0860438 0)
(-0.071217 -0.103698 0)
(-0.0826365 -0.119641 0)
(-0.0955274 -0.133413 0)
(-0.109725 -0.144354 0)
(-0.124565 -0.151908 0)
(-0.139577 -0.157023 0)
(-0.154719 -0.160179 0)
(-0.170051 -0.161477 0)
(-0.185537 -0.160901 0)
(-0.200967 -0.158294 0)
(-0.216088 -0.153628 0)
(-0.230535 -0.14702 0)
(-0.245685 -0.138839 0)
(-0.255074 -0.129703 0)
(-0.264537 -0.119223 0)
(-0.0118034 0.0620591 0)
(-0.0177137 0.0406908 0)
(-0.0252178 0.0207278 0)
(-0.031641 0.0005196 0)
(-0.0378595 -0.0196597 0)
(-0.0446555 -0.0394896 0)
(-0.052479 -0.0585248 0)
(-0.0614758 -0.0763684 0)
(-0.0716871 -0.0927329 0)
(-0.083161 -0.107356 0)
(-0.0959084 -0.119857 0)
(-0.109739 -0.129797 0)
(-0.124171 -0.137031 0)
(-0.138804 -0.142011 0)
(-0.153574 -0.144997 0)
(-0.168458 -0.146205 0)
(-0.183393 -0.145617 0)
(-0.198298 -0.143185 0)
(-0.212944 -0.138879 0)
(-0.226939 -0.132775 0)
(-0.241694 -0.125195 0)
(-0.250797 -0.11657 0)
(-0.259809 -0.106167 0)
(-0.00856704 0.0737889 0)
(-0.0135603 0.0490963 0)
(-0.0204255 0.0276199 0)
(-0.0267358 0.00694222 0)
(-0.0331365 -0.0129836 0)
(-0.0400566 -0.0320373 0)
(-0.0478998 -0.050022 0)
(-0.0568182 -0.0667029 0)
(-0.0668706 -0.0818613 0)
(-0.0780697 -0.0952742 0)
(-0.090355 -0.106686 0)
(-0.103518 -0.115856 0)
(-0.117215 -0.12271 0)
(-0.13117 -0.12748 0)
(-0.145254 -0.130396 0)
(-0.159396 -0.131565 0)
(-0.17353 -0.131039 0)
(-0.18758 -0.128807 0)
(-0.201358 -0.124856 0)
(-0.214552 -0.119263 0)
(-0.228307 -0.112291 0)
(-0.236838 -0.104257 0)
(-0.245192 -0.0942493 0)
(-0.00453191 0.0817317 0)
(-0.00782587 0.0557226 0)
(-0.0133048 0.033756 0)
(-0.0188161 0.013142 0)
(-0.0248887 -0.00636148 0)
(-0.0315784 -0.0246508 0)
(-0.0391803 -0.041661 0)
(-0.0477938 -0.0572749 0)
(-0.0574507 -0.0713476 0)
(-0.0681252 -0.0837204 0)
(-0.0797229 -0.0942247 0)
(-0.0920556 -0.102726 0)
(-0.104866 -0.109208 0)
(-0.11793 -0.113794 0)
(-0.131109 -0.11663 0)
(-0.144308 -0.117817 0)
(-0.157449 -0.117405 0)
(-0.170462 -0.11541 0)
(-0.183183 -0.111837 0)
(-0.195278 -0.106756 0)
(-0.207943 -0.100392 0)
(-0.215642 -0.092993 0)
(-0.222939 -0.0836146 0)
(-0.000126125 0.0850909 0)
(-0.00127713 0.0597703 0)
(-0.00480803 0.0384515 0)
(-0.00900289 0.0185245 0)
(-0.0142277 -0.000229539 0)
(-0.0203255 -0.0176613 0)
(-0.0273846 -0.0337102 0)
(-0.0354436 -0.0483221 0)
(-0.0444822 -0.0614109 0)
(-0.0544377 -0.0728759 0)
(-0.0651965 -0.082613 0)
(-0.0765877 -0.0905489 0)
(-0.0884049 -0.0966818 0)
(-0.100461 -0.10109 0)
(-0.112617 -0.103872 0)
(-0.124765 -0.105109 0)
(-0.136821 -0.104852 0)
(-0.148713 -0.103124 0)
(-0.160291 -0.0999454 0)
(-0.171295 -0.0953727 0)
(-0.182678 -0.0896148 0)
(-0.189591 -0.0828498 0)
(-0.196009 -0.0742666 0)
(0.0037779 0.0832703 0)
(0.00513373 0.0609369 0)
(0.00395271 0.0412833 0)
(0.00148232 0.0226229 0)
(-0.00243981 0.00497876 0)
(-0.00759026 -0.0114248 0)
(-0.0137982 -0.0264512 0)
(-0.0210469 -0.0400761 0)
(-0.0292562 -0.0522466 0)
(-0.038328 -0.0628935 0)
(-0.0481297 -0.0719529 0)
(-0.0585003 -0.0793873 0)
(-0.0692626 -0.0852018 0)
(-0.0802517 -0.0894479 0)
(-0.0913311 -0.0921942 0)
(-0.10239 -0.0935039 0)
(-0.113338 -0.093423 0)
(-0.124109 -0.091981 0)
(-0.134563 -0.0892007 0)
(-0.144424 -0.085135 0)
(-0.15468 -0.0799657 0)
(-0.16076 -0.0738509 0)
(-0.166232 -0.0661152 0)
(0.00684149 0.0769441 0)
(0.0105576 0.0590639 0)
(0.0118708 0.0419027 0)
(0.011357 0.0250482 0)
(0.00906402 0.0089045 0)
(0.00522116 -0.00626335 0)
(0.000187372 -0.0201804 0)
(-0.00599661 -0.0327881 0)
(-0.0131821 -0.0440364 0)
(-0.021219 -0.0539006 0)
(-0.0299593 -0.0623317 0)
(-0.0392457 -0.0693009 0)
(-0.0489127 -0.074812 0)
(-0.0588076 -0.0789001 0)
(-0.0687977 -0.0816141 0)
(-0.0787705 -0.0830019 0)
(-0.0886356 -0.0831031 0)
(-0.0983212 -0.0819476 0)
(-0.107697 -0.0795584 0)
(-0.116557 -0.0759892 0)
(-0.125655 -0.0713942 0)
(-0.131056 -0.0658985 0)
(-0.135878 -0.0590356 0)
(0.00876918 0.067287 0)
(0.0145224 0.0543925 0)
(0.0181537 0.0402376 0)
(0.019651 0.0255684 0)
(0.0191446 0.011196 0)
(0.0168419 -0.00250214 0)
(0.0131791 -0.015141 0)
(0.00827724 -0.0266405 0)
(0.002334 -0.0369589 0)
(-0.00451552 -0.0460443 0)
(-0.0120994 -0.0538364 0)
(-0.0202398 -0.0603331 0)
(-0.0287756 -0.0655342 0)
(-0.0375615 -0.0694558 0)
(-0.0464657 -0.0721254 0)
(-0.0553733 -0.0735782 0)
(-0.0641913 -0.0738475 0)
(-0.0728513 -0.072961 0)
(-0.0812339 -0.070942 0)
(-0.0891079 -0.0678379 0)
(-0.0972539 -0.0637732 0)
(-0.102003 -0.0588815 0)
(-0.106088 -0.0528346 0)
(0.00957938 0.0555774 0)
(0.0168305 0.0474695 0)
(0.0224079 0.0364648 0)
(0.0257494 0.0241805 0)
(0.0269941 0.0117593 0)
(0.0263243 -0.000296891 0)
(0.0241559 -0.0115439 0)
(0.0206571 -0.0218549 0)
(0.0160372 -0.0311586 0)
(0.010479 -0.0394017 0)
(0.00416391 -0.0465451 0)
(-0.00275322 -0.0525569 0)
(-0.0101196 -0.0574093 0)
(-0.0177802 -0.0611174 0)
(-0.0255986 -0.0637079 0)
(-0.0334607 -0.0651984 0)
(-0.0412721 -0.0656069 0)
(-0.0489579 -0.0649562 0)
(-0.0564027 -0.0632686 0)
(-0.0634292 -0.0605823 0)
(-0.0706208 -0.0570131 0)
(-0.0748405 -0.0526563 0)
(-0.0784744 -0.0473797 0)
(0.00952086 0.043043 0)
(0.0176876 0.0390028 0)
(0.0246257 0.0309689 0)
(0.029471 0.0210673 0)
(0.0322608 0.0106491 0)
(0.03314 0.000325678 0)
(0.0324521 -0.00943737 0)
(0.0303808 -0.0184854 0)
(0.0271369 -0.0267286 0)
(0.0229086 -0.0340924 0)
(0.0178722 -0.0405197 0)
(0.012193 -0.0459764 0)
(0.00602915 -0.0504434 0)
(-0.000471898 -0.0539147 0)
(-0.00720018 -0.0563779 0)
(-0.0140312 -0.0578422 0)
(-0.0208592 -0.0583366 0)
(-0.0276138 -0.057874 0)
(-0.0341827 -0.0564706 0)
(-0.0403682 -0.0541552 0)
(-0.0467695 -0.0510231 0)
(-0.0504512 -0.0471752 0)
(-0.0535879 -0.0425566 0)
(0.00895317 0.0306176 0)
(0.0174441 0.0297304 0)
(0.0251652 0.0242822 0)
(0.0310618 0.0165845 0)
(0.0350517 0.00809769 0)
(0.0372441 -0.000507572 0)
(0.0378874 -0.00876482 0)
(0.0371513 -0.016518 0)
(0.0352304 -0.0236583 0)
(0.0323 -0.0300995 0)
(0.028527 -0.035776 0)
(0.0240702 -0.0406401 0)
(0.0190796 -0.0446578 0)
(0.0136945 -0.0478082 0)
(0.00804129 -0.0500869 0)
(0.00223806 -0.0514967 0)
(-0.00362534 -0.0520307 0)
(-0.0094755 -0.0516918 0)
(-0.0151987 -0.0505007 0)
(-0.0206415 -0.0484951 0)
(-0.0262375 -0.0457541 0)
(-0.0294367 -0.042365 0)
(-0.0322858 -0.0382864 0)
(0.00813843 0.0188674 0)
(0.0165404 0.0202877 0)
(0.0245033 0.0169606 0)
(0.0309786 0.0111737 0)
(0.0357887 0.00444685 0)
(0.0389757 -0.00253119 0)
(0.0406993 -0.00933984 0)
(0.0411083 -0.0158231 0)
(0.0403649 -0.0218621 0)
(0.0386202 -0.0273635 0)
(0.0360229 -0.0322563 0)
(0.0327179 -0.0364866 0)
(0.0288433 -0.0400131 0)
(0.0245305 -0.0428052 0)
(0.0199008 -0.0448417 0)
(0.015065 -0.046111 0)
(0.0101162 -0.0466115 0)
(0.00512944 -0.0463468 0)
(0.000208124 -0.045327 0)
(-0.00448741 -0.0435658 0)
(-0.00941404 -0.0411423 0)
(-0.0120599 -0.0381601 0)
(-0.0144641 -0.0345058 0)
(0.00724651 0.00808302 0)
(0.0152558 0.011088 0)
(0.0230951 0.00943268 0)
(0.0297575 0.00525827 0)
(0.0350264 6.97464e-05 0)
(0.0388717 -0.005429 0)
(0.0413877 -0.0109041 0)
(0.0426954 -0.0161895 0)
(0.0429178 -0.0211665 0)
(0.0421787 -0.025744 0)
(0.0406059 -0.0298503 0)
(0.0383262 -0.0334278 0)
(0.0354633 -0.03643 0)
(0.0321349 -0.0388198 0)
(0.0284528 -0.0405692 0)
(0.02452 -0.0416579 0)
(0.0204256 -0.0420729 0)
(0.0162428 -0.0418082 0)
(0.012072 -0.0408674 0)
(0.00801796 -0.0392685 0)
(0.00376023 -0.0370622 0)
(0.00165162 -0.03433 0)
(-0.000452978 -0.0313423 0)
(0.00630662 -0.00163484 0)
(0.0138075 0.00240918 0)
(0.0212736 0.00202833 0)
(0.0278543 -0.000834401 0)
(0.0332859 -0.00469239 0)
(0.0374946 -0.00890268 0)
(0.0405291 -0.0131814 0)
(0.0424745 -0.0173667 0)
(0.0434217 -0.0213496 0)
(0.0434717 -0.0250466 0)
(0.0427313 -0.0283897 0)
(0.0413096 -0.0313207 0)
(0.0393135 -0.03379 0)
(0.0368463 -0.0357557 0)
(0.0340069 -0.0371839 0)
(0.0308879 -0.0380484 0)
(0.0275716 -0.0383305 0)
(0.0241238 -0.0380193 0)
(0.0206378 -0.0371107 0)
(0.0172528 -0.035616 0)
(0.0136074 -0.0335469 0)
(0.0117106 -0.0310089 0)
(0.00984961 -0.0285495 0)
(0.00541253 -0.0103506 0)
(0.0123334 -0.0056612 0)
(0.0193214 -0.00504769 0)
(0.0256301 -0.00683793 0)
(0.0310052 -0.00957851 0)
(0.0353343 -0.0126885 0)
(0.0386388 -0.0159083 0)
(0.0409725 -0.0191004 0)
(0.042406 -0.0221734 0)
(0.0430222 -0.0250545 0)
(0.0429109 -0.02768 0)
(0.0421634 -0.0299928 0)
(0.0408705 -0.0319415 0)
(0.0391199 -0.0334812 0)
(0.0369968 -0.0345741 0)
(0.0345822 -0.0351896 0)
(0.0319478 -0.0353049 0)
(0.029155 -0.034905 0)
(0.0262894 -0.0339818 0)
(0.0234561 -0.0325463 0)
(0.0203915 -0.030625 0)
(0.0187193 -0.0282914 0)
(0.0169781 -0.0259848 0)
(0.00460775 -0.0180137 0)
(0.0109869 -0.0130087 0)
(0.0174113 -0.0116471 0)
(0.0233304 -0.0125851 0)
(0.0284794 -0.0144038 0)
(0.0327322 -0.0165617 0)
(0.0360892 -0.0188471 0)
(0.0385909 -0.0211545 0)
(0.040296 -0.0234115 0)
(0.0412745 -0.025555 0)
(0.0416007 -0.0275254 0)
(0.0413506 -0.0292658 0)
(0.0405987 -0.030724 0)
(0.0394179 -0.0318531 0)
(0.0378791 -0.0326127 0)
(0.0360509 -0.0329698 0)
(0.0339954 -0.0328988 0)
(0.0317644 -0.0323821 0)
(0.029431 -0.0314097 0)
(0.0271076 -0.0299888 0)
(0.0245125 -0.0281387 0)
(0.0230975 -0.0259505 0)
(0.0216252 -0.0237579 0)
(0.00397905 -0.0247124 0)
(0.00984886 -0.019614 0)
(0.0156835 -0.0177103 0)
(0.0210966 -0.0179627 0)
(0.025867 -0.0189929 0)
(0.0298666 -0.0203228 0)
(0.0330923 -0.0217921 0)
(0.0355792 -0.0233256 0)
(0.0373782 -0.0248671 0)
(0.0385475 -0.0263607 0)
(0.039148 -0.027749 0)
(0.0392404 -0.028975 0)
(0.0388844 -0.0299856 0)
(0.0381382 -0.0307324 0)
(0.0370597 -0.0311741 0)
(0.035705 -0.031276 0)
(0.0341254 -0.0310117 0)
(0.0323661 -0.0303612 0)
(0.0304916 -0.0293137 0)
(0.0285833 -0.02787 0)
(0.026431 -0.0260516 0)
(0.0252523 -0.0239263 0)
(0.0239255 -0.0218631 0)
(0.00359459 -0.0308346 0)
(0.00900073 -0.0255751 0)
(0.0141197 -0.0231604 0)
(0.018909 -0.0228264 0)
(0.0231646 -0.0231838 0)
(0.0267687 -0.0238062 0)
(0.029721 -0.0245787 0)
(0.0320541 -0.0254528 0)
(0.033811 -0.0263838 0)
(0.0350386 -0.0273206 0)
(0.0357839 -0.0282058 0)
(0.0360933 -0.0289824 0)
(0.0360124 -0.0295956 0)
(0.0355862 -0.0299974 0)
(0.03486 -0.0301455 0)
(0.0338789 -0.0300058 0)
(0.0326851 -0.0295508 0)
(0.0313143 -0.0287608 0)
(0.0298214 -0.0276228 0)
(0.0282903 -0.0261359 0)
(0.0265076 -0.024316 0)
(0.0255374 -0.0222317 0)
(0.0244374 -0.0202645 0)
(0.00344979 -0.0365581 0)
(0.00825145 -0.0308071 0)
(0.0125796 -0.0278668 0)
(0.0166437 -0.0270458 0)
(0.0202775 -0.02685 0)
(0.0233833 -0.0268887 0)
(0.0259634 -0.0270872 0)
(0.0280461 -0.0274184 0)
(0.0296649 -0.0278462 0)
(0.0308542 -0.0283207 0)
(0.0316474 -0.028784 0)
(0.0320772 -0.0291782 0)
(0.0321763 -0.0294486 0)
(0.0319776 -0.0295472 0)
(0.0315155 -0.0294325 0)
(0.0308252 -0.0290713 0)
(0.0299396 -0.0284369 0)
(0.028889 -0.0275103 0)
(0.0277219 -0.0262769 0)
(0.026493 -0.0247382 0)
(0.0250562 -0.0229046 0)
(0.0242778 -0.0208366 0)
(0.0233017 -0.0189596 0)
(0.00338345 -0.0419001 0)
(0.00739005 -0.0351973 0)
(0.0108143 -0.0317505 0)
(0.0141034 -0.0305537 0)