/*--------------------------------*- C++ -*----------------------------------*\
  =========                 |
  \\      /  F ield         | OpenFOAM: The Open Source CFD Toolbox
   \\    /   O peration     | Website:  https://openfoam.org
    \\  /    A nd           | Version:  13
     \\/     M anipulation  |
\*---------------------------------------------------------------------------*/
FoamFile
{
    format      ascii;
    class       volScalarField;
    location    "1.15";
    object      alpha.air;
}
// * * * * * * * * * * * * * * * * * * * * * * * * * * * * * * * * * * * * * //

dimensions      [];

internalField   nonuniform List<scalar> 
2268
(
3.45437e-14
1.86007e-14
5.38719e-15
1.65462e-15
3.99921e-16
2.20765e-16
2.67707e-16
4.92709e-16
7.72748e-16
9.29804e-16
7.87817e-16
5.89554e-16
5.76085e-16
6.0594e-16
6.86604e-16
8.20589e-16
1.11602e-15
3.56733e-15
1.12808e-14
3.75639e-14
4.33444e-14
5.16427e-15
1.04896e-15
1.89618e-13
5.88238e-14
1.22403e-14
5.13438e-15
3.31967e-15
3.42229e-15
4.79418e-15
7.74701e-15
1.05668e-14
1.2339e-14
1.04378e-14
9.59037e-15
1.05407e-14
1.16727e-14
1.20816e-14
1.36805e-14
1.56107e-14
6.1584e-14
2.24238e-13
4.71564e-13
8.24005e-13
5.14304e-13
3.3703e-14
8.82032e-13
2.28473e-13
4.25611e-14
2.31755e-14
1.87704e-14
2.17408e-14
3.80044e-14
6.35579e-14
8.73299e-14
9.6255e-14
8.04402e-14
7.74025e-14
8.7028e-14
9.01401e-14
8.95296e-14
1.22032e-13
8.22755e-14
3.72038e-13
1.17102e-12
2.55913e-12
3.67861e-12
4.79396e-12
1.31057e-12
2.72372e-12
8.48179e-13
2.0236e-13
1.34825e-13
1.29903e-13
1.87622e-13
3.02089e-13
4.36882e-13
4.49292e-13
3.80483e-13
3.67393e-13
5.11872e-13
8.15738e-13
8.49643e-13
4.81007e-13
3.48843e-13
1.34427e-13
4.86619e-13
1.52534e-12
1.53277e-12
4.44537e-12
7.91126e-12
1.23095e-11
7.24922e-12
3.93553e-12
2.28332e-12
2.01921e-12
1.66277e-12
1.68026e-12
1.83702e-12
1.79703e-12
1.56207e-12
1.41279e-12
1.8677e-12
4.01569e-12
1.2289e-11
1.7375e-11
5.95279e-14
5.95435e-14
5.98086e-14
6.03067e-14
6.02192e-14
1.8547e-07
6.02192e-14
6.1051e-14
6.02192e-14
1.23036e-11
1.07955e-11
9.64604e-12
8.10382e-12
7.51391e-12
7.92197e-12
7.66357e-12
7.86104e-12
9.27288e-12
1.38242e-11
2.88136e-11
6.84322e-11
1.8744e-10
5.16704e-10
1.8522e-09
1.56746e-08
2.0006e-07
2.53339e-06
3.69784e-05
0.000552104
0.00334302
0.0156203
0.0341284
2.15636e-11
1.96404e-11
1.84785e-11
1.71339e-11
1.73764e-11
1.94231e-11
2.06065e-11
2.74368e-11
4.90644e-11
8.96533e-11
1.65431e-10
3.26671e-10
7.08562e-10
1.98139e-09
1.14952e-08
1.01529e-07
1.28937e-06
1.83359e-05
0.000229319
0.00119863
0.041761
0.127771
0.176545
7.59544e-11
4.03444e-11
3.10138e-11
3.22884e-11
3.39805e-11
4.03181e-11
5.86239e-11
9.58852e-11
1.54784e-10
2.34386e-10
3.61678e-10
5.7849e-10
7.94192e-10
2.24303e-09
6.97264e-09
7.27699e-09
5.61709e-07
2.18782e-06
2.10256e-06
0.0652286
0.22514
0.233762
0.233674
0.0519508
0.0580009
0.00898939
1.19616e-10
1.18226e-10
1.19679e-10
2.72557e-06
0.028855
0.111915
0.147237
0.145377
0.165234
0.186898
0.158309
0.114238
0.0212345
0.00683115
0.00864166
0.0172786
0.0805942
0.105047
0.0959101
0.00482091
3.40339e-09
0.000307255
0.00088401
0.000441122
2.65249e-05
-1.14366e-05
3.46215e-07
0.0377339
0.216047
0.281261
0.191634
0.125879
0.0480464
0.0274099
0.002857
0.0519341
0.0990749
0.0973859
0.0380646
2.16534e-10
1.57881e-05
2.21425e-05
-1.62028e-07
-5.93786e-07
0.000126704
0.00513572
0.00977264
0.257439
0.498567
0.49852
0.498851
0.444914
0.145967
0.0157629
0.0202237
0.0148953
0.0182136
0.0250305
0.00164254
1.44023e-07
-5.14042e-08
-1.43853e-06
-2.9101e-06
-4.79432e-19
0.0555409
0.194902
0.27159
0.425616
0.462799
0.497138
0.497528
0.322306
0.0468912
0.000496957
5.64142e-05
0.00103582
2.71017e-05
0.00136189
0.000262111
4.50814e-11
4.92109e-07
2.1002e-12
0.0819629
0.525537
0.556346
0.439672
0.324856
0.324445
0.321494
0.189862
0.094415
0.0449136
0.000679064
6.47219e-05
0.000181339
1.56638e-05
6.73496e-06
5.24329e-05
1.21177e-05
9.75386e-06
-3.99704e-07
0.219169
0.557407
0.557169
0.557384
0.469267
0.241924
0.0510765
0.00109558
0.0011866
0.071821
0.00611116
0.0470211
6.23029e-05
4.28145e-05
5.60383e-06
5.77056e-06
5.86372e-06
8.17297e-06
-5.06362e-08
0.13071
0.465502
0.53806
0.485163
0.281763
0.16375
0.0744136
0.019115
0.00107774
0.164588
0.0919659
0.30026
0.0363279
0.000463471
8.05844e-05
5.61652e-05
3.79206e-05
8.98623e-06
5.69888e-05
0.00358333
0.0118501
0.0535383
0.00275166
0
1.81606e-10
5.71469e-09
0.00109716
0.00132753
0.251104
2.72718e-10
1.90542e-10
1.42937e-10
1.36017e-10
1.20923e-10
1.32456e-10
1.85388e-10
2.57019e-10
3.33027e-10
3.96235e-10
5.49104e-10
9.84015e-10
1.81807e-09
1.87856e-09
1.68572e-08
6.47164e-08
6.80127e-08
7.40184e-08
0.0484865
0.207874
0.213052
0.201146
0.0977534
4.21695e-10
3.65236e-10
3.40796e-10
3.73159e-10
4.21489e-10
4.65722e-10
5.24861e-10
5.87679e-10
6.37666e-10
6.92342e-10
9.46197e-10
2.77428e-09
6.68946e-09
7.14764e-09
7.51597e-09
1.27293e-08
0.010029
0.228093
0.253686
0.170749
0.00107941
0.00755885
0.000737768
5.23827e-10
5.21227e-10
5.56759e-10
6.17329e-10
6.86992e-10
7.78924e-10
9.23194e-10
1.07814e-09
1.10808e-09
1.03004e-09
1.11547e-09
1.185e-09
1.15541e-09
1.03254e-08
0.0339683
0.267006
0.287899
0.178115
0.0728402
0.0193534
5.18868e-07
2.66863e-08
-8.45834e-09
5.41032e-10
5.49243e-10
5.67372e-10
5.91593e-10
5.85245e-10
6.10247e-10
4.46237e-10
3.82089e-10
1.70318e-10
-3.1384e-12
-3.02902e-27
8.05876e-10
0.0990775
0.299377
0.313737
0.195677
0.145204
0.0175834
7.55038e-06
1.75494e-08
5.81465e-07
2.63365e-09
1.47354e-06
4.91688e-10
4.70976e-10
4.40568e-10
4.42134e-10
6.07703e-10
4.76487e-10
4.23022e-18
5.53449e-21
4.54848e-18
1.56739e-08
0.164828
0.308377
0.329509
0.278421
0.159668
0.00547173
0.000101971
8.8212e-06
7.75265e-06
1.06631e-08
1.2749e-07
1.85513e-08
1.38613e-07
3.60363e-10
3.26645e-10
3.23172e-10
6.91866e-10
4.25993e-08
6.16017e-09
0.000932916
0.012137
0.201429
0.325052
0.337346
0.303987
0.149745
0.0228636
0.000346812
1.52993e-05
1.49548e-05
9.84412e-06
4.0267e-06
1.22777e-08
1.04717e-08
1.39708e-08
2.00401e-08
1.7116e-10
1.48254e-10
1.55869e-10
5.12909e-08
3.3651e-06
0.0161874
0.147419
0.298178
0.30252
0.305512
0.111078
0.0318116
2.0739e-05
1.87696e-07
7.05656e-06
1.48153e-05
1.45263e-05
5.22884e-07
8.02588e-08
2.28408e-08
9.14448e-09
1.79242e-08
1.98156e-08
1.33245e-10
9.80465e-11
8.99509e-11
3.46571e-06
0.00864867
0.12855
0.265184
0.26124
0.0708362
0.0240583
1.24065e-05
1.29819e-08
1.60275e-08
1.94072e-07
4.38274e-06
7.92048e-06
2.39513e-06
8.64752e-08
4.68685e-08
2.79659e-08
4.34405e-07
5.91818e-07
9.36848e-07
3.32812e-09
7.16591e-09
1.58374e-05
0.0075319
0.0770089
0.0768672
0.0532249
0.00667475
4.22614e-06
2.80579e-07
2.50083e-09
1.55659e-08
2.48702e-08
1.22147e-07
2.89321e-07
4.07048e-07
5.79515e-07
1.01117e-06
0.0563112
0.143028
0.310407
0.594656
0.683728
1.0934e-07
0.0114312
0.140785
0.245788
0.0442676
2.53651e-05
3.83767e-06
1.69704e-06
2.91678e-09
2.46947e-09
2.5632e-09
4.74196e-09
1.70962e-08
7.245e-07
0.0549527
0.16783
0.333169
0.575195
0.79198
0.889675
0.95887
0.999996
0.999996
0.0448934
0.50185
0.7776
0.49431
0.011152
0.0122589
0.00937683
0.0156836
0.0970836
0.166063
0.236528
0.335526
0.465115
0.629943
0.790884
0.903464
0.972119
0.999995
0.999996
0.999996
0.999997
0.999999
0.999999
0.736321
0.947158
0.998852
0.861635
0.698992
0.643811
0.65906
0.803588
0.868122
0.905211
0.94164
0.974546
0.994666
0.999997
0.999997
0.999997
0.999997
1
1
1
0.999999
0.999999
0.999998
1
0.999994
0.999975
1
1
1
1
0.999999
0.999999
0.999998
0.999998
0.999997
0.999998
1
1
1
1
1
1
1
0.999999
0.999999
0.999998
1
0.999996
0.99998
1
1
1
1
1
1
1
1
0.999997
0.999995
0.999999
0.999998
0.999999
1
1
1
1
1
0.999999
0.999999
1
1
0.999999
1
1
1
1
1
1
1
1
1
0.999977
0.999898
0.999928
0.999997
0.999997
0.999999
0.999999
0.999999
0.999999
0.999999
1
1
1
1
1
1
1
1
1
1
1
1
1
0.999999
0.999879
0.999806
0.999814
0.999889
0.999996
0.999996
0.999996
0.999996
0.999996
0.999996
1
1
1
1
1
1
1
1
1
1
1
1
1
0.999994
0.999919
0.999811
0.999813
0.999818
0.999946
0.999998
0.999998
0.999998
0.999997
1
1
1
1
1
1
1
1
1
1
1
1
1
1
1
0.999989
0.999946
0.999927
0.999922
0.999975
1
1
0.999999
1
1
1
1
1
1
1
1
1
1
1
1
1
1
1
1
1
1
0.999998
0.999993
0.999997
1
1
1
1
1
1
1
1
1
1
1
1
1
1
1
1
1
1
1
1
1
1
1
1
1
1
1
1
1
1
1
1
1
1
1
1
1
1
1
1
1
1
1
1
1
1
1
1
1
1
1
1
1
1
1
1
1
1
1
1
1
1
1
1
1
1
1
1
1
1
1
1
1
1
1
1
1
1
1
1
1
1
1
1
1
1
1
1
1
1
1
1
1
1
1
1
1
1
1
1
1
1
1
1
1
1
1
1
1
1
1
1
1
1
1
1
1
1
1
1
1
1
1
1
1
1
1
1
1
1
1
1
1
1
1
1
1
1
1
1
1
1
1
1
1
1
1
1
1
1
1
1
1
1
1
1
1
1
1
1
1
1
1
1
1
1
1
1
1
1
1
1
1
1
1
1
1
1
1
1
1
1
1
1
1
1
1
1
1
1
1
1
1
1
1
1
1
1
1
1
1
1
1
1
1
1
1
1
1
1
1
1
1
1
1
1
1
1
1
1
1
1
1
1
1
1
1
1
1
1
1
1
1
1
1
1
1
1
1
1
1
1
1
1
1
1
1
1
1
1
1
1
1
1
1
1
1
1
1
1
1
1
1
1
1
1
1
1
1
1
1
1
1
1
1
1
1
1
1
1
1
1
1
1
1
1
1
1
1
1
1
1
1
1
1
1
1
1
1
1
1
1
1
1
1
1
1
1
1
1
1
1
1
1
1
1
1
1
1
1
1
1
1
1
1
1
1
1
1
1
1
1
1
1
1
1
1
1
1
1
1
1
1
1
1
1
1
1
1
1
1
1
1
1
1
1
1
1
1
1
1
1
1
1
1
1
1
1
1
1
1
1
1
1
1
1
1
1
1
1
1
1
1
1
1
1
1
1
1
1
1
1
1
1
1
1
1
1
1
1
1
1
1
1
1
1
1
1
1
1
1
1
1
1
1
1
1
1
1
1
1
1
1
1
1
1
1
1
1
1
1
1
1
1
1
1
1
1
1
1
1
1
1
1
1
1
1
1
1
1
1
1
1
1
1
1
1
1
1
1
1
1
1
1
1
1
1
1
1
1
1
1
1
1
1
1
1
1
1
1
1
1
1
1
1
1
1
1
1
1
1
1
1
1
1
1
1
1
1
1
1
1
1
1
1
1
1
1
1
1
1
1
1
1
1
1
1
1
1
1
1
1
1
1
1
1
1
1
1
1
1
-2.1572e-18
-3.25039e-20
0.100139
0.332785
1.80824e-17
5.21579e-19
0.0301265
0.11008
1.07352e-05
0.000286642
0.000982732
1.59846e-07
8.99886e-06
1.6333e-05
2.76185e-07
3.47288e-08
3.6262e-08
2.25321e-07
7.81252e-08
3.00363e-07
3.11928e-08
3.03345e-08
1.54933e-07
2.13802e-07
6.43887e-08
1.14519e-07
1.42427e-07
2.34311e-07
7.63404e-07
0.0505388
0.136165
0.146283
0.60747
0.760569
0.868859
0.881388
0.999995
0.999999
0.999999
0.999999
0.999999
0.999999
0.999999
0.999999
0.999998
0.999998
0.999998
0.999998
0.999998
0.999998
0.999998
0.999998
0.999999
0.999999
0.999999
0.999999
1
1
1
1
0.999997
0.999999
1
1
0.999996
0.999999
1
1
0.999999
1
1
1
1
1
1
1
1
1
1
1
1
1
1
1
1
1
1
1
1
1
1
1
1
1
1
1
1
1
1
1
1
1
1
1
1
1
1
1
1
1
1
1
1
1
1
1
1
1
1
1
1
1
1
1
1
1
1
1
1
1
1
1
1
1
1
1
1
1
1
1
1
1
1
1
1
1
1
1
1
1
1
1
1
1
1
1
1
1
1
1
1
1
1
1
1
1
1
1
0.338383
0.332785
0.163215
0.027086
0.00986323
0.00167344
0.000159599
1.11567e-05
0.000289147
0.000646233
3.35323e-12
1.14068e-09
-4.17466e-23
1.33662e-08
4.9264e-05
0.000343346
0.00221705
0.00137322
0.294391
0.143578
0.0358023
0.0274246
0.0176585
0.0147217
0.00891505
0.00190738
2.0015e-05
0.00010765
0.000255228
6.08567e-05
1.63731e-05
0.000234328
0.000578521
0.00150786
0.00236842
0.00473971
0.0688271
0.430566
-1.15761e-09
3.10829e-08
4.44696e-08
1.58936e-06
0.0020057
0.0024123
0.00138206
0.000520762
0.000125493
4.50191e-05
0.000277431
0.000754073
0.000847779
0.00109826
0.00139732
0.00187847
0.00121549
0.132443
0.448317
3.11969e-08
1.15254e-07
1.91796e-08
6.58991e-12
-2.69609e-20
6.58991e-12
2.32329e-23
8.91119e-06
5.42722e-06
4.70332e-08
5.76319e-05
0.000918982
0.000543294
0.000624661
0.0124531
0.00725239
0.00128575
0.107475
0.44814
8.15504e-07
9.95512e-07
9.45194e-07
2.45173e-07
4.09035e-13
1.7779e-12
1.09721e-13
3.56332e-18
-7.62763e-08
-4.63592e-10
0.000733822
0.0717614
0.240588
0.457174
0.577196
0.497994
0.236117
0.108161
0.15947
4.59966e-07
6.12928e-07
6.75666e-07
1.96199e-07
5.77006e-18
4.14763e-13
3.30883e-19
4.07985e-12
0.0292341
0.173711
0.485044
0.792264
0.960071
0.999995
0.999966
0.985231
0.797315
0.62494
0.552351
3.13521e-07
2.33235e-07
9.84156e-08
1.05153e-08
-2.87681e-20
0.03979
0.151135
0.378199
0.692283
0.928946
0.999999
1
1
0.999998
0.999993
0.99401
0.993674
0.999716
0.999936
0.146746
0.191538
0.267641
0.401753
0.591001
0.775039
0.925019
1
1
0.999999
0.999989
0.99995
0.999996
0.999904
0.993558
0.99112
0.997479
0.999998
0.999998
0.895281
0.93452
0.972151
0.99636
1
1
1
1
1
0.999792
0.999072
0.998997
0.999878
0.999323
0.995824
0.996607
0.999999
0.999997
0.999997
0.999998
0.999998
0.999999
1
1
0.999999
0.999999
0.999999
0.999996
0.999225
0.998691
0.998747
0.999881
0.999995
0.999975
0.999999
0.999999
0.999999
0.999998
0.999999
0.999999
1
1
1
0.999998
0.999996
0.999996
0.999975
0.999799
0.999773
1
1
1
1
1
1
1
0.999999
0.999998
0.999999
0.999999
1
1
0.999999
0.999996
0.999997
0.999999
1
1
1
1
1
1
0.999999
1
1
1
0.999998
0.999999
1
1
1
1
1
1
1
1
1
1
1
1
1
1
1
1
0.999998
1
1
1
1
1
1
1
1
1
1
1
1
1
1
1
1
1
1
0.999998
1
1
1
1
1
1
1
1
1
1
1
1
1
1
1
1
1
1
0.999998
1
1
1
1
1
1
1
1
1
1
1
1
1
1
1
1
1
1
0.999999
1
1
1
1
1
1
1
1
1
1
1
1
1
1
1
1
1
1
0.999999
1
1
1
1
1
1
1
1
1
1
1
1
1
1
1
1
1
1
0.999999
1
1
1
1
1
1
1
1
1
1
1
1
1
1
1
1
1
1
1
1
1
1
1
1
1
1
1
1
1
1
1
1
1
1
1
1
1
1
1
1
1
1
1
1
1
1
1
1
1
1
1
1
1
1
1
1
1
1
1
1
1
1
1
1
1
1
1
1
1
1
1
1
1
1
1
1
1
1
1
1
1
1
1
1
1
1
1
1
1
1
1
1
1
1
1
1
1
1
1
1
1
1
1
1
1
1
1
1
1
1
1
1
1
1
1
1
1
1
1
1
1
1
1
1
1
1
1
1
1
1
1
1
1
1
1
1
1
1
1
1
1
1
1
1
1
1
1
1
1
1
1
1
1
1
1
1
1
1
1
1
1
1
1
1
1
1
1
1
1
1
1
1
1
1
1
1
1
1
1
1
1
1
1
1
1
1
1
1
1
1
1
1
1
1
1
1
1
1
1
1
1
1
1
1
1
1
1
1
1
1
1
1
1
1
1
1
1
1
1
1
1
1
1
1
1
1
1
1
1
1
1
1
1
1
1
1
1
1
1
1
1
1
1
1
1
1
1
1
1
1
1
1
1
1
1
1
1
1
1
1
1
1
1
1
1
1
1
1
1
1
1
1
1
1
1
1
1
1
1
1
1
1
1
1
1
1
1
1
1
1
1
1
1
1
1
1
1
1
1
1
1
1
1
1
1
1
1
1
1
1
1
1
1
1
1
1
1
1
1
1
1
1
1
1
1
1
1
1
1
1
1
1
1
1
1
1
1
1
1
1
1
1
1
1
1
1
1
1
1
1
1
1
1
1
1
1
1
1
1
1
1
1
1
1
1
1
1
1
1
1
1
1
1
1
1
1
1
1
1
1
1
1
1
1
1
1
1
1
1
1
1
1
1
1
1
1
1
1
1
1
1
1
1
1
1
1
1
1
1
1
1
1
1
1
1
1
1
1
1
1
1
1
1
1
1
1
1
1
1
1
1
1
1
1
1
1
1
1
1
1
1
1
1
1
1
1
1
1
1
1
1
1
1
1
1
1
)
;

boundaryField
{
    leftWall
    {
        type            alphaContactAngle;
        contactAngleProperties 
        {
            mercury         
            {
                theta0          90;
            }
            water           
            {
                theta0          90;
            }
            oil             
            {
                theta0          90;
            }
        }
        value           nonuniform List<scalar> 
50
(
3.45437e-14
1.89618e-13
8.82032e-13
2.72372e-12
7.24922e-12
1.23036e-11
2.15636e-11
7.59544e-11
2.72718e-10
4.21695e-10
5.23827e-10
5.41032e-10
4.91688e-10
3.60363e-10
1.7116e-10
1.33245e-10
3.32812e-09
1.0934e-07
0.0448934
0.736321
1
1
1
1
1
1
1
1
1
1
1
1
1
1
1
1
1
1
1
1
1
1
1
1
1
1
1
1
1
1
)
;
    }
    rightWall
    {
        type            alphaContactAngle;
        contactAngleProperties 
        {
            mercury         
            {
                theta0          90;
            }
            water           
            {
                theta0          90;
            }
            oil             
            {
                theta0          90;
            }
        }
        value           nonuniform List<scalar> 
50
(
0.0172786
0.002857
0.0157629
0.0468912
0.0449136
0.071821
0.164588
0.251104
0.294391
0.430566
0.448317
0.44814
0.15947
0.552351
0.999936
0.999998
0.999997
0.999998
0.999999
1
0.999998
0.999998
0.999998
0.999999
0.999999
0.999999
1
1
1
1
1
1
1
1
1
1
1
1
1
1
1
1
1
1
1
1
1
1
1
1
)
;
    }
    lowerWall
    {
        type            alphaContactAngle;
        contactAngleProperties 
        {
            mercury         
            {
                theta0          90;
            }
            water           
            {
                theta0          90;
            }
            oil             
            {
                theta0          90;
            }
        }
        value           nonuniform List<scalar> 
62
(
3.45437e-14
1.86007e-14
5.38719e-15
1.65462e-15
3.99921e-16
2.20765e-16
2.67707e-16
4.92709e-16
7.72748e-16
9.29804e-16
7.87817e-16
5.89554e-16
5.76085e-16
6.0594e-16
6.86604e-16
8.20589e-16
1.11602e-15
3.56733e-15
1.12808e-14
3.75639e-14
4.33444e-14
5.16427e-15
1.04896e-15
1.04896e-15
3.3703e-14
1.31057e-12
1.23095e-11
6.02192e-14
0.0341284
0.176545
0.233674
-2.1572e-18
-3.25039e-20
0.100139
0.332785
0.0519508
0.0805942
0.0519341
0.0202237
0.000496957
0.000679064
0.00611116
0.0919659
0.0519508
0.0580009
0.00898939
1.19616e-10
1.18226e-10
1.19679e-10
2.72557e-06
0.028855
0.111915
0.147237
0.145377
0.165234
0.186898
0.158309
0.114238
0.0212345
0.00683115
0.00864166
0.0172786
)
;
    }
    atmosphere
    {
        type            inletOutlet;
        inletValue      uniform 1;
        value           nonuniform List<scalar> 
46
(
1
1
1
1
1
1
1
1
1
1
1
1
1
1
1
1
1
1
1
1
1
1
1
1
1
1
1
1
1
1
1
1
1
1
1
1
1
1
1
1
1
1
1
1
1
1
)
;
    }
    defaultFaces
    {
        type            empty;
    }
}


// ************************************************************************* //
