/*--------------------------------*- C++ -*----------------------------------*\
  =========                 |
  \\      /  F ield         | OpenFOAM: The Open Source CFD Toolbox
   \\    /   O peration     | Website:  https://openfoam.org
    \\  /    A nd           | Version:  13
     \\/     M anipulation  |
\*---------------------------------------------------------------------------*/
FoamFile
{
    format      ascii;
    class       volScalarField;
    location    "1.15";
    object      alpha.mercury;
}
// * * * * * * * * * * * * * * * * * * * * * * * * * * * * * * * * * * * * * //

dimensions      [];

internalField   nonuniform List<scalar> 
2268
(
1
1
1
1
1
1
1
1
1
1
1
1
1
1
1
1
1
1
1
1
0.999923
0.999459
0.999432
1
1
1
1
1
1
1
1
1
1
1
1
1
1
1
1
1
1
1
1
1
0.999893
0.999432
1
1
1
1
1
1
1
1
1
1
1
1
1
1
1
1
1
1
1
1
1
0.999999
0.99984
1
1
1
1
1
1
1
1
1
1
1
1
1
1
1
1
1
1
1
1
1
0.999998
0.999979
1
1
1
1
1
1
1
1
1
1
1
1
1
1
0.995995
0.980635
0.964889
0.948598
0.930753
0.912084
0.907336
0.923685
0.954789
1
1
1
1
1
1
1
1
1
1
0.929045
0.803398
0.661544
0.532745
0.43002
0.359723
0.306518
0.264004
0.225587
0.192077
0.199406
0.253461
0.286855
1
1
1
1
1
1
1
0.962122
0.750917
0.430332
0.198025
0.0753614
0.0245891
0.00563547
0.000297698
2.50273e-08
3.50234e-19
2.52813e-20
7.64578e-17
7.2451e-13
0.000160738
0.00129466
0.00184486
0.937528
0.986552
0.992863
0.975207
0.967286
0.919357
0.64137
0.248268
0.0441621
3.08379e-07
1.36776e-07
4.50922e-08
-6.09437e-20
7.70118e-16
-6.70919e-16
5.50158e-14
1.85339e-10
-2.06059e-13
2.50576e-07
0.0110185
0.0371795
0.0372793
0.0242332
0.0401298
0.0663832
0.148478
0.106075
0.0901783
0.254603
0.870465
0.865926
0.57037
0.40843
0.412821
0.404291
0.639802
0.690106
0.690107
0.690106
0.690107
0.67891
0.676967
0.0370741
0.183753
0.259558
0.222114
0.0900025
0.196523
0.856405
0.87048
0.865926
0.825257
0.752512
0.700206
0.593795
0.648605
0.682699
0.619395
0.577041
0.663917
0.666414
0.0582432
0.166746
0.249443
0.282934
0.203201
0.205177
0.735763
0.855174
0.868785
0.865879
0.867968
0.865303
0.425887
0.246898
0.294821
0.287845
0.27046
0.549932
0.626747
0.0575762
0.0590398
0.0288978
0.275854
0.601165
0.645848
0.641729
0.493315
0.43211
0.628342
0.78027
0.670947
0.381073
0.231485
0.222112
0.221893
0.237005
0.318103
0.532809
0.02766
0.00305602
0.00163464
0.0212947
0.291089
0.411075
0.191884
0.000250259
0.00188363
0.172134
0.326997
0.377815
0.428267
0.448208
0.391874
0.347508
0.342442
0.248176
0.391146
0.0257901
0.00326764
0.000219499
9.74399e-05
9.97024e-05
0.00436926
0.000205277
0.00023859
0.000736407
0.0566508
0.12307
0.150727
0.208487
0.295035
0.347036
0.307475
0.220821
0.127673
0.256272
0.0353811
0.00397997
6.66534e-05
5.91951e-05
0.000115541
0.000146595
0.000174213
0.000205305
0.00773487
0.0223961
-4.65962e-06
8.23348e-13
-1.06842e-05
4.07754e-20
0.00439179
0.0226375
9.08746e-06
0.0253585
0.0679787
0.0349772
0.00186262
1.44342e-06
1.69961e-06
4.65377e-05
8.70483e-05
0.00011044
0.000364557
0.00375427
0.000418821
4.42386e-05
5.53112e-08
6.66868e-05
0.00101977
6.36399e-14
1.48076e-12
-1.36894e-13
1.36894e-13
0.036887
0.291932
0.427241
0.476329
0.43186
0.264282
0.0841878
0.00949212
2.0943e-07
3.66597e-09
2.15752e-09
5.87429e-11
3.79023e-11
3.8548e-11
6.52968e-12
6.16852e-12
3.51073e-12
8.89878e-09
3.22849e-07
0.00220685
0.0392747
0.0404566
0.0242233
0.00121465
2.89497e-09
2.68544e-09
2.76418e-09
5.25304e-10
2.25517e-09
7.04462e-10
2.55698e-11
1.32761e-09
2.28255e-11
5.11458e-11
2.94202e-11
3.69911e-11
3.26592e-11
2.38488e-11
2.46068e-11
2.30218e-11
2.1913e-11
9.45465e-06
0.000486749
0.000804341
0.000947136
0.000267126
3.23662e-05
3.53259e-09
4.7096e-09
4.6586e-09
5.7186e-08
3.79612e-09
7.92216e-10
2.35004e-10
4.35555e-11
2.05394e-11
3.74198e-11
4.83394e-11
5.16053e-11
3.58585e-11
2.58604e-11
2.22045e-11
2.19011e-11
1.90613e-07
4.02147e-06
1.52604e-09
3.75986e-09
2.56982e-05
4.59517e-09
1.15429e-09
3.98967e-09
7.57647e-09
4.05996e-09
2.15922e-09
9.11824e-10
3.61e-10
2.69775e-11
4.07123e-12
6.19064e-12
1.00862e-11
8.9909e-12
9.92817e-12
5.44302e-10
4.10945e-09
6.2505e-09
1.19582e-08
7.55233e-08
8.14852e-10
1.47252e-09
1.77914e-09
9.02497e-10
1.944e-09
1.02595e-08
3.08759e-09
4.51181e-09
2.52696e-09
8.2108e-10
3.6451e-10
4.95012e-11
1.08246e-12
6.90121e-13
6.83298e-13
5.73928e-11
8.32897e-10
2.92852e-09
4.89213e-09
6.41254e-09
6.51793e-09
4.83954e-09
3.05933e-10
8.02095e-10
1.45072e-09
1.00367e-09
8.92657e-10
2.91522e-09
6.21474e-09
1.94421e-09
2.23181e-09
1.35759e-09
4.93643e-10
9.83555e-11
8.65154e-12
1.19707e-11
7.87727e-11
7.32979e-10
2.42919e-09
3.78142e-09
4.26771e-09
4.64513e-09
4.25682e-09
2.62079e-09
5.2326e-10
3.03076e-10
7.97506e-10
1.06866e-09
8.71074e-10
1.36207e-09
2.79251e-09
4.81054e-09
1.26808e-09
1.10226e-09
5.55577e-10
1.86948e-10
5.68284e-11
8.71595e-11
4.67028e-10
1.56832e-09
2.72627e-09
3.25325e-09
3.41748e-09
2.48876e-09
1.55101e-09
8.93784e-10
4.26365e-10
2.61001e-10
2.97878e-10
4.49029e-10
5.92858e-10
6.43472e-10
7.53931e-10
1.12016e-09
1.38596e-09
7.24388e-10
5.28275e-10
2.50857e-10
1.22098e-10
1.60616e-10
6.90699e-10
1.4746e-09
1.96458e-09
2.23673e-09
1.99316e-09
1.22252e-09
5.59087e-10
3.53341e-10
2.04679e-10
1.66763e-10
1.9723e-10
2.2852e-10
2.59353e-10
2.37369e-10
2.58264e-10
2.5593e-10
1.58384e-10
1.12304e-10
5.17557e-10
3.31398e-10
1.67151e-10
1.97889e-10
6.05896e-10
1.00657e-09
1.14309e-09
1.18914e-09
8.43577e-10
6.02245e-10
2.94275e-10
2.31798e-10
1.43292e-10
1.14147e-10
1.12235e-10
1.3021e-10
1.22053e-10
9.09798e-11
6.05976e-11
5.93592e-11
5.57705e-11
3.81014e-11
3.05562e-11
3.5207e-10
1.61913e-10
1.86252e-10
5.42158e-10
7.47994e-10
6.82696e-10
5.52492e-10
4.15942e-10
3.01403e-10
1.2996e-10
1.0258e-10
8.46027e-11
6.88451e-11
5.72001e-11
5.53575e-11
4.86839e-11
3.17713e-11
1.82569e-11
1.131e-11
1.00241e-11
1.10117e-11
1.16081e-11
1.2069e-11
1.6858e-10
5.47728e-11
3.16602e-10
7.8122e-10
8.15345e-10
5.09709e-10
2.8349e-10
1.33306e-10
1.09375e-10
6.76312e-11
4.97385e-11
3.18987e-11
2.47774e-11
1.99744e-11
1.61902e-11
1.07052e-11
6.3464e-12
4.45359e-12
4.07411e-12
4.21201e-12
4.65054e-12
6.05331e-12
4.63175e-12
3.19963e-11
1.68999e-11
4.4249e-10
8.50259e-10
8.4607e-10
6.19297e-10
2.25436e-10
1.05478e-10
6.15204e-11
3.43553e-11
1.96487e-11
1.27652e-11
9.61285e-12
7.66089e-12
5.81939e-12
4.74647e-12
4.25464e-12
3.50279e-12
2.78619e-12
2.33407e-12
2.05726e-12
1.88005e-12
1.47255e-12
2.4865e-12
3.45116e-11
3.55545e-10
7.56717e-10
8.33073e-10
6.17414e-10
3.45438e-10
2.55126e-10
1.56404e-10
8.50967e-11
3.84413e-11
1.71783e-11
9.34912e-12
6.35606e-12
5.13272e-12
4.29535e-12
3.85885e-12
3.21874e-12
2.45065e-12
1.8662e-12
1.5039e-12
1.20659e-12
1.03757e-12
7.07179e-13
1.72838e-11
1.73775e-10
5.17952e-10
6.40266e-10
6.22905e-10
4.77778e-10
3.89157e-10
3.45421e-10
2.90522e-10
1.88108e-10
8.40643e-11
2.33946e-11
9.01943e-12
6.38634e-12
5.0232e-12
4.44193e-12
3.74543e-12
2.94219e-12
2.15921e-12
1.62785e-12
1.32381e-12
1.08568e-12
1.31793e-13
3.65463e-12
5.80498e-11
2.41732e-10
4.20664e-10
4.82399e-10
4.52549e-10
3.69354e-10
3.57485e-10
3.57486e-10
3.48776e-10
3.08106e-10
2.22295e-10
9.54701e-11
3.64348e-11
1.6075e-11
9.95018e-12
7.82866e-12
6.6797e-12
6.21942e-12
5.27739e-12
3.97473e-12
3.13587e-12
5.11879e-14
1.67178e-12
2.04818e-11
8.81868e-11
2.46536e-10
3.4753e-10
3.58715e-10
3.09237e-10
2.88835e-10
2.99353e-10
3.24019e-10
3.47442e-10
3.46358e-10
3.28304e-10
2.57512e-10
1.60342e-10
8.37085e-11
4.30791e-11
2.71676e-11
2.01714e-11
1.53877e-11
1.15663e-11
8.00765e-12
4.20449e-14
6.40202e-13
6.40113e-12
2.87876e-11
6.35657e-11
1.44691e-10
2.16873e-10
2.14874e-10
1.98093e-10
2.02572e-10
2.21826e-10
2.45703e-10
2.87358e-10
3.10997e-10
3.05913e-10
2.93234e-10
2.42943e-10
1.72068e-10
1.09927e-10
6.73188e-11
4.1597e-11
2.64976e-11
1.70924e-11
1.6135e-14
2.31754e-13
1.9977e-12
1.09857e-11
3.2082e-11
6.88996e-11
7.48201e-11
1.1189e-10
1.18783e-10
1.20749e-10
1.26659e-10
1.36277e-10
1.38109e-10
1.56011e-10
1.78702e-10
2.01633e-10
2.02926e-10
1.76332e-10
1.29908e-10
8.24763e-11
4.75731e-11
2.77055e-11
1.51411e-11
4.15601e-15
6.57123e-14
5.72139e-13
3.67025e-12
1.40714e-11
3.39655e-11
3.45375e-11
3.55886e-11
6.73815e-11
6.95863e-11
6.68814e-11
6.84869e-11
6.7279e-11
5.60107e-11
5.69713e-11
6.81504e-11
7.17017e-11
7.46223e-11
6.74433e-11
4.98226e-11
2.93077e-11
1.64514e-11
8.26372e-12
7.19901e-16
1.48619e-14
1.44973e-13
1.03131e-12
5.11516e-12
1.66118e-11
2.11001e-11
1.88227e-11
3.70083e-11
4.07685e-11
3.5705e-11
3.21122e-11
3.13694e-11
2.62709e-11
2.05282e-11
1.66135e-11
1.76792e-11
1.75469e-11
1.58888e-11
1.45005e-11
9.58873e-12
6.36222e-12
3.73707e-12
1.10119e-16
2.75665e-15
3.46207e-14
2.65954e-13
1.57062e-12
6.64386e-12
1.0958e-11
1.04181e-11
1.89382e-11
2.34197e-11
2.01726e-11
1.49885e-11
1.39739e-11
1.19078e-11
8.77821e-12
6.31782e-12
5.4342e-12
4.3878e-12
4.80204e-12
4.74856e-12
3.41013e-12
2.60694e-12
1.9115e-12
1.53919e-17
4.4336e-16
8.04239e-15
7.20736e-14
4.78283e-13
2.26305e-12
4.50798e-12
5.16987e-12
8.71694e-12
1.21768e-11
1.08707e-11
7.36102e-12
5.60712e-12
5.03066e-12
3.69387e-12
2.32829e-12
1.94339e-12
1.59647e-12
1.68267e-12
1.61395e-12
1.25746e-12
1.15091e-12
9.29879e-13
2.09631e-18
5.99927e-17
1.67723e-15
1.8837e-14
1.4299e-13
6.97575e-13
1.59811e-12
2.20551e-12
3.62665e-12
5.47559e-12
5.21474e-12
3.71265e-12
2.44096e-12
1.85623e-12
1.38323e-12
9.37182e-13
6.42992e-13
6.08715e-13
5.12085e-13
5.64891e-13
5.20583e-13
4.54596e-13
4.14187e-13
3.04301e-19
6.76542e-18
3.02564e-16
4.48301e-15
3.94445e-14
1.96121e-13
5.18233e-13
8.03414e-13
1.34881e-12
2.12892e-12
1.82205e-12
1.55395e-12
1.01899e-12
6.93446e-13
4.95497e-13
3.53161e-13
2.49548e-13
1.91397e-13
1.86876e-13
1.81739e-13
1.94531e-13
1.87376e-13
1.69412e-13
4.67704e-20
6.50267e-19
4.71669e-17
9.10649e-16
9.6571e-15
4.97335e-14
1.48022e-13
2.61712e-13
4.42287e-13
7.05288e-13
6.60866e-13
5.48957e-13
3.64751e-13
2.36227e-13
1.63576e-13
1.21462e-13
8.72415e-14
7.48563e-14
6.49948e-14
6.80115e-14
7.09952e-14
6.74172e-14
6.41725e-14
7.08472e-21
5.74505e-20
6.53942e-18
1.60159e-16
2.01236e-15
1.10367e-14
3.64769e-14
7.49861e-14
1.27958e-13
1.95221e-13
1.90349e-13
1.62478e-13
1.08016e-13
6.91666e-14
4.93953e-14
3.69182e-14
2.78639e-14
2.37578e-14
2.23838e-14
2.28108e-14
2.42824e-14
2.43665e-14
2.1811e-14
4.97667e-22
5.18314e-21
8.29637e-19
2.38408e-17
3.45703e-16
2.07555e-15
7.6005e-15
1.7704e-14
3.13635e-14
4.6249e-14
4.64155e-14
3.97106e-14
2.63281e-14
1.64692e-14
1.21651e-14
9.85858e-15
8.40149e-15
7.59071e-15
7.26102e-15
7.77353e-15
8.08469e-15
7.63534e-15
6.69334e-15
7.80293e-23
4.76317e-22
9.3504e-20
2.89493e-18
4.58425e-17
3.25638e-16
1.32735e-15
3.47336e-15
6.61116e-15
9.33954e-15
9.43294e-15
7.97277e-15
5.30714e-15
3.49458e-15
2.82821e-15
2.54525e-15
2.33078e-15
2.05647e-15
2.12043e-15
2.26223e-15
2.36729e-15
2.2344e-15
1.78801e-15
6.08651e-24
3.82138e-23
8.61059e-21
2.83801e-19
4.88e-18
4.16713e-17
1.94543e-16
5.7459e-16
9.65684e-16
1.58598e-15
1.6034e-15
1.33235e-15
9.14935e-16
6.97531e-16
6.31056e-16
5.78753e-16
5.23686e-16
5.31923e-16
5.65864e-16
6.22925e-16
6.18624e-16
4.9012e-16
3.94024e-16
4.16691e-25
2.35222e-24
6.21018e-22
2.27281e-20
4.23164e-19
4.24739e-18
2.34001e-17
7.94519e-17
1.47528e-16
2.30804e-16
2.27875e-16
1.87212e-16
1.43074e-16
1.28506e-16
1.26392e-16
1.2125e-16
1.23567e-16
1.26758e-16
1.33592e-16
1.44289e-16
1.33586e-16
1.07298e-16
6.98449e-17
1.03659e-26
1.13209e-25
3.77565e-23
1.55443e-21
3.16567e-20
3.48913e-19
2.19709e-18
6.73798e-18
1.83682e-17
2.91652e-17
2.69817e-17
2.31753e-17
1.99034e-17
2.09978e-17
2.24327e-17
2.33579e-17
2.1015e-17
2.39985e-17
2.74512e-17
2.8621e-17
2.43763e-17
1.52561e-17
9.65518e-18
1.04849e-27
4.76781e-27
2.11065e-24
1.00115e-22
2.14892e-21
2.54743e-20
1.73883e-19
6.30263e-19
1.91226e-18
2.13917e-18
2.77687e-18
2.53728e-18
2.55886e-18
3.16005e-18
3.5811e-18
3.52695e-18
3.67049e-18
4.04635e-18
4.59594e-18
4.77417e-18
3.89054e-18
2.21449e-18
1.04898e-18
1.92391e-29
1.7199e-28
1.00807e-25
6.32657e-24
1.31735e-22
1.27116e-21
1.00596e-20
6.10124e-20
1.22624e-19
2.69846e-19
2.49706e-19
2.56795e-19
3.21765e-19
3.71776e-19
4.26978e-19
5.06665e-19
5.78052e-19
6.4096e-19
7.34603e-19
6.76539e-19
4.60519e-19
2.00289e-19
8.43289e-20
1.60877e-30
5.11029e-30
2.95381e-27
2.60932e-25
5.19944e-24
6.84002e-23
6.86374e-22
3.5843e-21
1.33513e-20
1.98088e-20
1.99897e-20
2.58037e-20
3.53922e-20
4.3318e-20
5.20877e-20
6.481e-20
7.70202e-20
8.99947e-20
9.18726e-20
7.46112e-20
4.08199e-20
1.64848e-20
6.14817e-21
3.65349e-32
1.44782e-31
7.83289e-29
1.04753e-26
2.02918e-25
4.17544e-24
4.68247e-23
2.59683e-22
8.32642e-22
1.21426e-21
1.5553e-21
2.42253e-21
3.47792e-21
4.60762e-21
5.80155e-21
7.33436e-21
9.1003e-21
1.0572e-20
9.80522e-21
6.69512e-21
3.24746e-21
1.13435e-21
3.27241e-22
-7.991e-34
2.46733e-33
4.13762e-30
5.82281e-28
1.09741e-26
1.68339e-25
2.20375e-24
1.31457e-23
4.51578e-23
7.1332e-23
1.15658e-22
1.97738e-22
3.02203e-22
4.24362e-22
5.69199e-22
7.50803e-22
9.36152e-22
1.01845e-21
8.41049e-22
4.89884e-22
2.06889e-22
5.67801e-23
3.60219e-24
-2.72708e-34
-1.90829e-34
1.35966e-31
2.18624e-29
4.21167e-28
6.54958e-27
9.59636e-26
6.0578e-25
2.31827e-24
4.20185e-24
7.60031e-24
1.41119e-23
2.30649e-23
3.48687e-23
4.97889e-23
6.762e-23
8.16641e-23
8.1067e-23
5.9081e-23
3.04913e-23
9.75591e-24
1.05481e-24
8.50467e-26
-3.14556e-35
-3.3321e-35
3.92712e-33
7.32219e-31
1.67843e-29
2.57958e-28
3.88963e-27
2.57995e-26
1.09589e-25
2.25205e-25
4.39992e-25
8.99441e-25
1.57036e-24
2.54749e-24
3.83463e-24
5.28358e-24
6.0727e-24
5.50777e-24
3.58457e-24
1.51934e-24
3.02431e-25
2.47494e-26
4.70275e-27
-2.88934e-36
-3.57161e-36
1.0394e-34
2.11969e-32
6.44361e-31
9.66817e-30
1.38614e-28
9.80599e-28
4.62887e-27
1.06248e-26
2.30294e-26
5.16649e-26
9.56447e-26
1.65131e-25
2.60166e-25
3.6122e-25
3.94561e-25
3.27827e-25
1.87376e-25
6.17599e-26
1.02335e-26
6.48632e-28
1.66779e-27
-2.34866e-37
-3.18289e-37
2.67067e-36
5.50411e-34
2.2822e-32
3.37594e-31
4.43264e-30
3.41229e-29
1.78649e-28
4.55537e-28
1.09903e-27
2.68223e-27
5.21996e-27
9.59156e-27
1.57566e-26
2.20025e-26
2.30666e-26
1.75795e-26
8.72236e-27
2.4054e-27
2.30682e-28
1.75789e-28
9.32065e-28
-1.73234e-38
-2.49509e-38
6.61496e-38
1.29798e-35
7.40711e-34
1.10407e-32
1.3338e-31
1.14885e-30
6.4163e-30
1.80635e-29
4.77319e-29
1.26056e-28
2.57484e-28
5.05647e-28
8.64874e-28
1.21706e-27
1.24566e-27
8.75439e-28
3.84036e-28
8.6154e-29
2.02353e-29
7.71691e-29
5.05872e-28
-1.15663e-39
-1.7611e-39
1.49066e-39
2.69231e-37
2.10374e-35
3.2136e-34
3.67783e-33
3.6532e-32
2.1307e-31
6.59632e-31
1.88237e-30
5.38099e-30
1.16104e-29
2.44861e-29
4.34078e-29
6.2247e-29
6.30503e-29
4.17985e-29
1.6736e-29
3.94805e-30
6.20286e-30
3.24706e-29
2.16954e-28
0.00045695
0.000302392
0.000111068
0.00367819
0.000170801
0.000174434
2.60381e-05
0.000189241
3.08818e-09
6.17493e-06
4.07498e-08
-4.87744e-09
3.37797e-09
3.41663e-09
4.78832e-08
1.19152e-07
7.68526e-09
7.01309e-09
1.32327e-08
1.93937e-08
7.09596e-09
6.69507e-09
1.24719e-08
1.40435e-08
1.71636e-09
2.81458e-09
3.92064e-09
3.86222e-09
7.03514e-11
1.10937e-10
1.07002e-10
7.00562e-11
2.06438e-11
1.81345e-11
1.53386e-11
1.41339e-11
7.89371e-12
6.39581e-12
5.24236e-12
4.32052e-12
3.08848e-12
2.09408e-12
1.72514e-12
1.46633e-12
1.01251e-12
8.85677e-13
7.98276e-13
7.48925e-13
8.30117e-13
7.48335e-13
6.73983e-13
6.21054e-13
8.25761e-13
6.94431e-13
6.25054e-13
5.63552e-13
1.93648e-12
1.21224e-12
1.00286e-12
8.65611e-13
5.4346e-12
4.25857e-12
3.26646e-12
2.41243e-12
1.15601e-11
8.50929e-12
6.30734e-12
4.65023e-12
9.44731e-12
6.68024e-12
5.05123e-12
3.96692e-12
4.72543e-12
3.46306e-12
2.75324e-12
2.21007e-12
2.20476e-12
1.56733e-12
1.36075e-12
1.20192e-12
1.46685e-12
1.16719e-12
9.54677e-13
7.94022e-13
7.80489e-13
6.8122e-13
5.90571e-13
5.09926e-13
3.7456e-13
3.38768e-13
3.02696e-13
2.58731e-13
1.5413e-13
1.39019e-13
1.24653e-13
1.04646e-13
5.89852e-14
5.21478e-14
4.75597e-14
4.25549e-14
1.98801e-14
1.79341e-14
1.52597e-14
1.35794e-14
6.21245e-15
5.33299e-15
4.68447e-15
3.90162e-15
1.56922e-15
1.35156e-15
1.03299e-15
8.66579e-16
3.41315e-16
2.59326e-16
2.06718e-16
1.59976e-16
5.5173e-17
4.14303e-17
2.70026e-17
2.01369e-17
7.21197e-18
4.73532e-18
3.27585e-18
2.1634e-18
6.75602e-19
4.13146e-19
2.45352e-19
1.44765e-19
4.88584e-20
2.78864e-20
1.73444e-20
4.4201e-21
2.87435e-21
4.34511e-22
3.94754e-23
3.50918e-24
6.43126e-24
4.38001e-26
7.43109e-26
1.51976e-25
1.57419e-26
2.77919e-26
6.25393e-26
1.38587e-25
1.43135e-26
2.11271e-26
4.42809e-26
1.14733e-25
6.24657e-27
1.31003e-26
4.03787e-26
1.20864e-25
3.38124e-27
9.73461e-27
3.47451e-26
1.04981e-25
2.4973e-27
8.62259e-27
2.93313e-26
9.05625e-26
1.38502e-27
6.02262e-27
2.01068e-26
5.72202e-26
9.49678e-28
3.02118e-27
8.71144e-27
2.11632e-26
0.0152335
0.000354132
2.1622e-08
2.70255e-07
-8.43718e-09
1.34023e-08
1.42185e-06
0.000113487
0.00041088
4.98175e-05
0.000260589
6.38985e-06
4.68791e-05
0.00165227
0.00231733
1.01863e-05
5.52375e-09
3.92543e-18
0.0240264
1.89347e-08
1.00696e-06
3.11586e-07
4.84837e-07
4.36941e-07
3.01403e-08
3.03827e-07
8.12651e-06
-8.69366e-10
2.22082e-05
0.000163487
0.000222143
3.16656e-05
9.19529e-06
1.31413e-05
7.65295e-06
9.34733e-06
0.000352373
0.00544641
6.83947e-08
1.89347e-08
1.33566e-07
4.2942e-07
4.71265e-07
4.55562e-07
2.57405e-10
3.19609e-15
4.32805e-19
3.96258e-05
0.000241953
0.000249361
1.11961e-05
1.03089e-05
2.95903e-05
1.46477e-05
9.66133e-06
0.0016031
0.00702478
5.56942e-08
1.90159e-08
7.35807e-08
2.6412e-07
4.00269e-07
3.08632e-07
1.38957e-07
4.96873e-08
5.65048e-08
1.01016e-07
1.11388e-08
1.06877e-08
1.79975e-05
2.92882e-05
5.59776e-05
4.12399e-05
9.78492e-06
0.000882902
0.00492255
2.51994e-08
3.66192e-08
4.737e-08
9.57752e-08
7.64891e-08
4.64354e-08
4.96186e-08
3.82109e-08
5.58434e-08
6.08449e-09
1.16515e-07
5.47359e-07
1.70666e-05
5.38285e-05
5.65335e-05
4.69309e-05
9.01927e-05
0.000366627
0.000430685
1.97249e-08
2.70807e-08
2.79991e-08
2.69113e-08
2.32069e-08
2.04997e-08
1.90939e-08
1.41114e-08
4.34708e-09
5.53127e-09
4.30092e-07
1.32539e-06
1.19205e-06
4.89152e-06
2.61941e-05
2.88874e-05
0.000543563
0.000789049
0.000748906
3.87386e-09
4.73233e-09
5.08387e-09
4.46967e-09
1.19107e-08
1.87697e-08
1.29384e-08
4.32157e-09
1.26622e-12
1.00209e-08
1.82153e-07
5.6352e-11
-9.78786e-12
-2.06977e-11
2.06977e-11
6.63467e-05
0.000376509
0.000281555
6.16042e-05
2.08427e-10
4.57404e-10
6.26444e-10
7.14759e-10
3.46929e-10
2.42117e-18
6.65208e-15
1.24621e-18
1.49002e-12
5.53497e-14
5.02933e-14
4.64522e-11
9.78471e-12
3.81562e-07
2.8546e-05
3.75014e-05
5.02185e-09
1.3061e-15
1.35212e-15
1.54233e-11
2.0474e-11
1.47566e-11
2.73534e-12
1.95408e-13
2.37658e-13
2.5568e-13
8.70849e-13
4.43925e-12
2.49444e-11
3.40854e-11
4.90519e-14
6.72115e-14
7.24435e-07
1.82698e-06
1.66739e-07
-1.15406e-10
1.3521e-15
8.89154e-15
3.16941e-12
2.29061e-12
1.80571e-12
1.50455e-12
1.08799e-12
7.44896e-13
5.07029e-13
3.08205e-13
1.63694e-13
8.31505e-14
5.83224e-14
5.71962e-14
2.74901e-09
2.91695e-08
5.7219e-09
4.36175e-10
3.27105e-09
1.06124e-15
1.27794e-14
1.2315e-12
9.81402e-13
7.96248e-13
6.51718e-13
4.57745e-13
3.30345e-13
2.64431e-13
2.16431e-13
1.85034e-13
1.49587e-13
1.20226e-13
8.08208e-14
4.68576e-14
4.68266e-14
4.35335e-14
4.0624e-14
4.33673e-14
4.39547e-14
1.41541e-14
6.98164e-13
5.832e-13
5.0189e-13
4.42203e-13
3.33641e-13
2.32385e-13
1.84297e-13
1.51858e-13
1.20831e-13
1.10758e-13
9.59091e-14
9.29777e-14
8.31373e-14
7.45133e-14
6.53693e-14
6.13922e-14
5.74186e-14
4.58339e-14
1.37945e-14
5.69165e-13
4.6869e-13
3.8328e-13
3.08218e-13
2.42672e-13
1.61216e-13
1.30183e-13
1.01352e-13
8.6622e-14
6.65973e-14
5.4519e-14
5.16591e-14
5.31203e-14
5.49416e-14
5.80065e-14
5.88526e-14
5.63411e-14
4.50392e-14
1.34875e-14
4.83864e-13
3.30479e-13
2.32211e-13
1.6966e-13
1.33172e-13
1.02438e-13
7.28634e-14
5.72268e-14
4.59265e-14
3.0707e-14
2.81585e-14
2.86707e-14
3.13496e-14
3.60101e-14
4.08918e-14
4.35937e-14
4.83887e-14
4.31709e-14
1.25658e-14
7.09184e-13
3.88664e-13
2.1945e-13
1.28653e-13
8.57697e-14
5.74156e-14
4.00805e-14
3.03747e-14
2.09038e-14
1.86749e-14
1.80098e-14
1.73264e-14
1.85359e-14
2.21827e-14
2.71333e-14
3.30848e-14
3.91431e-14
3.39347e-14
1.12561e-14
1.69265e-12
8.68536e-13
3.70466e-13
1.76678e-13
8.62708e-14
4.90516e-14
2.83417e-14
1.75745e-14
1.3582e-14
1.3632e-14
1.27639e-14
1.13647e-14
1.14692e-14
1.33962e-14
1.74418e-14
2.07541e-14
3.26242e-14
2.49261e-14
9.86917e-15
3.4103e-12
1.51354e-12
6.78336e-13
2.67329e-13
1.16349e-13
5.89681e-14
2.98632e-14
1.57899e-14
1.02534e-14
9.4125e-15
8.58976e-15
7.13796e-15
6.43789e-15
7.26847e-15
1.05335e-14
1.62905e-14
2.51332e-14
1.98109e-14
9.05825e-15
3.23587e-12
1.7305e-12
8.43499e-13
3.68574e-13
1.64917e-13
7.87293e-14
3.61808e-14
1.6768e-14
8.84581e-15
5.98432e-15
4.815e-15
3.95855e-15
3.68754e-15
4.18731e-15
6.74305e-15
1.16477e-14
1.93131e-14
1.73698e-14
7.64262e-15
1.67251e-12
1.06149e-12
5.62902e-13
3.53437e-13
1.75291e-13
8.38355e-14
3.85806e-14
1.72555e-14
8.09191e-15
4.265e-15
2.80783e-15
2.15455e-15
1.98218e-15
2.3905e-15
4.23065e-15
8.50161e-15
1.42472e-14
1.34002e-14
6.83542e-15
9.33608e-13
6.50992e-13
4.67528e-13
2.77942e-13
1.45733e-13
7.40577e-14
3.53616e-14
1.59206e-14
7.11426e-15
3.34692e-15
1.73456e-15
1.07783e-15
1.03188e-15
1.37961e-15
2.68518e-15
4.44981e-15
8.18016e-15
1.0578e-14
5.1008e-15
5.86791e-13
4.58519e-13
3.21919e-13
2.03621e-13
1.04862e-13
5.43822e-14
2.61293e-14
1.18176e-14
5.13631e-15
2.28917e-15
1.07292e-15
5.23718e-16
5.22633e-16
7.9981e-16
1.63373e-15
2.51993e-15
4.65853e-15
7.73884e-15
4.25657e-15
3.47873e-13
2.59837e-13
1.80174e-13
1.17342e-13
6.47204e-14
3.40591e-14
1.63553e-14
7.2804e-15
3.08929e-15
1.33388e-15
5.61356e-16
2.37972e-16
2.46554e-16
2.85762e-16
7.05138e-16
1.74758e-15
3.09673e-15
5.66872e-15
3.07867e-15
1.745e-13
1.31366e-13
8.97296e-14
5.78982e-14
3.24954e-14
1.70924e-14
8.17135e-15
3.59886e-15
1.50761e-15
6.76919e-16
1.88567e-16
9.07198e-17
5.4628e-17
1.40236e-16
4.83692e-16
1.2349e-15
2.1314e-15
3.12681e-15
2.06731e-15
7.86528e-14
5.8308e-14
3.87305e-14
2.39693e-14
1.31251e-14
6.87032e-15
3.33576e-15
1.48309e-15
6.30762e-16
2.57316e-16
3.94709e-17
1.01883e-17
1.94034e-17
8.92185e-17
3.32508e-16
8.3697e-16
1.39079e-15
1.78023e-15
1.2626e-15
3.07684e-14
2.16036e-14
1.34073e-14
7.96437e-15
4.33093e-15
2.22765e-15
1.05884e-15
4.69089e-16
2.0822e-16
2.98097e-17
2.39077e-18
2.32346e-18
1.04018e-17
5.69728e-17
2.081e-16
5.17719e-16
8.85149e-16
9.45277e-16
7.77795e-16
9.65807e-15
6.65289e-15
3.96488e-15
2.23274e-15
1.14005e-15
5.54142e-16
2.58265e-16
1.21831e-16
1.89557e-17
1.12184e-18
3.05735e-19
7.67016e-19
6.14882e-18
3.3196e-17
1.20828e-16
3.01767e-16
5.05492e-16
5.04338e-16
3.04364e-16
2.64318e-15
1.65024e-15
8.91135e-16
4.56302e-16
2.1665e-16
1.0251e-16
4.99109e-17
7.57673e-18
3.11808e-19
6.70399e-20
7.93128e-20
3.80406e-19
3.38525e-18
1.77502e-17
6.4952e-17
1.58424e-16
2.66874e-16
2.67962e-16
1.2012e-16
5.44329e-16
3.21107e-16
1.62574e-16
7.5921e-17
3.67609e-17
1.5714e-17
1.74764e-18
6.13721e-20
1.90748e-20
2.54269e-20
4.6532e-20
2.18773e-19
1.72522e-18
8.79138e-18
3.22778e-17
7.94178e-17
1.28332e-16
1.25838e-16
5.35513e-17
8.85485e-17
4.50849e-17
2.00706e-17
1.00502e-17
2.61345e-18
2.05819e-19
7.10407e-21
6.63526e-21
1.11775e-20
2.14782e-20
4.58435e-20
1.47531e-19
8.46018e-19
4.10147e-18
1.48277e-17
3.47124e-17
5.96433e-17
5.28014e-17
2.04153e-17
9.90007e-18
4.56008e-18
2.27477e-18
4.33056e-19
2.03415e-20
1.699e-21
2.56921e-21
5.19544e-21
1.14005e-20
2.47952e-20
5.30378e-20
1.29762e-19
4.60434e-19
1.85997e-18
6.29833e-18
1.48851e-17
2.53942e-17
2.38411e-17
8.1276e-18
9.18587e-19
4.25585e-19
7.08403e-20
2.73272e-21
6.72361e-22
1.18646e-21
2.67815e-21
6.23992e-21
1.40733e-20
3.07468e-20
6.37289e-20
1.33292e-19
3.27066e-19
9.05163e-19
2.75616e-18
5.70051e-18
1.28631e-17
8.60118e-18
3.54671e-18
6.36573e-20
7.27764e-21
2.55594e-22
2.38846e-22
5.18535e-22
1.26993e-21
3.10256e-21
7.33621e-21
1.6868e-20
3.66309e-20
7.47625e-20
1.45389e-19
2.84598e-19
5.96496e-19
1.31512e-18
2.66753e-18
5.90928e-18
4.48815e-18
1.37252e-18
3.26966e-22
3.28004e-23
6.65278e-23
1.9216e-22
5.24134e-22
1.3657e-21
3.40695e-21
8.1655e-21
1.88089e-20
4.03206e-20
8.36808e-20
1.55736e-19
2.70912e-19
4.62688e-19
8.10521e-19
1.81949e-18
2.1447e-18
1.51116e-18
4.76149e-19
2.94467e-24
1.44275e-23
6.06368e-23
1.82507e-22
4.98379e-22
1.36284e-21
3.39019e-21
8.51661e-21
1.95367e-20
4.26548e-20
8.51836e-20
1.55612e-19
2.49167e-19
3.84714e-19
6.66099e-19
1.04574e-18
1.02096e-18
5.67285e-19
1.57577e-19
2.24361e-24
1.43042e-23
5.11499e-23
1.57685e-22
4.43897e-22
1.25806e-21
3.2426e-21
7.98142e-21
1.85802e-20
3.93826e-20
7.8925e-20
1.38892e-19
2.0744e-19
3.33041e-19
4.96225e-19
6.15241e-19
4.79482e-19
2.29591e-19
6.32728e-20
2.03599e-24
1.08858e-23
3.94594e-23
1.22781e-22
3.78131e-22
1.05073e-21
2.74702e-21
6.78726e-21
1.57561e-20
3.39178e-20
6.70391e-20
1.16168e-19
1.75076e-19
2.55249e-19
3.11991e-19
3.10097e-19
2.14264e-19
8.46134e-20
2.67124e-20
1.59711e-24
7.79552e-24
2.84436e-23
9.55272e-23
2.88665e-22
8.09099e-22
2.10385e-21
5.15183e-21
1.1784e-20
2.51186e-20
4.8085e-20
8.09195e-20
1.20164e-19
1.63763e-19
1.5764e-19
1.24499e-19
6.25558e-20
2.97193e-20
1.11605e-20
1.23463e-24
5.42412e-24
1.99255e-23
6.68823e-23
1.98448e-22
5.52745e-22
1.41317e-21
3.3536e-21
7.43996e-21
1.54757e-20
2.87093e-20
4.63399e-20
6.54042e-20
7.86527e-20
6.58538e-20
4.05541e-20
1.98357e-20
1.00547e-20
4.83845e-21
8.26483e-25
3.33898e-24
1.2449e-23
3.93644e-23
1.17356e-22
3.15025e-22
7.83238e-22
1.79591e-21
3.84101e-21
7.6941e-21
1.37031e-20
2.10651e-20
2.73494e-20
3.02123e-20
2.18482e-20
1.19135e-20
5.39723e-21
3.38845e-21
2.15164e-21
4.86092e-25
1.7856e-24
6.10165e-24
1.86256e-23
5.09861e-23
1.30672e-22
3.20567e-22
7.26184e-22
1.50243e-21
2.86498e-21
4.8765e-21
7.22855e-21
8.46412e-21
8.58022e-21
5.5126e-21
3.3926e-21
1.6016e-21
9.77728e-22
1.04119e-21
2.09124e-25
7.08869e-25
2.2501e-24
6.47437e-24
1.73012e-23
4.33482e-23
9.88135e-23
2.21484e-22
4.46085e-22
8.11947e-22
1.29017e-21
1.7808e-21
1.98966e-21
1.77698e-21
1.0645e-21
6.99835e-22
2.80697e-22
3.07195e-22
2.96884e-22
5.06903e-26
1.55441e-25
4.58881e-25
1.23881e-24
3.11014e-24
7.6733e-24
1.66989e-23
3.34877e-23
6.81893e-23
1.19748e-22
1.8293e-22
2.37598e-22
2.46638e-22
1.75585e-22
1.036e-22
7.63004e-23
6.04265e-23
2.75346e-23
3.24962e-23
)
;

boundaryField
{
    leftWall
    {
        type            alphaContactAngle;
        contactAngleProperties 
        {
            air             
            {
                theta0          90;
            }
            water           
            {
                theta0          90;
            }
            oil             
            {
                theta0          90;
            }
        }
        value           nonuniform List<scalar> 
50
(
1
1
1
1
1
1
1
0.937528
0.291932
2.89497e-09
3.53259e-09
3.98967e-09
3.08759e-09
1.94421e-09
1.26808e-09
7.24388e-10
5.17557e-10
3.5207e-10
1.6858e-10
3.19963e-11
2.4865e-12
7.07179e-13
1.31793e-13
5.11879e-14
4.20449e-14
1.6135e-14
4.15601e-15
7.19901e-16
1.10119e-16
1.53919e-17
2.09631e-18
3.04301e-19
4.67704e-20
7.08472e-21
4.97667e-22
7.80293e-23
6.08651e-24
4.16691e-25
1.03659e-26
1.04849e-27
1.92391e-29
1.60877e-30
3.65349e-32
-7.991e-34
-2.72708e-34
-3.14556e-35
-2.88934e-36
-2.34866e-37
-1.73234e-38
-1.15663e-39
)
;
    }
    rightWall
    {
        type            alphaContactAngle;
        contactAngleProperties 
        {
            air             
            {
                theta0          90;
            }
            water           
            {
                theta0          90;
            }
            oil             
            {
                theta0          90;
            }
        }
        value           nonuniform List<scalar> 
50
(
0.676967
0.666414
0.626747
0.532809
0.391146
0.256272
0.0679787
0.036887
0.0240264
0.00544641
0.00702478
0.00492255
0.000430685
0.000748906
6.16042e-05
1.35212e-15
8.89154e-15
1.27794e-14
1.41541e-14
1.37945e-14
1.34875e-14
1.25658e-14
1.12561e-14
9.86917e-15
9.05825e-15
7.64262e-15
6.83542e-15
5.1008e-15
4.25657e-15
3.07867e-15
2.06731e-15
1.2626e-15
7.77795e-16
3.04364e-16
1.2012e-16
5.35513e-17
2.04153e-17
8.1276e-18
3.54671e-18
1.37252e-18
4.76149e-19
1.57577e-19
6.32728e-20
2.67124e-20
1.11605e-20
4.83845e-21
2.15164e-21
1.04119e-21
2.96884e-22
3.24962e-23
)
;
    }
    lowerWall
    {
        type            alphaContactAngle;
        contactAngleProperties 
        {
            air             
            {
                theta0          90;
            }
            water           
            {
                theta0          90;
            }
            oil             
            {
                theta0          90;
            }
        }
        value           nonuniform List<scalar> 
62
(
1
1
1
1
1
1
1
1
1
1
1
1
1
1
1
1
1
1
1
1
0.999923
0.999459
0.999432
0.999432
0.999432
0.99984
0.999979
0.954789
0.286855
0.00184486
0.0242332
0.00045695
0.000302392
0.000111068
0.00367819
0.0401298
0.0370741
0.0582432
0.0575762
0.02766
0.0257901
0.0353811
0.0349772
0.0401298
0.0663832
0.148478
0.106075
0.0901783
0.254603
0.870465
0.865926
0.57037
0.40843
0.412821
0.404291
0.639802
0.690106
0.690107
0.690106
0.690107
0.67891
0.676967
)
;
    }
    atmosphere
    {
        type            inletOutlet;
        inletValue      uniform 0;
        value           nonuniform List<scalar> 
46
(
-1.15663e-39
-1.7611e-39
1.49066e-39
2.69231e-37
2.10373e-35
3.2136e-34
3.67783e-33
3.6532e-32
2.1307e-31
6.59632e-31
1.88237e-30
5.38099e-30
1.16104e-29
2.44861e-29
4.34078e-29
6.2247e-29
6.30503e-29
4.17985e-29
1.6736e-29
3.94805e-30
6.20286e-30
3.24706e-29
2.16954e-28
9.49678e-28
0
0
0
0
0
0
0
0
0
0
0
0
0
0
0
0
0
0
0
0
0
0
)
;
    }
    defaultFaces
    {
        type            empty;
    }
}


// ************************************************************************* //
