/*--------------------------------*- C++ -*----------------------------------*\
  =========                 |
  \\      /  F ield         | OpenFOAM: The Open Source CFD Toolbox
   \\    /   O peration     | Website:  https://openfoam.org
    \\  /    A nd           | Version:  13
     \\/     M anipulation  |
\*---------------------------------------------------------------------------*/
FoamFile
{
    format      ascii;
    class       volScalarField;
    location    "1.15";
    object      alpha.oil;
}
// * * * * * * * * * * * * * * * * * * * * * * * * * * * * * * * * * * * * * //

dimensions      [];

internalField   nonuniform List<scalar> 
2268
(
7.14875e-17
2.68664e-15
5.71313e-14
3.58517e-13
1.02029e-12
2.60879e-12
5.95521e-12
1.29439e-11
2.67638e-11
5.36906e-11
1.04015e-10
1.98767e-10
3.74058e-10
6.71427e-10
1.25998e-09
2.22962e-09
3.77697e-09
6.93927e-09
1.10553e-08
1.10907e-08
7.68092e-05
0.000540864
0.000568483
3.07668e-16
6.19748e-15
5.54819e-14
2.60768e-13
8.32218e-13
2.36727e-12
6.32741e-12
1.64418e-11
3.8665e-11
9.35793e-11
2.0653e-10
4.39925e-10
9.13999e-10
1.82301e-09
3.28205e-09
6.55636e-09
1.52185e-08
3.3719e-08
7.01708e-08
8.99587e-08
5.7301e-08
0.000106559
0.000568448
5.19662e-16
7.12736e-15
4.38157e-14
2.23604e-13
8.62381e-13
2.82337e-12
8.79499e-12
2.45601e-11
6.97704e-11
2.00667e-10
4.37208e-10
8.96561e-10
1.89967e-09
3.65087e-09
6.14316e-09
9.75454e-09
3.11538e-08
7.4114e-08
1.01175e-07
8.12066e-08
6.06092e-08
5.08288e-07
0.000160221
8.46855e-16
1.07197e-14
6.26405e-14
2.98866e-13
1.30592e-12
4.42749e-12
1.3975e-11
4.03965e-11
1.10745e-10
2.61374e-10
5.52006e-10
1.24772e-09
2.68231e-09
6.59869e-09
1.33555e-08
9.96233e-09
3.60814e-08
2.13671e-07
1.71198e-07
9.19195e-08
4.64106e-07
1.99033e-06
2.06892e-05
1.15952e-15
1.0579e-14
5.53554e-14
3.31071e-13
1.32984e-12
4.26118e-12
1.24511e-11
2.83582e-11
7.15083e-11
1.57117e-10
2.90713e-10
5.18697e-10
7.04845e-10
7.52688e-10
4.57575e-09
1.20132e-06
4.06989e-06
5.37154e-06
4.87593e-06
3.85321e-06
6.93343e-06
1.50885e-06
1.50991e-06
3.33119e-16
3.68114e-15
2.56802e-14
1.36687e-13
5.79532e-13
1.83006e-12
4.8933e-12
1.2538e-11
2.38434e-11
5.40641e-11
1.2855e-10
4.12163e-10
1.71945e-09
1.47305e-09
1.09091e-07
4.0688e-06
7.55867e-06
7.56873e-06
7.56901e-06
7.45869e-06
1.09015e-05
0.000709478
0.00531949
4.44056e-17
7.73992e-16
6.37496e-15
3.21967e-14
1.21756e-13
2.66209e-13
6.07301e-13
2.50785e-12
1.68426e-11
6.91615e-11
3.41249e-10
4.18609e-09
2.24365e-08
9.12053e-08
6.12578e-07
2.20541e-06
4.45956e-06
6.41824e-06
5.58158e-06
1.95204e-06
0.000189149
0.0382349
0.0362854
3.98841e-18
6.16525e-17
7.72323e-16
4.4583e-15
1.07547e-14
4.49848e-14
7.5174e-13
1.00904e-11
7.33757e-11
3.50933e-10
1.64019e-09
7.14995e-09
2.04191e-08
1.10111e-07
2.6052e-07
1.12884e-07
1.99609e-08
2.59331e-07
1.17949e-07
1.09951e-07
0.239252
0.547917
0.507561
0.906779
0.875616
0.842533
0.893925
0.909822
0.745396
0.12952
0.105219
0.317715
0.443903
0.441632
0.430369
0.155614
0.057057
0.0724442
0.165445
0.198337
0.272764
0.280323
0.845971
0.539236
0.536271
0.773065
0.909998
0.80317
0.134499
0.082557
0.0859974
0.15338
0.242823
0.258492
0.186434
0.0565208
0.0570649
0.133205
0.25371
0.235954
0.320216
0.751844
0.0731089
0.0373739
0.553465
0.796799
0.794437
0.205829
-2.3253e-11
-9.1136e-11
-3.06208e-19
0.0180912
0.119699
0.314935
0.24741
0.177783
0.178683
0.26494
0.196344
0.320723
0.79576
0.0715852
2.63051e-19
0.0582647
0.342369
0.344187
0.0968086
-6.96273e-24
8.92426e-11
-1.69437e-19
0.0255654
0.132425
0.345598
0.34116
0.313355
0.279236
0.256392
0.197806
0.323604
0.892316
0.0997571
-3.02736e-09
-1.1215e-09
0.00579529
0.0199437
1.23845e-07
1.48356e-07
8.02703e-16
0.0059095
0.0444155
0.0640761
0.130187
0.211336
0.238542
0.211545
0.141033
0.426171
0.469681
0.908503
0.0656769
-1.27422e-09
2.3959e-09
5.03962e-08
2.55589e-08
4.47456e-09
1.52862e-06
-6.50047e-08
0.0197145
0.193667
0.23886
0.121189
0.0695132
0.0675442
0.069092
0.0899226
0.513198
0.525629
0.908441
0.0260711
4.24266e-07
3.27356e-06
4.35012e-06
1.68013e-06
7.8243e-06
2.9855e-06
-8.06745e-09
0.050976
0.232519
0.236013
0.234645
0.12198
0.130107
0.201338
0.279562
0.537666
0.457861
0.560398
5.99453e-05
-2.33572e-18
-2.30646e-07
7.75083e-06
5.29772e-05
8.66001e-05
6.13231e-05
2.81841e-12
0.0221706
0.160526
0.224323
0.247829
0.297229
0.299273
0.298249
0.3095
0.655634
0.456328
3.69442e-19
5.91425e-18
9.10315e-17
4.67449e-16
3.91109e-15
1.64354e-13
2.99496e-12
2.03473e-11
1.04519e-10
3.75948e-10
1.2553e-09
3.32298e-09
9.86828e-09
3.34283e-08
3.25265e-08
8.41918e-09
6.13171e-10
6.57333e-10
1.11569e-18
0.247598
0.740255
0.774173
0.88714
1.16161e-19
1.74573e-18
3.08609e-17
6.36657e-16
1.58201e-14
4.04287e-13
5.88962e-12
3.57111e-11
1.38591e-10
3.34798e-10
1.28899e-09
4.65732e-09
7.8619e-09
7.92905e-09
4.35374e-09
6.81792e-10
1.53995e-18
5.67189e-19
0.448607
0.826046
0.997972
0.992174
0.99923
2.85781e-19
9.05496e-18
2.86229e-16
2.02181e-14
6.37117e-13
1.31352e-11
7.81941e-11
4.26265e-10
9.76119e-10
4.68607e-09
1.14633e-08
1.87411e-08
1.69919e-08
5.00414e-09
2.33284e-09
-2.9698e-10
0.336972
0.687589
0.92716
0.980647
0.999973
0.999999
0.999999
2.92694e-17
2.47591e-17
8.19324e-16
3.77006e-13
2.10546e-11
1.84743e-10
8.63182e-10
1.66702e-09
1.30129e-08
4.61677e-08
5.00302e-08
2.06162e-08
1.74704e-08
1.08611e-09
0.267287
0.647561
0.854796
0.982417
0.999982
1
0.999999
1
0.999998
2.22578e-16
1.98097e-17
2.61286e-14
4.15522e-11
7.12167e-11
3.67524e-10
1.15254e-09
6.64438e-09
1.44228e-08
1.50546e-08
1.36367e-08
9.20861e-09
0.266343
0.574096
0.839961
0.994528
0.999897
0.999987
0.999982
1
1
1
1
2.16501e-12
4.50151e-10
4.15661e-09
7.75431e-10
-5.73363e-11
1.45935e-10
1.6249e-10
1.7786e-10
1.93037e-10
0.0215351
0.327043
0.566159
0.849704
0.977136
0.999653
0.999984
0.999984
0.999988
0.999994
1
1
1
1
1.55219e-09
1.60168e-08
5.98e-08
3.31513e-08
-1.32182e-09
9.03673e-19
0.0051659
0.0580683
0.419687
0.624875
0.888922
0.968188
0.999979
1
0.999992
0.999984
0.999984
0.999999
1
1
1
1
1
1.39653e-08
1.28297e-07
2.58446e-07
4.54813e-06
0.000886423
0.153956
0.513065
0.738206
0.929164
0.975942
0.999988
1
1
1
0.999995
0.999992
0.999998
1
1
1
1
0.999999
0.999999
5.52831e-08
2.52231e-07
3.42166e-08
0.0137737
0.433474
0.917286
0.946775
0.993325
0.999996
1
1
1
1
1
1
1
0.999999
0.999999
0.943689
0.856972
0.689593
0.405344
0.316272
7.43414e-09
2.31021e-08
7.57547e-08
0.333587
0.955731
0.999973
0.999989
0.99999
0.99999
0.999997
0.999999
1
1
0.999999
0.945047
0.83217
0.666831
0.424805
0.20802
0.110325
0.0411297
4.27052e-06
4.27173e-06
8.6412e-11
4.33322e-12
0.0174626
0.492924
0.988847
0.987699
0.990545
0.984281
0.902916
0.833936
0.763471
0.664474
0.534885
0.370057
0.209116
0.0965356
0.0278812
4.67716e-06
3.62769e-06
3.79659e-06
2.86078e-06
6.43122e-07
6.38424e-07
8.02737e-09
4.10405e-08
0.00114832
0.138365
0.300996
0.356113
0.340871
0.196412
0.131878
0.0947887
0.0583597
0.0254539
0.00533444
3.0392e-06
2.8708e-06
3.39428e-06
3.10698e-06
1.20482e-07
1.93066e-07
3.81064e-07
6.94021e-07
8.56757e-07
1.52508e-06
2.3895e-07
5.64833e-06
2.49032e-05
1.52285e-07
-1.26805e-08
-1.48235e-10
7.26029e-25
9.19327e-10
5.69037e-07
1.6368e-06
2.29256e-06
2.35057e-06
1.76001e-06
2.19987e-08
5.62018e-08
6.99786e-08
4.36586e-09
4.00364e-08
1.14498e-07
2.99663e-07
6.70565e-07
9.40183e-07
1.54973e-06
1.33421e-07
3.4001e-06
1.96366e-05
2.26446e-07
1.14998e-07
1.12972e-07
1.10518e-07
6.995e-08
1.4437e-07
1.03563e-07
1.96249e-07
3.32168e-06
4.08814e-06
0
-4.31002e-09
3.36238e-11
5.06805e-09
1.23513e-08
4.47801e-08
1.50441e-07
3.06253e-07
5.28269e-07
6.27205e-07
1.14582e-08
3.45339e-07
1.33172e-06
2.32253e-07
3.97384e-08
3.03337e-08
3.50896e-08
5.12636e-08
8.46004e-08
1.0619e-07
8.45914e-08
9.2308e-08
2.296e-05
0.000101757
6.94572e-05
0
1.36632e-11
3.83707e-13
6.70127e-09
5.69408e-08
1.60453e-07
2.0912e-07
1.51836e-07
3.17045e-09
5.16147e-08
2.25342e-07
2.52421e-07
6.3781e-08
5.51842e-08
3.36517e-08
4.19698e-08
7.38741e-08
9.97833e-08
9.34669e-08
9.08044e-08
6.41768e-07
0.000120686
0.000193929
0.000184642
0.000107735
1.36644e-11
9.417e-11
2.20847e-09
1.41885e-08
3.00085e-08
1.57338e-08
2.00816e-09
1.60032e-08
5.44967e-08
1.56293e-07
9.83397e-08
1.36137e-07
5.69812e-08
3.20649e-08
4.8178e-08
7.82813e-08
1.00626e-07
7.99104e-08
9.65333e-08
5.89985e-06
8.08189e-05
0.000188832
0.000186621
0.000180992
5.1578e-05
9.4277e-11
1.27207e-08
6.21856e-08
9.10808e-08
8.17682e-10
8.00111e-09
3.13886e-08
8.92288e-08
8.82477e-08
1.52869e-07
1.05498e-07
2.87681e-08
2.71651e-08
4.27066e-08
6.74593e-08
8.87506e-08
1.07278e-07
9.31626e-08
6.68007e-08
1.0601e-05
5.44094e-05
7.3458e-05
7.7843e-05
2.45558e-05
1.17887e-08
6.37438e-08
9.70653e-08
2.13553e-10
2.90276e-09
1.51478e-08
4.33185e-08
5.81238e-08
1.36538e-07
1.21475e-07
3.5243e-08
2.05397e-08
2.12968e-08
3.23817e-08
5.12829e-08
7.11731e-08
6.59588e-08
5.95289e-08
5.04005e-08
1.47077e-07
2.5604e-07
1.8257e-06
7.40912e-06
2.57161e-06
1.71258e-07
2.2545e-08
3.41043e-11
7.1544e-10
5.32729e-09
1.83089e-08
2.79589e-08
8.9541e-08
9.30239e-08
3.52606e-08
2.03795e-08
1.38997e-08
1.47097e-08
2.25457e-08
3.51417e-08
4.58745e-08
4.68728e-08
3.80042e-08
1.43345e-08
7.05347e-09
6.97322e-09
8.36513e-09
3.4135e-07
8.53516e-08
1.4421e-08
4.34835e-12
1.25169e-10
1.38155e-09
6.45894e-09
1.07886e-08
4.48073e-08
5.92012e-08
2.84277e-08
1.79282e-08
1.08752e-08
8.34726e-09
9.35426e-09
1.54984e-08
2.1692e-08
2.84182e-08
3.17698e-08
1.96021e-08
1.05837e-08
7.84434e-09
1.34784e-08
4.30144e-09
1.3694e-08
8.84298e-09
4.43262e-13
1.71476e-11
2.7957e-10
1.82141e-09
3.91876e-09
1.78072e-08
2.8584e-08
1.78464e-08
1.22693e-08
7.8797e-09
5.42444e-09
4.61832e-09
6.13433e-09
9.31018e-09
1.23571e-08
1.52157e-08
1.33703e-08
8.72742e-09
6.38691e-09
5.39542e-09
4.14535e-09
5.2801e-09
5.60529e-09
3.51064e-14
1.84731e-12
4.56922e-11
4.04514e-10
1.29215e-09
6.01824e-09
1.13238e-08
8.84967e-09
6.55924e-09
4.65795e-09
3.33882e-09
2.63615e-09
2.90309e-09
3.75607e-09
4.91331e-09
6.64373e-09
6.02042e-09
5.37282e-09
3.52696e-09
3.10354e-09
2.8143e-09
2.90918e-09
3.45749e-09
2.12807e-15
1.55054e-13
6.13151e-12
7.30205e-11
3.6981e-10
1.77855e-09
3.87713e-09
3.50796e-09
2.81726e-09
2.20481e-09
1.45399e-09
1.29683e-09
1.38922e-09
1.69224e-09
2.11683e-09
2.77981e-09
2.86393e-09
2.3263e-09
1.9657e-09
1.62909e-09
1.61939e-09
1.75392e-09
1.89931e-09
1.03822e-16
1.01974e-14
6.86971e-13
1.11028e-11
9.01833e-11
4.59041e-10
1.13478e-09
1.11961e-09
9.85033e-10
8.37774e-10
6.28695e-10
5.53295e-10
5.96714e-10
7.33105e-10
9.0489e-10
1.14426e-09
1.20961e-09
1.12027e-09
9.17782e-10
8.53888e-10
8.52427e-10
8.92413e-10
9.81425e-10
4.69826e-18
5.66967e-16
6.69518e-14
1.54712e-12
1.81449e-11
1.00486e-10
2.74812e-10
2.88263e-10
2.82473e-10
2.63031e-10
2.15609e-10
2.01765e-10
2.25941e-10
2.8918e-10
3.66183e-10
4.3858e-10
4.68831e-10
4.35316e-10
4.0256e-10
3.89458e-10
4.04628e-10
4.37821e-10
4.40413e-10
8.40285e-20
3.34799e-17
6.12309e-15
1.97705e-13
2.93452e-12
1.79746e-11
5.3689e-11
6.04436e-11
6.8081e-11
6.93052e-11
6.24449e-11
6.31157e-11
7.57844e-11
9.80941e-11
1.26366e-10
1.54508e-10
1.70523e-10
1.70539e-10
1.6528e-10
1.71314e-10
1.78757e-10
1.79254e-10
1.7698e-10
1.14463e-20
2.58106e-18
5.52205e-16
2.17254e-14
3.59974e-13
2.57455e-12
8.42279e-12
1.05827e-11
1.44503e-11
1.56293e-11
1.54736e-11
1.7344e-11
2.28796e-11
3.12599e-11
4.1495e-11
5.21735e-11
5.86308e-11
5.76433e-11
6.09518e-11
6.44887e-11
6.76795e-11
6.70276e-11
5.90872e-11
6.3545e-22
2.09019e-19
4.61411e-17
1.97698e-15
3.48388e-14
2.90418e-13
1.07796e-12
1.60896e-12
2.21411e-12
3.03242e-12
3.39185e-12
4.30596e-12
6.27579e-12
9.20113e-12
1.25842e-11
1.52249e-11
1.696e-11
1.88531e-11
2.05055e-11
2.21292e-11
2.21017e-11
1.88486e-11
1.6228e-11
3.49894e-23
1.36764e-20
3.31512e-18
1.51311e-16
2.71456e-15
2.57123e-14
1.13695e-13
2.14942e-13
3.62402e-13
5.24479e-13
6.5703e-13
9.67043e-13
1.56794e-12
2.40436e-12
3.37033e-12
4.13212e-12
5.08984e-12
5.67517e-12
6.07994e-12
6.36326e-12
5.94333e-12
4.9996e-12
3.56239e-12
6.63434e-25
7.18545e-22
2.16916e-19
1.05623e-17
1.85816e-16
1.85711e-15
9.74687e-15
1.89727e-14
4.9783e-14
8.31264e-14
1.13934e-13
1.98341e-13
3.25453e-13
5.4512e-13
7.90309e-13
1.03249e-12
1.12468e-12
1.37577e-12
1.55077e-12
1.55023e-12
1.32498e-12
8.98447e-13
6.17361e-13
7.26528e-26
3.34535e-23
1.37833e-20
7.60969e-19
1.25902e-17
1.26986e-16
7.45045e-16
2.00921e-15
6.13497e-15
8.92117e-15
1.84932e-14
3.42582e-14
6.1326e-14
1.10831e-13
1.66334e-13
2.08322e-13
2.58459e-13
2.94643e-13
3.18931e-13
3.13039e-13
2.56436e-13
1.57514e-13
8.52226e-14
5.85089e-27
1.37903e-24
7.80284e-22
5.61214e-20
8.81633e-19
6.84402e-18
4.62024e-17
2.26139e-16
5.13107e-16
1.42993e-15
2.59371e-15
5.31574e-15
1.06917e-14
1.74234e-14
2.68724e-14
3.98559e-14
5.14198e-14
5.76787e-14
6.08103e-14
5.30893e-14
3.69251e-14
1.82791e-14
9.85958e-15
1.86988e-27
6.67542e-26
2.92709e-23
2.73684e-21
4.49691e-20
4.71168e-19
3.72115e-18
1.71047e-17
6.64852e-17
1.5204e-16
3.24563e-16
7.64327e-16
1.56167e-15
2.75677e-15
4.50342e-15
6.75499e-15
8.67365e-15
9.72335e-15
9.06122e-15
7.08624e-15
4.17615e-15
2.18169e-15
1.71763e-15
5.17116e-28
8.50513e-27
1.29743e-24
1.44856e-22
2.77526e-21
3.68646e-20
3.06809e-19
1.61417e-18
5.77043e-18
1.467e-17
3.80262e-17
9.62525e-17
2.06314e-16
3.97586e-16
6.82404e-16
1.01164e-15
1.27481e-15
1.35806e-15
1.16351e-15
8.09343e-16
4.77354e-16
3.37263e-16
5.97278e-16
1.3846e-28
2.01304e-27
9.38583e-26
9.48081e-24
2.04541e-22
2.29675e-21
2.01401e-20
1.2168e-19
4.77874e-19
1.38488e-18
3.96271e-18
1.05571e-17
2.45366e-17
5.06365e-17
9.03756e-17
1.32823e-16
1.60415e-16
1.58709e-16
1.27221e-16
8.88633e-17
6.93843e-17
9.83577e-17
2.76318e-16
3.3073e-29
4.93137e-28
7.81859e-27
4.68282e-25
1.22005e-23
1.42596e-22
1.2801e-21
8.48159e-21
3.78279e-20
1.20725e-19
3.6209e-19
1.04302e-18
2.63492e-18
5.75755e-18
1.04877e-17
1.52031e-17
1.76214e-17
1.6705e-17
1.37346e-17
1.24914e-17
1.6023e-17
3.8836e-17
1.32972e-16
7.33407e-30
1.12511e-28
1.24423e-27
2.63521e-26
7.1408e-25
8.43826e-24
7.60379e-23
5.47995e-22
2.74721e-21
9.42209e-21
3.0474e-20
9.62989e-20
2.61811e-19
5.94429e-19
1.09781e-18
1.59464e-18
1.85517e-18
1.86628e-18
1.89358e-18
2.67202e-18
5.21999e-18
1.52151e-17
6.10252e-17
1.5413e-30
2.42418e-29
2.56466e-28
2.73224e-27
4.71756e-26
5.14043e-25
4.51958e-24
3.53582e-23
1.94348e-22
7.26046e-22
2.60292e-21
8.90588e-21
2.55884e-20
5.9973e-20
1.13946e-19
1.73197e-19
2.20414e-19
2.63894e-19
3.65767e-19
6.8625e-19
1.59959e-18
5.83643e-18
3.12305e-17
3.07743e-31
5.00312e-30
5.37426e-29
5.18974e-28
5.41607e-27
4.84926e-26
3.9208e-25
3.02011e-24
1.69e-23
7.02247e-23
2.7173e-22
9.57829e-22
2.82428e-21
6.84051e-21
1.36874e-20
2.2638e-20
3.32094e-20
4.81673e-20
8.28033e-20
1.97829e-19
6.013e-19
3.0317e-18
1.82684e-17
5.85898e-32
1.00573e-30
1.13488e-29
1.07983e-28
9.93538e-28
8.10412e-27
6.0971e-26
4.43512e-25
2.33418e-24
1.03147e-23
4.0073e-23
1.37041e-22
3.99366e-22
9.84704e-22
2.02145e-21
3.60969e-21
5.98524e-21
9.88982e-21
2.02643e-20
6.13477e-20
2.7786e-19
1.52557e-18
1.01788e-17
9.86257e-33
1.84576e-31
2.23979e-30
2.37252e-29
2.20856e-28
1.79903e-27
1.3156e-26
8.72239e-26
4.41655e-25
1.94833e-24
7.35679e-24
2.41388e-23
6.81419e-23
1.67138e-22
3.41939e-22
6.42067e-22
1.12686e-21
2.08561e-21
5.204e-21
2.17193e-20
1.19157e-19
6.56974e-19
4.45442e-18
0.999319
0.999698
0.89975
0.59374
0.9996
0.999826
0.969613
0.88544
0.999975
0.999707
0.999017
1
0.999991
0.999984
1
1
1
1
1
1
1
1
1
1
1
1
1
1
0.999999
0.949461
0.863835
0.853717
0.39253
0.239431
0.131141
0.118612
4.80804e-06
8.5954e-07
7.39278e-07
1.20245e-06
1.26837e-06
1.12609e-06
9.13356e-07
9.04003e-07
1.65853e-06
1.84413e-06
1.86488e-06
1.83312e-06
1.88916e-06
1.93855e-06
1.92857e-06
1.88709e-06
7.81579e-07
8.69267e-07
6.42142e-07
5.26445e-07
1.23846e-07
9.9893e-08
8.95005e-08
5.42446e-08
1.61601e-09
1.52174e-09
1.66246e-09
1.47542e-09
1.72037e-08
1.66245e-09
3.56757e-09
7.27242e-09
1.435e-07
8.33182e-08
5.40328e-09
1.40201e-08
5.86428e-08
3.14186e-08
1.59946e-08
1.57122e-08
1.60483e-08
1.29508e-08
1.53424e-08
1.65344e-08
7.8841e-09
9.67151e-09
1.11275e-08
1.20785e-08
5.80514e-09
5.91621e-09
6.48074e-09
6.78601e-09
3.5183e-09
3.6384e-09
3.78038e-09
3.88249e-09
1.94076e-09
1.94658e-09
1.99021e-09
2.01368e-09
9.94962e-10
9.95114e-10
9.85157e-10
9.6185e-10
4.34376e-10
4.22346e-10
4.00311e-10
3.84937e-10
1.72248e-10
1.59925e-10
1.49441e-10
1.34125e-10
5.45795e-11
4.96448e-11
4.14992e-11
3.68823e-11
1.46814e-11
1.20458e-11
1.02083e-11
8.43437e-12
2.97017e-12
2.37756e-12
1.70434e-12
1.3569e-12
4.89532e-13
3.51616e-13
2.63847e-13
1.92339e-13
6.07279e-14
4.2513e-14
3.0544e-14
2.36654e-14
7.3904e-15
6.22772e-15
6.21399e-15
7.27948e-15
1.85171e-15
2.18991e-15
3.06484e-15
4.44113e-15
8.19103e-16
1.17868e-15
1.78852e-15
2.96519e-15
4.04988e-16
5.91573e-16
1.1039e-15
2.39924e-15
1.97524e-16
3.2361e-16
7.80899e-16
2.07359e-15
1.0717e-16
2.41995e-16
7.54047e-16
2.26868e-15
6.46071e-17
1.87235e-16
6.73902e-16
2.05656e-15
4.92661e-17
1.71982e-16
5.93387e-16
1.864e-15
2.81632e-17
1.24608e-16
4.23827e-16
1.22971e-15
1.98067e-17
6.39561e-17
1.87238e-16
4.63497e-16
0.365185
0.420461
0.383623
0.153192
2.4207e-06
2.53441e-05
8.9158e-05
0.000128642
6.5597e-05
0.00018957
0.0109027
0.0749817
0.177063
0.38598
0.609524
0.761861
0.765524
0.817355
0.58984
0.856422
0.964197
0.972575
0.930928
0.72839
0.373826
0.0753454
0.0224564
0.0064137
0.0145372
0.108203
0.370303
0.741764
0.945859
0.998293
0.997624
0.995251
0.902694
0.534783
1
1
1
0.999996
0.997994
0.983701
0.895638
0.705287
0.566478
0.636947
0.845812
0.998997
0.999141
0.998891
0.998573
0.998107
0.998775
0.863537
0.508296
1
1
1
1
1
1
1
0.999991
0.999995
1
0.999942
0.999081
0.999439
0.999346
0.98749
0.992692
0.998704
0.884708
0.508785
0.999999
0.999999
0.999999
1
1
1
1
1
1
1
0.999266
0.928238
0.759395
0.542772
0.422744
0.50193
0.763787
0.890847
0.834836
1
0.999999
0.999999
1
1
1
1
1
0.970766
0.826289
0.514955
0.207734
0.0399272
3.62993e-08
5.06737e-09
0.0147121
0.202141
0.374271
0.4469
1
1
1
1
1
0.96021
0.848865
0.621801
0.307717
0.0710544
8.78357e-07
1.10758e-07
3.62305e-08
5.15273e-09
9.52406e-08
0.00591712
0.00594928
2.02279e-06
2.04792e-06
0.853254
0.808462
0.732359
0.598247
0.408999
0.224961
0.0749806
6.22776e-08
4.95685e-09
7.46879e-07
1.06507e-05
5.00244e-05
4.47102e-06
9.51653e-05
0.00641236
0.00884231
0.0025205
2.18773e-06
2.24036e-06
0.104719
0.06548
0.0278488
0.00364047
2.00525e-08
1.12349e-08
4.27388e-08
3.28051e-08
6.22774e-08
0.000208161
0.000927666
0.0010032
0.000122365
0.000676239
0.00417447
0.00339285
7.38175e-07
2.52012e-06
2.83256e-06
2.11256e-06
2.06674e-06
1.1859e-06
1.74179e-07
2.38792e-07
7.33178e-07
9.76712e-07
7.21346e-07
4.40772e-06
0.000774523
0.00130878
0.00125344
0.000118646
4.62663e-06
2.47568e-05
5.13417e-07
8.34294e-07
9.39117e-07
2.37596e-06
7.68718e-07
5.20251e-07
3.02556e-07
1.31085e-07
3.9119e-07
2.18606e-06
3.85171e-06
4.46076e-06
2.49494e-05
0.000200821
0.000227429
1.74247e-08
9.26165e-08
2.15776e-07
2.15785e-07
4.86411e-07
4.08536e-07
9.44836e-08
5.79006e-07
1.77509e-06
1.43114e-06
5.56918e-07
8.75804e-08
2.78388e-07
1.35607e-06
3.82776e-06
3.09058e-06
6.13324e-07
6.85172e-09
6.08699e-09
1.11456e-08
1.06304e-07
2.89948e-07
4.8468e-07
5.06602e-07
1.71043e-07
1.02634e-07
4.52925e-07
1.67431e-06
7.75119e-07
2.5459e-07
5.3914e-08
9.30625e-08
1.11199e-07
6.7832e-08
2.78079e-09
3.23315e-09
5.32013e-09
1.66164e-08
3.87798e-08
8.97947e-08
1.6111e-07
1.91995e-07
2.06824e-07
1.96072e-08
1.22173e-07
1.73772e-06
3.63886e-07
9.78502e-08
1.83223e-08
1.98306e-08
9.50005e-09
3.05187e-09
2.62134e-09
2.76155e-09
3.2334e-09
5.66967e-09
9.06591e-09
1.24976e-08
1.50788e-08
1.68782e-08
1.35738e-08
4.35134e-09
5.76408e-09
1.61199e-07
1.73343e-06
2.92705e-08
4.13017e-09
1.10416e-09
1.08588e-09
2.47485e-09
4.03372e-09
3.9048e-09
3.15176e-09
3.55522e-09
4.59426e-09
5.70926e-09
6.34699e-09
5.8695e-09
4.71832e-09
4.70667e-09
4.75103e-09
5.63507e-09
1.74594e-07
1.73772e-06
1.94443e-09
1.38333e-09
1.25912e-09
1.11855e-09
1.46433e-09
2.34288e-09
2.59953e-09
2.82707e-09
2.82596e-09
3.29685e-09
3.77852e-09
4.20638e-09
4.31836e-09
4.50632e-09
4.85278e-09
4.77721e-09
3.88317e-09
2.39274e-07
8.21772e-07
7.41679e-09
2.69846e-09
2.08165e-09
1.45282e-09
1.10497e-09
7.95375e-10
7.21317e-10
1.22964e-09
1.71657e-09
2.02868e-09
2.29535e-09
2.59563e-09
2.60426e-09
3.03616e-09
3.82199e-09
4.3895e-09
3.66469e-09
2.64775e-07
8.67285e-07
1.30709e-08
5.07298e-09
3.22276e-09
1.76176e-09
1.107e-09
8.37595e-10
6.8915e-10
7.81879e-10
1.01314e-09
1.13314e-09
1.27072e-09
1.46233e-09
1.7364e-09
2.23673e-09
3.18432e-09
3.95008e-09
3.61917e-09
2.28755e-07
6.62328e-07
1.46396e-08
1.00737e-08
4.837e-09
2.95736e-09
1.46432e-09
8.40745e-10
5.90138e-10
5.10407e-10
5.39517e-10
6.30838e-10
7.84227e-10
9.67945e-10
1.21225e-09
1.73539e-09
2.733e-09
3.77407e-09
3.75201e-09
5.30068e-08
4.77724e-07
1.65985e-08
1.29715e-08
8.38572e-09
4.29241e-09
1.91665e-09
9.68204e-10
5.38424e-10
3.63267e-10
3.1376e-10
3.40866e-10
4.5595e-10
6.6477e-10
9.38284e-10
1.48577e-09
2.51948e-09
3.8338e-09
4.58303e-09
1.63432e-08
7.67829e-09
1.25015e-08
1.06687e-08
7.57989e-09
4.54598e-09
2.05765e-09
1.02399e-09
5.14409e-10
2.89875e-10
2.06235e-10
2.01109e-10
2.81191e-10
4.96245e-10
8.06941e-10
1.4064e-09
2.48409e-09
4.06659e-09
6.19288e-09
6.81113e-09
8.5714e-09
7.14909e-09
6.44541e-09
4.81031e-09
3.18939e-09
1.69108e-09
8.76292e-10
4.32465e-10
2.23541e-10
1.44451e-10
1.39137e-10
2.17811e-10
4.26771e-10
7.7736e-10
1.45087e-09
2.60268e-09
4.47624e-09
7.69984e-09
9.79669e-09
1.06173e-08
3.90432e-09
3.50249e-09
2.63629e-09
1.78784e-09
1.01814e-09
5.45683e-10
2.74603e-10
1.43008e-10
9.68216e-11
1.08511e-10
2.07803e-10
4.28991e-10
8.35315e-10
1.58902e-09
2.85273e-09
5.03306e-09
9.77895e-09
1.1095e-08
1.15819e-08
1.94201e-09
1.68758e-09
1.25361e-09
8.32088e-10
4.7584e-10
2.60186e-10
1.37645e-10
7.92821e-11
6.86587e-11
1.07662e-10
2.32377e-10
4.8766e-10
9.66982e-10
1.81417e-09
3.21656e-09
5.97323e-09
1.19895e-08
1.78262e-08
1.14617e-08
8.5267e-10
6.9478e-10
4.84058e-10
3.13385e-10
1.82005e-10
1.00994e-10
5.72724e-11
4.31442e-11
5.93533e-11
1.26962e-10
2.77978e-10
5.89796e-10
1.16654e-09
2.12102e-09
3.72491e-09
7.47836e-09
1.62275e-08
1.98696e-08
1.499e-08
3.24199e-10
2.51751e-10
1.66534e-10
1.0259e-10
5.72977e-11
3.26231e-11
2.44105e-11
3.26291e-11
6.89897e-11
1.56781e-10
3.50929e-10
7.4123e-10
1.43528e-09
2.50524e-09
4.43829e-09
1.00954e-08
2.18322e-08
4.67037e-08
1.82427e-08
1.03074e-10
7.22054e-11
4.36494e-11
2.51599e-11
1.45148e-11
1.13513e-11
1.72014e-11
3.76709e-11
8.85025e-11
2.02698e-10
4.53501e-10
9.44708e-10
1.7683e-09
2.95605e-09
5.45235e-09
1.3958e-08
4.19218e-08
4.7217e-08
2.91003e-08
2.63042e-11
1.74117e-11
1.00076e-11
5.8653e-12
5.02621e-12
8.41386e-12
2.05015e-11
4.95959e-11
1.17314e-10
2.65343e-10
5.87739e-10
1.20115e-09
2.15812e-09
3.44469e-09
6.90525e-09
2.21691e-08
5.19357e-08
1.00478e-07
3.00277e-08
5.2372e-12
3.02754e-12
1.79939e-12
1.91976e-12
4.06694e-12
1.05591e-11
2.75007e-11
6.60742e-11
1.54059e-10
3.4469e-10
7.53471e-10
1.50431e-09
2.58212e-09
3.91839e-09
8.86216e-09
2.90952e-08
1.0079e-07
1.04651e-07
3.25961e-08
7.73307e-13
4.89839e-13
6.79744e-13
1.91032e-12
5.45963e-12
1.38926e-11
3.61261e-11
8.53715e-11
1.96715e-10
4.39678e-10
9.46519e-10
1.83955e-09
3.01834e-09
4.2872e-09
1.04816e-08
5.30082e-08
1.07574e-07
1.14499e-07
3.05831e-08
1.12487e-13
1.88189e-13
7.37139e-13
2.47225e-12
6.92434e-12
1.812e-11
4.45549e-11
1.05594e-10
2.42084e-10
5.43841e-10
1.15443e-09
2.19239e-09
3.47507e-09
4.39735e-09
1.53929e-08
6.30202e-08
1.13094e-07
1.09825e-07
2.75322e-08
3.51204e-14
1.96281e-13
9.11691e-13
2.92533e-12
8.17665e-12
2.08615e-11
5.12853e-11
1.22262e-10
2.88092e-10
6.47774e-10
1.36626e-09
2.56761e-09
3.95172e-09
6.25929e-09
1.97003e-08
6.66054e-08
1.11051e-07
8.82452e-08
1.6239e-08
2.97149e-14
2.11798e-13
1.00614e-12
3.16966e-12
8.5837e-12
2.22993e-11
5.58748e-11
1.35971e-10
3.23974e-10
7.19283e-10
1.56788e-09
2.88803e-09
4.67212e-09
8.56608e-09
2.04013e-08
5.28251e-08
1.00099e-07
4.04804e-08
9.38307e-09
3.53998e-14
2.34782e-13
9.92911e-13
2.98269e-12
8.14872e-12
2.23817e-11
5.62409e-11
1.4484e-10
3.46933e-10
7.95608e-10
1.65216e-09
3.04807e-09
5.27434e-09
9.24247e-09
1.76525e-08
3.31633e-08
2.78796e-08
1.3628e-08
4.02746e-09
3.80623e-14
2.38638e-13
8.51961e-13
2.63228e-12
7.45352e-12
2.13659e-11
5.6079e-11
1.4232e-10
3.48509e-10
8.00699e-10
1.65139e-09
3.02259e-09
5.35445e-09
8.04306e-09
1.19755e-08
1.88018e-08
4.98988e-09
4.01628e-09
1.61322e-09
3.521e-14
1.87808e-13
6.84049e-13
2.15091e-12
6.71419e-12
1.90042e-11
5.09406e-11
1.30467e-10
3.19587e-10
7.3014e-10
1.50416e-09
2.71641e-09
4.78615e-09
6.38663e-09
6.31051e-09
6.43989e-09
3.53773e-09
6.16168e-10
5.61083e-10
2.87574e-14
1.41443e-13
5.23465e-13
1.78894e-12
5.51979e-12
1.58936e-11
4.26439e-11
1.08696e-10
2.62606e-10
5.9775e-10
1.19856e-09
2.10487e-09
3.47899e-09
4.32049e-09
3.23049e-09
1.50991e-09
3.74239e-10
2.07862e-10
1.83066e-10
2.33662e-14
1.04362e-13
3.92401e-13
1.35137e-12
4.13398e-12
1.19058e-11
3.16483e-11
7.8724e-11
1.84871e-10
4.11145e-10
8.08178e-10
1.35041e-09
1.98449e-09
2.34614e-09
2.06881e-09
9.84002e-10
3.88959e-10
1.58332e-10
7.51305e-11
1.65585e-14
6.85256e-14
2.63103e-13
8.59916e-13
2.65849e-12
7.44161e-12
1.9414e-11
4.70381e-11
1.06941e-10
2.2932e-10
4.37307e-10
7.05067e-10
9.12125e-10
1.12215e-09
1.03363e-09
5.4117e-10
2.15091e-10
8.30187e-11
3.81996e-11
1.02751e-14
3.89819e-14
1.38189e-13
4.385e-13
1.25473e-12
3.38053e-12
8.7599e-12
2.10693e-11
4.65458e-11
9.52813e-11
1.75013e-10
2.79745e-10
3.4638e-10
4.07649e-10
3.40991e-10
1.81118e-10
5.92309e-11
2.20939e-11
1.91919e-11
4.6286e-15
1.62478e-14
5.35531e-14
1.60671e-13
4.50233e-13
1.19131e-12
2.88405e-12
6.90828e-12
1.49404e-11
2.94736e-11
5.11793e-11
7.81907e-11
9.87243e-11
1.02594e-10
7.70619e-11
3.2565e-11
8.76973e-12
6.93789e-12
5.52167e-12
1.13895e-15
3.61698e-15
1.11159e-14
3.13925e-14
8.30863e-14
2.17619e-13
5.05658e-13
1.08953e-12
2.39662e-12
4.5973e-12
7.72907e-12
1.12557e-11
1.34589e-11
1.1126e-11
7.67864e-12
2.81324e-12
1.84928e-12
6.26273e-13
5.92364e-13
)
;

boundaryField
{
    leftWall
    {
        type            alphaContactAngle;
        contactAngleProperties 
        {
            mercury         
            {
                theta0          90;
            }
            air             
            {
                theta0          90;
            }
            water           
            {
                theta0          90;
            }
        }
        value           nonuniform List<scalar> 
50
(
7.14875e-17
3.07668e-16
5.19662e-16
8.46855e-16
1.15952e-15
3.33119e-16
4.44056e-17
3.98841e-18
3.69442e-19
1.16161e-19
2.85781e-19
2.92694e-17
2.22578e-16
2.16501e-12
1.55219e-09
1.39653e-08
5.52831e-08
7.43414e-09
8.6412e-11
8.02737e-09
2.3895e-07
1.33421e-07
1.14582e-08
3.17045e-09
2.00816e-09
8.17682e-10
2.13553e-10
3.41043e-11
4.34835e-12
4.43262e-13
3.51064e-14
2.12807e-15
1.03822e-16
4.69826e-18
8.40285e-20
1.14463e-20
6.3545e-22
3.49894e-23
6.63434e-25
7.26528e-26
5.85089e-27
1.86988e-27
5.17116e-28
1.3846e-28
3.3073e-29
7.33407e-30
1.5413e-30
3.07743e-31
5.85898e-32
9.86257e-33
)
;
    }
    rightWall
    {
        type            alphaContactAngle;
        contactAngleProperties 
        {
            mercury         
            {
                theta0          90;
            }
            air             
            {
                theta0          90;
            }
            water           
            {
                theta0          90;
            }
        }
        value           nonuniform List<scalar> 
50
(
0.280323
0.320216
0.320723
0.323604
0.469681
0.525629
0.457861
0.456328
0.58984
0.534783
0.508296
0.508785
0.834836
0.4469
2.04792e-06
2.24036e-06
2.83256e-06
2.37596e-06
5.79006e-07
4.52925e-07
1.73772e-06
1.73343e-06
1.73772e-06
8.21772e-07
8.67285e-07
6.62328e-07
4.77724e-07
7.67829e-09
8.5714e-09
1.06173e-08
1.15819e-08
1.14617e-08
1.499e-08
1.82427e-08
2.91003e-08
3.00277e-08
3.25961e-08
3.05831e-08
2.75322e-08
1.6239e-08
9.38307e-09
4.02746e-09
1.61322e-09
5.61083e-10
1.83066e-10
7.51305e-11
3.81996e-11
1.91919e-11
5.52167e-12
5.92364e-13
)
;
    }
    lowerWall
    {
        type            alphaContactAngle;
        contactAngleProperties 
        {
            mercury         
            {
                theta0          90;
            }
            air             
            {
                theta0          90;
            }
            water           
            {
                theta0          90;
            }
        }
        value           nonuniform List<scalar> 
62
(
7.14875e-17
2.68664e-15
5.71313e-14
3.58517e-13
1.02029e-12
2.60879e-12
5.95521e-12
1.29439e-11
2.67638e-11
5.36906e-11
1.04015e-10
1.98767e-10
3.74058e-10
6.71427e-10
1.25998e-09
2.22962e-09
3.77697e-09
6.93927e-09
1.10553e-08
1.10907e-08
7.68092e-05
0.000540864
0.000568483
0.000568483
0.000568448
0.000160221
2.06892e-05
1.50991e-06
0.00531949
0.0362854
0.507561
0.999319
0.999698
0.89975
0.59374
0.906779
0.845971
0.751844
0.79576
0.892316
0.908503
0.908441
0.560398
0.906779
0.875616
0.842533
0.893925
0.909822
0.745396
0.12952
0.105219
0.317715
0.443903
0.441632
0.430369
0.155614
0.057057
0.0724442
0.165445
0.198337
0.272764
0.280323
)
;
    }
    atmosphere
    {
        type            inletOutlet;
        inletValue      uniform 0;
        value           nonuniform List<scalar> 
46
(
9.86256e-33
1.84576e-31
2.23979e-30
2.37252e-29
2.20856e-28
1.79903e-27
1.3156e-26
8.72239e-26
4.41655e-25
1.94833e-24
7.35679e-24
2.41388e-23
6.81419e-23
1.67138e-22
3.41939e-22
6.42067e-22
1.12686e-21
2.08561e-21
5.204e-21
2.17193e-20
1.19157e-19
6.56974e-19
4.45443e-18
1.98067e-17
0
0
0
0
0
0
0
0
0
0
0
0
0
0
0
0
0
0
0
0
0
0
)
;
    }
    defaultFaces
    {
        type            empty;
    }
}


// ************************************************************************* //
