/*--------------------------------*- C++ -*----------------------------------*\
  =========                 |
  \\      /  F ield         | OpenFOAM: The Open Source CFD Toolbox
   \\    /   O peration     | Website:  https://openfoam.org
    \\  /    A nd           | Version:  13
     \\/     M anipulation  |
\*---------------------------------------------------------------------------*/
FoamFile
{
    format      ascii;
    class       volScalarField;
    location    "1.15";
    object      alpha.water;
}
// * * * * * * * * * * * * * * * * * * * * * * * * * * * * * * * * * * * * * //

dimensions      [];

internalField   nonuniform List<scalar> 
2268
(
1.88139e-11
2.56807e-11
2.90381e-11
2.91353e-11
2.96264e-11
3.38634e-11
4.35008e-11
5.86456e-11
7.7083e-11
9.7238e-11
1.19249e-10
1.45197e-10
1.79218e-10
2.2159e-10
2.86616e-10
3.75e-10
5.02446e-10
7.57432e-10
1.15381e-09
1.66866e-09
2.24595e-09
2.55727e-09
2.58926e-09
3.49918e-11
6.03259e-11
8.16983e-11
9.85989e-11
1.1146e-10
1.32134e-10
1.67284e-10
2.17568e-10
2.67759e-10
3.4428e-10
4.1203e-10
4.72622e-10
5.0806e-10
5.02001e-10
5.21574e-10
6.31212e-10
8.82024e-10
1.36066e-09
2.03376e-09
2.72337e-09
3.45165e-09
3.36973e-09
2.73252e-09
4.08471e-11
9.04529e-11
1.46733e-10
2.33006e-10
3.23619e-10
4.16172e-10
5.34301e-10
6.83905e-10
9.29562e-10
1.31012e-09
1.56202e-09
1.57898e-09
1.23958e-09
6.90897e-10
5.73865e-10
7.70411e-10
1.06104e-09
1.29805e-09
1.38322e-09
1.99616e-09
2.94875e-09
2.97907e-09
3.179e-09
4.81523e-11
9.39214e-11
1.67516e-10
2.85408e-10
4.88775e-10
7.57138e-10
1.09974e-09
1.82997e-09
2.62757e-09
3.21878e-09
3.55284e-09
3.55831e-09
1.81537e-09
5.88127e-10
5.85086e-10
5.87178e-10
5.81712e-10
5.73927e-10
5.72929e-10
5.73861e-10
5.72929e-10
5.73441e-10
5.73025e-10
1.19708e-10
8.66079e-11
1.18066e-10
2.2626e-10
5.16873e-10
1.46603e-09
1.72105e-09
1.71972e-09
1.93628e-09
1.86162e-09
1.88194e-09
1.654e-09
1.60075e-09
6.00497e-10
0.00400522
0.0193635
0.0351069
0.0513962
0.0692424
0.0879117
0.092657
0.0763131
0.0452098
1.70542e-10
8.3072e-11
7.6113e-11
1.82779e-10
8.14701e-11
9.96924e-10
1.28542e-09
1.42107e-08
2.58564e-09
3.86054e-07
0.0709547
0.196602
0.338456
0.467255
0.569979
0.640272
0.693475
0.735986
0.774368
0.807363
0.79724
0.730209
0.673697
4.96605e-08
9.71275e-08
7.09755e-08
1.05418e-08
9.27005e-11
2.59802e-09
1.16238e-09
0.0378778
0.249083
0.569668
0.801975
0.924639
0.975411
0.994364
0.999702
0.999998
0.999994
0.999975
0.999765
0.998799
0.957889
0.832699
0.785325
0.0624716
0.0134477
0.00713676
0.0247933
0.0327137
0.0806432
0.35863
0.751732
0.955838
1
1
1
1
1
1
1
0.999999
0.999998
0.999998
0.923753
0.498429
0.181042
0.234532
0.0011408
3.43044e-10
3.39767e-10
1.01844e-09
2.22821e-08
2.70056e-07
1.20251e-05
9.32396e-08
5.02232e-08
0.000430078
0.000169717
0.000106053
0.0176857
0.0945279
0.12321
0.123214
0.104725
0.0396838
0.025431
0.0363604
0.171964
0.108262
3.39465e-10
9.90502e-10
3.35417e-10
0.00821182
0.0465214
0.0480496
0.0213743
0.00466405
0.00356796
0.0037233
0.013613
0.0686019
0.121522
0.121203
0.0727196
0.010513
0.137979
0.661071
0.615797
0.125536
3.38832e-10
0.000370609
0.058386
0.144826
0.131216
0.133994
0.108805
0.00522609
0.00173958
0.00712507
0.0288756
0.0346216
0.0196862
0.107757
0.0367673
0.12644
0.85448
0.952889
0.640851
0.0548231
0.0099652
0.261462
0.506686
0.567893
0.371658
0.138624
0.00172529
0.00173841
0.00173905
0.00173389
0.00173378
0.00907486
0.161784
0.096696
0.0795275
0.89713
0.99733
0.978678
0.701753
0.568719
0.808116
0.999749
0.998116
0.739993
0.103051
0.0017622
0.00187375
0.0155997
0.0451391
0.119453
0.326664
0.231239
0.0942597
0.0650275
0.930991
0.999599
0.999887
0.999894
0.995578
0.999783
0.99975
0.999264
0.704465
0.125855
0.0532436
0.11294
0.166185
0.343495
0.572356
0.688161
0.357942
0.146278
0.0500672
0.922928
0.999871
0.999895
0.999875
0.999846
0.999812
0.999784
0.992265
0.795918
0.301984
0.225927
0.280203
0.596258
0.701751
0.701611
0.701314
0.435898
0.309572
0.312659
0.697817
0.963671
0.999535
0.999865
0.999804
0.999765
0.999565
0.996189
0.973827
0.82758
0.722139
0.749353
0.701751
0.700727
0.701751
0.689402
0.343039
0.255681
0.708068
0.572759
0.523671
0.56814
0.735718
0.915812
0.990508
1
1
1
1
1
1
1
1
1
1
1
0.949307
0.505253
0.00623608
0.000457975
0.0138918
1
1
1
1
1
1
1
1
1
1
1
1
1
1
1
1
0.989971
0.771897
0.297221
0.0024012
9.9597e-07
1.01215e-09
2.71846e-07
1
1
1
1
1
1
1
1
1
1
1
1
1
1
0.966032
0.732994
0.375129
0.134292
1.00184e-07
9.51667e-08
1.04095e-06
6.12118e-07
8.97361e-07
1
1
1
1
1
1
1
1
1
1
1
1
0.900923
0.700623
0.418975
0.156762
4.70952e-08
1.20765e-08
1.01346e-05
2.12781e-10
9.77311e-09
4.21749e-09
2.24606e-08
1
1
1
1
1
1
1
1
1
1
0.835172
0.691623
0.404148
0.147483
0.000370503
5.03521e-19
1.22213e-06
4.59898e-06
1.00668e-05
2.17627e-10
4.32402e-10
3.33478e-09
2.71381e-09
1
1
1
1
1
1
0.999067
0.987863
0.798571
0.653413
0.335611
0.129854
0.000550791
1.94359e-18
2.04321e-07
1.08053e-06
1.53658e-06
1.83698e-06
2.25695e-06
3.02706e-10
3.56231e-10
9.96551e-10
5.59391e-10
1
1
1
1
0.999997
0.983813
0.847415
0.643754
0.277792
0.0696135
5.74471e-19
-5.84539e-19
1.44842e-12
1.67864e-09
6.52346e-07
1.31063e-06
1.1068e-06
1.94949e-09
1.16234e-10
7.24719e-10
1.43492e-10
1.96801e-10
1.05229e-10
1
1
1
0.999992
0.990465
0.717494
0.221751
0.000554254
-5.81218e-19
-6.02719e-13
1.36598e-13
-3.95214e-25
1.06635e-09
2.60475e-08
2.33634e-07
4.07242e-07
6.56323e-08
1.7301e-09
1.56181e-10
4.29313e-10
7.00908e-11
4.90696e-11
4.5568e-11
1
1
0.999984
0.978694
0.489517
0.00584659
6.51433e-24
-4.48191e-10
2.91567e-09
9.42654e-08
3.7741e-07
6.38498e-08
7.63708e-08
2.11927e-08
8.42269e-09
4.86223e-08
5.77414e-09
1.744e-09
1.15071e-10
9.7411e-11
6.89956e-11
5.69777e-11
5.34074e-11
1
0.988569
0.859215
0.420625
1.66262e-06
1.41176e-06
7.58629e-06
8.62675e-06
9.54205e-06
2.91777e-06
6.33656e-07
2.62295e-07
3.06205e-08
1.17986e-08
7.82478e-10
7.77171e-10
1.13632e-09
1.16095e-09
1.51834e-10
1.14177e-10
1.21987e-10
1.17594e-10
1.11123e-10
0.955107
0.49815
0.204938
0.0127663
1.41132e-06
4.23585e-05
7.85219e-05
3.52655e-05
4.06235e-08
1.58269e-06
7.28636e-07
1.06982e-07
7.77171e-10
7.82478e-10
7.46292e-10
8.89221e-10
1.4329e-09
1.34629e-09
5.94643e-10
3.4651e-10
3.63669e-10
4.48519e-10
4.12403e-10
0.263679
0.0528424
-1.50046e-07
7.70034e-08
1.17798e-05
7.57596e-05
6.95168e-05
3.77251e-08
2.64905e-08
1.12048e-07
3.69924e-07
2.29691e-07
1.78719e-08
2.55211e-08
6.8558e-10
6.96962e-10
1.02044e-09
1.23497e-09
8.38577e-10
6.79127e-10
7.44144e-10
8.75298e-10
1.06458e-09
-1.19126e-08
1.50965e-09
1.5737e-07
1.01252e-07
3.14634e-07
7.2752e-08
4.89048e-08
6.39299e-07
8.51754e-09
5.32896e-09
1.46605e-08
1.79421e-07
4.51034e-07
3.43454e-07
2.54027e-09
6.67309e-10
7.5971e-10
6.26127e-10
6.36593e-10
6.26401e-10
6.36746e-10
6.26242e-10
7.05476e-10
1.82927e-07
1.01197e-07
2.807e-09
2.01846e-08
7.39656e-08
6.54895e-08
4.77233e-08
8.23804e-08
4.14495e-08
1.94842e-09
1.29023e-09
1.03008e-07
4.34056e-07
1.32588e-06
1.61759e-06
5.97568e-07
5.10304e-10
6.38605e-10
6.22423e-10
6.36592e-10
6.26397e-10
6.38609e-10
6.00747e-10
6.48963e-08
3.66034e-08
4.42835e-09
1.26028e-08
3.68658e-08
3.2434e-08
1.7756e-08
1.28342e-08
1.57483e-08
2.96122e-09
1.38135e-09
1.2883e-09
4.71918e-09
5.67726e-07
2.89141e-06
3.10362e-06
2.90924e-06
1.4807e-06
6.12541e-07
9.83913e-07
1.29081e-06
5.01825e-07
2.26014e-07
3.23467e-08
2.13049e-08
1.85918e-08
8.74604e-09
2.34814e-08
2.40649e-08
1.32748e-08
7.60559e-09
6.85904e-09
2.87517e-09
1.43622e-09
1.29537e-09
9.39813e-10
3.88154e-09
3.74771e-07
1.4029e-06
3.09151e-06
3.74127e-06
3.64597e-06
3.69727e-06
3.85413e-06
4.10279e-06
3.84589e-06
2.01527e-08
1.8819e-08
2.01415e-08
6.13067e-09
5.77151e-09
7.29128e-09
6.01632e-09
4.95438e-09
4.84399e-09
2.79468e-09
1.38279e-09
1.28115e-09
7.72819e-10
4.28354e-10
1.18052e-09
2.40787e-08
3.8107e-07
1.15171e-06
2.19112e-06
2.32709e-06
2.30421e-06
2.07312e-06
2.73964e-06
1.37521e-08
1.49221e-08
1.80177e-08
5.80711e-09
5.30786e-09
5.84243e-09
2.85461e-09
3.23599e-09
3.7361e-09
3.28064e-09
1.56642e-09
1.04862e-09
7.11588e-10
3.8868e-10
3.00677e-10
3.00329e-10
4.77428e-10
2.57292e-09
2.25161e-08
3.61125e-07
4.40208e-07
3.77351e-07
4.61816e-07
1.09725e-08
1.04745e-08
1.29651e-08
5.70913e-09
4.84226e-09
4.53078e-09
2.75702e-09
2.29124e-09
3.09546e-09
3.26389e-09
2.43829e-09
1.3091e-09
7.31706e-10
4.06655e-10
3.10486e-10
3.26209e-10
3.4143e-10
3.70177e-10
3.26952e-10
4.15351e-10
3.11244e-08
3.4863e-08
3.22984e-08
9.22851e-09
6.88518e-09
7.99623e-09
4.63612e-09
3.96249e-09
3.47504e-09
2.59817e-09
2.0544e-09
2.4566e-09
2.72391e-09
2.58338e-09
1.84026e-09
1.08655e-09
5.37514e-10
2.86992e-10
2.32426e-10
2.89985e-10
3.8077e-10
4.01989e-10
2.94877e-10
2.20004e-10
1.72904e-09
2.47066e-09
7.17825e-09
4.39336e-09
4.44517e-09
3.11186e-09
2.81798e-09
2.40893e-09
2.09633e-09
1.72567e-09
1.82045e-09
2.06128e-09
2.12186e-09
1.78585e-09
1.26308e-09
7.60835e-10
3.61119e-10
1.7566e-10
1.55202e-10
1.92767e-10
2.28962e-10
2.32325e-10
2.12796e-10
2.1953e-10
3.05849e-10
4.92958e-09
2.69097e-09
2.29823e-09
1.78467e-09
1.72009e-09
1.51429e-09
1.42606e-09
1.26434e-09
1.24819e-09
1.36939e-09
1.49696e-09
1.32338e-09
1.04336e-09
7.22197e-10
4.06061e-10
1.6051e-10
1.04995e-10
9.38319e-11
1.10219e-10
1.2342e-10
1.28868e-10
1.3625e-10
1.39052e-10
2.9823e-09
1.53769e-09
1.11763e-09
8.95086e-10
8.97181e-10
8.32823e-10
8.29009e-10
7.81425e-10
7.59947e-10
8.07356e-10
9.16677e-10
8.36039e-10
7.05992e-10
5.18719e-10
3.27532e-10
1.46445e-10
6.92033e-11
5.60488e-11
5.06033e-11
6.17056e-11
7.03462e-11
7.42789e-11
8.00847e-11
1.56637e-09
8.05225e-10
5.14514e-10
3.95756e-10
3.98258e-10
3.9006e-10
4.0823e-10
4.02339e-10
3.9749e-10
4.19735e-10
4.30229e-10
4.39693e-10
3.92909e-10
3.06221e-10
2.04609e-10
1.04921e-10
4.23799e-11
2.92117e-11
2.70823e-11
2.93534e-11
3.55347e-11
4.05842e-11
4.26884e-11
7.12426e-10
3.84948e-10
2.24472e-10
1.57213e-10
1.50701e-10
1.53855e-10
1.68777e-10
1.72962e-10
1.75934e-10
1.87942e-10
1.99827e-10
1.97557e-10
1.81425e-10
1.46536e-10
1.01675e-10
5.66179e-11
2.19539e-11
1.55616e-11
1.32629e-11
1.49961e-11
1.75526e-11
1.96952e-11
2.18385e-11
2.89306e-10
1.62096e-10
8.97876e-11
5.62168e-11
4.96855e-11
5.13583e-11
5.85325e-11
6.23353e-11
6.57527e-11
7.13095e-11
7.64475e-11
7.56663e-11
6.99338e-11
5.78297e-11
4.139e-11
2.32143e-11
9.15658e-12
6.59126e-12
6.14969e-12
6.98629e-12
8.1964e-12
9.7025e-12
9.96363e-12
7.71779e-11
5.87372e-11
3.22998e-11
1.84319e-11
1.45949e-11
1.4736e-11
1.71456e-11
1.88307e-11
2.06544e-11
2.30325e-11
2.48373e-11
2.45996e-11
2.27041e-11
1.82544e-11
1.27675e-11
7.30467e-12
3.40002e-12
2.62611e-12
2.68007e-12
3.20987e-12
3.76899e-12
4.06858e-12
4.29608e-12
2.50464e-11
1.79835e-11
1.00485e-11
5.67005e-12
3.95363e-12
3.68163e-12
4.29336e-12
4.8109e-12
5.62103e-12
6.30663e-12
6.89046e-12
6.81463e-12
6.25929e-12
4.97732e-12
3.47583e-12
2.00865e-12
1.09965e-12
9.55031e-13
1.07087e-12
1.2963e-12
1.50689e-12
1.6356e-12
1.5671e-12
6.16591e-12
4.95962e-12
2.84294e-12
1.57404e-12
9.92361e-13
8.20382e-13
9.3047e-13
1.05706e-12
1.11506e-12
1.46536e-12
1.64474e-12
1.62458e-12
1.48017e-12
1.18358e-12
8.23493e-13
4.59468e-13
3.13041e-13
3.31825e-13
3.90341e-13
4.80416e-13
5.32631e-13
5.07287e-13
4.84993e-13
1.47726e-12
1.33257e-12
7.65952e-13
3.95155e-13
2.32523e-13
1.67352e-13
1.69188e-13
1.94221e-13
2.2127e-13
2.93633e-13
3.30663e-13
3.29566e-13
3.02189e-13
2.41322e-13
1.64e-13
1.01046e-13
9.6157e-14
1.07452e-13
1.26855e-13
1.51509e-13
1.58351e-13
1.49537e-13
1.21354e-13
2.48517e-13
2.95421e-13
1.77531e-13
9.07137e-14
4.9998e-14
3.18911e-14
2.68508e-14
2.38688e-14
3.58109e-14
5.19743e-14
5.62379e-14
5.78467e-14
5.05599e-14
4.04927e-14
2.8757e-14
2.3201e-14
2.23939e-14
2.87682e-14
3.63143e-14
4.10097e-14
3.94189e-14
3.06778e-14
2.40104e-14
6.07723e-14
5.56473e-14
3.43815e-14
1.80058e-14
9.5779e-15
5.80364e-15
4.22171e-15
3.54604e-15
5.32238e-15
6.03538e-15
8.46656e-15
8.37715e-15
7.21247e-15
6.12913e-15
4.9411e-15
4.6293e-15
5.61461e-15
6.92809e-15
8.40508e-15
9.31257e-15
8.51894e-15
6.02734e-15
3.70359e-15
8.73392e-15
9.47852e-15
5.97439e-15
3.09042e-15
1.62559e-15
7.74681e-16
5.11782e-16
4.98704e-16
5.27099e-16
9.6125e-16
1.06036e-15
1.04044e-15
9.59477e-16
7.63742e-16
7.33063e-16
9.32671e-16
1.2425e-15
1.52515e-15
1.80466e-15
1.76001e-15
1.36365e-15
7.63997e-16
4.24038e-16
1.63678e-15
1.39268e-15
7.66527e-16
3.86222e-16
1.94346e-16
1.1504e-16
7.14855e-17
4.97256e-17
7.20485e-17
9.86723e-17
1.1341e-16
1.1994e-16
1.11999e-16
1.04375e-16
1.25796e-16
1.76629e-16
2.37644e-16
2.89051e-16
2.99925e-16
2.5971e-16
1.67924e-16
8.82599e-17
4.48187e-17
2.05605e-16
1.80295e-16
1.12455e-16
5.68806e-17
2.755e-17
1.53874e-17
8.83788e-18
5.84573e-18
6.71418e-18
8.79678e-18
1.12456e-17
1.24818e-17
1.25596e-17
1.481e-17
2.10802e-17
3.02134e-17
3.949e-17
4.4971e-17
4.22055e-17
3.1538e-17
1.86072e-17
8.71387e-18
3.56783e-18
2.58244e-17
2.17029e-17
1.40582e-17
7.16122e-18
3.45964e-18
1.77547e-18
9.55258e-19
5.67514e-19
5.78121e-19
7.50564e-19
1.01076e-18
1.17525e-18
1.4178e-18
2.0538e-18
3.19487e-18
4.5151e-18
5.53909e-18
5.72926e-18
4.80532e-18
3.16591e-18
1.66625e-18
6.23676e-19
8.70342e-20
2.80571e-18
2.39857e-18
1.4651e-18
7.45205e-19
3.63498e-19
1.82971e-19
9.31372e-20
5.04959e-20
4.55182e-20
5.95066e-20
8.16583e-20
1.08423e-19
1.63237e-19
2.70042e-19
4.26667e-19
5.7889e-19
6.56925e-19
6.13287e-19
4.59279e-19
2.71816e-19
1.1134e-19
2.03828e-20
2.32052e-21
2.71979e-19
2.35479e-19
1.36851e-19
6.88539e-20
3.35938e-20
1.65453e-20
8.00668e-21
3.98519e-21
3.22781e-21
4.26777e-21
6.4177e-21
1.04606e-20
1.87447e-20
3.25144e-20
5.01312e-20
6.45352e-20
6.76236e-20
5.78484e-20
3.81655e-20
1.87077e-20
5.12549e-21
6.57199e-22
1.64328e-23
2.35674e-20
2.04291e-20
1.1556e-20
5.72441e-21
2.75975e-21
1.32583e-21
6.11686e-22
2.8121e-22
2.10837e-22
2.97025e-22
5.34304e-22
1.05344e-21
2.06247e-21
3.56372e-21
5.2785e-21
6.40971e-21
6.22164e-21
4.82146e-21
2.7522e-21
1.05008e-21
2.33253e-22
1.23131e-23
8.0369e-25
1.86163e-21
1.59335e-21
8.85948e-22
4.32116e-22
2.04654e-22
9.56395e-23
4.21582e-23
1.80245e-23
1.33675e-23
2.20467e-23
4.80343e-23
1.06233e-22
2.12527e-22
3.58623e-22
5.07982e-22
5.79109e-22
5.23541e-22
3.60566e-22
1.76176e-22
5.62975e-23
6.81378e-24
5.38021e-25
4.86101e-27
1.37437e-22
1.14669e-22
6.18528e-23
2.85824e-23
1.32285e-23
5.99678e-24
2.53174e-24
1.046e-24
8.77849e-25
1.80226e-24
4.47686e-24
1.03077e-23
2.03325e-23
3.33837e-23
4.47835e-23
4.8085e-23
4.06586e-23
2.49649e-23
1.0663e-23
2.72979e-24
2.3568e-25
3.00553e-27
1.49495e-28
9.15e-24
7.43594e-24
3.79719e-24
1.65276e-24
7.48358e-25
3.27977e-25
1.32872e-25
5.60593e-26
6.17815e-26
1.55746e-25
4.10411e-25
9.38895e-25
1.80027e-24
2.88052e-24
3.60546e-24
3.69199e-24
2.94032e-24
1.64662e-24
6.29672e-25
1.3396e-25
8.87748e-27
6.84124e-29
4.83154e-29
0.00022437
3.17112e-11
4.25004e-11
0.0697968
0.000229466
4.25004e-11
0.000234621
0.00429084
1.42393e-05
4.10333e-11
1.6792e-09
5.25669e-09
4.29589e-09
6.62043e-09
1.16937e-09
2.26342e-09
3.92665e-09
2.16025e-09
3.22325e-10
8.46183e-10
8.9096e-10
3.51274e-10
3.33869e-10
4.23896e-10
1.22574e-10
1.7659e-10
2.1887e-10
2.29385e-10
4.55088e-11
5.15881e-11
5.96308e-11
5.93196e-11
5.40909e-11
5.42249e-11
5.27134e-11
5.1336e-11
1.2264e-10
1.26769e-10
1.23379e-10
1.19434e-10
4.33924e-10
3.79774e-10
3.41533e-10
3.26145e-10
1.06131e-09
8.28214e-10
6.42665e-10
5.939e-10
7.97462e-10
7.3617e-10
6.63698e-10
6.30397e-10
6.2988e-10
6.00749e-10
6.29884e-10
1.48769e-09
5.40594e-08
1.08658e-07
1.30395e-07
8.60435e-08
2.875e-06
6.28046e-07
1.3566e-07
1.23701e-07
3.83904e-06
1.34804e-06
2.72701e-07
1.96061e-07
5.51179e-07
3.84362e-07
1.32801e-07
3.01698e-08
2.64627e-08
1.44941e-08
1.07258e-08
2.66786e-09
6.49822e-10
8.27641e-10
7.81312e-10
4.99445e-10
2.29809e-10
2.13705e-10
2.22544e-10
2.14452e-10
1.36624e-10
1.33599e-10
1.31593e-10
1.29422e-10
8.00645e-11
7.8926e-11
7.77744e-11
7.60388e-11
4.28725e-11
4.24914e-11
4.21089e-11
4.15503e-11
2.20791e-11
2.20265e-11
2.17681e-11
2.12705e-11
1.00335e-11
9.89806e-12
9.61121e-12
9.4019e-12
4.27295e-12
4.13512e-12
3.98935e-12
3.75359e-12
1.50631e-12
1.42982e-12
1.29469e-12
1.2218e-12
4.60647e-13
4.09119e-13
3.69638e-13
3.28761e-13
1.0766e-13
9.25851e-14
7.38595e-14
6.34369e-14
2.04297e-14
1.60219e-14
1.28694e-14
1.00461e-14
2.8083e-15
2.04931e-15
1.47829e-15
1.07413e-15
2.999e-16
2.12792e-16
1.61694e-16
7.69973e-17
2.74783e-17
9.7404e-18
3.65092e-18
1.47292e-18
4.91671e-19
4.15601e-20
1.43347e-20
1.10752e-20
7.21159e-28
2.45673e-24
1.26042e-23
2.48374e-23
6.70317e-28
1.59061e-26
6.26027e-26
1.16752e-25
6.19575e-28
2.20421e-27
8.47126e-27
2.60056e-26
5.58286e-28
2.02359e-27
7.38816e-27
2.22751e-26
4.90815e-28
1.84474e-27
6.16477e-27
1.9086e-26
3.00775e-28
1.25483e-27
4.1993e-27
1.19988e-26
1.96231e-28
6.24978e-28
1.80805e-27
4.4052e-27
0.281198
0.2464
0.453162
0.819722
0.990134
0.998301
0.99975
0.999747
0.999234
0.999114
0.988837
0.925012
0.822891
0.612368
0.388109
0.237785
0.232259
0.181272
0.0917426
9.99384e-10
5.72335e-09
9.99796e-10
0.0514131
0.256888
0.617259
0.922747
0.977515
0.993479
0.985185
0.891572
0.629458
0.25797
0.0535528
0.000186359
2.17808e-24
1.41242e-11
0.0281266
0.0292052
1.44692e-08
3.2827e-08
4.1819e-09
2.28272e-06
3.45072e-09
0.0138863
0.10298
0.294192
0.433396
0.362968
0.153669
3.65422e-17
2.88556e-13
-3.46197e-31
2.88779e-15
1.30671e-16
7.75498e-13
0.00241706
0.036362
1.46858e-08
4.44997e-08
5.01278e-08
3.28704e-08
2.96373e-09
1.92188e-17
8.52273e-20
2.46282e-19
3.20863e-18
6.58919e-17
9.54315e-16
5.91153e-16
4.7433e-09
2.90433e-15
1.1451e-06
1.42775e-05
2.66681e-09
0.0069341
0.0381525
3.74278e-09
1.15187e-08
1.91151e-08
1.73755e-08
5.96018e-09
1.31009e-08
7.66065e-09
1.8503e-09
6.41291e-09
2.57145e-08
6.73733e-08
1.2933e-07
1.46266e-07
8.70639e-10
4.18795e-06
2.85471e-05
6.29785e-06
0.000625658
0.00526291
4.89474e-10
3.11819e-10
4.19845e-10
2.08809e-09
2.91526e-09
5.38215e-09
6.19898e-09
1.05827e-08
2.09628e-08
9.18601e-08
2.45168e-07
2.52996e-07
1.9306e-07
3.25209e-07
7.48268e-06
2.77983e-05
7.20652e-08
6.99797e-12
6.32964e-12
2.34132e-10
2.77405e-10
3.53066e-10
4.55114e-10
6.44696e-10
4.29891e-10
6.06962e-11
1.33287e-11
1.29252e-11
6.29289e-10
6.25495e-08
6.37523e-08
1.2293e-07
2.00367e-06
6.74616e-06
6.30063e-06
2.11941e-11
2.25958e-11
5.52455e-12
6.11771e-11
7.47484e-11
1.16649e-10
1.68345e-10
1.88089e-10
1.64534e-10
1.33465e-10
6.76635e-11
1.32134e-11
2.56658e-12
2.65802e-12
9.16675e-12
1.10134e-09
2.16679e-07
6.4892e-07
1.44206e-07
5.03446e-11
3.91832e-11
3.40964e-12
4.82956e-11
4.20998e-11
3.60196e-11
3.11241e-11
2.2654e-11
1.77696e-11
1.42693e-11
1.19749e-11
8.18165e-12
4.0497e-12
2.63883e-12
3.02595e-12
4.01253e-12
4.12852e-12
8.14255e-12
8.91872e-11
1.41292e-11
3.46879e-12
1.81964e-13
1.13026e-10
9.90786e-11
8.45231e-11
7.66968e-11
5.68747e-11
3.80879e-11
3.39955e-11
3.00221e-11
1.80613e-11
1.11364e-11
6.58703e-12
4.42059e-12
5.26007e-12
1.01693e-11
1.22786e-11
6.41807e-12
3.35464e-12
4.54568e-13
1.04278e-13
2.99335e-10
2.28506e-10
1.71325e-10
1.45489e-10
1.10789e-10
9.42994e-11
8.19249e-11
5.46528e-11
3.45422e-11
2.41019e-11
1.26642e-11
5.52437e-12
2.93191e-12
2.04212e-12
1.50201e-12
1.29714e-12
1.07485e-12
5.49153e-13
1.11689e-13
5.26676e-10
3.5797e-10
2.71733e-10
2.44689e-10
2.29232e-10
1.90667e-10
1.45439e-10
1.0393e-10
6.6841e-11
4.50076e-11
2.07663e-11
1.1912e-11
5.69515e-12
3.69063e-12
2.71465e-12
2.14755e-12
1.50767e-12
6.89781e-13
1.29297e-13
8.41006e-10
1.31004e-09
9.69087e-10
7.38308e-10
5.31222e-10
3.63524e-10
2.58758e-10
2.0093e-10
1.36036e-10
6.83303e-11
3.28518e-11
1.77646e-11
9.94474e-12
6.04147e-12
3.72902e-12
2.45298e-12
1.57559e-12
7.6296e-13
1.36537e-13
5.8859e-09
5.88277e-09
5.94846e-09
4.97118e-09
2.22275e-09
9.53418e-10
4.84881e-10
4.10396e-10
2.22868e-10
7.84319e-11
4.7533e-11
2.8507e-11
1.66192e-11
9.24654e-12
4.87058e-12
2.62069e-12
1.56375e-12
8.12222e-13
1.42736e-13
5.99757e-08
1.132e-08
1.38865e-08
1.36323e-08
7.33375e-09
3.58937e-09
1.66275e-09
9.08836e-10
2.53888e-10
1.03294e-10
6.17417e-11
3.51787e-11
2.15097e-11
1.15738e-11
5.35592e-12
2.58285e-12
1.4941e-12
8.13918e-13
1.45272e-13
3.4898e-08
3.0315e-08
2.64345e-08
2.13313e-08
1.07263e-08
6.6836e-09
3.58816e-09
1.50948e-09
5.95609e-10
1.94342e-10
7.52509e-11
3.85495e-11
2.2157e-11
1.17622e-11
5.39449e-12
2.50169e-12
1.39401e-12
6.86203e-13
1.41783e-13
1.95102e-07
1.10593e-07
3.90621e-08
2.47714e-08
1.1694e-08
8.19648e-09
5.0643e-09
2.59424e-09
1.12576e-09
4.08176e-10
1.12175e-10
3.83016e-11
2.09923e-11
1.164e-11
5.47096e-12
2.41895e-12
1.21672e-12
5.05497e-13
1.31344e-13
1.40653e-08
1.65417e-08
4.60517e-08
2.55305e-08
1.11993e-08
8.08873e-09
4.97723e-09
2.81707e-09
1.38036e-09
5.95125e-10
1.90837e-10
3.82865e-11
1.7237e-11
1.00605e-11
5.09186e-12
2.2868e-12
1.01895e-12
4.36483e-13
1.03285e-13
1.44897e-09
4.80947e-09
1.19522e-08
9.45314e-09
7.69448e-09
6.02024e-09
4.09145e-09
2.39104e-09
1.3189e-09
6.3332e-10
2.43616e-10
4.57312e-11
1.26262e-11
7.41426e-12
4.13149e-12
2.01886e-12
7.86326e-13
3.11662e-13
8.75544e-14
4.7491e-10
1.39322e-09
2.54283e-09
3.64577e-09
4.04218e-09
3.35238e-09
2.51412e-09
1.67808e-09
1.00404e-09
5.51778e-10
2.47554e-10
5.11746e-11
9.1212e-12
4.89649e-12
2.85233e-12
1.05751e-12
3.7515e-13
2.16312e-13
6.4475e-14
2.11292e-10
2.66627e-10
4.77036e-10
1.35721e-09
1.96333e-09
1.73343e-09
1.33704e-09
9.26731e-10
5.84998e-10
3.51746e-10
1.8653e-10
4.34448e-11
6.58702e-12
2.93599e-12
1.54359e-12
3.37441e-13
1.2693e-13
1.32061e-13
5.55428e-14
1.2565e-10
1.34262e-10
1.89607e-10
3.66941e-10
6.54226e-10
6.44058e-10
5.3602e-10
3.98023e-10
2.70844e-10
1.76845e-10
1.0129e-10
2.68611e-11
4.35233e-12
7.21864e-13
2.22012e-13
8.66437e-14
6.04395e-14
8.19869e-14
3.80465e-14
7.26513e-11
7.40913e-11
9.12126e-11
1.37096e-10
2.04212e-10
2.01686e-10
1.73816e-10
1.36466e-10
1.00142e-10
7.44118e-11
4.03696e-11
1.16044e-11
1.17166e-12
1.25638e-13
4.27248e-14
3.24141e-14
3.35008e-14
3.74584e-14
2.28353e-14
4.0029e-11
3.97632e-11
4.45304e-11
6.01335e-11
6.78566e-11
6.39423e-11
5.57829e-11
4.54505e-11
3.59631e-11
2.77884e-11
9.8436e-12
1.79361e-12
1.75008e-13
2.13273e-14
1.34213e-14
1.60044e-14
1.85459e-14
1.89853e-14
1.24685e-14
1.99719e-11
1.93964e-11
2.03618e-11
2.26912e-11
2.17279e-11
1.9254e-11
1.62618e-11
1.34609e-11
1.14906e-11
5.12654e-12
1.27161e-12
1.92897e-13
2.02791e-14
4.72949e-15
5.44474e-15
7.70532e-15
1.00474e-14
9.36724e-15
7.1073e-15
8.87777e-12
8.59328e-12
8.19136e-12
7.47437e-12
6.37508e-12
5.29197e-12
4.37687e-12
3.76152e-12
1.85884e-12
5.83917e-13
1.27289e-13
1.88569e-14
2.11593e-15
1.44353e-15
2.17637e-15
3.6986e-15
5.16854e-15
4.66662e-15
2.53254e-15
3.34154e-12
2.92485e-12
2.44279e-12
2.00331e-12
1.59921e-12
1.29519e-12
1.0688e-12
4.89543e-13
1.45276e-13
4.09421e-14
1.03798e-14
1.59873e-15
3.16096e-16
4.28229e-16
8.95049e-16
1.70889e-15
2.51706e-15
2.34134e-15
9.56281e-16
1.04528e-12
8.5902e-13
6.49741e-13
4.77577e-13
3.65469e-13
2.73253e-13
1.12015e-13
3.40582e-14
1.14318e-14
3.83449e-15
8.57632e-16
9.21934e-17
6.6881e-17
1.42243e-16
3.67709e-16
7.61918e-16
1.1252e-15
1.04145e-15
4.11188e-16
2.42789e-13
1.70956e-13
1.14417e-13
8.66473e-14
5.02355e-14
1.66872e-14
4.88502e-15
1.8935e-15
8.06377e-16
2.65418e-16
4.10784e-17
7.20273e-18
1.47446e-17
4.84881e-17
1.42607e-16
3.00377e-16
4.85792e-16
4.14312e-16
1.50847e-16
4.23517e-14
2.7379e-14
1.93078e-14
8.01837e-15
2.07724e-15
5.09046e-16
1.44292e-16
3.31685e-17
3.73641e-18
1.86676e-19
2.0143e-19
7.35099e-19
3.79619e-18
1.57323e-17
5.04861e-17
1.14443e-16
1.91864e-16
1.76999e-16
5.68916e-17
5.84853e-15
3.78361e-15
1.40767e-15
3.17297e-16
5.18971e-17
5.30244e-18
1.96241e-19
4.00604e-21
5.01687e-21
1.32691e-20
4.29578e-20
1.65829e-19
1.04949e-18
4.6727e-18
1.71884e-17
3.7567e-17
8.97729e-17
5.81046e-17
2.26041e-17
6.62934e-16
1.96986e-16
4.13799e-17
8.82587e-18
1.26531e-18
6.14207e-20
1.88007e-21
2.25382e-21
4.60409e-21
1.04594e-20
2.31867e-20
5.99474e-20
3.23046e-19
1.54439e-18
5.47696e-18
1.40571e-17
3.72159e-17
2.76405e-17
7.58425e-18
2.16367e-17
4.88116e-18
1.1628e-18
2.00753e-19
1.94365e-20
1.10525e-21
1.07651e-21
2.10231e-21
4.77891e-21
1.05171e-20
2.24982e-20
4.36253e-20
1.237e-19
5.50873e-19
2.06244e-18
8.10909e-18
1.03583e-17
7.35181e-18
1.91589e-18
4.32241e-19
9.08473e-20
2.11778e-20
2.80824e-21
3.38867e-22
4.05156e-22
8.2349e-22
2.07298e-21
4.88505e-21
1.09636e-20
2.22686e-20
3.92905e-20
6.82238e-20
2.63709e-19
1.34175e-18
3.46533e-18
3.69074e-18
1.80384e-18
3.23498e-19
5.3596e-21
1.08497e-21
1.02944e-22
6.41778e-23
1.1406e-22
2.95674e-22
7.67391e-22
1.92779e-21
4.60577e-21
9.98011e-21
2.05644e-20
3.6055e-20
5.25398e-20
1.96232e-19
7.8311e-19
1.51048e-18
1.15698e-18
4.39137e-19
5.65515e-20
2.70911e-23
1.23685e-23
1.17487e-23
2.82794e-23
8.57547e-23
2.41596e-22
6.42908e-22
1.62313e-21
3.86459e-21
8.54401e-21
1.73393e-20
3.02794e-20
4.51492e-20
1.29112e-19
3.56079e-19
5.29395e-19
3.43911e-19
8.25324e-20
1.05698e-20
4.32925e-25
1.73942e-24
6.2563e-24
2.12047e-23
6.48601e-23
1.84423e-22
4.87768e-22
1.21907e-21
2.85498e-21
6.23932e-21
1.22242e-20
2.0873e-20
3.08616e-20
6.71637e-20
1.24864e-19
1.19479e-19
4.74103e-20
1.13377e-20
2.51489e-21
2.65096e-25
1.17358e-24
4.34877e-24
1.4744e-23
4.4247e-23
1.24946e-22
3.24481e-22
7.84064e-22
1.77584e-21
3.77792e-21
7.14964e-21
1.16938e-20
1.66145e-20
3.09508e-20
3.07659e-20
1.93674e-20
6.5473e-21
2.22877e-21
9.87942e-22
1.76494e-25
7.18353e-25
2.70073e-24
8.61542e-24
2.59571e-23
7.05423e-23
1.77836e-22
4.14148e-22
9.01286e-22
1.8403e-21
3.33213e-21
5.18042e-21
6.85903e-21
9.63966e-21
7.05579e-21
3.29561e-21
1.21103e-21
7.18927e-22
4.47628e-22
1.03216e-25
3.81567e-25
1.31286e-24
4.03827e-24
1.11522e-23
2.88814e-23
7.17355e-23
1.64801e-22
3.46038e-22
6.70109e-22
1.15671e-21
1.73373e-21
2.05175e-21
2.26964e-21
1.33553e-21
7.4315e-22
3.37374e-22
2.06585e-22
2.15335e-22
4.40763e-26
1.50167e-25
4.79395e-25
1.3886e-24
3.74032e-24
9.45913e-24
2.17926e-23
4.94668e-23
1.0096e-22
1.8613e-22
2.99241e-22
4.16918e-22
4.6874e-22
4.2272e-22
2.2654e-22
1.45407e-22
5.9216e-23
6.48552e-23
6.13079e-23
1.05831e-26
3.25737e-26
9.66349e-26
2.62446e-25
6.63676e-25
1.65164e-24
3.62776e-24
7.35193e-24
1.51513e-23
2.69211e-23
4.15597e-23
5.43516e-23
5.6474e-23
3.96094e-23
2.10884e-23
1.58431e-23
1.27638e-23
5.7919e-24
6.71517e-24
)
;

boundaryField
{
    leftWall
    {
        type            alphaContactAngle;
        contactAngleProperties 
        {
            mercury         
            {
                theta0          90;
            }
            air             
            {
                theta0          90;
            }
            oil             
            {
                theta0          90;
            }
        }
        value           nonuniform List<scalar> 
50
(
1.88139e-11
3.49918e-11
4.08471e-11
4.81523e-11
1.19708e-10
1.70542e-10
4.96605e-08
0.0624716
0.708068
1
1
1
1
1
1
1
1
1
0.955107
0.263679
-1.19126e-08
1.82927e-07
6.48963e-08
3.23467e-08
2.01527e-08
1.37521e-08
1.09725e-08
9.22851e-09
7.17825e-09
4.92958e-09
2.9823e-09
1.56637e-09
7.12426e-10
2.89306e-10
7.71779e-11
2.50464e-11
6.16591e-12
1.47726e-12
2.48517e-13
6.07723e-14
8.73392e-15
1.63678e-15
2.05605e-16
2.58244e-17
2.80571e-18
2.71979e-19
2.35674e-20
1.86163e-21
1.37437e-22
9.15e-24
)
;
    }
    rightWall
    {
        type            alphaContactAngle;
        contactAngleProperties 
        {
            mercury         
            {
                theta0          90;
            }
            air             
            {
                theta0          90;
            }
            oil             
            {
                theta0          90;
            }
        }
        value           nonuniform List<scalar> 
50
(
0.025431
0.010513
0.0367673
0.096696
0.0942597
0.146278
0.309572
0.255681
0.0917426
0.0292052
0.036362
0.0381525
0.00526291
6.32964e-12
5.52455e-12
3.40964e-12
1.81964e-13
1.04278e-13
1.11689e-13
1.29297e-13
1.36537e-13
1.42736e-13
1.45272e-13
1.41783e-13
1.31344e-13
1.03285e-13
8.75544e-14
6.4475e-14
5.55428e-14
3.80465e-14
2.28353e-14
1.24685e-14
7.1073e-15
2.53254e-15
9.56281e-16
4.11188e-16
1.50847e-16
5.68916e-17
2.26041e-17
7.58425e-18
1.91589e-18
3.23498e-19
5.65515e-20
1.05698e-20
2.51489e-21
9.87942e-22
4.47628e-22
2.15335e-22
6.13079e-23
6.71517e-24
)
;
    }
    lowerWall
    {
        type            alphaContactAngle;
        contactAngleProperties 
        {
            mercury         
            {
                theta0          90;
            }
            air             
            {
                theta0          90;
            }
            oil             
            {
                theta0          90;
            }
        }
        value           nonuniform List<scalar> 
62
(
1.88139e-11
2.56807e-11
2.90381e-11
2.91353e-11
2.96264e-11
3.38634e-11
4.35008e-11
5.86456e-11
7.7083e-11
9.7238e-11
1.19249e-10
1.45197e-10
1.79218e-10
2.2159e-10
2.86616e-10
3.75e-10
5.02446e-10
7.57432e-10
1.15381e-09
1.66866e-09
2.24595e-09
2.55727e-09
2.58926e-09
2.58926e-09
2.73252e-09
3.179e-09
5.73025e-10
0.0452098
0.673697
0.785325
0.234532
0.00022437
3.17112e-11
4.25004e-11
0.0697968
0.0011408
0.0363604
0.137979
0.12644
0.0795275
0.0650275
0.0500672
0.312659
0.0011408
3.43044e-10
3.39767e-10
1.01844e-09
2.22821e-08
2.70056e-07
1.20251e-05
9.32396e-08
5.02232e-08
0.000430078
0.000169717
0.000106053
0.0176857
0.0945279
0.12321
0.123214
0.104725
0.0396838
0.025431
)
;
    }
    atmosphere
    {
        type            inletOutlet;
        inletValue      uniform 0;
        value           nonuniform List<scalar> 
46
(
9.14999e-24
7.43594e-24
3.79719e-24
1.65276e-24
7.48357e-25
3.27977e-25
1.32872e-25
5.60593e-26
6.17815e-26
1.55746e-25
4.10411e-25
9.38895e-25
1.80027e-24
2.88052e-24
3.60546e-24
3.69199e-24
2.94032e-24
1.64662e-24
6.29672e-25
1.3396e-25
8.87748e-27
6.84124e-29
4.83154e-29
1.96231e-28
0
0
0
0
0
0
0
0
0
0
0
0
0
0
0
0
0
0
0
0
0
0
)
;
    }
    defaultFaces
    {
        type            empty;
    }
}


// ************************************************************************* //
