/*--------------------------------*- C++ -*----------------------------------*\
  =========                 |
  \\      /  F ield         | OpenFOAM: The Open Source CFD Toolbox
   \\    /   O peration     | Website:  https://openfoam.org
    \\  /    A nd           | Version:  13
     \\/     M anipulation  |
\*---------------------------------------------------------------------------*/
FoamFile
{
    format      ascii;
    class       volScalarField;
    location    "1.15";
    object      alphas;
}
// * * * * * * * * * * * * * * * * * * * * * * * * * * * * * * * * * * * * * //

dimensions      [];

internalField   nonuniform List<scalar> 
2268
(
2
2
2
2
2
2
2
2
2
2
2
2
2
2
2
2
2
2
2
2
1.99992
1.99946
1.99943
2
2
2
2
2
2
2
2
2
2
2
2
2
2
2
2
2
2
2
2
2
1.99989
1.99943
2
2
2
2
2
2
2
2
2
2
2
2
2
2
2
2
2
2
2
2
2
2
1.99984
2
2
2
2
2
2
2
2
2
2
2
2
2
2
2
2
2
2
2
2
2
2
1.99998
2
2
2
2
2
2
2
2
2
2
2
2
2
2
1.99199
1.96127
1.92978
1.8972
1.86151
1.82417
1.81468
1.84737
1.90958
2
2
2
2
2
2
2
2
2
2
1.85809
1.6068
1.32309
1.06549
0.860041
0.719451
0.613044
0.528023
0.451293
0.385818
0.408852
0.554493
0.681415
2
2
2
2
2
2
2
1.92424
1.50183
0.860663
0.396051
0.150723
0.0491782
0.011271
0.000596042
2.56005e-06
8.32766e-06
6.14259e-05
0.000693538
0.00359785
0.125794
0.424138
0.56961
1.87506
1.9731
1.98573
1.95041
1.93457
1.83871
1.28274
0.496536
0.0883241
6.17812e-07
2.76276e-07
9.90699e-08
2.28017e-08
1.1684e-07
2.81438e-07
1.34715e-07
1.70546e-06
6.8228e-06
6.92678e-06
0.217723
0.98903
1.32376
1.25705
1.14289
1.18239
1.16646
1.10607
1.09018
1.2546
1.87046
1.92364
1.7942
1.70247
1.70341
1.73465
1.99591
1.9122
1.79537
1.60936
1.59904
1.65651
1.68609
1.1619
1.22188
1.34312
1.23176
1.09
1.19714
1.84996
1.82484
1.81793
1.80386
1.74785
1.77211
2.02217
2.19751
1.99737
1.74963
1.55193
1.64602
1.66161
1.02413
0.703825
0.828418
1.23353
1.2032
1.20484
1.67742
1.71035
1.73757
1.73214
1.76943
1.87962
1.93902
2.23691
2.26299
2.25092
2.1406
1.73411
1.62151
0.971584
0.234351
0.112436
0.685064
1.54963
1.63588
1.38027
0.986626
0.864211
1.25668
1.75273
2.05903
1.92252
2.08098
2.14598
2.21443
2.22299
1.80093
1.5299
0.949126
0.106038
0.00637673
0.0426708
0.59206
0.84288
0.383768
0.000502143
0.00376726
0.596066
2.27502
2.48875
2.30574
2.08232
1.99562
1.87104
1.3955
1.20577
1.38671
0.962121
0.0724063
0.000983013
0.000241874
0.00021966
0.00889584
0.000446912
0.000507971
0.00147155
0.790524
2.11203
2.21182
2.21031
2.06738
1.48739
0.837272
0.534852
0.772104
1.25364
0.997536
0.175094
0.00032064
0.000250107
0.000252244
0.000312181
0.000373841
0.000438115
0.0154696
0.487897
1.62902
1.85019
1.69011
0.967268
0.630141
0.469853
0.336925
0.591616
1.08758
0.90625
0.904566
0.108987
0.00139358
0.00034258
0.000395569
0.000421243
0.000817397
0.00767951
0.0337582
0.196165
0.384938
0.256217
0.299269
0.299273
0.298249
0.312792
0.659616
1.28341
0.583863
0.854481
0.952658
0.863719
0.528563
0.168376
0.0189842
4.19652e-07
8.43555e-09
5.87969e-09
3.02009e-09
6.35083e-09
1.53996e-08
3.9077e-08
8.31105e-08
2.02575e-07
2.22449e-07
8.6841e-07
0.149873
0.949769
1.46032
1.42606
1.18283
7.05502e-09
6.46658e-09
6.55075e-09
2.17009e-09
5.77482e-09
2.8065e-09
1.63161e-09
4.45397e-09
2.09724e-09
2.51412e-09
4.18642e-09
1.30541e-08
2.79956e-08
2.94197e-08
2.69509e-08
3.89156e-08
0.030087
0.684298
1.21064
1.3399
1.0031
1.01538
1.00151
8.63667e-09
1.09829e-08
1.09875e-08
1.16224e-07
9.65386e-09
3.93434e-09
3.31778e-09
3.7478e-09
4.34144e-09
7.85104e-09
1.49064e-08
2.23993e-08
2.05298e-08
3.6032e-08
0.101905
0.801018
1.20067
1.22194
1.14568
1.03871
1.00003
0.999999
0.999999
9.60243e-09
1.68007e-08
9.82204e-09
6.0936e-09
3.60044e-09
2.73748e-09
2.25585e-09
2.82143e-09
1.35362e-08
4.61785e-08
5.00481e-08
2.30537e-08
0.297232
0.898132
1.2085
1.23459
1.29041
1.03517
1
1
1
1
1
7.65025e-09
1.04366e-08
6.37566e-09
3.01011e-09
2.62334e-09
1.89599e-09
1.15471e-09
6.64576e-09
1.44242e-08
6.2191e-08
0.494484
0.925132
1.25487
1.40936
1.31897
1.01094
1.0002
1.00001
1.00001
1
1
1
1
4.97166e-09
5.8937e-09
7.84131e-09
3.83831e-09
1.27937e-07
1.86437e-08
0.00279875
0.036411
0.604288
0.99669
1.33908
1.47812
1.29894
1.04573
1.00069
1.00003
1.00003
1.00002
1.00001
1
1
1
1
4.60182e-09
1.86661e-08
6.13787e-08
1.87398e-07
1.00941e-05
0.0485622
0.447423
0.952603
1.32725
1.54141
1.22216
1.06362
1.00004
1
1.00001
1.00003
1.00003
1
1
1
1
1
1
1.58138e-08
1.29647e-07
2.59218e-07
1.49455e-05
0.0268324
0.539605
1.30862
1.52193
1.14167
1.04812
1.00002
1
1
1
1.00001
1.00002
1
1
1
1
1
1
1
6.63026e-08
2.74391e-07
4.75469e-05
0.0363694
0.664501
1.14789
1.10645
1.01335
1.00001
1
1
1
1
1
1
1
1
1
1.11262
1.28606
1.62081
2.18931
2.36746
3.36157e-07
0.0342935
0.422355
1.07095
1.08853
1.00005
1
0.999995
0.99999
0.999997
0.999999
1
1
1
1.10991
1.33566
1.66634
2.15039
2.58396
2.77935
2.91774
2.99999
2.99999
0.13468
1.50555
2.35026
1.97585
1.0223
1.02448
1.01868
1.03133
1.19417
1.33212
1.47306
1.67105
1.93023
2.25989
2.58177
2.80693
2.94424
2.99999
2.99999
2.99999
2.99999
3
3
2.20896
2.84147
2.9977
2.72327
2.39797
2.28755
2.31805
2.60718
2.73624
2.81042
2.88328
2.94909
2.98933
2.99999
2.99999
2.99999
2.99999
3
3
3
3
3
3
3
2.99999
2.99995
3
3
3
3
3
3
3
3
2.99999
3
3
3
3
3
3
3
3
3
3
3
3
2.99999
2.99996
3
3
3
3
3
3
3
3
2.99999
2.99999
3
3
3
3
3
3
3
3
3
3
3
3
3
3
3
3
3
3
3
3
3
3
2.99995
2.99979
2.99985
2.99999
2.99999
3
3
3
3
3
3
3
3
3
3
3
3
3
3
3
3
3
3
3
2.99976
2.99961
2.99963
2.99978
2.99999
2.99999
2.99999
2.99999
2.99999
2.99999
3
3
3
3
3
3
3
3
3
3
3
3
3
2.99999
2.99984
2.99962
2.99963
2.99963
2.99989
2.99999
2.99999
2.99999
2.99999
3
3
3
3
3
3
3
3
3
3
3
3
3
3
3
2.99998
2.99989
2.99985
2.99984
2.99995
3
3
3
3
3
3
3
3
3
3
3
3
3
3
3
3
3
3
3
3
3
3
2.99999
2.99999
3
3
3
3
3
3
3
3
3
3
3
3
3
3
3
3
3
3
3
3
3
3
3
3
3
3
3
3
3
3
3
3
3
3
3
3
3
3
3
3
3
3
3
3
3
3
3
3
3
3
3
3
3
3
3
3
3
3
3
3
3
3
3
3
3
3
3
3
3
3
3
3
3
3
3
3
3
3
3
3
3
3
3
3
3
3
3
3
3
3
3
3
3
3
3
3
3
3
3
3
3
3
3
3
3
3
3
3
3
3
3
3
3
3
3
3
3
3
3
3
3
3
3
3
3
3
3
3
3
3
3
3
3
3
3
3
3
3
3
3
3
3
3
3
3
3
3
3
3
3
3
3
3
3
3
3
3
3
3
3
3
3
3
3
3
3
3
3
3
3
3
3
3
3
3
3
3
3
3
3
3
3
3
3
3
3
3
3
3
3
3
3
3
3
3
3
3
3
3
3
3
3
3
3
3
3
3
3
3
3
3
3
3
3
3
3
3
3
3
3
3
3
3
3
3
3
3
3
3
3
3
3
3
3
3
3
3
3
3
3
3
3
3
3
3
3
3
3
3
3
3
3
3
3
3
3
3
3
3
3
3
3
3
3
3
3
3
3
3
3
3
3
3
3
3
3
3
3
3
3
3
3
3
3
3
3
3
3
3
3
3
3
3
3
3
3
3
3
3
3
3
3
3
3
3
3
3
3
3
3
3
3
3
3
3
3
3
3
3
3
3
3
3
3
3
3
3
3
3
3
3
3
3
3
3
3
3
3
3
3
3
3
3
3
3
3
3
3
3
3
3
3
3
3
3
3
3
3
3
3
3
3
3
3
3
3
3
3
3
3
3
3
3
3
3
3
3
3
3
3
3
3
3
3
3
3
3
3
3
3
3
3
3
3
3
3
3
3
3
3
3
3
3
3
3
3
3
3
3
3
3
3
3
3
3
3
3
3
3
3
3
3
3
3
3
3
3
3
3
3
3
3
3
3
3
3
3
3
3
3
3
3
3
3
3
3
3
3
3
3
3
3
3
3
3
3
3
3
3
3
3
3
3
3
3
3
3
3
3
3
3
3
3
3
3
3
3
3
3
3
3
3
3
3
3
3
3
3
3
3
3
3
3
3
3
3
3
3
3
3
3
3
3
3
3
3
3
3
3
3
3
3
3
3
3
3
3
3
3
3
3
3
3
3
3
3
3
3
3
3
3
1.00023
1.0003
1.20039
1.59945
0.999941
1.00017
1.06004
1.21606
1.00001
1.00058
1.00197
1
1.00002
1.00003
1
1
1
1
1
1
1
1
1
1
1
1
1
1
1
1.10108
1.27233
1.29257
2.21494
2.52114
2.73772
2.76278
2.99999
3
3
3
3
3
3
3
3
3
3
3
3
3
3
3
3
3
3
3
3
3
3
3
2.99999
3
3
3
2.99999
3
3
3
3
3
3
3
3
3
3
3
3
3
3
3
3
3
3
3
3
3
3
3
3
3
3
3
3
3
3
3
3
3
3
3
3
3
3
3
3
3
3
3
3
3
3
3
3
3
3
3
3
3
3
3
3
3
3
3
3
3
3
3
3
3
3
3
3
3
3
3
3
3
3
3
3
3
3
3
3
3
3
3
3
3
3
3
3
3
3
3
3
3
3
3
3
3
3
3
3
3
3
3
1.4108
1.41953
0.873268
0.23445
0.0295921
0.00504571
0.000570797
0.000389086
0.0017548
0.0022279
0.0114239
0.0749944
0.177156
0.389284
0.614307
0.762912
0.772175
0.821474
1.52107
1.28716
1.07161
1.05485
0.983904
0.772556
0.400571
0.0810681
0.0225327
0.00673665
0.0153473
0.108713
0.370797
0.742531
0.947613
1.00284
1.00474
1.00949
1.10988
1.83737
1
1
1
1
1.00401
0.990939
0.899785
0.706849
0.566855
0.637162
0.847128
1.00176
1.00171
1.00221
1.00282
1.00377
1.00244
1.26407
1.8673
1
1
1
1
1
1
1
1.00002
1.00001
1
1.00012
1.00184
1.0011
1.00128
1.02496
1.01453
1.00258
1.2089
1.86305
1
1
1
1
1
1
1
1
1
1
1.00147
1.14352
1.48119
1.9144
2.15444
1.99601
1.47232
1.21606
1.31411
1
1
1
1
1
1
1
1
1.05847
1.34742
1.97009
2.58453
2.92014
2.99999
2.99995
2.97046
2.59517
2.25067
2.10545
1
1
1
1
1
1.07958
1.30227
1.7564
2.38457
2.85789
3
3
3
2.99999
2.99998
2.98808
2.98772
2.99971
2.99993
1.29349
1.38308
1.53528
1.80351
2.182
2.55008
2.85004
3
3
3
2.99998
2.9999
2.99999
2.99981
2.98714
2.98228
2.99496
3
3
2.79056
2.86904
2.9443
2.99272
3
3
3
3
3
2.99958
2.99814
2.99799
2.99976
2.99865
2.99165
2.99321
3
2.99999
2.99999
3
3
3
3
3
3
3
3
2.99999
2.99845
2.99738
2.99749
2.99976
2.99999
2.99995
3
3
3
3
3
3
3
3
3
3
2.99999
2.99999
2.99995
2.9996
2.99955
3
3
3
3
3
3
3
3
3
3
3
3
3
3
2.99999
2.99999
3
3
3
3
3
3
3
3
3
3
3
3
3
3
3
3
3
3
3
3
3
3
3
3
3
3
3
3
3
3
3
3
3
3
3
3
3
3
3
3
3
3
3
3
3
3
3
3
3
3
3
3
3
3
3
3
3
3
3
3
3
3
3
3
3
3
3
3
3
3
3
3
3
3
3
3
3
3
3
3
3
3
3
3
3
3
3
3
3
3
3
3
3
3
3
3
3
3
3
3
3
3
3
3
3
3
3
3
3
3
3
3
3
3
3
3
3
3
3
3
3
3
3
3
3
3
3
3
3
3
3
3
3
3
3
3
3
3
3
3
3
3
3
3
3
3
3
3
3
3
3
3
3
3
3
3
3
3
3
3
3
3
3
3
3
3
3
3
3
3
3
3
3
3
3
3
3
3
3
3
3
3
3
3
3
3
3
3
3
3
3
3
3
3
3
3
3
3
3
3
3
3
3
3
3
3
3
3
3
3
3
3
3
3
3
3
3
3
3
3
3
3
3
3
3
3
3
3
3
3
3
3
3
3
3
3
3
3
3
3
3
3
3
3
3
3
3
3
3
3
3
3
3
3
3
3
3
3
3
3
3
3
3
3
3
3
3
3
3
3
3
3
3
3
3
3
3
3
3
3
3
3
3
3
3
3
3
3
3
3
3
3
3
3
3
3
3
3
3
3
3
3
3
3
3
3
3
3
3
3
3
3
3
3
3
3
3
3
3
3
3
3
3
3
3
3
3
3
3
3
3
3
3
3
3
3
3
3
3
3
3
3
3
3
3
3
3
3
3
3
3
3
3
3
3
3
3
3
3
3
3
3
3
3
3
3
3
3
3
3
3
3
3
3
3
3
3
3
3
3
3
3
3
3
3
3
3
3
3
3
3
3
3
3
3
3
3
3
3
3
3
3
3
3
3
3
3
3
3
3
3
3
3
3
3
3
3
3
3
3
3
3
3
3
3
3
3
3
3
3
3
3
3
3
3
3
3
3
3
3
3
3
3
3
3
3
3
3
3
3
3
3
3
3
3
3
3
3
3
3
3
3
3
3
3
3
3
3
3
3
3
3
3
3
3
3
3
3
3
3
3
3
3
3
3
3
3
3
3
3
3
3
3
3
3
3
3
3
3
3
3
3
3
3
3
3
3
3
3
3
3
3
3
3
3
3
3
3
3
3
3
3
3
3
3
3
3
3
3
3
3
3
3
3
3
3
3
3
3
3
3
3
3
3
3
3
3
3
3
3
3
3
3
3
3
3
3
3
3
3
3
3
3
3
3
3
3
3
3
3
3
3
3
3
3
3
3
3
3
3
3
)
;

boundaryField
{
    leftWall
    {
        type            calculated;
        value           nonuniform List<scalar> 
50
(
2
2
2
2
2
2
2
1.87506
0.583863
7.05502e-09
8.63667e-09
9.60243e-09
7.65025e-09
4.97166e-09
4.60182e-09
1.58138e-08
6.63026e-08
3.36157e-07
0.13468
2.20896
3
3
3
3
3
3
3
3
3
3
3
3
3
3
3
3
3
3
3
3
3
3
3
3
3
3
3
3
3
3
)
;
    }
    rightWall
    {
        type            calculated;
        value           nonuniform List<scalar> 
50
(
1.68609
1.66161
1.62151
1.5299
1.38671
1.25364
1.08758
1.28341
1.52107
1.83737
1.8673
1.86305
1.31411
2.10545
2.99993
3
2.99999
3
3
3
3
3
3
3
3
3
3
3
3
3
3
3
3
3
3
3
3
3
3
3
3
3
3
3
3
3
3
3
3
3
)
;
    }
    lowerWall
    {
        type            calculated;
        value           nonuniform List<scalar> 
62
(
2
2
2
2
2
2
2
2
2
2
2
2
2
2
2
2
2
2
2
2
1.99992
1.99946
1.99943
1.99943
1.99943
1.99984
1.99998
1.90958
0.681415
0.56961
1.25705
1.00023
1.0003
1.20039
1.59945
1.14289
1.1619
1.02413
0.971584
0.949126
0.962121
0.997536
0.90625
1.14289
1.18239
1.16646
1.10607
1.09018
1.2546
1.87046
1.92364
1.7942
1.70247
1.70341
1.73465
1.99591
1.9122
1.79537
1.60936
1.59904
1.65651
1.68609
)
;
    }
    atmosphere
    {
        type            calculated;
        value           nonuniform List<scalar> 
46
(
3
3
3
3
3
3
3
3
3
3
3
3
3
3
3
3
3
3
3
3
3
3
3
3
3
3
3
3
3
3
3
3
3
3
3
3
3
3
3
3
3
3
3
3
3
3
)
;
    }
    defaultFaces
    {
        type            empty;
    }
}


// ************************************************************************* //
