/*--------------------------------*- C++ -*----------------------------------*\
  =========                 |
  \\      /  F ield         | OpenFOAM: The Open Source CFD Toolbox
   \\    /   O peration     | Website:  https://openfoam.org
    \\  /    A nd           | Version:  13
     \\/     M anipulation  |
\*---------------------------------------------------------------------------*/
FoamFile
{
    format      ascii;
    class       volScalarField;
    location    "1.15";
    object      k;
}
// * * * * * * * * * * * * * * * * * * * * * * * * * * * * * * * * * * * * * //

dimensions      [0 2 -2 0 0 0 0];

internalField   nonuniform List<scalar> 
2268
(
0.00200474
0.00386273
0.00570895
0.00754553
0.00936752
0.0113088
0.0134915
0.0159159
0.018548
0.021277
0.0239335
0.0263407
0.0283533
0.029879
0.0308563
0.0312422
0.0310098
0.0300804
0.0282355
0.0252181
0.0206187
0.013939
0.00471623
0.00445718
0.00957981
0.0134867
0.0171919
0.0210186
0.0252638
0.0300734
0.0354692
0.041343
0.0474169
0.0533204
0.058678
0.0631817
0.0666266
0.0688734
0.0698137
0.0693224
0.0672231
0.0631862
0.0566719
0.0468664
0.0327492
0.0112173
0.00611501
0.0133003
0.018198
0.0227117
0.0274639
0.0328802
0.0391286
0.046153
0.0537327
0.0614827
0.0689438
0.0756756
0.0813249
0.0856514
0.0884898
0.0897087
0.0891578
0.0866075
0.0816888
0.073759
0.0617773
0.0441787
0.0158955
0.00743189
0.0161891
0.0218792
0.027005
0.0324544
0.038766
0.0461125
0.0543556
0.0631775
0.0721214
0.0806788
0.0883768
0.0948394
0.0998076
0.103101
0.104578
0.104079
0.101359
0.0960301
0.0874241
0.0743091
0.0544262
0.0206849
0.00845481
0.0184637
0.0249733
0.0307274
0.036847
0.0439803
0.0522951
0.0615767
0.0714271
0.0813433
0.0907947
0.0992895
0.106432
0.111951
0.115656
0.117401
0.11703
0.114305
0.108839
0.0999935
0.0864218
0.0651353
0.0258714
0.00932042
0.0203494
0.0277442
0.0341992
0.0410157
0.0489526
0.0581737
0.068389
0.0791387
0.0898916
0.100113
0.109303
0.117048
0.123066
0.127162
0.12919
0.129005
0.126387
0.12097
0.112191
0.0986911
0.0769909
0.0324177
0.0102461
0.0221712
0.0304847
0.0377139
0.0452593
0.053992
0.0640822
0.0751516
0.0866865
0.0981441
0.109015
0.118807
0.127086
0.133552
0.138008
0.140316
0.140351
0.137921
0.132682
0.12417
0.111102
0.0898395
0.0428716
0.0114785
0.0243494
0.0335646
0.0416214
0.0499063
0.0593915
0.0703077
0.0821394
0.0943321
0.106313
0.117617
0.1278
0.136452
0.14326
0.148022
0.15061
0.150918
0.148793
0.143919
0.135854
0.123421
0.103403
0.0578499
0.0162594
0.023735
0.025779
0.0257089
0.0270621
0.0296732
0.032937
0.0337337
0.0333962
0.0341338
0.0355921
0.0346706
0.0292891
0.0242171
0.0235263
0.0227995
0.0201902
0.0168119
0.00777986
0.0261084
0.0487798
0.0547359
0.0530153
0.0547459
0.0593561
0.0624332
0.0636515
0.063943
0.0659114
0.068495
0.0682257
0.0631775
0.0559647
0.0540694
0.0518528
0.0463305
0.0370253
0.0164725
0.0311944
0.0640735
0.0726867
0.0699562
0.0696951
0.0731043
0.0763634
0.0781925
0.0792154
0.0815687
0.0838562
0.0836588
0.0804923
0.0754835
0.0716564
0.0675592
0.059842
0.0476126
0.0227335
0.0340176
0.075674
0.0867989
0.0838231
0.0824209
0.0842251
0.087032
0.0891062
0.0905857
0.092816
0.0945252
0.0945095
0.0926289
0.0893371
0.0846937
0.0786708
0.0686092
0.0548377
0.0285193
0.035771
0.0842105
0.0962302
0.0954747
0.0939462
0.0948469
0.0969722
0.0990977
0.100707
0.102334
0.103493
0.103703
0.102338
0.0990726
0.0937835
0.0862366
0.0745812
0.0597924
0.0326354
0.0377634
0.0908874
0.102331
0.104023
0.104084
0.10482
0.106492
0.108345
0.109675
0.110681
0.111639
0.112029
0.110786
0.106799
0.100203
0.0912429
0.0788519
0.0634417
0.0348241
0.0415069
0.0971386
0.108245
0.111143
0.112624
0.113736
0.115157
0.116548
0.117469
0.118189
0.11911
0.119555
0.118128
0.1131
0.104978
0.0947128
0.0820288
0.0664441
0.0359582
0.0504523
0.103901
0.114917
0.118591
0.120508
0.121784
0.122996
0.124081
0.124757
0.125137
0.125428
0.125115
0.122711
0.11671
0.107736
0.0967329
0.0839966
0.0687369
0.0365471
0.0132721
0.0279898
0.0386886
0.048275
0.0579856
0.0687724
0.0809313
0.0937394
0.106609
0.119095
0.130794
0.141298
0.150261
0.157417
0.162571
0.165597
0.166402
0.164893
0.160896
0.153847
0.142622
0.125418
0.0972823
0.0171413
0.0354794
0.0485252
0.0606539
0.0730005
0.0857267
0.0987933
0.11211
0.125172
0.137668
0.149345
0.159884
0.168959
0.176303
0.181698
0.185037
0.186225
0.185157
0.182113
0.176626
0.166694
0.15266
0.136242
0.021329
0.0449846
0.0608189
0.0758926
0.0910282
0.105721
0.119475
0.132625
0.145382
0.157578
0.168954
0.1792
0.187994
0.195099
0.200253
0.203348
0.204362
0.202861
0.199174
0.193474
0.184782
0.173957
0.163446
0.0245992
0.0541478
0.0738615
0.0922508
0.109884
0.126053
0.1405
0.153601
0.165982
0.177712
0.188516
0.198107
0.206153
0.212492
0.216766
0.218601
0.218201
0.215592
0.211275
0.205619
0.198404
0.190357
0.183151
0.027685
0.0639634
0.087808
0.109143
0.128664
0.145844
0.160727
0.173899
0.185863
0.196919
0.206805
0.215269
0.221939
0.226606
0.229067
0.229244
0.227667
0.224718
0.220593
0.215545
0.209696
0.203633
0.198359
0.0324053
0.0758177
0.103446
0.126952
0.147564
0.165115
0.179951
0.192809
0.204133
0.214101
0.22252
0.229182
0.233852
0.236573
0.237559
0.236964
0.23507
0.232215
0.22854
0.224237
0.21953
0.214837
0.210748
0.0394142
0.0902414
0.12105
0.14587
0.166575
0.183683
0.19786
0.20982
0.219898
0.228197
0.234715
0.239509
0.242635
0.244231
0.24447
0.243544
0.241651
0.239032
0.235836
0.232214
0.228393
0.224653
0.221343
0.0482121
0.106424
0.139823
0.165098
0.185058
0.200951
0.213764
0.224199
0.232595
0.239233
0.244297
0.247872
0.250055
0.250988
0.250835
0.24977
0.247968
0.245607
0.242826
0.239765
0.236628
0.233623
0.230912
0.0572856
0.12278
0.158678
0.183713
0.202069
0.216071
0.227093
0.235916
0.242909
0.248347
0.252404
0.255186
0.2568
0.257366
0.25703
0.255951
0.254287
0.252181
0.249759
0.247165
0.244566
0.242205
0.24015
0.0642039
0.137687
0.177363
0.201372
0.216995
0.22864
0.237961
0.245474
0.251406
0.256004
0.259413
0.261738
0.263071
0.263502
0.263144
0.262149
0.26068
0.258857
0.256761
0.254557
0.252364
0.250772
0.249909
0.0661801
0.150157
0.198337
0.218025
0.229423
0.238722
0.24656
0.253041
0.258237
0.26232
0.265396
0.267553
0.268871
0.269389
0.269154
0.268312
0.267101
0.265768
0.264074
0.262138
0.25979
0.258105
0.257994
0.0676429
0.159535
0.228447
0.232041
0.239279
0.246408
0.252909
0.25862
0.263415
0.267304
0.270334
0.272579
0.274172
0.275037
0.275093
0.274389
0.273189
0.271773
0.270152
0.267921
0.265291
0.2632
0.262064
0.0787477
0.17053
0.215589
0.23943
0.247077
0.251637
0.256876
0.26219
0.266913
0.270853
0.27401
0.276417
0.27813
0.279024
0.278997
0.277945
0.276425
0.27452
0.27255
0.270225
0.267633
0.265542
0.263829
0.070955
0.157383
0.199754
0.228613
0.244827
0.252355
0.257983
0.263084
0.267675
0.271591
0.274707
0.276971
0.278402
0.279021
0.278887
0.278083
0.276842
0.275352
0.273602
0.271396
0.269039
0.266823
0.264417
0.0642168
0.143932
0.18339
0.212311
0.232234
0.245779
0.255295
0.261705
0.266404
0.270166
0.273153
0.275376
0.276869
0.277691
0.277908
0.277602
0.276903
0.275855
0.274302
0.272295
0.270043
0.267564
0.264691
0.0628168
0.131473
0.168406
0.196705
0.218196
0.234543
0.246806
0.255591
0.261944
0.266692
0.270298
0.272956
0.274779
0.275935
0.276561
0.27675
0.276532
0.275796
0.27444
0.272569
0.270299
0.267608
0.264473
0.0569707
0.118177
0.152615
0.179658
0.201783
0.219817
0.234273
0.24542
0.253827
0.260163
0.264938
0.268481
0.271002
0.272714
0.27383
0.274466
0.274606
0.274152
0.273038
0.271323
0.269061
0.266275
0.263053
0.0498069
0.104188
0.136017
0.161623
0.183591
0.202448
0.218348
0.231323
0.241616
0.24965
0.255849
0.260548
0.264026
0.266539
0.268314
0.269479
0.270029
0.269904
0.269084
0.267605
0.265496
0.262801
0.259684
0.0426435
0.0902898
0.119336
0.143228
0.164401
0.183256
0.199775
0.213849
0.225516
0.234986
0.242548
0.248482
0.253044
0.256494
0.259053
0.260853
0.261935
0.262274
0.26188
0.260784
0.259013
0.256646
0.253846
0.0361142
0.0774203
0.103512
0.125363
0.145165
0.163276
0.179621
0.19403
0.206421
0.21685
0.225471
0.232476
0.238073
0.24247
0.245859
0.24838
0.250095
0.251036
0.251221
0.250694
0.24949
0.247684
0.245435
0.0306658
0.0661761
0.0893021
0.108891
0.126907
0.143697
0.1592
0.173245
0.185698
0.196517
0.205751
0.213505
0.219918
0.225144
0.229331
0.232599
0.235028
0.236669
0.237568
0.237767
0.237313
0.236279
0.234786
0.0264393
0.056777
0.0771422
0.0944786
0.110511
0.125623
0.13981
0.15296
0.164912
0.175582
0.184951
0.193059
0.199984
0.205823
0.210679
0.214645
0.217797
0.22019
0.221873
0.222895
0.223305
0.223169
0.222581
0.0230324
0.0491525
0.0671077
0.0823962
0.0965382
0.109925
0.122605
0.134513
0.145549
0.155632
0.164718
0.172805
0.179919
0.186113
0.191447
0.195987
0.199787
0.202897
0.205362
0.207224
0.208527
0.209322
0.209674
0.0203059
0.0431543
0.0590872
0.072602
0.0850623
0.0968582
0.108077
0.118699
0.128671
0.13794
0.14647
0.154246
0.161273
0.167572
0.173174
0.178115
0.18243
0.186152
0.189311
0.191937
0.19406
0.195713
0.196939
0.0181861
0.038594
0.0528896
0.0649289
0.0759656
0.0863907
0.0963205
0.10577
0.11472
0.123145
0.131026
0.138352
0.145122
0.151344
0.157031
0.162198
0.166862
0.171036
0.174734
0.177971
0.18076
0.183119
0.18507
0.0166025
0.0352591
0.0482672
0.0591168
0.0689908
0.0782857
0.0871416
0.0955998
0.103665
0.111331
0.118592
0.125445
0.131892
0.137935
0.143577
0.148823
0.153673
0.158128
0.162186
0.165849
0.169114
0.171985
0.174473
0.0154686
0.0329156
0.0449309
0.0548421
0.0637892
0.0721767
0.0801655
0.0878177
0.0951549
0.102184
0.108908
0.115329
0.12145
0.127272
0.132793
0.13801
0.142916
0.147501
0.151753
0.155662
0.159216
0.162409
0.165241
0.0146852
0.0313242
0.0425787
0.0517562
0.0599736
0.0676422
0.0749395
0.0819445
0.0886922
0.0951983
0.101471
0.107515
0.113332
0.118922
0.124281
0.129401
0.134269
0.138868
0.143182
0.147192
0.150878
0.154229
0.157241
0.0141542
0.0302636
0.0409298
0.0495319
0.0571748
0.0642744
0.0710197
0.0775027
0.0837687
0.0898404
0.0957296
0.101442
0.106979
0.112338
0.117512
0.12249
0.127256
0.131789
0.136068
0.140069
0.143771
0.147156
0.150222
0.0137922
0.0295526
0.0397536
0.0478975
0.0550833
0.0617281
0.0680279
0.0740834
0.0799478
0.0856496
0.0912035
0.0966162
0.101888
0.107016
0.111989
0.116795
0.121414
0.125825
0.130002
0.13392
0.137554
0.140887
0.143915
0.0135379
0.0290584
0.0388807
0.0466511
0.0534658
0.0597404
0.0656738
0.0713719
0.0768934
0.0822712
0.087523
0.0926566
0.0976725
0.102566
0.107325
0.111936
0.116377
0.120625
0.124654
0.128437
0.131949
0.13517
0.138096
0.0133516
0.0286959
0.0382
0.0456572
0.0521625
0.058128
0.0637525
0.0691444
0.0743659
0.0794531
0.0844261
0.0892941
0.0940583
0.0987133
0.103248
0.107646
0.111887
0.115945
0.119795
0.123409
0.12676
0.12983
0.132614
0.0132105
0.0284161
0.0376462
0.0448335
0.051073
0.0567724
0.062129
0.0672517
0.0722045
0.0770257
0.0817373
0.08635
0.090866
0.0952804
0.0995825
0.103756
0.107781
0.111631
0.115282
0.118704
0.121873
0.124768
0.127385
0.0131032
0.0281957
0.0371859
0.0441352
0.0501397
0.0556031
0.0607206
0.0656005
0.0703076
0.0748815
0.0793457
0.0837121
0.0879843
0.0921584
0.0962247
0.100168
0.103968
0.107602
0.111042
0.114263
0.117236
0.119944
0.122381
0.0130244
0.0280249
0.0368042
0.0435405
0.0493326
0.0545815
0.0594804
0.0641368
0.0686157
0.0729575
0.0771866
0.0813163
0.0853513
0.089289
0.0931212
0.0968339
0.100409
0.103824
0.107053
0.110069
0.112847
0.115363
0.11762
0.0129718
0.0279004
0.0364951
0.0430397
0.0486376
0.0536887
0.0583849
0.0628333
0.0670988
0.0712223
0.075229
0.0791332
0.0829406
0.0866503
0.0902555
0.0937442
0.0970998
0.100302
0.103326
0.106146
0.108735
0.11107
0.11315
0.0129428
0.0278189
0.0362543
0.0426276
0.0480482
0.0529168
0.057425
0.0616801
0.0657471
0.0696673
0.0734663
0.0771593
0.0807531
0.0842482
0.0876393
0.0909165
0.0940654
0.0970678
0.0999012
0.10254
0.104957
0.107127
0.109045
0.0129338
0.0277744
0.0360756
0.0422985
0.04756
0.0522629
0.0566
0.0606789
0.0645651
0.0683001
0.0719103
0.0754113
0.0788108
0.0821104
0.0853066
0.0883913
0.0913525
0.0941745
0.0968376
0.099318
0.101587
0.103618
0.105398
0.0129381
0.0277544
0.0359477
0.0420442
0.0471687
0.0517273
0.0559146
0.0598393
0.0635674
0.0671411
0.0705869
0.073921
0.077152
0.0802821
0.0833092
0.0862268
0.0890254
0.0916922
0.0942111
0.0965613
0.0987161
0.100644
0.10232
0.0129453
0.0277396
0.035856
0.0418555
0.0468707
0.0513124
0.0553777
0.0591768
0.0627764
0.0662192
0.0695321
0.0727317
0.0758268
0.0788205
0.0817112
0.0844941
0.0871614
0.0897034
0.0921083
0.0943616
0.0964425
0.0983211
0.0999605
0.0129404
0.0277069
0.0357846
0.0417217
0.0466613
0.0510201
0.0549985
0.0587078
0.062216
0.0655659
0.0687849
0.0718896
0.0748891
0.0777868
0.0805816
0.0832692
0.0858432
0.0882962
0.090621
0.0928118
0.0948646
0.0967781
0.0985432
0.0129132
0.0276671
0.0357349
0.041642
0.046542
0.0508571
0.0547895
0.0584519
0.0619126
0.0652147
0.0683856
0.071442
0.074393
0.077242
0.0799878
0.0826264
0.0851516
0.0875569
0.0898377
0.0919961
0.0940538
0.0961044
0.0985885
0.0664198
0.0626791
0.0676391
0.0760377
0.125966
0.122036
0.120755
0.121892
0.157822
0.155367
0.154105
0.153999
0.179352
0.177631
0.17666
0.176423
0.195544
0.19424
0.193466
0.193227
0.208506
0.207438
0.206768
0.206513
0.21945
0.218506
0.217862
0.217546
0.229274
0.228393
0.227705
0.227273
0.238673
0.237777
0.237054
0.236545
0.248552
0.247363
0.246697
0.246136
0.257626
0.25662
0.254895
0.253046
0.260696
0.259185
0.257237
0.255232
0.261728
0.259885
0.257796
0.255674
0.261839
0.259891
0.257832
0.255756
0.261907
0.259937
0.257919
0.255898
0.261632
0.259686
0.257717
0.255749
0.26026
0.25838
0.256483
0.254584
0.257046
0.255285
0.253513
0.25173
0.2515
0.24994
0.248365
0.246774
0.24353
0.242259
0.240969
0.239652
0.233452
0.232544
0.231606
0.230631
0.221902
0.221406
0.220869
0.220288
0.209671
0.209608
0.209496
0.209335
0.197565
0.197912
0.198204
0.198434
0.186218
0.186918
0.187548
0.188108
0.176013
0.176972
0.177855
0.17866
0.167036
0.168164
0.16921
0.170175
0.159172
0.160388
0.161521
0.16257
0.152196
0.153439
0.154597
0.155671
0.145867
0.147091
0.148231
0.149288
0.139982
0.141158
0.142251
0.143262
0.134405
0.135513
0.13654
0.137489
0.129061
0.130091
0.131043
0.131919
0.123934
0.12488
0.125752
0.12655
0.119046
0.11991
0.120701
0.121422
0.114455
0.115237
0.115952
0.116597
0.110236
0.110945
0.111588
0.112164
0.106488
0.10713
0.107708
0.10822
0.103325
0.103909
0.104427
0.104879
0.100897
0.101425
0.101883
0.10227
0.0994159
0.0998782
0.100252
0.100545
0.099249
0.0995269
0.0997227
0.0998526
0.0844609
0.117151
0.127035
0.131042
0.133036
0.134026
0.134575
0.135066
0.135168
0.134731
0.133609
0.131387
0.127081
0.119856
0.11008
0.0983552
0.0851953
0.0703834
0.0362611
0.125991
0.139132
0.145256
0.14829
0.149911
0.150618
0.150684
0.150428
0.149602
0.14784
0.144954
0.140677
0.134403
0.125552
0.114151
0.100456
0.0849862
0.0689108
0.0331367
0.155391
0.161273
0.165061
0.167023
0.167848
0.167927
0.167381
0.166256
0.164276
0.161096
0.156626
0.150792
0.143131
0.133022
0.11981
0.103141
0.0836367
0.0636792
0.0297946
0.177083
0.180395
0.183311
0.185104
0.185792
0.185512
0.184354
0.182142
0.178762
0.174066
0.168148
0.161115
0.152728
0.142199
0.127346
0.106609
0.0811775
0.0556653
0.0271917
0.193631
0.196036
0.198678
0.200669
0.20164
0.201444
0.199949
0.196881
0.192299
0.186304
0.179192
0.171281
0.162837
0.153376
0.137447
0.110781
0.0777631
0.0484444
0.024465
0.206744
0.208679
0.211145
0.213254
0.214444
0.214387
0.212699
0.209344
0.204265
0.197581
0.189719
0.181374
0.17404
0.169532
0.152733
0.114017
0.0743375
0.0442716
0.0231084
0.21757
0.21906
0.22126
0.223359
0.224649
0.224671
0.223183
0.220295
0.215328
0.208315
0.200024
0.191757
0.185269
0.171579
0.142855
0.110956
0.0766881
0.0473432
0.0275262
0.227016
0.228053
0.230076
0.232429
0.234134
0.234325
0.233354
0.231865
0.226389
0.218591
0.207043
0.192658
0.178632
0.159598
0.139147
0.114574
0.0866056
0.0616892
0.0341287
0.236081
0.236855
0.239118
0.242478
0.244761
0.244205
0.242228
0.23865
0.228669
0.21654
0.200875
0.185313
0.171921
0.15749
0.139715
0.120288
0.0987856
0.0770165
0.0391932
0.245201
0.245348
0.246767
0.248482
0.247961
0.244212
0.239875
0.233347
0.222019
0.207953
0.193984
0.181486
0.171238
0.160478
0.145732
0.128371
0.109026
0.0855997
0.0426907
0.250849
0.249475
0.248758
0.247544
0.244751
0.239119
0.23207
0.223976
0.213636
0.202004
0.19078
0.18084
0.172452
0.163677
0.15124
0.13509
0.115955
0.0908705
0.0442463
0.252426
0.249574
0.246981
0.243762
0.23921
0.233035
0.225903
0.218078
0.209194
0.199719
0.190496
0.182072
0.174236
0.165438
0.15371
0.138534
0.119528
0.0934838
0.0451447
0.252569
0.24881
0.245015
0.240711
0.235593
0.229651
0.223112
0.215993
0.208211
0.200051
0.191918
0.18397
0.175836
0.166511
0.154807
0.140021
0.121187
0.0949569
0.0462246
0.25262
0.24842
0.244072
0.239391
0.234263
0.228688
0.222678
0.216142
0.209051
0.201572
0.193866
0.18589
0.1773
0.16744
0.155571
0.140984
0.122475
0.0964317
0.0475202
0.252787
0.248422
0.243893
0.239147
0.234135
0.228831
0.223161
0.217001
0.21031
0.203157
0.195575
0.187458
0.178526
0.168353
0.156422
0.142062
0.123937
0.0981942
0.0489009
0.252658
0.248231
0.243664
0.238954
0.234063
0.228937
0.223473
0.217549
0.211101
0.20413
0.196611
0.188429
0.179372
0.169136
0.157316
0.143254
0.125526
0.10005
0.0503296
0.251533
0.247113
0.242587
0.237974
0.233219
0.228244
0.222947
0.217214
0.21097
0.204178
0.196785
0.188686
0.179714
0.169627
0.158065
0.14436
0.127015
0.101834
0.0517112
0.24879
0.24449
0.240114
0.235688
0.231132
0.226358
0.221269
0.215763
0.209763
0.203215
0.196057
0.188194
0.179482
0.169695
0.158495
0.145211
0.128303
0.103415
0.0528695
0.244071
0.240057
0.235996
0.231888
0.227641
0.223166
0.218374
0.213177
0.207501
0.201287
0.194476
0.186975
0.178652
0.169299
0.158556
0.14572
0.129216
0.104589
0.0536942
0.23734
0.233827
0.230261
0.22662
0.222811
0.218749
0.21436
0.209568
0.204311
0.19853
0.192161
0.185116
0.177265
0.168396
0.158131
0.145739
0.129615
0.105243
0.0541327
0.228856
0.226075
0.223175
0.220136
0.216878
0.213333
0.209437
0.205131
0.200361
0.195073
0.189202
0.182661
0.175315
0.166941
0.157146
0.145178
0.129415
0.105313
0.0541736
0.219166
0.217252
0.215125
0.212776
0.210146
0.207182
0.203837
0.200063
0.195816
0.191046
0.185691
0.179659
0.172811
0.164913
0.155558
0.143985
0.128566
0.104768
0.0538117
0.208905
0.207883
0.206557
0.204923
0.202942
0.200576
0.197792
0.194554
0.190827
0.186563
0.181703
0.176152
0.169765
0.1623
0.153344
0.14213
0.127042
0.103591
0.0530617
0.198658
0.198468
0.197892
0.196932
0.195562
0.19376
0.191503
0.188765
0.185516
0.181715
0.177301
0.172177
0.166195
0.159107
0.150497
0.139604
0.124837
0.101787
0.0519341
0.188884
0.189397
0.189459
0.189075
0.188232
0.186917
0.185116
0.18281
0.179973
0.176567
0.17253
0.167766
0.16212
0.155345
0.147027
0.136417
0.121964
0.0993734
0.0504568
0.179854
0.180901
0.181454
0.181518
0.181089
0.180161
0.178722
0.176761
0.174253
0.171161
0.167424
0.162943
0.157563
0.151037
0.142958
0.132597
0.118455
0.0963842
0.0486525
0.171645
0.173055
0.173944
0.174321
0.174184
0.173532
0.172357
0.170648
0.168382
0.165522
0.162007
0.157737
0.152557
0.146221
0.138334
0.128194
0.114363
0.0928677
0.0465617
0.164191
0.165809
0.166895
0.16746
0.167503
0.167025
0.16602
0.164476
0.162372
0.159669
0.156306
0.152182
0.147143
0.140949
0.133217
0.123275
0.109759
0.0888924
0.0442206
0.157342
0.159046
0.160218
0.160867
0.160998
0.160609
0.159694
0.158242
0.156231
0.153622
0.150353
0.146324
0.141381
0.135292
0.127688
0.117932
0.104738
0.084542
0.0416852
0.150938
0.152637
0.153811
0.154469
0.154615
0.154248
0.153362
0.151945
0.149975
0.147413
0.144195
0.140224
0.135348
0.129343
0.121853
0.112279
0.0994152
0.0799247
0.0390105
0.144843
0.146475
0.147593
0.148205
0.148316
0.147925
0.147024
0.145603
0.143638
0.141091
0.1379
0.133966
0.129145
0.123216
0.115843
0.106458
0.0939364
0.0751704
0.036276
0.13897
0.140494
0.141518
0.142049
0.142093
0.141647
0.140705
0.139255
0.137277
0.134731
0.131557
0.12766
0.122897
0.117057
0.109816
0.100639
0.088476
0.0704403
0.0335666
0.133281
0.134674
0.135581
0.136011
0.135968
0.135452
0.134456
0.132971
0.130975
0.128433
0.125285
0.12144
0.116759
0.111037
0.103963
0.0950265
0.0832427
0.0659256
0.0309972
0.127787
0.129035
0.129814
0.130134
0.129998
0.129407
0.128358
0.126843
0.124842
0.122322
0.119227
0.115469
0.110913
0.10536
0.0985064
0.0898596
0.078482
0.0618547
0.0286941
0.122531
0.12363
0.12428
0.124489
0.124262
0.123605
0.122515
0.120988
0.11901
0.116548
0.113552
0.109935
0.105568
0.100256
0.0936992
0.0854104
0.0744742
0.0584876
0.0268112
0.117584
0.118539
0.119063
0.119167
0.118861
0.118153
0.117047
0.115542
0.113627
0.111276
0.108439
0.105037
0.100945
0.0959706
0.0898121
0.0819744
0.0715314
0.0561181
0.0255073
0.113035
0.113852
0.114259
0.114271
0.113905
0.113173
0.112086
0.110647
0.10885
0.106674
0.104074
0.100977
0.0972635
0.0927444
0.0871153
0.0798585
0.0699921
0.0550765
0.0249641
0.108984
0.109671
0.109972
0.109908
0.109506
0.108786
0.107763
0.106446
0.104833
0.102906
0.100628
0.0979347
0.094715
0.0907891
0.0858527
0.0793598
0.0702265
0.0557706
0.0254052
0.10554
0.106099
0.106302
0.106183
0.105778
0.105114
0.10421
0.103077
0.101717
0.100116
0.0982474
0.0960548
0.0934448
0.0902574
0.0862069
0.0807394
0.0726504
0.0587939
0.0272481
0.102816
0.103237
0.103348
0.1032
0.102835
0.102281
0.101556
0.100672
0.0996323
0.0984298
0.097044
0.0954353
0.0935336
0.0912166
0.0882541
0.0841576
0.0777052
0.0651612
0.0316048
0.100928
0.101185
0.101214
0.101074
0.1008
0.100415
0.0999325
0.09936
0.0987009
0.0979525
0.0971036
0.096132
0.0949983
0.0936341
0.0919095
0.0895304
0.0856259
0.0766091
0.0429537
0.0999898
0.100053
0.10003
0.0999534
0.0998362
0.0996848
0.0995034
0.0992952
0.0990616
0.0988026
0.0985155
0.0981948
0.097831
0.0974098
0.0969113
0.0963088
0.0955579
0.0943652
0.0866538
)
;

boundaryField
{
    leftWall
    {
        type            kqRWallFunction;
        value           nonuniform List<scalar> 
50
(
0.00200474
0.00445718
0.00611501
0.00743189
0.00845481
0.00932042
0.0102461
0.0114785
0.0132721
0.0171413
0.021329
0.0245992
0.027685
0.0324053
0.0394142
0.0482121
0.0572856
0.0642039
0.0661801
0.0676429
0.0787477
0.070955
0.0642168
0.0628168
0.0569707
0.0498069
0.0426435
0.0361142
0.0306658
0.0264393
0.0230324
0.0203059
0.0181861
0.0166025
0.0154686
0.0146852
0.0141542
0.0137922
0.0135379
0.0133516
0.0132105
0.0131032
0.0130244
0.0129718
0.0129428
0.0129338
0.0129381
0.0129453
0.0129404
0.0129132
)
;
    }
    rightWall
    {
        type            kqRWallFunction;
        value           nonuniform List<scalar> 
50
(
0.00777986
0.0164725
0.0227335
0.0285193
0.0326354
0.0348241
0.0359582
0.0365471
0.0362611
0.0331367
0.0297946
0.0271917
0.024465
0.0231084
0.0275262
0.0341287
0.0391932
0.0426907
0.0442463
0.0451447
0.0462246
0.0475202
0.0489009
0.0503296
0.0517112
0.0528695
0.0536942
0.0541327
0.0541736
0.0538117
0.0530617
0.0519341
0.0504568
0.0486525
0.0465617
0.0442206
0.0416852
0.0390105
0.036276
0.0335666
0.0309972
0.0286941
0.0268112
0.0255073
0.0249641
0.0254052
0.0272481
0.0316048
0.0429537
0.0866538
)
;
    }
    lowerWall
    {
        type            kqRWallFunction;
        value           nonuniform List<scalar> 
62
(
0.00200474
0.00386273
0.00570895
0.00754553
0.00936752
0.0113088
0.0134915
0.0159159
0.018548
0.021277
0.0239335
0.0263407
0.0283533
0.029879
0.0308563
0.0312422
0.0310098
0.0300804
0.0282355
0.0252181
0.0206187
0.013939
0.00471623
0.00471623
0.0112173
0.0158955
0.0206849
0.0258714
0.0324177
0.0428716
0.0578499
0.0664198
0.0626791
0.0676391
0.0760377
0.0162594
0.0261084
0.0311944
0.0340176
0.035771
0.0377634
0.0415069
0.0504523
0.0162594
0.023735
0.025779
0.0257089
0.0270621
0.0296732
0.032937
0.0337337
0.0333962
0.0341338
0.0355921
0.0346706
0.0292891
0.0242171
0.0235263
0.0227995
0.0201902
0.0168119
0.00777986
)
;
    }
    atmosphere
    {
        type            inletOutlet;
        inletValue      uniform 0.1;
        value           nonuniform List<scalar> 
46
(
0.0129132
0.0276671
0.0357349
0.041642
0.046542
0.0508571
0.0547895
0.0584519
0.0619126
0.0652147
0.0683856
0.071442
0.074393
0.077242
0.0799878
0.0826264
0.0851516
0.0875569
0.0898377
0.0919961
0.0940538
0.0961044
0.1
0.1
0.1
0.1
0.1
0.1
0.1
0.1
0.1
0.1
0.1
0.1
0.1
0.1
0.1
0.1
0.1
0.1
0.1
0.1
0.1
0.1
0.1
0.1
)
;
    }
    defaultFaces
    {
        type            empty;
    }
}


// ************************************************************************* //
