/*--------------------------------*- C++ -*----------------------------------*\
  =========                 |
  \\      /  F ield         | OpenFOAM: The Open Source CFD Toolbox
   \\    /   O peration     | Website:  https://openfoam.org
    \\  /    A nd           | Version:  13
     \\/     M anipulation  |
\*---------------------------------------------------------------------------*/
FoamFile
{
    format      ascii;
    class       volScalarField;
    location    "1.15";
    object      nut;
}
// * * * * * * * * * * * * * * * * * * * * * * * * * * * * * * * * * * * * * //

dimensions      [0 2 -1 0 0 0 0];

internalField   nonuniform List<scalar> 
2268
(
3.0351e-05
4.2046e-05
5.1105e-05
5.84344e-05
6.46409e-05
7.04829e-05
7.66787e-05
8.31165e-05
8.9607e-05
9.59001e-05
0.000101694
0.000106706
0.000110746
0.000113727
0.000115604
0.00011633
0.000115825
0.00011414
0.000110633
0.0001046
9.46606e-05
7.79718e-05
4.54267e-05
9.47932e-05
0.000322021
0.00045732
0.000548092
0.000615656
0.000674472
0.000729455
0.00078572
0.000844991
0.000905393
0.000964132
0.00101756
0.00106239
0.00109652
0.00111839
0.00112641
0.00111794
0.00109104
0.0010418
0.000960868
0.000830663
0.000612984
0.000148498
0.000110567
0.000519382
0.000810106
0.00101456
0.00116601
0.00129241
0.00140851
0.0015241
0.00164255
0.00176094
0.00187407
0.00197545
0.00205897
0.00212035
0.00215612
0.00216283
0.00213576
0.00206843
0.00195137
0.00176503
0.00147355
0.00100488
0.00017656
0.000121672
0.000646014
0.00106986
0.00138118
0.00161275
0.0018019
0.00197335
0.0021418
0.00231205
0.0024803
0.00263935
0.00278049
0.00289544
0.0029779
0.00302265
0.00302442
0.00297633
0.00286814
0.00268465
0.00239915
0.00196203
0.00127656
0.00020135
0.000129871
0.000727581
0.00126605
0.0016748
0.00197851
0.00222273
0.00244198
0.00265587
0.00287026
0.00308056
0.00327806
0.00345244
0.00359366
0.00369367
0.00374564
0.00374259
0.00367562
0.00353166
0.00329094
0.00292164
0.0023644
0.00150322
0.000224984
0.000137025
0.00078665
0.00142574
0.0019203
0.00228591
0.00257699
0.00283733
0.00309038
0.00334253
0.00358838
0.00381815
0.00402047
0.00418406
0.00429941
0.00435827
0.0043522
0.00427061
0.00409829
0.00381248
0.00337742
0.00272608
0.00172605
0.000252643
0.000145108
0.000845232
0.00157415
0.00213913
0.00255377
0.00288318
0.00317889
0.00346618
0.00375094
0.00402687
0.00428366
0.00450939
0.0046921
0.00482111
0.00488704
0.00488029
0.00478902
0.00459662
0.00427853
0.00379649
0.00307605
0.00195373
0.000291298
0.000155462
0.000921525
0.00173119
0.00234778
0.00279695
0.00315612
0.00348265
0.00380017
0.00411325
0.00441458
0.00469362
0.00493846
0.00513705
0.00527807
0.0053512
0.00534598
0.00524974
0.00504516
0.00470722
0.00419649
0.00343309
0.00222084
0.000338168
8.60221e-05
0.000100765
0.000104016
0.000106426
0.000112976
0.000119267
0.000126115
0.000124166
0.000123556
0.000126718
0.00012968
0.000126763
0.00011501
0.000106529
0.000105373
0.0001013
9.30343e-05
8.33188e-05
5.85649e-05
0.0002557
0.000598691
0.000693246
0.000675254
0.000706312
0.000822352
0.000969365
0.00103202
0.00107163
0.00113688
0.00119581
0.00120495
0.00115773
0.00106679
0.0010563
0.000963806
0.000810988
0.000640948
0.000200326
0.000282064
0.00107253
0.00128383
0.00130326
0.00136548
0.00155039
0.00179196
0.00195172
0.00206458
0.00219188
0.00228443
0.00228453
0.00219316
0.00205575
0.0019389
0.00173894
0.00143761
0.00106101
0.000232786
0.000296072
0.00143864
0.0017858
0.00188782
0.00201343
0.00223368
0.00249835
0.00270468
0.00286555
0.00301993
0.003114
0.00309653
0.00296936
0.00278583
0.00258415
0.00229911
0.00189527
0.00133751
0.000259839
0.00030196
0.00171255
0.00219642
0.00240926
0.00260933
0.00285587
0.00312
0.00334123
0.00352236
0.0036782
0.00376013
0.0037258
0.00357308
0.00334477
0.00307488
0.00271674
0.0022247
0.00151854
0.000277976
0.000303864
0.00192862
0.00255211
0.00287484
0.00314975
0.00341943
0.00367954
0.00389956
0.00408018
0.00422425
0.00428976
0.0042392
0.00406605
0.00379781
0.00346556
0.00303736
0.00246206
0.00163584
0.000288199
0.000308095
0.00212284
0.00290017
0.00331979
0.00365134
0.00393904
0.00419372
0.00440462
0.00457344
0.00469872
0.00474314
0.00467331
0.00447806
0.00417157
0.00378185
0.00328495
0.00263236
0.00171534
0.000294001
0.000327373
0.00233696
0.00326656
0.00377063
0.00413714
0.00443229
0.00467833
0.00487568
0.00502617
0.00512513
0.00513991
0.00504224
0.00481792
0.00447479
0.00403377
0.00347133
0.0027486
0.00176742
0.000297829
0.0001687
0.00105642
0.00197855
0.00265616
0.0031485
0.0035498
0.0039193
0.00427828
0.00462853
0.00496311
0.00527135
0.00554112
0.0057603
0.00591744
0.00600144
0.00600092
0.00590265
0.00568929
0.00533726
0.00480862
0.00403
0.00289566
0.00136383
0.00019251
0.00133942
0.00239464
0.00309916
0.00361927
0.00405914
0.00446476
0.00485944
0.00524198
0.0056051
0.00593889
0.00623154
0.0064707
0.00664482
0.00674254
0.00675279
0.00666363
0.00645981
0.00612631
0.00563863
0.0049314
0.00398577
0.00289012
0.000213021
0.00170005
0.00281427
0.00352774
0.00407972
0.00456145
0.00500398
0.00542385
0.00582737
0.006209
0.0065588
0.00686523
0.00711608
0.0073007
0.00740844
0.00742931
0.00735503
0.00717392
0.00687831
0.00646404
0.00591602
0.0052435
0.00453988
0.000230486
0.00193322
0.0031392
0.00391408
0.00452123
0.00504971
0.00552962
0.00597542
0.00639617
0.00679061
0.00714927
0.00746186
0.00771689
0.0079056
0.00801906
0.00804845
0.00799022
0.00784329
0.00761236
0.00730507
0.00692618
0.00649861
0.0060923
0.000248046
0.00212928
0.00343442
0.00428362
0.00495044
0.00552459
0.00603897
0.0065103
0.00694616
0.00734884
0.00771013
0.00802198
0.00827458
0.00846094
0.00857596
0.00861616
0.00858425
0.00848837
0.0083355
0.00813679
0.00790457
0.00766219
0.00745515
0.000270482
0.00231519
0.00373338
0.00465775
0.00537856
0.00599092
0.00653263
0.00702296
0.00746973
0.00787463
0.00823232
0.00853726
0.00878304
0.00896547
0.00908593
0.00914649
0.00915145
0.00911
0.00903093
0.00892538
0.00880594
0.0086904
0.00860544
0.00029703
0.00250301
0.00404723
0.00504494
0.00580695
0.00644575
0.00700512
0.00750549
0.00795508
0.00835481
0.00870325
0.00899859
0.00923938
0.00942549
0.00955911
0.00964437
0.00968673
0.0096946
0.00967689
0.00964314
0.00960329
0.00956907
0.00955475
0.000323998
0.0026887
0.00436274
0.00542768
0.00622211
0.00687589
0.00744064
0.00793981
0.0083832
0.00877409
0.00911522
0.00940657
0.00964858
0.00984279
0.00999231
0.0101018
0.0101771
0.0102254
0.0102544
0.0102719
0.010285
0.0103012
0.0103275
0.000347239
0.00286066
0.00465615
0.00577907
0.00659603
0.00725474
0.00781636
0.00830894
0.00874463
0.00912959
0.00946716
0.00975874
0.0100057
0.0102103
0.0103758
0.010507
0.0106094
0.0106891
0.0107519
0.010804
0.0108508
0.0108982
0.0109496
0.000361783
0.00300528
0.00490815
0.00607562
0.0069026
0.0075591
0.0081158
0.008603
0.00903386
0.00941626
0.00975398
0.0100491
0.0103035
0.0105195
0.0107002
0.01085
0.0109743
0.0110783
0.0111652
0.0112397
0.0113067
0.0113749
0.011446
0.000363127
0.00308883
0.0051157
0.0062951
0.00712063
0.00777585
0.00833066
0.00881644
0.00924698
0.00963071
0.00997189
0.0102731
0.0105368
0.0107649
0.0109597
0.0111251
0.0112667
0.011391
0.0114968
0.0115858
0.0116602
0.011733
0.0118122
0.000373772
0.0029914
0.00527385
0.00640456
0.00723942
0.00789934
0.00845775
0.00894775
0.00938331
0.00977259
0.0101204
0.0104299
0.0107041
0.0109449
0.0111532
0.0113312
0.0114836
0.0116172
0.0117333
0.0118269
0.011902
0.0119708
0.0120381
0.00040024
0.00322407
0.00518909
0.00642902
0.00727524
0.00793537
0.00850181
0.00900075
0.00944571
0.00984434
0.0102016
0.0105203
0.0108032
0.0110517
0.0112669
0.0114485
0.0116035
0.0117363
0.0118521
0.0119475
0.0120246
0.0120932
0.0121535
0.000401721
0.00322587
0.00507657
0.00632169
0.007198
0.00788287
0.00846521
0.00897612
0.00943149
0.00983847
0.0102012
0.0105228
0.0108064
0.0110548
0.011271
0.011457
0.0116168
0.0117554
0.0118742
0.011972
0.0120526
0.0121213
0.0121757
0.0003821
0.00309215
0.00489493
0.00611017
0.00700654
0.00772526
0.00833059
0.00885395
0.00931707
0.00973058
0.0100987
0.0104246
0.0107117
0.0109636
0.0111839
0.0113759
0.0115433
0.0116887
0.0118119
0.0119142
0.0119994
0.0120695
0.0121234
0.000366545
0.00289787
0.00467075
0.00585161
0.00674073
0.00746722
0.0080857
0.00862415
0.00910055
0.00952465
0.00990189
0.0102359
0.0105299
0.0107881
0.0110151
0.011215
0.0113911
0.0115441
0.0116739
0.011783
0.0118743
0.0119492
0.0120084
0.000347889
0.0027004
0.00440001
0.00553361
0.00640139
0.00712354
0.00774916
0.00830077
0.00879117
0.00922824
0.00961712
0.00996183
0.0102659
0.0105336
0.0107698
0.0109793
0.0111646
0.0113266
0.0114657
0.011584
0.0116841
0.0117677
0.0118373
0.000326282
0.00249282
0.0040913
0.00516854
0.0060049
0.00671337
0.00733818
0.00789724
0.00839903
0.00884872
0.0092503
0.00960733
0.00992355
0.0102033
0.0104514
0.0106722
0.0108685
0.0110412
0.0111916
0.0113217
0.011434
0.0115305
0.011615
0.000302788
0.00227688
0.00376251
0.00477713
0.00557444
0.00625994
0.00687435
0.00743245
0.00793957
0.0083984
0.00881124
0.00918073
0.00951008
0.00980337
0.0100651
0.0102991
0.0105082
0.010694
0.0108583
0.0110031
0.0111309
0.0112444
0.0113478
0.000278633
0.00206335
0.00343599
0.00438565
0.00513786
0.00579137
0.00638505
0.00693218
0.0074363
0.00789811
0.00831821
0.00869796
0.00903972
0.00934672
0.00962274
0.00987131
0.0100952
0.0102964
0.0104771
0.0106396
0.0107864
0.0109205
0.0110462
0.000255308
0.00186008
0.0031318
0.00402058
0.00472552
0.00534015
0.0059036
0.00642961
0.00692124
0.00737808
0.00779933
0.00818505
0.00853644
0.00885571
0.0091457
0.00940936
0.00964933
0.00986785
0.0100672
0.0102498
0.0104182
0.0105755
0.010726
0.000236115
0.00167644
0.00286773
0.0037068
0.00436704
0.00493982
0.00546639
0.00596316
0.00643353
0.00687702
0.00729208
0.00767788
0.00803445
0.00836287
0.00866497
0.00894299
0.00919924
0.00943587
0.00965512
0.00985894
0.0100501
0.0102312
0.0104058
0.000219578
0.00152835
0.00265999
0.00346411
0.00408902
0.00462376
0.00511244
0.00557438
0.00601611
0.00643842
0.00683993
0.00721917
0.00757526
0.00790822
0.00821887
0.00850863
0.00877918
0.00903235
0.00927011
0.00949454
0.00970785
0.0099123
0.0101106
0.000205391
0.00141872
0.00251355
0.00330065
0.00390431
0.00441061
0.00486661
0.00529542
0.00570681
0.00610375
0.00648603
0.00685242
0.00720176
0.0075334
0.0078474
0.0081444
0.00842546
0.00869194
0.00894543
0.00918766
0.00942039
0.00964538
0.00986461
0.000193583
0.00134431
0.0024261
0.00321664
0.00381699
0.00430921
0.00474294
0.00514522
0.00552941
0.00590112
0.00626192
0.00661154
0.00694912
0.0072739
0.00758551
0.0078841
0.00817023
0.00844478
0.00870891
0.0089639
0.00921105
0.00945159
0.00968681
0.000184191
0.00129948
0.00238959
0.00320399
0.00382081
0.00431632
0.00474177
0.00512792
0.00549178
0.00584195
0.00618218
0.00651361
0.0068362
0.00714957
0.00745339
0.00774764
0.00803262
0.00830888
0.00857722
0.0088385
0.00909355
0.0093431
0.00958783
0.00017711
0.00127777
0.00239219
0.00324735
0.00389913
0.00441586
0.00484865
0.00523117
0.00558396
0.00591873
0.00624164
0.00655565
0.00686194
0.00716092
0.00745271
0.00773747
0.00801551
0.00828728
0.0085533
0.00881411
0.00907015
0.00932167
0.00956881
0.000172037
0.00127296
0.00242092
0.00332737
0.00402806
0.00458156
0.00503667
0.00542854
0.0057806
0.00610753
0.00641809
0.00671728
0.00700786
0.00729134
0.00756863
0.00784037
0.00810711
0.00836934
0.00862751
0.0088819
0.00913262
0.00937951
0.00962228
0.000168539
0.0012796
0.00246424
0.00342526
0.00418217
0.00478314
0.00527265
0.00568559
0.00604715
0.00637449
0.00667885
0.00696741
0.00724467
0.00751351
0.00777583
0.00803298
0.00828592
0.00853533
0.00878166
0.00902505
0.00926534
0.00950206
0.00973452
0.000166157
0.00129321
0.00251339
0.00352626
0.00433996
0.00499307
0.00552462
0.0059676
0.00634761
0.00668345
0.00698842
0.00727169
0.00753955
0.00779635
0.00804511
0.00828798
0.00852644
0.00876147
0.00899359
0.00922289
0.00944899
0.0096712
0.00988855
0.000164511
0.00131022
0.0025623
0.00362055
0.00448644
0.00519087
0.00576727
0.00624565
0.00665083
0.00700222
0.00731445
0.00759832
0.00786171
0.00811033
0.00834832
0.00857867
0.00880345
0.00902395
0.00924085
0.00945422
0.00966359
0.0098681
0.0100667
0.000163327
0.00132792
0.00260697
0.00370243
0.00461289
0.00536386
0.00598379
0.00649936
0.0069337
0.00730589
0.00763114
0.00792128
0.00818537
0.00843027
0.00866111
0.00888164
0.00909447
0.00930128
0.00950291
0.00969948
0.0098905
0.0100751
0.010252
0.000162442
0.00134441
0.00264484
0.00376898
0.0047152
0.00550568
0.00616499
0.00671657
0.00718141
0.0075776
0.00792018
0.00822138
0.00849095
0.00873655
0.00896404
0.00917779
0.00938092
0.0095754
0.00976227
0.00994176
0.0101134
0.0102764
0.0104296
0.000161763
0.0013585
0.00267444
0.00381902
0.00479214
0.00561429
0.00630724
0.00689162
0.00738621
0.00780763
0.00817021
0.008486
0.00876496
0.00901512
0.00924277
0.00945272
0.0096484
0.00983205
0.0100049
0.0101673
0.0103188
0.010459
0.0105867
0.000161251
0.0013695
0.00269505
0.00385247
0.00484423
0.00569035
0.00641069
0.00702356
0.00754566
0.00799196
0.00837569
0.00870828
0.00899944
0.00925717
0.00948789
0.00969655
0.00988675
0.0100608
0.0102202
0.0103652
0.0104958
0.0106118
0.0107123
0.000160882
0.00137708
0.00270653
0.00387003
0.00487322
0.00573632
0.00647798
0.0071147
0.00766125
0.00813096
0.00853575
0.00888613
0.00919117
0.00945853
0.00969442
0.00990365
0.0100898
0.010255
0.0104009
0.0105277
0.0106358
0.0107253
0.0107966
0.000160641
0.00138103
0.00270914
0.00387308
0.00488179
0.00575604
0.00651368
0.00716975
0.0077374
0.00822837
0.00865321
0.00902132
0.00934092
0.009619
0.00986128
0.0100722
0.0102549
0.0104114
0.0105429
0.0106498
0.0107324
0.0107918
0.0108301
0.000160501
0.00138122
0.00270347
0.00386362
0.00487354
0.00575454
0.00652383
0.00719532
0.00778075
0.00829045
0.00873365
0.00911858
0.00945247
0.00974146
0.00999052
0.0102034
0.0103827
0.0105298
0.0106452
0.010729
0.0107815
0.0108044
0.010803
0.000160423
0.0013773
0.00269036
0.00384436
0.00485309
0.00573801
0.00651579
0.00719941
0.00779949
0.00832516
0.00878447
0.00918456
0.00953161
0.00983083
0.0100863
0.0103009
0.0104763
0.0106129
0.0107101
0.0107667
0.0107817
0.0107575
0.0107041
0.00016034
0.0013687
0.00267124
0.00381911
0.00482623
0.00571375
0.00649788
0.00719089
0.0078026
0.0083412
0.0088138
0.00922658
0.0095848
0.00989274
0.0101536
0.0103693
0.0105403
0.0106659
0.0107433
0.0107684
0.0107367
0.010648
0.0105182
0.000160163
0.00135541
0.00264946
0.00379359
0.00480017
0.00568992
0.00647876
0.0071786
0.00779873
0.00834674
0.00882907
0.0092512
0.00961769
0.00993208
0.0101968
0.0104129
0.0105799
0.0106953
0.0107539
0.0107467
0.0106604
0.0104812
0.0102168
0.000159857
0.00134455
0.0026338
0.00377659
0.00478345
0.00567479
0.00646641
0.00717008
0.00779484
0.008348
0.00883563
0.00926286
0.00963383
0.0099517
0.0102184
0.0104346
0.010599
0.0107079
0.010754
0.010723
0.010588
0.0102939
0.00969799
0.000353408
0.000337007
0.000347845
0.000366502
0.00216384
0.00195907
0.0018444
0.00185951
0.00411763
0.0039558
0.00389425
0.00396229
0.00588166
0.00580657
0.00579989
0.00587025
0.0073713
0.00735185
0.00737087
0.00742963
0.0085888
0.00859654
0.00862387
0.00867046
0.00957073
0.00958946
0.00961678
0.00965238
0.0103588
0.010381
0.010405
0.0104313
0.0109887
0.0110111
0.0110316
0.0110507
0.0114879
0.011508
0.0115267
0.0115409
0.0118594
0.0118792
0.0118873
0.0118874
0.0120749
0.0120886
0.0120925
0.0120891
0.0121827
0.0121921
0.0121936
0.0121889
0.0122015
0.0122107
0.012214
0.0122123
0.0121515
0.012164
0.0121721
0.0121765
0.0120435
0.0120621
0.0120774
0.01209
0.0118829
0.0119094
0.0119337
0.0119562
0.0116735
0.0117094
0.0117439
0.0117771
0.0114212
0.0114676
0.0115131
0.0115577
0.0111362
0.0111939
0.0112512
0.0113079
0.0108335
0.0109035
0.0109735
0.0110432
0.0105312
0.0106143
0.0106975
0.0107807
0.0102533
0.0103491
0.0104449
0.0105407
0.0100226
0.0101292
0.0102357
0.0103419
0.00985632
0.00997086
0.0100851
0.0101988
0.00976408
0.00988298
0.0100012
0.0101187
0.00974657
0.00986598
0.0099844
0.0101016
0.00979643
0.00991267
0.0100275
0.0101408
0.00990052
0.0100103
0.0101183
0.0102243
0.0100426
0.0101433
0.0102418
0.0103378
0.0102056
0.0102953
0.0103822
0.0104662
0.0103736
0.0104507
0.0105246
0.0105953
0.0105322
0.0105958
0.0106558
0.0107123
0.0106691
0.0107186
0.0107643
0.0108061
0.0107734
0.0108084
0.0108394
0.0108665
0.010835
0.0108551
0.0108712
0.0108836
0.0108439
0.0108481
0.0108489
0.0108466
0.0107885
0.0107754
0.0107601
0.010743
0.0106553
0.0106223
0.0105897
0.0105581
0.0104259
0.01037
0.0103196
0.010275
0.0100719
0.00999198
0.00992707
0.00987566
0.0095289
0.00944105
0.00938177
0.009344
0.00102956
0.00287429
0.00391025
0.00450305
0.00489688
0.00518185
0.00539261
0.00555142
0.00565583
0.00569841
0.00565567
0.00550465
0.00523163
0.00483517
0.00431931
0.00366709
0.00284734
0.00179881
0.000298787
0.0025381
0.00392261
0.00486719
0.00546465
0.00585859
0.00612508
0.00629672
0.00639713
0.00642945
0.00638841
0.00626079
0.00602948
0.00567869
0.00519665
0.00457276
0.00379381
0.00283991
0.00172392
0.000286794
0.00435468
0.00526809
0.00599523
0.00649186
0.00681976
0.00702914
0.00714401
0.00717646
0.00713157
0.00700694
0.0067951
0.00648233
0.00604959
0.00547606
0.00473457
0.00381666
0.00271935
0.00152638
0.000267464
0.00609955
0.00665577
0.00715527
0.00751815
0.00775422
0.00788695
0.00793164
0.00788935
0.0077657
0.00755981
0.00726655
0.00687346
0.00635975
0.00569636
0.00483228
0.00377145
0.00252538
0.00125479
0.000252091
0.00757688
0.00791031
0.0082286
0.00846652
0.00861199
0.00867048
0.00864576
0.0085324
0.00833411
0.00805062
0.0076774
0.00720209
0.00660443
0.00585543
0.00486908
0.00367038
0.00229764
0.00102864
0.000236439
0.00876922
0.00896903
0.00916008
0.0092986
0.00936742
0.00936304
0.00927475
0.00909953
0.00883414
0.00847821
0.00802561
0.00746375
0.00677638
0.00596178
0.00485883
0.00351745
0.00209687
0.000898272
0.000235931
0.00971878
0.00983639
0.00994268
0.0100093
0.0100182
0.00995934
0.00981854
0.00959179
0.00926555
0.00884119
0.00830772
0.00765436
0.00683948
0.0058307
0.00467333
0.00344618
0.00212716
0.000940615
0.000264488
0.0104746
0.0105401
0.0105918
0.0106108
0.0105768
0.0104684
0.0102849
0.0100186
0.00962814
0.00913276
0.0084776
0.00767985
0.00676601
0.00573731
0.00469827
0.00361759
0.00245102
0.00129895
0.000292717
0.0110779
0.0111096
0.0111268
0.0111165
0.0110465
0.0108895
0.0106565
0.0103189
0.0098396
0.00926118
0.00854298
0.00771847
0.00682859
0.0058906
0.0049321
0.0039609
0.00290912
0.00176507
0.000310067
0.0115533
0.011558
0.0115429
0.0114914
0.0113689
0.0111579
0.0108753
0.0104914
0.00998244
0.0093736
0.00866908
0.00788584
0.00706107
0.00620748
0.00532483
0.00439108
0.00335316
0.00203433
0.000322199
0.0118801
0.0118591
0.0118139
0.0117264
0.011574
0.0113381
0.0110276
0.0106338
0.0101454
0.00956778
0.0089068
0.00817689
0.00740849
0.0066079
0.00574992
0.004804
0.00368952
0.00220412
0.000327333
0.0120725
0.0120351
0.0119731
0.0118704
0.0117094
0.0114803
0.0111844
0.0108171
0.0103701
0.00984209
0.00923556
0.00856039
0.00783063
0.00704326
0.00617263
0.00517333
0.00394848
0.00231291
0.000330572
0.0121706
0.0121302
0.012066
0.0119664
0.0118194
0.0116177
0.0113576
0.011033
0.0106366
0.0101642
0.00961378
0.00898662
0.00828337
0.00749367
0.00658854
0.00551281
0.00416418
0.00238296
0.000333978
0.0121997
0.0121677
0.0121146
0.0120327
0.0119131
0.0117485
0.0115322
0.0112562
0.0109128
0.0104951
0.00999647
0.00941054
0.00872824
0.00793161
0.00698627
0.005831
0.00436422
0.00244934
0.000338205
0.0121747
0.0121595
0.0121269
0.0120713
0.0119851
0.0118608
0.0116896
0.0114622
0.0111695
0.0108022
0.0103498
0.00979983
0.00913616
0.00833395
0.00735275
0.00612695
0.00455693
0.00252352
0.000342678
0.0121028
0.0121098
0.0121028
0.0120775
0.0120268
0.0119423
0.0118144
0.0116327
0.0113867
0.0110647
0.0106533
0.0101357
0.00949014
0.0086859
0.00767685
0.00639343
0.00473651
0.00259653
0.000347565
0.0119862
0.0120186
0.01204
0.0120465
0.0120309
0.0119844
0.0118968
0.0117571
0.0115534
0.0112723
0.0108977
0.0104098
0.00978259
0.00897997
0.00795106
0.00662224
0.00489249
0.00266441
0.000352092
0.0118264
0.0118866
0.0119377
0.0119762
0.0119946
0.0119839
0.0119336
0.0118323
0.0116669
0.0114226
0.0110815
0.0106211
0.0100121
0.00921354
0.00817128
0.00681059
0.00502982
0.00272939
0.000355801
0.0116282
0.0117177
0.0117994
0.0118695
0.0119204
0.0119432
0.0119274
0.0118609
0.01173
0.0115186
0.0112075
0.0107722
0.010181
0.00939129
0.00834559
0.00696539
0.00514652
0.00278666
0.000358443
0.0114011
0.0115212
0.0116335
0.011734
0.0118155
0.0118693
0.0118847
0.0118494
0.0117492
0.0115674
0.0112833
0.0108714
0.0102982
0.00951957
0.00847557
0.00708486
0.0052397
0.00283372
0.000359858
0.0111597
0.0113093
0.0114509
0.0115803
0.0116905
0.0117725
0.0118159
0.0118081
0.0117346
0.0115782
0.0113175
0.0109261
0.0103696
0.00960251
0.00856355
0.00716913
0.00530803
0.00286919
0.00036001
0.0109201
0.011098
0.0112671
0.011423
0.0115587
0.0116653
0.0117324
0.0117474
0.0116957
0.0115596
0.0113176
0.0109427
0.0104002
0.009644
0.00861198
0.00721909
0.0053512
0.00289241
0.000358875
0.010701
0.0109044
0.0110976
0.0112761
0.0114328
0.011559
0.0116443
0.0116763
0.0116403
0.0115186
0.0112897
0.0109265
0.0103944
0.00964738
0.00862313
0.00723589
0.00536929
0.00290297
0.000356479
0.0105196
0.0107437
0.0109559
0.0111513
0.011323
0.0114625
0.0115593
0.0116014
0.0115742
0.0114602
0.0112381
0.0108813
0.0103555
0.00961537
0.00859902
0.00722072
0.00536276
0.00290083
0.000352827
0.0103886
0.0106268
0.0108511
0.0110564
0.0112359
0.0113811
0.011482
0.0115267
0.0115008
0.0113874
0.0111657
0.0108097
0.010286
0.00955017
0.0085415
0.00717491
0.00533225
0.00288606
0.000347965
0.0103143
0.0105588
0.0107873
0.0109945
0.0111737
0.0113167
0.0114138
0.0114532
0.0114213
0.0113015
0.0110739
0.0107134
0.0101877
0.00945378
0.00845242
0.00709995
0.00527874
0.00285903
0.000341919
0.0102963
0.0105388
0.0107632
0.010964
0.0111349
0.0112677
0.0113531
0.0113799
0.011335
0.0112025
0.0109634
0.0105936
0.0100624
0.00932822
0.0083339
0.00699773
0.00520353
0.00282026
0.000334756
0.0103282
0.0105605
0.0107728
0.0109595
0.0111143
0.0112296
0.0112964
0.011304
0.0112401
0.0110895
0.0108342
0.0104515
0.00991194
0.00917598
0.0081886
0.0068707
0.0051085
0.00277068
0.000326534
0.0103988
0.0106139
0.0108069
0.0109725
0.0111048
0.0111964
0.0112388
0.0112221
0.0111344
0.0109618
0.0106871
0.0102888
0.0097391
0.00900038
0.00802008
0.00672217
0.00499613
0.00271146
0.000317367
0.0104949
0.0106867
0.0108546
0.0109938
0.0110983
0.0111615
0.0111754
0.0111307
0.0110163
0.0108192
0.0105233
0.0101083
0.00954774
0.00880603
0.00783316
0.00655655
0.00486979
0.00264436
0.000307383
0.0106025
0.0107665
0.0109051
0.0110138
0.0110872
0.011119
0.011102
0.0110274
0.0108852
0.0106631
0.0103459
0.00991433
0.00934341
0.00859921
0.00763426
0.00637968
0.0047339
0.00257155
0.000296801
0.0107085
0.0108415
0.0109481
0.011024
0.0110645
0.0110639
0.0110155
0.0109113
0.010742
0.0104962
0.0101593
0.0097132
0.00913366
0.00838824
0.00743177
0.00619911
0.00459417
0.00249602
0.000285906
0.0108012
0.0109015
0.0109749
0.0110175
0.0110251
0.0109928
0.0109144
0.0107829
0.0105894
0.0103231
0.00997031
0.00951319
0.0089282
0.00818371
0.0072363
0.00602434
0.00445766
0.0024213
0.000275144
0.0108703
0.0109374
0.0109778
0.0109881
0.0109649
0.0109035
0.0107988
0.010644
0.0104312
0.0101499
0.00978692
0.00932439
0.00873875
0.0079984
0.00706074
0.00586691
0.00433296
0.00235173
0.000265093
0.0109061
0.0109408
0.0109499
0.0109308
0.0108803
0.0107946
0.0106689
0.0104972
0.0102721
0.00998346
0.00961809
0.00915789
0.00857842
0.00784693
0.00692007
0.00574042
0.00422998
0.00229208
0.000256543
0.0108991
0.0109032
0.0108842
0.0108401
0.0107679
0.0106643
0.010525
0.0103446
0.010116
0.0098297
0.00947211
0.00902444
0.00846053
0.00774492
0.0068312
0.00566072
0.00416045
0.00224789
0.000250407
0.0108388
0.0108152
0.0107729
0.0107098
0.0106231
0.0105097
0.0103658
0.0101864
0.00996502
0.00969236
0.00935482
0.00893253
0.0083969
0.007708
0.00681298
0.00564728
0.00413944
0.00222596
0.000247742
0.0107131
0.010666
0.0106069
0.0105326
0.0104402
0.0103263
0.0101877
0.0100201
0.00981751
0.00957113
0.00926757
0.00888624
0.00839594
0.00775083
0.00688738
0.00572686
0.00419037
0.00223707
0.000249746
0.0105081
0.0104443
0.0103769
0.0103008
0.0102122
0.0101081
0.00998528
0.0098403
0.00966805
0.00946073
0.00920588
0.00888333
0.00846053
0.0078859
0.00708143
0.0059413
0.00435653
0.0023019
0.000258241
0.0102101
0.01014
0.0100752
0.0100079
0.00993347
0.00984894
0.00975188
0.00963956
0.00950816
0.00935151
0.00915935
0.00891412
0.00858543
0.00812032
0.00742744
0.00635922
0.00472683
0.00246847
0.000277403
0.00980849
0.00974859
0.00969965
0.00965209
0.0096015
0.00954556
0.00948268
0.00941121
0.00932884
0.00923172
0.00911314
0.00896112
0.00875337
0.00844669
0.00795279
0.00708697
0.00549892
0.00286921
0.000322243
0.00930391
0.00927676
0.00925728
0.0092393
0.00922064
0.00920037
0.00917797
0.00915292
0.00912451
0.00909149
0.00905166
0.00900092
0.0089313
0.00882565
0.00864136
0.00824915
0.00718686
0.00411492
0.000468089
)
;

boundaryField
{
    leftWall
    {
        type            nutkWallFunction;
        Cmu             0.09;
        kappa           0.41;
        E               9.8;
        value           nonuniform List<scalar> 
50
(
3.32872e-06
9.48661e-06
1.09545e-05
1.19711e-05
1.26946e-05
1.32706e-05
1.38551e-05
1.464e-05
1.67322e-05
2.12101e-05
2.34569e-05
2.50467e-05
2.64433e-05
2.84228e-05
3.10889e-05
3.40892e-05
3.68827e-05
3.88528e-05
3.93961e-05
3.99202e-05
4.70199e-05
4.43586e-05
4.19196e-05
4.13949e-05
3.91304e-05
3.61686e-05
3.29551e-05
2.97478e-05
2.68097e-05
2.43195e-05
2.21422e-05
2.0264e-05
1.87021e-05
1.74664e-05
1.65398e-05
1.58768e-05
1.54159e-05
1.5096e-05
1.48684e-05
1.47001e-05
1.45717e-05
1.44736e-05
1.44013e-05
1.43529e-05
1.43261e-05
1.43178e-05
1.43218e-05
1.43284e-05
1.43239e-05
1.42987e-05
)
;
    }
    rightWall
    {
        type            nutkWallFunction;
        Cmu             0.09;
        kappa           0.41;
        E               9.8;
        value           nonuniform List<scalar> 
50
(
6.25279e-06
1.9163e-05
2.2249e-05
2.48401e-05
2.67392e-05
2.81017e-05
3.05338e-05
3.13878e-05
3.15075e-05
3.11487e-05
2.95405e-05
2.8497e-05
2.75031e-05
2.67953e-05
3.13885e-05
3.27199e-05
3.55591e-05
3.73978e-05
3.81836e-05
3.86329e-05
3.91707e-05
3.98021e-05
4.04644e-05
4.11361e-05
4.17781e-05
4.23083e-05
4.26817e-05
4.28779e-05
4.28963e-05
4.27334e-05
4.23939e-05
4.18784e-05
4.11933e-05
4.03411e-05
3.9331e-05
3.8169e-05
3.68707e-05
3.54518e-05
3.3943e-05
3.23833e-05
3.0837e-05
2.9388e-05
2.81537e-05
2.72699e-05
2.68942e-05
2.71996e-05
2.84444e-05
3.1209e-05
3.75255e-05
5.55832e-05
)
;
    }
    lowerWall
    {
        type            nutkWallFunction;
        Cmu             0.09;
        kappa           0.41;
        E               9.8;
        value           nonuniform List<scalar> 
62
(
3.32872e-06
4.49197e-06
5.3675e-06
6.0944e-06
6.72487e-06
7.32655e-06
7.93904e-06
8.55887e-06
9.17593e-06
9.76716e-06
1.03042e-05
1.07634e-05
1.11301e-05
1.13987e-05
1.15669e-05
1.16325e-05
1.1593e-05
1.14336e-05
1.1109e-05
1.05522e-05
9.62853e-06
8.05786e-06
4.92013e-06
4.92013e-06
1.44385e-05
1.69227e-05
1.90807e-05
2.11805e-05
2.509e-05
3.22415e-05
3.56501e-05
3.96089e-05
3.85876e-05
3.99775e-05
4.17985e-05
9.85007e-06
2.68649e-05
2.8745e-05
2.99375e-05
3.14513e-05
3.22933e-05
3.33386e-05
3.66552e-05
9.85007e-06
1.14947e-05
1.15159e-05
1.16981e-05
1.20684e-05
1.19631e-05
1.19608e-05
1.20837e-05
1.21529e-05
1.24074e-05
1.26414e-05
1.24906e-05
1.13827e-05
1.04531e-05
1.03407e-05
1.02233e-05
9.67203e-06
8.88504e-06
6.25279e-06
)
;
    }
    atmosphere
    {
        type            calculated;
        value           nonuniform List<scalar> 
46
(
0.000159857
0.00134455
0.0026338
0.00377659
0.00478345
0.00567479
0.00646641
0.00717008
0.00779484
0.008348
0.00883563
0.00926286
0.00963383
0.0099517
0.0102184
0.0104346
0.010599
0.0107079
0.010754
0.010723
0.010588
0.0102939
0.009
0.009
0.009
0.009
0.009
0.009
0.009
0.009
0.009
0.009
0.009
0.009
0.009
0.009
0.009
0.009
0.009
0.009
0.009
0.009
0.009
0.009
0.009
0.009
)
;
    }
    defaultFaces
    {
        type            empty;
    }
}


// ************************************************************************* //
