/*--------------------------------*- C++ -*----------------------------------*\
  =========                 |
  \\      /  F ield         | OpenFOAM: The Open Source CFD Toolbox
   \\    /   O peration     | Website:  https://openfoam.org
    \\  /    A nd           | Version:  13
     \\/     M anipulation  |
\*---------------------------------------------------------------------------*/
FoamFile
{
    format      ascii;
    class       volScalarField;
    location    "1.15";
    object      p;
}
// * * * * * * * * * * * * * * * * * * * * * * * * * * * * * * * * * * * * * //

dimensions      [1 -1 -2 0 0 0 0];

internalField   nonuniform List<scalar> 
2268
(
7446.49
7439.87
7386.72
7273.87
7108.7
6902.8
6671.26
6423.03
6169.69
5921.44
5687.05
5474.19
5287.04
5126.41
4990.48
4877.21
4781.63
4700.32
4630.95
4574.67
4533.26
4510.7
4509.61
6639.2
6636.6
6588.53
6477.05
6315.08
6115.46
5888.04
5644.18
5393.57
5145.67
4909.28
4693.05
4501.98
4337.4
4197.94
4080.75
3980.93
3896.98
3825.63
3768.83
3729.06
3711.2
3716.05
5836.36
5836.91
5793.64
5684.89
5526.95
5332.1
5110.05
4869.74
4620.7
4372.18
4133.44
3913.51
3718.18
3549.26
3405.67
3284.56
3181.83
3095.32
3022.39
2965.79
2929.09
2919.2
2920.22
5039.15
5048.98
5010.68
4904.8
4748.77
4555.74
4334.87
4094.18
3844.34
3593.66
3351
3127.08
2927.67
2755.09
2608.39
2484.64
2380.44
2292.71
2217.89
2160.25
2126.37
2125.9
2120.44
4244.9
4272.56
4240.2
4137.06
3980.14
3786.07
3563.36
3318.1
3062.97
2805.09
2551.83
2318.36
2112.67
1937.6
1793.1
1676.51
1580.32
1500.17
1430.07
1376.21
1342.88
1340.88
1331.31
3447.83
3501.41
3477.32
3378.23
3219.42
3023.02
2795.37
2536.72
2257.65
1974.22
1728.63
1532.74
1380.51
1260.38
1165
1089.73
1026.19
970.884
924.023
888.909
852.407
822.36
804.321
2646.23
2733.05
2721.12
2628.66
2466.61
2262.82
2011.83
1732.85
1495.63
1305.91
1170.4
1079.8
1016.14
965.56
921.516
880.317
841.287
804.562
773.394
750.459
711.637
663.579
641.33
1872.8
1988.14
1994.09
1911.14
1734.4
1526.09
1338.43
1178.66
1086.05
1039.37
1002.61
966.732
930.16
893.072
855.56
817.525
780.168
744.149
712.736
689.191
648.982
607.726
588.839
1426.82
1429.37
1501.12
1588.71
1643.68
1926.13
2625.93
2942.2
2988.04
3084.04
3114.75
2939.96
2629.94
2448
2391.32
2326.45
2294
2445.39
2601.13
1347.44
1310.53
1343.47
1448.07
1536.84
1645.11
1916.38
2155.95
2285.19
2443.51
2491.28
2354.98
2052.42
1889.61
1828.89
1770.3
1737.38
1863.01
2056.51
1228.06
1143.37
1126.57
1233.04
1400.94
1450.67
1419.59
1446.77
1469.92
1624
1703.4
1633.29
1551.25
1486.36
1424.64
1380.23
1355.02
1352.59
1561.38
1080
986.514
944.255
970.507
1091.04
1116.65
995.654
909.744
885.55
988.387
1043.89
1037.52
1147.95
1220.14
1175.78
1135.34
1104.65
984.58
1133.5
958.653
881.416
844.934
783.191
766.439
757.624
687.563
668.133
676.216
699.285
697.879
702.268
778.138
856.353
862.812
846.789
811.689
706.792
796.975
865.351
801.081
763.503
698.927
621.757
580.692
574.749
603.387
622.872
612.079
577.352
554.68
553.307
554.535
553.319
554.977
538.233
500.197
550.373
772.906
719.077
686.421
632.236
569.606
537.35
529.297
546.834
559.19
544.127
523.002
505.818
491.014
462.364
430.292
415.583
411.789
394.799
406.673
670.187
640.42
613.47
571.062
521.898
493.915
484.156
493.185
494.877
481.637
479.501
472.345
459.792
429.791
395.561
371.05
363.138
341.567
341.575
1233.68
1295.64
1297.88
1247.39
1143.94
1043.42
989.637
964.651
943.822
920.819
894.715
865.384
833.217
798.811
762.936
726.208
689.563
652.155
618.41
590.403
562.785
538.623
528.328
883.76
872.074
856.927
847.513
847.473
849.37
844.039
831.625
814.843
793.485
767.711
738.611
706.767
673.215
638.062
600.733
566.726
538.24
515.703
496.395
483.238
473.249
469.482
767.06
757.569
752.128
744.802
738.348
731.535
721.792
707.599
689.04
666.318
639.945
610.936
579.008
546.279
516.487
490.87
471.958
460.934
450.421
436.945
422.989
413.273
406.372
659.378
649.438
643.251
635.635
626.918
616.408
602.599
584.965
563.723
539.437
511.496
484.072
458.479
437.486
423.386
415.312
406.859
397.602
386.998
374.304
361.538
350.651
341.156
558.395
549.155
541.02
531.101
518.985
504.045
485.906
464.67
439.986
416.357
395.014
379.145
369.843
364.666
358.45
351.392
343.107
332.491
321.734
309.894
297.601
285.831
274.661
462.533
452.777
442.6
430.003
414.219
395.071
372.652
350.137
330.44
317.411
312.473
309.772
306.931
302.559
295.342
286.174
277.286
267.058
256.113
244.305
231.932
219.564
207.285
371.376
359.325
347.016
332.008
313.892
292.04
270.842
257.647
253.776
252.699
252.531
250.161
245.253
238.403
230.736
221.867
212.328
201.812
190.615
178.877
166.318
153.297
140.755
284.827
268.705
254.55
239.265
220.641
204.222
197.231
196.424
196.904
196.273
192.917
188.266
182.569
175.805
167.857
158.802
148.93
138.017
126.076
113.797
99.4529
83.3488
73.4206
202.345
182.163
168.288
155.22
144.307
141.734
143.124
142.772
140.357
137.212
133.18
128.362
122.587
115.632
107.053
97.3133
86.1267
72.3729
59.0017
47.5923
35.4355
23.8338
20.4951
125.606
102.732
92.1661
87.5279
91.3756
91.8456
90.0944
87.3251
83.9379
80.2595
76.05
70.991
64.7633
56.85
47.9665
38.6469
29.6216
20.8202
13.7701
10.149
7.3613
5.83119
5.9845
62.1759
40.1822
29.5782
37.7506
45.483
44.5566
41.5923
37.1971
33.4382
30.6345
27.6666
24.1313
20.205
15.8253
11.2329
7.95345
5.85481
4.93767
5.08119
5.2838
5.39367
5.45879
5.56284
18.8742
7.94299
4.5026
8.8895
13.3235
13.8481
11.7087
8.28115
6.75368
5.96541
5.21006
4.5291
4.11176
4.04725
4.22063
4.44022
4.6043
4.69201
4.78976
4.93768
5.08681
5.23784
5.37594
2.97944
3.2914
3.33976
3.30957
3.45867
3.27942
3.1802
3.26132
3.34054
3.44867
3.59502
3.75073
3.86191
3.94682
4.05371
4.19476
4.34245
4.4918
4.62984
4.77142
4.9159
5.05518
5.19179
3.08695
3.09995
3.14974
3.13023
3.16611
3.19144
3.22591
3.27612
3.33103
3.39885
3.48607
3.58797
3.69329
3.80264
3.91876
4.04737
4.1887
4.33096
4.47356
4.60694
4.73701
4.86499
4.98913
3.02744
3.03783
3.06026
3.06068
3.07948
3.10048
3.12855
3.16938
3.2234
3.29015
3.36875
3.45884
3.56061
3.6698
3.78852
3.91036
4.03626
4.16853
4.29791
4.42273
4.54483
4.66095
4.77744
2.95425
2.94782
2.95765
2.96776
2.98408
3.0015
3.02829
3.06913
3.1228
3.18785
3.26244
3.34499
3.43509
3.5343
3.64144
3.75423
3.87078
3.99166
4.11056
4.22736
4.34323
4.45322
4.56441
2.86625
2.85447
2.85796
2.86787
2.88354
2.90339
2.93151
2.97068
3.02056
3.08015
3.14798
3.22321
3.30506
3.39176
3.48476
3.58553
3.69359
3.80717
3.9204
4.03242
4.14251
4.24692
4.35358
2.76872
2.75801
2.7593
2.76825
2.78359
2.80446
2.83256
2.86915
2.91431
2.96766
3.02845
3.09603
3.17035
3.25043
3.33511
3.42479
3.52142
3.62443
3.73246
3.83964
3.94529
4.04493
4.14659
2.66456
2.65808
2.66017
2.66872
2.68329
2.70362
2.73042
2.76427
2.80532
2.85346
2.90835
2.96961
3.03689
3.10994
3.18823
3.2716
3.3601
3.45399
3.55223
3.65304
3.75301
3.84769
3.94476
2.55867
2.55625
2.5598
2.56824
2.58199
2.6012
2.62626
2.65747
2.69497
2.73875
2.78865
2.84445
2.90585
2.97248
3.04415
3.12084
3.20261
3.28941
3.3802
3.47344
3.56674
3.6561
3.74828
2.45288
2.4533
2.45804
2.46649
2.47954
2.49757
2.52087
2.54966
2.58405
2.62405
2.66961
2.7206
2.77678
2.83787
2.90363
2.97403
3.04917
3.12904
3.21304
3.2995
3.38642
3.46979
3.55791
2.34687
2.34919
2.35473
2.36331
2.37585
2.39285
2.4146
2.44126
2.47293
2.50964
2.55138
2.59808
2.64957
2.70564
2.76609
2.8308
2.89982
2.97321
3.05055
3.13051
3.21132
3.28969
3.37098
2.24024
2.24377
2.24989
2.25859
2.27075
2.28688
2.30727
2.33206
2.36136
2.39521
2.4336
2.47648
2.52371
2.57515
2.63063
2.69007
2.75348
2.82088
2.89194
2.96556
3.04021
3.11299
3.1885
2.13282
2.13706
2.14352
2.15228
2.16411
2.17949
2.19869
2.22184
2.24904
2.28034
2.31574
2.35517
2.39854
2.44571
2.49657
2.55105
2.60918
2.67096
2.73611
2.80368
2.87234
2.93951
3.00915
2.02442
2.02901
2.0356
2.04434
2.05584
2.07054
2.08868
2.11038
2.13572
2.16474
2.19743
2.23374
2.27357
2.31684
2.36343
2.41329
2.46646
2.52294
2.58249
2.64428
2.70714
2.76872
2.83269
1.91489
1.91956
1.92614
1.93475
1.94589
1.95994
1.97711
1.99749
2.02115
2.0481
2.07833
2.11179
2.1484
2.18806
2.2307
2.27626
2.32477
2.37626
2.43051
2.48678
2.54405
2.60022
2.65851
1.80414
1.80874
1.81519
1.82357
1.83428
1.84768
1.86391
1.88306
1.90515
1.9302
1.95818
1.98902
2.02265
2.05898
2.09793
2.13947
2.18362
2.23039
2.27961
2.33064
2.38252
2.43339
2.48624
1.69222
1.69662
1.70282
1.71089
1.72112
1.73383
1.74913
1.76708
1.7877
1.81096
1.83683
1.86523
1.89608
1.9293
1.9648
2.00256
2.04259
2.08491
2.12937
2.17538
2.2221
2.26784
2.31525
1.57919
1.58331
1.5892
1.59687
1.60656
1.61853
1.63289
1.64967
1.66885
1.6904
1.71425
1.74034
1.76857
1.79884
1.83109
1.86528
1.90141
1.93952
1.97946
2.0207
2.06249
2.10328
2.14559
1.46517
1.46896
1.47447
1.48169
1.49078
1.50199
1.51538
1.53097
1.54872
1.5686
1.59051
1.61438
1.6401
1.66757
1.69672
1.72751
1.75994
1.79404
1.82968
1.86638
1.90347
1.9396
1.97698
1.3503
1.35373
1.35882
1.36552
1.37398
1.38437
1.39676
1.41115
1.42748
1.4457
1.46571
1.48742
1.51072
1.5355
1.56169
1.58923
1.61813
1.64841
1.67994
1.71231
1.74492
1.77657
1.80933
1.23469
1.23775
1.24239
1.24854
1.25631
1.26586
1.27722
1.29038
1.30529
1.32185
1.33999
1.35959
1.38053
1.40271
1.42604
1.45047
1.47599
1.50262
1.53024
1.55847
1.5868
1.61418
1.64241
1.11845
1.12115
1.12532
1.13089
1.13795
1.14662
1.15692
1.16883
1.18229
1.1972
1.21348
1.231
1.24964
1.2693
1.28988
1.31133
1.33362
1.35676
1.38065
1.40496
1.42922
1.45255
1.47659
1.00166
1.00402
1.00772
1.0127
1.01902
1.02677
1.03599
1.04662
1.05862
1.07188
1.08631
1.10179
1.11819
1.1354
1.15334
1.17192
1.19114
1.21097
1.23134
1.25194
1.2724
1.29198
1.31207
0.884403
0.88644
0.88967
0.894046
0.899607
0.906432
0.914535
0.923879
0.934398
0.946007
0.958602
0.972068
0.986285
1.00114
1.01653
1.03239
1.0487
1.06542
1.08248
1.09963
1.11656
1.13266
1.14917
0.766751
0.768483
0.771252
0.775017
0.779804
0.78568
0.792653
0.800689
0.809726
0.819685
0.830466
0.84196
0.854052
0.866632
0.879601
0.892889
0.906458
0.920287
0.934295
0.948264
0.961946
0.974879
0.988031
0.648761
0.650217
0.652538
0.655685
0.659685
0.664594
0.670423
0.67714
0.684694
0.69301
0.702002
0.711568
0.721602
0.732001
0.742672
0.753545
0.764578
0.775743
0.786961
0.798053
0.808824
0.81891
0.829125
0.530532
0.531729
0.533609
0.536132
0.539329
0.543257
0.547929
0.553323
0.559395
0.566084
0.573313
0.580997
0.589042
0.597356
0.605857
0.614477
0.623175
0.631917
0.640631
0.649162
0.657354
0.664996
0.672619
0.412158
0.41312
0.414568
0.416453
0.418828
0.421761
0.425269
0.429338
0.433934
0.439011
0.444508
0.450355
0.456477
0.462798
0.46925
0.475775
0.482334
0.488891
0.495375
0.501644
0.50758
0.513066
0.518528
0.293784
0.294503
0.295491
0.296703
0.298232
0.300155
0.302495
0.305243
0.308379
0.311868
0.315669
0.319733
0.324006
0.328435
0.332971
0.337571
0.342206
0.346843
0.351414
0.355788
0.359838
0.363456
0.367113
0.175563
0.175902
0.176277
0.176706
0.177328
0.178212
0.179371
0.180801
0.182492
0.184427
0.186583
0.188936
0.191458
0.194122
0.196906
0.199794
0.202775
0.205839
0.208932
0.211959
0.21486
0.217439
0.219914
0.0578446
0.0578913
0.0578097
0.0576947
0.0576584
0.0577423
0.0579555
0.0583007
0.0587773
0.0593826
0.0601119
0.0609595
0.0619205
0.0629914
0.064172
0.0654674
0.0668894
0.0684516
0.0701487
0.0719923
0.0740951
0.076394
0.0793975
512.924
501.617
488.668
486.274
461.677
457.002
455.857
460.094
399.543
395.226
392.84
393.898
333.81
329.126
325.117
322.475
266.483
261.208
256.238
251.884
197.884
191.877
186.203
181.096
130.39
123.351
116.759
111.306
68.2213
60.4971
51.3886
45.7818
20.9965
15.1018
10.8148
9.84206
6.35575
6.36756
6.24683
6.28106
5.76671
5.95035
6.12491
6.25691
5.5662
5.74355
5.92872
6.0717
5.37539
5.55355
5.74527
5.89147
5.1646
5.34057
5.53254
5.68014
4.94739
5.11955
5.30842
5.45426
4.72875
4.89559
5.07901
5.22207
4.51089
4.67084
4.84804
4.98724
4.29623
4.44824
4.61732
4.75186
4.08575
4.22889
4.38944
4.51829
3.88049
4.01432
4.16512
4.28774
3.68054
3.80482
3.94621
4.06236
3.48524
3.60049
3.73171
3.84078
3.29394
3.40007
3.52153
3.62304
3.10594
3.20317
3.31465
3.40885
2.92096
3.00966
3.11195
3.19871
2.73891
2.81961
2.91267
2.99218
2.55897
2.6321
2.71676
2.7891
2.38071
2.44663
2.523
2.58865
2.20401
2.26309
2.3319
2.39098
2.02894
2.08159
2.14284
2.19566
1.85501
1.90152
1.95588
2.00268
1.68211
1.72275
1.77035
1.81167
1.51051
1.54556
1.58706
1.62318
1.34073
1.37059
1.40609
1.43739
1.17288
1.19789
1.22804
1.25477
1.00723
1.02776
1.05276
1.07539
0.844175
0.860598
0.88105
0.899788
0.684122
0.696894
0.712978
0.728076
0.526955
0.536461
0.548663
0.560273
0.372651
0.379051
0.387395
0.395687
0.223709
0.226202
0.229176
0.233734
0.0858624
0.086654
0.082122
0.0802767
540.062
548.469
524.646
487.067
448.669
424.957
414.414
410.654
404.613
394.063
385.034
374.554
358.734
337.071
317.32
303.307
293.185
279.9
274.494
467.703
461.962
434.567
397.59
362.242
335.156
317.157
305.414
294.975
282.564
270.284
258.246
248.09
239.96
233.046
227.742
221.241
210.015
205.045
396.326
382.951
359.097
327.611
293.995
263.656
239.443
221.416
206.285
192.585
181.703
175.041
171.738
169.085
165.754
163.154
160.307
154.01
153.398
318.712
305.437
285.409
259.842
232.004
205.217
181.231
160.284
142.477
128.587
119.022
111.785
104.858
98.8754
94.5251
96.5195
102.021
103.326
105.776
244.667
231.119
213.469
192.08
168.725
145.371
123.307
103.64
86.6579
72.8553
62.25
51.3891
40.4952
33.0041
30.7974
35.9795
47.4574
55.4828
58.9317
172.69
158.836
142.419
123.583
103.506
83.4811
64.7609
49.1491
36.9569
28.1918
21.0211
14.6037
9.88139
8.47769
9.08407
10.8352
15.1985
19.8521
21.4698
102.352
88.7637
73.7289
57.6856
42.4393
30.4893
22.0795
16.2579
12.1787
8.94599
7.64599
7.81787
7.96499
8.01341
8.17753
8.23595
8.01341
7.73507
7.38747
39.0835
30.8249
23.2348
16.4093
11.8012
8.90966
7.53664
6.96923
7.15503
7.56899
7.63498
7.627
7.65301
7.75521
7.84617
7.7235
7.42292
7.37117
7.3472
9.15225
7.88376
6.97676
6.67131
6.6299
6.71605
7.12603
7.25445
7.2785
7.35623
7.42307
7.43882
7.44573
7.46201
7.40624
7.29047
7.21901
7.20212
7.18659
6.44045
6.54596
6.7034
6.82416
6.86612
6.91134
7.00325
7.05678
7.08771
7.12315
7.17002
7.1884
7.21218
7.1952
7.12999
7.08494
7.06469
7.04569
7.03465
6.38408
6.46719
6.55203
6.61337
6.66451
6.72298
6.78602
6.83989
6.87447
6.90948
6.93466
6.96394
6.99823
7.00064
6.97018
6.93473
6.90714
6.88716
6.87715
6.20397
6.27661
6.34709
6.40932
6.46569
6.52586
6.59091
6.64081
6.68368
6.71949
6.7514
6.78255
6.80604
6.80894
6.79
6.76355
6.73962
6.72036
6.71032
6.01858
6.08379
6.14906
6.2145
6.27507
6.33477
6.39499
6.44762
6.49257
6.53127
6.56355
6.59092
6.60934
6.61249
6.60046
6.58125
6.56099
6.54322
6.53313
5.81085
5.87634
5.9412
6.00777
6.07134
6.13266
6.19147
6.24418
6.29039
6.33006
6.36258
6.38811
6.40465
6.40918
6.40226
6.38825
6.37146
6.35559
6.34638
5.58525
5.65244
5.71898
5.78796
5.85446
5.91772
5.97693
6.03029
6.07738
6.11778
6.15081
6.17609
6.19255
6.19892
6.19577
6.18582
6.17222
6.1586
6.15111
5.35232
5.42094
5.4893
5.56036
5.62894
5.69372
5.75373
5.80792
5.8558
5.89691
5.93067
5.95655
5.97387
5.98216
5.98203
5.97536
5.96476
5.95355
5.94836
5.11578
5.18585
5.25548
5.3279
5.39775
5.46352
5.52422
5.57908
5.62764
5.66946
5.70402
5.73079
5.74936
5.75957
5.76205
5.75828
5.75048
5.74186
5.7387
4.87832
4.9494
5.01972
5.0927
5.16309
5.22932
5.29038
5.34564
5.39465
5.43704
5.47233
5.50007
5.51996
5.53197
5.5367
5.5354
5.53019
5.5242
5.52301
4.64147
4.71359
4.78385
4.85663
4.92687
4.99298
5.05397
5.10923
5.15836
5.20097
5.2367
5.26518
5.28617
5.29974
5.30636
5.30729
5.30452
5.30111
5.30203
4.40696
4.48038
4.54916
4.62077
4.69005
4.75535
4.81567
4.87042
4.91921
4.96168
4.99751
5.02642
5.04826
5.06312
5.07152
5.07455
5.07422
5.07344
5.07633
4.17745
4.24779
4.31548
4.38535
4.45291
4.51671
4.57574
4.62946
4.67748
4.71949
4.75519
4.78437
4.80692
4.82297
4.83302
4.83811
4.84011
4.84178
4.84664
3.95046
4.01794
4.08333
4.15075
4.21602
4.27778
4.33506
4.38733
4.43422
4.47546
4.5108
4.54005
4.56315
4.58024
4.59179
4.59875
4.60296
4.60701
4.61352
3.72628
3.79087
3.85333
3.91776
3.98023
4.03948
4.09458
4.14501
4.19044
4.23063
4.26534
4.29444
4.31789
4.33584
4.34871
4.35742
4.36365
4.36976
4.37779
3.5057
3.56683
3.62595
3.68695
3.7462
3.80254
3.85509
3.90335
3.94702
3.98587
4.01973
4.04847
4.07207
4.09069
4.10471
4.11492
4.12296
4.13096
4.14011
3.28855
3.34598
3.40143
3.45868
3.51439
3.56751
3.61721
3.66304
3.7047
3.74201
3.7748
3.80299
3.82656
3.84566
3.86062
3.87219
3.88177
3.89127
3.90136
3.07506
3.12834
3.17989
3.23316
3.28512
3.33481
3.38146
3.42466
3.46414
3.49974
3.53131
3.55879
3.58217
3.60158
3.61731
3.62995
3.64086
3.65162
3.66223
2.86472
2.9138
2.96132
3.0105
3.0586
3.10475
3.14825
3.18871
3.22591
3.25969
3.28995
3.3166
3.33966
3.35921
3.37551
3.38909
3.40103
3.41265
3.42359
2.65749
2.70223
2.74571
2.7908
2.83502
2.87761
2.91793
2.95563
2.99051
3.02243
3.05131
3.07706
3.09969
3.11927
3.13598
3.15022
3.16296
3.17523
3.18612
2.45297
2.49353
2.53304
2.57411
2.61453
2.65362
2.69081
2.72579
2.75838
2.78846
2.81594
2.84075
2.86287
2.88235
2.8993
2.91406
2.92735
2.9399
2.95057
2.25122
2.28766
2.32333
2.36054
2.39731
2.43303
2.4672
2.49955
2.52991
2.55819
2.58429
2.60814
2.62971
2.64898
2.66605
2.6811
2.69472
2.70735
2.71751
2.05196
2.08462
2.11668
2.15023
2.18354
2.21606
2.24735
2.27719
2.30542
2.33197
2.35673
2.37962
2.40059
2.41958
2.43662
2.45182
2.46554
2.47796
2.48751
1.85542
1.88453
1.91324
1.94337
1.97342
2.00291
2.03149
2.05895
2.08517
2.11005
2.13351
2.15546
2.17579
2.19443
2.21132
2.22647
2.24011
2.25218
2.26091
1.66165
1.68759
1.7132
1.74014
1.76713
1.79379
1.8198
1.845
1.86929
1.89258
1.91479
1.93579
1.95546
1.97367
1.99029
2.00527
2.01863
2.0301
2.03798
1.4711
1.49404
1.51677
1.54073
1.56485
1.58883
1.61239
1.63543
1.65785
1.67959
1.70054
1.72058
1.73955
1.75727
1.77354
1.78816
1.80106
1.81182
1.81875
1.2839
1.30412
1.32415
1.34529
1.36669
1.38808
1.40928
1.4302
1.45077
1.47094
1.49061
1.50966
1.52788
1.54503
1.56084
1.575
1.58727
1.5971
1.60313
1.10045
1.11805
1.1355
1.15394
1.17268
1.19155
1.21041
1.22919
1.24786
1.2664
1.28471
1.30266
1.32004
1.33655
1.35183
1.3654
1.3769
1.38573
1.39082
0.920874
0.93598
0.950917
0.966707
0.982831
0.999166
1.01563
1.03219
1.04885
1.0656
1.08238
1.09907
1.11546
1.13123
1.14589
1.15886
1.1695
1.17718
1.18143
0.745402
0.757966
0.770393
0.78353
0.797001
0.810735
0.824692
0.838883
0.853334
0.868061
0.883045
0.898207
0.913371
0.928212
0.942196
0.95454
0.964385
0.970968
0.974399
0.573818
0.583866
0.593753
0.60419
0.614929
0.625942
0.63723
0.648829
0.660792
0.673166
0.685976
0.699203
0.712743
0.726341
0.739488
0.751333
0.760636
0.7663
0.769165
0.405653
0.413164
0.420467
0.428133
0.436027
0.444166
0.45258
0.461322
0.470463
0.480073
0.490217
0.500942
0.512248
0.524031
0.535973
0.547294
0.55658
0.562173
0.564993
0.24103
0.246033
0.25068
0.25551
0.26047
0.265607
0.270965
0.276605
0.282594
0.289009
0.29593
0.303445
0.311638
0.320574
0.330226
0.340289
0.349637
0.356412
0.361667
0.0809686
0.0819849
0.0833274
0.0848505
0.0864701
0.0881816
0.0900031
0.0919651
0.0941043
0.096461
0.0990797
0.102011
0.105314
0.109063
0.113348
0.118221
0.123163
0.125637
0.134713
)
;

boundaryField
{
    leftWall
    {
        type            calculated;
        value           nonuniform List<scalar> 
50
(
7446.49
6639.2
5836.36
5039.15
4244.9
3447.83
2646.23
1872.8
1233.68
883.76
767.06
659.378
558.395
462.533
371.376
284.827
202.345
125.606
62.1759
18.8742
2.97944
3.08695
3.02744
2.95425
2.86625
2.76872
2.66456
2.55867
2.45288
2.34687
2.24024
2.13282
2.02442
1.91489
1.80414
1.69222
1.57919
1.46517
1.3503
1.23469
1.11845
1.00166
0.884403
0.766751
0.648761
0.530532
0.412158
0.293784
0.175563
0.0578446
)
;
    }
    rightWall
    {
        type            calculated;
        value           nonuniform List<scalar> 
50
(
2601.13
2056.51
1561.38
1133.5
796.975
550.373
406.673
341.575
274.494
205.045
153.398
105.776
58.9317
21.4698
7.38747
7.3472
7.18659
7.03465
6.87715
6.71032
6.53313
6.34638
6.15111
5.94836
5.7387
5.52301
5.30203
5.07633
4.84664
4.61352
4.37779
4.14011
3.90136
3.66223
3.42359
3.18612
2.95057
2.71751
2.48751
2.26091
2.03798
1.81875
1.60313
1.39082
1.18143
0.974399
0.769165
0.564993
0.361667
0.134713
)
;
    }
    lowerWall
    {
        type            calculated;
        value           nonuniform List<scalar> 
62
(
7844.64
7838.02
7784.87
7672.02
7506.85
7300.95
7069.41
6821.18
6567.84
6319.59
6085.2
5872.33
5685.19
5524.56
5388.63
5275.36
5179.78
5098.47
5029.1
4972.82
4931.38
4908.64
4907.54
4509.61
3716.05
2920.22
2120.44
1331.31
804.321
641.33
588.839
544.602
533.162
516.929
512.362
1426.82
1347.44
1228.06
1080
958.653
865.351
772.906
670.187
1456.17
1468.69
1572.63
1644.1
1692.97
2038.46
2974.41
3288.52
3219.81
3253.2
3285.62
3107.27
2887.5
2726.39
2670.79
2607.28
2574.76
2720.88
2875.54
)
;
    }
    atmosphere
    {
        type            calculated;
        value           nonuniform List<scalar> 
46
(
0
0
0
0
0
0
0
0
0
0
0
0
0
0
0
0
0
0
0
0
-4.76208e-06
-4.62627e-05
-0.000102192
-0.000100989
-8.97832e-05
-9.6436e-05
-0.000135328
-0.000271113
-0.000467167
-0.000694979
-0.000939376
-0.00118525
-0.00142009
-0.00163248
-0.00181182
-0.00194872
-0.00203578
-0.00206846
-0.00204627
-0.00197381
-0.00186171
-0.00172702
-0.00159423
-0.00149681
-0.00156021
-0.00120814
)
;
    }
    defaultFaces
    {
        type            empty;
    }
}


// ************************************************************************* //
