/*--------------------------------*- C++ -*----------------------------------*\
  =========                 |
  \\      /  F ield         | OpenFOAM: The Open Source CFD Toolbox
   \\    /   O peration     | Website:  https://openfoam.org
    \\  /    A nd           | Version:  13
     \\/     M anipulation  |
\*---------------------------------------------------------------------------*/
FoamFile
{
    format      ascii;
    class       volScalarField;
    location    "1.15";
    object      p_rgh;
}
// * * * * * * * * * * * * * * * * * * * * * * * * * * * * * * * * * * * * * //

dimensions      [1 -1 -2 0 0 0 0];

internalField   nonuniform List<scalar> 
2268
(
7844.64
7838.02
7784.87
7672.02
7506.85
7300.95
7069.41
6821.18
6567.84
6319.59
6085.2
5872.33
5685.19
5524.56
5388.63
5275.36
5179.78
5098.47
5029.1
4972.82
4931.38
4908.64
4907.54
7833.65
7831.05
7782.98
7671.5
7509.53
7309.91
7082.49
6838.63
6588.02
6340.12
6103.73
5887.5
5696.43
5531.85
5392.39
5275.2
5175.38
5091.43
5020.08
4963.28
4923.51
4905.52
4909.84
7827.11
7827.66
7784.39
7675.64
7517.7
7322.85
7100.8
6860.49
6611.45
6362.92
6124.19
5904.26
5708.93
5540.01
5396.42
5275.31
5172.58
5086.07
5013.13
4956.53
4919.84
4909.94
4910.66
7826.2
7836.02
7797.72
7691.85
7535.82
7342.79
7121.92
6881.23
6631.39
6380.7
6138.05
5914.13
5714.72
5542.14
5395.44
5271.69
5167.49
5079.76
5004.94
4947.3
4913.42
4912.94
4907.44
7828.25
7855.91
7823.55
7720.41
7563.49
7369.42
7146.71
6901.45
6646.32
6388.44
6135.18
5901.71
5696.02
5520.95
5363.16
5195.6
5047.15
4912.94
4783.62
4667.81
4618.72
4670.98
4764.62
7827.48
7881.06
7856.96
7757.88
7599.07
7402.67
7175.02
6916.37
6637.3
6353.87
5820.49
5114.99
4387.4
3744.88
3232.86
2872.46
2593.12
2365.39
2162.7
1991.5
1983.82
2168.94
2279.61
7822.17
7909
7897.07
7804.61
7642.56
7438.77
7187.78
6727.23
5477.63
3751.23
2502.19
1823.62
1516.59
1375.15
1305.52
1262.9
1223.87
1187.14
1155.89
1132.58
1078.99
996.218
958.338
7499.53
7886.01
7926.87
7746.26
7525.71
7052.32
5327.16
2993.22
1771.75
1480.81
1444.05
1408.17
1371.6
1334.51
1297
1258.97
1221.61
1185.59
1154.18
1162.81
1143.96
1031.33
949.229
1456.17
1468.69
1572.63
1644.1
1692.97
2038.46
2974.41
3288.52
3219.81
3253.2
3285.62
3107.27
2887.5
2726.39
2670.79
2607.28
2574.76
2720.88
2875.54
1432.28
1569.01
1686.74
1747.5
1684.52
1915.3
2945.97
3203.45
3327.53
3437.89
3401.25
3203.07
2770.25
2668.06
2652.93
2526.75
2448.54
2672.87
2867.58
1419.63
1577.99
1716.52
1855.49
1864.09
1917.63
2908.04
3170.51
3218.76
3367.47
3448.65
3365.47
2422.55
1997.2
2028.96
1971.58
1915.89
2477.69
2838.08
1348.49
1334.47
1221.1
1877.35
2813.07
2954.17
2848.02
2389.02
2206.85
2816.17
3249.75
2921.52
2246.03
1900.88
1827.54
1782.99
1793.58
1924.92
2671.73
1197
1143.2
1114.95
1118.71
1996.15
2383.92
1589.19
933.827
947.331
1512.9
1902.94
2065.21
2330.62
2494.64
2310.67
2151.77
2144.03
1713.8
2285.76
1146.4
1127.41
1088.06
1023.04
945.882
922.12
899.3
928.074
949.582
1091.5
1188.63
1270.89
1522.76
1911.88
2195.42
2098.1
1742.68
1258.3
1805.21
1148.97
1097.78
1069.3
1015.08
952.739
920.632
912.71
930.396
978.847
974.353
683.168
637.606
643.23
713.923
746.452
839.719
733.631
795.671
964.611
1140.83
959.734
1038.9
1012.31
963.559
935.8
926.171
936.624
957.057
918.92
880.529
840.663
845.687
811.267
770.946
746.661
735.782
637.711
775.573
3718.36
4684.7
5015.05
4667.32
3443.81
2139.58
1586.55
1498.12
1477.29
1454.29
1428.18
1398.85
1366.68
1332.28
1296.4
1259.68
1223.03
1185.62
1140.79
1209.55
1055.66
920.299
781.188
1542.42
1530.74
1515.59
1506.17
1506.13
1508.03
1502.7
1490.29
1473.5
1452.15
1426.37
1397.27
1365.43
1331.88
1296.72
1259.39
1218.79
1046.89
863.715
777.299
820.342
802.388
798.848
1550.92
1541.42
1535.98
1528.66
1522.2
1515.39
1505.65
1491.46
1472.9
1450.17
1423.8
1394.79
1362.86
1330.14
1273.74
1065.64
898.302
835.867
813.858
821.303
815.179
805.201
798.3
1568.43
1558.49
1552.3
1544.69
1535.97
1525.46
1511.65
1494.02
1472.77
1448.49
1420.55
1393.12
1277.55
1074.66
926.03
852.328
795.518
844.151
841.524
828.829
816.063
805.176
795.681
1592.64
1583.4
1575.26
1565.35
1553.23
1538.29
1520.15
1498.91
1474.23
1450.6
1258.96
1094.77
925.904
814.366
793.362
865.69
860.177
849.612
838.857
827.017
814.723
802.954
791.784
1621.97
1612.22
1602.04
1589.44
1573.66
1554.51
1531.01
1495.52
1256.57
1087.87
891.578
788.896
800.333
869.051
874.862
865.885
856.998
846.773
835.832
824.025
811.652
799.284
787.005
1656.01
1643.96
1631.65
1616.64
1598.52
1555.9
1362.97
1122.32
880.599
743.887
823.644
872.086
887.557
880.72
873.049
864.176
854.637
844.129
832.932
821.194
808.635
795.614
783.072
1694.66
1678.53
1664.38
1649.09
1617.66
1324.47
871.903
717.946
851.985
884.262
897.822
893.18
887.483
880.719
872.768
863.711
853.843
842.932
830.99
818.712
804.367
788.263
778.334
1737.37
1717.19
1703.29
1668.12
1228.54
854.855
869.867
905.171
907.866
904.724
900.692
895.874
890.099
883.144
874.564
864.825
853.638
839.884
783.38
705.548
565.183
335.853
264.287
1785.82
1743.99
1518.88
1063.18
884.812
921.935
920.206
917.44
914.055
910.371
906.159
901.1
894.872
886.958
832.55
729.717
583.717
374.41
187.764
103.208
43.0954
7.49495
7.64826
1767.52
930.482
412.454
501.462
928.255
926.379
926.015
915.962
839.651
775.393
709.645
617.91
498.531
347.302
199.324
95.7444
32.4802
6.72725
6.86983
7.0726
7.18163
7.24477
7.34882
524.068
110.714
7.50773
142.716
302.224
355.419
338.736
197.45
134.396
98.2471
62.7611
30.7077
11.1082
5.9608
6.13397
6.35407
6.51787
6.60274
6.70055
6.84865
6.99808
7.14927
7.28801
5.01546
5.33294
5.40119
5.34575
5.49512
5.31539
5.21611
5.29843
5.37694
5.48615
5.63318
5.78928
5.90042
5.98335
6.08957
6.23063
6.37826
6.52765
6.66576
6.80753
6.95239
7.09194
7.22917
5.24849
5.26483
5.33192
5.29153
5.32741
5.35272
5.38714
5.43738
5.49229
5.55997
5.64728
5.75277
5.85963
5.9665
6.08324
6.20966
6.3497
6.49197
6.63461
6.7681
6.89834
7.02655
7.1508
5.31379
5.32449
5.34798
5.34717
5.36582
5.38679
5.41483
5.45567
5.50973
5.57648
5.65505
5.74515
5.87301
6.07337
6.16055
6.20364
6.3291
6.45811
6.5855
6.71123
6.83416
6.94853
7.06432
5.36572
5.35932
5.36935
5.37947
5.3956
5.41302
5.43976
5.48059
5.5343
5.59937
5.67395
5.7565
5.84726
6.09092
6.28708
6.39118
6.41925
6.41206
6.53073
6.64766
6.76392
6.87452
6.98507
5.40289
5.39112
5.39466
5.40466
5.42026
5.44016
5.46819
5.50732
5.55722
5.61684
5.6847
5.7599
5.84177
5.93582
6.12365
6.3612
6.46736
6.57577
6.52782
6.5749
6.68494
6.78883
6.89722
5.43053
5.41984
5.42116
5.43015
5.4455
5.46645
5.49448
5.53098
5.57613
5.6295
5.69032
5.75793
5.83227
5.91234
5.99698
6.10066
6.25547
6.38379
6.4977
6.53499
6.60826
6.7078
6.80973
5.45156
5.44508
5.4472
5.45576
5.47036
5.4908
5.51757
5.5513
5.59233
5.64047
5.69538
5.75665
5.82396
5.897
5.97528
6.05864
6.14728
6.24132
6.34174
6.45032
6.54364
6.635
6.73185
5.47086
5.46843
5.47199
5.48044
5.49421
5.51351
5.53856
5.56969
5.60717
5.65094
5.70084
5.75665
5.81807
5.88471
5.95639
6.03306
6.1148
6.20158
6.29237
6.38561
6.4794
6.56839
6.66047
5.49025
5.49068
5.49541
5.50387
5.51692
5.535
5.55832
5.58707
5.62144
5.66143
5.70699
5.75797
5.81416
5.87527
5.94103
6.01144
6.08656
6.16641
6.25041
6.33688
6.42379
6.50717
6.59528
5.50944
5.51175
5.51729
5.52587
5.53841
5.55544
5.5772
5.60385
5.63551
5.67221
5.71395
5.76065
5.81214
5.86821
5.92866
5.99338
6.0624
6.13578
6.21312
6.29308
6.37388
6.45225
6.53355
5.528
5.53153
5.53764
5.54634
5.5585
5.57464
5.59504
5.61983
5.64912
5.68296
5.72136
5.76424
5.81147
5.8629
5.91838
5.97783
6.04124
6.10864
6.17969
6.25331
6.32796
6.40075
6.47625
5.54577
5.55
5.55646
5.56522
5.57705
5.59244
5.61164
5.63479
5.66199
5.69329
5.72868
5.76811
5.81148
5.85865
5.90951
5.964
6.02212
6.0839
6.14906
6.21662
6.28528
6.35245
6.4221
5.56256
5.56714
5.57374
5.58247
5.59397
5.60868
5.62682
5.64852
5.67386
5.70288
5.73556
5.77187
5.81171
5.85497
5.90156
5.95143
6.0046
6.06108
6.12063
6.18242
6.24528
6.30686
6.37082
5.57822
5.5829
5.58947
5.59808
5.60922
5.62327
5.64044
5.66082
5.68448
5.71143
5.74166
5.77512
5.81173
5.8514
5.89403
5.93959
5.9881
6.03959
6.09384
6.15011
6.20738
6.26355
6.32184
5.59267
5.59727
5.60371
5.61209
5.62281
5.6362
5.65243
5.67158
5.69368
5.71873
5.7467
5.77754
5.81118
5.84751
5.88646
5.928
5.97214
6.01892
6.06814
6.11916
6.17105
6.22191
6.27476
5.60594
5.61034
5.61654
5.62461
5.63484
5.64754
5.66285
5.6808
5.70142
5.72468
5.75055
5.77895
5.8098
5.84301
5.87852
5.91628
5.95631
5.99863
6.04309
6.0891
6.13582
6.18156
6.22897
5.6181
5.62222
5.62811
5.63579
5.64548
5.65745
5.67181
5.68858
5.70776
5.72931
5.75317
5.77925
5.80748
5.83776
5.87001
5.90419
5.94033
5.97844
6.01837
6.05962
6.1014
6.1422
6.1845
5.62928
5.63307
5.63858
5.6458
5.65489
5.66609
5.67949
5.69508
5.71283
5.73271
5.75462
5.77849
5.80421
5.83168
5.86083
5.89162
5.92405
5.95815
5.99379
6.03049
6.06758
6.10371
6.14109
5.6396
5.64303
5.64812
5.65483
5.66328
5.67367
5.68606
5.70045
5.71679
5.735
5.75502
5.77673
5.80002
5.8248
5.85099
5.87853
5.90743
5.93771
5.96925
6.00162
6.03422
6.06587
6.09863
5.64919
5.65225
5.65689
5.66304
5.67081
5.68035
5.69172
5.70488
5.71978
5.73635
5.75449
5.77408
5.79503
5.81721
5.84054
5.86497
5.89049
5.91712
5.94474
5.97297
6.00129
6.02867
6.05691
5.65814
5.66084
5.66501
5.67059
5.67764
5.68631
5.69661
5.70852
5.72198
5.73689
5.75317
5.77069
5.78934
5.809
5.82958
5.85102
5.87331
5.89645
5.92034
5.94465
5.96891
5.99224
6.01628
5.66655
5.6689
5.6726
5.67758
5.6839
5.69166
5.70087
5.71151
5.7235
5.73677
5.7512
5.76667
5.78308
5.80029
5.81822
5.83681
5.85602
5.87586
5.89623
5.91682
5.93728
5.95687
5.97695
5.67448
5.67652
5.67975
5.68413
5.68969
5.69651
5.70462
5.71396
5.72448
5.73609
5.74868
5.76215
5.77637
5.79122
5.80661
5.82247
5.83878
5.8555
5.87256
5.88971
5.90664
5.92274
5.93925
5.68203
5.68376
5.68653
5.69029
5.69508
5.70096
5.70793
5.71596
5.725
5.73496
5.74574
5.75724
5.76933
5.78191
5.79488
5.80816
5.82173
5.83556
5.84957
5.86354
5.87722
5.89015
5.90331
5.68923
5.69069
5.69301
5.69616
5.70015
5.70506
5.71089
5.71761
5.72516
5.73348
5.74247
5.75204
5.76207
5.77247
5.78314
5.79401
5.80505
5.81621
5.82743
5.83852
5.84929
5.85938
5.8696
5.6962
5.69739
5.69927
5.7018
5.70499
5.70892
5.71359
5.71899
5.72506
5.73175
5.73898
5.74666
5.75471
5.76302
5.77152
5.78014
5.78884
5.79758
5.8063
5.81483
5.82302
5.83066
5.83828
5.70302
5.70398
5.70543
5.70731
5.70969
5.71262
5.71613
5.7202
5.72479
5.72987
5.73537
5.74121
5.74734
5.75366
5.76011
5.76663
5.77319
5.77975
5.78623
5.7925
5.79844
5.80393
5.80939
5.70984
5.71056
5.71154
5.71276
5.71429
5.71621
5.71855
5.7213
5.72443
5.72792
5.73172
5.73579
5.74006
5.74449
5.74902
5.75362
5.75826
5.7629
5.76747
5.77184
5.77589
5.77951
5.78317
5.71681
5.71715
5.71753
5.71795
5.71858
5.71946
5.72062
5.72205
5.72374
5.72567
5.72783
5.73018
5.73271
5.73537
5.73815
5.74104
5.74402
5.74709
5.75018
5.75321
5.75611
5.75869
5.76116
5.72429
5.72433
5.72425
5.72414
5.7241
5.72419
5.7244
5.72474
5.72522
5.72583
5.72655
5.7274
5.72836
5.72943
5.73061
5.73191
5.73333
5.73489
5.73659
5.73844
5.74054
5.74284
5.74584
782.893
770.453
729.516
708.602
792.549
787.829
775.586
756.281
791.472
787.105
784.384
785.826
788.331
783.644
779.643
777.002
783.606
778.331
773.361
769.006
777.604
771.597
765.923
760.816
772.707
765.668
759.076
753.623
773.135
729.857
660.51
647.785
323.2
200.035
112.801
102.231
8.01995
8.02849
7.90766
7.94228
7.55325
7.73677
7.91114
8.04313
7.47839
7.65591
7.84111
7.98405
7.41311
7.59133
7.78303
7.92919
7.32644
7.50251
7.69423
7.8417
7.23385
7.4061
7.59501
7.74071
7.14707
7.30849
7.49072
7.63375
7.05722
7.21084
7.38531
7.52433
6.95966
7.11114
7.27945
7.41373
6.87288
7.01595
7.17646
7.30529
6.79268
6.92651
7.07731
7.19993
6.71791
6.84219
6.98358
7.09974
6.6478
6.76305
6.89428
7.00334
6.58169
6.68782
6.80928
6.9108
6.51889
6.61611
6.7276
6.82179
6.45909
6.5478
6.65009
6.73685
6.40224
6.48294
6.576
6.65551
6.34749
6.42062
6.50528
6.57762
6.29443
6.36035
6.43672
6.50237
6.24292
6.30201
6.37082
6.4299
6.19305
6.2457
6.30694
6.35977
6.14431
6.19083
6.24519
6.29198
6.09661
6.13725
6.18485
6.22617
6.0502
6.08525
6.12675
6.16287
6.00562
6.03548
6.07098
6.10228
5.96297
5.98798
6.01812
6.04485
5.9225
5.94304
5.96804
5.99066
5.88465
5.90107
5.92152
5.94026
5.84979
5.86256
5.87864
5.89374
5.81781
5.82732
5.83952
5.85113
5.78871
5.7951
5.80345
5.81174
5.76496
5.76745
5.77042
5.77498
5.75231
5.7531
5.74856
5.74672
897.605
794.799
868.805
965.24
976.879
957.526
947.782
944.839
940.655
927.469
917.335
888.064
845.285
778.627
703.669
633.445
621.279
594.619
654.328
749.844
779.535
754.887
738.053
771.339
864.839
949.753
956.734
951.453
936.453
894.62
796.778
662.573
586.816
562.055
556.36
549.094
529.011
449.218
788.255
774.879
751.026
719.544
685.143
660.088
671.191
728.443
768.024
727.158
636.22
569.221
563.449
560.689
557.438
554.497
551.858
511.453
455.963
773.238
759.962
739.936
714.37
686.534
659.746
635.758
614.806
597.001
583.114
573.521
565.894
559.35
553.464
544.065
548.25
556.079
522.707
432.662
761.789
748.242
730.592
709.203
685.849
662.494
640.431
620.763
603.781
589.978
578.995
531.484
433.683
314.91
250.8
296.74
443.942
522.049
502.279
752.41
738.556
722.138
703.303
683.226
663.201
644.481
628.869
599.763
507.41
320.12
135.971
34.16
9.71425
10.663
20.9918
141.835
249.926
292.934
744.669
731.081
716.046
700.003
684.757
647.3
567.514
416.137
210.72
55.779
8.93444
9.10266
9.2498
9.30062
9.47088
14.4747
19.6549
13.914
9.74401
640.761
600.991
539.862
438.689
300.944
168.581
61.6957
8.3791
8.56486
8.97934
9.0523
9.07202
9.06598
9.23957
14.3125
16.0694
10.606
8.78254
8.7586
90.8992
59.5749
29.8433
10.9948
8.16493
8.25108
8.66109
8.78949
8.81357
9.0507
9.66866
9.74227
9.07449
9.53006
12.1767
11.4278
8.7546
8.73907
8.72379
8.10242
8.20789
8.3646
8.48452
8.52653
8.57217
8.66427
8.71759
8.75158
9.42502
9.91449
9.88703
8.97075
8.85991
8.81085
8.7456
8.72567
8.70669
8.69684
8.17018
8.25307
8.33771
8.3989
8.45027
8.51034
8.57487
8.62928
8.68211
8.87381
8.9227
8.74937
8.78372
8.78625
8.75578
8.72057
8.69291
8.67266
8.66307
8.11627
8.18858
8.25822
8.32001
8.37657
8.43776
8.50517
8.55436
8.59487
8.63011
8.66201
8.69316
8.71675
8.71982
8.70107
8.67464
8.65039
8.63106
8.62136
8.05609
8.12039
8.18513
8.25036
8.31097
8.37069
8.43086
8.48342
8.52837
8.56708
8.59937
8.62676
8.64524
8.64845
8.63645
8.61726
8.59681
8.57915
8.5707
7.97225
8.03745
8.10222
8.1688
8.23235
8.29366
8.35247
8.40518
8.45139
8.49106
8.52359
8.54912
8.56566
8.5702
8.56327
8.54925
8.53247
8.51676
8.50925
7.87161
7.93866
8.0052
8.07419
8.14067
8.20393
8.26313
8.31649
8.36357
8.40397
8.43701
8.46229
8.47874
8.48511
8.48197
8.47201
8.45842
8.44499
8.43928
7.7638
7.8324
7.90075
7.9718
8.04035
8.10512
8.16512
8.21931
8.26718
8.3083
8.34206
8.36794
8.38526
8.39355
8.39342
8.38675
8.37614
8.36522
8.36074
7.65286
7.72271
7.79216
7.86454
7.93436
8.00012
8.06081
8.11567
8.16422
8.20605
8.2406
8.26738
8.28594
8.29615
8.29863
8.29486
8.28706
8.27878
8.27638
7.54015
7.61123
7.68162
7.75454
7.8249
7.89112
7.95217
8.00742
8.05643
8.09882
8.1341
8.16185
8.18173
8.19375
8.19848
8.19718
8.19197
8.18628
8.18567
7.42846
7.50059
7.57086
7.64363
7.71386
7.77997
7.84095
7.89621
7.94533
7.98794
8.02367
8.05215
8.07314
8.08671
8.09333
8.09426
8.09149
8.08815
8.08967
7.31915
7.39257
7.46134
7.53295
7.60223
7.66753
7.72784
7.78259
7.83138
7.87385
7.90968
7.93859
7.96042
7.97529
7.98369
7.98672
7.98639
7.98563
7.98851
7.21483
7.28516
7.35285
7.42272
7.49028
7.55408
7.61311
7.66682
7.71484
7.75685
7.79255
7.82173
7.84428
7.86033
7.87038
7.87547
7.87747
7.87915
7.88401
7.11303
7.1805
7.24589
7.31331
7.37857
7.44033
7.49761
7.54988
7.59677
7.63802
7.67335
7.7026
7.7257
7.74279
7.75435
7.7613
7.76553
7.76958
7.77609
7.01403
7.07862
7.14108
7.20551
7.26798
7.32723
7.38233
7.43276
7.47819
7.51837
7.55309
7.58219
7.60564
7.62359
7.63646
7.64518
7.65141
7.65752
7.66555
6.91864
6.97977
7.0389
7.0999
7.15914
7.21548
7.26803
7.31629
7.35996
7.39882
7.43267
7.46141
7.48502
7.50363
7.51766
7.52787
7.53593
7.54393
7.55307
6.82669
6.88412
6.93957
6.99682
7.05253
7.10565
7.15535
7.20117
7.24284
7.28014
7.31294
7.34113
7.3647
7.3838
7.39876
7.41034
7.41994
7.42944
7.43952
6.73839
6.79167
6.84322
6.89649
6.94845
6.99814
7.04479
7.08799
7.12747
7.16307
7.19465
7.22213
7.24551
7.26491
7.28065
7.2933
7.30423
7.31504
7.3256
6.65324
6.70232
6.74984
6.79903
6.84713
6.89327
6.93677
6.97723
7.01443
7.04822
7.07847
7.10513
7.12819
7.14774
7.16404
7.17764
7.18963
7.20127
7.21217
6.57121
6.61595
6.65943
6.70452
6.74874
6.79133
6.83165
6.86935
6.90423
6.93615
6.96503
6.99078
7.01342
7.03299
7.04971
7.06398
7.07678
7.08915
7.0999
6.49188
6.53245
6.57195
6.61302
6.65345
6.69254
6.72973
6.76471
6.79729
6.82737
6.85485
6.87967
6.90179
6.92127
6.93823
6.95304
6.96647
6.97902
6.98955
6.41533
6.45177
6.48744
6.52465
6.56142
6.59714
6.63131
6.66365
6.69402
6.7223
6.7484
6.77225
6.79382
6.8131
6.83018
6.84531
6.85905
6.8717
6.88168
6.34126
6.37392
6.40599
6.43954
6.47284
6.50536
6.53665
6.56649
6.59473
6.62127
6.64603
6.66893
6.6899
6.7089
6.72595
6.74125
6.75508
6.7675
6.77687
6.26992
6.29902
6.32774
6.35787
6.38791
6.41741
6.44599
6.47345
6.49966
6.52455
6.54802
6.56996
6.5903
6.60894
6.62586
6.64111
6.65485
6.66687
6.67544
6.20134
6.22728
6.25289
6.27983
6.30682
6.33348
6.3595
6.3847
6.40898
6.43228
6.45448
6.47548
6.49516
6.51338
6.53003
6.54508
6.55854
6.56988
6.57769
6.13598
6.15892
6.18165
6.20561
6.22974
6.25371
6.27728
6.30032
6.32274
6.34447
6.36543
6.38547
6.40445
6.42218
6.43847
6.45312
6.46601
6.47674
6.48364
6.07398
6.0942
6.11423
6.13537
6.15677
6.17816
6.19936
6.22028
6.24085
6.26102
6.2807
6.29974
6.31797
6.33514
6.35095
6.36513
6.37736
6.38719
6.39321
6.01573
6.03332
6.05077
6.06921
6.08796
6.10683
6.12568
6.14446
6.16314
6.18168
6.19999
6.21794
6.23532
6.25184
6.26712
6.28069
6.29218
6.30101
6.30609
5.96134
5.97645
5.99139
6.00718
6.0233
6.03964
6.0561
6.07266
6.08932
6.10607
6.12285
6.13954
6.15594
6.17171
6.18637
6.19933
6.20997
6.21765
6.2219
5.91107
5.92363
5.93606
5.94919
5.96267
5.9764
5.99036
6.00455
6.019
6.03373
6.04871
6.06388
6.07904
6.09388
6.10787
6.12021
6.13005
6.13663
6.14006
5.86468
5.87473
5.88461
5.89505
5.90579
5.9168
5.92809
5.93969
5.95165
5.96403
5.97684
5.99006
6.0036
6.0172
6.03035
6.04219
6.0515
6.05716
6.06002
5.82171
5.82922
5.83652
5.84419
5.85208
5.86022
5.86863
5.87738
5.88652
5.89613
5.90627
5.917
5.9283
5.94009
5.95203
5.96335
5.97263
5.97823
5.98105
5.78228
5.78728
5.79193
5.79676
5.80172
5.80685
5.81221
5.81785
5.82384
5.83026
5.83718
5.84469
5.85289
5.86182
5.87147
5.88154
5.89089
5.89766
5.90292
5.74741
5.74843
5.74977
5.75129
5.75291
5.75462
5.75645
5.75841
5.76055
5.7629
5.76552
5.76845
5.77176
5.77551
5.77979
5.78466
5.78961
5.79208
5.80116
)
;

boundaryField
{
    leftWall
    {
        type            fixedFluxPressure;
        gradient        uniform 0;
        value           nonuniform List<scalar> 
50
(
7844.64
7833.65
7827.11
7826.2
7828.25
7827.48
7822.17
7499.53
3718.36
1542.42
1550.92
1568.43
1592.64
1621.97
1656.01
1694.66
1737.37
1785.82
1767.52
524.068
5.01546
5.24849
5.31379
5.36572
5.40289
5.43053
5.45156
5.47086
5.49025
5.50944
5.528
5.54577
5.56256
5.57822
5.59267
5.60594
5.6181
5.62928
5.6396
5.64919
5.65814
5.66655
5.67448
5.68203
5.68923
5.6962
5.70302
5.70984
5.71681
5.72429
)
;
    }
    rightWall
    {
        type            fixedFluxPressure;
        gradient        uniform 0;
        value           nonuniform List<scalar> 
50
(
2875.54
2867.58
2838.08
2671.73
2285.76
1805.21
964.611
775.573
654.328
449.218
455.963
432.662
502.279
292.934
9.74401
8.7586
8.72379
8.69684
8.66307
8.62136
8.5707
8.50925
8.43928
8.36074
8.27638
8.18567
8.08967
7.98851
7.88401
7.77609
7.66555
7.55307
7.43952
7.3256
7.21217
7.0999
6.98955
6.88168
6.77687
6.67544
6.57769
6.48364
6.39321
6.30609
6.2219
6.14006
6.06002
5.98105
5.90292
5.80116
)
;
    }
    lowerWall
    {
        type            fixedFluxPressure;
        gradient        uniform 0;
        value           nonuniform List<scalar> 
62
(
7844.64
7838.02
7784.87
7672.02
7506.85
7300.95
7069.41
6821.18
6567.84
6319.59
6085.2
5872.33
5685.19
5524.56
5388.63
5275.36
5179.78
5098.47
5029.1
4972.82
4931.38
4908.64
4907.54
4907.54
4909.84
4910.66
4907.44
4764.62
2279.61
958.338
949.229
782.893
770.453
729.516
708.602
1456.17
1432.28
1419.63
1348.49
1197
1146.4
1148.97
1140.83
1456.17
1468.69
1572.63
1644.1
1692.97
2038.46
2974.41
3288.52
3219.81
3253.2
3285.62
3107.27
2887.5
2726.39
2670.79
2607.28
2574.76
2720.88
2875.54
)
;
    }
    atmosphere
    {
        type            prghTotalPressure;
        rho             rho;
        psi             none;
        gamma           1;
        p0              uniform 0;
        value           nonuniform List<scalar> 
46
(
5.72904
5.72904
5.72904
5.72904
5.72904
5.72904
5.72904
5.72904
5.72904
5.72904
5.72904
5.72904
5.72904
5.72904
5.72904
5.72904
5.72904
5.72904
5.72904
5.72904
5.72904
5.72899
5.72894
5.72894
5.72895
5.72894
5.7289
5.72877
5.72857
5.72835
5.7281
5.72785
5.72762
5.72741
5.72723
5.72709
5.727
5.72697
5.72699
5.72707
5.72718
5.72731
5.72745
5.72754
5.72748
5.72783
)
;
        rho             rho;
    }
    defaultFaces
    {
        type            empty;
    }
}


// ************************************************************************* //
