/*--------------------------------*- C++ -*----------------------------------*\
  =========                 |
  \\      /  F ield         | OpenFOAM: The Open Source CFD Toolbox
   \\    /   O peration     | Website:  https://openfoam.org
    \\  /    A nd           | Version:  13
     \\/     M anipulation  |
\*---------------------------------------------------------------------------*/
FoamFile
{
    format      ascii;
    class       surfaceScalarField;
    location    "1.15";
    object      phi;
}
// * * * * * * * * * * * * * * * * * * * * * * * * * * * * * * * * * * * * * //

dimensions      [0 3 -1 0 0 0 0];

internalField   nonuniform List<scalar> 
4432
(
3.56545e-06
-3.56542e-06
5.20167e-06
-1.63619e-06
6.60026e-06
-1.39859e-06
7.74622e-06
-1.14596e-06
8.40822e-06
-6.61997e-07
8.52648e-06
-1.18268e-07
8.0907e-06
4.35778e-07
7.17603e-06
9.14668e-07
5.96471e-06
1.21132e-06
4.64224e-06
1.32246e-06
3.37517e-06
1.26708e-06
2.28083e-06
1.09433e-06
1.41204e-06
8.68798e-07
7.84818e-07
6.27225e-07
3.90776e-07
3.94044e-07
2.10504e-07
1.80273e-07
2.3275e-07
-2.22461e-08
4.25283e-07
-1.92532e-07
7.43061e-07
-3.17778e-07
1.13198e-06
-3.88921e-07
1.48935e-06
-3.57367e-07
1.5691e-06
-7.97485e-08
1.5691e-06
2.70096e-06
-6.26628e-06
5.17778e-06
-4.11295e-06
7.3006e-06
-3.52136e-06
8.83515e-06
-2.68047e-06
9.64549e-06
-1.47231e-06
9.73762e-06
-2.10383e-07
9.18712e-06
9.86304e-07
8.15336e-06
1.94846e-06
6.84583e-06
2.51888e-06
5.44904e-06
2.71928e-06
4.11096e-06
2.60517e-06
2.9399e-06
2.26541e-06
1.98886e-06
1.81985e-06
1.27277e-06
1.34332e-06
7.81935e-07
8.8488e-07
4.94469e-07
4.67741e-07
3.7752e-07
9.47045e-08
3.90826e-07
-2.05837e-07
4.6542e-07
-3.92371e-07
5.39065e-07
-4.62566e-07
5.8072e-07
-3.99022e-07
5.70589e-07
-6.96179e-08
2.13969e-06
2.65651e-06
-8.92279e-06
5.64345e-06
-7.09989e-06
8.09074e-06
-5.96866e-06
9.7667e-06
-4.35644e-06
1.05896e-05
-2.29526e-06
1.0625e-05
-2.45723e-07
9.99927e-06
1.61201e-06
8.89337e-06
3.05436e-06
7.53101e-06
3.88124e-06
6.09363e-06
4.15666e-06
4.71702e-06
3.98179e-06
3.50251e-06
3.47992e-06
2.50325e-06
2.81911e-06
1.73235e-06
2.11423e-06
1.17783e-06
1.43939e-06
8.1467e-07
8.30903e-07
6.03813e-07
3.05561e-07
4.94782e-07
-9.68063e-08
4.14858e-07
-3.12447e-07
2.98108e-07
-3.45816e-07
1.14275e-07
-2.1519e-07
-7.8242e-08
1.22899e-07
2.06144e-06
3.02129e-06
-1.1944e-05
6.35174e-06
-1.04303e-05
8.96377e-06
-8.58068e-06
1.06816e-05
-6.07422e-06
1.14699e-05
-3.08354e-06
1.1441e-05
-2.16847e-07
1.07502e-05
2.30287e-06
9.59096e-06
4.21359e-06
8.19714e-06
5.27509e-06
6.73832e-06
5.6155e-06
5.33325e-06
5.38687e-06
4.08475e-06
4.72842e-06
3.04571e-06
3.85815e-06
2.22918e-06
2.93076e-06
1.62288e-06
2.04569e-06
1.19693e-06
1.25686e-06
9.08658e-07
5.93829e-07
7.03447e-07
1.08404e-07
5.1249e-07
-1.21489e-07
2.7237e-07
-1.05697e-07
-8.47702e-08
1.41949e-07
-4.76424e-07
5.1455e-07
1.58502e-06
3.59417e-06
-1.55382e-05
7.13228e-06
-1.39684e-05
9.81302e-06
-1.12614e-05
1.15288e-05
-7.78998e-06
1.22663e-05
-3.8211e-06
1.21838e-05
-1.3438e-07
1.14605e-05
3.02621e-06
1.02765e-05
5.39761e-06
8.86724e-06
6.68436e-06
7.4038e-06
7.07892e-06
5.98871e-06
6.80194e-06
4.7213e-06
5.99581e-06
3.65613e-06
4.92329e-06
2.80424e-06
3.78263e-06
2.15171e-06
2.69819e-06
1.67313e-06
1.73543e-06
1.31669e-06
9.50262e-07
1.02803e-06
3.97065e-07
7.53261e-07
1.53279e-07
4.66271e-07
1.81294e-07
7.00351e-08
5.38184e-07
-4.69476e-07
1.05406e-06
1.11554e-06
4.1714e-06
-1.97096e-05
7.79459e-06
-1.75917e-05
1.04832e-05
-1.39501e-05
1.21923e-05
-9.4991e-06
1.28992e-05
-4.52796e-06
1.27878e-05
-2.29954e-08
1.20587e-05
3.75532e-06
1.08992e-05
6.55712e-06
9.54383e-06
8.03966e-06
8.11698e-06
8.5057e-06
6.74335e-06
8.17551e-06
5.50811e-06
7.23101e-06
4.47725e-06
5.95412e-06
3.64557e-06
4.61429e-06
2.99149e-06
3.35225e-06
2.49109e-06
2.23583e-06
2.08132e-06
1.36003e-06
1.69737e-06
7.81012e-07
1.33879e-06
5.11861e-07
1.14972e-06
3.70358e-07
9.2147e-07
7.66426e-07
4.60837e-07
1.51467e-06
1.57634e-06
4.51887e-06
-2.42285e-05
8.13054e-06
-2.12033e-05
1.08121e-05
-1.66317e-05
1.25333e-05
-1.12202e-05
1.3226e-05
-5.22069e-06
1.31441e-05
5.89027e-08
1.2508e-05
4.39138e-06
1.14637e-05
7.60135e-06
1.02942e-05
9.2091e-06
9.0663e-06
9.7335e-06
7.86426e-06
9.37746e-06
6.76175e-06
8.33345e-06
5.8641e-06
6.85172e-06
5.18184e-06
5.29653e-06
4.65283e-06
3.88124e-06
4.19805e-06
2.69062e-06
3.75093e-06
1.80715e-06
3.2162e-06
1.31575e-06
2.71436e-06
1.01371e-06
2.9056e-06
1.79114e-07
3.24131e-06
4.30695e-07
3.23096e-06
1.52497e-06
4.8073e-06
4.52024e-06
-2.87487e-05
7.94334e-06
-2.46264e-05
1.05526e-05
-1.92409e-05
1.2369e-05
-1.30367e-05
1.31572e-05
-6.00892e-06
1.31692e-05
4.6904e-08
1.27965e-05
4.76403e-06
1.19583e-05
8.43943e-06
1.09461e-05
1.02212e-05
1.02458e-05
1.04337e-05
9.77645e-06
9.84683e-06
9.36925e-06
8.74065e-06
8.91221e-06
7.30876e-06
8.39092e-06
5.81783e-06
7.81408e-06
4.4581e-06
7.15127e-06
3.35343e-06
6.37908e-06
2.57935e-06
5.38979e-06
2.30505e-06
4.34282e-06
2.06069e-06
4.35045e-06
1.71469e-07
4.49914e-06
2.81998e-07
4.04537e-06
1.97873e-06
8.85262e-06
-2.93504e-05
2.93503e-05
-3.89617e-05
9.61129e-06
-4.53983e-05
6.43664e-06
-5.30239e-05
7.62562e-06
-5.92488e-05
6.22476e-06
-5.99935e-05
7.44593e-07
-5.03912e-05
-9.60237e-06
-4.201e-05
-8.38118e-06
-3.58056e-05
-6.20446e-06
-2.86163e-05
-7.18929e-06
-1.82926e-05
-1.03237e-05
-8.73976e-06
-9.55292e-06
-6.41611e-06
-2.32366e-06
-8.56905e-06
2.15295e-06
-8.18183e-06
-3.87224e-07
-7.60667e-06
-5.7515e-07
-8.63338e-06
1.02671e-06
-6.05035e-06
-2.58303e-06
-6.05035e-06
-2.1522e-05
5.08722e-05
-2.96141e-05
1.77034e-05
-3.72824e-05
1.4105e-05
-4.29079e-05
1.32511e-05
-4.5663e-05
8.97993e-06
-4.48946e-05
-2.38889e-08
-4.12979e-05
-1.31991e-05
-3.742e-05
-1.22591e-05
-3.36808e-05
-9.94363e-06
-2.80019e-05
-1.28682e-05
-2.0679e-05
-1.76466e-05
-1.29987e-05
-1.72332e-05
-8.46367e-06
-6.85864e-06
-6.9277e-06
6.16977e-07
-5.04712e-06
-2.2678e-06
-3.39481e-06
-2.22746e-06
-3.40911e-06
1.04099e-06
-2.61087e-06
-3.38128e-06
-8.66124e-06
-1.51733e-05
6.60454e-05
-2.48432e-05
2.73733e-05
-3.35023e-05
2.2764e-05
-3.75865e-05
1.73353e-05
-3.71079e-05
8.5014e-06
-3.54789e-05
-1.65296e-06
-3.53991e-05
-1.32789e-05
-3.39781e-05
-1.36801e-05
-3.15447e-05
-1.23769e-05
-2.7004e-05
-1.74089e-05
-2.14822e-05
-2.31684e-05
-1.62924e-05
-2.2423e-05
-1.11159e-05
-1.20351e-05
-6.5302e-06
-3.96877e-06
-3.11908e-06
-5.67893e-06
-1.23675e-07
-5.22289e-06
1.53064e-06
-6.13343e-07
7.08933e-07
-2.55957e-06
-7.9523e-06
-9.48497e-06
7.55303e-05
-1.99267e-05
3.78149e-05
-2.96707e-05
3.25078e-05
-3.358e-05
2.12445e-05
-3.2617e-05
7.53834e-06
-3.12605e-05
-3.00938e-06
-3.16434e-05
-1.2896e-05
-3.14725e-05
-1.38509e-05
-2.94716e-05
-1.43778e-05
-2.55513e-05
-2.13292e-05
-2.14885e-05
-2.72311e-05
-1.78444e-05
-2.60669e-05
-1.31723e-05
-1.67072e-05
-7.15409e-06
-9.9869e-06
-2.19815e-06
-1.06349e-05
2.35721e-06
-9.77826e-06
5.7602e-06
-4.01635e-06
3.54657e-06
-3.45962e-07
-4.40574e-06
-5.14519e-06
8.06755e-05
-1.49264e-05
4.75962e-05
-2.29561e-05
4.05374e-05
-2.81495e-05
2.64377e-05
-2.87222e-05
8.11091e-06
-2.8143e-05
-3.58844e-06
-2.88583e-05
-1.21806e-05
-2.89971e-05
-1.3712e-05
-2.67437e-05
-1.66312e-05
-2.33721e-05
-2.47008e-05
-2.05099e-05
-3.00932e-05
-1.75222e-05
-2.90544e-05
-1.31873e-05
-2.1042e-05
-7.69729e-06
-1.54768e-05
-2.38069e-06
-1.59514e-05
2.72388e-06
-1.48828e-05
6.59874e-06
-7.89117e-06
5.66357e-06
5.89209e-07
1.25783e-06
-2.62181e-06
8.32972e-05
-1.11344e-05
5.61089e-05
-1.67136e-05
4.61167e-05
-2.0784e-05
3.0508e-05
-2.36279e-05
1.09547e-05
-2.46321e-05
-2.58426e-06
-2.52792e-05
-1.15334e-05
-2.43914e-05
-1.45999e-05
-2.22302e-05
-1.87924e-05
-2.02866e-05
-2.66442e-05
-1.88447e-05
-3.1535e-05
-1.64558e-05
-3.14432e-05
-1.23901e-05
-2.51076e-05
-7.30833e-06
-2.05585e-05
-2.45449e-06
-2.08052e-05
2.09376e-06
-1.9431e-05
5.56899e-06
-1.13664e-05
6.18762e-06
-2.94329e-08
7.44541e-06
-1.69879e-06
8.49961e-05
-9.06432e-06
6.34744e-05
-1.27237e-05
4.97761e-05
-1.51014e-05
3.28858e-05
-1.77355e-05
1.35889e-05
-1.9522e-05
-7.97839e-07
-2.05819e-05
-1.04735e-05
-1.99714e-05
-1.52105e-05
-1.81337e-05
-2.06302e-05
-1.64091e-05
-2.83689e-05
-1.52903e-05
-3.26537e-05
-1.36802e-05
-3.30534e-05
-1.01364e-05
-2.86514e-05
-5.70059e-06
-2.49943e-05
-1.78403e-06
-2.47217e-05
1.69703e-06
-2.2912e-05
4.83512e-06
-1.45044e-05
6.26695e-06
-1.4613e-06
1.37123e-05
-2.8292e-06
8.78254e-05
-7.64861e-06
6.82937e-05
-1.00468e-05
5.21743e-05
-1.15635e-05
3.44026e-05
-1.36094e-05
1.56349e-05
-1.53918e-05
9.84618e-07
-1.65015e-05
-9.36398e-06
-1.59447e-05
-1.57674e-05
-1.42844e-05
-2.22906e-05
-1.26104e-05
-3.0043e-05
-1.05742e-05
-3.469e-05
-8.60172e-06
-3.5026e-05
-5.77721e-06
-3.14761e-05
-2.64996e-06
-2.81216e-05
-1.61086e-08
-2.73556e-05
2.1429e-06
-2.5071e-05
5.13133e-06
-1.74929e-05
6.30477e-06
-2.63477e-06
2.0017e-05
9.20158e-06
-3.79502e-05
1.56393e-05
-3.1064e-05
2.0465e-05
-2.40664e-05
2.45355e-05
-1.71071e-05
2.68587e-05
-8.33209e-06
2.68796e-05
2.60577e-08
2.64288e-05
5.21471e-06
2.66791e-05
8.18901e-06
2.70361e-05
9.86421e-06
2.7237e-05
1.02329e-05
2.72251e-05
9.85878e-06
2.68665e-05
9.09937e-06
2.60417e-05
8.13371e-06
2.47839e-05
7.07574e-06
2.31159e-05
6.12616e-06
2.09938e-05
5.47559e-06
1.8568e-05
5.00517e-06
1.53711e-05
5.50189e-06
1.15653e-05
5.86651e-06
8.92962e-06
2.80709e-06
6.5824e-06
2.62921e-06
2.88175e-06
5.67934e-06
1.30654e-05
-1.33095e-06
7.21258e-06
-4.51628e-05
9.9068e-06
-3.37581e-05
1.21339e-05
-2.62934e-05
1.39874e-05
-1.89606e-05
1.65181e-05
-1.08628e-05
1.98779e-05
-3.33375e-06
2.30808e-05
2.01189e-06
2.57948e-05
5.47507e-06
2.79729e-05
7.6863e-06
2.92929e-05
8.91301e-06
2.96955e-05
9.4563e-06
2.93108e-05
9.48414e-06
2.81571e-05
9.28748e-06
2.63978e-05
8.83508e-06
2.41905e-05
8.33348e-06
2.11528e-05
8.51328e-06
1.76885e-05
8.46945e-06
1.38566e-05
9.33377e-06
9.03011e-06
1.0693e-05
1.85813e-06
9.97904e-06
-5.34916e-06
9.83647e-06
-1.28735e-05
1.32037e-05
1.85944e-05
-1.84025e-05
-1.28083e-06
-4.3882e-05
1.07062e-06
-3.61096e-05
3.75891e-06
-2.89818e-05
6.89637e-06
-2.20981e-05
1.08921e-05
-1.48585e-05
1.55871e-05
-8.02876e-06
2.00498e-05
-2.45073e-06
2.3649e-05
1.87598e-06
2.61455e-05
5.18991e-06
2.74995e-05
7.55905e-06
2.77184e-05
9.23746e-06
2.7076e-05
1.01265e-05
2.54916e-05
1.08719e-05
2.30242e-05
1.13025e-05
1.9998e-05
1.13596e-05
1.599e-05
1.25213e-05
1.01517e-05
1.43078e-05
4.09778e-06
1.53876e-05
-1.70955e-06
1.65003e-05
-8.03503e-06
1.63045e-05
-1.48606e-05
1.66621e-05
-2.06977e-05
1.90407e-05
2.27472e-05
-2.48504e-05
-2.46811e-06
-4.14139e-05
-1.74375e-06
-3.68341e-05
5.90668e-07
-3.13163e-05
3.96372e-06
-2.54712e-05
8.21462e-06
-1.91094e-05
1.28174e-05
-1.26315e-05
1.69576e-05
-6.5909e-06
2.01246e-05
-1.29098e-06
2.20619e-05
3.25258e-06
2.29614e-05
6.65956e-06
2.25467e-05
9.65219e-06
2.12967e-05
1.13765e-05
1.9139e-05
1.30295e-05
1.56676e-05
1.47739e-05
1.06463e-05
1.63809e-05
5.20702e-06
1.79605e-05
-4.30218e-07
1.9945e-05
-5.68395e-06
2.06414e-05
-1.05027e-05
2.1319e-05
-1.56432e-05
2.14451e-05
-2.08788e-05
2.18977e-05
-2.51921e-05
2.3354e-05
2.55452e-05
-2.79901e-05
-1.51248e-06
-3.99014e-05
-1.54654e-06
-3.68e-05
-5.23645e-08
-3.28105e-05
2.64316e-06
-2.81667e-05
6.12762e-06
-2.25939e-05
9.70979e-06
-1.62137e-05
1.2712e-05
-9.59312e-06
1.48413e-05
-3.42029e-06
1.56236e-05
2.47027e-06
1.55311e-05
6.75208e-06
1.43629e-05
1.08203e-05
1.19906e-05
1.37488e-05
8.45408e-06
1.6566e-05
4.17513e-06
1.90528e-05
-4.31576e-07
2.09876e-05
-4.75931e-06
2.22883e-05
-8.68126e-06
2.3867e-05
-1.27532e-05
2.47134e-05
-1.67204e-05
2.52862e-05
-2.07936e-05
2.55184e-05
-2.47215e-05
2.58257e-05
-2.78694e-05
2.65019e-05
2.74233e-05
-2.97474e-05
-1.14623e-06
-3.87552e-05
-1.75689e-06
-3.61894e-05
-1.18032e-06
-3.3387e-05
4.8129e-07
-2.98284e-05
2.74271e-06
-2.48553e-05
4.95174e-06
-1.84227e-05
6.34535e-06
-1.09867e-05
6.91617e-06
-3.99111e-06
6.49981e-06
2.88661e-06
4.89363e-06
8.35823e-06
2.75944e-06
1.29545e-05
-1.62207e-07
1.66705e-05
-3.10036e-06
1.95041e-05
-5.79001e-06
2.17425e-05
-8.53581e-06
2.37334e-05
-1.15313e-05
2.52838e-05
-1.44381e-05
2.67739e-05
-1.75451e-05
2.78205e-05
-2.0711e-05
2.84521e-05
-2.38814e-05
2.86888e-05
-2.68792e-05
2.88235e-05
-2.92715e-05
2.88943e-05
2.86802e-05
-3.05284e-05
-1.97719e-06
-3.67781e-05
-3.55561e-06
-3.4611e-05
-4.07206e-06
-3.28706e-05
-3.67897e-06
-3.02215e-05
-2.74091e-06
-2.57934e-05
-2.12634e-06
-1.90373e-05
-2.55177e-06
-1.05612e-05
-3.88625e-06
-2.65663e-06
-5.24614e-06
4.2465e-06
-7.08891e-06
1.0201e-05
-8.55334e-06
1.44189e-05
-9.80585e-06
1.7923e-05
-1.10917e-05
2.079e-05
-1.25421e-05
2.31929e-05
-1.41451e-05
2.53365e-05
-1.60516e-05
2.71903e-05
-1.81005e-05
2.88227e-05
-2.03641e-05
3.00841e-05
-2.2804e-05
3.0892e-05
-2.52478e-05
3.11326e-05
-2.76338e-05
3.12096e-05
-2.9706e-05
3.09664e-05
2.94964e-05
-3.05221e-05
-3.99942e-06
-3.27787e-05
-6.99241e-06
-3.1618e-05
-8.78074e-06
-3.10823e-05
-9.59547e-06
-2.94067e-05
-1.0349e-05
-2.50397e-05
-1.15977e-05
-1.77885e-05
-1.3188e-05
-8.9709e-06
-1.47007e-05
-1.14392e-06
-1.55492e-05
5.09497e-06
-1.58307e-05
1.04825e-05
-1.61238e-05
1.4712e-05
-1.63794e-05
1.81787e-05
-1.66745e-05
2.10852e-05
-1.71377e-05
2.36562e-05
-1.78512e-05
2.605e-05
-1.88209e-05
2.816e-05
-2.00177e-05
3.00195e-05
-2.1512e-05
3.15783e-05
-2.33178e-05
3.26978e-05
-2.50924e-05
3.29072e-05
-2.69148e-05
3.30318e-05
-2.93335e-05
3.33849e-05
3.05093e-05
-3.03467e-05
-6.44929e-06
-2.63294e-05
-1.08452e-05
-2.72222e-05
-1.40612e-05
-2.78662e-05
-1.66876e-05
-2.67802e-05
-1.92684e-05
-2.24589e-05
-2.1495e-05
-1.55619e-05
-2.24012e-05
-8.06471e-06
-2.24658e-05
-1.07934e-06
-2.2358e-05
4.9872e-06
-2.19735e-05
1.0098e-05
-2.14982e-05
1.42367e-05
-2.10019e-05
1.76824e-05
-2.05469e-05
2.06303e-05
-2.01896e-05
2.32989e-05
-2.00846e-05
2.5945e-05
-2.02701e-05
2.83454e-05
-2.06708e-05
3.042e-05
-2.15263e-05
3.24334e-05
-2.28485e-05
3.40195e-05
-2.39538e-05
3.40119e-05
-2.47744e-05
3.38519e-05
-2.74804e-05
3.60905e-05
3.29591e-05
-2.99305e-05
-6.85833e-06
-1.94711e-05
-1.28641e-05
-2.12161e-05
-1.88067e-05
-2.19233e-05
-2.46054e-05
-2.09814e-05
-2.77551e-05
-1.93091e-05
-2.88624e-05
-1.44546e-05
-2.87484e-05
-8.17872e-06
-2.81977e-05
-1.63006e-06
-2.73896e-05
4.17911e-06
-2.64033e-05
9.11176e-06
-2.53335e-05
1.31669e-05
-2.42842e-05
1.6633e-05
-2.32703e-05
1.96162e-05
-2.23754e-05
2.24038e-05
-2.17073e-05
2.52765e-05
-2.12421e-05
2.78798e-05
-2.08841e-05
3.00614e-05
-2.09776e-05
3.25267e-05
-2.18307e-05
3.4872e-05
-2.23125e-05
3.44928e-05
-2.27539e-05
3.4292e-05
-2.44697e-05
3.78046e-05
3.48717e-05
-2.63837e-05
-2.05733e-06
-1.74133e-05
-8.66371e-06
-1.46094e-05
-2.48252e-05
-5.76152e-06
-3.29856e-05
-1.28208e-05
-3.45308e-05
-1.77638e-05
-3.46247e-05
-1.43606e-05
-3.38087e-05
-8.99454e-06
-3.27403e-05
-2.69828e-06
-3.1445e-05
2.88375e-06
-2.99304e-05
7.597e-06
-2.83435e-05
1.15797e-05
-2.68097e-05
1.5099e-05
-2.53945e-05
1.82007e-05
-2.41108e-05
2.112e-05
-2.29821e-05
2.41473e-05
-2.19929e-05
2.68897e-05
-2.18954e-05
2.99624e-05
-2.34264e-05
3.40558e-05
-2.45285e-05
3.59727e-05
-2.64425e-05
3.64051e-05
-2.96579e-05
3.75061e-05
-3.28211e-05
4.09676e-05
3.73504e-05
-3.52988e-05
1.18063e-05
-2.92191e-05
-1.75602e-06
-1.04498e-06
-3.55094e-05
2.79922e-05
-3.84502e-05
-9.88051e-06
-3.91123e-05
-1.71018e-05
-3.91749e-05
-1.42978e-05
-3.77141e-05
-1.04551e-05
-3.65823e-05
-3.82985e-06
-3.49885e-05
1.28997e-06
-3.30037e-05
5.61187e-06
-3.09257e-05
9.50108e-06
-2.91222e-05
1.32944e-05
-2.80757e-05
1.71528e-05
-2.77796e-05
2.08224e-05
-2.81974e-05
2.45638e-05
-2.95575e-05
2.82483e-05
-3.29715e-05
3.33751e-05
-3.73846e-05
3.84685e-05
-4.06139e-05
3.9202e-05
-4.22719e-05
3.80633e-05
-4.2801e-05
3.80361e-05
-4.13551e-05
3.95236e-05
3.66384e-05
-4.06406e-05
-9.36076e-06
-1.98563e-05
-1.65553e-05
6.14962e-06
-1.74281e-05
2.88634e-05
-2.81371e-05
8.27479e-07
-3.96775e-05
-5.56109e-06
-4.37391e-05
-1.02356e-05
-4.34337e-05
-1.07598e-05
-4.14274e-05
-5.83573e-06
-3.95985e-05
-5.39161e-07
-3.86687e-05
4.68144e-06
-3.891e-05
9.74156e-06
-4.06535e-05
1.50366e-05
-4.37274e-05
2.02256e-05
-4.71601e-05
2.42544e-05
-4.96385e-05
2.7042e-05
-5.07089e-05
2.9319e-05
-5.06469e-05
3.33141e-05
-4.98418e-05
3.7665e-05
-5.02529e-05
3.96145e-05
-5.07194e-05
3.85313e-05
-5.02915e-05
3.76097e-05
-4.84056e-05
3.76389e-05
3.40899e-05
-4.58553e-05
-1.48642e-05
-4.99186e-06
-2.46881e-05
1.5972e-05
-2.19295e-05
2.61044e-05
-3.22229e-05
1.11209e-05
-4.04245e-05
2.6407e-06
-4.70794e-05
-3.5805e-06
-5.17245e-05
-6.11462e-06
-5.39656e-05
-3.59461e-06
-5.5728e-05
1.22311e-06
-5.71394e-05
6.09292e-06
-5.8049e-05
1.06515e-05
-5.84804e-05
1.54687e-05
-5.89795e-05
2.07255e-05
-5.96268e-05
2.49026e-05
-6.05096e-05
2.79258e-05
-6.11136e-05
2.99242e-05
-6.04457e-05
3.26477e-05
-5.91361e-05
3.63563e-05
-5.72454e-05
3.77244e-05
-5.57713e-05
3.70576e-05
-5.40916e-05
3.59306e-05
-5.09381e-05
3.44861e-05
3.07302e-05
-4.75769e-05
-1.36402e-05
8.64776e-06
-2.15841e-05
2.39159e-05
-2.3055e-05
2.75756e-05
-2.99771e-05
1.80434e-05
-3.79297e-05
1.05931e-05
-4.5663e-05
4.15244e-06
-5.26541e-05
8.76099e-07
-5.7889e-05
1.64e-06
-6.1241e-05
4.57517e-06
-6.34822e-05
8.33451e-06
-6.51513e-05
1.23212e-05
-6.62589e-05
1.65772e-05
-6.66052e-05
2.10727e-05
-6.65634e-05
2.48612e-05
-6.60224e-05
2.73852e-05
-6.54329e-05
2.93352e-05
-6.42901e-05
3.15055e-05
-6.18077e-05
3.38742e-05
-5.88788e-05
3.47958e-05
-5.61319e-05
3.43108e-05
-5.31873e-05
3.29863e-05
-4.95969e-05
3.08962e-05
2.71385e-05
-4.60038e-05
-1.36034e-05
2.22516e-05
-1.98696e-05
3.01822e-05
-2.28229e-05
3.0529e-05
-2.86372e-05
2.38579e-05
-3.52585e-05
1.72144e-05
-4.25427e-05
1.14366e-05
-4.96288e-05
7.96212e-06
-5.54022e-05
7.41336e-06
-5.97009e-05
8.87387e-06
-6.28024e-05
1.14362e-05
-6.50462e-05
1.45653e-05
-6.6472e-05
1.80033e-05
-6.6907e-05
2.15079e-05
-6.64343e-05
2.43886e-05
-6.55071e-05
2.64581e-05
-6.41907e-05
2.8019e-05
-6.22757e-05
2.95907e-05
-5.93794e-05
3.0978e-05
-5.60706e-05
3.14871e-05
-5.26942e-05
3.09342e-05
-4.91496e-05
2.94417e-05
-4.5327e-05
2.70741e-05
2.33956e-05
-4.15828e-05
-1.06198e-05
3.28716e-05
-1.61853e-05
3.57479e-05
-1.98828e-05
3.42267e-05
-2.48502e-05
2.88254e-05
-3.06948e-05
2.3059e-05
-3.71965e-05
1.79383e-05
-4.37098e-05
1.44754e-05
-4.9407e-05
1.31106e-05
-5.39605e-05
1.34273e-05
-5.73852e-05
1.48611e-05
-5.97852e-05
1.69654e-05
-6.12071e-05
1.94252e-05
-6.16107e-05
2.19116e-05
-6.11955e-05
2.39734e-05
-6.01748e-05
2.54373e-05
-5.86379e-05
2.64822e-05
-5.64567e-05
2.74095e-05
-5.34926e-05
2.80139e-05
-5.00556e-05
2.80501e-05
-4.64065e-05
2.7285e-05
-4.26333e-05
2.56685e-05
-3.87356e-05
2.31765e-05
1.96497e-05
-3.49883e-05
-7.26434e-06
4.01364e-05
-1.17365e-05
4.02203e-05
-1.51929e-05
3.76832e-05
-1.94128e-05
3.30454e-05
-2.43962e-05
2.80425e-05
-2.99696e-05
2.35118e-05
-3.56446e-05
2.01504e-05
-4.08237e-05
1.82897e-05
-4.51578e-05
1.77614e-05
-4.85197e-05
1.82229e-05
-5.08917e-05
1.93374e-05
-5.22753e-05
2.08088e-05
-5.26949e-05
2.23312e-05
-5.23356e-05
2.36141e-05
-5.13668e-05
2.44684e-05
-4.98757e-05
2.49909e-05
-4.77048e-05
2.52386e-05
-4.49142e-05
2.52232e-05
-4.15911e-05
2.4727e-05
-3.79627e-05
2.36563e-05
-3.41931e-05
2.18988e-05
-3.04275e-05
1.94113e-05
1.60222e-05
-2.67989e-05
-4.31241e-06
4.44489e-05
-7.2544e-06
4.31625e-05
-9.86517e-06
4.02941e-05
-1.31164e-05
3.62967e-05
-1.70889e-05
3.20151e-05
-2.16169e-05
2.80399e-05
-2.63221e-05
2.48557e-05
-3.07517e-05
2.27193e-05
-3.45766e-05
2.15863e-05
-3.76155e-05
2.12618e-05
-3.97867e-05
2.15085e-05
-4.10644e-05
2.20864e-05
-4.14837e-05
2.27503e-05
-4.11412e-05
2.32716e-05
-4.02084e-05
2.35354e-05
-3.87398e-05
2.35221e-05
-3.67435e-05
2.32422e-05
-3.42047e-05
2.26844e-05
-3.12088e-05
2.1731e-05
-2.78972e-05
2.03443e-05
-2.44195e-05
1.84211e-05
-2.09416e-05
1.59335e-05
1.27034e-05
-1.76215e-05
-1.87012e-06
4.63194e-05
-3.23388e-06
4.45265e-05
-4.72979e-06
4.17902e-05
-6.85075e-06
3.84177e-05
-9.66766e-06
3.48321e-05
-1.3038e-05
3.14102e-05
-1.66623e-05
2.84801e-05
-2.01842e-05
2.62412e-05
-2.33101e-05
2.47122e-05
-2.58444e-05
2.3796e-05
-2.76757e-05
2.33397e-05
-2.8757e-05
2.31677e-05
-2.91038e-05
2.3097e-05
-2.87954e-05
2.2963e-05
-2.79185e-05
2.26585e-05
-2.65427e-05
2.21463e-05
-2.47135e-05
2.1413e-05
-2.24472e-05
2.0418e-05
-1.98397e-05
1.91234e-05
-1.69523e-05
1.74566e-05
-1.3936e-05
1.54046e-05
-1.0929e-05
1.2927e-05
9.79949e-06
-8.02396e-06
5.49935e-08
4.62645e-05
1.85992e-08
4.4563e-05
-3.37058e-07
4.2146e-05
-1.28869e-06
3.93695e-05
-2.89034e-06
3.64338e-05
-5.03699e-06
3.35569e-05
-7.50229e-06
3.09454e-05
-1.00083e-05
2.87472e-05
-1.23051e-05
2.7009e-05
-1.42044e-05
2.56953e-05
-1.55846e-05
2.47199e-05
-1.63834e-05
2.39664e-05
-1.65949e-05
2.33084e-05
-1.62614e-05
2.26293e-05
-1.54489e-05
2.18459e-05
-1.42132e-05
2.09105e-05
-1.25929e-05
1.97926e-05
-1.06384e-05
1.84635e-05
-8.40288e-06
1.68878e-05
-5.97983e-06
1.50332e-05
-3.43837e-06
1.28631e-05
-8.75239e-07
1.03638e-05
7.45096e-06
1.4746e-06
1.38259e-06
4.48823e-05
2.41827e-06
4.35275e-05
3.06764e-06
4.14967e-05
3.19196e-06
3.92452e-05
2.74769e-06
3.68781e-05
1.7987e-06
3.45059e-05
4.97392e-07
3.22467e-05
-9.53969e-07
3.01986e-05
-2.35438e-06
2.84094e-05
-3.53662e-06
2.68774e-05
-4.38223e-06
2.55654e-05
-4.82232e-06
2.44064e-05
-4.83371e-06
2.33197e-05
-4.43174e-06
2.22272e-05
-3.65281e-06
2.10669e-05
-2.53762e-06
1.97952e-05
-1.12562e-06
1.83805e-05
5.39842e-07
1.6798e-05
2.40405e-06
1.50235e-05
4.4046e-06
1.30324e-05
6.45715e-06
1.08104e-05
8.46745e-06
8.35388e-06
5.53685e-06
1.03826e-05
2.2279e-06
4.26544e-05
4.03454e-06
4.1721e-05
5.47498e-06
4.00564e-05
6.48488e-06
3.82354e-05
7.03267e-06
3.63304e-05
7.14796e-06
3.43907e-05
6.92125e-06
3.24734e-05
6.48523e-06
3.06346e-05
5.98365e-06
2.89109e-05
5.54703e-06
2.7314e-05
5.28026e-06
2.58321e-05
5.25384e-06
2.44327e-05
5.50258e-06
2.30709e-05
6.03073e-06
2.1699e-05
6.82219e-06
2.02753e-05
7.85043e-06
1.87669e-05
9.08285e-06
1.7148e-05
1.04827e-05
1.53981e-05
1.20076e-05
1.34985e-05
1.36046e-05
1.14351e-05
1.5215e-05
9.19987e-06
1.67748e-05
6.79405e-06
4.10761e-06
1.82052e-05
2.71289e-06
3.99419e-05
5.02331e-06
3.94108e-05
7.02247e-06
3.80574e-05
8.68552e-06
3.65725e-05
9.99217e-06
3.50238e-05
1.09515e-05
3.34314e-05
1.16092e-05
3.18157e-05
1.20424e-05
3.02014e-05
1.23434e-05
2.86099e-05
1.26044e-05
2.7053e-05
1.29057e-05
2.55307e-05
1.33077e-05
2.40306e-05
1.38473e-05
2.25312e-05
1.45396e-05
2.10066e-05
1.53828e-05
1.9432e-05
1.6364e-05
1.77856e-05
1.74626e-05
1.60494e-05
1.86523e-05
1.42083e-05
1.99005e-05
1.22502e-05
2.11693e-05
1.01659e-05
2.24144e-05
7.95461e-06
2.35874e-05
5.62134e-06
3.05918e-06
2.46368e-05
2.95494e-06
3.6987e-05
5.55494e-06
3.68109e-05
7.89823e-06
3.57142e-05
9.98319e-06
3.44876e-05
1.18007e-05
3.32064e-05
1.33517e-05
3.18804e-05
1.46555e-05
3.05119e-05
1.57505e-05
2.91065e-05
1.66885e-05
2.76719e-05
1.75267e-05
2.62148e-05
1.83195e-05
2.47379e-05
1.91118e-05
2.32382e-05
1.99357e-05
2.17072e-05
2.08091e-05
2.01331e-05
2.17382e-05
1.85028e-05
2.27195e-05
1.68041e-05
2.37426e-05
1.50262e-05
2.47909e-05
1.316e-05
2.58427e-05
1.11983e-05
2.68698e-05
9.13849e-06
2.78427e-05
6.98163e-06
2.8729e-05
4.73498e-06
2.30776e-06
2.94816e-05
3.02564e-06
3.39618e-05
5.75835e-06
3.40784e-05
8.27662e-06
3.31961e-05
1.05891e-05
3.21752e-05
1.26973e-05
3.10982e-05
1.46033e-05
2.99745e-05
1.63146e-05
2.88007e-05
1.78476e-05
2.75735e-05
1.92273e-05
2.62921e-05
2.04842e-05
2.49578e-05
2.16504e-05
2.35717e-05
2.27548e-05
2.21337e-05
2.38207e-05
2.06413e-05
2.48636e-05
1.909e-05
2.5892e-05
1.74744e-05
2.69072e-05
1.57888e-05
2.79053e-05
1.40281e-05
2.88769e-05
1.21883e-05
2.98078e-05
1.02672e-05
3.0681e-05
8.26502e-06
3.14752e-05
6.18721e-06
3.2167e-05
4.04351e-06
1.74552e-06
3.27301e-05
2.97197e-06
3.09898e-05
5.7236e-06
3.13269e-05
8.29256e-06
3.06272e-05
1.06883e-05
2.97795e-05
1.2919e-05
2.88677e-05
1.49907e-05
2.79027e-05
1.6909e-05
2.68824e-05
1.86809e-05
2.58016e-05
2.03168e-05
2.46562e-05
2.18307e-05
2.34439e-05
2.32383e-05
2.2164e-05
2.45557e-05
2.08163e-05
2.57968e-05
1.94001e-05
2.69725e-05
1.79143e-05
2.80895e-05
1.63574e-05
2.91505e-05
1.47277e-05
3.01543e-05
1.30242e-05
3.1096e-05
1.12465e-05
3.19674e-05
9.39571e-06
3.27563e-05
7.47584e-06
3.34499e-05
5.49355e-06
3.40333e-05
3.45993e-06
1.29956e-06
3.44803e-05
2.82163e-06
2.81687e-05
5.50791e-06
2.86409e-05
8.04183e-06
2.80935e-05
1.04235e-05
2.7398e-05
1.26625e-05
2.66287e-05
1.47686e-05
2.57967e-05
1.67488e-05
2.49022e-05
1.86083e-05
2.39422e-05
2.03516e-05
2.29129e-05
2.19843e-05
2.18112e-05
2.35129e-05
2.06354e-05
2.49445e-05
1.93846e-05
2.62859e-05
1.80586e-05
2.75428e-05
1.66573e-05
2.87191e-05
1.51809e-05
2.98166e-05
1.36301e-05
3.08347e-05
1.20061e-05
3.17702e-05
1.0311e-05
3.26173e-05
8.5485e-06
3.33689e-05
6.72391e-06
3.40157e-05
4.84654e-06
3.45464e-05
2.92952e-06
8.97432e-07
3.49493e-05
2.60386e-06
2.55648e-05
5.15936e-06
2.60855e-05
7.59599e-06
2.5657e-05
9.89996e-06
2.50941e-05
1.20766e-05
2.44522e-05
1.41358e-05
2.37376e-05
1.60859e-05
2.29521e-05
1.79327e-05
2.20954e-05
1.96799e-05
2.11657e-05
2.13299e-05
2.01611e-05
2.28852e-05
1.908e-05
2.43481e-05
1.79217e-05
2.57208e-05
1.66858e-05
2.70054e-05
1.53726e-05
2.8203e-05
1.39832e-05
2.93139e-05
1.25192e-05
3.03369e-05
1.09831e-05
3.12692e-05
9.37865e-06
3.21068e-05
7.71075e-06
3.28432e-05
5.98721e-06
3.34726e-05
4.21712e-06
3.39872e-05
2.41476e-06
5.14319e-07
3.43712e-05
2.34151e-06
2.32238e-05
4.71812e-06
2.37091e-05
7.01427e-06
2.3361e-05
9.19954e-06
2.2909e-05
1.12718e-05
2.238e-05
1.32377e-05
2.17717e-05
1.51053e-05
2.10846e-05
1.68808e-05
2.03198e-05
1.85684e-05
1.94781e-05
2.01703e-05
1.85592e-05
2.16877e-05
1.75626e-05
2.31211e-05
1.64882e-05
2.44707e-05
1.53361e-05
2.57365e-05
1.41068e-05
2.69179e-05
1.28017e-05
2.8014e-05
1.14231e-05
2.90228e-05
9.97423e-06
2.99416e-05
8.4598e-06
3.07661e-05
6.88608e-06
3.14922e-05
5.26091e-06
3.21133e-05
3.59572e-06
3.26214e-05
1.90691e-06
1.28736e-07
3.30076e-05
2.06152e-06
2.11621e-05
4.22632e-06
2.15444e-05
6.35021e-06
2.12372e-05
8.38931e-06
2.08699e-05
1.03321e-05
2.04373e-05
1.21797e-05
1.99241e-05
1.39375e-05
1.93267e-05
1.56112e-05
1.86462e-05
1.72048e-05
1.78844e-05
1.87211e-05
1.70428e-05
2.01614e-05
1.61223e-05
2.15259e-05
1.51236e-05
2.28145e-05
1.40474e-05
2.40264e-05
1.28948e-05
2.51604e-05
1.16676e-05
2.62149e-05
1.03685e-05
2.71878e-05
9.0013e-06
2.80762e-05
7.57132e-06
2.88767e-05
6.08546e-06
2.95841e-05
4.55321e-06
3.01933e-05
2.98648e-06
3.06965e-05
1.40353e-06
-2.51294e-07
3.10772e-05
1.78112e-06
1.93813e-05
3.71745e-06
1.96082e-05
5.65072e-06
1.9304e-05
7.52631e-06
1.89944e-05
9.32453e-06
1.86392e-05
1.10404e-05
1.82082e-05
1.26754e-05
1.76918e-05
1.42328e-05
1.70888e-05
1.57162e-05
1.6401e-05
1.71282e-05
1.56308e-05
1.84705e-05
1.478e-05
1.97437e-05
1.38504e-05
2.09477e-05
1.28433e-05
2.20821e-05
1.17604e-05
2.31456e-05
1.0604e-05
2.41369e-05
9.37715e-06
2.5054e-05
8.08413e-06
2.58944e-05
6.73086e-06
2.66547e-05
5.32515e-06
2.73308e-05
3.87685e-06
2.79169e-05
2.40011e-06
2.84042e-05
9.1653e-07
-6.27715e-07
2.87812e-05
1.51752e-06
1.78637e-05
3.22202e-06
1.79037e-05
4.95526e-06
1.75708e-05
6.65784e-06
1.72918e-05
8.30336e-06
1.69937e-05
9.88087e-06
1.66307e-05
1.13872e-05
1.61854e-05
1.2823e-05
1.5653e-05
1.419e-05
1.5034e-05
1.54902e-05
1.43305e-05
1.67252e-05
1.3545e-05
1.7896e-05
1.26796e-05
1.90027e-05
1.17365e-05
2.00453e-05
1.07177e-05
2.10233e-05
9.62604e-06
2.19355e-05
8.46482e-06
2.27809e-05
7.23875e-06
2.35575e-05
5.95422e-06
2.42631e-05
4.61947e-06
2.48934e-05
3.24632e-06
2.54436e-05
1.8499e-06
2.59053e-05
4.54711e-07
-9.81872e-07
2.62601e-05
1.27793e-06
1.6586e-05
2.75978e-06
1.64219e-05
4.29523e-06
1.60353e-05
5.82313e-06
1.57639e-05
7.31325e-06
1.55035e-05
8.75011e-06
1.51939e-05
1.01264e-05
1.48091e-05
1.14396e-05
1.43398e-05
1.26893e-05
1.37842e-05
1.38764e-05
1.31435e-05
1.50016e-05
1.24197e-05
1.6066e-05
1.16152e-05
1.70698e-05
1.07325e-05
1.80134e-05
9.77411e-06
1.88966e-05
8.74278e-06
1.97192e-05
7.64218e-06
2.04808e-05
6.47713e-06
2.11808e-05
5.25423e-06
2.18176e-05
3.98262e-06
2.23892e-05
2.67459e-06
2.28905e-05
1.34838e-06
2.33121e-05
3.33861e-08
-1.30797e-06
2.36387e-05
1.07233e-06
1.55133e-05
2.34937e-06
1.51447e-05
3.69589e-06
1.46887e-05
5.05383e-06
1.4406e-05
6.39097e-06
1.41664e-05
7.68869e-06
1.38961e-05
8.93647e-06
1.35613e-05
1.01288e-05
1.31474e-05
1.12633e-05
1.26497e-05
1.2339e-05
1.20677e-05
1.33559e-05
1.14027e-05
1.43142e-05
1.06569e-05
1.52142e-05
9.83256e-06
1.60559e-05
8.9323e-06
1.68397e-05
7.95895e-06
1.75659e-05
6.91601e-06
1.82348e-05
5.80812e-06
1.88473e-05
4.64172e-06
1.9404e-05
3.42591e-06
1.9904e-05
2.17448e-06
2.03444e-05
9.07993e-07
2.07168e-05
-3.39115e-07
-1.58903e-06
2.09984e-05
9.03432e-07
1.461e-05
2.00178e-06
1.40463e-05
3.17739e-06
1.35131e-05
4.37644e-06
1.32068e-05
5.56761e-06
1.29751e-05
6.73109e-06
1.27326e-05
7.85437e-06
1.2438e-05
8.92981e-06
1.2072e-05
9.95297e-06
1.16265e-05
1.09213e-05
1.10993e-05
1.18336e-05
1.04904e-05
1.26889e-05
9.80149e-06
1.34869e-05
9.03456e-06
1.42272e-05
8.19194e-06
1.49099e-05
7.27621e-06
1.55355e-05
6.29042e-06
1.61051e-05
5.23851e-06
1.66208e-05
4.12605e-06
1.70851e-05
2.96161e-06
1.75007e-05
1.75881e-06
1.78677e-05
5.40928e-07
1.81787e-05
-6.49838e-07
-1.82168e-06
1.84118e-05
7.78424e-07
1.38313e-05
1.73003e-06
1.30946e-05
2.75704e-06
1.2486e-05
3.8132e-06
1.21506e-05
4.86959e-06
1.19187e-05
5.90697e-06
1.16952e-05
6.91227e-06
1.14326e-05
7.87667e-06
1.11075e-05
8.79427e-06
1.07089e-05
9.66106e-06
1.02324e-05
1.04743e-05
9.67717e-06
1.12318e-05
9.0439e-06
1.19321e-05
8.33426e-06
1.25738e-05
7.5502e-06
1.31561e-05
6.69384e-06
1.36791e-05
5.76744e-06
1.4144e-05
4.77369e-06
1.45536e-05
3.7164e-06
1.49134e-05
2.60183e-06
1.52296e-05
1.44252e-06
1.55082e-05
2.62515e-07
1.57468e-05
-8.88531e-07
-1.98956e-06
1.59152e-05
7.0007e-07
1.31313e-05
1.54386e-06
1.22507e-05
2.45128e-06
1.15785e-05
3.38434e-06
1.12175e-05
4.31986e-06
1.09831e-05
5.24162e-06
1.07734e-05
6.13762e-06
1.05366e-05
6.99887e-06
1.02462e-05
7.81857e-06
9.88917e-06
8.59144e-06
9.45953e-06
9.31323e-06
8.95533e-06
9.98034e-06
8.37676e-06
1.05895e-05
7.72503e-06
1.11379e-05
7.00177e-06
1.16232e-05
6.20861e-06
1.20437e-05
5.34688e-06
1.23998e-05
4.41764e-06
1.26943e-05
3.42187e-06
1.29341e-05
2.36204e-06
1.3131e-05
1.24557e-06
1.32992e-05