/*--------------------------------*- C++ -*----------------------------------*\
  =========                 |
  \\      /  F ield         | OpenFOAM: The Open Source CFD Toolbox
   \\    /   O peration     | Website:  https://openfoam.org
    \\  /    A nd           | Version:  13
     \\/     M anipulation  |
\*---------------------------------------------------------------------------*/
FoamFile
{
    format      ascii;
    class       volScalarField;
    location    "1.15";
    object      rho;
}
// * * * * * * * * * * * * * * * * * * * * * * * * * * * * * * * * * * * * * //

dimensions      [1 -3 0 0 0 0 0];

internalField   nonuniform List<scalar> 
2268
(
13529
13529
13529
13529
13529
13529
13529
13529
13529
13529
13529
13529
13529
13529
13529
13529
13529
13529
13529
13529
13528
13522
13521.6
13529
13529
13529
13529
13529
13529
13529
13529
13529
13529
13529
13529
13529
13529
13529
13529
13529
13529
13529
13529
13529
13527.6
13521.6
13529
13529
13529
13529
13529
13529
13529
13529
13529
13529
13529
13529
13529
13529
13529
13529
13529
13529
13529
13529
13529
13529
13526.9
13529
13529
13529
13529
13529
13529
13529
13529
13529
13529
13529
13529
13529
13529
13529
13529
13529
13529
13529
13529
13529
13529
13528.7
13529
13529
13529
13529
13529
13529
13529
13529
13529
13529
13529
13529
13529
13529
13478.8
13286.4
13089.1
12885
12661.4
12427.5
12368
12572.9
12962.5
13529
13529
13529
13529
13529
13529
13529
13529
13529
13529
12640
11065.8
9288.49
7674.76
6387.73
5506.97
4840.36
4307.7
3826.34
3405.98
3495.01
4159.66
4557.25
13529
13529
13529
13529
13529
13529
13529
13054.4
10408.2
6391.62
3481.06
1944.2
1308.08
1070.61
1003.73
999.999
999.996
999.978
999.768
998.802
960.2
869.46
828.603
12746.3
13360.5
13439.6
13218.4
13119.1
12518.6
9035.72
4110.55
1553.31
1000
1000
1000
1000
1000
1000
1000
999.999
999.998
1000
1072.89
1121.28
959.586
816.396
997.498
1335.96
2430.03
1882.05
1674.93
3817.23
11841.3
11767.8
7875.51
5748.18
5806.19
5685.11
8751.57
9459.66
9496
9542.4
9540.36
9361.05
9324.3
961.001
2927.69
3888.05
3391.52
1672.64
3060.34
11661.8
11864.5
11806.2
11263
10306.8
9605.94
8130.61
8817.13
9333.56
8568.04
8054.89
9172.86
9186.54
1301.92
2953.62
4009.3
4230.13
3147.51
3173.42
10115.4
11714.5
11885
11848.5
11860.6
11771.8
5921.29
3471.61
4106.9
4018.72
3811.65
7646.1
8676.41
1303.29
1689.04
1343.86
4402.04
8359.17
8919.73
8991.82
7180.75
6413.91
8872.49
10707.7
9145.38
5330.35
3304.51
3163.83
3143.84
3344.21
4564.63
7466.92
899.898
988.354
1019.45
1266.77
4642.8
6140.13
3404.12
1003.13
1023.6
3071.83
4549.72
5145.82
5861.43
6185.4
5466.4
4926.99
5030.26
3801.99
5620.95
868.194
1008.04
1002.57
1001.21
1001.24
1054.69
1002.56
1002.98
1009.23
1480.97
1888.27
2212.41
2994.71
4192.94
5072.56
4766.79
3720.61
2341.83
3876.27
982.964
989.855
1000.77
1000.7
1001.44
1001.83
1002.17
1002.56
1096.91
1124.53
418.646
344.472
397.866
657.529
826.385
1108.62
841.237
1047.81
1458.35
1066.16
723.347
963.727
999.558
1000.5
1001.01
1001.3
1004.53
1046.98
990.582
908.453
834.355
874.172
864.162
850.363
850.876
844.154
670.857
983.141
4657.61
6352.9
6967.93
6410.77
4311.18
2054.79
1118.93
1000
1000
1000
1000
1000
1000
1000
1000
1000
1000
1000
979.212
1160.61
923.914
715.462
473.993
1000
1000
1000
1000
1000
1000
1000
1000
1000
1000
1000
1000
1000
1000
1000
1000
989.981
772.254
528.363
426.477
511.802
499.709
500.054
1000
1000
1000
1000
1000
1000
1000
1000
1000
1000
1000
1000
1000
1000
966.066
733.261
543.905
478.319
463.653
490.343
500.335
500
500
1000
1000
1000
1000
1000
1000
1000
1000
1000
1000
1000
1000
901.022
700.922
552.933
480.738
427.544
491.226
500.001
500
500
500
499.999
1000
1000
1000
1000
1000
1000
1000
1000
1000
1000
835.337
691.931
537.649
434.81
420.511
497.27
499.95
499.998
500.001
500
500
500
500
1000
1000
1000
1000
1000
1000
999.068
987.875
798.772
664.506
499.47
413.238
425.553
488.591
499.827
499.993
499.993
499.996
499.999
500
500
500
500
1000
1000
1000
1000
999.997
983.829
850.145
673.086
487.938
382.356
444.572
484.126
499.99
500
499.997
499.993
499.993
500
500
500
500
500
500
1000
1000
1000
999.994
990.917
794.601
478.549
369.918
464.653
487.995
499.994
500
500
500
499.998
499.996
499.999
500
500
500
500
500
500
1000
1000
999.984
985.589
706.331
464.567
473.441
496.669
499.998
500
500
500
500
500
500
500
500
499.999
471.901
428.629
345.107
203.267
158.819
1000
988.58
859.356
587.664
477.911
499.988
500.002
500.003
500.005
500.001
500
500
500
500
472.579
416.253
333.749
212.978
104.802
56.0523
21.5237
1.00213
1.00213
955.152
498.652
214.447
259.722
494.436
493.904
495.36
492.192
451.555
417.135
381.973
332.573
267.908
185.658
105.349
49.1712
14.9127
1.00234
1.00181
1.00189
1.00143
1.00032
1.00032
264.415
53.7896
1.57287
70.044
151.209
178.776
171.164
99.0098
66.807
48.2997
30.1218
13.7017
3.6619
1.00154
1.00143
1.00169
1.00155
1.00006
1.0001
1.00019
1.00035
1.00043
1.00076
1.00011
1.00282
1.01259
1.00019
1.00032
1.00008
1.00005
1.00064
1.00029
1.00082
1.00116
1.00135
1.00133
1.00035
1.00003
1.00004
1
1.00002
1.00006
1.00015
1.00034
1.00047
1.00077
1.00025
1.0018
1.0098
1.00014
1.00014
1.00013
1.00011
1.00012
1.00012
1.00006
1.0001
1.00176
1.00247
1.00132
1.00161
1.0006
1
1.00001
1.00002
1.00008
1.00015
1.00026
1.00031
1.00007
1.00021
1.00067
1.00013
1.00006
1.00005
1.00004
1.00004
1.00006
1.00006
1.00005
1.00005
1.01146
1.05135
1.03755
1.0031
1.00291
1.00148
1.00062
1.00101
1.00137
1.00061
1.0003
1.00003
1.00005
1.00013
1.00014
1.00006
1.00006
1.00003
1.00003
1.00005
1.00006
1.00005
1.00005
1.00033
1.06023
1.09715
1.09354
1.05685
1.00374
1.00364
1.00369
1.00386
1.00411
1.00385
1.00002
1.00003
1.00005
1.00008
1.00006
1.00008
1.00004
1.00002
1.00003
1.00004
1.00005
1.00004
1.00005
1.00295
1.04033
1.09426
1.09351
1.09147
1.02793
1.00233
1.00231
1.0021
1.00278
1.00001
1.00002
1.00003
1.00005
1.00005
1.00008
1.00006
1.00002
1.00002
1.00003
1.00004
1.00005
1.00006
1.00005
1.00004
1.00529
1.02715
1.03666
1.03887
1.01262
1.00045
1.00041
1.00051
1.00001
1.00001
1.00002
1.00003
1.00003
1.00007
1.00006
1.00002
1.00001
1.00001
1.00002
1.00003
1.00004
1.00003
1.00003
1.00003
1.00007
1.00013
1.00091
1.0037
1.00131
1.00012
1.00004
1.00001
1.00001
1.00001
1.00001
1.00002
1.00005
1.00005
1.00002
1.00001
1.00001
1.00001
1.00001
1.00002
1.00002
1.00002
1.00002
1.00001
1
1
1
1.00017
1.00004
1.00001
1.00001
1
1.00001
1.00001
1.00001
1.00002
1.00003
1.00002
1.00001
1.00001
1.00001
1.00001
1.00001
1.00001
1.00001
1.00002
1.00001
1.00001
1
1.00001
1
1.00001
1
1
1
1
1
1
1.00001
1.00002
1.00001
1.00001
1.00001
1
1
1
1.00001
1.00001
1.00001
1.00001
1
1
1
1
1
1
1
1
1
1
1
1
1.00001
1.00001
1
1
1
1
1
1
1
1
1
1
1
1
1
1
1
1
1
1
1
1
1
1
1
1
1
1
1
1
1
1
1
1
1
1
1
1
1
1
1
1
1
1
1
1
1
1
1
1
1
1
1
1
1
1
1
1
1
1
1
1
1
1
1
1
1
1
1
1
1
1
1
1
1
1
1
1
1
1
1
1
1
1
1
1
1
1
1
1
1
1
1
1
1
1
1
1
1
1
1
1
1
1
1
1
1
1
1
1
1
1
1
1
1
1
1
1
1
1
1
1
1
1
1
1
1
1
1
1
1
1
1
1
1
1
1
1
1
1
1
1
1
1
1
1
1
1
1
1
1
1
1
1
1
1
1
1
1
1
1
1
1
1
1
1
1
1
1
1
1
1
1
1
1
1
1
1
1
1
1
1
1
1
1
1
1
1
1
1
1
1
1
1
1
1
1
1
1
1
1
1
1
1
1
1
1
1
1
1
1
1
1
1
1
1
1
1
1
1
1
1
1
1
1
1
1
1
1
1
1
1
1
1
1
1
1
1
1
1
1
1
1
1
1
1
1
1
1
1
1
1
1
1
1
1
1
1
1
1
1
1
1
1
1
1
1
1
1
1
1
1
1
1
1
1
1
1
1
1
1
1
1
1
1
1
1
1
1
1
1
1
1
1
1
1
1
1
1
1
1
1
1
1
1
1
1
1
1
1
1
1
1
1
1
1
1
1
1
1
1
1
1
1
1
1
1
1
1
1
1
1
1
1
1
1
1
1
1
1
1
1
1
1
1
1
1
1
1
1
1
1
1
1
1
1
1
1
1
1
1
1
1
1
1
1
1
1
1
1
1
1
1
1
1
1
1
1
1
1
1
1
1
1
1
1
1
1
1
1
1
1
1
1
1
1
1
1
1
1
1
1
1
1
1
1
1
1
1
1
1
1
1
1
1
1
1
1
1
1
1
1
1
1
1
1
1
1
1
1
1
1
1
1
1
1
1
1
1
1
1
1
1
1
1
1
1
1
1
1
1
1
1
1
506.066
503.94
451.478
416.762
502.34
502.273
485.423
449.681
500.002
499.937
499.51
500
499.996
499.992
500
500.002
500
500
500
500
500
500
500
500
500
500
500
500
500
474.781
432.054
427.005
196.872
120.476
66.4394
60.1874
1.0024
1.00043
1.00037
1.0006
1.00063
1.00056
1.00046
1.00045
1.00083
1.00092
1.00093
1.00092
1.00094
1.00097
1.00096
1.00094
1.00039
1.00043
1.00032
1.00026
1.00012
1.00016
1.00017
1.00011
1.00287
1.00063
1.00014
1.00012
1.00384
1.00135
1.00027
1.0002
1.00062
1.00043
1.00014
1.00004
1.00006
1.00003
1.00002
1.00001
1.00001
1.00001
1.00001
1.00001
1
1.00001
1.00001
1.00001
1
1
1
1
1
1
1
1
1
1
1
1
1
1
1
1
1
1
1
1
1
1
1
1
1
1
1
1
1
1
1
1
1
1
1
1
1
1
1
1
1
1
1
1
1
1
1
1
1
1
1
1
1
1
1
1
1
1
1
1
1
1
1
1
1
1
1
1
1
1
1
1
1
1
1
1
1
1
1
1
1
1
1
1
670.224
461.754
645.137
896.349
990.145
998.316
999.814
1001.35
1004.83
999.884
997.814
962.589
912.056
827.711
724.223
618.854
615.023
589.951
712.01
428.355
482.148
486.319
516.901
621.104
804.181
960.426
988.854
996.686
992.755
947.886
817.615
629.28
526.608
499.512
498.918
497.757
484.31
370.711
500.001
500
500.002
500.006
499.005
505.745
550.8
646.836
716.635
681.978
579.848
502.873
499.723
499.586
499.688
499.253
499.519
456.006
385.996
500.001
500
500.001
500.003
500.005
500.004
500.002
499.996
499.998
500.001
499.971
499.542
499.963
500.07
494.516
496.926
499.486
461.34
359.59
500
500
500
500.001
500.001
500.001
500.001
500
500.001
500
499.635
464.198
380.169
272.572
212.718
252.127
383.356
451.117
428.667
500
500
500
500
500
500
500
500
485.412
413.318
257.969
104.678
20.94
1.06652
1.36183
8.75989
109.222
198.435
234.134
500
500
500
500
500
480.145
424.584
311.279
154.551
36.4563
1.00296
1.00012
1.00014
1.002
1.00679
4.85647
9.06211
4.80989
1.8344
426.774
404.422
366.447
299.525
205.091
113.256
38.4153
1.00003
1
1.00037
1.00531
1.02496
1.00223
1.05287
4.58659
5.91977
2.2578
1.00109
1.00112
53.2545
33.6745
14.8966
2.8166
1.00001
1.00001
1.00002
1.00002
1.00003
1.10387
1.46291
1.5006
1.06106
1.34724
3.10778
2.69529
1.00037
1.00126
1.00141
1.00105
1.00103
1.00059
1.00009
1.00012
1.00037
1.00049
1.00036
1.0022
1.38649
1.65308
1.62547
1.05924
1.0027
1.01243
1.00026
1.00046
1.00047
1.00119
1.00038
1.00026
1.00015
1.00007
1.0002
1.00109
1.00192
1.00223
1.01245
1.10021
1.11349
1.00001
1.00005
1.00011
1.00011
1.00024
1.0002
1.00005
1.00029
1.00089
1.00071
1.00028
1.00004
1.00014
1.00068
1.00191
1.00154
1.00031
1
1
1.00001
1.00005
1.00014
1.00024
1.00025
1.00009
1.00005
1.00023
1.00084
1.00039
1.00013
1.00003
1.00005
1.00006
1.00003
1
1
1
1.00001
1.00002
1.00004
1.00008
1.0001
1.0001
1.00001
1.00006
1.00087
1.00019
1.00005
1.00002
1.00001
1.00001
1
1
1
1
1
1
1.00001
1.00001
1.00001
1.00001
1
1
1.00008
1.00086
1.00007
1.00001
1.00001
1.00001
1.00001
1.00001
1
1
1
1
1
1
1
1
1
1
1
1.00009
1.00087
1.00004
1.00003
1.00003
1.00002
1.00001
1.00001
1
1
1
1
1
1
1
1
1
1
1
1.00012
1.00041
1.0002
1.00011
1.00004
1.00003
1.00001
1.00001
1.00001
1
1
1
1
1
1
1
1
1
1
1.00013
1.00043
1.00002
1.00002
1.00005
1.00003
1.00001
1.00001
1.00001
1
1
1
1
1
1
1
1
1
1
1.00011
1.00033
1.00001
1.00001
1.00001
1.00001
1.00001
1.00001
1
1
1
1
1
1
1
1
1
1
1
1.00003
1.00024
1.00001
1.00001
1.00001
1.00001
1
1
1
1
1
1
1
1
1
1
1
1
1
1.00001
1
1.00001
1.00001
1
1
1
1
1
1
1
1
1
1
1
1
1
1
1
1
1
1
1
1
1
1
1
1
1
1
1
1
1
1
1
1
1
1
1
1.00001
1
1
1
1
1
1
1
1
1
1
1
1
1
1
1
1
1
1.00001
1.00001
1
1
1
1
1
1
1
1
1
1
1
1
1
1
1
1
1.00001
1.00001
1.00001
1
1
1
1
1
1
1
1
1
1
1
1
1
1
1
1
1.00001
1.00001
1.00001
1
1
1
1
1
1
1
1
1
1
1
1
1
1
1
1.00001
1.00001
1.00002
1.00001
1
1
1
1
1
1
1
1
1
1
1
1
1
1
1
1.00001
1.00002
1.00002
1.00001
1
1
1
1
1
1
1
1
1
1
1
1
1
1
1
1.00001
1.00003
1.00005
1.00001
1
1
1
1
1
1
1
1
1
1
1
1
1
1
1
1.00001
1.00005
1.00005
1.00002
1
1
1
1
1
1
1
1
1
1
1
1
1
1
1.00001
1.00003
1.00005
1.00006
1.00002
1
1
1
1
1
1
1
1
1
1
1
1
1
1
1.00001
1.00003
1.00006
1.00005
1.00001
1
1
1
1
1
1
1
1
1
1
1
1
1
1
1.00001
1.00003
1.00006
1.00004
1.00001
1
1
1
1
1
1
1
1
1
1
1
1
1
1
1.00001
1.00003
1.00005
1.00002
1
1
1
1
1
1
1
1
1
1
1
1
1
1
1
1.00001
1.00002
1.00001
1.00001
1
1
1
1
1
1
1
1
1
1
1
1
1
1
1
1.00001
1.00001
1
1
1
1
1
1
1
1
1
1
1
1
1
1
1
1
1
1
1
1
1
1
1
1
1
1
1
1
1
1
1
1
1
1
1
1
1
1
1
1
1
1
1
1
1
1
1
1
1
1
1
1
1
1
1
1
1
1
1
1
1
1
1
1
1
1
1
1
1
1
1
1
1
1
1
1
1
1
1
1
1
1
1
1
1
1
1
1
1
1
1
1
1
1
1
1
1
1
1
1
1
1
1
1
1
1
1
1
1
1
1
1
1
1
1
1
1
1
1
1
1
1
1
1
1
1
1
1
1
1
1
1
1
1
1
1
)
;

boundaryField
{
    leftWall
    {
        type            calculated;
        value           nonuniform List<scalar> 
50
(
13529
13529
13529
13529
13529
13529
13529
12746.3
4657.61
1000
1000
1000
1000
1000
1000
1000
1000
1000
955.152
264.415
1.00011
1.00025
1.00007
1.00003
1.00002
1.00001
1.00001
1.00001
1.00001
1
1
1
1
1
1
1
1
1
1
1
1
1
1
1
1
1
1
1
1
1
)
;
    }
    rightWall
    {
        type            calculated;
        value           nonuniform List<scalar> 
50
(
9324.3
9186.54
8676.41
7466.92
5620.95
3876.27
1458.35
983.141
712.01
370.711
385.996
359.59
428.667
234.134
1.8344
1.00112
1.00141
1.00119
1.00029
1.00023
1.00087
1.00086
1.00087
1.00041
1.00043
1.00033
1.00024
1
1
1.00001
1.00001
1.00001
1.00001
1.00001
1.00001
1.00001
1.00002
1.00002
1.00001
1.00001
1
1
1
1
1
1
1
1
1
1
)
;
    }
    lowerWall
    {
        type            calculated;
        value           nonuniform List<scalar> 
62
(
13529
13529
13529
13529
13529
13529
13529
13529
13529
13529
13529
13529
13529
13529
13529
13529
13529
13529
13529
13529
13528
13522
13521.6
13521.6
13521.6
13526.9
13528.7
12962.5
4557.25
828.603
816.396
506.066
503.94
451.478
416.762
997.498
961.001
1301.92
1303.29
899.898
868.194
982.964
1066.16
997.498
1335.96
2430.03
1882.05
1674.93
3817.23
11841.3
11767.8
7875.51
5748.18
5806.19
5685.11
8751.57
9459.66
9496
9542.4
9540.36
9361.05
9324.3
)
;
    }
    atmosphere
    {
        type            calculated;
        value           nonuniform List<scalar> 
46
(
1
1
1
1
1
1
1
1
1
1
1
1
1
1
1
1
1
1
1
1
1
1
1
1
1
1
1
1
1
1
1
1
1
1
1
1
1
1
1
1
1
1
1
1
1
1
)
;
    }
    defaultFaces
    {
        type            empty;
    }
}


// ************************************************************************* //
