/*--------------------------------*- C++ -*----------------------------------*\
  =========                 |
  \\      /  F ield         | OpenFOAM: The Open Source CFD Toolbox
   \\    /   O peration     | Website:  https://openfoam.org
    \\  /    A nd           | Version:  13
     \\/     M anipulation  |
\*---------------------------------------------------------------------------*/
FoamFile
{
    format      ascii;
    class       volVectorField;
    location    "1.15";
    object      U;
}
// * * * * * * * * * * * * * * * * * * * * * * * * * * * * * * * * * * * * * //

dimensions      [0 1 -1 0 0 0 0];

internalField   nonuniform List<vector> 
2268
(
(0.0294254 -0.014032 0)
(0.0534118 -0.00297007 0)
(0.0663751 -0.00165083 0)
(0.08205 -0.00189231 0)
(0.0926756 -0.00113705 0)
(0.0974739 -3.98004e-05 0)
(0.0955954 0.00174945 0)
(0.0876099 0.00336362 0)
(0.0751063 0.00441852 0)
(0.0603014 0.00477464 0)
(0.0453094 0.00445826 0)
(0.0317572 0.00370434 0)
(0.0205576 0.002786 0)
(0.0120598 0.00182147 0)
(0.00626069 0.000913933 0)
(0.00302292 0.000121555 0)
(0.0021673 -0.000741116 0)
(0.00342543 -0.001617 0)
(0.00633402 -0.00236789 0)
(0.0104893 -0.00293977 0)
(0.0146239 -0.00291853 0)
(0.0182441 -0.00128977 0)
(0.019666 0.00681462 0)
(0.0162459 -0.0276438 0)
(0.0477116 -0.0157127 0)
(0.0714975 -0.0134346 0)
(0.0935862 -0.010536 0)
(0.107167 -0.00593406 0)
(0.11229 -0.00102303 0)
(0.109398 0.00396616 0)
(0.0998243 0.00801347 0)
(0.0859113 0.0104476 0)
(0.0700381 0.0113077 0)
(0.0541153 0.0107916 0)
(0.0396393 0.00932587 0)
(0.0274929 0.00742688 0)
(0.0180085 0.0054031 0)
(0.0111849 0.00346902 0)
(0.00681235 0.00171957 0)
(0.00458482 0.000114568 0)
(0.00411963 -0.0012411 0)
(0.00473525 -0.00212354 0)
(0.00576961 -0.00249004 0)
(0.00628598 -0.00214727 0)
(0.00678279 -0.000219478 0)
(0.00784659 0.0112713 0)
(0.0123805 -0.0405469 0)
(0.0500823 -0.0298417 0)
(0.0795815 -0.0253996 0)
(0.104069 -0.018915 0)
(0.118353 -0.0101709 0)
(0.123019 -0.00126544 0)
(0.119256 0.00697832 0)
(0.10875 0.0134313 0)
(0.0940678 0.0171662 0)
(0.0776688 0.018474 0)
(0.0612909 0.0177699 0)
(0.0463212 0.0155373 0)
(0.0336365 0.0125774 0)
(0.0235586 0.00939014 0)
(0.0160599 0.00630227 0)
(0.0109077 0.00350907 0)
(0.00774587 0.00104706 0)
(0.00608447 -0.000869982 0)
(0.00514585 -0.0019576 0)
(0.00421964 -0.00221403 0)
(0.00237957 -0.00165678 0)
(0.000398966 6.86133e-05 0)
(-0.00172182 0.012156 0)
(0.0147958 -0.0553246 0)
(0.056317 -0.0467924 0)
(0.0892042 -0.0390049 0)
(0.114611 -0.0280308 0)
(0.128818 -0.014504 0)
(0.132782 -0.00133049 0)
(0.128217 0.0103907 0)
(0.117003 0.0195114 0)
(0.101824 0.0247769 0)
(0.0851764 0.026556 0)
(0.0685271 0.0255328 0)
(0.0531747 0.0224812 0)
(0.040069 0.0183522 0)
(0.0294967 0.0138959 0)
(0.0214434 0.0096119 0)
(0.0156574 0.00575621 0)
(0.0117155 0.00248353 0)
(0.00907374 5.11815e-05 0)
(0.00691576 -0.00117999 0)
(0.00465399 -0.00122898 0)
(0.00134258 -0.000175745 0)
(-0.00248429 0.00175366 0)
(-0.00895031 0.0103134 0)
(0.0213432 -0.0726288 0)
(0.0640305 -0.0652044 0)
(0.0988676 -0.053254 0)
(0.124467 -0.0373041 0)
(0.138304 -0.0186655 0)
(0.141551 -0.000979503 0)
(0.136476 0.0145009 0)
(0.124976 0.0261739 0)
(0.10955 0.0327627 0)
(0.0927872 0.0349132 0)
(0.0760771 0.033419 0)
(0.060575 0.0291565 0)
(0.0471898 0.0236432 0)
(0.0362886 0.0178882 0)
(0.0277804 0.0125064 0)
(0.0214318 0.00776599 0)
(0.0168247 0.00386775 0)
(0.0133012 0.00108018 0)
(0.0100716 -0.00028901 0)
(0.00702222 -0.000242476 0)
(0.00339806 0.00126925 0)
(-0.00100777 0.00335175 0)
(-0.0107988 0.0059241 0)
(0.0294383 -0.0945326 0)
(0.0708691 -0.0851953 0)
(0.106614 -0.0681458 0)
(0.132116 -0.046711 0)
(0.145753 -0.0225172 0)
(0.148625 -0.000269563 0)
(0.143295 0.0188112 0)
(0.131844 0.0329255 0)
(0.116749 0.0399198 0)
(0.100627 0.0415241 0)
(0.0845651 0.0394238 0)
(0.0694243 0.0344716 0)
(0.0564428 0.0281208 0)
(0.0458371 0.0215249 0)
(0.037449 0.0153047 0)
(0.0309802 0.00986849 0)
(0.0259464 0.00548845 0)
(0.021552 0.00249624 0)
(0.0170553 0.00112078 0)
(0.0139423 0.00129228 0)
(0.0119729 0.0033743 0)
(0.0086801 0.00581995 0)
(0.000780593 0.00395602 0)
(0.0360216 -0.119938 0)
(0.0742158 -0.105653 0)
(0.110414 -0.0831969 0)
(0.135934 -0.0561823 0)
(0.149677 -0.0262639 0)
(0.152339 0.000334541 0)
(0.147332 0.0218564 0)
(0.137328 0.0375063 0)
(0.124199 0.0453644 0)
(0.110344 0.0473364 0)
(0.0965158 0.0449171 0)
(0.0832351 0.0396685 0)
(0.0715258 0.03285 0)
(0.0625998 0.0257425 0)
(0.0558787 0.01906 0)
(0.0503774 0.0129673 0)
(0.0454461 0.0082062 0)
(0.0399287 0.00523599 0)
(0.0332207 0.00393207 0)
(0.0311145 0.00202187 0)
(0.034653 0.00402825 0)
(0.0335815 0.00869452 0)
(0.034383 0.0146077 0)
(0.0400666 -0.143304 0)
(0.0724977 -0.12323 0)
(0.107521 -0.0960375 0)
(0.133106 -0.0644629 0)
(0.147872 -0.0294329 0)
(0.151636 0.000695399 0)
(0.148604 0.0245849 0)
(0.141922 0.0415662 0)
(0.130882 0.0501016 0)
(0.120479 0.0542044 0)
(0.114016 0.0542675 0)
(0.109347 0.0494235 0)
(0.104549 0.0412416 0)
(0.0989208 0.0321751 0)
(0.0926575 0.0238049 0)
(0.0856034 0.0170347 0)
(0.0775809 0.0121908 0)
(0.0676197 0.0100088 0)
(0.0549487 0.00834759 0)
(0.0477747 0.000694531 0)
(0.0491575 0.00125001 0)
(0.0472982 0.00897182 0)
(0.0395203 0.0359536 0)
(-0.298897 0.0942089 0)
(-0.40001 0.0303554 0)
(-0.46722 0.0219711 0)
(-0.548961 0.0281506 0)
(-0.694808 0.0106057 0)
(-0.707823 -0.0294313 0)
(-0.599271 -0.0502334 0)
(-0.517614 -0.0407993 0)
(-0.446621 -0.0288955 0)
(-0.36845 -0.0325405 0)
(-0.27092 -0.0464287 0)
(-0.148821 -0.043073 0)
(-0.0740627 -0.00805938 0)
(-0.0835411 0.010701 0)
(-0.099878 -0.000773596 0)
(-0.0919092 -0.00331763 0)
(-0.0977899 0.000632527 0)
(-0.0784866 -0.017434 0)
(-0.0472022 -0.0283841 0)
(-0.227332 0.196994 0)
(-0.287737 0.0699735 0)
(-0.387025 0.0551787 0)
(-0.456378 0.0553422 0)
(-0.521328 0.0456762 0)
(-0.533529 0.012969 0)
(-0.486663 -0.0539824 0)
(-0.447977 -0.0525822 0)
(-0.409028 -0.0431419 0)
(-0.356612 -0.0542692 0)
(-0.279693 -0.0749285 0)
(-0.192044 -0.0726444 0)
(-0.115168 -0.0235501 0)
(-0.0814638 0.00935568 0)
(-0.0692502 -0.0038546 0)
(-0.0475248 -0.00504576 0)
(-0.0398075 0.00591347 0)
(-0.0295402 -0.015724 0)
(-0.016535 -0.037409 0)
(-0.158953 0.276425 0)
(-0.220407 0.107879 0)
(-0.34769 0.0860781 0)
(-0.415126 0.0753686 0)
(-0.431382 0.0433632 0)
(-0.413841 -0.00509631 0)
(-0.407148 -0.0637695 0)
(-0.398713 -0.0621781 0)
(-0.379252 -0.0554887 0)
(-0.337702 -0.0755318 0)
(-0.276973 -0.101781 0)
(-0.21559 -0.0978876 0)
(-0.157629 -0.0455905 0)
(-0.0959383 -0.00176992 0)
(-0.0539287 -0.0142064 0)
(-0.0177088 -0.0134069 0)
(0.0143086 0.00544592 0)
(0.0136412 -0.0142065 0)
(0.0165828 -0.0427059 0)
(-0.0956867 0.341664 0)
(-0.153598 0.154095 0)
(-0.30106 0.129307 0)
(-0.376633 0.0909703 0)
(-0.379621 0.039734 0)
(-0.36128 -0.0101259 0)
(-0.357621 -0.0620806 0)
(-0.365826 -0.0669614 0)
(-0.354555 -0.0647772 0)
(-0.314617 -0.0931993 0)
(-0.267999 -0.121839 0)
(-0.225531 -0.117928 0)
(-0.17954 -0.07206 0)
(-0.116485 -0.0383391 0)
(-0.0525176 -0.0414382 0)
(0.00193315 -0.0371295 0)
(0.0578647 -0.0115985 0)
(0.0522189 -0.00674322 0)
(0.0552822 -0.0310322 0)
(-0.0398638 0.390893 0)
(-0.106061 0.209723 0)
(-0.222901 0.182203 0)
(-0.309215 0.11243 0)
(-0.330187 0.0381454 0)
(-0.322622 -0.0149911 0)
(-0.323055 -0.0619949 0)
(-0.336844 -0.0680418 0)
(-0.324346 -0.0719077 0)
(-0.284123 -0.109367 0)
(-0.250209 -0.137726 0)
(-0.219759 -0.132152 0)
(-0.178754 -0.0925593 0)
(-0.120021 -0.0656021 0)
(-0.057061 -0.0685262 0)
(0.00271269 -0.0633996 0)
(0.0617244 -0.0313655 0)
(0.0708854 0.000534782 0)
(0.0846355 -0.00790089 0)
(0.00172884 0.402528 0)
(-0.0805908 0.255311 0)
(-0.164893 0.213253 0)
(-0.217961 0.142664 0)
(-0.261891 0.040261 0)
(-0.277324 -0.0193062 0)
(-0.285869 -0.0584689 0)
(-0.286857 -0.0683666 0)
(-0.267513 -0.088218 0)
(-0.241096 -0.126278 0)
(-0.224803 -0.149576 0)
(-0.205545 -0.14614 0)
(-0.169547 -0.107977 0)
(-0.113064 -0.0837154 0)
(-0.053833 -0.0870634 0)
(-0.00138979 -0.082172 0)
(0.0494788 -0.0458858 0)
(0.0669003 0.00273131 0)
(0.0943219 0.0202134 0)
(0.0148781 0.407874 0)
(-0.0688288 0.290499 0)
(-0.131646 0.234831 0)
(-0.159823 0.154841 0)
(-0.189935 0.0620105 0)
(-0.214669 -0.00856354 0)
(-0.231501 -0.054916 0)
(-0.234915 -0.0717931 0)
(-0.218544 -0.0962643 0)
(-0.196974 -0.135881 0)
(-0.179614 -0.156645 0)
(-0.169083 -0.154769 0)
(-0.141186 -0.125869 0)
(-0.0915875 -0.103251 0)
(-0.0402134 -0.103417 0)
(0.000102208 -0.0977635 0)
(0.0409133 -0.0585254 0)
(0.0622341 -0.000728431 0)
(0.0939688 0.04688 0)
(-0.00391365 0.415085 0)
(-0.0660385 0.320934 0)
(-0.106669 0.248487 0)
(-0.12354 0.164999 0)
(-0.14405 0.0712892 0)
(-0.166777 0.000577638 0)
(-0.184885 -0.0469252 0)
(-0.188784 -0.0753648 0)
(-0.173967 -0.1048 0)
(-0.154947 -0.142038 0)
(-0.131449 -0.166625 0)
(-0.110137 -0.171552 0)
(-0.083907 -0.156087 0)
(-0.0494608 -0.14061 0)
(-0.0135712 -0.136236 0)
(0.0118812 -0.122821 0)
(0.0430486 -0.0825743 0)
(0.063188 -0.0104363 0)
(0.0916129 0.0875894 0)
(0.0430152 -0.162074 0)
(0.0678547 -0.140479 0)
(0.0979446 -0.110599 0)
(0.121018 -0.0765485 0)
(0.137901 -0.036704 0)
(0.145506 -0.000352679 0)
(0.143917 0.0272973 0)
(0.143096 0.0524854 0)
(0.144527 0.066633 0)
(0.145873 0.0656488 0)
(0.146429 0.0584273 0)
(0.145708 0.0507663 0)
(0.142503 0.0425949 0)
(0.136853 0.0347293 0)
(0.12902 0.0279683 0)
(0.118909 0.0229782 0)
(0.106623 0.0193933 0)
(0.0915496 0.0190354 0)
(0.0727616 0.0172755 0)
(0.0532469 0.00389104 0)
(0.040983 0.00376337 0)
(0.0251586 0.017895 0)
(0.0145336 0.0658057 0)
(0.0294464 -0.249057 0)
(0.0429889 -0.186544 0)
(0.0590856 -0.142071 0)
(0.0707678 -0.101291 0)
(0.0821582 -0.0519831 0)
(0.097794 -0.00404927 0)
(0.115272 0.0262013 0)
(0.131555 0.0413187 0)
(0.145277 0.0491968 0)
(0.1548 0.0523318 0)
(0.159312 0.0523776 0)
(0.159272 0.0498789 0)
(0.155102 0.0465416 0)
(0.147135 0.042404 0)
(0.1363 0.038085 0)
(0.12211 0.0359529 0)
(0.104257 0.0345784 0)
(0.0853074 0.0383151 0)
(0.0639936 0.0429838 0)
(0.0312087 0.0296536 0)
(-0.0100552 0.0292039 0)
(-0.0488118 0.0499357 0)
(-0.0804993 0.0864211 0)
(-0.0210722 -0.252338 0)
(0.000513741 -0.196695 0)
(0.0121023 -0.154305 0)
(0.0277295 -0.113519 0)
(0.046998 -0.0695507 0)
(0.0710265 -0.0298381 0)
(0.096488 -0.000652483 0)
(0.118611 0.0197302 0)
(0.135071 0.0343324 0)
(0.145363 0.0437819 0)
(0.149528 0.0496234 0)
(0.14807 0.0520501 0)
(0.142029 0.0532061 0)
(0.130857 0.0526834 0)
(0.115859 0.0519046 0)
(0.0980012 0.0551606 0)
(0.0727027 0.0590202 0)
(0.0387436 0.0655527 0)
(0.00669133 0.0744515 0)
(-0.0263666 0.073623 0)
(-0.0620125 0.0740668 0)
(-0.0967473 0.0891196 0)
(-0.122746 0.113301 0)
(-0.0229428 -0.225308 0)
(-0.0118044 -0.19592 0)
(-0.00432086 -0.16266 0)
(0.0109409 -0.128534 0)
(0.0319914 -0.0921415 0)
(0.0567083 -0.0566536 0)
(0.0809109 -0.0255646 0)
(0.100993 0.000326742 0)
(0.114796 0.0214307 0)
(0.122096 0.0369789 0)
(0.123377 0.0495923 0)
(0.118392 0.0567604 0)
(0.109457 0.063542 0)
(0.0951962 0.0690944 0)
(0.0729841 0.0730352 0)
(0.043263 0.0819661 0)
(0.0128109 0.0936835 0)
(-0.0172819 0.0987071 0)
(-0.0434612 0.103511 0)
(-0.0700535 0.103445 0)
(-0.0986289 0.105938 0)
(-0.125283 0.116067 0)
(-0.144334 0.131679 0)
(-0.0128119 -0.218521 0)
(-0.0094053 -0.198698 0)
(-0.00586247 -0.173786 0)
(0.00560686 -0.145789 0)
(0.0229803 -0.113851 0)
(0.0428957 -0.0797308 0)
(0.0612593 -0.0457517 0)
(0.0751914 -0.0147653 0)
(0.0830342 0.0136754 0)
(0.0843182 0.0349702 0)
(0.0814744 0.0541746 0)
(0.0721914 0.0670524 0)
(0.0571566 0.079207 0)
(0.0351427 0.0916783 0)
(0.00968593 0.101991 0)
(-0.0143696 0.11026 0)
(-0.0363057 0.12027 0)
(-0.0576099 0.123914 0)
(-0.0789673 0.126815 0)
(-0.100731 0.127886 0)
(-0.122813 0.129937 0)
(-0.142577 0.13554 0)
(-0.156344 0.143745 0)
(-0.0084067 -0.212504 0)
(-0.00890677 -0.197779 0)
(-0.00934815 -0.17984 0)
(-0.00297881 -0.157961 0)
(0.00824936 -0.130234 0)
(0.0211623 -0.0956022 0)
(0.0312285 -0.0574402 0)
(0.0360891 -0.0213873 0)
(0.0369706 0.0130746 0)
(0.0319935 0.0400773 0)
(0.0222525 0.0640102 0)
(0.00801296 0.0823745 0)
(-0.00910751 0.0983513 0)
(-0.0239408 0.111906 0)
(-0.0385442 0.123015 0)
(-0.0537719 0.13002 0)
(-0.0694903 0.137807 0)
(-0.0856855 0.142736 0)
(-0.10261 0.145829 0)
(-0.119795 0.146966 0)
(-0.136727 0.148088 0)
(-0.151837 0.149949 0)
(-0.16215 0.15165 0)
(-0.0117881 -0.205377 0)
(-0.0158904 -0.19258 0)
(-0.0216372 -0.180443 0)
(-0.0218544 -0.164392 0)
(-0.0174982 -0.13847 0)
(-0.0128515 -0.102634 0)
(-0.0120912 -0.0594306 0)
(-0.0162763 -0.0189784 0)
(-0.0235371 0.0189333 0)
(-0.0322303 0.0500075 0)
(-0.0425456 0.0746972 0)
(-0.0493533 0.0949389 0)
(-0.0561474 0.110711 0)
(-0.0632596 0.122786 0)
(-0.0712516 0.133615 0)
(-0.0807524 0.142729 0)
(-0.0914479 0.150869 0)
(-0.102941 0.157086 0)
(-0.115699 0.160999 0)
(-0.12898 0.162639 0)
(-0.1421 0.16341 0)
(-0.1549 0.163026 0)
(-0.163437 0.158462 0)
(-0.0226711 -0.190161 0)
(-0.0304218 -0.181357 0)
(-0.0435589 -0.175158 0)
(-0.0500718 -0.162456 0)
(-0.054102 -0.138168 0)
(-0.0592378 -0.100033 0)
(-0.0652773 -0.0539008 0)
(-0.0747327 -0.0105161 0)
(-0.0818374 0.0259095 0)
(-0.0845556 0.0572086 0)
(-0.0859254 0.080078 0)
(-0.0872534 0.0986311 0)
(-0.0885396 0.113929 0)
(-0.0904272 0.127434 0)
(-0.0935585 0.139691 0)
(-0.0981384 0.150615 0)
(-0.103807 0.160494 0)
(-0.111074 0.16851 0)
(-0.120092 0.173912 0)
(-0.129671 0.174978 0)
(-0.139707 0.174769 0)
(-0.151639 0.172253 0)
(-0.162504 0.161183 0)
(-0.0369311 -0.162972 0)
(-0.047229 -0.160705 0)
(-0.0669252 -0.159157 0)
(-0.0840217 -0.150908 0)
(-0.0972407 -0.129256 0)
(-0.109206 -0.0913005 0)
(-0.119102 -0.0452254 0)
(-0.121056 -0.00410576 0)
(-0.120737 0.0284879 0)
(-0.119196 0.0565867 0)
(-0.116704 0.0789447 0)
(-0.114011 0.0977182 0)
(-0.111348 0.113803 0)
(-0.109088 0.128147 0)
(-0.107765 0.142058 0)
(-0.107735 0.15437 0)
(-0.109578 0.164596 0)
(-0.113119 0.172646 0)
(-0.118635 0.178075 0)
(-0.125681 0.177646 0)
(-0.131515 0.17689 0)
(-0.139736 0.178335 0)
(-0.153593 0.160166 0)
(-0.042938 -0.123859 0)
(-0.0497491 -0.124469 0)
(-0.0849486 -0.129074 0)
(-0.117766 -0.129306 0)
(-0.143078 -0.112638 0)
(-0.154886 -0.0806982 0)
(-0.155305 -0.0432998 0)
(-0.153386 -0.00709547 0)
(-0.149451 0.0253521 0)
(-0.144477 0.0527233 0)
(-0.138822 0.0751341 0)
(-0.133014 0.0938669 0)
(-0.127543 0.109769 0)
(-0.122409 0.124194 0)
(-0.118004 0.138372 0)
(-0.115249 0.1506 0)
(-0.112675 0.161293 0)
(-0.112687 0.173105 0)
(-0.114961 0.180464 0)
(-0.117525 0.180097 0)
(-0.123743 0.178414 0)
(-0.126656 0.185812 0)
(-0.129936 0.165431 0)
(-0.0231862 -0.0635698 0)
(-0.0145888 -0.0882068 0)
(-0.0876074 -0.101682 0)
(-0.164429 -0.0975949 0)
(-0.185825 -0.0965035 0)
(-0.187325 -0.07244 0)
(-0.184723 -0.0422002 0)
(-0.179083 -0.00853203 0)
(-0.172415 0.0218748 0)
(-0.164719 0.0474589 0)
(-0.156373 0.0686223 0)
(-0.14792 0.0868934 0)
(-0.139752 0.102868 0)
(-0.133096 0.118286 0)
(-0.127102 0.133434 0)
(-0.120408 0.148025 0)
(-0.117227 0.158713 0)
(-0.120243 0.165976 0)
(-0.126578 0.179336 0)
(-0.134477 0.17842 0)
(-0.149606 0.187192 0)
(-0.174209 0.237507 0)
(-0.186938 0.223562 0)
(0.015165 -0.0798007 0)
(0.0654135 -0.0726104 0)
(-0.118485 -0.0431725 0)
(-0.19978 -0.0633591 0)
(-0.207797 -0.0864184 0)
(-0.213361 -0.073186 0)
(-0.208479 -0.0467227 0)
(-0.199833 -0.0146664 0)
(-0.191961 0.0154814 0)
(-0.182572 0.0405766 0)
(-0.171777 0.0622977 0)
(-0.160832 0.0811116 0)
(-0.152531 0.0961875 0)
(-0.148859 0.107284 0)
(-0.148355 0.123267 0)
(-0.152699 0.13794 0)
(-0.162353 0.163067 0)
(-0.19666 0.21071 0)
(-0.208365 0.218582 0)
(-0.222485 0.218933 0)
(-0.231618 0.220523 0)
(-0.225784 0.218921 0)
(-0.227256 0.205143 0)
(0.0182467 -0.180604 0)
(-0.071963 -0.00777516 0)
(-0.10875 0.288048 0)
(-0.0979528 -0.0551544 0)
(-0.195954 -0.106292 0)
(-0.234234 -0.0810932 0)
(-0.236111 -0.0514953 0)
(-0.228543 -0.0174086 0)
(-0.216679 0.00592831 0)
(-0.208703 0.0260559 0)
(-0.205718 0.0447431 0)
(-0.209177 0.066161 0)
(-0.227731 0.0923444 0)
(-0.247008 0.122639 0)
(-0.259886 0.142197 0)
(-0.269825 0.16276 0)
(-0.273814 0.192863 0)
(-0.268594 0.206364 0)
(-0.268093 0.219587 0)
(-0.27133 0.211872 0)
(-0.272424 0.205375 0)
(-0.267265 0.212291 0)
(-0.259291 0.192189 0)
(-0.0595482 -0.0722281 0)
(-0.105719 0.123318 0)
(-0.129167 0.171448 0)
(-0.134243 0.0722783 0)
(-0.198263 0.0194897 0)
(-0.238753 -0.037879 0)
(-0.268061 -0.0682394 0)
(-0.285234 -0.0476837 0)
(-0.295346 -0.014479 0)
(-0.303451 0.0182854 0)
(-0.309139 0.0495335 0)
(-0.312547 0.0815186 0)
(-0.315309 0.113462 0)
(-0.318261 0.133128 0)
(-0.322279 0.153402 0)
(-0.32727 0.16431 0)
(-0.327248 0.178278 0)
(-0.321592 0.20451 0)
(-0.3122 0.210701 0)
(-0.303082 0.206446 0)
(-0.295853 0.20116 0)
(-0.284111 0.194564 0)
(-0.269958 0.174553 0)
(-0.0431283 -0.0172651 0)
(-0.103167 0.0990314 0)
(-0.117935 0.13988 0)
(-0.137958 0.0772763 0)
(-0.181821 0.0397086 0)
(-0.225461 0.000676919 0)
(-0.265925 -0.0162749 0)
(-0.299331 -0.00596784 0)
(-0.321634 0.0147195 0)
(-0.335619 0.0389627 0)
(-0.345776 0.063406 0)
(-0.35339 0.0881318 0)
(-0.357356 0.113689 0)
(-0.357852 0.13724 0)
(-0.355873 0.150314 0)
(-0.352993 0.161461 0)
(-0.349468 0.175297 0)
(-0.339631 0.189249 0)
(-0.323754 0.195488 0)
(-0.308576 0.192477 0)
(-0.293736 0.186095 0)
(-0.277393 0.176392 0)
(-0.262039 0.156193 0)
(-0.0646637 0.100525 0)
(-0.0938088 0.148019 0)
(-0.1119 0.154339 0)
(-0.135271 0.113144 0)
(-0.170989 0.0745478 0)
(-0.208937 0.0429615 0)
(-0.248662 0.0250024 0)
(-0.283774 0.0247023 0)
(-0.31052 0.035992 0)
(-0.329957 0.0528433 0)
(-0.343959 0.0723343 0)
(-0.35419 0.0937377 0)
(-0.359357 0.115354 0)
(-0.358638 0.132266 0)
(-0.354417 0.144723 0)
(-0.348428 0.154217 0)
(-0.340568 0.164243 0)
(-0.327306 0.1748 0)
(-0.310069 0.178751 0)
(-0.292058 0.176476 0)
(-0.273173 0.168705 0)
(-0.254714 0.156443 0)
(-0.238775 0.136349 0)
(-0.0537983 0.150139 0)
(-0.0740222 0.178955 0)
(-0.0952227 0.174649 0)
(-0.11807 0.142574 0)
(-0.148252 0.109606 0)
(-0.181987 0.0805271 0)
(-0.217812 0.0617905 0)
(-0.251243 0.0560338 0)
(-0.278827 0.0601385 0)
(-0.300095 0.070469 0)
(-0.315739 0.0844243 0)
(-0.325893 0.100219 0)
(-0.330845 0.116571 0)
(-0.330616 0.13008 0)
(-0.326342 0.140033 0)
(-0.319607 0.147199 0)
(-0.309625 0.153917 0)
(-0.295776 0.15872 0)
(-0.27832 0.16038 0)
(-0.258979 0.157043 0)
(-0.238874 0.148776 0)
(-0.219214 0.135484 0)
(-0.20324 0.116031 0)
(-0.0370823 0.195289 0)
(-0.0520599 0.206009 0)
(-0.0712643 0.194979 0)
(-0.0913904 0.168262 0)
(-0.116668 0.139198 0)
(-0.145498 0.113121 0)
(-0.176411 0.0945113 0)
(-0.206146 0.0854436 0)
(-0.231924 0.0845308 0)
(-0.252632 0.0894117 0)
(-0.268057 0.09798 0)
(-0.278191 0.108548 0)
(-0.282791 0.119087 0)
(-0.282675 0.128147 0)
(-0.279111 0.13434 0)
(-0.272449 0.138844 0)
(-0.262828 0.142092 0)
(-0.249136 0.143575 0)
(-0.232478 0.142223 0)
(-0.213842 0.137033 0)
(-0.193282 0.128045 0)
(-0.174267 0.114582 0)
(-0.15885 0.0959233 0)
(-0.0221736 0.230736 0)
(-0.0310747 0.226776 0)
(-0.045203 0.21185 0)
(-0.0604833 0.188612 0)
(-0.0801472 0.163552 0)
(-0.103374 0.14052 0)
(-0.128732 0.122691 0)
(-0.153774 0.111648 0)
(-0.17624 0.106894 0)
(-0.194811 0.107041 0)
(-0.208868 0.11054 0)
(-0.218132 0.115921 0)
(-0.222604 0.121729 0)
(-0.222601 0.126352 0)
(-0.21898 0.12932 0)
(-0.212583 0.130582 0)
(-0.203245 0.13035 0)
(-0.191067 0.128914 0)
(-0.175948 0.124787 0)
(-0.158771 0.118361 0)
(-0.140232 0.108198 0)
(-0.122416 0.0948133 0)
(-0.108521 0.0769595 0)
(-0.010404 0.248666 0)
(-0.013002 0.238664 0)
(-0.0207919 0.223069 0)
(-0.0300673 0.203178 0)
(-0.0434338 0.181969 0)
(-0.0603646 0.161971 0)
(-0.0795966 0.145344 0)
(-0.0992218 0.133323 0)
(-0.117382 0.125887 0)
(-0.132766 0.122294 0)
(-0.144583 0.121502 0)
(-0.152421 0.122392 0)
(-0.156186 0.123821 0)
(-0.156179 0.124792 0)
(-0.152895 0.124556 0)
(-0.146762 0.122995 0)
(-0.138123 0.120164 0)
(-0.127017 0.11572 0)
(-0.113814 0.109716 0)
(-0.0989406 0.101262 0)
(-0.0826445 0.0906311 0)
(-0.0674131 0.0771806 0)
(-0.0556908 0.0600718 0)
(-0.00172541 0.252381 0)
(0.00117556 0.242042 0)
(-0.000340309 0.227924 0)
(-0.00350342 0.211418 0)
(-0.0103749 0.193906 0)
(-0.0206659 0.176921 0)
(-0.0333967 0.16188 0)
(-0.047101 0.149729 0)
(-0.0602848 0.14068 0)
(-0.0717492 0.134416 0)
(-0.0806695 0.130309 0)
(-0.0865586 0.12758 0)
(-0.0892403 0.125408 0)
(-0.0888404 0.123051 0)
(-0.0856888 0.120022 0)
(-0.0801339 0.116027 0)
(-0.0724011 0.110895 0)
(-0.062702 0.104528 0)
(-0.0513247 0.0966243 0)
(-0.0387026 0.0871195 0)
(-0.0250755 0.0756481 0)
(-0.0124824 0.0622277 0)
(-0.00314875 0.0459112 0)
(0.00422974 0.247429 0)
(0.0112621 0.238854 0)
(0.0151771 0.226851 0)
(0.0174864 0.213419 0)
(0.0166705 0.199264 0)
(0.0127952 0.18519 0)
(0.00651344 0.172037 0)
(-0.00114979 0.160468 0)
(-0.00905601 0.150764 0)
(-0.0161798 0.142857 0)
(-0.0217395 0.136448 0)
(-0.0252498 0.131058 0)
(-0.0264633 0.126141 0)
(-0.0253784 0.121182 0)
(-0.0221597 0.115792 0)
(-0.0170336 0.109725 0)
(-0.01019 0.102792 0)
(-0.0018328 0.0948223 0)
(0.00775893 0.0856789 0)
(0.0182061 0.0751874 0)
(0.0294034 0.0632732 0)
(0.0395172 0.0498737 0)
(0.0463766 0.0344028 0)
(0.00793058 0.237147 0)
(0.0177809 0.230825 0)
(0.0258986 0.220906 0)
(0.032615 0.21006 0)
(0.0368678 0.198692 0)
(0.038585 0.187177 0)
(0.0381374 0.175952 0)
(0.0361708 0.165421 0)
(0.0334675 0.155824 0)
(0.0307909 0.147214 0)
(0.0287874 0.139477 0)
(0.0279318 0.132367 0)
(0.0285039 0.125562 0)
(0.0305972 0.118731 0)
(0.0341653 0.111598 0)
(0.0390842 0.103954 0)
(0.0452015 0.0956455 0)
(0.0523443 0.0865524 0)
(0.0602871 0.0765525 0)
(0.068739 0.0655447 0)
(0.0775934 0.0534668 0)
(0.0853964 0.0403113 0)
(0.0900688 0.0254751 0)
(0.0100193 0.22343 0)
(0.0215963 0.219403 0)
(0.0326391 0.211317 0)
(0.0425271 0.202518 0)
(0.050574 0.193342 0)
(0.0566414 0.183936 0)
(0.0609039 0.174481 0)
(0.0637183 0.165177 0)
(0.065564 0.15618 0)
(0.0669558 0.147566 0)
(0.0683708 0.139318 0)
(0.0701936 0.131334 0)
(0.0726859 0.12345 0)
(0.075982 0.115479 0)
(0.0801101 0.107248 0)
(0.0850259 0.0986109 0)
(0.0906423 0.0894486 0)
(0.0968456 0.0796643 0)
(0.103468 0.0691763 0)
(0.110263 0.0579218 0)
(0.117243 0.045879 0)
(0.12307 0.0330686 0)
(0.1259 0.0188947 0)
(0.0110471 0.207801 0)
(0.023551 0.205892 0)
(0.0363705 0.199332 0)
(0.0482497 0.192103 0)
(0.0587883 0.184576 0)
(0.0678389 0.176808 0)
(0.075469 0.16884 0)
(0.0818482 0.160736 0)
(0.0872314 0.152569 0)
(0.0919236 0.144391 0)
(0.096234 0.136219 0)
(0.100436 0.128021 0)
(0.104739 0.11973 0)
(0.109276 0.111254 0)
(0.114109 0.102498 0)
(0.119243 0.0933719 0)
(0.124644 0.0838008 0)
(0.130249 0.0737205 0)
(0.135942 0.063079 0)
(0.141561 0.0518471 0)
(0.14711 0.0400265 0)
(0.151491 0.0276469 0)
(0.153071 0.0141834 0)
(0.0113208 0.191404 0)
(0.0241977 0.191305 0)
(0.0379129 0.18601 0)
(0.0508227 0.180001 0)
(0.0627326 0.173708 0)
(0.0735216 0.167174 0)
(0.0832208 0.160386 0)
(0.0919029 0.153334 0)
(0.0996839 0.146032 0)
(0.106718 0.138496 0)
(0.113181 0.130741 0)
(0.119238 0.122763 0)
(0.125036 0.114541 0)
(0.130677 0.106037 0)
(0.136226 0.0972073 0)
(0.14171 0.0880074 0)
(0.147125 0.0783967 0)
(0.152444 0.0683418 0)
(0.157598 0.057819 0)
(0.162454 0.0468234 0)
(0.167102 0.0353714 0)
(0.170523 0.0235153 0)
(0.171271 0.0107635 0)
(0.0110404 0.175028 0)
(0.0239035 0.17636 0)
(0.0378566 0.172137 0)
(0.0510966 0.167131 0)
(0.0635397 0.161806 0)
(0.0750977 0.156219 0)
(0.0858046 0.150349 0)
(0.0956995 0.144166 0)
(0.104831 0.137652 0)
(0.113265 0.130799 0)
(0.121084 0.123607 0)
(0.128376 0.116076 0)
(0.135225 0.108203 0)
(0.141697 0.0999753 0)
(0.14784 0.0913781 0)
(0.153682 0.0823949 0)
(0.15923 0.0730114 0)
(0.164477 0.0632179 0)
(0.169376 0.0530129 0)
(0.173849 0.0424082 0)
(0.177962 0.0314392 0)
(0.180873 0.0201577 0)
(0.181304 0.00812989 0)
(0.0103392 0.159253 0)
(0.0228693 0.161577 0)
(0.0366036 0.158268 0)
(0.0496981 0.154135 0)
(0.0621121 0.149626 0)
(0.0737776 0.144806 0)
(0.084742 0.139671 0)
(0.095043 0.134197 0)
(0.104707 0.128359 0)
(0.11376 0.12214 0)
(0.122235 0.11553 0)
(0.13017 0.108526 0)
(0.137602 0.101126 0)
(0.144566 0.0933288 0)
(0.15109 0.085133 0)
(0.157189 0.0765377 0)
(0.162871 0.0675448 0)
(0.168135 0.0581608 0)
(0.172949 0.0483998 0)
(0.177241 0.0382874 0)
(0.181127 0.0278675 0)
(0.183808 0.0172059 0)
(0.184177 0.00589421 0)
(0.00937252 0.144526 0)
(0.0212962 0.147356 0)
(0.034459 0.144788 0)
(0.0470874 0.141428 0)
(0.05912 0.137643 0)
(0.0704874 0.133489 0)
(0.0812418 0.128977 0)
(0.0914276 0.124097 0)
(0.10107 0.118833 0)
(0.110185 0.113172 0)
(0.118785 0.107101 0)
(0.126881 0.100616 0)
(0.134487 0.0937144 0)
(0.141614 0.0863976 0)
(0.148272 0.0786693 0)
(0.154466 0.0705365 0)
(0.160197 0.0620104 0)
(0.165463 0.053108 0)
(0.170235 0.043853 0)
(0.174469 0.034282 0)
(0.178238 0.024445 0)
(0.180877 0.0144137 0)
(0.181423 0.00381166 0)
(0.00825939 0.131144 0)
(0.0193394 0.134 0)
(0.0316905 0.131974 0)
(0.0436353 0.129276 0)
(0.0550694 0.126141 0)
(0.0659054 0.12259 0)
(0.0761866 0.118631 0)
(0.0859582 0.114271 0)
(0.0952491 0.109507 0)
(0.104076 0.104334 0)
(0.112446 0.0987447 0)
(0.120364 0.092736 0)
(0.127831 0.0863068 0)
(0.134849 0.0794596 0)
(0.141415 0.0722006 0)
(0.147527 0.0645406 0)
(0.15318 0.0564958 0)
(0.15837 0.0480895 0)
(0.163072 0.0393522 0)
(0.167232 0.030327 0)
(0.170953 0.0210676 0)
(0.173595 0.0116605 0)
(0.174306 0.00174441 0)
(0.0071224 0.119263 0)
(0.0171959 0.121721 0)
(0.0285521 0.120021 0)
(0.0396612 0.117854 0)
(0.0503605 0.115289 0)
(0.0605342 0.112282 0)
(0.0702042 0.10883 0)
(0.0794074 0.104943 0)
(0.0881717 0.100628 0)
(0.0965156 0.0958893 0)
(0.104449 0.0907295 0)
(0.111976 0.0851489 0)
(0.119096 0.0791496 0)
(0.125806 0.072736 0)
(0.132101 0.0659164 0)
(0.137975 0.0587039 0)
(0.14342 0.0511184 0)
(0.148431 0.0431865 0)
(0.152981 0.0349443 0)
(0.157035 0.0264377 0)
(0.160651 0.0177308 0)
(0.163296 0.00891298 0)
(0.164219 -0.000338091 0)
(0.00602973 0.108917 0)
(0.0149991 0.110652 0)
(0.02527 0.109064 0)
(0.0354455 0.107281 0)
(0.0453243 0.105186 0)
(0.0547613 0.10266 0)
(0.063751 0.09967 0)
(0.0723137 0.0962182 0)
(0.0804705 0.0923165 0)
(0.0882382 0.0879765 0)
(0.0956282 0.0832066 0)
(0.102646 0.0780134 0)
(0.109294 0.0724028 0)
(0.115569 0.0663823 0)
(0.121467 0.0599625 0)
(0.126982 0.053159 0)
(0.132108 0.0459938 0)
(0.136838 0.0384973 0)
(0.141152 0.0307091 0)
(0.145005 0.0226806 0)
(0.148477 0.0144817 0)
(0.151058 0.00622031 0)
(0.152093 -0.00240301 0)
(0.005043 0.100055 0)
(0.0128929 0.100843 0)
(0.0220316 0.0991745 0)
(0.0312229 0.0976262 0)
(0.0402339 0.0958935 0)
(0.0488951 0.0937739 0)
(0.0571726 0.0911951 0)
(0.0650663 0.0881431 0)
(0.0725854 0.084626 0)
(0.079741 0.0806571 0)
(0.0865429 0.0762492 0)
(0.0929977 0.071413 0)
(0.0991085 0.0661586 0)
(0.104876 0.0604965 0)
(0.110298 0.0544397 0)
(0.11537 0.048006 0)
(0.12009 0.0412199 0)
(0.124454 0.0341146 0)
(0.128445 0.0267332 0)
(0.132035 0.0191347 0)
(0.135269 0.0113976 0)
(0.137727 0.00364336 0)
(0.138853 -0.00438485 0)
(0.00417729 0.0925618 0)
(0.0109449 0.0922719 0)
(0.0189834 0.0903694 0)
(0.0271868 0.0889177 0)
(0.0353163 0.0874381 0)
(0.043188 0.085645 0)
(0.0507436 0.0834215 0)
(0.0579626 0.0807308 0)
(0.0648399 0.0775703 0)
(0.071378 0.0739501 0)
(0.0775821 0.0698833 0)
(0.0834568 0.0653832 0)
(0.0890057 0.060462 0)
(0.0942306 0.0551329 0)
(0.0991317 0.0494106 0)
(0.103708 0.0433147 0)
(0.107962 0.0368712 0)
(0.111892 0.0301153 0)
(0.115492 0.0230946 0)
(0.118731 0.0158743 0)
(0.121676 0.00854287 0)
(0.123937 0.00124824 0)
(0.125017 -0.00623449 0)
(0.0034581 0.0862713 0)
(0.00924463 0.0848608 0)
(0.0162408 0.0826149 0)
(0.0234918 0.0811456 0)
(0.0307575 0.0798198 0)
(0.0378489 0.0782746 0)
(0.04469 0.0763483 0)
(0.0512432 0.0739774 0)
(0.0574894 0.0711442 0)
(0.0634211 0.0678514 0)
(0.0690366 0.0641092 0)
(0.0743365 0.0599303 0)
(0.0793222 0.0553279 0)
(0.0839949 0.050316 0)
(0.0883556 0.0449102 0)
(0.092406 0.0391302 0)
(0.0961499 0.0330021 0)
(0.0995943 0.0265619 0)
(0.102737 0.0198595 0)
(0.105573 0.0129658 0)
(0.108144 0.00598591 0)
(0.110148 -0.000913094 0)
(0.111163 -0.00788974 0)
(0.00288444 0.0809883 0)
(0.00782071 0.07849 0)
(0.013895 0.0758384 0)
(0.0202659 0.0742671 0)
(0.0267137 0.0730129 0)
(0.0330551 0.0716452 0)
(0.0392047 0.0699602 0)
(0.0451127 0.0678671 0)
(0.0507489 0.065331 0)
(0.0560958 0.0623444 0)
(0.0611439 0.058912 0)
(0.0658878 0.0550439 0)
(0.0703244 0.0507524 0)
(0.0744518 0.0460508 0)
(0.0782693 0.0409542 0)
(0.0817781 0.0354806 0)
(0.084984 0.0296539 0)
(0.0878983 0.0235075 0)
(0.090531 0.0170907 0)
(0.0928829 0.0104783 0)
(0.0950251 0.00378956 0)
(0.0967007 -0.00276897 0)
(0.0975465 -0.00929268 0)
(0.00247374 0.0764981 0)
(0.00673968 0.0730026 0)
(0.0120227 0.0699291 0)
(0.0176156 0.0682067 0)
(0.023317 0.0669662 0)
(0.0289583 0.06572 0)
(0.0344543 0.0642275 0)
(0.0397497 0.0623727 0)
(0.0448066 0.0601037 0)
(0.0495996 0.0574019 0)
(0.0541111 0.0542654 0)
(0.0583286 0.0507007 0)
(0.0622421 0.0467177 0)
(0.0658442 0.0423281 0)
(0.0691287 0.0375447 0)
(0.0720935 0.0323821 0)
(0.0747423 0.0268589 0)
(0.0770884 0.0210018 0)
(0.0791479 0.0148527 0)
(0.080951 0.00848634 0)
(0.0825701 0.00203343 0)
(0.0838413 -0.00426404 0)
(0.0844827 -0.0103775 0)
(0.00222571 0.0725584 0)
(0.00602869 0.0682075 0)
(0.0107014 0.0647482 0)
(0.0156414 0.062868 0)
(0.0206838 0.0616132 0)
(0.0256884 0.060451 0)
(0.0305807 0.0591122 0)
(0.0353069 0.0574603 0)
(0.0398259 0.0554294 0)
(0.0441059 0.0529909 0)
(0.0481221 0.0501369 0)
(0.0518537 0.0468696 0)
(0.0552824 0.0431967 0)
(0.0583919 0.0391275 0)
(0.0611678 0.0346722 0)
(0.063599 0.0298402 0)
(0.0656822 0.0246422 0)
(0.0674253 0.0190919 0)
(0.0688513 0.0132162 0)
(0.0699989 0.00707437 0)
(0.0709822 0.000794957 0)
(0.0717438 -0.00532036 0)
(0.0720332 -0.0110939 0)
(0.00217999 0.0688857 0)
(0.00579426 0.0638931 0)
(0.0100263 0.0601519 0)
(0.0144376 0.0581557 0)
(0.0189084 0.0568882 0)
(0.0233437 0.0557893 0)
(0.0276899 0.0545733 0)
(0.0319005 0.053092 0)
(0.0359339 0.05127 0)
(0.0397539 0.0490718 0)
(0.0433283 0.0464848 0)
(0.0466277 0.0435083 0)
(0.0496239 0.0401482 0)
(0.0522896 0.0364123 0)
(0.054598 0.0323081 0)
(0.0565244 0.0278404 0)
(0.0580498 0.0230095 0)
(0.0591684 0.0178121 0)
(0.0598908 0.0122465 0)
(0.0602687 0.00633247 0)
(0.0604454 0.000176044 0)
(0.0605082 -0.00588768 0)
(0.0603103 -0.0114026 0)