/*--------------------------------*- C++ -*----------------------------------*\
  =========                 |
  \\      /  F ield         | OpenFOAM: The Open Source CFD Toolbox
   \\    /   O peration     | Website:  https://openfoam.org
    \\  /    A nd           | Version:  13
     \\/     M anipulation  |
\*---------------------------------------------------------------------------*/
FoamFile
{
    format      ascii;
    class       volScalarField;
    location    "1.95";
    object      alphas;
}
// * * * * * * * * * * * * * * * * * * * * * * * * * * * * * * * * * * * * * //

dimensions      [];

internalField   nonuniform List<scalar> 
2268
(
2
2
2
2
2
2
2
2
2
2
2
2
2
2
2
2
2
2
2
1.99983
1.99952
1.99943
1.99943
2
2
2
2
2
2
2
2
2
2
2
2
2
2
2
2
2
2
2
2
2
1.99993
1.99984
2
2
2
2
2
2
2
2
2
2
2
2
2
2
2
2
2
2
2
2
2
2
2
2
2
2
2
2
2
2
2
2
2
2
2
2
2
2
2
2
2
2
2
2
2
2
2
2
2
2
2
2
2
2
2
2
2
2
2
2
2
2
2
2
2
2
2
2
2
2
2
2
2
2
2
2
2
1.99971
1.99331
1.9756
1.9454
1.90156
1.8438
1.77271
1.68977
1.59865
1.50779
1.42793
1.36537
1.32269
1.29204
1.26429
2
2
1.99692
1.90185
1.7793
1.63422
1.47483
1.31098
1.14856
0.961389
0.790378
0.637813
0.502157
0.382839
0.280488
0.194759
0.125641
0.0735466
0.0371929
0.0140254
0.00206524
0.00393739
0.00515881
1.39825
1.01458
0.689984
0.485912
0.319826
0.195626
0.108272
0.0457096
0.000858488
1.90238e-09
2.81297e-09
4.95277e-09
1.40036e-08
6.92585e-08
3.8847e-07
2.33951e-06
1.3401e-05
6.66275e-05
0.000221519
0.000446751
0.00074549
0.00120663
0.00362656
1.85771
1.858
1.86213
1.85628
1.87595
1.94922
1.88926
1.75038
1.70762
1.70095
1.69995
1.71686
1.78657
1.77575
1.73925
1.66287
1.75913
1.7469
1.72862
1.44412
1.4304
1.53011
1.64315
1.64602
1.5947
1.70047
1.74784
1.81231
1.91821
1.91752
1.85563
1.88492
1.92312
1.7851
1.68812
1.75522
1.76006
1.68166
0.689481
0.624425
0.791817
1.00127
1.06993
0.945138
0.864108
1.04204
1.33541
1.84982
2.2249
2.13184
1.9192
2.03959
2.16369
2.04469
1.77739
1.68678
1.54949
0.435263
0.4117
0.346482
0.73209
0.928131
0.873385
0.317746
0.0752715
0.0821351
0.724347
2.11923
2.38438
2.34381
2.26368
2.20321
2.22064
2.17947
2.06458
1.65761
0.321459
0.378115
0.388582
0.419566
0.901279
0.8628
0.461336
0.0496642
0.0166056
0.161835
1.48162
2.08176
2.32083
2.31696
2.24564
2.06212
2.0944
2.0934
1.6756
0.257275
0.253323
0.326171
0.304158
0.729353
0.911324
0.94709
0.378945
0.0253587
0.0138508
0.554078
1.64562
2.01369
2.13101
1.79646
0.749249
0.909978
0.907559
0.904444
0.262835
0.276753
0.269828
0.215301
0.654391
1.03485
1.12057
0.456621
0.0312739
0.00508861
0.0156439
0.166418
0.723671
1.02623
0.689336
0.206381
0.0670654
0.00662932
0.508487
0.282796
0.282714
0.276817
0.219622
0.801235
1.39077
1.20209
0.178198
0.00276453
0.000277002
0.000269679
0.000278439
0.0161518
0.0619049
0.0488102
0.00814802
0.000112675
0.00149113
0.395667
0.0331538
0.00327403
2.1654e-07
8.64085e-08
4.72464e-08
6.34816e-09
7.09602e-09
7.37282e-09
6.99448e-09
6.77083e-09
8.63738e-09
1.07275e-08
1.42613e-08
3.90267e-08
8.74457e-08
2.6858e-07
1.50147e-06
9.23041e-06
1.00177e-05
1.07438e-05
1.37542e-05
1.9573e-05
0.0134461
1.27651e-08
1.03656e-08
7.82964e-09
7.49005e-09
8.04945e-09
1.22428e-08
1.60139e-08
2.01018e-08
2.19263e-08
2.3128e-08
2.82271e-08
3.18186e-08
2.86758e-08
3.58215e-08
3.99955e-08
4.92731e-08
5.82504e-08
3.59264e-07
0.0041331
0.0443653
0.105908
0.18033
0.29218
7.8749e-09
6.68059e-09
6.692e-09
6.98709e-09
7.52187e-09
8.10754e-09
8.09511e-09
7.11715e-09
5.76885e-09
4.6112e-09
3.29725e-09
1.85227e-08
5.83875e-07
0.00347199
0.0279868
0.0604982
0.0952427
0.175903
0.331966
0.53002
0.713692
0.972457
1.03104
8.28616e-09
1.20005e-07
0.0177594
0.0114404
0.00404118
0.000912675
0.000388768
0.00688952
0.0318505
0.0618541
0.102238
0.159792
0.244353
0.38662
0.592191
0.682938
0.779299
0.950086
1.10678
1.22619
1.31708
1.15809
1.00029
0.453363
0.322622
0.258302
0.313322
0.378916
0.37937
0.461009
0.710108
0.743958
0.842719
0.973158
1.10946
1.20251
1.27443
1.34284
1.33968
1.16352
1.09582
1.19083
1.20971
1.06405
1.00473
1.0007
0.966312
1.00856
0.96579
0.974378
0.981449
0.990532
1.10244
1.26833
1.18917
1.12333
1.12273
1.14591
1.07499
1.0263
1.02191
1.00711
1.0017
1.00093
1.00135
1.00239
1
1
1.00025
1.2829
1.13542
1.04646
1.04726
1.0507
1.06197
1.08533
1.11679
1.15703
1.19746
1.23545
1.30217
1.3759
1.40406
1.40468
1.38779
1.30797
1.15384
1.00001
1
1
1
1.00001
2.09485
2.03744
2.05041
2.09558
2.16171
2.25066
2.35105
2.45196
2.56088
2.66879
2.75561
2.80263
2.82563
2.84477
2.81478
2.7616
2.69434
2.54415
2.21937
1.66505
1.21582
1
1
3
3
2.98949
2.99155
2.99996
2.99998
2.99999
3
3
3
3
3
3
2.99999
3
3
3
3
2.99999
2.97
2.82172
2.55314
2.09932
3
3
3
2.99997
2.99895
2.9992
2.99999
3
3
3
2.99995
2.99991
2.99996
3
3
3
3
3
3
3
2.99999
2.99999
2.99999
3
2.99998
2.99999
2.99974
2.99998
3
3
3
2.99998
2.9998
2.99965
2.99965
2.99988
3
3
3
3
3
3
3
3
3
3
3
2.99998
3
3
3
3
3
3
2.99984
2.99965
2.99965
2.99965
2.99994
2.99999
3
3
3
3
3
3
3
3
3
3
3
3
3
3
3
3
3
2.99993
2.99966
2.99965
2.99989
2.99999
2.99999
2.99999
2.99999
2.99999
3
3
3
3
3
3
3
3
3
3
3
3
3
3
3
2.99998
2.99996
3
2.99999
2.99999
2.99999
2.99999
3
3
3
3
3
3
3
3
3
3
3
3
3
3
3
3
3
3
3
3
3
3
3
3
3
3
3
3
3
3
3
3
3
3
3
3
3
3
3
3
3
3
3
3
3
3
3
3
3
3
3
3
3
3
3
3
3
3
3
3
3
3
3
3
3
3
3
3
3
3
3
3
3
3
3
3
3
3
3
3
3
3
3
3
3
3
3
3
3
3
3
3
3
3
3
3
3
3
3
3
3
3
3
3
3
3
3
3
3
3
3
3
3
3
3
3
3
3
3
3
3
3
3
3
3
3
3
3
3
3
3
3
3
3
3
3
3
3
3
3
3
3
3
3
3
3
3
3
3
3
3
3
3
3
3
3
3
3
3
3
3
3
3
3
3
3
3
3
3
3
3
3
3
3
3
3
3
3
3
3
3
3
3
3
3
3
3
3
3
3
3
3
3
3
3
3
3
3
3
3
3
3
3
3
3
3
3
3
3
3
3
3
3
3
3
3
3
3
3
3
3
3
3
3
3
3
3
3
3
3
3
3
3
3
3
3
3
3
3
3
3
3
3
3
3
3
3
3
3
3
3
3
3
3
3
3
3
3
3
3
3
3
3
3
3
3
3
3
3
3
3
3
3
3
3
3
3
3
3
3
3
3
3
3
3
3
3
3
3
3
3
3
3
3
3
3
3
3
3
3
3
3
3
3
3
3
3
3
3
3
3
3
3
3
3
3
3
3
3
3
3
3
3
3
3
3
3
3
3
3
3
3
3
3
3
3
3
3
3
3
3
3
3
3
3
3
3
3
3
3
3
3
3
3
3
3
3
3
3
3
3
3
3
3
3
3
3
3
3
3
3
3
3
3
3
3
3
3
3
3
3
3
3
3
3
3
3
3
3
3
3
3
3
3
3
3
3
3
3
3
3
3
3
3
3
3
3
3
3
3
3
3
3
3
3
3
3
3
3
3
3
3
3
3
3
3
3
3
3
3
3
3
3
3
3
3
3
3
3
3
3
3
3
3
3
3
3
3
3
3
3
3
3
3
3
3
3
3
3
3
3
3
3
3
3
3
3
3
3
3
3
3
3
3
3
3
3
3
3
3
3
3
3
3
3
3
3
3
3
3
3
3
3
3
3
3
3
3
3
3
3
3
3
3
3
3
3
3
3
3
3
3
3
3
3
3
3
3
3
3
3
3
3
3
3
3
3
3
3
3
3
3
3
3
3
3
3
3
3
3
3
3
3
3
3
3
3
3
3
3
3
3
3
3
3
3
3
3
3
3
3
3
3
3
3
3
3
3
3
3
3
3
3
3
3
3
3
3
3
3
3
3
3
3
3
3
3
3
3
3
3
3
3
3
3
3
3
3
3
3
3
3
3
3
3
3
3
3
3
3
3
3
3
3
3
3
3
3
3
3
3
3
3
3
3
3
3
3
3
3
3
3
3
3
3
3
3
3
3
3
3
3
3
3
3
3
3
3
3
3
3
0.0717581
0.115451
0.252084
0.295398
0.369531
0.689323
1.03618
1.36258
0.998664
1.00443
1.236
1.37163
1.00667
1.08358
1.13101
1.04643
1.01574
1.01545
1.00138
0.999993
1.00099
1
1
1
1
1
1
1
1
1
1
0.999999
1.70921
1.62508
1.65371
1.65988
2.98431
2.9671
2.95894
2.94252
3
2.99999
2.99999
2.99999
3
3
3
3
3
3
3
3
3
3
3
3
3
3
3
3
3
3
3
3
3
3
3
3
3
3
3
3
3
3
3
3
3
3
3
3
3
3
3
3
3
3
3
3
3
3
3
3
3
3
3
3
3
3
3
3
3
3
3
3
3
3
3
3
3
3
3
3
3
3
3
3
3
3
3
3
3
3
3
3
3
3
3
3
3
3
3
3
3
3
3
3
3
3
3
3
3
3
3
3
3
3
3
3
3
3
3
3
3
3
3
3
3
3
3
3
3
3
3
3
3
3
3
3
0.598346
0.578604
0.370435
0.426236
1.0407
1.44053
0.974292
0.0464726
0.000628267
0.000361023
0.000978268
0.00144163
0.000824889
0.000340902
0.000223388
0.00020178
0.000135127
0.0012945
0.0412308
1.32303
0.875276
0.585567
0.805745
1.29369
1.18382
0.777513
0.36641
0.0745507
0.0432007
0.0341361
0.0404694
0.0496575
0.0661208
0.0302954
0.000807265
0.0296107
0.123902
0.32498
1.34681
1.19311
1.19651
1.10438
1.00041
1.10851
1.07303
0.693115
0.699686
0.556083
0.631556
0.717128
0.766639
0.817313
0.817954
0.739493
0.761853
0.885557
1.00656
1.05621
1.0523
1.03078
1.0001
1.0001
1.03175
1.25656
1.32453
1.15269
1.00878
1.00016
1.00003
1.00002
1.00026
1.00059
1.00077
1.00089
1.01762
1.11589
1
0.999997
0.999961
0.999952
1.00072
1.01161
1.00571
1.00003
1.00005
1.00001
1.00005
1.00005
1
1.00012
1.00065
1.00068
1.00025
0.999254
0.998141
1
0.999998
1.00001
1.00005
1.00004
0.999999
0.999999
1
1
1.00001
1.00005
1.00004
1
1
1
1
1.00116
1.0022
1.00171
1
1
0.999996
0.999991
0.999994
1
1
1
1
1
1
1
1
1
1
1
1.00878
1.0487
1.04857
0.999999
0.999998
0.999998
0.999998
0.999998
1
1
1
1
1
1
1
1
1
1
1
1.00109
1.03133
1.04984
1.44807
1.20577
1.15489
1.26154
1.33953
1.26839
1.20037
1.17835
1.12463
1.0782
1.05052
1.0371
1.0312
1.0275
1.03116
1.07649
1.15163
1.20607
1.23422
2.90373
2.892
2.95124
2.96758
2.80433
2.68682
2.67177
2.65168
2.55654
2.45759
2.38401
2.34041
2.31208
2.29212
2.32407
2.50598
2.65304
2.72818
2.77833
2.99999
3
3
3
3
3
3
3
3
2.99998
2.99992
2.99973
2.99927
2.99793
2.99505
2.99551
2.99739
2.99925
3
3
3
3
3
3
3
3
2.99999
3
3
2.99996
2.99978
2.9994
2.99958
2.99959
2.99973
2.99997
3
3
3
3
3
3
3
3
3
2.99981
2.99887
2.99889
2.99987
2.99998
2.99891
2.99706
2.99731
2.99906
2.99997
3
3
3
3
3
3
3
3
3
2.99975
2.99799
2.99799
2.99892
2.99999
2.9993
2.99687
2.99703
2.99903
2.99995
3
3
3
3
3
3
3
3
3
2.99993
2.99864
2.998
2.9988
2.99999
3
3
3
3
2.99999
3
3
3
3
3
3
3
3
3
3
3
2.99987
2.99997
3
3
3
3
3
3
3
3
3
3
3
3
3
3
3
3
3
3
3
3
3
3
3
3
3
3
3
3
3
3
3
3
3
3
3
3
3
3
3
3
3
3
3
3
3
3
3
3
3
3
3
3
3
3
3
3
3
3
3
3
3
3
3
3
3
3
3
3
3
3
3
3
3
3
3
3
3
3
3
3
3
3
3
3
3
3
3
3
3
3
3
3
3
3
3
3
3
3
3
3
3
3
3
3
3
3
3
3
3
3
3
3
3
3
3
3
3
3
3
3
3
3
3
3
3
3
3
3
3
3
3
3
3
3
3
3
3
3
3
3
3
3
3
3
3
3
3
3
3
3
3
3
3
3
3
3
3
3
3
3
3
3
3
3
3
3
3
3
3
3
3
3
3
3
3
3
3
3
3
3
3
3
3
3
3
3
3
3
3
3
3
3
3
3
3
3
3
3
3
3
3
3
3
3
3
3
3
3
3
3
3
3
3
3
3
3
3
3
3
3
3
3
3
3
3
3
3
3
3
3
3
3
3
3
3
3
3
3
3
3
3
3
3
3
3
3
3
3
3
3
3
3
3
3
3
3
3
3
3
3
3
3
3
3
3
3
3
3
3
3
3
3
3
3
3
3
3
3
3
3
3
3
3
3
3
3
3
3
3
3
3
3
3
3
3
3
3
3
3
3
3
3
3
3
3
3
3
3
3
3
3
3
3
3
3
3
3
3
3
3
3
3
3
3
3
3
3
3
3
3
3
3
3
3
3
3
3
3
3
3
3
3
3
3
3
3
3
3
3
3
3
3
3
3
3
3
3
3
3
3
3
3
3
3
3
3
3
3
3
3
3
3
3
3
3
3
3
3
3
3
3
3
3
3
3
3
3
3
3
3
3
3
3
3
3
3
3
3
3
3
3
3
3
3
3
3
3
3
3
3
3
3
3
3
3
3
3
3
3
3
3
3
3
3
3
3
3
3
3
3
3
3
3
3
3
3
3
3
3
3
3
3
3
3
3
3
3
3
3
3
3
3
3
3
3
3
3
3
3
3
3
3
3
3
3
3
3
3
3
3
3
3
3
3
3
3
3
3
3
3
3
3
3
3
3
3
3
3
3
3
3
3
3
3
3
3
3
3
3
3
3
3
)
;

boundaryField
{
    leftWall
    {
        type            calculated;
        value           nonuniform List<scalar> 
50
(
2
2
2
2
2
2
2
1.39825
0.0331538
1.27651e-08
7.8749e-09
8.28616e-09
0.453363
0.966312
1.2829
2.09485
3
3
3
3
3
3
3
3
3
3
3
3
3
3
3
3
3
3
3
3
3
3
3
3
3
3
3
3
3
3
3
3
3
3
)
;
    }
    rightWall
    {
        type            calculated;
        value           nonuniform List<scalar> 
50
(
1.72862
1.68166
1.54949
1.65761
1.6756
0.904444
0.508487
0.395667
0.0412308
0.32498
1.00656
1.11589
0.998141
1.00171
1.04857
1.04984
1.23422
2.77833
3
3
3
3
3
3
3
3
3
3
3
3
3
3
3
3
3
3
3
3
3
3
3
3
3
3
3
3
3
3
3
3
)
;
    }
    lowerWall
    {
        type            calculated;
        value           nonuniform List<scalar> 
62
(
2
2
2
2
2
2
2
2
2
2
2
2
2
2
2
2
2
2
2
1.99983
1.99952
1.99943
1.99943
1.99943
1.99984
2
2
2
1.26429
0.00515881
0.00362656
0.0717581
0.115451
0.252084
0.295398
1.85771
1.44412
0.689481
0.435263
0.321459
0.257275
0.262835
0.282796
1.85771
1.858
1.86213
1.85628
1.87595
1.94922
1.88926
1.75038
1.70762
1.70095
1.69995
1.71686
1.78657
1.77575
1.73925
1.66287
1.75913
1.7469
1.72862
)
;
    }
    atmosphere
    {
        type            calculated;
        value           nonuniform List<scalar> 
46
(
3
3
3
3
3
3
3
3
3
3
3
3
3
3
3
3
3
3
3
3
3
3
3
3
3
3
3
3
3
3
3
3
3
3
3
3
3
3
3
3
3
3
3
3
3
3
)
;
    }
    defaultFaces
    {
        type            empty;
    }
}


// ************************************************************************* //
