/*--------------------------------*- C++ -*----------------------------------*\
  =========                 |
  \\      /  F ield         | OpenFOAM: The Open Source CFD Toolbox
   \\    /   O peration     | Website:  https://openfoam.org
    \\  /    A nd           | Version:  13
     \\/     M anipulation  |
\*---------------------------------------------------------------------------*/
FoamFile
{
    format      ascii;
    class       volScalarField;
    location    "1.95";
    object      alpha.air;
}
// * * * * * * * * * * * * * * * * * * * * * * * * * * * * * * * * * * * * * //

dimensions      [];

internalField   nonuniform List<scalar> 
2268
(
1.88703e-13
2.83241e-13
2.89439e-13
1.89668e-13
1.18984e-13
6.19848e-14
2.9938e-14
1.49917e-14
8.06661e-15
5.11071e-15
4.76804e-15
6.28996e-15
1.48694e-14
4.36109e-14
7.51682e-14
5.09455e-14
4.91175e-14
2.6769e-13
6.53415e-13
5.30061e-13
1.69181e-13
1.60867e-13
3.62088e-13
7.38042e-13
1.21497e-12
1.18554e-12
9.53588e-13
6.6506e-13
4.01505e-13
2.14651e-13
1.12072e-13
6.43442e-14
5.03985e-14
7.24636e-14
1.84418e-13
5.76836e-13
1.62439e-12
3.44523e-12
2.13001e-12
3.3292e-12
1.79619e-11
1.9994e-11
2.65231e-11
2.58284e-11
2.23769e-10
2.77605e-11
1.904e-12
2.8843e-12
2.15363e-12
2.06891e-12
1.4004e-12
8.56128e-13
5.03304e-13
3.00806e-13
2.31512e-13
2.78236e-13
6.81031e-13
2.08664e-12
6.54227e-12
1.91048e-11
4.87254e-11
1.04274e-10
1.80467e-10
3.2864e-10
5.73958e-10
1.19724e-09
2.56293e-09
4.47003e-09
1.35404e-09
5.13081e-12
6.18946e-12
6.13361e-12
5.2672e-12
3.99378e-12
2.78113e-12
1.8798e-12
1.26615e-12
1.15637e-12
1.63495e-12
3.45917e-12
9.35118e-12
2.60893e-11
7.25458e-11
1.89738e-10
3.95364e-10
7.01883e-10
9.82572e-10
1.39251e-09
2.89472e-09
7.28592e-09
1.28185e-08
6.16925e-09
1.3797e-11
1.71892e-11
1.68213e-11
1.50618e-11
1.29015e-11
1.03746e-11
7.77966e-12
6.09262e-12
5.60485e-12
6.43574e-12
9.60355e-12
1.89226e-11
4.59628e-11
1.1677e-10
2.64385e-10
4.73845e-10
6.62151e-10
6.89952e-10
7.19871e-10
7.52357e-10
7.87999e-10
8.10745e-10
8.75803e-10
3.84313e-11
5.1294e-11
5.56293e-11
5.3304e-11
4.95124e-11
4.75244e-11
4.28132e-11
3.50681e-11
3.19408e-11
3.22516e-11
3.52385e-11
4.62047e-11
7.64535e-11
9.13036e-11
9.34272e-11
9.56136e-11
9.76595e-11
2.23993e-07
1.23952e-05
7.26435e-05
0.000191574
0.000321839
0.000380825
5.39116e-11
8.39538e-11
9.51544e-11
1.03571e-10
1.11325e-10
1.23962e-10
1.38951e-10
1.50651e-10
1.4924e-10
1.67367e-10
2.22731e-10
3.65599e-10
8.91846e-10
4.24873e-09
2.85926e-08
2.05107e-07
1.35827e-06
1.12836e-05
7.59336e-05
0.000268843
0.000682676
0.00129534
0.00169949
2.39604e-10
1.53394e-10
1.89237e-10
2.22657e-10
2.78253e-10
3.21416e-10
3.53228e-10
3.97193e-10
4.7806e-10
5.95422e-10
8.70613e-10
1.53543e-09
4.44222e-09
2.24094e-08
1.2649e-07
7.67592e-07
4.44985e-06
2.2209e-05
7.37456e-05
0.00014778
0.000243156
0.000398178
0.00119588
0.000329433
0.000329432
0.00282419
0.0198856
0.030749
0.0565495
0.0734461
0.0735051
0.0503425
0.043399
0.0441014
0.0629717
0.10498
0.107498
0.0553439
0.0148589
0.0148586
0.014858
0.0148582
0.00503049
0.00587167
0.00361125
0.000373564
0.000339475
0.000338532
0.00311203
0.00647852
0.0239642
0.0545091
0.0545875
0.0533757
0.0710015
0.118896
0.0748771
0.0253767
0.0153961
0.0148583
0.0148581
0.0167485
0.0179955
0.0200205
0.0177016
0.00821229
0.00391046
0.000195684
1.07486e-07
0.00423958
0.142235
0.259944
0.220124
0.129538
0.180824
0.262522
0.202589
0.0691919
0.0437097
0.0249268
0.0156258
0.0156225
0.0204883
0.0269124
0.0269443
0.0214505
0.00188197
1.205e-07
8.79471e-08
0.185351
0.56757
0.568895
0.553958
0.509972
0.463288
0.468238
0.449365
0.395332
0.171795
0.0181137
0.0157779
0.0167151
0.0269218
0.0269187
0.0175318
0.00114432
8.45457e-08
1.16605e-07
0.0537393
0.479722
0.568953
0.568902
0.568948
0.52394
0.426448
0.458777
0.460665
0.241024
0.063714
0.0475527
0.0156033
0.0132767
0.022949
0.00686437
0.0205439
0.00985499
0.000147646
0.00363462
0.159406
0.465241
0.568628
0.569022
0.46103
0.127194
0.207779
0.231614
0.0994214
0.0681784
0.0773554
0.0622573
0.0106562
0.0109063
0.0401442
0.0761576
0.0240317
7.88843e-06
0.00153406
1.30464e-07
0.0214859
0.164329
0.253249
0.143298
0.00450691
-4.09163e-11
-3.60044e-20
1.21241e-20
0.0673228
0.0808945
0.0775547
0.0288674
0.0615556
0.170962
0.136728
0.00959682
5.31381e-06
1.30863e-07
1.84994e-06
1.70974e-05
2.75657e-09
2.66959e-11
-8.87222e-09
-2.95766e-08
3.9245e-06
1.44842e-07
-2.82365e-07
1.78026e-09
1.19127e-09
6.6421e-10
6.34277e-10
8.69484e-10
1.38391e-09
2.10531e-09
2.26384e-09
2.20188e-09
2.12449e-09
2.72851e-09
3.41421e-09
4.49853e-09
1.22695e-08
2.81945e-08
8.73532e-08
4.97794e-07
3.07512e-06
3.33904e-06
3.56192e-06
3.75655e-06
5.59453e-06
0.00442026
1.97643e-09
1.15764e-09
5.74803e-10
5.12762e-10
6.50551e-10
1.18419e-09
2.83382e-09
4.84462e-09
5.50621e-09
6.53743e-09
8.64571e-09
1.00953e-08
9.09211e-09
1.06489e-08
1.20915e-08
1.47544e-08
1.34115e-08
1.14576e-07
0.0013777
0.0147884
0.0353026
0.0576519
0.0750536
5.93801e-10
4.69531e-10
4.71487e-10
4.66758e-10
4.71487e-10
4.57466e-10
4.71478e-10
4.57466e-10
4.71478e-10
4.73743e-10
5.23211e-10
5.75985e-09
1.94331e-07
0.00115733
0.00932894
0.0201661
0.0311748
0.0520351
0.0953418
0.144358
0.168479
0.166847
0.0500401
2.23979e-09
3.96987e-08
0.00591981
0.00381348
0.00134706
0.000304224
0.000129589
0.00229651
0.0106168
0.020618
0.0333329
0.049196
0.0706214
0.1064
0.158141
0.156078
0.126306
0.136928
0.168476
0.168481
0.168478
0.0799359
0.000145491
0.151121
0.0801466
0.0133423
0.00143706
0.00127617
0.000284039
0.0658965
0.176504
0.177141
0.175556
0.176811
0.195081
0.202178
0.202142
0.202198
0.170939
0.0823227
0.0479116
0.0954135
0.104853
0.0320254
0.00236669
0.000349766
0.199924
0.0821105
0.00892214
0.00285508
0.00159141
0.00414506
0.0605383
0.142645
0.0948257
0.0616637
0.0613661
0.0729564
0.0374932
0.013152
0.0109541
0.00355323
0.000849808
0.000463055
0.000673387
0.00119578
6.67442e-07
4.91879e-07
0.000124533
0.146012
0.0700693
0.0237924
0.0236275
0.0253477
0.0309845
0.0426673
0.0583928
0.0785165
0.098731
0.117724
0.151085
0.187952
0.202028
0.202338
0.193893
0.153984
0.0769222
2.633e-06
1.8031e-06
8.77616e-07
6.63209e-07
6.52006e-06
0.547426
0.518928
0.525425
0.547811
0.580858
0.62533
0.675526
0.725979
0.780441
0.834397
0.877804
0.901316
0.912817
0.922384
0.907389
0.880801
0.847172
0.772077
0.609686
0.332527
0.107908
1.84683e-06
9.99705e-07
0.999999
0.999999
0.994747
0.995782
0.999986
0.999993
0.999998
1
1
1
1
0.999999
0.999999
0.999998
0.999998
0.999999
0.999998
0.999998
0.999997
0.985001
0.910859
0.776568
0.549659
0.999999
0.999999
0.999999
0.999991
0.999482
0.999601
0.999993
1
1
1
0.999974
0.999957
0.999983
0.999999
1
1
1
1
1
0.999998
0.999996
0.999995
0.999994
0.999999
0.999991
0.999997
0.999869
0.999993
0.999999
1
1
0.999992
0.9999
0.999826
0.999826
0.999942
0.999999
1
1
1
1
1
1
1
1
1
0.999998
0.999991
0.999998
1
1
1
1
1
0.999918
0.999827
0.999825
0.999826
0.999973
0.999997
0.999999
0.999998
0.999999
0.999999
1
1
1
1
1
0.999999
0.999999
1
1
1
1
1
1
0.999966
0.999831
0.999827
0.999945
0.999997
0.999997
0.999997
0.999997
0.999998
0.999999
0.999999
1
1
1
1
0.999999
1
1
1
1
1
1
1
0.999999
0.999991
0.999979
0.999999
0.999997
0.999997
0.999997
0.999998
0.999999
0.999999
1
1
1
1
1
1
1
1
1
1
1
1
1
1
1
1
1
0.999999
0.999999
0.999999
1
1
1
1
1
1
1
1
1
1
1
1
1
1
1
1
1
1
1
0.999999
0.999999
0.999999
1
1
1
1
1
1
1
1
1
1
1
1
1
1
1
1
1
1
1
1
0.999999
0.999999
1
1
1
1
1
1
1
1
1
1
1
1
1
1
1
1
1
1
1
1
1
1
1
1
1
1
1
1
1
1
1
1
1
1
1
1
1
1
1
1
1
1
1
1
1
1
1
1
1
1
1
1
1
1
1
1
1
1
1
1
1
1
1
1
1
1
1
1
1
1
1
1
1
1
1
1
1
1
1
1
1
1
1
1
1
1
1
1
1
1
1
1
1
1
1
1
1
1
1
1
1
1
1
1
1
1
1
1
1
1
1
1
1
1
1
1
1
1
1
1
1
1
1
1
1
1
1
1
1
1
1
1
1
1
1
1
1
1
1
1
1
1
1
1
1
1
1
1
1
1
1
1
1
1
1
1
1
1
1
1
1
1
1
1
1
1
1
1
1
1
1
1
1
1
1
1
1
1
1
1
1
1
1
1
1
1
1
1
1
1
1
1
1
1
1
1
1
1
1
1
1
1
1
1
1
1
1
1
1
1
1
1
1
1
1
1
1
1
1
1
1
1
1
1
1
1
1
1
1
1
1
1
1
1
1
1
1
1
1
1
1
1
1
1
1
1
1
1
1
1
1
1
1
1
1
1
1
1
1
1
1
1
1
1
1
1
1
1
1
1
1
1
1
1
1
1
1
1
1
1
1
1
1
1
1
1
1
1
1
1
1
1
1
1
1
1
1
1
1
1
1
1
1
1
1
1
1
1
1
1
1
1
1
1
1
1
1
1
1
1
1
1
1
1
1
1
1
1
1
1
1
1
1
1
1
1
1
1
1
1
1
1
1
1
1
1
1
1
1
1
1
1
1
1
1
1
1
1
1
1
1
1
1
1
1
1
1
1
1
1
1
1
1
1
1
1
1
1
1
1
1
1
1
1
1
1
1
1
1
1
1
1
1
1
1
1
1
1
1
1
1
1
1
1
1
1
1
1
1
1
1
1
1
1
1
1
1
1
1
1
1
1
1
1
1
1
1
1
1
1
1
1
1
1
1
1
1
1
1
1
1
1
1
1
1
1
1
1
1
1
1
1
1
1
1
1
1
1
1
1
1
1
1
1
1
1
1
1
1
1
1
1
1
1
1
1
1
1
1
1
1
1
1
1
1
1
1
1
1
1
1
1
1
1
1
1
1
1
1
1
1
1
1
1
1
1
1
1
1
1
1
1
1
1
1
1
1
1
1
1
1
1
1
1
1
1
1
1
1
1
1
1
1
1
1
1
1
1
1
1
1
1
1
1
1
1
1
1
1
1
1
1
1
1
1
1
1
1
1
1
1
1
1
1
1
1
1
1
1
1
1
1
1
1
1
1
1
1
1
1
1
1
1
1
1
0.0148895
0.0119424
0.00619673
0.0122755
0.034555
0.00229511
0.0547321
0.186156
0.00228925
0.00363225
0.118
0.185814
0.00333491
0.0418164
0.0655057
0.0233541
0.0078717
0.00772557
0.000690879
4.6562e-20
0.000494476
1.57291e-09
1.93437e-09
5.50676e-09
2.81564e-09
1.83916e-09
2.97841e-09
5.65974e-09
3.57995e-07
1.00523e-07
-4.89508e-13
-2.10042e-27
0.354604
0.312539
0.326854
0.32994
0.992154
0.983552
0.979471
0.971261
0.999998
0.999996
0.999996
0.999997
1
1
1
1
1
1
1
1
1
1
1
1
1
1
1
1
1
1
1
1
1
1
1
1
1
1
1
1
1
1
1
1
1
1
1
1
1
1
1
1
1
1
1
1
1
1
1
1
1
1
1
1
1
1
1
1
1
1
1
1
1
1
1
1
1
1
1
1
1
1
1
1
1
1
1
1
1
1
1
1
1
1
1
1
1
1
1
1
1
1
1
1
1
1
1
1
1
1
1
1
1
1
1
1
1
1
1
1
1
1
1
1
1
1
1
1
1
1
1
1
1
1
1
1
0.0849289
0.155226
0.112933
0.131043
0.182439
0.18227
0.131306
0.0102497
0.000202759
7.66822e-05
0.000245796
0.000401423
0.000219644
8.57367e-05
5.07015e-05
3.72862e-05
4.68229e-06
0.000395203
0.0122777
0.186109
0.186157
0.184001
0.184796
0.164741
0.0891152
0.138863
0.12082
0.0248445
0.0143861
0.00764083
0.00317373
0.00118561
0.000553636
0.000451726
0.000198943
3.49917e-06
0.00664885
0.0892698
0.186156
0.172087
0.182322
0.0671554
0.000206462
0.0542541
0.16758
0.167582
0.16758
0.0480152
0.00374402
0.000690336
0.000542724
7.89332e-05
0.000174869
0.000334161
0.000214617
0.0165402
0.0922504
0.0282266
0.0258176
0.015222
5.01565e-05
5.15808e-05
0.0178125
0.134319
0.162642
0.0761844
0.00434375
8.12703e-05
1.57113e-05
9.51807e-06
0.000117963
0.000255206
0.000306438
0.000303129
0.0079547
0.0534223
-8.5325e-20
4.06662e-20
-2.62157e-09
1.4944e-06
0.000381687
0.00580597
0.00284265
-3.31704e-08
8.99701e-08
1.97199e-06
2.66166e-05
2.70937e-05
1.81106e-06
6.10471e-05
0.000314222
0.000316068
0.000148462
9.1508e-05
2.66796e-05
3.2911e-09
2.09949e-22
1.78345e-05
3.30282e-05
2.45289e-05
9.29063e-10
-6.05024e-24
1.91338e-07
6.26265e-07
4.3026e-06
2.35363e-05
1.94528e-05
2.18819e-07
2.25058e-07
2.80444e-07
1.77894e-06
0.000579331
0.00233133
0.00326527
5.6643e-09
4.61784e-09
2.38231e-10
-5.48346e-14
-2.1695e-27
2.40412e-08
1.11405e-07
3.47961e-07
4.92264e-07
2.322e-07
5.31219e-11
3.43478e-12
1.05006e-07
1.33083e-07
2.2497e-07
3.2712e-07
0.00436964
0.0243374
0.0247299
4.58897e-26
-1.71431e-13
-1.47679e-27
-3.26817e-20
4.01903e-20
2.50012e-09
-2.50009e-09
3.46173e-08
1.70449e-08
8.2022e-09
1.14389e-19
2.51707e-20
2.26941e-19
-1.32175e-20
4.25612e-08
4.89591e-07
0.000543582
0.015625
0.0248107
0.224035
0.102888
0.0774467
0.130768
0.169764
0.134196
0.100185
0.0891755
0.062315
0.0390979
0.0252593
0.018551
0.0155984
0.0137484
0.0156348
0.0397846
0.0788659
0.106452
0.120368
0.951863
0.945998
0.97562
0.983791
0.902163
0.843409
0.835885
0.825839
0.77827
0.728794
0.692008
0.67021
0.656055
0.646072
0.662648
0.757215
0.83195
0.869381
0.893493
0.999997
0.999999
1
1
1
1
1
1
0.999999
0.999992
0.999966
0.999892
0.99971
0.9992
0.998111
0.998318
0.999122
0.999748
1
1
1
1
1
1
1
0.999999
0.999995
1
0.999999
0.999983
0.999908
0.99974
0.999814
0.999795
0.999865
0.999983
0.999998
0.999998
1
1
1
1
1
1
0.999999
0.999906
0.999433
0.999446
0.999934
0.999988
0.999453
0.998531
0.998656
0.999532
0.999986
0.999997
0.999999
1
1
1
1
1
1
1
0.999875
0.998996
0.998994
0.999458
0.999993
0.999651
0.998436
0.998517
0.999515
0.999977
0.999999
1
1
1
1
1
1
1
1
0.999966
0.999322
0.999
0.999399
0.999993
0.999999
1
1
1
0.999994
1
1
1
1
1
1
1
1
1
1
1
0.999936
0.999987
0.999998
0.999999
1
1
1
1
1
0.999999
1
1
1
1
1
1
0.999999
0.999999
1
1
1
0.999999
0.999998
0.999999
1
1
1
1
0.999999
1
1
1
1
1
1
0.999999
0.999999
0.999999
1
1
0.999999
0.999999
0.999999
1
1
1
1
0.999999
1
1
1
1
1
1
1
1
1
1
1
1
1
1
1
1
1
1
0.999999
1
1
1
1
1
1
1
1
1
1
1
1
1
1
1
1
1
1
1
1
1
1
1
1
1
1
1
1
1
1
1
1
1
1
1
1
1
1
1
1
1
1
1
1
1
1
1
1
1
1
1
1
1
1
1
1
1
1
1
1
1
1
1
1
1
1
1
1
1
1
1
1
1
1
1
1
1
1
1
1
1
1
1
1
1
1
1
1
1
1
1
1
1
1
1
1
1
1
1
1
1
1
1
1
1
1
1
1
1
1
1
1
1
1
1
1
1
1
1
1
1
1
1
1
1
1
1
1
1
1
1
1
1
1
1
1
1
1
1
1
1
1
1
1
1
1
1
1
1
1
1
1
1
1
1
1
1
1
1
1
1
1
1
1
1
1
1
1
1
1
1
1
1
1
1
1
1
1
1
1
1
1
1
1
1
1
1
1
1
1
1
1
1
1
1
1
1
1
1
1
1
1
1
1
1
1
1
1
1
1
1
1
1
1
1
1
1
1
1
1
1
1
1
1
1
1
1
1
1
1
1
1
1
1
1
1
1
1
1
1
1
1
1
1
1
1
1
1
1
1
1
1
1
1
1
1
1
1
1
1
1
1
1
1
1
1
1
1
1
1
1
1
1
1
1
1
1
1
1
1
1
1
1
1
1
1
1
1
1
1
1
1
1
1
1
1
1
1
1
1
1
1
1
1
1
1
1
1
1
1
1
1
1
1
1
1
1
1
1
1
1
1
1
1
1
1
1
1
1
1
1
1
1
1
1
1
1
1
1
1
1
1
1
1
1
1
1
1
1
1
1
1
1
1
1
1
1
1
1
1
1
1
1
1
1
1
1
1
1
1
1
1
1
1
1
1
1
1
1
1
1
1
1
1
1
1
1
1
1
1
1
1
1
1
1
1
1
1
1
1
1
1
1
1
1
1
1
1
1
1
1
1
1
1
1
1
1
1
1
1
1
1
1
1
1
1
1
1
1
1
1
1
1
1
1
1
1
)
;

boundaryField
{
    leftWall
    {
        type            alphaContactAngle;
        contactAngleProperties 
        {
            mercury         
            {
                theta0          90;
            }
            water           
            {
                theta0          90;
            }
            oil             
            {
                theta0          90;
            }
        }
        value           nonuniform List<scalar> 
50
(
1.88703e-13
7.38042e-13
1.904e-12
5.13081e-12
1.3797e-11
3.84313e-11
5.39116e-11
2.39604e-10
1.78026e-09
1.97643e-09
5.93801e-10
2.23979e-09
0.151121
0.199924
0.146012
0.547426
0.999999
0.999999
0.999999
0.999998
0.999999
0.999999
1
1
1
1
1
1
1
1
1
1
1
1
1
1
1
1
1
1
1
1
1
1
1
1
1
1
1
1
)
;
    }
    rightWall
    {
        type            alphaContactAngle;
        contactAngleProperties 
        {
            mercury         
            {
                theta0          90;
            }
            water           
            {
                theta0          90;
            }
            oil             
            {
                theta0          90;
            }
        }
        value           nonuniform List<scalar> 
50
(
0.0148582
0.0148581
0.0249268
0.171795
0.241024
0.0994214
1.21241e-20
-2.82365e-07
0.0122777
0.0892698
0.0922504
0.0534223
2.66796e-05
0.00326527
0.0247299
0.0248107
0.120368
0.893493
1
0.999998
0.999999
1
1
0.999999
0.999999
0.999999
0.999999
1
1
1
1
1
1
1
1
1
1
1
1
1
1
1
1
1
1
1
1
1
1
1
)
;
    }
    lowerWall
    {
        type            alphaContactAngle;
        contactAngleProperties 
        {
            mercury         
            {
                theta0          90;
            }
            water           
            {
                theta0          90;
            }
            oil             
            {
                theta0          90;
            }
        }
        value           nonuniform List<scalar> 
62
(
1.88703e-13
2.83241e-13
2.89439e-13
1.89668e-13
1.18984e-13
6.19848e-14
2.9938e-14
1.49917e-14
8.06661e-15
5.11071e-15
4.76804e-15
6.28996e-15
1.48694e-14
4.36109e-14
7.51682e-14
5.09455e-14
4.91175e-14
2.6769e-13
6.53415e-13
5.30061e-13
1.69181e-13
1.60867e-13
3.62088e-13
3.62088e-13
2.77605e-11
1.35404e-09
6.16925e-09
8.75803e-10
0.000380825
0.00169949
0.00119588
0.0148895
0.0119424
0.00619673
0.0122755
0.000329433
0.00503049
0.0167485
0.0156258
0.0181137
0.063714
0.0681784
0.0673228
0.000329433
0.000329432
0.00282419
0.0198856
0.030749
0.0565495
0.0734461
0.0735051
0.0503425
0.043399
0.0441014
0.0629717
0.10498
0.107498
0.0553439
0.0148589
0.0148586
0.014858
0.0148582
)
;
    }
    atmosphere
    {
        type            inletOutlet;
        inletValue      uniform 1;
        value           nonuniform List<scalar> 
46
(
1
1
1
1
1
1
1
1
1
1
1
1
1
1
1
1
1
1
1
1
1
1
1
1
1
1
1
1
1
1
1
1
1
1
1
1
1
1
1
1
1
1
1
1
1
1
)
;
    }
    defaultFaces
    {
        type            empty;
    }
}


// ************************************************************************* //
