/*--------------------------------*- C++ -*----------------------------------*\
  =========                 |
  \\      /  F ield         | OpenFOAM: The Open Source CFD Toolbox
   \\    /   O peration     | Website:  https://openfoam.org
    \\  /    A nd           | Version:  13
     \\/     M anipulation  |
\*---------------------------------------------------------------------------*/
FoamFile
{
    format      ascii;
    class       volScalarField;
    location    "1.95";
    object      alpha.oil;
}
// * * * * * * * * * * * * * * * * * * * * * * * * * * * * * * * * * * * * * //

dimensions      [];

internalField   nonuniform List<scalar> 
2268
(
1.39355e-14
1.09338e-13
4.64687e-13
1.46411e-12
3.87543e-12
9.25998e-12
2.03379e-11
4.13802e-11
8.01003e-11
1.56008e-10
3.09989e-10
5.89134e-10
1.13144e-09
2.26675e-09
4.55259e-09
9.21942e-09
1.67538e-08
1.98715e-08
2.00121e-08
0.000171891
0.000484325
0.000565559
0.000567272
6.32172e-15
4.08797e-14
4.39453e-13
1.78897e-12
4.71484e-12
1.169e-11
2.84951e-11
6.38599e-11
1.24317e-10
2.33612e-10
4.79036e-10
8.92211e-10
1.71073e-09
3.36151e-09
6.657e-09
1.19886e-08
2.82501e-08
4.71154e-08
4.53658e-08
1.06594e-08
1.10235e-08
7.12028e-05
0.000156207
2.72835e-15
2.45086e-14
2.45751e-13
2.1976e-12
5.84825e-12
1.43491e-11
3.07596e-11
5.93519e-11
1.27633e-10
2.4697e-10
4.87292e-10
8.93632e-10
1.63286e-09
2.8931e-09
4.80094e-09
7.14936e-09
9.25996e-09
1.04986e-08
1.00791e-08
1.03268e-08
1.09073e-08
1.10288e-08
1.33034e-08
2.20443e-15
6.85995e-15
1.13723e-13
1.82545e-12
5.4047e-12
1.25266e-11
2.91286e-11
9.41092e-11
1.881e-10
3.69213e-10
7.14484e-10
1.33431e-09
2.38377e-09
4.0689e-09
6.65728e-09
9.19295e-09
8.50602e-09
7.95551e-09
8.62517e-09
7.96391e-09
8.8041e-09
1.58959e-08
1.54919e-08
4.82506e-14
1.40386e-13
2.61738e-13
9.14672e-13
3.41207e-12
9.88411e-12
2.21801e-11
4.78896e-11
1.31982e-10
3.46864e-10
7.70799e-10
1.58133e-09
3.05935e-09
5.32863e-09
8.90241e-09
1.62627e-08
7.62549e-08
2.06778e-07
2.94305e-07
9.6133e-08
3.95399e-09
3.8906e-09
6.01856e-07
1.22545e-12
3.48038e-12
5.36265e-12
5.70333e-12
5.50204e-12
9.03475e-12
2.54802e-11
6.15746e-11
1.27786e-10
2.83132e-10
6.4845e-10
1.36472e-09
2.5481e-09
3.15978e-09
2.01068e-09
9.88249e-10
6.18385e-07
2.34437e-06
3.02329e-06
2.45529e-06
3.17169e-06
1.99728e-05
3.97959e-05
1.96125e-12
1.14498e-11
1.97937e-11
2.09964e-11
1.63388e-11
1.42293e-11
1.67893e-11
2.1414e-11
3.30664e-11
1.05301e-10
2.37455e-10
3.47273e-10
4.34513e-10
8.62157e-10
2.06119e-09
9.65076e-10
6.56503e-07
2.30363e-06
3.00461e-06
3.66877e-06
1.72134e-05
5.13671e-05
6.03296e-05
1.61165e-12
1.64733e-12
9.80032e-12
2.51549e-11
1.7214e-11
2.20595e-11
4.10324e-11
4.68659e-11
7.05115e-11
1.16114e-10
2.01136e-10
3.4648e-10
6.76978e-10
2.03026e-09
9.00052e-09
3.67381e-08
5.14206e-08
4.4381e-10
2.81945e-07
3.41227e-06
1.60221e-05
1.20707e-05
2.79841e-05
0.121472
0.121184
0.0985612
0.0415064
0.0286096
0.0281761
0.128451
0.312075
0.341014
0.340742
0.34248
0.344619
0.28661
0.0942271
0.0712033
0.116267
0.21255
0.240025
0.249675
0.416685
0.41666
0.384912
0.2597
0.0847335
0.0283029
0.0358801
0.0626815
0.0750238
0.0889515
0.133343
0.196268
0.170147
0.0644176
0.0584577
0.109961
0.207029
0.238155
0.298689
0.430762
0.353682
0.52618
0.628811
0.598338
0.288981
0.014678
5.38977e-11
5.43146e-11
5.38977e-11
5.43146e-11
0.0789479
0.208294
0.132635
0.0586524
0.111819
0.264999
0.344131
0.461169
0.0282707
0.00537717
0.0557404
0.446053
0.611016
0.582416
0.158612
0.000587157
0.000399563
1.0284e-05
0.000139897
0.114592
0.208105
0.244257
0.258016
0.245315
0.267726
0.328648
0.506448
0.00998403
0.00539453
0.00636375
0.0268352
0.57524
0.637359
0.356913
0.037115
0.00622708
2.47427e-05
0.0424014
0.201633
0.241402
0.249926
0.265559
0.266791
0.233501
0.295671
0.505598
0.0396923
0.0269502
0.00551789
0.00611052
0.408331
0.710369
0.697939
0.189963
-9.51112e-19
-1.67714e-12
0.0757895
0.249896
0.26652
0.267153
0.26709
0.266881
0.227687
0.141035
0.508946
0.0399003
0.0342335
0.0250071
0.0279352
0.456581
0.735912
0.702635
0.194759
-1.14381e-09
1.14375e-09
0.0156308
0.101951
0.230686
0.26648
0.259441
0.192861
0.0670654
0.00662932
0.508487
0.0305029
0.0307764
0.0333171
0.0454735
0.536091
0.737823
0.602727
0.0446767
-7.86315e-10
1.82031e-08
-2.50923e-10
3.45274e-06
0.0160596
0.0618955
0.0488003
0.00814408
0.000100764
0.00148667
0.395667
2.69993e-09
2.23679e-09
1.88488e-09
1.6719e-09
1.63067e-09
1.52229e-09
7.58303e-10
5.27242e-10
3.67074e-10
2.57618e-10
2.10844e-10
2.90646e-10
5.53407e-10
9.25711e-10
1.83287e-09
4.77079e-09
2.32616e-30
8.14555e-21
-3.42148e-17
5.78647e-08
2.48453e-06
2.69965e-06
2.91734e-06
5.79886e-09
5.72356e-09
5.09302e-09
4.79047e-09
5.07442e-09
5.1197e-09
4.50905e-09
2.55182e-09
1.36666e-09
8.41998e-10
3.67048e-10
3.54861e-10
6.33535e-10
7.64939e-10
8.67898e-10
6.27508e-10
1.6552e-12
2.86084e-16
-8.04738e-20
-1.48242e-12
-3.42359e-20
0.00737458
0.0670194
4.90856e-09
4.10541e-09
3.65082e-09
3.28959e-09
3.38052e-09
3.56944e-09
3.48169e-09
2.67957e-09
1.64154e-09
9.24928e-10
1.05996e-11
-9.47254e-15
-1.60679e-14
-1.41225e-19
-6.63845e-20
7.19332e-19
0.00171837
0.0197979
0.0459409
0.0969448
0.208255
0.471917
0.880921
8.19397e-10
-2.65879e-26
-1.33098e-27
1.01936e-26
7.30629e-29
1.47711e-26
4.09585e-21
1.07165e-20
-1.332e-19
6.18192e-19
0.00223901
0.0122037
0.0324883
0.0674184
0.117769
0.214705
0.40038
0.539301
0.601352
0.720749
0.811644
0.918281
0.999854
6.23011e-11
0.0821824
0.218275
0.309011
0.375087
0.378518
0.263319
0.180597
0.212534
0.31605
0.442723
0.524215
0.595978
0.66801
0.736241
0.826869
0.916553
0.952088
0.904587
0.895147
0.967975
0.997633
0.99965
0.366541
0.762227
0.939023
0.965813
0.976675
0.978097
0.920825
0.840397
0.904692
0.938335
0.938634
0.927044
0.962507
0.986848
0.989046
0.996447
0.99915
0.999537
0.999327
0.998804
0.999999
1
0.999875
0.844865
0.92521
0.975078
0.976372
0.974652
0.969015
0.957333
0.941607
0.921483
0.901269
0.882276
0.848915
0.812048
0.797972
0.797662
0.806107
0.846016
0.923078
0.999997
0.999998
0.999999
0.999999
0.999993
0.452574
0.480658
0.474133
0.452144
0.419142
0.374669
0.324474
0.27402
0.219559
0.165602
0.122196
0.0986842
0.0871832
0.0776151
0.0926112
0.119199
0.152828
0.227923
0.390314
0.667473
0.892092
0.999998
0.999999
5.67018e-07
5.37493e-07
0.00525266
0.00420651
5.71484e-14
-8.02876e-09
4.05699e-21
1.55688e-13
4.02982e-21
2.86604e-08
2.11355e-07
4.21628e-07
9.23147e-07
1.29087e-06
1.16468e-06
1.42227e-06
1.50439e-06
1.73845e-06
3.26932e-06
0.0149987
0.0891406
0.223432
0.450341
6.64044e-07
9.00002e-07
4.52302e-07
4.53186e-07
0.000504045
0.000392935
6.88722e-06
1.37647e-07
1.75795e-07
4.31678e-18
2.62225e-05
4.17936e-05
1.46847e-05
1.358e-07
7.62349e-13
5.77193e-12
8.67823e-18
5.49861e-12
3.72676e-07
1.49507e-06
3.84707e-06
4.4292e-06
5.59812e-06
1.31143e-06
8.56712e-06
2.24832e-06
0.000128403
1.03496e-07
2.63352e-08
4.11331e-08
1.67639e-07
7.94634e-06
9.9634e-05
0.000172114
0.000170532
5.47836e-05
1.04926e-08
6.37872e-09
1.93151e-09
5.38548e-09
3.28743e-09
2.52798e-08
7.69434e-09
-7.3294e-09
-4.30183e-10
2.23326e-07
1.64318e-06
8.61798e-06
1.52319e-06
5.14219e-08
3.37302e-08
5.0402e-08
1.03693e-07
2.42774e-07
8.18339e-05
0.000172408
0.000172313
0.000171303
2.39742e-05
1.52923e-08
1.85657e-08
5.00407e-09
7.43542e-08
2.79667e-07
2.58994e-07
1.9486e-07
1.36979e-07
6.69872e-08
4.73286e-08
7.93569e-07
7.13928e-07
2.66577e-07
1.0255e-07
1.19973e-07
1.26912e-07
1.37441e-07
2.78612e-07
3.418e-05
0.000169113
0.0001724
5.1884e-05
2.95319e-08
2.67201e-08
3.94964e-08
1.29817e-08
1.07414e-07
4.50325e-07
4.25322e-07
3.6014e-07
2.8879e-07
1.87016e-07
1.3063e-07
5.19247e-07
3.79408e-07
2.19074e-07
1.26257e-07
1.24321e-07
1.71203e-07
3.14847e-07
4.7075e-07
7.93816e-07
9.02963e-06
2.12636e-05
2.95325e-08
2.84138e-08
2.95106e-08
3.68457e-08
1.45554e-08
6.12436e-08
3.00611e-07
3.89225e-07
3.43858e-07
2.97295e-07
2.84935e-07
1.64345e-07
2.43856e-07
3.09423e-07
1.41898e-07
8.95386e-08
9.97045e-08
1.58873e-07
2.97011e-07
4.24729e-07
2.18772e-07
1.55197e-07
1.27939e-07
2.63228e-07
8.01075e-07
2.89415e-07
4.67958e-09
6.26333e-09
1.74828e-08
1.20969e-07
2.40994e-07
2.18923e-07
2.14189e-07
1.66669e-07
1.29029e-07
6.86121e-08
1.14862e-07
9.39247e-08
7.43683e-08
6.18e-08
4.74769e-08
2.98713e-08
2.18913e-08
2.52645e-08
3.41466e-08
1.97675e-07
8.96044e-07
1.01333e-06
7.97115e-07
4.7942e-09
4.69653e-09
7.20754e-09
1.78334e-08
8.22449e-08
9.6175e-08
1.06493e-07
9.21839e-08
7.44519e-08
5.2165e-08
9.20008e-08
8.71123e-08
6.61947e-08
4.46474e-08
2.72551e-08
1.76744e-08
1.56589e-08
1.79251e-08
6.89637e-08
3.72609e-07
9.11181e-07
1.00237e-06
4.14056e-07
4.64401e-09
4.98903e-09
9.43883e-09
1.18464e-08
2.04765e-08
2.95865e-08
3.76759e-08
3.73852e-08
3.19077e-08
4.37449e-08
8.39138e-08
8.54597e-08
6.29056e-08
3.82739e-08
2.24031e-08
1.76253e-08
1.92643e-08
3.04657e-08
6.33559e-08
1.50173e-07
3.3046e-07
3.45794e-07
4.51813e-08
7.57675e-09
9.44921e-09
1.12854e-08
1.0719e-08
1.06358e-08
1.04635e-08
1.16503e-08
1.17951e-08
1.11403e-08
3.97647e-08
8.02895e-08
8.40496e-08
6.28756e-08
3.78646e-08
2.27977e-08
1.70248e-08
1.59184e-08
1.76693e-08
2.26161e-08
2.59107e-08
9.72927e-09
6.61606e-09
8.71763e-09
1.45118e-08
1.42402e-08
1.06686e-08
9.69983e-09
8.9422e-09
7.36543e-09
5.95996e-09
4.7297e-09
4.28345e-09
3.15683e-08
6.54098e-08
7.31344e-08
5.99758e-08
3.8959e-08
2.2731e-08
1.50881e-08
1.20729e-08
1.05093e-08
9.43344e-09
7.53788e-09
4.89612e-09
6.4404e-09
1.04915e-08
1.31547e-08
1.15012e-08
8.43006e-09
7.61574e-09
7.24656e-09
6.33033e-09
4.99178e-09
3.51914e-09
2.71054e-09
2.358e-08
4.99599e-08
5.87296e-08
5.17907e-08
3.73823e-08
2.1231e-08
1.25988e-08
9.03977e-09
7.55583e-09
6.30774e-09
5.40861e-09
4.87445e-09
5.26007e-09
6.53478e-09
7.74294e-09
7.26501e-09
5.77137e-09
5.35474e-09
5.28307e-09
4.88992e-09
4.19333e-09
3.14371e-09
2.3923e-09
1.57591e-08
3.60454e-08
4.34475e-08
3.94621e-08
3.14792e-08
2.0215e-08
1.11599e-08
6.58611e-09
5.11239e-09
4.5966e-09
4.24725e-09
3.8566e-09
3.58189e-09
3.61108e-09
3.85943e-09
3.87858e-09
3.57136e-09
3.39917e-09
3.42089e-09
3.39453e-09
3.13679e-09
2.60873e-09
2.09366e-09
1.13944e-08
2.31604e-08
2.8074e-08
2.74744e-08
2.35081e-08
1.71953e-08
9.61816e-09
5.146e-09
3.45932e-09
2.80675e-09
2.61756e-09
2.54964e-09
2.39257e-09
2.19351e-09
2.07572e-09
2.02416e-09
1.94442e-09
1.95684e-09
2.00519e-09
2.07451e-09
2.01719e-09
1.84518e-09
1.58966e-09
6.03947e-09
1.39943e-08
1.65326e-08
1.59135e-08
1.46375e-08
1.27105e-08
8.02006e-09
3.99975e-09
2.30784e-09
1.59896e-09
1.36373e-09
1.36317e-09
1.39275e-09
1.34086e-09
1.22657e-09
1.12233e-09
1.06521e-09
1.05531e-09
1.08416e-09
1.13521e-09
1.14524e-09
1.09497e-09
1.00961e-09
4.00626e-09
7.81464e-09
9.07366e-09
8.42291e-09
7.22954e-09
7.17293e-09
5.50855e-09
2.98397e-09
1.67302e-09
1.00036e-09
7.15417e-10
6.52772e-10
6.91724e-10
7.0819e-10
6.77154e-10
6.24693e-10
5.72999e-10
5.47189e-10
5.52663e-10
5.71367e-10
5.69323e-10
5.63014e-10
5.35327e-10
1.94729e-09
3.98979e-09
4.50261e-09
4.02693e-09
3.15719e-09
3.28223e-09
2.87837e-09
1.81339e-09
1.07924e-09
6.28842e-10
3.8906e-10
3.08822e-10
3.0319e-10
3.23901e-10
3.28064e-10
3.10697e-10
2.91418e-10
2.74111e-10
2.67968e-10
2.58708e-10
2.57209e-10
2.56565e-10
2.41311e-10
1.10135e-09
1.86942e-09
2.00268e-09
1.73146e-09
1.24675e-09
1.26532e-09
1.23513e-09
8.82557e-10
5.74094e-10
3.51739e-10
2.10497e-10
1.42571e-10
1.22998e-10
1.27734e-10
1.38233e-10
1.3978e-10
1.34498e-10
1.26599e-10
1.21945e-10
1.15994e-10
1.12283e-10
1.04088e-10
1.00713e-10
4.29665e-10
7.33378e-10
7.89096e-10
6.61651e-10
4.52402e-10
4.29336e-10
4.41131e-10
3.48598e-10
2.44176e-10
1.59466e-10
1.00685e-10
6.5455e-11
4.96615e-11
4.68508e-11
5.14382e-11
5.50705e-11
5.51057e-11
5.26809e-11
5.03087e-11
4.77295e-11
4.29103e-11
4.11541e-11
3.75309e-11
1.87869e-10
2.73597e-10
2.71245e-10
2.21383e-10
1.46984e-10
1.29753e-10
1.3419e-10
1.14246e-10
8.46523e-11
5.83789e-11
3.88994e-11
2.56865e-11
1.87267e-11
1.64156e-11
1.71008e-11
1.8863e-11
1.98978e-11
1.92369e-11
1.85275e-11
1.7424e-11
1.5747e-11
1.3428e-11
1.27284e-11
5.60036e-11
7.99837e-11
7.97744e-11
6.35122e-11
4.13426e-11
3.42957e-11
3.49862e-11
3.15712e-11
2.43692e-11
1.74098e-11
1.20976e-11
8.31764e-12
6.04407e-12
5.16093e-12
5.19199e-12
5.70182e-12
6.16524e-12
6.22417e-12
6.06041e-12
5.7652e-12
4.84269e-12
4.29446e-12
3.71813e-12
1.65856e-11
2.13366e-11
1.99283e-11
1.52705e-11
9.77045e-12
7.72193e-12
7.75698e-12
7.39754e-12
5.88679e-12
4.33274e-12
3.09216e-12
2.20668e-12
1.65085e-12
1.39762e-12
1.4123e-12
1.56509e-12
1.71931e-12
1.77139e-12
1.73725e-12
1.65535e-12
1.47013e-12
1.11496e-12
9.37981e-13
3.13869e-12
4.18441e-12
3.74181e-12
3.00645e-12
1.8951e-12
1.44809e-12
1.44795e-12
1.46585e-12
1.20395e-12
9.07629e-13
6.64142e-13
4.86461e-13
3.74779e-13
3.30468e-13
3.35379e-13
3.76159e-13
4.13716e-13
4.33662e-13
4.19149e-13
4.01996e-13
3.3609e-13
2.62773e-13
1.97522e-13
6.13589e-13
6.91044e-13
6.27154e-13
4.78114e-13
2.95778e-13
2.22464e-13
2.25483e-13
2.43186e-13
2.07091e-13
1.59686e-13
1.19172e-13
8.99716e-14
7.2729e-14
6.58889e-14
6.91033e-14
7.76197e-14
8.66544e-14
9.23869e-14
9.04047e-14
8.36972e-14
7.02597e-14
4.88766e-14
3.60578e-14
6.18897e-14
8.07523e-14
7.80141e-14
5.68773e-14
3.49214e-14
2.62707e-14
2.76015e-14
3.20294e-14
2.84607e-14
2.26246e-14
1.74099e-14
1.33327e-14
1.15118e-14
1.11111e-14
1.23303e-14
1.51293e-14
1.66866e-14
1.68419e-14
1.61662e-14
1.50825e-14
1.16918e-14
8.35021e-15
5.43267e-15
6.47155e-15
7.77989e-15
6.85415e-15
5.25076e-15
3.29038e-15
2.55361e-15
2.87413e-15
3.48439e-15
3.26152e-15
2.69222e-15
2.14424e-15
1.73389e-15
1.6504e-15
1.83105e-15
2.13786e-15
2.43334e-15
2.84453e-15
2.88753e-15
2.69828e-15
2.36999e-15
1.77307e-15
1.16439e-15
7.3111e-16
2.78497e-16
4.01072e-16
4.7296e-16
3.54312e-16
2.24943e-16
1.84964e-16
2.28056e-16
3.02897e-16
3.07602e-16
2.72162e-16
2.3359e-16
2.23821e-16
2.36792e-16
2.80746e-16
3.40383e-16
3.93856e-16
4.44226e-16
4.40372e-16
3.83042e-16
3.15955e-16
2.21917e-16
1.41436e-16
1.06786e-16
1.69745e-17
2.53524e-17
2.45146e-17
1.80138e-17
1.21965e-17
1.11915e-17
1.58498e-17
2.40926e-17
2.73659e-17
2.70008e-17
2.52149e-17
2.70058e-17
3.12966e-17
3.90076e-17
4.88048e-17
5.75624e-17
6.21741e-17
5.95791e-17
4.91408e-17
3.64983e-17
2.42777e-17
1.73412e-17
2.62731e-17
5.87316e-19
8.82629e-19
8.76491e-19
7.16092e-19
5.75981e-19
6.20867e-19
1.0401e-18
1.74443e-18
2.24551e-18
2.53266e-18
2.60646e-18
3.04089e-18
3.83398e-18
5.05403e-18
6.47182e-18
7.68184e-18
7.98235e-18
7.11566e-18
5.54715e-18
3.93519e-18
2.96144e-18
3.72611e-18
1.16651e-17
1.06168e-20
1.85989e-20
2.18808e-20
1.96561e-20
1.99697e-20
2.62778e-20
6.11856e-20
1.10798e-19
1.66348e-19
2.18366e-19
2.52693e-19
3.23517e-19
4.42156e-19
6.12275e-19
7.94169e-19
8.71133e-19
8.75766e-19
7.48823e-19
5.99187e-19
4.8393e-19
5.69028e-19
1.30932e-18
6.9044e-18
6.87105e-23
2.29954e-22
4.02431e-22
4.70136e-22
6.31269e-22
1.08789e-21
3.19398e-21
6.31715e-21
1.14399e-20
1.75963e-20
2.29777e-20
3.24717e-20
4.79721e-20
6.93944e-20
9.10175e-20
1.03084e-19
1.01951e-19
8.58771e-20
7.61769e-20
9.11499e-20
1.85136e-19
7.81246e-19
4.92974e-18
1.94154e-25
1.22363e-24
5.43955e-24
1.11232e-23
1.97124e-23
4.48379e-23
1.50998e-22
3.33467e-22
7.45465e-22
1.33989e-21
1.96638e-21
3.0971e-21
4.9676e-21
7.55527e-21
1.01564e-20
1.18747e-20
1.22521e-20
1.18224e-20
1.36721e-20
2.55066e-20
9.35885e-20
4.80824e-19
3.27178e-18
8.37301e-29
1.6567e-27
5.00485e-26
2.06032e-25
5.10215e-25
1.58391e-24
6.33851e-24
1.65829e-23
4.65619e-23
9.73812e-23
1.61895e-22
2.88372e-22
5.0883e-22
8.27421e-22
1.17794e-21
1.47254e-21
1.69943e-21
2.00109e-21
3.00212e-21
8.34842e-21
3.90837e-20
2.17642e-19
1.58941e-18
4.01061e-05
0.035444
0.125094
0.148329
0.265866
0.682438
0.871973
0.803154
0.991796
0.993534
0.882
0.814186
0.996665
0.958127
0.934489
0.976367
0.992128
0.992274
0.999307
0.999989
0.999505
1
1
1
1
1
1
1
0.999999
1
0.999999
0.999999
0.645396
0.687461
0.673146
0.67006
0.00784555
0.0164478
0.0205292
0.0287388
1.92795e-06
4.28668e-06
3.59852e-06
3.1095e-06
3.94187e-08
4.18535e-08
4.26227e-08
4.41286e-08
1.02686e-07
8.45918e-08
8.01194e-08
7.81823e-08
1.38333e-07
1.12739e-07
9.48119e-08
8.68815e-08
1.0075e-07
8.91262e-08
8.01151e-08
7.27375e-08
6.24099e-08
7.32456e-08
4.13873e-08
4.08435e-08
3.0458e-08
1.63839e-08
1.70339e-08
1.87571e-08
1.11689e-08
8.18226e-09
4.80666e-09
7.51055e-09
4.21316e-09
2.58066e-09
2.45447e-09
2.98969e-09
2.45681e-09
1.9872e-09
1.48258e-09
1.64925e-09
2.08124e-09
1.6093e-09
1.38413e-09
1.28342e-09
1.78157e-09
1.51448e-09
1.21349e-09
1.11925e-09
1.40345e-09
1.18053e-09
1.05991e-09
9.44041e-10
9.20507e-10
8.42754e-10
7.2732e-10
6.83306e-10
4.99634e-10
4.39858e-10
4.26946e-10
4.02885e-10
2.26296e-10
2.08326e-10
1.93349e-10
1.86964e-10
9.24191e-11
7.57073e-11
7.6278e-11
7.35171e-11
3.34939e-11
2.81035e-11
2.56465e-11
2.44507e-11
1.12404e-11
8.38078e-12
7.93692e-12
7.17728e-12
3.21688e-12
2.60775e-12
2.18831e-12
1.86285e-12
8.02722e-13
5.98617e-13
5.11354e-13
4.14897e-13
1.67036e-13
1.31433e-13
1.01177e-13
7.84473e-14
2.96138e-14
2.14913e-14
1.66813e-14
1.25442e-14
4.27681e-15
3.23537e-15
2.46097e-15
2.01301e-15
5.87042e-16
4.84743e-16
4.61529e-16
5.19848e-16
1.04564e-16
1.16362e-16
1.55408e-16
2.44966e-16
3.50799e-17
5.03853e-17
8.76476e-17
1.79187e-16
1.80254e-17
3.05623e-17
6.82491e-17
1.85329e-16
1.1833e-17
2.50462e-17
7.2912e-17
2.30216e-16
9.47105e-18
2.57278e-17
8.9316e-17
2.83605e-16
7.27107e-18
2.57855e-17
9.3845e-17
2.94215e-16
5.56558e-18
1.9502e-17
6.39328e-17
1.78575e-16
0.251239
0.112641
0.0288331
0.0301842
0.424344
0.740365
0.434006
0
3.99018e-13
1.04989e-06
7.09701e-13
-3.89953e-18
1.52159e-17
9.62378e-20
3.70798e-05
4.51516e-05
7.90926e-05
7.99786e-05
0.00439719
0.760529
0.316536
0.0332727
0.241647
0.772578
0.897588
0.352497
2.74176e-13
-6.67349e-13
2.78376e-05
0.0112016
0.0309314
0.0460814
0.0644394
0.028928
4.23695e-05
0.029559
0.10391
0.0446883
0.787438
0.674137
0.646808
0.901798
0.999793
0.945746
0.568566
0.187284
0.196925
0.411958
0.620324
0.715057
0.765011
0.817073
0.81735
0.737998
0.760633
0.832865
0.711853
0.970953
0.973514
0.984444
0.999948
0.999942
0.978317
0.853602
0.836153
0.923495
0.995568
0.999918
0.999983
0.999984
0.999858
0.999665
0.999538
0.999413
0.990335
0.937533
0.999995
0.999997
0.999961
0.999947
0.999575
0.994193
0.997129
0.999967
0.999953
0.999996
0.999973
0.999972
0.999997
0.999938
0.999664
0.999613
0.999606
0.997999
0.995195
1
0.999998
0.999961
0.999947
0.999966
0.999999
0.999999
0.999999
0.999999
0.999995
0.999975
0.99998
1
1
1
0.999998
0.999421
0.994955
0.991062
1
1
0.999996
0.999991
0.999994
1
1
0.999999
0.999999
0.999999
1
1
1
1
1
1
0.995495
0.974851
0.973588
0.999999
0.999998
0.999998
0.999998
0.999998
1
1
1
1
1
1
1
1
0.999999
0.999999
0.999999
0.999403
0.983812
0.974425
0.775965
0.897112
0.922553
0.869232
0.830236
0.865804
0.899815
0.910825
0.937685
0.960902
0.974741
0.981449
0.984402
0.986252
0.984236
0.954913
0.909948
0.880976
0.867773
0.0481375
0.0540019
0.0243799
0.0162091
0.0978374
0.156591
0.164115
0.174161
0.22173
0.271206
0.307986
0.329761
0.343881
0.353847
0.335581
0.228763
0.148865
0.112182
0.0915268
2.70196e-06
1.13002e-06
8.01628e-08
1.45591e-07
2.71676e-07
1.90666e-08
-9.13908e-12
1.69763e-23
5.58702e-23
-1.85557e-08
3.95738e-19
1.93754e-16
2.48277e-22
6.91692e-14
6.8695e-09
3.98492e-09
4.95985e-15
5.62599e-14
9.35231e-09
4.36472e-08
6.06174e-08
8.22194e-08
1.30627e-07
2.07646e-07
2.15022e-07
1.34194e-06
4.96111e-06
7.22222e-08
5.84604e-22
2.61474e-06
1.40095e-05
0.000115966
0.00011777
0.000205248
0.000135308
1.66615e-05
2.03634e-06
1.70357e-06
8.40859e-08
7.97414e-08
9.72627e-08
1.81531e-07
2.5787e-07
3.10479e-07
8.37867e-07
9.36946e-05
0.000567001
0.000553758
6.59635e-05
1.16552e-05
0.000547399
0.00146903
0.00134361
0.000467967
1.41611e-05
2.35308e-06
1.15977e-06
8.10406e-08
7.65221e-08
8.79875e-08
1.71936e-07
2.90945e-07
2.61035e-07
1.37809e-07
0.000125006
0.00100441
0.00100626
0.000541514
7.18308e-06
0.000348942
0.00156371
0.0014827
0.000484993
2.28534e-05
7.62491e-07
3.83731e-07
6.47229e-08
6.27554e-08
6.96602e-08
1.60598e-07
2.77982e-07
2.30853e-07
1.32597e-07
3.37048e-05
0.000677528
0.000999613
0.000600531
7.45671e-06
4.81794e-07
6.02526e-08
6.12417e-08
6.02441e-08
5.97462e-06
3.10899e-07
4.35456e-07
4.54039e-08
4.62273e-08
5.60068e-08
1.24183e-07
2.39428e-07
2.5375e-07
2.83832e-07
7.80961e-08
7.46502e-08
6.36284e-05
1.28997e-05
1.52835e-06
5.38383e-07
6.12416e-08
6.84781e-08
6.01769e-08
6.02451e-08
1.78206e-07
5.90352e-07
2.51621e-08
2.956e-08
4.21044e-08
7.83528e-08
8.49212e-08
1.10621e-07
1.09342e-06
1.36365e-06
3.3299e-07
6.2803e-08
6.37002e-08
9.32958e-07
1.61045e-06
1.03027e-06
2.04119e-07
6.44361e-08
6.58821e-08
2.67457e-07
7.90423e-07
1.17997e-08
1.74885e-08
2.59785e-08
4.3313e-08
3.84468e-08
3.77229e-08
7.69757e-07
1.2079e-06
8.25398e-07
1.15819e-07
6.7392e-08
9.54939e-07
1.41042e-06
1.27976e-06
3.35516e-07
6.20571e-08
1.05199e-07
4.15913e-07
7.71259e-07
5.10923e-09
8.10998e-09
1.41053e-08
2.26325e-08
2.94023e-08
3.54256e-08
6.60665e-08
1.27283e-07
9.57941e-08
6.6858e-08
6.68165e-08
5.16213e-08
4.82163e-07
2.42359e-07
6.89426e-08
6.33751e-08
1.20131e-07
2.63422e-07
6.60117e-07
2.37025e-09
3.64384e-09
6.80247e-09
1.20868e-08
1.82813e-08
2.58649e-08
2.88385e-08
2.86799e-08
3.29191e-08
5.57723e-08
7.48833e-08
2.34702e-08
1.33915e-08
1.33282e-08
2.34456e-08
4.44385e-08
7.3157e-08
1.39568e-07
1.19558e-07
1.40713e-09
1.81116e-09
2.97478e-09
5.2965e-09
8.48296e-09
1.26853e-08
1.67353e-08
2.11169e-08
2.733e-08
3.23279e-08
3.50945e-08
2.51586e-08
1.49942e-08
1.41996e-08
2.26747e-08
3.69517e-08
4.7742e-08
1.75995e-08
2.0562e-08
1.04007e-09
1.06319e-09
1.36091e-09
2.08864e-09
3.14947e-09
4.64752e-09
6.61364e-09
9.34908e-09
1.10609e-08
1.27868e-08
1.1746e-08
1.08052e-08
1.09246e-08
1.25824e-08
1.67572e-08
2.04935e-08
1.53333e-08
1.76383e-08
1.38313e-08
8.28357e-10
7.23131e-10
7.13079e-10
8.48007e-10
1.21894e-09
1.75808e-09
2.44879e-09
3.21554e-09
4.03725e-09
4.21042e-09
4.25822e-09
4.92357e-09
5.59064e-09
7.23007e-09
8.82489e-09
1.36276e-08
1.52965e-08
1.38904e-08
1.39333e-08
6.06831e-10
5.07327e-10
4.18314e-10
3.93081e-10
4.48577e-10
5.70819e-10
7.86506e-10
1.05099e-09
1.33804e-09
1.63502e-09
1.99013e-09
2.43624e-09
3.24742e-09
4.46158e-09
6.71622e-09
9.63348e-09
1.20517e-08
1.64642e-08
1.44479e-08
3.66039e-10
3.08348e-10
2.50851e-10
2.10563e-10
2.06201e-10
2.37198e-10
3.09846e-10
4.37377e-10
6.22534e-10
8.66845e-10
1.20119e-09
1.70847e-09
2.48552e-09
3.75877e-09
5.81282e-09
9.5916e-09
1.98759e-08
1.96004e-08
2.59642e-08
1.75285e-10
1.50771e-10
1.24236e-10
1.04888e-10
1.01702e-10
1.15879e-10
1.55688e-10
2.31463e-10
3.59764e-10
5.60392e-10
8.64917e-10
1.32554e-09
2.07963e-09
3.3823e-09
5.62872e-09
1.11978e-08
2.14913e-08
5.29855e-08
2.86395e-08
6.83371e-11
5.88618e-11
4.90755e-11
4.36874e-11
4.58006e-11
5.92202e-11
9.01195e-11
1.48025e-10
2.50496e-10
4.21843e-10
6.98846e-10
1.14204e-09
1.8699e-09
3.15069e-09
5.59687e-09
1.19011e-08
3.41475e-08
6.36124e-08
5.38811e-08
2.22841e-11
1.87008e-11
1.57792e-11
1.55172e-11
1.97859e-11
3.18242e-11
5.69553e-11
1.04979e-10
1.91565e-10
3.45576e-10
6.06406e-10
1.03878e-09
1.75568e-09
2.96295e-09
5.70449e-09
1.44436e-08
3.54176e-08
1.03334e-07
5.42451e-08
6.1822e-12
5.01835e-12
4.42691e-12
5.37137e-12
9.63857e-12
1.94337e-11
3.98032e-11
8.00875e-11
1.56919e-10
3.00739e-10
5.54997e-10
9.93027e-10
1.70624e-09
2.88962e-09
5.54007e-09
1.51108e-08
5.1239e-08
1.00437e-07
6.31615e-08
1.44495e-12
1.19369e-12
1.36599e-12
2.48278e-12
5.61264e-12
1.3558e-11
3.02707e-11
6.49402e-11
1.36046e-10
2.74105e-10
5.32846e-10
9.91532e-10
1.73772e-09
2.9298e-09
5.73941e-09
1.76199e-08
5.30206e-08
1.04755e-07
5.92999e-08
2.96185e-13
2.90676e-13
5.90835e-13
1.55555e-12
3.99962e-12
1.02438e-11
2.45619e-11
5.59664e-11
1.22613e-10
2.5848e-10
5.33178e-10
1.03008e-09
1.83602e-09
3.0591e-09
5.34742e-09
1.96612e-08
7.23691e-08
1.0434e-07
5.66208e-08
5.58145e-14
9.52969e-14
3.40873e-13
1.10607e-12
3.20405e-12
8.35947e-12
2.06161e-11
4.9465e-11
1.14636e-10
2.55033e-10
5.44247e-10
1.09066e-09
1.99437e-09
3.23905e-09
6.30774e-09
2.10168e-08
7.34276e-08
1.04275e-07
4.33275e-08
1.25487e-14
4.96645e-14
2.25867e-13
8.3456e-13
2.57722e-12
7.03663e-12
1.81118e-11
4.53047e-11
1.11056e-10
2.56376e-10
5.69774e-10
1.17062e-09
2.19329e-09
3.7554e-09
6.87657e-09
2.02425e-08
7.2026e-08
9.14413e-08
3.55249e-08
6.30576e-15
3.869e-14
1.89586e-13
6.88843e-13
2.10405e-12
6.16361e-12
1.65474e-11
4.32338e-11
1.09486e-10
2.63194e-10
5.97583e-10
1.23479e-09
2.36987e-09
4.14586e-09
7.37287e-09
2.01472e-08
4.39876e-08
5.34643e-08
1.69356e-08
5.35263e-15
3.59796e-14
1.67255e-13
6.03276e-13
1.90704e-12
5.59514e-12
1.60137e-11
4.27904e-11
1.09528e-10
2.68564e-10
6.13234e-10
1.28059e-09
2.47254e-09
4.30151e-09
7.38789e-09
1.62369e-08
2.41681e-08
1.51852e-08
1.07128e-08
4.86099e-15
3.20342e-14
1.41854e-13
5.25404e-13
1.73626e-12
5.26621e-12
1.52032e-11
4.12636e-11
1.06353e-10
2.6297e-10
6.07752e-10
1.25449e-09
2.40565e-09
4.16312e-09
6.6678e-09
1.22749e-08
1.16767e-08
9.69127e-09
4.29216e-09
4.46612e-15
2.83147e-14
1.23238e-13
4.64032e-13
1.54555e-12
4.81261e-12
1.38616e-11
3.75727e-11
9.81253e-11
2.42343e-10
5.54195e-10
1.14195e-09
2.19091e-09
3.62745e-09
5.3452e-09
8.33081e-09
6.03426e-09
3.54419e-09
2.55286e-09
4.34989e-15
2.45369e-14
1.05161e-13
3.89587e-13
1.30693e-12
4.00735e-12
1.1746e-11
3.16647e-11
8.18979e-11
2.02022e-10
4.61634e-10
9.44527e-10
1.77371e-09
2.88421e-09
3.8786e-09
4.94618e-09
3.28721e-09
1.7614e-09
1.12212e-09
3.83997e-15
1.97039e-14
8.15e-14
2.92769e-13
9.71832e-13
2.97732e-12
8.55894e-12
2.32098e-11
6.00655e-11
1.48458e-10
3.38241e-10
6.8858e-10
1.27958e-09
2.07065e-09
2.59741e-09
2.87722e-09
1.67066e-09
7.18602e-10
5.09911e-10
3.07507e-15
1.36083e-14
5.18126e-14
1.78084e-13
5.70159e-13
1.72422e-12
5.04513e-12
1.39399e-11
3.63363e-11
9.02687e-11
2.08266e-10
4.2875e-10
7.75065e-10
1.24504e-09
1.56928e-09
1.58126e-09
8.08195e-10
3.12493e-10
2.81932e-10
1.81315e-15
7.01175e-15
2.45215e-14
8.00227e-14
2.53823e-13
7.83191e-13
2.32628e-12
6.65461e-12
1.79531e-11
4.65599e-11
1.11079e-10
2.34613e-10
4.31616e-10
7.02823e-10
8.86961e-10
8.27688e-10
3.59314e-10
1.64449e-10
1.49655e-10
5.89074e-16
1.94691e-15
6.2252e-15
1.89409e-14
6.52927e-14
2.25185e-13
7.27738e-13
2.22098e-12
6.4325e-12
1.73902e-11
4.29321e-11
9.46094e-11
1.7747e-10
2.98913e-10
3.9252e-10
3.51454e-10
1.62905e-10
7.5522e-11
5.45278e-11
)
;

boundaryField
{
    leftWall
    {
        type            alphaContactAngle;
        contactAngleProperties 
        {
            mercury         
            {
                theta0          90;
            }
            air             
            {
                theta0          90;
            }
            water           
            {
                theta0          90;
            }
        }
        value           nonuniform List<scalar> 
50
(
1.39355e-14
6.32172e-15
2.72835e-15
2.20443e-15
4.82506e-14
1.22545e-12
1.96125e-12
1.61165e-12
2.69993e-09
5.79886e-09
4.90856e-09
8.19397e-10
6.23011e-11
0.366541
0.844865
0.452574
5.67018e-07
6.64044e-07
1.31143e-06
1.64318e-06
7.93569e-07
5.19247e-07
2.43856e-07
6.86121e-08
5.2165e-08
4.37449e-08
3.97647e-08
3.15683e-08
2.358e-08
1.57591e-08
1.13944e-08
6.03947e-09
4.00626e-09
1.94729e-09
1.10135e-09
4.29665e-10
1.87869e-10
5.60036e-11
1.65856e-11
3.13869e-12
6.13589e-13
6.18897e-14
6.47155e-15
2.78497e-16
1.69745e-17
5.87316e-19
1.06168e-20
6.87105e-23
1.94154e-25
8.37301e-29
)
;
    }
    rightWall
    {
        type            alphaContactAngle;
        contactAngleProperties 
        {
            mercury         
            {
                theta0          90;
            }
            air             
            {
                theta0          90;
            }
            water           
            {
                theta0          90;
            }
        }
        value           nonuniform List<scalar> 
50
(
0.249675
0.298689
0.461169
0.506448
0.505598
0.508946
0.508487
0.395667
0.00439719
0.0446883
0.711853
0.937533
0.995195
0.991062
0.973588
0.974425
0.867773
0.0915268
9.35231e-09
1.70357e-06
1.15977e-06
3.83731e-07
4.35456e-07
5.90352e-07
7.90423e-07
7.71259e-07
6.60117e-07
1.19558e-07
2.0562e-08
1.38313e-08
1.39333e-08
1.44479e-08
2.59642e-08
2.86395e-08
5.38811e-08
5.42451e-08
6.31615e-08
5.92999e-08
5.66208e-08
4.33275e-08
3.55249e-08
1.69356e-08
1.07128e-08
4.29216e-09
2.55286e-09
1.12212e-09
5.09911e-10
2.81932e-10
1.49655e-10
5.45278e-11
)
;
    }
    lowerWall
    {
        type            alphaContactAngle;
        contactAngleProperties 
        {
            mercury         
            {
                theta0          90;
            }
            air             
            {
                theta0          90;
            }
            water           
            {
                theta0          90;
            }
        }
        value           nonuniform List<scalar> 
62
(
1.39355e-14
1.09338e-13
4.64687e-13
1.46411e-12
3.87543e-12
9.25998e-12
2.03379e-11
4.13802e-11
8.01003e-11
1.56008e-10
3.09989e-10
5.89134e-10
1.13144e-09
2.26675e-09
4.55259e-09
9.21942e-09
1.67538e-08
1.98715e-08
2.00121e-08
0.000171891
0.000484325
0.000565559
0.000567272
0.000567272
0.000156207
1.33034e-08
1.54919e-08
6.01856e-07
3.97959e-05
6.03296e-05
2.79841e-05
4.01061e-05
0.035444
0.125094
0.148329
0.121472
0.416685
0.430762
0.0282707
0.00998403
0.0396923
0.0399003
0.0305029
0.121472
0.121184
0.0985612
0.0415064
0.0286096
0.0281761
0.128451
0.312075
0.341014
0.340742
0.34248
0.344619
0.28661
0.0942271
0.0712033
0.116267
0.21255
0.240025
0.249675
)
;
    }
    atmosphere
    {
        type            inletOutlet;
        inletValue      uniform 0;
        value           nonuniform List<scalar> 
46
(
0
0
5.00486e-26
2.06032e-25
5.10215e-25
1.58391e-24
6.33851e-24
1.65829e-23
4.65619e-23
9.73812e-23
1.61895e-22
2.88372e-22
5.08831e-22
8.27421e-22
1.17794e-21
1.47254e-21
1.69943e-21
2.00109e-21
3.00212e-21
8.34842e-21
3.90837e-20
2.17642e-19
1.58941e-18
5.56559e-18
1.9502e-17
0
0
0
0
0
0
0
0
0
0
0
0
0
0
0
0
0
0
0
0
0
)
;
    }
    defaultFaces
    {
        type            empty;
    }
}

