/*--------------------------------*- C++ -*----------------------------------*\
  =========                 |
  \\      /  F ield         | OpenFOAM: The Open Source CFD Toolbox
   \\    /   O peration     | Website:  https://openfoam.org
    \\  /    A nd           | Version:  13
     \\/     M anipulation  |
\*---------------------------------------------------------------------------*/
FoamFile
{
    format      ascii;
    class       volScalarField;
    location    "1.95";
    object      alpha.water;
}
// * * * * * * * * * * * * * * * * * * * * * * * * * * * * * * * * * * * * * //

dimensions      [];

internalField   nonuniform List<scalar> 
2268
(
4.93705e-11
8.86666e-11
1.05657e-10
1.08389e-10
1.13651e-10
1.20452e-10
1.27137e-10
1.33427e-10
1.40644e-10
1.53147e-10
1.71922e-10
1.97005e-10
2.3335e-10
2.88019e-10
3.60967e-10
4.64183e-10
6.06193e-10
8.77676e-10
1.40949e-09
2.25527e-09
2.70478e-09
2.77887e-09
2.77887e-09
1.31259e-10
2.65221e-10
2.42953e-10
2.46679e-10
2.70588e-10
3.11069e-10
3.61259e-10
4.07387e-10
4.46114e-10
4.83536e-10
5.20046e-10
5.44212e-10
5.65376e-10
5.86049e-10
6.27615e-10
7.01328e-10
8.55224e-10
1.09116e-09
1.49206e-09
1.97905e-09
2.50447e-09
2.64079e-09
2.34895e-09
3.17325e-10
4.51297e-10
3.38406e-10
3.18594e-10
3.56201e-10
4.30035e-10
5.3049e-10
6.50572e-10
7.97985e-10
9.29123e-10
1.05237e-09
1.12152e-09
1.13867e-09
9.83348e-10
8.80205e-10
8.59114e-10
8.95888e-10
1.06621e-09
1.18215e-09
1.45908e-09
1.59604e-09
1.54866e-09
1.08388e-09
3.3131e-10
3.86554e-10
2.85918e-10
2.79433e-10
2.99125e-10
3.5821e-10
4.44892e-10
6.06114e-10
7.99241e-10
1.25434e-09
1.84021e-09
2.10686e-09
2.06442e-09
1.11705e-09
8.844e-10
6.45688e-10
5.15623e-10
6.67144e-10
3.71481e-10
3.16204e-10
2.87053e-10
3.07985e-10
1.27972e-09
2.70338e-10
2.55849e-10
2.5564e-10
2.54641e-10
2.55644e-10
2.5571e-10
2.76188e-10
4.34611e-10
1.5892e-09
3.4695e-10
-1.73366e-11
-1.98873e-11
-2.24905e-11
-1.31388e-11
-1.08683e-11
-1.28677e-14
-4.29602e-17
-8.02374e-19
2.7656e-19
6.93698e-19
1.10961e-18
-8.06306e-20
-2.12264e-15
2.57659e-10
2.56648e-10
2.60929e-10
2.68904e-10
2.78661e-10
2.98622e-10
6.86278e-10
4.16815e-10
0.000143723
0.00334647
0.0121993
0.0272986
0.0492181
0.0780976
0.113645
0.155117
0.200674
0.246106
0.286038
0.317349
0.338747
0.354132
0.368025
1.31385e-08
2.70426e-07
0.00153829
0.049073
0.110349
0.182892
0.262587
0.344512
0.425718
0.519306
0.604811
0.681094
0.748921
0.80858
0.859756
0.902621
0.93718
0.963231
0.98144
0.99312
0.9993
0.998653
0.99824
0.300877
0.492708
0.655008
0.757044
0.840087
0.902187
0.945864
0.977145
0.999571
1
1
1
1
1
1
0.999999
0.999995
0.999978
0.999926
0.999849
0.999741
0.99959
0.998771
0.0105729
0.0105729
0.0210659
0.0610519
0.0630926
0.0395771
0.0278669
0.00552628
0.000853403
0.000854281
0.00083611
0.000747566
0.015902
0.118762
0.122443
0.117861
0.0215914
0.0139689
0.0182818
0.0721129
0.0794067
0.0442966
0.0487599
0.134795
0.188668
0.133379
0.0979806
0.0683173
0.0236744
0.0018641
0.000736866
0.00796821
0.065677
0.115661
0.113646
0.0265745
0.00832337
0.0172559
0.448253
0.519944
0.351012
0.193809
0.169974
0.384896
0.560705
0.478978
0.334416
0.146207
0.0175198
0.00466625
0.00102016
0.00430047
0.0200882
0.0230381
0.0133993
0.00640184
0.00713356
0.776046
0.799272
0.809133
0.424385
0.243899
0.282825
0.762762
0.962071
0.958733
0.730497
0.224102
0.0349593
0.00101905
0.00101914
0.00102924
0.0011418
0.001084
0.00105414
0.00386943
0.843335
0.816134
0.810885
0.790261
0.2752
0.258686
0.591448
0.95661
0.988584
0.94594
0.477852
0.14278
0.0033329
0.00103234
0.00637292
0.0487664
0.0654372
0.0357997
0.0299128
0.883373
0.88364
0.841957
0.851504
0.442632
0.192586
0.187757
0.720473
0.987394
0.994892
0.764769
0.284861
0.144211
0.0854284
0.19874
0.555532
0.535057
0.59151
0.343015
0.882722
0.883185
0.883711
0.88371
0.449967
0.13469
0.126477
0.686326
0.984367
0.998223
0.984363
0.876558
0.604986
0.480271
0.597261
0.802632
0.932935
0.993371
0.491513
0.877012
0.883702
0.88371
0.881886
0.362115
0.021183
0.165957
0.893361
0.99862
0.999862
0.999866
0.999868
0.983894
0.9381
0.951195
0.991854
0.999895
0.998511
0.604333
0.983423
0.998363
1
1
1
1
1
1
1
1
1
1
1
1
1
1
0.999999
0.999997
0.999997
0.999996
0.999994
0.999992
0.995486
1
1
1
1
1
1
1
1
1
1
1
1
1
1
1
1
1
1
0.998622
0.985212
0.964697
0.934974
0.857927
1
1
1
1
1
1
1
1
1
1
1
1
1
0.998843
0.990671
0.979834
0.967107
0.928167
0.858717
0.758697
0.623266
0.361237
0.0690386
1
1
0.99408
0.996187
0.998653
0.999696
0.99987
0.997703
0.989383
0.979382
0.964428
0.9386
0.89689
0.826181
0.72409
0.629217
0.473313
0.32377
0.230171
0.11077
0.0198782
0.00178314
1.69268e-07
0.848879
0.837671
0.768383
0.689552
0.623636
0.621198
0.670784
0.6429
0.610325
0.508394
0.380465
0.280704
0.201844
0.129849
0.0615608
0.00219255
0.00112463
-1.66276e-20
-4.16975e-19
2.42219e-19
4.06509e-20
4.43817e-21
-2.42978e-16
0.433536
0.155662
0.0520545
0.0313319
0.0217335
0.0177577
0.0186367
0.0169584
0.000481828
1.17029e-06
1.99675e-11
-1.28376e-20
-1.30095e-22
-2.5235e-22
7.81105e-21
3.77907e-21
-4.35322e-21
6.34645e-12
9.95869e-14
-1.75235e-21
5.68816e-12
5.65131e-18
3.73151e-11
0.00912366
0.00472036
0.00112937
8.8318e-09
8.74259e-22
1.75256e-24
-2.65416e-25
6.38872e-26
-4.45782e-25
9.77982e-25
1.1349e-08
4.29523e-09
1.61735e-26
-1.96343e-24
1.73316e-38
2.85644e-09
-5.95225e-20
1.18856e-08
4.53776e-08
2.09276e-08
2.43695e-08
4.59916e-08
9.09578e-08
0
0.000414379
0.000441945
4.50491e-05
4.74253e-07
4.93919e-07
1.06709e-07
8.60353e-08
4.21194e-07
4.39974e-07
4.41554e-07
8.89407e-08
3.1167e-08
6.88644e-07
2.56085e-07
3.46988e-08
2.64032e-09
3.35227e-08
6.63816e-08
5.9021e-08
1.61207e-08
1.51944e-07
2.48792e-07
-2.17097e-08
-1.71889e-09
-7.73029e-26
1.16859e-05
1.44586e-05
7.06058e-06
1.90755e-06
4.21216e-07
1.1143e-07
6.35456e-08
9.02452e-08
2.24593e-07
2.90699e-07
8.36085e-07
4.85185e-07
3.54902e-08
4.32491e-09
1.92618e-08
5.96412e-08
3.82727e-08
1.24661e-08
1.70949e-07
2.16309e-07
-4.30422e-08
1.22095e-11
1.59839e-07
8.99293e-06
1.36477e-05
6.33435e-06
1.07644e-08
1.11788e-08
3.48785e-09
3.78405e-09
5.77647e-08
9.22516e-07
2.06611e-06
6.59582e-07
1.80153e-07
2.1717e-08
8.45043e-09
1.37796e-08
2.56185e-08
2.54084e-08
6.54424e-09
7.53794e-08
1.17618e-07
-2.75867e-08
3.13403e-08
2.7031e-07
2.48409e-06
6.60658e-06
6.92441e-07
5.83033e-08
1.0036e-10
1.02809e-10
1.45711e-07
2.2577e-06
3.07131e-06
3.0862e-06
6.74169e-07
1.57915e-07
1.81553e-07
8.86312e-08
4.63302e-08
3.53649e-08
8.75922e-09
6.00257e-09
1.05962e-08
3.48352e-08
-1.73614e-09
4.73393e-08
3.30086e-07
3.56136e-07
1.54687e-07
3.99791e-08
3.11846e-10
2.86687e-10
9.98467e-11
7.15516e-07
2.44178e-06
3.08354e-06
3.08385e-06
2.91131e-06
1.45375e-06
1.63403e-06
1.02481e-06
2.56313e-07
6.14845e-08
1.50935e-08
5.84876e-09
3.78245e-09
2.84341e-09
1.81231e-08
1.28165e-08
8.32804e-09
8.91125e-09
1.81106e-08
1.53694e-09
3.41549e-10
3.58766e-10
1.03269e-10
8.63329e-09
6.62275e-07
2.6531e-06
3.0855e-06
3.05493e-06
2.65979e-06
2.52113e-06
1.99702e-06
3.74671e-07
8.93695e-08
2.42057e-08
6.73317e-09
3.09492e-09
2.89583e-09
3.08159e-08
1.71102e-08
9.67964e-09
7.90865e-09
2.68239e-09
9.57679e-10
4.0592e-10
3.68267e-10
3.30844e-10
2.70864e-10
7.25791e-09
6.64542e-07
2.74536e-06
3.04393e-06
2.82582e-06
2.23483e-06
1.12386e-06
2.46306e-07
8.23243e-08
3.39395e-08
2.4757e-08
9.45553e-09
5.16621e-09
2.84515e-08
1.12141e-08
1.12697e-08
9.39295e-09
5.22158e-09
8.87449e-10
5.46567e-10
3.34183e-10
3.10835e-10
3.25991e-10
3.6137e-10
1.53868e-09
4.10162e-07
1.20921e-06
5.46174e-07
3.11283e-07
2.11806e-07
1.53331e-07
6.10931e-08
2.97297e-08
3.03308e-08
2.95078e-08
1.94627e-08
1.73335e-08
6.81602e-09
6.51802e-09
5.34963e-09
3.46625e-09
2.09767e-09
1.17897e-09
7.8594e-10
9.60444e-10
1.67458e-09
2.71397e-09
5.81764e-09
4.28295e-08
3.33194e-09
5.51406e-08
5.33311e-08
4.12591e-08
4.41229e-08
3.49401e-08
2.5155e-08
2.64673e-08
2.5202e-08
1.73755e-08
1.83348e-08
5.30208e-09
3.30076e-09
3.59043e-09
2.80834e-09
2.08221e-09
1.41955e-09
1.07648e-09
1.27325e-09
2.91434e-09
5.46247e-09
5.85096e-09
5.12395e-09
3.31145e-09
4.5732e-09
1.31137e-08
1.40692e-08
2.14829e-08
1.71499e-08
1.65471e-08
1.92576e-08
1.77669e-08
1.28418e-08
1.92924e-08
5.17998e-09
2.36861e-09
2.87789e-09
2.54043e-09
2.03364e-09
1.55282e-09
1.16835e-09
1.23287e-09
2.0726e-09
3.76758e-09
5.19164e-09
4.30573e-09
3.28938e-09
5.5026e-09
1.0456e-08
1.04442e-08
1.00567e-08
8.95053e-09
9.21257e-09
1.12849e-08
1.08887e-08
8.68174e-09
1.93988e-08
5.49939e-09
2.36175e-09
2.65572e-09
2.41758e-09
2.01384e-09
1.58702e-09
1.20475e-09
7.35293e-10
6.03812e-10
7.69945e-10
1.2425e-09
1.8713e-09
2.35435e-09
3.91156e-09
4.45052e-09
6.08519e-09
4.99183e-09
4.16816e-09
4.25163e-09
5.37855e-09
6.0276e-09
5.47627e-09
1.93717e-08
5.79193e-09
2.34478e-09
2.41356e-09
2.2112e-09
1.88332e-09
1.5487e-09
1.14648e-09
7.4055e-10
4.42721e-10
2.93028e-10
2.67599e-10
4.7319e-10
1.02826e-09
1.72823e-09
2.2414e-09
2.6386e-09
2.24669e-09
1.75281e-09
1.76362e-09
2.45205e-09
3.14224e-09
3.29867e-09
1.86096e-08
6.97428e-09
2.31421e-09
2.2201e-09
1.99679e-09
1.68792e-09
1.41581e-09
1.11171e-09
7.83996e-10
4.79832e-10
2.84071e-10
1.85863e-10
1.92258e-10
3.11013e-10
5.23949e-10
7.85926e-10
8.72498e-10
8.35618e-10
6.71699e-10
6.41542e-10
1.02832e-09
1.5098e-09
1.81079e-09
1.68113e-08
8.02148e-09
2.8592e-09
2.03667e-09
1.75253e-09
1.42459e-09
1.18163e-09
9.55342e-10
7.32353e-10
5.00628e-10
3.00908e-10
1.69337e-10
1.12677e-10
1.08017e-10
1.4455e-10
2.16599e-10
2.61666e-10
2.62077e-10
2.30214e-10
2.2832e-10
3.72282e-10
6.23403e-10
8.41562e-10
1.54579e-08
7.92912e-09
3.50419e-09
1.92389e-09
1.53833e-09
1.15242e-09
9.11684e-10
7.41815e-10
6.00513e-10
4.53783e-10
2.98029e-10
1.65572e-10
9.43992e-11
6.11709e-11
5.32126e-11
6.25235e-11
7.28627e-11
7.98343e-11
7.73435e-11
8.0065e-11
1.1664e-10
2.06648e-10
3.11831e-10
1.2418e-08
7.33637e-09
3.56668e-09
1.88265e-09
1.32698e-09
9.22013e-10
6.80235e-10
5.24344e-10
4.23121e-10
3.41754e-10
2.54724e-10
1.61442e-10
8.32231e-11
4.88102e-11
3.09419e-11
2.51923e-11
2.53676e-11
2.7823e-11
2.93258e-11
3.10883e-11
3.79284e-11
5.82161e-11
9.11904e-11
1.12027e-08
6.40122e-09
3.40467e-09
1.71333e-09
1.08632e-09
6.88468e-10
4.80444e-10
3.5423e-10
2.7681e-10
2.25441e-10
1.799e-10
1.32677e-10
7.33103e-11
4.20804e-11
2.28984e-11
1.43664e-11
1.14108e-11
1.1431e-11
1.24913e-11
1.35538e-11
1.45359e-11
1.78998e-11
2.45977e-11
8.84158e-09
5.329e-09
2.94607e-09
1.44669e-09
8.41376e-10
4.90607e-10
3.05582e-10
2.20156e-10
1.63942e-10
1.30382e-10
1.06272e-10
8.42285e-11
5.91842e-11
3.25026e-11
1.75647e-11
9.36833e-12
5.94334e-12
5.2411e-12
5.44576e-12
5.73218e-12
6.07555e-12
6.67697e-12
7.51296e-12
7.47478e-09
4.17451e-09
2.29633e-09
1.13543e-09
6.1174e-10
3.36098e-10
1.79342e-10
1.24355e-10
8.96059e-11
6.84282e-11
5.46316e-11
4.39375e-11
3.3881e-11
2.24114e-11
1.1886e-11
6.17444e-12
3.23795e-12
2.45937e-12
2.34638e-12
2.43488e-12
2.5672e-12
2.56154e-12
2.74441e-12
4.95586e-09
2.87964e-09
1.59334e-09
7.95039e-10
4.0554e-10
2.11055e-10
1.02486e-10
6.18454e-11
4.2897e-11
3.19525e-11
2.51931e-11
2.02093e-11
1.59358e-11
1.17417e-11
7.13343e-12
3.53428e-12
1.67863e-12
1.12138e-12
9.66196e-13
9.7063e-13
9.5506e-13
1.00073e-12
9.9223e-13
3.3422e-09
1.81318e-09
9.57596e-10
4.75759e-10
2.32738e-10
1.14706e-10
5.3454e-11
2.75535e-11
1.79142e-11
1.30369e-11
1.0088e-11
7.94964e-12
6.32853e-12
4.90712e-12
3.33958e-12
1.83449e-12
7.65179e-13
4.62218e-13
3.68546e-13
3.51115e-13
3.46181e-13
3.27084e-13
3.384e-13
1.68536e-09
9.26772e-10
4.8737e-10
2.36534e-10
1.11313e-10
5.2132e-11
2.35062e-11
1.08916e-11
6.50066e-12
4.55034e-12
3.46065e-12
2.70782e-12
2.12715e-12
1.67637e-12
1.22243e-12
7.31123e-13
3.23571e-13
1.56615e-13
1.25073e-13
1.17656e-13
1.07192e-13
1.05914e-13
1.014e-13
7.91153e-10
4.06343e-10
2.04227e-10
9.44484e-11
4.29944e-11
1.92225e-11
8.42496e-12
3.64557e-12
2.01804e-12
1.3627e-12
1.01118e-12
7.84574e-13
6.14663e-13
4.78329e-13
3.64041e-13
2.23444e-13
1.08134e-13
4.7952e-14
3.77448e-14
3.50713e-14
3.34409e-14
2.83849e-14
2.65134e-14
2.5101e-10
1.31459e-10
6.35531e-11
2.9892e-11
1.3116e-11
5.64004e-12
2.41802e-12
1.01238e-12
5.31176e-13
3.4478e-13
2.51112e-13
1.9189e-13
1.49019e-13
1.17207e-13
8.73616e-14
5.34845e-14
2.67662e-14
1.24643e-14
9.56277e-15
9.0201e-15
8.08777e-15
6.97737e-15
5.85284e-15
6.95325e-11
3.3416e-11
1.61522e-11
7.28783e-12
3.07081e-12
1.29574e-12
5.49955e-13
2.29532e-13
1.16619e-13
7.28726e-14
5.19205e-14
3.9359e-14
3.06941e-14
2.34773e-14
1.70158e-14
1.00048e-14
5.14973e-15
2.69772e-15
2.18206e-15
2.02153e-15
1.81225e-15
1.38814e-15
1.11989e-15
1.11705e-11
6.02906e-12
2.9289e-12
1.27716e-12
5.33966e-13
2.23649e-13
9.4557e-14
4.08171e-14
2.04988e-14
1.24357e-14
8.75082e-15
6.45394e-15
5.06238e-15
3.81022e-15
2.64917e-15
1.64831e-15
8.5791e-16
4.96157e-16
4.19491e-16
3.96136e-16
3.28106e-16
2.52741e-16
1.76212e-16
1.525e-12
8.26295e-13
3.70155e-13
1.68954e-13
7.32845e-14
3.15155e-14
1.39227e-14
6.03262e-15
3.01439e-15
1.78318e-15
1.23049e-15
9.12969e-16
7.30373e-16
5.72302e-16
3.80304e-16
2.10523e-16
1.25234e-16
8.61868e-17
7.57276e-17
6.78318e-17
5.36565e-17
3.73639e-17
2.33969e-17
1.04029e-13
6.28497e-14
3.58729e-14
1.5966e-14
7.1285e-15
3.24582e-15
1.52206e-15
7.14011e-16
3.65825e-16
2.16793e-16
1.5198e-16
1.23993e-16
9.96836e-17
7.478e-17
4.79805e-17
2.6539e-17
1.74336e-17
1.37493e-17
1.15977e-17
9.7867e-18
7.14807e-18
4.50091e-18
2.66349e-18
8.8774e-15
5.10253e-15
2.54511e-15
1.18917e-15
5.98115e-16
3.02163e-16
1.53407e-16
7.90334e-17
4.20686e-17
2.53246e-17
1.80099e-17
1.49484e-17
1.17689e-17
8.46588e-18
5.30466e-18
3.19042e-18
2.33371e-18
1.96456e-18
1.59548e-18
1.1942e-18
7.71554e-19
4.26754e-19
2.35079e-19
4.67169e-16
2.54334e-16
1.3604e-16
7.64213e-17
4.64608e-17
2.66314e-17
1.45565e-17
7.91585e-18
4.39194e-18
2.69723e-18
1.94687e-18
1.5791e-18
1.22453e-18
8.58471e-19
5.46671e-19
3.76097e-19
3.00573e-19
2.47454e-19
1.87351e-19
1.23789e-19
7.2728e-20
3.51968e-20
9.79267e-21
1.52618e-17
9.0834e-18
6.08342e-18
3.95604e-18
2.80967e-18
1.83067e-18
1.23048e-18
7.05174e-19
4.08643e-19
2.56066e-19
1.88065e-19
1.50494e-19
1.15342e-19
8.07566e-20
5.51011e-20
4.01521e-20
3.36094e-20
2.66289e-20
1.89983e-20
1.13004e-20
5.49208e-21
1.39903e-21
2.1152e-22
2.67535e-19
2.33628e-19
2.3202e-19
2.13907e-19
1.78866e-19
1.3254e-19
9.47593e-20
5.66644e-20
3.4244e-20
2.1781e-20
1.63048e-20
1.30478e-20
9.99251e-21
7.27147e-21
5.5336e-21
4.60198e-21
3.84184e-21
2.77729e-21
1.72378e-21
8.36527e-22
2.46594e-22
3.84244e-23
3.1354e-24
4.19341e-21
4.16878e-21
7.53153e-21
1.05299e-20
1.1371e-20
9.35534e-21
6.76756e-21
4.13996e-21
2.59413e-21
1.66599e-21
1.27806e-21
1.03498e-21
8.16592e-22
6.49829e-22
5.56448e-22
4.90468e-22
3.96437e-22
2.65423e-22
1.35665e-22
4.57587e-23
8.75089e-24
6.52413e-25
2.92464e-26
8.41341e-23
7.09183e-23
2.0441e-22
5.15321e-22
6.56528e-22
5.78323e-22
4.25649e-22
2.7657e-22
1.78186e-22
1.15435e-22
9.14826e-23
7.67339e-23
6.53355e-23
5.89059e-23
5.53747e-23
4.91067e-23
3.76935e-23
2.28038e-23
9.11722e-24
2.16426e-24
2.62342e-25
1.03641e-26
1.86007e-28
0.971546
0.930524
0.81451
0.784274
0.699579
0.315267
0.0732913
0.0102121
0.00591498
0.00283329
-2.14245e-19
1.25145e-17
-1.59359e-09
5.65557e-05
4.8263e-06
0.000276746
4.12508e-14
8.01106e-09
2.37103e-06
8.98188e-06
1.13156e-07
2.54637e-07
1.03408e-07
1.34308e-10
2.66721e-07
2.7174e-07
1.76028e-07
3.02512e-24
2.31867e-07
3.24693e-07
4.98342e-07
6.76798e-07
7.15872e-11
1.42253e-08
7.60421e-08
1.73292e-07
-3.01706e-15
3.27094e-27
-9.11182e-15
-6.54719e-15
6.48022e-09
1.11328e-11
3.41444e-12
8.38428e-11
4.87831e-09
3.35971e-09
1.78369e-09
6.01656e-10
3.02079e-09
2.81175e-09
2.41766e-09
1.64697e-09
4.44597e-09
3.35518e-09
2.59689e-09
2.05922e-09
1.2881e-08
9.16146e-09
6.55843e-09
4.59974e-09
1.40734e-08
1.40289e-08
9.50515e-09
9.15448e-09
1.13138e-08
9.73085e-09
9.60938e-09
8.44749e-09
7.97015e-09
7.87856e-09
7.23958e-09
6.33986e-09
5.27523e-09
4.57991e-09
4.9005e-09
4.48929e-09
3.24233e-09
3.22218e-09
2.92172e-09
2.9469e-09
1.88791e-09
1.72391e-09
1.83627e-09
1.83381e-09
9.6998e-10
9.93121e-10
9.49135e-10
1.01967e-09
3.92586e-10
3.80834e-10
4.48117e-10
4.8387e-10
1.23178e-10
1.34744e-10
1.33424e-10
1.66317e-10
3.24062e-11
2.8157e-11
3.65539e-11
4.69325e-11
8.6991e-12
8.57665e-12
9.4406e-12
1.14451e-11
2.79359e-12
2.40227e-12
2.77538e-12
3.07208e-12
9.5579e-13
8.67114e-13
8.614e-13
8.94099e-13
3.1871e-13
2.59353e-13
2.6382e-13
2.54624e-13
9.3528e-14
8.17626e-14
7.37803e-14
6.66708e-14
2.40951e-14
1.94678e-14
1.77512e-14
1.52568e-14
5.25199e-15
4.40747e-15
3.62423e-15
2.94801e-15
9.65027e-16
7.4157e-16
6.00463e-16
4.60803e-16
1.42966e-16
1.09401e-16
8.03253e-17
5.86382e-17
1.79875e-17
1.29644e-17
1.00064e-17
6.39503e-18
1.92501e-18
1.14742e-18
5.32246e-19
1.58264e-19
8.86331e-20
2.44327e-20
7.19821e-21
9.37061e-22
9.65569e-22
1.09249e-22
1.75051e-23
1.72081e-24
3.283e-28
4.71752e-26
2.02875e-26
4.76842e-27
6.65318e-29
2.45524e-28
8.96324e-28
2.85745e-27
5.99124e-28
2.57337e-28
9.33902e-28
2.87766e-27
6.65318e-29
1.92457e-28
6.19067e-28
1.70465e-27
0.617672
0.73199
0.856832
0.837311
0.358696
0.000688727
0.361504
0.981889
0.999787
0.999857
0.999634
0.99948
0.999697
0.999872
0.999895
0.999895
0.999895
0.99951
0.983325
0.0512769
0.497172
0.782581
0.568702
0.0492337
0.00385372
0.504426
0.877205
0.975147
0.985579
0.981152
0.965886
0.952723
0.934997
0.970614
0.999675
0.970417
0.889419
0.859801
0.0259525
0.152419
0.169503
0.0304862
7.41824e-08
1.4748e-08
0.262992
0.643592
0.635484
0.539987
0.375932
0.284253
0.234446
0.182846
0.182435
0.261422
0.238864
0.149059
0.186919
0.000532035
1.35731e-19
-1.00478e-23
5.56996e-07
6.91383e-06
0.00387058
0.0120791
0.000980234
7.66396e-08
8.51044e-08
8.86716e-08
1.17277e-07
1.19304e-07
1.371e-07
1.2707e-07
1.1646e-16
1.29215e-07
-7.51547e-10
1.35174e-07
1.44589e-07
3.12397e-06
3.85607e-05
5.10231e-05
4.25377e-05
3.2771e-07
6.65899e-08
6.7399e-08
6.65899e-08
8.92278e-08
2.51183e-07
5.96852e-07
1.16895e-06
1.30857e-06
9.43472e-07
9.59925e-06
0.000144178
0.00141949
0.00334566
-4.71715e-14
2.14422e-06
2.07161e-05
2.02497e-05
9.64008e-06
1.26356e-06
5.05417e-07
2.22265e-07
1.91133e-07
3.201e-07
3.28065e-07
1.52787e-07
3.25294e-08
1.98509e-08
1.00867e-08
8.71173e-09
9.83622e-09
0.00258914
0.00524857
1.34356e-10
5.36503e-08
4.0358e-06
8.57541e-06
5.61212e-06
3.27226e-07
6.55507e-11
1.2664e-10
9.70335e-11
1.63379e-10
2.90573e-08
4.62938e-08
1.55353e-07
1.60924e-07
4.21217e-08
9.72935e-09
4.54521e-05
0.000390633
0.00128409
8.95356e-07
1.50817e-06
2.12785e-06
2.40237e-06
1.69288e-06
1.91351e-07
1.36655e-10
4.1162e-10
4.90526e-10
6.12017e-10
1.14516e-08
5.91348e-08
2.69108e-07
6.52147e-07
2.74899e-07
9.8062e-08
2.38351e-05
0.000243244
0.000271962
3.6943e-07
5.2128e-07
4.28661e-07
9.01326e-08
1.15506e-12
3.62478e-15
3.87766e-10
9.98375e-10
4.59304e-10
2.18465e-10
4.59304e-10
8.77037e-10
2.98635e-09
1.28644e-08
0.000119779
0.00419197
0.00864225
0.00970067
0.00918631
-3.68231e-15
-1.14137e-15
1.18602e-22
-6.49306e-15
2.39558e-11
3.3045e-10
2.02028e-09
1.36052e-08
1.01737e-07
6.51634e-07
4.35044e-06
2.08017e-05
4.60507e-05
5.36335e-05
0.00150116
0.0112362
0.015025
0.0145074
0.0118166
1.02663e-10
1.03737e-10
8.46781e-11
1.5385e-10
5.57843e-10
3.45762e-09
2.37319e-08
1.54856e-07
9.85152e-07
5.46451e-06
2.40938e-05
7.901e-05
0.000220937
0.000635681
0.0015286
0.00140478
0.000868221
0.000249562
4.00183e-07
2.33158e-10
2.84446e-10
2.22581e-10
1.69768e-10
1.73656e-10
2.19857e-10
4.48882e-10
1.30457e-08
7.16214e-08
5.9757e-07
9.96355e-06
5.59923e-05
0.000110758
5.54589e-05
-4.47328e-18
3.10852e-16
3.17561e-11
1.87563e-16
2.83845e-08
4.97526e-10
4.69489e-10
3.51712e-10
2.20123e-10
1.52288e-10
1.10859e-10
7.06365e-11
4.31411e-11
1.87453e-12
3.15396e-13
1.41988e-16
9.84306e-17
1.42044e-16
5.85834e-17
1.81967e-10
7.01263e-09
1.96253e-08
1.18204e-08
3.62707e-09
1.32138e-09
9.45168e-10
4.94148e-10
2.34396e-10
1.27043e-10
9.76672e-11
7.11747e-11
5.61174e-11
5.26394e-11
3.07548e-10
1.10256e-10
3.37663e-09
6.07457e-08
2.89701e-08
5.18856e-09
1.45862e-08
2.53541e-08
1.8789e-08
3.4962e-09
2.81587e-09
1.49924e-09
5.42246e-10
1.94232e-10
9.25054e-11
7.26478e-11
6.44147e-11
7.62086e-11
1.99965e-10
8.81046e-10
2.16227e-10
1.40304e-08
1.41929e-07
7.48118e-08
9.87353e-09
6.74886e-09
1.40964e-08
5.92663e-10
3.34112e-09
3.5575e-09
1.19328e-09
4.75335e-10
1.56424e-10
7.09525e-11
6.55635e-11
7.58603e-11
1.35253e-10
4.40304e-10
9.5932e-10
1.59225e-09
2.15904e-08
6.76078e-08
2.49548e-08
8.71277e-09
4.16236e-10
3.72933e-11
4.67811e-11
1.87744e-09
3.31587e-09
1.12455e-09
3.95479e-10
1.14902e-10
6.9842e-11
8.00678e-11
1.28567e-10
2.53762e-10
6.57468e-10
9.41601e-10
5.48954e-09
2.16002e-08
3.51437e-09
9.05473e-10
6.72143e-10
2.78532e-10
3.64554e-11
9.41188e-11
1.69286e-09
3.26853e-09
1.23257e-09
3.81498e-10
1.00174e-10
7.83552e-11
9.46914e-11
1.60862e-10
2.55277e-10
5.82408e-10
7.39903e-10
2.79271e-09
8.92961e-09
8.01211e-09
3.80426e-09
6.21352e-10
1.24524e-10
3.09109e-11
9.34396e-11
1.11375e-09
3.08559e-09
1.55091e-09
5.46411e-10
1.32615e-10
9.3591e-11
1.02961e-10
1.55461e-10
2.55616e-10
3.99802e-10
7.27633e-10
9.12538e-10
3.49631e-10
4.79181e-10
6.10821e-11
2.72934e-12
4.23338e-12
9.16822e-12
5.73451e-11
7.53078e-10
2.48868e-09
1.75492e-09
9.56333e-10
3.41409e-10
1.1921e-10
1.11516e-10
1.35001e-10
1.89236e-10
2.68793e-10
3.35906e-10
2.67771e-10
9.47423e-11
1.43649e-11
5.599e-12
2.68684e-12
3.15993e-12
6.50631e-12
4.22647e-11
2.59423e-10
1.73093e-09
1.44449e-09
1.08319e-09
6.56113e-10
2.71787e-10
1.201e-10
1.03208e-10
1.06141e-10
1.22851e-10
1.26766e-10
1.0805e-10
6.8089e-11
3.4726e-11
1.12742e-11
1.95337e-12
2.04537e-12
3.84845e-12
1.66505e-11
1.08441e-10
1.04183e-09
9.72563e-10
8.39329e-10
6.5363e-10
4.32885e-10
2.28373e-10
9.93166e-11
6.01234e-11
4.97853e-11
4.12369e-11
3.09656e-11
2.13968e-11
8.39933e-12
1.65009e-12
8.10948e-13
8.50881e-13
1.23468e-12
7.54307e-12
2.20072e-11
5.20346e-10
5.2971e-10
5.01996e-10
4.4694e-10
3.57908e-10
2.48007e-10
1.38441e-10
6.30632e-11
2.99305e-11
1.68249e-11
9.90211e-12
5.20236e-12
1.89595e-12
5.91289e-13
3.1754e-13
3.28918e-13
4.9613e-13
1.11047e-12
9.31816e-12
2.00163e-10
2.24155e-10
2.33371e-10
2.22848e-10
2.02512e-10
1.66302e-10
1.17201e-10
6.52907e-11
2.8595e-11
1.14724e-11
4.78387e-12
1.90523e-12
6.98185e-13
2.73172e-13
1.37598e-13
9.48235e-14
7.63304e-14
2.19966e-13
5.38893e-13
5.8902e-11
7.13517e-11
8.11772e-11
8.65932e-11
8.30618e-11
7.67734e-11
6.4924e-11
4.51528e-11
2.32385e-11
9.18201e-12
3.20323e-12
1.04583e-12
3.35964e-13
1.25072e-13
5.20845e-14
2.83787e-14
1.13024e-14
9.90497e-15
3.37223e-14
1.43522e-11
1.79018e-11
2.12707e-11
2.48735e-11
2.55815e-11
2.55228e-11
2.44458e-11
2.06754e-11
1.32311e-11
5.89007e-12
1.98929e-12
5.56482e-13
1.44505e-13
4.47673e-14
1.62295e-14
3.34995e-15
1.82698e-15
1.69121e-15
2.7907e-15
3.48573e-12
4.04981e-12
4.73235e-12
5.49136e-12
5.75071e-12
6.34123e-12
6.7655e-12
6.48021e-12
4.97213e-12
2.62062e-12
9.42132e-13
2.42834e-13
5.07475e-14
1.27591e-14
3.12291e-15
7.44349e-16
9.24457e-16
9.3598e-16
5.08331e-16
9.20696e-13
9.35076e-13
9.78698e-13
1.00649e-12
1.06214e-12
1.23791e-12
1.40702e-12
1.4648e-12
1.28493e-12
7.91031e-13
3.07857e-13
7.49117e-14
1.32008e-14
2.82332e-15
4.62588e-16
2.9214e-16
4.3783e-16
5.51306e-16
2.95392e-16
2.39426e-13
2.13913e-13
1.87359e-13
1.67333e-13
1.655e-13
1.88082e-13
2.2388e-13
2.48982e-13
2.30486e-13
1.55604e-13
6.35936e-14
1.43022e-14
2.14384e-15
4.71832e-16
1.17247e-16
1.12491e-16
1.98279e-16
2.88228e-16
1.57897e-16
5.56795e-14
4.52581e-14
3.53612e-14
2.41389e-14
1.79784e-14
1.91284e-14
2.39631e-14
2.86611e-14
2.76385e-14
1.96841e-14
7.93037e-15
1.3954e-15
9.33904e-17
3.3601e-17
2.89141e-17
4.07768e-17
8.6396e-17
1.77028e-16
9.67379e-17
1.13624e-14
8.53388e-15
5.37028e-15
2.68094e-15
1.11364e-15
9.52822e-16
1.46477e-15
2.04117e-15
2.07619e-15
1.54386e-15
5.26533e-16
3.60882e-17
6.22714e-19
1.14289e-18
4.31755e-18
1.42614e-17
3.86903e-17
9.43141e-17
6.99358e-17
1.90445e-15
1.28966e-15
6.05125e-16
1.71798e-16
2.73231e-17
2.2794e-17
4.70495e-17
7.59771e-17
8.1451e-17
6.09302e-17
1.40219e-17
5.54191e-19
9.46401e-20
3.53528e-19
1.66004e-18
5.83473e-18
1.86744e-17
5.81824e-17
3.75389e-17
2.91294e-16
1.21248e-16
3.09368e-17
4.17284e-18
2.86854e-19
2.66911e-19
9.48335e-19
1.95031e-18
2.07836e-18
9.76813e-19
1.07714e-19
2.12572e-20
4.2355e-20
1.60179e-19
6.98822e-19
3.20996e-18
1.3431e-17
2.77088e-17
2.21157e-17
3.20968e-17
6.86527e-18
7.00339e-19
4.02791e-20
4.20401e-21
3.31267e-21
1.33752e-20
3.30644e-20
3.70589e-20
1.73457e-20
1.01685e-20
1.69125e-20
3.2091e-20
9.30661e-20
4.16428e-19
2.48084e-18
7.85374e-18
1.48503e-17
9.96454e-18
1.5395e-18
1.06473e-19
5.80912e-21
3.07586e-22
1.41116e-22
1.62285e-22
4.17533e-22
1.0669e-21
1.9124e-21
3.53412e-21
7.64009e-21
1.5595e-20
2.78411e-20
7.24274e-20
3.58432e-19
1.6511e-18
4.29693e-18
6.64948e-18
4.94018e-18
1.99255e-20
6.13673e-22
2.6794e-23
1.36141e-23
2.641e-23
6.95931e-23
1.93009e-22
5.15799e-22
1.30047e-21
3.12811e-21
7.12748e-21
1.44867e-20
2.57814e-20
6.59354e-20
2.78512e-19
1.0569e-18
2.25872e-18
3.05652e-18
1.89849e-18
8.08195e-23
2.07804e-24
1.71616e-24
5.42597e-24
1.78736e-23
5.53143e-23
1.58219e-22
4.25704e-22
1.09717e-21
2.65197e-21
5.9864e-21
1.22121e-20
2.19618e-20
5.21824e-20
1.93768e-19
6.06186e-19
1.07884e-18
1.18281e-18
7.30896e-19
1.7097e-25
2.83087e-25
1.14416e-24
4.18296e-24
1.38669e-23
4.21231e-23
1.22418e-22
3.26646e-22
8.33728e-22
2.0177e-21
4.55562e-21
9.27883e-21
1.66762e-20
3.77068e-20
1.19283e-19
3.34619e-19
4.95613e-19
4.40333e-19
2.28193e-19
4.02803e-26
2.0336e-25
8.26307e-25
2.91162e-24
9.50646e-24
2.87204e-23
8.13853e-23
2.17612e-22
5.55152e-22
1.34773e-21
3.03065e-21
6.16654e-21
1.12293e-20
2.45128e-20
6.41833e-20
1.73262e-19
1.88561e-19
1.42345e-19
6.27669e-20
3.05448e-26
1.32419e-25
4.90972e-25
1.64286e-24
5.14479e-24
1.52755e-23
4.39747e-23
1.19469e-22
3.06057e-22
7.47067e-22
1.7001e-21
3.49376e-21
6.34119e-21
1.34224e-20
2.99957e-20
7.90109e-20
6.7294e-20
3.92124e-20
2.38646e-20
1.7269e-26
6.49578e-26
2.20194e-25
6.96228e-25
2.14992e-24
6.47666e-24
1.8856e-23
5.28139e-23
1.3965e-22
3.55468e-22
8.34355e-22
1.75076e-21
3.26169e-21
6.77581e-21
1.3732e-20
3.1755e-20
1.91025e-20
1.38176e-20
8.56658e-21
5.48775e-27
1.75814e-26
5.42704e-26
1.59118e-25
5.31825e-25
1.78197e-24
5.62165e-24
1.67287e-23
4.72284e-23
1.24681e-22
3.01358e-22
6.55899e-22
1.2476e-21
2.59393e-21
4.98122e-21
1.00983e-20
6.17935e-21
4.23424e-21
2.08358e-21
)
;

boundaryField
{
    leftWall
    {
        type            alphaContactAngle;
        contactAngleProperties 
        {
            mercury         
            {
                theta0          90;
            }
            air             
            {
                theta0          90;
            }
            oil             
            {
                theta0          90;
            }
        }
        value           nonuniform List<scalar> 
50
(
4.93705e-11
1.31259e-10
3.17325e-10
3.3131e-10
2.70338e-10
2.57659e-10
1.31385e-08
0.300877
0.983423
1
1
1
0.848879
0.433536
0.00912366
0
-2.17097e-08
-4.30422e-08
-2.75867e-08
-1.73614e-09
1.81231e-08
3.08159e-08
2.84515e-08
1.73335e-08
1.83348e-08
1.92924e-08
1.93988e-08
1.93717e-08
1.86096e-08
1.68113e-08
1.54579e-08
1.2418e-08
1.12027e-08
8.84158e-09
7.47478e-09
4.95586e-09
3.3422e-09
1.68536e-09
7.91153e-10
2.5101e-10
6.95325e-11
1.11705e-11
1.525e-12
1.04029e-13
8.8774e-15
4.67169e-16
1.52618e-17
2.67535e-19
4.19341e-21
8.41341e-23
)
;
    }
    rightWall
    {
        type            alphaContactAngle;
        contactAngleProperties 
        {
            mercury         
            {
                theta0          90;
            }
            air             
            {
                theta0          90;
            }
            oil             
            {
                theta0          90;
            }
        }
        value           nonuniform List<scalar> 
50
(
0.0182818
0.0172559
0.00713356
0.00386943
0.0299128
0.343015
0.491513
0.604333
0.983325
0.859801
0.186919
1.35174e-07
0.00334566
0.00524857
0.00128409
0.000271962
0.00918631
0.0118166
4.00183e-07
2.83845e-08
3.62707e-09
3.4962e-09
3.34112e-09
1.87744e-09
1.69286e-09
1.11375e-09
7.53078e-10
2.59423e-10
1.08441e-10
2.20072e-11
9.31816e-12
5.38893e-13
3.37223e-14
2.7907e-15
5.08331e-16
2.95392e-16
1.57897e-16
9.67379e-17
6.99358e-17
3.75389e-17
2.21157e-17
9.96454e-18
4.94018e-18
1.89849e-18
7.30896e-19
2.28193e-19
6.27669e-20
2.38646e-20
8.56658e-21
2.08358e-21
)
;
    }
    lowerWall
    {
        type            alphaContactAngle;
        contactAngleProperties 
        {
            mercury         
            {
                theta0          90;
            }
            air             
            {
                theta0          90;
            }
            oil             
            {
                theta0          90;
            }
        }
        value           nonuniform List<scalar> 
62
(
4.93705e-11
8.86666e-11
1.05657e-10
1.08389e-10
1.13651e-10
1.20452e-10
1.27137e-10
1.33427e-10
1.40644e-10
1.53147e-10
1.71922e-10
1.97005e-10
2.3335e-10
2.88019e-10
3.60967e-10
4.64183e-10
6.06193e-10
8.77676e-10
1.40949e-09
2.25527e-09
2.70478e-09
2.77887e-09
2.77887e-09
2.77887e-09
2.34895e-09
1.08388e-09
1.27972e-09
-2.12264e-15
0.368025
0.99824
0.998771
0.971546
0.930524
0.81451
0.784274
0.0105729
0.0721129
0.448253
0.776046
0.843335
0.883373
0.882722
0.877012
0.0105729
0.0105729
0.0210659
0.0610519
0.0630926
0.0395771
0.0278669
0.00552628
0.000853403
0.000854281
0.00083611
0.000747566
0.015902
0.118762
0.122443
0.117861
0.0215914
0.0139689
0.0182818
)
;
    }
    atmosphere
    {
        type            inletOutlet;
        inletValue      uniform 0;
        value           nonuniform List<scalar> 
46
(
0
0
2.0441e-22
5.15321e-22
6.56528e-22
5.78323e-22
4.25649e-22
2.7657e-22
1.78186e-22
1.15435e-22
9.14826e-23
7.67339e-23
6.53355e-23
5.89059e-23
5.53747e-23
4.91067e-23
3.76935e-23
2.28038e-23
9.11722e-24
2.16426e-24
2.62342e-25
1.03641e-26
1.86007e-28
6.65318e-29
1.92457e-28
0
0
0
0
0
0
0
0
0
0
0
0
0
0
0
0
0
0
0
0
0
)
;
    }
    defaultFaces
    {
        type            empty;
    }
}


// ************************************************************************* //
