/*--------------------------------*- C++ -*----------------------------------*\
  =========                 |
  \\      /  F ield         | OpenFOAM: The Open Source CFD Toolbox
   \\    /   O peration     | Website:  https://openfoam.org
    \\  /    A nd           | Version:  13
     \\/     M anipulation  |
\*---------------------------------------------------------------------------*/
FoamFile
{
    format      ascii;
    class       volScalarField;
    location    "1.95";
    object      k;
}
// * * * * * * * * * * * * * * * * * * * * * * * * * * * * * * * * * * * * * //

dimensions      [0 2 -2 0 0 0 0];

internalField   nonuniform List<scalar> 
2268
(
0.00122296
0.00333943
0.00494276
0.006317
0.00754615
0.00867932
0.0097453
0.0107629
0.0117527
0.0127527
0.0136713
0.0144858
0.0151836
0.0157598
0.0162064
0.0164943
0.0165634
0.0163236
0.015639
0.0142813
0.0118798
0.00787282
0.00229135
0.00306507
0.00786833
0.0111428
0.0139312
0.0164286
0.0187481
0.0209502
0.0230671
0.0251174
0.0270645
0.0288714
0.030506
0.0319379
0.0331431
0.0340911
0.0347198
0.0349165
0.0345065
0.0332188
0.0306135
0.0260075
0.0184468
0.00625825
0.00448723
0.0108347
0.0149304
0.0183839
0.0214655
0.0243169
0.0270148
0.0295983
0.0320836
0.0344355
0.0366194
0.0385967
0.0403316
0.041793
0.0429432
0.0437127
0.0439779
0.0435424
0.0420962
0.0391332
0.0338387
0.0249191
0.00943684
0.00571547
0.0131433
0.0177745
0.0216771
0.0251736
0.0284098
0.0314648
0.0343777
0.0371619
0.039785
0.042214
0.0444099
0.0463357
0.0479592
0.0492427
0.0501203
0.0504729
0.0501051
0.0487024
0.04574
0.0403134
0.0307217
0.0125341
0.00675426
0.0150253
0.0200828
0.0243573
0.0282154
0.0317942
0.0351663
0.0383669
0.0414057
0.0442541
0.0468807
0.0492486
0.0513222
0.0530724
0.0544676
0.0554529
0.0559231
0.0556957
0.05447
0.0517311
0.046517
0.0366788
0.0158585
0.00761474
0.0165576
0.0220037
0.0266259
0.03083
0.0347396
0.0384173
0.0418927
0.0451718
0.0482297
0.0510363
0.0535565
0.0557586
0.05762
0.0591201
0.0602218
0.0608404
0.0608138
0.0598666
0.0575186
0.0528131
0.0432479
0.0200659
0.00830168
0.0177837
0.0236176
0.0285827
0.0331264
0.037363
0.0413445
0.0450938
0.0486131
0.0518784
0.0548594
0.0575232
0.0598442
0.0618094
0.063414
0.0646448
0.0654431
0.0656702
0.0650828
0.0632569
0.0593344
0.050823
0.0266059
0.00877826
0.0187362
0.0249634
0.0302702
0.0351469
0.0397054
0.0439905
0.0480168
0.0517827
0.0552541
0.0584006
0.0611928
0.0636152
0.0656696
0.0673735
0.0687448
0.0697552
0.0702901
0.0701376
0.0689373
0.0660051
0.0594496
0.0393684
0.00272128
0.00584447
0.00826231
0.010068
0.0115673
0.0136559
0.0150802
0.0153529
0.0155142
0.0155958
0.0154667
0.0147392
0.0137234
0.0126566
0.0112875
0.0100007
0.00875811
0.00712118
0.00279832
0.00696585
0.0147529
0.0205563
0.0240652
0.0267903
0.0303587
0.0330987
0.0338168
0.033568
0.0331142
0.0324536
0.0311745
0.0293307
0.0271518
0.0245439
0.0218807
0.0192395
0.015918
0.00683759
0.0102896
0.0213486
0.0294787
0.033567
0.0364932
0.0404432
0.0435026
0.0442012
0.0434424
0.0425385
0.0414236
0.0397826
0.0375473
0.0348925
0.0318461
0.0286849
0.025414
0.0211609
0.00970578
0.0131884
0.0275312
0.0376721
0.0422201
0.0450619
0.0490675
0.0521224
0.0525869
0.051187
0.0498716
0.0482933
0.0462271
0.043628
0.0406084
0.0372415
0.0337128
0.0299367
0.024926
0.0123988
0.0162159
0.033809
0.0453404
0.0501456
0.0530924
0.0570879
0.0598849
0.0600577
0.058152
0.0564807
0.0544204
0.0518311
0.0487845
0.0453902
0.0417079
0.0378422
0.0335633
0.0278288
0.0149697
0.0200815
0.0406099
0.0529717
0.0574852
0.0603751
0.0641803
0.0665057
0.0662715
0.0644914
0.0626236
0.060137
0.0570126
0.0534504
0.0496238
0.0455856
0.0413735
0.0366444
0.0303517
0.017004
0.026724
0.0484819
0.0609015
0.0644918
0.0669942
0.0703836
0.0721553
0.0714636
0.0699007
0.0679921
0.0652142
0.0617314
0.0577167
0.0534417
0.0490024
0.0444239
0.0393232
0.0326759
0.0183416
0.0393876
0.058334
0.0688928
0.0712335
0.0730671
0.0758657
0.0770359
0.075981
0.0744794
0.0725926
0.0696121
0.0658167
0.0614938
0.0568462
0.0520167
0.0470531
0.0416251
0.0346983
0.019237
0.00904656
0.0197991
0.0266428
0.0324658
0.0378093
0.0428031
0.0474911
0.0518763
0.0559412
0.0596515
0.0629963
0.0659503
0.0685222
0.0707423
0.0726635
0.0743483
0.0758105
0.0769659
0.077639
0.0775489
0.0762582
0.0729344
0.0649859
0.00893872
0.0206556
0.0281989
0.0344607
0.0400928
0.0452993
0.0501527
0.0546795
0.0588827
0.0627694
0.0663413
0.069609
0.0726114
0.0754137
0.0780936
0.0807345
0.0833654
0.0859056
0.0881718
0.0898965
0.0907669
0.0905372
0.0889758
0.00969823
0.0222498
0.0302236
0.0366587
0.0423231
0.0474961
0.0522956
0.0567915
0.0610254
0.0650308
0.0688305
0.0724753
0.0760551
0.0796858
0.0834766
0.0875053
0.0917545
0.0960687
0.100148
0.103551
0.105848
0.106715
0.106066
0.0108582
0.0244635
0.0328385
0.0394076
0.0450745
0.0501844
0.0548909
0.0593016
0.0635152
0.0675951
0.0716126
0.0756833
0.0799656
0.0846404
0.0898476
0.0956143
0.101734
0.10779
0.113062
0.116849
0.118647
0.118418
0.116683
0.0120111
0.026718
0.035618
0.0424263
0.048188
0.0533231
0.0580153
0.062405
0.0666413
0.0708263
0.0751
0.0796685
0.084769
0.0906248
0.0973471
0.10481
0.112421
0.11917
0.124291
0.127179
0.127833
0.126732
0.124466
0.0128731
0.0287237
0.0380594
0.0452414
0.0512814
0.056616
0.0614876
0.066017
0.0703518
0.0746827
0.0792204
0.0842623
0.0901056
0.0969368
0.104764
0.113409
0.121836
0.128564
0.132909
0.134905
0.134935
0.133454
0.130974
0.0130082
0.0293149
0.0396896
0.0476156
0.0542246
0.0600476
0.0653068
0.0700961
0.0745822
0.079052
0.0838399
0.0893036
0.0958361
0.103571
0.112247
0.12152
0.130071
0.136356
0.139856
0.141051
0.140554
0.138882
0.136447
0.0137349
0.0304358
0.0419081
0.0505188
0.0577187
0.0640993
0.0697723
0.0748134
0.0794189
0.0840008
0.0890202
0.0949293
0.10219
0.110889
0.120148
0.129497
0.137976
0.143854
0.146658
0.146904
0.14555
0.143461
0.141003
0.0157828
0.0345696
0.0463412
0.0549083
0.0625126
0.0693359
0.0752935
0.0804307
0.0849929
0.0895043
0.0944712
0.100453
0.107842
0.116638
0.126252
0.136139
0.145443
0.152622
0.156165
0.154375
0.150808
0.14808
0.14577
0.0176236
0.0371061
0.0490991
0.0584993
0.0667859
0.0739304
0.0799152
0.0847645
0.0887745
0.0924399
0.0963232
0.101022
0.10696
0.114131
0.122673
0.132211
0.141686
0.149666
0.154181
0.155152
0.154275
0.153272
0.151372
0.0197415
0.0407649
0.0523157
0.0611583
0.0688917
0.0756514
0.0812148
0.085777
0.089511
0.0928747
0.0963664
0.100427
0.10539
0.111425
0.118603
0.12674
0.13509
0.142426
0.147763
0.151016
0.153393
0.15474
0.153678
0.0211259
0.0432243
0.0543652
0.0626163
0.0696336
0.0757878
0.0809937
0.0853521
0.0890673
0.0924801
0.0959636
0.099831
0.104315
0.10958
0.115746
0.122712
0.129923
0.136418
0.141279
0.14476
0.147708
0.149785
0.149894
0.0219026
0.0445249
0.055495
0.0633074
0.0698104
0.0754495
0.0803208
0.0845425
0.0882952
0.0918321
0.0954218
0.0992746
0.103541
0.108348
0.113794
0.119798
0.12595
0.131536
0.135874
0.138934
0.141425
0.143252
0.143883
0.0222353
0.0450025
0.0558729
0.0634024
0.0695156
0.0747904
0.0794183
0.0835385
0.0873182
0.0909548
0.0946431
0.098526
0.102695
0.10723
0.112189
0.117499
0.122858
0.127751
0.131592
0.134261
0.136187
0.137546
0.138176
0.0220763
0.04479
0.0555592
0.0629209
0.068802
0.0738385
0.0782932
0.0823291
0.0861042
0.0897784
0.0934992
0.0973697
0.10145
0.105787
0.110403
0.115225
0.120026
0.124435
0.127955
0.130411
0.132029
0.133044
0.133453
0.021544
0.0440465
0.0546985
0.0619451
0.067683
0.0725707
0.0769056
0.0808722
0.0846147
0.0882678
0.0919489
0.0957409
0.0996924
0.103832
0.108158
0.1126
0.116989
0.121049
0.124377
0.126789
0.128364
0.129275
0.129563
0.0207936
0.0429098
0.0534079
0.0605549
0.0661957
0.0709867
0.0752428
0.079148
0.0828389
0.0864317
0.0900244
0.0936884
0.0974681
0.101385
0.105429
0.10954
0.113588
0.117372
0.120568
0.123006
0.12468
0.125693
0.126063
0.0199863
0.0414864
0.0517864
0.0588312
0.0643974
0.0691238
0.0733198
0.0771679
0.0807967
0.084309
0.0877886
0.0912987
0.094881
0.0985555
0.102315
0.106111
0.10985
0.113385
0.116464
0.118934
0.120755
0.121971
0.122555
0.0192215
0.0399304
0.0499688
0.0568824
0.0623661
0.0670296
0.0711705
0.0749633
0.0785272
0.0819534
0.085314
0.0886648
0.0920446
0.0954743
0.0989518
0.102445
0.105888
0.109178
0.112123
0.114596
0.116539
0.117962
0.118794
0.0184289
0.038279
0.04801
0.0547643
0.0601512
0.0647474
0.0688338
0.0725736
0.0760757
0.0794199
0.0826685
0.0858698
0.0890591
0.0922577
0.0954695
0.0986764
0.101835
0.104877
0.107663
0.110086
0.112092
0.113664
0.114703
0.0175901
0.036541
0.0459363
0.0525121
0.0577911
0.0623157
0.066348
0.0700387
0.0734854
0.0767579
0.079909
0.0829801
0.0860021
0.0889958
0.0919694
0.0949154
0.0978087
0.100607
0.103208
0.105532
0.107528
0.109168
0.110341
0.0167002
0.0347234
0.043766
0.0501527
0.0553179
0.0597692
0.0637495
0.0673961
0.0707962
0.0740099
0.0770818
0.0800462
0.0829298
0.0857518
0.0885224
0.0912416
0.0938969
0.0964639
0.0988704
0.101057
0.102982
0.104615
0.105843
0.0157565
0.032834
0.0415166
0.0477114
0.0527623
0.057142
0.0610741
0.0646832
0.0680462
0.0712147
0.0742259
0.077108
0.0798832
0.0825683
0.0851742
0.0877052
0.0901571
0.0925165
0.094732
0.0967638
0.0985794
0.100149
0.10137
0.0147597
0.0308857
0.0392105
0.0452178
0.0501591
0.0544722
0.058362
0.0619407
0.0652759
0.0684118
0.0713792
0.0742011
0.0768955
0.0794766
0.0819551
0.084337
0.0866236
0.0888046
0.0908474
0.0927259
0.0944158
0.0958921
0.0970657
0.013718
0.028902
0.036881
0.0427118
0.0475526
0.0518069
0.0556614
0.0592168
0.0625325
0.0656462
0.0685836
0.0713632
0.0739997
0.0765051
0.0788887
0.0811574
0.0833149
0.0853499
0.0872464
0.0889871
0.0905544
0.0919284
0.0930357
0.0126565
0.0269221
0.0345773
0.0402482
0.0450012
0.0492063
0.053033
0.0565714
0.0598736
0.0629722
0.0658889
0.0686389
0.0712344
0.0736855
0.0760002
0.078186
0.0802422
0.0821637
0.0839433
0.0855689
0.0870286
0.0883071
0.0893452
0.0116645
0.0250025
0.0323662
0.0379004
0.0425807
0.0467468
0.0505521
0.0540772
0.0573687
0.0604552
0.0633553
0.0660822
0.0686466
0.0710573
0.0733211
0.0754411
0.0774199
0.0792562
0.0809455
0.0824802
0.0838519
0.0850493
0.0860258
0.0107764
0.0232481
0.0303546
0.0357697
0.0403889
0.0445218
0.0483079
0.0518196
0.0550987
0.0581707
0.0610526
0.0637564
0.0662913
0.0686652
0.0708839
0.0729516
0.0748708
0.0766416
0.0782617
0.0797259
0.0810284
0.0821609
0.0830868
0.0100015
0.0217525
0.0286473
0.0339677
0.0385376
0.0426409
0.0464052
0.0498968
0.0531543
0.0562017
0.0590555
0.0617275
0.0642269
0.0665613
0.0687364
0.0707566
0.0726247
0.0743415
0.0759057
0.0773138
0.0785616
0.0796426
0.0805286
0.009385
0.0206119
0.0273512
0.0326022
0.0371324
0.0412058
0.044941
0.0484006
0.0516219
0.054629
0.0574392
0.0600652
0.062517
0.0648026
0.0669282
0.0688984
0.0707162
0.0723827
0.0738972
0.0752571
0.076459
0.0774979
0.0783512
0.00897549
0.0199085
0.0265597
0.031768
0.036266
0.040305
0.0439988
0.0474091
0.0505744
0.0535207
0.0562672
0.0588285
0.0612161
0.063439
0.0655042
0.0674167
0.0691796
0.0707941
0.0722597
0.0735741
0.0747341
0.0757353
0.0765602
0.00880835
0.0196975
0.0263383
0.0315333
0.036005
0.0400011
0.0436365
0.0469759
0.0500614
0.0529227
0.0555823
0.0580576
0.0603621
0.0625063
0.0644979
0.0663426
0.0680435
0.0696016
0.0710163
0.0722848
0.073404
0.0743696
0.0751672
0.00889964
0.0200037
0.0267204
0.031934
0.0363833
0.0403246
0.0438805
0.0471234
0.0501021
0.0528522
0.0554006
0.0577679
0.0599703
0.0620198
0.0639253
0.0656926
0.0673249
0.0688228
0.0701848
0.0714075
0.0724868
0.0734181
0.0741899
0.00924971
0.0208318
0.0277154
0.0329783
0.0374046
0.041273
0.0447229
0.0478398
0.0506827
0.0532945
0.0557077
0.0579466
0.0600299
0.0619713
0.0637808
0.0654645
0.0670253
0.0684629
0.0697744
0.0709546
0.0719983
0.0728999
0.0736493
0.00985425
0.0221807
0.0293205
0.0346555
0.0390467
0.0428136
0.046123
0.0490797
0.0517556
0.0542026
0.0564584
0.0585513
0.0605024
0.062327
0.0640359
0.0656355
0.0671281
0.0685119
0.0697818
0.0709302
0.0719491
0.0728314
0.0735681
0.0107154
0.0240579
0.031535
0.0369448
0.0412667
0.044885
0.0480074
0.0507636
0.0532401
0.055497
0.057577
0.0595112
0.0613224
0.0630273
0.0646375
0.0661597
0.0675954
0.068941
0.070188
0.0713249
0.07234
0.073224
0.0739676
0.0118493
0.0265022
0.0343832
0.0398292
0.044005
0.0473973
0.0502692
0.0527779
0.0550224
0.0570679
0.0589591
0.060728
0.0623983
0.0639876
0.0655082
0.0669675
0.0683663
0.0696988
0.0709523
0.07211
0.0731553
0.074076
0.0748629
0.013311
0.0296695
0.0379809
0.0433247
0.0471932
0.0502312
0.0527659
0.0549743
0.0569572
0.0587767
0.0604743
0.0620796
0.0636154
0.0650998
0.0665464
0.0679636
0.0693525
0.0707049
0.0720035
0.0732252
0.0743484
0.0753595
0.0762515
0.0153305
0.0341266
0.0426897
0.0475255
0.0507554
0.0532315
0.0553168
0.0571712
0.058872
0.0604627
0.0619728
0.0634256
0.0648411
0.0662373
0.0676294
0.0690281
0.0704355
0.0718424
0.0732271
0.0745608
0.0758189
0.0769934
0.0780898
0.0189886
0.0416145
0.0492919
0.052577
0.0545584
0.0561788
0.0576939
0.0591573
0.0605759
0.0619529
0.0632962
0.0646182
0.0659346
0.0672629
0.0686204
0.0700205
0.0714684
0.0729549
0.0744558
0.0759389
0.0773837
0.0788037
0.0802491
0.0296241
0.0562964
0.0585777
0.0582791
0.0582162
0.0587188
0.0596091
0.0606987
0.0618732
0.0630776
0.0642921
0.0655165
0.0667613
0.0680436
0.0693823
0.0707945
0.0722883
0.0738563
0.075474
0.07711
0.0787569
0.080476
0.082432
0.0773805
0.0808146
0.0687608
0.0630268
0.0607657
0.0602963
0.0607203
0.0615614
0.0625865
0.0636907
0.0648329
0.0660037
0.0672101
0.0684685
0.0697992
0.0712214
0.0727455
0.0743658
0.0760585
0.0777951
0.0795838
0.0815443
0.0840238
0.046559
0.0420977
0.0430426
0.0473174
0.0870242
0.0865621
0.0869933
0.0875115
0.104424
0.103186
0.102088
0.10128
0.114582
0.113206
0.111986
0.111052
0.12223
0.120856
0.119628
0.118582
0.128678
0.127259
0.125938
0.12471
0.134192
0.132739
0.131318
0.12994
0.138953
0.137631
0.136298
0.134937
0.143988
0.142768
0.14151
0.140206
0.149615
0.148558
0.147602
0.146504
0.15223
0.151865
0.152255
0.152467
0.150074
0.150912
0.152305
0.153213
0.144606
0.145474
0.146479
0.147104
0.138765
0.139259
0.139755
0.140101
0.13368
0.133833
0.133972
0.134053
0.129578
0.129563
0.129518
0.129429
0.126079
0.126054
0.125974
0.125828
0.122705
0.122759
0.122736
0.122625
0.11912
0.119284
0.119361
0.119336
0.11519
0.115459
0.115637
0.115712
0.110945
0.111292
0.111553
0.111716
0.106513
0.106906
0.107221
0.107447
0.102061
0.10247
0.10281
0.103072
0.0977441
0.0981476
0.0984902
0.0987635
0.0936832
0.0940677
0.0943981
0.0946665
0.0899551
0.0903155
0.0906262
0.0908813
0.0865994
0.086936
0.0872265
0.0874656
0.0836297
0.083946
0.0842183
0.0844428
0.0810468
0.0813468
0.0816049
0.0818174
0.0788498
0.079137
0.0793837
0.0795872
0.0770418
0.0773185
0.0775564
0.0777527
0.0756334
0.0759008
0.0761307
0.0763212
0.0746415
0.0749003
0.0751235
0.075309
0.0740887
0.0743407
0.0745584
0.0747406
0.0740016
0.0742505
0.0744666
0.0746488
0.0744089
0.0746632
0.0748855
0.075075
0.0753388
0.0756153
0.0758597
0.0760706
0.0768129
0.0771443
0.0774413
0.0777012
0.0788324
0.0792828
0.0796941
0.0800562
0.081353
0.0820541
0.082711
0.0832792
0.0842135
0.0854575
0.0867097
0.0876849
0.086826
0.0892437
0.0926165
0.094222
0.0662115
0.0740842
0.0804278
0.0809342
0.081697
0.0833274
0.0834819
0.0819798
0.0804712
0.0786084
0.0754711
0.0713016
0.0665517
0.061464
0.0561293
0.0505598
0.0446248
0.037229
0.0202114
0.0880786
0.0904315
0.092903
0.092198
0.0919582
0.0921368
0.0908737
0.0886057
0.0866642
0.0844363
0.08106
0.0766621
0.0715497
0.0659369
0.0599082
0.0534731
0.0465766
0.0380677
0.0198652
0.100705
0.101786
0.10239
0.101214
0.100243
0.0992665
0.0970631
0.0941144
0.0914521
0.0885825
0.0848171
0.0801333
0.0746674
0.0686075
0.0619913
0.0547722
0.0469326
0.0371206
0.0187792
0.110133
0.109944
0.109282
0.107695
0.106141
0.10441
0.1018
0.0984168
0.0949511
0.0912682
0.0869406
0.0818724
0.0760798
0.0696772
0.062665
0.0550162
0.0466917
0.0361858
0.0177521
0.117289
0.115982
0.114357
0.112323
0.110262
0.107926
0.104898
0.101192
0.0971546
0.0928179
0.087989
0.0825911
0.0766039
0.0700713
0.0629826
0.0552987
0.0467373
0.0355973
0.0168779
0.123015
0.120862
0.118531
0.116042
0.113489
0.110649
0.107253
0.103291
0.0989356
0.0942289
0.0891098
0.0835305
0.0774636
0.0709016
0.0637929
0.0560033
0.0470228
0.0351234
0.0161663
0.12796
0.125276
0.12248
0.119636
0.116724
0.113534
0.109887
0.105773
0.101267
0.0963937
0.0911339
0.0854547
0.0793179
0.0726585
0.0653335
0.0570777
0.0473201
0.0346068
0.0155487
0.132863
0.129883
0.126831
0.123773
0.120623
0.11721
0.113418
0.109234
0.104671
0.09971
0.0943278
0.0885031
0.0821963
0.0752922
0.0675422
0.0585323
0.0476628
0.0338496
0.0150142
0.138191
0.135221
0.132135
0.128928
0.125562
0.122009
0.118172
0.11399
0.10942
0.104386
0.0988251
0.0927336
0.0861188
0.0788483
0.0705744
0.0607736
0.0488364
0.0338484
0.0154525
0.144637
0.141801
0.138804
0.135361
0.13162
0.12798
0.12417
0.120035
0.115528
0.110495
0.104741
0.0982814
0.0912949
0.0837195
0.0750861
0.0647222
0.0519287
0.0358073
0.0171505
0.15186
0.149454
0.146588
0.142551
0.138422
0.134755
0.130976
0.126878
0.122568
0.117785
0.11195
0.105069
0.0977567
0.0901074
0.0813528
0.0706102
0.0574008
0.0400362
0.0201838
0.15345
0.152242
0.150188
0.146771
0.142913
0.139403
0.135913
0.131867
0.127728
0.123272
0.117513
0.110091
0.102136
0.0947464
0.0865466
0.07594
0.0625034
0.04512
0.0234095
0.147457
0.14708
0.145899
0.143587
0.140979
0.138347
0.13533
0.131619
0.127721
0.12396
0.119308
0.112522
0.103955
0.0957528
0.087713
0.0780564
0.0654949
0.0496687
0.0255363
0.140387
0.140178
0.139384
0.137865
0.135927
0.133823
0.131357
0.128166
0.124673
0.121204
0.116882
0.110699
0.102932
0.0950583
0.0870783
0.0776574
0.0659998
0.0512573
0.0265821
0.134082
0.13374
0.132954
0.131703
0.130158
0.128425
0.126337
0.123712
0.120725
0.117401
0.113172
0.107413
0.100627
0.0936264
0.086011
0.0769293
0.0659445
0.0517887
0.026932
0.12918
0.128552
0.127615
0.126379
0.124918
0.123288
0.121378
0.119115
0.116522
0.113353
0.109233
0.103954
0.0980289
0.0918273
0.0847956
0.0762144
0.0657222
0.0519865
0.0270335
0.125423
0.124567
0.123475
0.122162
0.120666
0.119014
0.117149
0.115013
0.112544
0.109468
0.105521
0.100772
0.0955489
0.0899089
0.0833305
0.0752325
0.0652126
0.0517866
0.0268119
0.122218
0.121289
0.120139
0.118786
0.117261
0.115578
0.113704
0.111576
0.109092
0.106045
0.102316
0.0979889
0.0932277
0.0879244
0.0816281
0.0738641
0.0641746
0.0509556
0.026085
0.119036
0.118188
0.1171
0.115792
0.114297
0.112625
0.11075
0.108608
0.106095
0.103086
0.0995176
0.0954535
0.0909298
0.085771
0.0796012
0.0720133
0.0625009
0.0494249
0.0248636
0.115571
0.114898
0.113961
0.112774
0.111369
0.109754
0.107905
0.105767
0.103255
0.100285
0.0968261
0.0928963
0.0884591
0.0833278
0.0771854
0.0696664
0.0602456
0.0473115
0.0233039
0.111731
0.111266
0.110517
0.109489
0.10821
0.106682
0.104889
0.10278
0.100292
0.0973687
0.0939807
0.0901115
0.0856901
0.0805393
0.0743895
0.0669076
0.0575721
0.0448443
0.0216226
0.107588
0.107313
0.106746
0.105879
0.104731
0.103303
0.101579
0.0995195
0.0970747
0.0942005
0.0908651
0.0870304
0.0826121
0.0774501
0.0713137
0.0639003
0.0547095
0.0422933
0.0200348
0.103297
0.103169
0.10275
0.102019
0.100986
0.0996536
0.0980039
0.0960032
0.0936119
0.0907925
0.0875095
0.0837147
0.0793225
0.0741924
0.0681267
0.0608533
0.0519018
0.0399118
0.018704
0.0990328
0.0990037
0.098688
0.0980597
0.0971188
0.0958677
0.0942873
0.0923482
0.0900173
0.0872609
0.0840421
0.0803103
0.0759851
0.0709457
0.0650226
0.0579729
0.0493565
0.0378832
0.0177022
0.0949505
0.0949778
0.0947264
0.0941671
0.0932944
0.0921094
0.0905914
0.0887143
0.0864495
0.0837665
0.0806295
0.07699
0.0727763
0.0678852
0.0621712
0.0554161
0.0472039
0.0362894
0.0170149
0.0911628
0.0912168
0.0910007
0.0904845
0.0896626
0.0885312
0.0870697
0.0852548
0.0830617
0.0804628
0.0774254
0.0739053
0.0698401
0.0651414
0.0596827
0.0532639
0.045483
0.0351152
0.0165703
0.0877363
0.0878007
0.0876027
0.0871145
0.0863328
0.0852469
0.0838386
0.0820871
0.0799705
0.0774647
0.0745402
0.071158
0.067264
0.0627814
0.0575969
0.0515213
0.0441571
0.0342786
0.0162842
0.084702
0.0847698
0.0845826
0.0841175
0.0833693
0.0823256
0.0809695
0.0792826
0.0772459
0.0748378
0.0720323
0.0687951
0.0650784
0.0608136
0.0558955
0.0501397
0.0431456
0.0336762
0.0160814
0.0820671
0.0821375
0.0819594
0.0815172
0.0808012
0.0797989
0.078495
0.0768733
0.0749166
0.0726058
0.0699175
0.0668207
0.0632721
0.0592081
0.0545275
0.0490469
0.0423593
0.0332131
0.0159105
0.0798304
0.0799047
0.0797394
0.0793199
0.0786361
0.0776755
0.0764239
0.0748663
0.072987
0.0707682
0.0681881
0.0652177
0.0618163
0.0579225
0.0534368
0.0481748
0.0417236
0.0328217
0.0157376
0.0779913
0.0780713
0.0779208
0.0775258
0.0768751
0.0759566
0.0747567
0.073261
0.0714542
0.069319
0.0668338
0.0639702
0.0606879
0.0569261
0.0525851
0.0474794
0.0411933
0.0324622
0.0155485
0.0765564
0.0766442
0.0765097
0.07614
0.0755235
0.0746478
0.0734992
0.0720631
0.0703239
0.0682635
0.0658593
0.0630817
0.0598888
0.0562183
0.051969
0.0469544
0.0407594
0.0321268
0.0153379
0.0755417
0.0756382
0.0755212
0.0751785
0.074598
0.0737669
0.0726707
0.0712941
0.0696202
0.067629
0.0652959
0.0625879
0.0594595
0.0558437
0.0516351
0.0466446
0.0404602
0.03184
0.0151175
0.0749731
0.0750802
0.0749832
0.0746707
0.0741302
0.0733479
0.0723086
0.0709956
0.0693904
0.0674705
0.0652077
0.0625642
0.0594875
0.0559024
0.0516934
0.046663
0.0403982
0.0316764
0.0149111
0.0748859
0.075009
0.0749373
0.0746607
0.074167
0.0734417
0.0724687
0.0712301
0.0697057
0.0678704
0.0656919
0.0631259
0.0601107
0.0565572
0.0523312
0.0472135
0.0407731
0.0317907
0.0147786
0.0753271
0.0754771
0.0754399
0.0752086
0.074772
0.0741162
0.0732247
0.0720792
0.0706582
0.0689348
0.0668732
0.0644227
0.0615109
0.0580304
0.0538178
0.04861
0.0419205
0.032477
0.0148311
0.0763586
0.076555
0.0765662
0.0763922
0.0760262
0.0754561
0.0746666
0.07364
0.0723554
0.0707856
0.0688933
0.0666239
0.0638961
0.0605839
0.0564867
0.0512722
0.0443382
0.0342353
0.015296
0.0780645
0.0783382
0.0784149
0.078311
0.0780291
0.0775622
0.0768979
0.0760209
0.074913
0.0735493
0.0718945
0.0698953
0.0674679
0.0644754
0.0606837
0.0556761
0.048661
0.0378064
0.0165875
0.0805654
0.0809579
0.0811146
0.081088
0.0808992
0.0805497
0.080032
0.0793353
0.0784456
0.0773432
0.0759993
0.0743684
0.072376
0.0698921
0.0666751
0.062245
0.0555792
0.0441679
0.0194677
0.0840496
0.0845949
0.0848276
0.0848701
0.0847713
0.084544
0.0841866
0.0836932
0.0830553
0.0822604
0.0812892
0.0801105
0.0786715
0.0768752
0.0745242
0.0711715
0.0656764
0.054648
0.02558
0.0888373
0.0894901
0.0897439
0.089819
0.089789
0.0896738
0.0894758
0.0891933
0.0888228
0.0883585
0.0877916
0.0871075
0.0862817
0.0852696
0.0839754
0.082151
0.0789878
0.071038
0.0402856
0.0954699
0.0959163
0.0960503
0.0960914
0.0960909
0.0960605
0.0960019
0.0959152
0.0958
0.0956554
0.0954802
0.0952723
0.0950296
0.0947507
0.0944397
0.094117
0.0938328
0.0934717
0.0869914
)
;

boundaryField
{
    leftWall
    {
        type            kqRWallFunction;
        value           nonuniform List<scalar> 
50
(
0.00122296
0.00306507
0.00448723
0.00571547
0.00675426
0.00761474
0.00830168
0.00877826
0.00904656
0.00893872
0.00969823
0.0108582
0.0120111
0.0128731
0.0130082
0.0137349
0.0157828
0.0176236
0.0197415
0.0211259
0.0219026
0.0222353
0.0220763
0.021544
0.0207936
0.0199863
0.0192215
0.0184289
0.0175901
0.0167002
0.0157565
0.0147597
0.013718
0.0126565
0.0116645
0.0107764
0.0100015
0.009385
0.00897549
0.00880835
0.00889964
0.00924971
0.00985425
0.0107154
0.0118493
0.013311
0.0153305
0.0189886
0.0296241
0.0773805
)
;
    }
    rightWall
    {
        type            kqRWallFunction;
        value           nonuniform List<scalar> 
50
(
0.00279832
0.00683759
0.00970578
0.0123988
0.0149697
0.017004
0.0183416
0.019237
0.0202114
0.0198652
0.0187792
0.0177521
0.0168779
0.0161663
0.0155487
0.0150142
0.0154525
0.0171505
0.0201838
0.0234095
0.0255363
0.0265821
0.026932
0.0270335
0.0268119
0.026085
0.0248636
0.0233039
0.0216226
0.0200348
0.018704
0.0177022
0.0170149
0.0165703
0.0162842
0.0160814
0.0159105
0.0157376
0.0155485
0.0153379
0.0151175
0.0149111
0.0147786
0.0148311
0.015296
0.0165875
0.0194677
0.02558
0.0402856
0.0869914
)
;
    }
    lowerWall
    {
        type            kqRWallFunction;
        value           nonuniform List<scalar> 
62
(
0.00122296
0.00333943
0.00494276
0.006317
0.00754615
0.00867932
0.0097453
0.0107629
0.0117527
0.0127527
0.0136713
0.0144858
0.0151836
0.0157598
0.0162064
0.0164943
0.0165634
0.0163236
0.015639
0.0142813
0.0118798
0.00787282
0.00229135
0.00229135
0.00625825
0.00943684
0.0125341
0.0158585
0.0200659
0.0266059
0.0393684
0.046559
0.0420977
0.0430426
0.0473174
0.00272128
0.00696585
0.0102896
0.0131884
0.0162159
0.0200815
0.026724
0.0393876
0.00272128
0.00584447
0.00826231
0.010068
0.0115673
0.0136559
0.0150802
0.0153529
0.0155142
0.0155958
0.0154667
0.0147392
0.0137234
0.0126566
0.0112875
0.0100007
0.00875811
0.00712118
0.00279832
)
;
    }
    atmosphere
    {
        type            inletOutlet;
        inletValue      uniform 0.1;
        value           nonuniform List<scalar> 
46
(
0.1
0.0808146
0.0687608
0.0630268
0.0607657
0.0602963
0.0607203
0.0615614
0.0625865
0.0636907
0.0648329
0.0660037
0.0672101
0.0684685
0.0697992
0.0712214
0.0727455
0.0743658
0.0760585
0.0777951
0.0795838
0.0815443
0.0840238
0.086826
0.0892437
0.1
0.1
0.1
0.1
0.1
0.1
0.1
0.1
0.1
0.1
0.1
0.1
0.1
0.1
0.1
0.1
0.1
0.1
0.1
0.1
0.1
)
;
    }
    defaultFaces
    {
        type            empty;
    }
}


// ************************************************************************* //
