/*--------------------------------*- C++ -*----------------------------------*\
  =========                 |
  \\      /  F ield         | OpenFOAM: The Open Source CFD Toolbox
   \\    /   O peration     | Website:  https://openfoam.org
    \\  /    A nd           | Version:  13
     \\/     M anipulation  |
\*---------------------------------------------------------------------------*/
FoamFile
{
    format      ascii;
    class       volScalarField;
    location    "1.95";
    object      nut;
}
// * * * * * * * * * * * * * * * * * * * * * * * * * * * * * * * * * * * * * //

dimensions      [0 2 -1 0 0 0 0];

internalField   nonuniform List<scalar> 
2268
(
2.33051e-05
3.87901e-05
4.71191e-05
5.32559e-05
5.8263e-05
6.25874e-05
6.64441e-05
6.99527e-05
7.32202e-05
7.632e-05
7.89818e-05
8.1222e-05
8.30533e-05
8.44953e-05
8.55505e-05
8.61666e-05
8.62179e-05
8.54921e-05
8.36183e-05
7.98876e-05
7.28714e-05
5.94849e-05
3.20533e-05
7.9018e-05
0.000277745
0.000361158
0.00042957
0.000493258
0.000554521
0.000613337
0.000668996
0.000720314
0.000761721
0.000796435
0.000825535
0.000849253
0.000867727
0.000880913
0.000888272
0.000888379
0.000878261
0.000852079
0.000798779
0.000698014
0.00051019
0.000111433
9.57952e-05
0.000501032
0.000690055
0.000837247
0.000973376
0.00110415
0.00122974
0.00134872
0.00145862
0.00155296
0.00163362
0.00170127
0.00175601
0.0017979
0.00182659
0.00184038
0.00183507
0.00180224
0.00172606
0.00157808
0.00131111
0.000853684
0.000136815
0.000108092
0.000676731
0.000972353
0.00119406
0.00139564
0.00158743
0.00177058
0.00194371
0.00210398
0.00224568
0.00236896
0.00247344
0.00255859
0.00262388
0.00266805
0.00268757
0.00267469
0.00261462
0.00248076
0.00222812
0.00178903
0.0010858
0.00015751
0.000117353
0.000812328
0.00120834
0.00149837
0.00175743
0.00200122
0.00223246
0.00245038
0.00265237
0.0028338
0.00299367
0.00313063
0.00324341
0.00333069
0.00339002
0.00341585
0.00339677
0.00331188
0.00312501
0.00277726
0.00218476
0.00126956
0.000176999
0.000124378
0.000914628
0.00140137
0.00175358
0.00206328
0.00235161
0.0026233
0.0028786
0.00311548
0.00333034
0.00352141
0.0036867
0.00382437
0.00393238
0.00400716
0.00404125
0.00402
0.00391738
0.00368969
0.00326708
0.00254958
0.0014465
0.000198785
0.000129582
0.000988729
0.00155471
0.00196335
0.00231815
0.00264527
0.0029517
0.00323891
0.00350579
0.00374947
0.00396766
0.00415805
0.00431856
0.00444671
0.00453802
0.00458346
0.00456578
0.0044551
0.00420279
0.00373196
0.00292676
0.00165789
0.000228655
0.000133171
0.00103903
0.00167148
0.00213141
0.00252707
0.00288871
0.00322571
0.0035409
0.00383447
0.00410377
0.00434618
0.0045594
0.00474148
0.00488981
0.00499937
0.00505991
0.00505214
0.00494367
0.00468376
0.00419422
0.00335233
0.00196449
0.000278393
3.40409e-05
5.08536e-05
6.16075e-05
6.90183e-05
7.41468e-05
8.02344e-05
8.44756e-05
8.44657e-05
8.44878e-05
8.43361e-05
8.38311e-05
8.18551e-05
7.8936e-05
7.60901e-05
7.16864e-05
6.70359e-05
6.21444e-05
5.59056e-05
3.64887e-05
0.000128535
0.000366687
0.000550371
0.000669428
0.000749157
0.000830585
0.000891
0.000894235
0.000874387
0.000852479
0.00083197
0.000804766
0.000765907
0.000717903
0.000643402
0.00055518
0.000465722
0.000381652
0.000131161
0.000157087
0.000589869
0.000980162
0.00125008
0.00144219
0.00163625
0.00177521
0.00180347
0.00176959
0.00172733
0.00167909
0.00161344
0.00152061
0.00140423
0.00124829
0.00107239
0.000884192
0.000674148
0.000154216
0.000176986
0.000770955
0.00135346
0.00176183
0.00204451
0.0023168
0.00251453
0.00257251
0.00253369
0.00247931
0.00240516
0.00230365
0.00216305
0.0019867
0.00176768
0.00152208
0.00124417
0.000894095
0.000172168
0.000194596
0.000932081
0.00171557
0.00224256
0.00259658
0.00291246
0.00314166
0.00321954
0.00317953
0.00311546
0.0030181
0.00288423
0.00270388
0.00247994
0.00221137
0.00190861
0.00154825
0.00105974
0.000188193
0.000213901
0.00107279
0.00208276
0.00271354
0.00311545
0.00345012
0.00368815
0.00377158
0.00373294
0.00365785
0.00354037
0.00337709
0.00316232
0.00289941
0.00258927
0.00223649
0.00180169
0.00118931
0.000200503
0.00024563
0.0012479
0.0024735
0.00318317
0.00361217
0.00394756
0.00417672
0.00425388
0.00421207
0.0041242
0.00398672
0.00379722
0.00355207
0.00325504
0.00290783
0.00250931
0.00200974
0.00129472
0.000208734
0.000302996
0.00160924
0.00291431
0.00365632
0.00409084
0.00441329
0.00462188
0.00468258
0.0046315
0.00452863
0.00437033
0.00415482
0.00388165
0.00355357
0.00317216
0.0027314
0.00217539
0.00137591
0.000213751
0.000136724
0.00108712
0.00180333
0.00233692
0.00279136
0.00320179
0.0035814
0.00393523
0.00426479
0.0045677
0.00484269
0.00508799
0.00530224
0.00548299
0.00562451
0.00571477
0.00573161
0.00564018
0.00539046
0.00491275
0.00411697
0.00292128
0.00142538
0.000134373
0.00107183
0.00186556
0.00248179
0.00300576
0.00347498
0.00390583
0.00430558
0.00467622
0.00501866
0.0053337
0.00562172
0.00588275
0.00611473
0.00631074
0.00645597
0.00652479
0.0064814
0.0062825
0.00588053
0.00524005
0.00436295
0.0033577
0.000138197
0.00105045
0.00188736
0.0025626
0.00314085
0.00365832
0.00413276
0.00457297
0.00498207
0.00536339
0.00571949
0.00605309
0.00636586
0.00665575
0.00691351
0.00712004
0.00724522
0.00725316
0.0071099
0.00679737
0.00631501
0.00570144
0.00506795
0.000145136
0.00104969
0.00190538
0.00261657
0.0032346
0.00379152
0.00430385
0.00478039
0.00522659
0.00564655
0.00604502
0.00642711
0.00679568
0.00714739
0.00746884
0.00773518
0.00791044
0.00795989
0.00786521
0.00762347
0.00725459
0.00681249
0.00639361
0.00015209
0.00104807
0.00191768
0.00265633
0.00330848
0.00390182
0.00445039
0.00496212
0.00544367
0.00590083
0.00634107
0.00677186
0.00719619
0.00760744
0.00798585
0.00829889
0.0085064
0.00858199
0.00851905
0.00832704
0.00804097
0.00772032
0.00743882
0.000157338
0.00105701
0.00192008
0.00268503
0.00337642
0.00401149
0.00459957
0.00514625
0.00565927
0.00614916
0.00662642
0.00710014
0.00757083
0.00802613
0.00844167
0.00878331
0.00901103
0.00910459
0.00906481
0.00891424
0.00869525
0.00846122
0.00826573
0.000158656
0.0010133
0.00190313
0.00271907
0.00346485
0.00414954
0.0047777
0.00535491
0.00589273
0.00640722
0.00691306
0.00741804
0.00792071
0.00840411
0.00883977
0.00919263
0.00942891
0.00953544
0.00951734
0.0094017
0.00923285
0.00905951
0.00891965
0.000164445
0.00100609
0.00195285
0.00282359
0.0036213
0.00435042
0.00500982
0.00560743
0.00615953
0.00668802
0.00720982
0.00773274
0.00825236
0.00874856
0.00918855
0.00954031
0.00978311
0.0099041
0.00990591
0.00981147
0.00967308
0.0095404
0.00943647
0.000177757
0.00114425
0.0021509
0.00305427
0.00388816
0.00464432
0.00531714
0.00591848
0.00646906
0.00699455
0.00751148
0.00802876
0.00854178
0.00903039
0.00946624
0.00982321
0.0100857
0.0102381
0.0102643
0.0101574
0.0100278
0.0099293
0.00985093
0.000188896
0.00126394
0.00238435
0.00338362
0.00425794
0.00501553
0.00567914
0.00626576
0.00679533
0.00728992
0.00776744
0.00823863
0.0087027
0.00914179
0.00954287
0.0098874
0.0101557
0.010329
0.010385
0.010358
0.0103072
0.0102622
0.0101911
0.000200234
0.00152698
0.00274469
0.00374487
0.00460141
0.0053412
0.0059868
0.00655862
0.00707191
0.00754347
0.00798993
0.00842112
0.00883851
0.00923385
0.00959431
0.00990555
0.010153
0.0103211
0.01041
0.0104468
0.010473
0.0104768
0.0104193
0.00020751
0.00167269
0.00298298
0.00401098
0.00486268
0.00559228
0.00622769
0.00678973
0.0072937
0.00775269
0.00817997
0.00858457
0.00896969
0.00933206
0.00966287
0.00995004
0.0101802
0.0103405
0.0104303
0.0104824
0.0105263
0.0105477
0.0105235
0.000211054
0.0017477
0.00313086
0.00419161
0.00505194
0.00577875
0.00640872
0.00696527
0.00746376
0.00791608
0.00833256
0.00872101
0.00908554
0.00942571
0.00973571
0.0100054
0.0102225
0.010376
0.010466
0.0105167
0.0105551
0.0105764
0.0105715
0.000212292
0.0017846
0.00321648
0.00430542
0.00517641
0.00590492
0.00653311
0.00708673
0.00758174
0.00803005
0.00844045
0.00881968
0.00917203
0.00949822
0.00979462
0.0100533
0.0102639
0.0104165
0.0105097
0.0105608
0.0105919
0.0106086
0.0106082
0.000211349
0.0017988
0.0032571
0.0043654
0.00524599
0.0059775
0.00660542
0.00715711
0.00764955
0.00809473
0.00850102
0.00887454
0.00921934
0.00953674
0.00982451
0.0100768
0.0102854
0.0104417
0.0105431
0.0106008
0.0106318
0.0106458
0.0106427
0.000208703
0.00179602
0.00326351
0.00438221
0.0052692
0.00600318
0.00663104
0.00718103
0.00767117
0.0081135
0.0085163
0.00888549
0.00922495
0.00953629
0.0098183
0.0100668
0.0102755
0.0104377
0.0105499
0.0106191
0.0106572
0.0106734
0.0106693
0.000204957
0.00177874
0.00324209
0.00436344
0.00525323
0.00598833
0.00661558
0.00716391
0.00765175
0.00809129
0.00849085
0.00885628
0.00919144
0.00949816
0.00977598
0.0100221
0.010232
0.0104003
0.0105236
0.0106059
0.0106551
0.0106789
0.0106786
0.000200898
0.00174797
0.00319743
0.00431514
0.00520428
0.00593882
0.00656489
0.00711141
0.00759695
0.00803378
0.00843028
0.0087923
0.00912373
0.00942663
0.00970118
0.00994567
0.0101569
0.0103309
0.0104644
0.0105595
0.0106214
0.0106558
0.0106635
0.000196984
0.0017072
0.00313443
0.00424279
0.00512793
0.0058603
0.00648457
0.00702917
0.0075125
0.00794684
0.00834056
0.00869952
0.00902768
0.00932734
0.0095992
0.00984241
0.0100549
0.0102338
0.010376
0.0104826
0.010557
0.0106031
0.010621
0.000192851
0.00166056
0.00305815
0.00415179
0.00502968
0.00575819
0.00638002
0.00692263
0.00740403
0.00783627
0.00822767
0.00858405
0.00890944
0.00920637
0.00947597
0.0097181
0.00993155
0.0101144
0.0102638
0.0103801
0.0104656
0.0105229
0.0105513
0.000188404
0.00160995
0.00297219
0.0040466
0.00491436
0.00563751
0.00625635
0.00679705
0.00727692
0.00770766
0.00809739
0.00845184
0.0087751
0.00906984
0.00933759
0.00957877
0.00979287
0.00997864
0.0101336
0.0102578
0.0103526
0.0104197
0.0104579
0.000183598
0.00155651
0.00287922
0.00393093
0.00478633
0.00550299
0.00611854
0.00665759
0.00713653
0.00756651
0.00795537
0.00830871
0.00863057
0.00892378
0.00919014
0.00943051
0.00964495
0.00983278
0.00999188
0.0101221
0.0102243
0.0102996
0.0103461
0.000178397
0.00150117
0.00278154
0.0038082
0.0046498
0.00535939
0.0059717
0.00650958
0.0069883
0.0074184
0.0078073
0.00816041
0.00848171
0.00877409
0.00903957
0.00927936
0.00949394
0.00968305
0.00984497
0.00997959
0.0100874
0.0101691
0.0102226
0.000172769
0.00144483
0.00268141
0.00368191
0.00450923
0.00521181
0.00582135
0.00635875
0.00683811
0.00726922
0.00765908
0.00801285
0.0083344
0.00862667
0.00889181
0.00913129
0.00934594
0.00953563
0.00969931
0.00983697
0.00994887
0.0100353
0.0100943
0.000166713
0.00138836
0.00258126
0.00355597
0.00436967
0.00506606
0.00567372
0.00621156
0.00669244
0.00712541
0.00751701
0.00787217
0.00819466
0.0084874
0.00875266
0.00899209
0.00920675
0.00939647
0.00956111
0.00970068
0.00981534
0.00990518
0.00996846
0.000160299
0.00133216
0.00248362
0.00343496
0.00423709
0.00492896
0.00553603
0.00607531
0.0065585
0.00699395
0.00738781
0.00774479
0.00806859
0.00836215
0.00862777
0.00886728
0.00908156
0.00927105
0.00943604
0.00957665
0.00969302
0.00978516
0.00985155
0.00015395
0.00127428
0.002391
0.00332452
0.0041187
0.00480839
0.00541637
0.005958
0.00644401
0.00688218
0.00727837
0.00763715
0.00796219
0.00825647
0.00852233
0.00876142
0.00897505
0.00916405
0.00932891
0.00946986
0.0095871
0.00968063
0.0097492
0.000148108
0.0012221
0.00231247
0.00323368
0.00402353
0.00471317
0.00532324
0.00586773
0.00635659
0.00679719
0.00719521
0.00755515
0.00788071
0.0081749
0.00844016
0.00867837
0.008891
0.00907907
0.00924324
0.0093839
0.00950128
0.00959546
0.00966541
0.0001428
0.00118268
0.00225711
0.00317269
0.00396188
0.00465317
0.00526568
0.00581257
0.0063033
0.00674504
0.00714346
0.00750313
0.00782785
0.00812074
0.00838437
0.00862081
0.00883166
0.00901808
0.00918088
0.00932054
0.0094374
0.00953155
0.00960225
0.000138384
0.00116033
0.00223125
0.00314824
0.00394027
0.00463443
0.00524918
0.00579734
0.00628829
0.00672926
0.00712605
0.00748344
0.00780542
0.00809529
0.00835581
0.00858917
0.0087971
0.0089809
0.00914147
0.00927939
0.00939503
0.00948856
0.00955941
0.000135299
0.0011565
0.00223685
0.00316216
0.00396011
0.00465791
0.00527423
0.00582213
0.00631126
0.00674916
0.00714196
0.00749476
0.00781181
0.00809668
0.00835229
0.00858102
0.00878472
0.00896478
0.00912216
0.00925753
0.00937128
0.00946361
0.00953414
0.000133912
0.00116959
0.00227042
0.00320987
0.00401627
0.00471823
0.00533538
0.0058815
0.00636681
0.0067994
0.00718587
0.00753176
0.00784169
0.00811954
0.00836845
0.00859099
0.0087891
0.00896427
0.00911752
0.00924954
0.00936077
0.00945143
0.00952124
0.000134407
0.00119559
0.00232383
0.00328119
0.00409791
0.00480459
0.00542219
0.00596544
0.00644537
0.00687077
0.0072489
0.00758586
0.00788672
0.00815573
0.00839632
0.00861121
0.00880249
0.00897171
0.00911994
0.00924791
0.00935606
0.00944464
0.00951349
0.000136774
0.00122974
0.00238717
0.00336378
0.00419197
0.00490407
0.00552222
0.00606208
0.00653561
0.00695245
0.00732067
0.00764705
0.00793724
0.00819589
0.00842675
0.00863274
0.00881607
0.00897835
0.00912071
0.00924391
0.00934847
0.00943466
0.00950235
0.00014087
0.00126794
0.00245213
0.00344725
0.00428743
0.00500569
0.00562472
0.006161
0.00662742
0.00703466
0.00739173
0.00770622
0.00798442
0.00823147
0.00845141
0.00864737
0.00882165
0.00897592
0.00911143
0.00922904
0.00932938
0.0094128
0.00947924
0.000146529
0.00130746
0.00251397
0.00352594
0.00437814
0.00510293
0.00572297
0.00625533
0.00671395
0.00711064
0.00745548
0.00775698
0.00802213
0.00825653
0.00846451
0.00864933
0.00881336
0.00895833
0.00908563
0.00919644
0.00929166
0.00937184
0.0094369
0.000153642
0.00134748
0.0025726
0.00359969
0.0044632
0.00519403
0.00581443
0.00634203
0.00679188
0.00717703
0.00750873
0.00779639
0.0080477
0.00826866
0.00846382
0.00863644
0.00878884
0.00892282
0.00904008
0.00914235
0.00923115
0.00930741
0.00937102
0.000162352
0.00139201
0.00263452
0.00367392
0.00454592
0.00528035
0.00589911
0.00642038
0.00686027
0.00723302
0.00755098
0.00782441
0.00806157
0.00826879
0.00845063
0.00861019
0.00874958
0.00887064
0.00897558
0.00906712
0.00914792
0.00921952
0.00928161
0.000173827
0.00145624
0.00271611
0.00375953
0.00463185
0.00536399
0.00597732
0.00649002
0.00691881
0.00727879
0.00758312
0.00784273
0.00806628
0.00826022
0.00842895
0.00857516
0.00870059
0.00880703
0.00889744
0.00897612
0.00904743
0.0091138
0.00917444
0.000193078
0.00157689
0.00284382
0.00386925
0.00472497
0.00544468
0.00604731
0.00654919
0.00696645
0.0073143
0.00760626
0.00785361
0.0080652
0.00824743
0.00840433
0.00853803
0.00864968
0.00874097
0.00881581
0.0088805
0.00894166
0.00900275
0.00906204
0.000239127
0.00184019
0.00304442
0.00400505
0.0048197
0.00551581
0.00610348
0.00659388
0.00700083
0.00733879
0.00762112
0.00785914
0.00806172
0.00823507
0.00838282
0.00850647
0.00860654
0.00868458
0.00874538
0.00879732
0.00884931
0.00890574
0.0089636
0.000472129
0.00248165
0.00333993
0.00413916
0.00489152
0.00556155
0.00613621
0.00661841
0.00701895
0.00735119
0.00762816
0.00786109
0.00805877
0.00822728
0.00836997
0.00848791
0.00858117
0.0086512
0.00870333
0.00874729
0.00879346
0.0088467
0.00890253
0.000303601
0.000287629
0.000291113
0.00030924
0.00265669
0.00253571
0.00254735
0.00268958
0.00469544
0.00456823
0.00454459
0.00462665
0.00617443
0.00609487
0.0060794
0.00612544
0.00730361
0.00725434
0.00724294
0.00726527
0.00817562
0.00814064
0.00812716
0.00813131
0.00885362
0.00882414
0.00880579
0.00879558
0.00938326
0.00935553
0.00933256
0.00931195
0.0098005
0.0097704
0.0097426
0.00971512
0.0101273
0.0100938
0.0100678
0.0100416
0.0103675
0.0103464
0.0103372
0.0103242
0.01051
0.0105115
0.0105168
0.0105116
0.0105738
0.0105787
0.0105807
0.0105729
0.0106088
0.0106079
0.0106033
0.010593
0.0106356
0.0106285
0.0106185
0.010605
0.0106576
0.0106474
0.0106346
0.0106187
0.0106673
0.0106572
0.010644
0.0106275
0.0106563
0.0106484
0.0106369
0.0106214
0.0106197
0.0106152
0.0106067
0.0105935
0.0105566
0.0105561
0.010551
0.0105408
0.0104695
0.0104729
0.0104713
0.0104643
0.0103635
0.0103702
0.0103719
0.010368
0.0102448
0.0102545
0.010259
0.0102578
0.0101204
0.0101326
0.0101394
0.0101406
0.00999769
0.0100118
0.0100206
0.0100236
0.0098832
0.00989877
0.00990909
0.00991378
0.00978264
0.00979936
0.00981087
0.00981687
0.00970015
0.0097177
0.00973013
0.00973718
0.00963784
0.00965599
0.00966912
0.00967701
0.00959551
0.00961407
0.00962773
0.00963632
0.00957048
0.00958931
0.0096034
0.00961259
0.00955766
0.00957668
0.00959113
0.00960089
0.00954987
0.00956906
0.00958389
0.00959424
0.0095387
0.00955809
0.00957334
0.00958436
0.00951561
0.00953526
0.00955104
0.00956282
0.00947342
0.00949345
0.00950988
0.00952257
0.00940785
0.0094284
0.00944564
0.00945943
0.00931893
0.00934012
0.00935833
0.00937338
0.00921218
0.00923389
0.00925295
0.00926917
0.00909939
0.0091209
0.00913993
0.00915685
0.00899884
0.00901864
0.00903579
0.00905307
0.00893387
0.00895136
0.00896892
0.00898992
0.00148072
0.00261012
0.00369862
0.00438861
0.00480329
0.00508103
0.00523712
0.00526381
0.00519769
0.00506996
0.00487869
0.00462299
0.00430782
0.00393594
0.00350667
0.00300422
0.00236985
0.00146519
0.000219032
0.00326212
0.00404585
0.00485432
0.00538229
0.00569544
0.00587553
0.00594068
0.00590026
0.00578312
0.00560396
0.00535927
0.00504945
0.00467729
0.00424469
0.00374714
0.00316723
0.0024476
0.00147127
0.000217907
0.00489532
0.00542448
0.00594813
0.00629146
0.00647861
0.0065517
0.006523
0.00640492
0.00621986
0.00597566
0.00566797
0.00529582
0.00486008
0.00436266
0.00379835
0.00314557
0.00235414
0.00134621
0.000212482
0.00626398
0.00658066
0.00687773
0.00705841
0.0071261
0.00709994
0.00698632
0.00679188
0.00653297
0.00621591
0.00583805
0.00539751
0.00489403
0.00432932
0.00369932
0.00298983
0.0021757
0.00121912
0.000206398
0.00733204
0.00749338
0.0076281
0.00768016
0.00764607
0.00753254
0.0073422
0.00707861
0.00675088
0.00636383
0.00591675
0.00540875
0.00484057
0.00421542
0.00353491
0.00279892
0.00200563
0.00111945
0.000200707
0.00815042
0.00820474
0.00822619
0.00818106
0.00806471
0.00787879
0.00762385
0.00730149
0.00691614
0.0064705
0.00596494
0.00540023
0.00477935
0.00410844
0.00339529
0.00264898
0.00187464
0.00104447
0.00019576
0.00878117
0.00876263
0.00870611
0.00859055
0.0084123
0.00817112
0.00786697
0.00750053
0.00707347
0.00658672
0.00604074
0.00543721
0.00478057
0.00407844
0.00334048
0.00257728
0.00179625
0.000989984
0.000191456
0.00927464
0.00920782
0.0090997
0.00893624
0.0087153
0.00843681
0.00810091
0.00770809
0.00725848
0.00675096
0.00618465
0.00556074
0.00488346
0.00415942
0.0033962
0.00260167
0.00178503
0.000956056
0.000188241
0.00966517
0.00957184
0.0094337
0.00924092
0.00899465
0.0086965
0.00834664
0.00794565
0.00749257
0.00698375
0.00641521
0.00578607
0.00509938
0.00435927
0.00356834
0.00272924
0.00185178
0.0009594
0.000192599
0.00999092
0.00988593
0.00973268
0.0095242
0.00926645
0.00896457
0.00861604
0.00822173
0.00778084
0.00728672
0.00673001
0.00610649
0.00541884
0.00466894
0.00385144
0.00295908
0.00199673
0.0010053
0.000205471
0.0102856
0.0101736
0.0100126
0.00979641
0.00954049
0.00924893
0.00891314
0.00853528
0.00811735
0.00764964
0.00711388
0.00650302
0.00582384
0.00507578
0.00424021
0.00329318
0.00223227
0.00110414
0.000225189
0.0104808
0.0103826
0.0102325
0.0100312
0.00979434
0.00952588
0.00921433
0.00885883
0.00846701
0.00802669
0.00751153
0.00691347
0.00624949
0.00552808
0.00470461
0.00372875
0.00258441
0.00130339
0.000240996
0.0105456
0.0104679
0.0103438
0.0101747
0.0099717
0.00973189
0.00944788
0.00911967
0.0087543
0.00834249
0.00786019
0.0072931
0.00665457
0.00596005
0.00516963
0.00422174
0.00306292
0.00167284
0.00024981
0.0105669
0.0105016
0.0103981
0.0102571
0.0100802
0.00986475
0.00960678
0.00930681
0.00896955
0.00858248
0.00812572
0.0075915
0.00699339
0.00633084
0.00555703
0.00460598
0.00340699
0.00186418
0.000253831
0.0105765
0.0105159
0.0104243
0.0103007
0.0101445
0.00995015
0.0097162
0.00944332
0.00913141
0.00876524
0.00832974
0.00782255
0.00725665
0.00661788
0.00584954
0.00488658
0.00363701
0.00196872
0.000255546
0.0105865
0.0105243
0.0104374
0.0103233
0.0101796
0.0100008
0.00978525
0.0095324
0.0092386
0.00888879
0.00847067
0.00798453
0.00743745
0.00681121
0.00605207
0.0050854
0.00380189
0.00205777
0.000256829
0.0105929
0.0105273
0.0104408
0.01033
0.010192
0.0100222
0.00981784
0.00957618
0.00929179
0.00895226
0.00854752
0.00807756
0.00754222
0.00692156
0.00616768
0.0052056
0.0039143
0.00212708
0.000256461
0.010587
0.0105192
0.0104316
0.0103208
0.0101839
0.0100173
0.00981717
0.00957966
0.00929854
0.00896411
0.00856886
0.00810981
0.00758175
0.00696425
0.00621435
0.00525942
0.00397317
0.00216912
0.000253553
0.0105614
0.0104941
0.0104061
0.0102943
0.0101563
0.00998912
0.00978893
0.00955139
0.00927028
0.00893801
0.00854782
0.00809472
0.00757013
0.00695366
0.00620613
0.00525823
0.00398344
0.0021835
0.000248236
0.0105128
0.0104482
0.0103613
0.0102491
0.0101098
0.00994082
0.00973872
0.00949924
0.00921667
0.00888436
0.00849589
0.00804467
0.00752022
0.00690253
0.00615521
0.00521276
0.00395238
0.0021725
0.000241149
0.0104411
0.0103809
0.0102965
0.0101852
0.0100453
0.00987489
0.00967079
0.00942902
0.00914436
0.00881075
0.00842168
0.00796952
0.00744281
0.00682193
0.00607268
0.00513345
0.00388784
0.00213906
0.000233134
0.0103496
0.0102946
0.0102137
0.0101043
0.00996507
0.0097942
0.00958884
0.00934525
0.00905861
0.00872316
0.00833227
0.00787768
0.00734737
0.00672205
0.00596917
0.00503087
0.0037985
0.00208696
0.000225109
0.0102439
0.0101942
0.0101173
0.0100107
0.00987314
0.00970291
0.00949728
0.00925273
0.00896467
0.00862754
0.00823459
0.00777717
0.00724291
0.00661272
0.00585527
0.004916
0.00369439
0.00202201
0.00021789
0.0101308
0.0100863
0.0100136
0.00991027
0.00977516
0.00960651
0.00940164
0.00915709
0.00886847
0.00853029
0.00813574
0.00767587
0.00713808
0.00650332
0.00574116
0.00479986
0.00358674
0.00195254
0.000212
0.0100175
0.00997778
0.00990924
0.0098096
0.00967758
0.00951127
0.00930804
0.00906448
0.00877626
0.00843794
0.00804261
0.00758111
0.00704063
0.00640212
0.00563584
0.00469243
0.00348644
0.00188752
0.000207587
0.00991073
0.00987546
0.00981099
0.0097152
0.00958667
0.00942332
0.0092225
0.00898082
0.00869393
0.0083564
0.0079612
0.00749901
0.00695682
0.00631561
0.00554617
0.00460127
0.00340175
0.00183363
0.000204465
0.00981642
0.00978516
0.0097246
0.00963274
0.00950793
0.00934799
0.00915021
0.00891112
0.00862637
0.00829042
0.00789615
0.00743407
0.006891
0.00624798
0.00547631
0.00453053
0.00333668
0.00179331
0.000202285
0.00973892
0.00971125
0.00965443
0.00956648
0.00944553
0.00928933
0.00909505
0.00885914
0.00857712
0.00824335
0.00785056
0.00738906
0.00684558
0.00620117
0.00542758
0.00448085
0.00329099
0.00176549
0.000200672
0.00968058
0.00965616
0.00960292
0.00951883
0.00940186
0.00924968
0.00905931
0.00882703
0.00854823
0.00821707
0.00782606
0.0073653
0.00682136
0.00617529
0.00539922
0.00445036
0.00326177
0.0017473
0.000199334
0.00964146
0.00962006
0.00957027
0.00949006
0.00937729
0.00922947
0.00904346
0.00881535
0.00854028
0.00821214
0.00782314
0.00736308
0.00681826
0.00616963
0.00538958
0.0044363
0.00324541
0.00173586
0.000198061
0.00961915
0.00960065
0.00955433
0.00947818
0.00936998
0.00922708
0.00904613
0.00882295
0.00855239
0.00822798
0.0078415
0.00738228
0.00683617
0.00618382
0.00539768
0.00443684
0.00323936
0.00172908
0.000196756
0.00960883
0.00959322
0.00955058
0.00947891
0.00937592
0.00923879
0.00906395
0.00884695
0.00858227
0.00826299
0.00788029
0.00742283
0.00687574
0.00621898
0.00542471
0.00445267
0.00324348
0.00172642
0.000195387
0.0096036
0.00959105
0.00955247
0.00948591
0.00938903
0.00925885
0.00909165
0.00888269
0.00862608
0.00831437
0.00793803
0.00748481
0.00693868
0.00627837
0.00547503
0.00448836
0.00326129
0.00172927
0.000194038
0.00959524
0.00958607
0.00955205
0.00949132
0.00940157
0.00927981
0.00912217
0.00892375
0.00867831
0.0083779
0.00801224
0.00756795
0.00702741
0.0063673
0.00555653
0.00455325
0.00330122
0.00174207
0.000192916
0.00957544
0.00956998
0.00954097
0.00948673
0.00940511
0.00929326
0.00914734
0.00896239
0.00873201
0.00844786
0.00809901
0.00767088
0.00714389
0.00649175
0.00567943
0.00466089
0.00337726
0.00177336
0.000192501
0.00953717
0.00953575
0.00951202
0.00946467
0.00939195
0.00929134
0.00915927
0.00899089
0.00877987
0.0085178
0.00819333
0.00779084
0.00728861
0.00665648
0.00585343
0.00482565
0.00350643
0.00183631
0.000193684
0.00947633
0.00947915
0.00946074
0.00942038
0.00935701
0.00926874
0.00915243
0.00900365
0.00881638
0.00858253
0.00829077
0.00792485
0.00746093
0.00686414
0.00608492
0.00505704
0.00370019
0.00194313
0.000198064
0.0093928
0.00940001
0.00938685
0.00935343
0.00929976
0.00922479
0.00912605
0.00899972
0.00884044
0.00864086
0.00839027
0.00807242
0.00766177
0.00711799
0.00637941
0.00535971
0.00395666
0.00209092
0.00020799
0.00929117
0.00930287
0.00929497
0.00926867
0.00922528
0.00916478
0.0090855
0.00898437
0.00885704
0.00869734
0.00849593
0.0082376
0.0078963
0.00742658
0.00675115
0.0057507
0.00427987
0.00226042
0.000226675
0.00918123
0.00919731
0.00919476
0.00917619
0.0091442
0.00909973
0.00904187
0.00896849
0.00887646
0.00876126
0.0086157
0.00842721
0.00817203
0.00780357
0.00723066
0.00628767
0.0047376
0.00246838
0.00025998
0.00907987
0.00909871
0.00910071
0.0090904
0.00907114
0.00904425
0.00900946
0.0089656
0.0089109
0.00884276
0.00875686
0.00864504
0.00849043
0.0082555
0.00785304
0.00708169
0.00553837
0.00286218
0.000325143
0.00901517
0.00902823
0.00903089
0.00902812
0.00902201
0.00901332
0.00900204
0.00898786
0.00897026
0.00894849
0.00892126
0.00888598
0.00883689
0.00875955
0.00861283
0.00826156
0.00721479
0.00410407
0.000467945
)
;

boundaryField
{
    leftWall
    {
        type            nutkWallFunction;
        Cmu             0.09;
        kappa           0.41;
        E               9.8;
        value           nonuniform List<scalar> 
50
(
2.65322e-06
8.00086e-06
9.51566e-06
1.06228e-05
1.14614e-05
1.21042e-05
1.25895e-05
1.31686e-05
1.55721e-05
1.5685e-05
1.62921e-05
1.71706e-05
1.79969e-05
1.8587e-05
1.86774e-05
1.91933e-05
1.68026e-05
1.82729e-05
1.98627e-05
2.08498e-05
2.13835e-05
2.16091e-05
2.14999e-05
2.1134e-05
2.06104e-05
2.00349e-05
1.94775e-05
1.88864e-05
1.82448e-05
1.75447e-05
1.67788e-05
1.59409e-05
1.503e-05
1.40602e-05
1.31111e-05
1.22215e-05
1.14103e-05
1.07391e-05
1.02791e-05
1.0088e-05
1.01926e-05
1.05884e-05
1.12522e-05
1.21588e-05
1.32912e-05
1.46633e-05
1.64244e-05
1.9305e-05
2.62149e-05
4.65635e-05
)
;
    }
    rightWall
    {
        type            nutkWallFunction;
        Cmu             0.09;
        kappa           0.41;
        E               9.8;
        value           nonuniform List<scalar> 
50
(
3.91352e-06
1.28377e-05
1.51941e-05
1.7195e-05
1.89883e-05
2.20897e-05
2.41098e-05
2.46438e-05
2.521e-05
2.48484e-05
2.40249e-05
2.33614e-05
2.31425e-05
2.27312e-05
2.23289e-05
2.1968e-05
2.21653e-05
2.28206e-05
2.33787e-05
2.58123e-05
2.73017e-05
2.80044e-05
2.8236e-05
2.8304e-05
2.81571e-05
2.76674e-05
2.68266e-05
2.57166e-05
2.44737e-05
2.3249e-05
2.21793e-05
2.13452e-05
2.07574e-05
2.03699e-05
2.01175e-05
1.99369e-05
1.97839e-05
1.9628e-05
1.94564e-05
1.92639e-05
1.90608e-05
1.8869e-05
1.87451e-05
1.87943e-05
1.92252e-05
2.03848e-05
2.27982e-05
2.73198e-05
3.61347e-05
5.56995e-05
)
;
    }
    lowerWall
    {
        type            nutkWallFunction;
        Cmu             0.09;
        kappa           0.41;
        E               9.8;
        value           nonuniform List<scalar> 
62
(
2.65322e-06
4.20327e-06
5.02639e-06
5.62071e-06
6.09463e-06
6.49536e-06
6.84695e-06
7.16347e-06
7.45603e-06
7.73822e-06
7.98699e-06
8.20003e-06
8.37743e-06
8.52057e-06
8.62957e-06
8.69897e-06
8.71552e-06
8.65791e-06
8.49081e-06
8.14722e-06
7.4927e-06
6.21344e-06
3.53872e-06
3.53872e-06
1.10705e-05
1.33457e-05
1.51869e-05
1.69047e-05
1.92957e-05
2.59652e-05
3.10722e-05
3.32705e-05
3.15335e-05
3.10767e-05
3.24044e-05
3.84344e-06
1.31074e-05
1.71077e-05
1.88435e-05
2.10791e-05
2.48097e-05
2.83844e-05
3.3393e-05
3.84344e-06
5.4476e-06
6.37735e-06
6.98226e-06
7.4358e-06
8.00853e-06
8.40255e-06
8.5285e-06
8.57511e-06
8.59419e-06
8.56269e-06
8.38147e-06
8.10558e-06
7.80397e-06
7.39619e-06
7.00698e-06
6.57715e-06
5.98934e-06
3.91352e-06
)
;
    }
    atmosphere
    {
        type            calculated;
        value           nonuniform List<scalar> 
46
(
0.009
0.00248165
0.00333993
0.00413916
0.00489152
0.00556155
0.00613621
0.00661841
0.00701895
0.00735119
0.00762816
0.00786109
0.00805877
0.00822728
0.00836997
0.00848791
0.00858117
0.0086512
0.00870333
0.00874729
0.00879346
0.0088467
0.00890253
0.00893387
0.00895136
0.009
0.009
0.009
0.009
0.009
0.009
0.009
0.009
0.009
0.009
0.009
0.009
0.009
0.009
0.009
0.009
0.009
0.009
0.009
0.009
0.009
)
;
    }
    defaultFaces
    {
        type            empty;
    }
}


// ************************************************************************* //
