/*--------------------------------*- C++ -*----------------------------------*\
  =========                 |
  \\      /  F ield         | OpenFOAM: The Open Source CFD Toolbox
   \\    /   O peration     | Website:  https://openfoam.org
    \\  /    A nd           | Version:  13
     \\/     M anipulation  |
\*---------------------------------------------------------------------------*/
FoamFile
{
    format      ascii;
    class       volScalarField;
    location    "1.95";
    object      p;
}
// * * * * * * * * * * * * * * * * * * * * * * * * * * * * * * * * * * * * * //

dimensions      [1 -1 -2 0 0 0 0];

internalField   nonuniform List<scalar> 
2268
(
6309.08
6248.98
6173.93
6083.11
5986.79
5891.7
5801.46
5717.4
5639.36
5566.46
5497.84
5432.4
5369.29
5308.06
5248.73
5191.68
5137.54
5086.84
5039.66
4995.84
4955.83
4925.75
4906.99
5525.2
5467.85
5394.3
5302.99
5204.48
5106.1
5011.83
4923.34
4840.7
4763.38
4690.77
4622
4556.28
4492.99
4431.9
4373.32
4318.02
4266.83
4220.3
4179.05
4144.33
4123
4107.98
4745.99
4686.51
4613.13
4521.5
4421.25
4319.95
4221.83
4128.8
4041.29
3959.01
3881.82
3809.11
3740.17
3674.32
3611.21
3551.16
3495.11
3444.28
3399.79
3362.93
3334.89
3320.5
3307.25
3972.32
3904.51
3828.5
3735.88
3634.35
3531.04
3430.06
3333.46
3241.85
3155.06
3073.59
2997.03
2924.77
2856.19
2790.98
2729.54
2673.01
2623.04
2581.3
2549.22
2527.13
2516.92
2504.05
3203.98
3124.78
3043.97
2949.05
2846
2741
2637.73
2538.25
2443.34
2352.84
2267.95
2188.56
2114.03
2043.75
1977.52
1915.67
1859.27
1810.26
1770.65
1741.55
1722.27
1713.02
1699.02
2441.46
2349.07
2262.11
2161.94
2055.61
1948.28
1843.48
1743.38
1649
1560.2
1479.56
1407.05
1341.84
1283.17
1230.73
1184.31
1143.97
1110.24
1083.58
1063.78
1049.64
1042.74
1032.65
1684.84
1569.95
1472.5
1381.38
1293.88
1212.69
1139.26
1073.53
1015.2
967.579
927.661
893.8
865.095
840.89
820.74
804.24
790.766
779.534
769.74
760.842
752.658
747.103
741.085
1034.12
960.019
907.188
867.008
832.195
803.25
780.063
761.641
747.491
740.123
734.946
730.734
727.265
724.359
721.826
719.523
716.993
713.531
708.679
702.46
695.414
688.673
682.706
2163.82
2185.58
2239.96
2346.55
2433.29
2493.84
2528.84
2523.54
2548.2
2573.36
2584.23
2580.16
2590.56
2636.08
2685.49
2717.66
2722.9
2705.3
2684.15
1597.68
1621.92
1645.49
1709.69
1761.59
1812.09
1869.73
1912.62
1949.27
1974.59
1995.19
2019.86
2034.38
2058.28
2087.67
2125.98
2139.27
2128.96
2116.56
1327.78
1348.47
1350.85
1353.01
1347.76
1351.54
1355.93
1347.99
1338.74
1348.88
1379.03
1431.43
1454.33
1484.46
1526.37
1568.85
1583.72
1586.62
1616.9
1164.94
1188.59
1215.39
1213.03
1182.58
1151.94
1128.61
1090.99
1028.68
1007.49
1003.89
1043.99
1088.58
1113.13
1151.38
1192.89
1201.01
1208
1253.19
984.039
1000.86
1049.31
1065.98
1053.37
1041.38
1037.57
1015.96
952.735
924.061
897.79
890.129
915.477
938.08
953.167
974.69
978.364
983.902
1006.1
869.474
863.052
882.8
909.191
920.916
936.793
942.49
926.335
882.727
866.183
855.551
834.785
821.694
825.948
829.751
833.241
840.439
850.927
860.63
802.749
785.068
769.282
784.239
799.876
831.89
839.051
818.256
809.591
805.359
800.987
793.086
781.862
770.556
769.167
769.629
778.828
785.663
794.381
731.208
717.696
699.126
690.45
709.301
740.283
743.663
725.584
741.553
743.39
740.086
734.334
729.469
723
718.835
715.961
721.247
727.173
743.048
682.987
677.262
677.832
675.833
672.069
667.544
662.888
658.769
655.859
652.924
649.622
646.118
642.524
638.857
635.117
631.346
627.318
622.562
616.784
609.999
602.948
596.921
592.864
550.218
551.517
552.312
551.104
548.539
545.081
541.075
536.92
532.963
529.161
525.273
521.459
517.826
514.274
510.686
507.182
503.511
499.099
493.827
488.186
483.05
479.229
476.787
431.161
432.403
432.438
430.706
427.707
424.018
419.732
415.022
410.542
406.222
401.952
397.948
394.3
390.717
387.18
384.581
382.234
379.981
378.87
379.642
383.056
389.239
396.466
312.204
313.325
313.09
310.575
306.897
303.11
298.558
292.95
288.54
284.313
280.069
276.457
274.059
272.865
272.733
274.442
278.424
283.585
290.393
299.958
311.534
323.32
334.019
203.269
202.698
202.338
200.591
197.843
194.643
190.427
185.786
183.177
181.623
180.666
180.728
182.608
186.881
192.655
199.323
207.5
217.423
228.759
241.048
252.741
262.689
271.734
118.104
119.11
120.108
119.563
118.136
115.832
113.06
111.01
110.195
110.732
112.264
114.799
119.296
125.258
132.909
141.216
149.777
160.594
173.247
184.921
194.222
202.108
209.468
57.3814
60.0511
60.5828
59.5672
57.9474
55.9072
53.9496
52.4146
50.6471
49.3876
49.0409
49.6024
51.2407
54.2831
59.6518
66.7346
75.6809
87.9536
103.808
120.406
133.248
141.977
148.257
19.2094
19.7886
19.2125
18.3555
17.3556
16.2366
15.0001
13.8449
12.7438
11.6901
10.7659
10.4226
10.5182
10.7998
12.097
14.138
16.8327
21.6012
30.5165
44.4153
59.2191
72.626
86.4456
5.21998
5.28123
5.35204
5.34021
5.28897
5.30987
5.33009
5.35318
5.39999
5.45899
5.51165
5.55026
5.58229
5.61511
5.62529
5.62045
5.60693
5.58898
5.62896
6.65875
10.4987
16.7413
26.1088
5.17424
5.19231
5.19143
5.2033
5.22351
5.23237
5.23208
5.22973
5.22757
5.224
5.21399
5.19458
5.16523
5.12706
5.07535
5.01024
4.93194
4.84824
4.80209
4.79567
4.78448
4.6279
4.57306
5.0551
5.05791
5.06124
5.06743
5.07309
5.08166
5.08786
5.09037
5.09182
5.0904
5.08339
5.06896
5.0449
5.01359
4.96976
4.91182
4.83783
4.74005
4.61312
4.4428
4.28708
4.14473
4.04663
4.93533
4.93353
4.93277
4.93534
4.94088
4.94479
4.94899
4.95067
4.95032
4.94743
4.93937
4.92537
4.90536
4.87729
4.83672
4.78105
4.70732
4.61085
4.48026
4.3303
4.17163
4.0296
3.86822
4.81164
4.80773
4.80654
4.80718
4.80869
4.81095
4.81222
4.81059
4.80504
4.7964
4.78392
4.76665
4.74498
4.71389
4.67033
4.6123
4.53779
4.44468
4.32951
4.19332
4.06011
3.9308
3.78591
4.6828
4.67867
4.67649
4.67605
4.67619
4.67585
4.67401
4.6693
4.66036
4.6467
4.63008
4.60998
4.58361
4.54773
4.50041
4.44001
4.36489
4.27389
4.1663
4.04545
3.92288
3.80403
3.67621
4.54844
4.54431
4.54204
4.54092
4.53959
4.53716
4.53288
4.5258
4.51494
4.49969
4.48028
4.45625
4.42551
4.38605
4.33627
4.27468
4.1998
4.11068
4.00714
3.89264
3.77547
3.66207
3.54101
4.40883
4.40486
4.40242
4.40073
4.39839
4.39452
4.38854
4.37967
4.36715
4.35038
4.32899
4.30226
4.2688
4.22718
4.17614
4.11436
4.04055
3.95397
3.85467
3.74568
3.63311
3.52352
3.40738
4.26453
4.26086
4.25829
4.25614
4.25306
4.24819
4.24098
4.23077
4.21692
4.19882
4.17593
4.14748
4.11245
4.06976
4.01837
3.95717
3.88513
3.80168
3.70686
3.60318
3.49539
3.39011
3.279
4.11622
4.11291
4.11031
4.10777
4.10411
4.09849
4.09034
4.07915
4.06431
4.04525
4.02134
3.99191
3.95613
3.91315
3.86211
3.80211
3.73231
3.65221
3.56181
3.46325
3.36047
3.25997
3.15424
3.96438
3.9614
3.95883
3.95601
3.95189
3.94569
3.9369
3.92502
3.90953
3.88985
3.86541
3.83555
3.79963
3.75695
3.70678
3.64841
3.58111
3.50442
3.41834
3.32471
3.22703
3.13161
3.03126
3.80919
3.80656
3.80411
3.80114
3.79672
3.79015
3.78096
3.76869
3.75284
3.73287
3.70825
3.67842
3.64281
3.60085
3.55194
3.49548
3.43084
3.35758
3.27566
3.18683
3.09423
3.00391
2.90896
3.65111
3.64885
3.64658
3.64358
3.63901
3.63227
3.62289
3.61046
3.59449
3.57452
3.55003
3.52056
3.4856
3.44467
3.3973
3.34294
3.28106
3.21119
3.13335
3.04916
2.96153
2.8762
2.78636
3.49065
3.48875
3.48672
3.48378
3.4792
3.47242
3.46303
3.45061
3.43474
3.41498
3.39088
3.36201
3.32795
3.28831
3.24266
3.19055
3.13147
3.065
2.99114
2.91145
2.82867
2.74814
2.66325
3.32825
3.32674
3.32497
3.32216
3.31766
3.31097
3.30169
3.28944
3.27383
3.25445
3.23091
3.20284
3.16987
3.13168
3.0879
3.03813
2.98191
2.91882
2.84887
2.7736
2.69555
2.6197
2.53959
3.16432
3.16319
3.16172
3.1591
3.15475
3.14822
3.13915
3.12718
3.11194
3.09307
3.07024
3.0431
3.01137
2.97475
2.93293
2.88557
2.83225
2.77251
2.70643
2.63553
2.56213
2.49087
2.41559
2.99917
2.99843
2.99727
2.99488
2.99074
2.98445
2.97565
2.96403
2.94925
2.93099
2.90894
2.88284
2.85243
2.81746
2.77769
2.73279
2.68236
2.62596
2.56374
2.49714
2.42832
2.36157
2.29098
2.83309
2.83274
2.83191
2.82977
2.82588
2.81985
2.81138
2.80015
2.78587
2.76827
2.74708
2.72207
2.69305
2.6598
2.62211
2.57968
2.53212
2.47906
2.42067
2.35833
2.29403
2.23168
2.16575
2.66623
2.66628
2.66578
2.66393
2.66031
2.65457
2.64643
2.63562
2.62187
2.60496
2.58466
2.56079
2.53319
2.50168
2.46607
2.4261
2.3814
2.33168
2.27714
2.21904
2.15918
2.1012
2.03985
2.49868
2.4991
2.49892
2.49736
2.49402
2.48857
2.48078
2.47038
2.45718
2.44097
2.42159
2.39888
2.37271
2.34294
2.30942
2.27191
2.23012
2.18377
2.13307
2.07917
2.02374
1.9701
1.9134
2.33045
2.33119
2.3313
2.33
2.3269
2.32173
2.31426
2.30429
2.29164
2.27616
2.2577
2.23616
2.21145
2.18346
2.15207
2.11707
2.07822
2.03526
1.9884
1.93869
1.88765
1.83832
1.78617
2.16153
2.16253
2.16288
2.1618
2.15891
2.15398
2.14682
2.13726
2.12516
2.1104
2.0929
2.07258
2.04937
2.0232
1.99398
1.96154
1.92566
1.88612
1.8431
1.79756
1.75089
1.70582
1.65823
1.99192
1.9931
1.99363
1.99271
1.98998
1.98525
1.97837
1.96921
1.95767
1.94367
1.92716
1.90809
1.88643
1.86214
1.83514
1.80531
1.77244
1.73634
1.69718
1.65582
1.61351
1.57271
1.52962
1.82161
1.8229
1.82352
1.82267
1.82004
1.81548
1.80886
1.8001
1.78915
1.77594
1.76046
1.7427
1.72265
1.7003
1.67559
1.64841
1.61858
1.58595
1.55066
1.51349
1.47555
1.43902
1.4005
1.65064
1.65194
1.65257
1.65172
1.64912
1.64468
1.63832
1.62998
1.61964
1.60728
1.59289
1.57651
1.55813
1.53777
1.51539
1.49091
1.46417
1.43502
1.4036
1.3706
1.33698
1.30469
1.27065
1.47911
1.48035
1.48088
1.47993
1.47732
1.47297
1.46686
1.45896
1.44928
1.43781
1.42459
1.40965
1.39301
1.37471
1.35471
1.33295
1.3093
1.28363
1.25606
1.22717
1.19782
1.16966
1.14001
1.30717
1.3083
1.30863
1.30751
1.3048
1.30052
1.29466
1.28723
1.27826
1.26775
1.25577
1.24234
1.22751
1.21131
1.19373
1.17471
1.15415
1.13192
1.10812
1.08327
1.05806
1.03393
1.0085
1.13506
1.13602
1.13607
1.13466
1.13179
1.12754
1.12194
1.11502
1.10681
1.09735
1.08668
1.07484
1.06189
1.04783
1.03268
1.0164
0.99887
0.980009
0.959888
0.938944
0.917763
0.897515
0.876193
0.963031
0.963782
0.963422
0.961592
0.958464
0.954204
0.948882
0.94253
0.935174
0.926844
0.917574
0.907403
0.89637
0.884499
0.871788
0.858199
0.843653
0.828064
0.811499
0.794318
0.776973
0.760431
0.742963
0.791415
0.791851
0.790854
0.788384
0.784878
0.780591
0.775594
0.769896
0.763497
0.756403
0.748631
0.740205
0.731151
0.721486
0.711206
0.700278
0.688636
0.676214
0.663062
0.649465
0.635789
0.622741
0.608932
0.620628
0.620478
0.618332
0.614873
0.610868
0.60659
0.602031
0.597128
0.591828
0.586099
0.579932
0.573333
0.566311
0.558874
0.551015
0.542706
0.533895
0.524533
0.514664
0.504513
0.494332
0.484641
0.474311
0.450856
0.449811
0.445253
0.440384
0.435936
0.431881
0.428
0.424109
0.420088
0.415868
0.411417
0.406722
0.401781
0.396592
0.391145
0.385419
0.379378
0.372991
0.366299
0.359465
0.352681
0.346273
0.33939
0.283421
0.279743
0.269671
0.263581
0.259477
0.256284
0.253535
0.250966
0.248441
0.245884
0.243256
0.240538
0.23772
0.234794
0.231752
0.22858
0.225259
0.22178
0.218182
0.214589
0.211123
0.207984
0.204571
0.105983
0.0966017
0.0890045
0.0867177
0.0853889
0.0843481
0.0834337
0.0825711
0.081729
0.0808901
0.0800439
0.0791838
0.0783054
0.077405
0.0764785
0.0755225
0.0745337
0.0735175
0.072504
0.0715613
0.070765
0.0702803
0.0703478
594.745
595.439
597.949
601.655
472.297
469.474
466.976
468.685
402.265
405.809
409.519
412.26
340.421
344.24
348.01
349.898
277.973
281.053
283.222
284.639
214.173
216.496
218.104
219.358
150.285
151.033
151.935
153.57
95.7854
96.6817
94.5712
93.4746
34.1684
34.6786
31.6999
30.2786
5.2446
5.53378
5.2505
5.02868
3.94537
3.82813
3.68071
3.50407
3.66236
3.48706
3.29706
3.13194
3.59876
3.41514
3.20441
3.02256
3.48847
3.2998
3.08523
2.90732
3.35478
3.16537
2.95176
2.77977
3.22701
3.04125
2.83093
2.66251
3.10554
2.92505
2.71963
2.55525
2.9878
2.81336
2.61416
2.4546
2.87212
2.70435
2.51213
2.35822
2.75721
2.59667
2.41246
2.26473
2.64221
2.48933
2.31353
2.17265
2.52659
2.38165
2.21507
2.08139
2.41064
2.27388
2.11651
1.99031
2.29441
2.16595
2.01816
1.89932
2.17764
2.05752
1.91903
1.80763
2.06002
1.94808
1.81913
1.71511
1.94173
1.83789
1.71807
1.6214
1.82279
1.72692
1.61628
1.52672
1.70302
1.61498
1.51311
1.43065
1.58226
1.50184
1.40885
1.3334
1.46083
1.38793
1.30343
1.2349
1.33883
1.27335
1.19737
1.13549
1.21606
1.15789
1.09006
1.03478
1.09221
1.04115
0.981565
0.932753
0.96737
0.923282
0.871561
0.829123
0.841508
0.804184
0.760284
0.723965
0.714461
0.683665
0.647164
0.616858
0.586191
0.561575
0.532391
0.507917
0.457106
0.438405
0.416036
0.397177
0.32759
0.314557
0.298803
0.285153
0.198153
0.190897
0.181194
0.172048
0.0699687
0.0689186
0.0656079
0.0603507
605.065
616.928
607.817
596.356
600.61
610.745
617.601
628.504
644.248
646.258
643.606
639.463
635.103
630.826
628.364
627.282
630.073
635.084
650.791
477.696
498.664
497.298
491.586
487.837
485.058
491.302
510.35
519.122
520.565
517.892
514.523
511.372
508.46
507.279
507.719
508.91
511.445
524.154
413.749
416.272
413.95
414.02
415.76
412.983
409.426
412.413
416.162
418.008
417.79
416.813
415.544
414.165
412.852
412.353
413.383
416.198
422.931
351.281
351.29
350.576
351.217
351.789
349.785
345.163
342.567
344.672
346.448
348.386
349.283
349.342
348.966
347.973
346.923
347.53
348.762
349.133
286.354
287.248
287.249
287.731
288.378
288.177
287.255
286.451
286.443
287.162
288.338
289.06
289.326
289.241
288.861
288.554
288.711
288.028
285.302
221.306
223.005
223.602
224.173
224.907
225.257
225.044
224.955
225.531
226.51
227.623
228.522
229.131
229.497
229.663
229.813
229.885
228.643
225.508
156.853
159.402
160.058
160.436
161.167
161.76
162.083
162.573
163.562
164.721
165.905
166.953
167.847
168.591
169.191
169.74
170.039
169.028
165.886
93.8094
96.6593
96.9303
96.3343
96.7201
97.3622
97.7756
98.3249
99.4101
100.48
101.427
102.402
103.516
104.721
105.846
106.837
107.595
107.418
104.87
32.6618
35.9587
35.4855
34.2439
36.3497
38.196
38.2389
38.3628
39.4921
40.4511
41.056
41.6665
42.5758
43.7663
44.6959
45.2136
45.521
45.6947
43.5728
5.01157
4.92033
3.89411
3.76937
6.13825
7.29193
7.20423
7.32165
8.16456
8.92432
9.3728
9.67454
10.0822
10.6062
10.8319
10.5864
9.9996
9.70351
8.74208
3.19928
2.949
2.86173
2.8383
2.78635
2.68233
2.6196
2.60912
2.59829
2.56613
2.51025
2.47391
2.49688
2.57539
2.69903
2.61683
2.46972
2.55914
2.49588
2.95735
2.82101
2.73799
2.68976
2.63728
2.5897
2.55938
2.55013
2.55771
2.56103
2.54823
2.54081
2.55098
2.54441
2.48888
2.44054
2.43722
2.45031
2.43008
2.83673
2.72848
2.6441
2.57949
2.51666
2.46577
2.42813
2.40207
2.39533
2.38943
2.37239
2.34089
2.32274
2.34493
2.34343
2.31112
2.29772
2.30146
2.30159
2.73213
2.63314
2.54937
2.47215
2.405
2.34824
2.30159
2.26343
2.23702
2.21787
2.19899
2.17336
2.14246
2.13003
2.13207
2.14035
2.15893
2.17404
2.18427
2.61768
2.52979
2.44924
2.37175
2.30285
2.2429
2.19214
2.14669
2.10158
2.07204
2.05154
2.037
2.01426
1.98977
1.99113
2.01614
2.0446
2.064
2.0764
2.50645
2.42683
2.35151
2.27598
2.20777
2.14796
2.09566
2.04808
1.99973
1.96231
1.94287
1.93314
1.91943
1.90821
1.91086
1.92712
1.94752
1.96472
1.97698
2.40375
2.32939
2.25823
2.18535
2.11857
2.05938
2.00731
1.96021
1.9169
1.88281
1.86105
1.84697
1.83533
1.8283
1.83117
1.84267
1.85768
1.87238
1.88422
2.3079
2.23726
2.16926
2.09894
2.03385
1.97565
1.92425
1.87878
1.83851
1.80652
1.78354
1.76778
1.7563
1.75043
1.75218
1.76031
1.77212
1.78523
1.79667
2.2169
2.14915
2.08375
2.01579
1.95249
1.89551
1.84508
1.80081
1.76273
1.73171
1.70859
1.69191
1.68054
1.67481
1.67526
1.68104
1.6906
1.70237
1.71292
2.12896
2.06386
2.00078
1.93507
1.8736
1.81799
1.7687
1.72559
1.68875
1.65869
1.63548
1.61855
1.60716
1.60117
1.6005
1.6045
1.61225
1.6226
1.6319
2.04303
1.98035
1.9195
1.85601
1.7964
1.74226
1.6942
1.65222
1.61642
1.587
1.56395
1.54687
1.53526
1.52879
1.52715
1.52976
1.53604
1.54498
1.55282
1.95802
1.89782
1.83917
1.77792
1.72024
1.66765
1.62084
1.57996
1.54507
1.51622
1.49333
1.47612
1.4642
1.45718
1.45468
1.45618
1.46118
1.46869
1.47516
1.8735
1.81565
1.75923
1.70026
1.64457
1.59359
1.54809
1.50827
1.47419
1.44585
1.42313
1.4058
1.39354
1.38597
1.38269
1.38321
1.38708
1.3933
1.39857
1.78877
1.73336
1.6792
1.62258
1.56895
1.51967
1.47551
1.43676
1.40347
1.3756
1.35305
1.33561
1.32302
1.31492
1.31092
1.31059
1.31343
1.31846
1.32282
1.70359
1.65058
1.59876
1.54458
1.49307
1.44555
1.40282
1.36516
1.33266
1.30527
1.2829
1.26538
1.25247
1.24387
1.23923
1.2381
1.24004
1.24407
1.24774
1.61744
1.56705
1.51767
1.466
1.4167
1.37104
1.3298
1.2933
1.26162
1.23474
1.21259
1.19502
1.18184
1.17279
1.16754
1.16572
1.16685
1.17006
1.17327
1.53031
1.48259
1.43575
1.38669
1.3397
1.29599
1.25634
1.22106
1.19026
1.16394
1.14205
1.12449
1.11109
1.10165
1.09588
1.09342
1.09387
1.09644
1.09929
1.44193
1.39707
1.35289
1.30654
1.26196
1.22031
1.18234
1.14837
1.11853
1.09284
1.07128
1.05379
1.04024
1.03047
1.02424
1.02125
1.02111
1.02315
1.02575
1.35239
1.31045
1.26904
1.22549
1.18342
1.14393
1.10775
1.07519
1.0464
1.02142
1.00027
0.982918
0.969289
0.959264
0.952656
0.949186
0.948558
0.950166
0.952527
1.26151
1.22269
1.18415
1.14348
1.10402
1.0668
1.03252
1.00147
0.973829
0.949659
0.929003
0.911868
0.89823
0.888016
0.881082
0.877227
0.876161
0.877369
0.879526
1.16951
1.13377
1.09816
1.06045
1.0237
0.988862
0.956582
0.927168
0.90078
0.877515
0.857441
0.840604
0.827023
0.816677
0.809481
0.80526
0.803815
0.804685
0.806595
1.07621
1.04362
1.01098
0.976299
0.94235
0.910002
0.879848
0.852183
0.827169
0.804918
0.785523
0.769064
0.755602
0.74517
0.737737
0.733213
0.731411
0.731937
0.733628
0.981667
0.952129
0.922481
0.890892
0.859832
0.830083
0.802179
0.776391
0.75288
0.731765
0.713155
0.697159
0.68388
0.673403
0.665769
0.66093
0.658812
0.659054
0.660495
0.885578
0.85914
0.832501
0.804052
0.775965
0.748924
0.723398
0.699628
0.677763
0.657922
0.640223
0.624793
0.611772
0.601294
0.593467
0.588361
0.585937
0.5859
0.587145
0.787916
0.764475
0.740847
0.71558
0.690546
0.666322
0.643307
0.621705
0.601646
0.58324
0.566602
0.55187
0.539207
0.528795
0.520824
0.515433
0.512741
0.512498
0.513544
0.688373
0.667948
0.647333
0.625286
0.603375
0.582073
0.561702
0.542427
0.524351
0.507565
0.492173
0.478309
0.466147
0.455908
0.447847
0.44225
0.439307
0.438855
0.439766
0.586932
0.569433
0.551828
0.533027
0.5143
0.496014
0.478418
0.461632
0.445728
0.430771
0.416845
0.404064
0.3926
0.382693
0.374673
0.368906
0.365775
0.365169
0.365909
0.483417
0.46889
0.454296
0.43876
0.423269
0.408088
0.393393
0.379259
0.365725
0.352829
0.340622
0.329191
0.31868
0.309325
0.301485
0.295681
0.292382
0.29157
0.292127
0.378061
0.366428
0.354847
0.3426
0.330397
0.318409
0.30674
0.295425
0.284474
0.273893
0.263702
0.253944
0.244716
0.236205
0.228763
0.222927
0.219404
0.218297
0.218463
0.270855
0.262094
0.253553
0.244644
0.235804
0.227112
0.21861
0.210297
0.202161
0.194183
0.186352
0.178668
0.171159
0.163916
0.157159
0.151397
0.147331
0.145268
0.144769
0.162058
0.155871
0.150383
0.144836
0.13939
0.134047
0.128799
0.123622
0.118488
0.113371
0.108242
0.10307
0.0978265
0.0924898
0.0870959
0.0817836
0.0767928
0.0724476
0.0707345
0.0543655
0.0512365
0.0490644
0.0470606
0.045142
0.0432749
0.0414365
0.0396083
0.037775
0.0359227
0.0340356
0.0320937
0.0300679
0.0279107
0.0255511
0.0228697
0.0194422
0.0137343
0.0146882
)
;

boundaryField
{
    leftWall
    {
        type            calculated;
        value           nonuniform List<scalar> 
50
(
6309.08
5525.2
4745.99
3972.32
3203.98
2441.46
1684.84
1034.12
682.987
550.218
431.161
312.204
203.269
118.104
57.3814
19.2094
5.21998
5.17424
5.0551
4.93533
4.81164
4.6828
4.54844
4.40883
4.26453
4.11622
3.96438
3.80919
3.65111
3.49065
3.32825
3.16432
2.99917
2.83309
2.66623
2.49868
2.33045
2.16153
1.99192
1.82161
1.65064
1.47911
1.30717
1.13506
0.963031
0.791415
0.620628
0.450856
0.283421
0.105983
)
;
    }
    rightWall
    {
        type            calculated;
        value           nonuniform List<scalar> 
50
(
2684.15
2116.56
1616.9
1253.19
1006.1
860.63
794.381
743.048
650.791
524.154
422.931
349.133
285.302
225.508
165.886
104.87
43.5728
8.74208
2.49588
2.43008
2.30159
2.18427
2.0764
1.97698
1.88422
1.79667
1.71292
1.6319
1.55282
1.47516
1.39857
1.32282
1.24774
1.17327
1.09929
1.02575
0.952527
0.879526
0.806595
0.733628
0.660495
0.587145
0.513544
0.439766
0.365909
0.292127
0.218463
0.144769
0.0707345
0.0146882
)
;
    }
    lowerWall
    {
        type            calculated;
        value           nonuniform List<scalar> 
62
(
6707.23
6647.13
6572.08
6481.26
6384.94
6289.85
6199.61
6115.55
6037.51
5964.61
5895.99
5830.55
5767.43
5706.21
5646.88
5589.83
5535.69
5484.99
5437.81
5393.92
5353.79
5323.68
5304.92
4906.99
4107.98
3307.25
2504.05
1699.02
1032.65
741.085
682.706
667.017
673.505
698.752
702.073
2163.82
1597.68
1327.78
1164.94
984.039
869.474
802.749
731.208
2511.37
2533.23
2591.43
2698.36
2784.96
2844.08
2838.22
2770.73
2795.24
2823.26
2833.2
2820.82
2831.16
2911.52
2989.15
3021.86
3025.67
3000.35
2973.91
)
;
    }
    atmosphere
    {
        type            calculated;
        value           nonuniform List<scalar> 
46
(
-0.000334817
-6.22031e-05
0
0
0
0
0
0
0
0
0
0
0
0
0
0
0
0
0
0
0
0
0
0
-2.105e-07
-5.26549e-07
-3.39128e-07
-6.23025e-06
-1.68547e-05
-3.14906e-05
-5.02332e-05
-7.45061e-05
-0.000105021
-0.000140603
-0.00017839
-0.000214572
-0.000245163
-0.000266808
-0.000277669
-0.000278245
-0.000271819
-0.000264315
-0.000264915
-0.000294151
-0.000422535
-0.000279951
)
;
    }
    defaultFaces
    {
        type            empty;
    }
}


// ************************************************************************* //
