/*--------------------------------*- C++ -*----------------------------------*\
  =========                 |
  \\      /  F ield         | OpenFOAM: The Open Source CFD Toolbox
   \\    /   O peration     | Website:  https://openfoam.org
    \\  /    A nd           | Version:  13
     \\/     M anipulation  |
\*---------------------------------------------------------------------------*/
FoamFile
{
    format      ascii;
    class       volScalarField;
    location    "1.95";
    object      p_rgh;
}
// * * * * * * * * * * * * * * * * * * * * * * * * * * * * * * * * * * * * * //

dimensions      [1 -1 -2 0 0 0 0];

internalField   nonuniform List<scalar> 
2268
(
6707.23
6647.13
6572.08
6481.26
6384.94
6289.85
6199.61
6115.55
6037.51
5964.61
5895.99
5830.55
5767.43
5706.21
5646.88
5589.83
5535.69
5484.99
5437.81
5393.92
5353.79
5323.68
5304.92
6719.65
6662.3
6588.75
6497.44
6398.93
6300.55
6206.28
6117.78
6035.15
5957.83
5885.22
5816.45
5750.73
5687.44
5626.35
5567.77
5512.47
5461.28
5414.75
5373.5
5338.78
5317.36
5302.25
6736.74
6677.26
6603.88
6512.25
6412
6310.7
6212.58
6119.55
6032.04
5949.75
5872.57
5799.86
5730.92
5665.07
5601.96
5541.91
5485.86
5435.03
5390.54
5353.68
5325.64
5311.24
5298
6759.37
6691.56
6615.55
6522.93
6421.4
6318.09
6217.11
6120.51
6028.9
5942.11
5860.64
5784.08
5711.82
5643.24
5578.03
5516.59
5460.06
5410.09
5368.35
5336.27
5314.18
5303.97
5291.1
6787.33
6708.13
6627.32
6532.4
6429.35
6324.34
6221.08
6121.6
6026.69
5936.19
5851.3
5771.91
5697.38
5627.1
5560.87
5499.02
5442.62
5393.6
5354
5324.9
5305.62
5296.36
5282.37
6821.11
6728.72
6641.76
6541.58
6435.26
6327.93
6223.13
6123.03
6028.06
5926.27
5809.72
5675.98
5521.86
5346.06
5149.44
4934.82
4709.69
4491.68
4303.01
4155.96
4054.5
3984.56
3917.78
6860.79
6745.9
6641.07
6322.11
5940.89
5511.97
5056.53
4598.11
4150.53
3654.3
3204.53
2805.02
2451.19
2141.02
1875.56
1653.6
1474.46
1338.29
1240.88
1174.99
1134.98
1129.18
1123.01
5342.27
4207.19
3256.71
2652.19
2158.08
1785.68
1520.92
1329.49
1191.31
1181.56
1176.39
1172.17
1168.71
1165.8
1163.27
1160.96
1158.43
1154.96
1150.09
1143.83
1136.74
1129.94
1123.64
2511.37
2533.23
2591.43
2698.36
2784.96
2844.08
2838.22
2770.73
2795.24
2823.26
2833.2
2820.82
2831.16
2911.52
2989.15
3021.86
3025.67
3000.35
2973.91
2227.04
2242.24
2343.86
2551.02
2709.06
2764.88
2871.65
2918.85
2953.23
2975.42
2968.99
2923.98
2939.49
2963.98
2997.51
3037.92
3047.79
3022.5
2930.59
1632.95
1666.76
1645.84
1745.68
1861.68
2070.89
2284.43
2455.69
2704.52
2786.95
2820.03
2824.04
2786
2853.05
2845.07
2899.47
2903.99
2818.8
2660.73
1829.55
1854.71
1707.32
1632.49
1625.03
1585.99
1515.97
1393.32
1340.13
1392.52
1630.42
1847.82
1770.64
1820.74
1952.14
2013.65
2014.37
2008.49
2192.16
1669.44
1800.73
1859.89
1837.79
1641.91
1503.99
1422.43
1296.73
1233.99
1175.69
1030.19
1265.24
1616.28
1616.94
1721.63
1947.54
1894.93
1777.51
1881.8
1219.79
1336.81
1755.93
1751.29
1682.53
1509.08
1526.88
1539.42
1256.93
1194.71
1115.6
967.611
1002.1
1240.38
1257.8
1277.02
1179.67
1222.29
1267.01
1195.74
1156.59
1262.41
1529.84
1486.62
1486.18
1512.19
1609.21
1267.07
1188.52
1180.61
1147.98
1057.51
1005.37
1047.35
1113.6
1148.58
1166.98
1079.69
1275.39
1142.26
1128.98
1351.22
1227.82
1330.81
1514.92
1442.55
1190.59
1185.6
1182.26
1176.38
1167.62
1150.8
1149.53
1155.62
1162.66
1168.3
1097.16
1327.25
1221.67
1211.3
1209.3
1205.54
1201.01
1196.35
1192.24
1189.33
1186.39
1183.09
1179.59
1175.99
1172.32
1168.58
1164.81
1160.78
1156.03
1150.25
1143.46
1136.41
1130.38
1124.58
1208.88
1210.18
1210.97
1209.77
1207.2
1203.74
1199.74
1195.58
1191.62
1187.82
1183.93
1180.12
1176.49
1172.94
1169.35
1165.84
1162.17
1157.76
1151.58
1137.12
1118.48
1097.53
1063.99
1215.02
1216.26
1216.29
1214.56
1211.56
1207.87
1203.59
1198.88
1194.4
1190.08
1185.81
1181.8
1178.16
1173.67
1163.73
1152.65
1141
1115.33
1070.06
1012.46
953.36
857.484
795.88
1221.25
1222.38
1216.76
1216.16
1214.72
1211.88
1207.49
1199.91
1187.95
1174.64
1157.83
1135.28
1104.21
1054.65
984.641
944.163
890.787
823.159
773.113
728.406
698.671
742.396
788.478
1081.37
1111.64
1109.92
1073.55
1036.8
1032.85
1020.42
944.275
924.492
871.045
803.286
742.33
699.766
666.828
637.26
629.36
682.718
709.819
696.64
704.058
753.336
778.591
788.676
833.485
741.564
724.843
715.795
709.535
703.448
668.559
618.033
635.332
654.776
656.48
652.309
677.324
697.368
706.291
718.88
729.005
740.046
752.577
763.949
773.941
781.828
789.115
611.96
660.483
688.374
686.738
684.016
678.362
668.916
657.3
642.633
628.415
615.893
595.069
573.075
567.094
572.264
584.76
619.289
680.961
746.123
762.722
775.564
784.294
790.57
339.007
359.927
354.8
337.914
313.634
281.229
244.679
208.029
168.615
129.602
98.1416
81.2573
73.2619
66.8132
78.6596
99.4047
125.757
183.356
306.514
515.396
688.22
777.539
791.36
6.75541
6.81667
10.9105
10.1153
6.84618
6.85572
6.86804
6.88886
6.93519
6.99413
7.04698
7.08595
7.11847
7.15241
7.16195
7.15662
7.14311
7.12536
7.16657
19.6825
80.3134
189.42
372.595
6.83494
6.85328
6.85229
6.87882
7.32395
7.22863
6.89803
6.89008
6.88794
6.88423
6.89603
6.89096
6.84104
6.78849
6.73587
6.67049
6.59217
6.50848
6.46266
6.45717
6.4479
6.29192
6.23811
6.84164
6.85102
6.84915
6.97168
6.87039
6.86834
6.87342
6.87594
6.88432
6.96485
7.02617
7.01179
6.88462
6.80022
6.75546
6.69756
6.6234
6.52554
6.39862
6.22824
6.0725
5.93016
5.83231
6.84751
6.85245
6.84547
6.84669
6.85182
6.85553
6.8597
6.86152
6.93895
7.02378
7.01893
7.00519
6.84471
6.79346
6.75012
6.69478
6.61995
6.52222
6.39123
6.24112
6.08238
5.94028
5.77887
6.84828
6.84429
6.84264
6.84312
6.84466
6.84689
6.84817
6.84668
6.87556
7.00402
6.99621
6.86056
6.78709
6.75593
6.71158
6.65324
6.57776
6.4817
6.36593
6.22954
6.09621
5.9668
5.82185
6.84442
6.84012
6.83775
6.83721
6.83733
6.83704
6.83535
6.83081
6.82222
6.81743
6.81402
6.77244
6.75056
6.71533
6.66754
6.60584
6.52838
6.43575
6.32789
6.20689
6.08425
5.96535
5.8374
6.83497
6.83089
6.82842
6.82725
6.82591
6.82353
6.81941
6.81248
6.80138
6.78607
6.76662
6.74274
6.71355
6.67533
6.62371
6.56159
6.4865
6.39735
6.29374
6.17915
6.06198
5.94852
5.82739
6.82034
6.8164
6.81394
6.81223
6.80986
6.80598
6.79996
6.79109
6.77857
6.76181
6.74062
6.71474
6.68151
6.63954
6.58767
6.52588
6.45204
6.36549
6.26624
6.15724
6.04469
5.93508
5.8189
6.80122
6.79757
6.795
6.79282
6.78971
6.78482
6.77758
6.76738
6.75353
6.7355
6.713
6.68523
6.65031
6.60687
6.55497
6.49379
6.42176
6.33832
6.2435
6.13984
6.03206
5.92678
5.81565
6.7781
6.77481
6.77221
6.76964
6.76595
6.7603
6.75215
6.74095
6.72613
6.70711
6.68333
6.65414
6.61837
6.57499
6.52391
6.46393
6.39413
6.31402
6.22363
6.12506
6.02229
5.92179
5.81605
6.75146
6.7485
6.74593
6.74308
6.73892
6.73269
6.72389
6.71202
6.69653
6.67686
6.65241
6.62254
6.58661
6.54393
6.49378
6.43541
6.36811
6.29142
6.20533
6.1117
6.01402
5.9186
5.81825
6.72145
6.71884
6.71639
6.7134
6.70894
6.70235
6.69315
6.68088
6.66502
6.64505
6.62043
6.5906
6.55499
6.51303
6.46413
6.40767
6.34302
6.26976
6.18784
6.099
6.00641
5.91609
5.82113
6.68856
6.6863
6.68404
6.68102
6.67643
6.66966
6.66028
6.64783
6.63186
6.61188
6.5874
6.55792
6.52296
6.48204
6.43467
6.38031
6.31842
6.24856
6.17072
6.08652
5.9989
5.91357
5.82372
6.65328
6.65139
6.64935
6.6464
6.64181
6.63501
6.6256
6.61318
6.59731
6.57754
6.55344
6.52456
6.49051
6.45087
6.40522
6.35311
6.29403
6.22756
6.1537
6.07401
5.99123
5.9107
5.82581
6.61607
6.61455
6.61278
6.60996
6.60545
6.59875
6.58945
6.5772
6.56158
6.5422
6.51866
6.49059
6.45763
6.41943
6.37565
6.32588
6.26966
6.20657
6.13662
6.06135
5.9833
5.90745
5.82734
6.57731
6.57618
6.5747
6.57207
6.56772
6.56119
6.55211
6.54013
6.52489
6.50602
6.48318
6.45604
6.42431
6.38769
6.34587
6.29852
6.24519
6.18545
6.11938
6.04847
5.97508
5.90382
5.82854
6.53736
6.53661
6.53544
6.53304
6.52889
6.5226
6.5138
6.50217
6.48739
6.46912
6.44708
6.42098
6.39057
6.3556
6.31582
6.27093
6.2205
6.1641
6.10188
6.03528
5.96646
5.89971
5.82911
6.49645
6.4961
6.49525
6.49312
6.48922
6.48319
6.47471
6.46348
6.4492
6.4316
6.41041
6.38541
6.35638
6.32313
6.28544
6.24301
6.19546
6.14239
6.08401
6.02166
5.95736
5.89501
5.82908
6.45478
6.45483
6.45432
6.45246
6.44884
6.4431
6.43496
6.42415
6.4104
6.39348
6.37318
6.34932
6.32171
6.29021
6.2546
6.21462
6.16993
6.12021
6.06567
6.00756
5.94771
5.88972
5.82837
6.41241
6.41283
6.41265
6.41109
6.40774
6.4023
6.3945
6.3841
6.3709
6.35469
6.33531
6.3126
6.28643
6.25666
6.22314
6.18563
6.14384
6.09749
6.04679
5.99288
5.93746
5.88382
5.82712
6.36938
6.37011
6.37022
6.36891
6.36582
6.36065
6.35318
6.34321
6.33056
6.31507
6.29661
6.27508
6.25036
6.22238
6.19098
6.15599
6.11713
6.07418
6.02731
5.9776
5.92656
5.87723
5.82509
6.32565
6.32664
6.32699
6.32591
6.32302
6.31809
6.31093
6.30137
6.28927
6.27451
6.25701
6.23668
6.21347
6.18731
6.15809
6.12565
6.08977
6.05023
6.00721
5.96167
5.915
5.86993
5.82234
6.28123
6.28241
6.28294
6.28201
6.27928
6.27455
6.26767
6.25851
6.24697
6.23297
6.21646
6.19739
6.17573
6.15144
6.12445
6.09462
6.06174
6.02565
5.98648
5.94513
5.90282
5.86201
5.81892
6.23611
6.23739
6.23802
6.23717
6.23454
6.22997
6.22336
6.2146
6.20364
6.19044
6.17496
6.1572
6.13715
6.1148
6.09008
6.0629
6.03308
6.00045
5.96516
5.92799
5.89004
5.85351
5.815
6.19034
6.19164
6.19226
6.19141
6.18881
6.18438
6.17801
6.16968
6.15933
6.14697
6.13259
6.1162
6.09782
6.07746
6.05508
6.0306
6.00386
5.97471
5.94329
5.91029
5.87667
5.84438
5.81034
6.14399
6.14524
6.14576
6.14482
6.1422
6.13786
6.13175
6.12385
6.11416
6.1027
6.08948
6.07453
6.0579
6.03959
6.0196
5.99784
5.97419
5.94852
5.92094
5.89206
5.8627
5.83454
5.80489
6.09726
6.09838
6.09871
6.09759
6.09488
6.0906
6.08474
6.07732
6.06834
6.05784
6.04585
6.03242
6.0176
6.00139
5.98381
5.96479
5.94423
5.922
5.8982
5.87335
5.84814
5.82401
5.79858
6.05033
6.0513
6.05135
6.04994
6.04707
6.04281
6.03721
6.03029
6.02209
6.01263
6.00196
5.99012
5.97716
5.96311
5.94796
5.93167
5.91415
5.89528
5.87516
5.85422
5.83304
5.81279
5.79147
6.0035
6.00425
6.00389
6.00206
5.99893
5.99467
5.98935
5.983
5.97564
5.96731
5.95804
5.94787
5.93684
5.92497
5.91226
5.89867
5.88412
5.86853
5.85197
5.83479
5.81744
5.8009
5.78343
5.95708
5.95752
5.95652
5.95405
5.95054
5.94626
5.94126
5.93556
5.92916
5.92207
5.9143
5.90587
5.89682
5.88715
5.87687
5.86594
5.8543
5.84188
5.82873
5.81513
5.80145
5.78841
5.7746
5.91149
5.91134
5.90919
5.90573
5.90173
5.89745
5.89289
5.88799
5.88269
5.87696
5.87079
5.86419
5.85717
5.84973
5.84187
5.83357
5.82475
5.81539
5.80552
5.79537
5.78519
5.7755
5.76517
5.86691
5.86587
5.86131
5.85644
5.85199
5.84793
5.84405
5.84016
5.83614
5.83192
5.82747
5.82278
5.81784
5.81265
5.8072
5.80147
5.79543
5.78904
5.78235
5.77552
5.76874
5.76233
5.75544
5.82467
5.82099
5.81092
5.80483
5.80072
5.79753
5.79478
5.79221
5.78969
5.78713
5.7845
5.78179
5.77897
5.77604
5.773
5.76983
5.76651
5.76303
5.75943
5.75584
5.75237
5.74923
5.74582
5.77243
5.76304
5.75545
5.75316
5.75183
5.75079
5.74988
5.74901
5.74817
5.74733
5.74649
5.74563
5.74475
5.74385
5.74292
5.74197
5.74098
5.73996
5.73895
5.738
5.73721
5.73672
5.73679
1210.66
1260.73
1457.01
1457.44
1020.66
901.877
802.483
744.288
795.616
797.427
755.292
731.508
793.434
779.822
772.823
793.978
791.034
794.189
799.99
801.791
793.608
796.217
797.824
799.078
792.602
793.35
794.252
795.887
800.7
801.596
799.486
798.389
530.062
562.793
548.849
545.064
13.4044
20.8202
23.9181
30.4975
5.73251
5.61736
5.46933
5.29225
5.57301
5.39772
5.20772
5.04259
5.63467
5.45103
5.2403
5.05845
5.64962
5.46093
5.24633
5.06842
5.64111
5.45168
5.23806
5.06605
5.63851
5.45276
5.24239
5.07397
5.64219
5.46168
5.25625
5.09188
5.64961
5.47516
5.27596
5.1164
5.65911
5.49133
5.29911
5.14521
5.66939
5.50885
5.32463
5.1769
5.67957
5.5267
5.3509
5.21001
5.68915
5.54421
5.37762
5.24394
5.6984
5.56163
5.40426
5.27806
5.70735
5.57889
5.43111
5.31226
5.71578
5.59565
5.45717
5.34576
5.72335
5.61141
5.48246
5.37844
5.73025
5.62642
5.5066
5.40993
5.73651
5.64064
5.53
5.44044
5.74193
5.65389
5.55202
5.46956
5.74637
5.66595
5.57296
5.4975
5.75013
5.67723
5.59273
5.5242
5.75333
5.68784
5.61186
5.54999
5.75575
5.69758
5.62975
5.57447
5.7571
5.70604
5.64645
5.59764
5.75745
5.71336
5.66164
5.6192
5.75678
5.71946
5.67556
5.63924
5.75493
5.72414
5.68763
5.65733
5.75186
5.72724
5.69806
5.67358
5.74796
5.72926
5.7069
5.68804
5.74364
5.73061
5.71486
5.70121
5.7394
5.73215
5.72244
5.7133
5.73641
5.73536
5.73205
5.72679
1334.78
1038.58
1082.78
1061.7
1154.4
1362.08
1454.48
1209.05
1177.67
1180.12
1177.75
1173.51
1169.01
1164.53
1161.91
1160.87
1163.66
1168.42
1176.54
780.633
931.705
1025.13
989.129
894.634
867.407
977.276
1105.81
1161.51
1169.81
1167.89
1160.98
1154.16
1145.62
1156.17
1166.93
1158
1131.7
1160.86
747.656
814.493
814.965
797.349
807.607
783.69
847.684
1006.79
991.717
1003.2
955.592
919.878
899.147
877.738
876.621
909.122
901.789
875.762
943.721
796.657
802.019
802.154
805.74
806.294
797.989
744.249
726.421
768.44
800.042
802.877
803.814
803.935
803.724
803.327
803.15
805.273
819.932
886.553
803.542
804.372
804.391
804.882
805.339
802.319
803.294
804.023
804.195
804.304
805.453
806.169
806.449
806.333
806.102
806.342
807.203
812.441
823.448
801.026
802.726
803.324
803.886
804.618
804.978
804.764
804.677
805.253
806.231
807.341
808.232
808.851
809.217
809.383
809.531
809.27
810.394
812.785
799.17
801.719
802.378
802.758
803.488
804.079
804.404
804.898
805.886
807.043
808.225
809.271
810.165
810.91
811.509
812.057
811.09
803.033
799.841
798.725
801.575
801.846
801.25
801.636
802.281
802.695
803.241
804.325
805.394
806.341
807.317
808.433
809.641
810.765
811.752
812.691
807.377
801.571
628.568
724.661
743.675
701.591
673.826
702.918
729.012
737.568
759.272
778.015
789.22
794.969
798.139
800.748
800.504
807.67
810.138
796.522
779.4
46.5512
51.3184
25.7519
18.8581
88.8518
138.679
144.825
153.265
193.518
235.271
266.23
284.739
297.106
306.11
299.052
282.959
253.319
216.613
176.888
4.9871
4.73542
4.64721
4.62385
4.57201
4.46779
4.40525
4.39619
4.39459
4.41315
4.56705
5.10433
6.34713
9.46104
15.9073
13.6136
6.03968
4.83982
4.28406
4.868
4.73167
4.64868
4.60049
4.54809
4.50051
4.47127
4.46562
4.46912
4.47825
4.59903
5.13748
5.64494
5.0126
4.59516
4.48004
4.36371
4.36286
4.34558
4.87262
4.76436
4.68
4.61548
4.55272
4.50189
4.46478
4.53305
5.00713
4.98778
4.4752
4.38853
4.91463
5.87307
5.74429
4.82249
4.35116
4.34475
4.34058
4.89321
4.79423
4.71046
4.63333
4.56631
4.50952
4.46273
4.55922
5.48111
5.46396
4.94393
4.34213
4.68233
5.98026
5.89475
4.8247
4.34769
4.34157
4.3465
4.90395
4.81606
4.73551
4.65812
4.58936
4.52936
4.47849
4.47134
5.16071
5.49865
5.02286
4.33175
4.30833
4.28322
4.28039
4.30279
4.33764
4.35064
4.36311
4.9179
4.83828
4.76296
4.68752
4.61944
4.55965
4.50739
4.45956
4.41125
4.45041
4.36999
4.34677
4.33164
4.31974
4.32236
4.3387
4.35899
4.37632
4.38909
4.94037
4.86601
4.79487
4.72203
4.65525
4.59611
4.54529
4.49854
4.45399
4.41963
4.39803
4.38552
4.37419
4.36633
4.36803
4.37934
4.39435
4.40931
4.42181
4.9697
4.89906
4.83107
4.76077
4.69568
4.63748
4.58707
4.54219
4.50145
4.46854
4.44564
4.43154
4.42058
4.41424
4.41447
4.42217
4.43404
4.44757
4.45948
5.00388
4.93613
4.87074
4.8028
4.73951
4.68254
4.63217
4.58799
4.54989
4.51886
4.49575
4.47909
4.46836
4.46218
4.46233
4.4681
4.47773
4.48971
4.50081
5.04114
4.97603
4.91296
4.84726
4.78579
4.7302
4.68092
4.63782
4.601
4.57098
4.5478
4.53075
4.51934
4.51335
4.51269
4.51673
4.52452
4.53497
4.54424
5.0804
5.01771
4.95686
4.89338
4.83377
4.77964
4.73159
4.68962
4.65384
4.62442
4.60138
4.58428
4.57265
4.56617
4.56455
4.56718
4.57347
4.58236
4.59021
5.12058
5.06037
5.00173
4.94048
4.8828
4.83021
4.78341
4.74253
4.70764
4.67879
4.65591
4.6387
4.62677
4.61976
4.61726
4.61876
4.62375
4.63127
4.63774
5.16125
5.1034
5.04698
4.98801
4.93232
4.88134
4.83584
4.79602
4.76195
4.7336
4.71089
4.69356
4.68129
4.67373
4.67045
4.67098
4.67486
4.68107
4.68634
5.20171
5.1463
5.09214
5.03553
4.9819
4.93261
4.88845
4.8497
4.81641
4.78854
4.76599
4.74856
4.73596
4.72786
4.72387
4.72355
4.72639
4.73142
4.73578
5.24172
5.18872
5.1369
5.08271
5.0312
4.98369
4.94095
4.9033
4.8708
4.84341
4.82104
4.80352
4.79061
4.78202
4.77737
4.77625
4.77821
4.78224
4.78593
5.28077
5.23038
5.181
5.12933
5.08003
5.03437
4.99313
4.95663
4.92495
4.89807
4.87592
4.85835
4.84517
4.83613
4.83088
4.82907
4.83022
4.83349
4.83665
5.31884
5.27111
5.22427
5.17522
5.12822
5.08451
5.04486
5.00959
4.97879
4.95247
4.93058
4.91302
4.89962
4.89018
4.88441
4.88196
4.88246
4.88508
4.88792
5.35565
5.31079
5.26661
5.22026
5.17568
5.13402
5.09606
5.06209
5.03225
5.00656
4.985
4.96751
4.95396
4.9442
4.93797
4.935
4.9349
4.93707
4.93958
5.3913
5.34936
5.30796
5.2644
5.22234
5.18284
5.14666
5.1141
5.08531
5.06034
5.03919
5.02183
5.00821
4.99818
4.99158
4.98813
4.98758
4.98928
4.99157
5.42562
5.38679
5.34826
5.30759
5.26813
5.23091
5.19662
5.16558
5.13794
5.11377
5.09311
5.07598
5.06234
5.05213
5.0452
5.04137
5.04038
5.0417
5.04376
5.45881
5.42307
5.38746
5.34975
5.313
5.27816
5.24588
5.21647
5.19008
5.16682
5.14675
5.12991
5.11633
5.10599
5.0988
5.0946
5.09327
5.09421
5.09602
5.49071
5.45812
5.42547
5.3908
5.35685
5.3245
5.29435
5.26668
5.24167
5.21942
5.20002
5.18356
5.1701
5.15967
5.15225
5.14776
5.14607
5.14666
5.14822
5.52136
5.49182
5.46217
5.43058
5.39952
5.36977
5.34187
5.31608
5.29257
5.27146
5.25285
5.23685
5.22358
5.2131
5.20548
5.20067
5.19867
5.19895
5.20027
5.55046
5.52403
5.49739
5.46894
5.44085
5.41381
5.38828
5.36452
5.34265
5.32281
5.30511
5.28968
5.27666
5.26619
5.25837
5.25329
5.25093
5.25091
5.25207
5.578
5.55456
5.53093
5.50566
5.48063
5.4564
5.43339
5.41179
5.39173
5.37332
5.35668
5.34195
5.32929
5.31889
5.31092
5.30555
5.30288
5.30262
5.30365
5.60365
5.58322
5.56261
5.54056
5.51865
5.49735
5.47698
5.4577
5.43963
5.42284
5.40745
5.39359
5.38143
5.37119
5.36314
5.35756
5.35461
5.35415
5.35505
5.6274
5.6099
5.5923
5.5735
5.55477
5.53648
5.51889
5.5021
5.4862
5.47124
5.45732
5.44454
5.43308
5.42317
5.41516
5.4094
5.40626
5.40565
5.40639
5.64908
5.63455
5.61996
5.60443
5.58893
5.57375
5.55906
5.54492
5.53139
5.51849
5.50629
5.49486
5.48435
5.475
5.46716
5.46136
5.45806
5.45724
5.45779
5.66892
5.65729
5.64571
5.63346
5.62126
5.60927
5.5976
5.58628
5.57533
5.56475
5.55456
5.54481
5.53558
5.52707
5.51963
5.51379
5.51027
5.50916
5.50932
5.68691
5.67815
5.66961
5.6607
5.65186
5.64317
5.63466
5.62635
5.61821
5.61024
5.60241
5.59472
5.58721
5.57997
5.57322
5.56745
5.56339
5.56132
5.56082
5.70331
5.69712
5.69163
5.68608
5.68064
5.6753
5.67005
5.66487
5.65974
5.65462
5.64949
5.64432
5.63908
5.63374
5.62835
5.62303
5.61804
5.6137
5.61198
5.72081
5.71768
5.71551
5.7135
5.71158
5.70972
5.70788
5.70605
5.70422
5.70237
5.70048
5.69854
5.69651
5.69435
5.69199
5.68931
5.68589
5.68018
5.68113
)
;

boundaryField
{
    leftWall
    {
        type            fixedFluxPressure;
        gradient        uniform 0;
        value           nonuniform List<scalar> 
50
(
6707.23
6719.65
6736.74
6759.37
6787.33
6821.11
6860.79
5342.27
1327.25
1208.88
1215.02
1221.25
1081.37
833.485
611.96
339.007
6.75541
6.83494
6.84164
6.84751
6.84828
6.84442
6.83497
6.82034
6.80122
6.7781
6.75146
6.72145
6.68856
6.65328
6.61607
6.57731
6.53736
6.49645
6.45478
6.41241
6.36938
6.32565
6.28123
6.23611
6.19034
6.14399
6.09726
6.05033
6.0035
5.95708
5.91149
5.86691
5.82467
5.77243
)
;
    }
    rightWall
    {
        type            fixedFluxPressure;
        gradient        uniform 0;
        value           nonuniform List<scalar> 
50
(
2973.91
2930.59
2660.73
2192.16
1881.8
1267.01
1079.69
1097.16
1176.54
1160.86
943.721
886.553
823.448
812.785
799.841
801.571
779.4
176.888
4.28406
4.34558
4.34058
4.3465
4.36311
4.38909
4.42181
4.45948
4.50081
4.54424
4.59021
4.63774
4.68634
4.73578
4.78593
4.83665
4.88792
4.93958
4.99157
5.04376
5.09602
5.14822
5.20027
5.25207
5.30365
5.35505
5.40639
5.45779
5.50932
5.56082
5.61198
5.68113
)
;
    }
    lowerWall
    {
        type            fixedFluxPressure;
        gradient        uniform 0;
        value           nonuniform List<scalar> 
62
(
6707.23
6647.13
6572.08
6481.26
6384.94
6289.85
6199.61
6115.55
6037.51
5964.61
5895.99
5830.55
5767.43
5706.21
5646.88
5589.83
5535.69
5484.99
5437.81
5393.92
5353.79
5323.68
5304.92
5304.92
5302.25
5298
5291.1
5282.37
3917.78
1123.01
1123.64
1210.66
1260.73
1457.01
1457.44
2511.37
2227.04
1632.95
1829.55
1669.44
1219.79
1195.74
1275.39
2511.37
2533.23
2591.43
2698.36
2784.96
2844.08
2838.22
2770.73
2795.24
2823.26
2833.2
2820.82
2831.16
2911.52
2989.15
3021.86
3025.67
3000.35
2973.91
)
;
    }
    atmosphere
    {
        type            prghTotalPressure;
        rho             rho;
        psi             none;
        gamma           1;
        p0              uniform 0;
        value           nonuniform List<scalar> 
46
(
5.72871
5.72898
5.72904
5.72904
5.72904
5.72904
5.72904
5.72904
5.72904
5.72904
5.72904
5.72904
5.72904
5.72904
5.72904
5.72904
5.72904
5.72904
5.72904
5.72904
5.72904
5.72904
5.72904
5.72904
5.72904
5.72904
5.72904
5.72903
5.72902
5.72901
5.72899
5.72897
5.72893
5.7289
5.72886
5.72883
5.72879
5.72877
5.72876
5.72876
5.72877
5.72878
5.72878
5.72875
5.72862
5.72876
)
;
        rho             rho;
    }
    defaultFaces
    {
        type            empty;
    }
}


// ************************************************************************* //
