/*--------------------------------*- C++ -*----------------------------------*\
  =========                 |
  \\      /  F ield         | OpenFOAM: The Open Source CFD Toolbox
   \\    /   O peration     | Website:  https://openfoam.org
    \\  /    A nd           | Version:  13
     \\/     M anipulation  |
\*---------------------------------------------------------------------------*/
FoamFile
{
    format      ascii;
    class       volScalarField;
    location    "1.95";
    object      rho;
}
// * * * * * * * * * * * * * * * * * * * * * * * * * * * * * * * * * * * * * //

dimensions      [1 -3 0 0 0 0 0];

internalField   nonuniform List<scalar> 
2268
(
13529
13529
13529
13529
13529
13529
13529
13529
13529
13529
13529
13529
13529
13529
13529
13529
13529
13529
13529
13526.8
13522.7
13521.6
13521.6
13529
13529
13529
13529
13529
13529
13529
13529
13529
13529
13529
13529
13529
13529
13529
13529
13529
13529
13529
13529
13529
13528.1
13527
13529
13529
13529
13529
13529
13529
13529
13529
13529
13529
13529
13529
13529
13529
13529
13529
13529
13529
13529
13529
13529
13529
13529
13529
13529
13529
13529
13529
13529
13529
13529
13529
13529
13529
13529
13529
13529
13529
13529
13529
13529
13529
13529
13529
13529
13529
13529
13529
13529
13529
13529
13529
13529
13529
13529
13529
13529
13529
13529
13529
13529
13529
13529
13529
13529
13529
13529
13529
13529
13529
13529
13529
13529
13529
13529
13529
13529
13527.2
13487.1
13376.2
13187
12912.3
12550.5
12105.1
11585.5
11014.8
10445.5
9945.02
9551.92
9282.2
9087.46
8912.35
13529
13529
13509.7
12914.2
12146.4
11237.5
10239.1
9212.61
8195.18
7022.62
5951.32
4995.58
4145.76
3398.3
2757.11
2220.06
1787.05
1460.49
1231.47
1082.52
999.309
998.68
998.272
9759.31
7355.86
5322.4
4044
3003.55
2225.5
1678.27
1286.35
1005.38
1000
1000
1000
1000
1000
1000
999.999
999.996
999.978
999.926
999.851
999.749
999.596
998.86
11809.4
11813.2
11942.7
11954.3
11949.8
11901
10512.7
8399.37
8394.2
8491.67
8459.75
8177.71
8175.34
9359.11
10318.5
10336.5
10288.2
10025.7
9845.93
7128.46
7026.02
7910.14
9529.4
10731.6
10791.8
11348.3
11397.1
11371.4
11336
11029.9
10240.5
10251.8
10258.4
10305.3
10329.2
10290.4
10120.8
9220.18
2073.87
2163.06
2004.74
2668.53
3492.56
4888.61
6310.04
7527.89
9281.75
9773.01
9792.97
9464.09
9049.97
9300.84
8961.74
9042.84
8972.42
8373.81
7093.84
3226.19
3233.51
2387.96
2036.19
2147.77
2107.01
1880.34
1467.56
1511.83
1869.05
3041.31
3901.96
3310.89
3434.91
3887.06
3984.16
3948.2
3885.78
4557.96
2587.73
3019.93
3060.39
2913.99
2222.06
1746.59
1453.05
1060.06
1061.9
950.012
499.871
1416.24
2645.9
2563.06
2901.33
3673
3460.52
2996.29
3306.22
1082.14
1463.45
2697.14
2601.28
2352.66
1767.84
1805.22
1893.84
1155.94
1014.83
803.303
410.308
557.291
1280.21
1322.25
1370.86
1047.9
1147.15
1255.33
1027.2
971.088
1288.95
1948.87
1795.03
1710.2
1759.48
2067.41
1195.76
1001.51
992.265
927.618
720.493
613.764
727.125
899.067
966.467
996.685
745.756
1232.75
961.77
973.746
1496.86
1174.61
1337.73
1747.13
1624.16
1017.21
1001.73
1001.65
1001.38
992.548
969.111
975.662
995.953
999.947
999.282
802.169
1207.69
1020.51
1000
1000
1000
1000
1000
1000
1000
1000
1000
1000
1000
1000
1000
1000
1000
999.997
999.997
999.996
999.995
999.994
996.726
1000
1000
1000
1000
1000
1000
1000
1000
1000
1000
1000
1000
1000
1000
1000
1000
1000
1000
998.624
985.226
964.733
938.718
891.512
1000
1000
1000
1000
1000
1000
1000
1000
1000
1000
1000
1000
1000
998.844
990.68
979.854
967.997
938.118
881.783
807.314
727.562
597.362
509.55
1000
1000
994.086
996.19
998.654
999.696
999.871
997.706
989.394
979.403
965.581
944.751
913.205
859.997
783.133
736.726
673.63
593.558
531.016
471.313
425.869
461.004
499.928
849.03
878.842
877.533
844.059
811.181
810.457
802.51
733.374
716.769
666.594
602.004
543.007
500.035
464.056
429.884
415.798
459.483
476.092
452.389
447.678
484.019
498.819
499.826
617.006
536.858
521.575
514.241
510.073
506.81
479.11
437.299
452.923
469.23
469.378
463.595
481.291
493.437
494.534
498.227
499.576
499.769
499.664
499.403
500
500
499.938
431.702
467.396
488.692
488.21
487.352
484.539
478.709
470.862
460.82
450.733
441.256
424.608
406.212
399.188
399.034
403.247
423.162
461.616
499.999
499.999
500
500
499.997
226.834
241.262
238.034
226.665
210.152
187.961
162.913
137.736
110.56
83.6359
61.9761
50.2435
44.5044
39.7306
47.2133
60.4802
77.261
114.734
195.767
334.069
446.154
499.999
500
1.00027
1.00027
3.62108
3.11073
1.01445
1.00705
1.00191
1.00042
1.00011
1.00008
1.0002
1.00044
1.00075
1.00148
1.00107
1.00075
1.00076
1.00089
1.00169
8.48441
45.4812
112.493
225.721
1.00029
1.00045
1.00039
1.00922
1.26516
1.20241
1.00345
1.00008
1.00009
1.00001
1.01314
1.02178
1.00939
1.00073
1.00018
1.00002
1.00001
1.00001
1.00021
1.00077
1.00193
1.00229
1.00291
1.00063
1.00431
1.0014
1.06656
1.00666
1.00071
1.00008
1.00009
1.00397
1.04987
1.08814
1.08817
1.03042
1.00068
1.00016
1.00018
1.00009
1.00005
1.00005
1.00001
1
1.00001
1.00015
1.00082
1.00435
1.0011
1.00039
1.00018
1.00007
1.00006
1.00012
1.04084
1.08675
1.08843
1.08856
1.01504
1.00292
1.00146
1.00164
1.00106
1.0004
1.00019
1.00011
1.00007
1.00004
1.00003
1.00042
1.00037
1.00015
1.00007
1.00008
1.00007
1.00007
1.00014
1.01706
1.0844
1.08669
1.02854
1.0031
1.00307
1.00268
1.00253
1.00205
1.0006
1.0003
1.0002
1.00015
1.0001
1.00007
1.00029
1.00021
1.00012
1.00008
1.00007
1.00009
1.00016
1.00024
1.0004
1.00451
1.01062
1.00068
1.00276
1.00306
1.00284
1.00224
1.00115
1.0004
1.00028
1.00021
1.00017
1.00015
1.00009
1.00015
1.00017
1.00009
1.00006
1.00006
1.00008
1.00015
1.00021
1.00011
1.00008
1.00007
1.00013
1.00081
1.00135
1.00055
1.00031
1.00022
1.00021
1.00018
1.00014
1.00014
1.00011
1.00008
1.00005
1.00007
1.00006
1.00005
1.00004
1.00003
1.00002
1.00001
1.00001
1.00002
1.0001
1.00045
1.00055
1.0004
1.00006
1.00006
1.00004
1.00005
1.00008
1.00007
1.00008
1.00007
1.00005
1.00004
1.00005
1.00005
1.00004
1.00003
1.00002
1.00001
1.00001
1.00001
1.00004
1.00019
1.00046
1.00051
1.00021
1.00001
1.00002
1.00002
1.00003
1.00003
1.00003
1.00004
1.00004
1.00003
1.00004
1.00005
1.00005
1.00004
1.00002
1.00001
1.00001
1.00001
1.00002
1.00003
1.00008
1.00017
1.00018
1.00003
1.00001
1.00002
1.00002
1.00002
1.00001
1.00001
1.00002
1.00002
1.00001
1.00004
1.00005
1.00004
1.00003
1.00002
1.00001
1.00001
1.00001
1.00001
1.00001
1.00001
1.00001
1.00001
1.00001
1.00001
1.00001
1.00001
1.00001
1.00001
1.00001
1.00001
1.00001
1.00001
1.00004
1.00004
1.00004
1.00003
1.00002
1.00001
1.00001
1.00001
1.00001
1.00001
1
1
1
1.00001
1.00001
1.00001
1.00001
1.00001
1.00001
1
1
1
1
1.00003
1.00003
1.00003
1.00003
1.00002
1.00001
1.00001
1.00001
1
1
1
1
1
1
1
1
1
1
1
1
1
1
1
1.00002
1.00003
1.00002
1.00002
1.00002
1.00001
1.00001
1
1
1
1
1
1
1
1
1
1
1
1
1
1
1
1
1.00002
1.00002
1.00002
1.00002
1.00001
1.00001
1.00001
1
1
1
1
1
1
1
1
1
1
1
1
1
1
1
1
1.00002
1.00001
1.00001
1.00001
1.00001
1.00001
1
1
1
1
1
1
1
1
1
1
1
1
1
1
1
1
1
1.00001
1.00001
1.00001
1.00001
1
1
1
1
1
1
1
1
1
1
1
1
1
1
1
1
1
1
1
1.00001
1.00001
1.00001
1
1
1
1
1
1
1
1
1
1
1
1
1
1
1
1
1
1
1
1
1.00001
1.00001
1
1
1
1
1
1
1
1
1
1
1
1
1
1
1
1
1
1
1
1
1
1.00001
1
1
1
1
1
1
1
1
1
1
1
1
1
1
1
1
1
1
1
1
1
1
1
1
1
1
1
1
1
1
1
1
1
1
1
1
1
1
1
1
1
1
1
1
1
1
1
1
1
1
1
1
1
1
1
1
1
1
1
1
1
1
1
1
1
1
1
1
1
1
1
1
1
1
1
1
1
1
1
1
1
1
1
1
1
1
1
1
1
1
1
1
1
1
1
1
1
1
1
1
1
1
1
1
1
1
1
1
1
1
1
1
1
1
1
1
1
1
1
1
1
1
1
1
1
1
1
1
1
1
1
1
1
1
1
1
1
1
1
1
1
1
1
1
1
1
1
1
1
1
1
1
1
1
1
1
1
1
1
1
1
1
1
1
1
1
1
1
1
1
1
1
1
1
1
1
1
1
1
1
1
1
1
1
1
1
1
1
1
1
1
1
1
1
1
1
1
1
1
1
1
1
1
1
1
1
1
1
1
1
1
1
1
1
1
1
1
1
1
1
1
1
1
1
1
1
1
1
1
1
1
1
1
1
1
1
1
1
1
1
1
1
1
1
1
1
1
1
1
1
1
1
1
1
1
1
1
1
1
1
1
1
1
1
1
1
1
1
1
1
1
1
1
1
1
1
1
1
1
1
1
1
1
1
1
1
1
1
1
1
1
1
1
1
1
1
1
1
1
1
1
1
1
1
1
1
1
1
1
1
1
1
1
1
1
1
1
1
1
1
1
1
1
1
1
1
1
1
1
1
1
1
1
1
1
1
1
1
1
1
1
1
1
1
1154.56
1247.11
1610.33
1604.19
832.546
656.488
509.378
418.429
501.815
499.604
441.118
407.279
498.336
479.162
467.315
488.511
496.073
496.146
499.657
500.028
499.754
500.001
500
500
500
500
500
500
500
500
500
500
323.053
344.043
336.9
335.36
4.91493
9.20745
11.2441
15.3406
1.00097
1.00214
1.0018
1.00155
1.00002
1.00002
1.00002
1.00002
1.00005
1.00005
1.00004
1.00004
1.00007
1.00006
1.00005
1.00005
1.00006
1.00005
1.00005
1.00004
1.00005
1.00005
1.00003
1.00003
1.00003
1.00002
1.00002
1.00002
1.00001
1.00001
1.00001
1.00001
1.00001
1.00001
1.00001
1.00001
1
1
1
1
1
1
1
1
1
1
1
1
1
1
1
1
1
1
1
1
1
1
1
1
1
1
1
1
1
1
1
1
1
1
1
1
1
1
1
1
1
1
1
1
1
1
1
1
1
1
1
1
1
1
1
1
1
1
1
1
1
1
1
1
1
1
1
1
1
1
1
1
1
1
1
1
1
1
1
1
1
1
1
1
1
1
1
1
1
1
1
1
1367.88
790.4
890.324
872.309
1038.09
1408.4
1568.75
1088.26
999.923
1000.74
1001.26
1001.09
1000.82
1000.44
1000.15
1000.22
1000.22
999.746
985.538
459.928
657.457
801.364
755.385
617.611
580.494
737.821
904.041
975.288
985.706
986.841
981.469
975.896
967.356
985.161
1000.83
985.475
941.69
966.673
425.98
508.028
511.592
489.029
499.897
472.927
559.106
758.277
734.261
746.549
686.098
641.782
616.953
591.401
591.65
633.749
623.082
586.286
664.395
489.935
495.824
496.758
499.997
499.978
493.047
439.014
422.258
466.165
498.975
499.963
500.006
500.074
500.256
500.912
501.871
503.54
518.31
591.189
500.064
500.002
500.019
500.028
499.843
497.118
498.952
500.434
500.608
500.018
499.992
499.987
500
499.97
500.115
500.643
501.324
507.049
520.328
500
500.001
500.001
499.994
499.993
500.001
500
500.002
500.002
500.001
499.998
499.992
500
500
500
499.999
499.711
501.752
506.518
500
500
500.002
500.004
500.003
500.001
500.003
500.006
500.005
500.004
500.002
500.001
500.001
500.001
500
500
499.015
493.53
493.491
500
500.001
500.001
500.001
500.001
500.003
500.003
500.002
500
500
500
500
500.002
500.004
500.003
500
500.129
496.485
494.174
388.207
448.659
461.354
434.747
415.288
433.037
450.008
455.501
468.905
480.49
487.396
490.743
492.216
493.14
492.376
496.707
498.114
489.131
479.359
25.0206
27.947
13.1656
9.0884
49.8209
79.1387
82.8934
87.9063
111.644
136.336
154.713
165.68
172.883
177.991
173.604
164.058
146.559
124.628
101.28
1.00135
1.00056
1.00004
1.00008
1.00014
1.00003
1.00014
1.00093
1.0061
1.03451
1.152
1.47328
2.1565
3.85662
7.39786
6.15921
1.99951
1.27739
1.00155
1.00002
1.00003
1.00004
1.00007
1.0001
1.00011
1.00067
1.00255
1.00042
1.00346
1.07337
1.35908
1.61936
1.29184
1.10241
1.06746
1.00831
1.00102
1.00256
1.00004
1.00004
1.00005
1.00009
1.00013
1.00016
1.00042
1.04675
1.28293
1.27633
1.03292
1.00582
1.27315
1.73305
1.67052
1.2336
1.00866
1.00368
1.00157
1.00004
1.00004
1.00004
1.00009
1.00015
1.00013
1.00007
1.06238
1.5012
1.50213
1.27022
1.0036
1.17533
1.78169
1.74118
1.24218
1.01285
1.00302
1.00057
1.00004
1.00003
1.00004
1.00008
1.00014
1.00012
1.00007
1.01682
1.33809
1.49883
1.29968
1.00375
1.00344
1.00317
1.00134
1.0002
1.003
1.0002
1.00022
1.00003
1.00002
1.00003
1.00006
1.00012
1.00013
1.00014
1.00004
1.00006
1.03181
1.00653
1.00093
1.00034
1.00006
1.00005
1.00008
1.00003
1.00009
1.0003
1.00002
1.00002
1.00002
1.00004
1.00004
1.00006
1.00055
1.00069
1.0002
1.0001
1.00016
1.00078
1.0009
1.00057
1.00011
1.00003
1.00003
1.00014
1.0004
1.00001
1.00001
1.00001
1.00002
1.00002
1.00002
1.00039
1.00061
1.00044
1.00009
1.00012
1.00074
1.00094
1.00076
1.00019
1.00003
1.00005
1.00021
1.00039
1.00001
1.00001
1.00001
1.00001
1.00002
1.00002
1.00004
1.00008
1.00007
1.00006
1.00007
1.00008
1.0003
1.00014
1.00004
1.00003
1.00006
1.00013
1.00033
1
1
1
1.00001
1.00001
1.00002
1.00002
1.00002
1.00003
1.00004
1.00005
1.00001
1.00001
1.00001
1.00001
1.00002
1.00004
1.00007
1.00006
1
1
1
1
1.00001
1.00001
1.00001
1.00001
1.00002
1.00002
1.00002
1.00002
1.00001
1.00001
1.00001
1.00002
1.00002
1.00001
1.00001
1
1
1
1
1
1
1
1.00001
1.00001
1.00001
1.00001
1.00001
1.00001
1.00001
1.00001
1.00001
1.00001
1.00001
1.00001
1
1
1
1
1
1
1
1
1
1
1
1
1
1
1
1.00001
1.00001
1.00001
1.00001
1
1
1
1
1
1
1
1
1
1
1
1
1
1
1
1
1.00001
1.00001
1.00001
1
1
1
1
1
1
1
1
1
1
1
1
1
1
1
1
1.00001
1.00001
1.00001
1
1
1
1
1
1
1
1
1
1
1
1
1
1
1
1.00001
1.00001
1.00003
1.00001
1
1
1
1
1
1
1
1
1
1
1
1
1
1
1
1.00001
1.00002
1.00003
1.00003
1
1
1
1
1
1
1
1
1
1
1
1
1
1
1
1.00001
1.00002
1.00005
1.00003
1
1
1
1
1
1
1
1
1
1
1
1
1
1
1
1.00001
1.00003
1.00005
1.00003
1
1
1
1
1
1
1
1
1
1
1
1
1
1
1
1.00001
1.00003
1.00005
1.00003
1
1
1
1
1
1
1
1
1
1
1
1
1
1
1
1.00001
1.00004
1.00005
1.00003
1
1
1
1
1
1
1
1
1
1
1
1
1
1
1
1.00001
1.00004
1.00005
1.00002
1
1
1
1
1
1
1
1
1
1
1
1
1
1
1
1.00001
1.00004
1.00005
1.00002
1
1
1
1
1
1
1
1
1
1
1
1
1
1
1
1.00001
1.00002
1.00003
1.00001
1
1
1
1
1
1
1
1
1
1
1
1
1
1
1
1.00001
1.00001
1.00001
1.00001
1
1
1
1
1
1
1
1
1
1
1
1
1
1
1
1.00001
1.00001
1
1
1
1
1
1
1
1
1
1
1
1
1
1
1
1
1
1
1
1
1
1
1
1
1
1
1
1
1
1
1
1
1
1
1
1
1
1
1
1
1
1
1
1
1
1
1
1
1
1
1
1
1
1
1
1
1
1
1
1
1
1
1
1
1
1
1
1
1
1
1
1
1
1
1
1
1
1
1
1
1
1
1
1
1
1
1
1
1
1
1
1
1
1
1
1
1
1
1
1
1
1
1
1
1
1
1
1
1
1
1
1
1
1
1
1
)
;

boundaryField
{
    leftWall
    {
        type            calculated;
        value           nonuniform List<scalar> 
50
(
13529
13529
13529
13529
13529
13529
13529
9759.31
1207.69
1000
1000
1000
849.03
617.006
431.702
226.834
1.00027
1.00029
1.00063
1.00082
1.00042
1.00029
1.00015
1.00005
1.00004
1.00004
1.00004
1.00004
1.00003
1.00002
1.00002
1.00002
1.00001
1.00001
1.00001
1.00001
1
1
1
1
1
1
1
1
1
1
1
1
1
1
)
;
    }
    rightWall
    {
        type            calculated;
        value           nonuniform List<scalar> 
50
(
9845.93
9220.18
7093.84
4557.96
3306.22
1255.33
745.756
802.169
985.538
966.673
664.395
591.189
520.328
506.518
493.491
494.174
479.359
101.28
1.00155
1.00256
1.00157
1.00057
1.00022
1.0003
1.0004
1.00039
1.00033
1.00006
1.00001
1.00001
1.00001
1.00001
1.00001
1.00001
1.00003
1.00003
1.00003
1.00003
1.00003
1.00002
1.00002
1.00001
1.00001
1
1
1
1
1
1
1
)
;
    }
    lowerWall
    {
        type            calculated;
        value           nonuniform List<scalar> 
62
(
13529
13529
13529
13529
13529
13529
13529
13529
13529
13529
13529
13529
13529
13529
13529
13529
13529
13529
13529
13526.8
13522.7
13521.6
13521.6
13521.6
13527
13529
13529
13529
8912.35
998.272
998.86
1154.56
1247.11
1610.33
1604.19
11809.4
7128.46
2073.87
3226.19
2587.73
1082.14
1027.2
1232.75
11809.4
11813.2
11942.7
11954.3
11949.8
11901
10512.7
8399.37
8394.2
8491.67
8459.75
8177.71
8175.34
9359.11
10318.5
10336.5
10288.2
10025.7
9845.93
)
;
    }
    atmosphere
    {
        type            calculated;
        value           nonuniform List<scalar> 
46
(
1
1
1
1
1
1
1
1
1
1
1
1
1
1
1
1
1
1
1
1
1
1
1
1
1
1
1
1
1
1
1
1
1
1
1
1
1
1
1
1
1
1
1
1
1
1
)
;
    }
    defaultFaces
    {
        type            empty;
    }
}


// ************************************************************************* //
