/*--------------------------------*- C++ -*----------------------------------*\
  =========                 |
  \\      /  F ield         | OpenFOAM: The Open Source CFD Toolbox
   \\    /   O peration     | Website:  https://openfoam.org
    \\  /    A nd           | Version:  13
     \\/     M anipulation  |
\*---------------------------------------------------------------------------*/
FoamFile
{
    format      ascii;
    class       volVectorField;
    location    "1.95";
    object      U;
}
// * * * * * * * * * * * * * * * * * * * * * * * * * * * * * * * * * * * * * //

dimensions      [0 1 -1 0 0 0 0];

internalField   nonuniform List<vector> 
2268
(
(-0.00370606 0.00276153 0)
(-0.0173599 0.00792389 0)
(-0.0460868 0.00928632 0)
(-0.0715194 0.00818572 0)
(-0.0925728 0.00657052 0)
(-0.108507 0.00480504 0)
(-0.119231 0.00308746 0)
(-0.125105 0.00150485 0)
(-0.126657 8.27599e-05 0)
(-0.124456 -0.00115563 0)
(-0.1192 -0.00218597 0)
(-0.111588 -0.00298731 0)
(-0.102314 -0.00357011 0)
(-0.0919269 -0.00401495 0)
(-0.0806973 -0.00443666 0)
(-0.068681 -0.00488766 0)
(-0.0559218 -0.00533675 0)
(-0.0425296 -0.00575543 0)
(-0.0286644 -0.00611221 0)
(-0.0147489 -0.00616683 0)
(-0.00214182 -0.00540463 0)
(0.00917562 -0.00226034 0)
(0.0062244 0.00208782 0)
(-0.0089637 0.00701577 0)
(-0.0267781 0.0171512 0)
(-0.0525703 0.0190268 0)
(-0.0753474 0.016714 0)
(-0.0937213 0.0132332 0)
(-0.107166 0.0094444 0)
(-0.115687 0.00577479 0)
(-0.11968 0.002431 0)
(-0.119698 -0.000496317 0)
(-0.116413 -0.00293432 0)
(-0.110543 -0.00486379 0)
(-0.102727 -0.00628498 0)
(-0.0935645 -0.00725051 0)
(-0.0835489 -0.00790245 0)
(-0.0729948 -0.00841244 0)
(-0.0620808 -0.00886438 0)
(-0.0509638 -0.00924667 0)
(-0.0398127 -0.00954518 0)
(-0.0287975 -0.00969384 0)
(-0.0182143 -0.00933441 0)
(-0.00890696 -0.00773592 0)
(-0.000555352 -0.00328458 0)
(0.000833226 0.0051895 0)
(-0.0141027 0.0162003 0)
(-0.0329159 0.0278031 0)
(-0.0559717 0.0291359 0)
(-0.0760603 0.0253257 0)
(-0.0920042 0.0198011 0)
(-0.103428 0.0138647 0)
(-0.11038 0.00816462 0)
(-0.113236 0.00301431 0)
(-0.11252 -0.00143002 0)
(-0.10891 -0.00505782 0)
(-0.103064 -0.00790304 0)
(-0.0955326 -0.00999451 0)
(-0.0868319 -0.0114144 0)
(-0.0774069 -0.0123516 0)
(-0.0675855 -0.0130256 0)
(-0.0576084 -0.0135445 0)
(-0.0477005 -0.0139013 0)
(-0.0380797 -0.0140885 0)
(-0.0289356 -0.0140287 0)
(-0.0204859 -0.0133077 0)
(-0.0132352 -0.0110989 0)
(-0.00663428 -0.00591603 0)
(-0.0038147 0.00342121 0)
(-0.017548 0.0273514 0)
(-0.0363413 0.0384323 0)
(-0.0573118 0.038609 0)
(-0.0750567 0.0332531 0)
(-0.0889343 0.0258069 0)
(-0.098731 0.0178597 0)
(-0.104527 0.0102428 0)
(-0.106662 0.00336948 0)
(-0.105615 -0.00253698 0)
(-0.102034 -0.00732766 0)
(-0.0964863 -0.0110672 0)
(-0.0894234 -0.0138183 0)
(-0.0812934 -0.0156823 0)
(-0.0725027 -0.0168827 0)
(-0.0633825 -0.0176769 0)
(-0.0542074 -0.0181903 0)
(-0.0452457 -0.0184209 0)
(-0.0367536 -0.0183753 0)
(-0.0289395 -0.0179853 0)
(-0.0219716 -0.0168291 0)
(-0.0161305 -0.0141204 0)
(-0.0106653 -0.00874709 0)
(-0.00683766 0.000165861 0)
(-0.0194325 0.0392769 0)
(-0.0373959 0.0490548 0)
(-0.0567268 0.0474436 0)
(-0.0724849 0.0405091 0)
(-0.0846619 0.0312549 0)
(-0.0932118 0.0214495 0)
(-0.0982291 0.0120587 0)
(-0.100004 0.00358035 0)
(-0.0989638 -0.00368713 0)
(-0.0956726 -0.0095211 0)
(-0.0905939 -0.0140953 0)
(-0.0841028 -0.0174562 0)
(-0.0765943 -0.0197144 0)
(-0.068444 -0.0211162 0)
(-0.0599794 -0.0219468 0)
(-0.0514916 -0.0223487 0)
(-0.0432709 -0.0223328 0)
(-0.0355967 -0.0219314 0)
(-0.0287055 -0.0211099 0)
(-0.0227527 -0.0194828 0)
(-0.0178707 -0.0163821 0)
(-0.0131507 -0.0112877 0)
(-0.00925914 -0.004933 0)
(-0.020211 0.0512358 0)
(-0.0364272 0.0592656 0)
(-0.0544225 0.0556712 0)
(-0.0683661 0.0469677 0)
(-0.0791799 0.0359815 0)
(-0.0868362 0.0244896 0)
(-0.0914368 0.0135749 0)
(-0.0931942 0.00380859 0)
(-0.0924698 -0.00446667 0)
(-0.0897319 -0.0110677 0)
(-0.0853021 -0.0162478 0)
(-0.0794691 -0.0200701 0)
(-0.0726179 -0.0226433 0)
(-0.0650916 -0.0242326 0)
(-0.0572161 -0.0251398 0)
(-0.0492972 -0.0255162 0)
(-0.0416237 -0.0253737 0)
(-0.0344835 -0.024749 0)
(-0.0281698 -0.0236279 0)
(-0.0228883 -0.0216712 0)
(-0.0187527 -0.0183489 0)
(-0.0143982 -0.0137008 0)
(-0.0116099 -0.0107751 0)
(-0.0211801 0.063687 0)
(-0.0331101 0.0676767 0)
(-0.049836 0.0617534 0)
(-0.0624207 0.0516196 0)
(-0.0720492 0.039458 0)
(-0.0790975 0.0268411 0)
(-0.0835488 0.0148355 0)
(-0.0855254 0.00405852 0)
(-0.0854278 -0.00511522 0)
(-0.0832399 -0.0125124 0)
(-0.0791627 -0.0182893 0)
(-0.0737077 -0.0225322 0)
(-0.067244 -0.0253537 0)
(-0.060111 -0.0270301 0)
(-0.0526476 -0.027884 0)
(-0.0451671 -0.0280856 0)
(-0.0379241 -0.0276593 0)
(-0.0311883 -0.026659 0)
(-0.0253209 -0.0250947 0)
(-0.0205976 -0.0226802 0)
(-0.0170296 -0.0190076 0)
(-0.0127186 -0.0142598 0)
(-0.010422 -0.0137084 0)
(-0.0221363 0.0729894 0)
(-0.0282011 0.0746002 0)
(-0.0429515 0.0668678 0)
(-0.0531563 0.0554463 0)
(-0.061173 0.0422134 0)
(-0.0672656 0.0286567 0)
(-0.0713662 0.0158113 0)
(-0.0734099 0.00431099 0)
(-0.0736067 -0.00539688 0)
(-0.0712689 -0.0135918 0)
(-0.0668052 -0.0203172 0)
(-0.0608476 -0.0254767 0)
(-0.05394 -0.0291814 0)
(-0.0464769 -0.0316481 0)
(-0.0389208 -0.0331263 0)
(-0.0316256 -0.0337585 0)
(-0.0247913 -0.033518 0)
(-0.0187198 -0.0323458 0)
(-0.0138473 -0.0302236 0)
(-0.0104625 -0.0270515 0)
(-0.00859795 -0.0230488 0)
(-0.00680125 -0.0190499 0)
(-0.00676446 -0.0217953 0)
(0.000841146 -0.000348174 0)
(-0.00661644 -3.62259e-05 0)
(-0.00839391 -0.00174235 0)
(-0.000916924 -0.00555874 0)
(0.0150431 -0.00647825 0)
(0.0342072 -0.00932164 0)
(0.0566921 -0.00863378 0)
(0.0740855 -0.00258 0)
(0.0835743 -0.00510539 0)
(0.0970527 -0.00778506 0)
(0.11506 -0.0083427 0)
(0.131014 -0.00360567 0)
(0.137391 -0.000180084 0)
(0.142313 -0.00143182 0)
(0.144047 0.00216461 0)
(0.135303 0.00689802 0)
(0.110014 0.0123894 0)
(0.0682464 0.0129023 0)
(0.0241001 0.0124497 0)
(-1.11757e-05 0.00168287 0)
(-0.00731455 0.00240548 0)
(0.00251286 -0.00010182 0)
(0.014764 -0.00737492 0)
(0.02664 -0.00924003 0)
(0.0386026 -0.0128856 0)
(0.0579297 -0.0148994 0)
(0.0777885 -0.00782131 0)
(0.0908022 -0.00847694 0)
(0.0992657 -0.00977362 0)
(0.10795 -0.0110601 0)
(0.119049 -0.00754546 0)
(0.129251 -0.00321715 0)
(0.135536 -0.00354543 0)
(0.136726 0.00224766 0)
(0.131274 0.00963899 0)
(0.112454 0.0216195 0)
(0.0739777 0.0293001 0)
(0.0244146 0.0299915 0)
(-0.0153284 0.00692963 0)
(-0.0209447 -0.00209908 0)
(0.000202565 -0.00583091 0)
(0.0218262 -0.0136538 0)
(0.0343182 -0.0131809 0)
(0.044411 -0.0180666 0)
(0.0627696 -0.0215735 0)
(0.0845104 -0.0127585 0)
(0.0971053 -0.0112212 0)
(0.100932 -0.0115144 0)
(0.103447 -0.0129155 0)
(0.109831 -0.0109262 0)
(0.119231 -0.00604398 0)
(0.124621 -0.00448341 0)
(0.125457 0.00328742 0)
(0.123255 0.012874 0)
(0.109519 0.0311416 0)
(0.0732338 0.0463088 0)
(0.0237084 0.0483026 0)
(-0.00639579 0.0156018 0)
(-0.032428 -0.00608363 0)
(-0.0163199 -0.0198102 0)
(0.0141736 -0.0264417 0)
(0.032812 -0.0192036 0)
(0.0411738 -0.024357 0)
(0.0594815 -0.0308808 0)
(0.0886965 -0.019148 0)
(0.104126 -0.0129616 0)
(0.10349 -0.012038 0)
(0.101551 -0.0134341 0)
(0.101266 -0.0132659 0)
(0.107127 -0.0083007 0)
(0.112334 -0.00558978 0)
(0.112708 0.00321832 0)
(0.112903 0.0140776 0)
(0.10398 0.040453 0)
(0.0708963 0.0662438 0)
(0.0301675 0.0691458 0)
(0.00464474 0.0233906 0)
(-0.0348945 -0.00167023 0)
(-0.0287602 -0.0286953 0)
(-0.0063331 -0.0361884 0)
(0.00996281 -0.0241237 0)
(0.0172202 -0.0296134 0)
(0.034902 -0.0444098 0)
(0.0701622 -0.0385722 0)
(0.0980114 -0.0168115 0)
(0.0999106 -0.0128752 0)
(0.10071 -0.0109315 0)
(0.0970831 -0.0147695 0)
(0.0987389 -0.0112374 0)
(0.101709 -0.00646674 0)
(0.103479 0.00355822 0)
(0.103883 0.015792 0)
(0.0967101 0.0490684 0)
(0.0710377 0.0824793 0)
(0.0518108 0.0888036 0)
(0.0382267 0.0349251 0)
(-0.021459 0.0124667 0)
(-0.0327165 -0.0316577 0)
(-0.0259248 -0.0418459 0)
(-0.0168629 -0.0272887 0)
(-0.011611 -0.0345045 0)
(0.00796284 -0.0550099 0)
(0.0372356 -0.0528283 0)
(0.0648731 -0.021086 0)
(0.0728984 -0.015498 0)
(0.0799259 -0.0128127 0)
(0.090029 -0.0126297 0)
(0.0928447 -0.0117414 0)
(0.0944834 -0.00770233 0)
(0.0955904 0.00373974 0)
(0.0932718 0.0160365 0)
(0.0843368 0.0542579 0)
(0.067027 0.0923492 0)
(0.0641969 0.117076 0)
(0.0699206 0.0128174 0)
(0.00198606 0.0377924 0)
(-0.034041 -0.0270064 0)
(-0.0425673 -0.0438128 0)
(-0.041249 -0.0290879 0)
(-0.0364159 -0.0399428 0)
(-0.0170228 -0.0644623 0)
(0.00619186 -0.0623693 0)
(0.0262301 -0.027055 0)
(0.040939 -0.0198262 0)
(0.0531386 -0.0180504 0)
(0.0656105 -0.0184515 0)
(0.0766571 -0.0134811 0)
(0.0831497 -0.00840078 0)
(0.0848727 0.0034285 0)
(0.0825893 0.0190892 0)
(0.0764714 0.0609233 0)
(0.0632441 0.0981481 0)
(0.0586352 0.146191 0)
(0.0363464 -0.00297409 0)
(-0.00887763 0.0575143 0)
(-0.0431339 -0.014488 0)
(-0.0577246 -0.0409684 0)
(-0.0636813 -0.0286924 0)
(-0.05844 -0.0463853 0)
(-0.041883 -0.0727422 0)
(-0.0252869 -0.0689567 0)
(-0.0109936 -0.0352767 0)
(0.00989419 -0.0272952 0)
(0.0279711 -0.0250103 0)
(0.0432003 -0.0226665 0)
(0.0561111 -0.0188459 0)
(0.0662146 -0.0110774 0)
(0.0721802 0.00272641 0)
(0.0726745 0.0216178 0)
(0.0689881 0.0624057 0)
(0.0560964 0.103106 0)
(0.0456532 0.165631 0)
(-0.023492 0.092957 0)
(-0.0219295 0.0854902 0)
(-0.0294417 0.0774544 0)
(-0.0319098 0.0645861 0)
(-0.0324779 0.0502467 0)
(-0.0317338 0.0347964 0)
(-0.0298832 0.0193304 0)
(-0.0272127 0.00487077 0)
(-0.0235639 -0.0079561 0)
(-0.020255 -0.0193451 0)
(-0.0166193 -0.0277663 0)
(-0.0128846 -0.0336738 0)
(-0.00922085 -0.0373509 0)
(-0.00587422 -0.0391728 0)
(-0.00311631 -0.039574 0)
(-0.000977726 -0.0390335 0)
(0.000656484 -0.0376265 0)
(0.00159508 -0.0352032 0)
(0.00140627 -0.0317621 0)
(-0.000306998 -0.0272805 0)
(-0.00376962 -0.0221428 0)
(-0.00896571 -0.0164238 0)
(-0.020491 -0.0128357 0)
(0.000697485 0.105031 0)
(0.00361187 0.0906261 0)
(0.00708836 0.0763751 0)
(0.0130168 0.0608649 0)
(0.018794 0.0445766 0)
(0.0242288 0.0284955 0)
(0.0289324 0.0136619 0)
(0.0326202 0.000575304 0)
(0.0354757 -0.0106467 0)
(0.0375145 -0.0198735 0)
(0.0387314 -0.0270425 0)
(0.0389316 -0.0320389 0)
(0.037999 -0.035066 0)
(0.035781 -0.0362378 0)
(0.032003 -0.0359393 0)
(0.0268235 -0.0350447 0)
(0.0205945 -0.0333298 0)
(0.0130974 -0.0301669 0)
(0.00376021 -0.0255402 0)
(-0.00782011 -0.019506 0)
(-0.0215758 -0.0125659 0)
(-0.0370771 -0.00449992 0)
(-0.0542329 0.00392202 0)
(0.00992287 0.0902205 0)
(0.021586 0.0768572 0)
(0.0331851 0.0640928 0)
(0.0445731 0.0500266 0)
(0.0548171 0.0354086 0)
(0.0638177 0.0208551 0)
(0.0711457 0.00788627 0)
(0.0761679 -0.00306573 0)
(0.0789446 -0.0128378 0)
(0.0800176 -0.0206039 0)
(0.0791477 -0.025985 0)
(0.076017 -0.0291714 0)
(0.0706153 -0.0304147 0)
(0.0628084 -0.029677 0)
(0.0521653 -0.027398 0)
(0.0390263 -0.0251466 0)
(0.0239009 -0.0223373 0)
(0.00628893 -0.017435 0)
(-0.0147382 -0.0102252 0)
(-0.0394273 -0.00110312 0)
(-0.0677252 0.00938518 0)
(-0.0989084 0.0212216 0)
(-0.132606 0.030346 0)
(0.0123446 0.073385 0)
(0.0316535 0.0614142 0)
(0.0491812 0.0492494 0)
(0.0653411 0.0370734 0)
(0.0791148 0.0243987 0)
(0.0908585 0.0113848 0)
(0.100171 0.000883945 0)
(0.105691 -0.00668773 0)
(0.108013 -0.0144777 0)
(0.107982 -0.0200846 0)
(0.104887 -0.0229525 0)
(0.0982279 -0.0235903 0)
(0.088001 -0.0224762 0)
(0.0741802 -0.0190824 0)
(0.0561527 -0.0135854 0)
(0.0338304 -0.0085006 0)
(0.00794973 -0.00240116 0)
(-0.021995 0.00697405 0)
(-0.0564878 0.0189115 0)
(-0.0948095 0.0324999 0)
(-0.135412 0.0454984 0)
(-0.17267 0.055919 0)
(-0.202207 0.0625528 0)
(0.0158929 0.0499117 0)
(0.0401672 0.042266 0)
(0.0602173 0.0313862 0)
(0.0795098 0.0215204 0)
(0.0963898 0.0112224 0)
(0.110194 0.000324906 0)
(0.120053 -0.00669481 0)
(0.125268 -0.00981732 0)
(0.126436 -0.0152511 0)
(0.124577 -0.0180133 0)
(0.11897 -0.0168804 0)
(0.108318 -0.0127248 0)
(0.0922952 -0.00691456 0)
(0.0712032 0.00191558 0)
(0.0447192 0.0136176 0)
(0.0119829 0.0241281 0)
(-0.0252002 0.033871 0)
(-0.0649482 0.0473981 0)
(-0.107516 0.0630105 0)
(-0.150345 0.0768117 0)
(-0.188393 0.0854763 0)
(-0.21993 0.0882722 0)
(-0.245476 0.0871073 0)
(0.012467 0.0216219 0)
(0.0447834 0.0154042 0)
(0.0699138 0.00638404 0)
(0.0922894 -1.2235e-05 0)
(0.110931 -0.00679358 0)
(0.124884 -0.0134875 0)
(0.133924 -0.0153531 0)
(0.139247 -0.0128992 0)
(0.140148 -0.0139437 0)
(0.136217 -0.0120506 0)
(0.127755 -0.00529748 0)
(0.113654 0.00567009 0)
(0.0932395 0.0180173 0)
(0.0664098 0.0331292 0)
(0.0333692 0.0508812 0)
(-0.00596376 0.067856 0)
(-0.0515061 0.0821936 0)
(-0.0997112 0.0970419 0)
(-0.146155 0.111271 0)
(-0.187739 0.119357 0)
(-0.223431 0.120048 0)
(-0.253055 0.115873 0)
(-0.275786 0.107836 0)
(0.0260557 -0.0114275 0)
(0.0558277 -0.0170696 0)
(0.0830548 -0.0195955 0)
(0.105247 -0.0207832 0)
(0.12262 -0.0227205 0)
(0.135133 -0.0242379 0)
(0.143979 -0.0221409 0)
(0.149786 -0.0172815 0)
(0.151031 -0.013498 0)
(0.146304 -0.00740513 0)
(0.13542 0.00308482 0)
(0.118044 0.0179668 0)
(0.0930513 0.0350607 0)
(0.0595402 0.0548696 0)
(0.0189477 0.0772299 0)
(-0.0276592 0.0998036 0)
(-0.079816 0.11991 0)
(-0.133305 0.136854 0)
(-0.181756 0.149239 0)
(-0.222436 0.154994 0)
(-0.255927 0.153151 0)
(-0.282 0.143583 0)
(-0.30041 0.127157 0)
(0.0475561 -0.0411166 0)
(0.068768 -0.0400662 0)
(0.0928469 -0.0351482 0)
(0.113199 -0.0328756 0)
(0.129369 -0.0321488 0)
(0.141107 -0.0307055 0)
(0.149007 -0.0261838 0)
(0.154292 -0.0191944 0)
(0.15484 -0.0114171 0)
(0.147857 -0.000611149 0)
(0.13197 0.0145907 0)
(0.10836 0.033828 0)
(0.0781977 0.0555758 0)
(0.0377158 0.0797422 0)
(-0.00940128 0.105895 0)
(-0.0580061 0.132225 0)
(-0.111862 0.153961 0)
(-0.167652 0.168784 0)
(-0.216966 0.176142 0)
(-0.255412 0.175867 0)
(-0.284234 0.168593 0)
(-0.306993 0.157099 0)
(-0.323373 0.139664 0)
(0.060957 -0.0915532 0)
(0.0508242 -0.0472932 0)
(0.0870929 -0.0457536 0)
(0.112731 -0.0408471 0)
(0.12858 -0.0352107 0)
(0.136935 -0.0331472 0)
(0.142505 -0.0270358 0)
(0.145695 -0.0185777 0)
(0.142354 -0.00829187 0)
(0.129428 0.00844469 0)
(0.108012 0.0323062 0)
(0.0807923 0.0609321 0)
(0.0467745 0.0928039 0)
(0.00840298 0.132489 0)
(-0.0316495 0.156939 0)
(-0.0756234 0.177779 0)
(-0.119818 0.196322 0)
(-0.166445 0.198537 0)
(-0.220034 0.187891 0)
(-0.272714 0.179827 0)
(-0.298645 0.177391 0)
(-0.316295 0.164571 0)
(-0.330086 0.136017 0)
(0.0246124 -0.200418 0)
(0.0346981 -0.134492 0)
(0.0518608 -0.113883 0)
(0.0491434 -0.0915226 0)
(0.0405903 -0.0808425 0)
(0.042116 -0.0639239 0)
(0.0414318 -0.0476339 0)
(0.0389386 -0.0247857 0)
(0.0336649 0.00901804 0)
(0.0263892 0.0498111 0)
(0.0177524 0.0927666 0)
(0.0063354 0.137919 0)
(-0.00967514 0.185027 0)
(-0.0283946 0.234761 0)
(-0.048888 0.276138 0)
(-0.0750095 0.315557 0)
(-0.107438 0.353211 0)
(-0.149032 0.373839 0)
(-0.188239 0.377876 0)
(-0.222362 0.2981 0)
(-0.244273 0.202711 0)
(-0.276494 0.165309 0)
(-0.29511 0.133289 0)
(-0.0129072 -0.158126 0)
(-0.0107403 -0.118573 0)
(-0.00897667 -0.090166 0)
(-0.00786572 -0.0665271 0)
(-0.0142671 -0.0479803 0)
(-0.020225 -0.0467774 0)
(-0.0260712 -0.0315465 0)
(-0.0327612 -0.0137578 0)
(-0.0387032 0.00939747 0)
(-0.0420987 0.0373932 0)
(-0.0440022 0.0719281 0)
(-0.0466362 0.111508 0)
(-0.051657 0.15487 0)
(-0.0578407 0.196049 0)
(-0.0652027 0.235212 0)
(-0.0754871 0.273901 0)
(-0.0876408 0.309521 0)
(-0.102629 0.334344 0)
(-0.118496 0.324399 0)
(-0.12349 0.308292 0)
(-0.132378 0.286577 0)
(-0.168814 0.279679 0)
(-0.19676 0.234247 0)
(-0.0155855 -0.134911 0)
(-0.02978 -0.107194 0)
(-0.0378087 -0.0764877 0)
(-0.0433113 -0.0566555 0)
(-0.0481722 -0.0478685 0)
(-0.0549765 -0.0364348 0)
(-0.0642297 -0.0227957 0)
(-0.0717744 -0.00623799 0)
(-0.0772846 0.0134937 0)
(-0.0795253 0.037369 0)
(-0.079371 0.0693189 0)
(-0.078186 0.108054 0)
(-0.076223 0.150936 0)
(-0.0731343 0.191801 0)
(-0.0692969 0.230214 0)
(-0.0644776 0.26737 0)
(-0.0572542 0.301186 0)
(-0.0463313 0.324607 0)
(-0.0381736 0.32509 0)
(-0.0402854 0.28828 0)
(-0.0519153 0.266902 0)
(-0.060567 0.264635 0)
(-0.06178 0.228432 0)
(-0.0173478 -0.112833 0)
(-0.0373396 -0.0897187 0)
(-0.0518597 -0.068323 0)
(-0.0607102 -0.0513051 0)
(-0.0686576 -0.0381564 0)
(-0.077453 -0.0278006 0)
(-0.0857277 -0.0152397 0)
(-0.092409 -0.000134718 0)
(-0.0972203 0.0175125 0)
(-0.0999416 0.0390196 0)
(-0.100234 0.0688028 0)
(-0.09772 0.105986 0)
(-0.0915212 0.146138 0)
(-0.0819633 0.184703 0)
(-0.0700066 0.221507 0)
(-0.0554198 0.256221 0)
(-0.0373738 0.286389 0)
(-0.0155314 0.306603 0)
(0.00680493 0.308142 0)
(0.0195616 0.290796 0)
(0.0205798 0.269948 0)
(0.0263172 0.253712 0)
(0.0419852 0.217955 0)
(-0.0205012 -0.0868704 0)
(-0.0402823 -0.0692278 0)
(-0.0574328 -0.0534873 0)
(-0.0699682 -0.0404622 0)
(-0.0798962 -0.029978 0)
(-0.0887127 -0.019882 0)
(-0.0963694 -0.00850673 0)
(-0.102356 0.00496079 0)
(-0.106715 0.0211074 0)
(-0.109597 0.0411112 0)
(-0.110126 0.0680992 0)
(-0.106459 0.10139 0)
(-0.0978811 0.137121 0)
(-0.0850746 0.172459 0)
(-0.0687466 0.206413 0)
(-0.049008 0.23787 0)
(-0.0256593 0.264604 0)
(0.000825022 0.282754 0)
(0.0276594 0.287101 0)
(0.0489177 0.276143 0)
(0.0627444 0.258784 0)
(0.076729 0.239541 0)
(0.0960012 0.208865 0)
(-0.021593 -0.0587874 0)
(-0.0406978 -0.048012 0)
(-0.0584205 -0.0380881 0)
(-0.0722842 -0.0289305 0)
(-0.0832369 -0.0203952 0)
(-0.0922896 -0.0117266 0)
(-0.0997527 -0.00186264 0)
(-0.105549 0.00993408 0)
(-0.109679 0.0244141 0)
(-0.112099 0.0426945 0)
(-0.111888 0.0661937 0)
(-0.107502 0.0946378 0)
(-0.0982378 0.125475 0)
(-0.0843609 0.15667 0)
(-0.0664078 0.186828 0)
(-0.0446394 0.214595 0)
(-0.0193306 0.238067 0)
(0.00874132 0.254554 0)
(0.0372789 0.260872 0)
(0.0628242 0.256102 0)
(0.0832128 0.243857 0)
(0.101715 0.226551 0)
(0.1224 0.203075 0)
(-0.0207044 -0.0310693 0)
(-0.0388254 -0.0267903 0)
(-0.0562035 -0.0217917 0)
(-0.0703387 -0.0162374 0)
(-0.0816389 -0.0102156 0)
(-0.0907784 -0.00342339 0)
(-0.0981411 0.00471839 0)
(-0.103807 0.0147984 0)
(-0.107722 0.0274717 0)
(-0.10964 0.0435286 0)
(-0.108805 0.0636676 0)
(-0.104099 0.0875123 0)
(-0.0948747 0.113623 0)
(-0.0811666 0.140376 0)
(-0.0632648 0.166447 0)
(-0.0415039 0.190458 0)
(-0.0163449 0.210842 0)
(0.0113651 0.22566 0)
(0.0397416 0.232783 0)
(0.0665502 0.231515 0)
(0.0897819 0.223292 0)
(0.110777 0.209907 0)
(0.132944 0.192449 0)
(-0.0187055 -0.00511618 0)
(-0.035545 -0.00666083 0)
(-0.0520254 -0.00588885 0)
(-0.0657942 -0.00354435 0)
(-0.0769629 2.80982e-05 0)
(-0.0859699 0.00483785 0)
(-0.0931579 0.0111805 0)
(-0.0986216 0.019474 0)
(-0.102274 0.0302105 0)
(-0.103819 0.0438758 0)
(-0.102638 0.0607648 0)
(-0.0979482 0.0805664 0)
(-0.0892208 0.102303 0)
(-0.0763445 0.124793 0)
(-0.0594699 0.146845 0)
(-0.0389083 0.167257 0)
(-0.0151662 0.184726 0)
(0.0109668 0.197841 0)
(0.0379752 0.205081 0)
(0.0642949 0.205881 0)
(0.0881663 0.200853 0)
(0.110261 0.191146 0)
(0.133781 0.178331 0)
(-0.0162143 0.0184961 0)
(-0.0314703 0.0121064 0)
(-0.046739 0.00924645 0)
(-0.0597392 0.00874202 0)
(-0.0704339 0.0100119 0)
(-0.0791018 0.0128623 0)
(-0.0859939 0.0174141 0)
(-0.0911781 0.023914 0)
(-0.0945525 0.0326635 0)
(-0.0958341 0.0439351 0)
(-0.0945435 0.0578214 0)
(-0.090117 0.0740292 0)
(-0.0821347 0.091871 0)
(-0.0704377 0.110443 0)
(-0.0550961 0.128768 0)
(-0.0363703 0.145831 0)
(-0.0147225 0.160588 0)
(0.00916115 0.171984 0)
(0.0340912 0.178909 0)
(0.0589293 0.180882 0)
(0.0821442 0.178135 0)
(0.104386 0.17141 0)
(0.128703 0.161966 0)
(-0.0138773 0.0382789 0)
(-0.0273108 0.0287137 0)
(-0.0411057 0.0230593 0)
(-0.0530238 0.0201791 0)
(-0.0629644 0.0194086 0)
(-0.0710723 0.0204591 0)
(-0.0775248 0.0233067 0)
(-0.0823513 0.0280618 0)
(-0.0854411 0.0348797 0)
(-0.0865469 0.0438788 0)
(-0.0852978 0.0550379 0)
(-0.0812796 0.0680894 0)
(-0.0741652 0.082507 0)
(-0.0637969 0.0975945 0)
(-0.0501991 0.112566 0)
(-0.0335753 0.126599 0)
(-0.0143123 0.138862 0)
(0.00701999 0.148557 0)
(0.029516 0.154859 0)
(0.0523097 0.15736 0)
(0.0741604 0.156105 0)
(0.0957672 0.151535 0)
(0.120068 0.144443 0)
(-0.0118056 0.0555823 0)
(-0.0233661 0.0433258 0)
(-0.0355135 0.0354248 0)
(-0.0461228 0.0305801 0)
(-0.0550844 0.0280496 0)
(-0.0624582 0.0274769 0)
(-0.0683471 0.028748 0)
(-0.0727459 0.0318683 0)
(-0.0755418 0.036881 0)
(-0.0765235 0.0437988 0)
(-0.0754015 0.0525336 0)
(-0.0718639 0.0628359 0)
(-0.065656 0.0742853 0)
(-0.056639 0.0863344 0)
(-0.0448142 0.0983584 0)
(-0.0303334 0.109698 0)
(-0.0135028 0.119697 0)
(0.00521734 0.127745 0)
(0.0251478 0.133221 0)
(0.0456559 0.135781 0)
(0.0656879 0.135376 0)
(0.0860972 0.132224 0)
(0.10968 0.126755 0)
(-0.00989523 0.070312 0)
(-0.019605 0.0559115 0)
(-0.030035 0.0462187 0)
(-0.0392209 0.0397727 0)
(-0.0470708 0.0357622 0)
(-0.0535911 0.0337816 0)
(-0.0588289 0.0336505 0)
(-0.0627506 0.0352958 0)
(-0.0652438 0.038679 0)
(-0.0661274 0.043742 0)
(-0.0651706 0.0503571 0)
(-0.0621325 0.0582906 0)
(-0.0568128 0.0671951 0)
(-0.0490945 0.0766318 0)
(-0.0389662 0.0861027 0)
(-0.0265385 0.0950831 0)
(-0.0120453 0.103056 0)
(0.00414924 0.109545 0)
(0.0215434 0.114083 0)
(0.0396683 0.116384 0)
(0.0576748 0.116347 0)
(0.0764837 0.114061 0)
(0.0987169 0.10966 0)
(-0.00809426 0.0825258 0)
(-0.0159745 0.0664423 0)
(-0.0246717 0.055362 0)
(-0.0323836 0.0476557 0)
(-0.0390531 0.0424476 0)
(-0.044654 0.0392922 0)
(-0.0491907 0.0379602 0)
(-0.0526078 0.0383207 0)
(-0.0547934 0.040278 0)
(-0.0555888 0.0437271 0)
(-0.0548051 0.0485181 0)
(-0.0522503 0.0544318 0)
(-0.0477644 0.0611742 0)
(-0.0412483 0.0683876 0)
(-0.0326845 0.075672 0)
(-0.0221502 0.0826092 0)
(-0.00982006 0.0887905 0)
(0.00402102 0.0938419 0)
(0.0189955 0.0974053 0)
(0.0347913 0.0992495 0)
(0.0506746 0.099257 0)
(0.0676396 0.0974249 0)
(0.088198 0.0937238 0)
(-0.00633377 0.0923147 0)
(-0.0124339 0.074947 0)
(-0.0193956 0.0628433 0)
(-0.0256266 0.0541946 0)
(-0.031096 0.0480638 0)
(-0.0357545 0.0439719 0)
(-0.0395723 0.0416523 0)
(-0.0424764 0.0409329 0)
(-0.0443542 0.0416788 0)
(-0.0450629 0.043755 0)
(-0.044442 0.0470006 0)
(-0.0423338 0.0512108 0)
(-0.0386061 0.0561323 0)
(-0.0331745 0.0614694 0)
(-0.0260167 0.0668979 0)
(-0.0171845 0.0720823 0)
(-0.00680722 0.0766981 0)
(0.00489133 0.0804492 0)
(0.0176385 0.0830613 0)
(0.0312106 0.0843486 0)
(0.0450046 0.084191 0)
(0.0600359 0.0825531 0)
(0.07864 0.0792727 0)
(-0.00456883 0.0997168 0)
(-0.0089341 0.0814598 0)
(-0.014194 0.0686816 0)
(-0.0189688 0.0593947 0)
(-0.0232533 0.0526081 0)
(-0.026978 0.0478162 0)
(-0.0300837 0.0447248 0)
(-0.0324812 0.0431336 0)
(-0.0340561 0.0428817 0)
(-0.0346752 0.0438168 0)
(-0.0341974 0.0457743 0)
(-0.0324876 0.0485639 0)
(-0.0294333 0.0519653 0)
(-0.0249597 0.0557309 0)
(-0.0190418 0.0595958 0)
(-0.0117099 0.0632894 0)
(-0.00306321 0.0665522 0)
(0.0067228 0.0691475 0)
(0.0174586 0.0708693 0)
(0.0289896 0.0715648 0)
(0.0407944 0.0711286 0)
(0.0538933 0.0695036 0)
(0.070519 0.0664703 0)
(-0.00276843 0.104742 0)
(-0.00548329 0.0860271 0)
(-0.00908446 0.0729227 0)
(-0.0124556 0.0632919 0)
(-0.0155983 0.0561071 0)
(-0.0184218 0.0508448 0)
(-0.0208398 0.0471929 0)
(-0.0227482 0.0449328 0)
(-0.0240287 0.0438883 0)
(-0.0245538 0.0438988 0)
(-0.0241943 0.0448016 0)
(-0.0228301 0.0464211 0)
(-0.0203614 0.0485647 0)
(-0.0167201 0.0510238 0)
(-0.0118771 0.0535805 0)
(-0.00584592 0.0560164 0)
(0.00129083 0.0581216 0)
(0.00939723 0.0597059 0)
(0.0183543 0.0606165 0)
(0.0280353 0.0607302 0)
(0.0380092 0.0599593 0)
(0.0492865 0.0582499 0)
(0.0639086 0.0553346 0)
(-0.000954896 0.107409 0)
(-0.00211609 0.0887245 0)
(-0.00414264 0.0756448 0)
(-0.00618481 0.0659514 0)
(-0.00824659 0.0586112 0)
(-0.0102163 0.0530959 0)
(-0.0119819 0.0490839 0)
(-0.0134249 0.046347 0)
(-0.014422 0.0447018 0)
(-0.0148475 0.0439859 0)
(-0.0145792 0.0440426 0)
(-0.0135062 0.0447118 0)
(-0.0115368 0.0458251 0)
(-0.008606 0.0472064 0)
(-0.00467914 0.0486766 0)
(0.000228014 0.050056 0)
(0.00605981 0.0511746 0)
(0.0127298 0.0518889 0)
(0.020129 0.0520783 0)
(0.028187 0.0516488 0)
(0.0365222 0.0505342 0)
(0.0461047 0.0486824 0)
(0.0589063 0.0458129 0)
(0.00077852 0.1077 0)
(0.0010298 0.0896419 0)
(0.000494849 0.0769267 0)
(-0.000309503 0.0674399 0)
(-0.00136087 0.0601813 0)
(-0.00252911 0.0546231 0)
(-0.00368126 0.05044 0)
(-0.00468493 0.0474041 0)
(-0.0054098 0.0453331 0)
(-0.00572914 0.0440684 0)
(-0.00552377 0.043463 0)
(-0.00468776 0.0433726 0)
(-0.0031341 0.0436507 0)
(-0.00080421 0.0441457 0)
(0.0023362 0.0447111 0)
(0.00629642 0.0452069 0)
(0.0110382 0.0454984 0)
(0.0164803 0.0454693 0)
(0.0225488 0.0450293 0)
(0.0291948 0.0441114 0)
(0.0360904 0.0426648 0)
(0.0441787 0.0406554 0)
(0.0552489 0.0377789 0)
(0.0023281 0.105853 0)
(0.00383259 0.0889321 0)
(0.00466549 0.0768828 0)
(0.00499358 0.0678389 0)
(0.00486703 0.0608593 0)
(0.00443495 0.055439 0)
(0.00385112 0.051259 0)
(0.00325891 0.048091 0)
(0.00279516 0.0457561 0)
(0.00258906 0.0441033 0)
(0.00275887 0.0429975 0)
(0.00340838 0.0423113 0)
(0.00462282 0.0419204 0)
(0.00646482 0.0417012 0)
(0.00897087 0.0415316 0)
(0.0121496 0.041297 0)
(0.0159754 0.0408933 0)
(0.0203871 0.0402332 0)
(0.0253299 0.0392513 0)
(0.0307813 0.0379018 0)
(0.0364489 0.0361516 0)
(0.0432113 0.0339774 0)
(0.0527777 0.0310711 0)
(0.00359216 0.102178 0)
(0.00616521 0.0867623 0)
(0.00822712 0.0756385 0)
(0.00957071 0.0672574 0)
(0.0102808 0.0607527 0)
(0.0105179 0.055642 0)
(0.0104531 0.0516176 0)
(0.0102421 0.0484599 0)
(0.0100283 0.045999 0)
(0.00994422 0.0440958 0)
(0.0101086 0.0426293 0)
(0.0106242 0.0414891 0)
(0.0115751 0.0405707 0)
(0.0130238 0.0397732 0)
(0.0150095 0.0389998 0)
(0.0175459 0.0381608 0)
(0.0206177 0.0371771 0)
(0.0241775 0.035985 0)
(0.0281883 0.0345407 0)
(0.0326335 0.0328149 0)
(0.0372587 0.0307923 0)
(0.0429074 0.0284631 0)
(0.0510906 0.0255108 0)
(0.00450832 0.0970446 0)
(0.00797822 0.0833471 0)
(0.0110732 0.0733391 0)
(0.0132905 0.0657964 0)
(0.014732 0.0599277 0)
(0.0155614 0.0552737 0)
(0.0159622 0.0515402 0)
(0.0160995 0.0485194 0)
(0.0161227 0.0460544 0)
(0.0161669 0.04402 0)
(0.0163514 0.0423114 0)
(0.0167786 0.0408362 0)
(0.0175314 0.0395095 0)
(0.0186729 0.0382519 0)
(0.0202444 0.0369889 0)
(0.0222649 0.0356534 0)
(0.0247264 0.0341882 0)
(0.0275934 0.03255 0)
(0.0308372 0.0307132 0)
(0.0344583 0.0286654 0)
(0.0382298 0.0264064 0)
(0.0429126 0.0239341 0)
(0.0499568 0.0209346 0)
(0.00509087 0.0908655 0)
(0.00926873 0.0789398 0)
(0.0131827 0.0701658 0)
(0.0161082 0.063592 0)
(0.0181549 0.0584859 0)
(0.0194828 0.0544072 0)
(0.0202826 0.051075 0)
(0.0207253 0.0482955 0)
(0.0209643 0.045927 0)
(0.0211359 0.0438609 0)
(0.0213595 0.0420097 0)
(0.0217359 0.0402994 0)
(0.0223475 0.0386647 0)
(0.0232569 0.0370461 0)
(0.0245074 0.0353897 0)
(0.0261214 0.0336485 0)
(0.0280974 0.0317847 0)
(0.0304087 0.0297737 0)
(0.0330378 0.0276065 0)
(0.0359857 0.0252865 0)
(0.0390504 0.0228234 0)
(0.0429545 0.0202308 0)
(0.0489564 0.0171815 0)
(0.00539779 0.0840108 0)
(0.010119 0.0737997 0)
(0.014612 0.0663199 0)
(0.0180648 0.0608013 0)
(0.0205724 0.0565484 0)
(0.0222872 0.0531327 0)
(0.0234029 0.0502853 0)
(0.024094 0.0478274 0)
(0.0245151 0.0456342 0)
(0.0248022 0.0436152 0)
(0.0250726 0.0417013 0)
(0.0254251 0.0398374 0)
(0.0259398 0.0379769 0)
(0.0266784 0.0360792 0)
(0.0276845 0.034109 0)
(0.0289835 0.0320376 0)
(0.0305788 0.0298449 0)
(0.0324511 0.0275231 0)
(0.034588 0.0250784 0)
(0.0369995 0.0225276 0)
(0.0395092 0.0198926 0)
(0.0427462 0.0171937 0)
(0.047895 0.014103 0)
(0.00553959 0.0767713 0)
(0.0106256 0.0681716 0)
(0.0154877 0.0620112 0)
(0.0192823 0.0575983 0)
(0.0220915 0.0542557 0)
(0.0240635 0.0515596 0)
(0.0253943 0.0492519 0)
(0.0262602 0.0471699 0)
(0.026815 0.045207 0)
(0.0271918 0.0432923 0)
(0.0275039 0.041376 0)
(0.0278455 0.0394218 0)
(0.028293 0.037401 0)
(0.0289057 0.0352905 0)
(0.0297266 0.0330718 0)
(0.0307821 0.0307327 0)
(0.0320797 0.0282689 0)
(0.0336061 0.0256876 0)
(0.0353565 0.0230095 0)
(0.0373377 0.0202626 0)
(0.0393909 0.0174803 0)
(0.0421089 0.0146943 0)
(0.0464713 0.0115659 0)
(0.00560603 0.0693285 0)
(0.0109223 0.0622634 0)
(0.0159635 0.0574375 0)
(0.0199255 0.0541614 0)
(0.0228737 0.051761 0)
(0.0249613 0.0498135 0)
(0.0263919 0.0480726 0)
(0.0273446 0.0463936 0)
(0.0279707 0.0446914 0)
(0.0283982 0.0429161 0)
(0.0287333 0.0410382 0)
(0.0290632 0.0390395 0)
(0.0294583 0.0369084 0)
(0.0299735 0.0346373 0)
(0.0306496 0.0322228 0)
(0.0315134 0.0296668 0)
(0.0325747 0.0269794 0)
(0.0338261 0.0241811 0)
(0.035264 0.0213054 0)
(0.0369022 0.0183922 0)
(0.0386071 0.0154869 0)
(0.0408688 0.0126261 0)
(0.0446139 0.00946992 0)
(0.0056916 0.0617493 0)
(0.0111265 0.056226 0)
(0.0162195 0.0527677 0)
(0.0201914 0.0506607 0)
(0.0231137 0.0492221 0)
(0.0251663 0.0480307 0)
(0.0265708 0.046857 0)
(0.0275117 0.0455816 0)
(0.0281373 0.0441454 0)
(0.0285667 0.0425226 0)
(0.0288958 0.0407046 0)
(0.0292016 0.0386911 0)
(0.0295457 0.0364855 0)
(0.0299765 0.034094 0)
(0.0305311 0.0315255 0)
(0.0312352 0.0287941 0)
(0.0321004 0.0259216 0)
(0.0331233 0.022941 0)
(0.0343066 0.019897 0)
(0.0356615 0.0168422 0)
(0.0370658 0.0138294 0)
(0.0389778 0.0109093 0)
(0.0421329 0.00772697 0)
(0.0058453 0.0540012 0)
(0.011395 0.0501387 0)
(0.0164433 0.0481339 0)
(0.0202839 0.0472564 0)
(0.0230137 0.0468005 0)
(0.0248742 0.0463545 0)
(0.0261214 0.0457222 0)
(0.0269491 0.044823 0)
(0.0274995 0.043633 0)
(0.0278788 0.0421547 0)
(0.0281678 0.0404009 0)
(0.0284297 0.0383878 0)
(0.0287143 0.036132 0)
(0.0290615 0.0336503 0)
(0.029503 0.0309613 0)
(0.0300623 0.0280882 0)
(0.0307518 0.0250628 0)
(0.0315724 0.0219277 0)
(0.0325289 0.0187389 0)
(0.0336364 0.0155587 0)
(0.0348012 0.0124505 0)
(0.0363796 0.00947205 0)
(0.0390527 0.00626622 0)
(0.00617545 0.0459732 0)
(0.0118949 0.0440132 0)
(0.0168537 0.0436449 0)
(0.0204119 0.0441139 0)
(0.0227649 0.044668 0)
(0.0242688 0.0449348 0)
(0.02523 0.0447867 0)
(0.0258501 0.0442067 0)
(0.0262582 0.0432185 0)
(0.0265404 0.0418571 0)
(0.0267571 0.0401568 0)
(0.0269535 0.0381481 0)
(0.0271653 0.0358574 0)
(0.0274218 0.0333087 0)
(0.0277478 0.030527 0)
(0.0281632 0.0275415 0)
(0.0286808 0.0243909 0)
(0.0293044 0.0211256 0)
(0.0300444 0.0178111 0)
(0.0309139 0.0145175 0)
(0.0318296 0.0113173 0)
(0.0331272 0.00827816 0)
(0.0353036 0.00503969 0)
(0.00681891 0.037475 0)
(0.0128414 0.0378047 0)
(0.0176393 0.0394186 0)
(0.0207277 0.0414251 0)
(0.0224983 0.0430079 0)
(0.0234879 0.0439149 0)
(0.0240566 0.0441529 0)