/*--------------------------------*- C++ -*----------------------------------*\
  =========                 |
  \\      /  F ield         | OpenFOAM: The Open Source CFD Toolbox
   \\    /   O peration     | Website:  https://openfoam.org
    \\  /    A nd           | Version:  13
     \\/     M anipulation  |
\*---------------------------------------------------------------------------*/
FoamFile
{
    format      ascii;
    class       volScalarField;
    location    "2.55";
    object      alphas;
}
// * * * * * * * * * * * * * * * * * * * * * * * * * * * * * * * * * * * * * //

dimensions      [];

internalField   nonuniform List<scalar> 
2268
(
2
2
2
2
2
2
2
2
2
2
2
2
2
2
2
2
2
2
2
2
1.99967
1.99943
1.99943
2
2
2
2
2
2
2
2
2
2
2
2
2
2
2
2
2
2
2
2
1.99994
1.99981
1.9997
2
2
2
2
2
2
2
2
2
2
2
2
2
2
2
2
2
2
2
2
2
2
2
2
2
2
2
2
2
2
2
2
2
2
2
2
2
2
2
2
2
2
2
2
2
2
1.97588
1.97646
1.98347
1.99167
1.99764
2
2
2
2
2
2
2
2
2
2
2
2
2
2
2
2
2
2
0.751311
0.788077
0.847917
0.933941
1.04214
1.16947
1.31303
1.4361
1.55472
1.67249
1.78342
1.87935
1.95087
1.99125
2
2
2
2
2
2
2
2
2
4.13285e-08
6.3431e-08
1.87455e-07
2.82764e-06
7.01509e-06
4.42574e-06
1.01571e-06
0.0362825
0.0970357
0.18023
0.29548
0.453035
0.662698
0.93154
1.22899
1.49954
1.72645
1.90071
2
2
2.00001
2.00004
2.00046
1.31151e-07
2.99394e-07
4.27887e-07
7.34659e-07
1.08475e-05
6.10768e-06
2.18293e-06
6.58739e-07
1.81088e-07
5.76269e-08
2.8093e-08
1.70354e-08
8.92156e-09
5.15946e-09
0.0218109
0.111299
0.270524
0.496471
0.796207
1.14446
1.41098
1.61004
1.81987
1.85169
1.86744
1.86075
1.87115
1.89098
1.95917
1.79331
1.74925
1.73906
1.74761
1.74998
1.75147
1.67794
1.75482
1.73331
1.65642
1.72716
1.77733
1.76745
1.50568
1.54231
1.62476
1.66091
1.77219
1.77384
1.86511
1.87069
1.87383
1.93538
1.92654
1.83862
1.80485
1.89144
1.88304
1.84995
1.77688
1.77723
1.76709
0.800632
0.716788
0.932672
1.23348
1.30615
1.23037
1.28013
1.43052
1.55163
2.08392
2.26317
2.11203
1.9806
2.16186
2.23508
2.03238
1.73933
1.62075
1.58859
0.383354
0.324117
0.410152
0.563455
0.742974
0.787891
0.478646
0.392898
0.355681
1.30465
2.33833
2.43155
2.38798
2.39721
2.35762
2.21822
1.75086
1.60679
1.74544
0.236163
0.238713
0.237396
0.270506
0.483771
0.828659
0.702179
0.475982
0.204732
0.192167
1.40193
2.13064
2.29026
2.22089
1.84539
0.9973
0.908344
0.791781
1.5435
0.245646
0.25528
0.238803
0.226415
0.635249
0.895713
0.920073
0.930425
0.356821
0.0242646
0.09539
1.66907
2.04759
1.80356
0.406701
0.0470535
0.000235471
0.000235859
1.10192
0.253726
0.261685
0.266162
0.179653
0.797329
1.07073
1.08132
0.912067
0.211766
0.0184319
0.00131986
0.203649
1.99095
1.17649
0.0624512
0.000269818
0.000327174
0.000515661
0.809391
0.194703
0.245711
0.257124
0.212771
0.784917
1.16616
1.11628
0.357488
0.00421354
0.00347397
0.000981744
0.0111088
0.896492
0.546246
0.000242797
0.00033372
0.00120077
0.0334637
0.73108
3.07541e-07
7.57498e-07
1.05707e-05
0.000196306
7.99329e-05
4.7557e-06
8.63505e-07
5.02998e-07
2.57781e-07
1.62259e-07
1.26593e-07
9.40941e-08
5.04756e-08
2.1423e-08
9.53064e-08
1.12877e-07
1.61957e-07
1.93412e-07
0.000409074
0.0114803
0.0377745
0.0781081
0.169891
0.00203585
0.00201169
0.00352664
0.0018354
8.90272e-05
1.69237e-06
1.10659e-06
7.80388e-07
5.32909e-07
4.2365e-07
3.68189e-07
3.01711e-07
2.16217e-07
1.28396e-07
2.47717e-08
9.45178e-09
3.33852e-08
7.4762e-08
7.0128e-07
0.000129838
0.000372093
0.00138898
0.00194501
0.235342
0.0725962
0.00561377
0.00081005
3.86514e-06
2.03996e-06
0.00587062
0.00929048
0.00897806
0.0085201
0.00885776
0.0155069
0.0312275
0.0384932
0.0251819
0.00682905
0.000758973
0.000354973
0.013872
0.08223
0.212288
0.238608
0.286646
0.46504
0.354165
0.293273
0.287227
0.251484
0.272192
0.411611
0.46131
0.478935
0.499693
0.524389
0.563103
0.620652
0.644362
0.642471
0.665882
0.700575
0.744194
0.784137
0.817752
0.850056
0.911284
1.14587
1.13599
0.972323
0.971195
0.963389
0.963882
1.18402
1.21344
1.26327
1.30259
1.32744
1.35651
1.27807
1.22124
1.21029
1.25582
1.29776
1.19743
1.05206
1.04729
1.05044
1.02343
1.10261
1.20262
1.07456
0.999667
1.00085
1.00283
1.08601
1.14639
1.04032
1.00001
1.01835
1.02546
1.00075
1.0003
1.00005
1.00008
1.00533
1.00562
1
1
1
1.00004
1.01044
1.01811
1.00178
1.00134
0.999264
0.999958
0.999999
1
1
1
1
1
1
1
1
1
1
1
1
1
1
1
1
1
1
0.999998
1.0261
1.0014
1.00667
1.01884
1.0326
1.0812
1.08985
1.08531
1.10392
1.12323
1.13843
1.14917
1.15764
1.16152
1.16156
1.16197
1.16228
1.15803
1.14936
1.14014
1.13223
1.12338
1.11302
2.24935
1.99228
1.96786
2.09038
2.18656
2.23995
2.3038
2.40157
2.47627
2.51951
2.54868
2.57912
2.60391
2.61778
2.62409
2.62821
2.62918
2.62185
2.60822
2.59454
2.58222
2.56848
2.54422
3
3
2.95943
2.97208
2.99952
3
3
3
3
3
3
3
3
3
3
3
3
3
3
3
3
3
3
3
3
3
3
3
3
3
3
3
3
3
3
3
3
3
3
3
3
3
3
3
3
3
3
2.99999
2.99999
2.99999
3
3
3
2.99999
2.99997
2.99998
3
3
3
3
3
3
3
3
3
3
3
3
3
3
2.99999
2.99994
2.99991
2.99999
3
3
2.99979
2.99967
2.9998
2.99999
3
3
3
3
3
3
3
3
3
3
3
3
3
2.99998
2.99989
2.99988
2.99992
3
2.99998
2.99971
2.99967
2.99967
2.99979
2.99999
2.99999
3
3
3
3
3
3
3
3
3
3
3
2.99999
2.99991
2.99989
2.99995
3
3
2.99987
2.99967
2.99967
2.99974
2.99999
2.99999
2.99999
2.99999
3
3
3
3
3
3
3
3
3
2.99999
2.99998
2.99997
3
3
3
3
2.99992
2.99982
2.99994
2.99999
2.99999
2.99999
2.99999
3
3
3
3
3
3
3
3
3
3
3
3
3
3
3
3
3
3
3
3
3
2.99999
3
3
3
3
3
3
3
3
3
3
3
3
3
3
3
3
3
3
3
3
3
3
3
3
3
3
3
3
3
3
3
3
3
3
3
3
3
3
3
3
3
3
3
3
3
3
3
3
3
3
3
3
3
3
3
3
3
3
3
3
3
3
3
3
3
3
3
3
3
3
3
3
3
3
3
3
3
3
3
3
3
3
3
3
3
3
3
3
3
3
3
3
3
3
3
3
3
3
3
3
3
3
3
3
3
3
3
3
3
3
3
3
3
3
3
3
3
3
3
3
3
3
3
3
3
3
3
3
3
3
3
3
3
3
3
3
3
3
3
3
3
3
3
3
3
3
3
3
3
3
3
3
3
3
3
3
3
3
3
3
3
3
3
3
3
3
3
3
3
3
3
3
3
3
3
3
3
3
3
3
3
3
3
3
3
3
3
3
3
3
3
3
3
3
3
3
3
3
3
3
3
3
3
3
3
3
3
3
3
3
3
3
3
3
3
3
3
3
3
3
3
3
3
3
3
3
3
3
3
3
3
3
3
3
3
3
3
3
3
3
3
3
3
3
3
3
3
3
3
3
3
3
3
3
3
3
3
3
3
3
3
3
3
3
3
3
3
3
3
3
3
3
3
3
3
3
3
3
3
3
3
3
3
3
3
3
3
3
3
3
3
3
3
3
3
3
3
3
3
3
3
3
3
3
3
3
3
3
3
3
3
3
3
3
3
3
3
3
3
3
3
3
3
3
3
3
3
3
3
3
3
3
3
3
3
3
3
3
3
3
3
3
3
3
3
3
3
3
3
3
3
3
3
3
3
3
3
3
3
3
3
3
3
3
3
3
3
3
3
3
3
3
3
3
3
3
3
3
3
3
3
3
3
3
3
3
3
3
3
3
3
3
3
3
3
3
3
3
3
3
3
3
3
3
3
3
3
3
3
3
3
3
3
3
3
3
3
3
3
3
3
3
3
3
3
3
3
3
3
3
3
3
3
3
3
3
3
3
3
3
3
3
3
3
3
3
3
3
3
3
3
3
3
3
3
3
3
3
3
3
3
3
3
3
3
3
3
3
3
3
3
3
3
3
3
3
3
3
3
3
3
3
3
3
3
3
3
3
3
3
3
3
3
3
3
3
3
3
3
3
3
3
3
3
3
3
3
3
3
3
3
3
3
3
3
3
3
3
3
3
3
3
3
3
3
3
3
3
3
3
3
3
3
3
3
3
3
3
3
3
3
3
3
3
3
3
3
3
3
3
3
3
3
3
3
3
3
3
3
3
3
3
3
3
3
3
3
3
3
3
3
3
3
3
3
3
3
3
3
3
3
3
3
3
0.113681
0.0075106
9.60025e-05
6.30837e-05
0.00119034
0.00357687
0.0246883
0.0122476
0.244089
0.153113
0.352353
0.836822
1.216
1.25626
1.25985
1.19696
1.13593
1.03081
1.00013
1.00077
0.999989
1.00001
1
0.999999
0.999997
0.999998
0.999987
0.999984
1.09175
1.08751
1.0823
1.07812
2.49381
2.48133
2.46814
2.45986
3
3
3
3
3
3
3
3
3
3
3
3
3
3
3
3
3
3
3
3
3
3
3
3
3
3
3
3
3
3
3
3
3
3
3
3
3
3
3
3
3
3
3
3
3
3
3
3
3
3
3
3
3
3
3
3
3
3
3
3
3
3
3
3
3
3
3
3
3
3
3
3
3
3
3
3
3
3
3
3
3
3
3
3
3
3
3
3
3
3
3
3
3
3
3
3
3
3
3
3
3
3
3
3
3
3
3
3
3
3
3
3
3
3
3
3
3
3
3
3
3
3
3
3
3
3
3
3
3
3
3
3
0.0739323
0.407036
0.276076
0.265256
0.877973
1.21484
0.560977
0.0177834
0.00510067
0.00228097
0.00122356
0.000939263
0.0169414
0.0114488
0.000350635
0.000322223
0.0138382
0.109838
0.400171
0.162071
0.684437
0.548166
0.583718
1.00068
1.04136
0.615496
0.257713
0.0683002
0.0259269
0.00333924
0.00436941
0.00339468
0.00398387
0.0184389
0.0728617
0.184372
0.430324
0.340054
1.1827
1.15036
0.979235
0.920712
1.27649
1.19121
0.911609
0.938343
0.801605
0.758047
0.691696
0.603186
0.496838
0.501069
0.580817
0.70427
0.799915
1.03428
1.03643
1.17291
1.12041
1.03238
1.01016
1.03637
1.27337
1.33791
1.16916
1.00174
1.00001
1.00002
0.99993
0.999126
0.999828
1.00043
1.00049
1.00038
1.02198
1.04079
1.00019
1.00002
1.00006
1.00207
1.0025
1.03741
1.03476
1.00654
1.00002
1.00001
1.00001
1
1
0.999999
1.00026
1.00044
1.00036
1.00002
0.999849
1.00001
0.999999
1.00016
1.00057
1
1
1
1
1
1
1
1
1
1
1.00002
1.00009
1.00008
1.00001
1.00001
0.999993
1.00001
1.00001
0.999999
1
1
1
1
1
1
1
0.999998
0.999977
0.999978
0.999994
0.999966
1.00006
1.00004
0.999898
1.07698
1.06288
1.05233
1.04525
1.04258
1.04522
1.05721
1.08603
1.13334
1.18935
1.2372
1.25244
1.26436
1.30157
1.35893
1.30567
1.19579
1.05577
0.994372
2.46616
2.43756
2.41765
2.41328
2.42568
2.46628
2.53465
2.61385
2.68707
2.74881
2.79753
2.83923
2.81472
2.78068
2.78132
2.73738
2.62255
2.35529
2.03034
3
3
3
3
3
2.99999
2.99998
2.99995
2.99986
2.9998
2.99892
2.99878
2.99875
2.9975
2.99678
2.99578
2.99265
2.99258
2.98818
3
3
3
2.99976
2.99913
2.99883
2.99905
2.99971
2.99989
2.99989
2.99943
2.99827
2.99824
2.99959
2.99999
2.99999
2.99999
2.99998
3
3
3
3
2.99926
2.99805
2.99805
2.99809
2.99985
3
2.99979
2.99835
2.99827
2.99937
2.99978
3
3
3
3
3
3
3
3
2.99997
2.99946
2.9991
2.99992
3
3
2.99999
2.99996
2.99987
3
3
3
3
3
3
3
3
3
3
3
3
3
3
2.99999
2.99999
3
3
3
3
3
3
3
3
3
3
3
3
3
3
3
3
3
3
3
3
3
3
3
3
3
3
3
3
3
3
3
3
3
3
3
3
3
3
3
3
3
3
3
3
3
3
3
3
3
3
3
3
3
3
3
3
3
3
3
3
3
3
3
3
3
3
3
3
3
3
3
3
3
3
3
3
3
3
3
3
3
3
3
3
3
3
3
3
3
3
3
3
3
3
3
3
3
3
3
3
3
3
3
3
3
3
3
3
3
3
3
3
3
3
3
3
3
3
3
3
3
3
3
3
3
3
3
3
3
3
3
3
3
3
3
3
3
3
3
3
3
3
3
3
3
3
3
3
3
3
3
3
3
3
3
3
3
3
3
3
3
3
3
3
3
3
3
3
3
3
3
3
3
3
3
3
3
3
3
3
3
3
3
3
3
3
3
3
3
3
3
3
3
3
3
3
3
3
3
3
3
3
3
3
3
3
3
3
3
3
3
3
3
3
3
3
3
3
3
3
3
3
3
3
3
3
3
3
3
3
3
3
3
3
3
3
3
3
3
3
3
3
3
3
3
3
3
3
3
3
3
3
3
3
3
3
3
3
3
3
3
3
3
3
3
3
3
3
3
3
3
3
3
3
3
3
3
3
3
3
3
3
3
3
3
3
3
3
3
3
3
3
3
3
3
3
3
3
3
3
3
3
3
3
3
3
3
3
3
3
3
3
3
3
3
3
3
3
3
3
3
3
3
3
3
3
3
3
3
3
3
3
3
3
3
3
3
3
3
3
3
3
3
3
3
3
3
3
3
3
3
3
3
3
3
3
3
3
3
3
3
3
3
3
3
3
3
3
3
3
3
3
3
3
3
3
3
3
3
3
3
3
3
3
3
3
3
3
3
3
3
3
3
3
3
3
3
3
3
3
3
3
3
3
3
3
3
3
3
3
3
3
3
3
3
3
3
3
3
3
3
3
3
3
3
3
3
3
3
3
3
3
3
3
3
3
3
3
3
3
3
3
3
3
3
3
3
3
3
3
3
3
3
3
3
3
3
3
3
3
3
3
3
3
3
3
3
3
3
3
3
3
3
3
3
3
3
3
3
3
3
3
3
3
3
3
3
3
3
3
3
3
3
3
3
3
3
3
3
3
3
3
3
3
3
3
3
3
3
3
3
3
3
3
3
3
3
3
3
3
3
3
3
3
3
3
3
3
3
3
3
3
3
3
3
3
3
3
3
3
3
3
)
;

boundaryField
{
    leftWall
    {
        type            calculated;
        value           nonuniform List<scalar> 
50
(
2
2
2
2
1.97588
0.751311
4.13285e-08
1.31151e-07
3.07541e-07
0.00203585
0.235342
0.46504
1.13599
1.07456
1.00134
1.0261
2.24935
3
3
3
3
3
3
3
3
3
3
3
3
3
3
3
3
3
3
3
3
3
3
3
3
3
3
3
3
3
3
3
3
3
)
;
    }
    rightWall
    {
        type            calculated;
        value           nonuniform List<scalar> 
50
(
1.76745
1.76709
1.58859
1.74544
1.5435
1.10192
0.809391
0.73108
0.400171
0.340054
1.03643
1.04079
0.999849
1.00001
0.999898
0.994372
2.03034
2.98818
3
3
3
3
3
3
3
3
3
3
3
3
3
3
3
3
3
3
3
3
3
3
3
3
3
3
3
3
3
3
3
3
)
;
    }
    lowerWall
    {
        type            calculated;
        value           nonuniform List<scalar> 
62
(
2
2
2
2
2
2
2
2
2
2
2
2
2
2
2
2
2
2
2
2
1.99967
1.99943
1.99943
1.99943
1.9997
2
2
2
2
2.00046
1.81987
0.113681
0.0075106
9.60025e-05
6.30837e-05
1.85169
1.50568
0.800632
0.383354
0.236163
0.245646
0.253726
0.194703
1.85169
1.86744
1.86075
1.87115
1.89098
1.95917
1.79331
1.74925
1.73906
1.74761
1.74998
1.75147
1.67794
1.75482
1.73331
1.65642
1.72716
1.77733
1.76745
)
;
    }
    atmosphere
    {
        type            calculated;
        value           nonuniform List<scalar> 
46
(
3
3
3
3
3
3
3
3
3
3
3
3
3
3
3
3
3
3
3
3
3
3
3
3
3
3
3
3
3
3
3
3
3
3
3
3
3
3
3
3
3
3
3
3
3
3
)
;
    }
    defaultFaces
    {
        type            empty;
    }
}


// ************************************************************************* //
