/*--------------------------------*- C++ -*----------------------------------*\
  =========                 |
  \\      /  F ield         | OpenFOAM: The Open Source CFD Toolbox
   \\    /   O peration     | Website:  https://openfoam.org
    \\  /    A nd           | Version:  13
     \\/     M anipulation  |
\*---------------------------------------------------------------------------*/
FoamFile
{
    format      ascii;
    class       volScalarField;
    location    "2.55";
    object      alpha.water;
}
// * * * * * * * * * * * * * * * * * * * * * * * * * * * * * * * * * * * * * //

dimensions      [];

internalField   nonuniform List<scalar> 
2268
(
1.00207e-10
1.25578e-10
1.45398e-10
1.51153e-10
1.57235e-10
1.63995e-10
1.71886e-10
1.79436e-10
1.85652e-10
1.90553e-10
1.95966e-10
2.00854e-10
2.08615e-10
2.22531e-10
2.57329e-10
3.1525e-10
3.99749e-10
5.05642e-10
7.29385e-10
1.38855e-09
2.43819e-09
2.77878e-09
2.77872e-09
2.30325e-10
3.03962e-10
2.91782e-10
2.75955e-10
2.83907e-10
3.02811e-10
3.3157e-10
3.71919e-10
4.15847e-10
4.67405e-10
5.05344e-10
5.38256e-10
5.54035e-10
5.58924e-10
5.62653e-10
5.72409e-10
5.92778e-10
6.58042e-10
8.5043e-10
1.26451e-09
2.23975e-09
2.69459e-09
2.52035e-09
2.32432e-10
3.00428e-10
2.90521e-10
2.74127e-10
2.90984e-10
3.15816e-10
3.48554e-10
4.12569e-10
5.03946e-10
6.15853e-10
7.29764e-10
8.63168e-10
9.82209e-10
1.04044e-09
1.03816e-09
9.41424e-10
8.99772e-10
9.39842e-10
1.12799e-09
1.42815e-09
1.98325e-09
2.50157e-09
1.77178e-09
2.33148e-10
3.03868e-10
1.64001e-10
1.71742e-10
1.64087e-10
1.65109e-10
1.77508e-10
2.05624e-10
2.60682e-10
3.49386e-10
4.84891e-10
6.80042e-10
9.19997e-10
1.13341e-09
1.22103e-09
1.04191e-09
7.81762e-10
8.44647e-10
1.04334e-09
1.25895e-09
1.73043e-09
1.98745e-09
1.49395e-09
0.0120624
0.01177
0.0082629
0.00416315
0.00118115
5.60741e-11
-1.02994e-13
3.13458e-11
2.15561e-19
3.07151e-11
1.52212e-20
3.07922e-11
7.59925e-14
2.81995e-09
1.57519e-09
5.65046e-10
2.66639e-10
2.5481e-10
4.13425e-10
6.43188e-10
8.02493e-10
1.14855e-09
6.59445e-10
0.624344
0.605962
0.576042
0.53303
0.478932
0.415265
0.343483
0.281952
0.22264
0.163754
0.108289
0.0603232
0.0245625
0.00437409
4.31258e-10
4.26714e-10
1.57363e-10
5.18461e-11
8.3884e-11
7.84018e-11
1.42967e-10
2.05214e-10
1.08561e-10
1
1
1
0.999999
0.999998
0.999999
1
0.981859
0.951482
0.909885
0.85226
0.773482
0.668651
0.53423
0.385503
0.25023
0.136777
0.0496454
-9.69344e-14
3.6294e-21
4.01167e-28
3.11509e-21
5.16618e-22
1
1
1
1
0.999996
0.999998
0.999999
1
1
1
1
1
1
1
0.989095
0.944351
0.864738
0.751765
0.601896
0.427769
0.294509
0.195274
0.0904132
0.0107386
0.010975
0.0258162
0.0564266
0.054736
0.0260501
0.000927318
0.000731408
0.000807566
0.00105323
0.00241555
0.0111103
0.109803
0.123972
0.124477
0.124409
0.0528016
0.00259321
0.0121518
0.0535032
0.0392853
0.0263335
0.0417476
0.0662922
0.0990617
0.0360049
0.00539745
0.0350362
0.0273499
0.00100623
0.00607349
0.0456028
0.0763376
0.0786341
0.0534181
0.00624352
0.00239842
0.0121612
0.411313
0.495011
0.315538
0.137267
0.119427
0.365528
0.356616
0.282093
0.241312
0.0581648
0.00080697
0.000754156
0.00150163
0.000688803
0.000694109
0.000693244
0.000700034
0.000694927
0.000903381
0.771546
0.836023
0.759307
0.629886
0.433914
0.350012
0.728918
0.801791
0.823509
0.498804
0.0892882
0.000710858
0.000701096
0.000699497
0.000761552
0.0109527
0.0490346
0.0734521
0.00149818
0.884977
0.884976
0.884955
0.87019
0.643234
0.217234
0.333072
0.577088
0.852028
0.931888
0.515353
0.136834
0.010268
0.0133142
0.158159
0.458202
0.592568
0.67096
0.214493
0.885006
0.884977
0.884976
0.884977
0.498097
0.185545
0.182203
0.181703
0.717949
0.987875
0.968203
0.385722
0.100096
0.180667
0.657543
0.952958
0.999782
0.99977
0.562344
0.885266
0.887968
0.884976
0.884971
0.318928
0.117744
0.116772
0.289509
0.870194
0.990791
0.999347
0.913543
0.156566
0.393927
0.937557
0.999783
0.999776
0.999491
0.591777
0.893393
0.889491
0.888321
0.884696
0.364529
0.117193
0.209425
0.816905
0.998046
0.998272
0.999517
0.989022
0.540806
0.654433
0.99977
0.999771
0.999485
0.967468
0.547138
1
1
0.999996
0.999935
0.999973
0.999998
1
1
1
1
1
1
1
1
1
1
1
1
0.999795
0.99426
0.981117
0.961023
0.915209
0.999321
0.999329
0.998824
0.999388
0.99997
0.999999
1
1
1
1
1
1
1
1
1
1
1
1
1
0.999935
0.999814
0.999496
0.999352
0.921553
0.975801
0.998129
0.99973
0.999999
0.999999
0.998043
0.996903
0.997007
0.99716
0.997047
0.994831
0.989591
0.987169
0.991606
0.997724
0.999747
0.999882
0.995376
0.97259
0.929061
0.91556
0.873453
0.783331
0.72283
0.706753
0.712794
0.748521
0.828736
0.830739
0.801509
0.772651
0.752036
0.728201
0.688212
0.661318
0.665464
0.667706
0.643189
0.599757
0.549281
0.517025
0.484404
0.401933
0.219171
0.0969584
0.111315
0.0452242
0.0290437
0.0366676
0.0737598
0.139489
0.159188
0.108193
0.067659
0.0451348
0.0139132
0.000194133
0.000186831
0.000166587
0.000235699
0.00405781
0.00600853
0.00140153
5.52704e-05
2.92178e-10
-1.45191e-13
-8.80507e-26
1.20402e-23
5.4247e-05
0.000409153
3.68359e-10
-1.27624e-14
-4.21721e-07
-2.56145e-07
-6.74851e-27
1.99071e-28
-7.85586e-30
-5.15529e-21
-9.688e-13
9.30295e-10
2.41729e-10
5.98785e-11
4.67672e-15
7.34906e-16
6.8659e-10
5.93613e-09
-1.71016e-09
1.0707e-08
1.45877e-06
2.02417e-06
1.65807e-05
5.58099e-05
0.000735918
3.41529e-05
8.09573e-07
4.8449e-09
1.70423e-08
6.93423e-09
4.80421e-09
4.2944e-09
2.79368e-09
6.5958e-09
1.75786e-08
2.96644e-08
3.24516e-08
2.38221e-08
2.56915e-08
5.17289e-08
1.09124e-07
3.5116e-07
6.45807e-07
6.24463e-07
8.59147e-07
1.70796e-06
1.78971e-05
0.000897232
0.000134092
8.54662e-08
2.26776e-07
2.68169e-07
1.21018e-07
5.7668e-08
1.35433e-08
1.22746e-09
1.33495e-09
7.33872e-08
1.81569e-07
1.80133e-07
1.06468e-07
1.14375e-07
2.53003e-07
2.51904e-07
2.09188e-07
4.30615e-08
2.20382e-08
2.2095e-07
1.94374e-06
9.17445e-08
0.000304972
0.000133859
1.31083e-07
1.70486e-07
2.68127e-07
2.68169e-07
2.13569e-07
3.19446e-09
1.22746e-09
5.24262e-09
1.30614e-07
1.99674e-07
1.9916e-07
1.9202e-07
5.90032e-08
5.54928e-10
4.659e-10
4.6682e-10
4.659e-10
2.04934e-08
2.52626e-07
7.02516e-07
1.40326e-07
1.42407e-07
8.56775e-07
2.37237e-06
5.13119e-08
1.47239e-07
1.66346e-07
9.03625e-08
3.17409e-08
1.57571e-08
1.63082e-08
2.37522e-08
2.69904e-08
2.68212e-08
1.11218e-08
3.30018e-09
3.34541e-09
2.4461e-09
1.34357e-09
5.04852e-10
3.57416e-12
-1.52614e-11
-9.03898e-11
1.94977e-07
8.40454e-07
9.7934e-07
7.03648e-07
1.73319e-09
3.41711e-08
4.16861e-08
1.60104e-08
5.73124e-09
5.89165e-09
5.48364e-09
6.2445e-09
6.76275e-09
7.12985e-09
6.79926e-09
7.23599e-09
6.44755e-09
2.89761e-09
2.06274e-09
1.60072e-09
1.83178e-09
2.56989e-09
4.43388e-09
3.28495e-07
1.80814e-06
3.84636e-06
1.85021e-06
2.43361e-09
3.07428e-09
3.52889e-14
2.01796e-07
7.08256e-07
7.98863e-07
2.981e-07
1.26381e-07
1.17692e-07
1.00288e-07
1.27936e-07
9.96455e-08
7.20752e-09
4.66838e-09
4.43868e-09
3.50583e-09
2.04895e-09
4.00701e-10
1.29909e-10
2.98998e-07
2.27969e-06
4.79236e-06
4.40602e-06
4.77119e-08
1.68212e-10
9.44128e-11
2.91745e-07
2.40866e-06
2.86815e-06
2.27477e-06
5.53284e-07
4.50243e-07
4.21995e-07
4.36648e-07
2.07043e-07
3.69956e-08
9.36133e-09
7.16947e-09
5.80129e-09
4.11822e-09
1.30823e-09
3.66046e-10
6.98016e-08
6.12702e-07
4.0505e-06
4.59311e-06
1.7441e-06
9.88394e-11
9.33073e-11
2.19183e-07
1.60467e-06
2.89236e-06
3.17184e-06
3.16903e-06
2.20919e-06
1.47549e-06
1.11457e-06
4.52263e-07
9.10039e-08
1.43472e-08
1.12133e-08
1.00652e-08
9.08585e-09
5.21671e-09
2.88869e-09
1.9888e-08
7.68437e-08
1.27276e-06
3.25882e-06
1.17423e-06
1.05367e-10
1.31748e-10
1.35361e-10
2.0362e-07
1.51428e-06
2.85723e-06
3.1675e-06
3.17018e-06
3.17105e-06
2.86198e-06
5.95993e-07
5.18306e-08
1.64939e-08
1.52516e-08
1.54762e-08
1.62791e-08
1.27077e-08
8.72031e-09
1.66425e-08
1.91888e-08
1.7172e-08
8.51901e-08
8.54135e-08
9.01741e-09
1.7967e-10
1.8339e-10
1.91306e-10
4.23906e-10
9.21335e-07
2.62602e-06
3.17105e-06
3.15754e-06
2.85923e-06
5.4018e-07
1.48797e-07
1.31707e-08
1.27865e-08
2.16316e-08
2.25623e-08
1.83404e-08
1.29983e-08
2.01539e-08
1.77184e-08
2.09302e-08
9.65872e-09
1.00326e-08
4.41886e-09
5.20991e-10
2.71209e-10
3.08518e-10
6.84375e-10
6.59439e-09
1.43407e-07
1.15906e-06
2.42081e-06
5.01527e-07
1.35305e-07
1.402e-07
7.88792e-08
1.28864e-08
1.28587e-08
2.231e-08
1.84673e-08
1.35315e-08
2.06354e-08
1.68166e-08
2.64653e-08
8.02516e-09
3.21414e-09
2.08946e-09
5.81787e-10
4.4013e-10
6.21228e-10
8.37768e-10
3.09764e-09
6.19818e-08
3.32421e-07
6.09089e-08
2.16729e-08
6.1617e-08
6.72776e-08
6.15505e-08
1.94171e-08
9.95337e-09
1.37495e-08
1.31541e-08
1.08311e-08
2.032e-08
1.28153e-08
1.9747e-08
7.63898e-09
3.64666e-09
2.26311e-09
7.93528e-10
7.77799e-10
1.12857e-09
1.39079e-09
1.388e-09
1.04951e-08
4.07294e-08
1.25428e-09
1.16424e-08
2.88826e-08
3.49514e-08
3.02462e-08
1.73361e-08
9.21134e-09
9.15761e-09
8.91307e-09
7.89737e-09
1.86192e-08
9.83156e-09
1.16347e-08
6.03606e-09
3.59628e-09
2.34735e-09
1.44559e-09
1.32326e-09
1.36239e-09
1.51095e-09
1.84223e-09
4.7782e-09
1.24998e-09
1.24325e-09
3.00899e-09
1.16057e-08
1.5421e-08
1.47803e-08
1.03935e-08
6.40867e-09
5.55223e-09
5.19685e-09
4.89858e-09
1.76769e-08
7.47437e-09
6.66246e-09
4.41669e-09
3.10636e-09
2.23304e-09
1.72079e-09
1.4397e-09
1.28823e-09
1.33373e-09
1.53324e-09
2.07519e-09
1.57042e-09
1.24072e-09
2.00001e-09
4.76798e-09
7.06961e-09
6.83814e-09
5.77519e-09
3.88999e-09
3.11947e-09
2.71022e-09
2.6194e-09
1.78031e-08
5.9506e-09
4.30153e-09
3.31917e-09
2.61921e-09
2.05439e-09
1.65845e-09
1.38882e-09
1.17313e-09
1.04147e-09
1.06969e-09
1.07905e-09
9.30514e-10
8.62049e-10
1.12512e-09
1.98529e-09
3.14014e-09
3.07795e-09
2.57503e-09
1.95879e-09
1.45185e-09
1.22306e-09
1.17643e-09
1.79335e-08
5.24831e-09
3.02114e-09
2.63507e-09
2.26857e-09
1.87278e-09
1.53857e-09
1.27203e-09
1.06161e-09
8.42716e-10
6.91512e-10
6.07954e-10
5.11545e-10
4.81453e-10
5.90435e-10
8.60888e-10
1.2364e-09
1.24136e-09
1.03116e-09
7.91262e-10
5.69006e-10
4.72476e-10
4.60731e-10
1.79335e-08
5.1432e-09
2.35248e-09
2.27638e-09
2.01518e-09
1.6771e-09
1.38397e-09
1.11856e-09
8.91364e-10
6.83623e-10
5.22334e-10
3.98539e-10
3.05899e-10
2.68496e-10
2.80807e-10
3.38491e-10
4.33275e-10
4.30326e-10
3.59892e-10
2.76806e-10
2.05468e-10
1.63067e-10
1.51921e-10
1.79335e-08
5.9328e-09
2.14167e-09
2.08893e-09
1.80789e-09
1.47638e-09
1.17501e-09
9.31225e-10
7.27302e-10
5.53565e-10
4.11031e-10
2.96126e-10
2.13484e-10
1.62569e-10
1.39668e-10
1.32395e-10
1.38813e-10
1.29721e-10
1.08115e-10
8.40573e-11
5.99679e-11
4.95164e-11
4.70773e-11
1.75481e-08
7.51325e-09
2.39735e-09
2.03767e-09
1.6298e-09
1.2519e-09
9.5044e-10
7.26042e-10
5.5397e-10
4.19799e-10
3.12978e-10
2.25056e-10
1.58031e-10
1.0892e-10
7.64977e-11
5.86756e-11
4.7505e-11
3.89555e-11
3.07238e-11
2.36348e-11
1.83843e-11
1.52218e-11
1.35695e-11
1.61781e-08
7.39685e-09
3.21252e-09
2.03171e-09
1.44948e-09
1.03523e-09
7.48244e-10
5.41293e-10
3.98772e-10
2.95719e-10
2.19991e-10
1.59762e-10
1.1285e-10
7.63686e-11
4.95744e-11
3.24385e-11
2.12019e-11
1.4616e-11
1.00328e-11
7.56676e-12
5.91679e-12
4.85337e-12
4.30111e-12
1.43377e-08
6.93929e-09
3.45406e-09
1.97367e-09
1.26627e-09
8.38106e-10
5.55795e-10
3.73295e-10
2.66131e-10
1.92248e-10
1.4019e-10
1.01057e-10
7.09164e-11
4.82282e-11
3.10409e-11
1.96564e-11
1.17215e-11
7.19263e-12
4.24691e-12
2.82826e-12
2.12844e-12
1.68744e-12
1.41326e-12
1.24723e-08
6.32597e-09
3.27653e-09
1.81479e-09
1.0838e-09
6.52821e-10
4.01689e-10
2.51831e-10
1.63663e-10
1.11764e-10
7.82334e-11
5.56961e-11
3.86586e-11
2.65661e-11
1.72695e-11
1.07642e-11
6.36961e-12
3.60001e-12
1.95022e-12
1.17018e-12
7.8163e-13
5.58392e-13
4.59894e-13
1.07001e-08
5.50479e-09
2.91013e-09
1.56238e-09
8.75328e-10
4.95525e-10
2.77582e-10
1.59338e-10
9.66271e-11
6.08238e-11
4.01624e-11
2.69924e-11
1.84999e-11
1.23677e-11
8.15233e-12
5.11429e-12
2.93536e-12
1.64911e-12
8.24341e-13
4.41812e-13
2.75266e-13
1.83735e-13
1.40087e-13
8.83023e-09
4.50913e-09
2.36533e-09
1.23219e-09
6.5433e-10
3.51137e-10
1.80861e-10
9.62333e-11
5.20644e-11
3.04609e-11
1.85199e-11
1.17374e-11
7.62672e-12
5.06873e-12
3.25317e-12
2.03013e-12
1.16608e-12
6.32969e-13
3.11107e-13
1.56061e-13
8.34373e-14
5.27231e-14
3.88445e-14
6.68579e-09
3.44258e-09
1.74637e-09
8.79082e-10
4.46347e-10
2.22176e-10
1.07254e-10
5.26295e-11
2.66427e-11
1.36669e-11
7.70909e-12
4.64024e-12
2.85017e-12
1.77813e-12
1.12011e-12
6.90311e-13
3.88121e-13
2.08368e-13
9.55597e-14
4.55103e-14
2.43988e-14
1.38876e-14
9.52399e-15
4.71142e-09
2.30001e-09
1.13181e-09
5.54299e-10
2.65278e-10
1.24318e-10
5.61306e-11
2.58699e-11
1.20849e-11
5.71031e-12
2.8967e-12
1.62771e-12
9.40805e-13
5.60503e-13
3.35258e-13
1.9748e-13
1.07094e-13
5.54857e-14
2.50327e-14
1.13901e-14
5.53134e-15
3.19742e-15
2.04737e-15
2.91226e-09
1.33546e-09
6.22604e-10
2.89525e-10
1.32078e-10
5.97603e-11
2.61537e-11
1.1506e-11
4.86186e-12
2.1636e-12
1.01194e-12
5.16413e-13
2.74231e-13
1.52376e-13
8.58357e-14
4.90933e-14
2.53391e-14
1.22692e-14
5.44481e-15
2.3311e-15
1.13584e-15
6.18902e-16
3.77149e-16
1.50467e-09
6.79548e-10
3.00791e-10
1.33178e-10
5.87112e-11
2.48035e-11
1.05921e-11
4.27572e-12
1.75322e-12
7.10578e-13
3.0186e-13
1.41728e-13
6.94538e-14
3.66427e-14
1.97282e-14
1.04002e-14
5.21395e-15
2.34838e-15
9.93532e-16
4.16409e-16
1.99213e-16
1.06838e-16
6.05951e-17
6.57868e-10
2.92237e-10
1.2453e-10
5.28125e-11
2.16298e-11
8.72857e-12
3.60542e-12
1.39938e-12
5.30112e-13
2.01883e-13
7.88115e-14
3.4277e-14
1.56816e-14
7.99354e-15
4.14377e-15
2.08617e-15
9.68356e-16
3.98235e-16
1.61428e-16
6.44845e-17
3.03958e-17
1.54991e-17
8.05984e-18
2.39857e-10
1.00757e-10
3.96693e-11
1.58234e-11
6.58156e-12
2.70318e-12
1.04391e-12
3.87063e-13
1.40162e-13
5.07695e-14
1.86832e-14
7.64806e-15
3.45263e-15
1.64656e-15
7.95015e-16
3.72496e-16
1.59081e-16
6.16772e-17
2.32388e-17
9.2312e-18
4.10863e-18
1.91714e-18
9.05938e-19
6.02019e-11
2.41549e-11
9.64734e-12
4.09729e-12
1.7213e-12
6.72922e-13
2.5721e-13
9.5888e-14
3.44425e-14
1.20766e-14
4.26855e-15
1.62013e-15
6.72532e-16
2.98354e-16
1.35967e-16
5.87944e-17
2.31885e-17
8.33598e-18
2.99662e-18
1.16434e-18
4.84342e-19
2.03918e-19
9.26402e-20
1.05155e-11
4.27358e-12
1.89931e-12
8.58519e-13
3.62994e-13
1.50173e-13
5.80397e-14
2.09286e-14
7.26943e-15
2.45533e-15
8.29922e-16
3.02322e-16
1.21762e-16
5.15098e-17
2.15358e-17
8.5048e-18
3.08463e-18
1.04902e-18
3.59934e-19
1.32226e-19
5.05202e-20
1.88058e-20
7.05239e-21
7.83945e-13
4.03546e-13
2.57061e-13
1.41121e-13
6.70659e-14
2.87258e-14
1.14853e-14
4.23967e-15
1.4784e-15
4.91876e-16
1.60041e-16
5.55977e-17
2.09606e-17
8.22233e-18
3.16263e-18
1.15059e-18
3.88771e-19
1.22859e-19
3.91581e-20
1.29887e-20
4.2858e-21
1.41598e-21
1.46148e-22
6.02971e-15
1.12124e-14
1.93274e-14
1.70925e-14
9.51741e-15
4.55174e-15
1.90858e-15
7.18102e-16
2.52464e-16
8.37211e-17
2.81236e-17
9.30796e-18
3.39093e-18
1.25541e-18
4.46154e-19
1.46099e-19
4.38311e-20
1.32356e-20
4.0544e-21
1.20565e-21
3.6738e-22
3.28047e-23
9.10011e-25
4.22163e-21
6.72589e-17
1.03934e-15
1.90209e-15
1.28511e-15
6.32302e-16
2.82031e-16
1.1762e-16
4.2956e-17
1.47349e-17
4.90352e-18
1.5638e-18
5.46105e-19
1.89992e-19
6.17235e-20
1.85917e-20
5.02624e-21
1.40575e-21
4.03571e-22
1.04185e-22
1.84804e-23
5.11347e-25
4.7983e-27
0.943235
0.996305
0.999964
0.999978
0.999359
0.998808
0.991763
0.995917
0.83681
0.853288
0.803659
0.520196
0.0625528
0.0227842
0.00306372
0.00990996
3.71071e-23
9.25636e-12
0.000116273
9.27438e-06
2.79413e-05
8.77901e-06
8.17421e-06
1.58577e-05
2.55688e-06
2.48774e-06
1.30051e-05
1.60685e-05
3.14232e-06
3.05748e-06
3.51864e-07
3.48165e-07
8.76217e-07
6.38052e-10
5.15007e-10
6.529e-10
2.22073e-10
2.53357e-09
5.61235e-09
7.2185e-09
5.14723e-09
4.77337e-09
3.48224e-09
8.49339e-09
1.17166e-10
1.13558e-10
9.27104e-11
7.04525e-11
2.24305e-10
1.57881e-10
9.14319e-11
6.69486e-11
1.00041e-09
6.32565e-10
4.15875e-10
2.76986e-10
4.05116e-09
1.93306e-09
1.39084e-09
9.73718e-10
1.006e-08
5.24933e-09
4.21761e-09
2.99596e-09
1.00275e-08
8.56835e-09
7.16853e-09
5.45147e-09
8.64999e-09
6.60782e-09
6.70812e-09
6.44894e-09
6.62477e-09
5.48002e-09
5.2202e-09
4.77479e-09
4.48529e-09
3.86794e-09
3.64938e-09
3.38371e-09
2.4742e-09
2.2892e-09
2.25077e-09
2.10665e-09
1.18858e-09
1.13339e-09
1.17491e-09
1.13521e-09
4.6012e-10
4.83026e-10
5.11299e-10
5.15961e-10
1.56733e-10
1.53268e-10
1.8269e-10
1.89398e-10
4.67574e-11
4.63533e-11
4.83011e-11
5.52455e-11
1.3629e-11
1.29973e-11
1.3762e-11
1.46518e-11
4.12823e-12
3.92878e-12
3.72537e-12
3.68995e-12
1.31988e-12
1.13351e-12
1.13992e-12
1.09683e-12
4.29757e-13
3.83984e-13
3.50297e-13
3.25816e-13
1.2512e-13
1.06829e-13
1.00025e-13
9.33823e-14
3.36504e-14
3.0132e-14
2.70113e-14
2.40011e-14
7.97998e-15
6.58819e-15
6.13501e-15
5.26662e-15
1.69832e-15
1.40661e-15
1.18364e-15
9.68229e-16
2.94841e-16
2.42119e-16
2.00185e-16
1.53312e-16
4.63283e-17
3.5608e-17
2.69671e-17
1.96244e-17
5.79493e-18
4.26848e-18
3.10606e-18
2.01413e-18
6.06807e-19
4.19579e-19
2.91094e-19
1.00641e-19
4.67702e-20
1.71439e-20
6.31354e-21
1.06899e-21
9.09121e-22
1.78918e-22
4.35869e-23
4.48487e-24
1.2226e-29
4.59095e-25
5.33962e-26
2.47999e-27
1.06402e-39
8.38996e-29
3.46562e-28
1.14243e-27
-4.87514e-46
7.91629e-29
2.90437e-28
8.75711e-28
0.937455
0.767612
0.875793
0.884543
0.497628
0.202185
0.715662
0.99386
0.99828
0.99921
0.999548
0.999346
0.983121
0.988574
0.999695
0.999766
0.995175
0.923883
0.656566
0.857322
0.633256
0.78596
0.778744
0.382522
0.33677
0.748287
0.89998
0.944576
0.975509
0.998121
0.997551
0.997911
0.99651
0.981863
0.927266
0.831473
0.693922
0.735459
0.173792
0.206175
0.332916
0.337282
0.0577254
0.17079
0.450192
0.368916
0.233702
0.244068
0.308736
0.398565
0.504956
0.499948
0.419474
0.295892
0.207302
0.0949299
0.0926931
0.00157797
4.52696e-08
9.34004e-08
4.52696e-08
0.00455403
0.0224283
0.0182916
0.00134157
-6.08157e-20
1.30554e-06
1.58887e-07
0.00016789
0.00101158
0.000371498
-2.09681e-21
1.24077e-26
-3.92258e-09
1.75916e-19
3.81789e-20
8.89015e-06
8.49386e-06
9.39752e-07
9.32555e-08
0.00147561
8.42741e-07
3.1802e-10
-8.92178e-15
-1.18661e-12
4.34629e-09
1.46337e-07
5.72603e-18
1.2765e-08
1.35797e-06
4.36106e-07
3.64828e-08
4.25489e-06
3.62302e-05
0.000167994
1.63531e-05
1.2565e-05
1.37808e-06
1.25453e-05
1.91064e-08
1.64712e-08
1.65545e-08
1.35534e-08
7.94778e-09
8.40037e-09
1.58693e-07
1.36634e-07
1.14008e-08
1.91011e-20
-3.15904e-10
-2.67971e-10
3.61312e-16
1.04929e-05
7.96346e-06
7.29966e-06
1.288e-06
3.98944e-08
7.63588e-07
1.19966e-07
3.52632e-08
1.76562e-08
1.2793e-08
1.09783e-08
9.79897e-09
1.91148e-07
1.90883e-06
2.66965e-05
2.94154e-05
7.65198e-06
5.89069e-05
0.00020125
9.90753e-06
0.000117969
3.82007e-07
4.00606e-07
3.5143e-08
4.20062e-09
4.3285e-09
2.74999e-09
2.65813e-09
4.27053e-08
6.50896e-09
1.53397e-09
1.31046e-09
1.18585e-07
1.00523e-07
1.10117e-07
0.00598746
0.00948595
0.00946739
0.00809253
0.00658982
5.16309e-10
6.6747e-10
1.36493e-08
2.70569e-08
7.41954e-08
4.24802e-07
1.57465e-06
8.77037e-07
4.09424e-08
5.98301e-05
4.51949e-05
1.4698e-07
1.10117e-07
0.00155913
0.00689316
0.00943617
0.00967369
0.00958667
0.00885207
1.71379e-08
2.69457e-08
5.5899e-08
1.44119e-07
2.9547e-07
1.65632e-06
5.2903e-06
1.48386e-05
4.26227e-05
6.04182e-05
0.000329395
0.000375892
0.000374895
0.000774311
0.000991215
0.00128931
0.00216066
0.00219593
0.00320394
3.00997e-08
5.24014e-08
6.24593e-08
4.65255e-08
1.95608e-13
6.43399e-07
1.37207e-06
1.65191e-05
3.33869e-05
3.30071e-05
2.33357e-05
5.49818e-05
5.15619e-05
4.63748e-09
1.61534e-09
1.86451e-06
2.87629e-06
4.94208e-06
1.20687e-06
5.53351e-11
5.94469e-10
6.0388e-09
1.30369e-13
2.91025e-12
-6.54444e-21
6.54444e-21
8.97491e-25
-3.2423e-21
5.12209e-07
4.15449e-08
2.6604e-06
2.0042e-07
1.59408e-09
1.11269e-09
4.05588e-11
8.8627e-10
2.43492e-09
1.26605e-08
5.74913e-11
5.2774e-11
5.44959e-11
6.63455e-11
1.23878e-10
2.34739e-10
1.04101e-09
6.70474e-09
2.19067e-08
3.79451e-08
4.11223e-08
1.1059e-08
1.19787e-09
2.95362e-09
1.06534e-08
3.12461e-08
3.32983e-08
2.34943e-08
1.40783e-08
1.59983e-10
9.2161e-11
9.66165e-11
1.39722e-10
2.52845e-10
6.18665e-10
2.50762e-09
7.39515e-09
1.67053e-08
2.65441e-08
2.44653e-08
5.89039e-09
1.09919e-09
2.97005e-09
9.31478e-09
2.50196e-08
3.07905e-08
1.63653e-08
1.40272e-08
4.19158e-10
1.11237e-10
1.06993e-10
1.43109e-10
2.39103e-10
4.10782e-10
6.89302e-10
1.12642e-09
1.34819e-09
1.61023e-09
2.14792e-09
1.13131e-09
7.21284e-10
1.07953e-09
3.85683e-09
9.17132e-09
1.18822e-08
6.21973e-09
8.15522e-09
1.17876e-09
1.34654e-10
1.05436e-10
1.12649e-10
1.35078e-10
1.84285e-10
2.82927e-10
7.15194e-10
1.14494e-09
1.25587e-09
9.76886e-10
5.2119e-10
3.93435e-10
4.1863e-10
8.11726e-10
1.99204e-09
2.56198e-09
1.25337e-09
2.19922e-09
2.85208e-09
4.585e-10
1.46702e-10
1.2766e-10
1.27947e-10
1.49768e-10
1.79864e-10
2.65705e-10
3.64248e-10
4.34572e-10
4.61355e-10
3.60404e-10
2.46739e-10
1.96318e-10
1.70516e-10
2.74909e-10
3.3636e-10
1.61694e-10
3.02821e-10
4.78614e-09
1.73824e-09
4.65231e-10
2.22051e-10
1.44994e-10
1.40639e-10
1.45041e-10
1.70804e-10
1.98191e-10
2.00987e-10
1.96316e-10
1.71672e-10
1.30315e-10
9.42037e-11
5.23126e-11
3.4858e-11
3.15201e-11
2.16496e-11
2.57807e-11
4.42624e-09
3.09783e-09
1.24663e-09
6.12859e-10
3.02447e-10
1.85627e-10
1.3907e-10
1.24289e-10
1.19346e-10
1.11287e-10
8.94236e-11
7.52566e-11
5.40042e-11
3.57264e-11
1.38885e-11
5.44112e-12
3.38728e-12
3.23472e-12
3.26158e-12
3.15446e-09
2.74149e-09
1.71057e-09
1.01139e-09
6.09317e-10
3.40643e-10
1.88162e-10
1.13721e-10
7.69077e-11
5.85405e-11
4.65268e-11
3.80249e-11
2.48576e-11
1.46707e-11
3.7896e-12
1.04968e-12
5.3425e-13
3.4836e-13
3.87228e-13
1.92197e-09
1.73592e-09
1.51668e-09
1.06938e-09
7.16307e-10
4.44893e-10
2.61002e-10
1.38466e-10
6.72738e-11
3.79179e-11
2.84506e-11
1.97349e-11
1.16044e-11
4.90886e-12
1.27306e-12
2.59962e-13
8.00196e-14
4.50645e-14
4.06617e-14
1.05718e-09
9.86815e-10
8.73737e-10
7.61803e-10
6.25704e-10
4.2713e-10
2.79366e-10
1.60157e-10
7.85243e-11
3.59402e-11
2.04121e-11
9.67814e-12
3.92846e-12
1.36439e-12
3.41186e-13
7.84157e-14
1.53467e-14
6.3893e-15
3.61143e-15
4.95983e-10
4.81217e-10
4.39622e-10
3.82886e-10
3.31699e-10
2.83047e-10
2.1662e-10
1.39895e-10
7.9073e-11
3.79281e-11
1.52195e-11
5.29678e-12
1.66201e-12
4.76746e-13
1.20832e-13
3.35489e-14
3.39506e-15
1.23315e-15
5.22509e-16
1.84928e-10
1.82643e-10
1.81114e-10
1.64812e-10
1.44923e-10
1.24044e-10
1.05016e-10
8.46714e-11
5.53407e-11
2.99395e-11
1.27986e-11
4.07598e-12
9.85805e-13
2.14363e-13
5.01727e-14
5.9862e-15
8.85865e-16
5.35197e-16
1.99021e-16
5.37299e-11
5.59757e-11
5.69769e-11
5.37522e-11
4.96653e-11
4.34764e-11
3.90908e-11
3.39365e-11
2.59381e-11
1.65138e-11
8.4456e-12
2.91527e-12
6.38704e-13
1.05943e-13
2.0151e-14
1.6638e-15
3.81985e-16
3.36964e-16
1.5459e-16
1.37524e-11
1.4075e-11
1.39162e-11
1.37793e-11
1.29338e-11
1.19367e-11
1.1106e-11
1.02849e-11
8.60555e-12
6.63378e-12
4.03282e-12
1.60673e-12
3.60138e-13
4.89715e-14
4.97999e-15
3.02374e-16
1.85636e-16
2.20551e-16
9.78064e-17
3.48049e-12
3.36645e-12
3.22895e-12
3.02374e-12
2.83403e-12
2.66319e-12
2.55321e-12
2.39459e-12
2.23697e-12
1.93624e-12
1.37192e-12
6.41335e-13
1.64202e-13
2.06475e-14
9.85343e-16
8.21474e-17
9.08473e-17
1.23045e-16
7.46255e-17
9.57485e-13
8.41813e-13
7.63736e-13
6.69602e-13
5.88766e-13
5.30895e-13
4.78357e-13
4.59601e-13
4.6388e-13
4.45475e-13
3.5261e-13
1.95001e-13
4.11852e-14
2.93533e-15
1.47514e-16
3.39875e-17
4.32278e-17
8.47837e-17
4.55303e-17
2.68686e-13
2.24323e-13
1.81051e-13
1.43899e-13
1.18813e-13
9.00697e-14
7.49989e-14
7.53708e-14
7.7589e-14
7.73388e-14
6.78012e-14
2.67063e-14
4.3057e-15
2.42114e-16
1.5749e-17
1.2313e-17
2.0845e-17
5.03464e-17
3.26902e-17
7.28232e-14
5.59211e-14
4.16303e-14
3.20093e-14
2.30539e-14
1.19854e-14
7.95055e-15
8.18661e-15
8.77189e-15
9.50614e-15
5.95704e-15
2.08864e-15
3.11847e-16
1.19731e-17
2.13766e-18
4.11136e-18
1.09891e-17
3.70349e-17
1.69977e-17
1.71088e-14
1.19274e-14
8.28907e-15
6.16551e-15
3.11095e-15
1.02529e-15
4.80721e-16
5.27384e-16
6.58021e-16
6.07523e-16
3.5852e-16
1.22831e-16
1.29377e-17
3.77929e-19
4.94334e-19
2.05332e-18
7.92598e-18
1.95335e-17
1.13292e-17
3.51154e-15
2.30664e-15
1.61532e-15
8.18168e-16
2.59521e-16
4.18697e-17
1.48184e-17
2.0737e-17
3.26009e-17
1.84835e-17
1.08833e-17
3.57641e-18
3.43645e-19
8.83816e-20
2.77144e-19
1.49086e-18
5.66331e-18
1.36349e-17
4.98529e-18
5.96023e-16
3.99033e-16
1.91445e-16
5.67784e-17
8.05447e-18
4.28112e-19
2.54954e-19
5.93493e-19
4.07342e-19
3.65428e-19
2.08394e-19
4.88563e-20
2.44281e-20
4.90922e-20
1.96921e-19
1.13397e-18
4.07118e-18
6.24776e-18
3.09304e-18
8.80155e-17
5.08288e-17
1.40734e-17
1.52931e-18
6.09236e-20
2.81407e-21
4.1648e-21
4.65932e-21
6.14062e-21
6.67796e-21
6.59164e-21
9.55136e-21
1.74784e-20
4.08733e-20
1.66494e-19
9.32123e-19
2.46385e-18
4.10628e-18
1.11331e-18
1.13281e-17
3.38557e-18
3.88951e-19
1.03692e-20
1.23495e-22
9.83842e-23
1.42779e-22
3.10673e-22
7.06057e-22
1.60936e-21
3.73547e-21
8.2495e-21
1.61063e-20
3.78605e-20
1.56883e-19
6.62958e-19
1.57993e-18
1.57904e-18
6.2875e-19
8.62195e-19
8.39554e-20
1.59811e-21
1.31551e-23
1.34947e-23
2.95631e-23
8.08449e-23
2.23202e-22
5.921e-22
1.49306e-21
3.59163e-21
7.86231e-21
1.52795e-20
3.52723e-20
1.25954e-19
4.15561e-19
8.83422e-19
9.35603e-19
1.74517e-19
1.07699e-20
2.05858e-22
2.15378e-24
2.63114e-24
7.40507e-24
2.34516e-23
6.9522e-23
1.95027e-22
5.16399e-22
1.29903e-21
3.09714e-21
6.72398e-21
1.29506e-20
2.94385e-20
9.39672e-20
2.70035e-19
4.95626e-19
2.95142e-19
8.41913e-20
5.57646e-23
6.15745e-25
5.64183e-25
1.81218e-24
6.10581e-24
1.90702e-23
5.66438e-23
1.56001e-22
4.10482e-22
1.02926e-21
2.42546e-21
5.25166e-21
1.0081e-20
2.19448e-20
6.39382e-20
1.62413e-19
2.1244e-19
1.42208e-19
2.18034e-20
1.46526e-25
9.58231e-26
3.74369e-25
1.36171e-24
4.51066e-24
1.38434e-23
4.0115e-23
1.0987e-22
2.87095e-22
7.17255e-22
1.68822e-21
3.60995e-21
6.90827e-21
1.49446e-20
3.60574e-20
9.26114e-20
9.10623e-20
3.66086e-20
1.03064e-20
1.37135e-26
6.54473e-26
2.50929e-25
8.41544e-25
2.65971e-24
7.81112e-24
2.24672e-23
6.29212e-23
1.66419e-22
4.22668e-22
1.00708e-21
2.1758e-21
4.24398e-21
9.02448e-21
1.90627e-20
4.39352e-20
2.94374e-20
1.39112e-20
4.14792e-21
8.98891e-27
3.64724e-26
1.2538e-25
3.88903e-25
1.19031e-24
3.56901e-24
1.03968e-23
2.93288e-23
7.98084e-23
2.1038e-22
5.10646e-22
1.12237e-21
2.1909e-21
4.70576e-21
9.13199e-21
1.69085e-20
8.36849e-21
4.50473e-21
1.19323e-21
3.24633e-27
1.08037e-26
3.25721e-26
9.38049e-26
3.08707e-25
1.00547e-24
3.13263e-24
9.15955e-24
2.61611e-23
6.99529e-23
1.76331e-22
4.05805e-22
8.02522e-22
1.67398e-21
2.8895e-21
4.27728e-21
2.09435e-21
8.02038e-22
5.52774e-23
)
;

boundaryField
{
    leftWall
    {
        type            alphaContactAngle;
        contactAngleProperties 
        {
            mercury         
            {
                theta0          90;
            }
            air             
            {
                theta0          90;
            }
            oil             
            {
                theta0          90;
            }
        }
        value           nonuniform List<scalar> 
50
(
1.00207e-10
2.30325e-10
2.32432e-10
2.33148e-10
0.0120624
0.624344
1
1
1
0.999321
0.921553
0.783331
0.111315
5.4247e-05
5.58099e-05
1.78971e-05
9.17445e-08
1.40326e-07
1.94977e-07
3.28495e-07
2.98998e-07
6.98016e-08
1.9888e-08
1.66425e-08
2.01539e-08
2.06354e-08
2.032e-08
1.86192e-08
1.76769e-08
1.78031e-08
1.79335e-08
1.79335e-08
1.79335e-08
1.75481e-08
1.61781e-08
1.43377e-08
1.24723e-08
1.07001e-08
8.83023e-09
6.68579e-09
4.71142e-09
2.91226e-09
1.50467e-09
6.57868e-10
2.39857e-10
6.02019e-11
1.05155e-11
7.83945e-13
6.02971e-15
4.22163e-21
)
;
    }
    rightWall
    {
        type            alphaContactAngle;
        contactAngleProperties 
        {
            mercury         
            {
                theta0          90;
            }
            air             
            {
                theta0          90;
            }
            oil             
            {
                theta0          90;
            }
        }
        value           nonuniform List<scalar> 
50
(
0.0121518
0.0121612
0.000903381
0.00149818
0.214493
0.562344
0.591777
0.547138
0.656566
0.735459
0.0926931
3.81789e-20
0.000167994
7.96346e-06
0.000117969
0.00658982
0.00885207
0.00320394
1.20687e-06
1.26605e-08
1.40783e-08
1.40272e-08
8.15522e-09
2.19922e-09
3.02821e-10
2.57807e-11
3.26158e-12
3.87228e-13
4.06617e-14
3.61143e-15
5.22509e-16
1.99021e-16
1.5459e-16
9.78064e-17
7.46255e-17
4.55303e-17
3.26902e-17
1.69977e-17
1.13292e-17
4.98529e-18
3.09304e-18
1.11331e-18
6.2875e-19
1.74517e-19
8.41913e-20
2.18034e-20
1.03064e-20
4.14792e-21
1.19323e-21
5.52774e-23
)
;
    }
    lowerWall
    {
        type            alphaContactAngle;
        contactAngleProperties 
        {
            mercury         
            {
                theta0          90;
            }
            air             
            {
                theta0          90;
            }
            oil             
            {
                theta0          90;
            }
        }
        value           nonuniform List<scalar> 
62
(
1.00207e-10
1.25578e-10
1.45398e-10
1.51153e-10
1.57235e-10
1.63995e-10
1.71886e-10
1.79436e-10
1.85652e-10
1.90553e-10
1.95966e-10
2.00854e-10
2.08615e-10
2.22531e-10
2.57329e-10
3.1525e-10
3.99749e-10
5.05642e-10
7.29385e-10
1.38855e-09
2.43819e-09
2.77878e-09
2.77872e-09
2.77872e-09
2.52035e-09
1.77178e-09
1.49395e-09
6.59445e-10
1.08561e-10
5.16618e-22
0.0904132
0.943235
0.996305
0.999964
0.999978
0.0107386
0.0535032
0.411313
0.771546
0.884977
0.885006
0.885266
0.893393
0.0107386
0.010975
0.0258162
0.0564266
0.054736
0.0260501
0.000927318
0.000731408
0.000807566
0.00105323
0.00241555
0.0111103
0.109803
0.123972
0.124477
0.124409
0.0528016
0.00259321
0.0121518
)
;
    }
    atmosphere
    {
        type            inletOutlet;
        inletValue      uniform 0;
        value           nonuniform List<scalar> 
46
(
0
0
0
1.90209e-15
1.28511e-15
6.32302e-16
2.82031e-16
1.1762e-16
4.2956e-17
1.47349e-17
4.90352e-18
1.5638e-18
5.46105e-19
1.89992e-19
0
0
0
0
0
0
0
0
0
0
0
0
0
0
0
0
9.38049e-26
3.08707e-25
1.00547e-24
3.13263e-24
9.15955e-24
2.61611e-23
6.99529e-23
1.76331e-22
4.05805e-22
8.02522e-22
1.67398e-21
2.8895e-21
0
0
0
0
)
;
    }