/*--------------------------------*- C++ -*----------------------------------*\
  =========                 |
  \\      /  F ield         | OpenFOAM: The Open Source CFD Toolbox
   \\    /   O peration     | Website:  https://openfoam.org
    \\  /    A nd           | Version:  13
     \\/     M anipulation  |
\*---------------------------------------------------------------------------*/
FoamFile
{
    format      ascii;
    class       volScalarField;
    location    "2.55";
    object      alpha.air;
}
// * * * * * * * * * * * * * * * * * * * * * * * * * * * * * * * * * * * * * //

dimensions      [];

internalField   nonuniform List<scalar> 
2268
(
5.67283e-13
6.50473e-13
7.51036e-13
7.04759e-13
5.87253e-13
4.16762e-13
2.56507e-13
1.35971e-13
6.47147e-14
2.91427e-14
2.63854e-14
2.85471e-14
3.74513e-14
5.34155e-14
9.44187e-14
1.73257e-13
2.77814e-13
5.15342e-13
1.28639e-12
2.44537e-12
1.69925e-12
4.00896e-13
8.68297e-13
2.22259e-12
3.09811e-12
3.12704e-12
2.97344e-12
2.64454e-12
2.0718e-12
1.27778e-12
6.12821e-13
2.81951e-13
1.83322e-13
1.9366e-13
2.96949e-13
5.77943e-13
1.14619e-12
2.17146e-12
3.33312e-12
4.27025e-12
8.33701e-12
1.67343e-11
1.9254e-11
1.12708e-11
1.7674e-10
1.71499e-10
6.10271e-12
8.87018e-12
8.25256e-12
7.87109e-12
7.22463e-12
6.23722e-12
4.52772e-12
2.35135e-12
9.4934e-13
6.31298e-13
7.44128e-13
1.38453e-12
3.13353e-12
6.92566e-12
1.48688e-11
3.17537e-11
6.13117e-11
8.06667e-11
1.26702e-10
2.30945e-10
8.16928e-10
2.11646e-09
1.39335e-09
2.14245e-11
1.64407e-11
3.14583e-11
1.35867e-11
1.1025e-11
1.06861e-11
1.12944e-11
1.06593e-11
7.56007e-12
4.64005e-12
3.81361e-12
4.73021e-12
7.53686e-12
1.55075e-11
4.16601e-11
8.64553e-11
1.57612e-10
2.69226e-10
4.02744e-10
3.56812e-10
1.07844e-09
2.22141e-09
1.31041e-09
1.16053e-10
3.55247e-11
6.81901e-11
1.04474e-11
1.01809e-11
1.04202e-11
1.01848e-11
1.40028e-11
1.60047e-11
1.56779e-11
1.26362e-11
1.16445e-11
1.40594e-11
2.63056e-11
5.67594e-11
9.61081e-11
1.52142e-10
2.38927e-10
3.4583e-10
6.83152e-10
7.05047e-10
9.63621e-10
7.54509e-10
3.70093e-09
4.80077e-09
2.39341e-09
3.81792e-07
4.23831e-07
1.68042e-07
2.54548e-09
1.4187e-11
1.4399e-11
8.06688e-11
8.32032e-11
6.44459e-11
5.62027e-11
5.43545e-11
6.39243e-11
8.37808e-11
8.66803e-11
1.23835e-10
1.61354e-10
2.38198e-07
1.20826e-08
8.27727e-10
7.55771e-10
1.26145e-08
2.00353e-08
6.15567e-08
9.4205e-07
2.33793e-06
1.4748e-06
3.38156e-07
2.82099e-08
8.54902e-09
2.9027e-09
1.49576e-09
9.36619e-10
6.08373e-10
3.92423e-10
1.72616e-10
8.42279e-11
1.428e-08
2.61972e-08
6.97767e-09
2.81202e-08
5.67074e-06
3.52703e-05
0.000487129
4.23936e-08
9.85017e-08
1.41497e-07
2.449e-07
3.616e-06
2.03573e-06
7.2715e-07
2.19119e-07
6.00411e-08
1.9005e-08
9.2416e-09
5.59515e-09
2.89392e-09
1.59422e-09
2.46628e-10
1.45261e-09
3.60325e-08
3.75234e-08
9.18554e-09
8.45201e-09
7.63746e-09
0.000608175
0.0007314
0.000342064
0.000370725
0.00444637
0.0249554
0.0340586
0.0574856
0.0616964
0.0560976
0.0460277
0.0465178
0.0547493
0.0715007
0.0716435
0.0657461
0.0526742
0.0141877
0.0137891
0.0137561
0.0136614
0.00508215
0.00484066
0.00386167
0.00457991
0.00691735
0.0134857
0.0336105
0.0355196
0.0419686
0.0687884
0.0622526
0.0622928
0.0631096
0.10778
0.104633
0.075487
0.0153351
0.0136381
0.013643
0.0168067
0.0174108
0.0192805
0.019794
0.012578
0.000858526
0.000218759
0.000755767
0.0342547
0.200248
0.281249
0.215859
0.161681
0.260831
0.301107
0.179857
0.0474008
0.0177944
0.0138606
0.0135268
0.0135582
0.0177447
0.0263976
0.0264007
0.00278145
2.29032e-05
0.000154033
0.00693217
0.302313
0.573565
0.573594
0.565754
0.573685
0.57334
0.536539
0.318746
0.222185
0.218127
0.013559
0.0135262
0.013597
0.0163027
0.0199706
0.0051691
2.28195e-05
0.000925611
0.00518523
0.0559438
0.446409
0.573731
0.57374
0.5739
0.488074
0.227745
0.250456
0.23137
0.371815
0.0490002
0.0491344
0.0167851
0.0123109
0.0117504
0.00884873
0.0265254
0.0291822
0.0101131
1.41248e-05
0.0317953
0.527394
0.573842
0.491174
0.032122
5.94113e-06
8.74071e-06
3.05174e-06
0.33213
0.0619288
0.0687334
0.0685313
0.0145046
0.0120471
0.0482714
0.0569102
0.0584998
0.0143023
1.41228e-05
1.40222e-05
0.0585754
0.57376
0.285208
4.03577e-06
2.44781e-05
5.14398e-05
3.22182e-06
0.200584
0.0329372
0.0576969
0.0699586
0.0466183
0.0527327
0.0963712
0.116829
0.0588431
0.000338542
1.9463e-05
1.58141e-05
1.57848e-05
0.218649
0.100339
5.81492e-06
4.81326e-05
0.000342617
0.000465728
0.139109
1.01356e-07
2.51327e-07
3.52245e-06
6.54342e-05
2.66433e-05
1.58433e-06
2.86806e-07
1.66747e-07
8.5164e-08
5.34234e-08
4.15815e-08
3.08864e-08
1.64884e-08
6.74612e-09
7.76346e-09
1.79199e-08
1.66056e-08
2.03128e-09
6.42278e-18
1.22248e-06
8.88653e-06
0.000158108
0.000333359
0.000678617
0.000670562
0.00117555
0.000611801
2.9675e-05
5.61864e-07
3.66627e-07
2.5873e-07
1.76457e-07
1.39915e-07
1.21372e-07
9.95734e-08
7.14925e-08
4.23408e-08
7.40895e-09
1.57989e-15
2.09748e-15
-1.72838e-10
-1.01333e-11
2.72488e-20
2.8234e-21
0.0003805
0.000648373
0.0784475
0.0241987
0.00187126
0.000270016
1.28773e-06
6.79268e-07
0.00195687
0.00309683
0.00299269
0.00284003
0.00295259
0.00516896
0.0104092
0.0128311
0.00839398
0.00227635
0.000252989
0.00011832
0.00462401
0.0274095
0.0706726
0.0770835
0.0800495
0.124186
0.0384977
1.28674e-05
1.09148e-05
2.46238e-06
0.0504639
0.121175
0.13141
0.125793
0.125864
0.126295
0.125658
0.140985
0.154913
0.155089
0.154536
0.150166
0.146738
0.150581
0.151078
0.125994
0.0652276
0.121416
0.123651
0.00877345
0.000119205
2.82877e-05
0.0188209
0.161756
0.186316
0.185733
0.185124
0.186285
0.185212
0.139131
0.110713
0.105228
0.128026
0.150911
0.10172
0.026731
0.0236706
0.0252198
0.011716
0.051304
0.101308
0.0373096
3.80394e-05
0.000424182
0.0014138
0.0430027
0.073196
0.0201579
7.34159e-06
0.00917334
0.0127281
0.00037674
0.000150897
2.50288e-05
4.19775e-05
0.00266414
0.00281204
1.93594e-07
2.12788e-07
2.38465e-07
1.94276e-05
0.00522276
0.00905534
0.000888951
0.000697669
-1.369e-08
-3.87127e-06
2.44704e-20
2.18095e-07
2.05732e-07
2.26389e-07
2.18504e-07
2.70694e-07
2.79134e-07
1.6598e-07
1.57019e-07
1.30501e-07
1.28399e-07
1.25193e-07
1.25529e-07
1.22406e-07
1.25527e-07
1.22406e-07
1.25546e-07
1.22412e-07
1.25596e-07
4.6685e-08
0.013061
0.0011471
0.00340348
0.00941863
0.0163024
0.0406005
0.044927
0.0426559
0.0519596
0.0616151
0.0692153
0.0745854
0.078819
0.0807585
0.0807814
0.0809856
0.0811379
0.0790166
0.0746805
0.0700701
0.0661144
0.0616918
0.0565103
0.624675
0.496295
0.483996
0.545189
0.593279
0.619974
0.651903
0.700783
0.738133
0.759754
0.77434
0.789562
0.801955
0.808891
0.812044
0.814103
0.814591
0.810925
0.804108
0.797272
0.791109
0.784242
0.772109
0.999999
1
0.979716
0.98604
0.999761
1
1
0.999999
0.999999
0.999999
1
1
1
1
1
1
1
1
1
1
1
1
1
0.999999
0.999999
0.999999
0.999999
0.999999
1
1
1
1
1
1
1
1
1
1
1
1
1
1
1
1
1
1
0.999998
0.999997
0.999995
0.999998
1
1
0.999999
0.999993
0.999984
0.999992
1
1
1
1
1
1
1
1
1
1
1
1
1
0.999998
0.999994
0.999973
0.999959
0.999997
1
0.999998
0.999897
0.999835
0.999899
0.999998
0.999999
1
1
1
1
1
1
1
1
1
1
1
0.999998
0.999992
0.999945
0.999943
0.999962
0.999999
0.999992
0.999855
0.999835
0.999835
0.999895
0.999997
0.999998
0.999999
0.999999
0.999999
1
1
1
1
1
1
1
0.999999
0.999995
0.999957
0.999945
0.999974
1
0.999999
0.999933
0.999836
0.999836
0.999871
0.999997
0.999997
0.999997
0.999997
0.999999
1
1
1
1
1
1
1
0.999999
0.999997
0.999992
0.999984
0.999998
1
1
0.999999
0.999959
0.999909
0.999969
0.999997
0.999997
0.999997
0.999997
0.999999
1
1
1
1
1
1
1
0.999999
0.999999
0.999999
0.999999
1
1
1
1
0.999999
0.999999
1
1
0.999998
0.999997
0.999999
1
1
1
1
1
1
1
1
0.999999
0.999999
1
1
1
1
1
1
1
1
1
1
0.999999
0.999999
1
1
1
1
1
1
1
1
1
1
0.999999
1
1
1
1
1
1
1
1
1
0.999999
0.999999
0.999999
1
1
1
1
1
1
1
1
1
1
1
1
1
1
1
1
1
1
1
1
1
0.999999
1
1
1
1
1
1
1
1
1
1
1
1
1
1
1
1
1
1
1
1
1
1
1
1
1
1
1
1
1
1
1
1
1
1
1
1
1
1
1
1
1
1
1
1
1
1
1
1
1
1
1
1
1
1
1
1
1
1
1
1
1
1
1
1
1
1
1
1
1
1
1
1
1
1
1
1
1
1
1
1
1
1
1
1
1
1
1
1
1
1
1
1
1
1
1
1
1
1
1
1
1
1
1
1
1
1
1
1
1
1
1
1
1
1
1
1
1
1
1
1
1
1
1
1
1
1
1
1
1
1
1
1
1
1
1
1
1
1
1
1
1
1
1
1
1
1
1
1
1
1
1
1
1
1
1
1
1
1
1
1
1
1
1
1
1
1
1
1
1
1
1
1
1
1
1
1
1
1
1
1
1
1
1
1
1
1
1
1
1
1
1
1
1
1
1
1
1
1
1
1
1
1
1
1
1
1
1
1
1
1
1
1
1
1
1
1
1
1
1
1
1
1
1
1
1
1
1
1
1
1
1
1
1
1
1
1
1
1
1
1
1
1
1
1
1
1
1
1
1
1
1
1
1
1
1
1
1
1
1
1
1
1
1
1
1
1
1
1
1
1
1
1
1
1
1
1
1
1
1
1
1
1
1
1
1
1
1
1
1
1
1
1
1
1
1
1
1
1
1
1
1
1
1
1
1
1
1
1
1
1
1
1
1
1
1
1
1
1
1
1
1
1
1
1
1
1
1
1
1
1
1
1
1
1
1
1
1
1
1
1
1
1
1
1
1
1
1
1
1
1
1
1
1
1
1
1
1
1
1
1
1
1
1
1
1
1
1
1
1
1
1
1
1
1
1
1
1
1
1
1
1
1
1
1
1
1
1
1
1
1
1
1
1
1
1
1
1
1
1
1
1
1
1
1
1
1
1
1
1
1
1
1
1
1
1
1
1
1
1
1
1
1
1
1
1
1
1
1
1
1
1
1
1
1
1
1
1
1
1
1
1
1
1
1
1
1
1
1
1
1
1
1
1
1
1
1
1
1
1
1
1
1
1
1
1
1
1
1
1
1
1
1
1
1
1
1
1
1
1
1
1
1
1
1
1
1
1
1
1
1
1
1
1
1
1
1
1
1
1
1
1
1
1
1
1
1
1
1
1
1
1
1
1
1
1
1
0.000193041
0.00014753
2.88768e-05
1.93711e-05
0.000274836
0.00119231
0.00821342
0.00408069
0.0404474
0.00320053
0.0778086
0.178121
0.139259
0.139428
0.131359
0.103108
0.0679533
0.0153047
3.54151e-06
0.000269248
7.33759e-21
2.24535e-10
3.29172e-06
7.36993e-06
2.245e-10
7.36832e-08
1.44716e-16
-1.89417e-20
0.0458745
0.0437554
0.0411514
0.0390593
0.746906
0.740664
0.734068
0.729928
1
1
1
1
1
1
1
1
1
1
1
1
1
1
1
1
1
1
1
1
1
1
1
1
1
1
1
1
1
1
1
1
1
1
1
1
1
1
1
1
1
1
1
1
1
1
1
1
1
1
1
1
1
1
1
1
1
1
1
1
1
1
1
1
1
1
1
1
1
1
1
1
1
1
1
1
1
1
1
1
1
1
1
1
1
1
1
1
1
1
1
1
1
1
1
1
1
1
1
1
1
1
1
1
1
1
1
1
1
1
1
1
1
1
1
1
1
1
1
1
1
1
1
1
1
1
1
1
1
1
1
1
7.42063e-06
0.0755299
0.0691051
0.0735523
0.175583
0.180838
0.124492
0.00550438
0.00166039
0.000701798
0.00032182
7.77724e-05
-2.84081e-07
5.26284e-10
1.99415e-05
2.76905e-05
0.00436057
0.0165188
0.0283687
0.00869036
0.153045
0.164866
0.179951
0.180837
0.180838
0.180838
0.0787795
0.00640927
0.000706578
0.000711742
0.000926825
0.000619657
0.000229451
0.000146386
3.82581e-05
0.00758063
0.0595103
0.036077
0.17792
0.178121
0.155938
0.12767
0.16518
0.180838
0.180838
0.153542
0.0175833
0.00104269
0.000215007
0.000873206
0.000893743
0.000507562
0.00013613
4.73921e-05
0.00336227
0.0612787
0.0612534
0.0868917
0.0601585
0.0161514
0.00490575
0.0204599
0.147897
0.178075
0.0851765
0.000824968
2.76281e-06
9.12818e-06
4.86006e-05
6.8581e-05
9.97874e-05
0.000192984
0.00021132
0.000167042
0.00987418
0.0175878
1.6441e-05
5.76399e-06
2.81518e-05
0.00103632
0.00198662
0.0187029
0.0173789
0.00326759
9.76632e-06
2.57209e-06
2.51075e-06
1.89442e-07
2.67555e-08
4.13213e-08
0.000123793
0.000210778
0.000169898
-3.26866e-08
-1.93493e-09
1.1762e-05
5.50288e-06
8.14892e-05
0.000291642
8.64992e-08
-8.02156e-18
7.79285e-17
4.8106e-09
4.12293e-08
3.54077e-07
3.21265e-07
1.24142e-07
3.19928e-08
1.91802e-07
8.50885e-06
4.30441e-05
3.87686e-05
6.00942e-06
2.60957e-14
-8.02888e-10
5.20559e-06
6.21428e-06
6.68648e-15
1.09968e-14
6.99911e-17
1.375e-26
1.21333e-17
6.67881e-10
4.45651e-09
4.97696e-15
-2.28757e-10
-1.12777e-10
4.41399e-18
4.27294e-07
2.92181e-10
1.75745e-10
-5.89433e-08
-6.3103e-09
0.0384889
0.0314424
0.0261664
0.0226247
0.0212891
0.0226087
0.0286063
0.0430134
0.0666715
0.0946771
0.118601
0.126218
0.132178
0.150786
0.181849
0.156294
0.101273
0.0306887
5.12588e-13
0.733081
0.71878
0.708827
0.70664
0.712841
0.733138
0.767324
0.806928
0.843536
0.874428
0.898781
0.919616
0.907362
0.891004
0.893316
0.872124
0.814747
0.681078
0.518717
1
1
1
1
1
0.999998
0.999993
0.99998
0.999944
0.99992
0.99958
0.999529
0.999521
0.999053
0.998761
0.998361
0.996968
0.996974
0.995348
1
1
0.999999
0.999879
0.999565
0.999417
0.999526
0.99986
0.999959
0.999959
0.999725
0.999155
0.999141
0.999794
0.999996
0.999997
0.999996
0.999993
0.999999
1
1
0.999999
0.999632
0.999023
0.999023
0.999044
0.999926
0.999999
0.999897
0.999176
0.999138
0.999684
0.999888
0.999999
1
1
1
1
1
1
0.999999
0.999984
0.999728
0.99955
0.999961
1
1
0.999997
0.99998
0.999936
1
0.999999
1
1
1
1
1
1
1
1
1
1
1
1
0.999997
0.999997
1
1
1
1
1
1
1
1
1
1
1
1
1
1
1
1
1
1
1
1
1
1
1
1
1
1
1
1
1
1
1
1
1
1
1
1
1
1
1
1
1
1
1
1
1
1
1
1
1
1
1
1
1
1
1
1
1
1
1
1
1
1
1
1
1
1
1
1
1
1
1
1
1
1
1
1
1
1
1
1
1
1
1
1
1
1
1
1
1
1
1
1
1
1
1
1
1
1
1
1
1
1
1
1
1
1
1
1
1
1
1
1
1
1
1
1
1
1
1
1
1
1
1
1
1
1
1
1
1
1
1
1
1
1
1
1
1
1
1
1
1
1
1
1
1
1
1
1
1
1
1
1
1
1
1
1
1
1
1
1
1
1
1
1
1
1
1
1
1
1
1
1
1
1
1
1
1
1
1
1
1
1
1
1
1
1
1
1
1
1
1
1
1
1
1
1
1
1
1
1
1
1
1
1
1
1
1
1
1
1
1
1
1
1
1
1
1
1
1
1
1
1
1
1
1
1
1
1
1
1
1
1
1
1
1
1
1
1
1
1
1
1
1
1
1
1
1
1
1
1
1
1
1
1
1
1
1
1
1
1
1
1
1
1
1
1
1
1
1
1
1
1
1
1
1
1
1
1
1
1
1
1
1
1
1
1
1
1
1
1
1
1
1
1
1
1
1
1
1
1
1
1
1
1
1
1
1
1
1
1
1
1
1
1
1
1
1
1
1
1
1
1
1
1
1
1
1
1
1
1
1
1
1
1
1
1
1
1
1
1
1
1
1
1
1
1
1
1
1
1
1
1
1
1
1
1
1
1
1
1
1
1
1
1
1
1
1
1
1
1
1
1
1
1
1
1
1
1
1
1
1
1
1
1
1
1
1
1
1
1
1
1
1
1
1
1
1
1
1
1
1
1
1
1
1
1
1
1
1
1
1
1
1
1
1
1
1
1
1
1
1
1
1
1
1
1
1
1
1
1
1
1
1
1
1
1
1
1
1
1
1
1
1
1
1
1
1
1
1
1
1
1
1
1
1
1
1
1
1
1
1
1
1
1
1
1
1
1
1
1
1
1
1
1
1
1
1
1
1
1
1
1
1
1
1
1
1
1
1
1
1
1
1
1
1
1
1
1
1
1
1
1
1
1
1
1
1
1
1
1
1
1
1
1
1
1
1
1
1
1
1
1
1
1
1
1
1
1
1
1
1
1
1
1
1
1
1
1
1
1
1
1
)
;

boundaryField
{
    leftWall
    {
        type            alphaContactAngle;
        contactAngleProperties 
        {
            mercury         
            {
                theta0          90;
            }
            water           
            {
                theta0          90;
            }
            oil             
            {
                theta0          90;
            }
        }
        value           nonuniform List<scalar> 
50
(
5.67283e-13
2.22259e-12
6.10271e-12
2.14245e-11
1.16053e-10
3.70093e-09
1.26145e-08
4.23936e-08
1.01356e-07
0.000678617
0.0784475
0.124186
0.123651
0.0373096
0.000697669
0.013061
0.624675
0.999999
0.999999
0.999998
0.999998
0.999998
0.999999
0.999999
0.999999
0.999999
1
1
1
1
1
1
1
1
1
1
1
1
1
1
1
1
1
1
1
1
1
1
1
1
)
;
    }
    rightWall
    {
        type            alphaContactAngle;
        contactAngleProperties 
        {
            mercury         
            {
                theta0          90;
            }
            water           
            {
                theta0          90;
            }
            oil             
            {
                theta0          90;
            }
        }
        value           nonuniform List<scalar> 
50
(
0.0136614
0.013643
0.0138606
0.218127
0.371815
0.33213
0.200584
0.139109
0.0283687
0.036077
0.0612534
0.0175878
-1.93493e-09
2.60957e-14
-6.3103e-09
5.12588e-13
0.518717
0.995348
0.999999
1
1
1
1
1
1
1
1
1
1
1
1
1
1
1
1
1
1
1
1
1
1
1
1
1
1
1
1
1
1
1
)
;
    }
    lowerWall
    {
        type            alphaContactAngle;
        contactAngleProperties 
        {
            mercury         
            {
                theta0          90;
            }
            water           
            {
                theta0          90;
            }
            oil             
            {
                theta0          90;
            }
        }
        value           nonuniform List<scalar> 
62
(
5.67283e-13
6.50473e-13
7.51036e-13
7.04759e-13
5.87253e-13
4.16762e-13
2.56507e-13
1.35971e-13
6.47147e-14
2.91427e-14
2.63854e-14
2.85471e-14
3.74513e-14
5.34155e-14
9.44187e-14
1.73257e-13
2.77814e-13
5.15342e-13
1.28639e-12
2.44537e-12
1.69925e-12
4.00896e-13
8.68297e-13
8.68297e-13
1.71499e-10
1.39335e-09
1.31041e-09
7.54509e-10
7.55771e-10
0.000487129
0.0007314
0.000193041
0.00014753
2.88768e-05
1.93711e-05
0.000342064
0.00508215
0.0168067
0.0135268
0.013559
0.0490002
0.0619288
0.0329372
0.000342064
0.000370725
0.00444637
0.0249554
0.0340586
0.0574856
0.0616964
0.0560976
0.0460277
0.0465178
0.0547493
0.0715007
0.0716435
0.0657461
0.0526742
0.0141877
0.0137891
0.0137561
0.0136614
)
;
    }
    atmosphere
    {
        type            inletOutlet;
        inletValue      uniform 1;
        value           nonuniform List<scalar> 
46
(
1
1
1
1
1
1
1
1
1
1
1
1
1
1
1
1
1
1
1
1
1
1
1
1
1
1
1
1
1
1
1
1
1
1
1
1
1
1
1
1
1
1
1
1
1
1
)
;
    }
    defaultFaces
    {
        type            empty;
    }
}


// ************************************************************************* //
