/*--------------------------------*- C++ -*----------------------------------*\
  =========                 |
  \\      /  F ield         | OpenFOAM: The Open Source CFD Toolbox
   \\    /   O peration     | Website:  https://openfoam.org
    \\  /    A nd           | Version:  13
     \\/     M anipulation  |
\*---------------------------------------------------------------------------*/
FoamFile
{
    format      ascii;
    class       volScalarField;
    location    "2.55";
    object      alpha.mercury;
}
// * * * * * * * * * * * * * * * * * * * * * * * * * * * * * * * * * * * * * //

dimensions      [];

internalField   nonuniform List<scalar> 
2268
(
1
1
1
1
1
1
1
1
1
1
1
1
1
1
1
1
1
1
1
1
0.999666
0.999433
0.999433
1
1
1
1
1
1
1
1
1
1
1
1
1
1
1
1
1
1
1
0.999999
0.999937
0.999814
0.999702
1
1
1
1
1
1
1
1
1
1
1
1
1
1
1
1
1
1
1
0.999999
1
1
1
1
1
1
1
1
1
1
1
1
1
1
1
1
1
1
1
1
1
1
1
1
1
1
0.987938
0.98823
0.991737
0.995837
0.998819
1
1
1
1
1
1
1
1
1
1
1
1
1
1
1
1
1
1
0.375656
0.394038
0.423958
0.46697
0.521067
0.584735
0.656517
0.718048
0.77736
0.836246
0.891711
0.939677
0.975437
0.995626
1
1
1
1
1
1
1
1
1
2.81952e-22
2.47417e-22
1.58994e-22
-3.37075e-10
-2.0496e-10
-4.7523e-11
0
0.0181412
0.0485178
0.0901149
0.14774
0.226518
0.331349
0.46577
0.614497
0.74977
0.863223
0.950354
0.999999
0.999999
0.999994
0.999965
0.999488
1.54487e-10
1.14038e-10
7.0019e-11
-1.31174e-09
-1.31212e-09
-5.96396e-10
-9.26124e-11
2.86402e-20
5.2543e-20
7.25383e-20
9.2352e-20
1.0718e-19
9.24228e-20
1.26604e-19
0.0109054
0.0556493
0.135262
0.248235
0.398103
0.572229
0.705491
0.804097
0.908819
0.861741
0.877671
0.877671
0.877671
0.877594
0.870248
0.670846
0.637789
0.647813
0.655629
0.642893
0.619578
0.644455
0.747304
0.75244
0.752455
0.752383
0.752414
0.752283
0.549022
0.571912
0.643373
0.693496
0.824647
0.845928
0.833897
0.805048
0.824924
0.825158
0.803045
0.720105
0.72423
0.75222
0.752408
0.752395
0.752454
0.752356
0.751962
0.178332
0.176978
0.209649
0.331163
0.400418
0.594179
0.636313
0.711103
0.724434
0.741588
0.701481
0.681062
0.658743
0.640885
0.633558
0.673361
0.64523
0.585852
0.561774
0.127847
0.133023
0.13397
0.140546
0.124086
0.13234
0.207518
0.194381
0.165326
0.198827
0.280493
0.285077
0.257168
0.250536
0.211702
0.156095
0.162404
0.235869
0.310689
0.0940216
0.0966368
0.0951571
0.108091
0.0870628
0.0355545
0.0352059
0.051219
0.0463899
0.0121678
0.0244595
0.120011
0.153044
0.0864054
0.0274064
1.23106e-05
1.91474e-33
-3.26216e-11
0.0143628
0.0326518
0.0419886
0.0902089
0.0867698
0.109845
0.0635603
0.0492252
0.0537638
0.0545439
0.0121111
2.09096e-06
3.84665e-09
2.23636e-09
0.00187459
3.3056e-15
2.07907e-15
2.81399e-08
5.27232e-09
2.79162e-09
0.015135
0.0121866
0.0140756
0.0356151
0.0921628
0.0919352
0.0842704
0.0845762
0.0533555
0.00919474
0.000638897
4.08006e-05
7.19829e-09
8.23225e-10
1.33996e-07
3.66325e-06
9.62837e-08
2.26072e-09
2.5188e-09
0.0222214
0.019808
0.00552816
0.00423056
0.0439802
0.0906071
0.0920512
0.056707
0.00158213
0.0017072
0.000467151
9.96916e-05
5.05673e-10
1.21006e-06
9.97673e-07
8.32994e-06
1.27243e-07
-1.21774e-11
2.04479e-09
2.94879e-10
2.99732e-10
3.18383e-10
3.37515e-10
3.79608e-10
4.19125e-10
4.37422e-10
4.33747e-10
4.31504e-10
4.77915e-10
5.98282e-10
5.22211e-10
3.39935e-10
3.76071e-10
3.57236e-08
2.90307e-08
5.46902e-08
8.03862e-08
0.000204396
0.00573822
0.0188739
0.0388148
0.084433
3.42485e-10
3.79933e-10
4.89061e-10
6.67463e-10
8.52868e-10
9.54879e-10
9.24981e-10
8.40866e-10
8.22765e-10
1.03279e-09
1.38769e-09
1.27073e-09
7.15467e-10
5.00855e-10
9.68823e-10
4.10588e-09
1.5582e-08
3.56707e-08
3.41986e-07
6.49156e-05
0.000186044
0.000123691
3.04224e-08
3.85492e-10
4.52524e-10
5.9951e-10
7.86859e-10
9.7627e-10
1.08053e-09
1.10731e-09
1.11405e-09
1.09539e-09
1.00414e-09
8.68943e-10
7.24536e-10
5.80532e-10
5.39268e-10
5.42852e-10
7.18675e-10
2.26728e-09
6.05584e-09
3.58693e-09
6.97808e-07
3.62423e-06
1.69359e-06
3.12483e-07
4.20843e-10
4.79694e-10
5.92137e-10
6.59208e-10
7.32114e-10
8.08913e-10
8.716e-10
9.34118e-10
1.01275e-09
1.12189e-09
1.24263e-09
1.30048e-09
1.29926e-09
1.30207e-09
1.39368e-09
1.5774e-09
2.07529e-09
3.11966e-09
3.39043e-09
2.71793e-09
2.53069e-09
1.43838e-08
1.47806e-08
4.59166e-10
5.10983e-10
5.71727e-10
6.30105e-10
7.42184e-10
9.15744e-10
1.06828e-09
1.20385e-09
1.37889e-09
1.59946e-09
1.75295e-09
1.82572e-09
1.85717e-09
1.86525e-09
1.88923e-09
2.52079e-09
3.95718e-09
4.59187e-09
3.01552e-09
2.24874e-09
7.93803e-08
8.37597e-07
3.06342e-06
4.69752e-10
5.26008e-10
5.78373e-10
6.60215e-10
8.50452e-10
1.06065e-09
1.13876e-09
1.1943e-09
1.24644e-09
1.31271e-09
1.36902e-09
1.39407e-09
1.37297e-09
1.32757e-09
1.78242e-09
3.77971e-09
5.09202e-09
5.04558e-09
4.43915e-09
7.27465e-09
2.65156e-08
1.48922e-06
1.45356e-05
4.67768e-10
4.52067e-10
4.26861e-10
5.32623e-10
6.23934e-10
6.50922e-10
5.98552e-10
5.59175e-10
5.69339e-10
6.62955e-10
7.87117e-10
9.20544e-10
1.08548e-09
1.26366e-09
1.49627e-09
1.83299e-09
2.67394e-09
3.29811e-09
3.22866e-09
5.86353e-08
4.25531e-07
6.41765e-07
1.08001e-07
4.63557e-10
4.4479e-10
3.49295e-10
3.00644e-10
3.02173e-10
2.47419e-10
1.75169e-10
1.59243e-10
1.66343e-10
2.45646e-10
3.84364e-10
5.72475e-10
8.19851e-10
1.02975e-09
1.18755e-09
1.83164e-09
5.49334e-09
8.97262e-09
8.72449e-09
4.28947e-09
4.14305e-10
4.20304e-10
4.14312e-10
4.52154e-10
4.55598e-10
3.66212e-10
1.93684e-10
1.28656e-10
7.47058e-11
4.29182e-11
3.78362e-11
4.4035e-11
8.27778e-11
1.13365e-10
1.2055e-10
1.19295e-10
1.31584e-10
1.90776e-10
2.66677e-10
3.01464e-10
3.36808e-10
3.96315e-10
4.16388e-10
5.8282e-10
1.09925e-09
1.9192e-09
3.61479e-10
4.25429e-10
3.79184e-10
2.20749e-10
1.00456e-10
4.93107e-11
2.69209e-11
2.2501e-11
2.24801e-11
2.29854e-11
2.27611e-11
2.07801e-11
1.88211e-11
1.78657e-11
1.74524e-11
1.87151e-11
2.01024e-11
3.86501e-11
1.66694e-10
4.84348e-10
8.12356e-10
1.49447e-09
2.63305e-09
2.70273e-10
3.44165e-10
3.00385e-10
1.74831e-10
1.04887e-10
6.9195e-11
4.94986e-11
3.7044e-11
2.55264e-11
1.76247e-11
1.3991e-11
1.13633e-11
9.79919e-12
9.03623e-12
8.62437e-12
8.88407e-12
9.0858e-12
3.51511e-11
1.50488e-10
2.75614e-10
6.31837e-10
1.13811e-09
1.99523e-09
2.3653e-10
3.15655e-10
2.78308e-10
1.78847e-10
1.41632e-10
1.2781e-10
1.09832e-10
7.93684e-11
5.43338e-11
3.33182e-11
2.06707e-11
1.31476e-11
9.79489e-12
7.44838e-12
5.47124e-12
4.51031e-12
4.23193e-12
4.8396e-12
7.79204e-12
9.09673e-12
5.84111e-12
1.69054e-12
1.46499e-12
2.16793e-10
3.13029e-10
3.27636e-10
2.48045e-10
2.05558e-10
1.98366e-10
1.83152e-10
1.49179e-10
1.08602e-10
7.20112e-11
3.68034e-11
2.15207e-11
1.28669e-11
8.61493e-12
5.3292e-12
3.66266e-12
2.87808e-12
2.26315e-12
1.91388e-12
1.80093e-12
1.91504e-12
2.07067e-12
1.9701e-12
2.09289e-10
3.21201e-10
3.64441e-10
3.25336e-10
2.92784e-10
2.71657e-10
2.3283e-10
1.97929e-10
1.62605e-10
1.05975e-10
7.12201e-11
3.4908e-11
1.8102e-11
1.1007e-11
6.74438e-12
4.17262e-12
2.85671e-12
1.89307e-12
1.36201e-12
1.1418e-12
1.29737e-12
1.51838e-12
1.50668e-12
1.98238e-10
3.21559e-10
3.88142e-10
3.87692e-10
3.48348e-10
3.0934e-10
2.64534e-10
2.1463e-10
1.76427e-10
1.36123e-10
8.25611e-11
4.63486e-11
2.52968e-11
1.45651e-11
9.16973e-12
5.37569e-12
3.25646e-12
1.97515e-12
1.2852e-12
9.07701e-13
7.60252e-13
7.56049e-13
1.0202e-12
1.80303e-10
3.10625e-10
3.87225e-10
3.89644e-10
3.60118e-10
3.13452e-10
2.66569e-10
2.12489e-10
1.71553e-10
1.29799e-10
8.87439e-11
5.10338e-11
2.90441e-11
1.83141e-11
1.11565e-11
6.45392e-12
4.09495e-12
2.29229e-12
1.3047e-12
8.92977e-13
6.76242e-13
5.18841e-13
5.13281e-13
1.55034e-10
2.84836e-10
3.68735e-10
3.71264e-10
3.3873e-10
2.88621e-10
2.37528e-10
1.84765e-10
1.45834e-10
1.07542e-10
7.65848e-11
5.03005e-11
2.92713e-11
1.82379e-11
1.17268e-11
7.00673e-12
4.19332e-12
2.57071e-12
1.40971e-12
9.18064e-13
6.77846e-13
4.63356e-13
3.46563e-13
1.28831e-10
2.48658e-10
3.15005e-10
3.09708e-10
2.80615e-10
2.27217e-10
1.71445e-10
1.45414e-10
1.09827e-10
8.36409e-11
6.04498e-11
3.9958e-11
2.7797e-11
1.69951e-11
1.07363e-11
6.75056e-12
4.09183e-12
2.41116e-12
1.46184e-12
9.10363e-13
6.68281e-13
4.56882e-13
3.21944e-13
1.04561e-10
2.04165e-10
2.58057e-10
2.43413e-10
2.09671e-10
1.79072e-10
1.31214e-10
1.01348e-10
7.89085e-11
6.03364e-11
4.14181e-11
2.72331e-11
2.06252e-11
1.29714e-11
8.37167e-12
5.65955e-12
3.70603e-12
2.18914e-12
1.34613e-12
8.68984e-13
6.21334e-13
4.31159e-13
3.06177e-13
8.22553e-11
1.58888e-10
2.00373e-10
1.87045e-10
1.5925e-10
1.34783e-10
1.00927e-10
7.61057e-11
5.70916e-11
3.74892e-11
2.38708e-11
1.67137e-11
1.25636e-11
8.76494e-12
5.76208e-12
4.18181e-12
2.81478e-12
1.90282e-12
1.18491e-12
7.80193e-13
5.60094e-13
3.83979e-13
2.75317e-13
6.49837e-11
1.16234e-10
1.44266e-10
1.33918e-10
1.14427e-10
9.41017e-11
7.1511e-11
5.36009e-11
3.93514e-11
2.37067e-11
1.34481e-11
9.73541e-12
7.29662e-12
5.28872e-12
3.87078e-12
2.85733e-12
1.98405e-12
1.39463e-12
9.93555e-13
6.67529e-13
4.75055e-13
3.26551e-13
2.33043e-13
4.77233e-11
8.16678e-11
9.80384e-11
9.013e-11
7.64478e-11
6.13164e-11
4.71424e-11
3.54636e-11
2.55258e-11
1.47736e-11
8.93946e-12
5.68758e-12
4.32529e-12
3.26786e-12
2.44959e-12
1.8277e-12
1.31554e-12
9.75453e-13
7.2345e-13
5.17898e-13
3.66872e-13
2.54075e-13
1.82338e-13
3.28998e-11
5.44815e-11
6.22097e-11
5.68647e-11
4.85556e-11
3.86872e-11
2.98125e-11
2.23837e-11
1.62082e-11
9.69788e-12
5.41012e-12
3.86019e-12
2.75601e-12
2.0134e-12
1.49979e-12
1.10905e-12
8.17252e-13
6.33227e-13
4.79812e-13
3.55773e-13
2.5151e-13
1.78625e-13
1.29168e-13
2.20897e-11
3.66019e-11
3.93869e-11
3.53473e-11
2.95383e-11
2.36036e-11
1.8695e-11
1.39316e-11
9.83945e-12
6.3026e-12
3.95948e-12
2.61239e-12
1.76081e-12
1.23093e-12
8.75284e-13
6.32737e-13
4.69039e-13
3.72929e-13
2.87927e-13
2.1758e-13
1.58991e-13
1.11483e-13
8.01913e-14
1.48243e-11
2.32548e-11
2.36049e-11
2.10394e-11
1.77134e-11
1.43591e-11
1.11513e-11
8.41371e-12
6.04311e-12
4.10155e-12
2.68405e-12
1.72362e-12
1.12294e-12
7.40775e-13
4.93094e-13
3.44409e-13
2.57056e-13
1.98637e-13
1.53473e-13
1.16991e-13
8.23683e-14
6.05877e-14
4.43173e-14
9.53998e-12
1.4259e-11
1.42492e-11
1.22183e-11
1.01936e-11
8.17311e-12
6.36028e-12
4.83692e-12
3.54276e-12
2.51351e-12
1.70907e-12
1.10231e-12
6.94435e-13
4.30437e-13
2.66956e-13
1.79523e-13
1.26834e-13
9.43171e-14
7.07452e-14
5.27701e-14
3.92938e-14
2.84712e-14
2.0386e-14
6.15661e-12
8.72739e-12
8.27163e-12
6.81488e-12
5.56432e-12
4.47061e-12
3.53552e-12
2.6913e-12
2.01066e-12
1.46456e-12
1.02301e-12
6.70449e-13
4.19926e-13
2.52573e-13
1.47986e-13
9.12843e-14
5.85363e-14
4.10932e-14
2.89261e-14
2.14676e-14
1.55886e-14
1.12732e-14
8.17231e-15
3.85535e-12
5.26056e-12
4.64879e-12
3.70792e-12
2.8929e-12
2.26396e-12
1.72727e-12
1.3094e-12
1.01784e-12
7.71895e-13
5.54748e-13
3.70466e-13
2.30856e-13
1.37045e-13
7.75468e-14
4.55174e-14
2.66994e-14
1.72086e-14
1.1094e-14
7.6744e-15
5.55023e-15
3.87422e-15
2.73486e-15
2.3635e-12
3.03335e-12
2.53353e-12
1.9185e-12
1.41441e-12
1.0352e-12
7.81238e-13
5.89025e-13
4.50618e-13
3.47579e-13
2.55761e-13
1.76946e-13
1.11938e-13
6.77539e-14
3.80402e-14
2.10449e-14
1.16994e-14
6.66684e-15
3.91885e-15
2.55753e-15
1.71539e-15
1.11907e-15
7.93036e-16
1.40186e-12
1.64678e-12
1.29894e-12
9.18336e-13
6.34502e-13
4.46774e-13
3.18892e-13
2.36377e-13
1.8147e-13
1.4078e-13
1.05097e-13
7.29265e-14
4.7556e-14
2.85538e-14
1.64278e-14
8.95626e-15
4.5892e-15
2.47457e-15
1.29162e-15
7.53915e-16
4.85748e-16
3.03472e-16
2.03489e-16
7.86954e-13
8.39713e-13
6.12768e-13
4.01846e-13
2.59078e-13
1.754e-13
1.19714e-13
8.61105e-14
6.31693e-14
4.92866e-14
3.72399e-14
2.61203e-14
1.70321e-14
1.05574e-14
6.0064e-15
3.24157e-15
1.62277e-15
8.14833e-16
3.97877e-16
2.12129e-16
1.1763e-16
7.07808e-17
4.6355e-17
3.96787e-13
3.98876e-13
2.65541e-13
1.61239e-13
9.71634e-14
6.02278e-14
3.9283e-14
2.7026e-14
1.99951e-14
1.4977e-14
1.14262e-14
8.27546e-15
5.4303e-15
3.27964e-15
1.87403e-15
1.00856e-15
4.90723e-16
2.38383e-16
1.04944e-16
5.13866e-17
2.8149e-17
1.5163e-17
9.21034e-18
1.86592e-13
1.61774e-13
1.01049e-13
5.72792e-14
3.17835e-14
1.8686e-14
1.16357e-14
7.84184e-15
5.61309e-15
4.23618e-15
3.19077e-15
2.31195e-15
1.51429e-15
9.09015e-16
5.06236e-16
2.63217e-16
1.23421e-16
5.72243e-17
2.42994e-17
1.10337e-17
5.29319e-18
2.8394e-18
1.58535e-18
7.67676e-14
5.80304e-14
3.31561e-14
1.75074e-14
9.06629e-15
5.07701e-15
3.15599e-15
2.12097e-15
1.46065e-15
1.09088e-15
8.24923e-16
5.8565e-16
3.71941e-16
2.15561e-16
1.15452e-16
5.89997e-17
2.64968e-17
1.14558e-17
4.73473e-18
1.95479e-18
9.06704e-19
4.41743e-19
2.31257e-19
2.64107e-14
1.88286e-14
9.93814e-15
4.93804e-15
2.45462e-15
1.28261e-15
7.8236e-16
5.04139e-16
3.51232e-16
2.53572e-16
1.8591e-16
1.29255e-16
7.9486e-17
4.51376e-17
2.35753e-17
1.12583e-17
4.9605e-18
1.99014e-18
7.746e-19
3.03178e-19
1.317e-19
6.1052e-20
2.92462e-20
7.5588e-15
5.14407e-15
2.58971e-15
1.23833e-15
5.72798e-16
2.88164e-16
1.71595e-16
1.09547e-16
7.33896e-17
5.2522e-17
3.76145e-17
2.56775e-17
1.54104e-17
8.67834e-18
4.42433e-18
2.03354e-18
8.3646e-19
3.05498e-19
1.12205e-19
4.02259e-20
1.65134e-20
7.05335e-21
3.0558e-21
1.89334e-15
1.1559e-15
5.3833e-16
2.40938e-16
1.14882e-16
6.01522e-17
3.402e-17
2.12937e-17
1.42166e-17
1.0085e-17
7.18909e-18
4.8714e-18
2.96196e-18
1.5914e-18
7.6207e-19
3.26887e-19
1.23791e-19
4.25231e-20
1.42154e-20
4.88905e-21
1.80947e-21
6.92836e-22
2.69427e-22
3.09881e-16
1.74414e-16
8.41548e-17
4.21388e-17
2.09017e-17
1.05166e-17
5.99404e-18
3.90351e-18
2.7092e-18
1.94763e-18
1.38193e-18
8.9895e-19
5.1457e-19
2.58934e-19
1.16898e-19
4.62426e-20
1.61289e-20
5.08016e-21
1.57184e-21
5.07523e-22
1.70691e-22
5.79695e-23
2.16232e-23
3.79028e-17
2.01308e-17
1.11907e-17
6.12108e-18
3.10085e-18
1.67128e-18
1.00226e-18
6.61435e-19
4.68727e-19
3.39821e-19
2.38085e-19
1.52358e-19
8.50214e-20
4.05051e-20
1.66389e-20
5.96939e-21
1.89838e-21
5.55776e-22
1.58617e-22
4.64073e-23
1.39383e-23
4.16384e-24
1.3128e-24
1.94471e-18
1.2786e-18
1.08275e-18
7.41406e-19
4.34358e-19
2.47708e-19
1.57778e-19
1.10922e-19
8.18962e-20
6.06269e-20
4.18689e-20
2.59195e-20
1.34679e-20
5.8802e-21
2.19213e-21
7.15524e-22
2.08904e-22
5.53898e-23
1.40472e-23
3.57983e-24
9.15887e-25
2.46199e-25
1.84236e-26
8.62596e-21
2.57808e-20
6.38277e-20
7.09762e-20
4.8638e-20
3.16719e-20
2.17464e-20
1.61861e-20
1.24831e-20
9.54056e-21
7.00454e-21
4.05059e-21
2.01891e-21
8.18215e-22
2.77071e-22
7.99445e-23
2.02586e-23
4.90282e-24
1.13809e-24
2.53631e-25
6.00917e-26
3.68056e-27
1.82281e-28
4.87141e-28
1.01973e-22
2.75789e-21
6.67685e-21
5.53993e-21
3.69077e-21
2.76541e-21
2.37024e-21
1.97426e-21
1.61118e-21
1.1632e-21
6.43701e-22
3.03495e-22
1.13588e-22
3.43804e-23
8.90064e-24
1.93612e-24
4.03538e-25
8.29096e-26
1.57841e-26
2.25872e-27
4.65818e-29
4.57777e-29
0.0565296
0.00352011
2.73349e-06
2.48515e-06
2.70052e-08
3.26166e-08
2.40158e-05
2.73705e-06
4.06992e-06
1.02729e-07
0.000395524
0.0007769
3.83953e-05
0.000183392
0.000190772
0.000655457
2.52484e-05
0.00019701
0.000242685
0.000242803
1.73469e-05
1.46449e-05
3.91968e-06
3.53962e-08
3.45268e-10
3.41137e-10
3.47852e-10
1.03443e-09
7.06782e-10
8.65102e-10
1.67798e-09
2.50686e-09
2.78591e-09
3.26259e-09
5.15096e-09
7.2224e-09
3.551e-09
3.74902e-09
3.62003e-09
4.20335e-09
2.28839e-09
2.26653e-09
2.11076e-09
4.68803e-09
1.48475e-12
1.56319e-12
1.47233e-12
7.58181e-12
1.58757e-12
1.47404e-12
1.49167e-12
1.59074e-12
1.46224e-12
1.73796e-12
2.15497e-12
2.96771e-12
1.34273e-12
2.00577e-12
3.10384e-12
5.40041e-12
9.5617e-13
1.83875e-12
3.31213e-12
6.38285e-12
2.90127e-13
4.81118e-13
1.63641e-12
4.16013e-12
2.34355e-13
2.08921e-13
2.51043e-13
9.69614e-13
2.27411e-13
1.84027e-13
1.57579e-13
1.28121e-13
2.13215e-13
1.7447e-13
1.51353e-13
1.26522e-13
1.84057e-13
1.51399e-13
1.35012e-13
1.25501e-13
1.47874e-13
1.21512e-13
1.05238e-13
9.30966e-14
1.07035e-13
8.94199e-14
7.67935e-14
6.67659e-14
6.82702e-14
5.68918e-14
4.95565e-14
4.31007e-14
3.78101e-14
3.13867e-14
2.62817e-14
2.39356e-14
1.76238e-14
1.47435e-14
1.25439e-14
1.1196e-14
7.0267e-15
5.90464e-15
4.91246e-15
4.22985e-15
2.31263e-15
1.81732e-15
1.63267e-15
1.41118e-15
6.86243e-16
5.56669e-16
4.64339e-16
3.9255e-16
1.67435e-16
1.30892e-16
1.13057e-16
9.64342e-17
3.68268e-17
3.02354e-17
2.5104e-17
2.04682e-17
7.10082e-18
5.38419e-18
4.64495e-18
3.6504e-18
1.20861e-18
9.13357e-19
7.09124e-19
5.31549e-19
1.64175e-19
1.23914e-19
9.49159e-20
6.65649e-20
2.0241e-20
1.42223e-20
9.96169e-21
6.60225e-21
1.96697e-21
1.32381e-21
8.86358e-22
5.19078e-22
1.60776e-22
1.00648e-22
6.49535e-23
1.85863e-23
9.26639e-24
2.79664e-24
1.03098e-24
1.50016e-25
1.03691e-25
2.20632e-26
6.87544e-27
4.70188e-27
1.96078e-28
5.20266e-28
1.48705e-27
4.69983e-27
1.95731e-28
5.05045e-28
1.75064e-27
5.61143e-27
1.21504e-28
4.16996e-28
1.4043e-27
4.21268e-27
0.0113722
0.0235877
0.013659
0.00269444
0.0244352
0.0553542
0.0276554
0.000635121
5.97467e-05
8.77894e-05
0.000128242
0.000129786
6.28451e-05
2.22973e-05
5.88422e-06
3.31477e-05
0.000291924
0.00068325
2.5268e-09
0.00201219
0.011603
0.00439466
0.00256053
0.0215261
0.0164533
0.00210835
0.00013445
5.75354e-05
2.3196e-05
3.63514e-05
6.63192e-05
6.6812e-05
3.49847e-05
9.48993e-06
5.15391e-05
0.000684328
0.0052258
0.00335838
0.00065144
0.00028955
0.000274773
0.00265269
0.00385206
0.000322111
0.000125014
0.000174573
0.000140485
2.96407e-05
1.60662e-06
5.1517e-06
5.59067e-06
1.82326e-06
1.91868e-05
6.69345e-05
0.000493108
0.00665406
0.00661453
0.000700312
9.23013e-05
8.23483e-05
0.000353142
7.12707e-07
8.43621e-07
4.78276e-05
0.00014684
9.02503e-05
5.97941e-06
1.67956e-06
1.02015e-06
2.37662e-07
9.08491e-08
4.26552e-05
7.16829e-05
4.21348e-05
0.00223137
0.00561603
0.000167099
1.79813e-05
2.06072e-06
1.19056e-06
1.06789e-06
1.18662e-06
4.10649e-06
4.70862e-06
1.60224e-06
2.30436e-06
2.36333e-06
6.29734e-07
4.18948e-08
4.0616e-08
9.31298e-06
1.59784e-05
2.19774e-05
5.70737e-05
1.66746e-05
5.94029e-09
1.62436e-07
1.14625e-07
1.14903e-06
1.56554e-06
7.85465e-07
6.89206e-09
1.03896e-10
4.90063e-11
3.18185e-08
7.86352e-08
4.90056e-08
4.15309e-08
4.14171e-08
4.05437e-08
3.67225e-08
4.11972e-08
7.90545e-06
1.65654e-05
5.09218e-09
6.21612e-08
1.1444e-07
2.55843e-07
3.6634e-07
2.03086e-07
8.0656e-08
2.33125e-08
5.32709e-09
1.83659e-09
1.1128e-08
1.68582e-07
3.32487e-06
7.82036e-06
1.10495e-06
2.52443e-05
0.000265238
4.89895e-05
1.64437e-05
2.67161e-08
1.31814e-07
1.41783e-07
1.42411e-07
7.87001e-08
1.41547e-08
1.33153e-08
5.66225e-08
4.6339e-08
4.41229e-10
9.62085e-11
4.41423e-10
1.80816e-07
1.06317e-07
0.00122147
0.00256762
0.0027123
0.00248711
0.000961477
1.0723e-08
1.36397e-08
2.54004e-08
2.99606e-08
4.26278e-08
1.53887e-07
5.37022e-07
4.51458e-07
6.43672e-08
1.65106e-05
1.30556e-05
8.09442e-07
4.64074e-08
0.000235107
0.00158349
0.00257219
0.00272962
0.00272097
0.00175255
7.79103e-09
1.10277e-08
1.93594e-08
4.46552e-08
1.04266e-07
6.65279e-07
2.04154e-06
5.08081e-06
1.35278e-05
1.95446e-05
9.03076e-05
9.52631e-05
8.3917e-05
0.000173137
0.000247835
0.000350128
0.000871627
0.000830271
0.000689294
1.24669e-08
1.92903e-08
2.04174e-08
1.3378e-08
2.29833e-12
3.35185e-07
9.67635e-07
6.10724e-06
7.66573e-06
7.76053e-06
5.89512e-06
1.50035e-05
1.2207e-05
6.12962e-07
2.37339e-09
5.07273e-07
1.38223e-06
1.68245e-06
2.58457e-07
1.68857e-12
3.94671e-10
2.15382e-09
3.31765e-12
7.94648e-12
-4.74941e-20
4.74941e-20
4.36338e-24
-3.75911e-21
1.14314e-07
6.47337e-08
7.10637e-07
5.09127e-08
2.35411e-09
1.89967e-09
3.77081e-10
7.16779e-10
8.33592e-10
7.16769e-10
1.81558e-12
1.73652e-12
2.78516e-12
6.11419e-11
2.59755e-10
6.02298e-10
2.0069e-09
8.76721e-09
2.47543e-08
5.71458e-08
7.1659e-08
6.23506e-08
6.90586e-09
2.39928e-09
5.75026e-09
1.31972e-08
1.13233e-08
5.20125e-09
1.01781e-09
4.52013e-12
1.10411e-11
8.66874e-11
2.74414e-10
6.59338e-10
1.44523e-09
4.08799e-09
9.38319e-09
1.73446e-08
2.54627e-08
2.70967e-08
1.39812e-08
4.3413e-09
2.58673e-09
5.08331e-09
1.12244e-08
1.17574e-08
4.28612e-09
1.28209e-09
9.94954e-12
2.82921e-11
1.02552e-10
2.94253e-10
6.73078e-10
1.24072e-09
2.09781e-09
3.36762e-09
3.60601e-09
2.70473e-09
2.53615e-09
1.61973e-09
1.41756e-09
1.50966e-09
2.50073e-09
4.73598e-09
5.07408e-09
1.61914e-09
7.61095e-10
1.22133e-11
3.31246e-11
7.49354e-11
1.54897e-10
2.8509e-10
4.86074e-10
7.5473e-10
2.06901e-09
3.59087e-09
3.90096e-09
3.47064e-09
1.60047e-09
1.1017e-09
9.11743e-10
8.56546e-10
1.27533e-09
1.285e-09
3.53525e-10
2.15334e-10
1.09076e-11
2.69245e-11
6.02095e-11
1.23233e-10
2.29106e-10
3.65285e-10
4.83369e-10
7.61617e-10
1.45563e-09
2.29451e-09
2.52293e-09
1.89459e-09
9.79941e-10
6.58038e-10
3.64856e-10
2.70739e-10
2.13686e-10
5.46453e-11
3.17759e-11
6.67134e-12
1.95336e-11
4.13812e-11
7.99805e-11
1.43821e-10
2.42407e-10
3.72058e-10
5.1913e-10
6.69201e-10
7.55579e-10
8.64175e-10
8.75104e-10
5.86609e-10
3.74789e-10
1.72854e-10
6.70198e-11
2.85991e-11
7.54274e-12
2.6832e-12
2.02977e-12
1.05573e-11
2.37082e-11
3.9846e-11
6.02787e-11
1.25399e-10
2.25154e-10
3.00572e-10
3.40645e-10
3.61307e-10
3.18233e-10
2.84804e-10
2.13729e-10
1.38784e-10
5.00234e-11
1.4583e-11
3.80536e-12
9.65745e-13
2.8335e-13
4.06368e-13
2.88597e-12
1.06305e-11
2.21126e-11
3.87347e-11
6.09232e-11
8.81187e-11
1.1955e-10
1.41269e-10
1.55214e-10
1.46909e-10
1.21814e-10
8.41534e-11
5.09701e-11
1.27626e-11
2.5802e-12
5.46634e-13
1.13295e-13
2.98275e-14
1.41072e-13
5.72437e-13
2.60427e-12
7.26984e-12
1.36662e-11
2.18112e-11
3.13212e-11
4.05667e-11
4.87513e-11
5.37268e-11
5.40852e-11
4.81659e-11
3.4612e-11
1.61776e-11
4.0054e-12
5.35098e-13
7.76266e-14
1.70763e-14
2.82697e-15
8.65877e-14
1.59249e-13
5.10503e-13
1.45036e-12
3.22835e-12
5.73711e-12
8.41114e-12
1.1096e-11
1.31389e-11
1.451e-11
1.50934e-11
1.33753e-11
8.9965e-12
3.73893e-12
7.84093e-13
9.2039e-14
1.30761e-14
2.60064e-15
2.48805e-16
5.68898e-14
6.40291e-14
1.15771e-13
2.54099e-13
5.62358e-13
1.11941e-12
1.85167e-12
2.48027e-12
2.89794e-12
3.17518e-12
3.38403e-12
3.1675e-12
2.12357e-12
8.12641e-13
1.39176e-13
2.24505e-14
2.02503e-15
3.1394e-16
4.8803e-17
3.42114e-14
3.08457e-14
3.53098e-14
5.03483e-14
8.16052e-14
1.42572e-13
2.49698e-13
3.85507e-13
4.65941e-13
5.28726e-13
5.74201e-13
5.59726e-13
3.97269e-13
1.54734e-13
2.52763e-14
1.55695e-15
2.57291e-16
7.75018e-17
2.48928e-17
1.80765e-14
1.47147e-14
1.31801e-14
1.25779e-14
1.37387e-14
1.80191e-14
2.97297e-14
4.69663e-14
5.91587e-14
6.7559e-14
7.7988e-14
8.06234e-14
6.21465e-14
2.62115e-14
4.76784e-15
2.60339e-16
5.32125e-17
3.94332e-17
2.00898e-17
8.11065e-15
6.2175e-15
4.7967e-15
3.86526e-15
3.23022e-15
2.96384e-15
3.2353e-15
4.23815e-15
5.10862e-15
6.51458e-15
7.93474e-15
8.7335e-15
7.53009e-15
3.56039e-15
6.17641e-16
3.33224e-17
1.98523e-17
2.70069e-17
1.3208e-17
3.07887e-15
2.26215e-15
1.66135e-15
1.20132e-15
8.65024e-16
6.21086e-16
4.64181e-16
3.73987e-16
4.10417e-16
5.24845e-16
7.08308e-16
8.39934e-16
8.13191e-16
4.44121e-16
6.2216e-17
7.83627e-18
1.07846e-17
1.62878e-17
1.02352e-17
9.81754e-16
6.72782e-16
4.80887e-16
3.32412e-16
2.28941e-16
1.61349e-16
8.41349e-17
4.29496e-17
3.67379e-17
4.31944e-17
5.71556e-17
7.27406e-17
5.1963e-17
1.40363e-17
4.88888e-18
3.54862e-18
5.84306e-18
1.157e-17
6.50334e-18
2.62851e-16
1.75304e-16
1.13607e-16
7.29188e-17
5.0254e-17
2.81271e-17
1.26515e-17
7.26032e-18
4.8512e-18
3.90279e-18
4.54097e-18
2.45164e-18
1.26643e-18
6.44507e-19
8.39562e-19
1.55667e-18
3.24707e-18
7.26816e-18
4.80399e-18
6.20198e-17
3.85655e-17
2.32083e-17
1.4672e-17
8.6817e-18
2.93554e-18
1.04553e-18
7.22749e-19
5.80857e-19
4.49489e-19
2.08272e-19
1.10841e-19
1.08967e-19
1.67857e-19
3.70337e-19
8.7506e-19
2.02133e-18
5.54972e-18
2.67042e-18
1.21616e-17
6.93217e-18
3.85556e-18
2.40716e-18
8.17083e-19
1.47992e-19
4.53611e-20
4.15889e-20
4.42671e-20
3.49427e-20
2.49367e-20
3.58232e-20
6.81183e-20
1.38197e-19
2.83699e-19
6.42961e-19
1.60852e-18
3.20666e-18
1.86231e-18
2.03593e-18
1.10258e-18
6.44181e-19
2.33287e-19
4.0997e-20
3.15983e-21
1.71334e-21
2.57004e-21
4.52263e-21
7.22328e-21
1.52854e-20
3.26721e-20
6.81097e-20
1.35079e-19
2.53689e-19
5.54668e-19
1.26835e-18
2.37529e-18
9.18891e-19
2.77397e-19
1.57612e-19
5.58981e-20
9.90586e-21
6.40432e-22
2.36665e-22
4.30812e-22
1.08102e-21
2.67072e-21
6.54971e-21
1.54058e-20
3.38655e-20
6.93696e-20
1.31932e-19
2.33639e-19
4.82446e-19
1.01427e-18
1.26455e-18
6.11388e-19
3.24576e-20
1.58712e-20
2.97724e-21
1.59826e-22
6.76096e-23
1.36758e-22
3.75556e-22
1.02286e-21
2.65551e-21
6.62005e-21
1.57074e-20
3.45008e-20
6.92007e-20
1.23913e-19
2.15847e-19
4.33495e-19
7.29413e-19
9.06467e-19
2.64847e-19
3.2746e-21
7.29824e-22
5.57281e-23
1.82843e-23
4.08941e-23
1.22169e-22
3.601e-22
9.9881e-22
2.60955e-21
6.41935e-21
1.50608e-20
3.27899e-20
6.39167e-20
1.15094e-19
2.04758e-19
3.56839e-19
5.44442e-19
4.36951e-19
1.65946e-19
1.91472e-22
1.33543e-23
3.96707e-24
1.09075e-23
3.60885e-23
1.16335e-22
3.42842e-22
9.42574e-22
2.48865e-21
6.1387e-21
1.4407e-20
3.09781e-20
5.99945e-20
1.06501e-19
1.76198e-19
2.71254e-19
3.59431e-19
2.95394e-19
6.21743e-20
1.57873e-24
6.80928e-25
2.43055e-24
9.60911e-24
3.26245e-23
1.04114e-22
3.05094e-22
8.41891e-22
2.18572e-21
5.37234e-21
1.24956e-20
2.66012e-20
5.08914e-20
8.96987e-20
1.41296e-19
2.00611e-19
2.28424e-19
1.27322e-19
3.60999e-20
8.69546e-26
4.81203e-25
2.14244e-24
8.22786e-24
2.77025e-23
8.55377e-23
2.50443e-22
6.78281e-22
1.74928e-21
4.28634e-21
9.85907e-21
2.09146e-20
3.97369e-20
6.78779e-20
1.03547e-19
1.32236e-19
1.19125e-19
7.26814e-20
1.43251e-20
7.41053e-26
4.09241e-25
1.73681e-24
6.27832e-24
2.05971e-23
6.24728e-23
1.78499e-22
4.80888e-22
1.23229e-21
3.01002e-21
6.91951e-21
1.44975e-20
2.73653e-20
4.66043e-20
6.42676e-20
7.96304e-20
6.28976e-20
2.59236e-20
8.39995e-21
6.44705e-26
3.0808e-25
1.17365e-24
3.90775e-24
1.22365e-23
3.55244e-23
1.00735e-22
2.77428e-22
7.19893e-22
1.78842e-21
4.1641e-21
8.8153e-21
1.68528e-20
2.80463e-20
3.60918e-20
4.15576e-20
2.52123e-20
1.24626e-20
4.19587e-21
4.28046e-26
1.72796e-25
5.90737e-25
1.82002e-24
5.51814e-24
1.63486e-23
4.69353e-23
1.30199e-22
3.4765e-22
8.96634e-22
2.1278e-21
4.58215e-21
8.69216e-21
1.45525e-20
1.80628e-20
1.80958e-20
8.87591e-21
4.875e-21
1.48758e-21
1.55601e-26
5.15848e-26
1.54785e-25
4.42919e-25
1.44151e-24
4.6336e-24
1.42175e-23
4.08638e-23
1.14522e-22
2.99803e-22
7.39143e-22
1.66634e-21
3.19239e-21
5.24197e-21
6.06699e-21
5.2146e-21
2.54912e-21
1.02514e-21
8.46683e-23
)
;

boundaryField
{
    leftWall
    {
        type            alphaContactAngle;
        contactAngleProperties 
        {
            air             
            {
                theta0          90;
            }
            water           
            {
                theta0          90;
            }
            oil             
            {
                theta0          90;
            }
        }
        value           nonuniform List<scalar> 
50
(
1
1
1
1
0.987938
0.375656
2.81952e-22
1.54487e-10
2.94879e-10
3.42485e-10
3.85492e-10
4.20843e-10
4.59166e-10
4.69752e-10
4.67768e-10
4.63557e-10
4.52154e-10
3.61479e-10
2.70273e-10
2.3653e-10
2.16793e-10
2.09289e-10
1.98238e-10
1.80303e-10
1.55034e-10
1.28831e-10
1.04561e-10
8.22553e-11
6.49837e-11
4.77233e-11
3.28998e-11
2.20897e-11
1.48243e-11
9.53998e-12
6.15661e-12
3.85535e-12
2.3635e-12
1.40186e-12
7.86954e-13
3.96787e-13
1.86592e-13
7.67676e-14
2.64107e-14
7.5588e-15
1.89334e-15
3.09881e-16
3.79028e-17
1.94471e-18
8.62596e-21
4.87141e-28
)
;
    }
    rightWall
    {
        type            alphaContactAngle;
        contactAngleProperties 
        {
            air             
            {
                theta0          90;
            }
            water           
            {
                theta0          90;
            }
            oil             
            {
                theta0          90;
            }
        }
        value           nonuniform List<scalar> 
50
(
0.752283
0.751962
0.561774
0.310689
0.0143628
2.79162e-09
2.5188e-09
2.04479e-09
2.5268e-09
0.00335838
0.00661453
0.00561603
1.66746e-05
1.65654e-05
1.64437e-05
0.000961477
0.00175255
0.000689294
2.58457e-07
7.16769e-10
1.01781e-09
1.28209e-09
7.61095e-10
2.15334e-10
3.17759e-11
2.6832e-12
2.8335e-13
2.98275e-14
2.82697e-15
2.48805e-16
4.8803e-17
2.48928e-17
2.00898e-17
1.3208e-17
1.02352e-17
6.50334e-18
4.80399e-18
2.67042e-18
1.86231e-18
9.18891e-19
6.11388e-19
2.64847e-19
1.65946e-19
6.21743e-20
3.60999e-20
1.43251e-20
8.39995e-21
4.19587e-21
1.48758e-21
8.46683e-23
)
;
    }
    lowerWall
    {
        type            alphaContactAngle;
        contactAngleProperties 
        {
            air             
            {
                theta0          90;
            }
            water           
            {
                theta0          90;
            }
            oil             
            {
                theta0          90;
            }
        }
        value           nonuniform List<scalar> 
62
(
1
1
1
1
1
1
1
1
1
1
1
1
1
1
1
1
1
1
1
1
0.999666
0.999433
0.999433
0.999433
0.999702
1
1
1
1
0.999488
0.908819
0.0565296
0.00352011
2.73349e-06
2.48515e-06
0.861741
0.549022
0.178332
0.127847
0.0940216
0.0326518
0.015135
0.0222214
0.861741
0.877671
0.877671
0.877671
0.877594
0.870248
0.670846
0.637789
0.647813
0.655629
0.642893
0.619578
0.644455
0.747304
0.75244
0.752455
0.752383
0.752414
0.752283
)
;
    }
    atmosphere
    {
        type            inletOutlet;
        inletValue      uniform 0;
        value           nonuniform List<scalar> 
46
(
0
0
0
6.67685e-21
5.53993e-21
3.69077e-21
2.76541e-21
2.37024e-21
1.97426e-21
1.61118e-21
1.1632e-21
6.43701e-22
3.03495e-22
1.13588e-22
0
0
0
0
0
0
0
0
0
0
0
0
0
0
0
0
4.42919e-25
1.44151e-24
4.63361e-24
1.42175e-23
4.08638e-23
1.14522e-22
2.99803e-22
7.39143e-22
1.66634e-21
3.19239e-21
5.24197e-21
6.06699e-21
0
0
0
0
)
;
    }
    defaultFaces
    {
        type            empty;
    }
}


// ************************************************************************* //
