/*--------------------------------*- C++ -*----------------------------------*\
  =========                 |
  \\      /  F ield         | OpenFOAM: The Open Source CFD Toolbox
   \\    /   O peration     | Website:  https://openfoam.org
    \\  /    A nd           | Version:  13
     \\/     M anipulation  |
\*---------------------------------------------------------------------------*/
FoamFile
{
    format      ascii;
    class       volScalarField;
    location    "2.55";
    object      alpha.oil;
}
// * * * * * * * * * * * * * * * * * * * * * * * * * * * * * * * * * * * * * //

dimensions      [];

internalField   nonuniform List<scalar> 
2268
(
1.60322e-14
9.79473e-14
4.71191e-13
1.53301e-12
3.80229e-12
7.9981e-12
1.55338e-11
2.83297e-11
5.07204e-11
9.02102e-11
1.59921e-10
2.83437e-10
5.09634e-10
8.61101e-10
1.76088e-09
3.4969e-09
6.75276e-09
9.01095e-09
9.24659e-09
9.97629e-09
0.000333515
0.0005671
0.000567036
1.62969e-14
1.25693e-13
3.15477e-13
1.61045e-12
4.00234e-12
8.68311e-12
1.72461e-11
3.35579e-11
5.95231e-11
1.11328e-10
1.89186e-10
3.52896e-10
6.42288e-10
1.10453e-09
2.19613e-09
4.33243e-09
8.60692e-09
1.03263e-08
9.11406e-09
5.58675e-07
6.34491e-05
0.000185976
0.000297811
6.94554e-14
5.82953e-13
4.70334e-13
1.41362e-12
3.64928e-12
7.55921e-12
1.52715e-11
3.12351e-11
6.1148e-11
1.1702e-10
2.05469e-10
3.83185e-10
6.72481e-10
1.15199e-09
2.06502e-09
3.6956e-09
6.40498e-09
8.65598e-09
9.31899e-09
6.52018e-07
3.91473e-08
4.17616e-08
1.91677e-08
5.64686e-12
5.28128e-12
5.37182e-12
4.42132e-12
5.13827e-12
7.40768e-12
1.35796e-11
2.71248e-11
5.42865e-11
1.16289e-10
2.35064e-10
4.6019e-10
7.68114e-10
1.25162e-09
2.52746e-09
4.25671e-09
6.45766e-09
7.81768e-09
8.55947e-09
1.31822e-07
3.17752e-08
2.47292e-08
1.49119e-07
1.86585e-10
1.76849e-10
1.31033e-10
8.87538e-11
5.52029e-11
3.65156e-11
2.4669e-11
2.48783e-11
3.90409e-11
7.21985e-11
1.49505e-10
3.31149e-10
7.567e-10
1.58811e-09
2.829e-09
5.13087e-09
1.08311e-08
8.38205e-09
8.42133e-09
2.32735e-08
1.31809e-08
1.23257e-08
1.70694e-08
2.0887e-09
1.86692e-09
1.44876e-09
1.04695e-09
7.62942e-10
5.54584e-10
3.66621e-10
2.04728e-10
9.39632e-11
7.58718e-11
9.15964e-11
1.73536e-10
4.39707e-10
1.25659e-09
2.54616e-09
3.65677e-09
6.51156e-09
6.99073e-08
1.31874e-07
1.9651e-08
1.04375e-07
1.75912e-08
1.58265e-08
3.48491e-09
3.32503e-09
2.78536e-09
2.16319e-09
1.72735e-09
1.43745e-09
1.23742e-09
9.1374e-10
5.29128e-10
2.54959e-10
1.53398e-10
1.50365e-10
2.21512e-10
6.11928e-10
1.33953e-09
1.03949e-09
6.08585e-10
1.69011e-07
1.1532e-06
1.08357e-06
4.00142e-07
2.43203e-08
2.50005e-05
3.66098e-09
3.66055e-09
3.25754e-09
2.58336e-09
2.10138e-09
1.69724e-09
1.66154e-09
1.38179e-09
9.64486e-10
6.11996e-10
3.68253e-10
2.49994e-10
2.39796e-10
3.76805e-10
5.97367e-10
6.00538e-10
6.04331e-10
2.54018e-07
1.33396e-06
1.31513e-06
5.08698e-08
2.11124e-05
3.6167e-05
0.127178
0.110984
0.0920669
0.0409475
0.0336114
0.0462165
0.266531
0.305382
0.305352
0.2968
0.299942
0.297811
0.174098
0.0629784
0.0704089
0.108949
0.181026
0.231236
0.221904
0.392393
0.383962
0.326431
0.260177
0.102144
0.0415245
0.096488
0.154035
0.098071
0.0787036
0.133697
0.211528
0.167058
0.0636625
0.0643249
0.1187
0.225968
0.231607
0.222234
0.393549
0.310601
0.455532
0.511776
0.467576
0.0394351
0.00685227
0.00604836
5.76754e-15
1.47428e-09
0.0164633
0.102324
0.178075
0.0975956
0.0646416
0.146089
0.306669
0.395658
0.423462
0.0870802
0.0173962
0.0889781
0.203171
0.415599
0.514866
0.0635416
0.00367353
0.00423228
5.61499e-05
0.0566542
0.140618
0.176377
0.175079
0.214197
0.296414
0.469816
0.468494
0.469686
0.00744265
0.00486087
0.0062914
0.00541648
0.249733
0.742042
0.631699
0.370767
0.096397
3.66558e-19
0.0137781
0.169424
0.262948
0.32638
0.32636
0.314041
0.156976
0.0976693
0.399329
0.033342
0.0239002
0.00802974
0.0159427
0.380307
0.742046
0.742047
0.735351
0.217394
6.75023e-19
-4.8002e-14
0.0868836
0.326062
0.326284
0.310335
0.0470357
0.000209193
0.000226693
0.105527
0.03767
0.031112
0.0324167
0.0649089
0.576862
0.742049
0.742047
0.567415
0.0621482
2.53847e-13
-8.53949e-12
0.0278412
0.269675
0.320865
0.0624388
0.000189057
0.000172662
0.000505992
0.207639
0.0514483
0.0330044
0.0361921
0.0644547
0.538758
0.695829
0.581695
0.0675452
3.36518e-05
1.17541e-06
-1.07037e-09
0.010862
0.240545
0.245228
0.000223357
0.000172662
0.000172668
0.0320665
0.313753
2.88189e-09
2.91766e-09
2.74347e-09
2.40978e-09
2.1807e-09
1.87656e-09
2.2105e-09
1.88862e-09
1.42598e-09
1.0332e-09
6.51885e-10
3.90398e-10
3.30509e-10
4.32517e-10
5.68679e-10
1.05562e-09
2.76019e-09
2.65457e-08
2.81191e-07
1.57642e-07
5.39205e-08
4.17984e-06
2.4567e-05
4.84943e-10
4.46804e-10
4.75764e-10
5.33778e-10
5.74407e-10
4.86388e-09
4.85494e-09
2.51647e-09
1.89138e-09
1.84028e-09
1.29755e-09
4.49172e-10
3.09002e-10
3.72235e-10
6.07198e-10
1.24002e-09
2.22128e-09
3.93923e-09
1.73378e-08
6.67538e-09
4.14564e-09
9.71186e-08
-1.64553e-07
1.86538e-19
3.55924e-10
1.06713e-18
-3.04761e-17
-2.89814e-17
-3.19007e-12
-1.39396e-13
-4.30033e-14
-3.20045e-14
-2.94876e-14
-1.73359e-14
-2.79625e-15
-4.31663e-14
-2.43903e-13
-1.26557e-12
-1.55096e-27
1.57851e-27
9.64067e-19
2.40062e-17
2.27816e-17
0.000262984
0.00735466
0.046497
0.0924834
0.238672
0.293235
0.287195
0.251477
0.1208
0.0480862
0.0670808
0.101556
0.122099
0.145504
0.18613
0.197697
0.179623
0.177205
0.202275
0.250077
0.303982
0.332394
0.364518
0.472073
0.715601
0.781625
0.765034
0.946002
0.970837
0.963304
0.907419
0.698755
0.654496
0.706074
0.747217
0.76858
0.800875
0.860675
0.8891
0.894605
0.871739
0.845031
0.892271
0.971867
0.976274
0.97478
0.988284
0.948695
0.898689
0.962636
0.999553
0.999576
0.998586
0.956998
0.926804
0.979842
0.999993
0.990827
0.987272
0.999623
0.999849
0.999975
0.999958
0.997336
0.997188
1
1
1
0.999981
0.994776
0.990941
0.99908
0.999247
0.999264
0.99997
0.999999
1
1
1
1
1
1
1
1
1
1
1
1
1
1
1
0.999999
0.999999
0.999998
0.999998
0.986921
0.997956
0.996462
0.990581
0.983697
0.959399
0.955073
0.957344
0.94804
0.938385
0.930785
0.925415
0.921181
0.919241
0.919219
0.919014
0.918862
0.920983
0.925319
0.92993
0.933886
0.938308
0.943488
0.375325
0.5034
0.51587
0.454811
0.406721
0.380025
0.348097
0.299217
0.261867
0.240246
0.22566
0.210438
0.198045
0.191109
0.187956
0.185897
0.185409
0.189075
0.195892
0.202728
0.208891
0.215758
0.22789
4.40998e-07
1.58532e-07
0.0202829
0.0139572
0.000239399
3.20645e-07
2.90138e-07
4.2035e-07
5.88032e-07
5.60716e-07
4.44883e-07
2.57193e-07
1.12073e-07
-1.96321e-12
4.34142e-27
2.66806e-17
1.24932e-16
2.4957e-16
2.12198e-16
1.03542e-16
6.72512e-27
1.03151e-26
-1.55812e-09
7.42882e-07
1.59213e-07
1.405e-07
1.24359e-07
1.08412e-06
2.56107e-07
5.12221e-08
2.33515e-08
1.94086e-08
1.72859e-08
8.28861e-09
2.22465e-08
2.76216e-08
2.39063e-08
2.06924e-08
2.0473e-08
3.23736e-08
3.81665e-08
3.23868e-08
3.90024e-08
4.59871e-08
7.46081e-08
1.53476e-07
1.22667e-06
1.31483e-06
8.04535e-07
1.25481e-07
1.85879e-07
2.94826e-07
1.33773e-06
6.90847e-06
1.56538e-05
7.29048e-06
-1.97489e-24
1.51659e-07
4.22358e-08
4.45979e-08
7.3019e-08
1.44104e-07
2.2473e-07
1.87111e-07
1.6689e-07
1.31507e-07
1.20561e-07
1.53227e-07
1.95915e-07
1.34724e-06
3.91027e-06
2.22408e-05
3.65031e-05
2.5007e-06
3.27066e-07
2.27768e-06
0.000102786
0.00016302
9.77289e-05
-2.59185e-10
1.91022e-09
5.74049e-12
6.25658e-10
4.05403e-08
2.43918e-07
2.71704e-07
2.23437e-07
1.99013e-07
1.24292e-07
1.17555e-07
9.43182e-08
1.2164e-07
1.67397e-06
7.60749e-06
5.04841e-05
5.29056e-05
3.61012e-05
6.44025e-07
8.18237e-06
0.000144813
0.000163407
0.000162575
0.000101585
-1.93773e-12
3.3205e-12
5.71011e-12
5.3062e-08
2.73389e-07
2.72996e-07
2.65775e-07
2.42853e-07
1.34423e-07
1.10869e-07
7.14856e-08
7.59114e-08
1.303e-06
4.76293e-06
4.14991e-05
5.17412e-05
2.52716e-05
2.7503e-07
7.46935e-07
6.7232e-05
0.000164026
0.000162159
0.000126466
-4.8993e-10
1.64298e-09
7.00368e-09
7.01335e-09
7.41132e-08
2.66924e-07
2.65403e-07
2.51895e-07
1.38707e-07
1.16015e-07
6.09026e-08
5.17793e-08
1.09316e-06
2.68777e-06
8.04479e-06
1.62021e-05
1.93415e-06
2.4714e-07
2.02168e-07
1.38179e-06
4.10735e-05
9.06526e-05
3.00184e-05
-3.21697e-11
2.89951e-08
4.72401e-08
9.07601e-09
6.24517e-09
7.6001e-08
2.15629e-07
2.1667e-07
1.33293e-07
1.11282e-07
6.00479e-08
3.95102e-08
8.13337e-07
1.37111e-06
1.0069e-06
7.09065e-07
2.96277e-07
9.47429e-08
9.10572e-08
2.29341e-07
5.90676e-07
7.04624e-07
1.60773e-07
2.36489e-07
5.10996e-07
1.77465e-07
3.7879e-08
6.26246e-09
7.14268e-09
7.64373e-08
1.37584e-07
1.16199e-07
7.49015e-08
5.08325e-08
3.60905e-08
5.85681e-07
8.96831e-07
3.28677e-07
1.02385e-07
8.75074e-08
8.2459e-08
9.20015e-08
1.2193e-07
1.09963e-07
1.68188e-07
1.59694e-07
4.29868e-07
8.3644e-07
7.75726e-07
8.76974e-08
6.44898e-09
7.00831e-09
2.46514e-08
6.73416e-08
6.5493e-08
4.21642e-08
3.62451e-08
2.63866e-08
3.88946e-07
5.30897e-07
2.79834e-07
1.04003e-07
8.03467e-08
8.28071e-08
8.71025e-08
1.003e-07
5.57988e-08
3.89856e-08
5.67289e-08
5.15452e-07
8.37906e-07
6.86844e-07
1.46045e-07
1.88377e-08
7.86196e-09
1.18477e-08
2.73837e-08
2.95515e-08
2.38049e-08
2.00645e-08
1.53921e-08
2.10285e-07
3.27435e-07
2.01184e-07
9.88607e-08
7.53103e-08
6.97444e-08
6.71978e-08
6.38915e-08
3.97389e-08
3.09915e-08
4.48811e-08
2.53828e-07
5.70745e-07
3.12751e-07
8.01735e-08
2.68408e-08
1.08304e-08
9.3858e-09
1.22378e-08
1.4198e-08
1.22347e-08
1.01e-08
8.3729e-09
1.36712e-07
1.87654e-07
1.31187e-07
8.16142e-08
6.28652e-08
5.17749e-08
4.57859e-08
3.8541e-08
2.87017e-08
2.95488e-08
4.51341e-08
9.53389e-08
1.21559e-07
7.95072e-08
4.27739e-08
2.02589e-08
1.06511e-08
8.80714e-09
8.54287e-09
8.56017e-09
7.762e-09
6.19661e-09
5.10478e-09
8.12708e-08
1.19664e-07
9.50738e-08
6.79209e-08
5.13664e-08
3.78465e-08
3.08702e-08
2.47457e-08
2.0613e-08
2.24327e-08
3.062e-08
3.77448e-08
2.95223e-08
2.44808e-08
1.80284e-08
1.22731e-08
8.63489e-09
7.1793e-09
6.31203e-09
5.75063e-09
5.06122e-09
4.23346e-09
3.49159e-09
5.24046e-08
8.31455e-08
7.47155e-08
5.79166e-08
4.29647e-08
2.99404e-08
2.23603e-08
1.72373e-08
1.43697e-08
1.47486e-08
1.68318e-08
1.64263e-08
1.31717e-08
1.05422e-08
8.62471e-09
7.15598e-09
5.91209e-09
5.03433e-09
4.24792e-09
3.76998e-09
3.26406e-09
2.83706e-09
2.41358e-09
4.10468e-08
7.04876e-08
6.63085e-08
5.13408e-08
3.67785e-08
2.46115e-08
1.77582e-08
1.27986e-08
9.93418e-09
8.7963e-09
8.4128e-09
7.35303e-09
5.94105e-09
5.01608e-09
4.41661e-09
4.0098e-09
3.47447e-09
3.02214e-09
2.56073e-09
2.26663e-09
2.03017e-09
1.73964e-09
1.47493e-09
3.2933e-08
5.37889e-08
5.13723e-08
4.15563e-08
3.02461e-08
2.09198e-08
1.38925e-08
9.51166e-09
6.79581e-09
5.3347e-09
4.44867e-09
3.64432e-09
3.04592e-09
2.65911e-09
2.39358e-09
2.15116e-09
1.89264e-09
1.62345e-09
1.39254e-09
1.22875e-09
1.04634e-09
9.28343e-10
8.11076e-10
2.35024e-08
3.68377e-08
3.80556e-08
3.03047e-08
2.32253e-08
1.62758e-08
1.07458e-08
6.95318e-09
4.56053e-09
3.19426e-09
2.40361e-09
1.8908e-09
1.56921e-09
1.3639e-09
1.21115e-09
1.09221e-09
9.44967e-10
8.05723e-10
6.86434e-10
5.91769e-10
5.16779e-10
4.47446e-10
3.75427e-10
1.68258e-08
2.58325e-08
2.59351e-08
2.03708e-08
1.57711e-08
1.16012e-08
8.03902e-09
5.04387e-09
3.15317e-09
2.02583e-09
1.39458e-09
1.02169e-09
8.08952e-10
6.82835e-10
5.9132e-10
5.1486e-10
4.38722e-10
3.75536e-10
3.14008e-10
2.6977e-10
2.27993e-10
1.90225e-10
1.59392e-10
1.15672e-08
1.80389e-08
1.69035e-08
1.34368e-08
1.00583e-08
7.48119e-09
5.15041e-09
3.21213e-09
2.01617e-09
1.25172e-09
8.0112e-10
5.37156e-10
3.87962e-10
3.06287e-10
2.57098e-10
2.2233e-10
1.89852e-10
1.62828e-10
1.34607e-10
1.11665e-10
9.27311e-11
7.47068e-11
5.9833e-11
7.92237e-09
1.18573e-08
1.06969e-08
8.239e-09
5.90034e-09
4.17902e-09
2.9538e-09
1.89432e-09
1.14892e-09
6.95573e-10
4.22819e-10
2.66976e-10
1.77174e-10
1.3006e-10
1.02206e-10
8.56956e-11
7.32797e-11
6.14404e-11
5.05351e-11
4.1876e-11
3.35733e-11
2.53558e-11
2.02717e-11
5.27999e-09
7.22697e-09
6.24835e-09
4.55175e-09
3.08551e-09
2.14177e-09
1.47227e-09
9.54094e-10
5.90296e-10
3.50097e-10
2.06857e-10
1.21785e-10
7.64291e-11
5.08724e-11
3.76433e-11
2.99606e-11
2.46669e-11
2.08947e-11
1.70965e-11
1.37934e-11
1.09075e-11
8.13798e-12
6.15775e-12
3.31818e-09
4.10252e-09
3.29087e-09
2.25429e-09
1.44026e-09
9.68912e-10
6.47852e-10
4.21105e-10
2.54752e-10
1.52659e-10
8.78012e-11
5.0122e-11
2.92833e-11
1.8599e-11
1.26328e-11
9.48172e-12
7.58807e-12
6.26867e-12
5.13902e-12
4.10148e-12
3.02958e-12
2.21477e-12
1.6616e-12
1.85915e-09
2.14764e-09
1.57194e-09
1.01079e-09
6.10248e-10
3.77234e-10
2.43781e-10
1.55879e-10
9.74004e-11
5.6141e-11
3.22024e-11
1.83201e-11
1.02776e-11
6.01706e-12
3.87508e-12
2.76969e-12
2.13229e-12
1.73993e-12
1.36628e-12
1.06332e-12
8.03872e-13
5.50332e-13
3.88031e-13
9.71448e-10
9.46767e-10
6.54592e-10
3.98436e-10
2.24225e-10
1.31004e-10
8.0885e-11
5.12645e-11
3.17641e-11
1.85354e-11
1.03462e-11
5.78903e-12
3.15148e-12
1.7737e-12
1.07009e-12
7.21894e-13
5.3248e-13
4.22413e-13
3.27885e-13
2.46477e-13
1.71105e-13
1.19285e-13
7.91259e-14
4.42214e-10
3.69142e-10
2.33309e-10
1.33687e-10
7.11773e-11
3.96218e-11
2.41692e-11
1.53192e-11
9.22382e-12
5.40764e-12
3.00603e-12
1.62384e-12
8.43171e-13
4.50084e-13
2.57885e-13
1.70046e-13
1.20447e-13
9.03961e-14
6.79971e-14
4.91247e-14
3.3734e-14
2.17795e-14
1.36528e-14
1.67725e-10
1.29702e-10
7.56078e-11
4.10379e-11
2.12093e-11
1.10181e-11
6.52417e-12
3.94229e-12
2.41323e-12
1.37649e-12
7.4095e-13
3.88618e-13
1.93689e-13
1.00726e-13
5.64116e-14
3.50599e-14
2.47001e-14
1.79267e-14
1.29323e-14
8.79609e-15
5.75978e-15
3.55675e-15
2.07375e-15
5.30094e-11
3.83987e-11
2.12524e-11
1.11222e-11
5.39964e-12
2.69874e-12
1.54047e-12
9.13181e-13
5.37767e-13
3.04893e-13
1.59861e-13
8.1781e-14
3.95604e-14
2.0516e-14
1.14336e-14
7.0631e-15
4.75566e-15
3.2743e-15
2.26194e-15
1.4395e-15
8.76769e-16
4.98092e-16
2.68574e-16
1.44533e-11
9.31431e-12
4.73376e-12
2.32776e-12
1.17043e-12
6.06231e-13
3.24861e-13
1.86767e-13
1.09067e-13
6.13202e-14
3.17968e-14
1.60319e-14
7.93529e-15
3.98733e-15
2.15224e-15
1.30066e-15
8.49804e-16
5.63003e-16
3.59656e-16
2.13108e-16
1.1818e-16
6.06556e-17
3.35566e-17
2.60421e-12
1.52305e-12
7.9343e-13
4.33942e-13
2.26885e-13
1.12996e-13
6.04068e-14
3.56371e-14
2.14266e-14
1.21212e-14
6.25096e-15
3.02878e-15
1.42617e-15
6.90116e-16
3.68357e-16
2.18268e-16
1.39609e-16
8.82076e-17
5.23514e-17
2.83864e-17
1.40909e-17
7.06008e-18
6.21767e-18
3.44951e-13
1.89695e-13
1.12756e-13
6.67543e-14
3.5866e-14
1.91207e-14
1.05926e-14
6.22651e-15
3.77322e-15
2.12787e-15
1.07888e-15
5.15625e-16
2.41832e-16
1.15499e-16
5.9741e-17
3.48952e-17
2.17589e-17
1.29358e-17
6.94939e-18
3.39705e-18
1.61379e-18
1.08012e-18
2.85155e-18
1.91593e-14
1.2993e-14
1.15972e-14
8.57454e-15
5.29542e-15
2.97435e-15
1.72659e-15
1.06439e-15
6.64089e-16
3.77688e-16
1.88318e-16
8.78215e-17
3.94697e-17
1.81888e-17
9.29753e-18
5.43798e-18
3.30057e-18
1.77543e-18
8.41649e-19
3.7516e-19
2.15538e-19
3.9104e-19
2.14961e-18
9.56985e-17
2.82979e-16
7.32454e-16
8.72708e-16
6.27149e-16
3.96964e-16
2.44344e-16
1.5713e-16
1.01109e-16
5.84613e-17
3.08693e-17
1.37602e-17
6.13465e-18
2.80104e-18
1.43418e-18
8.22567e-19
4.54914e-19
2.30381e-19
1.02276e-19
4.97673e-20
6.2009e-20
2.45247e-19
1.58704e-18
8.04656e-24
1.2512e-18
3.41465e-17
8.7425e-17
7.51091e-17
4.8032e-17
3.16715e-17
2.31443e-17
1.58605e-17
9.64373e-18
5.0479e-18
2.19282e-18
9.63036e-19
4.40525e-19
2.26498e-19
1.28582e-19
6.68026e-20
3.05946e-20
1.35193e-20
9.87058e-21
2.6252e-20
1.2298e-19
8.40004e-19
4.25686e-05
2.78031e-05
3.90513e-06
4.57306e-11
0.000365776
-1.14675e-07
-4.09784e-09
-1.60091e-15
0.122739
0.143512
0.118137
0.300906
0.79815
0.837604
0.865386
0.886327
0.932021
0.984498
0.999637
0.999479
0.999955
0.999977
0.999985
0.999977
0.999997
0.999997
0.999987
0.999984
0.954122
0.956242
0.958848
0.96094
0.253093
0.259336
0.265932
0.270072
7.30964e-09
0
5.6676e-09
3.17638e-24
1.88227e-07
1.89653e-07
1.91601e-07
1.77005e-07
2.5016e-07
2.55361e-07
2.5e-07
2.59473e-07
1.6065e-07
1.94578e-07
1.84845e-07
1.98464e-07
8.89014e-08
1.18685e-07
1.23113e-07
1.43088e-07
5.18635e-08
7.04205e-08
7.60377e-08
8.52175e-08
3.16565e-08
3.84728e-08
4.22596e-08
4.47602e-08
2.30191e-08
1.66179e-08
2.13127e-08
2.33149e-08
1.7519e-08
1.03397e-08
1.13775e-08
1.11636e-08
1.05974e-08
7.04962e-09
6.80824e-09
6.01596e-09
6.70387e-09
4.61728e-09
4.01841e-09
3.38585e-09
4.24099e-09
3.22777e-09
2.91733e-09
2.39694e-09
3.04592e-09
2.49542e-09
2.2218e-09
1.90782e-09
2.14656e-09
1.86545e-09
1.66832e-09
1.48468e-09
1.35906e-09
1.19248e-09
1.103e-09
1.00218e-09
7.45123e-10
6.58518e-10
5.8486e-10
5.67153e-10
3.50971e-10
3.10719e-10
2.84561e-10
2.70006e-10
1.46558e-10
1.32241e-10
1.16752e-10
1.07046e-10
5.38847e-11
4.48352e-11
4.26162e-11
3.89299e-11
1.84675e-11
1.59091e-11
1.39368e-11
1.23718e-11
5.36559e-12
4.42526e-12
3.98012e-12
3.54454e-12
1.40856e-12
1.21795e-12
1.04907e-12
8.89218e-13
3.20742e-13
2.56514e-13
2.29491e-13
1.87934e-13
6.48392e-14
5.20182e-14
4.20581e-14
3.29204e-14
1.05598e-14
8.45323e-15
6.77664e-15
5.02606e-15
1.57587e-15
1.19469e-15
9.00122e-16
6.70893e-16
1.97402e-16
1.52908e-16
1.24982e-16
1.12249e-16
2.70736e-17
2.5949e-17
3.12871e-17
4.94526e-17
7.49084e-18
1.0765e-17
2.02498e-17
4.82447e-17
4.5857e-18
8.67862e-18
2.23474e-17
6.65129e-17
3.85552e-18
9.25498e-18
3.00418e-17
9.76946e-17
3.25508e-18
1.02921e-17
3.68408e-17
1.19999e-16
2.49725e-18
8.79056e-18
3.00068e-17
9.15099e-17
0.0511656
0.13327
0.041443
0.0392103
0.302354
0.561623
0.132191
-2.18496e-19
-1.68202e-21
4.43751e-21
1.62176e-06
0.000446375
0.0168166
0.0114042
0.000279042
0.000172856
0.000172597
0.0589151
0.315065
0.131976
0.202096
0.044779
0.0387448
0.415115
0.465939
0.0687668
0.021106
0.0489573
0.0237608
0.00113131
0.0014563
0.00140209
0.00322555
0.0179808
0.0726439
0.160262
0.241342
0.225106
0.647636
0.615414
0.51087
0.532395
0.773242
0.64805
0.368846
0.477367
0.748574
0.75486
0.691048
0.600556
0.494145
0.499543
0.58037
0.703994
0.788842
0.837137
0.839439
0.91083
0.939749
0.983766
0.994741
0.974985
0.829674
0.803586
0.913335
0.999085
0.99999
0.999989
0.999782
0.99892
0.999529
0.999764
0.999717
0.999791
0.987894
0.976796
0.999808
0.999968
0.999969
0.998962
0.996537
0.981295
0.982617
0.996728
0.999989
0.999995
0.999995
0.999999
1
0.999999
0.999866
0.999773
0.999804
0.999907
0.999815
0.999972
0.999982
0.999917
0.999695
0.999998
0.999999
1
1
1
1
0.999999
1
1
1
0.999991
0.999957
0.999961
0.999976
0.999975
0.999993
0.999993
0.999994
0.999999
1
1
1
1
1
1
1
0.999998
0.99997
0.999963
0.999991
0.999916
0.999534
0.999941
0.999866
0.961511
0.968557
0.973833
0.977375
0.978711
0.977391
0.971394
0.956987
0.933328
0.905323
0.881399
0.873782
0.867821
0.849213
0.810942
0.831652
0.886547
0.958732
0.992449
0.266919
0.28122
0.291173
0.29336
0.287159
0.266862
0.232674
0.193071
0.156464
0.125495
0.101161
0.080383
0.0926374
0.107202
0.0982077
0.115868
0.172849
0.306614
0.470678
1.01359e-15
1.26156e-15
-6.06945e-25
7.84505e-22
-1.61771e-22
2.13147e-21
8.17154e-22
-1.01144e-18
-4.18481e-22
4.10559e-20
1.78824e-19
9.76242e-11
2.05527e-05
-1.13771e-18
2.33264e-19
-1.64341e-10
-7.10365e-12
-2.81823e-14
0.000758538
1.47571e-07
1.5887e-07
1.10878e-06
0.00012074
0.000435171
0.000582398
0.000471293
0.000117018
8.95678e-12
3.68573e-07
0.000245685
0.00077548
0.000794876
0.00020546
3.88647e-06
1.98892e-07
2.39535e-09
1.94659e-10
1.26108e-11
2.81216e-07
4.98493e-07
1.26642e-06
0.000367721
0.000976894
0.000977135
0.00095577
7.41867e-05
6.9258e-07
0.000102691
0.000823752
0.000859055
0.000315403
0.000111663
1.07733e-06
3.59468e-07
2.89639e-07
1.86832e-07
7.00663e-08
2.15842e-07
3.49155e-07
9.87536e-07
1.63777e-05
0.000271843
0.000449901
3.90681e-05
3.36817e-07
3.93304e-07
2.60681e-06
1.94059e-05
6.43753e-05
2.03227e-07
7.07525e-07
3.83112e-07
4.32608e-07
4.17338e-07
3.58897e-07
2.6801e-07
1.65378e-07
1.94199e-07
1.92574e-07
1.3006e-07
1.23804e-07
1.27898e-07
1.58668e-07
3.01546e-06
2.71986e-06
2.20081e-07
2.09111e-07
2.02812e-07
2.00347e-07
2.05813e-07
3.14874e-07
3.73569e-07
3.89015e-07
4.30056e-07
4.18581e-07
9.42958e-08
1.09754e-07
1.10211e-07
1.22061e-07
1.4587e-07
1.66701e-07
1.68215e-07
1.80575e-07
2.76909e-07
3.6117e-07
3.73123e-07
3.07628e-07
2.6115e-07
2.07058e-07
2.12413e-07
2.38146e-07
2.65212e-07
3.15718e-07
3.38297e-07
4.79983e-08
6.94513e-08
9.1733e-08
1.4113e-07
2.17625e-07
2.79073e-07
2.68886e-07
1.96628e-07
1.72642e-07
2.12476e-07
2.90771e-07
3.19199e-07
2.63596e-07
1.74775e-07
1.14794e-07
1.13263e-07
1.24757e-07
1.45681e-07
1.42136e-07
2.6335e-08
3.25064e-08
4.38252e-08
6.84848e-08
1.25677e-07
2.01681e-07
2.47926e-07
2.11063e-07
1.41258e-07
9.7741e-08
1.16862e-07
1.70273e-07
1.64975e-07
1.03524e-07
5.76731e-08
4.63753e-08
4.7135e-08
4.55767e-08
3.62074e-08
1.24133e-08
1.58637e-08
1.87691e-08
2.22159e-08
3.02644e-08
4.57635e-08
6.39737e-08
7.85461e-08
5.81884e-08
3.93711e-08
3.62417e-08
4.32315e-08
5.13647e-08
4.11023e-08
2.80597e-08
2.32282e-08
2.10246e-08
1.78706e-08
1.53773e-08
5.61181e-09
6.48597e-09
9.26483e-09
1.11178e-08
1.21562e-08
1.15172e-08
9.69353e-09
1.00375e-08
1.28373e-08
1.65213e-08
1.80879e-08
1.63176e-08
1.49855e-08
1.52534e-08
1.43691e-08
1.44581e-08
1.4275e-08
1.45086e-08
1.57412e-08
2.9646e-09
2.79197e-09
3.86536e-09
5.16554e-09
6.52146e-09
7.7623e-09
8.28363e-09
8.69048e-09
9.29956e-09
1.03089e-08
1.07936e-08
1.01025e-08
8.86066e-09
8.83108e-09
9.56129e-09
1.14409e-08
1.32555e-08
1.74396e-08
1.8465e-08
1.94574e-09
1.67803e-09
1.64614e-09
2.11039e-09
2.70336e-09
3.27313e-09
3.90259e-09
4.43683e-09
4.96851e-09
5.22748e-09
5.28624e-09
5.24191e-09
5.22403e-09
5.6486e-09
6.95505e-09
9.70184e-09
1.42876e-08
2.1077e-08
3.04304e-08
1.51972e-09
1.24172e-09
1.08544e-09
1.03392e-09
1.05853e-09
1.2702e-09
1.51236e-09
1.79277e-09
2.01989e-09
2.17801e-09
2.29365e-09
2.45833e-09
2.86707e-09
3.70094e-09
5.32492e-09
8.70321e-09
1.70826e-08
3.71351e-08
3.50716e-08
1.19069e-09
9.55691e-10
7.81279e-10
6.50387e-10
5.7985e-10
5.60474e-10
6.08147e-10
7.11537e-10
8.31559e-10
9.74097e-10
1.17107e-09
1.46221e-09
1.94234e-09
2.76275e-09
4.36879e-09
8.19169e-09
1.99686e-08
4.64649e-08
7.14723e-08
8.16059e-10
6.52886e-10
5.38032e-10
4.26447e-10
3.42181e-10
2.88961e-10
2.6609e-10
2.86604e-10
3.52706e-10
4.71217e-10
6.51996e-10
9.3151e-10
1.41692e-09
2.26228e-09
3.90422e-09
8.57111e-09
2.26092e-08
7.68553e-08
8.19403e-08
4.6453e-10
3.82755e-10
3.15969e-10
2.45666e-10
1.93151e-10
1.5239e-10
1.37598e-10
1.44847e-10
1.85578e-10
2.72085e-10
4.28881e-10
6.91199e-10
1.15654e-09
1.97476e-09
3.5045e-09
8.46787e-09
2.60855e-08
7.86822e-08
8.30288e-08
2.18262e-10
1.81827e-10
1.46464e-10
1.1718e-10
9.10656e-11
7.29435e-11
6.85177e-11
8.02649e-11
1.14406e-10
1.87428e-10
3.23415e-10
5.75589e-10
1.02421e-09
1.82855e-09
3.44611e-09
8.43355e-09
2.89827e-08
9.01766e-08
7.95393e-08
8.74474e-11
7.14261e-11
5.71478e-11
4.45182e-11
3.52272e-11
3.06004e-11
3.34053e-11
4.7144e-11
7.89956e-11
1.45128e-10
2.73676e-10
5.18916e-10
9.64278e-10
1.75238e-09
3.3763e-09
8.66355e-09
3.35079e-08
9.06998e-08
5.78927e-08
3.03072e-11
2.32734e-11
1.83928e-11
1.42172e-11
1.18731e-11
1.23311e-11
1.74854e-11
3.05089e-11
6.16869e-11
1.23298e-10
2.48533e-10
4.95815e-10
9.51075e-10
1.76257e-09
3.34313e-09
9.31364e-09
3.74142e-08
9.59461e-08
4.34299e-08
9.16721e-12
6.8164e-12
4.99464e-12
3.90354e-12
3.88523e-12
5.75526e-12
1.11331e-11
2.34899e-11
5.22607e-11
1.12631e-10
2.38541e-10
4.97836e-10
9.84055e-10
1.83583e-09
3.43804e-09
9.64901e-09
4.30269e-08
9.58346e-08
4.19047e-08
2.49737e-12
1.73324e-12
1.24641e-12
1.14385e-12
1.6911e-12
3.63881e-12
8.49005e-12
2.03319e-11
4.67451e-11
1.08124e-10
2.40301e-10
5.1822e-10
1.05161e-09
1.95932e-09
3.62493e-09
1.03261e-08
4.49697e-08
9.57991e-08
2.2766e-08
5.75196e-13
3.73262e-13
2.97748e-13
4.45353e-13
1.07016e-12
2.82589e-12
7.35696e-12
1.83932e-11
4.49995e-11
1.08343e-10
2.51473e-10
5.51547e-10
1.13847e-09
2.16467e-09
3.91242e-09
1.04468e-08
4.42153e-08
6.29262e-08
1.87828e-08
1.14905e-13
7.78579e-14
1.00723e-13
2.73986e-13
8.52754e-13
2.44892e-12
6.73363e-12
1.76065e-11
4.42741e-11
1.12582e-10
2.68447e-10
6.00832e-10
1.25908e-09
2.41039e-09
4.27258e-09
1.17563e-08
3.35765e-08
4.7037e-08
6.6118e-09
1.95244e-14
1.96112e-14
5.81868e-14
2.22565e-13
7.42829e-13
2.23268e-12
6.38829e-12
1.75083e-11
4.62399e-11
1.18405e-10
2.905e-10
6.58401e-10
1.37373e-09
2.63704e-09
4.56105e-09
1.17547e-08
2.6736e-08
6.47489e-09
5.52131e-09
3.73233e-15
1.08192e-14
5.05305e-14
2.05637e-13
6.92812e-13
2.1743e-12
6.47169e-12
1.81212e-11
4.85469e-11
1.25641e-10
3.1088e-10
7.04031e-10
1.47745e-09
2.751e-09
4.74533e-09
1.12421e-08
1.40272e-08
1.12164e-08
2.11747e-09
1.51998e-15
9.96774e-15
4.93078e-14
1.96866e-13
6.83939e-13
2.18258e-12
6.58791e-12
1.88226e-11
5.10828e-11
1.32232e-10
3.25054e-10
7.33605e-10
1.50872e-09
2.78455e-09
4.77816e-09
9.05719e-09
1.00119e-08
3.78427e-09
1.77292e-09
1.32524e-15
9.83683e-15
4.74912e-14
1.94109e-13
6.73282e-13
2.21647e-12
6.67675e-12
1.88515e-11
5.15333e-11
1.32967e-10
3.25587e-10
7.22419e-10
1.47209e-09
2.66281e-09
4.24248e-09
6.88354e-09
5.27003e-09
3.31488e-09
6.90187e-10
1.39387e-15
9.76597e-15
4.61663e-14
1.87956e-13
6.51684e-13
2.12559e-12
6.38175e-12
1.80938e-11
4.8652e-11
1.24793e-10
3.02175e-10
6.61771e-10
1.32242e-09
2.36066e-09
3.51159e-09
4.95387e-09
3.67277e-09
1.14099e-09
4.68983e-10
1.46802e-15
9.60908e-15
4.36379e-14
1.71526e-13
5.91792e-13
1.87474e-12
5.63843e-12
1.57308e-11
4.19759e-11
1.07158e-10
2.56051e-10
5.57264e-10
1.09708e-09
1.87539e-09
2.69823e-09
2.99567e-09
1.83312e-09
7.64046e-10
2.01078e-10
1.54006e-15
8.60758e-15
3.74285e-14
1.39206e-13
4.70097e-13
1.46655e-12
4.31553e-12
1.20073e-11
3.18585e-11
8.09705e-11
1.93238e-10
4.14906e-10
8.01616e-10
1.35944e-09
1.74996e-09
1.85173e-09
1.05005e-09
2.79858e-10
1.27228e-10
1.38364e-15
6.77593e-15
2.66532e-14
9.18428e-14
2.97453e-13
8.92243e-13
2.61217e-12
7.43636e-12
1.99986e-11
5.16222e-11
1.24716e-10
2.70433e-10
5.23418e-10
8.66581e-10
1.06065e-09
1.01961e-09
4.47308e-10
1.55311e-10
6.45399e-11
9.45274e-16
3.93674e-15
1.39584e-14
4.4696e-14
1.40613e-13
4.3197e-13
1.28272e-12
3.69302e-12
1.02395e-11
2.74281e-11
6.75574e-11
1.49279e-10
2.85109e-10
4.76723e-10
5.77165e-10
4.74395e-10
1.79158e-10
6.81905e-11
2.27152e-11
3.48114e-16
1.19498e-15
3.73185e-15
1.11475e-14
3.779e-14
1.26461e-13
4.02358e-13
1.2021e-12
3.50459e-12
9.56159e-12
2.44913e-11
5.67523e-11
1.09189e-10
1.79792e-10
2.06831e-10
1.46312e-10
5.59531e-11
1.52717e-11
1.18989e-12
)
;

boundaryField
{
    leftWall
    {
        type            alphaContactAngle;
        contactAngleProperties 
        {
            mercury         
            {
                theta0          90;
            }
            air             
            {
                theta0          90;
            }
            water           
            {
                theta0          90;
            }
        }
        value           nonuniform List<scalar> 
50
(
1.60322e-14
1.62969e-14
6.94554e-14
5.64686e-12
1.86585e-10
2.0887e-09
3.48491e-09
3.66098e-09
2.88189e-09
4.84943e-10
1.86538e-19
0.0924834
0.765034
0.962636
0.999247
0.986921
0.375325
4.40998e-07
7.42882e-07
1.22667e-06
1.34724e-06
1.67397e-06
1.303e-06
1.09316e-06
8.13337e-07
5.85681e-07
3.88946e-07
2.10285e-07
1.36712e-07
8.12708e-08
5.24046e-08
4.10468e-08
3.2933e-08
2.35024e-08
1.68258e-08
1.15672e-08
7.92237e-09
5.27999e-09
3.31818e-09
1.85915e-09
9.71448e-10
4.42214e-10
1.67725e-10
5.30094e-11
1.44533e-11
2.60421e-12
3.44951e-13
1.91593e-14
9.56985e-17
8.04656e-24
)
;
    }
    rightWall
    {
        type            alphaContactAngle;
        contactAngleProperties 
        {
            mercury         
            {
                theta0          90;
            }
            air             
            {
                theta0          90;
            }
            water           
            {
                theta0          90;
            }
        }
        value           nonuniform List<scalar> 
50
(
0.221904
0.222234
0.423462
0.469686
0.399329
0.105527
0.207639
0.313753
0.315065
0.225106
0.839439
0.976796
0.999815
0.999975
0.999866
0.992449
0.470678
0.000758538
1.26108e-11
7.00663e-08
2.6801e-07
4.18581e-07
3.38297e-07
1.42136e-07
3.62074e-08
1.53773e-08
1.57412e-08
1.8465e-08
3.04304e-08
3.50716e-08
7.14723e-08
8.19403e-08
8.30288e-08
7.95393e-08
5.78927e-08
4.34299e-08
4.19047e-08
2.2766e-08
1.87828e-08
6.6118e-09
5.52131e-09
2.11747e-09
1.77292e-09
6.90187e-10
4.68983e-10
2.01078e-10
1.27228e-10
6.45399e-11
2.27152e-11
1.18989e-12
)
;
    }
    lowerWall
    {
        type            alphaContactAngle;
        contactAngleProperties 
        {
            mercury         
            {
                theta0          90;
            }
            air             
            {
                theta0          90;
            }
            water           
            {
                theta0          90;
            }
        }
        value           nonuniform List<scalar> 
62
(
1.60322e-14
9.79473e-14
4.71191e-13
1.53301e-12
3.80229e-12
7.9981e-12
1.55338e-11
2.83297e-11
5.07204e-11
9.02102e-11
1.59921e-10
2.83437e-10
5.09634e-10
8.61101e-10
1.76088e-09
3.4969e-09
6.75276e-09
9.01095e-09
9.24659e-09
9.97629e-09
0.000333515
0.0005671
0.000567036
0.000567036
0.000297811
1.91677e-08
1.49119e-07
1.70694e-08
1.58265e-08
2.50005e-05
3.6167e-05
4.25686e-05
2.78031e-05
3.90513e-06
4.57306e-11
0.127178
0.392393
0.393549
0.0870802
0.00744265
0.033342
0.03767
0.0514483
0.127178
0.110984
0.0920669
0.0409475
0.0336114
0.0462165
0.266531
0.305382
0.305352
0.2968
0.299942
0.297811
0.174098
0.0629784
0.0704089
0.108949
0.181026
0.231236
0.221904
)
;
    }
    atmosphere
    {
        type            inletOutlet;
        inletValue      uniform 0;
        value           nonuniform List<scalar> 
46
(
0
0
0
8.7425e-17
7.51091e-17
4.8032e-17
3.16715e-17
2.31443e-17
1.58605e-17
9.64373e-18
5.0479e-18
2.19282e-18
9.63036e-19
4.40525e-19
0
0
0
0
0
0
0
0
0
0
0
0
0
0
0
0
1.11475e-14
3.779e-14
1.26461e-13
4.02358e-13
1.2021e-12
3.50459e-12
9.56159e-12
2.44913e-11
5.67523e-11
1.09189e-10
1.79792e-10
2.06831e-10
0
0
0
0
)
;
    }
    defaultFaces
    {
        type            empty;
    }
}


// ************************************************************************* //
