/*--------------------------------*- C++ -*----------------------------------*\
  =========                 |
  \\      /  F ield         | OpenFOAM: The Open Source CFD Toolbox
   \\    /   O peration     | Website:  https://openfoam.org
    \\  /    A nd           | Version:  13
     \\/     M anipulation  |
\*---------------------------------------------------------------------------*/
FoamFile
{
    format      ascii;
    class       volScalarField;
    location    "2.55";
    object      epsilon;
}
// * * * * * * * * * * * * * * * * * * * * * * * * * * * * * * * * * * * * * //

dimensions      [0 2 -3 0 0 0 0];

internalField   nonuniform List<scalar> 
2268
(
0.00275294
0.0142392
0.0292009
0.044771
0.0600493
0.0747588
0.0885946
0.101247
0.112402
0.121746
0.128997
0.13394
0.136431
0.136363
0.133798
0.12961
0.123375
0.114946
0.103946
0.0895565
0.0698957
0.0426226
0.00911345
0.00515613
0.00957798
0.0152738
0.0211909
0.0271281
0.032963
0.0385611
0.0437802
0.0484803
0.0525358
0.0558463
0.0583458
0.0600049
0.0608318
0.0609458
0.0606207
0.0596738
0.0579256
0.0550324
0.0503301
0.042654
0.0308541
0.0193007
0.0088137
0.0104843
0.0142842
0.0183383
0.0224506
0.0265249
0.030466
0.034175
0.0375582
0.0405348
0.0430433
0.0450479
0.0465399
0.0475409
0.0481279
0.048419
0.0483309
0.047732
0.0463726
0.0438057
0.0394211
0.0332895
0.0350208
0.0126941
0.0123391
0.0152348
0.018504
0.021871
0.0252305
0.028496
0.0315854
0.0344244
0.0369511
0.0391198
0.0409056
0.0423062
0.0433436
0.0440706
0.0445499
0.0447399
0.0445536
0.0438329
0.0423416
0.0399455
0.0377943
0.0521832
0.0169628
0.0147657
0.0169959
0.0197699
0.022704
0.0256638
0.0285564
0.0313047
0.0338434
0.0361192
0.0380936
0.0397461
0.0410763
0.0421043
0.04287
0.0434132
0.0437183
0.0437415
0.0434152
0.0427089
0.0419485
0.0434111
0.0701955
0.0221241
0.0177854
0.0193199
0.0216673
0.024278
0.0269622
0.029607
0.0321328
0.0344758
0.0365865
0.0384291
0.0399841
0.0412514
0.0422496
0.0430123
0.0435711
0.0439325
0.044095
0.0440803
0.0440571
0.0448285
0.0501071
0.0910453
0.0288034
0.0215183
0.0221347
0.0240192
0.0263347
0.0287962
0.031254
0.033615
0.0358138
0.0378019
0.0395436
0.0410185
0.042226
0.0431852
0.0439262
0.0444815
0.0448792
0.0451599
0.0454281
0.0460366
0.0482855
0.0580542
0.122846
0.0374018
0.025917
0.0253363
0.0266671
0.0286646
0.0309152
0.0332166
0.0354528
0.0375516
0.0394566
0.0411269
0.0425407
0.0436979
0.0446215
0.0453394
0.0458884
0.0463203
0.0467157
0.0472494
0.0484178
0.0519214
0.0665291
0.206146
0.00802891
0.0394668
0.0638233
0.0802641
0.0918301
0.0996123
0.0977456
0.100725
0.112916
0.113948
0.105968
0.0905639
0.0791868
0.0764211
0.0639973
0.0519429
0.0389726
0.0222869
0.00494792
0.0150386
0.0285825
0.0401123
0.0475104
0.0516312
0.0530545
0.052719
0.0530889
0.0542961
0.0530378
0.0492331
0.0442204
0.0396291
0.0357738
0.0311065
0.0262772
0.0211675
0.0148466
0.0076385
0.0255805
0.029482
0.0374718
0.0426964
0.0462107
0.0475475
0.046795
0.0463725
0.0461505
0.0444158
0.0410186
0.0373401
0.0334653
0.0297316
0.0263113
0.0230876
0.0199926
0.0166354
0.0139033
0.0330453
0.0331774
0.0389327
0.0421929
0.0445796
0.0464939
0.0456165
0.0448797
0.0443628
0.0426632
0.0393497
0.035944
0.0321927
0.0285302
0.0256169
0.0232802
0.0217193
0.0211619
0.0225708
0.0399098
0.0395343
0.0427664
0.0436206
0.0440919
0.0452744
0.0449029
0.044161
0.0434205
0.0419394
0.0390768
0.0360083
0.0324634
0.0288291
0.0261677
0.0246829
0.0242935
0.0259082
0.03993
0.0535776
0.049614
0.0486978
0.0466327
0.0449045
0.04449
0.0438757
0.0430982
0.0421851
0.0407316
0.0383798
0.0359877
0.0335228
0.0294828
0.0271048
0.02593
0.0254263
0.0267281
0.0493087
0.0826942
0.0637019
0.0556635
0.050436
0.0466293
0.0446552
0.0433528
0.0423228
0.0413676
0.0398883
0.0378493
0.035811
0.0338036
0.0303248
0.0279118
0.0263736
0.0253153
0.0253956
0.0449448
0.145487
0.0798637
0.0611258
0.0534022
0.048536
0.0453421
0.0434207
0.0421562
0.0411133
0.0395848
0.0377209
0.0358627
0.0337972
0.0308695
0.0285173
0.0267808
0.0254368
0.0247606
0.037887
0.0500364
0.0327538
0.0305384
0.0310264
0.0325214
0.0344432
0.0365164
0.0385946
0.0405801
0.0423959
0.0439882
0.0453297
0.0464234
0.047293
0.0479771
0.0485296
0.0490343
0.0496215
0.0505497
0.0524244
0.0568758
0.0692801
0.112199
0.0719586
0.0434538
0.0386179
0.0379055
0.0387117
0.0401804
0.0419363
0.0437934
0.0456216
0.0473137
0.0487919
0.0500162
0.0509828
0.0517236
0.0522972
0.0527891
0.053315
0.0540312
0.0551723
0.0571584
0.0608227
0.0678215
0.0809474
0.0962764
0.0551355
0.0472565
0.045257
0.0453425
0.0463296
0.0477403
0.0493461
0.0509922
0.0525449
0.0539047
0.0550164
0.0558785
0.0565346
0.0570568
0.0575461
0.0581192
0.0589015
0.0600589
0.0618271
0.0644977
0.0683365
0.0733224
0.122656
0.0674708
0.0562809
0.0528766
0.0521167
0.0525116
0.053491
0.0547625
0.0561589
0.0575259
0.0587386
0.0597292
0.0604994
0.0611
0.0616058
0.0621233
0.0627434
0.063524
0.064538
0.0658722
0.0675227
0.0693805
0.0711372
0.151229
0.0792146
0.0653947
0.0606388
0.0589067
0.0585427
0.0589105
0.0596838
0.0607015
0.0617865
0.0627881
0.0636254
0.0642906
0.0648326
0.0653177
0.0658318
0.0663998
0.0670021
0.0676725
0.0683945
0.0690527
0.0695116
0.0695565
0.179077
0.0909307
0.0746051
0.068547
0.0657129
0.0643393
0.063824
0.0638565
0.0642836
0.064921
0.0656104
0.0662501
0.066798
0.0672717
0.0677166
0.0681737
0.0686161
0.069001
0.0693283
0.0695516
0.0695805
0.0693611
0.0688317
0.188424
0.100021
0.0835836
0.076665
0.0726306
0.0699673
0.0682982
0.0673842
0.0670392
0.0671032
0.0674005
0.0677915
0.0681957
0.0685896
0.06898
0.0693655
0.0697028
0.0699469
0.0700794
0.0700652
0.0698637
0.0694642
0.0688626
0.186771
0.106732
0.0916961
0.0844982
0.079401
0.0753665
0.0724005
0.0704169
0.069254
0.0687129
0.068586
0.0687001
0.0689384
0.0692355
0.0695576
0.0698744
0.0701425
0.0703249
0.0703973
0.0703344
0.0701175
0.0697401
0.0692014
0.190332
0.11312
0.0980568
0.0907388
0.0851817
0.080087
0.0759142
0.0729289
0.0710151
0.0699224
0.0693991
0.069244
0.0693104
0.0695003
0.0697517
0.0700169
0.0702496
0.0704143
0.0704863
0.0704467
0.0702806
0.0699796
0.0695675
0.214947
0.122893
0.103077
0.0945557
0.0892129
0.0836926
0.0786377
0.0748646
0.0723582
0.0708325
0.069967
0.069552
0.0694423
0.0695177
0.0696944
0.0699166
0.0701309
0.0702939
0.0703777
0.070372
0.0702692
0.070057
0.0697716
0.232991
0.131172
0.106248
0.095512
0.0886171
0.0832952
0.0783398
0.0745731
0.0721084
0.070571
0.0696452
0.0691662
0.0690019
0.0690153
0.0691107
0.0692336
0.0693486
0.0694225
0.0694273
0.0693492
0.0691757
0.0689108
0.0686359
0.275573
0.126986
0.102316
0.0905933
0.0833961
0.0784477
0.0744787
0.0715767
0.0697164
0.0685612
0.0678623
0.0675103
0.067409
0.0674431
0.0675316
0.0676237
0.0676879
0.0676999
0.0676413
0.0675015
0.0672758
0.0669736
0.0666559
0.277554
0.120028
0.0934117
0.0829475
0.0771605
0.0731072
0.0700288
0.0678682
0.0665582
0.0658454
0.0654893
0.0653583
0.0653917
0.0655093
0.0656424
0.0657484
0.0658024
0.0657872
0.0656914
0.0655104
0.0652458
0.0649145
0.0645638
0.24998
0.10802
0.0845069
0.0757658
0.0709885
0.067792
0.0655195
0.0640171
0.0631935
0.0628691
0.062828
0.0629268
0.0631116
0.0633316
0.0635352
0.0636896
0.0637744
0.0637763
0.0636881
0.063508
0.0632404
0.0628999
0.06251
0.207876
0.0943879
0.0755467
0.0686231
0.0649928
0.0626636
0.0610986
0.0601532
0.0597474
0.0597476
0.0599771
0.0602953
0.0606373
0.0609728
0.061269
0.0615008
0.0616506
0.0617072
0.0616655
0.0615246
0.0612887
0.0609683
0.0605694
0.173417
0.0814618
0.066853
0.061778
0.0592542
0.0577273
0.056788
0.056328
0.056289
0.0565701
0.0570267
0.0575285
0.0580165
0.0584721
0.058873
0.0591988
0.0594343
0.05957
0.0596015
0.0595282
0.0593539
0.0590853
0.0587177
0.143788
0.0701702
0.059001
0.0554471
0.0538703
0.0530402
0.0526433
0.0526018
0.0528762
0.0533905
0.0540249
0.0546742
0.0552921
0.0558622
0.0563668
0.0567892
0.0571168
0.0573414
0.0574592
0.0574701
0.0573774
0.0571859
0.0568851
0.119324
0.0608478
0.0523304
0.0499049
0.0490379
0.0487449
0.0487717
0.0490575
0.0495707
0.0502529
0.0510178
0.0517809
0.0525054
0.0531738
0.0537705
0.0542816
0.0546967
0.055009
0.0552156
0.0553164
0.0553155
0.0552167
0.055006
0.100512
0.0536315
0.0469947
0.0453037
0.0448917
0.0449511
0.0452628
0.0457672
0.0464339
0.0472191
0.0480631
0.0489019
0.0497021
0.0504445
0.0511143
0.0516993
0.0521905
0.0525821
0.0528717
0.0530601
0.0531518
0.0531503
0.0530406
0.0876405
0.0484308
0.0429151
0.0416138
0.0414354
0.0416814
0.0421475
0.0427678
0.04351
0.0443394
0.045215
0.0460904
0.0469325
0.0477213
0.0484417
0.0490819
0.0496335
0.0500913
0.0504534
0.0507211
0.0508991
0.0509914
0.0509819
0.0796708
0.0448227
0.039825
0.0386659
0.0385649
0.038877
0.0393992
0.0400576
0.040816
0.0416455
0.0425149
0.0433932
0.0442467
0.0450553
0.0458036
0.0464795
0.0470745
0.0475835
0.0480049
0.04834
0.0485938
0.0487701
0.0488535
0.0743938
0.0421031
0.0373543
0.0362235
0.0361217
0.0364339
0.0369559
0.0376068
0.0383471
0.0391498
0.03999
0.0408448
0.0416864
0.0424938
0.0432504
0.0439443
0.0445667
0.0451124
0.0455794
0.0459691
0.0462864
0.0465348
0.0466994
0.0706318
0.0398471
0.0352265
0.0340863
0.0339586
0.0342469
0.0347461
0.0353712
0.0360802
0.0368466
0.0376491
0.038469
0.0392842
0.0400748
0.0408251
0.041523
0.0421598
0.0427298
0.0432305
0.0436631
0.0440317
0.0443397
0.0445735
0.0675718
0.0378014
0.0332706
0.0321217
0.031971
0.0322357
0.0327113
0.0333101
0.0339888
0.034721
0.0354873
0.0362712
0.037056
0.037824
0.0385605
0.039254
0.0398958
0.0404806
0.0410056
0.0414716
0.0418819
0.0422389
0.0425306
0.0647005
0.0358338
0.0314016
0.0302605
0.0301008
0.0303528
0.0308136
0.0313948
0.0320518
0.0327584
0.0334963
0.0342505
0.0350081
0.0357542
0.0364757
0.0371621
0.0378055
0.0384004
0.0389443
0.0394373
0.0398817
0.0402796
0.0406206
0.0617573
0.0338932
0.0295912
0.0284792
0.0283264
0.0285788
0.0290364
0.0296109
0.0302572
0.0309492
0.0316691
0.0324036
0.0331414
0.0338712
0.0345814
0.0352631
0.0359089
0.0365141
0.0370757
0.0375934
0.0380688
0.0385032
0.0388868
0.0586657
0.0319772
0.0278432
0.0267811
0.0266498
0.0269141
0.0273789
0.0279568
0.0286026
0.0292904
0.030003
0.030728
0.0314559
0.0321776
0.032884
0.033567
0.0342205
0.0348398
0.035422
0.0359661
0.0364727
0.0369423
0.0373663
0.055458
0.0301089
0.0261772
0.0251832
0.0250856
0.0253713
0.0258515
0.0264406
0.027094
0.027786
0.0285003
0.0292256
0.0299536
0.0306773
0.0313892
0.0320827
0.0327521
0.0333929
0.0340022
0.0345779
0.0351195
0.0356267
0.0360912
0.0522245
0.0283241
0.0246205
0.0237092
0.0236552
0.0239694
0.0244707
0.0250761
0.0257425
0.026445
0.0271682
0.0279021
0.0286402
0.0293766
0.0301054
0.0308207
0.0315173
0.0321905
0.0328365
0.0334522
0.0340358
0.0345853
0.0350934
0.0490748
0.0266639
0.0232037
0.0223857
0.0223825
0.0227301
0.0232558
0.0238804
0.0245626
0.0252795
0.0260173
0.0267675
0.0275256
0.0282865
0.0290454
0.0297969
0.0305353
0.0312551
0.0319509
0.0326181
0.033253
0.0338525
0.0344087
0.0461158
0.025171
0.0219593
0.0212409
0.0212929
0.0216762
0.022227
0.0228709
0.0235697
0.0243031
0.02506
0.0258345
0.0266235
0.0274233
0.0282292
0.0290353
0.0298345
0.0306192
0.0313816
0.0321148
0.032813
0.0334712
0.0340815
0.0434334
0.0238857
0.0209199
0.0203039
0.0204127
0.0208309
0.0214045
0.0220648
0.0227784
0.0235292
0.0243101
0.0251186
0.0259534
0.0268115
0.0276874
0.0285731
0.0294581
0.0303312
0.0311812
0.0319979
0.032773
0.0334996
0.0341697
0.0410838
0.0228438
0.0201193
0.0196068
0.019771
0.0202194
0.0208088
0.0214786
0.0222025
0.0229711
0.0237828
0.0246397
0.0255425
0.0264877
0.0274667
0.0284665
0.0294709
0.0304627
0.0314256
0.0323456
0.0332118
0.0340159
0.0347501
0.0390906
0.0220787
0.0195989
0.0191928
0.0194071
0.0198735
0.0204637
0.0211295
0.0218557
0.0226423
0.0234964
0.0244257
0.0254318
0.0265083
0.0276392
0.0288018
0.0299701
0.0311182
0.0322233
0.0332676
0.0342379
0.0351259
0.035925
0.0374633
0.0216388
0.0194328
0.0191402
0.0193881
0.0198426
0.0204018
0.0210377
0.0217517
0.0225583
0.0234757
0.024518
0.0256858
0.0269627
0.0283175
0.0297106
0.0311005
0.0324496
0.033728
0.0349149
0.0359976
0.0369696
0.0378279
0.0362602
0.0216584
0.0198091
0.0196275
0.0198493
0.0202148
0.020673
0.0212289
0.0219063
0.022738
0.023757
0.0249835
0.0264095
0.0279951
0.0296791
0.0313936
0.0330754
0.0346733
0.0361518
0.037491
0.0386832
0.0397282
0.0406297
0.0358229
0.0226236
0.021281
0.0210972
0.0210788
0.0211506
0.0213546
0.0217347
0.0223348
0.0232052
0.024396
0.0259318
0.0277785
0.0298417
0.0320048
0.0341555
0.0362049
0.0380909
0.0397796
0.0412607
0.0425397
0.0436291
0.0445434
0.0377308
0.026376
0.0254798
0.0246125
0.023651
0.0229164
0.0225487
0.0225832
0.0230444
0.0239855
0.0254768
0.0275459
0.0300912
0.0328937
0.0357402
0.0384536
0.0409282
0.0431076
0.0449773
0.0465529
0.0478649
0.0489461
0.0498259
0.049806
0.0392614
0.0364496
0.0322514
0.0284756
0.0258423
0.0243373
0.0237667
0.0240131
0.0250947
0.0271192
0.0301356
0.0338651
0.0377999
0.0415884
0.0449586
0.047841
0.0502358
0.0521836
0.0537488
0.0549993
0.0559931
0.0567751
0.111487
0.0764755
0.0596845
0.0460069
0.0361741
0.0300168
0.0266401
0.0251765
0.0251519
0.026506
0.0294793
0.0342847
0.040037
0.0456198
0.0506341
0.0546055
0.0576902
0.060063
0.0618732
0.0632522
0.0643064
0.0651135
0.0657273
0.364238
0.149809
0.0917685
0.0632596
0.0453133
0.0346539
0.0290045
0.0265328
0.0262599
0.0280831
0.0327492
0.0416159
0.0505653
0.0580491
0.0644616
0.0685533
0.0712682
0.0731497
0.0744828
0.0754438
0.0761485
0.0766707
0.0770585
1.58279
0.20825
0.109237
0.0750007
0.0518021
0.0378958
0.030585
0.027403
0.0270056
0.0294276
0.036987
0.0600161
0.0712509
0.0784235
0.0851801
0.087803
0.0890733
0.0898199
0.0903051
0.0906375
0.0908734
0.0910444
0.0911699
0.353028
0.287783
0.249214
0.229926
0.0990058
0.102402
0.101518
0.0985187
0.0766981
0.0777559
0.0776829
0.0767713
0.0715687
0.0713542
0.0707348
0.0698936
0.0690442
0.0685494
0.0679658
0.06736
0.0681963
0.0677462
0.06729
0.0668414
0.0683075
0.0679445
0.0675888
0.0672433
0.068722
0.0684246
0.0681606
0.0679361
0.0692451
0.0690571
0.068907
0.0688036
0.0696216
0.0695729
0.0695942
0.0696698
0.0685244
0.0685163
0.0685879
0.0687014
0.0664784
0.0663949
0.0663638
0.0663579
0.0643125
0.0641419
0.0639837
0.0638391
0.0621891
0.0619587
0.0617284
0.0615052
0.0602133
0.0599568
0.0596939
0.0594304
0.0583694
0.0581181
0.0578565
0.0575872
0.0565813
0.0563607
0.0561282
0.0558825
0.0547705
0.0545967
0.0544109
0.0542091
0.052884
0.0527639
0.052633
0.0524845
0.0509045
0.0508374
0.050761
0.0506671
0.0488487
0.0488293
0.0488024
0.0487584
0.0467571
0.0467782
0.046793
0.046792
0.0446836
0.0447378
0.044787
0.0448212
0.0426839
0.0427647
0.0428411
0.0429039
0.04081
0.0409126
0.0410112
0.0410968
0.039107
0.0392279
0.0393445
0.0394497
0.0376146
0.037752
0.0378847
0.0380065
0.0363672
0.0365208
0.0366687
0.0368056
0.0353985
0.0355689
0.0357323
0.0358839
0.0347452
0.0349339
0.0351133
0.0352799
0.0344525
0.0346609
0.0348577
0.0350394
0.0345775
0.0348068
0.035021
0.0352175
0.0351957
0.0354457
0.0356765
0.0358858
0.036406
0.0366745
0.0369187
0.0371369
0.0383375
0.0386192
0.0388708
0.0390908
0.0411542
0.0414397
0.0416887
0.0419002
0.0450612
0.0453364
0.0455688
0.0457573
0.050307
0.0505539
0.0507525
0.0509015
0.0571852
0.0573847
0.0575328
0.0576269
0.0660334
0.0661706
0.0662582
0.0662911
0.0772397
0.0773103
0.0773424
0.0773286
0.0912222
0.0912372
0.0912382
0.0912206
0.128559
0.085834
0.0652288
0.0556874
0.0505884
0.0467698
0.044186
0.0425883
0.0413271
0.0397601
0.0380307
0.036346
0.0343283
0.0317575
0.0296004
0.0278907
0.0265048
0.0255365
0.0306447
0.0883393
0.0750138
0.0634362
0.0560073
0.0515312
0.0484317
0.0458962
0.0441002
0.0426686
0.0411476
0.0394893
0.0378135
0.0357875
0.0335195
0.0317483
0.0304838
0.029326
0.0276735
0.0313191
0.0739696
0.0679813
0.0615945
0.0563855
0.0524869
0.0496499
0.0474373
0.0457483
0.0443604
0.0429397
0.0413711
0.0396969
0.0377525
0.0357865
0.0343561
0.0333363
0.0321387
0.030792
0.0405534
0.0682856
0.0650193
0.0610359
0.0572865
0.0541161
0.0514287
0.0492097
0.0474552
0.0460103
0.0446183
0.0431414
0.0415964
0.0399483
0.0383948
0.0371941
0.0360636
0.0346213
0.0343688
0.0555303
0.0663162
0.0642351
0.0615272
0.0587885
0.0563014
0.0539021
0.0515928
0.0495872
0.0478828
0.0463234
0.0447967
0.0433185
0.041917
0.040658
0.0395181
0.0382146
0.0369453
0.0389598
0.0774912
0.0660701
0.0646386
0.0627887
0.0608179
0.0588509
0.0567474
0.0544793
0.0522643
0.0502516
0.0484209
0.0467111
0.0451316
0.0437181
0.0424813
0.0412957
0.0400182
0.0392838
0.0432256
0.0916599
0.0666644
0.0657057
0.0645061
0.06315
0.0616213
0.0597807
0.0576017
0.0552914
0.0530573
0.0509674
0.0490181
0.0472294
0.0456246
0.0442103
0.0428935
0.0416991
0.0414655
0.0463962
0.0973375
0.0676053
0.0671275
0.0665203
0.0657345
0.0646285
0.0630133
0.060896
0.0585167
0.0561304
0.0538426
0.0516727
0.0496768
0.0478413
0.0461551
0.0446269
0.0433806
0.0432661
0.0482495
0.0977477
0.0687112
0.0687592
0.06879
0.0686494
0.0680181
0.0665587
0.0643451
0.0617956
0.0593074
0.0569294
0.054574
0.0524334
0.0504308
0.0484528
0.0466582
0.0451453
0.0446573
0.0491123
0.0952364
0.0698899
0.0705707
0.0713385
0.0720264
0.0719823
0.0704612
0.0677646
0.0648032
0.0623336
0.0600947
0.0573822
0.0546695
0.0524155
0.0504069
0.0486931
0.0468406
0.0454353
0.0500217
0.103584
0.0689677
0.0695785
0.07049
0.0715892
0.0719558
0.070611
0.0679518
0.0653202
0.0633442
0.0614373
0.0587593
0.0556268
0.0527888
0.0504631
0.0485918
0.0465593
0.0450701
0.048925
0.106887
0.0663777
0.0665741
0.0669878
0.0674279
0.0673083
0.0662448
0.0645175
0.062893
0.0614713
0.0599237
0.0577501
0.054935
0.0522576
0.0499844
0.0482175
0.0463606
0.0444242
0.0457424
0.08425
0.0636368
0.0634882
0.063467
0.0634187
0.0629185
0.061794
0.060378
0.0590957
0.0579818
0.0567414
0.0548581
0.0524104
0.0502281
0.048537
0.0470584
0.0451973
0.0429891
0.0431338
0.0671082
0.0611589
0.0607398
0.0603806
0.0599733
0.0592558
0.058096
0.0567127
0.0554158
0.0542623
0.0530338
0.0514066
0.0494723
0.0477845
0.0465011
0.0453282
0.0438804
0.0421993
0.0424697
0.0586449
0.0589944
0.0583832
0.0577921
0.0571621
0.056348
0.0552344
0.053901
0.0525486
0.051257
0.0499542
0.0485354
0.0470785
0.0458316
0.0448742
0.0440664
0.043228
0.04253
0.0433819
0.0564358
0.057115
0.0563983
0.0556857
0.05495
0.0541113
0.0530795
0.051854
0.0505384
0.0492211
0.0479328
0.0466908
0.0455547
0.0446179
0.0439146
0.0434189
0.0431338
0.043295
0.0450264
0.0583722
0.0554236
0.0546794
0.0539308
0.0531678
0.0523466
0.0514006
0.0503003
0.0490889
0.047843
0.0466327
0.0455174
0.0445462
0.0437595
0.0431853
0.0428677
0.0429199
0.043673
0.0463794
0.0619121
0.0538002
0.0530849
0.0523556
0.0516088
0.0508217
0.0499483
0.0489547
0.047856
0.0467078
0.0455781
0.0445298
0.0436065
0.0428383
0.0422653
0.0419734
0.0421475
0.043237
0.0468373
0.0655217
0.0521451
0.0514922
0.0508117
0.0501018
0.0493515
0.0485317
0.0476149
0.0466039
0.0455345
0.0444593
0.0434314
0.0424903
0.0416712
0.041031
0.0406858
0.0408753
0.0421705
0.0465566
0.0688882
0.050404
0.0498277
0.0492088
0.0485442
0.0478297
0.0470488
0.0461825
0.0452297
0.0442124
0.043168
0.0421386
0.041161
0.0402787
0.0395648
0.0391599
0.0393478
0.0408009
0.0458245
0.0716607
0.0485685
0.0480719
0.0475179
0.046902
0.0462236
0.0454747
0.0446443
0.0437313
0.0427496
0.0417266
0.0406958
0.0396931
0.0387693
0.0380105
0.0375761
0.0377819
0.0393728
0.044886
0.0736943
0.0466684
0.0462475
0.0457577
0.0451925
0.0445528
0.0438366
0.0430387
0.0421597
0.0412102
0.0402118
0.0391927
0.038189
0.0372566
0.0364908
0.0360631
0.0363101
0.0380225
0.0439087
0.0749907
0.0447538
0.0444031
0.043975
0.043462
0.0428656
0.042187
0.0414255
0.0405836
0.0396712
0.038707
0.0377166
0.0367364
0.0358254
0.035084
0.0346903
0.0349919
0.0368071
0.0429612
0.0757116
0.0428845
0.0425974
0.0422284
0.0417689
0.0412202
0.0405856
0.039867
0.0390689
0.0382013
0.037282
0.0363349
0.0353968
0.0345281
0.0338309
0.0334856
0.033845
0.0357437
0.0420849
0.0760112
0.0411176
0.0408891
0.0405767
0.0401711
0.0396736
0.0390883
0.0384187
0.0376709
0.0368549
0.0359885
0.0350944
0.0342094
0.0333939
0.0327496
0.0324566
0.0328685
0.0348302
0.0412949
0.0760603
0.0395072
0.039332
0.0390728
0.0387207
0.0382763
0.0377436
0.0371272
0.0364336
0.0356736
0.034864
0.0340271
0.0331992
0.0324399
0.0318493
0.0316059
0.0320632
0.0340705
0.0406207
0.0759873
0.0380966
0.0379715
0.0377628
0.037463
0.0370718
0.0365928
0.0360307
0.0353927
0.0346897
0.0339373
0.0331576
0.032386
0.0316806
0.0311398
0.0309402
0.0314345
0.0334764
0.0400897
0.0759454
0.0369251
0.0368476
0.0366874
0.0364376
0.0360978
0.0356714
0.0351629
0.0345794
0.0339316
0.0332343
0.0325089
0.0317897
0.0311337
0.0306372
0.030475
0.031
0.0330717
0.0397487
0.0760503
0.0360312
0.0359994
0.035885
0.0356819
0.0353902
0.0350131
0.034555
0.034023
0.0334271
0.0327813
0.0321062
0.0314353
0.0308239
0.0303668
0.0302375
0.0307901
0.0328921
0.0396337
0.0764313
0.0354549
0.0354665
0.0353944
0.0352338
0.0349853
0.0346525
0.0342399
0.0337546
0.0332062
0.0326077
0.0319792
0.0313532
0.0307837
0.0303637
0.030266
0.0308472
0.0329878
0.0398288
0.0772214
0.0352408
0.0352928
0.0352584
0.0351342
0.0349223
0.0346267
0.034253
0.0338083
0.033302
0.0327467
0.0321626
0.031581
0.0310543
0.0306742
0.0306129
0.0312305
0.0334254
0.0404038
0.078614
0.0354438
0.035531
0.0355271
0.0354307
0.0352455
0.0349772
0.0346327
0.0342203
0.0337496
0.0332343
0.0326944
0.0321609
0.0316847
0.0313556
0.0313448
0.0320166
0.0342929
0.0414697
0.080767
0.0361326
0.0362469
0.0362624
0.0361803
0.0360067
0.0357502
0.0354203
0.0350273
0.0345836
0.0341049
0.0336121
0.0331364
0.0327278
0.0324738
0.0325439
0.0333055
0.0357073
0.0431676
0.0839949
0.0373966
0.0375241
0.0375414
0.0374523
0.0372662
0.0369961
0.0366567
0.0362632
0.0358331
0.0353862
0.0349461
0.0345456
0.034235
0.0341005
0.0343084
0.035227
0.0378324
0.0456976
0.0885901
0.0393506
0.0394696
0.0394616
0.0393319
0.039094
0.0387684
0.0383791
0.0379518
0.0375131
0.0370892
0.0367093
0.0364105
0.0362465
0.0363051
0.0367509
0.0379504
0.0409043
0.0493823
0.0952183
0.0421412
0.0422204
0.0421467
0.0419233
0.0415692
0.0411181
0.0406123
0.040097
0.0396128
0.0391959
0.0388836
0.038722
0.0387755
0.0391421
0.0399929
0.0416947
0.0452705
0.0547269
0.104736
0.0459548
0.0459529
0.0457553
0.0453554
0.0447787
0.0440851
0.0433556
0.0426673
0.0420803
0.0416427
0.0414027
0.0414215
0.0417869
0.0426279
0.0441476
0.0467369
0.0514565
0.0626245
0.118997
0.0510272
0.0508956
0.0504949
0.0497893
0.0488159
0.0476845
0.0465621
0.0455753
0.0448045
0.0443057
0.0441365
0.0443809
0.0451706
0.0467048
0.0492785
0.0533847
0.060225
0.074667
0.141469
0.0576562
0.0573499
0.0566478
0.0554376
0.0537862
0.0518804
0.0501056
0.0486526
0.0475993
0.0469896
0.0468818
0.0473883
0.0487131
0.051185
0.0553051
0.0618501
0.0724957
0.0937764
0.180922
0.0662192
0.0657267
0.0646323
0.0626224
0.059873
0.0565491
0.0537343
0.0516228
0.0501952
0.049431
0.049368
0.0501484
0.0520741
0.0556793
0.0618299
0.071855
0.0885891
0.124603
0.263419
0.0771951
0.0766046
0.0751589
0.072007
0.0677396
0.0614194
0.0570061
0.0540874
0.0522539
0.0513247
0.0512879
0.0523086
0.0547968
0.0595458
0.0679164
0.0819036
0.105497
0.169945
0.49627
0.0911389
0.090777
0.0895976
0.0857152
0.0807978
0.0657749
0.0591959
0.0555503
0.053417
0.0523731
0.0523463
0.0535117
0.0563603
0.0619095
0.0720256
0.088809
0.110668
0.193848
1.45517
)
;

boundaryField
{
    leftWall
    {
        type            epsilonWallFunction;
        value           nonuniform List<scalar> 
50
(
0.00275294
0.00515613
0.0088137
0.0126941
0.0169628
0.0221241
0.0288034
0.0374018
0.0500364
0.0719586
0.0962764
0.122656
0.151229
0.179077
0.188424
0.186771
0.190332
0.214947
0.232991
0.275573
0.277554
0.24998
0.207876
0.173417
0.143788
0.119324
0.100512
0.0876405
0.0796708
0.0743938
0.0706318
0.0675718
0.0647005
0.0617573
0.0586657
0.055458
0.0522245
0.0490748
0.0461158
0.0434334
0.0410838
0.0390906
0.0374633
0.0362602
0.0358229
0.0377308
0.049806
0.111487
0.364238
1.58279
)
;
    }
    rightWall
    {
        type            epsilonWallFunction;
        value           nonuniform List<scalar> 
50
(
0.00494792
0.0076385
0.0139033
0.0225708
0.03993
0.0493087
0.0449448
0.037887
0.0306447
0.0313191
0.0405534
0.0555303
0.0774912
0.0916599
0.0973375
0.0977477
0.0952364
0.103584
0.106887
0.08425
0.0671082
0.0586449
0.0564358
0.0583722
0.0619121
0.0655217
0.0688882
0.0716607
0.0736943
0.0749907
0.0757116
0.0760112
0.0760603
0.0759873
0.0759454
0.0760503
0.0764313
0.0772214
0.078614
0.080767
0.0839949
0.0885901
0.0952183
0.104736
0.118997
0.141469
0.180922
0.263419
0.49627
1.45517
)
;
    }
    lowerWall
    {
        type            epsilonWallFunction;
        value           nonuniform List<scalar> 
62
(
0.00275294
0.0142392
0.0292009
0.044771
0.0600493
0.0747588
0.0885946
0.101247
0.112402
0.121746
0.128997
0.13394
0.136431
0.136363
0.133798
0.12961
0.123375
0.114946
0.103946
0.0895565
0.0698957
0.0426226
0.00911345
0.00911345
0.0193007
0.0350208
0.0521832
0.0701955
0.0910453
0.122846
0.206146
0.353028
0.287783
0.249214
0.229926
0.00802891
0.0150386
0.0255805
0.0330453
0.0399098
0.0535776
0.0826942
0.145487
0.00802891
0.0394668
0.0638233
0.0802641
0.0918301
0.0996123
0.0977456
0.100725
0.112916
0.113948
0.105968
0.0905639
0.0791868
0.0764211
0.0639973
0.0519429
0.0389726
0.0222869
0.00494792
)
;
    }
    atmosphere
    {
        type            inletOutlet;
        inletValue      uniform 0.1;
        value           nonuniform List<scalar> 
46
(
0.1
0.1
0.1
0.0750007
0.0518021
0.0378958
0.030585
0.027403
0.0270056
0.0294276
0.036987
0.1
0.1
0.1
0.1
0.1
0.1
0.1
0.1
0.1
0.1
0.1
0.1
0.1
0.1
0.1
0.1
0.1
0.1
0.1
0.1
0.1
0.0657749
0.0591959
0.0555503
0.053417
0.0523731
0.0523463
0.0535117
0.0563603
0.0619095
0.0720256
0.088809
0.1
0.1
0.1
)
;
    }
    defaultFaces
    {
        type            empty;
    }
}


// ************************************************************************* //
