/*--------------------------------*- C++ -*----------------------------------*\
  =========                 |
  \\      /  F ield         | OpenFOAM: The Open Source CFD Toolbox
   \\    /   O peration     | Website:  https://openfoam.org
    \\  /    A nd           | Version:  13
     \\/     M anipulation  |
\*---------------------------------------------------------------------------*/
FoamFile
{
    format      ascii;
    class       volScalarField;
    location    "2.55";
    object      k;
}
// * * * * * * * * * * * * * * * * * * * * * * * * * * * * * * * * * * * * * //

dimensions      [0 2 -2 0 0 0 0];

internalField   nonuniform List<scalar> 
2268
(
0.000747894
0.00224398
0.00362931
0.00483335
0.00587705
0.00679596
0.0076028
0.00830172
0.00889262
0.0093721
0.00973576
0.00997992
0.0101019
0.010098
0.00997034
0.00975311
0.00942538
0.00897561
0.00837648
0.0075677
0.00639475
0.00459148
0.00168286
0.0018657
0.00529744
0.00813882
0.0106282
0.012816
0.0147414
0.0164275
0.0178848
0.0191166
0.0201212
0.0208961
0.0214399
0.0217536
0.0218379
0.0216908
0.021322
0.0207288
0.0198886
0.0187399
0.0171454
0.0148272
0.0112055
0.00451286
0.00267092
0.00715634
0.0107473
0.0138605
0.0165817
0.0189654
0.0210454
0.0228393
0.0243557
0.025597
0.0265629
0.0272548
0.0276761
0.0278312
0.0277235
0.027358
0.0267271
0.0257977
0.0244859
0.0226118
0.0198261
0.015415
0.00667304
0.00341425
0.00876765
0.0129436
0.0164867
0.019555
0.0222278
0.0245516
0.026552
0.028243
0.0296306
0.0307173
0.0315064
0.0320037
0.0322161
0.0321504
0.0318075
0.0311773
0.0302206
0.0288432
0.0268454
0.0238353
0.0189526
0.0086916
0.00415307
0.0103568
0.015055
0.0189413
0.0222702
0.0251527
0.0276492
0.0297941
0.0316065
0.0330962
0.034268
0.0351269
0.0356802
0.0359376
0.0359076
0.0355891
0.0349715
0.0340147
0.0326231
0.0305935
0.0275078
0.0223312
0.010595
0.00496406
0.012024
0.0171919
0.021362
0.0248972
0.0279406
0.0305661
0.0328177
0.034719
0.0362831
0.0375171
0.0384273
0.0390225
0.0393149
0.0393143
0.0390201
0.0384237
0.0374889
0.0361269
0.0341449
0.03112
0.0258487
0.0126184
0.00591918
0.0138542
0.0194029
0.0238005
0.0275002
0.0306708
0.0333968
0.035729
0.0376962
0.0393152
0.0405952
0.0415431
0.0421695
0.0424903
0.0425145
0.042246
0.0416808
0.0407908
0.0395015
0.0376455
0.0348346
0.0298098
0.0154686
0.00703816
0.0158651
0.0216878
0.0262453
0.0300625
0.0333283
0.0361333
0.0385318
0.0405575
0.0422265
0.0435474
0.0445284
0.0451826
0.0455302
0.0455808
0.045343
0.0448209
0.0439988
0.042822
0.0411638
0.0387244
0.0345114
0.0220839
0.00154725
0.00439146
0.00603297
0.00704377
0.00773946
0.00820675
0.00808456
0.00828217
0.00893889
0.008943
0.00849885
0.00764377
0.00700322
0.00683248
0.00604417
0.00526583
0.00434666
0.00299755
0.00109261
0.00410711
0.00988941
0.0132693
0.0154581
0.0171119
0.0179844
0.0179748
0.01829
0.0189247
0.0186473
0.0178355
0.0167649
0.0154299
0.0143272
0.0128618
0.0113157
0.00944664
0.00678888
0.00259874
0.00582555
0.013016
0.0173971
0.0203122
0.0223232
0.0234157
0.0235478
0.0238509
0.0241998
0.0236922
0.0226452
0.0214403
0.0198239
0.0181384
0.0163895
0.0145434
0.0123487
0.00924173
0.0038919
0.00688204
0.0153737
0.0205409
0.023858
0.0259526
0.0273489
0.0276174
0.0278826
0.0280726
0.0274212
0.026193
0.024839
0.0229812
0.0209533
0.0190693
0.017138
0.0149677
0.0120246
0.00540075
0.00773792
0.0174422
0.0233288
0.0268579
0.0288259
0.0301201
0.0306813
0.0309535
0.0309732
0.030246
0.0290065
0.0275978
0.0256112
0.0233503
0.0213802
0.0195471
0.0174349
0.0145357
0.00794966
0.00929373
0.0194017
0.0259902
0.0297084
0.0315154
0.0324639
0.0329978
0.0332307
0.0330824
0.0322525
0.0310526
0.0297342
0.0280184
0.0254183
0.0234386
0.0215229
0.0190047
0.0154682
0.00908936
0.0122842
0.0216316
0.0285303
0.032453
0.0341273
0.0347923
0.0351093
0.0351969
0.0349376
0.0340221
0.0328104
0.0314699
0.0297901
0.0273168
0.0251778
0.0228842
0.0198432
0.0153978
0.00858637
0.0179949
0.025018
0.0310379
0.0348772
0.0365899
0.0370503
0.0371775
0.037131
0.0367608
0.0357632
0.0345081
0.0330971
0.0312464
0.0289088
0.0266486
0.0240595
0.0206054
0.0152778
0.00769767
0.00853863
0.0189554
0.025252
0.0300222
0.0339738
0.0373433
0.0402383
0.0427227
0.0448299
0.0465719
0.047954
0.048985
0.0496833
0.0500692
0.0501643
0.0499891
0.0495612
0.0488847
0.0479435
0.0466857
0.0449877
0.0425937
0.0387762
0.0108461
0.0234128
0.0303509
0.0353877
0.0394716
0.0429111
0.0458501
0.0483744
0.0505222
0.0523011
0.0537109
0.0547585
0.0554601
0.0558459
0.0559536
0.055826
0.0555045
0.0550197
0.0543827
0.0535872
0.0526204
0.0515025
0.0500599
0.0131264
0.0277097
0.0353526
0.040689
0.044902
0.0483856
0.0513311
0.0538494
0.0559921
0.0577686
0.059177
0.0602213
0.0609244
0.0613276
0.0614802
0.061438
0.0612507
0.06095
0.0605536
0.0600717
0.0594924
0.0587473
0.0576772
0.0153806
0.0319038
0.0402138
0.0457964
0.0500811
0.0535585
0.0564678
0.0589287
0.0610171
0.062752
0.0641296
0.0651557
0.0658615
0.0662964
0.0665144
0.0665783
0.0665316
0.0663848
0.0661358
0.0657769
0.0652466
0.0644565
0.0633143
0.0176223
0.0362211
0.0449074
0.0506254
0.0549082
0.0583124
0.061105
0.0634271
0.0653903
0.0670253
0.0683304
0.0693164
0.0700155
0.07048
0.0707619
0.0709166
0.0709572
0.0708568
0.0706149
0.070203
0.0695489
0.0686008
0.0673312
0.0196117
0.0398202
0.0491222
0.0550459
0.0593183
0.0625668
0.0651263
0.0671968
0.0689284
0.0703736
0.0715499
0.0724703
0.0731553
0.0736434
0.0739784
0.0741925
0.0742714
0.0741853
0.0739272
0.0734682
0.0727679
0.0718307
0.0706895
0.0202879
0.0423774
0.0526283
0.0589677
0.0632624
0.0662802
0.0685235
0.0702731
0.0716972
0.0728978
0.0739087
0.0747382
0.0753951
0.0759
0.0762777
0.0765376
0.0766588
0.0766151
0.0763963
0.0759872
0.07538
0.0745989
0.0736868
0.020262
0.0439191
0.0552735
0.0622051
0.0666374
0.0694515
0.0713567
0.0727553
0.0738723
0.0748266
0.0756633
0.076391
0.0770094
0.0775213
0.0779307
0.0782321
0.0784059
0.0784334
0.0783038
0.0780097
0.0775552
0.0769607
0.076256
0.0205816
0.0450166
0.0571835
0.0645959
0.069295
0.072007
0.0736076
0.074691
0.0755418
0.0762854
0.0769689
0.077603
0.0781817
0.0786943
0.0791306
0.0794765
0.0797115
0.0798189
0.0797882
0.0796158
0.0793059
0.0788721
0.0783506
0.0221956
0.0466259
0.0591063
0.066451
0.0713408
0.0740129
0.0753473
0.0761586
0.0767929
0.0773753
0.07793
0.0784743
0.0790102
0.0795175
0.0799744
0.0803628
0.0806586
0.08084
0.0808948
0.0808233
0.0806319
0.080328
0.0799503
0.0235196
0.0476645
0.0607083
0.0677546
0.0718122
0.0743506
0.0756035
0.0763671
0.0770227
0.0776243
0.0781852
0.0787426
0.0793031
0.0798342
0.0803042
0.0806951
0.0809938
0.0811848
0.0812549
0.0812014
0.0810251
0.0807402
0.0804106
0.0262545
0.0500246
0.0611496
0.066778
0.070104
0.0723843
0.0738415
0.0749015
0.0758259
0.0766406
0.0773629
0.0780426
0.0786963
0.0792984
0.079823
0.0802533
0.0805776
0.0807856
0.0808699
0.0808286
0.0806657
0.0803954
0.0800649
0.0265622
0.049642
0.0589389
0.0640837
0.067478
0.0698199
0.0714803
0.072795
0.073971
0.0750433
0.0760029
0.0768657
0.0776583
0.0783684
0.0789764
0.0794685
0.079837
0.0800757
0.0801815
0.0801557
0.0800049
0.0797463
0.0794166
0.0248686
0.0470062
0.0558419
0.0609724
0.0644083
0.0668863
0.0687839
0.0703651
0.0717929
0.0731137
0.0743078
0.0753659
0.0763085
0.0771376
0.0778417
0.0784128
0.0788455
0.0791368
0.0792862
0.0792965
0.0791752
0.0789367
0.0786009
0.0220726
0.0433369
0.0521323
0.0573692
0.0610021
0.0637132
0.0658723
0.0677183
0.0693931
0.0709455
0.072359
0.0736116
0.0747097
0.0756653
0.0764774
0.0771426
0.077658
0.0780225
0.078237
0.0783052
0.0782337
0.0780332
0.0777105
0.0196176
0.0393009
0.0480548
0.053506
0.0573999
0.0603861
0.062822
0.0649322
0.066849
0.0686203
0.0702329
0.071661
0.0729088
0.0739934
0.07492
0.0756886
0.0762986
0.0767506
0.0770468
0.0771908
0.0771887
0.0770482
0.0767672
0.017351
0.0354182
0.0440188
0.049627
0.0537673
0.057026
0.0597323
0.0620937
0.0642336
0.0661997
0.0679816
0.069562
0.0709483
0.0721572
0.0731966
0.0740696
0.074778
0.075324
0.0757108
0.0759423
0.0760245
0.0759629
0.0757509
0.0153361
0.0319606
0.0403264
0.0460025
0.0503203
0.053799
0.0567303
0.0593006
0.0616209
0.0637384
0.0656556
0.0673623
0.0688686
0.0701888
0.0713318
0.0723031
0.0731067
0.0737463
0.0742261
0.0745505
0.0747258
0.0747565
0.0746326
0.0136694
0.0290881
0.0371748
0.0428274
0.0472301
0.0508444
0.0539265
0.0566391
0.059081
0.0613004
0.0633113
0.065112
0.066712
0.0681232
0.0693545
0.0704128
0.0713032
0.0720309
0.0726007
0.0730179
0.0732886
0.0734174
0.0733925
0.0124386
0.026841
0.0346271
0.0401791
0.044576
0.0482357
0.0513852
0.0541666
0.0566684
0.0589391
0.0610008
0.0628596
0.0645231
0.0660011
0.0673018
0.0684321
0.0693978
0.0702044
0.0708573
0.0713622
0.0717256
0.0719519
0.0720281
0.011641
0.0251721
0.0326422
0.0380333
0.0423498
0.0459774
0.0491208
0.051906
0.0544134
0.0566917
0.0587656
0.0606489
0.0623465
0.0638668
0.0652169
0.0664028
0.0674302
0.0683044
0.069031
0.0696156
0.0700649
0.0703829
0.0705567
0.0110989
0.0239645
0.0311135
0.0363043
0.0404893
0.0440302
0.0471148
0.0498572
0.0523305
0.0545812
0.0566372
0.0585152
0.0602218
0.0617634
0.0631444
0.0643702
0.0654457
0.0663757
0.0671654
0.0678201
0.0683463
0.0687477
0.0690113
0.0107077
0.0230618
0.0298979
0.0348723
0.0389002
0.0423248
0.0453209
0.0479934
0.0504097
0.0526139
0.0546342
0.0564886
0.0581853
0.0597296
0.0611258
0.0623777
0.0634893
0.0644645
0.065307
0.0660221
0.0666156
0.0670907
0.0674353
0.0103904
0.022321
0.0288625
0.0336233
0.0374895
0.0407893
0.043687
0.0462801
0.0486313
0.0507819
0.0527595
0.054582
0.0562596
0.0577973
0.0591986
0.0604665
0.0616041
0.0626143
0.0635008
0.0642677
0.0649198
0.0654595
0.0658755
0.0100941
0.0216387
0.0279095
0.0324714
0.0361855
0.0393664
0.0421697
0.0446865
0.0469753
0.0490748
0.0510114
0.0528023
0.0544589
0.0559867
0.0573888
0.0586677
0.0598257
0.0608653
0.0617891
0.0626005
0.0633034
0.0638995
0.0643788
0.00978924
0.0209557
0.0269809
0.031365
0.034944
0.0380199
0.0407406
0.0431916
0.0454274
0.0474844
0.0493872
0.0511527
0.0527923
0.0543123
0.0557159
0.0570053
0.0581824
0.0592489
0.0602069
0.0610587
0.0618073
0.0624541
0.0629891
0.00946509
0.0202494
0.0260533
0.0302824
0.0337459
0.0367342
0.0393875
0.0417864
0.0439818
0.0460075
0.0478871
0.0496364
0.0512668
0.0527852
0.0541951
0.0554985
0.0566969
0.0577915
0.0587837
0.0596748
0.0604668
0.0611604
0.0617467
0.00912256
0.0195213
0.0251272
0.0292237
0.0325918
0.0355099
0.0381116
0.0404726
0.0426406
0.0446475
0.0465151
0.0482591
0.0498904
0.0514162
0.0528403
0.0541645
0.0553898
0.0565168
0.057546
0.058478
0.0593136
0.0600527
0.0606873
0.00876975
0.0187871
0.0242175
0.0282029
0.0314944
0.0343589
0.0369235
0.0392599
0.0414129
0.0434125
0.0452799
0.0470298
0.0486734
0.0502177
0.0516663
0.0530207
0.0542814
0.055448
0.0565199
0.0574967
0.058378
0.059163
0.0598445
0.00841788
0.0180692
0.0233469
0.0272412
0.0304734
0.0332991
0.0358396
0.0381629
0.0403117
0.042315
0.0441932
0.045961
0.0476295
0.049205
0.0506909
0.0520879
0.0533952
0.0546111
0.0557337
0.0567612
0.0576921
0.0585248
0.0592526
0.00807909
0.0173913
0.0225395
0.026362
0.0295506
0.0323506
0.034878
0.037198
0.0393523
0.0413694
0.0432698
0.0450683
0.046776
0.0483983
0.0499375
0.0513926
0.0527608
0.0540384
0.0552218
0.0563074
0.0572925
0.0581749
0.0589488
0.00776419
0.0167746
0.0218181
0.0255876
0.0287476
0.0315334
0.0340568
0.0363818
0.0385501
0.0405909
0.0425259
0.0443706
0.0461353
0.0478243
0.0494372
0.0509702
0.0524172
0.0537718
0.0550276
0.0561796
0.0572239
0.0581577
0.0589763
0.00748141
0.0162357
0.0212024
0.0249393
0.0280851
0.0308666
0.0333934
0.0357298
0.0379198
0.0399954
0.0419803
0.0438912
0.0457371
0.0475194
0.0492332
0.0508696
0.0524179
0.0538673
0.0552087
0.0564352
0.0575423
0.0585274
0.0593873
0.00723568
0.0157881
0.0207131
0.0244417
0.0275876
0.0303721
0.0329057
0.0352573
0.037476
0.0395994
0.0416549
0.0436605
0.045622
0.0475349
0.0493865
0.0511597
0.0528365
0.054401
0.0558409
0.0571483
0.0583191
0.059352
0.0602464
0.00703068
0.0154528
0.0203883
0.024139
0.0272959
0.0300818
0.0326168
0.034981
0.037234
0.0394219
0.041578
0.0437204
0.0458484
0.0479458
0.0499857
0.0519381
0.0537754
0.0554757
0.0570246
0.0584147
0.0596443
0.0607157
0.0616322
0.00687721
0.0152944
0.0203323
0.0241385
0.0272959
0.0300545
0.0325627
0.0349227
0.0372107
0.0394854
0.0417873
0.044132
0.0465044
0.0488645
0.0511611
0.053345
0.0553768
0.0572299
0.0588903
0.0603552
0.0616291
0.0627207
0.0636394
0.0068251
0.0155441
0.0208599
0.0247162
0.0277789
0.0304024
0.032801
0.03511
0.0374244
0.0398168
0.042335
0.044987
0.0477257
0.0504633
0.0531074
0.0555816
0.057836
0.0598451
0.0616027
0.0631173
0.0644055
0.0654863
0.0663776
0.00708891
0.0170016
0.0228776
0.0265419
0.0291383
0.0313212
0.0334139
0.0355712
0.0378881
0.0404431
0.0432916
0.0464259
0.0497278
0.0530114
0.0561181
0.0589352
0.0614151
0.0635505
0.0653586
0.0668701
0.0681207
0.0691439
0.069968
0.0085983
0.0219912
0.0285376
0.0309405
0.0320258
0.0330744
0.0344809
0.0363127
0.0385918
0.0413787
0.0447466
0.0486725
0.0528637
0.0569314
0.0606315
0.0638033
0.0664462
0.0686138
0.0703723
0.0717888
0.0729238
0.0738268
0.0745351
0.0146705
0.034802
0.0408993
0.039417
0.0370259
0.0358066
0.0359819
0.0372686
0.0394686
0.0425946
0.0468066
0.052148
0.0577551
0.0628815
0.0672836
0.0706989
0.073306
0.0753034
0.0768401
0.0780265
0.0789453
0.0796554
0.0801978
0.0319475
0.0585004
0.0609914
0.051556
0.0435941
0.0391014
0.0376321
0.0382392
0.040354
0.0439626
0.0496036
0.0580818
0.0657268
0.0718933
0.0769409
0.0801806
0.0823174
0.0838058
0.0848816
0.0856771
0.0862738
0.0867239
0.0870614
0.0855855
0.0911338
0.0863307
0.0632775
0.0491266
0.0416372
0.0388036
0.0388863
0.0409645
0.0451267
0.0531274
0.0722321
0.0807415
0.0860457
0.0906823
0.0925824
0.0935238
0.0940892
0.09447
0.0947413
0.0949405
0.0950884
0.0951985
0.0316687
0.0275611
0.0249974
0.0236109
0.0483133
0.0468536
0.0454319
0.0442459
0.0564118
0.0553368
0.054176
0.0530437
0.0620498
0.0610573
0.0600048
0.0589975
0.0661581
0.0653534
0.0645615
0.0638258
0.0697554
0.0691549
0.0685813
0.0680465
0.0729767
0.0725309
0.0721062
0.071707
0.0756981
0.0753531
0.0750367
0.0747536
0.0779527
0.0777104
0.0774937
0.0773077
0.0796952
0.0795587
0.0794629
0.0793963
0.0801989
0.0800945
0.080032
0.0799875
0.0798212
0.0796729
0.0795469
0.0794257
0.0791353
0.0789346
0.0787281
0.0785168
0.0782839
0.0780487
0.0777981
0.0775368
0.0773812
0.0771348
0.0768678
0.0765838
0.0764563
0.0762215
0.0759629
0.0756817
0.0754861
0.0752823
0.0750535
0.0747976
0.0744334
0.0742739
0.0740893
0.0738753
0.0732691
0.0731604
0.0730277
0.0728644
0.0719827
0.0719257
0.071846
0.0717356
0.0705856
0.0705774
0.0705478
0.0704878
0.0691079
0.0691432
0.0691581
0.0691436
0.0675914
0.0676645
0.0677184
0.0677434
0.0660837
0.066189
0.0662756
0.0663344
0.0646324
0.0647652
0.0648798
0.0649671
0.0632822
0.0634388
0.063577
0.0636892
0.0620752
0.0622527
0.0624116
0.0625451
0.0610484
0.0612452
0.0614226
0.0615748
0.0602368
0.0604519
0.0606464
0.0608154
0.0596751
0.0599077
0.0601181
0.0603025
0.0594006
0.05965
0.0598755
0.0600736
0.0594555
0.0597205
0.0599592
0.0601687
0.0598906
0.0601687
0.0604177
0.0606352
0.0607674
0.0610546
0.0613092
0.0615297
0.0621613
0.0624511
0.0627049
0.0629212
0.0641622
0.0644454
0.0646889
0.0648919
0.0668746
0.0671391
0.0673608
0.0675389
0.070415
0.0706468
0.0708337
0.0709748
0.0749067
0.0750919
0.0752325
0.0753263
0.0804711
0.0805999
0.080688
0.0807316
0.0872233
0.0872933
0.0873333
0.0873379
0.0952474
0.0952658
0.0952734
0.0952671
0.0271277
0.0320084
0.0355589
0.0383161
0.0400069
0.0404398
0.0403601
0.0401016
0.0395439
0.0384643
0.0371108
0.0355848
0.0336097
0.0312356
0.0287847
0.0258996
0.0219465
0.0152988
0.00663634
0.0430871
0.042307
0.0425268
0.0433619
0.0442084
0.0446226
0.0444575
0.044011
0.04327
0.0421236
0.0406545
0.0389526
0.0368124
0.03434
0.031778
0.0287741
0.0243793
0.0165938
0.00669355
0.0513027
0.0497339
0.0490348
0.0488147
0.0487069
0.0485763
0.0482369
0.0476644
0.0468294
0.0456328
0.0440871
0.0422432
0.0400034
0.0374878
0.0348671
0.0317247
0.0270126
0.0189814
0.00793268
0.0574679
0.0560053
0.0549701
0.0541949
0.0535138
0.0528053
0.0520332
0.0511594
0.0501232
0.0488161
0.0472039
0.0453117
0.0431065
0.0406583
0.0379724
0.0345826
0.0296646
0.0220827
0.00979169
0.0627006
0.0614357
0.06031
0.059305
0.0583575
0.0572908
0.0560618
0.054756
0.0533648
0.0518056
0.0500305
0.0480524
0.0458651
0.0434451
0.0406341
0.0369824
0.0319507
0.0248263
0.0122069
0.0672014
0.0661461
0.0651084
0.0640837
0.0630099
0.0617353
0.0602007
0.0585025
0.056715
0.0548227
0.0527899
0.0506139
0.048285
0.045738
0.0427523
0.0389503
0.0339414
0.0269633
0.0136599
0.071074
0.0702378
0.0693719
0.068438
0.0673422
0.0659493
0.0642096
0.0622234
0.0601022
0.0578791
0.0555438
0.0530923
0.0505008
0.0476986
0.0444804
0.0405464
0.035533
0.0284378
0.0142152
0.0743231
0.0737636
0.0731467
0.0723867
0.0713512
0.0698907
0.0679856
0.0657645
0.0633706
0.0608589
0.0582282
0.0554916
0.0525975
0.0494645
0.0459485
0.0417937
0.0365976
0.0291808
0.0142375
0.0770477
0.0767878
0.0764822
0.0759984
0.0751101
0.0735908
0.0714692
0.0689866
0.066373
0.0636453
0.0607363
0.0577419
0.0545673
0.0510728
0.0472091
0.0427131
0.0371229
0.029342
0.013966
0.0793335
0.079429
0.0795041
0.0794271
0.0787794
0.0771024
0.0745629
0.071694
0.0689389
0.0661265
0.0628266
0.0593169
0.0558253
0.0521316
0.0481139
0.0432681
0.0371159
0.0294912
0.0149444
0.0799481
0.0799737
0.0800922
0.0802088
0.0797376
0.0780745
0.0754393
0.0726232
0.0699976
0.067202
0.0637426
0.0598049
0.0557962
0.051762
0.0475208
0.0424886
0.0363637
0.0287119
0.0154062
0.0792253
0.0789755
0.078768
0.0784623
0.0776632
0.0760991
0.0739178
0.0715828
0.0691572
0.0664368
0.0631174
0.0591715
0.0550353
0.0508003
0.0463965
0.0412413
0.0347377
0.0263602
0.013277
0.0781696
0.0776891
0.077192
0.0765576
0.0754809
0.0738149
0.0717473
0.0695461
0.0672295
0.0646
0.061319
0.0574039
0.0533369
0.0491957
0.0446915
0.0392257
0.0322765
0.0234263
0.0113152
0.0770953
0.0764324
0.0757047
0.0748188
0.0735697
0.0718369
0.0697443
0.0674893
0.0650996
0.0624108
0.0591837
0.0554361
0.051484
0.0473622
0.0427628
0.0372188
0.0302583
0.0216128
0.0102238
0.0760865
0.0752947
0.0744079
0.0733637
0.072035
0.0703154
0.0682394
0.0659318
0.0634307
0.0606593
0.0575079
0.0539804
0.0501913
0.0461171
0.0415344
0.0360952
0.0294334
0.0210885
0.00984729
0.075168
0.0743101
0.0733445
0.0722305
0.0708878
0.0692297
0.0672368
0.0649653
0.062456
0.059699
0.0566626
0.0533367
0.0497251
0.0457639
0.0412908
0.0360545
0.029704
0.0215751
0.00999916
0.0743054
0.0734409
0.0724631
0.0713447
0.0700328
0.0684592
0.0665842
0.0644207
0.062
0.0593404
0.0564407
0.0532837
0.0498318
0.0460087
0.0416862
0.0366573
0.0305595
0.0225714
0.0103793
0.0734343
0.0726085
0.0716646
0.0705816
0.0693241
0.0678401
0.066087
0.0640571
0.0617677
0.0592376
0.056471
0.0534486
0.050124
0.0464235
0.0422368
0.0373763
0.0314671
0.0235854
0.0107848
0.0724915
0.0717331
0.0708496
0.069823
0.0686287
0.0672285
0.065585
0.0636818
0.0615232
0.0591187
0.0564689
0.0535533
0.0503285
0.046729
0.0426563
0.0379334
0.0321836
0.0244231
0.0111596
0.0714383
0.0707606
0.0699497
0.0689883
0.0678589
0.0665337
0.0649826
0.0631869
0.0611414
0.0588466
0.0562968
0.0534714
0.0503323
0.0468227
0.0428532
0.0382566
0.0326608
0.0250453
0.0114688
0.0702651
0.069672
0.0689369
0.0680433
0.0669777
0.0657203
0.0642476
0.0625413
0.0605914
0.0583913
0.055931
0.0531893
0.0501332
0.0467125
0.0428456
0.0383726
0.0329271
0.0254606
0.011703
0.0689908
0.0684797
0.0678193
0.0669932
0.0659903
0.0647966
0.0633937
0.0617652
0.0598988
0.0577844
0.0554086
0.0527506
0.0497803
0.0464525
0.0426904
0.0383393
0.0330355
0.0257019
0.0118573
0.0676526
0.0672185
0.0666297
0.0658698
0.0649293
0.0637979
0.062461
0.0609044
0.0591155
0.0570822
0.0547897
0.052217
0.0493359
0.0461039
0.0424468
0.0382125
0.0330384
0.0258286
0.0119483
0.0662986
0.0659356
0.0654146
0.0647193
0.0638412
0.0627721
0.0615003
0.0600135
0.0582993
0.0563452
0.0541352
0.0516485
0.0488574
0.0457203
0.0421638
0.0380373
0.032978
0.0258796
0.0119929
0.064979
0.0646819
0.0642252
0.0635926
0.0627766
0.0617702
0.0605635
0.0591456
0.0575047
0.0556281
0.0534989
0.0510962
0.0483921
0.0453447
0.0418803
0.0378486
0.0328882
0.025891
0.0120096
0.0637447
0.0635078
0.0631111
0.0625392
0.0617844
0.0608406
0.0596987
0.0583488
0.0567794
0.0549775
0.0529256
0.0506022
0.0479786
0.045012
0.0416279
0.0376763
0.0327973
0.0258844
0.0120122
0.0626394
0.0624584
0.062118
0.0616044
0.0609095
0.060027
0.0589486
0.0576647
0.0561641
0.0544329
0.0524531
0.0502021
0.0476503
0.0447533
0.0414359
0.0375482
0.0327328
0.0258882
0.0120165
0.0617032
0.0615744
0.0612873
0.0608287
0.060191
0.0593678
0.0583506
0.05713
0.0556944
0.0540291
0.0521149
0.0499284
0.0474384
0.044599
0.041334
0.037494
0.0327234
0.0259239
0.0120347
0.0609745
0.0608946
0.060657
0.0602496
0.0596652
0.0588973
0.0579377
0.0567766
0.0554016
0.0537967
0.051942
0.0498124
0.0473747
0.0445813
0.0413544
0.0375447
0.0328003
0.0260252
0.0120811
0.0604901
0.0604551
0.0602627
0.0599016
0.0593655
0.058648
0.0577411
0.0566345
0.0553151
0.0537657
0.0519649
0.0498857
0.0474924
0.0447349
0.0415331
0.0377369
0.0329956
0.0262102
0.012172
0.0602861
0.0602917
0.0601388
0.059818
0.0593236
0.0586501
0.0577896
0.0567319
0.0554629
0.0539646
0.0522137
0.0501808
0.0478271
0.0450984
0.0419108
0.0381116
0.0333491
0.0265179
0.0123239
0.0604025
0.0604422
0.0603215
0.0600324
0.0595708
0.0589322
0.0581098
0.0570937
0.0558697
0.0544188
0.0527162
0.0507295
0.0484153
0.0457138
0.0425345
0.0387183
0.0339086
0.0269854
0.0125495
0.0608842
0.0609492
0.06085
0.0605806
0.0601387
0.059522
0.0587256
0.0577409
0.0565549
0.0551487
0.0534957
0.0515599
0.0492923
0.0466249
0.0434566
0.039616
0.0347342
0.0276671
0.0128805
0.0617855
0.0618628
0.0617696
0.0615018
0.0610599
0.0604449
0.0596559
0.0586877
0.0575301
0.0561655
0.0545662
0.0526926
0.0504888
0.0478754
0.044735
0.0408749
0.0359014
0.0286309
0.0133423
0.0631716
0.0632427
0.0631332
0.0628406
0.0623685
0.0617238
0.0609127
0.0599374
0.0587934
0.0574658
0.0559271
0.0541346
0.0520251
0.0495051
0.0464337
0.0425825
0.0375115
0.0299716
0.0139929
0.065121
0.0651609
0.0650042
0.0646474
0.0640985
0.0633745
0.0624954
0.0614768
0.0603231
0.0590242
0.0575548
0.0558709
0.0539034
0.0515445
0.048622
0.0448517
0.0397097
0.031832
0.0148991
0.0677276
0.0677055
0.0674598
0.066981
0.066283
0.0654014
0.0643837
0.0632675
0.0620692
0.0607854
0.0593942
0.0578543
0.056097
0.054005
0.0513732
0.0478362
0.0427204
0.0344519
0.0162056
0.0711028
0.0709849
0.0705974
0.0699127
0.0689539
0.0677898
0.066527
0.065236
0.0639456
0.0626564
0.0613506
0.0599955
0.0585357
0.0568639
0.0547579
0.0517515
0.0469089
0.0382599
0.0181606
0.0753776
0.0751366
0.0745484
0.0735391
0.0721508
0.0704961
0.0688285
0.0672622
0.0658231
0.064503
0.0632852
0.0621535
0.0610889
0.0600397
0.0588241
0.0568935
0.0528783
0.0440921
0.0213608
0.0807058
0.0803425
0.0795134
0.0780253
0.0759741
0.0734353
0.0711255
0.0691692
0.0675283
0.0661537
0.065019
0.0641327
0.0635466
0.0633425
0.0635273
0.0636162
0.0615283
0.0535981
0.0273922
0.0872647
0.0868524
0.0858483
0.0837556
0.0808486
0.0764574
0.0731578
0.0707195
0.0688561
0.067417
0.0663504
0.0656928
0.0655973
0.0663817
0.0685182
0.0720736
0.0738538
0.0694636
0.0416273
0.0952204
0.0949819
0.094239
0.0919628
0.0888525
0.0791514
0.0745061
0.0716274
0.0695965
0.0681098
0.0670823
0.0665712
0.0668214
0.0684225
0.0726114
0.0809671
0.0902837
0.0927523
0.0868595
)
;

boundaryField
{
    leftWall
    {
        type            kqRWallFunction;
        value           nonuniform List<scalar> 
50
(
0.000747894
0.0018657
0.00267092
0.00341425
0.00415307
0.00496406
0.00591918
0.00703816
0.00853863
0.0108461
0.0131264
0.0153806
0.0176223
0.0196117
0.0202879
0.020262
0.0205816
0.0221956
0.0235196
0.0262545
0.0265622
0.0248686
0.0220726
0.0196176
0.017351
0.0153361
0.0136694
0.0124386
0.011641
0.0110989
0.0107077
0.0103904
0.0100941
0.00978924
0.00946509
0.00912256
0.00876975
0.00841788
0.00807909
0.00776419
0.00748141
0.00723568
0.00703068
0.00687721
0.0068251
0.00708891
0.0085983
0.0146705
0.0319475
0.0855855
)
;
    }
    rightWall
    {
        type            kqRWallFunction;
        value           nonuniform List<scalar> 
50
(
0.00109261
0.00259874
0.0038919
0.00540075
0.00794966
0.00908936
0.00858637
0.00769767
0.00663634
0.00669355
0.00793268
0.00979169
0.0122069
0.0136599
0.0142152
0.0142375
0.013966
0.0149444
0.0154062
0.013277
0.0113152
0.0102238
0.00984729
0.00999916
0.0103793
0.0107848
0.0111596
0.0114688
0.011703
0.0118573
0.0119483
0.0119929
0.0120096
0.0120122
0.0120165
0.0120347
0.0120811
0.012172
0.0123239
0.0125495
0.0128805
0.0133423
0.0139929
0.0148991
0.0162056
0.0181606
0.0213608
0.0273922
0.0416273
0.0868595
)
;
    }
    lowerWall
    {
        type            kqRWallFunction;
        value           nonuniform List<scalar> 
62
(
0.000747894
0.00224398
0.00362931
0.00483335
0.00587705
0.00679596
0.0076028
0.00830172
0.00889262
0.0093721
0.00973576
0.00997992
0.0101019
0.010098
0.00997034
0.00975311
0.00942538
0.00897561
0.00837648
0.0075677
0.00639475
0.00459148
0.00168286
0.00168286
0.00451286
0.00667304
0.0086916
0.010595
0.0126184
0.0154686
0.0220839
0.0316687
0.0275611
0.0249974
0.0236109
0.00154725
0.00410711
0.00582555
0.00688204
0.00773792
0.00929373
0.0122842
0.0179949
0.00154725
0.00439146
0.00603297
0.00704377
0.00773946
0.00820675
0.00808456
0.00828217
0.00893889
0.008943
0.00849885
0.00764377
0.00700322
0.00683248
0.00604417
0.00526583
0.00434666
0.00299755
0.00109261
)
;
    }
    atmosphere
    {
        type            inletOutlet;
        inletValue      uniform 0.1;
        value           nonuniform List<scalar> 
46
(
0.1
0.1
0.1
0.0632775
0.0491266
0.0416372
0.0388036
0.0388863
0.0409645
0.0451267
0.0531274
0.1
0.1
0.1
0.1
0.1
0.1
0.1
0.1
0.1
0.1
0.1
0.1
0.1
0.1
0.1
0.1
0.1
0.1
0.1
0.1
0.1
0.0791514
0.0745061
0.0716274
0.0695965
0.0681098
0.0670823
0.0665712
0.0668214
0.0684225
0.0726114
0.0809671
0.1
0.1
0.1
)
;
    }
    defaultFaces
    {
        type            empty;
    }
}


// ************************************************************************* //
