/*--------------------------------*- C++ -*----------------------------------*\
  =========                 |
  \\      /  F ield         | OpenFOAM: The Open Source CFD Toolbox
   \\    /   O peration     | Website:  https://openfoam.org
    \\  /    A nd           | Version:  13
     \\/     M anipulation  |
\*---------------------------------------------------------------------------*/
FoamFile
{
    format      ascii;
    class       volScalarField;
    location    "2.55";
    object      p;
}
// * * * * * * * * * * * * * * * * * * * * * * * * * * * * * * * * * * * * * //

dimensions      [1 -1 -2 0 0 0 0];

internalField   nonuniform List<scalar> 
2268
(
4826.81
4840.34
4865.11
4899.89
4940.9
4987.57
5039.94
5098.45
5163.79
5236.61
5317.22
5405.56
5501.1
5602.86
5709.42
5819.41
5931.24
6042.76
6150.88
6251.21
6337.76
6400.91
6440.79
4028.05
4040.28
4062.87
4096.36
4137.05
4183.82
4236.44
4295.18
4360.75
4433.87
4514.99
4604.13
4700.89
4804.35
4913.16
5025.94
5141.02
5256
5367.35
5469.98
5556.64
5613.36
5649.95
3227.28
3239.31
3260.16
3292.14
3332.08
3378.67
3431.39
3490.36
3556.18
3629.73
3711.52
3801.7
3899.93
4005.42
4116.75
4232.59
4351.15
4469.69
4584.15
4688.65
4775.13
4827.99
4868.2
2424.36
2436.66
2456.55
2487.35
2526.39
2572.58
2625.23
2684.13
2750.23
2824.34
2907.02
2998.49
3098.5
3206.34
3320.28
3439.05
3560.76
3682.42
3799.32
3905.66
3993.44
4048.91
4094.72
1622.62
1637.6
1657.05
1686.54
1724.05
1769.2
1821.11
1878.73
1944.21
2018.32
2101.51
2194.14
2296.11
2406.77
2523.6
2645.5
2770.63
2895.59
3015.42
3123.89
3214.61
3276.41
3330.38
1055.99
1065.48
1074.77
1088.25
1105.05
1125.55
1149.86
1182.6
1224.2
1275.1
1337
1411.94
1501.84
1607.57
1725.24
1850.44
1980.02
2110.22
2235.07
2346.32
2441
2511.63
2574.95
857.81
861.143
861.532
860.477
858.22
855.455
852.835
855.187
862.539
874.669
892.913
919.156
955.485
1003.77
1065.64
1143.62
1236.26
1340.64
1452.65
1567.43
1667.11
1749.79
1840.67
797.762
801.08
802.351
801.771
799.908
797.306
794.389
790.587
786.748
783.143
779.62
776.129
772.816
770.242
771.899
783.934
807.768
842.518
888.278
944.398
997.05
1046.6
1127.19
2172.22
2204.92
2280.78
2386.15
2508.49
2602.52
2615.74
2628.84
2639.05
2622.79
2578.43
2520.29
2493.79
2492.16
2472.72
2465.3
2457.33
2452.13
2454.43
1592.85
1612.16
1666.55
1755.91
1837.44
1930.77
2010.16
2043.36
2039.06
2018.29
1988.36
1963.71
1928.56
1882.24
1856.77
1851.47
1846.24
1844.44
1848.7
1270.71
1280.26
1298.97
1332.82
1343
1368.52
1419.3
1435.99
1418.72
1393.4
1386.16
1390.9
1362.29
1320.38
1294.17
1277.36
1281.2
1302.7
1316.85
1100.01
1106.24
1115.69
1114.87
1103.08
1055.72
1059.73
1055.64
1042.31
1007.33
994.6
1005.64
994.178
962.988
950.054
939.713
945.188
958.265
956.629
955.569
960.191
972.296
972.247
978.011
948.983
927.863
920.191
912.583
880.55
855.744
842.964
827.695
821.712
841.452
852.193
850.382
832.777
807.496
847.83
850.341
847.964
845.499
860.906
870.437
859.416
849.037
829.321
812.131
800.615
778.345
754.253
768.83
796.145
803.946
800.134
783.858
769.204
772.034
775.087
755.805
744.85
750.804
777.651
777.094
764.065
742.019
743.585
742.242
739.544
733.913
739.318
744.93
744.972
740.888
727.86
723.928
697.872
707.694
693.758
674.754
665.705
682.286
680.509
671.644
667.591
679.61
683.442
686.082
700.005
697.685
689.443
687.034
683.855
673.942
677.596
702.886
705.797
707.442
707.216
705.664
703.285
700.317
696.909
693.279
689.653
685.976
682.253
678.594
675.283
672.386
669.204
665.229
659.906
652.88
645.277
638.825
631.608
625.145
573.144
576.338
578.356
578.397
577.144
574.966
572.024
568.62
565.105
561.557
557.984
554.385
550.822
547.481
544.195
540.407
535.682
529.842
522.39
512.481
499.687
484.082
466.609
447.78
449.533
450.479
450.21
449.258
447.35
444.143
440.541
436.965
433.491
430.065
426.675
423.366
420.323
417.183
413.507
409.304
404.314
398.314
390.83
381.887
371.246
361.306
333.668
333.721
333.118
332.246
330.867
328.556
326.261
323.15
320.04
317.281
314.805
313.002
311.236
309.129
306.587
304.127
302.224
300.123
297.101
293.826
289.894
285.335
282.301
247.613
247.524
247.164
246.11
244.03
242.261
241.564
240.539
239.124
237.743
236.589
235.558
234.439
232.944
231.305
230.021
228.979
227.886
226.517
225.172
224.284
224.166
225.212
184.565
183.99
184.116
183.526
182.465
181.841
181.064
180.568
179.842
178.828
177.668
176.006
174.339
172.868
171.603
170.244
168.387
166.584
165.416
164.573
164.117
164.684
165.782
122.273
122.442
122.909
122.926
122.642
121.918
120.294
118.845
117.433
115.868
114.083
112.244
110.466
108.85
107.391
105.952
104.477
103.17
102.326
101.815
101.726
102.191
103.067
59.4714
63.0201
63.2973
62.9346
62.1023
60.9219
59.1727
57.0077
54.8565
52.987
51.2825
49.5894
48.0194
46.6814
45.5599
44.5691
43.7612
43.2933
43.0355
42.9058
42.8968
43.0899
43.232
16.365
19.906
20.6681
19.6132
18.4255
17.6997
16.6972
15.298
14.126
13.3436
12.7487
12.1585
11.6484
11.2825
11.0162
10.8115
10.6936
10.7046
10.8035
10.9164
11.0257
11.1852
11.4896
4.71038
4.75066
5.07744
5.0418
4.75686
4.77377
4.82301
4.88551
4.94055
4.98895
5.03536
5.08269
5.12973
5.17475
5.21799
5.26318
5.31212
5.36305
5.41476
5.46634
5.51711
5.57194
5.62795
4.59873
4.59773
4.56088
4.56646
4.60139
4.63349
4.66902
4.71489
4.7658
4.81805
4.87118
4.92606
4.98237
5.0395
5.09735
5.15613
5.21593
5.2766
5.33764
5.39809
5.45708
5.51254
5.57148
4.47741
4.46835
4.45999
4.46653
4.4937
4.52156
4.55649
4.60005
4.64793
4.69665
4.74587
4.79694
4.84976
4.90377
4.95896
5.01535
5.07296
5.13174
5.19125
5.25031
5.30746
5.35908
5.4096
4.35814
4.34861
4.34088
4.35229
4.37218
4.39869
4.43292
4.4747
4.52037
4.56715
4.61442
4.66214
4.7122
4.76395
4.81703
4.87148
4.92736
4.98463
5.04286
5.10072
5.15647
5.20643
5.25593
4.23457
4.22392
4.22146
4.22738
4.24383
4.26899
4.30065
4.33808
4.38055
4.42657
4.47353
4.52044
4.56944
4.62022
4.67246
4.72609
4.78124
4.8379
4.89562
4.95296
5.00809
5.05737
5.10674
4.10598
4.09867
4.09602
4.10155
4.11595
4.1383
4.1662
4.1986
4.23715
4.28038
4.32624
4.37388
4.42267
4.47289
4.52449
4.57752
4.63209
4.68823
4.74549
4.80239
4.85697
4.90569
4.95472
3.97283
3.96833
3.96774
3.97341
3.98632
4.00597
4.03102
4.06023
4.09438
4.13401
4.17792
4.22512
4.27316
4.32237
4.37297
4.42509
4.47878
4.53406
4.59051
4.64662
4.70049
4.74858
4.79688
3.8358
3.83356
3.83491
3.8412
3.85328
3.87101
3.89396
3.92149
3.95328
3.98977
4.03116
4.07564
4.12176
4.1694
4.2186
4.26942
4.32183
4.3759
4.4312
4.48627
4.53917
4.5864
4.63399
3.69602
3.69551
3.69818
3.70498
3.71658
3.73313
3.75449
3.78039
3.81057
3.84498
3.88338
3.92494
3.96873
4.01441
4.06187
4.11099
4.16181
4.21437
4.26826
4.32198
4.37371
4.41996
4.46647
3.55429
3.55502
3.55853
3.5656
3.57684
3.5925
3.61259
3.63694
3.66537
3.69769
3.73358
3.77253
3.81396
3.85752
3.90296
3.95016
3.99914
4.04995
4.10215
4.15435
4.20463
4.24962
4.29503
3.41101
3.41255
3.41656
3.42373
3.43462
3.44949
3.46842
3.49131
3.51801
3.54832
3.58194
3.61846
3.65753
3.69883
3.74209
3.7872
3.83416
3.88301
3.93335
3.98373
4.03239
4.07597
4.1198
3.26632
3.26829
3.27255
3.27968
3.29017
3.30429
3.32213
3.34364
3.36871
3.39712
3.42861
3.46285
3.49957
3.53853
3.57952
3.62239
3.66717
3.71389
3.76215
3.81058
3.85741
3.89935
3.94175
3.1203
3.12243
3.12673
3.13369
3.14373
3.1571
3.17389
3.19407
3.21755
3.24415
3.27364
3.30572
3.34016
3.37679
3.41542
3.45596
3.49842
3.54286
3.58887
3.63512
3.67994
3.72019
3.76085
2.97309
2.97519
2.97938
2.98607
2.9956
3.0082
3.02394
3.04281
3.06473
3.08955
3.11708
3.14708
3.1793
3.21363
3.24991
3.28807
3.32814
3.37015
3.41372
3.45764
3.50019
3.53843
3.57741
2.8248
2.82676
2.83074
2.83708
2.84605
2.85785
2.87254
2.89011
2.91049
2.93356
2.95915
2.98707
3.01709
3.0491
3.08302
3.11877
3.15638
3.19589
3.23693
3.27828
3.31838
3.35433
3.39131
2.67555
2.67732
2.68102
2.68695
2.69533
2.7063
2.71993
2.7362
2.75505
2.77639
2.80006
2.8259
2.85373
2.88342
2.91491
2.94818
2.98325
3.02016
3.05856
3.09731
3.13483
3.16822
3.20355
2.52548
2.52705
2.53043
2.5359
2.54364
2.55377
2.56632
2.5813
2.59864
2.61825
2.64002
2.66379
2.68942
2.71678
2.74584
2.77657
2.80902
2.84323
2.87889
2.9149
2.94989
2.98123
3.01339
2.37471
2.37609
2.37915
2.38413
2.3912
2.40046
2.41193
2.42561
2.44144
2.45934
2.47922
2.50095
2.52439
2.54943
2.57602
2.60419
2.63396
2.66541
2.69822
2.73145
2.76372
2.79265
2.8222
2.2234
2.22461
2.22733
2.23181
2.23819
2.24656
2.25694
2.26931
2.28365
2.29987
2.31788
2.33758
2.35884
2.38156
2.40571
2.43129
2.45837
2.48701
2.51695
2.54725
2.57673
2.60313
2.6298
2.07167
2.07275
2.07515
2.07911
2.08478
2.09224
2.10151
2.1126
2.12544
2.14
2.15617
2.17387
2.19298
2.21341
2.23512
2.25814
2.28252
2.30833
2.33533
2.36272
2.38933
2.41309
2.43725
1.91968
1.92064
1.92273
1.92617
1.93111
1.93765
1.94582
1.9556
1.96698
1.9799
1.99427
2.01001
2.027
2.04518
2.06449
2.08495
2.10664
2.12963
2.15371
2.1781
2.20184
2.22307
2.24451
1.76756
1.76843
1.77021
1.77312
1.77732
1.78292
1.78998
1.79848
1.80842
1.81973
1.83234
1.84617
1.8611
1.87707
1.89402
1.91197
1.93099
1.95116
1.97228
1.99371
2.0145
2.03304
2.05197
1.61545
1.61624
1.61771
1.62008
1.62352
1.62818
1.63412
1.64135
1.64987
1.65962
1.67054
1.68251
1.69545
1.70927
1.72392
1.7394
1.7558
1.77317
1.79137
1.80976
1.8276
1.84342
1.85939
1.46349
1.4642
1.46537
1.46717
1.46983
1.47352
1.47833
1.48432
1.49146
1.4997
1.50898
1.51919
1.53021
1.54196
1.55438
1.56748
1.58132
1.59596
1.61126
1.62672
1.64161
1.65468
1.66798
1.31182
1.31248
1.31331
1.31452
1.31635
1.31903
1.32271
1.32745
1.33325
1.34006
1.34778
1.35631
1.36551
1.3753
1.3856
1.39642
1.40782
1.41985
1.43239
1.44499
1.45709
1.46763
1.4782
1.16059
1.1612
1.1617
1.16224
1.16317
1.16479
1.1673
1.1708
1.17531
1.18074
1.18701
1.19396
1.20147
1.20942
1.21775
1.22645
1.23557
1.24515
1.25511
1.26508
1.27455
1.28267
1.29089
1.00991
1.01052
1.01066
1.01045
1.01035
1.01079
1.01209
1.01436
1.01761
1.02176
1.02667
1.03218
1.03815
1.04445
1.05099
1.05776
1.06482
1.0722
1.07983
1.08737
1.09446
1.10039
1.10622
0.859863
0.860559
0.860331
0.859207
0.857861
0.856982
0.856991
0.858044
0.860114
0.863073
0.866752
0.870983
0.875602
0.88046
0.885444
0.890544
0.895796
0.901233
0.906783
0.912212
0.91721
0.92121
0.92519
0.710408
0.711315
0.710672
0.708347
0.705461
0.703084
0.701774
0.701665
0.702657
0.704551
0.707143
0.710268
0.713773
0.71747
0.721172
0.724864
0.72858
0.732341
0.736111
0.739697
0.742916
0.745387
0.747754
0.561182
0.562404
0.561159
0.557144
0.552412
0.548505
0.546011
0.544932
0.545032
0.546025
0.547677
0.54987
0.552479
0.555332
0.558056
0.560578
0.562987
0.565311
0.567538
0.569566
0.571262
0.572366
0.573458
0.411138
0.412427
0.409907
0.403522
0.397128
0.392254
0.389168
0.387599
0.387156
0.387495
0.388395
0.389811
0.391641
0.393835
0.395561
0.3969
0.398072
0.399109
0.400031
0.40074
0.401118
0.400973
0.400383
0.259478
0.258433
0.253356
0.243326
0.23721
0.2332
0.230812
0.22959
0.22915
0.229207
0.229604
0.230264
0.231435
0.232901
0.234486
0.233971
0.233847
0.233777
0.233698
0.233491
0.232965
0.231957
0.229636
0.0951924
0.0896317
0.0848927
0.0786106
0.0770206
0.0761319
0.075722
0.0756202
0.0757184
0.075925
0.0761861
0.0763669
0.0768109
0.0778778
0.0789789
0.0765728
0.0756974
0.0752686
0.0749511
0.0746305
0.0741962
0.0735281
0.0718526
610.952
603.632
601.675
600.841
464.332
467.706
468.898
467.624
358.857
359.925
361.987
363.645
283.41
284.974
287.583
291.456
226.02
226.981
228.573
230.604
166.498
166.974
167.728
168.72
104.058
104.713
105.303
105.778
42.5826
42.5858
43.1626
44.1101
11.9458
12.2035
12.4672
12.6307
5.68066
5.7342
5.8039
5.87297
5.65538
5.73177
5.81334
5.8728
5.48289
5.56146
5.64944
5.71723
5.33373
5.4164
5.50756
5.57524
5.18714
5.2715
5.36382
5.43147
5.03507
5.11965
5.21247
5.28026
4.87653
4.96073
5.05335
5.12133
4.71239
4.79572
4.88805
4.95581
4.54356
4.62572
4.71685
4.78412
4.37016
4.45068
4.5406
4.60694
4.1928
4.27128
4.3591
4.42443
4.01211
4.08815
4.1739
4.23762
3.82874
3.9021
3.98473
4.04655
3.64214
3.71244
3.79218
3.85171
3.45263
3.51951
3.59552
3.65294
3.26095
3.32401
3.3966
3.45146
3.06755
3.12714
3.19539
3.2473
2.87244
2.92824
2.99294
3.04214
2.67612
2.72787
2.78803
2.8345
2.47927
2.52675
2.58276
2.62594
2.28272
2.32596
2.37684
2.41661
2.0859
2.12475
2.1711
2.20721
1.88906
1.92343
1.96466
1.99759
1.69307
1.72294
1.75978
1.78936
1.49932
1.52493
1.55677
1.58314
1.30798
1.32947
1.35708
1.38011
1.11968
1.13728
1.16037
1.18048
0.935199
0.949178
0.968495
0.98553
0.755197
0.766047
0.781282
0.795302
0.57855
0.586567
0.598418
0.609379
0.402958
0.408119
0.416548
0.425183
0.227289
0.229026
0.23454
0.241838
0.0684981
0.0681155
0.0699778
0.0737599
598.174
598.651
593.566
583.606
571.802
566.689
565.509
569.287
577.273
586.432
592.072
597.509
610.195
608.448
600.989
597.749
596.399
593.121
598.836
463.144
463.973
466.223
464.943
453.839
444.997
448.328
452.561
457.105
462.787
467.855
473.489
480.834
481.754
479.068
477.724
478.89
482.081
486.778
365.822
368.755
370.296
369.666
364.832
360.436
358.976
358.705
360.39
362.655
364.888
367.749
371.378
373.297
374.699
377.633
382.237
387.328
390.446
298.027
300.954
300.294
299.444
299.834
297.241
292.88
291.714
291.869
292.403
292.736
293.217
294.311
296.408
299.94
304.955
310.226
314.219
316.844
234.311
236.549
236.505
236.252
236.448
236.086
233.988
231.696
230.175
229.922
230.119
230.765
232.135
234.36
237.655
241.898
246.035
248.741
251.03
170.408
171.791
172.24
172.363
172.5
172.182
170.751
169.012
167.766
167.296
167.417
168.198
169.74
172.031
175.254
179.31
183.409
186.821
190.467
106.471
107.369
107.94
108.185
108.286
107.988
107.048
105.859
104.818
104.209
104.212
105.063
106.734
108.901
112.216
116.881
121.891
126.634
130.803
45.8666
46.6315
47.0249
47.322
47.3626
47.0267
46.2743
45.2917
44.2722
43.4194
42.9273
43.1261
44.6497
46.802
50.017
54.5605
59.9905
65.8743
71.1031
12.6331
12.775
12.9749
13.0921
13.0692
12.8156
12.3123
11.6836
11.0726
10.5572
10.2201
9.95693
10.508
11.6288
13.1951
15.1464
17.8956
21.1228
24.6265
5.95227
5.97074
5.9967
6.04819
6.1082
6.14647
6.16345
6.17894
6.2238
6.29819
6.43448
6.52691
6.52907
6.54769
6.60338
6.71597
7.10438
6.97852
6.89518
5.9227
5.95183
5.9827
6.02637
6.07242
6.0929
6.09047
6.0761
6.07806
6.09178
6.11362
6.1217
6.09415
6.05228
6.02094
5.99822
5.96082
5.93419
5.94053
5.77653
5.80046
5.82449
5.85157
5.88123
5.90129
5.90917
5.91489
5.92387
5.9314
5.93727
5.92941
5.90787
5.8892
5.86335
5.83781
5.81197
5.79575
5.80111
5.63077
5.65079
5.66967
5.68575
5.70102
5.72013
5.73996
5.76402
5.77714
5.78136
5.77648
5.77267
5.76921
5.7578
5.74013
5.71704
5.69379
5.67589
5.6709
5.48514
5.50374
5.52218
5.53992
5.5551
5.57343
5.5968
5.61656
5.6291
5.63488
5.63471
5.63256
5.62944
5.62084
5.60635
5.58804
5.56741
5.54986
5.5405
5.33386
5.35238
5.37137
5.39137
5.4099
5.42897
5.44862
5.46547
5.47698
5.48315
5.4845
5.48296
5.47923
5.47144
5.45929
5.44376
5.42657
5.41138
5.40161
5.17527
5.19396
5.21352
5.23496
5.25531
5.27479
5.29314
5.30859
5.31971
5.32631
5.32863
5.32769
5.32376
5.31618
5.30487
5.2908
5.27567
5.26209
5.25261
5.00971
5.02875
5.04879
5.07111
5.09252
5.11248
5.13046
5.14547
5.15667
5.16383
5.16703
5.16674
5.16312
5.15596
5.1455
5.13267
5.1189
5.10621
5.09717
4.83793
4.85718
4.87764
4.90059
4.9227
4.9431
4.96115
4.9762
4.9877
4.99545
4.99945
4.99988
4.99684
4.99038
4.98089
4.96919
4.95654
4.94469
4.93649
4.66016
4.67969
4.70046
4.72388
4.74651
4.76733
4.78564
4.80095
4.81288
4.82126
4.82602
4.82722
4.82495
4.81936
4.81086
4.80025
4.78866
4.77775
4.77057
4.47718
4.49671
4.51768
4.54141
4.56442
4.58562
4.60429
4.62
4.63245
4.6415
4.64703
4.64907
4.64768
4.64305
4.6356
4.62608
4.61557
4.60575
4.5993
4.28916
4.30874
4.32976
4.35366
4.37696
4.39851
4.41757
4.43375
4.44678
4.45652
4.46286
4.46578
4.46535
4.46174
4.45539
4.44701
4.43764
4.42888
4.42302
4.09685
4.11619
4.13717
4.16114
4.18463
4.20648
4.22594
4.24262
4.25628
4.26674
4.27391
4.27776
4.27832
4.2758
4.27058
4.26335
4.25518
4.24738
4.24209
3.90028
3.91954
3.9404
3.96434
3.98796
4.01006
4.0299
4.04708
4.06137
4.07257
4.0806
4.0854
4.08701
4.0856
4.08153
4.07548
4.06844
4.0615
4.05685
3.70025
3.71928
3.73997
3.76378
3.78743
3.80973
3.82991
3.84758
3.8625
3.87445
3.88335
3.88912
3.89179
3.89151
3.88861
3.8837
3.87771
3.87168
3.86761
3.49691
3.516
3.53633
3.55994
3.58354
3.60597
3.62645
3.64458
3.6601
3.67281
3.68257
3.68932
3.69306
3.6939
3.69215
3.68841
3.68339
3.6782
3.67473
3.29114
3.31026
3.33002
3.35328
3.37676
3.39925
3.41997
3.43851
3.45461
3.46804
3.47865
3.48637
3.49116
3.49313
3.49252
3.48986
3.48583
3.48151
3.47856
3.08335
3.10177
3.12134
3.14425
3.16755
3.19001
3.2109
3.22981
3.24643
3.26053
3.27197
3.28063
3.28647
3.28954
3.29004
3.28845
3.28539
3.28188
3.27949
2.87388
2.89138
2.91067
2.93325
2.95628
2.97867
2.99967
3.01888
3.03595
3.05068
3.0629
3.07248
3.07933
3.08348
3.08509
3.08452
3.08244
3.07977
3.07786
2.66272
2.67963
2.69845
2.72058
2.74329
2.76555
2.78661
2.80604
2.82352
2.83883
2.85179
2.86224
2.87009
2.87532
2.87801
2.8785
2.87737
2.87547
2.87407
2.45095
2.46702
2.48527
2.50682
2.52909
2.55108
2.57209
2.59165
2.60945
2.62526
2.63891
2.65021
2.65903
2.66532
2.66913
2.67067
2.67052
2.66944
2.66849
2.23864
2.25414
2.27176
2.29263
2.31433
2.33592
2.3567
2.37623
2.39421
2.41041
2.42464
2.43671
2.44648
2.45383
2.45875
2.46143
2.46229
2.46196
2.46156
2.02691
2.0417
2.05866
2.07874
2.09972
2.12073
2.1411
2.16042
2.17841
2.19484
2.20953
2.22228
2.23292
2.2413
2.24736
2.25114
2.25305
2.25356
2.25359
1.81617
1.8305
1.84673
1.86589
1.88599
1.90622
1.92597
1.94486
1.96265
1.97913
1.99413
2.00743
2.01887
2.02823
2.0354
2.04034
2.04326
2.04452
2.04499
1.60779
1.62137
1.63677
1.65486
1.67387
1.69309
1.71196
1.73017
1.74752
1.76384
1.77894
1.79266
1.80479
1.81509
1.82336
1.82941
1.83332
1.83533
1.83612
1.40217
1.41511
1.42952
1.44635
1.46403
1.48195
1.49967
1.51692
1.53355
1.54943
1.56442
1.57837
1.59107
1.60226
1.6116
1.6188
1.62363
1.62621
1.62735
1.20045
1.21241
1.22564
1.24094
1.25701
1.27333
1.28956
1.30553
1.32112
1.33625
1.35084
1.36479
1.37792
1.38994
1.40041
1.40873
1.41447
1.41757
1.41888
1.00289
1.01379
1.02555
1.03903
1.05315
1.06753
1.08193
1.09626
1.11045
1.12447
1.13832
1.15197
1.16532
1.1781
1.18974
1.19942
1.2061
1.20947
1.21093
0.810055
0.81942
0.829417
0.840728
0.852516
0.86458
0.876806
0.889131
0.901524
0.914008
0.926661
0.939583
0.952822
0.966225
0.979238
0.990616
0.998497
1.00207
1.00346
0.621168
0.629054
0.637008
0.645742
0.654821
0.664243
0.673945
0.683911
0.694095
0.704557
0.715456
0.727034
0.739555
0.753189
0.767664
0.781593
0.791274
0.794984
0.796501
0.435214
0.441942
0.447704
0.453248
0.459343
0.465993
0.472957
0.480248
0.487818
0.495735
0.504203
0.513561
0.524307
0.537129
0.552631
0.570384
0.583284
0.58763
0.589914
0.253018
0.259342
0.26257
0.262608
0.26579
0.269571
0.273861
0.278322
0.282957
0.287861
0.293213
0.299332
0.306755
0.31652
0.331098
0.35619
0.372229
0.377979
0.384219
0.0811039
0.0843582
0.0850511
0.0838184
0.0849904
0.0863945
0.0881386
0.0898356
0.0915218
0.093273
0.095172
0.0973318
0.0999496
0.103489
0.109397
0.125452
0.137344
0.137373
0.14893
)
;

boundaryField
{
    leftWall
    {
        type            calculated;
        value           nonuniform List<scalar> 
50
(
4826.81
4028.05
3227.28
2424.36
1622.62
1055.99
857.81
797.762
702.886
573.144
447.78
333.668
247.613
184.565
122.273
59.4714
16.365
4.71038
4.59873
4.47741
4.35814
4.23457
4.10598
3.97283
3.8358
3.69602
3.55429
3.41101
3.26632
3.1203
2.97309
2.8248
2.67555
2.52548
2.37471
2.2234
2.07167
1.91968
1.76756
1.61545
1.46349
1.31182
1.16059
1.00991
0.859863
0.710408
0.561182
0.411138
0.259478
0.0951924
)
;
    }
    rightWall
    {
        type            calculated;
        value           nonuniform List<scalar> 
50
(
2454.43
1848.7
1316.85
956.629
807.496
769.204
723.928
677.596
598.836
486.778
390.446
316.844
251.03
190.467
130.803
71.1031
24.6265
6.89518
5.94053
5.80111
5.6709
5.5405
5.40161
5.25261
5.09717
4.93649
4.77057
4.5993
4.42302
4.24209
4.05685
3.86761
3.67473
3.47856
3.27949
3.07786
2.87407
2.66849
2.46156
2.25359
2.04499
1.83612
1.62735
1.41888
1.21093
1.00346
0.796501
0.589914
0.384219
0.14893
)
;
    }
    lowerWall
    {
        type            calculated;
        value           nonuniform List<scalar> 
62
(
5224.96
5238.49
5263.26
5298.04
5339.05
5385.72
5438.09
5496.6
5561.94
5634.76
5715.37
5803.71
5899.25
6001.01
6107.57
6217.56
6329.39
6440.91
6549.03
6649.36
6735.78
6798.84
6838.72
6440.79
5649.95
4868.2
4094.72
3330.38
2574.95
1840.67
1127.19
717.871
668.98
664.272
663.439
2172.22
1592.85
1270.71
1100.01
955.569
847.83
772.034
697.872
2517.51
2556.32
2632.34
2737.86
2860.01
2950.45
2886.79
2887.3
2901.5
2888.23
2838.89
2771.69
2756.18
2794.28
2777
2770.16
2761.11
2755.18
2757.57
)
;
    }
    atmosphere
    {
        type            calculated;
        value           nonuniform List<scalar> 
46
(
-0.0009161
-0.000596018
-0.000201111
-0.000224797
-0.000149777
-9.49874e-05
-6.71596e-05
-5.69873e-05
-6.0063e-05
-7.84158e-05
-0.000122347
-0.000217474
-0.000312336
-0.000408044
-0.000262023
-0.000293008
-0.000339526
-0.000388274
-0.000441711
-0.00049809
-0.000551208
-0.000599137
-0.00061222
-0.000418084
-0.000382068
-0.00036587
-0.000369496
-0.00041896
-0.000345347
-0.000307784
-0.000439984
-0.000399113
-0.00036041
-0.000284388
-0.000228175
-0.000184704
-0.000150603
-0.000125667
-0.000111881
-0.000114558
-0.000147686
-0.00022099
-0.000491684
-0.00105353
-0.00153897
-0.00295534
)
;
    }
    defaultFaces
    {
        type            empty;
    }
}


// ************************************************************************* //
