/*--------------------------------*- C++ -*----------------------------------*\
  =========                 |
  \\      /  F ield         | OpenFOAM: The Open Source CFD Toolbox
   \\    /   O peration     | Website:  https://openfoam.org
    \\  /    A nd           | Version:  13
     \\/     M anipulation  |
\*---------------------------------------------------------------------------*/
FoamFile
{
    format      ascii;
    class       volScalarField;
    location    "2.55";
    object      p_rgh;
}
// * * * * * * * * * * * * * * * * * * * * * * * * * * * * * * * * * * * * * //

dimensions      [1 -1 -2 0 0 0 0];

internalField   nonuniform List<scalar> 
2268
(
5224.96
5238.49
5263.26
5298.04
5339.05
5385.72
5438.09
5496.6
5561.94
5634.76
5715.37
5803.71
5899.25
6001.01
6107.57
6217.56
6329.39
6440.91
6549.03
6649.36
6735.78
6798.84
6838.72
5222.5
5234.73
5257.32
5290.81
5331.5
5378.27
5430.89
5489.63
5555.2
5628.32
5709.44
5798.58
5895.33
5998.8
6107.61
6220.39
6335.47
6450.45
6561.8
6664.43
6751.01
6807.6
6844.05
5218.03
5230.06
5250.91
5282.89
5322.83
5369.42
5422.14
5481.11
5546.93
5620.48
5702.27
5792.45
5890.68
5996.17
6107.5
6223.34
6341.9
6460.44
6574.9
6679.39
6765.87
6818.74
6858.95
5211.41
5223.71
5243.6
5274.4
5313.44
5359.63
5412.28
5471.18
5537.28
5611.39
5694.07
5785.54
5885.55
5993.39
6107.33
6226.1
6347.81
6469.47
6586.37
6692.71
6780.48
6835.95
6881.77
5165.94
5181.89
5212.98
5256.07
5303.48
5352.55
5404.46
5462.08
5527.56
5601.67
5684.86
5777.49
5879.46
5990.12
6106.95
6228.85
6353.97
6478.94
6598.77
6707.23
6797.96
6859.76
6913.73
2903.34
2987.39
3118.04
3305.97
3542.19
3820.91
4136.37
4418.67
4700.83
4990.57
5277.44
5546.92
5781.86
5969.48
6104.89
6230.09
6359.67
6489.86
6614.71
6725.97
6820.65
6891.27
6954.6
1240.39
1243.72
1244.11
1243.06
1240.8
1238.04
1235.42
1324.73
1477.68
1689.2
1983.67
2387.52
2926.34
3618.96
4393.73
5120.13
5756.59
6278.62
6628.59
6743.37
6843.03
6925.56
7013.97
1239.2
1242.52
1243.79
1243.21
1241.35
1238.75
1235.83
1232.03
1228.19
1224.58
1221.06
1217.57
1214.26
1211.68
1273.66
1533.16
1997.32
2656.9
3531.55
4550.73
5340.43
5935.08
6594.81
2517.51
2556.32
2632.34
2737.86
2860.01
2950.45
2886.79
2887.3
2901.5
2888.23
2838.89
2771.69
2756.18
2794.28
2777
2770.16
2761.11
2755.18
2757.57
2270.68
2315.69
2451.76
2599.42
2832.8
2951.77
3013.65
3012.23
3031.82
3009.79
2953.55
2833.72
2805.02
2790.28
2765.27
2760.13
2755.54
2753.53
2757.77
1715.21
1728.27
1796.27
2049.94
2192.11
2608.06
2739.02
2893.57
2896.4
2878.3
2784.01
2754.4
2687.03
2603.54
2560.33
2628.73
2588.37
2498.2
2466.49
1624.24
1651
1654.66
1657.27
1581.11
1549.7
1794.8
1762.94
1673.17
1664.3
1800.69
1814.91
1729.35
1679.54
1562.42
1407.65
1456.37
1679.08
1871.27
1527.87
1541.52
1548.51
1590.78
1493.43
1232.2
1225.89
1305.68
1317.25
1170.99
1081.83
1331.84
1413.8
1178.23
1024.9
1015.25
1028.19
1023.49
968.757
1282.74
1324.61
1530.84
1514.59
1564.8
1328.99
1254.11
1262.36
1335.81
1184.97
1114.06
917.446
839.619
888.498
1059.25
1120.05
1123.82
1107.54
968.436
1196.29
1183.86
1173.46
1280.19
1460.2
1440.52
1399.92
1421.15
1363
1170.24
1127.88
1094.61
845.618
951.515
1115.57
1127.53
1123.42
1110.34
990.127
1236.33
1225.96
1126.93
1104.81
1208.22
1428.77
1451.15
1385.86
1117.63
1130.48
1127.46
1125.67
991.928
1040.76
1130.84
1128.46
1125.11
1108.1
988.438
1236.35
1239.26
1240.91
1240.65
1239.12
1236.75
1233.78
1230.38
1226.75
1223.12
1219.44
1215.72
1212.06
1208.75
1205.85
1202.67
1198.7
1193.37
1187.71
1217.1
1298.44
1424.42
1722.76
1231.36
1234.56
1236.24
1236.66
1235.79
1233.63
1230.69
1227.28
1223.77
1220.22
1216.65
1213.05
1209.48
1206.14
1202.86
1199.07
1194.34
1188.5
1181.05
1171.68
1159.88
1143.51
1124.84
1170.21
1214.44
1232.87
1233.85
1233.11
1231.21
1226.47
1221.97
1218.48
1215.12
1211.61
1206.48
1199.07
1194.13
1194.47
1195.58
1192.96
1188.08
1178.55
1153.23
1110.33
1091.87
1064.26
1087.9
1099.33
1108.87
1110.75
1125.61
1136.87
1103.41
1082.37
1068.69
1056.53
1043.03
1023.34
1002.39
995.854
994.251
980.898
961.237
937.748
918.321
899.994
869.955
809.891
725.82
758.485
783.505
779.244
782.18
789.583
748.036
744.851
717.756
695.694
682.067
665.321
680.977
694.521
695.845
682.477
671.358
696.712
731.938
731.452
729.279
735.362
714.823
690.092
742.731
763.925
763.591
762.428
737.305
719.213
749.122
760.284
754.255
751.184
757.17
755.639
754.044
752.563
749.782
748.337
748.106
746.304
745.136
744.281
740.817
739.188
745.217
764.179
765.231
765.251
765.244
764.959
764.235
762.611
761.162
759.75
758.185
756.4
754.562
752.783
751.167
749.709
748.27
746.794
745.487
744.643
744.134
744.051
744.52
745.387
755.21
767.76
765.912
761.223
755.548
737.274
732.481
731.913
723.217
714.555
707.504
702.033
697.484
694.782
693.644
692.51
691.595
692.62
695.412
698.526
701.299
704.604
708.393
305.39
407.501
417.553
369.523
331.499
310.326
284.867
246.026
216.245
198.901
187.134
174.885
164.882
159.203
156.521
154.739
154.247
157.066
162.387
167.736
172.566
177.986
187.585
6.3712
6.41125
23.5424
18.2688
6.6155
6.4345
6.48374
6.54622
6.60131
6.64966
6.69597
6.74316
6.79008
6.83501
6.87823
6.92341
6.97234
7.02327
7.07499
7.12657
7.17735
7.23219
7.28823
6.38516
6.3848
6.34817
6.35324
6.38778
6.41919
6.45456
6.50035
6.55124
6.60349
6.65661
6.71151
6.76782
6.82495
6.88279
6.94157
7.00138
7.06205
7.12309
7.18355
7.24255
7.29806
7.35708
6.38982
6.38367
6.37871
6.38079
6.40449
6.43246
6.46838
6.51763
6.57482
6.61573
6.65704
6.70794
6.76063
6.81461
6.86988
6.92629
6.98379
7.04254
7.10203
7.16104
7.21819
7.26984
7.32039
6.39593
6.39303
6.40903
6.43414
6.41062
6.43482
6.47104
6.61551
6.72668
6.70807
6.65485
6.69906
6.74892
6.80061
6.85376
6.90795
6.96351
7.02068
7.07888
7.13666
7.1924
7.24233
7.29186
6.39753
6.39445
6.44565
6.45535
6.44753
6.43069
6.47048
6.65571
6.72122
6.76913
6.75092
6.68828
6.73521
6.78441
6.83592
6.88836
6.94272
6.99921
7.0569
7.11412
7.16922
7.21845
7.26783
6.39371
6.39048
6.43247
6.45422
6.43366
6.42482
6.45325
6.5615
6.71093
6.75503
6.76324
6.6673
6.7161
6.76633
6.81722
6.86515
6.9187
6.97477
7.03201
7.08877
7.14333
7.19198
7.24099
6.38557
6.38301
6.38886
6.40451
6.40025
6.41769
6.44266
6.47329
6.5552
6.65448
6.62765
6.64284
6.69222
6.74142
6.79125
6.83779
6.89061
6.94574
7.00219
7.05822
7.11206
7.16008
7.20834
6.37346
6.37193
6.37283
6.37871
6.39027
6.40773
6.43066
6.45837
6.49062
6.52724
6.56796
6.61288
6.66193
6.71234
6.7565
6.80635
6.85877
6.91278
6.96799
7.02303
7.0759
7.12309
7.17065
6.35863
6.35853
6.36047
6.36692
6.37848
6.39502
6.41639
6.44233
6.47249
6.50699
6.54538
6.58745
6.6325
6.67737
6.72382
6.77294
6.82377
6.87634
6.93017
6.98387
7.03558
7.08182
7.12831
6.34186
6.34277
6.34595
6.35274
6.36394
6.3796
6.39969
6.42405
6.45242
6.48472
6.52064
6.56025
6.60221
6.64544
6.69016
6.73723
6.78621
6.83702
6.88921
6.94138
6.99166
7.03664
7.08204
6.32354
6.32522
6.32906
6.33606
6.3469
6.36177
6.38068
6.40357
6.43024
6.46054
6.49417
6.53101
6.57053
6.61145
6.65438
6.69943
6.74638
6.79523
6.84556
6.89593
6.94459
6.98816
7.03199
6.30394
6.30596
6.31013
6.31718
6.32764
6.34174
6.35957
6.38107
6.40611
6.43453
6.46604
6.50035
6.53711
6.57602
6.61694
6.65979
6.70456
6.75128
6.79953
6.84797
6.89478
6.93672
6.97912
6.28304
6.2852
6.28945
6.29636
6.30638
6.31972
6.33649
6.35667
6.38014
6.40674
6.43624
6.46834
6.50277
6.53939
6.57801
6.61854
6.661
6.70543
6.75144
6.79769
6.84251
6.88275
6.92341
6.26098
6.26309
6.26726
6.27392
6.28343
6.296
6.31173
6.33059
6.3525
6.37733
6.40486
6.43485
6.46707
6.50139
6.53768
6.57583
6.6159
6.65791
6.70148
6.74539
6.78795
6.82618
6.86517
6.23787
6.23984
6.2438
6.25012
6.25907
6.27084
6.28552
6.30307
6.32345
6.34652
6.37211
6.40002
6.43004
6.46205
6.49597
6.53171
6.56933
6.60884
6.64988
6.69122
6.73133
6.76727
6.80425
6.21381
6.21557
6.21926
6.22517
6.23352
6.24448
6.25809
6.27435
6.2932
6.31453
6.3382
6.36404
6.39187
6.42156
6.45305
6.48632
6.52139
6.5583
6.59669
6.63545
6.67297
6.70636
6.74169
6.18892
6.19047
6.19384
6.1993
6.20702
6.21713
6.22968
6.24464
6.26198
6.28159
6.30335
6.32713
6.35276
6.38012
6.40917
6.4399
6.47235
6.50656
6.54222
6.57823
6.61322
6.64456
6.67672
6.16333
6.16469
6.16773
6.1727
6.17976
6.18901
6.20047
6.21414
6.22997
6.24787
6.26775
6.28948
6.31292
6.33795
6.36455
6.39271
6.42249
6.45393
6.48675
6.51998
6.55224
6.58117
6.61072
6.1372
6.13839
6.1411
6.14557
6.15194
6.1603
6.17067
6.18304
6.19737
6.21359
6.2316
6.2513
6.27256
6.29528
6.31943
6.34501
6.37209
6.40073
6.43067
6.46097
6.49045
6.51685
6.54352
6.11065
6.11171
6.1141
6.11805
6.12371
6.13116
6.14044
6.15151
6.16436
6.17891
6.19509
6.21278
6.23189
6.25233
6.27404
6.29705
6.32143
6.34724
6.37425
6.40163
6.42824
6.452
6.47616
6.08385
6.08479
6.08686
6.09029
6.09523
6.10177
6.10993
6.11972
6.13109
6.14401
6.15838
6.17411
6.19111
6.20929
6.2286
6.24906
6.27075
6.29374
6.31782
6.34221
6.36595
6.38718
6.40861
6.05691
6.05776
6.05953
6.06243
6.06663
6.07223
6.07928
6.08779
6.09772
6.10903
6.12165
6.13547
6.15041
6.16637
6.18332
6.20127
6.22029
6.24046
6.26158
6.28301
6.30381
6.32234
6.34127
6.02998
6.03075
6.03222
6.03458
6.03802
6.04268
6.04861
6.05585
6.06437
6.07412
6.08503
6.09701
6.10995
6.12377
6.13841
6.1539
6.1703
6.18767
6.20587
6.22426
6.2421
6.25792
6.27389
6.0032
6.00391
6.00507
6.00686
6.00952
6.01321
6.01803
6.02401
6.03115
6.0394
6.04868
6.05888
6.0699
6.08165
6.09407
6.10717
6.12101
6.13566
6.15096
6.16641
6.1813
6.19437
6.20767
5.97672
5.97737
5.9782
5.9794
5.98123
5.98392
5.9876
5.99234
5.99814
6.00495
6.01267
6.0212
6.0304
6.04018
6.05049
6.06131
6.0727
6.08473
6.09728
6.10987
6.12197
6.13252
6.14308
5.95068
5.95128
5.95178
5.95232
5.95325
5.95487
5.95738
5.96088
5.96539
5.97082
5.97709
5.98404
5.99155
5.9995
6.00783
6.01653
6.02565
6.03524
6.04519
6.05516
6.06463
6.07275
6.08097
5.92519
5.9258
5.92594
5.92573
5.92562
5.92607
5.92736
5.92964
5.93289
5.93704
5.94195
5.94746
5.95343
5.95972
5.96626
5.97304
5.98009
5.98747
5.9951
6.00264
6.00973
6.01567
6.02149
5.90033
5.90103
5.9008
5.89968
5.89833
5.89745
5.89746
5.89851
5.90058
5.90354
5.90722
5.91145
5.91607
5.92093
5.92591
5.93101
5.93627
5.9417
5.94725
5.95268
5.95768
5.96168
5.96566
5.87607
5.87698
5.87634
5.87401
5.87113
5.86875
5.86744
5.86733
5.86832
5.87022
5.87281
5.87593
5.87944
5.88313
5.88684
5.89053
5.89425
5.89801
5.90178
5.90536
5.90858
5.91105
5.91342
5.85204
5.85326
5.85202
5.848
5.84327
5.83936
5.83687
5.83579
5.83589
5.83688
5.83854
5.84073
5.84334
5.84619
5.84891
5.85144
5.85385
5.85617
5.8584
5.86043
5.86212
5.86323
5.86432
5.82719
5.82848
5.82596
5.81958
5.81318
5.80831
5.80522
5.80365
5.80321
5.80355
5.80445
5.80586
5.80769
5.80989
5.81162
5.81295
5.81413
5.81516
5.81608
5.81679
5.81717
5.81703
5.81644
5.80073
5.79968
5.7946
5.78457
5.77846
5.77445
5.77206
5.77084
5.7704
5.77046
5.77085
5.77151
5.77268
5.77415
5.77573
5.77522
5.7751
5.77502
5.77495
5.77474
5.77421
5.77321
5.77088
5.76164
5.75607
5.75134
5.74505
5.74346
5.74257
5.74216
5.74206
5.74216
5.74237
5.74263
5.74281
5.74325
5.74432
5.74542
5.74302
5.74214
5.74171
5.74139
5.74107
5.74064
5.73997
5.7383
1522.14
1160.54
1135.14
1134.31
1122.69
1125.58
1122.35
1123.62
1062.98
1085.03
1042.5
897.716
703.652
688.78
686.174
711.477
708.413
738.86
749.024
750.864
746.496
746.92
747.51
748.445
746.377
747.032
747.628
748.105
715.226
716.72
719.127
721.546
207.346
212.384
217.7
221.034
7.34097
7.3945
7.46422
7.53329
7.44103
7.51741
7.59898
7.6585
7.39374
7.47231
7.56029
7.62808
7.36969
7.4524
7.54355
7.61124
7.34824
7.43262
7.52495
7.59262
7.32133
7.40593
7.49875
7.56655
7.28798
7.37217
7.4648
7.53277
7.24902
7.33235
7.42468
7.49243
7.20538
7.28753
7.37866
7.44593
7.15716
7.23767
7.3276
7.39393
7.10498
7.18346
7.27128
7.33661
7.04948
7.12551
7.21127
7.27499
6.9913
7.06466
7.14729
7.20911
6.92989
7.00019
7.07994
7.13946
6.86557
6.93245
7.00846
7.06589
6.79909
6.86215
6.93473
6.98959
6.73088
6.79047
6.85872
6.91063
6.66097
6.71676
6.78147
6.83066
6.58984
6.64159
6.70175
6.74821
6.51818
6.56566
6.62167
6.66485
6.44683
6.49007
6.54094
6.58072
6.3752
6.41406
6.4604
6.49651
6.30355
6.33793
6.37915
6.41209
6.23277
6.26263
6.29947
6.32905
6.16421
6.18981
6.22165
6.24802
6.09806
6.11955
6.14716
6.17019
6.03495
6.05255
6.07564
6.09575
5.97567
5.98965
6.00896
6.026
5.92086
5.93171
5.94695
5.96097
5.86941
5.87743
5.88928
5.90024
5.81901
5.82417
5.8326
5.84124
5.76854
5.77027
5.77579
5.78309
5.73494
5.73456
5.73642
5.7402
1194
1213.97
1170.44
1085.43
1094.37
1223.95
1182.21
1104.07
1110.25
1120.11
1126.22
1131.68
1139.6
1139.02
1134.41
1131.38
1129.45
1106.64
1033.15
1089.23
1051.13
1037.92
1013.57
1034.44
966.997
982.75
1053.54
1095.9
1113.35
1125.98
1131.61
1139.18
1139.49
1131.79
1112.86
1085.43
1065.23
1075.28
762.925
774.775
834.515
870.939
754.116
751.857
857.89
836.947
838.47
850.135
877.75
915.597
960.92
960.989
931.174
886.195
859.134
860.449
862.297
722.148
729.283
748.468
755.926
747.157
694.882
675.508
709.951
747.089
746.999
747.277
747.808
749.268
751.058
754.883
760.233
765.175
790.694
829.908
753.681
753.915
753.641
752.856
753.323
743.572
742.197
747.196
747.314
747.074
747.272
747.896
749.258
751.484
754.84
759.127
763.369
766.651
768.464
750.131
751.517
751.915
751.939
752.243
751.914
750.471
748.732
747.486
747.016
747.138
747.919
749.46
751.751
754.97
759.006
763.107
766.663
770.441
748.793
749.685
750.255
750.507
750.609
750.308
749.366
748.177
747.135
746.526
746.529
747.384
749.124
751.368
754.557
759.658
768.777
769.777
773.472
723.705
729.429
733.534
736.322
737.302
736.036
731.064
719.947
702.284
681.728
664.405
659.246
656.579
645.64
653.657
703.372
750.154
800.588
798.324
218.622
229.718
237.542
239.335
234.562
218.764
192.084
161.117
132.457
108.653
89.5826
73.0805
83.0022
102.551
133.408
173.317
223.347
328.721
436.657
7.61269
7.63125
7.65744
7.70965
7.77125
7.82437
7.87829
7.97788
8.25853
8.49758
10.6693
10.9501
10.7128
13.3807
15.4738
18.3782
31.9244
30.9282
29.9789
7.7086
7.73795
7.76971
7.91976
8.24554
8.40643
8.32158
8.14274
8.10818
8.12384
8.30192
9.05846
8.97454
8.03555
7.80988
7.79939
7.78475
7.76905
7.73434
7.68741
7.71156
7.73637
8.11276
8.7232
8.74349
8.731
7.89622
7.83514
7.94385
8.63499
8.68248
8.12088
7.90633
7.77503
7.74877
7.72287
7.70656
7.71182
7.6668
7.68694
7.70647
7.73819
8.01298
8.21299
7.81551
7.80042
7.81407
7.82146
7.83405
7.87561
7.80541
7.7944
7.7765
7.75371
7.73039
7.71224
7.70703
7.64631
7.66495
7.68338
7.70106
7.71625
7.73461
7.75809
7.7811
7.79358
7.79692
7.79678
7.7942
7.79078
7.78214
7.76786
7.74983
7.72924
7.71148
7.70202
7.62016
7.6387
7.65769
7.67771
7.69628
7.71539
7.73507
7.75197
7.7636
7.76984
7.7712
7.76955
7.76576
7.75792
7.7458
7.73039
7.71325
7.69799
7.68823
7.58672
7.60543
7.62502
7.64652
7.66696
7.68653
7.70487
7.72028
7.73143
7.73808
7.74048
7.73952
7.7355
7.7278
7.71642
7.70237
7.68725
7.67366
7.66418
7.54633
7.56538
7.58542
7.60778
7.62926
7.64933
7.66737
7.68234
7.69348
7.70061
7.70384
7.7036
7.69994
7.69269
7.68217
7.66932
7.65555
7.64285
7.63379
7.49974
7.51898
7.53944
7.5624
7.58452
7.60495
7.62303
7.6381
7.64957
7.6573
7.6613
7.66174
7.6587
7.65223
7.64271
7.63099
7.61834
7.60649
7.59828
7.44715
7.46668
7.48744
7.51086
7.5335
7.55432
7.57263
7.58794
7.59988
7.60826
7.61302
7.61423
7.61195
7.60636
7.59785
7.58724
7.57565
7.56474
7.55756
7.38936
7.40889
7.42986
7.45358
7.4766
7.4978
7.51647
7.53218
7.54464
7.55368
7.55922
7.56126
7.55986
7.55523
7.54778
7.53826
7.52775
7.51794
7.51149
7.32652
7.3461
7.36712
7.39102
7.41432
7.43587
7.45493
7.47111
7.48415
7.49389
7.50023
7.50315
7.50272
7.49911
7.49275
7.48438
7.47502
7.46627
7.46042
7.25941
7.27874
7.29973
7.32369
7.34719
7.36904
7.3885
7.40518
7.41883
7.42929
7.43647
7.44031
7.44088
7.43836
7.43314
7.42592
7.41776
7.40999
7.4047
7.18803
7.20729
7.22815
7.25209
7.27571
7.29781
7.31765
7.33483
7.34912
7.36032
7.36835
7.37315
7.37476
7.37335
7.36928
7.36324
7.35622
7.34932
7.34471
7.1132
7.13222
7.15291
7.17673
7.20037
7.22267
7.24285
7.26052
7.27544
7.2874
7.29629
7.30206
7.30474
7.30445
7.30156
7.29666
7.29069
7.28475
7.28069
7.03505
7.05414
7.07447
7.09807
7.12168
7.14411
7.16459
7.18272
7.19824
7.21094
7.2207
7.22745
7.23119
7.23204
7.23029
7.22656
7.22158
7.21648
7.21302
6.95447
6.97359
6.99335
7.01661
7.04009
7.06258
7.0833
7.10185
7.11794
7.13137
7.14198
7.1497
7.1545
7.15646
7.15586
7.1532
7.14921
7.145
7.14204
6.87187
6.8903
6.90987
6.93278
6.95607
6.97853
6.99943
7.01833
7.03495
7.04906
7.0605
7.06916
7.075
7.07807
7.07857
7.07699
7.07398
7.07058
7.06813
6.7876
6.8051
6.82439
6.84697
6.87
6.89239
6.91339
6.9326
6.94967
6.9644
6.97662
6.9862
6.99305
6.9972
6.99882
6.99826
6.99623
6.99368
6.99166
6.70164
6.71855
6.73737
6.75949
6.78221
6.80446
6.82552
6.84495
6.86243
6.87774
6.8907
6.90116
6.90901
6.91423
6.91693
6.91743
6.91637
6.91458
6.91307
6.61505
6.63113
6.64938
6.67093
6.6932
6.71519
6.7362
6.75575
6.77355
6.78937
6.80301
6.81431
6.82314
6.82944
6.83325
6.8348
6.83472
6.83375
6.83265
6.52795
6.54344
6.56107
6.58193
6.60363
6.62522
6.64601
6.66553
6.68351
6.69972
6.71395
6.72602
6.73578
6.74314
6.74806
6.75076
6.75169
6.7514
6.7509
6.4414
6.45619
6.47316
6.49323
6.51422
6.53522
6.5556
6.57492
6.5929
6.60934
6.62403
6.63678
6.64742
6.6558
6.66187
6.66566
6.66762
6.66816
6.6681
6.35587
6.37019
6.38642
6.40558
6.42568
6.44592
6.46566
6.48455
6.50234
6.51883
6.53382
6.54713
6.55856
6.56793
6.5751
6.58006
6.58301
6.58423
6.5847
6.27267
6.28626
6.30166
6.31975
6.33876
6.35797
6.37685
6.39506
6.41241
6.42872
6.44383
6.45755
6.46968
6.47999
6.48826
6.49432
6.49824
6.50024
6.50102
6.19225
6.20519
6.2196
6.23643
6.25411
6.27204
6.28975
6.307
6.32363
6.33951
6.3545
6.36845
6.38115
6.39235
6.40169
6.4089
6.41373
6.4163
6.41743
6.11573
6.12769
6.14091
6.15622
6.17229
6.1886
6.20484
6.22081
6.23639
6.25152
6.26612
6.28007
6.2932
6.30522
6.31569
6.32402
6.32976
6.33285
6.33416
6.04336
6.05426
6.06602
6.0795
6.09362
6.108
6.1224
6.13673
6.15092
6.16494
6.17879
6.19244
6.20579
6.21857
6.23022
6.2399
6.24658
6.24994
6.2514
5.97572
5.98508
5.99508
6.00639
6.01818
6.03024
6.04247
6.0548
6.06719
6.07967
6.09233
6.10525
6.11849
6.13189
6.14491
6.15629
6.16417
6.16774
6.16913
5.91203
5.91991
5.92787
5.9366
5.94568
5.9551
5.9648
5.97477
5.98495
5.99542
6.00632
6.01789
6.03042
6.04405
6.05853
6.07246
6.08214
6.08584
6.08736
5.85127
5.858
5.86376
5.8693
5.8754
5.88205
5.88901
5.8963
5.90387
5.91179
5.92026
5.92962
5.94036
5.95318
5.96869
5.98644
5.99934
6.00368
6.00597
5.79427
5.80059
5.80382
5.80386
5.80704
5.81082
5.81511
5.81957
5.82421
5.82911
5.83446
5.84058
5.848
5.85777
5.87235
5.89744
5.91348
5.91923
5.92547
5.74755
5.7508
5.75149
5.75026
5.75143
5.75284
5.75458
5.75628
5.75796
5.75972
5.76161
5.76377
5.76639
5.76993
5.77584
5.79189
5.80379
5.80382
5.81537
)
;

boundaryField
{
    leftWall
    {
        type            fixedFluxPressure;
        gradient        uniform 0;
        value           nonuniform List<scalar> 
50
(
5224.96
5222.5
5218.03
5211.41
5165.94
2903.34
1240.39
1239.2
1236.35
1231.36
1170.21
1087.9
758.485
742.731
764.179
755.21
305.39
6.3712
6.38516
6.38982
6.39593
6.39753
6.39371
6.38557
6.37346
6.35863
6.34186
6.32354
6.30394
6.28304
6.26098
6.23787
6.21381
6.18892
6.16333
6.1372
6.11065
6.08385
6.05691
6.02998
6.0032
5.97672
5.95068
5.92519
5.90033
5.87607
5.85204
5.82719
5.80073
5.76164
)
;
    }
    rightWall
    {
        type            fixedFluxPressure;
        gradient        uniform 0;
        value           nonuniform List<scalar> 
50
(
2757.57
2757.77
2466.49
1871.27
968.757
968.436
990.127
988.438
1033.15
1075.28
862.297
829.908
768.464
770.441
773.472
798.324
436.657
29.9789
7.73434
7.71182
7.70703
7.70202
7.68823
7.66418
7.63379
7.59828
7.55756
7.51149
7.46042
7.4047
7.34471
7.28069
7.21302
7.14204
7.06813
6.99166
6.91307
6.83265
6.7509
6.6681
6.5847
6.50102
6.41743
6.33416
6.2514
6.16913
6.08736
6.00597
5.92547
5.81537
)
;
    }
    lowerWall
    {
        type            fixedFluxPressure;
        gradient        uniform 0;
        value           nonuniform List<scalar> 
62
(
5224.96
5238.49
5263.26
5298.04
5339.05
5385.72
5438.09
5496.6
5561.94
5634.76
5715.37
5803.71
5899.25
6001.01
6107.57
6217.56
6329.39
6440.91
6549.03
6649.36
6735.78
6798.84
6838.72
6838.72
6844.05
6858.95
6881.77
6913.73
6954.6
7013.97
6594.81
1522.14
1160.54
1135.14
1134.31
2517.51
2270.68
1715.21
1624.24
1527.87
1282.74
1196.29
1236.33
2517.51
2556.32
2632.34
2737.86
2860.01
2950.45
2886.79
2887.3
2901.5
2888.23
2838.89
2771.69
2756.18
2794.28
2777
2770.16
2761.11
2755.18
2757.57
)
;
    }
    atmosphere
    {
        type            prghTotalPressure;
        rho             rho;
        psi             none;
        gamma           1;
        p0              uniform 0;
        value           nonuniform List<scalar> 
46
(
5.72812
5.72844
5.72884
5.72881
5.72889
5.72894
5.72897
5.72898
5.72898
5.72896
5.72892
5.72882
5.72873
5.72863
5.72878
5.72875
5.7287
5.72865
5.7286
5.72854
5.72849
5.72844
5.72843
5.72862
5.72866
5.72867
5.72867
5.72862
5.72869
5.72873
5.7286
5.72864
5.72868
5.72876
5.72881
5.72886
5.72889
5.72892
5.72893
5.72893
5.72889
5.72882
5.72855
5.72799
5.7275
5.72608
)
;
        rho             rho;
    }
    defaultFaces
    {
        type            empty;
    }
}


// ************************************************************************* //
