/*--------------------------------*- C++ -*----------------------------------*\
  =========                 |
  \\      /  F ield         | OpenFOAM: The Open Source CFD Toolbox
   \\    /   O peration     | Website:  https://openfoam.org
    \\  /    A nd           | Version:  13
     \\/     M anipulation  |
\*---------------------------------------------------------------------------*/
FoamFile
{
    format      ascii;
    class       surfaceScalarField;
    location    "2.55";
    object      phi;
}
// * * * * * * * * * * * * * * * * * * * * * * * * * * * * * * * * * * * * * //

dimensions      [0 3 -1 0 0 0 0];

internalField   nonuniform List<scalar> 
4432
(
-6.36551e-07
6.36558e-07
-4.90214e-07
-1.46328e-07
5.13304e-08
-5.4154e-07
6.60654e-07
-6.09322e-07
1.22021e-06
-5.59557e-07
1.70261e-06
-4.82403e-07
2.11697e-06
-4.14366e-07
2.47772e-06
-3.60748e-07
2.79999e-06
-3.2227e-07
3.09207e-06
-2.92082e-07
3.35312e-06
-2.61055e-07
3.5739e-06
-2.20784e-07
3.73748e-06
-1.63588e-07
3.81692e-06
-7.94426e-08
3.76576e-06
5.11573e-08
3.53161e-06
2.34149e-07
3.06219e-06
4.69411e-07
2.31272e-06
7.49468e-07
1.26337e-06
1.04935e-06
-4.24029e-08
1.30578e-06
-1.35767e-06
1.31526e-06
-1.86057e-06
5.02894e-07
-1.86057e-06
-1.04194e-07
7.40767e-07
2.41343e-07
-4.91851e-07
7.06914e-07
-1.0071e-06
1.17539e-06
-1.07778e-06
1.59756e-06
-9.81711e-07
1.96371e-06
-8.48548e-07
2.27879e-06
-7.29434e-07
2.54957e-06
-6.3152e-07
2.78574e-06
-5.58437e-07
2.99399e-06
-5.0032e-07
3.1755e-06
-4.42572e-07
3.32616e-06
-3.71439e-07
3.43657e-06
-2.74004e-07
3.48912e-06
-1.31994e-07
3.45018e-06
9.00926e-08
3.27771e-06
4.06618e-07
2.92979e-06
8.17328e-07
2.37394e-06
1.30532e-06
1.60233e-06
1.82095e-06
6.56763e-07
2.25134e-06
-2.89988e-07
2.26201e-06
-8.40303e-07
1.05321e-06
-2.70089e-06
3.2589e-07
4.14886e-07
7.5331e-07
-9.19262e-07
1.14386e-06
-1.39764e-06
1.51309e-06
-1.44701e-06
1.84803e-06
-1.31664e-06
2.14264e-06
-1.14316e-06
2.39788e-06
-9.84671e-07
2.6141e-06
-8.47739e-07
2.79605e-06
-7.40388e-07
2.94881e-06
-6.53086e-07
3.07415e-06
-5.67909e-07
3.17069e-06
-4.67978e-07
3.23391e-06
-3.37235e-07
3.25375e-06
-1.51837e-07
3.20585e-06
1.37996e-07
3.05958e-06
5.5288e-07
2.7845e-06
1.09242e-06
2.36005e-06
1.72976e-06
1.78643e-06
2.39458e-06
1.09575e-06
2.94202e-06
3.97155e-07
2.9606e-06
-9.39073e-08
1.54427e-06
-2.79479e-06
7.18705e-07
-3.03807e-07
1.14564e-06
-1.34618e-06
1.47331e-06
-1.7253e-06
1.77587e-06
-1.74955e-06
2.05443e-06
-1.5952e-06
2.30313e-06
-1.39184e-06
2.51839e-06
-1.19992e-06
2.69606e-06
-1.0254e-06
2.83892e-06
-8.83241e-07
2.94988e-06
-7.64039e-07
3.03045e-06
-6.4848e-07
3.08079e-06
-5.18321e-07
3.09994e-06
-3.56384e-07
3.08463e-06
-1.36522e-07
3.0189e-06
2.0372e-07
2.8831e-06
6.88678e-07
2.65737e-06
1.31815e-06
2.33178e-06
2.05534e-06
1.9092e-06
2.81714e-06
1.40714e-06
3.44408e-06
8.67973e-07
3.49975e-06
3.38825e-07
2.0734e-06
-2.45598e-06
1.01371e-06
-1.31751e-06
1.43171e-06
-1.76417e-06
1.7226e-06
-2.01617e-06
1.98619e-06
-2.01313e-06
2.23112e-06
-1.84011e-06
2.45005e-06
-1.61077e-06
2.63979e-06
-1.38965e-06
2.79273e-06
-1.17834e-06
2.90895e-06
-9.99453e-07
2.98851e-06
-8.43598e-07
3.03329e-06
-6.93267e-07
3.04425e-06
-5.29277e-07
3.02286e-06
-3.34992e-07
2.97205e-06
-8.57093e-08
2.88247e-06
2.93292e-07
2.74584e-06
8.25307e-07
2.55247e-06
1.51151e-06
2.30102e-06
2.30679e-06
2.0001e-06
3.11806e-06
1.64702e-06
3.79715e-06
1.22735e-06
3.91942e-06
6.87676e-07
2.61308e-06
-1.7683e-06
1.26e-06
-2.5775e-06
1.6666e-06
-2.17075e-06
1.95825e-06
-2.30781e-06
2.20912e-06
-2.26399e-06
2.44183e-06
-2.07281e-06
2.64677e-06
-1.8157e-06
2.80057e-06
-1.54344e-06
2.9256e-06
-1.30336e-06
3.01896e-06
-1.0928e-06
3.07367e-06
-8.98304e-07
3.08835e-06
-7.07938e-07
3.06398e-06
-5.049e-07
3.0016e-06
-2.726e-07
2.91007e-06
5.82454e-09
2.7929e-06
4.10461e-07
2.65056e-06
9.67645e-07
2.48312e-06
1.67894e-06
2.29226e-06
2.49764e-06
2.08981e-06
3.3205e-06
1.85971e-06
4.02723e-06
1.54491e-06
4.23422e-06
9.99695e-07
3.15828e-06
-7.68626e-07
1.42779e-06
-4.00529e-06
2.00306e-06
-2.74601e-06
2.35892e-06
-2.66364e-06
2.60816e-06
-2.51321e-06
2.80998e-06
-2.27461e-06
2.96402e-06
-1.96971e-06
3.0397e-06
-1.61911e-06
3.11955e-06
-1.3832e-06
3.17675e-06
-1.14998e-06
3.19554e-06
-9.17081e-07
3.18043e-06
-6.92814e-07
3.13246e-06
-4.56916e-07
3.05037e-06
-1.90499e-07
2.92889e-06
1.27308e-07
2.77176e-06
5.67583e-07
2.60941e-06
1.12999e-06
2.45005e-06
1.83829e-06
2.303e-06
2.64467e-06
2.17859e-06
3.44488e-06
2.09351e-06
4.11228e-06
1.91621e-06
4.41149e-06
1.33388e-06
3.74059e-06
5.65251e-07
1.50824e-06
-5.51353e-06
2.52062e-06
-3.75839e-06
3.13704e-06
-3.28007e-06
3.55211e-06
-2.92828e-06
3.84536e-06
-2.56787e-06
4.03766e-06
-2.16201e-06
4.1373e-06
-1.71874e-06
4.11537e-06
-1.36127e-06
4.03508e-06
-1.06968e-06
3.92283e-06
-8.04828e-07
3.78386e-06
-5.53848e-07
3.61815e-06
-2.91196e-07
3.41687e-06
1.07849e-08
3.15697e-06
3.87201e-07
2.87414e-06
8.50407e-07
2.65873e-06
1.34538e-06
2.51688e-06
1.98012e-06
2.42887e-06
2.73266e-06
2.38957e-06
3.48415e-06
2.45831e-06
4.04352e-06
2.50824e-06
4.36153e-06
2.2322e-06
4.01661e-06
2.79743e-06
-1.81517e-06
1.81517e-06
-4.28703e-06
2.47185e-06
-6.7429e-06
2.45587e-06
-8.88841e-06
2.14551e-06
-9.53913e-06
6.50711e-07
-8.6221e-06
-9.17032e-07
-8.88362e-06
2.61526e-07
-8.99089e-06
1.07267e-07
-7.38285e-06
-1.60804e-06
-5.46877e-06
-1.91408e-06
-3.84682e-06
-1.62195e-06
-3.77547e-06
-7.13436e-08
-4.13483e-06
3.59364e-07
-2.66413e-06
-1.47071e-06
-1.88383e-06
-7.8029e-07
-1.07883e-06
-8.04998e-07
-3.10552e-07
-7.68274e-07
3.27495e-07
-6.38041e-07
3.275e-07
-2.17294e-06
3.98811e-06
-4.41319e-06
4.7121e-06
-6.40864e-06
4.4513e-06
-7.35687e-06
3.09373e-06
-8.21786e-06
1.51169e-06
-8.5947e-06
-5.40206e-07
-8.26804e-06
-6.51277e-08
-7.29162e-06
-8.69153e-07
-6.28917e-06
-2.61048e-06
-5.44785e-06
-2.75539e-06
-4.69996e-06
-2.36983e-06
-3.55488e-06
-1.21641e-06
-2.57622e-06
-6.19296e-07
-2.16008e-06
-1.88684e-06
-1.90897e-06
-1.03139e-06
-1.52406e-06
-1.18991e-06
-1.19617e-06
-1.09615e-06
-8.15339e-07
-1.01886e-06
-4.87833e-07
-2.6018e-06
6.58991e-06
-3.87531e-06
5.98561e-06
-5.0542e-06
5.63018e-06
-5.19186e-06
3.23138e-06
-6.15539e-06
2.47521e-06
-7.21673e-06
5.21121e-07
-6.9015e-06
-3.8036e-07
-5.9421e-06
-1.82855e-06
-5.2304e-06
-3.32217e-06
-5.0483e-06
-2.93748e-06
-4.68363e-06
-2.73449e-06
-3.40228e-06
-2.49776e-06
-2.34978e-06
-1.67179e-06
-2.0463e-06
-2.19031e-06
-1.82429e-06
-1.25339e-06
-1.81595e-06
-1.19824e-06
-1.89273e-06
-1.01937e-06
-1.71866e-06
-1.19293e-06
-2.20649e-06
-1.79984e-06
8.38976e-06
-2.52036e-06
6.70613e-06
-2.65468e-06
5.7645e-06
-2.87189e-06
3.4486e-06
-3.08458e-06
2.6879e-06
-5.19749e-06
2.63402e-06
-5.12898e-06
-4.48869e-07
-4.3508e-06
-2.60672e-06
-3.56938e-06
-4.10358e-06
-3.94087e-06
-2.56597e-06
-4.05804e-06
-2.61729e-06
-3.05021e-06
-3.50557e-06
-2.16395e-06
-2.55803e-06
-2.31176e-06
-2.04247e-06
-1.99061e-06
-1.57453e-06
-1.82451e-06
-1.36432e-06
-1.35213e-06
-1.49175e-06
-2.82807e-07
-2.26224e-06
-2.48928e-06
-4.61689e-07
8.85145e-06
-1.03304e-06
7.27748e-06
-9.0781e-07
5.63927e-06
-1.42197e-06
3.96276e-06
-9.10444e-07
2.17638e-06
-1.79363e-06
3.5172e-06
-2.48074e-06
2.38245e-07
-1.91734e-06
-3.17012e-06
-9.84006e-07
-5.03691e-06
-1.57329e-06
-1.97668e-06
-2.27129e-06
-1.9193e-06
-2.15639e-06
-3.62046e-06
-2.51476e-06
-2.19964e-06
-3.76885e-06
-7.88373e-07
-2.97849e-06
-2.36488e-06
-9.10416e-07
-3.43239e-06
2.01486e-06
-4.41702e-06
5.98343e-06
-6.23079e-06
3.49417e-06
1.66827e-06
7.18319e-06
1.54753e-06
7.39823e-06
9.02286e-07
6.28451e-06
-2.85221e-07
5.15028e-06
-3.57059e-07
2.24823e-06
1.97904e-07
2.96225e-06
2.61975e-07
1.74179e-07
4.542e-07
-3.36235e-06
5.88519e-07
-5.17123e-06
2.01046e-07
-1.58922e-06
2.22555e-07
-1.94081e-06
-2.21954e-07
-3.17595e-06
-3.66342e-06
1.24183e-06
-4.72546e-06
2.73662e-07
-2.54134e-06
-4.54901e-06
5.91398e-08
-6.03287e-06
3.42129e-06
-7.77918e-06
7.41562e-06
-1.02251e-05
1.09098e-05
4.81775e-06
2.36544e-06
5.36601e-06
6.84997e-06
3.3078e-06
8.34272e-06
1.37075e-06
7.08734e-06
4.14563e-07
3.20443e-06
1.17132e-06
2.20551e-06
1.60872e-06
-2.63221e-07
1.67755e-06
-3.43118e-06
8.37935e-07
-4.33163e-06
5.8277e-07
-1.33407e-06
4.22485e-07
-1.78054e-06
1.50579e-07
-2.90405e-06
-1.90256e-06
3.29496e-06
-2.25129e-06
6.22378e-07
-1.1668e-06
-5.63351e-06
6.05513e-07
-7.8052e-06
2.8068e-06
-9.98048e-06
4.44578e-06
-1.18641e-05
1.53556e-05
6.91328e-06
-4.54783e-06
7.70205e-06
6.0612e-06
6.11268e-06
9.93208e-06
3.67223e-06
9.52778e-06
1.84192e-06
5.03474e-06
2.14234e-06
1.90509e-06
2.36716e-06
-4.88034e-07
1.92201e-06
-2.98604e-06
8.25291e-07
-3.23491e-06
6.65257e-07
-1.17404e-06
4.62243e-07
-1.57754e-06
-2.66359e-07
-2.17547e-06
-1.52502e-07
3.18108e-06
-6.69499e-08
5.36818e-07
1.64013e-07
-5.86449e-06
8.93163e-07
-8.53435e-06
1.6545e-06
-1.07418e-05
1.68909e-06
-1.18987e-05
1.70446e-05
3.16689e-06
-8.68043e-06
5.85782e-06
-6.44935e-06
7.7355e-06
-5.15778e-06
9.01337e-06
-4.2062e-06
9.89408e-06
-3.44861e-06
1.04634e-05
-2.73137e-06
1.07691e-05
-2.02443e-06
1.08318e-05
-1.42405e-06
1.07323e-05
-9.70173e-07
1.05607e-05
-6.33247e-07
1.0354e-05
-3.47174e-07
1.01107e-05
-4.79313e-08
9.80009e-06
3.21404e-07
9.40016e-06
7.87124e-07
8.91113e-06
1.33943e-06
8.32958e-06
1.92692e-06
7.78012e-06
2.52957e-06
7.39238e-06
3.12038e-06
7.25948e-06
3.61703e-06
7.54451e-06
3.75846e-06
8.72205e-06
3.18397e-06
1.17449e-05
9.93723e-07
-5.26399e-06
1.98063e-05
2.51634e-06
-1.11968e-05
5.12655e-06
-9.05957e-06
7.08133e-06
-7.11257e-06
8.44023e-06
-5.56512e-06
9.41711e-06
-4.42551e-06
1.00731e-05
-3.38735e-06
1.03965e-05
-2.34791e-06
1.04419e-05
-1.46948e-06
1.032e-05
-8.48254e-07
1.0124e-05
-4.37214e-07
9.91402e-06
-1.37257e-07
9.72021e-06
1.4587e-07
9.55818e-06
4.83413e-07
9.49306e-06
8.52244e-07
9.59429e-06
1.2382e-06
9.89872e-06
1.62251e-06
1.04857e-05
1.94259e-06
1.14711e-05
2.135e-06
1.29385e-05
2.14965e-06
1.48965e-05
1.8005e-06
1.7353e-05
7.27466e-07
2.0278e-05
-1.93123e-06
-6.0181e-06
2.10321e-05
2.4437e-06
-1.36405e-05
4.40428e-06
-1.10202e-05
5.82732e-06
-8.53562e-06
6.87421e-06
-6.61202e-06
7.69791e-06
-5.24923e-06
8.28415e-06
-3.9736e-06
8.51089e-06
-2.57466e-06
8.4704e-06
-1.42901e-06
8.26379e-06
-6.41648e-07
7.99182e-06
-1.65256e-07
7.73151e-06
1.23043e-07
7.54865e-06
3.28717e-07
7.47954e-06
5.52522e-07
7.61402e-06
7.17758e-07
7.98963e-06
8.62588e-07
8.61484e-06
9.97302e-07
9.59176e-06
9.65685e-07
1.09767e-05
7.50079e-07
1.27915e-05
3.34918e-07
1.49519e-05
-3.59872e-07
1.7191e-05
-1.51163e-06
1.8637e-05
-3.37723e-06
-5.57711e-06
1.81961e-05
2.46905e-06
-1.61095e-05
3.50624e-06
-1.20574e-05
4.34888e-06
-9.37826e-06
5.06638e-06
-7.32953e-06
5.602e-06
-5.78485e-06
5.75901e-06
-4.13061e-06
5.8306e-06
-2.64626e-06
5.67498e-06
-1.2734e-06
5.35296e-06
-3.19628e-07
4.9751e-06
2.12592e-07
4.57807e-06
5.20065e-07
4.3651e-06
5.41682e-07
4.37747e-06
5.40145e-07
4.6105e-06
4.84729e-07
5.0087e-06
4.64386e-07
5.5954e-06
4.10598e-07
6.56187e-06
-7.77039e-10
7.93645e-06
-6.24487e-07
9.49054e-06
-1.21916e-06
1.11628e-05
-2.03214e-06
1.26871e-05
-3.03586e-06
1.31006e-05
-3.79074e-06
-4.11741e-06
1.16409e-05
5.00513e-07
-1.66101e-05
1.68231e-06
-1.32392e-05
2.53411e-06
-1.02301e-05
3.133e-06
-7.92842e-06
3.15092e-06
-5.80278e-06
2.61892e-06
-3.59861e-06
2.2638e-06
-2.29114e-06
1.91116e-06
-9.20756e-07
1.43611e-06
1.55414e-07
9.06744e-07
7.41954e-07
4.53879e-07
9.72925e-07
1.94532e-07
8.01025e-07
1.94743e-07
5.39929e-07
3.90385e-07
2.89085e-07
7.43279e-07
1.11489e-07
1.31652e-06
-1.62638e-07
2.17516e-06
-8.59425e-07
3.24854e-06
-1.69786e-06
4.40611e-06
-2.37673e-06
5.44679e-06
-3.07282e-06
6.11817e-06
-3.70723e-06
6.19267e-06
-3.86523e-06
-3.70381e-06
5.77907e-06
-9.01782e-07
-1.57083e-05
-4.11813e-08
-1.40998e-05
6.41319e-07
-1.09126e-05
7.60952e-07
-8.04806e-06
2.14718e-07
-5.25656e-06
-5.66749e-07
-2.81715e-06
-1.44241e-06
-1.41548e-06
-2.20859e-06
-1.54582e-07
-2.91714e-06
8.63964e-07
-3.55381e-06
1.37862e-06
-3.96648e-06
1.38559e-06
-4.25185e-06
1.0864e-06
-4.35209e-06
6.4016e-07
-4.23068e-06
1.67678e-07
-3.82134e-06
-2.97854e-07
-3.09859e-06
-8.85392e-07
-2.25479e-06
-1.70323e-06
-1.38459e-06
-2.56807e-06
-4.23989e-07
-3.33733e-06
4.83378e-07
-3.98019e-06
1.16462e-06
-4.38847e-06
1.74124e-06
-4.44184e-06
-4.27282e-06
2.31024e-06
-6.07806e-07
-1.51005e-05
-2.76114e-07
-1.44315e-05
-1.10978e-07
-1.10777e-05
-5.63477e-07
-7.59556e-06
-1.36724e-06
-4.45279e-06
-2.26705e-06
-1.91734e-06
-3.41483e-06
-2.67704e-07
-4.49876e-06
9.29353e-07
-5.44048e-06
1.80568e-06
-6.19827e-06
2.13641e-06
-6.77312e-06
1.96043e-06
-7.15292e-06
1.4662e-06
-7.31955e-06
8.06788e-07
-7.23459e-06
8.27191e-08
-6.85455e-06
-6.77896e-07
-6.22455e-06
-1.51538e-06
-5.4563e-06
-2.47148e-06
-4.61599e-06
-3.40838e-06
-3.66987e-06
-4.28344e-06
-2.6909e-06
-4.95914e-06
-1.72573e-06
-5.35364e-06
-7.06853e-07
-5.46071e-06
-5.33653e-06
3.56866e-07
-3.02723e-07
-1.47976e-05
5.49765e-07
-1.52838e-05
5.18313e-07
-1.10462e-05
-3.16972e-07
-6.76024e-06
-1.62708e-06
-3.14266e-06
-2.90521e-06
-6.39224e-07
-4.15514e-06
9.82205e-07
-5.40805e-06
2.18224e-06
-6.55718e-06
2.95477e-06
-7.47938e-06
3.05857e-06
-8.147e-06
2.62803e-06
-8.60488e-06
1.92407e-06
-8.84495e-06
1.04685e-06
-8.81717e-06
5.49431e-08
-8.50056e-06
-9.94493e-07
-7.95251e-06
-2.0634e-06
-7.25331e-06
-3.17064e-06
-6.39635e-06
-4.26529e-06
-5.4032e-06
-5.27653e-06
-4.29798e-06
-6.06429e-06
-3.09542e-06
-6.55613e-06
-1.77293e-06
-6.78313e-06
-6.82429e-06
-2.85096e-07
-4.71787e-08
-1.475e-05
9.58985e-07
-1.62896e-05
1.39637e-06
-1.14832e-05
3.15762e-07
-5.67946e-06
-1.4528e-06
-1.37408e-06
-2.89732e-06
8.05286e-07
-4.0591e-06
2.14396e-06
-5.34408e-06
3.46719e-06
-6.5408e-06
4.15146e-06
-7.44893e-06
3.96665e-06
-8.06685e-06
3.24591e-06
-8.52366e-06
2.38085e-06
-8.8092e-06
1.33238e-06
-8.83945e-06
8.51989e-08
-8.58741e-06
-1.24651e-06
-8.11459e-06
-2.53618e-06
-7.49821e-06
-3.78695e-06
-6.73639e-06
-5.02703e-06
-5.82182e-06
-6.191e-06
-4.77551e-06
-7.11049e-06
-3.60884e-06
-7.7227e-06
-2.3414e-06
-8.05046e-06
-8.1603e-06
-1.00529e-06
4.01455e-06
-1.87629e-05
-3.96717e-06
-8.30638e-06
-1.19849e-06
-1.4251e-05
-5.70123e-07
-6.30693e-06
-2.92226e-06
9.7852e-07
-4.18403e-06
2.06716e-06
-5.2858e-06
3.24575e-06
-6.16759e-06
4.34894e-06
-6.78098e-06
4.76477e-06
-7.30483e-06
4.4904e-06
-7.80221e-06
3.74323e-06
-8.16915e-06
2.74775e-06
-8.35097e-06
1.51419e-06
-8.33797e-06
7.22214e-08
-8.11634e-06
-1.46806e-06
-7.68118e-06
-2.97124e-06
-7.07638e-06
-4.39158e-06
-6.37502e-06
-5.72819e-06
-5.61467e-06
-6.95111e-06
-4.75705e-06
-7.96788e-06
-3.76475e-06
-8.71482e-06
-2.73817e-06
-9.07677e-06
-9.12183e-06
-1.77632e-06
4.43655e-06
-2.31985e-05
3.65408e-06
-7.52328e-06
-5.47363e-06
-5.1222e-06
-1.1069e-05
-7.10844e-07
-1.35576e-05
3.4674e-06
-1.55703e-05
4.08001e-06
-1.63905e-05
4.06605e-06
-1.62745e-05
4.233e-06
-1.56277e-05
4.11794e-06
-1.48775e-05
3.74029e-06
-1.42711e-05
3.13687e-06
-1.37422e-05
2.21879e-06
-1.32232e-05
9.95269e-07
-1.26717e-05
-4.79232e-07
-1.2089e-05
-2.05071e-06
-1.14655e-05
-3.59468e-06
-1.08131e-05
-5.0438e-06
-1.01528e-05
-6.38836e-06
-9.49922e-06
-7.60455e-06
-8.85027e-06
-8.61683e-06
-8.22062e-06
-9.34449e-06
-7.57333e-06
-9.72366e-06
-9.44316e-06
-7.25105e-06
-5.06289e-06
-1.81355e-05
-7.27406e-06
-5.31281e-06
-1.1989e-05
-4.07705e-07
-1.64375e-05
3.73713e-06
-1.82003e-05
5.22998e-06
-1.91691e-05
5.04895e-06
-1.97975e-05
4.69454e-06
-1.94704e-05
3.90601e-06
-1.83629e-05
3.01071e-06
-1.70491e-05
2.42655e-06
-1.59226e-05
2.01053e-06
-1.49978e-05
1.29409e-06
-1.41846e-05
1.82086e-07
-1.34432e-05
-1.22062e-06
-1.2761e-05
-2.73296e-06
-1.21292e-05
-4.22657e-06
-1.15413e-05
-5.63178e-06
-1.10043e-05
-6.92541e-06
-1.05331e-05
-8.07592e-06
-1.0121e-05
-9.02935e-06
-9.73192e-06
-9.7338e-06
-9.30196e-06
-1.01538e-05
-1.02412e-05
-8.5032e-06
-8.70883e-06
-9.42669e-06
-1.24386e-05
-1.5831e-06
-1.58365e-05
2.98943e-06
-1.71789e-05
5.07924e-06
-1.81139e-05
6.16491e-06
-1.92203e-05
6.15548e-06
-1.98504e-05
5.32471e-06
-1.95625e-05
3.61817e-06
-1.86327e-05
2.08113e-06
-1.73821e-05
1.17603e-06
-1.61482e-05
7.76752e-07
-1.51959e-05
3.41822e-07
-1.43532e-05
-6.60537e-07
-1.36217e-05
-1.95218e-06
-1.29941e-05
-3.36051e-06
-1.24683e-05
-4.75246e-06
-1.20284e-05
-6.07175e-06
-1.16705e-05
-7.28332e-06
-1.13945e-05
-8.35207e-06
-1.11878e-05
-9.23638e-06
-1.10198e-05
-9.90198e-06
-1.08448e-05
-1.03288e-05
-1.06144e-05
-1.04709e-05
-8.54744e-06
-8.79065e-07
-1.30891e-05
2.95864e-06
-1.51835e-05
5.08385e-06
-1.64746e-05
6.37032e-06
-1.73301e-05
7.02046e-06
-1.79558e-05
6.78122e-06
-1.81827e-05
5.55165e-06
-1.79684e-05
3.40398e-06
-1.73447e-05
1.45754e-06
-1.64025e-05
2.33994e-07
-1.53313e-05
-2.94433e-07
-1.44776e-05
-5.11786e-07
-1.37236e-05
-1.4145e-06
-1.30819e-05
-2.59386e-06
-1.25761e-05
-3.86633e-06
-1.22025e-05
-5.12602e-06
-1.19424e-05
-6.33192e-06
-1.17832e-05
-7.4425e-06
-1.17149e-05
-8.42051e-06
-1.17175e-05
-9.23408e-06
-1.17643e-05
-9.85536e-06
-1.18184e-05
-1.02747e-05
-1.06791e-05
-1.17529e-05
-6.64454e-06
5.76548e-06
-1.08139e-05
7.12816e-06
-1.32538e-05
7.52385e-06
-1.45633e-05
7.67997e-06
-1.52134e-05
7.67069e-06
-1.54191e-05
6.98697e-06
-1.53523e-05
5.48493e-06
-1.52781e-05
3.3299e-06
-1.50065e-05
1.186e-06
-1.4494e-05
-2.78355e-07
-1.38899e-05
-8.98432e-07
-1.31846e-05
-1.21702e-06
-1.2555e-05
-2.04411e-06
-1.20527e-05
-3.09608e-06
-1.16955e-05
-4.22355e-06
-1.14804e-05
-5.3411e-06
-1.13869e-05
-6.42538e-06
-1.13991e-05
-7.43029e-06
-1.14993e-05
-8.32041e-06
-1.16657e-05
-9.06794e-06
-1.18655e-05
-9.65561e-06
-1.20662e-05
-1.00739e-05
-1.055e-05
-1.21945e-05
-4.93299e-06
1.06989e-05
-8.18988e-06
1.03854e-05
-1.03084e-05
9.64258e-06
-1.15608e-05
8.93255e-06
-1.20978e-05
8.20783e-06
-1.21738e-05
7.06309e-06
-1.2065e-05
5.37626e-06
-1.20375e-05
3.30254e-06
-1.2096e-05
1.2446e-06
-1.20676e-05
-3.06699e-07
-1.18565e-05
-1.10951e-06
-1.13904e-05
-1.683e-06
-1.09582e-05
-2.47625e-06
-1.06346e-05
-3.41969e-06
-1.04471e-05
-4.41102e-06
-1.03833e-05
-5.40483e-06
-1.04335e-05
-6.37523e-06
-1.05827e-05
-7.28099e-06
-1.08119e-05
-8.09122e-06
-1.10946e-05
-8.78543e-06
-1.14057e-05
-9.34463e-06
-1.17176e-05
-9.76183e-06
-1.02883e-05
-1.19785e-05
-3.31237e-06
1.40115e-05
-5.62574e-06
1.2699e-05
-7.21943e-06
1.12365e-05
-8.21482e-06
9.92815e-06
-8.66042e-06
8.65359e-06
-8.75912e-06
7.16192e-06
-8.74995e-06
5.36721e-06
-8.83121e-06
3.3839e-06
-9.05857e-06
1.47204e-06
-9.32463e-06
-4.05557e-08
-9.3759e-06
-1.05817e-06
-9.22384e-06
-1.835e-06
-9.04668e-06
-2.65336e-06
-8.93552e-06
-3.53082e-06
-8.91944e-06
-4.42707e-06
-8.99708e-06
-5.32714e-06
-9.16864e-06
-6.20362e-06
-9.42308e-06
-7.02648e-06
-9.74308e-06
-7.77121e-06
-1.011e-05
-8.41866e-06
-1.04976e-05
-8.95714e-06
-1.08853e-05
-9.37391e-06
-9.9172e-06
-1.12556e-05
-1.90021e-06
1.59122e-05
-3.33455e-06
1.41336e-05
-4.38939e-06
1.22916e-05
-5.08161e-06
1.06206e-05
-5.43642e-06
9.00856e-06
-5.58225e-06
7.30788e-06
-5.68797e-06
5.47303e-06
-5.88325e-06
3.57928e-06
-6.2149e-06
1.80378e-06
-6.57652e-06
3.21137e-07
-6.82512e-06
-8.09521e-07
-6.93373e-06
-1.72634e-06
-6.99579e-06
-2.59127e-06
-7.08141e-06
-3.44516e-06
-7.21701e-06
-4.29143e-06
-7.41729e-06
-5.12681e-06
-7.68612e-06
-5.93474e-06
-8.01791e-06
-6.69462e-06
-8.40141e-06
-7.3877e-06
-8.81802e-06
-8.00221e-06
-9.25389e-06
-8.52132e-06
-9.69743e-06
-8.93021e-06
-9.49035e-06
-1.01234e-05
-8.00744e-07
1.6713e-05
-1.49945e-06
1.48325e-05
-2.07108e-06
1.28634e-05
-2.47741e-06
1.1027e-05
-2.72325e-06
9.25452e-06
-2.88224e-06
7.46699e-06
-3.05572e-06
5.64661e-06
-3.32412e-06
3.84776e-06
-3.69566e-06
2.17539e-06
-4.1075e-06
7.33044e-07
-4.46582e-06
-4.51145e-07
-4.73966e-06
-1.45245e-06
-4.97152e-06
-2.35937e-06
-5.20159e-06
-3.21505e-06
-5.45489e-06
-4.03811e-06
-5.74724e-06
-4.83441e-06
-6.08512e-06
-5.5968e-06
-6.46704e-06
-6.31263e-06
-6.88501e-06
-6.96972e-06
-7.33101e-06
-7.55638e-06
-7.79028e-06
-8.06208e-06
-8.25434e-06
-8.46601e-06
-9.02162e-06
-8.72223e-06
-5.11158e-08
1.67645e-05
-2.00373e-07
1.4982e-05
-3.76289e-07
1.30394e-05
-5.28086e-07
1.1179e-05
-6.48116e-07
9.37466e-06
-7.71758e-07
7.59073e-06
-9.52423e-07
5.82736e-06
-1.22785e-06
4.12326e-06
-1.59566e-06
2.54327e-06
-2.00809e-06
1.14553e-06
-2.40482e-06
-5.43631e-08
-2.76131e-06
-1.09592e-06
-3.08818e-06
-2.03246e-06
-3.40611e-06
-2.8971e-06
-3.73245e-06
-3.71173e-06
-4.08045e-06
-4.48637e-06
-4.45716e-06
-5.22003e-06
-4.8635e-06
-5.90622e-06
-5.29635e-06
-6.53686e-06
-5.74601e-06
-7.10688e-06
-6.20819e-06
-7.59996e-06
-6.67905e-06
-7.99498e-06
-8.5622e-06
-7.13766e-06
3.65652e-07
1.63988e-05
5.84615e-07
1.47631e-05
7.10704e-07
1.29134e-05
7.76103e-07
1.11136e-05
7.92425e-07
9.35841e-06
7.4573e-07
7.63749e-06
6.13506e-07
5.95964e-06
3.82785e-07
4.35404e-06
6.46356e-08
2.86147e-06
-3.06023e-07
1.51623e-06
-6.87679e-07
3.27332e-07
-1.05843e-06
-7.25141e-07
-1.41617e-06
-1.6747e-06
-1.76807e-06
-2.54516e-06
-2.12376e-06
-3.35602e-06
-2.49239e-06
-4.1177e-06
-2.87962e-06
-4.83275e-06
-3.28676e-06
-5.49902e-06
-3.71088e-06
-6.11272e-06
-4.15147e-06
-6.66646e-06
-4.59957e-06
-7.15188e-06
-5.05111e-06
-7.54333e-06
-8.10562e-06
-5.50688e-06
5.22998e-07
1.5876e-05
9.53893e-07
1.43322e-05
1.28621e-06
1.25812e-05
1.52532e-06
1.08746e-05
1.67526e-06
9.20852e-06
1.73127e-06
7.58153e-06
1.6862e-06
6.00476e-06
1.54004e-06
4.50024e-06
1.30675e-06
3.0948e-06
1.01317e-06
1.80985e-06
6.8871e-07
6.51817e-07
3.52858e-07
-3.89265e-07
1.21182e-08
-1.33394e-06
-3.30751e-07
-2.20227e-06
-6.79155e-07
-3.00759e-06
-1.03807e-06
-3.75875e-06
-1.41101e-06
-4.45977e-06
-1.7988e-06
-5.11117e-06
-2.20146e-06
-5.71006e-06
-2.61323e-06
-6.25484e-06
-3.03456e-06
-6.73062e-06
-3.46533e-06
-7.11242e-06
-7.68581e-06
-3.88439e-06
5.15899e-07
1.53599e-05
1.03992e-06
1.38082e-05
1.49784e-06
1.21232e-05
1.86513e-06
1.05073e-05
2.13369e-06
8.93998e-06
2.29853e-06
7.41671e-06
2.35766e-06
5.94566e-06
2.31555e-06
4.54237e-06
2.18574e-06
3.22464e-06
1.98913e-06
2.00648e-06
1.74807e-06
8.92902e-07
1.47963e-06
-1.20814e-07
1.19144e-06
-1.04573e-06
8.89868e-07
-1.90068e-06
5.75793e-07
-2.6935e-06
2.48785e-07
-3.43172e-06
-9.1438e-08
-4.11951e-06
-4.44662e-07
-4.7579e-06
-8.09651e-07
-5.34508e-06
-1.18768e-06
-5.87698e-06
-1.57334e-06
-6.345e-06
-1.9649e-06
-6.72079e-06
-7.28748e-06
-2.3625e-06
4.32207e-07
1.49278e-05
9.71926e-07
1.32684e-05
1.49266e-06
1.16025e-05
1.94536e-06
1.00546e-05
2.30877e-06
8.57657e-06
2.57295e-06
7.15253e-06
2.73508e-06
5.78355e-06
2.79926e-06
4.4782e-06
2.77652e-06
3.24739e-06
2.68295e-06
2.10007e-06
2.53579e-06
1.04007e-06
2.34946e-06
6.5527e-08
2.13272e-06
-8.28991e-07
1.892e-06
-1.65995e-06
1.63179e-06
-2.43328e-06
1.35409e-06
-3.154e-06
1.06004e-06
-3.82543e-06
7.50395e-07
-4.44821e-06
4.26351e-07
-5.02104e-06
9.35044e-08
-5.54429e-06
-2.51334e-07
-6.00024e-06
-6.135e-07
-6.35845e-06
-6.95159e-06
-9.48686e-07
3.33639e-07
1.45938e-05
8.49211e-07
1.27527e-05
1.39091e-06
1.10607e-05
1.8933e-06
9.55216e-06
2.32464e-06
8.1452e-06
2.66908e-06
6.80808e-06
2.9205e-06
5.53212e-06
3.08038e-06
4.31833e-06
3.15637e-06
3.1714e-06
3.16034e-06
2.09611e-06
3.10553e-06
1.09488e-06
3.00387e-06
1.67192e-07
2.86431e-06
-6.8943e-07
2.69228e-06
-1.48791e-06
2.49435e-06
-2.23535e-06
2.27401e-06
-2.93364e-06
2.03357e-06
-3.58495e-06
1.77514e-06
-4.18974e-06
1.50218e-06
-4.74809e-06
1.21323e-06
-5.2555e-06
9.20496e-07
-5.70751e-06
6.39382e-07
-6.07728e-06
-6.60305e-06
2.91547e-07
2.57302e-07
1.43365e-05
7.37391e-07
1.22725e-05
1.27662e-06
1.05214e-05
1.80247e-06
9.02625e-06
2.27674e-06
7.67089e-06
2.67889e-06
6.40591e-06
2.99938e-06
5.21162e-06
3.23666e-06
4.08104e-06
3.39511e-06
3.01294e-06
3.48302e-06
2.00819e-06
3.51038e-06
1.06752e-06
3.48682e-06
1.90746e-07
3.42042e-06
-6.23034e-07
3.3163e-06
-1.38379e-06
3.1813e-06
-2.10035e-06
3.01955e-06
-2.77188e-06
2.83421e-06
-3.39959e-06
2.62777e-06
-3.98327e-06
2.40141e-06
-4.52172e-06
2.16076e-06
-5.01498e-06
1.90321e-06
-5.45003e-06
1.62346e-06
-5.79736e-06
-6.33862e-06
1.35965e-06
2.19552e-07
1.41166e-05
6.71708e-07
1.18202e-05
1.20041e-06
9.99254e-06
1.73332e-06
8.49325e-06
2.23027e-06
7.17389e-06
2.6684e-06
5.96773e-06
3.036e-06
4.84399e-06
3.3292e-06
3.78781e-06
3.54983e-06
2.7923e-06
3.70343e-06
1.85458e-06
3.79739e-06
9.73542e-07
3.83937e-06
1.48758e-07
3.83612e-06
-6.19793e-07
3.79289e-06
-1.34057e-06
3.71567e-06
-2.02314e-06
3.60863e-06
-2.66483e-06
3.47489e-06
-3.26582e-06
3.31721e-06
-3.82555e-06
3.13863e-06
-4.34314e-06
2.93806e-06
-4.81455e-06
2.72021e-06
-5.23219e-06
2.48795e-06
-5.56508e-06
-6.08948e-06
2.23944e-06
2.25232e-07
1.38911e-05
6.67202e-07
1.1378e-05
1.18728e-06
9.47232e-06
1.71905e-06
7.96138e-06
2.22404e-06
6.66883e-06
2.67965e-06
5.51206e-06
3.07371e-06
4.4499e-06
3.40134e-06
3.46015e-06
3.66293e-06
2.5307e-06
3.86222e-06
1.65526e-06
4.0048e-06
8.30947e-07
4.09666e-06
5.688e-08
4.14336e-06
-6.66509e-07
4.15017e-06
-1.34739e-06
4.12178e-06
-1.99476e-06
4.06182e-06
-2.60487e-06
3.97327e-06
-3.17725e-06
3.85825e-06
-3.71051e-06
3.71788e-06
-4.20277e-06
3.55715e-06
-4.65394e-06
3.37455e-06
-5.04967e-06
3.17104e-06
-5.36137e-06
-5.88289e-06
2.96501e-06
2.71526e-07
1.36192e-05
7.25284e-07
1.0924e-05
1.24494e-06
8.95251e-06
1.77332e-06
7.43289e-06
2.27669e-06
6.16538e-06
2.73508e-06
5.05362e-06
3.13767e-06
4.04727e-06
3.4801e-06
3.11769e-06
3.76252e-06
2.24825e-06
3.98795e-06
1.42981e-06
4.16092e-06
6.57961e-07
4.2862e-06
-6.84285e-08
4.36849e-06
-7.48814e-07
4.41277e-06
-1.39168e-06
4.42233e-06
-2.00432e-06
4.39994e-06
-2.58248e-06
4.34774e-06
-3.12504e-06
4.26758e-06
-3.63032e-06
4.16217e-06
-4.09737e-06
4.02933e-06
-4.52123e-06
3.87486e-06
-4.89518e-06
3.70234e-06
-5.18886e-06
-5.68178e-06
3.50183e-06
3.53437e-07
1.32656e-05
8.41016e-07
1.04362e-05
1.37078e-06
8.42259e-06
1.89702e-06
6.90653e-06
2.39279e-06
5.66954e-06
2.84264e-06
4.60371e-06
3.23884e-06
3.65103e-06
3.57898e-06
2.77751e-06
3.86425e-06
1.96296e-06
4.09796e-06
1.19607e-06
4.28432e-06
4.71573e-07
4.42734e-06
-2.11471e-07
4.53126e-06
-8.52747e-07
4.60042e-06
-1.46086e-06
4.63659e-06
-2.04051e-06
4.64149e-06
-2.58739e-06
4.61647e-06
-3.1e-06
4.56265e-06
-3.57647e-06
4.47992e-06
-4.01466e-06
4.37269e-06
-4.4141e-06
4.23864e-06
-4.76122e-06
4.07748e-06
-5.02753e-06
-5.50271e-06
3.89884e-06
4.64557e-07
1.28007e-05
1.00619e-06
9.89436e-06
1.55712e-06
7.87151e-06
2.08403e-06
6.37951e-06
2.5683e-06
5.18519e-06
3.00066e-06
4.1713e-06
3.37801e-06
3.27364e-06
3.70126e-06
2.45422e-06
3.97378e-06
1.69041e-06
4.20013e-06
9.69703e-07
4.38492e-06
2.86759e-07
4.53182e-06
-3.58387e-07
4.64487e-06
-9.65817e-07
4.72734e-06
-1.54335e-06
4.77948e-06
-2.09265e-06
4.8017e-06
-2.60961e-06
4.79417e-06
-3.09246e-06
4.75734e-06
-3.53963e-06
4.69258e-06
-3.94991e-06
4.59772e-06
-4.31934e-06
4.47654e-06
-4.64004e-06
4.3308e-06
-4.88185e-06
-5.31332e-06
4.14189e-06
6.00094e-07
1.22003e-05
1.21343e-06
9.28083e-06
1.7954e-06
7.2894e-06
2.32564e-06
5.84919e-06
2.795e-06
4.71576e-06
3.20195e-06
3.7643e-06
3.54947e-06
2.92608e-06
3.84308e-06
2.16059e-06
4.08937e-06
1.4441e-06
4.29497e-06
7.64093e-07
4.46552e-06
1.16189e-07
4.60483e-06
-4.97718e-07
4.71656e-06
-1.07757e-06
4.80254e-06
-1.62935e-06
4.86129e-06
-2.15141e-06
4.89164e-06
-2.63996e-06
4.89274e-06
-3.09355e-06
4.86403e-06
-3.51089e-06
4.8048e-06
-3.89069e-06
4.71833e-06
-4.23297e-06
4.60277e-06
-4.52454e-06
4.45749e-06
-4.73636e-06
-5.14092e-06
4.28549e-06
7.56606e-07
1.14435e-05
1.45746e-06
8.57981e-06
2.07896e-06
6.66779e-06
2.61375e-06
5.31432e-06
3.06372e-06
4.26575e-06
3.43683e-06
3.39116e-06
3.74382e-06
2.61906e-06
3.99602e-06
1.90837e-06
4.20415e-06
1.23595e-06
4.37756e-06
5.90674e-07
4.52346e-06
-2.97213e-08
4.64615e-06
-6.2042e-07
4.74845e-06
-1.17988e-06
4.83025e-06
-1.71115e-06
4.88798e-06
-2.20914e-06
4.91866e-06
-2.67063e-06
4.92006e-06
-3.09494e-06
4.89124e-06
-3.48204e-06
4.83328e-06
-3.83272e-06
4.74383e-06
-4.14359e-06
4.62744e-06
-4.40808e-06
4.48716e-06
-4.5961e-06
-4.95423e-06
4.30094e-06
9.33353e-07
1.051e-05
1.73705e-06
7.77598e-06
2.4049e-06
5.99985e-06
2.94282e-06
4.77635e-06
3.36606e-06
3.84248e-06
3.69485e-06
3.06234e-06
3.94967e-06
2.36424e-06
4.14881e-06
1.70922e-06
4.30778e-06
1.07697e-06
4.4391e-06
4.59355e-07
4.55187e-06
-1.42502e-07
4.65115e-06
-7.19706e-07
4.73835e-06
-1.26708e-06
4.81058e-06
-1.78338e-06
4.8615e-06
-2.26006e-06
4.88591e-06
-2.69503e-06
4.88059e-06
-3.08959e-06
4.84443e-06
-3.44585e-06
4.777e-06
-3.76527e-06
4.68236e-06
-4.04899e-06
4.55979e-06
-4.28553e-06
4.40979e-06
-4.44588e-06
-4.77117e-06
4.22708e-06
1.1313e-06
9.3786e-06
2.05471e-06
6.8525e-06
2.77448e-06
5.28004e-06
3.30995e-06
4.24085e-06
3.69444e-06
3.45797e-06
3.9649e-06
2.79188e-06
4.15406e-06
2.17508e-06
4.28812e-06
1.57515e-06
4.38749e-06
9.77614e-07
4.46792e-06
3.78923e-07
4.5407e-06
-2.1528e-07
4.61179e-06
-7.90795e-07
4.68058e-06
-1.33587e-06
4.74011e-06
-1.84291e-06
4.78005e-06
-2.29999e-06
4.7926e-06
-2.70757e-06
4.77367e-06
-3.07063e-06
4.72277e-06
-3.39491e-06
4.6424e-06
-3.68488e-06
4.53308e-06
-3.93968e-06
4.39962e-06
-4.15198e-06
4.24576e-06
-4.29202e-06
-4.56733e-06
4.04233e-06
1.35397e-06
8.02456e-06
2.41666e-06
5.78977e-06
3.19171e-06
4.50496e-06
3.7125e-06
3.72005e-06
4.0394e-06
3.13108e-06
4.23315e-06
2.59814e-06
4.34151e-06
2.06672e-06
4.39856e-06
1.51811e-06
4.42871e-06
9.47469e-07
4.45045e-06
3.57193e-07
4.47757e-06
-2.42387e-07
4.51735e-06
-8.3057e-07
4.56663e-06
-1.38514e-06
4.6124e-06
-1.88867e-06
4.63826e-06
-2.32583e-06
4.63347e-06
-2.70277e-06
4.59422e-06
-3.03135e-06
4.52161e-06
-3.32225e-06
4.41915e-06
-3.58237e-06
4.29347e-06
-3.814e-06
4.14671e-06
-4.0052e-06
3.98025e-06
-4.1253e-06
-4.36958e-06
3.78283e-06
1.60819e-06
6.41637e-06
2.8293e-06
4.56867e-06
3.65695e-06
3.67733e-06
4.14014e-06
3.23687e-06
4.38259e-06
2.88865e-06
4.47843e-06
2.50232e-06
4.49191e-06
2.05326e-06
4.46256e-06
1.54748e-06
4.41615e-06
9.93897e-07
4.37266e-06
4.00691e-07
4.34901e-06
-2.18721e-07
4.35531e-06
-8.36856e-07
4.38571e-06
-1.41552e-06
4.41825e-06
-1.9212e-06
4.42693e-06
-2.33449e-06
4.39842e-06
-2.67423e-06
4.33117e-06
-2.96406e-06
4.23001e-06
-3.22104e-06
4.10372e-06
-3.45603e-06
3.9573e-06
-3.66755e-06
3.79732e-06
-3.84508e-06
3.62681e-06
-3.95473e-06
-4.15976e-06
3.41738e-06
1.91191e-06
4.50452e-06
3.2908e-06
3.18984e-06
4.14712e-06
2.82105e-06
4.55397e-06
2.83006e-06
4.68191e-06
2.76073e-06
4.66463e-06