/*--------------------------------*- C++ -*----------------------------------*\
  =========                 |
  \\      /  F ield         | OpenFOAM: The Open Source CFD Toolbox
   \\    /   O peration     | Website:  https://openfoam.org
    \\  /    A nd           | Version:  13
     \\/     M anipulation  |
\*---------------------------------------------------------------------------*/
FoamFile
{
    format      ascii;
    class       volScalarField;
    location    "2.55";
    object      rho;
}
// * * * * * * * * * * * * * * * * * * * * * * * * * * * * * * * * * * * * * //

dimensions      [1 -3 0 0 0 0 0];

internalField   nonuniform List<scalar> 
2268
(
13529
13529
13529
13529
13529
13529
13529
13529
13529
13529
13529
13529
13529
13529
13529
13529
13529
13529
13529
13529
13524.7
13521.6
13521.6
13529
13529
13529
13529
13529
13529
13529
13529
13529
13529
13529
13529
13529
13529
13529
13529
13529
13529
13529
13529
13528.2
13526.6
13525.1
13529
13529
13529
13529
13529
13529
13529
13529
13529
13529
13529
13529
13529
13529
13529
13529
13529
13529
13529
13529
13529
13529
13529
13529
13529
13529
13529
13529
13529
13529
13529
13529
13529
13529
13529
13529
13529
13529
13529
13529
13529
13529
13529
13529
13529
13529
13377.9
13381.5
13425.5
13476.8
13514.2
13529
13529
13529
13529
13529
13529
13529
13529
13529
13529
13529
13529
13529
13529
13529
13529
13529
13529
5706.59
5936.91
6311.77
6850.67
7528.45
8326.14
9225.5
9996.42
10739.5
11477.3
12172.3
12773.2
13221.3
13474.2
13529
13529
13529
13529
13529
13529
13529
13529
13529
1000
1000
1000
999.999
999.998
999.999
1000
1227.29
1607.88
2129.05
2851.04
3838.04
5151.47
6835.63
8699.03
10393.9
11815.3
12907
13529
13529
13528.9
13528.5
13522.1
1000
1000
1000
1000
999.996
999.998
999.999
1000
1000
1000
1000
1000
1000
1000
1136.63
1697.23
2694.7
4110.14
5987.83
8169.46
9839.1
11073.9
12385.8
11732.8
11940.5
11945.9
11950.9
11944.5
11822.8
9210.13
8782.13
8917.79
9019.5
8850.14
8542.36
8915.75
10265.8
10339.5
10358.9
10322.3
10297.6
10300.8
7677.42
7968.67
8893.75
9554.14
11274
11564.4
11366.1
10973.9
11244.5
11230.3
10932.3
9854.21
9927.3
10285.1
10290.2
10292
10299.2
10296.8
10296.6
3020.75
3044.66
3379.67
4873.48
5770.49
8423.89
8968.72
9905.63
10042.2
10091.3
9499.66
9266.23
9002.83
8720.28
8604.72
9183.82
8883.4
8124.54
7812.89
2544.74
2644.4
2616.29
2632.94
2320.5
2397.88
3568.2
3433.41
3062.33
3189.06
3912.98
3928.4
3568.68
3478.31
2972.55
2271.5
2481.42
3498.99
4439.87
2160.73
2194.82
2175.49
2335.27
1945.99
1069.28
1125.22
1455.41
1527.84
1096.56
853.601
1845.75
2212.85
1346.06
692.609
615.617
671.306
720.026
608.844
1343.47
1465.04
2109.44
2066.87
2174.36
1416.48
1219.22
1276.78
1564.58
1151.73
968.263
429.691
263.701
369.662
812.742
976.476
999.887
999.884
615.439
1108.92
1068.46
1091.68
1399.28
1854.24
1732.61
1627.95
1717.51
1623.13
1115.19
1007.99
928.074
291.977
554.645
968.778
999.927
999.863
999.744
695.797
1219.78
1174.03
981.278
974.206
1228.97
1691.03
1745.75
1617.92
1019.47
1021.37
1005.84
995.802
661.297
777.163
999.895
999.97
999.573
983.501
704.154
1000
1000
999.996
999.935
999.973
999.998
1000
1000
1000
1000
1000
1000
1000
1000
1000
1000
1000
1000
1002.56
1071.89
1236.46
1486.15
2057.52
999.322
999.33
998.826
999.389
999.97
999.999
1000
1000
1000
1000
1000
1000
1000
1000
1000
1000
1000
1000
1000
1000.81
1002.33
1001.17
999.353
921.631
975.825
998.131
999.73
999.999
999.999
998.045
996.906
997.01
997.163
997.05
994.836
989.601
987.182
991.614
997.726
999.747
999.882
995.381
972.627
929.312
919.338
896.786
829.697
842.205
853.37
856.392
874.259
889.187
854.903
835.181
823.555
813.212
801.079
781.403
760.307
755.431
756.464
744.482
724.945
701.418
683.373
666.814
638.095
577.037
487.893
493.956
518.234
514.462
518.32
527.488
489.029
486.623
461.416
441.452
429.611
414.536
430.671
444.848
447.574
436.233
426.724
452.246
487.362
488.216
487.415
494.155
474.41
449.487
481.41
500.186
499.788
499.295
478.541
463.475
489.941
499.996
495.423
493.649
499.812
499.925
499.988
499.979
498.671
498.597
500
500
500
499.99
497.395
495.502
499.754
499.68
500.368
500.019
500
500
500
500
500
500
500
500
500
500
500
500
500
500
500
500
500.001
500.006
500.009
500.002
493.492
499.876
498.369
495.3
491.865
479.741
477.581
478.715
474.072
469.254
465.462
462.782
460.669
459.702
459.69
459.588
459.512
460.571
462.735
465.035
467.009
469.216
471.802
188.287
252.501
258.553
227.951
203.954
190.633
174.701
150.309
131.672
120.883
113.605
106.009
99.8247
96.3636
94.7901
93.7627
93.519
95.3482
98.7503
102.161
105.236
108.663
114.718
1.00037
1.00023
11.122
7.96702
1.11951
1.00031
1.00031
1.0003
1.00033
1.0003
1.00024
1.00015
1.00008
1.00003
1.00001
1
1
1
1
1.00001
1.00001
1.00002
1.00003
1.00057
1.00092
1.00105
1.00077
1.00054
1.00016
1.00007
1.00003
1.00002
1.00001
1.00001
1.00002
1.00002
1.00002
1.00002
1.00002
1.00002
1.00002
1.00002
1.00002
1.00003
1.00006
1.00011
1.00094
1.00247
1.00425
1.00191
1.0001
1.00015
1.00067
1.00365
1.00852
1.00444
1.0003
1.0002
1.00014
1.00012
1.00016
1.00017
1.00012
1.0001
1.00009
1.00007
1.00006
1.00008
1.0001
1.00097
1.00423
1.01589
1.02262
1.0013
1.00017
1.00114
1.05158
1.08375
1.05163
1.00227
1.00055
1.00045
1.00042
1.00046
1.00033
1.00017
1.00012
1.00011
1.00007
1.00006
1.00005
1.00006
1.00091
1.00441
1.02924
1.03099
1.01976
1.00033
1.00409
1.07248
1.08315
1.08402
1.05386
1.00317
1.00221
1.00147
1.00114
1.00059
1.00023
1.00015
1.00013
1.00008
1.00006
1.00004
1.00004
1.00067
1.00246
1.02198
1.02908
1.01379
1.00014
1.00038
1.03355
1.08205
1.08243
1.06596
1.00316
1.00317
1.00317
1.00286
1.00063
1.00019
1.00015
1.00014
1.00008
1.00007
1.00004
1.00003
1.00056
1.00136
1.00404
1.00818
1.00106
1.00014
1.0001
1.00069
1.0205
1.04524
1.0159
1.00262
1.00318
1.00318
1.00286
1.00054
1.00019
1.00012
1.00012
1.00009
1.00008
1.00005
1.00003
1.00043
1.00071
1.00053
1.00037
1.00016
1.00006
1.00005
1.00012
1.0003
1.00035
1.00009
1.00026
1.00141
1.00251
1.00052
1.00014
1.00014
1.00012
1.00008
1.00007
1.00006
1.00004
1.00003
1.00031
1.00047
1.00019
1.00006
1.00005
1.00005
1.00005
1.00006
1.00006
1.00009
1.00008
1.00028
1.00075
1.00045
1.00007
1.00006
1.00007
1.00007
1.00005
1.00004
1.00003
1.00003
1.00002
1.00022
1.00028
1.00016
1.00006
1.00005
1.00005
1.00005
1.00005
1.00003
1.00002
1.00003
1.00027
1.00046
1.00034
1.00008
1.00004
1.00004
1.00004
1.00003
1.00002
1.00002
1.00002
1.00002
1.00012
1.00018
1.00011
1.00006
1.00004
1.00004
1.00004
1.00003
1.00002
1.00002
1.00002
1.00013
1.00029
1.00016
1.00004
1.00003
1.00002
1.00002
1.00002
1.00001
1.00001
1.00001
1.00001
1.00009
1.0001
1.00007
1.00005
1.00004
1.00003
1.00003
1.00002
1.00002
1.00002
1.00002
1.00005
1.00006
1.00004
1.00002
1.00001
1.00001
1.00001
1.00001
1.00001
1.00001
1.00001
1.00001
1.00006
1.00007
1.00005
1.00004
1.00003
1.00002
1.00002
1.00001
1.00001
1.00001
1.00002
1.00002
1.00002
1.00001
1.00001
1.00001
1.00001
1.00001
1.00001
1
1
1
1
1.00004
1.00005
1.00004
1.00003
1.00002
1.00002
1.00001
1.00001
1.00001
1.00001
1.00001
1.00001
1.00001
1.00001
1
1
1
1
1
1
1
1
1
1.00004
1.00004
1.00004
1.00003
1.00002
1.00001
1.00001
1.00001
1.00001
1.00001
1
1
1
1
1
1
1
1
1
1
1
1
1
1.00003
1.00003
1.00003
1.00002
1.00002
1.00001
1.00001
1.00001
1
1
1
1
1
1
1
1
1
1
1
1
1
1
1
1.00003
1.00003
1.00002
1.00002
1.00001
1.00001
1.00001
1
1
1
1
1
1
1
1
1
1
1
1
1
1
1
1
1.00002
1.00002
1.00002
1.00001
1.00001
1.00001
1
1
1
1
1
1
1
1
1
1
1
1
1
1
1
1
1
1.00002
1.00002
1.00001
1.00001
1.00001
1
1
1
1
1
1
1
1
1
1
1
1
1
1
1
1
1
1
1.00002
1.00001
1.00001
1.00001
1
1
1
1
1
1
1
1
1
1
1
1
1
1
1
1
1
1
1
1.00001
1.00001
1.00001
1
1
1
1
1
1
1
1
1
1
1
1
1
1
1
1
1
1
1
1
1.00001
1.00001
1
1
1
1
1
1
1
1
1
1
1
1
1
1
1
1
1
1
1
1
1
1.00001
1
1
1
1
1
1
1
1
1
1
1
1
1
1
1
1
1
1
1
1
1
1
1.00001
1
1
1
1
1
1
1
1
1
1
1
1
1
1
1
1
1
1
1
1
1
1
1
1
1
1
1
1
1
1
1
1
1
1
1
1
1
1
1
1
1
1
1
1
1
1
1
1
1
1
1
1
1
1
1
1
1
1
1
1
1
1
1
1
1
1
1
1
1
1
1
1
1
1
1
1
1
1
1
1
1
1
1
1
1
1
1
1
1
1
1
1
1
1
1
1
1
1
1
1
1
1
1
1
1
1
1
1
1
1
1
1
1
1
1
1
1
1
1
1
1
1
1
1
1
1
1
1
1
1
1
1
1
1
1
1
1
1
1
1
1
1
1
1
1
1
1
1
1
1
1
1
1
1
1
1
1
1
1
1
1
1
1
1
1
1
1
1
1
1
1
1
1
1
1
1
1
1
1
1
1
1
1
1
1
1
1
1
1
1
1
1
1
1
1
1
1
1
1
1
1
1
1
1
1
1
1
1
1
1
1
1
1
1
1
1
1
1
1
1
1
1
1
1
1
1
1
1
1
1708.04
1043.94
1000
1000.01
999.543
998.809
992.096
995.958
898.275
925.048
868.156
681.338
462.286
444.207
438.469
462.044
466.42
494.93
503.218
503.034
500.24
500.195
500.054
500.005
500.001
500.001
500.007
500.008
477.11
478.168
479.466
480.51
127.295
130.409
133.7
135.766
1.00005
1.00005
1.00006
1.00006
1.00013
1.00013
1.00013
1.00016
1.00012
1.00013
1.00012
1.00013
1.00008
1.0001
1.00009
1.0001
1.00005
1.00006
1.00006
1.00007
1.00003
1.00004
1.00004
1.00004
1.00003
1.00002
1.00003
1.00003
1.00002
1.00002
1.00002
1.00002
1.00002
1.00001
1.00001
1.00001
1.00001
1.00001
1.00001
1.00001
1.00001
1.00001
1.00001
1.00001
1
1
1
1
1
1
1
1
1
1
1
1
1
1
1
1
1
1
1
1
1
1
1
1
1
1
1
1
1
1
1
1
1
1
1
1
1
1
1
1
1
1
1
1
1
1
1
1
1
1
1
1
1
1
1
1
1
1
1
1
1
1
1
1
1
1
1
1
1
1
1
1
1
1
1
1
1
1
1
1
1
1
1
1
1
1
1
1
1116.89
1153.44
1081.38
940.675
979.564
1232.06
1156.03
1002.46
999.09
1000.4
1001.28
1001.33
992.379
994.577
999.914
1000.3
999.215
962.601
814.127
950.541
891.434
867.97
832.938
881.487
792.517
811.375
912.431
969.839
987.704
999.179
999.177
999.517
998.596
990.982
964.286
920.87
885.352
893.483
506.602
517.978
592.225
639.495
496.626
499.354
636.487
610.115
609.907
621.9
654.281
698.914
752.105
749.744
709.919
648.794
608.398
603.583
601.962
466.554
471.184
493.013
502.153
492.077
437.425
420.91
460.081
500.764
500.077
500.017
500.073
500.475
500.137
500.459
500.829
500.466
524.145
564.395
502.173
500.236
500.013
499.498
499.76
490.683
491.381
498.431
500.016
500.029
500.03
500.008
500.001
500.001
500.06
500.103
500.204
500.762
500.301
500.002
500.006
499.962
499.876
500.02
500.01
500
500
500
500
500.001
500.001
500.001
500
499.996
499.979
499.981
500.105
500.22
500.004
499.999
499.998
500.004
500.005
500.003
500.001
500
500
500
500
500.003
500.057
500.117
500.018
500.358
503.556
500.643
500.273
480.795
484.312
486.945
488.712
489.378
488.718
485.726
478.537
466.732
452.756
440.818
437.017
434.045
424.759
428.166
460.206
489.537
521.137
515.822
134.193
141.329
146.296
147.387
144.293
134.166
117.113
97.3494
79.0763
63.9052
51.7011
41.1222
47.2268
59.232
78.3134
103.041
133.842
200.387
268.42
1.00012
1.00018
1.00032
1.00075
1.00171
1.01065
1.0329
1.08356
1.22558
1.32476
2.55075
2.66423
2.52
4.11574
5.34293
7.02455
14.9499
14.4256
13.904
1.00027
1.00039
1.00089
1.06048
1.21715
1.29579
1.24964
1.15751
1.13706
1.13814
1.22566
1.64486
1.61329
1.11082
1.00197
1.00882
1.02157
1.0277
1.0047
1.00014
1.00025
1.00067
1.18349
1.48747
1.48759
1.47693
1.03702
1.00035
1.0533
1.41197
1.44094
1.15828
1.05575
1.00056
1.00018
1.00016
1.00011
1.00006
1.00011
1.00017
1.00049
1.00817
1.13565
1.22451
1.01952
1.00029
1.00055
1.00211
1.01069
1.03298
1.0002
1.00039
1.00028
1.00043
1.00039
1.00027
1.00016
1.00008
1.0001
1.0001
1.00007
1.00007
1.00008
1.00014
1.00164
1.00161
1.00048
1.0005
1.0003
1.00016
1.00014
1.00024
1.00036
1.00038
1.00029
1.00024
1.00005
1.00006
1.00006
1.00007
1.00008
1.0001
1.00011
1.00014
1.00019
1.00022
1.00022
1.00018
1.00015
1.00012
1.00014
1.00019
1.00021
1.00019
1.00019
1.00003
1.00004
1.00005
1.00007
1.00011
1.00015
1.00014
1.00013
1.00014
1.00016
1.00019
1.00018
1.00015
1.0001
1.00007
1.00008
1.00008
1.00008
1.00008
1.00002
1.00002
1.00002
1.00004
1.00007
1.00011
1.00013
1.00012
1.00009
1.00008
1.00009
1.00011
1.0001
1.00006
1.00003
1.00003
1.00003
1.00002
1.00002
1.00001
1.00001
1.00001
1.00001
1.00002
1.00003
1.00004
1.00005
1.00004
1.00003
1.00003
1.00003
1.00003
1.00003
1.00002
1.00001
1.00001
1.00001
1.00001
1.00001
1.00001
1.00001
1.00001
1.00001
1.00001
1.00001
1.00001
1.00001
1.00001
1.00001
1.00001
1.00001
1.00001
1.00001
1.00001
1.00001
1.00001
1.00001
1
1
1
1
1
1.00001
1.00001
1.00001
1.00001
1.00001
1.00001
1.00001
1.00001
1.00001
1
1.00001
1.00001
1.00001
1.00001
1
1
1
1
1
1
1
1
1
1
1
1
1
1
1
1
1.00001
1.00001
1.00002
1
1
1
1
1
1
1
1
1
1
1
1
1
1
1
1
1.00001
1.00002
1.00002
1
1
1
1
1
1
1
1
1
1
1
1
1
1
1
1
1.00001
1.00002
1.00004
1
1
1
1
1
1
1
1
1
1
1
1
1
1
1
1
1.00001
1.00004
1.00004
1
1
1
1
1
1
1
1
1
1
1
1
1
1
1
1
1.00001
1.00004
1.00004
1
1
1
1
1
1
1
1
1
1
1
1
1
1
1
1
1.00001
1.00004
1.00004
1
1
1
1
1
1
1
1
1
1
1
1
1
1
1
1
1.00002
1.00005
1.00003
1
1
1
1
1
1
1
1
1
1
1
1
1
1
1
1
1.00002
1.00005
1.00002
1
1
1
1
1
1
1
1
1
1
1
1
1
1
1
1
1.00002
1.00005
1.00002
1
1
1
1
1
1
1
1
1
1
1
1
1
1
1
1.00001
1.00002
1.00005
1.00001
1
1
1
1
1
1
1
1
1
1
1
1
1
1
1
1.00001
1.00002
1.00003
1.00001
1
1
1
1
1
1
1
1
1
1
1
1
1
1
1
1.00001
1.00002
1.00002
1
1
1
1
1
1
1
1
1
1
1
1
1
1
1
1
1.00001
1.00001
1
1
1
1
1
1
1
1
1
1
1
1
1
1
1
1
1
1.00001
1.00001
1.00001
1
1
1
1
1
1
1
1
1
1
1
1
1
1
1
1
1
1
1
1
1
1
1
1
1
1
1
1
1
1
1
1
1
1
1
1
1
1
1
1
1
1
1
1
1
1
1
1
1
1
1
1
1
1
1
1
1
1
1
1
1
1
1
1
1
1
1
1
1
1
1
1
1
1
1
1
1
1
1
1
1
1
1
1
1
1
1
1
1
1
1
1
1
1
1
1
1
1
1
1
1
1
1
1
1
1
1
1
1
1
1
1
1
1
1
1
1
1
1
1
1
1
1
1
1
1
1
1
1
1
1
1
1
1
1
1
1
1
1
1
1
1
1
1
1
1
1
1
1
1
1
1
1
)
;

boundaryField
{
    leftWall
    {
        type            calculated;
        value           nonuniform List<scalar> 
50
(
13529
13529
13529
13529
13377.9
5706.59
1000
1000
1000
999.322
921.631
829.697
493.956
481.41
499.68
493.492
188.287
1.00037
1.00057
1.00094
1.00097
1.00091
1.00067
1.00056
1.00043
1.00031
1.00022
1.00012
1.00009
1.00006
1.00004
1.00004
1.00003
1.00003
1.00002
1.00002
1.00002
1.00001
1.00001
1.00001
1.00001
1
1
1
1
1
1
1
1
1
)
;
    }
    rightWall
    {
        type            calculated;
        value           nonuniform List<scalar> 
50
(
10300.8
10296.6
7812.89
4439.87
608.844
615.439
695.797
704.154
814.127
893.483
601.962
564.395
500.301
500.22
500.273
515.822
268.42
13.904
1.0047
1.00006
1.00016
1.00024
1.00019
1.00008
1.00002
1.00001
1.00001
1.00001
1.00002
1.00002
1.00004
1.00004
1.00004
1.00004
1.00003
1.00002
1.00002
1.00001
1.00001
1
1
1
1
1
1
1
1
1
1
1
)
;
    }
    lowerWall
    {
        type            calculated;
        value           nonuniform List<scalar> 
62
(
13529
13529
13529
13529
13529
13529
13529
13529
13529
13529
13529
13529
13529
13529
13529
13529
13529
13529
13529
13529
13524.7
13521.6
13521.6
13521.6
13525.1
13529
13529
13529
13529
13522.1
12385.8
1708.04
1043.94
1000
1000.01
11732.8
7677.42
3020.75
2544.74
2160.73
1343.47
1108.92
1219.78
11732.8
11940.5
11945.9
11950.9
11944.5
11822.8
9210.13
8782.13
8917.79
9019.5
8850.14
8542.36
8915.75
10265.8
10339.5
10358.9
10322.3
10297.6
10300.8
)
;
    }
    atmosphere
    {
        type            calculated;
        value           nonuniform List<scalar> 
46
(
1
1
1
1
1
1
1
1
1
1
1
1
1
1
1
1
1
1
1
1
1
1
1
1
1
1
1
1
1
1
1
1
1
1
1
1
1
1
1
1
1
1
1
1
1
1
)
;
    }
    defaultFaces
    {
        type            empty;
    }
}


// ************************************************************************* //
