# vtk DataFile Version 2.0
sampleSurface
ASCII
DATASET POLYDATA
POINTS 1819 float
-0.00741399 5e-05 0 -0.0075 5e-05 0 -0.0075 0 0 -0.00741399 0
0 -0.00732798 5e-05 0 -0.00732798 0 0 -0.00724197 5e-05 0
-0.00724197 0 0 -0.00715595 5e-05 0 -0.00715595 0 0 -0.0070699
5e-05 0 -0.0070699 0 0 -0.00698368 5e-05 0 -0.00698368 0
0 -0.00689614 5e-05 0 -0.00689614 0 0 -0.0068 0 0
-0.0068 5e-05 0 -0.00741399 0.0001 0 -0.0075 0.0001 0 -0.00732798
0.0001 0 -0.00724197 0.0001 0 -0.00715595 0.0001 0 -0.0070699 0.0001
0 -0.00698368 0.0001 0 -0.00689616 0.0001 0 -0.0068 0.0001 0
-0.00741399 0.00015 0 -0.0075 0.00015 0 -0.00732798 0.00015 0 -0.00724197
0.00015 0 -0.00715595 0.00015 0 -0.0070699 0.00015 0 -0.00698368 0.00015
0 -0.00689618 0.00015 0 -0.0068 0.00015 0 -0.00741399 0.0002 0
-0.0075 0.0002 0 -0.00732798 0.0002 0 -0.00724197 0.0002 0 -0.00715595
0.0002 0 -0.0070699 0.0002 0 -0.00698369 0.0002 0 -0.00689621 0.0002
0 -0.0068 0.0002 0 -0.00741399 0.00025 0 -0.0075 0.00025 0
-0.00732798 0.00025 0 -0.00724197 0.00025 0 -0.00715595 0.00025 0 -0.0070699
0.00025 0 -0.00698369 0.00025 0 -0.00689625 0.00025 0 -0.0068 0.00025
0 -0.00741399 0.0003 0 -0.0075 0.0003 0 -0.00732798 0.0003 0
-0.00724197 0.0003 0 -0.00715595 0.0003 0 -0.00706991 0.0003 0 -0.0069837
0.0003 0 -0.00689629 0.0003 0 -0.0068 0.0003 0 -0.00741399 0.00035
0 -0.0075 0.00035 0 -0.00732798 0.00035 0 -0.00724197 0.00035 0
-0.00715595 0.00035 0 -0.00706991 0.00035 0 -0.00698371 0.00035 0 -0.00689635
0.00035 0 -0.0068 0.00035 0 -0.00741399 0.0004 0 -0.0075 0.0004
0 -0.00732798 0.0004 0 -0.00724197 0.0004 0 -0.00715595 0.0004 0
-0.00706991 0.0004 0 -0.00698371 0.0004 0 -0.00689641 0.0004 0 -0.0068
0.0004 0 -0.00741399 0.00045 0 -0.0075 0.00045 0 -0.00732798 0.00045
0 -0.00724197 0.00045 0 -0.00715595 0.00045 0 -0.00706991 0.00045 0
-0.00698372 0.00045 0 -0.00689649 0.00045 0 -0.0068 0.00045 0 -0.00741399
0.0005 0 -0.0075 0.0005 0 -0.00732798 0.0005 0 -0.00724197 0.0005
0 -0.00715595 0.0005 0 -0.00706991 0.0005 0 -0.00698373 0.0005 0
-0.00689657 0.0005 0 -0.0068 0.0005 0 -0.00741399 0.00055 0 -0.0075
0.00055 0 -0.00732798 0.00055 0 -0.00724197 0.00055 0 -0.00715595 0.00055
0 -0.00706991 0.00055 0 -0.00698374 0.00055 0 -0.00689667 0.00055 0
-0.0068 0.00055 0 -0.00741399 0.0006 0 -0.0075 0.0006 0 -0.00732798
0.0006 0 -0.00724197 0.0006 0 -0.00715595 0.0006 0 -0.00706991 0.0006
0 -0.00698375 0.0006 0 -0.00689677 0.0006 0 -0.0068 0.0006 0
-0.00741399 0.00065 0 -0.0075 0.00065 0 -0.00732798 0.00065 0 -0.00724197
0.00065 0 -0.00715595 0.00065 0 -0.00706991 0.00065 0 -0.00698376 0.00065
0 -0.00689688 0.00065 0 -0.0068 0.00065 0 -0.00741399 0.0007 0
-0.0075 0.0007 0 -0.00732798 0.0007 0 -0.00724197 0.0007 0 -0.00715595
0.0007 0 -0.00706992 0.0007 0 -0.00698377 0.0007 0 -0.00689701 0.0007
0 -0.0068 0.0007 0 -0.00741399 0.00075 0 -0.0075 0.00075 0
-0.00732798 0.00075 0 -0.00724197 0.00075 0 -0.00715595 0.00075 0 -0.00706992
0.00075 0 -0.00698378 0.00075 0 -0.00689704 0.00075 0 -0.0068 0.00075
0 -0.00318633 0.000183339 0 -0.0033 0.000183339 0 -0.0033 0 0
-0.00318633 0 0 -0.00306803 0.000183339 0 -0.00306803 0 0 -0.00294526
0.000183339 0 -0.00294526 0 0 -0.00281791 0.000183339 0 -0.00281791 0
0 -0.00268583 0.000183339 0 -0.00268583 0 0 -0.00254884 0.000183339 0
-0.00254884 0 0 -0.00240676 0.000183339 0 -0.00240676 0 0 -0.0022594
0.000183339 0 -0.0022594 0 0 -0.00210656 0.000183339 0 -0.00210656 0
0 -0.00194805 0.000183339 0 -0.00194805 0 0 -0.00178364 0.000183339 0
-0.00178365 0 0 -0.00161313 0.000183339 0 -0.00161313 0 0 -0.00143629
0.000183339 0 -0.00143629 0 0 -0.00125287 0.000183339 0 -0.00125287 0
0 -0.00106263 0.000183339 0 -0.00106264 0 0 -0.000865333 0.000183339 0
-0.000865335 0 0 -0.000660701 0.000183339 0 -0.000660703 0 0 -0.000448466
0.000183339 0 -0.000448468 0 0 -0.000228344 0.000183339 0 -0.000228347 0
0 0 0 0 0 0.000183339 0 -0.00318633 0.000353777 0
-0.0033 0.000353777 0 -0.00306803 0.000353777 0 -0.00294526 0.000353777 0 -0.00281791
0.000353777 0 -0.00268582 0.000353777 0 -0.00254883 0.000353777 0 -0.00240675 0.000353777
0 -0.00225939 0.000353777 0 -0.00210656 0.000353777 0 -0.00194804 0.000353777 0
-0.00178364 0.000353777 0 -0.00161313 0.000353777 0 -0.00143628 0.000353777 0 -0.00125286
0.000353777 0 -0.00106263 0.000353777 0 -0.000865329 0.000353777 0 -0.000660697 0.000353777
0 -0.000448462 0.000353777 0 -0.00022834 0.000353777 0 0 0.000353777 0
-0.00318633 0.000512223 0 -0.0033 0.000512223 0 -0.00306803 0.000512223 0 -0.00294525
0.000512223 0 -0.0028179 0.000512223 0 -0.00268582 0.000512223 0 -0.00254883 0.000512223
0 -0.00240675 0.000512223 0 -0.00225939 0.000512223 0 -0.00210656 0.000512223 0
-0.00194804 0.000512223 0 -0.00178364 0.000512223 0 -0.00161313 0.000512223 0 -0.00143628
0.000512223 0 -0.00125286 0.000512223 0 -0.00106263 0.000512223 0 -0.000865325 0.000512223
0 -0.000660693 0.000512223 0 -0.000448458 0.000512223 0 -0.000228336 0.000512223 0
0 0.000512223 0 -0.00318634 0.000659519 0 -0.0033 0.000659519 0 -0.00306803
0.000659519 0 -0.00294525 0.000659519 0 -0.0028179 0.000659519 0 -0.00268582 0.000659519
0 -0.00254883 0.000659519 0 -0.00240675 0.000659519 0 -0.00225939 0.000659519 0
-0.00210655 0.000659519 0 -0.00194804 0.000659519 0 -0.00178363 0.000659519 0 -0.00161312
0.000659519 0 -0.00143628 0.000659519 0 -0.00125286 0.000659519 0 -0.00106262 0.000659519
0 -0.000865322 0.000659519 0 -0.000660689 0.000659519 0 -0.000448454 0.000659519 0
-0.000228333 0.000659519 0 0 0.000659519 0 -0.00318634 0.000796451 0 -0.0033
0.000796451 0 -0.00306803 0.000796451 0 -0.00294525 0.000796451 0 -0.0028179 0.000796451
0 -0.00268582 0.000796451 0 -0.00254883 0.000796451 0 -0.00240674 0.000796451 0
-0.00225938 0.000796451 0 -0.00210655 0.000796451 0 -0.00194804 0.000796451 0 -0.00178363
0.000796451 0 -0.00161312 0.000796451 0 -0.00143627 0.000796451 0 -0.00125285 0.000796451
0 -0.00106262 0.000796451 0 -0.000865318 0.000796451 0 -0.000660686 0.000796451 0
-0.000448451 0.000796451 0 -0.000228329 0.000796451 0 0 0.000796451 0 -0.00318635
0.000923748 0 -0.0033 0.000923748 0 -0.00306803 0.000923748 0 -0.00294525 0.000923748
0 -0.0028179 0.000923748 0 -0.00268581 0.000923748 0 -0.00254882 0.000923748 0
-0.00240674 0.000923748 0 -0.00225938 0.000923748 0 -0.00210655 0.000923748 0 -0.00194803
0.000923748 0 -0.00178363 0.000923748 0 -0.00161312 0.000923748 0 -0.00143627 0.000923748
0 -0.00125285 0.000923748 0 -0.00106262 0.000923748 0 -0.000865315 0.000923748 0
-0.000660683 0.000923748 0 -0.000448447 0.000923748 0 -0.000228326 0.000923748 0 0
0.000923748 0 -0.00318635 0.00104209 0 -0.0033 0.00104209 0 -0.00306803 0.00104209
0 -0.00294525 0.00104209 0 -0.00281789 0.00104209 0 -0.00268581 0.00104209 0
-0.00254882 0.00104209 0 -0.00240674 0.00104209 0 -0.00225938 0.00104209 0 -0.00210654
0.00104209 0 -0.00194803 0.00104209 0 -0.00178363 0.00104209 0 -0.00161311 0.00104209
0 -0.00143627 0.00104209 0 -0.00125285 0.00104209 0 -0.00106261 0.00104209 0
-0.000865312 0.00104209 0 -0.00066068 0.00104209 0 -0.000448444 0.00104209 0 -0.000228323
0.00104209 0 0 0.00104209 0 -0.00318636 0.0011521 0 -0.0033 0.0011521
0 -0.00306803 0.0011521 0 -0.00294524 0.0011521 0 -0.00281789 0.0011521 0
-0.00268581 0.0011521 0 -0.00254882 0.0011521 0 -0.00240674 0.0011521 0 -0.00225938
0.0011521 0 -0.00210654 0.0011521 0 -0.00194803 0.0011521 0 -0.00178362 0.0011521
0 -0.00161311 0.0011521 0 -0.00143626 0.0011521 0 -0.00125284 0.0011521 0
-0.00106261 0.0011521 0 -0.000865309 0.0011521 0 -0.000660677 0.0011521 0 -0.000448442
0.0011521 0 -0.00022832 0.0011521 0 0 0.0011521 0 -0.00318636 0.00125437
0 -0.0033 0.00125437 0 -0.00306802 0.00125437 0 -0.00294524 0.00125437 0
-0.00281789 0.00125437 0 -0.00268581 0.00125437 0 -0.00254881 0.00125437 0 -0.00240673
0.00125437 0 -0.00225937 0.00125437 0 -0.00210654 0.00125437 0 -0.00194802 0.00125437
0 -0.00178362 0.00125437 0 -0.00161311 0.00125437 0 -0.00143626 0.00125437 0
-0.00125284 0.00125437 0 -0.00106261 0.00125437 0 -0.000865307 0.00125437 0 -0.000660675
0.00125437 0 -0.000448439 0.00125437 0 -0.000228318 0.00125437 0 0 0.00125437
0 -0.00318637 0.00134945 0 -0.0033 0.00134945 0 -0.00306802 0.00134945 0
-0.00294524 0.00134945 0 -0.00281789 0.00134945 0 -0.0026858 0.00134945 0 -0.00254881
0.00134945 0 -0.00240673 0.00134945 0 -0.00225937 0.00134945 0 -0.00210654 0.00134945
0 -0.00194802 0.00134945 0 -0.00178362 0.00134945 0 -0.00161311 0.00134945 0
-0.00143626 0.00134945 0 -0.00125284 0.00134945 0 -0.00106261 0.00134945 0 -0.000865305
0.00134945 0 -0.000660672 0.00134945 0 -0.000448437 0.00134945 0 -0.000228316 0.00134945
0 0 0.00134945 0 -0.00318638 0.00143783 0 -0.0033 0.00143783 0
-0.00306802 0.00143783 0 -0.00294524 0.00143783 0 -0.00281789 0.00143783 0 -0.0026858
0.00143783 0 -0.00254881 0.00143783 0 -0.00240673 0.00143783 0 -0.00225937 0.00143783
0 -0.00210653 0.00143783 0 -0.00194802 0.00143783 0 -0.00178362 0.00143783 0
-0.0016131 0.00143783 0 -0.00143626 0.00143783 0 -0.00125284 0.00143783 0 -0.0010626
0.00143783 0 -0.000865302 0.00143783 0 -0.00066067 0.00143783 0 -0.000448435 0.00143783
0 -0.000228314 0.00143783 0 0 0.00143783 0 -0.00318638 0.00152 0
-0.0033 0.00152 0 -0.00306802 0.00152 0 -0.00294523 0.00152 0 -0.00281788
0.00152 0 -0.0026858 0.00152 0 -0.00254881 0.00152 0 -0.00240673 0.00152
0 -0.00225937 0.00152 0 -0.00210653 0.00152 0 -0.00194802 0.00152 0
-0.00178361 0.00152 0 -0.0016131 0.00152 0 -0.00143625 0.00152 0 -0.00125284
0.00152 0 -0.0010626 0.00152 0 -0.000865301 0.00152 0 -0.000660668 0.00152
0 -0.000448433 0.00152 0 -0.000228312 0.00152 0 0 0.00152 0
-0.00318639 0.00159638 0 -0.0033 0.00159638 0 -0.00306802 0.00159638 0 -0.00294523
0.00159638 0 -0.00281788 0.00159638 0 -0.0026858 0.00159638 0 -0.00254881 0.00159638
0 -0.00240673 0.00159638 0 -0.00225937 0.00159638 0 -0.00210653 0.00159638 0
-0.00194802 0.00159638 0 -0.00178361 0.00159638 0 -0.0016131 0.00159638 0 -0.00143625
0.00159638 0 -0.00125283 0.00159638 0 -0.0010626 0.00159638 0 -0.000865299 0.00159638
[...]
POINT_DATA 1819
FIELD attributes 2
p 1 1819 float
-0.124568 -0.168722 -0.161349 -0.125374 -0.082467 -0.0833371 -0.0501365 -0.0510722 -0.0272643 -0.0280798 -0.0168121
-0.0178257 -0.0124985 -0.0130487 -0.0224846 -0.0226495 -0.0370336 -0.0365136 -0.122367 -0.165324 -0.0804007
-0.0482194 -0.0257605 -0.0154132 -0.0120519 -0.0229542 -0.0365276 -0.118845 -0.161182 -0.0773582 -0.0456915
-0.0239025 -0.0143738 -0.0121872 -0.0244736 -0.0387166 -0.113903 -0.155497 -0.0730682 -0.042089 -0.0211514
-0.0128403 -0.0123031 -0.0266683 -0.0421507 -0.107639 -0.148296 -0.067647 -0.0375304 -0.0176382 -0.0109175
-0.0126237 -0.0299053 -0.0471746 -0.100177 -0.139674 -0.061226 -0.0321381 -0.013472 -0.00870792 -0.0133382
-0.0346023 -0.0543588 -0.0916653 -0.129766 -0.0539621 -0.0260496 -0.00876078 -0.0063031 -0.0146654 -0.0413087
-0.0644713 -0.0823019 -0.118752 -0.0460588 -0.0194467 -0.0036458 -0.00381711 -0.0169325 -0.0508429 -0.0786273
-0.0723351 -0.106863 -0.0377764 -0.0125692 0.00168496 -0.00138529 -0.0205702 -0.0643795 -0.0984678 -0.0620688
-0.0943891 -0.0294379 -0.00573056 0.00695916 0.000761037 -0.0262056 -0.0835575 -0.126292 -0.051857 -0.0816752
-0.0214263 0.000663342 0.011753 0.00203732 -0.0352857 -0.110821 -0.164866 -0.0420859 -0.0691098 -0.0141712
0.00609397 0.0154365 0.00149367 -0.0501767 -0.149454 -0.217239 -0.0331432 -0.0570961 -0.00813268 0.00988704
0.0170911 -0.00139222 -0.0708814 -0.205035 -0.295074 -0.0253873 -0.0460138 -0.0037479 0.0113653 0.0158862
-0.00576699 -0.0896692 -0.276061 -0.409503 -0.0179847 -0.0347768 -0.000752539 0.0103644 0.0116728 -0.0105186
-0.0893325 -0.257474 -0.343044 4.36621 4.38755 4.39031 4.36927 4.3481 4.35138 4.33218
4.33568 4.29529 4.29875 4.25713 4.26073 4.21469 4.21831 4.16983 4.1734 4.1244
4.12781 4.08012 4.08331 4.03848 4.04137 4.00058 4.00313 3.96712 3.96932 3.93845
3.94029 3.91457 3.91609 3.89528 3.89652 3.88026 3.88126 3.86911 3.86993 3.86151
3.86219 3.85738 3.85798 3.85678 3.85629 4.35811 4.37922 4.33962 4.32321 4.28598
4.24753 4.20498 4.16025 4.11517 4.0715 4.03065 3.99366 3.96118 3.93345 3.91045
3.89194 3.87756 3.86692 3.85967 3.85574 3.85466 4.34533 4.36673 4.32647 4.30942
4.27135 4.23261 4.18994 4.14544 4.101 4.05831 4.01874 3.9832 3.95222 3.92596
3.90431 3.88697 3.87357 3.86368 3.85696 3.85333 3.85232 4.32747 4.34928 4.30819
4.29032 4.25127 4.21233 4.16969 4.12573 4.08233 4.04114 4.00337 3.96983 3.94087
3.91654 3.89664 3.88081 3.86864 3.8597 3.85365 3.85039 3.84948 4.30441 4.32666
4.28469 4.26595 4.22595 4.18706 4.14476 4.10176 4.05992 4.02078 3.98539 3.95435
3.92786 3.90585 3.888 3.87392 3.86316 3.85531 3.85001 3.84716 3.84637 4.27563
4.2983 4.25554 4.236 4.19532 4.1569 4.11543 4.074 4.03437 3.9979 3.96545
3.93741 3.91379 3.8944 3.87884 3.86667 3.85743 3.85073 3.84623 3.84383 3.84316
4.24027 4.26329 4.22003 4.19999 4.15913 4.12187 4.08194 4.04287 4.0062 3.97311
3.94417 3.91956 3.89916 3.88261 3.86949 3.85933 3.85168 3.84617 3.84249 3.84053
3.83999 4.19719 4.22035 4.17724 4.15729 4.1171 4.08198 4.04455 4.00881 3.97598
3.94696 3.92209 3.90132 3.88438 3.87084 3.86025 3.85213 3.84608 3.84175 3.83888
3.83737 3.83695 4.14484 4.16776 4.126 4.10715 4.06897 4.03729 4.00359 3.97232
3.94425 3.92003 3.89972 3.88311 3.86982 3.85938 3.85133 3.84524 3.84076 3.83758
3.83549 3.8344 3.8341 4.08118 4.10315 4.06485 4.04878 4.0145 3.98798 3.95948
3.93394 3.9116 3.89284 3.87752 3.8653 3.85575 3.84842 3.84288 3.83877 3.8358
3.83371 3.83236 3.83167 3.83148 4.0035 4.02324 3.99209 3.98133 3.95359 3.9343
3.91274 3.89429 3.87859 3.86588 3.85587 3.84819 3.84241 3.83814 3.83503 3.8328
3.83124 3.83018 3.82951 3.82919 3.82911 3.90817 3.92338 3.90572 3.90404 3.88629
3.87673 3.86401 3.85401 3.84579 3.83961 3.83512 3.83201 3.82994 3.82862 3.82782
3.82736 3.82712 3.827 3.82696 3.82697 3.82699 3.79029 3.79676 3.80359 3.81626
3.81292 3.81588 3.81403 3.81375 3.81372 3.81439 3.81551 3.81693 3.81845 3.81993
3.82129 3.82247 3.82343 3.82417 3.8247 3.82501 3.82511 3.64311 3.6331 3.68355
3.7176 3.73408 3.75259 3.76365 3.77418 3.78285 3.79055 3.79725 3.80306 3.80799
3.8121 3.81545 3.81811 3.82016 3.82168 3.82271 3.82329 3.82347 3.45715 3.41619
3.54384 3.60805 3.65071 3.68785 3.7137 3.73589 3.75358 3.76832 3.78047 3.79045
3.79857 3.8051 3.81026 3.81427 3.8173 3.81949 3.82098 3.82179 3.82203 3.21853
3.12002 3.38364 3.48813 3.56407 3.62278 3.66512 3.69942 3.72624 3.74786 3.76521
3.77912 3.79018 3.79891 3.80571 3.81091 3.8148 3.8176 3.81948 3.8205 3.8208
2.90698 2.70501 3.20295 3.35882 3.47586 3.55867 3.61867 3.66521 3.70102 3.72926
3.7515 3.76903 3.78278 3.79349 3.80174 3.808 3.81265 3.81597 3.8182 3.8194
3.81974 2.49032 2.11271 3.00117 3.22307 3.38812 3.49684 3.5749 3.63359 3.67806
3.71254 3.73931 3.76014 3.77631 3.78877 3.7983 3.80549 3.8108 3.81458 3.8171
3.81845 3.81883 1.92766 1.26891 2.77882 3.08596 3.30294 3.43847 3.53436 3.60476
3.65741 3.69767 3.72857 3.75238 3.77069 3.78471 3.79536 3.80335 3.80922 3.8134
3.81617 3.81765 3.81807 1.2375 -4.30178 2.54005 2.95979 3.22632 3.38712 3.49917
3.58005 3.6399 3.68518 3.71963 3.74596 3.76607 3.78139 3.79296 3.80161 3.80795
3.81244 3.81542 3.81701 3.81745 -0.00884517 -0.0190336 0.00104515 0.0057538 0.00253473 -0.0174921
-0.0687385 -0.138249 -0.172156 -0.00365804 -0.00873497 0.000380048 0.000454943 -0.00530206 -0.0214615 -0.0520813
-0.0846457 -0.100716 -0.00138381 -0.00318869 -0.00103466 -0.0034771 -0.00976952 -0.021728 -0.039974 -0.0591428
-0.0729203 -0.000631482 -0.000523569 -0.00268603 -0.00651346 -0.0127613 -0.0220266 -0.0338825 -0.0457685 -0.0556618
-0.000998995 0.000241436 -0.00451051 -0.00906704 -0.015133 -0.0229707 -0.0320833 -0.0412086 -0.0498121 -0.00240319
-0.000291076 -0.00647057 -0.0113182 -0.0171581 -0.024063 -0.0316452 -0.0392714 -0.046918 -0.00380398 -0.000966303
-0.00823517 -0.0133073 -0.0190713 -0.0255296 -0.032399 -0.0393307 -0.0464504 -0.00470005 -0.00131867 -0.00963672
-0.0150078 -0.0208487 -0.027157 -0.0337409 -0.0404035 -0.0472883 -0.00537102 -0.00156963 -0.0107854 -0.0164865
-0.0225055 -0.028847 -0.0353887 -0.0420199 -0.04885 -0.00591019 -0.00177205 -0.0117558 -0.0177909 -0.0240438
-0.0305248 -0.0371636 -0.0439025 -0.0507994 -0.00636041 -0.00194543 -0.0125917 -0.0189504 -0.0254618 -0.0321402
-0.0389533 -0.0458797 -0.0529248 -0.00674359 -0.00209835 -0.0133177 -0.0199785 -0.0267509 -0.0336556 -0.0406872
-0.0478483 -0.0550959 -0.00707948 -0.00223685 -0.0139633 -0.0209032 -0.0279245 -0.0350673 -0.0423392 -0.0497056
-0.0571356 -0.00737745 -0.00236064 -0.0145478 -0.0217359 -0.0289707 -0.0363733 -0.0439851 -0.0514406 -0.0590382
-0.00751626 -0.00283373 -0.0148242 -0.0221259 -0.0294538 -0.0369957 -0.0448255 -0.0523527 -0.0601875 -0.149685
-0.19334 -0.129016 -0.160223 -0.117384 -0.14171 -0.110216 -0.130011 -0.106243 -0.122821 -0.104639
-0.118835 -0.104891 -0.117307 -0.10665 -0.117717 -0.109664 -0.119684 -0.113745 -0.122921 -0.118771
-0.127239 -0.124662 -0.132521 -0.131361 -0.138683 -0.138832 -0.145673 -0.147057 -0.153464 -0.156035
-0.16203 -0.165781 -0.171361 -0.176328 -0.181478 -0.187725 -0.192433 -0.200039 -0.204294 -0.21334
-0.217133 -0.227716 -0.231031 -0.243268 -0.24609 -0.260093 -0.26241 -0.278319 -0.280108 -0.298119
-0.299355 -0.31968 -0.32034 -0.343205 -0.343255 -0.368931 -0.368331 -0.397136 -0.395838 -0.428139
-0.426091 -0.462311 -0.459448 -0.500085 -0.496328 -0.541978 -0.537233 -0.588601 -0.582779 -0.64059
-0.633645 -0.698296 -0.690287 -0.76142 -0.752434 -0.829419 -0.819089 -0.904529 -0.891014 -1.0012
-0.979536 -1.16247 -1.12234 -1.47956 -1.40293 -2.09309 -1.95424 -3.10875 -2.88867 -4.43894
-4.15892 -5.74201 -5.48851 -6.68977 -6.51537 -8.10148 -8.19202 -5.60893 -0.0992016 -0.0956834
-0.0935175 -0.0925238 -0.0927627 -0.0941198 -0.0964876 -0.0997774 -0.103916 -0.108844 -0.114521 -0.120916
-0.128011 -0.135796 -0.144275 -0.153474 -0.163432 -0.174189 -0.185798 -0.198322 -0.211836 -0.226429
-0.242198 -0.259256 -0.277751 -0.297857 -0.319763 -0.343685 -0.369872 -0.398606 -0.43022 -0.465103
-0.503713 -0.546582 -0.59432 -0.647546 -0.706653 -0.771679 -0.843211 -0.926053 -1.03895 -1.23171
-1.605 -2.3076 -3.43396 -4.83086 -6.06484 -6.87787 -7.45478 -4.77022 -0.0780864 -0.0805437
-0.0825941 -0.0847058 -0.0871913 -0.0901904 -0.0937731 -0.0979657 -0.102775 -0.108201 -0.114244 -0.120905
-0.128192 -0.136119 -0.144706 -0.153988 -0.164003 -0.1748 -0.186439 -0.198986 -0.212521 -0.227133
-0.242926 -0.260032 -0.278605 -0.298815 -0.320852 -0.344935 -0.371321 -0.400305 -0.432236 -0.467517
-0.506626 -0.55012 -0.598649 -0.65294 -0.713679 -0.78153 -0.858379 -0.951585 -1.08346 -1.30795
-1.73117 -2.50048 -3.68462 -5.06454 -6.17772 -6.77424 -6.57857 -3.78095 -0.0620812 -0.066485
-0.0704841 -0.074409 -0.078487 -0.0828381 -0.0875474 -0.0926718 -0.0982524 -0.10432 -0.110902 -0.118022
-0.125706 -0.133983 -0.142887 -0.152457 -0.162742 -0.173796 -0.18568 -0.198468 -0.212243 -0.2271
-0.24315 -0.260525 -0.279374 -0.299863 -0.322185 -0.34656 -0.373249 -0.402561 -0.43485 -0.470531
-0.510103 -0.554157 -0.603401 -0.658688 -0.720981 -0.791545 -0.873524 -0.976358 -1.12415 -1.37031
-1.81667 -2.59459 -3.73208 -4.97605 -5.89252 -6.20288 -5.45445 -2.79273 -0.0567512 -0.0621935
-0.067216 -0.0721082 -0.0770623 -0.0821866 -0.0875648 -0.0932595 -0.0993213 -0.105793 -0.112711 -0.120112
-0.128031 -0.136506 -0.145579 -0.155295 -0.165708 -0.176876 -0.188865 -0.201751 -0.215622 -0.230575
-0.246723 -0.264198 -0.283149 -0.303745 -0.326181 -0.350683 -0.377513 -0.406977 -0.439432 -0.475304
-0.515105 -0.559441 -0.609055 -0.664869 -0.727999 -0.800101 -0.885181 -0.99369 -1.14914 -1.39972
-1.83232 -2.54639 -3.53045 -4.53837 -5.20062 -5.23348 -4.19841 -1.90098 -0.0538427 -0.0596645
-0.0651853 -0.0706319 -0.0761442 -0.0818015 -0.0876711 -0.0938095 -0.100266 -0.107087 -0.114312 -0.121984
-0.130144 -0.138835 -0.148103 -0.157998 -0.168577 -0.179902 -0.192042 -0.205077 -0.219093 -0.234193
-0.250492 -0.268119 -0.287225 -0.307979 -0.330578 -0.355245 -0.382242 -0.411873 -0.444491 -0.48052
-0.520461 -0.564914 -0.614611 -0.670475 -0.73367 -0.806084 -0.892162 -1.00227 -1.15724 -1.39654
-1.78582 -2.38778 -3.1629 -3.89715 -4.31214 -4.15151 -3.06247 -1.20433 -0.0532865 -0.0592849
-0.0650744 -0.0708514 -0.0767215 -0.0827422 -0.088966 -0.0954399 -0.102209 -0.109317 -0.116806 -0.124718
-0.133098 -0.141991 -0.151447 -0.161518 -0.172263 -0.183747 -0.196041 -0.209226 -0.223393 -0.238643
-0.255092 -0.272871 -0.29213 -0.313039 -0.33579 -0.360609 -0.38775 -0.417512 -0.450241 -0.486345
-0.526309 -0.570702 -0.620221 -0.675751 -0.738461 -0.810368 -0.896 -1.00487 -1.15421 -1.37375
-1.70768 -2.18668 -2.7578 -3.25098 -3.4715 -3.20232 -2.19524 -0.728363 -0.0540823 -0.0601992
-0.0661643 -0.0721645 -0.0782846 -0.0845691 -0.0910593 -0.0977953 -0.104817 -0.112166 -0.119883 -0.128009
-0.136591 -0.145675 -0.155312 -0.165557 -0.17647 -0.188116 -0.20057 -0.213914 -0.228239 -0.243647
-0.260257 -0.278197 -0.297618 -0.318689 -0.341601 -0.366575 -0.393863 -0.423752 -0.456579 -0.492737
-0.532682 -0.576952 -0.626204 -0.681277 -0.743336 -0.814443 -0.898946 -1.00515 -1.14666 -1.3445
-1.62491 -1.99548 -2.40098 -2.71645 -2.79791 -2.47305 -1.59003 -0.424089 -0.055654 -0.0618736
-0.0679768 -0.0741506 -0.0804662 -0.0869601 -0.0936666 -0.100621 -0.107858 -0.115418 -0.123339 -0.131664
-0.140437 -0.149706 -0.159522 -0.169942 -0.181026 -0.192842 -0.205464 -0.218976 -0.23347 -0.24905
-0.265832 -0.283948 -0.303547 -0.324798 -0.34789 -0.373042 -0.4005 -0.430545 -0.463503 -0.499753
-0.539732 -0.583951 -0.633036 -0.6878 -0.749394 -0.819838 -0.903112 -1.00617 -1.13935 -1.31652
-1.55059 -1.8349 -2.11806 -2.30767 -2.29384 -1.94385 -1.17651 -0.226807 -0.0576658 -0.0639937
-0.0702254 -0.0765529 -0.0830382 -0.0897128 -0.0966071 -0.103752 -0.111182 -0.118933 -0.127044 -0.135555
-0.144511 -0.153961 -0.163955 -0.174551 -0.18581 -0.197802 -0.2106 -0.224291 -0.238965 -0.25473
-0.271701 -0.290011 -0.309809 -0.331264 -0.354566 -0.379935 -0.407611 -0.43787 -0.471036 -0.50748
-0.547635 -0.592002 -0.641199 -0.69603 -0.757632 -0.827904 -0.910293 -1.01033 -1.13541 -1.29363
-1.48863 -1.70618 -1.90114 -2.00251 -1.92323 -1.56374 -0.889505 -0.0912866 -0.0598968 -0.0663432
-0.0727055 -0.0791817 -0.0858261 -0.0926675 -0.099734 -0.107055 -0.114663 -0.122592 -0.130881 -0.139571
-0.148705 -0.158332 -0.168503 -0.179277 -0.190715 -0.202887 -0.215869 -0.229746 -0.244613 -0.260575
-0.277751 -0.296274 -0.316295 -0.337983 -0.361532 -0.387169 -0.415131 -0.445688 -0.479173 -0.515966
-0.55651 -0.60132 -0.651034 -0.706477 -0.76879 -0.839708 -0.922012 -1.01972 -1.13749 -1.27874
-1.44084 -1.60626 -1.73612 -1.77379 -1.6492 -1.28926 -0.686473 0.00637506 -0.0622069 -0.0687832
-0.0752841 -0.0819116 -0.0887131 -0.0957162 -0.102948 -0.110437 -0.118215 -0.126317 -0.13478 -0.143645
-0.152955 -0.16276 -0.173111 -0.184067 -0.195691 -0.208053 -0.22123 -0.235308 -0.250384 -0.266564
-0.283969 -0.302733 -0.323011 -0.344975 -0.368819 -0.394791 -0.423123 -0.45407 -0.487997 -0.525311
-0.566479 -0.612056 -0.662724 -0.719367 -0.783154 -0.855646 -0.938944 -1.03559 -1.14764 -1.27463
-1.40977 -1.53456 -1.61555 -1.60627 -1.45009 -1.09398 -0.543959 0.0768866 -0.0644309 -0.0711726
-0.0778171 -0.0845968 -0.091552 -0.0987108 -0.1061 -0.113748 -0.121688 -0.129952 -0.13858 -0.147611
-0.15709 -0.167066 -0.177592 -0.188726 -0.200532 -0.213082 -0.226453 -0.240733 -0.256019 -0.27242
-0.290056 -0.309066 -0.329606 -0.351849 -0.375986 -0.402382 -0.431217 -0.462647 -0.497131 -0.535104
-0.577066 -0.623621 -0.675518 -0.733712 -0.799402 -0.873984 -0.959046 -1.05605 -1.16498 -1.28228
-1.39824 -1.49395 -1.54001 -1.49706 -1.31856 -0.96604 -0.451365 0.124555 -0.0667728 -0.0738652
-0.0806619 -0.0876221 -0.0947511 -0.102085 -0.10965 -0.117475 -0.125593 -0.134037 -0.142847 -0.152063
-0.161729 -0.171894 -0.182612 -0.193941 -0.205947 -0.218699 -0.232278 -0.24677 -0.262275 -0.278902
-0.296774 -0.316031 -0.33683 -0.359348 -0.383781 -0.410343 -0.439333 -0.471118 -0.506049 -0.54455
-0.58714 -0.634463 -0.687324 -0.746731 -0.813914 -0.8903 -0.9773 -1.07567 -1.18419 -1.29749
-1.40386 -1.48362 -1.50898 -1.44467 -1.25094 -0.898352 -0.401617 0.152925 -0.0680709 -0.0753897
-0.0822678 -0.0893333 -0.0965612 -0.103994 -0.111659 -0.119584 -0.127804 -0.136351 -0.145265 -0.154585
-0.164358 -0.174631 -0.185458 -0.196897 -0.209013 -0.221878 -0.235571 -0.250179 -0.265801 -0.282548
-0.300545 -0.319933 -0.340867 -0.363531 -0.388128 -0.414606 -0.443457 -0.475329 -0.510397 -0.549063
-0.59185 -0.639417 -0.692591 -0.752392 -0.820071 -0.897167 -0.985104 -1.08432 -1.19319 -1.30587
-1.40993 -1.48517 -1.50393 -1.43215 -1.23272 -0.879114 -0.387215 0.189887 0.734037 2.32232
2.85782 3.16354 3.3457 3.47093 3.56038 3.62608 3.6754 3.71267 3.74099 3.76252
3.77884 3.79113 3.80029 3.80698 3.81172 3.81486 3.81653 3.81699 0.608329 2.15282
2.77204 3.10744 3.30899 3.44592 3.5431 3.61402 3.66692 3.70667 3.73674 3.75949
3.77667 3.78958 3.79917 3.80617 3.81111 3.81438 3.81612 3.8166 0.68552 2.03362
2.69688 3.05433 3.27404 3.42208 3.52673 3.60266 3.65898 3.70109 3.7328 3.7567
3.77469 3.78816 3.79815 3.80543 3.81056 3.81395 3.81575 3.81625 0.783562 1.95199
2.63217 3.00539 3.24129 3.39966 3.51139 3.59207 3.65163 3.69596 3.72919 3.75415
3.77288 3.78688 3.79723 3.80476 3.81006 3.81357 3.81542 3.81593 0.850218 1.89387
2.57603 2.96116 3.21107 3.37887 3.49722 3.58235 3.64492 3.6913 3.72593 3.75186
3.77127 3.78573 3.79642 3.80417 3.80963 3.81323 3.81513 3.81565 0.893313 1.85243
2.52703 2.92177 3.1836 3.35991 3.48433 3.57355 3.63888 3.68713 3.72304 3.74984
3.76985 3.78473 3.7957 3.80366 3.80924 3.81293 3.81488 3.81541 0.920589 1.82333
2.48471 2.88723 3.15901 3.34292 3.47281 3.56573 3.63356 3.68348 3.72052 3.7481
3.76863 3.78387 3.79509 3.80322 3.80892 3.81268 3.81466 3.8152 0.9373 1.80267
2.44886 2.85749 3.13746 3.32804 3.46275 3.55896 3.62898 3.68037 3.71839 3.74663
3.76761 3.78316 3.79459 3.80286 3.80866 3.81248 3.81449 3.81503 0.949637 1.78768
2.41909 2.83244 3.11904 3.31536 3.45423 3.55327 3.62518 3.67781 3.71666 3.74544
3.7668 3.7826 3.7942 3.80258 3.80845 3.81232 3.81435 3.8149 0.961663 1.77687
2.39498 2.81198 3.10385 3.30497 3.44731 3.54872 3.62217 3.67582 3.71533 3.74455
3.76619 3.78218 3.79391 3.80238 3.8083 3.8122 3.81426 3.81481 0.974041 1.76945
2.37626 2.79605 3.09201 3.29698 3.44207 3.54535 3.62 3.67442 3.71441 3.74395
3.76579 3.78191 3.79373 3.80225 3.80821 3.81214 3.8142 3.81475 0.985855 1.76517
2.3631 2.78489 3.08378 3.29158 3.43866 3.54324 3.61871 3.67363 3.71393 3.74365
3.76561 3.7818 3.79365 3.80221 3.80818 3.81212 3.81418 3.81474 0.997161 1.7649
2.35648 2.77925 3.07977 3.28917 3.43731 3.54255 3.61839 3.67351 3.71391 3.74368
3.76565 3.78184 3.7937 3.80224 3.80822 3.81214 3.81421 3.81477 1.00853 1.76904
2.35664 2.7792 3.07995 3.28965 3.43791 3.54317 3.61895 3.67398 3.7143 3.74398
3.76589 3.78203 3.79384 3.80235 3.8083 3.81221 3.81428 3.81485 1.0158 1.77346
2.35928 2.78117 3.08149 3.29088 3.43889 3.54393 3.61954 3.67443 3.71464 3.74424
3.76608 3.78217 3.79394 3.80243 3.80836 3.81226 3.81432 3.8149 
U 3 1819 float
0.603273 -0.00520016 -4.87891e-19 0.595632 -0.000769008 -6.77626e-21 0.596745 -0.000837294 -3.6522e-05 0.604585 -0.00289773
-0.000126397 0.62768 -0.0103621 5.14996e-19 0.628908 -0.00574046 -0.000250395 0.668232 -0.0152785 -2.98156e-18
0.66928 -0.00845174 -0.000368659 0.724159 -0.019441 -1.46367e-18 0.725127 -0.0106888 -0.000466237 0.787585
-0.023298 1.0842e-19 0.788053 -0.0129441 -0.000564611 0.875899 -0.024024 1.40946e-18 0.875774 -0.0131527
-0.000573712 0.933879 -0.0197224 -2.1684e-18 0.934152 -0.0107732 -0.000469918 0.964282 -0.00520058 -0.000226845
0.981728 -0.00461599 8.26704e-19 0.59934 -0.0097538 -1.54499e-18 0.591541 -0.00160668 0 0.623962
-0.0194597 -1.0842e-18 0.664948 -0.0286962 2.71051e-18 0.72128 -0.0367295 -2.49366e-18 0.785845 -0.043481
-1.30104e-18 0.875529 -0.0456918 -2.38524e-18 0.933222 -0.0374891 1.30104e-18 0.979115 -0.00928187 6.77626e-19
0.592654 -0.014431 -3.46945e-18 0.584753 -0.00243752 -6.77626e-19 0.617565 -0.0287818 -4.44523e-18 0.659132
-0.0424702 -8.67362e-19 0.716341 -0.0545859 1.95156e-18 0.782415 -0.0641949 1.0842e-18 0.874007 -0.0682832
-1.30104e-18 0.932585 -0.055828 -4.33681e-19 0.978393 -0.0135869 0 0.583073 -0.0193053 -2.6563e-18
0.575071 -0.00332524 2.57498e-19 0.608316 -0.0385463 -7.15573e-18 0.650611 -0.0570018 -3.46945e-18 0.709127
-0.0735157 2.60209e-18 0.777229 -0.0864319 -2.81893e-18 0.871536 -0.0922877 -4.33681e-19 0.932161 -0.0750378
4.98733e-18 0.978003 -0.0182637 -5.42101e-20 0.570569 -0.024281 1.40946e-18 0.56247 -0.00426675 7.45389e-19
0.596163 -0.0485773 -2.81893e-18 0.639303 -0.0720721 -4.55365e-18 0.699512 -0.0933444 -1.30104e-18 0.770258
-0.110018 2.1684e-18 0.868284 -0.117618 1.30104e-18 0.931959 -0.09489 2.1684e-18 0.977771 -0.0232206
2.60209e-18 0.555094 -0.0293408 1.73472e-18 0.546915 -0.00526681 -6.77626e-19 0.58101 -0.0588634 1.73472e-18
0.625044 -0.0877281 3.25261e-18 0.687262 -0.114261 0 0.761345 -0.135285 8.67362e-19 0.864356
-0.144744 0 0.932166 -0.115524 -3.90313e-18 0.97773 -0.0283941 5.63785e-18 0.53659 -0.034456
5.42101e-19 0.528373 -0.0063248 -6.50521e-19 0.562717 -0.0693751 2.60209e-18 0.607572 -0.104009 -2.1684e-18
0.672015 -0.136489 6.50521e-18 0.750201 -0.162728 3.90313e-18 0.859889 -0.17431 -5.20417e-18 0.933174
-0.137086 -5.63785e-18 0.978018 -0.0336699 2.81893e-18 0.515008 -0.0395655 -2.27682e-18 0.506834 -0.00743167
-2.71051e-20 0.541124 -0.0800211 -2.1684e-18 0.586544 -0.120882 5.20417e-18 0.653241 -0.160227 4.77049e-18
0.73638 -0.193017 1.73472e-18 0.855184 -0.207259 3.46945e-18 0.935756 -0.159788 -1.38778e-17 0.978908
-0.0388491 -8.78204e-18 0.490343 -0.0445659 5.31259e-18 0.482336 -0.0085677 3.57787e-18 0.516068 -0.0906206
-2.60209e-18 0.56153 -0.138193 -4.33681e-19 0.630164 -0.185594 6.07153e-18 0.719146 -0.227052 1.73472e-18
0.850611 -0.244913 -6.07153e-18 0.941063 -0.183804 1.47451e-17 0.98084 -0.0435636 1.0842e-18 0.462656
-0.0492998 4.55365e-18 0.454996 -0.00970008 1.46367e-18 0.487421 -0.100871 -8.67362e-19 0.532014 -0.155588
-2.60209e-18 0.601615 -0.212555 -4.33681e-18 0.697064 -0.26598 1.73472e-18 0.845085 -0.288877 -4.33681e-18