/*--------------------------------*- C++ -*----------------------------------*\
  =========                 |
  \\      /  F ield         | OpenFOAM: The Open Source CFD Toolbox
   \\    /   O peration     | Website:  https://openfoam.org
    \\  /    A nd           | Version:  13
     \\/     M anipulation  |
\*---------------------------------------------------------------------------*/
FoamFile
{
    format      ascii;
    class       volScalarField;
    location    "2.25";
    object      alpha.oil;
}
// * * * * * * * * * * * * * * * * * * * * * * * * * * * * * * * * * * * * * //

dimensions      [];

internalField   nonuniform List<scalar> 
2268
(
1.38797e-14
1.08485e-13
6.04451e-13
2.22931e-12
6.05901e-12
1.4516e-11
3.13642e-11
6.17337e-11
1.16343e-10
2.42175e-10
4.49383e-10
8.23835e-10
1.58056e-09
2.92189e-09
5.62128e-09
1.03411e-08
1.67102e-08
1.70049e-08
1.72074e-08
0.000126978
0.000419068
0.000567145
0.000567145
9.86669e-15
1.00089e-13
6.97889e-13
2.65945e-12
7.18346e-12
1.73493e-11
3.7549e-11
8.27405e-11
1.53027e-10
2.9294e-10
5.25097e-10
1.11226e-09
2.08466e-09
3.80361e-09
6.85388e-09
1.28997e-08
2.66992e-08
3.65462e-08
3.69393e-08
2.53408e-06
3.62185e-06
4.88465e-05
0.000280892
2.73393e-14
8.64198e-14
4.9942e-13
2.93145e-12
7.50769e-12
1.79341e-11
3.81487e-11
7.77681e-11
1.53477e-10
3.02333e-10
5.82632e-10
1.07379e-09
1.91142e-09
3.28416e-09
5.24796e-09
7.5176e-09
9.64108e-09
1.13171e-08
1.04626e-08
6.68516e-08
6.52584e-08
1.11306e-07
5.8894e-08
1.66398e-13
2.77779e-13
5.01844e-13
2.28552e-12
6.18395e-12
1.56036e-11
3.93099e-11
7.99681e-11
1.92337e-10
3.99176e-10
7.49676e-10
1.37333e-09
2.39798e-09
4.12454e-09
6.61864e-09
9.85296e-09
8.47596e-09
8.2761e-09
8.07785e-09
8.91836e-09
8.59248e-09
1.03721e-08
8.75102e-09
7.48899e-13
9.32879e-13
1.46599e-12
2.20066e-12
4.69242e-12
1.13301e-11
2.7333e-11
6.65094e-11
1.38631e-10
3.74824e-10
7.1356e-10
1.5309e-09
2.76272e-09
4.32959e-09
5.7144e-09
1.74802e-08
1.11939e-07
2.18688e-07
5.93404e-07
1.42429e-07
7.46343e-09
7.42177e-09
4.77421e-08
1.06979e-11
5.73776e-12
5.69005e-12
5.93072e-12
6.68338e-12
1.12319e-11
2.23615e-11
5.07846e-11
1.18526e-10
2.73969e-10
5.28871e-10
1.14878e-09
2.21555e-09
3.15497e-09
2.63003e-09
1.15443e-09
5.18859e-07
2.69652e-06
2.76857e-06
2.33369e-06
4.07631e-06
2.79174e-05
4.82769e-05
6.04257e-10
3.44476e-10
1.70788e-10
8.52211e-11
4.36113e-11
2.94815e-11
2.12942e-11
2.41437e-11
4.33673e-11
1.08773e-10
2.67829e-10
5.3275e-10
8.29693e-10
1.22075e-09
1.15241e-09
1.16428e-09
4.36248e-07
1.64113e-06
2.16637e-06
2.35647e-06
1.59989e-05
4.84728e-05
4.85665e-05
2.71686e-09
2.11328e-09
1.41229e-09
9.4729e-10
6.66599e-10
4.91179e-10
1.84639e-10
3.28247e-11
5.19756e-11
1.09884e-10
1.93949e-10
3.29525e-10
5.95368e-10
1.17649e-09
4.47208e-09
1.94591e-08
4.23229e-08
1.89357e-08
4.21816e-08
6.98853e-07
1.13116e-05
1.31629e-05
2.62593e-05
0.116689
0.113722
0.0909126
0.0483786
0.0321683
0.0308575
0.0308416
0.201059
0.29664
0.316164
0.314896
0.32797
0.327966
0.270873
0.0869746
0.0828693
0.141542
0.226089
0.220452
0.404563
0.389164
0.37387
0.390482
0.34914
0.142064
0.0308681
0.0337944
0.0577481
0.0538289
0.0587232
0.117261
0.21156
0.172286
0.0680755
0.0714575
0.146869
0.226961
0.220664
0.404026
0.321286
0.447957
0.578433
0.605669
0.589608
0.236365
0.035543
1.24339e-05
7.36369e-06
2.90643e-05
0.0060539
0.115384
0.162977
0.0877803
0.0728921
0.174282
0.23326
0.33994
0.126957
0.00383001
0.0262347
0.0805428
0.480654
0.741692
0.667116
0.299531
0.0112595
0.000392625
1.13168e-08
0.00662718
0.118303
0.192005
0.163369
0.132392
0.288554
0.429166
0.471396
0.00375831
0.00379426
0.00383001
0.00386864
0.453226
0.741752
0.74175
0.629546
0.0897706
0.000166178
1.08688e-06
0.0242154
0.180063
0.182307
0.186964
0.2512
0.269151
0.432837
0.470941
0.0165
0.015751
0.0117004
0.0641291
0.61241
0.74175
0.726956
0.267753
0.00782227
9.12219e-08
1.32499e-21
0.0651638
0.271072
0.286575
0.298566
0.302397
0.312314
0.299891
0.43996
0.042366
0.0343859
0.0435687
0.188459
0.74038
0.685607
0.136418
2.83316e-05
-8.87975e-21
-1.07303e-13
-1.21775e-14
0.0647457
0.278788
0.298497
0.298854
0.298589
0.197485
0.015482
0.430067
0.0450826
0.034718
0.0414695
0.232618
0.742808
0.465245
1.57173e-15
1.27323e-07
1.18e-07
1.14562e-08
2.63722e-05
0.0100931
0.0989185
0.231263
0.242088
0.0984603
6.82827e-05
0.000223435
0.385256
3.92517e-09
3.47072e-09
2.65346e-09
2.1504e-09
1.85456e-09
1.57046e-09
9.60307e-10
5.36922e-10
3.44743e-10
2.72152e-10
2.36551e-10
2.98053e-10
5.45133e-10
1.02779e-09
2.44275e-09
5.41866e-09
1.05836e-09
1.51322e-13
1.85382e-13
2.08726e-08
6.91061e-07
6.37832e-07
7.73303e-07
4.33139e-09
4.24981e-09
3.84098e-09
3.55673e-09
3.6725e-09
1.33311e-09
3.61601e-09
2.27499e-09
1.27613e-09
7.62061e-10
3.41021e-10
2.89571e-10
4.45309e-10
5.20745e-10
5.54459e-10
6.9641e-10
4.54965e-11
2.03118e-12
1.83024e-13
2.28794e-14
9.68856e-15
-4.71515e-24
-1.55818e-07
2.11704e-09
1.11341e-09
1.30987e-09
1.43749e-09
1.56588e-09
2.29087e-06
2.78787e-09
2.06959e-09
1.50176e-09
7.41086e-10
1.0728e-10
-7.17402e-13
-1.33437e-12
1.07481e-27
5.98566e-20
-1.79564e-27
1.44989e-29
-6.08357e-13
-2.30863e-15
0.0230336
0.240065
0.499329
0.572217
-2.0688e-14
1.8111e-19
4.72121e-20
0.00100366
0.00156664
0.000889856
-4.68386e-14
-3.17865e-15
-7.12599e-16
-9.47705e-20
-1.77519e-19
0.000242645
0.00191822
0.0128511
0.0695224
0.204363
0.359623
0.525889
0.661474
0.794903
0.939912
0.926166
0.848651
0.0386649
0.190457
0.390994
0.452344
0.468359
0.43178
0.270269
0.127985
0.121338
0.206479
0.302066
0.413491
0.568144
0.70041
0.807912
0.854681
0.83511
0.906037
0.994727
0.996044
0.99359
0.931673
0.918241
0.507758
0.89236
0.986356
0.989829
0.994629
0.982714
0.868239
0.801087
0.855321
0.918202
0.902084
0.883447
0.925402
0.981156
0.985576
0.975561
0.972041
0.991479
0.999971
0.999672
0.996986
0.995742
0.999658
0.863493
0.946546
0.997937
0.999121
0.999314
0.999125
0.999596
0.999949
0.99999
0.999999
0.999999
1
1
1
1
1
1
1
0.999968
0.999904
0.999935
0.999999
0.999999
0.651667
0.470205
0.387816
0.494762
0.664014
0.83385
0.939936
0.978257
0.99216
0.999999
1
1
1
1
1
1
1
1
1
1
1
1
1
0.0652261
0.00231978
1.51611e-06
0.00231434
0.0221383
0.0632972
0.133114
0.248438
0.445896
0.687366
0.838783
0.878491
0.893195
0.909559
0.929775
0.943126
0.947974
0.94898
0.938086
0.93069
0.930472
0.92912
0.92444
2.95405e-06
9.1638e-07
2.70467e-06
5.69145e-06
-2.49967e-07
1.0431e-08
7.12214e-09
1.11681e-14
-9.25794e-11
2.98759e-07
0.0010109
0.0365672
0.0865196
0.156058
0.212776
0.235274
0.240861
0.234182
0.187882
0.160989
0.152161
0.113452
0.0268627
2.40502e-06
2.40135e-06
4.12942e-06
7.0598e-05
6.85705e-05
2.31254e-05
2.10781e-07
8.06505e-07
1.15988e-06
-4.79819e-10
5.02871e-09
3.91852e-09
1.08075e-08
4.32957e-09
6.99738e-08
9.59067e-08
1.61161e-08
4.67485e-09
1.03731e-08
7.60278e-09
4.84586e-09
-1.38818e-09
2.51268e-09
1.9187e-06
3.34223e-06
5.04436e-06
7.07485e-05
7.7272e-05
3.20918e-05
1.27644e-06
3.31984e-08
3.0618e-12
0
2.24883e-12
1.61218e-08
1.09657e-07
3.32757e-07
3.31945e-07
1.79189e-07
3.29263e-08
2.50006e-08
4.81961e-08
5.44696e-08
5.35927e-08
7.11125e-08
7.95603e-08
8.06395e-07
3.15288e-06
5.16016e-06
5.69935e-06
9.65787e-06
3.78412e-06
6.36045e-07
1.22771e-05
5.4431e-05
0.000122827
4.80277e-05
9.31954e-07
5.05599e-11
4.27496e-11
2.25249e-09
1.08091e-08
4.03296e-08
6.03887e-08
9.10259e-08
9.29983e-08
9.48057e-08
7.13059e-08
7.92994e-08
6.21451e-07
1.21019e-06
2.00851e-06
4.09844e-08
4.98363e-08
4.0987e-08
5.12699e-08
9.29354e-06
0.0001628
0.000163581
0.000162092
0.000100763
4.23225e-11
2.66694e-10
5.29853e-09
1.45413e-08
9.50968e-08
2.21751e-07
2.57866e-07
2.0149e-07
1.79275e-07
1.55424e-07
8.3364e-08
3.68862e-07
3.95595e-07
9.55069e-08
9.00487e-08
9.73615e-08
9.35407e-08
6.18749e-08
6.03056e-08
0.00013682
0.0001628
0.000162632
0.000112886
1.37498e-06
2.00152e-10
8.59855e-09
6.17701e-09
1.32881e-07
2.89744e-07
2.89157e-07
2.69233e-07
2.21406e-07
1.93014e-07
9.88005e-08
2.47518e-07
1.9481e-07
1.17943e-07
1.15864e-07
1.29239e-07
1.22388e-07
7.94277e-08
6.08154e-08
1.86252e-05
0.000101746
0.000101944
2.75597e-05
1.47362e-08
9.33254e-09
8.30106e-09
6.37274e-09
2.67755e-08
2.50967e-07
2.87898e-07
2.75798e-07
2.31728e-07
1.58997e-07
1.30819e-07
1.26916e-07
1.42106e-07
1.02759e-07
9.33905e-08
1.04959e-07
1.08164e-07
1.47092e-07
3.15943e-07
4.33499e-08
1.95797e-06
1.67166e-06
4.05721e-07
3.99613e-07
9.81375e-08
3.49949e-08
6.21413e-09
6.16516e-09
5.02309e-08
2.07428e-07
2.329e-07
1.71667e-07
1.41887e-07
1.01566e-07
8.4689e-08
1.07148e-07
8.44785e-08
6.94289e-08
6.91203e-08
7.76374e-08
9.46207e-08
9.9272e-08
4.07973e-08
4.33296e-08
4.66732e-08
4.72868e-07
8.62532e-07
6.71838e-07
1.72682e-07
1.15805e-08
6.23542e-09
1.30748e-08
6.7879e-08
1.32299e-07
1.14711e-07
8.44516e-08
6.51475e-08
6.19411e-08
9.07524e-08
7.50382e-08
5.56023e-08
4.54583e-08
4.48545e-08
4.95685e-08
2.50525e-08
2.8506e-08
3.77486e-08
1.13719e-07
7.7853e-07
8.58569e-07
7.26919e-07
1.42074e-07
2.36984e-08
7.44263e-09
8.7508e-09
2.73681e-08
5.50614e-08
5.20583e-08
4.31555e-08
3.26534e-08
5.0795e-08
8.27018e-08
7.19747e-08
5.02245e-08
3.49987e-08
2.81946e-08
2.76116e-08
2.48684e-08
2.67823e-08
4.35473e-08
1.29407e-07
4.13989e-07
5.54274e-07
2.85458e-07
7.56428e-08
2.07647e-08
1.04971e-08
9.77675e-09
1.40524e-08
2.25552e-08
2.18789e-08
1.8408e-08
1.4404e-08
4.62926e-08
7.88887e-08
6.94992e-08
4.84247e-08
3.1682e-08
2.19307e-08
1.84815e-08
1.8125e-08
2.19948e-08
3.4834e-08
6.08202e-08
9.4821e-08
9.36894e-08
6.84769e-08
3.17735e-08
1.55909e-08
1.06458e-08
9.44392e-09
9.55082e-09
1.10294e-08
1.06813e-08
9.12641e-09
7.11467e-09
3.57684e-08
6.41412e-08
6.1967e-08
4.5329e-08
3.01361e-08
1.92154e-08
1.41089e-08
1.26689e-08
1.30161e-08
1.8422e-08
2.37311e-08
2.52221e-08
2.29458e-08
1.87849e-08
1.42978e-08
1.09211e-08
8.72476e-09
7.66437e-09
7.30045e-09
6.93485e-09
6.2909e-09
5.45674e-09
4.47219e-09
2.90525e-08
5.25089e-08
5.23455e-08
4.05042e-08
2.81782e-08
1.75375e-08
1.16615e-08
8.75669e-09
7.93186e-09
8.66566e-09
9.3909e-09
9.02997e-09
8.29473e-09
8.06261e-09
7.62801e-09
6.93558e-09
5.9984e-09
5.31337e-09
4.73728e-09
4.41935e-09
4.03029e-09
3.58626e-09
3.00809e-09
2.20138e-08
3.88783e-08
4.01031e-08
3.29118e-08
2.47866e-08
1.58791e-08
9.93181e-09
6.42386e-09
5.07995e-09
4.45937e-09
4.49088e-09
4.33716e-09
4.12645e-09
4.11828e-09
4.08154e-09
3.91408e-09
3.46104e-09
3.15939e-09
2.83975e-09
2.62489e-09
2.42121e-09
2.16977e-09
1.88893e-09
1.5601e-08
2.74269e-08
2.86101e-08
2.37195e-08
1.84927e-08
1.29716e-08
8.06693e-09
4.88284e-09
3.40721e-09
2.65314e-09
2.36527e-09
2.2284e-09
2.15592e-09
2.15975e-09
2.14702e-09
2.03471e-09
1.8371e-09
1.61958e-09
1.50363e-09
1.40085e-09
1.29883e-09
1.18187e-09
1.03563e-09
1.09461e-08
1.88253e-08
1.90399e-08
1.57536e-08
1.22935e-08
9.42074e-09
6.2409e-09
3.60636e-09
2.24804e-09
1.61734e-09
1.29249e-09
1.16497e-09
1.11866e-09
1.10112e-09
1.06559e-09
9.9423e-10
8.86943e-10
8.07146e-10
7.33389e-10
6.74697e-10
6.12083e-10
5.54331e-10
4.91329e-10
7.053e-09
1.21042e-08
1.18658e-08
9.60476e-09
7.34456e-09
5.93475e-09
4.11608e-09
2.48562e-09
1.49415e-09
9.87896e-10
7.01836e-10
5.794e-10
5.36767e-10
5.14063e-10
4.92069e-10
4.5759e-10
4.0736e-10
3.66026e-10
3.30221e-10
2.9604e-10
2.66866e-10
2.33935e-10
2.0237e-10
4.4357e-09
7.2252e-09
6.77546e-09
5.3078e-09
3.90279e-09
3.24074e-09
2.38061e-09
1.52408e-09
9.13247e-10
5.74863e-10
3.74089e-10
2.77276e-10
2.3715e-10
2.19045e-10
2.08073e-10
1.94057e-10
1.76257e-10
1.5749e-10
1.38479e-10
1.2073e-10
1.04655e-10
8.90046e-11
7.55375e-11
2.61962e-09
3.95232e-09
3.57476e-09
2.68735e-09
1.87489e-09
1.47576e-09
1.17398e-09
7.59677e-10
4.84641e-10
3.01288e-10
1.87915e-10
1.27773e-10
9.80888e-11
8.50949e-11
7.9695e-11
7.51213e-11
6.79578e-11
5.89039e-11
5.12868e-11
4.4551e-11
3.78868e-11
3.0128e-11
2.4632e-11
1.47826e-09
1.98936e-09
1.65046e-09
1.1835e-09
7.79527e-10
6.01735e-10
4.75057e-10
3.33846e-10
2.19776e-10
1.35308e-10
8.44614e-11
5.4651e-11
3.83064e-11
3.06282e-11
2.67869e-11
2.45706e-11
2.27128e-11
2.03821e-11
1.74016e-11
1.47214e-11
1.18039e-11
9.29911e-12
7.32477e-12
7.26747e-10
8.67139e-10
6.95277e-10
4.78395e-10
3.02837e-10
2.22756e-10
1.67529e-10
1.26042e-10
8.51443e-11
5.32863e-11
3.33087e-11
2.09414e-11
1.38948e-11
1.01096e-11
8.34257e-12
7.49151e-12
6.86172e-12
6.04955e-12
5.25096e-12
4.27852e-12
3.44102e-12
2.50222e-12
1.88248e-12
3.13915e-10
3.50031e-10
2.68108e-10
1.76665e-10
1.01695e-10
6.87868e-11
5.484e-11
4.14552e-11
2.87198e-11
1.82589e-11
1.13982e-11
7.06532e-12
4.51298e-12
3.10247e-12
2.44832e-12
2.09333e-12
1.90626e-12
1.6696e-12
1.3818e-12
1.10792e-12
8.33785e-13
5.98176e-13
4.27256e-13
1.23435e-10
1.15987e-10
8.48792e-11
5.3811e-11
3.03681e-11
2.05451e-11
1.59376e-11
1.19268e-11
8.0968e-12
5.28143e-12
3.3127e-12
2.06805e-12
1.25751e-12
8.37712e-13
6.36224e-13
5.32788e-13
4.60565e-13
4.03913e-13
3.24669e-13
2.45996e-13
1.82822e-13
1.22173e-13
8.05441e-14
3.78033e-11
3.65336e-11
2.49712e-11
1.51489e-11
8.40153e-12
5.32708e-12
3.92307e-12
2.91692e-12
2.03549e-12
1.35848e-12
8.60414e-13
4.834e-13
2.96482e-13
1.97716e-13
1.46879e-13
1.213e-13
1.00485e-13
8.26264e-14
6.62587e-14
4.86105e-14
3.27116e-14
2.08745e-14
1.31401e-14
9.59502e-12
8.74223e-12
5.45963e-12
3.19203e-12
1.76052e-12
1.06909e-12
7.68353e-13
5.82502e-13
4.24218e-13
2.89904e-13
1.80193e-13
1.10952e-13
6.33479e-14
4.17667e-14
3.03135e-14
2.40421e-14
2.05199e-14
1.59408e-14
1.20984e-14
8.17623e-15
5.3971e-15
3.23338e-15
1.85576e-15
2.56136e-12
2.00678e-12
1.17565e-12
6.71685e-13
3.69239e-13
2.20697e-13
1.56691e-13
1.22334e-13
8.89507e-14
5.49237e-14
3.36947e-14
2.03525e-14
1.30451e-14
8.47452e-15
6.05187e-15
4.7115e-15
3.72944e-15
2.84309e-15
2.02332e-15
1.29228e-15
7.72063e-16
4.19782e-16
2.31318e-16
5.06198e-13
3.48902e-13
2.0129e-13
1.15824e-13
6.39571e-14
3.7998e-14
2.69803e-14
2.16914e-14
1.57949e-14
1.01729e-14
6.32698e-15
3.82059e-15
2.34035e-15
1.4974e-15
1.07377e-15
8.34291e-16
6.45287e-16
4.64989e-16
3.03837e-16
1.78601e-16
9.69671e-17
4.75359e-17
3.07267e-17
7.56145e-14
4.75807e-14
2.83935e-14
1.70304e-14
9.61209e-15
5.74801e-15
4.13583e-15
3.38242e-15
2.52182e-15
1.68715e-15
1.05438e-15
6.25654e-16
3.75515e-16
2.4408e-16
1.74381e-16
1.33799e-16
1.03133e-16
7.0215e-17
4.21137e-17
2.20968e-17
1.05557e-17
5.83629e-18
7.98206e-18
7.25419e-15
5.04054e-15
3.29361e-15
2.15113e-15
1.27963e-15
7.85889e-16
5.79078e-16
4.8055e-16
3.69182e-16
2.35931e-16
1.48003e-16
9.14186e-17
5.58077e-17
3.6807e-17
2.66545e-17
2.10023e-17
1.55838e-17
9.66256e-18
5.21417e-18
2.53639e-18
1.27136e-18
1.15034e-18
4.20842e-18
4.1857e-16
3.24338e-16
3.07073e-16
2.36991e-16
1.54229e-16
9.97201e-17
7.4839e-17
6.36151e-17
4.98346e-17
3.27311e-17
1.8513e-17
1.19467e-17
7.79212e-18
5.20679e-18
4.03816e-18
3.17845e-18
2.24678e-18
1.20999e-18
5.97174e-19
2.81839e-19
2.12703e-19
5.36836e-19
3.12394e-18
5.18635e-18
1.31511e-17
1.85458e-17
1.92727e-17
1.42611e-17
9.30721e-18
8.17698e-18
7.26851e-18
6.00459e-18
4.16552e-18
2.52015e-18
1.5452e-18
1.04704e-18
7.38841e-19
5.86765e-19
4.46124e-19
3.00881e-19
1.62742e-19
7.66027e-20
4.57661e-20
7.90068e-20
3.41185e-19
2.22702e-18
1.37547e-23
2.20174e-19
1.09509e-18
1.62964e-18
1.34484e-18
9.35115e-19
8.2649e-19
7.16671e-19
6.55634e-19
4.81732e-19
3.08153e-19
1.92263e-19
1.34105e-19
1.01869e-19
8.0312e-20
5.95598e-20
3.96642e-20
2.1897e-20
1.14767e-20
1.14342e-20
3.5258e-20
1.7936e-19
1.24445e-18
9.32556e-07
0.0246877
0.1697
0.267311
0.186336
0.676159
0.696488
0.407302
0.721189
0.801981
0.720141
0.545279
0.856147
0.952225
0.930701
0.946431
0.994954
0.998841
0.999871
0.999935
0.999955
0.999994
0.999975
0.999963
0.999999
0.999995
0.999985
0.999979
0.999997
0.999995
0.999996
0.999999
0.92369
0.893317
0.843724
0.786568
0.00330767
0.00415073
9.70496e-10
7.00085e-07
-2.34714e-11
1.52837e-21
8.63422e-20
1.96862e-09
9.55152e-08
1.16896e-07
1.39618e-07
2.62894e-07
8.15017e-08
1.01381e-07
1.65386e-07
1.64181e-07
7.7438e-08
8.40255e-08
8.87523e-08
9.71063e-08
7.05295e-08
7.1558e-08
7.46547e-08
7.23842e-08
8.96743e-08
5.21078e-08
5.64189e-08
5.67656e-08
8.60478e-08
4.92415e-08
5.24795e-08
4.14716e-08
5.97217e-08
3.82084e-08
3.2461e-08
2.55301e-08
2.91434e-08
2.21456e-08
1.84456e-08
1.47866e-08
1.24731e-08
1.07723e-08
8.5679e-09
6.91892e-09
6.59472e-09
5.28892e-09
4.48983e-09
3.84451e-09
3.83649e-09
3.45345e-09
2.93156e-09
2.55703e-09
2.71422e-09
2.38728e-09
2.08538e-09
1.92848e-09
1.73245e-09
1.59711e-09
1.42777e-09
1.28047e-09
9.69343e-10
8.89259e-10
8.0062e-10
7.48307e-10
4.61897e-10
4.28608e-10
3.8997e-10
3.47943e-10
1.91806e-10
1.73931e-10
1.55685e-10
1.41455e-10
7.08737e-11
6.41598e-11
5.77164e-11
4.858e-11
2.30806e-11
2.03769e-11
1.73731e-11
1.50962e-11
6.56304e-12
5.82773e-12
5.03819e-12
4.0007e-12
1.68258e-12
1.45269e-12
1.19875e-12
9.43701e-13
3.72615e-13
3.06947e-13
2.49929e-13
1.86229e-13
6.70534e-14
5.42351e-14
4.16446e-14
3.03342e-14
1.06641e-14
8.27189e-15
6.0714e-15
4.19855e-15
1.42828e-15
1.05945e-15
7.70491e-16
5.76183e-16
1.74361e-16
1.38925e-16
1.24214e-16
1.36713e-16
2.91825e-17
3.21082e-17
4.47847e-17
7.73925e-17
1.07396e-17
1.60857e-17
3.10093e-17
7.55846e-17
6.83517e-18
1.27074e-17
3.30134e-17
9.83636e-17
5.57051e-18
1.34406e-17
4.29847e-17
1.40416e-16
4.3934e-18
1.42363e-17
5.21069e-17
1.68471e-16
3.84444e-18
1.35722e-17
4.52278e-17
1.29794e-16
0.0727971
0.0315774
0.0316246
0.253434
0.743919
0.272139
-4.85407e-13
-9.07639e-11
-3.9357e-11
-2.27257e-08
7.43394e-23
5.5973e-05
0.000222243
0.00349457
0.00508022
8.16025e-05
5.8353e-05
5.83468e-05
0.293506
0.0759813
0.0651062
0.341109
0.768755
0.802896
0.250421
0.16881
0.375839
0.355584
0.221497
0.130342
0.0663906
0.0296822
0.00621737
0.000232912
0.00140841
5.83468e-05
5.84062e-05
0.0431654
0.654954
0.889634
0.98251
0.972192
0.810736
0.739764
0.887654
0.996674
0.99175
0.965875
0.909377
0.834567
0.766383
0.709727
0.618393
0.510847
0.376589
0.281254
0.24233
0.987207
0.999508
0.999094
0.973184
0.931362
0.968904
0.999337
0.99999
0.999974
0.999981
0.999998
0.999983
0.9999
0.999736
0.999651
0.99741
0.998849
0.922874
0.87888
0.999895
0.999515
0.999101
0.997932
0.999997
1
1
0.999995
0.999989
0.999997
0.999999
0.999999
0.999906
0.99976
0.999725
0.999748
0.999741
0.998542
0.982738
0.999963
0.999973
0.999959
0.999999
1
1
0.999999
0.999999
1
1
1
1
1
1
0.999992
0.999938
0.999018
0.998027
0.997839
0.999994
1
1
1
1
1
1
1
1
1
0.999999
0.999971
0.990945
0.958966
0.916376
0.859482
0.78757
0.709454
0.633949
0.999999
0.999999
1
1
0.994659
0.959009
0.916378
0.867908
0.817772
0.767598
0.703285
0.578562
0.385865
0.244427
0.163291
0.0969167
0.0427206
0.0109867
1.26621e-08
0.703971
0.60245
0.508976
0.420216
0.327791
0.254881
0.189102
0.132504
0.0843928
0.0413288
0.00921953
6.27294e-09
6.83212e-09
2.77638e-09
1.57872e-15
-9.69369e-07
-2.58233e-10
-5.08207e-12
1.52651e-08
5.99111e-09
0.0024444
0.00322706
0.000116384
5.71224e-06
-2.64305e-18
1.03583e-19
-2.98349e-19
-1.60408e-19
-3.90844e-21
4.55203e-08
0.000148456
0.000276427
0.0001594
1.27417e-05
2.38017e-07
4.91661e-07
4.54596e-07
4.94119e-07
9.22323e-09
5.98603e-09
6.97786e-09
1.23527e-07
7.51788e-06
1.85758e-05
3.04784e-05
1.96586e-05
8.9026e-06
1.30237e-05
0.000336922
0.0010352
0.00102802
0.00044973
3.80832e-07
7.72416e-07
8.5337e-07
4.81628e-07
5.81756e-07
3.17671e-07
4.51835e-07
3.67509e-07
2.2352e-07
9.15213e-06
0.000678564
0.00097764
0.000860784
7.60533e-05
3.44103e-05
0.000234941
0.000936442
0.000872526
0.00013482
3.56389e-07
7.82151e-07
6.55011e-07
3.17331e-07
5.83536e-07
1.9942e-07
3.32759e-07
3.17214e-07
2.62201e-07
8.19412e-07
0.000539436
0.000981961
0.000977557
0.000780443
1.42019e-07
1.56589e-07
1.42003e-07
3.31619e-07
3.21267e-07
4.07135e-07
5.36171e-07
1.66565e-07
2.04539e-07
5.84985e-07
1.20798e-07
1.7217e-07
2.09903e-07
2.64956e-07
8.08921e-07
5.91171e-06
7.70667e-05
0.000186093
0.000142193
1.6654e-05
1.42003e-07
3.12516e-07
3.48111e-07
3.37886e-07
2.06934e-07
1.22392e-07
5.86723e-08
2.03309e-07
5.01991e-07
7.49763e-08
9.56635e-08
1.48969e-07
2.03293e-07
2.29828e-07
1.76705e-07
1.17117e-07
1.03822e-07
1.12031e-07
1.05632e-07
1.82845e-07
4.75221e-07
5.24653e-07
5.20446e-07
3.12227e-07
6.07044e-08
6.33316e-08
1.51098e-07
9.3697e-08
5.32572e-08
5.49393e-08
7.17455e-08
1.03475e-07
1.32027e-07
1.98664e-07
3.48325e-07
4.59527e-07
3.78611e-07
1.79288e-07
9.57796e-08
1.27804e-07
3.9323e-07
4.61672e-07
2.4525e-07
7.54157e-08
5.60646e-08
3.2966e-08
1.38429e-08
3.46425e-08
3.44166e-08
4.00554e-08
4.8901e-08
4.39984e-08
5.6311e-08
2.40203e-07
4.91394e-07
4.73809e-07
2.99407e-07
8.81863e-08
4.17285e-08
1.19868e-07
1.78596e-07
8.81192e-08
3.4938e-08
3.203e-08
1.41766e-08
1.38534e-08
1.85922e-08
1.78842e-08
2.17972e-08
2.70585e-08
2.60737e-08
2.33233e-08
2.29787e-08
1.2257e-07
1.91932e-07
1.02913e-07
6.63251e-08
3.83037e-08
2.97617e-08
2.65149e-08
1.72306e-08
2.11962e-08
2.16563e-08
1.39057e-08
1.38449e-08
9.1341e-09
7.89168e-09
9.86528e-09
1.28808e-08
1.63405e-08
1.90282e-08
1.71197e-08
1.18285e-08
1.18292e-08
1.49675e-08
2.28455e-08
2.30698e-08
1.62065e-08
9.35211e-09
1.10053e-08
1.19629e-08
1.22081e-08
1.39038e-08
1.43773e-08
4.32407e-09
3.54489e-09
3.92954e-09
5.6867e-09
7.21344e-09
9.68001e-09
1.12754e-08
1.11926e-08
1.10953e-08
1.26054e-08
1.34376e-08
1.31972e-08
1.1071e-08
8.97461e-09
8.64061e-09
1.08332e-08
1.18574e-08
1.50484e-08
1.46711e-08
2.57066e-09
2.04981e-09
1.96612e-09
2.32476e-09
3.22471e-09
4.05275e-09
4.93808e-09
5.63896e-09
6.32125e-09
6.63197e-09
6.41402e-09
5.91591e-09
5.449e-09
5.38638e-09
6.09953e-09
8.1787e-09
1.19399e-08
1.70836e-08
1.90086e-08
1.83038e-09
1.47037e-09
1.28878e-09
1.24519e-09
1.32159e-09
1.58736e-09
1.88602e-09
2.20605e-09
2.50636e-09
2.6559e-09
2.59169e-09
2.43424e-09
2.5791e-09
3.21118e-09
4.4309e-09
6.87099e-09
1.305e-08
2.45482e-08
2.38084e-08
1.42891e-09
1.13202e-09
9.32327e-10
7.88539e-10
7.1941e-10
7.05055e-10
7.71142e-10
8.8186e-10
1.01239e-09
1.14703e-09
1.27617e-09
1.48428e-09
1.85512e-09
2.56821e-09
3.84283e-09
6.75926e-09
1.54369e-08
3.35969e-08
3.65461e-08
1.00283e-09
7.95962e-10
6.42547e-10
5.09223e-10
4.05335e-10
3.44696e-10
3.22689e-10
3.43378e-10
4.07852e-10
5.18156e-10
6.80751e-10
9.32566e-10
1.36155e-09
2.14122e-09
3.61622e-09
6.9807e-09
1.80617e-08
5.4702e-08
4.49656e-08
5.82732e-10
4.68357e-10
3.76176e-10
2.90245e-10
2.2401e-10
1.80151e-10
1.60961e-10
1.69275e-10
2.12345e-10
3.01537e-10
4.55241e-10
7.14218e-10
1.16267e-09
1.97226e-09
3.52339e-09
7.43806e-09
2.258e-08
6.84054e-08
6.61067e-08
2.76476e-10
2.22973e-10
1.76239e-10
1.36135e-10
1.03763e-10
8.37188e-11
8.06355e-11
9.44417e-11
1.3328e-10
2.12386e-10
3.59656e-10
6.19594e-10
1.07912e-09
1.90596e-09
3.51481e-09
8.26597e-09
2.64315e-08
8.4655e-08
7.65068e-08
1.07435e-10
8.52417e-11
6.64699e-11
5.09247e-11
3.98608e-11
3.58022e-11
4.00912e-11
5.82631e-11
9.65212e-11
1.70243e-10
3.1525e-10
5.80751e-10
1.05708e-09
1.87752e-09
3.60202e-09
8.83757e-09
3.27779e-08
8.49054e-08
8.58082e-08
3.58955e-11
2.73117e-11
2.0575e-11
1.56656e-11
1.34738e-11
1.51022e-11
2.26122e-11
3.96733e-11
7.76004e-11
1.5014e-10
2.94948e-10
5.71974e-10
1.06527e-09
1.94823e-09
3.60834e-09
1.0164e-08
3.65824e-08
9.79561e-08
6.21009e-08
1.02816e-11
7.38261e-12
5.3954e-12
4.32485e-12
4.76705e-12
7.6992e-12
1.52255e-11
3.13126e-11
6.74421e-11
1.40558e-10
2.89199e-10
5.85712e-10
1.13325e-09
2.05714e-09
3.71708e-09
1.07239e-08
4.5799e-08
9.7041e-08
5.66199e-08
2.6256e-12
1.73857e-12
1.29415e-12
1.36068e-12
2.33735e-12
5.1579e-12
1.20073e-11
2.72132e-11
6.10398e-11
1.3724e-10
2.96788e-10
6.17113e-10
1.21625e-09
2.20102e-09
3.96193e-09
1.19725e-08
4.98529e-08
9.74597e-08
4.66023e-08
5.65707e-13
3.62365e-13
3.4772e-13
6.35831e-13
1.60882e-12
4.0918e-12
1.03407e-11
2.50183e-11
5.86447e-11
1.37857e-10
3.10704e-10
6.60026e-10
1.33171e-09
2.42441e-09
4.36732e-09
1.23788e-08
5.29384e-08
9.46344e-08
3.93911e-08
1.04708e-13
7.70935e-14
1.41706e-13
4.18444e-13
1.28466e-12
3.59857e-12
9.34268e-12
2.36879e-11
5.76684e-11
1.43432e-10
3.32075e-10
7.21934e-10
1.47995e-09
2.72973e-09
4.8165e-09
1.38629e-08
4.15481e-08
7.32265e-08
2.07269e-08
1.72668e-14
2.44712e-14
9.07781e-14
3.43453e-13
1.10677e-12
3.18412e-12
8.6425e-12
2.32444e-11
5.98599e-11
1.50587e-10
3.57868e-10
7.91329e-10
1.60606e-09
2.99622e-09
5.00244e-09
1.3797e-08
3.29622e-08
2.13487e-08
1.43541e-08
4.0166e-15
1.65994e-14
7.87468e-14
3.09617e-13
9.95096e-13
3.01155e-12
8.69421e-12
2.36875e-11
6.19225e-11
1.57954e-10
3.78958e-10
8.37534e-10
1.71817e-09
3.09094e-09
5.33793e-09
1.29335e-08
1.67151e-08
1.66414e-08
4.75104e-09
2.36789e-15
1.57837e-14
7.50607e-14
2.84343e-13
9.60161e-13
2.97745e-12
8.62034e-12
2.42806e-11
6.43071e-11
1.6381e-10
3.92818e-10
8.60655e-10
1.73077e-09
3.09568e-09
5.28627e-09
9.93661e-09
1.16596e-08
5.1071e-09
4.20435e-09
2.1587e-15
1.51007e-14
6.92254e-14
2.72547e-13
9.18912e-13
2.91951e-12
8.59319e-12
2.36906e-11
6.36905e-11
1.61361e-10
3.84586e-10
8.31784e-10
1.65656e-09
2.91982e-09
4.53133e-09
7.30661e-09
5.34162e-09
4.6376e-09
1.58694e-09
2.15649e-15
1.43152e-14
6.46669e-14
2.55507e-13
8.58994e-13
2.73686e-12
8.03792e-12
2.21883e-11
5.85117e-11
1.47457e-10
3.47065e-10
7.41202e-10
1.44347e-09
2.52818e-09
3.62911e-09
5.22081e-09
4.05184e-09
1.50329e-09
1.12473e-09
2.21751e-15
1.35075e-14
5.88699e-14
2.24788e-13
7.52424e-13
2.34773e-12
6.8567e-12
1.87357e-11
4.89669e-11
1.22343e-10
2.85575e-10
6.02591e-10
1.15748e-09
1.92093e-09
2.75132e-09
2.94684e-09
1.88159e-09
1.00916e-09
4.05056e-10
2.18722e-15
1.15626e-14
4.85377e-14
1.75318e-13
5.79216e-13
1.76451e-12
5.06501e-12
1.37902e-11
3.5783e-11
8.85954e-11
2.05787e-10
4.29248e-10
8.07921e-10
1.33725e-09
1.67855e-09
1.8767e-09
1.12423e-09
3.43999e-10
2.59603e-10
1.89503e-15
8.7584e-15
3.3264e-14
1.1074e-13
3.50667e-13
1.02725e-12
2.94643e-12
8.16147e-12
2.1157e-11
5.33304e-11
1.2521e-10
2.63615e-10
4.91094e-10
8.12187e-10
1.00334e-09
1.02939e-09
4.73805e-10
1.90016e-10
1.45436e-10
1.2579e-15
4.9235e-15
1.67206e-14
5.22252e-14
1.59617e-13
4.77112e-13
1.36987e-12
3.83028e-12
1.03534e-11
2.65373e-11
6.3145e-11
1.33281e-10
2.45932e-10
4.12411e-10
5.38905e-10
4.98492e-10
2.05103e-10
9.21357e-11
6.33345e-11
4.62199e-16
1.45271e-15
4.35511e-15
1.25068e-14
4.00554e-14
1.29331e-13
3.92786e-13
1.11226e-12
3.00081e-12
7.78473e-12
1.86431e-11
4.03172e-11
7.49143e-11
1.22439e-10
1.60449e-10
1.40942e-10
6.4363e-11
2.54026e-11
8.91337e-12
)
;

boundaryField
{
    leftWall
    {
        type            alphaContactAngle;
        contactAngleProperties 
        {
            mercury         
            {
                theta0          90;
            }
            air             
            {
                theta0          90;
            }
            water           
            {
                theta0          90;
            }
        }
        value           nonuniform List<scalar> 
50
(
1.38797e-14
9.86669e-15
2.73393e-14
1.66398e-13
7.48899e-13
1.06979e-11
6.04257e-10
2.71686e-09
3.92517e-09
4.33139e-09
2.11704e-09
-2.0688e-14
0.0386649
0.507758
0.863493
0.651667
0.0652261
2.95405e-06
2.40502e-06
1.9187e-06
8.06395e-07
6.21451e-07
3.68862e-07
2.47518e-07
1.26916e-07
8.4689e-08
6.19411e-08
5.0795e-08
4.62926e-08
3.57684e-08
2.90525e-08
2.20138e-08
1.5601e-08
1.09461e-08
7.053e-09
4.4357e-09
2.61962e-09
1.47826e-09
7.26747e-10
3.13915e-10
1.23435e-10
3.78033e-11
9.59502e-12
2.56136e-12
5.06198e-13
7.56145e-14
7.25419e-15
4.1857e-16
5.18635e-18
1.37547e-23
)
;
    }
    rightWall
    {
        type            alphaContactAngle;
        contactAngleProperties 
        {
            mercury         
            {
                theta0          90;
            }
            air             
            {
                theta0          90;
            }
            water           
            {
                theta0          90;
            }
        }
        value           nonuniform List<scalar> 
50
(
0.220452
0.220664
0.33994
0.471396
0.470941
0.43996
0.430067
0.385256
0.293506
0.0431654
0.24233
0.87888
0.982738
0.997839
0.633949
1.26621e-08
1.52651e-08
4.94119e-07
5.81756e-07
5.83536e-07
5.84985e-07
5.01991e-07
9.3697e-08
1.38429e-08
1.38534e-08
1.38449e-08
1.43773e-08
1.46711e-08
1.90086e-08
2.38084e-08
3.65461e-08
4.49656e-08
6.61067e-08
7.65068e-08
8.58082e-08
6.21009e-08
5.66199e-08
4.66023e-08
3.93911e-08
2.07269e-08
1.43541e-08
4.75104e-09
4.20435e-09
1.58694e-09
1.12473e-09
4.05056e-10
2.59603e-10
1.45436e-10
6.33345e-11
8.91337e-12
)
;
    }
    lowerWall
    {
        type            alphaContactAngle;
        contactAngleProperties 
        {
            mercury         
            {
                theta0          90;
            }
            air             
            {
                theta0          90;
            }
            water           
            {
                theta0          90;
            }
        }
        value           nonuniform List<scalar> 
62
(
1.38797e-14
1.08485e-13
6.04451e-13
2.22931e-12
6.05901e-12
1.4516e-11
3.13642e-11
6.17337e-11
1.16343e-10
2.42175e-10
4.49383e-10
8.23835e-10
1.58056e-09
2.92189e-09
5.62128e-09
1.03411e-08
1.67102e-08
1.70049e-08
1.72074e-08
0.000126978
0.000419068
0.000567145
0.000567145
0.000567145
0.000280892
5.8894e-08
8.75102e-09
4.77421e-08
4.82769e-05
4.85665e-05
2.62593e-05
9.32556e-07
0.0246877
0.1697
0.267311
0.116689
0.404563
0.404026
0.126957
0.00375831
0.0165
0.042366
0.0450826
0.116689
0.113722
0.0909126
0.0483786
0.0321683
0.0308575
0.0308416
0.201059
0.29664
0.316164
0.314896
0.32797
0.327966
0.270873
0.0869746
0.0828693
0.141542
0.226089
0.220452
)
;
    }
    atmosphere
    {
        type            inletOutlet;
        inletValue      uniform 0;
        value           nonuniform List<scalar> 
46
(
0
0
1.09509e-18
1.62964e-18
1.34484e-18
9.35115e-19
8.2649e-19
7.16671e-19
6.55634e-19
4.81732e-19
3.08153e-19
1.92263e-19
1.34105e-19
1.01869e-19
8.0312e-20
5.95598e-20
3.96642e-20
2.1897e-20
1.14767e-20
1.14342e-20
3.5258e-20
0
0
0
0
0
0
0
0
0
0
0
0
0
0
0
0
0
0
0
0
0
0
0
0
0
)
;
    }
    defaultFaces
    {
        type            empty;
    }
}


// ************************************************************************* //
