/*--------------------------------*- C++ -*----------------------------------*\
  =========                 |
  \\      /  F ield         | OpenFOAM: The Open Source CFD Toolbox
   \\    /   O peration     | Website:  https://openfoam.org
    \\  /    A nd           | Version:  13
     \\/     M anipulation  |
\*---------------------------------------------------------------------------*/
FoamFile
{
    format      ascii;
    class       volScalarField;
    location    "2.25";
    object      alphas;
}
// * * * * * * * * * * * * * * * * * * * * * * * * * * * * * * * * * * * * * //

dimensions      [];

internalField   nonuniform List<scalar> 
2268
(
2
2
2
2
2
2
2
2
2
2
2
2
2
2
2
2
2
2
2
1.99987
1.99958
1.99943
1.99943
2
2
2
2
2
2
2
2
2
2
2
2
2
2
2
2
2
2
2
2
2
1.99995
1.99972
2
2
2
2
2
2
2
2
2
2
2
2
2
2
2
2
2
2
2
2
2
2
2
2
2
2
2
2
2
2
2
2
2
2
2
2
2
2
2
2
2
2
2
2
2
2
2
2
2
2
2
2
2
2
2
2
2
2
2
2
2
2
2
2
2
2
2
2
2
2
2
2
2
2
2
2
2
2
2
2
2
1.98625
1.9009
1.79091
1.66456
1.54326
1.44128
1.36026
1.29984
1.26404
1.27247
1.31893
1.5621
1.61656
1.7001
1.75476
1.7776
1.78196
1.77248
1.73566
1.642
1.46819
1.22481
0.941715
0.661799
0.45582
0.300009
0.199396
0.134596
0.0924193
0.0660094
0.050667
0.0441745
0.0479532
0.0609399
0.149278
0.189754
0.264968
0.332909
0.378528
0.382665
0.335808
0.254196
0.163044
0.082523
0.025422
0.00136876
2.50114e-07
2.77551e-07
3.34954e-07
7.44864e-07
1.70473e-06
3.55311e-05
9.9632e-05
0.00016908
0.00032405
0.000590485
0.00156887
1.8622
1.86514
1.86114
1.85563
1.8648
1.88516
1.94519
1.81933
1.76634
1.72736
1.72732
1.71581
1.74114
1.74132
1.74263
1.70839
1.68651
1.77104
1.76537
1.49839
1.50302
1.5209
1.50661
1.45732
1.41948
1.42496
1.5783
1.72923
1.77367
1.92341
1.93517
1.84568
1.84348
1.81527
1.73133
1.70493
1.77193
1.76558
0.778888
0.654759
0.75475
0.897888
1.01953
0.943579
0.604337
0.553881
0.708191
1.08216
1.78671
2.22642
2.00652
1.91342
2.00882
1.98229
1.84924
1.76773
1.66816
0.527504
0.404466
0.355328
0.440389
0.759031
0.936479
0.743168
0.340597
0.0425178
0.0390501
0.709952
2.28176
2.3934
2.24796
2.23134
2.23644
1.92483
1.64536
1.54275
0.260135
0.295404
0.316851
0.330199
0.720725
0.944523
0.963463
0.813959
0.173978
0.00813297
0.169138
1.77205
2.31436
2.3878
2.38298
2.29034
2.22306
1.92938
1.81655
0.241415
0.241316
0.236029
0.218866
0.868577
1.11261
1.14353
0.564397
0.145787
0.00862324
0.000899194
1.17827
2.0111
2.23686
2.26324
1.98819
1.74154
1.80681
1.84013
0.259771
0.275798
0.248142
0.286355
1.12801
1.2315
0.658104
0.0549745
0.00868682
0.00319
0.000569037
0.127155
1.58894
1.96928
1.77814
0.659555
0.283379
0.416427
1.15343
0.258217
0.275094
0.255755
0.566975
1.35373
1.11407
0.289059
0.0013837
0.00115841
0.000607891
0.00043115
0.010373
0.181694
0.5809
0.4659
0.0984759
8.8687e-05
0.000991303
0.386167
2.21277e-08
7.30474e-08
6.27638e-07
8.28834e-06
1.45677e-06
2.07309e-07
1.79688e-08
1.69389e-08
8.11777e-09
9.59081e-08
1.36224e-07
3.24473e-08
2.81253e-08
4.73187e-08
1.01693e-07
2.58475e-07
8.14626e-07
5.14963e-06
1.87041e-06
1.85307e-06
2.29431e-06
3.18978e-06
2.19297e-05
2.20275e-08
1.60863e-07
-1.45362e-08
-4.37114e-08
1.19649e-08
5.33142e-07
1.10942e-08
1.36721e-08
1.64533e-08
1.83729e-08
2.28113e-08
2.25074e-08
2.33068e-08
2.46777e-08
2.79827e-08
3.53474e-08
6.41608e-08
1.56033e-07
2.24537e-07
0.0344372
0.0509999
0.102308
0.0479962
4.78955e-07
8.57443e-07
0.00218685
0.00222665
0.000516414
2.31692e-06
1.03267e-07
6.38002e-08
2.53635e-08
3.57539e-09
2.52221e-09
1.83004e-09
1.52485e-09
4.29384e-07
0.0123489
0.0504214
0.0798098
0.163023
0.37545
0.452589
0.66358
0.652932
0.799633
0.0280373
0.0452259
0.0241877
0.00599592
0.00265357
0.000967827
0.004376
0.0258152
0.0309156
0.0497784
0.0802164
0.126164
0.234439
0.404541
0.541382
0.685295
0.859754
1.03157
1.16718
1.14738
1.04851
1.1447
1.29013
0.49515
0.426426
0.391281
0.452557
0.468508
0.431785
0.405973
0.603406
0.71205
0.811912
0.908492
1.02008
1.17456
1.30605
1.27882
1.2466
1.3168
1.18793
1.01055
1.00791
1.01282
1.13665
1.16351
1.04401
0.996949
0.99058
0.994998
0.994843
0.986937
1.12973
1.22823
1.17954
1.15415
1.19583
1.23311
1.1492
1.03769
1.02885
1.04888
1.05592
1.01704
1.00006
1.00066
1.00602
1.0085
1.00064
1.27301
1.09167
1.00297
1.00136
1.00114
1.00175
1.00081
1.0001
1.00002
1
1
1
1
1
1
1
1
1
1.00006
1.00019
1.00013
1
1
1.69666
2.05959
2.2242
2.01041
1.67197
1.33229
1.12012
1.04349
1.01568
1
1
1
1
1
1
1
1
1
1
1
1
1
1
2.86955
2.99534
2.99985
2.99533
2.95572
2.87341
2.73377
2.50312
2.10821
1.62527
1.32243
1.24302
1.21361
1.18088
1.14045
1.11375
1.10405
1.10204
1.12383
1.13862
1.13906
1.14176
1.15112
2.99999
2.99999
2.99998
2.99996
2.99998
3
3
3
3
3
2.99798
2.92687
2.82696
2.68788
2.57445
2.52945
2.51828
2.53164
2.62424
2.67802
2.69568
2.7731
2.94627
3
3
2.99999
2.99985
2.99984
2.99995
3
3
3
3
3
3
3
3
3
3
3
3
3
3
3
3
3
3
2.99999
2.99999
2.99985
2.99983
2.99993
3
3
3
3
3
3
3
3
3
3
3
3
3
3
3
3
3
3
2.99999
2.99999
2.99999
2.99998
2.99999
3
2.99998
2.99989
2.99975
2.9999
3
3
3
3
3
3
3
3
3
3
3
3
3
3
3
3
3
3
3
2.99998
2.99967
2.99967
2.99967
2.99979
2.99999
3
3
3
3
3
3
3
3
3
3
3
3
3
3
3
3
3
3
2.99973
2.99967
2.99967
2.99976
2.99999
2.99999
2.99999
2.99999
3
3
3
3
3
3
3
3
3
3
3
3
3
3
3
2.99996
2.9998
2.99979
2.99994
2.99999
2.99999
2.99999
2.99999
2.99999
3
3
3
3
3
3
3
3
3
3
3
3
3
3
3
3
3
3
2.99999
2.99999
2.99999
3
3
3
3
3
3
3
3
3
3
3
3
3
3
3
3
3
3
3
3
3
3
3
3
3
3
3
3
3
3
3
3
3
3
3
3
3
3
3
3
3
3
3
3
3
3
3
3
3
3
3
3
3
3
3
3
3
3
3
3
3
3
3
3
3
3
3
3
3
3
3
3
3
3
3
3
3
3
3
3
3
3
3
3
3
3
3
3
3
3
3
3
3
3
3
3
3
3
3
3
3
3
3
3
3
3
3
3
3
3
3
3
3
3
3
3
3
3
3
3
3
3
3
3
3
3
3
3
3
3
3
3
3
3
3
3
3
3
3
3
3
3
3
3
3
3
3
3
3
3
3
3
3
3
3
3
3
3
3
3
3
3
3
3
3
3
3
3
3
3
3
3
3
3
3
3
3
3
3
3
3
3
3
3
3
3
3
3
3
3
3
3
3
3
3
3
3
3
3
3
3
3
3
3
3
3
3
3
3
3
3
3
3
3
3
3
3
3
3
3
3
3
3
3
3
3
3
3
3
3
3
3
3
3
3
3
3
3
3
3
3
3
3
3
3
3
3
3
3
3
3
3
3
3
3
3
3
3
3
3
3
3
3
3
3
3
3
3
3
3
3
3
3
3
3
3
3
3
3
3
3
3
3
3
3
3
3
3
3
3
3
3
3
3
3
3
3
3
3
3
3
3
3
3
3
3
3
3
3
3
3
3
3
3
3
3
3
3
3
3
3
3
3
3
3
3
3
3
3
3
3
3
3
3
3
3
3
3
3
3
3
3
3
3
3
3
3
3
3
3
3
3
3
3
3
3
3
3
3
3
3
3
3
3
3
3
3
3
3
3
3
3
3
3
3
3
3
3
3
3
3
3
3
3
3
3
3
3
3
3
3
3
3
3
3
3
3
3
3
3
3
3
3
3
3
3
3
3
3
3
3
3
3
3
3
3
3
3
3
3
3
3
3
3
3
3
3
3
3
3
3
3
3
3
3
3
3
3
3
3
3
3
3
3
3
3
3
3
3
3
3
3
3
3
3
3
3
3
3
3
3
3
3
3
3
3
3
3
3
3
3
3
3
3
3
3
3
3
3
3
3
3
3
3
3
3
3
3
3
3
3
3
3
3
3
3
3
3
3
3
3
3
3
3
3
3
3
3
3
3
3
3
3
3
3
3
3
3
3
3
3
3
3
3
3
3
3
3
3
3
3
3
3
3
3
3
3
3
3
3
3
3
3
3
3
3
3
3
3
3
3
3
3
3
3
3
3
3
3
3
3
3
3
3
3
3
3
3
3
3
3
3
3
3
3
3
3
3
3
3
3
3
3
0.0136527
0.144691
0.337429
0.54902
0.206804
1.06068
1.28754
0.984508
1.26499
1.36199
1.28034
1.10576
1.28622
1.06612
1.08616
1.10276
1.00847
0.999286
1.00013
1.00007
0.999991
1.00001
1.00001
1.00001
1
1.00001
0.999996
0.999982
0.999997
0.999995
0.999996
0.999999
1.15262
1.21336
1.31255
1.42686
2.99338
2.9917
3
3
3
3
3
3
3
3
3
3
3
3
3
3
3
3
3
3
3
3
3
3
3
3
3
3
3
3
3
3
3
3
3
3
3
3
3
3
3
3
3
3
3
3
3
3
3
3
3
3
3
3
3
3
3
3
3
3
3
3
3
3
3
3
3
3
3
3
3
3
3
3
3
3
3
3
3
3
3
3
3
3
3
3
3
3
3
3
3
3
3
3
3
3
3
3
3
3
3
3
3
3
3
3
3
3
3
3
3
3
3
3
3
3
3
3
3
3
3
3
3
3
3
3
3
3
3
3
3
3
0.556457
0.292819
0.404495
0.829253
1.35597
0.815058
0.186785
0.0171429
0.0113219
0.00407179
0.00217773
0.00072705
0.000524454
0.00359525
0.00513525
0.000173521
0.000247227
0.000815114
0.294668
0.640156
0.595046
0.87875
1.28793
1.20098
0.783918
0.678033
0.475415
0.355602
0.2245
0.134336
0.0703058
0.0309553
0.00691157
0.00107608
0.00189778
0.00213869
0.0305621
0.0919625
1.19856
1.07677
1.01108
1.04766
1.20752
1.2733
1.20183
0.998127
0.991767
0.965998
0.910424
0.836074
0.767416
0.710527
0.619476
0.511548
0.386876
0.45065
0.457483
1.02526
1.00092
1.00053
1.05021
1.12419
1.06217
1.00131
1.00001
1.00004
1.00003
1
1.00003
1.00018
1.00047
1.00059
0.99802
1.00182
1.07213
1.09466
1.00014
1.00091
1.00179
1.00412
1
1
1
1.00001
1.00002
1
1
1
1.00019
1.00047
1.00047
1.00033
1.0003
1.00168
1.02951
1.00001
1.00004
1.00008
1
1
1
1
1
1
1
1
1
1
1
1
0.999991
0.999183
0.998449
0.997921
0.999995
1
1
1
1
1
1
1
1
1
0.999999
0.999998
1.01393
1.06908
1.15017
1.26261
1.40795
1.56585
1.71798
0.999999
1
1
1
1.01068
1.08198
1.16724
1.26418
1.36446
1.4648
1.59343
1.84
2.20125
2.47832
2.64077
2.77744
2.89586
2.96623
2.99094
1.59206
1.7951
1.98205
2.15957
2.34442
2.49024
2.6218
2.73498
2.83095
2.91686
2.98006
2.99458
2.98684
2.98616
2.99521
3
3
3
2.99996
3
2.99511
2.99355
2.99977
2.99999
2.99998
2.99994
2.99983
2.99924
2.9984
2.99841
2.99901
2.99945
2.99968
2.99997
3
3
3
3
3
3
3
3
2.99998
2.99996
2.99991
2.99988
2.99985
2.99984
2.99931
2.99793
2.99794
2.9991
3
3
3
3
3
3
3
3
3
2.99998
2.99864
2.99804
2.99828
2.99985
2.99993
2.99953
2.99813
2.99825
2.99973
3
3
3
3
3
3
3
3
3
3
2.99892
2.99804
2.99804
2.99844
3
3
3
3
3
3
3
3
3
3
3
3
3
3
3
2.99999
2.99985
2.99963
2.99972
2.99997
3
3
3
3
3
3
3
3
3
3
3
3
3
3
3
3
3
3
3
3
3
3
3
3
3
3
3
3
3
3
3
3
3
3
3
3
3
3
3
3
3
3
3
3
3
3
3
3
3
3
3
3
3
3
3
3
3
3
3
3
3
3
3
3
3
3
3
3
3
3
3
3
3
3
3
3
3
3
3
3
3
3
3
3
3
3
3
3
3
3
3
3
3
3
3
3
3
3
3
3
3
3
3
3
3
3
3
3
3
3
3
3
3
3
3
3
3
3
3
3
3
3
3
3
3
3
3
3
3
3
3
3
3
3
3
3
3
3
3
3
3
3
3
3
3
3
3
3
3
3
3
3
3
3
3
3
3
3
3
3
3
3
3
3
3
3
3
3
3
3
3
3
3
3
3
3
3
3
3
3
3
3
3
3
3
3
3
3
3
3
3
3
3
3
3
3
3
3
3
3
3
3
3
3
3
3
3
3
3
3
3
3
3
3
3
3
3
3
3
3
3
3
3
3
3
3
3
3
3
3
3
3
3
3
3
3
3
3
3
3
3
3
3
3
3
3
3
3
3
3
3
3
3
3
3
3
3
3
3
3
3
3
3
3
3
3
3
3
3
3
3
3
3
3
3
3
3
3
3
3
3
3
3
3
3
3
3
3
3
3
3
3
3
3
3
3
3
3
3
3
3
3
3
3
3
3
3
3
3
3
3
3
3
3
3
3
3
3
3
3
3
3
3
3
3
3
3
3
3
3
3
3
3
3
3
3
3
3
3
3
3
3
3
3
3
3
3
3
3
3
3
3
3
3
3
3
3
3
3
3
3
3
3
3
3
3
3
3
3
3
3
3
3
3
3
3
3
3
3
3
3
3
3
3
3
3
3
3
3
3
3
3
3
3
3
3
3
3
3
3
3
3
3
3
3
3
3
3
3
3
3
3
3
3
3
3
3
3
3
3
3
3
3
3
3
3
3
3
3
3
3
3
3
3
3
3
3
3
3
3
3
3
3
3
3
3
3
3
3
3
3
3
3
3
3
3
3
3
3
3
3
3
3
3
3
3
3
3
3
3
3
3
3
3
3
3
3
3
3
3
3
3
3
3
3
3
3
3
3
3
3
3
3
3
3
3
3
3
3
3
3
3
3
3
3
3
3
3
3
3
3
3
3
3
3
3
3
3
3
3
3
3
3
3
3
3
3
3
3
3
3
3
3
3
3
3
3
3
3
3
3
)
;

boundaryField
{
    leftWall
    {
        type            calculated;
        value           nonuniform List<scalar> 
50
(
2
2
2
2
2
2
1.5621
0.149278
2.21277e-08
2.20275e-08
4.78955e-07
0.0280373
0.49515
1.04401
1.27301
1.69666
2.86955
2.99999
3
3
3
3
3
3
3
3
3
3
3
3
3
3
3
3
3
3
3
3
3
3
3
3
3
3
3
3
3
3
3
3
)
;
    }
    rightWall
    {
        type            calculated;
        value           nonuniform List<scalar> 
50
(
1.76537
1.76558
1.66816
1.54275
1.81655
1.84013
1.15343
0.386167
0.294668
0.0919625
0.457483
1.09466
1.02951
0.997921
1.71798
2.99094
2.99996
3
3
3
3
3
3
3
3
3
3
3
3
3
3
3
3
3
3
3
3
3
3
3
3
3
3
3
3
3
3
3
3
3
)
;
    }
    lowerWall
    {
        type            calculated;
        value           nonuniform List<scalar> 
62
(
2
2
2
2
2
2
2
2
2
2
2
2
2
2
2
2
2
2
2
1.99987
1.99958
1.99943
1.99943
1.99943
1.99972
2
2
2
1.31893
0.0609399
0.00156887
0.0136527
0.144691
0.337429
0.54902
1.8622
1.49839
0.778888
0.527504
0.260135
0.241415
0.259771
0.258217
1.8622
1.86514
1.86114
1.85563
1.8648
1.88516
1.94519
1.81933
1.76634
1.72736
1.72732
1.71581
1.74114
1.74132
1.74263
1.70839
1.68651
1.77104
1.76537
)
;
    }
    atmosphere
    {
        type            calculated;
        value           nonuniform List<scalar> 
46
(
3
3
3
3
3
3
3
3
3
3
3
3
3
3
3
3
3
3
3
3
3
3
3
3
3
3
3
3
3
3
3
3
3
3
3
3
3
3
3
3
3
3
3
3
3
3
)
;
    }
    defaultFaces
    {
        type            empty;
    }
}


// ************************************************************************* //
