/*--------------------------------*- C++ -*----------------------------------*\
  =========                 |
  \\      /  F ield         | OpenFOAM: The Open Source CFD Toolbox
   \\    /   O peration     | Website:  https://openfoam.org
    \\  /    A nd           | Version:  13
     \\/     M anipulation  |
\*---------------------------------------------------------------------------*/
FoamFile
{
    format      ascii;
    class       volScalarField;
    location    "2.25";
    object      alpha.water;
}
// * * * * * * * * * * * * * * * * * * * * * * * * * * * * * * * * * * * * * //

dimensions      [];

internalField   nonuniform List<scalar> 
2268
(
8.52807e-11
9.76574e-11
1.10362e-10
1.16811e-10
1.22941e-10
1.29317e-10
1.35161e-10
1.40387e-10
1.47921e-10
1.66311e-10
1.89475e-10
2.16675e-10
2.574e-10
3.15802e-10
3.94318e-10
4.91209e-10
6.28624e-10
8.85499e-10
1.42853e-09
2.19455e-09
2.68777e-09
2.77882e-09
2.77882e-09
2.12132e-10
2.58807e-10
2.37819e-10
2.38141e-10
2.58733e-10
2.95008e-10
3.37368e-10
3.90024e-10
4.31548e-10
4.77327e-10
5.20308e-10
5.78179e-10
6.17044e-10
6.37568e-10
6.5361e-10
7.26189e-10
8.45486e-10
1.09762e-09
1.42571e-09
1.863e-09
2.35693e-09
2.5532e-09
2.4568e-09
3.20278e-10
4.05066e-10
3.47919e-10
3.21574e-10
3.55721e-10
4.16712e-10
5.07442e-10
6.20331e-10
7.52332e-10
8.90733e-10
1.02677e-09
1.12307e-09
1.13227e-09
1.00654e-09
8.78341e-10
7.89459e-10
1.24078e-09
1.49662e-09
1.63591e-09
1.91759e-09
2.22829e-09
2.65126e-09
1.39316e-09
3.18292e-10
5.85775e-10
4.17926e-10
3.06665e-10
3.84735e-10
3.86391e-10
4.49619e-10
5.69007e-10
7.85111e-10
1.07049e-09
1.30463e-09
1.43188e-09
1.38745e-09
9.02781e-10
7.70292e-10
6.09502e-10
6.01427e-10
6.16301e-10
6.16133e-10
6.41301e-10
6.35737e-10
1.27665e-09
1.23266e-09
2.79507e-10
4.54178e-10
2.5631e-10
2.29244e-10
3.99326e-10
3.3433e-10
3.16865e-10
7.55761e-10
5.5966e-10
3.34375e-10
3.52156e-10
1.03967e-10
8.11402e-11
1.43383e-11
-4.78214e-27
-4.89825e-12
7.62128e-23
-7.62098e-23
4.91033e-13
1.55096e-27
4.02096e-12
0
-6.72902e-12
1.57812e-10
-1.37407e-12
1.58235e-10
-2.97729e-13
1.55895e-10
-4.72561e-13
1.56208e-10
-1.56327e-13
1.04027e-11
1.23025e-11
1.09623e-11
5.53768e-11
0.00687347
0.0495483
0.104545
0.167722
0.22837
0.279358
0.319872
0.350122
0.368113
0.364021
0.34084
0.218949
0.19172
0.149952
0.122622
0.1112
0.109019
0.11376
0.132168
0.179002
0.265903
0.387594
0.529142
0.6691
0.77209
0.849996
0.900302
0.932702
0.953791
0.967017
0.974767
0.978206
0.976614
0.970122
0.925361
0.905123
0.867516
0.833546
0.810736
0.808668
0.832096
0.872902
0.918478
0.958739
0.987289
0.999316
1
1
1
1
0.999999
0.999988
0.999967
0.999943
0.999884
0.999794
0.99946
0.0107279
0.0107401
0.0264834
0.0566781
0.0644307
0.0585277
0.04094
0.0229869
0.00136414
0.00127395
0.000665318
0.000701315
0.00111879
0.039119
0.124756
0.124793
0.0929723
0.00843632
0.0140884
0.0507348
0.0563991
0.0547725
0.0533858
0.0974631
0.219486
0.272492
0.196422
0.108166
0.0958257
0.0425991
0.00306583
0.00122735
0.0248568
0.0990804
0.124756
0.0832817
0.00755452
0.0138698
0.416766
0.520774
0.408597
0.273815
0.199218
0.239657
0.580532
0.705459
0.645922
0.459228
0.176402
0.0086513
0.00373905
0.00304681
0.0213786
0.0401475
0.0169042
0.00648959
0.00293562
0.680516
0.803591
0.819167
0.752836
0.393494
0.172811
0.298007
0.680239
0.973131
0.980279
0.736699
0.134433
0.00134281
0.0010511
0.00101505
0.00101503
0.00101504
0.00101514
0.00102205
0.875783
0.85813
0.847389
0.840819
0.421244
0.169319
0.164682
0.289414
0.869345
0.995851
0.943481
0.38794
0.0388753
0.00101506
0.00101504
0.00101505
0.00101503
0.00101505
0.00101503
0.884323
0.884323
0.884323
0.86458
0.266792
0.099491
0.103775
0.602843
0.923706
0.995688
0.99958
0.5638
0.14504
0.0244251
0.00417607
0.0874257
0.173114
0.166441
0.0786216
0.884323
0.884323
0.884323
0.769909
0.104737
0.0973076
0.659417
0.976632
0.995826
0.998541
0.999741
0.91445
0.284493
0.144461
0.203926
0.579992
0.773883
0.85087
0.328812
0.880798
0.884323
0.884323
0.650741
0.0387246
0.299112
0.902958
0.999537
0.999612
0.999785
0.999795
0.989792
0.873489
0.652192
0.683308
0.901535
0.999924
0.99952
0.61444
1
1
1
0.999997
1
1
1
1
1
1
1
1
1
1
1
1
1
0.999998
0.999999
0.999999
0.999999
0.999999
0.999992
1
1
1
1
1
1
1
1
1
1
1
1
1
1
1
1
1
1
1
0.988521
0.983
0.965897
0.984001
1
1
0.999271
0.999258
0.999828
0.999998
1
1
1
1
1
1
1
1
0.995884
0.983193
0.973397
0.945659
0.87485
0.833781
0.618763
0.44947
0.351893
0.990654
0.984925
0.991937
0.997332
0.998071
0.999084
0.998541
0.991395
0.989695
0.983407
0.973261
0.957783
0.920575
0.856585
0.773191
0.635326
0.473667
0.305551
0.169958
0.0876039
0.0238891
0.000983871
0.00415278
0.809173
0.730887
0.60891
0.547585
0.531592
0.568219
0.684497
0.713541
0.681758
0.59171
0.495792
0.384313
0.229716
0.0977084
0.0351188
0.0146787
0.00432532
-4.29057e-19
6.30182e-20
7.1137e-20
3.12091e-20
2.31896e-12
1.11676e-06
0.313492
0.0727771
0.0122363
0.00844755
0.00529944
0.015878
0.0445991
0.0565321
0.0366046
0.00314778
-9.53691e-11
7.86923e-25
1.58471e-20
5.39156e-19
7.06587e-18
2.7669e-17
6.95927e-12
8.86655e-13
3.3975e-11
1.46856e-07
2.26257e-06
3.81467e-06
1.02979e-05
4.54316e-07
0.00507841
0.000385644
0.000134206
7.7868e-05
4.51669e-15
3.1719e-24
-2.09154e-15
3.07957e-16
4.50462e-11
1.44062e-09
4.01106e-11
4.9046e-10
2.05159e-09
3.68312e-09
3.78157e-09
3.84127e-09
3.92361e-09
1.5614e-08
2.87919e-07
5.18301e-07
4.69529e-07
3.994e-07
3.92789e-07
4.45191e-07
5.71287e-05
2.18719e-05
8.77705e-09
1.83592e-06
1.0871e-06
-8.26458e-17
6.98902e-08
1.03768e-07
3.60851e-08
5.10741e-09
3.67683e-09
2.09324e-08
4.38246e-08
5.44689e-08
5.62093e-08
1.09247e-07
3.23318e-07
3.62036e-07
3.32671e-07
2.43733e-07
2.9335e-07
1.15993e-07
6.4107e-06
4.7379e-05
1.35097e-05
7.35524e-09
7.24777e-09
8.25759e-09
1.34501e-07
2.49759e-07
2.52452e-07
2.49759e-07
5.91365e-08
4.01342e-10
2.15728e-10
7.81734e-08
1.97067e-07
1.99672e-07
1.97067e-07
1.11621e-07
7.12968e-08
1.79238e-07
4.29498e-07
5.12503e-07
5.45018e-08
1.97309e-06
5.61563e-06
1.02405e-05
5.97942e-06
1.24376e-07
7.77554e-09
1.85374e-08
8.31578e-08
2.0268e-07
2.46872e-07
1.41973e-07
2.15725e-10
9.80335e-10
5.9134e-08
1.72142e-07
1.92001e-07
1.23415e-07
7.69195e-09
3.5962e-09
6.81484e-09
3.08366e-08
2.90793e-08
2.26951e-08
2.68102e-09
5.10038e-07
3.76492e-06
7.90364e-06
1.86954e-06
8.87765e-09
1.00352e-08
2.60812e-08
6.64954e-08
1.32514e-07
1.07145e-07
5.60218e-08
1.49442e-08
1.49237e-08
2.31226e-08
2.8772e-08
2.45062e-08
1.27465e-08
4.91627e-09
3.74831e-10
2.26175e-10
5.8966e-10
1.2489e-09
-1.73708e-25
1.10379e-07
1.25447e-06
5.13271e-06
8.53194e-07
2.86958e-08
1.64224e-08
1.62476e-08
1.15958e-08
2.60321e-08
2.20128e-08
3.36458e-08
3.28474e-09
1.23877e-09
1.24358e-09
6.02417e-09
1.0585e-08
5.0372e-09
3.52511e-09
1.34971e-09
6.74709e-10
3.70724e-10
8.31873e-09
1.08833e-08
1.92147e-07
5.14372e-09
4.74541e-08
8.72137e-09
1.29328e-08
5.8456e-09
1.34925e-07
1.26489e-06
2.06303e-06
6.89147e-07
4.46975e-08
1.25422e-09
1.36387e-09
6.34114e-09
1.50455e-08
3.34222e-08
3.95928e-09
3.32673e-09
3.14956e-09
1.77564e-09
7.23809e-10
2.34851e-08
2.22559e-08
1.18915e-07
6.789e-09
3.16892e-10
3.38134e-10
2.96608e-10
2.09456e-10
8.19478e-08
1.30031e-06
3.17074e-06
3.17801e-06
2.14555e-06
2.16951e-07
1.13826e-07
1.86552e-07
2.15008e-07
1.1561e-07
6.88835e-09
6.30479e-09
5.50989e-09
3.80353e-09
2.42152e-09
2.33986e-08
1.58822e-08
5.72422e-09
6.0585e-09
2.14294e-09
7.69271e-10
2.35872e-10
2.10791e-10
2.08784e-10
7.54373e-07
2.62312e-06
3.18144e-06
3.18135e-06
2.33594e-06
1.66714e-06
1.89452e-06
1.24306e-06
1.80398e-07
5.84192e-08
1.86258e-08
1.13524e-08
8.10337e-09
6.58064e-09
2.12249e-08
1.08451e-08
7.57903e-09
6.41883e-09
2.32056e-09
7.10782e-10
2.52704e-10
2.08784e-10
2.1118e-10
7.20091e-08
7.34197e-07
3.07877e-06
3.18144e-06
3.18135e-06
3.18106e-06
3.11942e-06
1.96717e-06
2.90078e-07
8.6074e-08
2.53582e-08
2.54276e-08
2.55684e-08
2.08677e-08
1.74278e-08
7.37823e-09
6.53069e-09
5.39892e-09
2.2495e-09
7.49165e-10
4.33119e-10
3.498e-10
6.94261e-10
7.79226e-10
8.80559e-10
5.02429e-07
1.78779e-06
3.02648e-06
2.54935e-06
1.52875e-06
7.87752e-07
3.44567e-07
9.69505e-08
2.107e-08
2.60724e-08
2.6119e-08
2.35755e-08
1.55799e-08
4.93237e-09
4.62233e-09
3.93332e-09
2.48699e-09
1.37007e-09
9.34717e-10
9.25362e-10
1.25605e-09
1.02385e-09
9.47711e-10
4.44792e-08
6.61566e-07
9.33167e-07
6.81797e-07
3.41854e-07
1.67798e-07
1.42366e-07
8.26012e-08
2.09838e-08
2.22953e-08
2.08075e-08
1.83479e-08
1.54442e-08
3.6255e-09
3.2844e-09
3.05127e-09
2.31718e-09
1.80893e-09
1.40867e-09
1.32517e-09
1.50805e-09
1.80739e-09
1.29485e-09
2.37688e-08
9.17031e-08
8.37443e-08
6.81719e-08
5.89106e-08
5.51039e-08
4.99614e-08
3.82676e-08
1.8198e-08
1.49607e-08
1.43654e-08
1.28841e-08
1.77959e-08
3.16002e-09
2.6068e-09
2.6205e-09
2.18446e-09
1.77497e-09
1.45727e-09
1.23589e-09
1.3581e-09
1.7709e-09
2.48693e-09
5.51518e-09
1.29644e-09
1.29936e-09
8.29284e-09
1.70365e-08
2.12152e-08
2.15086e-08
1.80374e-08
1.05655e-08
8.81831e-09
8.39376e-09
7.81143e-09
1.79637e-08
3.16847e-09
2.28423e-09
2.38297e-09
2.0648e-09
1.7089e-09
1.40641e-09
1.12e-09
1.03414e-09
1.22849e-09
1.57044e-09
1.81584e-09
1.29272e-09
1.41578e-09
3.20923e-09
6.85115e-09
9.25662e-09
9.329e-09
7.7081e-09
5.56738e-09
4.68076e-09
4.3108e-09
4.15922e-09
1.79043e-08
3.53932e-09
2.11142e-09
2.20179e-09
1.91929e-09
1.59735e-09
1.3012e-09
1.04495e-09
8.08509e-10
7.60673e-10
7.87375e-10
8.08188e-10
7.83591e-10
9.09123e-10
1.62686e-09
2.79639e-09
3.92603e-09
3.85405e-09
3.42859e-09
2.6247e-09
2.06263e-09
1.87796e-09
1.87243e-09
1.78052e-08
4.65229e-09
2.05186e-09
2.04893e-09
1.75351e-09
1.43363e-09
1.17322e-09
9.23404e-10
7.1434e-10
5.55132e-10
4.45736e-10
3.90247e-10
3.81657e-10
4.83146e-10
7.7109e-10
1.12575e-09
1.51213e-09
1.50972e-09
1.24599e-09
9.84651e-10
7.86333e-10
7.12649e-10
7.24106e-10
1.7052e-08
6.5831e-09
2.15963e-09
1.93233e-09
1.5811e-09
1.24001e-09
9.99462e-10
7.85634e-10
6.10735e-10
4.54644e-10
3.34663e-10
2.50954e-10
2.10484e-10
2.37952e-10
3.07713e-10
3.9933e-10
5.09103e-10
5.0729e-10
4.16401e-10
3.22351e-10
2.55379e-10
2.34913e-10
2.43497e-10
1.57329e-08
7.07595e-09
2.67703e-09
1.85553e-09
1.39051e-09
1.02499e-09
7.83846e-10
6.20911e-10
4.90143e-10
3.72551e-10
2.72904e-10
1.92948e-10
1.38594e-10
1.14384e-10
1.1778e-10
1.29739e-10
1.52667e-10
1.37157e-10
1.1731e-10
9.25235e-11
7.50263e-11
6.93247e-11
7.22991e-11
1.43176e-08
6.78905e-09
3.16852e-09
1.77822e-09
1.20638e-09
8.23987e-10
5.95215e-10
4.47348e-10
3.48922e-10
2.75633e-10
2.09076e-10
1.51288e-10
1.02635e-10
6.99332e-11
5.29257e-11
4.55735e-11
4.22905e-11
3.79291e-11
3.15064e-11
2.56729e-11
2.1232e-11
2.01162e-11
2.04292e-11
1.22998e-08
6.30717e-09
3.12177e-09
1.65699e-09
1.02594e-09
6.46947e-10
4.23149e-10
3.04985e-10
2.29132e-10
1.80879e-10
1.39545e-10
1.04772e-10
7.32655e-11
4.81737e-11
3.11192e-11
2.09951e-11
1.49363e-11
1.14419e-11
9.28534e-12
7.75892e-12
6.83999e-12
6.20809e-12
6.00107e-12
1.05737e-08
5.60405e-09
2.87444e-09
1.47327e-09
8.42104e-10
4.95083e-10
2.93211e-10
1.97773e-10
1.39361e-10
1.05902e-10
8.13605e-11
6.23822e-11
4.54867e-11
3.09672e-11
1.96241e-11
1.19085e-11
7.18888e-12
4.65388e-12
3.32687e-12
2.68867e-12
2.31395e-12
2.07406e-12
1.89983e-12
8.62643e-09
4.63949e-09
2.43721e-09
1.22636e-09
6.59131e-10
3.55262e-10
1.96402e-10
1.1608e-10
7.81805e-11
5.60539e-11
4.19534e-11
3.20465e-11
2.37305e-11
1.67327e-11
1.11512e-11
6.61821e-12
3.70528e-12
2.04728e-12
1.3002e-12
9.73707e-13
8.05946e-13
6.66936e-13
5.89026e-13
6.83452e-09
3.58991e-09
1.83289e-09
9.1144e-10
4.65723e-10
2.39677e-10
1.20503e-10
6.55061e-11
4.04208e-11
2.66213e-11
1.92912e-11
1.43983e-11
1.06062e-11
7.60654e-12
5.11427e-12
3.10994e-12
1.67465e-12
9.09925e-13
4.8416e-13
3.36229e-13
2.53077e-13
2.05752e-13
1.7376e-13
4.73713e-09
2.41753e-09
1.23022e-09
6.00689e-10
2.96601e-10
1.45684e-10
6.72802e-11
3.43143e-11
1.91225e-11
1.16689e-11
7.99957e-12
5.73875e-12
4.15955e-12
2.91944e-12
1.97804e-12
1.25051e-12
6.72544e-13
3.27089e-13
1.72334e-13
1.04456e-13
7.63727e-14
5.63241e-14
4.56194e-14
2.9614e-09
1.49692e-09
7.32725e-10
3.4804e-10
1.60116e-10
7.3513e-11
3.42363e-11
1.61069e-11
8.22671e-12
4.63415e-12
2.97706e-12
2.04322e-12
1.43226e-12
9.8532e-13
6.66428e-13
4.16339e-13
2.23917e-13
1.04842e-13
5.05425e-14
2.86928e-14
1.93812e-14
1.4053e-14
1.07564e-14
1.65626e-09
7.52401e-10
3.57567e-10
1.6533e-10
7.44617e-11
3.39578e-11
1.51162e-11
6.6236e-12
3.01554e-12
1.59361e-12
9.65883e-13
6.42942e-13
4.23056e-13
2.84142e-13
1.88078e-13
1.16629e-13
5.89674e-14
2.79625e-14
1.2481e-14
6.64507e-15
4.46219e-15
3.02839e-15
2.14313e-15
7.24639e-10
3.4662e-10
1.55144e-10
6.80109e-11
2.95785e-11
1.2807e-11
5.42847e-12
2.25818e-12
9.84157e-13
4.93839e-13
2.84999e-13
1.64463e-13
1.06853e-13
7.09481e-14
4.56771e-14
2.7508e-14
1.31755e-14
5.7702e-15
2.61869e-15
1.39162e-15
8.50707e-16
5.55895e-16
3.7251e-16
2.63281e-10
1.19197e-10
4.97973e-11
2.08853e-11
8.90507e-12
3.75429e-12
1.55827e-12
6.31851e-13
2.66688e-13
1.27932e-13
6.84347e-14
4.13684e-14
2.44367e-14
1.56575e-14
9.62673e-15
5.35461e-15
2.58289e-15
1.04035e-15
4.65089e-16
2.42194e-16
1.49442e-16
9.21672e-17
5.54913e-17
8.93733e-11
3.62411e-11
1.44761e-11
5.93332e-12
2.4768e-12
1.02481e-12
4.16576e-13
1.67555e-13
6.83316e-14
2.84417e-14
1.45438e-14
8.37774e-15
5.34198e-15
3.26976e-15
1.90493e-15
9.90929e-16
4.20454e-16
1.67533e-16
7.54462e-17
3.92978e-17
2.26463e-17
1.2655e-17
6.9063e-18
2.25286e-11
8.46929e-12
3.34027e-12
1.3683e-12
5.63027e-13
2.29828e-13
9.2056e-14
3.66414e-14
1.45654e-14
6.05801e-15
3.0505e-15
1.70718e-15
1.01183e-15
5.87048e-16
3.25165e-16
1.58357e-16
6.2928e-17
2.44353e-17
1.0967e-17
5.60913e-18
2.99222e-18
1.43501e-18
6.93964e-19
4.33631e-12
1.55597e-12
6.23244e-13
2.61047e-13
1.08255e-13
4.42729e-14
1.7718e-14
6.94975e-15
2.73767e-15
1.14397e-15
5.63579e-16
3.02056e-16
1.70271e-16
9.53511e-17
4.92496e-17
2.18602e-17
8.54631e-18
3.32155e-18
1.49434e-18
7.14206e-19
3.25959e-19
1.39717e-19
6.43532e-20
5.29467e-13
2.14289e-13
9.18498e-14
4.09864e-14
1.77372e-14
7.4296e-15
3.01223e-15
1.17298e-15
4.59701e-16
1.83498e-16
8.78447e-17
4.73873e-17
2.62103e-17
1.40176e-17
6.73052e-18
2.86415e-18
1.10204e-18
4.24007e-19
1.84123e-19
8.13706e-20
3.29257e-20
1.19819e-20
2.77533e-21
3.77385e-14
1.74624e-14
1.03727e-14
5.42079e-15
2.55313e-15
1.12399e-15
4.60745e-16
1.80022e-16
7.0319e-17
2.85892e-17
1.20867e-17
6.63949e-18
3.72328e-18
1.8713e-18
8.80036e-19
3.61732e-19
1.38316e-19
4.96454e-20
2.06216e-20
7.73735e-21
2.64219e-21
6.62327e-22
5.21643e-23
5.72733e-16
8.34467e-16
7.35252e-16
5.08629e-16
2.75959e-16
1.23655e-16
5.78061e-17
2.32775e-17
9.43632e-18
3.99172e-18
1.78792e-18
9.10319e-19
4.98037e-19
2.43274e-19
1.09639e-19
4.30163e-20
1.64568e-20
6.38836e-21
2.38819e-21
7.69773e-22
2.10391e-22
1.58651e-23
4.09602e-25
7.21641e-21
1.58278e-17
4.98515e-17
4.89638e-17
2.99636e-17
1.45633e-17
6.82636e-18
2.64516e-18
1.15154e-18
5.07551e-19
2.35436e-19
1.1752e-19
6.20177e-20
3.00257e-20
1.27972e-20
4.9032e-21
1.9517e-21
7.87283e-22
2.75026e-22
8.02624e-23
9.55238e-24
3.775e-25
4.75448e-27
0.994802
0.918083
0.756127
0.620546
0.805527
0.189637
0.101152
0.397335
0.0969766
0.0112265
0.0929829
0.267713
0.000462317
0.00969393
0.0172093
0.0011898
0.000486651
0.000936432
8.05045e-08
3.51174e-09
2.72186e-05
9.61702e-07
1.29386e-05
2.07082e-05
3.34496e-07
1.03568e-06
1.15457e-05
1.9614e-05
2.87251e-06
4.96661e-06
4.42133e-06
1.04178e-06
1.25859e-06
2.68605e-06
5.65698e-07
2.86944e-09
1.70327e-09
1.78926e-09
1.70327e-09
3.38195e-09
4.66355e-09
8.99887e-09
1.3585e-08
1.7441e-08
5.05441e-10
9.86101e-10
1.13572e-09
6.36533e-10
3.87798e-10
3.80343e-10
3.4731e-10
2.98922e-10
1.32712e-09
8.18556e-10
6.88167e-10
6.22752e-10
4.15851e-09
2.82559e-09
2.02783e-09
2.0416e-09
1.46982e-08
8.46605e-09
7.43165e-09
5.93998e-09
1.9822e-08
1.35874e-08
1.31761e-08
1.02806e-08
1.76417e-08
1.35683e-08
1.18531e-08
1.03483e-08
1.23021e-08
1.0573e-08
9.44607e-09
8.52379e-09
7.35538e-09
6.9363e-09
6.17192e-09
5.64731e-09
4.14946e-09
3.87774e-09
3.62379e-09
3.41728e-09
1.93597e-09
1.92385e-09
1.89679e-09
1.80109e-09
8.01815e-10
8.2798e-10
8.25089e-10
8.22736e-10
2.71798e-10
3.01643e-10
3.15279e-10
3.03453e-10
8.16715e-11
8.59929e-11
9.02316e-11
8.9977e-11
2.24598e-11
2.37653e-11
2.40889e-11
2.25362e-11
6.18377e-12
5.92717e-12
5.81984e-12
5.55615e-12
1.88137e-12
1.7821e-12
1.6902e-12
1.49557e-12
5.71734e-13
5.23168e-13
4.71205e-13
4.30411e-13
1.62575e-13
1.50248e-13
1.36288e-13
1.15316e-13
4.26746e-14
3.8547e-14
3.34306e-14
2.79475e-14
9.81403e-15
8.47951e-15
7.26652e-15
5.76302e-15
1.86577e-15
1.57796e-15
1.27279e-15
9.73053e-16
3.13745e-16
2.52689e-16
1.91917e-16
1.35293e-16
4.37062e-17
3.26793e-17
2.31223e-17
1.54461e-17
4.95169e-18
3.44912e-18
2.42772e-18
1.40767e-18
4.73841e-19
2.81002e-19
1.01423e-19
1.55459e-20
1.78032e-20
4.05101e-21
6.51008e-22
3.39765e-23
4.61021e-23
9.67196e-24
1.20682e-24
2.49109e-26
7.83067e-31
5.58523e-27
7.14156e-28
1.41075e-27
7.06768e-37
1.30981e-28
5.19704e-28
1.65158e-27
-6.13558e-46
1.28179e-28
4.38903e-28
1.24133e-27
0.758619
0.881274
0.844019
0.547236
0.0387099
0.545238
0.937712
0.99426
0.996224
0.998621
0.999242
0.999687
0.999649
0.996463
0.994899
0.999884
0.999874
0.999689
0.706107
0.735177
0.75818
0.478162
0.0551225
0.0635281
0.571666
0.661369
0.590896
0.644409
0.777499
0.868319
0.932292
0.969882
0.993545
0.99948
0.998406
0.999232
0.989696
0.9404
0.163642
0.0477762
0.00785275
0.00265066
0.0570013
0.0823026
0.00753185
0.00281334
0.00824329
0.0340828
0.0902738
0.164931
0.233272
0.29
0.381201
0.488864
0.61986
0.660818
0.683739
2.03933e-05
2.03809e-05
0.000426852
0.00113874
0.00436301
-3.54685e-13
-3.27148e-12
-5.66524e-19
-6.59478e-22
-6.45177e-20
-1.14305e-19
1.856e-19
-9.1102e-20
-1.99575e-19
-2.30483e-20
0.00236684
4.72043e-05
0.0254413
0.0468725
2.0298e-05
1.92572e-05
1.67209e-06
2.27215e-06
7.17647e-08
6.94129e-08
2.11723e-08
2.16968e-08
1.99766e-07
3.90828e-07
3.80715e-07
1.96092e-07
5.59721e-11
6.51204e-07
2.07861e-05
4.43969e-05
5.34711e-05
4.85133e-05
4.78588e-05
2.08938e-05
4.01669e-06
6.96123e-10
5.09169e-08
1.01173e-07
8.55129e-09
4.03168e-08
5.92035e-08
6.74063e-08
7.6028e-08
1.3549e-07
1.31273e-07
1.43273e-13
8.34685e-09
2.72172e-06
3.54971e-05
0.000898997
0.00175541
0.00205056
5.70024e-06
2.98614e-09
8.37012e-10
7.7593e-09
1.55525e-08
1.37381e-10
2.23571e-09
1.88694e-10
1.99516e-09
3.01051e-08
8.21244e-07
1.95639e-05
0.00130522
0.00396086
0.0051552
0.00555337
0.0051052
0.00475593
0.00449963
1.09523e-06
4.02698e-07
1.3517e-10
5.25286e-10
4.57841e-11
2.32668e-11
4.36361e-08
4.29324e-07
3.88273e-10
2.58508e-10
3.51756e-09
0.000919153
0.00833808
0.0100232
0.00996803
0.00875786
0.00565542
0.00356567
0.00274497
2.69326e-09
1.61063e-08
1.14594e-10
7.06763e-09
1.87238e-07
2.77764e-07
3.02584e-08
2.38795e-06
8.09696e-05
0.00014383
0.000461398
0.00169382
0.00407238
0.00425443
0.00143886
1.8663e-06
1.37877e-10
1.26892e-09
9.58477e-06
4.19852e-09
5.08117e-09
4.92191e-08
3.1818e-07
6.06538e-07
4.96627e-06
1.89364e-05
5.19552e-05
0.000230959
0.000491894
0.000490406
0.00021182
1.40525e-17
7.62418e-18
2.93942e-25
7.61983e-18
3.04729e-10
1.2626e-09
1.1613e-09
1.90168e-08
3.45579e-08
4.53255e-08
2.17961e-07
4.36563e-07
1.72196e-06
9.34773e-06
2.41851e-05
4.14728e-05
4.28392e-05
6.15549e-06
3.30454e-09
4.62113e-09
3.8992e-09
3.73192e-09
4.87189e-09
4.46902e-09
1.62258e-09
1.38487e-09
5.18276e-10
1.20601e-09
4.67151e-09
2.21907e-08
2.95253e-08
1.09136e-09
1.90161e-08
1.65566e-10
1.33777e-07
6.36937e-08
2.6892e-08
3.08423e-08
4.68572e-08
1.52707e-08
3.51732e-09
4.80722e-09
4.27034e-09
9.96298e-10
1.19013e-09
2.2256e-10
1.2949e-10
7.75627e-11
6.64994e-11
3.78346e-11
3.96734e-11
7.23102e-11
1.68877e-10
1.76407e-10
1.35775e-09
2.93799e-08
5.63628e-08
5.34503e-08
2.09726e-08
1.27127e-09
1.20516e-09
1.22206e-09
1.84361e-10
6.81952e-10
4.54552e-10
2.36922e-10
1.22134e-10
8.34155e-11
7.41287e-11
7.73319e-11
1.60405e-10
3.43949e-10
4.77773e-10
2.31361e-09
1.47738e-08
3.94269e-08
3.15841e-08
4.34639e-09
1.16523e-09
2.00502e-10
9.39113e-11
5.19592e-11
4.42403e-10
1.67567e-09
6.18107e-10
1.86607e-10
9.51653e-11
7.7691e-11
9.10232e-11
1.70498e-10
3.51012e-10
6.69162e-10
1.42435e-09
2.56864e-09
2.31772e-09
9.02077e-10
4.33559e-10
4.20008e-10
1.48235e-10
2.98366e-11
3.52855e-11
2.65482e-10
4.61925e-09
1.89227e-09
2.93265e-10
1.33642e-10
8.59051e-11
8.47594e-11
1.11027e-10
1.68094e-10
3.20607e-10
6.20541e-10
1.28374e-09
2.60896e-09
4.87588e-10
4.74518e-10
2.84014e-10
1.10013e-10
2.19268e-11
1.98043e-11
1.49714e-10
7.64029e-09
3.80417e-09
4.81007e-10
1.6838e-10
1.27224e-10
9.27472e-11
1.07354e-10
1.50236e-10
2.1717e-10
2.98468e-10
5.30664e-10
3.42897e-10
4.50339e-10
4.11628e-10
2.30157e-10
6.47942e-11
1.07587e-11
1.05298e-11
6.58328e-11
8.39859e-09
5.35437e-09
1.3027e-09
2.90587e-10
1.33537e-10
1.07703e-10
1.05632e-10
1.28665e-10
1.62007e-10
2.13341e-10
2.95789e-10
2.10473e-10
1.5843e-10
1.27997e-10
7.17886e-11
2.55611e-11
4.67657e-12
5.14899e-12
3.35291e-11
6.9273e-09
5.39669e-09
2.67471e-09
9.46333e-10
3.44802e-10
1.54879e-10
1.21036e-10
1.21457e-10
1.31782e-10
1.44393e-10
1.46766e-10
1.19244e-10
7.19187e-11
3.54002e-11
1.4146e-11
1.71028e-12
9.02069e-13
2.70994e-12
1.36258e-11
4.70406e-09
3.99566e-09
2.92052e-09
1.61985e-09
8.70608e-10
4.59242e-10
2.40423e-10
1.44131e-10
1.0911e-10
8.90498e-11
7.31046e-11
5.71102e-11
3.7091e-11
2.10919e-11
7.88338e-12
1.00989e-12
5.13296e-13
8.85296e-13
3.71044e-12
2.89935e-09
2.51797e-09
2.1007e-09
1.60335e-09
1.05354e-09
6.52531e-10
3.8562e-10
2.12686e-10
1.11095e-10
5.7331e-11
3.97331e-11
2.68707e-11
1.56362e-11
8.58448e-12
2.38166e-12
3.87283e-13
2.00577e-13
1.66451e-13
7.00019e-13
1.57889e-09
1.41044e-09
1.22515e-09
1.05178e-09
8.43322e-10
5.97831e-10
3.91086e-10
2.32052e-10
1.21386e-10
4.98321e-11
2.73195e-11
1.4889e-11
5.76546e-12
1.78177e-12
3.94635e-13
1.21565e-13
4.46387e-14
3.19341e-14
7.08275e-14
7.47871e-10
6.91648e-10
6.2047e-10
5.33105e-10
4.56114e-10
3.76222e-10
2.86958e-10
1.84343e-10
1.05366e-10
5.1465e-11
2.06566e-11
7.07536e-12
2.23144e-12
6.39904e-13
1.58169e-13
5.82159e-14
9.13467e-15
4.67818e-15
9.17756e-15
2.85751e-10
2.74609e-10
2.56739e-10
2.28061e-10
1.93188e-10
1.61833e-10
1.34528e-10
1.07281e-10
6.83361e-11
3.65043e-11
1.54993e-11
4.85096e-12
1.16912e-12
2.58282e-13
6.87694e-14
1.0624e-14
1.82592e-15
1.2456e-15
8.60665e-16
8.28146e-11
8.37625e-11
8.11718e-11
7.43738e-11
6.63292e-11
5.78299e-11
4.97025e-11
4.25938e-11
3.12198e-11
1.94583e-11
9.35353e-12
3.03029e-12
6.43121e-13
1.12267e-13
2.65751e-14
2.96309e-15
6.53373e-16
5.70148e-16
3.16555e-16
2.05318e-11
2.07443e-11
2.00209e-11
1.86992e-11
1.72055e-11
1.55621e-11
1.44216e-11
1.27751e-11
1.04422e-11
7.61514e-12
4.26181e-12
1.5201e-12
3.10796e-13
4.45129e-14
4.7833e-15
4.91029e-16
2.9791e-16
3.79215e-16
1.85833e-16
4.87982e-12
4.65854e-12
4.34172e-12
3.9953e-12
3.7016e-12
3.47512e-12
3.22601e-12
3.05976e-12
2.77646e-12
2.23986e-12
1.40156e-12
5.61611e-13
1.23309e-13
1.52938e-14
8.69278e-16
1.18104e-16
1.48239e-16
2.30732e-16
1.33028e-16
1.26023e-12
1.10687e-12
9.54782e-13
8.19967e-13
7.1513e-13
6.50083e-13
6.19268e-13
5.91561e-13
5.74506e-13
5.05074e-13
3.48997e-13
1.56619e-13
2.6501e-14
2.16016e-15
1.5096e-16
4.90028e-17
6.95958e-17
1.36066e-16
9.39407e-17
3.32969e-13
2.67641e-13
2.11291e-13
1.63245e-13
1.32589e-13
1.01209e-13
9.45354e-14
9.48463e-14
9.32397e-14
8.46147e-14
6.20668e-14
1.99396e-14
2.71732e-15
1.63e-16
2.07391e-17
1.79126e-17
3.31645e-17
7.70832e-17
6.61755e-17
8.44759e-14
6.11124e-14
4.41704e-14
3.40538e-14
2.03939e-14
1.13686e-14
9.97997e-15
1.02942e-14
1.01427e-14
9.77981e-15
5.36265e-15
1.62482e-15
1.73893e-16
4.98842e-18
2.89848e-18
5.91033e-18
1.6526e-17
5.4488e-17
4.07646e-17
1.85768e-14
1.22835e-14
8.86078e-15
5.27056e-15
2.23934e-15
7.37824e-16
5.66681e-16
6.28472e-16
7.15241e-16
6.60412e-16
3.54179e-16
7.71446e-17
4.67181e-18
2.41049e-19
6.38647e-19
2.73105e-18
9.98958e-18
3.24909e-17
2.63727e-17
3.49115e-15
2.15899e-15
1.39094e-15
5.6056e-16
1.365e-16
2.05595e-17
1.60908e-17
2.16212e-17
2.71995e-17
1.90596e-17
9.73721e-18
2.20171e-18
1.25415e-19
9.41803e-20
3.57767e-19
1.89584e-18
7.24659e-18
2.06396e-17
1.32343e-17
5.40899e-16
3.34135e-16
1.30143e-16
2.79504e-17
2.59438e-18
1.84473e-19
2.35448e-19
4.93059e-19
5.17154e-19
4.01608e-19
1.52217e-19
2.55909e-20
2.43982e-20
5.80272e-20
2.39813e-19
1.45336e-18
5.34139e-18
1.00524e-17
7.8847e-18
7.92572e-17
2.92717e-17
5.39223e-18
4.61625e-19
1.52708e-20
1.93593e-21
3.53206e-21
7.13237e-21
8.14616e-21
7.51093e-21
6.74699e-21
1.08177e-20
2.0029e-20
4.76971e-20
2.02674e-19
1.13699e-18
3.12582e-18
6.08184e-18
3.24836e-18
8.09691e-18
1.53031e-18
8.15348e-20
1.34477e-21
9.79039e-23
1.0082e-22
1.82554e-22
4.18327e-22
8.90406e-22
1.97968e-21
4.51644e-21
9.7109e-21
1.84262e-20
4.33005e-20
1.86562e-19
7.73753e-19
1.92731e-18
2.50871e-18
1.80626e-18
2.98528e-19
1.34401e-20
1.71574e-22
1.06724e-23
1.57359e-23
3.78941e-23
1.04103e-22
2.79353e-22
7.36187e-22
1.81779e-21
4.25375e-21
9.0703e-21
1.71389e-20
3.97424e-20
1.42111e-19
4.76183e-19
1.00974e-18
1.38233e-18
5.67433e-19
1.83173e-21
4.26709e-23
1.60434e-24
3.16403e-24
9.67523e-24
3.02944e-23
8.78581e-23
2.39597e-22
6.20775e-22
1.53011e-21
3.5419e-21
7.49141e-21
1.4015e-20
3.19422e-20
1.01096e-19
3.0194e-19
5.73703e-19
4.50197e-19
2.61744e-19
2.72321e-24
2.7446e-25
6.59938e-25
2.36852e-24
7.79348e-24
2.39505e-23
6.89679e-23
1.85585e-22
4.77231e-22
1.16808e-21
2.68357e-21
5.62685e-21
1.05226e-20
2.25465e-20
6.61309e-20
1.69388e-19
2.3098e-19
2.0871e-19
6.00201e-20
2.65664e-26
1.18929e-25
4.8688e-25
1.72017e-24
5.56896e-24
1.66651e-23
4.69888e-23
1.25611e-22
3.2006e-22
7.76553e-22
1.7743e-21
3.68163e-21
6.86441e-21
1.45301e-20
3.37072e-20
9.51474e-20
1.00908e-19
5.21346e-20
2.50462e-20
1.87418e-26
8.48823e-26
3.13761e-25
1.01552e-24
3.13452e-24
8.97462e-24
2.52278e-23
6.84822e-23
1.73897e-22
4.30161e-22
9.93054e-22
2.07857e-21
3.89274e-21
8.1905e-21
1.6734e-20
4.40232e-20
3.15355e-20
1.90554e-20
1.0164e-20
1.19792e-26
4.56274e-26
1.50159e-25
4.54123e-25
1.34892e-24
3.9282e-24
1.10309e-23
3.01244e-23
7.96373e-23
1.99902e-22
4.67029e-22
9.76486e-22
1.82413e-21
3.82645e-21
7.60482e-21
1.73162e-20
9.58187e-21
6.67904e-21
3.2303e-21
4.30917e-27
1.31284e-26
3.7994e-26
1.05153e-25
3.264e-25
1.02366e-24
3.03417e-24
8.37214e-24
2.19987e-23
5.57187e-23
1.30652e-22
2.79151e-22
5.26385e-22
1.05939e-21
2.00771e-21
3.9858e-21
2.38851e-21
1.37991e-21
3.39916e-22
)
;

boundaryField
{
    leftWall
    {
        type            alphaContactAngle;
        contactAngleProperties 
        {
            mercury         
            {
                theta0          90;
            }
            air             
            {
                theta0          90;
            }
            oil             
            {
                theta0          90;
            }
        }
        value           nonuniform List<scalar> 
50
(
8.52807e-11
2.12132e-10
3.20278e-10
3.18292e-10
2.79507e-10
1.57812e-10
0.218949
0.925361
1
1
1
0.990654
0.809173
0.313492
4.54316e-07
3.92789e-07
1.15993e-07
5.45018e-08
2.26951e-08
1.2489e-09
8.31873e-09
2.34851e-08
2.33986e-08
2.12249e-08
1.74278e-08
1.55799e-08
1.54442e-08
1.77959e-08
1.79637e-08
1.79043e-08
1.78052e-08
1.7052e-08
1.57329e-08
1.43176e-08
1.22998e-08
1.05737e-08
8.62643e-09
6.83452e-09
4.73713e-09
2.9614e-09
1.65626e-09
7.24639e-10
2.63281e-10
8.93733e-11
2.25286e-11
4.33631e-12
5.29467e-13
3.77385e-14
5.72733e-16
7.21641e-21
)
;
    }
    rightWall
    {
        type            alphaContactAngle;
        contactAngleProperties 
        {
            mercury         
            {
                theta0          90;
            }
            air             
            {
                theta0          90;
            }
            oil             
            {
                theta0          90;
            }
        }
        value           nonuniform List<scalar> 
50
(
0.0140884
0.0138698
0.00293562
0.00102205
0.00101503
0.0786216
0.328812
0.61444
0.706107
0.9404
0.683739
0.0468725
4.78588e-05
0.00205056
0.00449963
0.00274497
9.58477e-06
1.1613e-09
1.38487e-09
1.19013e-09
6.81952e-10
4.42403e-10
2.65482e-10
1.49714e-10
6.58328e-11
3.35291e-11
1.36258e-11
3.71044e-12
7.00019e-13
7.08275e-14
9.17756e-15
8.60665e-16
3.16555e-16
1.85833e-16
1.33028e-16
9.39407e-17
6.61755e-17
4.07646e-17
2.63727e-17
1.32343e-17
7.8847e-18
3.24836e-18
1.80626e-18
5.67433e-19
2.61744e-19
6.00201e-20
2.50462e-20
1.0164e-20
3.2303e-21
3.39916e-22
)
;
    }
    lowerWall
    {
        type            alphaContactAngle;
        contactAngleProperties 
        {
            mercury         
            {
                theta0          90;
            }
            air             
            {
                theta0          90;
            }
            oil             
            {
                theta0          90;
            }
        }
        value           nonuniform List<scalar> 
62
(
8.52807e-11
9.76574e-11
1.10362e-10
1.16811e-10
1.22941e-10
1.29317e-10
1.35161e-10
1.40387e-10
1.47921e-10
1.66311e-10
1.89475e-10
2.16675e-10
2.574e-10
3.15802e-10
3.94318e-10
4.91209e-10
6.28624e-10
8.85499e-10
1.42853e-09
2.19455e-09
2.68777e-09
2.77882e-09
2.77882e-09
2.77882e-09
2.4568e-09
1.39316e-09
1.23266e-09
-6.72902e-12
0.34084
0.970122
0.99946
0.994802
0.918083
0.756127
0.620546
0.0107279
0.0507348
0.416766
0.680516
0.875783
0.884323
0.884323
0.880798
0.0107279
0.0107401
0.0264834
0.0566781
0.0644307
0.0585277
0.04094
0.0229869
0.00136414
0.00127395
0.000665318
0.000701315
0.00111879
0.039119
0.124756
0.124793
0.0929723
0.00843632
0.0140884
)
;
    }
    atmosphere
    {
        type            inletOutlet;
        inletValue      uniform 0;
        value           nonuniform List<scalar> 
46
(
0
0
4.98515e-17
4.89638e-17
2.99636e-17
1.45633e-17
6.82636e-18
2.64516e-18
1.15154e-18
5.07551e-19
2.35436e-19
1.1752e-19
6.20177e-20
3.00257e-20
1.27972e-20
4.9032e-21
1.9517e-21
7.87283e-22
2.75026e-22
8.02624e-23
9.55238e-24
0
0
0
0
0
0
0
0
0
0
0
0
0
0
0
0
0
0
0
0
0
0
0
0
0
)
;
    }
    defaultFaces
    {
        type            empty;
    }
}


// ************************************************************************* //
