/*--------------------------------*- C++ -*----------------------------------*\
  =========                 |
  \\      /  F ield         | OpenFOAM: The Open Source CFD Toolbox
   \\    /   O peration     | Website:  https://openfoam.org
    \\  /    A nd           | Version:  13
     \\/     M anipulation  |
\*---------------------------------------------------------------------------*/
FoamFile
{
    format      ascii;
    class       volScalarField;
    location    "2.25";
    object      alpha.mercury;
}
// * * * * * * * * * * * * * * * * * * * * * * * * * * * * * * * * * * * * * //

dimensions      [];

internalField   nonuniform List<scalar> 
2268
(
1
1
1
1
1
1
1
1
1
1
1
1
1
1
1
1
1
1
1
0.999873
0.999581
0.999433
0.999433
1
1
1
1
1
1
1
1
1
1
1
1
1
1
1
1
1
1
1
0.999997
0.999996
0.999951
0.999719
1
1
1
1
1
1
1
1
1
1
1
1
1
1
1
1
1
1
1
1
1
1
1
1
1
1
1
1
1
1
1
1
1
1
1
1
1
1
1
1
1
1
1
1
1
1
1
1
1
1
1
1
1
1
1
1
1
1
1
1
1
1
1
1
0.999999
1
1
1
1
1
1
1
1
1
1
1
1
1
1
1
1
0.993127
0.950452
0.895455
0.832278
0.77163
0.720639
0.680115
0.649793
0.631608
0.635415
0.65845
0.781051
0.80828
0.850048
0.877378
0.8888
0.890981
0.88624
0.867832
0.820998
0.734097
0.612406
0.470858
0.3309
0.22791
0.150004
0.0996981
0.0672971
0.0462051
0.0329365
0.0250266
0.0211769
0.022108
0.028597
0.074639
0.0948768
0.132484
0.166452
0.189264
0.191332
0.167904
0.127098
0.081522
0.0412615
0.012711
0.000684378
1.21064e-07
1.27514e-07
9.43951e-08
-9.58835e-12
3.98836e-21
-2.6881e-20
-6.62278e-20
3.83349e-20
4.199e-20
-5.99049e-20
6.95135e-21
0.872241
0.875199
0.877581
0.877578
0.877575
0.877545
0.870309
0.709593
0.63629
0.636495
0.640889
0.626143
0.599576
0.599576
0.709148
0.75149
0.751486
0.751474
0.75146
0.540281
0.549456
0.567039
0.552264
0.55201
0.63793
0.695831
0.764845
0.830772
0.831196
0.831346
0.821105
0.727522
0.737379
0.751339
0.751491
0.751487
0.751487
0.751482
0.162764
0.140347
0.123546
0.123802
0.171476
0.158234
0.181336
0.258656
0.354019
0.540143
0.684024
0.735522
0.751493
0.751485
0.751488
0.751487
0.751488
0.746284
0.643149
0.177032
0.177102
0.1347
0.140017
0.0991795
0.0617046
0.0285771
0.0196251
0.0155699
0.0193282
0.0799518
0.301687
0.36597
0.364874
0.43888
0.495729
0.495012
0.493264
0.511397
0.105
0.122618
0.133323
0.139607
0.10909
0.0640164
0.0589894
0.0587067
0.0384458
0.0039827
0.000417522
0.0156959
0.208889
0.244545
0.240043
0.204218
0.235589
0.2019
0.238519
0.0726172
0.0742132
0.0876018
0.0591358
0.106227
0.10542
0.0912318
0.0915686
0.0674513
0.00431115
0.000361748
2.94583e-06
0.0116404
0.116713
0.127103
0.144739
0.11449
0.094087
0.0440842
0.00252822
0.00246135
0.0117518
0.0269999
0.0770181
0.10536
0.0908095
0.0150736
0.00383602
0.0011873
0.000209071
2.86923e-06
2.47851e-06
0.000345103
0.0123722
0.00329066
3.13752e-12
-2.6462e-08
1.61875e-15
0.00922422
0.00250183
0.00833785
0.0155654
0.0444799
0.0581048
0.00206862
5.99538e-06
5.87408e-06
3.81743e-05
0.000131198
6.61266e-05
2.11404e-06
1.12752e-10
1.47573e-10
-1.0541e-13
2.31474e-06
1.43575e-06
7.89188e-08
3.0004e-10
2.93199e-10
2.97271e-10
2.93199e-10
2.97271e-10
2.93199e-10
2.97271e-10
5.05186e-09
9.44164e-10
4.46699e-08
6.37359e-08
1.05566e-08
6.20679e-09
5.41048e-09
1.77181e-09
6.09703e-10
2.69528e-09
3.2426e-09
1.58123e-09
4.85167e-10
4.46468e-11
1.38222e-10
-2.53265e-12
2.99409e-10
3.00041e-10
2.98479e-10
3.45531e-10
4.0534e-10
4.35381e-10
3.9393e-10
3.74662e-10
6.48866e-10
1.53828e-09
2.20393e-09
8.31461e-10
5.98433e-10
1.02929e-09
1.15986e-09
1.68068e-09
5.804e-09
6.40492e-09
3.08713e-09
9.94483e-10
4.36909e-10
8.77972e-11
3.44709e-30
3.17614e-10
3.61392e-10
5.86829e-10
8.35175e-10
1.15454e-09
1.39731e-09
1.43373e-09
1.42093e-09
1.33556e-09
1.14549e-09
8.92747e-10
6.80481e-10
5.00685e-10
4.9348e-10
5.10091e-10
6.67582e-10
1.37375e-09
1.73481e-09
1.67964e-09
1.57845e-09
6.72044e-10
7.95815e-11
0.000253961
3.82077e-10
4.39922e-10
5.87252e-10
7.28553e-10
8.27699e-10
8.80332e-10
8.95259e-10
8.66633e-10
8.19712e-10
8.03793e-10
8.09125e-10
8.34057e-10
9.11713e-10
1.01331e-09
1.25904e-09
1.61277e-09
2.11028e-09
3.43693e-09
4.18232e-09
1.57719e-09
4.32987e-08
1.32525e-05
0.000109619
3.71969e-10
4.08631e-10
4.92559e-10
5.45709e-10
5.88063e-10
6.31577e-10
6.95523e-10
7.75217e-10
8.99033e-10
1.09146e-09
1.34919e-09
1.60451e-09
1.795e-09
1.92567e-09
1.99124e-09
1.98866e-09
2.07989e-09
4.11697e-09
5.95246e-09
1.57924e-09
2.71159e-07
1.5156e-06
1.68232e-06
4.28178e-10
4.91013e-10
5.32646e-10
5.70824e-10
6.10421e-10
6.87319e-10
8.38075e-10
1.02222e-09
1.1908e-09
1.33738e-09
1.43546e-09
1.56252e-09
1.67821e-09
1.73546e-09
1.66972e-09
1.50551e-09
1.813e-09
5.10386e-09
7.02453e-09
6.28845e-09
6.92125e-09
2.02912e-07
1.15177e-05
4.66672e-10
4.86622e-10
4.76699e-10
4.48172e-10
4.50118e-10
5.21294e-10
6.47989e-10
8.40711e-10
9.49021e-10
9.7424e-10
9.74678e-10
9.8085e-10
1.00877e-09
1.06341e-09
1.11097e-09
1.14692e-09
1.20873e-09
1.25278e-09
1.17339e-09
1.15689e-09
1.24754e-07
5.09059e-07
6.64456e-07
4.61071e-10
4.71304e-10
4.51368e-10
3.56198e-10
2.70511e-10
2.54026e-10
2.8374e-10
3.84922e-10
4.22705e-10
4.19859e-10
3.93898e-10
3.80463e-10
4.42891e-10
6.17942e-10
9.04178e-10
1.41111e-09
2.27668e-09
3.34287e-09
5.71143e-09
1.60745e-08
1.98232e-08
1.83639e-08
9.91693e-09
4.08225e-10
3.85917e-10
4.17687e-10
3.72009e-10
2.38905e-10
1.55697e-10
1.27645e-10
1.1589e-10
1.04832e-10
8.84948e-11
7.54021e-11
7.33184e-11
1.05051e-10
2.60394e-10
4.27209e-10
5.41125e-10
6.60618e-10
9.20503e-10
1.5281e-09
2.04466e-09
1.98619e-09
1.94835e-09
1.59727e-09
2.79141e-10
2.98266e-10
3.79804e-10
3.84403e-10
2.79809e-10
1.80936e-10
1.27277e-10
9.46261e-11
5.02047e-11
2.76229e-11
1.85743e-11
1.66388e-11
2.54857e-11
6.50913e-11
8.7955e-11
9.02273e-11
8.84179e-11
9.17344e-11
1.78958e-10
3.47748e-10
4.60132e-10
5.85218e-10
1.22703e-09
1.77131e-10
1.9523e-10
3.58163e-10
3.9804e-10
3.29323e-10
2.63466e-10
2.0062e-10
1.39906e-10
8.01395e-11
3.79177e-11
1.89754e-11
1.39875e-11
1.31107e-11
1.55033e-11
2.16656e-11
2.37411e-11
2.5614e-11
2.73125e-11
2.99629e-11
3.70897e-11
6.658e-11
1.49578e-10
5.83347e-10
1.23405e-10
2.05168e-10
3.7928e-10
4.1057e-10
3.62816e-10
3.19895e-10
2.48763e-10
1.86757e-10
1.2844e-10
7.56239e-11
4.2825e-11
2.04669e-11
1.23187e-11
9.40738e-12
8.67072e-12
8.55175e-12
1.00171e-11
1.17975e-11
1.32183e-11
1.37868e-11
1.34826e-11
1.91494e-11
4.2168e-11
1.14635e-10
2.78955e-10
4.00024e-10
4.11428e-10
3.81952e-10
3.36363e-10
2.8382e-10
2.31495e-10
1.81818e-10
1.29957e-10
7.9334e-11
3.88421e-11
1.88469e-11
1.0818e-11
7.75847e-12
5.92413e-12
5.09563e-12
4.90996e-12
5.68182e-12
6.16453e-12
6.66789e-12
6.88772e-12
6.91662e-12
1.1073e-10
2.90691e-10
3.93304e-10
3.95278e-10
3.70855e-10
3.29063e-10
2.80099e-10
2.43551e-10
2.01937e-10
1.56906e-10
1.08995e-10
6.94264e-11
3.17529e-11
1.60571e-11
1.06985e-11
7.07107e-12
4.6293e-12
3.36459e-12
2.69944e-12
2.32556e-12
2.17165e-12
2.21015e-12
2.887e-12
1.06265e-10
2.66634e-10
3.31797e-10
3.41722e-10
3.16296e-10
2.84982e-10
2.42508e-10
2.25553e-10
1.95208e-10
1.59823e-10
1.12826e-10
8.09734e-11
4.34814e-11
2.17582e-11
1.39468e-11
9.05032e-12
5.66056e-12
3.59954e-12
2.3768e-12
1.55882e-12
1.10802e-12
8.61689e-13
8.19652e-13
9.73834e-11
2.27907e-10
2.7814e-10
2.65865e-10
2.3262e-10
1.98986e-10
1.93552e-10
1.76441e-10
1.57663e-10
1.36951e-10
1.06678e-10
7.27763e-11
4.33953e-11
2.55792e-11
1.62794e-11
1.06513e-11
6.72727e-12
4.11718e-12
2.65256e-12
1.64506e-12
1.12716e-12
7.74539e-13
5.90557e-13
8.06755e-11
1.79319e-10
2.16111e-10
2.10615e-10
1.82874e-10
1.57181e-10
1.36711e-10
1.28669e-10
1.15038e-10
9.94943e-11
7.95691e-11
5.67072e-11
3.65938e-11
2.35274e-11
1.68066e-11
1.09296e-11
6.89437e-12
4.36633e-12
2.81713e-12
1.64972e-12
1.16782e-12
7.98656e-13
5.52829e-13
6.29426e-11
1.2939e-10
1.54055e-10
1.50047e-10
1.34618e-10
1.16241e-10
9.79533e-11
8.86695e-11
7.66748e-11
6.58394e-11
5.36873e-11
3.94488e-11
2.94922e-11
1.99931e-11
1.4232e-11
9.59254e-12
6.11446e-12
3.97726e-12
2.56333e-12
1.56038e-12
1.13361e-12
7.53764e-13
5.14991e-13
4.5181e-11
8.84119e-11
1.03628e-10
1.01073e-10
9.18163e-11
8.02069e-11
6.81046e-11
5.31866e-11
4.37453e-11
3.73569e-11
3.09907e-11
2.44793e-11
2.0234e-11
1.42806e-11
9.90601e-12
7.0827e-12
4.97934e-12
3.11828e-12
2.01458e-12
1.33454e-12
9.45135e-13
6.53449e-13
4.48672e-13
3.11731e-11
5.93251e-11
6.84574e-11
6.65966e-11
6.05133e-11
5.22215e-11
4.45317e-11
3.44272e-11
2.47221e-11
1.84098e-11
1.53786e-11
1.39084e-11
1.15137e-11
8.26949e-12
6.1312e-12
4.65906e-12
3.37604e-12
2.34265e-12
1.55141e-12
1.03688e-12
7.69283e-13
5.39109e-13
3.67035e-13
2.2141e-11
4.08178e-11
4.49121e-11
4.3528e-11
3.87979e-11
3.37681e-11
2.83771e-11
2.12985e-11
1.4455e-11
1.07866e-11
8.41124e-12
7.31227e-12
5.98695e-12
4.67323e-12
3.64075e-12
2.88253e-12
2.15343e-12
1.56734e-12
1.13951e-12
8.06975e-13
6.03081e-13
4.30292e-13
2.95761e-13
1.5098e-11
2.72795e-11
2.9658e-11
2.84822e-11
2.52133e-11
2.18763e-11
1.80937e-11
1.39179e-11
9.28322e-12
6.79759e-12
5.0925e-12
3.98757e-12
3.25777e-12
2.62556e-12
2.12627e-12
1.71527e-12
1.31583e-12
1.0153e-12
8.00355e-13
5.90274e-13
4.31677e-13
3.12791e-13
2.26336e-13
1.05882e-11
1.84401e-11
1.96834e-11
1.86156e-11
1.66084e-11
1.43438e-11
1.19937e-11
9.10232e-12
6.51136e-12
4.5407e-12
3.13819e-12
2.34224e-12
1.83716e-12
1.50178e-12
1.22242e-12
9.83898e-13
7.77912e-13
6.40163e-13
5.0634e-13
3.85789e-13
2.83519e-13
2.11993e-13
1.55545e-13
7.20313e-12
1.20636e-11
1.26363e-11
1.17625e-11
1.06464e-11
9.23351e-12
7.80953e-12
6.07079e-12
4.48259e-12
3.07572e-12
2.11118e-12
1.48171e-12
1.10208e-12
8.40338e-13
6.62827e-13
5.24812e-13
4.32936e-13
3.72224e-13
2.99329e-13
2.27544e-13
1.70828e-13
1.26432e-13
9.59778e-14
4.67751e-12
7.62303e-12
7.75396e-12
6.98117e-12
6.21208e-12
5.43009e-12
4.56844e-12
3.83479e-12
2.99174e-12
2.11405e-12
1.41165e-12
9.31578e-13
6.36383e-13
4.51762e-13
3.35799e-13
2.71548e-13
2.2633e-13
1.87042e-13
1.54983e-13
1.19355e-13
8.94854e-14
6.86027e-14
5.17837e-14
2.96578e-12
4.64689e-12
4.50836e-12
3.90572e-12
3.34478e-12
2.92798e-12
2.51211e-12
2.12405e-12
1.75987e-12
1.3533e-12
9.21144e-13
5.94106e-13
3.72955e-13
2.41219e-13
1.67566e-13
1.29787e-13
1.02845e-13
8.62916e-14
6.95707e-14
5.38926e-14
4.13308e-14
3.14065e-14
2.42022e-14
1.74648e-12
2.67525e-12
2.47392e-12
2.0417e-12
1.67303e-12
1.44718e-12
1.21787e-12
1.05972e-12
9.25991e-13
7.69224e-13
5.47045e-13
3.5858e-13
2.19814e-13
1.31772e-13
8.32709e-14
5.80848e-14
4.30765e-14
3.40991e-14
2.73396e-14
2.1106e-14
1.65052e-14
1.25278e-14
9.43883e-15
9.89611e-13
1.4402e-12
1.25998e-12
9.83201e-13
7.67055e-13
6.54471e-13
5.4354e-13
4.79351e-13
4.26414e-13
3.75434e-13
2.83542e-13
1.93885e-13
1.21358e-13
7.13707e-14
4.15614e-14
2.56514e-14
1.73152e-14
1.27284e-14
9.65851e-15
7.36341e-15
5.64914e-15
4.21304e-15
3.18715e-15
5.24514e-13
7.15097e-13
5.96361e-13
4.37641e-13
3.23135e-13
2.58485e-13
2.19707e-13
1.83136e-13
1.70591e-13
1.56945e-13
1.26123e-13
9.04445e-14
5.83967e-14
3.48719e-14
2.00853e-14
1.1164e-14
6.63445e-15
4.25354e-15
3.05442e-15
2.28849e-15
1.72807e-15
1.21035e-15
8.88735e-16
2.64726e-13
3.27498e-13
2.49624e-13
1.71223e-13
1.18899e-13
9.3484e-14
7.6086e-14
6.55176e-14
6.02789e-14
5.61254e-14
4.8063e-14
3.60092e-14
2.40345e-14
1.47482e-14
8.35286e-15
4.42498e-15
2.34899e-15
1.41719e-15
8.89225e-16
6.3966e-16
4.47448e-16
3.11854e-16
2.22605e-16
1.17352e-13
1.30609e-13
9.53716e-14
6.16819e-14
4.09259e-14
3.11977e-14
2.38096e-14
2.10887e-14
1.90328e-14
1.80729e-14
1.60524e-14
1.23875e-14
8.52767e-15
5.25407e-15
2.99134e-15
1.59224e-15
7.90717e-16
4.04582e-16
2.46062e-16
1.59317e-16
1.09913e-16
6.92547e-17
4.73668e-17
4.56077e-14
4.8098e-14
3.35177e-14
2.04922e-14
1.22065e-14
8.73152e-15
7.14107e-15
6.15304e-15
5.48583e-15
5.24573e-15
4.75301e-15
3.74359e-15
2.61031e-15
1.62125e-15
9.33373e-16
4.86719e-16
2.31925e-16
1.09187e-16
5.88076e-17
3.55417e-17
2.23365e-17
1.39114e-17
8.99992e-18
1.61988e-14
1.45843e-14
9.68641e-15
5.63372e-15
3.25299e-15
2.38213e-15
1.93745e-15
1.62283e-15
1.38112e-15
1.33706e-15
1.23372e-15
9.97454e-16
6.77907e-16
4.21917e-16
2.41537e-16
1.25027e-16
5.44015e-17
2.5455e-17
1.23364e-17
6.73218e-18
4.1149e-18
2.36373e-18
1.40476e-18
4.49939e-15
4.21665e-15
2.62372e-15
1.45029e-15
8.1961e-16
5.71754e-16
4.5118e-16
3.73452e-16
3.21075e-16
3.12548e-16
2.92427e-16
2.15941e-16
1.48612e-16
9.37085e-17
5.30095e-17
2.67682e-17
1.09713e-17
4.64685e-18
2.21335e-18
1.14993e-18
6.16344e-19
3.34957e-19
1.89913e-19
1.03399e-15
9.31078e-16
5.29874e-16
2.80642e-16
1.56768e-16
1.05927e-16
8.38018e-17
7.09703e-17
6.32868e-17
6.22252e-17
5.74744e-17
4.6517e-17
2.98626e-17
1.84231e-17
1.00368e-17
4.69119e-18
1.95753e-18
7.52241e-19
3.37503e-19
1.60928e-19
8.40596e-20
4.3029e-20
2.19917e-20
2.6036e-16
2.01663e-16
1.07269e-16
5.53012e-17
3.07117e-17
2.06479e-17
1.65071e-17
1.45136e-17
1.28779e-17
1.14201e-17
1.03758e-17
8.15329e-18
5.81149e-18
3.456e-18
1.78692e-18
7.81106e-19
2.86807e-19
1.07849e-19
4.64067e-20
2.09242e-20
9.92278e-21
4.57481e-21
2.11761e-21
4.87489e-17
3.30602e-17
1.72675e-17
8.95349e-18
4.99654e-18
3.37792e-18
2.76305e-18
2.52855e-18
2.25283e-18
2.10306e-18
1.92015e-18
1.48339e-18
9.82845e-19
5.52809e-19
2.71104e-19
1.11186e-19
3.84025e-20
1.38477e-20
5.5872e-21
2.36153e-21
1.02306e-21
4.02557e-22
1.63475e-22
6.8669e-18
4.23681e-18
2.29351e-18
1.24223e-18
7.0961e-19
4.88299e-19
4.13796e-19
3.894e-19
3.58834e-19
3.52108e-19
3.18347e-19
2.35784e-19
1.47324e-19
7.93802e-20
3.61817e-20
1.35718e-20
4.62597e-21
1.61684e-21
6.15264e-22
2.35434e-22
8.63088e-23
3.02622e-23
1.1952e-23
6.22503e-19
4.23896e-19
2.52683e-19
1.49476e-19
9.02109e-20
6.44572e-20
5.69712e-20
5.49033e-20
5.30485e-20
5.00417e-20
4.4579e-20
3.3462e-20
2.01578e-20
1.02922e-20
4.34007e-21
1.56099e-21
5.22745e-22
1.72639e-22
5.99886e-23
2.08039e-23
6.75871e-24
2.04428e-24
3.89037e-25
3.41862e-20
2.59599e-20
2.25108e-20
1.57883e-20
1.04781e-20
7.97848e-21
7.28137e-21
7.24828e-21
7.28072e-21
7.1297e-21
5.59796e-21
4.18565e-21
2.53785e-21
1.20671e-21
4.95382e-22
1.72919e-22
5.65527e-23
1.62648e-23
5.23708e-24
1.53929e-24
4.23636e-25
8.9499e-26
5.67434e-27
4.05896e-22
1.01013e-21
1.31288e-21
1.23052e-21
9.39764e-22
7.31319e-22
7.90848e-22
8.30935e-22
8.96745e-22
9.44482e-22
7.62145e-22
5.11749e-22
3.01311e-22
1.37635e-22
5.42817e-23
1.80239e-23
5.71013e-24
1.72324e-24
4.85662e-25
1.20341e-25
2.71538e-26
1.55125e-27
1.74526e-28
8.32714e-28
1.63632e-23
7.41563e-23
1.00104e-22
8.64594e-23
7.26087e-23
7.98759e-23
8.26008e-23
1.00321e-22
1.13877e-22
9.26224e-23
5.9633e-23
3.34446e-23
1.50474e-23
5.58381e-24
1.773e-24
5.58936e-25
1.70011e-25
4.41501e-26
1.00325e-26
9.41746e-28
3.81909e-29
6.4447e-29
0.00194077
0.0516844
0.0547906
0.054719
0.00394358
0.0180891
0.0160302
0.00888308
0.00170142
0.000372559
0.000432322
0.000537828
0.000101668
0.000350188
0.000806252
0.000812734
0.000164834
0.000222862
0.000128537
6.39296e-05
1.66275e-05
2.52847e-06
3.35984e-10
1.1848e-07
3.6734e-10
4.87263e-10
3.59081e-10
3.60422e-10
3.86168e-10
4.15384e-10
3.86119e-10
7.04361e-10
1.45132e-09
1.41704e-09
3.09843e-09
7.41901e-09
2.2625e-09
2.4567e-09
2.47726e-09
2.48619e-09
2.16232e-09
3.88886e-09
5.6922e-09
7.3326e-09
1.53161e-10
3.74039e-10
4.40882e-10
2.43021e-10
6.19735e-12
5.32272e-12
3.80848e-12
5.1873e-12
3.51168e-12
3.54561e-12
3.07816e-12
2.28501e-12
1.31897e-12
1.75027e-12
1.80844e-12
1.76955e-12
5.27639e-13
5.99685e-13
8.18857e-13
9.3563e-13
4.41104e-13
3.81998e-13
3.61059e-13
3.46789e-13
4.15013e-13
3.36338e-13
2.88092e-13
2.5176e-13
3.67065e-13
2.99843e-13
2.54056e-13
2.19286e-13
3.0705e-13
2.62207e-13
2.1702e-13
1.84865e-13
2.51244e-13
2.09943e-13
1.78283e-13
1.53599e-13
1.85703e-13
1.61927e-13
1.3718e-13
1.18497e-13
1.32488e-13
1.13464e-13
9.6924e-14
8.62367e-14
8.29017e-14
7.302e-14
6.27671e-14
5.43322e-14
4.5683e-14
3.97025e-14
3.40483e-14
3.03865e-14
2.13295e-14
1.88505e-14
1.6073e-14
1.35625e-14
8.47033e-15
7.23187e-15
6.09192e-15
5.22847e-15
2.8374e-15
2.45096e-15
2.07675e-15
1.63128e-15
8.03614e-16
6.73649e-16
5.43683e-16
4.47652e-16
1.9116e-16
1.64103e-16
1.35365e-16
1.01087e-16
4.09697e-17
3.41018e-17
2.71323e-17
2.02434e-17
7.58836e-18
6.05161e-18
4.73038e-18
3.34088e-18
1.13143e-18
8.82971e-19
6.53222e-19
4.50404e-19
1.48655e-19
1.10966e-19
7.721e-20
4.89831e-20
1.60259e-20
1.1043e-20
7.11767e-21
4.23844e-21
1.38514e-21
8.85598e-22
5.68599e-22
2.87828e-22
1.021e-22
5.47002e-23
1.64832e-23
1.60933e-24
2.49366e-24
4.86881e-25
6.79546e-26
8.91902e-27
2.75591e-27
1.67243e-27
1.98252e-27
5.07924e-27
2.40676e-28
7.05243e-28
2.13953e-27
6.79182e-27
2.39078e-28
6.90841e-28
2.47882e-27
7.89102e-27
1.86009e-28
6.43914e-28
2.11525e-27
5.97019e-27
0.0220919
0.00020398
0.000198728
0.0221695
0.0400658
0.00495077
7.89305e-05
7.62567e-05
5.72797e-06
6.40739e-05
9.74036e-05
0.000100177
8.35741e-05
2.71392e-05
7.62855e-06
1.24627e-05
1.51554e-05
3.65505e-07
9.25666e-07
0.00235192
0.000201759
0.00454527
0.00919394
0.00264214
0.000241084
0.00023954
0.000219295
2.39968e-06
9.74157e-06
2.36159e-05
3.56089e-05
3.47441e-05
1.85936e-05
1.93056e-05
6.60999e-05
4.84605e-05
0.000234115
0.000505545
0.000603563
0.000630305
0.000340247
1.21934e-06
1.2577e-06
0.000260732
0.000262644
8.51261e-05
2.35162e-06
2.44388e-06
1.04267e-06
9.89348e-07
1.04339e-06
1.80041e-05
0.000135972
0.000167054
0.000366472
0.00438728
0.00663859
0.000267822
1.50783e-07
1.45197e-07
1.18078e-06
2.10656e-06
2.02233e-05
1.23279e-05
4.8938e-06
1.28401e-05
5.28496e-06
1.53129e-06
8.5643e-06
1.69881e-05
5.77097e-05
0.000104672
6.01251e-05
0.000338936
0.00580174
0.00696329
8.64622e-06
1.38171e-06
3.52472e-06
4.37508e-06
2.78298e-06
3.70844e-08
1.1461e-07
5.22768e-07
1.08582e-06
2.31168e-07
1.20042e-07
6.89981e-07
1.77436e-06
8.56212e-06
2.15965e-05
4.53887e-05
5.85744e-05
0.00108748
0.00486787
1.06055e-08
1.13256e-07
3.57254e-07
6.85463e-07
2.68173e-07
9.33821e-09
5.44952e-10
9.82882e-12
1.33528e-08
4.13771e-08
4.59056e-08
5.22564e-08
5.61769e-08
6.32606e-08
5.48408e-06
2.69293e-05
8.30493e-05
0.000230646
0.000249939
1.28989e-08
1.08331e-07
1.58173e-07
1.53749e-07
1.17795e-07
2.87545e-08
2.93107e-11
1.04187e-11
2.96203e-11
1.22182e-10
8.43991e-09
1.32592e-06
0.000264707
0.00110387
0.00160916
0.00177071
0.00159033
0.000973397
0.000628874
2.82052e-08
1.59913e-07
1.56816e-07
1.10478e-07
1.83004e-09
2.92075e-18
2.30423e-09
3.48533e-07
4.02096e-07
9.6273e-12
6.39279e-10
0.000117719
0.00200785
0.00275727
0.00274799
0.00244892
0.00173562
0.00109806
0.000822491
1.42096e-08
2.27116e-08
2.72177e-08
2.61293e-08
5.11193e-08
1.04886e-07
4.91771e-11
2.11784e-07
2.27291e-05
5.03578e-05
0.000114598
0.000334707
0.00094619
0.00107912
0.000475418
7.37263e-07
2.38239e-12
3.39327e-10
1.12659e-05
2.42443e-09
2.81068e-09
2.315e-08
1.13135e-07
2.27231e-07
1.75656e-06
6.42305e-06
1.6877e-05
6.57385e-05
0.000121937
0.000121979
5.61004e-05
1.58218e-11
1.11979e-15
1.58216e-11
1.11934e-15
3.84707e-09
1.44184e-08
9.91067e-10
8.25161e-09
1.58947e-08
2.48005e-08
7.7571e-08
1.09354e-07
7.032e-07
3.89329e-06
7.58839e-06
1.0759e-05
9.96428e-06
1.49434e-06
6.85777e-09
1.84867e-08
1.99741e-08
9.79685e-09
1.42143e-08
2.50522e-08
1.72486e-08
8.85345e-10
2.14066e-10
5.20858e-10
1.92307e-09
6.94125e-09
7.86537e-09
1.68998e-09
1.23137e-08
5.73568e-10
3.48025e-08
1.50841e-08
2.09847e-08
5.32225e-08
8.61627e-08
8.15241e-08
9.91596e-09
7.32182e-09
1.55588e-08
8.24056e-09
3.14845e-10
3.4481e-12
2.85153e-12
1.34954e-12
1.08684e-11
1.38703e-12
2.9002e-11
2.4249e-10
6.03926e-10
7.3394e-10
1.95796e-09
2.8589e-08
8.45937e-08
8.29394e-08
5.66317e-08
5.65774e-09
6.3353e-10
6.45112e-10
4.82626e-11
1.41195e-10
1.61736e-12
1.27102e-12
1.44014e-12
2.56071e-12
6.60566e-12
2.69377e-11
2.85345e-10
1.12613e-09
2.15071e-09
4.87572e-09
1.48129e-08
3.62595e-08
3.40074e-08
4.32588e-09
1.93891e-09
5.90182e-10
5.25187e-11
4.95341e-11
7.86816e-11
1.55258e-12
1.15489e-12
1.35263e-12
2.22548e-12
6.99636e-12
1.05868e-10
4.45102e-10
1.15035e-09
2.38763e-09
4.36952e-09
5.80956e-09
3.94997e-09
9.0712e-10
9.52016e-10
7.82883e-10
4.61642e-10
8.39243e-11
3.94764e-11
4.89305e-11
1.04337e-12
1.34654e-12
2.71209e-12
8.46409e-12
3.02266e-11
1.0606e-10
2.45708e-10
4.5933e-10
1.12075e-09
2.1461e-09
3.42896e-09
6.41534e-09
3.3632e-09
2.70023e-09
1.35116e-09
3.84136e-10
5.88193e-11
1.93174e-11
2.18372e-11
6.48395e-13
1.9348e-12
4.33226e-12
1.08953e-11
4.57993e-11
1.15958e-10
2.52409e-10
4.56552e-10
7.1298e-10
8.77086e-10
1.48148e-09
2.56215e-09
2.97572e-09
2.21753e-09
1.01176e-09
2.4877e-10
3.33524e-11
8.8428e-12
7.21777e-12
4.39029e-13
2.86403e-12
9.37122e-12
2.10271e-11
4.96165e-11
1.05957e-10
1.91031e-10
3.61942e-10
5.29758e-10
7.19377e-10
9.09921e-10
7.77458e-10
8.36821e-10
6.00457e-10
2.82627e-10
9.30558e-11
1.32027e-11
3.33104e-12
3.23976e-12
2.83707e-13
1.8487e-12
8.80618e-12
2.31911e-11
4.98071e-11
7.5994e-11
1.25719e-10
2.35087e-10
3.55731e-10
4.51178e-10
4.92021e-10
3.9182e-10
2.28557e-10
1.1202e-10
4.96698e-11
6.71203e-12
1.33902e-12
1.4996e-12
1.2255e-12
1.96706e-13
9.11112e-13
4.52495e-12
1.40565e-11
2.92767e-11
5.40535e-11
8.58388e-11
1.23842e-10
1.66019e-10
2.06064e-10
2.12358e-10
1.81167e-10
1.22153e-10
6.95575e-11
2.52776e-11
2.37582e-12
6.4213e-13
4.73071e-13
3.0753e-13
1.46319e-13
4.02065e-13
1.81594e-12
5.90753e-12
1.31788e-11
2.31262e-11
3.59246e-11
4.94214e-11
6.24135e-11
7.07304e-11
7.09238e-11
6.19826e-11
4.4521e-11
2.7639e-11
8.12702e-12
8.86638e-13
2.47822e-13
8.77665e-14
5.12706e-14
1.04532e-13
1.76244e-13
5.63882e-13
1.66753e-12
3.77671e-12
6.91661e-12
1.0457e-11
1.4247e-11
1.73955e-11
1.93215e-11
1.84245e-11
1.59264e-11
1.07193e-11
4.42263e-12
7.31555e-13
1.12995e-13
4.56966e-14
1.73748e-14
4.53091e-15
7.08922e-14
8.40687e-14
1.65651e-13
3.68697e-13
7.87762e-13
1.5362e-12
2.53001e-12
3.36463e-12
4.03464e-12
4.3133e-12
4.16638e-12
3.66072e-12
2.54224e-12
1.00185e-12
1.44967e-13
3.87387e-14
7.30572e-15
1.86279e-15
5.74286e-16
4.29646e-14
4.13023e-14
5.08682e-14
7.7486e-14
1.23281e-13
2.12006e-13
3.59621e-13
5.52993e-13
6.50948e-13
6.90443e-13
6.74674e-13
5.97885e-13
4.14287e-13
1.59355e-13
2.76828e-14
2.93295e-15
8.37146e-16
2.87803e-16
7.89283e-17
2.22832e-14
1.87024e-14
1.72616e-14
1.73376e-14
2.00412e-14
2.81684e-14
4.538e-14
7.0189e-14
8.31507e-14
9.00825e-14
8.97338e-14
8.27067e-14
6.06417e-14
2.45702e-14
5.12412e-15
4.89245e-16
1.26342e-16
7.25464e-17
3.68402e-17
9.76292e-15
7.45849e-15
5.83778e-15
4.69185e-15
4.08977e-15
3.95453e-15
4.75263e-15
6.16273e-15
7.22161e-15
8.42873e-15
9.12703e-15
8.92264e-15
7.10195e-15
3.09626e-15
4.36161e-16
5.49751e-17
3.19091e-17
4.37473e-17
2.44357e-17
3.52085e-15
2.55535e-15
1.86458e-15
1.34136e-15
9.51929e-16
6.96358e-16
5.23816e-16
4.99449e-16
5.4924e-16
6.38539e-16
7.56001e-16
7.87556e-16
6.79485e-16
3.2954e-16
4.17233e-17
1.08571e-17
1.66468e-17
2.90449e-17
1.76374e-17
1.06866e-15
7.35612e-16
5.06886e-16
3.459e-16
2.33359e-16
1.51893e-16
7.90078e-17
4.79536e-17
4.46814e-17
4.85271e-17
5.69756e-17
6.15513e-17
3.81823e-17
1.63235e-17
4.90084e-18
4.98179e-18
8.94089e-18
1.79078e-17
1.26905e-17
2.70248e-16
1.74328e-16
1.12515e-16
7.04263e-17
4.73497e-17
2.31337e-17
1.18222e-17
7.6369e-18
4.94479e-18
3.90147e-18
3.93126e-18
2.57574e-18
1.53106e-18
8.26334e-19
1.19115e-18
2.18616e-18
4.82671e-18
1.06681e-17
9.20824e-18
5.97265e-17
3.49048e-17
2.06021e-17
1.34887e-17
5.89936e-18
1.98989e-18
1.05493e-18
8.14805e-19
5.92746e-19
3.8014e-19
1.90982e-19
1.34591e-19
1.23009e-19
2.00748e-19
4.66846e-19
1.13103e-18
2.78928e-18
7.83054e-18
5.90552e-18
1.09007e-17
5.81146e-18
3.5096e-18
1.56782e-18
4.09655e-19
8.16532e-20
4.97827e-20
4.64573e-20
4.41639e-20
3.41497e-20
2.66613e-20
4.11767e-20
8.00616e-20
1.60671e-19
3.33492e-19
7.68465e-19
1.92401e-18
4.97534e-18
3.97819e-18
1.66598e-18
8.38199e-19
4.44977e-19
1.15454e-19
1.40154e-20
1.72415e-21
1.86477e-21
2.85426e-21
4.77618e-21
8.88842e-21
1.87127e-20
3.9123e-20
8.03692e-20
1.55714e-19
2.89922e-19
6.43009e-19
1.52314e-18
3.37105e-18
2.15715e-18
2.06812e-19
1.07118e-19
2.91594e-20
3.26804e-21
2.25866e-22
2.5115e-22
5.48619e-22
1.40557e-21
3.45748e-21
8.32124e-21
1.89234e-20
4.06883e-20
8.12237e-20
1.50396e-19
2.60468e-19
5.60645e-19
1.22815e-18
1.86248e-18
1.37344e-18
2.43118e-20
6.65125e-21
6.95231e-22
5.89442e-23
7.30451e-23
1.81235e-22
5.04379e-22
1.34255e-21
3.39517e-21
8.32421e-21
1.91549e-20
4.10765e-20
8.01314e-20
1.38913e-19
2.41035e-19
4.89171e-19
8.56028e-19
1.23981e-18
6.50235e-19
1.89895e-21
2.60579e-22
1.54807e-23
1.94918e-23
5.54336e-23
1.6709e-22
4.74602e-22
1.29631e-21
3.28827e-21
7.91718e-21
1.81093e-20
3.82879e-20
7.25677e-20
1.27513e-19
2.26404e-19
3.90993e-19
6.21011e-19
6.2333e-19
3.9989e-19
4.78208e-23
2.74055e-24
4.35184e-24
1.50297e-23
4.95029e-23
1.5411e-22
4.43267e-22
1.18774e-21
3.0806e-21
7.44376e-21
1.69916e-20
3.56196e-20
6.72025e-20
1.1654e-19
1.88529e-19
2.92176e-19
3.93118e-19
3.97385e-19
1.60903e-19
2.89019e-25
7.98262e-25
3.39475e-24
1.31455e-23
4.32151e-23
1.34566e-22
3.85112e-22
1.0328e-21
2.62192e-21
6.31311e-21
1.42586e-20
2.95881e-20
5.50415e-20
9.53947e-20
1.46769e-19
2.12005e-19
2.5423e-19
1.76777e-19
8.8294e-20
1.14181e-25
6.81263e-25
2.90859e-24
1.08287e-23
3.53277e-23
1.0727e-22
3.04471e-22
8.0567e-22
2.03045e-21
4.85685e-21
1.08939e-20
2.23926e-20
4.14601e-20
6.90694e-20
1.05183e-19
1.33508e-19
1.27661e-19
9.92832e-20
3.07023e-20
1.06608e-25
5.52888e-25
2.2601e-24
7.92283e-24
2.54011e-23
7.51207e-23
2.08867e-22
5.49259e-22
1.37266e-21
3.25705e-21
7.27166e-21
1.4792e-20
2.72313e-20
4.53325e-20
6.13233e-20
8.04292e-20
6.8801e-20
3.47209e-20
1.70542e-20
8.86904e-26
3.99202e-25
1.46624e-24
4.7119e-24
1.44105e-23
4.07902e-23
1.13057e-22
3.01876e-22
7.52382e-22
1.82111e-21
4.11065e-21
8.43595e-21
1.55474e-20
2.58443e-20
3.33322e-20
4.17489e-20
2.73281e-20
1.64595e-20
9.13323e-21
5.69962e-26
2.1604e-25
7.07125e-25
2.12424e-24
6.25139e-24
1.79916e-23
4.98063e-23
1.3379e-22
3.47169e-22
8.53167e-22
1.95001e-21
3.99866e-21
7.33813e-21
1.22826e-20
1.62272e-20
1.88116e-20
1.02658e-20
7.10249e-21
3.94385e-21
2.06512e-26
6.26781e-26
1.80532e-25
4.96477e-25
1.5245e-24
4.7196e-24
1.37812e-23
3.7394e-23
9.64687e-23
2.39352e-22
5.49392e-22
1.15128e-21
2.13073e-21
3.45926e-21
4.5173e-21
4.95984e-21
2.93156e-21
1.77863e-21
5.75998e-22
)
;

boundaryField
{
    leftWall
    {
        type            alphaContactAngle;
        contactAngleProperties 
        {
            air             
            {
                theta0          90;
            }
            water           
            {
                theta0          90;
            }
            oil             
            {
                theta0          90;
            }
        }
        value           nonuniform List<scalar> 
50
(
1
1
1
1
1
1
0.781051
0.074639
3.0004e-10
2.99409e-10
3.17614e-10
3.82077e-10
3.71969e-10
4.28178e-10
4.66672e-10
4.61071e-10
4.08225e-10
2.79141e-10
1.77131e-10
1.23405e-10
1.14635e-10
1.1073e-10
1.06265e-10
9.73834e-11
8.06755e-11
6.29426e-11
4.5181e-11
3.11731e-11
2.2141e-11
1.5098e-11
1.05882e-11
7.20313e-12
4.67751e-12
2.96578e-12
1.74648e-12
9.89611e-13
5.24514e-13
2.64726e-13
1.17352e-13
4.56077e-14
1.61988e-14
4.49939e-15
1.03399e-15
2.6036e-16
4.87489e-17
6.8669e-18
6.22503e-19
3.41862e-20
4.05896e-22
8.32714e-28
)
;
    }
    rightWall
    {
        type            alphaContactAngle;
        contactAngleProperties 
        {
            air             
            {
                theta0          90;
            }
            water           
            {
                theta0          90;
            }
            oil             
            {
                theta0          90;
            }
        }
        value           nonuniform List<scalar> 
50
(
0.75146
0.751482
0.643149
0.511397
0.238519
0.0440842
1.61875e-15
7.89188e-08
9.25666e-07
0.000505545
0.00663859
0.00696329
0.00486787
0.000249939
0.000628874
0.000822491
1.12659e-05
9.91067e-10
8.85345e-10
3.14845e-10
1.41195e-10
7.86816e-11
4.89305e-11
2.18372e-11
7.21777e-12
3.23976e-12
1.2255e-12
3.0753e-13
5.12706e-14
4.53091e-15
5.74286e-16
7.89283e-17
3.68402e-17
2.44357e-17
1.76374e-17
1.26905e-17
9.20824e-18
5.90552e-18
3.97819e-18
2.15715e-18
1.37344e-18
6.50235e-19
3.9989e-19
1.60903e-19
8.8294e-20
3.07023e-20
1.70542e-20
9.13323e-21
3.94385e-21
5.75998e-22
)
;
    }
    lowerWall
    {
        type            alphaContactAngle;
        contactAngleProperties 
        {
            air             
            {
                theta0          90;
            }
            water           
            {
                theta0          90;
            }
            oil             
            {
                theta0          90;
            }
        }
        value           nonuniform List<scalar> 
62
(
1
1
1
1
1
1
1
1
1
1
1
1
1
1
1
1
1
1
1
0.999873
0.999581
0.999433
0.999433
0.999433
0.999719
1
1
1
0.65845
0.028597
6.95135e-21
0.00194077
0.0516844
0.0547906
0.054719
0.872241
0.540281
0.162764
0.177032
0.105
0.0726172
0.00252822
0.00922422
0.872241
0.875199
0.877581
0.877578
0.877575
0.877545
0.870309
0.709593
0.63629
0.636495
0.640889
0.626143
0.599576
0.599576
0.709148
0.75149
0.751486
0.751474
0.75146
)
;
    }
    atmosphere
    {
        type            inletOutlet;
        inletValue      uniform 0;
        value           nonuniform List<scalar> 
46
(
0
0
7.41563e-23
1.00104e-22
8.64594e-23
7.26087e-23
7.98759e-23
8.26008e-23
1.00321e-22
1.13877e-22
9.26224e-23
5.9633e-23
3.34446e-23
1.50474e-23
5.58381e-24
1.773e-24
5.58936e-25
1.70011e-25
4.41501e-26
1.00325e-26
9.41746e-28
0
0
0
0
0
0
0
0
0
0
0
0
0
0
0
0
0
0
0
0
0
0
0
0
0
)
;
    }
    defaultFaces
    {
        type            empty;
    }
}


// ************************************************************************* //
