/*--------------------------------*- C++ -*----------------------------------*\
  =========                 |
  \\      /  F ield         | OpenFOAM: The Open Source CFD Toolbox
   \\    /   O peration     | Website:  https://openfoam.org
    \\  /    A nd           | Version:  13
     \\/     M anipulation  |
\*---------------------------------------------------------------------------*/
FoamFile
{
    format      ascii;
    class       volScalarField;
    location    "2.25";
    object      epsilon;
}
// * * * * * * * * * * * * * * * * * * * * * * * * * * * * * * * * * * * * * //

dimensions      [0 2 -3 0 0 0 0];

internalField   nonuniform List<scalar> 
2268
(
0.00494994
0.0177959
0.0316177
0.0449114
0.0574815
0.0694475
0.0810106
0.0924263
0.104069
0.116475
0.129473
0.142414
0.154874
0.166231
0.175549
0.181734
0.183688
0.180187
0.169603
0.149583
0.116866
0.0687369
0.0111701
0.00833122
0.012376
0.0175627
0.0228385
0.0280814
0.0333578
0.0387466
0.0443189
0.0501467
0.0562934
0.0626958
0.0690648
0.0751762
0.0807246
0.0853128
0.0884963
0.089795
0.0886627
0.0844211
0.0761773
0.0628551
0.0439494
0.0233682
0.0134516
0.014012
0.0172327
0.0208193
0.0245312
0.0283899
0.032444
0.0367292
0.0412611
0.0460275
0.0509419
0.0558221
0.0604947
0.0647413
0.0682933
0.0708577
0.0721222
0.0717418
0.0693202
0.0643997
0.0565383
0.0459556
0.0422893
0.018187
0.0162341
0.0183894
0.021175
0.0242172
0.0274778
0.0309704
0.0347062
0.0386784
0.0428553
0.0471502
0.051412
0.0554905
0.0592099
0.0623636
0.0647338
0.0661018
0.066245
0.0649461
0.0620359
0.0575431
0.0525121
0.0634566
0.0224365
0.0183797
0.0198031
0.0221207
0.0248267
0.0278139
0.0310538
0.0345339
0.0382331
0.0421125
0.0460924
0.0500342
0.0538033
0.0572544
0.0602247
0.0625475
0.0640724
0.0646718
0.0642731
0.0629646
0.0612887
0.0615233
0.0880143
0.026346
0.0203438
0.0212178
0.0232708
0.0258487
0.0287643
0.0319429
0.0353473
0.0389432
0.0426873
0.046508
0.0502751
0.0538656
0.0571614
0.0600363
0.0623661
0.0640584
0.0650668
0.0654467
0.0655374
0.0665121
0.0727415
0.120532
0.0302529
0.0222348
0.0226524
0.024588
0.0271871
0.0301733
0.0334256
0.0368829
0.0404972
0.0442186
0.0479806
0.0516575
0.0551375
0.0583279
0.0611378
0.0634808
0.065317
0.0666734
0.0677155
0.069013
0.0724606
0.0859554
0.172763
0.0346657
0.0241464
0.0241482
0.0260845
0.0288209
0.0319874
0.0354209
0.0390359
0.0427685
0.0465566
0.0503354
0.0539731
0.0573693
0.060467
0.0632083
0.0655431
0.067472
0.069073
0.0705894
0.0727469
0.0779783
0.0984945
0.289496
0.010343
0.0718089
0.126475
0.167416
0.193936
0.209732
0.212457
0.204994
0.194499
0.182687
0.168293
0.148448
0.120323
0.100008
0.0871083
0.0729006
0.0568572
0.0378224
0.0114644
0.0227915
0.0443309
0.0651898
0.0826688
0.0953844
0.102697
0.105343
0.104278
0.0997367
0.0933688
0.0852563
0.0761312
0.0664047
0.0568068
0.047871
0.0397221
0.0319945
0.0246447
0.016687
0.0420389
0.0477087
0.0588176
0.06929
0.0773603
0.0827002
0.0849645
0.084168
0.0814123
0.0772678
0.0714368
0.0644061
0.0565524
0.0490853
0.0421437
0.0358426
0.0304194
0.0262552
0.0255948
0.0628568
0.0559982
0.0606047
0.066653
0.0719667
0.0756031
0.0770391
0.0762576
0.0742104
0.0717149
0.0674609
0.0613891
0.0537271
0.0468739
0.040846
0.0356672
0.0317197
0.0296088
0.0344185
0.0880484
0.0673661
0.065183
0.0674548
0.0706037
0.0729335
0.0735985
0.0724592
0.0702846
0.0680531
0.0650815
0.0611606
0.053544
0.0466366
0.0409965
0.0366185
0.0338006
0.0332886
0.0435179
0.128402
0.0825454
0.0712007
0.069695
0.0708091
0.0720058
0.0721576
0.070724
0.0683141
0.0656809
0.0625652
0.0595055
0.0542601
0.0473403
0.041803
0.0379838
0.0359529
0.0367319
0.0538875
0.204183
0.101304
0.0777228
0.0725407
0.0719055
0.0720083
0.0716196
0.0699752
0.0673499
0.0644763
0.0612391
0.0578145
0.053639
0.0480909
0.0428761
0.0393815
0.0377975
0.0393659
0.0635551
0.347496
0.117872
0.0832033
0.0753568
0.0734383
0.0725967
0.0715682
0.0696202
0.0668547
0.063891
0.0606484
0.0571382
0.0531202
0.0484389
0.0438703
0.0407073
0.0392871
0.0407771
0.0693006
0.0406582
0.0265587
0.026272
0.0284388
0.0315335
0.0350834
0.0388838
0.0428243
0.0468267
0.0508127
0.0547013
0.0583989
0.0618087
0.0649035
0.0676636
0.0700513
0.0720962
0.0739279
0.0758616
0.0786873
0.0846057
0.100737
0.157916
0.0518825
0.0295832
0.0294754
0.0321025
0.0355584
0.0394118
0.0435361
0.0478791
0.0523757
0.0569114
0.0613459
0.0655787
0.0694611
0.072963
0.0760266
0.0786006
0.0807491
0.0826602
0.084655
0.0873352
0.0920988
0.102127
0.124101
0.0605469
0.033177
0.0330944
0.0359962
0.0397752
0.044053
0.0487311
0.0537637
0.0590476
0.0643759
0.0695386
0.0743375
0.0786759
0.0825209
0.0857766
0.0883603
0.0903727
0.0920621
0.093697
0.0956428
0.0987531
0.104416
0.113804
0.0676405
0.0377791
0.0380916
0.0413836
0.0455876
0.0503844
0.0556626
0.061367
0.0673436
0.0732945
0.0789695
0.0841581
0.088723
0.0925942
0.0956525
0.0978305
0.0993251
0.100394
0.101207
0.101988
0.103314
0.105852
0.109504
0.0840699
0.0460826
0.0458166
0.0490448
0.0533732
0.0584171
0.0640147
0.0701016
0.076425
0.0825753
0.0882951
0.0933958
0.0977687
0.101281
0.103707
0.105093
0.105783
0.105983
0.105831
0.105601
0.105656
0.106254
0.107024
0.121186
0.0586986
0.0558591
0.0581013
0.0619427
0.0667262
0.0721644
0.0781105
0.0842138
0.0900184
0.0952888
0.099886
0.103709
0.106627
0.108504
0.109405
0.109604
0.109254
0.108538
0.107738
0.107059
0.106535
0.105767
0.159537
0.0702142
0.0652503
0.0665045
0.0693964
0.0734672
0.0784403
0.0839847
0.0896506
0.0949668
0.0997035
0.103797
0.107182
0.109743
0.111389
0.112161
0.112211
0.111658
0.110702
0.109593
0.10844
0.107172
0.105515
0.186545
0.0825427
0.0792711
0.0780068
0.0779095
0.0801912
0.0843231
0.0892536
0.094315
0.0990419
0.103221
0.106813
0.109783
0.112053
0.113539
0.114246
0.11426
0.113675
0.112653
0.111393
0.109938
0.108192
0.106054
0.209747
0.10546
0.113087
0.102741
0.0917747
0.0897115
0.0921799
0.0958895
0.099876
0.103687
0.106998
0.109891
0.11233
0.114216
0.115474
0.116091
0.116112
0.115595
0.114614
0.113299
0.111682
0.109694
0.107366
0.178546
0.0992315
0.116716
0.111148
0.103669
0.102244
0.103764
0.105471
0.107672
0.110103
0.111909
0.113686
0.115345
0.116713
0.117656
0.118145
0.118168
0.11773
0.116832
0.115509
0.11377
0.111674
0.109448
0.135908
0.0915336
0.0946188
0.0932406
0.094946
0.100782
0.105901
0.109615
0.113112
0.116787
0.117586
0.117799
0.118655
0.119566
0.120239
0.120623
0.120615
0.12016
0.119293
0.117906
0.11583
0.11322
0.111046
0.130781
0.0824375
0.0812501
0.0811467
0.0831805
0.0890069
0.0958478
0.102047
0.107987
0.112824
0.115816
0.117619
0.118192
0.119138
0.119567
0.119547
0.119195
0.11858
0.117643
0.116308
0.114631
0.112784
0.11119
0.133092
0.0782905
0.0744785
0.0731551
0.0748494
0.0796729
0.0860017
0.0923838
0.0978998
0.102735
0.107132
0.110446
0.113692
0.115951
0.117033
0.117333
0.117178
0.116703
0.115932
0.114987
0.113955
0.112687
0.110913
0.132235
0.0761037
0.0695391
0.0677506
0.0687722
0.0723
0.0773359
0.0827972
0.0879471
0.0926754
0.0971615
0.101658
0.105745
0.108841
0.110875
0.112135
0.112848
0.113137
0.11309
0.112831
0.112376
0.111499
0.109992
0.134109
0.0749475
0.0664512
0.0641736
0.064543
0.0669235
0.0706677
0.0750799
0.0796214
0.0841139
0.0886022
0.0931176
0.0973755
0.100951
0.103719
0.105796
0.107319
0.108385
0.109064
0.10943
0.109457
0.108913
0.107565
0.135435
0.0742415
0.0642645
0.0615545
0.0614882
0.0631036
0.0659002
0.0694275
0.0733134
0.0773482
0.0814706
0.08562
0.0896238
0.0932177
0.0962976
0.0988276
0.100866
0.102465
0.103665
0.104487
0.104879
0.104648
0.103642
0.135196
0.0728368
0.0620992
0.0591756
0.0589157
0.0601266
0.0623313
0.0652008
0.0684719
0.0719653
0.0755767
0.0792065
0.0827416
0.0860775
0.0890846
0.0917139
0.0939457
0.095788
0.0972559
0.0983406
0.0989845
0.099047
0.0984306
0.133222
0.0705821
0.0596525
0.0567005
0.0563979
0.0574252
0.0592881
0.0617064
0.0644788
0.0674655
0.070567
0.0736919
0.076755
0.0796891
0.0824267
0.0848935
0.087061
0.0889174
0.0904445
0.0916245
0.0924095
0.0927012
0.0924315
0.129686
0.0677156
0.0569418
0.0540588
0.053772
0.0547173
0.056382
0.0585036
0.0609144
0.0635018
0.0661834
0.0688849
0.0715358
0.0740767
0.0764636
0.078661
0.0806262
0.0823406
0.083789
0.0849469
0.085775
0.0862073
0.0861918
0.124889
0.0644912
0.0540706
0.0512967
0.0510329
0.0519278
0.0534646
0.0553886
0.057549
0.0598481
0.0622152
0.0645877
0.0669064
0.0691204
0.0711915
0.0730969
0.0748217
0.0763407
0.0776409
0.0787046
0.0795082
0.0800067
0.0801523
0.119159
0.0610774
0.0511311
0.0484841
0.0482341
0.0490799
0.050516
0.0522956
0.0542766
0.0563686
0.058506
0.0606334
0.0626998
0.0646613
0.0664854
0.0681521
0.0696524
0.070982
0.072126
0.0730764
0.0738202
0.0743313
0.0745686
0.11276
0.0575741
0.0481825
0.0456768
0.0454341
0.0462248
0.0475675
0.049226
0.0510653
0.0529988
0.0549637
0.0569084
0.0587872
0.060562
0.0622043
0.0636962
0.0650297
0.0662041
0.067219
0.0680682
0.06875
0.06925
0.0695388
0.105906
0.0540392
0.0452586
0.042911
0.0426776
0.0434115
0.0446626
0.0462094
0.0479244
0.049725
0.0515508
0.053353
0.0550901
0.0567276
0.0582398
0.0596101
0.0608307
0.0619007
0.0628246
0.0636018
0.0642369
0.064726
0.0650505
0.0987926
0.050513
0.0423811
0.0402104
0.0399961
0.0406788
0.0418429
0.043284
0.0448837
0.0465647
0.0482699
0.0499535
0.0515775
0.0531104
0.0545283
0.0558154
0.0569632
0.0579702
0.0588396
0.0595771
0.0601885
0.0606779
0.0610358
0.0915829
0.0470331
0.0395702
0.0375941
0.0374139
0.0380574
0.0391445
0.0404885
0.0419814
0.0435521
0.045148
0.0467274
0.0482554
0.0497033
0.0510489
0.0522768
0.053378
0.0543494
0.0551931
0.0559152
0.0565235
0.0570259
0.0574203
0.0844428
0.0436412
0.0368507
0.035083
0.0349539
0.0355747
0.0365996
0.0378595
0.0392567
0.0407273
0.042224
0.0437092
0.045152
0.0465265
0.0478123
0.0489944
0.0500634
0.051015
0.0518496
0.0525724
0.0531917
0.0537171
0.054151
0.0775277
0.0403846
0.0342546
0.0327041
0.0326421
0.0332584
0.034239
0.0354311
0.0367472
0.0381301
0.0395383
0.0409391
0.0423051
0.0436137
0.0448466
0.0459898
0.0470335
0.0479726
0.0488059
0.049538
0.050176
0.0507297
0.0512041
0.0709992
0.0373182
0.0318223
0.0304924
0.030511
0.0311401
0.0320947
0.0332365
0.0344872
0.0357965
0.0371283
0.0384544
0.0397517
0.0410008
0.0421855
0.0432933
0.0443147
0.0452441
0.0460791
0.0468239
0.0474838
0.0480678
0.0485819
0.0650214
0.0345087
0.0296053
0.0284929
0.0286011
0.0292569
0.0302008
0.0313079
0.0325081
0.0337573
0.0350245
0.036286
0.0375225
0.0387178
0.0398586
0.0409336
0.0419344
0.0428554
0.0436939
0.0444525
0.0451355
0.0457507
0.0463038
0.0597733
0.0320355
0.0276671
0.0267605
0.0269605
0.0276506
0.0285939
0.0296772
0.030838
0.0320376
0.0332498
0.034455
0.0356378
0.0367851
0.037886
0.0389314
0.039914
0.0408286
0.0416726
0.0424474
0.043156
0.0438048
0.0443986
0.0554279
0.0299907
0.0260813
0.0253578
0.0256424
0.0263659
0.0273108
0.0283741
0.0295001
0.0306555
0.0318184
0.0329731
0.0341074
0.0352114
0.0362768
0.0372965
0.0382647
0.0391772
0.0400318
0.0408286
0.0415691
0.0422578
0.0428981
0.0521278
0.0284693
0.0249253
0.0243496
0.0247004
0.025446
0.0263848
0.027423
0.0285113
0.0296214
0.0307354
0.0318411
0.0329296
0.0339938
0.0350279
0.0360272
0.0369877
0.0379062
0.0387813
0.0396114
0.0403964
0.0411379
0.0418371
0.0499502
0.0275549
0.0242713
0.0237964
0.0241836
0.0249284
0.0258425
0.0268405
0.0278795
0.0289358
0.0299954
0.0310494
0.0320919
0.0331183
0.0341256
0.0351117
0.0360747
0.0370131
0.0379255
0.0388089
0.0396602
0.040477
0.0412562
0.0488935
0.0273078
0.0241804
0.0237512
0.0241335
0.0248423
0.025701
0.0266329
0.0276015
0.0285881
0.0295822
0.0305777
0.0315711
0.0325608
0.0335465
0.0345292
0.0355103
0.0364904
0.037468
0.0384374
0.0393904
0.0403175
0.0412095
0.0488727
0.0277664
0.0247074
0.0242644
0.0245876
0.0252095
0.0259671
0.0267944
0.0276621
0.0285557
0.0294678
0.0303943
0.0313339
0.0322875
0.0332585
0.0342524
0.0352753
0.0363311
0.037418
0.0385252
0.0396343
0.0407242
0.0417756
0.0497475
0.0289733
0.0259285
0.0254049
0.0255913
0.0260495
0.0266388
0.027307
0.0280319
0.0288024
0.0296119
0.0304568
0.031337
0.0322561
0.0332225
0.0342489
0.0353493
0.0365337
0.0377998
0.0391256
0.0404732
0.0418013
0.043075
0.0513833
0.0310657
0.0280262
0.0273148
0.027225
0.0273895
0.027706
0.028138
0.0286665
0.0292779
0.0299617
0.0307119
0.0315278
0.0324162
0.0333929
0.0344824
0.0357139
0.0371096
0.0386667
0.0403391
0.0420488
0.0437194
0.0452947
0.0539361
0.0346361
0.0315518
0.0303416
0.0296525
0.0292736
0.029148
0.0292364
0.0295028
0.029916
0.0304522
0.0310967
0.0318461
0.0327106
0.0337177
0.0349126
0.0363537
0.0380908
0.040124
0.0423521
0.0446089
0.0467613
0.0487271
0.0593999
0.0423559
0.0382348
0.0353155
0.0331768
0.0317546
0.0309157
0.0305198
0.0304531
0.0306337
0.0310067
0.0315405
0.0322254
0.0330761
0.0341378
0.0354916
0.0372527
0.0395396
0.0423763
0.0455141
0.0485904
0.0514007
0.0538328
0.0834499
0.0656639
0.0529133
0.0438508
0.0381741
0.0348058
0.0328809
0.0318528
0.0313989
0.0313309
0.0315402
0.0319684
0.0325965
0.033445
0.034584
0.0361525
0.0383781
0.0415622
0.0458744
0.0505272
0.0547813
0.0584515
0.0613508
0.278933
0.135652
0.0833177
0.0572257
0.0444517
0.0380531
0.0347419
0.0330209
0.032188
0.0318959
0.0319656
0.032308
0.0328932
0.0337479
0.0349731
0.0367897
0.0396359
0.0443415
0.052045
0.0590562
0.0646649
0.0693478
0.0724622
1.57288
0.211971
0.117377
0.0704008
0.0496953
0.0404105
0.035962
0.0337363
0.0326508
0.0322184
0.0322045
0.0324968
0.033058
0.0339195
0.0352074
0.0372271
0.0407323
0.0479814
0.0676919
0.0762923
0.0815918
0.0865889
0.0887769
0.408591
0.31686
0.314692
0.390471
0.153143
0.154859
0.154837
0.152068
0.121177
0.12346
0.122979
0.119654
0.111429
0.111621
0.110475
0.108063
0.106683
0.105879
0.104441
0.10246
0.104387
0.103168
0.101648
0.0999057
0.103702
0.102354
0.100857
0.0992713
0.10411
0.102774
0.101376
0.0999493
0.105549
0.104372
0.103156
0.101902
0.108121
0.107388
0.10654
0.105603
0.110742
0.110697
0.110179
0.108483
0.109791
0.108727
0.107586
0.106208
0.109422
0.108104
0.106575
0.105104
0.108282
0.106924
0.105449
0.104019
0.106015
0.104866
0.10365
0.10243
0.102443
0.101594
0.1007
0.0997529
0.0976325
0.0970766
0.0964777
0.0957965
0.0919709
0.0916452
0.0912763
0.0908165
0.085972
0.0858038
0.0855951
0.0853012
0.0800826
0.0800104
0.0799034
0.0797251
0.0745873
0.0745686
0.0745208
0.0744164
0.0696098
0.0696203
0.069606
0.0695484
0.0651566
0.0651854
0.0651926
0.0651668
0.0611716
0.0612161
0.061241
0.0612408
0.0575867
0.0576485
0.0576918
0.0577153
0.0543498
0.0544316
0.0544953
0.0545426
0.051437
0.0515409
0.0516271
0.0516989
0.0488492
0.0489766
0.0490866
0.0491832
0.046606
0.046758
0.0468928
0.0470144
0.0447371
0.0449152
0.0450762
0.0452241
0.0432778
0.0434848
0.0436749
0.0438515
0.0422664
0.0425078
0.042732
0.0429417
0.0417494
0.0420336
0.0422997
0.0425494
0.0417871
0.0421265
0.0424456
0.0427451
0.0424663
0.0428772
0.0432635
0.0436251
0.0439146
0.0444166
0.0448867
0.0453243
0.0463234
0.0469373
0.0475074
0.0480333
0.0499794
0.0507199
0.0513994
0.0520188
0.0553131
0.0561733
0.0569506
0.0576499
0.0629745
0.0638916
0.0647063
0.0654322
0.0739414
0.0747364
0.0754339
0.0760596
0.0894877
0.0898292
0.0901336
0.090428
0.18272
0.111591
0.0875061
0.0790783
0.0759739
0.0739794
0.071942
0.0694712
0.0666041
0.063618
0.0604144
0.0569586
0.0532098
0.049196
0.0454714
0.0427347
0.0411756
0.0414784
0.0649897
0.127029
0.101646
0.0882444
0.0817296
0.0783907
0.0758389
0.0732113
0.0703291
0.0673406
0.064344
0.0612537
0.0579926
0.0544934
0.0508525
0.0474496
0.0446486
0.0424541
0.0412177
0.0530877
0.110135
0.0969562
0.0883474
0.0832564
0.0800824
0.0774693
0.0746464
0.071583
0.0685291
0.0655962
0.0627022
0.0597132
0.0564875
0.0529969
0.0494255
0.0460039
0.0428547
0.0405097
0.0501104
0.102546
0.0944284
0.0884118
0.0843275
0.0814129
0.0787948
0.0759472
0.072883
0.0698479
0.0670231
0.064363
0.0617132
0.0588957
0.0557167
0.0520766
0.0480864
0.0440651
0.0405894
0.0518271
0.0986016
0.0930649
0.0885613
0.0851233
0.0823749
0.0797977
0.0770485
0.0741114
0.071184
0.0684747
0.0660098
0.0636811
0.061318
0.0586515
0.0553429
0.0512022
0.0463476
0.041928
0.0576769
0.0968556
0.0926492
0.0890147
0.0859682
0.0833106
0.0807601
0.0781043
0.075308
0.0725071
0.0698891
0.0675305
0.0653798
0.0633071
0.0610243
0.0581086
0.0541039
0.0488375
0.0426972
0.0530511
0.0966497
0.093132
0.0899728
0.0871544
0.0845532
0.0820105
0.0793964
0.0766816
0.0739608
0.0713881
0.0690652
0.0669865
0.0650263
0.0628478
0.0600217
0.056231
0.0511351
0.0445942
0.050753
0.0976411
0.094499
0.0915819
0.0889007
0.0863573
0.0838271
0.0812049
0.0784814
0.0757558
0.0731789
0.070877
0.0689048
0.0672073
0.0653861
0.0629641
0.0598031
0.0559762
0.0513534
0.0657868
0.0998226
0.096818
0.0939598
0.0913822
0.0889449
0.0864729
0.0837987
0.0809478
0.0781074
0.0754978
0.0732667
0.0714639
0.0699886
0.0685201
0.0667998
0.0647499
0.0626172
0.0614746
0.0764321
0.103634
0.100327
0.0971979
0.0947484
0.0925552
0.0902591
0.0874452
0.0842148
0.0809808
0.0781841
0.0761252
0.0747858
0.0728831
0.070235
0.068372
0.0670537
0.0664946
0.0722133
0.0990371
0.10564
0.101924
0.0987843
0.0963723
0.0944377
0.0924921
0.0900332
0.086813
0.0832382
0.0801501
0.0779048
0.0760005
0.0732042
0.0699688
0.0678086
0.0665021
0.0679455
0.0770022
0.117891
0.103836
0.100631
0.0978256
0.0953936
0.093258
0.091304
0.0892158
0.0866943
0.0836462
0.0804548
0.0776896
0.074756
0.0715062
0.0686994
0.0668931
0.0664358
0.068741
0.0785999
0.130752
0.103017
0.100275
0.0976771
0.0951202
0.0925727
0.0901179
0.0877613
0.085429
0.0829409
0.0800743
0.0768811
0.0733791
0.0701134
0.067669
0.0662663
0.066025
0.0683948
0.079128
0.13938
0.102012
0.099581
0.0971757
0.0945802
0.0917854
0.0889438
0.0863345
0.0839786
0.081652
0.078943
0.0755891
0.0719441
0.0687455
0.0663893
0.0649204
0.0646601
0.067229
0.0787518
0.145571
0.100566
0.0981804
0.0958048
0.0931756
0.0902745
0.0872924
0.0845469
0.0821005
0.0797205
0.0769903
0.0736747
0.0701708
0.0670589
0.0646455
0.0630754
0.0628322
0.0656344
0.0778504
0.149842
0.0981196
0.0957581
0.0933607
0.0907408
0.0878607
0.0849056
0.0821179
0.0795715
0.0770841
0.0743425
0.0712105
0.0679684
0.065021
0.0626408
0.0610764
0.060935
0.0639676
0.0766647
0.152236
0.0944473
0.092214
0.0898791
0.0873533
0.0846183
0.0818011
0.0790796
0.0765111
0.0739815
0.0713025
0.0684085
0.0654735
0.0627681
0.0605378
0.0590911
0.0590888
0.0622874
0.075247
0.152853
0.0897581
0.0877637
0.0856103
0.0832812
0.0807776
0.0781892
0.0756318
0.0731512
0.0706907
0.0681532
0.0655161
0.0628895
0.0604587
0.0584393
0.0571557
0.0572824
0.060555
0.0734995
0.151691
0.0845006
0.0828041
0.080916
0.0788576
0.0766437
0.0743379
0.0720166
0.0697165
0.0674171
0.0650776
0.0626991
0.0603603
0.0581944
0.0563894
0.0552608
0.0554636
0.0586884
0.0713599
0.148876
0.079136
0.0777413
0.0761458
0.0743869
0.0724838
0.0704822
0.0684332
0.0663657
0.0642792
0.0621643
0.0600353
0.0579503
0.0560127
0.0543877
0.0533723
0.0535915
0.056673
0.0688676
0.144583
0.073989
0.0728695
0.0715569
0.0700909
0.0684892
0.0667836
0.0650084
0.0631866
0.0613265
0.0594333
0.0575266
0.0556538
0.0539002
0.0524127
0.0514677
0.051656
0.0545324
0.0661192
0.139217
0.0692404
0.0683553
0.0672937
0.0660898
0.0647577
0.0633185
0.061795
0.0602043
0.0585573
0.0568648
0.0551474
0.0534464
0.0518356
0.0504481
0.0495406
0.04967
0.0523148
0.0632342
0.133194
0.0649489
0.0642566
0.0634059
0.062424
0.0613207
0.0601088
0.0588024
0.0574136
0.0559526
0.0544312
0.0528699
0.0513058
0.0498053
0.0484908
0.0476023
0.0476653
0.050082
0.0603353
0.126938
0.0610965
0.060562
0.0598845
0.059085
0.0581697
0.0571453
0.0560191
0.054799
0.0534933
0.0521136
0.0506793
0.0492249
0.047812
0.0465552
0.0456807
0.0456858
0.0479017
0.0575374
0.120781
0.0576347
0.0572317
0.0566968
0.0560464
0.0552842
0.0544121
0.0534329
0.0523511
0.0511731
0.0499099
0.0485801
0.0472164
0.0458775
0.0446725
0.0438167
0.0437837
0.0458394
0.0549365
0.115037
0.0545203
0.0542294
0.0538139
0.0532869
0.0526502
0.0519026
0.0510439
0.0500759
0.049004
0.0478383
0.046597
0.0453121
0.0440406
0.0428878
0.0420606
0.0420127
0.043954
0.0526061
0.109873
0.0517303
0.0515373
0.0512244
0.0508021
0.0502708
0.0496274
0.0488695
0.0479976
0.047016
0.0459347
0.0447718
0.043559
0.0423524
0.0412548
0.0404668
0.0404263
0.0422954
0.0505977
0.105465
0.0492655
0.0491602
0.0489382
0.0486077
0.0481679
0.0476145
0.046944
0.0461559
0.0452544
0.0442492
0.0431587
0.0420146
0.0408724
0.0398331
0.0390928
0.0390763
0.0409076
0.0489476
0.101846
0.0471456
0.0471214
0.046983
0.0467359
0.0463786
0.0459061
0.0453144
0.0446026
0.0437749
0.0428412
0.0418199
0.0407429
0.0396653
0.0386866
0.0379987
0.0380167
0.0398347
0.0476894
0.099123
0.0454041
0.0454581
0.0453994
0.0452313
0.0449514
0.0445546
0.0440366
0.043397
0.0426399
0.0417755
0.0408226
0.0398127
0.0388005
0.0378838
0.0372509
0.0373087
0.03913
0.0468671
0.0973061
0.0440826
0.0442159
0.0442369
0.0441465
0.0439421
0.0436186
0.0431723
0.0426032
0.041916
0.0411213
0.0402379
0.0392973
0.0383534
0.0375018
0.0369271
0.0370296
0.0388686
0.0465546
0.096557
0.0432302
0.0434482
0.0435523
0.0435415
0.0434131
0.0431627
0.042788
0.0422899
0.0416739
0.0409515
0.0401417
0.0392761
0.0384075
0.0376295
0.0371226
0.0372814
0.0391592
0.0468681
0.096981
0.0429053
0.0432183
0.043412
0.0434846
0.0434343
0.0432586
0.0429569
0.0425318
0.0419906
0.0413456
0.0406171
0.0398372
0.0390584
0.0383728
0.0379572
0.0382013
0.0401595
0.0479927
0.098918
0.0431826
0.0436043
0.0438963
0.0440573
0.0440879
0.0439887
0.0437621
0.0434133
0.0429518
0.0423921
0.0417568
0.0410798
0.0404157
0.0398572
0.0395799
0.0399705
0.042091
0.0501977
0.102703
0.0441617
0.0447077
0.0451068
0.0453603
0.0454736
0.045452
0.0453021
0.0450329
0.0446571
0.0441928
0.0436661
0.0431162
0.0426037
0.042228
0.0421705
0.0428221
0.0452607
0.0538894
0.109055
0.0459786
0.0466634
0.0471752
0.0475218
0.047716
0.0477703
0.0476969
0.0475095
0.0472251
0.0468663
0.0464656
0.0460714
0.0457579
0.0456433
0.0459321
0.0470405
0.0500845
0.0596698
0.118922
0.0488205
0.0496515
0.0502739
0.0507064
0.0509735
0.0510969
0.0510959
0.0509895
0.0507992
0.0505534
0.0502933
0.0500818
0.050017
0.0502566
0.0510647
0.05294
0.0571106
0.0684997
0.134283
0.0529421
0.0539114
0.0546271
0.0551258
0.0554477
0.055626
0.0556873
0.0556555
0.0555564
0.0554241
0.0553094
0.0552936
0.0555107
0.0561856
0.0577055
0.0607822
0.0669897
0.081942
0.158839
0.0586855
0.0597556
0.0605233
0.0610498
0.0613952
0.0616045
0.0617101
0.061739
0.0617193
0.0616884
0.0617049
0.0618678
0.0623513
0.0634718
0.0658214
0.0705643
0.0802461
0.102612
0.201718
0.0665044
0.0675867
0.0683278
0.0688198
0.0691423
0.0693479
0.069471
0.0695375
0.0695739
0.0696162
0.0697233
0.0700007
0.0706478
0.0720611
0.0750756
0.0815843
0.0963673
0.134289
0.288836
0.0769981
0.0779122
0.078496
0.0788648
0.079104
0.079262
0.079367
0.0794383
0.0794955
0.0795658
0.0796957
0.0799723
0.0805715
0.0818767
0.0848076
0.0918709
0.111221
0.177847
0.521884
0.0909085
0.0913402
0.0915832
0.091725
0.0918156
0.0918778
0.0919229
0.0919583
0.0919915
0.0920334
0.0921029
0.0922365
0.0925111
0.0931067
0.0945176
0.0984298
0.11257
0.195641
1.46394
)
;

boundaryField
{
    leftWall
    {
        type            epsilonWallFunction;
        value           nonuniform List<scalar> 
50
(
0.00494994
0.00833122
0.0134516
0.018187
0.0224365
0.026346
0.0302529
0.0346657
0.0406582
0.0518825
0.0605469
0.0676405
0.0840699
0.121186
0.159537
0.186545
0.209747
0.178546
0.135908
0.130781
0.133092
0.132235
0.134109
0.135435
0.135196
0.133222
0.129686
0.124889
0.119159
0.11276
0.105906
0.0987926
0.0915829
0.0844428
0.0775277
0.0709992
0.0650214
0.0597733
0.0554279
0.0521278
0.0499502
0.0488935
0.0488727
0.0497475
0.0513833
0.0539361
0.0593999
0.0834499
0.278933
1.57288
)
;
    }
    rightWall
    {
        type            epsilonWallFunction;
        value           nonuniform List<scalar> 
50
(
0.0114644
0.016687
0.0255948
0.0344185
0.0435179
0.0538875
0.0635551
0.0693006
0.0649897
0.0530877
0.0501104
0.0518271
0.0576769
0.0530511
0.050753
0.0657868
0.0764321
0.0990371
0.117891
0.130752
0.13938
0.145571
0.149842
0.152236
0.152853
0.151691
0.148876
0.144583
0.139217
0.133194
0.126938
0.120781
0.115037
0.109873
0.105465
0.101846
0.099123
0.0973061
0.096557
0.096981
0.098918
0.102703
0.109055
0.118922
0.134283
0.158839
0.201718
0.288836
0.521884
1.46394
)
;
    }
    lowerWall
    {
        type            epsilonWallFunction;
        value           nonuniform List<scalar> 
62
(
0.00494994
0.0177959
0.0316177
0.0449114
0.0574815
0.0694475
0.0810106
0.0924263
0.104069
0.116475
0.129473
0.142414
0.154874
0.166231
0.175549
0.181734
0.183688
0.180187
0.169603
0.149583
0.116866
0.0687369
0.0111701
0.0111701
0.0233682
0.0422893
0.0634566
0.0880143
0.120532
0.172763
0.289496
0.408591
0.31686
0.314692
0.390471
0.010343
0.0227915
0.0420389
0.0628568
0.0880484
0.128402
0.204183
0.347496
0.010343
0.0718089
0.126475
0.167416
0.193936
0.209732
0.212457
0.204994
0.194499
0.182687
0.168293
0.148448
0.120323
0.100008
0.0871083
0.0729006
0.0568572
0.0378224
0.0114644
)
;
    }
    atmosphere
    {
        type            inletOutlet;
        inletValue      uniform 0.1;
        value           nonuniform List<scalar> 
46
(
0.1
0.1
0.117377
0.0704008
0.0496953
0.0404105
0.035962
0.0337363
0.0326508
0.0322184
0.0322045
0.0324968
0.033058
0.0339195
0.0352074
0.0372271
0.0407323
0.0479814
0.1
0.1
0.1
0.1
0.1
0.1
0.1
0.1
0.1
0.1
0.1
0.1
0.1
0.1
0.1
0.1
0.1
0.1
0.1
0.1
0.1
0.1
0.1
0.1
0.1
0.1
0.1
0.1
)
;
    }
    defaultFaces
    {
        type            empty;
    }
}


// ************************************************************************* //
