/*--------------------------------*- C++ -*----------------------------------*\
  =========                 |
  \\      /  F ield         | OpenFOAM: The Open Source CFD Toolbox
   \\    /   O peration     | Website:  https://openfoam.org
    \\  /    A nd           | Version:  13
     \\/     M anipulation  |
\*---------------------------------------------------------------------------*/
FoamFile
{
    format      ascii;
    class       volScalarField;
    location    "2.25";
    object      nut;
}
// * * * * * * * * * * * * * * * * * * * * * * * * * * * * * * * * * * * * * //

dimensions      [0 2 -1 0 0 0 0];

internalField   nonuniform List<scalar> 
2268
(
2.20926e-05
3.42351e-05
4.17138e-05
4.689e-05
5.07641e-05
5.38515e-05
5.64548e-05
5.87627e-05
6.0893e-05
6.29152e-05
6.51027e-05
6.71839e-05
6.90788e-05
7.07225e-05
7.20279e-05
7.28869e-05
7.31841e-05
7.27714e-05
7.1399e-05
6.85922e-05
6.33584e-05
5.33605e-05
2.91308e-05
7.13859e-05
0.000267823
0.000375
0.000440295
0.000484647
0.000517821
0.000545205
0.00056986
0.000593246
0.000615458
0.00063623
0.000656323
0.000675027
0.000691582
0.00070492
0.000713663
0.000716484
0.000711607
0.000695716
0.00066213
0.000596083
0.00045913
0.000102005
8.35613e-05
0.000426327
0.000658153
0.000811979
0.000921284
0.00100477
0.0010736
0.0011345
0.00119124
0.00124519
0.0012964
0.00134436
0.00138728
0.00142341
0.0014506
0.00146609
0.00146683
0.00144829
0.00140186
0.00131018
0.00113659
0.000798514
0.000124544
9.23169e-05
0.000532741
0.000867178
0.00110387
0.00128007
0.00141933
0.00153631
0.00164006
0.00173573
0.00182543
0.00190952
0.00198619
0.00205266
0.00210634
0.00214431
0.00216267
0.00215657
0.00211839
0.0020337
0.00187398
0.00158216
0.00104565
0.000142576
9.90634e-05
0.000613968
0.00103525
0.00134655
0.00158645
0.00178143
0.00194821
0.00209694
0.0022331
0.00235885
0.00247456
0.00257755
0.00266429
0.00273168
0.00277635
0.00279361
0.00277701
0.00271604
0.00259094
0.00236321
0.00195806
0.001241
0.000158713
0.000104712
0.000681518
0.0011806
0.00156003
0.00185973
0.00210847
0.00232419
0.00251731
0.00269299
0.00285298
0.00299733
0.00312304
0.00322611
0.0033032
0.0033508
0.00336376
0.00333441
0.00324997
0.00308653
0.00279768
0.00229278
0.00141335
0.000175538
0.000110011
0.000740822
0.00131381
0.0017568
0.00211258
0.00241231
0.00267467
0.00290981
0.00312221
0.00331312
0.00348236
0.00362682
0.00374231
0.00382557
0.00387313
0.0038797
0.00383686
0.00373043
0.00353402
0.00319625
0.00261335
0.00159085
0.000196542
0.000115618
0.000798698
0.00144324
0.00194555
0.00235356
0.00270102
0.00300678
0.00328035
0.00352545
0.00374281
0.00393286
0.00409215
0.00421652
0.00430311
0.00434861
0.00434783
0.00429211
0.00416674
0.00394483
0.00357425
0.00294653
0.00182172
0.000231545
2.86693e-05
5.43731e-05
6.48135e-05
7.0411e-05
7.35821e-05
7.53293e-05
7.55306e-05
7.44966e-05
7.35095e-05
7.21834e-05
7.02939e-05
6.72375e-05
6.23846e-05
5.87913e-05
5.63936e-05
5.36217e-05
4.95386e-05
4.32188e-05
2.88385e-05
0.000116441
0.000478199
0.000622398
0.000691926
0.000717411
0.000733466
0.000729125
0.000706699
0.000695531
0.000684746
0.000671057
0.000636113
0.000559809
0.000512303
0.000502688
0.0004678
0.000411421
0.000305241
0.000102239
0.000141997
0.000801411
0.0011641
0.0013496
0.00142504
0.00144941
0.0014428
0.00141765
0.00138411
0.00134339
0.00129693
0.00122354
0.00110718
0.00101062
0.000948948
0.000862157
0.000724392
0.000474048
0.000118166
0.000162077
0.00101057
0.00158578
0.00189744
0.00203789
0.00207924
0.00207561
0.00204701
0.00198911
0.00191115
0.00182891
0.00172582
0.00158658
0.00144871
0.001331
0.0011875
0.000974764
0.000605655
0.000130736
0.000182178
0.00114527
0.00191802
0.0023518
0.00255989
0.00262826
0.00263077
0.00259436
0.00251262
0.00239327
0.00227779
0.00215013
0.00199632
0.00182686
0.00165898
0.00146376
0.00119089
0.000751188
0.000141744
0.000207585
0.00124206
0.00219409
0.00274088
0.00300823
0.00310541
0.00311502
0.00306935
0.00296668
0.00281298
0.0026634
0.0025054
0.00234165
0.00214891
0.00193866
0.00169809
0.00137269
0.000874375
0.000153059
0.000241434
0.0013452
0.00245079
0.00308873
0.00340023
0.00352104
0.0035354
0.00347911
0.00335853
0.00318266
0.00300544
0.00281645
0.00262841
0.00241871
0.00217477
0.00189171
0.00151541
0.000946637
0.000158978
0.000284264
0.00152976
0.00273389
0.00341566
0.00375061
0.00388529
0.00390027
0.00383315
0.0036973
0.00350653
0.00330668
0.00309343
0.00287614
0.00264255
0.00237059
0.00204728
0.0016189
0.000985302
0.000159764
0.000122534
0.000892771
0.0016353
0.00222076
0.00270398
0.00312156
0.00349155
0.00382184
0.00411494
0.00437054
0.00458742
0.00476451
0.00489867
0.00498778
0.00502898
0.00501716
0.00494382
0.00479479
0.00454517
0.00414967
0.00352607
0.0025461
0.0011742
0.000133948
0.00109872
0.00194817
0.0026149
0.00317628
0.00366636
0.00409943
0.00448163
0.00481528
0.00510038
0.00533554
0.0055229
0.00566103
0.00574904
0.0057843
0.00576207
0.00567545
0.00551351
0.00525858
0.004882
0.00434139
0.00359107
0.00265322
0.000144637
0.00126716
0.00223294
0.00298694
0.00362158
0.00417135
0.00465043
0.00506663
0.00542459
0.00572626
0.0059727
0.00616444
0.00630332
0.00639008
0.00642231
0.00639584
0.0063064
0.00614732
0.00590892
0.00557837
0.00514275
0.00460804
0.00404126
0.000155564
0.00144548
0.00253207
0.00336999
0.00406441
0.00465508
0.00516068
0.00559341
0.00596126
0.00626833
0.00651767
0.00671153
0.00685142
0.00693789
0.00697028
0.00694588
0.00686256
0.00671804
0.0065094
0.00623518
0.0059
0.00552852
0.00518455
0.000173571
0.0016667
0.00288126
0.003787
0.00451732
0.00512548
0.00563813
0.0060725
0.00643908
0.00674323
0.00698956
0.0071818
0.00732242
0.00741185
0.00744839
0.00743118
0.00736126
0.00724
0.00706902
0.00685378
0.00660678
0.00635357
0.00614023
0.000200197
0.00190853
0.0032635
0.00421704
0.00495966
0.00556645
0.00607229
0.00649826
0.00685635
0.00715293
0.00739371
0.00758357
0.00772555
0.00782022
0.00786672
0.00786521
0.00781756
0.00772633
0.00759636
0.00743608
0.00725918
0.00708552
0.00694297
0.000218661
0.00209943
0.00359145
0.00458994
0.00534025
0.00594192
0.00643961
0.00685719
0.00720779
0.00749859
0.00773586
0.00792566
0.00807177
0.00817525
0.00823595
0.00825451
0.00823292
0.00817429
0.00808423
0.00797097
0.00784507
0.00772068
0.00761368
0.000227167
0.00222161
0.00382959
0.0048638
0.00562868
0.00623636
0.00673575
0.00715209
0.00750046
0.00778959
0.00802649
0.00821829
0.00837006
0.00848378
0.00855963
0.00859822
0.00860137
0.00857208
0.00851545
0.00843876
0.00834979
0.00825684
0.00816841
0.000224932
0.00228221
0.00400925
0.00505865
0.00581831
0.0064473
0.00696205
0.00738598
0.007739
0.00803175
0.00827045
0.00846515
0.00862315
0.00874715
0.00883744
0.00889431
0.00891919
0.00891455
0.00888423
0.00883402
0.00876946
0.00869559
0.00861795
0.000226034
0.00191283
0.00378662
0.00498564
0.00586144
0.00655774
0.00710941
0.00755209
0.00792029
0.0082255
0.00846808
0.00866591
0.00883051
0.00896545
0.00906982
0.00914329
0.00918663
0.0092018
0.00919164
0.00916031
0.00911169
0.00904993
0.00898066
0.000205863
0.00145604
0.00326614
0.00460571
0.00563803
0.00644278
0.00706609
0.00756885
0.00798935
0.00834194
0.00860391
0.00880916
0.00898563
0.00913592
0.00925642
0.00934619
0.00940554
0.0094363
0.00944159
0.00942383
0.00938422
0.00932645
0.00926134
0.000184468
0.00143458
0.00305016
0.00431581
0.00534899
0.00620552
0.00690089
0.00746541
0.00793433
0.00831749
0.00861826
0.00886186
0.00906052
0.00923336
0.0093719
0.0094763
0.00954943
0.00959441
0.00961331
0.00960822
0.00958122
0.00953518
0.00947527
0.000190152
0.00150739
0.00293835
0.00410799
0.00512069
0.0059903
0.006717
0.00731979
0.00781403
0.00821752
0.0085511
0.00882817
0.00907038
0.00927333
0.0094338
0.0095562
0.00964588
0.00970648
0.00974035
0.00975022
0.00973771
0.009703
0.00964567
0.000183123
0.00149362
0.00282187
0.00395805
0.00495321
0.00581737
0.00655041
0.00716466
0.00767562
0.00809938
0.0084549
0.0087612
0.00902804
0.00925351
0.00943667
0.00958149
0.00969245
0.00977288
0.00982528
0.00985184
0.0098534
0.00982925
0.00977986
0.000180627
0.00143685
0.00274157
0.00386915
0.00484949
0.0056983
0.00642253
0.00703486
0.00755104
0.00798674
0.0083585
0.0086806
0.00896222
0.00920407
0.00940605
0.00957093
0.009702
0.00980189
0.00987253
0.00991536
0.00993083
0.00991813
0.00987783
0.000179808
0.00140603
0.00270921
0.00383437
0.00480063
0.00563027
0.00633847
0.00694074
0.00745337
0.00789147
0.00826924
0.00859861
0.00888658
0.00913703
0.00935191
0.00953186
0.00967925
0.00979578
0.00988271
0.00994078
0.00997013
0.0099703
0.00994258
0.000179286
0.00140252
0.00271107
0.00383409
0.00478694
0.0055975
0.00628752
0.00687565
0.00737893
0.00781219
0.00818817
0.00851719
0.00880638
0.00906
0.00928084
0.00947048
0.00962963
0.00975914
0.00985964
0.00993139
0.00997441
0.00998856
0.00997538
0.000178511
0.00141136
0.00272658
0.00384633
0.00478683
0.0055803
0.00625309
0.0068264
0.00731799
0.00774263
0.0081124
0.00843692
0.00872343
0.00897667
0.00919939
0.00939342
0.00955971
0.0096986
0.0098098
0.00989336
0.00994917
0.00997724
0.00997894
0.000177245
0.00142056
0.00273935
0.00385395
0.0047831
0.00556211
0.00622023
0.00678037
0.00726083
0.00767637
0.00803879
0.00835741
0.00863938
0.00888981
0.00911186
0.00930728
0.00947707
0.00962162
0.00974073
0.00983399
0.00990104
0.00994187
0.00995747
0.000175423
0.00142328
0.00273992
0.00384673
0.00476506
0.00553207
0.00617853
0.00672828
0.00719986
0.00760792
0.00796403
0.0082773
0.00855479
0.00880171
0.00902163
0.00921667
0.00938786
0.00953562
0.00965994
0.00976044
0.00983672
0.00988854
0.00991627
0.000173083
0.00141724
0.0027247
0.00382045
0.00472779
0.00548461
0.00612219
0.00666454
0.00713011
0.00753325
0.00788524
0.00819495
0.00846929
0.00871349
0.00893131
0.00912522
0.00929663
0.00944611
0.00957381
0.00967948
0.00976281
0.00982339
0.00986119
0.00017029
0.00140238
0.00269376
0.00377498
0.00467058
0.00541833
0.00604919
0.00658679
0.00704915
0.00745013
0.0078006
0.00810909
0.0083823
0.00862539
0.0088422
0.00903542
0.00920682
0.00935731
0.00948726
0.00959663
0.00968517
0.0097525
0.00979832
0.000167109
0.00137979
0.00264915
0.00371263
0.00459547
0.00533468
0.00596035
0.0064953
0.00695682
0.00735815
0.00770958
0.00801923
0.00829353
0.00853746
0.00875488
0.00894861
0.00912063
0.00927219
0.00940395
0.00951615
0.00960866
0.00968115
0.00973327
0.000163599
0.001351
0.00259377
0.00363704
0.00450621
0.00523712
0.00585861
0.00639242
0.00685493
0.00725857
0.00761304
0.00792594
0.00820335
0.00845005
0.00866981
0.0088655
0.00903924
0.00919252
0.00932629
0.00944101
0.00953681
0.00961344
0.00967057
0.000159816
0.00131757
0.00253087
0.00355251
0.00440754
0.00513037
0.00574838
0.00628208
0.0067468
0.00715416
0.00751316
0.00783089
0.00811301
0.00836406
0.00858768
0.00878671
0.00896335
0.00911925
0.00925556
0.00937299
0.00947186
0.00955209
0.0096134
0.000155821
0.00128112
0.00246378
0.00346362
0.00430477
0.00501996
0.00563504
0.00616926
0.0066369
0.00704877
0.00741317
0.00773666
0.00802451
0.008281
0.00850956
0.00871301
0.00889354
0.0090529
0.00919239
0.0093129
0.00941491
0.00949853
0.00956355
0.000151687
0.00124335
0.00239601
0.00337518
0.00420343
0.00491172
0.00552438
0.00605944
0.00653025
0.00694681
0.00731684
0.0076464
0.00794037
0.00820275
0.00843682
0.00864528
0.00883032
0.00899373
0.00913689
0.00926083
0.00936616
0.00945312
0.00952159
0.000147509
0.00120624
0.00233124
0.00329197
0.00410891
0.00481126
0.00542194
0.00595791
0.00643169
0.00685265
0.00722795
0.00756324
0.00786309
0.00813123
0.00837079
0.00858435
0.00877407
0.00894174
0.00908881
0.00921635
0.00932508
0.00941534
0.00948709
0.000143408
0.00117191
0.0022731
0.00321833
0.00402584
0.00472322
0.00533223
0.00586893
0.00634517
0.00676979
0.00714955
0.00748975
0.0077947
0.00806793
0.00831243
0.00853069
0.00872482
0.00889659
0.00904745
0.00917851
0.00929055
0.00938395
0.00945873
0.000139542
0.00114244
0.00222456
0.0031574
0.00395725
0.00465047
0.00525791
0.00579495
0.00627292
0.00670024
0.00708334
0.00742731
0.00773623
0.00801351
0.00826203
0.00848421
0.00868211
0.00885747
0.0090117
0.00914592
0.0092609
0.00935708
0.00943451
0.000136092
0.00111921
0.00218699
0.00311011
0.00390363
0.00459319
0.00519903
0.005736
0.00621497
0.00664402
0.00702935
0.00737585
0.0076875
0.00796763
0.00821905
0.00844416
0.00864496
0.00882313
0.00898005
0.00911677
0.00923408
0.00933239
0.00941181
0.000133245
0.0011023
0.0021593
0.00307437
0.00386233
0.00454857
0.00515287
0.00568957
0.00616911
0.00659923
0.00698591
0.00733392
0.00764718
0.00792902
0.00818225
0.00840925
0.00861199
0.00879208
0.00895079
0.00908912
0.00920778
0.00930723
0.00938764
0.00013115
0.00109024
0.00213772
0.00304507
0.00382776
0.0045111
0.00511434
0.00565117
0.00613144
0.00656252
0.00695017
0.00729906
0.00761316
0.00789585
0.00814999
0.00837798
0.00858177
0.00876283
0.00892228
0.00906101
0.0091797
0.00927888
0.00935886
0.000129883
0.00108038
0.00211658
0.00301507
0.00379249
0.00447377
0.00507716
0.00561534
0.00609733
0.00652999
0.00691885
0.00726856
0.00758318
0.00786624
0.00812072
0.00834907
0.00855313
0.00873419
0.00889316
0.00903075
0.00914767
0.00924468
0.00932239
0.000129423
0.00106956
0.00208968
0.00297682
0.00374888
0.00442957
0.00503528
0.00557699
0.00606255
0.00649815
0.00688909
0.00724007
0.00755537
0.00783875
0.00809338
0.00832171
0.00852544
0.00870551
0.00886248
0.00899693
0.00910978
0.00920225
0.00927554
0.000129667
0.00105489
0.00205152
0.00292367
0.00369042
0.00437283
0.00498403
0.00553241
0.00602415
0.00646466
0.00685903
0.00721217
0.00752868
0.00781269
0.00806759
0.00829581
0.00849867
0.00867658
0.0088296
0.00895833
0.0090643
0.00914966
0.00921646
0.000130507
0.00103452
0.00199798
0.00285051
0.00361245
0.00429995
0.0049209
0.00547987
0.00598095
0.00642867
0.00682808
0.00718446
0.00750295
0.00778814
0.00804366
0.00827179
0.00847321
0.00864744
0.0087939
0.00891364
0.00900981
0.00908596
0.00914498
0.000132129
0.00101033
0.00192751
0.00275438
0.0035127
0.00420997
0.0048459
0.00541992
0.00593363
0.00639084
0.00679683
0.00715752
0.00747875
0.00776574
0.00802231
0.00825037
0.00844954
0.00861799
0.00875447
0.00886146
0.00894573
0.00901236
0.00906427
0.000136421
0.000998605
0.00184783
0.00263825
0.00339335
0.00410562
0.00476217
0.00535555
0.00588473
0.0063532
0.00676685
0.00713257
0.00745713
0.00774638
0.00800433
0.00823216
0.00842797
0.00858809
0.00871069
0.00880126
0.00887438
0.00893478
0.00898308
0.000154905
0.00108042
0.00180923
0.00252631
0.00326742
0.00399618
0.00467714
0.00529257
0.00583859
0.00631886
0.00674038
0.00711124
0.00743925
0.00773092
0.00799027
0.00821755
0.00840891
0.0085588
0.00866553
0.00873835
0.00880685
0.00886834
0.00891829
0.000233588
0.00155478
0.00197663
0.00248872
0.00316743
0.00390091
0.00460377
0.00523984
0.00580117
0.00629181
0.00672009
0.00709532
0.00742628
0.00772004
0.00798052
0.00820695
0.00839363
0.0085345
0.00863499
0.00870033
0.00877656
0.00884406
0.00889617
0.000416116
0.00325754
0.00254502
0.00259148
0.00313102
0.00384577
0.00455942
0.00520838
0.00577932
0.00627635
0.00670871
0.00708656
0.00741927
0.00771424
0.00797531
0.00820089
0.00838334
0.00851688
0.00869566
0.00879105
0.0088653
0.00891652
0.0089494
0.000266457
0.000244747
0.000240405
0.000254128
0.00203352
0.00200344
0.00204431
0.00215194
0.00375733
0.0036945
0.00372799
0.00383195
0.00504084
0.00500547
0.0050241
0.00508494
0.0060567
0.00603156
0.00603345
0.00605757
0.00688001
0.00685359
0.00684018
0.00683739
0.00755538
0.00752403
0.00749783
0.00747555
0.00810977
0.00807367
0.0080384
0.00800323
0.00856059
0.00852292
0.00848338
0.00844128
0.00892769
0.00889215
0.00885279
0.00880896
0.00921324
0.00918053
0.00914224
0.00909216
0.00941846
0.00937777
0.00933357
0.00928383
0.00959069
0.00954911
0.00950254
0.00945232
0.00972751
0.00968842
0.0096446
0.00959704
0.0098327
0.00979915
0.00976134
0.00971951
0.00990762
0.00988133
0.00985105
0.00981638
0.00995197
0.00993342
0.00991092
0.00988372
0.00996687
0.00995565
0.00994043
0.00992031
0.00995561
0.00995087
0.00994205
0.00992826
0.00992314
0.00992385
0.00992043
0.00991208
0.00987522
0.00988038
0.00988137
0.00987751
0.00981805
0.00982672
0.00983119
0.00983093
0.00975744
0.00976881
0.00977597
0.00977854
0.00969822
0.00971168
0.00972093
0.0097257
0.00964389
0.00965904
0.00966995
0.00967648
0.00959652
0.00961314
0.00962547
0.0096335
0.00955686
0.00957484
0.0095885
0.00959788
0.00952455
0.00954384
0.00955877
0.00956944
0.00949826
0.00951881
0.00953495
0.00954684
0.00947585
0.00949753
0.00951478
0.00952779
0.00945454
0.0094771
0.00949525
0.00950917
0.00943109
0.00945414
0.00947283
0.00948734
0.00940208
0.00942507
0.00944377
0.00945843
0.00936419
0.00938641
0.00940453
0.00941879
0.00931461
0.00933534
0.00935226
0.00936562
0.00925167
0.00927034
0.00928563
0.0092978
0.0091759
0.00919237
0.00920598
0.00921698
0.0090916
0.00910635
0.00911874
0.009129
0.00900891
0.009023
0.00903491
0.0090449
0.00894507
0.00895947
0.00897125
0.00898084
0.0089233
0.00893708
0.00894748
0.00895508
0.00896562
0.00897309
0.00897791
0.00898058
0.00109436
0.00230439
0.00329714
0.00392343
0.00425511
0.00439365
0.00440316
0.00432004
0.00416344
0.00395362
0.0037229
0.00347558
0.0032167
0.00293919
0.0026205
0.00223171
0.00171966
0.00100393
0.000155754
0.00272659
0.00352343
0.00416923
0.00460246
0.00484662
0.00494514
0.00492889
0.00481815
0.00463247
0.00439389
0.00412595
0.00383746
0.00353083
0.00319868
0.00281846
0.00235066
0.00173766
0.000921239
0.000148601
0.00412553
0.00459444
0.00498226
0.00524028
0.00537934
0.00541695
0.00535705
0.00521106
0.00499336
0.0047235
0.00441983
0.00409174
0.00374075
0.00336039
0.00293114
0.00241571
0.00175395
0.000917995
0.000147854
0.0052365
0.0054902
0.00569468
0.00581938
0.0058641
0.00583214
0.00572018
0.00553194
0.0052772
0.00497183
0.00463072
0.0042624
0.00386916
0.00344585
0.00297871
0.00244464
0.00180949
0.00102851
0.000152919
0.00612376
0.00623434
0.00631264
0.00633685
0.00630164
0.00620432
0.00603942
0.00580668
0.00551264
0.00516939
0.00478919
0.00438035
0.00394465
0.00347861
0.00297313
0.00241501
0.00179095
0.00106183
0.00016124
0.00684431
0.00685921
0.00684894
0.00679736
0.00669731
0.00654359
0.00633066
0.00605679
0.00572607
0.00534747
0.00493092
0.00448383
0.00400944
0.00350365
0.00295884
0.00236854
0.00172821
0.00101319
0.000159266
0.00744199
0.00739069
0.00731688
0.00720862
0.00705831
0.00685989
0.00660816
0.00630103
0.00594121
0.00553548
0.00509197
0.00461723
0.00411483
0.00358057
0.00300337
0.00237635
0.00169626
0.000953706
0.00015614
0.00794335
0.00784635
0.00772729
0.00757809
0.00739158
0.00716147
0.00688271
0.0065533
0.00617547
0.0057549
0.00529855
0.00481274
0.00430186
0.00375564
0.00315442
0.00249128
0.00175839
0.000960182
0.000172206
0.00836622
0.00823862
0.00808776
0.00791081
0.00770122
0.00745254
0.00715928
0.0068195
0.00643577
0.00601383
0.00555932
0.00507779
0.00456858
0.00401388
0.00338492
0.00267061
0.00183973
0.000884918
0.000165732
0.00872525
0.00857518
0.00840112
0.00820694
0.00798561
0.00772998
0.00743284
0.00709193
0.00671023
0.0062956
0.00585593
0.00539583
0.00488555
0.00429655
0.00360805
0.00281214
0.00189381
0.000937813
0.000177904
0.00899942
0.00883779
0.00865251
0.00844844
0.00822317
0.00797016
0.00768176
0.00735205
0.00698249
0.0065826
0.00615899
0.0057083
0.00519621
0.00459643
0.00389976
0.00309608
0.00217809
0.00116505
0.000190907
0.0091923
0.0090351
0.00885326
0.00864989
0.00842605
0.00818037
0.00790655
0.0075964
0.00724696
0.00686589
0.00645982
0.00601636
0.00550765
0.0049159
0.00422973
0.0034289
0.00247926
0.00134479
0.000199092
0.00936414
0.00921484
0.00904169
0.00884584
0.00862892
0.00839225
0.00813099
0.00783871
0.00751227
0.00715135
0.00676103
0.00632539
0.00582502
0.00524316
0.00455991
0.00373906
0.002726
0.0014692
0.000204424
0.00951376
0.0093756
0.00921507
0.00903149
0.00882653
0.00860189
0.00835445
0.00807905
0.00777172
0.00743003
0.00705078
0.00662328
0.00613069
0.00555172
0.00485722
0.00400268
0.00292464
0.00156765
0.000208056
0.00964406
0.00951714
0.00936951
0.0091998
0.00900901
0.00879802
0.00856494
0.00830484
0.00801299
0.0076847
0.00731457
0.00689311
0.00640313
0.00581971
0.00510807
0.00421808
0.00308242
0.00164518
0.000210395
0.00975078
0.00963544
0.00950025
0.00934423
0.00916738
0.00896993
0.00874981
0.00850242
0.00822229
0.00790382
0.00754047
0.00712201
0.00663048
0.00603891
0.00530917
0.00438776
0.00320517
0.00170499
0.000211726
0.0098289
0.00972582
0.00960288
0.00945971
0.0092958
0.00911046
0.00890136
0.00866395
0.0083926
0.0080812
0.00772234
0.00730464
0.00680952
0.00620902
0.0054632
0.00451644
0.00329735
0.00174745
0.000212465
0.00987626
0.00978596
0.00967519
0.00954404
0.00939169
0.00921685
0.00901683
0.00878723
0.00852248
0.00821613
0.00785995
0.00744178
0.00694263
0.00633415
0.00557498
0.00460919
0.00336327
0.00177832
0.000212674
0.00989435
0.00981681
0.00971785
0.00959783
0.00945573
0.00928987
0.0090974
0.00887404
0.00861435
0.00831158
0.00795686
0.00753771
0.00703496
0.00642022
0.00565252
0.00467442
0.0034109
0.00180016
0.000211927
0.00988726
0.00982181
0.00973397
0.00962409
0.00949101
0.00933289
0.0091468
0.0089286
0.00867294
0.00837299
0.00801963
0.00759987
0.00709457
0.00647556
0.00570206
0.00471621
0.00344164
0.00181377
0.000210473
0.00986047
0.00980603
0.00972837
0.00962761
0.00950255
0.00935125
0.00917078
0.0089571
0.00870492
0.00840733
0.00805502
0.00763482
0.00712763
0.0065056
0.00572825
0.00473782
0.00345718
0.0018197
0.000208419
0.00982036
0.0097756
0.00970694
0.00961425
0.00949628
0.00935102
0.00917556
0.00896588
0.00871671
0.00842108
0.00806953
0.00764884
0.00714001
0.00651552
0.00573541
0.00474239
0.00345938
0.00181865
0.000205895
0.0097732
0.00973669
0.0096758
0.00959011
0.00947832
0.00933837
0.00916732
0.00896114
0.00871451
0.00842038
0.00806921
0.00764773
0.0071371
0.00651018
0.00572766
0.00473311
0.00345026
0.00181149
0.000203095
0.00972456
0.00969494
0.00964061
0.00956088
0.00945438
0.00931902
0.00915177
0.00894854
0.00870393
0.00841079
0.00805949
0.00763675
0.0071239
0.0064942
0.00570909
0.00471333
0.0034322
0.00179942
0.00020015
0.00967875
0.00965484
0.009606
0.00953128
0.00942926
0.00929778
0.00913372
0.00893289
0.00868977
0.0083971
0.00804514
0.00762062
0.007105
0.00647195
0.00568377
0.00468661
0.00340793
0.00178385
0.000197251
0.00963862
0.00961951
0.00957526
0.00950476
0.00940653
0.00927832
0.00911692
0.008918
0.00867592
0.00838327
0.00803024
0.00760348
0.00708459
0.00644765
0.00565579
0.00465674
0.00338055
0.00176657
0.000194498
0.00960552
0.00959052
0.00955021
0.00948334
0.00938837
0.00926297
0.00910384
0.00890651
0.00866521
0.00837237
0.00801804
0.00758883
0.0070664
0.00642519
0.00562915
0.00462762
0.00335339
0.00174946
0.000192051
0.0095794
0.00956802
0.00953119
0.00946754
0.0093755
0.00925268
0.00909566
0.00889987
0.00865937
0.00836645
0.00801098
0.00757947
0.00705359
0.00640807
0.00560759
0.00460302
0.00332983
0.00173457
0.000189969
0.00955897
0.00955086
0.00951718
0.00945652
0.00936729
0.00924703
0.00909225
0.00889826
0.00865896
0.00836647
0.00801047
0.00757728
0.00704852
0.00639909
0.00559429
0.00458631
0.00331292
0.00172365
0.000188385
0.00954188
0.00953671
0.00950593
0.00944815
0.00936178
0.00924432
0.0090922
0.00890063
0.00866336
0.0083723
0.00801689
0.00758319
0.00705266
0.00640022
0.00559162
0.00458008
0.00330513
0.00171832
0.000187336
0.00952491
0.00952227
0.00949417
0.00943926
0.00935596
0.00924175
0.00909303
0.00890489
0.00867094
0.00838283
0.00802969
0.00759723
0.00706657
0.00641248
0.00560093
0.00458587
0.00330795
0.00171953
0.00018697
0.00950424
0.00950363
0.00947795
0.00942596
0.0093461
0.00923586
0.00909158
0.0089083
0.00867942
0.00839635
0.00804777
0.00761887
0.00709023
0.00643622
0.00562273
0.00460417
0.00332191
0.00172795
0.000187342
0.00947583
0.00947665
0.00945317
0.00940426
0.00932841
0.00922311
0.00908468
0.00890808
0.00868657
0.00841119
0.00807011
0.00764777
0.00712384
0.00647189
0.00565737
0.00463499
0.0033467
0.00174359
0.000188664
0.00943597
0.00943765
0.00941627
0.00937082
0.00929979
0.0092007
0.00906989
0.00890228
0.00869096
0.00842661
0.00809674
0.00768475
0.00716896
0.00652144
0.0057066
0.00467916
0.00338226
0.00176656
0.000191062
0.00938194
0.00938416
0.0093651
0.00932378
0.00925871
0.00916743
0.00904637
0.00889048
0.00869275
0.00844352
0.00812954
0.00773289
0.00722987
0.00659006
0.00577562
0.00474065
0.00343034
0.00179735
0.000194874
0.00931295
0.00931587
0.00929977
0.00926364
0.00920595
0.00912437
0.00901548
0.00887439
0.00869417
0.00846494
0.00817273
0.00779804
0.00731449
0.00668774
0.00587555
0.00482941
0.00349714
0.00183818
0.000200419
0.00923118
0.00923554
0.00922348
0.00919384
0.00914512
0.00907518
0.00898094
0.00885789
0.00869941
0.00849571
0.00823235
0.00788839
0.00743423
0.00682987
0.00602525
0.00496463
0.00359637
0.00189378
0.000208409
0.00914289
0.00914972
0.00914284
0.00912091
0.00908253
0.00902591
0.00894852
0.00884649
0.00871387
0.00854145
0.00831499
0.00801274
0.0076021
0.0070361
0.00625213
0.00517815
0.00375404
0.00197374
0.000219864
0.00905896
0.0090688
0.00906762
0.00905394
0.00902656
0.00898425
0.0089252
0.00884643
0.00874305
0.0086071
0.00842562
0.00817759
0.00782913
0.00732681
0.00659118
0.00551913
0.00401728
0.0020968
0.000236989
0.00899425
0.00900598
0.00900959
0.00900339
0.00898656
0.00895848
0.00891815
0.00886362
0.00879141
0.00869548
0.00856553
0.00838376
0.00811899
0.00771635
0.00708086
0.00606148
0.00447697
0.00230662
0.000264404
0.00896477
0.00897498
0.00898047
0.00897942
0.00897138
0.00895628
0.00893376
0.00890288
0.00886166
0.00880655
0.00873112
0.00862365
0.00846188
0.00820148
0.00775012
0.00691359
0.00533434
0.00273544
0.000315531
0.00898278
0.00898671
0.00898964
0.00899023
0.0089883
0.00898394
0.00897715
0.0089677
0.00895502
0.00893804
0.00891476
0.00888139
0.00883027
0.00874433
0.0085796
0.008201
0.0071339
0.00406093
0.00046519
)
;

boundaryField
{
    leftWall
    {
        type            nutkWallFunction;
        Cmu             0.09;
        kappa           0.41;
        E               9.8;
        value           nonuniform List<scalar> 
50
(
2.52936e-06
7.3855e-06
8.53615e-06
9.35184e-06
9.96797e-06
1.04701e-05
1.1074e-05
1.30776e-05
1.43971e-05
1.55606e-05
1.64213e-05
1.71373e-05
1.84906e-05
2.07996e-05
2.26159e-05
2.3671e-05
2.48481e-05
2.08904e-05
1.82869e-05
1.72896e-05
1.76028e-05
1.73089e-05
1.73102e-05
1.73446e-05
1.73131e-05
1.71873e-05
1.69638e-05
1.66513e-05
1.62628e-05
1.58095e-05
1.53007e-05
1.47449e-05
1.41499e-05
1.3525e-05
1.28811e-05
1.22327e-05
1.1599e-05
1.10054e-05
1.04822e-05
1.0061e-05
9.76682e-06
9.61202e-06
9.59231e-06
9.68983e-06
9.88388e-06
1.01913e-05
1.08538e-05
1.34222e-05
2.46052e-05
4.91378e-05
)
;
    }
    rightWall
    {
        type            nutkWallFunction;
        Cmu             0.09;
        kappa           0.41;
        E               9.8;
        value           nonuniform List<scalar> 
50
(
3.28572e-06
1.04148e-05
1.19192e-05
1.31515e-05
1.43944e-05
1.66222e-05
1.87264e-05
1.91185e-05
1.87259e-05
1.76671e-05
1.73024e-05
1.74927e-05
1.82107e-05
1.79505e-05
1.76834e-05
1.95403e-05
1.70955e-05
1.79983e-05
1.96989e-05
2.07529e-05
2.1424e-05
2.18849e-05
2.21894e-05
2.23594e-05
2.24175e-05
2.23662e-05
2.21951e-05
2.1919e-05
2.15584e-05
2.11361e-05
2.06794e-05
2.02104e-05
1.9755e-05
1.93294e-05
1.89536e-05
1.86357e-05
1.83919e-05
1.82273e-05
1.81613e-05
1.82046e-05
1.83876e-05
1.87331e-05
1.92901e-05
2.01077e-05
2.12872e-05
2.29825e-05
2.55297e-05
2.96671e-05
3.74338e-05
5.56981e-05
)
;
    }
    lowerWall
    {
        type            nutkWallFunction;
        Cmu             0.09;
        kappa           0.41;
        E               9.8;
        value           nonuniform List<scalar> 
62
(
2.52936e-06
3.75037e-06
4.47356e-06
4.97719e-06
5.36111e-06
5.67279e-06
5.9387e-06
6.17567e-06
6.39631e-06
6.61132e-06
6.82527e-06
7.02492e-06
7.20571e-06
7.36192e-06
7.48491e-06
7.56446e-06
7.58991e-06
7.54705e-06
7.41166e-06
7.13749e-06
6.62702e-06
5.64781e-06
3.24908e-06
3.24908e-06
1.01279e-05
1.21296e-05
1.3719e-05
1.5145e-05
1.70304e-05
2.19393e-05
2.62699e-05
2.94421e-05
2.6193e-05
2.59127e-05
2.74643e-05
3.1925e-06
1.16655e-05
1.50344e-05
1.70556e-05
1.94857e-05
2.22076e-05
2.68942e-05
3.13129e-05
3.1925e-06
5.75113e-06
6.81049e-06
7.40112e-06
7.72987e-06
7.90804e-06
7.92859e-06
7.88138e-06
7.78583e-06
7.64885e-06
7.46094e-06
7.18311e-06
6.73581e-06
6.37587e-06
6.10571e-06
5.79173e-06
5.37396e-06
4.73486e-06
3.28572e-06
)
;
    }
    atmosphere
    {
        type            calculated;
        value           nonuniform List<scalar> 
46
(
0.009
0.009
0.00254502
0.00259148
0.00313102
0.00384577
0.00455942
0.00520838
0.00577932
0.00627635
0.00670871
0.00708656
0.00741927
0.00771424
0.00797531
0.00820089
0.00838334
0.00851688
0.009
0.009
0.009
0.009
0.009
0.009
0.009
0.009
0.009
0.009
0.009
0.009
0.009
0.009
0.009
0.009
0.009
0.009
0.009
0.009
0.009
0.009
0.009
0.009
0.009
0.009
0.009
0.009
)
;
    }
    defaultFaces
    {
        type            empty;
    }
}


// ************************************************************************* //
