/*--------------------------------*- C++ -*----------------------------------*\
  =========                 |
  \\      /  F ield         | OpenFOAM: The Open Source CFD Toolbox
   \\    /   O peration     | Website:  https://openfoam.org
    \\  /    A nd           | Version:  13
     \\/     M anipulation  |
\*---------------------------------------------------------------------------*/
FoamFile
{
    format      ascii;
    class       volScalarField;
    location    "2.25";
    object      p;
}
// * * * * * * * * * * * * * * * * * * * * * * * * * * * * * * * * * * * * * //

dimensions      [1 -1 -2 0 0 0 0];

internalField   nonuniform List<scalar> 
2268
(
5981.78
6001.77
6022.18
6034.61
6034.04
6017.7
5984.91
5936.44
5873.7
5798.49
5714.28
5624.04
5531
5438.29
5349.43
5267.6
5195.23
5134.03
5085.07
5049.03
5026.31
5017.96
5021.07
5178.32
5197.18
5216.87
5228.48
5228.3
5213.49
5183.08
5137.44
5077.62
5005.6
4923.66
4835.47
4744.04
4652.29
4563.82
4481.92
4409.06
4346.93
4296.53
4258.61
4233.5
4223.96
4226.52
4373.69
4391.33
4410.56
4421.84
4422.46
4409.56
4381.87
4339.47
4282.96
4213.83
4134.45
4048.42
3958.8
3868.08
3779.94
3697.81
3624.18
3560.78
3508.6
3468.39
3440.58
3429.8
3429.48
3567.56
3585.34
3605.77
3618.41
3620.61
3609.63
3584.21
3544.36
3490.43
3423.44
3345.86
3261.45
3172.93
3082.51
2994.05
2911.08
2836.18
2771.19
2717.02
2674.42
2644.06
2631.82
2628.44
2759.51
2777.37
2799.65
2815.16
2819.97
2811.5
2788.61
2751.28
2699.64
2634.24
2557.58
2473.63
2384.45
2291.34
2199.72
2113.37
2035.4
1968.02
1911.79
1867.12
1835
1822.19
1820.9
1951.12
1970.47
1996.03
2015.57
2023.63
2018.23
1998.41
1963.67
1913.1
1846.03
1764.94
1675.15
1583.2
1497.66
1419.58
1351.75
1293.48
1244.2
1203.18
1169.99
1144.9
1132.26
1132.33
1227
1242.24
1262.6
1280.14
1288.86
1285.46
1268.31
1239.66
1202.43
1158.5
1110.42
1061.62
1013.72
974.543
941.452
914.695
892.104
871.987
853.673
837.066
822.279
811.754
811.301
851.558
855.453
856.805
858.638
859.124
856.126
848.559
838.126
828.198
821.464
818.559
818.91
819.358
817.134
812.459
805.05
795.545
784.448
772.217
759.422
746.732
737.27
736.784
2128.96
2129.56
2118.95
2100.07
2090.61
2110.73
2148.91
2187.13
2262.15
2358.74
2464.88
2559.09
2623.4
2700.86
2794.05
2862.47
2891.15
2882.05
2849.23
1555.64
1551.4
1533.59
1517.01
1505.81
1494.77
1516.5
1589.23
1669.61
1769.77
1879.6
1988.53
2091.69
2164.86
2215.92
2258.64
2281.52
2271.18
2234.8
1252.33
1252.04
1234.84
1221.94
1191.94
1148.69
1132.62
1148.21
1170.07
1205.13
1272.45
1379.06
1501.59
1570.65
1622.63
1662.44
1679.21
1669.93
1657.14
1076.97
1083.76
1086.61
1077.8
1050.58
1022.74
1002.33
986.495
968.337
929.906
927.774
957.552
1054.35
1120.24
1153.63
1173.81
1184.75
1170.06
1172.97
917.591
919.703
929.829
923.211
931.271
934.846
927.011
911.72
887.358
852.279
835.64
803.93
822.959
873.239
885.417
896.777
896.629
878.827
851.807
795.657
793.183
793.521
792.981
810.746
833.404
830.91
806.119
791.901
783.264
772.894
757.543
721.102
726.426
735.905
753.405
752.299
745.703
720.094
713.364
710.968
704.252
704.687
707.539
720.865
719.569
710.979
707.959
717.141
712.007
708.166
689.339
668.344
666.833
672.269
677.663
678.683
673.819
657.888
655.778
644.536
638.899
632.854
627.463
635.873
645.497
647.097
654.297
651.601
650.604
646.848
635.194
628.549
625.877
627.202
628.089
630.803
731.475
729.94
724.319
717.795
712.685
710.292
710.792
713.225
716.296
718.884
719.843
719.469
718.034
715.472
711.322
705.072
696.8
686.786
675.421
663.126
650.551
640.003
632.555
606.795
603.624
599.492
595.193
591.838
590.013
589.663
590.404
591.725
592.849
593.594
593.134
591.296
588.153
583.48
576.942
568.795
559.155
548.353
537.43
525.384
514.796
504.656
484.057
479.284
474.508
470.805
468.445
467.464
467.427
467.871
468.726
469.307
469.232
467.97
465.305
461.53
456.997
451.07
444.098
437
430.334
424.395
417.854
411.238
405.178
362.628
356.723
350.635
346.831
345.467
345.924
347.079
347.705
348.605
349.122
349.109
348.466
347.21
346.305
346.129
345.429
344.208
344.045
344.028
342.601
341.443
339.007
338.092
250.224
242.333
236.255
234.429
235.09
237.041
239.425
242.911
246.966
250.816
254.504
258.391
262.863
267.362
271.093
274.303
277.32
279.906
281.181
280.667
279.606
278.907
277.747
161.248
154.585
151.493
152.419
155.454
158.992
163.077
169.227
176.346
183.807
190.656
197.3
204.014
209.62
213.25
215.931
217.973
218.47
218.08
217.546
216.853
216.166
214.271
93.4699
84.2098
81.6004
85.915
92.7131
98.9784
105.526
112.615
120.217
127.674
133.908
139.282
143.843
147.748
151.026
153.507
154.995
155.262
154.901
154.285
153.43
152.128
150.1
33.3429
24.4768
23.0095
26.8689
33.0486
39.5121
45.5785
52.7898
61.8015
70.0538
75.2419
78.7844
82.3908
85.8731
88.6137
90.4478
91.4291
91.5462
91.0369
90.4265
89.5275
87.997
85.8988
6.95284
5.21345
5.14494
5.22142
6.01507
7.46433
9.65107
13.0807
18.6112
24.3495
26.87
28.1251
30.0992
32.5043
34.3334
35.1161
35.3475
35.2012
34.3369
33.7696
33.4456
32.3144
30.2362
4.6703
4.65862
4.64432
4.65547
4.68964
4.69131
4.62593
4.54596
4.46891
4.45136
4.35796
5.24282
6.37756
7.79852
8.78536
9.09607
9.17195
8.98592
8.32769
8.05151
7.98982
7.25871
5.74194
4.54439
4.51292
4.50216
4.48848
4.45928
4.43927
4.42331
4.41892
4.4235
4.43362
4.47112
4.49159
4.5027
4.54026
4.59765
4.66427
4.74284
4.82138
4.91839
5.0144
5.10316
5.21244
5.35348
4.38438
4.35789
4.37138
4.36066
4.34237
4.33004
4.32482
4.32551
4.33928
4.35682
4.39643
4.43868
4.49702
4.56576
4.64168
4.72182
4.80455
4.88701
4.97099
5.05542
5.13699
5.20832
5.28323
4.20858
4.22459
4.23389
4.2276
4.21904
4.21522
4.21314
4.21545
4.22834
4.25668
4.2791
4.32205
4.3666
4.42492
4.492
4.56477
4.64155
4.72164
4.80393
4.88655
4.9674
5.04024
5.10992
4.08782
4.0915
4.09196
4.08808
4.08426
4.08364
4.08548
4.09065
4.1034
4.12515
4.15787
4.19123
4.2339
4.28791
4.34939
4.4163
4.48793
4.56403
4.64354
4.72305
4.79971
4.87
4.94171
3.93853
3.9416
3.94348
3.94323
3.94323
3.94603
3.95172
3.96044
3.97404
3.99678
4.02723
4.06365
4.10807
4.15988
4.2177
4.28071
4.34846
4.42054
4.49593
4.57186
4.64541
4.71296
4.78288
3.78772
3.79103
3.79484
3.79773
3.80124
3.80723
3.81621
3.82829
3.84418
3.868
3.89938
3.93702
3.98139
4.03102
4.08583
4.14545
4.20959
4.27792
4.3494
4.42172
4.49247
4.55785
4.62514
3.64047
3.64344
3.64795
3.65283
3.65897
3.66758
3.67924
3.69428
3.71329
3.73794
3.76949
3.80717
3.84999
3.89741
3.94944
4.00584
4.06642
4.13099
4.19872
4.26762
4.33541
4.39816
4.46264
3.49539
3.49794
3.50259
3.50859
3.51645
3.52696
3.5406
3.55776
3.57891
3.60494
3.63632
3.67274
3.71377
3.75909
3.80857
3.86201
3.91928
3.98024
4.04431
4.10974
4.17438
4.23431
4.2957
3.35148
3.35371
3.3583
3.36484
3.37371
3.38541
3.40031
3.41871
3.44094
3.46742
3.49838
3.53369
3.57312
3.61644
3.66351
3.71418
3.76837
3.82605
3.88669
3.94872
4.01003
4.06686
4.12553
3.20833
3.21029
3.21471
3.22142
3.23076
3.24306
3.25858
3.27751
3.30006
3.32642
3.35669
3.3908
3.4286
3.46993
3.51466
3.56268
3.61397
3.66855
3.72596
3.78471
3.84278
3.8963
3.95271
3.0656
3.06734
3.07152
3.07817
3.0876
3.10005
3.11568
3.13461
3.15694
3.18275
3.21207
3.24483
3.28092
3.32021
3.3626
3.40801
3.45649
3.50806
3.5623
3.61786
3.67285
3.72379
3.7764
2.92308
2.92464
2.92855
2.93498
2.94424
2.95651
2.97187
2.9904
3.01213
3.03706
3.0652
3.09645
3.13073
3.16793
3.20794
3.25075
3.29642
3.345
3.39611
3.44844
3.50028
3.54841
3.59772
2.78063
2.78204
2.78568
2.79181
2.80072
2.81256
2.82739
2.84522
2.86606
2.88988
2.91663
2.94624
2.97861
3.01364
3.05124
3.09143
3.13427
3.17983
3.22776
3.27686
3.32545
3.37056
3.41689
2.63816
2.63946
2.64285
2.64863
2.65708
2.66833
2.68243
2.69936
2.71911
2.74162
2.76684
2.79468
2.82505
2.85784
2.893
2.93052
2.9705
3.013
3.05771
3.10345
3.14875
3.19079
3.23375
2.49564
2.49687
2.50004
2.50545
2.51336
2.52392
2.53716
2.55305
2.57156
2.59264
2.61621
2.64218
2.67046
2.70096
2.73363
2.76846
2.80554
2.84494
2.88635
2.92875
2.97069
3.00957
3.0494
2.35308
2.35427
2.35725
2.36227
2.36962
2.37943
2.39172
2.40648
2.42366
2.4432
2.46504
2.48907
2.51522
2.54338
2.57352
2.60563
2.63979
2.67606
2.71419
2.75318
2.79179
2.82762
2.86418
2.21048
2.21166
2.21447
2.21912
2.22589
2.23491
2.24621
2.25978
2.27557
2.29353
2.31358
2.33563
2.35961
2.38541
2.41301
2.44238
2.47362
2.50677
2.5416
2.57725
2.6125
2.64522
2.67875
2.06785
2.06906
2.07172
2.076
2.08219
2.0904
2.1007
2.11305
2.12743
2.14377
2.16202
2.18208
2.20388
2.22732
2.25237
2.27903
2.30735
2.33742
2.36899
2.40127
2.43322
2.46287
2.49311
1.92523
1.92648
1.92899
1.93292
1.93852
1.94594
1.95522
1.96636
1.97932
1.99406
2.0105
2.02858
2.04821
2.06931
2.09185
2.11581
2.14128
2.16829
2.19664
2.22565
2.25433
2.28092
2.30819
1.78262
1.78392
1.78629
1.78987
1.79489
1.80151
1.80979
1.81973
1.83129
1.84444
1.85912
1.87525
1.89275
1.91156
1.93163
1.95296
1.97561
1.99963
2.02485
2.05062
2.07612
2.09981
2.12404
1.64003
1.64137
1.6436
1.64681
1.65126
1.65711
1.6644
1.67316
1.68337
1.69498
1.70794
1.72218
1.73762
1.75419
1.77186
1.79063
1.81054
1.83164
1.85377
1.8764
1.89875
1.91951
1.94091
1.49747
1.49884
1.5009
1.50375
1.50762
1.5127
1.51904
1.52667
1.53557
1.5457
1.55701
1.56943
1.58288
1.59731
1.61268
1.62897
1.64623
1.6645
1.68364
1.70314
1.7224
1.74028
1.75861
1.35498
1.35635
1.35822
1.36067
1.36396
1.36828
1.37369
1.38024
1.38789
1.39661
1.40635
1.41705
1.42862
1.44102
1.45418
1.46811
1.48283
1.49838
1.51462
1.53113
1.54738
1.5624
1.57789
1.2126
1.21394
1.21557
1.2176
1.22029
1.22385
1.22837
1.23387
1.24034
1.24774
1.25601
1.26509
1.2749
1.28537
1.29647
1.30817
1.32049
1.33346
1.34696
1.36062
1.37402
1.38639
1.39907
1.07041
1.07169
1.07304
1.07458
1.07663
1.07943
1.08307
1.08759
1.09295
1.09911
1.10601
1.11358
1.12175
1.13044
1.13962
1.14925
1.15934
1.16991
1.18085
1.19188
1.20262
1.21247
1.22265
0.928525
0.929712
0.930706
0.931678
0.933029
0.935043
0.937828
0.941398
0.945719
0.950732
0.956369
0.962553
0.969211
0.976274
0.983689
0.991425
0.999481
1.00786
1.01649
1.02511
1.03344
1.04101
1.04873
0.787097
0.788174
0.788693
0.788947
0.789503
0.790701
0.792644
0.795322
0.798677
0.802633
0.80711
0.812029
0.817315
0.822899
0.828726
0.834759
0.84099
0.847419
0.853987
0.860502
0.866725
0.872261
0.877943
0.64631
0.647274
0.647104
0.646408
0.646036
0.646385
0.647515
0.649361
0.651828
0.654817
0.658238
0.662009
0.666056
0.670312
0.674723
0.679246
0.683865
0.68858
0.693372
0.698104
0.702575
0.706457
0.710358
0.506348
0.507205
0.505941
0.50394
0.502508
0.502019
0.502403
0.503503
0.50517
0.507283
0.509745
0.512476
0.515408
0.51848
0.521638
0.524837
0.528048
0.531273
0.534547
0.537803
0.540902
0.543406
0.545805
0.367233
0.367659
0.36456
0.360999
0.358607
0.357477
0.357297
0.357793
0.358776
0.360114
0.361718
0.36352
0.365463
0.367498
0.369577
0.37165
0.373676
0.375654
0.377671
0.379676
0.381679
0.382652
0.383189
0.227576
0.226409
0.220092
0.216027
0.213659
0.212525
0.212153
0.212267
0.21271
0.213386
0.214236
0.215221
0.216307
0.217465
0.218662
0.219849
0.220972
0.222008
0.222941
0.224054
0.225181
0.225435
0.223084
0.0822641
0.0747823
0.0712815
0.0705076
0.0701012
0.069972
0.0699708
0.0700638
0.0702366
0.0704795
0.0707871
0.0711554
0.0715809
0.0720591
0.0725803
0.0731157
0.0736246
0.0740787
0.0743352
0.0747407
0.0757803
0.0761376
0.0722008
618.367
613.242
606.099
597.709
490.846
481.168
476.223
468.856
402.151
401.038
396.928
392.474
338.218
336.873
333.145
329.045
275.127
272.779
270.306
267.638
211.222
209.265
207.274
205.087
148.047
146.504
144.693
142.592
83.7932
82.2616
80.5862
78.9832
30.1924
30.281
29.2173
27.8119
5.18424
5.14993
5.28873
5.56278
5.4685
5.56263
5.66499
5.73579
5.395
5.49717
5.60081
5.6754
5.21478
5.31879
5.43259
5.52196
5.04647
5.15619
5.27604
5.36746
4.89076
5.00156
5.1218
5.21187
4.73028
4.83901
4.95778
5.04687
4.56372
4.66937
4.78615
4.87384
4.39269
4.49473
4.60812
4.69396
4.21785
4.31569
4.42542
4.50867
4.04022
4.13333
4.23824
4.31862
3.85934
3.94793
4.04843
4.12545
3.67622
3.76006
3.8551
3.9285
3.49042
3.5692
3.65905
3.72843
3.30227
3.37581
3.45983
3.52546
3.11262
3.18084
3.25952
3.32108
2.92257
2.9856
3.05825
3.11576
2.73208
2.78992
2.85713
2.91036
2.54157
2.59424
2.65556
2.70483
2.35167
2.39924
2.45524
2.5003
2.16307
2.20577
2.25593
2.29685
1.97535
2.01324
2.05822
2.09495
1.78857
1.82176
1.86135
1.89437
1.60332
1.63195
1.66684
1.6962
1.42049
1.4449
1.47488
1.50079
1.24018
1.26063
1.28639
1.3089
1.06274
1.07953
1.10105
1.12056
0.888695
0.902141
0.920056
0.936584
0.718506
0.729034
0.743286
0.756939
0.551616
0.559501
0.570553
0.581307
0.386564
0.391801
0.399621
0.40781
0.222093
0.224175
0.228903
0.235103
0.0694194
0.0693144
0.070804
0.0736824
574.171
570.827
560.269
548.676
542.288
541.558
549.407
552.158
553.684
557.696
557.59
557.235
555.722
550.46
544.891
540.808
540.778
542.324
549.461
463.348
462.598
456.69
448.914
444.275
445.173
441.326
439.024
437.255
436.209
434.239
432.124
429.364
425.402
422.033
420.52
422.6
427.035
433.037
383.976
382.159
380.447
378.942
375.533
368.374
362.57
357.436
352.073
346.241
340.133
334.076
327.979
321.761
316.28
312.457
311.409
314.025
316.283
323.965
320.591
317.897
315.586
312.38
306.691
300.436
293.635
287.366
280.687
273.215
265.231
257.066
248.812
240.544
233
227.462
225.016
225.307
263.066
258.902
255.472
252.447
248.73
242.967
236.474
229.931
223.444
216.654
209.329
201.548
193.531
185.372
177.188
169.35
162.423
157.132
155.35
201.19
196.777
192.786
188.924
184.476
178.912
172.774
166.399
159.894
153.079
145.763
137.926
129.934
121.919
113.759
105.656
97.931
91.6215
87.8164
138.775
134.241
130.022
125.782
121.033
115.419
109.337
102.983
96.4674
89.7391
82.5515
74.5143
66.4446
58.6669
51.6592
45.1487
38.809
33.6319
29.9769
76.2965
71.9392
67.5609
63.0227
58.1714
53.1587
48.107
43.1275
38.336
33.7734
29.4686
25.1697
21.5597
17.9341
14.5072
11.7168
9.57946
8.15966
7.64341
25.9413
23.6137
21.3837
18.9753
16.4951
14.4146
12.5011
10.7964
9.35154
8.09134
7.18099
7.02835
7.37373
7.36269
6.80011
6.46888
6.49886
6.54133
6.55483
5.90066
6.08869
6.15549
6.12407
6.17414
6.24936
6.3201
6.36937
6.42166
6.47655
6.4866
6.44372
6.36387
6.32582
6.34833
6.37273
6.376
6.38048
6.38622
5.82531
5.90195
5.95841
6.00658
6.04856
6.10266
6.14726
6.16905
6.17101
6.17822
6.19935
6.22861
6.22817
6.20719
6.20708
6.21348
6.21595
6.21702
6.2184
5.73529
5.77639
5.82201
5.86326
5.90168
5.94687
5.98486
6.00466
6.01142
6.01442
6.0232
6.03156
6.03278
6.03626
6.0453
6.05147
6.05266
6.05221
6.0511
5.59824
5.63725
5.67632
5.71281
5.74476
5.77103
5.79843
5.82352
5.8446
5.8543
5.85889
5.85674
5.86154
5.87496
5.88514
5.88868
5.88849
5.88607
5.88368
5.44669
5.48546
5.52131
5.55564
5.58474
5.60319
5.62091
5.64171
5.66581
5.68948
5.70068
5.70484
5.70977
5.7173
5.7229
5.72406
5.72174
5.7176
5.71435
5.2883
5.32442
5.35846
5.39151
5.42032
5.44321
5.46281
5.48217
5.50364
5.52368
5.53633
5.54295
5.54821
5.5531
5.55561
5.55457
5.55077
5.5457
5.54227
5.12188
5.15564
5.18827
5.22113
5.25033
5.27529
5.29694
5.31732
5.33668
5.35389
5.36584
5.37339
5.37854
5.38187
5.38254
5.38021
5.37562
5.37025
5.36705
4.94749
4.97985
5.01152
5.04432
5.07422
5.10029
5.12318
5.14365
5.16212
5.1778
5.18947
5.19732
5.20227
5.20471
5.2044
5.2014
5.19648
5.19111
5.18853
4.76631
4.7977
4.82875
4.86144
4.89177
4.91872
4.94231
4.96299
4.98101
4.99603
5.00751
5.0155
5.02039
5.02243
5.02167
5.0184
5.0135
5.00836
5.00645
4.57911
4.61006
4.6406
4.67313
4.70368
4.73115
4.75529
4.77626
4.79421
4.80902
4.82046
4.82854
4.83347
4.83541
4.83457
4.8314
4.82678
4.8222
4.82044
4.38718
4.41785
4.4478
4.48005
4.51062
4.53837
4.56285
4.58408
4.60213
4.61697
4.62851
4.63675
4.64183
4.64392
4.64329
4.64044
4.63635
4.63244
4.63091
4.19136
4.22109
4.2506
4.28251
4.31295
4.34077
4.36545
4.3869
4.40514
4.42016
4.43193
4.44047
4.4459
4.44838
4.44821
4.44596
4.44254
4.43931
4.43812
3.99176
4.02043
4.0494
4.08084
4.11104
4.13885
4.16368
4.18535
4.20386
4.2192
4.23136
4.24038
4.24633
4.24939
4.24987
4.24833
4.24569
4.24321
4.24234
3.78859
3.81655
3.84491
3.87583
3.90572
3.93344
3.95836
3.98027
3.99911
4.01486
4.02753
4.03712
4.04372
4.04749
4.04875
4.04804
4.04622
4.04444
4.04396
3.58302
3.61018
3.63793
3.66826
3.69776
3.72533
3.75029
3.77242
3.79162
3.80784
3.82108
3.83134
3.83868
3.84325
3.84536
3.84551
3.84454
3.84348
3.84332
3.37555
3.40208
3.42918
3.45885
3.48789
3.51523
3.54019
3.56251
3.58206
3.59878
3.61263
3.6236
3.63174
3.63717
3.64017
3.64123
3.64109
3.64066
3.64086
3.1673
3.19293
3.21931
3.24826
3.27676
3.30379
3.32869
3.35115
3.37104
3.38825
3.40273
3.41444
3.42341
3.42973
3.43365
3.43558
3.43624
3.43645
3.43694
2.95849
2.98334
3.00892
3.03705
3.06493
3.09157
3.11634
3.1389
3.15908
3.17676
3.19187
3.20432
3.21413
3.22135
3.22617
3.22899
3.2304
3.23115
3.23195
2.75002
2.77382
2.79854
2.82576
2.85292
2.8791
2.90364
2.92623
2.94665
2.96477
2.98046
2.99365
3.00428
3.01238
3.01811
3.02175
3.02389
3.02517
3.02621
2.54204
2.56488
2.58862
2.61485
2.64121
2.66682
2.69105
2.71358
2.73417
2.75266
2.7689
2.78277
2.79419
2.80315
2.80974
2.81422
2.81702
2.81875
2.82004
2.33534
2.35693
2.37961
2.40477
2.43023
2.45517
2.479
2.50136
2.52202
2.54079
2.5575
2.572
2.58417
2.59394
2.60136
2.60659
2.61004
2.61223
2.61371
2.12991
2.15039
2.17197
2.19597
2.22043
2.24459
2.26788
2.28996
2.31057
2.32952
2.3466
2.36165
2.37449
2.38501
2.3932
2.39917
2.40321
2.40578
2.40747
1.92646
1.94572
1.96615
1.98892
2.01228
2.03553
2.05814
2.07977
2.10019
2.11918
2.13652
2.152
2.16542
2.17662
2.18552
2.19214
2.19674
2.1997
2.20153
1.72524
1.74342
1.76265
1.78411
1.80624
1.82842
1.85018
1.87121
1.89125
1.91011
1.92755
1.94334
1.95724
1.96902
1.97855
1.98579
1.99086
1.99412
1.9961
1.52711
1.54402
1.56197
1.582
1.60276
1.62371
1.64442
1.66463
1.68409
1.70262
1.71998
1.73593
1.75018
1.76246
1.77254
1.78027
1.78576
1.78927
1.79129
1.33229
1.34799
1.36456
1.38303
1.40225
1.42176
1.44121
1.46035
1.47899
1.49696
1.51403
1.52994
1.54441
1.55708
1.56763
1.57582
1.5816
1.58521
1.58724
1.14145
1.15573
1.1708
1.18755
1.20504
1.22289
1.24082
1.25862
1.27615
1.29327
1.30979
1.32546
1.33998
1.35294
1.36391
1.37247
1.37845
1.38205
1.38393
0.954713
0.967534
0.980939
0.995794
1.01134
1.02728
1.0434
1.05955
1.07564
1.09158
1.10722
1.12237
1.13672
1.14985
1.16119
1.17015
1.17626
1.17966
1.18131
0.77234
0.783407
0.794983
0.807756
0.82113
0.834893
0.848891
0.863046
0.877319
0.891668
0.906028
0.920265
0.934141
0.947245
0.95894
0.968338
0.97468
0.977868
0.97916
0.593692
0.602988
0.612599
0.62311
0.634078
0.645374
0.656918
0.668691
0.680707
0.692986
0.705537
0.718325
0.731227
0.743941
0.755851
0.765956
0.772902
0.776089
0.777267
0.417677
0.425322
0.432898
0.44098
0.449297
0.457829
0.466574
0.475563
0.484851
0.494506
0.504605
0.515215
0.52637
0.537989
0.549734
0.560663
0.569062
0.573382
0.575101
0.244588
0.250985
0.25636
0.261819
0.267268
0.272796
0.278465
0.284334
0.290474
0.296971
0.303929
0.311477
0.31977
0.328972
0.339175
0.35012
0.360321
0.367478
0.373076
0.0792312
0.082249
0.0843474
0.0863545
0.0883219
0.0903055
0.092343
0.0944693
0.0967221
0.0991457
0.101797
0.104752
0.10812
0.112057
0.116797
0.122582
0.128813
0.132238
0.142521
)
;

boundaryField
{
    leftWall
    {
        type            calculated;
        value           nonuniform List<scalar> 
50
(
5981.78
5178.32
4373.69
3567.56
2759.51
1951.12
1227
851.558
731.475
606.795
484.057
362.628
250.224
161.248
93.4699
33.3429
6.95284
4.6703
4.54439
4.38438
4.20858
4.08782
3.93853
3.78772
3.64047
3.49539
3.35148
3.20833
3.0656
2.92308
2.78063
2.63816
2.49564
2.35308
2.21048
2.06785
1.92523
1.78262
1.64003
1.49747
1.35498
1.2126
1.07041
0.928525
0.787097
0.64631
0.506348
0.367233
0.227576
0.0822641
)
;
    }
    rightWall
    {
        type            calculated;
        value           nonuniform List<scalar> 
50
(
2849.23
2234.8
1657.14
1172.97
851.807
720.094
673.819
630.803
549.461
433.037
316.283
225.307
155.35
87.8164
29.9769
7.64341
6.55483
6.38622
6.2184
6.0511
5.88368
5.71435
5.54227
5.36705
5.18853
5.00645
4.82044
4.63091
4.43812
4.24234
4.04396
3.84332
3.64086
3.43694
3.23195
3.02621
2.82004
2.61371
2.40747
2.20153
1.9961
1.79129
1.58724
1.38393
1.18131
0.97916
0.777267
0.575101
0.373076
0.142521
)
;
    }
    lowerWall
    {
        type            calculated;
        value           nonuniform List<scalar> 
62
(
6379.93
6399.92
6420.33
6432.76
6432.19
6415.85
6383.06
6334.59
6271.85
6196.64
6112.42
6022.19
5929.15
5836.44
5747.58
5665.75
5593.38
5532.18
5483.22
5447.13
5424.29
5415.89
5419
5021.07
4226.52
3429.48
2628.44
1820.9
1132.33
811.301
736.784
682.283
715.255
705.144
691.264
2128.96
1555.64
1252.33
1076.97
917.591
795.657
713.364
657.888
2478.28
2480.01
2470.48
2451.85
2442.39
2462.3
2497.09
2473.29
2519.89
2616.85
2724.7
2813.23
2866.98
2944.72
3081.35
3166.57
3195.17
3184.82
3152.08
)
;
    }
    atmosphere
    {
        type            calculated;
        value           nonuniform List<scalar> 
46
(
-0.000794415
-0.000159044
-5.49033e-06
0
0
0
0
0
0
0
0
0
0
0
0
-1.66768e-06
-1.56988e-05
-5.24649e-05
-0.000135901
-0.000242913
-0.000363379
-0.000248675
-0.000299456
-0.000250613
-0.000255532
-0.000260472
-0.000269164
-0.000324484
-0.000331876
-0.000371964
-0.000431297
-0.000498263
-0.000567471
-0.00063551
-0.000699486
-0.000756801
-0.000805479
-0.000844707
-0.000875615
-0.000902372
-0.000933822
-0.000986688
-0.00109329
-0.00132003
-0.00190712
-0.00181805
)
;
    }
    defaultFaces
    {
        type            empty;
    }
}


// ************************************************************************* //
