/*--------------------------------*- C++ -*----------------------------------*\
  =========                 |
  \\      /  F ield         | OpenFOAM: The Open Source CFD Toolbox
   \\    /   O peration     | Website:  https://openfoam.org
    \\  /    A nd           | Version:  13
     \\/     M anipulation  |
\*---------------------------------------------------------------------------*/
FoamFile
{
    format      ascii;
    class       volScalarField;
    location    "2.25";
    object      p_rgh;
}
// * * * * * * * * * * * * * * * * * * * * * * * * * * * * * * * * * * * * * //

dimensions      [1 -1 -2 0 0 0 0];

internalField   nonuniform List<scalar> 
2268
(
6379.93
6399.92
6420.33
6432.76
6432.19
6415.85
6383.06
6334.59
6271.85
6196.64
6112.42
6022.19
5929.15
5836.44
5747.58
5665.75
5593.38
5532.18
5483.22
5447.13
5424.29
5415.89
5419
6372.77
6391.63
6411.32
6422.93
6422.75
6407.94
6377.52
6331.89
6272.07
6200.05
6118.11
6029.92
5938.49
5846.74
5758.27
5676.37
5603.51
5541.38
5490.98
5453.05
5427.95
5418.35
5420.65
6364.44
6382.08
6401.31
6412.59
6413.21
6400.31
6372.62
6330.22
6273.71
6204.58
6125.2
6039.17
5949.55
5858.83
5770.69
5688.56
5614.93
5551.53
5499.35
5459.14
5431.33
5420.55
5420.23
6354.61
6372.39
6392.82
6405.46
6407.66
6396.68
6371.26
6331.41
6277.48
6210.49
6132.91
6048.5
5959.98
5869.56
5781.1
5698.13
5623.23
5558.24
5504.07
5461.47
5431.11
5418.87
5415.49
6342.86
6360.72
6383
6398.51
6403.32
6394.85
6371.96
6334.63
6282.99
6217.59
6140.93
6056.98
5967.8
5874.69
5783.07
5696.72
5618.75
5551.37
5495.14
5450.46
5418.35
5405.54
5404.25
6330.76
6350.12
6375.68
6395.22
6403.28
6397.88
6378.05
6343.32
6292.75
6225.68
6144.59
6054.8
5934.97
5676.34
5375.2
5051.14
4746.87
4490.78
4285.4
4129.2
4030.29
4033
4126.45
5353.45
5499.21
5719.78
5868.31
5931.79
5938.84
5898.96
5782.07
5520.35
5059.87
4428.49
3701.2
2982.43
2449.58
2043.06
1775.17
1597.26
1476.04
1394.11
1339.53
1306.14
1299.83
1330.48
1705.81
1821.64
2030.99
2220.69
2347.35
2355.79
2218.64
1982.52
1720.52
1491.11
1330.3
1264.14
1260.8
1258.58
1253.9
1246.49
1236.99
1225.88
1213.64
1200.84
1188.12
1178.62
1177.99
2478.28
2480.01
2470.48
2451.85
2442.39
2462.3
2497.09
2473.29
2519.89
2616.85
2724.7
2813.23
2866.98
2944.72
3081.35
3166.57
3195.17
3184.82
3152.08
2223.31
2229.85
2232.23
2198.61
2189.17
2282.4
2373.06
2521.63
2674.03
2773.43
2878.96
2974.75
2970.14
3055.43
3125.12
3170.43
3192.97
3179.48
3143.37
1667.41
1631.7
1573.88
1551.25
1607.18
1542.34
1596.43
1769.55
1969.88
2347.99
2660.15
2845.06
3006.69
3079.12
3128.28
3169.76
3190.55
3173.71
2962.93
1723.64
1743.3
1633.48
1631.43
1457.58
1306.71
1212.08
1212.18
1213.36
1185.76
1302.4
1826.86
2086.89
2157.24
2393.92
2569.35
2594.34
2589.24
2647.02
1526.31
1586.88
1632.52
1646.69
1493.78
1307.32
1280.25
1282.12
1267.27
1130.34
1087.05
966.284
1605.78
1774.09
1770.75
1662.24
1776.87
1659.99
1769.22
1402.65
1407.04
1465.36
1342.24
1461.48
1447.39
1381.76
1445.66
1387.61
1124.47
1098.07
950.739
863.097
1292.06
1342.43
1464.71
1360.45
1260.34
1009.97
1072.91
1068.64
1111.76
1175.05
1287.91
1434.62
1468.01
1162.65
1108.8
1105.31
1095.57
1070.43
851.69
782.711
866.243
968.358
1011.52
1007.22
881.977
1111.78
1068.79
1093.89
1070.51
1079.62
1209.29
1046.87
1086.77
1088.4
1095.87
1093.74
1090.16
1054.3
974.193
983.655
1045.58
1068.64
1069.38
987.076
1264.94
1263.41
1257.79
1251.26
1246.15
1243.76
1244.26
1246.69
1249.76
1252.35
1253.31
1252.94
1251.5
1248.94
1244.79
1238.54
1230.27
1220.25
1208.89
1196.59
1184.02
1173.47
1166.02
1265.46
1262.29
1258.15
1253.85
1250.5
1248.67
1248.32
1249.07
1250.39
1251.51
1252.26
1251.8
1249.96
1246.82
1242.14
1235.6
1227.46
1217.82
1207.01
1188.54
1172.86
1151.02
1152.79
1267.91
1263.14
1257.79
1254.08
1252.17
1251.32
1251.28
1251.73
1252.58
1253.16
1253.09
1251.83
1249.16
1245.39
1237.63
1221.77
1207.12
1178.3
1116.19
1087.1
997.074
959.299
908.032
1263.19
1252.08
1252.36
1253.91
1253.48
1254.55
1254.81
1248.94
1248.3
1243.1
1233.88
1219.29
1185
1130.94
1080.74
1016.01
938.405
860.989
799.338
783.648
790.407
761.096
729.083
1107.26
1096.82
1068.21
1034.68
1027.09
1048
1087.17
1047.24
1015.02
969.773
923.689
869.899
794.455
730.824
725.366
731.595
713.814
748.535
795.583
795.748
793.424
760.788
752.7
819.287
756.325
737.492
736.039
738.205
747.102
718.223
699.344
714.759
719.848
713.726
709.587
740.575
778.438
784.625
781.512
781.516
793.26
797.783
797.076
794.832
793.43
793.986
648.282
698.779
723.09
727.841
734.691
740.734
747.584
754.9
762.528
769.991
776.225
781.599
786.16
790.065
793.344
795.824
797.312
797.579
797.198
796.541
795.708
794.454
792.429
493.204
356.679
297.33
376.377
501.596
627.542
708.239
742.408
761.201
774.968
780.156
783.699
787.305
790.788
793.528
795.362
796.344
796.461
795.952
795.341
794.442
792.912
790.814
58.4497
8.53521
6.75379
8.5499
24.5075
57.4836
113.148
204.913
361.692
552.391
670.893
702.564
715.8
730.74
748.054
759.064
763.009
763.633
754.424
748.191
747.701
745.534
739.871
6.33306
6.32287
6.31611
6.3374
6.35957
6.35175
6.28617
6.20621
6.12927
6.11216
6.85607
37.1974
79.7148
138.745
186.719
205.669
210.373
204.654
165.639
143.083
135.708
102.908
29.6566
6.33199
6.30048
6.29217
6.34351
6.31989
6.24863
6.20893
6.20507
6.21
6.21915
6.25677
6.2772
6.28823
6.3257
6.38315
6.44981
6.52832
6.60684
6.70383
6.79983
6.88858
6.99786
7.13891
6.29682
6.27169
6.28701
6.34112
6.33646
6.27288
6.2367
6.23619
6.24992
6.26745
6.30709
6.34934
6.40779
6.47669
6.55261
6.6326
6.7152
6.79766
6.88165
6.96609
7.04766
7.119
7.19392
6.24522
6.26362
6.27533
6.26921
6.26476
6.2549
6.24962
6.26374
6.31971
6.41983
6.36789
6.3602
6.4025
6.46072
6.52781
6.6006
6.67743
6.75757
6.83983
6.92246
7.00331
7.07612
7.14581
6.24954
6.25386
6.25539
6.24914
6.24532
6.24469
6.24654
6.26167
6.44014
6.46535
6.50051
6.46774
6.39953
6.44937
6.51064
6.57771
6.64949
6.72552
6.80483
6.88428
6.96091
7.03117
7.1028
6.2252
6.22829
6.22981
6.22954
6.22955
6.23234
6.23799
6.24671
6.41632
6.47042
6.50495
6.48589
6.4031
6.45141
6.5077
6.57123
6.63764
6.70748
6.78259
6.8584
6.93188
6.99939
7.0692
6.19945
6.20268
6.2064
6.20927
6.21279
6.21877
6.2277
6.23975
6.27798
6.40199
6.43521
6.38899
6.40046
6.45008
6.50489
6.56436
6.62575
6.6903
6.76134
6.8335
6.9042
6.96948
7.03674
6.17726
6.18022
6.18468
6.18955
6.19569
6.2043
6.21602
6.23126
6.24994
6.277
6.30819
6.34553
6.3916
6.44178
6.49252
6.5463
6.605
6.66851
6.7358
6.80455
6.87227
6.93499
6.99941
6.15732
6.15987
6.1645
6.17047
6.17833
6.18884
6.20251
6.21967
6.24075
6.26678
6.29816
6.33526
6.37845
6.42424
6.47238
6.5247
6.5815
6.64241
6.70639
6.77175
6.83637
6.89625
6.95761
6.13858
6.14082
6.14539
6.1519
6.16075
6.17245
6.18735
6.20572
6.22795
6.25445
6.28551
6.32181
6.36153
6.40466
6.45087
6.50134
6.5555
6.61317
6.6738
6.73581
6.79712
6.85393
6.91258
6.12062
6.12259
6.12698
6.13367
6.14298
6.15528
6.17079
6.18972
6.21227
6.23865
6.26905
6.30358
6.34157
6.38252
6.42696
6.47492
6.52621
6.58079
6.6382
6.69694
6.755
6.80852
6.86492
6.10309
6.10483
6.10899
6.11561
6.12501
6.13745
6.15307
6.172
6.19433
6.22017
6.24952
6.28234
6.31842
6.35768
6.40001
6.44541
6.49389
6.54546
6.59969
6.65525
6.71024
6.76117
6.81378
6.08575
6.08731
6.09121
6.09762
6.10685
6.11909
6.13445
6.15298
6.1747
6.19965
6.22779
6.25905
6.29333
6.33051
6.37052
6.41333
6.459
6.50758
6.55868
6.61101
6.66285
6.71098
6.76029
6.06848
6.06989
6.07352
6.07963
6.08852
6.10034
6.11516
6.13299
6.15382
6.17764
6.2044
6.23401
6.26637
6.3014
6.33901
6.37919
6.42203
6.46759
6.51552
6.56461
6.61321
6.65832
6.70464
6.0512
6.05249
6.05587
6.06163
6.07007
6.0813
6.09539
6.11232
6.13206
6.15458
6.17979
6.20763
6.238
6.27079
6.30594
6.34347
6.38345
6.42595
6.47065
6.5164
6.5617
6.60373
6.6467
6.03386
6.03508
6.03824
6.04363
6.05153
6.06208
6.07531
6.0912
6.10971
6.13078
6.15435
6.18032
6.2086
6.2391
6.27177
6.3066
6.34368
6.38308
6.42449
6.46688
6.50883
6.54771
6.58754
6.01648
6.01766
6.02062
6.02563
6.03298
6.04278
6.05506
6.06982
6.08699
6.10654
6.12837
6.1524
6.17855
6.20672
6.23685
6.26896
6.30312
6.3394
6.37752
6.41651
6.45512
6.49095
6.52752
5.99906
6.00024
6.00303
6.00767
6.01443
6.02344
6.03474
6.04831
6.0641
6.08205
6.1021
6.12416
6.14813
6.17394
6.20153
6.23091
6.26214
6.2953
6.33012
6.36577
6.40102
6.43374
6.46727
5.98162
5.98282
5.98546
5.98974
5.99592
6.00413
6.01442
6.02677
6.04115
6.0575
6.07574
6.0958
6.1176
6.14104
6.16609
6.19275
6.22107
6.25114
6.28271
6.31499
6.34694
6.37659
6.40683
5.96418
5.96542
5.96792
5.97185
5.97744
5.98486
5.99414
6.00527
6.01823
6.03297
6.04942
6.06749
6.08712
6.10823
6.13076
6.15473
6.18019
6.2072
6.23556
6.26457
6.29325
6.31984
6.34711
5.94676
5.94805
5.95041
5.95398
5.959
5.96562
5.9739
5.98384
5.9954
6.00855
6.02323
6.03936
6.05686
6.07567
6.09574
6.11707
6.13971
6.16374
6.18896
6.21472
6.24023
6.26392
6.28815
5.92935
5.93069
5.93291
5.93612
5.94057
5.94641
5.95371
5.96247
5.97267
5.98429
5.99724
6.01148
6.02692
6.04349
6.06116
6.07993
6.09984
6.12094
6.14308
6.1657
6.18805
6.20881
6.23022
5.91198
5.91335
5.9154
5.91825
5.92212
5.9272
5.93354
5.94117
5.95006
5.9602
5.9715
5.98392
5.99738
6.01181
6.02717
6.04346
6.06073
6.079
6.09814
6.11764
6.1369
6.15478
6.1731
5.89468
5.89605
5.89791
5.90037
5.90366
5.90797
5.91339
5.91993
5.92758
5.9363
5.94605
5.95674
5.96832
5.98071
5.99387
6.0078
6.02252
6.03807
6.05431
6.07083
6.08707
6.10209
6.11758
5.87749
5.87883
5.88046
5.88249
5.88518
5.88874
5.89326
5.89876
5.90523
5.91263
5.9209
5.92997
5.93978
5.95026
5.96135
5.97305
5.98538
5.99835
6.01185
6.02551
6.03891
6.05128
6.06395
5.86049
5.86177
5.86312
5.86466
5.86671
5.86951
5.87316
5.87767
5.88303
5.88919
5.89609
5.90366
5.91183
5.92052
5.9297
5.93933
5.94942
5.95999
5.97093
5.98196
5.9927
6.00255
6.01273
5.8438
5.84499
5.84598
5.84695
5.8483
5.85032
5.8531
5.85667
5.86099
5.86601
5.87164
5.87783
5.88449
5.89155
5.89896
5.9067
5.91476
5.92314
5.93177
5.94039
5.94872
5.95628
5.964
5.82757
5.82864
5.82916
5.82942
5.82997
5.83117
5.83311
5.83579
5.83915
5.8431
5.84758
5.8525
5.85778
5.86337
5.8692
5.87523
5.88146
5.88789
5.89446
5.90097
5.90719
5.91273
5.91841
5.81198
5.81294
5.81277
5.81207
5.8117
5.81205
5.81318
5.81503
5.81749
5.82048
5.8239
5.82767
5.83172
5.83598
5.84039
5.84491
5.84953
5.85424
5.85904
5.86377
5.86824
5.87212
5.87602
5.79721
5.79806
5.7968
5.7948
5.79337
5.79288
5.79326
5.79436
5.79603
5.79814
5.8006
5.80333
5.80627
5.80934
5.8125
5.8157
5.81891
5.82213
5.82541
5.82866
5.83176
5.83427
5.83666
5.78329
5.78371
5.78061
5.77705
5.77466
5.77353
5.77335
5.77385
5.77483
5.77617
5.77777
5.77957
5.78152
5.78355
5.78563
5.7877
5.78973
5.79171
5.79372
5.79573
5.79773
5.79871
5.79924
5.76882
5.76766
5.76134
5.75727
5.75491
5.75377
5.7534
5.75352
5.75396
5.75463
5.75548
5.75647
5.75755
5.75871
5.75991
5.7611
5.76222
5.76326
5.76419
5.7653
5.76643
5.76668
5.76433
5.74871
5.74123
5.73772
5.73695
5.73654
5.73641
5.73641
5.73651
5.73668
5.73692
5.73723
5.7376
5.73802
5.7385
5.73902
5.73956
5.74007
5.74052
5.74078
5.74118
5.74222
5.74258
5.73864
1163.07
1482.62
1450.18
1395
1117.93
990.024
915.191
943.983
779.005
728.254
756.787
821.883
729.159
782.837
781.779
770.346
792.455
793.389
789.161
785.622
791.209
789.022
786.995
784.811
790.364
788.819
787.015
784.922
788.71
787.179
785.504
783.898
739.255
716.08
677.026
631.84
9.58474
10.2489
6.949
7.22363
7.25398
7.34815
7.45057
7.52141
7.30571
7.4079
7.51157
7.58626
7.25067
7.3547
7.46856
7.55793
7.20756
7.31728
7.43713
7.52857
7.17704
7.28784
7.40808
7.49814
7.1418
7.25047
7.36925
7.45834
7.10046
7.20605
7.32282
7.4105
7.05459
7.15659
7.26997
7.3558
7.00489
7.10272
7.21244
7.29568
6.95242
7.04553
7.15043
7.23081
6.89672
6.98531
7.0858
7.16282
6.83879
6.92262
7.01766
7.09106
6.77817
6.85695
6.9468
7.01618
6.71522
6.78876
6.87277
6.9384
6.65076
6.71898
6.79765
6.85922
6.58591
6.64893
6.72159
6.77909
6.52061
6.57844
6.64566
6.69888
6.45529
6.50796
6.56928
6.61855
6.39058
6.43816
6.49416
6.53922
6.32718
6.36987
6.42004
6.46096
6.26465
6.30254
6.34753
6.38425
6.20307
6.23626
6.27584
6.30887
6.14301
6.17164
6.20654
6.23589
6.08537
6.10979
6.13977
6.16567
6.03026
6.05072
6.07647
6.09898
5.97801
5.99481
6.01633
6.03584
5.92916
5.94261
5.96053
5.97705
5.88417
5.8947
5.90895
5.9226
5.84248
5.85036
5.86141
5.87217
5.80262
5.80785
5.81567
5.82386
5.76334
5.76542
5.77015
5.77635
5.73586
5.73576
5.73725
5.74013
1157.81
1050.9
1020.46
1068.31
1050.63
940.839
1050.25
1083.12
1085.18
1090.89
1091.36
1091.27
1089.66
1083.17
1077.05
1074.32
1074.3
1075.64
1004.44
993.684
985.338
924.594
820.433
774.167
906.445
934.785
953.976
978.829
1021.35
1049.3
1068.37
1078.27
1082.02
1080.6
1079.18
1081.21
1081.02
1071.17
775.486
775.014
775.291
762.082
738.081
725.726
719.238
751.169
747.254
751.537
767.316
790.459
811.209
827.433
858.895
897.642
948.775
988.811
1017.67
775.999
774.913
772.401
758.996
739.758
747.359
754.812
748.217
742.038
735.269
727.759
719.854
711.755
703.927
696.199
689.239
685.676
739.007
753.089
780.277
775.814
772.182
768.566
765.89
760.09
753.598
747.058
740.576
733.779
726.454
718.68
710.63
702.491
694.492
687.024
680.287
688.768
731.721
780.913
776.487
772.488
768.654
764.2
758.632
752.494
746.119
739.614
732.799
725.484
717.647
709.654
701.64
693.563
685.803
679.427
675.851
672.581
781.096
776.56
772.342
768.102
763.352
757.736
751.654
745.3
738.785
732.056
724.869
716.861
709.233
698.946
674.951
635.289
579.141
512.719
454.347
781.212
776.857
772.478
767.939
759.328
729.236
694.193
655.122
615.06
575.192
525.643
437.14
344.465
258.003
197.242
140.349
82.1107
43.263
28.606
566.702
486.612
412.783
342.387
269.111
211.185
158.884
113.835
76.1256
42.5495
18.8652
18.1113
34.8021
37.8306
20.414
8.02133
8.03389
8.07636
8.33851
7.56095
9.77404
10.4898
7.88377
7.8452
7.95726
8.15598
8.4948
9.94138
11.6912
11.6998
9.83823
8.25309
8.11809
8.01911
8.03314
8.03672
8.0414
8.04688
7.61096
7.68781
7.74451
7.79436
7.84409
7.92468
8.07053
8.1984
8.29819
8.29231
8.332
8.93648
8.92992
8.39377
7.99308
7.99993
8.00273
8.00328
8.00435
7.64621
7.68744
7.73302
7.7743
7.82128
8.50446
8.82789
8.73595
7.99569
7.95835
8.15839
8.8364
8.77756
8.07754
7.95651
7.96303
7.9643
7.96334
7.96228
7.63425
7.67339
7.71244
7.74888
7.7814
8.35483
8.83178
8.8524
8.67325
7.8903
7.89569
7.89513
7.90007
7.91269
7.92151
7.92504
7.92448
7.92208
7.92008
7.60782
7.64664
7.68254
7.71692
7.74661
7.77056
7.86501
8.00341
7.9802
7.86858
7.8623
7.86732
7.87221
7.87879
7.88418
7.8852
7.8828
7.87882
7.87589
7.57458
7.61072
7.64482
7.67793
7.70677
7.72961
7.74915
7.76852
7.79004
7.81013
7.82291
7.82981
7.83503
7.83991
7.84218
7.84084
7.83704
7.83206
7.82857
7.53334
7.56709
7.59974
7.63264
7.66187
7.68692
7.70875
7.72928
7.74855
7.76556
7.77746
7.78515
7.79051
7.7939
7.79427
7.7917
7.78707
7.78168
7.77845
7.48413
7.51648
7.54816
7.58096
7.61085
7.63695
7.66007
7.68087
7.69933
7.71479
7.72621
7.73404
7.73911
7.74159
7.74112
7.73803
7.7331
7.72771
7.72513
7.42813
7.45951
7.49056
7.52326
7.55358
7.58053
7.60412
7.62494
7.64306
7.65797
7.66941
7.67735
7.68224
7.68426
7.68348
7.68021
7.67531
7.67015
7.66825
7.36611
7.39706
7.42759
7.46012
7.49067
7.51815
7.54229
7.56326
7.58121
7.59603
7.60748
7.61556
7.62047
7.6224
7.62156
7.61838
7.61376
7.60918
7.60743
7.29936
7.33003
7.35998
7.39223
7.4228
7.45055
7.47503
7.49627
7.51432
7.52916
7.5407
7.54894
7.55401
7.55609
7.55546
7.55262
7.54853
7.54463
7.54309
7.22873
7.25846
7.28797
7.31988
7.35032
7.37814
7.40282
7.42427
7.44251
7.45753
7.4693
7.47784
7.48327
7.48575
7.48558
7.48333
7.47992
7.47669
7.4755
7.15432
7.18299
7.21196
7.2434
7.2736
7.30141
7.32623
7.34791
7.36642
7.38176
7.39392
7.40293
7.40888
7.41194
7.41243
7.41089
7.40826
7.4058
7.40493
7.07634
7.1043
7.13266
7.16358
7.19347
7.22119
7.24611
7.26802
7.28686
7.30261
7.31528
7.32487
7.33147
7.33524
7.3365
7.3358
7.334
7.33224
7.33176
6.99596
7.02312
7.05088
7.0812
7.11071
7.13827
7.16324
7.18536
7.20456
7.22078
7.23402
7.24428
7.25162
7.2562
7.25831
7.25846
7.25751
7.25651
7.25634
6.91369
6.94022
6.96731
6.99699
7.02603
7.05336
7.07833
7.10064
7.12019
7.13692
7.15077
7.16174
7.16988
7.17531
7.17831
7.17938
7.17926
7.17892
7.17912
6.83063
6.85626
6.88264
6.91159
6.94009
6.96712
6.99202
7.01448
7.03437
7.05158
7.06606
7.07777
7.08674
7.09307
7.09699
7.09893
7.09962
7.09994
7.10041
6.74702
6.77186
6.79744
6.82558
6.85345
6.8801
6.90486
6.92742
6.9476
6.96529
6.98039
6.99285
7.00265
7.00987
7.0147
7.01753
7.01899
7.01983
7.02064
6.66374
6.68754
6.71226
6.73948
6.76664
6.79282
6.81736
6.83995
6.86037
6.87849
6.89418
6.90737
6.918
6.9261
6.93183
6.93549
6.93768
6.93908
6.94005
6.58096
6.60379
6.62753
6.65377
6.68012
6.70573
6.72997
6.75249
6.77308
6.79157
6.80781
6.82168
6.83311
6.84207
6.84866
6.85315
6.85603
6.85786
6.85907
6.49945
6.52103
6.54372
6.56888
6.59434
6.61928
6.6431
6.66546
6.68613
6.7049
6.72161
6.73611
6.74828
6.75806
6.76548
6.77073
6.77425
6.77654
6.77791
6.41921
6.43969
6.46127
6.48527
6.50974
6.5339
6.55719
6.57926
6.59987
6.61882
6.63591
6.65095
6.66379
6.67432
6.68251
6.6885
6.69263
6.69529
6.69686
6.34096
6.36021
6.38065
6.40342
6.42678
6.45003
6.47264
6.49427
6.51469
6.53367
6.55101
6.5665
6.57992
6.59112
6.60003
6.60667
6.61133
6.61436
6.61607
6.26493
6.28312
6.30235
6.3238
6.34593
6.36811
6.38988
6.4109
6.43095
6.4498
6.46724
6.48303
6.49693
6.50872
6.51825
6.52551
6.53063
6.53386
6.53582
6.19199
6.20891
6.22686
6.24689
6.26764
6.28859
6.30931
6.32951
6.34898
6.36751
6.38487
6.40081
6.41507
6.42735
6.43743
6.44518
6.45068
6.4542
6.45619
6.12237
6.13807
6.15464
6.17311
6.19233
6.21184
6.23129
6.25043
6.26907
6.28704
6.30411
6.32003
6.3345
6.34717
6.35772
6.36593
6.37171
6.3753
6.37733
6.05673
6.07101
6.08608
6.10283
6.12032
6.13817
6.15609
6.17389
6.19143
6.20855
6.22506
6.24074
6.25526
6.26823
6.2792
6.28776
6.29374
6.29734
6.29921
5.99518
6.008
6.02141
6.03626
6.05181
6.06775
6.08387
6.10002
6.11611
6.13205
6.14769
6.16284
6.1772
6.19033
6.20167
6.21063
6.21674
6.22013
6.22178
5.938
5.94907
5.96065
5.97342
5.98679
6.00056
6.01456
6.02871
6.04298
6.05733
6.07169
6.08593
6.09981
6.11291
6.12461
6.13401
6.14035
6.14354
6.14483
5.88455
5.89385
5.90346
5.91397
5.92494
5.93623
5.94778
5.95955
5.97157
5.98385
5.9964
6.00919
6.02209
6.0348
6.04672
6.05682
6.06376
6.06695
6.06813
5.83373
5.84138
5.84895
5.85703
5.86535
5.87388
5.88263
5.89162
5.9009
5.91056
5.92066
5.93127
5.94243
5.95404
5.96579
5.97672
5.98512
5.98944
5.99116
5.78584
5.79223
5.79761
5.80307
5.80852
5.81404
5.81971
5.82558
5.83172
5.83822
5.84518
5.85273
5.86102
5.87022
5.88042
5.89137
5.90157
5.90873
5.91432
5.74567
5.74869
5.75079
5.7528
5.75476
5.75675
5.75879
5.76091
5.76316
5.76559
5.76824
5.7712
5.77456
5.7785
5.78324
5.78903
5.79526
5.79868
5.80896
)
;

boundaryField
{
    leftWall
    {
        type            fixedFluxPressure;
        gradient        uniform 0;
        value           nonuniform List<scalar> 
50
(
6379.93
6372.77
6364.44
6354.61
6342.86
6330.76
5353.45
1705.81
1264.94
1265.46
1267.91
1263.19
1107.26
819.287
648.282
493.204
58.4497
6.33306
6.33199
6.29682
6.24522
6.24954
6.2252
6.19945
6.17726
6.15732
6.13858
6.12062
6.10309
6.08575
6.06848
6.0512
6.03386
6.01648
5.99906
5.98162
5.96418
5.94676
5.92935
5.91198
5.89468
5.87749
5.86049
5.8438
5.82757
5.81198
5.79721
5.78329
5.76882
5.74871
)
;
    }
    rightWall
    {
        type            fixedFluxPressure;
        gradient        uniform 0;
        value           nonuniform List<scalar> 
50
(
3152.08
3143.37
2962.93
2647.02
1769.22
1009.97
881.977
987.076
1004.44
1071.17
1017.67
753.089
731.721
672.581
454.347
28.606
8.33851
8.04688
8.00435
7.96228
7.92008
7.87589
7.82857
7.77845
7.72513
7.66825
7.60743
7.54309
7.4755
7.40493
7.33176
7.25634
7.17912
7.10041
7.02064
6.94005
6.85907
6.77791
6.69686
6.61607
6.53582
6.45619
6.37733
6.29921
6.22178
6.14483
6.06813
5.99116
5.91432
5.80896
)
;
    }
    lowerWall
    {
        type            fixedFluxPressure;
        gradient        uniform 0;
        value           nonuniform List<scalar> 
62
(
6379.93
6399.92
6420.33
6432.76
6432.19
6415.85
6383.06
6334.59
6271.85
6196.64
6112.42
6022.19
5929.15
5836.44
5747.58
5665.75
5593.38
5532.18
5483.22
5447.13
5424.29
5415.89
5419
5419
5420.65
5420.23
5415.49
5404.25
4126.45
1330.48
1177.99
1163.07
1482.62
1450.18
1395
2478.28
2223.31
1667.41
1723.64
1526.31
1402.65
1072.91
1111.78
2478.28
2480.01
2470.48
2451.85
2442.39
2462.3
2497.09
2473.29
2519.89
2616.85
2724.7
2813.23
2866.98
2944.72
3081.35
3166.57
3195.17
3184.82
3152.08
)
;
    }
    atmosphere
    {
        type            prghTotalPressure;
        rho             rho;
        psi             none;
        gamma           1;
        p0              uniform 0;
        value           nonuniform List<scalar> 
46
(
5.72825
5.72888
5.72903
5.72904
5.72904
5.72904
5.72904
5.72904
5.72904
5.72904
5.72904
5.72904
5.72904
5.72904
5.72904
5.72904
5.72902
5.72899
5.7289
5.7288
5.72868
5.72879
5.72874
5.72879
5.72878
5.72878
5.72877
5.72872
5.72871
5.72867
5.72861
5.72854
5.72847
5.7284
5.72834
5.72828
5.72823
5.7282
5.72816
5.72814
5.72811
5.72805
5.72795
5.72772
5.72713
5.72722
)
;
        rho             rho;
    }
    defaultFaces
    {
        type            empty;
    }
}


// ************************************************************************* //
