/*--------------------------------*- C++ -*----------------------------------*\
  =========                 |
  \\      /  F ield         | OpenFOAM: The Open Source CFD Toolbox
   \\    /   O peration     | Website:  https://openfoam.org
    \\  /    A nd           | Version:  13
     \\/     M anipulation  |
\*---------------------------------------------------------------------------*/
FoamFile
{
    format      ascii;
    class       surfaceScalarField;
    location    "2.25";
    object      phi;
}
// * * * * * * * * * * * * * * * * * * * * * * * * * * * * * * * * * * * * * //

dimensions      [0 3 -1 0 0 0 0];

internalField   nonuniform List<scalar> 
4432
(
1.27618e-06
-1.27617e-06
2.4184e-06
-1.14223e-06
3.75452e-06
-1.33612e-06
5.15192e-06
-1.39741e-06
6.46781e-06
-1.31589e-06
7.59148e-06
-1.12368e-06
8.45389e-06
-8.62407e-07
9.02203e-06
-5.68139e-07
9.29174e-06
-2.69718e-07
9.27462e-06
1.71221e-08
9.00298e-06
2.71647e-07
8.51044e-06
4.92539e-07
7.83373e-06
6.76703e-07
7.01839e-06
8.15347e-07
6.11479e-06
9.03602e-07
5.165e-06
9.49783e-07
4.20755e-06
9.57454e-07
3.28132e-06
9.2623e-07
2.42391e-06
8.57408e-07
1.67607e-06
7.47836e-07
1.08832e-06
5.87748e-07
6.99439e-07
3.88875e-07
6.99438e-07
1.16006e-06
-2.43623e-06
2.48769e-06
-2.46985e-06
3.95273e-06
-2.80115e-06
5.42964e-06
-2.87432e-06
6.78511e-06
-2.67137e-06
7.92239e-06
-2.26097e-06
8.78397e-06
-1.72398e-06
9.3442e-06
-1.12837e-06
9.59893e-06
-5.24445e-07
9.56556e-06
5.04923e-08
9.27625e-06
5.60959e-07
8.77339e-06
9.95396e-07
8.0928e-06
1.3573e-06
7.27591e-06
1.63223e-06
6.37355e-06
1.80596e-06
5.43245e-06
1.89088e-06
4.49113e-06
1.89876e-06
3.58028e-06
1.83707e-06
2.71952e-06
1.71816e-06
1.92197e-06
1.54537e-06
1.20754e-06
1.30217e-06
5.86489e-07
1.00992e-06
1.2859e-06
1.15735e-06
-3.59358e-06
2.56612e-06
-3.87863e-06
4.05392e-06
-4.28895e-06
5.51531e-06
-4.33571e-06
6.8403e-06
-3.99635e-06
7.94817e-06
-3.36884e-06
8.79012e-06
-2.56593e-06
9.34303e-06
-1.68128e-06
9.60002e-06
-7.81436e-07
9.57421e-06
7.63049e-08
9.29849e-06
8.36676e-07
8.81528e-06
1.47861e-06
8.16132e-06
2.01125e-06
7.37276e-06
2.4208e-06
6.49984e-06
2.67887e-06
5.59085e-06
2.79987e-06
4.68383e-06
2.80577e-06
3.80593e-06
2.71497e-06
2.96878e-06
2.5553e-06
2.1708e-06
2.34334e-06
1.4036e-06
2.06935e-06
6.46058e-07
1.76745e-06
1.93195e-06
1.16814e-06
-4.7617e-06
2.59869e-06
-5.30916e-06
4.06652e-06
-5.75677e-06
5.48083e-06
-5.74999e-06
6.75522e-06
-5.27073e-06
7.82394e-06
-4.43755e-06
8.6449e-06
-3.38688e-06
9.19704e-06
-2.2334e-06
9.46955e-06
-1.05395e-06
9.46839e-06
7.74714e-08
9.22461e-06
1.08045e-06
8.78128e-06
1.92193e-06
8.16957e-06
2.62295e-06
7.42333e-06
3.16703e-06
6.59233e-06
3.50986e-06
5.72495e-06
3.66723e-06
4.85923e-06
3.67147e-06
4.02064e-06
3.55355e-06
3.21647e-06
3.35945e-06
2.43563e-06
3.12418e-06
1.64934e-06
2.85563e-06
7.99805e-07
2.61698e-06
2.73174e-06
1.19626e-06
-5.95795e-06
2.58767e-06
-6.70056e-06
3.99652e-06
-7.1656e-06
5.33841e-06
-7.09188e-06
6.54604e-06
-6.47835e-06
7.56847e-06
-5.45997e-06
8.36958e-06
-4.18798e-06
8.92875e-06
-2.79257e-06
9.23006e-06
-1.35527e-06
9.27e-06
3.75334e-08
9.07044e-06
1.28e-06
8.67444e-06
2.31793e-06
8.11881e-06
3.17858e-06
7.42923e-06
3.85661e-06
6.65299e-06
4.2861e-06
5.83896e-06
4.48126e-06
5.02433e-06
4.4861e-06
4.23276e-06
4.34513e-06
3.46923e-06
4.12298e-06
2.71675e-06
3.87666e-06
1.92823e-06
3.64416e-06
1.00234e-06
3.54287e-06
3.73409e-06
1.22448e-06
-7.18241e-06
2.53043e-06
-8.0065e-06
3.8531e-06
-8.48826e-06
5.10052e-06
-8.33928e-06
6.22594e-06
-7.60375e-06
7.19197e-06
-6.42599e-06
7.96553e-06
-4.96153e-06
8.5287e-06
-3.35573e-06
8.86382e-06
-1.69038e-06
8.95612e-06
-5.47703e-08
8.82271e-06
1.41341e-06
8.49521e-06
2.64543e-06
8.00102e-06
3.67276e-06
7.38587e-06
4.47176e-06
6.68473e-06
4.98723e-06
5.94681e-06
5.21917e-06
5.20517e-06
5.22774e-06
4.47972e-06
5.07058e-06
3.77406e-06
4.82863e-06
3.0692e-06
4.58151e-06
2.31393e-06
4.39943e-06
1.40344e-06
4.45336e-06
5.13752e-06
1.37358e-06
-8.55597e-06
2.53959e-06
-9.17249e-06
3.70727e-06
-9.65593e-06
4.79007e-06
-9.42207e-06
5.78469e-06
-8.59837e-06
6.66543e-06
-7.30672e-06
7.3941e-06
-5.6902e-06
7.94842e-06
-3.91005e-06
8.31125e-06
-2.05321e-06
8.46787e-06
-2.11384e-07
8.41298e-06
1.46829e-06
8.1741e-06
2.88431e-06
7.77485e-06
4.072e-06
7.27905e-06
4.96754e-06
6.69333e-06
5.57294e-06
6.07744e-06
5.83505e-06
5.46441e-06
5.84075e-06
4.86384e-06
5.67114e-06
4.27568e-06
5.41679e-06
3.67855e-06
5.17863e-06
3.0023e-06
5.07568e-06
2.13123e-06
5.32443e-06
7.26876e-06
1.60847e-06
-1.01644e-05
2.58195e-06
-1.01459e-05
3.52669e-06
-1.06007e-05
4.37988e-06
-1.02753e-05
5.17293e-06
-9.39141e-06
5.90288e-06
-8.03666e-06
6.53824e-06
-6.32556e-06
7.0489e-06
-4.42071e-06
7.40187e-06
-2.40619e-06
7.55681e-06
-3.66324e-07
7.49045e-06
1.53465e-06
7.26222e-06
3.11253e-06
6.9533e-06
4.3809e-06
6.61332e-06
5.3075e-06
6.3011e-06
5.88516e-06
6.02239e-06
6.11374e-06
5.78011e-06
6.08303e-06
5.55842e-06
5.89282e-06
5.33458e-06
5.64063e-06
5.07738e-06
5.43582e-06
4.67388e-06
5.47917e-06
3.77958e-06
6.21873e-06
1.10483e-05
6.20321e-07
-6.20322e-07
1.36146e-06
-7.41145e-07
1.80996e-06
-4.48499e-07
1.76602e-06
4.39397e-08
1.19976e-06
5.66256e-07
8.35089e-07
3.64675e-07
2.10703e-07
6.24384e-07
-1.2514e-06
1.4621e-06
-2.55481e-06
1.30341e-06
-3.40064e-06
8.4582e-07
-3.58957e-06
1.88923e-07
-3.53853e-06
-5.1038e-08
-5.19573e-06
1.65719e-06
-6.96596e-06
1.77022e-06
-6.9007e-06
-6.5258e-08
-5.94076e-06
-9.59941e-07
-4.24622e-06
-1.69455e-06
-1.69285e-06
-2.55337e-06
-1.69286e-06
1.31428e-06
-1.9346e-06
2.36691e-06
-1.79377e-06
2.73091e-06
-8.12508e-07
2.8298e-06
-5.49512e-08
2.69142e-06
7.04634e-07
1.64648e-06
1.40961e-06
2.78219e-07
1.99264e-06
-4.44657e-07
2.18497e-06
-1.32188e-06
2.18063e-06
-2.38467e-06
1.9086e-06
-3.44399e-06
1.24824e-06
-4.43549e-06
9.40452e-07
-5.03186e-06
2.25356e-06
-5.57219e-06
2.31054e-06
-5.99293e-06
3.55474e-07
-5.78374e-06
-1.16913e-06
-4.58371e-06
-2.89457e-06
-2.34955e-06
-4.78752e-06
-4.04239e-06
1.47225e-06
-3.40685e-06
2.85568e-06
-3.1772e-06
3.16592e-06
-1.12275e-06
3.74637e-06
-6.35408e-07
3.82168e-06
6.29328e-07
2.58381e-06
2.64748e-06
1.21706e-06
3.3594e-06
5.86242e-07
2.81578e-06
-2.26941e-07
2.99381e-06
-1.69915e-06
3.38081e-06
-3.4961e-06
3.04518e-06
-4.9031e-06
2.34746e-06
-5.1883e-06
2.53875e-06
-5.4657e-06
2.58794e-06
-5.68969e-06
5.79468e-07
-5.45777e-06
-1.40106e-06
-4.57627e-06
-3.77606e-06
-3.21501e-06
-6.14878e-06
-7.2574e-06
1.23472e-06
-4.64157e-06
2.30102e-06
-4.2435e-06
2.92114e-06
-1.74287e-06
3.36141e-06
-1.07569e-06
3.49582e-06
4.94924e-07
3.1411e-06
3.00219e-06
2.5805e-06
3.91998e-06
2.22757e-06
3.16871e-06
1.83092e-06
3.39045e-06
-6.13529e-07
5.82525e-06
-3.06296e-06
5.4946e-06
-5.21897e-06
4.50346e-06
-5.54808e-06
2.86786e-06
-5.40443e-06
2.44429e-06
-5.32664e-06
5.01668e-07
-5.04048e-06
-1.68721e-06
-3.97286e-06
-4.84367e-06
-3.30673e-06
-6.81491e-06
-1.05641e-05
1.70621e-06
-6.34777e-06
1.98195e-06
-4.51924e-06
2.47749e-06
-2.23841e-06
2.00171e-06
-5.99906e-07
1.99715e-06
4.99487e-07
2.4072e-06
2.59214e-06
2.81547e-06
3.51171e-06
3.14829e-06
2.83589e-06
3.32326e-06
3.21548e-06
1.60782e-06
7.54069e-06
-4.5713e-07
7.55955e-06
-4.11585e-06
8.16218e-06
-5.24778e-06
3.99981e-06
-4.88345e-06
2.07996e-06
-4.85089e-06
4.6912e-07
-4.20273e-06
-2.33537e-06
-2.78527e-06
-6.26113e-06
-1.12279e-06
-8.4774e-06
-1.16869e-05
2.47444e-06
-8.82222e-06
2.18377e-06
-4.22857e-06
2.05737e-06
-2.112e-06
1.26171e-06
1.95748e-07
9.34858e-07
8.26344e-07
1.54957e-06
1.97742e-06
2.45575e-06
2.60553e-06
2.63038e-06
2.66126e-06
2.48378e-06
3.36207e-06
2.04118e-06
7.9833e-06
1.243e-06
8.35772e-06
-1.09875e-07
9.51505e-06
-3.66357e-06
7.55351e-06
-4.13999e-06
2.55638e-06
-4.33368e-06
6.62801e-07
-3.24961e-06
-3.41943e-06
-1.7176e-06
-7.79315e-06
1.45411e-06
-1.16491e-05
-1.02328e-05
3.16581e-06
-1.1988e-05
2.75364e-06
-3.8164e-06
2.00321e-06
-1.36157e-06
1.24389e-06
9.55072e-07
5.73633e-07
1.4966e-06
8.88265e-07
1.66279e-06
1.50116e-06
1.99264e-06
1.60037e-06
2.56205e-06
1.1907e-06
3.77174e-06
1.37123e-06
7.80277e-06
1.15804e-06
8.57091e-06
1.16074e-06
9.51235e-06
-2.27295e-07
8.94154e-06
-2.61893e-06
4.94802e-06
-3.16229e-06
1.20616e-06
-2.44845e-06
-4.13328e-06
-9.05008e-07
-9.3366e-06
1.64783e-06
-1.42019e-05
-8.58497e-06
3.75535e-06
-1.57434e-05
3.40986e-06
-3.47091e-06
2.32306e-06
-2.74771e-07
1.49815e-06
1.77999e-06
6.05201e-07
2.38955e-06
2.02923e-07
2.06507e-06
2.70443e-07
1.92512e-06
4.19939e-07
2.41255e-06
2.06294e-07
3.98539e-06
4.9564e-07
7.51342e-06
5.67821e-07
8.49873e-06
5.95636e-07
9.48453e-06
2.32645e-07
9.30453e-06
-9.53573e-07
6.13423e-06
-1.61621e-06
1.8688e-06
-1.49879e-06
-4.2507e-06
-5.24248e-07
-1.03111e-05
1.15652e-06
-1.58827e-05
-7.42845e-06
3.42309e-06
-1.35874e-05
5.14458e-06
-1.18674e-05
5.8662e-06
-1.13223e-05
6.29043e-06
-1.06995e-05
6.62664e-06
-9.72762e-06
6.93445e-06
-8.34447e-06
7.21057e-06
-6.60169e-06
7.41576e-06
-4.6259e-06
7.60509e-06
-2.59553e-06
7.88565e-06
-6.46891e-07
8.27684e-06
1.14345e-06
8.78531e-06
2.60405e-06
9.39332e-06
3.77287e-06
1.00601e-05
4.64067e-06
1.07775e-05
5.16778e-06
1.14841e-05
5.40717e-06
1.21255e-05
5.44152e-06
1.26521e-05
5.36626e-06
1.30423e-05
5.25042e-06
1.3249e-05
5.22907e-06
1.31209e-05
5.60728e-06
1.26804e-05
6.65922e-06
8.33137e-06
1.53973e-05
-1.20262e-06
-1.23848e-05
-1.57477e-06
-1.14952e-05
-2.32738e-06
-1.05696e-05
-3.20577e-06
-9.82107e-06
-3.8873e-06
-9.04608e-06
-4.16099e-06
-8.07078e-06
-3.97933e-06
-6.78335e-06
-3.40186e-06
-5.20337e-06
-2.46017e-06
-3.53722e-06
-1.22293e-06
-1.88413e-06
2.52439e-07
-3.31922e-07
1.81914e-06
1.03735e-06
3.36742e-06
2.22459e-06
4.89032e-06
3.11776e-06
6.39248e-06
3.66562e-06
7.77688e-06
4.02276e-06
8.99497e-06
4.22342e-06
1.0005e-05
4.3562e-06
1.07124e-05
4.54309e-06
1.13728e-05
4.56857e-06
1.15761e-05
5.40403e-06
1.19833e-05
6.25205e-06
6.76124e-06
1.35534e-05
-3.65388e-06
-8.73093e-06
-6.42456e-06
-8.72458e-06
-8.70287e-06
-8.29135e-06
-1.04997e-05
-8.02427e-06
-1.1695e-05
-7.85074e-06
-1.2164e-05
-7.60184e-06
-1.19484e-05
-6.99896e-06
-1.12293e-05
-5.92244e-06
-1.00534e-05
-4.71316e-06
-8.52181e-06
-3.41571e-06
-6.73342e-06
-2.12031e-06
-4.82275e-06
-8.73318e-07
-2.93646e-06
3.38293e-07
-1.15214e-06
1.33345e-06
6.00893e-07
1.91259e-06
2.20338e-06
2.42027e-06
3.50654e-06
2.92026e-06
4.52065e-06
3.34208e-06
5.23887e-06
3.82487e-06
5.86497e-06
3.94245e-06
6.35571e-06
4.91328e-06
6.6181e-06
5.98965e-06
6.82139e-06
6.55796e-06
-5.41006e-06
-3.32094e-06
-1.01622e-05
-3.97247e-06
-1.38535e-05
-4.60007e-06
-1.65769e-05
-5.30099e-06
-1.83e-05
-6.12763e-06
-1.90628e-05
-6.83905e-06
-1.89459e-05
-7.11592e-06
-1.83505e-05
-6.51783e-06
-1.72599e-05
-5.80374e-06
-1.58105e-05
-4.86513e-06
-1.41208e-05
-3.80997e-06
-1.22957e-05
-2.69849e-06
-1.05023e-05
-1.45508e-06
-8.81772e-06
-3.51122e-07
-7.15265e-06
2.47522e-07
-5.61688e-06
8.84492e-07
-4.47357e-06
1.77695e-06
-3.51446e-06
2.38297e-06
-2.53836e-06
2.84876e-06
-2.00426e-06
3.40834e-06
-1.31939e-06
4.22841e-06
-9.29108e-07
5.59937e-06
6.33483e-06
-4.42537e-07
-8.14643e-06
4.82539e-06
-1.49553e-05
2.83632e-06
-1.9963e-05
4.07592e-07
-2.33503e-05
-1.9138e-06
-2.54389e-05
-4.03904e-06
-2.64566e-05
-5.82146e-06
-2.68041e-05
-6.76842e-06
-2.66388e-05
-6.68316e-06
-2.592e-05
-6.52252e-06
-2.47906e-05
-5.9945e-06
-2.34504e-05
-5.15018e-06
-2.20366e-05
-4.11232e-06
-2.04642e-05
-3.02748e-06
-1.86876e-05
-2.1277e-06
-1.69903e-05
-1.44979e-06
-1.54288e-05
-6.76991e-07
-1.39632e-05
3.11349e-07
-1.24634e-05
8.83193e-07
-1.0974e-05
1.3594e-06
-9.67218e-06
2.10649e-06
-8.4557e-06
3.01193e-06
-6.96356e-06
4.10725e-06
4.42827e-06
-5.057e-06
-1.35233e-05
1.83485e-05
-2.25406e-05
1.18535e-05
-2.85888e-05
6.45568e-06
-3.24164e-05
1.9138e-06
-3.46263e-05
-1.82919e-06
-3.58937e-05
-4.55418e-06
-3.67598e-05
-5.90227e-06
-3.69978e-05
-6.44523e-06
-3.65597e-05
-6.96056e-06
-3.55228e-05
-7.0314e-06
-3.41612e-05
-6.51179e-06
-3.25797e-05
-5.69387e-06
-3.06344e-05
-4.97274e-06
-2.83713e-05
-4.39081e-06
-2.60626e-05
-3.75843e-06
-2.37686e-05
-2.97097e-06
-2.13569e-05
-2.10041e-06
-1.90926e-05
-1.38104e-06
-1.71098e-05
-6.23403e-07
-1.52251e-05
2.21823e-07
-1.33305e-05
1.11735e-06
-1.11368e-05
1.91356e-06
2.08615e-06
-8.79465e-06
-1.7041e-05
3.53894e-05
-2.87528e-05
2.35654e-05
-3.62845e-05
1.39874e-05
-4.08562e-05
6.48544e-06
-4.33696e-05
6.84245e-07
-4.48595e-05
-3.06424e-06
-4.56156e-05
-5.14623e-06
-4.56896e-05
-6.37126e-06
-4.50189e-05
-7.63126e-06
-4.3593e-05
-8.45733e-06
-4.17332e-05
-8.37156e-06
-3.95943e-05
-7.83275e-06
-3.72314e-05
-7.33563e-06
-3.46881e-05
-6.93408e-06
-3.19987e-05
-6.44779e-06
-2.92041e-05
-5.76552e-06
-2.63786e-05
-4.9259e-06
-2.37377e-05
-4.02194e-06
-2.13034e-05
-3.05768e-06
-1.89565e-05
-2.12498e-06
-1.6571e-05
-1.2682e-06
-1.41066e-05
-5.50817e-07
-2.84668e-07
-1.17357e-05
-1.45243e-05
4.99137e-05
-2.82489e-05
3.729e-05
-3.919e-05
2.49285e-05
-4.51665e-05
1.24619e-05
-4.81418e-05
3.65957e-06
-4.95286e-05
-1.67735e-06
-5.03242e-05
-4.35069e-06
-5.05529e-05
-6.14253e-06
-4.98567e-05
-8.32741e-06
-4.81719e-05
-1.01421e-05
-4.60069e-05
-1.05366e-05
-4.37166e-05
-1.01231e-05
-4.12745e-05
-9.77775e-06
-3.85842e-05
-9.62427e-06
-3.56764e-05
-9.3556e-06
-3.26593e-05
-8.7826e-06
-2.96255e-05
-7.95962e-06
-2.66973e-05
-6.95012e-06
-2.39703e-05
-5.78463e-06
-2.13195e-05
-4.77572e-06
-1.86376e-05
-3.95014e-06
-1.60124e-05
-3.17594e-06
-2.69538e-06
-1.36017e-05
-4.99005e-06
5.49035e-05
-1.98911e-05
5.2191e-05
-3.17857e-05
3.68229e-05
-4.30494e-05
2.37255e-05
-4.83573e-05
8.9675e-06
-5.08502e-05
8.15542e-07
-5.21324e-05
-3.06846e-06
-5.25452e-05
-5.72968e-06
-5.17333e-05
-9.13925e-06
-4.99819e-05
-1.18935e-05
-4.79987e-05
-1.25197e-05
-4.58104e-05
-1.23114e-05
-4.34024e-05
-1.21858e-05
-4.07064e-05
-1.23202e-05
-3.77482e-05
-1.23138e-05
-3.46737e-05
-1.18571e-05
-3.15455e-05
-1.10878e-05
-2.84225e-05
-1.00732e-05
-2.55257e-05
-8.68141e-06
-2.27019e-05
-7.59961e-06
-1.97969e-05
-6.85513e-06
-1.69893e-05
-5.98357e-06
-4.87084e-06
-1.48138e-05
-4.67973e-06
5.95827e-05
-1.81e-06
4.93197e-05
-1.53758e-05
5.03875e-05
-2.75988e-05
3.59478e-05
-3.68137e-05
1.81822e-05
-4.38833e-05
7.88504e-06
-4.82867e-05
1.33502e-06
-4.96762e-05
-4.34014e-06
-5.03072e-05
-8.5082e-06
-4.99292e-05
-1.22716e-05
-4.92236e-05
-1.32254e-05
-4.68271e-05
-1.47079e-05
-4.45583e-05
-1.44547e-05
-4.18827e-05
-1.49958e-05
-3.89272e-05
-1.52694e-05
-3.58622e-05
-1.49221e-05
-3.27056e-05
-1.42445e-05
-2.93765e-05
-1.34022e-05
-2.62883e-05
-1.17696e-05
-2.33384e-05
-1.05495e-05
-2.02467e-05
-9.94688e-06
-1.6862e-05
-9.36832e-06
-7.30915e-06
-1.44237e-05
1.65861e-05
4.29958e-05
1.15059e-05
5.43989e-05
3.26058e-06
5.86322e-05
-2.91302e-06
4.2121e-05
-9.56595e-06
2.48348e-05
-1.54504e-05
1.37694e-05
-2.02389e-05
6.12354e-06
-2.42621e-05
-3.16728e-07
-2.90915e-05
-3.67851e-06
-3.60892e-05
-5.27354e-06
-4.17908e-05
-7.52383e-06
-4.52567e-05
-1.1242e-05
-4.45218e-05
-1.51895e-05
-4.23435e-05
-1.71741e-05
-3.98192e-05
-1.77937e-05
-3.68884e-05
-1.78529e-05
-3.36889e-05
-1.7444e-05
-3.06014e-05
-1.64898e-05
-2.72744e-05
-1.50966e-05
-2.37715e-05
-1.40525e-05
-2.09651e-05
-1.27533e-05
-2.06006e-05
-9.73262e-06
-4.8803e-06
-2.30291e-05
8.05779e-06
3.49371e-05
4.98194e-06
5.74749e-05
7.3571e-06
5.62572e-05
6.94926e-06
4.25289e-05
3.45732e-06
2.83267e-05
-1.44657e-06
1.86733e-05
-6.3963e-06
1.10733e-05
-1.11793e-05
4.46633e-06
-1.52303e-05
3.72485e-07
-2.06493e-05
1.457e-07
-2.48921e-05
-3.28079e-06
-2.87135e-05
-7.42037e-06
-3.08328e-05
-1.30701e-05
-3.18708e-05
-1.61359e-05
-3.20787e-05
-1.75856e-05
-3.17466e-05
-1.81848e-05
-3.10302e-05
-1.81602e-05
-3.00364e-05
-1.74835e-05
-2.88297e-05
-1.63031e-05
-2.79053e-05
-1.4977e-05
-2.7534e-05
-1.31244e-05
-2.77158e-05
-9.55093e-06
-3.47136e-06
-2.91243e-05
-4.56645e-06
3.95044e-05
2.37923e-06
5.05299e-05
9.74906e-06
4.88878e-05
1.20522e-05
4.02261e-05
1.0185e-05
3.01941e-05
6.76601e-06
2.20923e-05
2.48686e-06
1.53525e-05
-2.44197e-06
9.39512e-06
-6.7077e-06
4.63815e-06
-8.57951e-06
2.01749e-06
-1.16931e-05
-1.67065e-07
-1.38957e-05
-5.21765e-06
-1.69413e-05
-1.00244e-05
-1.98033e-05
-1.32739e-05
-2.21752e-05
-1.52137e-05
-2.40605e-05
-1.62995e-05
-2.55203e-05
-1.67003e-05
-2.65949e-05
-1.64088e-05
-2.74186e-05
-1.54793e-05
-2.82394e-05
-1.41562e-05
-2.92472e-05
-1.21168e-05
-3.01686e-05
-8.62943e-06
-3.8534e-06
-2.97862e-05
-2.22308e-07
3.97277e-05
5.62064e-06
4.46877e-05
1.14741e-05
4.30348e-05
1.42851e-05
3.74154e-05
1.4023e-05
3.04564e-05
1.20217e-05
2.40937e-05
8.99832e-06
1.83759e-05
5.34672e-06
1.30466e-05
2.00718e-06
7.97759e-06
-4.00322e-07
4.42488e-06
-1.73678e-06
1.16931e-06
-4.16096e-06
-2.79354e-06
-7.63021e-06
-6.55525e-06
-1.11966e-05
-9.70758e-06
-1.44593e-05
-1.1951e-05
-1.73515e-05
-1.34073e-05
-1.98942e-05
-1.41576e-05
-2.20867e-05
-1.42164e-05
-2.39447e-05
-1.36214e-05
-2.56536e-05
-1.24475e-05
-2.72355e-05
-1.05351e-05
-2.81646e-05
-7.70041e-06
-4.68198e-06
-2.73359e-05
1.91704e-06
3.78113e-05
6.96379e-06
3.96414e-05
1.17961e-05
3.82028e-05
1.47094e-05
3.45024e-05
1.54802e-05
2.96857e-05
1.47895e-05
2.47845e-05
1.31424e-05
2.00229e-05
1.08831e-05
1.53059e-05
8.34824e-06
1.05124e-05
6.25756e-06
6.51546e-06
4.34564e-06
3.08115e-06
1.82908e-06
-2.77054e-07
-1.33599e-06
-3.39026e-06
-4.77108e-06
-6.27257e-06
-8.16104e-06
-8.56107e-06
-1.13652e-05
-1.02032e-05
-1.43218e-05
-1.12011e-05
-1.69853e-05
-1.15529e-05
-1.93223e-05
-1.12844e-05
-2.13468e-05
-1.04231e-05
-2.29602e-05
-8.92192e-06
-2.38323e-05
-6.82839e-06
-4.98064e-06
-2.35335e-05
2.62373e-06
3.5188e-05
6.85892e-06
3.54065e-05
1.09246e-05
3.41374e-05
1.38052e-05
3.16219e-05
1.52674e-05
2.82235e-05
1.55906e-05
2.44614e-05
1.50755e-05
2.0538e-05
1.39251e-05
1.64563e-05
1.21618e-05
1.22756e-05
1.02764e-05
8.40083e-06
8.26992e-06
5.08753e-06
5.86656e-06
2.12624e-06
3.11921e-06
-6.42978e-07
7.77204e-08
-3.23113e-06
-3.0593e-06
-5.42412e-06
-6.14577e-06
-7.11678e-06
-9.08238e-06
-8.26449e-06
-1.17852e-05
-8.85016e-06
-1.41837e-05
-8.88597e-06
-1.62165e-05
-8.39051e-06
-1.7765e-05
-7.37352e-06
-1.86205e-05
-5.9729e-06
-4.9668e-06
-1.86342e-05
2.5373e-06
3.26508e-05
6.01027e-06
3.19336e-05
9.4257e-06
3.07221e-05
1.21632e-05
2.88844e-05
1.39906e-05
2.63962e-05
1.49745e-05
2.34774e-05
1.52403e-05
2.02721e-05
1.48546e-05
1.68421e-05
1.38453e-05
1.32849e-05
1.23555e-05
9.8906e-06
1.05842e-05
6.85874e-06
8.56545e-06
4.14498e-06
6.28298e-06
1.63946e-06
3.73491e-06
-6.83105e-07
1.02492e-06
-2.71417e-06
-1.72148e-06
-4.37041e-06
-4.38899e-06
-5.59699e-06
-6.87732e-06
-6.36184e-06
-9.10271e-06
-6.6606e-06
-1.09837e-05
-6.50963e-06
-1.2404e-05
-5.9533e-06
-1.32372e-05
-5.13972e-06
-4.72865e-06
-1.34751e-05
2.12195e-06
3.05289e-05
4.90141e-06
2.91542e-05
7.74112e-06
2.78823e-05
1.02396e-05
2.63859e-05
1.2181e-05
2.44548e-05
1.35177e-05
2.21407e-05
1.42623e-05
1.95274e-05
1.44177e-05
1.66866e-05
1.39802e-05
1.37224e-05
1.30444e-05
1.08264e-05
1.17564e-05
8.14668e-06
1.02033e-05
5.69805e-06
8.40651e-06
3.43626e-06
6.37281e-06
1.35057e-06
4.1663e-06
-5.07672e-07
1.88038e-06
-2.0845e-06
-3.84661e-07
-3.33194e-06
-2.52898e-06
-4.21749e-06
-4.46413e-06
-4.72545e-06
-6.10321e-06
-4.87061e-06
-7.35788e-06
-4.69868e-06
-8.15305e-06
-4.34452e-06
-4.38586e-06
-8.49556e-06
1.63339e-06
2.88954e-05
3.81277e-06
2.69747e-05
6.14225e-06
2.55528e-05
8.34548e-06
2.41826e-05
1.02318e-05
2.25684e-05
1.17049e-05
2.06676e-05
1.27182e-05
1.85141e-05
1.32404e-05
1.61645e-05
1.32582e-05
1.37045e-05
1.28247e-05
1.12599e-05
1.20355e-05
8.93581e-06
1.09677e-05
6.76582e-06
9.65995e-06
4.74402e-06
8.13845e-06
2.87206e-06
6.45079e-06
1.17998e-06
4.66377e-06
-2.97481e-07
2.85698e-06
-1.52513e-06
1.11462e-06
-2.47511e-06
-4.7803e-07
-3.13278e-06
-1.84135e-06
-3.50736e-06
-2.90522e-06
-3.63482e-06
-3.62979e-06
-3.61993e-06
-4.00875e-06
-4.00661e-06
1.20453e-06
2.76907e-05
2.88144e-06
2.52977e-05
4.7671e-06
2.36671e-05
6.65902e-06
2.22906e-05
8.39538e-06
2.0832e-05
9.86709e-06
1.91958e-05
1.10032e-05
1.7378e-05
1.17563e-05
1.54113e-05
1.21053e-05
1.33555e-05
1.20733e-05
1.12919e-05
1.17175e-05
9.29157e-06
1.10941e-05
7.38925e-06
1.02426e-05
5.59549e-06
9.1947e-06
3.91995e-06
7.99148e-06
2.3832e-06
6.68356e-06
1.01045e-06
5.33091e-06
-1.72466e-07
4.00111e-06
-1.14527e-06
2.76387e-06
-1.89553e-06
1.68783e-06
-2.43138e-06
8.37623e-07
-2.78463e-06
2.64983e-07
-3.04725e-06
-3.60748e-06
-1.35989e-07
8.69696e-07
2.68208e-05
2.15294e-06
2.40143e-05
3.66706e-06
2.21528e-05
5.26349e-06
2.06941e-05
6.80924e-06
1.92862e-05
8.20073e-06
1.78043e-05
9.36201e-06
1.62166e-05
1.02405e-05
1.45328e-05
1.08087e-05
1.27872e-05
1.10714e-05
1.10292e-05
1.10583e-05
9.30461e-06
1.08056e-05
7.64188e-06
1.03455e-05
6.05558e-06
9.70773e-06
4.55772e-06
8.9264e-06
3.16452e-06
8.04179e-06
1.89507e-06
7.10047e-06
7.6887e-07
6.15351e-06
-1.98286e-07
5.25694e-06
-9.9895e-07
4.46065e-06
-1.63515e-06
3.81084e-06
-2.13484e-06
3.32672e-06
-2.56311e-06
-3.31174e-06
3.03125e-06
6.34562e-07
2.61861e-05
1.62538e-06
2.30234e-05
2.84417e-06
2.0934e-05
4.18181e-06
1.93564e-05
5.53231e-06
1.79356e-05
6.80563e-06
1.65309e-05
7.93096e-06
1.50912e-05
8.85695e-06
1.36068e-05
9.55343e-06
1.20907e-05
1.00136e-05
1.0569e-05
1.02497e-05
9.06851e-06
1.02826e-05
7.60892e-06
1.01351e-05
6.20305e-06
9.83093e-06
4.8619e-06
9.39713e-06
3.59832e-06
8.86525e-06
2.42695e-06
8.27144e-06
1.36269e-06
7.65517e-06
4.18008e-07
7.05639e-06
-4.0017e-07
6.51776e-06
-1.09658e-06
6.06846e-06
-1.68559e-06
5.72863e-06
-2.22326e-06
-3.09809e-06
5.51525e-06
4.91085e-07
2.56948e-05
1.27904e-06
2.22353e-05
2.27614e-06
1.99367e-05
3.40194e-06
1.82305e-05
4.57396e-06
1.67635e-05
5.71807e-06
1.53867e-05
6.77315e-06
1.40361e-05
7.69304e-06
1.26868e-05
8.44795e-06
1.13357e-05
9.02526e-06
9.99164e-06
9.42664e-06
8.66709e-06
9.66238e-06
7.37315e-06
9.7469e-06
6.1185e-06
9.6973e-06
4.91147e-06
9.53392e-06
3.76168e-06
9.28067e-06
2.68019e-06
8.96484e-06
1.67852e-06
8.61641e-06
7.66453e-07
8.26675e-06
-5.05085e-08
7.94236e-06
-7.72266e-07
7.66947e-06
-1.41273e-06
7.46464e-06
-2.01842e-06
-2.95289e-06
7.31969e-06
4.23864e-07
2.52708e-05
1.08808e-06
2.15709e-05
1.93057e-06
1.90941e-05
2.89389e-06
1.72671e-05
3.91494e-06
1.57423e-05
4.9351e-06
1.43665e-05
5.90449e-06
1.30666e-05
6.78412e-06
1.18071e-05
7.54713e-06
1.05727e-05
8.17905e-06
9.35968e-06
8.67607e-06
8.17003e-06
9.04181e-06
7.00737e-06
9.28444e-06
5.87584e-06
9.41542e-06
4.78046e-06
9.44925e-06
3.72784e-06
9.40336e-06
2.72606e-06
9.29798e-06
1.7839e-06
9.1549e-06
9.09548e-07
8.9958e-06
1.08576e-07
8.8441e-06
-6.20632e-07
8.71417e-06
-1.28284e-06
8.61516e-06
-1.9194e-06
-2.89613e-06
8.55866e-06
4.22069e-07
2.48485e-05
1.02477e-06
2.09681e-05
1.77171e-06
1.83471e-05
2.61929e-06
1.64194e-05
3.52049e-06
1.4841e-05
4.43076e-06
1.34562e-05
5.31141e-06
1.21859e-05
6.13142e-06
1.0987e-05
6.86847e-06
9.83558e-06
7.509e-06
8.7191e-06
8.0472e-06
7.63178e-06
8.48314e-06
6.5714e-06
8.82099e-06
5.53795e-06
9.06802e-06
4.5334e-06
9.23416e-06
3.56167e-06
9.33177e-06
2.62844e-06
9.37514e-06
1.74053e-06
9.37999e-06
9.04708e-07
9.36308e-06
1.25481e-07
9.33608e-06
-5.93705e-07
9.31395e-06
-1.26074e-06
9.30538e-06
-1.91083e-06
-2.88872e-06
9.29821e-06
4.69661e-07
2.43787e-05
1.06477e-06
2.03728e-05
1.7644e-06
1.76473e-05
2.53697e-06
1.56467e-05
3.34841e-06
1.40295e-05
4.1664e-06
1.26381e-05
4.96262e-06
1.13896e-05
5.71411e-06
1.02355e-05
6.4039e-06
9.14573e-06
7.0211e-06
8.10185e-06
7.5602e-06
7.09262e-06
8.02004e-06
6.11151e-06
8.4027e-06
5.15525e-06
8.71277e-06
4.22329e-06
8.95698e-06
3.31743e-06
9.14387e-06
2.44154e-06
9.28346e-06
1.60093e-06
9.38659e-06
8.01591e-07
9.46309e-06
4.89642e-08
9.52521e-06
-6.55879e-07
9.578e-06
-1.31358e-06
9.62485e-06
-1.95765e-06
-2.93309e-06
9.66944e-06
5.55324e-07
2.38231e-05
1.18435e-06
1.97436e-05
1.87464e-06
1.69569e-05
2.60545e-06
1.49158e-05
3.35352e-06
1.32813e-05
4.09697e-06
1.18945e-05
4.81681e-06
1.06697e-05
5.49773e-06
9.55451e-06
6.12844e-06
8.51495e-06
6.70164e-06
7.52859e-06
7.2136e-06
6.58061e-06
7.6635e-06
5.66156e-06
8.0528e-06
4.76592e-06
8.38474e-06
3.89131e-06
8.66404e-06
3.0381e-06
8.89666e-06
2.2089e-06
9.08934e-06
1.40824e-06
9.24938e-06
6.41553e-07
9.38437e-06
-8.60273e-08
9.49779e-06
-7.6937e-07
9.59695e-06
-1.41276e-06
9.68564e-06
-2.04637e-06
-2.99035e-06
9.74312e-06
6.6866e-07
2.31543e-05
1.36101e-06
1.90511e-05
2.07007e-06
1.62477e-05
2.78452e-06
1.42012e-05
3.4905e-06
1.25752e-05
4.17519e-06
1.12098e-05
4.82786e-06
1.0017e-05
5.44026e-06
8.94204e-06
6.0067e-06
7.94846e-06
6.52387e-06
7.01136e-06
6.99061e-06
6.11383e-06
7.40744e-06
5.24468e-06
7.77624e-06
4.39707e-06
8.0999e-06
3.56762e-06
8.38213e-06
2.75584e-06
8.62721e-06
1.9638e-06
8.83986e-06
1.19558e-06
9.02455e-06
4.56868e-07
9.18465e-06
-2.46135e-07
9.32535e-06
-9.10128e-07
9.44743e-06
-1.53488e-06
9.55051e-06
-2.14939e-06
-3.0717e-06
9.63205e-06
8.0132e-07
2.23527e-05
1.57412e-06
1.82781e-05
2.32032e-06
1.55013e-05
3.03618e-06
1.34852e-05
3.71589e-06
1.18954e-05
4.35457e-06
1.0571e-05
4.94883e-06
9.42263e-06
5.49684e-06
8.39395e-06
5.99817e-06
7.44707e-06
6.45355e-06
6.55592e-06
6.86471e-06
5.70262e-06
7.23407e-06
4.87528e-06
7.56454e-06
4.06656e-06
7.85937e-06
3.27276e-06
8.12198e-06
2.4932e-06
8.35584e-06
1.72992e-06
8.5642e-06
9.87212e-07
8.74993e-06
2.71136e-07
8.91588e-06
-4.12085e-07
9.06047e-06
-1.05478e-06
9.18808e-06
-1.6625e-06
9.2985e-06
-2.25985e-06
-3.14128e-06
9.36828e-06
9.41541e-07
2.1411e-05
1.80448e-06
1.7415e-05
2.59847e-06
1.47072e-05
3.3266e-06
1.2757e-05
3.99043e-06
1.12315e-05
4.5923e-06
9.96907e-06
5.13542e-06
8.87944e-06
5.62374e-06
7.90557e-06
6.06164e-06
7.00911e-06
6.45372e-06
6.16379e-06
6.8046e-06
5.3517e-06
7.11876e-06
4.56107e-06
7.4005e-06
3.78479e-06
7.65381e-06
3.01941e-06
7.88234e-06
2.26464e-06
8.08934e-06
1.52291e-06
8.27744e-06
7.991e-07
8.44846e-06
1.00117e-07
8.60211e-06
-5.65741e-07
8.74049e-06
-1.1932e-06
8.8616e-06
-1.78366e-06
8.95965e-06
-2.35783e-06
-3.20764e-06
9.02614e-06
1.08218e-06
2.03286e-05
2.03772e-06
1.64593e-05
2.88304e-06
1.38618e-05
3.6281e-06
1.20118e-05
4.2814e-06
1.05781e-05
4.85195e-06
9.39845e-06
5.34902e-06
8.3823e-06
5.78181e-06
7.47272e-06
6.15907e-06
6.6318e-06
6.48889e-06
5.83392e-06
6.77858e-06
5.06196e-06
7.03464e-06
4.30498e-06
7.26277e-06
3.55663e-06
7.46789e-06
2.81426e-06
7.65423e-06
2.07829e-06
7.82516e-06
1.35196e-06
7.98311e-06
6.41152e-07
8.12937e-06
-4.6146e-08
8.26425e-06
-7.00613e-07
8.3849e-06
-1.3139e-06
8.49189e-06
-1.89064e-06
8.57927e-06
-2.44528e-06
-3.24596e-06
8.61776e-06
1.21922e-06
1.91092e-05
2.26499e-06
1.54134e-05
3.16014e-06
1.29665e-05
3.9216e-06
1.12503e-05
4.56496e-06
9.93467e-06
5.10577e-06
8.85757e-06
5.55915e-06
7.92887e-06
5.93915e-06
7.09267e-06
6.25847e-06
6.31243e-06
6.52826e-06
5.56409e-06
6.75814e-06
4.83205e-06
6.95631e-06
4.10677e-06
7.12975e-06
3.38317e-06
7.28432e-06
2.65967e-06
7.42486e-06
1.93774e-06
7.5552e-06
1.22162e-06
7.67804e-06
5.18317e-07
7.79445e-06
-1.62543e-07
7.90316e-06
-8.09314e-07
8.00427e-06
-1.41504e-06
8.0933e-06
-1.9797e-06
8.16083e-06
-2.5127e-06
-3.27732e-06
8.19233e-06
1.35348e-06
1.77556e-05
2.4851e-06
1.42816e-05
3.42498e-06
1.20265e-05
4.19799e-06
1.04772e-05
4.82744e-06
9.30516e-06
5.33602e-06
8.34894e-06
5.74484e-06
7.52001e-06
6.07271e-06
6.76476e-06
6.33586e-06
6.04925e-06
6.54798e-06
5.35195e-06
6.72046e-06
4.65954e-06
6.86278e-06
3.96443e-06
6.98281e-06
3.26312e-06
7.08715e-06
2.55533e-06
7.1813e-06
1.84359e-06
7.2697e-06
1.13323e-06
7.35551e-06
4.32524e-07
7.44028e-06
-2.47296e-07
7.52402e-06
-8.93023e-07
7.60232e-06
-1.49335e-06
7.67269e-06
-2.05001e-06
7.72692e-06
-2.56694e-06
-3.28242e-06
7.73222e-06
1.48968e-06
1.62658e-05
2.70516e-06
1.30661e-05
3.68333e-06
1.10483e-05
4.45898e-06
9.70148e-06
5.06561e-06
8.69849e-06
5.53482e-06
7.87969e-06
5.89457e-06
7.16023e-06
6.16845e-06
6.49085e-06
6.3758e-06
5.84189e-06
6.53215e-06
5.19558e-06
6.64996e-06
4.54172e-06
6.7393e-06
3.87509e-06
6.80842e-06
3.19399e-06
6.86433e-06
2.49942e-06
6.91304e-06
1.79489e-06
6.95973e-06
1.08655e-06
7.00857e-06
3.83715e-07
7.062e-06
-3.00694e-07
7.11914e-06
-9.50127e-07
7.17836e-06
-1.55255e-06
7.23163e-06
-2.10325e-06
7.26661e-06
-2.60178e-06
-3.27623e-06
7.26056e-06
1.64032e-06
1.46255e-05
2.94329e-06
1.1763e-05
3.95201e-06
1.00395e-05
4.71623e-06
8.93722e-06
5.28504e-06
8.12965e-06
5.70247e-06
7.46224e-06
6.00476e-06
6.85793e-06
6.22033e-06
6.27527e-06
6.37088e-06
5.69133e-06
6.47285e-06
5.09361e-06
6.53873e-06
4.47584e-06
6.5783e-06
3.83552e-06
6.59951e-06
3.17278e-06
6.60926e-06
2.48969e-06
6.61388e-06
1.79029e-06
6.61938e-06
1.08108e-06
6.6312e-06
3.71926e-07
6.65343e-06
-3.22874e-07
6.68733e-06
-9.83971e-07
6.72744e-06
-1.59262e-06
6.76564e-06
-2.14136e-06
6.789e-06
-2.62512e-06
-3.24448e-06
6.75744e-06
1.82632e-06
1.27991e-05
3.22997e-06
1.03594e-05
4.25854e-06
9.01096e-06
4.98887e-06
8.20687e-06
5.49666e-06
7.62185e-06
5.84401e-06
7.11489e-06
6.07699e-06
6.62495e-06
6.22824e-06
6.12402e-06
6.32045e-06
5.59912e-06
6.36942e-06
5.04466e-06
6.38636e-06
4.4589e-06
6.37967e-06
3.84223e-06
6.35612e-06
3.19635e-06
6.32187e-06
2.52396e-06
6.28321e-06
1.82899e-06
6.247e-06
1.11732e-06
6.22065e-06
3.98319e-07
6.21082e-06
-3.12977e-07
6.22016e-06
-9.93253e-07
6.24475e-06
-1.61716e-06
6.27052e-06
-2.16706e-06
6.27872e-06
-2.63315e-06
-3.20493e-06
6.23934e-06
2.08129e-06
1.07178e-05
3.60922e-06
8.83146e-06
4.63719e-06
7.983e-06
5.29694e-06
7.54712e-06
5.71019e-06
7.20862e-06
5.96401e-06
6.86108e-06
6.1143e-06
6.47467e-06
6.19558e-06
6.04276e-06
6.22894e-06
5.56577e-06
6.22743e-06
5.04619e-06
6.19935e-06
4.48699e-06
6.15049e-06
3.89112e-06
6.0855e-06
3.26137e-06
6.00906e-06
2.60043e-06
5.92691e-06
1.91117e-06
5.84669e-06
1.19759e-06
5.77835e-06
4.6671e-07
5.73292e-06
-2.67486e-07
5.71841e-06
-9.78663e-07
5.72792e-06
-1.6266e-06
5.7432e-06
-2.18221e-06
5.74022e-06
-2.63007e-06
-3.14234e-06
5.67782e-06
2.44845e-06
8.26941e-06
4.13347e-06
7.14648e-06
5.11736e-06
6.99915e-06
5.64814e-06
7.01636e-06
5.92368e-06
6.9331e-06
6.05977e-06
6.72501e-06
6.11722e-06
6.41723e-06
6.12699e-06
6.03301e-06
6.1046e-06
5.58818e-06
6.05777e-06
5.09304e-06
5.99036e-06
4.55443e-06
5.90448e-06
3.97703e-06
5.80182e-06
3.36406e-06
5.68479e-06
2.71749e-06
5.55783e-06
2.03818e-06
5.42899e-06
1.32648e-06
5.31134e-06
5.84405e-07
5.22267e-06
-1.78737e-07
5.1781e-06