/*--------------------------------*- C++ -*----------------------------------*\
  =========                 |
  \\      /  F ield         | OpenFOAM: The Open Source CFD Toolbox
   \\    /   O peration     | Website:  https://openfoam.org
    \\  /    A nd           | Version:  13
     \\/     M anipulation  |
\*---------------------------------------------------------------------------*/
FoamFile
{
    format      ascii;
    class       volScalarField;
    location    "2.25";
    object      rho;
}
// * * * * * * * * * * * * * * * * * * * * * * * * * * * * * * * * * * * * * //

dimensions      [1 -3 0 0 0 0 0];

internalField   nonuniform List<scalar> 
2268
(
13529
13529
13529
13529
13529
13529
13529
13529
13529
13529
13529
13529
13529
13529
13529
13529
13529
13529
13529
13527.3
13523.5
13521.6
13521.6
13529
13529
13529
13529
13529
13529
13529
13529
13529
13529
13529
13529
13529
13529
13529
13529
13529
13529
13529
13529
13529
13528.4
13525.3
13529
13529
13529
13529
13529
13529
13529
13529
13529
13529
13529
13529
13529
13529
13529
13529
13529
13529
13529
13529
13529
13529
13529
13529
13529
13529
13529
13529
13529
13529
13529
13529
13529
13529
13529
13529
13529
13529
13529
13529
13529
13529
13529
13529
13529
13529
13529
13529
13529
13529
13529
13529
13529
13529
13529
13529
13529
13529
13529
13529
13529
13529
13529
13529
13529
13529
13529
13529
13529
13529
13529
13529
13529
13529
13529
13529
13529
13529
13529
13529
13529
13442.9
12908.2
12219.2
11427.6
10667.7
10028.9
9521.16
9141.17
8913.14
8960.56
9249.03
10785.8
11126.9
11650.2
11992.7
12135.8
12163.1
12103.7
11873.1
11286.3
10197.5
8672.83
6899.38
5145.84
3855.48
2879.41
2249.12
1843.16
1578.9
1412.62
1313.35
1264.72
1275.74
1357.04
1935.15
2188.71
2659.89
3085.48
3371.29
3397.2
3103.67
2592.41
2021.39
1516.97
1159.26
1008.57
1000
1000
1000
1000
999.999
999.988
999.967
999.944
999.89
999.801
999.473
11869.6
11908.2
11944.7
11953.6
11953.3
11946.3
11830.8
9723.67
8758.12
8770.55
8828.74
8635.82
8276.84
8286.31
9762.39
10333.2
10330.6
10288.2
10290.8
7562.48
7684.58
7913.18
7720.22
7740.17
8921.07
9701.82
10560.9
11376.6
11368
11319.3
11170.5
9949.71
10087.1
10298.1
10327.5
10323.6
10287.9
10291
2820.83
2580.18
2304.05
2237.97
2821.97
2675.22
3152.01
4222.59
5435.46
7766.83
9430.72
9962.81
10228.5
10251.5
10232.3
10243.6
10271
10219.6
8874.08
3139.08
3201.54
2654.67
2687.42
1975.65
1378.48
1018.19
1095.51
1189.41
1241.97
1818.55
4219.82
5012.21
5033.88
6020.7
6774.31
6842.52
6889.04
7155.42
2298.22
2518.94
2653.04
2731.51
2123.75
1406.3
1333.66
1398.45
1434.37
1049.82
949.186
612.97
2955.54
3401.19
3342.61
2890.03
3323.37
2949.3
3463.7
1875.04
1896.25
2075.35
1696.71
2010.15
1896.65
1701.61
1975.59
1840.17
1054.01
1004.47
596.793
438.631
1747.29
1873.6
2197.26
1878.61
1589.73
895.454
939.781
934.894
1065.16
1229.44
1516.98
1865.63
1956.3
1180.59
1047.72
1014.6
1002.57
946.883
424.357
298.936
521.222
773.924
872.655
858.744
544.087
1028.2
935.607
1017.93
977.736
1012.07
1318.01
931.039
999.618
999.692
1000.3
1001.58
995.733
923.004
767.939
804.427
950.765
999.99
999.652
807.07
1000
1000
1000
999.997
1000
1000
1000
1000
1000
1000
1000
1000
1000
1000
1000
1000
1000
999.998
999.999
999.999
999.999
999.999
999.993
1000
1000
1000
1000
1000
1000
1000
1000
1000
1000
1000
1000
1000
1000
1000
1000
1000
1000
1000
988.532
983.017
965.932
984.017
1000
1000
999.272
999.259
999.828
999.999
1000
1000
1000
1000
1000
1000
1000
1000
995.888
983.21
973.423
945.713
874.975
845.441
738.937
699.186
641.513
990.664
984.94
991.946
997.836
998.855
999.529
998.543
991.404
989.705
983.424
973.288
957.947
921.611
863.142
808.109
737.668
653.645
568.664
500.864
485.173
493.882
464.319
430.109
828.658
826.194
804.407
773.757
765.771
784.108
819.676
777.692
742.624
695.151
647.027
591.26
513.991
448.115
439.232
442.15
422.041
453.113
497.369
498.026
496.805
465.925
459.226
567.55
518.992
505.415
503.364
502.614
507.237
478.806
457.218
464.373
462.327
451.14
441.84
462.776
490.597
492.803
487.805
486.048
495.748
499.986
499.837
498.498
497.882
499.996
431.884
478.4
499.356
499.695
499.736
499.563
499.798
499.975
499.995
500
500
500
500
500
500
500
500
500
499.984
499.952
499.97
500.007
500.009
326.182
235.633
194.577
247.908
332.343
417.093
470.029
489.15
496.088
500
500
500
500
500
500
500
500
500
500
500
500
500
500
33.5479
2.16398
1.04809
2.16836
12.047
32.5853
67.4239
124.971
223.502
343.996
419.553
439.367
446.704
454.87
464.958
471.62
474.039
474.541
469.105
465.414
465.306
464.631
462.296
1.00153
1.00243
1.00696
1.01308
1.00585
1.00013
1.00001
1.00002
1.00008
1.00035
1.50469
19.2472
44.1733
78.873
107.175
118.402
121.19
117.857
94.7534
81.3335
76.9284
57.6126
14.4046
1.00123
1.0012
1.00257
1.03899
1.04212
1.01341
1.00012
1.00041
1.00061
1.00007
1.00014
1.00011
1.00006
1.00002
1.00005
1.00007
1.00004
1.00003
1.00002
1.00001
1
1
1.00001
1.00096
1.00167
1.00263
1.03656
1.04369
1.01687
1.00067
1.00004
1.00002
1.00001
1.00003
1.00003
1.00009
1.00017
1.00017
1.00009
1.00002
1.00002
1.00003
1.00003
1.00003
1.00004
1.00004
1.00041
1.00159
1.00277
1.00285
1.00487
1.0019
1.00033
1.00614
1.0273
1.06256
1.02603
1.00115
1.00004
1
1
1.00001
1.00004
1.00006
1.00005
1.00005
1.00005
1.00004
1.00004
1.00034
1.00063
1.00113
1.00003
1.00003
1.00003
1.00003
1.00464
1.08132
1.08293
1.08405
1.05346
1.00214
1.00022
1.00012
1.00019
1.00026
1.00023
1.00014
1.00011
1.00009
1.00008
1.00004
1.00021
1.00022
1.00006
1.00006
1.00006
1.00005
1.00003
1.00003
1.06828
1.08199
1.08378
1.05951
1.00386
1.00233
1.00167
1.0019
1.00131
1.00032
1.0002
1.00015
1.00012
1.0001
1.00006
1.00015
1.00011
1.00007
1.00007
1.00007
1.00006
1.00004
1.00003
1.0093
1.05084
1.05161
1.01683
1.00319
1.00318
1.00318
1.00312
1.00198
1.00042
1.00023
1.00016
1.00014
1.0001
1.00009
1.00008
1.00008
1.00006
1.00005
1.00006
1.00006
1.00008
1.00016
1.00002
1.00098
1.00084
1.00071
1.00199
1.00307
1.00256
1.00153
1.00079
1.00037
1.0002
1.00014
1.00011
1.0001
1.00007
1.00006
1.00006
1.00005
1.00004
1.00004
1.00004
1.00005
1.00005
1.00002
1.00002
1.00002
1.00028
1.00109
1.00127
1.00077
1.00035
1.00017
1.00015
1.00012
1.00009
1.00008
1.00006
1.00005
1.00005
1.00005
1.00004
1.00003
1.00003
1.00003
1.00003
1.00001
1.00002
1.00002
1.00006
1.00041
1.00052
1.00045
1.00014
1.00007
1.00006
1.00005
1.00005
1.00005
1.00004
1.00004
1.00003
1.00004
1.00005
1.00004
1.00003
1.00002
1.00002
1.00002
1.00001
1.00002
1.00002
1.00007
1.00021
1.00028
1.00014
1.00005
1.00003
1.00003
1.00003
1.00003
1.00002
1.00002
1.00002
1.00001
1.00004
1.00004
1.00004
1.00003
1.00002
1.00001
1.00001
1.00001
1.00001
1.00002
1.00003
1.00005
1.00005
1.00004
1.00002
1.00001
1.00001
1.00001
1.00001
1.00001
1.00001
1.00001
1.00001
1.00004
1.00004
1.00003
1.00003
1.00002
1.00001
1.00001
1.00001
1.00001
1.00001
1.00001
1.00001
1.00001
1.00001
1.00001
1.00001
1.00001
1.00001
1.00001
1.00001
1.00001
1
1
1.00003
1.00003
1.00003
1.00002
1.00002
1.00001
1.00001
1.00001
1
1
1.00001
1
1
1
1
1
1
1
1
1
1
1
1
1.00003
1.00003
1.00002
1.00002
1.00001
1.00001
1.00001
1
1
1
1
1
1
1
1
1
1
1
1
1
1
1
1
1.00002
1.00002
1.00002
1.00001
1.00001
1.00001
1
1
1
1
1
1
1
1
1
1
1
1
1
1
1
1
1
1.00002
1.00002
1.00001
1.00001
1.00001
1.00001
1
1
1
1
1
1
1
1
1
1
1
1
1
1
1
1
1
1.00002
1.00001
1.00001
1.00001
1
1
1
1
1
1
1
1
1
1
1
1
1
1
1
1
1
1
1
1.00001
1.00001
1.00001
1
1
1
1
1
1
1
1
1
1
1
1
1
1
1
1
1
1
1
1
1.00001
1.00001
1
1
1
1
1
1
1
1
1
1
1
1
1
1
1
1
1
1
1
1
1
1.00001
1
1
1
1
1
1
1
1
1
1
1
1
1
1
1
1
1
1
1
1
1
1
1.00001
1
1
1
1
1
1
1
1
1
1
1
1
1
1
1
1
1
1
1
1
1
1
1
1
1
1
1
1
1
1
1
1
1
1
1
1
1
1
1
1
1
1
1
1
1
1
1
1
1
1
1
1
1
1
1
1
1
1
1
1
1
1
1
1
1
1
1
1
1
1
1
1
1
1
1
1
1
1
1
1
1
1
1
1
1
1
1
1
1
1
1
1
1
1
1
1
1
1
1
1
1
1
1
1
1
1
1
1
1
1
1
1
1
1
1
1
1
1
1
1
1
1
1
1
1
1
1
1
1
1
1
1
1
1
1
1
1
1
1
1
1
1
1
1
1
1
1
1
1
1
1
1
1
1
1
1
1
1
1
1
1
1
1
1
1
1
1
1
1
1
1
1
1
1
1
1
1
1
1
1
1
1
1
1
1
1
1
1
1
1
1
1
1
1
1
1
1
1
1
1
1
1
1
1
1
1
1
1
1
1
1
1
1
1
1
1
1
1
1
1
1
1
1
1
1
1
1
1
1
1
1
1
1
1
1
1
1
1
1
1
1
1
1
1
1
1
1
1
1
1
1
1
1
1
1
1
1
1
1
1
1
1
1
1
1
1
1
1
1
1
1
1
1
1
1
1021.06
1629.67
1582.26
1494.55
952.052
772.559
666.454
721.352
480.77
417.444
459.089
547.816
430.054
490.582
493.519
485.452
500.198
503.372
501.675
500.833
500.23
500.032
500.001
500.004
500
499.999
500.004
500.009
500.001
500.002
500.002
500
461.923
446.768
422.019
393.498
2.65056
3.07125
1.00004
1.00039
1.00003
1.00006
1.00009
1.00012
1.00005
1.00006
1.00008
1.00014
1.00004
1.00005
1.00008
1.00008
1.00004
1.00004
1.00005
1.00005
1.00004
1.00004
1.00004
1.00004
1.00006
1.00003
1.00004
1.00003
1.00006
1.00004
1.00004
1.00003
1.00005
1.00003
1.00003
1.00002
1.00003
1.00002
1.00002
1.00002
1.00001
1.00001
1.00001
1.00001
1.00001
1.00001
1.00001
1.00001
1
1
1
1
1
1
1
1
1
1
1
1
1
1
1
1
1
1
1
1
1
1
1
1
1
1
1
1
1
1
1
1
1
1
1
1
1
1
1
1
1
1
1
1
1
1
1
1
1
1
1
1
1
1
1
1
1
1
1
1
1
1
1
1
1
1
1
1
1
1
1
1
1
1
1
1
1
1
1
1
1
1
1
1
1094.05
899.909
862.644
974.061
952.897
748.464
938.842
995.298
996.305
999.49
1000.56
1001.07
1000.89
998.577
997.542
1000.09
1000.11
999.724
852.872
805.173
793.639
710.386
564.052
500.853
700.316
749.185
781.815
822.234
888.38
933.811
965.971
985.193
996.905
999.858
1000.01
999.918
992.902
968.839
499.466
501.182
503.72
488.788
462.518
455.89
455.017
502.302
504.15
517.054
544.977
582.228
616.478
645.108
692.237
746.547
813.115
860.854
894.785
497.26
499.777
499.976
487.773
470.137
484.757
499.836
500.061
500.161
500.062
500.02
500.107
500.18
500.649
501.242
501.885
504.058
565.416
580.586
500.085
499.796
499.601
499.03
500.036
500
500.001
500.004
500.01
500.002
500.002
500.009
499.977
499.997
500.176
500.533
500.717
514.032
557.287
500.003
499.992
499.985
500.009
500.004
500
500
500
500
500.001
500.001
500.001
500.001
500.001
500.073
500.369
501.532
503.889
504.351
500.003
500.001
500.002
500.002
500.002
500
500
500
500
500
500
500.023
500.367
498.414
485.19
459.384
420.612
372.937
330.343
500.001
500.002
500.002
500.001
497.335
479.545
458.273
434.091
409.074
384.031
351.939
292.213
229.038
170.283
129.615
91.2395
51.4468
24.899
14.8689
352.282
301.623
254.98
210.688
164.568
128.187
95.3618
67.1249
43.5004
22.448
7.61177
7.22004
17.8684
19.8485
8.86887
1.01135
1
1.00001
1.16199
1.00004
2.2198
2.61067
1.05992
1.00653
1.02872
1.10581
1.28021
2.12004
3.14097
3.14007
2.04461
1.13794
1.07954
1.00636
1.00012
1.0003
1.00042
1.00026
1.00014
1.00025
1.00038
1.00133
1.00567
1.0205
1.07722
1.13663
1.19142
1.18409
1.19449
1.51666
1.51324
1.22469
1.00033
1.00058
1.00077
1.00048
1.0003
1.00016
1.00023
1.00021
1.00023
1.0047
1.33863
1.48803
1.42954
1.03856
1.01744
1.11755
1.46804
1.4366
1.06839
1.00032
1.00049
1.00054
1.00027
1.0003
1.0001
1.00017
1.00016
1.00013
1.00041
1.26918
1.49
1.48781
1.38945
1.0001
1.00049
1.00127
1.00134
1.00095
1.00028
1.00028
1.00009
1.0001
1.00029
1.00006
1.00009
1.0001
1.00013
1.0004
1.00295
1.03846
1.09288
1.07098
1.00838
1.00029
1.00069
1.00067
1.00023
1.00013
1.00007
1.00003
1.0001
1.00025
1.00004
1.00005
1.00007
1.0001
1.00011
1.00009
1.00006
1.00007
1.00009
1.00011
1.00017
1.00029
1.00027
1.00027
1.00017
1.00004
1.00003
1.00008
1.00005
1.00003
1.00003
1.00004
1.00005
1.00007
1.0001
1.00018
1.00024
1.0002
1.00012
1.0001
1.00015
1.00024
1.00027
1.00014
1.00004
1.00003
1.00002
1.00001
1.00002
1.00002
1.00002
1.00002
1.00002
1.00003
1.00012
1.00025
1.00025
1.00016
1.00006
1.00006
1.0001
1.00012
1.00006
1.00002
1.00002
1.00001
1.00001
1.00002
1.00001
1.00001
1.00001
1.00001
1.00001
1.00001
1.00007
1.0001
1.00006
1.00005
1.00003
1.00003
1.00002
1.00001
1.00001
1.00001
1.00001
1.00001
1.00001
1.00001
1.00001
1.00001
1.00001
1.00001
1.00001
1.00001
1.00001
1.00001
1.00002
1.00002
1.00001
1.00001
1.00001
1.00001
1.00001
1.00001
1.00001
1.00001
1.00001
1
1
1
1.00001
1.00001
1.00001
1.00001
1.00001
1.00001
1.00001
1.00001
1.00001
1
1.00001
1.00001
1.00001
1.00001
1
1
1
1
1
1
1
1
1
1
1
1
1
1
1
1
1.00001
1.00001
1.00001
1
1
1
1
1
1
1
1
1
1
1
1
1
1
1
1
1.00001
1.00001
1.00001
1
1
1
1
1
1
1
1
1
1
1
1
1
1
1
1
1.00001
1.00002
1.00002
1
1
1
1
1
1
1
1
1
1
1
1
1
1
1
1
1.00001
1.00003
1.00002
1
1
1
1
1
1
1
1
1
1
1
1
1
1
1
1
1.00001
1.00003
1.00003
1
1
1
1
1
1
1
1
1
1
1
1
1
1
1
1
1.00001
1.00004
1.00004
1
1
1
1
1
1
1
1
1
1
1
1
1
1
1
1
1.00002
1.00004
1.00004
1
1
1
1
1
1
1
1
1
1
1
1
1
1
1
1.00001
1.00002
1.00005
1.00003
1
1
1
1
1
1
1
1
1
1
1
1
1
1
1
1.00001
1.00002
1.00005
1.00003
1
1
1
1
1
1
1
1
1
1
1
1
1
1
1
1.00001
1.00002
1.00005
1.00002
1
1
1
1
1
1
1
1
1
1
1
1
1
1
1
1.00001
1.00003
1.00005
1.00002
1
1
1
1
1
1
1
1
1
1
1
1
1
1
1
1.00001
1.00002
1.00004
1.00001
1
1
1
1
1
1
1
1
1
1
1
1
1
1
1
1.00001
1.00002
1.00001
1.00001
1
1
1
1
1
1
1
1
1
1
1
1
1
1
1
1.00001
1.00001
1.00001
1
1
1
1
1
1
1
1
1
1
1
1
1
1
1
1
1
1.00001
1
1
1
1
1
1
1
1
1
1
1
1
1
1
1
1
1
1
1
1
1
1
1
1
1
1
1
1
1
1
1
1
1
1
1
1
1
1
1
1
1
1
1
1
1
1
1
1
1
1
1
1
1
1
1
1
1
1
1
1
1
1
1
1
1
1
1
1
1
1
1
1
1
1
1
1
1
1
1
1
1
1
1
1
1
1
1
1
1
1
1
1
1
1
1
1
1
1
1
1
1
1
1
1
1
1
1
1
1
1
1
1
1
1
1
1
1
1
1
1
1
1
1
1
1
1
1
1
1
1
1
1
1
1
1
)
;

boundaryField
{
    leftWall
    {
        type            calculated;
        value           nonuniform List<scalar> 
50
(
13529
13529
13529
13529
13529
13529
10785.8
1935.15
1000
1000
1000
990.664
828.658
567.55
431.884
326.182
33.5479
1.00153
1.00123
1.00096
1.00041
1.00034
1.00021
1.00015
1.00008
1.00006
1.00005
1.00004
1.00004
1.00004
1.00003
1.00003
1.00002
1.00002
1.00002
1.00001
1.00001
1.00001
1.00001
1
1
1
1
1
1
1
1
1
1
1
)
;
    }
    rightWall
    {
        type            calculated;
        value           nonuniform List<scalar> 
50
(
10290.8
10291
8874.08
7155.42
3463.7
895.454
544.087
807.07
852.872
968.839
894.785
580.586
557.287
504.351
330.343
14.8689
1.16199
1.00026
1.0003
1.0003
1.00029
1.00025
1.00005
1.00001
1.00001
1.00001
1.00001
1.00001
1.00001
1.00001
1.00002
1.00002
1.00003
1.00004
1.00004
1.00003
1.00003
1.00002
1.00002
1.00001
1.00001
1
1
1
1
1
1
1
1
1
)
;
    }
    lowerWall
    {
        type            calculated;
        value           nonuniform List<scalar> 
62
(
13529
13529
13529
13529
13529
13529
13529
13529
13529
13529
13529
13529
13529
13529
13529
13529
13529
13529
13529
13527.3
13523.5
13521.6
13521.6
13521.6
13525.3
13529
13529
13529
9249.03
1357.04
999.473
1021.06
1629.67
1582.26
1494.55
11869.6
7562.48
2820.83
3139.08
2298.22
1875.04
939.781
1028.2
11869.6
11908.2
11944.7
11953.6
11953.3
11946.3
11830.8
9723.67
8758.12
8770.55
8828.74
8635.82
8276.84
8286.31
9762.39
10333.2
10330.6
10288.2
10290.8
)
;
    }
    atmosphere
    {
        type            calculated;
        value           nonuniform List<scalar> 
46
(
1
1
1
1
1
1
1
1
1
1
1
1
1
1
1
1
1
1
1
1
1
1
1
1
1
1
1
1
1
1
1
1
1
1
1
1
1
1
1
1
1
1
1
1
1
1
)
;
    }
    defaultFaces
    {
        type            empty;
    }
}


// ************************************************************************* //
