/*--------------------------------*- C++ -*----------------------------------*\
  =========                 |
  \\      /  F ield         | OpenFOAM: The Open Source CFD Toolbox
   \\    /   O peration     | Website:  https://openfoam.org
    \\  /    A nd           | Version:  13
     \\/     M anipulation  |
\*---------------------------------------------------------------------------*/
FoamFile
{
    format      ascii;
    class       volVectorField;
    location    "2.25";
    object      U;
}
// * * * * * * * * * * * * * * * * * * * * * * * * * * * * * * * * * * * * * //

dimensions      [0 1 -1 0 0 0 0];

internalField   nonuniform List<vector> 
2268
(
(0.0104821 -0.00552694 0)
(0.0219842 -0.00381082 0)
(0.0350229 -0.00422118 0)
(0.0508783 -0.00451006 0)
(0.0665662 -0.00431379 0)
(0.0806645 -0.0036915 0)
(0.0921087 -0.00278754 0)
(0.100309 -0.00174601 0)
(0.105068 -0.000726373 0)
(0.106448 0.00026204 0)
(0.104729 0.00119835 0)
(0.100292 0.00199662 0)
(0.0935265 0.00264406 0)
(0.0849096 0.00310482 0)
(0.0750219 0.00338631 0)
(0.0643883 0.00353967 0)
(0.0534477 0.00356054 0)
(0.0426395 0.00341362 0)
(0.0323762 0.00306016 0)
(0.023126 0.00245549 0)
(0.0150739 0.00154849 0)
(0.0102083 0.000619445 0)
(0.00733404 0.0028332 0)
(0.00767785 -0.0103309 0)
(0.0212901 -0.0101147 0)
(0.0365506 -0.0116436 0)
(0.0538008 -0.0120557 0)
(0.0702355 -0.011247 0)
(0.084633 -0.00952719 0)
(0.0961363 -0.00725152 0)
(0.104276 -0.0047239 0)
(0.108891 -0.00218195 0)
(0.110067 0.000216738 0)
(0.108118 0.00237981 0)
(0.103498 0.00422125 0)
(0.0966343 0.00573396 0)
(0.0879544 0.00687242 0)
(0.078019 0.00758833 0)
(0.0673991 0.00794209 0)
(0.0565728 0.00797819 0)
(0.0459413 0.00771162 0)
(0.0357874 0.00717482 0)
(0.0263004 0.00636073 0)
(0.0173958 0.00517668 0)
(0.0103596 0.00379796 0)
(0.00411886 0.00571648 0)
(0.00675075 -0.0160767 0)
(0.0216355 -0.0169 0)
(0.0376721 -0.0189958 0)
(0.0549205 -0.0193985 0)
(0.0710653 -0.0179708 0)
(0.0851063 -0.0151753 0)
(0.0963222 -0.0115489 0)
(0.104317 -0.00754369 0)
(0.108921 -0.00348721 0)
(0.110158 0.000364428 0)
(0.108319 0.0037765 0)
(0.103886 0.00666402 0)
(0.0972974 0.00912094 0)
(0.0889323 0.0109913 0)
(0.0793124 0.012181 0)
(0.0690294 0.0127664 0)
(0.0585787 0.0128237 0)
(0.0483399 0.0124216 0)
(0.0385367 0.0116682 0)
(0.0292275 0.0106153 0)
(0.0201538 0.00918492 0)
(0.0121116 0.00754003 0)
(0.0030405 0.00873983 0)
(0.00661818 -0.0222796 0)
(0.0218859 -0.0246112 0)
(0.0380488 -0.0269551 0)
(0.054817 -0.0270955 0)
(0.0703604 -0.0249137 0)
(0.08387 -0.0209979 0)
(0.0947341 -0.0160208 0)
(0.102613 -0.0105272 0)
(0.107325 -0.00490543 0)
(0.108806 0.000483788 0)
(0.107285 0.00527658 0)
(0.103271 0.00934458 0)
(0.0971646 0.0126823 0)
(0.0892831 0.0153229 0)
(0.0801406 0.0169996 0)
(0.0703277 0.0177894 0)
(0.0603504 0.0178411 0)
(0.0505782 0.0172835 0)
(0.0412031 0.0163219 0)
(0.0322113 0.0151027 0)
(0.0232308 0.013626 0)
(0.0146655 0.0121568 0)
(0.00351636 0.0127844 0)
(0.00713292 -0.0292438 0)
(0.0219375 -0.032908 0)
(0.0376926 -0.0353652 0)
(0.0536076 -0.0350877 0)
(0.0683034 -0.0320653 0)
(0.0811474 -0.0269881 0)
(0.0916276 -0.0206384 0)
(0.0994432 -0.0136845 0)
(0.104387 -0.00653187 0)
(0.106291 0.00039577 0)
(0.105287 0.00658407 0)
(0.101775 0.0117463 0)
(0.096241 0.0160361 0)
(0.0890413 0.0193127 0)
(0.0805266 0.0213329 0)
(0.071325 0.0221884 0)
(0.0619549 0.0221096 0)
(0.0527492 0.0213217 0)
(0.0438805 0.020124 0)
(0.0352988 0.0187565 0)
(0.0265613 0.017327 0)
(0.0176277 0.0162274 0)
(0.00534158 0.0163966 0)
(0.00809544 -0.0361288 0)
(0.0216617 -0.0403087 0)
(0.036644 -0.0429133 0)
(0.0514152 -0.0423065 0)
(0.0650466 -0.0385967 0)
(0.0770937 -0.032543 0)
(0.0870958 -0.025 0)
(0.0947712 -0.0167427 0)
(0.0999465 -0.00824837 0)
(0.102376 -3.00009e-05 0)
(0.102018 0.00722562 0)
(0.0993027 0.0132222 0)
(0.0945484 0.0182079 0)
(0.0881009 0.0220614 0)
(0.0804817 0.0244979 0)
(0.0721486 0.0255841 0)
(0.0636273 0.0255829 0)
(0.0552198 0.0247605 0)
(0.0470562 0.0234862 0)
(0.0390881 0.0220885 0)
(0.0308307 0.0207887 0)
(0.0219033 0.0201127 0)
(0.0105971 0.0196378 0)
(0.0107528 -0.0425711 0)
(0.0224476 -0.046096 0)
(0.0360012 -0.0482477 0)
(0.0487641 -0.0470793 0)
(0.0606523 -0.0428506 0)
(0.0714196 -0.0362424 0)
(0.0806816 -0.0280374 0)
(0.0880724 -0.0190063 0)
(0.0933608 -0.00962254 0)
(0.0963468 -0.000406939 0)
(0.0969261 0.00788302 0)
(0.0950971 0.0148371 0)
(0.0913337 0.020386 0)
(0.0862127 0.0246608 0)
(0.0799336 0.027396 0)
(0.0729451 0.0285674 0)
(0.0658685 0.0285722 0)
(0.0589128 0.0277126 0)
(0.0521304 0.0264199 0)
(0.0454671 0.0251338 0)
(0.0382884 0.0242631 0)
(0.0293545 0.0249268 0)
(0.0208392 0.0328733 0)
(0.0152094 -0.0488453 0)
(0.023412 -0.0506455 0)
(0.0352577 -0.053407 0)
(0.0453778 -0.0521829 0)
(0.0547164 -0.0476851 0)
(0.0634191 -0.0405241 0)
(0.0712552 -0.0314908 0)
(0.0778675 -0.0216193 0)
(0.0829279 -0.0114467 0)
(0.0860038 -0.00144909 0)
(0.0865422 0.00767441 0)
(0.0846921 0.015462 0)
(0.0813299 0.0226408 0)
(0.0774319 0.0282118 0)
(0.0736115 0.0321564 0)
(0.0701963 0.0340473 0)
(0.067255 0.0342898 0)
(0.0646626 0.0334482 0)
(0.0621689 0.032092 0)
(0.0595167 0.0308908 0)
(0.0557509 0.0307881 0)
(0.0490348 0.0337701 0)
(0.0407561 0.0544074 0)
(0.00408524 -0.00129311 0)
(0.0116403 -0.00158165 0)
(0.0184414 -0.00142042 0)
(0.0201698 -0.000107577 0)
(0.0173549 0.00142336 0)
(0.0124439 -0.000412799 0)
(0.0071398 0.00118706 0)
(-0.00544328 0.00586028 0)
(-0.0220041 0.0056573 0)
(-0.0346056 0.00301915 0)
(-0.04026 -0.000936304 0)
(-0.038939 -0.00220679 0)
(-0.0475526 0.00786798 0)
(-0.0720951 0.00851582 0)
(-0.0803036 -0.000719082 0)
(-0.0741926 -0.00383091 0)
(-0.0600547 -0.00587221 0)
(-0.0367257 -0.00891363 0)
(-0.00702003 -0.00404011 0)
(0.00873949 -0.00456805 0)
(0.0223231 -0.00541593 0)
(0.0295176 -0.00254862 0)
(0.0320964 0.000381516 0)
(0.0330861 0.00317573 0)
(0.0256436 0.00432229 0)
(0.0104739 0.00627472 0)
(-0.00135569 0.00833757 0)
(-0.00933554 0.00829407 0)
(-0.0203575 0.00697391 0)
(-0.0333548 0.00406987 0)
(-0.0451632 0.00291225 0)
(-0.0542706 0.0102049 0)
(-0.0612396 0.010746 0)
(-0.0671369 0.00107956 0)
(-0.0689737 -0.00511284 0)
(-0.0612222 -0.0116878 0)
(-0.0430482 -0.0189421 0)
(-0.0152426 -0.0138965 0)
(0.0105339 -0.0138523 0)
(0.0264856 -0.0124445 0)
(0.0350862 -0.00438363 0)
(0.0400877 -0.00155144 0)
(0.0445252 0.00334032 0)
(0.0382418 0.0096941 0)
(0.02084 0.0124932 0)
(0.00951288 0.0120958 0)
(0.00353588 0.0121984 0)
(-0.00945686 0.0118554 0)
(-0.0294332 0.00930442 0)
(-0.0493016 0.00775686 0)
(-0.05921 0.0116281 0)
(-0.0611031 0.012191 0)
(-0.0639796 0.00277388 0)
(-0.0653105 -0.00575819 0)
(-0.0587504 -0.0159479 0)
(-0.0465449 -0.0262016 0)
(-0.0272961 -0.0264052 0)
(0.00812606 -0.02012 0)
(0.022348 -0.018804 0)
(0.0311383 -0.00760449 0)
(0.0359358 -0.00455071 0)
(0.0392765 0.00276629 0)
(0.0392318 0.0149606 0)
(0.0328302 0.0194744 0)
(0.0272169 0.0154149 0)
(0.0261234 0.0156734 0)
(0.00862363 0.0201508 0)
(-0.0213734 0.0178057 0)
(-0.0495 0.0145126 0)
(-0.0631017 0.0125071 0)
(-0.0632264 0.0121605 0)
(-0.0615143 0.00279469 0)
(-0.0606829 -0.00704829 0)
(-0.0527756 -0.0203559 0)
(-0.041485 -0.0313876 0)
(-0.0292497 -0.0450794 0)
(0.0158621 -0.0251162 0)
(0.0214703 -0.0213565 0)
(0.026791 -0.0100108 0)
(0.0262894 -0.00432614 0)
(0.0220535 0.00232383 0)
(0.0241293 0.0142346 0)
(0.0299886 0.0188758 0)
(0.0345132 0.0148098 0)
(0.038702 0.0165983 0)
(0.0315076 0.0350763 0)
(0.011519 0.0336864 0)
(-0.0311542 0.0278765 0)
(-0.0550982 0.0167017 0)
(-0.058234 0.0107264 0)
(-0.0563731 0.00228334 0)
(-0.053625 -0.00967814 0)
(-0.0413115 -0.0263521 0)
(-0.0230588 -0.0367198 0)
(-0.007485 -0.0561654 0)
(0.0284534 -0.0346847 0)
(0.0254726 -0.0214125 0)
(0.0252025 -0.0108679 0)
(0.0194845 -0.00163442 0)
(0.0111599 0.00294346 0)
(0.0124631 0.0106945 0)
(0.0227476 0.0142738 0)
(0.0302733 0.0130596 0)
(0.0304085 0.0162096 0)
(0.0271428 0.0387944 0)
(0.0200121 0.0409955 0)
(0.0134729 0.0474293 0)
(-0.0280642 0.023885 0)
(-0.0452437 0.0113543 0)
(-0.0497667 0.00256886 0)
(-0.0452782 -0.013248 0)
(-0.0306509 -0.0333301 0)
(-0.00519785 -0.0471972 0)
(0.0250675 -0.0557773 0)
(0.038462 -0.0547101 0)
(0.0331463 -0.0198678 0)
(0.0275123 -0.00900498 0)
(0.0189525 0.0026391 0)
(0.00867613 0.00510786 0)
(0.0064358 0.00844959 0)
(0.0135578 0.0111038 0)
(0.01921 0.0129915 0)
(0.0164612 0.0171731 0)
(0.0143545 0.0388291 0)
(0.0145563 0.0414836 0)
(0.0150745 0.04821 0)
(0.00901654 0.0439781 0)
(-0.0194131 0.0153802 0)
(-0.0358802 0.00340044 0)
(-0.0340708 -0.0190578 0)
(-0.0208587 -0.0421566 0)
(0.000424757 -0.0633036 0)
(0.0305974 -0.0436724 0)
(0.0473147 -0.0704929 0)
(0.0408342 -0.0177939 0)
(0.0326591 -0.00388751 0)
(0.0222984 0.00682334 0)
(0.0105901 0.00920194 0)
(0.00260786 0.00874029 0)
(0.00281447 0.0093611 0)
(0.00460647 0.0118553 0)
(0.00312696 0.0189359 0)
(0.00340739 0.0373221 0)
(0.00607874 0.0418004 0)
(0.00774367 0.0460426 0)
(0.00711447 0.0459073 0)
(-0.00431784 0.0293859 0)
(-0.0169877 0.00804782 0)
(-0.0198149 -0.0213259 0)
(-0.013157 -0.0496153 0)
(7.67707e-05 -0.0757008 0)
(0.0281292 -0.0403223 0)
(0.0154318 -0.0687351 0)
(0.0229725 -0.0642187 0)
(0.0294415 -0.064523 0)
(0.0325116 -0.0616555 0)
(0.0346584 -0.0562895 0)
(0.0365598 -0.0486487 0)
(0.0382695 -0.0390874 0)
(0.0395557 -0.0280263 0)
(0.0404209 -0.0157853 0)
(0.0414455 -0.00277016 0)
(0.043125 0.00956887 0)
(0.0456097 0.019714 0)
(0.0487342 0.0264872 0)
(0.0522138 0.0311115 0)
(0.0558893 0.0335443 0)
(0.0597514 0.034141 0)
(0.0634324 0.03356 0)
(0.0666119 0.0323373 0)
(0.0690789 0.0310165 0)
(0.0706934 0.030186 0)
(0.0706163 0.031534 0)
(0.0694918 0.037175 0)
(0.0759347 0.0526987 0)
(-0.0084693 -0.0756274 0)
(-0.00721195 -0.0685641 0)
(-0.0104626 -0.0636942 0)
(-0.0151036 -0.0589537 0)
(-0.0194875 -0.0533992 0)
(-0.022108 -0.0461053 0)
(-0.0222942 -0.0369456 0)
(-0.0201787 -0.0265331 0)
(-0.0160781 -0.0159755 0)
(-0.010185 -0.00586633 0)
(-0.00277236 0.00314242 0)
(0.00552041 0.0106706 0)
(0.0139785 0.0170501 0)
(0.022216 0.0216431 0)
(0.0303438 0.0243955 0)
(0.0381973 0.0258537 0)
(0.0452407 0.0263038 0)
(0.0512126 0.0263484 0)
(0.0558964 0.0265501 0)
(0.059389 0.0266668 0)
(0.0617766 0.0301139 0)
(0.0628843 0.0353501 0)
(0.0700537 0.0404378 0)
(-0.0160519 -0.0557717 0)
(-0.0284955 -0.0553675 0)
(-0.0411799 -0.0517344 0)
(-0.0522305 -0.0486497 0)
(-0.0604041 -0.0457551 0)
(-0.0648959 -0.0422659 0)
(-0.0654488 -0.0371523 0)
(-0.0627428 -0.0299453 0)
(-0.0575893 -0.0222294 0)
(-0.0502008 -0.0143831 0)
(-0.0411496 -0.00685131 0)
(-0.0310722 8.95779e-05 0)
(-0.0207811 0.00641619 0)
(-0.0108517 0.0114867 0)
(-0.00136247 0.01454 0)
(0.00773603 0.0168737 0)
(0.0156631 0.0188589 0)
(0.0218142 0.0206225 0)
(0.0265939 0.0226555 0)
(0.0300505 0.023524 0)
(0.0328975 0.0283698 0)
(0.0347369 0.0335471 0)
(0.035724 0.0379886 0)
(-0.0191244 -0.0324411 0)
(-0.0446669 -0.0350492 0)
(-0.0657284 -0.0356563 0)
(-0.0828689 -0.0365277 0)
(-0.0947544 -0.0379419 0)
(-0.101273 -0.0390094 0)
(-0.102876 -0.0381678 0)
(-0.100721 -0.0337685 0)
(-0.0960748 -0.0285991 0)
(-0.0891461 -0.0225654 0)
(-0.0805495 -0.0162399 0)
(-0.0710171 -0.00975897 0)
(-0.0612072 -0.00291988 0)
(-0.0516799 0.00308656 0)
(-0.0426379 0.00669429 0)
(-0.0340792 0.0099712 0)
(-0.0267327 0.0139348 0)
(-0.0210352 0.0168134 0)
(-0.0160243 0.0189935 0)
(-0.0118813 0.0202236 0)
(-0.00907113 0.0251211 0)
(-0.0061898 0.0322521 0)
(-0.00385022 0.0361931 0)
(-0.0297981 -0.00348769 0)
(-0.0665237 -0.00780233 0)
(-0.095441 -0.0145795 0)
(-0.117745 -0.0213425 0)
(-0.132315 -0.0287315 0)
(-0.140355 -0.035102 0)
(-0.143672 -0.0379312 0)
(-0.14405 -0.0357162 0)
(-0.141631 -0.0329985 0)
(-0.136556 -0.028836 0)
(-0.129667 -0.023456 0)
(-0.122162 -0.0173953 0)
(-0.114209 -0.0108805 0)
(-0.105138 -0.005822 0)
(-0.0955664 -0.00279997 0)
(-0.0869238 0.000983936 0)
(-0.0786487 0.00605509 0)
(-0.0707287 0.00887226 0)
(-0.062943 0.0115758 0)
(-0.0553989 0.0154416 0)
(-0.0488028 0.0204523 0)
(-0.0415899 0.0270175 0)
(-0.032229 0.029396 0)
(-0.056625 0.0626169 0)
(-0.102547 0.0411841 0)
(-0.139355 0.0203022 0)
(-0.165652 0.00133729 0)
(-0.181334 -0.0152472 0)
(-0.190249 -0.0280336 0)
(-0.195618 -0.0347265 0)
(-0.198692 -0.0362262 0)
(-0.198075 -0.037133 0)
(-0.193986 -0.0355394 0)
(-0.187427 -0.0316452 0)
(-0.179383 -0.0266974 0)
(-0.16984 -0.0219561 0)
(-0.158693 -0.017698 0)
(-0.146225 -0.013758 0)
(-0.13368 -0.00927806 0)
(-0.121095 -0.00409854 0)
(-0.108372 -0.000473521 0)
(-0.0969063 0.00299361 0)
(-0.086743 0.00725932 0)
(-0.0767485 0.0120238 0)
(-0.0658148 0.0169273 0)
(-0.0532928 0.0180947 0)
(-0.0788527 0.13269 0)
(-0.129622 0.0871773 0)
(-0.17691 0.0519855 0)
(-0.208919 0.0231976 0)
(-0.227789 -0.000667817 0)
(-0.237996 -0.0184582 0)
(-0.24365 -0.0284722 0)
(-0.245966 -0.0337323 0)
(-0.244264 -0.0387583 0)
(-0.238545 -0.0415044 0)
(-0.229443 -0.0402935 0)
(-0.218582 -0.0366631 0)
(-0.206481 -0.0332495 0)
(-0.19318 -0.0302969 0)
(-0.179105 -0.0271052 0)
(-0.164304 -0.0230673 0)
(-0.149085 -0.0183518 0)
(-0.134268 -0.0139305 0)
(-0.120684 -0.00941226 0)
(-0.107998 -0.00462698 0)
(-0.0953974 1.12323e-05 0)
(-0.0823437 0.00395802 0)
(-0.0690773 0.00512651 0)
(-0.0774242 0.186432 0)
(-0.115613 0.132508 0)
(-0.184512 0.0767352 0)
(-0.229405 0.0349152 0)
(-0.252795 0.00354445 0)
(-0.26335 -0.015981 0)
(-0.268966 -0.0264738 0)
(-0.271488 -0.0335282 0)
(-0.270187 -0.0423689 0)
(-0.26408 -0.0498274 0)
(-0.253418 -0.0511477 0)
(-0.24099 -0.0492648 0)
(-0.228281 -0.0473001 0)
(-0.214575 -0.0461033 0)
(-0.199509 -0.0442727 0)
(-0.183459 -0.0410132 0)
(-0.167099 -0.0365947 0)
(-0.150981 -0.0314634 0)
(-0.135779 -0.0256044 0)
(-0.121465 -0.0202261 0)
(-0.107243 -0.0157222 0)
(-0.0928228 -0.0118013 0)
(-0.0789969 -0.00969512 0)
(-0.0769574 0.247637 0)
(-0.0425381 0.164462 0)
(-0.137235 0.0953716 0)
(-0.208685 0.0414178 0)
(-0.249597 0.0110356 0)
(-0.267736 -0.0113996 0)
(-0.27786 -0.0249082 0)
(-0.281773 -0.0351656 0)
(-0.279817 -0.0471915 0)
(-0.273533 -0.0562127 0)
(-0.263945 -0.0584835 0)
(-0.25217 -0.0568747 0)
(-0.239537 -0.0561556 0)
(-0.225945 -0.0567235 0)
(-0.21078 -0.0563136 0)
(-0.194582 -0.0538504 0)
(-0.1777 -0.0497112 0)
(-0.160784 -0.0440195 0)
(-0.144674 -0.0371187 0)
(-0.129355 -0.031455 0)
(-0.1139 -0.0266581 0)
(-0.0984563 -0.0214813 0)
(-0.0850835 -0.0175944 0)
(-0.0825679 0.412928 0)
(0.0252958 0.424308 0)
(-0.0500786 0.334408 0)
(-0.113761 0.222642 0)
(-0.174059 0.0725685 0)
(-0.220645 0.00393397 0)
(-0.253251 -0.023073 0)
(-0.265496 -0.036316 0)
(-0.268115 -0.0543408 0)
(-0.271131 -0.0654695 0)
(-0.268329 -0.0642449 0)
(-0.257348 -0.0624284 0)
(-0.245165 -0.0637522 0)
(-0.231966 -0.0655047 0)
(-0.217375 -0.0660919 0)
(-0.201009 -0.0637382 0)
(-0.183957 -0.0594823 0)
(-0.166837 -0.0542298 0)
(-0.149459 -0.0465467 0)
(-0.132621 -0.0402753 0)
(-0.116633 -0.0362878 0)
(-0.100158 -0.0315758 0)
(-0.0840622 -0.0226549 0)
(0.0578573 0.307338 0)
(0.0925082 0.236871 0)
(0.0409839 0.312689 0)
(-0.00370685 0.229721 0)
(-0.0333581 0.148442 0)
(-0.0685288 0.085395 0)
(-0.0986254 0.0391568 0)
(-0.118876 -0.00515867 0)
(-0.141144 -0.0302418 0)
(-0.172706 -0.0675534 0)
(-0.20806 -0.0648291 0)
(-0.242912 -0.0864278 0)
(-0.244083 -0.0787107 0)
(-0.233412 -0.0767504 0)
(-0.220896 -0.0738883 0)
(-0.206543 -0.0697524 0)
(-0.189284 -0.0654308 0)
(-0.172536 -0.0601441 0)
(-0.155723 -0.0525256 0)
(-0.136933 -0.0486183 0)
(-0.118666 -0.0467288 0)
(-0.106751 -0.04462 0)
(-0.114259 -0.0377539 0)
(0.0220715 0.127494 0)
(0.0418443 0.338554 0)
(0.0314524 0.324524 0)
(0.0409812 0.236 0)
(0.0304142 0.147154 0)
(0.00624834 0.0939057 0)
(-0.0215181 0.0490032 0)
(-0.0484928 0.0101496 0)
(-0.0699802 -0.0116449 0)
(-0.0957307 0.00395399 0)
(-0.123249 -0.0407107 0)
(-0.146058 -0.050922 0)
(-0.161285 -0.093671 0)
(-0.169107 -0.116138 0)
(-0.172578 -0.12677 0)
(-0.171524 -0.131415 0)
(-0.16875 -0.131345 0)
(-0.164588 -0.127082 0)
(-0.15775 -0.118926 0)
(-0.151196 -0.110236 0)
(-0.147305 -0.0989677 0)
(-0.150387 -0.0746723 0)
(-0.1542 -0.0334324 0)
(-0.029726 0.251889 0)
(-0.00924546 0.296564 0)
(0.0366802 0.282171 0)
(0.0639102 0.223759 0)
(0.0632932 0.159824 0)
(0.0467137 0.110256 0)
(0.0254406 0.0713788 0)
(5.28089e-05 0.0377334 0)
(-0.0268568 0.0131767 0)
(-0.0418457 -0.00114818 0)
(-0.0541648 -0.000216669 0)
(-0.068684 -0.037318 0)
(-0.0821575 -0.0657623 0)
(-0.0989604 -0.0828563 0)
(-0.113159 -0.0919302 0)
(-0.124595 -0.0967172 0)
(-0.133548 -0.0979475 0)
(-0.140235 -0.09553 0)
(-0.145043 -0.0893145 0)
(-0.149047 -0.0820871 0)
(-0.153419 -0.0719754 0)
(-0.161012 -0.0521357 0)
(-0.169699 -0.0185666 0)
(-0.0108522 0.200808 0)
(0.0119041 0.249816 0)
(0.0484664 0.244699 0)
(0.0732479 0.2086 0)
(0.0790828 0.163908 0)
(0.0715535 0.125396 0)
(0.0573091 0.0920511 0)
(0.0385617 0.0619156 0)
(0.0185957 0.035489 0)
(0.00274224 0.01845 0)
(-0.00562885 -0.000644054 0)
(-0.0142309 -0.0215532 0)
(-0.0307294 -0.0437631 0)
(-0.0505958 -0.0610794 0)
(-0.069274 -0.0727106 0)
(-0.0858164 -0.0797165 0)
(-0.100384 -0.0828474 0)
(-0.113038 -0.0823373 0)
(-0.123641 -0.0784611 0)
(-0.133085 -0.0714592 0)
(-0.142001 -0.0601668 0)
(-0.151205 -0.0431261 0)
(-0.156807 -0.0236794 0)
(0.000374968 0.2079 0)
(0.0231702 0.224807 0)
(0.0519881 0.217397 0)
(0.0737594 0.193707 0)
(0.0833289 0.163236 0)
(0.0827495 0.133345 0)
(0.0759777 0.105224 0)
(0.0648222 0.0780721 0)
(0.0512356 0.051168 0)
(0.0386416 0.0302973 0)
(0.0286915 0.0123695 0)
(0.0176709 -0.00735179 0)
(0.00210304 -0.0257336 0)
(-0.0162346 -0.0421033 0)
(-0.0348525 -0.0544924 0)
(-0.0526693 -0.0629825 0)
(-0.0692604 -0.067802 0)
(-0.084346 -0.0689706 0)
(-0.0976734 -0.0666533 0)
(-0.109449 -0.0610749 0)
(-0.119386 -0.0516526 0)
(-0.127937 -0.0382395 0)
(-0.134237 -0.0257357 0)
(0.00454246 0.198231 0)
(0.0256882 0.201695 0)
(0.0487202 0.194226 0)
(0.0679657 0.178238 0)
(0.0796409 0.156903 0)
(0.0840803 0.134003 0)
(0.0832454 0.110744 0)
(0.0784659 0.0869577 0)
(0.0702882 0.0623854 0)
(0.0602951 0.0407284 0)
(0.0501486 0.0222178 0)
(0.0385827 0.00532 0)
(0.0246426 -0.0102059 0)
(0.00886033 -0.0249484 0)
(-0.00796179 -0.0371807 0)
(-0.024817 -0.0463331 0)
(-0.0410893 -0.0522428 0)
(-0.0562789 -0.0548559 0)
(-0.0699848 -0.0542663 0)
(-0.0820518 -0.0505828 0)
(-0.0916782 -0.0437611 0)
(-0.0997154 -0.034479 0)
(-0.106463 -0.0272018 0)
(0.00501223 0.183258 0)
(0.0233352 0.180975 0)
(0.0419666 0.17424 0)
(0.0588974 0.162971 0)
(0.0712917 0.147636 0)
(0.0787261 0.129975 0)
(0.0819436 0.110918 0)
(0.0815319 0.0907357 0)
(0.0776153 0.069768 0)
(0.0707529 0.0499086 0)
(0.0619747 0.0326048 0)
(0.0518019 0.0174148 0)
(0.0402412 0.00331811 0)
(0.0272025 -0.00988224 0)
(0.0129345 -0.0213087 0)
(-0.00188468 -0.030434 0)
(-0.0165496 -0.0369379 0)
(-0.0304566 -0.0406629 0)
(-0.0431717 -0.0416304 0)
(-0.0543398 -0.0399363 0)
(-0.0631899 -0.0357849 0)
(-0.0705749 -0.0299966 0)
(-0.0776182 -0.0264345 0)
(0.00407175 0.170154 0)
(0.0191372 0.164102 0)
(0.0341496 0.157454 0)
(0.0487913 0.148754 0)
(0.0608994 0.137185 0)
(0.0697261 0.123349 0)
(0.0752941 0.10783 0)
(0.0777023 0.0910205 0)
(0.076888 0.0735038 0)
(0.0730763 0.0565207 0)
(0.0669769 0.0410845 0)
(0.0592871 0.0271586 0)
(0.0502881 0.014327 0)
(0.0399669 0.00248248 0)
(0.0284772 -0.00800567 0)
(0.0162807 -0.0167616 0)
(0.00393791 -0.0234902 0)
(-0.00799056 -0.0280245 0)
(-0.0189868 -0.030289 0)
(-0.0287446 -0.0303638 0)
(-0.036381 -0.0285213 0)
(-0.0431519 -0.0255386 0)
(-0.0503251 -0.0247318 0)
(0.00285098 0.160002 0)
(0.0147629 0.150827 0)
(0.0267203 0.143583 0)
(0.0391382 0.136029 0)
(0.0503147 0.126697 0)
(0.0594279 0.115538 0)
(0.0661493 0.102846 0)
(0.0703012 0.088977 0)
(0.0717328 0.0744612 0)
(0.0705297 0.0601256 0)
(0.0671397 0.0466574 0)
(0.0620838 0.0342135 0)
(0.0556741 0.0226744 0)
(0.0480385 0.0120239 0)
(0.0393464 0.00246874 0)
(0.0299203 -0.00577668 0)
(0.0201644 -0.0124953 0)
(0.0105678 -0.0174995 0)
(0.00154834 -0.020715 0)
(-0.00649289 -0.0222176 0)
(-0.0129007 -0.0222282 0)
(-0.0188616 -0.0213997 0)
(-0.0257765 -0.0226804 0)
(0.00179239 0.152404 0)
(0.0109912 0.140539 0)
(0.0203985 0.132291 0)
(0.0307418 0.124981 0)
(0.040667 0.116841 0)
(0.0493978 0.107457 0)
(0.0564741 0.0968879 0)
(0.061593 0.0853758 0)
(0.0645547 0.0733151 0)
(0.0653566 0.0612507 0)
(0.0642414 0.0496452 0)
(0.0615521 0.0386906 0)
(0.0575521 0.0284226 0)
(0.0524101 0.0188794 0)
(0.0463056 0.0101891 0)
(0.0394883 0.00250574 0)
(0.0322667 -0.00401095 0)
(0.0250108 -0.00924449 0)
(0.0180845 -0.0131061 0)
(0.0117686 -0.015642 0)
(0.0067509 -0.0170337 0)
(0.0015088 -0.0178166 0)
(-0.00499804 -0.0204813 0)
(0.0010245 0.146891 0)
(0.00807115 0.132665 0)
(0.0154191 0.123206 0)
(0.0239342 0.115603 0)
(0.032531 0.10796 0)
(0.0405346 0.0996601 0)
(0.0474704 0.0905894 0)
(0.0529995 0.0808569 0)
(0.0569 0.0707123 0)
(0.0591084 0.0604967 0)
(0.0597343 0.0505166 0)
(0.0589768 0.0409471 0)
(0.0570254 0.0318651 0)
(0.0540379 0.0233343 0)
(0.0501772 0.0154507 0)
(0.0456447 0.00833065 0)
(0.0406849 0.00209387 0)
(0.0355812 -0.00316174 0)
(0.0306035 -0.00739426 0)
(0.0260014 -0.0106246 0)
(0.022244 -0.0130133 0)
(0.0181274 -0.0149562 0)
(0.0123745 -0.0185764 0)
(0.000544933 0.142916 0)
(0.00599661 0.126637 0)
(0.0117677 0.115923 0)
(0.0187624 0.107741 0)
(0.0261134 0.100158 0)
(0.0332636 0.0924434 0)
(0.0397815 0.0843624 0)
(0.0453414 0.0759074 0)
(0.0497213 0.0672005 0)
(0.0528222 0.0584358 0)
(0.0546685 0.0498031 0)
(0.0553617 0.0414317 0)
(0.055024 0.0334003 0)
(0.0537774 0.0257733 0)
(0.0517549 0.0186288 0)
(0.0491147 0.0120559 0)
(0.046049 0.00614514 0)
(0.042782 0.000971966 0)
(0.039518 -0.00342486 0)
(0.0363847 -0.00706544 0)
(0.0339174 -0.0100656 0)
(0.0307772 -0.0127441 0)
(0.0257405 -0.0171762 0)
(0.000316922 0.139955 0)
(0.00468094 0.121933 0)
(0.00931661 0.110032 0)
(0.0151196 0.101157 0)
(0.0213969 0.093384 0)
(0.0277043 0.0859219 0)
(0.0336769 0.0784519 0)
(0.0390275 0.0708746 0)
(0.0435505 0.063211 0)
(0.0471329 0.0555477 0)
(0.0497511 0.0479858 0)
(0.0514443 0.0406067 0)
(0.0522823 0.0334693 0)
(0.0523496 0.026627 0)
(0.0517452 0.0201403 0)
(0.0505895 0.0140771 0)
(0.0490306 0.00850754 0)
(0.0472403 0.00348987 0)
(0.0453658 -0.000942232 0)
(0.043528 -0.00480225 0)
(0.0420426 -0.00816297 0)
(0.0398531 -0.0113033 0)
(0.0356408 -0.0162376 0)
(0.000306552 0.13755 0)
(0.00400647 0.118097 0)
(0.00789924 0.105146 0)
(0.0128276 0.0955833 0)
(0.0182407 0.087508 0)
(0.0237926 0.0800994 0)
(0.0291904 0.0729824 0)
(0.0341958 0.0659892 0)
(0.0386313 0.0590651 0)
(0.0423867 0.0522183 0)
(0.0454162 0.0454838 0)
(0.0477231 0.0388989 0)
(0.0493416 0.0324979 0)
(0.0503249 0.0263167 0)
(0.0507424 0.0203985 0)
(0.050682 0.0147942 0)
(0.0502535 0.00955698 0)
(0.0495891 0.00473457 0)
(0.0487944 0.000355866 0)
(0.0479069 -0.00358399 0)
(0.0473285 -0.00713072 0)
(0.045827 -0.0105218 0)
(0.0422848 -0.0157231 0)
(0.000475189 0.135323 0)
(0.0038686 0.114747 0)
(0.00734085 0.100925 0)
(0.0116799 0.0907548 0)
(0.0164412 0.082364 0)
(0.0213602 0.0749153 0)
(0.0262122 0.067996 0)
(0.0308111 0.0613895 0)
(0.0350131 0.0549861 0)
(0.0387226 0.0487383 0)
(0.0418893 0.042632 0)
(0.0445001 0.036669 0)
(0.0465677 0.0308592 0)
(0.0481234 0.0252206 0)
(0.049214 0.019781 0)
(0.0499011 0.0145765 0)
(0.0502655 0.00964813 0)
(0.0504036 0.00503535 0)
(0.0503828 0.000764669 0)
(0.0502572 -0.00315703 0)
(0.0502386 -0.00676312 0)
(0.049368 -0.010259 0)
(0.0465084 -0.0155567 0)
(0.000805535 0.132967 0)
(0.00415909 0.111569 0)
(0.0074731 0.0970769 0)
(0.0114654 0.0864325 0)
(0.0157689 0.0777822 0)
(0.0201849 0.0702786 0)
(0.0245507 0.0634836 0)
(0.0287302 0.0571466 0)
(0.0326162 0.051119 0)
(0.0361342 0.0453145 0)
(0.0392414 0.0396843 0)
(0.0419208 0.0342027 0)
(0.0441759 0.0288595 0)
(0.0460249 0.0236575 0)
(0.047499 0.0186112 0)
(0.0486409 0.0137453 0)
(0.0495082 0.00909176 0)
(0.0501725 0.00468438 0)
(0.0506807 0.00054989 0)
(0.0510155 -0.00329823 0)
(0.0514884 -0.00688463 0)
(0.0509996 -0.0103851 0)
(0.0485635 -0.0156722 0)
(0.00128504 0.130241 0)
(0.00477968 0.108309 0)
(0.00813726 0.0933696 0)
(0.0119772 0.0824155 0)
(0.0159865 0.0736075 0)
(0.02002 0.0660904 0)
(0.0239698 0.0594079 0)
(0.0277462 0.0532856 0)
(0.0312781 0.047549 0)
(0.034516 0.0420852 0)
(0.0374309 0.0368219 0)
(0.0400109 0.0317141 0)
(0.0422584 0.0267367 0)
(0.0441863 0.0218808 0)
(0.0458164 0.0171513 0)
(0.047179 0.0125646 0)
(0.0483163 0.00814666 0)
(0.0492786 0.00392764 0)
(0.0500897 -6.39942e-05 0)
(0.0507577 -0.00381283 0)
(0.0514268 -0.00732895 0)
(0.0512774 -0.0107881 0)
(0.0492786 -0.0159766 0)
(0.00188378 0.12696 0)
(0.00562765 0.104774 0)
(0.00918515 0.0896244 0)
(0.0130181 0.0785451 0)
(0.0168608 0.0697102 0)
(0.0206128 0.0622581 0)
(0.0242148 0.0557193 0)
(0.0276189 0.0498034 0)
(0.0307882 0.0443184 0)
(0.033699 0.0391351 0)
(0.0363396 0.034166 0)
(0.0387084 0.0293541 0)
(0.0408122 0.0246647 0)
(0.0426639 0.0200813 0)
(0.0442814 0.0156027 0)
(0.0456881 0.0112406 0)
(0.0469145 0.00701771 0)
(0.047999 0.00296308 0)
(0.0489536 -0.000892769 0)
(0.0497322 -0.0045287 0)
(0.0505831 -0.0079533 0)
(0.0505591 -0.0113262 0)
(0.0488124 -0.0163741 0)
(0.00255599 0.123002 0)
(0.00661356 0.100838 0)
(0.0104771 0.0857164 0)
(0.0144024 0.0747049 0)
(0.01817 0.0659896 0)
(0.0217188 0.0587035 0)
(0.0250319 0.0523675 0)
(0.0280989 0.0466807 0)
(0.0309147 0.0414408 0)
(0.0334804 0.0365091 0)
(0.0358029 0.0317904 0)
(0.0378933 0.0272212 0)
(0.0397659 0.0227622 0)
(0.0414374 0.0183934 0)
(0.0429259 0.0141108 0)
(0.0442513 0.009925 0)
(0.0454384 0.00585776 0)
(0.0465146 0.0019405 0)
(0.0474782 -0.00179445 0)
(0.0483185 -0.00531538 0)
(0.0491323 -0.00863667 0)
(0.0492349 -0.0119093 0)
(0.0477728 -0.0167742 0)
(0.00325115 0.118299 0)
(0.00765602 0.0964288 0)
(0.0118897 0.081568 0)
(0.0159656 0.0708181 0)
(0.0197161 0.0623749 0)
(0.0231153 0.0553667 0)
(0.0261846 0.049308 0)
(0.0289474 0.0438919 0)
(0.0314273 0.0389115 0)
(0.0336485 0.0342244 0)
(0.0356361 0.0297329 0)
(0.0374144 0.0253723 0)
(0.0390068 0.0211026 0)
(0.0404355 0.016904 0)
(0.0417213 0.0127731 0)
(0.042884 0.00872138 0)
(0.043945 0.00477326 0)
(0.0449265 0.000963183 0)
(0.0458263 -0.00266993 0)
(0.0465864 -0.00608982 0)
(0.0474074 -0.00931915 0)
(0.047495 -0.0124719 0)
(0.0461206 -0.0171449 0)
(0.00393752 0.112825 0)
(0.0087019 0.0915154 0)
(0.0133248 0.0771423 0)
(0.0175745 0.0668437 0)
(0.0213353 0.0588238 0)
(0.0246147 0.0522077 0)
(0.0274694 0.0465066 0)
(0.0299536 0.0414119 0)
(0.0321167 0.0367168 0)
(0.0340041 0.0322801 0)
(0.0356574 0.0280065 0)
(0.0371134 0.0238337 0)
(0.0384044 0.0197249 0)
(0.0395591 0.015663 0)
(0.0406021 0.0116479 0)
(0.0415549 0.00769437 0)
(0.0424388 0.00383138 0)
(0.043272 9.83235e-05 0)
(0.0440447 -0.00345729 0)
(0.0447369 -0.00680019 0)
(0.0454163 -0.00994475 0)
(0.0455266 -0.0129942 0)
(0.0443183 -0.0174447 0)
(0.00459601 0.10659 0)
(0.00971963 0.0861013 0)
(0.0147222 0.0724363 0)
(0.0191402 0.0627721 0)
(0.0229117 0.0553211 0)
(0.0260775 0.0492074 0)
(0.0287286 0.0439427 0)
(0.0309484 0.0392211 0)
(0.0328099 0.0348406 0)
(0.0343773 0.030666 0)
(0.0357064 0.0266081 0)
(0.0368445 0.0226109 0)
(0.0378322 0.0186429 0)
(0.0387035 0.0146926 0)
(0.0394874 0.0107646 0)
(0.0402083 0.00687903 0)
(0.0408879 0.00307022 0)
(0.0415457 -0.000614609 0)
(0.0421731 -0.00411953 0)
(0.0427171 -0.00740511 0)
(0.043332 -0.0104849 0)
(0.0433696 -0.0134179 0)
(0.0422286 -0.0176514 0)
(0.00523034 0.0996198 0)
(0.010714 0.08021 0)
(0.0160656 0.0674713 0)
(0.0206258 0.0586194 0)
(0.024384 0.0518764 0)
(0.0274184 0.0463685 0)
(0.0298569 0.0416121 0)
(0.0318121 0.03731 0)
(0.0333791 0.0332704 0)
(0.0346383 0.0293689 0)
(0.0356566 0.0255265 0)
(0.0364895 0.0216963 0)
(0.037183 0.0178547 0)
(0.0377755 0.0139967 0)
(0.0382995 0.010133 0)
(0.0387827 0.00628934 0)
(0.0392499 0.00250711 0)
(0.0397211 -0.00115776 0)
(0.040186 -0.00463929 0)
(0.04063 -0.00788814 0)
(0.0410849 -0.0109093 0)
(0.0411124 -0.0137452 0)
(0.0401273 -0.0177365 0)
(0.00585805 0.0919303 0)
(0.011723 0.0738653 0)
(0.0173932 0.062281 0)
(0.0220532 0.0544233 0)
(0.0257481 0.0485244 0)
(0.0286067 0.0437166 0)
(0.0308009 0.0395292 0)
(0.0324747 0.0356818 0)
(0.0337441 0.0320003 0)
(0.034702 0.0283769 0)
(0.035423 0.0247472 0)
(0.0359664 0.0210759 0)
(0.0363806 0.0173489 0)
(0.0367062 0.0135682 0)
(0.0369777 0.00975032 0)
(0.0372261 0.00592681 0)
(0.03748 0.00214537 0)
(0.0377642 -0.00152872 0)
(0.038079 -0.00501556 0)
(0.0383785 -0.00825384 0)
(0.0387653 -0.0112401 0)
(0.0387328 -0.0139726 0)
(0.0377791 -0.0177293 0)
(0.00653772 0.0834865 0)
(0.012839 0.0670689 0)
(0.0188028 0.0569046 0)
(0.0235006 0.0502445 0)
(0.0270501 0.0453282 0)
(0.0296566 0.0413041 0)
(0.0315499 0.0377292 0)
(0.0329088 0.0343538 0)
(0.0338673 0.0310325 0)
(0.0345264 0.0276816 0)
(0.0349622 0.0242554 0)
(0.0352332 0.020733 0)
(0.0353858 0.01711 0)
(0.035459 0.013395 0)
(0.0354877 0.00960926 0)
(0.0355057 0.00578767 0)
(0.0355474 0.00198302 0)
(0.035645 -0.00173063 0)
(0.0358044 -0.00525754 0)
(0.0360144 -0.00851821 0)
(0.0362703 -0.0114802 0)
(0.0362352 -0.0141374 0)
(0.0354024 -0.0176279 0)
(0.00737187 0.0741658 0)
(0.0142151 0.059779 0)
(0.0204565 0.0513886 0)
(0.0250941 0.0461776 0)
(0.0283683 0.0423892 0)
(0.0306079 0.0392143 0)
(0.0321193 0.0362683 0)
(0.0331167 0.0333559 0)
(0.0337459 0.0303757 0)
(0.0341074 0.0272768 0)
(0.0342714 0.0240368 0)
(0.0342887 0.02065 0)
(0.0341984 0.0171216 0)
(0.0340342 0.0134652 0)
(0.0338285 0.00970337 0)
(0.0336166 0.00587101 0)
(0.0334397 0.00202203 0)
(0.0333431 -0.00176343 0)
(0.0333534 -0.00537027 0)
(0.0334412 -0.00868678 0)
(0.0336483 -0.01165 0)
(0.0335708 -0.0142137 0)
(0.0327789 -0.0174418 0)
(0.00855373 0.0637086 0)
(0.016079 0.0518974 0)
(0.0225673 0.0458072 0)
(0.0269758 0.0423756 0)
(0.0297766 0.0398597 0)
(0.0314939 0.037563 0)
(0.0325263 0.0352191 0)
(0.0331142 0.032724 0)
(0.0334004 0.0300391 0)
(0.033472 0.0271549 0)
(0.0333832 0.0240746 0)
(0.0331696 0.0208079 0)
(0.0328575 0.0173675 0)
(0.0324705 0.013769 0)
(0.0320351 0.0100318 0)
(0.0315864 0.0061849 0)
(0.0311732 0.00227539 0)
(0.0308602 -0.00161448 0)
(0.0306999 -0.00535178 0)
(0.0307075 -0.00876713 0)
(0.0308233 -0.0117422 0)
(0.0307406 -0.0142206 0)
(0.030045 -0.0171448 0)
(0.0103701 0.0517126 0)
(0.0187144 0.0432924 0)
(0.0253446 0.0403313 0)
(0.0292308 0.0390956 0)
(0.0312793 0.0379538 0)
(0.0322961 0.0364877 0)