/*--------------------------------*- C++ -*----------------------------------*\
  =========                 |
  \\      /  F ield         | OpenFOAM: The Open Source CFD Toolbox
   \\    /   O peration     | Website:  https://openfoam.org
    \\  /    A nd           | Version:  13
     \\/     M anipulation  |
\*---------------------------------------------------------------------------*/
FoamFile
{
    format      ascii;
    class       surfaceScalarField;
    location    "0.0004";
    object      meshPhi;
}
// * * * * * * * * * * * * * * * * * * * * * * * * * * * * * * * * * * * * * //

dimensions      [0 3 -1 0 0 0 0];

internalField   nonuniform List<scalar> 
3252
(
1.35654e-11
2.504e-25
2.71307e-11
2.49174e-25
4.06958e-11
-2.49175e-25
5.42594e-11
5.00809e-25
6.78127e-11
2.492e-25
8.12917e-11
-2.50595e-25
9.45677e-11
5.06056e-25
5.66443e-25
4.06961e-11
9.91795e-25
8.13921e-11
-1.99339e-24
1.22087e-10
4.90244e-27
1.62778e-10
9.96716e-25
2.03438e-10
9.96801e-25
2.43877e-10
1.00238e-24
2.83702e-10
-4.79746e-27
0
6.78269e-11
2.99009e-24
1.35654e-10
0
2.03479e-10
0
2.71297e-10
3.00486e-24
3.39065e-10
-2.9904e-24
4.06466e-10
-2.99248e-24
4.72833e-10
-3.02808e-24
0
9.49576e-11
0
1.89915e-10
4.0064e-24
2.84871e-10
3.9868e-24
3.79816e-10
-4.00647e-24
4.74692e-10
0
5.69061e-10
4.00942e-24
6.61959e-10
1.91827e-26
-4.51343e-24
1.22088e-10
0
2.44177e-10
0
3.66263e-10
9.967e-24
4.88336e-10
-4.90192e-26
6.1032e-10
-1.0017e-23
7.31667e-10
-1.00234e-23
8.51077e-10
-2.02206e-23
-5.23495e-26
1.49219e-10
1.20192e-23
2.98438e-10
-1.19604e-23
4.47654e-10
0
5.96855e-10
-1.20194e-23
7.4595e-10
1.20204e-23
8.94284e-10
0
1.04018e-09
0
1.35518e-23
1.7635e-10
-1.40224e-23
3.527e-10
-1.40224e-23
5.29046e-10
1.39538e-23
7.05375e-10
-6.86272e-26
8.81582e-10
-1.40238e-23
1.05692e-09
-6.82471e-26
1.22928e-09
-6.70697e-26
1.57458e-23
2.03481e-10
0
4.06961e-10
-1.60256e-23
6.10438e-10
1.60256e-23
8.13895e-10
0
1.01722e-09
-1.60271e-23
1.21957e-09
1.59585e-23
1.41836e-09
1.61091e-23
0
2.30611e-10
8.82457e-26
4.61223e-10
-1.79406e-23
6.9183e-10
-1.81171e-23
9.22415e-10
-1.80291e-23
1.15285e-09
-3.59728e-23
1.38224e-09
0
1.60742e-09
1.81943e-23
2.02726e-23
2.57742e-10
-4.0064e-23
5.15484e-10
7.99319e-23
7.73222e-10
-4.00641e-23
1.03094e-09
4.00647e-23
1.28849e-09
3.98718e-23
1.54494e-09
0
1.79646e-09
-4.03953e-23
0
2.84873e-10
0
5.69746e-10
4.38547e-23
8.54614e-10
-2.15708e-25
1.13946e-09
-2.15688e-25
1.42413e-09
-2.15563e-25
1.70766e-09
-4.40981e-23
1.98548e-09
-2.10298e-25
-2.30634e-25
3.12004e-10
0
6.24007e-10
0
9.36006e-10
-4.78416e-23
1.24798e-09
2.35297e-25
1.55977e-09
-9.56918e-23
1.87042e-09
0
2.17447e-09
-4.81412e-23
0
3.39135e-10
-2.54932e-25
6.78269e-10
0
1.0174e-09
5.18284e-23
1.3565e-09
-5.2084e-23
1.69541e-09
-5.20877e-23
2.03321e-09
0
2.36344e-09
0
-1.18404e-22
3.66265e-10
-5.60896e-23
7.3253e-10
-2.74542e-25
1.09879e-09
5.58152e-23
1.46502e-09
-1.12181e-22
1.83106e-09
-2.74377e-25
2.196e-09
5.58494e-23
2.55231e-09
-5.62834e-23
-1.27966e-22
3.93396e-10
6.0096e-23
7.86792e-10
-5.98019e-23
1.18018e-09
-6.00962e-23
1.57354e-09
2.94127e-25
1.96672e-09
0
2.35881e-09
0
2.74373e-09
-6.01288e-23
6.84364e-23
1.41334e-09
3.5465e-24
1.36031e-09
3.7016e-24
1.30574e-09
-3.82797e-24
1.24924e-09
5.56881e-27
1.19066e-09
5.77403e-27
1.1299e-09
-8.5556e-24
1.06689e-09
0
1.00154e-09
4.60805e-24
9.33758e-10
-4.7726e-24
8.63462e-10
6.92842e-27
7.90556e-10
5.14104e-24
7.14941e-10
7.45262e-27
6.36518e-10
5.53019e-24
5.55182e-10
5.73567e-24
4.70824e-10
8.31436e-27
3.83332e-10
8.62321e-27
2.92591e-10
8.94354e-27
1.98479e-10
-1.32644e-23
1.00874e-10
0
7.15214e-24
3.84922e-09
0
3.70483e-09
1.42658e-23
3.55622e-09
-1.47941e-23
3.40234e-09
1.539e-23
3.24279e-09
2.22831e-26
3.07732e-09
2.31098e-26
2.90571e-09
-1.71227e-23
2.72772e-09
2.48579e-26
2.54313e-09
-1.84188e-23
2.35168e-09
2.67383e-26
2.15312e-09
0
1.94719e-09
2.87613e-26
1.7336e-09
2.98297e-26
1.51209e-09
-4.42401e-23
1.28234e-09
-2.28938e-23
1.04406e-09
2.38443e-23
7.96928e-10
2.46957e-23
5.40616e-10
-2.55417e-23
2.7479e-10
-5.30559e-23
2.7601e-23
5.76945e-09
-3.94576e-23
5.55307e-09
-4.12538e-23
5.33035e-09
0
5.09971e-09
6.22296e-26
4.86057e-09
-4.60936e-23
4.61256e-09
-4.78734e-23
4.35534e-09
-4.95828e-23
4.08857e-09
0
3.81189e-09
7.46536e-26
3.52494e-09
7.74259e-26
3.22733e-09
8.03013e-26
2.91867e-09
8.32842e-26
2.59854e-09
8.63779e-26
2.26652e-09
8.95867e-26
1.92217e-09
0
1.56502e-09
-6.88541e-23
1.19461e-09
-7.14125e-23
8.10431e-10
0
4.11995e-10
0
1.11182e-25
7.25703e-09
7.49655e-26
6.98495e-09
-5.30455e-23
6.70483e-09
7.73636e-26
6.41473e-09
5.73012e-23
6.11394e-09
8.3078e-26
5.80199e-09
-6.14678e-23
5.47845e-09
-6.37518e-23
5.1429e-09
6.6306e-23
4.79488e-09
-6.86736e-23
4.43395e-09
-7.12253e-23
4.05961e-09
1.03392e-25
3.67136e-09
1.07233e-25
3.26869e-09
-7.94633e-23
2.85107e-09
0
2.41793e-09
1.71195e-22
1.96869e-09
8.89023e-23
1.50277e-09
-9.19481e-23
1.01954e-09
1.33467e-25
5.18375e-10
9.90464e-23
1.02902e-22
8.38278e-09
-6.15261e-23
8.06861e-09
-6.42457e-23
7.74508e-09
0
7.41e-09
-1.383e-22
7.06255e-09
7.17713e-23
6.70221e-09
0
6.32848e-09
0
5.94088e-09
0
5.53888e-09
0
5.12195e-09
8.61339e-23
4.68954e-09
-1.24857e-25
4.24107e-09
0
3.77594e-09
-9.60962e-23
3.29353e-09
0
2.79319e-09
2.06451e-22
2.27427e-09
0
1.73607e-09
0
1.17788e-09
2.3049e-22
5.98959e-10
1.19444e-22
2.48179e-22
9.20707e-09
-7.1249e-23
8.86217e-09
2.1028e-25
8.50688e-09
-7.7264e-23
8.13886e-09
8.0259e-23
7.75725e-09
8.32427e-23
7.36147e-09
1.72672e-22
6.95099e-09
8.95438e-23
6.52528e-09
-9.28709e-23
6.08375e-09
0
5.62582e-09
0
5.15089e-09
2.07225e-22
4.65832e-09
1.07312e-22
4.14744e-09
-1.113e-22
3.61759e-09
2.31193e-22
3.06806e-09
0
2.4981e-09
1.24346e-22
1.90698e-09
0
1.29389e-09
1.33758e-22
6.58034e-10
-2.77456e-22
1.43718e-22
9.78129e-09
0
9.41506e-09
-1.67916e-22
9.03768e-09
0
8.64672e-09
-3.61912e-22
8.2413e-09
0
7.82084e-09
0
7.38476e-09
0
6.93249e-09
2.92869e-25
6.46342e-09
-2.17019e-22
5.97694e-09
0
5.47238e-09
2.33773e-22
4.94908e-09
2.4212e-22
4.40634e-09
3.51453e-25
3.84344e-09
0
3.25962e-09
2.70501e-22
2.65411e-09
-2.8016e-22
2.02611e-09
0
1.37478e-09
0
6.99254e-10
0
0
1.01491e-08
1.77953e-22
9.76932e-09
0
9.37781e-09
-1.93007e-22
8.97216e-09
-2.002e-22
8.5515e-09
-4.14993e-22
8.11522e-09
0
7.66274e-09
2.23047e-22
7.19346e-09
0
6.70675e-09
0
6.20196e-09
-2.49193e-22
5.67842e-09
2.58452e-22
5.13544e-09
-8.03416e-22
4.57228e-09
0
3.9882e-09
-2.87942e-22
3.38242e-09
-2.9864e-22
2.75413e-09
-3.1017e-22
2.1025e-09
0
1.42666e-09
-4.663e-25
7.25724e-10
-3.46044e-22
0
1.03476e-08
-1.93443e-22
9.96061e-09
0
9.56151e-09
2.10145e-22
9.14793e-09
0
8.71904e-09
0
8.27423e-09
0
7.8129e-09
0
7.33443e-09
0
6.83819e-09
5.23188e-22
6.32352e-09
5.42249e-22
5.78974e-09
2.81002e-22
5.23613e-09
-2.9185e-22
4.66194e-09
3.02271e-22
4.06643e-09
0
3.44879e-09
0
2.80821e-09
-3.37232e-22
2.14382e-09
0
1.45475e-09
0
7.40084e-10
3.76235e-22
-3.90283e-22
1.04082e-08
-2.08083e-22
1.00191e-08
0
9.61777e-09
2.26078e-22
9.20178e-09
3.27792e-25
8.77038e-09
-2.4287e-22
8.32295e-09
3.52569e-25
7.85891e-09
-2.61253e-22
7.37764e-09
2.7134e-22
6.87849e-09
3.93329e-25
6.3608e-09
0
5.82388e-09
-3.023e-22
5.26702e-09
3.13971e-22
4.68947e-09
-3.25182e-22
4.09046e-09
4.7202e-25
3.46919e-09
4.89557e-25
2.82484e-09
5.07746e-25
2.15655e-09
3.76798e-22
1.46344e-09
-3.89706e-22
7.4457e-10
5.66468e-25
-4.19855e-22
1.03573e-08
-2.21686e-22
9.97045e-09
2.32118e-22
9.5711e-09
-2.40554e-22
9.15715e-09
6.98501e-25
8.72785e-09
2.59502e-22
8.2826e-09
3.7566e-25
7.82082e-09
3.89613e-25
7.34189e-09
4.04084e-25
6.84517e-09
-5.99289e-22
6.33e-09
4.34656e-25
5.79569e-09
6.45102e-22
5.24154e-09
4.6755e-25
4.66679e-09
3.47935e-22
4.07069e-09
-3.58851e-22
3.45245e-09
5.21623e-25
2.81124e-09
-3.86554e-22
2.1462e-09
-4.00916e-22
1.45645e-09
-4.15231e-22
7.41075e-10
4.31866e-22
-4.46721e-22
1.02175e-08
-4.69001e-22
9.83608e-09
2.45069e-22
9.44218e-09
0
9.03382e-09
0
8.61031e-09
2.73565e-22
8.17107e-09
2.8373e-22
7.71551e-09
-4.11877e-25
7.24304e-09
3.05206e-22
6.75301e-09
0
6.24479e-09
3.28308e-22
5.71769e-09
-3.40983e-22
5.171e-09
0
4.604e-09
3.66793e-22
4.01594e-09
0
3.40603e-09
-7.88009e-22
2.77346e-09
4.08644e-22
2.11738e-09
-4.2442e-22
1.43693e-09
-8.79764e-22
7.31198e-10
-6.3807e-25
-9.46465e-22
1.00075e-08
4.92511e-22
9.63415e-09
2.58141e-22
9.24841e-09
3.73934e-25
8.84844e-09
0
8.43363e-09
5.7543e-22
8.00341e-09
-2.97988e-22
7.55721e-09
-3.0906e-22
7.09443e-09
3.21441e-22
6.61447e-09
-3.32919e-22
6.11668e-09
4.82587e-25
5.6004e-09
7.15737e-22
5.06494e-09
-3.70906e-22
4.50958e-09
0
3.93359e-09
3.99538e-22
3.3362e-09
-4.14383e-22
2.71662e-09
4.2978e-22
2.07401e-09
6.2298e-25
1.40753e-09
-9.23975e-22
7.16283e-10
-4.78817e-22
-1.49067e-21
9.74309e-09
2.56988e-22
9.37988e-09
0
9.00438e-09
5.58344e-22
8.61498e-09
4.04979e-25
8.21112e-09
4.2003e-25
7.79225e-09
-3.11243e-22
7.35783e-09
4.51817e-25
6.90727e-09
3.35739e-22
6.43998e-09
3.47728e-22
5.95532e-09
0
5.45267e-09
5.22777e-25
4.93134e-09
3.87946e-22
4.39064e-09
-8.04158e-22
3.82986e-09
8.34621e-22
3.24824e-09
0
2.645e-09
0
2.01936e-09
4.65576e-22
1.37047e-09
0
6.97463e-10
0
7.25428e-25
9.43757e-09
2.67526e-22
9.08598e-09
2.80368e-22
8.7223e-09
4.05905e-25
8.34512e-09
4.21003e-25
7.95391e-09
8.73316e-25
7.54817e-09
-6.47584e-22
7.12736e-09
4.69706e-25
6.69092e-09
6.97088e-22
6.23826e-09
5.05245e-25
5.7688e-09
5.24012e-25
5.2819e-09
-3.88313e-22
4.7769e-09
-4.02178e-22
4.25315e-09
5.8461e-25
3.70993e-09
6.06331e-25
3.14653e-09
8.99902e-22
2.5622e-09
0
1.95616e-09
-9.66664e-22
1.3276e-09
5.02693e-22
6.75682e-10
7.27666e-25
5.40029e-22
9.10191e-09
-2.76553e-22
8.76305e-09
-2.89517e-22
8.41235e-09
3.0114e-22
8.04858e-09
-3.11448e-22
7.67128e-09
0
7.27996e-09
6.70979e-22
6.87411e-09
0
6.45317e-09
7.21262e-22
6.01661e-09
7.48585e-22
5.56383e-09
-3.882e-22
5.09423e-09
-5.62718e-25
4.60719e-09
0
4.10205e-09
1.29809e-21
3.57814e-09
-4.47935e-22
3.03476e-09
4.65881e-22
2.4712e-09
6.75316e-25
1.8867e-09
-1.50273e-21
1.28048e-09
0
6.51729e-10
-5.39075e-22
7.81001e-25
8.74525e-09
4.23843e-25
8.41989e-09
2.99594e-22
8.08297e-09
0
7.73345e-09
0
7.37092e-09
0
6.99493e-09
0
6.60497e-09
-3.58513e-22
6.20052e-09
0
5.78105e-09
-3.8565e-22
5.346e-09
-3.99979e-22
4.8948e-09
0
4.42682e-09
8.61111e-22
3.94146e-09
6.24551e-25
3.43807e-09
4.64117e-22
2.91598e-09
0
2.37448e-09
9.97099e-22
1.81287e-09
1.03415e-21
1.23039e-09
0
6.2626e-10
-5.55433e-22
-5.7691e-22
8.37513e-09
-2.93445e-22
8.06374e-09
-3.07351e-22
7.74111e-09
-6.37902e-22
7.40639e-09
-3.30553e-22
7.0592e-09
6.86623e-22
6.6991e-09
-4.97681e-25
6.32564e-09
0
5.9383e-09
-3.82483e-22
5.53657e-09
-7.9339e-22
5.11992e-09
0
4.6878e-09
-4.26722e-22
4.23962e-09
0
3.77479e-09
-6.4244e-25
3.29269e-09
-4.76076e-22
2.79268e-09
4.94456e-22
2.27409e-09
1.53777e-21
1.73623e-09
0
1.17839e-09
-1.10175e-21
5.99815e-10
-5.7134e-22
5.93427e-22
7.99773e-09
0
7.70057e-09
-6.30689e-22
7.39251e-09
0
7.07286e-09
-6.78217e-22
6.74131e-09
7.04395e-22
6.39743e-09
-7.29545e-22
6.04079e-09
0
5.67089e-09
0
5.28726e-09
8.15064e-22
4.88938e-09
8.45349e-22
4.47671e-09
0
4.04872e-09
1.8174e-21
3.60483e-09
0
3.14444e-09
0
2.66694e-09
-1.01309e-21
2.17171e-09
1.0522e-21
1.65808e-09
1.0913e-21
1.12536e-09
1.5819e-24
5.72839e-10
1.1739e-21
0
7.6179e-09
9.18455e-25
7.33525e-09
-6.45618e-22
7.04184e-09
-6.69309e-22
6.73736e-09
6.95096e-22
6.42154e-09
0
6.09398e-09
0
5.75425e-09
0
5.4019e-09
0
5.03647e-09
8.34181e-22
4.65746e-09
8.65176e-22
4.26438e-09
0
3.85669e-09
0
3.43385e-09
-9.65242e-22
2.99531e-09
-1.00111e-21
2.54047e-09
2.0766e-21
2.06873e-09
0
1.57946e-09
1.11689e-21
1.07202e-09
1.15839e-21
5.4571e-10
1.20143e-21
1.24611e-21
1.02343e-09
6.87645e-23
2.04686e-09
1.38209e-22
3.07029e-09
-1.38889e-22
4.09364e-09
-3.39884e-25
5.11657e-09
-6.9451e-23
6.13709e-09
-3.39042e-25
7.14981e-09
-7.01641e-23
6.57871e-23
8.07331e-09
1.17115e-09
0
2.34229e-09
0
3.51342e-09
1.57585e-22
4.68449e-09
-3.14404e-22
5.85517e-09
1.56827e-22
7.02367e-09
1.56888e-22
8.18809e-09
0
0
9.06134e-09
1.31886e-09
-8.62847e-25
2.63771e-09
3.51701e-22
3.95656e-09
-8.62841e-25
5.27534e-09
-1.76284e-22
6.5938e-09
-1.76294e-22
7.91047e-09
1.75477e-22
9.2179e-09
1.7537e-22
-6.28429e-25
1.01845e-08
1.46657e-09
-1.94978e-22
2.93314e-09
-1.94978e-22
4.3997e-09
0
5.86621e-09
-9.54328e-25
7.33247e-09
-1.94988e-22
8.79745e-09
1.94061e-22
1.02445e-08
0
1.80326e-22
1.13077e-08
1.61428e-09
0
3.22856e-09
2.12629e-22
4.84284e-09
0
6.45707e-09
1.04585e-24
8.07116e-09
-2.13683e-22
9.68449e-09
-2.13686e-22
1.12724e-08
-2.11661e-22
0
1.24338e-08
1.76199e-09
-2.32371e-22
3.52399e-09
2.31234e-22
5.28598e-09
2.32371e-22
7.04794e-09
0
8.80987e-09
-1.13738e-24
1.05715e-08
0
1.23022e-08
-4.60983e-22
0
1.35639e-08
1.90971e-09
0
3.81941e-09
-2.51068e-22
5.72912e-09
2.51068e-22
7.63882e-09
0
9.54857e-09
-5.02138e-22
1.14586e-08
-2.51031e-22
1.33341e-08
0
-2.30866e-22
1.46987e-08
2.05742e-09
0
4.11484e-09
-1.32042e-24
6.17226e-09
5.39528e-22
8.22969e-09
5.39527e-22
1.02873e-08
2.68441e-22
1.23456e-08
0
1.43688e-08
1.29963e-24
2.49223e-22
1.58391e-08
2.20513e-09
0
4.41026e-09
1.15102e-21
6.6154e-09
0
8.82057e-09
0
1.1026e-08
-1.41213e-24
1.32326e-08
-2.88391e-22
1.54064e-08
-2.85521e-22
-5.33124e-22
1.6986e-08
2.35284e-09
3.05654e-22
4.70569e-09
0
7.05855e-09
-3.05653e-22
9.41144e-09
0
1.17647e-08
0
1.41195e-08
-3.07077e-22
1.64475e-08
3.05854e-22
2.85335e-22
1.81402e-08
2.50056e-09
1.30023e-21
5.00111e-09
0
7.50169e-09
0
1.00023e-08
-6.51702e-22
1.25033e-08
-3.19051e-24
1.50063e-08
0
1.74922e-08
-3.17944e-24
-6.08179e-22
1.93026e-08
2.64827e-09
-3.37295e-24
5.29654e-09
-6.89101e-22
7.94483e-09
-3.37298e-24
1.05932e-08
0
1.3242e-08
-6.89059e-22
1.58929e-08
6.85534e-22
1.85408e-08
-6.85167e-22
-6.46813e-22
2.04742e-08
2.79598e-09
7.22938e-22
5.59196e-09
7.26494e-22
8.38797e-09
0
1.11841e-08
0
1.39806e-08
7.22888e-22
1.67794e-08
0
1.95938e-08
0
6.86744e-22
2.1656e-08
2.94369e-09
0
5.88739e-09
-3.73901e-24
8.83111e-09
7.60146e-22
1.17749e-08
-3.73917e-24
1.47192e-08
-7.63832e-22
1.76656e-08
-7.63645e-22
2.06395e-08
7.61533e-22
0
2.28451e-08
3.09141e-09
6.18281e-09
9.27425e-09
1.23658e-08
1.54578e-08
1.8552e-08
2.16788e-08
2.44362e-08
8.33688e-09
-1.75224e-09
8.46786e-09
-1.83173e-09
8.5804e-09
-1.88238e-09
8.68455e-09
-1.9303e-09
8.78141e-09
-1.97788e-09
8.87121e-09
-2.02539e-09
8.95397e-09
-2.07289e-09
9.0297e-09
-2.12039e-09
9.0984e-09
-2.16788e-09
9.16007e-09
-2.21538e-09
9.21471e-09
-2.26288e-09
9.26233e-09
-2.31037e-09
9.30292e-09
-2.35787e-09
9.33649e-09
-2.40537e-09
9.36302e-09
-2.45286e-09
9.38253e-09
-2.50036e-09
9.39501e-09
-2.54786e-09
9.40046e-09
-2.59535e-09
9.39889e-09
-2.64285e-09
9.39028e-09
-2.69035e-09
9.37465e-09
-2.73784e-09
9.35199e-09
-2.78534e-09
9.32231e-09
-2.83284e-09
9.2856e-09
-2.88033e-09
9.24186e-09
-2.92783e-09
9.19109e-09
-2.97533e-09
9.13329e-09
-3.02282e-09
9.06847e-09
-3.07032e-09
8.99662e-09
-3.11782e-09
8.91774e-09
-3.16531e-09
8.83183e-09
-3.21281e-09
8.7389e-09
-3.26031e-09
8.63894e-09
-3.3078e-09
8.53195e-09
-3.3553e-09
8.41793e-09
-3.4028e-09
8.29689e-09
-3.45029e-09
8.16882e-09
-3.49779e-09
8.03372e-09
-3.54529e-09
7.89159e-09
-3.59278e-09
7.74244e-09
-3.64028e-09
7.58626e-09
-3.68778e-09
7.42305e-09
-3.73527e-09
7.25281e-09
-3.78277e-09
7.07555e-09
-3.83027e-09
6.89126e-09
-3.87776e-09
6.69994e-09
-3.92526e-09
6.50159e-09
-3.97276e-09
6.29621e-09
-4.02025e-09
6.08359e-09
-4.0676e-09
-4.09903e-09
5.84147e-09
9.46462e-09
-1.83833e-09
9.58419e-09
-1.91445e-09
9.66742e-09
-1.9601e-09
9.73998e-09
-2.00182e-09
9.80523e-09
-2.04293e-09
9.86379e-09
-2.08391e-09
9.91577e-09
-2.12487e-09
9.96121e-09
-2.16582e-09
1.00001e-08
-2.20678e-09
1.00325e-08
-2.24773e-09
1.00583e-08
-2.28868e-09
1.00775e-08
-2.32964e-09
1.00903e-08
-2.37059e-09
1.00964e-08
-2.41155e-09
1.00961e-08
-2.4525e-09
1.00892e-08
-2.49345e-09
1.00757e-08
-2.53441e-09
1.00557e-08
-2.57536e-09
1.00292e-08
-2.61631e-09
9.99611e-09
-2.65727e-09
9.95649e-09
-2.69822e-09
9.91032e-09
-2.73918e-09
9.85762e-09
-2.78013e-09
9.79837e-09
-2.82108e-09
9.73257e-09
-2.86204e-09
9.66024e-09
-2.90299e-09
9.58136e-09
-2.94394e-09
9.49594e-09
-2.9849e-09
9.40397e-09
-3.02585e-09
9.30547e-09
-3.06681e-09
9.20042e-09
-3.10776e-09
9.08882e-09
-3.14871e-09
8.97069e-09
-3.18967e-09
8.84601e-09
-3.23062e-09
8.71479e-09
-3.27157e-09
8.57702e-09
-3.31253e-09
8.43272e-09
-3.35348e-09
8.28187e-09
-3.39444e-09
8.12447e-09
-3.43539e-09
7.96054e-09
-3.47634e-09
7.79006e-09
-3.5173e-09
7.61304e-09
-3.55825e-09
7.42947e-09
-3.5992e-09
7.23936e-09
-3.64016e-09
7.04271e-09
-3.68111e-09
6.83952e-09
-3.72207e-09
6.62978e-09
-3.76302e-09
6.41349e-09
-3.80397e-09
6.19005e-09
-3.84467e-09
-3.87021e-09
5.91448e-09
1.05991e-08
-1.89179e-09
1.07007e-08
-1.96438e-09
1.07545e-08
-2.00518e-09
1.07954e-08
-2.04113e-09
1.0829e-08
-2.07623e-09
1.08564e-08
-2.11117e-09
1.08776e-08
-2.14607e-09
1.08927e-08
-2.18097e-09
1.09018e-08
-2.21586e-09
1.09048e-08
-2.25076e-09
1.09018e-08
-2.28566e-09
1.08927e-08
-2.32055e-09
1.08776e-08
-2.35545e-09
1.08564e-08
-2.39034e-09
1.08291e-08
-2.42524e-09
1.07958e-08
-2.46013e-09
1.07564e-08
-2.49503e-09
1.0711e-08
-2.52992e-09
1.06595e-08
-2.56482e-09
1.06019e-08
-2.59971e-09
1.05383e-08
-2.63461e-09
1.04687e-08
-2.66951e-09
1.03929e-08
-2.7044e-09
1.03111e-08
-2.7393e-09
1.02233e-08
-2.77419e-09
1.01294e-08
-2.80909e-09
1.00294e-08
-2.84398e-09
9.92341e-09
-2.87888e-09
9.81133e-09
-2.91377e-09
9.6932e-09
-2.94867e-09
9.569e-09
-2.98357e-09
9.43875e-09
-3.01846e-09
9.30244e-09
-3.05336e-09
9.16007e-09
-3.08825e-09
9.01164e-09
-3.12315e-09
8.85716e-09
-3.15804e-09
8.69661e-09
-3.19294e-09
8.53001e-09
-3.22783e-09
8.35735e-09
-3.26273e-09
8.17863e-09
-3.29763e-09
7.99386e-09
-3.33252e-09
7.80302e-09
-3.36742e-09
7.60613e-09
-3.40231e-09
7.40318e-09
-3.43721e-09
7.19417e-09
-3.4721e-09
6.9791e-09
-3.507e-09
6.75797e-09
-3.54189e-09
6.53076e-09
-3.57678e-09
6.29657e-09
-3.61135e-09
-3.63168e-09
6.01008e-09
1.17346e-08
-1.9131e-09
1.18173e-08
-1.98159e-09
1.18415e-08
-2.01765e-09
1.18509e-08
-2.04823e-09
1.18529e-08
-2.0778e-09
1.18489e-08
-2.10717e-09
1.18394e-08
-2.1365e-09
1.18242e-08
-2.16582e-09
1.18035e-08
-2.19515e-09
1.17772e-08
-2.22447e-09
1.17454e-08
-2.25379e-09
1.17079e-08
-2.28311e-09
1.16649e-08
-2.31243e-09
1.16163e-08
-2.34175e-09
1.15622e-08
-2.37108e-09
1.15024e-08
-2.4004e-09
1.14371e-08
-2.42972e-09
1.13662e-08
-2.45904e-09
1.12898e-08
-2.48836e-09
1.12078e-08
-2.51769e-09
1.11202e-08
-2.54701e-09
1.1027e-08
-2.57633e-09
1.09282e-08
-2.60565e-09
1.08239e-08
-2.63497e-09
1.0714e-08
-2.6643e-09
1.05985e-08
-2.69362e-09
1.04775e-08
-2.72294e-09
1.03509e-08
-2.75226e-09
1.02187e-08
-2.78158e-09
1.00809e-08
-2.81091e-09
9.93759e-09
-2.84023e-09
9.78867e-09
-2.86955e-09
9.63419e-09
-2.89887e-09
9.47413e-09
-2.92819e-09
9.3085e-09
-2.95752e-09
9.13729e-09
-2.98684e-09
8.96051e-09
-3.01616e-09
8.77816e-09
-3.04548e-09
8.59023e-09
-3.0748e-09
8.39673e-09
-3.10412e-09
8.19766e-09
-3.13345e-09
7.99301e-09
-3.16277e-09
7.78279e-09
-3.19209e-09
7.56699e-09
-3.22141e-09
7.34562e-09
-3.25073e-09
7.11868e-09
-3.28006e-09
6.88617e-09
-3.30938e-09
6.64804e-09
-3.33869e-09
6.40314e-09
-3.36764e-09
-3.38332e-09
6.10593e-09
1.2872e-08
-1.90226e-09
1.29344e-08
-1.9661e-09
1.29286e-08
-1.99752e-09
1.29063e-08
-2.02312e-09
1.28767e-08
-2.04762e-09
1.28415e-08
-2.07191e-09
1.28012e-08
-2.09615e-09
1.27558e-08
-2.12039e-09
1.27052e-08
-2.14462e-09
1.26496e-08
-2.16885e-09
1.25889e-08
-2.19309e-09
1.25231e-08
-2.21732e-09
1.24522e-08
-2.24155e-09
1.23763e-08
-2.26578e-09
1.22952e-08
-2.29002e-09
1.22091e-08
-2.31425e-09
1.21178e-08
-2.33848e-09
1.20215e-08
-2.36272e-09
1.19201e-08
-2.38695e-09
1.18136e-08
-2.41118e-09
1.1702e-08
-2.43542e-09
1.15853e-08
-2.45965e-09
1.14635e-08
-2.48388e-09
1.13367e-08
-2.50811e-09
1.12047e-08
-2.53235e-09
1.10677e-08
-2.55658e-09
1.09256e-08
-2.58081e-09
1.07783e-08
-2.60505e-09
1.0626e-08
-2.62928e-09
1.04687e-08
-2.65351e-09
1.03062e-08
-2.67775e-09
1.01386e-08
-2.70198e-09
9.96594e-09
-2.72621e-09
9.78819e-09
-2.75044e-09
9.60535e-09
-2.77468e-09
9.41742e-09
-2.79891e-09
9.22441e-09
-2.82314e-09
9.0263e-09
-2.84738e-09
8.82311e-09
-2.87161e-09
8.61483e-09
-2.89584e-09
8.40146e-09
-2.92008e-09
8.183e-09
-2.94431e-09
7.95945e-09
-2.96854e-09
7.73081e-09
-2.99277e-09
7.49708e-09
-3.01701e-09
7.25826e-09
-3.04124e-09
7.01436e-09
-3.06547e-09
6.76532e-09
-3.08969e-09
6.50977e-09
-3.11355e-09
-3.12513e-09
6.20184e-09
1.40117e-08
-1.85926e-09
1.4052e-08
-1.9179e-09
1.40159e-08
-1.94478e-09
1.39618e-08
-1.9658e-09
1.39005e-08
-1.98571e-09
1.38341e-08
-2.00539e-09
1.3763e-08
-2.02503e-09
1.36873e-08
-2.04466e-09
1.36069e-08
-2.06429e-09
1.3522e-08
-2.08392e-09
1.34325e-08
-2.10354e-09
1.33383e-08
-2.12317e-09
1.32396e-08
-2.1428e-09
1.31362e-08
-2.16243e-09
1.30283e-08
-2.18206e-09
1.29157e-08
-2.20169e-09
1.27985e-08
-2.22132e-09
1.26768e-08
-2.24095e-09
1.25504e-08
-2.26057e-09
1.24194e-08
-2.2802e-09
1.22838e-08
-2.29983e-09
1.21436e-08
-2.31946e-09
1.19988e-08
-2.33909e-09
1.18494e-08
-2.35872e-09
1.16954e-08
-2.37835e-09
1.15368e-08
-2.39798e-09
1.13736e-08
-2.4176e-09
1.12058e-08
-2.43723e-09
1.10334e-08
-2.45686e-09
1.08564e-08
-2.47649e-09
1.06748e-08
-2.49612e-09
1.04885e-08
-2.51575e-09
1.02977e-08
-2.53538e-09
1.01022e-08
-2.55501e-09
9.9022e-09
-2.57463e-09
9.69756e-09
-2.59426e-09
9.48831e-09
-2.61389e-09
9.27445e-09
-2.63352e-09
9.05599e-09
-2.65315e-09
8.83292e-09
-2.67278e-09
8.60526e-09
-2.69241e-09
8.37298e-09
-2.71203e-09
8.1361e-09
-2.73166e-09
7.89462e-09
-2.75129e-09
7.64854e-09
-2.77092e-09
7.39785e-09
-2.79055e-09
7.14255e-09
-2.81018e-09
6.8826e-09
-2.8298e-09
6.61646e-09
-2.84905e-09
-2.85708e-09
6.29782e-09
1.51544e-08
-1.78402e-09
1.51703e-08
-1.83694e-09
1.51033e-08
-1.85942e-09
1.50173e-08
-1.87627e-09
1.49243e-08
-1.89205e-09
1.48267e-08
-1.90761e-09
1.47248e-08
-1.92313e-09
1.46188e-08
-1.93864e-09
1.45087e-08
-1.95415e-09
1.43944e-08
-1.96966e-09
1.4276e-08
-1.98517e-09
1.41535e-08
-2.00068e-09
1.40269e-08
-2.01618e-09
1.38962e-08
-2.03169e-09
1.37613e-08
-2.0472e-09
1.36223e-08
-2.06271e-09
1.34792e-08
-2.07822e-09
1.3332e-08
-2.09373e-09
1.31807e-08
-2.10924e-09
1.30252e-08
-2.12475e-09
1.28657e-08
-2.14026e-09
1.2702e-08
-2.15577e-09
1.25341e-08
-2.17128e-09
1.23622e-08
-2.18678e-09
1.21862e-08
-2.20229e-09
1.2006e-08
-2.2178e-09
1.18217e-08
-2.23331e-09
1.16333e-08
-2.24882e-09
1.14408e-08
-2.26433e-09
1.12441e-08
-2.27984e-09
1.10433e-08
-2.29535e-09
1.08384e-08
-2.31086e-09
1.06294e-08
-2.32637e-09
1.04163e-08
-2.34188e-09
1.01991e-08
-2.35739e-09
9.97769e-09
-2.37289e-09
9.7522e-09
-2.3884e-09
9.5226e-09
-2.40391e-09
9.28887e-09
-2.41942e-09
9.05102e-09
-2.43493e-09
8.80905e-09
-2.45044e-09
8.56297e-09
-2.46595e-09
8.31276e-09
-2.48146e-09
8.05844e-09
-2.49697e-09
7.79999e-09
-2.51248e-09
7.53743e-09
-2.52799e-09
7.27074e-09
-2.54349e-09
6.99989e-09
-2.55899e-09
6.72321e-09
-2.57415e-09
-2.57918e-09
6.39387e-09
1.63005e-08
-1.67643e-09
1.62895e-08
-1.72318e-09
1.61908e-08
-1.74144e-09
1.60728e-08
-1.75454e-09
1.59482e-08
-1.76665e-09
1.58193e-08
-1.77857e-09
1.56866e-08
-1.79045e-09
1.55503e-08
-1.80233e-09
1.54104e-08
-1.8142e-09
1.52668e-08
-1.82608e-09
1.51196e-08
-1.83795e-09
1.49687e-08
-1.84983e-09
1.48142e-08
-1.8617e-09
1.46561e-08
-1.87357e-09
1.44944e-08
-1.88545e-09
1.4329e-08
-1.89732e-09
1.41599e-08
-1.9092e-09
1.39873e-08
-1.92107e-09
1.3811e-08
-1.93294e-09
1.36311e-08
-1.94482e-09
1.34475e-08
-1.95669e-09
1.32603e-08
-1.96857e-09
1.30695e-08
-1.98044e-09
1.2875e-08
-1.99232e-09
1.26769e-08
-2.00419e-09
1.24751e-08
-2.01606e-09
1.22698e-08
-2.02794e-09
1.20608e-08
-2.03981e-09
1.18481e-08
-2.05169e-09
1.16318e-08
-2.06356e-09
1.14119e-08
-2.07543e-09
1.11884e-08
-2.08731e-09
1.09612e-08
-2.09918e-09
1.07304e-08
-2.11106e-09
1.04959e-08
-2.12293e-09
1.02578e-08
-2.13481e-09
1.00161e-08
-2.14668e-09
9.77074e-09
-2.15855e-09
9.52175e-09
-2.17043e-09
9.26912e-09
-2.1823e-09
9.01285e-09
-2.19418e-09
8.75296e-09
-2.20605e-09
8.48942e-09
-2.21792e-09
8.22225e-09
-2.2298e-09
7.95145e-09
-2.24167e-09
7.67701e-09
-2.25355e-09
7.39894e-09
-2.26542e-09
7.11717e-09
-2.27729e-09
6.83003e-09
-2.28885e-09
-2.29142e-09
6.48999e-09
1.74504e-08
-1.53634e-09
1.74096e-08
-1.57655e-09
1.72786e-08
-1.59082e-09
1.71284e-08
-1.60058e-09
1.6972e-08
-1.60951e-09
1.68118e-08
-1.61827e-09
1.66484e-08
-1.627e-09
1.64818e-08
-1.63573e-09
1.63121e-08
-1.64445e-09
1.61392e-08
-1.65317e-09
1.59631e-08
-1.6619e-09
1.57839e-08
-1.67062e-09
1.56016e-08
-1.67935e-09
1.54161e-08
-1.68807e-09
1.52274e-08
-1.69679e-09
1.50356e-08
-1.70552e-09
1.48406e-08
-1.71424e-09
1.46425e-08
-1.72297e-09
1.44413e-08
-1.73169e-09
1.42369e-08
-1.74041e-09
1.40293e-08
-1.74914e-09
1.38186e-08
-1.75786e-09
1.36048e-08
-1.76658e-09
1.33878e-08
-1.77531e-09
1.31676e-08
-1.78403e-09
1.29443e-08
-1.79276e-09
1.27178e-08
-1.80148e-09
1.24882e-08
-1.8102e-09
1.22555e-08
-1.81893e-09
1.20196e-08
-1.82765e-09
1.17805e-08
-1.83638e-09
1.15383e-08
-1.8451e-09
1.12929e-08
-1.85382e-09
1.10444e-08
-1.86255e-09
1.07928e-08
-1.87127e-09
1.0538e-08
-1.88e-09
1.028e-08
-1.88872e-09
1.00189e-08
-1.89744e-09
9.75463e-09
-1.90617e-09
9.48722e-09
-1.91489e-09
9.21665e-09
-1.92361e-09
8.94294e-09
-1.93234e-09
8.66608e-09
-1.94106e-09
8.38607e-09
-1.94979e-09
8.10291e-09
-1.95851e-09
7.81659e-09
-1.96723e-09
7.52713e-09
-1.97596e-09
7.23446e-09
-1.98467e-09
6.93691e-09
-1.99314e-09
-1.99378e-09
6.58619e-09
1.86049e-08
-1.36357e-09
1.85308e-08
-1.39695e-09
1.83666e-08
-1.40752e-09
1.81841e-08
-1.4144e-09
1.79959e-08
-1.42062e-09
1.78044e-08
-1.42671e-09
1.76102e-08
-1.43277e-09
1.74133e-08
-1.43883e-09
1.72138e-08
-1.44489e-09
1.70116e-08
-1.45095e-09
1.68067e-08
-1.45701e-09
1.65991e-08
-1.46307e-09
1.63889e-08
-1.46912e-09
1.6176e-08
-1.47518e-09
1.59605e-08
-1.48124e-09
1.57422e-08
-1.4873e-09
1.55214e-08
-1.49336e-09
1.52978e-08
-1.49942e-09
1.50716e-08
-1.50547e-09
1.48427e-08
-1.51153e-09
1.46112e-08
-1.51759e-09
1.43769e-08
-1.52365e-09
1.41401e-08
-1.52971e-09
1.39005e-08
-1.53577e-09
1.36583e-08
-1.54182e-09
1.34134e-08
-1.54788e-09
1.31659e-08
-1.55394e-09
1.29157e-08
-1.56e-09
1.26628e-08
-1.56606e-09
1.24073e-08
-1.57212e-09
1.21491e-08
-1.57817e-09
1.18882e-08
-1.58423e-09
1.16247e-08
-1.59029e-09
1.13585e-08
-1.59635e-09
1.10896e-08
-1.60241e-09
1.08181e-08
-1.60846e-09
1.05439e-08
-1.61452e-09
1.0267e-08
-1.62058e-09
9.98751e-09
-1.62664e-09
9.70531e-09
-1.6327e-09
9.42045e-09
-1.63876e-09
9.13293e-09
-1.64481e-09
8.84274e-09
-1.65087e-09
8.54988e-09
-1.65693e-09
8.25436e-09
-1.66299e-09
7.95617e-09
-1.66905e-09
7.65532e-09
-1.67511e-09
7.35175e-09
-1.68116e-09
7.04385e-09
-1.68701e-09
-1.68626e-09
6.68247e-09
1.97642e-08
-1.15788e-09
1.96532e-08
-1.18426e-09
1.94548e-08
-1.19153e-09
1.92397e-08
-1.196e-09
1.90197e-08
-1.19999e-09
1.8797e-08
-1.20389e-09
1.8572e-08
-1.20777e-09
1.83449e-08
-1.21165e-09
1.81155e-08
-1.21553e-09
1.78839e-08
-1.2194e-09
1.76502e-08
-1.22328e-09
1.74143e-08
-1.22716e-09
1.71762e-08
-1.23104e-09
1.6936e-08
-1.23491e-09
1.66935e-08
-1.23879e-09
1.64489e-08
-1.24267e-09
1.62021e-08
-1.24654e-09
1.59531e-08
-1.25042e-09
1.57019e-08
-1.2543e-09
1.54485e-08
-1.25818e-09
1.5193e-08
-1.26205e-09
1.49353e-08
-1.26593e-09
1.46754e-08
-1.26981e-09
1.44133e-08
-1.27369e-09
1.4149e-08
-1.27756e-09
1.38826e-08
-1.28144e-09
1.3614e-08
-1.28532e-09
1.33432e-08
-1.2892e-09
1.30702e-08
-1.29307e-09
1.2795e-08
-1.29695e-09
1.25177e-08
-1.30083e-09
1.22381e-08
-1.3047e-09
1.19564e-08
-1.30858e-09
1.16725e-08
-1.31246e-09
1.13865e-08
-1.31634e-09
1.10982e-08
-1.32021e-09
1.08078e-08
-1.32409e-09
1.05152e-08
-1.32797e-09
1.02204e-08
-1.33184e-09
9.92341e-09
-1.33572e-09
9.62425e-09
-1.3396e-09
9.32292e-09
-1.34348e-09
9.0194e-09
-1.34735e-09
8.7137e-09
-1.35123e-09
8.40582e-09
-1.35511e-09
8.09576e-09
-1.35899e-09
7.78351e-09
-1.36286e-09
7.46904e-09
-1.36674e-09
7.15087e-09
-1.37047e-09
-1.36884e-09
6.77882e-09
2.09289e-08
-9.19005e-10
2.07767e-08
-9.38378e-10
2.05432e-08
-9.42816e-10
2.02954e-08
-9.45365e-10
2.00436e-08
-9.47615e-10
1.97896e-08
-9.49809e-10
1.95338e-08
-9.51992e-10
1.92764e-08
-9.54174e-10
1.90172e-08
-9.56355e-10
1.87563e-08
-9.58536e-10
1.84938e-08
-9.60717e-10
1.82295e-08
-9.62898e-10
1.79636e-08
-9.65079e-10
1.76959e-08
-9.6726e-10
1.74265e-08
-9.69441e-10
1.71555e-08
-9.71622e-10
1.68828e-08
-9.73803e-10
1.66083e-08
-9.75984e-10
1.63322e-08
-9.78165e-10
1.60544e-08
-9.80346e-10
1.57748e-08
-9.82527e-10
1.54936e-08
-9.84707e-10
1.52107e-08
-9.86888e-10
1.49261e-08
-9.89069e-10
1.46398e-08
-9.9125e-10
1.43517e-08
-9.93431e-10
1.4062e-08
-9.95612e-10
1.37706e-08
-9.97793e-10
1.34775e-08
-9.99974e-10
1.31827e-08
-1.00216e-09
1.28863e-08
-1.00434e-09
1.25881e-08
-1.00652e-09
1.22882e-08
-1.0087e-09
1.19866e-08
-1.01088e-09
1.16833e-08
-1.01306e-09
1.13784e-08
-1.01524e-09
1.10717e-08
-1.01742e-09
1.07633e-08
-1.0196e-09
1.04533e-08
-1.02178e-09
1.01415e-08
-1.02396e-09
9.82805e-09
-1.02615e-09
9.5129e-09
-1.02833e-09
9.19606e-09
-1.03051e-09
8.87751e-09
-1.03269e-09
8.55727e-09
-1.03487e-09
8.23534e-09
-1.03705e-09
7.91171e-09
-1.03923e-09
7.58634e-09
-1.04141e-09
7.25795e-09
-1.0435e-09
-1.04152e-09
6.87526e-09
2.20995e-08
-6.46644e-10
2.19013e-08
-6.59144e-10
2.16319e-08
-6.61342e-10
2.13512e-08
-6.6249e-10
2.10675e-08
-6.63492e-10
2.07822e-08
-6.64467e-10
2.04957e-08
-6.65438e-10
2.02079e-08
-6.66407e-10
1.99189e-08
-6.67377e-10
1.96287e-08
-6.68346e-10
1.93373e-08
-6.69315e-10
1.90447e-08
-6.70285e-10
1.87509e-08
-6.71254e-10
1.84558e-08
-6.72223e-10
1.81596e-08
-6.73193e-10
1.78621e-08
-6.74162e-10
1.75635e-08
-6.75131e-10
1.72636e-08
-6.76101e-10
1.69625e-08
-6.7707e-10
1.66602e-08
-6.78039e-10
1.63567e-08
-6.79008e-10
1.60519e-08
-6.79978e-10
1.5746e-08
-6.80947e-10
1.54388e-08
-6.81916e-10
1.51305e-08
-6.82886e-10
1.48209e-08
-6.83855e-10
1.45101e-08
-6.84824e-10
1.41981e-08
-6.85794e-10
1.38849e-08
-6.86763e-10
1.35705e-08
-6.87732e-10
1.32548e-08
-6.88701e-10
1.2938e-08
-6.89671e-10
1.26199e-08
-6.9064e-10
1.23007e-08
-6.91609e-10
1.19802e-08
-6.92579e-10
1.16585e-08
-6.93548e-10
1.13356e-08
-6.94517e-10
1.10115e-08
-6.95487e-10
1.06861e-08
-6.96456e-10
1.03596e-08
-6.97425e-10
1.00319e-08
-6.98395e-10
9.70289e-09
-6.99364e-10
9.37271e-09
-7.00333e-10
9.04133e-09