/*--------------------------------*- C++ -*----------------------------------*\
  =========                 |
  \\      /  F ield         | OpenFOAM: The Open Source CFD Toolbox
   \\    /   O peration     | Website:  https://openfoam.org
    \\  /    A nd           | Version:  13
     \\/     M anipulation  |
\*---------------------------------------------------------------------------*/
FoamFile
{
    format      ascii;
    class       volScalarField;
    location    "0.0004";
    object      p;
}
// * * * * * * * * * * * * * * * * * * * * * * * * * * * * * * * * * * * * * //

dimensions      [0 2 -2 0 0 0 0];

internalField   nonuniform List<scalar> 
1690
(
-0.0801956
-0.0270127
0.0157214
0.0477218
0.0665292
0.0646052
0.0523508
0.0193052
-0.0791384
-0.0258337
0.0170793
0.0492645
0.0678467
0.0661403
0.0521568
0.0190742
-0.0772489
-0.0243927
0.0181604
0.0500483
0.0681893
0.0657748
0.0502967
0.0160898
-0.0743958
-0.0222017
0.0198541
0.0513437
0.0689528
0.0653347
0.0477186
0.0112975
-0.0706562
-0.0193454
0.022065
0.0530556
0.0700175
0.0647602
0.0441328
0.00456177
-0.0661245
-0.0159469
0.0246498
0.0550357
0.0712377
0.063896
0.0392053
-0.00447236
-0.0609125
-0.0121372
0.0274664
0.0571459
0.0724879
0.0625753
0.0325314
-0.0162734
-0.0551564
-0.00807084
0.0303445
0.0592122
0.0735941
0.0605162
0.0235075
-0.0315228
-0.0490178
-0.00392916
0.0330755
0.0610029
0.0742802
0.0571702
0.0111857
-0.051311
-0.0426807
8.46043e-05
0.0354153
0.0622309
0.0741392
0.0516066
-0.00580925
-0.0771937
-0.0363449
0.00375552
0.0370959
0.0625818
0.0726859
0.0429453
-0.028522
-0.109821
-0.0302144
0.00687679
0.0378474
0.0616693
0.0693886
0.0316355
-0.0554993
-0.146653
-0.0244801
0.00927821
0.0374434
0.0589875
0.0636268
0.0197368
-0.0813408
-0.181315
-0.0193026
0.0108333
0.0357419
0.05409
0.055088
0.00882797
-0.100791
-0.229311
-0.0148053
0.0114851
0.0327372
0.0470317
0.0444157
-0.00121601
-0.113541
-0.296094
4.23117
4.21826
4.20592
4.17977
4.1503
4.11503
4.07573
4.03397
3.99144
3.94974
3.91023
3.87397
3.84169
3.81379
3.79039
3.77144
3.75673
3.74602
3.73917
3.73644
4.22484
4.21225
4.19901
4.17313
4.14332
4.10795
4.06864
4.02701
3.98478
3.94351
3.90456
3.86893
3.8373
3.81005
3.78726
3.76883
3.75456
3.74418
3.73756
3.73494
4.21468
4.20175
4.18851
4.16204
4.13191
4.09619
4.05672
4.01521
3.97338
3.9328
3.89476
3.86019
3.8297
3.80357
3.78182
3.76432
3.7508
3.74101
3.73477
3.7323
4.1993
4.18589
4.17266
4.14538
4.1149
4.07879
4.03928
3.99811
3.95705
3.91762
3.88101
3.84806
3.81924
3.79472
3.77445
3.75823
3.74577
3.73677
3.73105
3.72881
4.17882
4.16489
4.15168
4.12353
4.0928
4.05639
4.01706
3.97659
3.93675
3.89897
3.86431
3.83347
3.80677
3.78427
3.76582
3.75115
3.73995
3.7319
3.7268
3.72482
4.15289
4.13848
4.12538
4.09644
4.06566
4.0292
3.99048
3.9512
3.91313
3.87755
3.84538
3.81712
3.79295
3.7728
3.75642
3.74351
3.73371
3.72671
3.72228
3.72058
4.12075
4.10603
4.09321
4.06375
4.0333
3.99728
3.95977
3.92236
3.88673
3.85399
3.82485
3.79962
3.77833
3.76078
3.74667
3.73565
3.72734
3.72143
3.71771
3.7163
4.08138
4.06664
4.05445
4.02499
3.99552
3.96066
3.92522
3.89051
3.85809
3.82885
3.80328
3.78149
3.76337
3.74862
3.7369
3.72783
3.72105
3.71625
3.71326
3.71213
4.03337
4.01913
4.00819
3.97961
3.95208
3.91944
3.88717
3.85615
3.82779
3.80272
3.78121
3.7632
3.74846
3.73665
3.72737
3.72027
3.71501
3.71131
3.70902
3.70817
3.97478
3.96196
3.95333
3.92701
3.90281
3.87381
3.84602
3.81979
3.79638
3.77612
3.75911
3.74515
3.73394
3.7251
3.71826
3.7131
3.70932
3.70669
3.70507
3.70449
3.90298
3.89314
3.88856
3.86659
3.84764
3.82408
3.80229
3.78204
3.76443
3.74956
3.7374
3.72767
3.72004
3.71416
3.70972
3.70643
3.70407
3.70245
3.70146
3.70112
3.81428
3.81019
3.81245
3.79786
3.78665
3.77072
3.7566
3.74351
3.7325
3.72351
3.71643
3.71101
3.70695
3.70397
3.70183
3.70031
3.69928
3.69859
3.6982
3.69808
3.7034
3.71007
3.72346
3.72049
3.72017
3.71439
3.70964
3.70485
3.70113
3.69835
3.6965
3.69538
3.6948
3.6946
3.69463
3.69477
3.69496
3.69514
3.69529
3.69537
3.56241
3.58932
3.62007
3.63451
3.6488
3.6559
3.6622
3.6667
3.67078
3.67443
3.67781
3.68091
3.68368
3.68609
3.68814
3.68981
3.69112
3.69208
3.69272
3.69298
3.37898
3.44447
3.50088
3.54038
3.57347
3.59623
3.61507
3.62965
3.64186
3.65199
3.66053
3.66767
3.6736
3.67845
3.68235
3.68541
3.68773
3.68939
3.69046
3.69089
3.13381
3.27248
3.36476
3.43916
3.49536
3.53646
3.569
3.59425
3.6147
3.63124
3.64473
3.6557
3.66456
3.67165
3.67724
3.68155
3.68477
3.68705
3.6885
3.68907
2.79573
3.07142
3.21111
3.33261
3.41582
3.47777
3.52476
3.56092
3.58954
3.61227
3.63046
3.64499
3.65654
3.66566
3.67275
3.67817
3.68219
3.68502
3.68681
3.6875
2.31611
2.84009
3.04099
3.22295
3.3369
3.42114
3.48297
3.52999
3.56653
3.59512
3.61769
3.63549
3.64949
3.66041
3.66885
3.67525
3.67997
3.68327
3.68536
3.68615
1.618
2.57093
2.8604
3.11299
3.26037
3.36754
3.44415
3.50169
3.54572
3.5798
3.60639
3.62714
3.64332
3.65586
3.66548
3.67274
3.67806
3.68178
3.68413
3.685
0.618443
2.26161
2.67817
3.00606
3.18809
3.31778
3.40864
3.47612
3.52713
3.56623
3.59646
3.61987
3.63799
3.65194
3.66258
3.67059
3.67644
3.68051
3.68308
3.68403
-0.00842302
0.0114276
0.0264927
0.0343277
0.0272563
-0.0155686
-0.107001
-0.188105
-0.00293189
0.00950519
0.01793
0.020226
0.0114375
-0.019726
-0.075514
-0.107544
2.33073e-06
0.00667067
0.0101596
0.00880497
-0.000512536
-0.0222963
-0.055569
-0.0787858
0.00127306
0.00354665
0.00350426
-0.000216177
-0.00934563
-0.0251906
-0.0458559
-0.0627133
0.00206804
0.00047554
-0.00208698
-0.0073288
-0.0162316
-0.0291492
-0.0442598
-0.0581367
0.00113179
-0.00263545
-0.00678213
-0.0129141
-0.0214678
-0.0324117
-0.0445735
-0.0563854
-0.00118164
-0.00547052
-0.0107859
-0.017554
-0.0259957
-0.0359636
-0.0467618
-0.0575438
-0.00237296
-0.00778465
-0.0140406
-0.0213531
-0.0298364
-0.0393614
-0.0495336
-0.0598265
-0.00319517
-0.00962506
-0.0166867
-0.024512
-0.0331737
-0.0425925
-0.0525622
-0.0626994
-0.00379759
-0.0110905
-0.0188456
-0.0271547
-0.0360773
-0.0455829
-0.0555916
-0.0657815
-0.00425464
-0.0122653
-0.020615
-0.0293739
-0.0385982
-0.0482935
-0.0584711
-0.0688411
-0.0046092
-0.013212
-0.0220672
-0.0312331
-0.0407692
-0.0507014
-0.0611058
-0.0717311
-0.00488656
-0.0139778
-0.0232574
-0.0327819
-0.0426292
-0.05284
-0.0634978
-0.0743955
-0.00510088
-0.0146076
-0.0242398
-0.0340509
-0.0441493
-0.0546338
-0.0654473
-0.0762803
-0.00523643
-0.0150837
-0.0250032
-0.0350392
-0.0453962
-0.0564346
-0.0677312
-0.0780184
-0.192513
-0.163211
-0.146513
-0.137108
-0.132042
-0.130101
-0.130562
-0.132945
-0.136925
-0.142279
-0.148856
-0.156554
-0.165309
-0.175083
-0.185864
-0.197661
-0.210492
-0.224386
-0.23939
-0.255564
-0.27298
-0.29172
-0.311874
-0.333538
-0.356824
-0.381844
-0.408714
-0.437549
-0.468459
-0.501522
-0.536692
-0.57364
-0.611646
-0.649822
-0.688203
-0.730109
-0.785151
-0.873749
-1.03078
-1.30984
-1.77409
-2.46518
-3.3608
-4.32941
-5.15105
-5.66044
-5.85614
-5.91041
-6.05445
-8.75027
-0.121475
-0.117366
-0.114775
-0.113736
-0.114336
-0.116387
-0.119758
-0.124331
-0.130014
-0.136738
-0.144452
-0.153123
-0.162734
-0.173284
-0.184784
-0.197263
-0.21074
-0.22525
-0.240853
-0.257621
-0.275631
-0.294971
-0.315738
-0.338033
-0.361966
-0.387653
-0.415211
-0.444763
-0.476421
-0.510231
-0.546042
-0.583329
-0.621196
-0.658903
-0.697407
-0.741946
-0.804281
-0.907794
-1.09154
-1.4139
-1.94402
-2.719
-3.68835
-4.67912
-5.43826
-5.81622
-5.87566
-5.83344
-6.09964
-7.47132
-0.0928796
-0.0980034
-0.101546
-0.104722
-0.108288
-0.112473
-0.117397
-0.123109
-0.12963
-0.136971
-0.145138
-0.154139
-0.163989
-0.174709
-0.186323
-0.19886
-0.212376
-0.226942
-0.242621
-0.259487
-0.277626
-0.297131
-0.318089
-0.340604
-0.364798
-0.390796
-0.418725
-0.448704
-0.48083
-0.51512
-0.551402
-0.589218
-0.627918
-0.667261
-0.708867
-0.758677
-0.83046
-0.951292
-1.16559
-1.53771
-2.13923
-3.00057
-4.04123
-5.04198
-5.72354
-5.96313
-5.88216
-5.78156
-6.02759
-6.18245
-0.0751968
-0.0822745
-0.0880972
-0.0936396
-0.0993207
-0.105315
-0.111751
-0.118716
-0.126276
-0.134482
-0.143375
-0.152994
-0.163376
-0.174562
-0.186597
-0.19953
-0.213421
-0.228334
-0.244337
-0.261508
-0.279927
-0.29969
-0.320915
-0.343725
-0.368245
-0.394607
-0.42294
-0.453373
-0.486034
-0.520983
-0.55815
-0.597273
-0.638025
-0.680664
-0.727549
-0.785668
-0.870511
-1.01172
-1.25776
-1.67614
-2.33771
-3.26567
-4.35665
-5.35435
-5.96251
-6.09329
-5.89333
-5.74588
-5.79477
-5.03481
-0.0701023
-0.0784249
-0.0854491
-0.0920994
-0.0987752
-0.105651
-0.112854
-0.120475
-0.128589
-0.137258
-0.146536
-0.156473
-0.167119
-0.178525
-0.190745
-0.203837
-0.217865
-0.232901
-0.24902
-0.266309
-0.284861
-0.304782
-0.326187
-0.349203
-0.373963
-0.400607
-0.429299
-0.46021
-0.493505
-0.529309
-0.567662
-0.608491
-0.651793
-0.698341
-0.751227
-0.818457
-0.916851
-1.07703
-1.34768
-1.79556
-2.48722
-3.43572
-4.5277
-5.49419
-6.03744
-6.09282
-5.83324
-5.58303
-5.28321
-3.93283
-0.0675306
-0.0760575
-0.0835501
-0.0908043
-0.098129
-0.105649
-0.113461
-0.121643
-0.130265
-0.139391
-0.149078
-0.159383
-0.170363
-0.182074
-0.194578
-0.207938
-0.222224
-0.237512
-0.253884
-0.271432
-0.290257
-0.310468
-0.332192
-0.355562
-0.380727
-0.407849
-0.43711
-0.468702
-0.502829
-0.539676
-0.579362
-0.621963
-0.667794
-0.718192
-0.777002
-0.852947
-0.963073
-1.13687
-1.41948
-1.87027
-2.54489
-3.44836
-4.46927
-5.35503
-5.83726
-5.84568
-5.5408
-5.15061
-4.51824
-2.91949
-0.0681364
-0.0767487
-0.0844678
-0.0920435
-0.0997403
-0.107657
-0.115867
-0.124438
-0.13343
-0.142902
-0.152913
-0.163521
-0.174783
-0.186762
-0.199521
-0.21313
-0.227663
-0.243201
-0.259832
-0.277653
-0.296773
-0.317311
-0.339399
-0.363184
-0.388828
-0.416512
-0.44644
-0.478833
-0.513922
-0.551927
-0.593046
-0.637542
-0.686111
-0.740668
-0.805654
-0.889979
-1.00972
-1.19106
-1.47185
-1.89867
-2.51141
-3.30665
-4.1852
-4.93425
-5.33042
-5.30216
-4.97156
-4.48874
-3.68077
-2.11691
-0.0700671
-0.0787032
-0.0865376
-0.0943086
-0.102249
-0.11044
-0.118942
-0.127809
-0.137097
-0.146859
-0.157152
-0.168034
-0.179564
-0.191805
-0.204826
-0.218699
-0.233501
-0.24932
-0.266248
-0.284391
-0.303863
-0.324793
-0.347324
-0.371616
-0.397848
-0.42622
-0.45696
-0.490316
-0.526556
-0.565961
-0.608852
-0.655747
-0.707767
-0.767358
-0.839289
-0.932088
-1.05987
-1.24395
-1.51285
-1.89866
-2.42503
-3.08104
-3.78394
-4.36776
-4.65849
-4.60591
-4.28369
-3.77905
-2.93994
-1.55487
-0.0727498
-0.0814099
-0.0893178
-0.0972262
-0.105345
-0.113744
-0.122474
-0.131582
-0.141116
-0.151129
-0.161675
-0.17281
-0.184596
-0.197096
-0.21038
-0.224526
-0.239614
-0.255736
-0.272992
-0.291493
-0.311364
-0.332742
-0.355784
-0.380667
-0.407588
-0.436774
-0.468484
-0.503008
-0.540673
-0.581862
-0.627085
-0.677171
-0.733667
-0.799425
-0.879259
-0.980791
-1.11545
-1.29903
-1.55086
-1.89046
-2.32887
-2.85071
-3.38933
-3.82158
-4.02181
-3.95262
-3.65372
-3.16232
-2.36037
-1.17984
-0.0757751
-0.084483
-0.0924566
-0.100481
-0.108747
-0.117317
-0.126237
-0.135549
-0.145298
-0.155534
-0.16631
-0.177681
-0.18971
-0.202462
-0.21601
-0.230433
-0.245817
-0.262258
-0.279864
-0.298753
-0.319058
-0.340932
-0.364545
-0.390092
-0.4178
-0.447926
-0.480775
-0.516702
-0.556125
-0.599572
-0.647785
-0.701931
-0.763948
-0.836962
-0.925537
-1.03597
-1.17658
-1.35761
-1.59046
-1.88552
-2.24629
-2.65674
-3.06441
-3.37901
-3.51191
-3.4308
-3.1522
-2.68027
-1.93256
-0.926455
-0.0788779
-0.0876553
-0.0956974
-0.103832
-0.112233
-0.120958
-0.130047
-0.139541
-0.149484
-0.159923
-0.170912
-0.182506
-0.194768
-0.207765
-0.221573
-0.236274
-0.251958
-0.268727
-0.286695
-0.305989
-0.326753
-0.349152
-0.373376
-0.399643
-0.42821
-0.459377
-0.493507
-0.531054
-0.572541
-0.618681
-0.670478
-0.729405
-0.797668
-0.878706
-0.976687
-1.09623
-1.24238
-1.42012
-1.63417
-1.88857
-2.18337
-2.50521
-2.81447
-3.04457
-3.12971
-3.03915
-2.77273
-2.31797
-1.62312
-0.749452
-0.0818691
-0.0907212
-0.0988331
-0.107079
-0.11561
-0.124478
-0.133722
-0.143381
-0.1535
-0.164126
-0.17531
-0.187112
-0.199593
-0.212824
-0.226882
-0.241853
-0.257832
-0.274926
-0.293257
-0.312961
-0.334191
-0.357128
-0.38198
-0.408991
-0.438453
-0.470714
-0.506182
-0.545467
-0.589166
-0.638192
-0.693806
-0.757721
-0.832252
-0.92147
-1.02898
-1.1577
-1.30966
-1.48499
-1.68268
-1.90191
-2.14136
-2.39201
-2.62619
-2.79515
-2.84648
-2.74832
-2.48844
-2.04907
-1.40137
-0.623368
-0.0846788
-0.0936521
-0.101865
-0.110239
-0.118906
-0.127917
-0.137311
-0.147128
-0.157413
-0.168215
-0.179585
-0.191583
-0.204273
-0.217727
-0.232024
-0.247254
-0.263517
-0.28092
-0.299587
-0.319675
-0.341337
-0.364768
-0.390196
-0.417886
-0.448162
-0.481398
-0.517996
-0.558983
-0.604723
-0.656418
-0.715574
-0.7843
-0.865476
-0.961617
-1.07617
-1.21195
-1.36893
-1.54337
-1.72976
-1.92349
-2.12184
-2.31884
-2.49617
-2.61903
-2.64501
-2.5399
-2.28318
-1.85716
-1.24877
-0.537199
-0.0868371
-0.0961143
-0.104444
-0.112941
-0.121729
-0.130865
-0.14039
-0.150344
-0.160774
-0.171727
-0.183257
-0.195424
-0.208293
-0.221937
-0.236435
-0.251881
-0.268378
-0.28603
-0.30499
-0.325459
-0.347496
-0.371344
-0.397246
-0.42549
-0.456413
-0.490452
-0.528203
-0.569928
-0.61694
-0.67032
-0.731645
-0.803076
-0.887393
-0.987592
-1.10672
-1.24669
-1.40639
-1.58056
-1.76303
-1.94689
-2.12657
-2.29532
-2.4382
-2.52866
-2.53273
-2.41795
-2.15894
-1.74019
-1.15864
-0.486905
-0.089438
-0.0992055
-0.107364
-0.115942
-0.124808
-0.134042
-0.143668
-0.153727
-0.164261
-0.175317
-0.18695
-0.199219
-0.212189
-0.225933
-0.240534
-0.256081
-0.272673
-0.290438
-0.309474
-0.32989
-0.351993
-0.375942
-0.401968
-0.430353
-0.461444
-0.495672
-0.533577
-0.575764
-0.62324
-0.677201
-0.739258
-0.811562
-0.896805
-0.998011
-1.11814
-1.2589
-1.4193
-1.59586
-1.78087
-1.96739
-2.14833
-2.31339
-2.44564
-2.52
-2.50689
-2.37868
-2.11281
-1.69005
-1.11684
-0.45484
-0.531163
1.9017
2.52312
2.91633
3.12892
3.2773
3.38005
3.45572
3.51243
3.55559
3.58873
3.61424
3.63388
3.64893
3.66038
3.66895
3.67521
3.67955
3.68229
3.68329
-0.819107
1.6157
2.40409
2.84158
3.08066
3.2441
3.35677
3.4392
3.5006
3.54707
3.58257
3.60978
3.63064
3.64657
3.65865
3.66767
3.67425
3.6788
3.68167
3.68272
-0.57568
1.43013
2.30423
2.76994
3.03435
3.21204
3.33444
3.42342
3.48937
3.53903
3.5768
3.60561
3.62762
3.64438
3.65705
3.6665
3.67336
3.67811
3.68111
3.6822
-0.284283
1.32156
2.22358
2.70409
2.99074
3.18154
3.31325
3.40851
3.47883
3.53153
3.57143
3.60176
3.62485
3.64238
3.65559
3.66542
3.67256
3.67749
3.6806
3.68172
-0.0943921
1.25282
2.15699
2.64513
2.95034
3.15297
3.29342
3.39461
3.46904
3.52461
3.56651
3.59824
3.62233
3.64056
3.65427
3.66446
3.67184
3.67693
3.68014
3.6813
0.0317443
1.21071
2.10012
2.59307
2.91339
3.12657
3.2751
3.3818
3.46008
3.5183
3.56205
3.59507
3.62006
3.63893
3.6531
3.6636
3.6712
3.67643
3.67973
3.68092
0.120042
1.18948
2.0513
2.54765
2.88005
3.10257
3.25842
3.37018
3.452
3.51265
3.55808
3.59227
3.61806
3.6375
3.65207
3.66285
3.67064
3.67601
3.67938
3.68059
0.176543
1.18147
2.01001
2.50857
2.85041
3.08112
3.24351
3.35984
3.44485
3.50768
3.55461
3.58983
3.61634
3.63628
3.65119
3.66221
3.67017
3.67564
3.67909
3.68032
0.21253
1.18003
1.97557
2.47545
2.82457
3.06237
3.23049
3.35086
3.43868
3.50344
3.55167
3.58778
3.6149
3.63526
3.65046
3.66169
3.66979
3.67535
3.67885
3.68009
0.240221
1.18165
1.94719
2.44792
2.80262
3.04644
3.21946
3.34332
3.43356
3.49994
3.54927
3.58613
3.61375
3.63445
3.64989
3.66128
3.66948
3.67512
3.67866
3.67992
0.265188
1.18471
1.92432
2.42571
2.78466
3.03347
3.21055
3.3373
3.42952
3.49723
3.54744
3.58488
3.6129
3.63386
3.64947
3.66098
3.66927
3.67495
3.67853
3.6798
0.287467
1.18817
1.90682
2.4088
2.77094
3.02369
3.20394
3.33293
3.42666
3.49535
3.5462
3.58405
3.61234
3.63348
3.64922
3.6608
3.66914
3.67486
3.67845
3.67973
0.305662
1.19203
1.89541
2.39784
2.76212
3.01759
3.19997
3.33041
3.42509
3.49438
3.54559
3.58367
3.6121
3.63333
3.64912
3.66074
3.6691
3.67483
3.67843
3.67972
0.322377
1.19862
1.89225
2.39436
2.7593
3.01587
3.19906
3.33001
3.42497
3.4944
3.54568
3.58378
3.6122
3.63342
3.6492
3.6608
3.66915
3.67487
3.67847
3.67977
0.34554
1.20721
1.89632
2.39716
2.76149
3.01767
3.20055
3.33122
3.42592
3.49514
3.54625
3.58421
3.61253
3.63367
3.64939
3.66094
3.66926
3.67496
3.67854
3.67986
)
;

boundaryField
{
    internal
    {
        type            internal;
    }
    movingWall
    {
        type            zeroGradient;
    }
    farFieldMoving
    {
        type            zeroGradient;
    }
    fixedWall
    {
        type            zeroGradient;
    }
    axis
    {
        type            empty;
    }
    left
    {
        type            totalPressure;
        rho             rho;
        psi             none;
        gamma           1;
        p0              uniform 0;
        value           nonuniform List<scalar> 
30
(
-0.112745
-0.111584
-0.109396
-0.106125
-0.101818
-0.0965485
-0.0904147
-0.0835395
-0.0760746
-0.0682014
-0.0601273
-0.0520773
-0.0442769
-0.0369293
-0.0301913
-0.0204258
-0.0108818
-0.00489559
-0.0016127
-0.000231376
0
0
0
0
0
0
0
0
0
0
)
;
    }
    farField
    {
        type            zeroGradient;
    }
    back
    {
        type            wedge;
    }
    front
    {
        type            wedge;
    }
}


// ************************************************************************* //
