/*--------------------------------*- C++ -*----------------------------------*\
  =========                 |
  \\      /  F ield         | OpenFOAM: The Open Source CFD Toolbox
   \\    /   O peration     | Website:  https://openfoam.org
    \\  /    A nd           | Version:  13
     \\/     M anipulation  |
\*---------------------------------------------------------------------------*/
FoamFile
{
    format      ascii;
    class       surfaceScalarField;
    location    "0.0004";
    object      phi;
}
// * * * * * * * * * * * * * * * * * * * * * * * * * * * * * * * * * * * * * //

dimensions      [0 3 -1 0 0 0 0];

internalField   nonuniform List<scalar> 
3252
(
3.94357e-11
-1.2351e-12
2.96132e-11
-3.74283e-12
2.23352e-11
-6.28706e-12
1.74832e-11
-8.71156e-12
1.4414e-11
-1.04841e-11
1.26356e-11
-1.17007e-11
9.36158e-12
-1.00019e-11
-5.11901e-12
1.17512e-10
-4.94879e-12
8.80546e-11
-1.49818e-11
6.62503e-11
-2.5178e-11
5.17672e-11
-3.49193e-11
4.32272e-11
-4.26043e-11
3.77058e-11
-4.66176e-11
2.94556e-11
-4.15771e-11
-1.91063e-11
1.93315e-10
-1.11393e-11
1.44262e-10
-3.37557e-11
1.08098e-10
-5.68392e-11
8.44327e-11
-7.9072e-11
7.12313e-11
-9.71704e-11
6.30036e-11
-1.05791e-10
5.02012e-11
-9.51424e-11
-4.13135e-11
2.65256e-10
-1.97982e-11
1.96629e-10
-6.00857e-11
1.46339e-10
-1.01505e-10
1.14213e-10
-1.41892e-10
9.77378e-11
-1.7557e-10
8.87946e-11
-1.91217e-10
7.22264e-11
-1.71472e-10
-7.04668e-11
3.31728e-10
-3.08832e-11
2.43487e-10
-9.39329e-11
1.79301e-10
-1.59406e-10
1.39674e-10
-2.24338e-10
1.22022e-10
-2.79903e-10
1.15443e-10
-3.05985e-10
9.65062e-11
-2.71945e-10
-1.0432e-10
3.91131e-10
-4.43053e-11
2.8312e-10
-1.3514e-10
2.05166e-10
-2.30669e-10
1.59152e-10
-3.27525e-10
1.43242e-10
-4.13087e-10
1.43667e-10
-4.54745e-10
1.24436e-10
-3.98613e-10
-1.39232e-10
4.41877e-10
-5.99037e-11
3.1373e-10
-1.83343e-10
2.21877e-10
-3.15162e-10
1.706e-10
-4.52576e-10
1.60341e-10
-5.79035e-10
1.74744e-10
-6.44483e-10
1.58156e-10
-5.54386e-10
-1.69427e-10
4.8241e-10
-7.74116e-11
3.33435e-10
-2.37849e-10
2.27039e-10
-4.12243e-10
1.71329e-10
-6.00323e-10
1.71715e-10
-7.82742e-10
2.1018e-10
-8.85301e-10
2.0037e-10
-7.43366e-10
-1.86426e-10
5.11266e-10
-9.64201e-11
3.40285e-10
-2.97479e-10
2.17804e-10
-5.20369e-10
1.57489e-10
-7.70593e-10
1.73781e-10
-1.02947e-09
2.48363e-10
-1.18927e-09
2.51546e-10
-9.71727e-10
-1.81284e-10
5.2715e-10
-1.16342e-10
3.32317e-10
-3.60388e-10
1.90682e-10
-6.36473e-10
1.23025e-10
-9.60649e-10
1.57047e-10
-1.32104e-09
2.74877e-10
-1.56355e-09
3.01171e-10
-1.24955e-09
-1.55573e-10
5.29054e-10
-1.3639e-10
3.07668e-10
-4.23874e-10
1.41463e-10
-7.55136e-10
5.85079e-11
-1.16254e-09
1.00576e-10
-1.64778e-09
2.50196e-10
-1.9967e-09
3.14957e-10
-1.59212e-09
-1.45153e-10
5.1639e-10
-1.55581e-10
2.64887e-10
-4.84374e-10
6.60178e-11
-8.68265e-10
-4.76832e-11
-1.36081e-09
-2.75513e-11
-1.97971e-09
1.13208e-10
-2.44811e-09
2.33151e-10
-2.01612e-09
-2.45643e-10
4.8915e-10
-1.72831e-10
2.036e-10
-5.37959e-10
-3.70448e-11
-9.6675e-10
-2.02536e-10
-1.53441e-09
-2.53621e-10
-2.26754e-09
-1.84718e-10
-2.85481e-09
-7.98844e-12
-2.52308e-09
-6.16403e-10
4.48058e-10
-1.87202e-10
1.25437e-10
-5.81603e-10
-1.63457e-10
-1.04412e-09
-4.00244e-10
-1.66386e-09
-5.70337e-10
-2.46349e-09
-6.40541e-10
-3.14955e-09
-4.55012e-10
-3.06492e-09
-1.46341e-09
3.94543e-10
-1.98259e-10
3.42718e-11
-6.14728e-10
-3.04134e-10
-1.0991e-09
-6.19366e-10
-1.74198e-09
-9.23165e-10
-2.55286e-09
-1.18512e-09
-3.27969e-09
-1.1145e-09
-3.52046e-09
-2.99658e-09
-2.59587e-11
7.88047e-11
-9.19268e-11
1.18992e-10
-1.64205e-10
1.26847e-10
-2.32964e-10
1.25261e-10
-2.96873e-10
1.22492e-10
-3.5348e-10
1.17364e-10
-4.00934e-10
1.10467e-10
-4.37714e-10
1.02133e-10
-4.62716e-10
9.27802e-11
-4.75265e-10
8.28458e-11
-4.75115e-10
7.2756e-11
-4.62397e-10
6.28967e-11
-4.37567e-10
5.35932e-11
-4.01331e-10
4.51009e-11
-3.5458e-10
3.76068e-11
-2.98329e-10
3.12401e-11
-2.33694e-10
2.61069e-11
-1.61958e-10
2.2376e-11
-8.45172e-11
2.01638e-11
1.63567e-11
-7.24904e-11
2.95215e-10
-2.62447e-10
4.53343e-10
-4.61028e-10
4.74039e-10
-6.54224e-10
4.72335e-10
-8.31616e-10
4.59434e-10
-9.87971e-10
4.39188e-10
-1.11815e-09
4.12262e-10
-1.21813e-09
3.80098e-10
-1.28506e-09
3.44304e-10
-1.31733e-09
3.06565e-10
-1.3145e-09
2.68486e-10
-1.27717e-09
2.31493e-10
-1.20676e-09
1.96766e-10
-1.10535e-09
1.6521e-10
-9.75468e-10
1.37472e-10
-8.19932e-10
1.13984e-10
-6.41789e-10
9.50957e-11
-4.44499e-10
8.1398e-11
-2.31836e-10
7.33268e-11
5.93112e-11
-1.23419e-10
6.34358e-10
-4.24375e-10
9.70679e-10
-7.38038e-10
1.01043e-09
-1.04011e-09
1.00504e-09
-1.31527e-09
9.7373e-10
-1.55527e-09
9.27198e-10
-1.75238e-09
8.66599e-10
-1.90093e-09
7.95421e-10
-1.99723e-09
7.17279e-10
-2.03956e-09
6.35845e-10
-2.02798e-09
5.54513e-10
-1.96403e-09
4.76211e-10
-1.85042e-09
4.03283e-10
-1.69066e-09
3.37471e-10
-1.48879e-09
2.7996e-10
-1.24916e-09
2.315e-10
-9.76335e-10
1.92681e-10
-6.75373e-10
1.6461e-10
-3.51695e-10
1.48084e-10
1.19612e-10
-1.81833e-10
1.08758e-09
-5.91896e-10
1.65282e-09
-1.0151e-09
1.71376e-09
-1.41772e-09
1.69774e-09
-1.77985e-09
1.63666e-09
-2.09086e-09
1.55017e-09
-2.34118e-09
1.44046e-09
-2.5245e-09
1.31429e-09
-2.63737e-09
1.17816e-09
-2.679e-09
1.03841e-09
-2.65081e-09
9.00666e-10
-2.55592e-09
7.69568e-10
-2.39866e-09
6.4869e-10
-2.18411e-09
5.40547e-10
-1.91775e-09
4.4674e-10
-1.6052e-09
3.6818e-10
-1.25215e-09
3.05557e-10
-8.64747e-10
2.60433e-10
-4.49391e-10
2.33898e-10
1.88596e-10
-2.51719e-10
1.65287e-09
-7.74011e-10
2.48928e-09
-1.30547e-09
2.56875e-09
-1.80345e-09
2.5308e-09
-2.24383e-09
2.42449e-09
-2.61433e-09
2.28101e-09
-2.90452e-09
2.10437e-09
-3.10877e-09
1.90614e-09
-3.22515e-09
1.69654e-09
-3.25492e-09
1.48511e-09
-3.20172e-09
1.27988e-09
-3.07083e-09
1.08714e-09
-2.86849e-09
9.11481e-10
-2.60141e-09
7.55883e-10
-2.27638e-09
6.22042e-10
-1.90001e-09
5.1073e-10
-1.47874e-09
4.22492e-10
-1.01928e-09
3.59164e-10
-5.28436e-10
3.21972e-10
2.59119e-10
-3.36323e-10
2.33372e-09
-9.77477e-10
3.47534e-09
-1.61814e-09
3.56469e-09
-2.20737e-09
3.48806e-09
-2.71741e-09
3.31614e-09
-3.13545e-09
3.09483e-09
-3.45159e-09
2.83099e-09
-3.66249e-09
2.54276e-09
-3.76918e-09
2.24475e-09
-3.77605e-09
1.94991e-09
-3.68973e-09
1.66849e-09
-3.51806e-09
1.40805e-09
-3.26935e-09
1.17365e-09
-2.95187e-09
9.68252e-10
-2.57346e-09
7.93165e-10
-2.1414e-09
6.4863e-10
-1.66252e-09
5.34733e-10
-1.1436e-09
4.53338e-10
-5.91376e-10
4.05599e-10
3.25777e-10
-4.38834e-10
3.13872e-09
-1.20804e-09
4.61078e-09
-1.95987e-09
4.6939e-09
-2.63575e-09
4.5549e-09
-3.20561e-09
4.2914e-09
-3.65779e-09
3.96748e-09
-3.98482e-09
3.5941e-09
-4.18758e-09
3.19779e-09
-4.27145e-09
2.79769e-09
-4.24499e-09
2.40995e-09
-4.11835e-09
2.0464e-09
-3.90211e-09
1.71511e-09
-3.60658e-09
1.42085e-09
-3.2413e-09
1.16587e-09
-2.81487e-09
9.50551e-10
-2.33489e-09
7.74157e-10
-1.80815e-09
6.35997e-10
-1.24117e-09
5.37693e-10
-6.40164e-10
4.80117e-10
3.84866e-10
-5.62969e-10
4.0818e-09
-1.47132e-09
5.89891e-09
-2.33609e-09
5.95019e-09
-3.09216e-09
5.71663e-09
-3.70969e-09
5.32959e-09
-4.1805e-09
4.87457e-09
-4.50206e-09
4.36813e-09
-4.68154e-09
3.84655e-09
-4.73003e-09
3.33289e-09
-4.66098e-09
2.84569e-09
-4.48825e-09
2.39721e-09
-4.22508e-09
1.99492e-09
-3.88343e-09
1.64236e-09
-3.47378e-09
1.3403e-09
-3.00505e-09
1.0876e-09
-2.48478e-09
8.82174e-10
-1.9194e-09
7.22243e-10
-1.3148e-09
6.0894e-10
-6.76419e-10
5.42672e-10
4.34171e-10
-7.13287e-10
5.18282e-09
-1.77321e-09
7.34583e-09
-2.75125e-09
7.32733e-09
-3.57794e-09
6.9569e-09
-4.22784e-09
6.40838e-09
-4.6994e-09
5.79093e-09
-4.99803e-09
5.12811e-09
-5.13929e-09
4.46627e-09
-5.14098e-09
3.83082e-09
-5.02174e-09
3.24112e-09
-4.799e-09
2.70826e-09
-4.48821e-09
2.23774e-09
-4.10252e-09
1.83085e-09
-3.65281e-09
1.48611e-09
-3.14792e-09
1.20035e-09
-2.59493e-09
9.69772e-10
-1.99962e-09
7.91317e-10
-1.36703e-09
6.65423e-10
-7.0158e-10
5.9189e-10
4.72674e-10
-8.9555e-10
6.46859e-09
-2.12017e-09
8.95947e-09
-3.20886e-09
8.81739e-09
-4.09231e-09
8.25633e-09
-4.75562e-09
7.50309e-09
-5.20774e-09
6.69048e-09
-5.46552e-09
5.84992e-09
-5.55451e-09
5.03655e-09
-5.49974e-09
4.27519e-09
-5.32484e-09
3.5839e-09
-5.05023e-09
2.97056e-09
-4.69291e-09
2.43729e-09
-4.26656e-09
1.98206e-09
-3.78193e-09
1.60049e-09
-3.24731e-09
1.28699e-09
-2.66904e-09
1.03585e-09
-2.05199e-09
8.42564e-10
-1.40021e-09
7.06753e-10
-7.16978e-10
6.27527e-10
5.00266e-10
-1.11728e-09
7.9744e-09
-2.51925e-09
1.07483e-08
-3.71135e-09
1.04088e-08
-4.63227e-09
9.5912e-09
-5.28616e-09
8.58628e-09
-5.69695e-09
7.54652e-09
-5.8963e-09
6.51105e-09
-5.9207e-09
5.53988e-09
-5.80214e-09
4.65336e-09
-5.56853e-09
3.86546e-09
-5.24233e-09
3.17867e-09
-4.84125e-09
2.59036e-09
-4.37877e-09
2.09432e-09
-3.86496e-09
1.68278e-09
-3.30721e-09
1.34749e-09
-2.71083e-09
1.08069e-09
-2.07967e-09
8.76436e-10
-1.41663e-09
7.33462e-10
-7.23872e-10
6.50146e-10
5.17468e-10
-1.38863e-09
9.74654e-09
-2.97802e-09
1.27191e-08
-4.25967e-09
1.20844e-08
-5.19244e-09
1.09323e-08
-5.81048e-09
9.62783e-09
-6.15727e-09
8.33255e-09
-6.28204e-09
7.09137e-09
-6.23199e-09
5.96232e-09
-6.04511e-09
4.9565e-09
-5.75226e-09
4.08083e-09
-5.37681e-09
3.33032e-09
-4.93617e-09
2.69641e-09
-4.44297e-09
2.16811e-09
-3.90612e-09
1.73399e-09
-3.33178e-09
1.38306e-09
-2.72407e-09
1.10555e-09
-2.08572e-09
8.94154e-10
-1.4185e-09
7.46693e-10
-7.23454e-10
6.60837e-10
5.25212e-10
-1.72392e-09
1.18463e-08
-3.50404e-09
1.48726e-08
-4.85278e-09
1.38189e-08
-5.76484e-09
1.22444e-08
-6.31783e-09
1.05956e-08
-6.57849e-09
9.02343e-09
-6.61504e-09
7.57413e-09
-6.48384e-09
6.29389e-09
-6.22708e-09
5.1797e-09
-5.87693e-09
4.22847e-09
-5.45633e-09
3.42599e-09
-4.9815e-09
2.75705e-09
-4.46356e-09
2.20552e-09
-3.9099e-09
1.75632e-09
-3.32526e-09
1.39581e-09
-2.71249e-09
1.11236e-09
-2.07314e-09
8.97414e-10
-1.40793e-09
7.47964e-10
-7.16851e-10
6.61004e-10
5.24645e-10
-2.14396e-09
1.43564e-08
-4.10402e-09
1.71958e-08
-5.48702e-09
1.55774e-08
-6.33883e-09
1.34856e-08
-6.79622e-09
1.14569e-08
-6.95072e-09
9.59679e-09
-6.88897e-09
7.94681e-09
-6.67343e-09
6.52891e-09
-6.34822e-09
5.32178e-09
-5.94487e-09
4.30978e-09
-5.4847e-09
3.46847e-09
-4.98182e-09
2.7755e-09
-4.44539e-09
2.20979e-09
-3.88104e-09
1.75276e-09
-3.29197e-09
1.38836e-09
-2.67976e-09
1.10338e-09
-2.04485e-09
8.88147e-10
-1.38694e-09
7.38947e-10
-7.05088e-10
6.5216e-10
5.17019e-10
-2.67402e-09
1.73853e-08
-4.78206e-09
1.96555e-08
-6.15546e-09
1.73145e-08
-6.90126e-09
1.46085e-08
-7.23326e-09
1.21801e-08
-7.26507e-09
1.00343e-08
-7.10043e-09
8.20298e-09
-6.79999e-09
6.66492e-09
-6.41049e-09
5.38492e-09
-5.95985e-09
4.32861e-09
-5.46654e-09
3.46206e-09
-4.94209e-09
2.75604e-09
-4.39338e-09
2.18484e-09
-3.82413e-09
1.72672e-09
-3.23601e-09
1.36364e-09
-2.62932e-09
1.08102e-09
-2.0035e-09
8.6837e-10
-1.35736e-09
7.21363e-10
-6.89131e-10
6.3585e-10
5.03571e-10
-3.34479e-09
2.10726e-08
-5.5384e-09
2.21879e-08
-6.84714e-09
1.89739e-08
-7.4367e-09
1.55619e-08
-7.61919e-09
1.27399e-08
-7.51463e-09
1.03211e-08
-7.24388e-09
8.33809e-09
-6.86441e-09
6.70638e-09
-6.41717e-09
5.37425e-09
-5.92643e-09
4.29065e-09
-5.40711e-09
3.41233e-09
-4.8677e-09
2.70368e-09
-4.31265e-09
2.13493e-09
-3.74381e-09
1.68179e-09
-3.16135e-09
1.32456e-09
-2.56444e-09
1.04768e-09
-1.95161e-09
8.40038e-10
-1.32089e-09
6.96862e-10
-6.69832e-10
6.13543e-10
4.85468e-10
-4.19509e-09
2.5597e-08
-6.38199e-09
2.47002e-08
-7.54648e-09
2.04753e-08
-7.93067e-09
1.62956e-08
-7.93436e-09
1.31061e-08
-7.69412e-09
1.04569e-08
-7.322e-09
8.35593e-09
-6.86992e-09
6.65875e-09
-6.37303e-09
5.29682e-09
-5.85015e-09
4.20282e-09
-5.31203e-09
3.32542e-09
-4.764e-09
2.62363e-09
-4.20811e-09
2.0644e-09
-3.64438e-09
1.62145e-09
-3.07166e-09
1.27393e-09
-2.4881e-09
1.0056e-09
-1.89142e-09
8.04977e-10
-1.27904e-09
6.66962e-10
-6.47953e-10
5.86584e-10
4.63775e-10
-5.24893e-09
3.11615e-08
-7.34555e-09
2.71082e-08
-8.22842e-09
2.16808e-08
-8.36381e-09
1.67657e-08
-8.17769e-09
1.32672e-08
-7.80214e-09
1.04414e-08
-7.33603e-09
8.26329e-09
-6.82104e-09
6.53109e-09
-6.28368e-09
5.16119e-09
-5.73686e-09
4.07264e-09
-5.18697e-09
3.20766e-09
-4.63622e-09
2.52106e-09
-4.08438e-09
1.97739e-09
-3.52985e-09
1.54902e-09
-2.97028e-09
1.21437e-09
-2.40294e-09
9.56854e-10
-1.82494e-09
7.64829e-10
-1.23315e-09
6.3302e-10
-6.2416e-10
5.56169e-10
4.39431e-10
-6.55888e-09
3.80219e-08
-8.41167e-09
2.92582e-08
-8.86708e-09
2.24443e-08
-8.72302e-09
1.69413e-08
-8.34022e-09
1.32159e-08
-7.8391e-09
1.02842e-08
-7.29024e-09
8.07108e-09
-6.72349e-09
6.33424e-09
-6.1553e-09
4.97663e-09
-5.59258e-09
3.90781e-09
-5.03747e-09
3.06522e-09
-4.48928e-09
2.40086e-09
-3.94574e-09
1.87774e-09
-3.40382e-09
1.46749e-09
-2.86015e-09
1.1482e-09
-2.31132e-09
9.03256e-10
-1.7539e-09
7.21038e-10
-1.18438e-09
5.96219e-10
-5.99026e-10
5.23336e-10
4.13244e-10
-7.65213e-09
4.59616e-08
-9.52159e-09
3.14103e-08
-9.41892e-09
2.2635e-08
-8.99322e-09
1.68201e-08
-8.41953e-09
1.2958e-08
-7.80847e-09
1.00007e-08
-7.19067e-09
7.793e-09
-6.58396e-09
6.07988e-09
-5.99441e-09
4.75252e-09
-5.42329e-09
3.71569e-09
-4.86884e-09
2.90385e-09
-4.32778e-09
2.26748e-09
-3.79609e-09
1.76889e-09
-3.26954e-09
1.37948e-09
-2.74395e-09
1.07745e-09
-2.21533e-09
8.46373e-10
-1.67986e-09
6.74833e-10
-1.13374e-09
5.57552e-10
-5.73072e-10
4.88974e-10
3.85881e-10
6.55277e-10
-2.14678e-10
-3.24195e-10
-6.58689e-10
-1.29065e-09
-1.15607e-09
-2.29066e-09
-1.76532e-09
-3.38144e-09
-2.48501e-09
-4.49559e-09
-3.18606e-09
-5.4019e-09
-3.62687e-09
-3.18487e-09
-6.13712e-09
2.22946e-10
-2.20446e-10
-9.39313e-10
-6.67573e-10
-2.12023e-09
-1.14629e-09
-3.37776e-09
-1.67886e-09
-4.77401e-09
-2.25945e-09
-6.30959e-09
-2.81898e-09
-7.89292e-09
-3.20796e-09
-3.0604e-09
-8.89063e-09
-2.7085e-10
-2.1997e-10
-1.6076e-09
-6.49677e-10
-2.97577e-09
-1.09697e-09
-4.40691e-09
-1.5665e-09
-5.94202e-09
-2.04281e-09
-7.59933e-09
-2.47834e-09
-9.32204e-09
-2.79268e-09
-2.76008e-09
-1.05889e-08
-7.95344e-10
-2.224e-10
-2.29752e-09
-6.14072e-10
-3.84221e-09
-1.01884e-09
-5.4442e-09
-1.43101e-09
-7.11895e-09
-1.83433e-09
-8.86458e-09
-2.19769e-09
-1.06239e-08
-2.48038e-09
-2.49282e-09
-1.19544e-08
-1.32256e-09
-2.36483e-10
-2.98521e-09
-5.65709e-10
-4.68776e-09
-9.30559e-10
-6.43796e-09
-1.29504e-09
-8.24316e-09
-1.64321e-09
-1.00962e-08
-1.95802e-09
-1.19518e-08
-2.21263e-09
-2.24874e-09
-1.33573e-08
-1.86762e-09
-2.47855e-10
-3.67745e-09
-5.1787e-10
-5.52972e-09
-8.40285e-10
-7.42514e-09
-1.16158e-09
-9.36451e-09
-1.46577e-09
-1.13415e-08
-1.74268e-09
-1.33095e-08
-1.97527e-09
-2.02376e-09
-1.47962e-08
-2.40649e-09
-2.44697e-10
-4.36035e-09
-4.73716e-10
-6.35685e-09
-7.53488e-10
-8.3956e-09
-1.03253e-09
-1.04739e-08
-1.29719e-09
-1.25856e-08
-1.54102e-09
-1.46842e-08
-1.75223e-09
-1.8066e-09
-1.62659e-08
-2.91387e-09
-2.27619e-10
-5.0189e-09
-4.26098e-10
-7.16404e-09
-6.65776e-10
-9.34889e-09
-9.05105e-10
-1.15705e-08
-1.13318e-09
-1.3824e-08
-1.34585e-09
-1.60646e-08
-1.5348e-09
-1.5908e-09
-1.77507e-08
-3.395e-09
-2.03014e-10
-5.65311e-09
-3.73128e-10
-7.94886e-09
-5.75158e-10
-1.02823e-08
-7.76831e-10
-1.2651e-08
-9.69886e-10
-1.50517e-08
-1.15175e-09
-1.74434e-08
-1.31698e-09
-1.37155e-09
-1.92422e-08
-3.85101e-09
-1.73576e-10
-6.26189e-09
-3.15093e-10
-8.70921e-09
-4.80691e-10
-1.11931e-08
-6.45813e-10
-1.37118e-08
-8.04391e-10
-1.62635e-08
-9.54958e-10
-1.88138e-08
-1.09463e-09
-1.14516e-09
-2.07329e-08
-4.27987e-09
-1.40532e-10
-6.84315e-09
-2.52371e-10
-9.44259e-09
-3.81831e-10
-1.20784e-08
-5.10657e-10
-1.47492e-08
-6.34517e-10
-1.74543e-08
-7.52865e-10
-2.01699e-08
-8.64943e-10
-9.08784e-10
-2.22167e-08
-4.67798e-09
-1.04415e-10
-7.39354e-09
-1.85088e-10
-1.01456e-08
-2.78099e-10
-1.29342e-08
-3.70328e-10
-1.57588e-08
-4.58719e-10
-1.86189e-08
-5.43757e-10
-2.15054e-08
-6.26339e-10
-6.60387e-10
-2.36872e-08
-5.02918e-09
-6.55031e-11
-7.8969e-09
-1.13346e-10
-1.08014e-08
-1.69597e-10
-1.37427e-08
-2.25105e-10
-1.67206e-08
-2.77331e-10
-1.97353e-08
-3.27886e-10
-2.27963e-08
-3.79747e-10
-4.00896e-10
-2.5118e-08
-5.20025e-09
-2.64049e-11
-8.21493e-09
-4.23692e-11
-1.12648e-08
-6.34492e-11
-1.43498e-08
-8.39181e-11
-1.74697e-08
-1.01754e-10
-2.06259e-08
-1.18058e-10
-2.38415e-08
-1.38006e-10
-1.51779e-10
-2.62962e-08
-4.45997e-09
-7.59375e-09
-1.07486e-08
-1.39241e-08
-1.71179e-08
-2.03301e-08
-2.35949e-08
-2.65041e-08
-5.48991e-09
-8.21524e-10
-5.30948e-09
-1.9719e-10
-5.20998e-09
-1.01703e-10
-5.14616e-09
-6.42253e-11
-5.10309e-09
-4.31468e-11
-5.07244e-09
-3.06686e-11
-5.04878e-09
-2.36639e-11
-5.02842e-09
-2.03599e-11
-5.00879e-09
-1.96275e-11
-4.98808e-09
-2.07052e-11
-4.96503e-09
-2.30521e-11
-4.93875e-09
-2.62777e-11
-4.90865e-09
-3.01054e-11
-4.87431e-09
-3.43409e-11
-4.83546e-09
-3.88491e-11
-4.79193e-09
-4.3526e-11
-4.74365e-09
-4.82854e-11
-4.69057e-09
-5.30797e-11
-4.63268e-09
-5.78818e-11
-4.57003e-09
-6.26578e-11
-4.50265e-09
-6.73799e-11
-4.43063e-09
-7.20205e-11
-4.35407e-09
-7.65597e-11
-4.27308e-09
-8.09833e-11
-4.18781e-09
-8.52724e-11
-4.09841e-09
-8.9402e-11
-4.00505e-09
-9.33602e-11
-3.90789e-09
-9.71569e-11
-3.80713e-09
-1.0076e-10
-3.70325e-09
-1.03883e-10
-3.59755e-09
-1.05696e-10
-3.4927e-09
-1.04859e-10
-3.39195e-09
-1.00749e-10
-3.29519e-09
-9.67578e-11
-3.18972e-09
-1.05464e-10
-3.03733e-09
-1.52399e-10
-2.76323e-09
-2.741e-10
-2.24786e-09
-5.15363e-10
-1.36684e-09
-8.81018e-10
-3.96417e-11
-1.3272e-09
1.65717e-09
-1.69681e-09
3.43598e-09
-1.77882e-09
4.82643e-09
-1.39044e-09
5.337e-09
-5.10575e-10
4.80085e-09
5.36154e-10
3.58854e-09
1.21231e-09
2.46826e-09
1.12027e-09
2.49299e-09
-2.47204e-11
2.45906e-09
3.39916e-11
8.76318e-09
-6.29764e-09
-9.30171e-09
-7.27644e-10
-9.41121e-09
-1.24533e-10
-9.50568e-09
-1.276e-11
-9.60065e-09
2.97119e-11
-9.69468e-09
5.06878e-11
-9.78701e-09
6.16273e-11
-9.87699e-09
6.63097e-11
-9.96405e-09
6.66907e-11
-1.00476e-08
6.39565e-11
-1.01272e-08
5.89063e-11
-1.02024e-08
5.20906e-11
-1.02726e-08
4.38948e-11
-1.03373e-08
3.45894e-11
-1.0396e-08
2.43587e-11
-1.04481e-08
1.33116e-11
-1.04931e-08
1.48928e-12
-1.05304e-08
-1.105e-11
-1.05593e-08
-2.41843e-11
-1.05793e-08
-3.78181e-11
-1.05901e-08
-5.19174e-11
-1.0591e-08
-6.64714e-11
-1.05815e-08
-8.14711e-11
-1.05612e-08
-9.69264e-11
-1.05293e-08
-1.12856e-10
-1.04853e-08
-1.29265e-10
-1.04285e-08
-1.46191e-10
-1.03581e-08
-1.63747e-10
-1.02733e-08
-1.82016e-10
-1.01734e-08
-2.00587e-10
-1.00595e-08
-2.17795e-10
-9.93467e-09
-2.30539e-10
-9.80296e-09
-2.36575e-10
-9.66239e-09
-2.41318e-10
-9.49053e-09
-2.68618e-10
-9.22613e-09
-3.69864e-10
-8.75774e-09
-6.20789e-10
-7.93629e-09
-1.09554e-09
-6.63418e-09
-1.81747e-09
-4.77763e-09
-2.73757e-09
-2.39576e-09
-3.70908e-09
3.1798e-10
-4.41055e-09
2.99965e-09
-4.46048e-09
5.13784e-09
-3.52864e-09
6.2605e-09
-1.63323e-09
6.15676e-09
6.39888e-10
5.0562e-09
2.31287e-09
3.60868e-09
2.5678e-09
1.79498e-09
1.78899e-09
-3.58912e-09
5.4186e-09
1.78574e-08
-1.26366e-08
-1.11981e-08
-4.79596e-10
-1.1417e-08
4.27172e-11
-1.15849e-08
1.46406e-10
-1.17351e-08
1.78258e-10
-1.1876e-08
1.91246e-10
-1.2011e-08
1.96608e-10
-1.2142e-08
1.97259e-10
-1.22698e-08
1.94473e-10
-1.23948e-08
1.89008e-10
-1.25173e-08
1.81405e-10
-1.26373e-08
1.72058e-10
-1.27546e-08
1.61259e-10
-1.28693e-08
1.49215e-10
-1.2981e-08
1.36076e-10
-1.30896e-08
1.21947e-10
-1.3195e-08
1.06894e-10
-1.3297e-08
9.09209e-11
-1.33952e-08
7.39901e-11
-1.34891e-08
5.60654e-11
-1.35781e-08
3.70875e-11
-1.36615e-08
1.69453e-11
-1.37385e-08
-4.49645e-12
-1.38081e-08
-2.7299e-11
-1.38694e-08
-5.15103e-11
-1.39214e-08
-7.73114e-11
-1.39625e-08
-1.05026e-10
-1.39913e-08
-1.35005e-10
-1.40062e-08
-1.67147e-10
-1.40067e-08
-2.00057e-10
-1.39936e-08
-2.30872e-10
-1.39662e-08
-2.57995e-10
-1.39139e-08
-2.88874e-10
-1.38034e-08
-3.51816e-10
-1.35671e-08
-5.04854e-10
-1.31058e-08
-8.31176e-10
-1.23116e-08
-1.41503e-09
-1.1103e-08
-2.30407e-09
-9.44269e-09
-3.47782e-09
-7.35486e-09
-4.8254e-09
-4.96392e-09
-6.10002e-09
-2.41708e-09
-6.95738e-09
7.44769e-12
-6.88501e-09
1.93383e-09
-5.45502e-09
3.00943e-09
-2.70883e-09
3.0942e-09
5.55119e-10
2.33941e-09
3.06766e-09
7.63068e-10
4.14415e-09
-3.08039e-09
5.63247e-09
-1.0221e-08
1.256e-08
2.42805e-08
-1.65961e-08
-1.25947e-08
-2.44868e-10
-1.28264e-08
2.08889e-10
-1.2995e-08
3.03309e-10
-1.31454e-08
3.26415e-10
-1.3287e-08
3.32356e-10
-1.34229e-08
3.32454e-10
-1.3555e-08
3.29302e-10
-1.36843e-08
3.23773e-10
-1.38116e-08
3.16317e-10
-1.39374e-08
3.07244e-10
-1.40621e-08
2.96792e-10
-1.4186e-08
2.85136e-10
-1.43092e-08
2.72403e-10
-1.44318e-08
2.58683e-10
-1.45539e-08
2.44032e-10
-1.46755e-08
2.28473e-10
-1.47965e-08
2.11981e-10
-1.4917e-08
1.94492e-10
-1.50369e-08
1.75914e-10
-1.51559e-08
1.56138e-10
-1.5274e-08
1.35029e-10
-1.53909e-08
1.12419e-10
-1.55063e-08
8.80606e-11
-1.56194e-08
6.15927e-11
-1.57292e-08
3.25008e-11
-1.58344e-08
1.3267e-13
-1.59334e-08
-3.59611e-11
-1.60251e-08
-7.54616e-11
-1.6108e-08
-1.17171e-10
-1.61778e-08
-1.6106e-10
-1.62212e-08
-2.1459e-10
-1.62073e-08
-3.02755e-10
-1.60831e-08
-4.76075e-10
-1.57803e-08
-8.07664e-10
-1.52361e-08
-1.3753e-09
-1.44159e-08
-2.23527e-09
-1.33189e-08
-3.40111e-09
-1.19657e-08
-4.83098e-09
-1.03898e-08
-6.40131e-09
-8.63113e-09
-7.85868e-09
-6.80885e-09
-8.77966e-09
-5.10031e-09
-8.59356e-09
-3.71812e-09
-6.8372e-09
-2.85365e-09
-3.5733e-09
-2.6571e-09
3.58568e-10
-3.31652e-09
3.72708e-09
-5.71903e-09
6.54666e-09
-1.07522e-08
1.06657e-08
-1.65524e-08
1.83614e-08
2.73236e-08
-1.95466e-08
-1.40135e-08
-3.76639e-11
-1.42421e-08
3.59542e-10
-1.43948e-08
4.41664e-10
-1.45273e-08
4.56087e-10
-1.4651e-08
4.55524e-10
-1.47695e-08
4.50877e-10
-1.48846e-08
4.44369e-10
-1.49973e-08
4.36535e-10
-1.51086e-08
4.27569e-10
-1.5219e-08
4.17596e-10
-1.53289e-08
4.06714e-10
-1.54387e-08
3.95001e-10
-1.55489e-08
3.82518e-10
-1.56595e-08
3.69298e-10
-1.57708e-08
3.55355e-10
-1.5883e-08
3.40679e-10
-1.59962e-08
3.25225e-10
-1.61107e-08
3.08915e-10
-1.62264e-08
2.91644e-10
-1.63435e-08
2.73278e-10
-1.64621e-08
2.53641e-10
-1.65822e-08
2.32497e-10
-1.67037e-08
2.09498e-10
-1.68262e-08
1.8414e-10
-1.69494e-08
1.5573e-10
-1.70727e-08
1.23442e-10
-1.71953e-08
8.65579e-11
-1.73154e-08
4.46595e-11
-1.74291e-08
-3.40718e-12
-1.75267e-08
-6.3519e-11
-1.75876e-08
-1.53676e-10
-1.75792e-08
-3.11176e-10
-1.74629e-08
-5.92392e-10
-1.72096e-08
-1.06097e-09
-1.6815e-08
-1.76989e-09
-1.63004e-08
-2.74982e-09
-1.56938e-08
-4.00773e-09
-1.50079e-08
-5.5169e-09
-1.42388e-08
-7.17039e-09
-1.33896e-08
-8.70782e-09
-1.2503e-08
-9.66628e-09
-1.16542e-08
-9.44243e-09
-1.09269e-08
-7.56443e-09
-1.04346e-08
-4.06567e-09
-1.04565e-08
3.80516e-10
-1.15863e-08
4.85692e-09
-1.43234e-08
9.2837e-09
-1.82802e-08
1.46225e-08
-2.13306e-08
2.14133e-08
2.73222e-08
-2.12795e-08
-1.5459e-08
1.34297e-10
-1.56719e-08
4.83936e-10
-1.58006e-08
5.53784e-10
-1.59089e-08
5.61085e-10
-1.60094e-08
5.55419e-10
-1.61056e-08
5.47029e-10
-1.61992e-08
5.37865e-10
-1.62909e-08
5.28256e-10
-1.63816e-08
5.18232e-10
-1.64717e-08
5.07787e-10
-1.6562e-08
4.96919e-10
-1.66526e-08
4.85628e-10
-1.6744e-08
4.73916e-10
-1.68365e-08
4.61775e-10
-1.69303e-08
4.49187e-10
-1.70257e-08
4.3612e-10
-1.7123e-08
4.22517e-10
-1.72224e-08
4.08298e-10
-1.73241e-08
3.93353e-10
-1.74284e-08
3.77536e-10
-1.75354e-08
3.60648e-10
-1.76453e-08
3.42412e-10
-1.77582e-08
3.22422e-10
-1.78742e-08
3.00083e-10
-1.7993e-08
2.74581e-10
-1.81145e-08
2.44919e-10
-1.82379e-08
2.09975e-10
-1.83613e-08
1.68098e-10
-1.84798e-08
1.15053e-10
-1.85828e-08
3.94509e-11
-1.86536e-08
-8.28736e-11
-1.86739e-08
-2.90834e-10
-1.86347e-08
-6.31632e-10
-1.85476e-08
-1.1481e-09
-1.84464e-08
-1.87107e-09
-1.83711e-08
-2.82512e-09
-1.8344e-08
-4.03484e-09
-1.83609e-08
-5.49999e-09
-1.84057e-08
-7.12556e-09
-1.84709e-08
-8.64267e-09
-1.85563e-08
-9.58081e-09
-1.86469e-08
-9.35183e-09
-1.8727e-08
-7.48432e-09
-1.88636e-08
-3.92913e-09
-1.92936e-08
8.10537e-10
-2.03675e-08
5.93079e-09
-2.21327e-08
1.10489e-08
-2.38273e-08
1.63172e-08
-2.40551e-08
2.16427e-08
2.51412e-08
-2.18236e-08
-1.69335e-08
2.70984e-10
-1.71255e-08
5.78995e-10
-1.72267e-08
6.3669e-10
-1.73075e-08
6.38363e-10
-1.7382e-08
6.29147e-10
-1.74533e-08
6.18285e-10
-1.75229e-08
6.07453e-10
-1.75915e-08
5.96851e-10
-1.76597e-08
5.86413e-10
-1.7728e-08
5.76053e-10
-1.77968e-08
5.65704e-10
-1.78665e-08
5.55315e-10
-1.79374e-08
5.44847e-10
-1.80099e-08
5.34264e-10
-1.80842e-08
5.23528e-10
-1.81607e-08
5.12596e-10
-1.82396e-08
5.0141e-10
-1.83212e-08
4.89893e-10
-1.84058e-08
4.77942e-10
-1.84937e-08
4.65417e-10
-1.85851e-08
4.52122e-10
-1.86805e-08
4.37773e-10
-1.878e-08
4.21949e-10
-1.8884e-08
4.04027e-10
-1.89925e-08
3.83147e-10
-1.91058e-08
3.58192e-10
-1.92235e-08
3.27632e-10
-1.9344e-08
2.88653e-10
-1.94637e-08
2.34752e-10
-1.95762e-08
1.51889e-10
-1.96747e-08
1.56551e-11
-1.97592e-08
-2.06348e-10
-1.98449e-08
-5.45879e-10
-1.99664e-08
-1.02664e-09
-2.01679e-08
-1.66956e-09
-2.04841e-08
-2.50889e-09
-2.09263e-08
-3.59263e-09
-2.14892e-08
-4.93712e-09
-2.21691e-08
-6.44567e-09
-2.29664e-08
-7.84531e-09
-2.38582e-08
-8.68904e-09
-2.47657e-08
-8.44439e-09
-2.5571e-08
-6.67896e-09
-2.61918e-08
-3.30839e-09
-2.66624e-08
1.28122e-09
-2.70587e-08
6.32706e-09
-2.72749e-08
1.12651e-08
-2.67914e-08
1.58337e-08
-2.49667e-08
1.98198e-08
2.17786e-08
-2.15526e-08
-1.84214e-08
3.72749e-10
-1.8588e-08
6.42752e-10
-1.86593e-08
6.88677e-10
-1.87109e-08
6.86236e-10
-1.87575e-08
6.75057e-10
-1.88025e-08
6.63085e-10
-1.88468e-08
6.51712e-10
-1.8891e-08
6.41049e-10
-1.89355e-08
6.30982e-10
-1.89809e-08
6.21388e-10
-1.90273e-08
6.12164e-10
-1.90752e-08
6.03234e-10
-1.91249e-08
5.94536e-10
-1.91767e-08
5.86022e-10
-1.92308e-08
5.77646e-10
-1.92876e-08
5.69367e-10
-1.93473e-08
5.61134e-10
-1.94103e-08
5.52886e-10
-1.94769e-08
5.44541e-10
-1.95475e-08
5.35986e-10
-1.96224e-08
5.27053e-10
-1.97021e-08
5.17496e-10
-1.97871e-08
5.06933e-10
-1.98779e-08
4.94803e-10
-1.9975e-08
4.80312e-10
-2.00792e-08
4.6237e-10
-2.01909e-08
4.39297e-10
-2.031e-08
4.07791e-10
-2.0436e-08
3.60728e-10
-2.05687e-08
2.84548e-10
-2.07119e-08
1.58846e-10
-2.0879e-08
-3.9192e-11
-2.10971e-08
-3.27779e-10
-2.14034e-08
-7.20303e-10
-2.18333e-08
-1.23968e-09
-2.24068e-08
-1.93541e-09
-2.3128e-08
-2.87145e-09
-2.3999e-08
-4.06606e-09
-2.50312e-08
-5.41352e-09
-2.62309e-08
-6.64557e-09
-2.75598e-08
-7.36018e-09
-2.88957e-08
-7.10849e-09
-3.00383e-08
-5.53637e-09
-3.07767e-08
-2.56996e-09
-3.09654e-08
1.46991e-09
-3.05613e-08
5.92292e-09
-2.94921e-08
1.01959e-08
-2.75911e-08
1.39328e-08
-2.47068e-08
1.69374e-08
1.81031e-08
-2.09791e-08
-1.99141e-08
4.40162e-10
-2.00512e-08
6.73937e-10
-2.00908e-08
7.08772e-10
-2.01121e-08
7.03742e-10
-2.01299e-08
6.92145e-10
-2.01474e-08
6.80425e-10
-2.01654e-08
6.69672e-10
-2.01843e-08
6.59938e-10
-2.02044e-08
6.51096e-10
-2.0226e-08
6.43014e-10
-2.02495e-08
6.35583e-10
-2.02749e-08
6.28719e-10
-2.03028e-08
6.22358e-10
-2.03332e-08
6.16454e-10
-2.03665e-08
6.10968e-10
-2.0403e-08
6.05869e-10
-2.0443e-08
6.0113e-10
-2.04868e-08
5.96716e-10
-2.05349e-08
5.92585e-10
-2.05876e-08
5.88671e-10
-2.06454e-08
5.84872e-10
-2.07089e-08
5.81018e-10
-2.07788e-08
5.76843e-10
-2.0856e-08
5.71937e-10
-2.09414e-08
5.65713e-10
-2.10363e-08
5.57332e-10
-2.11424e-08
5.45395e-10
-2.12617e-08
5.27029e-10
-2.13971e-08
4.96209e-10
-2.15548e-08
4.42235e-10
-2.17465e-08
3.5049e-10
-2.19921e-08
2.06455e-10
-2.2319e-08
-8.82238e-13
-2.27546e-08
-2.84715e-10
-2.3317e-08
-6.77325e-10
-2.40112e-08
-1.24118e-09
-2.4837e-08
-2.0456e-09
-2.58009e-08
-3.10224e-09
-2.69163e-08
-4.2981e-09
-2.81837e-08
-5.37813e-09
-2.95532e-08
-5.99073e-09
-3.08892e-08
-5.77245e-09
-3.19682e-08
-4.45743e-09
-3.25318e-08
-2.00635e-09
-3.23672e-08
1.3054e-09
-3.1399e-08
4.95471e-09
-2.96409e-08
8.43775e-09
-2.71529e-08
1.14449e-08
-2.40181e-08
1.38045e-08
1.46458e-08
-2.05078e-08
-2.14042e-08
4.74043e-10
-2.15077e-08
6.71836e-10
-2.15146e-08
6.96576e-10
-2.15049e-08
6.90465e-10
-2.14934e-08
6.79896e-10
-2.14828e-08
6.69714e-10
-2.14738e-08
6.60703e-10
-2.14668e-08
6.52877e-10
-2.14618e-08
6.46119e-10
-2.14591e-08
6.40309e-10
-2.14589e-08
6.35352e-10
-2.14613e-08
6.31175e-10
-2.14667e-08
6.27726e-10
-2.14752e-08
6.24973e-10
-2.14871e-08
6.22898e-10
-2.15028e-08
6.21493e-10
-2.15224e-08
6.20761e-10
-2.15464e-08
6.20711e-10
-2.15752e-08
6.21353e-10
-2.16092e-08
6.22695e-10
-2.1649e-08
6.24723e-10
-2.16954e-08
6.27387e-10
-2.17491e-08
6.30591e-10
-2.18114e-08
6.34164e-10
-2.18835e-08
6.37851e-10
-2.19675e-08
6.4127e-10
-2.20658e-08
6.43711e-10
-2.21823e-08
6.43542e-10
-2.23232e-08
6.37093e-10
-2.24987e-08
6.17775e-10
-2.27248e-08
5.76622e-10
-2.30225e-08
5.04082e-10
-2.34129e-08
3.89544e-10
-2.3911e-08
2.13351e-10
-2.45206e-08
-6.77157e-11
-2.52379e-08
-5.2386e-10
-2.60612e-08
-1.22229e-09
-2.69956e-08
-2.16784e-09
-2.80446e-08
-3.24913e-09
-2.91905e-08
-4.23217e-09
-3.03709e-08
-4.81039e-09
-3.14568e-08
-4.68648e-09
-3.22504e-08
-3.6639e-09
-3.25202e-08
-1.73651e-09
-3.20755e-08
8.60672e-10
-3.08518e-08
3.73099e-09
-2.8912e-08
6.49803e-09
-2.63923e-08
8.92515e-09
-2.34322e-08
1.08462e-08
1.15558e-08
-2.02883e-08
-2.28851e-08
4.75221e-10
-2.29509e-08
6.35942e-10
-2.2924e-08
6.52024e-10
-2.28832e-08
6.46341e-10
-2.2842e-08
6.38125e-10
-2.28031e-08
6.30644e-10
-2.27668e-08
6.24404e-10
-2.27333e-08
6.19394e-10
-2.27027e-08
6.15522e-10
-2.26751e-08
6.12697e-10
-2.26506e-08
6.1085e-10
-2.26294e-08
6.0993e-10
-2.26116e-08
6.09911e-10
-2.25974e-08
6.10781e-10
-2.2587e-08
6.12549e-10
-2.25808e-08
6.15238e-10
-2.25789e-08
6.18888e-10
-2.25817e-08
6.23548e-10
-2.25897e-08
6.29295e-10
-2.26032e-08
6.36218e-10
-2.26229e-08
6.44391e-10
-2.26494e-08
6.53896e-10
-2.26836e-08
6.64822e-10
-2.27267e-08
6.77259e-10
-2.27802e-08
6.91322e-10
-2.2846e-08
7.07151e-10
-2.29272e-08
7.24878e-10
-2.30282e-08
7.4449e-10
-2.31561e-08
7.65041e-10
-2.33224e-08
7.84045e-10
-2.35428e-08
7.97043e-10
-2.38354e-08
7.9664e-10
-2.42148e-08
7.68973e-10
-2.46883e-08
6.8687e-10
-2.5256e-08
4.99993e-10
-2.59179e-08
1.38035e-10
-2.66797e-08
-4.6053e-10
-2.75478e-08
-1.2997e-09
-2.85144e-08
-2.28259e-09
-2.95384e-08
-3.20813e-09
-3.05354e-08
-3.81334e-09
-3.13763e-08
-3.84567e-09
-3.18954e-08
-3.14474e-09
-3.19181e-08
-1.71383e-09
-3.13126e-08
2.55128e-10
-3.00403e-08
2.45876e-09
-2.81668e-08
4.62453e-09
-2.58149e-08
6.57323e-09
-2.3102e-08
8.13498e-09
8.74627e-09
-2.02379e-08
-2.43497e-08
4.44162e-10
-2.43729e-08