/*--------------------------------*- C++ -*----------------------------------*\
  =========                 |
  \\      /  F ield         | OpenFOAM: The Open Source CFD Toolbox
   \\    /   O peration     | Website:  https://openfoam.org
    \\  /    A nd           | Version:  13
     \\/     M anipulation  |
\*---------------------------------------------------------------------------*/
FoamFile
{
    format      ascii;
    class       pointScalarField;
    location    "0.0004";
    object      pointMotionUx;
}
// * * * * * * * * * * * * * * * * * * * * * * * * * * * * * * * * * * * * * //

dimensions      [0 1 -1 0 0 0 0];

internalField   nonuniform List<scalar> 
3608
(
0
0.124398
0.248795
0.373191
0.497572
0.62186
0.745465
0.86721
1
0
0.124398
0.248795
0.373191
0.497572
0.62186
0.745466
0.867209
1
0
0.124398
0.248795
0.373191
0.497572
0.621861
0.745472
0.867204
1
0
0.124398
0.248795
0.373191
0.497572
0.621862
0.745482
0.867195
1
0
0.124398
0.248795
0.373191
0.497573
0.621864
0.745497
0.867183
1
0
0.124398
0.248795
0.373191
0.497573
0.621866
0.745515
0.867168
1
0
0.124398
0.248795
0.373191
0.497573
0.621869
0.745538
0.867148
1
0
0.124398
0.248795
0.373191
0.497574
0.621872
0.745566
0.867125
1
0
0.124398
0.248795
0.373191
0.497574
0.621875
0.745597
0.867099
1
0
0.124398
0.248795
0.373191
0.497574
0.621879
0.745634
0.867068
1
0
0.124398
0.248795
0.373191
0.497575
0.621883
0.745675
0.867034
1
0
0.124398
0.248795
0.373191
0.497576
0.621887
0.745721
0.866997
1
0
0.124398
0.248795
0.373191
0.497576
0.621892
0.745772
0.866955
1
0
0.124398
0.248795
0.373191
0.497577
0.621896
0.745829
0.86691
1
0
0.124398
0.248795
0.373191
0.497577
0.6219
0.745865
0.866817
1
0
0.124398
0.248795
0.373192
0.497579
0.621909
0.745915
0.868382
1
0
0.124398
0.248795
0.373191
0.497572
0.62186
0.745466
0.867209
1
0
0.124398
0.248795
0.373191
0.497572
0.621861
0.745472
0.867204
1
0
0.124398
0.248795
0.373191
0.497572
0.621862
0.745482
0.867195
1
0
0.124398
0.248795
0.373191
0.497573
0.621864
0.745497
0.867183
1
0
0.124398
0.248795
0.373191
0.497573
0.621866
0.745515
0.867168
1
0
0.124398
0.248795
0.373191
0.497573
0.621869
0.745538
0.867148
1
0
0.124398
0.248795
0.373191
0.497574
0.621872
0.745566
0.867125
1
0
0.124398
0.248795
0.373191
0.497574
0.621875
0.745597
0.867099
1
0
0.124398
0.248795
0.373191
0.497574
0.621879
0.745634
0.867068
1
0
0.124398
0.248795
0.373191
0.497575
0.621883
0.745675
0.867034
1
0
0.124398
0.248795
0.373191
0.497576
0.621887
0.745721
0.866997
1
0
0.124398
0.248795
0.373191
0.497576
0.621892
0.745772
0.866955
1
0
0.124398
0.248795
0.373191
0.497577
0.621896
0.745829
0.86691
1
0
0.124398
0.248795
0.373191
0.497577
0.6219
0.745865
0.866817
1
0
0.124398
0.248795
0.373192
0.497579
0.621909
0.745915
0.868382
1
1
0.963955
0.927789
0.89057
0.852033
0.812077
0.770638
0.72766
0.683086
0.636858
0.588913
0.539187
0.487615
0.434126
0.378651
0.321115
0.261442
0.199553
0.135364
0.068793
0
1
0.963958
0.927794
0.890575
0.852039
0.812083
0.770644
0.727667
0.683094
0.636866
0.588921
0.539196
0.487623
0.434135
0.378661
0.321125
0.261452
0.199563
0.135375
0.0688039
0
1
0.963959
0.927801
0.890586
0.852051
0.812095
0.770657
0.727681
0.683108
0.636881
0.588937
0.539212
0.487641
0.434153
0.378679
0.321144
0.261472
0.199583
0.135395
0.0688251
0
1
0.963955
0.927807
0.890596
0.852063
0.812108
0.770671
0.727695
0.683123
0.636896
0.588953
0.539229
0.487658
0.434171
0.378698
0.321163
0.261492
0.199603
0.135416
0.0688456
0
1
0.963947
0.927813
0.890607
0.852075
0.812121
0.770685
0.727709
0.683138
0.636912
0.588969
0.539246
0.487675
0.434189
0.378716
0.321182
0.261511
0.199623
0.135435
0.0688652
0
1
0.963937
0.927818
0.890618
0.852088
0.812135
0.770699
0.727724
0.683153
0.636927
0.588985
0.539262
0.487692
0.434206
0.378734
0.3212
0.261529
0.199641
0.135454
0.0688837
0
1
0.963923
0.927823
0.890629
0.852101
0.812148
0.770713
0.727738
0.683168
0.636943
0.589001
0.539278
0.487709
0.434223
0.37875
0.321217
0.261546
0.199659
0.135472
0.0689011
0
1
0.963908
0.927827
0.89064
0.852113
0.812161
0.770726
0.727753
0.683183
0.636958
0.589016
0.539294
0.487724
0.434239
0.378767
0.321233
0.261563
0.199675
0.135488
0.0689172
0
1
0.963891
0.927831
0.890651
0.852126
0.812175
0.77074
0.727766
0.683197
0.636972
0.589031
0.539309
0.487739
0.434254
0.378782
0.321249
0.261578
0.19969
0.135503
0.0689321
0
1
0.963873
0.927836
0.890662
0.852138
0.812188
0.770753
0.72778
0.68321
0.636986
0.589045
0.539323
0.487753
0.434268
0.378796
0.321263
0.261592
0.199704
0.135517
0.0689457
0
1
0.963854
0.927839
0.890673
0.852151
0.8122
0.770766
0.727793
0.683223
0.636999
0.589058
0.539336
0.487767
0.434281
0.378809
0.321276
0.261605
0.199717
0.13553
0.0689581
0
1
0.963834
0.927843
0.890683
0.852162
0.812212
0.770778
0.727805
0.683236
0.637011
0.58907
0.539348
0.487779
0.434294
0.378821
0.321288
0.261617
0.199729
0.135542
0.0689693
0
1
0.963813
0.927847
0.890693
0.852173
0.812223
0.770789
0.727816
0.683247
0.637023
0.589081
0.539359
0.48779
0.434305
0.378832
0.321299
0.261628
0.19974
0.135552
0.0689794
0
1
0.963791
0.92785
0.890703
0.852184
0.812234
0.7708
0.727827
0.683258
0.637033
0.589092
0.53937
0.4878
0.434315
0.378842
0.321309
0.261638
0.199749
0.135562
0.0689885
0
1
0.96377
0.927853
0.890711
0.852193
0.812244
0.77081
0.727837
0.683267
0.637043
0.589101
0.539379
0.48781
0.434324
0.378852
0.321318
0.261646
0.199758
0.13557
0.0689966
0
1
0.963747
0.927856
0.89072
0.852202
0.812253
0.770819
0.727846
0.683276
0.637052
0.58911
0.539388
0.487818
0.434333
0.37886
0.321326
0.261654
0.199766
0.135578
0.0690038
0
1
0.963725
0.927858
0.890727
0.852211
0.812261
0.770827
0.727854
0.683284
0.63706
0.589118
0.539396
0.487826
0.43434
0.378867
0.321333
0.261661
0.199772
0.135584
0.0690101
0
1
0.963703
0.92786
0.890734
0.852218
0.812269
0.770834
0.727861
0.683292
0.637067
0.589125
0.539402
0.487833
0.434347
0.378873
0.321339
0.261667
0.199779
0.13559
0.0690157
0
1
0.96368
0.927862
0.890741
0.852225
0.812275
0.770841
0.727868
0.683298
0.637073
0.589131
0.539409
0.487839
0.434353
0.378879
0.321345
0.261673
0.199784
0.135595
0.0690207
0
1
0.963658
0.927863
0.890747
0.852231
0.812282
0.770847
0.727874
0.683304
0.637079
0.589137
0.539414
0.487844
0.434358
0.378884
0.32135
0.261678
0.199789
0.1356
0.0690251
0
1
0.963586
0.927871
0.890759
0.852244
0.812294
0.77086
0.727886
0.683316
0.63709
0.589148
0.539425
0.487854
0.434368
0.378894
0.321359
0.261687
0.199798
0.135609
0.0690333
0
1
0.963958
0.927794
0.890575
0.852039
0.812083
0.770644
0.727667
0.683094
0.636866
0.588921
0.539196
0.487623
0.434135
0.378661
0.321125
0.261452
0.199563
0.135375
0.0688039
0
1
0.963959
0.927801
0.890586
0.852051
0.812095
0.770657
0.727681
0.683108
0.636881
0.588937
0.539212
0.487641
0.434153
0.378679
0.321144
0.261472
0.199583
0.135395
0.0688251
0
1
0.963955
0.927807
0.890596
0.852063
0.812108
0.770671
0.727695
0.683123
0.636896
0.588953
0.539229
0.487658
0.434171
0.378698
0.321163
0.261492
0.199603
0.135416
0.0688456
0
1
0.963947
0.927813
0.890607
0.852075
0.812121
0.770685
0.727709
0.683138
0.636912
0.588969
0.539246
0.487675
0.434189
0.378716
0.321182
0.261511
0.199623
0.135435
0.0688652
0
1
0.963937
0.927818
0.890618
0.852088
0.812135
0.770699
0.727724
0.683153
0.636927
0.588985
0.539262
0.487692
0.434206
0.378734
0.3212
0.261529
0.199641
0.135454
0.0688837
0
1
0.963923
0.927823
0.890629
0.852101
0.812148
0.770713
0.727738
0.683168
0.636943
0.589001
0.539278
0.487709
0.434223
0.37875
0.321217
0.261546
0.199659
0.135472
0.0689011
0
1
0.963908
0.927827
0.89064
0.852113
0.812161
0.770726
0.727753
0.683183
0.636958
0.589016
0.539294
0.487724
0.434239
0.378767
0.321233
0.261563
0.199675
0.135488
0.0689172
0
1
0.963891
0.927831
0.890651
0.852126
0.812175
0.77074
0.727766
0.683197
0.636972
0.589031
0.539309
0.487739
0.434254
0.378782
0.321249
0.261578
0.19969
0.135503
0.0689321
0
1
0.963873
0.927836
0.890662
0.852138
0.812188
0.770753
0.72778
0.68321
0.636986
0.589045
0.539323
0.487753
0.434268
0.378796
0.321263
0.261592
0.199704
0.135517
0.0689457
0
1
0.963854
0.927839
0.890673
0.852151
0.8122
0.770766
0.727793
0.683223
0.636999
0.589058
0.539336
0.487767
0.434281
0.378809
0.321276
0.261605
0.199717
0.13553
0.0689581
0
1
0.963834
0.927843
0.890683
0.852162
0.812212
0.770778
0.727805
0.683236
0.637011
0.58907
0.539348
0.487779
0.434294
0.378821
0.321288
0.261617
0.199729
0.135542
0.0689693
0
1
0.963813
0.927847
0.890693
0.852173
0.812223
0.770789
0.727816
0.683247
0.637023
0.589081
0.539359
0.48779
0.434305
0.378832
0.321299
0.261628
0.19974
0.135552
0.0689794
0
1
0.963791
0.92785
0.890703
0.852184
0.812234
0.7708
0.727827
0.683258
0.637033
0.589092
0.53937
0.4878
0.434315
0.378842
0.321309
0.261638
0.199749
0.135562
0.0689885
0
1
0.96377
0.927853
0.890711
0.852193
0.812244
0.77081
0.727837
0.683267
0.637043
0.589101
0.539379
0.48781
0.434324
0.378852
0.321318
0.261646
0.199758
0.13557
0.0689966
0
1
0.963747
0.927856
0.89072
0.852202
0.812253
0.770819
0.727846
0.683276
0.637052
0.58911
0.539388
0.487818
0.434333
0.37886
0.321326
0.261654
0.199766
0.135578
0.0690038
0
1
0.963725
0.927858
0.890727
0.852211
0.812261
0.770827
0.727854
0.683284
0.63706
0.589118
0.539396
0.487826
0.43434
0.378867
0.321333
0.261661
0.199772
0.135584
0.0690101
0
1
0.963703
0.92786
0.890734
0.852218
0.812269
0.770834
0.727861
0.683292
0.637067
0.589125
0.539402
0.487833
0.434347
0.378873
0.321339
0.261667
0.199779
0.13559
0.0690157
0
1
0.96368
0.927862
0.890741
0.852225
0.812275
0.770841
0.727868
0.683298
0.637073
0.589131
0.539409
0.487839
0.434353
0.378879
0.321345
0.261673
0.199784
0.135595
0.0690207
0
1
0.963658
0.927863
0.890747
0.852231
0.812282
0.770847
0.727874
0.683304
0.637079
0.589137
0.539414
0.487844
0.434358
0.378884
0.32135
0.261678
0.199789
0.1356
0.0690251
0
1
0.963586
0.927871
0.890759
0.852244
0.812294
0.77086
0.727886
0.683316
0.63709
0.589148
0.539425
0.487854
0.434368
0.378894
0.321359
0.261687
0.199798
0.135609
0.0690333
0
0
0.124398
0.248795
0.373192
0.497581
0.621924
0.746004
0.869698
0.963493
0
0.124398
0.248796
0.373192
0.497582
0.621937
0.746089
0.869762
0.961519
0
0.124398
0.248796
0.373193
0.497584
0.621951
0.746179
0.86916
0.959761
0
0.124398
0.248796
0.373193
0.497586
0.621964
0.74626
0.868768
0.958544
0
0.124398
0.248796
0.373193
0.497588
0.621976
0.746328
0.868559
0.95779
0
0.124398
0.248796
0.373194
0.49759
0.621987
0.746386
0.868521
0.95745
0
0.124398
0.248796
0.373194
0.497592
0.621997
0.746434
0.868643
0.957486
0
0.124398
0.248796
0.373194
0.497594
0.622005
0.746474
0.868914
0.957869
0
0.124398
0.248796
0.373194
0.497595
0.622011
0.746506
0.869325
0.958579
0
0.124398
0.248796
0.373195
0.497596
0.622015
0.74653
0.869867
0.959601
0
0.124398
0.248796
0.373195
0.497597
0.622018
0.746543
0.870532
0.960926
0
0.124398
0.248796
0.373195
0.497598
0.62202
0.746544
0.871309
0.962545
0
0.124398
0.248796
0.373195
0.497598
0.622021
0.746542
0.872203
0.964463
0
0.124398
0.248796
0.373195
0.497599
0.622022
0.746528
0.872213
0.966351
0
0.124398
0.248796
0.373195
0.497599
0.622021
0.746533
0.872494
1
0
0.124398
0.248795
0.373192
0.497581
0.621924
0.746004
0.869698
0.963493
0
0.124398
0.248796
0.373192
0.497582
0.621937
0.746089
0.869762
0.961519
0
0.124398
0.248796
0.373193
0.497584
0.621951
0.746179
0.86916
0.959761
0
0.124398
0.248796
0.373193
0.497586
0.621964
0.74626
0.868768
0.958544
0
0.124398
0.248796
0.373193
0.497588
0.621976
0.746328
0.868559
0.95779
0
0.124398
0.248796
0.373194
0.49759
0.621987
0.746386
0.868521
0.95745
0
0.124398
0.248796
0.373194
0.497592
0.621997
0.746434
0.868643
0.957486
0
0.124398
0.248796
0.373194
0.497594
0.622005
0.746474
0.868914
0.957869
0
0.124398
0.248796
0.373194
0.497595
0.622011
0.746506
0.869325
0.958579
0
0.124398
0.248796
0.373195
0.497596
0.622015
0.74653
0.869867
0.959601
0
0.124398
0.248796
0.373195
0.497597
0.622018
0.746543
0.870532
0.960926
0
0.124398
0.248796
0.373195
0.497598
0.62202
0.746544
0.871309
0.962545
0
0.124398
0.248796
0.373195
0.497598
0.622021
0.746542
0.872203
0.964463
0
0.124398
0.248796
0.373195
0.497599
0.622022
0.746528
0.872213
0.966351
0
0.124398
0.248796
0.373195
0.497599
0.622021
0.746533
0.872494
1
1
1
1
1
1
1
1
1
1
1
1
1
1
1
1
1
1
1
1
1
1
1
1
1
1
1
1
1
1
1
1
1
1
1
1
1
1
1
1
1
1
1
1
1
1
1
1
1
1
0.996457
0.999526
0.999913
0.999984
0.999997
0.999999
1
1
1
1
1
1
1
1
1
1
1
1
1
1
1
1
1
1
1
1
1
1
1
1
1
1
1
1
1
1
1
1
1
1
1
1
1
1
1
1
1
0.999998
0.999928
0.992208
0.99492
0.999175
0.999845
0.999971
0.999994
0.999999
1
1
1
1
1
1
1
1
1
1
1
1
1
1
1
1
1
1
1
1
1
1
1
1
1
1
1
1
1
1
1
1
1
1
1
1
1
1
1
1
1
0.999997
0.999869
0.992078
0.993762
0.998903
0.999791
0.99996
0.999992
0.999999
1
1
1
1
1
1
1
1
1
1
1
1
1
1
1
1
1
1
1
1
1
1
1
1
1
1
1
1
1
1
1
1
1
1
1
1
1
1
1
1
1
0.999995
0.999821
0.992021
0.992943
0.998703
0.99975
0.999952
0.999991
0.999998
1
1
1
1
1
1
1
1
1
1
1
1
1
1
1
1
1
1
1
1
1
1
1
1
1
1
1
1
1
1
1
1
1
1
1
1
1
1
1
1
1
0.999994
0.999782
0.991976
0.992418
0.998572
0.999723
0.999947
0.99999
0.999998
1
1
1
1
1
1
1
1
1
1
1
1
1
1
1
1
1
1
1
1
1
1
1
1
1
1
1
1
1
1
1
1
1
1
1
1
1
1
1
1
1
0.999993
0.999754
0.991942
0.992155
0.998505
0.999708
0.999944
0.999989
0.999998
1
1
1
1
1
1
1
1
1
1
1
1
1
1
1
1
1
1
1
1
1
1
1
1
1
1
1
1
1
1
1
1
1
1
1
1
1
1
1
1
1
0.999992
0.999736
0.991921
0.992129
0.998497
0.999707
0.999943
0.999989
0.999998
1
1
1
1
1
1
1
1
1
1
1
1
1
1
1
1
1
1
1
1
1
1
1
1
1
1
1
1
1
1
1
1
1
1
1
1
1
1
1
1
1
0.999992
0.999728
0.991912
0.992323
0.998544
0.999717
0.999945
0.99999
0.999998
1
1
1
1
1
1
1
1
1
1
1
1
1
1
1
1
1
1
1
1
1
1
1
1
1
1
1
1
1
1
1
1
1
1
1
1
1
1
1
1
1
0.999992
0.999729
0.991914
0.992722
0.998641
0.999737
0.999949
0.99999
0.999998
1
1
1
1
1
1
1
1
1
1
1
1
1
1
1
1
1
1
1
1
1
1
1
1
1
1
1
1
1
1
1
1
1
1
1
1
1
1
1
1
1
0.999993
0.999739
0.991927
0.993314
0.998785
0.999767
0.999955
0.999992
0.999998
1
1
1
1
1
1
1
1
1
1
1
1
1
1
1
1
1
1
1
1
1
1
1
1
1
1
1
1
1
1
1
1
1
1
1
1
1
1
1
1
1
0.999993
0.999759
0.991951
0.994092
0.99897
0.999805
0.999963
0.999993
0.999999
1
1
1
1
1
1
1
1
1
1
1
1
1
1
1
1
1
1
1
1
1
1
1
1
1
1
1
1
1
1
1
1
1
1
1
1
1
1
1
1
1
0.999994
0.999788
0.991987
0.995048
0.99919
0.999849
0.999971
0.999995
0.999999
1
1
1
1
1
1
1
1
1
1
1
1
1
1
1
1
1
1
1
1
1
1
1
1
1
1
1
1
1
1
1
1
1
1
1
1
1
1
1
1
1
0.999995
0.999826
0.992034
0.996178
0.999441
0.999898
0.999981
0.999996
0.999999
1
1
1
1
1
1
1
1
1
1
1
1
1
1
1
1
1
1
1
1
1
1
1
1
1
1
1
1
1
1
1
1
1
1
1
1
1
1
1
1
1
0.999997
0.999873
0.992092
0.997446
0.999713
0.999949
0.99999
0.999998
1
1
1
1
1
1
1
1
1
1
1
1
1
1
1
1
1
1
1
1
1
1
1
1
1
1
1
1
1
1
1
1
1
1
1
1
1
1
1
1
1
1
0.999998
0.999929
0.992229
1
1
1
1
1
1
1
1
1
1
1
1
1
1
1
1
1
1
1
1
1
1
1
1
1
1
1
1
1
1
1
1
1
1
1
1
1
1
1
1
1
1
1
1
1
1
1
1
1
1
1
1
1
1
1
1
1
1
1
1
1
1
1
1
1
1
1
1
1
1
1
1
1
1
1
1
1
1
1
1
1
1
1
1
1
1
1
1
1
1
1
1
1
1
1
1
1
1
1
0.996457
0.999526
0.999913
0.999984
0.999997
0.999999
1
1
1
1
1
1
1
1
1
1
1
1
1
1
1
1
1
1
1
1
1
1
1
1
1
1
1
1
1
1
1
1
1
1
1
1
1
1
1
1
1
0.999998
0.999928
0.992208
0.99492
0.999175
0.999845
0.999971
0.999994
0.999999
1
1
1
1
1
1
1
1
1
1
1
1
1
1
1
1
1
1
1
1
1
1
1
1
1
1
1
1
1
1
1
1
1
1
1
1
1
1
1
1
1
0.999997
0.999869
0.992078
0.993762
0.998903
0.999791
0.99996
0.999992
0.999999
1
1
1
1
1
1
1
1
1
1
1
1
1
1
1
1
1
1
1
1
1
1
1
1
1
1
1
1
1
1
1
1
1
1
1
1
1
1
1
1
1
0.999995
0.999821
0.992021
0.992943
0.998703
0.99975
0.999952
0.999991
0.999998
1
1
1
1
1
1
1
1
1
1
1
1
1
1
1
1
1
1
1
1
1
1
1
1
1
1
1
1
1
1
1
1
1
1
1
1
1
1
1
1
1
0.999994
0.999782
0.991976
0.992418
0.998572
0.999723
0.999947
0.99999
0.999998
1
1
1
1
1
1
1
1
1
1
1
1
1
1
1
1
1
1
1
1
1
1
1
1
1
1
1
1
1
1
1
1
1
1
1
1
1
1
1
1
1
0.999993
0.999754
0.991942
0.992155
0.998505
0.999708
0.999944
0.999989
0.999998
1
1
1
1
1
1
1
1
1
1
1
1
1
1
1
1
1
1
1
1
1
1
1
1
1
1
1
1
1
1
1
1
1
1
1
1
1
1
1
1
1
0.999992
0.999736
0.991921
0.992129
0.998497
0.999707
0.999943
0.999989
0.999998
1
1
1
1
1
1
1
1
1
1
1
1
1
1
1
1
1
1
1
1
1
1
1
1
1
1
1
1
1
1
1
1
1
1
1
1
1
1
1
1
1
0.999992
0.999728
0.991912
0.992323
0.998544
0.999717
0.999945
0.99999
0.999998
1
1
1
1
1
1
1
1
1
1
1
1
1
1
1
1
1
1
1
1
1
1
1
1
1
1
1
1
1
1
1
1
1
1
1
1
1
1
1
1
1
0.999992
0.999729
0.991914
0.992722
0.998641
0.999737
0.999949
0.99999
0.999998
1
1
1
1
1
1
1
1
1
1
1
1
1
1
1
1
1
1
1
1
1
1
1
1
1
1
1
1
1
1
1
1
1
1
1
1
1
1
1
1
1
0.999993
0.999739
0.991927
0.993314
0.998785
0.999767
0.999955
0.999992
0.999998
1
1
1
1
1
1
1
1
1
1
1
1
1
1
1
1
1
1
1
1
1
1
1
1
1
1
1
1
1
1
1
1
1
1
1
1
1
1
1
1
1
0.999993
0.999759
0.991951
0.994092
0.99897
0.999805
0.999963
0.999993
0.999999
1
1
1
1
1
1
1
1
1
1
1
1
1
1
1
1
1
1
1
1
1
1
1
1
1
1
1
1
1
1
1
1
1
1
1
1
1
1
1
1
1
0.999994
0.999788
0.991987
0.995048
0.99919
0.999849
0.999971
0.999995
0.999999
1
1
1
1
1
1
1
1
1
1
1
1
1
1
1
1
1
1
1
1
1
1
1
1
1
1
1
1
1
1
1
1
1
1
1
1
1
1
1
1
1
0.999995
0.999826
0.992034
0.996178
0.999441
0.999898
0.999981
0.999996
0.999999
1
1
1
1
1
1
1
1
1
1
1
1
1
1
1
1
1
1
1
1
1
1
1
1
1
1
1
1
1
1
1
1
1
1
1
1
1
1
1
1
1
0.999997
0.999873
0.992092
0.997446
0.999713
0.999949
0.99999
0.999998
1
1
1
1
1
1
1
1
1
1
1
1
1
1
1
1
1
1
1
1
1
1
1
1
1
1
1
1
1
1
1
1
1
1
1
1
1
1
1
1
1
1
0.999998
0.999929
0.992229
1
1
1
1
1
1
1
1
1
1
1
1
1
1
1
1
1
1
1
1
1
1
1
1
1
1
1
1
1
1
1
1
1
1
1
1
1
1
1
1
1
1
1
1
1
1
1
1
1
1
0.963463
0.927876
0.890768
0.852253
0.812303
0.770868
0.727894
0.683324
0.637099
0.589156
0.539433
0.487862
0.434375
0.378902
0.321367
0.261694
0.199804
0.135615
0.0690394
0
0.963377
0.927872
0.890768
0.852254
0.812304
0.770869
0.727895
0.683324
0.637099
0.589156
0.539433
0.487862
0.434376
0.378902
0.321367
0.261694
0.199804
0.135615
0.0690395
0
0.963351
0.927869
0.890768
0.852253
0.812304
0.770869
0.727895
0.683324
0.637099
0.589156
0.539433
0.487862
0.434376
0.378902
0.321367
0.261694
0.199804
0.135615
0.0690395
0
0.96333
0.927867
0.890767
0.852253
0.812304
0.770869
0.727895
0.683324
0.637099
0.589156
0.539433
0.487862
0.434376
0.378902
0.321367
0.261694
0.199804
0.135615
0.0690395
0
0.963311
0.927864
0.890767
0.852253
0.812304
0.770869
0.727895
0.683324
0.637099
0.589156
0.539433
0.487862
0.434376
0.378902
0.321367
0.261694
0.199804
0.135615
0.0690395
0
0.963296
0.927862
0.890767
0.852253
0.812304
0.770869
0.727895
0.683324
0.637099
0.589156
0.539433
0.487862
0.434376
0.378902
0.321367
0.261694
0.199804
0.135615
0.0690395
0
0.963284
0.92786
0.890767
0.852253
0.812304
0.770869
0.727895
0.683324
0.637099
0.589156
0.539433
0.487862
0.434376
0.378902
0.321367
0.261694
0.199804
0.135615
0.0690395
0
0.963275
0.927858
0.890766
0.852253
0.812304
0.770869
0.727895
0.683324
0.637099
0.589156
0.539433
0.487862
0.434376
0.378902
0.321367
0.261694
0.199804
0.135615
0.0690395
0
0.963268
0.927857
0.890766
0.852253
0.812304
0.770869
0.727895
0.683324
0.637099
0.589156
0.539433
0.487862
0.434376
0.378902
0.321367
0.261694
0.199804
0.135615
0.0690395
0
0.963265
0.927856
0.890766
0.852253
0.812304
0.770869
0.727895
0.683324
0.637099
0.589156
0.539433
0.487862
0.434376
0.378902
0.321367
0.261694
0.199804
0.135615
0.0690395
0
0.963265
0.927855
0.890766
0.852253
0.812304
0.770869
0.727895
0.683324
0.637099
0.589156
0.539433
0.487862
0.434376
0.378902
0.321367
0.261694
0.199804
0.135615
0.0690395
0
0.963268
0.927854
0.890766
0.852253
0.812304
0.770869
0.727895
0.683324
0.637099
0.589156
0.539433
0.487862
0.434376
0.378902
0.321367
0.261694
0.199804
0.135615
0.0690395
0
0.963274
0.927854
0.890766
0.852253
0.812303
0.770869
0.727895
0.683324
0.637099
0.589156
0.539433
0.487862
0.434376
0.378902
0.321367
0.261694
0.199804
0.135615
0.0690395
0
0.963338
0.927852
0.890764
0.852251
0.812301
0.770866
0.727892
0.683322
0.637096
0.589153
0.53943
0.487859
0.434372
0.378898
0.321363
0.261691
0.199801
0.135612
0.0690369
0
0.96334
0.927784
0.890689
0.852173
0.81222
0.770782
0.727805
0.683231
0.637003
0.589057
0.539331
0.487757
0.434268
0.378791
0.321254
0.261579
0.199687
0.135496
0.0689198
0
0.963463
0.927876
0.890768
0.852253
0.812303
0.770868
0.727894
0.683324
0.637099
0.589156
0.539433
0.487862
0.434375
0.378902
0.321367
0.261694
0.199804
0.135615
0.0690394
0
0.963377
0.927872
0.890768
0.852254
0.812304
0.770869
0.727895
0.683324
0.637099
0.589156
0.539433
0.487862
0.434376
0.378902
0.321367
0.261694
0.199804
0.135615
0.0690395
0
0.963351
0.927869
0.890768
0.852253
0.812304
0.770869
0.727895
0.683324
0.637099
0.589156
0.539433
0.487862
0.434376
0.378902
0.321367
0.261694
0.199804
0.135615
0.0690395
0
0.96333
0.927867
0.890767
0.852253
0.812304
0.770869
0.727895
0.683324
0.637099
0.589156
0.539433
0.487862
0.434376
0.378902
0.321367
0.261694
0.199804
0.135615
0.0690395
0
0.963311
0.927864
0.890767
0.852253
0.812304
0.770869
0.727895
0.683324
0.637099
0.589156
0.539433
0.487862
0.434376
0.378902
0.321367
0.261694
0.199804
0.135615
0.0690395
0
0.963296
0.927862
0.890767
0.852253
0.812304
0.770869
0.727895
0.683324
0.637099
0.589156
0.539433
0.487862
0.434376
0.378902
0.321367
0.261694
0.199804
0.135615
0.0690395
0
0.963284
0.92786
0.890767
0.852253
0.812304
0.770869
0.727895
0.683324
0.637099
0.589156
0.539433
0.487862
0.434376
0.378902
0.321367
0.261694
0.199804
0.135615
0.0690395
0
0.963275
0.927858
0.890766
0.852253
0.812304
0.770869
0.727895
0.683324
0.637099
0.589156
0.539433
0.487862
0.434376
0.378902
0.321367
0.261694
0.199804
0.135615
0.0690395
0
0.963268
0.927857
0.890766
0.852253
0.812304
0.770869
0.727895
0.683324
0.637099
0.589156
0.539433
0.487862
0.434376
0.378902
0.321367
0.261694
0.199804
0.135615
0.0690395
0
0.963265
0.927856
0.890766
0.852253
0.812304
0.770869
0.727895
0.683324
0.637099
0.589156
0.539433
0.487862
0.434376
0.378902
0.321367
0.261694
0.199804
0.135615
0.0690395
0
0.963265
0.927855
0.890766
0.852253
0.812304
0.770869
0.727895
0.683324
0.637099
0.589156
0.539433
0.487862
0.434376
0.378902
0.321367
0.261694
0.199804
0.135615
0.0690395
0
0.963268
0.927854
0.890766
0.852253
0.812304
0.770869
0.727895
0.683324
0.637099
0.589156
0.539433
0.487862
0.434376
0.378902
0.321367
0.261694
0.199804
0.135615
0.0690395
0
0.963274
0.927854
0.890766
0.852253
0.812303
0.770869
0.727895
0.683324
0.637099
0.589156
0.539433
0.487862
0.434376
0.378902
0.321367
0.261694
0.199804
0.135615
0.0690395
0
0.963338
0.927852
0.890764
0.852251
0.812301
0.770866
0.727892
0.683322
0.637096
0.589153
0.53943
0.487859
0.434372
0.378898
0.321363
0.261691
0.199801
0.135612
0.0690369
0
0.96334
0.927784
0.890689
0.852173
0.81222
0.770782
0.727805
0.683231
0.637003
0.589057
0.539331
0.487757
0.434268
0.378791
0.321254
0.261579
0.199687
0.135496
0.0689198
0
)
;

boundaryField
{
    internal
    {
        type            internal;
    }
    movingWall
    {
        type            uniformFixedValue;
        value           uniform 1;
        uniformValue    
        {
            type            square;
            amplitude       
            {
                type            constant;
                value           1;
            }
            frequency       150;
            start           0;
            level           
            {
                type            constant;
                value           0;
            }
            markSpace       1;
        }
    }
    farFieldMoving
    {
        type            uniformFixedValue;
        value           uniform 1;
        uniformValue    
        {
            type            square;
            amplitude       
            {
                type            constant;
                value           1;
            }
            frequency       150;
            start           0;
            level           
            {
                type            constant;
                value           0;
            }
            markSpace       1;
        }
    }
    fixedWall
    {
        type            uniformFixedValue;
        value           uniform 0;
        uniformValue    
        {
            type            constant;
            value           0;
        }
    }
    axis
    {
        type            empty;
    }
    left
    {
        type            uniformFixedValue;
        value           uniform 0;
        uniformValue    
        {
            type            constant;
            value           0;
        }
    }
    farField
    {
        type            slip;
    }
    back
    {
        type            wedge;
    }
    front
    {
        type            wedge;
    }
}


// ************************************************************************* //
