/*--------------------------------*- C++ -*----------------------------------*\
  =========                 |
  \\      /  F ield         | OpenFOAM: The Open Source CFD Toolbox
   \\    /   O peration     | Website:  https://openfoam.org
    \\  /    A nd           | Version:  13
     \\/     M anipulation  |
\*---------------------------------------------------------------------------*/
FoamFile
{
    format      ascii;
    class       volVectorField;
    location    "0.0004";
    object      U;
}
// * * * * * * * * * * * * * * * * * * * * * * * * * * * * * * * * * * * * * //

dimensions      [0 1 -1 0 0 0 0];

internalField   nonuniform List<vector> 
1690
(
(0.474906 -0.00159083 2.59411e-18)
(0.497032 -0.00475948 2.24228e-17)
(0.543698 -0.00797606 4.18841e-17)
(0.612602 -0.0110435 7.67339e-17)
(0.704243 -0.0132683 7.06584e-17)
(0.802217 -0.0148106 9.42028e-17)
(0.922913 -0.0124503 7.80055e-17)
(0.979233 -0.00572362 2.63468e-17)
(0.472457 -0.00406409 1.01761e-17)
(0.494585 -0.0123469 1.52925e-17)
(0.541335 -0.0207533 9.19544e-17)
(0.610685 -0.0287589 2.08273e-16)
(0.702772 -0.0348537 2.10244e-16)
(0.802169 -0.0384545 2.44575e-16)
(0.923782 -0.0332748 1.16129e-16)
(0.979267 -0.0144905 5.55174e-17)
(0.467799 -0.00649251 5.91922e-18)
(0.48993 -0.0196818 1.78436e-17)
(0.536837 -0.0331045 9.50036e-17)
(0.606808 -0.0459643 2.17134e-16)
(0.700064 -0.0562632 1.79857e-16)
(0.801652 -0.0613272 2.19331e-16)
(0.925273 -0.054319 3.62936e-17)
(0.979873 -0.0217605 6.38196e-18)
(0.460752 -0.00903036 6.62695e-18)
(0.482861 -0.0273947 1.8841e-17)
(0.529938 -0.0462016 7.04122e-17)
(0.6007 -0.0644017 1.23042e-16)
(0.695873 -0.0793769 6.38013e-17)
(0.800658 -0.0863027 5.22409e-17)
(0.927693 -0.0766817 -1.67383e-16)
(0.981672 -0.0290024 -1.14626e-16)
(0.451305 -0.0115714 -4.10645e-18)
(0.473322 -0.0351751 4.66312e-18)
(0.520513 -0.0595583 3.50036e-17)
(0.592186 -0.0834969 2.66507e-17)
(0.68999 -0.10367 -3.2278e-17)
(0.799239 -0.112943 -6.47395e-17)
(0.931373 -0.0997751 -2.54371e-16)
(0.984655 -0.0355064 -1.71052e-16)
(0.439471 -0.0140868 -3.24269e-18)
(0.46129 -0.0429353 -1.00433e-18)
(0.508453 -0.0730754 -4.01886e-19)
(0.581051 -0.103242 -3.82566e-17)
(0.682149 -0.129381 -8.6742e-17)
(0.797462 -0.141678 -8.31142e-17)
(0.936896 -0.123788 -2.03112e-16)
(0.989064 -0.0406701 -1.58033e-16)
(0.425281 -0.0165507 -2.47922e-18)
(0.446745 -0.0506089 1.27498e-19)
(0.493611 -0.0866921 -2.24374e-17)
(0.566975 -0.123707 -8.70092e-17)
(0.671942 -0.156934 -1.13176e-16)
(0.795392 -0.173323 -4.70041e-17)
(0.945169 -0.14908 -9.9729e-17)
(0.995366 -0.0437907 -1.12142e-16)
(0.408791 -0.0189269 -4.24136e-18)
(0.429679 -0.0580936 -5.67339e-18)
(0.475809 -0.100281 -3.34314e-17)
(0.549513 -0.144903 -1.14733e-16)
(0.658707 -0.186824 -1.20257e-16)
(0.792898 -0.209025 -3.65347e-18)
(0.956966 -0.176073 -2.9245e-17)
(1.00416 -0.0438837 -7.79226e-17)
(0.390098 -0.0211659 -2.89296e-18)
(0.410119 -0.0652375 -5.82016e-18)
(0.454854 -0.113611 -4.13806e-17)
(0.528041 -0.166707 -1.20064e-16)
(0.641256 -0.219574 -9.82182e-17)
(0.788608 -0.250221 -7.71242e-19)
(0.970565 -0.205362 -1.71914e-17)
(1.0156 -0.039937 -7.05857e-17)
(0.369359 -0.0232049 1.42819e-18)
(0.388146 -0.0718293 -2.88122e-18)
(0.430547 -0.1263 -4.27772e-17)
(0.501675 -0.188723 -1.05027e-16)
(0.617347 -0.25537 -8.0327e-17)
(0.777495 -0.297998 -4.2409e-18)
(0.976862 -0.238171 -1.05581e-17)
(1.02761 -0.0323545 -6.00288e-17)
(0.346806 -0.0249677 3.09235e-19)
(0.363923 -0.0775893 -2.00223e-18)
(0.402731 -0.13773 -3.90525e-17)
(0.469293 -0.209936 -8.40327e-17)
(0.583247 -0.292987 -5.60016e-17)
(0.748707 -0.351083 -8.9946e-18)
(0.956004 -0.276661 2.26849e-18)
(1.03308 -0.0250704 -3.02e-17)
(0.322755 -0.0263681 1.70976e-19)
(0.337732 -0.0821674 -3.46618e-18)
(0.371456 -0.146998 -3.54103e-17)
(0.430077 -0.228445 -7.30434e-17)
(0.534621 -0.328555 -5.08407e-17)
(0.688508 -0.403226 -1.02671e-17)
(0.884354 -0.322486 1.43966e-17)
(1.01843 -0.0255688 -6.27147e-18)
(0.297602 -0.0273167 -5.54607e-19)
(0.31002 -0.085183 -6.36115e-18)
(0.33733 -0.153079 -3.43583e-17)
(0.38479 -0.241809 -5.80802e-17)
(0.469854 -0.35591 -4.67355e-17)
(0.590707 -0.444385 -1.3106e-17)
(0.752968 -0.374564 2.63577e-17)
(0.963127 -0.0435452 2.54063e-17)
(0.271788 -0.0277424 -2.52371e-19)
(0.281444 -0.0864065 -7.01572e-18)
(0.301835 -0.155401 -2.77094e-17)
(0.336594 -0.247875 -4.81777e-17)
(0.394192 -0.368182 -3.39737e-17)
(0.466836 -0.466964 -8.88633e-18)
(0.579982 -0.429793 2.83272e-17)
(0.831471 -0.126886 4.04272e-17)
(0.245745 -0.0276701 -4.64939e-19)
(0.252858 -0.0860736 -4.52217e-18)
(0.267165 -0.15448 -1.9685e-17)
(0.29002 -0.246326 -3.36665e-17)
(0.320341 -0.363379 -3.32665e-17)
(0.346114 -0.466307 -1.1041e-17)
(0.396414 -0.48211 2.16502e-17)
(0.602337 -0.296416 3.17487e-17)
(0.926995 0.0297097 -1.29367e-14)
(0.944516 0.0430738 -3.87069e-15)
(0.803428 0.044255 1.98473e-15)
(0.7385 0.0420986 3.08884e-15)
(0.64923 0.0397064 1.74631e-15)
(0.567498 0.0366874 -4.21976e-15)
(0.489568 0.0333002 -1.64606e-14)
(0.417018 0.0296894 -2.10307e-14)
(0.350584 0.0260082 -8.66777e-15)
(0.290809 0.0223945 -2.92951e-15)
(0.237921 0.018965 -7.98868e-15)
(0.191873 0.0158095 -1.33295e-14)
(0.152378 0.0129897 -1.8253e-14)
(0.118955 0.0105407 -1.86226e-14)
(0.0909785 0.00847502 -6.26265e-16)
(0.067719 0.00678854 -4.96118e-15)
(0.0483805 0.00547025 -2.80903e-15)
(0.0320593 0.00452054 2.17206e-14)
(0.0176887 0.00392711 2.74287e-14)
(0.00485989 0.00307265 2.05211e-15)
(0.92622 0.0706953 -5.24502e-15)
(0.942534 0.103509 -4.50183e-16)
(0.80051 0.10486 7.68391e-15)
(0.73376 0.100535 3.19854e-15)
(0.643922 0.0945319 7.03523e-15)
(0.56139 0.0872984 4.00408e-15)
(0.483099 0.0791801 -7.54719e-15)
(0.410485 0.0705396 -1.10991e-14)
(0.344253 0.0617385 -2.04599e-15)
(0.284893 0.0531084 6.78604e-15)
(0.232569 0.0449283 6.08227e-15)
(0.187177 0.0374122 7.48346e-15)
(0.148375 0.0307052 -1.22785e-15)
(0.115641 0.0248884 -6.43467e-15)
(0.0883182 0.0199889 8.27487e-16)
(0.0656602 0.0159938 3.75626e-15)
(0.0468642 0.0128744 7.69424e-15)
(0.0310292 0.0106304 7.01157e-15)
(0.017103 0.00923399 1.05279e-14)
(0.0046873 0.0071994 2.61767e-15)
(0.926275 0.112581 -4.35762e-17)
(0.938052 0.165339 1.96384e-15)
(0.793929 0.166094 1.87753e-15)
(0.724953 0.159465 1.18479e-15)
(0.63297 0.149293 3.38432e-15)
(0.549267 0.137383 4.20419e-15)
(0.470359 0.124114 3.14239e-16)
(0.397721 0.110116 -4.23172e-15)
(0.331971 0.0959758 -4.67316e-15)
(0.273485 0.0822229 -9.7613e-16)
(0.222309 0.0692866 2.90941e-15)
(0.178219 0.0574841 2.70561e-15)
(0.140775 0.0470194 6.34062e-16)
(0.109374 0.0379952 -5.36379e-16)
(0.0833049 0.0304315 7.46602e-16)
(0.0617915 0.0242901 8.61324e-16)
(0.0440216 0.0195112 1.54785e-15)
(0.0291052 0.0160832 4.45882e-15)
(0.0160234 0.0139566 1.63948e-14)
(0.00439045 0.0108658 6.56691e-15)
(0.926677 0.155937 3.26842e-15)
(0.931382 0.227756 3.30605e-15)
(0.784149 0.227877 -2.43837e-16)
(0.712106 0.218155 -8.02319e-16)
(0.616969 0.203353 -1.92019e-15)
(0.531769 0.186285 -7.79968e-16)
(0.452121 0.167452 2.05771e-15)
(0.379614 0.1478 7.33347e-16)
(0.314698 0.128155 -1.67825e-16)
(0.257579 0.109238 -9.27202e-17)
(0.208118 0.091609 2.36196e-15)
(0.165922 0.0756628 1.507e-15)
(0.130411 0.0616332 -6.20637e-16)
(0.100878 0.0496176 -5.37197e-16)
(0.0765443 0.0396067 -4.37163e-17)
(0.056597 0.0315194 4.33185e-16)
(0.040218 0.0252527 -1.22258e-15)
(0.0265378 0.0207723 -2.73941e-15)
(0.0145833 0.0179988 2.22902e-15)
(0.00398581 0.0139909 -2.78096e-15)
(0.92699 0.200707 1.64276e-15)
(0.922415 0.29078 1.60116e-16)
(0.771137 0.289736 -7.36887e-16)
(0.695057 0.276057 -1.36985e-15)
(0.596091 0.255894 -2.27959e-15)
(0.509231 0.233012 -1.34535e-15)
(0.428911 0.208096 1.07308e-15)
(0.356853 0.18246 1.05128e-15)
(0.293243 0.157173 7.28798e-16)
(0.238042 0.133127 1.74499e-16)
(0.190867 0.110979 5.04191e-16)
(0.151115 0.0911556 -2.84347e-16)
(0.118038 0.07388 -1.18343e-15)
(0.0908122 0.0592077 -1.36663e-15)
(0.0685853 0.0470713 4.18921e-16)
(0.0505147 0.0373267 2.46942e-15)
(0.0357838 0.0298139 5.28678e-15)
(0.0235548 0.024464 3.63903e-15)
(0.0129155 0.0211607 9.38053e-16)
(0.00352074 0.0164201 1.71025e-15)
(0.92703 0.247696 -3.23478e-16)
(0.910887 0.355197 -2.69331e-15)
(0.754633 0.352073 -1.85744e-15)
(0.673546 0.333405 -1.95493e-15)
(0.570311 0.306926 -8.40565e-16)
(0.481833 0.277426 3.08021e-16)
(0.401113 0.245822 8.18897e-16)
(0.329997 0.213848 -6.9868e-16)
(0.268282 0.182802 -7.84435e-16)
(0.215611 0.153709 -1.27322e-15)
(0.1713 0.127269 -2.4159e-15)
(0.134502 0.103888 -1.30675e-15)
(0.10429 0.0837283 8.02367e-16)
(0.0797208 0.066765 8.32657e-16)
(0.0598788 0.0528452 2.95123e-18)
(0.0439012 0.0417434 1.07039e-15)
(0.0309854 0.0332312 3.10119e-15)
(0.020339 0.0271959 4.69968e-15)
(0.0111237 0.0234795 -1.15257e-15)
(0.00302293 0.0181856 -6.07441e-15)
(0.926607 0.297911 -4.62222e-16)
(0.896394 0.421885 -2.18931e-15)
(0.734199 0.415419 -1.53114e-15)
(0.64717 0.390448 -1.35852e-15)
(0.539473 0.356468 -2.13436e-16)
(0.449652 0.319405 1.52835e-15)
(0.369029 0.280447 1.40619e-15)
(0.299533 0.24179 -6.18708e-16)
(0.240421 0.204915 -1.31694e-15)
(0.190942 0.170918 -1.34879e-15)
(0.150068 0.140472 -1.40029e-15)
(0.116691 0.113898 -4.41707e-16)
(0.0897056 0.0912471 -3.51526e-16)
(0.0680624 0.0723757 -2.21231e-16)
(0.0507982 0.0570205 -6.92485e-16)
(0.0370477 0.0448599 5.71462e-16)
(0.0260384 0.0355896 -2.34888e-16)
(0.0170365 0.0290463 1.84909e-15)
(0.00929018 0.0250281 -4.40181e-16)
(0.00251555 0.0193484 -1.81192e-15)
(0.925451 0.352444 -9.73522e-17)
(0.878375 0.491639 -4.61115e-16)
(0.709226 0.480158 1.20432e-16)
(0.615416 0.447218 -3.58595e-17)
(0.503365 0.404337 2.7739e-16)
(0.412752 0.358661 1.12729e-15)
(0.33297 0.311683 1.0904e-15)
(0.265954 0.266067 -2.0051e-16)
(0.21025 0.223385 -6.7863e-16)
(0.164658 0.184721 -3.39505e-16)
(0.12777 0.150631 2.52624e-16)
(0.0982238 0.121282 -2.26198e-16)
(0.074751 0.0965618 -2.87888e-15)
(0.0562214 0.0761765 -3.6752e-15)
(0.0416492 0.0597322 -1.53589e-15)
(0.0301882 0.0468022 -4.96985e-16)
(0.0211129 0.0370026 2.07102e-16)
(0.0137615 0.030117 8.30053e-16)
(0.00747864 0.0259002 -6.69695e-16)
(0.00201626 0.0199851 2.00987e-16)
(0.923184 0.41254 -1.0706e-16)
(0.856084 0.565212 5.76075e-16)
(0.678943 0.546521 1.15573e-15)
(0.577695 0.503544 7.20439e-16)
(0.461779 0.45017 9.68653e-17)
(0.371238 0.394779 -4.34845e-17)
(0.293302 0.339185 2.2881e-16)
(0.22979 0.286457 1.0253e-16)
(0.17837 0.238125 3.00478e-16)
(0.137354 0.195142 3.05421e-16)
(0.104955 0.15785 1.11196e-16)
(0.0795743 0.126192 -8.8345e-17)
(0.0598192 0.099846 -1.59523e-15)
(0.0445121 0.0783419 -2.82956e-15)
(0.0326748 0.0611438 -2.74504e-15)
(0.0235039 0.0477167 -2.5886e-15)
(0.0163382 0.0375986 -7.0476e-16)
(0.0105993 0.0305206 -1.44236e-15)
(0.00573579 0.0261974 -1.81083e-15)
(0.00153784 0.0201779 1.55592e-15)
(0.919276 0.479672 -3.00615e-16)
(0.828554 0.643318 6.31561e-16)
(0.64241 0.614555 1.18299e-15)
(0.533381 0.559037 6.83536e-16)
(0.41456 0.493439 -1.75512e-16)
(0.325301 0.427255 -5.43699e-16)
(0.250475 0.362591 -3.6219e-16)
(0.191622 0.302778 -6.06207e-18)
(0.145385 0.249108 5.208e-16)
(0.109599 0.202273 3.45354e-16)
(0.0821143 0.162294 -2.77999e-16)
(0.0611504 0.128828 -4.27909e-16)
(0.0452339 0.101307 -6.76755e-16)
(0.0331831 0.079069 -9.87108e-16)
(0.0240604 0.0614323 -1.12823e-15)
(0.0171289 0.0477572 -6.12668e-16)
(0.0118074 0.0375091 -7.35418e-16)
(0.00761005 0.0303706 -7.71203e-17)
(0.00409405 0.0260211 1.07338e-15)
(0.00108899 0.0200078 1.75247e-15)
(0.912976 0.555615 -4.14544e-16)
(0.794537 0.726601 6.00516e-16)
(0.598522 0.684075 1.0298e-15)
(0.481856 0.61307 5.24199e-16)
(0.361659 0.533455 4.19632e-17)
(0.275259 0.455518 -1.96463e-16)
(0.20504 0.381557 -2.4007e-16)
(0.152078 0.314901 -3.30313e-18)
(0.111902 0.256377 5.35524e-16)
(0.081921 0.206268 1.23121e-16)
(0.0596833 0.164177 -8.65497e-16)
(0.0432911 0.129423 -1.32804e-15)
(0.0312506 0.101172 -8.61104e-16)
(0.0224216 0.0785643 -1.01053e-15)
(0.0159396 0.0607773 -6.75103e-16)
(0.0111562 0.0470756 1.35145e-15)
(0.00758294 0.0368612 2.91025e-16)
(0.00483298 0.0297748 2.1176e-16)
(0.00257397 0.0254667 1.44329e-15)
(0.000675055 0.0195504 7.47202e-16)
(0.903222 0.642566 -2.84824e-16)
(0.752424 0.815557 5.61505e-16)
(0.546027 0.754597 8.68785e-16)
(0.422576 0.664754 4.12238e-16)
(0.303187 0.569398 2.9933e-16)
(0.221579 0.47898 1.74307e-16)
(0.157651 0.395796 -1.07216e-16)
(0.111822 0.322785 6.18773e-17)
(0.0785071 0.260057 4.28239e-16)
(0.0548 0.207345 3.20926e-17)
(0.0380289 0.163755 -6.73955e-16)
(0.0262665 0.128236 -7.29389e-16)
(0.0180611 0.0996789 -1.22385e-16)
(0.0123598 0.0770344 -4.10762e-16)
(0.00840145 0.0593527 -4.62299e-16)
(0.0056442 0.0458153 1.0661e-15)
(0.00370194 0.0357729 6.61819e-18)
(0.00229023 0.0288318 -7.98541e-16)
(0.00118656 0.0246204 3.09429e-16)
(0.00029878 0.0188731 2.31288e-16)
(0.888484 0.743313 -1.16439e-16)
(0.700121 0.910385 5.82117e-16)
(0.483579 0.825268 7.77458e-16)
(0.35514 0.71293 4.46762e-16)
(0.239466 0.600353 3.64596e-16)
(0.164898 0.497083 5.56787e-17)
(0.109054 0.405114 -1.98628e-16)
(0.0715306 0.326487 -1.32969e-16)
(0.0457524 0.260353 3.9955e-17)
(0.0286517 0.205778 -2.05914e-16)
(0.0174479 0.161315 -3.45909e-16)
(0.0102789 0.125534 -1.57704e-16)
(0.00579782 0.0970619 1.32491e-16)
(0.00308148 0.0746772 -3.41453e-16)
(0.00149689 0.0573204 -4.90004e-16)
(0.000622676 0.0441071 5.42329e-16)
(0.000181144 0.0343495 -5.02646e-16)
(-9.43871e-06 0.0276285 -2.13976e-15)
(-6.44418e-05 0.0235577 -5.99396e-16)
(-3.90893e-05 0.0180343 1.65062e-16)
(0.866523 0.861525 -1.04669e-16)
(0.634885 1.01071 5.65166e-16)
(0.409854 0.894811 8.13619e-16)
(0.279381 0.756182 5.04383e-16)
(0.171076 0.625371 8.20809e-17)
(0.10602 0.509362 -3.30461e-16)
(0.0600578 0.409451 -3.80635e-16)
(0.0318651 0.326173 -2.86526e-16)
(0.0141314 0.257546 -2.51307e-16)
(0.00381944 0.201882 -2.49097e-16)
(-0.00183478 0.15716 -3.2992e-17)
(-0.00453324 0.121584 6.04467e-17)
(-0.00545894 0.0935462 -5.48581e-17)
(-0.00537068 0.0716756 -7.74463e-16)
(-0.00475389 0.0548266 -6.96519e-16)
(-0.0039008 0.0420665 6.5243e-16)
(-0.00297819 0.0326826 1.01033e-16)
(-0.00206727 0.0262397 -1.5501e-15)
(-0.00118082 0.0223425 -9.23333e-16)
(-0.000339358 0.0170836 1.67461e-16)
(0.834012 1.00196 -1.86763e-16)
(0.553082 1.11524 4.9876e-16)
(0.323748 0.961498 8.25594e-16)
(0.195436 0.792867 2.59555e-16)
(0.0988842 0.643565 -3.03259e-16)
(0.0458926 0.515509 -6.62154e-16)
(0.0115021 0.408904 -5.17448e-16)
(-0.00656426 0.322085 -2.71617e-16)
(-0.0159363 0.251979 -1.68506e-17)
(-0.0194321 0.195996 1.47243e-16)
(-0.0196657 0.151594 3.6341e-16)
(-0.0180897 0.116645 1.82936e-16)
(-0.0156739 0.0893408 -5.03378e-17)
(-0.0129871 0.0681952 -5.50476e-16)
(-0.0103547 0.0520004 -5.55892e-16)
(-0.00793556 0.0397935 2.43251e-16)
(-0.00578627 0.0308503 1.84753e-16)
(-0.00389178 0.0247278 -6.1739e-16)
(-0.00216803 0.0210282 -5.60355e-16)
(-0.000603703 0.0160616 4.31961e-18)
(0.786204 1.1708 -3.03071e-16)
(0.44998 1.22154 4.55726e-16)
(0.224648 1.02317 7.13792e-16)
(0.103825 0.821215 7.97787e-17)
(0.024061 0.6542 -4.93395e-16)
(-0.0144406 0.515316 -6.12875e-16)
(-0.0358049 0.403699 -3.80006e-16)
(-0.043225 0.314611 2.39175e-17)
(-0.0441056 0.244043 3.13833e-16)
(-0.0409195 0.188473 6.03563e-16)
(-0.0359562 0.144913 6.36514e-16)
(-0.0303592 0.110954 3.75201e-16)
(-0.0248478 0.0846332 3.76859e-16)
(-0.0197842 0.0643809 1.92057e-16)
(-0.0153273 0.0489522 -2.37611e-16)
(-0.0115031 0.0373722 -7.05257e-17)
(-0.00826127 0.0289172 9.62867e-18)
(-0.00549638 0.0231444 6.79184e-17)
(-0.00303412 0.0196582 -4.47024e-17)
(-0.000834511 0.0150013 -3.16358e-16)
(0.716383 1.37516 -3.35329e-16)
(0.319289 1.32564 4.08546e-16)
(0.112661 1.07703 4.8826e-16)
(0.00549953 0.839446 -1.03205e-16)
(-0.0519808 0.656658 -5.4044e-16)
(-0.0739013 0.508954 -4.90136e-16)
(-0.0810726 0.394192 -2.50228e-16)
(-0.0776654 0.304217 4.11158e-17)
(-0.0701443 0.234151 4.1311e-16)
(-0.0605361 0.179661 7.75902e-16)
(-0.0506755 0.137396 7.90851e-16)
(-0.0413517 0.104729 7.12835e-16)
(-0.0330099 0.0795878 1.06262e-15)
(-0.0257972 0.060356 9.3847e-16)
(-0.0197061 0.0457742 9.01756e-17)
(-0.0146331 0.0348717 -2.45177e-16)
(-0.0104265 0.0269356 -8.40685e-17)
(-0.00689745 0.0215304 5.08637e-16)
(-0.0037886 0.018267 2.46159e-16)
(-0.00103455 0.0139285 -5.14633e-16)
(0.617869 1.62536 -3.139e-16)
(0.152914 1.42405 2.76492e-16)
(-0.0112758 1.11836 2.37553e-16)
(-0.0980687 0.846013 -2.17088e-16)
(-0.127594 0.650564 -4.58994e-16)
(-0.131351 0.496875 -3.46157e-16)
(-0.123678 0.380888 -1.20753e-16)
(-0.10955 0.291389 -3.3986e-18)
(-0.0939099 0.222714 1.51845e-16)
(-0.0782434 0.16989 5.11574e-16)
(-0.0638407 0.129296 5.87104e-16)
(-0.0511097 0.0981578 8.52987e-16)
(-0.0402106 0.0743444 1.41938e-15)
(-0.031075 0.0562231 1.27779e-15)
(-0.0235337 0.0425418 2.24489e-16)
(-0.0173601 0.0323474 -1.72156e-16)
(-0.0123079 0.0249471 -7.10559e-17)
(-0.00811294 0.0199182 5.93053e-16)
(-0.00444174 0.0168814 3.87787e-16)
(-0.00120676 0.0128631 -4.22153e-16)
(0.467737 1.92246 -2.71137e-16)
(-0.0597656 1.50849 1.97389e-16)
(-0.14597 1.14119 -2.901e-17)
(-0.204234 0.839884 -3.06479e-16)
(-0.201054 0.636012 -3.50611e-16)
(-0.185755 0.479661 -1.32393e-16)
(-0.163142 0.364381 -1.49667e-17)
(-0.138663 0.276635 -7.2049e-17)
(-0.115344 0.210133 -9.92964e-18)
(-0.0940616 0.159461 2.25599e-16)
(-0.0755071 0.120833 4.52218e-16)
(-0.0596994 0.0914019 8.52655e-16)
(-0.0465142 0.0690195 1.43111e-15)
(-0.0356743 0.0520662 1.35049e-15)
(-0.0268568 0.0393153 1.77828e-16)
(-0.0197207 0.0298432 -7.96309e-18)
(-0.0139329 0.0229838 4.37855e-17)
(-0.00916125 0.0183324 5.54244e-16)
(-0.00500386 0.0155221 4.26411e-16)
(-0.00135401 0.0118203 -3.60912e-16)
(0.350441 2.27268 -2.31756e-16)
(-0.331235 1.58742 6.86733e-17)
(-0.287658 1.13886 -1.65667e-16)
(-0.309423 0.820808 -2.60125e-16)
(-0.270729 0.61338 -1.17226e-16)
(-0.236233 0.458051 1.02522e-16)
(-0.199139 0.345301 1.39245e-16)
(-0.1649 0.260458 2.306e-17)
(-0.134467 0.196776 -3.54811e-17)
(-0.108058 0.148641 5.68961e-17)
(-0.0857578 0.112199 2.34112e-16)
(-0.0672023 0.0845964 6.68791e-16)
(-0.0519932 0.0637084 1.3012e-15)
(-0.0396557 0.0479523 1.29364e-15)
(-0.029724 0.036142 2.1806e-16)
(-0.0217521 0.0273926 1.31112e-16)
(-0.0153282 0.0210702 1.03895e-16)
(-0.0100604 0.0167914 7.44052e-16)
(-0.00548499 0.0142042 6.03074e-16)
(-0.00147904 0.0108108 -2.59481e-16)
(0.20213 -0.0269436 -5.64584e-19)
(0.206515 -0.0833241 -3.14325e-18)
(0.213757 -0.147776 -4.31128e-18)
(0.222523 -0.230248 -1.55244e-17)
(0.223809 -0.329797 -3.0728e-17)
(0.203652 -0.423071 -2.06005e-17)
(0.181283 -0.47047 8.05913e-18)
(0.230245 -0.420365 3.29202e-17)
(0.147533 -0.0247706 -1.29773e-19)
(0.149097 -0.075262 5.24841e-19)
(0.150156 -0.12981 1.3209e-19)
(0.148193 -0.192312 -7.89397e-18)
(0.133812 -0.263499 -2.19829e-17)
(0.0969334 -0.334245 -2.50905e-17)
(0.0460178 -0.383477 -1.54229e-17)
(0.0197562 -0.392181 -7.6271e-18)
(0.0989555 -0.0221645 -3.15791e-19)
(0.0988884 -0.0661071 7.42815e-19)
(0.0962609 -0.112095 9.07765e-19)
(0.0901641 -0.161188 -4.03659e-18)
(0.0754906 -0.21159 -1.11674e-17)
(0.0470131 -0.257651 -1.73951e-17)
(0.00804312 -0.290066 -1.63661e-17)
(-0.0247931 -0.302691 -8.73623e-18)
(0.056796 -0.0198684 1.30313e-19)
(0.0564921 -0.0567405 1.0457e-18)
(0.0519199 -0.0945728 4.57712e-19)
(0.0433483 -0.133543 -3.40783e-18)
(0.0286857 -0.172407 -6.66598e-18)
(0.00698341 -0.208107 -7.42411e-18)
(-0.0192767 -0.236276 -3.59135e-18)
(-0.0432932 -0.253778 -3.16131e-19)
(0.0215139 -0.0175093 -2.26834e-19)
(0.0217595 -0.0478328 -4.13255e-19)
(0.016354 -0.0789345 -1.0507e-18)
(0.00791055 -0.110032 -2.55347e-18)
(-0.00487861 -0.139883 -3.19288e-18)
(-0.0221463 -0.166845 -1.54644e-18)
(-0.042074 -0.189304 2.31831e-18)
(-0.0613894 -0.206027 6.03183e-18)
(-0.00814246 -0.0196349 -4.7001e-19)
(-0.0079751 -0.0403734 -7.2138e-19)
(-0.0131926 -0.065669 -1.42334e-18)
(-0.0210402 -0.0910096 -2.06467e-18)
(-0.0322491 -0.115104 -7.51765e-19)
(-0.0464875 -0.13702 2.37067e-18)
(-0.0625439 -0.156065 5.98875e-18)
(-0.0787077 -0.171624 8.04061e-18)
(-0.0321169 -0.0168469 -1.25427e-18)
(-0.0330455 -0.0339651 -1.91827e-18)
(-0.0373263 -0.0545261 -3.6494e-19)
(-0.0443861 -0.0749951 4.86728e-18)
(-0.0542783 -0.094386 9.63832e-18)
(-0.0665438 -0.112203 5.24363e-18)
(-0.0803791 -0.128233 -5.97506e-18)
(-0.0947447 -0.142052 -1.73149e-17)
(-0.050738 -0.0150949 -2.37244e-20)
(-0.0526003 -0.0286585 -4.82516e-19)
(-0.0566822 -0.0451099 2.14109e-18)
(-0.0632215 -0.0615319 1.30018e-17)
(-0.0721786 -0.0771576 2.43242e-17)
(-0.083153 -0.0916872 1.865e-17)
(-0.095625 -0.105086 -3.68663e-18)
(-0.108871 -0.116998 -2.33978e-17)
(-0.0657354 -0.01283 1.94161e-18)
(-0.0680854 -0.0237552 9.83793e-19)
(-0.072114 -0.036818 3.12348e-19)
(-0.0783168 -0.0498643 6.33269e-18)
(-0.0866432 -0.0623383 1.13121e-17)
(-0.0967891 -0.0740658 4.84836e-18)
(-0.108423 -0.0850817 -6.03405e-18)
(-0.120973 -0.0950819 -1.01567e-17)
(-0.0776595 -0.0105074 1.50584e-18)
(-0.0802653 -0.0191718 2.76609e-18)
(-0.0842742 -0.0293692 3.08953e-18)
(-0.0902563 -0.0395469 7.18051e-19)
(-0.0981631 -0.0493161 -8.55607e-18)
(-0.107776 -0.0585811 -2.25822e-17)
(-0.118891 -0.0673988 -2.82124e-17)
(-0.131015 -0.0755207 -1.96824e-17)
(-0.0868835 -0.00824244 -4.21147e-19)
(-0.0896325 -0.0148728 2.32499e-18)
(-0.0936303 -0.0225773 2.07639e-18)
(-0.0994666 -0.0302559 -5.52898e-18)
(-0.107098 -0.0376435 -1.91406e-17)
(-0.116369 -0.0446953 -3.29303e-17)
(-0.127159 -0.0514697 -3.47357e-17)
(-0.139026 -0.0577737 -1.58085e-17)
(-0.0936578 -0.00606877 -2.72585e-18)
(-0.096499 -0.0108266 8.72877e-19)
(-0.100496 -0.0163116 7.18443e-18)
(-0.106239 -0.0217626 9.45372e-18)
(-0.113692 -0.0270016 3.89949e-18)
(-0.12274 -0.0320259 -9.6073e-18)
(-0.133314 -0.0368921 -1.92984e-17)
(-0.145016 -0.0414433 -7.88967e-18)
(-0.0976406 -0.00398236 -1.05129e-18)
(-0.100549 -0.00697964 1.05881e-18)
(-0.104542 -0.0104488 4.39291e-18)
(-0.11019 -0.0138886 2.53224e-18)
(-0.117477 -0.0171837 -9.17545e-18)
(-0.126321 -0.0203729 -2.77315e-17)
(-0.136669 -0.0235237 -4.24909e-17)
(-0.148153 -0.02644 -3.36466e-17)
(-0.0937215 -0.00200884 3.41479e-18)
(-0.0964902 -0.00337386 4.24006e-18)
(-0.100221 -0.00503929 -1.85699e-18)
(-0.105434 -0.00666944 -9.63502e-18)
(-0.112149 -0.00812681 -1.07336e-17)
(-0.120343 -0.00946969 -8.04186e-18)
(-0.129884 -0.0108763 -4.20339e-18)
(-0.140368 -0.0121072 4.22282e-18)
(-0.0540206 -0.000315044 2.20368e-18)
(-0.0557118 -0.000404446 3.9881e-18)
(-0.0578404 -0.000621597 1.73357e-18)
(-0.0607428 -0.000800762 -2.47394e-18)
(-0.0645039 -0.000934542 -3.97023e-18)
(-0.0692477 -0.00114012 -3.73341e-18)
(-0.0744138 -0.00155592 -9.90317e-19)
(-0.0786831 -0.00188856 7.14171e-18)
(0.342333 -0.266287 2.96171e-17)
(0.360936 -0.229939 3.4314e-17)
(0.383726 -0.214589 3.59442e-17)
(0.400669 -0.20626 2.50044e-17)
(0.413519 -0.200608 2.86596e-17)
(0.423777 -0.19661 2.70657e-17)
(0.432324 -0.193688 2.0386e-17)
(0.43972 -0.191478 1.45745e-17)
(0.44635 -0.189734 1.60991e-17)
(0.452486 -0.188293 1.47249e-17)
(0.458316 -0.187039 7.87843e-18)
(0.463972 -0.18589 7.53816e-18)
(0.469549 -0.184789 2.58477e-18)
(0.475113 -0.183697 2.67486e-18)
(0.480712 -0.182586 1.86089e-18)
(0.486382 -0.181435 1.598e-17)
(0.492147 -0.180234 1.86009e-17)
(0.498027 -0.178972 1.52075e-17)
(0.504037 -0.177644 -1.91859e-18)
(0.510187 -0.17624 8.86474e-18)
(0.516488 -0.174756 2.37962e-17)
(0.522947 -0.173187 2.58172e-17)
(0.529571 -0.171528 1.22151e-17)
(0.536364 -0.169775 8.30882e-19)
(0.543331 -0.167926 6.64652e-18)
(0.550471 -0.165975 -1.19306e-17)
(0.557787 -0.163918 -1.42735e-17)
(0.565279 -0.161749 -6.44237e-18)
(0.572951 -0.159463 -9.73057e-18)
(0.58079 -0.157057 -8.89961e-17)
(0.588727 -0.154547 -8.62929e-17)
(0.596566 -0.151974 -8.72258e-17)
(0.603968 -0.149402 -3.0977e-17)
(0.610679 -0.146853 -3.99915e-17)
(0.617287 -0.144176 -1.54401e-17)
(0.626572 -0.140877 1.24451e-18)
(0.645301 -0.136003 -2.14395e-18)
(0.686254 -0.128121 -1.37382e-17)
(0.767129 -0.11387 -1.41596e-18)
(0.904823 -0.089261 3.49205e-18)
(1.10288 -0.0479331 -4.13237e-17)
(1.33978 0.0150758 -8.25897e-17)
(1.56753 0.0962244 -2.97695e-17)
(1.72219 0.17848 1.10399e-18)
(1.7473 0.231041 4.4053e-17)
(1.63586 0.228031 2.36173e-17)
(1.46151 0.173167 6.03108e-17)
(1.34155 0.105332 2.45035e-17)
(1.74715 0.0636194 5.97077e-18)
(0.299057 0.179774 1.3629e-17)
(0.0251742 -0.370578 2.58836e-18)
(0.019552 -0.349792 3.87197e-18)
(0.0181575 -0.339372 6.04887e-18)
(0.0157292 -0.333158 1.59642e-18)
(0.0129406 -0.329774 -1.86908e-18)
(0.00964206 -0.328262 -1.25103e-17)
(0.00594561 -0.328011 -2.39197e-17)
(0.0018997 -0.328626 -3.1728e-17)
(-0.00244157 -0.32984 -3.08031e-17)
(-0.00703265 -0.331473 -2.64131e-17)
(-0.0118303 -0.333395 -1.68703e-17)
(-0.0167926 -0.335519 8.40233e-19)
(-0.0218778 -0.337776 2.53343e-17)
(-0.0270446 -0.340121 3.97623e-17)
(-0.032251 -0.342519 3.9471e-17)
(-0.0374534 -0.344942 1.7376e-17)
(-0.0425937 -0.347355 -2.19078e-17)
(-0.0476206 -0.349728 -4.9278e-17)
(-0.052496 -0.352042 -6.76884e-17)
(-0.057179 -0.354282 -5.90507e-17)
(-0.0616271 -0.356435 -3.69631e-17)
(-0.0657949 -0.358485 -2.51171e-17)
(-0.0696319 -0.360417 -1.36582e-17)
(-0.0730821 -0.362216 -3.82422e-17)
(-0.076085 -0.363861 -3.79685e-17)
(-0.078573 -0.365327 -3.94715e-17)
(-0.0804644 -0.366591 -6.24951e-17)
(-0.0816577 -0.367629 -1.41392e-16)
(-0.0820496 -0.368412 -1.71338e-16)
(-0.0816133 -0.368878 -2.0367e-16)
(-0.0805319 -0.368904 -1.93321e-16)
(-0.0792482 -0.368303 -1.37695e-16)
(-0.0781038 -0.366969 -9.96791e-17)
(-0.0761379 -0.365193 -6.14482e-17)
(-0.0689488 -0.36403 -1.34499e-18)
(-0.0465049 -0.365239 1.10206e-17)
(0.00767333 -0.370006 -5.82227e-18)
(0.114624 -0.376512 -8.29237e-17)
(0.291961 -0.378387 -1.29003e-16)
(0.54635 -0.364198 -1.58613e-16)
(0.865227 -0.314569 -1.32234e-16)
(1.21464 -0.211672 -6.18848e-17)
(1.54148 -0.0476002 8.25133e-17)
(1.78541 0.156937 1.34731e-16)
(1.89626 0.342543 1.29634e-16)
(1.84741 0.428637 1.8067e-16)
(1.66751 0.373737 1.56761e-16)
(1.50813 0.206826 1.77085e-16)
(1.19202 0.208733 8.13943e-17)
(-0.656466 0.641576 -6.95085e-17)
(-0.0441984 -0.305676 -1.52035e-18)
(-0.0605352 -0.301094 -1.34245e-18)
(-0.0718171 -0.299822 -4.70806e-18)
(-0.0821439 -0.300041 -1.62107e-17)
(-0.091851 -0.301521 -3.47793e-17)
(-0.101485 -0.303968 -4.60349e-17)
(-0.111243 -0.307168 -5.03117e-17)
(-0.121259 -0.310957 -4.10442e-17)
(-0.131604 -0.315214 -2.5884e-17)
(-0.142322 -0.319849 -8.0408e-19)
(-0.153437 -0.324801 2.33817e-17)
(-0.164965 -0.330023 4.13932e-17)
(-0.176915 -0.335482 5.95237e-17)
(-0.189296 -0.341157 6.87422e-17)
(-0.202114 -0.347031 6.03593e-17)
(-0.215374 -0.3531 3.69509e-17)
(-0.229094 -0.359368 -2.10415e-18)
(-0.243278 -0.365828 -4.26713e-17)
(-0.257909 -0.372465 -6.46405e-17)
(-0.27297 -0.37927 -6.40551e-17)
(-0.288433 -0.386235 -4.70226e-17)
(-0.304259 -0.393352 -4.30504e-17)
(-0.32039 -0.400599 -3.36743e-17)
(-0.336777 -0.407957 -5.46578e-17)
(-0.35336 -0.41541 -1.0676e-16)
(-0.370053 -0.422943 -1.59019e-16)
(-0.386733 -0.430547 -2.21254e-16)
(-0.403261 -0.438184 -2.52718e-16)
(-0.419544 -0.445728 -2.52001e-16)
(-0.435636 -0.452893 -2.19925e-16)
(-0.451684 -0.459286 -1.66664e-16)
(-0.467416 -0.464748 -1.0479e-16)
(-0.480873 -0.470064 -3.84364e-17)
(-0.486663 -0.477692 -1.7928e-17)
(-0.474845 -0.49178 -2.81304e-17)
(-0.431916 -0.516716 -9.87335e-17)
(-0.344188 -0.554192 -1.76147e-16)
(-0.2021 -0.600489 -2.53974e-16)
(-0.00284223 -0.645768 -2.11087e-16)
(0.250398 -0.671938 -1.25712e-16)
(0.542734 -0.654405 -3.03367e-17)
(0.844249 -0.563987 1.69536e-16)
(1.11844 -0.379679 3.01537e-16)
(1.32521 -0.116142 3.50778e-16)
(1.43468 0.158374 3.30651e-16)
(1.42917 0.345812 3.6316e-16)
(1.29788 0.351581 2.79683e-16)
(1.00677 0.237363 1.79414e-16)
(0.00125995 0.403454 9.38338e-17)
(-1.45182 1.03724 -1.2258e-16)
(-0.0619285 -0.263938 3.05847e-18)
(-0.0783465 -0.265487 2.18474e-18)
(-0.0911605 -0.267374 -1.76655e-18)
(-0.103272 -0.269645 -1.0823e-17)
(-0.115055 -0.272507 -2.6048e-17)
(-0.126832 -0.275911 -3.61267e-17)
(-0.138764 -0.279799 -3.9233e-17)
(-0.150981 -0.284106 -3.3915e-17)
(-0.163575 -0.288778 -2.19695e-17)
(-0.176619 -0.293772 4.32732e-19)
(-0.190172 -0.299057 2.78284e-17)
(-0.204282 -0.304611 5.57322e-17)
(-0.218991 -0.31042 8.75256e-17)
(-0.234338 -0.316478 1.09717e-16)
(-0.250361 -0.322781 1.1403e-16)
(-0.267093 -0.329331 8.91194e-17)
(-0.284572 -0.336135 3.57455e-17)
(-0.302832 -0.343208 -2.5777e-17)
(-0.321909 -0.350569 -5.37658e-17)
(-0.341836 -0.358237 -4.66715e-17)
(-0.362646 -0.366235 -2.58636e-17)
(-0.384374 -0.374589 -1.59855e-17)
(-0.407059 -0.383325 -6.17334e-17)
(-0.430708 -0.392462 -1.39039e-16)
(-0.455305 -0.402031 -2.19866e-16)
(-0.480807 -0.412063 -2.62991e-16)
(-0.507135 -0.422572 -2.49698e-16)
(-0.534229 -0.433496 -2.16301e-16)
(-0.562057 -0.444644 -1.58838e-16)
(-0.590519 -0.455739 -9.18898e-17)
(-0.619017 -0.466783 -5.48799e-17)
(-0.645577 -0.47877 -3.25266e-17)
(-0.665817 -0.49443 -5.02122e-17)
(-0.672672 -0.518321 -9.96255e-17)
(-0.657729 -0.555762 -1.77661e-16)
(-0.613883 -0.610777 -2.433e-16)
(-0.537489 -0.683931 -2.59481e-16)
(-0.428394 -0.770738 -2.09529e-16)
(-0.288196 -0.859779 -8.97526e-17)
(-0.119631 -0.930004 6.78544e-17)
(0.0688909 -0.951382 3.02102e-16)
(0.259592 -0.883846 4.5347e-16)
(0.430587 -0.69789 5.83774e-16)
(0.563147 -0.406436 5.96685e-16)
(0.645742 -0.0837257 5.2749e-16)
(0.647332 0.156676 5.00634e-16)
(0.47546 0.237196 3.773e-16)
(-0.114029 0.314176 1.98912e-16)
(-1.19844 0.649724 -1.94829e-17)
(-2.07323 1.28453 -1.34918e-16)
(-0.0784754 -0.217598 1.21226e-17)
(-0.0941611 -0.222045 1.77903e-17)
(-0.107072 -0.225827 2.28601e-17)
(-0.119455 -0.229499 2.34808e-17)
(-0.13164 -0.233362 1.91515e-17)
(-0.143891 -0.237463 7.27916e-18)
(-0.156347 -0.241814 -6.93851e-18)
(-0.169125 -0.246413 -1.78199e-17)
(-0.182315 -0.251252 -2.23552e-17)
(-0.195992 -0.256325 -1.87376e-17)
(-0.210219 -0.261627 -3.6154e-18)
(-0.225057 -0.267156 2.27687e-17)
(-0.240558 -0.272913 5.2343e-17)
(-0.256776 -0.278904 7.71054e-17)
(-0.27376 -0.285135 8.36969e-17)
(-0.291564 -0.291619 5.82689e-17)
(-0.310239 -0.298371 7.54372e-18)
(-0.329839 -0.30541 -3.47701e-17)
(-0.350425 -0.31276 -4.64426e-17)
(-0.372056 -0.320446 -1.21254e-17)
(-0.394795 -0.328497 6.90959e-18)
(-0.418707 -0.336944 -1.60369e-17)