/*--------------------------------*- C++ -*----------------------------------*\
  =========                 |
  \\      /  F ield         | OpenFOAM: The Open Source CFD Toolbox
   \\    /   O peration     | Website:  https://openfoam.org
    \\  /    A nd           | Version:  13
     \\/     M anipulation  |
\*---------------------------------------------------------------------------*/
FoamFile
{
    format      ascii;
    class       surfaceVectorField;
    location    "0.0004";
    object      Uf;
}
// * * * * * * * * * * * * * * * * * * * * * * * * * * * * * * * * * * * * * //

dimensions      [0 1 -1 0 0 0 0];

internalField   nonuniform List<vector> 
3252
(
(0.486033 -0.00317515 1.25085e-17)
(0.473987 -0.00256251 5.43735e-18)
(0.520356 -0.00636777 3.21535e-17)
(0.496114 -0.0077654 1.9749e-17)
(0.57801 -0.00950979 5.93089e-17)
(0.542812 -0.013044 6.06605e-17)
(0.657897 -0.0121559 7.36962e-17)
(0.611883 -0.0180739 1.26061e-16)
(0.75404 -0.0140392 8.24266e-17)
(0.703691 -0.0217497 1.23003e-16)
(0.861338 -0.0136376 8.61529e-17)
(0.802199 -0.0242569 1.50592e-16)
(0.953058 -0.00927202 5.35996e-17)
(0.923239 -0.0204871 9.23019e-17)
(0.979246 -0.0093898 3.72856e-17)
(0.483602 -0.00820549 1.27343e-17)
(0.47034 -0.00513372 8.24115e-18)
(0.517956 -0.0165501 5.36234e-17)
(0.492469 -0.0155416 1.64521e-17)
(0.575701 -0.024756 1.50113e-16)
(0.53929 -0.0261188 9.33404e-17)
(0.655812 -0.0318062 2.09258e-16)
(0.608923 -0.0362234 2.123e-16)
(0.753995 -0.0366535 2.27404e-16)
(0.701541 -0.044192 1.96432e-16)
(0.860727 -0.0358802 1.80736e-16)
(0.801934 -0.0483221 2.33101e-16)
(0.957252 -0.0243989 8.74951e-17)
(0.92446 -0.0425872 7.98389e-17)
(0.979542 -0.0175212 3.31838e-17)
(0.478947 -0.0130872 1.18814e-17)
(0.464479 -0.00770371 6.25267e-18)
(0.51338 -0.0263931 5.64236e-17)
(0.486599 -0.0233447 1.83136e-17)
(0.571448 -0.0395343 1.56068e-16)
(0.533586 -0.0393086 8.34173e-17)
(0.652426 -0.0511135 1.98496e-16)
(0.60393 -0.0546835 1.72802e-16)
(0.752503 -0.0587943 1.99588e-16)
(0.698089 -0.0671943 1.25177e-16)
(0.861031 -0.0578438 1.28352e-16)
(0.801184 -0.0731067 1.40606e-16)
(0.959291 -0.0389367 2.21665e-17)
(0.926413 -0.0649836 -5.96738e-17)
(0.98072 -0.0252522 -5.0629e-17)
(0.471892 -0.0182126 1.2734e-17)
(0.456229 -0.010269 1.48862e-18)
(0.506385 -0.0367982 4.46266e-17)
(0.478295 -0.0311655 1.20537e-17)
(0.564899 -0.0553016 9.6727e-17)
(0.525426 -0.0526489 5.34613e-17)
(0.647196 -0.071889 9.34229e-17)
(0.596624 -0.0735958 7.68973e-17)
(0.749903 -0.0828387 5.8023e-17)
(0.693056 -0.0910565 1.78059e-17)
(0.861816 -0.08152 -5.69374e-17)
(0.799979 -0.0991066 -3.76048e-18)
(0.961848 -0.0541617 -1.42472e-16)
(0.929454 -0.0878659 -2.09029e-16)
(0.9831 -0.0322943 -1.41637e-16)
(0.4624 -0.0233732 2.78338e-19)
(0.445588 -0.0128149 -3.68916e-18)
(0.496888 -0.0473666 1.98333e-17)
(0.467509 -0.0389771 1.92513e-18)
(0.555883 -0.0715275 3.08272e-17)
(0.514687 -0.0661447 1.78989e-17)
(0.639889 -0.0935832 -2.81246e-18)
(0.586807 -0.0930867 -4.70654e-18)
(0.746195 -0.108305 -4.85035e-17)
(0.686202 -0.116133 -5.859e-17)
(0.863137 -0.106396 -1.59025e-16)
(0.79838 -0.126874 -7.36165e-17)
(0.965573 -0.0694307 -2.15043e-16)
(0.934041 -0.111526 -2.29606e-16)
(0.986785 -0.0382325 -1.64763e-16)
(0.450467 -0.0285111 -2.12351e-18)
(0.432575 -0.0153203 -2.87166e-18)
(0.48482 -0.0580053 -7.03108e-19)
(0.454221 -0.04673 -4.54282e-19)
(0.544229 -0.0881584 -1.93291e-17)
(0.50124 -0.0797625 -1.11107e-17)
(0.630252 -0.116311 -6.24983e-17)
(0.57421 -0.113252 -6.19494e-17)
(0.741282 -0.135528 -8.49287e-17)
(0.677188 -0.142827 -9.95886e-17)
(0.865302 -0.132782 -1.4279e-16)
(0.796456 -0.157133 -6.55653e-17)
(0.970993 -0.0845624 -1.81844e-16)
(0.940917 -0.136296 -1.52865e-16)
(0.992127 -0.0425033 -1.35733e-16)
(0.436099 -0.0335798 -1.17586e-18)
(0.417234 -0.0177549 -3.33917e-18)
(0.470102 -0.0686505 -1.11549e-17)
(0.438417 -0.0543413 -2.70341e-18)
(0.529703 -0.1052 -5.4723e-17)
(0.484923 -0.0934108 -2.78026e-17)
(0.617915 -0.14032 -1.00092e-16)
(0.558454 -0.134137 -1.00539e-16)
(0.734976 -0.165126 -8.01004e-17)
(0.665483 -0.171604 -1.16632e-16)
(0.868825 -0.161263 -7.32318e-17)
(0.794175 -0.190885 -2.58483e-17)
(0.978838 -0.0994185 -1.05582e-16)
(0.950927 -0.162576 -6.5328e-17)
(0.999659 -0.0443077 -9.54444e-17)
(0.419319 -0.0385102 -4.95737e-18)
(0.39964 -0.0200761 -3.58128e-18)
(0.452641 -0.0791873 -1.95524e-17)
(0.420104 -0.0616841 -5.74523e-18)
(0.511991 -0.122592 -7.40818e-17)
(0.465551 -0.106912 -3.73228e-17)
(0.602316 -0.165862 -1.17495e-16)
(0.539002 -0.155686 -1.17343e-16)
(0.726852 -0.197921 -6.19723e-17)
(0.650164 -0.202978 -1.09468e-16)
(0.874084 -0.192628 -1.63879e-17)
(0.790798 -0.22944 -2.24253e-18)
(0.989791 -0.113765 -5.2183e-17)
(0.963624 -0.190879 -2.33437e-17)
(1.00976 -0.0426316 -7.43314e-17)
(0.400188 -0.0432017 -4.35656e-18)
(0.379922 -0.0222273 -7.72563e-19)
(0.432354 -0.0894243 -2.36004e-17)
(0.399337 -0.0685767 -4.37801e-18)
(0.49068 -0.140159 -8.07219e-17)
(0.442926 -0.119958 -4.20659e-17)
(0.582528 -0.19314 -1.09141e-16)
(0.515103 -0.177639 -1.12685e-16)
(0.71562 -0.234893 -4.95087e-17)
(0.629524 -0.237297 -8.94389e-17)
(0.8796 -0.227891 -8.94491e-18)
(0.783155 -0.273978 -2.47382e-18)
(1.00301 -0.127449 -4.23329e-17)
(0.973655 -0.22197 -1.39359e-17)
(1.02149 -0.0368227 -6.54061e-17)
(0.378824 -0.0475171 -7.26516e-19)
(0.358271 -0.0241379 8.78067e-19)
(0.409186 -0.0990644 -2.28292e-17)
(0.376237 -0.0747708 -2.44907e-18)
(0.465223 -0.157511 -7.39021e-17)
(0.416871 -0.132051 -4.0946e-17)
(0.556952 -0.222046 -9.26777e-17)
(0.485754 -0.199306 -9.47056e-17)
(0.69768 -0.276678 -4.22945e-17)
(0.600582 -0.274056 -6.83677e-17)
(0.878334 -0.268205 -7.3868e-18)
(0.763342 -0.324187 -6.57801e-18)
(1.0127 -0.141318 -3.38321e-17)
(0.966606 -0.257122 -4.25101e-18)
(1.0303 -0.0284168 -4.5366e-17)
(0.355424 -0.0512785 -8.46497e-19)
(0.334964 -0.0257248 2.41156e-19)
(0.383147 -0.10766 -2.05273e-17)
(0.351026 -0.0799478 -2.72309e-18)
(0.434965 -0.173833 -6.15424e-17)
(0.387331 -0.142427 -3.72591e-17)
(0.523125 -0.25146 -7.00177e-17)
(0.449983 -0.219265 -7.86216e-17)
(0.665807 -0.322027 -3.25045e-17)
(0.559303 -0.310764 -5.34603e-17)
(0.854965 -0.314004 -3.383e-18)
(0.719065 -0.376367 -9.62117e-18)
(1.00491 -0.158383 -1.29907e-17)
(0.920717 -0.298134 8.24148e-18)
(1.02587 -0.0240812 -1.84194e-17)
(0.330286 -0.0542678 -1.6476e-18)
(0.310354 -0.0268991 -1.86765e-19)
(0.354407 -0.114583 -1.94382e-17)
(0.324069 -0.0837456 -4.89352e-18)
(0.399513 -0.187721 -5.42268e-17)
(0.35463 -0.150118 -3.48916e-17)
(0.478565 -0.278498 -6.19425e-17)
(0.407749 -0.235272 -6.5666e-17)
(0.610907 -0.36588 -3.05593e-17)
(0.502688 -0.342251 -4.88167e-17)
(0.790892 -0.362977 2.02761e-18)
(0.640288 -0.423003 -1.16668e-17)
(0.960399 -0.183051 4.69404e-18)
(0.819562 -0.34646 2.02951e-17)
(0.99117 -0.0373188 9.34413e-18)
(0.303823 -0.0562498 -3.45788e-18)
(0.284861 -0.0275829 -4.0543e-19)
(0.323478 -0.119131 -2.03597e-17)
(0.295916 -0.0858555 -6.68423e-18)
(0.359603 -0.197444 -4.62192e-17)
(0.319811 -0.154288 -3.10765e-17)
(0.423285 -0.298857 -5.24081e-17)
(0.361002 -0.244881 -5.31926e-17)
(0.528866 -0.400135 -2.99252e-17)
(0.432509 -0.361857 -4.04366e-17)
(0.678048 -0.409559 6.57813e-18)
(0.529567 -0.455331 -1.10233e-17)
(0.864612 -0.2193 2.59125e-17)
(0.667567 -0.400726 2.733e-17)
(0.898158 -0.0863468 3.28188e-17)
(0.276575 -0.0570744 -3.63404e-18)
(0.258922 -0.0277425 -3.57388e-19)
(0.291399 -0.120903 -1.73626e-17)
(0.267321 -0.0861908 -5.78381e-18)
(0.317675 -0.201638 -3.79435e-17)
(0.284707 -0.154733 -2.37451e-17)
(0.361639 -0.308026 -4.10759e-17)
(0.313585 -0.246572 -4.10086e-17)
(0.428194 -0.41756 -2.14333e-17)
(0.357707 -0.365047 -3.36243e-17)
(0.528324 -0.448411 9.68758e-18)
(0.407195 -0.466471 -9.95083e-18)
(0.713232 -0.287888 3.39938e-17)
(0.489296 -0.452643 2.50286e-17)
(0.718266 -0.190116 3.61396e-17)
(0.249158 -0.0568718 -2.49355e-18)
(0.232982 -0.0274223 -4.94099e-19)
(0.259633 -0.120277 -1.21036e-17)
(0.239296 -0.0850264 -4.11865e-18)
(0.27702 -0.200402 -2.66757e-17)
(0.251536 -0.152023 -1.51862e-17)
(0.301724 -0.30485 -3.34665e-17)
(0.270268 -0.24094 -2.83575e-17)
(0.329976 -0.414829 -2.21567e-17)
(0.292092 -0.353068 -3.25237e-17)
(0.371104 -0.474193 5.27348e-18)
(0.304425 -0.453353 -1.38384e-17)
(0.513492 -0.395211 2.63782e-17)
(0.333474 -0.484337 1.7674e-17)
(0.491127 -0.363962 3.20989e-17)
(0.946252 0.0362483 -8.50094e-15)
(0.92669 0.0463112 -9.91079e-15)
(0.865095 0.0436533 -9.98311e-16)
(0.943736 0.0669905 -2.52507e-15)
(0.778579 0.0431965 2.52666e-15)
(0.80228 0.0687637 4.22678e-15)
(0.693146 0.0409244 2.42983e-15)
(0.736635 0.0654568 3.13199e-15)
(0.609601 0.0382244 -1.18231e-15)
(0.647142 0.0617151 3.82697e-15)
(0.529554 0.0350247 -1.02285e-14)
(0.565095 0.0570125 -9.84513e-16)
(0.454211 0.0315277 -1.8704e-14)
(0.487023 0.0517396 -1.29541e-14)
(0.384552 0.0278824 -1.4962e-14)
(0.414448 0.0461224 -1.71236e-14)
(0.321272 0.0242343 -5.85097e-15)
(0.348093 0.0403978 -6.06277e-15)
(0.264767 0.020711 -5.41296e-15)
(0.288482 0.0347799 8.92573e-16)
(0.215145 0.017416 -1.06104e-14)
(0.235816 0.0294498 -2.45319e-15)
(0.172246 0.0144253 -1.57463e-14)
(0.190025 0.0245469 -5.14168e-15)
(0.135693 0.0117876 -1.84344e-14)
(0.150803 0.0201667 -1.15553e-14)
(0.104933 0.00952671 -9.78854e-15)
(0.117651 0.0163631 -1.38279e-14)
(0.0792832 0.00764717 -2.75419e-15)
(0.089932 0.0131553 -5.43606e-17)
(0.0579761 0.00614142 -3.90473e-15)
(0.0669091 0.0105367 -1.53175e-15)
(0.04017 0.00500406 9.23208e-15)
(0.047784 0.0084899 1.32295e-15)
(0.0249086 0.00422924 2.45226e-14)
(0.0316541 0.00701595 1.59341e-14)
(0.011156 0.00350777 1.49746e-14)
(0.0174583 0.00609581 2.078e-14)
(0.00479199 0.00476567 2.2746e-15)
(0.945804 0.0867502 -2.89907e-15)
(0.926246 0.0899083 -2.77167e-15)
(0.862075 0.104172 3.54003e-15)
(0.940403 0.132261 6.97703e-16)
(0.775129 0.102737 5.48237e-15)
(0.797381 0.133172 4.92292e-15)
(0.688211 0.0975882 5.08187e-15)
(0.729572 0.127912 2.24098e-15)
(0.603831 0.0909811 5.5473e-15)
(0.638714 0.119958 5.29918e-15)
(0.523237 0.0833133 -1.66621e-15)
(0.555626 0.110563 4.09924e-15)
(0.447658 0.0749386 -9.29077e-15)
(0.477041 0.100066 -3.80899e-15)
(0.378048 0.0662193 -6.65512e-15)
(0.404416 0.0889541 -7.8336e-15)
(0.315058 0.0575022 2.28948e-15)
(0.338413 0.0776906 -3.29524e-15)
(0.259032 0.049093 6.44057e-15)
(0.279468 0.0666966 3.09504e-15)
(0.210016 0.0412388 6.77009e-15)
(0.22769 0.0563194 4.57354e-15)
(0.167794 0.0341198 3.20725e-15)
(0.182917 0.0468199 5.21154e-15)
(0.131939 0.0278498 -3.78378e-15)
(0.144761 0.0383706 -3.42491e-16)
(0.10186 0.0224833 -2.86982e-15)
(0.112661 0.0310628 -3.62997e-15)
(0.0768507 0.0180278 2.26516e-15)
(0.0859343 0.0249215 7.89025e-16)
(0.056129 0.0144626 5.68933e-15)
(0.0638206 0.0199233 2.37968e-15)
(0.038852 0.0117729 7.35913e-15)
(0.0455125 0.0160263 4.77156e-15)
(0.0240711 0.00994493 8.73764e-15)
(0.0301143 0.0132264 5.79771e-15)
(0.0107575 0.00823547 6.6457e-15)
(0.0165896 0.011488 1.33177e-14)
(0.00454614 0.00895588 4.49559e-15)
(0.943333 0.138393 9.38553e-16)
(0.926473 0.133438 1.58676e-15)
(0.856903 0.16571 1.9215e-15)
(0.934769 0.195582 2.62453e-15)
(0.767285 0.16284 1.53751e-15)
(0.789115 0.19605 8.33294e-16)
(0.678281 0.154472 2.26448e-15)
(0.718629 0.187982 2.0664e-16)
(0.592353 0.143447 3.78678e-15)
(0.625094 0.175596 7.73191e-16)
(0.510816 0.13087 2.29469e-15)
(0.540654 0.161214 1.75075e-15)
(0.434905 0.117242 -1.91728e-15)
(0.461381 0.145279 1.17246e-15)
(0.365513 0.103175 -4.44842e-15)
(0.388808 0.12857 -1.78768e-15)
(0.303196 0.0892248 -2.85836e-15)
(0.323468 0.111785 -2.45542e-15)
(0.24818 0.0758727 9.31207e-16)
(0.265655 0.0955439 -5.41274e-16)
(0.20039 0.063493 2.80937e-15)
(0.215323 0.0803376 2.63993e-15)
(0.159503 0.0523472 1.68873e-15)
(0.172166 0.0665216 2.11559e-15)
(0.124997 0.0425896 5.95155e-17)
(0.135673 0.0543162 1.64398e-17)
(0.0962159 0.0342823 9.34112e-17)
(0.105192 0.0438239 -5.36782e-16)
(0.0724088 0.0274168 8.02917e-16)
(0.079977 0.0350531 3.5757e-16)
(0.0527741 0.0219443 1.19833e-15)
(0.0592345 0.0279472 6.50574e-16)
(0.0364693 0.0178285 2.97679e-15)
(0.0421493 0.0224276 1.84114e-16)
(0.0225661 0.0150393 1.0318e-14)
(0.0278414 0.0184738 9.15508e-16)
(0.0100757 0.0124397 1.15714e-14)
(0.0153145 0.0160237 9.42175e-15)
(0.00419127 0.0124748 1.96542e-15)
(0.939791 0.191073 3.28683e-15)
(0.926834 0.177689 2.45587e-15)
(0.849192 0.227815 1.56457e-15)
(0.9269 0.258631 1.73366e-15)
(0.755773 0.223105 -5.17958e-16)
(0.777645 0.258246 -4.90273e-16)
(0.663761 0.210889 -1.35105e-15)
(0.703585 0.246623 -1.08598e-15)
(0.575705 0.194975 -1.36048e-15)
(0.606534 0.229226 -2.09983e-15)
(0.492955 0.17704 6.12992e-16)
(0.520504 0.209334 -1.06256e-15)
(0.416729 0.157805 1.40761e-15)
(0.44052 0.18755 1.56557e-15)
(0.347808 0.138157 2.9098e-16)
(0.368238 0.164992 8.92259e-16)
(0.286588 0.118869 -1.30957e-16)
(0.303974 0.142604 2.80327e-16)
(0.233114 0.100584 1.11223e-15)
(0.247814 0.121186 4.08418e-17)
(0.187134 0.0837813 1.94228e-15)
(0.199496 0.101345 1.43341e-15)
(0.148167 0.068776 4.62584e-16)
(0.158521 0.0834913 6.11645e-16)
(0.115569 0.055735 -5.79678e-16)
(0.124227 0.0678558 -9.01936e-16)
(0.0885938 0.0447035 -2.94957e-16)
(0.0958471 0.054518 -9.51768e-16)
(0.06644 0.0356368 1.90385e-16)
(0.0725662 0.0434427 1.8752e-16)
(0.0482845 0.0284432 -3.79596e-16)
(0.0535569 0.0345205 1.45094e-15)
(0.033291 0.0230534 -1.96716e-15)
(0.0380017 0.0276227 2.03094e-15)
(0.0205628 0.0194109 -3.00506e-16)
(0.0250468 0.0227 4.48674e-16)
(0.00916395 0.0160318 -2.29865e-16)
(0.0137497 0.0196567 1.58377e-15)
(0.00375336 0.015277 -5.36137e-16)
(0.934984 0.244771 9.17464e-16)
(0.92701 0.223634 6.51398e-16)
(0.838816 0.290268 -2.79942e-16)
(0.916603 0.322523 -1.27852e-15)
(0.740505 0.283022 -1.04757e-15)
(0.762816 0.320527 -1.30185e-15)
(0.644711 0.266159 -1.81642e-15)
(0.684212 0.304429 -1.66484e-15)
(0.554118 0.244662 -1.82099e-15)
(0.583093 0.281186 -1.55406e-15)
(0.470076 0.220781 -1.58193e-16)
(0.495418 0.255068 -5.11745e-16)
(0.393732 0.195512 1.06238e-15)
(0.414896 0.226885 9.44924e-16)
(0.325674 0.170047 8.92982e-16)
(0.343313 0.19815 1.68978e-16)
(0.266064 0.145369 4.56703e-16)
(0.280658 0.170043 -3.41525e-17)
(0.214697 0.122255 3.36338e-16)
(0.226733 0.143519 -5.5542e-16)
(0.17109 0.101248 1.17113e-16)
(0.181002 0.119254 -9.68076e-16)
(0.134571 0.0826754 -7.25692e-16)
(0.142739 0.0976672 -7.99826e-16)
(0.104352 0.0666777 -1.27336e-15)
(0.111106 0.0789525 -1.82222e-16)
(0.0795896 0.0532502 -4.90139e-16)
(0.0852201 0.063129 -2.57782e-16)
(0.059431 0.0422879 1.42547e-15)
(0.0641956 0.0500899 2.09195e-16)
(0.0430385 0.0336388 3.85241e-15)
(0.0471803 0.0396531 1.76405e-15)
(0.0295918 0.0271877 4.47793e-15)
(0.0333645 0.0316272 4.18484e-15)
(0.0182383 0.0228425 2.31317e-15)
(0.0219334 0.0259234 4.17379e-15)
(0.00811042 0.018834 1.31705e-15)
(0.0120121 0.0224064 -1.16007e-16)
(0.00326975 0.0173815 -2.21468e-15)
(0.928699 0.300281 -1.48268e-15)
(0.926815 0.272262 -3.93826e-16)
(0.825489 0.353665 -2.28323e-15)
(0.903538 0.388194 -2.43777e-15)
(0.721226 0.34291 -1.90529e-15)
(0.744272 0.383497 -1.692e-15)
(0.621007 0.320407 -1.40792e-15)
(0.660173 0.361755 -1.65253e-15)
(0.527656 0.292445 -2.76748e-16)
(0.554675 0.331597 -5.22592e-16)
(0.442453 0.261913 5.588e-16)
(0.465517 0.29838 9.26764e-16)
(0.366379 0.230127 7.39488e-17)
(0.384845 0.263164 1.11667e-15)
(0.299727 0.198608 -7.40775e-16)
(0.314551 0.227903 -6.58132e-16)
(0.242331 0.168521 -1.02437e-15)
(0.254156 0.193985 -1.05443e-15)
(0.193668 0.14073 -1.83414e-15)
(0.203103 0.162469 -1.31153e-15)
(0.152982 0.115792 -1.87144e-15)
(0.160535 0.13404 -1.90096e-15)
(0.119384 0.0939921 -2.71424e-16)
(0.125471 0.109065 -8.68146e-16)
(0.0919351 0.0754014 8.17236e-16)
(0.0968952 0.0876521 2.1731e-16)
(0.0697005 0.0599321 4.25371e-16)
(0.0738096 0.0697216 2.98305e-16)
(0.0517843 0.0473956 5.26938e-16)
(0.0552747 0.0550679 -3.49655e-16)
(0.0373464 0.0375649 2.06727e-15)
(0.0404263 0.0434199 8.17421e-16)
(0.025595 0.0302686 3.88586e-15)
(0.0284771 0.0345131 1.4097e-15)
(0.0157353 0.0253716 1.82693e-15)
(0.0186645 0.0282115 3.25435e-15)
(0.00697981 0.0208812 -3.56828e-15)
(0.010194 0.0243364 -7.91366e-16)
(0.00276568 0.018842 -3.91319e-15)
(0.920641 0.358548 -1.30695e-15)
(0.926018 0.324623 -2.7649e-16)
(0.808783 0.418713 -1.8664e-15)
(0.887222 0.456488 -1.30963e-15)
(0.697512 0.403162 -1.44641e-15)
(0.721487 0.447623 -6.90445e-16)
(0.592378 0.373768 -7.96428e-16)
(0.631006 0.418752 -6.8525e-16)
(0.496268 0.338275 6.41572e-16)
(0.521093 0.380388 3.64085e-17)
(0.41027 0.300282 1.46838e-15)
(0.430869 0.339076 1.3242e-15)
(0.335066 0.261471 4.12205e-16)
(0.350674 0.296161 1.24544e-15)
(0.270514 0.223689 -9.61455e-16)
(0.28244 0.254064 -4.05833e-16)
(0.216022 0.188226 -1.33257e-15)
(0.225063 0.214313 -9.92021e-16)
(0.170685 0.155973 -1.37407e-15)
(0.177563 0.177997 -8.35033e-16)
(0.133442 0.127428 -9.29741e-16)
(0.138718 0.145731 -5.58911e-16)
(0.103181 0.102779 -3.97439e-16)
(0.107291 0.117763 -3.32007e-16)
(0.0788184 0.0819835 -2.87567e-16)
(0.0820933 0.0940637 -1.63802e-15)
(0.0593424 0.0648381 -4.5256e-16)
(0.062035 0.0744184 -1.9794e-15)
(0.0438318 0.0510511 -7.20378e-17)
(0.0461411 0.0585005 -1.1218e-15)
(0.0314609 0.0403093 1.75641e-16)
(0.0335561 0.0459378 2.75923e-17)
(0.0214813 0.0323776 7.88099e-16)
(0.0235312 0.0363875 -9.90237e-18)
(0.0131681 0.0270739 7.25335e-16)
(0.0153694 0.0296611 1.33037e-15)
(0.00582427 0.0222404 -1.11346e-15)
(0.00836805 0.0255362 -5.5701e-16)
(0.0022614 0.0197323 -7.87287e-16)
(0.910392 0.420519 -2.75252e-16)
(0.924294 0.381887 -1.02308e-16)
(0.788101 0.486006 -1.75783e-16)
(0.866995 0.528195 6.83702e-17)
(0.668798 0.46399 4.37161e-17)
(0.693766 0.513231 6.48961e-16)
(0.558465 0.426169 1.17908e-16)
(0.596159 0.475368 3.50238e-16)
(0.459863 0.381915 6.94588e-16)
(0.482135 0.427301 1.85231e-16)
(0.373711 0.3356 1.10918e-15)
(0.391559 0.376818 5.29598e-16)
(0.300196 0.289291 4.56718e-16)
(0.312719 0.325572 6.50551e-16)
(0.238579 0.245115 -4.3521e-16)
(0.247492 0.276425 -4.58054e-17)
(0.187747 0.204405 -5.1216e-16)
(0.193975 0.230932 -1.78787e-16)
(0.146361 0.167987 -4.88402e-17)
(0.150719 0.19011 -1.02642e-17)
(0.113042 0.136224 1.75795e-17)
(0.116123 0.154412 1.80424e-16)
(0.0864658 0.109147 -1.52835e-15)
(0.088703 0.123896 -1.55823e-16)
(0.0654271 0.086555 -3.26978e-15)
(0.0671282 0.0983458 -2.22356e-15)
(0.0488602 0.0681043 -2.62506e-15)
(0.0502437 0.0773829 -3.24349e-15)
(0.035843 0.0533851 -1.02591e-15)
(0.0370677 0.0605437 -2.15317e-15)
(0.0255837 0.0419918 -1.51362e-16)
(0.0267758 0.0473488 -1.56477e-15)
(0.0173921 0.0336226 5.12897e-16)
(0.0186754 0.0373761 -2.58411e-16)
(0.0106252 0.028047 9.38559e-17)
(0.0121472 0.0303838 -3.30032e-16)
(0.00468382 0.0229969 -2.4234e-16)
(0.0065889 0.0261072 -1.25225e-15)
(0.00177202 0.0201351 8.92694e-16)
(0.897386 0.487197 2.26994e-16)
(0.921184 0.445409 -2.06093e-16)
(0.762668 0.556041 8.60493e-16)
(0.841998 0.604055 6.04464e-16)
(0.6344 0.525425 9.42067e-16)
(0.660251 0.580472 1.16968e-15)
(0.518869 0.477344 4.14341e-16)
(0.555022 0.531334 7.01558e-16)
(0.418377 0.42298 2.79704e-17)
(0.43762 0.471902 -4.24956e-17)
(0.333015 0.367489 9.01795e-17)
(0.347734 0.411157 -2.99418e-16)
(0.262221 0.313302 1.66822e-16)
(0.27139 0.351053 -7.35737e-17)
(0.204491 0.262732 1.99699e-16)
(0.210262 0.294792 4.69692e-17)
(0.158107 0.217026 3.02905e-16)
(0.161493 0.243791 4.13205e-16)
(0.12127 0.176836 2.1008e-16)
(0.123153 0.198873 3.25853e-16)
(0.092295 0.14231 1.32454e-17)
(0.0932685 0.160224 -8.79345e-17)
(0.0696744 0.113259 -8.28043e-16)
(0.0701477 0.127645 -2.62082e-16)
(0.0521153 0.0892901 -2.20114e-15)
(0.0523567 0.100694 -1.12529e-15)
(0.0385324 0.0698997 -2.78807e-15)
(0.0387157 0.0788055 -1.88687e-15)
(0.0280295 0.0545527 -2.66825e-15)
(0.0282672 0.0613719 -1.9178e-15)
(0.0198692 0.0427499 -1.66386e-15)
(0.0202422 0.0478066 -1.57762e-15)
(0.0134344 0.0341242 -1.06683e-15)
(0.01402 0.0376119 -7.20446e-16)
(0.00817271 0.0283984 -1.62323e-15)
(0.00906985 0.030495 -7.43837e-16)
(0.00358776 0.0232428 -1.58315e-16)
(0.0048958 0.0261534 -3.35134e-16)
(0.00130818 0.020134 1.65648e-15)
(0.88086 0.559686 1.55168e-16)
(0.916047 0.516798 -3.5901e-16)
(0.731507 0.629204 9.02142e-16)
(0.811119 0.684757 6.15649e-16)
(0.593532 0.587303 9.37829e-16)
(0.619915 0.649286 1.10447e-15)
(0.473196 0.526836 2.61848e-16)
(0.506972 0.586149 6.01868e-16)
(0.371816 0.46095 -3.56248e-16)
(0.387446 0.513587 -6.40454e-17)
(0.288509 0.395513 -4.546e-16)
(0.299652 0.441557 -3.65724e-16)
(0.221661 0.33323 -1.87374e-16)
(0.227187 0.372251 -2.99598e-16)
(0.168847 0.276432 2.52564e-16)
(0.171354 0.309011 -4.64798e-18)
(0.127693 0.226117 4.34677e-16)
(0.128223 0.252902 5.28347e-16)
(0.095946 0.182648 3.93618e-17)
(0.0954126 0.204413 2.31449e-16)
(0.071653 0.145866 -3.51587e-16)
(0.0706173 0.16336 -5.7912e-16)
(0.0531722 0.115318 -5.50063e-16)
(0.0519966 0.129232 -8.89267e-16)
(0.0391686 0.0903908 -8.29101e-16)
(0.0380668 0.10133 -7.71243e-16)
(0.0285754 0.0704115 -1.05638e-15)
(0.0276673 0.0788912 -9.99114e-16)
(0.0205505 0.0547195 -8.75148e-16)
(0.0198981 0.0611659 -8.95978e-16)
(0.0144307 0.0427266 -6.72923e-16)
(0.0140676 0.0474663 3.94035e-16)
(0.00968453 0.0340049 -4.12272e-16)
(0.00964215 0.0372261 -2.09317e-16)
(0.00585675 0.0282355 4.87636e-16)
(0.00618667 0.0301071 7.09447e-17)
(0.00255625 0.0230696 1.4067e-15)
(0.00331494 0.0257745 1.26298e-15)
(0.000876826 0.0198083 1.23722e-15)
(0.859783 0.639208 8.17052e-17)
(0.907969 0.598007 -3.47961e-16)
(0.693414 0.705733 8.11171e-16)
(0.772922 0.770884 5.80493e-16)
(0.545333 0.649221 7.81619e-16)
(0.571577 0.719344 9.47155e-16)
(0.42111 0.573989 2.8748e-16)
(0.451429 0.639058 4.66732e-16)
(0.320306 0.495198 -7.50756e-17)
(0.331647 0.551602 1.74064e-16)
(0.24064 0.419212 -2.17869e-16)
(0.247706 0.467438 -6.15526e-18)
(0.179113 0.348837 -1.23846e-16)
(0.180717 0.388851 -1.71879e-16)
(0.132269 0.286173 2.61197e-16)
(0.131415 0.318999 3.01524e-17)
(0.0970748 0.231779 3.33083e-16)
(0.094761 0.258351 4.80457e-16)
(0.0708713 0.185606 -3.62172e-16)
(0.0680004 0.206919 7.63983e-17)
(0.0515028 0.147117 -1.09255e-15)
(0.0485686 0.16406 -7.67183e-16)
(0.0372563 0.115555 -1.09883e-15)
(0.0345527 0.128906 -1.02076e-15)
(0.026808 0.0900745 -9.34455e-16)
(0.0244807 0.100487 -4.81936e-16)
(0.0191489 0.0698331 -8.45876e-16)
(0.0172571 0.0778487 -7.02684e-16)
(0.0135186 0.0540514 3.19691e-16)
(0.0120704 0.0601043 -5.65876e-16)
(0.00934541 0.0420615 8.30906e-16)
(0.00832704 0.0464768 1.20499e-15)
(0.00619283 0.0333826 2.52115e-16)
(0.00559091 0.0363424 1.45045e-16)
(0.0037071 0.0276601 8.16296e-16)
(0.00352785 0.0293242 -3.06804e-16)
(0.00160192 0.0225627 1.10162e-15)
(0.00186184 0.025062 8.61307e-16)
(0.000481921 0.0192303 4.82395e-16)
(0.832722 0.727129 1.28884e-16)
(0.895648 0.691473 -1.98293e-16)
(0.64694 0.785642 7.12299e-16)
(0.725547 0.862811 5.72097e-16)
(0.488904 0.710496 6.4468e-16)
(0.513936 0.789978 8.21854e-16)
(0.362392 0.617946 3.56814e-16)
(0.387922 0.689039 4.29979e-16)
(0.264137 0.525014 2.37959e-16)
(0.270442 0.585078 3.32869e-16)
(0.189986 0.438146 3.61132e-17)
(0.192452 0.488225 1.13347e-16)
(0.13524 0.359956 -2.42113e-17)
(0.132678 0.400616 -1.54191e-16)
(0.0953877 0.291993 2.41717e-16)
(0.0911171 0.324765 -3.82496e-17)
(0.0667893 0.234182 2.33778e-16)
(0.0616752 0.260306 2.28709e-16)
(0.0464701 0.185948 -3.14492e-16)
(0.041363 0.20664 -9.02134e-17)
(0.0321629 0.14632 -7.01166e-16)
(0.0274528 0.162595 -5.0538e-16)
(0.0221571 0.114218 -4.31422e-16)
(0.0180508 0.12693 -4.35613e-16)
(0.0151948 0.0885632 -2.63943e-16)
(0.0117593 0.0984044 8.59042e-18)
(0.010363 0.0683548 -4.36061e-16)
(0.00759189 0.0758815 -3.75146e-16)
(0.00700692 0.0527074 2.87963e-16)
(0.00485336 0.0583561 -4.76536e-16)
(0.00466048 0.0408856 5.46022e-16)
(0.00306375 0.0449761 7.96947e-16)
(0.00298867 0.0323656 -3.88619e-16)
(0.00189268 0.0350728 -2.55081e-16)
(0.00174025 0.0267645 -2.5466e-16)
(0.00110848 0.0282395 -1.48776e-15)
(0.000731471 0.0217994 2.71073e-16)
(0.000543701 0.0240971 -1.57596e-16)
(0.000125156 0.0184634 1.97256e-16)
(0.797637 0.824972 2.24991e-16)
(0.877188 0.800324 -1.10385e-16)
(0.590395 0.868613 6.77984e-16)
(0.666566 0.960496 5.73398e-16)
(0.423372 0.770124 6.15128e-16)
(0.445657 0.860122 7.96058e-16)
(0.29701 0.657668 4.06429e-16)
(0.316172 0.734805 4.76401e-16)
(0.203798 0.54966 2.12955e-16)
(0.204288 0.613082 2.19276e-16)
(0.137255 0.451938 -6.91557e-17)
(0.134612 0.503408 -1.42944e-16)
(0.0907572 0.366518 -1.66397e-16)
(0.0838514 0.407414 -2.92249e-16)
(0.05882 0.294023 -4.80838e-17)
(0.0511275 0.326422 -2.11955e-16)
(0.0373207 0.233563 -8.07371e-17)
(0.0294872 0.259012 -1.09864e-16)
(0.0230989 0.183952 -2.74635e-16)
(0.0158785 0.203871 -2.28126e-16)
(0.0138824 0.143751 -2.53523e-16)
(0.00752931 0.159263 -1.84951e-16)
(0.00804142 0.111557 -1.52524e-17)
(0.00265983 0.123574 -4.54916e-17)
(0.0044367 0.0860736 -1.00159e-16)
(7.57549e-06 0.0953129 3.61228e-17)
(0.00228481 0.0661571 -4.14374e-16)
(-0.00126614 0.0731813 -5.64184e-16)
(0.00105611 0.0508342 1.6748e-17)
(-0.00171838 0.056076 -5.96231e-16)
(0.000399638 0.0393172 2.93708e-17)
(-0.00170411 0.0430879 5.98963e-16)
(8.5272e-05 0.0310503 -1.30627e-15)
(-0.00144395 0.0335164 -1.92126e-16)
(-3.74283e-05 0.0256302 -1.38362e-15)
(-0.00106794 0.026934 -1.83645e-15)
(-5.37105e-05 0.0208465 -2.2416e-16)
(-0.000638684 0.0229499 -7.66022e-16)
(-0.000193542 0.0175612 1.66296e-16)
(0.751532 0.934431 2.22682e-16)
(0.849786 0.928711 -1.46932e-16)
(0.521901 0.953827 6.87105e-16)
(0.592773 1.06311 5.30981e-16)
(0.347974 0.826761 6.61821e-16)
(0.365526 0.928266 8.19784e-16)
(0.225191 0.69197 2.97083e-16)
(0.236166 0.774824 3.78344e-16)
(0.13999 0.568425 -1.20428e-16)
(0.133911 0.634683 -1.16294e-16)
(0.0832682 0.460318 -3.5509e-16)
(0.0750659 0.512594 -5.01218e-16)
(0.046398 0.368572 -3.34439e-16)
(0.0350611 0.409257 -4.51067e-16)
(0.0231456 0.292486 -2.69238e-16)
(0.0120815 0.32419 -2.78851e-16)
(0.00908786 0.230222 -2.50222e-16)
(-0.00134757 0.254784 -1.30608e-16)
(0.00104292 0.179929 -1.43015e-16)
(-0.00815054 0.198942 -4.50593e-17)
(-0.00316115 0.139697 1.28752e-17)
(-0.0110142 0.154371 1.71077e-16)
(-0.00498793 0.107821 3.84584e-18)
(-0.0115122 0.119103 1.23505e-16)
(-0.00541155 0.0828104 -4.08098e-16)
(-0.0107176 0.0914304 -5.2531e-17)
(-0.00505984 0.0634048 -7.36202e-16)
(-0.00929167 0.0699225 -6.59153e-16)
(-0.00432439 0.0485629 -3.43463e-17)
(-0.00763721 0.0534017 -6.24124e-16)
(-0.00343614 0.0374601 3.8176e-16)
(-0.00597791 0.0409197 4.41783e-16)
(-0.00251983 0.0295199 -7.09475e-16)
(-0.0044238 0.0317577 1.44132e-16)
(-0.0016281 0.0243267 -1.24243e-15)
(-0.00300654 0.0254761 -1.06994e-15)
(-0.000753485 0.0197611 -3.87909e-16)
(-0.00168904 0.0216786 -7.3647e-16)
(-0.000475444 0.0165692 8.34751e-17)
(0.690483 1.05731 1.48212e-16)
(0.809382 1.08195 -2.46682e-16)
(0.439532 1.03978 6.59176e-16)
(0.499968 1.16875 4.76591e-16)
(0.262166 0.87872 5.47736e-16)
(0.272695 0.99247 7.67998e-16)
(0.147483 0.719578 -1.67199e-17)
(0.148241 0.80738 1.6694e-16)
(0.073622 0.580705 -4.79434e-16)
(0.0603377 0.649051 -4.01211e-16)
(0.0289336 0.463179 -5.91121e-16)
(0.0148109 0.515554 -6.36767e-16)
(0.00276823 0.366286 -3.96775e-16)
(-0.0128689 0.406362 -4.46642e-16)
(-0.0111246 0.287672 -1.46557e-16)
(-0.0254507 0.31834 -1.19367e-16)
(-0.0175762 0.224498 6.36999e-17)
(-0.0304482 0.247989 1.53507e-16)
(-0.0195019 0.1742 2.53355e-16)
(-0.0305017 0.192201 3.82325e-16)
(-0.0188494 0.134438 2.74819e-16)
(-0.028058 0.148217 5.04104e-16)
(-0.0168644 0.103242 6.84263e-17)
(-0.0244105 0.113764 2.81985e-16)
(-0.014317 0.0789608 -2.95846e-16)
(-0.0204 0.0869553 1.6974e-16)
(-0.0116594 0.0602455 -5.53135e-16)
(-0.0164888 0.0662606 -1.67947e-16)
(-0.00913522 0.0460083 -1.63608e-16)
(-0.0129164 0.0504532 -3.91924e-16)
(-0.00685255 0.0354035 2.14535e-16)
(-0.00977345 0.0385637 8.16032e-17)
(-0.00483328 0.0278449 -2.09004e-16)
(-0.00706131 0.029868 9.45343e-17)
(-0.00303792 0.0229117 -5.89393e-16)
(-0.00471842 0.0239228 -2.64341e-16)
(-0.00137263 0.0185903 -2.83179e-16)
(-0.00261421 0.0203315 -2.94708e-16)
(-0.000722608 0.0155238 -1.60884e-16)
(0.609328 1.19559 6.76619e-17)
(0.750212 1.26674 -3.197e-16)
(0.341455 1.12417 5.82397e-16)
(0.382612 1.27406 4.31406e-16)
(0.165773 0.924031 4.02564e-16)
(0.166921 1.05038 5.97535e-16)
(0.0648247 0.739231 -2.01582e-16)
(0.05314 0.830659 -1.45461e-17)
(0.00554534 0.586024 -5.52046e-16)
(-0.0151372 0.655668 -5.17646e-16)
(-0.0248241 0.460525 -4.98564e-16)
(-0.0450916 0.512155 -5.49605e-16)
(-0.0391353 0.359967 -1.81728e-16)
(-0.0591396 0.398931 -3.13107e-16)
(-0.0435293 0.27997 1.66231e-16)
(-0.0609784 0.309368 3.27829e-17)
(-0.0424024 0.216765 4.56056e-16)
(-0.0575281 0.239035 3.65008e-16)
(-0.0383855 0.16709 6.19738e-16)
(-0.0510315 0.184002 6.92401e-16)
(-0.0331219 0.128244 5.0824e-16)
(-0.0435437 0.141093 7.16072e-16)
(-0.0275791 0.0980338 3.76015e-16)
(-0.0360256 0.107787 5.49245e-16)
(-0.0222963 0.0746918 2.86143e-16)
(-0.0290552 0.0820638 7.30354e-16)
(-0.0175392 0.0568073 -1.88586e-17)
(-0.0228838 0.0623296 5.76819e-16)
(-0.0134016 0.0432678 -1.55592e-16)
(-0.0175845 0.0473315 -6.86429e-17)
(-0.00987142 0.0332218 -3.11795e-17)
(-0.0131166 0.0360963 -1.60555e-16)
(-0.00687194 0.0260834 3.8242e-17)
(-0.00937739 0.0279056 -3.86705e-17)
(-0.00427785 0.021433 1.2635e-17)
(-0.0062186 0.02232 2.95101e-16)
(-0.00191609 0.0173723 -1.78048e-16)
(-0.00342304 0.0189474 1.05231e-16)
(-0.000937628 0.0144542 -4.18565e-16)
(0.501117 1.35096 2.80669e-17)
(0.665573 1.49149 -3.24277e-16)
(0.224594 1.2036 4.47675e-16)
(0.233482 1.37445 3.4044e-16)
(0.0591651 0.960402 1.97916e-16)
(0.0487401 1.09857 3.58957e-16)
(-0.0216966 0.749719 -3.17836e-16)
(-0.0479163 0.843025 -1.61941e-16)
(-0.0620613 0.584153 -5.15747e-16)
(-0.0909789 0.653736 -4.98434e-16)
(-0.077028 0.45262 -3.7237e-16)
(-0.103531 0.502906 -4.15878e-16)
(-0.0789993 0.350025 -1.07213e-16)
(-0.103046 0.387469 -1.83451e-16)
(-0.0737543 0.269823 2.2372e-16)
(-0.0941103 0.297708 1.81573e-17)
(-0.0652251 0.207403 5.91197e-16)
(-0.0824015 0.228333 2.78361e-16)
(-0.0555485 0.158914 7.8324e-16)
(-0.0696687 0.174683 6.39573e-16)
(-0.0459729 0.121361 7.52555e-16)
(-0.0574655 0.133264 6.85767e-16)
(-0.0371527 0.0923877 8.84536e-16)