/*--------------------------------*- C++ -*----------------------------------*\
  =========                 |
  \\      /  F ield         | OpenFOAM: The Open Source CFD Toolbox
   \\    /   O peration     | Website:  https://openfoam.org
    \\  /    A nd           | Version:  13
     \\/     M anipulation  |
\*---------------------------------------------------------------------------*/
FoamFile
{
    format      ascii;
    class       volScalarField;
    location    "2.65";
    object      alphas;
}
// * * * * * * * * * * * * * * * * * * * * * * * * * * * * * * * * * * * * * //

dimensions      [];

internalField   nonuniform List<scalar> 
2268
(
2
2
2
2
2
2
2
2
2
2
2
2
2
2
2
2
2
2
2
1.99999
1.99958
1.99943
1.99943
2
2
2
2
2
2
2
2
2
2
2
2
2
2
2
2
2
2
2
2
1.99991
1.99981
1.99984
2
2
2
2
2
2
2
2
2
2
2
2
2
2
2
2
2
2
2
2
2
2
2
2
2
2
2
2
2
2
2
2
2
2
2
2
2
2
2
2
2
2
2
2
2
2
1.96814
1.95694
1.95883
1.97087
1.98571
1.99694
2
2
2
2
2
2
2
2
2
2
2
2
2
2
2
2
2
0.64538
0.673744
0.703691
0.769614
0.876469
1.01933
1.19495
1.381
1.53534
1.67783
1.80497
1.90873
1.98086
2
2
2
2
2
2
2
2
2
2.00005
9.67834e-08
1.34281e-07
1.78265e-07
2.24087e-06
0.000129501
0.000562339
0.00207952
0.0176987
0.0858678
0.187308
0.325691
0.510714
0.751003
1.0602
1.37261
1.63511
1.83753
1.97431
1.99771
1.99927
2
2.00005
2.00051
1.04092e-07
2.52903e-07
1.86169e-07
3.3925e-07
1.39348e-05
9.17169e-06
1.79898e-06
8.76495e-07
2.82811e-07
1.10649e-07
1.01042e-07
9.57869e-08
1.28017e-07
0.010002
0.0604866
0.189613
0.39324
0.657691
1.0028
1.28661
1.45587
1.50152
1.4937
1.8682
1.86582
1.87254
1.89533
1.93713
1.84847
1.75989
1.75267
1.75691
1.76401
1.7675
1.74186
1.68158
1.7533
1.72772
1.65593
1.73505
1.77749
1.76768
1.68612
1.74137
1.78071
1.77146
1.77422
1.79689
1.85556
1.84897
1.89213
1.97744
1.91383
1.81959
1.82409
1.92658
1.9009
1.85828
1.77734
1.77702
1.76771
1.37053
1.32873
1.36702
1.36099
1.26697
1.17508
1.22341
1.23844
1.44566
2.17713
2.32823
2.10967
2.03952
2.22033
2.24927
2.00054
1.71046
1.60981
1.57937
0.67614
0.507414
0.650578
0.70794
0.764621
0.647897
0.36071
0.27706
0.336577
1.36581
2.28046
2.41289
2.39955
2.36338
2.32697
2.12214
1.63872
1.4744
1.7421
0.210233
0.204539
0.215382
0.296085
0.529416
0.823465
0.75911
0.599388
0.225041
0.111815
1.29442
2.04859
2.24565
2.18444
1.41995
0.700496
0.609861
0.406084
1.25474
0.209319
0.228017
0.20632
0.219502
0.64484
0.887532
0.950761
0.972429
0.37547
0.0231843
0.00171634
1.37071
2.03719
1.38177
0.225273
0.000227973
0.000247546
0.000258965
1.00495
0.241405
0.260557
0.247114
0.173519
0.750843
1.06721
1.08082
0.809043
0.149848
0.0167725
0.00116493
0.0537716
2.00088
1.01465
0.000309187
0.000289546
0.000355387
0.00233715
0.702151
0.221506
0.235614
0.230484
0.197054
0.607816
1.15765
1.11697
0.292571
0.00334799
0.00231503
0.00104608
0.0403591
1.43443
0.567332
0.00160731
0.000300025
0.00332656
0.0143153
0.572006
1.03542e-07
1.01801e-07
0.000200883
0.000313345
0.000158104
3.11481e-06
7.82345e-07
4.95925e-07
3.04828e-07
1.75689e-07
1.22776e-07
9.61841e-08
6.09192e-08
2.90704e-08
4.20125e-08
1.98029e-07
2.36073e-07
7.31395e-08
0.00120728
0.0156367
0.0377651
0.049353
0.0722897
0.0264368
0.0128363
0.00475631
0.00202203
6.96998e-05
1.58039e-07
6.04275e-08
4.85263e-09
3.73579e-09
3.70358e-09
3.85646e-09
2.89307e-09
1.7739e-09
2.02774e-09
3.54013e-09
8.36358e-09
1.67978e-08
2.99553e-08
1.09816e-05
0.000146849
0.000607004
0.0216633
0.0519858
0.336505
0.121764
0.0100128
0.00288373
4.98365e-05
5.14163e-07
0.00833255
0.0106314
0.00616959
0.00143089
9.18147e-06
0.000881379
0.00985619
0.0184848
0.0151591
0.00153006
0.000212429
0.00577977
0.0200127
0.0596651
0.170399
0.313185
0.514297
0.740447
0.666265
0.565998
0.508634
0.406678
0.348848
0.450595
0.478787
0.464748
0.461336
0.466746
0.495238
0.552936
0.589754
0.596429
0.616702
0.666752
0.744219
0.832991
0.906301
0.974641
1.01563
1.19674
1.21065
1.00832
1.00083
1.00007
1.01132
1.22806
1.24899
1.26125
1.29133
1.30378
1.32816
1.28054
1.20802
1.19533
1.23969
1.28956
1.23054
1.05916
1.02732
1.02714
1.00728
1.03407
1.13126
1.00049
0.999687
1.00042
1.00009
1.06647
1.10589
1.03039
1.00004
1.02218
1.04099
1.02289
1.01167
1.00512
1.00274
1.00801
1.00751
1
1
1
1
1.00346
1.00458
0.999999
1.00047
0.99928
0.99994
1
1
1
1
1
1
1
1
1
1
1
1
1
1
1
1
1
1
1
0.999999
1.26201
1.2402
1.17602
1.14295
1.11668
1.1236
1.1072
1.07766
1.07072
1.07363
1.08233
1.09634
1.11611
1.13948
1.16671
1.20249
1.24556
1.28913
1.32771
1.3578
1.37565
1.37503
1.35615
2.6887
2.71267
2.62542
2.54421
2.47744
2.40782
2.37766
2.38772
2.40026
2.41585
2.44413
2.48801
2.53845
2.58901
2.63898
2.6888
2.73566
2.77566
2.80742
2.83075
2.84406
2.84576
2.83283
2.99998
3
3
3
3
3
3
3
3
3
3
3
3
3
3
3
3
3
3
3
3
3
3
3
3
3
3
3
3
3
3
3
3
3
3
3
3
3
3
3
3
3
3
3
3
3
3
2.99999
2.99999
3
3
3
2.99999
2.99997
2.99997
3
3
3
3
3
3
3
3
3
3
3
3
3
3
2.99999
2.99998
2.99993
2.99996
3
3
2.99992
2.99967
2.99968
2.99997
3
3
3
3
3
3
3
3
3
3
3
3
3
3
2.99995
2.99989
2.99989
2.99998
3
2.9998
2.99967
2.99967
2.99969
2.99997
2.99999
3
3
3
3
3
3
3
3
3
3
3
3
2.99996
2.99989
2.99989
2.99998
3
2.99996
2.9997
2.99967
2.99967
2.99993
2.99999
2.99999
2.99999
2.99999
3
3
3
3
3
3
3
3
3
2.99999
2.99996
2.99996
3
3
3
2.99997
2.99987
2.99987
2.99999
2.99999
2.99999
2.99999
3
3
3
3
3
3
3
3
3
3
3
3
3
3
3
3
3
3
3
3
3
2.99999
2.99999
3
3
3
3
3
3
3
3
3
3
3
3
3
3
3
3
3
3
3
3
3
3
3
3
3
3
3
3
3
3
3
3
3
3
3
3
3
3
3
3
3
3
3
3
3
3
3
3
3
3
3
3
3
3
3
3
3
3
3
3
3
3
3
3
3
3
3
3
3
3
3
3
3
3
3
3
3
3
3
3
3
3
3
3
3
3
3
3
3
3
3
3
3
3
3
3
3
3
3
3
3
3
3
3
3
3
3
3
3
3
3
3
3
3
3
3
3
3
3
3
3
3
3
3
3
3
3
3
3
3
3
3
3
3
3
3
3
3
3
3
3
3
3
3
3
3
3
3
3
3
3
3
3
3
3
3
3
3
3
3
3
3
3
3
3
3
3
3
3
3
3
3
3
3
3
3
3
3
3
3
3
3
3
3
3
3
3
3
3
3
3
3
3
3
3
3
3
3
3
3
3
3
3
3
3
3
3
3
3
3
3
3
3
3
3
3
3
3
3
3
3
3
3
3
3
3
3
3
3
3
3
3
3
3
3
3
3
3
3
3
3
3
3
3
3
3
3
3
3
3
3
3
3
3
3
3
3
3
3
3
3
3
3
3
3
3
3
3
3
3
3
3
3
3
3
3
3
3
3
3
3
3
3
3
3
3
3
3
3
3
3
3
3
3
3
3
3
3
3
3
3
3
3
3
3
3
3
3
3
3
3
3
3
3
3
3
3
3
3
3
3
3
3
3
3
3
3
3
3
3
3
3
3
3
3
3
3
3
3
3
3
3
3
3
3
3
3
3
3
3
3
3
3
3
3
3
3
3
3
3
3
3
3
3
3
3
3
3
3
3
3
3
3
3
3
3
3
3
3
3
3
3
3
3
3
3
3
3
3
3
3
3
3
3
3
3
3
3
3
3
3
3
3
3
3
3
3
3
3
3
3
3
3
3
3
3
3
3
3
3
3
3
3
3
3
3
3
3
3
3
3
3
3
3
3
3
3
3
3
3
3
3
3
3
3
3
3
3
3
3
3
3
3
3
3
3
3
3
3
3
3
3
3
3
3
3
3
3
3
3
3
3
3
3
3
3
3
3
3
3
3
3
3
3
3
3
3
3
3
3
3
3
3
3
3
3
3
3
3
3
3
3
3
3
3
3
3
3
3
3
3
3
3
3
3
3
3
3
3
3
3
3
3
3
3
3
3
3
3
3
3
3
3
3
3
3
3
3
3
3
3
3
3
3
3
3
3
3
3
3
3
3
3
3
3
3
3
3
3
3
3
3
3
3
3
3
3
3
3
3
3
3
3
3
3
3
3
3
3
3
3
3
3
3
0.136791
0.137379
0.0394037
0.00579001
0.041019
0.010094
0.00576825
0.0224899
0.633446
0.538045
0.377153
0.40662
1.27766
1.27858
1.27124
1.20436
1.10506
1.02844
1.00018
1.00022
0.999995
0.999996
0.999993
0.999994
0.999997
0.999999
0.999992
0.999986
1.30303
1.27913
1.25578
1.23308
2.78928
2.76802
2.74815
2.73128
3
3
3
3
3
3
3
3
3
3
3
3
3
3
3
3
3
3
3
3
3
3
3
3
3
3
3
3
3
3
3
3
3
3
3
3
3
3
3
3
3
3
3
3
3
3
3
3
3
3
3
3
3
3
3
3
3
3
3
3
3
3
3
3
3
3
3
3
3
3
3
3
3
3
3
3
3
3
3
3
3
3
3
3
3
3
3
3
3
3
3
3
3
3
3
3
3
3
3
3
3
3
3
3
3
3
3
3
3
3
3
3
3
3
3
3
3
3
3
3
3
3
3
3
3
3
3
3
3
3
3
3
0.0042512
0.119777
0.19276
0.209283
0.521962
1.19664
0.772335
0.0461353
0.0036028
0.00208875
0.00132433
0.00164681
0.0618055
0.0163418
0.000302798
0.000303664
0.0187929
0.178531
0.418468
0.00334743
0.231904
0.410154
0.436779
0.647927
1.07288
0.734559
0.396084
0.0906556
0.0350291
0.00977116
0.00831908
0.00763382
0.00877709
0.0382373
0.126466
0.28851
0.504684
0.42945
0.855513
1.02578
0.885533
0.743918
1.0118
1.21756
0.945748
0.914264
0.84528
0.763495
0.72407
0.641195
0.516779
0.544882
0.654652
0.781769
0.868014
1.02082
0.920502
1.20535
1.2196
1.16136
1.05026
1.05493
1.23788
1.32449
1.3191
1.05456
0.999959
1.00001
1.00006
1.00013
1.00016
1.00036
1.00049
1.00177
1.03219
1.03292
1.0019
1.00234
1.00009
1.00006
0.999401
1.03149
1.09833
1.05615
1.00496
1
1
1
1
0.999999
1.00016
1.00045
1.00039
1.00001
0.999876
0.999993
0.999986
1.00006
1.0003
1.00008
0.99999
1
1
1
1
1
1
1
1
1.00001
1.00011
1.00008
1.00001
1.00001
0.999992
0.999998
1
0.999999
0.999998
1
1
1
1
1
1
0.999999
0.99999
0.999985
0.999999
1.00001
1.00001
1
1
1.20766
1.15342
1.11547
1.09082
1.07279
1.0607
1.05456
1.05304
1.05736
1.06504
1.0668
1.04475
1.01003
1.00005
0.999107
0.99614
0.995646
0.99618
0.996005
2.71736
2.66426
2.61503
2.57867
2.55309
2.53899
2.54107
2.55655
2.56744
2.55289
2.51624
2.45262
2.34177
2.15947
2.07756
2.0056
1.86201
1.70676
1.63126
3
3
3
3
3
3
2.99999
2.99998
2.99995
2.99994
2.99968
2.99913
2.9991
2.99806
2.98818
2.97732
2.96306
2.94277
2.92091
3
3
3
2.99965
2.99905
2.99875
2.99877
2.99956
2.99991
2.99989
2.99981
2.99905
2.99888
2.99861
2.99984
2.9998
2.99953
2.99988
2.99982
3
3
2.99999
2.99932
2.99805
2.99805
2.99841
2.99983
2.99999
2.99991
2.99852
2.99843
2.99847
2.99953
3
3
3
3
3
3
3
3
3
2.99996
2.99978
3
3
3
2.99996
2.9997
2.99933
2.99976
2.99989
3
3
3
3
3
3
3
3
3
3
3
3
3
3
3
2.99999
2.99999
2.99999
3
3
3
3
3
3
3
3
3
3
3
3
3
3
3
3
3
3
3
3
3
3
3
3
3
3
3
3
3
3
3
3
3
3
3
3
3
3
3
3
3
3
3
3
3
3
3
3
3
3
3
3
3
3
3
3
3
3
3
3
3
3
3
3
3
3
3
3
3
3
3
3
3
3
3
3
3
3
3
3
3
3
3
3
3
3
3
3
3
3
3
3
3
3
3
3
3
3
3
3
3
3
3
3
3
3
3
3
3
3
3
3
3
3
3
3
3
3
3
3
3
3
3
3
3
3
3
3
3
3
3
3
3
3
3
3
3
3
3
3
3
3
3
3
3
3
3
3
3
3
3
3
3
3
3
3
3
3
3
3
3
3
3
3
3
3
3
3
3
3
3
3
3
3
3
3
3
3
3
3
3
3
3
3
3
3
3
3
3
3
3
3
3
3
3
3
3
3
3
3
3
3
3
3
3
3
3
3
3
3
3
3
3
3
3
3
3
3
3
3
3
3
3
3
3
3
3
3
3
3
3
3
3
3
3
3
3
3
3
3
3
3
3
3
3
3
3
3
3
3
3
3
3
3
3
3
3
3
3
3
3
3
3
3
3
3
3
3
3
3
3
3
3
3
3
3
3
3
3
3
3
3
3
3
3
3
3
3
3
3
3
3
3
3
3
3
3
3
3
3
3
3
3
3
3
3
3
3
3
3
3
3
3
3
3
3
3
3
3
3
3
3
3
3
3
3
3
3
3
3
3
3
3
3
3
3
3
3
3
3
3
3
3
3
3
3
3
3
3
3
3
3
3
3
3
3
3
3
3
3
3
3
3
3
3
3
3
3
3
3
3
3
3
3
3
3
3
3
3
3
3
3
3
3
3
3
3
3
3
3
3
3
3
3
3
3
3
3
3
3
3
3
3
3
3
3
3
3
3
3
3
3
3
3
3
3
3
3
3
3
3
3
3
3
3
3
3
3
3
3
3
3
3
3
3
3
3
3
3
3
3
3
3
3
3
3
3
3
3
3
3
3
3
3
3
3
3
3
3
3
3
3
3
3
3
3
3
3
3
3
3
3
3
3
3
3
3
3
3
3
3
3
3
3
3
3
3
3
3
3
3
3
3
3
3
3
3
3
3
3
3
3
3
3
3
3
3
3
3
3
3
3
3
3
3
3
3
3
3
3
3
3
3
3
3
3
3
3
3
3
3
3
3
3
3
3
3
3
)
;

boundaryField
{
    leftWall
    {
        type            calculated;
        value           nonuniform List<scalar> 
50
(
2
2
2
2
1.96814
0.64538
9.67834e-08
1.04092e-07
1.03542e-07
0.0264368
0.336505
0.740447
1.21065
1.00049
1.00047
1.26201
2.6887
2.99998
3
3
2.99999
3
3
3
3
3
3
3
3
3
3
3
3
3
3
3
3
3
3
3
3
3
3
3
3
3
3
3
3
3
)
;
    }
    rightWall
    {
        type            calculated;
        value           nonuniform List<scalar> 
50
(
1.76768
1.76771
1.57937
1.7421
1.25474
1.00495
0.702151
0.572006
0.418468
0.42945
0.920502
1.03292
0.999876
1.00001
1
0.996005
1.63126
2.92091
2.99982
3
3
3
3
3
3
3
3
3
3
3
3
3
3
3
3
3
3
3
3
3
3
3
3
3
3
3
3
3
3
3
)
;
    }
    lowerWall
    {
        type            calculated;
        value           nonuniform List<scalar> 
62
(
2
2
2
2
2
2
2
2
2
2
2
2
2
2
2
2
2
2
2
1.99999
1.99958
1.99943
1.99943
1.99943
1.99984
2
2
2
2.00005
2.00051
1.4937
0.136791
0.137379
0.0394037
0.00579001
1.8682
1.68612
1.37053
0.67614
0.210233
0.209319
0.241405
0.221506
1.8682
1.86582
1.87254
1.89533
1.93713
1.84847
1.75989
1.75267
1.75691
1.76401
1.7675
1.74186
1.68158
1.7533
1.72772
1.65593
1.73505
1.77749
1.76768
)
;
    }
    atmosphere
    {
        type            calculated;
        value           nonuniform List<scalar> 
46
(
3
3
3
3
3
3
3
3
3
3
3
3
3
3
3
3
3
3
3
3
3
3
3
3
3
3
3
3
3
3
3
3
3
3
3
3
3
3
3
3
3
3
3
3
3
3
)
;
    }
    defaultFaces
    {
        type            empty;
    }
}


// ************************************************************************* //
