/*--------------------------------*- C++ -*----------------------------------*\
  =========                 |
  \\      /  F ield         | OpenFOAM: The Open Source CFD Toolbox
   \\    /   O peration     | Website:  https://openfoam.org
    \\  /    A nd           | Version:  13
     \\/     M anipulation  |
\*---------------------------------------------------------------------------*/
FoamFile
{
    format      ascii;
    class       volScalarField;
    location    "2.65";
    object      alpha.water;
}
// * * * * * * * * * * * * * * * * * * * * * * * * * * * * * * * * * * * * * //

dimensions      [];

internalField   nonuniform List<scalar> 
2268
(
1.02084e-10
1.27757e-10
1.49891e-10
1.54846e-10
1.60553e-10
1.66811e-10
1.74539e-10
1.81662e-10
1.8762e-10
1.92531e-10
1.97738e-10
2.02416e-10
2.09324e-10
2.22401e-10
2.55145e-10
3.12046e-10
3.96373e-10
5.06568e-10
7.52021e-10
1.5245e-09
2.55694e-09
2.77867e-09
2.77835e-09
2.23109e-10
3.02646e-10
3.03364e-10
2.9063e-10
2.93772e-10
3.07311e-10
3.30274e-10
3.6981e-10
4.13449e-10
4.6437e-10
5.0165e-10
5.37927e-10
5.532e-10
5.57533e-10
5.58871e-10
5.66457e-10
5.81047e-10
6.56447e-10
8.54077e-10
1.33437e-09
2.34511e-09
2.6814e-09
2.31982e-09
2.25826e-10
1.12782e-09
2.40657e-09
2.24002e-09
1.81286e-09
1.36465e-09
3.57486e-10
3.99059e-10
4.92148e-10
6.05455e-10
7.17866e-10
8.48328e-10
9.66785e-10
1.02799e-09
1.02594e-09
9.34108e-10
8.92422e-10
9.22851e-10
1.11397e-09
1.45604e-09
2.03254e-09
2.41854e-09
1.62403e-09
1.70388e-10
1.66912e-10
2.28635e-09
1.84305e-09
1.38222e-09
1.36914e-09
1.16175e-08
2.25441e-10
2.46632e-10
3.339e-10
4.64544e-10
6.1338e-10
8.44886e-10
1.05484e-09
1.16985e-09
1.04392e-09
8.00379e-10
8.70242e-10
1.06843e-09
1.30162e-09
1.79936e-09
1.95638e-09
1.21646e-09
0.0159281
0.0215305
0.0205825
0.0145626
0.00714518
0.00153247
6.86595e-10
9.51078e-09
3.39174e-12
7.79416e-12
7.88676e-11
2.07001e-09
2.07131e-09
2.74579e-09
5.75911e-10
5.72855e-10
3.27465e-10
3.1405e-10
5.12858e-10
7.34197e-10
9.19517e-10
1.0845e-09
3.46347e-10
0.67731
0.663128
0.648155
0.615193
0.561766
0.490333
0.402526
0.3095
0.23233
0.161083
0.0975166
0.045636
0.00956831
7.53627e-08
6.94012e-08
1.19068e-10
7.2248e-11
7.07663e-11
1.98184e-08
1.0048e-10
1.57188e-10
1.71296e-10
3.48212e-11
1
1
1
0.999999
0.999936
0.99972
0.99896
0.991151
0.957066
0.906346
0.837155
0.744643
0.624498
0.469901
0.313695
0.182444
0.0812368
0.0128428
0.00114398
0.000366091
-3.25401e-19
-5.574e-13
-1.39546e-18
1
1
1
1
0.999995
0.999997
0.999999
1
1
1
1
1
1
0.994999
0.969757
0.905194
0.80338
0.671155
0.4986
0.356693
0.272065
0.249457
0.25346
0.0104385
0.0153652
0.046916
0.0507577
0.0366568
0.00702864
0.00109002
0.00121232
0.000858418
0.000896705
0.00574488
0.0238216
0.124401
0.124399
0.124412
0.124322
0.045012
0.0024899
0.0119344
0.00972029
0.00979947
0.0100687
0.0562918
0.089255
0.0877401
0.0275565
0.032813
0.0557002
0.0203152
0.000711055
0.0109541
0.0515091
0.0666113
0.0740629
0.0379141
0.00345342
0.00250513
0.0118481
0.100717
0.117533
0.0834658
0.0877409
0.231231
0.408708
0.388309
0.380793
0.316702
0.0544393
0.000682272
0.000673339
0.000668479
0.000663985
0.000665048
0.000657127
0.000657741
0.00065541
0.000662166
0.494764
0.652139
0.54349
0.487138
0.408141
0.469227
0.77678
0.841101
0.840472
0.503994
0.107462
0.000680914
0.000673454
0.000691099
0.00483978
0.036062
0.113969
0.156548
0.0325295
0.87936
0.89805
0.893677
0.854979
0.580722
0.218672
0.277101
0.453802
0.825062
0.960055
0.559543
0.172582
0.0135288
0.0312895
0.306573
0.589542
0.723685
0.851814
0.352421
0.898042
0.898428
0.898858
0.889303
0.481078
0.189683
0.170537
0.172089
0.703321
0.988415
0.999426
0.50827
0.110356
0.321842
0.774734
0.999778
0.999773
0.999749
0.594638
0.887773
0.888011
0.898961
0.899181
0.364731
0.118533
0.118513
0.393716
0.916089
0.991621
0.999424
0.970761
0.146703
0.461606
0.999698
0.999778
0.999768
0.99767
0.764399
0.889274
0.895422
0.89929
0.89907
0.493801
0.118527
0.229408
0.869392
0.998826
0.998887
0.999489
0.975932
0.336078
0.641334
0.99852
0.999778
0.998769
0.985692
0.752842
1
1
0.999933
0.999896
0.999947
0.999999
1
1
1
1
1
1
1
1
1
1
1
1
0.999396
0.992182
0.98112
0.975661
0.96511
0.991188
0.995721
0.998415
0.999326
0.999977
1
1
1
1
1
1
1
1
1
1
1
1
1
0.999996
0.99995
0.999777
0.992779
0.982671
0.887832
0.955402
0.991993
0.997363
0.999951
1
0.997222
0.996456
0.997943
0.999523
0.999997
0.999706
0.996715
0.993838
0.994947
0.99949
0.999929
0.998073
0.993329
0.979048
0.933686
0.849158
0.722885
0.503253
0.420914
0.434002
0.491367
0.593322
0.738498
0.79539
0.793228
0.78896
0.782485
0.773103
0.742938
0.711993
0.706115
0.705202
0.684901
0.630505
0.540636
0.455616
0.384015
0.295901
0.146121
0.0157156
-3.23703e-07
1.44502e-09
1.0164e-07
6.70833e-05
0.00673306
0.0675716
0.116892
0.104485
0.0807901
0.0682483
0.0439623
0.0253865
0.0226976
0.0207738
0.0168309
0.0127283
0.00426845
-1.67986e-20
4.27566e-26
-1.44923e-25
-3.30676e-13
1.35715e-23
8.31069e-24
4.63472e-05
0.00031273
5.51193e-06
-4.17102e-15
-3.18986e-07
-2.28561e-07
-9.92054e-09
-1.34486e-10
-2.06553e-20
2.31809e-20
1.39962e-20
3.78197e-21
-3.73048e-21
3.5899e-21
-3.73252e-15
5.02134e-22
2.01016e-15
1.40078e-08
4.96997e-08
1.08304e-07
9.24852e-07
1.43725e-06
1.21734e-05
5.5133e-05
0.000720044
5.92645e-05
1.08802e-07
2.52784e-08
3.60589e-08
6.84217e-09
4.60867e-09
3.84684e-09
2.82304e-09
6.77581e-09
1.36273e-08
2.12506e-08
2.61085e-08
2.25599e-08
2.75009e-08
5.74008e-08
1.10902e-07
3.49069e-07
5.10214e-07
3.96485e-07
6.78373e-07
1.38658e-06
5.4978e-05
0.000723262
0.000109916
1.61229e-07
2.26443e-07
2.6817e-07
1.27727e-07
5.03064e-08
9.80801e-09
1.23011e-09
2.34857e-09
8.39381e-08
1.85544e-07
1.73006e-07
1.00692e-07
1.20019e-07
2.4502e-07
2.46132e-07
1.4735e-07
3.05335e-08
1.21642e-08
1.63692e-07
1.40475e-06
2.0447e-05
0.0001725
5.93998e-05
1.58263e-07
1.55091e-07
2.68127e-07
2.6817e-07
1.87797e-07
1.22745e-09
1.24381e-09
1.07096e-08
1.52434e-07
1.99674e-07
1.99571e-07
1.84181e-07
3.94919e-08
4.63645e-10
4.65903e-10
4.63646e-10
4.65903e-10
1.09314e-08
1.8611e-07
3.82502e-07
1.84007e-07
1.3494e-07
1.37417e-07
1.63143e-06
4.74948e-08
1.33994e-07
1.5396e-07
7.98759e-08
2.38671e-08
1.25307e-08
1.58443e-08
3.01155e-08
3.64151e-08
2.77971e-08
9.54863e-09
3.73443e-09
3.54276e-09
2.33711e-09
1.41954e-09
7.17967e-10
1.99052e-10
-1.55427e-11
-2.8712e-11
2.24301e-07
7.85549e-07
1.08134e-06
5.74183e-07
7.58634e-10
2.93142e-08
3.13524e-08
2.03776e-08
1.60584e-08
1.01525e-08
7.01771e-09
6.54275e-09
7.06547e-09
8.52122e-09
1.1392e-08
1.06395e-08
5.3088e-09
2.68368e-09
2.26008e-09
1.98343e-09
1.9483e-09
2.17894e-09
3.29962e-09
4.39069e-07
2.21651e-06
3.58678e-06
1.12309e-06
5.73934e-11
1.2146e-09
2.65121e-08
5.4688e-07
8.09721e-07
4.99921e-07
1.41111e-07
9.61775e-08
1.11729e-07
1.18184e-07
1.39403e-07
5.98246e-08
5.2989e-09
5.63064e-09
4.99991e-09
3.59174e-09
2.05059e-09
2.62006e-10
1.19763e-10
5.40785e-07
3.07789e-06
4.57793e-06
2.15187e-06
5.98337e-11
5.13878e-11
5.70397e-11
1.3328e-06
3.19676e-06
3.19917e-06
9.21066e-07
3.55512e-07
4.30109e-07
4.55808e-07
3.17926e-07
1.34989e-07
1.77109e-08
9.43495e-09
7.63003e-09
5.55549e-09
3.34895e-09
1.4316e-09
4.29503e-10
9.59402e-08
1.95979e-06
4.55666e-06
3.95299e-06
8.27045e-08
5.74484e-11
9.76365e-08
1.23941e-06
2.18306e-06
3.22616e-06
3.24274e-06
3.20772e-06
1.64717e-06
1.22667e-06
7.85132e-07
1.6119e-07
4.95149e-08
1.20058e-08
1.14901e-08
1.16134e-08
9.66587e-09
6.11113e-09
3.02828e-09
2.96377e-08
4.29769e-07
2.85551e-06
3.30212e-06
1.52292e-07
6.35229e-11
8.29384e-11
1.03721e-08
9.46694e-07
2.19404e-06
3.25221e-06
3.21872e-06
3.20273e-06
3.17405e-06
1.90412e-06
8.90633e-08
1.22527e-08
1.20574e-08
1.47416e-08
1.77588e-08
1.76759e-08
1.37653e-08
8.41792e-09
1.80123e-08
1.92434e-08
2.0355e-07
4.19173e-07
9.84688e-08
4.89942e-11
1.00868e-10
1.07349e-10
3.10239e-10
1.44894e-07
2.00954e-06
2.65131e-06
3.17411e-06
3.15016e-06
1.57938e-06
1.09901e-07
5.74763e-08
1.20452e-08
1.35163e-08
2.11056e-08
2.10465e-08
1.77507e-08
1.13887e-08
1.85362e-08
1.59887e-08
1.89147e-08
1.73155e-08
1.19867e-08
3.12208e-09
2.83412e-10
2.82333e-10
8.22225e-10
3.02303e-09
2.97365e-08
3.80027e-07
1.48336e-06
1.59434e-06
1.26121e-07
9.78935e-08
1.01681e-07
5.29851e-08
1.16895e-08
1.36471e-08
1.9547e-08
1.52963e-08
1.12346e-08
2.03898e-08
1.74767e-08
1.95579e-08
6.07256e-09
3.26742e-09
2.03678e-09
4.89636e-10
4.68465e-10
7.72936e-10
2.42316e-09
2.26995e-08
1.11632e-07
2.08446e-07
1.43337e-09
2.11524e-08
5.65236e-08
6.39227e-08
4.10209e-08
1.12339e-08
9.98691e-09
1.21865e-08
1.14184e-08
8.59438e-09
2.03794e-08
1.46118e-08
2.00039e-08
7.02664e-09
3.34672e-09
2.04883e-09
7.13911e-10
7.69122e-10
1.17172e-09
1.5026e-09
3.24341e-09
1.32336e-08
1.75001e-08
1.51032e-09
1.24779e-08
2.94167e-08
3.25344e-08
2.41463e-08
1.22865e-08
7.76674e-09
8.0582e-09
7.43637e-09
6.65309e-09
1.94499e-08
1.15745e-08
1.51161e-08
6.37926e-09
3.52308e-09
2.25657e-09
1.30855e-09
1.27209e-09
1.36715e-09
1.57328e-09
2.21967e-09
3.89653e-09
1.23278e-09
1.23133e-09
3.92082e-09
1.14344e-08
1.40074e-08
1.23147e-08
8.03233e-09
5.41865e-09
4.83134e-09
4.48463e-09
4.0653e-09
1.83031e-08
8.96427e-09
9.01894e-09
5.0974e-09
3.25651e-09
2.25673e-09
1.70479e-09
1.43614e-09
1.29663e-09
1.35245e-09
1.56897e-09
1.98698e-09
1.45858e-09
1.21467e-09
2.09035e-09
4.71199e-09
6.32173e-09
5.9527e-09
4.69936e-09
3.30723e-09
2.6443e-09
2.27847e-09
2.22847e-09
1.78988e-08
7.12009e-09
5.86249e-09
3.87798e-09
2.82754e-09
2.12895e-09
1.68717e-09
1.40487e-09
1.19006e-09
1.05564e-09
1.073e-09
1.05614e-09
8.9702e-10
8.24537e-10
1.10339e-09
1.95584e-09
2.84809e-09
2.70546e-09
2.19575e-09
1.64834e-09
1.22459e-09
1.04595e-09
9.8739e-10
1.79372e-08
5.94562e-09
3.84442e-09
3.01036e-09
2.44114e-09
1.95645e-09
1.58944e-09
1.30922e-09
1.08768e-09
8.7045e-10
7.00906e-10
6.0836e-10
5.03461e-10
4.67955e-10
5.63406e-10
8.12641e-10
1.12255e-09
1.09911e-09
8.95829e-10
6.73186e-10
4.84364e-10
3.9948e-10
3.91854e-10
1.79353e-08
5.51122e-09
2.74213e-09
2.44511e-09
2.13208e-09
1.76618e-09
1.45039e-09
1.1695e-09
9.32172e-10
7.13598e-10
5.4058e-10
4.08393e-10
3.0877e-10
2.64022e-10
2.68629e-10
3.14862e-10
3.93991e-10
3.84473e-10
3.12658e-10
2.39429e-10
1.75381e-10
1.38079e-10
1.30267e-10
1.79337e-08
5.74913e-09
2.27777e-09
2.17587e-09
1.89354e-09
1.55693e-09
1.25303e-09
9.92076e-10
7.70786e-10
5.84263e-10
4.32134e-10
3.08896e-10
2.1974e-10
1.63658e-10
1.36461e-10
1.25863e-10
1.27682e-10
1.17609e-10
9.66479e-11
7.41636e-11
5.25939e-11
4.25613e-11
4.05173e-11
1.77688e-08
7.19821e-09
2.30173e-09
2.07964e-09
1.71524e-09
1.34479e-09
1.02928e-09
7.87006e-10
5.97091e-10
4.46819e-10
3.30813e-10
2.37362e-10
1.6495e-10
1.13392e-10
7.79013e-11
5.79682e-11
4.56262e-11
3.65957e-11
2.81862e-11
2.14359e-11
1.65051e-11
1.34036e-11
1.18951e-11
1.69519e-08
7.56912e-09
2.96526e-09
2.08669e-09
1.54473e-09
1.12893e-09
8.22672e-10
5.96027e-10
4.36145e-10
3.21237e-10
2.36262e-10
1.68876e-10
1.18879e-10
8.04692e-11
5.18941e-11
3.34004e-11
2.15415e-11
1.4532e-11
9.63009e-12
7.05843e-12
5.43677e-12
4.29714e-12
3.82434e-12
1.518e-08
7.18316e-09
3.53614e-09
2.06504e-09
1.36914e-09
9.26324e-10
6.25782e-10
4.23296e-10
2.97424e-10
2.11487e-10
1.51872e-10
1.08152e-10
7.52662e-11
5.10695e-11
3.28732e-11
2.03931e-11
1.22765e-11
7.45981e-12
4.26685e-12
2.74684e-12
2.01673e-12
1.52933e-12
1.27812e-12
1.35113e-08
6.63689e-09
3.43044e-09
1.93882e-09
1.1877e-09
7.36247e-10
4.60198e-10
2.90286e-10
1.88217e-10
1.26305e-10
8.66182e-11
6.02092e-11
4.13139e-11
2.80821e-11
1.83833e-11
1.12734e-11
6.71889e-12
3.855e-12
2.01969e-12
1.1788e-12
7.49617e-13
5.10209e-13
4.20023e-13
1.15965e-08
5.89602e-09
3.12189e-09
1.71176e-09
9.8213e-10
5.67942e-10
3.2576e-10
1.88737e-10
1.13436e-10
7.04238e-11
4.53397e-11
2.97062e-11
1.99004e-11
1.31836e-11
8.6431e-12
5.40506e-12
3.13532e-12
1.75557e-12
8.79789e-13
4.59587e-13
2.72949e-13
1.71091e-13
1.30318e-13
9.7148e-09
4.9623e-09
2.62519e-09
1.39513e-09
7.56712e-10
4.1297e-10
2.18484e-10
1.16883e-10
6.34365e-11
3.62858e-11
2.15178e-11
1.32156e-11
8.28843e-12
5.42132e-12
3.49407e-12
2.1308e-12
1.23619e-12
6.90578e-13
3.32669e-13
1.67886e-13
8.47475e-14
5.10382e-14
3.66972e-14
7.69923e-09
3.95685e-09
2.03627e-09
1.04312e-09
5.38535e-10
2.74396e-10
1.35217e-10
6.67323e-11
3.37034e-11
1.69316e-11
8.98264e-12
5.2798e-12
3.16314e-12
1.94216e-12
1.18762e-12
7.3652e-13
4.16047e-13
2.29701e-13
1.04344e-13
4.93979e-14
2.57867e-14
1.3702e-14
9.17857e-15
5.43093e-09
2.7165e-09
1.35821e-09
6.75095e-10
3.30372e-10
1.58374e-10
7.29537e-11
3.37273e-11
1.53898e-11
7.25509e-12
3.57647e-12
1.88022e-12
1.0585e-12
6.15085e-13
3.64908e-13
2.10793e-13
1.16521e-13
6.17175e-14
2.71904e-14
1.26011e-14
5.83273e-15
3.21311e-15
2.0136e-15
3.73669e-09
1.72174e-09
8.15291e-10
3.85032e-10
1.78988e-10
7.9981e-11
3.5389e-11
1.55482e-11
6.62886e-12
2.87564e-12
1.27144e-12
6.22985e-13
3.15659e-13
1.72115e-13
9.39358e-14
5.30289e-14
2.7922e-14
1.38998e-14
6.15001e-15
2.6158e-15
1.24393e-15
6.38596e-16
3.74558e-16
1.99659e-09
9.09375e-10
4.10483e-10
1.84772e-10
8.25166e-11
3.56453e-11
1.51902e-11
6.08292e-12
2.45105e-12
9.78252e-13
4.01785e-13
1.71675e-13
8.1867e-14
4.16906e-14
2.20527e-14
1.15674e-14
5.82711e-15
2.72999e-15
1.11235e-15
4.7367e-16
2.16155e-16
1.10446e-16
6.15966e-17
9.60587e-10
4.246e-10
1.82691e-10
7.90533e-11
3.25101e-11
1.32667e-11
5.40066e-12
2.10076e-12
7.88564e-13
2.90301e-13
1.08027e-13
4.39338e-14
1.8851e-14
9.19441e-15
4.67228e-15
2.34423e-15
1.10474e-15
4.7231e-16
1.89081e-16
7.39955e-17
3.27641e-17
1.61719e-17
8.35046e-18
3.54149e-10
1.50557e-10
6.29488e-11
2.60569e-11
1.06801e-11
4.33316e-12
1.69311e-12
6.23139e-13
2.19535e-13
7.61921e-14
2.57287e-14
9.92008e-15
4.20867e-15
1.90317e-15
9.13371e-16
4.213e-16
1.84995e-16
7.35962e-17
2.80789e-17
1.04218e-17
4.50014e-18
2.04812e-18
9.56165e-19
1.01563e-10
4.0912e-11
1.61902e-11
6.81432e-12
2.95777e-12
1.18979e-12
4.30743e-13
1.58116e-13
5.48294e-14
1.83145e-14
6.06764e-15
2.13761e-15
8.29968e-16
3.52761e-16
1.57084e-16
6.81685e-17
2.73958e-17
1.00547e-17
3.57435e-18
1.33277e-18
5.33349e-19
2.20344e-19
9.77439e-20
1.74846e-11
7.15735e-12
3.34696e-12
1.52374e-12
6.78993e-13
2.78107e-13
1.0546e-13
3.72364e-14
1.22518e-14
3.74307e-15
1.19793e-15
3.99403e-16
1.49869e-16
5.9789e-17
2.50776e-17
9.96817e-18
3.666e-18
1.25448e-18
4.22205e-19
1.49123e-19
5.52759e-20
2.04213e-20
7.95526e-21
1.27105e-12
6.48479e-13
4.32357e-13
2.57049e-13
1.24418e-13
5.35345e-14
2.1337e-14
7.65645e-15
2.52175e-15
7.87566e-16
2.31929e-16
7.28826e-17
2.54042e-17
9.64374e-18
3.6767e-18
1.34114e-18
4.54688e-19
1.43632e-19
4.47191e-20
1.4382e-20
4.65952e-21
1.53724e-21
1.70734e-22
5.25243e-15
1.36048e-14
3.14951e-14
3.25214e-14
1.97546e-14
9.56599e-15
3.82907e-15
1.40599e-15
4.74808e-16
1.4237e-16
4.09073e-17
1.21263e-17
4.01933e-18
1.43181e-18
5.05233e-19
1.66763e-19
4.90866e-20
1.44818e-20
4.35403e-21
1.26293e-21
3.84544e-22
3.6838e-23
9.82129e-25
9.76701e-21
6.04129e-17
1.34266e-15
3.37351e-15
2.51856e-15
1.30249e-15
5.85821e-16
2.29296e-16
7.87569e-17
2.42759e-17
6.78722e-18
2.01503e-18
6.4083e-19
2.09352e-19
6.50842e-20
1.91824e-20
5.15363e-21
1.41056e-21
3.9689e-22
1.00971e-22
1.8556e-23
5.03695e-25
4.6367e-27
0.932621
0.931536
0.980262
0.997128
0.986327
0.995997
0.997089
0.992476
0.623724
0.590161
0.659711
0.719324
-5.95728e-08
2.44649e-07
7.05177e-06
6.95696e-06
3.71071e-23
3.44952e-07
5.25277e-05
1.45412e-05
1.87543e-05
1.0884e-05
9.35811e-06
1.44523e-05
2.94156e-06
2.29942e-06
8.35685e-06
1.41284e-05
2.4325e-06
2.06297e-06
4.61847e-10
4.12573e-10
5.29932e-07
6.77497e-10
7.50064e-10
8.14447e-10
-3.10397e-11
2.70358e-09
4.63979e-09
7.23238e-09
3.52567e-09
3.10098e-09
2.26917e-09
9.38184e-09
1.17744e-10
5.75907e-11
4.9967e-11
5.04675e-11
2.06685e-10
1.43738e-10
9.33839e-11
7.62297e-11
7.49721e-10
5.58943e-10
4.1218e-10
2.76915e-10
2.85023e-09
1.63693e-09
1.37712e-09
7.74549e-10
8.78562e-09
4.35851e-09
3.32424e-09
1.94271e-09
8.59454e-09
8.30444e-09
5.27816e-09
3.97171e-09
6.88099e-09
6.13666e-09
6.15088e-09
5.81006e-09
5.18647e-09
4.66725e-09
4.49485e-09
4.17957e-09
3.6675e-09
3.27267e-09
2.97647e-09
2.85809e-09
2.06858e-09
1.87984e-09
1.90675e-09
1.78763e-09
9.87291e-10
9.79193e-10
9.75675e-10
9.60103e-10
3.8707e-10
4.00926e-10
4.41627e-10
4.3532e-10
1.32691e-10
1.28633e-10
1.5267e-10
1.61264e-10
4.03125e-11
3.79809e-11
4.24927e-11
4.68784e-11
1.16824e-11
1.08909e-11
1.16329e-11
1.26237e-11
3.61127e-12
3.32564e-12
3.30429e-12
3.22429e-12
1.18452e-12
1.0093e-12
9.71186e-13
9.7787e-13
3.91241e-13
3.36986e-13
3.18592e-13
2.91654e-13
1.14235e-13
9.87366e-14
8.82866e-14
8.52511e-14
3.11655e-14
2.71823e-14
2.49259e-14
2.19679e-14
7.62254e-15
6.11241e-15
5.60949e-15
4.95202e-15
1.63084e-15
1.34951e-15
1.13256e-15
9.34378e-16
2.86896e-16
2.34216e-16
1.95033e-16
1.52043e-16
4.6015e-17
3.55206e-17
2.67195e-17
1.97769e-17
5.91104e-18
4.34787e-18
3.2045e-18
2.03834e-18
6.37541e-19
4.32476e-19
3.23261e-19
1.30942e-19
5.4682e-20
2.20147e-20
8.96718e-21
1.63423e-21
1.18546e-21
2.75469e-22
8.21642e-23
7.9741e-24
2.96387e-36
7.23261e-25
1.18946e-25
3.55174e-27
-2.41421e-43
7.61306e-29
3.1731e-28
1.04479e-27
-4.15027e-46
7.05864e-29
2.62666e-28
7.98144e-28
0.997739
0.920393
0.903373
0.899178
0.730658
0.216038
0.584133
0.984608
0.998786
0.999295
0.999491
0.998783
0.94852
0.983932
0.999753
0.999753
0.993455
0.879201
0.677677
0.997143
0.861415
0.828811
0.824943
0.725658
0.314802
0.635543
0.85741
0.936135
0.965727
0.991495
0.993517
0.993851
0.99187
0.962032
0.873598
0.734273
0.619516
0.6548
0.47382
0.331955
0.471818
0.610246
0.356906
0.1472
0.416264
0.447592
0.282649
0.236568
0.276061
0.360306
0.484941
0.456471
0.345679
0.218327
0.153677
0.104512
0.202951
0.00169005
6.11618e-06
0.0152379
0.0378597
0.00578775
0.0134448
0.037222
0.0192053
0.000472142
7.68415e-05
3.17892e-07
1.83357e-24
-7.09945e-13
2.64888e-26
-1.57901e-08
-1.24895e-09
-3.55993e-20
-3.07047e-20
1.2213e-20
6.12948e-06
5.93489e-06
3.39679e-06
5.80969e-06
0.0006594
2.66055e-07
-5.7676e-20
-1.12523e-14
-1.59715e-13
1.0025e-22
7.38332e-08
3.26e-08
7.50901e-09
7.12556e-07
5.48435e-07
7.0186e-08
1.49788e-06
2.88111e-05
0.000139838
1.52923e-05
1.42804e-05
3.44983e-06
6.52352e-06
3.19192e-05
1.07666e-05
-2.19376e-23
6.47392e-09
7.37103e-09
-2.90218e-11
7.62036e-08
1.09109e-07
6.47859e-09
9.03738e-08
2.87075e-09
3.5651e-09
2.18803e-08
1.14738e-05
8.24668e-06
8.26513e-06
2.27995e-06
5.28983e-07
1.33379e-06
2.19533e-06
7.8919e-07
9.5958e-08
2.39438e-08
1.00399e-08
1.30142e-08
8.31328e-08
8.09133e-07
1.11778e-05
1.94036e-05
2.60199e-06
3.02164e-09
3.36067e-09
4.83842e-07
3.09593e-07
8.22352e-09
3.22334e-07
1.07464e-07
2.44055e-08
3.04988e-08
1.83744e-08
5.13408e-09
5.37418e-09
1.48477e-08
2.27833e-10
7.79877e-10
5.89299e-08
2.76232e-06
2.14124e-07
0.00108052
0.00503848
0.00638517
0.00566714
0.00462239
6.37455e-10
5.46415e-10
1.29841e-08
3.05192e-08
3.14943e-08
6.7519e-08
1.41733e-06
1.27846e-06
1.58664e-08
2.22217e-05
2.54814e-05
8.7363e-08
9.94866e-08
1.23728e-07
0.006079
0.00965076
0.00967348
0.00965078
0.00967345
1.92811e-08
3.02108e-08
5.1344e-08
1.01984e-07
1.76536e-07
9.45053e-07
2.80035e-06
6.35124e-06
1.584e-05
1.70421e-05
9.34874e-05
0.000269777
0.00026127
0.000611208
0.00351947
0.00620267
0.00689544
0.00581335
0.00582403
2.37148e-08
3.79338e-08
4.62929e-08
2.58891e-08
4.35137e-11
1.76878e-07
1.75673e-10
4.46868e-06
2.81419e-05
3.46938e-05
5.796e-05
0.00010506
0.000163378
0.000331823
3.83696e-05
6.51646e-05
0.000128724
2.91126e-05
4.99805e-05
4.89197e-11
2.26069e-11
2.45351e-11
2.32223e-11
3.87644e-11
3.56654e-11
1.61515e-10
6.00852e-08
2.14785e-06
6.39766e-06
2.42669e-06
1.99055e-05
2.04925e-05
1.04369e-06
-4.91698e-19
-1.84714e-18
-1.5338e-22
-9.41722e-23
2.55022e-22
6.59635e-11
6.04464e-11
6.35879e-11
1.10898e-10
2.53621e-10
6.73966e-10
1.7829e-09
1.1307e-08
1.07691e-07
2.39057e-07
4.46814e-08
4.1711e-06
4.81009e-08
2.94071e-09
2.34185e-09
8.68122e-09
1.46102e-08
9.07889e-09
2.55043e-09
1.61499e-10
9.95544e-11
1.19186e-10
1.91007e-10
4.20596e-10
1.24222e-09
4.71973e-09
1.06325e-08
1.6981e-08
3.05514e-08
2.30083e-08
2.90782e-08
2.18423e-09
3.74346e-09
1.02522e-08
2.57687e-08
2.60719e-08
1.70028e-08
1.11683e-08
3.19955e-10
1.12912e-10
1.25514e-10
1.74653e-10
2.8077e-10
4.48945e-10
7.76862e-10
1.32686e-09
2.31365e-09
4.29091e-09
4.03927e-09
1.28377e-09
9.06483e-10
3.72456e-09
8.67197e-09
1.76421e-08
2.03913e-08
1.1924e-08
1.13439e-08
7.64872e-10
1.26171e-10
1.21643e-10
1.28023e-10
1.62824e-10
2.47612e-10
4.1709e-10
9.67408e-10
1.21441e-09
1.25012e-09
8.79799e-10
5.49102e-10
5.28607e-10
1.46314e-09
4.23301e-09
7.6855e-09
7.59838e-09
5.2888e-09
6.44863e-09
2.01593e-09
3.9956e-10
1.53887e-10
1.38241e-10
1.42333e-10
1.67941e-10
2.06316e-10
3.29012e-10
4.3686e-10
4.97698e-10
4.62986e-10
3.26693e-10
2.90203e-10
4.39888e-10
1.16689e-09
2.00315e-09
2.23446e-09
1.3779e-09
1.76632e-09
3.45489e-09
1.36356e-09
4.47513e-10
2.25459e-10
1.55665e-10
1.51671e-10
1.58163e-10
1.79466e-10
2.0549e-10
2.18692e-10
2.19983e-10
1.7702e-10
1.43379e-10
1.41566e-10
2.31252e-10
3.66706e-10
3.49449e-10
1.746e-10
2.29222e-10
3.85899e-09
2.26199e-09
1.02815e-09
5.31201e-10
2.698e-10
1.74638e-10
1.32012e-10
1.19867e-10
1.15645e-10
1.07802e-10
9.55559e-11
8.07365e-11
6.00059e-11
4.80488e-11
3.87275e-11
3.69963e-11
2.94123e-11
1.82555e-11
9.41591e-12
2.69052e-09
2.29563e-09
1.36547e-09
8.31168e-10
4.97821e-10
2.7253e-10
1.48231e-10
9.12925e-11
6.65902e-11
5.48349e-11
4.56853e-11
3.90457e-11
2.78175e-11
1.51601e-11
5.77532e-12
4.07585e-12
2.5237e-12
5.66027e-13
3.48469e-13
1.65051e-09
1.50128e-09
1.29926e-09
8.80622e-10
5.87308e-10
3.56759e-10
2.01723e-10
1.01164e-10
5.14765e-11
3.40602e-11
2.63784e-11
1.89892e-11
1.10989e-11
5.08263e-12
1.37837e-12
4.50263e-13
8.61659e-14
4.38851e-14
2.99428e-14
9.12746e-10
8.53913e-10
7.60511e-10
6.71904e-10
5.38553e-10
3.59059e-10
2.28367e-10
1.24253e-10
5.90065e-11
2.90839e-11
1.6858e-11
8.62836e-12
3.97477e-12
1.50236e-12
3.68019e-13
8.55889e-14
1.37543e-14
5.41077e-15
2.3547e-15
4.28005e-10
4.16292e-10
3.84075e-10
3.39659e-10
2.98304e-10
2.60529e-10
1.89337e-10
1.19059e-10
6.46442e-11
2.96575e-11
1.19976e-11
4.44386e-12
1.5434e-12
4.83584e-13
1.21466e-13
2.90019e-14
2.97802e-15
1.02307e-15
3.61661e-16
1.59957e-10
1.6001e-10
1.59539e-10
1.47168e-10
1.31555e-10
1.13983e-10
9.99297e-11
7.78494e-11
4.93118e-11
2.56087e-11
1.04839e-11
3.301e-12
8.43299e-13
2.01278e-13
4.62882e-14
6.08428e-15
8.18982e-16
4.69806e-16
1.82887e-16
4.61799e-11
4.94083e-11
5.06316e-11
4.86554e-11
4.57063e-11
4.09277e-11
3.77834e-11
3.26942e-11
2.49299e-11
1.56222e-11
7.62941e-12
2.52789e-12
5.58134e-13
9.93491e-14
1.90888e-14
1.5108e-15
3.63514e-16
3.04476e-16
1.31169e-16
1.20827e-11
1.23477e-11
1.25557e-11
1.26234e-11
1.20055e-11
1.13367e-11
1.08229e-11
1.01304e-11
8.70909e-12
6.75467e-12
3.99029e-12
1.52548e-12
3.36611e-13
4.72275e-14
5.18786e-15
3.29289e-16
1.78127e-16
1.94533e-16
8.54515e-17
3.06188e-12
3.01654e-12
2.91661e-12
2.78737e-12
2.66115e-12
2.56467e-12
2.5031e-12
2.40241e-12
2.35848e-12
2.10932e-12
1.48472e-12
6.72993e-13
1.67173e-13
2.12354e-14
1.09575e-15
8.27116e-17
8.66431e-17
1.10573e-16
6.20943e-17
8.65839e-13
7.66966e-13
7.04904e-13
6.23673e-13
5.61765e-13
5.14702e-13
4.72397e-13
4.68974e-13
5.05892e-13
5.10408e-13
4.11052e-13
2.22534e-13
5.09955e-14
4.03729e-15
1.82866e-16
3.39161e-17
4.12411e-17
7.70659e-17
3.8338e-17
2.43964e-13
2.07254e-13
1.68819e-13
1.36344e-13
1.14647e-13
8.87138e-14
7.45558e-14
7.84427e-14
8.81667e-14
9.45556e-14
8.60605e-14
4.0774e-14
5.45574e-15
2.94415e-16
1.74219e-17
1.2364e-17
1.97893e-17
4.64987e-17
2.5721e-17
6.75543e-14
5.27011e-14
3.93516e-14
3.09332e-14
2.28953e-14
1.21623e-14
8.00366e-15
8.96077e-15
1.09853e-14
1.29765e-14
1.02915e-14
2.68746e-15
3.86985e-16
1.54082e-17
2.27909e-18
4.10559e-18
1.05489e-17
3.34563e-17
1.38461e-17
1.62098e-14
1.1361e-14
8.05363e-15
6.12331e-15
3.23879e-15
1.104e-15
5.1268e-16
6.55274e-16
9.2148e-16
1.11832e-15
4.52959e-16
1.50121e-16
1.76207e-17
5.00905e-19
5.11912e-19
2.02161e-18
7.66005e-18
1.77903e-17
8.70168e-18
3.39935e-15
2.2353e-15
1.61269e-15
8.49757e-16
2.86623e-16
4.88894e-17
1.81499e-17
3.2832e-17
6.17064e-17
2.4594e-17
1.33379e-17
4.74284e-18
4.87479e-19
9.2867e-20
2.75358e-19
1.44866e-18
5.45087e-18
1.22792e-17
3.97156e-18
5.88258e-16
3.91205e-16
2.07892e-16
6.37103e-17
9.80808e-18
5.82534e-19
4.30583e-19
1.30406e-18
5.83096e-19
4.25182e-19
2.61123e-19
6.85871e-20
2.61235e-20
4.89778e-20
1.93618e-19
1.1024e-18
3.89128e-18
5.72563e-18
2.2685e-18
8.83902e-17
5.31897e-17
1.62784e-17
1.97498e-18
8.31301e-20
4.61129e-21
9.55239e-21
6.00293e-21
6.62565e-21
7.48041e-21
7.18266e-21
9.57774e-21
1.72066e-20
4.0229e-20
1.62594e-19
9.11578e-19
2.39586e-18
3.66998e-18
8.74789e-19
1.17955e-17
3.74421e-18
4.96947e-19
1.62174e-20
1.59455e-22
1.10157e-22
1.44439e-22
3.03704e-22
6.90602e-22
1.56883e-21
3.63496e-21
8.02119e-21
1.57993e-20
3.71246e-20
1.52883e-19
6.58239e-19
1.5311e-18
1.43192e-18
4.49599e-19
9.6452e-19
1.16475e-19
2.71141e-21
1.69084e-23
1.35473e-23
2.83231e-23
7.68818e-23
2.13914e-22
5.69737e-22
1.44379e-21
3.48919e-21
7.70352e-21
1.50947e-20
3.4833e-20
1.25677e-19
4.15484e-19
8.71638e-19
8.37447e-19
1.35922e-19
1.59929e-20
3.10736e-22
2.50957e-24
2.58874e-24
7.05246e-24
2.23968e-23
6.68235e-23
1.88651e-22
5.03285e-22
1.27314e-21
3.07031e-21
6.70635e-21
1.30162e-20
2.96143e-20
9.54078e-20
2.71327e-19
4.84691e-19
2.66087e-19
6.11633e-20
1.07781e-22
8.49557e-25
5.57226e-25
1.7182e-24
5.82303e-24
1.83461e-23
5.49557e-23
1.52924e-22
4.0615e-22
1.02863e-21
2.4458e-21
5.33301e-21
1.03188e-20
2.26871e-20
6.6341e-20
1.65951e-19
2.10565e-19
1.27676e-19
1.75312e-20
3.0625e-25
9.43435e-26
3.53619e-25
1.29799e-24
4.34562e-24
1.34832e-23
3.95609e-23
1.09675e-22
2.89646e-22
7.34993e-22
1.75133e-21
3.77741e-21
7.2559e-21
1.59174e-20
3.89843e-20
9.4753e-20
8.73671e-20
3.24686e-20
8.01327e-21
1.28748e-26
6.16594e-26
2.38867e-25
8.1055e-25
2.59653e-24
7.77985e-24
2.28269e-23
6.49885e-23
1.74466e-22
4.45893e-22
1.06532e-21
2.34097e-21
4.68358e-21
9.82783e-21
2.09544e-20
4.49434e-20
2.85837e-20
1.23111e-20
3.33461e-21
8.36584e-27
3.4337e-26
1.19511e-25
3.77508e-25
1.18068e-24
3.62662e-24
1.0792e-23
3.11056e-23
8.60748e-23
2.30757e-22
5.70702e-22
1.26884e-21
2.48781e-21
5.40223e-21
1.03051e-20
1.70837e-20
7.82941e-21
3.88767e-21
9.25142e-22
3.02315e-27
1.02169e-26
3.11412e-26
9.27291e-26
3.19384e-25
1.0676e-24
3.48935e-24
1.06444e-23
3.13301e-23
8.64989e-23
2.22447e-22
5.18816e-22
1.03493e-21
2.14485e-21
3.55522e-21
4.35616e-21
1.91544e-21
6.47175e-22
3.75557e-23
)
;

boundaryField
{
    leftWall
    {
        type            alphaContactAngle;
        contactAngleProperties 
        {
            mercury         
            {
                theta0          90;
            }
            air             
            {
                theta0          90;
            }
            oil             
            {
                theta0          90;
            }
        }
        value           nonuniform List<scalar> 
50
(
1.02084e-10
2.23109e-10
2.25826e-10
1.70388e-10
0.0159281
0.67731
1
1
1
0.991188
0.887832
0.503253
-3.23703e-07
4.63472e-05
5.5133e-05
5.4978e-05
2.0447e-05
1.84007e-07
2.24301e-07
4.39069e-07
5.40785e-07
9.59402e-08
2.96377e-08
1.80123e-08
1.85362e-08
2.03898e-08
2.03794e-08
1.94499e-08
1.83031e-08
1.78988e-08
1.79372e-08
1.79353e-08
1.79337e-08
1.77688e-08
1.69519e-08
1.518e-08
1.35113e-08
1.15965e-08
9.7148e-09
7.69923e-09
5.43093e-09
3.73669e-09
1.99659e-09
9.60587e-10
3.54149e-10
1.01563e-10
1.74846e-11
1.27105e-12
5.25243e-15
9.76701e-21
)
;
    }
    rightWall
    {
        type            alphaContactAngle;
        contactAngleProperties 
        {
            mercury         
            {
                theta0          90;
            }
            air             
            {
                theta0          90;
            }
            oil             
            {
                theta0          90;
            }
        }
        value           nonuniform List<scalar> 
50
(
0.0119344
0.0118481
0.000662166
0.0325295
0.352421
0.594638
0.764399
0.752842
0.677677
0.6548
0.202951
1.2213e-20
0.000139838
8.24668e-06
3.09593e-07
0.00462239
0.00967345
0.00582403
4.99805e-05
2.55022e-22
2.55043e-09
1.11683e-08
1.13439e-08
6.44863e-09
1.76632e-09
2.29222e-10
9.41591e-12
3.48469e-13
2.99428e-14
2.3547e-15
3.61661e-16
1.82887e-16
1.31169e-16
8.54515e-17
6.20943e-17
3.8338e-17
2.5721e-17
1.38461e-17
8.70168e-18
3.97156e-18
2.2685e-18
8.74789e-19
4.49599e-19
1.35922e-19
6.11633e-20
1.75312e-20
8.01327e-21
3.33461e-21
9.25142e-22
3.75557e-23
)
;
    }
    lowerWall
    {
        type            alphaContactAngle;
        contactAngleProperties 
        {
            mercury         
            {
                theta0          90;
            }
            air             
            {
                theta0          90;
            }
            oil             
            {
                theta0          90;
            }
        }
        value           nonuniform List<scalar> 
62
(
1.02084e-10
1.27757e-10
1.49891e-10
1.54846e-10
1.60553e-10
1.66811e-10
1.74539e-10
1.81662e-10
1.8762e-10
1.92531e-10
1.97738e-10
2.02416e-10
2.09324e-10
2.22401e-10
2.55145e-10
3.12046e-10
3.96373e-10
5.06568e-10
7.52021e-10
1.5245e-09
2.55694e-09
2.77867e-09
2.77835e-09
2.77835e-09
2.31982e-09
1.62403e-09
1.21646e-09
3.46347e-10
3.48212e-11
-1.39546e-18
0.25346
0.932621
0.931536
0.980262
0.997128
0.0104385
0.00972029
0.100717
0.494764
0.87936
0.898042
0.887773
0.889274
0.0104385
0.0153652
0.046916
0.0507577
0.0366568
0.00702864
0.00109002
0.00121232
0.000858418
0.000896705
0.00574488
0.0238216
0.124401
0.124399
0.124412
0.124322
0.045012
0.0024899
0.0119344
)
;
    }
    atmosphere
    {
        type            inletOutlet;
        inletValue      uniform 0;
        value           nonuniform List<scalar> 
46
(
0
0
0
3.37351e-15
2.51856e-15
1.30249e-15
5.85821e-16
2.29296e-16
7.87569e-17
2.42759e-17
6.78722e-18
2.01503e-18
6.4083e-19
0
0
0
0
0
0
0
0
0
0
0
0
0
0
0
0
0
0
3.19384e-25
1.0676e-24
3.48935e-24
1.06444e-23
3.13301e-23
8.64989e-23
2.22447e-22
5.18816e-22
1.03493e-21
2.14485e-21
3.55522e-21
0
0
0
0
)
;
    }
    defaultFaces
    {