/*--------------------------------*- C++ -*----------------------------------*\
  =========                 |
  \\      /  F ield         | OpenFOAM: The Open Source CFD Toolbox
   \\    /   O peration     | Website:  https://openfoam.org
    \\  /    A nd           | Version:  13
     \\/     M anipulation  |
\*---------------------------------------------------------------------------*/
FoamFile
{
    format      ascii;
    class       volScalarField;
    location    "2.65";
    object      alpha.mercury;
}
// * * * * * * * * * * * * * * * * * * * * * * * * * * * * * * * * * * * * * //

dimensions      [];

internalField   nonuniform List<scalar> 
2268
(
1
1
1
1
1
1
1
1
1
1
1
1
1
1
1
1
1
1
1
0.999985
0.999581
0.999433
0.999433
1
1
1
1
1
1
1
1
1
1
1
1
1
1
1
1
1
1
1
0.999997
0.999908
0.999809
0.999836
1
1
1
1
1
1
1
1
1
1
1
1
1
1
1
1
1
1
1
0.999999
1
1
1
1
1
1
1
1
1
1
1
1
1
1
1
1
1
1
1
1
1
1
1
1
1
1
0.984072
0.97847
0.979417
0.985437
0.992855
0.998468
1
1
1
1
1
1
1
1
1
1
1
1
1
1
1
1
1
0.32269
0.336872
0.351845
0.384806
0.438234
0.509667
0.597474
0.6905
0.76767
0.838917
0.902483
0.954364
0.990432
1
1
1
1
1
1
1
1
1
0.999943
2.17494e-08
2.66539e-08
1.72639e-14
-2.45186e-19
6.1324e-05
0.000278676
0.00103898
0.00884921
0.0429339
0.093654
0.162845
0.255357
0.375502
0.530099
0.686305
0.817556
0.918763
0.987157
0.998855
0.999633
0.999995
0.999952
0.999431
1.80291e-10
1.87515e-10
9.52315e-11
-8.75291e-10
5.6843e-14
6.96622e-13
4.37196e-22
2.40212e-21
-9.53896e-20
1.56062e-08
3.49731e-08
3.94156e-08
5.95067e-08
0.00500101
0.0302433
0.0948064
0.19662
0.328845
0.501399
0.643306
0.727935
0.750076
0.74586
0.877792
0.877792
0.877792
0.877788
0.877795
0.738439
0.644642
0.64951
0.66709
0.674087
0.647909
0.627502
0.666284
0.752555
0.752551
0.752555
0.752538
0.752542
0.752523
0.695063
0.749743
0.785206
0.81487
0.840797
0.841268
0.821413
0.821251
0.824991
0.825207
0.789085
0.703217
0.738196
0.752432
0.752544
0.752538
0.752543
0.752518
0.752528
0.443631
0.416965
0.41915
0.415974
0.489349
0.583739
0.611668
0.619183
0.604236
0.659413
0.624001
0.624164
0.613355
0.605818
0.624285
0.648053
0.608989
0.559217
0.535533
0.141709
0.136426
0.145784
0.14467
0.128402
0.117077
0.137441
0.114254
0.107622
0.119605
0.240248
0.26584
0.252544
0.216414
0.184206
0.124866
0.131939
0.175997
0.247931
0.0672519
0.080796
0.0874905
0.11198
0.0718611
0.0355867
0.0348025
0.0348509
0.03559
0.00801993
0.00379715
0.0734884
0.111489
0.0695079
0.00826373
-1.53339e-27
4.08605e-25
-1.77795e-11
-8.26827e-28
0.073283
0.063405
0.0839725
0.0880539
0.105793
0.0584853
0.052698
0.0575348
0.0501817
0.0115718
6.77564e-06
1.07221e-08
6.19498e-05
0.00129013
1.25494e-08
1.99514e-09
1.29225e-07
2.74024e-08
1.90528e-09
0.0244938
0.0362401
0.0389861
0.0482404
0.0936977
0.0922955
0.0844845
0.0845732
0.0343334
0.0083658
0.000562118
6.74674e-05
8.30109e-08
7.60743e-08
3.91569e-07
6.87201e-06
4.79128e-07
3.91204e-08
5.64209e-09
0.0204588
0.0159271
0.0132929
0.0102926
0.039123
0.0890018
0.0890427
0.0471676
9.88806e-05
0.00101726
0.000488231
0.000109513
2.38988e-08
5.58936e-07
1.74678e-06
1.46261e-05
2.1455e-05
3.33344e-09
2.03767e-09
3.03584e-10
3.08931e-10
3.32619e-10
3.53186e-10
3.91728e-10
4.31003e-10
4.44835e-10
4.31031e-10
4.1599e-10
4.21553e-10
5.60255e-10
5.08205e-10
4.12023e-10
4.95243e-10
1.10139e-08
7.69435e-08
9.16169e-08
1.43167e-08
0.000603457
0.00781596
0.0188734
0.0236612
0.0323792
3.54086e-10
3.90173e-10
4.87671e-10
6.41236e-10
8.22955e-10
9.57346e-10
9.49164e-10
8.75419e-10
8.20969e-10
9.40129e-10
1.23238e-09
1.24567e-09
8.6902e-10
9.09811e-10
1.51672e-09
3.69712e-09
7.64931e-09
1.38988e-08
8.17581e-20
-3.41489e-24
1.67491e-20
-1.65045e-08
-3.08574e-09
3.98988e-10
4.51424e-10
5.70512e-10
7.21295e-10
9.02464e-10
1.01376e-09
1.08659e-09
1.10303e-09
1.10067e-09
1.04306e-09
9.42954e-10
8.0997e-10
6.26095e-10
5.77904e-10
5.96325e-10
7.8551e-10
1.84948e-09
2.89461e-09
2.8374e-10
4.0628e-07
1.8621e-06
1.90107e-06
3.94089e-07
4.42584e-10
4.8876e-10
5.75826e-10
6.39719e-10
7.17412e-10
7.99313e-10
8.71231e-10
9.22108e-10
9.92765e-10
1.08631e-09
1.18552e-09
1.24272e-09
1.22968e-09
1.22363e-09
1.2828e-09
1.43494e-09
1.84038e-09
2.88981e-09
3.05555e-09
2.33083e-09
2.32608e-09
9.75514e-08
8.5819e-08
4.65529e-10
5.10048e-10
5.64677e-10
6.30241e-10
7.3841e-10
9.1379e-10
1.05904e-09
1.18351e-09
1.34141e-09
1.55504e-09
1.71899e-09
1.80071e-09
1.83934e-09
1.84647e-09
1.86027e-09
2.35708e-09
3.65588e-09
4.64655e-09
3.43527e-09
2.32608e-09
2.73936e-09
5.19406e-07
3.35303e-06
4.67729e-10
4.94975e-10
5.29126e-10
6.34248e-10
8.16248e-10
1.02603e-09
1.1142e-09
1.18382e-09
1.25023e-09
1.33703e-09
1.40935e-09
1.43646e-09
1.40827e-09
1.34909e-09
1.7612e-09
3.67719e-09
4.89967e-09
4.8843e-09
4.35904e-09
1.60742e-08
2.21221e-08
9.636e-07
1.13371e-05
4.64945e-10
4.45128e-10
3.87351e-10
4.58474e-10
5.52693e-10
5.89908e-10
5.60305e-10
5.53748e-10
6.03958e-10
7.16649e-10
8.41714e-10
9.66515e-10
1.11385e-09
1.26739e-09
1.52801e-09
1.87201e-09
2.91121e-09
3.75764e-09
3.72324e-09
4.19855e-08
3.46015e-07
4.22088e-07
4.5653e-10
4.62179e-10
4.4214e-10
3.46425e-10
2.55606e-10
2.52109e-10
2.11852e-10
1.62233e-10
1.60094e-10
1.82368e-10
2.79956e-10
4.31449e-10
6.28638e-10
8.66525e-10
1.05247e-09
1.19033e-09
1.98779e-09
5.61877e-09
7.73007e-09
7.29631e-09
2.30708e-09
4.14354e-10
4.20332e-10
5.91542e-10
4.35664e-10
4.40748e-10
3.52679e-10
1.90536e-10
1.13492e-10
6.58097e-11
4.09294e-11
3.86513e-11
5.07659e-11
9.61071e-11
1.31316e-10
1.47699e-10
1.54252e-10
1.58272e-10
1.96678e-10
2.42824e-10
2.36379e-10
3.00245e-10
2.71068e-10
2.89508e-10
5.70428e-10
1.10309e-09
2.17226e-09
3.25362e-10
3.86038e-10
3.30762e-10
1.93567e-10
8.80461e-11
4.69266e-11
2.62659e-11
2.30484e-11
2.29188e-11
2.48136e-11
2.48385e-11
2.22356e-11
1.95841e-11
1.80545e-11
1.70554e-11
1.74846e-11
1.71732e-11
3.77919e-11
1.65379e-10
4.72294e-10
7.90513e-10
1.41066e-09
2.4271e-09
2.52674e-10
3.20603e-10
2.88493e-10
1.5978e-10
9.10078e-11
6.3499e-11
4.51464e-11
3.17089e-11
2.20001e-11
1.63855e-11
1.33669e-11
1.09551e-11
9.61056e-12
8.86362e-12
8.46419e-12
8.43134e-12
1.12895e-11
5.00679e-11
1.47185e-10
2.55223e-10
5.63747e-10
9.38448e-10
1.46645e-09
2.34583e-10
3.12618e-10
2.48253e-10
1.65741e-10
1.35439e-10
1.15539e-10
8.89577e-11
6.06276e-11
3.93546e-11
2.3957e-11
1.58435e-11
1.09552e-11
8.84043e-12
6.48529e-12
4.8522e-12
4.13665e-12
3.94572e-12
4.73902e-12
5.59041e-12
4.65154e-12
1.42962e-12
1.35112e-12
1.35714e-12
2.36646e-10
3.14719e-10
2.97202e-10
2.1413e-10
1.94102e-10
1.85397e-10
1.58286e-10
1.19814e-10
8.26781e-11
4.88055e-11
2.53453e-11
1.6172e-11
1.0435e-11
6.81043e-12
4.30217e-12
3.29677e-12
2.51156e-12
1.96747e-12
1.65025e-12
1.56653e-12
1.74964e-12
1.84001e-12
1.73331e-12
2.3533e-10
3.35804e-10
3.41769e-10
2.93199e-10
2.67615e-10
2.43627e-10
2.0388e-10
1.74298e-10
1.21952e-10
8.70309e-11
4.82202e-11
2.35701e-11
1.35708e-11
8.62334e-12
5.39899e-12
3.46614e-12
2.44432e-12
1.6405e-12
1.22068e-12
1.06845e-12
1.21364e-12
1.32133e-12
1.42382e-12
2.23925e-10
3.45674e-10
3.84342e-10
3.6333e-10
3.18235e-10
2.83184e-10
2.3418e-10
1.86578e-10
1.56579e-10
1.0163e-10
5.98982e-11
3.27017e-11
1.8681e-11
1.19256e-11
7.44345e-12
4.58365e-12
2.65865e-12
1.5725e-12
1.10256e-12
8.21751e-13
7.10447e-13
7.12962e-13
1.16301e-12
2.0428e-10
3.38676e-10
3.86869e-10
3.81931e-10
3.36799e-10
2.95107e-10
2.41124e-10
1.90508e-10
1.48684e-10
1.05799e-10
6.64826e-11
3.74116e-11
2.30953e-11
1.46525e-11
8.98952e-12
5.44225e-12
3.32356e-12
1.77747e-12
1.09146e-12
7.92333e-13
6.07847e-13
4.89499e-13
6.39871e-13
1.77881e-10
3.15537e-10
3.77211e-10
3.70541e-10
3.26353e-10
2.77515e-10
2.2307e-10
1.69024e-10
1.29494e-10
9.21737e-11
6.33851e-11
4.00405e-11
2.34215e-11
1.49446e-11
9.57658e-12
5.65529e-12
3.61134e-12
1.98477e-12
1.13684e-12
8.09735e-13
5.88269e-13
4.08543e-13
3.25078e-13
1.50109e-10
2.76834e-10
3.33557e-10
3.22362e-10
2.83633e-10
2.27164e-10
1.71905e-10
1.37272e-10
1.01577e-10
7.48803e-11
5.15343e-11
3.35117e-11
2.39205e-11
1.39785e-11
9.22782e-12
5.50395e-12
3.28891e-12
1.97222e-12
1.1943e-12
7.94646e-13
5.79697e-13
3.98984e-13
2.76676e-13
1.2365e-10
2.2904e-10
2.79059e-10
2.62186e-10
2.24496e-10
1.85225e-10
1.29797e-10
1.00625e-10
7.65515e-11
5.67361e-11
3.66558e-11
2.43049e-11
1.7644e-11
1.10375e-11
7.21529e-12
4.89053e-12
3.09809e-12
1.84566e-12
1.1388e-12
7.46627e-13
5.44818e-13
3.73507e-13
2.67783e-13
9.67609e-11
1.84578e-10
2.27952e-10
2.07055e-10
1.74507e-10
1.43451e-10
1.04064e-10
7.69492e-11
5.58155e-11
3.64049e-11
2.22593e-11
1.54686e-11
1.11984e-11
7.6919e-12
5.14978e-12
3.67294e-12
2.46159e-12
1.65753e-12
1.02345e-12
6.84892e-13
4.92552e-13
3.37886e-13
2.41087e-13
7.72382e-11
1.3989e-10
1.70333e-10
1.56142e-10
1.3001e-10
1.04897e-10
7.70419e-11
5.61598e-11
4.02163e-11
2.32512e-11
1.30481e-11
9.29686e-12
6.7726e-12
4.86252e-12
3.51046e-12
2.57192e-12
1.77143e-12
1.25025e-12
8.71492e-13
5.94552e-13
4.18613e-13
2.85448e-13
2.06906e-13
5.82701e-11
1.02068e-10
1.22737e-10
1.0962e-10
9.07879e-11
7.14668e-11
5.30454e-11
3.86247e-11
2.71267e-11
1.52166e-11
8.91049e-12
5.56057e-12
4.16494e-12
3.08607e-12
2.3007e-12
1.68617e-12
1.20339e-12
8.87986e-13
6.47772e-13
4.61999e-13
3.24279e-13
2.24854e-13
1.60956e-13
4.20418e-11
6.88584e-11
8.06741e-11
7.28095e-11
6.02283e-11
4.63538e-11
3.45537e-11
2.51491e-11
1.76821e-11
1.04776e-11
5.55439e-12
3.89014e-12
2.7273e-12
1.96298e-12
1.43472e-12
1.04261e-12
7.59199e-13
5.82095e-13
4.36229e-13
3.19401e-13
2.24736e-13
1.57705e-13
1.14944e-13
2.85333e-11
4.6429e-11
5.0379e-11
4.473e-11
3.7055e-11
2.9038e-11
2.20876e-11
1.59412e-11
1.10236e-11
6.88659e-12
4.19931e-12
2.71621e-12
1.79346e-12
1.22655e-12
8.56912e-13
6.07201e-13
4.43078e-13
3.46392e-13
2.62385e-13
1.96921e-13
1.41769e-13
9.86771e-14
7.15742e-14
1.92962e-11
3.04258e-11
3.11614e-11
2.72416e-11
2.19758e-11
1.72905e-11
1.32376e-11
9.80125e-12
6.8359e-12
4.52308e-12
2.90509e-12
1.8316e-12
1.16815e-12
7.53983e-13
4.93091e-13
3.38267e-13
2.46388e-13
1.86628e-13
1.41586e-13
1.06533e-13
7.46517e-14
5.39481e-14
3.94225e-14
1.25189e-11
1.90175e-11
1.88386e-11
1.60418e-11
1.29515e-11
1.01369e-11
7.63344e-12
5.64409e-12
4.03537e-12
2.77488e-12
1.8564e-12
1.18955e-12
7.37123e-13
4.54479e-13
2.75178e-13
1.79813e-13
1.23977e-13
9.02896e-14
6.59487e-14
4.86763e-14
3.58995e-14
2.56771e-14
1.83133e-14
8.21408e-12
1.17048e-11
1.10422e-11
9.06128e-12
7.22858e-12
5.62932e-12
4.29017e-12
3.15823e-12
2.29326e-12
1.63886e-12
1.12654e-12
7.2497e-13
4.53018e-13
2.72088e-13
1.57221e-13
9.42215e-14
5.90874e-14
4.03373e-14
2.74941e-14
1.99941e-14
1.44344e-14
1.0124e-14
7.3893e-15
5.13524e-12
6.92384e-12
6.23726e-12
4.94666e-12
3.8175e-12
2.91574e-12
2.17733e-12
1.59641e-12
1.18578e-12
8.66025e-13
6.10166e-13
4.04322e-13
2.51489e-13
1.49603e-13
8.43973e-14
4.76822e-14
2.78133e-14
1.74282e-14
1.0814e-14
7.30607e-15
5.23993e-15
3.53403e-15
2.51004e-15
3.23031e-12
4.07158e-12
3.4286e-12
2.59124e-12
1.90205e-12
1.38093e-12
1.00681e-12
7.31594e-13
5.38732e-13
3.98557e-13
2.85033e-13
1.93266e-13
1.22186e-13
7.37635e-14
4.20452e-14
2.26203e-14
1.24871e-14
7.06702e-15
3.94021e-15
2.49821e-15
1.61973e-15
1.02245e-15
7.34792e-16
1.93366e-12
2.27506e-12
1.79404e-12
1.27444e-12
8.78891e-13
6.06795e-13
4.23148e-13
3.00841e-13
2.19958e-13
1.63093e-13
1.17685e-13
7.99782e-14
5.17089e-14
3.123e-14
1.8053e-14
9.81993e-15
5.05265e-15
2.65279e-15
1.35315e-15
7.59905e-16
4.71009e-16
2.82162e-16
1.9226e-16
1.11138e-12
1.1937e-12
8.75298e-13
5.78021e-13
3.717e-13
2.44652e-13
1.62514e-13
1.11839e-13
7.87318e-14
5.80421e-14
4.20494e-14
2.87729e-14
1.84591e-14
1.14679e-14
6.66957e-15
3.53198e-15
1.78975e-15
9.11586e-16
4.2461e-16
2.22882e-16
1.17099e-16
6.8451e-17
4.45606e-17
6.00093e-13
5.95858e-13
4.00906e-13
2.44527e-13
1.46191e-13
8.93307e-14
5.60718e-14
3.67331e-14
2.54883e-14
1.78269e-14
1.26662e-14
9.0086e-15
5.89462e-15
3.59905e-15
2.03511e-15
1.11966e-15
5.50199e-16
2.72392e-16
1.15702e-16
5.50839e-17
2.93754e-17
1.50336e-17
9.07691e-18
2.81483e-13
2.44278e-13
1.5168e-13
8.59148e-14
4.75629e-14
2.7317e-14
1.63279e-14
1.04003e-14
6.91835e-15
4.97182e-15
3.59129e-15
2.49928e-15
1.63562e-15
9.88767e-16
5.60958e-16
2.91157e-16
1.40926e-16
6.64155e-17
2.69159e-17
1.22e-17
5.5701e-18
2.89181e-18
1.60673e-18
1.32986e-13
9.85073e-14
5.61738e-14
2.95234e-14
1.5171e-14
7.93618e-15
4.5929e-15
2.88025e-15
1.88372e-15
1.30645e-15
9.21272e-16
6.40745e-16
4.03871e-16
2.38594e-16
1.27657e-16
6.58881e-17
3.06526e-17
1.35826e-17
5.49454e-18
2.22048e-18
1.00762e-18
4.68857e-19
2.38646e-19
4.70924e-14
3.24145e-14
1.70772e-14
8.4241e-15
4.11533e-15
2.09618e-15
1.18338e-15
7.01608e-16
4.5112e-16
3.04098e-16
2.10408e-16
1.397e-16
8.66092e-17
4.96793e-17
2.64435e-17
1.29064e-17
5.80387e-18
2.42808e-18
8.92897e-19
3.53749e-19
1.47444e-19
6.58584e-20
3.11695e-20
1.52556e-14
9.61341e-15
4.73418e-15
2.24075e-15
1.00825e-15
4.85566e-16
2.64799e-16
1.56891e-16
9.77297e-17
6.39723e-17
4.27439e-17
2.825e-17
1.68471e-17
9.5746e-18
4.98069e-18
2.34881e-18
9.97196e-19
3.80988e-19
1.36833e-19
4.80593e-20
1.8591e-20
7.76442e-21
3.34248e-21
3.70038e-15
2.12315e-15
1.04795e-15
4.77127e-16
2.16031e-16
1.04665e-16
5.56694e-17
3.19789e-17
1.94181e-17
1.24767e-17
8.15407e-18
5.33364e-18
3.2372e-18
1.75584e-18
8.71934e-19
3.79359e-19
1.50472e-19
5.33731e-20
1.80939e-20
5.80365e-21
2.10816e-21
7.88938e-22
3.01805e-22
7.2547e-16
3.74966e-16
1.70083e-16
8.10144e-17
4.07688e-17
1.99864e-17
9.99412e-18
5.85827e-18
3.67026e-18
2.39842e-18
1.57544e-18
9.89442e-19
5.65054e-19
2.90388e-19
1.34382e-19
5.50831e-20
1.9939e-20
6.46742e-21
1.99213e-21
6.22033e-22
2.01931e-22
6.70877e-23
2.4168e-23
8.21798e-17
4.09611e-17
2.34626e-17
1.26548e-17
6.62948e-18
3.3657e-18
1.80671e-18
1.06426e-18
6.58132e-19
4.2252e-19
2.74983e-19
1.6806e-19
9.34695e-20
4.50691e-20
1.93465e-20
7.20282e-21
2.36411e-21
7.03294e-22
1.98996e-22
5.64932e-23
1.64428e-23
4.8304e-24
1.56731e-24
4.08029e-18
2.4654e-18
2.12081e-18
1.55876e-18
8.9173e-19
4.89156e-19
2.8465e-19
1.77828e-19
1.16477e-19
7.8431e-20
4.88464e-20
2.86678e-20
1.47439e-20
6.62384e-21
2.55641e-21
8.60188e-22
2.55898e-22
6.85528e-23
1.72207e-23
4.27741e-24
1.06753e-24
2.82921e-25
2.22504e-26
7.51401e-21
3.48085e-20
1.19727e-19
1.56808e-19
1.15096e-19
7.1629e-20
4.29736e-20
2.8421e-20
1.99107e-20
1.3228e-20
8.368e-21
4.54812e-21
2.19884e-21
9.06532e-22
3.16103e-22
9.40396e-23
2.35932e-23
5.64568e-24
1.29681e-24
2.81774e-25
6.60634e-26
4.33347e-27
1.77998e-28
1.05462e-26
9.1594e-23
3.88675e-21
1.33987e-20
1.21086e-20
8.1345e-21
5.69653e-21
4.22009e-21
3.05745e-21
2.16829e-21
1.36e-21
7.36588e-22
3.35006e-22
1.23459e-22
3.65665e-23
9.35324e-24
2.03578e-24
4.17051e-25
8.39698e-26
1.56987e-26
2.32139e-27
4.575e-29
4.18133e-29
0.0653454
0.0671987
0.0194195
0.00275098
-4.21676e-09
1.88799e-12
2.14652e-07
1.22493e-05
7.68966e-07
7.11003e-06
5.83101e-06
0.00024101
3.39529e-08
6.58108e-05
5.4079e-05
0.000513694
2.80767e-08
8.14607e-05
0.00023044
0.000227071
1.36219e-05
6.84289e-06
3.41032e-10
3.47433e-10
4.73406e-10
3.66894e-10
3.71415e-10
5.65241e-10
1.018e-09
1.25795e-09
2.1819e-09
2.53858e-09
3.05174e-09
3.37366e-09
4.84719e-09
6.38634e-09
3.15947e-09
3.24439e-09
2.96573e-09
4.1739e-09
1.60258e-09
1.5634e-09
1.52877e-09
4.65164e-09
1.35185e-12
1.35829e-12
1.35318e-12
1.35924e-12
1.56048e-12
1.63912e-12
1.85048e-12
2.23819e-12
1.95304e-12
2.74158e-12
4.37218e-12
7.03356e-12
2.24222e-12
3.9163e-12
6.77398e-12
1.21145e-11
1.7881e-12
3.50318e-12
7.13433e-12
1.30459e-11
4.07335e-13
1.62866e-12
4.27687e-12
8.80228e-12
2.15302e-13
2.38412e-13
8.51127e-13
2.63422e-12
1.90156e-13
1.58232e-13
1.38866e-13
1.78582e-13
1.83079e-13
1.52424e-13
1.29369e-13
1.13205e-13
1.59787e-13
1.32883e-13
1.21459e-13
1.11814e-13
1.28151e-13
1.0737e-13
9.16127e-14
8.44672e-14
9.26431e-14
7.7522e-14
6.76129e-14
5.82176e-14
5.99196e-14
4.96215e-14
4.26372e-14
3.73776e-14
3.3561e-14
2.71314e-14
2.34566e-14
2.08062e-14
1.556e-14
1.28628e-14
1.09784e-14
9.85685e-15
6.24459e-15
5.12718e-15
4.45081e-15
3.77126e-15
2.10987e-15
1.63831e-15
1.41243e-15
1.27534e-15
6.33943e-16
4.9532e-16
4.2787e-16
3.5657e-16
1.55626e-16
1.23056e-16
1.01211e-16
8.95459e-17
3.49145e-17
2.78544e-17
2.36318e-17
1.91377e-17
6.96816e-18
5.12659e-18
4.33823e-18
3.52306e-18
1.19587e-18
9.05224e-19
6.98489e-19
5.28632e-19
1.65923e-19
1.23858e-19
9.52597e-20
6.81999e-20
2.09613e-20
1.47404e-20
1.02502e-20
6.88547e-21
2.10471e-21
1.40479e-21
9.50796e-22
5.4624e-22
1.77955e-22
1.08212e-22
7.57426e-23
2.59953e-23
1.17e-23
3.88742e-24
1.557e-24
2.44111e-25
1.41927e-25
3.49961e-26
1.28909e-26
5.03826e-27
1.88382e-28
5.25746e-28
1.38587e-27
4.33745e-27
1.87963e-28
4.69651e-28
1.62509e-27
5.2087e-27
1.09157e-28
3.74116e-28
1.27092e-27
3.83973e-27
0.00197854
0.0155119
0.01655
0.00467936
0.00836795
0.0509793
0.0354067
4.13709e-05
3.98662e-05
2.74715e-05
0.000106379
0.000126099
5.77375e-05
2.39122e-05
2.82136e-06
1.63845e-05
0.000497722
0.0012698
1.98618e-09
4.95245e-05
0.0106984
0.0127844
0.00134993
0.0118866
0.0259875
0.00840379
4.59596e-05
4.21462e-05
2.76526e-05
2.81494e-05
6.46601e-05
6.58587e-05
4.58979e-05
5.59231e-06
2.45304e-05
0.00106511
0.00542636
0.00160399
0.00056256
0.00167336
0.0015114
0.000998585
0.0070193
0.00306468
0.000314106
0.000157171
0.000157758
6.24291e-05
7.69662e-07
3.10636e-06
5.39379e-06
2.53992e-07
1.29689e-05
5.48829e-05
0.001183
0.0064884
0.00645155
0.000640796
0.000185539
1.81781e-06
0.000559471
0.00015893
8.08211e-07
9.24982e-06
0.000112685
0.000135995
3.4997e-05
7.43339e-07
7.23673e-07
3.02647e-07
9.41262e-08
3.21904e-05
6.633e-05
0.000101147
0.00296993
0.00492655
0.000250314
4.92275e-05
1.38355e-06
1.58007e-06
8.01716e-07
7.82835e-07
1.49697e-06
9.41415e-06
7.305e-06
3.01809e-06
2.68705e-06
1.3732e-06
1.3483e-07
4.18314e-08
5.87858e-06
2.16837e-05
2.30141e-05
3.98627e-05
1.53415e-05
3.43444e-10
3.50885e-10
3.71711e-08
6.69802e-07
1.13526e-06
1.14839e-06
1.5144e-07
1.96113e-09
2.04056e-09
2.37369e-09
1.40107e-07
1.42657e-07
4.1816e-08
4.18614e-08
4.17974e-08
4.1808e-08
4.17965e-08
2.82542e-06
1.50577e-05
2.37818e-09
3.06582e-08
9.57073e-08
2.38294e-07
4.46304e-07
3.95658e-07
1.80008e-07
7.40837e-08
3.18704e-08
6.8271e-09
1.69334e-08
7.24476e-08
1.38811e-06
4.13424e-06
6.20675e-07
4.17965e-08
4.26896e-08
2.37444e-06
4.18374e-06
1.28956e-08
9.78531e-08
1.45795e-07
1.47174e-07
1.20812e-07
4.92887e-08
3.16839e-08
3.00242e-08
4.10817e-08
1.55302e-10
2.61217e-11
6.57426e-10
3.01767e-07
3.06936e-07
0.000187866
0.0011784
0.00203078
0.00184708
0.000627367
9.94753e-09
1.25102e-08
2.21248e-08
2.61386e-08
2.62061e-08
4.55014e-08
4.89234e-07
4.67092e-07
4.25034e-08
6.44468e-06
5.89351e-06
6.01819e-09
9.16215e-09
9.02835e-08
0.00114358
0.00272466
0.00272957
0.00272466
0.00190234
8.13529e-09
1.12726e-08
1.614e-08
2.82571e-08
5.83789e-08
3.78402e-07
1.14519e-06
2.32434e-06
5.36105e-06
5.74552e-06
4.44027e-05
6.4967e-05
6.36742e-05
0.000105571
0.000780566
0.00158699
0.00216992
0.00192368
0.00124175
9.36331e-09
1.31164e-08
1.46672e-08
7.54832e-09
8.13158e-11
7.73316e-08
1.15793e-10
2.86579e-06
7.69556e-06
8.50315e-06
1.66659e-05
2.92423e-05
3.69383e-05
7.33192e-05
2.37221e-05
7.64841e-06
7.97022e-05
3.63606e-05
2.54393e-05
1.35319e-12
1.3639e-12
7.61255e-11
4.95675e-11
8.93659e-11
8.01142e-11
1.55046e-10
4.17656e-08
4.6989e-07
1.47302e-06
6.99506e-07
5.82754e-06
4.80525e-06
9.36459e-07
-3.31318e-19
-9.98601e-19
9.67743e-23
-1.80163e-23
4.05274e-23
2.80196e-12
5.72251e-12
3.3417e-11
2.0597e-10
6.06489e-10
1.36685e-09
2.91363e-09
1.18413e-08
4.56875e-08
8.98851e-08
6.41939e-08
1.26438e-06
1.19611e-08
1.94587e-09
1.65485e-09
5.11154e-09
4.18838e-09
2.13955e-09
3.132e-10
1.09329e-11
3.73012e-11
1.83448e-10
4.36519e-10
1.00531e-09
2.33088e-09
6.56591e-09
1.20809e-08
1.7269e-08
2.89178e-08
3.0259e-08
1.03412e-08
2.46885e-09
2.58268e-09
5.53942e-09
1.00828e-08
1.00456e-08
3.88912e-09
9.25562e-10
2.26158e-11
6.57996e-11
1.83608e-10
4.13964e-10
8.16757e-10
1.36521e-09
2.37347e-09
3.46189e-09
3.82974e-09
4.60965e-09
4.89676e-09
1.86361e-09
2.02065e-09
2.55879e-09
4.59362e-09
7.77945e-09
7.68963e-09
2.56397e-09
9.68245e-10
2.24353e-11
5.33604e-11
1.10801e-10
2.16335e-10
3.67677e-10
6.49846e-10
1.14294e-09
3.03283e-09
3.6993e-09
3.5825e-09
2.32016e-09
1.36005e-09
1.25431e-09
1.3803e-09
2.4156e-09
3.67072e-09
3.11521e-09
1.11186e-09
5.96609e-10
1.8552e-11
4.2631e-11
8.77136e-11
1.65871e-10
2.79902e-10
4.1066e-10
5.46263e-10
1.19814e-09
2.11496e-09
2.55458e-09
2.24594e-09
1.1989e-09
8.73571e-10
7.30632e-10
8.38494e-10
1.05823e-09
9.77166e-10
3.05168e-10
1.78523e-10
1.17242e-11
2.83885e-11
5.59325e-11
1.03339e-10
1.80553e-10
2.96506e-10
4.38668e-10
5.56961e-10
7.74144e-10
9.77657e-10
1.06307e-09
8.44247e-10
5.11967e-10
3.81243e-10
2.6651e-10
2.44595e-10
1.71775e-10
4.36422e-11
2.38493e-11
4.16812e-12
1.44574e-11
2.77062e-11
4.53945e-11
7.53222e-11
1.69469e-10
2.61568e-10
3.13646e-10
3.55088e-10
3.85093e-10
3.84735e-10
3.45964e-10
2.34831e-10
1.65956e-10
8.22184e-11
3.73454e-11
1.76156e-11
4.91676e-12
9.49553e-13
7.48901e-13
4.79597e-12
1.35666e-11
2.61184e-11
4.40887e-11
6.9277e-11
9.79995e-11
1.27373e-10
1.50053e-10
1.66197e-10
1.55687e-10
1.37501e-10
1.01354e-10
5.49836e-11
1.67885e-11
6.15382e-12
1.8229e-12
1.48848e-13
2.68264e-14
1.62928e-13
8.2036e-13
3.54504e-12
8.47692e-12
1.52763e-11
2.39962e-11
3.36268e-11
4.33131e-11
5.23619e-11
6.05228e-11
6.21842e-11
5.42578e-11
3.64913e-11
1.74626e-11
4.24514e-12
8.63105e-13
7.43303e-14
1.40151e-14
2.07808e-15
8.27724e-14
1.78777e-13
5.89969e-13
1.65779e-12
3.69831e-12
6.25528e-12
8.98921e-12
1.17268e-11
1.42627e-11
1.70216e-11
1.89161e-11
1.69693e-11
1.10101e-11
4.53522e-12
9.33222e-13
1.27389e-13
1.09428e-14
1.99964e-15
1.67498e-16
5.21088e-14
6.12967e-14
1.18082e-13
2.70458e-13
6.15042e-13
1.23436e-12
1.97818e-12
2.58945e-12
3.17993e-12
3.91085e-12
4.48884e-12
4.2763e-12
2.72377e-12
1.01453e-12
1.79003e-13
2.19905e-14
1.69099e-15
2.38704e-16
3.68401e-17
3.07317e-14
2.80635e-14
3.30026e-14
4.86806e-14
8.23388e-14
1.50101e-13
2.72403e-13
4.05545e-13
5.26914e-13
6.85634e-13
8.19968e-13
8.39387e-13
5.58087e-13
2.01301e-13
3.04005e-14
2.08088e-15
2.23503e-16
6.4319e-17
2.31355e-17
1.5936e-14
1.32316e-14
1.19355e-14
1.15795e-14
1.30622e-14
1.82206e-14
3.19082e-14
4.91707e-14
6.87127e-14
9.36965e-14
1.19976e-13
1.30977e-13
9.51484e-14
3.59208e-14
5.54309e-15
2.44064e-16
4.92102e-17
3.55816e-17
1.72674e-17
7.26335e-15
5.53726e-15
4.3568e-15
3.55467e-15
3.00921e-15
2.83372e-15
3.26594e-15
4.35793e-15
6.22024e-15
9.41798e-15
1.29033e-14
1.50487e-14
1.23299e-14
5.13426e-15
7.68362e-16
3.84629e-17
1.92127e-17
2.41866e-17
1.16301e-17
2.75739e-15
2.05116e-15
1.51298e-15
1.11206e-15
8.1038e-16
5.963e-16
4.50302e-16
3.86376e-16
5.27343e-16
8.4467e-16
1.27833e-15
1.60216e-15
1.47376e-15
6.93512e-16
8.39661e-17
7.94642e-18
1.0401e-17
1.47661e-17
8.62712e-18
9.01874e-16
6.22058e-16
4.49151e-16
3.12202e-16
2.19756e-16
1.5673e-16
8.27699e-17
4.45586e-17
4.67028e-17
6.93323e-17
1.07996e-16
1.45147e-16
1.29512e-16
4.42941e-17
7.42666e-18
3.54961e-18
5.63074e-18
1.06072e-17
5.55052e-18
2.42931e-16
1.6518e-16
1.07644e-16
7.00306e-17
4.9077e-17
2.81136e-17
1.28176e-17
7.60716e-18
5.81576e-18
6.07399e-18
8.73175e-18
9.31163e-18
1.83604e-18
7.47283e-19
8.77102e-19
1.56115e-18
3.11637e-18
6.77145e-18
3.85696e-18
5.88418e-17
3.73168e-17
2.23754e-17
1.44506e-17
8.83413e-18
3.08961e-18
1.08419e-18
8.05885e-19
7.2801e-19
6.55454e-19
5.58577e-19
1.38734e-19
1.13776e-19
1.69195e-19
3.71542e-19
8.66903e-19
1.96016e-18
5.0727e-18
2.22026e-18
1.18483e-17
6.79403e-18
3.86011e-18
2.46256e-18
8.90923e-19
1.67584e-19
4.97485e-20
5.34826e-20
6.20895e-20
6.00814e-20
2.72907e-20
3.57666e-20
6.70155e-20
1.36116e-19
2.80916e-19
6.34862e-19
1.56728e-18
2.96161e-18
1.47359e-18
2.03809e-18
1.10018e-18
6.67332e-19
2.53198e-19
4.84045e-20
3.83494e-21
2.01081e-21
3.49378e-21
6.31193e-21
7.3003e-21
1.48814e-20
3.18232e-20
6.6508e-20
1.32481e-19
2.50508e-19
5.44151e-19
1.23366e-18
2.17447e-18
7.54405e-19
2.83235e-19
1.5906e-19
6.55909e-20
1.19471e-20
8.3032e-22
2.40872e-22
4.30608e-22
1.08853e-21
2.57058e-21
6.30616e-21
1.48885e-20
3.28038e-20
6.75667e-20
1.29509e-19
2.30589e-19
4.74181e-19
9.83085e-19
1.17902e-18
4.68996e-19
3.37793e-20
1.73549e-20
3.70127e-21
2.2607e-22
6.75998e-23
1.31131e-22
3.57524e-22
9.75002e-22
2.54304e-21
6.364e-21
1.51596e-20
3.34614e-20
6.74939e-20
1.22483e-19
2.13254e-19
4.2749e-19
7.16011e-19
8.28618e-19
2.1647e-19
3.54428e-21
8.40464e-22
7.33673e-23
1.83145e-23
3.88216e-23
1.15385e-22
3.41653e-22
9.53205e-22
2.50534e-21
6.2083e-21
1.4661e-20
3.20173e-20
6.30652e-20
1.13616e-19
2.01955e-19
3.55238e-19
5.32661e-19
4.07299e-19
1.25769e-19
2.23823e-22
1.96341e-23
3.96553e-24
1.02553e-23
3.3937e-23
1.09984e-22
3.25479e-22
9.04563e-22
2.39879e-21
5.94985e-21
1.40308e-20
3.03951e-20
5.93507e-20
1.05724e-19
1.76393e-19
2.71651e-19
3.55613e-19
2.72127e-19
5.10326e-20
2.56388e-24
6.73439e-25
2.26846e-24
8.99866e-24
3.08499e-23
9.91633e-23
2.92911e-22
8.13913e-22
2.13077e-21
5.26631e-21
1.23862e-20
2.65289e-20
5.11575e-20
9.0427e-20
1.43203e-19
2.02009e-19
2.24884e-19
1.17775e-19
2.83959e-20
8.94747e-26
4.46111e-25
2.00398e-24
7.76999e-24
2.6414e-23
8.22838e-23
2.42952e-22
6.64759e-22
1.73037e-21
4.28196e-21
9.93591e-21
2.12252e-20
4.0664e-20
6.99914e-20
1.06483e-19
1.34805e-19
1.18089e-19
6.66696e-20
1.20885e-20
6.82596e-26
3.82393e-25
1.63815e-24
5.9854e-24
1.98456e-23
6.08463e-23
1.76003e-22
4.79873e-22
1.2426e-21
3.08211e-21
7.17047e-21
1.51514e-20
2.86693e-20
4.91487e-20
6.775e-20
8.1182e-20
6.07481e-20
2.3528e-20
6.81938e-21
6.01178e-26
2.90286e-25
1.11745e-24
3.76434e-24
1.1946e-23
3.53734e-23
1.02296e-22
2.8634e-22
7.53976e-22
1.88467e-21
4.39967e-21
9.47065e-21
1.85e-20
3.00289e-20
3.828e-20
4.2236e-20
2.4423e-20
1.11754e-20
3.42619e-21
3.98526e-26
1.62707e-25
5.6316e-25
1.76685e-24
5.47304e-24
1.66069e-23
4.86928e-23
1.3798e-22
3.74572e-22
9.82198e-22
2.37396e-21
5.16856e-21
9.77784e-21
1.63499e-20
1.95737e-20
1.81506e-20
8.30857e-21
4.23008e-21
1.14795e-21
1.44905e-26
4.87836e-26
1.47988e-25
4.37831e-25
1.49095e-24
4.91736e-24
1.58237e-23
4.74393e-23
1.36977e-22
3.7009e-22
9.30506e-22
2.12471e-21
4.07933e-21
6.5665e-21
7.18937e-21
5.27224e-21
2.33024e-21
8.26861e-22
5.50718e-23
)
;

boundaryField
{
    leftWall
    {
        type            alphaContactAngle;
        contactAngleProperties 
        {
            air             
            {
                theta0          90;
            }
            water           
            {
                theta0          90;
            }
            oil             
            {
                theta0          90;
            }
        }
        value           nonuniform List<scalar> 
50
(
1
1
1
1
0.984072
0.32269
2.17494e-08
1.80291e-10
3.03584e-10
3.54086e-10
3.98988e-10
4.42584e-10
4.65529e-10
4.67729e-10
4.64945e-10
4.62179e-10
4.35664e-10
3.25362e-10
2.52674e-10
2.34583e-10
2.36646e-10
2.3533e-10
2.23925e-10
2.0428e-10
1.77881e-10
1.50109e-10
1.2365e-10
9.67609e-11
7.72382e-11
5.82701e-11
4.20418e-11
2.85333e-11
1.92962e-11
1.25189e-11
8.21408e-12
5.13524e-12
3.23031e-12
1.93366e-12
1.11138e-12
6.00093e-13
2.81483e-13
1.32986e-13
4.70924e-14
1.52556e-14
3.70038e-15
7.2547e-16
8.21798e-17
4.08029e-18
7.51401e-21
1.05462e-26
)
;
    }
    rightWall
    {
        type            alphaContactAngle;
        contactAngleProperties 
        {
            air             
            {
                theta0          90;
            }
            water           
            {
                theta0          90;
            }
            oil             
            {
                theta0          90;
            }
        }
        value           nonuniform List<scalar> 
50
(
0.752523
0.752528
0.535533
0.247931
-8.26827e-28
1.90528e-09
5.64209e-09
2.03767e-09
1.98618e-09
0.00160399
0.00645155
0.00492655
1.53415e-05
1.50577e-05
4.18374e-06
0.000627367
0.00190234
0.00124175
2.54393e-05
4.05274e-23
3.132e-10
9.25562e-10
9.68245e-10
5.96609e-10
1.78523e-10
2.38493e-11
9.49553e-13
2.68264e-14
2.07808e-15
1.67498e-16
3.68401e-17
2.31355e-17
1.72674e-17
1.16301e-17
8.62712e-18
5.55052e-18
3.85696e-18
2.22026e-18
1.47359e-18
7.54405e-19
4.68996e-19
2.1647e-19
1.25769e-19
5.10326e-20
2.83959e-20
1.20885e-20
6.81938e-21
3.42619e-21
1.14795e-21
5.50718e-23
)
;
    }
    lowerWall
    {
        type            alphaContactAngle;
        contactAngleProperties 
        {
            air             
            {
                theta0          90;
            }
            water           
            {
                theta0          90;
            }
            oil             
            {
                theta0          90;
            }
        }
        value           nonuniform List<scalar> 
62
(
1
1
1
1
1
1
1
1
1
1
1
1
1
1
1
1
1
1
1
0.999985
0.999581
0.999433
0.999433
0.999433
0.999836
1
1
1
0.999943
0.999431
0.74586
0.0653454
0.0671987
0.0194195
0.00275098
0.877792
0.695063
0.443631
0.141709
0.0672519
0.073283
0.0244938
0.0204588
0.877792
0.877792
0.877792
0.877788
0.877795
0.738439
0.644642
0.64951
0.66709
0.674087
0.647909
0.627502
0.666284
0.752555
0.752551
0.752555
0.752538
0.752542
0.752523
)
;
    }
    atmosphere
    {
        type            inletOutlet;
        inletValue      uniform 0;
        value           nonuniform List<scalar> 
46
(
0
0
0
1.33987e-20
1.21086e-20
8.1345e-21
5.69653e-21
4.22009e-21
3.05745e-21
2.16829e-21
1.36e-21
7.36588e-22
3.35006e-22
0
0
0
0
0
0
0
0
0
0
0
0
0
0
0
0
0
0
1.49095e-24
4.91736e-24
1.58237e-23
4.74393e-23
1.36977e-22
3.7009e-22
9.30506e-22
2.12471e-21
4.07933e-21
6.5665e-21
7.18937e-21
0
0
0
0
)
;
    }
    defaultFaces
    {
        type            empty;
    }
}


// ************************************************************************* //
