/*--------------------------------*- C++ -*----------------------------------*\
  =========                 |
  \\      /  F ield         | OpenFOAM: The Open Source CFD Toolbox
   \\    /   O peration     | Website:  https://openfoam.org
    \\  /    A nd           | Version:  13
     \\/     M anipulation  |
\*---------------------------------------------------------------------------*/
FoamFile
{
    format      ascii;
    class       volScalarField;
    location    "2.65";
    object      alpha.oil;
}
// * * * * * * * * * * * * * * * * * * * * * * * * * * * * * * * * * * * * * //

dimensions      [];

internalField   nonuniform List<scalar> 
2268
(
2.2668e-14
1.26505e-13
5.1459e-13
1.58856e-12
3.84326e-12
7.94616e-12
1.53306e-11
2.77203e-11
4.93841e-11
8.74992e-11
1.54693e-10
2.74988e-10
4.90498e-10
8.46152e-10
1.71152e-09
3.42933e-09
6.54446e-09
8.96823e-09
9.38343e-09
1.47277e-05
0.000418565
0.000566838
0.000566667
1.93482e-14
1.34005e-13
3.29366e-13
1.59779e-12
3.92875e-12
8.43578e-12
1.67235e-11
3.24051e-11
5.74879e-11
1.07635e-10
1.79847e-10
3.47425e-10
6.25847e-10
1.09412e-09
2.14472e-09
4.2987e-09
8.25909e-09
1.11531e-08
7.2676e-08
2.68642e-06
9.16781e-05
0.000190781
0.000163501
6.23181e-14
6.10758e-13
6.12628e-13
1.44857e-12
3.56557e-12
7.28262e-12
1.46276e-11
2.93447e-11
5.84629e-11
1.13388e-10
2.00061e-10
3.73286e-10
6.60116e-10
1.1399e-09
2.06374e-09
3.72636e-09
6.18632e-09
7.47433e-09
5.03955e-08
5.91235e-07
1.90729e-08
1.93801e-08
1.68877e-08
4.97289e-12
5.71749e-12
6.14635e-12
5.11117e-12
5.36894e-12
7.36458e-12
1.32713e-11
2.5779e-11
5.18207e-11
1.10705e-10
2.26131e-10
4.39203e-10
7.43286e-10
1.26956e-09
2.48137e-09
4.18482e-09
6.31567e-09
7.61951e-09
2.04939e-08
1.79661e-07
3.28628e-08
2.62601e-08
8.01513e-08
2.15316e-10
2.35313e-10
1.95592e-10
1.37258e-10
8.64791e-11
5.32398e-11
3.09452e-11
2.70352e-11
3.80616e-11
6.92416e-11
1.44355e-10
3.23923e-10
7.37757e-10
1.55046e-09
2.81343e-09
5.29289e-09
9.92017e-09
7.40096e-09
8.641e-09
2.4802e-08
1.63323e-08
1.36009e-08
1.05595e-08
2.25888e-09
2.0595e-09
1.66884e-09
1.23608e-09
9.06079e-10
6.63017e-10
4.47817e-10
2.41199e-10
1.06384e-10
7.68159e-11
8.98038e-11
1.64974e-10
4.31215e-10
1.25894e-09
2.5867e-09
4.02335e-09
9.84126e-09
5.67129e-08
4.92532e-08
2.97865e-08
7.20704e-08
2.47317e-08
4.03044e-06
3.52958e-09
3.39207e-09
2.92009e-09
2.28822e-09
1.7799e-09
1.49827e-09
1.28457e-09
9.97656e-10
5.79885e-10
2.73782e-10
1.52937e-10
1.5323e-10
2.16551e-10
6.37108e-10
1.43487e-09
1.1527e-09
6.00339e-10
1.69546e-07
1.01543e-06
8.81972e-07
3.78329e-07
1.39121e-06
2.97199e-05
3.65848e-09
3.65904e-09
3.38734e-09
2.74072e-09
2.16199e-09
1.73215e-09
1.64634e-09
1.46342e-09
1.07264e-09
6.86263e-10
4.03276e-10
2.57712e-10
2.37361e-10
3.61016e-10
6.15447e-10
5.93179e-10
5.93286e-10
2.58349e-07
1.29998e-06
1.28218e-06
2.40575e-08
1.54382e-05
2.95324e-05
0.111348
0.105145
0.0544612
0.0373048
0.0375545
0.196
0.296101
0.297094
0.28671
0.279608
0.283679
0.279584
0.139464
0.0604739
0.073247
0.109273
0.188689
0.231251
0.221999
0.294827
0.239743
0.201941
0.122398
0.0586068
0.0493104
0.120177
0.115671
0.0578869
0.0682018
0.147477
0.222168
0.141595
0.060575
0.0621847
0.13772
0.229879
0.231474
0.222109
0.441845
0.450854
0.481717
0.479905
0.274994
0.00752976
5.90276e-08
5.46682e-08
8.73212e-08
7.01802e-05
0.0228598
0.132071
0.172559
0.0859286
0.0622243
0.174718
0.339288
0.414505
0.441553
0.348929
0.199872
0.286583
0.342987
0.441277
0.413672
0.0857542
0.0426921
0.0171926
0.00130325
0.0784506
0.159615
0.172945
0.209066
0.237152
0.322404
0.443716
0.439979
0.456191
0.0422173
0.0102575
0.00804749
0.0134988
0.328279
0.742466
0.687393
0.502178
0.132091
4.64487e-07
0.0115774
0.180091
0.301138
0.326094
0.326032
0.265439
0.109543
0.0192372
0.343997
0.0116355
0.00664789
0.00656713
0.012267
0.403067
0.742467
0.742465
0.726884
0.232192
-1.55917e-19
-1.6318e-12
0.0522401
0.31584
0.325709
0.225263
0.000218335
0.000216234
0.00024747
0.105565
0.0353911
0.0195851
0.00850827
0.0403482
0.530633
0.742449
0.73958
0.462618
0.0337759
-5.38065e-21
1.2518e-27
0.0169392
0.279503
0.300266
0.000297946
0.000184049
0.000170373
0.00232577
0.00232556
0.0451071
0.031096
0.0291764
0.0477217
0.435829
0.698882
0.55288
0.0260423
3.76423e-05
2.64434e-06
2.82294e-08
0.0158675
0.278665
0.254333
0.00141505
0.00017493
0.000171968
0.0143039
0.0847343
2.32022e-09
2.44004e-09
2.40029e-09
2.07925e-09
2.06302e-09
2.09178e-09
2.23761e-09
2.02556e-09
1.58474e-09
1.15479e-09
7.42839e-10
4.65486e-10
3.52329e-10
3.95716e-10
5.15295e-10
7.84209e-10
6.76858e-10
2.63625e-08
3.06472e-07
2.43596e-07
9.37226e-07
1.15714e-06
4.70663e-09
2.55606e-10
2.55602e-10
2.55986e-10
2.55603e-10
6.93259e-08
9.0807e-09
4.02584e-09
3.09709e-09
2.10538e-09
1.83243e-09
1.40029e-09
7.22078e-10
3.8838e-10
3.55426e-10
5.06699e-10
9.69346e-10
1.4992e-09
2.15758e-09
1.06105e-08
2.18259e-06
3.08391e-05
-1.8308e-08
-5.64023e-12
2.55602e-10
0.00601466
0.00700448
0.00251339
4.90977e-05
-5.21889e-13
-6.93961e-21
-2.03379e-28
-5.16988e-28
-4.88581e-27
5.16988e-28
4.58757e-28
-1.22145e-27
5.10595e-28
-1.22145e-27
1.78389e-27
8.97196e-21
-2.73489e-19
-4.07834e-12
0.00159561
0.0142713
0.0696692
0.158524
0.374897
0.535496
0.565997
0.508633
0.406678
0.217829
0.0816174
0.0707642
0.0841862
0.0956041
0.106972
0.137974
0.155543
0.145951
0.143983
0.164297
0.220866
0.316936
0.40008
0.470826
0.568828
0.773005
0.878056
0.894675
0.995842
0.999586
0.999866
0.98424
0.784611
0.700167
0.712646
0.733149
0.745737
0.769979
0.821652
0.861944
0.871175
0.854908
0.836127
0.878328
0.970418
0.986339
0.986429
0.996358
0.982965
0.93437
0.999687
0.999687
0.99978
0.999956
0.966765
0.947058
0.984804
0.999982
0.988909
0.979505
0.988554
0.994165
0.997438
0.998632
0.995994
0.996244
1
1
1
1
0.998269
0.997706
0.999976
0.999683
0.99928
0.999941
1
1
1
1
1
1
0.999999
1
1
1
1
1
1
1
1
1
0.999999
0.999999
0.999999
0.999999
0.86891
0.878815
0.911823
0.928525
0.941658
0.938199
0.946402
0.961168
0.96464
0.963183
0.958835
0.951828
0.941942
0.930259
0.916643
0.898755
0.877222
0.855434
0.836146
0.821098
0.812177
0.812485
0.821924
0.155622
0.143407
0.1872
0.227895
0.261282
0.296091
0.311167
0.306141
0.299868
0.292074
0.277933
0.255995
0.230775
0.205494
0.18051
0.155602
0.13217
0.112172
0.0962899
0.0846252
0.0779696
0.0771173
0.0835848
7.89973e-06
2.28919e-08
1.86937e-08
2.21641e-08
1.24291e-08
2.05955e-08
1.85086e-08
2.05955e-08
1.38632e-07
1.82406e-07
2.28545e-07
6.41734e-07
6.27693e-07
5.45095e-08
9.53423e-10
6.07046e-10
4.29159e-16
2.94107e-16
1.55769e-16
4.20254e-17
6.72567e-27
-1.95503e-10
-1.1339e-09
8.63649e-07
2.98222e-07
1.26786e-07
1.57127e-07
4.03433e-07
1.78431e-07
9.95583e-08
1.81696e-07
1.49534e-07
2.90833e-08
1.6471e-08
2.44162e-08
2.57794e-08
2.28167e-08
2.39285e-08
3.32301e-08
4.92952e-08
5.18777e-08
4.99548e-08
5.53767e-08
6.44646e-08
9.97019e-08
1.6983e-07
1.57898e-06
1.62483e-06
5.86451e-07
3.25426e-07
3.04044e-07
7.90921e-07
3.9312e-06
1.27367e-05
1.20276e-05
1.37529e-06
3.53058e-09
7.85217e-08
4.36103e-08
4.6563e-08
9.41436e-08
2.0922e-07
2.36924e-07
1.99357e-07
1.76509e-07
1.25282e-07
1.30082e-07
1.5823e-07
1.96328e-07
1.80996e-06
7.57482e-06
2.78573e-05
1.76312e-05
3.25435e-07
1.24952e-06
4.15225e-05
0.000163233
0.000153149
1.2548e-05
-1.39926e-10
2.88281e-09
3.16347e-10
1.13094e-09
1.4659e-07
2.70683e-07
2.67825e-07
2.19887e-07
1.84801e-07
1.13102e-07
1.10641e-07
9.18649e-08
1.18183e-07
1.98723e-06
2.38891e-05
5.04867e-05
5.04601e-05
9.70128e-06
2.02952e-06
9.73642e-05
0.000163133
0.000162692
0.000152159
8.08698e-06
-6.31492e-27
2.81691e-11
2.28058e-09
1.65654e-07
2.70116e-07
2.70727e-07
2.63701e-07
1.97583e-07
1.10925e-07
9.68513e-08
6.57519e-08
6.53865e-08
1.75353e-06
1.70425e-05
5.14485e-05
5.07889e-05
9.1548e-06
6.50796e-07
1.98595e-05
0.00014891
0.000162915
0.000161872
2.77248e-05
1.27583e-15
4.38246e-09
6.85931e-09
9.48313e-09
1.56011e-07
2.62151e-07
2.59507e-07
2.0395e-07
1.12238e-07
9.41157e-08
5.16985e-08
4.04366e-08
1.17908e-06
4.95044e-06
2.1526e-05
2.08364e-05
9.65821e-07
1.33205e-07
7.69728e-07
1.40551e-05
6.70843e-05
6.5794e-05
1.50611e-06
-6.60087e-10
4.45773e-08
3.0968e-08
7.32821e-09
9.58783e-09
1.2212e-07
1.93571e-07
1.76071e-07
1.06152e-07
8.28411e-08
4.67163e-08
3.04281e-08
9.45016e-07
1.67845e-06
1.24144e-06
9.81629e-07
2.8426e-07
1.00094e-07
1.46855e-07
2.9689e-07
1.2495e-07
1.58805e-07
1.69584e-07
3.3115e-07
5.12756e-07
1.36268e-07
1.42082e-08
6.61126e-09
2.85376e-08
8.16905e-08
1.08789e-07
8.83694e-08
5.77273e-08
3.99997e-08
2.66653e-08
7.41545e-07
8.40169e-07
2.46628e-07
1.09088e-07
9.25696e-08
8.6712e-08
1.00547e-07
1.20241e-07
1.24619e-07
1.53229e-07
2.34396e-07
6.01926e-07
8.18631e-07
6.03525e-07
2.11815e-08
6.26935e-09
6.82592e-09
3.41612e-08
5.67482e-08
5.00777e-08
3.51771e-08
2.91324e-08
1.76036e-08
5.41585e-07
5.36773e-07
2.58983e-07
9.57607e-08
8.06179e-08
8.38115e-08
8.92062e-08
9.32198e-08
5.29193e-08
4.25909e-08
1.35275e-07
6.04009e-07
8.12739e-07
5.47006e-07
7.76431e-08
1.12883e-08
6.88218e-09
1.42605e-08
2.35282e-08
2.47656e-08
1.97238e-08
1.53856e-08
1.1976e-08
2.83387e-07
4.21688e-07
2.32263e-07
9.8163e-08
7.65408e-08
7.26734e-08
7.04496e-08
6.51602e-08
3.92776e-08
3.13071e-08
6.69465e-08
2.89108e-07
5.27297e-07
2.14853e-07
5.95897e-08
2.13536e-08
1.03287e-08
9.21443e-09
1.15042e-08
1.25111e-08
1.05958e-08
8.68027e-09
6.74141e-09
1.91045e-07
2.72383e-07
1.61689e-07
8.85238e-08
6.68914e-08
5.64837e-08
4.98648e-08
4.15623e-08
2.95856e-08
3.06703e-08
4.78285e-08
9.29221e-08
9.78733e-08
6.26661e-08
3.45343e-08
1.76178e-08
9.93045e-09
8.41441e-09
7.92894e-09
7.74318e-09
6.82386e-09
5.36138e-09
4.47136e-09
1.08132e-07
1.74982e-07
1.2122e-07
7.53946e-08
5.62677e-08
4.24086e-08
3.44233e-08
2.71247e-08
2.151e-08
2.286e-08
3.07943e-08
3.58361e-08
2.58807e-08
2.10052e-08
1.66221e-08
1.12587e-08
8.04773e-09
6.70381e-09
5.80993e-09
5.2251e-09
4.53977e-09
3.80332e-09
3.08815e-09
6.74926e-08
1.02766e-07
8.76105e-08
6.47523e-08
4.77714e-08
3.33866e-08
2.4953e-08
1.8914e-08
1.52594e-08
1.51933e-08
1.701e-08
1.63521e-08
1.26952e-08
1.01871e-08
8.20339e-09
6.73422e-09
5.52129e-09
4.66171e-09
3.91318e-09
3.42646e-09
2.95836e-09
2.53228e-09
2.1633e-09
4.67088e-08
7.73835e-08
6.89981e-08
5.43734e-08
4.02615e-08
2.73403e-08
1.97737e-08
1.40881e-08
1.07493e-08
9.33486e-09
8.711e-09
7.47407e-09
5.94385e-09
4.90815e-09
4.27488e-09
3.81571e-09
3.27072e-09
2.80857e-09
2.33782e-09
2.06496e-09
1.82271e-09
1.54804e-09
1.32307e-09
3.73606e-08
6.15125e-08
5.70629e-08
4.56518e-08
3.27197e-08
2.25522e-08
1.5495e-08
1.06029e-08
7.5032e-09
5.80759e-09
4.73395e-09
3.75599e-09
3.06711e-09
2.61392e-09
2.31695e-09
2.06515e-09
1.79301e-09
1.5206e-09
1.28649e-09
1.12107e-09
9.49137e-10
8.28719e-10
7.2279e-10
2.75848e-08
4.45762e-08
4.39674e-08
3.49112e-08
2.59615e-08
1.81394e-08
1.19862e-08
7.81973e-09
5.12441e-09
3.52083e-09
2.58937e-09
1.97913e-09
1.59469e-09
1.36016e-09
1.18183e-09
1.0475e-09
9.0085e-10
7.61737e-10
6.38077e-10
5.44442e-10
4.70491e-10
4.02898e-10
3.36852e-10
2.07351e-08
3.18333e-08
3.11061e-08
2.43318e-08
1.84328e-08
1.32508e-08
9.03824e-09
5.71005e-09
3.5697e-09
2.29088e-09
1.54454e-09
1.08486e-09
8.3523e-10
6.8707e-10
5.82447e-10
4.99342e-10
4.21229e-10
3.57031e-10
2.94184e-10
2.49217e-10
2.09258e-10
1.70003e-10
1.43566e-10
1.41387e-08
2.12921e-08
2.05484e-08
1.61458e-08
1.20495e-08
8.77576e-09
6.00654e-09
3.75992e-09
2.32842e-09
1.42836e-09
8.98356e-10
5.8749e-10
4.10259e-10
3.13477e-10
2.5574e-10
2.15328e-10
1.82522e-10
1.55003e-10
1.26524e-10
1.03948e-10
8.62815e-11
6.77183e-11
5.45068e-11
9.9894e-09
1.44956e-08
1.31811e-08
1.01209e-08
7.27276e-09
5.13059e-09
3.53436e-09
2.24502e-09
1.35994e-09
8.12492e-10
4.85873e-10
2.98003e-10
1.91853e-10
1.35443e-10
1.03536e-10
8.38255e-11
7.05281e-11
5.89541e-11
4.76722e-11
3.91727e-11
3.09034e-11
2.29186e-11
1.8576e-11
6.66134e-09
9.19908e-09
7.92925e-09
5.81331e-09
3.96292e-09
2.70434e-09
1.82655e-09
1.1635e-09
7.07972e-10
4.15527e-10
2.41015e-10
1.38956e-10
8.42593e-11
5.43485e-11
3.87193e-11
2.97855e-11
2.39955e-11
1.98709e-11
1.61971e-11
1.29583e-11
1.00979e-11
7.40369e-12
5.71944e-12
4.28335e-09
5.40156e-09
4.36126e-09
3.01019e-09
1.93191e-09
1.2699e-09
8.31245e-10
5.26458e-10
3.14733e-10
1.84149e-10
1.04192e-10
5.82054e-11
3.27482e-11
2.01645e-11
1.33542e-11
9.49083e-12
7.38495e-12
6.04691e-12
4.83609e-12
3.88718e-12
2.82739e-12
2.05317e-12
1.55616e-12
2.58169e-09
2.99581e-09
2.22039e-09
1.43117e-09
8.62538e-10
5.2842e-10
3.30414e-10
2.04134e-10
1.23309e-10
6.90714e-11
3.76182e-11
2.12001e-11
1.17098e-11
6.70178e-12
4.08741e-12
2.8367e-12
2.10442e-12
1.68776e-12
1.30728e-12
1.00642e-12
7.68071e-13
5.14499e-13
3.69165e-13
1.34436e-09
1.33329e-09
9.18699e-10
5.59658e-10
3.17105e-10
1.8307e-10
1.0938e-10
6.66551e-11
3.93329e-11
2.26665e-11
1.24756e-11
6.68872e-12
3.60538e-12
1.98048e-12
1.16287e-12
7.43208e-13
5.31914e-13
4.12235e-13
3.08128e-13
2.33931e-13
1.60972e-13
1.13746e-13
7.67275e-14
7.028e-10
5.85768e-10
3.69939e-10
2.10555e-10
1.11924e-10
5.90566e-11
3.40248e-11
2.046e-11
1.19761e-11
6.76304e-12
3.60104e-12
1.91899e-12
9.74237e-13
5.14424e-13
2.81101e-13
1.76587e-13
1.21138e-13
8.93341e-14
6.59803e-14
4.7407e-14
3.29707e-14
2.13113e-14
1.33746e-14
2.75469e-10
2.09137e-10
1.21802e-10
6.55495e-11
3.35479e-11
1.72439e-11
9.60822e-12
5.4347e-12
3.14006e-12
1.73151e-12
9.09904e-13
4.5262e-13
2.25936e-13
1.14871e-13
6.2337e-14
3.71619e-14
2.50028e-14
1.78618e-14
1.2523e-14
8.62914e-15
5.6447e-15
3.50346e-15
2.08228e-15
9.8074e-11
6.72097e-11
3.64206e-11
1.88533e-11
8.97355e-12
4.37243e-12
2.33153e-12
1.30478e-12
7.28976e-13
3.90797e-13
1.97228e-13
9.81164e-14
4.63339e-14
2.33901e-14
1.26071e-14
7.47238e-15
4.85691e-15
3.29474e-15
2.24585e-15
1.43379e-15
8.74229e-16
5.01347e-16
2.75014e-16
2.62563e-11
1.61353e-11
8.65309e-12
4.30399e-12
2.07563e-12
1.01889e-12
5.24916e-13
2.81679e-13
1.52469e-13
8.01949e-14
3.90348e-14
1.91293e-14
9.28178e-15
4.51606e-15
2.38555e-15
1.36908e-15
8.7109e-16
5.6869e-16
3.64734e-16
2.14204e-16
1.20671e-16
6.27891e-17
3.4274e-17
5.60654e-12
3.06887e-12
1.50992e-12
7.84774e-13
4.18773e-13
2.07673e-13
9.999e-14
5.41027e-14
2.98733e-14
1.58017e-14
7.7411e-15
3.6266e-15
1.6685e-15
7.89252e-16
4.05293e-16
2.30931e-16
1.43314e-16
8.96891e-17
5.33619e-17
2.92157e-17
1.46698e-17
7.31216e-18
5.99628e-18
6.98935e-13
3.64733e-13
2.22225e-13
1.29971e-13
7.22953e-14
3.71258e-14
1.89951e-14
1.01771e-14
5.48291e-15
2.79809e-15
1.35084e-15
6.1539e-16
2.80551e-16
1.29081e-16
6.53882e-17
3.67342e-17
2.23125e-17
1.32201e-17
7.16044e-18
3.52892e-18
1.67295e-18
1.07165e-18
2.6255e-18
3.77276e-14
2.37402e-14
2.15456e-14
1.69996e-14
1.03293e-14
5.70599e-15
3.12162e-15
1.7441e-15
9.78737e-16
5.18358e-16
2.37225e-16
1.04169e-16
4.50425e-17
2.03274e-17
1.00387e-17
5.65378e-18
3.36351e-18
1.82345e-18
8.71634e-19
3.88635e-19
2.15255e-19
3.62567e-19
1.98316e-18
8.33623e-17
3.69618e-16
1.30682e-15
1.81848e-15
1.40416e-15
8.71751e-16
4.84749e-16
2.82498e-16
1.67216e-16
8.6091e-17
3.95129e-17
1.63854e-17
6.87054e-18
3.03981e-18
1.50954e-18
8.45416e-19
4.60062e-19
2.3087e-19
1.03452e-19
4.9055e-20
5.79725e-20
2.27655e-19
1.46056e-18
1.3095e-22
1.12385e-18
4.65452e-17
1.66425e-16
1.56352e-16
1.0332e-16
6.57041e-17
4.21514e-17
2.55301e-17
1.37865e-17
6.25373e-18
2.62351e-18
1.07784e-18
4.66801e-19
2.2678e-19
1.25598e-19
6.51024e-20
2.96618e-20
1.29522e-20
9.13694e-21
2.38303e-20
1.09525e-19
7.57654e-19
4.19505e-07
0.000407625
0.000194667
3.8091e-05
-4.28638e-07
0.000957052
0.00148295
3.45078e-05
0.247691
0.345733
0.321855
0.217584
0.861171
0.860677
0.864341
0.897554
0.947472
0.985739
0.999716
0.999757
0.999968
0.999982
0.99999
0.999981
0.999997
0.999997
0.999992
0.999986
0.84848
0.860431
0.872112
0.883462
0.105357
0.115989
0.125926
0.134359
-1.29931e-09
-1.1402e-09
-1.05062e-09
-1.10297e-09
1.98747e-07
1.97989e-07
1.97598e-07
1.95204e-07
2.30724e-07
2.40075e-07
2.51676e-07
2.55706e-07
1.57828e-07
1.90394e-07
1.69684e-07
1.9215e-07
9.58987e-08
9.62627e-08
1.24244e-07
1.31912e-07
5.85085e-08
6.96847e-08
6.89819e-08
7.53112e-08
2.93566e-08
3.33809e-08
3.9179e-08
4.21593e-08
1.50624e-08
1.45483e-08
1.98252e-08
2.10037e-08
1.14822e-08
9.02175e-09
9.29964e-09
9.17982e-09
7.03298e-09
5.68218e-09
5.53319e-09
5.05675e-09
5.10903e-09
3.70828e-09
3.07626e-09
2.83754e-09
3.56091e-09
2.69802e-09
2.44677e-09
2.0738e-09
2.638e-09
2.23797e-09
1.88596e-09
1.64665e-09
1.87186e-09
1.63156e-09
1.48521e-09
1.28946e-09
1.20115e-09
1.04727e-09
9.5561e-10
8.76211e-10
6.64838e-10
5.69374e-10
5.26607e-10
4.97401e-10
3.09861e-10
2.71395e-10
2.4946e-10
2.3903e-10
1.30174e-10
1.14632e-10
1.05774e-10
9.54489e-11
4.88739e-11
4.03891e-11
3.68651e-11
3.5129e-11
1.69296e-11
1.40968e-11
1.27964e-11
1.11942e-11
4.92779e-12
4.12695e-12
3.55058e-12
3.27308e-12
1.30991e-12
1.10914e-12
9.79489e-13
8.25241e-13
3.0681e-13
2.4019e-13
2.12332e-13
1.79395e-13
6.23036e-14
5.04022e-14
4.08083e-14
3.22803e-14
1.02812e-14
8.24604e-15
6.67947e-15
5.05049e-15
1.56562e-15
1.19885e-15
8.97065e-16
6.70895e-16
2.00033e-16
1.53928e-16
1.24911e-16
1.07385e-16
2.69346e-17
2.50313e-17
2.93682e-17
4.47709e-17
6.94319e-18
9.85447e-18
1.85352e-17
4.3529e-17
4.19559e-18
8.01641e-18
2.06273e-17
6.14573e-17
3.565e-18
8.62039e-18
2.78751e-17
9.02502e-17
3.03739e-18
9.57192e-18
3.42075e-17
1.11437e-16
2.24137e-18
7.88946e-18
2.71538e-17
8.33959e-17
0.000276786
0.0517656
0.0402854
0.0442516
0.138849
0.552133
0.21993
6.67491e-19
6.08804e-21
-8.23822e-09
4.85559e-05
0.000938643
0.0462883
0.0159188
0.000218373
0.000210073
0.000172153
0.0912977
0.274251
0.00258643
0.0865758
0.0453144
0.0435212
0.0816057
0.478362
0.175204
0.0158195
0.0504479
0.0338812
0.00785827
0.00553219
0.00537383
0.00778321
0.0378302
0.126357
0.253803
0.315671
0.302273
0.361233
0.48834
0.34875
0.212173
0.455231
0.668886
0.402573
0.371402
0.653308
0.763369
0.723872
0.638942
0.514196
0.542852
0.654148
0.781598
0.834887
0.82958
0.732097
0.894471
0.890097
0.89646
0.917799
0.963774
0.86089
0.781919
0.811584
0.971944
0.999888
0.999995
0.999969
0.999937
0.999922
0.999803
0.99972
0.999064
0.982419
0.981076
0.998918
0.998795
0.999949
0.999959
0.99931
0.984254
0.950835
0.971922
0.997518
0.999997
0.999996
0.999998
1
0.999999
0.999915
0.999766
0.99979
0.999931
0.999845
0.999981
0.999986
0.999963
0.999838
0.999914
0.999988
1
1
1
1
0.999999
1
1
1
0.999996
0.999947
0.999958
0.999976
0.999977
0.999992
0.999998
0.999998
0.999998
0.999997
0.999999
1
1
1
1
1
0.999999
0.999987
0.999976
0.999996
0.999995
0.999994
0.999996
0.999995
0.896172
0.92329
0.942266
0.954589
0.963607
0.969651
0.972721
0.973481
0.971322
0.967481
0.966598
0.977623
0.994981
0.999974
0.998732
0.993783
0.991584
0.992486
0.99475
0.141321
0.16787
0.192483
0.210663
0.223453
0.230505
0.22946
0.221721
0.216282
0.223518
0.241841
0.27369
0.329115
0.420267
0.451529
0.481363
0.553119
0.630781
0.66891
-5.81233e-10
-1.17145e-17
-5.24525e-09
-1.86826e-22
-1.6177e-22
5.5778e-22
8.17153e-22
4.49707e-18
3.87889e-14
2.37181e-06
4.26065e-11
3.77703e-11
2.69302e-05
1.70433e-18
0.000239589
0.00124372
0.00704356
0.0189312
0.0301868
1.87321e-07
2.87837e-07
1.65398e-06
0.000176971
0.000477143
0.000623363
0.000616284
0.000213241
8.44663e-22
1.86702e-09
-2.71051e-22
0.000302081
0.000295439
0.000158124
1.22059e-05
2.07526e-07
7.98727e-10
6.93875e-10
7.98729e-10
2.99422e-07
7.32039e-07
3.06595e-06
0.000340056
0.000975671
0.000976585
0.000795677
8.24841e-05
2.09117e-21
3.61272e-05
0.000735201
0.000751599
0.000733472
0.000232453
2.31718e-07
2.10901e-07
1.83568e-07
1.11532e-07
8.11232e-08
2.13123e-07
3.28453e-07
5.83144e-07
1.02806e-06
2.16314e-05
0.000107854
4.36879e-07
1.20699e-06
6.553e-07
2.00393e-05
0.000152164
0.000325952
0.000120005
5.57865e-05
1.46353e-06
2.69534e-07
3.38528e-07
2.51493e-07
9.48392e-08
1.37879e-07
1.37734e-07
1.15783e-07
1.23644e-07
1.28628e-07
1.76356e-07
8.33529e-07
2.40977e-06
1.86043e-06
1.39125e-06
2.47781e-06
2.78024e-06
2.75115e-06
2.13347e-06
4.73198e-07
3.85411e-07
3.87608e-07
3.86405e-07
3.1648e-07
8.43948e-08
9.73439e-08
1.05573e-07
1.29564e-07
1.55512e-07
1.7309e-07
1.94281e-07
2.45645e-07
3.68619e-07
3.65423e-07
3.58735e-07
3.46045e-07
2.65895e-07
2.20245e-07
2.8166e-07
3.10597e-07
3.60939e-07
3.74619e-07
3.42819e-07
4.82025e-08
6.68743e-08
9.27696e-08
1.57032e-07
2.14643e-07
2.45865e-07
2.17997e-07
1.80834e-07
1.9406e-07
2.59311e-07
3.09289e-07
2.74128e-07
2.184e-07
1.50363e-07
1.72317e-07
1.95794e-07
1.94246e-07
2.49639e-07
2.79853e-07
2.50573e-08
3.33126e-08
4.84658e-08
7.96348e-08
1.33407e-07
1.82022e-07
1.94258e-07
1.61426e-07
1.24022e-07
1.22111e-07
1.69536e-07
1.90771e-07
1.55746e-07
1.04449e-07
8.4453e-08
8.50551e-08
1.0034e-07
1.03748e-07
9.44404e-08
1.16856e-08
1.47143e-08
1.81092e-08
2.35755e-08
3.35215e-08
4.75608e-08
6.1395e-08
6.22337e-08
4.96696e-08
4.49671e-08
5.36622e-08
7.2441e-08
7.34862e-08
5.31602e-08
3.99444e-08
3.84956e-08
3.4506e-08
2.62355e-08
2.34233e-08
4.90352e-09
6.53112e-09
8.64957e-09
1.01134e-08
1.07312e-08
1.02075e-08
9.63041e-09
1.17044e-08
1.52192e-08
1.91582e-08
2.1274e-08
2.27264e-08
2.41541e-08
2.36803e-08
2.02131e-08
1.67958e-08
1.534e-08
1.5306e-08
1.50498e-08
2.64945e-09
2.72508e-09
3.86794e-09
5.07851e-09
6.3195e-09
7.44728e-09
8.1428e-09
8.90253e-09
9.87887e-09
1.09912e-08
1.15529e-08
1.13107e-08
1.11138e-08
1.05262e-08
1.11391e-08
1.29926e-08
1.40309e-08
1.67897e-08
1.91164e-08
1.75401e-09
1.56534e-09
1.61168e-09
2.1103e-09
2.68024e-09
3.31255e-09
3.96516e-09
4.58905e-09
5.16135e-09
5.62206e-09
5.82582e-09
5.92734e-09
6.10407e-09
6.84227e-09
8.19292e-09
1.13399e-08
1.45166e-08
2.29684e-08
3.03047e-08
1.37547e-09
1.14149e-09
1.00934e-09
9.68387e-10
1.04616e-09
1.28768e-09
1.55958e-09
1.86051e-09
2.13001e-09
2.40148e-09
2.6812e-09
3.00697e-09
3.55105e-09
4.47158e-09
6.28649e-09
1.06243e-08
1.95874e-08
3.71017e-08
4.39243e-08
1.06509e-09
8.63592e-10
7.11806e-10
6.01304e-10
5.47184e-10
5.43458e-10
6.2149e-10
7.43538e-10
8.99991e-10
1.10617e-09
1.36847e-09
1.73344e-09
2.31109e-09
3.29055e-09
5.069e-09
9.99146e-09
2.09584e-08
5.33905e-08
7.94687e-08
7.30085e-10
5.89082e-10
4.86552e-10
3.88933e-10
3.17509e-10
2.73854e-10
2.6297e-10
3.01019e-10
3.9027e-10
5.41135e-10
7.60538e-10
1.09388e-09
1.64944e-09
2.60248e-09
4.41423e-09
9.99567e-09
2.64893e-08
7.84779e-08
8.30094e-08
4.11475e-10
3.45295e-10
2.85323e-10
2.24861e-10
1.7943e-10
1.45562e-10
1.3626e-10
1.51195e-10
2.03542e-10
3.0836e-10
4.88641e-10
7.85043e-10
1.29619e-09
2.17371e-09
3.84481e-09
9.72359e-09
2.84609e-08
8.21994e-08
8.21765e-08
1.9633e-10
1.62888e-10
1.33799e-10
1.0823e-10
8.50806e-11
7.02146e-11
6.86499e-11
8.37065e-11
1.23435e-10
2.05445e-10
3.55822e-10
6.27651e-10
1.10573e-09
1.94562e-09
3.66099e-09
9.10064e-09
3.1504e-08
9.08013e-08
7.42941e-08
7.83473e-11
6.48923e-11
5.22488e-11
4.14375e-11
3.33631e-11
2.9894e-11
3.37336e-11
4.88923e-11
8.35089e-11
1.54392e-10
2.90571e-10
5.46671e-10
1.00674e-09
1.8165e-09
3.4786e-09
9.42541e-09
3.48312e-08
9.19156e-08
4.9934e-08
2.77379e-11
2.14507e-11
1.71568e-11
1.33766e-11
1.1433e-11
1.21195e-11
1.75236e-11
3.10347e-11
6.31824e-11
1.26706e-10
2.54968e-10
5.06102e-10
9.64086e-10
1.78768e-09
3.39679e-09
9.52853e-09
3.85698e-08
9.57938e-08
3.89951e-08
8.42205e-12
6.37416e-12
4.70446e-12
3.72378e-12
3.75857e-12
5.62834e-12
1.09595e-11
2.32797e-11
5.20702e-11
1.12487e-10
2.38279e-10
4.96093e-10
9.79533e-10
1.82439e-09
3.43369e-09
9.68837e-09
4.32415e-08
9.5867e-08
3.4079e-08
2.34803e-12
1.6562e-12
1.1869e-12
1.10281e-12
1.62414e-12
3.50355e-12
8.21681e-12
1.98248e-11
4.59446e-11
1.06175e-10
2.36286e-10
5.09137e-10
1.03256e-09
1.92811e-09
3.5723e-09
1.00628e-08
4.46936e-08
9.34948e-08
1.90805e-08
5.53789e-13
3.59868e-13
2.8788e-13
4.22157e-13
1.01217e-12
2.69243e-12
7.06085e-12
1.77666e-11
4.36183e-11
1.05228e-10
2.44403e-10
5.37e-10
1.11032e-09
2.11566e-09
3.83618e-09
1.02516e-08
4.32623e-08
5.44937e-08
1.40022e-08
1.131e-13
7.57076e-14
9.51489e-14
2.54711e-13
7.98024e-13
2.31567e-12
6.41359e-12
1.68693e-11
4.2604e-11
1.08377e-10
2.58999e-10
5.80912e-10
1.22037e-09
2.34596e-09
4.18558e-09
1.13009e-08
3.251e-08
4.05135e-08
5.59271e-09
1.94629e-14
1.88377e-14
5.35529e-14
2.05363e-13
6.93099e-13
2.10317e-12
6.05768e-12
1.6685e-11
4.419e-11
1.1353e-10
2.79062e-10
6.34573e-10
1.33017e-09
2.56472e-09
4.45476e-09
1.15008e-08
2.55603e-08
6.13649e-09
4.07858e-09
3.67273e-15
9.94289e-15
4.62101e-14
1.8977e-13
6.46943e-13
2.04499e-12
6.12119e-12
1.72247e-11
4.63261e-11
1.20295e-10
2.98652e-10
6.79638e-10
1.42911e-09
2.69093e-09
4.6472e-09
1.10352e-08
1.40034e-08
1.0077e-08
1.847e-09
1.40274e-15
9.03179e-15
4.51545e-14
1.82479e-13
6.39644e-13
2.05554e-12
6.23806e-12
1.79033e-11
4.87867e-11
1.26841e-10
3.13334e-10
7.09548e-10
1.47368e-09
2.73328e-09
4.70175e-09
9.01933e-09
9.7093e-09
3.66394e-09
1.35587e-09
1.19833e-15
8.9592e-15
4.37998e-14
1.80702e-13
6.32506e-13
2.0937e-12
6.32718e-12
1.80381e-11
4.94774e-11
1.2836e-10
3.16e-10
7.05028e-10
1.44909e-09
2.63335e-09
4.23847e-09
6.91538e-09
5.30302e-09
3.03484e-09
5.81605e-10
1.26725e-15
8.98054e-15
4.29046e-14
1.76095e-13
6.15971e-13
2.02105e-12
6.10674e-12
1.74137e-11
4.71476e-11
1.21466e-10
2.97175e-10
6.54523e-10
1.31943e-09
2.36609e-09
3.55159e-09
4.99603e-09
3.62152e-09
1.07495e-09
3.69624e-10
1.35171e-15
8.90439e-15
4.08721e-14
1.62033e-13
5.63834e-13
1.79923e-12
5.44735e-12
1.53252e-11
4.1213e-11
1.06094e-10
2.55671e-10
5.60202e-10
1.11314e-09
1.92208e-09
2.76151e-09
3.07695e-09
1.82846e-09
7.08667e-10
1.69391e-10
1.42701e-15
8.05603e-15
3.53313e-14
1.32715e-13
4.52459e-13
1.42428e-12
4.23402e-12
1.18974e-11
3.1838e-11
8.20583e-11
1.97943e-10
4.28612e-10
8.32094e-10
1.42143e-09
1.83159e-09
1.88283e-09
1.01457e-09
2.59578e-10
1.02369e-10
1.29161e-15
6.38904e-15
2.53828e-14
8.84501e-14
2.89994e-13
8.84959e-13
2.63485e-12
7.60547e-12
2.07082e-11
5.3797e-11
1.30313e-10
2.86935e-10
5.67929e-10
9.17244e-10
1.10786e-09
1.03087e-09
4.34382e-10
1.41652e-10
5.20879e-11
8.8033e-16
3.70714e-15
1.33058e-14
4.33734e-14
1.39262e-13
4.37321e-13
1.32337e-12
3.8825e-12
1.09235e-11
2.96945e-11
7.43516e-11
1.66077e-10
3.16887e-10
5.2817e-10
6.12909e-10
4.73199e-10
1.67821e-10
5.97382e-11
1.73799e-11
3.24156e-16
1.12996e-15
3.56742e-15
1.10154e-14
3.9026e-14
1.33741e-13
4.44971e-13
1.38309e-12
4.1455e-12
1.16428e-11
3.03701e-11
7.12249e-11
1.37478e-10
2.2169e-10
2.39872e-10
1.47187e-10
5.11083e-11
1.23493e-11
7.64726e-13
)
;

boundaryField
{
    leftWall
    {
        type            alphaContactAngle;
        contactAngleProperties 
        {
            mercury         
            {
                theta0          90;
            }
            air             
            {
                theta0          90;
            }
            water           
            {
                theta0          90;
            }
        }
        value           nonuniform List<scalar> 
50
(
2.2668e-14
1.93482e-14
6.23181e-14
4.97289e-12
2.15316e-10
2.25888e-09
3.52958e-09
3.65848e-09
2.32022e-09
2.55606e-10
2.55602e-10
0.374897
0.894675
0.999687
0.999683
0.86891
0.155622
7.89973e-06
8.63649e-07
1.57898e-06
1.80996e-06
1.98723e-06
1.75353e-06
1.17908e-06
9.45016e-07
7.41545e-07
5.41585e-07
2.83387e-07
1.91045e-07
1.08132e-07
6.74926e-08
4.67088e-08
3.73606e-08
2.75848e-08
2.07351e-08
1.41387e-08
9.9894e-09
6.66134e-09
4.28335e-09
2.58169e-09
1.34436e-09
7.028e-10
2.75469e-10
9.8074e-11
2.62563e-11
5.60654e-12
6.98935e-13
3.77276e-14
8.33623e-17
1.3095e-22
)
;
    }
    rightWall
    {
        type            alphaContactAngle;
        contactAngleProperties 
        {
            mercury         
            {
                theta0          90;
            }
            air             
            {
                theta0          90;
            }
            water           
            {
                theta0          90;
            }
        }
        value           nonuniform List<scalar> 
50
(
0.221999
0.222109
0.441553
0.456191
0.343997
0.105565
0.00232556
0.0847343
0.274251
0.302273
0.732097
0.981076
0.999845
0.999977
0.999995
0.99475
0.66891
0.0301868
7.98729e-10
8.11232e-08
9.48392e-08
3.1648e-07
3.42819e-07
2.79853e-07
9.44404e-08
2.34233e-08
1.50498e-08
1.91164e-08
3.03047e-08
4.39243e-08
7.94687e-08
8.30094e-08
8.21765e-08
7.42941e-08
4.9934e-08
3.89951e-08
3.4079e-08
1.90805e-08
1.40022e-08
5.59271e-09
4.07858e-09
1.847e-09
1.35587e-09
5.81605e-10
3.69624e-10
1.69391e-10
1.02369e-10
5.20879e-11
1.73799e-11
7.64726e-13
)
;
    }
    lowerWall
    {
        type            alphaContactAngle;
        contactAngleProperties 
        {
            mercury         
            {
                theta0          90;
            }
            air             
            {
                theta0          90;
            }
            water           
            {
                theta0          90;
            }
        }
        value           nonuniform List<scalar> 
62
(
2.2668e-14
1.26505e-13
5.1459e-13
1.58856e-12
3.84326e-12
7.94616e-12
1.53306e-11
2.77203e-11
4.93841e-11
8.74992e-11
1.54693e-10
2.74988e-10
4.90498e-10
8.46152e-10
1.71152e-09
3.42933e-09
6.54446e-09
8.96823e-09
9.38343e-09
1.47277e-05
0.000418565
0.000566838
0.000566667
0.000566667
0.000163501
1.68877e-08
8.01513e-08
1.05595e-08
4.03044e-06
2.97199e-05
2.95324e-05
4.19505e-07
0.000407625
0.000194667
3.8091e-05
0.111348
0.294827
0.441845
0.348929
0.0422173
0.0116355
0.0353911
0.0451071
0.111348
0.105145
0.0544612
0.0373048
0.0375545
0.196
0.296101
0.297094
0.28671
0.279608
0.283679
0.279584
0.139464
0.0604739
0.073247
0.109273
0.188689
0.231251
0.221999
)
;
    }
    atmosphere
    {
        type            inletOutlet;
        inletValue      uniform 0;
        value           nonuniform List<scalar> 
46
(
0
0
0
1.66425e-16
1.56352e-16
1.0332e-16
6.57041e-17
4.21514e-17
2.55301e-17
1.37865e-17
6.25373e-18
2.62351e-18
1.07784e-18
0
0
0
0
0
0
0
0
0
0
0
0
0
0
0
0
0
0
3.9026e-14
1.33741e-13
4.44971e-13
1.38309e-12
4.1455e-12
1.16428e-11
3.03701e-11
7.12249e-11
1.37478e-10
2.2169e-10
2.39872e-10
0
0
0
0
)
;
    }
    defaultFaces
    {
        type            empty;
    }
}


// ************************************************************************* //
