/*--------------------------------*- C++ -*----------------------------------*\
  =========                 |
  \\      /  F ield         | OpenFOAM: The Open Source CFD Toolbox
   \\    /   O peration     | Website:  https://openfoam.org
    \\  /    A nd           | Version:  13
     \\/     M anipulation  |
\*---------------------------------------------------------------------------*/
FoamFile
{
    format      ascii;
    class       volScalarField;
    location    "2.65";
    object      alpha.air;
}
// * * * * * * * * * * * * * * * * * * * * * * * * * * * * * * * * * * * * * //

dimensions      [];

internalField   nonuniform List<scalar> 
2268
(
5.73915e-13
6.68555e-13
8.20473e-13
7.69786e-13
6.4024e-13
4.54934e-13
2.79989e-13
1.48961e-13
7.10193e-14
3.15949e-14
2.80036e-14
3.00449e-14
3.87644e-14
5.42248e-14
9.2244e-14
1.68663e-13
2.79345e-13
5.36671e-13
1.36039e-12
2.3203e-12
1.53341e-12
2.31725e-12
1.71449e-11
2.13063e-12
3.17082e-12
3.26465e-12
3.17938e-12
2.87042e-12
2.2901e-12
1.42725e-12
6.81405e-13
3.05985e-13
1.87129e-13
1.96537e-13
3.01599e-13
5.76788e-13
1.1285e-12
2.08475e-12
3.18701e-12
4.06583e-12
8.0258e-12
1.47869e-11
1.65755e-11
1.97498e-11
2.70685e-10
5.06521e-10
5.63225e-12
8.88746e-12
9.313e-12
8.1852e-12
7.51917e-12
6.53677e-12
4.98059e-12
2.74389e-12
1.09948e-12
6.5665e-13
7.48487e-13
1.36921e-12
3.07024e-12
6.80414e-12
1.466e-11
3.07544e-11
5.58546e-11
7.03098e-11
1.17814e-10
2.30237e-10
8.23128e-10
2.01811e-09
1.07432e-09
1.98447e-11
1.64065e-11
3.09368e-11
8.18722e-12
1.03148e-11
1.01219e-11
1.10427e-11
1.08563e-11
8.1441e-12
4.85847e-12
3.7817e-12
4.5719e-12
7.27333e-12
1.56309e-11
4.04141e-11
8.32458e-11
1.52087e-10
2.59159e-10
3.57349e-10
2.8916e-10
1.1079e-09
2.34396e-09
8.61646e-09
1.1559e-10
3.63418e-11
5.48851e-11
1.75034e-09
1.01184e-11
1.0124e-11
1.01501e-11
1.32996e-11
1.55569e-11
1.55675e-11
1.28775e-11
1.1642e-11
1.40468e-11
2.58298e-11
5.53072e-11
9.3618e-11
1.56044e-10
2.37644e-10
3.83381e-10
2.17746e-09
2.19409e-09
6.86643e-09
3.86813e-09
4.93769e-09
6.07322e-09
5.50124e-11
4.1124e-07
6.216e-07
3.21884e-07
3.4626e-08
1.32425e-11
1.32349e-11
4.15307e-11
6.88698e-11
5.7532e-11
5.02033e-11
5.23848e-11
6.34802e-11
8.30651e-11
8.17009e-11
9.92243e-11
1.00724e-08
1.86421e-07
1.53138e-07
2.45683e-07
5.29038e-05
1.6585e-08
2.58603e-08
5.84482e-08
7.46194e-07
2.28372e-06
1.66209e-06
5.18593e-07
8.80071e-08
7.82662e-09
2.67943e-09
1.30122e-09
7.76066e-10
5.11606e-10
3.39418e-10
1.63368e-10
2.73145e-10
1.09688e-08
2.21875e-08
6.77199e-09
7.03833e-08
4.48643e-06
4.64744e-05
0.000539179
3.33577e-08
8.29564e-08
6.08638e-08
1.12753e-07
4.64422e-06
3.05665e-06
5.99111e-07
2.91677e-07
9.39129e-08
2.62503e-08
1.02307e-08
5.56602e-09
2.92222e-09
1.38922e-09
2.10361e-10
1.13382e-09
3.50145e-08
3.51282e-08
1.0879e-08
8.11207e-09
9.63648e-09
0.000452336
0.000650534
0.00042196
0.00169846
0.0208312
0.0341495
0.0479937
0.0585318
0.0581674
0.0521843
0.0453416
0.0454076
0.0626675
0.0690925
0.0698507
0.0625724
0.0497902
0.0138502
0.0137602
0.0137168
0.0135434
0.000390246
0.000715089
0.00278443
0.00644025
0.0113412
0.0216817
0.0308533
0.0302649
0.0614218
0.0862763
0.0627267
0.0636613
0.0686999
0.120382
0.111209
0.0718278
0.0141247
0.0135026
0.0135143
0.0138073
0.0146488
0.0156677
0.0163803
0.00442625
2.32427e-05
2.33189e-05
2.32427e-05
0.0790624
0.286077
0.352457
0.243091
0.213418
0.307589
0.312826
0.176572
0.0510659
0.0256232
0.0222518
0.0145972
0.0115635
0.0241421
0.0252042
0.0221805
2.34045e-05
2.48563e-05
0.00195304
0.0347134
0.375098
0.573839
0.573864
0.573838
0.573829
0.573802
0.516668
0.310376
0.227476
0.263349
0.0111705
0.0108964
0.0107847
0.0195421
0.0191383
0.00327531
0.000703874
0.00916965
0.00725656
0.031925
0.425083
0.573839
0.573845
0.573108
0.359131
0.145019
0.166773
0.128949
0.303581
0.0170392
0.0315196
0.0106028
0.0103758
0.0100623
0.00936464
0.0342997
0.0434919
0.0143049
1.35773e-05
0.000567597
0.43949
0.573743
0.351159
3.21916e-06
3.21141e-06
1.03513e-05
3.81354e-06
0.299796
0.0523422
0.0561637
0.0535445
0.0122302
0.0109381
0.0467228
0.0574222
0.0590929
0.0158019
1.36157e-05
1.35638e-05
0.0122325
0.573794
0.238128
3.48601e-06
3.05841e-05
6.13521e-05
3.76777e-06
0.233275
0.0451603
0.0575545
0.0582405
0.0429156
0.0312471
0.0935889
0.128669
0.0573977
0.00103753
9.26179e-05
2.3195e-05
0.00809086
0.385256
0.104333
6.29224e-05
3.19475e-05
0.00103723
3.80631e-06
0.162424
3.35381e-08
3.29143e-08
6.696e-05
0.000104447
5.27003e-05
1.03729e-06
2.59739e-07
1.64346e-07
1.00804e-07
5.7897e-08
4.03042e-08
3.15674e-08
1.99143e-08
9.22805e-09
6.48982e-09
1.44526e-08
1.73876e-08
6.04785e-09
2.02287e-08
1.51268e-06
5.79504e-06
0.000676516
0.00251046
0.00881226
0.00427876
0.00158543
0.000674009
2.32096e-05
4.90145e-08
1.81678e-08
1.56697e-12
-3.84374e-12
-3.03841e-12
-2.85892e-12
-1.06782e-10
-1.17508e-10
-4.91046e-11
1.00946e-18
-1.00946e-18
1.3794e-17
1.01257e-14
3.65701e-06
4.82222e-05
0.000192055
0.00722112
0.0173286
0.112168
0.038583
0.00100278
0.000123447
2.4566e-07
1.70712e-07
0.00277752
0.00354381
0.00205653
0.000476964
3.05986e-06
0.000293793
0.0032854
0.00616159
0.00505302
0.00051002
7.08086e-05
0.00192659
0.00667092
0.0193562
0.0520412
0.0811708
0.118591
0.12185
0.0435897
3.8125e-07
3.7256e-07
3.0647e-07
0.043673
0.122992
0.136007
0.126854
0.12191
0.119925
0.119088
0.132464
0.147934
0.150815
0.150802
0.148629
0.142428
0.144303
0.145158
0.135271
0.0808737
0.106228
0.105325
0.0041576
0.000414265
6.7237e-05
0.00902686
0.147818
0.182941
0.182869
0.186061
0.186015
0.186059
0.152961
0.115358
0.108051
0.128261
0.151145
0.117404
0.0295816
0.0136613
0.0135706
0.00364228
0.0170344
0.0656271
0.000267151
1.51689e-12
0.000214821
4.37893e-05
0.0332357
0.0529425
0.0151959
1.83e-05
0.0110914
0.020495
0.011446
0.00583536
0.00256243
0.00136848
0.00400647
0.00375558
1.20015e-07
1.16947e-07
1.38218e-07
1.43747e-07
0.00173041
0.00229113
1.32455e-15
0.000262053
4.82244e-10
-6.08514e-07
2.07706e-07
3.09051e-07
3.38002e-07
3.12375e-07
3.37378e-07
3.93928e-07
6.11038e-07
2.71005e-07
1.60893e-07
9.68114e-08
8.75995e-08
4.8359e-08
6.22766e-08
-6.75579e-11
5.75266e-12
-1.25257e-12
-8.38991e-13
1.17614e-19
2.31715e-14
-1.96815e-17
0.131035
0.120461
0.0880672
0.071475
0.0583413
0.0618012
0.0535979
0.0388317
0.0353595
0.0368171
0.0411646
0.0481721
0.0580573
0.0697413
0.0833566
0.101245
0.122778
0.144566
0.163854
0.178902
0.187823
0.187515
0.178074
0.844358
0.856421
0.81274
0.772105
0.738718
0.703909
0.688832
0.693859
0.700132
0.707926
0.722067
0.744005
0.769225
0.794506
0.819489
0.844398
0.86783
0.887828
0.90371
0.915375
0.92203
0.922882
0.916415
0.999992
1
1
0.999998
1
1
1
1
1
1
1
0.999999
0.999999
1
1
1
1
1
1
1
1
1
1
0.999999
0.999999
0.999999
0.999999
1
1
1
1
1
1
1
1
1
1
1
1
1
1
1
1
1
1
1
0.999998
0.999996
0.999996
0.999999
1
0.999999
0.999996
0.999987
0.999987
0.999998
1
1
1
1
1
1
1
1
1
1
1
1
1
0.999998
0.999989
0.999968
0.99998
1
0.999999
0.999958
0.999835
0.999844
0.999984
0.999999
1
1
1
1
1
1
1
1
1
1
1
1
0.999998
0.999974
0.999945
0.999946
0.99999
0.999998
0.999903
0.999836
0.999835
0.999845
0.999989
0.999997
0.999998
0.999999
0.999999
1
1
1
1
1
1
1
1
0.999998
0.999983
0.999946
0.999946
0.999991
0.999999
0.99998
0.999851
0.999836
0.999836
0.999969
0.999997
0.999997
0.999997
0.999998
1
1
1
1
1
1
1
1
0.999999
0.999995
0.999978
0.999979
0.999999
1
0.999999
0.999986
0.999933
0.999934
0.999996
0.999997
0.999997
0.999997
0.999998
1
1
1
1
1
1
1
1
0.999999
0.999998
0.999999
0.999999
1
1
1
1
1
1
1
0.999999
0.999998
0.999998
1
1
1
1
1
1
1
1
1
0.999999
0.999999
1
1
1
1
1
1
1
1
1
0.999999
0.999999
0.999999
1
1
1
1
1
1
1
1
1
0.999999
0.999999
1
1
1
1
1
1
1
1
1
0.999999
0.999999
0.999999
1
1
1
1
1
1
1
1
1
1
1
1
1
1
1
1
1
1
1
1
1
0.999999
1
1
1
1
1
1
1
1
1
1
1
1
1
1
1
1
1
1
1
1
1
1
1
1
1
1
1
1
1
1
1
1
1
1
1
1
1
1
1
1
1
1
1
1
1
1
1
1
1
1
1
1
1
1
1
1
1
1
1
1
1
1
1
1
1
1
1
1
1
1
1
1
1
1
1
1
1
1
1
1
1
1
1
1
1
1
1
1
1
1
1
1
1
1
1
1
1
1
1
1
1
1
1
1
1
1
1
1
1
1
1
1
1
1
1
1
1
1
1
1
1
1
1
1
1
1
1
1
1
1
1
1
1
1
1
1
1
1
1
1
1
1
1
1
1
1
1
1
1
1
1
1
1
1
1
1
1
1
1
1
1
1
1
1
1
1
1
1
1
1
1
1
1
1
1
1
1
1
1
1
1
1
1
1
1
1
1
1
1
1
1
1
1
1
1
1
1
1
1
1
1
1
1
1
1
1
1
1
1
1
1
1
1
1
1
1
1
1
1
1
1
1
1
1
1
1
1
1
1
1
1
1
1
1
1
1
1
1
1
1
1
1
1
1
1
1
1
1
1
1
1
1
1
1
1
1
1
1
1
1
1
1
1
1
1
1
1
1
1
1
1
1
1
1
1
1
1
1
1
1
1
1
1
1
1
1
1
1
1
1
1
1
1
1
1
1
1
1
1
1
1
1
1
1
1
1
1
1
1
1
1
1
1
1
1
1
1
1
1
1
1
1
1
1
1
1
1
1
1
1
1
1
1
1
1
1
1
1
1
1
1
1
1
1
1
1
1
1
1
1
1
1
1
1
1
1
1
1
1
1
1
1
1
1
1
1
1
1
1
1
1
1
1
1
1
1
1
1
1
1
1
1
1
1
1
1
1
1
1
1
1
1
1
1
1
1
1
1
1
1
1
1
1
1
1
1
1
1
1
1
1
1
1
1
1
1
1
1
1
1
1
1
1
1
1
1
1
1
1
1
1
1
1
1
1
1
1
1
1
1
1
1
1
1
1
1
1
1
1
1
1
1
1
1
1
1
1
1
1
1
1
1
1
1
1
1
1
1
1
1
1
1
1
1
1
1
1
1
1
1
1
1
1
1
1
1
1
1
1
1
1
1
1
1
1
1
1
1
1
1
1
1
1
1
1
1
1
1
1
1
1
1
1
1
1
1
0.0020332
0.000857875
0.000123335
8.33174e-05
0.0136732
0.00304566
0.00142829
0.00747698
0.128584
0.0640993
0.0184288
0.0628516
0.138829
0.139257
0.135598
0.101926
0.052528
0.0141792
1.21805e-06
1.42842e-06
6.92693e-18
4.79195e-13
1.05041e-06
4.3005e-06
5.24826e-15
6.45205e-07
1.72927e-19
4.1687e-20
0.151517
0.139566
0.127888
0.116538
0.894642
0.884011
0.874074
0.865641
1
1
1
1
1
1
1
1
1
1
1
1
1
1
1
1
1
1
1
1
1
1
1
1
1
1
1
1
1
1
1
1
1
1
1
1
1
1
1
1
1
1
1
1
1
1
1
1
1
1
1
1
1
1
1
1
1
1
1
1
1
1
1
1
1
1
1
1
1
1
1
1
1
1
1
1
1
1
1
1
1
1
1
1
1
1
1
1
1
1
1
1
1
1
1
1
1
1
1
1
1
1
1
1
1
1
1
1
1
1
1
1
1
1
1
1
1
1
1
1
1
1
1
1
1
1
1
1
1
1
1
1
5.77703e-06
0.0123292
0.0397914
0.0518909
0.122126
0.180849
0.16053
0.0153508
0.00117435
0.00067794
0.000354337
0.00015199
0.00513393
0.000125054
2.62608e-05
2.02739e-05
0.0058751
0.0282312
0.0480723
0.00022065
0.0413105
0.11309
0.130186
0.180849
0.180849
0.180849
0.126724
0.0133745
0.000364189
0.000618861
0.000885858
0.000709425
0.000300696
0.000131973
1.99217e-05
0.0108589
0.0593868
0.041323
0.164385
0.178032
0.17792
0.176583
0.180844
0.180849
0.180849
0.180849
0.0638855
2.01238e-07
6.55503e-05
0.000748612
0.00085767
0.000676344
0.000159367
2.02941e-05
0.0102537
0.0594198
0.0585005
0.103198
0.109711
0.0883001
0.0437822
0.0302789
0.125664
0.180849
0.169098
0.027448
1.91831e-07
3.78196e-06
3.0299e-05
6.24669e-05
7.77797e-05
0.000164927
0.000213793
0.000834882
0.014611
0.0139977
0.000825844
0.00114945
4.62824e-05
3.40958e-05
2.96825e-05
0.0157451
0.0491636
0.0280689
0.00247441
1.82234e-07
1.14396e-06
5.57283e-07
6.29541e-08
4.25538e-11
7.89981e-05
0.000212596
0.000185689
-4.26128e-21
-1.00556e-09
4.17156e-06
-7.63331e-10
3.33474e-05
0.000154766
5.29948e-05
2.50962e-20
7.52194e-08
7.46028e-08
8.32415e-08
1.71613e-07
2.9378e-07
2.14836e-07
6.03071e-08
4.10795e-11
3.47254e-06
5.31588e-05
4.19395e-05
9.26385e-06
6.64946e-08
-7.37223e-09
7.31912e-17
9.69076e-07
4.86287e-20
-2.92707e-23
2.70402e-21
3.85697e-14
1.13684e-09
4.83027e-09
2.11136e-08
5.755e-09
1.82726e-15
8.64574e-19
6.36217e-15
3.04677e-07
5.17094e-06
6.07394e-06
1.4243e-06
4.13738e-08
0.103828
0.0767099
0.0577341
0.0454112
0.0363932
0.0303489
0.027279
0.0265194
0.0286784
0.0325193
0.0334019
0.0223772
0.00501643
2.55801e-05
-2.54236e-07
6.03086e-12
1.1038e-12
-9.75556e-25
-1.92579e-09
0.858679
0.83213
0.807517
0.789337
0.776546
0.769495
0.770538
0.778277
0.783718
0.776453
0.758128
0.726309
0.670884
0.579733
0.541248
0.506262
0.434478
0.356844
0.319514
1
1
1
1
1
0.999999
0.999996
0.999991
0.999979
0.999975
0.999862
0.999665
0.999648
0.999283
0.99546
0.990967
0.983891
0.973332
0.962747
1
1
0.999998
0.999823
0.999523
0.999376
0.999384
0.999779
0.999964
0.999957
0.999925
0.999564
0.999504
0.999437
0.999926
0.999927
0.999792
0.999935
0.999925
1
0.999999
0.999997
0.99966
0.999024
0.999023
0.999204
0.999917
0.999997
0.999956
0.999262
0.999223
0.999241
0.999766
1
1
1
1
1
1
1
0.999999
0.999999
0.999978
0.999892
1
0.999999
0.999999
0.99998
0.999848
0.999669
0.99988
0.999944
0.999999
1
1
1
1
1
1
1
1
1
1
0.999999
0.999998
0.999998
0.999999
0.999997
0.999997
0.999997
0.999998
1
1
1
1
1
1
1
1
1
1
1
1
1
1
1
1
1
1
1
1
1
1
1
1
1
1
1
1
1
1
1
1
1
1
1
1
1
1
1
1
1
1
1
1
1
1
1
1
1
1
1
1
1
1
1
1
1
1
1
1
1
1
1
1
1
1
1
1
1
1
1
1
1
1
1
1
1
1
1
1
1
1
1
1
1
1
1
1
1
1
1
1
1
1
1
1
1
1
1
1
1
1
1
1
1
1
1
1
1
1
1
1
1
1
1
1
1
1
1
1
1
1
1
1
1
1
1
1
1
1
1
1
1
1
1
1
1
1
1
1
1
1
1
1
1
1
1
1
1
1
1
1
1
1
1
1
1
1
1
1
1
1
1
1
1
1
1
1
1
1
1
1
1
1
1
1
1
1
1
1
1
1
1
1
1
1
1
1
1
1
1
1
1
1
1
1
1
1
1
1
1
1
1
1
1
1
1
1
1
1
1
1
1
1
1
1
1
1
1
1
1
1
1
1
1
1
1
1
1
1
1
1
1
1
1
1
1
1
1
1
1
1
1
1
1
1
1
1
1
1
1
1
1
1
1
1
1
1
1
1
1
1
1
1
1
1
1
1
1
1
1
1
1
1
1
1
1
1
1
1
1
1
1
1
1
1
1
1
1
1
1
1
1
1
1
1
1
1
1
1
1
1
1
1
1
1
1
1
1
1
1
1
1
1
1
1
1
1
1
1
1
1
1
1
1
1
1
1
1
1
1
1
1
1
1
1
1
1
1
1
1
1
1
1
1
1
1
1
1
1
1
1
1
1
1
1
1
1
1
1
1
1
1
1
1
1
1
1
1
1
1
1
1
1
1
1
1
1
1
1
1
1
1
1
1
1
1
1
1
1
1
1
1
1
1
1
1
1
1
1
1
1
1
1
1
1
1
1
1
1
1
1
1
1
1
1
1
1
1
1
1
1
1
1
1
1
1
1
1
1
1
1
1
1
1
1
1
1
1
1
1
1
1
1
1
1
1
1
1
1
1
1
1
1
1
1
1
1
1
1
1
1
1
1
1
1
1
1
1
1
1
1
1
1
1
1
1
1
1
1
1
1
1
1
1
1
1
1
1
1
1
1
1
1
1
1
1
1
1
1
1
1
1
1
1
1
1
1
1
1
1
1
1
1
1
1
1
1
1
1
1
1
1
1
1
1
1
1
1
1
1
1
1
1
1
1
1
)
;

boundaryField
{
    leftWall
    {
        type            alphaContactAngle;
        contactAngleProperties 
        {
            mercury         
            {
                theta0          90;
            }
            water           
            {
                theta0          90;
            }
            oil             
            {
                theta0          90;
            }
        }
        value           nonuniform List<scalar> 
50
(
5.73915e-13
2.13063e-12
5.63225e-12
1.98447e-11
1.1559e-10
4.93769e-09
1.6585e-08
3.33577e-08
3.35381e-08
0.00881226
0.112168
0.12185
0.105325
0.000267151
0.000262053
0.131035
0.844358
0.999992
0.999999
0.999998
0.999998
0.999998
0.999998
0.999999
0.999999
0.999999
0.999999
1
1
1
1
1
1
1
1
1
1
1
1
1
1
1
1
1
1
1
1
1
1
1
)
;
    }
    rightWall
    {
        type            alphaContactAngle;
        contactAngleProperties 
        {
            mercury         
            {
                theta0          90;
            }
            water           
            {
                theta0          90;
            }
            oil             
            {
                theta0          90;
            }
        }
        value           nonuniform List<scalar> 
50
(
0.0135434
0.0135143
0.0222518
0.263349
0.303581
0.299796
0.233275
0.162424
0.0480723
0.041323
0.0585005
0.0139977
-1.00556e-09
6.64946e-08
4.13738e-08
-1.92579e-09
0.319514
0.962747
0.999925
1
1
1
1
1
1
1
1
1
1
1
1
1
1
1
1
1
1
1
1
1
1
1
1
1
1
1
1
1
1
1
)
;
    }
    lowerWall
    {
        type            alphaContactAngle;
        contactAngleProperties 
        {
            mercury         
            {
                theta0          90;
            }
            water           
            {
                theta0          90;
            }
            oil             
            {
                theta0          90;
            }
        }
        value           nonuniform List<scalar> 
62
(
5.73915e-13
6.68555e-13
8.20473e-13
7.69786e-13
6.4024e-13
4.54934e-13
2.79989e-13
1.48961e-13
7.10193e-14
3.15949e-14
2.80036e-14
3.00449e-14
3.87644e-14
5.42248e-14
9.2244e-14
1.68663e-13
2.79345e-13
5.36671e-13
1.36039e-12
2.3203e-12
1.53341e-12
2.31725e-12
1.71449e-11
1.71449e-11
5.06521e-10
1.07432e-09
8.61646e-09
3.86813e-09
5.29038e-05
0.000539179
0.000650534
0.0020332
0.000857875
0.000123335
8.33174e-05
0.00042196
0.000390246
0.0138073
0.0145972
0.0111705
0.0170392
0.0523422
0.0451603
0.00042196
0.00169846
0.0208312
0.0341495
0.0479937
0.0585318
0.0581674
0.0521843
0.0453416
0.0454076
0.0626675
0.0690925
0.0698507
0.0625724
0.0497902
0.0138502
0.0137602
0.0137168
0.0135434
)
;
    }
    atmosphere
    {
        type            inletOutlet;
        inletValue      uniform 1;
        value           nonuniform List<scalar> 
46
(
1
1
1
1
1
1
1
1
1
1
1
1
1
1
1
1
1
1
1
1
1
1
1
1
1
1
1
1
1
1
1
1
1
1
1
1
1
1
1
1
1
1
1
1
1
1
)
;
    }
    defaultFaces
    {
        type            empty;
    }
}


// ************************************************************************* //
