/*--------------------------------*- C++ -*----------------------------------*\
  =========                 |
  \\      /  F ield         | OpenFOAM: The Open Source CFD Toolbox
   \\    /   O peration     | Website:  https://openfoam.org
    \\  /    A nd           | Version:  13
     \\/     M anipulation  |
\*---------------------------------------------------------------------------*/
FoamFile
{
    format      ascii;
    class       volScalarField;
    location    "2.65";
    object      epsilon;
}
// * * * * * * * * * * * * * * * * * * * * * * * * * * * * * * * * * * * * * //

dimensions      [0 2 -3 0 0 0 0];

internalField   nonuniform List<scalar> 
2268
(
0.00268185
0.0142305
0.0295076
0.045173
0.0599839
0.0735183
0.0856147
0.0961813
0.105194
0.112616
0.118359
0.122344
0.124494
0.124679
0.122686
0.118455
0.111997
0.103195
0.0917863
0.0771991
0.0584344
0.0353984
0.0102038
0.00476615
0.00933177
0.0154361
0.0217577
0.027878
0.0336247
0.0389089
0.0436552
0.0478117
0.0513105
0.0540817
0.0560744
0.0572612
0.0576293
0.0571822
0.0559147
0.0537968
0.0507793
0.0467007
0.0412132
0.0338852
0.0250708
0.0181433
0.00807733
0.0100016
0.0142006
0.0185855
0.0228778
0.0269646
0.0307736
0.034245
0.037328
0.0399668
0.0421084
0.0437144
0.0447673
0.045269
0.0452399
0.0446902
0.0436083
0.041964
0.0396667
0.0365508
0.03254
0.0283942
0.0309639
0.0118669
0.0116853
0.014931
0.0184481
0.021928
0.025273
0.0284199
0.031315
0.0339103
0.0361593
0.0380197
0.0394605
0.0404681
0.0410476
0.0412204
0.0410051
0.0404106
0.0394377
0.03807
0.0363114
0.0343883
0.0336527
0.0449711
0.0161493
0.0139538
0.0164687
0.0194125
0.0223854
0.0252783
0.0280263
0.0305749
0.0328762
0.03489
0.0365818
0.0379255
0.0389099
0.0395395
0.0398345
0.039822
0.0395329
0.0390049
0.0383002
0.0375867
0.0374474
0.0401314
0.0614334
0.0211801
0.0167239
0.0185336
0.0209912
0.0235734
0.0261361
0.0286034
0.0309125
0.0330095
0.0348599
0.0364346
0.0377115
0.0386802
0.0393434
0.0397203
0.0398478
0.0397806
0.0395936
0.0394243
0.0396097
0.0411842
0.0480222
0.0849428
0.0271555
0.0199823
0.0210132
0.0229924
0.0252236
0.0275142
0.0297664
0.031901
0.0338466
0.035575
0.0370624
0.0382898
0.0392471
0.0399341
0.0403683
0.0405977
0.0407022
0.0407911
0.0410679
0.0420235
0.045206
0.0573963
0.129727
0.0341359
0.0237004
0.0238346
0.0252827
0.0271379
0.0291493
0.0311917
0.0331726
0.0350125
0.0366726
0.038123
0.0393427
0.0403183
0.0410453
0.0415316
0.0418369
0.042074
0.0423843
0.0430172
0.0445656
0.048933
0.0664388
0.238941
0.0100611
0.0353254
0.0557253
0.0737335
0.0905928
0.100003
0.0980214
0.104819
0.108668
0.102928
0.0918123
0.0776995
0.0701597
0.0658962
0.0535584
0.0448769
0.0336767
0.0195661
0.00391222
0.0146111
0.0264297
0.0350645
0.0412482
0.0456554
0.0478907
0.0480859
0.0494831
0.0499049
0.0475028
0.0437119
0.0397068
0.0353225
0.0318765
0.0272676
0.0232245
0.0187546
0.0132379
0.00682517
0.0226825
0.0260873
0.0326949
0.0372695
0.0401451
0.0411731
0.0410461
0.0413056
0.0409748
0.0390014
0.0361019
0.0331549
0.0297981
0.0266926
0.0235629
0.0208277
0.0182702
0.0155609
0.0131679
0.0281927
0.0274456
0.0334177
0.0369913
0.0389754
0.0398028
0.039415
0.0392711
0.038617
0.0368148
0.0341677
0.0315508
0.0286005
0.025676
0.0231871
0.0212966
0.0202308
0.0202474
0.0229498
0.0307518
0.0302341
0.0356838
0.0380645
0.0387457
0.0391089
0.0387631
0.0383852
0.0374105
0.0356509
0.0334219
0.0312675
0.0289627
0.025909
0.0238295
0.0227445
0.0225463
0.0244182
0.0426601
0.0343779
0.0350436
0.0392537
0.0403786
0.039503
0.0388718
0.0382458
0.0375468
0.0364095
0.0347021
0.0327823
0.0310212
0.029952
0.0263055
0.024735
0.0238675
0.0233656
0.0246608
0.0481799
0.0444687
0.0428106
0.0438545
0.0434435
0.0411289
0.0393675
0.0382036
0.0372189
0.0360319
0.0343707
0.0326373
0.0309802
0.0297989
0.0268432
0.0253309
0.024246
0.0234008
0.0238775
0.0461976
0.0736588
0.0542393
0.0486823
0.0461483
0.0430079
0.0403291
0.0386852
0.0374865
0.0361601
0.0344669
0.0328094
0.031216
0.029799
0.0274074
0.0258
0.0245918
0.0236309
0.0236029
0.0418397
0.0449072
0.0299292
0.0286443
0.0291836
0.0303752
0.0318749
0.0335155
0.0351917
0.0368318
0.0383781
0.0397819
0.0410113
0.042046
0.0428741
0.0435039
0.0440021
0.0444898
0.0451242
0.046196
0.0483182
0.0530055
0.0652536
0.106376
0.0615974
0.0390511
0.0357939
0.0351449
0.0354814
0.0363017
0.0373762
0.0385971
0.0398744
0.0411326
0.0423113
0.0433723
0.0442997
0.0451008
0.0458087
0.0464879
0.0472295
0.0481533
0.0494313
0.0514056
0.0547282
0.0608306
0.0729668
0.0787976
0.048509
0.0430279
0.0412691
0.0408585
0.0410988
0.0416982
0.0425172
0.0434724
0.0444741
0.0454518
0.0463604
0.0471832
0.0479327
0.0486453
0.0493783
0.0502044
0.0511873
0.0523901
0.0539516
0.0560954
0.0592056
0.0637153
0.0968579
0.0578477
0.0501307
0.0473069
0.0461845
0.0458822
0.0460659
0.0465328
0.0471904
0.0479534
0.0487494
0.0495293
0.0502717
0.0509845
0.0516985
0.0524649
0.0533313
0.054292
0.0553426
0.0565113
0.0578215
0.0593254
0.0610056
0.114867
0.066213
0.0567423
0.0530448
0.051278
0.050459
0.0502185
0.0503279
0.0506725
0.0511837
0.051788
0.0524313
0.0530822
0.0537371
0.0544151
0.0551462
0.0559339
0.0567288
0.0575013
0.0582318
0.058863
0.0593683
0.0597157
0.130227
0.0734059
0.0626028
0.0582842
0.0559857
0.0546741
0.053972
0.0536749
0.0536754
0.0539037
0.0542846
0.0547549
0.0552725
0.0558203
0.0563994
0.0570102
0.0576236
0.0581838
0.058649
0.0589927
0.0591738
0.0591873
0.0590687
0.144387
0.0792785
0.0677636
0.0629771
0.0602059
0.0584078
0.0572272
0.0565068
0.0561484
0.0560715
0.0562024
0.0564702
0.0568228
0.0572281
0.0576663
0.0581154
0.058539
0.0588909
0.0591329
0.0592473
0.0592239
0.0590828
0.0588833
0.15802
0.0845577
0.0723483
0.0670943
0.0638405
0.0615649
0.0599377
0.0588227
0.0581298
0.057772
0.0576678
0.0577422
0.0579344
0.0581974
0.0584931
0.0587855
0.0590428
0.0592346
0.0593374
0.0593408
0.0592461
0.0590816
0.0589126
0.16847
0.0896857
0.0765344
0.0705723
0.066743
0.0639975
0.0619806
0.0605505
0.0596108
0.0590539
0.0587852
0.0587242
0.0588044
0.0589648
0.0591516
0.0593228
0.0594505
0.0595175
0.0595148
0.0594402
0.0592965
0.0591161
0.058975
0.156195
0.0951742
0.0806673
0.0734016
0.0687883
0.0655339
0.0631969
0.0615872
0.060548
0.0599207
0.0596006
0.0595093
0.0595707
0.059702
0.059833
0.0599165
0.0599309
0.0598688
0.0597352
0.059544
0.059305
0.059063
0.0589237
0.166428
0.101639
0.0842264
0.0751604
0.0695268
0.065689
0.0630828
0.0614149
0.0604059
0.0598187
0.0595396
0.0594943
0.0595988
0.0597525
0.0598697
0.0598976
0.0598268
0.0596669
0.0594383
0.0591724
0.0588919
0.0586162
0.058451
0.189239
0.100569
0.0830408
0.0745564
0.0688534
0.0647366
0.0618547
0.060019
0.0589568
0.0583788
0.0581186
0.0580716
0.0581473
0.0582638
0.0583556
0.0583845
0.0583386
0.0582211
0.0580446
0.0578284
0.057589
0.0573452
0.0571823
0.207962
0.0980992
0.078167
0.0700193
0.0651274
0.061708
0.0592947
0.0577254
0.0568178
0.0563524
0.0561618
0.0561444
0.0562192
0.0563229
0.0564095
0.0564524
0.0564415
0.0563766
0.0562634
0.0561115
0.05593
0.0557375
0.0555944
0.202654
0.0922964
0.0723983
0.0648027
0.0606975
0.0580468
0.0562428
0.0550653
0.0543983
0.0540977
0.054017
0.054059
0.0541646
0.0542876
0.054396
0.0544701
0.0545
0.0544823
0.0544177
0.0543101
0.0541659
0.0540015
0.0538557
0.181942
0.0840616
0.0663571
0.0597197
0.0563436
0.0543251
0.0530565
0.0522821
0.0518854
0.0517671
0.0518096
0.05193
0.0520903
0.052258
0.0524088
0.0525265
0.0526011
0.0526272
0.0526025
0.0525285
0.0524094
0.0522566
0.0520923
0.160366
0.0753445
0.0603255
0.0548343
0.0521695
0.0506949
0.0498655
0.049457
0.0493273
0.0493924
0.0495602
0.0497713
0.0500024
0.0502304
0.0504365
0.0506068
0.0507314
0.0508042
0.050822
0.0507849
0.0506955
0.0505605
0.0503912
0.138898
0.066748
0.054435
0.0501276
0.0481641
0.0471825
0.0467287
0.0466184
0.0467253
0.0469628
0.047257
0.0475691
0.0478823
0.0481816
0.0484522
0.0486825
0.0488638
0.0489904
0.0490591
0.0490693
0.0490223
0.0489211
0.0487699
0.118726
0.0587617
0.0489269
0.0457038
0.0443766
0.0438272
0.0436884
0.0438121
0.0441096
0.0444937
0.0449081
0.0453222
0.0457229
0.0460986
0.0464386
0.0467336
0.0469769
0.0471635
0.0472908
0.0473583
0.0473664
0.0473155
0.0472047
0.101039
0.0517808
0.0440391
0.0417056
0.0408936
0.0406899
0.040799
0.0411032
0.0415371
0.0420357
0.0425501
0.0430552
0.0435374
0.043987
0.0443954
0.0447555
0.0450619
0.045311
0.0455011
0.0456319
0.0457036
0.0457148
0.0456601
0.0867032
0.0460653
0.0399225
0.0382349
0.0377882
0.0378283
0.0381111
0.0385403
0.0390643
0.0396425
0.0402304
0.0408059
0.0413551
0.0418684
0.0423381
0.0427582
0.0431245
0.0434342
0.0436867
0.043882
0.0440204
0.0440989
0.0441084
0.0765947
0.0417727
0.0366165
0.0353165
0.0350866
0.035271
0.0356565
0.0361592
0.0367361
0.0373569
0.0379909
0.0386134
0.0392108
0.0397731
0.0402926
0.0407637
0.0411828
0.0415477
0.0418583
0.0421152
0.0423183
0.0424634
0.0425387
0.069624
0.0385616
0.0339874
0.0328882
0.0327594
0.0330085
0.0334393
0.0339738
0.0345723
0.0352091
0.0358635
0.0365112
0.0371379
0.0377334
0.0382897
0.0388012
0.039264
0.0396766
0.0400387
0.0403512
0.0406137
0.0408209
0.0409588
0.0647236
0.036078
0.0318423
0.0308332
0.0307373
0.0310021
0.0314412
0.0319785
0.0325766
0.0332122
0.0338676
0.0345237
0.0351645
0.0357796
0.0363608
0.0369022
0.0374
0.0378521
0.0382585
0.0386195
0.0389345
0.0391974
0.0393925
0.061134
0.034049
0.0300113
0.0290368
0.0289414
0.029199
0.029629
0.0301561
0.0307433
0.031368
0.0320141
0.0326675
0.0333118
0.0339369
0.0345343
0.0350977
0.0356229
0.0361078
0.0365518
0.0369549
0.0373158
0.0376276
0.0378738
0.0582588
0.0322754
0.0283685
0.0274091
0.027306
0.0275516
0.0279693
0.0284841
0.0290589
0.0296717
0.0303072
0.0309533
0.0315965
0.0322262
0.0328344
0.0334148
0.033963
0.0344762
0.0349534
0.0353937
0.035795
0.0361499
0.0364419
0.0556814
0.0306307
0.0268365
0.0258937
0.0257881
0.0260271
0.0264376
0.0269449
0.0275118
0.0281168
0.0287453
0.0293863
0.0300289
0.0306633
0.031282
0.0318785
0.0324484
0.0329883
0.0334964
0.0339711
0.0344095
0.0348039
0.0351373
0.0531642
0.0290512
0.0253793
0.0244648
0.0243674
0.0246095
0.0250214
0.0255292
0.0260958
0.0267
0.0273281
0.0279701
0.0286172
0.0292607
0.0298935
0.0305095
0.0311037
0.0316723
0.0322126
0.032722
0.0331968
0.0336286
0.0340007
0.0506106
0.027518
0.0239903
0.0231192
0.0230421
0.0232975
0.0237199
0.0242367
0.0248112
0.0254229
0.026059
0.0267105
0.0273703
0.0280309
0.0286855
0.0293279
0.0299529
0.0305558
0.0311328
0.0316801
0.032193
0.0326626
0.0330725
0.0480175
0.0260407
0.0226806
0.0218677
0.0218221
0.0221
0.022541
0.0230743
0.0236646
0.0242922
0.0249456
0.0256169
0.0263004
0.0269892
0.0276768
0.0283566
0.0290225
0.0296687
0.0302899
0.0308811
0.0314363
0.0319459
0.0323943
0.0454333
0.0246436
0.0214712
0.0207296
0.0207249
0.0210326
0.0214986
0.0220547
0.0226676
0.0233196
0.0240004
0.0247037
0.0254245
0.0261564
0.0268921
0.0276242
0.028345
0.0290469
0.0297229
0.0303662
0.0309696
0.0315229
0.0320111
0.0429255
0.0233578
0.020388
0.0197285
0.0197725
0.0201156
0.0206109
0.0211946
0.0218363
0.0225211
0.0232413
0.0239917
0.0247677
0.0255621
0.0263662
0.0271702
0.0279638
0.0287372
0.029481
0.0301865
0.0308449
0.0314459
0.0319754
0.0405608
0.0222159
0.0194602
0.0188924
0.0189914
0.0193734
0.0199003
0.0205143
0.0211905
0.0219183
0.0226929
0.0235108
0.0243662
0.0252495
0.0261487
0.0270498
0.0279389
0.0288027
0.0296292
0.0304076
0.0311281
0.0317803
0.0323511
0.0383938
0.0212513
0.0187229
0.018258
0.0184172
0.0188381
0.0193947
0.0200393
0.0207554
0.0215392
0.0223899
0.0233042
0.0242732
0.0252819
0.0263117
0.0273422
0.028354
0.0293297
0.0302545
0.0311161
0.0319041
0.0326086
0.0332182
0.0364724
0.0205057
0.0182309
0.0178853
0.0181062
0.0185578
0.0191337
0.0198032
0.0205642
0.0214224
0.0223813
0.0234355
0.024568
0.0257531
0.0269606
0.0281606
0.0293264
0.0304363
0.0314736
0.0324256
0.0332827
0.0340365
0.0346784
0.0348722
0.0200639
0.0181019
0.0178964
0.0181639
0.0186134
0.0191764
0.0198524
0.0206611
0.0216213
0.0227388
0.0239996
0.0253696
0.0268024
0.0282492
0.0296663
0.0310191
0.032283
0.0334415
0.0344844
0.0354051
0.0361987
0.0368602
0.0338168
0.0201717
0.018637
0.0185663
0.0187991
0.019146
0.0196134
0.0202498
0.0211044
0.0222092
0.0235659
0.0251383
0.0268564
0.0286364
0.0304003
0.0320868
0.0336553
0.035083
0.0363594
0.0374814
0.0384491
0.0392635
0.0399248
0.034073
0.0216256
0.0206351
0.0205098
0.0204116
0.0203874
0.0205714
0.0210717
0.0219629
0.0232812
0.0250084
0.027059
0.0292921
0.0315567
0.0337305
0.0357346
0.0375311
0.039111
0.0404801
0.0416502
0.0426328
0.0434376
0.0440704
0.0383429
0.0269127
0.0260464
0.0249528
0.023666
0.0226567
0.0221892
0.0223833
0.0232966
0.0249419
0.0272531
0.0300499
0.0330542
0.0359913
0.0386757
0.041022
0.0430215
0.0447032
0.0461065
0.0472676
0.0482145
0.0489669
0.0495369
0.0566759
0.0426154
0.0385907
0.0337033
0.0293328
0.0262242
0.024526
0.0241772
0.0251084
0.0272602
0.0304904
0.0344628
0.0386501
0.042522
0.0458056
0.0484599
0.0505685
0.0522433
0.0535793
0.0546458
0.055489
0.0561379
0.0566092
0.125598
0.0810883
0.062009
0.0477288
0.0375113
0.0309385
0.0273861
0.0262766
0.0272567
0.0301565
0.0347709
0.0405894
0.0467144
0.05192
0.0558266
0.0586285
0.0606445
0.0621314
0.0632571
0.0641222
0.0647853
0.0652795
0.0656223
0.362201
0.150993
0.0927241
0.0641965
0.0464606
0.03579
0.0301641
0.0282576
0.0293517
0.0331943
0.0396462
0.0482636
0.0581651
0.0653297
0.0695973
0.0721185
0.0736904
0.074745
0.075498
0.0760558
0.0764716
0.0767726
0.0769728
1.58037
0.208273
0.109529
0.075477
0.0526149
0.039017
0.0319433
0.0295078
0.0307307
0.035366
0.0435508
0.0557932
0.0761899
0.08503
0.0881235
0.089401
0.0900346
0.0904093
0.0906609
0.0908416
0.0909735
0.0910669
0.0911271
0.348972
0.284502
0.23903
0.208238
0.0913115
0.0941342
0.0922398
0.0881236
0.0673094
0.0684982
0.0684469
0.067541
0.0618502
0.0620487
0.0618559
0.0613727
0.0597184
0.0596154
0.0594181
0.0591527
0.0589047
0.0587831
0.0586539
0.0585194
0.0587454
0.058671
0.0586162
0.0585786
0.0588423
0.0588243
0.0588396
0.0588911
0.0589691
0.0590111
0.0591049
0.0592502
0.0589585
0.0590473
0.0592144
0.0594498
0.0584808
0.0585881
0.0587669
0.0589411
0.0571675
0.0572011
0.0572689
0.0573333
0.0555466
0.0555233
0.0554988
0.0554629
0.0537591
0.0536824
0.0535964
0.0535026
0.0519494
0.0518387
0.0517184
0.0515927
0.0502266
0.0501022
0.0499682
0.0498275
0.0486102
0.0484906
0.0483605
0.0482214
0.0470714
0.0469705
0.0468583
0.046735
0.0455674
0.045494
0.0454087
0.0453105
0.0440631
0.0440212
0.0439668
0.0438982
0.0425419
0.0425317
0.0425088
0.0424705
0.0410082
0.0410277
0.0410341
0.0410243
0.0394837
0.0395297
0.0395624
0.0395781
0.038002
0.0380712
0.0381266
0.0381647
0.0366028
0.0366921
0.0367673
0.0368246
0.0353277
0.0354349
0.0355274
0.0356017
0.0342182
0.0343417
0.03445
0.0345396
0.0333159
0.0334549
0.0335775
0.033681
0.0326631
0.0328168
0.0329531
0.0330693
0.0323052
0.0324732
0.0326222
0.0327499
0.0322941
0.0324758
0.0326363
0.0327737
0.0326928
0.0328864
0.0330561
0.0332004
0.0335791
0.0337814
0.0339567
0.0341035
0.0350514
0.0352575
0.0354323
0.035575
0.0372346
0.0374366
0.0376028
0.037732
0.0402851
0.040473
0.0406196
0.040724
0.044398
0.0445596
0.0446747
0.0447415
0.049812
0.0499359
0.0500087
0.0500274
0.056816
0.0568949
0.0569207
0.0568885
0.0657546
0.06579
0.0657756
0.0657046
0.0770374
0.0770418
0.077009
0.0769316
0.0911416
0.0911365
0.0911179
0.0910819
0.105953
0.069587
0.0550085
0.0487889
0.0451184
0.0421367
0.0400354
0.038486
0.0368347
0.035086
0.0334648
0.0319801
0.0305989
0.0285215
0.0268114
0.0255531
0.0246326
0.0241378
0.0326488
0.0767879
0.0642652
0.055305
0.0496183
0.0461967
0.04419
0.04222
0.0402931
0.0384657
0.036761
0.0351541
0.0336318
0.0320561
0.0303007
0.0288869
0.0279291
0.02715
0.0259325
0.0302653
0.0647943
0.0597039
0.0546393
0.0504749
0.0473436
0.0453164
0.0435557
0.0418204
0.0401915
0.0386555
0.0371113
0.0355251
0.033854
0.0323135
0.0312063
0.0303594
0.0293743
0.0285966
0.0359396
0.0602286
0.0578013
0.0546594
0.0515298
0.0487585
0.0465755
0.0448119
0.0432347
0.0417934
0.0404256
0.0390048
0.0375153
0.0359916
0.0346668
0.0336123
0.0325259
0.0313858
0.0320361
0.0497153
0.0586087
0.0573126
0.0552668
0.0529045
0.0506032
0.0485272
0.0466252
0.0449436
0.0434744
0.0421189
0.0407656
0.0394168
0.0381144
0.0369272
0.0357652
0.0344465
0.0334914
0.0358764
0.0660662
0.058265
0.0575872
0.0563216
0.0546337
0.052789
0.0508885
0.0489364
0.0470726
0.0454082
0.0439257
0.042543
0.041235
0.0399955
0.0387924
0.0375115
0.0361576
0.0356445
0.0396904
0.0778979
0.0585254
0.0582908
0.0576227
0.056512
0.0550672
0.0533421
0.0513855
0.0493817
0.0475238
0.0458721
0.0443834
0.0430127
0.0417043
0.0403845
0.0389984
0.0377056
0.0375683
0.0424022
0.0830354
0.0590256
0.0591764
0.0589923
0.0583557
0.0572459
0.0556607
0.0536958
0.0515988
0.0496191
0.0478459
0.0462441
0.0447737
0.0433454
0.0418356
0.0402448
0.0389196
0.0389118
0.043733
0.0822933
0.0595675
0.0600772
0.0603037
0.0600737
0.0592481
0.0577268
0.0556744
0.0534798
0.0514724
0.0496932
0.0480292
0.0464868
0.0449962
0.0432731
0.0413181
0.0397448
0.039623
0.0442685
0.0801049
0.0599464
0.0607861
0.0613584
0.0615219
0.0609672
0.0593686
0.0570401
0.0546957
0.0528205
0.0512408
0.0495501
0.0480172
0.0467882
0.0449777
0.0422809
0.0403336
0.0402555
0.0460504
0.0967877
0.0592442
0.0597485
0.0602362
0.0606037
0.0603658
0.0589851
0.0567727
0.0546369
0.0529595
0.0513928
0.0496099
0.0479029
0.04641
0.0446667
0.0426361
0.0407918
0.0405489
0.0466404
0.10367
0.0574323
0.0576128
0.0578057
0.0578713
0.057473
0.0564095
0.0548903
0.0533926
0.0520442
0.0507486
0.049304
0.0477605
0.0461983
0.0443737
0.0423927
0.0409176
0.0405283
0.0454516
0.0963555
0.0553991
0.0553443
0.0552974
0.0551218
0.0545688
0.0535848
0.0524115
0.0513587
0.0504095
0.0493896
0.0480314
0.0464891
0.0450864
0.0436582
0.042245
0.0406977
0.0395602
0.0414313
0.0765434
0.0533492
0.0531391
0.0529037
0.0525382
0.0518882
0.0509447
0.049907
0.0490045
0.0482198
0.0473424
0.046132
0.0447061
0.0434875
0.0424106
0.0411605
0.0394991
0.0376035
0.0377318
0.0606643
0.0513852
0.0510697
0.0507025
0.0502203
0.0495354
0.0486404
0.0476567
0.0467327
0.0458865
0.0449776
0.0438653
0.0426389
0.0415575
0.0405839
0.0394469
0.0378657
0.0360091
0.0357003
0.0511322
0.0495888
0.0492107
0.0487753
0.0482436
0.047565
0.0467245
0.0457781
0.0448125
0.0438639
0.0428847
0.0418267
0.0407462
0.0397633
0.0388503
0.0378361
0.0365812
0.0352847
0.0352797
0.0470607
0.0479763
0.0475743
0.0471184
0.0465838
0.0459364
0.0451559
0.0442591
0.0432926
0.0422983
0.0412877
0.0402674
0.0392794
0.0383767
0.0375484
0.0367347
0.035925
0.0353428
0.0360243
0.0470783
0.046506
0.0461119
0.0456678
0.0451561
0.0445515
0.0438323
0.0429971
0.0420712
0.0410928
0.0400978
0.0391177
0.0381904
0.0373499
0.0366101
0.0359862
0.0355531
0.0355745
0.0370769
0.0493468
0.0451134
0.0447495
0.0443357
0.0438584
0.0432979
0.0426349
0.0418625
0.0409946
0.0400631
0.0391073
0.038165
0.0372736
0.036467
0.0357803
0.0352732
0.0350767
0.0355248
0.037852
0.052558
0.0437419
0.0434201
0.0430449
0.0426046
0.0420839
0.0414679
0.0407495
0.0399373
0.0390562
0.038141
0.0372273
0.0363516
0.0355522
0.0348804
0.034424
0.0343583
0.0351057
0.0381976
0.0561056
0.0423573
0.0420821
0.0417473
0.0413425
0.0408559
0.0402771
0.0396011
0.0388342
0.0379955
0.0371138
0.03622
0.0353496
0.0345454
0.0338708
0.0334345
0.0334481
0.0344186
0.0381526
0.059325
0.0409531
0.0407242
0.0404286
0.0400568
0.0395997
0.0390509
0.038408
0.0376769
0.0368727
0.0360188
0.0351426
0.0342784
0.0334731
0.032799
0.0323806
0.0324587
0.0336053
0.0378487
0.0618168
0.0395455
0.0393606
0.0391019
0.038761
0.0383311
0.0378089
0.0371946
0.0364943
0.0357208
0.0348944
0.0340395
0.0331901
0.0323963
0.031737
0.031348
0.0314912
0.0327863
0.0374374
0.063651
0.0381669
0.0380229
0.0377992
0.0374882
0.0370851
0.0365892
0.0360028
0.0353325
0.0345906
0.0337948
0.0329681
0.0321449
0.031377
0.0307479
0.0304012
0.0306132
0.0320379
0.0370146
0.0649763
0.0368581
0.0367525
0.036562
0.0362806
0.0359052
0.035437
0.03488
0.0342417
0.033534
0.0327734
0.0319822
0.0311949
0.0304644
0.029877
0.0295807
0.0298616
0.0313994
0.0366302
0.0659661
0.0356634
0.0355939
0.0354354
0.0351835
0.0348368
0.034398
0.0338725
0.0332685
0.0325979
0.0318763
0.0311259
0.0303808
0.0296947
0.0291546
0.0289116
0.029258
0.0308915
0.036323
0.0667521
0.0346272
0.0345917
0.0344636
0.0342407
0.033923
0.0335146
0.0330218
0.0324535
0.0318216
0.0311412
0.030434
0.0297341
0.0290947
0.0286032
0.0284116
0.0288168
0.03053
0.036123
0.0674658
0.0337925
0.0337887
0.0336892
0.0334937
0.033204
0.0328252
0.0323648
0.031832
0.0312387
0.0305993
0.0299357
0.0292809
0.0286878
0.028243
0.0280991
0.028556
0.0303373
0.0360722
0.0682233
0.0332023
0.0332274
0.0331533
0.0329819
0.032717
0.0323651
0.0319345
0.0314349
0.0308779
0.030278
0.0296564
0.0290457
0.0284975
0.0280975
0.0279981
0.0285023
0.0303465
0.0362166
0.0691743
0.0329019
0.0329517
0.0328979
0.0327449
0.0324988
0.0321677
0.0317613
0.03129
0.0307654
0.030202
0.0296207
0.0290531
0.0285495
0.0281942
0.0281391
0.0286906
0.0306004
0.0366249
0.0704817
0.0329411
0.0330089
0.0329675
0.0328237
0.0325864
0.0322662
0.0318748
0.0314237
0.0309253
0.0303945
0.0298521
0.0293286
0.0288727
0.0285666
0.0285613
0.0291665
0.0311525
0.0373603
0.0722608
0.0333777
0.0334535
0.033412
0.0332631
0.033019
0.0326942
0.0323034
0.0318603
0.0313791
0.0308763
0.0303727
0.0298981
0.0294991
0.0292553
0.0293155
0.0299915
0.032073
0.0384942
0.0745495
0.034282
0.0343508
0.0342906
0.0341147
0.03384
0.0334863
0.0330737
0.0326201
0.0321438
0.0316634
0.0312008
0.0307856
0.0304625
0.0303077
0.0304659
0.0312485
0.0334636
0.0401529
0.0776369
0.0357424
0.0357821
0.035676
0.0354402
0.0350981
0.0346782
0.0342093
0.0337177
0.0332277
0.0327624
0.0323458
0.0320084
0.0317942
0.0317761
0.0320928
0.0330504
0.035471
0.0425183
0.0817951
0.0378713
0.037852
0.0376609
0.0373166
0.0368509
0.0363067
0.0357284
0.0351567
0.034626
0.034165
0.0338022
0.0335711
0.0335181
0.0337157
0.0342964
0.035555
0.0383179
0.0458868
0.087582
0.0408138
0.0406969
0.040368
0.0398442
0.0391684
0.0384087
0.0376391
0.0369245
0.0363129
0.0358406
0.0355415
0.0354566
0.0356421
0.0361793
0.0372013
0.038989
0.0423566
0.0507516
0.0957904
0.0447589
0.0445006
0.0439663
0.0431609
0.0421398
0.0410206
0.039934
0.0389838
0.0382346
0.0377278
0.0375033
0.0376159
0.0381463
0.0392071
0.0409581
0.0436806
0.0481685
0.0580363
0.108162
0.0499536
0.0495146
0.0486986
0.0474681
0.0458834
0.044173
0.0425792
0.0412629
0.0403001
0.0397275
0.039587
0.0399558
0.0409643
0.0428035
0.0457241
0.050074
0.0566824
0.0695117
0.128276
0.0567202
0.0560885
0.0549269
0.0530767
0.0505484
0.0478688
0.0454905
0.0436391
0.0423737
0.0416989
0.0416471
0.0423271
0.0439578
0.0468884
0.0515855
0.0586225
0.0691257
0.0885587
0.165337
0.0654705
0.0647018
0.0632019
0.0604958
0.0562625
0.0520043
0.0484821
0.0459172
0.0442704
0.0434626
0.0434956
0.0445174
0.0468816
0.0511996
0.058343
0.0693177
0.0860304
0.120513
0.245972
0.0767064
0.0759797
0.0743638
0.0706796
0.0628845
0.0561625
0.0511737
0.0478045
0.0457605
0.044815
0.0449172
0.0462553
0.0493452
0.0551565
0.0651296
0.0806427
0.103857
0.167851
0.47436
0.0909811
0.0906345
0.0896353
0.0859655
0.069086
0.0592273
0.0529036
0.048919
0.046598
0.0455588
0.0457008
0.0472404
0.0508259
0.0577597
0.0700556
0.08878
0.109723
0.1937
1.45886
)
;

boundaryField
{
    leftWall
    {
        type            epsilonWallFunction;
        value           nonuniform List<scalar> 
50
(
0.00268185
0.00476615
0.00807733
0.0118669
0.0161493
0.0211801
0.0271555
0.0341359
0.0449072
0.0615974
0.0787976
0.0968579
0.114867
0.130227
0.144387
0.15802
0.16847
0.156195
0.166428
0.189239
0.207962
0.202654
0.181942
0.160366
0.138898
0.118726
0.101039
0.0867032
0.0765947
0.069624
0.0647236
0.061134
0.0582588
0.0556814
0.0531642
0.0506106
0.0480175
0.0454333
0.0429255
0.0405608
0.0383938
0.0364724
0.0348722
0.0338168
0.034073
0.0383429
0.0566759
0.125598
0.362201
1.58037
)
;
    }
    rightWall
    {
        type            epsilonWallFunction;
        value           nonuniform List<scalar> 
50
(
0.00391222
0.00682517
0.0131679
0.0229498
0.0426601
0.0481799
0.0461976
0.0418397
0.0326488
0.0302653
0.0359396
0.0497153
0.0660662
0.0778979
0.0830354
0.0822933
0.0801049
0.0967877
0.10367
0.0963555
0.0765434
0.0606643
0.0511322
0.0470607
0.0470783
0.0493468
0.052558
0.0561056
0.059325
0.0618168
0.063651
0.0649763
0.0659661
0.0667521
0.0674658
0.0682233
0.0691743
0.0704817
0.0722608
0.0745495
0.0776369
0.0817951
0.087582
0.0957904
0.108162
0.128276
0.165337
0.245972
0.47436
1.45886
)
;
    }
    lowerWall
    {
        type            epsilonWallFunction;
        value           nonuniform List<scalar> 
62
(
0.00268185
0.0142305
0.0295076
0.045173
0.0599839
0.0735183
0.0856147
0.0961813
0.105194
0.112616
0.118359
0.122344
0.124494
0.124679
0.122686
0.118455
0.111997
0.103195
0.0917863
0.0771991
0.0584344
0.0353984
0.0102038
0.0102038
0.0181433
0.0309639
0.0449711
0.0614334
0.0849428
0.129727
0.238941
0.348972
0.284502
0.23903
0.208238
0.0100611
0.0146111
0.0226825
0.0281927
0.0307518
0.0343779
0.0444687
0.0736588
0.0100611
0.0353254
0.0557253
0.0737335
0.0905928
0.100003
0.0980214
0.104819
0.108668
0.102928
0.0918123
0.0776995
0.0701597
0.0658962
0.0535584
0.0448769
0.0336767
0.0195661
0.00391222
)
;
    }
    atmosphere
    {
        type            inletOutlet;
        inletValue      uniform 0.1;
        value           nonuniform List<scalar> 
46
(
0.1
0.1
0.1
0.075477
0.0526149
0.039017
0.0319433
0.0295078
0.0307307
0.035366
0.0435508
0.0557932
0.1
0.1
0.1
0.1
0.1
0.1
0.1
0.1
0.1
0.1
0.1
0.1
0.1
0.1
0.1
0.1
0.1
0.1
0.1
0.069086
0.0592273
0.0529036
0.048919
0.046598
0.0455588
0.0457008
0.0472404
0.0508259
0.0577597
0.0700556
0.08878
0.1
0.1
0.1
)
;
    }
    defaultFaces
    {
        type            empty;
    }
}


// ************************************************************************* //
