/*--------------------------------*- C++ -*----------------------------------*\
  =========                 |
  \\      /  F ield         | OpenFOAM: The Open Source CFD Toolbox
   \\    /   O peration     | Website:  https://openfoam.org
    \\  /    A nd           | Version:  13
     \\/     M anipulation  |
\*---------------------------------------------------------------------------*/
FoamFile
{
    format      ascii;
    class       volScalarField;
    location    "2.65";
    object      k;
}
// * * * * * * * * * * * * * * * * * * * * * * * * * * * * * * * * * * * * * //

dimensions      [0 2 -2 0 0 0 0];

internalField   nonuniform List<scalar> 
2268
(
0.000739804
0.00225214
0.00365465
0.00485008
0.00585394
0.0066983
0.00740986
0.00800294
0.00848982
0.00887925
0.0091746
0.00937726
0.0094864
0.00949673
0.0093972
0.00918282
0.00884937
0.00838159
0.00775069
0.00690079
0.00572893
0.00410818
0.00180859
0.00178423
0.00528638
0.00821438
0.010715
0.0128462
0.0146585
0.0161909
0.0174722
0.0185243
0.0193665
0.0200097
0.0204594
0.0207157
0.0207714
0.0206105
0.0202258
0.0196066
0.018718
0.0174931
0.0158132
0.013466
0.00999161
0.00434069
0.00253283
0.00716185
0.0108016
0.013884
0.0165101
0.0187467
0.0206431
0.0222343
0.0235467
0.0246025
0.025415
0.0259915
0.0263341
0.0264382
0.0262932
0.0258933
0.0252254
0.0242492
0.0228789
0.0209577
0.0181697
0.0138797
0.00618789
0.00326995
0.00876371
0.012917
0.016373
0.0193046
0.0218014
0.023922
0.0257058
0.0271818
0.0283744
0.0292991
0.0299648
0.0303757
0.0305294
0.0304202
0.0300453
0.0293942
0.0284272
0.0270552
0.0250902
0.022154
0.0174123
0.00794177
0.00401488
0.0103198
0.0148938
0.0186274
0.0217773
0.0244582
0.0267377
0.0286588
0.0302519
0.0315438
0.0325526
0.033289
0.033759
0.0339625
0.0338971
0.0335651
0.0329614
0.0320525
0.0307519
0.0288628
0.0259649
0.0210042
0.00981293
0.00480513
0.0119178
0.0168432
0.0207901
0.0241066
0.0269273
0.0293292
0.0313568
0.0330403
0.0344097
0.035486
0.0362822
0.0368057
0.0370583
0.0370406
0.036761
0.036223
0.0354034
0.0342236
0.0325013
0.0298111
0.0249338
0.01226
0.00565905
0.0135752
0.0187979
0.0229151
0.0263603
0.0292928
0.0317964
0.033915
0.0356739
0.0371082
0.0382423
0.0390919
0.0396659
0.0399673
0.039999
0.0397765
0.0393145
0.0386021
0.0375794
0.0360943
0.0337757
0.0294359
0.016357
0.00656856
0.0152806
0.0207643
0.0250078
0.0285359
0.0315388
0.0341096
0.0362979
0.0381303
0.0396373
0.0408412
0.0417576
0.0423953
0.0427577
0.0428456
0.0426823
0.0422999
0.0417041
0.0408574
0.0396512
0.0378209
0.0345538
0.0245207
0.00181227
0.00409689
0.00555471
0.00671887
0.00773779
0.00823274
0.00815311
0.00850738
0.00866356
0.0083403
0.00770663
0.0068928
0.00645875
0.00618071
0.00538683
0.00479812
0.0039631
0.00276177
0.000937278
0.00403355
0.00876239
0.011912
0.0144895
0.0163682
0.0173352
0.0177293
0.0181369
0.0181243
0.0174494
0.0164864
0.0152744
0.0143136
0.0132003
0.0118607
0.0105687
0.0088892
0.00644315
0.00242053
0.00537637
0.0114529
0.0155424
0.0187464
0.0209666
0.0221366
0.0227026
0.0230858
0.0229582
0.0220899
0.0209685
0.0197588
0.018369
0.0168504
0.0153242
0.0137809
0.0118746
0.00908792
0.0037636
0.00620996
0.0132739
0.0181597
0.021764
0.0241651
0.0255671
0.0262592
0.0266528
0.0264419
0.0254699
0.0242367
0.0229529
0.0213643
0.019609
0.0180148
0.0164199
0.0145775
0.0119761
0.00547527
0.00655516
0.0146786
0.0203
0.0242185
0.0266164
0.0281117
0.0289633
0.0293558
0.0290214
0.0279785
0.0267645
0.0255118
0.0239745
0.0219607
0.0203622
0.0188597
0.016965
0.0143374
0.00827186
0.00699228
0.01592
0.0222201
0.0265047
0.0288514
0.0302539
0.0311002
0.0313998
0.0309827
0.0299209
0.0287319
0.0275029
0.0263525
0.0239138
0.0224348
0.0207952
0.0184641
0.0151402
0.00893999
0.00820876
0.017373
0.024097
0.0287163
0.0310695
0.0323392
0.033059
0.0332554
0.0328051
0.031744
0.0305525
0.0292387
0.0278664
0.0256751
0.0240961
0.0221404
0.0193866
0.0153039
0.0087108
0.0114357
0.0197672
0.0261746
0.0307781
0.0332361
0.0343901
0.035005
0.0351246
0.0346027
0.0335075
0.0322788
0.0308866
0.0292921
0.0272881
0.0255086
0.0232967
0.020197
0.015397
0.00817973
0.00788012
0.0179942
0.0238681
0.0282508
0.031833
0.0348606
0.0374512
0.0396707
0.0415626
0.0431521
0.044453
0.0454766
0.0462299
0.0467156
0.046939
0.0469296
0.0467241
0.0463368
0.045772
0.0449902
0.0438683
0.0421857
0.0392587
0.00969865
0.0216737
0.0280849
0.0326566
0.0362872
0.0392893
0.0418164
0.0439752
0.0458192
0.0473762
0.0486608
0.0496864
0.0504676
0.0510238
0.0513805
0.051571
0.0516243
0.051556
0.0513443
0.050969
0.0503642
0.0494217
0.0479463
0.0113977
0.0249672
0.0320367
0.0368787
0.0406041
0.0436133
0.0461044
0.0482023
0.0499907
0.0515036
0.0527599
0.0537757
0.0545708
0.0551725
0.0556129
0.0559259
0.0561403
0.056253
0.0562268
0.0560327
0.0556193
0.0549349
0.0539205
0.0130541
0.0281652
0.0357694
0.0408473
0.0446559
0.0476769
0.050157
0.0522132
0.0539472
0.0554127
0.0566388
0.0576472
0.0584605
0.0591073
0.0596199
0.0600329
0.0603678
0.0605915
0.0606606
0.060538
0.060166
0.0595011
0.0585264
0.0146057
0.0313196
0.0392828
0.0445274
0.0483902
0.0514113
0.0538618
0.0558675
0.057532
0.0589363
0.0601197
0.0611092
0.0619268
0.0625978
0.0631509
0.0636122
0.0639817
0.0642142
0.0642703
0.064115
0.0636919
0.0629776
0.0619974
0.0158812
0.0339447
0.0423992
0.0478302
0.051747
0.0547462
0.0571238
0.0590425
0.0606191
0.0619432
0.0630632
0.0640085
0.0648005
0.0654605
0.0660098
0.0664609
0.0667976
0.066982
0.0669805
0.0667702
0.0663246
0.0656531
0.0648187
0.0170821
0.0362264
0.0450451
0.0506517
0.0546214
0.0575866
0.0598801
0.0617
0.0631815
0.0644141
0.0654565
0.06634
0.0670859
0.0677111
0.0682275
0.0686367
0.0689225
0.0690604
0.0690269
0.0688127
0.068418
0.0678716
0.0672405
0.0182147
0.0380512
0.0472223
0.0529944
0.0570021
0.059925
0.0621339
0.0638611
0.065257
0.066412
0.0673856
0.0682135
0.0689166
0.0695065
0.069987
0.0703518
0.0705929
0.0706996
0.0706627
0.0704816
0.0701664
0.0697498
0.0692949
0.0189767
0.0393626
0.0489562
0.0548903
0.0589054
0.0617666
0.0638914
0.0655404
0.0668762
0.0679887
0.0689298
0.0697347
0.070424
0.0710028
0.0714653
0.0718043
0.0720162
0.0721014
0.0720633
0.0719084
0.0716485
0.0713168
0.0709775
0.0179653
0.0395628
0.0502295
0.056369
0.0603468
0.0631055
0.0651381
0.0667368
0.0680588
0.0691752
0.0701359
0.0709738
0.0717028
0.0723131
0.0727888
0.0731195
0.0733064
0.0733576
0.0732875
0.0731146
0.0728548
0.0725475
0.0722718
0.01857
0.0392813
0.0509429
0.0573522
0.0611909
0.063747
0.0656389
0.0671864
0.0685134
0.0696554
0.0706581
0.071554
0.0723464
0.0730109
0.0735194
0.0738565
0.0740308
0.0740617
0.073974
0.0737988
0.0735599
0.0732779
0.0730285
0.0201814
0.0412953
0.051814
0.057858
0.0614714
0.0637765
0.0654264
0.066802
0.0680436
0.0691609
0.0701658
0.0710675
0.07186
0.0725267
0.0730504
0.073424
0.0736536
0.0737533
0.0737423
0.0736423
0.0734717
0.0732487
0.0730347
0.0215581
0.0418021
0.0510331
0.0565615
0.0601185
0.0625129
0.0642579
0.0656903
0.0669675
0.0681233
0.0691611
0.0700861
0.0708933
0.0715748
0.0721238
0.0725398
0.0728294
0.073003
0.0730737
0.0730553
0.0729596
0.0728033
0.0726304
0.021306
0.0408898
0.0493606
0.0545332
0.0580674
0.0606125
0.062551
0.0641337
0.0655176
0.0667611
0.0678688
0.0688431
0.0696899
0.0704096
0.071003
0.071473
0.0718254
0.0720673
0.0722069
0.0722527
0.0722134
0.0721033
0.0719512
0.0199623
0.0389919
0.0471304
0.05215
0.0557021
0.0583839
0.0605182
0.0622896
0.0638235
0.0651855
0.0663864
0.0674328
0.0683419
0.0691211
0.0697752
0.0703086
0.0707259
0.0710318
0.0712314
0.0713306
0.0713357
0.0712567
0.0711104
0.0184342
0.0365554
0.0445263
0.0495261
0.0531475
0.0559669
0.0582759
0.0602399
0.0619421
0.0634393
0.0647478
0.0658842
0.066873
0.067727
0.0684533
0.0690572
0.0695426
0.0699134
0.0701732
0.0703262
0.070377
0.0703318
0.0701992
0.0168123
0.0338687
0.041697
0.0467384
0.0504705
0.0534363
0.0559079
0.0580403
0.0599041
0.0615396
0.0629651
0.0642058
0.0652877
0.0662275
0.0670346
0.0677152
0.0682739
0.0687144
0.0690398
0.0692537
0.0693591
0.0693593
0.0692575
0.0151886
0.0311616
0.0388284
0.043916
0.0477638
0.0508696
0.0534859
0.0557571
0.0577595
0.0595211
0.0610642
0.0624137
0.0635955
0.0646272
0.0655201
0.0662819
0.0669182
0.0674333
0.0678305
0.0681132
0.0682837
0.0683428
0.0682898
0.0136683
0.0286203
0.036099
0.0412024
0.0451369
0.0483544
0.0510866
0.0534682
0.0555761
0.0574429
0.05909
0.0605415
0.0618196
0.062942
0.0639206
0.0647644
0.0654799
0.0660722
0.0665453
0.0669026
0.067146
0.0672747
0.0672847
0.0123518
0.0263801
0.0336434
0.0387154
0.0426885
0.0459733
0.048782
0.0512393
0.0534197
0.0553652
0.057095
0.0586314
0.059994
0.0611986
0.0622573
0.0631793
0.0639717
0.0646404
0.06519
0.065624
0.0659442
0.0661486
0.06623
0.0113612
0.0245056
0.0315322
0.0365258
0.0404846
0.0437865
0.0466275
0.0491236
0.051346
0.0533388
0.0551264
0.0567263
0.0581561
0.0594297
0.0605582
0.0615507
0.0624145
0.0631555
0.0637788
0.0642882
0.0646851
0.0649663
0.0651222
0.0106468
0.0230405
0.0298001
0.0346595
0.0385498
0.0418209
0.0446533
0.0471541
0.0493892
0.0514024
0.0532223
0.0548638
0.056342
0.0576692
0.0588553
0.0599084
0.0608355
0.0616426
0.0623345
0.062915
0.0633851
0.0637407
0.0639701
0.0101273
0.0219207
0.0284025
0.033096
0.0368799
0.0400825
0.0428709
0.0453445
0.0475666
0.0495791
0.0514097
0.0530738
0.0545834
0.0559496
0.057181
0.0582845
0.0592664
0.0601321
0.0608863
0.0615321
0.0620701
0.0624951
0.0627943
0.00973878
0.0210507
0.0272592
0.0317724
0.0354299
0.0385425
0.0412668
0.0436953
0.0458874
0.0478824
0.0497067
0.0513781
0.0529059
0.0542997
0.0555663
0.0567113
0.0577402
0.0586576
0.0594675
0.0601725
0.0607723
0.061261
0.0616248
0.00942515
0.0203329
0.0262845
0.0306187
0.0341454
0.0371611
0.0398136
0.0421895
0.0443442
0.0463147
0.0481261
0.0497956
0.0513329
0.0527455
0.0540394
0.0552193
0.0562893
0.0572529
0.0581134
0.058872
0.0595279
0.0600744
0.0604975
0.00914335
0.0196897
0.025407
0.0295748
0.032978
0.035901
0.038484
0.0408085
0.0429264
0.0448724
0.0466702
0.0483362
0.0498803
0.0513091
0.0526273
0.0538388
0.0549464
0.0559526
0.0568592
0.057667
0.0583741
0.0589734
0.0594506
0.00886687
0.0190715
0.0245792
0.0285993
0.0318932
0.0347347
0.0372573
0.039538
0.0416255
0.0435526
0.0453416
0.0470079
0.0485615
0.0500083
0.0513523
0.052596
0.0537411
0.0547891
0.0557404
0.0565948
0.0573496
0.0579974
0.0585236
0.00858343
0.0184549
0.0237771
0.0276705
0.0308727
0.0336476
0.0361227
0.0383709
0.0404383
0.0423559
0.0441448
0.0458195
0.0473898
0.048861
0.050236
0.0515162
0.0527022
0.0537939
0.0547908
0.0556913
0.0564919
0.057185
0.0577564
0.00829118
0.0178357
0.0229956
0.0267832
0.0299123
0.0326367
0.0350787
0.0373076
0.0393675
0.0412877
0.0430882
0.0447829
0.0463809
0.0478866
0.0493017
0.0506263
0.0518595
0.0529996
0.0540449
0.0549926
0.0558385
0.0565746
0.0571879
0.00799433
0.0172218
0.0222416
0.0259441
0.0290181
0.0317084
0.0341321
0.0363559
0.038422
0.0403587
0.0421854
0.0439148
0.0455551
0.0471092
0.0485771
0.0499571
0.0512465
0.0524419
0.0535401
0.0545373
0.0554286
0.0562063
0.0568581
0.00770017
0.0166272
0.0215293
0.0251669
0.028204
0.0308761
0.0332962
0.0355291
0.0376162
0.0395855
0.0414555
0.043238
0.0449391
0.0465595
0.0480967
0.0495464
0.0509034
0.0521626
0.0533193
0.0543688
0.0553058
0.0561229
0.0568093
0.00741655
0.0160682
0.0208771
0.0244713
0.0274895
0.030159
0.0325897
0.0348463
0.0369706
0.0389909
0.0409254
0.0427839
0.0445695
0.046279
0.047906
0.0494425
0.0508807
0.0522132
0.053434
0.0545379
0.0555197
0.056373
0.0570886
0.00715088
0.0155625
0.0203084
0.0238841
0.0269025
0.029584
0.0320383
0.0343326
0.0365116
0.0386052
0.0406309
0.0425954
0.0444961
0.0463237
0.0480658
0.0497095
0.0512434
0.0526585
0.0539478
0.0551063
0.0561298
0.0570133
0.0577502
0.00691048
0.0151342
0.0198609
0.0234495
0.0264872
0.0291915
0.0316779
0.0340216
0.0362742
0.0384687
0.0406209
0.0427314
0.044788
0.0467709
0.0486589
0.0504325
0.0520767
0.0535813
0.0549399
0.0561492
0.0572071
0.0581114
0.0588582
0.00670745
0.0148341
0.0196138
0.0232551
0.0263236
0.0290471
0.0315609
0.0339584
0.0363036
0.0386341
0.0409613
0.0432734
0.0455411
0.0477277
0.0497982
0.0517254
0.0534914
0.0550871
0.0565093
0.0577587
0.0588376
0.0597476
0.0604884
0.00657505
0.0147987
0.0197581
0.0234879
0.0265628
0.0292601
0.0317636
0.0342012
0.0366557
0.0391681
0.0417389
0.0443325
0.0468885
0.0493413
0.0516366
0.0537385
0.0556298
0.0573073
0.0587759
0.0600445
0.061122
0.0620157
0.0627297
0.00662066
0.0154128
0.020754
0.0245381
0.0274781
0.0300003
0.0323867
0.0348161
0.0373905
0.0401473
0.0430624
0.0460558
0.0490109
0.0518123
0.0543775
0.0566653
0.0586683
0.0603992
0.0618796
0.0631316
0.0641744
0.0650222
0.0656838
0.00719241
0.0176662
0.0236016
0.0271283
0.0295004
0.0314908
0.0335344
0.0358544
0.0385513
0.04164
0.0450501
0.0486242
0.0521445
0.0554042
0.0582812
0.0607424
0.0628123
0.0645389
0.0659721
0.067154
0.0681165
0.0688816
0.0694623
0.00935926
0.0236012
0.0300171
0.0322761
0.0331197
0.0339175
0.0352471
0.0373019
0.0401205
0.0436618
0.047787
0.0522227
0.0565784
0.0604513
0.0636637
0.0662373
0.0682785
0.0699021
0.0712009
0.0722415
0.0730686
0.0737104
0.0741824
0.0157689
0.0362114
0.0419468
0.0407079
0.0384812
0.0372029
0.037381
0.0390048
0.0419495
0.046086
0.0512139
0.0569447
0.0626533
0.0673802
0.0708905
0.0734197
0.0752608
0.0766358
0.0776883
0.0785057
0.0791396
0.0796198
0.0799616
0.0317746
0.0585971
0.0608343
0.0519132
0.0447831
0.0407233
0.0394951
0.0406131
0.0436904
0.048512
0.054901
0.0625526
0.0709285
0.0768537
0.0803841
0.0825145
0.0838822
0.0848244
0.085511
0.0860283
0.086421
0.0867124
0.086914
0.0855305
0.0910799
0.0862201
0.0630368
0.0498787
0.0432341
0.0408854
0.0416282
0.0448077
0.0501711
0.0577135
0.0678632
0.083697
0.0902609
0.0925909
0.0935991
0.0941309
0.0944621
0.0946921
0.0948615
0.0949883
0.0950812
0.0951444
0.0311461
0.0272362
0.0242891
0.022084
0.0460129
0.0444094
0.0427311
0.0410319
0.0527457
0.0517299
0.0505516
0.0493027
0.0574937
0.0566924
0.0558012
0.0548771
0.0611093
0.0604951
0.0598677
0.0592498
0.0641519
0.063721
0.063302
0.0629017
0.0667758
0.0664887
0.0662205
0.065973
0.0689851
0.0688027
0.068643
0.0685092
0.0707766
0.0706736
0.0706017
0.0705607
0.0721362
0.0720866
0.0720824
0.0721161
0.0729149
0.0728912
0.0729059
0.0729077
0.0729109
0.0728486
0.0727974
0.0727313
0.0725005
0.0724081
0.0723005
0.0721704
0.0718008
0.0716784
0.0715336
0.0713672
0.0709387
0.0707986
0.070635
0.0704504
0.0700229
0.0698795
0.069712
0.0695221
0.0690966
0.068964
0.0688066
0.0686247
0.0681618
0.0680517
0.067916
0.0677541
0.067202
0.0671223
0.0670166
0.0668834
0.0661998
0.0661548
0.0660835
0.0659837
0.0651468
0.0651376
0.065102
0.0650371
0.0640485
0.064074
0.0640729
0.064042
0.0629233
0.0629811
0.0630123
0.0630131
0.0618003
0.0618874
0.0619477
0.0619771
0.060715
0.0608283
0.0609145
0.0609696
0.0597062
0.059843
0.0599521
0.0600299
0.0588136
0.0589713
0.0591009
0.0591987
0.0580773
0.0582537
0.0584011
0.0585164
0.0575367
0.0577296
0.0578926
0.0580227
0.0572316
0.0574388
0.0576147
0.0577571
0.0572038
0.0574226
0.0576087
0.0577601
0.0574991
0.0577262
0.0579187
0.0580751
0.0581701
0.0584008
0.0585949
0.058751
0.0592784
0.0595069
0.059696
0.0598452
0.0608972
0.0611156
0.0612922
0.0614261
0.0631128
0.0633121
0.0634668
0.0635763
0.066025
0.0661955
0.0663192
0.066395
0.0697463
0.0698794
0.0699648
0.0700001
0.0743978
0.074489
0.0745335
0.0745279
0.0801046
0.0801556
0.0801653
0.0801287
0.08699
0.0870098
0.087
0.0869555
0.0951654
0.095168
0.0951601
0.0951389
0.0227253
0.0263113
0.0303619
0.033883
0.0363169
0.0375079
0.038023
0.0379963
0.0373236
0.0361887
0.034885
0.0334287
0.0317807
0.0297475
0.0276183
0.0250505
0.021467
0.015515
0.00694552
0.0380859
0.0371004
0.0377685
0.0390392
0.0404615
0.0416787
0.0420661
0.0417521
0.0409345
0.0397784
0.0383921
0.036808
0.0349505
0.032849
0.0305306
0.027679
0.0233602
0.015849
0.00656546
0.0470899
0.0452788
0.0446881
0.0447209
0.0450373
0.0454866
0.0455892
0.045166
0.0443383
0.043195
0.0417544
0.0400329
0.0380138
0.0358005
0.0333649
0.0301938
0.0252875
0.0174687
0.00730065
0.0533446
0.0517745
0.0507787
0.0501474
0.0496845
0.0493354
0.0489633
0.0483473
0.0474653
0.0463108
0.0448471
0.0430823
0.0410226
0.0387486
0.0361206
0.0326086
0.0275456
0.0202279
0.00906255
0.0582488
0.0570623
0.0560252
0.0550991
0.0542422
0.0534141
0.0525298
0.051554
0.0504589
0.0491743
0.0476393
0.0458523
0.0438062
0.0414629
0.0386048
0.0348284
0.0297932
0.0229594
0.010907
0.0622598
0.0614195
0.0605398
0.0595863
0.0585675
0.0574513
0.0561921
0.0548311
0.053408
0.0518893
0.0502092
0.0483294
0.0461979
0.043706
0.0406281
0.0366747
0.0316512
0.0249319
0.0121694
0.0655866
0.0650553
0.0643968
0.0635455
0.0624852
0.0611919
0.059661
0.0579771
0.0562361
0.0544507
0.0525672
0.0505216
0.0482199
0.0455212
0.0422353
0.0381493
0.0330797
0.0262211
0.0127053
0.0683227
0.0680733
0.0676441
0.0669316
0.0658828
0.0644665
0.0627202
0.0607809
0.0587863
0.0567678
0.0546722
0.0524318
0.0499246
0.0469739
0.0434225
0.0391607
0.0339621
0.0268332
0.0126313
0.0705352
0.0705252
0.0703056
0.0697466
0.0687401
0.0672061
0.0652382
0.0630733
0.0609045
0.0587333
0.0564576
0.0540394
0.0513645
0.0481507
0.0442476
0.0397154
0.034338
0.0270385
0.0124234
0.072226
0.072418
0.0723691
0.0719772
0.071038
0.0693382
0.0670655
0.064665
0.0624361
0.0602472
0.0578173
0.0552803
0.0526487
0.0492638
0.0448119
0.039988
0.0345811
0.0275705
0.0141213
0.072901
0.0728681
0.0727327
0.0724189
0.0716094
0.0699508
0.0676318
0.0652264
0.0629795
0.060655
0.0580336
0.055274
0.0523896
0.0489861
0.0449021
0.0401283
0.034669
0.0277733
0.0147528
0.0725947
0.0723449
0.072003
0.0714672
0.0705042
0.0689656
0.0669813
0.0648598
0.0626956
0.0604161
0.0578802
0.0550915
0.0520412
0.0484922
0.0443777
0.0398218
0.0344068
0.027331
0.0141961
0.0719273
0.0715173
0.0710049
0.0702849
0.0691742
0.0676212
0.0657797
0.0638584
0.0618525
0.0596373
0.0570258
0.0540867
0.0509751
0.0475107
0.0435861
0.0388821
0.0330831
0.0252418
0.0122695
0.0710663
0.0705495
0.0699004
0.0690316
0.0678202
0.0662456
0.064438
0.0625537
0.0605783
0.0583621
0.0557223
0.0527029
0.0495301
0.0460881
0.0420643
0.0371081
0.0308222
0.0225852
0.0104774
0.0701172
0.0695291
0.0687848
0.0678235
0.0665674
0.0649979
0.0631924
0.0612506
0.0591757
0.0568586
0.0541751
0.0511484
0.0479053
0.0443491
0.0401898
0.0350525
0.0285859
0.0203489
0.00930099
0.0691741
0.0685481
0.0677585
0.0667612
0.0655042
0.0639635
0.0621696
0.0601761
0.0579951
0.0555751
0.0528516
0.0498239
0.0465246
0.0428626
0.0386089
0.0334735
0.0271641
0.0192497
0.0087391
0.0682821
0.0676502
0.0668565
0.0658669
0.0646413
0.0631515
0.061398
0.059403
0.0571808
0.054718
0.0519881
0.0489796
0.0456772
0.0419973
0.0377778
0.0328027
0.0267969
0.0192225
0.00869274
0.0674362
0.0668267
0.0660595
0.0651062
0.0639332
0.0625108
0.060825
0.0588807
0.0566887
0.0542524
0.0515641
0.0486107
0.045362
0.0417479
0.0376494
0.0328906
0.0271807
0.0198488
0.00894869
0.0666049
0.066039
0.0653181
0.0644174
0.0633079
0.0619615
0.0603595
0.0584978
0.0563825
0.0540202
0.0514098
0.0485392
0.045378
0.0418682
0.0379141
0.0333552
0.0278798
0.020711
0.00933075
0.0657536
0.0652439
0.06458
0.0637391
0.0626964
0.0614271
0.0599124
0.0581444
0.0561246
0.053857
0.0513408
0.0485644
0.045501
0.0421013
0.0382817
0.0338888
0.0285995
0.0215685
0.00975539
0.0648589
0.0644114
0.0638081
0.0630285
0.062051
0.0608548
0.0594232
0.0577469
0.0558236
0.0536536
0.0512335
0.0485519
0.0455848
0.0422888
0.0385875
0.0343329
0.0291995
0.0222984
0.0101423
0.0639155
0.0635309
0.0629879
0.0622678
0.0613518
0.0602231
0.0588674
0.0572753
0.055442
0.0533645
0.0510365
0.0484462
0.0455712
0.0423719
0.0387766
0.0346412
0.0296384
0.0228371
0.0104399
0.0629356
0.0626118
0.0621265
0.0614628
0.0606043
0.0595376
0.0582507
0.0567349
0.054984
0.0529922
0.0507513
0.0482483
0.0454618
0.0423545
0.0388572
0.0348279
0.0299363
0.0232153
0.0106585
0.0619452
0.0616786
0.0612477
0.0606369
0.0598324
0.0588231
0.0575996
0.0561537
0.0544784
0.0525665
0.0504079
0.0479888
0.0452878
0.0422685
0.0388627
0.0349292
0.0301334
0.0234836
0.0108169
0.060979
0.0607658
0.0603856
0.0598246
0.0590709
0.0581158
0.0569514
0.0555704
0.0539657
0.0521286
0.050048
0.047709
0.0450897
0.0421536
0.0388323
0.0349843
0.030271
0.0236868
0.0109358
0.0600767
0.0599131
0.0595799
0.0590654
0.0583596
0.0574556
0.056347
0.055027
0.0534884
0.0517215
0.0497143
0.0474508
0.0449081
0.0420485
0.0388029
0.0350286
0.0303842
0.0238541
0.0110305
0.0592793
0.059161
0.0588709
0.0583995
0.0577386
0.0568827
0.0558264
0.0545635
0.0530867
0.0513853
0.0494463
0.0472525
0.0447795
0.0419881
0.0388077
0.0350938
0.0305033
0.0240135
0.0111158
0.0586268
0.0585493
0.0582981
0.0578659
0.0572461
0.0564344
0.0554263
0.0542164
0.0527964
0.0511553
0.0492787
0.047148
0.044737
0.0420043
0.0388772
0.0352096
0.0306564
0.0241885
0.0112048
0.0581585
0.0581167
0.0578991
0.0575005
0.0569165
0.0561441
0.0551794
0.054017
0.0526485
0.0510619
0.0492416
0.0471672
0.0448102
0.0421265
0.039041
0.0354051
0.0308723
0.024408
0.0113162
0.0579138
0.0579011
0.0577103
0.0573382
0.0567827
0.0560421
0.0551136
0.0539922
0.0526688
0.0511309
0.0493613
0.0473375
0.0450278
0.0423849
0.0393298
0.0357108
0.0311785
0.0246903
0.0114646
0.0579321
0.0579403
0.0577672
0.057412
0.0568748
0.0561559
0.0552542
0.054165
0.0528794
0.0513841
0.0496606
0.0476833
0.0454168
0.0428091
0.0397758
0.0361598
0.0316064
0.0250603
0.0116587
0.0582553
0.0582736
0.0581059
0.0577541
0.0572212
0.0565101
0.0556221
0.0545537
0.053297
0.0518384
0.0501576
0.0482259
0.046003
0.0434301
0.040415
0.0367918
0.0321962
0.0255545
0.0119035
0.0589302
0.0589442
0.0587655
0.0583985
0.0578498
0.0571266
0.0562337
0.0551709
0.0539321
0.0525041
0.050865
0.0489826
0.0468103
0.0442805
0.0412888
0.037655
0.0329985
0.0262185
0.0122277
0.0600116
0.0600023
0.0597903
0.0593822
0.0587893
0.058025
0.057101
0.0560223
0.054787
0.053383
0.0517875
0.0499643
0.0478599
0.0453947
0.0424467
0.0388119
0.0340816
0.0271135
0.012656
0.0615653
0.0615089
0.0612342
0.0607491
0.060071
0.0592235
0.0582295
0.0571046
0.055853
0.0544653
0.0529185
0.0511731
0.0491685
0.0468106
0.0439524
0.0403509
0.035547
0.0283322
0.0132392
0.0636717
0.0635404
0.0631659
0.0625547
0.0617314
0.0607377
0.0596172
0.0584024
0.0571071
0.0557259
0.0542363
0.052598
0.0507455
0.0485709
0.0458937
0.042408
0.0375613
0.0300299
0.0140456
0.0664305
0.0661952
0.0656772
0.0648731
0.0638154
0.0625802
0.0612498
0.0598836
0.0585074
0.0571193
0.0556989
0.0542095
0.0525892
0.0507247
0.048399
0.0452076
0.0404197
0.0324959
0.0152217
0.0699645
0.0696029
0.0688961
0.0678098
0.0663787
0.0647553
0.0630941
0.061493
0.0599878
0.058576
0.057239
0.0559522
0.0546773
0.053323
0.0516539
0.0491236
0.0446532
0.0362886
0.0170488
0.0744222
0.0739341
0.0730069
0.0715223
0.0694827
0.0672412
0.0650815
0.0631421
0.0614538
0.0599992
0.0587589
0.057734
0.0569462
0.0563918
0.05589
0.0547303
0.0511525
0.0424697
0.0201874
0.0799762
0.0794086
0.078282
0.0762677
0.0731569
0.0699399
0.0670757
0.0646959
0.0627787
0.0612652
0.0601281
0.059411
0.0592499
0.0598468
0.0612564
0.062683
0.0610963
0.0528433
0.0262787
0.0868088
0.08629
0.0851312
0.0825518
0.0772588
0.0725618
0.0688232
0.0659604
0.0638085
0.0622327
0.0611895
0.0607759
0.0612936
0.063297
0.0673959
0.0730399
0.0751528
0.0697363
0.0405506
0.0950738
0.094832
0.0941432
0.091716
0.0809808
0.0744322
0.0699179
0.066695
0.0643821
0.0627635
0.061779
0.0615689
0.0625854
0.0657713
0.0725619
0.083306
0.0917732
0.0931475
0.0868938
)
;

boundaryField
{
    leftWall
    {
        type            kqRWallFunction;
        value           nonuniform List<scalar> 
50
(
0.000739804
0.00178423
0.00253283
0.00326995
0.00401488
0.00480513
0.00565905
0.00656856
0.00788012
0.00969865
0.0113977
0.0130541
0.0146057
0.0158812
0.0170821
0.0182147
0.0189767
0.0179653
0.01857
0.0201814
0.0215581
0.021306
0.0199623
0.0184342
0.0168123
0.0151886
0.0136683
0.0123518
0.0113612
0.0106468
0.0101273
0.00973878
0.00942515
0.00914335
0.00886687
0.00858343
0.00829118
0.00799433
0.00770017
0.00741655
0.00715088
0.00691048
0.00670745
0.00657505
0.00662066
0.00719241
0.00935926
0.0157689
0.0317746
0.0855305
)
;
    }
    rightWall
    {
        type            kqRWallFunction;
        value           nonuniform List<scalar> 
50
(
0.000937278
0.00242053
0.0037636
0.00547527
0.00827186
0.00893999
0.0087108
0.00817973
0.00694552
0.00656546
0.00730065
0.00906255
0.010907
0.0121694
0.0127053
0.0126313
0.0124234
0.0141213
0.0147528
0.0141961
0.0122695
0.0104774
0.00930099
0.0087391
0.00869274
0.00894869
0.00933075
0.00975539
0.0101423
0.0104399
0.0106585
0.0108169
0.0109358
0.0110305
0.0111158
0.0112048
0.0113162
0.0114646
0.0116587
0.0119035
0.0122277
0.012656
0.0132392
0.0140456
0.0152217
0.0170488
0.0201874
0.0262787
0.0405506
0.0868938
)
;
    }
    lowerWall
    {
        type            kqRWallFunction;
        value           nonuniform List<scalar> 
62
(
0.000739804
0.00225214
0.00365465
0.00485008
0.00585394
0.0066983
0.00740986
0.00800294
0.00848982
0.00887925
0.0091746
0.00937726
0.0094864
0.00949673
0.0093972
0.00918282
0.00884937
0.00838159
0.00775069
0.00690079
0.00572893
0.00410818
0.00180859
0.00180859
0.00434069
0.00618789
0.00794177
0.00981293
0.01226
0.016357
0.0245207
0.0311461
0.0272362
0.0242891
0.022084
0.00181227
0.00403355
0.00537637
0.00620996
0.00655516
0.00699228
0.00820876
0.0114357
0.00181227
0.00409689
0.00555471
0.00671887
0.00773779
0.00823274
0.00815311
0.00850738
0.00866356
0.0083403
0.00770663
0.0068928
0.00645875
0.00618071
0.00538683
0.00479812
0.0039631
0.00276177
0.000937278
)
;
    }
    atmosphere
    {
        type            inletOutlet;
        inletValue      uniform 0.1;
        value           nonuniform List<scalar> 
46
(
0.1
0.1
0.1
0.0630368
0.0498787
0.0432341
0.0408854
0.0416282
0.0448077
0.0501711
0.0577135
0.0678632
0.1
0.1
0.1
0.1
0.1
0.1
0.1
0.1
0.1
0.1
0.1
0.1
0.1
0.1
0.1
0.1
0.1
0.1
0.1
0.0809808
0.0744322
0.0699179
0.066695
0.0643821
0.0627635
0.061779
0.0615689
0.0625854
0.0657713
0.0725619
0.083306
0.1
0.1
0.1
)
;
    }
    defaultFaces
    {
        type            empty;
    }
}


// ************************************************************************* //
