/*--------------------------------*- C++ -*----------------------------------*\
  =========                 |
  \\      /  F ield         | OpenFOAM: The Open Source CFD Toolbox
   \\    /   O peration     | Website:  https://openfoam.org
    \\  /    A nd           | Version:  13
     \\/     M anipulation  |
\*---------------------------------------------------------------------------*/
FoamFile
{
    format      ascii;
    class       volScalarField;
    location    "2.65";
    object      nut;
}
// * * * * * * * * * * * * * * * * * * * * * * * * * * * * * * * * * * * * * //

dimensions      [0 2 -1 0 0 0 0];

internalField   nonuniform List<scalar> 
2268
(
1.83671e-05
3.20784e-05
4.07379e-05
4.68664e-05
5.14167e-05
5.49259e-05
5.77183e-05
5.99309e-05
6.16667e-05
6.3008e-05
6.40052e-05
6.4686e-05
6.50573e-05
6.51025e-05
6.47808e-05
6.40681e-05
6.29305e-05
6.12682e-05
5.89041e-05
5.55172e-05
5.05499e-05
4.291e-05
2.88508e-05
6.01143e-05
0.000269523
0.000393418
0.000474911
0.000532757
0.000575123
0.000606369
0.000629364
0.000645936
0.000657869
0.000666306
0.000671833
0.000674499
0.000673799
0.00066859
0.00065846
0.000643121
0.000620974
0.000589726
0.000546066
0.000481627
0.000358382
9.34638e-05
7.14801e-05
0.000461557
0.000739455
0.000933462
0.00107233
0.001173
0.00124628
0.00129925
0.0013368
0.00136302
0.00138055
0.00139084
0.00139418
0.00138966
0.00137533
0.00135022
0.00131325
0.00126113
0.00118765
0.00108151
0.000913104
0.000610626
0.000111294
8.10937e-05
0.000591532
0.00100573
0.00130782
0.00152955
0.0016926
0.00181224
0.00189912
0.00196096
0.0020039
0.00203209
0.00204788
0.00205202
0.00204358
0.00202047
0.00198134
0.00192429
0.00184416
0.00173045
0.0015603
0.00128451
0.000810838
0.000126225
8.98325e-05
0.000686904
0.00121225
0.00160866
0.00190671
0.00212983
0.00229576
0.00241765
0.00250534
0.00256667
0.00260704
0.00262974
0.00263609
0.00262549
0.00259602
0.00254621
0.0024734
0.00237054
0.00222221
0.00199473
0.0016203
0.000989401
0.00014107
9.81125e-05
0.000764353
0.00137763
0.00185318
0.00221867
0.00249683
0.00270661
0.00286267
0.0029764
0.00305688
0.00311059
0.00314164
0.00315199
0.00314153
0.00310876
0.0030522
0.00296853
0.0028491
0.00267381
0.00240016
0.00194208
0.00116514
0.000159258
0.000106138
0.000830024
0.00151346
0.00205542
0.00247933
0.00280678
0.00305682
0.00324505
0.00338399
0.00348367
0.00355138
0.00359197
0.00360802
0.00360005
0.00356698
0.00350746
0.00341766
0.00328775
0.00309485
0.00279015
0.0022712
0.00135867
0.000185618
0.000113755
0.000886683
0.00162806
0.00222624
0.00270054
0.00307117
0.00335705
0.00357458
0.00373732
0.00385575
0.00393779
0.00398887
0.00401213
0.00400874
0.0039781
0.00391903
0.00382744
0.00369314
0.00349254
0.00317508
0.00263089
0.00161738
0.000226474
2.93794e-05
4.27626e-05
4.98325e-05
5.51024e-05
5.94817e-05
6.09986e-05
6.10335e-05
6.21432e-05
6.21634e-05
6.08237e-05
5.82198e-05
5.5032e-05
5.3512e-05
5.21745e-05
4.87621e-05
4.61702e-05
4.19743e-05
3.50844e-05
2.02095e-05
0.000100216
0.000261454
0.000364201
0.000458081
0.000528145
0.000564743
0.000588312
0.00059829
0.000592407
0.000576881
0.000559618
0.000528815
0.000522024
0.000491969
0.000464316
0.000432856
0.000379192
0.000282241
7.7259e-05
0.000114691
0.000452524
0.000664966
0.000848639
0.000985521
0.00107115
0.00113012
0.00116124
0.00115771
0.00112603
0.00109609
0.00105978
0.00101911
0.000957352
0.000896947
0.000820651
0.0006946
0.000477678
9.68131e-05
0.000123107
0.000577787
0.000888143
0.00115244
0.00134843
0.00147805
0.00157451
0.001628
0.00162948
0.00158589
0.0015473
0.00150282
0.0014363
0.0013478
0.00125967
0.00113939
0.000945359
0.00063753
0.000117564
0.000125759
0.000641378
0.00103936
0.00138681
0.00164558
0.00181861
0.0019477
0.00202054
0.00202621
0.00197615
0.00192899
0.0018734
0.00178609
0.00167526
0.00156594
0.00140745
0.00114888
0.000757649
0.000144353
0.000127997
0.000650912
0.00113201
0.00156581
0.00189647
0.00211919
0.00227607
0.00236333
0.00237283
0.00232185
0.00226637
0.00219452
0.0020867
0.00195656
0.00183136
0.00163065
0.00131316
0.000836568
0.000149297
0.000136378
0.000634515
0.00119167
0.00170834
0.00211234
0.00239091
0.00257464
0.00267426
0.00268805
0.00263863
0.00257408
0.00248356
0.00234533
0.00221021
0.00206293
0.00181959
0.0014455
0.000882789
0.000147822
0.000159788
0.000648361
0.00126658
0.00184744
0.0023116
0.00263932
0.00285075
0.00296204
0.00298011
0.00293173
0.00285811
0.00275046
0.00259144
0.00244524
0.00226984
0.00198629
0.00155359
0.000903965
0.000143923
0.000124449
0.000973675
0.00178995
0.00246131
0.00300248
0.00343135
0.00376642
0.00402479
0.0042211
0.00436681
0.00447053
0.00453852
0.0045747
0.00458111
0.00455809
0.00450466
0.00441635
0.00428237
0.00408167
0.00377022
0.00326756
0.00245453
0.00130398
0.000137437
0.00108262
0.00198326
0.00273101
0.00334003
0.00382706
0.00421057
0.00450923
0.00473853
0.00491107
0.00503669
0.00512278
0.00517449
0.00519521
0.0051867
0.00514888
0.00507852
0.00496793
0.00479982
0.00454825
0.00417134
0.00361373
0.00283549
0.000148376
0.00115653
0.00214678
0.00296598
0.00363161
0.00416535
0.00458786
0.00491827
0.00517377
0.00536798
0.00551188
0.00561394
0.00568037
0.00571553
0.00572208
0.00570075
0.00565003
0.00556381
0.00543101
0.00523747
0.00496326
0.0045875
0.00410683
0.000158344
0.00123419
0.002297
0.00317427
0.00388601
0.00445876
0.00491503
0.00527282
0.00555042
0.0057629
0.00592244
0.0060386
0.00611849
0.00616717
0.00618795
0.00618233
0.00614994
0.00608597
0.00598407
0.00583665
0.0056345
0.00537096
0.00505332
0.000167144
0.00133332
0.00244759
0.00336399
0.00410985
0.00471434
0.00519925
0.00558152
0.00587881
0.00610768
0.00628126
0.0064101
0.00650206
0.00656276
0.00659602
0.00660401
0.00658687
0.00654187
0.00646524
0.00635333
0.00620253
0.00601257
0.00579296
0.000174304
0.00141272
0.00258443
0.00353261
0.00430463
0.00493365
0.00544137
0.00584523
0.00616149
0.00640635
0.00659354
0.00673433
0.00683739
0.0069089
0.00695319
0.00697305
0.00696888
0.00693997
0.00688461
0.00680157
0.00669055
0.00655428
0.00640155
0.000181885
0.00148983
0.00269489
0.00366646
0.00445994
0.00510992
0.00563904
0.00606334
0.0063986
0.00665982
0.0068611
0.00701414
0.00712825
0.00721029
0.00726506
0.00729565
0.0073033
0.00728874
0.00725187
0.00719301
0.00711355
0.0070171
0.00691056
0.000188962
0.00154109
0.00277402
0.00376719
0.00458067
0.00524959
0.00579695
0.00623979
0.00659323
0.00687097
0.00708669
0.00725253
0.00737826
0.00747119
0.00753654
0.00757744
0.00759621
0.00759453
0.00757346
0.00753426
0.00747894
0.00741098
0.00733562
0.000192382
0.00155485
0.00281839
0.00384237
0.00467894
0.00536522
0.00592749
0.00638474
0.00675244
0.00704478
0.00727425
0.00745285
0.00759057
0.00769486
0.00777082
0.00782207
0.00785141
0.00786115
0.00785317
0.00782929
0.00779162
0.0077432
0.00768803
0.00018597
0.00148012
0.0028149
0.00389598
0.0047647
0.00546905
0.00604251
0.00650853
0.00688512
0.00718731
0.00742802
0.00761823
0.00776751
0.00788292
0.00796949
0.00803086
0.00807003
0.0080897
0.00809229
0.00808003
0.00805503
0.00801995
0.00797793
0.000186483
0.00136633
0.00277307
0.00393871
0.0048469
0.00556762
0.00614687
0.00661503
0.00699382
0.00729987
0.00754675
0.00774523
0.00790385
0.00802901
0.0081253
0.00819615
0.00824464
0.00827363
0.00828581
0.00828365
0.0082693
0.00824461
0.00821173
0.000193702
0.00152609
0.00290968
0.00404096
0.00493928
0.00565477
0.0062284
0.00669165
0.00706779
0.00737408
0.00762391
0.00782746
0.00799259
0.00812531
0.0082301
0.00831037
0.00836901
0.00840864
0.00843168
0.00844026
0.00843612
0.00842064
0.00839535
0.000201131
0.00160315
0.00299863
0.00411213
0.00499453
0.00569955
0.00626729
0.00672787
0.00710371
0.00741177
0.00766523
0.00787408
0.00804579
0.00818611
0.00829942
0.00838906
0.00845779
0.00850795
0.00854158
0.00856039
0.00856569
0.00855849
0.00853981
0.000201601
0.00163037
0.00302883
0.0041302
0.0049996
0.00569624
0.006261
0.00672259
0.00710189
0.00741499
0.00767453
0.00789035
0.00806988
0.00821874
0.0083412
0.00844051
0.00851926
0.00857953
0.00862302
0.00865107
0.00866467
0.00866457
0.00865141
0.000197119
0.00162777
0.0030127
0.00409859
0.00495611
0.00564714
0.00621264
0.00667914
0.00706575
0.00738738
0.0076558
0.00788074
0.00806973
0.00822832
0.00836067
0.00846996
0.00855862
0.00862855
0.00868119
0.00871766
0.00873872
0.00874487
0.00873646
0.000190712
0.00159623
0.00295784
0.00402586
0.00487294
0.00556085
0.00612943
0.00660365
0.00700046
0.00733331
0.00761306
0.0078492
0.00804922
0.00821863
0.00836155
0.00848109
0.00857961
0.00865892
0.00872033
0.0087648
0.00879294
0.0088051
0.0088014
0.000183149
0.00154668
0.00287458
0.00392205
0.00475985
0.0054467
0.00602013
0.00650346
0.00691199
0.00725767
0.00755052
0.00779948
0.00801179
0.00819291
0.00834694
0.00847701
0.00858549
0.00867414
0.00874424
0.00879667
0.00883194
0.00885027
0.00885166
0.000174877
0.00148726
0.00277329
0.00379784
0.00462685
0.00531392
0.00589326
0.00638628
0.00680701
0.00716614
0.00747292
0.00773556
0.0079609
0.00815427
0.00831979
0.00846063
0.0085792
0.0086773
0.00875621
0.00881678
0.00885944
0.00888434
0.00889139
0.000166411
0.00142371
0.00266315
0.00366347
0.00448385
0.00517162
0.00575715
0.00625977
0.00669241
0.00706476
0.00738533
0.00766166
0.00790011
0.00810585
0.00828297
0.00843469
0.00856345
0.00867113
0.00875902
0.00882795
0.00887833
0.00891024
0.00892355
0.000158368
0.00135964
0.00255167
0.00352818
0.00434019
0.00502849
0.00561966
0.00613104
0.00657453
0.00695915
0.00729263
0.00758194
0.00783301
0.00805079
0.00823932
0.00840179
0.00854073
0.00865801
0.00875497
0.00883245
0.00889082
0.00893011
0.00895016
0.000151669
0.00129384
0.00244384
0.00339988
0.00420419
0.00489223
0.00548768
0.00600627
0.00645896
0.00685422
0.00719916
0.00750022
0.00776295
0.00799208
0.0081915
0.0083644
0.00851329
0.00864007
0.00874608
0.00883215
0.00889863
0.00894548
0.00897258
0.00014653
0.001239
0.00235158
0.00328737
0.00408273
0.00476873
0.00536652
0.00589031
0.00635007
0.00675389
0.00710849
0.00741975
0.0076929
0.0079324
0.008142
0.0083248
0.00848325
0.00861925
0.00873412
0.00882866
0.00890318
0.00895762
0.00899185
0.000142615
0.0011987
0.00228008
0.00319723
0.0039825
0.00466403
0.00526101
0.00578674
0.00625088
0.00666105
0.0070234
0.00734318
0.00762534
0.00787412
0.00809305
0.00828508
0.00845257
0.00859737
0.00872075
0.00882346
0.00890578
0.00896761
0.00900884
0.000139627
0.00117131
0.00222836
0.00312891
0.00390356
0.00457883
0.00517282
0.00569819
0.00616424
0.00657819
0.00694595
0.00727249
0.00756228
0.00781926
0.00804664
0.00824715
0.00842306
0.0085761
0.0087075
0.00881792
0.00890761
0.00897644
0.00902433
0.000137233
0.00115284
0.00219183
0.00307838
0.0038428
0.00451101
0.00510064
0.00562404
0.00609027
0.00650635
0.00687792
0.0072097
0.00750576
0.0077697
0.00800451
0.0082127
0.00839631
0.00855694
0.00869572
0.00881322
0.00890965
0.0089849
0.00903891
0.000135127
0.0011391
0.00216483
0.00304014
0.00379552
0.00445687
0.00504176
0.00556246
0.00602798
0.00644519
0.00681956
0.00715556
0.00745696
0.007727
0.0079684
0.00818343
0.00837391
0.00854128
0.00868653
0.00881025
0.00891259
0.00899347
0.00905286
0.000133096
0.00112681
0.00214238
0.00300892
0.0037569
0.00441232
0.00499292
0.00551105
0.00597575
0.00639382
0.0067706
0.00711035
0.00741652
0.00769205
0.00793934
0.00816042
0.00835689
0.00853002
0.00868074
0.00880959
0.00891678
0.00900225
0.00906604
0.000131016
0.00111391
0.00212093
0.0029806
0.00372281
0.00437363
0.00495095
0.00546729
0.00593173
0.00635105
0.00673045
0.00707394
0.0073847
0.00766531
0.00791789
0.0081442
0.00834567
0.00852344
0.00867839
0.00881109
0.00892181
0.00901063
0.00907768
0.000128847
0.00109944
0.00209835
0.00295233
0.00369016
0.00433775
0.0049131
0.00542886
0.00589413
0.00631562
0.00669832
0.00704597
0.00736139
0.00764682
0.00790409
0.0081347
0.00833997
0.00852099
0.00867867
0.00881367
0.00892644
0.00901718
0.0090862
0.0001266
0.00108317
0.00207356
0.00292232
0.0036567
0.00430228
0.00487707
0.00539374
0.00586132
0.00628632
0.0066734
0.0070259
0.00734621
0.00763617
0.00789734
0.00813107
0.00833862
0.00852118
0.00867979
0.00881533
0.00892844
0.00901959
0.00908921
0.000124316
0.00106524
0.00204609
0.00288941
0.00362078
0.00426534
0.00484098
0.00536026
0.00583196
0.00626217
0.00665499
0.00701315
0.00733848
0.00763243
0.00789634
0.00813156
0.00833948
0.00852151
0.008679
0.00881312
0.00892483
0.00901483
0.00908374
0.000122051
0.00104595
0.00201574
0.0028528
0.00358112
0.00422541
0.00480336
0.00532719
0.00580516
0.00624256
0.00664258
0.00700707
0.0073372
0.00763408
0.007899
0.00813354
0.00833946
0.00851862
0.0086728
0.00880356
0.00891219
0.00899967
0.00906675
0.000119867
0.00102568
0.00198255
0.00281195
0.00353675
0.00418136
0.00476319
0.00529386
0.00578059
0.00622736
0.00663595
0.00700703
0.00734107
0.00763903
0.00790252
0.00813369
0.00833497
0.00850886
0.00865765
0.00878335
0.00888756
0.00897147
0.00903593
0.00011784
0.00100528
0.00194729
0.00276702
0.00348727
0.00413264
0.00472016
0.00526037
0.00575873
0.00621711
0.00663523
0.00701235
0.00734843
0.00764478
0.00790382
0.00812872
0.00832284
0.00848939
0.00863122
0.00875068
0.00884962
0.00892937
0.00899077
0.000116112
0.000987072
0.00191267
0.00271964
0.00343339
0.00407965
0.00467493
0.00522786
0.00574103
0.00621302
0.00664083
0.00702232
0.00735759
0.00764907
0.00790065
0.00811683
0.00830197
0.00845996
0.00859401
0.00870674
0.00880009
0.00887546
0.00893364
0.000115056
0.000977121
0.00188519
0.00267427
0.00337794
0.00402453
0.00462966
0.00519882
0.00572997
0.00621691
0.00665335
0.00703641
0.00736763
0.00765149
0.0078937
0.00810006
0.0082757
0.00842491
0.00855115
0.00865711
0.00874483
0.0088157
0.00887048
0.00011578
0.000988633
0.00187861
0.00264219
0.00332919
0.00397311
0.00458894
0.0051773
0.00572894
0.00623087
0.0066735
0.00705505
0.00738036
0.00765626
0.00788966
0.00808703
0.00825388
0.00839474
0.00851326
0.00861231
0.00869404
0.00875993
0.00881074
0.000121424
0.00104369
0.00192477
0.00265442
0.00330958
0.00393924
0.00456123
0.00516896
0.00574153
0.00625655
0.0067022
0.00708116
0.00740343
0.00767592
0.00790428
0.00809486
0.00825365
0.00838585
0.00849573
0.00858663
0.00866103
0.0087206
0.00876619
0.0001391
0.00117637
0.00210134
0.00278183
0.00336559
0.00394811
0.00455893
0.00517962
0.00576974
0.00629384
0.0067406
0.00712214
0.00745409
0.00773463
0.00796358
0.00814827
0.00829717
0.00841769
0.00851563
0.00859527
0.00865959
0.00871051
0.00874896
0.00017818
0.00145538
0.00255379
0.00312478
0.00355285
0.00402622
0.00459212
0.00521085
0.00581061
0.00633869
0.00678893
0.00719012
0.00756273
0.00786996
0.00810171
0.00827483
0.008406
0.00850736
0.00858707
0.0086504
0.00870069
0.00873993
0.00876907
0.000250872
0.00204662
0.00359209
0.00377822
0.00388495
0.00417029
0.00465412
0.00525338
0.00585303
0.00638084
0.00684229
0.00729648
0.00778434
0.00813694
0.00835585
0.00849681
0.00859352
0.00866367
0.00871668
0.00875776
0.00878983
0.00881451
0.00883252
0.000416606
0.00358472
0.00610845
0.00473823
0.00425562
0.00431163
0.00470977
0.00528543
0.00587996
0.00640565
0.00688338
0.00742898
0.00827495
0.00862321
0.00875563
0.00881949
0.00885723
0.00888268
0.00890124
0.00891534
0.00892623
0.00893452
0.0089405
0.000250185
0.000234666
0.000222132
0.000210785
0.00208678
0.00188558
0.00178161
0.00171946
0.00371998
0.00351599
0.00336015
0.00323904
0.00480996
0.00466187
0.00453053
0.0044162
0.00562793
0.00552491
0.00542887
0.00534124
0.00628799
0.00621664
0.00614865
0.00608509
0.00683135
0.00678132
0.00673302
0.00668706
0.00727885
0.00724263
0.00720717
0.00717284
0.00764533
0.00761768
0.00759013
0.00756273
0.00794334
0.00792048
0.00789721
0.0078733
0.00818205
0.00816176
0.00814019
0.00811653
0.0083691
0.00834989
0.00832827
0.00830383
0.00851661
0.00849848
0.00847699
0.00845197
0.00863077
0.00861365
0.00859265
0.00856771
0.00871824
0.00870238
0.00868235
0.00865808
0.00878595
0.00877172
0.00875314
0.0087301
0.00883952
0.00882736
0.00881074
0.00878949
0.00888315
0.00887349
0.00885931
0.00884039
0.00891975
0.00891296
0.00890161
0.00888546
0.0089512
0.00894753
0.0089393
0.00892624
0.00897868
0.00897827
0.00897331
0.0089635
0.00900305
0.00900593
0.00900424
0.00899771
0.00902501
0.00903106
0.00903255
0.00902918
0.00904518
0.00905421
0.00905865
0.00905825
0.00906401
0.00907572
0.00908285
0.00908511
0.00908169
0.00909573
0.00910516
0.00910974
0.0090979
0.00911385
0.00912518
0.00913166
0.00911179
0.00912915
0.00914189
0.00914982
0.00912168
0.00913993
0.00915359
0.0091625
0.0091252
0.00914381
0.0091579
0.00916735
0.00911944
0.00913794
0.00915204
0.00916164
0.0091015
0.00911953
0.00913331
0.00914278
0.0090693
0.00908663
0.00909991
0.00910908
0.00902257
0.00903909
0.00905177
0.00906059
0.00896378
0.00897945
0.00899151
0.00899992
0.00889882
0.00891354
0.00892484
0.00893271
0.00883683
0.0088503
0.00886054
0.00886754
0.00878922
0.00880093
0.00880959
0.00881519
0.00876783
0.00877716
0.00878367
0.00878732
0.00878277
0.00878923
0.00879326
0.00879473
0.00884056
0.00884408
0.00884585
0.00884569
0.00894301
0.00894401
0.00894434
0.00894389
0.000438684
0.000895364
0.00150824
0.0021178
0.00263091
0.00300487
0.00325006
0.00337615
0.00340371
0.00335936
0.0032729
0.00314486
0.00297073
0.00279236
0.00256045
0.0022102
0.00168374
0.000897528
0.00013298
0.00170011
0.00192764
0.00232133
0.00276441
0.00318944
0.00353791
0.00377214
0.00389376
0.00392055
0.00387391
0.00377356
0.00362557
0.00342957
0.00320505
0.0029041
0.0024688
0.00180894
0.000871771
0.000128182
0.00308007
0.00309051
0.00328943
0.00356605
0.0038559
0.00410917
0.00429459
0.00439013
0.00440218
0.00434408
0.00422805
0.00406015
0.00384163
0.00356975
0.00321055
0.00270262
0.00195924
0.000960388
0.000133472
0.00425227
0.00417385
0.00424563
0.00439219
0.00455653
0.0047033
0.00481494
0.00486579
0.00485163
0.00477476
0.00464081
0.00445278
0.00420812
0.00389798
0.00349346
0.00294224
0.00217577
0.00114949
0.00014868
0.0052102
0.00511318
0.00511146
0.00516462
0.00523287
0.00529138
0.00532639
0.0053223
0.0052709
0.00516703
0.00501049
0.00480048
0.00453133
0.00419002
0.00375028
0.0031693
0.00238529
0.00132237
0.000162061
0.00598756
0.00589562
0.00585664
0.00584892
0.00584807
0.00583746
0.00580713
0.00574817
0.00565355
0.0055167
0.00533311
0.00509798
0.0048026
0.00443179
0.00396033
0.00334794
0.00252947
0.00140951
0.000171102
0.00661497
0.00653443
0.00647705
0.00643089
0.00638122
0.00631771
0.00623424
0.00612619
0.00598911
0.00581701
0.00560341
0.00534073
0.00501781
0.00461801
0.00411669
0.00347385
0.00262146
0.00145934
0.000174964
0.00711757
0.0070477
0.00698082
0.0069091
0.00682405
0.00671988
0.00659352
0.00644372
0.00626824
0.0060618
0.00581726
0.00552597
0.00517521
0.00474689
0.00421661
0.00354629
0.00266778
0.00148176
0.000174491
0.00751699
0.00745113
0.00737698
0.00728792
0.00717774
0.00704178
0.00688003
0.0066949
0.00648585
0.00624762
0.00597286
0.00565372
0.00527706
0.00482204
0.00426464
0.00357175
0.00267822
0.00148632
0.000173407
0.00783189
0.00776482
0.007682
0.00757883
0.00744951
0.00728837
0.00709676
0.00688063
0.0066422
0.0063753
0.00607175
0.00572778
0.0053319
0.00485625
0.00427449
0.00356808
0.00267359
0.00148558
0.000185426
0.00807354
0.00799817
0.00790395
0.00778838
0.00764525
0.00746596
0.00725112
0.00700814
0.00674058
0.00644278
0.00610989
0.00574015
0.00532257
0.00483508
0.00425596
0.0035528
0.00266776
0.00148845
0.000188947
0.00825839
0.00817598
0.00807183
0.00794315
0.00778411
0.00758848
0.0073562
0.00709109
0.00679743
0.00647328
0.00611534
0.00571931
0.00527607
0.00476938
0.004181
0.00348797
0.00262889
0.00147912
0.000188238
0.0084048
0.00831749
0.00820568
0.00806573
0.00789199
0.0076801
0.00743018
0.00714603
0.00683038
0.00648101
0.0060934
0.00566333
0.00518697
0.00465329
0.00404728
0.00334326
0.00248999
0.00138405
0.000177008
0.00852006
0.00842977
0.00831219
0.00816325
0.00797796
0.00775279
0.007488
0.00718643
0.00684937
0.00647523
0.00605756
0.00559172
0.00507711
0.0045076
0.0038689
0.00313757
0.00227374
0.00121669
0.000162859
0.00861099
0.00851948
0.00839843
0.00824373
0.00805101
0.00781706
0.00754133
0.00722508
0.00686821
0.00646902
0.00602171
0.00552206
0.00497005
0.00436173
0.00368521
0.00292034
0.00204237
0.00104388
0.000152267
0.00868451
0.00859356
0.0084717
0.00831478
0.00811882
0.00788065
0.00759874
0.00727261
0.00690108
0.00648187
0.00601044
0.00548316
0.00489921
0.00425604
0.00354577
0.00275668
0.00188211
0.000945294
0.000146055
0.0087464
0.00865781
0.00853767
0.0083819
0.00818665
0.00794868
0.00766564
0.00733577
0.00695696
0.00652653
0.00604082
0.00549677
0.00489299
0.0042276
0.00349655
0.00269566
0.00182856
0.00092314
0.000144456
0.00880076
0.00871624
0.00860009
0.00844832
0.00825721
0.00802341
0.00774405
0.00741658
0.00703833
0.00660632
0.00611736
0.00556867
0.00495836
0.0042846
0.00354506
0.00273848
0.00186907
0.000956325
0.00014605
0.00885012
0.0087711
0.00866075
0.00851522
0.00833089
0.00810441
0.00783265
0.00751266
0.00714145
0.0067158
0.00623259
0.00568886
0.00508198
0.00440928
0.00366774
0.00285464
0.0019692
0.0010199
0.000149086
0.00889577
0.00882332
0.00872
0.0085822
0.00840643
0.00818936
0.00792782
0.00761867
0.0072587
0.00684441
0.00637243
0.00583924
0.00524105
0.00457355
0.00383144
0.00300832
0.00209692
0.00109609
0.00015266
0.00893826
0.00887299
0.00877739
0.00864808
0.00848173
0.00827511
0.00802506
0.00772833
0.00738152
0.0069808
0.00652231
0.00600166
0.00541367
0.0047519
0.00400812
0.0031717
0.00222946
0.00117292
0.000156055
0.00897777
0.00891989
0.00883219
0.00871153
0.00855473
0.00835869
0.00812026
0.00783614
0.00750268
0.00711569
0.00667069
0.00616229
0.00558377
0.0049265
0.00417924
0.00332735
0.00235258
0.00124014
0.000158681
0.00901443
0.00896381
0.0088838
0.00877146
0.00862381
0.00843783
0.00821041
0.00793815
0.00761715
0.00724285
0.0068101
0.00631245
0.0057417
0.00508717
0.00433485
0.00346663
0.00246007
0.00129565
0.000160631
0.00904837
0.00900463
0.00893181
0.00882719
0.00868793
0.00851112
0.00829365
0.00803201
0.00772207
0.00735886
0.00693657
0.00644778
0.00588293
0.0052295
0.00447113
0.00358685
0.00255079
0.00134091
0.000162065
0.00907967
0.00904223
0.00897594
0.00887825
0.00874646
0.00857775
0.00836901
0.00811661
0.00781614
0.00746231
0.00704866
0.0065669
0.00600627
0.00535272
0.00458796
0.00368873
0.00262649
0.00137854
0.000163164
0.00910819
0.00907633
0.0090158
0.0089242
0.00879892
0.00863723
0.00843599
0.00819146
0.007899
0.00755297
0.00714634
0.00667008
0.00611241
0.00545802
0.00468704
0.00377436
0.00268967
0.0014099
0.000164046
0.00913337
0.0091063
0.00905071
0.00896434
0.00884466
0.00868899
0.00849416
0.00825632
0.0079706
0.00763108
0.00723021
0.00675831
0.00620279
0.00554729
0.00477071
0.00384644
0.0027429
0.00143672
0.000164832
0.00915408
0.00913092
0.00907948
0.00899754
0.00888267
0.00873217
0.00854284
0.00831074
0.00803081
0.00769683
0.00730083
0.00683258
0.00627882
0.00562235
0.00484107
0.00390721
0.0027881
0.00145978
0.000165621
0.00916858
0.00914846
0.00910037
0.00902214
0.00891139
0.00876542
0.00858097
0.00835395
0.00807917
0.00775012
0.00735848
0.00689352
0.00634145
0.00568442
0.00489955
0.00395815
0.00282665
0.00148047
0.000166608
0.00917457
0.00915671
0.0091113
0.00903623
0.0089291
0.0087872
0.00860721
0.00838491
0.00811498
0.00779064
0.00740322
0.00694161
0.00639153
0.00573462
0.00494739
0.00400038
0.00285907
0.00149803
0.000167835
0.00916943
0.00915321
0.00911002
0.00903774
0.008934
0.00879601
0.00862037
0.00840276
0.00813771
0.00781818
0.00743517
0.00697723
0.00642967
0.00577373
0.00498544
0.0040347
0.00288603
0.00151288
0.000169293
0.00915075
0.00913576
0.00909455
0.00902499
0.00892466
0.00879071
0.00861964
0.00840702
0.00814719
0.00783286
0.00745473
0.00700099
0.00645662
0.00580256
0.00501455
0.00406206
0.00290879
0.0015268
0.000171061
0.009117
0.00910308
0.00906383
0.00899714
0.00890053
0.00877105
0.00860506
0.00839803
0.00814406
0.0078356
0.00746303
0.00701421
0.00647382
0.00582256
0.00503609
0.00408374
0.00292859
0.00154078
0.000173326
0.00906838
0.0090555
0.00901836
0.00895486
0.00886246
0.0087381
0.00857797
0.00837735
0.00813011
0.00782841
0.00746233
0.00701938
0.00648394
0.00583651
0.0050527
0.00410201
0.00294719
0.0015561
0.00017624
0.0090075
0.0089956
0.00896065
0.00890063
0.00881299
0.00869449
0.00854114
0.0083479
0.00810837
0.0078145
0.00745611
0.00702039
0.00649137
0.00584924
0.00506944
0.00412144
0.00296788
0.0015744
0.000180116
0.00893982
0.00892854
0.0088955
0.0088389
0.00875627
0.0086443
0.00849858
0.00831362
0.0080828
0.00779795
0.0074488
0.00702237
0.0065024
0.0058686
0.00509555
0.00415142
0.0029978
0.00159919
0.000185353
0.00887358
0.00886197
0.00882983
0.00877571
0.00869764
0.00859241
0.00845491
0.00827892
0.00805762
0.007783
0.00744503
0.00703107
0.00652505
0.00590631
0.00514726
0.00421092
0.00305256
0.00163757
0.000192793
0.00881923
0.00880571
0.00877234
0.00871816
0.00864259
0.0085435
0.0084144
0.00824772
0.00803642
0.00777305
0.0074486
0.00705177
0.00656827
0.00597849
0.00525175
0.00433722
0.00316591
0.00170501
0.000203931
0.00878839
0.00877119
0.00873345
0.00867406
0.00859585
0.00850082
0.00837985
0.00822253
0.00802128
0.00776978
0.00746113
0.00708741
0.00663952
0.00610392
0.00544983
0.0045987
0.00340672
0.00183303
0.000221838
0.00879261
0.00877125
0.00872642
0.00865363
0.00856118
0.00846552
0.00835202
0.00820391
0.00801224
0.00777238
0.00748088
0.00713586
0.00673932
0.00629589
0.00578838
0.0051015
0.00390499
0.0020854
0.000252677
0.00884175
0.00881995
0.00877119
0.00867764
0.00854269
0.00843748
0.00833039
0.00819107
0.00800773
0.0077778
0.00750212
0.00718695
0.00685217
0.00653751
0.0062767
0.00595385
0.00489438
0.00260758
0.000311981
0.00894155
0.00893014
0.008899
0.00880661
0.00854312
0.00841865
0.00831637
0.00818373
0.00800581
0.00778189
0.00751623
0.00722192
0.00693591
0.00674047
0.00676422
0.00703526
0.00690839
0.00403139
0.000465807
)
;

boundaryField
{
    leftWall
    {
        type            nutkWallFunction;
        Cmu             0.09;
        kappa           0.41;
        E               9.8;
        value           nonuniform List<scalar> 
50
(
2.104e-06
6.25482e-06
7.33589e-06
8.23986e-06
9.05383e-06
1.04747e-05
1.26624e-05
1.35809e-05
1.47891e-05
1.62926e-05
1.75637e-05
1.87048e-05
1.97037e-05
2.04757e-05
2.11763e-05
2.18196e-05
2.2466e-05
1.85681e-05
1.89978e-05
2.01849e-05
2.11549e-05
2.09775e-05
2.00247e-05
1.88951e-05
1.76381e-05
1.63085e-05
1.4988e-05
1.37747e-05
1.28128e-05
1.20889e-05
1.15449e-05
1.11277e-05
1.07839e-05
1.04694e-05
1.01554e-05
9.82761e-06
9.48311e-06
9.12601e-06
8.76458e-06
8.40854e-06
8.0679e-06
7.75336e-06
7.4828e-06
7.30383e-06
7.3657e-06
8.12156e-06
1.07105e-05
1.67888e-05
2.74302e-05
4.92181e-05
)
;
    }
    rightWall
    {
        type            nutkWallFunction;
        Cmu             0.09;
        kappa           0.41;
        E               9.8;
        value           nonuniform List<scalar> 
50
(
2.36326e-06
7.97304e-06
9.85252e-06
1.19463e-05
1.66963e-05
1.73081e-05
1.70979e-05
1.66036e-05
1.53837e-05
1.49614e-05
1.5608e-05
1.72677e-05
1.89703e-05
1.99557e-05
2.03574e-05
2.02796e-05
2.00689e-05
2.13033e-05
2.10381e-05
1.81933e-05
1.62692e-05
1.43188e-05
1.29323e-05
1.22342e-05
1.21746e-05
1.24961e-05
1.29669e-05
1.34775e-05
1.39318e-05
1.42746e-05
1.45231e-05
1.47011e-05
1.48338e-05
1.49388e-05
1.5033e-05
1.51308e-05
1.52526e-05
1.54139e-05
1.5623e-05
1.58841e-05
1.62251e-05
1.66677e-05
1.72571e-05
1.80481e-05
1.91568e-05
2.07865e-05
2.3369e-05
2.77958e-05
3.62752e-05
5.56659e-05
)
;
    }
    lowerWall
    {
        type            nutkWallFunction;
        Cmu             0.09;
        kappa           0.41;
        E               9.8;
        value           nonuniform List<scalar> 
62
(
2.104e-06
3.51083e-06
4.37991e-06
4.98321e-06
5.42917e-06
5.77274e-06
6.04427e-06
6.25988e-06
6.43043e-06
6.56303e-06
6.66149e-06
6.72805e-06
6.76357e-06
6.76692e-06
6.73456e-06
6.6642e-06
6.55297e-06
6.39299e-06
6.16928e-06
5.85156e-06
5.3761e-06
4.62004e-06
3.17539e-06
3.17539e-06
9.37305e-06
1.10137e-05
1.23381e-05
1.35853e-05
1.50347e-05
1.71448e-05
2.09438e-05
2.67055e-05
2.50968e-05
2.45933e-05
2.38871e-05
3.18962e-06
1.0087e-05
1.17214e-05
1.34136e-05
1.43247e-05
1.47148e-05
1.62975e-05
1.90455e-05
3.18962e-06
4.63199e-06
5.32357e-06
5.80416e-06
6.18479e-06
6.38642e-06
6.38424e-06
6.50883e-06
6.55869e-06
6.44394e-06
6.22162e-06
5.92182e-06
5.75639e-06
5.62095e-06
5.28145e-06
5.01494e-06
4.58527e-06
3.88279e-06
2.36326e-06
)
;
    }
    atmosphere
    {
        type            calculated;
        value           nonuniform List<scalar> 
46
(
0.009
0.009
0.009
0.00473823
0.00425562
0.00431163
0.00470977
0.00528543
0.00587996
0.00640565
0.00688338
0.00742898
0.009
0.009
0.009
0.009
0.009
0.009
0.009
0.009
0.009
0.009
0.009
0.009
0.009
0.009
0.009
0.009
0.009
0.009
0.009
0.00854312
0.00841865
0.00831637
0.00818373
0.00800581
0.00778189
0.00751623
0.00722192
0.00693591
0.00674047
0.00676422
0.00703526
0.009
0.009
0.009
)
;
    }
    defaultFaces
    {
        type            empty;
    }
}


// ************************************************************************* //
