/*--------------------------------*- C++ -*----------------------------------*\
  =========                 |
  \\      /  F ield         | OpenFOAM: The Open Source CFD Toolbox
   \\    /   O peration     | Website:  https://openfoam.org
    \\  /    A nd           | Version:  13
     \\/     M anipulation  |
\*---------------------------------------------------------------------------*/
FoamFile
{
    format      ascii;
    class       volScalarField;
    location    "2.65";
    object      p;
}
// * * * * * * * * * * * * * * * * * * * * * * * * * * * * * * * * * * * * * //

dimensions      [1 -1 -2 0 0 0 0];

internalField   nonuniform List<scalar> 
2268
(
4756.6
4764.68
4785.81
4819.85
4865.41
4921.39
4986.66
5059.86
5141.05
5229.72
5325.49
5427.75
5535.48
5647.35
5761.89
5877.4
5991.19
6099.65
6198.39
6282.64
6346.85
6387.35
6401.18
3958.99
3967
3986.21
4020.1
4065.81
4122.18
4188.05
4262.66
4344.68
4433.99
4530.27
4632.9
4740.9
4853
4967.99
5084.21
5198.91
5308.46
5408.31
5493.16
5556.94
5589.61
5600.73
3159.3
3168.61
3187.28
3220.66
3266.35
3323.21
3389.9
3465.28
3548.14
3638.26
3735.26
3838.52
3946.98
4059.41
4174.78
4291.5
4406.8
4516.94
4617.25
4701.97
4764.43
4793.69
4804.87
2357.02
2368.2
2386.61
2419.23
2465.02
2522.51
2590.23
2666.64
2750.34
2841.31
2939.23
3043.41
3152.71
3265.74
3381.44
3498.64
3614.68
3725.63
3826.67
3911.9
3974.64
4002.47
4014.64
1557.72
1571.61
1588.38
1618.56
1662.27
1718.65
1786.86
1864.26
1948.41
2040.24
2139.49
2245.36
2356.58
2471.05
2587.49
2705.46
2822.66
2934.84
3036.9
3123.11
3187.1
3215.18
3229.8
1010.25
1019.78
1029.13
1044.42
1065.96
1094
1128.97
1171.45
1225.66
1290.67
1366.74
1454.8
1555.49
1669.36
1789.09
1910.49
2031.06
2145.82
2248.79
2335.7
2400.91
2430.66
2450.97
830.959
834.08
837.105
839.832
841.584
842.691
843.702
847.142
858.587
876.573
901.48
934.634
977.541
1033.73
1100.43
1180.01
1271.05
1367.77
1469.76
1558.08
1623.15
1652.99
1679.19
770.671
773.643
776.504
779.06
780.746
781.625
781.911
781.849
780.845
779.352
777.342
774.663
771.422
768.685
771.136
784.547
808.85
841.542
883.637
923.758
955.76
971.93
995.698
2520.29
2521.17
2535.07
2559.64
2592.1
2580.12
2561.14
2550.57
2538.58
2519.85
2481.54
2439.08
2443.06
2448.27
2440.69
2434.42
2422.01
2412.04
2409.97
1880.32
1869.22
1872.99
1881.01
1905.58
1939.6
1957.77
1944.75
1923.71
1908.9
1896.22
1892.12
1870.8
1839.95
1830.97
1823.93
1812.74
1804.63
1803.14
1398.71
1383.74
1381.46
1379.41
1370.88
1363.14
1373.28
1356.64
1338.41
1315.83
1329.34
1346.83
1325.3
1294.06
1278.42
1262.39
1261.6
1271.47
1279.34
1126.57
1124.4
1126.94
1129.34
1100.55
1057.08
1047.36
1035.09
1023.97
990.716
982.791
989.77
978.937
960.933
951.147
946.377
951.136
957.822
951.381
990.929
986.502
988.65
988.779
982.668
958.086
942.225
934.889
920.471
894.396
866.041
848.786
828.742
837.054
856.048
867.056
864.536
849.731
828.141
878.329
875.579
871.101
864.541
874.157
882.503
874.397
866.827
840.787
827.2
816.683
796.957
768.765
786.744
811.426
815.381
811.332
797.297
789.261
784.296
784.056
773.424
761.151
763.89
790.474
790.13
776.714
757.101
759.235
757.52
754.66
746.482
752.167
757.216
756.093
752.19
741.13
742.981
711.687
712.25
702.176
685.312
675.674
694.208
694.567
684.877
686.413
695.76
698.854
701.283
716.269
709.852
701.252
698.265
694.821
685.689
690.474
675.452
678.731
681.973
684.71
686.597
687.625
687.853
687.38
686.058
683.913
680.988
677.375
673.423
669.441
665.183
659.205
650.619
639.656
625.985
614.535
606.698
600.938
603.419
544.867
549.032
552.93
556.021
558.31
559.705
560.09
559.575
558.378
556.491
553.878
550.542
546.565
542.063
536.853
530.37
522.29
513.006
503.363
492.275
479.903
467.59
456.35
419.672
421.883
424.667
427.458
430.161
432.109
432.444
431.91
430.807
429.12
426.778
423.717
419.974
415.728
410.821
404.892
397.934
390.214
381.979
373.487
364.868
356.575
349.761
313.461
314.407
314.982
315.643
316.078
316.001
316.307
315.702
314.434
312.91
311.046
309.143
306.998
304.054
300.208
295.931
291.968
288.187
283.885
279.792
276.589
274.646
274.502
236.722
236.926
236.787
236.165
234.738
233.781
234.005
234.056
233.459
232.541
231.543
230.448
229.083
227.015
224.363
221.738
219.363
217.578
215.886
214.427
213.88
214.687
217.033
173.336
172.2
172.179
172.34
172.534
173.193
173.536
173.935
174.005
173.605
172.865
171.496
169.622
167.622
165.568
163.31
160.699
157.773
155.74
154.433
153.889
154.626
156.539
106.495
106.039
106.766
107.915
109.37
110.603
111.079
111.454
111.648
111.356
110.445
109.025
107.237
105.249
103.132
100.796
98.208
95.8541
94.0436
92.7977
92.1987
92.4
93.3689
43.4097
42.9035
44.6172
46.4906
48.1405
49.61
50.6081
51.0583
51.0831
50.6756
49.9206
48.6677
47.089
45.3398
43.5093
41.6391
39.8965
38.3487
37.1231
36.2207
35.6522
35.4822
35.6881
9.59465
9.306
10.2834
11.2839
12.1344
13.0404
13.5458
13.5715
13.4683
13.2745
12.8849
12.3063
11.6209
10.9096
10.2021
9.50603
8.88369
8.37929
7.99343
7.71278
7.54585
7.51604
7.67639
4.58204
4.58252
4.54986
4.51428
4.49507
4.49383
4.51077
4.53612
4.55539
4.5729
4.59342
4.61998
4.65032
4.68224
4.71487
4.7494
4.7875
4.82852
4.86922
4.90661
4.9393
4.96688
4.98787
4.4388
4.43872
4.43457
4.42866
4.42635
4.42938
4.43802
4.4511
4.46591
4.48225
4.50143
4.52419
4.55006
4.57833
4.60836
4.63978
4.67225
4.70517
4.73804
4.77043
4.80217
4.83183
4.86091
4.3022
4.29974
4.29693
4.2935
4.29296
4.29778
4.30824
4.32305
4.33892
4.35543
4.37459
4.39702
4.42222
4.44956
4.47858
4.50893
4.54028
4.57223
4.60432
4.6359
4.66623
4.69349
4.71972
4.16601
4.16173
4.15968
4.15807
4.15946
4.16556
4.17704
4.19252
4.20946
4.22745
4.24631
4.26829
4.29285
4.31919
4.3469
4.37572
4.40537
4.4356
4.46603
4.49607
4.52493
4.55108
4.57662
4.03091
4.02581
4.02423
4.02466
4.02763
4.03413
4.04423
4.0582
4.07541
4.09525
4.11476
4.13669
4.16078
4.18638
4.21313
4.24083
4.26933
4.29838
4.32772
4.35679
4.38491
4.41089
4.43707
3.89547
3.89078
3.88938
3.89076
3.89487
3.90155
3.90998
3.92214
3.9384
3.9578
3.97882
4.00148
4.02538
4.05043
4.07648
4.10345
4.13121
4.1596
4.18836
4.21698
4.24481
4.27072
4.29707
3.75926
3.75547
3.75417
3.756
3.76087
3.76778
3.77628
3.78676
3.80131
3.81959
3.84132
3.86403
3.8875
3.9119
3.93722
3.96347
3.99046
4.01813
4.04626
4.07437
4.10186
4.12758
4.15371
3.62217
3.61958
3.61905
3.62125
3.62617
3.63312
3.64197
3.65282
3.66642
3.68357
3.70392
3.72548
3.74801
3.77149
3.79596
3.82131
3.84743
3.87425
3.90162
3.9291
3.95608
3.98142
4.00724
3.48438
3.48293
3.48324
3.48576
3.49058
3.49748
3.5064
3.51742
3.53086
3.54701
3.5656
3.58579
3.60714
3.62959
3.65305
3.67737
3.70248
3.72837
3.75488
3.78159
3.80794
3.83277
3.8581
3.34605
3.34554
3.34648
3.34922
3.354
3.36078
3.36956
3.38039
3.39338
3.40859
3.42588
3.44477
3.46497
3.48631
3.50865
3.53187
3.55593
3.58081
3.60637
3.63222
3.65781
3.68198
3.70673
3.2073
3.20749
3.20887
3.21177
3.21648
3.22308
3.23158
3.24202
3.25441
3.26874
3.28488
3.30259
3.32161
3.34179
3.36297
3.38505
3.40799
3.43179
3.45633
3.48122
3.50595
3.52936
3.55335
3.06812
3.0688
3.07049
3.07349
3.0781
3.08446
3.0926
3.10254
3.11427
3.12773
3.14282
3.15937
3.17722
3.1962
3.21618
3.23708
3.25885
3.28151
3.30495
3.32881
3.35256
3.37511
3.39833
2.9285
2.92946
2.93134
2.93439
2.93889
2.94499
2.95272
2.96211
2.97314
2.98574
2.99981
3.01524
3.03191
3.04968
3.06844
3.0881
3.10866
3.13012
3.15239
3.1751
3.1978
3.21942
3.24171
2.78842
2.78949
2.79146
2.7945
2.79886
2.80467
2.81198
2.82081
2.83113
2.84289
2.85598
2.87031
2.88581
2.90235
2.91986
2.93826
2.95755
2.97775
2.99875
3.02025
3.04178
3.06232
3.08363
2.64788
2.64896
2.65093
2.65391
2.65808
2.66357
2.67044
2.67869
2.6883
2.69922
2.71137
2.72464
2.73898
2.75431
2.77056
2.78767
2.80565
2.82451
2.84418
2.86435
2.88461
2.90398
2.92409
2.50691
2.50793
2.50984
2.5127
2.51665
2.5218
2.5282
2.53585
2.54474
2.55482
2.56602
2.57825
2.59146
2.60559
2.62058
2.63639
2.65303
2.67052
2.6888
2.70759
2.72648
2.74456
2.76352
2.36553
2.36646
2.36826
2.37097
2.37466
2.37945
2.38536
2.3924
2.40056
2.40979
2.42004
2.43124
2.44332
2.45625
2.46997
2.48447
2.49975
2.51585
2.5327
2.55006
2.56753
2.58422
2.60211
2.22378
2.22462
2.22629
2.2288
2.23222
2.23661
2.24201
2.24843
2.25585
2.26424
2.27355
2.28371
2.29466
2.30639
2.31884
2.33201
2.34591
2.36058
2.37598
2.39187
2.40793
2.42336
2.43965
2.08173
2.08248
2.084
2.08629
2.0894
2.09337
2.09825
2.10404
2.11073
2.11827
2.12664
2.13577
2.14561
2.15613
2.16731
2.17915
2.19165
2.20488
2.21878
2.23317
2.24774
2.2618
2.27653
1.93942
1.9401
1.94147
1.94352
1.94629
1.94984
1.95418
1.95934
1.96528
1.97199
1.97942
1.98753
1.99627
2.0056
2.01552
2.02602
2.03713
2.04889
2.06129
2.07415
2.08721
2.09983
2.11313
1.79692
1.79755
1.79877
1.80057
1.80298
1.80608
1.80988
1.81439
1.8196
1.82549
1.832
1.8391
1.84675
1.85492
1.86359
1.87276
1.88248
1.89279
1.90368
1.915
1.92654
1.93773
1.94953
1.65432
1.65491
1.65598
1.65751
1.65956
1.66219
1.66544
1.6693
1.67379
1.67885
1.68447
1.69059
1.69718
1.7042
1.71164
1.71952
1.72786
1.73673
1.74612
1.75591
1.76591
1.77564
1.78599
1.5117
1.51227
1.51318
1.51443
1.51609
1.51824
1.52092
1.52415
1.52791
1.53218
1.53692
1.54209
1.54765
1.55356
1.55982
1.56643
1.57345
1.58091
1.58882
1.59709
1.60556
1.61382
1.6226
1.36913
1.36969
1.37045
1.37141
1.37266
1.3743
1.3764
1.37899
1.38204
1.38554
1.38944
1.3937
1.39827
1.40313
1.40825
1.41367
1.4194
1.42551
1.432
1.43881
1.44578
1.4526
1.45991
1.2267
1.22727
1.22788
1.22851
1.22932
1.23043
1.23194
1.23388
1.23624
1.239
1.2421
1.2455
1.24915
1.25302
1.25709
1.26138
1.26592
1.27076
1.27592
1.28133
1.28691
1.29238
1.29824
1.08449
1.08509
1.08554
1.08582
1.08612
1.08666
1.08754
1.08884
1.09053
1.09259
1.09495
1.09756
1.10037
1.10334
1.10645
1.10972
1.11318
1.11687
1.12081
1.12495
1.12923
1.13344
1.13802
0.942552
0.943223
0.943497
0.943351
0.943077
0.94297
0.943206
0.943854
0.944906
0.946311
0.948007
0.949926
0.952005
0.954191
0.95647
0.958849
0.961353
0.96402
0.966871
0.969873
0.972994
0.976069
0.979401
0.800898
0.801693
0.801772
0.801097
0.800122
0.799287
0.79884
0.798856
0.799312
0.800138
0.801263
0.802616
0.804106
0.805654
0.807238
0.808865
0.810556
0.812345
0.814253
0.816278
0.818389
0.820468
0.822781
0.659478
0.660463
0.660286
0.658893
0.65705
0.655405
0.654268
0.653701
0.653637
0.653982
0.65466
0.655601
0.656681
0.657756
0.658795
0.659812
0.66083
0.661886
0.66301
0.664206
0.665474
0.666741
0.668171
0.518136
0.519335
0.518727
0.516276
0.513385
0.51093
0.509205
0.508183
0.507729
0.507718
0.508079
0.508768
0.509643
0.51043
0.511052
0.511577
0.512049
0.512512
0.513001
0.51353
0.514104
0.51467
0.515355
0.37639
0.377569
0.376111
0.372075
0.368209
0.36528
0.363324
0.362146
0.361529
0.361331
0.361508
0.362071
0.362906
0.363412
0.363589
0.363649
0.363658
0.363658
0.363672
0.363695
0.363707
0.363652
0.363468
0.233876
0.233553
0.23037
0.223856
0.220169
0.217856
0.216437
0.215614
0.215177
0.215019
0.215144
0.215665
0.216597
0.217294
0.216497
0.216007
0.215636
0.215335
0.215072
0.214803
0.21446
0.213979
0.212879
0.0837582
0.0799504
0.0767054
0.0727403
0.0720249
0.0716895
0.071538
0.071504
0.0715403
0.0716254
0.0717976
0.0722618
0.0731807
0.0738866
0.0719229
0.0710983
0.0707171
0.0704582
0.0702535
0.0700571
0.0698228
0.0694942
0.0686759
615.282
616.678
613.683
612.112
450.718
452.404
459.88
466.015
348.539
349.542
352.525
356.079
276.203
277.419
278.719
281.055
218.669
219.607
220.732
222.29
157.794
158.405
159.08
160.013
94.4683
95.227
95.9694
96.6988
35.9751
36.3037
36.8897
37.6308
8.08737
8.34985
8.60116
8.7944
4.99687
5.00937
5.03243
5.05998
4.89842
4.93212
4.96902
4.99865
4.75399
4.78835
4.82604
4.85688
4.61269
4.64942
4.68888
4.71935
4.47586
4.51406
4.55424
4.58417
4.33619
4.37463
4.41511
4.445
4.19251
4.23083
4.27135
4.30138
4.04549
4.08351
4.12398
4.15402
3.89576
3.93331
3.97341
4.00335
3.74357
3.78047
3.82011
3.84975
3.58925
3.62531
3.66415
3.69339
3.43306
3.4681
3.50605
3.53467
3.27524
3.3091
3.34579
3.37364
3.11567
3.14816
3.18358
3.21049
2.95451
2.98546
3.0193
3.04528
2.79209
2.82134
2.85362
2.87849
2.62881
2.65625
2.68663
2.71028
2.46446
2.49009
2.51866
2.54094
2.29936
2.32306
2.3496
2.37064
2.13381
2.15548
2.18008
2.19966
1.96819
1.98783
2.01016
2.02825
1.80248
1.82003
1.84028
1.85679
1.63693
1.65236
1.67038
1.68546
1.47201
1.48536
1.50137
1.515
1.30834
1.31972
1.33359
1.3458
1.14617
1.15567
1.16767
1.17843
0.985788
0.993548
1.00364
1.01308
0.827539
0.833696
0.842128
0.850218
0.671638
0.676396
0.683136
0.689893
0.517668
0.521163
0.526435
0.531854
0.364588
0.366815
0.37065
0.374969
0.21161
0.212287
0.214788
0.218416
0.0669457
0.066718
0.0675791
0.0693997
613.088
609.687
602.253
592.472
584.021
580.651
578.743
583.093
593.544
602.181
607.467
613.54
628.597
622.341
613.494
609.289
606.797
603.452
609.493
471.649
469.119
469.467
471.553
467.189
456.53
458.234
465.186
471.044
477.263
482.763
489.087
498.123
497.24
493.581
491.942
493.293
497.007
502.666
360.434
361.507
364.026
368.86
366.885
364.218
365.575
368.666
372.308
376.467
380.274
384.489
389.546
391.54
393.218
396.563
401.46
406.31
408.885
286.777
291.032
291.867
293.091
295.34
298.217
298.021
299.813
302.83
305.982
308.723
311.134
313.723
316.963
321.276
326.296
330.563
332.908
333.664
225.501
228.801
230.081
231.094
233.591
236.939
238.801
240.353
241.381
243.506
246.161
248.973
252.087
255.491
259.427
263.49
266.54
267.336
267.955
161.812
164.243
166.041
167.802
170.208
173.174
175.562
177.205
178.648
180.841
183.593
186.715
190.172
193.864
197.691
201.387
204.14
205.412
206.555
97.9795
99.9837
101.954
103.975
106.273
108.861
111.196
113.248
115.268
117.769
120.776
124.336
128.361
132.464
136.352
140.176
143.22
144.863
145.786
38.9385
40.3419
41.8576
43.4363
45.0213
46.8521
48.4963
50.0289
51.7176
53.8824
56.6134
60.1399
64.6276
69.5222
74.033
78.2685
81.8849
84.3108
84.9947
8.97313
9.44077
10.0415
10.6348
11.1764
11.6183
11.9685
12.2662
12.6386
13.3421
14.4044
15.8975
18.0838
21.2465
24.4617
27.6661
30.4572
32.4293
32.8955
5.09445
5.09506
5.10758
5.1464
5.1941
5.2201
5.22335
5.21673
5.23997
5.28093
5.372
5.46925
5.52101
5.63572
6.20493
6.96656
7.60826
7.58389
7.44275
5.02593
5.0427
5.05932
5.08422
5.10941
5.11286
5.09524
5.06789
5.05584
5.05546
5.06669
5.06717
5.05499
5.035
4.97556
4.92665
4.92234
4.88292
4.89614
4.88604
4.8981
4.90787
4.91618
4.92541
4.92677
4.91919
4.91219
4.90763
4.90247
4.89754
4.88221
4.85201
4.81206
4.78571
4.76245
4.74184
4.73603
4.74142
4.74609
4.75558
4.76137
4.76122
4.7575
4.7581
4.7616
4.76749
4.76581
4.75738
4.7398
4.72216
4.70275
4.68389
4.66307
4.64327
4.62725
4.61913
4.6195
4.60877
4.61716
4.62265
4.62486
4.62449
4.62449
4.62666
4.62761
4.62388
4.6147
4.59951
4.58301
4.56982
4.55517
4.53913
4.52217
4.50758
4.49817
4.495
4.46933
4.47735
4.48304
4.48652
4.48766
4.488
4.48804
4.48649
4.48145
4.47261
4.46017
4.44657
4.43378
4.42053
4.40676
4.39296
4.38063
4.37181
4.36702
4.32589
4.33389
4.33981
4.34417
4.34633
4.34697
4.34636
4.34383
4.33857
4.33046
4.3198
4.30805
4.29624
4.28414
4.27178
4.25967
4.24896
4.24078
4.2354
4.17866
4.18688
4.19315
4.19816
4.20113
4.20225
4.20165
4.19907
4.19417
4.18699
4.17784
4.16758
4.15686
4.14575
4.13446
4.12355
4.11383
4.10599
4.10034
4.02807
4.03656
4.04325
4.04886
4.0525
4.05419
4.05397
4.05178
4.04752
4.04132
4.03347
4.02447
4.0148
4.00465
3.99435
3.98438
3.97537
3.9678
3.96226
3.87436
3.88315
3.89026
3.89642
3.90069
3.90299
3.90334
3.90175
3.89828
3.89305
3.88632
3.87844
3.86976
3.86055
3.85113
3.84197
3.83354
3.82631
3.82119
3.71787
3.72687
3.73435
3.74101
3.74586
3.7488
3.7498
3.74895
3.74632
3.74205
3.73635
3.7295
3.72178
3.71345
3.70485
3.69639
3.68852
3.68172
3.67705
3.55874
3.56792
3.57571
3.58281
3.58822
3.59178
3.59349
3.5934
3.59164
3.58832
3.58361
3.57774
3.57094
3.56347
3.55566
3.5479
3.54059
3.53429
3.53004
3.39724
3.4065
3.41455
3.42203
3.42795
3.43214
3.43455
3.43525
3.43436
3.43196
3.42821
3.42329
3.4174
3.4108
3.40377
3.39671
3.39004
3.38427
3.38043
3.23345
3.24281
3.25107
3.25889
3.26529
3.27006
3.27317
3.27466
3.27462
3.27313
3.27032
3.26634
3.26137
3.25562
3.2494
3.24307
3.23707
3.23184
3.22843
3.0677
3.07708
3.08551
3.09362
3.10045
3.10579
3.10957
3.11183
3.11263
3.11203
3.11015
3.1071
3.10304
3.09817
3.09277
3.0872
3.08186
3.07721
3.07423
2.90012
2.90955
2.9181
2.92646
2.93368
2.93954
2.94397
2.94697
2.94859
2.94887
2.9479
2.94578
2.94264
2.93866
2.9341
2.92931
2.92462
2.92056
2.91801
2.7311
2.74051
2.74912
2.75767
2.76523
2.77157
2.77661
2.78032
2.78273
2.78388
2.78381
2.78261
2.78039
2.77731
2.7736
2.76958
2.76558
2.7621
2.75994
2.56071
2.5703
2.57884
2.58751
2.59536
2.60214
2.60774
2.61213
2.6153
2.61728
2.6181
2.61782
2.61652
2.61434
2.61148
2.60823
2.60491
2.60201
2.60023
2.3896
2.3988
2.40744
2.41624
2.42434
2.43151
2.43763
2.44265
2.44655
2.44933
2.45101
2.45163
2.45124
2.44996
2.44795
2.44547
2.44283
2.44049
2.43906
2.21754
2.22656
2.2352
2.24408
2.25241
2.25994
2.26653
2.27214
2.27672
2.28027
2.28278
2.28427
2.28478
2.28439
2.28322
2.28151
2.27954
2.27774
2.27664
2.04507
2.05384
2.06242
2.07134
2.07982
2.08765
2.09467
2.10081
2.10602
2.11028
2.11358
2.11592
2.1173
2.11779
2.11747
2.11652
2.11522
2.11394
2.11317
1.87242
1.88102
1.8895
1.89838
1.90695
1.91499
1.92235
1.92893
1.93469
1.93961
1.94364
1.94677
1.949
1.95035
1.95087
1.95069
1.95007
1.9493
1.94883
1.70014
1.70851
1.71685
1.72562
1.7342
1.74235
1.74993
1.75685
1.76307
1.76854
1.77323
1.77711
1.78015
1.78233
1.78368
1.78426
1.7843
1.78404
1.78385
1.5286
1.53677
1.5449
1.55349
1.56196
1.5701
1.57778
1.58491
1.59146
1.59738
1.60263
1.60719
1.61099
1.61398
1.61614
1.61748
1.61815
1.61834
1.61842
1.3584
1.36625
1.37409
1.38238
1.3906
1.3986
1.40622
1.41341
1.42014
1.42638
1.43209
1.43723
1.44174
1.44552
1.44849
1.45056
1.45182
1.45243
1.45272
1.18987
1.19736
1.2048
1.21264
1.22046
1.22812
1.23551
1.24259
1.24933
1.25573
1.26177
1.2674
1.27255
1.27711
1.28088
1.2837
1.28551
1.28644
1.28691
1.02347
1.03044
1.03732
1.04455
1.05179
1.05892
1.06587
1.07263
1.07919
1.08557
1.09176
1.09776
1.10349
1.1088
1.11344
1.11703
1.11937
1.12054
1.1211
0.85938
0.865719
0.871882
0.878298
0.884737
0.891112
0.897402
0.90362
0.909783
0.915921
0.92207
0.928257
0.93446
0.940534
0.94611
0.950605
0.953479
0.954749
0.955347
0.697775
0.703294
0.708568
0.713947
0.719327
0.724702
0.730098
0.735546
0.741069
0.746712
0.752551
0.758681
0.765171
0.77195
0.77861
0.784233
0.787771
0.789067
0.78959
0.538342
0.543035
0.547298
0.551395
0.555415
0.559537
0.563829
0.568296
0.572935
0.577794
0.582985
0.588683
0.595096
0.602352
0.610175
0.617345
0.621865
0.623225
0.623704
0.380406
0.384434
0.387647
0.390254
0.392623
0.395366
0.398439
0.40177
0.4053
0.409066
0.413196
0.417918
0.42358
0.430617
0.439225
0.448495
0.454572
0.456556
0.457322
0.224282
0.227914
0.230047
0.231078
0.230325
0.231931
0.233868
0.235999
0.23825
0.240646
0.243291
0.246379
0.250258
0.25553
0.263271
0.275944
0.28395
0.287482
0.290631
0.0731364
0.0749633
0.0757118
0.0754305
0.0745847
0.0754377
0.0762884
0.0771737
0.0780496
0.0789353
0.0798678
0.0809048
0.0821607
0.0839241
0.0868553
0.0946674
0.100046
0.100719
0.107525
)
;

boundaryField
{
    leftWall
    {
        type            calculated;
        value           nonuniform List<scalar> 
50
(
4756.6
3958.99
3159.3
2357.02
1557.72
1010.25
830.959
770.671
675.452
544.867
419.672
313.461
236.722
173.336
106.495
43.4097
9.59465
4.58204
4.4388
4.3022
4.16601
4.03091
3.89547
3.75926
3.62217
3.48438
3.34605
3.2073
3.06812
2.9285
2.78842
2.64788
2.50691
2.36553
2.22378
2.08173
1.93942
1.79692
1.65432
1.5117
1.36913
1.2267
1.08449
0.942552
0.800898
0.659478
0.518136
0.37639
0.233876
0.0837582
)
;
    }
    rightWall
    {
        type            calculated;
        value           nonuniform List<scalar> 
50
(
2409.97
1803.14
1279.34
951.381
828.141
789.261
742.981
690.474
609.493
502.666
408.885
333.664
267.955
206.555
145.786
84.9947
32.8955
7.44275
4.89614
4.74142
4.6195
4.495
4.36702
4.2354
4.10034
3.96226
3.82119
3.67705
3.53004
3.38043
3.22843
3.07423
2.91801
2.75994
2.60023
2.43906
2.27664
2.11317
1.94883
1.78385
1.61842
1.45272
1.28691
1.1211
0.955347
0.78959
0.623704
0.457322
0.290631
0.107525
)
;
    }
    lowerWall
    {
        type            calculated;
        value           nonuniform List<scalar> 
62
(
5154.75
5162.83
5183.96
5218
5263.56
5319.54
5384.81
5458.01
5539.2
5627.87
5723.64
5825.9
5933.63
6045.5
6160.04
6275.55
6389.34
6497.8
6596.54
6680.78
6744.84
6785.28
6799.11
6401.18
5600.73
4804.87
4014.64
3229.8
2450.97
1679.19
995.698
729.001
731.912
691.497
676.86
2520.29
1880.32
1398.71
1126.57
990.929
878.329
784.296
711.687
2871.73
2872.66
2886.74
2911.17
2943.23
2877.22
2822.2
2813.58
2808.43
2792.38
2743.85
2693.73
2714.06
2752.45
2745.06
2739.31
2725.74
2715.14
2713.2
)
;
    }
    atmosphere
    {
        type            calculated;
        value           nonuniform List<scalar> 
46
(
-0.000398521
-0.000250792
-6.77241e-05
-3.15141e-05
-7.92998e-06
-7.4186e-07
-4.33457e-09
-8.82883e-08
-2.03861e-06
-1.11837e-05
-3.42507e-05
-7.46989e-05
-0.00011004
-7.42993e-05
-8.81808e-05
-0.000107213
-0.00012922
-0.000153326
-0.00017748
-0.000199552
-0.000217363
-0.00022985
-0.000230164
-0.000165514
-0.000152609
-0.000146308
-0.000147115
-0.000175719
-0.000149241
-0.000119733
-8.79806e-05
-0.000132845
-0.000100635
-6.67228e-05
-4.08591e-05
-2.36805e-05
-1.37013e-05
-9.26265e-06
-9.82818e-06
-1.90902e-05
-5.25042e-05
-0.000132355
-0.000191413
-0.000485797
-0.00105758
-0.00135584
)
;
    }
    defaultFaces
    {
        type            empty;
    }
}


// ************************************************************************* //
