/*--------------------------------*- C++ -*----------------------------------*\
  =========                 |
  \\      /  F ield         | OpenFOAM: The Open Source CFD Toolbox
   \\    /   O peration     | Website:  https://openfoam.org
    \\  /    A nd           | Version:  13
     \\/     M anipulation  |
\*---------------------------------------------------------------------------*/
FoamFile
{
    format      ascii;
    class       volScalarField;
    location    "2.65";
    object      p_rgh;
}
// * * * * * * * * * * * * * * * * * * * * * * * * * * * * * * * * * * * * * //

dimensions      [1 -1 -2 0 0 0 0];

internalField   nonuniform List<scalar> 
2268
(
5154.75
5162.83
5183.96
5218
5263.56
5319.54
5384.81
5458.01
5539.2
5627.87
5723.64
5825.9
5933.63
6045.5
6160.04
6275.55
6389.34
6497.8
6596.54
6680.78
6744.84
6785.28
6799.11
5153.44
5161.45
5180.66
5214.55
5260.26
5316.63
5382.5
5457.1
5539.13
5628.44
5724.72
5827.35
5935.35
6047.45
6162.44
6278.66
6393.36
6502.9
6602.76
6687.61
6751.29
6783.84
6794.99
5150.05
5159.36
5178.03
5211.41
5257.1
5313.96
5380.65
5456.02
5538.89
5629.01
5726.01
5829.27
5937.73
6050.16
6165.53
6282.25
6397.55
6507.69
6608
6692.72
6755.18
6784.44
6795.62
5144.07
5155.25
5173.66
5206.28
5252.07
5309.55
5377.28
5453.69
5537.39
5628.36
5726.28
5830.46
5939.75
6052.79
6168.49
6285.69
6401.72
6512.68
6613.72
6698.95
6761.69
6789.51
6801.69
5088.21
5083.51
5103.43
5153.58
5221.91
5296.92
5370.21
5447.61
5531.76
5623.59
5722.84
5828.71
5939.92
6054.4
6170.84
6288.81
6406.01
6518.19
6620.25
6706.45
6770.45
6798.53
6813.15
2642.77
2709.83
2779.92
2928.88
3167.13
3484.89
3876
4295.79
4663
5016.98
5350.87
5649.36
5896.33
6049.01
6168.74
6290.14
6410.7
6525.47
6628.44
6715.35
6780.56
6810.31
6830.37
1213.54
1216.66
1219.69
1222.41
1224.46
1226.61
1231.26
1272.14
1446.97
1708.07
2064.64
2541.23
3160.04
3957.27
4772.72
5481.43
6057.6
6482.16
6640.22
6732.27
6799.07
6828.69
6852.2
1212.11
1215.08
1217.94
1220.5
1222.18
1223.06
1223.35
1223.29
1222.29
1220.79
1218.78
1216.1
1212.86
1237.78
1379.85
1750.34
2337.76
3101.76
4098.22
4923.2
5423.27
5561.69
5562.05
2871.73
2872.66
2886.74
2911.17
2943.23
2877.22
2822.2
2813.58
2808.43
2792.38
2743.85
2693.73
2714.06
2752.45
2745.06
2739.31
2725.74
2715.14
2713.2
2724.41
2776.2
2820.68
2864.7
2920.34
2954.38
2946.64
2933.7
2916.59
2899.38
2845.32
2742.86
2763.34
2747.26
2739.14
2732.23
2722.06
2713.92
2712.85
2329.2
2264.28
2263.61
2255.73
2399.31
2585.91
2648.1
2645.31
2587.91
2636.62
2573.41
2599.24
2559.16
2506.56
2525.94
2565.48
2499.01
2415.33
2378.04
1659.39
1659.56
1674.74
1668.23
1587.95
1522.65
1599.27
1531.19
1498.84
1428.1
1682.71
1747.38
1700.86
1585.88
1490.08
1335.13
1388.1
1525.95
1696.12
1470.42
1515.25
1539.93
1618.29
1437.46
1241.85
1231.36
1246.47
1284.03
1177.43
1029.5
1181.83
1271.86
1137.75
1010.13
1058.4
1070.77
1077.93
967.121
1491.89
1445.2
1530.92
1540.06
1558.47
1320.23
1280.59
1292.19
1325.83
1197.85
1140.25
970.094
856.069
949.416
1098.69
1139.07
1135.02
1120.98
998.944
1257.51
1315.14
1320.79
1362.57
1489.91
1455.58
1414.26
1453.61
1291.75
1181.91
1142.79
1129.65
856.295
986.299
1139.74
1138.66
1134.72
1123.27
1035.96
1236.41
1209.54
1185.01
1154.22
1223.52
1432.37
1449.71
1356.13
1127.93
1142.79
1142.98
1136.26
926.305
1049.15
1142.36
1139.73
1135.88
1123.97
1041.58
1208.92
1212.2
1215.4
1218.12
1220.04
1221.09
1221.32
1220.85
1219.53
1217.38
1214.45
1210.84
1206.89
1202.91
1198.65
1192.67
1184.09
1173.12
1163.49
1200.24
1266.31
1292.19
1351.96
1197.73
1204.88
1210.55
1214.24
1216.96
1218.37
1218.75
1218.24
1217.04
1215.15
1212.54
1209.2
1205.23
1200.72
1195.52
1189.03
1180.95
1171.67
1162.02
1150.9
1138.43
1121.5
1103.61
1115.69
1173.17
1204.99
1210.23
1214
1215.96
1214.12
1212.99
1213.05
1212.6
1210.63
1207.34
1201.26
1194.76
1190.72
1188.35
1181.73
1172.56
1160.61
1141.56
1102.4
1049.58
978.626
941.455
940.475
966.772
993.507
1040.28
1086.38
1076.57
1069.07
1070.02
1067.79
1062.57
1047.33
1025.05
1012.42
1006.85
993.355
965.653
923.838
880.041
843.016
804.248
758.903
687.984
699.488
751.903
753.696
753.288
750.684
709.56
717.162
710.834
696.336
688.957
675.376
681.757
698.409
699.117
683.995
667.438
678.102
719.434
725.958
724.546
729.123
723.025
700.332
752.928
752.102
751.778
752.034
733.025
722.282
744.464
753.644
747.308
741.467
745.963
747.84
747.859
746.551
742.97
740.857
740.419
737.493
735.46
734.153
732.608
733.036
736.437
748.68
748.818
749.122
750.232
751.687
752.92
753.396
753.771
753.965
753.673
752.762
751.342
749.554
747.566
745.449
743.113
740.525
738.171
736.361
735.116
734.522
734.725
735.687
656.179
663.583
687.653
701.122
712.012
711.047
717.816
728.654
731.122
729.689
725.876
719.693
711.16
701.191
689.782
675.327
658.436
641.561
626.766
615.277
608.433
608.479
615.327
130.364
120.952
155.3
187.382
213.805
241.375
253.428
249.604
244.695
238.531
227.31
209.928
189.924
169.849
150.004
130.229
111.657
95.8357
83.2843
74.0687
68.8038
68.1215
73.236
6.24911
6.24299
6.21033
6.17723
6.15538
6.15429
6.17126
6.19649
6.21576
6.23329
6.25385
6.28078
6.31112
6.34255
6.37511
6.40962
6.44773
6.48874
6.52945
6.56684
6.59953
6.62713
6.64814
6.22539
6.22581
6.22203
6.21524
6.21213
6.21501
6.22358
6.23671
6.25149
6.26771
6.28687
6.30963
6.3355
6.36378
6.39381
6.42524
6.45771
6.49063
6.52351
6.5559
6.58765
6.61736
6.64651
6.21515
6.21613
6.21495
6.20656
6.20386
6.20915
6.22265
6.24684
6.26254
6.26831
6.28547
6.30789
6.33308
6.36044
6.38954
6.41985
6.45112
6.48304
6.5151
6.54664
6.57696
6.60425
6.63052
6.20476
6.2115
6.2331
6.21617
6.19559
6.20264
6.25503
6.39685
6.40734
6.28251
6.28399
6.30482
6.32953
6.35592
6.3835
6.41207
6.44148
6.47164
6.50204
6.532
6.56085
6.58698
6.61255
6.19426
6.21681
6.24951
6.24861
6.19927
6.19732
6.31043
6.39779
6.41656
6.42729
6.29147
6.30461
6.32533
6.35003
6.376
6.40247
6.43072
6.45969
6.48895
6.51793
6.54603
6.57197
6.59815
6.18373
6.19741
6.24079
6.24245
6.19186
6.18849
6.21883
6.37824
6.41262
6.43367
6.30407
6.29502
6.31889
6.34387
6.36703
6.39003
6.41773
6.44611
6.47481
6.50334
6.53115
6.55701
6.58332
6.17211
6.17287
6.19196
6.19347
6.17367
6.17934
6.1886
6.21506
6.29342
6.3105
6.25936
6.2818
6.30659
6.33092
6.35242
6.37513
6.40213
6.42978
6.45789
6.48594
6.51339
6.53906
6.56516
6.16
6.15834
6.15726
6.15913
6.16315
6.16985
6.17875
6.18978
6.20317
6.22036
6.24079
6.26344
6.289
6.31228
6.33288
6.35815
6.3843
6.41107
6.43837
6.46582
6.49278
6.51809
6.54388
6.1472
6.14587
6.14541
6.14771
6.1525
6.15939
6.16831
6.17936
6.1928
6.209
6.22774
6.24866
6.27056
6.29217
6.3149
6.3393
6.36444
6.3903
6.41676
6.44346
6.4698
6.49462
6.51992
6.13384
6.1333
6.13387
6.13635
6.1411
6.14788
6.15666
6.16749
6.18042
6.19562
6.21305
6.23262
6.25312
6.27405
6.29576
6.31894
6.343
6.36786
6.3934
6.41925
6.44483
6.46899
6.49374
6.11994
6.1203
6.12142
6.12411
6.12877
6.13536
6.14386
6.15428
6.16664
6.18096
6.19715
6.21518
6.23455
6.25427
6.27523
6.29728
6.32021
6.34401
6.36854
6.39342
6.41814
6.44154
6.46554
6.10583
6.10661
6.10813
6.11101
6.11558
6.12192
6.13004
6.13997
6.15168
6.16514
6.18025
6.19688
6.21473
6.23366
6.2536
6.27448
6.29625
6.3189
6.34234
6.36619
6.38994
6.41248
6.4357
6.09128
6.09231
6.0941
6.09708
6.10155
6.10761
6.11534
6.12472
6.13573
6.14833
6.16242
6.17786
6.19451
6.21227
6.23102
6.25068
6.27124
6.29269
6.31495
6.33767
6.36037
6.38198
6.40427
6.07634
6.07743
6.07936
6.08237
6.08669
6.09248
6.09978
6.1086
6.11891
6.13066
6.14376
6.15809
6.17358
6.19012
6.20762
6.22602
6.24531
6.2655
6.28651
6.30801
6.32953
6.35007
6.37138
6.06097
6.06205
6.064
6.06695
6.0711
6.07657
6.08342
6.09166
6.10127
6.11218
6.12432
6.13759
6.15193
6.16727
6.18351
6.20062
6.21859
6.23746
6.25713
6.2773
6.29755
6.31692
6.33703
6.04518
6.04619
6.04808
6.05092
6.05485
6.05998
6.06637
6.07401
6.08289
6.09297
6.10416
6.1164
6.1296
6.14373
6.15872
6.17453
6.19117
6.20866
6.22694
6.24573
6.26461
6.28269
6.30165
6.02898
6.0299
6.03168
6.03437
6.03805
6.04282
6.04871
6.05575
6.0639
6.07313
6.08338
6.09457
6.10665
6.11958
6.1333
6.1478
6.16309
6.17918
6.19604
6.21339
6.23086
6.24755
6.26544
6.01241
6.01323
6.01489
6.01738
6.02078
6.02516
6.03055
6.03697
6.04439
6.05277
6.06207
6.07223
6.08319
6.09491
6.10737
6.12054
6.13444
6.14911
6.1645
6.1804
6.19645
6.21189
6.22818
5.99553
5.99627
5.99778
6.00005
6.00314
6.00711
6.01199
6.01777
6.02445
6.032
6.04036
6.04949
6.05933
6.06985
6.08103
6.09287
6.10537
6.1186
6.1325
6.14689
6.16146
6.17552
6.19025
5.97841
5.97907
5.98043
5.98246
5.98522
5.98876
5.99311
5.99826
6.0042
6.01091
6.01834
6.02645
6.03518
6.04452
6.05443
6.06493
6.07604
6.0878
6.1002
6.11307
6.12613
6.13874
6.15204
5.96109
5.9617
5.96291
5.96469
5.96711
5.9702
5.974
5.97851
5.98372
5.9896
5.99611
6.00321
6.01086
6.01903
6.02769
6.03687
6.04659
6.05689
6.06779
6.07911
6.09065
6.10184
6.11364
5.94368
5.94425
5.94531
5.94683
5.94887
5.9515
5.95474
5.95861
5.96309
5.96816
5.97377
5.97989
5.98648
5.9935
6.00094
6.00882
6.01717
6.02603
6.03542
6.04522
6.05521
6.06494
6.0753
5.92623
5.92679
5.92769
5.92894
5.93059
5.93274
5.93542
5.93864
5.94241
5.94668
5.95142
5.95659
5.96215
5.96806
5.97431
5.98093
5.98794
5.9954
6.00332
6.01159
6.02006
6.02832
6.0371
5.90885
5.9094
5.91015
5.9111
5.91235
5.914
5.9161
5.91868
5.92173
5.92523
5.92914
5.93339
5.93797
5.94282
5.94794
5.95336
5.9591
5.96521
5.9717
5.9785
5.98548
5.99229
5.9996
5.89161
5.89217
5.89277
5.8934
5.89421
5.89532
5.89682
5.89876
5.90113
5.90388
5.90699
5.91039
5.91404
5.9179
5.92197
5.92626
5.93081
5.93565
5.94081
5.94622
5.9518
5.95727
5.96313
5.87458
5.87518
5.87562
5.8759
5.8762
5.87674
5.87763
5.87892
5.88061
5.88267
5.88503
5.88764
5.89045
5.89342
5.89653
5.89981
5.90326
5.90695
5.91089
5.91503
5.91931
5.92352
5.9281
5.85783
5.8585
5.85877
5.85863
5.85835
5.85825
5.85848
5.85913
5.86018
5.86159
5.86328
5.8652
5.86728
5.86947
5.87175
5.87412
5.87663
5.8793
5.88215
5.88515
5.88827
5.89134
5.89468
5.84137
5.84216
5.84224
5.84157
5.84059
5.83976
5.83931
5.83933
5.83978
5.84061
5.84173
5.84309
5.84458
5.84612
5.84771
5.84934
5.85103
5.85281
5.85472
5.85675
5.85886
5.86094
5.86325
5.82514
5.82613
5.82595
5.82456
5.82271
5.82107
5.81993
5.81937
5.8193
5.81965
5.82032
5.82127
5.82235
5.82342
5.82446
5.82548
5.82649
5.82755
5.82867
5.82987
5.83114
5.83241
5.83384
5.809
5.81019
5.80959
5.80714
5.80424
5.80179
5.80006
5.79904
5.79859
5.79858
5.79894
5.79963
5.8005
5.80129
5.80191
5.80244
5.80291
5.80337
5.80386
5.80439
5.80496
5.80553
5.80621
5.79244
5.79362
5.79216
5.78813
5.78426
5.78133
5.77938
5.7782
5.77758
5.77738
5.77756
5.77812
5.77896
5.77947
5.77964
5.7797
5.77971
5.77971
5.77973
5.77975
5.77976
5.77971
5.77952
5.77512
5.7748
5.77162
5.7651
5.76142
5.7591
5.75769
5.75686
5.75643
5.75627
5.75639
5.75691
5.75785
5.75854
5.75775
5.75726
5.75688
5.75658
5.75632
5.75605
5.75571
5.75523
5.75413
5.7502
5.74639
5.74315
5.73918
5.73847
5.73813
5.73798
5.73795
5.73798
5.73807
5.73824
5.7387
5.73962
5.74033
5.73837
5.73754
5.73716
5.7369
5.7367
5.7365
5.73627
5.73594
5.73512
1584.42
1598.72
1276.83
1163.91
1100.38
1108.75
1117.12
1119.85
934.635
947.771
995.864
1007.81
667.754
669.555
672.379
695.432
708.683
730.51
740.987
742.479
737.73
738.234
738.804
739.739
736.787
737.545
738.292
739.025
634.298
643.034
651.834
660.56
90.3245
98.7301
106.593
113.246
6.65716
6.66966
6.69272
6.7203
6.68405
6.71775
6.75465
6.78437
6.66482
6.69918
6.73689
6.76773
6.64865
6.68541
6.72485
6.75534
6.63696
6.67516
6.71538
6.74531
6.62245
6.66091
6.70138
6.73128
6.60395
6.64227
6.68279
6.71282
6.58212
6.62013
6.6606
6.69064
6.55757
6.59511
6.63521
6.66515
6.53056
6.56746
6.6071
6.63673
6.50143
6.53749
6.57632
6.60557
6.47043
6.50546
6.54342
6.57203
6.4378
6.47166
6.50835
6.53619
6.40343
6.43591
6.47133
6.49824
6.36746
6.3984
6.43224
6.45823
6.33022
6.35947
6.39176
6.41663
6.29215
6.31958
6.34996
6.37361
6.25299
6.27861
6.30719
6.32947
6.21308
6.23677
6.26332
6.28436
6.17272
6.1944
6.21899
6.23858
6.1323
6.15193
6.17427
6.19235
6.09179
6.10933
6.12958
6.14609
6.05142
6.06686
6.08487
6.09996
6.0117
6.02505
6.04106
6.05469
5.97323
5.9846
5.99848
6.01069
5.93625
5.94575
5.95775
5.96852
5.90106
5.90882
5.91891
5.92836
5.86801
5.87417
5.8826
5.89069
5.8373
5.84206
5.8488
5.85556
5.80853
5.81202
5.81729
5.82271
5.78064
5.78287
5.7867
5.79102
5.75286
5.75353
5.75604
5.75966
5.73339
5.73316
5.73402
5.73584
1159.7
1226.45
1214.39
1117.76
1071.3
1211.2
1204.65
1108.66
1126.65
1135.47
1141.44
1147.52
1147.37
1151.66
1146.91
1142.8
1140.41
1106.01
1044.19
1129.72
1160.37
1144.29
1041.36
1078.07
1053.11
1009.55
1035.63
1104.64
1124.75
1138.66
1145.88
1155.09
1153.52
1139.74
1109.18
1070.01
1057.41
1047.83
879.512
830.991
886.716
941.09
899.646
774.399
853.119
866.885
851.637
861.75
880.381
917.37
971.256
962.109
920.698
874.612
861.689
882.222
923.362
702.848
697.99
713.285
751.591
740.643
701.86
687.538
687.696
746.73
760.957
763.255
765.654
768.223
771.454
776.108
781.51
785.907
815.981
840.19
745.573
745.997
747.2
748.224
751.05
745.947
730.571
743.117
757.325
760.67
763.319
766.114
769.211
772.614
776.588
780.795
783.877
785.011
785.357
741.538
743.971
745.744
747.446
749.933
752.918
755.284
756.925
758.368
760.561
763.315
766.437
769.892
773.585
777.41
781.077
783.836
785.176
786.507
740.302
742.303
744.273
746.297
748.599
751.185
753.517
755.566
757.586
760.087
763.093
766.655
770.709
774.863
778.681
782.49
785.534
787.219
788.173
670.81
691.293
706.159
716.406
724.335
730.417
734.22
736.287
736.457
735.919
738.029
749.312
766.02
774.424
783.16
808.38
828.603
827.148
804.691
118.757
139.561
159.014
173.533
183.872
189.716
189.277
183.646
179.842
186.255
201.345
227.073
271.714
344.698
404.927
469.293
527.184
588.507
601.138
6.75488
6.75558
6.76824
6.80743
6.85592
6.89038
6.91394
6.93969
7.04687
7.10042
8.18453
9.03603
9.06696
10.6807
31.4319
55.5875
75.2753
77.7742
71.6597
6.81178
6.82875
6.84665
7.02752
7.31992
7.45582
7.42972
7.12048
7.07732
7.10813
7.35801
8.01539
8.28719
9.32402
7.41325
7.01321
8.8624
7.59848
7.38514
6.79693
6.80941
6.8214
7.151
7.76622
7.76845
7.58839
6.90263
6.83448
6.8978
7.5318
7.698
7.62522
6.97048
6.69653
6.67326
6.65262
6.64674
6.6521
6.78211
6.79171
6.79777
6.79807
6.8153
6.9035
6.79793
6.80487
6.80375
6.8165
6.93203
7.13239
6.86089
6.77642
6.70041
6.67951
6.66354
6.65527
6.65541
6.76992
6.77831
6.78378
6.786
6.78566
6.78575
6.78875
6.79158
6.78742
6.77811
6.76411
6.74737
6.73386
6.71855
6.70082
6.68393
6.66934
6.65973
6.65639
6.75562
6.76366
6.76936
6.77287
6.77406
6.77443
6.77453
6.77307
6.76818
6.75937
6.74693
6.73322
6.72034
6.70706
6.69344
6.67979
6.66751
6.65854
6.65366
6.73733
6.74536
6.75132
6.75575
6.75798
6.75868
6.75805
6.75554
6.75031
6.74227
6.73163
6.71981
6.70793
6.69575
6.68346
6.67143
6.6607
6.65251
6.64716
6.71527
6.7235
6.72979
6.73485
6.73789
6.73908
6.73849
6.73589
6.73098
6.72381
6.71472
6.70444
6.69367
6.68249
6.67117
6.66028
6.65057
6.64272
6.63705
6.68987
6.69836
6.70505
6.71067
6.71433
6.71604
6.71584
6.71365
6.70939
6.70319
6.69535
6.68638
6.67669
6.66651
6.65618
6.64622
6.63719
6.62961
6.62407
6.66135
6.67014
6.67725
6.68341
6.68768
6.68998
6.69033
6.68875
6.68528
6.68006
6.67333
6.66546
6.65677
6.64756
6.63813
6.62896
6.62053
6.6133
6.60818
6.63005
6.63904
6.64653
6.65318
6.65804
6.66097
6.66198
6.66113
6.6585
6.65423
6.64854
6.64169
6.63396
6.62563
6.61703
6.60858
6.6007
6.59391
6.58924
6.5961
6.60529
6.61308
6.62017
6.62558
6.62915
6.63085
6.63077
6.62901
6.62569
6.62098
6.61511
6.60831
6.60084
6.59303
6.58527
6.57797
6.57169
6.56745
6.5598
6.56906
6.5771
6.58458
6.59051
6.59469
6.5971
6.59781
6.59692
6.59452
6.59077
6.58585
6.57996
6.57336
6.56634
6.55928
6.55262
6.54688
6.54305
6.5212
6.53056
6.53882
6.54664
6.55304
6.55781
6.56092
6.56241
6.56237
6.56088
6.55807
6.55409
6.54912
6.54338
6.53716
6.53083
6.52485
6.51968
6.51631
6.48064
6.49002
6.49845
6.50656
6.51339
6.51873
6.52251
6.52477
6.52557
6.52497
6.52309
6.52004
6.51598
6.51112
6.50572
6.50016
6.49484
6.49028
6.48731
6.43826
6.44769
6.45624
6.4646
6.47182
6.47768
6.4821
6.48511
6.48672
6.48701
6.48604
6.48392
6.48078
6.4768
6.47224
6.46746
6.46281
6.45884
6.45629
6.39444
6.40384
6.41245
6.421
6.42856
6.43491
6.43994
6.44365
6.44606
6.44721
6.44714
6.44594
6.44373
6.44065
6.43694
6.43293
6.42896
6.42559
6.42341
6.34924
6.35882
6.36736
6.37603
6.38388
6.39067
6.39626
6.40066
6.40383
6.40581
6.40663
6.40635
6.40505
6.40287
6.40001
6.39677
6.3935
6.39071
6.38885
6.30332
6.31252
6.32116
6.32996
6.33806
6.34523
6.35135
6.35637
6.36027
6.36305
6.36473
6.36535
6.36496
6.36368
6.36168
6.3592
6.35663
6.3544
6.35286
6.25646
6.26547
6.27412
6.283
6.29132
6.29885
6.30545
6.31105
6.31564
6.31918
6.32169
6.32318
6.3237
6.3233
6.32214
6.32044
6.31854
6.31684
6.31563
6.20918
6.21795
6.22653
6.23544
6.24393
6.25176
6.25878
6.26492
6.27013
6.27439
6.27769
6.28003
6.28141
6.2819
6.28159
6.28065
6.27942
6.27825
6.27731
6.16172
6.17032
6.1788
6.18768
6.19625
6.20429
6.21165
6.21823
6.224
6.22891
6.23294
6.23608
6.23831
6.23966
6.24018
6.24002
6.23946
6.23872
6.23817
6.11464
6.123
6.13134
6.14012
6.14869
6.15685
6.16443
6.17135
6.17757
6.18304
6.18773
6.19161
6.19465
6.19684
6.19819
6.19879
6.19887
6.19863
6.19836
6.06829
6.07646
6.0846
6.09318
6.10165
6.1098
6.11747
6.1246
6.13115
6.13707
6.14233
6.14688
6.15068
6.15368
6.15584
6.1572
6.1579
6.15805
6.15812
6.02329
6.03114
6.03898
6.04727
6.05549
6.06348
6.0711
6.07829
6.08502
6.09126
6.09698
6.10212
6.10663
6.11041
6.11338
6.11547
6.11674
6.11734
6.11761
5.97996
5.98744
5.99488
6.00272
6.01054
6.01821
6.02559
6.03267
6.03941
6.04581
6.05185
6.05748
6.06264
6.06719
6.07097
6.07381
6.07562
6.07653
6.077
5.93875
5.94571
5.9526
5.95983
5.96707
5.9742
5.98115
5.9879
5.99447
6.00085
6.00704
6.01304
6.01877
6.02409
6.02872
6.03232
6.03466
6.03582
6.03638
5.89985
5.90619
5.91235
5.91877
5.92521
5.93158
5.93787
5.94409
5.95025
5.95639
5.96254
5.96873
5.97493
5.98101
5.98659
5.99109
5.99396
5.99522
5.99582
5.86344
5.86896
5.87423
5.87961
5.88499
5.89037
5.89576
5.90121
5.90673
5.91238
5.91822
5.92435
5.93084
5.93762
5.94428
5.94991
5.95344
5.95473
5.95525
5.8292
5.83389
5.83816
5.84225
5.84627
5.8504
5.85469
5.85916
5.86379
5.86865
5.87384
5.87954
5.88596
5.89321
5.90104
5.90821
5.91273
5.91409
5.91456
5.79646
5.80049
5.8037
5.80631
5.80868
5.81142
5.81449
5.81782
5.82135
5.82512
5.82925
5.83397
5.83964
5.84667
5.85528
5.86455
5.87063
5.87261
5.87338
5.76553
5.76916
5.7713
5.77233
5.77157
5.77318
5.77512
5.77725
5.7795
5.78189
5.78454
5.78763
5.79151
5.79678
5.80452
5.81719
5.8252
5.82873
5.83188
5.73958
5.74141
5.74215
5.74187
5.74103
5.74188
5.74273
5.74362
5.74449
5.74538
5.74631
5.74735
5.7486
5.75037
5.7533
5.76111
5.76649
5.76716
5.77397
)
;

boundaryField
{
    leftWall
    {
        type            fixedFluxPressure;
        gradient        uniform 0;
        value           nonuniform List<scalar> 
50
(
5154.75
5153.44
5150.05
5144.07
5088.21
2642.77
1213.54
1212.11
1208.92
1197.73
1115.69
941.455
699.488
752.928
748.68
656.179
130.364
6.24911
6.22539
6.21515
6.20476
6.19426
6.18373
6.17211
6.16
6.1472
6.13384
6.11994
6.10583
6.09128
6.07634
6.06097
6.04518
6.02898
6.01241
5.99553
5.97841
5.96109
5.94368
5.92623
5.90885
5.89161
5.87458
5.85783
5.84137
5.82514
5.809
5.79244
5.77512
5.7502
)
;
    }
    rightWall
    {
        type            fixedFluxPressure;
        gradient        uniform 0;
        value           nonuniform List<scalar> 
50
(
2713.2
2712.85
2378.04
1696.12
967.121
998.944
1035.96
1041.58
1044.19
1047.83
923.362
840.19
785.357
786.507
788.173
804.691
601.138
71.6597
7.38514
6.6521
6.65541
6.65639
6.65366
6.64716
6.63705
6.62407
6.60818
6.58924
6.56745
6.54305
6.51631
6.48731
6.45629
6.42341
6.38885
6.35286
6.31563
6.27731
6.23817
6.19836
6.15812
6.11761
6.077
6.03638
5.99582
5.95525
5.91456
5.87338
5.83188
5.77397
)
;
    }
    lowerWall
    {
        type            fixedFluxPressure;
        gradient        uniform 0;
        value           nonuniform List<scalar> 
62
(
5154.75
5162.83
5183.96
5218
5263.56
5319.54
5384.81
5458.01
5539.2
5627.87
5723.64
5825.9
5933.63
6045.5
6160.04
6275.55
6389.34
6497.8
6596.54
6680.78
6744.84
6785.28
6799.11
6799.11
6794.99
6795.62
6801.69
6813.15
6830.37
6852.2
5562.05
1584.42
1598.72
1276.83
1163.91
2871.73
2724.41
2329.2
1659.39
1470.42
1491.89
1257.51
1236.41
2871.73
2872.66
2886.74
2911.17
2943.23
2877.22
2822.2
2813.58
2808.43
2792.38
2743.85
2693.73
2714.06
2752.45
2745.06
2739.31
2725.74
2715.14
2713.2
)
;
    }
    atmosphere
    {
        type            prghTotalPressure;
        rho             rho;
        psi             none;
        gamma           1;
        p0              uniform 0;
        value           nonuniform List<scalar> 
46
(
5.72864
5.72879
5.72897
5.72901
5.72903
5.72904
5.72904
5.72904
5.72904
5.72903
5.72901
5.72897
5.72893
5.72897
5.72895
5.72893
5.72891
5.72889
5.72886
5.72884
5.72882
5.72881
5.72881
5.72887
5.72889
5.72889
5.72889
5.72886
5.72889
5.72892
5.72895
5.72891
5.72894
5.72897
5.729
5.72902
5.72903
5.72903
5.72903
5.72902
5.72899
5.72891
5.72885
5.72855
5.72798
5.72768
)
;
        rho             rho;
    }
    defaultFaces
    {
        type            empty;
    }
}


// ************************************************************************* //
