/*--------------------------------*- C++ -*----------------------------------*\
  =========                 |
  \\      /  F ield         | OpenFOAM: The Open Source CFD Toolbox
   \\    /   O peration     | Website:  https://openfoam.org
    \\  /    A nd           | Version:  13
     \\/     M anipulation  |
\*---------------------------------------------------------------------------*/
FoamFile
{
    format      ascii;
    class       surfaceScalarField;
    location    "2.65";
    object      phi;
}
// * * * * * * * * * * * * * * * * * * * * * * * * * * * * * * * * * * * * * //

dimensions      [0 3 -1 0 0 0 0];

internalField   nonuniform List<scalar> 
4432
(
-9.99713e-07
9.99722e-07
-1.27626e-06
2.76555e-07
-1.24867e-06
-2.75881e-08
-1.17936e-06
-6.92978e-08
-1.13516e-06
-4.42024e-08
-1.13084e-06
-4.32254e-09
-1.16463e-06
3.37867e-08
-1.24545e-06
8.08092e-08
-1.37928e-06
1.3383e-07
-1.55477e-06
1.75477e-07
-1.75435e-06
1.99566e-07
-1.95917e-06
2.04805e-07
-2.15366e-06
1.94465e-07
-2.33321e-06
1.79533e-07
-2.5146e-06
1.8137e-07
-2.70487e-06
1.90254e-07
-2.89787e-06
1.92981e-07
-3.10223e-06
2.04349e-07
-3.3218e-06
2.19576e-07
-3.49365e-06
1.71854e-07
-3.4102e-06
-8.34269e-08
-2.57641e-06
-8.33767e-07
-2.57637e-06
-5.12986e-07
1.51273e-06
-6.23808e-07
3.87394e-07
-6.97841e-07
4.64579e-08
-7.6068e-07
-6.44729e-09
-8.27097e-07
2.22252e-08
-9.06417e-07
7.50064e-08
-1.00933e-06
1.36711e-07
-1.14707e-06
2.18556e-07
-1.33169e-06
3.18456e-07
-1.55799e-06
4.01771e-07
-1.81114e-06
4.52713e-07
-2.07229e-06
4.65939e-07
-2.32218e-06
4.44338e-07
-2.55135e-06
4.0867e-07
-2.75941e-06
3.89403e-07
-2.93292e-06
3.63721e-07
-3.05253e-06
3.1255e-07
-3.1005e-06
2.52282e-07
-3.07181e-06
1.90851e-07
-2.93021e-06
3.02196e-08
-2.56436e-06
-4.49299e-07
-1.81549e-06
-1.58265e-06
-4.39193e-06
-1.24648e-07
1.63739e-06
-2.21648e-07
4.84404e-07
-3.65379e-07
1.90195e-07
-5.04499e-07
1.32678e-07
-6.29566e-07
1.47297e-07
-7.51984e-07
1.9743e-07
-8.88365e-07
2.73096e-07
-1.05515e-06
3.85351e-07
-1.2661e-06
5.29408e-07
-1.51834e-06
6.54012e-07
-1.7993e-06
7.33684e-07
-2.09087e-06
7.57507e-07
-2.37265e-06
7.2612e-07
-2.63097e-06
6.66999e-07
-2.8555e-06
6.13937e-07
-3.02225e-06
5.30473e-07
-3.09885e-06
3.89155e-07
-3.05955e-06
2.12983e-07
-2.89354e-06
2.48533e-08
-2.57957e-06
-2.83738e-07
-2.08641e-06
-9.42438e-07
-1.34804e-06
-2.32101e-06
-5.7399e-06
1.98043e-07
1.43936e-06
7.18558e-08
6.10599e-07
-1.30241e-07
3.92299e-07
-3.14926e-07
3.17369e-07
-4.71356e-07
3.03733e-07
-6.16898e-07
3.42979e-07
-7.72928e-07
4.29134e-07
-9.57958e-07
5.70392e-07
-1.18555e-06
7.57013e-07
-1.45303e-06
9.21508e-07
-1.75029e-06
1.03096e-06
-2.06093e-06
1.06817e-06
-2.36333e-06
1.02854e-06
-2.63923e-06
9.42925e-07
-2.87356e-06
8.48283e-07
-3.03391e-06
6.90828e-07
-3.0793e-06
4.34541e-07
-2.97971e-06
1.1337e-07
-2.72464e-06
-2.30254e-07
-2.3077e-06
-7.00719e-07
-1.73689e-06
-1.5133e-06
-1.00552e-06
-3.05244e-06
-6.74559e-06
4.00942e-07
1.03841e-06
2.53939e-07
7.57589e-07
3.25022e-08
6.13725e-07
-1.65117e-07
5.1498e-07
-3.31403e-07
4.70012e-07
-4.86696e-07
4.98265e-07
-6.53514e-07
5.95941e-07
-8.49529e-07
7.66393e-07
-1.08682e-06
9.94292e-07
-1.35965e-06
1.19432e-06
-1.66262e-06
1.33393e-06
-1.98212e-06
1.38766e-06
-2.29618e-06
1.3426e-06
-2.58281e-06
1.22956e-06
-2.81954e-06
1.08502e-06
-2.96748e-06
8.38782e-07
-2.98307e-06
4.50136e-07
-2.83508e-06
-3.46231e-08
-2.51603e-06
-5.49306e-07
-2.03259e-06
-1.18418e-06
-1.41845e-06
-2.12747e-06
-7.19736e-07
-3.75122e-06
-7.46531e-06
3.87677e-07
6.50734e-07
3.01826e-07
8.43427e-07
1.36364e-07
7.79177e-07
-2.46659e-08
6.76003e-07
-1.66051e-07
6.11391e-07
-3.10246e-07
6.42454e-07
-4.85429e-07
7.71117e-07
-7.11967e-07
9.92918e-07
-9.58138e-07
1.24045e-06
-1.22944e-06
1.4656e-06
-1.52932e-06
1.63377e-06
-1.84958e-06
1.70789e-06
-2.17278e-06
1.66576e-06
-2.45732e-06
1.51407e-06
-2.67989e-06
1.30758e-06
-2.80398e-06
9.62861e-07
-2.78652e-06
4.32672e-07
-2.59751e-06
-2.23636e-07
-2.23064e-06
-9.162e-07
-1.69739e-06
-1.71745e-06
-1.05475e-06
-2.77015e-06
-3.95518e-07
-4.41051e-06
-7.86096e-06
3.14601e-07
3.36133e-07
3.64912e-07
7.93109e-07
3.74393e-07
7.69691e-07
3.21994e-07
7.28401e-07
2.23805e-07
7.09581e-07
7.49964e-08
7.91264e-07
-1.55165e-07
1.00127e-06
-4.62369e-07
1.30011e-06
-7.34592e-07
1.51265e-06
-1.01066e-06
1.74164e-06
-1.30516e-06
1.92824e-06
-1.61323e-06
2.01593e-06
-1.93068e-06
1.98318e-06
-2.20682e-06
1.7902e-06
-2.41337e-06
1.5141e-06
-2.50094e-06
1.05039e-06
-2.4436e-06
3.75308e-07
-2.23769e-06
-4.29563e-07
-1.8234e-06
-1.33049e-06
-1.23659e-06
-2.30425e-06
-5.50654e-07
-3.45606e-06
9.81133e-08
-5.05923e-06
-7.76278e-06
3.75088e-07
-3.89447e-08
6.94932e-07
4.73278e-07
9.78305e-07
4.86328e-07
1.18733e-06
5.19386e-07
1.31095e-06
5.85976e-07
1.33713e-06
7.65085e-07
1.23657e-06
1.10184e-06
1.00645e-06
1.53024e-06
6.46017e-07
1.87308e-06
2.28674e-07
2.15899e-06
-2.18642e-07
2.37556e-06
-6.81854e-07
2.47915e-06
-1.1426e-06
2.44392e-06
-1.56565e-06
2.21323e-06
-1.85597e-06
1.80439e-06
-1.93766e-06
1.13205e-06
-1.84059e-06
2.78209e-07
-1.59824e-06
-6.71928e-07
-1.14992e-06
-1.7788e-06
-5.40848e-07
-2.91328e-06
1.73054e-07
-4.16988e-06
7.72467e-07
-5.65851e-06
-6.99027e-06
-4.41964e-06
4.41966e-06
-8.10848e-06
3.68884e-06
-1.00873e-05
1.9788e-06
-1.05559e-05
4.68633e-07
-9.18562e-06
-1.3703e-06
-7.57812e-06
-1.60752e-06
-7.01352e-06
-5.64624e-07
-5.85204e-06
-1.16151e-06
-4.19019e-06
-1.66188e-06
-2.46375e-06
-1.72646e-06
-1.57487e-06
-8.88906e-07
-2.5217e-06
9.46804e-07
-2.57729e-06
5.55622e-08
-1.64954e-06
-9.27765e-07
-1.37944e-06
-2.70123e-07
-8.20385e-07
-5.59073e-07
-3.3257e-07
-4.87835e-07
1.64806e-07
-4.97398e-07
1.64788e-07
-4.28928e-06
8.70894e-06
-7.27195e-06
6.67149e-06
-8.57217e-06
3.279e-06
-8.76322e-06
6.59675e-07
-8.40034e-06
-1.73322e-06
-7.51985e-06
-2.48802e-06
-6.08952e-06
-1.99497e-06
-4.76893e-06
-2.48211e-06
-3.78157e-06
-2.64925e-06
-3.10355e-06
-2.40449e-06
-2.6232e-06
-1.36928e-06
-1.80111e-06
1.24682e-07
-1.25566e-06
-4.89906e-07
-1.39455e-06
-7.88894e-07
-1.38274e-06
-2.81952e-07
-1.15078e-06
-7.91048e-07
-9.5583e-07
-6.828e-07
-7.77629e-07
-6.75621e-07
-6.12866e-07
-3.78477e-06
1.24937e-05
-5.89066e-06
8.77734e-06
-6.68743e-06
4.07573e-06
-6.59368e-06
5.65913e-07
-6.49875e-06
-1.82815e-06
-6.32227e-06
-2.66448e-06
-5.12412e-06
-3.19307e-06
-3.94167e-06
-3.66452e-06
-3.07086e-06
-3.52004e-06
-3.04502e-06
-2.4303e-06
-2.65826e-06
-1.75602e-06
-1.56492e-06
-9.68657e-07
-1.0741e-06
-9.80744e-07
-1.27141e-06
-5.91579e-07
-1.27374e-06
-2.79626e-07
-1.3424e-06
-7.22394e-07
-1.27333e-06
-7.51873e-07
-1.17803e-06
-7.70921e-07
-1.79088e-06
-3.05171e-06
1.55453e-05
-4.05228e-06
9.77786e-06
-4.48559e-06
4.50901e-06
-3.94177e-06
2.20654e-08
-3.86208e-06
-1.90786e-06
-4.57329e-06
-1.95328e-06
-3.78515e-06
-3.98121e-06
-2.71609e-06
-4.73356e-06
-1.64519e-06
-4.59094e-06
-2.03376e-06
-2.04175e-06
-1.99225e-06
-1.79753e-06
-1.22357e-06
-1.73733e-06
-1.13073e-06
-1.07358e-06
-1.51078e-06
-2.11526e-07
-1.41699e-06
-3.73454e-07
-1.17927e-06
-9.60153e-07
-4.38025e-07
-1.49315e-06
7.63012e-07
-1.97199e-06
-1.02796e-06
-1.11486e-06
1.66602e-05
-1.74443e-06
1.04074e-05
-1.85901e-06
4.6236e-06
-2.02364e-06
1.86717e-07
-1.52174e-06
-2.40976e-06
-1.80122e-06
-1.67379e-06
-1.56226e-06
-4.22016e-06
-5.33561e-07
-5.76227e-06
3.62642e-07
-5.48715e-06
3.21605e-07
-2.00072e-06
-2.03e-07
-1.27294e-06
-2.68293e-07
-1.67207e-06
-1.89299e-06
5.51047e-07
-3.03844e-06
9.33872e-07
-2.08308e-06
-1.32886e-06
1.24733e-07
-3.168e-06
2.79137e-06
-4.15982e-06
6.92354e-06
-6.1042e-06
5.89558e-06
7.16635e-07
1.59435e-05
1.00382e-06
1.01203e-05
6.56837e-07
4.97055e-06
-5.47397e-07
1.39093e-06
-7.07615e-07
-2.24956e-06
-6.31404e-08
-2.31832e-06
4.1363e-07
-4.697e-06
1.05206e-06
-6.40078e-06
1.04045e-06
-5.47558e-06
9.42397e-07
-1.90272e-06
1.36332e-06
-1.69392e-06
1.54528e-06
-1.85408e-06
-3.00496e-06
5.10117e-06
-3.68271e-06
1.61155e-06
-1.2441e-06
-3.76752e-06
1.18986e-06
-5.60203e-06
4.10812e-06
-7.07815e-06
6.62065e-06
-8.6168e-06
1.25161e-05
3.00646e-06
1.2937e-05
4.15655e-06
8.97005e-06
3.32049e-06
5.80655e-06
1.42903e-06
3.28234e-06
2.63566e-07
-1.08412e-06
9.27961e-07
-2.98277e-06
1.41336e-06
-5.18248e-06
1.48144e-06
-6.46891e-06
7.04449e-07
-4.69863e-06
6.25462e-07
-1.82379e-06
6.80977e-07
-1.7495e-06
7.4192e-07
-1.91509e-06
-1.59247e-06
7.43549e-06
-1.51825e-06
1.53726e-06
-8.49526e-08
-5.20088e-06
1.69993e-06
-7.38696e-06
3.64448e-06
-9.02276e-06
4.42859e-06
-9.401e-06
1.69446e-05
6.13615e-06
6.80079e-06
7.04758e-06
8.05855e-06
6.16256e-06
6.69153e-06
3.82898e-06
5.61589e-06
1.73818e-06
1.00666e-06
1.85672e-06
-3.10129e-06
1.92345e-06
-5.24922e-06
1.16587e-06
-5.71135e-06
2.77681e-07
-3.81045e-06
1.24028e-07
-1.67016e-06
-3.91661e-09
-1.6216e-06
-7.16617e-07
-1.20244e-06
-1.6034e-08
6.73486e-06
4.10829e-07
1.11035e-06
9.25855e-07
-5.71594e-06
1.83169e-06
-8.29282e-06
2.64337e-06
-9.83447e-06
2.56181e-06
-9.31945e-06
1.95064e-05
8.51528e-07
-8.90462e-07
2.19112e-06
-8.66277e-07
3.46113e-06
-7.83655e-07
4.47786e-06
-4.9732e-07
5.24761e-06
-1.83755e-07
5.7715e-06
2.41217e-07
6.03192e-06
8.41469e-07
6.06332e-06
1.4989e-06
5.89009e-06
2.04637e-06
5.58115e-06
2.468e-06
5.17781e-06
2.77897e-06
4.67444e-06
2.98259e-06
4.04484e-06
3.07358e-06
3.26166e-06
2.99643e-06
2.40855e-06
2.65749e-06
1.59071e-06
1.94985e-06
9.8486e-07
8.84019e-07
8.42695e-07
-5.29784e-07
1.13154e-06
-2.06765e-06
2.15816e-06
-3.93986e-06
3.92839e-06
-5.94001e-06
6.07944e-06
-7.8095e-06
-1.01514e-05
9.24066e-06
4.66112e-07
-1.35657e-06
2.17273e-06
-2.57289e-06
3.82999e-06
-2.44092e-06
5.1382e-06
-1.80553e-06
6.22163e-06
-1.26719e-06
7.08649e-06
-6.23637e-07
7.68115e-06
2.46807e-07
8.02551e-06
1.15455e-06
8.19142e-06
1.88049e-06
8.24445e-06
2.41501e-06
8.23201e-06
2.79146e-06
8.18419e-06
3.03046e-06
8.13285e-06
3.12497e-06
8.1476e-06
2.98174e-06
8.30595e-06
2.4992e-06
8.63936e-06
1.61649e-06
9.161e-06
3.62405e-07
9.88838e-06
-1.25717e-06
1.09899e-05
-3.16915e-06
1.23926e-05
-5.34266e-06
1.39137e-05
-7.4611e-06
1.53604e-05
-9.25614e-06
-1.05005e-05
1.57094e-05
1.21537e-06
-2.57193e-06
2.48668e-06
-3.84418e-06
3.76612e-06
-3.72033e-06
4.88973e-06
-2.92911e-06
5.94913e-06
-2.32657e-06
6.92044e-06
-1.59494e-06
7.61099e-06
-4.43739e-07
8.09017e-06
6.7537e-07
8.41679e-06
1.55387e-06
8.64877e-06
2.18302e-06
8.84632e-06
2.5939e-06
9.0636e-06
2.81318e-06
9.33719e-06
2.85137e-06
9.73175e-06
2.58718e-06
1.02815e-05
1.94949e-06
1.09694e-05
9.28643e-07
1.17976e-05
-4.65832e-07
1.27723e-05
-2.23184e-06
1.38204e-05
-4.21723e-06
1.48493e-05
-6.37162e-06
1.56376e-05
-8.24943e-06
1.57449e-05
-9.36355e-06
-9.08886e-06
1.43332e-05
1.5544e-06
-4.12628e-06
2.75434e-06
-5.04408e-06
3.67547e-06
-4.6414e-06
4.58764e-06
-3.84123e-06
5.40326e-06
-3.14215e-06
5.93381e-06
-2.12547e-06
6.54213e-06
-1.05204e-06
7.07305e-06
1.44457e-07
7.46443e-06
1.16248e-06
7.78789e-06
1.85954e-06
8.05525e-06
2.32651e-06
8.40008e-06
2.46832e-06
8.90627e-06
2.34515e-06
9.52292e-06
1.9705e-06
1.01568e-05
1.31561e-06
1.07516e-05
3.33853e-07
1.14046e-05
-1.11884e-06
1.21743e-05
-3.00149e-06
1.27787e-05
-4.82156e-06
1.30239e-05
-6.61676e-06
1.27771e-05
-8.00262e-06
1.17561e-05
-8.34244e-06
-7.11866e-06
9.78589e-06
7.80638e-07
-4.9069e-06
2.06572e-06
-6.32915e-06
2.90958e-06
-5.48525e-06
3.70225e-06
-4.63389e-06
4.11979e-06
-3.55967e-06
4.17276e-06
-2.17843e-06
4.56155e-06
-1.44082e-06
5.11944e-06
-4.13436e-07
5.60587e-06
6.76038e-07
6.00433e-06
1.46107e-06
6.39041e-06
1.94041e-06
6.84996e-06
2.00876e-06
7.4347e-06
1.76039e-06
8.05671e-06
1.34847e-06
8.59865e-06
7.73656e-07
9.0297e-06
-9.72025e-08
9.31929e-06
-1.40843e-06
9.54235e-06
-3.22454e-06
9.51949e-06
-4.79868e-06
9.0661e-06
-6.16333e-06
8.13959e-06
-7.07606e-06
6.82769e-06
-7.03055e-06
-5.93437e-06
5.64337e-06
5.73389e-07
-5.48026e-06
4.70668e-07
-6.22644e-06
7.86443e-07
-5.80106e-06
1.18523e-06
-5.03272e-06
1.44554e-06
-3.82001e-06
1.82234e-06
-2.55525e-06
2.19356e-06
-1.81206e-06
2.68009e-06
-8.99978e-07
3.21255e-06
1.43574e-07
3.71115e-06
9.62474e-07
4.26149e-06
1.39007e-06
4.79137e-06
1.47888e-06
5.27201e-06
1.27976e-06
5.7358e-06
8.84681e-07
6.19492e-06
3.14534e-07
6.61933e-06
-5.2162e-07
6.90307e-06
-1.69218e-06
6.80346e-06
-3.12494e-06
6.46841e-06
-4.46366e-06
5.83754e-06
-5.5325e-06
4.88934e-06
-6.12788e-06
3.89093e-06
-6.03216e-06
-5.35432e-06
3.31082e-06
-1.17883e-06
-4.30143e-06
-1.79692e-06
-5.6083e-06
-1.61644e-06
-5.98149e-06
-1.27128e-06
-5.37785e-06
-7.49987e-07
-4.34131e-06
-1.02682e-07
-3.20257e-06
4.11376e-07
-2.32613e-06
9.3136e-07
-1.41996e-06
1.51479e-06
-4.39853e-07
2.13183e-06
3.4544e-07
2.72397e-06
7.9794e-07
3.26832e-06
9.34544e-07
3.7464e-06
8.01679e-07
4.18371e-06
4.47373e-07
4.6018e-06
-1.03564e-07
4.95222e-06
-8.72039e-07
5.072e-06
-1.81195e-06
4.91325e-06
-2.96617e-06
4.51169e-06
-4.06207e-06
3.89349e-06
-4.91425e-06
3.13649e-06
-5.37082e-06
2.45633e-06
-5.35194e-06
-4.98604e-06
2.08812e-06
-2.8488e-06
-1.45258e-06
-4.04236e-06
-4.41415e-06
-3.64242e-06
-6.38064e-06
-3.03933e-06
-5.98031e-06
-2.34583e-06
-5.03437e-06
-1.54442e-06
-4.00367e-06
-7.89703e-07
-3.08062e-06
-1.31282e-07
-2.07825e-06
5.16339e-07
-1.08742e-06
1.17718e-06
-3.15392e-07
1.84718e-06
1.27915e-07
2.44774e-06
3.33939e-07
2.97005e-06
2.79327e-07
3.43313e-06
-1.57299e-08
3.83712e-06
-5.07541e-07
4.12384e-06
-1.15869e-06
4.22553e-06
-1.91351e-06
4.06816e-06
-2.80858e-06
3.66971e-06
-3.66331e-06
3.08321e-06
-4.32737e-06
2.42615e-06
-4.71334e-06
1.88779e-06
-4.81313e-06
-4.7507e-06
1.65287e-06
-3.4012e-06
1.94912e-06
-5.97364e-06
-1.84055e-06
-5.35217e-06
-7.00102e-06
-4.54537e-06
-6.78632e-06
-3.68671e-06
-5.89253e-06
-2.52985e-06
-5.16025e-06
-1.48992e-06
-4.12036e-06
-7.28217e-07
-2.83984e-06
1.81453e-08
-1.83373e-06
8.34948e-07
-1.13219e-06
1.6621e-06
-6.99267e-07
2.42476e-06
-4.28761e-07
3.10145e-06
-3.97415e-07
3.70678e-06
-6.21089e-07
4.24402e-06
-1.04477e-06
4.63999e-06
-1.55459e-06
4.8029e-06
-2.07624e-06
4.64215e-06
-2.64749e-06
4.13199e-06
-3.1526e-06
3.32503e-06
-3.51967e-06
2.39216e-06
-3.7796e-06
1.55167e-06
-3.97178e-06
-4.0849e-06
8.86833e-07
-1.0567e-07
2.0534e-06
-1.82655e-06
-1.19181e-07
-4.69882e-06
-4.12706e-06
-5.15373e-06
-6.33024e-06
-4.30301e-06
-6.74258e-06
-3.34437e-06
-6.11839e-06
-2.46006e-06
-5.00429e-06
-1.54106e-06
-3.75861e-06
-5.76973e-07
-2.79772e-06
3.94194e-07
-2.10334e-06
1.32679e-06
-1.63187e-06
2.21395e-06
-1.31596e-06
3.01787e-06
-1.20138e-06
3.70048e-06
-1.30372e-06
4.23424e-06
-1.57852e-06
4.59095e-06
-1.91122e-06
4.69893e-06
-2.18408e-06
4.44542e-06
-2.39372e-06
3.82058e-06
-2.52733e-06
2.94326e-06
-2.64177e-06
2.00731e-06
-2.84301e-06
1.25618e-06
-3.21976e-06
-3.54571e-06
7.17431e-07
5.45556e-06
-3.40255e-06
3.48868e-06
1.84686e-06
3.67311e-07
-1.00626e-06
-2.55684e-06
-3.40629e-06
-4.88984e-06
-4.40956e-06
-6.44742e-06
-4.56063e-06
-7.14509e-06
-4.3064e-06
-7.02804e-06
-3.87542e-06
-6.55086e-06
-3.27465e-06
-6.07317e-06
-2.58077e-06
-5.66523e-06
-2.03954e-06
-5.25307e-06
-1.72786e-06
-4.80629e-06
-1.64792e-06
-4.33184e-06
-1.77798e-06
-3.87018e-06
-2.04005e-06
-3.46294e-06
-2.31845e-06
-3.13891e-06
-2.50824e-06
-2.94694e-06
-2.58598e-06
-2.9012e-06
-2.57353e-06
-2.97487e-06
-2.56865e-06
-3.09174e-06
-2.7266e-06
-3.13286e-06
-3.17984e-06
-3.39161e-06
-3.28797e-06
6.93961e-07
-4.09545e-06
5.08156e-07
2.03235e-06
-1.73418e-06
1.23515e-06
-4.69758e-06
-4.43641e-07
-7.51512e-06
-1.59249e-06
-9.64393e-06
-2.43207e-06
-1.0808e-05
-3.14249e-06
-1.09286e-05
-3.75472e-06
-1.05494e-05
-3.65368e-06
-1.01833e-05
-2.94666e-06
-9.90981e-06
-2.31268e-06
-9.64806e-06
-1.98926e-06
-9.33991e-06
-1.95573e-06
-8.99039e-06
-2.12718e-06
-8.63176e-06
-2.39844e-06
-8.28096e-06
-2.66913e-06
-7.92825e-06
-2.86099e-06
-7.56589e-06
-2.94861e-06
-7.17255e-06
-2.96731e-06
-6.73425e-06
-3.00747e-06
-6.26889e-06
-3.19278e-06
-5.84003e-06
-3.60926e-06
-4.03785e-06
-5.19507e-06
-2.95932e-06
-1.13469e-06
-3.81083e-06
2.8849e-06
-5.25289e-06
2.67787e-06
-7.35195e-06
1.6559e-06
-9.62035e-06
6.76326e-07
-1.15459e-05
-5.06214e-07
-1.26754e-05
-2.01265e-06
-1.30414e-05
-3.3885e-06
-1.29361e-05
-3.75864e-06
-1.26089e-05
-3.27351e-06
-1.24498e-05
-2.47155e-06
-1.22846e-05
-2.15416e-06
-1.20631e-05
-2.17688e-06
-1.17973e-05
-2.39269e-06
-1.15058e-05
-2.68962e-06
-1.11927e-05
-2.98195e-06
-1.08325e-05
-3.22084e-06
-1.03935e-05
-3.38729e-06
-9.85317e-06
-3.50729e-06
-9.21552e-06
-3.64463e-06
-8.52967e-06
-3.87807e-06
-7.87713e-06
-4.26151e-06
-4.82222e-06
-7.09289e-06
-4.26318e-06
3.12992e-06
-6.03906e-06
4.66183e-06
-7.4341e-06
4.0737e-06
-8.95055e-06
3.173e-06
-1.05843e-05
2.31064e-06
-1.20286e-05
9.3852e-07
-1.31013e-05
-9.39578e-07
-1.37383e-05
-2.75119e-06
-1.39755e-05
-3.52115e-06
-1.38034e-05
-3.4453e-06
-1.36809e-05
-2.59373e-06
-1.35218e-05
-2.31298e-06
-1.32994e-05
-2.399e-06
-1.30372e-05
-2.65463e-06
-1.27527e-05
-2.97377e-06
-1.24434e-05
-3.29094e-06
-1.20821e-05
-3.58179e-06
-1.16447e-05
-3.82423e-06
-1.11185e-05
-4.03305e-06
-1.05147e-05
-4.24771e-06
-9.87742e-06
-4.51463e-06
-9.26164e-06
-4.8766e-06
-5.47207e-06
-8.61159e-06
-4.02389e-06
7.15491e-06
-6.25391e-06
6.89274e-06
-7.81083e-06
5.63132e-06
-9.13955e-06
4.50231e-06
-1.0299e-05
3.47059e-06
-1.13062e-05
1.94623e-06
-1.23008e-05
5.53392e-08
-1.31639e-05
-1.88778e-06
-1.36846e-05
-3.00024e-06
-1.39015e-05
-3.22809e-06
-1.38382e-05
-2.65676e-06
-1.36585e-05
-2.49239e-06
-1.34278e-05
-2.62942e-06
-1.31685e-05
-2.91372e-06
-1.29021e-05
-3.23991e-06
-1.26174e-05
-3.57532e-06
-1.22951e-05
-3.90376e-06
-1.19182e-05
-4.20075e-06
-1.14794e-05
-4.47143e-06
-1.09894e-05
-4.737e-06
-1.04766e-05
-5.02678e-06
-9.97802e-06
-5.37453e-06
-5.95944e-06
-9.49054e-06
-3.30675e-06
1.04626e-05
-5.39634e-06
8.98303e-06
-6.997e-06
7.23256e-06
-8.23598e-06
5.74178e-06
-9.13733e-06
4.37238e-06
-9.9158e-06
2.72509e-06
-1.0723e-05
8.62846e-07
-1.16718e-05
-9.38683e-07
-1.24486e-05
-2.22315e-06
-1.29614e-05
-2.71503e-06
-1.30234e-05
-2.59446e-06
-1.28976e-05
-2.61805e-06
-1.27046e-05
-2.82215e-06
-1.2497e-05
-3.12109e-06
-1.22828e-05
-3.45385e-06
-1.20534e-05
-3.80454e-06
-1.18025e-05
-4.15438e-06
-1.15189e-05
-4.4841e-06
-1.11986e-05
-4.79135e-06
-1.08481e-05
-5.08699e-06
-1.04886e-05
-5.38579e-06
-1.01457e-05
-5.71697e-06
-6.26583e-06
-9.83926e-06
-2.46811e-06
1.29314e-05
-4.19473e-06
1.07102e-05
-5.58339e-06
8.6217e-06
-6.66436e-06
6.82317e-06
-7.45161e-06
5.16001e-06
-8.14164e-06
3.41546e-06
-8.88276e-06
1.60427e-06
-9.73314e-06
-8.80235e-08
-1.05808e-05
-1.3752e-06
-1.12058e-05
-2.0898e-06
-1.14253e-05
-2.3747e-06
-1.14418e-05
-2.60137e-06
-1.1368e-05
-2.89572e-06
-1.12593e-05
-3.22957e-06
-1.11317e-05
-3.58123e-06
-1.09885e-05
-3.94753e-06
-1.08312e-05
-4.31148e-06
-1.06558e-05
-4.65933e-06
-1.04604e-05
-4.9865e-06
-1.02523e-05
-5.29464e-06
-1.00456e-05
-5.59216e-06
-9.86178e-06
-5.90032e-06
-6.39501e-06
-9.73268e-06
-1.61452e-06
1.45466e-05
-2.88726e-06
1.19835e-05
-3.96072e-06
9.69561e-06
-4.83951e-06
7.70235e-06
-5.54611e-06
5.86694e-06
-6.19254e-06
4.0622e-06
-6.8859e-06
2.29793e-06
-7.66452e-06
6.90859e-07
-8.44467e-06
-5.94796e-07
-9.06178e-06
-1.47246e-06
-9.42275e-06
-2.01352e-06
-9.5891e-06
-2.43481e-06
-9.6547e-06
-2.82991e-06
-9.66636e-06
-3.2177e-06
-9.64414e-06
-3.60326e-06
-9.60288e-06
-3.9886e-06
-9.54817e-06
-4.36603e-06
-9.48133e-06
-4.72602e-06
-9.40478e-06
-5.06284e-06
-9.32429e-06
-5.37477e-06
-9.25414e-06
-5.66191e-06
-9.21409e-06
-5.94011e-06
-6.38217e-06
-9.227e-06
-8.30631e-07
1.53778e-05
-1.63124e-06
1.27847e-05
-2.38321e-06
1.0448e-05
-3.05952e-06
8.37903e-06
-3.66283e-06
6.47058e-06
-4.25346e-06
4.65313e-06
-4.89094e-06
2.93568e-06
-5.58842e-06
1.38859e-06
-6.28714e-06
1.04164e-07
-6.88734e-06
-8.72033e-07
-7.31458e-06
-1.58607e-06
-7.59646e-06
-2.15272e-06
-7.78083e-06
-2.64533e-06
-7.90267e-06
-3.09567e-06
-7.98444e-06
-3.52129e-06
-8.04131e-06
-3.93156e-06
-8.08276e-06
-4.32443e-06
-8.11372e-06
-4.69491e-06
-8.13878e-06
-5.03761e-06
-8.16628e-06
-5.34691e-06
-8.20733e-06
-5.62055e-06
-8.27868e-06
-5.86837e-06
-6.25765e-06
-8.40331e-06
-1.99756e-07
1.55782e-05
-5.73782e-07
1.31592e-05
-1.02544e-06
1.09001e-05
-1.49749e-06
8.85146e-06
-1.97606e-06
6.94947e-06
-2.48335e-06
5.16071e-06
-3.04367e-06
3.49627e-06
-3.65472e-06
1.99989e-06
-4.27372e-06
7.23392e-07
-4.83426e-06
-3.1127e-07
-5.28807e-06
-1.13205e-06
-5.63734e-06
-1.80324e-06
-5.90475e-06
-2.37773e-06
-6.11242e-06
-2.8878e-06
-6.27793e-06
-3.3556e-06
-6.41618e-06
-3.79313e-06
-6.53708e-06
-4.20337e-06
-6.64756e-06
-4.58429e-06
-6.75408e-06
-4.93089e-06
-6.86347e-06
-5.23718e-06
-6.98794e-06
-5.49571e-06
-7.14216e-06
-5.71395e-06
-6.06442e-06
-7.33549e-06
2.44014e-07
1.53348e-05
2.03189e-07
1.32005e-05
1.68965e-08
1.10868e-05
-2.56247e-07
9.12498e-06
-5.91641e-07
7.2852e-06
-9.89553e-07
5.55892e-06
-1.45191e-06
3.95889e-06
-1.96599e-06
2.51422e-06
-2.49785e-06
1.25548e-06
-3.00317e-06
1.94265e-07
-3.44714e-06
-6.87875e-07
-3.82107e-06
-1.42912e-06
-4.13277e-06
-2.06584e-06
-4.39366e-06
-2.62672e-06
-4.61636e-06
-3.13272e-06
-4.81242e-06
-3.5969e-06
-4.99092e-06
-4.02472e-06
-5.15898e-06
-4.41609e-06
-5.32286e-06
-4.76682e-06
-5.49117e-06
-5.0685e-06
-5.67237e-06
-5.31424e-06
-5.87772e-06
-5.50821e-06
-5.82352e-06
-6.11873e-06
4.75577e-07
1.48599e-05
6.8302e-07
1.29936e-05
7.19732e-07
1.10506e-05
6.33511e-07
9.21157e-06
4.49053e-07
7.46998e-06
1.78526e-07
5.82974e-06
-1.68283e-07
4.30596e-06
-5.73758e-07
2.91993e-06
-1.0094e-06
1.69134e-06
-1.44224e-06
6.27312e-07
-1.84628e-06
-2.83635e-07
-2.20909e-06
-1.06613e-06
-2.52939e-06
-1.74536e-06
-2.81173e-06
-2.34419e-06
-3.06328e-06
-2.88101e-06
-3.29192e-06
-3.3681e-06
-3.50483e-06
-3.81165e-06
-3.70835e-06
-4.21243e-06
-3.90879e-06
-4.56617e-06
-4.11167e-06
-4.86528e-06
-4.32642e-06
-5.0991e-06
-4.56291e-06
-5.27151e-06
-5.56471e-06
-4.82174e-06
5.49339e-07
1.43112e-05
9.11889e-07
1.26316e-05
1.11943e-06
1.08435e-05
1.19581e-06
9.13557e-06
1.1593e-06
7.50682e-06
1.02377e-06
5.96556e-06
8.03163e-07
4.52682e-06
5.15708e-07
3.20762e-06
1.85468e-07
2.02179e-06
-1.61326e-07
9.74302e-07
-5.03209e-07
5.8434e-08
-8.27533e-07
-7.41629e-07
-1.12785e-06
-1.44487e-06
-1.40401e-06
-2.06786e-06
-1.65884e-06
-2.62602e-06
-1.89677e-06
-3.13001e-06
-2.1228e-06
-3.58548e-06
-2.34174e-06
-3.99334e-06
-2.55823e-06
-4.34949e-06
-2.77856e-06
-4.6446e-06
-3.00814e-06
-4.86923e-06
-3.25377e-06
-5.02545e-06
-5.29747e-06
-3.52107e-06
5.21714e-07
1.37902e-05
9.64302e-07
1.21896e-05
1.2912e-06
1.0517e-05
1.49966e-06
8.9275e-06
1.59617e-06
7.41063e-06
1.59056e-06
5.97145e-06
1.49557e-06
4.62206e-06
1.32776e-06
3.37565e-06
1.10731e-06
2.24244e-06
8.55363e-07
1.22644e-06
5.89916e-07
3.24055e-07
3.23034e-07
-4.74582e-07
6.31089e-08
-1.18479e-06
-1.86013e-07
-1.81858e-06
-4.23828e-07
-2.38805e-06
-6.52031e-07
-2.90166e-06
-8.73414e-07
-3.36396e-06
-1.09137e-06
-3.77525e-06
-1.30961e-06
-4.13107e-06
-1.53081e-06
-4.4231e-06
-1.76131e-06
-4.63838e-06
-2.00646e-06
-4.78017e-06
-5.04389e-06
-2.26007e-06
4.47941e-07
1.33429e-05
9.17805e-07
1.17203e-05
1.31995e-06
1.01154e-05
1.62778e-06
8.62005e-06
1.83504e-06
7.2037e-06
1.94473e-06
5.86203e-06
1.9656e-06
4.60144e-06
1.91081e-06
3.43065e-06
1.7966e-06
2.35684e-06
1.64007e-06
1.38314e-06
1.45655e-06
5.07734e-07
1.25767e-06
-2.75552e-07
1.05135e-06
-9.78324e-07
8.43708e-07
-1.6108e-06
6.37135e-07
-2.18134e-06
4.32114e-07
-2.69651e-06
2.27936e-07
-3.15967e-06
2.32103e-08
-3.5704e-06
-1.83644e-07
-3.92407e-06
-3.96604e-07
-4.20984e-06
-6.17907e-07
-4.4169e-06
-8.53103e-07
-4.54462e-06
-4.80365e-06
-1.09345e-06
3.69867e-07
1.29739e-05
8.37529e-07
1.12533e-05
1.28148e-06
9.67186e-06
1.65846e-06
8.24344e-06
1.95128e-06
6.91118e-06
2.15583e-06
5.65775e-06
2.27592e-06
4.48157e-06
2.32068e-06
3.38609e-06
2.30253e-06
2.37517e-06
2.2351e-06
1.45072e-06
2.13127e-06
6.11706e-07
2.00177e-06
-1.45916e-07
1.85385e-06
-8.30277e-07
1.69448e-06
-1.45131e-06
1.52743e-06
-2.01417e-06
1.35463e-06
-2.5236e-06
1.1768e-06
-2.98175e-06
9.93737e-07
-3.38726e-06
8.04208e-07
-3.7344e-06
6.08397e-07
-4.01382e-06
4.05546e-07
-4.21377e-06
1.98612e-07
-4.33762e-06
-4.56684e-06
-3.82143e-08
3.12588e-07
1.26618e-05
7.68133e-07
1.07983e-05
1.23303e-06
9.2074e-06
1.65478e-06
7.82204e-06
2.0089e-06
6.55734e-06
2.28569e-06
5.3812e-06
2.48456e-06
4.28292e-06
2.61086e-06
3.25996e-06
2.67364e-06
2.31254e-06
2.68358e-06
1.44092e-06
2.65128e-06
6.44128e-07
2.58611e-06
-8.06368e-08
2.49501e-06
-7.39065e-07
2.38469e-06
-1.3409e-06
2.2595e-06
-1.88888e-06
2.12219e-06
-2.38621e-06
1.97432e-06
-2.8338e-06
1.81668e-06
-3.22954e-06
1.64965e-06
-3.56728e-06
1.47211e-06
-3.83607e-06
1.28405e-06
-4.0256e-06
1.08242e-06
-4.13567e-06
-4.36054e-06
8.76044e-07
2.88852e-07
1.23738e-05
7.36309e-07
1.03514e-05
1.21181e-06
8.73231e-06
1.66083e-06
7.37335e-06
2.05546e-06
6.16298e-06
2.38265e-06
5.05423e-06
2.63882e-06
4.02693e-06
2.82655e-06
3.07238e-06
2.95228e-06
2.18694e-06
3.02432e-06
1.369e-06
3.05131e-06
6.17232e-07
3.04123e-06
-7.04676e-08
3.00061e-06
-6.9836e-07
2.93539e-06
-1.2756e-06
2.84988e-06
-1.8033e-06
2.7471e-06
-2.28336e-06
2.62913e-06
-2.71578e-06
2.49721e-06
-3.09759e-06
2.35198e-06
-3.42196e-06
2.19515e-06
-3.67909e-06
2.02557e-06
-3.85581e-06
1.84322e-06
-3.95335e-06
-4.17406e-06
1.65669e-06
3.01974e-07
1.20722e-05
7.53919e-07
9.89984e-06
1.23828e-06
8.24831e-06
1.70355e-06
6.90836e-06
2.12213e-06
5.74463e-06
2.48024e-06
4.6963e-06
2.77314e-06
3.73419e-06
3.00203e-06
2.84362e-06
3.17174e-06
2.01733e-06
3.28897e-06
1.25186e-06
3.36086e-06
5.4541e-07
3.39406e-06
-1.03601e-07
3.39458e-06
-6.98823e-07
3.36731e-06
-1.24828e-06
3.31609e-06
-1.75203e-06
3.2438e-06
-2.21103e-06
3.15256e-06
-2.62451e-06
3.0441e-06
-2.98909e-06
2.92016e-06
-3.29799e-06
2.78078e-06
-3.53957e-06
2.62835e-06
-3.70336e-06
2.46446e-06
-3.78921e-06
-3.99632e-06
2.28661e-06
3.5097e-07
1.17219e-05
8.24074e-07
9.42714e-06
1.3206e-06
7.75207e-06
1.79606e-06
6.43311e-06
2.22606e-06
5.31481e-06
2.59851e-06
4.32399e-06
2.90946e-06
3.42335e-06
3.16026e-06
2.59292e-06
3.35538e-06
1.82228e-06
3.50076e-06
1.10654e-06
3.60251e-06
4.43699e-07
3.66616e-06
-1.6722e-07
3.69704e-06
-7.29671e-07
3.69883e-06
-1.25005e-06
3.67455e-06
-1.72774e-06
3.62662e-06
-2.16309e-06
3.55708e-06
-2.55495e-06
3.4677e-06
-2.89971e-06
3.3599e-06
-3.19014e-06
3.23659e-06
-3.4162e-06
3.09808e-06
-3.56469e-06
2.9449e-06
-3.63608e-06
-3.83203e-06
2.78063e-06
4.31894e-07
1.12901e-05
9.44122e-07
8.91509e-06
1.45936e-06
7.237e-06
1.94225e-06
5.95036e-06
2.37407e-06
4.8831e-06
2.7467e-06
3.95146e-06
3.05896e-06
3.11115e-06
3.31398e-06
2.33794e-06
3.51712e-06
1.61918e-06
3.67441e-06
9.49273e-07
3.79149e-06
3.26626e-07
3.87297e-06
-2.48695e-07
3.92326e-06
-7.79953e-07
3.94463e-06
-1.27143e-06
3.93907e-06
-1.72219e-06
3.90828e-06
-2.1323e-06
3.85394e-06
-2.50062e-06
3.77793e-06
-2.82371e-06
3.68255e-06
-3.09476e-06
3.56898e-06
-3.30254e-06
3.44029e-06
-3.43601e-06
3.2982e-06
-3.49375e-06
-3.66888e-06
3.13503e-06
5.41031e-07
1.07493e-05
1.10998e-06
8.34625e-06
1.65129e-06
6.69576e-06
2.14032e-06
5.46138e-06
2.56589e-06
4.45757e-06
2.926e-06
3.59138e-06
3.22429e-06
2.81289e-06
3.46729e-06
2.09495e-06
3.66247e-06
1.42399e-06
3.81683e-06
7.94896e-07
3.936e-06
2.07443e-07
4.02375e-06
-3.36474e-07
4.08324e-06
-8.3947e-07
4.11512e-06
-1.30333e-06
4.12002e-06
-1.7271e-06
4.09874e-06
-2.11106e-06
4.05268e-06
-2.45458e-06
3.98363e-06
-2.75469e-06
3.89364e-06
-3.00476e-06
3.78627e-06
-3.19515e-06
3.66304e-06
-3.31269e-06
3.52505e-06
-3.35584e-06
-3.51514e-06
3.37128e-06
6.74708e-07
1.00744e-05
1.31735e-06
7.7035e-06
1.89229e-06
6.12077e-06
2.386e-06
4.96763e-06
2.79701e-06
4.04653e-06
3.13198e-06
3.25638e-06
3.40151e-06
2.54333e-06
3.6172e-06
1.87922e-06
3.78981e-06
1.25135e-06
3.92802e-06
6.56647e-07
4.03774e-06
9.76769e-08
4.1219e-06
-4.20682e-07
4.18185e-06
-8.99468e-07
4.21619e-06
-1.33772e-06
4.22387e-06
-1.73483e-06
4.20477e-06
-2.092e-06
4.15994e-06
-2.4098e-06
4.09151e-06
-2.68628e-06
4.0025e-06
-2.91579e-06
3.89497e-06
-3.08759e-06
3.77307e-06
-3.19087e-06
3.63953e-06
-3.2222e-06
-3.35912e-06
3.48346e-06
8.30899e-07
9.24329e-06
1.56396e-06
6.97023e-06
2.17886e-06
5.50569e-06
2.67381e-06
4.47256e-06
3.05995e-06
3.6603e-06
3.35576e-06
2.96049e-06
3.58133e-06
2.3177e-06
3.75493e-06
1.70555e-06
3.89153e-06
1.11468e-06
4.00202e-06
5.46091e-07
4.09277e-06
6.86224e-09
4.16555e-06
-4.93534e-07
4.21913e-06
-9.5311e-07
4.24936e-06
-1.36801e-06
4.25311e-06
-1.73863e-06
4.22934e-06
-2.06828e-06
4.17921e-06
-2.35972e-06
4.10536e-06
-2.61249e-06
4.01094e-06
-2.8214e-06
3.90057e-06
-2.97727e-06
3.77683e-06
-3.06713e-06
3.64157e-06
-3.08705e-06
-3.20661e-06
3.48898e-06
1.00847e-06
8.23429e-06
1.84902e-06
6.12931e-06
2.50842e-06
4.84602e-06
2.99715e-06
3.98362e-06
3.34406e-06
3.31323e-06
3.5841e-06
2.72032e-06
3.74955e-06
2.15214e-06
3.86661e-06
1.58839e-06
3.95496e-06
1.02624e-06
4.02793e-06
4.73035e-07
4.09232e-06
-5.76084e-08
4.1483e-06
-5.49585e-07
4.19089e-06
-9.95768e-07
4.21206e-06
-1.38925e-06
4.20614e-06
-1.73277e-06
4.17146e-06
-2.03365e-06
4.10983e-06
-2.29815e-06
4.02513e-06
-2.52784e-06
3.92209e-06
-2.71842e-06
3.80438e-06
-2.85959e-06
3.67665e-06
-2.9395e-06
3.54177e-06
-2.95221e-06
-3.0498e-06
3.38496e-06
1.20931e-06
7.02438e-06
2.17335e-06
5.16478e-06
2.87668e-06
4.14232e-06
3.34483e-06
3.51521e-06
3.63274e-06
3.02512e-06
3.79775e-06
2.55514e-06
3.88672e-06
2.06304e-06
3.934e-06
1.541e-06
3.96361e-06
9.96527e-07
3.99118e-06
4.45371e-07
4.02398e-06
-9.05008e-08
4.06006e-06
-5.85748e-07
4.08929e-06
-1.02507e-06
4.09794e-06
-1.39797e-06
4.07734e-06
-1.71223e-06
4.02591e-06
-1.98228e-06
3.94735e-06
-2.21964e-06
3.84742e-06
-2.42797e-06
3.73186e-06
-2.60292e-06
3.6065e-06
-2.73433e-06
3.4748e-06
-2.80788e-06
3.33855e-06
-2.81602e-06
-2.89945e-06
3.18805e-06
1.44085e-06
5.58284e-06
2.53544e-06
4.06963e-06
3.27083e-06
3.40652e-06
3.69362e-06
3.09209e-06
3.89777e-06
2.82072e-06
3.96874e-06
2.48398e-06
3.96799e-06
2.06364e-06
3.93598e-06
1.57288e-06
3.89943e-06
1.03296e-06
3.87581e-06
4.6888e-07
3.87346e-06
-8.82596e-08
3.88843e-06
-6.00806e-07
3.90376e-06
-1.04049e-06
3.89727e-06
-1.39156e-06
3.8571e-06
-1.67214e-06
3.78339e-06
-1.90865e-06
3.68337e-06
-2.11969e-06
3.56575e-06
-2.31043e-06
3.4383e-06
-2.47558e-06
3.3059e-06
-2.60203e-06
3.17288e-06
-2.67501e-06
3.04076e-06
-2.68414e-06
-2.75229e-06
2.89358e-06