/*--------------------------------*- C++ -*----------------------------------*\
  =========                 |
  \\      /  F ield         | OpenFOAM: The Open Source CFD Toolbox
   \\    /   O peration     | Website:  https://openfoam.org
    \\  /    A nd           | Version:  13
     \\/     M anipulation  |
\*---------------------------------------------------------------------------*/
FoamFile
{
    format      ascii;
    class       volScalarField;
    location    "2.65";
    object      rho;
}
// * * * * * * * * * * * * * * * * * * * * * * * * * * * * * * * * * * * * * //

dimensions      [1 -3 0 0 0 0 0];

internalField   nonuniform List<scalar> 
2268
(
13529
13529
13529
13529
13529
13529
13529
13529
13529
13529
13529
13529
13529
13529
13529
13529
13529
13529
13529
13528.8
13523.5
13521.6
13521.6
13529
13529
13529
13529
13529
13529
13529
13529
13529
13529
13529
13529
13529
13529
13529
13529
13529
13529
13529
13529
13527.8
13526.5
13526.9
13529
13529
13529
13529
13529
13529
13529
13529
13529
13529
13529
13529
13529
13529
13529
13529
13529
13529
13529
13529
13529
13529
13529
13529
13529
13529
13529
13529
13529
13529
13529
13529
13529
13529
13529
13529
13529
13529
13529
13529
13529
13529
13529
13529
13529
13529
13329.4
13259.2
13271.1
13346.5
13439.5
13509.8
13529
13529
13529
13529
13529
13529
13529
13529
13529
13529
13529
13529
13529
13529
13529
13529
13529
5042.98
5220.67
5408.27
5821.24
6490.63
7385.61
8485.75
9651.27
10618.1
11510.8
12307.2
12957.2
13409.1
13529
13529
13529
13529
13529
13529
13529
13529
13529
13528.2
1000
1000
1000
999.999
1000.77
1003.49
1013.02
1110.87
1537.92
2173.39
3040.29
4199.36
5704.66
7641.62
9598.71
11243.2
12511.2
13368.1
13514.7
13524.4
13528.9
13528.4
13521.3
1000
1000
1000
1000
999.995
999.997
999.999
1000
1000
1000
1000
1000
1000
1062.66
1378.92
2187.83
3463.45
5120.1
7282.03
9059.98
10120.3
10397.2
10344.2
11941.8
11943.6
11949.8
11945
11931.2
10095.4
8870.55
8937.03
9169.32
9260.47
8913.21
8653.15
9208.36
10336
10342.3
10360.3
10320.5
10299.3
10303.8
9560.64
10272.9
10734.1
11141.9
11493.7
11493.9
11200.6
11201.4
11246
11218.7
10750
9635.92
10109.4
10276.7
10286.4
10287.9
10299.6
10299.1
10303.9
6323.53
5984.09
5995.02
5955.42
6989.14
8309.87
8663.56
8757.72
8491.49
8975.96
8454.57
8511.27
8385.24
8240.05
8478.04
8855.7
8409.36
7773.58
7466.69
2586.43
2597.79
2659.12
2615.9
2365.95
2260
2679.09
2408.19
2305.12
2123.15
3397.58
3677.61
3504.38
3033.66
2616.11
1887.09
2121.14
2757.83
3615.15
1810.33
1996.28
2081.37
2376.72
1717.09
1071.36
1091.64
1176.4
1372.61
1068.59
617.128
1257.43
1673
1135.28
581.748
722.407
778.623
861.561
524.724
1895.32
1759.59
2038.22
2086.73
2113.89
1352.17
1254.76
1313.96
1498.34
1144.97
999.518
534.829
269.688
502.501
887.366
999.888
999.883
999.873
647.721
1236.9
1388.15
1430.71
1572.01
1897.69
1738.47
1631.35
1769.27
1397.49
1104.8
1007.03
980.155
287.03
611.978
999.852
999.964
999.86
998.834
765.795
1188.66
1126.51
1093.78
1062.22
1241.04
1672.17
1710.64
1520.6
1000.18
1012.65
1006.09
985.356
475.797
768.612
999.252
1000.06
999.147
992.844
795.371
1000
1000
999.933
999.896
999.947
999.999
1000
1000
1000
1000
1000
1000
1000
1000
1000
1000
1000
1000
1007.56
1097.92
1236.46
1295.77
1403.17
991.197
995.726
998.416
999.327
999.977
1000
1000
1000
1000
1000
1000
1000
1000
1000
1000
1000
1000
1000
999.996
999.951
999.793
992.786
982.689
887.944
958.448
995.496
998.62
999.975
1000
997.225
996.46
997.946
999.524
999.997
999.707
996.718
993.845
994.952
999.491
999.929
998.075
993.336
979.87
940.899
884.1
802.271
690.823
688.706
717.001
745.683
796.661
847.456
836.322
828.746
831.18
830.409
826.709
812.044
789.897
779.238
777.344
767.201
741.087
699.247
655.801
619.574
580.45
532.706
454.851
447.443
497.925
499.793
500
498.862
460.025
467.159
460.991
447.551
441.303
429.138
436.366
453.785
456.469
444.413
430.943
443.55
485.239
493.183
493.228
498.183
491.507
467.296
499.89
500.156
499.896
499.978
483.415
473.582
492.417
499.991
494.465
489.773
494.288
497.088
498.721
499.317
498.001
498.126
500
500
500
500
499.137
498.87
500.154
499.897
500.36
500.03
500
500
500
500
500
500
500
500
500
500
500
500
500
500
500
500
500.001
500.005
500.006
500.001
434.641
440.251
456.109
464.334
470.888
469.161
473.255
480.623
482.356
481.628
479.459
475.962
471.029
465.199
458.405
449.479
438.734
427.862
418.237
410.728
406.277
406.43
411.142
78.6756
72.7322
94.4722
114.72
131.38
148.75
156.273
153.765
150.634
146.745
139.689
128.742
116.157
103.542
91.0749
78.6454
66.9526
56.974
49.0487
43.228
39.9068
39.4818
42.7092
1.00413
1.00015
1.00015
1.00164
1.00005
1.00014
1.00016
1.00009
1.00009
1.0001
1.00013
1.00035
1.00035
1.00006
1.00001
1
1
1
1
1.00001
1.00001
1.00002
1.00003
1.00066
1.00094
1.00115
1.00065
1.0002
1.00012
1.00008
1.00011
1.00009
1.00002
1.00002
1.00002
1.00002
1.00002
1.00002
1.00003
1.00003
1.00003
1.00003
1.00003
1.00004
1.00006
1.00011
1.00123
1.00303
1.00388
1.00129
1.00015
1.0004
1.00199
1.0069
1.00681
1.00119
1.00014
1.00014
1.00013
1.00014
1.00019
1.00016
1.00012
1.00011
1.00009
1.00007
1.00007
1.00008
1.0001
1.00145
1.00686
1.01848
1.01095
1.00017
1.00063
1.02072
1.08279
1.07962
1.00946
1.00092
1.00036
1.00043
1.00046
1.00039
1.00027
1.00015
1.00012
1.0001
1.00006
1.00006
1.00005
1.00006
1.00109
1.01388
1.02975
1.02913
1.00493
1.00102
1.04869
1.08264
1.08337
1.07915
1.00728
1.0032
1.00165
1.00123
1.00087
1.0003
1.00018
1.00014
1.00011
1.00007
1.00006
1.00004
1.00004
1.00091
1.00894
1.02853
1.02865
1.00472
1.00033
1.00991
1.07432
1.08224
1.08297
1.01708
1.00322
1.0032
1.00317
1.00191
1.00017
1.00014
1.00014
1.00012
1.00007
1.00006
1.00004
1.00003
1.00061
1.00249
1.01095
1.01082
1.00058
1.00007
1.00039
1.00702
1.03348
1.03298
1.00276
1.00265
1.00319
1.00316
1.00158
1.00011
1.00012
1.00011
1.0001
1.00007
1.00006
1.00004
1.00003
1.00049
1.00086
1.00064
1.00051
1.00016
1.00006
1.00008
1.00015
1.00006
1.00008
1.00012
1.00055
1.00174
1.00166
1.00013
1.0001
1.00012
1.00009
1.00007
1.00006
1.00005
1.00004
1.00002
1.00039
1.00044
1.00015
1.00006
1.00005
1.00005
1.00005
1.00006
1.00006
1.00008
1.00014
1.00041
1.00062
1.0003
1.00003
1.00006
1.00007
1.00006
1.00004
1.00003
1.00003
1.00003
1.00002
1.00029
1.00029
1.00015
1.00006
1.00005
1.00005
1.00005
1.00005
1.00003
1.00002
1.00007
1.00031
1.00042
1.00027
1.00005
1.00004
1.00004
1.00003
1.00002
1.00002
1.00002
1.00002
1.00001
1.00016
1.00022
1.00013
1.00006
1.00004
1.00004
1.00004
1.00003
1.00002
1.00002
1.00004
1.00015
1.00026
1.00011
1.00003
1.00002
1.00002
1.00002
1.00001
1.00001
1.00001
1.00001
1.00001
1.00011
1.00015
1.00009
1.00005
1.00004
1.00003
1.00003
1.00002
1.00002
1.00002
1.00003
1.00005
1.00005
1.00003
1.00002
1.00001
1.00001
1.00001
1.00001
1.00001
1.00001
1
1
1.00007
1.0001
1.00007
1.00004
1.00003
1.00002
1.00002
1.00002
1.00001
1.00001
1.00002
1.00002
1.00001
1.00001
1.00001
1.00001
1.00001
1.00001
1.00001
1
1
1
1
1.00005
1.00006
1.00005
1.00004
1.00003
1.00002
1.00001
1.00001
1.00001
1.00001
1.00001
1.00001
1.00001
1.00001
1
1
1
1
1
1
1
1
1
1.00004
1.00004
1.00004
1.00003
1.00002
1.00002
1.00001
1.00001
1.00001
1.00001
1
1
1
1
1
1
1
1
1
1
1
1
1
1.00004
1.00004
1.00003
1.00003
1.00002
1.00001
1.00001
1.00001
1
1
1
1
1
1
1
1
1
1
1
1
1
1
1
1.00003
1.00003
1.00002
1.00002
1.00001
1.00001
1.00001
1
1
1
1
1
1
1
1
1
1
1
1
1
1
1
1
1.00003
1.00002
1.00002
1.00001
1.00001
1.00001
1.00001
1
1
1
1
1
1
1
1
1
1
1
1
1
1
1
1
1.00002
1.00002
1.00001
1.00001
1.00001
1.00001
1
1
1
1
1
1
1
1
1
1
1
1
1
1
1
1
1
1.00002
1.00001
1.00001
1.00001
1
1
1
1
1
1
1
1
1
1
1
1
1
1
1
1
1
1
1
1.00001
1.00001
1.00001
1
1
1
1
1
1
1
1
1
1
1
1
1
1
1
1
1
1
1
1
1.00001
1.00001
1
1
1
1
1
1
1
1
1
1
1
1
1
1
1
1
1
1
1
1
1
1.00001
1.00001
1
1
1
1
1
1
1
1
1
1
1
1
1
1
1
1
1
1
1
1
1
1.00001
1
1
1
1
1
1
1
1
1
1
1
1
1
1
1
1
1
1
1
1
1
1
1
1
1
1
1
1
1
1
1
1
1
1
1
1
1
1
1
1
1
1
1
1
1
1
1
1
1
1
1
1
1
1
1
1
1
1
1
1
1
1
1
1
1
1
1
1
1
1
1
1
1
1
1
1
1
1
1
1
1
1
1
1
1
1
1
1
1
1
1
1
1
1
1
1
1
1
1
1
1
1
1
1
1
1
1
1
1
1
1
1
1
1
1
1
1
1
1
1
1
1
1
1
1
1
1
1
1
1
1
1
1
1
1
1
1
1
1
1
1
1
1
1
1
1
1
1
1
1
1
1
1
1
1
1
1
1
1
1
1
1
1
1
1
1
1
1
1
1
1
1
1
1
1
1
1
1
1
1
1
1
1
1
1
1
1
1
1
1
1
1
1
1
1
1
1
1
1
1
1
1
1
1
1
1
1
1
1
1
1
1
1
1
1
1
1
1
1
1
1
1
1
1
1
1
1
1
1
1816.68
1840.87
1243.09
1034.36
986.341
996.479
997.834
992.667
747.708
763.188
820.735
831.439
430.725
431.369
433.045
455.835
473.789
493.986
503.028
502.965
500.187
500.095
500.004
500.005
500.001
500.001
500.004
500.007
424.394
430.357
436.184
441.847
53.5739
58.8788
63.8373
68.0454
1.00004
1.00005
1.00004
1.00006
1.00012
1.00012
1.00012
1.00017
1.00012
1.00012
1.00013
1.00013
1.00008
1.0001
1.00008
1.0001
1.00005
1.00005
1.00006
1.00007
1.00003
1.00004
1.00004
1.00004
1.00002
1.00002
1.00002
1.00002
1.00002
1.00002
1.00002
1.00001
1.00001
1.00001
1.00001
1.00001
1.00001
1.00001
1.00001
1.00001
1.00001
1.00001
1
1
1
1
1
1
1
1
1
1
1
1
1
1
1
1
1
1
1
1
1
1
1
1
1
1
1
1
1
1
1
1
1
1
1
1
1
1
1
1
1
1
1
1
1
1
1
1
1
1
1
1
1
1
1
1
1
1
1
1
1
1
1
1
1
1
1
1
1
1
1
1
1
1
1
1
1
1
1
1
1
1
1
1
1
1
1
1
1
1
1024.64
1156.15
1147.46
984.663
913.414
1181.98
1173.27
985.183
999.326
999.667
1000.95
1000.96
972.45
992.215
999.9
1000.08
1000.28
942.057
814.85
999.107
1049.48
1024.54
865.097
927.456
905.748
837.021
866.069
961.943
983.042
995.805
997.159
997.43
996.383
981.023
937.109
875.595
850.824
827.678
662.211
598.942
666.819
730.019
679.666
523.286
621.981
635.6
611.501
619.097
638.008
679.82
742.113
727.901
672.929
609.868
587.135
607.143
656.341
457.698
447.675
463.581
504.372
489.855
444.027
428.488
426.691
488.311
500.494
500.008
499.994
499.973
499.962
500.337
500.758
500.901
531.404
557.203
502.852
500.071
499.997
500.006
500.325
492.154
475.487
486.116
498.86
500.039
500.034
500.018
500.002
500.001
500.037
500.176
500.208
500.534
500.27
500.006
500.007
499.986
499.935
500.004
500.02
500.002
500
500
500
500.002
500.002
500.001
500.001
499.999
499.974
499.98
500.038
500.2
500.004
500.002
500.001
500.004
500.007
500.006
500.002
500.001
500
500
500
500.001
500.024
500.064
500.009
499.998
499.998
500.03
500.055
448.19
461.723
471.193
477.342
481.841
484.857
486.388
486.767
485.69
483.773
483.332
488.834
497.502
499.991
502.988
517.873
529.652
526.899
510.485
71.5191
84.7675
97.0493
106.121
112.504
116.023
115.509
111.646
108.925
112.645
121.784
137.572
165.229
210.715
247.856
287.7
323.596
362.26
370.185
1.00013
1.00018
1.00027
1.00048
1.00097
1.00606
1.01829
1.03779
1.08835
1.09593
1.69407
2.14838
2.13583
3.03876
15.195
29.2859
40.7579
42.2778
38.6798
1.00024
1.00036
1.00107
1.08844
1.2381
1.31228
1.30753
1.14964
1.13222
1.14969
1.28336
1.65128
1.81034
2.40226
1.36533
1.16867
2.20681
1.52097
1.39407
1.00015
1.00037
1.00153
1.16969
1.48686
1.48732
1.39704
1.04178
1.0085
1.04435
1.37875
1.47377
1.45148
1.12971
1.00012
1.00011
1.00009
1.00006
1.00004
1.00011
1.00016
1.00029
1.00052
1.0108
1.05384
1.00026
1.00077
1.00105
1.01145
1.07684
1.18392
1.06009
1.02787
1.00076
1.00021
1.00024
1.00016
1.00005
1.00007
1.00007
1.00006
1.00007
1.00008
1.00012
1.00051
1.00138
1.00118
1.00112
1.00167
1.00156
1.00141
1.0011
1.00032
1.00035
1.00036
1.00026
1.00018
1.00004
1.00005
1.00006
1.00007
1.00009
1.00011
1.00013
1.00017
1.00024
1.00025
1.00025
1.0002
1.00016
1.00015
1.00021
1.00028
1.0003
1.00023
1.0002
1.00003
1.00003
1.00005
1.00008
1.00011
1.00013
1.00012
1.00013
1.00015
1.00018
1.00019
1.00016
1.00013
1.0001
1.00012
1.00016
1.00015
1.00014
1.00015
1.00001
1.00002
1.00003
1.00004
1.00007
1.0001
1.0001
1.0001
1.00009
1.0001
1.00012
1.00011
1.00009
1.00006
1.00005
1.00006
1.00007
1.00006
1.00005
1.00001
1.00001
1.00001
1.00001
1.00002
1.00003
1.00004
1.00004
1.00004
1.00004
1.00004
1.00005
1.00004
1.00003
1.00002
1.00002
1.00002
1.00001
1.00001
1.00001
1.00001
1.00001
1.00001
1.00001
1.00001
1.00001
1.00001
1.00001
1.00001
1.00002
1.00002
1.00002
1.00001
1.00001
1.00001
1.00001
1.00001
1.00001
1
1
1
1
1
1
1.00001
1.00001
1.00001
1.00001
1.00001
1.00001
1.00001
1.00001
1.00001
1.00001
1.00001
1.00001
1.00001
1
1
1
1
1
1
1
1
1
1
1
1
1
1
1
1.00001
1.00001
1.00001
1.00002
1
1
1
1
1
1
1
1
1
1
1
1
1
1
1
1.00001
1.00001
1.00002
1.00002
1
1
1
1
1
1
1
1
1
1
1
1
1
1
1
1
1.00001
1.00003
1.00004
1
1
1
1
1
1
1
1
1
1
1
1
1
1
1
1
1.00001
1.00004
1.00004
1
1
1
1
1
1
1
1
1
1
1
1
1
1
1
1
1.00001
1.00004
1.00004
1
1
1
1
1
1
1
1
1
1
1
1
1
1
1
1
1.00002
1.00005
1.00004
1
1
1
1
1
1
1
1
1
1
1
1
1
1
1
1
1.00002
1.00005
1.00002
1
1
1
1
1
1
1
1
1
1
1
1
1
1
1
1
1.00002
1.00005
1.00002
1
1
1
1
1
1
1
1
1
1
1
1
1
1
1
1
1.00002
1.00005
1.00002
1
1
1
1
1
1
1
1
1
1
1
1
1
1
1
1.00001
1.00002
1.00005
1.00001
1
1
1
1
1
1
1
1
1
1
1
1
1
1
1
1.00001
1.00002
1.00003
1.00001
1
1
1
1
1
1
1
1
1
1
1
1
1
1
1
1.00001
1.00002
1.00002
1
1
1
1
1
1
1
1
1
1
1
1
1
1
1
1
1.00001
1.00001
1
1
1
1
1
1
1
1
1
1
1
1
1
1
1
1
1
1.00001
1.00001
1.00001
1
1
1
1
1
1
1
1
1
1
1
1
1
1
1
1
1
1
1
1
1
1
1
1
1
1
1
1
1
1
1
1
1
1
1
1
1
1
1
1
1
1
1
1
1
1
1
1
1
1
1
1
1
1
1
1
1
1
1
1
1
1
1
1
1
1
1
1
1
1
1
1
1
1
1
1
1
1
1
1
1
1
1
1
1
1
1
1
1
1
1
1
1
1
1
1
1
1
1
1
1
1
1
1
1
1
1
1
1
1
1
1
1
1
1
1
1
1
1
1
1
1
1
1
1
1
1
1
1
1
1
1
1
1
1
1
1
1
1
1
1
1
1
1
1
1
1
1
1
1
1
1
1
)
;

boundaryField
{
    leftWall
    {
        type            calculated;
        value           nonuniform List<scalar> 
50
(
13529
13529
13529
13529
13329.4
5042.98
1000
1000
1000
991.197
887.944
690.823
447.443
499.89
499.897
434.641
78.6756
1.00413
1.00066
1.00123
1.00145
1.00109
1.00091
1.00061
1.00049
1.00039
1.00029
1.00016
1.00011
1.00007
1.00005
1.00004
1.00004
1.00003
1.00003
1.00002
1.00002
1.00001
1.00001
1.00001
1.00001
1
1
1
1
1
1
1
1
1
)
;
    }
    rightWall
    {
        type            calculated;
        value           nonuniform List<scalar> 
50
(
10303.8
10303.9
7466.69
3615.15
524.724
647.721
765.795
795.371
814.85
827.678
656.341
557.203
500.27
500.2
500.055
510.485
370.185
38.6798
1.39407
1.00004
1.00005
1.00018
1.0002
1.00015
1.00005
1.00001
1.00001
1.00001
1.00002
1.00002
1.00004
1.00004
1.00004
1.00004
1.00002
1.00002
1.00002
1.00001
1.00001
1
1
1
1
1
1
1
1
1
1
1
)
;
    }
    lowerWall
    {
        type            calculated;
        value           nonuniform List<scalar> 
62
(
13529
13529
13529
13529
13529
13529
13529
13529
13529
13529
13529
13529
13529
13529
13529
13529
13529
13529
13529
13528.8
13523.5
13521.6
13521.6
13521.6
13526.9
13529
13529
13529
13528.2
13521.3
10344.2
1816.68
1840.87
1243.09
1034.36
11941.8
9560.64
6323.53
2586.43
1810.33
1895.32
1236.9
1188.66
11941.8
11943.6
11949.8
11945
11931.2
10095.4
8870.55
8937.03
9169.32
9260.47
8913.21
8653.15
9208.36
10336
10342.3
10360.3
10320.5
10299.3
10303.8
)
;
    }
    atmosphere
    {
        type            calculated;
        value           nonuniform List<scalar> 
46
(
1
1
1
1
1
1
1
1
1
1
1
1
1
1
1
1
1
1
1
1
1
1
1
1
1
1
1
1
1
1
1
1
1
1
1
1
1
1
1
1
1
1
1
1
1
1
)
;
    }
    defaultFaces
    {
        type            empty;
    }
}


// ************************************************************************* //
