/*--------------------------------*- C++ -*----------------------------------*\
  =========                 |
  \\      /  F ield         | OpenFOAM: The Open Source CFD Toolbox
   \\    /   O peration     | Website:  https://openfoam.org
    \\  /    A nd           | Version:  13
     \\/     M anipulation  |
\*---------------------------------------------------------------------------*/
FoamFile
{
    format      ascii;
    class       volVectorField;
    location    "2.65";
    object      U;
}
// * * * * * * * * * * * * * * * * * * * * * * * * * * * * * * * * * * * * * //

dimensions      [0 1 -1 0 0 0 0];

internalField   nonuniform List<vector> 
2268
(
(-0.00813161 0.00319687 0)
(-0.0145767 0.000751611 0)
(-0.0143148 -0.000824468 0)
(-0.0137005 -0.00103314 0)
(-0.0130182 -0.000823716 0)
(-0.0127798 -0.000530662 0)
(-0.0129638 -0.00027079 0)
(-0.0136193 -5.92867e-05 0)
(-0.0148546 0.000148826 0)
(-0.0166397 0.000304675 0)
(-0.0187954 0.000401841 0)
(-0.0211154 0.000449179 0)
(-0.0234004 0.000452922 0)
(-0.0254981 0.00047372 0)
(-0.0274981 0.000630288 0)
(-0.0295568 0.000890966 0)
(-0.0316988 0.00118532 0)
(-0.033882 0.00160212 0)
(-0.0361947 0.00207946 0)
(-0.0386786 0.00225654 0)
(-0.040037 0.00112911 0)
(-0.0372129 -0.00249847 0)
(-0.0207311 -0.0104477 0)
(-0.00472746 0.00745953 0)
(-0.00701665 0.00197755 0)
(-0.00739351 0.000111648 0)
(-0.00826651 -0.000213987 0)
(-0.00898251 -7.13078e-05 0)
(-0.00980956 0.000196431 0)
(-0.0108293 0.000487879 0)
(-0.0121746 0.000821832 0)
(-0.0140123 0.00123073 0)
(-0.0163869 0.0015729 0)
(-0.0191622 0.00177982 0)
(-0.0221427 0.00183199 0)
(-0.0251038 0.00174552 0)
(-0.0278385 0.00161791 0)
(-0.0303213 0.00159015 0)
(-0.0325234 0.00157205 0)
(-0.0342259 0.00147407 0)
(-0.0351705 0.00137376 0)
(-0.0352601 0.00127269 0)
(-0.0344045 0.000670215 0)
(-0.0316786 -0.0015736 0)
(-0.0274406 -0.00688443 0)
(-0.0138312 -0.0199373 0)
(-0.000666092 0.00908709 0)
(-0.00200778 0.00240602 0)
(-0.00319774 0.000609738 0)
(-0.0049777 0.000325446 0)
(-0.00646255 0.000441167 0)
(-0.00784432 0.000719809 0)
(-0.00927943 0.00109728 0)
(-0.010969 0.00162422 0)
(-0.0131153 0.00228769 0)
(-0.0157837 0.0028481 0)
(-0.0188667 0.00319237 0)
(-0.0221866 0.00327966 0)
(-0.025516 0.00312492 0)
(-0.0286211 0.00285572 0)
(-0.0314026 0.00267953 0)
(-0.0337087 0.00241467 0)
(-0.0351742 0.00193327 0)
(-0.0354108 0.0013375 0)
(-0.0342302 0.00069799 0)
(-0.0315454 -0.000558955 0)
(-0.0267925 -0.00366053 0)
(-0.0214934 -0.0105374 0)
(-0.00883665 -0.0277567 0)
(0.00358664 0.00890789 0)
(0.00163587 0.00300862 0)
(-0.000268435 0.00156043 0)
(-0.0026024 0.0012165 0)
(-0.00451623 0.00122034 0)
(-0.0061894 0.00147134 0)
(-0.00785292 0.00192166 0)
(-0.00976154 0.00262418 0)
(-0.0121094 0.00353555 0)
(-0.0149523 0.00432441 0)
(-0.0182097 0.00483316 0)
(-0.0217307 0.0049873 0)
(-0.025297 0.00477623 0)
(-0.0286367 0.00438419 0)
(-0.0315985 0.00396703 0)
(-0.0339543 0.00331484 0)
(-0.0352281 0.00225639 0)
(-0.0349575 0.000938615 0)
(-0.0329216 -0.000455276 0)
(-0.0290817 -0.00252128 0)
(-0.0231457 -0.00648112 0)
(-0.0171122 -0.0144154 0)
(-0.0052208 -0.0339973 0)
(0.00670177 0.00534074 0)
(0.00371584 0.00316253 0)
(0.00165016 0.00236027 0)
(-0.000838775 0.00198207 0)
(-0.00287563 0.00188952 0)
(-0.00464432 0.00212563 0)
(-0.00640563 0.00265532 0)
(-0.00846272 0.00353382 0)
(-0.0109481 0.00469015 0)
(-0.0138598 0.00572331 0)
(-0.017169 0.00644765 0)
(-0.0207711 0.006737 0)
(-0.0244522 0.00653639 0)
(-0.0279479 0.00599154 0)
(-0.0310167 0.00532242 0)
(-0.0333205 0.00419731 0)
(-0.0343589 0.00242706 0)
(-0.0336496 0.00023863 0)
(-0.0309645 -0.00206405 0)
(-0.0263256 -0.00504389 0)
(-0.0196781 -0.00979366 0)
(-0.0132665 -0.0184051 0)
(-0.00240436 -0.0388348 0)
(0.00706688 0.00392898 0)
(0.00381467 0.00401255 0)
(0.00258802 0.0035363 0)
(0.000586432 0.00300508 0)
(-0.00110544 0.00272317 0)
(-0.00265879 0.00287469 0)
(-0.00441143 0.00343346 0)
(-0.00674738 0.00442528 0)
(-0.00946101 0.00568385 0)
(-0.0124012 0.00683323 0)
(-0.0156719 0.00767596 0)
(-0.0192442 0.00805712 0)
(-0.022983 0.00789135 0)
(-0.0265163 0.00727023 0)
(-0.0295201 0.00642179 0)
(-0.0316296 0.00488551 0)
(-0.0323177 0.00240647 0)
(-0.0312027 -0.000730086 0)
(-0.028031 -0.00406341 0)
(-0.0227813 -0.00800386 0)
(-0.0156282 -0.0134322 0)
(-0.00900567 -0.0222679 0)
(0.00089022 -0.0417831 0)
(0.00576332 0.00455219 0)
(0.00380678 0.00543415 0)
(0.00455724 0.00492795 0)
(0.00407873 0.00427369 0)
(0.00320947 0.00382212 0)
(0.00183442 0.0039101 0)
(-0.000324832 0.00454156 0)
(-0.00356273 0.00574868 0)
(-0.00681418 0.00701911 0)
(-0.00990343 0.00824669 0)
(-0.0131598 0.00920289 0)
(-0.016625 0.00965551 0)
(-0.0202346 0.00947379 0)
(-0.0237303 0.00866071 0)
(-0.0266561 0.00742391 0)
(-0.0283946 0.00536321 0)
(-0.0285994 0.00225115 0)
(-0.0271689 -0.00161692 0)
(-0.0236392 -0.00583214 0)
(-0.01782 -0.0105898 0)
(-0.0101352 -0.0164975 0)
(-0.00302607 -0.0250621 0)
(0.00646056 -0.0403636 0)
(0.0053946 -8.30197e-05 0)
(0.00607899 0.0039953 0)
(0.00987999 0.00399578 0)
(0.0125793 0.00397179 0)
(0.0144737 0.00406649 0)
(0.0153862 0.00479053 0)
(0.0150854 0.0063873 0)
(0.0132539 0.00841323 0)
(0.00963414 0.00968961 0)
(0.00511192 0.0108485 0)
(0.000120506 0.0116735 0)
(-0.00513272 0.0118658 0)
(-0.0105299 0.0113502 0)
(-0.0158696 0.00995949 0)
(-0.020125 0.00839864 0)
(-0.0221057 0.00585563 0)
(-0.021931 0.00211061 0)
(-0.0200653 -0.00245576 0)
(-0.0160858 -0.00760869 0)
(-0.0100285 -0.013243 0)
(-0.00212296 -0.0197672 0)
(0.005355 -0.0281866 0)
(0.0148273 -0.0380073 0)
(-0.027886 0.0125585 0)
(-0.0744772 0.0133987 0)
(-0.107994 0.00840315 0)
(-0.121072 0.00224776 0)
(-0.112976 -0.00564932 0)
(-0.095831 -0.00699124 0)
(-0.0837806 -0.000576984 0)
(-0.0744933 -0.00459421 0)
(-0.0566207 -0.00838816 0)
(-0.037405 -0.0090217 0)
(-0.0216986 -0.00467008 0)
(-0.0213346 0.00551799 0)
(-0.0301615 0.00137581 0)
(-0.024217 -0.00549156 0)
(-0.0168791 -0.00179788 0)
(-0.0129369 -0.00315834 0)
(-0.00689178 -0.00292327 0)
(-0.00174449 -0.00301268 0)
(0.00631677 0.00125119 0)
(-0.0311346 0.0297114 0)
(-0.069962 0.0251451 0)
(-0.0938584 0.0133954 0)
(-0.101347 0.00296386 0)
(-0.0987857 -0.00753346 0)
(-0.0913259 -0.0104955 0)
(-0.0785155 -0.00723081 0)
(-0.0623011 -0.00981343 0)
(-0.0476934 -0.0112853 0)
(-0.0385786 -0.0106226 0)
(-0.0330401 -0.00593421 0)
(-0.0246872 0.00218736 0)
(-0.0169254 -0.00139169 0)
(-0.0145583 -0.00418027 0)
(-0.0157178 -0.00147965 0)
(-0.0146659 -0.00341127 0)
(-0.0124594 -0.00287532 0)
(-0.00998962 -0.00238164 0)
(-0.00640968 0.000339149 0)
(-0.0313445 0.048851 0)
(-0.0585236 0.0365103 0)
(-0.0744954 0.0177535 0)
(-0.076817 0.00331611 0)
(-0.0747474 -0.00785569 0)
(-0.0746931 -0.0119844 0)
(-0.0667228 -0.0122124 0)
(-0.0517673 -0.0144015 0)
(-0.0382746 -0.0145987 0)
(-0.0340783 -0.011718 0)
(-0.033802 -0.00769407 0)
(-0.0240822 -0.00203418 0)
(-0.0134482 -0.00378192 0)
(-0.012912 -0.00352093 0)
(-0.0150316 -0.00143106 0)
(-0.0151208 -0.00345344 0)
(-0.0152357 -0.00327199 0)
(-0.0122879 -0.00342238 0)
(-0.0129874 -0.00586029 0)
(-0.0277385 0.0705867 0)
(-0.0418558 0.045954 0)
(-0.050116 0.0206493 0)
(-0.0480044 0.00109928 0)
(-0.04368 -0.00938905 0)
(-0.050407 -0.011625 0)
(-0.049744 -0.0168086 0)
(-0.0371346 -0.0193147 0)
(-0.0224441 -0.0187886 0)
(-0.0199713 -0.010748 0)
(-0.0248373 -0.00835493 0)
(-0.0176176 -0.00619689 0)
(-0.0113148 -0.00509403 0)
(-0.016088 -0.00231337 0)
(-0.018176 -0.000910839 0)
(-0.0151679 -0.00265955 0)
(-0.010286 -0.00339594 0)
(0.00279501 -0.0052808 0)
(0.0106947 -0.0118083 0)
(-0.0113972 0.0810106 0)
(-0.0177079 0.0503768 0)
(-0.0197404 0.0223777 0)
(-0.0228233 -0.000154385 0)
(-0.0202365 -0.0113253 0)
(-0.0193591 -0.00833627 0)
(-0.0215387 -0.0204152 0)
(-0.0116782 -0.0264332 0)
(0.000852905 -0.0256309 0)
(0.00602094 -0.00999397 0)
(-0.00106681 -0.00751193 0)
(-0.000648934 -0.00866318 0)
(-0.00972179 -0.00335001 0)
(-0.0313512 0.00107798 0)
(-0.0329519 -0.00209254 0)
(-0.0126954 -0.0082159 0)
(0.0153485 -0.0119028 0)
(0.0457316 -0.0176995 0)
(0.0836834 0.00771544 0)
(0.00594831 0.0816021 0)
(0.010421 0.0509232 0)
(0.0122785 0.0235457 0)
(-0.000397307 0.00317599 0)
(-0.00909246 -0.0115925 0)
(-0.00497436 -0.00989929 0)
(0.00167799 -0.0224447 0)
(0.00943099 -0.0307219 0)
(0.0122621 -0.027291 0)
(0.0117386 -0.0095565 0)
(0.0122062 -0.00742753 0)
(0.0199499 -0.00971479 0)
(-0.00488742 0.0103596 0)
(-0.0450119 0.00669741 0)
(-0.0304595 -0.0134679 0)
(-0.00193823 -0.0223873 0)
(0.0301215 -0.0290815 0)
(0.0564994 -0.0379757 0)
(0.0880919 0.0437563 0)
(0.0311639 0.075318 0)
(0.044255 0.0477706 0)
(0.046192 0.0260326 0)
(0.0266357 0.0105996 0)
(0.0051598 -0.00866582 0)
(0.00524667 -0.0132187 0)
(0.0142026 -0.0243422 0)
(0.0175936 -0.0316277 0)
(0.0125717 -0.0252615 0)
(0.00682629 -0.00905611 0)
(0.00691279 -0.00832977 0)
(0.0100229 -0.00894864 0)
(-0.00236582 0.0365998 0)
(-0.0236881 0.00902117 0)
(-0.0107905 -0.0221026 0)
(0.00825399 -0.032386 0)
(0.0320586 -0.0402635 0)
(0.0431718 -0.0450913 0)
(0.0672898 0.0706396 0)
(0.0714709 0.0442815 0)
(0.0786338 0.0407745 0)
(0.0791807 0.0298816 0)
(0.057159 0.0212742 0)
(0.0268322 -0.00112002 0)
(0.0194119 -0.0149549 0)
(0.0223221 -0.0255054 0)
(0.0187519 -0.0299468 0)
(0.00772197 -0.0210395 0)
(0.00099972 -0.00857405 0)
(0.000819733 -0.00831876 0)
(-0.00272669 -0.00722753 0)
(-0.00491326 0.0354374 0)
(-0.000161266 0.00685535 0)
(0.00720165 -0.0270658 0)
(0.0155542 -0.0390071 0)
(0.0280913 -0.0468076 0)
(0.0243023 -0.0463397 0)
(0.0447527 0.0901369 0)
(0.00427162 -0.00276852 0)
(0.00833222 -0.000564412 0)
(0.0156204 -0.000126866 0)
(0.0216128 0.000786285 0)
(0.0263809 0.00179835 0)
(0.0298787 0.00342144 0)
(0.0320115 0.00597285 0)
(0.0327765 0.00900894 0)
(0.0322884 0.0115801 0)
(0.0309189 0.0138114 0)
(0.0289636 0.015693 0)
(0.0265123 0.0170475 0)
(0.0235568 0.0176682 0)
(0.0199198 0.0168476 0)
(0.0155097 0.0136318 0)
(0.0105753 0.00811739 0)
(0.00640002 0.00177874 0)
(0.00412021 -0.00463535 0)
(0.00412152 -0.011477 0)
(0.00782637 -0.0182612 0)
(0.0156102 -0.0258901 0)
(0.0252795 -0.0349922 0)
(0.0381656 -0.0485652 0)
(0.0010146 -0.00712141 0)
(0.00719508 -0.00984692 0)
(0.0166011 -0.00910397 0)
(0.024364 -0.00641722 0)
(0.0307638 -0.00396408 0)
(0.0360298 -0.000977338 0)
(0.0399519 0.00313802 0)
(0.0424254 0.00738554 0)
(0.0437122 0.0108606 0)
(0.0442202 0.013494 0)
(0.0442737 0.0154084 0)
(0.0440628 0.0166968 0)
(0.0437466 0.0173294 0)
(0.0436045 0.0168689 0)
(0.0440249 0.0148377 0)
(0.0452393 0.010679 0)
(0.0473968 0.00443379 0)
(0.0507517 -0.00392686 0)
(0.0556448 -0.0146959 0)
(0.0623341 -0.0275159 0)
(0.0702622 -0.0400951 0)
(0.0786443 -0.0505779 0)
(0.0842698 -0.058792 0)
(0.00591074 -0.0116235 0)
(0.0100885 -0.0182584 0)
(0.0170131 -0.0173734 0)
(0.0233971 -0.0134163 0)
(0.0293536 -0.0101669 0)
(0.0347891 -0.00630401 0)
(0.0392127 -0.000710531 0)
(0.0423679 0.00483952 0)
(0.0444701 0.00924115 0)
(0.0458924 0.0124102 0)
(0.0469575 0.0145655 0)
(0.0479864 0.0158561 0)
(0.0492513 0.0162741 0)
(0.0510232 0.0152485 0)
(0.0535434 0.0122621 0)
(0.0568213 0.00715564 0)
(0.0608578 -1.12292e-05 0)
(0.0657298 -0.00910988 0)
(0.0712834 -0.0197463 0)
(0.0770477 -0.0316717 0)
(0.0822136 -0.0428532 0)
(0.0851621 -0.0508046 0)
(0.0821755 -0.0532472 0)
(0.00768277 -0.021264 0)
(0.0116327 -0.0246062 0)
(0.0172657 -0.0227537 0)
(0.0223763 -0.0184887 0)
(0.0270675 -0.0150661 0)
(0.0305401 -0.0103415 0)
(0.0335292 -0.00421238 0)
(0.0366303 0.00217832 0)
(0.0391541 0.00736139 0)
(0.0409932 0.0109751 0)
(0.0424946 0.0133894 0)
(0.0440521 0.0144417 0)
(0.0462923 0.0142764 0)
(0.0493445 0.0125375 0)
(0.0527187 0.00900672 0)
(0.0560593 0.00356894 0)
(0.0594218 -0.00420609 0)
(0.0632383 -0.0141516 0)
(0.067164 -0.0247198 0)
(0.0697313 -0.035724 0)
(0.0699382 -0.0448454 0)
(0.0668264 -0.04878 0)
(0.0587857 -0.0439446 0)
(0.00179235 -0.0203828 0)
(0.00844763 -0.0300901 0)
(0.0135039 -0.0271454 0)
(0.0179648 -0.0227666 0)
(0.0210888 -0.0180547 0)
(0.0222681 -0.0115863 0)
(0.023383 -0.00665348 0)
(0.0259365 -0.000538035 0)
(0.0288306 0.00524546 0)
(0.031215 0.00928975 0)
(0.0332422 0.0118185 0)
(0.0354612 0.012281 0)
(0.0382457 0.0111667 0)
(0.0414927 0.00897339 0)
(0.044723 0.00558275 0)
(0.0474187 0.000417064 0)
(0.049426 -0.00744871 0)
(0.0508343 -0.0177031 0)
(0.0514915 -0.0269194 0)
(0.0503804 -0.0354071 0)
(0.0466973 -0.0412838 0)
(0.0406195 -0.0413707 0)
(0.0333823 -0.0342302 0)
(0.000752736 -0.0293388 0)
(0.00296916 -0.0345829 0)
(0.00326121 -0.0309963 0)
(0.00531887 -0.0263377 0)
(0.00713198 -0.0199197 0)
(0.00875872 -0.0127264 0)
(0.0106818 -0.00876911 0)
(0.0130317 -0.00364677 0)
(0.0158186 0.00211652 0)
(0.0185883 0.00646915 0)
(0.0213931 0.00889563 0)
(0.0242692 0.00927569 0)
(0.0269886 0.00797596 0)
(0.0295698 0.00573282 0)
(0.0320681 0.0026183 0)
(0.0345166 -0.00195981 0)
(0.0364802 -0.00862787 0)
(0.0370988 -0.0174196 0)
(0.0360073 -0.0252678 0)
(0.0333884 -0.0316886 0)
(0.0290381 -0.0355256 0)
(0.0235011 -0.0349066 0)
(0.0188843 -0.0298719 0)
(-0.0063189 -0.0284789 0)
(-0.00867792 -0.0339042 0)
(-0.00941654 -0.0332344 0)
(-0.00780759 -0.0291228 0)
(-0.00545317 -0.0227468 0)
(-0.00229201 -0.0159893 0)
(0.00085779 -0.0114899 0)
(0.00359376 -0.00647965 0)
(0.00654335 -0.000950611 0)
(0.00977581 0.00342992 0)
(0.0130425 0.00586448 0)
(0.0161317 0.00644731 0)
(0.0188746 0.00552565 0)
(0.0213094 0.00344621 0)
(0.0236363 0.00035778 0)
(0.0257751 -0.00400178 0)
(0.0271725 -0.00974633 0)
(0.0271377 -0.016731 0)
(0.0255936 -0.0232513 0)
(0.022795 -0.0283434 0)
(0.0189256 -0.0310962 0)
(0.0147573 -0.030761 0)
(0.0117367 -0.0280991 0)
(-0.0133268 -0.0271038 0)
(-0.0195497 -0.0314846 0)
(-0.020766 -0.0331939 0)
(-0.0181514 -0.0300437 0)
(-0.0145664 -0.024692 0)
(-0.0104049 -0.0187984 0)
(-0.00614222 -0.0139139 0)
(-0.00243547 -0.00882971 0)
(0.000998623 -0.00363408 0)
(0.00452971 0.00048222 0)
(0.00815109 0.00296001 0)
(0.0115917 0.00385932 0)
(0.0146068 0.00330295 0)
(0.0172361 0.00152417 0)
(0.0195841 -0.00130283 0)
(0.0215299 -0.00511335 0)
(0.0226952 -0.00971727 0)
(0.0225983 -0.0152221 0)
(0.0210677 -0.020473 0)
(0.0183152 -0.0245805 0)
(0.0147412 -0.0268749 0)
(0.0113223 -0.0271585 0)
(0.00909242 -0.0261859 0)
(-0.0177428 0.000145321 0)
(-0.0266449 -0.0209218 0)
(-0.0302523 -0.0326363 0)
(-0.027073 -0.0307919 0)
(-0.0222778 -0.0259802 0)
(-0.0164992 -0.021052 0)
(-0.0105884 -0.0163032 0)
(-0.00593482 -0.0110487 0)
(-0.00194804 -0.00605189 0)
(0.00226798 -0.00228445 0)
(0.00671398 0.000124867 0)
(0.011018 0.00124124 0)
(0.0149013 0.00103299 0)
(0.0183451 -0.00043756 0)
(0.0214331 -0.00291744 0)
(0.0240122 -0.00611838 0)
(0.0256942 -0.00990129 0)
(0.0258385 -0.0144709 0)
(0.024 -0.018906 0)
(0.0203159 -0.0223873 0)
(0.0153028 -0.0243936 0)
(0.0102386 -0.0248352 0)
(0.0060038 -0.0237944 0)
(0.003602 0.0266573 0)
(-0.0011039 -0.00272815 0)
(-0.0215564 -0.029998 0)
(-0.0294511 -0.0293827 0)
(-0.0257767 -0.0256266 0)
(-0.02034 -0.0225482 0)
(-0.0153947 -0.0183097 0)
(-0.0108257 -0.012806 0)
(-0.00577034 -0.00820442 0)
(-0.000479709 -0.00503575 0)
(0.00467448 -0.00310616 0)
(0.00959185 -0.00188334 0)
(0.0141989 -0.00180455 0)
(0.0182053 -0.00295248 0)
(0.0214953 -0.00493131 0)
(0.0239183 -0.00736205 0)
(0.0253658 -0.00981832 0)
(0.0251431 -0.0125162 0)
(0.0226595 -0.0147666 0)
(0.0184052 -0.0162141 0)
(0.0132145 -0.0171288 0)
(0.00840812 -0.0179323 0)
(0.00519562 -0.0192003 0)
(0.0337964 -0.00279513 0)
(0.025841 0.00984502 0)
(0.00888508 -0.0206985 0)
(-0.00671761 -0.0408816 0)
(-0.0209738 -0.0468674 0)
(-0.0314948 -0.0443371 0)
(-0.0373588 -0.0372569 0)
(-0.0386609 -0.0292632 0)
(-0.036721 -0.0232931 0)
(-0.0338962 -0.0187957 0)
(-0.0314412 -0.015618 0)
(-0.0292711 -0.0132591 0)
(-0.0269845 -0.012119 0)
(-0.024493 -0.0123187 0)
(-0.0219391 -0.0134542 0)
(-0.0195511 -0.0146349 0)
(-0.0175177 -0.0148643 0)
(-0.0160947 -0.0140577 0)
(-0.0154756 -0.0126756 0)
(-0.0156493 -0.0117303 0)
(-0.016046 -0.012601 0)
(-0.0172192 -0.0161495 0)
(-0.0188489 -0.0186339 0)
(-0.00306634 -0.0264593 0)
(0.00858867 0.0105932 0)
(-0.00271052 0.00167938 0)
(-0.017554 -0.0105166 0)
(-0.0335064 -0.0166816 0)
(-0.047102 -0.0195571 0)
(-0.0560424 -0.0208036 0)
(-0.0592009 -0.0211243 0)
(-0.058035 -0.0191248 0)
(-0.055627 -0.0151894 0)
(-0.0538109 -0.0119139 0)
(-0.0524611 -0.0101809 0)
(-0.0509863 -0.00986018 0)
(-0.0491893 -0.0107127 0)
(-0.0472563 -0.012216 0)
(-0.0453479 -0.0137697 0)
(-0.0434687 -0.0148652 0)
(-0.0415616 -0.0153112 0)
(-0.0395609 -0.0153122 0)
(-0.0373199 -0.0154131 0)
(-0.0346933 -0.0163581 0)
(-0.0328302 -0.0187433 0)
(-0.0317465 -0.0206336 0)
(-0.0225103 -0.0144639 0)
(-0.0165202 0.0116367 0)
(-0.0236986 0.0109259 0)
(-0.0335555 0.00466495 0)
(-0.0457798 -0.0011369 0)
(-0.0575172 -0.00702802 0)
(-0.0659126 -0.0134443 0)
(-0.06978 -0.019216 0)
(-0.070114 -0.0199604 0)
(-0.0686326 -0.0168293 0)
(-0.0671869 -0.012756 0)
(-0.0663532 -0.0110462 0)
(-0.0653607 -0.0110132 0)
(-0.0640581 -0.0120706 0)
(-0.0625346 -0.0136103 0)
(-0.0609296 -0.0151355 0)
(-0.0591659 -0.0163128 0)
(-0.0570565 -0.0170425 0)
(-0.0544287 -0.0174883 0)
(-0.051234 -0.0180468 0)
(-0.0474786 -0.0192262 0)
(-0.0443118 -0.0212618 0)
(-0.0424795 -0.0238327 0)
(-0.0265584 0.00589426 0)
(-0.0282025 0.0208523 0)
(-0.0360095 0.019143 0)
(-0.0437875 0.0142838 0)
(-0.0525084 0.00923543 0)
(-0.0610249 0.00202566 0)
(-0.0680253 -0.00761764 0)
(-0.0725611 -0.0165961 0)
(-0.0747717 -0.0199784 0)
(-0.0747498 -0.0183224 0)
(-0.0738268 -0.0138716 0)
(-0.0730285 -0.0120854 0)
(-0.0719988 -0.012391 0)
(-0.0706982 -0.0136389 0)
(-0.0692187 -0.0152708 0)
(-0.0676445 -0.0168675 0)
(-0.0658841 -0.01824 0)
(-0.0637638 -0.0192857 0)
(-0.0611654 -0.0201198 0)
(-0.0581003 -0.0210232 0)
(-0.0546238 -0.0223103 0)
(-0.0516704 -0.0242772 0)
(-0.050276 -0.0275126 0)
(-0.0221424 0.0288659 0)
(-0.028974 0.0313873 0)
(-0.0380929 0.02628 0)
(-0.0456105 0.0209439 0)
(-0.0522541 0.0160045 0)
(-0.0581236 0.00814676 0)
(-0.0635356 -0.00231047 0)
(-0.0686681 -0.0126753 0)
(-0.0724183 -0.0179415 0)
(-0.0743286 -0.0183364 0)
(-0.0746982 -0.0143793 0)
(-0.0738496 -0.0130872 0)
(-0.0727482 -0.0136311 0)
(-0.0713723 -0.0150911 0)
(-0.0699678 -0.0168388 0)
(-0.0685036 -0.0186001 0)
(-0.0669026 -0.0202819 0)
(-0.0650371 -0.0217547 0)
(-0.0628317 -0.0230714 0)
(-0.0603149 -0.0243841 0)
(-0.0575228 -0.025893 0)
(-0.0551895 -0.027792 0)
(-0.0544283 -0.0310591 0)
(-0.017165 0.047942 0)
(-0.0244868 0.0430929 0)
(-0.0337706 0.0347724 0)
(-0.0412021 0.0277413 0)
(-0.0468068 0.0213365 0)
(-0.051137 0.0127893 0)
(-0.0553597 0.00260882 0)
(-0.0601821 -0.00775547 0)
(-0.0650563 -0.0142772 0)
(-0.0685693 -0.0163383 0)
(-0.0700249 -0.0143608 0)
(-0.0697471 -0.013955 0)
(-0.0687307 -0.0148326 0)
(-0.0676511 -0.0164059 0)
(-0.0664972 -0.0181755 0)
(-0.0653172 -0.020035 0)
(-0.0640473 -0.0218799 0)
(-0.0626125 -0.0235983 0)
(-0.0609737 -0.0251884 0)
(-0.0591675 -0.0267304 0)
(-0.0571525 -0.0283329 0)
(-0.0556559 -0.0301809 0)
(-0.055713 -0.0332679 0)
(-0.0123421 0.063751 0)
(-0.0185992 0.0536271 0)
(-0.026657 0.0430331 0)
(-0.0331886 0.0340735 0)
(-0.0380867 0.0258432 0)
(-0.0418455 0.0166616 0)
(-0.0455586 0.00673712 0)
(-0.0499496 -0.0026973 0)
(-0.0546975 -0.00977986 0)
(-0.05883 -0.0130537 0)
(-0.0610658 -0.0136043 0)
(-0.0615236 -0.0142555 0)
(-0.0612956 -0.0156184 0)
(-0.0607454 -0.0172991 0)
(-0.0600949 -0.0191305 0)
(-0.059372 -0.0210604 0)
(-0.0585678 -0.0229935 0)
(-0.0576712 -0.0248377 0)
(-0.0566577 -0.0265697 0)
(-0.0555616 -0.0282182 0)
(-0.0543587 -0.0298437 0)
(-0.0536827 -0.0315798 0)
(-0.0545704 -0.0344059 0)
(-0.00780154 0.0750914 0)
(-0.0124267 0.0618395 0)
(-0.0186498 0.049817 0)
(-0.0238431 0.0394191 0)
(-0.0280047 0.0298765 0)
(-0.0314939 0.0202407 0)
(-0.0349963 0.0105934 0)
(-0.0389847 0.00171099 0)
(-0.0433494 -0.00524358 0)
(-0.0472445 -0.00966743 0)
(-0.0498675 -0.0119414 0)
(-0.0511942 -0.0137808 0)
(-0.0517307 -0.0156341 0)
(-0.0518926 -0.0175631 0)
(-0.0518432 -0.0195408 0)
(-0.0516638 -0.0215582 0)
(-0.0514043 -0.0235596 0)
(-0.0510653 -0.0254745 0)
(-0.0506582 -0.0272755 0)
(-0.0502354 -0.028959 0)
(-0.049719 -0.0305457 0)
(-0.0498125 -0.0321358 0)
(-0.0514476 -0.0346579 0)
(-0.00382775 0.0817269 0)
(-0.00665403 0.0674354 0)
(-0.0109099 0.0547547 0)
(-0.0147168 0.0436503 0)
(-0.0180939 0.0334311 0)
(-0.0212105 0.0236001 0)
(-0.0244558 0.0142005 0)
(-0.028071 0.00570052 0)
(-0.0319292 -0.0012513 0)
(-0.0355291 -0.00630074 0)
(-0.0383067 -0.00979262 0)
(-0.0401588 -0.0125027 0)
(-0.041357 -0.0149143 0)
(-0.0421419 -0.0171767 0)
(-0.0426666 -0.0193562 0)
(-0.0430269 -0.0214993 0)
(-0.0432814 -0.0235737 0)
(-0.0434596 -0.025545 0)
(-0.0435879 -0.0273817 0)
(-0.0437154 -0.0290625 0)
(-0.0438097 -0.0305804 0)
(-0.0444829 -0.0319996 0)
(-0.0466705 -0.0342338 0)
(-0.000753549 0.0843173 0)
(-0.00189245 0.0705199 0)
(-0.00431057 0.0579746 0)
(-0.00678087 0.0467503 0)
(-0.00930336 0.0363813 0)
(-0.0119071 0.0266004 0)
(-0.0147527 0.0174587 0)
(-0.017926 0.00924774 0)
(-0.0213009 0.00232596 0)
(-0.0245477 -0.0031475 0)
(-0.0272939 -0.00734916 0)
(-0.0294299 -0.0107369 0)
(-0.0310547 -0.0136415 0)
(-0.0323047 -0.0162416 0)
(-0.033288 -0.0186548 0)
(-0.0340903 -0.0209401 0)
(-0.0347747 -0.023105 0)
(-0.0353766 -0.0251316 0)
(-0.0359333 -0.0269918 0)
(-0.0365116 -0.028654 0)
(-0.0370284 -0.0300888 0)
(-0.0381643 -0.031344 0)
(-0.0407422 -0.033327 0)
(0.00120212 0.083873 0)
(0.0014711 0.0715019 0)
(0.000663451 0.0596396 0)
(-0.000572478 0.0487559 0)
(-0.00219878 0.0386006 0)
(-0.00415699 0.0290769 0)
(-0.00646719 0.0202494 0)
(-0.00911686 0.0123044 0)
(-0.0119765 0.00544776 0)
(-0.0148132 -0.000238717 0)
(-0.0173913 -0.00488093 0)
(-0.0195822 -0.00873209 0)
(-0.0214089 -0.0120266 0)
(-0.0229309 -0.0149314 0)
(-0.0242155 -0.017566 0)
(-0.0253286 -0.0200017 0)
(-0.0263223 -0.0222635 0)
(-0.0272333 -0.0243471 0)
(-0.0281018 -0.0262284 0)
(-0.0289792 -0.0278672 0)
(-0.0298342 -0.0292249 0)
(-0.0312367 -0.0303293 0)
(-0.0340156 -0.032113 0)
(0.00212269 0.0816606 0)
(0.00342426 0.0709084 0)
(0.00389132 0.0599653 0)
(0.0037444 0.0496887 0)
(0.00301701 0.0400003 0)
(0.00179207 0.0308976 0)
(0.000122506 0.0224579 0)
(-0.00192529 0.0148092 0)
(-0.004223 0.00807943 0)
(-0.006592 0.00231616 0)
(-0.00886647 -0.00255601 0)
(-0.0109307 -0.00670091 0)
(-0.0127607 -0.0102767 0)
(-0.0143716 -0.0134231 0)
(-0.0157967 -0.0162478 0)
(-0.0170777 -0.0188208 0)
(-0.0182531 -0.0211752 0)
(-0.0193524 -0.0233141 0)
(-0.020412 -0.0252152 0)
(-0.0214953 -0.0268347 0)
(-0.0225142 -0.0281249 0)
(-0.0240974 -0.0291064 0)
(-0.026983 -0.0307356 0)
(0.0022519 0.0787075 0)
(0.00421761 0.0692552 0)
(0.00559899 0.0592347 0)
(0.00634648 0.0496768 0)
(0.00645139 0.0405803 0)
(0.00598018 0.0319895 0)
(0.00500744 0.0239898 0)
(0.00361783 0.0166837 0)
(0.00192758 0.0101576 0)
(7.96093e-05 0.00444137 0)
(-0.00179232 -0.000512552 0)
(-0.00359412 -0.0048109 0)
(-0.00527227 -0.00856537 0)
(-0.00681884 -0.0118813 0)
(-0.0082411 -0.0148491 0)
(-0.00955933 -0.017532 0)
(-0.0107968 -0.0199634 0)
(-0.0119749 -0.022149 0)
(-0.0131241 -0.0240662 0)
(-0.0142854 -0.0256701 0)
(-0.0154216 -0.026906 0)
(-0.017038 -0.0277879 0)
(-0.0198918 -0.0293057 0)
(0.00192041 0.0757166 0)
(0.00423367 0.0670003 0)
(0.00619235 0.0577299 0)
(0.00762151 0.0488657 0)
(0.00844283 0.040393 0)
(0.00867876 0.0323568 0)
(0.00839268 0.0248345 0)
(0.00766485 0.0179083 0)
(0.00659632 0.0116418 0)
(0.00530316 0.00605891 0)
(0.00389481 0.00113447 0)
(0.00244947 -0.00319673 0)
(0.00103002 -0.00702867 0)
(-0.000340088 -0.0104344 0)
(-0.00164818 -0.0134904 0)
(-0.00289721 -0.0162475 0)
(-0.00409883 -0.0187328 0)
(-0.00526357 -0.0209497 0)
(-0.00641425 -0.0228753 0)
(-0.00759827 -0.0244619 0)
(-0.0087193 -0.0256487 0)
(-0.010345 -0.0264502 0)
(-0.0131162 -0.0278948 0)
(0.00142668 0.0730728 0)
(0.00384669 0.0644918 0)
(0.0061197 0.0557154 0)
(0.0080269 0.0474327 0)
(0.00941971 0.0395426 0)
(0.0102676 0.032053 0)
(0.0106059 0.0250174 0)
(0.0104967 0.0184962 0)
(0.0100217 0.0125364 0)
(0.00927402 0.00715793 0)
(0.00834397 0.0023476 0)
(0.00730237 -0.00193488 0)
(0.00620596 -0.00576342 0)
(0.00508927 -0.00919404 0)
(0.00397385 -0.012281 0)
(0.00286781 -0.0150649 0)
(0.00177257 -0.0175681 0)
(0.000686215 -0.0197905 0)
(-0.000405526 -0.0217093 0)
(-0.00152329 -0.0232722 0)
(-0.00262734 -0.0244134 0)
(-0.00417469 -0.0251433 0)
(-0.00677944 -0.0265477 0)
(0.000972927 0.0708856 0)
(0.00336264 0.0619458 0)
(0.0057693 0.0534026 0)
(0.00798368 0.0455523 0)
(0.00979946 0.0381624 0)
(0.0111379 0.0311777 0)
(0.0120021 0.0246132 0)
(0.0124311 0.018503 0)
(0.0124858 0.0128773 0)
(0.0122387 0.00775063 0)
(0.0117638 0.00311623 0)
(0.0111243 -0.00105202 0)
(0.010369 -0.00480566 0)
(0.00953768 -0.00819893 0)
(0.00865624 -0.0112673 0)
(0.00774091 -0.0140407 0)
(0.00680062 -0.0165342 0)
(0.00584148 -0.0187426 0)
(0.00485654 -0.0206372 0)
(0.00381719 -0.0221631 0)
(0.00282162 -0.0232606 0)
(0.00132125 -0.0239366 0)
(-0.00113415 -0.0252514 0)
(0.000668953 0.069087 0)
(0.00297686 0.05946 0)
(0.00542468 0.0509363 0)
(0.00782163 0.0433738 0)
(0.00992787 0.0363897 0)
(0.0116302 0.0298511 0)
(0.0129044 0.0237259 0)
(0.0137681 0.0180169 0)
(0.0142627 0.0127354 0)
(0.0144439 0.00788812 0)
(0.0143708 0.00347011 0)
(0.0140976 -0.000536066 0)
(0.013667 -0.00416609 0)
(0.0131197 -0.00747352 0)
(0.0124815 -0.0104787 0)
(0.0117726 -0.0132026 0)
(0.011007 -0.0156531 0)
(0.0101942 -0.0178209 0)
(0.00933267 -0.0196735 0)
(0.00841372 -0.0211567 0)
(0.00748035 -0.0222115 0)
(0.00615415 -0.0228408 0)
(0.00389111 -0.0240703 0)
(0.000554754 0.0675151 0)
(0.00280302 0.0570416 0)
(0.00526172 0.0483968 0)
(0.0077635 0.0410097 0)
(0.0100549 0.0343477 0)
(0.0120046 0.0281962 0)
(0.0135713 0.0224716 0)
(0.0147568 0.0171436 0)
(0.0155885 0.0122029 0)
(0.016108 0.00764593 0)
(0.0163627 0.00346687 0)
(0.0163981 -0.000346906 0)
(0.0162514 -0.00382125 0)
(0.015961 -0.00700752 0)
(0.0155502 -0.00991542 0)
(0.0150401 -0.0125583 0)
(0.0144461 -0.0149381 0)
(0.0137819 -0.0170411 0)
(0.0130492 -0.0188319 0)
(0.0122281 -0.0202552 0)
(0.0114208 -0.0212458 0)
(0.0102039 -0.021811 0)
(0.00810928 -0.0230133 0)
(0.000632041 0.0659722 0)
(0.00288043 0.0546392 0)
(0.00537096 0.0458125 0)
(0.00793931 0.0385353 0)
(0.0103389 0.0321372 0)
(0.0124369 0.0263253 0)
(0.0141867 0.0209657 0)
(0.0155831 0.0159944 0)
(0.0166452 0.0113815 0)
(0.0174061 0.0071131 0)
(0.0179044 0.00318063 0)
(0.0181777 -0.000425717 0)
(0.0182588 -0.00372663 0)
(0.0181813 -0.00676891 0)
(0.0179649 -0.00955529 0)
(0.0176287 -0.0120929 0)
(0.0171883 -0.0143795 0)
(0.0166572 -0.0163972 0)
(0.016039 -0.0181095 0)
(0.0153366 -0.0194575 0)
(0.0145897 -0.020378 0)
(0.0135117 -0.020874 0)
(0.0116151 -0.0220306 0)
(0.000881178 0.0642575 0)
(0.00321527 0.0521694 0)
(0.00578235 0.0431759 0)
(0.00840723 0.0359943 0)
(0.0108627 0.0298356 0)
(0.0130284 0.0243359 0)
(0.0148644 0.0193145 0)
(0.0163682 0.0146768 0)
(0.0175582 0.010374 0)
(0.0184639 0.00638292 0)
(0.0191193 0.00269267 0)
(0.0195556 -0.000704002 0)
(0.0198015 -0.00382595 0)
(0.0198844 -0.00671271 0)
(0.0198192 -0.00936238 0)
(0.0196213 -0.011778 0)
(0.0193041 -0.013954 0)
(0.0188817 -0.0158708 0)
(0.0183605 -0.0174905 0)
(0.0177283 -0.0187539 0)
(0.0170827 -0.0195979 0)
(0.016079 -0.0200212 0)
(0.0143125 -0.0211118 0)
(0.00127817 0.0621862 0)
(0.0037849 0.0495363 0)
(0.00649084 0.0404576 0)
(0.00917964 0.0334082 0)
(0.0116556 0.0275008 0)
(0.0138228 0.0223098 0)
(0.01566 0.0176134 0)
(0.017177 0.0132907 0)
(0.0183992 0.00927823 0)
(0.0193587 0.00554626 0)
(0.0200881 0.00208409 0)
(0.0206145 -0.00111156 0)
(0.0209623 -0.00405912 0)
(0.0211513 -0.00678788 0)
(0.0211901 -0.00929339 0)
(0.0210891 -0.0115762 0)
(0.0208592 -0.0136296 0)
(0.0205122 -0.015434 0)
(0.0200552 -0.0169511 0)
(0.0194965 -0.0181238 0)
(0.0188718 -0.0188859 0)
(0.0179681 -0.0192372 0)
(0.016358 -0.0202407 0)
(0.00179892 0.0595958 0)
(0.00456794 0.0466425 0)
(0.00747517 0.037618 0)
(0.0102428 0.0307858 0)
(0.0127121 0.0251786 0)
(0.0148225 0.0203179 0)
(0.0165837 0.0159478 0)
(0.0180276 0.0119275 0)
(0.0191942 0.00818428 0)
(0.020124 0.00468751 0)
(0.0208517 0.0014307 0)
(0.0214017 -0.00158219 0)
(0.0217934 -0.00436794 0)
(0.0220371 -0.00694325 0)
(0.0221337 -0.00930272 0)
(0.0220873 -0.0114465 0)
(0.0219049 -0.0133691 0)
(0.0215986 -0.0150527 0)
(0.0211765 -0.0164606 0)
(0.0206342 -0.0175371 0)
(0.0200602 -0.0182163 0)
(0.0191878 -0.0184891 0)
(0.017687 -0.0193975 0)
(0.00242737 0.0563461 0)
(0.00553972 0.0433951 0)
(0.00871371 0.0346159 0)
(0.0115743 0.0281325 0)
(0.0140082 0.0229111 0)
(0.0160031 0.0184269 0)
(0.0176123 0.0143977 0)
(0.0189007 0.0106715 0)
(0.0199304 0.0071746 0)
(0.020755 0.00388268 0)
(0.0214144 0.000799879 0)
(0.0219311 -0.00205738 0)
(0.0223173 -0.00470044 0)
(0.0225713 -0.00713179 0)
(0.0226839 -0.00934651 0)
(0.0226517 -0.0113475 0)
(0.0224787 -0.0131336 0)
(0.0221758 -0.0146908 0)
(0.0217528 -0.015986 0)
(0.0212261 -0.0169633 0)
(0.0206266 -0.0175582 0)
(0.0198077 -0.01776 0)
(0.0184379 -0.0185584 0)
(0.0031537 0.0523139 0)
(0.00669065 0.0397056 0)
(0.010191 0.0314137 0)
(0.0131501 0.0254601 0)
(0.0155085 0.0207467 0)
(0.0173194 0.0167073 0)
(0.0186961 0.0130434 0)
(0.019747 0.00960354 0)
(0.0205631 0.00632483 0)
(0.0212148 0.00319876 0)
(0.0217494 0.000248721 0)
(0.0221872 -0.00248903 0)
(0.0225298 -0.00501413 0)
(0.0227589 -0.00731352 0)
(0.0228521 -0.00938557 0)
(0.0227974 -0.0112405 0)
(0.0225967 -0.0128859 0)
(0.0222635 -0.0143144 0)
(0.0218132 -0.0154966 0)
(0.0212506 -0.0163789 0)
(0.0206551 -0.0168986 0)
(0.0198363 -0.0170315 0)
(0.0185343 -0.0177249 0)
(0.00398213 0.0473869 0)
(0.00801564 0.0354854 0)
(0.0119007 0.0279821 0)
(0.0149456 0.0227963 0)
(0.017165 0.0187507 0)
(0.018705 0.0152413 0)
(0.0197594 0.0119695 0)
(0.0204898 0.00880301 0)
(0.0210202 0.00570452 0)
(0.0214396 0.00269353 0)
(0.0218036 -0.000177076 0)
(0.0221294 -0.00284135 0)
(0.0224028 -0.00527784 0)
(0.0225826 -0.00745741 0)
(0.0226277 -0.00938634 0)
(0.0225176 -0.0110902 0)
(0.0222554 -0.0125913 0)
(0.0218599 -0.0138921 0)
(0.0213521 -0.0149675 0)
(0.0207578 -0.0157656 0)
(0.0201074 -0.0162195 0)
(0.0193133 -0.0163068 0)
(0.0181106 -0.0168883 0)
(0.00493809 0.0414504 0)
(0.00952786 0.0306423 0)
(0.0138335 0.0243071 0)
(0.0169169 0.0201984 0)
(0.0188991 0.0170158 0)