/*--------------------------------*- C++ -*----------------------------------*\
  =========                 |
  \\      /  F ield         | OpenFOAM: The Open Source CFD Toolbox
   \\    /   O peration     | Website:  https://openfoam.org
    \\  /    A nd           | Version:  13
     \\/     M anipulation  |
\*---------------------------------------------------------------------------*/
FoamFile
{
    format      ascii;
    class       volScalarField;
    location    "1.05";
    object      alphas;
}
// * * * * * * * * * * * * * * * * * * * * * * * * * * * * * * * * * * * * * //

dimensions      [];

internalField   nonuniform List<scalar> 
2268
(
2
2
2
2
2
2
2
2
2
2
2
2
2
2
2
2
2
2
2
2
1.99987
1.99944
1.99943
2
2
2
2
2
2
2
2
2
2
2
2
2
2
2
2
2
2
2
2
2
1.99987
1.99943
2
2
2
2
2
2
2
2
2
2
2
2
2
2
2
2
2
2
2
2
2
2
1.99991
2
2
2
2
2
2
2
2
2
2
2
2
2
2
2
2
2
2
2
2
2
2
2
2
2
2
2
2
2
2
2
2
2
2
2
1.99936
1.99488
1.9881
1.98092
1.97405
1.96743
1.95994
1.94842
1.93002
1.91257
1.92371
2
2
2
2
2
2
2
1.99553
1.8541
1.66049
1.46269
1.28318
1.11062
0.987133
0.899411
0.836912
0.791371
0.755683
0.71947
0.666813
0.614958
0.635273
0.710669
2
2
2
2
2
1.96779
1.4592
0.828598
0.404138
0.177769
0.0561573
1.01082e-08
3.35797e-08
1.17734e-07
6.02778e-07
2.64247e-06
7.58185e-06
3.50632e-05
0.000351711
0.00424521
0.0425286
0.326463
0.553913
2
2
2
2
1.52172
0.573525
0.0963358
0.000348329
2.74343e-08
2.05307e-09
5.17528e-09
1.52153e-08
3.91064e-08
1.35413e-07
2.82464e-07
2.09822e-07
2.90927e-06
1.04688e-05
4.10274e-05
0.0634124
0.707212
1.2207
1.29902
1.06565
1.12833
1.16305
1.19124
1.21672
1.21519
1.08752
1.09266
1.16677
1.49054
1.56776
1.62136
1.68706
2.02734
1.97681
1.81049
1.62988
1.6135
1.68771
1.06519
1.17628
0.854764
0.9083
0.914422
1.01866
1.30299
1.08702
1.23769
1.80527
1.85403
1.61115
1.58337
1.94817
2.15234
1.82212
1.56905
1.61587
1.68835
1.06209
0.662029
0.21379
0.255123
0.156715
0.393117
0.94816
1.49369
1.54476
1.76809
1.79253
1.85617
1.85348
2.00295
2.26999
2.26601
1.91424
1.5358
1.5993
1.06463
0.412992
0.000847167
0.000712625
0.000635679
0.00123056
0.250108
0.990868
1.27781
1.27619
1.62201
1.73239
1.83581
1.96038
2.17329
2.20239
2.22689
1.51475
1.57397
0.704249
0.502126
0.174044
0.000776033
0.000732086
0.000561923
0.000521649
0.118747
0.282793
0.240336
0.879476
1.33212
1.58199
1.80601
2.04579
2.1056
2.03621
1.29818
1.71459
1.35525
1.29155
0.946505
0.214415
0.00275898
0.000721785
0.000476388
0.000522759
0.000533316
0.000528405
0.0258263
0.686307
1.86363
1.93405
1.79922
1.97503
1.73679
0.884611
1.73964
1.77309
1.75582
1.4886
0.89136
0.185158
0.000939722
0.00056469
0.000449745
0.000529064
0.000525582
0.00745731
1.14299
2.40897
2.44413
2.29767
2.01684
1.00586
0.882577
1.78333
1.68159
1.12221
1.07128
1.09572
0.869161
0.101209
0.00121107
0.000413632
0.000316373
0.000406153
0.0353364
1.39538
2.33571
2.39584
2.31875
1.56356
0.571589
0.832309
1.79991
1.99617
1.82477
1.36163
0.628987
0.0941191
1.47123e-07
3.2166e-09
1.12164e-09
1.43803e-09
2.12508e-09
3.98421e-09
9.73741e-09
2.69958e-08
6.23138e-08
1.4027e-07
3.95295e-07
5.11857e-07
2.89672e-06
0.0854699
0.743801
1.40596
1.41364
1.32975
0.796676
0.348488
0.0366181
1.27722e-07
2.20193e-09
2.49887e-09
2.02984e-09
2.24655e-09
2.63048e-09
3.54904e-09
7.83094e-09
2.25085e-08
4.65858e-08
2.76291e-08
4.14564e-08
7.99417e-05
0.0604874
0.722583
1.39024
1.5896
1.01446
1
1.00025
8.14548e-09
6.29519e-09
6.32035e-09
6.48113e-09
6.35734e-09
4.69681e-09
3.27087e-09
4.56693e-09
7.10767e-09
1.70155e-08
3.31982e-08
3.79591e-08
2.43554e-08
0.00299456
0.259963
1.08443
1.53549
1.46609
1.00004
1.02178
1.00069
1
1
1.06786e-08
3.37669e-08
1.67472e-08
7.39381e-09
4.5266e-09
2.63137e-09
2.55933e-09
5.07146e-09
2.62776e-08
7.01699e-08
6.63594e-08
0.0115753
0.642776
1.37982
1.7534
1.23717
1.04965
1.06803
1.00009
1
1
1
1
8.11452e-09
1.52285e-08
1.07116e-08
4.51087e-09
2.3509e-09
1.35364e-09
2.18212e-09
7.14682e-09
1.43278e-08
0.0399904
0.854109
1.34603
1.73993
1.28017
1.11812
1.03576
1.00005
1.00005
1.00011
1.00005
1
1
1
5.72339e-09
7.2118e-09
5.10626e-09
2.461e-09
9.06489e-10
6.49243e-10
1.06709e-09
0.0013947
0.55727
1.16025
1.59372
1.45783
1.0571
1.00115
1
1
1.00016
1.00006
1
1.00001
1
1
1
3.44278e-09
3.62403e-09
2.38507e-09
1.2858e-09
4.45163e-10
4.06382e-07
0.0235375
0.719932
1.2548
1.59192
1.07557
1.00855
1
1
1
1.00003
1.00007
1.00002
1
1
1
1
1
1.67026e-09
1.60761e-09
1.04894e-09
3.54639e-08
2.22203e-08
0.0185624
0.495995
1.22786
1.35441
1.02069
1.00001
1
1
1
1
1
1
1
1
1.12682
1.44792
1.44251
1.35398
9.1935e-10
4.22179e-08
4.11772e-08
4.12912e-07
0.000116486
0.329144
1.0956
1.06777
1.00293
1.00001
0.999998
0.999998
0.999999
1
1
1.05068
1.43055
1.795
2.15748
2.58752
2.85534
2.9206
2.95872
0.373389
0.619735
0.594242
0.657218
1.01052
1.29626
1.00007
1.00019
0.99993
0.999975
1.00001
1.10969
1.45586
1.80502
2.17356
2.5515
2.83982
2.9672
2.99918
3
3
3
3
2.6626
2.81859
2.79069
2.79445
2.88795
1.94227
1.02928
1.06054
1.23522
1.76695
2.31245
2.65837
2.86305
2.96616
3
3
3
3
3
3
3
3
3
2.99991
2.99997
2.99997
2.99997
2.9983
2.89534
2.66998
2.61333
2.72932
2.94013
3
3
3
3
3
3
3
3
3
3
3
3
3
3
3
3
2.99999
2.99984
2.99999
2.99999
3
3
3
3
3
3
3
3
3
2.99999
3
3
3
3
3
3
3
3
3
3
3
3
3
3
3
3
3
3
3
3
2.99999
2.99984
2.99982
2.99998
2.99999
2.99999
2.99999
3
3
3
3
3
3
3
3
3
3
3
3
3
3
3
3
3
2.99984
2.9996
2.99961
2.99977
2.99999
2.99999
2.99999
2.99998
3
3
3
3
3
3
3
3
3
3
3
3
3
3
3
2.99999
2.99989
2.99964
2.9996
2.9996
2.99988
2.99999
2.99999
3
3
3
3
3
3
3
3
3
3
3
3
3
3
3
3
3
2.99999
2.99989
2.9998
2.99979
2.99996
3
3
3
3
3
3
3
3
3
3
3
3
3
3
3
3
3
3
3
3
3
2.99999
2.99999
3
3
3
3
3
3
3
3
3
3
3
3
3
3
3
3
3
3
3
3
3
3
3
3
3
3
3
3
3
3
3
3
3
3
3
3
3
3
3
3
3
3
3
3
3
3
3
3
3
3
3
3
3
3
3
3
3
3
3
3
3
3
3
3
3
3
3
3
3
3
3
3
3
3
3
3
3
3
3
3
3
3
3
3
3
3
3
3
3
3
3
3
3
3
3
3
3
3
3
3
3
3
3
3
3
3
3
3
3
3
3
3
3
3
3
3
3
3
3
3
3
3
3
3
3
3
3
3
3
3
3
3
3
3
3
3
3
3
3
3
3
3
3
3
3
3
3
3
3
3
3
3
3
3
3
3
3
3
3
3
3
3
3
3
3
3
3
3
3
3
3
3
3
3
3
3
3
3
3
3
3
3
3
3
3
3
3
3
3
3
3
3
3
3
3
3
3
3
3
3
3
3
3
3
3
3
3
3
3
3
3
3
3
3
3
3
3
3
3
3
3
3
3
3
3
3
3
3
3
3
3
3
3
3
3
3
3
3
3
3
3
3
3
3
3
3
3
3
3
3
3
3
3
3
3
3
3
3
3
3
3
3
3
3
3
3
3
3
3
3
3
3
3
3
3
3
3
3
3
3
3
3
3
3
3
3
3
3
3
3
3
3
3
3
3
3
3
3
3
3
3
3
3
3
3
3
3
3
3
3
3
3
3
3
3
3
3
3
3
3
3
3
3
3
3
3
3
3
3
3
3
3
3
3
3
3
3
3
3
3
3
3
3
3
3
3
3
3
3
3
3
3
3
3
3
3
3
3
3
3
3
3
3
3
3
3
3
3
3
3
3
3
3
3
3
3
3
3
3
3
3
3
3
3
3
3
3
3
3
3
3
3
3
3
3
3
3
3
3
3
3
3
3
3
3
3
3
3
3
3
3
3
3
3
3
3
3
3
3
3
3
3
3
3
3
3
3
3
3
3
3
3
3
3
3
3
3
3
3
3
3
3
3
3
3
3
3
3
3
3
3
3
3
3
3
3
3
3
3
3
3
3
3
3
3
3
3
3
3
3
3
3
3
3
3
3
3
3
3
3
3
3
3
3
3
3
3
3
3
3
3
3
3
3
3
3
3
3
3
3
3
3
3
3
3
3
3
3
3
3
3
3
3
3
3
3
3
3
3
3
3
3
3
3
3
3
3
3
3
3
3
3
3
3
3
3
3
3
3
3
3
3
3
3
3
3
3
3
3
3
3
3
3
1.22971
0.99605
1.0005
1.00971
1.00293
1.00047
1.00001
1.00008
1
1
1
1
1
1
1
1
1
1
1
1
1
1
1
1
1
1
1
1.00354
2.10137
2.36786
2.17035
1.93344
2.99394
3
3
2.99912
3
3
3
3
3
3
3
3
3
3
3
3
3
3
3
3
3
3
3
3
2.99998
2.99999
3
3
2.99998
2.99999
2.99998
2.99999
3
3
2.99999
2.99999
3
3
3
3
3
3
3
3
3
3
3
3
3
3
3
3
3
3
3
3
3
3
3
3
3
3
3
3
3
3
3
3
3
3
3
3
3
3
3
3
3
3
3
3
3
3
3
3
3
3
3
3
3
3
3
3
3
3
3
3
3
3
3
3
3
3
3
3
3
3
3
3
3
3
3
3
3
3
3
3
3
3
3
3
3
3
3
3
3
3
3
3
3
3
3
3
3
3
3
3
1.02764
1.00001
1
1.0001
1.01811
0.895781
0.194233
0.000940852
0.000318761
0.000315905
0.0390848
1.16351
2.05584
1.70245
1.06299
0.578386
0.331457
0.817768
1.87165
1
1
1
1
1
1.00107
0.940179
0.275178
0.000514424
0.000505367
0.0061831
0.189831
0.299169
0.305814
0.310359
0.350816
0.530349
0.937712
1.88279
1
1
1
1
1
1
1.00002
0.970167
0.509234
0.0770782
0.014628
0.0703766
0.168235
0.364208
0.714691
0.940363
1.0218
1.03684
1.77671
1
1
1
1
1
1
1
1
0.99715
0.887502
0.758454
0.761341
0.891555
1.00592
1.01323
1.01945
1.0186
1.02653
1.30067
1
1
1
1
1
1
1
1
1
1.00001
1.00026
1.00142
1.00273
1.0043
1.0065
1.00676
1.01559
1.02735
1.33387
1
1
1
1
1
1
1
1
1
1
0.999998
0.999993
0.999946
1.10679
1.44028
1.91346
2.00355
1.87818
1.6915
1.00391
1.00273
1.00085
1
1
1
1
1
1.00241
1.028
1.13475
1.40244
1.95784
2.55058
2.91059
2.99992
2.99993
2.73431
2.36415
1.93562
1.96574
1.88315
1.77955
1.71483
1.70752
1.74185
1.83424
2.01567
2.3091
2.6513
2.92348
3
3
3
3
2.99276
2.85244
2.79856
3
3
3
3
3
3
3
3
3
3
3
3
2.99993
2.99973
2.99999
2.99315
2.9848
2.99999
3
3
3
3
3
3
3
3
3
3
3
2.99977
2.99812
2.99728
2.99778
2.99998
2.99989
2.99985
3
2.99999
3
3
3
3
3
3
3
3
3
3
2.9993
2.99679
2.99699
2.99893
3
3
3
2.99999
2.99999
3
3
3
3
3
3
3
2.99999
2.99999
2.99999
2.99992
2.99998
2.99985
3
3
3
3
3
2.99999
3
3
3
3
3
3
3
2.99999
2.99999
3
3
3
3
3
3
3
3
3
3
3
3
3
3
3
3
3
3
3
3
3
3
3
3
3
3
3
3
3
3
3
3
3
3
3
3
3
3
3
3
3
3
3
3
3
3
3
3
3
3
3
3
3
3
3
3
3
3
3
3
3
3
3
3
3
3
3
3
3
3
3
3
3
3
3
3
3
3
3
3
3
3
3
3
3
3
3
3
3
3
3
3
3
3
3
3
3
3
3
3
3
3
3
3
3
3
3
3
3
3
3
3
3
3
3
3
3
3
3
3
3
3
3
3
3
3
3
3
3
3
3
3
3
3
3
3
3
3
3
3
3
3
3
3
3
3
3
3
3
3
3
3
3
3
3
3
3
3
3
3
3
3
3
3
3
3
3
3
3
3
3
3
3
3
3
3
3
3
3
3
3
3
3
3
3
3
3
3
3
3
3
3
3
3
3
3
3
3
3
3
3
3
3
3
3
3
3
3
3
3
3
3
3
3
3
3
3
3
3
3
3
3
3
3
3
3
3
3
3
3
3
3
3
3
3
3
3
3
3
3
3
3
3
3
3
3
3
3
3
3
3
3
3
3
3
3
3
3
3
3
3
3
3
3
3
3
3
3
3
3
3
3
3
3
3
3
3
3
3
3
3
3
3
3
3
3
3
3
3
3
3
3
3
3
3
3
3
3
3
3
3
3
3
3
3
3
3
3
3
3
3
3
3
3
3
3
3
3
3
3
3
3
3
3
3
3
3
3
3
3
3
3
3
3
3
3
3
3
3
3
3
3
3
3
3
3
3
3
3
3
3
3
3
3
3
3
3
3
3
3
3
3
3
3
3
3
3
3
3
3
3
3
3
3
3
3
3
3
3
3
3
3
3
3
3
3
3
3
3
3
3
3
3
3
3
3
3
3
3
3
3
3
3
3
3
3
3
3
3
3
3
3
3
3
3
3
3
3
3
3
3
3
3
3
3
3
3
3
3
3
3
3
3
3
3
3
3
3
3
3
3
3
3
3
3
3
3
3
3
3
3
3
3
3
3
3
3
3
3
3
3
3
3
3
3
3
3
3
3
3
3
3
3
3
3
3
3
3
3
3
3
3
3
3
3
3
3
3
3
3
3
3
3
3
3
3
3
3
3
3
3
3
3
3
3
3
3
3
3
3
3
3
3
3
3
3
3
3
3
3
3
3
3
3
3
3
3
3
3
3
3
3
3
3
3
3
3
3
3
3
3
3
3
3
3
3
3
3
3
3
3
3
3
3
3
3
3
3
3
3
3
)
;

boundaryField
{
    leftWall
    {
        type            calculated;
        value           nonuniform List<scalar> 
50
(
2
2
2
2
2
2
2
2
1.99617
0.796676
8.14548e-09
1.06786e-08
8.11452e-09
5.72339e-09
3.44278e-09
1.67026e-09
9.1935e-10
0.373389
2.6626
2.99991
3
3
3
3
3
3
3
3
3
3
3
3
3
3
3
3
3
3
3
3
3
3
3
3
3
3
3
3
3
3
)
;
    }
    rightWall
    {
        type            calculated;
        value           nonuniform List<scalar> 
50
(
1.68771
1.68835
1.5993
1.57397
1.71459
1.73964
1.78333
1.79991
1.87165
1.88279
1.77671
1.30067
1.33387
1.6915
2.36415
2.79856
3
2.99999
2.99999
2.99999
3
3
3
3
3
3
3
3
3
3
3
3
3
3
3
3
3
3
3
3
3
3
3
3
3
3
3
3
3
3
)
;
    }
    lowerWall
    {
        type            calculated;
        value           nonuniform List<scalar> 
62
(
2
2
2
2
2
2
2
2
2
2
2
2
2
2
2
2
2
2
2
2
1.99987
1.99944
1.99943
1.99943
1.99943
1.99991
2
1.92371
0.710669
0.553913
1.29902
1.22971
0.99605
1.0005
1.00971
1.06565
1.06519
1.06209
1.06463
0.704249
1.35525
1.77309
1.68159
1.06565
1.12833
1.16305
1.19124
1.21672
1.21519
1.08752
1.09266
1.16677
1.49054
1.56776
1.62136
1.68706
2.02734
1.97681
1.81049
1.62988
1.6135
1.68771
)
;
    }
    atmosphere
    {
        type            calculated;
        value           nonuniform List<scalar> 
46
(
3
3
3
3
3
3
3
3
3
3
3
3
3
3
3
3
3
3
3
3
3
3
3
3
3
3
3
3
3
3
3
3
3
3
3
3
3
3
3
3
3
3
3
3
3
3
)
;
    }
    defaultFaces
    {
        type            empty;
    }
}


// ************************************************************************* //
