/*--------------------------------*- C++ -*----------------------------------*\
  =========                 |
  \\      /  F ield         | OpenFOAM: The Open Source CFD Toolbox
   \\    /   O peration     | Website:  https://openfoam.org
    \\  /    A nd           | Version:  13
     \\/     M anipulation  |
\*---------------------------------------------------------------------------*/
FoamFile
{
    format      ascii;
    class       volScalarField;
    location    "1.05";
    object      alpha.mercury;
}
// * * * * * * * * * * * * * * * * * * * * * * * * * * * * * * * * * * * * * //

dimensions      [];

internalField   nonuniform List<scalar> 
2268
(
1
1
1
1
1
1
1
1
1
1
1
1
1
1
1
1
1
1
1
1
0.999872
0.999438
0.999431
1
1
1
1
1
1
1
1
1
1
1
1
1
1
1
1
1
1
1
1
1
0.999872
0.999431
1
1
1
1
1
1
1
1
1
1
1
1
1
1
1
1
1
1
1
1
1
1
0.999914
1
1
1
1
1
1
1
1
1
1
1
1
1
1
1
1
1
1
1
1
1
0.999998
0.999997
1
1
1
1
1
1
1
1
1
1
1
1
0.999679
0.997439
0.994048
0.990459
0.987024
0.983714
0.97997
0.974209
0.965009
0.956278
0.961855
1
1
1
1
1
1
1
0.997766
0.927051
0.830243
0.731344
0.641588
0.555311
0.493566
0.449706
0.418455
0.395682
0.377837
0.359719
0.333218
0.3055
0.305599
0.323265
1
1
1
1
1
0.983895
0.729599
0.414299
0.202069
0.0888847
0.0280787
2.08167e-20
2.6442e-29
2.94293e-29
-4.94657e-15
-1.42016e-29
4.64853e-25
3.85336e-25
1.18691e-13
2.80616e-07
-8.21749e-05
-0.000115092
1.82146e-19
1
1
1
1
0.760859
0.286762
0.0481679
0.000174164
1.31881e-08
-1.23559e-20
7.88931e-23
4.64493e-21
2.89847e-14
3.62235e-14
7.0127e-14
3.01867e-12
1.01864e-11
-5.99571e-24
2.33026e-06
0.00402346
0.0344064
0.0469337
0.0341909
0.0366771
0.0366468
0.0445259
0.102556
0.204895
0.204901
0.0875249
0.0926581
0.166768
0.475437
0.450576
0.359427
0.354373
0.602814
0.688956
0.688966
0.688962
0.68688
0.688867
0.0359972
0.090873
0.125434
0.153892
0.276861
0.365398
0.323668
0.0870191
0.237436
0.801945
0.849752
0.592783
0.458393
0.492673
0.675692
0.688962
0.666975
0.656665
0.68895
0.0350841
0.0903139
0.0833563
0.0727385
0.0446946
0.177521
0.398731
0.493689
0.544721
0.82782
0.865083
0.864753
0.850001
0.528487
0.333896
0.389138
0.391523
0.653494
0.607138
0.035258
0.0289819
1.56758e-06
0.00021049
0.000146146
0.000487861
0.12457
0.463135
0.575798
0.635974
0.811003
0.865069
0.861156
0.499692
0.219653
0.219682
0.22548
0.549969
0.467186
0.0360288
0.0097813
4.60359e-07
3.45543e-06
4.42589e-05
0.000176937
0.000259538
0.0593696
0.141351
0.120131
0.439736
0.666058
0.716673
0.48193
0.240158
0.219653
0.35663
0.361932
0.232288
0.015609
0.002728
3.91073e-07
3.06845e-07
1.01849e-07
4.59683e-06
0.000161126
0.000260433
0.000256188
0.000255192
0.0129132
0.334835
0.709575
0.654423
0.530624
0.395249
0.49971
0.0770256
0.0812544
0.000212958
4.29561e-05
7.83774e-07
1.08984e-06
6.05047e-08
9.05738e-10
9.67217e-07
0.000131595
0.000251814
0.00024035
0.00369551
0.338373
0.508742
0.486766
0.528345
0.544273
0.334627
0.076641
0.0394312
0.000383509
1.88238e-06
8.55617e-07
1.15644e-06
1.63821e-07
-1.10245e-13
-1.6783e-24
3.64035e-07
3.36954e-05
0.000117637
0.0132607
0.181059
0.23302
0.285683
0.281152
0.24171
0.0913383
0.0394354
0.0243572
0.998083
0.912386
0.680814
0.314493
0.0470596
7.31983e-08
1.13978e-09
5.47166e-12
5.43394e-12
5.61597e-12
9.30664e-12
1.04296e-11
8.59507e-12
6.0696e-12
7.37134e-12
3.24938e-11
8.45593e-11
8.55263e-09
0.000453513
0.0313908
0.0487088
0.0400338
-1.80545e-07
0.398338
0.174244
0.018309
6.33257e-08
3.60968e-10
3.42804e-10
8.14519e-12
8.56012e-12
1.33885e-11
2.44059e-11
3.36948e-11
3.6036e-11
2.99691e-11
2.35e-11
2.79522e-11
5.28428e-11
5.48849e-11
4.06664e-07
3.95845e-05
6.58043e-05
3.62857e-10
9.8594e-11
1.6846e-09
3.48561e-09
2.55719e-09
2.40341e-09
2.31452e-09
2.1187e-09
1.09009e-09
5.25822e-12
1.48494e-11
3.18424e-11
5.04762e-11
5.8598e-11
5.64886e-11
4.48721e-11
2.43893e-11
2.83612e-10
3.04776e-09
2.72672e-08
1.86831e-07
3.9702e-07
6.85258e-10
4.83036e-09
3.45178e-09
1.1039e-09
4.51882e-09
1.6043e-08
7.47858e-09
2.74282e-09
1.2928e-09
3.09542e-10
7.23228e-13
2.56621e-12
2.41131e-12
2.46301e-12
2.26161e-12
4.68184e-12
1.23696e-09
6.15524e-09
8.46218e-09
8.42525e-09
7.19014e-09
7.46475e-09
4.09557e-10
7.15338e-10
9.62392e-10
7.47751e-10
7.80129e-10
3.22256e-09
6.78091e-09
4.52926e-09
1.49654e-09
5.17946e-10
6.00786e-11
5.32065e-13
6.23863e-13
8.89119e-13
9.07262e-11
1.52016e-09
4.26404e-09
5.31319e-09
5.75771e-09
5.77782e-09
3.19777e-09
1.00087e-09
3.12788e-10
4.23901e-10
6.77616e-10
8.46699e-10
1.03009e-09
1.13322e-09
2.15645e-09
2.95069e-09
1.9663e-09
7.98751e-10
1.94894e-10
1.17315e-11
5.67268e-13
1.38735e-11
5.19453e-10
2.50185e-09
3.89268e-09
4.10849e-09
3.67969e-09
1.86746e-09
1.0019e-09
4.88968e-10
3.18595e-10
3.14315e-10
3.97185e-10
5.49785e-10
7.10943e-10
8.13509e-10
8.88812e-10
1.40036e-09
1.5388e-09
9.77138e-10
4.37658e-10
8.24867e-11
1.13948e-11
4.10774e-11
6.97477e-10
2.15425e-09
2.89697e-09
3.006e-09
1.76604e-09
6.77679e-10
2.34612e-10
1.79477e-10
1.78757e-10
1.99981e-10
1.98065e-10
2.07599e-10
2.01511e-10
1.74541e-10
1.11808e-10
6.8323e-11
8.21755e-10
7.91889e-10
5.06638e-10
2.16696e-10
4.27146e-11
5.45143e-11
5.78393e-10
1.43526e-09
1.75769e-09
1.72904e-09
8.7871e-10
4.08377e-10
2.37971e-10
1.32737e-10
1.095e-10
1.0755e-10
1.17795e-10
1.01069e-10
7.62494e-11
4.16631e-11
3.31875e-11
3.09451e-11
3.83389e-11
4.47888e-10
4.02544e-10
2.40626e-10
1.05851e-10
6.63806e-11
3.89289e-10
9.22842e-10
1.0999e-09
9.80262e-10
5.52578e-10
2.9978e-10
1.30093e-10
8.03471e-11
7.08541e-11
6.01516e-11
5.18699e-11
4.36904e-11
2.65655e-11
1.43775e-11
1.02141e-11
9.78951e-12
1.16847e-11
1.62593e-11
1.45477e-10
8.25545e-11
5.15207e-11
4.30709e-11
3.01598e-10
7.61538e-10
8.57915e-10
5.93096e-10
3.85378e-10
1.9416e-10
1.0774e-10
6.93937e-11
3.79194e-11
2.8454e-11
2.20217e-11
1.68709e-11
1.17153e-11
7.36834e-12
5.06279e-12
4.32928e-12
4.10232e-12
3.9686e-12
4.18896e-12
9.38648e-12
3.53686e-12
3.11042e-12
8.16387e-11
6.08788e-10
9.83859e-10
9.51354e-10
4.7791e-10
1.68581e-10
7.57139e-11
3.10922e-11
2.06728e-11
1.31025e-11
1.08154e-11
9.03317e-12
7.04209e-12
5.3818e-12
4.61087e-12
4.20343e-12
3.65254e-12
2.6551e-12
1.99695e-12
1.63533e-12
1.71459e-13
7.0511e-14
1.05247e-12
8.50941e-11
6.18422e-10
9.90626e-10
9.94937e-10
6.26453e-10
2.48955e-10
1.52751e-10
1.02089e-10
5.12788e-11
2.44995e-11
1.22754e-11
8.49806e-12
6.70453e-12
5.25951e-12
4.45479e-12
3.81711e-12
3.36946e-12
2.84049e-12
1.97402e-12
1.45045e-12
2.28615e-14
9.72835e-15
8.95323e-13
3.26346e-11
3.89773e-10
7.6765e-10
8.54078e-10
7.02986e-10
4.4855e-10
3.51927e-10
3.17522e-10
2.94603e-10
2.14146e-10
1.26641e-10
5.22706e-11
1.45012e-11
9.02988e-12
6.85527e-12
5.5302e-12
4.7305e-12
3.68285e-12
2.75195e-12
1.94401e-12
8.44967e-16
1.07705e-14
5.69022e-13
5.29448e-12
1.00552e-10
2.93868e-10
5.42415e-10
6.1057e-10
4.88933e-10
4.07969e-10
3.98473e-10
4.14937e-10
4.30516e-10
4.18346e-10
3.69714e-10
2.50416e-10
1.01897e-10
3.76604e-11
2.10969e-11
1.59845e-11
1.18959e-11
7.42176e-12
4.88438e-12
8.11562e-17
3.87002e-15
2.17453e-13
2.50574e-12
1.83151e-11
1.22347e-10
2.6433e-10
3.92016e-10
4.09186e-10
3.36478e-10
2.93523e-10
3.0813e-10
3.49691e-10
3.93991e-10
4.33614e-10
4.33041e-10
4.15693e-10
3.1596e-10
1.52256e-10
6.39026e-11
3.55843e-11
2.4557e-11
1.72491e-11
2.23181e-17
3.92526e-16
6.34833e-14
9.22149e-13
6.43612e-12
4.26539e-11
9.3923e-11
1.30724e-10
1.96039e-10
2.02166e-10
1.66336e-10
1.69325e-10
1.87564e-10
2.13307e-10
2.59357e-10
3.05284e-10
3.67029e-10
3.73558e-10
3.42696e-10
2.30753e-10
1.01358e-10
6.31825e-11
3.28388e-11
8.06066e-18
5.99345e-17
1.54813e-14
2.97222e-13
3.11716e-12
1.66049e-11
4.50233e-11
3.0085e-11
5.81843e-11
7.61812e-11
8.1743e-11
7.8048e-11
8.70073e-11
9.29922e-11
8.13138e-11
8.60446e-11
1.24652e-10
1.70093e-10
2.05795e-10
2.04834e-10
1.35146e-10
7.21067e-11
3.49401e-11
2.36071e-18
1.37591e-17
3.36202e-15
8.24651e-14
1.0427e-12
5.75624e-12
1.75467e-11
1.88866e-11
3.47178e-11
4.32355e-11
4.06797e-11
3.30072e-11
3.59331e-11
3.76332e-11
2.9559e-11
2.39701e-11
3.32094e-11
4.46075e-11
4.76633e-11
5.56468e-11
5.28497e-11
3.40396e-11
1.99963e-11
6.38791e-19
2.94225e-18
6.78494e-16
2.00091e-14
3.01693e-13
1.91123e-12
6.27629e-12
9.92564e-12
1.77608e-11
2.54779e-11
2.09657e-11
1.42154e-11
1.40606e-11
1.41664e-11
1.15729e-11
7.1924e-12
8.09971e-12
1.14999e-11
1.39961e-11
1.24532e-11
1.23714e-11
9.71769e-12
5.49133e-12
1.4722e-19
5.16105e-19
1.35555e-16
4.22783e-15
7.3548e-14
5.51435e-13
2.1053e-12
4.21038e-12
7.48008e-12
1.1663e-11
9.77118e-12
6.09029e-12
5.28435e-12
5.05185e-12
4.2493e-12
2.7902e-12
2.64745e-12
3.22186e-12
4.09439e-12
4.25361e-12
4.2018e-12
3.22824e-12
2.18466e-12
2.76056e-20
7.12826e-20
2.26975e-17
7.3276e-16
1.38927e-14
1.22964e-13
5.79665e-13
1.47326e-12
2.57124e-12
4.22966e-12
3.75451e-12
2.39866e-12
1.87932e-12
1.71594e-12
1.46099e-12
1.05013e-12
9.4226e-13
1.01025e-12
1.4135e-12
1.55522e-12
1.61053e-12
1.59263e-12
1.29053e-12
4.27569e-21
7.43172e-21
2.75817e-18
1.01249e-16
2.00335e-15
2.11043e-14
1.24283e-13
3.9381e-13
7.40466e-13
1.22378e-12
1.14455e-12
7.84149e-13
6.08956e-13
5.49679e-13
4.79886e-13
3.85075e-13
3.55041e-13
3.71559e-13
5.28476e-13
6.62334e-13
7.41117e-13
7.07454e-13
6.40326e-13
1.79144e-22
5.69416e-22
2.49158e-19
1.31102e-17
2.74988e-16
3.48172e-15
2.38289e-14
9.40643e-14
1.98209e-13
3.14706e-13
2.84081e-13
2.12945e-13
1.76777e-13
1.65063e-13
1.52642e-13
1.38781e-13
1.35356e-13
1.49377e-13
2.08163e-13
2.57483e-13
3.03909e-13
3.24223e-13
2.97155e-13
2.67718e-23
2.91664e-23
1.6029e-20
7.89955e-19
1.81071e-17
2.79543e-16
2.40779e-15
1.21834e-14
3.0567e-14
4.56603e-14
6.36952e-14
5.10553e-14
4.74759e-14
4.82071e-14
4.89205e-14
4.98186e-14
5.17672e-14
5.88838e-14
7.20098e-14
1.09141e-13
1.29535e-13
1.25634e-13
1.18382e-13
6.3345e-25
4.58819e-25
3.11047e-22
1.56274e-19
3.39899e-18
5.62775e-17
5.58918e-16
2.92887e-15
7.70744e-15
1.13681e-14
7.88014e-15
7.09371e-15
8.44529e-15
1.03331e-14
1.21662e-14
1.40954e-14
1.58343e-14
1.91319e-14
2.88131e-14
3.81208e-14
4.38164e-14
4.91817e-14
4.56633e-14
8.41517e-26
7.21198e-26
6.5549e-23
1.17583e-20
2.51785e-19
4.78024e-18
6.43661e-17
3.70333e-16
1.10703e-15
1.66262e-15
1.71454e-15
1.72519e-15
2.34266e-15
3.07417e-15
3.81191e-15
4.59803e-15
5.36198e-15
6.8224e-15
1.00256e-14
1.36398e-14
1.67381e-14
1.54979e-14
1.42168e-14
2.04938e-28
2.5422e-27
4.13944e-24
7.17386e-22
1.57896e-20
3.19358e-19
5.90571e-18
3.67141e-17
1.27848e-16
2.00629e-16
2.36727e-16
3.13186e-16
4.92471e-16
7.13645e-16
9.49495e-16
1.21768e-15
1.51855e-15
2.11113e-15
3.18828e-15
4.29816e-15
4.43429e-15
4.73977e-15
3.92935e-15
5.66398e-30
1.6579e-28
1.50274e-25
3.57809e-23
9.37933e-22
1.95752e-20
4.53672e-19
3.00032e-18
1.24417e-17
2.14757e-17
3.09665e-17
5.39239e-17
9.4142e-17
1.49062e-16
2.10516e-16
2.87658e-16
3.93904e-16
5.737e-16
8.44919e-16
1.12843e-15
1.31318e-15
1.06673e-15
9.03003e-16
-9.61417e-30
7.46147e-30
8.0548e-27
2.0912e-24
5.46523e-23
1.19682e-21
2.85905e-20
2.1297e-19
1.06235e-18
2.128e-18
3.87127e-18
8.26357e-18
1.61373e-17
2.76479e-17
4.155e-17
6.11726e-17
8.40581e-17
1.2843e-16
1.8579e-16
2.67492e-16
2.36562e-16
2.25833e-16
1.59001e-16
-2.51312e-30
-5.17647e-31
5.80113e-28
1.51156e-25
4.02495e-24
7.17728e-23
1.43159e-21
1.28609e-20
7.37323e-20
1.95628e-19
4.51108e-19
1.11811e-18
2.11017e-18
3.83206e-18
6.26115e-18
1.01846e-17
1.62946e-17
2.79889e-17
4.04173e-17
4.98019e-17
4.911e-17
3.25232e-17
2.29339e-17
-4.4506e-31
-3.06721e-31
2.44334e-29
6.44554e-27
3.18943e-25
4.6767e-24
7.43136e-23
6.42893e-22
4.12728e-21
1.49975e-20
4.12915e-20
1.14678e-19
2.50902e-19
5.1156e-19
8.87265e-19
1.59363e-18
2.87667e-18
5.12391e-18
7.18906e-18
8.06951e-18
5.68973e-18
4.57121e-18
2.38315e-18
-6.278e-32
-6.20552e-32
9.08289e-31
2.22869e-28
1.83331e-26
3.12336e-25
4.43678e-24
4.007e-23
2.8055e-22
9.78665e-22
3.19566e-21
1.01374e-20
2.81038e-20
6.18015e-20
1.16365e-19
2.31909e-19
4.44257e-19
7.65392e-19
1.02382e-18
1.02234e-18
8.14296e-19
3.7134e-19
1.88613e-19
-7.52964e-33
-9.08072e-33
3.79318e-32
6.83929e-30
9.31492e-28
1.7024e-26
2.29938e-25
2.74099e-24
1.96693e-23
6.85471e-23
2.52155e-22
8.83137e-22
2.48582e-21
6.05234e-21
1.3773e-20
2.8954e-20
5.75572e-20
9.52798e-20
1.14146e-19
9.63717e-20
4.78487e-20
2.96691e-20
1.36719e-20
-7.91838e-34
-1.08612e-33
1.89058e-33
2.08377e-31
4.17692e-29
8.15019e-28
1.10522e-26
1.38093e-25
1.0548e-24
4.34481e-24
1.72276e-23
6.62835e-23
1.90337e-22
5.35314e-22
1.39394e-21
3.01462e-21
5.73936e-21
8.93363e-21
9.87809e-21
7.89155e-21
4.37127e-21
2.10838e-21
5.22733e-22
-7.44929e-35
-1.11611e-34
8.9823e-35
6.40199e-33
1.62269e-30
3.37948e-29
4.73033e-28
6.15841e-27
4.95762e-26
2.28587e-25
9.96446e-25
4.25902e-24
1.32621e-23
4.15373e-23
1.12478e-22
2.6033e-22
4.56279e-22
6.75018e-22
7.18491e-22
5.61486e-22
2.8743e-22
1.01256e-22
1.27367e-23
-6.36378e-36
-1.0142e-35
2.98475e-36
1.87714e-34
5.32213e-32
1.19452e-30
1.7497e-29
2.2693e-28
1.94265e-27
1.08021e-26
5.00463e-26
2.33527e-25
7.84804e-25
2.68355e-24
7.56288e-24
1.86182e-23
3.21661e-23
4.57162e-23
4.52202e-23
3.26797e-23
1.44996e-23
3.04147e-24
1.77727e-25
-4.99561e-37
-8.31243e-37
-1.70591e-38
5.01988e-36
1.41362e-33
3.46859e-32
5.36108e-31
6.90253e-30
6.44929e-29
4.19896e-28
2.11567e-27
1.11526e-26
4.138e-26
1.53845e-25
4.64396e-25
1.15689e-24
2.07109e-24
2.74836e-24
2.44362e-24
1.55635e-24
5.1606e-25
7.54195e-26
1.69772e-26
-3.63862e-38
-6.2371e-38
-1.46302e-38
1.23326e-37
2.8856e-35
7.98936e-34
1.33387e-32
1.97749e-31
2.06621e-30
1.51579e-29
8.57652e-29
5.16176e-28
2.09419e-27
8.33612e-27
2.69574e-26
6.63246e-26
1.19573e-25
1.44574e-25
1.14338e-25
6.07995e-26
1.41221e-26
1.957e-27
5.50936e-27
-2.47872e-39
-4.33449e-39
-1.65522e-39
3.18475e-39
4.70485e-37
1.58343e-35
3.04885e-34
6.04869e-33
6.92165e-32
5.59652e-31
3.48435e-30
2.29689e-29
9.93362e-29
4.23929e-28
1.44148e-27
3.5001e-27
6.18704e-27
6.82075e-27
4.74258e-27
1.98645e-27
3.71444e-28
4.69181e-28
2.526e-27
-1.58955e-40
-2.81541e-40
-1.35156e-40
9.43853e-41
7.99549e-39
3.36093e-37
7.7446e-36
1.82335e-34
2.22075e-33
1.93348e-32
1.30397e-31
9.13772e-31
4.22242e-30
1.97291e-29
6.90258e-29
1.65291e-28
2.86565e-28
2.9385e-28
1.78117e-28
6.14989e-29
4.51459e-29
2.22465e-28
1.34192e-27
-9.63974e-42
-1.72074e-41
-9.33357e-42
2.39829e-42
1.46412e-40
7.35248e-39
2.02429e-37
4.9413e-36
6.30511e-35
5.89051e-34
4.32416e-33
3.18197e-32
1.60416e-31
8.32722e-31
2.94535e-30
6.98039e-30
1.18665e-29
1.16918e-29
6.44105e-30
4.19916e-30
1.69295e-29
1.0153e-28
6.78269e-28
-5.53582e-43
-9.94609e-43
-5.76178e-43
1.34219e-44
2.29427e-42
1.42723e-40
4.80565e-39
1.16062e-37
1.54301e-36
1.58515e-35
1.29611e-34
9.95985e-34
5.57976e-33
3.19489e-32
1.13325e-31
2.69539e-31
4.489e-31
4.50426e-31
3.40351e-31
1.0848e-30
6.80026e-30
4.02351e-29
2.61774e-28
9.45518e-06
0.000453665
0.000492265
0.000486841
4.04572e-07
3.06522e-06
5.55898e-06
5.74059e-06
1.05236e-09
1.17097e-09
2.04563e-08
3.60057e-08
1.34253e-09
2.02953e-09
3.2711e-09
4.07019e-09
2.04715e-09
4.38189e-09
5.82163e-09
8.46996e-09
1.02541e-09
1.50432e-09
2.02848e-09
2.13632e-09
5.23641e-11
4.65251e-11
4.11175e-11
3.77085e-11
3.96572e-11
3.94754e-11
3.87541e-11
3.73516e-11
1.7386e-11
1.74533e-11
1.63807e-11
1.51369e-11
4.36312e-12
4.13307e-12
3.93184e-12
3.63498e-12
1.40531e-12
1.29834e-12
1.22723e-12
1.16447e-12
1.2995e-12
1.22364e-12
1.15126e-12
1.0976e-12
1.51796e-12
1.30656e-12
1.1288e-12
9.91068e-13
2.70715e-12
1.99456e-12
1.80219e-12
1.58921e-12
1.17594e-11
7.98718e-12
5.54641e-12
3.98359e-12
2.11972e-11
1.65832e-11
1.37957e-11
8.83758e-12
2.47381e-11
2.01405e-11
1.55612e-11
1.1374e-11
1.12115e-11
7.54003e-12
6.30358e-12
5.1275e-12
3.67015e-12
3.16231e-12
2.65045e-12
2.3065e-12
1.52766e-12
1.27782e-12
1.22185e-12
1.14275e-12
1.01711e-12
8.65815e-13
7.54997e-13
6.83161e-13
5.64262e-13
5.01098e-13
4.4713e-13
3.74592e-13
2.64853e-13
2.35562e-13
2.06931e-13
1.78864e-13
1.07806e-13
1.00142e-13
8.92133e-14
7.76814e-14
3.98184e-14
3.69305e-14
3.13191e-14
2.78218e-14
1.22989e-14
1.11542e-14
1.0084e-14
8.31977e-15
3.51271e-15
3.15493e-15
2.46493e-15
2.0751e-15
7.1425e-16
6.08853e-16
5.16847e-16
3.65585e-16
1.31872e-16
1.08073e-16
7.00809e-17
5.36158e-17
1.48386e-17
1.12697e-17
8.58137e-18
4.64048e-18
1.65702e-18
1.13127e-18
5.65714e-19
3.47349e-19
1.11617e-19
6.46437e-20
3.945e-20
1.00027e-20
3.45262e-21
8.94484e-22
2.59735e-22
6.41682e-23
2.57622e-23
2.45267e-24
1.40263e-24
1.3084e-24
6.49804e-26
1.24745e-25
2.42966e-25
4.63193e-25
6.17953e-26
8.55379e-26
1.68574e-25
4.24781e-25
2.0661e-26
3.97337e-26
1.17598e-25
3.7016e-25
1.1353e-26
3.18885e-26
1.05283e-25
3.05329e-25
6.4369e-27
2.18233e-26
7.93415e-26
2.51029e-25
4.68522e-27
1.7131e-26
5.50416e-26
1.68391e-25
2.30905e-27
1.03116e-26
3.21383e-26
9.15982e-26
1.30019e-27
3.97801e-27
1.12334e-26
2.73256e-26
0.000185987
9.54558e-09
1.30552e-07
2.51797e-07
3.75809e-07
2.53609e-07
-4.9293e-14
2.64112e-24
5.0427e-06
4.84564e-05
0.0115238
0.0951632
0.112425
0.0781026
0.086129
0.0690345
0.00215038
0.0127694
0.0165375
7.23261e-08
1.39895e-08
8.77902e-08
2.86306e-07
6.22222e-07
6.14812e-07
1.00476e-07
2.69624e-07
2.79621e-05
8.8549e-05
0.000387451
0.0040696
0.00923819
0.0343726
0.0329848
5.06964e-10
5.03387e-06
3.7871e-06
0.0116482
1.43158e-09
3.05271e-09
1.86656e-08
9.33565e-08
2.95863e-07
4.98539e-07
3.0544e-07
1.21083e-07
4.73994e-06
3.76638e-05
0.000816234
0.00199284
5.06875e-10
3.86908e-10
5.06964e-10
7.76672e-10
6.24995e-06
0.000104369
0.00209514
6.05048e-09
9.05313e-09
1.01912e-08
1.52364e-08
8.58059e-08
1.76662e-07
1.7516e-07
1.14355e-07
7.84502e-08
4.19508e-06
0.000121278
6.99043e-05
5.55282e-06
2.13972e-05
4.47604e-05
3.66759e-05
1.79386e-05
0.000493097
0.000687985
1.12492e-08
2.7097e-08
3.26862e-08
3.2523e-08
2.82113e-08
3.13517e-08
3.64033e-08
2.88699e-08
8.87443e-08
2.47275e-07
1.80977e-07
1.72841e-07
2.58406e-05
4.97392e-05
7.51129e-05
6.66161e-05
1.07772e-05
5.62453e-05
0.000814178
2.20656e-09
4.50221e-09
1.4257e-08
2.71639e-08
2.81837e-08
1.89994e-08
1.90713e-08
1.92019e-08
1.51834e-08
7.49149e-10
4.56033e-07
6.80172e-06
5.29048e-05
6.57801e-05
7.66414e-05
2.88691e-05
2.651e-06
0.000137221
0.000898029
3.61921e-11
3.57982e-11
3.60457e-11
3.64086e-11
2.3576e-10
8.12166e-09
2.58385e-08
2.53156e-08
1.3876e-08
2.68407e-10
1.49819e-06
3.56618e-06
1.0146e-24
6.41471e-19
4.83039e-12
-2.68071e-19
1.94625e-06
0.000543809
0.000900979
3.62685e-11
3.57215e-11
7.89576e-11
4.71301e-10
8.63204e-10
8.11013e-10
4.17372e-10
4.72056e-10
1.09842e-12
3.59877e-10
6.45559e-11
3.94728e-11
5.87481e-09
4.05686e-08
1.45987e-07
-3.58736e-08
2.3239e-05
0.000300502
0.000412073
1.41589e-11
1.1076e-11
7.19686e-12
3.18731e-12
1.05974e-13
3.14915e-19
-6.36841e-16
-5.89432e-16
2.27936e-12
2.39429e-11
1.68533e-10
1.39332e-09
7.94776e-09
2.06138e-08
3.4624e-07
6.80776e-07
3.99666e-07
1.59452e-15
2.95882e-15
3.26436e-12
2.85282e-12
2.52351e-12
2.27837e-12
2.02034e-12
1.66319e-12
1.33983e-12
1.03887e-12
7.26651e-13
3.0691e-13
1.02467e-14
3.46862e-27
1.11275e-18
2.15035e-28
5.8275e-15
2.50335e-08
3.57228e-08
8.20244e-15
5.50328e-15
1.08073e-12
9.92694e-13
9.58936e-13
9.69531e-13
9.59818e-13
8.85461e-13
7.10927e-13
5.50668e-13
3.99383e-13
2.94561e-13
2.21692e-13
1.62481e-13
1.21964e-13
8.38176e-14
5.2065e-14
2.1589e-14
2.43171e-14
2.40614e-14
9.17503e-15
9.73989e-13
7.68147e-13
6.53138e-13
5.90589e-13
5.3822e-13
4.82092e-13
3.9663e-13
3.29504e-13
2.84449e-13
2.39081e-13
1.95767e-13
1.65303e-13
1.32698e-13
1.14477e-13
9.09993e-14
7.07191e-14
5.38142e-14
4.13635e-14
1.03729e-14
8.25011e-13
6.53303e-13
5.70598e-13
5.12223e-13
4.5231e-13
4.18141e-13
3.44687e-13
2.75267e-13
2.16704e-13
1.74101e-13
1.54019e-13
1.29215e-13
1.19399e-13
1.05397e-13
9.09339e-14
7.99607e-14
6.62669e-14
4.63808e-14
1.25425e-14
1.08512e-12
5.56958e-13
3.92823e-13
3.16388e-13
2.8044e-13
2.45472e-13
2.13852e-13
1.67539e-13
1.28867e-13
1.01245e-13
8.48022e-14
7.91611e-14
7.0959e-14
6.8555e-14
7.35289e-14
7.30773e-14
6.70547e-14
4.76222e-14
1.35593e-14
2.08297e-12
7.72852e-13
3.46176e-13
1.88566e-13
1.38641e-13
1.26885e-13
1.0209e-13
8.36776e-14
6.75287e-14
5.95576e-14
4.22005e-14
2.97232e-14
3.19394e-14
4.23969e-14
5.31088e-14
5.98645e-14
6.27309e-14
4.82222e-14
1.3866e-14
5.03488e-12
1.75222e-12
6.1377e-13
2.07153e-13
1.01332e-13
6.69664e-14
5.59995e-14
4.63469e-14
3.87159e-14
2.74699e-14
2.27325e-14
2.02384e-14
2.14397e-14
2.69858e-14
3.70424e-14
4.5135e-14
5.39891e-14
4.83496e-14
1.39063e-14
6.46041e-12
2.48232e-12
1.02502e-12
3.34473e-13
1.24933e-13
6.02013e-14
3.30382e-14
2.18113e-14
1.50874e-14
1.69889e-14
1.82262e-14
1.53368e-14
1.46419e-14
1.73462e-14
2.47983e-14
3.23613e-14
4.5182e-14
4.24163e-14
1.33207e-14
3.99083e-12
2.59581e-12
1.19895e-12
4.4685e-13
1.71044e-13
7.57866e-14
3.45817e-14
1.74025e-14
1.13137e-14
1.1643e-14
1.18397e-14
1.0163e-14
9.55413e-15
1.08823e-14
1.64368e-14
2.36456e-14
3.64119e-14
3.3175e-14
1.12004e-14
1.83742e-12
1.3252e-12
6.83853e-13
4.13313e-13
1.94642e-13
8.59863e-14
3.80991e-14
1.72897e-14
9.22262e-15
6.99832e-15
6.48716e-15
5.82044e-15
5.46184e-15
6.49793e-15
1.07834e-14
1.81385e-14
2.99644e-14
2.60912e-14
9.70161e-15
9.89102e-13
7.07661e-13
4.78776e-13
2.74978e-13
1.41735e-13
6.89077e-14
3.24186e-14
1.47554e-14
7.14168e-15
4.10746e-15
3.24158e-15
2.94191e-15
2.93631e-15
3.81694e-15
7.23388e-15
1.38024e-14
2.50828e-14
2.03064e-14
8.92205e-15
5.91126e-13
4.62552e-13
3.19976e-13
1.6095e-13
8.22312e-14
4.12845e-14
1.99762e-14
9.33223e-15
4.43835e-15
2.28627e-15
1.5236e-15
1.4039e-15
1.52607e-15
2.30482e-15
5.0432e-15
1.05928e-14
1.85413e-14
1.7352e-14
6.42211e-15
3.12448e-13
2.37075e-13
1.66238e-13
9.1663e-14
4.54487e-14
2.17538e-14
1.00484e-14
4.59159e-15
2.18918e-15
1.09234e-15
6.65851e-16
6.50369e-16
7.93131e-16
1.49486e-15
3.52009e-15
5.95797e-15
1.16736e-14
1.26892e-14
5.33476e-15
1.48804e-13
1.09082e-13
7.32815e-14
4.15169e-14
2.05929e-14
9.70047e-15
4.32582e-15
1.89889e-15
8.44963e-16
4.22307e-16
2.74501e-16
3.07718e-16
4.10858e-16
7.46709e-16
1.83153e-15
3.97512e-15
7.81484e-15
1.02725e-14
3.86555e-15
6.2122e-14
4.22405e-14
2.69965e-14
1.4964e-14
7.55158e-15
3.48248e-15
1.50234e-15
6.39852e-16
3.01368e-16
1.22168e-16
1.10403e-16
9.54513e-17
1.26646e-16
3.98339e-16
1.28695e-15
2.93543e-15
4.87671e-15
6.11953e-15
3.07803e-15
2.07678e-14
1.32333e-14
8.03542e-15
4.34958e-15
2.11033e-15
9.38062e-16
3.93925e-16
1.79232e-16
5.35615e-17
3.20884e-17
1.95351e-17
1.93759e-17
6.06475e-17
2.84969e-16
9.43168e-16
2.09023e-15
3.01133e-15
4.40655e-15
1.71543e-15
5.93932e-15
3.40822e-15
1.93735e-15
9.80752e-16
4.54086e-16
1.95864e-16
8.80027e-17
2.19497e-17
5.71808e-18
3.56558e-18
2.75051e-18
6.0218e-18
3.92382e-17
1.98699e-16
6.27489e-16
1.3495e-15
1.8614e-15
1.71061e-15
1.09349e-15
1.18791e-15
6.18491e-16
3.20904e-16
1.59259e-16
7.12452e-17
3.18709e-17
4.57937e-18
8.78929e-19
5.8949e-19
4.30728e-19
4.62839e-19
2.91668e-18
2.51707e-17
1.2093e-16
3.70145e-16
7.82561e-16
1.04341e-15
8.95173e-16
3.72341e-16
2.14758e-16
1.07233e-16
4.16336e-17
2.07186e-17
8.5732e-18
8.59171e-19
1.35586e-19
8.92944e-20
6.66555e-20
6.93727e-20
1.23492e-19
1.60258e-18
1.39714e-17
6.28957e-17
1.93315e-16
4.02602e-16
5.17701e-16
3.98936e-16
1.62366e-16
2.23221e-17
9.12497e-18
4.92153e-18
1.17507e-18
8.74556e-20
1.87159e-20
1.41468e-20
1.42052e-20
1.97773e-20
3.42712e-20
8.20342e-20
8.13518e-19
6.64445e-18
2.84567e-17
8.98321e-17
1.80502e-16
2.23691e-16
1.68697e-16
4.9465e-17
1.85257e-18
8.50692e-19
1.57089e-19
8.753e-21
1.69625e-21
2.33439e-21
4.29502e-21
8.69989e-21
1.75165e-20
3.59486e-20
7.98628e-20
4.02015e-19
2.74725e-18
1.17938e-17
3.6186e-17
7.19414e-17
9.00242e-17
5.92657e-17
1.56889e-17
1.4587e-19
1.80524e-20
8.28252e-22
5.88894e-22
1.00564e-21
2.16825e-21
4.84381e-21
1.07343e-20
2.2849e-20
4.61352e-20
9.19492e-20
2.37632e-19
1.03454e-18
4.45682e-18
1.32041e-17
2.49424e-17
3.08396e-17
1.88767e-17
4.78647e-18
1.44111e-21
1.77231e-22
2.07395e-22
4.432e-22
1.05841e-21
2.52063e-21
5.84371e-21
1.29633e-20
2.78475e-20
5.5756e-20
1.07116e-19
2.16223e-19
5.77522e-19
1.7153e-18
4.62614e-18
7.79956e-18
1.57046e-17
6.54991e-18
2.19902e-18
1.94185e-23
4.53204e-23
1.57226e-22
4.39327e-22
1.11543e-21
2.72603e-21
6.43817e-21
1.43741e-20
3.15849e-20
6.39988e-20
1.2184e-19
2.198e-19
4.20266e-19
8.70268e-19
1.73895e-18
3.48359e-18
3.70217e-18
2.78814e-18
5.80157e-19
5.60478e-24
4.13907e-23
1.40406e-22
3.9515e-22
1.05026e-21
2.67333e-21
6.50942e-21
1.50367e-20
3.29632e-20
6.78825e-20
1.29538e-19
2.26063e-19
3.58703e-19
5.68249e-19
1.02202e-18
1.73975e-18
1.68557e-18
7.10531e-19
2.23843e-19
5.99383e-24
3.37563e-23
1.09822e-22
3.22235e-22
8.9769e-22
2.38443e-21
5.97926e-21
1.41141e-20
3.15009e-20
6.44886e-20
1.20926e-19
2.04041e-19
3.01399e-19
4.76055e-19
7.43476e-19
9.23172e-19
6.48083e-19
3.38137e-19
7.53101e-20
4.84159e-24
2.29923e-23
7.78148e-23
2.42391e-22
7.09462e-22
1.94227e-21
4.94972e-21
1.19041e-20
2.68615e-20
5.59484e-20
1.04903e-19
1.74436e-19
2.45011e-19
3.66068e-19
4.59467e-19
4.63943e-19
3.30728e-19
1.07968e-19
3.57513e-20
3.31332e-24
1.47535e-23
5.2751e-23
1.7156e-22
5.16357e-22
1.42032e-21
3.63728e-21
8.83243e-21
1.98662e-20
4.13382e-20
7.6608e-20
1.24473e-19
1.79696e-19
2.40508e-19
2.28176e-19
1.81356e-19
8.53077e-20
4.24666e-20
1.39486e-20
2.33068e-24
9.33565e-24
3.41404e-23
1.13268e-22
3.36246e-22
9.3802e-22
2.38154e-21
5.62443e-21
1.23817e-20
2.54639e-20
4.61195e-20
7.23939e-20
1.00199e-19
1.19717e-19
9.11932e-20
5.56767e-20
2.84602e-20
1.36948e-20
6.44394e-21
1.33084e-24
5.35458e-24
2.0137e-23
6.55343e-23
1.92132e-22
5.2344e-22
1.2962e-21
2.95429e-21
6.29926e-21
1.25764e-20
2.20052e-20
3.29194e-20
4.2108e-20
4.53916e-20
3.14265e-20
1.5993e-20
7.62827e-21
5.00549e-21
2.74177e-21
7.11973e-25
2.67279e-24
9.15946e-24
2.86369e-23
8.09755e-23
2.10783e-22
5.29232e-22
1.20147e-21
2.48945e-21
4.7532e-21
8.0654e-21
1.18324e-20
1.34775e-20
1.35467e-20
8.42709e-21
4.92541e-21
2.46353e-21
1.42187e-21
1.34217e-21
2.81046e-25
9.95828e-25
3.28366e-24
9.787e-24
2.65984e-23
6.83158e-23
1.59518e-22
3.65163e-22
7.39591e-22
1.35107e-21
2.13912e-21
2.9327e-21
3.23031e-21
2.86169e-21
1.65341e-21
1.0723e-21
4.30028e-22
4.58368e-22
3.77768e-22
6.23535e-26
2.04886e-25
6.39332e-25
1.81726e-24
4.75949e-24
1.22295e-23
2.7459e-23
5.65e-23
1.17487e-22
2.08545e-22
3.19904e-22
4.14357e-22
4.25948e-22
2.97963e-22
1.72897e-22
1.25941e-22
9.84692e-23
4.27466e-23
4.91827e-23
)
;

boundaryField
{
    leftWall
    {
        type            alphaContactAngle;
        contactAngleProperties 
        {
            air             
            {
                theta0          90;
            }
            water           
            {
                theta0          90;
            }
            oil             
            {
                theta0          90;
            }
        }
        value           nonuniform List<scalar> 
50
(
1
1
1
1
1
1
1
1
0.998083
0.398338
3.48561e-09
4.51882e-09
3.22256e-09
2.15645e-09
1.40036e-09
8.21755e-10
4.47888e-10
1.45477e-10
9.38648e-12
1.71459e-13
2.28615e-14
8.44967e-16
8.11562e-17
2.23181e-17
8.06066e-18
2.36071e-18
6.38791e-19
1.4722e-19
2.76056e-20
4.27569e-21
1.79144e-22
2.67718e-23
6.3345e-25
8.41517e-26
2.04938e-28
5.66398e-30
-9.61417e-30
-2.51312e-30
-4.4506e-31
-6.278e-32
-7.52964e-33
-7.91838e-34
-7.44929e-35
-6.36378e-36
-4.99561e-37
-3.63862e-38
-2.47872e-39
-1.58955e-40
-9.63974e-42
-5.53582e-43
)
;
    }
    rightWall
    {
        type            alphaContactAngle;
        contactAngleProperties 
        {
            air             
            {
                theta0          90;
            }
            water           
            {
                theta0          90;
            }
            oil             
            {
                theta0          90;
            }
        }
        value           nonuniform List<scalar> 
50
(
0.688867
0.68895
0.607138
0.467186
0.232288
0.0812544
0.0394312
0.0243572
0.0165375
0.0116482
0.00209514
0.000687985
0.000814178
0.000898029
0.000900979
0.000412073
2.95882e-15
5.50328e-15
9.17503e-15
1.03729e-14
1.25425e-14
1.35593e-14
1.3866e-14
1.39063e-14
1.33207e-14
1.12004e-14
9.70161e-15
8.92205e-15
6.42211e-15
5.33476e-15
3.86555e-15
3.07803e-15
1.71543e-15
1.09349e-15
3.72341e-16
1.62366e-16
4.9465e-17
1.56889e-17
4.78647e-18
2.19902e-18
5.80157e-19
2.23843e-19
7.53101e-20
3.57513e-20
1.39486e-20
6.44394e-21
2.74177e-21
1.34217e-21
3.77768e-22
4.91827e-23
)
;
    }
    lowerWall
    {
        type            alphaContactAngle;
        contactAngleProperties 
        {
            air             
            {
                theta0          90;
            }
            water           
            {
                theta0          90;
            }
            oil             
            {
                theta0          90;
            }
        }
        value           nonuniform List<scalar> 
62
(
1
1
1
1
1
1
1
1
1
1
1
1
1
1
1
1
1
1
1
1
0.999872
0.999438
0.999431
0.999431
0.999431
0.999914
0.999997
0.961855
0.323265
1.82146e-19
0.0341909
9.45518e-06
0.000453665
0.000492265
0.000486841
0.0366771
0.0359972
0.0350841
0.035258
0.0360288
0.015609
0.000212958
0.000383509
0.0366771
0.0366468
0.0445259
0.102556
0.204895
0.204901
0.0875249
0.0926581
0.166768
0.475437
0.450576
0.359427
0.354373
0.602814
0.688956
0.688966
0.688962
0.68688
0.688867
)
;
    }
    atmosphere
    {
        type            inletOutlet;
        inletValue      uniform 0;
        value           nonuniform List<scalar> 
46
(
-5.53582e-43
-9.94608e-43
-5.76178e-43
1.34219e-44
2.29427e-42
1.42723e-40
4.80565e-39
1.16062e-37
1.54301e-36
1.58514e-35
1.29611e-34
9.95984e-34
5.57976e-33
3.19489e-32
1.13325e-31
2.69539e-31
4.489e-31
4.50426e-31
3.40351e-31
1.0848e-30
6.80026e-30
4.02351e-29
2.61774e-28
0
0
0
0
0
0
0
0
0
0
0
0
0
0
0
0
0
0
0
0
0
0
0
)
;
    }
    defaultFaces
    {
        type            empty;
    }
}


// ************************************************************************* //
