/*--------------------------------*- C++ -*----------------------------------*\
  =========                 |
  \\      /  F ield         | OpenFOAM: The Open Source CFD Toolbox
   \\    /   O peration     | Website:  https://openfoam.org
    \\  /    A nd           | Version:  13
     \\/     M anipulation  |
\*---------------------------------------------------------------------------*/
FoamFile
{
    format      ascii;
    class       volScalarField;
    location    "1.05";
    object      alpha.oil;
}
// * * * * * * * * * * * * * * * * * * * * * * * * * * * * * * * * * * * * * //

dimensions      [];

internalField   nonuniform List<scalar> 
2268
(
1.11217e-17
3.11037e-15
6.15081e-14
3.74412e-13
1.02985e-12
2.48473e-12
5.63168e-12
1.16341e-11
2.3438e-11
4.57593e-11
8.63831e-11
1.6079e-10
3.09088e-10
5.61395e-10
1.0447e-09
1.89606e-09
3.2924e-09
6.06763e-09
9.87103e-09
9.97011e-09
0.000128266
0.000561807
0.000568518
2.39161e-16
6.62047e-15
5.82075e-14
2.75764e-13
8.66845e-13
2.41315e-12
6.15296e-12
1.57484e-11
3.61928e-11
8.11359e-11
1.73166e-10
3.5581e-10
7.20612e-10
1.45199e-09
2.84199e-09
5.82293e-09
1.32336e-08
3.18171e-08
6.41623e-08
1.03065e-07
5.30768e-08
0.00012794
0.000568556
3.77084e-16
6.21595e-15
4.79312e-14
2.40845e-13
9.76725e-13
3.35215e-12
9.91182e-12
2.67432e-11
7.07897e-11
1.95273e-10
3.97212e-10
8.17246e-10
1.60953e-09
3.29467e-09
5.8283e-09
1.07849e-08
2.75031e-08
7.04927e-08
1.08915e-07
9.17631e-08
4.96381e-08
5.20808e-08
8.58684e-05
3.44565e-16
1.04321e-14
7.74548e-14
4.02613e-13
1.73923e-12
5.61212e-12
1.69656e-11
4.71298e-11
1.18934e-10
2.56092e-10
5.19931e-10
1.12923e-09
2.51507e-09
5.358e-09
1.4062e-08
2.09973e-08
2.29693e-08
1.09141e-07
1.04696e-07
9.33191e-08
2.62831e-07
1.6456e-06
3.36807e-06
1.42251e-15
1.61693e-14
1.02233e-13
5.36254e-13
1.91305e-12
5.85066e-12
1.41785e-11
2.58301e-11
4.6039e-11
1.08815e-10
1.97586e-10
4.0106e-10
5.73914e-10
5.80728e-10
5.88092e-10
6.84851e-07
2.98909e-06
4.39485e-06
3.97048e-06
2.41467e-06
5.36501e-06
1.39551e-05
2.90961e-06
9.33476e-16
1.09159e-14
6.4379e-14
2.46156e-13
6.94549e-13
1.27261e-12
1.72383e-12
5.76053e-12
1.75921e-11
4.55263e-11
1.31501e-10
5.4022e-10
2.54938e-09
8.84614e-09
4.80845e-08
3.18386e-06
7.50243e-06
7.49988e-06
7.51386e-06
7.49847e-06
8.74696e-06
0.000118874
0.00149954
3.00089e-16
4.52513e-15
2.13591e-14
6.09178e-14
8.62092e-14
7.8339e-14
1.30046e-13
3.70848e-12
3.5683e-11
2.03548e-10
1.00022e-09
8.7314e-09
3.11389e-08
1.10732e-07
5.68963e-07
2.37427e-06
4.89298e-06
6.80291e-06
6.55518e-06
4.16869e-06
4.30624e-06
0.00970674
0.0427454
4.38348e-17
6.36019e-16
5.08015e-15
1.01811e-14
9.70173e-15
1.47921e-13
5.76602e-12
5.03694e-11
2.43097e-10
1.01994e-09
3.75187e-09
1.29986e-08
3.61468e-08
1.2639e-07
2.58111e-07
1.79414e-07
1.93018e-07
8.27109e-07
7.25592e-07
8.04248e-07
0.076641
0.425622
0.527725
0.948834
0.917509
0.88581
0.831064
0.704288
0.78024
0.912475
0.907342
0.833232
0.517013
0.490831
0.509599
0.479275
0.173127
0.060373
0.0659241
0.156143
0.222476
0.231638
0.949376
0.755139
0.276318
0.272844
0.0832685
0.212964
0.652565
0.912981
0.762438
0.19639
0.14811
0.398033
0.479113
0.276645
0.0616194
0.0913194
0.204256
0.299458
0.310448
0.948577
0.379198
-2.87287e-14
2.87287e-14
-1.42675e-09
1.64461e-18
0.144887
0.506311
0.455258
0.10928
0.0566705
0.120818
0.145527
0.231042
0.164305
0.0981707
0.242809
0.187442
0.384553
0.949713
0.259553
0.000478902
-5.0822e-24
9.08579e-07
8.19809e-07
2.48578e-06
0.0645843
0.126022
0.00380981
-2.59651e-20
0.00105191
0.0682198
0.260592
0.294729
0.24583
0.253221
0.18632
0.387345
0.492182
0.0359282
-7.51658e-08
1.40933e-08
1.68986e-06
2.20974e-05
8.7265e-09
8.77088e-19
2.16334e-19
-4.69162e-21
-5.94411e-16
3.93109e-19
0.148643
0.352641
0.353839
0.334224
0.300402
0.36143
0.384301
0.147129
0.0859255
0.0819088
-1.69596e-08
6.7917e-07
2.62831e-05
7.14312e-05
0
-1.11899e-19
-2.09159e-18
1.46492e-09
0.000798489
0.116315
0.202526
0.331914
0.311682
0.166073
0.719021
0.411024
0.567592
0.551442
0.645512
0.503802
0.0615136
4.90532e-06
0.000106577
0.000100994
2.60209e-21
1.14122e-05
5.7506e-05
0.00880872
0.0377737
0.031328
0.0837488
0.112536
0.110545
0.721849
0.454193
0.659013
0.938892
0.964359
0.952142
0.718825
0.0325907
8.81048e-05
0.000183431
0.000219149
0.000132246
0.00221415
0.113213
0.212544
0.153981
0.100486
0.105953
0.137166
0.748481
0.510347
2.43996e-18
5.81511e-17
4.53503e-16
8.20471e-16
1.71809e-14
8.78495e-13
1.07081e-11
4.61968e-11
1.78384e-10
6.27615e-10
1.79399e-09
4.98206e-09
1.60481e-08
3.90441e-08
3.52099e-08
-2.81624e-11
-3.60774e-10
1.39863e-20
6.99159e-12
0.101583
0.641627
0.773125
0.796496
5.93954e-20
5.58859e-19
9.53865e-18
6.67829e-16
2.29244e-14
6.31875e-13
1.02937e-11
6.54574e-11
3.15913e-10
1.05185e-09
3.23862e-09
7.74464e-09
9.22385e-09
4.83308e-09
2.0953e-09
-6.18005e-12
-3.35697e-20
0.0146761
0.416101
0.705167
0.992772
1
0.999795
6.61244e-21
8.14103e-20
2.48415e-18
2.86055e-16
1.33817e-13
1.40197e-11
1.39428e-10
7.87262e-10
3.36983e-09
1.35234e-08
2.87791e-08
3.3533e-08
1.99436e-08
2.38546e-09
2.22279e-09
0.0578025
0.513914
0.746146
0.995058
0.98911
0.999657
1
1
8.6252e-21
8.98827e-20
5.14707e-19
1.70753e-16
8.40589e-13
1.26239e-10
1.07652e-09
4.52605e-09
2.62315e-08
7.01628e-08
6.63549e-08
2.1869e-08
2.08523e-08
0.108065
0.493299
0.842906
0.975175
0.965983
0.999953
0.999997
0.999998
0.999999
1
1.60088e-20
9.0853e-20
2.25639e-18
4.02994e-14
2.03609e-11
2.87179e-10
1.1202e-09
7.14557e-09
1.43215e-08
1.36367e-08
1.29264e-08
0.0963734
0.503253
0.838216
0.940939
0.982121
0.99996
0.999974
0.999945
0.999974
1
1
1
2.53374e-20
4.08218e-19
6.08361e-17
1.90099e-13
1.93375e-11
1.28399e-10
5.74337e-10
1.05406e-09
9.94289e-10
0.0444331
0.489065
0.754745
0.971451
0.999426
1
0.999999
0.999918
0.999968
1
0.999996
0.999999
1
1
4.91838e-20
1.00524e-18
1.672e-15
6.35335e-13
7.12543e-12
4.61785e-12
7.04346e-12
4.61785e-12
0.283469
0.676903
0.962216
0.995723
1
1
1
0.999987
0.999964
0.999992
1
1
1
1
1
5.84737e-20
1.81406e-18
2.68904e-12
4.6963e-10
6.68839e-12
7.04346e-12
0.0471803
0.58114
0.822795
0.989653
0.999994
1
1
1
1
1
1
1
1
0.936588
0.77604
0.778745
0.823012
5.89636e-20
9.92074e-17
5.37591e-15
1.81842e-10
6.14429e-05
0.115556
0.732322
0.966114
0.998537
0.999997
0.999997
0.999998
0.999999
1
1
0.97466
0.784725
0.602498
0.421259
0.206239
0.0723281
0.0396975
0.0206387
8.29478e-16
-3.18515e-14
-1.45034e-13
-9.7689e-20
0.0347942
0.604771
0.999613
0.999892
0.999915
0.999963
0.999996
0.945151
0.772068
0.597488
0.413222
0.224249
0.0800893
0.0163997
0.000412348
1.01663e-07
1.18426e-07
6.48086e-07
4.60138e-07
3.73654e-12
2.43625e-10
8.30294e-10
6.27759e-10
0.00552294
0.528865
0.98512
0.969452
0.88222
0.616523
0.343774
0.170815
0.0684751
0.0169206
1.30795e-06
8.49224e-07
5.76815e-07
6.64997e-07
1.47382e-07
1.12923e-07
8.28937e-08
1.23275e-07
6.56418e-07
1.02973e-12
1.80892e-10
1.125e-09
9.63874e-10
0.000849348
0.0523294
0.164979
0.193249
0.135318
0.0299362
7.28243e-07
1.33362e-06
1.56386e-06
1.29243e-06
9.28209e-08
3.49519e-08
8.18572e-08
6.76725e-08
8.21452e-08
8.22819e-08
2.83045e-08
1.51912e-08
1.04177e-06
1.96838e-14
3.20912e-14
1.97648e-08
4.07467e-06
8.17958e-05
3.29064e-06
3.41538e-06
1.94369e-06
8.34553e-07
1.80656e-08
1.17093e-07
4.271e-07
6.7339e-07
5.55147e-07
1.10175e-07
2.15723e-13
7.67036e-11
1.3195e-11
5.17477e-08
4.64839e-08
1.33426e-08
2.21013e-08
8.80523e-08
1.23808e-14
1.73839e-10
2.95558e-08
7.29399e-07
2.24403e-08
3.21809e-08
1.15745e-09
8.11718e-09
6.00758e-09
1.71739e-08
8.64755e-08
2.82829e-07
4.78241e-07
3.52706e-07
2.50372e-06
8.20987e-05
8.83283e-05
3.39094e-06
5.34472e-11
1.9702e-11
2.84985e-08
1.98239e-08
2.73977e-09
7.81385e-15
4.87306e-11
5.06665e-09
1.48701e-07
2.0647e-08
2.01894e-07
1.03624e-07
1.28708e-08
1.18937e-08
1.76607e-08
5.42603e-08
1.28842e-07
2.39134e-07
2.40162e-07
2.77134e-07
7.93208e-05
0.000200483
0.000191948
0.000111305
5.34479e-11
3.0873e-08
7.15837e-08
8.1867e-08
7.57758e-15
1.95857e-12
9.34726e-10
2.34722e-08
3.78278e-08
2.34323e-07
2.17795e-07
3.90603e-08
2.65568e-08
1.50085e-08
2.97164e-08
6.72168e-08
1.17533e-07
1.74667e-07
3.78921e-07
2.62518e-06
5.55453e-05
0.000178399
0.000200254
0.000200919
6.0426e-05
7.26492e-07
4.8272e-08
2.8816e-15
5.83338e-14
1.72418e-10
4.15794e-09
3.12258e-08
1.54782e-07
2.05261e-07
5.11662e-08
3.51181e-08
1.51196e-08
1.39771e-08
3.37678e-08
6.70679e-08
1.1541e-07
1.97799e-07
2.71015e-07
2.5367e-07
6.85668e-06
5.38564e-05
9.78277e-05
0.00010636
2.19524e-05
5.75413e-08
7.37849e-16
4.37998e-14
2.92277e-11
9.31041e-10
1.29176e-08
7.18509e-08
1.27917e-07
4.73119e-08
3.27706e-08
1.62607e-08
1.01553e-08
1.57662e-08
3.01819e-08
5.30799e-08
8.92532e-08
1.64238e-07
1.19531e-07
1.40284e-07
1.22367e-07
1.20084e-07
6.46862e-06
2.55138e-06
1.65099e-07
1.37655e-16
1.41459e-14
4.09915e-12
1.82363e-10
3.32646e-09
2.46309e-08
5.87527e-08
2.85499e-08
2.20287e-08
1.31389e-08
7.95754e-09
9.11064e-09
1.4973e-08
2.37891e-08
4.07481e-08
6.28643e-08
5.18285e-08
3.04652e-08
3.08129e-08
3.8346e-08
1.85974e-08
8.92776e-08
1.8159e-08
2.00004e-17
2.95654e-15
6.35837e-13
2.90842e-11
6.39311e-10
6.22033e-09
1.96207e-08
1.19006e-08
1.12774e-08
7.99483e-09
5.23718e-09
5.39289e-09
7.95059e-09
1.16498e-08
1.8368e-08
2.76447e-08
2.42266e-08
1.43138e-08
9.19176e-09
1.13173e-08
1.35915e-08
8.71803e-09
1.18324e-08
2.31332e-18
4.5655e-16
1.01996e-13
4.05657e-12
9.32405e-11
1.09434e-09
4.55116e-09
3.54759e-09
4.39019e-09
3.66006e-09
2.72312e-09
2.89598e-09
4.10845e-09
5.85996e-09
8.57718e-09
1.15709e-08
1.04566e-08
6.97232e-09
4.96755e-09
4.802e-09
5.71577e-09
7.43097e-09
7.94651e-09
2.15949e-19
5.28693e-17
1.38111e-14
5.38531e-13
1.02688e-11
1.27476e-10
7.23474e-10
8.35568e-10
1.37705e-09
1.30568e-09
1.12235e-09
1.35337e-09
1.97257e-09
2.85263e-09
4.05816e-09
5.05621e-09
4.71802e-09
3.61586e-09
2.99865e-09
3.2655e-09
4.10335e-09
4.65522e-09
6.30686e-09
3.99019e-21
4.6094e-18
1.57811e-15
8.08037e-14
1.16485e-12
1.26958e-11
9.53092e-11
1.98118e-10
4.09578e-10
4.16501e-10
3.93726e-10
5.674e-10
8.74925e-10
1.30937e-09
1.86116e-09
2.25322e-09
2.17327e-09
1.8575e-09
1.78345e-09
2.01146e-09
2.50607e-09
3.31234e-09
3.63121e-09
5.68118e-22
2.76625e-19
1.30883e-16
6.38477e-15
8.91727e-14
9.4555e-13
7.42527e-12
2.88739e-11
7.16623e-11
8.25113e-11
1.33233e-10
2.14956e-10
3.62826e-10
5.71103e-10
8.177e-10
9.8182e-10
9.80333e-10
9.21937e-10
9.27212e-10
1.21847e-09
1.54827e-09
1.7077e-09
2.07781e-09
9.91631e-24
5.36916e-21
4.4827e-18
1.38036e-15
1.9351e-14
2.22074e-13
1.8577e-12
7.48538e-12
1.95056e-11
2.50509e-11
3.12839e-11
5.61087e-11
1.10934e-10
1.8661e-10
2.73478e-10
3.37679e-10
3.68026e-10
3.98261e-10
4.93299e-10
6.1568e-10
7.28041e-10
9.44838e-10
9.95517e-10
1.70505e-24
9.06769e-22
1.02292e-18
1.37712e-16
2.11725e-15
2.59042e-14
2.46597e-13
1.11027e-12
3.27836e-12
5.37555e-12
1.01017e-11
1.98862e-11
4.06948e-11
6.9868e-11
1.03223e-10
1.30924e-10
1.53115e-10
1.80766e-10
2.30003e-10
2.90725e-10
3.68575e-10
3.74811e-10
3.99369e-10
2.23388e-25
3.92653e-23
8.38704e-20
1.16424e-17
2.32702e-16
2.80215e-15
2.98226e-14
1.42996e-13
4.94328e-13
1.078e-12
2.41604e-12
5.49614e-12
1.16039e-11
2.09444e-11
3.20418e-11
4.35446e-11
5.61074e-11
7.26801e-11
9.52871e-11
1.1941e-10
1.27942e-10
1.47959e-10
1.3832e-10
1.26167e-25
3.57772e-24
4.67881e-21
7.94061e-19
2.39111e-17
3.08396e-16
3.4725e-15
1.7456e-14
7.13812e-14
1.99232e-13
5.09564e-13
1.30514e-12
2.89078e-12
5.57367e-12
9.04787e-12
1.34141e-11
1.90729e-11
2.53801e-11
3.24564e-11
3.98776e-11
4.69286e-11
4.18956e-11
3.88392e-11
5.3613e-26
7.89708e-25
3.10432e-22
5.98779e-20
2.11681e-18
3.14532e-17
3.55579e-16
2.10607e-15
9.92636e-15
3.26883e-14
9.40161e-14
2.63689e-13
6.41319e-13
1.33905e-12
2.35993e-12
3.81544e-12
5.37868e-12
7.2518e-12
9.10513e-12
1.17378e-11
1.08328e-11
1.08866e-11
8.68838e-12
2.16915e-26
3.01797e-25
2.37903e-23
4.71798e-21
2.01185e-19
2.80466e-18
3.04175e-17
2.16962e-16
1.11659e-15
4.71537e-15
1.52321e-14
4.6894e-14
1.10991e-13
2.517e-13
4.95186e-13
8.70254e-13
1.33985e-12
1.92047e-12
2.39664e-12
2.70553e-12
2.73236e-12
2.00231e-12
1.55156e-12
7.95701e-27
1.12466e-25
1.86111e-24
2.4452e-22
1.76692e-20
2.41798e-19
2.62124e-18
1.9586e-17
1.11818e-16
5.27823e-16
1.88383e-15
6.45874e-15
1.87961e-14
4.81566e-14
9.86793e-14
1.81377e-13
2.94657e-13
4.23562e-13
5.13103e-13
5.39041e-13
4.09159e-13
3.54139e-13
2.17767e-13
2.60345e-27
3.83756e-26
3.95122e-25
1.29131e-23
1.16619e-21
1.87354e-20
2.09775e-19
1.94308e-18
1.21307e-17
5.1463e-17
2.09512e-16
8.22897e-16
2.88999e-15
7.96668e-15
1.77442e-14
3.41802e-14
5.59578e-14
7.70563e-14
8.89835e-14
8.5326e-14
7.256e-14
3.9868e-14
2.66454e-14
7.73913e-28
1.19083e-26
1.19907e-25
1.28799e-24
7.02534e-23
1.18657e-21
1.40353e-20
1.69398e-19
1.13486e-18
5.07954e-18
2.33885e-17
1.02829e-16
3.7745e-16
1.1344e-15
2.84768e-15
5.40066e-15
8.89847e-15
1.18384e-14
1.24428e-14
1.04283e-14
6.27008e-15
5.08285e-15
5.34617e-15
2.10856e-28
3.41721e-27
3.5497e-26
2.90222e-25
4.95118e-24
7.27281e-23
8.82446e-22
1.18872e-20
8.75496e-20
4.53677e-19
2.36534e-18
1.1527e-17
4.50579e-17
1.44706e-16
3.75071e-16
7.13094e-16
1.10367e-15
1.39194e-15
1.41402e-15
1.21396e-15
9.45216e-16
1.01825e-15
2.36874e-15
5.31584e-29
8.77339e-28
9.41448e-27
7.72936e-26
6.83609e-25
6.51656e-24
6.8021e-23
8.55268e-22
6.39143e-21
3.80984e-20
2.18908e-19
1.14437e-18
4.73638e-18
1.55401e-17
3.99729e-17
7.951e-17
1.17047e-16
1.46592e-16
1.57033e-16
1.63215e-16
1.74357e-16
3.28541e-16
1.1406e-15
1.23924e-29
2.06876e-28
2.22907e-27
1.95265e-26
1.59742e-25
1.24292e-24
1.04329e-23
9.36668e-23
6.10264e-22
3.73703e-21
2.12683e-20
1.11198e-19
4.66566e-19
1.5259e-18
3.98598e-18
8.22483e-18
1.28528e-17
1.71794e-17
2.14587e-17
3.23211e-17
5.65906e-17
1.43372e-16
5.21173e-16
2.67553e-30
4.53632e-29
5.09209e-28
4.89601e-27
4.26869e-26
3.41818e-25
2.74132e-24
1.99113e-23
1.12091e-22
6.07468e-22
3.01068e-21
1.39272e-20
5.46156e-20
1.74282e-19
4.63243e-19
9.80099e-19
1.70801e-18
2.62453e-18
4.17742e-18
8.50657e-18
1.80382e-17
6.3085e-17
2.32838e-16
5.43334e-31
9.64243e-30
1.18684e-28
1.24438e-27
1.16212e-26
9.84712e-26
7.91056e-25
5.23009e-24
2.84074e-23
1.43439e-22
6.33837e-22
2.52233e-21
8.88537e-21
2.71978e-20
7.08235e-20
1.5347e-19
2.89891e-19
5.19961e-19
1.0026e-18
2.41898e-18
6.64643e-18
2.27221e-17
1.01993e-16
1.05396e-31
2.07678e-30
2.78345e-29
3.10408e-28
3.05612e-27
2.68419e-26
2.12425e-25
1.33342e-24
7.23362e-24
3.54585e-23
1.49302e-22
5.50311e-22
1.81316e-21
5.29733e-21
1.33028e-20
2.90574e-20
5.75964e-20
1.13701e-19
2.47192e-19
6.77518e-19
1.88803e-18
8.93916e-18
4.83329e-17
1.97433e-32
4.43686e-31
6.34522e-30
7.36884e-29
7.51272e-28
6.69931e-27
5.0854e-26
3.16165e-25
1.71164e-24
8.22982e-24
3.38733e-23
1.21466e-22
3.8554e-22
1.08349e-21
2.64224e-21
5.73619e-21
1.17492e-20
2.44315e-20
5.93876e-20
1.91306e-19
7.87969e-19
4.36382e-18
2.62805e-17
3.61173e-33
9.09005e-32
1.37066e-30
1.63452e-29
1.6988e-28
1.5186e-27
1.10571e-26
6.87086e-26
3.69762e-25
1.75075e-24
7.08069e-24
2.50559e-23
7.68574e-23
2.11117e-22
5.04697e-22
1.08876e-21
2.30433e-21
5.10814e-21
1.47275e-20
6.11339e-20
3.39895e-19
2.0228e-18
1.36499e-17
6.47279e-34
1.77307e-32
2.78081e-31
3.37324e-30
3.53385e-29
3.10346e-28
2.20559e-27
1.36531e-26
7.28264e-26
3.40192e-25
1.35184e-24
4.72442e-24
1.39971e-23
3.80707e-23
8.96127e-23
1.94218e-22
4.297e-22
1.08431e-21
3.89571e-21
2.22527e-20
1.37723e-19
8.1506e-19
5.37745e-18
0.842012
0.995143
0.999503
0.994902
0.997766
0.99968
0.999994
0.999957
1
1
1
1
1
1
1
1
1
1
1
1
1
1
1
1
1
1
1
0.998229
0.449317
0.316068
0.414827
0.533279
0.00302864
5.74122e-09
9.47163e-07
0.000437621
2.63275e-07
1.52858e-07
3.35067e-07
9.05754e-07
1.31026e-06
7.89325e-07
8.11033e-07
1.49214e-06
1.99945e-06
1.9272e-06
1.99681e-06
1.98575e-06
3.51968e-07
4.09261e-07
3.82626e-07
1.0783e-06
4.14193e-09
2.57127e-09
3.31971e-09
8.5119e-09
2.32181e-08
2.23284e-09
2.57102e-09
1.33777e-09
9.30001e-08
1.1558e-07
4.01977e-08
1.54405e-09
3.26644e-07
3.05816e-07
2.88643e-08
5.70319e-09
2.9772e-07
2.5394e-07
1.13513e-07
3.40087e-08
1.59072e-08
1.6297e-08
1.52126e-08
1.55763e-08
1.33023e-08
1.23383e-08
1.76215e-08
1.80731e-08
9.43016e-09
1.27541e-08
1.26317e-08
1.47294e-08
6.86823e-09
6.55423e-09
8.04868e-09
8.55349e-09
4.07355e-09
4.33423e-09
4.39662e-09
4.7011e-09
2.16483e-09
2.19836e-09
2.31999e-09
2.27909e-09
1.00558e-09
1.00485e-09
9.67684e-10
9.38312e-10
3.92843e-10
3.82061e-10
3.70544e-10
3.34497e-10
1.31945e-10
1.24969e-10
1.07307e-10
9.6197e-11
3.39479e-11
3.05938e-11
2.75977e-11
2.1633e-11
7.57372e-12
6.55085e-12
4.7328e-12
3.88012e-12
1.13388e-12
9.21722e-13
7.56011e-13
4.78926e-13
1.66321e-13
1.27337e-13
8.29087e-14
6.62537e-14
2.12042e-14
1.87374e-14
1.89201e-14
2.17468e-14
6.12475e-15
8.01147e-15
1.09522e-14
1.53169e-14
3.32185e-15
4.51845e-15
6.99771e-15
1.10347e-14
1.64684e-15
2.60343e-15
4.28147e-15
7.94865e-15
8.01899e-16
1.3597e-15
2.94223e-15
7.46209e-15
3.53575e-16
7.2541e-16
2.13058e-15
6.65661e-15
2.12012e-16
5.93054e-16
1.95839e-15
5.69807e-15
1.2306e-16
4.18786e-16
1.5343e-15
4.90574e-15
9.24651e-17
3.41681e-16
1.11361e-15
3.46853e-15
4.70367e-17
2.13676e-16
6.79261e-16
1.97454e-15
2.71441e-17
8.43134e-17
2.41806e-16
5.99554e-16
0.986087
0.999995
1
0.999948
0.990944
0.838509
0.17077
0.00013578
0.000232479
0.000212714
0.0147116
0.191676
0.250567
0.249678
0.16333
0.146205
0.311357
0.7872
0.49679
1
1
1
1
0.999999
0.999466
0.928686
0.269274
0.000210302
0.000215897
0.000219804
0.0541588
0.155345
0.197113
0.24431
0.350625
0.528408
0.857841
0.494064
1
1
1
1
1
0.999999
0.999977
0.968534
0.508521
0.0764799
0.00860603
0.0653181
0.168217
0.364131
0.704548
0.912541
0.98908
0.952698
0.559524
1
1
0.999999
0.999999
1
1
1
1
0.997093
0.887365
0.756766
0.758492
0.887033
0.997029
0.993362
0.990258
0.990689
0.98649
0.832443
1
0.999999
0.999999
0.999999
0.999999
1
1
1
1
0.999995
0.999872
0.999288
0.998623
0.997823
0.996712
0.996549
0.992185
0.98629
0.832101
1
1
1
0.999999
0.999999
1
1
1
1
1
1
1
1
0.946572
0.779819
0.543191
0.498183
0.560841
0.653801
0.998046
0.998633
0.999575
1
1
1
1
1
0.998793
0.985998
0.932622
0.798779
0.521082
0.224712
0.0447052
3.32934e-07
2.01734e-05
0.132573
0.317475
0.532191
0.517132
0.558426
0.610225
0.642585
0.646242
0.629077
0.582879
0.492167
0.345449
0.174348
0.0382605
2.16788e-07
2.16108e-07
3.18813e-07
5.14744e-07
0.00360997
0.0736322
0.100516
2.01755e-08
1.73218e-08
1.53032e-08
1.25855e-08
1.48203e-08
4.27968e-09
3.64699e-08
1.0583e-07
1.39904e-07
1.27749e-07
2.14908e-07
1.90778e-07
3.38126e-05
0.000135255
3.36771e-06
0.00342543
0.00760033
4.00571e-06
1.54892e-06
3.86024e-07
4.0354e-07
3.07383e-07
2.11075e-07
1.35847e-07
1.2149e-07
1.95347e-07
2.8628e-07
3.3771e-07
5.13583e-07
0.000116795
0.000941397
0.00135785
0.00110785
1.14896e-05
5.67427e-05
7.39236e-05
2.42745e-06
2.7229e-06
1.73914e-06
1.13801e-06
8.99745e-07
5.96762e-07
4.83842e-07
4.51343e-07
8.98523e-07
1.84921e-06
2.29733e-06
1.74192e-06
0.000350181
0.00160579
0.00150329
0.000536073
2.07144e-07
3.30456e-07
7.22608e-07
2.74103e-06
4.28702e-06
1.99681e-06
1.9801e-06
1.9483e-06
1.02083e-06
6.82551e-07
4.62668e-07
1.02293e-06
4.16657e-06
4.48307e-06
5.1239e-06
3.81596e-05
1.19278e-05
7.5859e-05
8.45645e-08
2.64259e-07
7.74817e-07
1.34456e-06
2.14691e-06
3.86927e-06
1.46804e-06
1.45813e-06
1.36812e-06
1.31184e-06
4.40519e-07
2.12106e-07
4.73736e-07
2.88046e-06
3.46266e-06
9.5417e-07
5.70638e-08
5.82467e-09
2.1983e-08
1.3362e-07
5.30601e-07
1.21224e-06
1.01136e-06
2.32132e-07
2.12689e-07
3.08174e-08
9.1605e-08
1.43391e-07
2.25046e-07
1.2588e-07
8.96267e-08
5.62391e-08
6.93843e-08
1.49537e-07
2.27215e-09
4.6333e-09
8.5567e-09
2.27559e-08
9.15923e-08
2.8151e-07
4.2911e-07
3.40556e-07
8.7571e-08
8.64876e-07
1.1061e-09
1.10533e-09
1.10604e-09
1.10532e-09
2.57711e-09
1.19464e-08
1.88176e-08
8.25707e-09
2.03352e-09
2.74029e-09
5.98996e-09
9.50061e-09
1.27636e-08
1.70793e-08
1.84354e-08
2.79408e-08
6.34335e-08
9.3243e-08
1.75921e-06
5.1323e-09
1.52534e-09
1.36357e-09
1.10821e-09
1.12592e-09
3.8706e-09
8.47138e-09
8.64875e-09
3.2073e-09
4.25009e-09
6.0926e-09
8.34662e-09
8.21806e-09
7.98742e-09
7.3431e-09
6.2133e-09
5.93023e-09
6.31281e-08
1.75972e-06
1.19724e-08
2.92551e-09
2.36116e-09
1.69118e-09
1.54974e-09
1.3155e-09
1.10935e-09
2.06212e-09
3.08307e-09
3.38955e-09
4.2099e-09
5.65209e-09
5.76856e-09
6.01943e-09
6.28896e-09
6.037e-09
4.94594e-09
1.09347e-07
1.74043e-06
1.61786e-08
7.15488e-09
2.9149e-09
1.64344e-09
1.16247e-09
1.08866e-09
1.05094e-09
1.40148e-09
2.10083e-09
2.35041e-09
2.60158e-09
3.28298e-09
3.5863e-09
4.11943e-09
4.97031e-09
5.3425e-09
4.32132e-09
1.56791e-07
8.53705e-07
1.37227e-08
8.5861e-09
3.5422e-09
1.99439e-09
1.12415e-09
8.23457e-10
7.39787e-10
9.50446e-10
1.28103e-09
1.53187e-09
1.70208e-09
1.90208e-09
2.23748e-09
2.8625e-09
3.91931e-09
4.52814e-09
4.20581e-09
3.25259e-07
1.23946e-06
1.67408e-08
1.14143e-08
6.01869e-09
2.48185e-09
1.14741e-09
6.94926e-10
5.47967e-10
5.12519e-10
6.45277e-10
8.75633e-10
1.08423e-09
1.24208e-09
1.5452e-09
2.17414e-09
3.2993e-09
4.06559e-09
4.09292e-09
3.48548e-07
1.47257e-06
1.36679e-08
1.04115e-08
6.52855e-09
2.40122e-09
1.04964e-09
5.60848e-10
3.8164e-10
3.23578e-10
3.39433e-10
4.55998e-10
6.62611e-10
8.59367e-10
1.18562e-09
1.83502e-09
3.01536e-09
4.00918e-09
4.26878e-09
2.62886e-07
1.15855e-06
8.32315e-09
6.41382e-09
4.31219e-09
2.10325e-09
9.49431e-10
4.62026e-10
2.6745e-10
2.01996e-10
2.00661e-10
2.631e-10
4.31143e-10
6.44072e-10
1.01351e-09
1.71588e-09
2.976e-09
4.27724e-09
4.92663e-09
4.14557e-08
1.79661e-07
4.389e-09
3.34658e-09
2.24371e-09
1.22904e-09
5.96136e-10
2.95758e-10
1.64934e-10
1.20553e-10
1.2065e-10
1.84334e-10
3.30369e-10
5.611e-10
9.88076e-10
1.77284e-09
3.13143e-09
4.77454e-09
6.50438e-09
3.06126e-08
2.18222e-08
2.04271e-09
1.47679e-09
9.61399e-10
5.36011e-10
2.77875e-10
1.42564e-10
8.36725e-11
6.91041e-11
8.66728e-11
1.61643e-10
3.07791e-10
5.81197e-10
1.08572e-09
1.97913e-09
3.44215e-09
5.4265e-09
9.39468e-09
8.92938e-09
2.25718e-08
7.7832e-10
5.30657e-10
3.35265e-10
1.88806e-10
9.89582e-11
5.42266e-11
3.90895e-11
4.57801e-11
8.10546e-11
1.73524e-10
3.46764e-10
6.84474e-10
1.29138e-09
2.31381e-09
3.87357e-09
6.24394e-09
1.10625e-08
1.29089e-08
8.93051e-09
2.60492e-10
1.62021e-10
9.74303e-11
5.30414e-11
2.91026e-11
2.03766e-11
2.42337e-11
4.55168e-11
9.63969e-11
2.1464e-10
4.348e-10
8.62953e-10
1.60114e-09
2.75518e-09
4.40858e-09
7.49117e-09
1.75286e-08
1.60296e-08
1.01189e-08
6.24341e-11
3.5889e-11
2.04902e-11
1.20179e-11
9.03515e-12
1.2468e-11
2.64119e-11
5.92473e-11
1.26906e-10
2.82787e-10
5.72996e-10
1.118e-09
2.01454e-09
3.2818e-09
5.11418e-09
1.00284e-08
1.86394e-08
3.77316e-08
1.26856e-08
1.41409e-11
7.92229e-12
4.00503e-12
3.66071e-12
6.37091e-12
1.44027e-11
3.66799e-11
8.17464e-11
1.7546e-10
3.71316e-10
7.75361e-10
1.45809e-09
2.52932e-09
3.87738e-09
6.28704e-09
1.53284e-08
4.57158e-08
4.26559e-08
1.96282e-08
1.92769e-12
1.11407e-12
1.33769e-12
3.20083e-12
8.54874e-12
2.12627e-11
5.06888e-11
1.06282e-10
2.5269e-10
4.91939e-10
1.03174e-09
1.89495e-09
3.1247e-09
4.54218e-09
8.3909e-09
2.40528e-08
5.52129e-08
8.73943e-08
2.1325e-08
2.75059e-13
4.3078e-13
1.46328e-12
4.55045e-12
1.21021e-11
2.86424e-11
6.79575e-11
1.51042e-10
3.12516e-10
6.42728e-10
1.31765e-09
2.43227e-09
3.70673e-09
5.23008e-09
1.0833e-08
4.64442e-08
1.25473e-07
8.60335e-08
2.30687e-08
8.45366e-14
4.90985e-13
2.01417e-12
6.09106e-12
1.55245e-11
3.69839e-11
8.40615e-11
1.87656e-10
4.05315e-10
8.36323e-10
1.65615e-09
2.87548e-09
3.94503e-09
5.5652e-09
1.66885e-08
8.0109e-08
1.22294e-07
1.12933e-07
1.9888e-08
8.05875e-14
6.23961e-13
2.47215e-12
7.1106e-12
1.7732e-11
4.22914e-11
9.80195e-11
2.19032e-10
4.81751e-10
9.95086e-10
1.97047e-09
3.43283e-09
4.48359e-09
5.7415e-09
2.98769e-08
1.05348e-07
1.26253e-07
9.30767e-08
1.94411e-08
7.29326e-14
6.82814e-13
2.62979e-12
7.23948e-12
1.82629e-11
4.45204e-11
1.05464e-10
2.38071e-10
5.41713e-10
1.14418e-09
2.24743e-09
3.81788e-09
5.21841e-09
9.4892e-09
3.7981e-08
8.81955e-08
1.2094e-07
7.90796e-08
8.61361e-09
8.85305e-14
6.77492e-13
2.28665e-12
6.4046e-12
1.69819e-11
4.32654e-11
1.0626e-10
2.50794e-10
5.737e-10
1.23415e-09
2.41139e-09
4.08506e-09
6.271e-09
1.28141e-08
3.0304e-08
5.94209e-08
9.22647e-08
1.87776e-08
6.28744e-09
1.00142e-13
5.57836e-13
1.80675e-12
5.29313e-12
1.47639e-11
3.94285e-11
1.00257e-10
2.43521e-10
5.72591e-10
1.2596e-09
2.42192e-09
4.15298e-09
6.98115e-09
1.14923e-08
2.03183e-08
3.45821e-08
5.82993e-09
1.01797e-08
2.08266e-09
8.29466e-14
3.91939e-13
1.32861e-12
4.1566e-12
1.22537e-11
3.3944e-11
8.83024e-11
2.19717e-10
5.24708e-10
1.16474e-09
2.23263e-09
3.88444e-09
6.84868e-09
8.70541e-09
9.26914e-09
1.2813e-08
5.89734e-09
1.19467e-09
8.82278e-10
5.91406e-14
2.64691e-13
9.55457e-13
3.14855e-12
9.62099e-12
2.70749e-11
7.11969e-11
1.79544e-10
4.27498e-10
9.50615e-10
1.82404e-09
3.12492e-09
5.28864e-09
5.8273e-09
3.71996e-09
1.74538e-09
2.93927e-10
2.5758e-10
2.50525e-10
4.37416e-14
1.77986e-13
6.6416e-13
2.25311e-12
6.87217e-12
1.97409e-11
5.19261e-11
1.28262e-10
2.98924e-10
6.58216e-10
1.25652e-09
2.03001e-09
3.00488e-09
3.36451e-09
2.55803e-09
1.04904e-09
4.11709e-10
1.80085e-10
9.82005e-11
2.6506e-14
1.09185e-13
4.22113e-13
1.4166e-12
4.30116e-12
1.21947e-11
3.16125e-11
7.60318e-11
1.72163e-10
3.6806e-10
6.8813e-10
1.06817e-09
1.33675e-09
1.62241e-09
1.46287e-09
6.93185e-10
2.84603e-10
1.163e-10
4.7734e-11
1.50182e-14
5.82277e-14
2.06893e-13
6.71816e-13
1.98297e-12
5.4205e-12
1.43634e-11
3.45725e-11
7.64487e-11
1.56592e-10
2.86752e-10
4.524e-10
5.38547e-10
6.37261e-10
5.28697e-10
2.62407e-10
9.05083e-11
3.11777e-11
2.45659e-11
6.2276e-15
2.28493e-14
7.82174e-14
2.43054e-13
6.92875e-13
1.87892e-12
4.6597e-12
1.13938e-11
2.47679e-11
4.90247e-11
8.48147e-11
1.28669e-10
1.60185e-10
1.65668e-10
1.21271e-10
4.90443e-11
1.30224e-11
1.02204e-11
6.95992e-12
1.40243e-15
4.77156e-15
1.55011e-14
4.61005e-14
1.27298e-13
3.47268e-13
8.32664e-13
1.84106e-12
4.13521e-12
8.01977e-12
1.35405e-11
1.96699e-11
2.33033e-11
1.89391e-11
1.28548e-11
4.56862e-12
3.00234e-12
9.49084e-13
8.85949e-13
)
;

boundaryField
{
    leftWall
    {
        type            alphaContactAngle;
        contactAngleProperties 
        {
            mercury         
            {
                theta0          90;
            }
            air             
            {
                theta0          90;
            }
            water           
            {
                theta0          90;
            }
        }
        value           nonuniform List<scalar> 
50
(
1.11217e-17
2.39161e-16
3.77084e-16
3.44565e-16
1.42251e-15
9.33476e-16
3.00089e-16
4.38348e-17
2.43996e-18
5.93954e-20
6.61244e-21
8.6252e-21
1.60088e-20
2.53374e-20
4.91838e-20
5.84737e-20
5.89636e-20
8.29478e-16
3.73654e-12
1.02973e-12
1.96838e-14
1.23808e-14
7.81385e-15
7.57758e-15
2.8816e-15
7.37849e-16
1.37655e-16
2.00004e-17
2.31332e-18
2.15949e-19
3.99019e-21
5.68118e-22
9.91631e-24
1.70505e-24
2.23388e-25
1.26167e-25
5.3613e-26
2.16915e-26
7.95701e-27
2.60345e-27
7.73913e-28
2.10856e-28
5.31584e-29
1.23924e-29
2.67553e-30
5.43334e-31
1.05396e-31
1.97433e-32
3.61173e-33
6.47279e-34
)
;
    }
    rightWall
    {
        type            alphaContactAngle;
        contactAngleProperties 
        {
            mercury         
            {
                theta0          90;
            }
            air             
            {
                theta0          90;
            }
            water           
            {
                theta0          90;
            }
        }
        value           nonuniform List<scalar> 
50
(
0.231638
0.310448
0.384553
0.387345
0.384301
0.411024
0.454193
0.510347
0.49679
0.494064
0.559524
0.832443
0.832101
0.653801
0.317475
0.100516
1.54892e-06
2.7229e-06
4.28702e-06
3.86927e-06
2.12689e-07
8.64876e-07
1.75921e-06
1.75972e-06
1.74043e-06
8.53705e-07
1.23946e-06
1.47257e-06
1.15855e-06
1.79661e-07
2.18222e-08
2.25718e-08
8.93051e-09
1.01189e-08
1.26856e-08
1.96282e-08
2.1325e-08
2.30687e-08
1.9888e-08
1.94411e-08
8.61361e-09
6.28744e-09
2.08266e-09
8.82278e-10
2.50525e-10
9.82005e-11
4.7734e-11
2.45659e-11
6.95992e-12
8.85949e-13
)
;
    }
    lowerWall
    {
        type            alphaContactAngle;
        contactAngleProperties 
        {
            mercury         
            {
                theta0          90;
            }
            air             
            {
                theta0          90;
            }
            water           
            {
                theta0          90;
            }
        }
        value           nonuniform List<scalar> 
62
(
1.11217e-17
3.11037e-15
6.15081e-14
3.74412e-13
1.02985e-12
2.48473e-12
5.63168e-12
1.16341e-11
2.3438e-11
4.57593e-11
8.63831e-11
1.6079e-10
3.09088e-10
5.61395e-10
1.0447e-09
1.89606e-09
3.2924e-09
6.06763e-09
9.87103e-09
9.97011e-09
0.000128266
0.000561807
0.000568518
0.000568518
0.000568556
8.58684e-05
3.36807e-06
2.90961e-06
0.00149954
0.0427454
0.527725
0.842012
0.995143
0.999503
0.994902
0.948834
0.949376
0.948577
0.949713
0.492182
0.147129
0.567592
0.659013
0.948834
0.917509
0.88581
0.831064
0.704288
0.78024
0.912475
0.907342
0.833232
0.517013
0.490831
0.509599
0.479275
0.173127
0.060373
0.0659241
0.156143
0.222476
0.231638
)
;
    }
    atmosphere
    {
        type            inletOutlet;
        inletValue      uniform 0;
        value           nonuniform List<scalar> 
46
(
6.47279e-34
1.77307e-32
2.78081e-31
3.37324e-30
3.53385e-29
3.10346e-28
2.20559e-27
1.36531e-26
7.28264e-26
3.40191e-25
1.35184e-24
4.72442e-24
1.39971e-23
3.80707e-23
8.96127e-23
1.94218e-22
4.297e-22
1.08431e-21
3.8957e-21
2.22527e-20
1.37723e-19
8.1506e-19
5.37745e-18
0
0
0
0
0
0
0
0
0
0
0
0
0
0
0
0
0
0
0
0
0
0
0
)
;
    }
    defaultFaces
    {
        type            empty;
    }
}


// ************************************************************************* //
