/*--------------------------------*- C++ -*----------------------------------*\
  =========                 |
  \\      /  F ield         | OpenFOAM: The Open Source CFD Toolbox
   \\    /   O peration     | Website:  https://openfoam.org
    \\  /    A nd           | Version:  13
     \\/     M anipulation  |
\*---------------------------------------------------------------------------*/
FoamFile
{
    format      ascii;
    class       volScalarField;
    location    "1.05";
    object      alpha.water;
}
// * * * * * * * * * * * * * * * * * * * * * * * * * * * * * * * * * * * * * //

dimensions      [];

internalField   nonuniform List<scalar> 
2268
(
1.43524e-11
2.70961e-11
2.89135e-11
2.7915e-11
2.89234e-11
3.35078e-11
4.32407e-11
5.76295e-11
7.53744e-11
9.45338e-11
1.14803e-10
1.37659e-10
1.68671e-10
2.05923e-10
2.63523e-10
3.46449e-10
4.64676e-10
6.95444e-10
1.0751e-09
1.58087e-09
2.21633e-09
2.5539e-09
2.60676e-09
3.24324e-11
6.24476e-11
8.38838e-11
1.00327e-10
1.15663e-10
1.39308e-10
1.7959e-10
2.37677e-10
2.93852e-10
3.53181e-10
4.09818e-10
4.60838e-10
4.96469e-10
4.93521e-10
5.04434e-10
5.93792e-10
8.05505e-10
1.26816e-09
1.92146e-09
2.68344e-09
3.47048e-09
3.33339e-09
2.69201e-09
4.04295e-11
9.59383e-11
1.66491e-10
2.60777e-10
3.7161e-10
5.0433e-10
6.55098e-10
8.30836e-10
1.0831e-09
1.47268e-09
1.68573e-09
1.67053e-09
1.53461e-09
8.43373e-10
5.99783e-10
7.85317e-10
1.11235e-09
1.4782e-09
1.67344e-09
2.42373e-09
3.58032e-09
3.38417e-09
3.70057e-09
3.70281e-11
1.02861e-10
2.00101e-10
3.46919e-10
5.75131e-10
8.87417e-10
1.36916e-09
2.28633e-09
3.39294e-09
4.10491e-09
4.23228e-09
3.8017e-09
1.48878e-08
7.13234e-09
6.05514e-10
6.13126e-10
7.88661e-10
1.05103e-09
7.74764e-10
9.8851e-10
7.74536e-10
8.58854e-10
7.74957e-10
3.74747e-11
9.37971e-11
1.65698e-10
3.01256e-10
7.12384e-10
2.47665e-09
5.8805e-09
1.7928e-09
1.78015e-09
1.84109e-09
1.7678e-09
3.18e-09
0.000321461
0.00256084
0.00595164
0.00954007
0.0129728
0.0162817
0.0200261
0.0257888
0.0349861
0.0437085
0.0381418
3.37606e-11
7.17896e-11
9.55324e-11
1.01006e-10
2.13016e-10
1.01479e-09
5.80898e-08
0.00223407
0.0729485
0.169757
0.268656
0.358412
0.444689
0.506434
0.550294
0.581542
0.604311
0.622155
0.640265
0.666651
0.693175
0.686297
0.654356
2.01582e-11
3.10255e-11
2.93458e-11
2.88457e-11
1.12688e-07
0.0161053
0.270401
0.585701
0.797931
0.911115
0.971921
1
1
1
0.999999
0.999998
0.999994
0.999984
0.999878
0.998582
0.985848
0.884746
0.786865
9.49147e-12
9.83568e-12
9.66255e-12
1.91243e-11
0.239141
0.713238
0.951832
0.999826
1
1
1
1
1
1
1
1
0.999999
0.999996
0.999985
0.977521
0.7017
0.293706
0.20378
2.02719e-07
2.02757e-07
0.00693508
0.0146906
0.0566026
0.00647518
2.48012e-10
2.59033e-09
6.85226e-09
3.92681e-09
9.06896e-07
6.38412e-06
5.33122e-06
0.00786289
0.0711629
0.1229
0.122959
0.0848905
0.0533811
2.1586e-05
0.0741881
0.489056
0.46404
0.547393
0.396672
0.0227371
1.32657e-09
1.85427e-07
4.82261e-09
1.8147e-10
-7.90374e-08
5.0172e-06
0.00195383
0.0162426
0.102093
0.118486
0.042848
0.000600119
0.00189005
0.49642
0.900951
0.890713
0.932864
0.809788
0.454445
5.57936e-11
2.44728e-07
0.0618436
0.076349
0.0124817
0.00182187
0.0021583
0.0224997
0.0495029
0.0695382
0.145275
0.00815315
0.000229985
0.67964
0.999398
0.999692
0.999739
0.999427
0.875106
0.472276
0.298117
0.360071
0.188995
0.133478
0.0555322
0.00624643
0.00586642
0.0287548
0.0137279
0.187546
0.0613861
0.42512
0.805412
0.941985
0.99974
0.99974
0.999739
0.99974
0.940628
0.858619
0.879844
0.560263
0.33394
0.134683
0.00225904
0.00212519
0.00210043
0.00211999
0.205677
0.094839
0.44496
0.51129
0.629892
0.928528
0.99908
0.99974
0.99974
0.999739
0.999737
0.999739
0.987087
0.659087
0.0647216
0.00215681
0.00210848
0.00211999
0.143785
0.200107
0.11902
0.0305037
0.0470844
0.0734574
0.367011
0.897272
0.999683
0.99974
0.999739
0.99974
0.999737
0.996244
0.500339
0.00224707
0.00215076
0.00216267
0.0712734
0.479476
0.199028
0.0896177
2.20054e-19
-1.3145e-13
-1.78176e-16
-1.34104e-13
0.231063
0.944537
0.999538
0.99974
0.999737
0.999737
0.982325
0.399045
0.00206241
0.00350633
0.0663759
0.327609
0.68758
0.210431
0.051679
0.00191667
0.0876144
0.319186
0.685507
0.95294
1
1
1
1
1
1
1
1
1
1
1
1
0.999999
0.971359
0.673881
0.0873589
2.5769e-05
0.0257524
0.601662
0.825756
0.981691
1
1
1
1
1
1
1
1
1
1
1
1
0.999973
0.979838
0.749355
0.259172
1.00834e-12
8.34542e-24
1.34409e-09
5.24077e-05
1
1
1
1
1
1
1
1
1
1
1
1
1
0.999002
0.913346
0.599988
0.14556
0.013871
0.00328015
6.33436e-14
4.50035e-07
1.21803e-09
2.19621e-09
1
1
1
1
1
1
1
1
1
1
1
0.996142
0.785741
0.468017
0.0866673
0.0256732
1.07633e-15
3.188e-08
2.68103e-11
1.24322e-06
5.70561e-08
1.90103e-10
3.13391e-10
1
1
1
1
1
1
1
1
1
0.98667
0.715297
0.487073
0.0845213
0.0144667
9.23209e-20
5.04828e-10
1.03366e-05
9.18189e-07
7.02993e-08
1.116e-07
1.26584e-10
2.69247e-10
2.86479e-10
1
1
1
1
1
1
1
0.999535
0.814243
0.583627
0.142716
0.0108932
-7.02834e-19
-3.1373e-20
1.44543e-24
4.47944e-07
1.95656e-06
6.24524e-07
-3.80318e-10
1.46776e-10
1.42828e-10
1.81517e-10
1.46352e-10
1
1
1
1
1
1
0.992154
0.760023
0.392755
0.0180917
-1.62815e-19
-4.1982e-21
-2.22349e-10
-8.45289e-11
6.71531e-10
6.2317e-08
1.57795e-07
2.14969e-08
6.33285e-09
2.26237e-10
7.85927e-11
6.41437e-11
5.21202e-11
1
1
1
1
1
0.993813
0.803215
0.203285
1.75524e-18
-2.42937e-19
3.90216e-15
-5.56893e-27
1.01596e-07
9.91887e-08
3.30972e-08
2.7101e-08
2.08613e-08
3.28909e-09
7.87735e-10
1.1538e-10
5.21712e-11
4.82303e-11
4.77116e-11
1
1
1
1
0.99992
0.813248
0.146587
-5.65869e-09
-8.94958e-07
2.12005e-08
2.46415e-06
1.89188e-06
7.08185e-07
1.83052e-07
2.05272e-08
2.56823e-09
8.27122e-10
1.01617e-09
3.39639e-10
1.82997e-10
1.21409e-10
1.28912e-10
1.4491e-10
0.875537
0.793422
0.801919
0.780927
0.639964
0.164731
0.000234754
1.05715e-05
7.99553e-05
3.29921e-05
5.52851e-08
2.34291e-06
5.09691e-08
5.52974e-08
1.67998e-08
1.31072e-09
7.88371e-10
2.19353e-09
2.49968e-09
1.39618e-09
4.49964e-10
3.67969e-10
3.86154e-10
0.112468
0.0604702
0.0697709
0.068518
0.0336688
-1.90147e-18
0.000158976
0.000185807
0.00011168
9.88003e-08
1.14652e-07
7.87779e-07
1.32737e-07
9.4398e-08
9.32144e-08
5.09478e-09
8.27122e-10
1.17288e-09
2.58308e-09
2.54734e-09
8.5981e-10
5.7179e-10
8.33877e-10
3.05207e-05
1.12014e-05
8.4081e-06
8.39876e-06
2.77201e-11
8.74213e-09
1.90633e-05
5.8317e-05
1.42414e-05
7.0245e-08
2.0485e-07
2.95885e-09
2.28365e-08
1.08379e-07
3.78036e-07
5.02337e-07
1.77604e-07
8.92094e-10
1.03843e-09
1.49545e-09
1.62124e-09
1.05977e-09
8.60524e-10
8.15348e-07
-3.56961e-08
2.0543e-07
3.0563e-08
1.7226e-08
7.6991e-08
4.31113e-09
3.75193e-09
3.24286e-09
2.32819e-07
2.07075e-07
1.31321e-09
4.35733e-09
7.14302e-09
1.73857e-07
1.07385e-06
1.67718e-06
1.28347e-06
5.22438e-08
1.42039e-09
1.17574e-09
1.722e-09
8.18751e-10
4.99197e-09
4.62866e-08
1.13483e-07
2.67894e-09
8.11172e-09
5.44077e-08
8.05537e-08
1.77076e-08
6.09e-09
3.07417e-08
2.74762e-08
1.61763e-09
3.78514e-09
5.31509e-09
1.75292e-08
2.05804e-07
1.2172e-06
3.25693e-06
3.04247e-06
3.5197e-06
3.07393e-06
5.72639e-07
2.35283e-07
1.22385e-08
9.33249e-09
9.06173e-09
6.92779e-09
4.88958e-09
1.88427e-08
3.26245e-08
1.68566e-08
3.2502e-09
4.84203e-09
6.1828e-09
1.58404e-09
2.12854e-09
3.82424e-09
4.97707e-09
1.7017e-09
1.3649e-07
5.3253e-07
1.25328e-06
3.74091e-06
4.34608e-06
4.93132e-06
5.01235e-06
1.24049e-08
8.45603e-09
8.99632e-09
8.19918e-09
5.38999e-09
5.33054e-09
6.29015e-09
3.56942e-09
3.11033e-09
3.2218e-09
3.67265e-09
1.58479e-09
1.28059e-09
1.3531e-09
1.30576e-09
4.16849e-10
5.25978e-09
3.78592e-08
1.234e-07
2.63057e-07
8.43113e-07
2.60527e-06
3.76511e-06
1.07748e-08
6.10855e-09
6.30489e-09
6.10681e-09
5.29322e-09
3.62488e-09
4.4309e-09
2.26243e-09
2.9256e-09
3.40005e-09
3.42192e-09
2.31715e-09
1.38415e-09
8.17947e-10
4.87188e-10
4.19509e-10
5.97564e-10
7.13311e-10
9.03925e-09
1.17541e-08
2.91803e-08
7.92156e-08
9.43908e-08
8.14968e-09
4.01099e-09
3.62226e-09
3.68153e-09
3.96536e-09
2.88198e-09
2.98371e-09
2.27823e-09
2.57107e-09
3.15485e-09
3.17456e-09
2.55676e-09
1.6842e-09
8.72147e-10
3.86247e-10
2.92726e-10
3.58298e-10
9.97996e-10
1.39312e-09
9.40831e-10
6.61499e-10
2.48365e-10
6.00845e-09
5.31774e-09
2.40399e-09
1.83928e-09
1.82156e-09
2.34184e-09
2.10083e-09
2.19321e-09
1.94379e-09
2.01752e-09
2.4568e-09
2.60046e-09
2.25955e-09
1.61045e-09
9.24605e-10
3.86835e-10
1.98685e-10
1.83061e-10
3.60594e-10
6.29742e-10
5.06218e-10
3.75488e-10
2.4174e-10
7.24011e-10
3.12528e-09
1.35376e-09
8.4258e-10
7.31042e-10
1.05382e-09
1.15253e-09
1.34225e-09
1.30446e-09
1.35277e-09
1.66366e-09
1.77753e-09
1.61703e-09
1.25141e-09
7.90806e-10
3.6534e-10
1.45723e-10
1.19451e-10
1.50289e-10
2.49786e-10
2.75768e-10
2.75244e-10
2.52801e-10
3.00016e-10
1.63866e-09
7.02868e-10
3.59387e-10
2.50571e-10
3.65433e-10
4.78784e-10
6.32505e-10
6.62701e-10
7.2702e-10
9.11687e-10
1.02441e-09
9.606e-10
7.85472e-10
5.34979e-10
2.75953e-10
1.01887e-10
7.62677e-11
7.8886e-11
1.23435e-10
1.53996e-10
1.77428e-10
1.92782e-10
1.98939e-10
8.57549e-10
3.47007e-10
1.58836e-10
8.86679e-11
1.10922e-10
1.64788e-10
2.36668e-10
2.68629e-10
3.236e-10
4.11468e-10
4.71889e-10
4.60651e-10
4.02277e-10
2.92714e-10
1.64169e-10
6.19821e-11
4.48996e-11
4.46491e-11
6.67463e-11
8.97919e-11
1.1019e-10
1.19241e-10
1.30167e-10
2.87595e-10
1.58871e-10
7.30634e-11
3.63795e-11
3.50348e-11
5.16815e-11
7.94721e-11
9.84831e-11
1.29779e-10
1.6661e-10
1.82615e-10
1.88726e-10
1.71775e-10
1.30717e-10
7.78915e-11
3.18662e-11
2.39743e-11
2.51644e-11
3.64787e-11
4.87715e-11
6.16536e-11
7.407e-11
7.68154e-11
1.30818e-10
6.3991e-11
2.90068e-11
1.19149e-11
7.99874e-12
9.22484e-12
1.5679e-11
2.15348e-11
3.20988e-11
4.31987e-11
6.57385e-11
6.76884e-11
6.23184e-11
4.97693e-11
3.10253e-11
1.43609e-11
1.16703e-11
1.36522e-11
1.80714e-11
2.76984e-11
3.52625e-11
3.83919e-11
4.29937e-11
3.73642e-11
1.90465e-11
9.56121e-12
5.3099e-12
3.0556e-12
2.88659e-12
4.67643e-12
6.41497e-12
1.01367e-11
1.4616e-11
1.51834e-11
1.57148e-11
1.51714e-11
1.30311e-11
8.37008e-12
4.91286e-12
4.98922e-12
6.46986e-12
9.79235e-12
1.35492e-11
1.65338e-11
2.09684e-11
2.19487e-11
1.34692e-11
7.70929e-12
3.89835e-12
1.81223e-12
9.31109e-13
6.94736e-13
9.46515e-13
1.28004e-12
2.22646e-12
3.49283e-12
4.57479e-12
4.79788e-12
4.61824e-12
3.86039e-12
2.46826e-12
1.92004e-12
2.24591e-12
3.14646e-12
4.70242e-12
6.46084e-12
8.5281e-12
8.89524e-12
9.56136e-12
2.56313e-12
2.0568e-12
1.01896e-12
4.77653e-13
2.60154e-13
1.69241e-13
1.78172e-13
2.26678e-13
4.25494e-13
7.16142e-13
9.77451e-13
1.07305e-12
1.03058e-12
8.53148e-13
6.32362e-13
6.6305e-13
9.07331e-13
1.37169e-12
2.04737e-12
2.78977e-12
3.15772e-12
3.83972e-12
3.86126e-12
7.51785e-13
4.85406e-13
2.42009e-13
1.15832e-13
5.98787e-14
3.83038e-14
3.22674e-14
3.67167e-14
7.09609e-14
1.25454e-13
1.77374e-13
2.02209e-13
1.94824e-13
1.70392e-13
1.64839e-13
2.18395e-13
3.42278e-13
5.22407e-13
7.48345e-13
1.00403e-12
1.27832e-12
1.24112e-12
1.25499e-12
1.44866e-13
1.06554e-13
5.41667e-14
2.62629e-14
1.25272e-14
7.50709e-15
5.25467e-15
5.45947e-15
1.03371e-14
1.86107e-14
2.72287e-14
3.20498e-14
3.27783e-14
3.38349e-14
4.32722e-14
6.89869e-14
1.08364e-13
1.6548e-13
2.30026e-13
3.2949e-13
3.35376e-13
3.72059e-13
3.41411e-13
2.49138e-14
1.96082e-14
1.01277e-14
4.96761e-15
2.44268e-15
1.32736e-15
8.121e-16
6.64746e-16
1.14352e-15
2.33689e-15
3.58841e-15
4.44956e-15
4.6178e-15
6.02113e-15
1.00637e-14
1.80555e-14
3.04194e-14
4.8643e-14
6.68686e-14
8.5149e-14
9.6481e-14
7.99398e-14
7.11772e-14
3.98669e-15
3.06305e-15
1.60792e-15
7.98068e-16
4.02607e-16
2.14475e-16
1.20739e-16
7.42931e-17
1.08912e-16
2.26003e-16
3.61063e-16
4.96002e-16
6.96695e-16
1.24869e-15
2.33697e-15
4.33644e-15
7.56979e-15
1.19875e-14
1.61105e-14
1.92982e-14
1.67101e-14
1.62632e-14
1.16853e-14
5.37215e-16
4.20572e-16
2.24023e-16
1.12202e-16
5.65382e-17
2.99229e-17
1.57774e-17
8.91768e-18
1.12639e-17
1.86438e-17
3.29069e-17
5.62404e-17
1.14317e-16
2.42834e-16
4.99217e-16
9.48247e-16
1.63277e-15
2.45751e-15
3.17327e-15
3.4311e-15
3.30593e-15
2.06124e-15
1.39056e-15
6.22762e-17
5.1201e-17
2.75846e-17
1.38978e-17
6.97617e-18
3.61204e-18
1.80251e-18
9.50584e-19
1.0331e-18
1.672e-18
3.48586e-18
7.65768e-18
1.85442e-17
4.37827e-17
9.63787e-17
1.74251e-16
2.96482e-16
4.27296e-16
4.98472e-16
4.64382e-16
3.04029e-16
2.41125e-16
1.54215e-16
6.53302e-18
5.57635e-18
3.03117e-18
1.53046e-18
7.62569e-19
3.86045e-19
1.83815e-19
8.65048e-20
8.24043e-20
1.55787e-19
4.01857e-19
1.08908e-18
2.91555e-18
7.06875e-18
1.51877e-17
2.68881e-17
4.16914e-17
5.57425e-17
6.13486e-17
5.48861e-17
3.91524e-17
2.527e-17
1.01458e-17
6.25054e-19
5.43805e-19
2.95398e-19
1.48435e-19
7.31502e-20
3.61453e-20
1.64949e-20
6.97108e-21
6.63516e-21
1.57938e-20
4.86958e-20
1.46694e-19
4.03331e-19
9.46472e-19
1.93726e-18
3.42287e-18
4.88385e-18
6.13451e-18
6.42253e-18
5.56418e-18
3.68649e-18
1.77436e-18
4.03599e-19
5.50081e-20
4.69536e-20
2.48819e-20
1.22961e-20
5.98936e-21
2.88249e-21
1.26298e-21
5.0602e-22
5.88904e-22
1.78191e-21
5.97466e-21
1.85163e-20
4.98988e-20
1.11716e-19
2.20964e-19
3.75877e-19
5.19533e-19
6.06482e-19
5.79964e-19
4.63609e-19
2.61842e-19
7.84783e-20
8.67957e-21
4.48059e-21
3.60183e-21
1.82995e-21
8.75632e-22
4.23817e-22
1.98177e-22
8.34244e-23
3.64154e-23
6.04922e-23
2.11479e-22
7.26239e-22
2.22743e-21
5.77732e-21
1.25051e-20
2.39176e-20
3.80344e-20
5.02713e-20
5.28639e-20
4.52484e-20
3.12946e-20
1.30049e-20
2.80399e-21
1.3634e-22
3.38371e-22
2.52461e-22
1.26066e-22
5.76727e-23
2.79366e-23
1.26399e-23
5.11959e-24
2.78253e-24
6.50002e-24
2.45314e-23
8.34718e-23
2.47082e-22
6.14992e-22
1.31026e-21
2.38175e-21
3.516e-21
4.31377e-21
4.06872e-21
3.06516e-21
1.72989e-21
5.23424e-22
4.7986e-23
1.18896e-24
2.37823e-23
1.66167e-23
8.52908e-24
3.7363e-24
1.80182e-24
7.83603e-25
3.04839e-25
2.19849e-25
6.60679e-25
2.6144e-24
8.71232e-24
2.45179e-23
5.8819e-23
1.24025e-22
2.1106e-22
2.89144e-22
3.24457e-22
2.78734e-22
1.82368e-22
8.1226e-23
1.60191e-23
1.60145e-24
3.15206e-26
1.57908e-24
1.0552e-24
5.48936e-25
2.33272e-25
1.09603e-25
4.54518e-26
1.71218e-26
1.73416e-26
6.28104e-26
2.53935e-25
8.25786e-25
2.20082e-24
5.11945e-24
1.05652e-23
1.67483e-23
2.13426e-23
2.16496e-23
1.71544e-23
9.67639e-24
3.37719e-24
4.55228e-25
9.07397e-27
4.13021e-28
1.00847e-25
6.64581e-26
3.23579e-26
1.34788e-26
6.00889e-27
2.34178e-27
8.95116e-28
1.39047e-27
5.7182e-27
2.28179e-26
7.2249e-26
1.841e-25
4.16399e-25
8.22679e-25
1.21724e-24
1.44726e-24
1.32348e-24
9.61583e-25
4.67327e-25
1.29195e-25
1.19471e-26
1.21952e-28
1.47817e-28
6.18921e-27
4.12246e-27
1.76962e-27
7.22253e-28
2.99235e-28
1.06355e-28
4.62504e-29
1.14704e-28
5.01333e-28
1.91724e-27
5.89548e-27
1.45858e-26
3.1929e-26
5.92769e-26
8.21109e-26
9.12885e-26
7.58954e-26
5.01392e-26
2.10811e-26
4.9061e-27
3.2758e-28
1.10679e-29
5.40054e-29
0.0287507
0.0044037
4.8659e-10
4.83461e-10
0.000514141
5.45906e-05
4.18147e-10
2.64204e-09
1.05828e-08
4.58973e-09
2.7457e-09
4.12229e-09
2.28183e-10
1.9462e-10
2.07573e-10
2.17664e-10
2.73322e-10
2.74129e-10
2.77673e-10
2.83709e-10
1.38658e-10
1.40303e-10
1.54062e-10
1.64663e-10
5.09101e-11
5.21192e-11
5.27271e-11
5.45771e-11
4.79235e-11
4.72054e-11
4.34966e-11
3.97236e-11
1.37562e-10
1.24628e-10
1.15478e-10
1.0467e-10
3.9618e-10
3.86387e-10
3.59812e-10
3.16848e-10
9.14286e-10
9.37342e-10
9.2864e-10
9.03924e-10
1.6052e-09
1.71319e-09
1.89471e-09
1.87045e-09
5.31314e-09
8.10441e-09
3.723e-09
1.75035e-09
3.42325e-07
1.5557e-07
7.10231e-08
3.48528e-08
5.05172e-06
3.29873e-06
9.17553e-08
3.80834e-07
5.08115e-06
4.92089e-06
5.0707e-06
4.99305e-06
2.93909e-07
1.23645e-06
2.29532e-06
1.67012e-06
3.82381e-09
1.41683e-09
1.4408e-09
1.38842e-09
1.49977e-09
1.92288e-09
1.78024e-09
1.41449e-09
3.36452e-10
3.73946e-10
4.79548e-10
4.67867e-10
2.06736e-10
2.17632e-10
2.19414e-10
2.25802e-10
1.32954e-10
1.33839e-10
1.38014e-10
1.38376e-10
7.87579e-11
7.97429e-11
7.97457e-11
8.03808e-11
4.37249e-11
4.41209e-11
4.47573e-11
4.45285e-11
2.21523e-11
2.21398e-11
2.19269e-11
2.19887e-11
9.70355e-12
9.82174e-12
1.00301e-11
1.01528e-11
3.83861e-12
3.76245e-12
3.6556e-12
3.66122e-12
1.23025e-12
1.20908e-12
1.18733e-12
1.10582e-12
3.21812e-13
2.99645e-13
2.54194e-13
2.32276e-13
6.00402e-14
5.26789e-14
4.68227e-14
3.4867e-14
9.47202e-15
7.68865e-15
5.28538e-15
4.14145e-15
1.03755e-15
7.67825e-16
5.98276e-16
3.27196e-16
7.75166e-17
4.09019e-17
2.2819e-17
1.3195e-17
2.98381e-18
1.17587e-18
6.58399e-19
3.42488e-19
1.65701e-20
1.42082e-20
1.01449e-20
5.22584e-21
2.1632e-27
2.67401e-23
5.02645e-23
5.0301e-23
1.87775e-27
9.98715e-26
1.96408e-25
2.43661e-25
1.48203e-27
6.90975e-27
2.32251e-26
6.58635e-26
1.05371e-27
4.85937e-27
1.68451e-26
5.32247e-26
1.01724e-27
3.58926e-27
1.15567e-26
3.55502e-26
4.79995e-28
2.14629e-27
6.71917e-27
1.92328e-26
2.68302e-28
8.23196e-28
2.33225e-27
5.68993e-27
1.14339e-09
1.45844e-09
8.27864e-10
1.5032e-10
1.66677e-10
0.1424
0.821409
0.999596
0.999737
0.999737
0.973323
0.452657
0.110199
0.240031
0.508075
0.686723
0.681226
0.198354
0.0394119
5.62776e-09
8.45707e-09
8.71469e-09
4.78073e-08
4.20971e-07
8.25874e-09
0.0674831
0.728758
0.999679
0.999658
0.997663
0.899261
0.793635
0.755195
0.722679
0.649311
0.470944
0.115534
0.0391448
6.49219e-09
1.53299e-08
3.16822e-08
4.03095e-08
7.86742e-08
1.26329e-07
9.72695e-06
0.0309218
0.49124
0.923308
0.989115
0.932331
0.831777
0.635843
0.292071
0.0781851
1.04188e-05
0.0192186
0.0340487
2.75394e-10
5.9032e-10
2.53629e-09
7.87803e-09
1.03535e-08
7.92421e-09
7.27294e-09
7.99622e-08
0.00288777
0.112588
0.242631
0.240535
0.111458
7.9936e-18
2.65749e-16
1.03994e-16
4.57412e-12
3.35165e-11
0.0112511
2.94497e-10
3.45798e-10
5.1829e-10
7.39397e-10
6.33372e-10
3.44541e-09
2.20532e-08
3.9231e-08
-4.28182e-12
4.21544e-15
2.22225e-16
1.03138e-15
7.18611e-18
2.61882e-16
7.18611e-18
2.58133e-05
9.71479e-06
2.96454e-06
0.000370204
1.77971e-10
2.57444e-10
4.12332e-10
5.975e-10
6.97042e-10
8.45582e-10
3.13074e-09
1.3605e-08
4.41405e-08
2.18909e-07
4.40969e-07
3.08162e-07
1.81997e-07
5.85156e-10
6.20027e-12
4.34896e-05
2.85247e-05
8.93468e-13
1.03548e-12
6.56733e-11
9.10098e-11
1.41655e-10
2.40463e-10
4.04223e-10
5.21822e-10
5.2125e-10
3.95728e-10
1.5119e-10
5.64569e-08
4.39775e-07
4.50179e-07
3.10237e-07
5.87333e-10
2.60648e-12
2.7004e-05
1.00211e-05
1.03356e-12
1.08645e-11
3.58501e-11
3.23333e-11
3.07798e-11
3.11319e-11
7.10808e-11
2.42384e-10
3.61468e-10
3.56006e-10
1.28348e-10
3.41703e-12
3.3703e-12
3.12645e-12
2.78076e-12
1.65107e-11
4.17855e-11
1.72206e-11
1.61586e-11
5.77277e-10
6.45487e-11
9.70936e-11
7.29712e-11
5.19845e-11
3.30583e-11
2.1091e-11
1.24948e-11
6.8252e-12
4.56178e-12
4.45842e-12
4.03449e-12
3.12645e-12
2.78311e-12
2.78845e-12
5.38065e-12
2.05713e-11
7.13754e-11
9.2384e-11
4.95169e-11
3.02214e-11
2.60403e-10
2.14679e-10
1.5612e-10
9.946e-11
6.51151e-11
3.83084e-11
1.96157e-11
1.25968e-11
1.03301e-11
7.27621e-12
4.55146e-12
3.44803e-12
2.79963e-12
3.21631e-12
1.26353e-11
2.25481e-11
1.96834e-11
1.87797e-12
2.90964e-13
7.3754e-10
5.15761e-10
3.10433e-10
1.99394e-10
1.62112e-10
1.03299e-10
5.17301e-11
3.55275e-11
2.69309e-11
1.6571e-11
1.02537e-11
6.66725e-12
3.37803e-12
1.92582e-12
1.06651e-12
5.75557e-13
3.62797e-13
1.74259e-13
4.58476e-14
1.6591e-09
1.11226e-09
5.34474e-10
2.95465e-10
2.42837e-10
1.66676e-10
1.09807e-10
8.15494e-11
5.86878e-11
3.60807e-11
2.37174e-11
1.29638e-11
6.39605e-12
4.02426e-12
2.54986e-12
1.58211e-12
9.64349e-13
3.91273e-13
5.90323e-14
1.7117e-09
2.1253e-09
1.91366e-09
9.41962e-10
4.62619e-10
3.78958e-10
2.74984e-10
1.79668e-10
1.10203e-10
6.73739e-11
4.26657e-11
2.21638e-11
1.17045e-11
6.06372e-12
3.56338e-12
2.27293e-12
1.31839e-12
5.2258e-13
8.85426e-14
3.45624e-08
9.77901e-09
4.85418e-09
4.5893e-09
2.18276e-09
9.95877e-10
4.48937e-10
2.75936e-10
1.90892e-10
1.25664e-10
7.0019e-11
3.74297e-11
1.67591e-11
8.09126e-12
4.648e-12
2.82451e-12
1.71211e-12
6.52159e-13
1.07017e-13
3.16663e-07
2.87678e-08
1.10163e-08
1.21708e-08
7.54742e-09
3.05649e-09
6.7671e-10
4.60789e-10
3.05762e-10
1.70373e-10
8.87957e-11
4.58681e-11
2.30013e-11
1.19474e-11
5.44756e-12
3.06172e-12
1.84806e-12
7.77407e-13
1.20906e-13
1.32047e-06
8.85425e-08
3.02338e-08
2.77076e-08
1.27687e-08
7.26809e-09
2.54161e-09
1.09485e-09
4.42563e-10
1.74274e-10
9.81901e-11
5.78615e-11
3.02622e-11
1.50682e-11
6.09945e-12
3.0454e-12
1.84816e-12
8.63064e-13
1.32823e-13
4.99861e-07
3.25153e-07
6.54959e-08
4.3581e-08
1.67933e-08
9.79953e-09
5.55086e-09
2.26061e-09
5.62765e-10
2.29227e-10
1.01905e-10
5.89747e-11
3.28124e-11
1.57633e-11
6.30725e-12
2.80201e-12
1.72925e-12
8.83776e-13
1.39617e-13
1.41117e-09
2.54907e-09
8.32192e-08
4.37994e-08
1.76946e-08
1.09467e-08
6.34526e-09
3.16144e-09
1.20095e-09
3.86223e-10
1.03761e-10
5.10697e-11
3.07335e-11
1.56975e-11
6.3803e-12
2.61937e-12
1.51875e-12
8.42295e-13
1.46239e-13
1.7769e-09
6.45854e-09
1.78262e-08
1.5909e-08
1.28068e-08
9.27442e-09
5.8284e-09
3.25883e-09
1.45382e-09
5.22947e-10
1.26836e-10
3.83685e-11
2.35634e-11
1.3555e-11
6.03175e-12
2.46285e-12
1.32086e-12
6.22396e-13
1.39013e-13
8.06503e-10
4.043e-09
5.96305e-09
6.45084e-09
6.42771e-09
5.53036e-09
3.96803e-09
2.4003e-09
1.30771e-09
5.42473e-10
1.40119e-10
2.75444e-11
1.55074e-11
9.83692e-12
4.97198e-12
2.17862e-12
1.14775e-12
4.3908e-13
1.24769e-13
2.85468e-10
5.89851e-10
1.87353e-09
3.80528e-09
3.67688e-09
3.01582e-09
2.18252e-09
1.41144e-09
8.40235e-10
4.18837e-10
1.20955e-10
1.92294e-11
9.30624e-12
6.25275e-12
3.54454e-12
1.72362e-12
8.1216e-13
3.59163e-13
7.81562e-14
1.5563e-10
2.73184e-10
6.13157e-10
1.3002e-09
1.42362e-09
1.23747e-09
9.46103e-10
6.50039e-10
4.21127e-10
2.3425e-10
7.25511e-11
1.19791e-11
5.26871e-12
3.77796e-12
2.1462e-12
6.73956e-13
3.62569e-13
2.35555e-13
6.39295e-14
8.75191e-11
1.43894e-10
2.50325e-10
3.93007e-10
4.50806e-10
4.1082e-10
3.34152e-10
2.47008e-10
1.63819e-10
1.00603e-10
3.07016e-11
6.52903e-12
2.75579e-12
1.29118e-12
4.99884e-13
1.93733e-13
1.69062e-13
1.70535e-13
4.66813e-14
4.80137e-11
7.23775e-11
1.06779e-10
1.35304e-10
1.35012e-10
1.23417e-10
1.03819e-10
8.17375e-11
6.26256e-11
3.37234e-11
1.09732e-11
2.30354e-12
5.49892e-13
2.02194e-13
1.03472e-13
7.75331e-14
7.86817e-14
8.06743e-14
3.55083e-14
2.37166e-11
3.27193e-11
3.94631e-11
3.91395e-11
3.68638e-11
3.33374e-11
2.91036e-11
2.50608e-11
1.81874e-11
8.44283e-12
2.20482e-12
3.5154e-13
7.978e-14
3.83199e-14
3.37825e-14
3.91686e-14
4.04054e-14
5.18167e-14
1.74488e-14
1.09453e-11
1.21115e-11
1.16534e-11
1.0603e-11
9.55034e-12
8.47966e-12
7.81287e-12
6.38267e-12
3.05667e-12
9.88824e-13
2.254e-13
3.83313e-14
1.15827e-14
1.04181e-14
1.39477e-14
1.93225e-14
2.13084e-14
1.66621e-14
9.98047e-15
3.50127e-12
3.14222e-12
2.7487e-12
2.47439e-12
2.15783e-12
1.98903e-12
1.27559e-12
6.39405e-13
2.69014e-13
8.61725e-14
1.76914e-14
3.03645e-15
2.32871e-15
3.43898e-15
5.98709e-15
9.3015e-15
1.06919e-14
8.19095e-15
2.99709e-15
9.65866e-13
7.86704e-13
5.8581e-13
4.77852e-13
4.27089e-13
2.46156e-13
1.21898e-13
5.96887e-14
2.40228e-14
6.18892e-15
8.57936e-16
3.57306e-16
5.65323e-16
1.21037e-15
2.53284e-15
4.19793e-15
4.85232e-15
3.40717e-15
1.27477e-15
1.61052e-13
1.13444e-13
9.67566e-14
6.48635e-14
3.18926e-14
1.73179e-14
9.88126e-15
4.91622e-15
1.68094e-15
2.62835e-16
3.61953e-17
5.61479e-17
1.58443e-16
4.21482e-16
9.88546e-16
1.69509e-15
1.93924e-15
1.36532e-15
3.66048e-16
2.25719e-14
1.65532e-14
8.31887e-15
3.45297e-15
1.45403e-15
5.36249e-16
1.28848e-16
1.53081e-17
7.93929e-19
7.3653e-19
2.61775e-18
1.14917e-17
4.36965e-17
1.34558e-16
3.399e-16
6.08409e-16
7.26758e-16
4.54899e-16
1.13281e-16
2.82377e-15
1.25567e-15
4.36133e-16
1.07667e-16
1.25374e-17
3.83943e-19
4.05633e-21
3.84876e-21
1.54127e-20
1.01573e-19
4.60163e-19
1.93953e-18
9.58521e-18
3.86411e-17
1.06022e-16
1.90379e-16
2.29595e-16
1.35848e-16
3.1459e-17
1.60787e-16
6.47135e-17
1.87885e-17
2.58125e-18
1.04233e-19
1.95591e-21
1.93871e-21
3.51279e-21
8.42288e-21
2.18622e-20
6.27087e-20
3.23963e-19
2.51033e-18
1.01245e-17
2.9803e-17
5.14635e-17
1.0905e-16
4.24543e-17
1.29363e-17
6.6644e-18
2.05918e-18
4.6104e-19
5.98298e-20
2.91288e-21
9.70839e-22
1.68773e-21
3.62734e-21
8.18178e-21
1.74155e-20
3.53082e-20
9.06275e-20
6.28591e-19
2.67871e-18
7.47739e-18
1.89417e-17
2.07478e-17
1.54951e-17
2.49062e-18
1.43115e-19
3.76446e-20
5.80474e-21
4.56064e-22
3.60822e-22
6.74126e-22
1.57396e-21
3.72381e-21
8.38242e-21
1.78055e-20
3.45029e-20
6.08736e-20
1.61473e-19
6.96835e-19
2.83154e-18
7.23399e-18
7.15889e-18
2.51857e-18
5.20101e-19
1.59987e-21
2.44188e-22
5.87507e-23
8.74619e-23
2.11882e-22
5.60353e-22
1.43002e-21
3.45623e-21
7.93592e-21
1.66044e-20
3.19214e-20
5.22142e-20
7.69488e-20
3.77691e-19
1.58218e-18
2.76013e-18
1.82076e-18
7.3067e-19
6.59316e-20
1.55784e-23
7.6643e-24
1.79399e-23
5.46684e-23
1.6186e-22
4.50375e-22
1.17028e-21
2.88186e-21
6.68465e-21
1.43216e-20
2.76012e-20
4.56447e-20
6.28663e-20
2.34872e-19
7.01406e-19
9.41522e-19
5.99107e-19
1.09395e-19
1.49775e-20
7.85418e-25
3.23409e-24
1.1631e-23
3.82417e-23
1.16644e-22
3.25847e-22
8.50068e-22
2.111e-21
4.8715e-21
1.04056e-20
1.97541e-20
3.24926e-20
4.63475e-20
1.19318e-19
2.18569e-19
2.01962e-19
7.10276e-20
1.68803e-20
3.17449e-21
5.01457e-25
2.02413e-24
7.47157e-24
2.50543e-23
7.529e-23
2.13166e-22
5.50399e-22
1.3255e-21
2.98392e-21
6.28392e-21
1.16157e-20
1.8454e-20
2.55327e-20
5.3024e-20
4.69535e-20
2.87777e-20
9.51333e-21
3.00453e-21
1.31572e-21
2.84581e-25
1.15417e-24
4.37869e-24
1.43872e-23
4.26496e-23
1.17731e-22
2.95854e-22
6.85395e-22
1.48841e-21
3.03193e-21
5.39336e-21
8.15222e-21
1.06617e-20
1.54332e-20
1.0612e-20
4.45022e-21
1.69804e-21
1.06293e-21
5.70783e-22
1.51352e-25
5.72024e-25
1.97436e-24
6.22235e-24
1.77608e-23
4.67422e-23
1.1888e-22
2.73872e-22
5.7615e-22
1.11769e-21
1.92338e-21
2.85222e-21
3.28535e-21
3.66863e-21
2.05388e-21
1.07466e-21
5.19175e-22
3.00597e-22
2.77449e-22
5.92805e-26
2.11153e-25
7.004e-25
2.10197e-24
5.7588e-24
1.49331e-23
3.5252e-23
8.17329e-23
1.67793e-22
3.10478e-22
4.97365e-22
6.88242e-22
7.62895e-22
6.8319e-22
3.49701e-22
2.22554e-22
9.08258e-23
9.67871e-23
7.79171e-23
1.30196e-26
4.29392e-26
1.34651e-25
3.85048e-25
1.0158e-24
2.63284e-24
5.96656e-24
1.24069e-23
2.6111e-23
4.68947e-23
7.26935e-23
9.47981e-23
9.75334e-23
6.71933e-23
3.51116e-23
2.61591e-23
2.08062e-23
8.98902e-24
1.01526e-23
)
;

boundaryField
{
    leftWall
    {
        type            alphaContactAngle;
        contactAngleProperties 
        {
            mercury         
            {
                theta0          90;
            }
            air             
            {
                theta0          90;
            }
            oil             
            {
                theta0          90;
            }
        }
        value           nonuniform List<scalar> 
50
(
1.43524e-11
3.24324e-11
4.04295e-11
3.70281e-11
3.74747e-11
3.37606e-11
2.01582e-11
9.49147e-12
0.00191667
0.601662
1
1
1
1
1
1
1
0.875537
0.112468
3.05207e-05
8.15348e-07
4.99197e-09
1.22385e-08
1.24049e-08
1.07748e-08
8.14968e-09
5.31774e-09
3.12528e-09
1.63866e-09
8.57549e-10
2.87595e-10
1.30818e-10
3.73642e-11
1.34692e-11
2.56313e-12
7.51785e-13
1.44866e-13
2.49138e-14
3.98669e-15
5.37215e-16
6.22762e-17
6.53302e-18
6.25054e-19
5.50081e-20
4.48059e-21
3.38371e-22
2.37823e-23
1.57908e-24
1.00847e-25
6.18921e-27
)
;
    }
    rightWall
    {
        type            alphaContactAngle;
        contactAngleProperties 
        {
            mercury         
            {
                theta0          90;
            }
            air             
            {
                theta0          90;
            }
            oil             
            {
                theta0          90;
            }
        }
        value           nonuniform List<scalar> 
50
(
0.0533811
0.000600119
0.00815315
0.0613861
0.094839
0.11902
0.0896177
0.051679
0.0394119
0.0391448
0.0340487
0.0112511
0.000370204
1.03548e-12
1.08645e-11
6.45487e-11
3.02214e-11
2.90964e-13
4.58476e-14
5.90323e-14
8.85426e-14
1.07017e-13
1.20906e-13
1.32823e-13
1.39617e-13
1.46239e-13
1.39013e-13
1.24769e-13
7.81562e-14
6.39295e-14
4.66813e-14
3.55083e-14
1.74488e-14
9.98047e-15
2.99709e-15
1.27477e-15
3.66048e-16
1.13281e-16
3.1459e-17
1.29363e-17
2.49062e-18
5.20101e-19
6.59316e-20
1.49775e-20
3.17449e-21
1.31572e-21
5.70783e-22
2.77449e-22
7.79171e-23
1.01526e-23
)
;
    }
    lowerWall
    {
        type            alphaContactAngle;
        contactAngleProperties 
        {
            mercury         
            {
                theta0          90;
            }
            air             
            {
                theta0          90;
            }
            oil             
            {
                theta0          90;
            }
        }
        value           nonuniform List<scalar> 
62
(
1.43524e-11
2.70961e-11
2.89135e-11
2.7915e-11
2.89234e-11
3.35078e-11
4.32407e-11
5.76295e-11
7.53744e-11
9.45338e-11
1.14803e-10
1.37659e-10
1.68671e-10
2.05923e-10
2.63523e-10
3.46449e-10
4.64676e-10
6.95444e-10
1.0751e-09
1.58087e-09
2.21633e-09
2.5539e-09
2.60676e-09
2.60676e-09
2.69201e-09
3.70057e-09
7.74957e-10
0.0381418
0.654356
0.786865
0.20378
0.0287507
0.0044037
4.8659e-10
4.83461e-10
2.02719e-07
2.1586e-05
0.00189005
0.000229985
0.42512
0.44496
0.0305037
2.20054e-19
2.02719e-07
2.02757e-07
0.00693508
0.0146906
0.0566026
0.00647518
2.48012e-10
2.59033e-09
6.85226e-09
3.92681e-09
9.06896e-07
6.38412e-06
5.33122e-06
0.00786289
0.0711629
0.1229
0.122959
0.0848905
0.0533811
)
;
    }
    atmosphere
    {
        type            inletOutlet;
        inletValue      uniform 0;
        value           nonuniform List<scalar> 
46
(
6.18921e-27
4.12246e-27
1.76962e-27
7.22253e-28
2.99235e-28
1.06355e-28
4.62504e-29
1.14704e-28
5.01333e-28
1.91724e-27
5.89548e-27
1.45858e-26
3.1929e-26
5.92769e-26
8.21109e-26
9.12885e-26
7.58954e-26
5.01392e-26
2.10811e-26
4.9061e-27
3.2758e-28
1.10679e-29
5.40054e-29
0
0
0
0
0
0
0
0
0
0
0
0
0
0
0
0
0
0
0
0
0
0
0
)
;
    }
    defaultFaces
    {
        type            empty;
    }
}


// ************************************************************************* //
