/*--------------------------------*- C++ -*----------------------------------*\
  =========                 |
  \\      /  F ield         | OpenFOAM: The Open Source CFD Toolbox
   \\    /   O peration     | Website:  https://openfoam.org
    \\  /    A nd           | Version:  13
     \\/     M anipulation  |
\*---------------------------------------------------------------------------*/
FoamFile
{
    format      ascii;
    class       volScalarField;
    location    "1.05";
    object      alpha.air;
}
// * * * * * * * * * * * * * * * * * * * * * * * * * * * * * * * * * * * * * //

dimensions      [];

internalField   nonuniform List<scalar> 
2268
(
1.66405e-14
1.48001e-14
3.137e-15
1.32861e-15
3.5671e-16
1.74974e-16
2.44209e-16
4.75939e-16
7.76139e-16
9.51091e-16
8.27975e-16
5.92971e-16
5.04424e-16
5.03444e-16
5.12103e-16
5.75119e-16
6.87953e-16
2.01816e-15
5.34453e-15
1.02882e-14
7.64133e-15
1.81157e-15
7.15641e-16
6.83184e-14
3.68863e-14
8.57322e-15
4.55182e-15
3.3036e-15
3.44638e-15
5.10453e-15
8.71576e-15
1.20072e-14
1.34164e-14
1.06748e-14
8.81848e-15
8.91025e-15
9.29592e-15
9.65608e-15
1.08223e-14
1.13579e-14
3.46658e-14
1.2143e-13
2.74771e-13
5.32539e-13
3.43143e-13
3.38742e-14
2.16397e-13
8.31628e-14
2.37608e-14
1.63551e-14
1.69148e-14
2.69551e-14
5.0309e-14
8.35688e-14
1.08042e-13
1.13207e-13
8.80147e-14
7.90991e-14
9.02006e-14
9.44915e-14
8.33681e-14
1.09864e-13
6.50577e-14
2.46268e-13
9.20677e-13
2.18865e-12
3.29249e-12
4.47017e-12
1.59465e-12
1.17763e-12
4.12065e-13
1.09407e-13
9.33789e-14
1.4055e-13
2.4093e-13
4.17354e-13
5.89418e-13
6.01507e-13
4.63293e-13
4.12224e-13
5.19537e-13
8.66069e-13
9.68988e-13
4.98234e-13
4.48189e-13
1.18044e-13
4.91183e-13
1.62448e-12
3.95347e-12
5.4084e-12
8.46243e-12
1.49746e-11
3.85456e-12
1.73773e-12
1.19769e-12
1.37354e-12
1.76337e-12
2.42625e-12
2.86636e-12
2.67519e-12
1.9067e-12
1.78377e-12
2.2193e-12
4.11977e-12
1.13917e-11
1.9051e-11
1.19128e-11
6.02192e-14
6.1051e-14
6.02192e-14
6.1051e-14
6.02192e-14
6.1051e-14
6.02192e-14
6.1051e-14
6.50843e-12
5.27822e-12
6.28955e-12
7.00044e-12
9.22152e-12
1.06466e-11
1.05328e-11
1.16268e-11
1.88418e-11
3.1936e-11
5.38578e-11
9.80583e-11
2.19696e-10
5.11681e-10
1.48887e-09
8.39453e-09
7.50691e-08
6.85999e-07
8.09933e-06
0.000123511
0.00131606
0.00798526
0.0208801
1.30543e-11
1.26419e-11
1.43741e-11
1.76995e-11
1.98951e-11
2.87027e-11
4.71228e-11
8.28826e-11
1.29521e-10
1.85461e-10
2.72354e-10
4.58944e-10
8.13588e-10
2.33392e-09
1.12718e-08
8.93982e-08
8.96289e-07
9.4201e-06
0.000115052
0.00141349
0.0142296
0.105662
0.170389
2.11173e-11
2.29056e-11
2.5834e-11
3.42767e-11
5.20825e-11
9.03165e-11
1.53136e-10
2.15283e-10
2.71683e-10
3.44375e-10
4.74468e-10
7.38876e-10
9.86518e-10
3.00747e-09
8.11763e-09
1.01339e-08
9.05411e-07
3.21389e-06
1.18804e-05
0.0184549
0.187253
0.233738
0.234304
0.0144885
0.0458437
0.0627288
0.0516888
0.0342139
0.00838393
2.11366e-08
3.04496e-08
2.2443e-08
0.00754931
0.0585925
0.130967
0.166347
0.216197
0.179508
0.122211
0.0319372
0.00575296
0.0261145
0.0146052
0.0797997
0.109193
0.109224
0.0924767
0.024966
0.00102921
-1.08994e-13
0.000126138
0.0016645
0.00213776
0.0091843
0.062489
0.228728
0.246446
0.117626
0.0102829
0.00102922
2.61324e-06
0.0144492
0.0340677
0.0156924
0.0365487
0.0224418
0.0126917
0.00193701
3.74787e-09
2.06531e-05
0.00105631
0.00189752
0.00194699
0.00265061
0.238313
0.479299
0.463189
0.296129
0.0137891
0.00015585
0.0147987
0.031825
0.00012171
9.7215e-05
0.00011416
8.46741e-05
0.000321446
4.44309e-06
6.39821e-05
0.00014527
1.78275e-06
0.000401685
0.0150916
0.233469
0.479751
0.505733
0.507571
0.0761643
0.0840836
0.0466698
0.148878
0.0580144
0.000256369
0.000213959
6.19838e-05
8.55054e-07
2.43203e-06
3.02464e-05
2.49965e-05
1.76299e-06
1.86995e-06
1.763e-06
0.16317
0.403878
0.444022
0.340848
0.0709619
0.288572
0.392302
0.400057
0.288199
0.0714714
0.000919366
0.000228769
2.75681e-05
6.31282e-07
6.98025e-06
6.00705e-06
-6.02357e-09
0.00527948
0.109389
0.140895
0.135354
0.290949
0.190433
0.00384633
0.388702
0.401691
0.401431
0.28103
0.129185
0.0412146
0.000311605
0.000152059
2.85201e-05
8.47873e-06
1.11568e-05
2.92881e-06
0.15248
0.451238
0.479755
0.385743
0.271918
0.0753526
0.00248217
0.416758
0.340604
0.0611058
0.0356398
0.0478572
0.0501121
0.0228726
0.000374321
7.64911e-05
9.94429e-06
1.28774e-05
0.00220031
0.306683
0.552374
0.55683
0.551987
0.324728
0.0839155
0.00165251
0.413617
4.67584e-11
5.41374e-11
7.57542e-11
1.12436e-10
1.70019e-10
2.4178e-10
3.08775e-10
3.54835e-10
4.16259e-10
4.95411e-10
7.23868e-10
1.57816e-09
3.64349e-09
7.75254e-09
3.5015e-08
1.31753e-07
1.70683e-07
9.59872e-07
0.0281876
0.193146
0.222305
0.186816
0.177752
1.70309e-10
1.69414e-10
2.39049e-10
3.56897e-10
4.93323e-10
6.04211e-10
6.67752e-10
7.21325e-10
7.62595e-10
8.16126e-10
1.50831e-09
4.89726e-09
1.2434e-08
7.58299e-09
1.31017e-08
2.66472e-05
0.0201625
0.235969
0.324687
0.294767
0.00722754
1.73523e-08
0.000152648
3.91421e-10
3.93601e-10
5.04513e-10
6.17365e-10
7.06602e-10
8.34203e-10
1.04031e-09
1.24999e-09
1.22472e-09
1.1304e-09
1.43396e-09
1.43772e-09
1.44069e-09
0.000998185
0.0866543
0.34221
0.340526
0.239983
0.00166152
0.0108901
0.000342726
5.20001e-08
2.23135e-08
5.46992e-10
5.60322e-10
5.96674e-10
6.36059e-10
6.46719e-10
6.28682e-10
4.93785e-10
1.80092e-10
1.37809e-11
7.44362e-13
-1.69357e-14
0.00385842
0.214259
0.423918
0.420034
0.131421
0.0248248
0.0340165
4.68504e-05
1.8614e-06
1.48124e-06
1.08563e-06
4.35057e-09
5.56471e-10
5.55555e-10
5.51021e-10
5.05917e-10
4.3155e-10
3.15434e-10
3.53619e-10
3.49102e-20
1.47866e-12
0.0133301
0.284703
0.416553
0.412226
0.147317
0.0590606
0.017879
2.994e-05
2.52479e-05
5.49162e-05
2.55435e-05
8.94121e-08
5.5032e-08
6.55209e-09
4.70161e-10
4.36807e-10
3.91224e-10
2.8777e-10
1.65788e-10
1.65794e-10
1.63873e-10
0.000464901
0.185757
0.37194
0.36822
0.234362
0.028549
0.000574088
2.73945e-07
5.63933e-07
8.04329e-05
3.09507e-05
2.81802e-08
4.29553e-06
8.14846e-07
3.04879e-08
3.82589e-08
2.14023e-10
1.82145e-10
1.43599e-10
1.36616e-10
9.10215e-11
1.35452e-07
0.00784584
0.239977
0.323776
0.305006
0.0377838
0.0042774
3.36937e-07
2.80309e-08
3.26358e-08
1.33638e-05
3.63377e-05
7.72113e-06
1.02572e-08
1.74339e-08
6.32985e-08
2.22115e-08
2.05332e-08
8.91847e-12
7.94264e-12
1.09908e-11
1.15203e-08
7.37605e-09
0.00618748
0.149605
0.215575
0.177205
0.0103467
5.9072e-06
2.2317e-07
5.08759e-08
4.17725e-09
3.42028e-09
3.89405e-08
3.70219e-08
9.30677e-08
5.32117e-08
0.0634118
0.22396
0.221255
0.176988
7.85783e-12
1.38043e-08
1.35653e-08
1.37506e-07
1.83476e-05
0.0711961
0.121091
0.0338862
0.00146341
3.14055e-06
9.18587e-08
4.35493e-13
6.4373e-09
-6.2167e-12
2.08857e-07
0.0253396
0.215275
0.397502
0.578741
0.793761
0.927672
0.960302
0.979361
0.124463
0.206578
0.198081
0.219073
0.325242
0.230498
0.000152653
9.78339e-05
4.98475e-06
3.97748e-06
3.81963e-06
0.0548467
0.227932
0.402512
0.586778
0.775751
0.919911
0.9836
0.999588
1
1
0.999999
1
0.887532
0.93953
0.930229
0.931482
0.960808
0.471135
0.0147207
0.0303622
0.117668
0.383476
0.656226
0.829185
0.931525
0.983079
0.999999
0.999999
0.999999
0.999999
1
1
1
1
0.999999
0.999969
0.999989
0.999992
0.999992
0.999151
0.947671
0.835002
0.806693
0.864668
0.970064
0.999999
0.999999
0.999998
0.999999
1
0.999999
1
1
1
1
1
1
0.999999
0.999999
1
1
0.999996
0.999918
0.999997
0.999997
0.999998
0.999999
1
1
1
0.999999
0.999999
1
0.999999
0.999998
0.999999
1
1
1
1
1
1
1
1
0.999999
1
1
1
1
1
1
1
1
1
1
0.999997
0.999918
0.99991
0.999993
0.999997
0.999996
0.999997
0.999999
1
1
1
1
1
1
1
1
1
1
1
1
1
1
1
1
0.999921
0.999799
0.999808
0.999887
0.999996
0.999996
0.999995
0.999995
1
1
1
1
1
1
1
1
1
1
1
1
1
1
1
0.999997
0.999944
0.999822
0.9998
0.999799
0.999939
0.999997
0.999996
1
1
1
1
1
1
1
1
1
1
1
1
1
1
1
1
1
0.999993
0.999946
0.999902
0.999894
0.999978
1
1
1
1
1
1
1
1
1
1
1
1
1
1
1
1
1
1
1
1
1
0.999994
0.999997
1
1
1
1
1
1
1
1
1
1
1
1
1
1
1
1
1
1
1
1
1
1
1
1
1
1
1
1
1
1
1
1
1
1
1
1
1
1
1
1
1
1
1
1
1
1
1
1
1
1
1
1
1
1
1
1
1
1
1
1
1
1
1
1
1
1
1
1
1
1
1
1
1
1
1
1
1
1
1
1
1
1
1
1
1
1
1
1
1
1
1
1
1
1
1
1
1
1
1
1
1
1
1
1
1
1
1
1
1
1
1
1
1
1
1
1
1
1
1
1
1
1
1
1
1
1
1
1
1
1
1
1
1
1
1
1
1
1
1
1
1
1
1
1
1
1
1
1
1
1
1
1
1
1
1
1
1
1
1
1
1
1
1
1
1
1
1
1
1
1
1
1
1
1
1
1
1
1
1
1
1
1
1
1
1
1
1
1
1
1
1
1
1
1
1
1
1
1
1
1
1
1
1
1
1
1
1
1
1
1
1
1
1
1
1
1
1
1
1
1
1
1
1
1
1
1
1
1
1
1
1
1
1
1
1
1
1
1
1
1
1
1
1
1
1
1
1
1
1
1
1
1
1
1
1
1
1
1
1
1
1
1
1
1
1
1
1
1
1
1
1
1
1
1
1
1
1
1
1
1
1
1
1
1
1
1
1
1
1
1
1
1
1
1
1
1
1
1
1
1
1
1
1
1
1
1
1
1
1
1
1
1
1
1
1
1
1
1
1
1
1
1
1
1
1
1
1
1
1
1
1
1
1
1
1
1
1
1
1
1
1
1
1
1
1
1
1
1
1
1
1
1
1
1
1
1
1
1
1
1
1
1
1
1
1
1
1
1
1
1
1
1
1
1
1
1
1
1
1
1
1
1
1
1
1
1
1
1
1
1
1
1
1
1
1
1
1
1
1
1
1
1
1
1
1
1
1
1
1
1
1
1
1
1
1
1
1
1
1
1
1
1
1
1
1
1
1
1
1
1
1
1
1
1
1
1
1
1
1
1
1
1
1
1
1
1
1
1
1
1
1
1
1
1
1
1
1
1
1
1
1
1
1
1
1
1
1
1
1
1
1
1
1
1
1
1
1
1
1
1
1
1
1
1
1
1
1
1
1
1
1
1
1
1
1
1
1
1
1
1
1
1
1
1
1
1
1
1
1
1
1
1
1
1
1
1
1
1
1
1
1
1
1
1
1
1
1
1
1
1
1
1
1
1
1
1
1
1
1
1
1
1
1
1
1
1
1
1
1
1
1
1
1
0.129228
6.89251e-08
4.624e-06
0.00461112
0.0017195
0.000262608
5.18488e-09
3.71617e-05
3.38267e-08
3.30524e-08
1.4753e-08
1.51139e-07
3.98374e-09
4.57599e-09
6.56525e-09
1.63981e-08
8.9134e-09
1.47418e-08
1.81233e-08
2.82289e-08
2.90859e-08
2.13091e-08
4.65424e-08
4.86264e-08
8.43818e-09
1.21036e-08
1.29123e-07
0.00177088
0.550683
0.683932
0.585173
0.466721
0.996971
1
0.999999
0.999562
1
1
1
0.999999
0.999999
0.999999
0.999999
0.999999
0.999998
0.999998
0.999998
0.999998
1
1
1
0.999999
1
1
1
1
0.999995
0.999997
1
1
0.999995
0.999995
0.999995
0.999995
0.999999
0.999998
0.999998
0.999998
1
1
1
1
1
1
1
1
1
1
1
1
1
1
1
1
1
1
1
1
1
1
1
1
1
1
1
1
1
1
1
1
1
1
1
1
1
1
1
1
1
1
1
1
1
1
1
1
1
1
1
1
1
1
1
1
1
1
1
1
1
1
1
1
1
1
1
1
1
1
1
1
1
1
1
1
1
1
1
1
1
1
1
1
1
1
1
1
1
1
1
1
1
1
1
1
1
1
1
1
0.0137265
5.06794e-06
8.01e-09
5.18943e-05
0.00905581
0.0190906
0.00782098
0.000268357
2.53987e-05
2.09264e-06
0.000441856
0.260503
0.526809
0.432188
0.242466
0.0980374
0.0052663
0.00167644
0.447261
7.67258e-08
1.42093e-07
1.25492e-09
6.42371e-10
6.62471e-10
0.000533529
0.00383119
0.00196784
8.27325e-05
3.74573e-05
0.00172946
0.042511
0.0417825
0.0133186
2.66477e-05
6.34264e-05
0.000643615
0.026621
0.455143
1.03991e-08
1.80492e-08
1.64347e-08
6.625e-10
5.48464e-10
4.75414e-08
1.26865e-05
0.000544307
0.00023424
0.000174316
0.00146316
0.000357593
6.00233e-06
2.57766e-05
0.00338076
0.00927393
0.0109034
0.0279789
0.404333
4.65158e-08
1.28636e-07
6.4786e-07
9.17126e-07
1.24142e-07
5.92646e-10
1.20658e-09
1.80896e-08
1.88491e-05
4.28934e-05
0.000482027
0.000903022
0.00150359
0.00294936
0.0065937
0.00970576
0.00929262
0.0130164
0.155618
1.05324e-07
6.3193e-07
1.00863e-06
1.00926e-06
9.66624e-07
1.23836e-07
1.54989e-08
1.71022e-08
1.70788e-08
4.75029e-06
0.000127959
0.000711413
0.00135147
0.00212729
0.00321251
0.00335819
0.00779443
0.0136507
0.166714
1.40762e-07
1.55771e-07
1.93014e-07
8.64203e-07
9.87278e-07
1.44882e-07
3.97543e-08
4.91734e-08
1.78152e-07
-7.39079e-09
-7.95449e-07
-6.82295e-06
-5.3124e-05
0.0533622
0.220104
0.456737
0.501786
0.439022
0.345301
0.00195367
0.00136692
0.000425318
2.2858e-08
2.72027e-09
4.5747e-09
2.47998e-09
4.02399e-08
0.00120741
0.0140024
0.0673762
0.201217
0.478918
0.775288
0.955295
0.999973
0.999968
0.866883
0.681624
0.467809
0.482868
0.441574
0.389775
0.357415
0.353758
0.370923
0.417121
0.507833
0.654551
0.825652
0.961739
1
1
1
1
0.996367
0.926067
0.899072
1
1
1
1
1
1
1
1
1
1
1
1
0.999966
0.999865
0.999996
0.996574
0.992399
0.999996
0.999998
1
1
1
1
1
1
1
1
1
0.999999
0.999883
0.999059
0.998642
0.998892
0.999989
0.999943
0.999926
0.999998
0.999997
0.999998
0.999999
0.999999
0.999999
1
1
0.999999
0.999998
0.999998
0.999998
0.99965
0.998394
0.998497
0.999464
1
1
0.999999
0.999997
0.999996
0.999998
0.999998
0.999998
0.999999
0.999999
1
0.999999
0.999996
0.999996
0.999995
0.999962
0.999988
0.999924
1
1
0.999999
0.999999
0.999998
0.999996
0.999999
0.999999
0.999999
0.999999
1
1
1
0.999997
0.999997
0.999999
1
1
1
1
0.999999
0.999999
0.999999
1
1
1
1
1
1
1
1
1
1
1
1
1
1
1
1
1
1
1
1
0.999999
1
1
1
1
1
1
1
1
1
1
1
1
1
1
1
1
1
1
0.999998
0.999999
1
1
1
1
1
1
1
1
1
1
1
1
1
1
1
1
1
0.999998
0.999999
1
1
1
1
1
1
1
1
1
1
1
1
1
1
1
1
1
0.999998
1
1
1
1
1
1
1
1
1
1
1
1
1
1
1
1
1
1
0.999999
1
1
1
1
1
1
1
1
1
1
1
1
1
1
1
1
1
1
0.999999
1
1
1
1
1
1
1
1
1
1
1
1
1
1
1
1
1
1
0.999999
1
1
1
1
1
1
1
1
1
1
1
1
1
1
1
1
1
1
0.999999
1
1
1
1
1
1
1
1
1
1
1
1
1
1
1
1
1
1
1
1
1
1
1
1
1
1
1
1
1
1
1
1
1
1
1
1
1
1
1
1
1
1
1
1
1
1
1
1
1
1
1
1
1
1
1
1
1
1
1
1
1
1
1
1
1
1
1
1
1
1
1
1
1
1
1
1
1
1
1
1
1
1
1
1
1
1
1
1
1
1
1
1
1
1
1
1
1
1
1
1
1
1
1
1
1
1
1
1
1
1
1
1
1
1
1
1
1
1
1
1
1
1
1
1
1
1
1
1
1
1
1
1
1
1
1
1
1
1
1
1
1
1
1
1
1
1
1
1
1
1
1
1
1
1
1
1
1
1
1
1
1
1
1
1
1
1
1
1
1
1
1
1
1
1
1
1
1
1
1
1
1
1
1
1
1
1
1
1
1
1
1
1
1
1
1
1
1
1
1
1
1
1
1
1
1
1
1
1
1
1
1
1
1
1
1
1
1
1
1
1
1
1
1
1
1
1
1
1
1
1
1
1
1
1
1
1
1
1
1
1
1
1
1
1
1
1
1
1
1
1
1
1
1
1
1
1
1
1
1
1
1
1
1
1
1
1
1
1
1
1
1
1
1
1
1
1
1
1
1
1
1
1
1
1
1
1
1
1
1
1
1
1
1
1
1
1
1
1
1
1
1
1
1
1
1
1
1
1
1
1
1
1
1
1
1
1
1
1
1
1
1
1
1
1
1
1
1
1
1
1
1
1
1
1
1
1
1
1
1
1
1
1
1
1
1
1
1
1
1
1
1
1
1
1
1
1
1
1
1
1
1
1
1
1
1
1
1
1
1
1
1
1
1
1
1
1
1
1
1
1
1
1
1
1
1
1
1
1
1
1
1
1
1
1
1
1
1
1
1
)
;

boundaryField
{
    leftWall
    {
        type            alphaContactAngle;
        contactAngleProperties 
        {
            mercury         
            {
                theta0          90;
            }
            water           
            {
                theta0          90;
            }
            oil             
            {
                theta0          90;
            }
        }
        value           nonuniform List<scalar> 
50
(
1.66405e-14
6.83184e-14
2.16397e-13
1.17763e-12
3.85456e-12
6.50843e-12
1.30543e-11
2.11173e-11
4.67584e-11
1.70309e-10
3.91421e-10
5.46992e-10
5.56471e-10
4.70161e-10
2.14023e-10
8.91847e-12
7.85783e-12
0.124463
0.887532
0.999969
0.999999
1
1
1
1
1
1
1
1
1
1
1
1
1
1
1
1
1
1
1
1
1
1
1
1
1
1
1
1
1
)
;
    }
    rightWall
    {
        type            alphaContactAngle;
        contactAngleProperties 
        {
            mercury         
            {
                theta0          90;
            }
            water           
            {
                theta0          90;
            }
            oil             
            {
                theta0          90;
            }
        }
        value           nonuniform List<scalar> 
50
(
0.0261145
2.61324e-06
0.00015585
0.0840836
0.288572
0.388702
0.416758
0.413617
0.447261
0.455143
0.404333
0.155618
0.166714
0.345301
0.681624
0.899072
0.999998
0.999997
0.999996
0.999996
1
0.999999
0.999998
0.999998
0.999998
0.999999
0.999999
0.999999
0.999999
1
1
1
1
1
1
1
1
1
1
1
1
1
1
1
1
1
1
1
1
1
)
;
    }
    lowerWall
    {
        type            alphaContactAngle;
        contactAngleProperties 
        {
            mercury         
            {
                theta0          90;
            }
            water           
            {
                theta0          90;
            }
            oil             
            {
                theta0          90;
            }
        }
        value           nonuniform List<scalar> 
62
(
1.66405e-14
1.48001e-14
3.137e-15
1.32861e-15
3.5671e-16
1.74974e-16
2.44209e-16
4.75939e-16
7.76139e-16
9.51091e-16
8.27975e-16
5.92971e-16
5.04424e-16
5.03444e-16
5.12103e-16
5.75119e-16
6.87953e-16
2.01816e-15
5.34453e-15
1.02882e-14
7.64133e-15
1.81157e-15
7.15641e-16
7.15641e-16
3.38742e-14
1.59465e-12
1.49746e-11
6.1051e-14
0.0208801
0.170389
0.234304
0.129228
6.89251e-08
4.624e-06
0.00461112
0.0144885
0.0146052
0.0144492
0.0147987
0.0466698
0.392302
0.401691
0.340604
0.0144885
0.0458437
0.0627288
0.0516888
0.0342139
0.00838393
2.11366e-08
3.04496e-08
2.2443e-08
0.00754931
0.0585925
0.130967
0.166347
0.216197
0.179508
0.122211
0.0319372
0.00575296
0.0261145
)
;
    }
    atmosphere
    {
        type            inletOutlet;
        inletValue      uniform 1;
        value           nonuniform List<scalar> 
46
(
1
1
1
1
1
1
1
1
1
1
1
1
1
1
1
1
1
1
1
1
1
1
1
1
1
1
1
1
1
1
1
1
1
1
1
1
1
1
1
1
1
1
1
1
1
1
)
;
    }
    defaultFaces
    {
        type            empty;
    }
}


// ************************************************************************* //
