/*--------------------------------*- C++ -*----------------------------------*\
  =========                 |
  \\      /  F ield         | OpenFOAM: The Open Source CFD Toolbox
   \\    /   O peration     | Website:  https://openfoam.org
    \\  /    A nd           | Version:  13
     \\/     M anipulation  |
\*---------------------------------------------------------------------------*/
FoamFile
{
    format      ascii;
    class       volScalarField;
    location    "1.05";
    object      epsilon;
}
// * * * * * * * * * * * * * * * * * * * * * * * * * * * * * * * * * * * * * //

dimensions      [0 2 -3 0 0 0 0];

internalField   nonuniform List<scalar> 
2268
(
0.0107083
0.0420358
0.0730619
0.108655
0.151908
0.202997
0.262774
0.333589
0.418194
0.516097
0.6229
0.731986
0.835283
0.924371
0.991319
1.02924
1.03214
0.994037
0.90814
0.766834
0.562362
0.309608
0.0543277
0.0214837
0.0346241
0.0486578
0.0632983
0.0811341
0.103187
0.130565
0.164323
0.205067
0.252254
0.3039
0.357136
0.40847
0.454187
0.490659
0.514525
0.522686
0.512131
0.479677
0.421813
0.334963
0.220375
0.0986541
0.0383417
0.0363621
0.0451086
0.0555474
0.0693218
0.0875404
0.111264
0.141218
0.177435
0.218965
0.263869
0.309607
0.353451
0.392702
0.4248
0.447391
0.458304
0.455443
0.436549
0.398735
0.338138
0.252932
0.175108
0.0535974
0.0391185
0.044766
0.0538385
0.0669418
0.0851588
0.109582
0.140768
0.178344
0.220832
0.265948
0.311042
0.353645
0.391577
0.422914
0.44597
0.459271
0.461472
0.451124
0.425991
0.382025
0.315017
0.267589
0.0657011
0.0420491
0.0456149
0.0543455
0.0680353
0.0877546
0.114653
0.149125
0.190347
0.236192
0.283843
0.33047
0.373745
0.411905
0.443561
0.467624
0.48329
0.490015
0.487383
0.474376
0.448044
0.403984
0.396355
0.0742527
0.0448731
0.0470785
0.056013
0.0710473
0.0932631
0.123836
0.162934
0.209149
0.2596
0.310856
0.359894
0.404537
0.443446
0.475755
0.500958
0.518935
0.530031
0.535157
0.535285
0.530899
0.524351
0.592487
0.0794961
0.0475356
0.0488698
0.0584709
0.0754549
0.101097
0.136393
0.181091
0.233157
0.288897
0.344242
0.395975
0.442128
0.481842
0.514791
0.541051
0.561185
0.576479
0.58937
0.603355
0.624978
0.677867
0.936384
0.0825213
0.049817
0.0508029
0.0616312
0.0813415
0.11124
0.152293
0.203338
0.261641
0.322657
0.381837
0.435963
0.48351
0.52405
0.557704
0.585047
0.607224
0.626334
0.646123
0.67234
0.718413
0.84882
1.6549
0.314453
0.793526
1.15596
1.15701
1.15732
1.03138
0.849234
0.776804
0.778838
0.790776
0.702255
0.548617
0.403455
0.264376
0.216578
0.256654
0.360831
0.434071
0.174944
0.258076
0.469362
0.610932
0.645114
0.649215
0.625349
0.579062
0.555195
0.508991
0.421857
0.352366
0.288874
0.241978
0.198039
0.180072
0.19252
0.238906
0.268004
0.166493
0.297679
0.445244
0.539702
0.565295
0.570723
0.551353
0.513996
0.479947
0.43924
0.378047
0.318624
0.27147
0.242462
0.219436
0.19955
0.21616
0.258414
0.264021
0.238195
0.385949
0.488591
0.544652
0.550271
0.545957
0.525257
0.489676
0.454626
0.420259
0.374841
0.319882
0.278969
0.258559
0.251974
0.255561
0.266053
0.281269
0.268713
0.325231
0.555851
0.574081
0.57104
0.552122
0.535168
0.510971
0.478155
0.445468
0.416113
0.379394
0.327244
0.290629
0.275847
0.280102
0.304758
0.321517
0.301015
0.279489
0.405369
0.825488
0.667854
0.598943
0.558587
0.530951
0.502592
0.471035
0.440865
0.413851
0.3816
0.334352
0.30189
0.290918
0.2999
0.326337
0.344657
0.311992
0.290764
0.440199
1.26101
0.744094
0.620451
0.564851
0.529595
0.498239
0.46705
0.437857
0.41066
0.379394
0.339711
0.311767
0.303581
0.314152
0.336659
0.345528
0.313101
0.301009
0.448723
2.1401
0.802617
0.633324
0.568604
0.528985
0.496026
0.465154
0.436437
0.408887
0.37875
0.345176
0.321511
0.314348
0.323327
0.339644
0.339282
0.310299
0.313937
0.444309
0.0847833
0.0526296
0.0541855
0.0680272
0.0935189
0.131687
0.182814
0.245143
0.313686
0.382332
0.446323
0.503217
0.552399
0.593979
0.628519
0.657133
0.681536
0.704696
0.73141
0.76771
0.827537
0.952412
1.2793
0.0913279
0.0566097
0.0630749
0.0848109
0.121832
0.176816
0.247579
0.328328
0.41042
0.487051
0.55451
0.611915
0.659788
0.699228
0.73115
0.756985
0.778116
0.797039
0.81861
0.846147
0.875756
0.916109
0.98264
0.125
0.0615768
0.0738124
0.10772
0.164204
0.243589
0.338526
0.437243
0.529152
0.608507
0.673977
0.726396
0.767766
0.799978
0.82366
0.839991
0.850456
0.854567
0.854722
0.855672
0.852447
0.844739
0.837959
0.126611
0.0666871
0.0889962
0.14206
0.226637
0.336533
0.455366
0.566613
0.660816
0.735512
0.792507
0.834295
0.863723
0.883182
0.892346
0.889176
0.8787
0.865095
0.849195
0.831743
0.810653
0.785292
0.758318
0.120943
0.0741282
0.11379
0.195873
0.31694
0.458054
0.593795
0.707655
0.794931
0.857521
0.900003
0.925662
0.935914
0.932645
0.920048
0.900858
0.877944
0.854077
0.829401
0.803108
0.774344
0.743097
0.711053
0.12419
0.0897252
0.156378
0.278573
0.439473
0.604612
0.744925
0.849586
0.920663
0.963815
0.983575
0.984518
0.971299
0.950413
0.92538
0.898071
0.869364
0.840173
0.810547
0.780078
0.748499
0.715883
0.683448
0.145262
0.121124
0.225801
0.394593
0.58988
0.765635
0.896052
0.979591
1.02492
1.04028
1.03309
1.0137
0.987651
0.958235
0.927131
0.895409
0.863476
0.831473
0.799375
0.767178
0.734908
0.702579
0.671202
0.198277
0.1756
0.324486
0.537151
0.755106
0.926353
1.03283
1.08459
1.09788
1.08699
1.06324
1.03342
1.00075
0.966878
0.932723
0.8988
0.865229
0.831919
0.798822
0.766105
0.733993
0.702514
0.672412
0.300044
0.253179
0.443338
0.691139
0.920241
1.07259
1.1437
1.15986
1.14742
1.12112
1.08831
1.05281
1.0167
0.980775
0.945352
0.910526
0.87628
0.842554
0.809278
0.776555
0.745099
0.714865
0.685308
0.445781
0.344271
0.573778
0.851142
1.08067
1.19332
1.22289
1.21396
1.18714
1.15206
1.11394
1.07545
1.03776
1.00118
0.965547
0.930523
0.89615
0.862678
0.829752
0.796752
0.765873
0.737176
0.707093
0.600023
0.435869
0.723028
1.03088
1.24418
1.27529
1.27746
1.25711
1.22272
1.18253
1.14134
1.10142
1.06334
1.0272
0.992409
0.957407
0.922939
0.889691
0.856333
0.822296
0.789983
0.759701
0.72928
0.569976
0.4936
0.882484
1.19248
1.31541
1.31624
1.31825
1.29379
1.254
1.21068
1.1683
1.12837
1.09072
1.05536
1.02097
0.985938
0.950597
0.916374
0.882396
0.848737
0.816305
0.785123
0.754678
0.486952
0.462738
0.815264
1.08109
1.21711
1.31748
1.36304
1.32938
1.27776
1.23235
1.19005
1.15061
1.11362
1.07862
1.04472
1.01128
0.978169
0.945563
0.912977
0.880447
0.84827
0.816485
0.785329
0.535039
0.416004
0.650237
0.89178
1.07413
1.2213
1.31491
1.31212
1.27888
1.24467
1.20752
1.1699
1.13478
1.10179
1.06988
1.03867
1.00807
0.977424
0.946261
0.914413
0.881964
0.849195
0.816561
0.536971
0.364198
0.529141
0.738257
0.925821
1.07625
1.17683
1.22076
1.2321
1.22302
1.19975
1.1717
1.14351
1.11566
1.08771
1.05954
1.0312
1.00243
0.972729
0.941749
0.909355
0.875842
0.841829
0.47199
0.311514
0.432204
0.606321
0.778898
0.927325
1.03747
1.10533
1.14261
1.15603
1.15221
1.13935
1.12264
1.10369
1.08258
1.05961
1.03524
1.0095
0.982208
0.953161
0.922169
0.889251
0.855038
0.403727
0.26097
0.351897
0.493489
0.6431
0.777571
0.887776
0.966995
1.01941
1.0502
1.06407
1.06712
1.06376
1.05586
1.04405
1.02889
1.01101
0.990673
0.967885
0.942584
0.914701
0.884255
0.851703
0.344933
0.218352
0.285001
0.397755
0.523329
0.640586
0.741019
0.819903
0.878249
0.919162
0.945549
0.961518
0.970268
0.973451
0.971754
0.96574
0.956013
0.942941
0.926716
0.90728
0.884571
0.858589
0.829708
0.292127
0.181902
0.229247
0.316984
0.419785
0.519637
0.607757
0.680323
0.737359
0.780955
0.813412
0.837256
0.854577
0.866576
0.873793
0.876568
0.875256
0.870161
0.861434
0.849075
0.833002
0.813175
0.789905
0.246187
0.151076
0.183414
0.249805
0.331679
0.414854
0.490622
0.555073
0.607663
0.649818
0.683443
0.710416
0.732221
0.749727
0.76329
0.773029
0.77901
0.78128
0.779849
0.774651
0.765582
0.752606
0.735947
0.208439
0.126103
0.146931
0.195551
0.25863
0.325944
0.389782
0.445974
0.493313
0.532515
0.565042
0.592415
0.615851
0.636078
0.653376
0.66774
0.679041
0.687107
0.691756
0.6928
0.690076
0.683518
0.673257
0.179296
0.106958
0.119115
0.153498
0.200389
0.252983
0.30529
0.353325
0.395335
0.431295
0.462079
0.488823
0.51252
0.53382
0.552991
0.570008
0.584665
0.596671
0.605717
0.611508
0.613812
0.61251
0.607656
0.158067
0.0930647
0.0988414
0.122338
0.156075
0.195733
0.23719
0.277168
0.313755
0.346349
0.37522
0.401035
0.424492
0.4461
0.466096
0.484461
0.500986
0.515351
0.527198
0.536183
0.54203
0.544577
0.54382
0.143334
0.0834226
0.0846263
0.100162
0.123848
0.152911
0.184761
0.217055
0.248112
0.277069
0.303743
0.328353
0.351255
0.372749
0.392978
0.411899
0.42931
0.444903
0.458324
0.469227
0.477328
0.482447
0.484542
0.133416
0.0768765
0.0748866
0.084809
0.101207
0.122157
0.146099
0.17153
0.197197
0.222267
0.246331
0.269289
0.291202
0.312145
0.332127
0.351041
0.368673
0.384727
0.398869
0.410774
0.420173
0.426889
0.430867
0.126768
0.0723683
0.0682043
0.0742715
0.085574
0.100625
0.118461
0.138178
0.158949
0.180118
0.201247
0.222083
0.24249
0.262371
0.281604
0.300007
0.317335
0.33329
0.347558
0.359836
0.369877
0.377515
0.382695
0.122174
0.0690897
0.0634771
0.0669413
0.0747548
0.0856486
0.0989757
0.114197
0.130806
0.14835
0.166463
0.184864
0.203334
0.221674
0.239676
0.257099
0.273667
0.289078
0.303027
0.31523
0.325459
0.333561
0.339481
0.118813
0.0665149
0.0599504
0.0616702
0.0671119
0.0751152
0.0851904
0.0970004
0.110241
0.124625
0.139885
0.155777
0.172073
0.188543
0.204944
0.221006
0.236442
0.250948
0.264231
0.276024
0.286112
0.294352
0.300685
0.116185
0.0643549
0.0571649
0.0577112
0.0615337
0.0675248
0.0752694
0.0845335
0.0951303
0.106881
0.119604
0.133113
0.147208
0.161672
0.176266
0.190727
0.204771
0.218113
0.230473
0.241603
0.251301
0.25943
0.265926
0.114033
0.0624791
0.054872
0.0546157
0.0573157
0.0618888
0.0679516
0.0753196
0.0838676
0.0934825
0.104044
0.115416
0.12744
0.139932
0.152679
0.165443
0.177968
0.189994
0.201266
0.211556
0.220678
0.2285
0.234954
0.11224
0.0608463
0.052953
0.0521323
0.0540348
0.0575869
0.0624165
0.0683599
0.0753221
0.0832263
0.0919912
0.101519
0.11169
0.122355
0.133338
0.144436
0.15543
0.166091
0.176197
0.185543
0.193962
0.201328
0.207572
0.110775
0.0594569
0.05136
0.0501285
0.0514458
0.054242
0.0581465
0.0630021
0.0687273
0.075264
0.0825542
0.0905273
0.0990922
0.108134
0.11751
0.127056
0.13659
0.145919
0.154854
0.163219
0.170863
0.177673
0.18358
0.109641
0.0583269
0.0500787
0.0485368
0.0494095
0.0516277
0.0548187
0.0588263
0.0635732
0.0690106
0.0750939
0.08177
0.0889702
0.0966054
0.104565
0.112717
0.120914
0.129
0.136816
0.144213
0.151061
0.157259
0.162743
0.108867
0.0574761
0.0491091
0.0473235
0.0478451
0.0496057
0.0522298
0.0555596
0.0595191
0.0640632
0.069155
0.074753
0.0808042
0.0872401
0.0939744
0.100904
0.107913
0.114875
0.121661
0.128147
0.134222
0.139796
0.144806
0.108478
0.0569237
0.0484545
0.0464687
0.0467017
0.0480864
0.0502455
0.0530195
0.0563322
0.0601403
0.0644111
0.0691108
0.0741978
0.0796189
0.0853077
0.0911847
0.0971593
0.103133
0.109002
0.114664
0.120027
0.125008
0.129552
0.108503
0.0566855
0.0481165
0.0459556
0.04594
0.0470038
0.048769
0.0510754
0.0538462
0.057039
0.0606237
0.0645716
0.0688494
0.0734157
0.0782197
0.0832014
0.0882923
0.0934173
0.0984967
0.103449
0.108192
0.112654
0.11678
0.108954
0.0567691
0.0480891
0.0457625
0.0455209
0.0462997
0.0477213
0.0496253
0.0519347
0.0546074
0.0576148
0.0609319
0.0645313
0.068381
0.0724429
0.0766735
0.081024
0.0854413
0.0898682
0.0942418
0.0984927
0.102548
0.106344
0.109819
0.0571684
0.0483523
0.045855
0.0453968
0.0459137
0.0470291
0.0485822
0.0504957
0.0527273
0.0552495
0.0580393
0.0610743
0.0643295
0.0677778
0.0713898
0.0751354
0.0789835
0.0829008
0.0868465
0.0907635
0.0945721
0.0981794
0.111038
0.057853
0.0488636
0.0461792
0.0455052
0.0457772
0.0466181
0.0478663
0.0494433
0.051306
0.0534267
0.0557843
0.0583593
0.0611329
0.0640868
0.0672047
0.0704739
0.0738867
0.0774384
0.0811192
0.0848945
0.0886773
0.0923141
0.112494
0.0587575
0.0495461
0.0466529
0.045764
0.0458105
0.0464122
0.0474045
0.0487064
0.0502732
0.0520765
0.0540956
0.0563136
0.058716
0.0612916
0.0640351
0.0669503
0.0700534
0.0733749
0.0769522
0.0808033
0.0848625
0.0888824
0.113971
0.0597526
0.050265
0.0471513
0.0460638
0.04592
0.0463319
0.0471295
0.0482284
0.0495813
0.0511586
0.0529397
0.0549087
0.0570543
0.0593702
0.0618592
0.0645381
0.0674448
0.0706469
0.0742466
0.0783666
0.0830635
0.0880666
0.115128
0.0605297
0.0507819
0.0474931
0.0462674
0.0460028
0.0463014
0.0469879
0.0479742
0.0492112
0.0506682
0.0523241
0.0541637
0.0561769
0.0583599
0.0607195
0.0632795
0.0660904
0.0692453
0.0729022
0.0773111
0.0827981
0.0894706
2.21871
2.26532
2.63083
3.35234
1.06494
1.08144
1.08479
1.05247
0.829094
0.816311
0.796402
0.768246
0.73372
0.716628
0.698196
0.678738
0.684654
0.668173
0.6522
0.636923
0.658254
0.643144
0.629065
0.616094
0.647567
0.633569
0.620641
0.608865
0.650037
0.636866
0.624509
0.613108
0.663141
0.65026
0.638868
0.627912
0.682681
0.668543
0.656005
0.644882
0.705433
0.691266
0.678448
0.666809
0.731291
0.717162
0.703855
0.691269
0.761231
0.746385
0.7321
0.718353
0.791116
0.775286
0.759916
0.745004
0.815298
0.798666
0.782402
0.76651
0.828305
0.811389
0.794713
0.77831
0.826072
0.809645
0.793303
0.777116
0.806638
0.791598
0.776454
0.761303
0.770684
0.75776
0.744516
0.731057
0.721325
0.710988
0.700141
0.688861
0.66323
0.655673
0.647452
0.638628
0.601643
0.596683
0.590972
0.584554
0.540953
0.538156
0.534591
0.530284
0.483938
0.482802
0.480929
0.478332
0.431843
0.431899
0.431282
0.429995
0.384754
0.385648
0.385945
0.385641
0.342278
0.343761
0.344722
0.345157
0.303978
0.305868
0.30731
0.308298
0.269527
0.271683
0.273461
0.274852
0.238703
0.241011
0.243002
0.244667
0.211334
0.213696
0.215793
0.217619
0.187252
0.18958
0.191691
0.193578
0.166243
0.168473
0.170526
0.172396
0.148083
0.150175
0.152122
0.153917
0.132577
0.134507
0.136319
0.138003
0.119556
0.121325
0.122993
0.124552
0.108911
0.11054
0.112076
0.113511
0.100609
0.102134
0.103564
0.104889
0.0947112
0.0961829
0.0975355
0.0987616
0.0914023
0.0928762
0.0941669
0.0952807
0.0910437
0.0925749
0.0937586
0.0946742
0.0943382
0.0958908
0.096716
0.0971884
1.22395
0.77862
0.63768
0.570463
0.528051
0.494741
0.464872
0.437154
0.410562
0.38352
0.356818
0.336826
0.327929
0.330725
0.335905
0.327082
0.307041
0.332503
0.430983
0.859367
0.705033
0.619634
0.566662
0.529476
0.499801
0.473402
0.44913
0.426748
0.405535
0.38502
0.365972
0.351493
0.341716
0.331578
0.317257
0.31046
0.353421
0.423516
0.716052
0.648689
0.598699
0.562487
0.535438
0.513547
0.493721
0.474725
0.457017
0.440394
0.423682
0.404011
0.383354
0.362438
0.340984
0.322336
0.319668
0.367605
0.437333
0.650349
0.612697
0.582555
0.560153
0.543965
0.531815
0.521284
0.51055
0.498925
0.485895
0.469346
0.446571
0.418686
0.387867
0.357723
0.333288
0.323335
0.358431
0.459925
0.616309
0.591271
0.57232
0.559696
0.552453
0.548943
0.547096
0.544758
0.539946
0.530362
0.512588
0.485445
0.450282
0.411788
0.376225
0.346957
0.321467
0.330165
0.471045
0.599148
0.580233
0.567354
0.560531
0.558881
0.560889
0.564539
0.567337
0.566338
0.5582
0.54039
0.511686
0.473679
0.432434
0.398269
0.373526
0.329366
0.295211
0.417122
0.593674
0.577541
0.567323
0.562814
0.563127
0.566901
0.572291
0.576903
0.577861
0.571996
0.556306
0.5295
0.492785
0.453913
0.435017
0.447452
0.36873
0.271973
0.308002
0.598241
0.582666
0.573024
0.56873
0.568925
0.572686
0.578762
0.58526
0.589676
0.588032
0.575386
0.55089
0.516022
0.480069
0.50004
0.483254
0.340147
0.273784
0.276657
0.612024
0.59536
0.585684
0.581557
0.582173
0.587249
0.596467
0.607694
0.617608
0.618672
0.599686
0.564856
0.514937
0.468545
0.455373
0.411802
0.342627
0.319154
0.3875
0.630015
0.612841
0.599405
0.589961
0.584226
0.582354
0.58389
0.586977
0.58719
0.575993
0.550533
0.514351
0.474523
0.446924
0.447113
0.448942
0.419543
0.391854
0.519435
0.650706
0.629986
0.61187
0.596479
0.583464
0.572259
0.562053
0.551699
0.539333
0.521743
0.497279
0.470789
0.4487
0.44167
0.459604
0.486881
0.479029
0.445491
0.623996
0.673417
0.649676
0.627789
0.607764
0.589086
0.571038
0.552948
0.534221
0.514476
0.493471
0.471792
0.452331
0.439779
0.439506
0.453783
0.471976
0.471887
0.462169
0.67262
0.698462
0.671549
0.64618
0.622177
0.599032
0.576199
0.553241
0.53007
0.50692
0.484388
0.463538
0.446227
0.435164
0.432643
0.437602
0.444067
0.446609
0.462132
0.719924
0.722951
0.692915
0.664266
0.636772
0.609973
0.583507
0.557268
0.531383
0.506215
0.482432
0.46098
0.443063
0.429977
0.422257
0.419361
0.419822
0.426064
0.462914
0.776155
0.742488
0.709667
0.67812
0.647675
0.618012
0.588935
0.560448
0.532718
0.506075
0.481064
0.458408
0.438867
0.423097
0.411494
0.404289
0.40281
0.413432
0.466109
0.832446
0.752922
0.718128
0.684481
0.65192
0.620276
0.589461
0.559523
0.530608
0.502984
0.477067
0.453389
0.43251
0.414947
0.401239
0.392413
0.391198
0.405917
0.4702
0.885355
0.751339
0.71586
0.681322
0.647771
0.615179
0.583552
0.55297
0.523575
0.495598
0.469374
0.445332
0.423949
0.405763
0.391538
0.382774
0.382913
0.40135
0.475116
0.934984
0.736377
0.701862
0.667916
0.634696
0.602317
0.570892
0.540558
0.511485
0.483902
0.458116
0.43451
0.413542
0.3958
0.382194
0.374508
0.376535
0.398377
0.479637
0.979454
0.708309
0.676565
0.644749
0.613209
0.582225
0.552037
0.522867
0.494944
0.468528
0.443926
0.421511
0.401745
0.385251
0.373019
0.366891
0.370792
0.395179
0.481566
1.01076
0.669373
0.641774
0.61334
0.584621
0.556061
0.52803
0.50085
0.474822
0.45025
0.427462
0.406834
0.388827
0.374072
0.363564
0.359128
0.36468
0.39079
0.480067
1.02754
0.62295
0.600156
0.575865
0.550743
0.525354
0.500176
0.475623
0.452064
0.429847
0.409326
0.39088
0.374962
0.362185
0.353507
0.350691
0.35756
0.384615
0.47479
1.02985
0.572711
0.554748
0.534826
0.513639
0.491811
0.469889
0.448348
0.427609
0.408055
0.390055
0.373987
0.360287
0.349532
0.342623
0.341227
0.349027
0.376302
0.465607
1.01824
0.521893
0.508324
0.492556
0.475252
0.457036
0.438478
0.42008
0.402288
0.3855
0.370089
0.356423
0.344909
0.336078
0.330761
0.330514
0.338838
0.365668
0.452546
0.993575
0.472808
0.462964
0.450873
0.437131
0.422325
0.407006
0.39167
0.376761
0.362673
0.349767
0.338388
0.328911
0.321812
0.317842
0.318436
0.326888
0.352676
0.435769
0.957026
0.426735
0.419917
0.410938
0.400315
0.388575
0.376224
0.363727
0.351503
0.339926
0.329331
0.320036
0.31237
0.306754
0.303854
0.304977
0.313185
0.337411
0.415574
0.910007
0.384132
0.379738
0.37334
0.365379
0.356313
0.346591
0.336633
0.326819
0.317492
0.308953
0.301482
0.295365
0.29096
0.288849
0.290205
0.297842
0.320075
0.392373
0.854157
0.345
0.342553
0.338284
0.332567
0.325791
0.318346
0.3106
0.30289
0.295518
0.28875
0.282825
0.277983
0.27452
0.272934
0.274263
0.28106
0.300965
0.366691
0.791313
0.309184
0.308302
0.305785
0.301942
0.297101
0.291592
0.285732
0.279815
0.2741
0.268815
0.26416
0.260328
0.257558
0.256265
0.257354
0.26311
0.280462
0.339141
0.723488
0.276524
0.276887
0.275792
0.273491
0.270256
0.266362
0.262077
0.257651
0.253305
0.249229
0.245584
0.24252
0.240225
0.239036
0.239729
0.244322
0.259009
0.31042
0.652818
0.2469
0.248219
0.248247
0.247182
0.245246
0.242664
0.23966
0.236442
0.233195
0.230072
0.227203
0.224698
0.222699
0.221474
0.221678
0.225069
0.237107
0.281285
0.581547
0.220211
0.222221
0.223092
0.222979
0.222055
0.220503
0.218505
0.216233
0.213837
0.211441
0.209142
0.207021
0.20518
0.203832
0.203524
0.205766
0.215302
0.252559
0.511977
0.196352
0.198811
0.200272
0.200848
0.200672
0.19989
0.198648
0.197084
0.195319
0.19345
0.19155
0.189675
0.187902
0.1864
0.185625
0.186864
0.194184
0.225112
0.446454
0.175207
0.177907
0.179732
0.180763
0.1811
0.180855
0.180144
0.179079
0.177755
0.176247
0.174609
0.172885
0.171134
0.169502
0.168378
0.168858
0.174394
0.199876
0.387308
0.156656
0.159428
0.161431
0.162717
0.163362
0.163453
0.163082
0.162339
0.161299
0.160021
0.158549
0.156921
0.155195
0.153511
0.152226
0.152286
0.15662
0.177834
0.336829
0.140599
0.143316
0.145346
0.146726
0.147511
0.147773
0.147587
0.147025
0.146151
0.145013
0.14365
0.142104
0.14045
0.138845
0.137645
0.137715
0.141583
0.160015
0.297178
0.126966
0.129541
0.131488
0.132835
0.133631
0.133938
0.13382
0.133341
0.132555
0.131506
0.130236
0.1288
0.127299
0.125935
0.125111
0.125695
0.129991
0.147462
0.270396
0.115732
0.118109
0.119893
0.121117
0.121831
0.122096
0.121973
0.12152
0.120786
0.119815
0.118656
0.117381
0.116132
0.115175
0.115018
0.116657
0.12244
0.141242
0.258599
0.106921
0.109058
0.11062
0.111657
0.112231
0.112407
0.112245
0.1118
0.111118
0.110245
0.109236
0.108184
0.10727
0.106843
0.107575
0.110765
0.119262
0.142487
0.264976
0.100599
0.102449
0.103736
0.104544
0.104951
0.105025
0.104825
0.104402
0.1038
0.103062
0.102247
0.10146
0.100913
0.101034
0.102697
0.10772
0.120217
0.152534
0.296775
0.0968723
0.0983523
0.0993094
0.099864
0.100103
0.100091
0.099881
0.099516
0.0990325
0.0984688
0.0978792
0.0973649
0.0971384
0.0976626
0.0999755
0.106533
0.123778
0.172518
0.375704
0.0958638
0.0968403
0.0974127
0.0977091
0.0978035
0.0977452
0.0975708
0.0973095
0.0969867
0.0966288
0.0962752
0.0960012
0.0959728
0.0965793
0.0988016
0.105386
0.125445
0.199026
0.58849
0.0976726
0.0979909
0.0981528
0.09822
0.0982205
0.0981717
0.0980867
0.0979763
0.0978501
0.0977181
0.0975953
0.0975108
0.09753
0.0978171
0.0988413
0.102234
0.115546
0.196753
1.46691
)
;

boundaryField
{
    leftWall
    {
        type            epsilonWallFunction;
        value           nonuniform List<scalar> 
50
(
0.0107083
0.0214837
0.0383417
0.0535974
0.0657011
0.0742527
0.0794961
0.0825213
0.0847833
0.0913279
0.125
0.126611
0.120943
0.12419
0.145262
0.198277
0.300044
0.445781
0.600023
0.569976
0.486952
0.535039
0.536971
0.47199
0.403727
0.344933
0.292127
0.246187
0.208439
0.179296
0.158067
0.143334
0.133416
0.126768
0.122174
0.118813
0.116185
0.114033
0.11224
0.110775
0.109641
0.108867
0.108478
0.108503
0.108954
0.109819
0.111038
0.112494
0.113971
0.115128
)
;
    }
    rightWall
    {
        type            epsilonWallFunction;
        value           nonuniform List<scalar> 
50
(
0.174944
0.166493
0.238195
0.325231
0.405369
0.440199
0.448723
0.444309
0.430983
0.423516
0.437333
0.459925
0.471045
0.417122
0.308002
0.276657
0.3875
0.519435
0.623996
0.67262
0.719924
0.776155
0.832446
0.885355
0.934984
0.979454
1.01076
1.02754
1.02985
1.01824
0.993575
0.957026
0.910007
0.854157
0.791313
0.723488
0.652818
0.581547
0.511977
0.446454
0.387308
0.336829
0.297178
0.270396
0.258599
0.264976
0.296775
0.375704
0.58849
1.46691
)
;
    }
    lowerWall
    {
        type            epsilonWallFunction;
        value           nonuniform List<scalar> 
62
(
0.0107083
0.0420358
0.0730619
0.108655
0.151908
0.202997
0.262774
0.333589
0.418194
0.516097
0.6229
0.731986
0.835283
0.924371
0.991319
1.02924
1.03214
0.994037
0.90814
0.766834
0.562362
0.309608
0.0543277
0.0543277
0.0986541
0.175108
0.267589
0.396355
0.592487
0.936384
1.6549
2.21871
2.26532
2.63083
3.35234
0.314453
0.258076
0.297679
0.385949
0.555851
0.825488
1.26101
2.1401
0.314453
0.793526
1.15596
1.15701
1.15732
1.03138
0.849234
0.776804
0.778838
0.790776
0.702255
0.548617
0.403455
0.264376
0.216578
0.256654
0.360831
0.434071
0.174944
)
;
    }
    atmosphere
    {
        type            inletOutlet;
        inletValue      uniform 0.1;
        value           nonuniform List<scalar> 
46
(
0.115128
0.0605297
0.0507819
0.0474931
0.0462674
0.0460028
0.0463014
0.0469879
0.0479742
0.0492112
0.0506682
0.0523241
0.0541637
0.0561769
0.0583599
0.0607195
0.0632795
0.0660904
0.0692453
0.0729022
0.0773111
0.0827981
0.0894706
0.1
0.1
0.1
0.1
0.1
0.1
0.1
0.1
0.1
0.1
0.1
0.1
0.1
0.1
0.1
0.1
0.1
0.1
0.1
0.1
0.1
0.1
0.1
)
;
    }
    defaultFaces
    {
        type            empty;
    }
}


// ************************************************************************* //
