/*--------------------------------*- C++ -*----------------------------------*\
  =========                 |
  \\      /  F ield         | OpenFOAM: The Open Source CFD Toolbox
   \\    /   O peration     | Website:  https://openfoam.org
    \\  /    A nd           | Version:  13
     \\/     M anipulation  |
\*---------------------------------------------------------------------------*/
FoamFile
{
    format      ascii;
    class       volScalarField;
    location    "1.05";
    object      k;
}
// * * * * * * * * * * * * * * * * * * * * * * * * * * * * * * * * * * * * * //

dimensions      [0 2 -2 0 0 0 0];

internalField   nonuniform List<scalar> 
2268
(
0.00185588
0.00455418
0.00662266
0.00865294
0.0108406
0.013172
0.0156666
0.0183875
0.0213819
0.024607
0.027882
0.0310105
0.0338028
0.0360922
0.0377379
0.0386227
0.038635
0.0376343
0.0354076
0.0316199
0.0257156
0.0172743
0.00545957
0.00482309
0.0108725
0.0149468
0.0190826
0.0236172
0.0285855
0.034054
0.0401258
0.0468095
0.0539398
0.0611635
0.0680489
0.0742005
0.0792774
0.0829872
0.0850695
0.0852604
0.083235
0.0785331
0.0704728
0.0581022
0.0402557
0.013329
0.00708184
0.014938
0.020029
0.0251224
0.0307198
0.0369677
0.0440146
0.0519632
0.0607435
0.0700414
0.0793702
0.0881722
0.0959675
0.102361
0.107022
0.109647
0.109926
0.107465
0.101702
0.091781
0.0764399
0.0540506
0.0194713
0.0088432
0.0180031
0.023802
0.029596
0.0360192
0.0433142
0.0516922
0.0612368
0.0717757
0.0828438
0.093817
0.104051
0.11302
0.120319
0.12562
0.128624
0.129012
0.126375
0.120111
0.109246
0.0921883
0.0664474
0.0257748
0.0101093
0.0204237
0.0268545
0.0332953
0.0405207
0.0488559
0.0585583
0.0696761
0.0819133
0.0946382
0.107081
0.118535
0.128454
0.136457
0.142243
0.145542
0.146062
0.143414
0.137006
0.125812
0.107931
0.0797687
0.0333913
0.0109419
0.0223456
0.0294086
0.0365076
0.044593
0.0540492
0.0651588
0.0779129
0.0918653
0.106204
0.120021
0.132557
0.143275
0.151839
0.158
0.161537
0.162209
0.159675
0.153411
0.142424
0.124646
0.095482
0.0434573
0.0114684
0.0237934
0.0315624
0.0393982
0.0484295
0.0591574
0.0718067
0.0862691
0.101954
0.117871
0.132978
0.146476
0.157862
0.166866
0.173311
0.17704
0.177878
0.175562
0.169677
0.159355
0.142575
0.114389
0.0585844
0.011781
0.0248201
0.03341
0.0421094
0.0522543
0.0643881
0.0787378
0.0949684
0.112352
0.129723
0.145958
0.160257
0.172199
0.181577
0.188275
0.192199
0.193242
0.191225
0.185855
0.17644
0.161157
0.135466
0.085348
0.0175179
0.0321511
0.0410665
0.0410499
0.0408289
0.0374259
0.0329719
0.0315944
0.0319426
0.0324684
0.0298569
0.0256021
0.0211086
0.0158983
0.0140258
0.0159053
0.0198907
0.0220513
0.0115437
0.0271854
0.0655091
0.085336
0.0902926
0.0899199
0.0824147
0.0719297
0.0679732
0.0682602
0.0661385
0.0604897
0.0544894
0.0490889
0.040817
0.0339964
0.0362653
0.0437473
0.0455057
0.0201316
0.0298694
0.0808671
0.106981
0.11466
0.114577
0.107059
0.095766
0.0885652
0.0864677
0.0835344
0.0769823
0.0708323
0.0659392
0.0593121
0.0509504
0.0527098
0.0594425
0.0557923
0.0259632
0.0350365
0.0941614
0.124489
0.132412
0.131703
0.124422
0.11342
0.105032
0.100988
0.0971462
0.0897926
0.0837585
0.0797185
0.0758526
0.0722289
0.0715486
0.0718538
0.0625818
0.0321109
0.0442577
0.110964
0.140373
0.146875
0.145071
0.137752
0.127444
0.118712
0.11335
0.108629
0.10072
0.0950178
0.0917749
0.0900108
0.0905456
0.0896856
0.0820892
0.0684647
0.0371527
0.0573371
0.130301
0.154654
0.159274
0.156382
0.14882
0.138977
0.130148
0.123745
0.118146
0.110313
0.1051
0.10242
0.101686
0.10282
0.101452
0.0896707
0.0732533
0.0391979
0.0761314
0.14909
0.167437
0.170165
0.166319
0.15856
0.148994
0.140012
0.13264
0.126072
0.11891
0.114213
0.111875
0.111489
0.111918
0.108257
0.0945279
0.0769824
0.0397254
0.108134
0.16647
0.179037
0.17984
0.17521
0.167345
0.158002
0.148933
0.140906
0.13372
0.127048
0.122763
0.120334
0.119514
0.118583
0.112517
0.097682
0.0804123
0.0393157
0.0120456
0.0261
0.0361138
0.0463873
0.0585971
0.0732124
0.090311
0.109486
0.129494
0.148877
0.166507
0.181757
0.194366
0.204208
0.211227
0.215409
0.216736
0.21518
0.210627
0.20249
0.189602
0.168879
0.135371
0.0128425
0.0281671
0.0412292
0.0542655
0.0695767
0.0884409
0.110269
0.133738
0.156923
0.178328
0.197074
0.212833
0.225548
0.235285
0.242075
0.246013
0.24714
0.245597
0.241841
0.235966
0.226668
0.214854
0.203744
0.0160579
0.0331379
0.046803
0.0628203
0.0830788
0.107688
0.134919
0.162347
0.187844
0.210192
0.228971
0.244165
0.256001
0.264719
0.270362
0.273077
0.273121
0.27045
0.26564
0.259808
0.252575
0.244429
0.237633
0.0164215
0.0358009
0.0524046
0.0734178
0.100335
0.131618
0.16389
0.194078
0.220432
0.24236
0.259999
0.273619
0.283615
0.29037
0.293853
0.293758
0.291116
0.286934
0.281706
0.275928
0.269662
0.263142
0.257418
0.0159871
0.0384108
0.0599918
0.0880474
0.122839
0.160392
0.196082
0.227138
0.252708
0.272923
0.28836
0.299439
0.306318
0.309351
0.309371
0.307064
0.303154
0.298444
0.293281
0.287774
0.281985
0.276024
0.270334
0.0163849
0.0432008
0.0717562
0.1085
0.150965
0.192907
0.229636
0.259506
0.282724
0.299972
0.311753
0.318718
0.321628
0.321757
0.319915
0.316689
0.312469
0.307677
0.30255
0.297164
0.291545
0.285688
0.279788
0.0184029
0.0520759
0.0892856
0.134889
0.183195
0.22687
0.262181
0.288924
0.308188
0.320965
0.328234
0.331704
0.332446
0.331235
0.3286
0.324981
0.320672
0.315893
0.310785
0.305425
0.299833
0.293945
0.287883
0.0229576
0.0658743
0.112073
0.165007
0.21664
0.259497
0.291214
0.313113
0.327282
0.335681
0.340087
0.341733
0.341369
0.339516
0.336571
0.332854
0.328575
0.323866
0.318803
0.313458
0.307871
0.301989
0.295874
0.0304204
0.0832236
0.137339
0.195497
0.248412
0.288293
0.31471
0.331086
0.341035
0.346769
0.349554
0.3502
0.349301
0.347236
0.344283
0.340651
0.336496
0.331925
0.326978
0.321686
0.316206
0.31049
0.304314
0.0393816
0.101146
0.162723
0.224818
0.277306
0.31131
0.331529
0.3439
0.351386
0.355554
0.357396
0.357565
0.356506
0.354513
0.351757
0.348337
0.344396
0.340086
0.335376
0.33012
0.324808
0.319449
0.313114
0.0472201
0.116516
0.188343
0.254047
0.303644
0.32622
0.342294
0.352763
0.358967
0.362292
0.363687
0.363743
0.36281
0.361146
0.358831
0.355696
0.352001
0.347973
0.343358
0.338027
0.332505
0.326864
0.320563
0.0479044
0.123415
0.212486
0.277919
0.314358
0.332265
0.348224
0.358112
0.363621
0.366641
0.368061
0.368361
0.367774
0.366539
0.364587
0.361721
0.358095
0.354076
0.349521
0.344466
0.339118
0.333485
0.327446
0.0420168
0.111343
0.200595
0.260159
0.297789
0.329518
0.351915
0.360845
0.36499
0.368027
0.369762
0.370425
0.370213
0.36928
0.367647
0.365335
0.362418
0.359004
0.35503
0.350523
0.345561
0.340157
0.334369
0.0419963
0.105426
0.173023
0.228543
0.272475
0.310653
0.33977
0.353348
0.360608
0.365788
0.368735
0.370052
0.370491
0.37023
0.369274
0.367703
0.36561
0.362945
0.359644
0.355686
0.3511
0.345949
0.340334
0.0434079
0.0987481
0.151467
0.201117
0.245062
0.282972
0.312719
0.333008
0.347023
0.356312
0.361772
0.364991
0.366939
0.367919
0.368028
0.36738
0.366094
0.364189
0.361596
0.358259
0.354156
0.349349
0.343965
0.039737
0.0893109
0.132967
0.176277
0.21703
0.253719
0.284203
0.307625
0.325363
0.338133
0.346812
0.352726
0.356869
0.359684
0.361327
0.361966
0.361776
0.36082
0.35909
0.356557
0.353188
0.348984
0.344063
0.0356312
0.0793691
0.116587
0.154009
0.190333
0.223766
0.253328
0.277764
0.297343
0.31258
0.324021
0.33261
0.339151
0.344077
0.347606
0.349926
0.351224
0.351593
0.351059
0.349617
0.347254
0.343968
0.339837
0.0319554
0.0700947
0.102018
0.134226
0.166052
0.195799
0.22272
0.246074
0.265813
0.282193
0.295404
0.306043
0.314663
0.321612
0.327083
0.331242
0.33425
0.336212
0.337181
0.337153
0.336113
0.334053
0.331038
0.028568
0.0616575
0.0891361
0.116741
0.14437
0.17054
0.1945
0.215806
0.234397
0.250456
0.26418
0.275875
0.285858
0.294348
0.301475
0.307337
0.312034
0.315649
0.318224
0.319762
0.320245
0.319655
0.318047
0.0254544
0.0542201
0.0779186
0.101475
0.125276
0.14816
0.169322
0.188392
0.20534
0.220349
0.233636
0.245427
0.255923
0.265253
0.273479
0.280634
0.286747
0.291839
0.29592
0.298978
0.300988
0.301932
0.301844
0.022724
0.047929
0.068458
0.0885057
0.108844
0.128715
0.147352
0.164352
0.179653
0.193411
0.20585
0.217185
0.227585
0.237146
0.2459
0.253836
0.260927
0.267141
0.272443
0.276792
0.280149
0.282487
0.283818
0.0204709
0.042867
0.0608175
0.0779195
0.0952045
0.112321
0.128663
0.143817
0.157652
0.170254
0.181808
0.192514
0.202532
0.211956
0.220814
0.229083
0.23671
0.243628
0.24977
0.255067
0.259462
0.262915
0.265419
0.0187253
0.0390057
0.0549313
0.0696647
0.0843735
0.0990441
0.113298
0.126784
0.139325
0.150928
0.161707
0.171816
0.181395
0.190534
0.199265
0.207568
0.215388
0.222647
0.229261
0.235147
0.240234
0.24447
0.247832
0.0174494
0.0362117
0.0505919
0.0634962
0.0761401
0.0887426
0.101147
0.113116
0.124481
0.135192
0.145295
0.154882
0.164053
0.172879
0.181388
0.189568
0.197366
0.204709
0.211512
0.217688
0.223162
0.227873
0.231789
0.0165569
0.034278
0.0474965
0.059026
0.0700835
0.0810254
0.0918636
0.102483
0.112763
0.12264
0.132109
0.14121
0.149995
0.158507
0.166762
0.174743
0.182404
0.189677
0.196483
0.20274
0.208372
0.213321
0.217547
0.0159445
0.0329764
0.0453191
0.0558232
0.0656909
0.0753487
0.084917
0.0943799
0.103678
0.11276
0.121604
0.130212
0.138602
0.146784
0.154756
0.162495
0.169953
0.177068
0.183766
0.189971
0.195613
0.200635
0.204997
0.0155182
0.0320998
0.0437686
0.0534994
0.0624776
0.0711598
0.0797275
0.0882322
0.0966669
0.105007
0.113232
0.121329
0.129291
0.137109
0.144762
0.152218
0.159426
0.166325
0.172845
0.178917
0.184473
0.189461
0.193842
0.0152077
0.0314882
0.0426207
0.0517523
0.0600552
0.0679944
0.0757812
0.0835071
0.0912028
0.0988694
0.106497
0.114072
0.121577
0.128992
0.136285
0.143415
0.150329
0.156965
0.163257
0.169137
0.174544
0.179426
0.183746
0.0149672
0.031034
0.0417227
0.0503726
0.0581476
0.0655099
0.0726823
0.0797774
0.0868488
0.0939174
0.100986
0.108045
0.115079
0.122061
0.128957
0.135721
0.142299
0.14863
0.154649
0.160292
0.165498
0.17022
0.17442
0.0147719
0.0306747
0.0409833
0.049231
0.0565772
0.0634773
0.0701557
0.0767337
0.0832774
0.0898204
0.0963757
0.102941
0.109504
0.11604
0.122514
0.128881
0.135089
0.141077
0.146784
0.152147
0.15711
0.161625
0.165654
0.0146096
0.03038
0.0403558
0.0482564
0.0552406
0.0617562
0.0680245
0.0741686
0.0802605
0.0863408
0.0924294
0.0985306
0.104636
0.110725
0.116765
0.122717
0.128529
0.134146
0.139508
0.144557
0.149238
0.153504
0.157319
0.0144768
0.0301399
0.0398222
0.0474168
0.054085
0.0602683
0.0661835
0.0719527
0.0776492
0.0833171
0.0889805
0.0946482
0.100316
0.105967
0.111576
0.117104
0.122507
0.127733
0.132727
0.137434
0.141801
0.145785
0.149349
0.0143734
0.0299551
0.0393804
0.0467026
0.0530884
0.0589751
0.0645758
0.0700105
0.0753521
0.080646
0.0859185
0.0911813
0.0964337
0.101664
0.106849
0.111956
0.116947
0.121773
0.126386
0.130732
0.134764
0.13844
0.141726
0.0143014
0.0298312
0.0390352
0.0461151
0.0522453
0.0578613
0.0631739
0.0683016
0.0733168
0.0782651
0.0831739
0.0880569
0.092916
0.0977425
0.102518
0.107215
0.111799
0.116228
0.120456
0.124437
0.128124
0.131477
0.134466
0.0142633
0.0297743
0.0387926
0.0456587
0.0515565
0.0569221
0.0619661
0.0668065
0.0715158
0.0761398
0.0807068
0.0852316
0.0897185
0.0941614
0.0985458
0.102849
0.10704
0.111082
0.114935
0.118555
0.1219
0.124931
0.127621
0.0142613
0.0297884
0.0386559
0.0453354
0.0510221
0.0561552
0.0609467
0.0655158
0.0699358
0.0742534
0.0784975
0.0826845
0.0868201
0.090901
0.0949157
0.0988455
0.102664
0.106341
0.109838
0.113117
0.116135
0.118859
0.121263
0.0142962
0.0298739
0.0386226
0.0451409
0.050637
0.0555549
0.0601098
0.0644234
0.0685707
0.0725998
0.0765408
0.0804113
0.0842188
0.0879622
0.0916332
0.0952167
0.0986915
0.102031
0.105202
0.108169
0.110893
0.113337
0.115479
0.0143664
0.0300245
0.0386823
0.0450623
0.0503878
0.0551091
0.0594457
0.0635227
0.0674174
0.0711797
0.0748414
0.0784214
0.0819288
0.0853648
0.0887239
0.0919946
0.0951602
0.0981989
0.101083
0.10378
0.106251
0.108457
0.110373
0.0144665
0.0302255
0.0388144
0.0450767
0.0502523
0.0547986
0.0589401
0.0628054
0.0664745
0.0699993
0.0734131
0.0767365
0.07998
0.0831468
0.0862338
0.089233
0.0921319
0.0949138
0.0975571
0.100033
0.102304
0.104325
0.106062
0.0145856
0.0304499
0.0389868
0.0451514
0.0502004
0.0545988
0.0585759
0.0622634
0.0657438
0.0690708
0.0722791
0.0753905
0.0784172
0.0813636
0.0842288
0.0870072
0.0896901
0.0922656
0.0947182
0.0970262
0.0991552
0.101056
0.102676
0.0147054
0.0306563
0.0391553
0.0452442
0.0501956
0.0544816
0.0583352
0.0618903
0.0652312
0.0684128
0.071471
0.0744285
0.0772983
0.0800861
0.0827919
0.0854118
0.0879393
0.090366
0.0926818
0.0948731
0.0969159
0.0987628
0.100346
0.0147971
0.0307943
0.0392654
0.0453062
0.0501993
0.0544204
0.0582042
0.0616859
0.0649504
0.0680532
0.0710309
0.0739066
0.0766936
0.079398
0.0820203
0.084557
0.087002
0.089348
0.0915869
0.0937096
0.0957022
0.0975342
0.0991254
0.104825
0.106228
0.117325
0.13771
0.199144
0.199307
0.201563
0.205098
0.234659
0.233506
0.232878
0.232539
0.253828
0.251798
0.249969
0.248277
0.266141
0.2636
0.261186
0.258886
0.27521
0.272392
0.26968
0.267075
0.283085
0.280107
0.277208
0.274405
0.290981
0.287943
0.284924
0.281957
0.299277
0.29619
0.293308
0.290364
0.30752
0.304123
0.300951
0.29797
0.315232
0.311915
0.308771
0.305771
0.322485
0.319353
0.316273
0.313231
0.329599
0.326536
0.323467
0.320394
0.335667
0.332648
0.329604
0.326542
0.339472
0.336548
0.333584
0.330589
0.339904
0.337171
0.334379
0.331542
0.336229
0.333816
0.331325
0.328769
0.328215
0.326272
0.324221
0.32208
0.316206
0.314853
0.31336
0.311742
0.301084
0.300395
0.299536
0.298517
0.284098
0.284079
0.283866
0.283469
0.266584
0.267165
0.267543
0.267723
0.249669
0.25073
0.25159
0.252251
0.23408
0.235485
0.236699
0.237721
0.220115
0.221736
0.22318
0.224443
0.20771
0.209447
0.211021
0.212426
0.196608
0.19839
0.20002
0.201492
0.1865
0.188276
0.189909
0.191395
0.177113
0.178846
0.180445
0.181905
0.168247
0.169909
0.171445
0.172849
0.159777
0.161346
0.162796
0.164122
0.151647
0.153104
0.15445
0.155679
0.143843
0.145175
0.146403
0.147522
0.13639
0.13759
0.138693
0.139694
0.129346
0.130412
0.131388
0.13227
0.122793
0.123729
0.124582
0.125346
0.116827
0.117644
0.118382
0.119037
0.111561
0.112271
0.112907
0.113464
0.107114
0.107732
0.108276
0.108742
0.103613
0.104146
0.104599
0.104974
0.10119
0.101627
0.101969
0.102227
0.0999464
0.100232
0.100397
0.100492
0.171076
0.191422
0.195777
0.193598
0.187891
0.180028
0.171055
0.162058
0.153654
0.146099
0.139654
0.134824
0.131196
0.128593
0.124831
0.1159
0.100685
0.0844956
0.0382299
0.210328
0.214401
0.213261
0.208879
0.202534
0.194951
0.186679
0.178394
0.170649
0.163719
0.157549
0.151389
0.14519
0.138693
0.130442
0.118761
0.103868
0.0869528
0.0376142
0.232119
0.23061
0.227178
0.222278
0.216442
0.209947
0.202923
0.195685
0.188724
0.182202
0.175724
0.167953
0.15895
0.148627
0.136566
0.122601
0.106883
0.088392
0.0382543
0.2459
0.24234
0.238249
0.23376
0.229051
0.224153
0.218936
0.213299
0.207294
0.200857
0.193236
0.183439
0.171473
0.157654
0.142472
0.12619
0.108348
0.0877239
0.0393367
0.255644
0.251301
0.247172
0.243321
0.239746
0.236305
0.232718
0.228625
0.223638
0.217169
0.208205
0.196277
0.181475
0.164743
0.147133
0.128596
0.106774
0.0822935
0.0396755
0.263398
0.2587
0.254618
0.251188
0.24831
0.245738
0.243085
0.239795
0.235141
0.228239
0.218371
0.205092
0.188544
0.169931
0.151034
0.131379
0.103721
0.0711217
0.0364754
0.27044
0.265469
0.261292
0.2579
0.255134
0.252711
0.250205
0.247013
0.242363
0.235366
0.225179
0.211381
0.194004
0.174461
0.156534
0.140716
0.10248
0.0581182
0.0298073
0.277697
0.272382
0.267981
0.264392
0.261428
0.258872
0.256395
0.253445
0.249249
0.242652
0.232358
0.218129
0.19994
0.179261
0.165481
0.138582
0.0885641
0.0527552
0.029059
0.285717
0.27997
0.275468
0.271882
0.269014
0.266765
0.264985
0.262988
0.259714
0.253106
0.240448
0.222802
0.199923
0.175356
0.154579
0.12519
0.0907374
0.0624823
0.0366154
0.293627
0.287877
0.28255
0.277742
0.273362
0.269431
0.265781
0.261801
0.256153
0.24651
0.232118
0.213782
0.192789
0.172407
0.156054
0.138474
0.114059
0.0849371
0.0441024
0.301302
0.294951
0.288741
0.282712
0.276757
0.27071
0.264318
0.257177
0.248623
0.237616
0.223589
0.207611
0.190935
0.17585
0.164503
0.153109
0.132779
0.100236
0.0494906
0.30862
0.301957
0.295254
0.288506
0.281549
0.274155
0.266092
0.257114
0.246991
0.235488
0.222577
0.208805
0.195098
0.182553
0.171483
0.158938
0.139007
0.106736
0.0517358
0.315672
0.308793
0.301793
0.294608
0.287062
0.278954
0.270109
0.260429
0.249886
0.23851
0.226417
0.213893
0.201411
0.189295
0.176874
0.161903
0.140974
0.109334
0.0539473
0.321758
0.314769
0.307602
0.300167
0.292297
0.283838
0.274702
0.264863
0.254352
0.243245
0.231653
0.219706
0.207508
0.19487
0.181101
0.164658
0.143148
0.112071
0.056595
0.325829
0.318853
0.311641
0.304115
0.296143
0.287618
0.27849
0.268753
0.258436
0.247599
0.236307
0.224579
0.212331
0.199279
0.18479
0.167765
0.146252
0.11565
0.0592069
0.326944
0.320159
0.313079
0.30565
0.297783
0.289404
0.280479
0.270999
0.260979
0.250448
0.239425
0.227878
0.215669
0.202502
0.18786
0.170839
0.149624
0.119369
0.0616287
0.324519
0.318169
0.311454
0.304346
0.296795
0.288753
0.280196
0.27111
0.261499
0.251371
0.240717
0.229482
0.21752
0.204563
0.190159
0.173473
0.15269
0.122663
0.0638776
0.318396
0.312767
0.306681
0.300138
0.293121
0.285607
0.277582
0.269037
0.259971
0.250381
0.240247
0.229505
0.218016
0.205518
0.191601
0.175427
0.155134
0.125449
0.0658444
0.308843
0.30422
0.299018
0.293271
0.286993
0.280188
0.272856
0.264998
0.256616
0.247705
0.238241
0.228158
0.217324
0.205493
0.19223
0.176674
0.156908
0.127514
0.0672081
0.296562
0.293142
0.289012
0.284238
0.278862
0.272912
0.266405
0.259357
0.251775
0.243657
0.234979
0.225675
0.21561
0.204534
0.191989
0.177078
0.157829
0.128724
0.0679312
0.282512
0.280355
0.27738
0.27367
0.269288
0.264279
0.258678
0.252513
0.245799
0.238539
0.230707
0.222235
0.212981
0.202681
0.190852
0.176564
0.15781
0.129024
0.0680238
0.267708
0.266741
0.264888
0.262235
0.258851
0.254795
0.250115
0.244846
0.239012
0.232615
0.22563
0.217981
0.209518
0.19996
0.188803
0.175093
0.156809
0.128392
0.0675097
0.253034
0.253086
0.252226
0.250531
0.24807
0.244908
0.241096
0.236676
0.231673
0.226091
0.2199
0.213017
0.205278
0.196391
0.185836
0.172645
0.154807
0.126829
0.0664187
0.239113
0.23996
0.239904
0.239007
0.237336
0.23495
0.231902
0.228234
0.223971
0.219112
0.213622
0.20741
0.200302
0.191993
0.181953
0.16922
0.151812
0.124352
0.064788
0.226254
0.227667
0.228208
0.227928
0.226883
0.225126
0.222707
0.219665
0.21602
0.211767
0.206864
0.20121
0.194622
0.186788
0.177177
0.164842
0.147855
0.121001
0.0626604
0.214492
0.216272
0.217223
0.217383
0.216799
0.215519
0.213587
0.211034
0.207876
0.204103
0.199662
0.194448
0.18827
0.180812
0.171549
0.159559
0.14299
0.116834
0.0600851
0.203687
0.205678
0.206883
0.207333
0.207067
0.206125
0.204543
0.20235
0.199554
0.196138
0.192044
0.187159
0.181288
0.174117
0.165131
0.153447
0.137301
0.111932
0.0571186
0.193626
0.195714
0.197056
0.197677
0.197609
0.196887
0.195541
0.193594
0.191049
0.187883
0.184033
0.179382
0.173733
0.166775
0.158014
0.146607
0.130896
0.106397
0.0538265
0.184106
0.186206
0.187597
0.188297
0.188335
0.18774
0.186537
0.184744
0.182359
0.179356
0.175668
0.171174
0.165681
0.158885
0.150312
0.13917
0.123912
0.100356
0.0502836
0.174971
0.17702
0.178391
0.179103
0.179176
0.178636
0.177504
0.175793
0.1735
0.170593
0.167005
0.162616
0.157235
0.150569
0.14217
0.131296
0.116515
0.0939594
0.0465773
0.166126
0.168072
0.169374
0.170042
0.170097
0.169558
0.168443
0.166764
0.164513
0.161659
0.158133
0.153817
0.148528
0.141985
0.133765
0.123177
0.108905
0.0873906
0.0428093
0.157534
0.159337
0.160527
0.161112
0.161107
0.16053
0.159397
0.157715
0.155478
0.152652
0.149171
0.144923
0.139729
0.133324
0.12531
0.115044
0.101315
0.0808645
0.0391007
0.149206
0.150835
0.151882
0.152353
0.152261
0.15162
0.150446
0.148746
0.146511
0.143711
0.140282
0.136116
0.131045
0.124818
0.117059
0.107169
0.0940255
0.0746374
0.0355944
0.141194
0.142628
0.143511
0.143849
0.143652
0.142936
0.141714
0.139995
0.137772
0.135015
0.131666
0.127624
0.122728
0.116743
0.109312
0.0998685
0.0873577
0.0690058
0.0324599
0.13358
0.134809
0.135519
0.135715
0.13541
0.134619
0.133359
0.131638
0.129454
0.12678
0.123562
0.119706
0.115063
0.109409
0.102404
0.0934971
0.0816735
0.0643057
0.0298897
0.126473
0.127497
0.128034
0.128092
0.127687
0.126838
0.125564
0.123878
0.121779
0.119246
0.11623
0.112646
0.108355
0.103144
0.0966826
0.0884264
0.0773571
0.0608969
0.0280932
0.119992
0.120821
0.121196
0.121131
0.120648
0.119772
0.118525
0.116924
0.114973
0.112654
0.109927
0.106714
0.102888
0.0982483
0.0924717
0.0850055
0.0747856
0.0591546
0.0272908
0.11426
0.114909
0.115139
0.114977
0.114451
0.113592
0.112427
0.110975
0.109242
0.107219
0.104871
0.102131
0.0988847
0.0949487
0.090012
0.0835121
0.0743029
0.0594801
0.0277478
0.109391
0.109871
0.109979
0.109753
0.10923
0.108444
0.107423
0.106189
0.104749
0.103099
0.10121
0.0990299
0.096463
0.0933507
0.0894132
0.0841047
0.0762028
0.0623836
0.0299225
0.105471
0.105787
0.105797
0.105551
0.105086
0.104436
0.103627
0.102677
0.101594
0.100378
0.0990081
0.0974464
0.0956236
0.0934213
0.0906228
0.0867708
0.0806941
0.0686479
0.035002
0.102541
0.102694
0.102642
0.10243
0.102088
0.101642
0.101107
0.100499
0.0998229
0.0990789
0.0982568
0.0973344
0.0962728
0.0950065
0.0934168
0.0912423
0.0877019
0.0794608
0.0472247
0.10058
0.100592
0.100538
0.100434
0.10029
0.100114
0.0999132
0.0996915
0.0994521
0.0991955
0.0989191
0.0986169
0.0982787
0.09789
0.0974313
0.0968791
0.096194
0.0950874
0.0873171
)
;

boundaryField
{
    leftWall
    {
        type            kqRWallFunction;
        value           nonuniform List<scalar> 
50
(
0.00185588
0.00482309
0.00708184
0.0088432
0.0101093
0.0109419
0.0114684
0.011781
0.0120456
0.0128425
0.0160579
0.0164215
0.0159871
0.0163849
0.0184029
0.0229576
0.0304204
0.0393816
0.0472201
0.0479044
0.0420168
0.0419963
0.0434079
0.039737
0.0356312
0.0319554
0.028568
0.0254544
0.022724
0.0204709
0.0187253
0.0174494
0.0165569
0.0159445
0.0155182
0.0152077
0.0149672
0.0147719
0.0146096
0.0144768
0.0143734
0.0143014
0.0142633
0.0142613
0.0142962
0.0143664
0.0144665
0.0145856
0.0147054
0.0147971
)
;
    }
    rightWall
    {
        type            kqRWallFunction;
        value           nonuniform List<scalar> 
50
(
0.0115437
0.0201316
0.0259632
0.0321109
0.0371527
0.0391979
0.0397254
0.0393157
0.0382299
0.0376142
0.0382543
0.0393367
0.0396755
0.0364754
0.0298073
0.029059
0.0366154
0.0441024
0.0494906
0.0517358
0.0539473
0.056595
0.0592069
0.0616287
0.0638776
0.0658444
0.0672081
0.0679312
0.0680238
0.0675097
0.0664187
0.064788
0.0626604
0.0600851
0.0571186
0.0538265
0.0502836
0.0465773
0.0428093
0.0391007
0.0355944
0.0324599
0.0298897
0.0280932
0.0272908
0.0277478
0.0299225
0.035002
0.0472247
0.0873171
)
;
    }
    lowerWall
    {
        type            kqRWallFunction;
        value           nonuniform List<scalar> 
62
(
0.00185588
0.00455418
0.00662266
0.00865294
0.0108406
0.013172
0.0156666
0.0183875
0.0213819
0.024607
0.027882
0.0310105
0.0338028
0.0360922
0.0377379
0.0386227
0.038635
0.0376343
0.0354076
0.0316199
0.0257156
0.0172743
0.00545957
0.00545957
0.013329
0.0194713
0.0257748
0.0333913
0.0434573
0.0585844
0.085348
0.104825
0.106228
0.117325
0.13771
0.0175179
0.0271854
0.0298694
0.0350365
0.0442577
0.0573371
0.0761314
0.108134
0.0175179
0.0321511
0.0410665
0.0410499
0.0408289
0.0374259
0.0329719
0.0315944
0.0319426
0.0324684
0.0298569
0.0256021
0.0211086
0.0158983
0.0140258
0.0159053
0.0198907
0.0220513
0.0115437
)
;
    }
    atmosphere
    {
        type            inletOutlet;
        inletValue      uniform 0.1;
        value           nonuniform List<scalar> 
46
(
0.0147971
0.0307943
0.0392654
0.0453062
0.0501993
0.0544204
0.0582042
0.0616859
0.0649504
0.0680532
0.0710309
0.0739066
0.0766936
0.079398
0.0820203
0.084557
0.087002
0.089348
0.0915869
0.0937096
0.0957022
0.0975342
0.0991254
0.1
0.1
0.1
0.1
0.1
0.1
0.1
0.1
0.1
0.1
0.1
0.1
0.1
0.1
0.1
0.1
0.1
0.1
0.1
0.1
0.1
0.1
0.1
)
;
    }
    defaultFaces
    {
        type            empty;
    }
}


// ************************************************************************* //
