/*--------------------------------*- C++ -*----------------------------------*\
  =========                 |
  \\      /  F ield         | OpenFOAM: The Open Source CFD Toolbox
   \\    /   O peration     | Website:  https://openfoam.org
    \\  /    A nd           | Version:  13
     \\/     M anipulation  |
\*---------------------------------------------------------------------------*/
FoamFile
{
    format      ascii;
    class       volScalarField;
    location    "1.05";
    object      nut;
}
// * * * * * * * * * * * * * * * * * * * * * * * * * * * * * * * * * * * * * //

dimensions      [0 2 -1 0 0 0 0];

internalField   nonuniform List<scalar> 
2268
(
2.89483e-05
4.44061e-05
5.40276e-05
6.20184e-05
6.96253e-05
7.6923e-05
8.40636e-05
9.1217e-05
9.8391e-05
0.000105592
0.000112324
0.000118238
0.000123116
0.000126831
0.000129296
0.000130439
0.000130157
0.000128235
0.000124246
0.000117344
0.000105832
8.67423e-05
4.93785e-05
9.74506e-05
0.000307272
0.000413223
0.000517755
0.000618723
0.000712702
0.00079938
0.000881847
0.000961647
0.00103806
0.00110789
0.00116695
0.0012131
0.00124539
0.00126324
0.00126586
0.00125169
0.00121751
0.00115717
0.00105966
0.000907049
0.000661813
0.000162077
0.000117724
0.000552307
0.000800388
0.00102259
0.00122521
0.00140501
0.00156704
0.00172086
0.00187155
0.00201641
0.00214867
0.00225993
0.0023451
0.00240133
0.00242661
0.00241853
0.00237296
0.00228214
0.00213242
0.00190136
0.00155521
0.00103954
0.000194861
0.000131316
0.000745685
0.00113899
0.00146425
0.00174427
0.00198277
0.00219458
0.00239753
0.0025998
0.00279705
0.00297858
0.00313268
0.00325074
0.00332733
0.00335823
0.00333872
0.00326161
0.00311472
0.00287813
0.00252148
0.00200217
0.00126144
0.000223442
0.000139994
0.0008928
0.00142289
0.00183588
0.00217201
0.00244797
0.00269175
0.00292994
0.00317253
0.0034128
0.0036357
0.0038265
0.00397342
0.00406852
0.00410534
0.00407683
0.00397293
0.0037776
0.00346618
0.00300308
0.00234001
0.00141757
0.000253178
0.000145117
0.00100147
0.00165336
0.00214151
0.002519
0.0028191
0.00308562
0.00335312
0.00363152
0.00391042
0.00417056
0.00439411
0.00456695
0.00467915
0.00472249
0.004688
0.00456329
0.00432928
0.00395796
0.00341056
0.00263382
0.00156482
0.000286873
0.000148902
0.00107186
0.00183461
0.00238921
0.00279753
0.00311545
0.00340236
0.00369877
0.00401241
0.00432825
0.00462314
0.00487652
0.00507281
0.00520085
0.00525124
0.00521373
0.00507434
0.00481191
0.00439641
0.00378794
0.00292729
0.00173726
0.000329877
0.00015137
0.00111294
0.00197746
0.00258941
0.00302116
0.00335423
0.00366378
0.00399193
0.00434207
0.00469389
0.00502131
0.00530187
0.00551946
0.00566229
0.00572034
0.0056827
0.0055347
0.00525441
0.00481145
0.00416725
0.00325363
0.00194574
0.000396147
8.78315e-05
0.000117239
0.000131304
0.000131078
0.000129636
0.000122227
0.000115214
0.000115652
0.000117906
0.000119981
0.000114245
0.000107528
9.93951e-05
8.60443e-05
8.17485e-05
8.87113e-05
9.86819e-05
0.000100821
6.8554e-05
0.000257731
0.000822884
0.00107279
0.00113739
0.0011209
0.000977528
0.000804145
0.000748983
0.000823887
0.000933226
0.000934568
0.000925035
0.00089626
0.000757134
0.000577648
0.000614822
0.00072097
0.000695395
0.000219079
0.00026974
0.00132187
0.00190853
0.00209312
0.00207021
0.00187095
0.00160585
0.00147088
0.00153196
0.00166122
0.00167396
0.00166335
0.00161394
0.00144285
0.00117081
0.00115678
0.00123061
0.00106109
0.000254698
0.000286256
0.00163321
0.00256086
0.00286761
0.00285942
0.00265258
0.00236435
0.00218388
0.00218404
0.00226593
0.00226848
0.00226331
0.00221209
0.00205507
0.00183726
0.00173171
0.00165204
0.00131174
0.000285335
0.000317147
0.00193033
0.00310557
0.00351643
0.00353927
0.00334226
0.00305713
0.0028472
0.00277889
0.00279924
0.00278998
0.00279585
0.00274803
0.00260324
0.00242115
0.00225156
0.00201477
0.00150942
0.000306459
0.000358429
0.00228801
0.00359399
0.00408733
0.00414534
0.00396594
0.0036904
0.00345791
0.0033301
0.0032921
0.00327563
0.00329306
0.00324518
0.00310303
0.00291562
0.00268766
0.00231953
0.00166095
0.000314137
0.000413667
0.00268852
0.00406667
0.0046137
0.00470092
0.00454142
0.00427776
0.00402941
0.00385573
0.00377039
0.003746
0.00376565
0.00371054
0.00356093
0.00334852
0.00305259
0.00256849
0.00177192
0.00031652
0.000491733
0.00310745
0.00455512
0.00511925
0.00522299
0.00508117
0.00483026
0.00457407
0.00437016
0.00424894
0.00420862
0.00421876
0.0041458
0.00397594
0.00372615
0.00335828
0.00276752
0.00185372
0.000313104
0.000154023
0.00116492
0.00216624
0.00284681
0.00330442
0.00366326
0.00401525
0.00440088
0.00481115
0.00521744
0.00559063
0.00590838
0.00615503
0.00631856
0.00638883
0.006355
0.00620321
0.0059135
0.00545898
0.00480677
0.00390969
0.00269507
0.0012892
0.000162533
0.00126135
0.00242547
0.00312491
0.0035761
0.00398132
0.00442013
0.00490278
0.0053999
0.00587637
0.00630365
0.00666239
0.00693933
0.00712545
0.0072133
0.00719566
0.00706454
0.00681095
0.00643024
0.00592239
0.00528007
0.00453507
0.00380205
0.000185656
0.001605
0.00267092
0.00329722
0.00378302
0.00428466
0.00483947
0.0054251
0.00600147
0.00653447
0.00700099
0.00738646
0.00768238
0.00788379
0.00798706
0.00798986
0.00789405
0.00770315
0.00743028
0.00709972
0.00673529
0.00636537
0.00606502
0.00019169
0.00172977
0.00277722
0.00341487
0.0039978
0.00463281
0.00530866
0.00598289
0.00661774
0.00718746
0.00767684
0.00807637
0.00838157
0.00859203
0.00870901
0.00873444
0.00868028
0.00856531
0.00841058
0.00823844
0.0080732
0.00793584
0.00786446
0.000190195
0.00179129
0.00284657
0.00356205
0.00428489
0.00505463
0.00582749
0.00656147
0.0072302
0.00781768
0.00831514
0.0087178
0.00902303
0.00923481
0.00936247
0.00941987
0.00942112
0.00938583
0.00933353
0.00928051
0.00924188
0.00922766
0.00924998
0.000194556
0.00187202
0.00296337
0.0038033
0.0046673
0.00553938
0.00637104
0.00713394
0.0078139
0.00840252
0.00889317
0.00928606
0.0095851
0.00980359
0.00995387
0.0100507
0.0101077
0.0101406
0.0101639
0.0101882
0.0102203
0.0102609
0.0103085
0.000209828
0.00201505
0.00317746
0.00414996
0.00512045
0.00605024
0.0069042
0.00766947
0.00834039
0.00891262
0.00938579
0.00976868
0.0100712
0.0103049
0.0104818
0.0106154
0.010718
0.0108012
0.0108745
0.0109435
0.0110095
0.0110683
0.0111127
0.000239235
0.00222408
0.00348376
0.00456194
0.00559388
0.00654232
0.00738991
0.00813538
0.00878076
0.00932977
0.00979024
0.0101705
0.0104801
0.0107298
0.0109306
0.0110939
0.01123
0.0113473
0.0114509
0.0115428
0.0116222
0.0116834
0.0117171
0.000277579
0.00246211
0.00382907
0.00497686
0.00603512
0.0069739
0.00779384
0.00850588
0.00912261
0.0096532
0.0101045
0.0104839
0.0108006
0.0110643
0.0112844
0.0114701
0.0116295
0.0117686
0.01189
0.0119932
0.0120773
0.0121371
0.0121619
0.000313118
0.00267447
0.00415333
0.00534447
0.00640423
0.00730921
0.00808904
0.00876802
0.00936072
0.00987595
0.01032
0.0106995
0.0110225
0.0112978
0.0115333
0.0117358
0.0119118
0.0120663
0.0121999
0.0123101
0.0123976
0.0124587
0.0124788
0.000334448
0.00280324
0.00441554
0.00563461
0.0066694
0.00751028
0.00825458
0.00890915
0.0094847
0.00998964
0.01043
0.0108113
0.0111411
0.0114275
0.011677
0.0118933
0.0120825
0.0122488
0.0123907
0.0125059
0.0125957
0.0126571
0.0126816
0.000362357
0.00277719
0.00460464
0.00582944
0.00676129
0.0075488
0.0082787
0.00892106
0.00948948
0.00999297
0.0104359
0.0108228
0.0111607
0.0114573
0.0117174
0.0119438
0.0121407
0.012313
0.0124602
0.0125823
0.0126792
0.0127484
0.0127868
0.000326289
0.00241121
0.00444207
0.00563452
0.00655737
0.00741748
0.00817727
0.00881523
0.00938326
0.00989166
0.01034
0.0107328
0.0110767
0.0113786
0.0116441
0.0118782
0.012085
0.0122673
0.0124255
0.0125595
0.0126695
0.0127542
0.0128128
0.000296673
0.0024046
0.0041436
0.00527134
0.00622067
0.00711168
0.00790163
0.00856392
0.00915134
0.0096749
0.0101339
0.0105346
0.0108864
0.0111966
0.0114711
0.0117154
0.0119341
0.0121295
0.012302
0.0124519
0.0125792
0.0126841
0.0127663
0.000315812
0.0024097
0.0039022
0.00493098
0.00583804
0.00669602
0.00747887
0.00817564
0.00879658
0.00934267
0.00981799
0.0102327
0.0105972
0.0109199
0.0112071
0.0114646
0.0116973
0.0119081
0.0120976
0.0122659
0.0124136
0.0125411
0.0126488
0.000301092
0.00230448
0.00368163
0.00461242
0.00544252
0.00624767
0.00700687
0.00770535
0.00833837
0.00890119
0.00939505
0.00982788
0.0102098
0.0105496
0.0108539
0.0111284
0.0113784
0.0116069
0.0118153
0.0120042
0.0121743
0.0123262
0.0124604
0.000283019
0.00217248
0.00347641
0.00432573
0.00506984
0.00579551
0.00650588
0.00718075
0.00780561
0.00837323
0.00888017
0.00933043
0.00973161
0.0100913
0.0104158
0.0107109
0.0109813
0.0112303
0.0114599
0.011671
0.0118648
0.012042
0.0122038
0.000266438
0.00202514
0.00328666
0.00407664
0.00474193
0.00538624
0.00602467
0.00664676
0.00724066
0.00779726
0.008306
0.00876697
0.0091842
0.00956298
0.00990839
0.0102252
0.0105177
0.0107891
0.0110414
0.011276
0.0114942
0.0116974
0.011887
0.000251438
0.00188095
0.00311922
0.00386949
0.00446854
0.00503726
0.00560214
0.00616103
0.00670604
0.00722904
0.00772204
0.00818104
0.00860579
0.00899827
0.00936132
0.00969811
0.0100118
0.0103051
0.01058
0.010838
0.0110805
0.0113089
0.0115252
0.000236867
0.00175133
0.00297915
0.00370991
0.00425852
0.00476222
0.00525926
0.00575466
0.00624493
0.00672472
0.0071882
0.00763089
0.00805041
0.00844614
0.00881862
0.00916914
0.00949942
0.0098112
0.010106
0.0103852
0.01065
0.0109017
0.0111419
0.000222964
0.00163951
0.00287064
0.00360517
0.00412264
0.00457468
0.00501337
0.00545107
0.00588827
0.00632228
0.00674938
0.00716598
0.00756924
0.00795728
0.00832908
0.00868443
0.00902369
0.00934758
0.00965696
0.00995274
0.0102358
0.0105072
0.0107682
0.000210351
0.00154624
0.0027947
0.00355985
0.00407084
0.00448824
0.00488019
0.00526852
0.00565816
0.00604868
0.00643801
0.00682362
0.00720306
0.00757425
0.00793559
0.00828605
0.00862516
0.00895286
0.0092694
0.00957521
0.00987083
0.0101569
0.0104339
0.000199645
0.00147134
0.00274753
0.00357031
0.00410508
0.00451063
0.00487071
0.00521948
0.00556818
0.00591926
0.00627208
0.00662504
0.0069763
0.00732414
0.00766707
0.00800398
0.00833412
0.00865711
0.00897281
0.00928129
0.00958271
0.00987723
0.0101649
0.000191187
0.00141468
0.00272207
0.00362272
0.00421288
0.00463521
0.00498356
0.0053054
0.00562083
0.00593687
0.00625512
0.00657514
0.00689586
0.0072162
0.00753516
0.00785199
0.00816612
0.0084772
0.00878498
0.0090893
0.00938999
0.00968681
0.00997925
0.000184924
0.00137556
0.0027112
0.00369732
0.00436781
0.00483688
0.00519854
0.00551066
0.00580332
0.00609017
0.00637659
0.00666429
0.00695351
0.00724411
0.00753586
0.00782856
0.00812208
0.00841626
0.00871089
0.00900569
0.00930024
0.00959389
0.00988563
0.000180491
0.00135239
0.00271015
0.00377615
0.00453849
0.00507796
0.00547844
0.00580179
0.00608635
0.00635323
0.00661313
0.0068712
0.00712994
0.00739067
0.00765423
0.00792118
0.00819188
0.00846643
0.00874472
0.00902637
0.0093107
0.00959669
0.00988287
0.000177397
0.00134225
0.00271613
0.00384809
0.00469951
0.00532099
0.00578003
0.00613537
0.00642941
0.0066895
0.00693206
0.00716665
0.0073989
0.0076323
0.00786914
0.00811094
0.00835866
0.00861274
0.00887314
0.00913937
0.00941051
0.00968519
0.00996146
0.000175187
0.00134159
0.00272704
0.00390864
0.00483665
0.00553938
0.006067
0.00647017
0.00679069
0.00705929
0.00729704
0.00751789
0.00773099
0.00794248
0.00815648
0.00837576
0.00860204
0.00883616
0.00907822
0.00932765
0.0095833
0.00984343
0.0101057
0.00017353
0.0013469
0.00274067
0.00395706
0.00494531
0.00571996
0.00631658
0.006776
0.00713594
0.00742736
0.00767391
0.00789286
0.00809662
0.00829396
0.00849105
0.0086921
0.00889976
0.0091154
0.00933937
0.00957109
0.00980925
0.0100518
0.0102961
0.000172219
0.0013554
0.00275489
0.00399395
0.00502634
0.00585959
0.00651882
0.00703569
0.00744221
0.00776716
0.00803453
0.00826336
0.00846834
0.00866045
0.00884777
0.00903593
0.00922864
0.00942794
0.00963452
0.00984796
0.0100668
0.010289
0.0105115
0.000171149
0.00136516
0.00276799
0.00402018
0.0050826
0.00596046
0.00667226
0.00724239
0.00769704
0.00806147
0.00835827
0.00860668
0.00882243
0.00901796
0.00920275
0.00938373
0.00956558
0.00975106
0.00994134
0.0101362
0.0103344
0.0105336
0.0107309
0.000170273
0.00137507
0.00277887
0.00403667
0.00511736
0.00602676
0.00677982
0.00739574
0.00789564
0.00830087
0.00863164
0.0089061
0.00913991
0.00934602
0.00953475
0.00971388
0.0098889
0.0100632
0.0102386
0.010415
0.0105914
0.0107658
0.0109351
0.000169584
0.00138457
0.00278708
0.00404438
0.00513371
0.00606314
0.00684626
0.00749889
0.00803821
0.00848189
0.00884732
0.00915083
0.0094071
0.0096288
0.00982641
0.0100081
0.0101799
0.0103457
0.0105075
0.010666
0.0108203
0.0109686
0.0111081
0.000169085
0.00139347
0.0027925
0.00404438
0.00513451
0.00607418
0.00687701
0.00755692
0.00812818
0.00860538
0.00900313
0.00933557
0.00961588
0.00985584
0.0100655
0.0102529
0.0104243
0.0105837
0.0107337
0.010875
0.0110072
0.0111288
0.0112378
0.000168788
0.00140162
0.00279516
0.00403766
0.00512244
0.00606433
0.00687786
0.00757608
0.00817128
0.00867563
0.00910127
0.00946016
0.00976372
0.0100224
0.0102454
0.0104404
0.0106132
0.010768
0.0109072
0.011032
0.0111422
0.0112369
0.0113147
0.000168701
0.00140886
0.00279499
0.00402512
0.00509998
0.00603795
0.00685486
0.0075635
0.00817499
0.00869968
0.00914771
0.00952904
0.00985332
0.0101296
0.0103658
0.0105688
0.0107438
0.0108947
0.0110237
0.0111319
0.0112196
0.0112866
0.0113327
0.000168826
0.00141486
0.00279177
0.0040075
0.00506953
0.00599942
0.00681429
0.00752708
0.00814821
0.00868684
0.00915154
0.00955063
0.00989213
0.0101836
0.0104316
0.010642
0.010819
0.0109657
0.0110838
0.011174
0.0112369
0.0112736
0.0112859
0.000169146
0.00141918
0.00278516
0.0039855
0.00503349
0.00595315
0.00676266
0.00747521
0.00810088
0.00864807
0.00912426
0.0095365
0.0098914
0.0101951
0.0104529
0.0106692
0.010847
0.010988
0.0110929
0.0111615
0.0111944
0.0111943
0.0111673
0.000169627
0.00142122
0.00277487
0.00396005
0.00499451
0.00590381
0.00670671
0.00741662
0.0080435
0.00859531
0.00907886
0.00950023
0.00986496
0.0101779
0.0104431
0.0106633
0.0108401
0.0109732
0.0110612
0.0111021
0.0110955
0.011046
0.0109673
0.000170202
0.0014202
0.00276101
0.00393285
0.00495602
0.00585658
0.00665348
0.00736019
0.00798668
0.00854072
0.00902872
0.00945614
0.00982769
0.0101472
0.0104175
0.0106398
0.0108138
0.0109369
0.0110043
0.0110103
0.0109508
0.0108305
0.010675
0.000170766
0.00141555
0.0027451
0.00390728
0.00492282
0.00581756
0.00661034
0.00731467
0.00794055
0.0084957
0.00898635
0.00941759
0.00979357
0.0101174
0.0103908
0.0106139
0.0107843
0.0108969
0.0109431
0.0109107
0.010787
0.0105687
0.0102904
0.000171165
0.00140999
0.00273245
0.0038898
0.00490187
0.00579403
0.00658501
0.00728833
0.00791403
0.00846986
0.00896194
0.00939522
0.00977355
0.0100996
0.0103746
0.0105977
0.0107656
0.0108711
0.0109023
0.010841
0.0106621
0.0103404
0.00988398
0.000445727
0.000448324
0.000470904
0.000509125
0.00335163
0.00330585
0.0033707
0.00359712
0.0059774
0.00601152
0.00612867
0.00633482
0.00790296
0.00796259
0.00805448
0.00817358
0.00931101
0.00935936
0.00941375
0.00947051
0.0103556
0.010383
0.0104051
0.0104199
0.0111376
0.0111455
0.0111433
0.0111303
0.0117228
0.0117168
0.0116994
0.01167
0.0121558
0.0121422
0.0121194
0.0120845
0.0124673
0.0124512
0.0124259
0.012391
0.0126779
0.0126669
0.0126473
0.0126193
0.0127988
0.0127987
0.0127904
0.0127739
0.012844
0.0128571
0.0128627
0.012861
0.012818
0.0128455
0.0128666
0.0128814
0.0127214
0.0127635
0.0128004
0.0128322
0.0125535
0.01261
0.0126622
0.0127106
0.0123167
0.0123869
0.0124541
0.0125181
0.0120194
0.0121031
0.0121846
0.0122635
0.0116763
0.0117741
0.0118702
0.0119642
0.0113107
0.0114226
0.0115333
0.0116425
0.0109525
0.0110773
0.0112011
0.0113242
0.0106309
0.0107661
0.0109009
0.0110354
0.0103708
0.0105135
0.0106563
0.0107994
0.0101902
0.0103371
0.0104846
0.0106328
0.0100975
0.0102455
0.0103942
0.0105436
0.010092
0.0102377
0.0103841
0.0105311
0.010164
0.0103045
0.0104453
0.0105863
0.0102981
0.0104303
0.0105623
0.0106938
0.0104747
0.0105959
0.0107161
0.0108351
0.0106728
0.0107805
0.0108863
0.0109901
0.0108719
0.0109639
0.0110534
0.0111399
0.0110531
0.0111282
0.0111999
0.0112679
0.0112015
0.0112589
0.0113123
0.0113613
0.0113057
0.0113453
0.0113804
0.0114107
0.0113575
0.0113798
0.0113973
0.0114097
0.0113505
0.0113563
0.0113571
0.0113531
0.0112787
0.0112684
0.0112538
0.0112349
0.0111334
0.0111073
0.0110783
0.0110465
0.0109027
0.0108601
0.0108179
0.0107758
0.010571
0.0105105
0.0104569
0.0104088
0.0101221
0.0100409
0.00998077
0.00993445
0.00952992
0.0094293
0.00937964
0.00935167
0.00215209
0.00423546
0.00540958
0.00591315
0.00601698
0.00589581
0.00566475
0.00540689
0.00517552
0.00500901
0.00491932
0.00485707
0.00472393
0.00449997
0.00417516
0.00369615
0.0029715
0.00193248
0.000305202
0.00463294
0.00586795
0.00660589
0.0069296
0.00697255
0.00684378
0.00662527
0.00637718
0.00614157
0.0059486
0.00580214
0.00563618
0.00539755
0.00506626
0.00461841
0.00400111
0.00312755
0.00192538
0.00030066
0.00677203
0.00737844
0.0077583
0.00790542
0.00787439
0.0077247
0.00750623
0.00725965
0.00701397
0.00678434
0.00655943
0.00628386
0.00593152
0.00548537
0.00492262
0.00419686
0.00321635
0.00191288
0.000301155
0.00836786
0.00862677
0.00876934
0.00877964
0.00868033
0.00850299
0.00827564
0.00802012
0.00775138
0.00747265
0.0071602
0.00678165
0.00632045
0.00576725
0.00510685
0.00430003
0.0032676
0.00193229
0.000302796
0.0095437
0.00961267
0.00960731
0.00952031
0.00936373
0.00915504
0.00890922
0.00863544
0.0083365
0.00800322
0.00761125
0.00714233
0.00658252
0.00593172
0.00517866
0.00428964
0.00319182
0.00184605
0.000300764
0.0104216
0.0103809
0.0102841
0.0101307
0.00992911
0.00968971
0.00942027
0.00912184
0.00878669
0.00839909
0.00794189
0.00739841
0.00675435
0.00600994
0.00515484
0.00415885
0.00293966
0.0015421
0.000287064
0.0110876
0.0109821
0.0108309
0.0106361
0.0104034
0.0101388
0.00984507
0.00951876
0.00914854
0.00871643
0.00820324
0.00759467
0.00687398
0.00603483
0.00506938
0.00398275
0.00256335
0.00111774
0.000259618
0.0116014
0.0114598
0.0112792
0.011062
0.0108116
0.0105316
0.0102226
0.0098778
0.00948194
0.00901172
0.00844499
0.00777331
0.00697227
0.00602433
0.00492869
0.00357668
0.00207535
0.00091488
0.000274703
0.0120046
0.0118491
0.0116606
0.0114396
0.0111877
0.0109063
0.0105949
0.0102431
0.00982927
0.00931935
0.00867682
0.00790943
0.00698574
0.00590654
0.00472257
0.00342528
0.00216269
0.00110092
0.000311385
0.0123164
0.0121705
0.0119871
0.011768
0.0115117
0.0112189
0.0108883
0.0105091
0.0100569
0.009495
0.00880802
0.00799694
0.00704934
0.00598572
0.00490204
0.00384405
0.0027908
0.00165696
0.000337005
0.0125563
0.0124282
0.0122631
0.0120597
0.0118148
0.0115255
0.0111871
0.0107896
0.010315
0.00973952
0.00904783
0.00823981
0.00731235
0.00630133
0.00529915
0.00433333
0.00331235
0.00202978
0.000353269
0.0127294
0.0126309
0.0124974
0.0123258
0.0121108
0.011846
0.0115244
0.0111371
0.0106718
0.0101139
0.00945046
0.00867498
0.0077896
0.00682429
0.00583224
0.004817
0.00368535
0.00221854
0.000358142
0.0128402
0.0127791
0.0126855
0.012555
0.0123806
0.0121545
0.0118688
0.0115157
0.0110863
0.0105697
0.00995352
0.00922741
0.00838991
0.00745403
0.00643412
0.00531257
0.00400493
0.002328
0.000363827
0.0128882
0.012869
0.0128197
0.0127346
0.0126061
0.0124262
0.0121871
0.0118817
0.0115021
0.0110381
0.010477
0.00980534
0.00901292
0.00809389
0.00703874
0.00581221
0.00432853
0.0024419
0.000371407
0.0128687
0.0128934
0.0128898
0.0128517
0.0127717
0.0126418
0.0124545
0.0122026
0.0118777
0.0114693
0.0109633
0.010343
0.00959026
0.00868567
0.00760165
0.0062885
0.00465633
0.00258253
0.000378993
0.0127773
0.0128461
0.0128881
0.0128973
0.0128664
0.0127878
0.0126539
0.0124567
0.0121871
0.0118331
0.0113792
0.0108057
0.0100885
0.00919807
0.00809409
0.00671458
0.0049637
0.00272736
0.000386092
0.012615
0.0127271
0.0128138
0.0128694
0.0128871
0.0128593
0.012778
0.0126344
0.0124181
0.0121158
0.0117104
0.0111796
0.0104947
0.00961881
0.00850222
0.007073
0.00522807
0.00285018
0.000392768
0.0123902
0.0125439
0.0126734
0.0127738
0.0128384
0.0128596
0.0128287
0.012736
0.01257
0.012316
0.0119552
0.0114632
0.0108079
0.00994625
0.00882223
0.00735578
0.00543706
0.00295301
0.000398379
0.0121198
0.0123114
0.0124809
0.0126233
0.0127319
0.0127989
0.012815
0.0127694
0.0126495
0.0124395
0.012119
0.0116618
0.0110335
0.0101883
0.00906454
0.00757632
0.00560714
0.0030388
0.000402196
0.0118251
0.0120508
0.0122567
0.0124375
0.0125864
0.0126949
0.0127532
0.0127499
0.0126711
0.0124998
0.0122147
0.0117883
0.0111847
0.010356
0.00923731
0.00773853
0.00573684
0.00310642
0.000404188
0.0115309
0.0117867
0.0120246
0.0122391
0.0124229
0.0125673
0.0126619
0.0126943
0.01265
0.012511
0.0122553
0.0118544
0.0112718
0.0104585
0.00934785
0.00784693
0.00582754
0.00315561
0.000404382
0.0112623
0.0115432
0.0118074
0.0120494
0.0122615
0.0124346
0.0125576
0.0126178
0.0125998
0.0124851
0.0122512
0.0118695
0.0113031
0.010503
0.00940196
0.00790539
0.00588092
0.00318641
0.000402833
0.0110413
0.0113407
0.0116243
0.0118861
0.0121183
0.0123112
0.0124534
0.0125318
0.0125305
0.0124309
0.0122103
0.0118404
0.0112847
0.0104948
0.00940396
0.00791695
0.00589844
0.00319902
0.000399597
0.0108834
0.0111937
0.0114885
0.0117613
0.0120039
0.0122065
0.0123575
0.0124433
0.0124483
0.0123537
0.0121373
0.0117713
0.0112205
0.0104376
0.00935708
0.007884
0.00588141
0.00319369
0.000394738
0.0107964
0.0111091
0.0114059
0.0116799
0.0119226
0.012124
0.0122726
0.0123548
0.0123551
0.0122554
0.0120341
0.0116646
0.0111131
0.0103342
0.00926386
0.00780866
0.00583113
0.00317083
0.000388315
0.0107792
0.0110856
0.0113749
0.0116399
0.0118721
0.0120614
0.0121965
0.0122642
0.0122495
0.0121352
0.0119008
0.0115211
0.0109641
0.0101865
0.00912668
0.00769308
0.00574912
0.003131
0.000380398
0.010823
0.0111145
0.0113871
0.0116333
0.0118447
0.0120116
0.012123
0.0121664
0.0121277
0.0119906
0.0117361
0.0113409
0.0107748
0.0099969
0.00894817
0.00753981
0.00563729
0.00307505
0.000371064
0.0109132
0.0111818
0.0114289
0.0116474
0.0118291
0.0119646
0.0120437
0.0120547
0.0119846
0.0118185
0.011539
0.0111245
0.0105471
0.00976822
0.00873176
0.00735218
0.00549819
0.00300415
0.000360415
0.0110318
0.0112702
0.0114845
0.0116677
0.0118122
0.0119092
0.0119494
0.0119221
0.0118156
0.0116165
0.0113091
0.0108736
0.0102841
0.00950477
0.0084822
0.00713466
0.00533524
0.00291997
0.00034858
0.0111598
0.0113619
0.0115374
0.0116796
0.0117815
0.0118351
0.0118321
0.0117631
0.0116178
0.0113842
0.0110481
0.0105918
0.00999131
0.00921283
0.00820608
0.00689333
0.00515306
0.00282473
0.000335742
0.0112792
0.0114407
0.0115731
0.0116706
0.0117266
0.0117345
0.0116866
0.0115751
0.011391
0.0111237
0.0107608
0.0102858
0.00967661
0.00890133
0.00791243
0.00663636
0.00495779
0.00272151
0.000322157
0.0113751
0.0114931
0.0115803
0.0116314
0.0116409
0.0116029
0.0115112
0.011359
0.0111387
0.0108412
0.0104552
0.00996562
0.0093515
0.0085825
0.00761333
0.0063745
0.00475751
0.00261433
0.000308201
0.0114357
0.0115094
0.0115513
0.0115568
0.0115213
0.01144
0.011308
0.0111196
0.0108683
0.0105463
0.0101433
0.00964506
0.00903124
0.00827226
0.00732435
0.00612154
0.0045625
0.00250838
0.000294408
0.0114532
0.0114838
0.0114823
0.0114452
0.0113688
0.0112495
0.0110831
0.0108654
0.0105908
0.0102525
0.00984075
0.00934165
0.00873479
0.0079903
0.00706468
0.00589442
0.00438528
0.0024099
0.000281533
0.0114221
0.0114126
0.011372
0.0112977
0.0111871
0.0110372
0.0108452
0.0106076
0.0103198
0.00997559
0.00956555
0.00907546
0.0084839
0.00775931
0.00685664
0.00571292
0.00424027
0.00232585
0.000270562
0.0113383
0.0112936
0.0112204
0.0111167
0.0109806
0.0108103
0.0106036
0.0103578
0.010069
0.00973152
0.00933574
0.00886663
0.0083007
0.00760301
0.00672424
0.00559872
0.00414316
0.00226335
0.00026269
0.0111967
0.0111235
0.0110262
0.0109031
0.0107529
0.0105743
0.0103658
0.0101253
0.00984952
0.00953289
0.00916564
0.00873144
0.00820391
0.00754283
0.00669103
0.00557476
0.00411107
0.00222975
0.000259208
0.0109893
0.0108966
0.0107859
0.0106556
0.0105043
0.0103311
0.0101348
0.00991401
0.00966583
0.00938488
0.00906124
0.0086774
0.00820396
0.00759406
0.00677849
0.00566684
0.00416632
0.00223465
0.000261513
0.0107057
0.0106048
0.0104938
0.0103699
0.0102315
0.0100777
0.00990774
0.00972055
0.00951369
0.00928223
0.00901661
0.00869921
0.00829885
0.00776267
0.00700629
0.00590999
0.00434728
0.00229624
0.000271525
0.0103349
0.0102405
0.0101438
0.0100405
0.0099286
0.00980732
0.00967618
0.00953437
0.00938003
0.00920912
0.00901351
0.00877753
0.00847192
0.00804277
0.00739305
0.00636069
0.00473458
0.00245845
0.000293483
0.00987149
0.00980115
0.00973366
0.00966404
0.00959049
0.00951241
0.00942951
0.00934136
0.00924679
0.00914319
0.00902512
0.00888175
0.00869164
0.00841134
0.0079493
0.00710974
0.00551833
0.00285522
0.000341068
0.00932157
0.00929358
0.00926826
0.00924276
0.00921627
0.00918858
0.00915962
0.0091293
0.00909724
0.00906258
0.00902348
0.00897619
0.00891298
0.00881666
0.00864373
0.00826241
0.00720749
0.00413587
0.000467774
)
;

boundaryField
{
    leftWall
    {
        type            nutkWallFunction;
        Cmu             0.09;
        kappa           0.41;
        E               9.8;
        value           nonuniform List<scalar> 
50
(
3.21313e-06
9.83329e-06
1.17111e-05
1.29568e-05
1.37706e-05
1.42758e-05
1.45846e-05
1.47643e-05
1.49158e-05
1.61822e-05
2.05806e-05
2.07944e-05
2.05386e-05
2.0773e-05
2.19161e-05
2.42643e-05
2.76111e-05
3.10823e-05
3.40638e-05
3.55261e-05
3.26652e-05
3.26502e-05
3.33119e-05
3.15645e-05
2.9498e-05
2.75303e-05
2.55998e-05
2.37073e-05
2.19363e-05
2.03816e-05
1.91088e-05
1.81352e-05
1.74298e-05
1.69333e-05
1.65812e-05
1.63211e-05
1.61178e-05
1.59511e-05
1.58118e-05
1.56971e-05
1.56073e-05
1.55446e-05
1.55114e-05
1.55097e-05
1.55401e-05
1.56012e-05
1.56881e-05
1.57911e-05
1.58942e-05
1.59728e-05
)
;
    }
    rightWall
    {
        type            nutkWallFunction;
        Cmu             0.09;
        kappa           0.41;
        E               9.8;
        value           nonuniform List<scalar> 
50
(
7.4837e-06
2.09698e-05
2.36529e-05
2.6281e-05
2.87028e-05
3.08341e-05
3.20031e-05
3.24308e-05
3.2387e-05
3.24753e-05
3.35961e-05
3.41589e-05
3.42825e-05
3.29894e-05
3.01043e-05
3.00848e-05
3.41386e-05
3.81174e-05
4.07511e-05
4.17977e-05
4.2795e-05
4.39727e-05
4.51051e-05
4.61279e-05
4.70577e-05
4.78537e-05
4.84002e-05
4.86875e-05
4.87233e-05
4.85175e-05
4.80822e-05
4.74247e-05
4.65525e-05
4.54742e-05
4.41994e-05
4.27401e-05
4.11123e-05
3.93386e-05
3.74516e-05
3.55004e-05
3.3557e-05
3.17258e-05
3.01481e-05
2.89992e-05
2.84726e-05
2.87736e-05
3.01687e-05
3.32181e-05
3.96539e-05
5.58115e-05
)
;
    }
    lowerWall
    {
        type            nutkWallFunction;
        Cmu             0.09;
        kappa           0.41;
        E               9.8;
        value           nonuniform List<scalar> 
62
(
3.21313e-06
4.84226e-06
5.74296e-06
6.48636e-06
7.18695e-06
7.85294e-06
8.4976e-06
9.13973e-06
9.78903e-06
1.04351e-05
1.10455e-05
1.15931e-05
1.2057e-05
1.2422e-05
1.26767e-05
1.28111e-05
1.28129e-05
1.26608e-05
1.23142e-05
1.16962e-05
1.06464e-05
8.88387e-06
5.25946e-06
5.25946e-06
1.56184e-05
1.85621e-05
2.1094e-05
2.3786e-05
2.8495e-05
3.72715e-05
4.20131e-05
4.88286e-05
4.9062e-05
5.13283e-05
5.52125e-05
1.0237e-05
2.74217e-05
2.86524e-05
3.08032e-05
3.4634e-05
3.95988e-05
4.62614e-05
5.42339e-05
1.0237e-05
1.35313e-05
1.50242e-05
1.44804e-05
1.3995e-05
1.34351e-05
1.32264e-05
1.29362e-05
1.26297e-05
1.21253e-05
1.16728e-05
1.09496e-05
1.00186e-05
8.62396e-06
8.14177e-06
8.65209e-06
9.60524e-06
1.00635e-05
7.4837e-06
)
;
    }
    atmosphere
    {
        type            calculated;
        value           nonuniform List<scalar> 
46
(
0.000171165
0.00140999
0.00273245
0.0038898
0.00490187
0.00579403
0.00658501
0.00728833
0.00791403
0.00846986
0.00896194
0.00939522
0.00977355
0.0100996
0.0103746
0.0105977
0.0107656
0.0108711
0.0109023
0.010841
0.0106621
0.0103404
0.00988398
0.009
0.009
0.009
0.009
0.009
0.009
0.009
0.009
0.009
0.009
0.009
0.009
0.009
0.009
0.009
0.009
0.009
0.009
0.009
0.009
0.009
0.009
0.009
)
;
    }
    defaultFaces
    {
        type            empty;
    }
}


// ************************************************************************* //
