/*--------------------------------*- C++ -*----------------------------------*\
  =========                 |
  \\      /  F ield         | OpenFOAM: The Open Source CFD Toolbox
   \\    /   O peration     | Website:  https://openfoam.org
    \\  /    A nd           | Version:  13
     \\/     M anipulation  |
\*---------------------------------------------------------------------------*/
FoamFile
{
    format      ascii;
    class       volScalarField;
    location    "1.05";
    object      p;
}
// * * * * * * * * * * * * * * * * * * * * * * * * * * * * * * * * * * * * * //

dimensions      [1 -1 -2 0 0 0 0];

internalField   nonuniform List<scalar> 
2268
(
7662.5
7560.57
7388.09
7142.85
6864.23
6573.37
6287.39
6020.44
5782.9
5575.79
5400.58
5254.12
5132.07
5030.18
4944.56
4871.81
4808.72
4751.75
4696.8
4640.23
4581.32
4531.69
4509.05
6886.68
6789.72
6621.46
6371.2
6085.13
5786.73
5494.17
5221.6
4976.25
4766.27
4588.01
4439.12
4315.33
4212.39
4126.31
4053.36
3990
3932.46
3877.01
3821.38
3766.63
3726.32
3711.81
6130.94
6029.04
5861.46
5605.73
5311.5
5004.36
4703.04
4423.37
4173
3956.89
3774.35
3622.31
3496.42
3392.33
3305.92
3233.27
3170.62
3114.15
3060.46
3008.37
2959.56
2928.48
2911.19
5398.54
5283.76
5111.46
4846.55
4541
4222.98
3910.86
3622.35
3364.61
3143.63
2957.4
2803.32
2676.31
2572.13
2486.41
2415.09
2354.53
2301.04
2251.23
2203.91
2159.41
2133.61
2106.76
4688.58
4559.66
4377.32
4096.83
3775.71
3443.51
3115.65
2814.36
2546.41
2321.71
2134.6
1982.58
1858.18
1757.84
1676.26
1608.85
1552.36
1503.62
1459.91
1419.46
1377.88
1352.31
1313.61
4002.58
3860.34
3663.71
3360.23
3016.13
2661.82
2303.07
1982.81
1731.88
1546.56
1405.64
1296.81
1212.91
1143.49
1084.18
1032.42
987.141
947.461
914.718
889.679
858.602
825.111
778.266
3339.66
3194.79
2971.29
2636.54
2247.33
1855.83
1550.22
1340.44
1207.7
1117.83
1050.75
996.164
950.716
907.548
866.083
826.312
789.044
755.255
729.92
716.496
695.322
657.845
606.938
2708.25
2562.11
2300.62
1906.59
1533.46
1278.14
1155.34
1097.17
1055.51
1015.01
975.378
935.079
893.254
851.586
810.885
771.593
734.363
700.423
674.854
662.16
638.585
603.92
554.068
981.355
1015.92
1085.42
1163.76
1310.78
1529.53
1728.11
1852.14
2099.62
2668.8
3247.54
3513.42
3606.19
3516.13
3306.31
3132.75
3105.98
3259.5
3118.9
916.806
930.035
978.509
1026.02
1096.3
1289.03
1568.25
1761.66
1902.14
2190.96
2712.77
3086.19
3228.96
3055.13
2757.63
2542.43
2448.68
2574.36
2492.04
849.162
833.029
854.034
885.508
914.701
1014.04
1238.19
1526.56
1606.24
1700.35
2078.06
2478.91
2679.43
2598.77
2333.43
2115.15
1983.1
1945.24
1891.04
782.41
755.629
764.578
792.169
824.897
862.548
940.656
1099.11
1174.9
1204.73
1471.94
1838.49
2075.59
2153.15
2065.76
1858.43
1705.41
1399.76
1330.04
707.308
696.762
701.754
725.44
755.736
784.743
804.092
817.153
835.912
835.651
971.079
1295.36
1554.04
1729.71
1790.6
1618.41
1398.25
940.264
864.924
645.343
642.069
643.333
660.013
687.704
714.341
729.039
719.932
708.748
701.767
726.376
929.723
1100.53
1244.33
1351.45
1248.03
975.065
689.718
651.28
604.112
603.519
600.28
603.908
620.454
644.848
661.21
656.791
645.965
636.356
643.989
708.249
756.122
825.965
879.097
811.167
650.254
564.154
546.167
578.648
570.716
565.4
562.607
565.772
577.947
595.39
596.784
589.093
579.119
571.766
554.398
562.519
584.916
605.868
551.657
489.294
470.744
471.934
1869.71
1696.58
1491.39
1246.02
1095.12
1043.16
1015.52
985.836
953.393
917.832
879.787
840.453
800.157
759.784
720.07
681.711
645.154
610.304
582.399
565.088
548.261
528.807
513.824
1049.77
947.986
888.115
890.856
899.521
893.65
877.396
852.888
822.384
787.742
750.444
711.713
672.17
633.085
594.083
555.342
523.653
501.544
485.94
471.624
461.27
453.408
451.048
709.742
715.022
740.068
757.953
766.008
762.244
747.328
723.37
693.004
658.334
621.182
582.606
541.989
504.553
474.907
454.465
440.173
432.179
424.777
412.133
398.222
389.309
382.706
629.04
627.449
636.661
646.123
648.658
641.072
623.657
597.952
566.229
530.183
490.802
455.471
425.693
408.014
396.52
389.074
379.883
369.014
357.273
345.502
332.926
322.353
313.15
552.475
546.176
545.127
545.14
540.435
527.686
506.274
477.187
442.357
407.675
378.704
362.196
353.878
346.682
336.414
323.676
312.539
300.972
288.426
276.043
263.765
252.665
242.515
468.648
460.98
454.345
448.222
437.947
420.474
394.854
363.256
334.448
315.216
308.518
301.909
293.903
281.719
269.836
256.667
243.929
231.16
217.811
204.601
192.271
181.333
170.71
382.126
373.055
363.233
353.754
339.969
319.305
293.043
269.423
258.363
254.268
249.534
239.164
227.267
214.794
202.214
188.545
174.476
160.351
145.837
130.917
117.148
107.021
96.4384
293.503
282.488
272.043
262.406
248.054
228.556
210.02
203.267
200.703
195.365
184.764
173.525
161.388
148.6
135.206
120.336
103.667
87.4647
71.8163
55.4457
42.3969
37.2705
31.5872
198.468
185.325
179.248
174.147
164.563
155.443
150.882
149.041
142.683
132.474
121.284
109.393
96.0256
82.1434
67.8241
52.7057
37.5014
26.3657
18.3045
11.1608
7.26597
6.16963
5.24969
87.2739
76.5407
79.1643
82.2281
82.7225
93.7261
101.989
95.2551
84.4837
71.1577
57.9152
46.4079
35.1944
25.8139
18.2004
11.4593
6.78811
4.76953
4.19036
4.13171
4.22432
4.30997
4.30529
12.2803
9.72699
11.9082
13.2123
13.8307
33.0564
47.2941
44.3913
34.2747
22.4157
14.105
9.30831
6.20575
4.50955
3.90273
3.87449
3.94949
4.00772
4.00893
3.99822
4.01828
4.04181
4.0518
4.17893
3.96118
4.17967
4.27165
4.55119
6.14781
11.1098
10.8451
7.25539
4.19116
3.4834
3.57439
3.66929
3.71318
3.71848
3.72232
3.76052
3.80379
3.83239
3.84866
3.86507
3.87777
3.88315
3.78088
3.5842
3.51763
3.45082
3.42095
3.45001
3.68351
3.35564
3.18189
3.29177
3.37165
3.41952
3.46928
3.51606
3.55553
3.58515
3.61725
3.6493
3.67286
3.69191
3.70877
3.71965
3.72351
3.52398
3.40352
3.39447
3.33475
3.25002
3.18025
3.18592
3.1532
3.15935
3.21061
3.26199
3.30399
3.34355
3.38353
3.41685
3.44732
3.47554
3.5014
3.52276
3.53824
3.55109
3.56041
3.56507
3.27745
3.29486
3.29093
3.25632
3.20419
3.14659
3.12179
3.1048
3.10599
3.12778
3.16075
3.19445
3.22659
3.2567
3.28418
3.30653
3.32875
3.35107
3.37054
3.38668
3.39764
3.40511
3.40995
3.21411
3.19947
3.17518
3.14411
3.11212
3.07777
3.06228
3.03999
3.02885
3.03671
3.05594
3.07967
3.10419
3.128
3.15027
3.16863
3.18448
3.2009
3.21824
3.23465
3.24666
3.25519
3.26073
3.05768
3.0456
3.029
3.00802
2.98723
2.968
2.95654
2.94207
2.9331
2.93586
2.94723
2.96327
2.98148
3.00023
3.01867
3.03567
3.05037
3.06294
3.07525
3.08756
3.10035
3.11048
3.11791
2.89812
2.89383
2.88634
2.87438
2.86083
2.84799
2.83968
2.83176
2.82754
2.82983
2.83749
2.84889
2.86268
2.87759
2.89262
2.90706
2.92057
2.93297
2.94402
2.95408
2.96382
2.9736
2.98177
2.75892
2.75831
2.75586
2.7496
2.74133
2.73301
2.72716
2.72276
2.72094
2.72298
2.7286
2.73714
2.74778
2.75968
2.77203
2.78414
2.79577
2.80685
2.81721
2.82685
2.83569
2.84421
2.85154
2.63295
2.63435
2.63453
2.63171
2.62711
2.62216
2.61838
2.61583
2.61508
2.61684
2.62114
2.62766
2.63594
2.64542
2.65553
2.66574
2.67573
2.68534
2.69452
2.7032
2.71134
2.71899
2.72572
2.51373
2.51658
2.51844
2.51784
2.51571
2.51311
2.51097
2.50964
2.50953
2.51111
2.51449
2.51956
2.52606
2.53364
2.5419
2.55044
2.55898
2.56733
2.57537
2.58304
2.5903
2.59719
2.6034
2.3983
2.40209
2.40508
2.40594
2.40542
2.40441
2.40352
2.4031
2.40349
2.40501
2.40781
2.41187
2.41707
2.42319
2.42995
2.43708
2.44434
2.45155
2.45858
2.46534
2.47178
2.47796
2.48365
2.28473
2.28906
2.29277
2.29461
2.29515
2.29517
2.29518
2.29545
2.29625
2.29781
2.30027
2.30367
2.30795
2.31299
2.3186
2.3246
2.33079
2.33702
2.34316
2.34912
2.35486
2.3604
2.36556
2.17173
2.1763
2.18044
2.18295
2.1842
2.1849
2.1855
2.18625
2.18737
2.18901
2.19129
2.19428
2.19795
2.20223
2.207
2.21213
2.21748
2.22291
2.22831
2.23359
2.23871
2.2437
2.24838
2.05855
2.06312
2.0675
2.07048
2.07222
2.07336
2.07434
2.0754
2.07673
2.07844
2.08064
2.08338
2.08665
2.09041
2.09458
2.09908
2.10378
2.10858
2.11338
2.11811
2.12271
2.12722
2.13149
1.94479
1.94923
1.95368
1.95696
1.95906
1.96052
1.96175
1.96301
1.96446
1.96622
1.96836
1.97092
1.97392
1.97732
1.98107
1.9851
1.98931
1.99362
1.99794
2.00221
2.00638
2.01049
2.01439
1.83032
1.83451
1.83891
1.84235
1.84471
1.84642
1.84784
1.84923
1.85075
1.85252
1.8546
1.85704
1.85983
1.86296
1.86639
1.87005
1.87388
1.8778
1.88174
1.88563
1.88944
1.8932
1.89678
1.71511
1.71899
1.72322
1.7267
1.72924
1.73114
1.73273
1.73423
1.7358
1.73756
1.73958
1.74189
1.74451
1.74742
1.75058
1.75395
1.75746
1.76105
1.76466
1.76823
1.77172
1.77518
1.77849
1.59919
1.60273
1.60672
1.61014
1.61276
1.61482
1.61654
1.61813
1.61974
1.62149
1.62345
1.62565
1.62811
1.63081
1.63374
1.63685
1.64008
1.64339
1.6467
1.64998
1.6532
1.65639
1.65944
1.48264
1.48583
1.48952
1.4928
1.49543
1.49756
1.49938
1.50106
1.50271
1.50445
1.50635
1.50844
1.51075
1.51327
1.51598
1.51885
1.52183
1.52487
1.52792
1.53094
1.53391
1.53684
1.53966
1.36554
1.36838
1.37174
1.37481
1.37737
1.37952
1.3814
1.38312
1.3848
1.38653
1.38838
1.39037
1.39255
1.3949
1.39741
1.40005
1.4028
1.40559
1.4084
1.41118
1.4139
1.41661
1.4192
1.24796
1.25045
1.25347
1.2563
1.25872
1.26083
1.2627
1.26444
1.26613
1.26784
1.26963
1.27154
1.27359
1.27578
1.27811
1.28055
1.28307
1.28564
1.28822
1.29078
1.29328
1.29577
1.29814
1.12995
1.13213
1.1348
1.13735
1.1396
1.1416
1.14343
1.14514
1.1468
1.14848
1.15021
1.15203
1.15396
1.156
1.15816
1.16042
1.16274
1.1651
1.16747
1.16982
1.17212
1.1744
1.17657
1.0116
1.01348
1.0158
1.01806
1.02009
1.02195
1.02368
1.02532
1.02693
1.02854
1.03019
1.03192
1.03373
1.03564
1.03764
1.03972
1.04186
1.04404
1.04622
1.04838
1.05049
1.05258
1.05454
0.892935
0.894538
0.896532
0.89849
0.900291
0.901969
0.903557
0.905088
0.906596
0.908115
0.909672
0.91129
0.912983
0.914756
0.916608
0.91853
0.920504
0.922509
0.924517
0.926504
0.928449
0.930358
0.932138
0.774026
0.775375
0.777052
0.778713
0.780263
0.781732
0.783146
0.784528
0.785905
0.7873
0.788735
0.790227
0.791787
0.79342
0.795124
0.796893
0.798712
0.800561
0.802417
0.804253
0.806051
0.807802
0.809412
0.654912
0.656032
0.65741
0.658779
0.66007
0.661309
0.66252
0.663721
0.664932
0.666173
0.667458
0.668802
0.670213
0.671696
0.673248
0.674866
0.676537
0.678245
0.679967
0.681677
0.683354
0.684979
0.686439
0.535657
0.536564
0.537661
0.538745
0.539769
0.540763
0.541748
0.54274
0.543757
0.544813
0.545922
0.547093
0.548335
0.549652
0.551042
0.552504
0.55403
0.555606
0.55721
0.558817
0.560403
0.561949
0.563299
0.416315
0.41703
0.417864
0.418667
0.41942
0.420154
0.420893
0.421653
0.422449
0.423294
0.4242
0.425175
0.426225
0.427356
0.428569
0.429865
0.43124
0.432686
0.434183
0.435705
0.437229
0.43877
0.440099
0.296972
0.297497
0.298065
0.29857
0.299025
0.299472
0.299937
0.300435
0.300982
0.301588
0.302265
0.303021
0.303863
0.304797
0.305829
0.306964
0.308207
0.309556
0.310997
0.312508
0.314085
0.315762
0.317473
0.177725
0.178001
0.178225
0.178351
0.178439
0.178538
0.178675
0.178866
0.179124
0.179462
0.179891
0.180419
0.181057
0.181815
0.182706
0.183744
0.184947
0.186331
0.187896
0.18966
0.191655
0.193804
0.197387
0.0587676
0.0587692
0.0586623
0.0584831
0.0582953
0.0581345
0.0580182
0.0579584
0.0579653
0.0580478
0.0582141
0.0584723
0.0588314
0.0593021
0.0598985
0.0606397
0.0615514
0.0626637
0.064003
0.065664
0.067944
0.0712431
0.0754583
508.527
502.988
497.872
497.592
444.553
438.365
433.525
432.153
375.813
370.908
366.662
364.081
305.996
301.571
297.708
294.82
235.35
231.191
227.616
224.764
163.454
159.715
156.867
154.332
84.8878
80.3808
81.4632
82.4264
18.9188
16.1375
20.4632
24.7774
4.5448
4.30949
4.3805
4.63231
4.26459
4.22534
4.19331
4.18422
4.05156
4.04767
4.04282
4.03291
3.88126
3.87693
3.87146
3.86539
3.72054
3.7139
3.70596
3.69954
3.56105
3.55453
3.54697
3.54136
3.40673
3.40103
3.3946
3.39009
3.25868
3.25414
3.24873
3.24503
3.11726
3.11362
3.10903
3.10595
2.98211
2.97925
2.97534
2.97277
2.85224
2.84992
2.84657
2.84441
2.72665
2.72471
2.72178
2.71991
2.6045
2.60287
2.60025
2.59856
2.48482
2.48344
2.48108
2.47952
2.36674
2.36555
2.36341
2.36196
2.24952
2.24847
2.24652
2.24516
2.13255
2.13158
2.12979
2.12851
2.01535
2.01444
2.01279
2.01159
1.89764
1.89678
1.89525
1.89413
1.77926
1.77844
1.77704
1.77601
1.66014
1.65939
1.65811
1.65717
1.5403
1.53962
1.53848
1.53764
1.4198
1.4192
1.4182
1.41747
1.29872
1.29821
1.29735
1.29673
1.17713
1.17672
1.176
1.17547
1.05509
1.05478
1.05419
1.05376
0.932666
0.932443
0.931977
0.931629
0.809917
0.809769
0.809405
0.80912
0.686901
0.686801
0.686507
0.686258
0.563684
0.563588
0.563316
0.563059
0.440345
0.440174
0.439846
0.439522
0.317153
0.31666
0.316113
0.315625
0.195545
0.193506
0.192115
0.191243
0.0760999
0.0716241
0.0682177
0.0662349
513.114
510.382
507.874
505.589
503.616
501.53
502.826
504.264
499.42
486.551
463.791
439.358
438.467
442.045
446.011
421.572
395.939
381.11
385.507
434.46
432.482
431.175
429.114
425.384
417.077
403.521
392.712
384.103
369.691
342.307
313.506
307.233
313.467
304.482
293.101
294.554
292.163
296.892
361.816
358.728
356.735
353.961
349.336
340.77
326.17
305.447
286.757
268.214
246.168
225.763
214.945
207.232
205.168
210.758
216.862
223.698
228.563
291.104
287.018
284.057
280.734
275.737
267.643
255.021
237.14
214.346
191.502
171.052
154.021
143.995
139.532
140.702
145.627
151.696
157.378
163.033
220.674
215.898
212.234
208.545
203.674
196.425
185.839
171.606
154.195
134.52
115.326
99.6536
89.5503
84.0352
81.8782
82.3742
84.2939
87.1523
95.7445
150.012
144.269
139.907
135.879
131.048
124.512
115.543
103.864
89.7814
74.3542
59.4829
47.4381
39.9663
34.9491
30.6935
26.2684
27.0879
33.7888
44.488
78.8935
72.4304
68.2043
64.6229
60.2661
54.7147
48.0084
39.9997
31.0516
22.5987
16.9097
14.4595
12.7314
9.53687
6.40943
5.59454
7.39253
11.4076
15.9322
23.8957
19.9747
18.3235
17.0747
15.3066
13.2187
11.1112
9.10901
7.1423
5.4701
4.56447
4.20028
4.18286
4.54798
4.88038
5.06194
5.40356
6.48414
7.38018
4.49412
4.27281
4.18258
4.09361
3.99619
3.91015
3.84867
3.81713
3.79879
3.7949
3.99975
4.38772
4.47899
4.49271
4.53779
4.61766
4.473
4.19255
4.09909
4.17516
4.15579
4.14994
4.14449
4.13753
4.13346
4.13711
4.14948
4.16539
4.18329
4.22828
4.28445
4.29019
4.29982
4.30502
4.26846
4.16213
4.11703
4.087
4.0183
3.99762
3.98194
3.96856
3.95671
3.94804
3.94612
3.95132
3.9628
3.97972
4.00782
4.02384
4.05142
4.06894
4.10842
4.08955
4.03818
3.98341
3.96369
3.85485
3.83846
3.82375
3.81081
3.7991
3.79077
3.78661
3.78795
3.79353
3.80416
3.82013
3.83589
3.85874
3.89686
3.92871
3.92715
3.89455
3.85897
3.8455
3.69303
3.68421
3.67524
3.66711
3.66002
3.65476
3.65288
3.6545
3.6599
3.66912
3.68388
3.70358
3.72664
3.75292
3.77226
3.77157
3.75334
3.7314
3.72044
3.53719
3.53386
3.52985
3.52596
3.52281
3.5211
3.52163
3.5249
3.53138
3.54151
3.55518
3.57221
3.58977
3.6079
3.62051
3.62116
3.61149
3.59863
3.59112
3.38768
3.38795
3.38745
3.38678
3.38653
3.38734
3.38981
3.39443
3.40152
3.4113
3.42357
3.43704
3.4508
3.46368
3.4727
3.47491
3.47084
3.46404
3.46045
3.24397
3.24676
3.24881
3.2505
3.25242
3.25508
3.25895
3.26438
3.27159
3.28056
3.29099
3.30209
3.31287
3.32267
3.32994
3.33325
3.33285
3.33049
3.33062
3.1059
3.11039
3.11417
3.1175
3.12093
3.12487
3.12965
3.13552
3.14258
3.15073
3.15966
3.16885
3.17768
3.18565
3.19197
3.19609
3.19831
3.19926
3.2029
2.97328
2.97861
2.9834
2.98777
2.99216
2.99688
3.00217
3.00819
3.01496
3.02237
3.03016
3.03798
3.04546
3.05228
3.05815
3.06293
3.06701
3.07114
3.07778
2.84523
2.85089
2.85618
2.86111
2.86603
2.87116
2.87665
2.8826
2.88901
2.89576
2.90267
2.90951
2.91607
2.9222
2.9279
2.93329
2.93899
2.9458
2.9551
2.72088
2.72658
2.73206
2.73723
2.74237
2.74761
2.75308
2.75883
2.76483
2.771
2.77721
2.78333
2.78927
2.79502
2.80071
2.80667
2.81369
2.82272
2.83427
2.59952
2.60506
2.6105
2.61567
2.62077
2.62593
2.63122
2.63666
2.64224
2.64789
2.65354
2.65912
2.66463
2.67014
2.67589
2.68232
2.69043
2.70126
2.7146
2.48035
2.48559
2.49084
2.49583
2.50075
2.50568
2.51068
2.51576
2.52091
2.5261
2.53128
2.53644
2.54163
2.54698
2.5528
2.55959
2.56852
2.58074
2.59541
2.36263
2.36749
2.37244
2.37715
2.38177
2.38639
2.39104
2.39574
2.40048
2.40525
2.41002
2.41484
2.41977
2.425
2.43084
2.43786
2.44734
2.46052
2.47605
2.24566
2.25012
2.25471
2.25908
2.26336
2.26763
2.27192
2.27623
2.28058
2.28496
2.28938
2.2939
2.2986
2.30369
2.30949
2.31661
2.32636
2.34006
2.35595
2.12888
2.13296
2.13717
2.14118
2.1451
2.14901
2.15293
2.15688
2.16087
2.1649
2.16901
2.17325
2.17773
2.18265
2.18834
2.1954
2.20516
2.21896
2.23474
2.01186
2.01559
2.01944
2.02309
2.02667
2.03024
2.03382
2.03743
2.04108
2.04479
2.04861
2.05258
2.05684
2.06156
2.06706
2.07392
2.08345
2.09694
2.11218
1.89435
1.89777
1.90127
1.90459
1.90785
1.9111
1.91436
1.91765
1.921
1.92442
1.92796
1.93168
1.93568
1.94016
1.9454
1.95194
1.96102
1.97387
1.98819
1.7762
1.77934
1.78251
1.78553
1.7885
1.79145
1.79443
1.79743
1.8005
1.80364
1.80691
1.81036
1.8141
1.8183
1.82321
1.82933
1.8378
1.84972
1.86282
1.65736
1.66024
1.66312
1.66587
1.66856
1.67125
1.67396
1.67669
1.67949
1.68236
1.68535
1.68853
1.69198
1.69586
1.70041
1.70604
1.71378
1.72456
1.73621
1.53783
1.54047
1.54309
1.54558
1.54804
1.55047
1.55292
1.5554
1.55793
1.56053
1.56325
1.56614
1.56928
1.57282
1.57696
1.58207
1.58901
1.59852
1.60858
1.41767
1.42008
1.42246
1.42472
1.42693
1.42913
1.43134
1.43356
1.43583
1.43816
1.44059
1.44317
1.44599
1.44917
1.45289
1.45746
1.46358
1.47179
1.48022
1.29694
1.29912
1.30126
1.3033
1.30529
1.30726
1.30922
1.3112
1.31319
1.31524
1.31738
1.31965
1.32213
1.32495
1.32824
1.33228
1.3376
1.34453
1.35137
1.1757
1.17765
1.17956
1.18137
1.18314
1.18488
1.1866
1.18832
1.19005
1.19182
1.19365
1.1956
1.19775
1.20019
1.20307
1.2066
1.21118
1.21692
1.22229
1.05398
1.0557
1.05739
1.05898
1.06052
1.06203
1.06351
1.06497
1.06644
1.06792
1.06945
1.07109
1.07289
1.07496
1.07744
1.0805
1.0844
1.08908
1.09317
0.931827
0.933316
0.934768
0.936133
0.937447
0.938718
0.939957
0.941171
0.942372
0.943579
0.94482
0.946141
0.947612
0.94933
0.951417
0.954016
0.957297
0.961056
0.964104
0.809272
0.810511
0.811719
0.81285
0.813929
0.814963
0.815961
0.816928
0.817875
0.818818
0.819784
0.820813
0.82197
0.823344
0.825049
0.82721
0.829917
0.832883
0.835158
0.686328
0.687293
0.688241
0.689126
0.689963
0.690759
0.691518
0.692247
0.692954
0.693655
0.69437
0.695135
0.696002
0.697052
0.698386
0.70011
0.702269
0.704551
0.706343
0.562996
0.563653
0.56432
0.564945
0.565535
0.566093
0.566621
0.567125
0.567612
0.568095
0.568591
0.569126
0.56974
0.570492
0.571467
0.572754
0.57437
0.576049
0.577644
0.439265
0.43957
0.439935
0.440293
0.440639
0.440968
0.44128
0.441578
0.44187
0.442167
0.442482
0.442831
0.443238
0.443736
0.444382
0.445234
0.446293
0.447396
0.448964
0.315107
0.315021
0.315088
0.315199
0.315327
0.315455
0.315581
0.315707
0.315842
0.315996
0.316178
0.316398
0.316662
0.316979
0.317364
0.317801
0.318183
0.318548
0.320042
0.19035
0.189862
0.189683
0.189599
0.189551
0.189517
0.189491
0.189479
0.189492
0.18954
0.189633
0.189774
0.189962
0.190185
0.190414
0.190471
0.189772
0.18872
0.190746
0.0643773
0.0634982
0.0630995
0.0628081
0.0625501
0.0623074
0.0620827
0.0618862
0.0617305
0.0616274
0.061586
0.0616097
0.0616921
0.061811
0.0619129
0.061744
0.0600695
0.0562608
0.0640792
)
;

boundaryField
{
    leftWall
    {
        type            calculated;
        value           nonuniform List<scalar> 
50
(
7662.5
6886.68
6130.94
5398.54
4688.58
4002.58
3339.66
2708.25
1869.71
1049.77
709.742
629.04
552.475
468.648
382.126
293.503
198.468
87.2739
12.2803
4.17893
3.78088
3.52398
3.27745
3.21411
3.05768
2.89812
2.75892
2.63295
2.51373
2.3983
2.28473
2.17173
2.05855
1.94479
1.83032
1.71511
1.59919
1.48264
1.36554
1.24796
1.12995
1.0116
0.892935
0.774026
0.654912
0.535657
0.416315
0.296972
0.177725
0.0587676
)
;
    }
    rightWall
    {
        type            calculated;
        value           nonuniform List<scalar> 
50
(
3118.9
2492.04
1891.04
1330.04
864.924
651.28
546.167
471.934
385.507
296.892
228.563
163.033
95.7445
44.488
15.9322
7.38018
4.09909
4.087
3.96369
3.8455
3.72044
3.59112
3.46045
3.33062
3.2029
3.07778
2.9551
2.83427
2.7146
2.59541
2.47605
2.35595
2.23474
2.11218
1.98819
1.86282
1.73621
1.60858
1.48022
1.35137
1.22229
1.09317
0.964104
0.835158
0.706343
0.577644
0.448964
0.320042
0.190746
0.0640792
)
;
    }
    lowerWall
    {
        type            calculated;
        value           nonuniform List<scalar> 
62
(
8060.65
7958.72
7786.24
7541
7262.38
6971.52
6685.54
6418.59
6181.05
5973.94
5798.73
5652.27
5530.21
5428.32
5342.71
5269.96
5206.87
5149.9
5094.95
5038.38
4979.42
4929.62
4906.98
4509.05
3711.81
2911.19
2106.76
1313.61
778.266
606.938
554.068
536.696
534.794
529.572
529.144
981.355
916.806
849.162
782.41
707.308
645.343
604.112
578.648
1009.92
1044.01
1116.39
1217.26
1404.39
1622.78
1776.38
1902.39
2178.28
2865.7
3434.16
3664.03
3754.34
3758.92
3583.6
3411.66
3386.2
3538.76
3398.15
)
;
    }
    atmosphere
    {
        type            calculated;
        value           nonuniform List<scalar> 
46
(
0
0
0
0
0
0
0
0
0
0
0
0
0
0
0
0
0
0
0
0
0
0
0
-2.56859e-05
-5.49042e-05
-0.000107545
-0.000182003
-0.000348993
-0.000651137
-0.00100828
-0.00139936
-0.00180558
-0.00220896
-0.00259245
-0.00294041
-0.00323911
-0.00347731
-0.00364693
-0.003744
-0.0037701
-0.00373416
-0.00365412
-0.00355682
-0.00347176
-0.00329755
-0.000666023
)
;
    }
    defaultFaces
    {
        type            empty;
    }
}


// ************************************************************************* //
