/*--------------------------------*- C++ -*----------------------------------*\
  =========                 |
  \\      /  F ield         | OpenFOAM: The Open Source CFD Toolbox
   \\    /   O peration     | Website:  https://openfoam.org
    \\  /    A nd           | Version:  13
     \\/     M anipulation  |
\*---------------------------------------------------------------------------*/
FoamFile
{
    format      ascii;
    class       surfaceScalarField;
    location    "1.05";
    object      phi;
}
// * * * * * * * * * * * * * * * * * * * * * * * * * * * * * * * * * * * * * //

dimensions      [0 3 -1 0 0 0 0];

internalField   nonuniform List<scalar> 
4432
(
1.47295e-06
-1.47297e-06
-6.53422e-07
2.12636e-06
-2.95198e-06
2.29856e-06
-4.73922e-06
1.78724e-06
-5.98017e-06
1.24096e-06
-6.7419e-06
7.61731e-07
-7.18829e-06
4.464e-07
-7.40185e-06
2.13558e-07
-7.41878e-06
1.69339e-08
-7.25322e-06
-1.65557e-07
-6.92022e-06
-3.32996e-07
-6.45232e-06
-4.67894e-07
-5.88486e-06
-5.67454e-07
-5.24784e-06
-6.37014e-07
-4.56408e-06
-6.83754e-07
-3.83813e-06
-7.25939e-07
-3.04667e-06
-7.91458e-07
-2.14225e-06
-9.04416e-07
-1.07833e-06
-1.06391e-06
1.2685e-07
-1.20518e-06
1.30486e-06
-1.178e-06
1.85774e-06
-5.52878e-07
1.85774e-06
-1.06438e-07
-1.36659e-06
-1.46646e-06
3.48636e-06
-2.91723e-06
3.7493e-06
-4.13822e-06
3.00821e-06
-5.08786e-06
2.19059e-06
-5.7937e-06
1.46756e-06
-6.31469e-06
9.6738e-07
-6.66983e-06
5.68679e-07
-6.84779e-06
1.94882e-07
-6.8239e-06
-1.89454e-07
-6.62703e-06
-5.29868e-07
-6.28998e-06
-8.04954e-07
-5.85092e-06
-1.00652e-06
-5.3415e-06
-1.14643e-06
-4.78532e-06
-1.23994e-06
-4.19192e-06
-1.31934e-06
-3.55107e-06
-1.43231e-06
-2.83624e-06
-1.61925e-06
-2.02116e-06
-1.87899e-06
-1.11364e-06
-2.11269e-06
-2.27726e-07
-2.06392e-06
4.28765e-07
-1.20937e-06
2.2865e-06
-8.3893e-07
-5.27664e-07
-1.63124e-06
4.27866e-06
-2.46183e-06
4.5799e-06
-3.31968e-06
3.86607e-06
-4.14783e-06
3.01875e-06
-4.88703e-06
2.20677e-06
-5.52457e-06
1.60492e-06
-6.01277e-06
1.05688e-06
-6.31305e-06
4.95163e-07
-6.40378e-06
-9.87193e-08
-6.3079e-06
-6.25741e-07
-6.06499e-06
-1.04787e-06
-5.71631e-06
-1.35519e-06
-5.29525e-06
-1.56749e-06
-4.82829e-06
-1.70689e-06
-4.33096e-06
-1.81667e-06
-3.80323e-06
-1.96003e-06
-3.23191e-06
-2.19056e-06
-2.60009e-06
-2.5108e-06
-1.9129e-06
-2.79988e-06
-1.23651e-06
-2.74031e-06
-5.903e-07
-1.85558e-06
1.6962e-06
-9.72271e-07
4.44553e-07
-1.28791e-06
4.59427e-06
-1.68447e-06
4.97644e-06
-2.32843e-06
4.51002e-06
-3.13956e-06
3.82987e-06
-3.96717e-06
3.03437e-06
-4.74154e-06
2.37927e-06
-5.36805e-06
1.68339e-06
-5.79073e-06
9.17842e-07
-5.98192e-06
9.24643e-08
-5.97278e-06
-6.34883e-07
-5.80755e-06
-1.21311e-06
-5.53171e-06
-1.63103e-06
-5.18102e-06
-1.91818e-06
-4.7856e-06
-2.10232e-06
-4.36691e-06
-2.23535e-06
-3.9339e-06
-2.39304e-06
-3.48372e-06
-2.64075e-06
-3.00126e-06
-2.99326e-06
-2.47706e-06
-3.32408e-06
-1.95943e-06
-3.25794e-06
-1.39339e-06
-2.42162e-06
3.02801e-07
-6.39523e-07
1.0841e-06
-5.19076e-07
4.47384e-06
-6.24919e-07
5.0823e-06
-1.17579e-06
5.06089e-06
-2.047e-06
4.70109e-06
-3.00403e-06
3.9914e-06
-3.93732e-06
3.31257e-06
-4.70508e-06
2.45114e-06
-5.24624e-06
1.45901e-06
-5.52637e-06
3.72603e-07
-5.59298e-06
-5.6827e-07
-5.49554e-06
-1.31054e-06
-5.28366e-06
-1.84291e-06
-4.99187e-06
-2.20997e-06
-4.65526e-06
-2.43891e-06
-4.30108e-06
-2.58953e-06
-3.94659e-06
-2.74753e-06
-3.60028e-06
-2.98705e-06
-3.24497e-06
-3.34856e-06
-2.83747e-06
-3.73157e-06
-2.40321e-06
-3.69219e-06
-1.93451e-06
-2.89031e-06
-1.63171e-06
8.64126e-10
1.08321e-06
6.00467e-07
3.87423e-06
6.52332e-07
5.03044e-06
1.08317e-07
5.60491e-06
-8.97484e-07
5.70688e-06
-2.00928e-06
5.10319e-06
-3.10172e-06
4.405e-06
-4.01301e-06
3.36243e-06
-4.63799e-06
2.08398e-06
-4.97199e-06
7.06608e-07
-5.08483e-06
-4.55427e-07
-5.03731e-06
-1.35805e-06
-4.86026e-06
-2.01996e-06
-4.61223e-06
-2.458e-06
-4.33107e-06
-2.72007e-06
-4.04642e-06
-2.87417e-06
-3.78304e-06
-3.0109e-06
-3.56858e-06
-3.2015e-06
-3.37524e-06
-3.5419e-06
-3.05078e-06
-4.05602e-06
-2.49744e-06
-4.24553e-06
-1.83937e-06
-3.54837e-06
-3.47107e-06
9.72227e-07
1.10975e-07
1.90795e-06
2.93851e-06
2.03713e-06
4.90125e-06
1.43313e-06
6.20891e-06
2.99015e-07
6.84099e-06
-1.01156e-06
6.41375e-06
-2.14e-06
5.53342e-06
-3.01377e-06
4.23619e-06
-3.57585e-06
2.64607e-06
-3.88001e-06
1.01076e-06
-3.98847e-06
-3.46968e-07
-3.97956e-06
-1.36695e-06
-3.84953e-06
-2.14998e-06
-3.68678e-06
-2.62074e-06
-3.52927e-06
-2.87757e-06
-3.41164e-06
-2.9918e-06
-3.37095e-06
-3.05159e-06
-3.49322e-06
-3.07923e-06
-3.7423e-06
-3.29281e-06
-3.63058e-06
-4.16773e-06
-2.669e-06
-5.2071e-06
-8.51356e-07
-5.366e-06
-4.32243e-06
2.01715e-06
-1.90618e-06
3.17092e-06
1.78473e-06
3.38722e-06
4.68495e-06
2.74412e-06
6.852e-06
1.62115e-06
7.96395e-06
1.78357e-07
7.85654e-06
-1.09175e-06
6.80352e-06
-1.74015e-06
4.88459e-06
-1.84681e-06
2.75272e-06
-1.74637e-06
9.10334e-07
-1.61841e-06
-4.74925e-07
-1.61041e-06
-1.37495e-06
-1.76827e-06
-1.99211e-06
-2.00782e-06
-2.3812e-06
-2.32735e-06
-2.55805e-06
-2.75499e-06
-2.56416e-06
-3.33772e-06
-2.46886e-06
-4.22168e-06
-2.19527e-06
-5.39979e-06
-2.11471e-06
-5.85983e-06
-3.70769e-06
-5.50875e-06
-5.55817e-06
-4.18345e-06
-6.6913e-06
-8.50588e-06
-1.61586e-05
1.61586e-05
-1.35752e-05
-2.5833e-06
-9.61874e-06
-3.95652e-06
-1.09403e-05
1.3215e-06
-1.28387e-05
1.89845e-06
-1.95655e-05
6.72671e-06
-3.19043e-05
1.23388e-05
-4.42789e-05
1.23746e-05
-4.86954e-05
4.41645e-06
-4.21267e-05
-6.56863e-06
-3.50571e-05
-7.06964e-06
-2.90032e-05
-6.05395e-06
-2.42746e-05
-4.72863e-06
-2.42292e-05
-4.54042e-08
-2.62882e-05
2.05903e-06
-2.5027e-05
-1.2612e-06
-1.95088e-05
-5.51829e-06
-7.27102e-06
-1.22377e-05
-7.27103e-06
-7.87868e-06
2.40375e-05
-4.89214e-06
-5.56978e-06
-4.44066e-06
-4.40795e-06
-6.24577e-06
3.12664e-06
-1.05058e-05
6.15846e-06
-1.58966e-05
1.21175e-05
-2.2741e-05
1.91833e-05
-2.95515e-05
1.9185e-05
-3.332e-05
8.18497e-06
-3.37693e-05
-6.1193e-06
-3.18561e-05
-8.98284e-06
-2.72377e-05
-1.06724e-05
-1.98413e-05
-1.2125e-05
-1.57691e-05
-4.11759e-06
-1.73551e-05
3.64497e-06
-1.5887e-05
-2.72932e-06
-1.00884e-05
-1.13168e-05
-1.49433e-06
-2.08319e-05
-8.76535e-06
-1.3149e-06
2.53524e-05
-1.30276e-06
-5.58192e-06
-3.6346e-06
-2.07613e-06
-6.55399e-06
6.04601e-06
-1.1835e-05
1.14395e-05
-1.68325e-05
1.7115e-05
-2.07923e-05
2.3143e-05
-2.36306e-05
2.20233e-05
-2.70005e-05
1.15549e-05
-3.02484e-05
-2.87136e-06
-3.0345e-05
-8.88626e-06
-2.68472e-05
-1.41703e-05
-2.08078e-05
-1.81644e-05
-1.36113e-05
-1.13141e-05
-9.99772e-06
3.13856e-08
-6.71794e-06
-6.0091e-06
-7.256e-07
-1.73092e-05
4.05612e-06
-2.56136e-05
-4.70923e-06
4.19001e-06
2.11624e-05
-1.1885e-07
-1.27299e-06
-4.56405e-06
2.36912e-06
-8.13576e-06
9.61776e-06
-1.25133e-05
1.5817e-05
-1.71345e-05
2.17362e-05
-2.01342e-05
2.61427e-05
-2.15783e-05
2.34673e-05
-2.44439e-05
1.44205e-05
-2.85657e-05
1.25038e-06
-2.95358e-05
-7.91618e-06
-2.69209e-05
-1.67852e-05
-2.22597e-05
-2.28256e-05
-1.52655e-05
-1.83083e-05
-5.96005e-06
-9.27409e-06
1.41765e-06
-1.33868e-05
8.32156e-06
-2.42131e-05
8.8302e-06
-2.61222e-05
4.12096e-06
5.52175e-06
1.56406e-05
-6.19619e-07
4.86833e-06
-5.86409e-06
7.61355e-06
-9.4183e-06
1.31719e-05
-1.29074e-05
1.93061e-05
-1.61681e-05
2.49968e-05
-1.83846e-05
2.83591e-05
-2.01936e-05
2.52763e-05
-2.30254e-05
1.72523e-05
-2.75995e-05
5.82443e-06
-2.89134e-05
-6.60228e-06
-2.64888e-05
-1.92097e-05
-2.24082e-05
-2.69063e-05
-1.63408e-05
-2.43756e-05
-5.85422e-06
-1.97607e-05
3.93885e-06
-2.31799e-05
1.1838e-05
-3.21123e-05
1.18523e-05
-2.61365e-05
1.59733e-05
3.14721e-06
1.24934e-05
-2.62978e-06
1.06453e-05
-7.50357e-06
1.24873e-05
-1.08052e-05
1.64736e-05
-1.35618e-05
2.20626e-05
-1.57439e-05
2.7179e-05
-1.703e-05
2.96452e-05
-1.85115e-05
2.67578e-05
-2.13338e-05
2.00745e-05
-2.52876e-05
9.77819e-06
-2.76539e-05
-4.236e-06
-2.47388e-05
-2.21249e-05
-2.10962e-05
-3.05489e-05
-1.56371e-05
-2.98347e-05
-6.81574e-06
-2.85821e-05
3.29169e-06
-3.32873e-05
1.06249e-05
-3.94455e-05
1.05092e-05
-2.60208e-05
2.64824e-05
-2.14576e-06
1.46391e-05
-5.74566e-06
1.42452e-05
-9.21867e-06
1.59603e-05
-1.2099e-05
1.9354e-05
-1.44424e-05
2.4406e-05
-1.59984e-05
2.8735e-05
-1.67532e-05
3.04e-05
-1.76923e-05
2.76968e-05
-1.9667e-05
2.20493e-05
-2.25228e-05
1.2634e-05
-2.41011e-05
-2.65778e-06
-2.21806e-05
-2.40454e-05
-1.92974e-05
-3.3432e-05
-1.40893e-05
-3.50428e-05
-6.43728e-06
-3.62341e-05
1.87824e-06
-4.16028e-05
6.98561e-06
-4.45528e-05
8.36649e-06
-2.74017e-05
3.4849e-05
-7.71307e-06
2.23522e-05
-9.2865e-06
1.58186e-05
-1.11097e-05
1.77836e-05
-1.31781e-05
2.14223e-05
-1.51182e-05
2.63461e-05
-1.64001e-05
3.00169e-05
-1.68063e-05
3.08063e-05
-1.71996e-05
2.80901e-05
-1.81015e-05
2.29512e-05
-1.95193e-05
1.40518e-05
-1.98563e-05
-2.32072e-06
-1.90683e-05
-2.48334e-05
-1.68678e-05
-3.56325e-05
-1.23102e-05
-3.96005e-05
-5.5942e-06
-4.29501e-05
8.43744e-07
-4.80407e-05
3.76448e-06
-4.74736e-05
4.9112e-06
-2.85484e-05
3.97601e-05
6.68752e-06
-8.59369e-06
9.76301e-06
-1.29077e-06
1.10406e-05
3.40733e-06
9.75522e-06
8.1374e-06
5.45369e-06
1.22655e-05
2.28631e-06
1.10239e-05
9.2037e-07
8.16946e-06
8.41255e-07
4.96372e-06
1.17497e-06
2.41903e-06
1.3256e-06
7.59713e-07
1.02357e-06
-1.72887e-07
2.49347e-07
-6.00726e-07
-1.02483e-06
-7.17933e-07
-2.67842e-06
-7.27607e-07
-4.67138e-06
-5.65091e-07
-7.01214e-06
-2.23412e-07
-9.60592e-06
1.24917e-07
-1.2899e-05
1.09783e-06
-1.70763e-05
2.06257e-06
-2.03884e-05
-3.95642e-07
-2.26306e-05
-3.31601e-06
-2.565e-05
-3.67183e-06
1.16585e-06
-3.53218e-05
9.63534e-06
-1.8229e-05
8.16785e-06
1.76744e-07
2.01107e-06
9.56411e-06
-1.98944e-06
1.21379e-05
-2.36302e-06
1.26391e-05
-1.51115e-06
1.01721e-05
-1.0821e-07
6.76655e-06
9.71613e-07
3.88391e-06
1.3445e-06
2.04615e-06
9.27569e-07
1.17666e-06
-2.39629e-07
9.94318e-07
-2.04433e-06
1.20399e-06
-4.47283e-06
1.71057e-06
-7.30204e-06
2.10161e-06
-1.0362e-05
2.49486e-06
-1.41191e-05
3.53375e-06
-1.82692e-05
4.27497e-06
-2.25485e-05
5.37712e-06
-2.69938e-05
6.50789e-06
-3.32386e-05
5.8491e-06
-3.95215e-05
2.96695e-06
-4.58675e-05
2.67416e-06
4.04872e-06
-4.87504e-05
-9.83811e-06
-8.39084e-06
-1.27601e-05
3.09878e-06
-1.21536e-05
8.95763e-06
-1.06773e-05
1.06616e-05
-7.85832e-06
9.82014e-06
-4.9758e-06
7.28957e-06
-2.90911e-06
4.69987e-06
-1.97959e-06
2.95441e-06
-2.17822e-06
2.2448e-06
-3.39764e-06
2.39608e-06
-5.46348e-06
3.06016e-06
-8.02708e-06
3.76759e-06
-1.13734e-05
5.05694e-06
-1.54339e-05
6.16208e-06
-1.99913e-05
7.05222e-06
-2.51169e-05
8.65943e-06
-3.19075e-05
1.10656e-05
-3.88046e-05
1.22742e-05
-4.39859e-05
1.16891e-05
-4.85391e-05
1.04024e-05
-5.34988e-05
7.92656e-06
-5.72079e-05
6.38327e-06
5.55879e-06
-5.87179e-05
-1.20798e-05
3.68903e-06
-1.53672e-05
6.38628e-06
-1.50305e-05
8.62089e-06
-1.29698e-05
8.60097e-06
-1.02643e-05
7.11476e-06
-7.99793e-06
5.02317e-06
-6.74375e-06
3.44571e-06
-6.71636e-06
2.92703e-06
-7.81161e-06
3.34006e-06
-9.75425e-06
4.33872e-06
-1.28434e-05
6.14933e-06
-1.63602e-05
7.28442e-06
-2.09524e-05
9.64909e-06
-2.66935e-05
1.19032e-05
-3.42366e-05
1.45953e-05
-4.11926e-05
1.56155e-05
-4.6844e-05
1.6717e-05
-5.15118e-05
1.6942e-05
-5.56101e-05
1.57875e-05
-5.91644e-05
1.39566e-05
-6.2596e-05
1.13582e-05
-6.50927e-05
8.8799e-06
6.78759e-06
-6.63215e-05
-8.16228e-06
1.18514e-05
-1.24658e-05
1.06899e-05
-1.37567e-05
9.91176e-06
-1.34069e-05
8.25126e-06
-1.24429e-05
6.15072e-06
-1.17568e-05
4.33715e-06
-1.18549e-05
3.54379e-06
-1.28915e-05
3.96367e-06
-1.50625e-05
5.5111e-06
-1.80672e-05
7.34341e-06
-2.25578e-05
1.064e-05
-2.85711e-05
1.32977e-05
-3.55786e-05
1.66567e-05
-4.21347e-05
1.84593e-05
-4.7519e-05
1.99796e-05
-5.24527e-05
2.05492e-05
-5.65991e-05
2.08634e-05
-6.01172e-05
2.046e-05
-6.33417e-05
1.90121e-05
-6.62414e-05
1.68563e-05
-6.88521e-05
1.3969e-05
-7.07743e-05
1.08021e-05
7.96273e-06
-7.19494e-05
-6.07009e-06
1.79215e-05
-1.08228e-05
1.54427e-05
-1.37382e-05
1.28272e-05
-1.53549e-05
9.86804e-06
-1.63512e-05
7.14701e-06
-1.73244e-05
5.31036e-06
-1.86861e-05
4.90555e-06
-2.10226e-05
6.30016e-06
-2.46435e-05
9.13204e-06
-3.0283e-05
1.29829e-05
-3.65522e-05
1.69093e-05
-4.3039e-05
1.97845e-05
-4.79679e-05
2.15856e-05
-5.23144e-05
2.28058e-05
-5.60474e-05
2.37127e-05
-5.95513e-05
2.40531e-05
-6.26605e-05
2.39726e-05
-6.53685e-05
2.3168e-05
-6.78894e-05
2.1533e-05
-7.03016e-05
1.92685e-05
-7.25259e-05
1.61932e-05
-7.4141e-05
1.24172e-05
9.12044e-06
-7.52987e-05
-6.39202e-06
2.43136e-05
-1.22767e-05
2.13274e-05
-1.67676e-05
1.73181e-05
-2.00974e-05
1.31979e-05
-2.27497e-05
9.79932e-06
-2.51135e-05
7.67415e-06
-2.77644e-05
7.55653e-06
-3.19105e-05
1.04462e-05
-3.75226e-05
1.47442e-05
-4.36309e-05
1.90912e-05
-4.84268e-05
2.17052e-05
-5.23388e-05
2.36965e-05
-5.5756e-05
2.50029e-05
-5.87472e-05
2.57969e-05
-6.12817e-05
2.62471e-05
-6.36083e-05
2.63798e-05
-6.57851e-05
2.61494e-05
-6.77392e-05
2.51221e-05
-6.95394e-05
2.33331e-05
-7.14539e-05
2.11831e-05
-7.36022e-05
1.83416e-05
-7.4916e-05
1.37309e-05
9.67412e-06
-7.54696e-05
-9.41378e-06
3.37275e-05
-1.70184e-05
2.89321e-05
-2.27329e-05
2.30327e-05
-2.73045e-05
1.77695e-05
-3.12403e-05
1.37351e-05
-3.48289e-05
1.12628e-05
-3.9201e-05
1.19286e-05
-4.42887e-05
1.55339e-05
-4.91815e-05
1.96371e-05
-5.2747e-05
2.26567e-05
-5.57809e-05
2.47391e-05
-5.83437e-05
2.62593e-05
-6.05854e-05
2.72446e-05
-6.24801e-05
2.76916e-05
-6.39622e-05
2.77291e-05
-6.51959e-05
2.76135e-05
-6.65327e-05
2.74861e-05
-6.7816e-05
2.64054e-05
-6.88554e-05
2.43725e-05
-7.01546e-05
2.24822e-05
-7.21894e-05
2.03764e-05
-7.33821e-05
1.49235e-05
8.78714e-06
-7.2495e-05
-1.4225e-05
4.79525e-05
-2.35038e-05
3.82109e-05
-2.98112e-05
2.934e-05
-3.52519e-05
2.32102e-05
-4.07805e-05
1.92638e-05
-4.5952e-05
1.64343e-05
-5.08565e-05
1.68331e-05
-5.43438e-05
1.90211e-05
-5.66259e-05
2.19192e-05
-5.85642e-05
2.45949e-05
-6.02725e-05
2.64474e-05
-6.16832e-05
2.76699e-05
-6.30215e-05
2.8583e-05
-6.41326e-05
2.88027e-05
-6.48742e-05
2.84707e-05
-6.52651e-05
2.80044e-05
-6.58161e-05
2.80371e-05
-6.63441e-05
2.69334e-05
-6.6311e-05
2.43393e-05
-6.64336e-05
2.26049e-05
-6.77739e-05
2.17165e-05
-6.89298e-05
1.60792e-05
1.01271e-05
-7.02697e-05
-1.84295e-05
6.63818e-05
-2.85205e-05
4.83015e-05
-3.50429e-05
3.58622e-05
-4.22175e-05
3.03847e-05
-5.17234e-05
2.87695e-05
-5.84978e-05
2.32086e-05
-6.07051e-05
1.90403e-05
-6.13881e-05
1.97041e-05
-6.15397e-05
2.20708e-05
-6.19455e-05
2.50007e-05
-6.26063e-05
2.71082e-05
-6.31047e-05
2.81684e-05
-6.36299e-05
2.91081e-05
-6.40594e-05
2.9232e-05
-6.41457e-05
2.8557e-05
-6.38757e-05
2.77342e-05
-6.36659e-05
2.78272e-05
-6.3904e-05
2.71713e-05
-6.48148e-05
2.525e-05
-6.5427e-05
2.3217e-05
-6.56834e-05
2.19727e-05
-6.79825e-05
1.83782e-05
1.35849e-05
-7.14402e-05
-1.78403e-05
8.42203e-05
-2.70552e-05
5.75148e-05
-3.47601e-05
4.35662e-05
-4.59427e-05
4.15667e-05
-6.68405e-05
4.96665e-05
-6.8638e-05
2.50058e-05
-6.75292e-05
1.79312e-05
-6.6282e-05
1.84568e-05
-6.4791e-05
2.05797e-05
-6.35762e-05
2.37859e-05
-6.30351e-05
2.65671e-05
-6.26869e-05
2.78201e-05
-6.25592e-05
2.89803e-05
-6.29827e-05
2.96553e-05
-6.41971e-05
2.97712e-05
-6.53552e-05
2.88922e-05
-6.68924e-05
2.93642e-05
-6.92854e-05
2.95641e-05
-7.19163e-05
2.78807e-05
-7.39063e-05
2.52068e-05
-7.44758e-05
2.25422e-05
-7.4953e-05
1.88554e-05
1.44418e-05
-7.58095e-05
-1.60505e-05
0.000100262
-1.53666e-05
5.68284e-05
-3.38042e-05
6.20023e-05
-5.45436e-05
6.23052e-05
-6.82838e-05
6.34054e-05
-6.78873e-05
2.46082e-05
-6.78767e-05
1.79202e-05
-6.77654e-05
1.83455e-05
-6.62325e-05
1.90467e-05
-6.51249e-05
2.26782e-05
-6.49549e-05
2.63969e-05
-6.53403e-05
2.82052e-05
-6.67243e-05
3.0364e-05
-6.95565e-05
3.24872e-05
-7.29124e-05
3.3127e-05
-7.57861e-05
3.17658e-05
-7.69254e-05
3.05036e-05
-7.69037e-05
2.95425e-05
-7.67241e-05
2.77013e-05
-7.66865e-05
2.51691e-05
-7.62254e-05
2.20811e-05
-7.55073e-05
1.81375e-05
1.37929e-05
-7.48579e-05
2.49048e-05
7.53573e-05
4.10016e-06
7.76341e-05
-1.65978e-05
8.27008e-05
-3.36043e-05
7.93122e-05
-3.82064e-05
6.8008e-05
-5.03177e-05
3.67191e-05
-6.35476e-05
3.11497e-05
-7.01759e-05
2.49737e-05
-7.24984e-05
2.13691e-05
-7.37627e-05
2.39425e-05
-7.47042e-05
2.73383e-05
-7.61416e-05
2.96426e-05
-7.6947e-05
3.11695e-05
-7.72174e-05
3.27578e-05
-7.74666e-05
3.33763e-05
-7.81381e-05
3.24375e-05
-7.8199e-05
3.05647e-05
-7.72408e-05
2.85846e-05
-7.59317e-05
2.63923e-05
-7.43878e-05
2.36252e-05
-7.26276e-05
2.0321e-05
-7.09292e-05
1.64392e-05
1.21551e-05
-6.9291e-05
1.02926e-05
6.50747e-05
-2.58501e-06
9.05158e-05
-1.1368e-05
9.14865e-05
-1.78127e-05
8.57588e-05
-2.24562e-05
7.26533e-05
-3.53079e-05
4.95722e-05
-4.65275e-05
4.23699e-05
-5.67413e-05
3.51879e-05
-6.44552e-05
2.90833e-05
-6.87604e-05
2.8248e-05
-7.16357e-05
3.02138e-05
-7.3682e-05
3.16891e-05
-7.495e-05
3.24377e-05
-7.51632e-05
3.29713e-05
-7.49064e-05
3.31197e-05
-7.41791e-05
3.17103e-05
-7.30084e-05
2.93941e-05
-7.13788e-05
2.69552e-05
-6.92891e-05
2.43027e-05
-6.70718e-05
2.14079e-05
-6.47892e-05
1.80384e-05
-6.25914e-05
1.42415e-05
9.99097e-06
-6.0427e-05
-1.17182e-05
7.6796e-05
-9.45593e-06
8.82559e-05
-7.65541e-06
8.96877e-05
-8.36868e-06
8.64734e-05
-1.25492e-05
7.68351e-05
-2.29068e-05
5.9931e-05
-3.24137e-05
5.18777e-05
-4.1332e-05
4.41068e-05
-4.96979e-05
3.74495e-05
-5.63555e-05
3.49059e-05
-6.06543e-05
3.45128e-05
-6.3345e-05
3.438e-05
-6.49363e-05
3.40293e-05
-6.54619e-05
3.3497e-05
-6.49259e-05
3.25839e-05
-6.39139e-05
3.06984e-05
-6.25715e-05
2.80518e-05
-6.07324e-05
2.51162e-05
-5.85477e-05
2.21182e-05
-5.61258e-05
1.8986e-05
-5.37338e-05
1.56464e-05
-5.14571e-05
1.19648e-05
7.76839e-06
-4.92342e-05
-4.93953e-06
8.17374e-05
-3.02898e-06
8.63466e-05
-5.90038e-07
8.72497e-05
3.82526e-07
8.55016e-05
-1.878e-06
7.90962e-05
-9.87387e-06
6.79274e-05
-1.77408e-05
5.97451e-05
-2.57743e-05
5.21407e-05
-3.37924e-05
4.54679e-05
-4.03165e-05
4.14301e-05
-4.4937e-05
3.91335e-05
-4.79781e-05
3.74211e-05
-4.97706e-05
3.58219e-05
-5.04792e-05
3.42056e-05
-5.02489e-05
3.23536e-05
-4.94747e-05
2.99243e-05
-4.83677e-05
2.69449e-05
-4.68794e-05
2.36279e-05
-4.50224e-05
2.02612e-05
-4.28726e-05
1.68362e-05
-4.06363e-05
1.341e-05
-3.84813e-05
9.80986e-06
5.70355e-06
-3.64162e-05
-1.01695e-06
8.27543e-05
1.56983e-06
8.37598e-05
4.54861e-06
8.4271e-05
6.53663e-06
8.35137e-05
6.0151e-06
7.96179e-05
1.64927e-06
7.22934e-05
-3.90487e-06
6.52994e-05
-1.01989e-05
5.84349e-05
-1.6796e-05
5.20651e-05
-2.25408e-05
4.7175e-05
-2.69135e-05
4.35063e-05
-2.99693e-05
4.04771e-05
-3.18897e-05
3.77423e-05
-3.28179e-05
3.51339e-05
-3.29211e-05
3.24569e-05
-3.24977e-05
2.9501e-05
-3.17511e-05
2.61983e-05
-3.07815e-05
2.26583e-05
-2.95087e-05
1.89885e-05
-2.7981e-05
1.53085e-05
-2.62138e-05
1.16428e-05
-2.4374e-05
7.97002e-06
3.9313e-06
-2.26014e-05
1.42444e-06
8.1329e-05
4.42442e-06
8.07592e-05
7.88355e-06
8.08115e-05
1.08461e-05
8.05509e-05
1.21011e-05
7.83628e-05
1.06727e-05
7.37217e-05
7.692e-06
6.828e-05
3.6731e-06
6.24538e-05
-9.15152e-07
5.66533e-05
-5.25291e-06
5.15128e-05
-8.82897e-06
4.70824e-05
-1.15089e-05
4.3157e-05
-1.33276e-05
3.95611e-05
-1.43622e-05
3.61685e-05
-1.47379e-05
3.28327e-05
-1.46348e-05
2.93979e-05
-1.42418e-05
2.58053e-05
-1.36539e-05
2.20705e-05
-1.29025e-05
1.82371e-05
-1.19882e-05
1.43941e-05
-1.08926e-05
1.05472e-05
-9.61662e-06
6.69414e-06
2.64397e-06
-8.32898e-06
2.81872e-06
7.85093e-05
6.21621e-06
7.7361e-05
1.00093e-05
7.70179e-05
1.36897e-05
7.68702e-05
1.63717e-05
7.56805e-05
1.72795e-05
7.28138e-05
1.67235e-05
6.88359e-05
1.50463e-05
6.41309e-05
1.26255e-05
5.90741e-05
1.00116e-05
5.41267e-05
7.62244e-06
4.94716e-05
5.66675e-06
4.51127e-05
4.21721e-06
4.10106e-05
3.27734e-06
3.71084e-05
2.79217e-06
3.33179e-05
2.6503e-06
2.95398e-05
2.74464e-06
2.5711e-05
2.99634e-06
2.18189e-05
3.34843e-06
1.78851e-05
3.80667e-06
1.39358e-05
4.36388e-06
9.99005e-06
5.03444e-06
6.02356e-06
1.94915e-06
5.72965e-06
3.71446e-06
7.47941e-05
7.40849e-06
7.36664e-05
1.13963e-05
7.30297e-05
1.55002e-05
7.2766e-05
1.91482e-05
7.20324e-05
2.17329e-05
7.02289e-05
2.31742e-05
6.73945e-05
2.35838e-05
6.37214e-05
2.31779e-05
5.94799e-05
2.22982e-05
5.50064e-05
2.12526e-05
5.05172e-05
2.02479e-05
4.61175e-05
1.94048e-05
4.18537e-05
1.87833e-05
3.77299e-05
1.83894e-05
3.37118e-05
1.81841e-05
2.97452e-05
1.81094e-05
2.57858e-05
1.81167e-05
2.18116e-05
1.81798e-05
1.7822e-05
1.8287e-05
1.38286e-05
1.84399e-05
9.83706e-06
1.8638e-05
5.82561e-06
1.75554e-06
1.8832e-05
4.28365e-06
7.051e-05
8.21611e-06
6.97337e-05
1.23095e-05
6.89361e-05
1.66032e-05
6.84722e-05
2.07868e-05
6.78487e-05
2.4423e-05
6.65927e-05
2.72834e-05
6.45341e-05
2.93085e-05
6.16963e-05
3.05614e-05
5.82269e-05
3.12159e-05
5.43519e-05
3.1468e-05
5.02652e-05
3.14826e-05
4.61028e-05
3.13842e-05
4.19522e-05
3.12574e-05
3.78568e-05
3.11472e-05
3.3822e-05
3.10633e-05
2.98291e-05
3.09946e-05
2.58546e-05
3.09244e-05
2.1882e-05
3.08411e-05
1.79053e-05
3.0744e-05
1.39258e-05
3.06382e-05
9.94282e-06
3.0518e-05
5.94584e-06
1.91812e-06
3.03558e-05
4.62533e-06
6.58845e-05
8.74324e-06
6.56157e-05
1.28871e-05
6.47923e-05
1.7209e-05
6.41503e-05
2.15892e-05
6.34685e-05
2.57509e-05
6.2431e-05
2.94543e-05
6.08307e-05
3.25543e-05
5.85964e-05
3.50054e-05
5.57758e-05
3.68575e-05
5.24999e-05
3.82083e-05
4.89144e-05
3.91662e-05
4.5145e-05
3.98316e-05
4.12868e-05
4.02877e-05
3.74008e-05
4.05944e-05
3.35154e-05
4.07877e-05
2.96359e-05
4.08855e-05
2.57568e-05
4.08964e-05
2.18711e-05
4.08265e-05
1.79753e-05
4.0683e-05
1.40693e-05
4.04729e-05
1.01529e-05
4.01961e-05
6.22273e-06
2.2773e-06
3.98372e-05
4.78609e-06
6.10985e-05
9.0257e-06
6.13762e-05
1.31764e-05
6.06417e-05
1.74274e-05
5.98994e-05
2.17762e-05
5.91197e-05
2.60784e-05
5.8129e-05
3.01474e-05
5.67617e-05
3.38236e-05
5.49203e-05
3.70072e-05
5.25923e-05
3.96696e-05
4.98375e-05
4.18349e-05
4.67492e-05
4.35564e-05
4.34236e-05
4.48995e-05
3.99438e-05
4.59297e-05
3.63707e-05
4.67032e-05
3.27419e-05
4.72634e-05
2.90757e-05
4.76413e-05
2.5379e-05
4.78591e-05
2.16535e-05
4.79337e-05
1.79007e-05
4.78795e-05
1.41235e-05
4.77071e-05
1.03253e-05
4.74204e-05
6.50947e-06
2.68432e-06
4.70137e-05
4.77407e-06
5.63248e-05
9.05841e-06
5.70921e-05
1.31776e-05
5.65227e-05
1.73049e-05
5.57724e-05
2.14958e-05
5.49289e-05
2.56985e-05
5.39264e-05
2.97969e-05
5.26633e-05
3.36599e-05
5.10574e-05
3.71784e-05
4.90738e-05
4.02873e-05
4.67287e-05
4.29644e-05
4.40722e-05
4.52203e-05
4.11679e-05
4.70861e-05
3.8078e-05
4.86033e-05
3.48536e-05
4.98141e-05
3.15312e-05
5.07564e-05
2.81335e-05
5.14619e-05
2.46736e-05
5.1956e-05
2.11594e-05
5.22597e-05
1.75971e-05
5.23898e-05
1.39934e-05
5.23593e-05
1.03558e-05
5.21755e-05
6.69339e-06
3.02121e-06
5.1839e-05
4.61447e-06
5.17107e-05
8.85108e-06
5.28558e-05
1.28913e-05
5.24827e-05
1.68651e-05
5.17988e-05
2.08426e-05
5.09516e-05
2.48251e-05
4.99441e-05
2.87562e-05
4.87324e-05
3.25482e-05
4.72655e-05
3.61112e-05
4.5511e-05
3.93741e-05
4.34658e-05
4.22942e-05
4.11522e-05
4.48554e-05
3.86067e-05
4.70627e-05
3.58708e-05
4.89345e-05
3.29819e-05
5.04959e-05
2.99698e-05
5.17734e-05
2.68561e-05
5.27917e-05
2.36554e-05
5.35726e-05
2.03786e-05
5.4135e-05
1.70348e-05
5.44945e-05
1.36338e-05
5.46637e-05
1.01866e-05
5.46509e-05
6.7062e-06
3.21174e-06
5.44608e-05
4.33719e-06
4.73741e-05
8.43253e-06
4.87609e-05
1.23402e-05
4.85754e-05
1.61375e-05
4.80017e-05
1.98842e-05
4.72051e-05
2.36035e-05
4.62249e-05
2.72781e-05
4.50579e-05
3.086e-05
4.36836e-05
3.42877e-05
4.20834e-05
3.75028e-05
4.02509e-05
4.04603e-05
3.81947e-05
4.3133e-05
3.59342e-05
4.55097e-05
3.34941e-05
4.75923e-05
3.08994e-05
4.93903e-05
2.81719e-05
5.09177e-05
2.53287e-05
5.21897e-05
2.23836e-05
5.32208e-05
1.93475e-05
5.40245e-05
1.62312e-05
5.46124e-05
1.30458e-05
5.49944e-05
9.80455e-06
5.51781e-05
6.52265e-06
3.22106e-06
5.51691e-05
3.98405e-06
4.33903e-05
7.85502e-06
4.48903e-05
1.15737e-05
4.4857e-05
1.51701e-05
4.44056e-05
1.86819e-05
4.36934e-05
2.21341e-05
4.27729e-05
2.55287e-05
4.16634e-05
2.88453e-05
4.03671e-05
3.20485e-05
3.88803e-05
3.50981e-05
3.72014e-05
3.79576e-05
3.53353e-05
4.05994e-05
3.32925e-05
4.30062e-05
3.10875e-05
4.51698e-05
2.87359e-05
4.70893e-05
2.62524e-05
4.87682e-05
2.36498e-05
5.02127e-05
2.09392e-05
5.14294e-05
1.81308e-05
5.24256e-05
1.52351e-05
5.32075e-05
1.22639e-05
5.37812e-05
9.23089e-06
5.41517e-05
6.1522e-06
3.04881e-06
5.43243e-05
3.58961e-06
3.98014e-05
7.17473e-06
4.13056e-05
1.06559e-05
4.13762e-05
1.40261e-05
4.10355e-05
1.73e-05
4.04197e-05
2.04941e-05
3.9579e-05
2.36157e-05
3.85419e-05
2.66593e-05
3.73236e-05
2.9608e-05
3.59317e-05
3.24379e-05
3.43716e-05
3.51243e-05
3.2649e-05
3.76449e-05
3.07719e-05
3.99827e-05
2.87497e-05
4.21261e-05
2.65925e-05
4.40685e-05
2.43101e-05
4.58066e-05
2.19118e-05
4.73397e-05
1.94062e-05
4.86682e-05
1.68024e-05
4.97934e-05
1.411e-05
5.07165e-05
1.13407e-05
5.14395e-05
8.50794e-06
5.19642e-05
5.62758e-06
2.7196e-06
5.22937e-05
3.18438e-06
3.66173e-05
6.4454e-06
3.8045e-05
9.65213e-06
3.81697e-05
1.27735e-05
3.79144e-05
1.58044e-05
3.7389e-05
1.87495e-05
3.66341e-05
2.16136e-05
3.56779e-05
2.43966e-05
3.45406e-05
2.70919e-05
3.32366e-05
2.96872e-05
3.17763e-05
3.21679e-05
3.01685e-05
3.45188e-05
2.84211e-05
3.67265e-05
2.65421e-05
3.87801e-05
2.4539e-05
4.06709e-05
2.24193e-05
4.23928e-05
2.019e-05
4.39408e-05
1.78583e-05
4.53111e-05
1.54321e-05
4.65007e-05
1.29205e-05
4.7507e-05
1.03344e-05
4.8328e-05
7.68698e-06
4.89624e-05
4.99315e-06
2.2715e-06
4.94108e-05
2.78772e-06
3.38302e-05
5.70831e-06
3.51247e-05
8.61895e-06
3.52594e-05
1.14747e-05
3.50588e-05
1.42566e-05
3.46072e-05
1.69584e-05
3.39325e-05
1.9579e-05
3.30574e-05
2.21182e-05
3.20016e-05
2.45731e-05
3.07817e-05
2.69384e-05
2.94112e-05
2.9206e-05
2.79009e-05
3.13671e-05
2.62601e-05
3.34125e-05
2.44967e-05
3.53337e-05
2.26179e-05
3.71229e-05
2.06301e-05
3.87732e-05
1.85398e-05
4.02782e-05
1.63534e-05
4.1632e-05
1.40784e-05
4.2829e-05
1.17236e-05
4.38639e-05
9.29957e-06
4.47319e-05
6.81891e-06
4.54292e-05
4.29591e-06
1.74777e-06
4.59532e-05
2.41398e-06
3.14164e-05
4.99429e-06
3.25447e-05
7.60002e-06
3.26538e-05
1.01807e-05
3.24783e-05
1.27091e-05
3.2079e-05
1.51704e-05
3.14713e-05
1.75575e-05
3.06704e-05
1.9867e-05
2.96922e-05
2.20964e-05
2.85524e-05
2.42427e-05
2.72649e-05
2.6302e-05
2.58417e-05
2.82692e-05
2.42929e-05
3.01391e-05
2.26269e-05
3.19056e-05
2.08514e-05
3.3563e-05
1.89728e-05
3.51052e-05
1.69977e-05
3.65259e-05
1.49327e-05
3.78188e-05
1.27855e-05
3.89774e-05
1.0565e-05
3.9995e-05
8.2819e-06
4.08653e-05
5.94862e-06
4.15821e-05
3.57923e-06
1.18999e-06
4.21401e-05
2.0704e-06
2.93465e-05
4.32261e-06
3.02927e-05
6.62583e-06
3.03508e-05
8.92955e-06
3.01747e-05
1.12028e-05
2.98059e-05
1.34256e-05
2.92487e-05
1.55856e-05
2.85104e-05
1.76759e-05
2.7602e-05
1.96921e-05
2.65362e-05
2.16313e-05
2.53258e-05
2.34909e-05
2.39822e-05
2.52681e-05
2.25157e-05
2.69598e-05
2.09353e-05
2.85625e-05
1.92487e-05
3.00721e-05
1.74632e-05
3.14842e-05
1.55857e-05
3.27936e-05
1.36234e-05
3.39946e-05
1.15845e-05
3.50811e-05
9.47855e-06
3.60462e-05
7.31677e-06
3.68827e-05
5.1121e-06
3.7583e-05
2.87903e-06
6.33725e-07
3.81395e-05
1.7613e-06
2.75851e-05
3.70528e-06
2.83488e-05
5.7163e-06
2.83399e-05
7.7477e-06
2.81434e-05
9.76824e-06
2.77854e-05
1.17553e-05
2.72616e-05
1.36933e-05
2.65724e-05
1.55718e-05
2.57236e-05
1.73841e-05
2.47239e-05
1.91262e-05
2.35837e-05
2.07951e-05
2.23132e-05
2.23888e-05
2.0922e-05
2.39053e-05
1.94188e-05
2.53424e-05
1.78116e-05
2.66977e-05
1.61079e-05
2.79681e-05
1.43152e-05
2.91502e-05
1.24414e-05
3.02395e-05
1.04952e-05
3.12309e-05
8.48714e-06
3.21182e-05
6.42939e-06
3.28943e-05
4.33606e-06
3.35505e-05
2.22288e-06
1.07141e-07
3.40772e-05
1.48741e-06
2.6098e-05
3.14795e-06
2.66884e-05
4.88338e-06
2.66045e-05
6.65293e-06
2.63739e-05
8.42745e-06
2.60109e-05
1.0184e-05
2.55051e-05
1.19051e-05
2.48514e-05
1.3578e-05
2.40506e-05
1.5194e-05
2.3108e-05
1.67471e-05
2.20306e-05
1.82337e-05
2.08267e-05
1.9651e-05
1.95047e-05
2.09974e-05
1.80724e-05
2.22714e-05
1.65377e-05
2.34713e-05
1.4908e-05
2.45956e-05
1.3191e-05
2.5642e-05
1.13949e-05
2.6608e-05
9.52927e-06
2.74899e-05
7.60526e-06
2.82828e-05
5.63641e-06
2.89801e-05
3.63877e-06
2.95725e-05
1.63054e-06
-3.69286e-07
3.00491e-05
1.2487e-06
2.48491e-05
2.65338e-06
2.52837e-05
4.13409e-06
2.51238e-05
5.65714e-06
2.48508e-05
7.19671e-06
2.44713e-05
8.73103e-06
2.39708e-05
1.02422e-05
2.33401e-05
1.17164e-05
2.25765e-05
1.31431e-05
2.16812e-05
1.4515e-05
2.06587e-05
1.58269e-05
1.95148e-05
1.70754e-05
1.82562e-05
1.82581e-05
1.68896e-05
1.93736e-05
1.54222e-05
2.04206e-05
1.38609e-05
2.13984e-05
1.22132e-05
2.2306e-05
1.04873e-05
2.31425e-05
8.69278e-06
2.39064e-05
6.84139e-06
2.45947e-05
4.94804e-06
2.52021e-05
3.03136e-06
2.5719e-05
1.11365e-06
-7.82002e-07
2.61319e-05
1.04378e-06
2.38055e-05
2.22195e-06
2.41055e-05
3.47261e-06
2.38731e-05
4.76893e-06
2.35545e-05
6.08906e-06
2.31511e-05
7.41336e-06
2.26464e-05
8.72474e-06
2.20287e-05
1.0009e-05
2.12921e-05
1.1255e-05
2.04352e-05
1.2454e-05
1.94597e-05
1.35997e-05
1.83691e-05
1.46875e-05
1.71684e-05
1.57141e-05
1.5863e-05
1.66775e-05
1.44588e-05
1.75762e-05
1.29622e-05
1.84097e-05
1.13798e-05
1.9178e-05
9.71901e-06
1.98819e-05
7.9889e-06
2.05222e-05
6.20106e-06
2.1099e-05
4.37119e-06
2.16094e-05
2.52095e-06
2.20441e-05
6.79037e-07
-1.12285e-06
2.2385e-05
8.71671e-07
2.29335e-05
1.85422e-06
2.31228e-05
2.90248e-06
2.28247e-05
3.99591e-06
2.2461e-05
5.11652e-06
2.20305e-05
6.24732e-06
2.15156e-05
7.37284e-06
2.09032e-05
8.47951e-06
2.01854e-05
9.55591e-06
1.93588e-05
1.05927e-05
1.84228e-05
1.15826e-05
1.73792e-05
1.25197e-05
1.62313e-05
1.33995e-05
1.49831e-05
1.4219e-05
1.36394e-05
1.49757e-05
1.22054e-05
1.56688e-05
1.06866e-05
1.62987e-05
9.08914e-06
1.68674e-05
7.42027e-06
1.73784e-05
5.69005e-06
1.78359e-05
3.91362e-06
1.82418e-05
2.1151e-06
1.85885e-05
3.3229e-07
-1.38596e-06
1.88518e-05
7.31722e-07
2.22019e-05
1.55181e-06
2.23027e-05
2.42878e-06
2.19477e-05
3.34693e-06
2.15427e-05
4.29205e-06
2.10853e-05
5.25024e-06
2.05573e-05
6.20822e-06
1.99451e-05
7.15367e-06
1.92399e-05
8.07561e-06
1.84368e-05
8.96447e-06
1.75339e-05
9.81201e-06
1.65316e-05
1.06113e-05
1.54319e-05
1.13564e-05
1.42379e-05
1.20426e-05
1.29532e-05
1.2666e-05
1.1582e-05
1.32243e-05
1.01283e-05
1.37171e-05
8.59636e-06
1.41467e-05
6.99069e-06
1.4519e-05
5.31772e-06