/*--------------------------------*- C++ -*----------------------------------*\
  =========                 |
  \\      /  F ield         | OpenFOAM: The Open Source CFD Toolbox
   \\    /   O peration     | Website:  https://openfoam.org
    \\  /    A nd           | Version:  13
     \\/     M anipulation  |
\*---------------------------------------------------------------------------*/
FoamFile
{
    format      ascii;
    class       volScalarField;
    location    "1.05";
    object      rho;
}
// * * * * * * * * * * * * * * * * * * * * * * * * * * * * * * * * * * * * * //

dimensions      [1 -3 0 0 0 0 0];

internalField   nonuniform List<scalar> 
2268
(
13529
13529
13529
13529
13529
13529
13529
13529
13529
13529
13529
13529
13529
13529
13529
13529
13529
13529
13529
13529
13527.3
13521.7
13521.6
13529
13529
13529
13529
13529
13529
13529
13529
13529
13529
13529
13529
13529
13529
13529
13529
13529
13529
13529
13529
13529
13527.3
13521.6
13529
13529
13529
13529
13529
13529
13529
13529
13529
13529
13529
13529
13529
13529
13529
13529
13529
13529
13529
13529
13529
13529
13527.9
13529
13529
13529
13529
13529
13529
13529
13529
13529
13529
13529
13529
13529
13529
13529
13529
13529
13529
13529
13529
13529
13529
13529
13529
13529
13529
13529
13529
13529
13529
13529
13529
13529
13529
13529
13525
13496.9
13454.4
13409.5
13366.4
13324.9
13278
13205.9
13090.6
12981.2
13051.1
13529
13529
13529
13529
13529
13529
13529
13501
12615
11402.1
10163
9038.46
7957.49
7183.89
6634.36
6242.82
5957.49
5733.91
5506.91
5174.76
4826.3
4820.81
5028.58
13529
13529
13529
13529
13529
13327.2
10141.1
6190.75
3531.72
2113.64
1351.8
1000
1000
1000
1000
999.999
999.997
999.987
999.882
998.589
984.753
888.148
808.408
13529
13529
13529
13529
10532.8
4592.85
1603.5
1002.18
1000
1000
1000
1000
1000
1000
1000
1000
999.999
999.996
1000.02
1031.97
1205.69
1141.72
930.445
970.637
954.595
1052.29
1817.76
3180.81
3168.71
1640.36
1707.24
2672.81
6690.7
6341.32
5117.62
5034.12
8250.11
9422.41
9477
9522.02
9488.94
9488.9
961.73
1681.26
2324.32
2682.57
4334.78
5446.65
4727.93
1633.77
3593.49
10947.7
11570.4
8218.79
6441.23
6805.88
9188.73
9468.83
9244.13
9076.59
9476.62
950.846
1907.91
2028.69
1874.83
1537.56
3211.48
5921.32
6932.28
7597.16
11316.1
11808.4
11772.1
11574.2
7267.81
4622.41
5363.69
5488.16
9080.13
8414.4
952.107
1201.54
999.659
1002.54
1001.72
1006.03
2560.42
6770.32
8151.09
8966.07
11161.1
11837.5
11740.2
6897.11
3125.4
3124.26
3191.36
7721.32
6575.7
1158.69
955.856
942.049
999.787
1000.34
1002.14
1003.25
1743.84
2770.96
2505.09
6509.45
9345.04
9904.87
6698.78
3428.55
3141.35
4977.52
5283.04
3429.9
730.091
591.56
671.14
928.604
999.082
999.816
1001.96
1003.26
1003.2
1003.19
1161.79
5189.47
9722.82
8957.24
7347.01
5505.57
6987.58
1601.7
1424.21
317.582
323.788
396.505
619.056
928.071
999.686
999.807
1001.57
1003.15
1002.99
1046.27
5082.74
6904.35
6603.76
7192.41
7491.28
5061.99
1596.83
850.596
335.035
469.533
482.227
476.134
590.528
960.855
999.582
999.836
1000.3
1001.39
1162.84
2905.51
3261.42
3946.06
3920.87
3651
1991.96
1118.19
636.795
13505
12431.3
9529.91
4940.29
1589.61
1000
1000
1000
1000
1000
1000
1000
1000
1000
1000
1000
1000
999.999
977.523
1149.55
1067.38
928.393
424.176
5990.78
3183.1
1229.39
1000
1000
1000
1000
1000
1000
1000
1000
1000
1000
1000
1000
999.973
979.858
756.934
468.083
353.769
496.393
500
499.95
1000
1000
1000
1000
1000
1000
1000
1000
1000
1000
1000
1000
1000
999.003
913.432
629.231
402.858
387.187
500.816
494.566
499.829
500
500
1000
1000
1000
1000
1000
1000
1000
1000
1000
1000
1000
996.145
785.956
522.473
333.737
447.258
487.613
483.026
499.977
500
499.999
499.999
500
1000
1000
1000
1000
1000
1000
1000
1000
1000
986.683
715.582
535.677
336.56
433.722
470.529
491.078
499.99
499.988
499.973
499.987
500
500
500
1000
1000
1000
1000
1000
1000
1000
999.536
814.429
606.216
387.616
388.5
485.754
499.714
500
500
499.961
499.985
500
499.998
500
500
500
1000
1000
1000
1000
1000
1000
992.162
760.263
534.813
356.848
481.146
497.866
500
500
500
499.993
499.982
499.996
500
500
500
500
500
1000
1000
1000
1000
1000
993.819
826.955
494.071
411.575
494.837
499.997
500
500
500
500
500
500
500
500
468.358
388.244
389.594
411.683
1000
1000
1000
1000
999.951
871.097
512.869
483.091
499.269
499.998
500.001
500.001
500
500
500
487.356
392.578
301.647
211.208
103.913
37.0917
20.8091
11.2987
875.661
793.628
802.117
781.146
657.686
467.347
500.041
499.956
500.037
500.015
499.998
472.633
386.262
299.147
207.198
112.9
40.9646
9.18345
1.20576
1.00005
1.00006
1.00032
1.00023
113.356
61.4097
70.7011
69.4495
37.3911
264.904
492.734
484.942
441.34
308.645
172.543
86.2373
35.1692
9.44348
1.00075
1.00043
1.00029
1.00033
1.00008
1.00006
1.00004
1.00006
1.00033
1.03049
1.01119
1.0084
1.00839
1.42383
27.1124
83.3437
97.4895
68.538
15.9382
1.00057
1.00067
1.0008
1.00075
1.00042
1.00052
1.00022
1.00003
1.00004
1.00004
1.00002
1.00001
1.00052
1.00081
0.999964
1.00022
1.00206
1.04084
1.00173
1.00172
1.00098
1.00043
1.00025
1.00027
1.00022
1.00034
1.00029
1.00023
1.00107
1.00168
1.00128
1.00008
1.00002
1.00001
1.00001
1.00004
1
1.00005
1.00013
1.00037
1.00002
1.00007
1.00009
1.00003
1.00002
1.00004
1.00008
1.00015
1.00025
1.00019
1.00127
1.04118
1.04529
1.00495
1.00304
1.00352
1.00309
1.00058
1.00024
1.00001
1.00001
1.00001
1.00008
1.00002
1.00012
1.00009
1.00003
1.00001
1.00002
1.00004
1.00007
1.00013
1.00013
1.00015
1.03959
1.10018
1.09632
1.0568
1.00374
1.00436
1.00496
1.00505
1.00001
1.00001
1.00001
1.00002
1.00002
1.00012
1.00012
1.00002
1.00002
1.00001
1.00002
1.00004
1.00006
1.00009
1.00019
1.00131
1.02773
1.08906
1.10005
1.10052
1.031
1.00297
1.00379
1.00001
1.00001
1.00001
1.00001
1.00002
1.00008
1.00011
1.00003
1.00002
1.00001
1.00001
1.00002
1.00004
1.00006
1.0001
1.00014
1.00013
1.00342
1.02689
1.04883
1.0531
1.01103
1.00012
1.00001
1
1
1
1.00001
1.00004
1.00007
1.00003
1.00002
1.00001
1.00001
1.00001
1.00002
1.00003
1.00005
1.00008
1.00006
1.00007
1.00006
1.00006
1.00323
1.00127
1.00009
1.00001
1
1
1
1
1.00001
1.00003
1.00002
1.00001
1.00001
1.00001
1.00001
1.00001
1.00001
1.00002
1.00003
1.00003
1.00002
1.00002
1.00002
1.00001
1.00004
1.00001
1
1
1
1
1
1
1.00001
1.00001
1.00001
1.00001
1
1
1.00001
1.00001
1.00001
1.00001
1.00001
1.00001
1
1.00001
1.00001
1
1.00001
1
1
1
1
1
1
1
1
1
1
1
1
1
1
1
1.00001
1.00001
1
1
1
1
1
1
1
1
1
1
1
1
1
1
1
1
1
1
1
1
1
1
1
1
1
1
1
1
1
1
1
1
1
1
1
1
1
1
1
1
1
1
1
1
1
1
1
1
1
1
1
1
1
1
1
1
1
1
1
1
1
1
1
1
1
1
1
1
1
1
1
1
1
1
1
1
1
1
1
1
1
1
1
1
1
1
1
1
1
1
1
1
1
1
1
1
1
1
1
1
1
1
1
1
1
1
1
1
1
1
1
1
1
1
1
1
1
1
1
1
1
1
1
1
1
1
1
1
1
1
1
1
1
1
1
1
1
1
1
1
1
1
1
1
1
1
1
1
1
1
1
1
1
1
1
1
1
1
1
1
1
1
1
1
1
1
1
1
1
1
1
1
1
1
1
1
1
1
1
1
1
1
1
1
1
1
1
1
1
1
1
1
1
1
1
1
1
1
1
1
1
1
1
1
1
1
1
1
1
1
1
1
1
1
1
1
1
1
1
1
1
1
1
1
1
1
1
1
1
1
1
1
1
1
1
1
1
1
1
1
1
1
1
1
1
1
1
1
1
1
1
1
1
1
1
1
1
1
1
1
1
1
1
1
1
1
1
1
1
1
1
1
1
1
1
1
1
1
1
1
1
1
1
1
1
1
1
1
1
1
1
1
1
1
1
1
1
1
1
1
1
1
1
1
1
1
1
1
1
1
1
1
1
1
1
1
1
1
1
1
1
1
1
1
1
1
1
1
1
1
1
1
1
1
1
1
1
1
1
1
1
1
1
1
1
1
1
1
1
1
1
1
1
1
1
1
1
1
1
1
1
1
1
1
1
1
1
1
1
1
1
1
1
1
1
1
1
1
1
1
1
1
1
1
1
1
1
1
1
1
1
1
1
1
1
1
1
1
1
1
1
1
1
1
1
1
1
1
1
1
1
1
1
1
1
1
1
1
1
1
1
1
1
1
1
1
1
1
1
1
1
1
1
1
1
1
1
1
1
1
1
1
1
1
1
1
1
1
1
1
1
1
1
1
1
1
1
1
1
1
1
1
1
1
1
1
1
1
1
1
1
1
1
1
1
1
1
1
1
1
1
1
1
1
1
1
1
1
1
450.014
508.113
506.411
504.042
499.404
499.936
500.072
500.056
500
500
500
500
500
500
500
500
500
500
500
500
500
500
500
500
500
500
500
499.116
225.209
158.718
207.999
267.106
2.51129
1
1.00047
1.21837
1.00013
1.00008
1.00017
1.00045
1.00065
1.00039
1.00041
1.00075
1.001
1.00096
1.001
1.00099
1.00018
1.00021
1.00019
1.00054
1.00034
1.00016
1.00007
1.00004
1.00506
1.0033
1.00009
1.00038
1.00512
1.00497
1.00509
1.00499
1.00046
1.00139
1.00231
1.00167
1.00015
1.00013
1.00006
1.00002
1.00001
1.00001
1.00001
1.00001
1.00001
1.00001
1.00001
1.00001
1
1.00001
1.00001
1.00001
1
1
1
1
1
1
1
1
1
1
1
1
1
1
1
1
1
1
1
1
1
1
1
1
1
1
1
1
1
1
1
1
1
1
1
1
1
1
1
1
1
1
1
1
1
1
1
1
1
1
1
1
1
1
1
1
1
1
1
1
1
1
1
1
1
1
1
1
1
1
1
1
1
1
1
1
1
1
1
1
1
1
1
1
495.574
499.998
500.002
499.977
495.486
561.677
906.802
999.664
999.922
1000.5
1136.58
1836.22
1757.01
1421.95
1755.22
1693.89
866.003
764.713
511.99
500.001
500
500.001
500.004
500.008
499.742
531.831
863.401
1000.16
1000.96
1003.02
981.44
996.332
1318.79
1291.09
824.624
735.216
544.533
444.221
500
500
500
500.001
500.004
500.007
500.003
515.191
745.565
962.058
1004.46
991.952
915.885
817.909
644.348
534.465
494.646
497.008
342.56
500
500
500
500
500.001
500.002
500.002
500.002
501.436
556.327
622.655
620.728
555.051
498.807
497.293
495.635
495.597
499.929
436.936
500
500
500
500
500
500
500
500
500.001
500.001
499.939
499.647
499.662
499.587
499.376
499.205
496.256
493.923
427.603
500
500
500
500
500
500
500
500
500
500
500.007
500.092
500.716
474.229
391.167
272.486
249.657
282.716
339.395
499.025
499.318
499.788
500
500
500
500
500
499.398
493.013
466.399
399.64
261.02
113.131
23.3079
1.02714
1.04641
74.5105
171.608
266.563
259.049
279.655
305.502
321.65
323.475
314.909
291.857
246.591
173.379
87.9994
20.092
1.00019
1.00066
1.00213
0.999772
3.11575
41.8077
56.7322
1.00001
1.00001
1.00001
1.00001
1.00001
1
1.00002
1.00005
1.00007
1.00006
1.00011
1.00011
1.01698
1.06777
1.00636
2.7185
4.79797
1.002
1.00077
1.00019
1.0002
1.00015
1.00011
1.00007
1.00006
1.0001
1.00014
1.00017
1.00026
1.05828
1.46976
1.67757
1.55282
1.00573
1.02865
1.03737
1.00121
1.00136
1.00087
1.00057
1.00045
1.0003
1.00024
1.00023
1.00045
1.00092
1.00115
1.00087
1.17474
1.80129
1.75014
1.2675
1.0001
1.00016
1.00036
1.00137
1.00214
1.001
1.00099
1.00097
1.00051
1.00034
1.00023
1.00051
1.00208
1.00224
1.00256
1.01904
1.00595
1.03785
1.00004
1.00013
1.00039
1.00067
1.00107
1.00193
1.00073
1.00073
1.00068
1.00066
1.00022
1.00011
1.00024
1.00144
1.00173
1.00048
1.00003
1
1.00001
1.00007
1.00026
1.0006
1.0005
1.00012
1.00011
1.00005
1.00006
1.00008
1.00012
1.00006
1.00005
1.00003
1.00003
1.00007
1
1
1
1.00001
1.00005
1.00014
1.00021
1.00017
1.00004
1.00043
1.00032
1.00003
1.00001
1.00001
1.00001
1.00001
1.00001
1
1
1
1
1
1.00001
1.00001
1.00001
1.00001
1.00003
1.00005
1.00088
1.00132
1.00009
1.00003
1.00003
1.00001
1.00001
1.00001
1.00001
1
1
1
1
1
1
1
1
1
1.00003
1.00088
1.00051
1.00033
1.00007
1.00004
1.00002
1.00001
1.00001
1
1
1
1
1
1
1
1
1
1
1.00005
1.00087
1.00001
1.00001
1.00008
1.00004
1.00002
1.00001
1.00001
1
1
1
1
1
1
1
1
1
1
1.00008
1.00043
1.00001
1.00001
1.00002
1.00002
1.00001
1.00001
1.00001
1
1
1
1
1
1
1
1
1
1
1.00016
1.00062
1.00001
1.00001
1.00001
1.00001
1.00001
1.00001
1
1
1
1
1
1
1
1
1
1
1
1.00017
1.00073
1.00001
1.00001
1.00001
1.00001
1
1
1
1
1
1
1
1
1
1
1
1
1
1.00013
1.00058
1
1
1
1
1
1
1
1
1
1
1
1
1
1
1
1
1
1.00002
1.00009
1
1
1
1
1
1
1
1
1
1
1
1
1
1
1
1
1
1.00002
1.00001
1
1
1
1
1
1
1
1
1
1
1
1
1
1
1
1
1
1
1.00001
1
1
1
1
1
1
1
1
1
1
1
1
1
1
1
1
1.00001
1.00001
1
1
1
1
1
1
1
1
1
1
1
1
1
1
1
1
1
1.00001
1.00001
1.00001
1
1
1
1
1
1
1
1
1
1
1
1
1
1
1
1.00001
1.00001
1.00002
1.00001
1
1
1
1
1
1
1
1
1
1
1
1
1
1
1
1.00001
1.00002
1.00002
1.00001
1
1
1
1
1
1
1
1
1
1
1
1
1
1
1
1.00001
1.00003
1.00004
1.00001
1
1
1
1
1
1
1
1
1
1
1
1
1
1
1.00001
1.00002
1.00006
1.00004
1.00001
1
1
1
1
1
1
1
1
1
1
1
1
1
1
1.00001
1.00004
1.00006
1.00006
1.00001
1
1
1
1
1
1
1
1
1
1
1
1
1
1
1.00001
1.00005
1.00006
1.00005
1.00001
1
1
1
1
1
1
1
1
1
1
1
1
1
1
1.00002
1.00004
1.00006
1.00004
1
1
1
1
1
1
1
1
1
1
1
1
1
1
1.00001
1.00002
1.00003
1.00005
1.00001
1
1
1
1
1
1
1
1
1
1
1
1
1
1
1.00001
1.00001
1.00002
1
1.00001
1
1
1
1
1
1
1
1
1
1
1
1
1
1
1
1
1.00001
1
1
1
1
1
1
1
1
1
1
1
1
1
1
1
1
1
1
1
1
1
1
1
1
1
1
1
1
1
1
1
1
1
1
1
1
1
1
1
1
1
1
1
1
1
1
1
1
1
1
1
1
1
1
1
1
1
1
1
1
1
1
1
1
1
1
1
1
1
1
1
1
1
1
1
1
1
1
1
1
1
1
1
1
1
1
1
1
1
1
1
1
1
1
1
1
1
1
1
1
1
1
1
1
1
1
1
1
1
1
1
1
1
1
1
1
1
)
;

boundaryField
{
    leftWall
    {
        type            calculated;
        value           nonuniform List<scalar> 
50
(
13529
13529
13529
13529
13529
13529
13529
13529
13505
5990.78
1000
1000
1000
1000
1000
1000
1000
875.661
113.356
1.03049
1.00081
1
1.00001
1.00001
1.00001
1.00001
1.00001
1
1
1
1
1
1
1
1
1
1
1
1
1
1
1
1
1
1
1
1
1
1
1
)
;
    }
    rightWall
    {
        type            calculated;
        value           nonuniform List<scalar> 
50
(
9488.9
9476.62
8414.4
6575.7
3429.9
1424.21
850.596
636.795
511.99
444.221
342.56
436.936
427.603
339.395
171.608
56.7322
1.00077
1.00136
1.00214
1.00193
1.00011
1.00043
1.00088
1.00088
1.00087
1.00043
1.00062
1.00073
1.00058
1.00009
1.00001
1.00001
1
1.00001
1.00001
1.00001
1.00001
1.00001
1.00001
1.00001
1
1
1
1
1
1
1
1
1
1
)
;
    }
    lowerWall
    {
        type            calculated;
        value           nonuniform List<scalar> 
62
(
13529
13529
13529
13529
13529
13529
13529
13529
13529
13529
13529
13529
13529
13529
13529
13529
13529
13529
13529
13529
13527.3
13521.7
13521.6
13521.6
13521.6
13527.9
13529
13051.1
5028.58
808.408
930.445
450.014
508.113
506.411
504.042
970.637
961.73
950.846
952.107
1158.69
730.091
317.582
335.035
970.637
954.595
1052.29
1817.76
3180.81
3168.71
1640.36
1707.24
2672.81
6690.7
6341.32
5117.62
5034.12
8250.11
9422.41
9477
9522.02
9488.94
9488.9
)
;
    }
    atmosphere
    {
        type            calculated;
        value           nonuniform List<scalar> 
46
(
1
1
1
1
1
1
1
1
1
1
1
1
1
1
1
1
1
1
1
1
1
1
1
1
1
1
1
1
1
1
1
1
1
1
1
1
1
1
1
1
1
1
1
1
1
1
)
;
    }
    defaultFaces
    {
        type            empty;
    }
}


// ************************************************************************* //
