/*--------------------------------*- C++ -*----------------------------------*\
  =========                 |
  \\      /  F ield         | OpenFOAM: The Open Source CFD Toolbox
   \\    /   O peration     | Website:  https://openfoam.org
    \\  /    A nd           | Version:  13
     \\/     M anipulation  |
\*---------------------------------------------------------------------------*/
FoamFile
{
    format      ascii;
    class       volVectorField;
    location    "1.05";
    object      U;
}
// * * * * * * * * * * * * * * * * * * * * * * * * * * * * * * * * * * * * * //

dimensions      [0 1 -1 0 0 0 0];

internalField   nonuniform List<vector> 
2268
(
(0.0204326 -0.00563197 0)
(0.0103044 0.0108005 0)
(-0.0254973 0.0112757 0)
(-0.0471755 0.00829217 0)
(-0.0636949 0.00528095 0)
(-0.0742334 0.00267263 0)
(-0.0805271 0.000898657 0)
(-0.0839605 -9.53788e-05 0)
(-0.0851091 -0.000872895 0)
(-0.0841207 -0.00171167 0)
(-0.081147 -0.00236522 0)
(-0.076476 -0.00285977 0)
(-0.0704957 -0.00321552 0)
(-0.0635758 -0.00345692 0)
(-0.0560147 -0.00361453 0)
(-0.0479803 -0.00377249 0)
(-0.0393758 -0.00406299 0)
(-0.0297947 -0.00460446 0)
(-0.0186894 -0.00539831 0)
(-0.00564898 -0.00613022 0)
(0.00812114 -0.00610157 0)
(0.0198377 -0.00307296 0)
(0.0216382 0.00746992 0)
(0.000972773 -0.00970781 0)
(-0.00561046 0.0157229 0)
(-0.0278326 0.0173731 0)
(-0.041941 0.0137782 0)
(-0.0539744 0.0097901 0)
(-0.0630092 0.00627451 0)
(-0.0697677 0.0038601 0)
(-0.0746934 0.00212057 0)
(-0.0777128 0.000584583 0)
(-0.078522 -0.00103188 0)
(-0.0771516 -0.00246663 0)
(-0.0739935 -0.00362125 0)
(-0.069473 -0.00447065 0)
(-0.063991 -0.00506392 0)
(-0.0578631 -0.00546397 0)
(-0.0512983 -0.00581529 0)
(-0.0443034 -0.00633381 0)
(-0.0366536 -0.00720099 0)
(-0.0280087 -0.00839768 0)
(-0.0181312 -0.00942986 0)
(-0.00789126 -0.00907606 0)
(0.00210577 -0.00445894 0)
(0.00790146 0.0128648 0)
(-0.0112533 -0.00529715 0)
(-0.0118114 0.0212337 0)
(-0.0247936 0.0229058 0)
(-0.033554 0.0188168 0)
(-0.0431808 0.0141127 0)
(-0.0520439 0.00982195 0)
(-0.0598946 0.00677258 0)
(-0.0663968 0.00422507 0)
(-0.0709502 0.00171161 0)
(-0.0731379 -0.00088186 0)
(-0.0729885 -0.00321568 0)
(-0.0709332 -0.00511057 0)
(-0.0674558 -0.00649747 0)
(-0.0629827 -0.00745609 0)
(-0.057853 -0.00809226 0)
(-0.0523254 -0.00861123 0)
(-0.0464952 -0.00931582 0)
(-0.040278 -0.0104607 0)
(-0.0334819 -0.0120426 0)
(-0.0259036 -0.013446 0)
(-0.0181495 -0.0130705 0)
(-0.0100407 -0.0081101 0)
(-0.00413053 0.0119216 0)
(-0.0159342 5.00989e-05 0)
(-0.0109644 0.0243181 0)
(-0.0174798 0.0260905 0)
(-0.0226519 0.0227027 0)
(-0.0312685 0.0183408 0)
(-0.0407896 0.0139407 0)
(-0.0500919 0.0106137 0)
(-0.0582716 0.00731014 0)
(-0.0643512 0.00376341 0)
(-0.0678085 -7.13546e-05 0)
(-0.0687077 -0.00350407 0)
(-0.0675793 -0.00625062 0)
(-0.064953 -0.008247 0)
(-0.0612874 -0.00962618 0)
(-0.0569549 -0.0105166 0)
(-0.0522656 -0.0111806 0)
(-0.0473944 -0.0119973 0)
(-0.0423796 -0.0132933 0)
(-0.0371377 -0.0151197 0)
(-0.031384 -0.0167975 0)
(-0.0254868 -0.0164368 0)
(-0.0187893 -0.0115816 0)
(-0.0149092 0.00636681 0)
(-0.0149308 0.00450182 0)
(-0.0044422 0.0249252 0)
(-0.00635224 0.0273495 0)
(-0.0094033 0.0258004 0)
(-0.0180915 0.0229772 0)
(-0.0289057 0.0189605 0)
(-0.0400034 0.0155082 0)
(-0.0499784 0.0113217 0)
(-0.0575413 0.00645204 0)
(-0.0621606 0.00118696 0)
(-0.0639598 -0.00341045 0)
(-0.0636439 -0.00698881 0)
(-0.0617782 -0.00954034 0)
(-0.0587976 -0.0112795 0)
(-0.0551265 -0.01237 0)
(-0.0511263 -0.013118 0)
(-0.0470403 -0.0139577 0)
(-0.0430348 -0.015263 0)
(-0.0391378 -0.0171622 0)
(-0.0348781 -0.0190112 0)
(-0.0302261 -0.0187278 0)
(-0.023843 -0.014533 0)
(-0.0236288 -0.00387226 0)
(-0.00958784 0.00634983 0)
(0.00654707 0.0228653 0)
(0.00784026 0.0274249 0)
(0.00578441 0.028879 0)
(-0.00389497 0.0283257 0)
(-0.0166925 0.024973 0)
(-0.029779 0.0208633 0)
(-0.0414532 0.0151822 0)
(-0.0501399 0.00880606 0)
(-0.05549 0.00227254 0)
(-0.0578746 -0.00330926 0)
(-0.0581448 -0.00758566 0)
(-0.0567199 -0.0106196 0)
(-0.0541855 -0.0126343 0)
(-0.0510848 -0.0138671 0)
(-0.0477888 -0.0146585 0)
(-0.0445866 -0.0154743 0)
(-0.0418201 -0.0167137 0)
(-0.0396863 -0.0186306 0)
(-0.037034 -0.0207766 0)
(-0.032679 -0.0207738 0)
(-0.0235592 -0.0171125 0)
(-0.024742 -0.0126655 0)
(-0.000977402 0.00369723 0)
(0.0203294 0.0184937 0)
(0.0237706 0.0270308 0)
(0.021553 0.032357 0)
(0.0102788 0.0340252 0)
(-0.00473871 0.030256 0)
(-0.018804 0.0252383 0)
(-0.030243 0.0188602 0)
(-0.0382105 0.011696 0)
(-0.0430508 0.00426594 0)
(-0.0452826 -0.00207543 0)
(-0.0457114 -0.00686921 0)
(-0.0448225 -0.0106605 0)
(-0.0430415 -0.0132433 0)
(-0.0411369 -0.0148181 0)
(-0.0394898 -0.0157542 0)
(-0.0384654 -0.0165223 0)
(-0.0388207 -0.0174726 0)
(-0.0412328 -0.019148 0)
(-0.0427701 -0.0225051 0)
(-0.0389679 -0.0250047 0)
(-0.0211899 -0.0229987 0)
(-0.0141023 -0.0199461 0)
(0.00878356 -0.0073299 0)
(0.0337992 0.0137121 0)
(0.0384729 0.0273139 0)
(0.0357215 0.0358478 0)
(0.0249717 0.0391138 0)
(0.00997841 0.0359694 0)
(-0.00564077 0.0311096 0)
(-0.0172553 0.0249165 0)
(-0.0213182 0.0161961 0)
(-0.0207888 0.00647728 0)
(-0.0189639 -0.00159496 0)
(-0.0178663 -0.00767889 0)
(-0.0190954 -0.0120786 0)
(-0.0213792 -0.0146668 0)
(-0.0245186 -0.0159526 0)
(-0.0286999 -0.0162822 0)
(-0.0343468 -0.0161934 0)
(-0.0425003 -0.0153594 0)
(-0.0545935 -0.0155606 0)
(-0.0655402 -0.0224686 0)
(-0.0675503 -0.0310461 0)
(-0.0558583 -0.0347255 0)
(-0.0667743 -0.0406766 0)
(-0.198309 0.0468742 0)
(-0.16772 -0.0165176 0)
(-0.120533 -0.0252625 0)
(-0.118608 0.00209355 0)
(-0.119662 0.00466957 0)
(-0.15935 0.0298282 0)
(-0.273929 0.0588481 0)
(-0.488442 0.0384832 0)
(-0.571435 -0.005044 0)
(-0.486981 -0.0363637 0)
(-0.431334 -0.031869 0)
(-0.368222 -0.0199901 0)
(-0.294241 -0.00698411 0)
(-0.271392 0.00637198 0)
(-0.303949 0.0037961 0)
(-0.314235 -0.0105947 0)
(-0.260651 -0.0293937 0)
(-0.140157 -0.0562689 0)
(-0.0619553 -0.0457793 0)
(-0.126634 0.0992945 0)
(-0.0559596 -0.020701 0)
(-0.0465113 -0.0209855 0)
(-0.0580783 0.0102187 0)
(-0.0920668 0.0187254 0)
(-0.143185 0.0456604 0)
(-0.20892 0.0806364 0)
(-0.306233 0.0893835 0)
(-0.383115 0.0368057 0)
(-0.379753 -0.0291327 0)
(-0.376101 -0.0401239 0)
(-0.344754 -0.0444975 0)
(-0.269583 -0.0471519 0)
(-0.187689 -0.00665047 0)
(-0.194053 0.0196366 0)
(-0.209415 -0.00666024 0)
(-0.159011 -0.0409234 0)
(-0.0454506 -0.0860503 0)
(-0.00285492 -0.0402123 0)
(-0.0394854 0.128347 0)
(0.00129362 -0.0275031 0)
(-0.0279884 -0.0178503 0)
(-0.053286 0.0198644 0)
(-0.105342 0.039868 0)
(-0.165638 0.0677724 0)
(-0.212253 0.100557 0)
(-0.250568 0.100758 0)
(-0.294024 0.0513679 0)
(-0.331197 -0.0201287 0)
(-0.353506 -0.0427248 0)
(-0.334068 -0.0607799 0)
(-0.275974 -0.0739705 0)
(-0.197173 -0.0378382 0)
(-0.126638 0.0169544 0)
(-0.105928 -0.0143896 0)
(-0.0482429 -0.0626902 0)
(0.0395726 -0.115736 0)
(0.0453731 -0.0354559 0)
(0.0461695 0.120365 0)
(0.0308904 -0.0175565 0)
(-0.0313785 -0.000853429 0)
(-0.0700957 0.0378716 0)
(-0.115779 0.0679544 0)
(-0.173946 0.0943998 0)
(-0.218075 0.117624 0)
(-0.23307 0.108303 0)
(-0.259179 0.0625713 0)
(-0.30738 -0.0046726 0)
(-0.340957 -0.0402224 0)
(-0.329152 -0.0742607 0)
(-0.284099 -0.0987249 0)
(-0.222594 -0.0708258 0)
(-0.121151 -0.0134225 0)
(-0.0286563 -0.0376892 0)
(0.0684442 -0.0961496 0)
(0.10572 -0.1272 0)
(0.0929934 -0.0104143 0)
(0.0849805 0.0815525 0)
(0.0298942 0.00734004 0)
(-0.0438503 0.0244223 0)
(-0.087573 0.0564277 0)
(-0.12648 0.0870603 0)
(-0.167326 0.117292 0)
(-0.201597 0.134445 0)
(-0.219847 0.116092 0)
(-0.239338 0.0732638 0)
(-0.295019 0.00975585 0)
(-0.332628 -0.036962 0)
(-0.320986 -0.0865952 0)
(-0.28252 -0.121756 0)
(-0.22853 -0.106069 0)
(-0.135595 -0.0781321 0)
(-0.00694627 -0.0911975 0)
(0.104883 -0.143988 0)
(0.137408 -0.131149 0)
(0.137941 0.0339964 0)
(0.0649006 0.0628049 0)
(0.00209852 0.0352328 0)
(-0.0640189 0.0476738 0)
(-0.105579 0.071758 0)
(-0.139611 0.101149 0)
(-0.16887 0.127382 0)
(-0.188957 0.143543 0)
(-0.202189 0.128862 0)
(-0.221048 0.091471 0)
(-0.269223 0.0404018 0)
(-0.318528 -0.0300174 0)
(-0.298857 -0.101962 0)
(-0.265106 -0.140224 0)
(-0.216769 -0.133129 0)
(-0.135744 -0.122373 0)
(-0.0185641 -0.145835 0)
(0.0885292 -0.177141 0)
(0.127776 -0.123417 0)
(0.136763 0.124838 0)
(-0.00322402 0.0674181 0)
(-0.0460404 0.0649717 0)
(-0.0881622 0.0712912 0)
(-0.122613 0.08687 0)
(-0.152496 0.11261 0)
(-0.175548 0.136433 0)
(-0.188227 0.145733 0)
(-0.195565 0.13369 0)
(-0.209134 0.105552 0)
(-0.241802 0.0594306 0)
(-0.277912 -0.0128335 0)
(-0.26464 -0.112595 0)
(-0.242273 -0.154069 0)
(-0.197718 -0.155728 0)
(-0.121699 -0.155613 0)
(-0.0250425 -0.181238 0)
(0.0628827 -0.200882 0)
(0.0896278 -0.130478 0)
(0.107362 0.162688 0)
(-0.0908875 0.096128 0)
(-0.0956758 0.0750933 0)
(-0.116052 0.0846373 0)
(-0.138209 0.100821 0)
(-0.162906 0.123783 0)
(-0.181502 0.142681 0)
(-0.190452 0.149241 0)
(-0.193724 0.13575 0)
(-0.199655 0.110291 0)
(-0.21426 0.0661939 0)
(-0.230477 -0.0114162 0)
(-0.224545 -0.118512 0)
(-0.210868 -0.167648 0)
(-0.173223 -0.18093 0)
(-0.105511 -0.19108 0)
(-0.0240882 -0.215023 0)
(0.0398116 -0.223603 0)
(0.04772 -0.134539 0)
(0.0675982 0.182109 0)
(0.0175467 -0.00722989 0)
(0.0486088 0.0144787 0)
(0.0540732 0.0276949 0)
(0.05435 0.0387292 0)
(0.043897 0.0492452 0)
(0.0209917 0.0552346 0)
(0.00661546 0.0507557 0)
(0.00381099 0.0331441 0)
(0.00529526 0.016076 0)
(0.00706408 0.00431405 0)
(0.00683891 -0.00282294 0)
(0.00405149 -0.00680989 0)
(-0.00158213 -0.0091175 0)
(-0.00957836 -0.0104055 0)
(-0.0193477 -0.0105858 0)
(-0.0309153 -0.00959947 0)
(-0.0443302 -0.00844852 0)
(-0.0599574 -0.00593619 0)
(-0.0797092 -0.00515639 0)
(-0.100865 -0.0150663 0)
(-0.116218 -0.0268901 0)
(-0.129076 -0.0307568 0)
(-0.156736 -0.0126903 0)
(0.0248966 -0.0666732 0)
(0.0549323 -0.0194058 0)
(0.0290903 0.020969 0)
(-0.00110723 0.0515079 0)
(-0.0145361 0.0764401 0)
(-0.0124432 0.0646051 0)
(-0.004737 0.043066 0)
(0.00284054 0.0242867 0)
(0.00701811 0.0114146 0)
(0.00697551 0.00411309 0)
(0.00266139 0.000976832 0)
(-0.00540846 0.000306578 0)
(-0.0168113 0.00151278 0)
(-0.0311479 0.00256425 0)
(-0.0472396 0.00364564 0)
(-0.0654783 0.00592121 0)
(-0.0868351 0.00933754 0)
(-0.108905 0.0173868 0)
(-0.131674 0.0247864 0)
(-0.159521 0.0123046 0)
(-0.196406 -0.00493362 0)
(-0.229425 -0.00317411 0)
(-0.257102 0.0167572 0)
(-0.0578704 -0.122294 0)
(-0.0563845 0.000523844 0)
(-0.0667723 0.0547408 0)
(-0.0631205 0.0668262 0)
(-0.0506774 0.0637941 0)
(-0.0340716 0.0478356 0)
(-0.0201762 0.0304104 0)
(-0.0119095 0.0174438 0)
(-0.00996342 0.0104302 0)
(-0.0138903 0.00846255 0)
(-0.0228532 0.0100029 0)
(-0.0356777 0.0123126 0)
(-0.051497 0.0163814 0)
(-0.0716618 0.019288 0)
(-0.094441 0.0237528 0)
(-0.119877 0.0325682 0)
(-0.150369 0.0399125 0)
(-0.190179 0.0455113 0)
(-0.2242 0.0491308 0)
(-0.249122 0.0470246 0)
(-0.274546 0.0329817 0)
(-0.298833 0.0268948 0)
(-0.313209 0.0265254 0)
(-0.0568092 0.00862406 0)
(-0.0769092 0.029245 0)
(-0.0827641 0.0493956 0)
(-0.0758433 0.0520163 0)
(-0.062285 0.0446163 0)
(-0.0481424 0.031662 0)
(-0.0383107 0.0204049 0)
(-0.0347966 0.0143594 0)
(-0.0377646 0.0137863 0)
(-0.0463469 0.0166884 0)
(-0.05985 0.0226571 0)
(-0.0784396 0.0276641 0)
(-0.0988453 0.0376283 0)
(-0.125351 0.0476794 0)
(-0.160906 0.0559682 0)
(-0.204442 0.0642672 0)
(-0.237816 0.0770519 0)
(-0.265208 0.0815888 0)
(-0.288092 0.0756422 0)
(-0.30844 0.0667005 0)
(-0.3276 0.053165 0)
(-0.344141 0.0419199 0)
(-0.35397 0.0333671 0)
(-0.0338266 0.0443878 0)
(-0.0594819 0.0460344 0)
(-0.0718157 0.0484841 0)
(-0.0735275 0.0432939 0)
(-0.0692723 0.033312 0)
(-0.0642353 0.0230772 0)
(-0.0623824 0.0169083 0)
(-0.0654386 0.0167829 0)
(-0.0742262 0.0218948 0)
(-0.0886838 0.0299668 0)
(-0.107221 0.0428751 0)
(-0.134552 0.0534513 0)
(-0.170151 0.0699287 0)
(-0.210365 0.0826263 0)
(-0.242139 0.0967618 0)
(-0.269148 0.100448 0)
(-0.29338 0.103056 0)
(-0.313922 0.102191 0)
(-0.331728 0.0948172 0)
(-0.348128 0.0837116 0)
(-0.363254 0.0688377 0)
(-0.375747 0.0534581 0)
(-0.383764 0.039837 0)
(-0.0212424 0.0811908 0)
(-0.0485612 0.0693238 0)
(-0.0669362 0.0590974 0)
(-0.0786351 0.0463043 0)
(-0.0852045 0.0334 0)
(-0.0901751 0.0237341 0)
(-0.0964204 0.0205773 0)
(-0.106074 0.0262097 0)
(-0.121423 0.0377497 0)
(-0.144535 0.0526383 0)
(-0.177223 0.074232 0)
(-0.214617 0.0904252 0)
(-0.246544 0.105987 0)
(-0.269744 0.113956 0)
(-0.291347 0.119789 0)
(-0.310703 0.122037 0)
(-0.328452 0.122173 0)
(-0.343973 0.118666 0)
(-0.357859 0.110201 0)
(-0.37106 0.0981977 0)
(-0.383759 0.0822084 0)
(-0.394438 0.0634871 0)
(-0.401435 0.0464034 0)
(-0.0199076 0.113218 0)
(-0.0530777 0.0975662 0)
(-0.07869 0.0791033 0)
(-0.0994977 0.0597959 0)
(-0.115472 0.0431744 0)
(-0.129143 0.0325643 0)
(-0.14224 0.0324864 0)
(-0.158518 0.0436151 0)
(-0.183322 0.0637125 0)
(-0.217076 0.0871935 0)
(-0.249783 0.10641 0)
(-0.271354 0.119988 0)
(-0.290781 0.127581 0)
(-0.307808 0.132627 0)
(-0.322529 0.13612 0)
(-0.335428 0.137384 0)
(-0.347461 0.136615 0)
(-0.358592 0.131608 0)
(-0.36848 0.122292 0)
(-0.378295 0.10996 0)
(-0.389465 0.0932467 0)
(-0.399617 0.0703476 0)
(-0.403206 0.0503813 0)
(-0.0319344 0.153577 0)
(-0.0745558 0.135996 0)
(-0.107308 0.10934 0)
(-0.134812 0.0834169 0)
(-0.158142 0.0626953 0)
(-0.178652 0.0506247 0)
(-0.197853 0.0522704 0)
(-0.22183 0.0703513 0)
(-0.251312 0.0943287 0)
(-0.275805 0.115499 0)
(-0.291951 0.127474 0)
(-0.306725 0.136492 0)
(-0.319616 0.142537 0)
(-0.330718 0.146012 0)
(-0.339713 0.147344 0)
(-0.346773 0.147253 0)
(-0.353607 0.145653 0)
(-0.360666 0.139024 0)
(-0.366888 0.128226 0)
(-0.373067 0.116 0)
(-0.381975 0.099587 0)
(-0.39044 0.0740913 0)
(-0.393291 0.0526036 0)
(-0.0570848 0.213148 0)
(-0.104706 0.182485 0)
(-0.143309 0.146066 0)
(-0.174959 0.115057 0)
(-0.204981 0.0931064 0)
(-0.233535 0.0793762 0)
(-0.259606 0.0792411 0)
(-0.284215 0.0956663 0)
(-0.299252 0.114906 0)
(-0.309509 0.129894 0)
(-0.319245 0.140108 0)
(-0.327507 0.147451 0)
(-0.334861 0.152225 0)
(-0.341651 0.153315 0)
(-0.34667 0.151824 0)
(-0.349811 0.149953 0)
(-0.352063 0.148185 0)
(-0.354562 0.1421 0)
(-0.356646 0.131095 0)
(-0.357262 0.121504 0)
(-0.357951 0.109712 0)
(-0.365893 0.0783269 0)
(-0.373457 0.0469635 0)
(-0.0862528 0.262176 0)
(-0.126522 0.216835 0)
(-0.169715 0.169593 0)
(-0.20495 0.140034 0)
(-0.253717 0.124126 0)
(-0.297829 0.106411 0)
(-0.325271 0.101348 0)
(-0.329668 0.1086 0)
(-0.330076 0.121846 0)
(-0.331326 0.135834 0)
(-0.33415 0.145552 0)
(-0.337486 0.150843 0)
(-0.340375 0.154437 0)
(-0.342796 0.154875 0)
(-0.344601 0.15298 0)
(-0.345101 0.150345 0)
(-0.343024 0.151071 0)
(-0.34102 0.14475 0)
(-0.343601 0.130586 0)
(-0.351067 0.123391 0)
(-0.349618 0.122059 0)
(-0.352498 0.0918407 0)
(-0.377877 0.0571531 0)
(-0.114463 0.315024 0)
(-0.111491 0.237694 0)
(-0.160777 0.174567 0)
(-0.211958 0.147439 0)
(-0.315485 0.13443 0)
(-0.364367 0.119963 0)
(-0.366747 0.102074 0)
(-0.360639 0.107104 0)
(-0.353001 0.119177 0)
(-0.344736 0.134121 0)
(-0.33893 0.145487 0)
(-0.337357 0.151171 0)
(-0.336335 0.155956 0)
(-0.336252 0.155496 0)
(-0.339678 0.149575 0)
(-0.347447 0.146517 0)
(-0.352776 0.150431 0)
(-0.362426 0.152041 0)
(-0.383783 0.146977 0)
(-0.392812 0.13348 0)
(-0.397472 0.125575 0)
(-0.400218 0.111195 0)
(-0.404792 0.0849257 0)
(-0.227191 0.588254 0)
(0.00143785 0.319552 0)
(-0.135902 0.206803 0)
(-0.236933 0.199814 0)
(-0.370175 0.286132 0)
(-0.346179 0.122212 0)
(-0.361207 0.0949042 0)
(-0.369165 0.0962847 0)
(-0.363396 0.109516 0)
(-0.353729 0.128832 0)
(-0.34491 0.142757 0)
(-0.347279 0.14639 0)
(-0.352698 0.154945 0)
(-0.36279 0.166239 0)
(-0.386407 0.176944 0)
(-0.399954 0.168343 0)
(-0.410337 0.165566 0)
(-0.413113 0.165006 0)
(-0.412782 0.151328 0)
(-0.412151 0.137302 0)
(-0.410541 0.123066 0)
(-0.40714 0.102199 0)
(-0.403693 0.0785448 0)
(0.0798973 0.584607 0)
(0.105799 0.367912 0)
(-0.0420655 0.494669 0)
(-0.145404 0.502617 0)
(-0.215616 0.448403 0)
(-0.200561 0.131128 0)
(-0.319895 0.0611197 0)
(-0.373488 0.077006 0)
(-0.382945 0.0930963 0)
(-0.388547 0.116348 0)
(-0.400629 0.141052 0)
(-0.4049 0.158247 0)
(-0.411743 0.171231 0)
(-0.41384 0.182637 0)
(-0.41496 0.1806 0)
(-0.417941 0.176087 0)
(-0.420435 0.167957 0)
(-0.417959 0.158135 0)
(-0.411646 0.148262 0)
(-0.403702 0.133049 0)
(-0.394345 0.114816 0)
(-0.385097 0.0939699 0)
(-0.37641 0.0710388 0)
(0.0285683 0.220863 0)
(0.0428809 0.492948 0)
(-0.0416109 0.496237 0)
(-0.0861651 0.468311 0)
(-0.110225 0.404597 0)
(-0.141694 0.27818 0)
(-0.222491 0.255466 0)
(-0.284258 0.191374 0)
(-0.327771 0.136577 0)
(-0.358021 0.135539 0)
(-0.378252 0.153547 0)
(-0.391265 0.16579 0)
(-0.399971 0.172739 0)
(-0.403733 0.177293 0)
(-0.403547 0.181461 0)
(-0.400736 0.174042 0)
(-0.395416 0.162222 0)
(-0.387991 0.15067 0)
(-0.377992 0.137325 0)
(-0.366161 0.121973 0)
(-0.353674 0.103836 0)
(-0.341652 0.0828368 0)
(-0.329928 0.0597978 0)
(-0.062071 0.489917 0)
(-0.0578952 0.508837 0)
(-0.0433244 0.500568 0)
(-0.0411242 0.471148 0)
(-0.0499475 0.408924 0)
(-0.0920229 0.301291 0)
(-0.150125 0.268123 0)
(-0.198847 0.220644 0)
(-0.245199 0.17906 0)
(-0.287047 0.170646 0)
(-0.316287 0.17416 0)
(-0.334298 0.177576 0)
(-0.345562 0.178988 0)
(-0.351372 0.179338 0)
(-0.351008 0.176716 0)
(-0.346405 0.168049 0)
(-0.339966 0.15464 0)
(-0.331246 0.139791 0)
(-0.320492 0.124477 0)
(-0.307794 0.108721 0)
(-0.294777 0.0908534 0)
(-0.282153 0.0707373 0)
(-0.269804 0.0477727 0)
(-0.0331316 0.403237 0)
(-0.0244361 0.457916 0)
(-0.00907169 0.471518 0)
(0.00171267 0.460687 0)
(0.00298333 0.41829 0)
(-0.0269716 0.34739 0)
(-0.0749501 0.300444 0)
(-0.117595 0.259842 0)
(-0.160789 0.224873 0)
(-0.200868 0.206289 0)
(-0.230784 0.198352 0)
(-0.250958 0.192985 0)
(-0.263785 0.18761 0)
(-0.270321 0.181769 0)
(-0.271249 0.174407 0)
(-0.268248 0.162956 0)
(-0.263171 0.148119 0)
(-0.25611 0.131214 0)
(-0.246942 0.11379 0)
(-0.235957 0.095678 0)
(-0.224119 0.0775798 0)
(-0.212193 0.0583314 0)
(-0.200622 0.0360385 0)
(-0.0124955 0.440898 0)
(5.38832e-05 0.4558 0)
(0.016286 0.461421 0)
(0.0314736 0.455986 0)
(0.0384846 0.428979 0)
(0.0245996 0.379607 0)
(-0.00511034 0.337734 0)
(-0.0378173 0.298688 0)
(-0.072929 0.264095 0)
(-0.10696 0.239935 0)
(-0.134344 0.223416 0)
(-0.154105 0.210275 0)
(-0.167307 0.198345 0)
(-0.17485 0.186764 0)
(-0.177265 0.174265 0)
(-0.176004 0.159651 0)
(-0.172826 0.142578 0)
(-0.168215 0.124226 0)
(-0.162247 0.105394 0)
(-0.154556 0.0862107 0)
(-0.145487 0.0669581 0)
(-0.135738 0.0471764 0)
(-0.125605 0.0254248 0)
(-0.000645014 0.447644 0)
(0.0149925 0.445428 0)
(0.0325522 0.446284 0)
(0.0512784 0.443938 0)
(0.0646734 0.428466 0)
(0.0642824 0.397385 0)
(0.0509025 0.363651 0)
(0.0312754 0.329056 0)
(0.00753976 0.295887 0)
(-0.0172336 0.268188 0)
(-0.038862 0.245652 0)
(-0.055658 0.226358 0)
(-0.0676611 0.208881 0)
(-0.0752215 0.192372 0)
(-0.0788319 0.175938 0)
(-0.0793129 0.15847 0)
(-0.077754 0.139749 0)
(-0.0750766 0.119997 0)
(-0.071525 0.0995923 0)
(-0.0670522 0.0793981 0)
(-0.0616908 0.0591469 0)
(-0.0550191 0.0389502 0)
(-0.0477656 0.0170272 0)
(0.00659518 0.434949 0)
(0.0241822 0.428204 0)
(0.0428889 0.426757 0)
(0.0639719 0.425824 0)
(0.0825124 0.417502 0)
(0.0926048 0.398312 0)
(0.0929618 0.373259 0)
(0.0863954 0.344734 0)
(0.0748408 0.315117 0)
(0.0607018 0.28738 0)
(0.0468864 0.262269 0)
(0.0350782 0.239357 0)
(0.0258996 0.218114 0)
(0.0195103 0.198044 0)
(0.0157816 0.178519 0)
(0.0142331 0.158896 0)
(0.0142284 0.138733 0)
(0.0152551 0.118007 0)
(0.0169104 0.0969777 0)
(0.0190503 0.0758093 0)
(0.0217553 0.0547463 0)
(0.0251851 0.0336101 0)
(0.0292123 0.0116755 0)
(0.0112505 0.415561 0)
(0.0301469 0.408434 0)
(0.0497795 0.405388 0)
(0.0720797 0.404351 0)
(0.0939215 0.399695 0)
(0.11123 0.387884 0)
(0.121971 0.370007 0)
(0.126673 0.347576 0)
(0.126324 0.322426 0)
(0.122449 0.296725 0)
(0.116955 0.271638 0)
(0.111256 0.247562 0)
(0.106186 0.224572 0)
(0.102209 0.202547 0)
(0.0994991 0.181174 0)
(0.0979484 0.160052 0)
(0.0972636 0.138902 0)
(0.0971327 0.117586 0)
(0.0973448 0.0960977 0)
(0.0978079 0.0745757 0)
(0.098487 0.0530777 0)
(0.0994926 0.0314699 0)
(0.100868 0.00946039 0)
(0.014233 0.39333 0)
(0.0340981 0.387577 0)
(0.0544961 0.383366 0)
(0.0772293 0.381344 0)
(0.100673 0.377958 0)
(0.122207 0.370225 0)
(0.139837 0.357497 0)
(0.152927 0.340231 0)
(0.161568 0.319545 0)
(0.166444 0.296952 0)
(0.168645 0.273605 0)
(0.16918 0.250225 0)
(0.168821 0.227221 0)
(0.16813 0.204755 0)
(0.167453 0.182768 0)
(0.16693 0.161079 0)
(0.166536 0.139508 0)
(0.16618 0.117949 0)
(0.165774 0.096371 0)
(0.165284 0.0747805 0)
(0.164729 0.0531757 0)
(0.164168 0.0315001 0)
(0.163675 0.00959448 0)
(0.0159599 0.368886 0)
(0.0366076 0.365664 0)
(0.0576537 0.360991 0)
(0.0803342 0.35786 0)
(0.104103 0.354414 0)
(0.12746 0.34852 0)
(0.148848 0.33901 0)
(0.167233 0.325638 0)
(0.182129 0.308873 0)
(0.193581 0.289655 0)
(0.202044 0.268915 0)
(0.208107 0.247395 0)
(0.212344 0.225622 0)
(0.215258 0.203903 0)
(0.217238 0.182352 0)
(0.218541 0.160948 0)
(0.219303 0.139621 0)
(0.219584 0.118306 0)
(0.219414 0.0969732 0)
(0.218829 0.0756196 0)
(0.217865 0.0542375 0)
(0.21659 0.0327822 0)
(0.215101 0.011213 0)
(0.0167044 0.343065 0)
(0.0379131 0.342907 0)
(0.0594104 0.338484 0)
(0.0817551 0.334579 0)
(0.105045 0.330588 0)
(0.128557 0.32523 0)
(0.151285 0.317447 0)
(0.172254 0.306703 0)
(0.190753 0.293033 0)
(0.206447 0.276913 0)
(0.219355 0.258979 0)
(0.229709 0.239841 0)
(0.237848 0.219997 0)
(0.244135 0.199793 0)
(0.248908 0.179423 0)
(0.252435 0.158966 0)
(0.254916 0.138433 0)
(0.256487 0.117814 0)
(0.257248 0.0971034 0)
(0.257284 0.0763062 0)
(0.256658 0.0554294 0)
(0.255444 0.0344742 0)
(0.25376 0.0134576 0)
(0.0165968 0.316907 0)
(0.0380115 0.319705 0)
(0.0597053 0.316058 0)
(0.0815522 0.311885 0)
(0.103953 0.307408 0)
(0.126651 0.302031 0)
(0.149124 0.295035 0)
(0.170665 0.285899 0)
(0.190598 0.274451 0)
(0.208446 0.260857 0)
(0.223984 0.245484 0)
(0.237196 0.228756 0)
(0.24821 0.211068 0)
(0.257233 0.192732 0)
(0.264499 0.173956 0)
(0.270229 0.154861 0)
(0.274612 0.135508 0)
(0.277798 0.115928 0)
(0.279912 0.0961447 0)
(0.281055 0.0761837 0)
(0.281301 0.0560756 0)
(0.280736 0.035856 0)
(0.279485 0.0155883 0)
(0.0158583 0.291286 0)
(0.0370056 0.296526 0)
(0.0585255 0.293937 0)
(0.0797345 0.289971 0)
(0.101076 0.285315 0)
(0.122522 0.279844 0)
(0.143882 0.273187 0)
(0.164743 0.264981 0)
(0.184598 0.255022 0)
(0.202997 0.243318 0)
(0.219632 0.23004 0)
(0.234351 0.215447 0)
(0.247133 0.199811 0)
(0.25805 0.183371 0)
(0.267229 0.166311 0)
(0.274812 0.148755 0)
(0.280941 0.130782 0)
(0.285741 0.112448 0)
(0.289321 0.0937967 0)
(0.291774 0.0748744 0)
(0.293173 0.0557332 0)
(0.293598 0.0364355 0)
(0.29318 0.017074 0)
(0.0146835 0.266944 0)
(0.0350633 0.273889 0)
(0.0560009 0.272395 0)
(0.0764082 0.268959 0)
(0.0966268 0.264459 0)
(0.116693 0.259043 0)
(0.1366 0.252608 0)
(0.156162 0.244974 0)
(0.175063 0.235995 0)
(0.192964 0.225632 0)
(0.209581 0.213952 0)
(0.224717 0.201091 0)
(0.238275 0.18722 0)
(0.250235 0.172501 0)
(0.260632 0.157073 0)
(0.269537 0.141043 0)
(0.277028 0.124488 0)
(0.283189 0.107471 0)
(0.288095 0.0900477 0)
(0.291813 0.0722763 0)
(0.294398 0.0542241 0)
(0.295922 0.0359697 0)
(0.296508 0.0176231 0)
(0.0132842 0.244375 0)
(0.0324629 0.252279 0)
(0.0524102 0.251736 0)
(0.07182 0.248969 0)
(0.0908675 0.244869 0)
(0.109561 0.239705 0)
(0.127963 0.23354 0)
(0.146022 0.226338 0)
(0.163578 0.218044 0)
(0.180415 0.208632 0)
(0.196319 0.198127 0)
(0.211115 0.186602 0)
(0.224681 0.174153 0)
(0.236953 0.160884 0)
(0.247908 0.14689 0)
(0.257559 0.132252 0)
(0.265931 0.117035 0)
(0.273063 0.101299 0)
(0.278991 0.0851019 0)
(0.283753 0.0685071 0)
(0.287378 0.0515885 0)
(0.289918 0.0344329 0)
(0.29149 0.0171544 0)
(0.0117993 0.223891 0)
(0.0294644 0.232089 0)
(0.0480969 0.23225 0)
(0.0663132 0.230139 0)
(0.0841283 0.226556 0)
(0.101485 0.22179 0)
(0.118442 0.215983 0)
(0.135011 0.209195 0)
(0.151126 0.201443 0)
(0.166671 0.192739 0)
(0.18151 0.183107 0)
(0.195511 0.172591 0)
(0.20857 0.161251 0)
(0.220609 0.149151 0)
(0.23158 0.136354 0)
(0.24146 0.122916 0)
(0.250238 0.10889 0)
(0.257916 0.0943276 0)
(0.264498 0.0792839 0)
(0.269991 0.0638222 0)
(0.2744 0.0480172 0)
(0.277759 0.0319557 0)
(0.280164 0.0157496 0)
(0.0103393 0.205605 0)
(0.0263101 0.213583 0)
(0.0433987 0.21417 0)
(0.060256 0.212601 0)
(0.0767681 0.209541 0)
(0.0928084 0.20524 0)
(0.108401 0.199859 0)
(0.123566 0.193502 0)
(0.138285 0.186236 0)
(0.152505 0.178106 0)
(0.16615 0.169151 0)
(0.179137 0.159412 0)
(0.191388 0.148933 0)
(0.202838 0.137759 0)
(0.213433 0.125932 0)
(0.223136 0.113494 0)
(0.231916 0.100488 0)
(0.239752 0.0869573 0)
(0.246625 0.0729531 0)
(0.25252 0.0585358 0)
(0.25742 0.0437772 0)
(0.261339 0.0287609 0)
(0.264356 0.0135912 0)
(0.00895752 0.189516 0)
(0.0231679 0.1969 0)
(0.0385943 0.197651 0)
(0.0539792 0.196463 0)
(0.0691257 0.193855 0)
(0.0838527 0.190014 0)
(0.0981403 0.185081 0)
(0.111993 0.179168 0)
(0.125404 0.172366 0)
(0.138351 0.16474 0)
(0.150797 0.156347 0)
(0.162696 0.147231 0)
(0.173998 0.137436 0)
(0.184654 0.126998 0)
(0.194622 0.115954 0)
(0.203861 0.104338 0)
(0.212337 0.0921866 0)
(0.220017 0.0795395 0)
(0.226869 0.0664448 0)
(0.232863 0.0529599 0)
(0.237971 0.0391536 0)
(0.242188 0.0251045 0)
(0.245574 0.0109093 0)
(0.00769336 0.175519 0)
(0.0201639 0.182073 0)
(0.033892 0.18277 0)
(0.0477464 0.181794 0)
(0.0614854 0.179528 0)
(0.0748945 0.176091 0)
(0.0879145 0.171584 0)
(0.100524 0.166107 0)
(0.112711 0.159749 0)
(0.12446 0.152588 0)
(0.135754 0.144687 0)
(0.146568 0.136099 0)
(0.156874 0.126868 0)
(0.166641 0.117033 0)
(0.175838 0.106629 0)
(0.184433 0.0956901 0)
(0.192392 0.0842508 0)
(0.199683 0.072351 0)
(0.20627 0.0600381 0)
(0.212118 0.0473687 0)
(0.217188 0.0344094 0)
(0.221466 0.0212362 0)
(0.224991 0.00793866 0)
(0.00655865 0.163467 0)
(0.0173682 0.169062 0)
(0.0294312 0.169541 0)
(0.0417482 0.168623 0)
(0.0540657 0.166579 0)
(0.0661561 0.163461 0)
(0.0779318 0.159327 0)
(0.0893464 0.154251 0)
(0.100373 0.148312 0)
(0.110992 0.141583 0)
(0.121191 0.134129 0)
(0.130956 0.126007 0)
(0.14027 0.117263 0)
(0.149117 0.10794 0)
(0.157475 0.0980739 0)
(0.165323 0.0877015 0)
(0.172633 0.0768601 0)
(0.179378 0.0655917 0)
(0.185525 0.0539458 0)
(0.191039 0.0419806 0)
(0.19588 0.029764 0)
(0.200025 0.0173717 0)
(0.203495 0.00489081 0)
(0.00556126 0.153176 0)
(0.0148255 0.157776 0)
(0.0252984 0.157924 0)
(0.0361129 0.156942 0)
(0.0470239 0.155005 0)
(0.0578073 0.152112 0)
(0.0683585 0.14828 0)
(0.078612 0.143555 0)
(0.0885246 0.137996 0)
(0.0980685 0.131666 0)
(0.107226 0.124624 0)
(0.115985 0.116924 0)
(0.124335 0.108616 0)
(0.132265 0.0997421 0)
(0.139762 0.0903428 0)
(0.146813 0.0804569 0)
(0.1534 0.0701255 0)
(0.159502 0.0593946 0)
(0.165093 0.0483175 0)
(0.170143 0.0369571 0)
(0.174614 0.0253853 0)
(0.178479 0.0136827 0)
(0.181743 0.00193809 0)
(0.00469448 0.14446 0)
(0.0125497 0.148089 0)
(0.021542 0.147845 0)
(0.0309221 0.146708 0)
(0.0404696 0.144782 0)
(0.0499752 0.142024 0)
(0.0593283 0.138419 0)
(0.068451 0.133985 0)
(0.0772871 0.128759 0)
(0.0857986 0.122788 0)
(0.0939605 0.116123 0)
(0.101757 0.108812 0)
(0.109176 0.100902 0)
(0.11621 0.0924349 0)
(0.122852 0.0834524 0)
(0.129092 0.0739954 0)
(0.13492 0.0641082 0)
(0.140325 0.0538404 0)
(0.145289 0.0432506 0)
(0.149791 0.0324079 0)
(0.153798 0.0213927 0)
(0.157282 0.0102947 0)
(0.160226 -0.000789879 0)
(0.00395313 0.137122 0)
(0.0105474 0.139859 0)
(0.0181864 0.139201 0)
(0.0262271 0.137851 0)
(0.03448 0.135861 0)
(0.042758 0.133161 0)
(0.0509525 0.129712 0)
(0.0589804 0.125507 0)
(0.0667774 0.120562 0)
(0.0742963 0.114909 0)
(0.0815043 0.108585 0)
(0.0883794 0.101632 0)
(0.0949066 0.0940891 0)
(0.101076 0.0859974 0)
(0.106881 0.0773964 0)
(0.112316 0.0683275 0)
(0.117377 0.0588358 0)
(0.122059 0.0489735 0)
(0.126356 0.0388032 0)
(0.130258 0.0284019 0)
(0.133743 0.0178621 0)
(0.136785 0.00729068 0)
(0.139347 -0.00320226 0)
(0.00332557 0.130977 0)
(0.0088125 0.13293 0)
(0.0152431 0.131868 0)
(0.022062 0.130275 0)
(0.0291139 0.128171 0)
(0.0362372 0.12547 0)
(0.0433316 0.122115 0)
(0.0503145 0.11808 0)
(0.0571181 0.113366 0)
(0.0636895 0.107987 0)
(0.0699892 0.101968 0)
(0.0759883 0.0953417 0)
(0.0816664 0.0881404 0)
(0.0870093 0.0803994 0)
(0.0920079 0.0721552 0)
(0.0966569 0.0634463 0)
(0.100955 0.0543159 0)
(0.104905 0.0448154 0)
(0.108511 0.0350091 0)
(0.111778 0.0249807 0)
(0.114702 0.0148385 0)
(0.117263 0.00471636 0)
(0.11941 -0.00524389 0)
(0.00280304 0.125844 0)
(0.00734295 0.127141 0)
(0.0127212 0.125704 0)
(0.0184561 0.123863 0)
(0.024424 0.121616 0)
(0.0304896 0.118872 0)
(0.0365645 0.115563 0)
(0.0425716 0.111649 0)
(0.0484441 0.107118 0)
(0.0541264 0.101971 0)
(0.0595741 0.0962228 0)
(0.0647521 0.089894 0)
(0.0696334 0.0830108 0)
(0.0741974 0.0756021 0)
(0.0784296 0.0676988 0)
(0.0823213 0.0593342 0)
(0.0858703 0.0505458 0)
(0.0890832 0.0413792 0)
(0.0919748 0.031895 0)
(0.0945686 0.022179 0)
(0.0968869 0.0123562 0)
(0.0989332 0.00260132 0)
(0.100641 -0.00688101 0)
(0.00237379 0.121551 0)
(0.00613988 0.122319 0)
(0.0106383 0.120551 0)
(0.0154462 0.118474 0)
(0.0204683 0.116078 0)
(0.0255961 0.113268 0)
(0.0307559 0.10997 0)
(0.0358798 0.106139 0)
(0.0409051 0.101751 0)
(0.0457765 0.0967993 0)
(0.0504466 0.0912878 0)
(0.0548747 0.0852304 0)
(0.0590265 0.0786462 0)
(0.0628734 0.0715576 0)
(0.0663921 0.0639893 0)
(0.0695657 0.0559673 0)
(0.0723858 0.0475198 0)
(0.0748562 0.0386802 0)
(0.076998 0.0294961 0)
(0.0788531 0.0200446 0)
(0.0804843 0.0104601 0)
(0.0819476 0.000973517 0)
(0.0831706 -0.0080863 0)
(0.00203715 0.117917 0)
(0.00523522 0.118285 0)
(0.00904057 0.116246 0)
(0.0130921 0.113966 0)
(0.0173219 0.111432 0)
(0.0216503 0.108548 0)
(0.0260212 0.105242 0)
(0.0303779 0.101465 0)
(0.0346643 0.0971872 0)
(0.0388269 0.0923971 0)
(0.0428164 0.0870935 0)
(0.0465873 0.0812844 0)
(0.0500976 0.0749838 0)
(0.0533088 0.0682095 0)
(0.0561853 0.0609805 0)
(0.0586962 0.0533152 0)
(0.0608184 0.0452299 0)
(0.0625422 0.03674 0)
(0.0638805 0.027867 0)
(0.0648845 0.0186562 0)
(0.0656646 0.00922805 0)
(0.0663835 -0.000119341 0)
(0.0670051 -0.00884819 0)
(0.00183989 0.114745 0)
(0.00473233 0.114839 0)
(0.00803069 0.112609 0)
(0.0114891 0.110176 0)
(0.0150789 0.107524 0)
(0.0187549 0.104568 0)