/*--------------------------------*- C++ -*----------------------------------*\
  =========                 |
  \\      /  F ield         | OpenFOAM: The Open Source CFD Toolbox
   \\    /   O peration     | Website:  https://openfoam.org
    \\  /    A nd           | Version:  13
     \\/     M anipulation  |
\*---------------------------------------------------------------------------*/
FoamFile
{
    format      ascii;
    class       volScalarField;
    location    "1.6";
    object      alpha.mercury;
}
// * * * * * * * * * * * * * * * * * * * * * * * * * * * * * * * * * * * * * //

dimensions      [];

internalField   nonuniform List<scalar> 
2268
(
1
1
1
1
1
1
1
1
1
1
1
1
1
1
1
1
1
1
1
1
0.999942
0.999454
0.999432
1
1
1
1
1
1
1
1
1
1
1
1
1
1
1
1
1
1
1
1
0.999998
0.99981
0.999432
1
1
1
1
1
1
1
1
1
1
1
1
1
1
1
1
1
1
1
1
1
0.999995
0.999921
1
1
1
1
1
1
1
1
1
1
1
1
1
1
1
1
1
1
1
1
1
1
1
0.81238
0.806479
0.815144
0.843623
0.879082
0.913052
0.943329
0.969731
0.991075
1
1
1
1
1
1
1
1
1
1
1
1
1
1
0.0401799
0.0602283
0.0772373
0.102005
0.136142
0.179171
0.23283
0.301551
0.392004
0.514329
0.667395
0.81296
0.92308
0.990633
1
1
1
1
1
1
1
1
1
2.34441e-11
3.38004e-12
5.66733e-13
3.38566e-12
5.72348e-13
2.69171e-09
1.94837e-08
2.65731e-08
3.85868e-08
0.00301002
0.0123473
0.0592869
0.175956
0.368281
0.6485
0.908238
1
1
1
1
1
1
1
1.42231e-09
1.6585e-09
1.65747e-09
1.56253e-09
1.47975e-09
1.43071e-09
1.27909e-09
1.14741e-09
1.30821e-09
3.31999e-08
4.59064e-08
5.74755e-08
6.56233e-08
6.23717e-08
0.0114572
0.0991594
0.375651
0.742313
0.96687
0.983049
0.987661
0.990583
0.996276
0.876157
0.876554
0.875949
0.856626
0.597171
0.553176
0.559044
0.57618
0.576224
0.595563
0.679746
0.699085
0.706407
0.70536
0.705166
0.70378
0.703866
0.702602
0.702427
0.876426
0.876156
0.826373
0.847362
0.849688
0.842215
0.819027
0.8175
0.817472
0.739779
0.605404
0.59111
0.581659
0.572958
0.548612
0.583653
0.624394
0.629238
0.540108
0.836718
0.729134
0.483426
0.46135
0.653916
0.796831
0.801189
0.696277
0.517881
0.430311
0.40504
0.321312
0.268499
0.247442
0.267091
0.259466
0.248862
0.306997
0.377206
0.215804
0.3191
0.452089
0.233013
0.183633
0.226317
0.255842
0.262142
0.275263
0.211934
0.1965
0.212395
0.19374
0.14828
0.138083
0.134168
0.121868
0.130905
0.150451
0.026909
0.0875447
0.180489
0.215851
0.0552364
0.000503582
9.69425e-05
8.00208e-05
0.00429473
0.0453396
0.0730873
0.0647921
0.052361
0.0491191
0.0511681
0.0741516
0.0871594
0.0637522
0.0470813
0.00212973
0.0402281
0.0802434
0.143784
0.0569877
8.27942e-05
7.94965e-05
7.7299e-05
0.000275686
2.5341e-08
2.9814e-09
4.11779e-10
6.22292e-11
1.56453e-10
1.00056e-10
0.000955361
0.00580325
0.00257866
0.00607329
0.00939457
0.002516
0.042065
0.124266
0.0998725
0.00912512
8.65418e-05
7.99348e-05
0.00051498
0.000651569
0.000204836
6.22292e-11
3.76519e-07
2.4187e-05
8.73213e-05
4.11062e-05
3.69073e-05
0.00271246
0.0124297
0.0581079
0.00826513
0.0142257
0.0802832
0.103444
0.0560973
0.000613635
9.06585e-05
0.000264372
0.000298722
0.000165136
4.17704e-05
9.85669e-07
0.000104643
0.000269461
0.000234226
3.6778e-05
0.00356479
0.0124127
1.47709e-09
1.94737e-09
2.32716e-09
2.49533e-09
2.59903e-09
2.5959e-09
2.3039e-09
1.85768e-09
1.39146e-09
1.37011e-09
1.42051e-09
1.69044e-09
1.83916e-09
1.6269e-09
4.35544e-08
4.61356e-08
0.000503402
0.028664
0.126737
0.27393
0.396272
0.456459
0.49961
4.26774e-10
6.77967e-10
1.16081e-09
1.69841e-09
2.33663e-09
2.71734e-09
2.78025e-09
2.58325e-09
2.07753e-09
1.44749e-09
7.87495e-10
4.66845e-10
2.97068e-10
2.38738e-10
1.42812e-09
2.3216e-09
3.98776e-08
6.80087e-08
1.94729e-08
2.22713e-09
2.31607e-09
2.22713e-09
2.31607e-09
2.41221e-10
2.74585e-10
3.64754e-10
4.27042e-10
5.19764e-10
7.38038e-10
7.99999e-10
7.59981e-10
6.97443e-10
6.19009e-10
4.91395e-10
3.51428e-10
2.21881e-10
1.37552e-10
9.7586e-11
9.73655e-11
4.34442e-10
4.66962e-09
5.92832e-09
5.63588e-09
2.58364e-09
2.25215e-09
5.40571e-09
2.52332e-10
3.10636e-10
3.48755e-10
3.56542e-10
3.34432e-10
3.21464e-10
3.26913e-10
3.93916e-10
5.08177e-10
6.28279e-10
6.96546e-10
7.58254e-10
8.49506e-10
9.43927e-10
9.89286e-10
1.04836e-09
1.07338e-09
1.01039e-09
9.25065e-10
6.52632e-10
2.68662e-10
1.65212e-10
1.94486e-07
3.64302e-10
5.12638e-10
5.50024e-10
5.84388e-10
6.78476e-10
8.30523e-10
1.02478e-09
1.23967e-09
1.49961e-09
1.7554e-09
1.88045e-09
1.97099e-09
2.08442e-09
2.34333e-09
2.77662e-09
3.26219e-09
3.27449e-09
3.27523e-09
2.95758e-09
2.07531e-09
7.30747e-10
1.89829e-10
2.78999e-07
4.85557e-10
5.79051e-10
5.83735e-10
6.36292e-10
7.15316e-10
9.50141e-10
1.1256e-09
1.28894e-09
1.47615e-09
1.61619e-09
1.64491e-09
1.6129e-09
1.59299e-09
1.71025e-09
2.10671e-09
2.43324e-09
2.45777e-09
2.20806e-09
1.89159e-09
1.823e-09
1.32312e-09
6.84494e-10
9.75337e-08
5.07631e-10
5.11634e-10
3.75847e-10
3.40951e-10
3.42032e-10
3.46954e-10
3.29023e-10
3.13013e-10
3.13457e-10
3.17206e-10
3.11338e-10
2.80676e-10
2.61947e-10
2.35887e-10
2.21928e-10
2.49029e-10
2.41785e-10
2.34623e-10
3.33758e-10
8.26939e-10
1.15639e-09
9.12968e-10
7.4472e-11
5.0512e-10
5.35984e-10
3.05601e-10
2.00166e-10
1.55856e-10
1.13622e-10
8.12845e-11
6.05459e-11
4.67836e-11
4.03529e-11
3.92446e-11
3.90363e-11
4.0551e-11
4.06568e-11
3.87666e-11
3.94899e-11
4.45192e-11
4.95156e-11
4.67781e-11
4.07742e-11
6.78939e-11
7.10587e-11
6.59876e-11
4.76097e-10
5.21523e-10
4.37112e-10
2.45551e-10
1.78754e-10
1.46321e-10
1.04737e-10
7.33646e-11
4.64219e-11
2.57519e-11
1.7183e-11
1.1658e-11
1.01829e-11
9.96374e-12
1.09476e-11
1.25625e-11
1.31253e-11
1.3181e-11
1.35698e-11
1.47739e-11
1.43072e-11
1.5508e-11
1.99777e-11
3.05915e-10
4.01311e-10
4.49337e-10
3.80864e-10
3.06853e-10
2.66213e-10
2.14892e-10
1.53729e-10
9.7144e-11
6.06752e-11
2.51223e-11
1.14634e-11
8.03858e-12
7.17225e-12
6.52587e-12
5.34619e-12
4.22768e-12
3.48155e-12
2.78112e-12
2.39705e-12
2.11556e-12
1.99597e-12
1.88994e-12
1.61065e-10
2.62237e-10
4.49865e-10
4.31273e-10
4.12782e-10
3.81418e-10
3.14863e-10
2.57096e-10
2.00202e-10
1.32656e-10
6.99938e-11
2.78417e-11
1.17192e-11
8.65976e-12
7.41809e-12
5.20737e-12
3.62779e-12
2.65336e-12
1.98211e-12
1.39921e-12
1.04586e-12
7.45189e-13
6.12064e-13
8.70608e-11
2.28416e-10
4.45828e-10
4.53633e-10
4.48225e-10
4.15101e-10
3.38895e-10
2.81957e-10
2.5033e-10
2.01712e-10
1.44164e-10
8.18892e-11
3.45377e-11
1.9909e-11
1.38191e-11
8.187e-12
4.81444e-12
2.95368e-12
2.07779e-12
1.38522e-12
8.76429e-13
5.56891e-13
3.44392e-13
4.9457e-11
1.90828e-10
3.8788e-10
4.50483e-10
4.29493e-10
3.72065e-10
2.94366e-10
2.68383e-10
2.54351e-10
2.15723e-10
1.72306e-10
1.1738e-10
6.3803e-11
3.05795e-11
1.81917e-11
1.23591e-11
6.47307e-12
4.27302e-12
2.7213e-12
1.49985e-12
8.15052e-13
4.74364e-13
2.81045e-13
3.22982e-11
1.53879e-10
2.9922e-10
3.92679e-10
3.48575e-10
2.76814e-10
2.44503e-10
2.41629e-10
2.34546e-10
2.10338e-10
1.75594e-10
1.25791e-10
7.68458e-11
3.8436e-11
2.31945e-11
1.51672e-11
7.74298e-12
4.68088e-12
2.93308e-12
1.54589e-12
7.72983e-13
4.16904e-13
2.30323e-13
2.24409e-11
1.13308e-10
2.44133e-10
2.87665e-10
2.55102e-10
2.23455e-10
2.09297e-10
1.96385e-10
1.79902e-10
1.75653e-10
1.56054e-10
1.2169e-10
7.70588e-11
4.10843e-11
2.51777e-11
1.47175e-11
7.80333e-12
4.51513e-12
2.79004e-12
1.44333e-12
7.83378e-13
4.15468e-13
2.08231e-13
1.36124e-11
7.96238e-11
1.58323e-10
1.92326e-10
1.81619e-10
1.67943e-10
1.52472e-10
1.41052e-10
1.33704e-10
1.31003e-10
1.1919e-10
9.82753e-11
6.91946e-11
3.82778e-11
2.38719e-11
1.31571e-11
7.5292e-12
3.74316e-12
2.28391e-12
1.28474e-12
8.01974e-13
4.06472e-13
2.35213e-13
1.15126e-11
4.36197e-11
8.24948e-11
1.02726e-10
1.11422e-10
1.11195e-10
1.00684e-10
9.03269e-11
8.58432e-11
7.59603e-11
7.26379e-11
6.55155e-11
5.06451e-11
3.13896e-11
1.95154e-11
1.10393e-11
6.83025e-12
2.88044e-12
1.85596e-12
1.15862e-12
7.2203e-13
4.04539e-13
2.51281e-13
8.04757e-12
2.65646e-11
4.46471e-11
5.12602e-11
6.49465e-11
6.71436e-11
6.29102e-11
5.61172e-11
4.54631e-11
3.86364e-11
3.43545e-11
3.19615e-11
2.79342e-11
2.30324e-11
1.22051e-11
8.06909e-12
4.3305e-12
2.31933e-12
1.51803e-12
9.7338e-13
6.3627e-13
3.78049e-13
2.52291e-13
4.67666e-12
1.6007e-11
2.6841e-11
3.28206e-11
4.04729e-11
4.32475e-11
3.95817e-11
3.25294e-11
2.49953e-11
2.02106e-11
1.49179e-11
1.35698e-11
1.25925e-11
1.16824e-11
6.49019e-12
4.07812e-12
2.85019e-12
2.02833e-12
1.26712e-12
8.00647e-13
4.96416e-13
3.36622e-13
2.36709e-13
2.64471e-12
8.76059e-12
1.52676e-11
1.99612e-11
2.36283e-11
2.53078e-11
2.59658e-11
2.26315e-11
1.74252e-11
1.18023e-11
8.66604e-12
6.78605e-12
5.65177e-12
4.54711e-12
3.74537e-12
2.72599e-12
1.95922e-12
1.56447e-12
9.9663e-13
6.41743e-13
4.04629e-13
2.86861e-13
2.122e-13
1.27199e-12
4.46972e-12
8.09819e-12
1.09472e-11
1.34406e-11
1.59577e-11
1.63151e-11
1.49838e-11
1.1808e-11
8.00179e-12
5.46316e-12
3.6926e-12
2.54794e-12
2.12181e-12
1.95799e-12
1.68614e-12
1.23717e-12
9.99496e-13
7.32639e-13
5.00397e-13
2.92438e-13
2.28553e-13
1.78881e-13
6.13012e-13
2.02417e-12
3.70596e-12
5.26681e-12
6.82175e-12
8.36034e-12
9.33898e-12
9.1037e-12
7.89387e-12
5.96896e-12
3.64074e-12
2.18559e-12
1.46239e-12
1.15738e-12
9.70326e-13
7.94538e-13
6.8426e-13
5.72717e-13
4.6805e-13
3.59612e-13
2.07118e-13
1.63098e-13
1.32127e-13
2.191e-13
7.45189e-13
1.502e-12
2.19187e-12
3.02156e-12
3.8637e-12
4.59812e-12
4.99964e-12
4.79712e-12
3.84088e-12
2.70836e-12
1.41772e-12
8.65765e-13
6.21386e-13
4.82592e-13
4.06181e-13
3.47568e-13
2.95613e-13
2.55168e-13
2.032e-13
1.33766e-13
1.03185e-13
8.38361e-14
7.98945e-14
2.7972e-13
5.00654e-13
7.38404e-13
1.0417e-12
1.65005e-12
1.93811e-12
2.30724e-12
2.5656e-12
2.24462e-12
1.6308e-12
9.52555e-13
5.30629e-13
3.18521e-13
2.26658e-13
1.74897e-13
1.53568e-13
1.35415e-13
1.1873e-13
9.48632e-14
7.29627e-14
5.89791e-14
4.7867e-14
2.39327e-14
8.512e-14
1.54367e-13
2.18281e-13
2.99984e-13
5.24261e-13
7.45256e-13
8.4433e-13
1.14654e-12
1.18728e-12
8.86279e-13
5.92584e-13
3.22274e-13
1.77012e-13
1.08394e-13
7.7176e-14
6.11487e-14
5.28771e-14
4.55717e-14
4.15447e-14
3.4382e-14
2.88993e-14
2.31368e-14
7.17758e-15
2.24246e-14
4.04027e-14
5.87877e-14
8.47378e-14
1.53927e-13
2.29419e-13
2.85012e-13
3.73459e-13
5.08978e-13
4.11554e-13
2.93672e-13
1.88956e-13
9.51818e-14
4.98227e-14
3.35988e-14
2.40656e-14
2.05067e-14
1.76455e-14
1.58043e-14
1.37927e-14
1.14244e-14
9.70744e-15
1.16411e-15
4.84613e-15
9.06122e-15
1.35051e-14
2.12032e-14
4.37731e-14
6.59224e-14
8.87408e-14
1.15361e-13
1.65732e-13
1.59518e-13
1.22347e-13
8.16339e-14
4.61828e-14
2.27342e-14
1.34342e-14
9.10052e-15
7.21949e-15
6.29607e-15
5.58071e-15
4.78409e-15
4.25136e-15
3.63754e-15
2.10678e-16
8.51569e-16
1.70434e-15
2.65063e-15
4.51644e-15
1.04627e-14
1.70873e-14
2.34546e-14
3.12096e-14
4.70745e-14
4.89497e-14
4.10357e-14
2.98829e-14
1.85967e-14
8.96839e-15
4.75755e-15
3.08347e-15
2.48083e-15
2.07607e-15
1.83537e-15
1.59141e-15
1.26839e-15
1.14343e-15
1.85448e-17
1.13651e-16
2.4517e-16
4.14296e-16
7.94349e-16
2.01581e-15
3.8833e-15
5.4011e-15
7.59101e-15
1.16612e-14
1.26602e-14
1.10578e-14
8.40642e-15
5.86787e-15
3.03074e-15
1.49321e-15
9.3285e-16
7.09313e-16
5.96825e-16
5.32221e-16
4.37315e-16
3.71569e-16
3.12459e-16
1.52868e-18
1.09237e-17
2.64122e-17
4.99959e-17
1.0545e-16
3.05572e-16
7.01372e-16
1.05352e-15
1.545e-15
2.39527e-15
2.75702e-15
2.46292e-15
1.95414e-15
1.37767e-15
7.71474e-16
3.76403e-16
2.44496e-16
1.79632e-16
1.52322e-16
1.3733e-16
1.18594e-16
8.80544e-17
7.2798e-17
2.91588e-20
6.14948e-19
1.86874e-18
3.99358e-18
1.01037e-17
3.6356e-17
1.01344e-16
1.73655e-16
2.75194e-16
4.30377e-16
4.83652e-16
4.31687e-16
3.58323e-16
2.65552e-16
1.38999e-16
7.76857e-17
5.51289e-17
3.9679e-17
3.42237e-17
3.00527e-17
2.65136e-17
1.90353e-17
1.41335e-17
6.58085e-22
1.65029e-20
6.32797e-20
2.00178e-19
7.26129e-19
3.15539e-18
1.13564e-17
2.32329e-17
3.9844e-17
6.25343e-17
6.74935e-17
6.23408e-17
5.47982e-17
3.7583e-17
2.101e-17
1.25407e-17
9.45545e-18
7.41306e-18
6.28701e-18
5.66597e-18
4.99482e-18
3.00692e-18
2.36162e-18
1.96578e-24
8.30179e-23
7.68366e-22
5.64865e-21
4.60456e-20
2.41502e-19
8.39026e-19
2.37791e-18
4.51339e-18
6.45508e-18
7.09821e-18
7.05671e-18
6.11595e-18
4.23615e-18
2.55774e-18
1.77153e-18
1.44662e-18
1.14919e-18
9.78507e-19
8.77701e-19
7.09564e-19
4.92785e-19
3.10462e-19
2.57582e-26
9.80568e-25
2.33913e-23
2.93301e-22
2.49457e-21
1.51789e-20
6.00819e-20
1.80764e-19
4.26547e-19
5.89132e-19
6.79724e-19
6.73826e-19
5.72448e-19
3.93591e-19
2.67804e-19
2.18145e-19
1.7895e-19
1.54038e-19
1.30521e-19
1.1771e-19
9.35882e-20
5.66097e-20
3.32251e-20
6.12869e-28
5.70885e-27
6.05247e-25
1.16691e-23
1.2533e-22
7.62488e-22
3.37983e-21
1.19416e-20
3.19277e-20
4.66178e-20
5.4034e-20
5.35787e-20
4.48396e-20
3.3078e-20
2.65249e-20
2.35139e-20
2.15381e-20
1.86458e-20
1.65567e-20
1.38281e-20
9.62825e-21
5.80684e-21
3.00871e-21
1.78207e-29
1.28015e-28
1.89953e-26
4.3553e-25
4.9567e-24
3.57248e-23
1.81448e-22
7.13646e-22
2.17985e-21
3.24752e-21
3.72901e-21
3.64332e-21
3.10611e-21
2.61914e-21
2.40805e-21
2.2959e-21
2.16642e-21
1.89756e-21
1.67791e-21
1.28983e-21
8.54072e-22
4.47626e-22
2.44516e-22
4.27147e-31
2.72421e-30
4.72929e-28
1.28083e-26
1.67621e-25
1.43486e-24
8.17217e-24
3.4585e-23
1.2125e-22
1.88333e-22
2.17035e-22
2.14949e-22
2.00708e-22
1.99154e-22
2.0045e-22
2.0039e-22
1.9332e-22
1.75303e-22
1.43788e-22
1.00849e-22
5.52199e-23
3.19665e-23
8.32354e-24
8.18242e-33
4.62803e-32
9.46412e-30
3.15673e-28
4.97811e-27
4.6705e-26
3.07292e-25
1.44509e-24
5.68624e-24
9.20457e-24
1.08837e-23
1.15441e-23
1.25195e-23
1.39169e-23
1.49694e-23
1.54947e-23
1.51696e-23
1.33992e-23
1.04139e-23
6.69733e-24
3.92913e-24
9.9548e-25
9.47365e-26
1.24803e-34
6.41417e-34
1.58412e-31
6.88352e-30
1.21909e-28
1.28836e-27
1.03449e-26
5.21605e-26
2.22382e-25
3.75083e-25
4.73584e-25
5.928e-25
7.19895e-25
8.57639e-25
9.77108e-25
1.05228e-24
1.0601e-24
9.29689e-25
6.67216e-25
4.31227e-25
1.2904e-25
1.28976e-26
1.45285e-27
8.31492e-37
6.69329e-36
2.31387e-33
1.42219e-31
2.71727e-30
3.33989e-29
3.29596e-28
1.90653e-27
8.71035e-27
1.50038e-26
2.08814e-26
2.94759e-26
4.04417e-26
5.22164e-26
6.20333e-26
6.90186e-26
6.99377e-26
6.14858e-26
3.92267e-26
1.50452e-26
2.56952e-27
2.709e-28
4.29748e-28
-6.75358e-38
2.42391e-39
3.06182e-35
2.86888e-33
5.93382e-32
8.03139e-31
9.42228e-30
5.76253e-29
2.75022e-28
5.18202e-28
8.151e-28
1.33141e-27
1.99824e-27
2.76452e-27
3.45637e-27
4.01461e-27
4.06082e-27
3.41063e-27
1.84328e-27
5.17562e-28
6.21965e-29
4.60246e-29
2.29041e-28
-5.48915e-39
5.29786e-41
3.74576e-37
5.04838e-35
1.15163e-33
1.76999e-32
2.42102e-31
1.66259e-30
7.74558e-30
1.5344e-29
2.74786e-29
5.09271e-29
8.40347e-29
1.27891e-28
1.84039e-28
2.17877e-28
2.18994e-28
1.69981e-28
7.59692e-29
1.66774e-29
4.14218e-30
1.42247e-29
1.01993e-28
0.485111
0.475147
0.562528
0.572196
2.22713e-09
2.31707e-09
2.25871e-09
5.65902e-09
4.34483e-09
2.24944e-09
8.61242e-08
4.57305e-08
1.55551e-07
3.82786e-09
6.14228e-07
8.0848e-07
2.90988e-07
1.30758e-08
9.09579e-07
2.3074e-06
1.38232e-07
2.61937e-07
1.9959e-07
1.74749e-07
7.32724e-11
1.1535e-10
6.81171e-11
7.16948e-11
6.20643e-11
5.22064e-11
5.6823e-11
6.05752e-11
2.50604e-11
3.25724e-11
3.56375e-11
3.55795e-11
1.9875e-12
2.85997e-12
3.08199e-12
3.27008e-12
5.5327e-13
5.63037e-13
6.80583e-13
6.74288e-13
2.88368e-13
2.82792e-13
2.56981e-13
2.33995e-13
2.0559e-13
1.58598e-13
1.53197e-13
1.47171e-13
1.47057e-13
1.17881e-13
1.05522e-13
1.13197e-13
1.21266e-13
9.61282e-14
9.53772e-14
1.77955e-13
1.20457e-13
9.47004e-14
9.29144e-14
1.09076e-13
1.43487e-13
1.07488e-13
9.60436e-14
9.32992e-14
1.55497e-13
1.17871e-13
1.02416e-13
9.12487e-14
1.56734e-13
1.21426e-13
1.01159e-13
8.47712e-14
1.48353e-13
1.22572e-13
9.69066e-14
8.24356e-14
1.30885e-13
1.06831e-13
9.16926e-14
7.6661e-14
1.0271e-13
8.92676e-14
7.37285e-14
6.42164e-14
6.62753e-14
5.67967e-14
5.17045e-14
4.51313e-14
3.59241e-14
3.24964e-14
2.88025e-14
2.58789e-14
1.71021e-14
1.46382e-14
1.35316e-14
1.2072e-14
6.83046e-15
5.74407e-15
5.32048e-15
4.69765e-15
2.69749e-15
2.15425e-15
1.923e-15
1.62791e-15
8.3494e-16
6.59643e-16
5.86925e-16
4.73759e-16
2.39758e-16
1.83019e-16
1.57678e-16
1.18667e-16
5.41515e-17
4.24062e-17
3.4663e-17
2.44688e-17
1.04444e-17
7.55834e-18
5.97696e-18
4.12198e-18
1.76197e-18
1.15816e-18
8.70446e-19
5.66987e-19
2.21455e-19
1.48295e-19
9.45408e-20
5.96195e-20
2.2553e-20
1.34369e-20
8.55705e-21
5.60975e-21
1.93249e-21
1.31984e-21
5.39738e-22
7.50358e-23
8.46245e-23
1.65561e-23
2.03897e-24
7.49363e-26
1.0523e-25
4.63915e-27
8.64589e-27
2.08291e-26
1.45941e-27
3.21561e-27
7.85964e-27
2.19556e-26
1.45117e-27
2.58418e-27
7.52366e-27
2.38771e-26
7.88024e-28
2.32905e-27
8.0147e-27
2.51503e-26
5.46648e-28
2.03377e-27
7.19385e-27
2.17241e-26
3.88039e-28
1.31165e-27
4.15541e-27
1.10731e-26
0.192085
0.0332631
0.0135679
0.0515999
0.100856
0.0901194
0.0100845
4.1408e-05
6.30485e-05
7.9008e-05
6.7631e-05
2.54045e-05
1.14772e-05
8.6534e-06
0.000213608
0.000479159
0.000253065
0.000751746
0.0087088
4.48184e-07
0.00240167
0.00342605
0.000827045
0.0171006
0.0615726
0.0346587
0.000128303
3.0187e-06
3.4421e-06
5.54958e-06
4.54803e-06
4.91956e-06
1.75972e-06
6.94571e-06
0.000473369
0.000458536
1.43405e-06
0.00244234
4.2353e-08
0.00288513
0.0036013
0.00118608
2.25221e-05
0.000887685
0.00996466
0.00577135
3.39478e-05
2.92597e-06
3.59054e-06
1.32827e-06
1.00027e-08
1.48615e-06
3.39247e-06
0.000127864
0.000148927
1.47266e-07
0.00104263
3.75359e-08
0.000190732
0.000747389
0.000621875
4.10883e-05
6.78179e-06
0.000153957
0.0012458
0.00125689
0.000839456
1.6633e-05
1.07967e-08
1.00046e-08
1.18982e-06
1.70105e-06
2.41154e-12
3.30882e-14
2.42487e-10
0.000454171
7.68737e-07
2.77469e-10
2.86187e-10
2.57538e-10
2.07074e-08
7.12474e-08
3.9864e-08
1.07617e-05
0.000304718
0.000327825
6.36325e-05
2.22137e-07
1.62794e-07
3.42312e-07
-1.31771e-16
3.33887e-14
4.23721e-21
2.06849e-07
0.000706063
4.69525e-08
2.86187e-10
9.90449e-10
9.12467e-10
9.14556e-11
1.49285e-08
3.95632e-08
1.03608e-08
-5.86624e-10
1.628e-06
1.56942e-05
7.05836e-06
5.95958e-07
1.60103e-08
6.22667e-10
9.90941e-18
2.70355e-08
7.52252e-07
0.000742008
8.38769e-11
2.77377e-10
7.44261e-10
6.35439e-10
1.02632e-10
6.70476e-09
3.97255e-08
3.94646e-08
1.82544e-08
1.82232e-08
1.02709e-06
2.86749e-06
9.51165e-07
5.25365e-08
2.89123e-09
-1.96136e-15
1.21031e-06
8.41191e-07
0.000297682
1.26081e-10
3.04122e-10
3.07437e-10
2.88702e-10
1.53107e-10
9.28789e-11
5.10569e-10
2.29495e-09
7.24357e-09
3.62241e-09
6.97145e-07
7.70554e-07
2.00847e-07
3.84523e-08
4.98515e-11
3.99532e-07
1.78329e-06
1.70777e-06
1.72316e-06
2.63062e-11
2.97369e-11
4.44022e-11
8.37218e-11
1.1474e-10
1.03135e-10
8.83071e-11
5.94325e-11
1.54224e-09
4.18592e-09
2.77583e-08
2.72467e-08
4.05174e-11
4.19815e-10
1.16446e-09
1.01457e-06
1.51391e-06
1.2383e-06
0.000429607
3.00884e-12
2.52612e-12
2.31292e-12
2.55424e-12
4.26315e-12
8.32287e-12
1.58863e-11
1.60651e-11
1.4952e-11
7.23961e-12
5.49295e-12
6.06201e-12
3.60679e-11
1.39632e-11
1.4217e-11
7.98139e-07
9.12066e-07
2.26949e-06
0.00556509
5.53949e-13
3.89082e-13
4.33927e-13
4.60675e-13
4.51461e-13
4.64785e-13
6.84315e-13
2.96496e-12
4.24741e-12
5.47865e-12
5.64613e-12
3.74525e-11
3.19878e-12
2.6575e-12
9.57165e-12
5.83085e-08
9.84417e-06
0.000214471
0.0056657
1.98737e-13
1.70857e-13
1.53804e-13
1.69487e-13
2.04175e-13
2.43443e-13
3.45628e-13
1.46975e-12
3.60345e-12
5.62709e-12
5.30568e-12
1.73715e-11
2.58711e-09
-4.36973e-13
1.80991e-21
1.65552e-11
-1.21005e-21
0.00104772
0.00566576
1.44095e-13
1.35893e-13
1.41773e-13
1.83085e-13
3.46324e-13
8.47921e-13
1.34834e-12
2.10461e-12
3.18023e-12
3.49995e-12
7.78875e-11
5.41005e-12
7.6336e-09
6.77518e-07
4.85022e-06
8.86768e-06
1.07913e-05
0.000936672
0.0045338
1.45655e-13
4.41767e-13
1.61719e-12
3.8986e-12
9.42946e-12
1.32965e-11
1.36251e-12
1.37167e-12
1.55283e-12
2.41293e-12
5.17648e-10
2.30678e-07
3.68376e-06
8.43216e-06
9.31744e-06
1.83367e-05
5.09929e-05
0.000161564
0.000152307
6.68344e-13
3.35261e-12
1.40686e-11
4.17124e-11
1.08566e-10
3.16683e-10
1.14639e-09
4.95403e-09
9.77637e-09
1.13929e-08
7.47345e-08
7.57331e-07
3.69136e-06
4.10699e-06
2.15894e-06
7.68839e-06
2.0778e-05
5.75201e-10
5.48262e-10
1.41902e-12
6.63726e-12
2.91543e-11
1.07358e-10
4.13172e-10
1.32693e-09
3.97059e-09
8.11503e-09
1.39519e-08
4.17029e-08
1.32963e-07
3.00212e-07
1.73207e-07
2.06128e-08
1.04026e-11
1.40268e-12
7.12227e-08
8.49124e-09
5.1314e-10
5.70101e-13
7.88589e-12
2.79852e-11
9.28728e-11
2.59612e-10
7.9495e-10
2.09804e-09
4.07757e-09
8.2977e-09
1.5807e-08
1.75293e-08
3.8661e-12
3.50122e-12
3.86581e-12
2.1538e-11
4.53123e-11
6.47208e-11
1.42806e-08
6.2848e-10
1.39122e-13
1.96808e-12
8.93852e-12
2.80818e-11
8.18935e-11
2.36635e-10
6.29755e-10
1.48019e-09
2.26714e-09
2.08338e-09
2.67053e-10
3.50127e-12
5.33286e-12
1.37934e-11
4.50793e-11
1.23693e-10
5.03008e-10
7.99397e-09
4.73348e-10
7.65987e-14
1.31262e-13
1.92403e-12
6.39745e-12
2.24125e-11
6.15227e-11
1.69698e-10
3.8777e-10
6.70459e-10
7.36091e-10
2.75409e-10
4.54218e-11
4.30777e-12
1.03869e-11
2.61661e-11
6.80201e-11
1.71024e-10
2.47546e-10
2.27126e-10
6.81777e-14
4.6046e-14
8.72855e-14
1.16769e-12
4.30854e-12
1.2586e-11
3.63319e-11
8.88491e-11
1.65649e-10
2.0603e-10
1.22636e-10
3.99677e-11
2.28606e-12
4.90117e-12
1.03468e-11
2.37955e-11
4.917e-11
4.28207e-11
6.62294e-11
6.37841e-14
3.98839e-14
2.71594e-14
4.72515e-14
5.60498e-13
2.16708e-12
6.54496e-12
1.69681e-11
3.5161e-11
5.16223e-11
4.41294e-11
1.29906e-11
8.817e-13
1.77327e-12
3.32783e-12
6.42935e-12
1.31291e-11
1.59686e-11
8.94994e-12
5.37051e-14
3.49517e-14
2.21476e-14
1.65618e-14
3.21911e-14
2.63491e-13
9.80527e-13
2.68448e-12
6.05649e-12
1.02531e-11
1.11783e-11
3.84591e-12
2.54012e-13
4.94582e-13
8.74954e-13
1.41428e-12
2.21494e-12
2.57812e-12
1.51743e-12
3.85425e-14
2.62246e-14
1.71089e-14
1.17267e-14
8.8071e-15
2.49386e-14
1.17659e-13
3.51384e-13
8.43689e-13
1.59003e-12
2.04292e-12
8.52091e-13
5.65999e-14
1.07935e-13
1.86299e-13
2.71822e-13
2.4117e-13
3.77927e-13
6.96307e-14
2.26258e-14
1.61911e-14
1.11043e-14
7.77777e-15
5.08547e-15
5.04916e-15
1.20496e-14
3.88232e-14
9.72137e-14
1.95236e-13
2.80557e-13
1.44558e-13
1.0153e-14
1.88051e-14
3.24051e-14
4.56622e-14
3.36892e-14
1.40272e-14
9.95701e-15
1.07026e-14
7.81214e-15
5.35484e-15
4.15333e-15
2.72226e-15
1.85192e-15
1.90944e-15
3.86622e-15
9.55459e-15
1.97247e-14
3.01415e-14
1.84008e-14
1.58849e-15
2.76778e-15
4.88041e-15
2.5669e-15
8.81699e-16
1.36342e-15
6.95079e-16
4.14737e-15
3.02769e-15
2.09702e-15
1.67359e-15
1.19976e-15
7.91712e-16
5.29639e-16
4.93681e-16
8.58813e-16
1.70803e-15
2.65733e-15
1.79518e-15
2.46589e-16
3.69664e-16
2.32429e-16
2.75596e-16
3.99536e-16
4.32398e-16
3.19261e-16
1.4013e-15
9.77178e-16
6.54342e-16
5.13208e-16
3.62797e-16
2.72759e-16
1.80399e-16
1.04415e-16
8.87337e-17
1.34166e-16
2.00986e-16
1.44858e-16
4.22309e-17
6.57725e-17
6.53222e-17
1.33804e-16
2.23106e-16
2.5161e-16
1.61918e-16
3.91632e-16
2.58688e-16
1.57078e-16
1.20747e-16
8.5942e-17
6.67608e-17
4.80848e-17
2.61317e-17
1.26849e-17
1.0499e-17
1.3291e-17
1.0665e-17
7.56133e-18
1.6481e-17
2.78963e-17
6.31225e-17
1.08685e-16
1.18364e-16
8.14994e-17
9.1117e-17
5.42302e-17
3.20347e-17
2.06852e-17
1.37941e-17
1.09196e-17
8.59418e-18
4.78632e-18
1.81646e-18
7.58058e-19
6.10003e-19
3.00568e-19
1.08909e-18
4.59159e-18
1.12251e-17
2.71266e-17
5.21198e-17
6.55174e-17
3.80622e-17
1.65247e-17
9.43126e-18
4.8794e-18
2.4371e-18
1.15438e-18
9.84045e-19
8.58427e-19
4.57199e-19
1.49816e-19
4.78806e-20
4.64455e-20
1.19036e-19
3.87503e-19
1.35612e-18
4.41405e-18
1.17163e-17
2.50458e-17
3.49154e-17
1.89693e-17
2.44376e-18
1.2193e-18
5.90614e-19
1.37523e-19
3.3088e-20
3.5089e-20
4.43273e-20
2.56217e-20
1.37783e-20
1.99269e-20
4.18295e-20
8.90476e-20
2.11811e-19
6.08005e-19
1.89122e-18
5.04898e-18
1.18214e-17
2.25176e-17
1.0761e-17
2.76057e-19
1.28341e-19
2.62509e-20
1.55907e-21
4.72665e-22
1.19658e-21
2.63277e-21
4.5775e-21
9.38623e-21
2.04303e-20
4.22408e-20
8.59375e-20
1.75758e-19
3.84347e-19
9.75355e-19
2.20881e-18
5.85259e-18
1.06951e-17
7.06303e-18
2.74624e-20
4.33918e-21
1.9012e-22
1.00494e-22
2.38296e-22
6.40315e-22
1.64025e-21
4.06147e-21
9.48378e-21
2.10432e-20
4.42382e-20
8.81793e-20
1.69538e-19
3.20624e-19
6.28873e-19
1.40525e-18
3.53118e-18
6.00707e-18
3.34557e-18
1.27085e-21
3.5972e-23
2.25571e-23
6.64067e-23
2.0271e-22
5.74319e-22
1.54023e-21
3.90982e-21
9.46816e-21
2.15848e-20
4.58985e-20
9.04907e-20
1.66316e-19
2.83169e-19
4.8491e-19
1.10253e-18
2.35801e-18
2.62253e-18
1.81954e-18
4.19526e-24
3.99105e-24
1.66555e-23
5.76267e-23
1.78424e-22
5.24893e-22
1.43299e-21
3.72692e-21
9.12266e-21
2.0982e-20
4.50973e-20
8.83116e-20
1.53254e-19
2.50163e-19
4.35567e-19
8.16277e-19
1.2408e-18
1.40924e-18
7.06524e-19
5.10041e-25
3.20113e-24
1.35599e-23
4.78356e-23
1.55166e-22
4.61542e-22
1.29152e-21
3.38512e-21
8.35657e-21
1.92677e-20
4.15226e-20
8.06944e-20
1.37748e-19
2.24228e-19
3.59159e-19
5.81063e-19
7.40811e-19
5.7871e-19
3.42846e-19
4.44658e-25
2.62558e-24
1.07391e-23
3.92844e-23
1.27815e-22
3.84103e-22
1.07462e-21
2.8228e-21
6.98167e-21
1.61968e-20
3.47103e-20
6.68441e-20
1.13652e-19
1.81977e-19
2.68518e-19
3.71666e-19
3.63845e-19
2.96204e-19
1.20491e-19
3.86877e-25
2.05451e-24
8.37359e-24
3.0053e-23
9.70836e-23
2.91118e-22
8.10489e-22
2.11154e-21
5.18859e-21
1.20358e-20
2.56858e-20
4.90967e-20
8.3344e-20
1.29485e-19
1.75252e-19
2.16499e-19
1.97427e-19
1.11859e-19
5.72881e-20
3.04974e-25
1.46407e-24
5.79245e-24
1.98896e-23
6.44566e-23
1.90783e-22
5.27945e-22
1.3662e-21
3.33695e-21
7.72898e-21
1.64334e-20
3.14566e-20
5.31206e-20
8.09365e-20
1.02368e-19
1.13992e-19
7.78847e-20
5.22199e-20
1.91409e-20
2.13857e-25
8.90102e-25
3.25577e-24
1.07082e-23
3.28417e-23
9.63335e-23
2.69086e-22
7.09634e-22
1.75634e-21
4.11161e-21
8.83642e-21
1.68511e-20
2.83711e-20
4.27025e-20
5.12784e-20
5.25452e-20
3.51404e-20
1.60927e-20
9.3864e-21
1.11501e-25
4.06858e-25
1.37005e-24
4.30285e-24
1.31543e-23
3.88131e-23
1.09541e-22
2.97701e-22
7.5633e-22
1.80636e-21
3.95548e-21
7.71886e-21
1.30783e-20
1.96526e-20
2.27602e-20
2.22033e-20
1.01381e-20
6.97627e-21
4.86514e-21
3.24055e-26
1.02589e-25
3.17389e-25
9.33982e-25
3.12436e-24
1.03162e-23
3.11994e-23
9.13949e-23
2.51445e-22
6.35186e-22
1.45269e-21
2.95187e-21
5.11856e-21
7.78445e-21
8.87194e-21
8.53558e-21
3.97529e-21
2.91701e-21
2.12798e-21
)
;

boundaryField
{
    leftWall
    {
        type            alphaContactAngle;
        contactAngleProperties 
        {
            air             
            {
                theta0          90;
            }
            water           
            {
                theta0          90;
            }
            oil             
            {
                theta0          90;
            }
        }
        value           nonuniform List<scalar> 
50
(
1
1
1
1
0.81238
0.0401799
2.34441e-11
1.42231e-09
1.47709e-09
4.26774e-10
2.41221e-10
2.52332e-10
3.64302e-10
4.85557e-10
5.07631e-10
5.0512e-10
4.76097e-10
3.05915e-10
1.61065e-10
8.70608e-11
4.9457e-11
3.22982e-11
2.24409e-11
1.36124e-11
1.15126e-11
8.04757e-12
4.67666e-12
2.64471e-12
1.27199e-12
6.13012e-13
2.191e-13
7.98945e-14
2.39327e-14
7.17758e-15
1.16411e-15
2.10678e-16
1.85448e-17
1.52868e-18
2.91588e-20
6.58085e-22
1.96578e-24
2.57582e-26
6.12869e-28
1.78207e-29
4.27147e-31
8.18242e-33
1.24803e-34
8.31492e-37
-6.75358e-38
-5.48915e-39
)
;
    }
    rightWall
    {
        type            alphaContactAngle;
        contactAngleProperties 
        {
            air             
            {
                theta0          90;
            }
            water           
            {
                theta0          90;
            }
            oil             
            {
                theta0          90;
            }
        }
        value           nonuniform List<scalar> 
50
(
0.702427
0.540108
0.377206
0.150451
0.0470813
0.00607329
0.0124297
0.0124127
0.0087088
0.00244234
0.00104263
0.000454171
0.000706063
0.000742008
0.000297682
1.72316e-06
0.000429607
0.00556509
0.0056657
0.00566576
0.0045338
0.000152307
5.48262e-10
5.1314e-10
6.2848e-10
4.73348e-10
2.27126e-10
6.62294e-11
8.94994e-12
1.51743e-12
6.96307e-14
9.95701e-15
6.95079e-16
3.19261e-16
1.61918e-16
8.14994e-17
3.80622e-17
1.89693e-17
1.0761e-17
7.06303e-18
3.34557e-18
1.81954e-18
7.06524e-19
3.42846e-19
1.20491e-19
5.72881e-20
1.91409e-20
9.3864e-21
4.86514e-21
2.12798e-21
)
;
    }
    lowerWall
    {
        type            alphaContactAngle;
        contactAngleProperties 
        {
            air             
            {
                theta0          90;
            }
            water           
            {
                theta0          90;
            }
            oil             
            {
                theta0          90;
            }
        }
        value           nonuniform List<scalar> 
62
(
1
1
1
1
1
1
1
1
1
1
1
1
1
1
1
1
1
1
1
1
0.999942
0.999454
0.999432
0.999432
0.999432
0.999921
1
1
1
1
0.996276
0.485111
0.475147
0.562528
0.572196
0.876157
0.876426
0.836718
0.215804
0.026909
0.00212973
0.00939457
0.0581079
0.876157
0.876554
0.875949
0.856626
0.597171
0.553176
0.559044
0.57618
0.576224
0.595563
0.679746
0.699085
0.706407
0.70536
0.705166
0.70378
0.703866
0.702602
0.702427
)
;
    }
    atmosphere
    {
        type            inletOutlet;
        inletValue      uniform 0;
        value           nonuniform List<scalar> 
46
(
0
0
0
0
0
0
0
0
0
0
0
0
0
0
0
0
0
0
0
0
0
0
0
0
0
0
0
0
0
0
0
0
1.03162e-23
3.11994e-23
9.13949e-23
2.51445e-22
6.35186e-22
1.45269e-21
2.95187e-21
5.11856e-21
7.78445e-21
8.87194e-21
8.53558e-21
3.97529e-21
2.91701e-21
2.12798e-21
)
;
    }
    defaultFaces
    {
        type            empty;
    }
}


// ************************************************************************* //
