/*--------------------------------*- C++ -*----------------------------------*\
  =========                 |
  \\      /  F ield         | OpenFOAM: The Open Source CFD Toolbox
   \\    /   O peration     | Website:  https://openfoam.org
    \\  /    A nd           | Version:  13
     \\/     M anipulation  |
\*---------------------------------------------------------------------------*/
FoamFile
{
    format      ascii;
    class       volScalarField;
    location    "1.6";
    object      alpha.water;
}
// * * * * * * * * * * * * * * * * * * * * * * * * * * * * * * * * * * * * * //

dimensions      [];

internalField   nonuniform List<scalar> 
2268
(
3.07203e-11
6.32863e-11
1.03449e-10
1.05613e-10
1.03408e-10
1.05939e-10
1.10675e-10
1.16693e-10
1.22976e-10
1.28963e-10
1.34146e-10
1.3798e-10
1.39617e-10
1.41586e-10
1.46602e-10
1.60637e-10
1.96672e-10
2.5549e-10
3.70216e-10
7.58597e-10
1.64656e-09
2.49073e-09
2.70068e-09
7.2989e-11
3.94833e-10
3.64562e-10
3.19884e-10
2.91476e-10
2.88318e-10
3.08873e-10
3.44169e-10
3.83947e-10
4.28905e-10
4.73753e-10
5.05331e-10
5.21815e-10
5.09255e-10
4.64241e-10
4.01836e-10
3.88595e-10
4.23157e-10
5.11509e-10
8.3576e-10
1.8241e-09
2.87687e-09
2.94085e-09
5.74192e-10
1.01529e-09
5.62178e-10
3.98637e-10
3.34673e-10
3.14798e-10
3.45254e-10
3.9655e-10
4.66776e-10
5.82658e-10
7.28099e-10
9.02299e-10
1.05138e-09
1.15512e-09
1.1769e-09
1.07763e-09
7.99252e-10
6.34988e-10
7.14069e-10
9.35595e-10
1.92629e-09
2.98846e-09
2.74131e-09
2.78873e-10
2.83144e-10
2.78485e-10
2.78053e-10
2.78438e-10
2.78677e-10
2.79314e-10
2.80465e-10
2.82494e-10
2.85293e-10
2.94903e-10
4.94663e-10
8.66153e-10
1.1898e-09
1.50898e-09
1.64307e-09
1.4103e-09
8.68313e-10
8.28537e-10
1.02202e-09
1.62534e-09
2.74764e-09
1.97739e-09
0.18762
0.193521
0.184856
0.156377
0.120918
0.0869484
0.0566714
0.0302693
0.00892455
2.6994e-10
2.69945e-10
2.65738e-10
2.6468e-10
2.61601e-10
3.17695e-10
6.6313e-10
7.21576e-10
6.48069e-10
7.367e-10
9.66122e-10
1.56313e-09
1.86261e-09
3.28525e-10
0.95982
0.939772
0.922763
0.897995
0.863858
0.820829
0.76717
0.698449
0.607996
0.485671
0.332605
0.18704
0.0769204
0.00936692
4.81387e-09
8.68699e-09
3.25403e-11
1.16244e-10
1.88536e-10
1.22899e-10
2.0022e-10
3.70668e-10
-3.41522e-10
1
1
1
1
1
1
1
1
1
0.99699
0.987653
0.940713
0.824044
0.631719
0.3515
0.0917624
2.77699e-08
4.09718e-13
-6.77082e-13
-2.33331e-21
5.04088e-20
2.30838e-20
-1.36783e-21
1
1
1
1
1
1
1
1
1
1
1
1
1
1
0.988543
0.900841
0.624349
0.257687
0.0331289
0.0169468
0.012332
0.00939538
0.00371706
0.0206996
0.0325033
0.0455409
0.0373633
0.0116167
0.00246297
0.0025136
0.00186312
0.00125279
0.0162765
0.0735603
0.116866
0.123214
0.123211
0.0859154
0.018883
0.0189089
0.0188889
0.0188889
0.0214962
0.0391257
0.127572
0.122171
0.0779967
0.0106743
0.00114323
0.00114023
0.00116654
0.00380122
0.0175775
0.0240733
0.0453767
0.0843999
0.0895018
0.0571111
0.0262337
0.0189028
0.0188889
0.0100585
0.0064541
0.269524
0.413864
0.332535
0.198207
0.0745353
0.0011656
0.00116559
0.00116552
0.00133559
0.00144145
0.00414138
0.0309576
0.0338834
0.0765494
0.110706
0.10239
0.021486
9.46982e-06
2.18942e-05
0.083634
0.577161
0.815075
0.773667
0.653014
0.17727
0.0154671
0.00116558
0.00116637
0.00898242
0.161372
0.413872
0.45308
0.475657
0.499918
0.382069
0.233201
0.0510669
0.000251239
0.0237275
0.629774
0.941452
0.999496
0.988632
0.729509
0.290076
0.174893
0.121826
0.197762
0.48279
0.808032
0.82762
0.80369
0.790165
0.68211
0.397895
0.331898
0.031502
0.010023
0.311544
0.923218
0.999775
0.999892
0.99854
0.858129
0.763959
0.639341
0.608353
0.729535
0.901736
0.918861
0.86768
0.864352
0.748523
0.411945
0.962411
0.591936
0.0291744
0.00374408
0.615547
0.990073
0.999908
0.999885
0.999484
0.998662
0.977097
0.941496
0.948499
0.995551
0.976883
0.56683
0.512416
0.574952
0.377653
0.939466
0.932783
0.374222
0.0143233
0.184875
0.881115
0.999374
0.999905
0.999735
0.999701
0.999834
0.999902
0.999879
0.999856
0.999686
0.492832
0.0281074
0.315802
0.117379
1
1
1
1
1
1
1
1
1
1
1
1
1
1
1
1
0.999497
0.971336
0.873261
0.726067
0.603697
0.543506
0.500376
1
1
1
1
1
1
1
1
1
1
1
1
1
1
1
1
1
1
1
1
0.999999
0.999988
0.999951
1
0.998987
0.997927
0.999226
0.999995
1
1
1
1
1
1
1
1
1
1
1
1
1
1
1
1
0.999142
0.998109
0.923848
0.865112
0.84514
0.856461
0.883698
0.923258
0.934721
0.926216
0.92837
0.933628
0.925704
0.911822
0.913234
0.93005
0.95442
0.957966
0.951971
0.938542
0.928842
0.91873
0.895467
0.8355
0.752876
0.477495
0.149393
0.0991115
0.108695
0.152388
0.218655
0.262657
0.2753
0.260645
0.264521
0.264935
0.268897
0.276827
0.289181
0.312534
0.334539
0.323258
0.296662
0.254856
0.218079
0.176322
0.115228
0.0341673
0.0775476
2.6766e-13
9.72066e-14
2.82141e-19
-8.44691e-14
2.79892e-18
1.59042e-16
2.86013e-21
1.78023e-21
7.54654e-24
-1.28119e-45
-4.0998e-44
-4.96039e-28
3.2869e-27
5.23408e-27
1.48738e-25
-1.54207e-25
6.51502e-25
2.23505e-25
-7.55277e-26
-1.71678e-09
-1.19816e-09
1.74019e-15
0.0356097
3.28275e-13
6.64898e-06
3.74753e-06
-5.27298e-26
1.66645e-08
1.26478e-07
1.77612e-07
1.164e-07
1.74721e-08
-6.19329e-26
-8.45359e-26
9.25128e-11
1.38998e-09
3.13701e-09
5.10997e-08
9.09039e-08
8.76582e-08
4.54564e-08
8.64193e-09
3.60418e-08
1.32999e-07
1.58381e-07
0.000218885
4.55701e-05
3.05385e-05
3.51393e-06
-5.08541e-25
9.5101e-08
4.51859e-07
4.60303e-07
4.58798e-07
2.26601e-07
3.27574e-08
6.95824e-08
2.8983e-08
9.71457e-09
4.10843e-09
9.24093e-08
1.48012e-07
1.46987e-07
5.38954e-08
3.79625e-10
2.18568e-10
1.42115e-07
3.01591e-07
6.86077e-11
2.11567e-06
2.9507e-05
8.27448e-06
-8.48973e-10
1.01858e-07
1.74985e-07
2.64096e-07
2.6107e-07
2.84959e-07
3.50207e-07
4.8762e-07
1.16967e-07
2.6873e-08
7.72579e-09
5.12322e-09
1.30233e-08
3.98172e-09
1.5139e-09
1.60533e-09
6.84679e-10
1.15838e-10
1.14321e-10
-4.30879e-08
-8.99986e-11
1.01713e-05
1.05578e-05
3.58904e-06
1.28058e-07
4.65352e-10
1.32186e-10
1.19263e-10
5.57509e-08
4.12122e-07
6.82562e-07
2.17024e-07
5.88751e-08
1.29179e-08
3.96888e-09
3.60757e-09
5.74641e-09
8.91095e-09
4.81148e-09
2.43252e-09
9.05829e-10
7.03449e-10
-7.3491e-08
1.44886e-07
5.40606e-07
7.98081e-06
1.64699e-06
7.28183e-08
2.39952e-10
3.97668e-10
1.15419e-10
1.689e-07
1.42682e-06
2.1058e-06
9.92371e-07
8.11274e-08
3.0302e-09
3.63119e-09
3.59179e-09
3.12318e-08
3.16653e-08
8.53172e-09
2.84442e-09
1.05514e-09
1.60047e-09
-6.21181e-08
-3.65533e-10
1.69691e-08
7.91544e-07
2.54181e-07
1.93072e-08
1.61035e-09
8.36367e-10
1.25206e-10
3.13845e-07
2.6733e-06
2.72579e-06
2.73004e-06
9.48107e-07
8.09246e-07
1.18811e-06
1.09158e-06
4.81008e-07
1.037e-07
1.8254e-08
1.31894e-08
8.3674e-09
3.99303e-09
-2.09764e-08
9.501e-10
4.06163e-09
1.17933e-08
2.45665e-08
1.05881e-08
1.47446e-09
8.98052e-10
1.36647e-10
1.88116e-07
2.24465e-06
2.7015e-06
2.72912e-06
1.53561e-06
1.71231e-06
3.01059e-06
2.71914e-06
6.20264e-07
7.52158e-08
2.17267e-08
3.83545e-08
2.95983e-08
1.2344e-08
3.61588e-08
3.09145e-08
1.40894e-08
1.37832e-08
1.64427e-08
6.53996e-09
1.12587e-09
6.0342e-10
1.24784e-10
1.04382e-08
1.62822e-07
1.70535e-06
2.82016e-06
3.00249e-06
3.06435e-06
3.06503e-06
2.5922e-06
3.21643e-07
3.44862e-08
3.57417e-08
3.78942e-08
3.52637e-08
1.30856e-08
3.72346e-08
1.58164e-08
1.39299e-08
1.54692e-08
8.3784e-09
3.80163e-09
1.74955e-09
4.7536e-10
2.32393e-10
1.49643e-11
3.58271e-12
5.78006e-08
1.61608e-06
2.9458e-06
3.05988e-06
2.3416e-06
4.92865e-07
1.08344e-07
3.46271e-08
2.98292e-08
3.34425e-08
2.47983e-08
1.05933e-08
1.84945e-08
1.011e-08
6.40193e-09
6.24321e-09
4.05298e-09
3.59193e-09
2.01364e-09
8.48566e-10
3.55129e-10
2.02183e-10
1.32186e-10
1.3478e-10
-2.69087e-14
3.1952e-07
3.82817e-07
7.9616e-08
1.07018e-08
4.28607e-08
3.41914e-08
2.14781e-08
2.61957e-08
1.33808e-08
1.05511e-08
2.07345e-08
1.13993e-08
3.32758e-09
3.19862e-09
3.24392e-09
3.01111e-09
2.15035e-09
1.34071e-09
6.71475e-10
3.49671e-10
4.85342e-10
2.10632e-09
3.78532e-09
6.46871e-09
5.18957e-11
-2.39561e-11
1.22186e-08
2.62066e-08
2.09653e-08
1.22587e-08
1.05951e-08
1.11636e-08
8.72151e-09
2.07379e-08
1.14924e-08
2.82299e-09
2.82596e-09
2.95969e-09
2.5962e-09
2.18256e-09
1.62787e-09
9.27532e-10
5.26757e-10
7.8323e-10
5.02515e-09
1.94746e-08
1.87645e-08
3.43438e-10
3.15201e-09
1.71045e-08
1.84394e-08
1.03736e-08
4.90216e-09
4.83697e-09
6.0512e-09
6.07391e-09
1.98424e-08
1.11687e-08
3.10766e-09
2.65797e-09
2.71203e-09
2.44274e-09
2.12168e-09
1.72399e-09
1.16197e-09
6.67451e-10
6.77677e-10
1.47019e-09
1.45559e-09
2.7142e-09
9.8115e-10
3.81533e-09
1.06549e-08
1.17121e-08
5.76425e-09
2.12574e-09
1.2759e-09
2.6946e-09
3.37276e-09
1.77128e-08
1.11941e-08
4.04292e-09
2.48255e-09
2.37119e-09
2.1176e-09
1.9679e-09
1.7036e-09
1.29313e-09
7.54946e-10
3.83327e-10
1.8746e-10
1.35233e-10
1.2789e-10
9.03841e-10
1.82347e-09
2.61722e-09
3.11041e-09
1.96414e-09
1.00447e-09
6.43077e-10
8.79606e-10
1.60865e-09
1.41488e-08
1.04031e-08
4.91074e-09
2.53813e-09
2.0924e-09
1.85031e-09
1.66919e-09
1.52409e-09
1.26881e-09
8.62116e-10
5.0881e-10
2.79261e-10
1.66606e-10
1.19685e-10
1.24381e-10
1.66229e-10
3.12595e-10
5.35533e-10
5.40794e-10
3.56094e-10
2.28658e-10
2.63427e-10
5.95026e-10
1.25923e-08
8.96054e-09
4.86373e-09
2.53073e-09
1.88624e-09
1.49585e-09
1.29622e-09
1.16097e-09
1.03908e-09
8.64399e-10
5.4448e-10
3.02613e-10
1.74054e-10
1.11639e-10
8.92023e-11
9.39164e-11
1.19283e-10
1.56169e-10
1.58468e-10
1.33028e-10
9.69167e-11
9.74284e-11
1.51415e-10
1.01509e-08
6.9808e-09
4.42001e-09
2.27401e-09
1.64924e-09
1.17269e-09
9.58088e-10
8.20587e-10
7.4277e-10
6.57438e-10
5.39995e-10
3.0274e-10
1.66191e-10
9.64076e-11
5.98439e-11
4.66508e-11
4.47732e-11
5.01459e-11
5.24422e-11
5.20407e-11
4.73265e-11
4.56836e-11
4.69591e-11
8.53119e-09
5.49426e-09
3.54762e-09
1.80958e-09
1.25132e-09
8.87891e-10
6.69848e-10
5.4567e-10
4.74372e-10
4.26924e-10
3.77819e-10
2.75475e-10
1.63122e-10
8.57978e-11
4.79204e-11
2.92526e-11
2.26294e-11
2.15448e-11
2.31901e-11
2.4088e-11
2.43331e-11
2.38984e-11
2.40094e-11
6.28437e-09
3.98614e-09
2.58888e-09
1.36037e-09
8.41861e-10
5.66612e-10
4.28077e-10
3.3565e-10
2.81127e-10
2.49349e-10
2.22904e-10
1.86641e-10
1.3136e-10
7.58565e-11
3.919e-11
2.11553e-11
1.28574e-11
1.07155e-11
1.03241e-11
1.1502e-11
1.21514e-11
1.22008e-11
1.2022e-11
4.5991e-09
2.70159e-09
1.68021e-09
9.1352e-10
5.34519e-10
3.25409e-10
2.28369e-10
1.84529e-10
1.48327e-10
1.28265e-10
1.13182e-10
9.86002e-11
8.17033e-11
5.3792e-11
2.83321e-11
1.49236e-11
7.45403e-12
5.53602e-12
4.95682e-12
5.18631e-12
5.44267e-12
5.4654e-12
5.47216e-12
2.41205e-09
1.55499e-09
9.55454e-10
5.29018e-10
2.98269e-10
1.71555e-10
1.0807e-10
8.64674e-11
7.03038e-11
5.83395e-11
5.13309e-11
4.41817e-11
3.73814e-11
2.84842e-11
1.73694e-11
8.97133e-12
4.05513e-12
2.63143e-12
2.22699e-12
2.19534e-12
2.28874e-12
2.40222e-12
2.39597e-12
1.22409e-09
7.66613e-10
4.6033e-10
2.51246e-10
1.36509e-10
7.62267e-11
4.47223e-11
3.21322e-11
2.70599e-11
2.29633e-11
1.99847e-11
1.72757e-11
1.47272e-11
1.18026e-11
8.13375e-12
4.3411e-12
1.87954e-12
1.17438e-12
9.26838e-13
8.9465e-13
9.0957e-13
8.83039e-13
9.06591e-13
4.00722e-10
2.89684e-10
1.71713e-10
9.34096e-11
4.99357e-11
2.74619e-11
1.51704e-11
1.02483e-11
8.85194e-12
7.57361e-12
6.56911e-12
5.69049e-12
4.81337e-12
4.07934e-12
2.92026e-12
1.72984e-12
7.39163e-13
4.19587e-13
3.32932e-13
3.22796e-13
3.14698e-13
3.15948e-13
3.10761e-13
1.16476e-10
8.59443e-11
5.11302e-11
2.73357e-11
1.39547e-11
7.53384e-12
4.18556e-12
2.70479e-12
2.33017e-12
2.02359e-12
1.79812e-12
1.57679e-12
1.3534e-12
1.12354e-12
8.47904e-13
5.09718e-13
2.47631e-13
1.23674e-13
1.05118e-13
1.0553e-13
1.0578e-13
9.48313e-14
9.16926e-14
1.40206e-11
1.59852e-11
1.05436e-11
5.59387e-12
2.83385e-12
1.592e-12
9.2586e-13
5.87375e-13
5.08667e-13
4.48796e-13
4.02723e-13
3.50936e-13
3.0992e-13
2.65203e-13
1.89848e-13
1.20278e-13
6.33239e-14
3.31676e-14
2.99209e-14
3.0024e-14
3.04437e-14
2.60844e-14
2.27331e-14
1.8429e-12
2.14836e-12
1.48277e-12
8.66203e-13
4.55161e-13
2.64535e-13
1.63476e-13
1.11016e-13
8.6208e-14
7.86446e-14
7.12216e-14
6.42561e-14
5.93704e-14
4.91729e-14
3.56888e-14
2.16162e-14
1.17057e-14
7.67829e-15
7.32992e-15
7.49929e-15
7.48508e-15
5.42313e-15
4.87101e-15
1.66173e-13
2.12731e-13
1.62507e-13
1.00277e-13
6.26147e-14
3.79634e-14
2.41472e-14
1.53657e-14
1.16223e-14
1.0396e-14
9.77734e-15
9.49267e-15
8.73874e-15
7.27133e-15
5.21551e-15
3.22117e-15
1.96492e-15
1.55305e-15
1.58812e-15
1.58809e-15
1.43784e-15
1.13658e-15
8.19641e-16
1.99249e-14
2.4293e-14
1.94119e-14
1.272e-14
7.52013e-15
4.58485e-15
2.93347e-15
1.8887e-15
1.31838e-15
1.22821e-15
1.24208e-15
1.21183e-15
1.1042e-15
8.94162e-16
6.29993e-16
4.15374e-16
2.93326e-16
2.86852e-16
2.94349e-16
2.91371e-16
2.52451e-16
1.72406e-16
1.14551e-16
2.30607e-15
2.63444e-15
2.08607e-15
1.37692e-15
8.35608e-16
4.87417e-16
2.96152e-16
1.94613e-16
1.3369e-16
1.28934e-16
1.31035e-16
1.29646e-16
1.18894e-16
9.62307e-17
6.88892e-17
5.06032e-17
4.90126e-17
4.98139e-17
4.98881e-17
4.5281e-17
3.44739e-17
2.31367e-17
1.37062e-17
2.45052e-16
2.70554e-16
2.06651e-16
1.33908e-16
7.92342e-17
4.62993e-17
2.8369e-17
1.84213e-17
1.26781e-17
1.20211e-17
1.22633e-17
1.21054e-17
1.11099e-17
9.0637e-18
6.96784e-18
6.72769e-18
7.0679e-18
7.14027e-18
6.84421e-18
5.67176e-18
4.08698e-18
2.38567e-18
1.45658e-18
2.38988e-17
2.4567e-17
1.79385e-17
1.1319e-17
6.68469e-18
3.90041e-18
2.33746e-18
1.48663e-18
1.01176e-18
9.47582e-19
9.79348e-19
9.77495e-19
9.15338e-19
7.84494e-19
7.75364e-19
8.39973e-19
9.13226e-19
9.16534e-19
8.02401e-19
5.99951e-19
3.56602e-19
2.25156e-19
7.35233e-20
2.1158e-18
2.03093e-18
1.41849e-18
8.72614e-19
5.07962e-19
2.91758e-19
1.70887e-19
1.05563e-19
7.04229e-20
6.45285e-20
6.80499e-20
6.91126e-20
6.87415e-20
7.2553e-20
8.31163e-20
9.69359e-20
1.04911e-19
9.86806e-20
7.98979e-20
5.41877e-20
3.38884e-20
1.03273e-20
1.36614e-21
1.68088e-19
1.53085e-19
1.02785e-19
6.16659e-20
3.51212e-20
1.9769e-20
1.12544e-20
6.58302e-21
4.22988e-21
3.78267e-21
4.13408e-21
4.66497e-21
5.30001e-21
6.57092e-21
8.42364e-21
1.01116e-20
1.07857e-20
9.68073e-21
7.08111e-21
4.72196e-21
1.60533e-21
2.25105e-22
1.98811e-23
1.2518e-20
1.04599e-20
6.72528e-21
3.93143e-21
2.20276e-21
1.21401e-21
6.6668e-22
3.7369e-22
2.33472e-22
2.13952e-22
2.52391e-22
3.23999e-22
4.50567e-22
6.48111e-22
8.65445e-22
1.02085e-21
1.04315e-21
9.0086e-22
5.63478e-22
2.28305e-22
4.78042e-23
5.94216e-24
4.24298e-25
8.45664e-22
6.10488e-22
3.71796e-22
2.14658e-22
1.1901e-22
6.24725e-23
3.28303e-23
1.72539e-23
1.04346e-23
1.09014e-23
1.49854e-23
2.37463e-23
3.91376e-23
6.04316e-23
8.04324e-23
9.08039e-23
8.81852e-23
6.86144e-23
3.53202e-23
1.06697e-23
1.71256e-24
7.75469e-26
8.75509e-28
3.25095e-23
2.28074e-23
1.56788e-23
8.95471e-24
4.80269e-24
2.54612e-24
1.31409e-24
6.82264e-25
4.02661e-25
5.07566e-25
8.89302e-25
1.69558e-24
3.10539e-24
4.93046e-24
6.84054e-24
7.29947e-24
6.63798e-24
4.51709e-24
1.90831e-24
4.80207e-25
4.59794e-26
1.19918e-27
4.05078e-29
0.514875
0.524725
0.431066
0.421573
0.999848
0.997018
0.986567
0.975652
0.998766
0.990362
0.907721
0.748337
0.671511
0.572778
0.444338
0.107066
3.70823e-10
7.63291e-12
1.51828e-15
8.60055e-25
-1.21757e-09
1.31849e-07
2.05402e-07
1.80966e-07
2.70221e-07
4.54851e-07
4.7501e-07
3.00731e-07
3.20744e-07
1.34803e-07
1.80124e-09
1.75499e-10
1.43776e-10
1.64868e-10
1.81957e-10
1.9214e-10
5.54725e-10
4.66185e-10
4.30788e-10
4.37586e-10
1.20731e-09
8.23741e-10
7.44746e-10
6.18363e-10
2.75112e-09
2.03151e-09
1.1614e-09
9.11528e-10
8.47735e-09
4.7856e-09
3.77368e-09
2.62778e-09
1.00855e-08
7.46881e-09
6.6291e-09
3.94653e-09
9.24145e-09
7.89355e-09
6.93505e-09
4.16143e-09
7.71076e-09
6.02008e-09
6.35671e-09
5.16066e-09
6.72054e-09
5.23806e-09
5.09879e-09
4.50819e-09
5.25202e-09
4.48834e-09
4.24669e-09
3.82363e-09
3.33894e-09
3.1826e-09
3.12556e-09
2.93691e-09
1.91796e-09
1.95217e-09
1.90827e-09
1.91295e-09
8.56333e-10
9.64405e-10
1.07317e-09
1.10217e-09
2.76349e-10
3.59376e-10
4.20793e-10
4.70663e-10
5.40656e-11
7.52325e-11
1.05151e-10
1.31273e-10
2.38117e-11
2.50363e-11
2.78103e-11
3.23299e-11
1.16442e-11
1.16309e-11
1.20032e-11
1.23206e-11
5.07506e-12
4.91522e-12
5.11387e-12
5.09929e-12
2.19618e-12
2.05383e-12
2.00884e-12
1.91956e-12
8.00053e-13
7.2479e-13
7.21339e-13
6.63649e-13
2.77466e-13
2.4279e-13
2.30354e-13
1.99528e-13
7.85474e-14
6.8812e-14
6.2473e-14
5.09144e-14
1.91534e-14
1.57017e-14
1.38686e-14
1.09868e-14
4.05174e-15
3.02655e-15
2.55472e-15
1.91356e-15
6.45194e-16
4.85301e-16
3.52597e-16
2.59052e-16
8.57918e-17
5.76498e-17
4.21732e-17
3.1535e-17
9.76208e-18
7.33793e-18
3.78425e-18
8.64428e-19
6.46031e-19
1.84143e-19
3.32341e-20
1.3448e-21
5.01426e-21
1.46006e-22
5.60029e-25
1.61666e-26
1.33462e-28
3.24798e-28
1.2161e-27
4.27553e-27
1.30997e-28
4.07841e-28
1.47473e-27
4.97744e-27
1.28922e-28
4.59071e-28
1.65621e-27
5.27155e-27
1.2648e-28
4.39227e-28
1.50645e-27
4.54531e-27
8.45835e-29
2.71371e-28
8.61838e-28
2.30354e-27
0.804809
0.916381
0.716052
0.0576102
1.59266e-05
0.524694
0.976277
0.999905
0.999905
0.999905
0.999903
0.999903
0.99985
0.999843
0.951402
0.285564
0.000867092
0.0109125
0.0360974
0.979337
0.91405
0.71849
0.0981395
8.71809e-05
0.0309751
0.665505
0.967687
0.999881
0.999903
0.997233
0.996766
0.803036
0.467154
0.180329
0.0117047
1.48791e-05
1.33779e-05
0.0255852
0.745867
0.672215
0.27819
0.000195604
2.96976e-06
2.60392e-06
0.0844704
0.694216
0.856815
0.911134
0.729231
0.231774
0.0377393
0.000823795
2.76618e-05
2.02792e-10
4.44402e-07
1.89146e-08
0.0127298
0.0291576
0.0168803
3.56354e-06
1.33129e-05
7.49576e-05
6.67072e-05
5.64709e-05
0.0558235
0.235121
0.226626
0.0503465
0.000198086
3.0523e-06
2.76998e-07
9.56656e-07
9.06219e-09
1.07323e-09
1.69915e-10
0.00642679
-2.89173e-25
-7.07214e-11
2.71076e-06
1.10601e-05
7.86629e-05
9.12237e-05
6.42308e-05
1.04999e-06
3.64107e-09
2.88155e-10
3.64107e-09
7.14377e-06
4.7528e-06
3.7018e-07
8.25453e-17
1.52492e-11
7.68093e-12
1.35479e-10
0.0014264
7.92587e-08
-6.95114e-25
-5.81823e-12
3.92793e-17
2.61748e-11
4.74635e-06
3.39446e-05
3.64133e-05
2.70403e-05
5.64043e-06
5.16174e-07
2.30091e-06
3.13248e-06
5.88548e-07
7.15021e-09
1.21895e-10
8.73279e-11
8.79803e-11
0.000964668
1.04296e-08
4.48968e-10
6.87699e-10
3.49857e-10
8.50485e-11
4.80109e-11
2.63853e-07
3.68058e-06
4.79016e-06
2.36329e-06
6.21738e-07
7.74676e-08
5.26137e-08
6.46117e-08
6.31101e-09
1.62181e-09
1.22459e-10
2.40877e-08
0.000173485
2.65499e-10
1.00089e-09
9.66092e-10
3.49376e-10
1.36777e-10
5.90512e-10
2.79347e-09
2.39063e-07
6.35518e-07
4.16335e-07
1.08848e-07
2.97949e-08
2.22996e-09
8.07283e-09
6.03194e-09
6.07561e-09
1.77617e-11
4.78584e-07
5.45235e-07
2.52722e-10
4.52081e-10
4.92381e-10
4.08399e-10
1.8757e-10
1.25966e-10
1.44847e-10
5.4569e-11
5.23308e-11
5.45691e-11
7.05276e-10
1.11238e-09
4.82974e-10
4.62227e-10
5.73475e-09
7.10072e-09
4.61599e-10
6.79052e-07
6.21967e-07
3.78236e-10
3.32513e-10
2.91159e-10
2.57976e-10
2.23801e-10
1.89465e-10
1.45388e-10
1.13667e-10
8.26158e-11
6.76142e-11
4.56439e-11
5.82765e-11
7.75653e-11
7.63424e-11
2.91225e-09
4.79933e-09
4.26592e-10
1.06815e-05
0.0130211
5.71175e-10
4.01809e-10
2.96086e-10
2.38384e-10
1.91839e-10
1.45264e-10
1.26836e-10
1.02439e-10
8.57365e-11
7.25544e-11
4.74562e-11
2.22421e-11
7.38999e-19
2.51818e-27
1.22792e-20
2.49869e-16
4.42137e-05
0.00101569
0.0206615
7.7304e-10
4.25713e-10
2.08172e-10
1.26859e-10
9.62764e-11
6.8252e-11
4.47766e-11
4.22475e-11
4.01798e-11
3.23944e-11
1.59467e-11
1.66849e-11
4.64333e-08
2.5079e-07
2.86896e-07
-2.49856e-16
2.13288e-07
0.00337617
0.020685
1.59839e-09
3.43686e-10
1.26483e-10
7.14146e-11
4.63405e-11
3.17646e-11
3.45122e-11
7.36071e-11
7.79393e-11
2.71261e-11
1.96991e-11
4.70695e-09
3.5634e-07
2.21862e-06
2.77373e-06
2.3706e-06
7.48401e-07
0.002738
0.020685
1.61453e-09
2.29435e-10
9.25646e-11
5.14085e-11
3.52291e-11
3.07969e-11
2.59841e-11
2.60801e-11
2.59842e-11
6.87141e-09
4.11621e-08
4.63928e-07
1.23895e-06
1.59369e-06
2.14073e-06
2.78592e-06
8.35325e-07
0.00027115
0.00895748
1.401e-09
1.81637e-10
7.02521e-11
5.03898e-11
5.73675e-11
1.6099e-10
6.1449e-10
2.0649e-09
5.53323e-09
2.8095e-08
1.26005e-07
4.2501e-07
4.73242e-07
1.41612e-07
8.05195e-08
1.23113e-06
9.75404e-07
3.27227e-13
4.081e-11
2.37291e-09
4.99842e-10
8.19279e-11
5.68347e-11
1.00734e-10
2.98525e-10
1.02672e-09
2.53528e-09
5.85961e-09
2.13942e-08
5.00815e-08
1.85266e-08
2.91579e-12
2.36777e-12
4.64955e-16
2.36777e-12
3.31277e-08
1.32871e-10
5.11705e-09
3.6047e-09
1.30584e-09
1.5573e-10
5.59059e-11
6.80074e-11
1.55424e-10
4.1694e-10
9.15656e-10
1.82513e-09
2.91822e-09
1.58173e-10
2.9366e-12
2.679e-12
7.30737e-12
1.93903e-11
2.52552e-11
3.51274e-11
4.14766e-10
9.47945e-09
3.40937e-09
2.17276e-09
5.53458e-10
9.59781e-11
5.13274e-11
6.33163e-11
1.36022e-10
3.09243e-10
4.68259e-10
4.01954e-10
1.14057e-10
1.90984e-11
4.3145e-12
1.16034e-11
2.83691e-11
5.91547e-11
1.35713e-10
4.90483e-10
7.14394e-09
2.74448e-09
2.22583e-09
1.3023e-09
3.67083e-10
7.99261e-11
4.23205e-11
5.36718e-11
9.64595e-11
1.59392e-10
1.77277e-10
9.22739e-11
2.72437e-11
3.17415e-12
6.65911e-12
1.58333e-11
3.69328e-11
1.01938e-10
3.98072e-10
3.63966e-09
1.87671e-09
1.70609e-09
1.44981e-09
8.79397e-10
2.80555e-10
7.08136e-11
3.33433e-11
3.52745e-11
5.04893e-11
6.15833e-11
4.5262e-11
1.88259e-11
2.02759e-12
2.94964e-12
6.10717e-12
1.42154e-11
4.08502e-11
2.09142e-10
1.38835e-09
1.11469e-09
1.09504e-09
9.9784e-10
8.77479e-10
5.82969e-10
2.14551e-10
5.97566e-11
2.34892e-11
1.95029e-11
2.11229e-11
1.78683e-11
6.76611e-12
1.37477e-12
1.33675e-12
1.95715e-12
3.90032e-12
1.01469e-11
5.24853e-11
2.73432e-10
5.26783e-10
5.69331e-10
5.72365e-10
5.39742e-10
4.88506e-10
3.34562e-10
1.33956e-10
4.19312e-11
1.54123e-11
9.15914e-12
6.51375e-12
3.1422e-12
1.07835e-12
7.41132e-13
6.62111e-13
8.80089e-13
1.703e-12
5.26049e-12
5.13936e-11
1.72651e-10
2.21963e-10
2.50458e-10
2.60151e-10
2.59366e-10
2.44797e-10
1.55761e-10
6.45177e-11
2.24668e-11
8.09936e-12
3.56947e-12
1.70158e-12
7.96394e-13
4.65171e-13
2.83501e-13
2.35222e-13
2.04962e-13
7.34914e-13
2.61376e-12
4.45273e-11
6.31437e-11
8.17079e-11
9.69514e-11
1.08463e-10
1.13767e-10
1.06917e-10
5.96832e-11
2.46259e-11
8.92296e-12
2.99427e-12
1.08575e-12
4.80472e-13
2.50459e-13
1.27829e-13
7.84642e-14
5.15674e-14
3.86128e-14
3.26437e-13
1.35357e-11
1.62848e-11
2.07427e-11
2.71983e-11
3.50115e-11
4.09942e-11
4.53756e-11
3.69272e-11
1.82303e-11
7.40652e-12
2.39471e-12
6.83954e-13
2.30691e-13
1.0274e-13
4.87339e-14
1.49871e-14
9.58938e-15
9.74679e-15
6.99056e-15
5.13692e-12
5.23261e-12
5.69889e-12
7.06693e-12
9.07847e-12
1.14019e-11
1.41226e-11
1.46369e-11
8.93834e-12
4.13955e-12
1.38217e-12
3.44579e-13
8.50641e-14
2.83829e-14
5.91424e-15
3.54414e-15
4.37501e-15
4.1217e-15
2.68003e-15
1.85423e-12
1.72535e-12
1.67086e-12
1.81116e-12
2.13383e-12
2.79186e-12
3.58688e-12
4.01971e-12
2.92926e-12
1.51173e-12
5.16806e-13
1.12858e-13
2.13831e-14
5.80222e-15
9.20412e-16
1.5147e-15
2.17853e-15
2.25635e-15
1.33322e-15
6.19108e-13
5.3401e-13
4.56767e-13
4.44031e-13
4.8121e-13
5.91049e-13
7.53912e-13
8.39965e-13
6.53309e-13
3.46152e-13
1.10473e-13
1.86295e-14
2.96129e-15
8.9087e-16
3.20163e-16
6.33296e-16
9.87872e-16
1.00629e-15
6.55063e-16
1.74534e-13
1.33758e-13
1.05003e-13
9.03475e-14
8.67626e-14
9.77554e-14
1.20984e-13
1.27054e-13
9.22488e-14
4.26194e-14
7.92781e-15
1.93915e-16
3.83317e-17
1.01593e-16
1.12369e-16
2.44552e-16
4.42167e-16
5.363e-16
2.94738e-16
4.0652e-14
2.98213e-14
2.12477e-14
1.4467e-14
9.58779e-15
9.63119e-15
1.15913e-14
1.05783e-14
6.5679e-15
1.8495e-15
1.46977e-17
2.29133e-18
3.37676e-18
1.14562e-17
3.66737e-17
9.41176e-17
1.96729e-16
2.7381e-16
1.41386e-16
7.89796e-15
5.17935e-15
3.34617e-15
1.29812e-15
4.46098e-16
3.71354e-16
5.57279e-16
4.54321e-16
1.84665e-16
8.82439e-19
8.73624e-20
1.47007e-19
6.6438e-19
3.11896e-18
1.21518e-17
3.4964e-17
8.46351e-17
1.70721e-16
7.75053e-17
1.18584e-15
7.26144e-16
2.51412e-16
4.12068e-17
6.07305e-18
5.60206e-18
1.17202e-17
7.94831e-18
4.00739e-20
6.2544e-21
1.36377e-20
3.69978e-20
1.7934e-19
9.49652e-19
4.19601e-18
1.19004e-17
3.75429e-17
7.56853e-17
4.92016e-17
1.54474e-16
4.41969e-17
5.20074e-18
5.62566e-19
1.12655e-19
4.7811e-20
9.81987e-20
5.91665e-20
2.6118e-21
5.68095e-21
1.22785e-20
2.57685e-20
7.55529e-20
3.6286e-19
1.55581e-18
6.02718e-18
2.05544e-17
3.95558e-17
2.16543e-17
1.01886e-17
6.65631e-19
5.0988e-20
1.08637e-20
3.2603e-21
1.02126e-21
1.44988e-21
1.02965e-21
2.40732e-21
5.55937e-21
1.21052e-20
2.40117e-20
4.89646e-20
1.68254e-19
7.69063e-19
4.10908e-18
1.23531e-17
1.50676e-17
1.08351e-17
7.60932e-20
3.28105e-21
8.46367e-22
1.5824e-22
1.45608e-22
1.69485e-22
3.53632e-22
8.90478e-22
2.23389e-21
5.28281e-21
1.16533e-20
2.26776e-20
3.83433e-20
1.16069e-19
6.16595e-19
2.52772e-18
5.24379e-18
6.97907e-18
3.55405e-18
5.56429e-23
1.28555e-23
1.14532e-23
1.56437e-23
3.93278e-23
1.09054e-22
3.01764e-22
8.02644e-22
2.0307e-21
4.80367e-21
1.06341e-20
2.07984e-20
3.49857e-20
9.95749e-20
4.36516e-19
1.48805e-18
2.52239e-18
2.17746e-18
1.42271e-18
1.2776e-25
6.09768e-25
2.37884e-24
8.71388e-24
2.87059e-23
8.73072e-23
2.47903e-22
6.63929e-22
1.68144e-21
4.00208e-21
8.80352e-21
1.71971e-20
2.91053e-20
7.42959e-20
2.73411e-19
7.71086e-19
9.07471e-19
8.5745e-19
3.45263e-19
8.27142e-26
4.4307e-25
1.82103e-24
6.59923e-24
2.15623e-23
6.55497e-23
1.85416e-22
4.92257e-22
1.23696e-21
2.94186e-21
6.43724e-21
1.25224e-20
2.13226e-20
4.87369e-20
1.46456e-19
3.63341e-19
3.87105e-19
2.16855e-19
1.12335e-19
6.49553e-26
3.14078e-25
1.25274e-24
4.33917e-24
1.42153e-23
4.26236e-23
1.19746e-22
3.15395e-22
7.86527e-22
1.86547e-21
4.06121e-21
7.92104e-21
1.35067e-20
2.86633e-20
7.04859e-20
1.53708e-19
1.09626e-19
7.14627e-20
2.03546e-20
4.53036e-26
1.89754e-25
6.98875e-25
2.31664e-24
7.17588e-24
2.13121e-23
6.04174e-23
1.62078e-22
4.0907e-22
9.79308e-22
2.15243e-21
4.18158e-21
7.14562e-21
1.43366e-20
2.95039e-20
5.57915e-20
3.72649e-20
1.34667e-20
6.51914e-21
2.34648e-26
8.60639e-26
2.91482e-25
9.21959e-25
2.84603e-24
8.49872e-24
2.43344e-23
6.72483e-23
1.7408e-22
4.24627e-22
9.50038e-22
1.88873e-21
3.25742e-21
6.26938e-21
1.11136e-20
1.83921e-20
7.39753e-21
4.21523e-21
2.19056e-21
6.76397e-27
2.14939e-26
6.68212e-26
1.97907e-25
6.69315e-25
2.23825e-24
6.86684e-24
2.04522e-23
5.72912e-23
1.47629e-22
3.44598e-22
7.13184e-22
1.25974e-21
2.36073e-21
3.73743e-21
5.5515e-21
2.25689e-21
1.27634e-21
6.56982e-22
)
;

boundaryField
{
    leftWall
    {
        type            alphaContactAngle;
        contactAngleProperties 
        {
            mercury         
            {
                theta0          90;
            }
            air             
            {
                theta0          90;
            }
            oil             
            {
                theta0          90;
            }
        }
        value           nonuniform List<scalar> 
50
(
3.07203e-11
7.2989e-11
5.74192e-10
2.78873e-10
0.18762
0.95982
1
1
1
1
1
0.923848
0.477495
0.0775476
0.0356097
0.000218885
6.86077e-11
-4.30879e-08
-7.3491e-08
-6.21181e-08
-2.09764e-08
3.61588e-08
3.72346e-08
1.84945e-08
2.07345e-08
2.07379e-08
1.98424e-08
1.77128e-08
1.41488e-08
1.25923e-08
1.01509e-08
8.53119e-09
6.28437e-09
4.5991e-09
2.41205e-09
1.22409e-09
4.00722e-10
1.16476e-10
1.40206e-11
1.8429e-12
1.66173e-13
1.99249e-14
2.30607e-15
2.45052e-16
2.38988e-17
2.1158e-18
1.68088e-19
1.2518e-20
8.45664e-22
3.25095e-23
)
;
    }
    rightWall
    {
        type            alphaContactAngle;
        contactAngleProperties 
        {
            mercury         
            {
                theta0          90;
            }
            air             
            {
                theta0          90;
            }
            oil             
            {
                theta0          90;
            }
        }
        value           nonuniform List<scalar> 
50
(
0.0188889
0.0188889
0.021486
0.233201
0.397895
0.411945
0.377653
0.117379
0.0360974
0.0255852
0.0127298
0.00642679
0.0014264
0.000964668
0.000173485
5.45235e-07
6.21967e-07
0.0130211
0.0206615
0.020685
0.020685
0.00895748
4.081e-11
5.11705e-09
9.47945e-09
7.14394e-09
3.63966e-09
1.38835e-09
2.73432e-10
5.13936e-11
2.61376e-12
3.26437e-13
6.99056e-15
2.68003e-15
1.33322e-15
6.55063e-16
2.94738e-16
1.41386e-16
7.75053e-17
4.92016e-17
2.16543e-17
1.08351e-17
3.55405e-18
1.42271e-18
3.45263e-19
1.12335e-19
2.03546e-20
6.51914e-21
2.19056e-21
6.56982e-22
)
;
    }
    lowerWall
    {
        type            alphaContactAngle;
        contactAngleProperties 
        {
            mercury         
            {
                theta0          90;
            }
            air             
            {
                theta0          90;
            }
            oil             
            {
                theta0          90;
            }
        }
        value           nonuniform List<scalar> 
62
(
3.07203e-11
6.32863e-11
1.03449e-10
1.05613e-10
1.03408e-10
1.05939e-10
1.10675e-10
1.16693e-10
1.22976e-10
1.28963e-10
1.34146e-10
1.3798e-10
1.39617e-10
1.41586e-10
1.46602e-10
1.60637e-10
1.96672e-10
2.5549e-10
3.70216e-10
7.58597e-10
1.64656e-09
2.49073e-09
2.70068e-09
2.70068e-09
2.94085e-09
2.74131e-09
1.97739e-09
3.28525e-10
-3.41522e-10
-1.36783e-21
0.00371706
0.514875
0.524725
0.431066
0.421573
0.0206996
0.0214962
0.0100585
9.46982e-06
0.0510669
0.331898
0.962411
0.939466
0.0206996
0.0325033
0.0455409
0.0373633
0.0116167
0.00246297
0.0025136
0.00186312
0.00125279
0.0162765
0.0735603
0.116866
0.123214
0.123211
0.0859154
0.018883
0.0189089
0.0188889
0.0188889
)
;
    }
    atmosphere
    {
        type            inletOutlet;
        inletValue      uniform 0;
        value           nonuniform List<scalar> 
46
(
0
0
0
0
0
0
0
0
0
0
0
0
0
0
0
0
0
0
0
0
0
0
0
0
0
0
0
0
0
0
0
0
2.23825e-24
6.86684e-24
2.04522e-23
5.72912e-23
1.47629e-22
3.44598e-22
7.13184e-22
1.25973e-21
2.36073e-21
3.73743e-21
5.5515e-21
2.25689e-21
1.27634e-21
6.56982e-22
)
;
    }
    defaultFaces
    {
        type            empty;
    }
}


// ************************************************************************* //
