/*--------------------------------*- C++ -*----------------------------------*\
  =========                 |
  \\      /  F ield         | OpenFOAM: The Open Source CFD Toolbox
   \\    /   O peration     | Website:  https://openfoam.org
    \\  /    A nd           | Version:  13
     \\/     M anipulation  |
\*---------------------------------------------------------------------------*/
FoamFile
{
    format      ascii;
    class       volScalarField;
    location    "1.6";
    object      alpha.oil;
}
// * * * * * * * * * * * * * * * * * * * * * * * * * * * * * * * * * * * * * //

dimensions      [];

internalField   nonuniform List<scalar> 
2268
(
1.08514e-15
6.70494e-15
3.67839e-14
1.24766e-13
3.01061e-13
6.39354e-13
1.11059e-12
2.31773e-12
4.57791e-12
8.49984e-12
1.52433e-11
2.82351e-11
5.19514e-11
9.6445e-11
1.79157e-10
3.32409e-10
6.17987e-10
1.10491e-09
1.48451e-09
1.5231e-09
5.77634e-05
0.00054643
0.000568172
5.93774e-16
4.76003e-15
1.58877e-14
4.60239e-14
1.70432e-13
5.27369e-13
1.14382e-12
2.57914e-12
5.40657e-12
1.13258e-11
2.44194e-11
4.43701e-11
8.89599e-11
1.60667e-10
3.07756e-10
5.81807e-10
1.05241e-09
1.96271e-09
3.43279e-09
6.04865e-09
2.05294e-06
0.000190308
0.000568172
6.62626e-16
2.99671e-15
7.72668e-15
2.11872e-14
7.29425e-14
4.01131e-13
1.11075e-12
2.56451e-12
5.87484e-12
1.43344e-11
3.00748e-11
6.23246e-11
1.21211e-10
2.25697e-10
3.97319e-10
6.47689e-10
8.25675e-10
1.25987e-09
8.5607e-09
1.95811e-08
3.04291e-08
4.89013e-06
7.86884e-05
6.63691e-16
4.84713e-15
1.94297e-14
2.71591e-14
4.92034e-14
1.74873e-13
5.45227e-13
1.38528e-12
3.94989e-12
1.05677e-11
2.4879e-11
5.54728e-11
1.19837e-10
2.38954e-10
5.57858e-10
1.41297e-09
1.68413e-09
1.94737e-09
1.33309e-08
2.33027e-08
2.13653e-08
2.3505e-08
4.38999e-08
4.29563e-12
4.75481e-12
7.59727e-12
7.249e-12
5.48164e-12
3.55206e-12
2.22411e-12
1.7325e-12
1.82082e-12
3.5323e-12
9.26432e-12
2.28851e-11
6.51797e-11
1.49138e-10
3.25572e-10
2.01871e-09
4.6888e-09
2.55594e-09
5.38865e-09
1.05095e-08
1.91555e-08
6.35275e-08
5.67464e-08
3.83304e-10
2.94095e-10
2.90742e-10
2.49116e-10
2.01124e-10
1.36324e-10
6.92277e-11
3.4734e-11
1.95549e-11
1.24022e-11
1.09476e-11
1.35633e-11
3.98596e-11
1.71798e-10
2.72829e-10
2.89325e-09
2.9724e-08
3.04969e-08
1.15999e-08
1.06431e-08
1.22497e-08
7.4519e-08
6.72799e-08
2.37697e-09
1.70014e-09
1.37016e-09
1.13225e-09
9.36741e-10
6.76494e-10
3.3219e-10
1.92375e-10
1.09423e-10
6.11557e-11
4.52082e-11
5.12867e-11
8.96342e-11
2.43214e-10
4.19119e-10
4.23162e-10
1.56164e-08
1.51475e-07
3.60332e-08
6.64818e-08
8.45688e-08
7.78702e-08
1.25827e-07
6.06152e-09
4.69598e-09
3.68454e-09
3.06365e-09
2.67207e-09
2.11961e-09
1.08736e-09
5.9731e-10
3.36139e-10
1.72716e-10
1.06482e-10
1.10644e-10
1.86235e-10
3.20386e-10
4.57001e-10
4.49893e-10
4.07135e-10
7.38903e-09
1.41521e-06
3.3944e-06
2.48379e-06
1.81371e-07
1.65662e-06
0.102648
0.0658701
0.0382126
0.0368295
0.314464
0.367811
0.374172
0.374172
0.374172
0.291189
0.0586277
0.058747
0.0789236
0.150188
0.193693
0.262401
0.262406
0.260208
0.263642
0.1016
0.0847115
0.0460493
0.0294232
0.0597083
0.126462
0.156331
0.157833
0.143518
0.16508
0.167392
0.058571
0.058712
0.12206
0.212807
0.243125
0.242194
0.263695
0.421774
0.152876
0.258687
0.243673
0.124637
0.0135334
0.00495383
0.0124635
0.0276812
0.0454523
0.248004
0.260934
0.25967
0.230699
0.224927
0.208147
0.254744
0.254478
0.309862
0.520247
0.783839
0.664726
0.446341
0.181645
0.00118841
1.56124e-05
1.19603e-07
0.0151097
0.157
0.234213
0.253635
0.259426
0.261603
0.261602
0.258531
0.136185
0.122101
0.296979
0.520385
0.901929
0.899968
0.780517
0.137926
3.75674e-09
1.2852e-08
3.98285e-11
0.00357251
0.184838
0.253272
0.253463
0.190043
0.17623
0.139891
0.120625
0.121579
0.122093
0.253556
0.520121
0.628052
0.898967
0.89939
0.534234
0.014161
5.3647e-11
4.49541e-11
-3.80963e-07
0.0462339
0.134179
0.224283
0.204447
0.177017
0.0844367
0.0769187
0.130406
0.12811
0.229349
0.480241
0.0011439
0.326404
0.870672
0.844592
0.270125
6.9506e-11
1.74491e-08
1.68479e-05
6.58589e-07
0.000686469
0.0226985
0.0585036
0.0515004
0.00442464
0.02303
0.433129
0.486003
0.364496
0.491647
8.7134e-08
8.36774e-08
0.432424
0.780609
0.618123
0.0407721
-1.10713e-07
3.11804e-06
7.50546e-07
5.91038e-07
6.95693e-07
5.6369e-05
0.000119818
3.18686e-05
3.63571e-05
0.506934
0.971856
0.635208
0.753038
8.87924e-09
7.46655e-09
6.55349e-09
5.95056e-09
5.6043e-09
4.67683e-09
2.45771e-09
1.3227e-09
7.62314e-10
4.0216e-10
2.29298e-10
2.09632e-10
3.51503e-10
6.35624e-10
6.53424e-10
5.69956e-10
4.06696e-10
4.07132e-10
1.35236e-06
3.39174e-06
7.58988e-07
7.60687e-08
2.25025e-06
8.24346e-09
7.04523e-09
7.29268e-09
7.32859e-09
8.64406e-09
8.63571e-09
4.85398e-09
2.05542e-09
1.27094e-09
7.007e-10
3.26546e-10
3.48109e-10
7.46169e-10
1.65004e-09
1.79105e-09
1.90039e-09
2.79352e-09
5.21649e-09
3.44759e-08
2.6356e-07
1.22237e-07
7.50104e-08
1.02098e-05
3.46098e-09
3.00616e-09
2.7516e-09
1.99688e-09
1.97763e-09
1.98467e-09
2.07879e-09
1.3571e-09
7.86415e-10
3.66587e-10
3.37648e-10
3.63375e-10
8.2247e-10
1.33138e-09
1.55955e-09
1.40769e-09
2.01746e-09
2.86812e-09
6.98687e-09
2.23863e-08
1.99223e-08
-3.94607e-10
-3.94408e-07
0.000235812
0.0785311
0.128821
0.135248
0.105185
0.0508958
0.0156636
0.00734123
0.0090008
0.00790806
0.00687391
0.00608041
0.00502041
0.00361831
0.0033212
0.00246617
0.00118969
0.00177666
0.00727422
0.0188098
0.037873
0.0723323
0.14969
0.242928
0.773293
0.887751
0.882869
0.818211
0.628576
0.530605
0.517928
0.533436
0.518524
0.517352
0.513395
0.505316
0.493119
0.491487
0.473093
0.442512
0.467244
0.516833
0.595625
0.677964
0.74883
0.836413
0.646658
0.977142
0.981925
0.981918
0.978545
0.902163
0.889418
0.934355
0.95381
0.934633
0.915348
0.912384
0.921576
0.939579
0.937771
0.922558
0.93035
0.949245
0.991112
0.999835
1
1
1
0.759892
0.932521
0.908402
0.935596
0.953532
0.968881
0.979241
0.98698
0.992228
0.995481
0.997559
0.998922
0.999844
1
1
1
1
1
1
1
1
1
1
0.555941
0.368483
0.27961
0.258691
0.297544
0.346525
0.384713
0.414649
0.449964
0.490136
0.529847
0.566899
0.598615
0.626595
0.65225
0.67715
0.691983
0.693546
0.677859
0.650868
0.622461
0.591773
0.548561
0.160058
0.113465
0.00615441
-1.45633e-08
4.79822e-07
4.53354e-12
7.96964e-11
8.62529e-19
3.72234e-16
9.28521e-20
0
3.01927e-30
-5.5341e-26
1.0389e-32
-2.76301e-20
7.93017e-19
1.9466e-12
7.2665e-11
3.05325e-10
7.80837e-14
6.00921e-14
-8.51111e-12
-6.85154e-10
7.33495e-07
0.0225546
0.0128185
1.92361e-05
-1.38288e-11
9.57343e-10
4.7227e-09
3.94947e-08
1.07502e-07
3.174e-08
9.50424e-23
1.0925e-23
-2.08807e-24
-7.75912e-21
1.99742e-10
2.59263e-23
4.66707e-15
1.52144e-13
4.79407e-14
5.82235e-14
5.2576e-13
2.58317e-08
1.35731e-08
7.41118e-07
1.8199e-06
0.005697
0.000467156
-1.97714e-10
9.95322e-09
3.93342e-08
2.44427e-07
1.23123e-06
1.09543e-06
5.14087e-05
7.08575e-06
1.23622e-22
7.54025e-09
3.14615e-09
3.66918e-09
3.5996e-08
2.38621e-07
4.2913e-07
3.86849e-07
2.94441e-07
2.27057e-07
1.64706e-07
8.12105e-07
1.19907e-05
0.00025933
0.000120618
7.73994e-07
6.70017e-08
1.26237e-07
3.33201e-07
7.86342e-07
9.16568e-05
0.00017227
0.000125389
1.06876e-05
3.00337e-07
1.13496e-08
4.6689e-09
1.6144e-07
7.87599e-07
7.87512e-07
7.45046e-07
6.62979e-07
5.04421e-07
1.60747e-07
7.72614e-07
8.26782e-07
1.48381e-06
1.27072e-06
2.07058e-07
1.11579e-07
1.70331e-07
3.54734e-07
8.01925e-07
0.000171619
0.00017227
0.00017227
4.71209e-05
7.70048e-07
2.20613e-08
3.19636e-08
2.0106e-07
5.34806e-07
5.41556e-07
3.45561e-07
2.60775e-07
1.54038e-07
6.67059e-08
8.70865e-07
1.64806e-06
8.86375e-07
2.78036e-07
1.05934e-07
9.01574e-08
1.65027e-07
2.92922e-07
1.9243e-06
0.000105183
0.00017227
0.00017227
4.89101e-05
6.18688e-08
7.72162e-08
5.65759e-08
5.55133e-08
1.11494e-07
1.44684e-07
3.49991e-08
1.41954e-08
1.56287e-08
7.77598e-09
2.13422e-07
6.4939e-07
2.34523e-07
1.16811e-07
7.44203e-08
8.63182e-08
1.39609e-07
1.77718e-07
2.69239e-06
3.23586e-08
7.49489e-05
0.00011399
1.77187e-05
3.86355e-07
2.98236e-07
5.42812e-09
4.43461e-09
5.49145e-09
1.86356e-08
1.03543e-09
8.81826e-10
8.94511e-10
8.87047e-10
3.21348e-08
8.13568e-08
9.53466e-08
7.93013e-08
7.25505e-08
6.65297e-08
5.75717e-08
5.91473e-08
1.68103e-08
1.35317e-08
1.35825e-08
3.50012e-08
1.5902e-06
2.07213e-06
5.56934e-07
3.6026e-09
7.06823e-09
4.86668e-09
2.71342e-09
2.92561e-09
1.62064e-09
1.08137e-09
1.0392e-09
3.02711e-08
6.84389e-08
9.77175e-08
9.02174e-08
6.94767e-08
4.28236e-08
2.74386e-08
1.5627e-08
1.44038e-08
1.35566e-08
1.34857e-08
1.59604e-08
1.48208e-07
2.86624e-06
7.07503e-07
3.19764e-09
1.67094e-08
1.38247e-08
1.05559e-08
9.50397e-09
5.80065e-09
2.80788e-09
1.83668e-09
2.80826e-08
6.88638e-08
9.74728e-08
9.20261e-08
6.01884e-08
3.30163e-08
2.05602e-08
1.68029e-08
1.59618e-08
1.39716e-08
1.40431e-08
5.18003e-08
7.51702e-07
2.52934e-06
3.00142e-07
4.7314e-09
1.5413e-08
1.46938e-08
1.34134e-08
1.22007e-08
9.4481e-09
5.01618e-09
3.26126e-09
1.97016e-08
5.65542e-08
8.42561e-08
8.58912e-08
5.91244e-08
3.37039e-08
2.03468e-08
1.73324e-08
1.66592e-08
1.51394e-08
1.73507e-08
8.87407e-08
2.76808e-07
4.71961e-09
2.7309e-08
3.79187e-08
1.76511e-08
1.13582e-08
1.01964e-08
1.08268e-08
9.63591e-09
6.21032e-09
4.26472e-09
1.34727e-08
3.74937e-08
5.81808e-08
6.71512e-08
5.75993e-08
3.40446e-08
1.95417e-08
1.48149e-08
1.41591e-08
1.35916e-08
1.15303e-08
6.69072e-09
4.90803e-09
4.83204e-09
1.08103e-08
4.59813e-08
1.80686e-08
1.07157e-08
7.67657e-09
8.21897e-09
7.88183e-09
6.0808e-09
4.4251e-09
7.59384e-09
2.31698e-08
3.80673e-08
4.57257e-08
4.56314e-08
3.31824e-08
1.76713e-08
1.12524e-08
9.52098e-09
9.44416e-09
8.74331e-09
6.69982e-09
4.78766e-09
4.76793e-09
7.11276e-09
1.21997e-08
1.11623e-08
7.5438e-09
5.26558e-09
5.56152e-09
5.68185e-09
4.9401e-09
4.05919e-09
4.44218e-09
1.27663e-08
2.10718e-08
2.68307e-08
3.12996e-08
2.74212e-08
1.5744e-08
8.61794e-09
6.20878e-09
5.54438e-09
5.84647e-09
5.83018e-09
5.27463e-09
4.3937e-09
3.78069e-09
3.75821e-09
4.80932e-09
4.08203e-09
3.47426e-09
3.47851e-09
3.49112e-09
3.49504e-09
3.07485e-09
1.91327e-09
5.66224e-09
1.05984e-08
1.36852e-08
1.68864e-08
1.93292e-08
1.30628e-08
6.76471e-09
4.26191e-09
3.27282e-09
3.0711e-09
3.3118e-09
3.38797e-09
3.2064e-09
2.78882e-09
2.3739e-09
2.11604e-09
2.01026e-09
1.96666e-09
1.98049e-09
2.01831e-09
2.00087e-09
1.90853e-09
8.49511e-10
2.63166e-09
4.38081e-09
5.75966e-09
6.50704e-09
1.05153e-08
9.21278e-09
4.97575e-09
2.95187e-09
1.88615e-09
1.45483e-09
1.52209e-09
1.72207e-09
1.80587e-09
1.71445e-09
1.47063e-09
1.28205e-09
1.12434e-09
1.05356e-09
1.05235e-09
1.05624e-09
1.02899e-09
1.00277e-09
3.06873e-10
9.67205e-10
1.68571e-09
2.20062e-09
2.13549e-09
3.76097e-09
4.8609e-09
3.12264e-09
1.93751e-09
1.18999e-09
7.97424e-10
6.55696e-10
7.14977e-10
8.24965e-10
8.61098e-10
7.96274e-10
7.01383e-10
6.14231e-10
5.42383e-10
5.37006e-10
5.39665e-10
5.30299e-10
4.98262e-10
1.08684e-10
3.07637e-10
5.43578e-10
7.54482e-10
7.25898e-10
1.18461e-09
1.74878e-09
1.50306e-09
1.03846e-09
6.68542e-10
4.13733e-10
3.13654e-10
2.93007e-10
3.21371e-10
3.52696e-10
3.6659e-10
3.37456e-10
3.09589e-10
2.77108e-10
2.61865e-10
2.49649e-10
2.35383e-10
2.24549e-10
2.13481e-11
7.92506e-11
1.48085e-10
2.14085e-10
2.17386e-10
3.62279e-10
5.62641e-10
5.49842e-10
4.35739e-10
3.0396e-10
2.01582e-10
1.36207e-10
1.14812e-10
1.17687e-10
1.34957e-10
1.44864e-10
1.43401e-10
1.31224e-10
1.23937e-10
1.16047e-10
1.0731e-10
1.03552e-10
9.70041e-11
4.45419e-12
1.65598e-11
3.32671e-11
4.98044e-11
5.33671e-11
9.18259e-11
1.49356e-10
1.62669e-10
1.38021e-10
1.06311e-10
7.64815e-11
5.40401e-11
4.28817e-11
4.04173e-11
4.57714e-11
5.13338e-11
5.35596e-11
5.20514e-11
4.92577e-11
4.66677e-11
4.31879e-11
3.75425e-11
3.57987e-11
4.56936e-13
2.5842e-12
5.55428e-12
8.76277e-12
1.01784e-11
1.85647e-11
3.3129e-11
3.92248e-11
3.59685e-11
2.95179e-11
2.26242e-11
1.69219e-11
1.35603e-11
1.30995e-11
1.40586e-11
1.62495e-11
1.79413e-11
1.73705e-11
1.69877e-11
1.6466e-11
1.45502e-11
1.31585e-11
1.1714e-11
4.30377e-14
2.86835e-13
6.77653e-13
1.12368e-12
1.38091e-12
2.859e-12
5.96405e-12
7.65166e-12
7.29284e-12
6.38234e-12
5.30286e-12
4.27381e-12
3.64357e-12
3.51923e-12
4.00735e-12
4.61403e-12
5.09087e-12
5.34362e-12
5.24857e-12
5.18791e-12
4.73872e-12
3.76269e-12
3.26027e-12
9.33181e-16
1.8107e-14
5.18221e-14
8.79981e-14
1.24067e-13
3.3617e-13
8.47484e-13
1.21763e-12
1.2206e-12
1.13256e-12
9.99586e-13
8.49088e-13
7.93772e-13
8.3664e-13
9.81064e-13
1.18666e-12
1.35084e-12
1.4073e-12
1.43166e-12
1.38412e-12
1.28689e-12
9.76933e-13
7.58921e-13
2.2143e-17
5.33631e-16
1.75823e-15
3.80274e-15
7.84061e-15
2.81409e-14
9.20188e-14
1.46676e-13
1.6655e-13
1.61896e-13
1.49757e-13
1.40945e-13
1.4661e-13
1.71982e-13
2.12225e-13
2.53869e-13
2.93146e-13
3.21782e-13
3.28738e-13
3.1893e-13
2.93423e-13
1.86911e-13
1.5166e-13
5.04729e-20
2.84092e-18
1.61035e-17
7.10242e-17
4.23002e-16
2.0335e-15
6.83091e-15
1.2855e-14
1.60783e-14
1.72393e-14
1.77235e-14
1.96057e-14
2.30883e-14
2.94389e-14
3.87163e-14
4.88676e-14
5.83982e-14
6.27306e-14
6.52035e-14
6.14925e-14
5.11579e-14
3.65719e-14
2.41381e-14
2.14268e-22
2.95079e-20
3.35783e-19
2.88988e-18
2.05342e-17
1.19438e-16
4.53347e-16
9.04818e-16
1.38348e-15
1.66376e-15
2.01425e-15
2.45262e-15
3.24671e-15
4.57901e-15
6.34209e-15
8.3721e-15
9.70531e-15
1.07209e-14
1.09881e-14
1.02419e-14
8.2333e-15
5.14227e-15
3.3012e-15
8.15372e-25
7.94514e-23
5.31094e-21
9.62258e-20
9.56417e-19
5.54071e-18
2.27161e-17
5.38788e-17
1.04009e-16
1.47841e-16
2.02607e-16
2.86761e-16
4.27021e-16
6.5521e-16
9.54865e-16
1.28941e-15
1.58217e-15
1.72639e-15
1.6959e-15
1.45093e-15
1.03653e-15
6.756e-16
4.66506e-16
9.53853e-27
1.1233e-24
1.35828e-22
3.33087e-21
3.56466e-20
2.40152e-19
1.08893e-18
3.02028e-18
7.62075e-18
1.24751e-17
1.93405e-17
3.13578e-17
5.21756e-17
8.53734e-17
1.29217e-16
1.77707e-16
2.17974e-16
2.27267e-16
2.12058e-16
1.68786e-16
1.20407e-16
8.38588e-17
1.00046e-16
1.60734e-28
1.91662e-26
3.06567e-24
9.6789e-23
1.16836e-21
9.15889e-21
4.57501e-20
1.4859e-19
4.95028e-19
9.53002e-19
1.71149e-18
3.16447e-18
5.78077e-18
1.00665e-17
1.57729e-17
2.19142e-17
2.6214e-17
2.67607e-17
2.32886e-17
1.80181e-17
1.30912e-17
1.54189e-17
3.828e-17
1.26404e-29
4.04685e-28
6.2204e-26
2.54e-24
3.62228e-23
3.05088e-22
1.74799e-21
6.94444e-21
2.9815e-20
6.70895e-20
1.39091e-19
2.88923e-19
5.78193e-19
1.06875e-18
1.73346e-18
2.39876e-18
2.79919e-18
2.75285e-18
2.42412e-18
2.12771e-18
2.41843e-18
4.96479e-18
1.87921e-17
2.16635e-30
2.79753e-29
1.35455e-27
6.56192e-26
1.06562e-24
9.92874e-24
6.8097e-23
3.20651e-22
1.66155e-21
4.3315e-21
1.02981e-20
2.47844e-20
5.30134e-20
1.02479e-19
1.70626e-19
2.39016e-19
2.86746e-19
2.98376e-19
2.9908e-19
3.65705e-19
6.47858e-19
1.99598e-18
1.08725e-17
3.93492e-31
4.71418e-30
6.32114e-29
1.99188e-27
3.58702e-26
3.70882e-25
2.91092e-24
1.66612e-23
1.00033e-22
2.89097e-22
7.86027e-22
2.08853e-21
4.99008e-21
1.03212e-20
1.77689e-20
2.60853e-20
3.33894e-20
3.96887e-20
5.15854e-20
9.32489e-20
2.42662e-19
1.1669e-18
7.32612e-18
7.3508e-32
8.66527e-31
8.64805e-30
1.14437e-28
1.73071e-27
1.72494e-26
1.40874e-25
9.09575e-25
5.99658e-24
2.05724e-23
6.45272e-23
1.93085e-22
5.03486e-22
1.11472e-21
2.05065e-21
3.27726e-21
4.80358e-21
6.94482e-21
1.17463e-20
2.92058e-20
1.23984e-19
6.75556e-19
4.5782e-18
9.02332e-33
1.11083e-31
1.21959e-30
1.28349e-29
1.38e-28
1.26757e-27
1.02521e-26
7.5244e-26
4.63313e-25
1.80012e-24
6.35149e-24
2.03166e-23
5.65557e-23
1.33606e-22
2.776e-22
4.82464e-22
7.98263e-22
1.32454e-21
2.69659e-21
9.54466e-21
4.87498e-20
2.82202e-19
2.09178e-18
1.92182e-06
1.01288e-05
0.000405272
0.00126855
9.04853e-06
4.28624e-06
0.000155034
0.00330473
-3.54873e-07
1.24277e-05
0.00270453
0.0967377
0.230517
0.240812
0.337017
0.670471
0.847541
0.816685
0.849499
0.978837
1
1
1
1
1
1
1
1
0.530772
0.531809
0.543567
0.561027
8.2767e-25
7.32315e-08
3.1097e-08
6.89137e-09
5.37297e-09
1.18033e-08
7.14762e-09
5.59093e-09
1.2404e-07
1.13639e-07
1.14279e-07
8.85274e-08
1.76384e-07
1.82298e-07
1.46387e-07
1.40598e-07
7.08035e-08
4.7504e-08
5.74578e-08
5.76166e-08
8.20164e-09
8.52084e-09
9.13841e-09
1.37776e-08
9.11159e-10
1.0687e-09
3.27656e-09
8.5162e-09
9.73276e-10
9.87022e-10
1.0569e-09
2.23585e-09
1.1552e-09
1.01663e-09
1.01598e-09
1.03391e-09
1.85949e-09
1.29474e-09
1.20966e-09
1.10846e-09
2.71626e-09
1.94681e-09
1.63609e-09
1.35322e-09
3.03871e-09
2.48405e-09
1.92191e-09
1.67395e-09
3.0009e-09
2.34477e-09
2.07708e-09
1.73807e-09
2.56693e-09
2.25163e-09
1.81593e-09
1.62724e-09
1.6951e-09
1.4984e-09
1.41229e-09
1.25568e-09
9.1141e-10
8.76972e-10
8.17859e-10
7.56099e-10
4.41783e-10
4.09247e-10
3.95435e-10
3.68497e-10
1.89453e-10
1.72266e-10
1.69183e-10
1.56147e-10
8.17047e-11
7.10106e-11
6.62116e-11
5.90762e-11
2.88356e-11
2.44022e-11
2.28486e-11
1.95556e-11
9.62138e-12
7.82311e-12
7.01747e-12
5.62517e-12
2.56724e-12
2.10835e-12
1.79925e-12
1.35726e-12
5.89274e-13
4.49436e-13
3.7243e-13
2.7642e-13
1.17739e-13
8.19832e-14
6.53271e-14
4.74624e-14
1.80563e-14
1.30584e-14
9.37199e-15
7.23291e-15
2.49578e-15
1.82678e-15
1.63655e-15
1.66723e-15
4.16324e-16
4.2999e-16
5.19274e-16
7.4263e-16
1.24556e-16
1.60976e-16
2.57059e-16
4.61652e-16
5.68214e-17
8.92772e-17
1.64733e-16
3.81767e-16
3.05536e-17
5.58216e-17
1.3963e-16
4.11702e-16
1.97113e-17
4.64033e-17
1.4635e-16
4.74009e-16
1.51692e-17
4.66337e-17
1.63195e-16
5.20255e-16
1.11297e-17
4.21176e-17
1.51562e-16
4.65302e-16
8.07625e-18
2.77387e-17
8.91128e-17
2.41638e-16
0.000391927
2.27853e-05
0.0853433
0.695603
0.781779
0.285689
1.26018e-06
1.76356e-06
4.17077e-06
3.83318e-06
1.68214e-06
3.69576e-06
1.77326e-06
1.59697e-05
0.0482696
0.71392
0.998857
0.985215
0.930096
0.00364648
1.35992e-05
0.0669834
0.75533
0.928006
0.781632
0.161387
7.23998e-07
7.65401e-07
5.57369e-07
7.53593e-08
-3.69562e-06
0.196604
0.532799
0.819648
0.987216
0.998867
0.999991
0.960239
0.139406
0.135492
0.511224
0.920754
0.999828
0.976459
0.734303
0.123283
4.00295e-06
-3.63694e-06
0.247888
0.76822
0.962154
0.999103
0.999949
0.999395
0.999169
0.999999
0.980262
0.839718
0.886488
0.934787
0.994812
0.999882
0.99991
0.994513
0.787222
0.590225
0.60604
0.931816
0.999805
0.999916
0.999868
0.999953
0.999897
0.999741
0.999999
0.978089
0.999789
1
0.999997
0.999989
0.999919
0.999907
0.999934
0.991702
0.941765
0.943696
0.990535
0.999961
0.999968
0.999864
0.999946
0.999999
0.999999
0.999999
0.967888
1
1
1
1
0.999998
0.999992
0.999964
0.999964
0.999973
0.999993
0.999433
0.999874
0.999995
0.999964
0.999971
0.999998
0.999999
0.999999
0.967321
1
1
1
1
1
1
1
0.999996
0.999995
0.999998
0.999998
0.999984
0.999997
0.999999
0.999999
0.999999
0.999998
0.999999
0.968006
0.550862
0.56755
0.606887
0.649865
0.696717
0.757852
0.820939
0.889472
0.979005
0.999999
0.999999
0.999998
0.999999
0.999999
0.999999
0.999999
0.999998
0.999998
0.984719
5.41566e-21
3.04081e-28
-1.73558e-15
-1.58603e-18
0.0135495
0.0447233
0.0964237
0.165231
0.266689
0.477079
0.736246
0.928193
0.999999
0.999999
0.999999
0.999999
0.999998
0.999998
0.99694
3.81673e-09
4.80591e-09
3.74877e-09
7.76497e-25
-3.59571e-24
-7.46895e-22
-2.74679e-13
7.71578e-08
2.38006e-07
0.00182616
0.057888
0.19192
0.414112
0.71707
0.94982
0.999999
0.999998
0.999986
0.980752
1.01163e-07
4.88429e-08
5.0586e-08
1.3449e-07
3.46372e-07
4.1625e-07
2.92137e-07
1.32549e-07
2.67348e-07
5.67743e-07
5.66788e-07
1.06822e-06
1.94441e-06
0.0365948
0.214571
0.61024
0.97491
0.99877
0.973673
1.09994e-07
9.02444e-08
1.38412e-07
4.93803e-07
7.49778e-07
7.55322e-07
2.95672e-07
1.32805e-05
0.000454551
0.000121751
2.348e-05
2.47015e-06
2.38498e-06
4.92242e-06
4.98711e-06
0.00888547
0.267018
0.810272
0.896888
4.80492e-08
6.93969e-08
1.82864e-07
5.21566e-07
6.63231e-07
7.14892e-07
0.000150426
0.0010102
0.00102946
0.00102637
5.52851e-07
2.06598e-06
3.07284e-06
0.000166083
1.79989e-06
1.60833e-06
5.93218e-06
0.0550759
0.128096
2.1e-08
6.97394e-08
1.70006e-07
3.05773e-07
4.87522e-07
7.51673e-07
0.000169191
0.000823816
0.000998698
0.000489859
2.15514e-07
4.24237e-05
0.00131847
0.00234135
0.00218261
0.00128496
0.000165384
2.02208e-06
1.67329e-07
1.5638e-08
4.67641e-08
1.25161e-07
2.96735e-07
7.09087e-07
2.22857e-06
1.08509e-05
4.43092e-05
9.72222e-05
7.01447e-07
1.64719e-07
9.73389e-05
0.00154701
0.00217482
0.00177888
0.00137656
0.000754928
1.22257e-05
1.41535e-07
5.40433e-09
8.39834e-09
1.4966e-08
2.09298e-08
2.98926e-08
8.7163e-08
8.43684e-08
1.19212e-07
1.31556e-07
1.19127e-07
7.31696e-06
6.11828e-05
0.000178011
0.00025213
7.44122e-05
4.96175e-05
0.000199605
5.97942e-06
1.47275e-07
1.54281e-09
3.36131e-09
4.81888e-09
1.05467e-08
2.21429e-08
5.4514e-08
9.78648e-08
1.16915e-07
1.28084e-07
5.95975e-07
2.53202e-06
4.62866e-07
1.84513e-08
1.90514e-08
1.84848e-08
1.21093e-08
3.1425e-08
4.43647e-07
2.00894e-07
1.10738e-09
1.78198e-09
3.97768e-09
7.5332e-09
1.54738e-08
3.41055e-08
6.66521e-08
1.06787e-07
1.37852e-07
1.68166e-07
5.73994e-08
2.51206e-08
2.96932e-08
4.37636e-08
8.39107e-08
1.54438e-07
1.97661e-07
4.39683e-07
7.54343e-07
1.1336e-09
9.31589e-10
1.6893e-09
3.28842e-09
7.21014e-09
1.42548e-08
2.9635e-08
5.22613e-08
7.10441e-08
6.97387e-08
3.82598e-08
2.70494e-08
4.4431e-08
8.00415e-08
1.49743e-07
2.446e-07
4.75791e-07
9.46882e-07
1.06353e-06
1.36604e-09
8.53398e-10
7.05074e-10
1.28842e-09
2.55231e-09
4.7676e-09
9.67472e-09
1.83541e-08
2.83858e-08
3.24639e-08
2.54759e-08
2.36563e-08
3.48382e-08
6.45885e-08
1.23423e-07
2.16352e-07
3.79953e-07
7.75725e-07
1.10282e-06
1.44386e-09
9.05455e-10
6.00672e-10
5.27769e-10
8.44652e-10
1.65112e-09
3.03611e-09
5.53972e-09
9.17789e-09
1.23392e-08
1.30113e-08
1.28958e-08
1.98383e-08
3.51204e-08
6.58251e-08
1.19088e-07
2.14197e-07
2.6083e-07
3.56417e-07
1.36477e-09
8.99997e-10
5.76941e-10
4.22433e-10
3.6942e-10
5.81214e-10
1.07965e-09
1.82718e-09
2.96229e-09
4.35543e-09
5.55976e-09
6.82943e-09
9.67827e-09
1.55502e-08
2.64762e-08
4.3983e-08
6.37833e-08
5.35861e-08
8.92559e-08
1.08919e-09
7.67153e-10
5.12141e-10
3.6568e-10
2.64394e-10
2.71927e-10
4.46794e-10
7.56062e-10
1.19787e-09
1.81233e-09
2.57306e-09
3.54229e-09
5.02134e-09
7.37871e-09
1.0984e-08
1.60791e-08
1.61036e-08
1.75985e-08
1.33292e-08
6.82532e-10
5.22381e-10
3.74603e-10
2.74781e-10
1.95555e-10
1.79213e-10
2.26032e-10
3.84915e-10
6.31165e-10
9.86728e-10
1.49639e-09
2.22578e-09
3.28703e-09
4.84032e-09
6.94329e-09
9.9168e-09
1.14917e-08
1.08796e-08
1.19489e-08
3.39747e-10
2.70992e-10
1.99955e-10
1.61548e-10
1.21685e-10
1.15527e-10
1.41976e-10
2.28853e-10
3.98221e-10
6.57743e-10
1.0587e-09
1.67006e-09
2.60712e-09
4.06027e-09
6.29854e-09
9.46305e-09
1.50148e-08
1.93428e-08
1.239e-08
1.43676e-10
1.15297e-10
8.71432e-11
7.22195e-11
6.24349e-11
6.68089e-11
9.2841e-11
1.56919e-10
2.83212e-10
4.97414e-10
8.4432e-10
1.39483e-09
2.28244e-09
3.79439e-09
6.54323e-09
1.15473e-08
1.88794e-08
2.04883e-08
2.24336e-08
5.30951e-11
4.09244e-11
3.03907e-11
2.65e-11
2.71304e-11
3.67896e-11
6.16871e-11
1.16634e-10
2.22035e-10
4.1184e-10
7.30297e-10
1.24825e-09
2.09762e-09
3.60932e-09
6.58589e-09
1.22215e-08
2.84925e-08
4.21975e-08
2.93454e-08
1.70096e-11
1.25856e-11
9.19e-12
8.94657e-12
1.22255e-11
2.20417e-11
4.53438e-11
9.39269e-11
1.8828e-10
3.65446e-10
6.75031e-10
1.18635e-09
2.00571e-09
3.47903e-09
6.86363e-09
1.66646e-08
4.00303e-08
8.45098e-08
4.40178e-08
4.58602e-12
3.15764e-12
2.59387e-12
3.44215e-12
6.97289e-12
1.62012e-11
3.68601e-11
8.13821e-11
1.7034e-10
3.4422e-10
6.59563e-10
1.18719e-09
1.99996e-09
3.41364e-09
7.10005e-09
1.78901e-08
5.02936e-08
1.10339e-07
4.72522e-08
1.0074e-12
7.49242e-13
9.38121e-13
2.05687e-12
5.21287e-12
1.38302e-11
3.22991e-11
7.38828e-11
1.63203e-10
3.39697e-10
6.73495e-10
1.23703e-09
2.09732e-09
3.43656e-09
7.38174e-09
2.41945e-08
6.78202e-08
1.10243e-07
5.18781e-08
1.94528e-13
2.05841e-13
5.60197e-13
1.6622e-12
4.57056e-12
1.21411e-11
3.0379e-11
7.10496e-11
1.59767e-10
3.42494e-10
7.07425e-10
1.33864e-09
2.27332e-09
3.63252e-09
7.91359e-09
2.73967e-08
7.90564e-08
1.10292e-07
4.82244e-08
3.7684e-14
1.0097e-13
4.26803e-13
1.43928e-12
4.26662e-12
1.1245e-11
2.78502e-11
6.95102e-11
1.60103e-10
3.58774e-10
7.54093e-10
1.47422e-09
2.5638e-09
4.11413e-09
8.88433e-09
3.07761e-08
1.00222e-07
1.10272e-07
4.54539e-08
1.29208e-14
7.36249e-14
3.55818e-13
1.24353e-12
3.79002e-12
1.03961e-11
2.68444e-11
6.79098e-11
1.63245e-10
3.74386e-10
8.13413e-10
1.61947e-09
2.88215e-09
4.8573e-09
1.01386e-08
3.22854e-08
9.11446e-08
1.08909e-07
2.93867e-08
9.95353e-15
6.60038e-14
3.14001e-13
1.09148e-12
3.34727e-12
9.52316e-12
2.57522e-11
6.64012e-11
1.66133e-10
3.94091e-10
8.73388e-10
1.751e-09
3.21411e-09
5.52563e-09
1.09349e-08
2.86172e-08
7.37953e-08
4.75428e-08
2.09705e-08
9.62001e-15
6.44434e-14
2.82379e-13
9.76834e-13
3.0384e-12
9.01443e-12
2.49506e-11
6.64814e-11
1.68525e-10
4.09752e-10
9.11835e-10
1.82544e-09
3.40249e-09
5.74203e-09
1.04424e-08
2.20713e-08
2.63777e-08
2.60136e-08
8.64666e-09
8.93738e-15
5.63345e-14
2.39295e-13
8.50694e-13
2.78689e-12
8.39394e-12
2.38918e-11
6.4229e-11
1.64668e-10
4.00791e-10
8.94745e-10
1.78516e-09
3.3477e-09
5.45839e-09
8.47647e-09
1.56684e-08
1.33227e-08
7.17894e-09
4.93275e-09
8.17262e-15
4.85123e-14
2.00635e-13
7.44146e-13
2.46008e-12
7.52617e-12
2.14935e-11
5.79768e-11
1.48889e-10
3.63054e-10
8.07177e-10
1.59574e-09
2.95746e-09
4.64933e-09
6.24456e-09
9.04437e-09
4.79004e-09
3.35288e-09
1.86618e-09
7.45571e-15
4.00935e-14
1.66571e-13
6.10769e-13
2.01821e-12
6.19e-12
1.76675e-11
4.74033e-11
1.20906e-10
2.93902e-10
6.50947e-10
1.27287e-09
2.29908e-09
3.47467e-09
4.14987e-09
4.83564e-09
2.58708e-09
1.03106e-09
9.68799e-10
6.18823e-15
3.03016e-14
1.23043e-13
4.34548e-13
1.44701e-12
4.40291e-12
1.2558e-11
3.36039e-11
8.52534e-11
2.06476e-10
4.56184e-10
8.91622e-10
1.55531e-09
2.32222e-09
2.65139e-09
2.50252e-09
1.04929e-09
4.87046e-10
3.26191e-10
4.54581e-15
1.94689e-14
7.36888e-14
2.50882e-13
7.94335e-13
2.40459e-12
6.94657e-12
1.8995e-11
4.88755e-11
1.19462e-10
2.67342e-10
5.22497e-10
8.88907e-10
1.33053e-09
1.51472e-09
1.24583e-09
5.62258e-10
1.78751e-10
1.59425e-10
2.46404e-15
9.29815e-15
3.24931e-14
1.06063e-13
3.36256e-13
1.03022e-12
3.01926e-12
8.54833e-12
2.26487e-11
5.65513e-11
1.29278e-10
2.60162e-10
4.43101e-10
6.73556e-10
7.78886e-10
6.04902e-10
2.17432e-10
9.6488e-11
8.22726e-11
7.26681e-16
2.38264e-15
7.67252e-15
2.358e-14
8.22488e-14
2.83605e-13
8.95715e-13
2.74714e-12
7.92998e-12
2.10553e-11
5.05503e-11
1.06887e-10
1.87717e-10
2.93371e-10
3.48907e-10
2.70971e-10
1.04006e-10
4.93786e-11
3.62938e-11
)
;

boundaryField
{
    leftWall
    {
        type            alphaContactAngle;
        contactAngleProperties 
        {
            mercury         
            {
                theta0          90;
            }
            air             
            {
                theta0          90;
            }
            water           
            {
                theta0          90;
            }
        }
        value           nonuniform List<scalar> 
50
(
1.08514e-15
5.93774e-16
6.62626e-16
6.63691e-16
4.29563e-12
3.83304e-10
2.37697e-09
6.06152e-09
8.87924e-09
8.24346e-09
3.46098e-09
0.000235812
0.242928
0.646658
0.759892
0.555941
0.160058
7.33495e-07
7.41118e-07
8.12105e-07
7.72614e-07
8.70865e-07
2.13422e-07
3.21348e-08
3.02711e-08
2.80826e-08
1.97016e-08
1.34727e-08
7.59384e-09
4.44218e-09
1.91327e-09
8.49511e-10
3.06873e-10
1.08684e-10
2.13481e-11
4.45419e-12
4.56936e-13
4.30377e-14
9.33181e-16
2.2143e-17
5.04729e-20
2.14268e-22
8.15372e-25
9.53853e-27
1.60734e-28
1.26404e-29
2.16635e-30
3.93492e-31
7.3508e-32
9.02332e-33
)
;
    }
    rightWall
    {
        type            alphaContactAngle;
        contactAngleProperties 
        {
            mercury         
            {
                theta0          90;
            }
            air             
            {
                theta0          90;
            }
            water           
            {
                theta0          90;
            }
        }
        value           nonuniform List<scalar> 
50
(
0.263642
0.421774
0.520247
0.520385
0.520121
0.480241
0.491647
0.753038
0.930096
0.960239
0.980262
0.978089
0.967888
0.967321
0.968006
0.984719
0.99694
0.980752
0.973673
0.896888
0.128096
1.67329e-07
1.41535e-07
1.47275e-07
2.00894e-07
7.54343e-07
1.06353e-06
1.10282e-06
3.56417e-07
8.92559e-08
1.33292e-08
1.19489e-08
1.239e-08
2.24336e-08
2.93454e-08
4.40178e-08
4.72522e-08
5.18781e-08
4.82244e-08
4.54539e-08
2.93867e-08
2.09705e-08
8.64666e-09
4.93275e-09
1.86618e-09
9.68799e-10
3.26191e-10
1.59425e-10
8.22726e-11
3.62938e-11
)
;
    }
    lowerWall
    {
        type            alphaContactAngle;
        contactAngleProperties 
        {
            mercury         
            {
                theta0          90;
            }
            air             
            {
                theta0          90;
            }
            water           
            {
                theta0          90;
            }
        }
        value           nonuniform List<scalar> 
62
(
1.08514e-15
6.70494e-15
3.67839e-14
1.24766e-13
3.01061e-13
6.39354e-13
1.11059e-12
2.31773e-12
4.57791e-12
8.49984e-12
1.52433e-11
2.82351e-11
5.19514e-11
9.6445e-11
1.79157e-10
3.32409e-10
6.17987e-10
1.10491e-09
1.48451e-09
1.5231e-09
5.77634e-05
0.00054643
0.000568172
0.000568172
0.000568172
7.86884e-05
4.38999e-08
5.67464e-08
6.72799e-08
1.25827e-07
1.65662e-06
1.92182e-06
1.01288e-05
0.000405272
0.00126855
0.102648
0.1016
0.152876
0.783839
0.901929
0.628052
0.0011439
8.7134e-08
0.102648
0.0658701
0.0382126
0.0368295
0.314464
0.367811
0.374172
0.374172
0.374172
0.291189
0.0586277
0.058747
0.0789236
0.150188
0.193693
0.262401
0.262406
0.260208
0.263642
)
;
    }
    atmosphere
    {
        type            inletOutlet;
        inletValue      uniform 0;
        value           nonuniform List<scalar> 
46
(
0
0
0
0
0
0
0
0
0
0
0
0
0
0
0
0
0
0
0
0
0
0
0
0
0
0
0
0
0
0
0
0
2.83605e-13
8.95715e-13
2.74714e-12
7.92997e-12
2.10553e-11
5.05503e-11
1.06887e-10
1.87717e-10
2.93371e-10
3.48907e-10
2.70971e-10
1.04006e-10
4.93786e-11
3.62938e-11
)
;
    }
    defaultFaces
    {
        type            empty;
    }
}


// ************************************************************************* //
