/*--------------------------------*- C++ -*----------------------------------*\
  =========                 |
  \\      /  F ield         | OpenFOAM: The Open Source CFD Toolbox
   \\    /   O peration     | Website:  https://openfoam.org
    \\  /    A nd           | Version:  13
     \\/     M anipulation  |
\*---------------------------------------------------------------------------*/
FoamFile
{
    format      ascii;
    class       volScalarField;
    location    "1.6";
    object      alpha.air;
}
// * * * * * * * * * * * * * * * * * * * * * * * * * * * * * * * * * * * * * //

dimensions      [];

internalField   nonuniform List<scalar> 
2268
(
1.40524e-13
2.21654e-13
3.45142e-13
2.83071e-13
2.37426e-13
1.89393e-13
1.35626e-13
8.90083e-14
5.22793e-14
2.7889e-14
1.66043e-14
1.03693e-14
6.549e-15
3.86627e-15
1.96013e-15
8.6364e-16
7.26064e-16
7.7576e-16
1.39701e-15
9.43539e-15
2.67103e-14
2.67199e-14
8.56795e-14
7.45476e-13
1.90154e-12
2.06561e-12
1.71232e-12
1.51882e-12
1.30289e-12
1.02157e-12
7.35899e-13
4.65041e-13
2.54083e-13
1.47894e-13
8.80197e-14
5.83096e-14
3.59056e-14
2.11896e-14
1.08908e-14
7.16587e-15
6.98702e-15
9.19495e-15
2.6278e-14
8.99253e-14
1.67933e-13
5.63664e-13
3.38264e-12
5.70958e-12
5.2692e-12
4.41373e-12
3.79835e-12
3.40381e-12
2.93299e-12
2.32122e-12
1.59626e-12
9.85825e-13
6.04131e-13
3.83712e-13
2.42398e-13
1.81693e-13
1.25275e-13
7.02975e-14
4.06906e-14
2.95459e-14
3.18382e-14
7.97977e-14
3.19991e-13
9.15876e-13
1.99435e-12
1.4379e-11
2.33685e-11
2.60919e-11
2.37911e-11
1.84913e-11
1.33494e-11
1.00505e-11
7.35302e-12
5.11086e-12
3.28816e-12
2.14179e-12
1.44031e-12
8.70026e-13
6.34121e-13
4.75444e-13
3.65482e-13
1.83654e-13
1.24846e-13
1.23055e-13
2.23687e-13
5.2069e-13
1.59222e-12
2.08602e-12
1.21197e-10
1.37325e-10
1.40045e-10
1.29678e-10
1.08035e-10
8.09084e-11
5.69226e-11
4.08111e-11
2.88685e-11
2.01097e-11
1.35984e-11
8.94168e-12
5.66625e-12
4.49197e-12
4.44212e-12
3.52166e-12
1.38468e-12
5.74461e-13
7.42721e-12
1.41371e-12
4.36527e-12
1.07278e-12
1.68807e-12
5.52248e-10
4.31338e-10
3.62305e-10
3.30036e-10
3.21048e-10
3.45473e-10
3.64366e-10
3.33929e-10
2.85336e-10
2.21346e-10
1.34904e-10
7.36001e-11
4.35671e-11
2.50382e-11
2.36184e-11
2.39596e-11
4.11204e-11
6.17777e-10
1.83613e-09
9.46512e-10
2.37441e-10
1.10582e-12
3.2512e-13
1.42298e-09
8.69882e-10
5.85796e-10
4.86003e-10
4.96405e-10
6.68898e-10
9.72845e-10
9.93874e-10
9.18497e-10
7.61877e-10
6.05838e-10
4.27967e-10
2.6231e-10
1.46323e-10
9.68506e-11
6.96525e-11
1.1619e-10
1.77633e-09
2.76701e-09
1.25988e-08
2.44784e-10
2.52779e-07
5.60288e-08
2.62777e-09
1.62689e-09
8.8443e-10
6.72115e-10
7.11706e-10
1.17127e-09
2.09162e-09
2.22377e-09
2.02408e-09
1.6214e-09
1.3103e-09
9.82648e-10
6.49361e-10
4.05375e-10
2.93177e-10
2.37502e-10
3.19504e-10
1.09503e-09
8.942e-11
4.97097e-07
4.59843e-06
2.15561e-05
5.75079e-06
0.000495655
0.0250723
0.0402976
0.0691813
0.0767487
0.0765493
0.0642703
0.0477851
0.048351
0.0969714
0.188067
0.125302
0.0914558
0.0212417
0.015225
0.0149364
0.0148184
0.0183013
0.015042
0.000477539
7.14946e-06
5.84671e-06
0.00104362
0.0126074
0.0206491
0.023499
0.0235269
0.0378437
0.0913394
0.209627
0.326246
0.314252
0.220582
0.149078
0.116111
0.107179
0.0881643
0.0192291
0.000348075
0.00572504
0.00337601
0.000149064
1.53976e-05
9.11343e-06
0.111813
0.274877
0.435501
0.32052
0.33269
0.417577
0.496662
0.496673
0.490879
0.409241
0.385954
0.280751
0.0810605
0.000347575
0.016152
0.017936
0.00818111
0.000103711
5.52853e-07
0.0911442
0.545479
0.552271
0.552688
0.548698
0.519197
0.383285
0.176246
0.150306
0.25399
0.256114
0.190047
0.0959634
0.0200948
0.0122358
0.0152661
0.0164491
0.0033119
1.26813e-20
0.0112713
0.266838
0.520792
0.526495
0.551624
0.547403
0.288619
0.00295755
0.000587836
0.000579841
0.000582873
0.000581446
0.0349031
0.0379197
0.0293025
0.0103439
0.0104374
0.0056335
0.000142586
2.89675e-05
0.00138263
0.0953616
0.101863
0.136375
0.1872
0.0934487
0.013827
0.0042204
0.000959394
0.00173526
0.0195485
0.10174
0.0270507
0.0791433
0.0580883
0.027398
0.0144552
0.000802339
5.15383e-06
1.78374e-05
6.26578e-08
9.62146e-11
-3.24418e-20
2.32697e-19
-4.28353e-20
-4.16474e-10
2.60632e-19
-1.07925e-16
0.0015439
0.0578398
0.11827
0.00242644
0.0589519
0.179128
0.124785
0.0935578
0.0220157
1.21608e-05
9.66031e-07
6.52051e-25
-1.13516e-11
-1.60919e-11
-8.51443e-12
-1.74287e-12
7.0178e-06
8.44317e-06
9.85483e-09
-6.71878e-09
0.0454252
0.117171
3.53681e-09
2.75868e-09
1.02858e-09
1.59517e-09
1.60681e-09
2.15851e-09
4.17728e-09
4.52837e-09
4.25002e-09
3.91033e-09
3.46367e-09
2.81947e-09
1.978e-09
1.25265e-09
8.07454e-10
5.16424e-10
5.35513e-10
4.84464e-10
8.2505e-11
8.95463e-11
3.05752e-05
3.48573e-05
1.16452e-05
5.56447e-09
2.25826e-08
1.57678e-08
8.76804e-09
2.51116e-09
6.21647e-09
1.1093e-08
1.3662e-08
1.35806e-08
1.45374e-08
1.55056e-08
1.58128e-08
1.45795e-08
1.16241e-08
1.00773e-08
7.74044e-09
8.39034e-10
4.65974e-10
2.67955e-09
6.34762e-09
1.0971e-06
1.17238e-05
3.88138e-05
3.53982e-08
0.0010125
0.00207264
0.000773941
4.77828e-06
2.69103e-08
1.21344e-08
1.37235e-08
1.40466e-08
1.40047e-08
1.58629e-08
1.64029e-08
1.86621e-08
1.88584e-08
2.31612e-08
2.77925e-08
4.7695e-08
7.47471e-08
6.70304e-08
9.59988e-08
1.36554e-07
0.000858284
0.00189116
0.075916
0.056357
0.0260392
0.00829098
0.0111172
0.0258461
0.0496158
0.0664423
0.0626288
0.0584636
0.0674226
0.0820979
0.0817456
0.0663322
0.042259
0.0395679
0.0468398
0.0596818
0.0638833
0.0624606
0.0666599
0.0921681
0.0974342
0.279577
0.0773142
0.0131379
0.00843613
0.0294014
0.152769
0.206738
0.206772
0.205919
0.216956
0.217713
0.217709
0.217857
0.2177
0.195979
0.192369
0.23423
0.236093
0.22831
0.186296
0.145714
0.135942
0.129419
0.275794
0.0228581
0.0180748
0.0180822
0.021455
0.0978368
0.110582
0.0656452
0.0461899
0.0653674
0.0846523
0.0876159
0.0784241
0.0604206
0.062229
0.0774417
0.0696504
0.0507551
0.0088884
0.000164917
1.48363e-07
3.84999e-08
1.67972e-14
0.204499
0.0674794
0.0915916
0.0644001
0.0464677
0.0311185
0.020759
0.0130198
0.00777159
0.00451856
0.00244109
0.00107809
0.000156459
6.80627e-08
6.97958e-08
3.87582e-08
2.01136e-08
3.9463e-08
4.60348e-08
4.50008e-08
1.52102e-08
7.42192e-09
-2.36186e-11
0.443841
0.631471
0.720359
0.741306
0.702456
0.653475
0.615287
0.585351
0.550036
0.509864
0.470153
0.433101
0.401385
0.373405
0.34775
0.32285
0.308017
0.306454
0.32214
0.349132
0.377539
0.408227
0.451439
0.839942
0.886533
0.993816
0.999992
1
1
1
1
1
1
1
1
1
1
1
1
1
1
1
1
1
1
1
0.999999
0.977445
0.987171
0.99997
0.999996
1
1
1
1
1
1
0.999999
1
1
1
1
1
1
1
1
1
1
1
0.999999
0.999998
0.994302
0.999525
0.999998
1
1
1
0.999999
0.999999
0.999947
0.999991
0.999999
1
1
1
1
1
1
1
1
1
1
0.999999
0.999988
0.999741
0.999879
0.999999
1
1
1
0.999999
0.999908
0.999825
0.999872
0.999987
0.999999
0.999999
0.999999
0.999999
0.999999
0.999999
0.999999
0.999999
0.999999
1
0.999999
0.999999
0.999999
0.999999
1
1
1
1
0.999999
0.999828
0.999825
0.999825
0.99995
0.999998
0.999998
0.999997
0.999997
0.999999
0.999999
1
1
1
1
0.999999
0.999998
0.999999
1
1
1
1
1
0.999998
0.999895
0.999828
0.999826
0.999948
0.999997
0.999997
0.999997
0.999997
1
1
1
1
1
1
1
0.999999
1
1
1
1
1
1
0.999997
1
0.999925
0.999886
0.999981
0.999997
0.999997
0.999998
1
1
1
1
1
1
1
1
1
1
1
1
1
1
1
1
1
1
1
0.999998
0.999998
0.999999
1
1
1
1
1
1
1
1
1
1
1
1
1
1
1
1
1
1
1
1
1
0.999997
0.999999
1
1
1
1
1
1
1
1
1
1
1
1
1
1
1
1
1
1
1
1
0.999999
0.999997
1
1
1
1
1
1
1
1
1
1
1
1
1
1
1
1
1
1
1
1
1
1
1
1
1
1
1
1
1
1
1
1
1
1
1
1
1
1
1
1
1
1
1
1
1
1
1
1
1
1
1
1
1
1
1
1
1
1
1
1
1
1
1
1
1
1
1
1
1
1
1
1
1
1
1
1
1
1
1
1
1
1
1
1
1
1
1
1
1
1
1
1
1
1
1
1
1
1
1
1
1
1
1
1
1
1
1
1
1
1
1
1
1
1
1
1
1
1
1
1
1
1
1
1
1
1
1
1
1
1
1
1
1
1
1
1
1
1
1
1
1
1
1
1
1
1
1
1
1
1
1
1
1
1
1
1
1
1
1
1
1
1
1
1
1
1
1
1
1
1
1
1
1
1
1
1
1
1
1
1
1
1
1
1
1
1
1
1
1
1
1
1
1
1
1
1
1
1
1
1
1
1
1
1
1
1
1
1
1
1
1
1
1
1
1
1
1
1
1
1
1
1
1
1
1
1
1
1
1
1
1
1
1
1
1
1
1
1
1
1
1
1
1
1
1
1
1
1
1
1
1
1
1
1
1
1
1
1
1
1
1
1
1
1
1
1
1
1
1
1
1
1
1
1
1
1
1
1
1
1
1
1
1
1
1
1
1
1
1
1
1
1
1
1
1
1
1
1
1
1
1
1
1
1
1
1
1
1
1
1
1
1
1
1
1
1
1
1
1
1
1
1
1
1
1
1
1
1
1
1
1
1
1
1
1
1
1
1
1
1
1
1
1
1
1
1
1
1
1
1
1
1
1
1
1
1
1
1
1
1
1
1
1
1
1
1
1
1
1
1
1
1
1
1
1
1
1
1
1
1
1
1
1
1
1
1
1
1
1
1
1
1
1
1
1
1
1
1
1
1
1
1
1
1
1
1
1
1
1
1
1
1
1
1
1
1
1
1
1
1
1
1
1
1
1
1
1
1
1
1
1
1
1
1
1
1
1
1
1
1
1
1
1
1
1
1
1
1
1
1
1
1
1
1
1
1
1
1
1
1
1
1
1
1
1
1
1
1
1
1
1
1
1
1
1
1
1
1
1
1
1
1
1
1
1
1
1
1
1
1
1
1
1
1
1
1
1
1
1
1
1
1
1
1
1
1
1
1
1
1
1
1
1
1
1
1
1
1
1
1
1
1
1
1
1
1
1
1
1
1
1
1
1
1
1
1
1
1
1
1
1
1
1
1
1
1
1
1
1
1
1
1
1
1
1
1
1
1
1
1
1
1.22179e-05
0.000117268
0.00600077
0.00496163
0.000142858
0.00297778
0.013278
0.0210433
0.00123385
0.00962518
0.0895741
0.154925
0.097972
0.18641
0.218644
0.222462
0.152459
0.183315
0.1505
0.0211604
-7.755e-25
2.25389e-31
3.14598e-33
2.75133e-35
3.23398e-18
-1.20442e-19
1.14094e-18
1.27563e-18
0.469228
0.46819
0.456433
0.438973
1
1
1
1
1
1
1
1
1
1
1
1
1
1
1
1
1
1
1
1
1
1
1
1
1
1
1
1
1
1
1
1
1
1
1
1
1
1
1
1
1
1
1
1
1
1
1
1
1
1
1
1
1
1
1
1
1
1
1
1
1
1
1
1
1
1
1
1
1
1
1
1
1
1
1
1
1
1
1
1
1
1
1
1
1
1
1
1
1
1
1
1
1
1
1
1
1
1
1
1
1
1
1
1
1
1
1
1
1
1
1
1
1
1
1
1
1
1
1
1
1
1
1
1
1
1
1
1
1
1
1
1
1
1
1
1
0.00271375
0.0503333
0.185036
0.195187
0.117349
0.0994976
0.0136371
5.15873e-05
2.7816e-05
1.21666e-05
2.77181e-05
6.79114e-05
0.000136568
0.000132173
0.000114899
3.68414e-05
2.33357e-05
0.00312053
0.0250973
0.0170156
0.0835349
0.211101
0.145703
0.0548061
0.125821
0.138449
0.0321835
0.000114853
9.29226e-05
0.0027613
0.00323355
0.000355082
4.52849e-05
1.56596e-05
0.000606364
0.000660003
-5.73975e-06
0.0117338
0.114727
0.189407
0.206985
0.0778648
0.000146426
0.0226507
0.171262
0.17673
0.143147
0.0888669
0.0228776
5.48249e-06
0.000106594
7.21521e-05
2.01273e-05
0.000477325
0.000681867
8.5738e-07
0.00596526
0.131124
0.0964407
0.0644617
0.00455248
2.38689e-06
1.68411e-05
0.0052762
0.155709
0.173397
0.166494
0.0178206
-3.1615e-06
8.09285e-05
0.000130604
4.44205e-05
0.000102518
0.00025927
6.87128e-07
0.01503
0.000210218
3.78894e-08
4.78303e-15
3.49125e-14
2.03091e-06
2.19624e-06
1.30575e-06
0.00828602
0.0579301
0.0559759
0.00940112
3.17209e-05
2.71672e-05
0.000135259
5.41622e-05
9.08664e-07
5.35005e-07
3.70504e-07
0.0299793
-4.64428e-19
-1.24528e-19
-1.26722e-19
1.03416e-08
2.02468e-06
2.97283e-06
1.63029e-06
7.19885e-08
3.45501e-18
7.67916e-11
0.000551259
0.000116384
1.15516e-06
3.53623e-05
2.85226e-05
2.21645e-06
7.26527e-07
2.45725e-08
0.030972
-1.32397e-18
1.09795e-19
-5.09022e-19
-1.10945e-10
-1.76523e-12
5.26642e-09
4.08337e-10
3.17127e-18
6.90543e-11
-2.36337e-26
2.92565e-09
1.32212e-05
1.87203e-06
8.88952e-07
1.17333e-06
1.33997e-06
3.08921e-07
2.74125e-08
0.0315226
0.449138
0.43245
0.393113
0.350135
0.303283
0.242148
0.179061
0.110528
0.0209942
1.06276e-06
3.3521e-07
7.2318e-07
8.2971e-07
8.95348e-07
1.02348e-06
7.61318e-07
1.49102e-07
2.47239e-08
0.015279
1
1
1
1
0.98645
0.955277
0.903576
0.834769
0.733311
0.522921
0.263754
0.071807
9.57354e-07
9.53171e-07
1.01652e-06
1.67341e-07
6.54954e-08
1.10424e-07
0.0026302
1
1
1
1
1
1
1
1
1
0.998174
0.942112
0.80808
0.585888
0.28293
0.0501796
5.32965e-07
7.91954e-07
6.07779e-07
0.000662039
1
1
1
1
1
1
1
1
1
0.999999
0.999999
0.999999
0.999998
0.963405
0.785429
0.38976
0.0250362
-4.86384e-11
1.8172e-07
1
1
1
1
0.999999
0.999999
1
0.999987
0.999545
0.999878
0.999977
0.999998
0.999998
0.999995
0.999995
0.991115
0.732982
0.185304
0.0767612
1
1
1
0.999999
0.999999
0.999999
0.99985
0.99899
0.998971
0.998974
0.999999
0.999998
0.999997
0.999831
0.999991
0.999987
0.999983
0.941249
0.846685
1
1
1
1
1
0.999999
0.999831
0.999176
0.999001
0.99951
1
0.999957
0.998677
0.997649
0.997806
0.998694
0.999783
0.999565
0.99089
1
1
1
1
0.999999
0.999998
0.999989
0.999956
0.999903
0.999999
1
0.999901
0.998449
0.997821
0.998219
0.998615
0.999223
0.999988
1
1
1
1
1
1
1
1
1
1
1
0.999992
0.999938
0.999822
0.999748
0.999926
0.99995
0.9998
0.999994
1
1
1
1
1
1
1
1
1
1
0.999999
0.999997
1
1
1
1
1
1
1
1
1
1
1
1
1
1
1
1
1
1
1
1
1
1
1
1
1
1
0.999999
1
1
1
1
1
1
1
1
1
1
1
1
1
1
1
1
1
0.999999
0.999999
1
1
1
1
1
1
1
1
1
1
1
1
1
1
1
1
1
0.999999
0.999999
1
1
1
1
1
1
1
1
1
1
1
1
1
1
1
1
1
1
1
1
1
1
1
1
1
1
1
1
1
1
1
1
1
1
1
1
1
1
1
1
1
1
1
1
1
1
1
1
1
1
1
1
1
1
1
1
1
1
1
1
1
1
1
1
1
1
1
1
1
1
1
1
1
1
1
1
1
1
1
1
1
1
1
1
1
1
1
1
1
1
1
1
1
1
1
1
1
1
1
1
1
1
1
1
1
1
1
1
1
1
1
1
1
1
1
1
1
1
1
1
1
1
1
1
1
1
1
1
1
1
1
1
1
1
1
1
1
1
1
1
1
1
1
1
1
1
1
1
1
1
1
1
1
1
1
1
1
1
1
1
1
1
1
1
1
1
1
1
1
1
1
1
1
1
1
1
1
1
1
1
1
1
1
1
1
1
1
1
1
1
1
1
1
1
1
1
1
1
1
1
1
1
1
1
1
1
1
1
1
1
1
1
1
1
1
1
1
1
1
1
1
1
1
1
1
1
1
1
1
1
1
1
1
1
1
1
1
1
1
1
1
1
1
1
1
1
1
1
1
1
1
1
1
1
1
1
1
1
1
1
1
1
1
1
1
1
1
1
1
1
1
1
1
1
1
1
1
1
1
1
1
1
1
1
1
1
1
1
1
1
1
1
1
1
1
1
1
1
1
1
1
1
1
1
1
1
1
1
1
1
1
1
1
1
1
1
1
1
1
1
1
1
1
1
1
1
1
1
1
1
1
1
1
1
1
1
1
1
1
1
1
1
1
1
1
1
1
1
1
1
1
1
1
1
1
1
1
1
1
1
1
1
1
1
1
1
1
1
1
1
1
1
1
1
1
1
1
1
1
1
1
1
1
1
1
1
1
1
1
1
1
1
1
1
1
1
1
1
1
1
1
1
1
1
1
1
1
1
1
1
1
1
1
1
1
1
1
1
)
;

boundaryField
{
    leftWall
    {
        type            alphaContactAngle;
        contactAngleProperties 
        {
            mercury         
            {
                theta0          90;
            }
            water           
            {
                theta0          90;
            }
            oil             
            {
                theta0          90;
            }
        }
        value           nonuniform List<scalar> 
50
(
1.40524e-13
7.45476e-13
3.38264e-12
1.4379e-11
1.21197e-10
5.52248e-10
1.42298e-09
2.62777e-09
3.53681e-09
5.56447e-09
3.53982e-08
0.075916
0.279577
0.275794
0.204499
0.443841
0.839942
0.999999
0.999999
0.999999
0.999999
0.999999
1
1
1
1
1
1
1
1
1
1
1
1
1
1
1
1
1
1
1
1
1
1
1
1
1
1
1
1
)
;
    }
    rightWall
    {
        type            alphaContactAngle;
        contactAngleProperties 
        {
            mercury         
            {
                theta0          90;
            }
            water           
            {
                theta0          90;
            }
            oil             
            {
                theta0          90;
            }
        }
        value           nonuniform List<scalar> 
50
(
0.015042
0.0192291
0.0810605
0.0959634
0.0349031
0.10174
0.11827
0.117171
0.0250973
0.0117338
0.00596526
0.01503
0.0299793
0.030972
0.0315226
0.015279
0.0026302
0.000662039
1.8172e-07
0.0767612
0.846685
0.99089
1
1
1
0.999999
0.999999
0.999999
1
1
1
1
1
1
1
1
1
1
1
1
1
1
1
1
1
1
1
1
1
1
)
;
    }
    lowerWall
    {
        type            alphaContactAngle;
        contactAngleProperties 
        {
            mercury         
            {
                theta0          90;
            }
            water           
            {
                theta0          90;
            }
            oil             
            {
                theta0          90;
            }
        }
        value           nonuniform List<scalar> 
62
(
1.40524e-13
2.21654e-13
3.45142e-13
2.83071e-13
2.37426e-13
1.89393e-13
1.35626e-13
8.90083e-14
5.22793e-14
2.7889e-14
1.66043e-14
1.03693e-14
6.549e-15
3.86627e-15
1.96013e-15
8.6364e-16
7.26064e-16
7.7576e-16
1.39701e-15
9.43539e-15
2.67103e-14
2.67199e-14
8.56795e-14
8.56795e-14
5.63664e-13
1.99435e-12
2.08602e-12
1.68807e-12
3.2512e-13
5.60288e-08
5.75079e-06
1.22179e-05
0.000117268
0.00600077
0.00496163
0.000495655
0.000477539
0.000348075
0.000347575
0.0200948
0.0379197
0.0270507
0.00242644
0.000495655
0.0250723
0.0402976
0.0691813
0.0767487
0.0765493
0.0642703
0.0477851
0.048351
0.0969714
0.188067
0.125302
0.0914558
0.0212417
0.015225
0.0149364
0.0148184
0.0183013
0.015042
)
;
    }
    atmosphere
    {
        type            inletOutlet;
        inletValue      uniform 1;
        value           nonuniform List<scalar> 
46
(
1
1
1
1
1
1
1
1
1
1
1
1
1
1
1
1
1
1
1
1
1
1
1
1
1
1
1
1
1
1
1
1
1
1
1
1
1
1
1
1
1
1
1
1
1
1
)
;
    }
    defaultFaces
    {
        type            empty;
    }
}


// ************************************************************************* //
