/*--------------------------------*- C++ -*----------------------------------*\
  =========                 |
  \\      /  F ield         | OpenFOAM: The Open Source CFD Toolbox
   \\    /   O peration     | Website:  https://openfoam.org
    \\  /    A nd           | Version:  13
     \\/     M anipulation  |
\*---------------------------------------------------------------------------*/
FoamFile
{
    format      ascii;
    class       volScalarField;
    location    "1.6";
    object      alphas;
}
// * * * * * * * * * * * * * * * * * * * * * * * * * * * * * * * * * * * * * //

dimensions      [];

internalField   nonuniform List<scalar> 
2268
(
2
2
2
2
2
2
2
2
2
2
2
2
2
2
2
2
2
2
2
2
1.99994
1.99945
1.99943
2
2
2
2
2
2
2
2
2
2
2
2
2
2
2
2
2
2
2
2
2
1.99981
1.99943
2
2
2
2
2
2
2
2
2
2
2
2
2
2
2
2
2
2
2
2
2
2
1.99992
2
2
2
2
2
2
2
2
2
2
2
2
2
2
2
2
2
2
2
2
2
2
2
1.62476
1.61296
1.63029
1.68725
1.75816
1.8261
1.88666
1.93946
1.98215
2
2
2
2
2
2
2
2
2
2
2
2
2
2
0.0803598
0.120457
0.154475
0.20401
0.272283
0.358341
0.465659
0.603102
0.784008
1.02866
1.33479
1.62592
1.84616
1.98127
2
2
2
2
2
2
2
2
2
6.69279e-09
4.31654e-09
3.12868e-09
2.59703e-09
2.4271e-09
8.0666e-09
4.22182e-08
5.63202e-08
8.00385e-08
0.00602004
0.0246946
0.118574
0.351911
0.736562
1.297
1.81648
2
2
2
2
2
2
2
1.67895e-08
1.28937e-08
9.65278e-09
8.20505e-09
7.76669e-09
8.49485e-09
9.9204e-09
9.56345e-09
9.0248e-09
7.14367e-08
9.58503e-08
1.1801e-07
1.33381e-07
1.2628e-07
0.0229144
0.198319
0.751301
1.48463
1.93374
1.9661
1.97534
1.98123
1.99257
1.85645
1.8942
1.911
1.95763
1.73905
1.70381
1.68507
1.66989
1.67167
1.77323
1.98232
1.83282
1.76611
1.62463
1.6497
1.71477
1.71459
1.72032
1.71362
1.85588
1.83704
1.69881
1.72728
1.79691
1.87284
1.86488
1.86341
1.89199
1.91866
2.00708
2.21953
2.16479
1.92972
1.75727
1.75876
1.81252
1.78666
1.55968
1.82736
1.73413
1.22065
1.04778
1.32141
1.59864
1.95028
2.24486
2.38772
2.07019
2.06908
2.15502
2.25768
2.20983
2.21497
2.0014
1.91006
1.76611
1.51784
1.21649
1.35138
1.40433
0.672215
0.368766
0.452651
0.785116
2.17583
2.36434
2.31614
2.29273
2.24181
1.79894
1.0869
0.985616
1.16649
1.13418
1.12893
1.10918
1.01603
1.11177
1.18729
0.618975
0.120408
0.00100718
0.0340079
0.804247
1.7558
1.92344
2.05451
1.96184
1.14681
0.247002
0.224724
0.271622
0.29816
0.382805
0.718993
0.746071
1.06733
1.09091
0.853115
0.145037
0.000593345
0.000245896
0.0043021
0.33287
0.439767
0.63341
0.766048
0.457363
0.125918
0.0895798
0.135194
0.144922
0.293152
0.797608
0.101085
0.568866
1.12907
1.17532
0.513236
0.0206573
0.000188562
0.00023023
0.00103081
0.00198961
0.0231082
0.0585036
0.0515011
0.00447301
0.0232046
0.433211
0.490709
0.54344
0.871316
0.123495
0.193386
0.998261
1.31553
1.10569
0.219014
0.00126364
0.000187333
0.000529494
0.000598035
0.000330969
0.00013991
0.000121789
0.000262208
0.000600609
0.507402
0.971929
0.778613
1.12938
2.24438e-08
1.96373e-08
1.42936e-08
1.57267e-08
1.56228e-08
1.63442e-08
1.95973e-08
1.86232e-08
1.62953e-08
1.48734e-08
1.34613e-08
1.20489e-08
9.96383e-09
7.64737e-09
9.01846e-08
9.43905e-08
0.00100681
0.057328
0.253476
0.547863
0.792636
0.913024
0.999257
2.57904e-08
7.61488e-08
5.69177e-08
3.70295e-08
2.08508e-08
3.27198e-08
4.36935e-08
4.82078e-08
4.61679e-08
4.7208e-08
4.84183e-08
4.87202e-08
4.50787e-08
3.69997e-08
3.48793e-08
2.97649e-08
8.50658e-08
1.42632e-07
8.14603e-08
2.87057e-07
3.41818e-06
3.52508e-05
0.000126656
1.10138e-07
0.00303752
0.00621793
0.00232183
1.43379e-05
8.41916e-08
4.00821e-08
4.40474e-08
4.4321e-08
4.36187e-08
4.8909e-08
5.02749e-08
5.72524e-08
5.81815e-08
7.12384e-08
8.498e-08
1.45971e-07
2.36449e-07
2.19935e-07
3.21655e-07
4.34752e-07
0.00257486
0.00567309
0.227984
0.247602
0.206939
0.160121
0.138537
0.128434
0.164511
0.206668
0.196887
0.183299
0.209142
0.252374
0.250257
0.202615
0.130098
0.12117
0.141709
0.180822
0.198924
0.206192
0.237853
0.348837
0.441993
1.08166
1.00524
0.927164
0.908177
0.906415
1.08688
1.15082
1.13824
1.15119
1.16939
1.17049
1.16652
1.15889
1.14622
1.07942
1.0502
1.1452
1.17552
1.20176
1.15451
1.1151
1.15666
1.22467
1.47404
1.04572
1.03615
1.03616
1.04291
1.19567
1.22116
1.13129
1.09238
1.13073
1.1693
1.17523
1.15685
1.12084
1.12446
1.15488
1.1393
1.10151
1.01778
1.00033
1
1
1
1.37339
1.13496
1.18318
1.1288
1.09294
1.06224
1.04152
1.02604
1.01554
1.00904
1.00488
1.00216
1.00031
1
1
1
1
1
1
1
1
1
1
1.88746
2.2629
2.44069
2.48261
2.40491
2.30695
2.23057
2.1707
2.10007
2.01973
1.94031
1.8662
1.80277
1.74681
1.6955
1.6457
1.61603
1.61291
1.64428
1.69826
1.75508
1.81645
1.90288
2.67988
2.77306
2.9876
2.99998
3
3
3
3
3
3
3
3
3
3
3
3
3
3
3
3
3
3
3
3
2.95489
2.97433
2.99993
2.99999
3
3
3
3
3
3
3
3
3
3
3
3
3
3
3
3
3
3
3
3
2.9886
2.99904
3
3
3
3
3
3
2.99989
2.99998
3
3
3
3
3
3
3
3
3
3
3
3
2.99998
2.99948
2.99976
3
3
3
3
3
2.99982
2.99965
2.99974
2.99997
3
3
3
3
3
3
3
3
3
3
3
3
3
3
3
3
3
3
3
2.99966
2.99965
2.99965
2.9999
2.99999
2.99999
2.99999
2.99999
3
3
3
3
3
3
3
3
3
3
3
3
3
3
3
2.99979
2.99965
2.99965
2.99989
2.99999
2.99999
2.99999
2.99999
3
3
3
3
3
3
3
3
3
3
3
3
3
3
2.99999
3
2.99985
2.99977
2.99996
2.99999
2.99999
2.99999
3
3
3
3
3
3
3
3
3
3
3
3
3
3
3
3
3
3
3
3
2.99999
3
3
3
3
3
3
3
3
3
3
3
3
3
3
3
3
3
3
3
3
3
3
2.99999
3
3
3
3
3
3
3
3
3
3
3
3
3
3
3
3
3
3
3
3
3
3
2.99999
3
3
3
3
3
3
3
3
3
3
3
3
3
3
3
3
3
3
3
3
3
3
3
3
3
3
3
3
3
3
3
3
3
3
3
3
3
3
3
3
3
3
3
3
3
3
3
3
3
3
3
3
3
3
3
3
3
3
3
3
3
3
3
3
3
3
3
3
3
3
3
3
3
3
3
3
3
3
3
3
3
3
3
3
3
3
3
3
3
3
3
3
3
3
3
3
3
3
3
3
3
3
3
3
3
3
3
3
3
3
3
3
3
3
3
3
3
3
3
3
3
3
3
3
3
3
3
3
3
3
3
3
3
3
3
3
3
3
3
3
3
3
3
3
3
3
3
3
3
3
3
3
3
3
3
3
3
3
3
3
3
3
3
3
3
3
3
3
3
3
3
3
3
3
3
3
3
3
3
3
3
3
3
3
3
3
3
3
3
3
3
3
3
3
3
3
3
3
3
3
3
3
3
3
3
3
3
3
3
3
3
3
3
3
3
3
3
3
3
3
3
3
3
3
3
3
3
3
3
3
3
3
3
3
3
3
3
3
3
3
3
3
3
3
3
3
3
3
3
3
3
3
3
3
3
3
3
3
3
3
3
3
3
3
3
3
3
3
3
3
3
3
3
3
3
3
3
3
3
3
3
3
3
3
3
3
3
3
3
3
3
3
3
3
3
3
3
3
3
3
3
3
3
3
3
3
3
3
3
3
3
3
3
3
3
3
3
3
3
3
3
3
3
3
3
3
3
3
3
3
3
3
3
3
3
3
3
3
3
3
3
3
3
3
3
3
3
3
3
3
3
3
3
3
3
3
3
3
3
3
3
3
3
3
3
3
3
3
3
3
3
3
3
3
3
3
3
3
3
3
3
3
3
3
3
3
3
3
3
3
3
3
3
3
3
3
3
3
3
3
3
3
3
3
3
3
3
3
3
3
3
3
3
3
3
3
3
3
3
3
3
3
3
3
3
3
3
3
3
3
3
3
3
3
3
3
3
3
3
3
3
3
3
3
3
3
3
3
3
3
3
3
3
3
3
3
3
3
3
3
3
3
3
3
3
3
3
3
3
3
3
3
3
3
3
3
3
3
3
3
3
3
3
3
3
3
3
3
3
3
3
3
3
3
3
3
3
3
3
3
3
3
3
3
3
3
3
3
3
3
3
3
3
3
3
3
3
3
3
3
3
3
3
3
3
3
3
3
3
3
3
3
3
3
3
3
3
3
3
3
3
3
3
3
3
3
3
3
3
3
3
3
3
3
3
3
3
3
3
3
3
0.970261
0.950656
1.14346
1.16055
0.000437626
0.00893762
0.0399892
0.0664346
0.00370122
0.028888
0.271427
0.561513
0.524433
0.800042
0.992951
1.33786
1.30492
1.36663
1.301
1.04232
1
1
1
1
1
1
1
1
1.93846
1.93638
1.91287
1.87795
3
3
3
3
3
3
3
3
3
3
3
3
3
3
3
3
3
3
3
3
3
3
3
3
3
3
3
3
3
3
3
3
3
3
3
3
3
3
3
3
3
3
3
3
3
3
3
3
3
3
3
3
3
3
3
3
3
3
3
3
3
3
3
3
3
3
3
3
3
3
3
3
3
3
3
3
3
3
3
3
3
3
3
3
3
3
3
3
3
3
3
3
3
3
3
3
3
3
3
3
3
3
3
3
3
3
3
3
3
3
3
3
3
3
3
3
3
3
3
3
3
3
3
3
3
3
3
3
3
3
3
3
3
3
3
3
0.392704
0.217549
0.667589
1.38436
1.33554
0.76442
0.0610815
0.000239342
0.000213716
0.000198349
0.000220098
0.000258239
0.000434431
0.000429795
0.0490415
0.714988
0.999433
0.99608
1.02281
0.0546941
0.255422
0.707139
1.19409
1.12663
1.28224
0.646051
0.0968079
0.000351361
0.000286209
0.00829508
0.00970606
0.197679
0.532938
0.819709
0.989981
1.00176
0.999977
1.00032
0.483587
0.709485
1.13938
1.15672
1.00031
1.04619
1.26802
0.665016
0.429512
0.266603
0.316528
0.768239
0.962474
0.999322
1.00002
1.00108
1.00151
1
1.00024
1.23309
1.17619
1.12967
1.00971
0.999971
0.999974
1.01065
1.25684
1.11293
1.1072
0.985311
0.999796
1.00016
1.00026
1.00009
1.00021
1.00052
1
1.02409
1.00042
1
0.999997
0.999989
0.999925
0.999913
0.999938
1.01658
1.11616
1.11228
1.01887
1.00006
1.00005
1.00027
1.00011
1
1
1
1.05924
1
1
1
1
1
1
0.999969
0.999964
0.999973
0.999996
1.00112
1.00024
1
1.00007
1.00006
1
1
1
1.06172
1
1
1
1
1
1
1
0.999996
0.999995
0.999998
1
1.00003
1
1
1
1
1
1
1.06317
1.89828
1.8649
1.78623
1.70027
1.60657
1.4843
1.35812
1.22106
1.04199
1
1
1
1
1
1
1
1
1
1.03056
3
3
3
3
2.9729
2.91055
2.80715
2.66954
2.46662
2.04584
1.52751
1.14361
1
1
1
1
1
1
1.00569
3
3
3
3
3
3
3
3
3
2.99635
2.88422
2.61616
2.17178
1.56586
1.10036
1
1
0.999993
0.993868
3
3
3
3
3
3
3
3
3
3
3
3
3
2.92681
2.57086
1.77952
1.05004
0.999199
0.985005
3
3
3
3
3
3
3
2.99997
2.99909
2.99976
2.99995
3
3
2.99999
2.99999
2.98223
2.46596
1.36828
1.1385
3
3
3
3
3
3
2.9997
2.99798
2.99794
2.99795
3
3
2.99999
2.99966
2.99998
2.99998
2.99998
2.8807
2.67722
3
3
3
3
3
3
2.99966
2.99835
2.998
2.99902
3
2.99991
2.99736
2.9953
2.99562
2.9974
2.99962
2.99902
2.97297
3
3
3
3
3
3
2.99998
2.99991
2.99981
3
3
2.9998
2.9969
2.99565
2.99644
2.99724
2.99847
2.99998
3
3
3
3
3
3
3
3
3
3
3
2.99999
2.99988
2.99964
2.9995
2.99985
2.9999
2.9996
2.99999
3
3
3
3
3
3
3
3
3
3
3
2.99999
3
3
3
3
3
3
3
3
3
3
3
3
3
3
3
3
3
3
3
3
3
3
3
3
3
3
3
3
3
3
3
3
3
3
3
3
3
3
3
3
3
3
3
3
3
3
3
3
3
3
3
3
3
3
3
3
3
3
3
3
3
3
3
3
3
3
3
3
3
3
3
3
3
3
3
3
3
3
3
3
3
3
3
3
3
3
3
3
3
3
3
3
3
3
3
3
3
3
3
3
3
3
3
3
3
3
3
3
3
3
3
3
3
3
3
3
3
3
3
3
3
3
3
3
3
3
3
3
3
3
3
3
3
3
3
3
3
3
3
3
3
3
3
3
3
3
3
3
3
3
3
3
3
3
3
3
3
3
3
3
3
3
3
3
3
3
3
3
3
3
3
3
3
3
3
3
3
3
3
3
3
3
3
3
3
3
3
3
3
3
3
3
3
3
3
3
3
3
3
3
3
3
3
3
3
3
3
3
3
3
3
3
3
3
3
3
3
3
3
3
3
3
3
3
3
3
3
3
3
3
3
3
3
3
3
3
3
3
3
3
3
3
3
3
3
3
3
3
3
3
3
3
3
3
3
3
3
3
3
3
3
3
3
3
3
3
3
3
3
3
3
3
3
3
3
3
3
3
3
3
3
3
3
3
3
3
3
3
3
3
3
3
3
3
3
3
3
3
3
3
3
3
3
3
3
3
3
3
3
3
3
3
3
3
3
3
3
3
3
3
3
3
3
3
3
3
3
3
3
3
3
3
3
3
3
3
3
3
3
3
3
3
3
3
3
3
3
3
3
3
3
3
3
3
3
3
3
3
3
3
3
3
3
3
3
3
3
3
3
3
3
3
3
3
3
3
3
3
3
3
3
3
3
3
3
3
3
3
3
3
3
3
3
3
3
3
3
3
3
3
3
3
3
3
3
3
3
3
3
3
3
3
3
3
3
3
3
3
3
3
3
3
3
3
3
3
3
3
3
3
3
3
3
3
3
3
3
3
3
3
3
3
3
3
3
3
3
3
3
3
3
3
3
3
3
3
3
3
3
3
3
3
3
3
3
3
3
3
3
3
3
3
3
3
3
3
3
3
3
3
3
3
3
)
;

boundaryField
{
    leftWall
    {
        type            calculated;
        value           nonuniform List<scalar> 
50
(
2
2
2
2
1.62476
0.0803598
6.69279e-09
1.67895e-08
2.24438e-08
2.57904e-08
1.10138e-07
0.227984
1.08166
1.47404
1.37339
1.88746
2.67988
3
3
3
3
3
3
3
3
3
3
3
3
3
3
3
3
3
3
3
3
3
3
3
3
3
3
3
3
3
3
3
3
3
)
;
    }
    rightWall
    {
        type            calculated;
        value           nonuniform List<scalar> 
50
(
1.71362
1.55968
1.51784
1.10918
0.718993
0.797608
0.871316
1.12938
1.02281
1.00032
1.00024
1.02409
1.05924
1.06172
1.06317
1.03056
1.00569
0.993868
0.985005
1.1385
2.67722
2.97297
3
3
3
3
3
3
3
3
3
3
3
3
3
3
3
3
3
3
3
3
3
3
3
3
3
3
3
3
)
;
    }
    lowerWall
    {
        type            calculated;
        value           nonuniform List<scalar> 
62
(
2
2
2
2
2
2
2
2
2
2
2
2
2
2
2
2
2
2
2
2
1.99994
1.99945
1.99943
1.99943
1.99943
1.99992
2
2
2
2
1.99257
0.970261
0.950656
1.14346
1.16055
1.85645
1.85588
1.82736
1.21649
1.01603
0.746071
0.101085
0.123495
1.85645
1.8942
1.911
1.95763
1.73905
1.70381
1.68507
1.66989
1.67167
1.77323
1.98232
1.83282
1.76611
1.62463
1.6497
1.71477
1.71459
1.72032
1.71362
)
;
    }
    atmosphere
    {
        type            calculated;
        value           nonuniform List<scalar> 
46
(
3
3
3
3
3
3
3
3
3
3
3
3
3
3
3
3
3
3
3
3
3
3
3
3
3
3
3
3
3
3
3
3
3
3
3
3
3
3
3
3
3
3
3
3
3
3
)
;
    }
    defaultFaces
    {
        type            empty;
    }
}


// ************************************************************************* //
