/*--------------------------------*- C++ -*----------------------------------*\
  =========                 |
  \\      /  F ield         | OpenFOAM: The Open Source CFD Toolbox
   \\    /   O peration     | Website:  https://openfoam.org
    \\  /    A nd           | Version:  13
     \\/     M anipulation  |
\*---------------------------------------------------------------------------*/
FoamFile
{
    format      ascii;
    class       volScalarField;
    location    "1.6";
    object      k;
}
// * * * * * * * * * * * * * * * * * * * * * * * * * * * * * * * * * * * * * //

dimensions      [0 2 -2 0 0 0 0];

internalField   nonuniform List<scalar> 
2268
(
0.00124117
0.00347044
0.0054074
0.00700754
0.00839653
0.00963883
0.0107576
0.0117436
0.0125908
0.0132973
0.013859
0.0142707
0.0145385
0.014662
0.0146173
0.014353
0.0138225
0.0130241
0.0119432
0.0105418
0.00874165
0.00639402
0.00340692
0.00269426
0.00792062
0.0120544
0.0156091
0.0187219
0.0214744
0.0238977
0.026008
0.0278099
0.0293078
0.0305016
0.0313869
0.0319779
0.0322793
0.0322538
0.0318197
0.0308878
0.029428
0.0273759
0.0246112
0.0209653
0.0159007
0.00759151
0.00375213
0.0104532
0.0157038
0.0202466
0.0242195
0.0277052
0.0307548
0.0333971
0.0356481
0.0375194
0.0390174
0.0401447
0.0409169
0.0413407
0.0413832
0.0409722
0.0400313
0.0385144
0.0363154
0.0332177
0.0288829
0.0224203
0.010584
0.00482382
0.0125692
0.0186951
0.0239531
0.0285248
0.0325059
0.0359682
0.0389537
0.0414921
0.0436053
0.0453077
0.0466083
0.0475252
0.0480704
0.0482178
0.0479054
0.0470701
0.0456694
0.0435729
0.0404796
0.0358761
0.0285085
0.013451
0.00592517
0.0146844
0.021556
0.0273995
0.032446
0.0368099
0.0405787
0.0438152
0.0465617
0.0488529
0.050713
0.0521556
0.0532037
0.0538778
0.0541583
0.0539903
0.0533232
0.0521324
0.0502808
0.0474133
0.0428706
0.03494
0.0165686
0.0070736
0.0169395
0.0244628
0.0308173
0.0362673
0.0409448
0.0449553
0.0483834
0.0512883
0.0537194
0.0557119
0.0572809
0.0584543
0.0592658
0.059702
0.0597113
0.0592565
0.0583447
0.0568573
0.0544271
0.0503173
0.0424014
0.0208704
0.00835474
0.0192446
0.0274434
0.0342766
0.0400904
0.0450398
0.049251
0.0528304
0.0558635
0.0584134
0.0605289
0.0622203
0.0635187
0.0644785
0.065092
0.0653036
0.0650912
0.0645098
0.0634871
0.0616968
0.0584416
0.0515509
0.0286981
0.00986026
0.0218255
0.0306034
0.0378464
0.0439635
0.049134
0.0535041
0.0571989
0.0603214
0.0629571
0.0651736
0.0670007
0.068469
0.0696263
0.0704596
0.070897
0.0709431
0.070722
0.070241
0.0692495
0.0672008
0.0626292
0.0454852
0.00602781
0.00916297
0.0116729
0.0134656
0.014696
0.015814
0.0168184
0.017985
0.019453
0.020547
0.0215695
0.0223443
0.0224373
0.021811
0.0200916
0.0173451
0.0130383
0.00809965
0.00240562
0.0114008
0.0211018
0.0273407
0.0311851
0.0335712
0.0359075
0.0381411
0.040727
0.0439106
0.0462454
0.0481249
0.0493976
0.0491748
0.0474513
0.0439432
0.0380996
0.0294419
0.0188982
0.0066126
0.0146425
0.0298114
0.0384407
0.0431509
0.0456763
0.0482299
0.0509704
0.0541614
0.0578835
0.0607201
0.0626633
0.0636098
0.0630263
0.0607978
0.0565561
0.0494823
0.0391145
0.0259939
0.00968076
0.0178476
0.0374637
0.0475958
0.0535199
0.056015
0.0582915
0.0611399
0.0644545
0.0682662
0.071334
0.0734052
0.0741695
0.0733202
0.0707926
0.0662072
0.0585453
0.0471996
0.0323846
0.012709
0.0216898
0.0442467
0.0552273
0.0621451
0.065423
0.0670821
0.0696537
0.07275
0.0765123
0.0797077
0.0819858
0.0828505
0.0819383
0.0792641
0.0746313
0.0667957
0.054767
0.0382337
0.0151857
0.0269524
0.0502506
0.0617672
0.0690368
0.0733669
0.0747827
0.0763667
0.0787796
0.0820754
0.0853973
0.0880549
0.0893594
0.0888203
0.0863965
0.0820291
0.0745178
0.062195
0.0439313
0.0171029
0.0362395
0.0567911
0.067667
0.074772
0.0796315
0.0815504
0.0821127
0.0836107
0.086084
0.0890918
0.0918734
0.0936368
0.0937956
0.0920793
0.0882421
0.0813081
0.0692278
0.0497694
0.0200175
0.0495581
0.0639492
0.0732024
0.080023
0.08502
0.0874465
0.0877002
0.0884061
0.0900556
0.092431
0.0949762
0.0969614
0.0977339
0.09679
0.0935734
0.0870224
0.0752612
0.0555767
0.0234168
0.012123
0.0263102
0.0360444
0.0438361
0.0503044
0.0557033
0.0602238
0.0640158
0.0671998
0.0698814
0.0721539
0.074102
0.0758043
0.0772995
0.0785656
0.0795251
0.0801262
0.080487
0.0808696
0.081135
0.0809262
0.0799864
0.0771114
0.0160356
0.0340228
0.0451124
0.0534597
0.0601139
0.0655345
0.0700155
0.0737448
0.0768545
0.0794606
0.0816752
0.0836079
0.0853622
0.0870164
0.0886022
0.0901104
0.0915243
0.0928701
0.0943017
0.095884
0.0974158
0.0986537
0.0992767
0.0206375
0.0430016
0.0552575
0.0639592
0.0706265
0.0759303
0.080273
0.0838743
0.08687
0.0893908
0.0915709
0.0935384
0.0954028
0.0972443
0.0990993
0.100953
0.1028
0.104642
0.106525
0.108511
0.110422
0.111966
0.112883
0.0261776
0.0526363
0.0655841
0.0744206
0.0810038
0.0861432
0.0903377
0.093827
0.0967382
0.099229
0.101463
0.103577
0.105668
0.107805
0.110016
0.112278
0.114536
0.116751
0.118881
0.120884
0.122655
0.124069
0.125078
0.0325785
0.0616638
0.0752087
0.084144
0.090608
0.0955488
0.0995847
0.102967
0.105851
0.10841
0.110821
0.113206
0.115621
0.118092
0.120636
0.123273
0.125948
0.128517
0.130843
0.13285
0.134519
0.13586
0.136927
0.0376857
0.0690786
0.0835925
0.0927388
0.0990422
0.103702
0.107487
0.110714
0.113573
0.116254
0.118902
0.1216
0.124345
0.127159
0.130071
0.13309
0.13612
0.138961
0.141466
0.143587
0.145355
0.146836
0.148152
0.0375371
0.0735874
0.0911667
0.100966
0.106798
0.110751
0.113986
0.116913
0.119709
0.122496
0.125346
0.128304
0.131353
0.134502
0.137778
0.141149
0.144492
0.147626
0.150429
0.152875
0.155001
0.156874
0.1586
0.0334116
0.0722003
0.0978085
0.110381
0.115105
0.11736
0.119538
0.121985
0.124665
0.127541
0.13058
0.133766
0.137074
0.140524
0.144129
0.147834
0.151511
0.155001
0.158203
0.161091
0.163685
0.166025
0.168245
0.0290957
0.0676673
0.0987596
0.122006
0.125297
0.123728
0.124204
0.1261
0.128756
0.13188
0.135271
0.138778
0.142353
0.146055
0.149921
0.15386
0.157823
0.16165
0.165277
0.168643
0.171709
0.174423
0.176997
0.029011
0.0711664
0.0973522
0.116436
0.126672
0.126482
0.126188
0.127723
0.130326
0.133533
0.137017
0.140545
0.144159
0.148023
0.152146
0.156496
0.160994
0.165466
0.169705
0.173668
0.177391
0.180606
0.183284
0.0314173
0.0710988
0.0981532
0.114456
0.123637
0.125919
0.126638
0.127993
0.130264
0.133204
0.136536
0.140155
0.14413
0.148511
0.153211
0.15803
0.162797
0.16739
0.171714
0.175849
0.179788
0.183061
0.185721
0.0350246
0.0741514
0.0956026
0.110883
0.12003
0.123814
0.125679
0.127533
0.129935
0.132832
0.136077
0.139676
0.143687
0.148104
0.152767
0.15753
0.162289
0.16693
0.171361
0.175519
0.179314
0.182344
0.184762
0.0358107
0.0733907
0.092345
0.105949
0.11494
0.120064
0.123274
0.126002
0.128832
0.131841
0.135048
0.13855
0.142431
0.146668
0.151121
0.155659
0.160201
0.164659
0.168923
0.172887
0.176396
0.17915
0.181356
0.0339725
0.0702483
0.0879119
0.100403
0.109403
0.115573
0.119997
0.123647
0.127023
0.130294
0.133567
0.137006
0.140744
0.144771
0.148958
0.153191
0.157383
0.161453
0.165303
0.168822
0.171884
0.174346
0.176332
0.0316157
0.066435
0.0834027
0.0952957
0.104315
0.11114
0.116431
0.120813
0.124674
0.128227
0.131612
0.135017
0.138605
0.142397
0.146293
0.150186
0.153988
0.157617
0.16099
0.164022
0.16663
0.168752
0.170442
0.0297871
0.0631878
0.079548
0.0910122
0.0999399
0.107044
0.112803
0.117628
0.121821
0.125585
0.129076
0.132465
0.13591
0.139467
0.143073
0.146637
0.150076
0.153314
0.156279
0.158903
0.161126
0.162917
0.164297
0.0285783
0.0606152
0.0763663
0.0874027
0.0960972
0.10319
0.109094
0.114108
0.118467
0.122355
0.125918
0.129305
0.13265
0.136015
0.139372
0.142654
0.145791
0.148715
0.151364
0.15368
0.155613
0.157137
0.158266
0.0276277
0.0583814
0.0735109
0.0840898
0.0924556
0.0993688
0.105213
0.110242
0.114652
0.118597
0.122208
0.125608
0.128898
0.132136
0.135313
0.138387
0.141303
0.144003
0.146432
0.148541
0.150283
0.151631
0.152606
0.0266481
0.0561189
0.0706124
0.0807222
0.0887254
0.0953889
0.101083
0.106044
0.110442
0.114411
0.118061
0.121487
0.124766
0.127941
0.131015
0.133962
0.136741
0.139304
0.141606
0.143602
0.145248
0.146517
0.147437
0.0254777
0.0535771
0.0674216
0.0770747
0.0847282
0.0911397
0.0966683
0.10154
0.105911
0.109895
0.113585
0.117052
0.120353
0.12352
0.126558
0.12945
0.132167
0.134671
0.136923
0.138885
0.140517
0.141792
0.142747
0.0240392
0.0506374
0.0638239
0.0730483
0.0803901
0.0865824
0.0919688
0.0967663
0.101118
0.105125
0.108862
0.112385
0.115734
0.118932
0.121983
0.124876
0.127589
0.130092
0.132354
0.134342
0.136019
0.137363
0.138412
0.0223164
0.0472837
0.0598097
0.0686394
0.0757144
0.0817283
0.0870126
0.0917636
0.0961151
0.100157
0.10395
0.107539
0.110952
0.114205
0.117301
0.120231
0.122978
0.12552
0.12783
0.12988
0.131639
0.133088
0.134265
0.0203425
0.0435723
0.0554435
0.0639114
0.0707606
0.0766361
0.0818521
0.0865831
0.0909523
0.0950388
0.0988945
0.102554
0.106037
0.109356
0.112512
0.115497
0.118298
0.120898
0.123274
0.125404
0.12726
0.128825
0.130137
0.018318
0.0396081
0.0508432
0.0589779
0.0656339
0.0713992
0.0765678
0.081295
0.085692
0.0898269
0.0937438
0.09747
0.101021
0.104405
0.107622
0.110665
0.113525
0.116186
0.118631
0.12084
0.122789
0.124464
0.125901
0.0163424
0.0356145
0.0462147
0.0540258
0.0604914
0.0661509
0.0712726
0.0759986
0.0804226
0.0845996
0.0885683
0.09235
0.0959572
0.0993949
0.102663
0.105756
0.108665
0.111379
0.113882
0.116157
0.118186
0.119954
0.121493
0.0144467
0.0318147
0.0417827
0.0492679
0.0555412
0.0610862
0.0661467
0.0708477
0.0752707
0.0794678
0.08347
0.0872867
0.0909296
0.0944014
0.0977017
0.100826
0.103768
0.106516
0.109058
0.11138
0.113465
0.115301
0.116916
0.0127372
0.0284269
0.0377751
0.0449255
0.0509912
0.0564013
0.0613736
0.0660253
0.0704185
0.0745973
0.0785879
0.0824059
0.0860569
0.089535
0.0928417
0.0959724
0.098921
0.101679
0.104236
0.106579
0.108695
0.110573
0.112234
0.0113205
0.0256275
0.0343883
0.0411982
0.047039
0.0522904
0.057146
0.0617116
0.0660386
0.0701622
0.074104
0.0778765
0.0814856
0.0849335
0.0882147
0.0913203
0.0942465
0.0969856
0.0995287
0.101866
0.103984
0.105874
0.107554
0.010264
0.023516
0.0317516
0.0382318
0.0438399
0.0489146
0.053628
0.058073
0.0622955
0.0663241
0.0701767
0.0738639
0.077391
0.0807593
0.0839672
0.0870119
0.0898828
0.0925714
0.0950705
0.0973714
0.0994634
0.101338
0.103009
0.00957641
0.022105
0.0299125
0.0361008
0.041489
0.0463842
0.0509401
0.0552388
0.0593238
0.0632201
0.0669442
0.0705061
0.0739115
0.0771621
0.0802573
0.0831943
0.0859677
0.0885726
0.0909965
0.0932313
0.095268
0.0970994
0.0987351
0.00922326
0.0213473
0.0288565
0.0348217
0.0400266
0.0447578
0.0491538
0.0532916
0.057214
0.0609469
0.0645079
0.0679083
0.071155
0.0742515
0.0771982
0.0799937
0.0826342
0.0851147
0.0874278
0.0895671
0.0915209
0.0932819
0.0948569
0.00917107
0.0211881
0.0285541
0.0343894
0.0394663
0.0440598
0.0483027
0.052272
0.0560135
0.059558
0.0629268
0.0661345
0.0691906
0.0721007
0.0748673
0.0774904
0.0799678
0.0822956
0.0844682
0.0864793
0.0883205
0.0899853
0.0914759
0.00937468
0.0216045
0.0290046
0.034815
0.0398228
0.0443057
0.048402
0.0521943
0.0557378
0.0590715
0.0622228
0.065211
0.0680493
0.070746
0.0733059
0.0757307
0.0780197
0.0801703
0.0821781
0.0840379
0.0857426
0.0872852
0.0886666
0.00984939
0.022643
0.0302617
0.0361482
0.0411355
0.0455228
0.0494651
0.053063
0.0563864
0.0594848
0.0623937
0.065138
0.0677349
0.0701955
0.0725268
0.0747322
0.0768124
0.078766
0.0805897
0.0822791
0.0838281
0.0852301
0.0864832
0.0106706
0.0244408
0.0324552
0.0384951
0.0434797
0.0477556
0.0515155
0.0548862
0.0579566
0.0607894
0.0634284
0.0659044
0.0682378
0.0704425
0.072527
0.074496
0.0763513
0.0780924
0.0797171
0.0812214
0.0826
0.0838465
0.0849566
0.0119383
0.0271769
0.0357601
0.0419955
0.0469545
0.0510693
0.0545897
0.0576799
0.0604514
0.0629804
0.0653185
0.0675004
0.0695491
0.0714797
0.0733015
0.07502
0.0766376
0.0781545
0.0795688
0.0808772
0.0820746
0.0831547
0.0841114
0.0137996
0.0311227
0.0404283
0.0468398
0.0516854
0.0555378
0.0587279
0.0614638
0.0638793
0.0660609
0.0680646
0.0699265
0.0716701
0.07331
0.0748554
0.0763118
0.0776815
0.0789648
0.0801604
0.0812651
0.0822741
0.0831808
0.0839776
0.0164718
0.0366699
0.0467835
0.0532339
0.057784
0.0612155
0.0639551
0.0662506
0.0682493
0.0700405
0.0716788
0.0731979
0.0746188
0.0759543
0.0772124
0.0783975
0.0795116
0.0805549
0.081526
0.082422
0.0832383
0.0839683
0.084603
0.0203779
0.0444216
0.0552086
0.0613466
0.0652998
0.0681032
0.0702609
0.0720344
0.0735655
0.0749338
0.076185
0.0773462
0.0784335
0.0794563
0.0804205
0.081329
0.0821832
0.0829829
0.0837268
0.0844123
0.0850349
0.0855882
0.0860631
0.0266961
0.0553938
0.0660925
0.071214
0.0741558
0.0761168
0.0775871
0.0787881
0.0798277
0.080762
0.0816212
0.0824223
0.0831752
0.0838853
0.0845558
0.0851883
0.0857832
0.0863403
0.0868583
0.0873348
0.0877664
0.0881475
0.0884696
0.0399513
0.0714007
0.0795453
0.0825444
0.0840801
0.0850792
0.0858403
0.0864788
0.0870451
0.0875637
0.0880472
0.0885023
0.0889326
0.0893403
0.0897262
0.0900908
0.0904341
0.0907556
0.0910544
0.091329
0.0915769
0.0917945
0.0919757
0.0859827
0.0936916
0.0942107
0.094405
0.0945877
0.0947675
0.0949405
0.095106
0.0952641
0.0954155
0.0955604
0.0956991
0.0958317
0.0959582
0.0960784
0.0961923
0.0962998
0.0964005
0.0964942
0.0965803
0.0966579
0.0967257
0.0967815
0.0634632
0.0588018
0.0579528
0.0586835
0.0985701
0.097865
0.0971291
0.0962834
0.113046
0.113026
0.112952
0.112895
0.125582
0.12589
0.126191
0.126507
0.137621
0.138105
0.138607
0.139127
0.149107
0.149763
0.150407
0.151026
0.159847
0.160684
0.161467
0.162159
0.169989
0.171116
0.172049
0.172719
0.179548
0.181229
0.182442
0.182982
0.186624
0.189012
0.190889
0.191482
0.188384
0.190254
0.191821
0.192701
0.187045
0.188652
0.190185
0.191212
0.183235
0.184495
0.185668
0.1865
0.177756
0.178585
0.179301
0.179814
0.171446
0.171924
0.172277
0.172498
0.164974
0.165205
0.1653
0.165277
0.158725
0.158805
0.158745
0.158565
0.152949
0.152959
0.152831
0.152583
0.147758
0.147761
0.147634
0.147391
0.143115
0.14316
0.143083
0.142898
0.138877
0.138995
0.138999
0.138905
0.13485
0.135057
0.135157
0.135167
0.130846
0.131144
0.131341
0.131455
0.126721
0.127103
0.127391
0.127602
0.122406
0.12286
0.123225
0.123518
0.117899
0.11841
0.118838
0.119197
0.113263
0.113816
0.114292
0.114701
0.108607
0.109186
0.109695
0.11014
0.104065
0.104657
0.105183
0.105649
0.0997737
0.100365
0.100896
0.10137
0.0958603
0.0964374
0.09696
0.0974293
0.0924276
0.0929791
0.0934808
0.0939334
0.0895508
0.0900667
0.0905369
0.0909613
0.0872842
0.0877542
0.0881825
0.0885684
0.0856631
0.0860784
0.0864558
0.0867941
0.0847152
0.0850693
0.0853887
0.0856719
0.0844738
0.0847626
0.0850197
0.0852429
0.0849905
0.0852129
0.0854062
0.085568
0.0863451
0.0865032
0.0866357
0.0867395
0.0886542
0.0887544
0.0888334
0.0888883
0.0920756
0.0921278
0.0921657
0.0921869
0.0968115
0.0968266
0.0968365
0.0968406
0.0651234
0.0743798
0.08144
0.0878152
0.0927171
0.0957976
0.0964184
0.0963232
0.0967482
0.0979642
0.0998113
0.10182
0.10331
0.103453
0.101122
0.0947945
0.0830002
0.0639842
0.0287353
0.0952036
0.0956866
0.0973312
0.100553
0.104366
0.107271
0.108085
0.107442
0.10668
0.106525
0.107253
0.108792
0.110574
0.111476
0.109607
0.102736
0.0905726
0.0722222
0.0361691
0.112777
0.112846
0.113227
0.114402
0.116709
0.119093
0.119785
0.11866
0.117073
0.115922
0.115671
0.116428
0.11771
0.11827
0.116152
0.109377
0.0977467
0.079729
0.0412921
0.127056
0.127712
0.128032
0.128279
0.129162
0.130484
0.130739
0.129426
0.12741
0.125601
0.124483
0.124184
0.124432
0.1242
0.121795
0.115537
0.104646
0.0866847
0.0453822
0.14002
0.140973
0.141304
0.141148
0.141128
0.141319
0.140927
0.139441
0.137272
0.13506
0.133223
0.13195
0.131145
0.13005
0.127278
0.121333
0.110962
0.0928382
0.0488902
0.152004
0.152897
0.153123
0.152747
0.15217
0.151529
0.150463
0.14865
0.146283
0.14375
0.141385
0.139392
0.137726
0.135811
0.13254
0.126574
0.116353
0.0978345
0.0516647
0.163125
0.163755
0.163717
0.163084
0.162086
0.160836
0.159198
0.156997
0.154342
0.151499
0.148724
0.146192
0.143856
0.141223
0.137361
0.13105
0.120546
0.101368
0.0533765
0.173429
0.173559
0.173071
0.172083
0.170711
0.168995
0.166884
0.164307
0.161362
0.158227
0.155087
0.152116
0.149245
0.145991
0.14148
0.134523
0.123301
0.103174
0.0537524
0.183034
0.182235
0.181043
0.17959
0.177868
0.175787
0.173268
0.170331
0.167127
0.16377
0.160344
0.157048
0.153769
0.149905
0.144582
0.136685
0.124357
0.102998
0.052641
0.190599
0.188545
0.186626
0.184802
0.182888
0.180565
0.177757
0.174555
0.171262
0.16795
0.16421
0.16079
0.157387
0.152993
0.14664
0.13745
0.123515
0.100681
0.0502639
0.192755
0.190916
0.188814
0.186726
0.184544
0.182058
0.179032
0.175582
0.172015
0.168828
0.165858
0.163285
0.160677
0.155261
0.147429
0.136789
0.120832
0.0965283
0.0476051
0.191655
0.189938
0.187475
0.185072
0.182595
0.179831
0.176686
0.173261
0.169684
0.166299
0.163366
0.16097
0.157747
0.153581
0.14656
0.135546
0.117035
0.091885
0.0448812
0.187032
0.185641
0.183234
0.18062
0.177871
0.174891
0.171617
0.168102
0.1645
0.161117
0.158097
0.154866
0.151064
0.146719
0.140162
0.130132
0.11273
0.0877988
0.0429498
0.180163
0.17901
0.176776
0.174111
0.171186
0.16805
0.1647
0.161117
0.157557
0.154266
0.151156
0.147609
0.143393
0.138715
0.133144
0.125459
0.108336
0.085022
0.0441317
0.172539
0.171363
0.169203
0.166505
0.163481
0.16025
0.156829
0.153221
0.149735
0.146604
0.143623
0.140014
0.135302
0.129918
0.123829
0.115105
0.100731
0.0784282
0.0421282
0.165002
0.163688
0.161525
0.158805
0.155715
0.152388
0.148885
0.145276
0.141842
0.138777
0.135777
0.132002
0.126755
0.120599
0.113677
0.104079
0.0895212
0.0687873
0.0352269
0.158071
0.156631
0.154456
0.151745
0.148631
0.145237
0.141666
0.13802
0.134501
0.131208
0.127824
0.123637
0.118002
0.111245
0.103496
0.0934593
0.0793473
0.0602575
0.0301971
0.152
0.150535
0.14841
0.145772
0.14271
0.13932
0.135715
0.131985
0.128241
0.124493
0.120477
0.115672
0.109652
0.102485
0.0942108
0.0839847
0.0707045
0.0534659
0.0263784
0.146836
0.145472
0.14349
0.141014
0.138095
0.134801
0.131222
0.127412
0.123415
0.119191
0.114545
0.109157
0.102766
0.0953404
0.086779
0.0765457
0.0638904
0.047709
0.0233685
0.142454
0.141299
0.13955
0.137317
0.134625
0.131513
0.128036
0.124217
0.120056
0.1155
0.110417
0.104629
0.0979865
0.0904195
0.0817754
0.0716406
0.0593624
0.0436974
0.0212193
0.138624
0.137743
0.136287
0.13435
0.131941
0.129074
0.125772
0.122039
0.117856
0.113172
0.107905
0.101956
0.0952415
0.0876775
0.07909
0.0691094
0.0570883
0.0416898
0.0199478
0.13507
0.134486
0.133345
0.131724
0.129621
0.12703
0.123955
0.120389
0.116309
0.111674
0.106432
0.100528
0.0939019
0.0864689
0.0780477
0.0682818
0.0565106
0.0413117
0.019457
0.131539
0.131244
0.130408
0.129094
0.127291
0.124982
0.122159
0.118809
0.114913
0.11044
0.105356
0.0996216
0.0931904
0.0859742
0.077794
0.0683053
0.0568425
0.0418965
0.0195016
0.127849
0.127812
0.127251
0.126217
0.124692
0.122653
0.120084
0.116974
0.113304
0.109052
0.104191
0.0986938
0.0925136
0.0855639
0.0776728
0.0685106
0.0574195
0.0428103
0.0197939
0.123905
0.124085
0.12376
0.122971
0.121695
0.119905
0.117583
0.114716
0.111289
0.107284
0.10268
0.0974506
0.0915517
0.0848988
0.0773289
0.0685285
0.0578508
0.0436418
0.0201208
0.119697
0.120052
0.119923
0.119342
0.118285
0.116722
0.114633
0.112006
0.108827
0.10508
0.100747
0.0958033
0.0902046
0.0838697
0.0766441
0.068228
0.0579862
0.0442158
0.0203752
0.115288
0.115778
0.115808
0.115402
0.114534
0.113175
0.111305
0.108911
0.105978
0.102493
0.0984391
0.0937901
0.0885037
0.0825009
0.0756337
0.0676131
0.0578122
0.0444927
0.020521
0.110789
0.111378
0.111533
0.11127
0.110566
0.10939
0.107723
0.105551
0.10286
0.0996355
0.0958607
0.09151
0.0865406
0.0808752
0.0743698
0.0667421
0.0573716
0.0444979
0.0205563
0.106338
0.106993
0.107241
0.107094
0.106527
0.105513
0.104031
0.102068
0.099608
0.0966367
0.0931359
0.0890789
0.084422
0.0790881
0.0729348
0.0656841
0.0567191
0.0442674
0.0204901
0.102075
0.102766
0.103078
0.103018
0.102563
0.101687
0.100371
0.098598
0.0963538
0.0936216
0.0903815
0.0866047
0.0822457
0.0772258
0.071403
0.0645004
0.0559047
0.043842
0.0203379
0.0981314
0.0988287
0.0991753
0.0991743
0.0988038
0.0980396
0.0968639
0.0952593
0.0932091
0.0906951
0.0876945
0.0841759
0.0800907
0.0753578
0.0698334
0.0632409
0.0549694
0.0432461
0.0201499
0.0946117
0.0952876
0.0956397
0.0956686
0.0953534
0.0946723
0.0936082
0.0921435
0.09026
0.0879369
0.0851482
0.0818588
0.0780162
0.0735357
0.0682717
0.0619451
0.053955
0.042556
0.0199255
0.0915964
0.0922234
0.0925524
0.0925803
0.0922884
0.0916576
0.0906722
0.0893149
0.087566
0.0854017
0.0827925
0.0796989
0.0760635
0.0717971
0.0667552
0.0606621
0.0529211
0.0418124
0.0196447
0.0891419
0.0896938
0.0899708
0.0899655
0.0896618
0.0890443
0.0881004
0.0868138
0.0851636
0.0831229
0.080658
0.0777253
0.0742632
0.0701796
0.0653253
0.0594268
0.0518959
0.041042
0.0193217
0.0872903
0.0877431
0.0879382
0.0878653
0.0875107
0.0868644
0.0859191
0.0846619
0.0830719
0.0811193
0.0787655
0.075961
0.0726393
0.0687043
0.0640038
0.0582652
0.0509089
0.0402744
0.0189721
0.086078
0.0864114
0.0864966
0.0863198
0.0858694
0.0851435
0.0841456
0.0828709
0.0812999
0.0793987
0.0771224
0.0744146
0.0712029
0.0673865
0.0628102
0.0572017
0.0499892
0.039542
0.0186227
0.0855504
0.0857494
0.0857004
0.0853819
0.0847824
0.0839117
0.0827951
0.0814457
0.0798475
0.0779604
0.0757296
0.0730898
0.0699613
0.0662379
0.0617611
0.0562585
0.0491642
0.0388742
0.0182917
0.085775
0.085834
0.0856348
0.085139
0.0843259
0.0832189
0.0818883
0.080389
0.0787107
0.0767995
0.0745846
0.0719875
0.0689193
0.0652675
0.06087
0.0554534
0.0484562
0.0382968
0.0180028
0.0868529
0.0867834
0.0864377
0.0857433
0.0846442
0.0831631
0.081461
0.0797029
0.0778809
0.0759081
0.073683
0.0711073
0.06808
0.0644817
0.0601463
0.0547991
0.0478812
0.0378275
0.0177683
0.0889271
0.0887682
0.0883219
0.0874581
0.0860238
0.0839555
0.0815708
0.0793824
0.0773421
0.0752737
0.0730185
0.0704479
0.0674456
0.063885
0.0595962
0.0543028
0.0474476
0.037478
0.0176041
0.0921831
0.0920101
0.0915834
0.0907111
0.0890469
0.0861249
0.082281
0.0793909
0.0770603
0.0748779
0.0725834
0.0700078
0.0670183
0.0634809
0.0592227
0.0539666
0.0471565
0.0372493
0.0175192
0.0968318
0.0967499
0.096549
0.0960759
0.0948613
0.0914194
0.083468
0.079584
0.0769681
0.0746937
0.0723692
0.0697871
0.066802
0.0632749
0.0590311
0.053793
0.0470056
0.0371336
0.0175082
)
;

boundaryField
{
    leftWall
    {
        type            kqRWallFunction;
        value           nonuniform List<scalar> 
50
(
0.00124117
0.00269426
0.00375213
0.00482382
0.00592517
0.0070736
0.00835474
0.00986026
0.012123
0.0160356
0.0206375
0.0261776
0.0325785
0.0376857
0.0375371
0.0334116
0.0290957
0.029011
0.0314173
0.0350246
0.0358107
0.0339725
0.0316157
0.0297871
0.0285783
0.0276277
0.0266481
0.0254777
0.0240392
0.0223164
0.0203425
0.018318
0.0163424
0.0144467
0.0127372
0.0113205
0.010264
0.00957641
0.00922326
0.00917107
0.00937468
0.00984939
0.0106706
0.0119383
0.0137996
0.0164718
0.0203779
0.0266961
0.0399513
0.0859827
)
;
    }
    rightWall
    {
        type            kqRWallFunction;
        value           nonuniform List<scalar> 
50
(
0.00240562
0.0066126
0.00968076
0.012709
0.0151857
0.0171029
0.0200175
0.0234168
0.0287353
0.0361691
0.0412921
0.0453822
0.0488902
0.0516647
0.0533765
0.0537524
0.052641
0.0502639
0.0476051
0.0448812
0.0429498
0.0441317
0.0421282
0.0352269
0.0301971
0.0263784
0.0233685
0.0212193
0.0199478
0.019457
0.0195016
0.0197939
0.0201208
0.0203752
0.020521
0.0205563
0.0204901
0.0203379
0.0201499
0.0199255
0.0196447
0.0193217
0.0189721
0.0186227
0.0182917
0.0180028
0.0177683
0.0176041
0.0175192
0.0175082
)
;
    }
    lowerWall
    {
        type            kqRWallFunction;
        value           nonuniform List<scalar> 
62
(
0.00124117
0.00347044
0.0054074
0.00700754
0.00839653
0.00963883
0.0107576
0.0117436
0.0125908
0.0132973
0.013859
0.0142707
0.0145385
0.014662
0.0146173
0.014353
0.0138225
0.0130241
0.0119432
0.0105418
0.00874165
0.00639402
0.00340692
0.00340692
0.00759151
0.010584
0.013451
0.0165686
0.0208704
0.0286981
0.0454852
0.0634632
0.0588018
0.0579528
0.0586835
0.00602781
0.0114008
0.0146425
0.0178476
0.0216898
0.0269524
0.0362395
0.0495581
0.00602781
0.00916297
0.0116729
0.0134656
0.014696
0.015814
0.0168184
0.017985
0.019453
0.020547
0.0215695
0.0223443
0.0224373
0.021811
0.0200916
0.0173451
0.0130383
0.00809965
0.00240562
)
;
    }
    atmosphere
    {
        type            inletOutlet;
        inletValue      uniform 0.1;
        value           nonuniform List<scalar> 
46
(
0.1
0.1
0.1
0.1
0.1
0.1
0.1
0.1
0.1
0.1
0.1
0.1
0.1
0.1
0.1
0.1
0.1
0.1
0.1
0.1
0.1
0.1
0.1
0.1
0.1
0.1
0.1
0.1
0.1
0.1
0.1
0.1
0.1
0.083468
0.079584
0.0769681
0.0746937
0.0723692
0.0697871
0.066802
0.0632749
0.0590311
0.053793
0.0470056
0.0371336
0.0175082
)
;
    }
    defaultFaces
    {
        type            empty;
    }
}


// ************************************************************************* //
