/*--------------------------------*- C++ -*----------------------------------*\
  =========                 |
  \\      /  F ield         | OpenFOAM: The Open Source CFD Toolbox
   \\    /   O peration     | Website:  https://openfoam.org
    \\  /    A nd           | Version:  13
     \\/     M anipulation  |
\*---------------------------------------------------------------------------*/
FoamFile
{
    format      ascii;
    class       volScalarField;
    location    "1.6";
    object      nut;
}
// * * * * * * * * * * * * * * * * * * * * * * * * * * * * * * * * * * * * * //

dimensions      [0 2 -1 0 0 0 0];

internalField   nonuniform List<scalar> 
2268
(
2.36427e-05
3.93003e-05
4.89581e-05
5.57494e-05
6.10458e-05
6.54444e-05
6.9152e-05
7.22374e-05
7.47767e-05
7.68287e-05
7.84278e-05
7.95935e-05
8.03674e-05
8.0762e-05
8.07124e-05
8.0077e-05
7.86723e-05
7.6403e-05
7.31079e-05
6.85051e-05
6.21418e-05
5.33259e-05
3.94575e-05
7.34932e-05
0.000295287
0.000417507
0.000506308
0.000575811
0.000631468
0.000675618
0.000710997
0.000739341
0.000762044
0.000779863
0.000792977
0.000802417
0.000808876
0.000811251
0.000806367
0.000789188
0.000757625
0.000709467
0.000642701
0.000557007
0.000421263
0.000123152
8.6289e-05
0.000471498
0.000731231
0.00092904
0.00108762
0.00121602
0.00131963
0.00140295
0.00146951
0.00152221
0.00156295
0.00159264
0.00161309
0.00162527
0.00162684
0.00161181
0.00157215
0.00150362
0.00140094
0.00125553
0.00105156
0.00071669
0.00014499
9.7692e-05
0.000576381
0.000954659
0.00125444
0.00150027
0.00170209
0.00186677
0.0019999
0.00210639
0.00219045
0.00225507
0.00230201
0.00233359
0.00235083
0.00235069
0.00232591
0.00226773
0.00217092
0.00202617
0.0018139
0.0014946
0.000966178
0.000163784
0.000108041
0.000649254
0.00112133
0.00151076
0.00183655
0.00210716
0.00232952
0.00251018
0.00265506
0.00276954
0.00285763
0.0029219
0.00296508
0.00298829
0.0029883
0.00295773
0.00288822
0.00277392
0.00260083
0.00233707
0.00191678
0.00120479
0.000183443
0.000117937
0.000708685
0.00125444
0.00172231
0.00211998
0.00245282
0.00272751
0.00295151
0.00313177
0.00327469
0.00338525
0.00346673
0.00352228
0.00355316
0.00355635
0.00352499
0.00345164
0.00333008
0.00314227
0.00284473
0.0023442
0.00145831
0.000209711
0.000128022
0.000750688
0.00136758
0.00190708
0.00236898
0.00275686
0.0030777
0.00333993
0.00355191
0.00372075
0.00385235
0.00395082
0.00401964
0.00406018
0.00406985
0.00404261
0.00397217
0.00385257
0.00366339
0.00335263
0.00280188
0.00175454
0.000251114
0.000138943
0.000800738
0.00148132
0.00208392
0.00260073
0.00303493
0.0033946
0.00368931
0.00392838
0.00411998
0.00427079
0.0043859
0.004469
0.00452129
0.00454061
0.00452188
0.00446017
0.00435042
0.00417273
0.0038719
0.00331622
0.002152
0.000316886
5.18858e-05
6.4319e-05
7.24408e-05
7.77458e-05
8.05408e-05
8.31207e-05
8.51817e-05
8.73535e-05
9.05001e-05
9.32302e-05
9.63568e-05
9.88229e-05
9.93672e-05
9.84358e-05
9.49156e-05
8.84917e-05
7.69351e-05
6.08385e-05
3.24469e-05
0.000167432
0.000464926
0.000637114
0.000712809
0.00072278
0.000730595
0.000724804
0.000724078
0.000758432
0.000804355
0.000872309
0.000945787
0.000984498
0.000990107
0.000969257
0.000902395
0.000771309
0.000544671
0.000128125
0.000190566
0.000775499
0.00114471
0.00132845
0.00137835
0.001389
0.00138089
0.00138569
0.00145004
0.0015544
0.00169299
0.00183076
0.0019198
0.00194599
0.00190719
0.00176523
0.00147745
0.00096601
0.000155877
0.000211662
0.00101142
0.00152974
0.00183197
0.00194189
0.00196092
0.00195452
0.00196419
0.00204411
0.00218623
0.00237229
0.00255361
0.00268046
0.00272471
0.00266693
0.00245792
0.00203662
0.00129038
0.000179633
0.000234904
0.00114825
0.00181206
0.00224893
0.00244515
0.00248081
0.00247433
0.00248215
0.00256347
0.00272085
0.00293039
0.00313884
0.00329261
0.00335005
0.00327619
0.00301283
0.00248239
0.00152904
0.000197222
0.000265757
0.00116828
0.00200076
0.00259919
0.00290335
0.00297639
0.00296688
0.00296666
0.00303675
0.00319234
0.00340657
0.00362679
0.00379736
0.00386354
0.00377613
0.0034703
0.00284935
0.00170446
0.00020894
0.000313796
0.00113548
0.00212866
0.00290997
0.00333308
0.00346583
0.00345524
0.00344649
0.00350012
0.00363966
0.00384246
0.00405955
0.0042345
0.00430315
0.00419988
0.00385484
0.00316048
0.00186184
0.000225524
0.000367264
0.00118394
0.00229457
0.00322937
0.003759
0.00394839
0.00394883
0.00393596
0.00397405
0.00408984
0.00426906
0.00446949
0.00463487
0.00469456
0.00457132
0.00418518
0.00342683
0.00203097
0.000242747
0.000154319
0.000906479
0.00168381
0.00237144
0.00295832
0.0034502
0.00385832
0.0041943
0.00446872
0.00469078
0.00486811
0.00500703
0.00511212
0.00518473
0.00522335
0.00522452
0.00518416
0.00509682
0.00495148
0.00469647
0.00422621
0.00335261
0.00189624
0.000177594
0.00111815
0.00205089
0.00283152
0.00347564
0.00400825
0.00444979
0.0048157
0.00511803
0.00536664
0.00556967
0.00573389
0.00586434
0.0059635
0.00603171
0.00606871
0.0060741
0.00604508
0.0059698
0.00582265
0.00555218
0.00507243
0.00426691
0.000201312
0.00138011
0.00247281
0.00332847
0.00400914
0.00456366
0.00502238
0.00540472
0.00572415
0.00599138
0.00621498
0.00640191
0.00655741
0.00668453
0.00678447
0.00685778
0.00690619
0.00692823
0.00691715
0.00686348
0.00674593
0.00653333
0.00619819
0.000226366
0.00164972
0.00287644
0.00379529
0.00450919
0.00508438
0.00555869
0.0059556
0.0062896
0.00657307
0.00681543
0.00702381
0.0072036
0.00735826
0.0074893
0.00759674
0.00768046
0.00774096
0.00777688
0.00778437
0.00775574
0.00768212
0.00756238
0.000251364
0.00183787
0.00319541
0.00418172
0.00493567
0.00553874
0.00603492
0.00644998
0.0068017
0.00710381
0.00736627
0.00759624
0.00779899
0.00797741
0.00813296
0.00826668
0.00837891
0.00846941
0.00853729
0.00858104
0.00859868
0.00858906
0.00855504
0.000268291
0.00195149
0.00340052
0.00444463
0.00524695
0.00589181
0.00642291
0.00686692
0.00724285
0.00756636
0.0078496
0.00810133
0.00832461
0.00852347
0.00870026
0.00885617
0.00899109
0.00910373
0.00919311
0.00925874
0.00930085
0.0093207
0.00932164
0.000265387
0.00196442
0.00344678
0.00453815
0.00540055
0.00610715
0.00669295
0.00718139
0.00759295
0.00794538
0.00825287
0.00852621
0.00876951
0.00898712
0.0091826
0.00935731
0.00951064
0.00964082
0.00974665
0.00982792
0.00988539
0.00992091
0.00993749
0.000250567
0.00171978
0.00327322
0.00444774
0.00538964
0.00617601
0.00683657
0.00738697
0.00784698
0.00823717
0.00857455
0.00887203
0.00913524
0.00937042
0.00958243
0.00977299
0.00994184
0.010087
0.010207
0.0103011
0.0103698
0.0104149
0.0104404
0.000235408
0.00149951
0.00297751
0.00424659
0.00527704
0.00612878
0.00687137
0.00749501
0.0080128
0.00844821
0.0088214
0.00914673
0.00943159
0.00968438
0.00991132
0.0101141
0.0102953
0.0104528
0.0105857
0.0106917
0.0107694
0.0108198
0.0108487
0.000241873
0.00168815
0.00295138
0.00408256
0.00510984
0.00601099
0.00682842
0.00752217
0.00809392
0.00856959
0.00897239
0.00931844
0.00962068
0.00988969
0.0101307
0.010348
0.0105433
0.0107162
0.0108631
0.0109813
0.0110686
0.0111247
0.0111513
0.000250099
0.00181149
0.00318168
0.00421597
0.00516246
0.0060343
0.00683826
0.00754461
0.00813907
0.00863593
0.00905639
0.00941994
0.00974261
0.0100344
0.0102996
0.010538
0.0107477
0.0109281
0.0110764
0.0111924
0.0112762
0.0113264
0.0113491
0.000263184
0.00202948
0.00339552
0.00439548
0.00531359
0.00615156
0.00691965
0.007603
0.0081905
0.00868945
0.00911646
0.00949018
0.00982521
0.0101303
0.0104074
0.0106559
0.0108747
0.0110607
0.0112118
0.0113273
0.0114067
0.0114494
0.0114607
0.0002664
0.00210125
0.00353081
0.00455596
0.00545694
0.00627881
0.0070155
0.00766662
0.00823262
0.00872096
0.00914553
0.00952161
0.00986114
0.0101708
0.0104523
0.0107051
0.0109275
0.0111173
0.0112721
0.0113901
0.0114697
0.0115094
0.0115142
0.00026042
0.00210833
0.00359445
0.00466626
0.00556769
0.00637255
0.0070832
0.00770533
0.00824905
0.00872448
0.00914387
0.00951919
0.00985977
0.0101708
0.0104536
0.0107077
0.0109314
0.0111226
0.0112788
0.0113978
0.0114778
0.0115182
0.011523
0.000251489
0.00208023
0.00360452
0.00472062
0.00563112
0.00641943
0.00710757
0.00770805
0.00823409
0.00869862
0.0091124
0.00948533
0.0098249
0.0101356
0.0104186
0.0106732
0.0108976
0.0110895
0.0112467
0.0113673
0.0114499
0.011494
0.0115023
0.000243732
0.00203449
0.00357595
0.0047233
0.00564304
0.00642024
0.00709012
0.00767351
0.00818621
0.00864119
0.00904912
0.00941863
0.00975609
0.0100655
0.0103482
0.0106033
0.010829
0.0110231
0.0111834
0.0113081
0.0113959
0.0114461
0.0114604
0.000238219
0.00198348
0.00352357
0.00468567
0.00560955
0.00637798
0.00703377
0.0076032
0.00810421
0.0085504
0.00895227
0.00931783
0.0096529
0.00996107
0.0102436
0.0104997
0.0107279
0.0109259
0.0110914
0.0112227
0.0113181
0.0113768
0.0113996
0.000233786
0.00193341
0.00345724
0.0046185
0.00553892
0.00629758
0.00694076
0.00749767
0.00798795
0.00842581
0.00882177
0.00918356
0.00951655
0.00982401
0.0101071
0.0103654
0.0105973
0.0108006
0.0109732
0.0111129
0.011218
0.0112871
0.0113208
0.000229422
0.00188343
0.00337963
0.00452736
0.00543666
0.00618294
0.00681327
0.00735827
0.00783861
0.00826891
0.00865969
0.00901844
0.0093502
0.00965794
0.00994276
0.0102043
0.010441
0.0106509
0.0108316
0.0109812
0.0110973
0.0111784
0.0112249
0.000224375
0.00182992
0.00328915
0.0044137
0.00530562
0.00603691
0.00665395
0.00718772
0.00765924
0.00808322
0.00847004
0.00882693
0.0091586
0.00946776
0.00975539
0.0100211
0.0102636
0.0104808
0.0106706
0.0108307
0.0109586
0.0110528
0.0111133
0.000218168
0.00176984
0.00318368
0.00427781
0.00514797
0.00586259
0.00646655
0.00699029
0.0074546
0.00787393
0.00825839
0.00861482
0.00894763
0.00925927
0.00955062
0.00982132
0.0100701
0.0102951
0.0104942
0.0106651
0.0108054
0.0109131
0.0109884
0.00021055
0.0017016
0.00306225
0.00412072
0.0049666
0.00566416
0.0062562
0.00677174
0.0072309
0.00764758
0.0080314
0.00838881
0.0087239
0.00903889
0.00933458
0.00961064
0.00986595
0.0100988
0.0103071
0.0104887
0.0106411
0.0107624
0.0108527
0.000201451
0.00162381
0.00292478
0.00394472
0.0047659
0.00544754
0.00602962
0.00653932
0.00699567
0.00741178
0.00779667
0.00815635
0.00849461
0.00881351
0.0091138
0.00939524
0.00965683
0.00989704
0.010114
0.0103056
0.0104696
0.0106041
0.0107089
0.00019148
0.00153016
0.00277072
0.00375343
0.00455219
0.0052204
0.0057952
0.00630173
0.0067577
0.00717522
0.00756268
0.00792564
0.00826763
0.00859061
0.00889536
0.00918173
0.00944892
0.00969563
0.00992017
0.0101207
0.0102951
0.0104415
0.0105599
0.000181254
0.00142967
0.00261022
0.00355766
0.00433574
0.00499308
0.00556322
0.00606934
0.00652729
0.00694788
0.00733902
0.00770583
0.00805167
0.00837844
0.00868701
0.00897741
0.00924904
0.00950087
0.00973148
0.00993924
0.0101223
0.0102789
0.0104089
0.000170764
0.00133443
0.00245735
0.00337193
0.0041323
0.00478146
0.00534916
0.00585605
0.00631659
0.00674106
0.0071365
0.00750713
0.00785636
0.00818608
0.00849731
0.00879028
0.00906469
0.00931977
0.00955439
0.00976721
0.00995659
0.0101211
0.0102603
0.000160572
0.00125307
0.00232496
0.00321081
0.00395689
0.00460066
0.00516804
0.00567729
0.00614119
0.00656899
0.00696726
0.00734067
0.0076922
0.00802334
0.00833546
0.008629
0.00890397
0.00915991
0.00939602
0.00961123
0.00980419
0.00997363
0.0101192
0.000151451
0.00119116
0.00222342
0.00308755
0.00382411
0.00446579
0.00503496
0.00554753
0.00601491
0.00644547
0.00684538
0.00721917
0.00757002
0.0079002
0.00821079
0.00850229
0.00877508
0.00902901
0.00926363
0.00947816
0.00967155
0.00984273
0.00999141
0.000144137
0.00115126
0.00215981
0.00301269
0.00374651
0.00439023
0.00496337
0.00547991
0.00595024
0.00638221
0.0067818
0.00715358
0.00750096
0.00782645
0.00813173
0.00841795
0.00868534
0.008934
0.00916379
0.00937428
0.00956468
0.00973413
0.00988239
0.00013908
0.00113382
0.00213809
0.00299343
0.00373327
0.00438406
0.00496341
0.00548422
0.00595639
0.00638767
0.00678422
0.00715089
0.00749148
0.00780887
0.00810518
0.0083819
0.0086399
0.00887974
0.00910122
0.00930415
0.00948805
0.00965228
0.0097966
0.000136354
0.00113876
0.00216043
0.00303389
0.00378958
0.00445252
0.00503996
0.00556473
0.00603689
0.00646472
0.00685491
0.00721287
0.00754295
0.00784854
0.00813223
0.0083959
0.00864085
0.0088679
0.00907738
0.0092694
0.00944347
0.00959913
0.00973621
0.00013587
0.00116641
0.00222814
0.00313511
0.00391534
0.00459443
0.0051908
0.00571813
0.00618766
0.00660868
0.00698881
0.0073343
0.00765016
0.00794037
0.00820801
0.00845539
0.00868416
0.00889545
0.0090899
0.00926779
0.00942901
0.00957324
0.00970028
0.000137396
0.00121701
0.00233966
0.00329245
0.0041034
0.00480074
0.0054053
0.00593273
0.0063963
0.00680679
0.00717311
0.0075025
0.00780079
0.00807256
0.00832138
0.00854993
0.00876018
0.0089535
0.00913079
0.00929253
0.00943879
0.0095694
0.00968422
0.000140997
0.00128899
0.0024881
0.00349443
0.00433933
0.0050551
0.00566567
0.0061901
0.00664397
0.0070401
0.00738899
0.00769906
0.00797701
0.00822802
0.00845608
0.00866418
0.00885453
0.0090287
0.00918774
0.00933228
0.00946256
0.00957853
0.00968008
0.000147074
0.00137703
0.00266007
0.00372411
0.00460482
0.00533838
0.00595269
0.00647039
0.00691033
0.00728798
0.0076158
0.00790359
0.00815888
0.00838743
0.00859354
0.00878042
0.00895039
0.00910513
0.00924578
0.00937307
0.00948734
0.00958865
0.0096769
0.000155777
0.00147282
0.00284172
0.00396849
0.00488845
0.00563957
0.00625402
0.00675963
0.00717992
0.00753389
0.00783637
0.00809858
0.00832889
0.00853345
0.00871673
0.008882
0.00903161
0.00916721
0.00928996
0.0094006
0.00949953
0.00958688
0.00966259
0.000167464
0.00157504
0.00303529
0.00423463
0.00519793
0.00596344
0.00657033
0.00705467
0.0074466
0.00776958
0.00804101
0.00827346
0.00847585
0.00865449
0.00881381
0.00895697
0.00908615
0.00920292
0.00930833
0.00940307
0.00948753
0.00956186
0.00962606
0.000182663
0.00169357
0.00326633
0.00455473
0.00556204
0.00633083
0.00691453
0.00736236
0.00771321
0.00799537
0.0082285
0.00842594
0.00859671
0.00874686
0.00888051
0.00900048
0.00910867
0.00920642
0.0092946
0.00937378
0.0094443
0.0095063
0.00955978
0.000202551
0.00184888
0.0035851
0.00498503
0.00602525
0.0067709
0.00730412
0.00769326
0.0079868
0.00821678
0.00840372
0.00856064
0.00869581
0.00881457
0.00892038
0.00901551
0.0091015
0.00917935
0.00924971
0.009313
0.00936942
0.00941908
0.00946197
0.000230692
0.00207546
0.00408055
0.00560948
0.00663977
0.00730922
0.00775034
0.00805316
0.00827228
0.00843962
0.0085738
0.00868581
0.00878224
0.00886715
0.00894308
0.00901165
0.00907392
0.00913053
0.00918192
0.0092283
0.0092698
0.00930642
0.0093381
0.000280014
0.00248524
0.00495582
0.00656014
0.00745408
0.00795236
0.00824732
0.00843645
0.008568
0.00866646
0.00874481
0.00881019
0.00886666
0.00891666
0.00896164
0.00900252
0.00903986
0.00907403
0.00910521
0.00913351
0.00915893
0.00918146
0.00920098
0.00041725
0.0037067
0.00683009
0.00802999
0.00847137
0.00866355
0.00876366
0.00882418
0.00886532
0.00889596
0.00892044
0.00894102
0.00895896
0.00897498
0.00898951
0.00900281
0.00901506
0.00902634
0.0090367
0.00904615
0.00905469
0.00906228
0.00906886
0.000364981
0.000350191
0.000348684
0.000353703
0.00333857
0.00312153
0.00304723
0.00307039
0.005894
0.00574693
0.00566772
0.00565236
0.00746093
0.0073992
0.00735448
0.0073293
0.00852074
0.00849578
0.00847296
0.00845355
0.00931213
0.00930113
0.00928742
0.00927135
0.0099368
0.00992994
0.00991822
0.00990166
0.0104439
0.0104371
0.0104232
0.0104026
0.0108533
0.0108429
0.0108244
0.0107991
0.0111505
0.0111364
0.0111144
0.0110883
0.0113438
0.0113284
0.0113054
0.0112751
0.0114464
0.011428
0.011403
0.0113721
0.0114936
0.0114733
0.0114469
0.011414
0.0115005
0.0114788
0.0114503
0.0114147
0.0114803
0.0114578
0.0114273
0.0113891
0.0114412
0.0114193
0.0113886
0.0113495
0.011386
0.0113669
0.0113383
0.0113008
0.0113152
0.0113008
0.0112765
0.0112429
0.0112292
0.0112208
0.0112024
0.0111746
0.0111287
0.0111275
0.0111163
0.0110956
0.0110158
0.0110225
0.0110192
0.0110067
0.0108925
0.0109074
0.0109127
0.010909
0.0107609
0.0107841
0.010798
0.0108034
0.0106233
0.0106543
0.0106766
0.0106907
0.0104824
0.0105205
0.0105502
0.0105723
0.0103419
0.0103859
0.010422
0.0104509
0.0102068
0.0102551
0.0102962
0.0103305
0.0100823
0.0101335
0.0101779
0.0102159
0.00997404
0.0100263
0.0100723
0.0101123
0.00988639
0.00993804
0.00998391
0.0100242
0.00982174
0.00987121
0.00991539
0.0099544
0.00977956
0.00982554
0.0098667
0.0099031
0.00975581
0.00979738
0.00983457
0.0098674
0.00974317
0.00977981
0.00981252
0.00984127
0.00973148
0.00976314
0.00979132
0.00981596
0.00970923
0.00973625
0.00976024
0.00978114
0.00966556
0.00968846
0.00970881
0.00972652
0.00959276
0.00961194
0.00962905
0.00964404
0.00948853
0.00950405
0.009518
0.00953033
0.00935782
0.00936937
0.0093798
0.00938908
0.00921312
0.00922022
0.00922663
0.00923232
0.00907293
0.00907529
0.0090774
0.00907924
0.000879182
0.00179622
0.00285341
0.0038112
0.00442674
0.00469346
0.00473456
0.00472703
0.00474608
0.00482188
0.00495197
0.00510709
0.00523466
0.00525949
0.00509258
0.00463961
0.00378386
0.00228025
0.000267897
0.00346534
0.00398749
0.00453472
0.00506937
0.00548662
0.00570515
0.00574915
0.00572673
0.00571274
0.00573555
0.00579878
0.00588365
0.0059429
0.00590045
0.0056592
0.00510832
0.00411957
0.00243912
0.000298013
0.00573715
0.00591645
0.00612822
0.00635634
0.00655844
0.0066791
0.00669812
0.00665632
0.00660967
0.00658407
0.00658337
0.00659261
0.00657054
0.00644529
0.00612328
0.00549022
0.00439249
0.00256437
0.000315915
0.00731949
0.00735303
0.00740673
0.00747092
0.00753151
0.00756303
0.00754171
0.00747616
0.00739889
0.00733065
0.00727358
0.00721271
0.00711299
0.00691044
0.0065167
0.00581349
0.00462365
0.00267712
0.000329711
0.00842723
0.00840792
0.00839174
0.00837564
0.00835712
0.00832513
0.00826442
0.00817297
0.00806863
0.00796419
0.00786016
0.00774201
0.00757761
0.00730942
0.00685257
0.00608442
0.004814
0.00277071
0.000341085
0.00924126
0.00919855
0.00914822
0.00909089
0.00902758
0.00895387
0.00886111
0.00874562
0.0086169
0.0084824
0.00834062
0.00817728
0.00796156
0.00763912
0.00712698
0.00629946
0.00495933
0.00283922
0.000349849
0.00986632
0.00980511
0.00973109
0.00964697
0.00955418
0.0094509
0.00933234
0.00919551
0.00904554
0.00888618
0.00871405
0.00851482
0.00825826
0.00789158
0.00733209
0.00645257
0.00505462
0.00287902
0.000355109
0.0103574
0.0102752
0.010178
0.0100707
0.0099538
0.00982593
0.00968434
0.00952769
0.00935891
0.00917847
0.00898077
0.00875205
0.0084626
0.00805966
0.00745997
0.00653635
0.00509379
0.00288649
0.000356114
0.0107437
0.0106369
0.0105147
0.0103834
0.0102433
0.0100915
0.0099267
0.0097501
0.00956378
0.00936473
0.0091445
0.00889092
0.00857415
0.00813893
0.00750251
0.00654146
0.00506693
0.0028539
0.000352316
0.0110287
0.0109007
0.0107533
0.0105987
0.0104355
0.010259
0.0100703
0.00987316
0.00967027
0.00945497
0.00921219
0.00893835
0.00859923
0.00813208
0.00745726
0.00645927
0.0049563
0.00275647
0.00034536
0.0112087
0.0110715
0.0109083
0.010732
0.0105429
0.01034
0.0101247
0.00990317
0.00967851
0.0094468
0.00919371
0.00890949
0.00855394
0.00804372
0.00732563
0.00628273
0.0047365
0.00257308
0.000336738
0.0113079
0.0111678
0.0109916
0.0107972
0.0105855
0.0103564
0.010115
0.00986829
0.00961816
0.00935864
0.00907995
0.00876799
0.00837991
0.00786806
0.00713969
0.00606929
0.00449172
0.00239242
0.000326915
0.0113466
0.0112045
0.0110212
0.0108113
0.0105792
0.0103267
0.0100598
0.00978512
0.00950352
0.00921018
0.00889527
0.00853991
0.00811794
0.00758541
0.00686239
0.00584725
0.00433962
0.00229821
0.00031787
0.0113433
0.011197
0.0110078
0.0107863
0.0105369
0.0102631
0.00997098
0.00966585
0.00934986
0.00902164
0.0086734
0.00828635
0.00783364
0.0072814
0.00658179
0.00565284
0.00425073
0.00235229
0.000318002
0.0113146
0.0111644
0.01097
0.0107383
0.0104735
0.0101797
0.00986183
0.0095247
0.00917295
0.00880986
0.00843107
0.00801594
0.007533
0.00695722
0.00625373
0.005328
0.00403743
0.00225615
0.000329478
0.0112739
0.0111216
0.010923
0.0106829
0.0104045
0.0100917
0.00974812
0.0093792
0.00899171
0.00859192
0.00817665
0.00772515
0.00720369
0.00659278
0.00586598
0.00493632
0.00368799
0.00199218
0.000300315
0.0112274
0.0110763
0.0108764
0.010631
0.0103422
0.010013
0.00964641
0.00924818
0.00882562
0.00838507
0.00792371
0.00742325
0.00685405
0.00619715
0.00543245
0.00449864
0.00329963
0.00177614
0.000276633
0.0111753
0.0110303
0.0108335
0.0105876
0.0102938
0.00995389
0.0095704
0.00914853
0.00869448
0.00821279
0.0077006
0.00714327
0.00651837
0.00580855
0.00499956
0.00405566
0.00292551
0.00159923
0.000258185
0.0111159
0.0109821
0.0107941
0.0105541
0.0102625
0.00992012
0.00952881
0.00909239
0.008615
0.00809888
0.0075409
0.00693025
0.00625136
0.00549176
0.00464236
0.00368781
0.00261107
0.00141809
0.000242071
0.0110484
0.0109306
0.0107571
0.0105297
0.0102484
0.00991297
0.00952437
0.00908474
0.00859602
0.00805847
0.0074688
0.00681934
0.00610013
0.00530364
0.00442616
0.0034644
0.00241757
0.00129517
0.000229186
0.0109731
0.010875
0.010721
0.0105124
0.0102487
0.00992908
0.00955323
0.00912181
0.00863503
0.0080918
0.00748885
0.0068207
0.00608109
0.00526571
0.00437331
0.00340466
0.0023622
0.00125319
0.000220443
0.0108901
0.0108145
0.0106835
0.0104984
0.010258
0.00996076
0.00960562
0.00919194
0.00871876
0.00818417
0.00758499
0.0069169
0.00617531
0.00535679
0.00445947
0.00348221
0.00242307
0.00128235
0.000216273
0.0107998
0.0107475
0.0106415
0.0104823
0.0102684
0.0099978
0.00966851
0.00927909
0.00882781
0.00831222
0.00772905
0.00707425
0.00634339
0.00553205
0.00463565
0.00364808
0.0025593
0.00135898
0.00021582
0.0107019
0.0106728
0.0105918
0.010459
0.0102726
0.0100302
0.00972908
0.00936733
0.00894258
0.00845192
0.00789176
0.00725765
0.0065443
0.00574538
0.0048526
0.00385381
0.00272974
0.00145768
0.000217375
0.0105972
0.0105896
0.0105321
0.0104246
0.010265
0.0100502
0.00977747
0.00944419
0.00904755
0.00858414
0.0080498
0.00743931
0.00674603
0.00596128
0.00507295
0.00406292
0.00290303
0.00155848
0.000219437
0.0104877
0.0104989
0.0104625
0.0103779
0.0102428
0.0100539
0.00980793
0.00950204
0.0091329
0.00869653
0.00818806
0.00760125
0.00692798
0.00615719
0.00527321
0.00425265
0.00305981
0.00164953
0.000221178
0.0103767
0.0104035
0.0103848
0.01032
0.0102064
0.0100404
0.00981874
0.00953795
0.00919426
0.00878313
0.00829887
0.0077342
0.00707945
0.00632141
0.00544133
0.00441157
0.00319052
0.00172492
0.000222305
0.010269
0.0103074
0.0103028
0.0102541
0.0101584
0.0100121
0.00981137
0.00955261
0.00923151
0.0088429
0.00838028
0.00783532
0.00719695
0.00645008
0.00557345
0.00453615
0.00329237
0.00178322
0.000222781
0.0101695
0.0102156
0.0102211
0.0101845
0.010103
0.00997255
0.00978928
0.00954911
0.00924729
0.00887802
0.00843404
0.00790603
0.00728169
0.00654433
0.00567075
0.00462767
0.00336646
0.00182467
0.00022266
0.0100826
0.0101324
0.010144
0.0101158
0.0100446
0.00992634
0.00975684
0.0095317
0.0092457
0.00889246
0.00846401
0.00795015
0.0073375
0.0066081
0.00573724
0.00468991
0.00341571
0.00185069
0.000222026
0.0100114
0.0100611
0.0100752
0.0100517
0.00998716
0.00987754
0.00971833
0.00950478
0.00923125
0.00889082
0.00847489
0.00797249
0.00736935
0.0066465
0.005778
0.00472748
0.00344311
0.00186022
0.00022115
0.00995642
0.0100029
0.0100163
0.00999436
0.00993346
0.00982934
0.00967727
0.00947219
0.00920806
0.00887749
0.00847131
0.00797792
0.00738232
0.00666468
0.00579818
0.00474498
0.00345327
0.00186068
0.00022013
0.00991534
0.00995637
0.00996686
0.00994416
0.00988454
0.00978348
0.00963604
0.00943683
0.00917947
0.00885616
0.00845728
0.00797072
0.00738086
0.0066671
0.00580263
0.00474943
0.00345477
0.00185718
0.000218775
0.00988291
0.00991731
0.00992374
0.00989918
0.00983959
0.00974017
0.00959567
0.00940044
0.0091478
0.0088296
0.00843591
0.00795434
0.007369
0.0066592
0.0057974
0.00474547
0.00345036
0.00185116
0.000217157
0.00985128
0.00987912
0.00988166
0.00985549
0.0097961
0.00969816
0.00955603
0.00936376
0.0091145
0.00880001
0.00841017
0.00793233
0.0073505
0.00664391
0.00578484
0.00473511
0.00344148
0.00184342
0.000215351
0.00981083
0.00983334
0.00983349
0.00980748
0.00975012
0.00965521
0.00951628
0.00932706
0.00908069
0.008769
0.00838187
0.00790664
0.00732727
0.00662304
0.00576639
0.00471931
0.00342869
0.00183427
0.0002135
0.00975162
0.00977069
0.00977089
0.00974819
0.00969659
0.00960828
0.00947512
0.0092902
0.00904695
0.00873763
0.00835241
0.00787877
0.00730078
0.00659793
0.00574302
0.0046986
0.00341218
0.00182385
0.000211698
0.00966541
0.0096827
0.00968539
0.00966983
0.0096294
0.00955385
0.00943117
0.00925315
0.00901398
0.00870702
0.00832315
0.00785023
0.00727257
0.00656999
0.00571587
0.00467369
0.00339215
0.00181217
0.000210081
0.00954813
0.00956404
0.00957028
0.00956467
0.00954155
0.00948803
0.00938348
0.00921643
0.00898293
0.00867861
0.00829575
0.00782286
0.00724462
0.00654125
0.00568682
0.00464607
0.00336947
0.00179947
0.00020873
0.00940261
0.00941574
0.00942381
0.00942742
0.00942518
0.00940575
0.00933167
0.00918148
0.00895559
0.00865429
0.00827224
0.00779895
0.00721953
0.0065146
0.00565892
0.00461855
0.00334615
0.00178652
0.000207758
0.00924053
0.00924852
0.00925434
0.00926082
0.00927355
0.00929741
0.00927554
0.00915072
0.00893438
0.00863624
0.00825486
0.00778104
0.0072003
0.00649358
0.00563619
0.00459531
0.00332567
0.00177479
0.000207251
0.00908178
0.00908384
0.00908497
0.00908689
0.00909617
0.00914522
0.00921874
0.00912876
0.00892212
0.00862651
0.0082456
0.0077714
0.00718979
0.00648182
0.00562309
0.0045814
0.00331272
0.00176657
0.000207099
)
;

boundaryField
{
    leftWall
    {
        type            nutkWallFunction;
        Cmu             0.09;
        kappa           0.41;
        E               9.8;
        value           nonuniform List<scalar> 
50
(
2.67133e-06
7.54503e-06
8.77189e-06
9.83396e-06
1.09201e-05
1.36834e-05
1.51985e-05
1.64182e-05
1.80712e-05
2.05674e-05
2.31039e-05
2.57748e-05
2.85076e-05
3.04816e-05
3.04197e-05
2.88763e-05
2.73501e-05
2.58618e-05
2.72338e-05
2.91838e-05
2.95936e-05
2.86283e-05
2.73431e-05
2.6309e-05
2.56061e-05
2.50414e-05
2.44478e-05
2.37221e-05
2.28037e-05
2.16619e-05
2.02902e-05
1.88023e-05
1.72571e-05
1.5671e-05
1.41354e-05
1.27712e-05
1.1689e-05
1.09501e-05
1.05588e-05
1.05003e-05
1.07276e-05
1.1247e-05
1.21126e-05
1.33774e-05
1.51026e-05
1.73615e-05
2.03153e-05
2.44769e-05
3.16688e-05
4.93611e-05
)
;
    }
    rightWall
    {
        type            nutkWallFunction;
        Cmu             0.09;
        kappa           0.41;
        E               9.8;
        value           nonuniform List<scalar> 
50
(
3.6541e-06
1.27379e-05
1.53298e-05
1.82933e-05
2.10716e-05
2.31543e-05
2.46723e-05
2.64042e-05
2.91619e-05
3.27559e-05
3.48934e-05
3.64749e-05
3.77164e-05
3.86755e-05
3.92922e-05
3.94418e-05
3.90314e-05
3.78415e-05
3.69116e-05
3.59107e-05
3.45405e-05
3.81241e-05
3.71011e-05
3.33477e-05
3.03416e-05
2.78659e-05
2.57669e-05
2.41718e-05
2.31816e-05
2.27899e-05
2.28254e-05
2.30584e-05
2.33167e-05
2.35161e-05
2.36297e-05
2.36573e-05
2.36058e-05
2.34871e-05
2.33397e-05
2.31628e-05
2.29398e-05
2.2681e-05
2.23981e-05
2.21125e-05
2.18391e-05
2.15982e-05
2.1401e-05
2.1262e-05
2.11898e-05
2.11805e-05
)
;
    }
    lowerWall
    {
        type            nutkWallFunction;
        Cmu             0.09;
        kappa           0.41;
        E               9.8;
        value           nonuniform List<scalar> 
62
(
2.67133e-06
4.27775e-06
5.23643e-06
5.8926e-06
6.39817e-06
6.81281e-06
7.16186e-06
7.45338e-06
7.69338e-06
7.88684e-06
8.03668e-06
8.14442e-06
8.2136e-06
8.24527e-06
8.23382e-06
8.16575e-06
8.02704e-06
7.81271e-06
7.51075e-06
7.09613e-06
6.51656e-06
5.6519e-06
4.2419e-06
4.2419e-06
1.20876e-05
1.40613e-05
1.56831e-05
1.72455e-05
1.91585e-05
2.21535e-05
2.73416e-05
3.3266e-05
3.21669e-05
3.16354e-05
3.17871e-05
5.52486e-06
1.60761e-05
1.80355e-05
2.08274e-05
2.5026e-05
2.86766e-05
3.26345e-05
3.62953e-05
5.52486e-06
6.68319e-06
7.46134e-06
7.95921e-06
8.36688e-06
8.67074e-06
8.91777e-06
9.18952e-06
9.52303e-06
9.74051e-06
9.90463e-06
1.00912e-05
1.01195e-05
1.00117e-05
9.63536e-06
8.99364e-06
7.89847e-06
6.35936e-06
3.6541e-06
)
;
    }
    atmosphere
    {
        type            calculated;
        value           nonuniform List<scalar> 
46
(
0.009
0.009
0.009
0.009
0.009
0.009
0.009
0.009
0.009
0.009
0.009
0.009
0.009
0.009
0.009
0.009
0.009
0.009
0.009
0.009
0.009
0.009
0.009
0.009
0.009
0.009
0.009
0.009
0.009
0.009
0.009
0.009
0.009
0.00921874
0.00912876
0.00892212
0.00862651
0.0082456
0.0077714
0.00718979
0.00648182
0.00562309
0.0045814
0.00331272
0.00176657
0.000207099
)
;
    }
    defaultFaces
    {
        type            empty;
    }
}


// ************************************************************************* //
