/*--------------------------------*- C++ -*----------------------------------*\
  =========                 |
  \\      /  F ield         | OpenFOAM: The Open Source CFD Toolbox
   \\    /   O peration     | Website:  https://openfoam.org
    \\  /    A nd           | Version:  13
     \\/     M anipulation  |
\*---------------------------------------------------------------------------*/
FoamFile
{
    format      ascii;
    class       volScalarField;
    location    "1.6";
    object      p;
}
// * * * * * * * * * * * * * * * * * * * * * * * * * * * * * * * * * * * * * //

dimensions      [1 -1 -2 0 0 0 0];

internalField   nonuniform List<scalar> 
2268
(
4414.13
4423.67
4449.6
4488.72
4538.33
4597.43
4666.89
4748.54
4844.46
4956.75
5086.96
5235.67
5402.6
5586.36
5784
5991.17
6201.83
6408.82
6603.3
6775.09
6913.4
7007.44
7052.01
3616.55
3625.2
3649.42
3688.79
3739.1
3799.41
3870.03
3952.36
4048.78
4161.4
4291.9
4440.89
4607.89
4791.37
4988.64
5196.09
5408.53
5618.79
5817.26
5992.21
6129.81
6209.39
6247.91
2816.65
2829.14
2850.51
2889.25
2940.01
3000.96
3072.18
3155.17
3252.2
3365.4
3496.51
3646
3813.26
3996.74
4194.01
4402.02
4615.82
4828.41
5029.47
5205.95
5343.7
5416.66
5457.6
2013.63
2029.9
2048.98
2087.45
2138.64
2199.62
2270.81
2353.82
2451.13
2565
2697.22
2847.77
3015.9
3200.37
3398.85
3608.22
3823.74
4039.29
4243.27
4421.65
4562.56
4635.27
4682.51
1276.27
1293.44
1310.38
1339.33
1377.49
1425.36
1483.32
1554.23
1641.96
1751.9
1885.67
2038.85
2210.16
2398.78
2601.25
2814.01
3032.15
3251.82
3459.68
3640.98
3787.82
3865.94
3923.34
902.236
910.405
917.097
925.753
937.933
955.055
978.182
1008.96
1049.85
1106.27
1180.56
1279.17
1412.63
1583.84
1792.63
2016.4
2240.35
2465.93
2678.57
2862.28
3016.3
3104.76
3182.23
827.195
828.686
828.579
827.691
826.867
826.98
828.34
830.933
834.615
839.899
848.616
870.494
916.659
991.423
1101.26
1245.43
1447.05
1685.98
1906.21
2087.72
2246.14
2345.64
2459.52
766.568
768.43
768.566
767.739
766.877
766.638
767.284
768.787
770.975
773.477
776.62
779.568
781.136
781.676
784.134
808.955
890.332
1018.88
1172.23
1341.92
1497.65
1598.13
1733.19
2978.53
2956.69
2890.79
2842.93
2786
2763.73
2715.33
2621.82
2494.43
2355.57
2239.07
2159.99
2111.08
2083.92
2073.84
2083.76
2099.28
2117.15
2100.49
2220.5
2213.88
2182.32
2156.78
2196.33
2220.07
2193.85
2102.77
1969.54
1839.14
1728.93
1641.34
1585.15
1554.75
1549.4
1550.63
1556.48
1578.83
1591.59
1481.93
1540.67
1617.96
1606.85
1588.96
1587.1
1574.96
1516.66
1437.35
1359
1314.31
1268.92
1236.04
1215.26
1211.19
1200.62
1193.24
1196.01
1211.58
1023.93
1107.64
1220.87
1286.52
1226.42
1161.55
1133.46
1108.56
1088.24
1068.79
1054.4
1041.07
1034.12
1032.78
1026.81
1021.58
1018.13
994.949
979.112
893.314
933.715
967.384
1070.85
1073.27
1014.37
973.232
956.599
941.984
937.937
927.21
913.469
908.895
912.03
908.276
897.131
892.123
878.112
866.813
840.68
868.577
855.555
906.256
962.722
946.218
908.338
895.475
891.641
882.235
866.763
855.828
848.662
841.967
834.693
813.103
802.432
806.508
806.223
774.658
823.864
788.824
791.355
846.203
873.15
844.968
833.778
833.541
827.437
816.438
808.12
799.265
788.971
780.307
760.649
747.386
755.516
760.609
686.427
768.978
734.199
702.166
736.568
784.533
775.91
769.05
770.296
767.045
759.565
753.046
745.075
735.133
727.003
712.816
705.279
709.356
716.344
671.142
673.108
673.777
673.453
672.944
672.756
673.141
674.122
675.554
677.177
678.739
679.554
679.142
678.607
679.263
679.35
673.234
670.459
699.344
766.172
830.557
869.33
906.58
540.88
542.134
543.022
543.136
543.024
542.963
543.192
543.807
544.746
545.778
546.662
547.062
546.793
546.058
544.688
541.197
534.234
523.588
507.732
486.507
464.155
444.728
429.319
410.981
410.024
410.696
411.259
411.587
411.65
411.703
412.003
412.632
413.243
413.486
413.393
413.237
412.939
411.768
408.179
401.612
392.793
382.582
371.792
360.277
347.152
333.458
287.244
282.89
282.837
283.674
284.017
283.514
283.765
284.609
285.232
285.644
285.922
286.086
286.153
286.145
285.47
282.941
278.01
271.726
264.619
257.508
250.157
242.33
234.914
190.134
186.564
186.504
187.067
187.047
186.459
187.212
188.925
190.175
190.849
191.566
192.392
192.835
192.533
191.444
189.687
187.361
184.27
180.535
176.329
172.385
169.43
168.571
124.782
120.545
119.517
119.968
120.427
120.953
121.806
123.251
124.606
125.403
126.031
126.605
126.901
126.672
125.594
124.252
123.169
121.493
119.304
116.18
113.374
112.087
113.135
72.068
64.7297
60.1758
58.2883
58.2591
58.8629
59.269
59.5382
60.1585
61.0339
61.7537
62.1655
62.2349
61.9415
61.5045
60.9129
60.1181
58.4148
56.102
54.0255
52.4217
51.4019
50.2635
29.6473
25.051
19.3481
16.7392
16.5539
16.4423
16.4622
16.6198
16.9535
17.2995
17.5249
17.649
17.702
17.6161
17.3987
17.0719
16.6185
16.1851
15.8344
15.5852
15.4886
15.4436
15.4423
10.1731
9.55691
7.46603
5.97684
5.49343
5.32688
5.2687
5.23542
5.18975
5.12473
5.04126
4.93796
4.81768
4.6734
4.5019
4.20743
3.91268
3.67655
3.56649
3.57043
3.62875
3.63892
3.57202
5.23687
5.6005
5.56755
5.386
5.28492
5.24046
5.21158
5.18126
5.14257
5.09257
5.02787
4.94422
4.84486
4.73009
4.58786
4.41517
4.22644
4.05755
3.92777
3.8343
3.75592
3.66783
3.5546
5.10264
5.06174
5.15466
5.16045
5.13937
5.10781
5.07258
5.0347
4.98959
4.93463
4.86522
4.77881
4.6785
4.5699
4.44719
4.31411
4.16979
4.02645
3.88652
3.75274
3.62092
3.4927
3.34193
4.96213
4.9476
4.93952
4.97557
4.98094
4.96004
4.92816
4.88923
4.84203
4.78507
4.71313
4.62734
4.52848
4.42043
4.3071
4.18059
4.04905
3.90851
3.76216
3.61391
3.46865
3.33289
3.18849
4.82702
4.81453
4.81381
4.82711
4.82806
4.81153
4.78323
4.74534
4.69765
4.63935
4.56808
4.48489
4.38954
4.28337
4.16644
4.04233
3.90875
3.76684
3.61965
3.47204
3.32986
3.20401
3.07489
4.69124
4.68259
4.68076
4.68484
4.68032
4.66364
4.63682
4.59978
4.55201
4.49261
4.42413
4.34422
4.25327
4.15249
4.04055
3.91843
3.78706
3.64777
3.50309
3.35815
3.21876
3.09479
2.96661
4.5513
4.54544
4.54254
4.54098
4.53283
4.51545
4.48889
4.45258
4.40577
4.34778
4.28031
4.20397
4.11871
4.02347
3.91775
3.80263
3.67818
3.54422
3.4023
3.25758
3.11673
2.99088
2.8619
4.4067
4.40244
4.39898
4.39423
4.38387
4.36585
4.3395
4.30424
4.25936
4.20433
4.13942
4.06619
3.98517
3.89432
3.79387
3.68444
3.5655
3.43634
3.29811
3.15587
3.01624
2.89092
2.76258
4.25795
4.25439
4.25059
4.24427
4.23273
4.21441
4.18851
4.15441
4.1116
4.05959
3.99852
3.92891
3.85095
3.76405
3.66822
3.56359
3.44942
3.32495
3.19125
3.0531
2.91691
2.79432
2.66826
4.10542
4.10221
4.09827
4.09125
4.0792
4.06094
4.03568
4.00288
3.96207
3.91289
3.85523
3.78924
3.71496
3.63216
3.54088
3.44091
3.33151
3.21201
3.08345
2.95044
2.81896
2.70023
2.57783
3.94966
3.94671
3.94276
3.9355
3.92338
3.90547
3.88106
3.84967
3.81089
3.76437
3.70994
3.64754
3.57713
3.49862
3.41194
3.31673
3.21233
3.09813
2.97522
2.84792
2.7219
2.60784
2.48963
3.79121
3.78855
3.78469
3.77745
3.76554
3.74819
3.7248
3.69493
3.65819
3.61428
3.56296
3.50411
3.43763
3.36344
3.28137
3.19107
3.09189
2.9833
2.86635
2.7452
2.62505
2.51603
2.40292
3.63056
3.62826
3.62459
3.61754
3.60601
3.58938
3.56712
3.53881
3.50413
3.46276
3.41446
3.35908
3.29649
3.22657
3.14914
3.06384
2.97004
2.86728
2.75656
2.64174
2.52771
2.42399
2.31589
3.46817
3.46634
3.46295
3.45619
3.44516
3.42934
3.40826
3.38154
3.34887
3.30996
3.26458
3.21255
3.15375
3.08804
3.01523
2.93494
2.84662
2.74982
2.64545
2.53713
2.42937
2.33095
2.22831
3.30453
3.30324
3.30021
3.29381
3.28334
3.26836
3.24848
3.22331
3.19257
3.15602
3.11343
3.06463
3.00949
2.94787
2.8796
2.80431
2.72147
2.63067
2.53276
2.43104
2.32971
2.23686
2.13965
3.14001
3.13934
3.1367
3.13071
3.12084
3.10672
3.08799
3.0643
3.03541
3.00108
2.96113
2.9154
2.86376
2.8061
2.74224
2.67186
2.59446
2.50965
2.41821
2.3232
2.22842
2.14129
2.0502
2.97492
2.97479
2.97257
2.96705
2.95781
2.94454
2.92693
2.90464
2.87748
2.84524
2.80776
2.76493
2.71663
2.66276
2.60317
2.53757
2.4655
2.38662
2.30163
2.21327
2.12504
2.04375
1.95857
2.80938
2.80972
2.80792
2.80289
2.79429
2.78188
2.76536
2.7444
2.71884
2.68854
2.65338
2.61326
2.56812
2.51787
2.46239
2.40141
2.33455
2.26147
2.18278
2.10098
2.01922
1.94361
1.8645
2.64348
2.6442
2.64279
2.63827
2.63033
2.61875
2.60325
2.58355
2.55951
2.53102
2.498
2.46043
2.41827
2.37147
2.31992
2.2634
2.20157
2.13411
2.06157
1.98616
1.91076
1.84084
1.76749
2.47724
2.47822
2.47719
2.47318
2.46588
2.45509
2.44055
2.42202
2.3994
2.37263
2.34166
2.30649
2.26712
2.22359
2.17581
2.12358
2.06659
2.00456
1.93796
1.86878
1.7996
1.7353
1.66796
2.31062
2.31175
2.31107
2.30756
2.30088
2.29082
2.27717
2.25972
2.23845
2.2133
2.18427
2.15141
2.11475
2.07433
2.03012
1.98201
1.92969
1.8729
1.81206
1.74892
1.68579
1.62705
1.56531
2.14357
2.14478
2.1444
2.14134
2.13521
2.12583
2.11298
2.09655
2.07653
2.05293
2.02579
1.99516
1.96113
1.92376
1.88305
1.83888
1.79104
1.73931
1.68403
1.62675
1.56954
1.51617
1.45993
1.97606
1.97729
1.97713
1.97444
1.96879
1.95998
1.94785
1.93237
1.91357
1.89147
1.86617
1.83775
1.80631
1.77195
1.73467
1.6944
1.65094
1.60409
1.55418
1.50261
1.45121
1.40333
1.35206
1.80798
1.80919
1.80919
1.80677
1.80148
1.79315
1.7817
1.76713
1.74951
1.72891
1.70543
1.67921
1.65037
1.619
1.58514
1.54873
1.5096
1.46757
1.42293
1.37692
1.33126
1.28917
1.24223
1.63923
1.64038
1.64045
1.63821
1.6332
1.62531
1.61451
1.60084
1.58441
1.56532
1.5437
1.5197
1.49347
1.46511
1.43467
1.40211
1.36727
1.33
1.29055
1.25
1.20972
1.17234
1.13221
1.46985
1.4709
1.47095
1.4688
1.46403
1.45656
1.44641
1.43366
1.41845
1.4009
1.38119
1.35946
1.33588
1.31055
1.28354
1.25481
1.22423
1.19165
1.15728
1.12205
1.08713
1.05468
1.02047
1.29999
1.30088
1.30084
1.29873
1.29419
1.28715
1.27767
1.26588
1.25193
1.236
1.21825
1.19885
1.17796
1.15569
1.1321
1.10716
1.08077
1.05277
1.02335
0.993285
0.963552
0.936002
0.907045
1.1298
1.13052
1.13037
1.12832
1.12401
1.11743
1.10866
1.09788
1.08527
1.07101
1.05529
1.03827
1.0201
1.00089
0.98069
0.959484
0.937161
0.913599
0.888928
0.863802
0.839039
0.816156
0.792227
0.959472
0.960013
0.959789
0.957846
0.953827
0.947739
0.939738
0.930032
0.918835
0.906339
0.892718
0.878126
0.862694
0.846519
0.829648
0.812058
0.793651
0.774313
0.754151
0.733693
0.71357
0.695052
0.675672
0.789166
0.789503
0.789293
0.787532
0.783847
0.778304
0.771135
0.762596
0.752912
0.742268
0.730818
0.718694
0.706004
0.692824
0.679188
0.665073
0.650389
0.635039
0.619094
0.602963
0.58716
0.572613
0.557392
0.619025
0.619069
0.618922
0.617371
0.614013
0.609041
0.602787
0.595534
0.587493
0.578818
0.569628
0.560021
0.550075
0.539842
0.529344
0.518553
0.507393
0.49578
0.483767
0.471674
0.459845
0.448976
0.43756
0.449276
0.448992
0.448881
0.447371
0.444206
0.43982
0.434613
0.428833
0.422625
0.416086
0.409282
0.40227
0.395095
0.387786
0.380349
0.37276
0.364956
0.356873
0.348553
0.340214
0.332121
0.324721
0.316965
0.279998
0.278907
0.278906
0.277297
0.274281
0.270668
0.266806
0.262798
0.258678
0.254466
0.250178
0.24583
0.241439
0.237013
0.23255
0.228028
0.223406
0.218641
0.213763
0.208916
0.20424
0.199964
0.195469
0.100513
0.0951114
0.0971293
0.0965863
0.0950208
0.0933734
0.0917895
0.0902494
0.0887297
0.0872172
0.085706
0.0841957
0.0826876
0.0811824
0.0796767
0.0781617
0.0766212
0.0750413
0.0734314
0.0718369
0.0703122
0.0688674
0.0673022
937.801
924.612
915.962
852.848
425.522
421.396
411.084
402.119
321.574
315.182
309.957
308.042
230.975
230.743
232.863
236.469
170.582
172.659
175.356
179.244
116.371
118.495
120.126
121.007
47.122
46.6034
48.0033
51.0582
15.9788
17.048
17.4881
17.197
3.46895
3.41924
3.2157
2.88865
3.35441
3.12932
2.87401
2.6651
3.09777
2.84653
2.56895
2.35862
2.94879
2.69535
2.40641
2.18941
2.8511
2.60222
2.31156
2.08896
2.74047
2.48943
2.20043
1.98244
2.63303
2.38124
2.09413
1.88
2.53486
2.28564
2.00297
1.79258
2.44488
2.20049
1.92331
1.71724
2.36008
2.12202
1.8525
1.65141
2.27934
2.04917
1.78791
1.59267
2.20107
1.98
1.72887
1.53986
2.12363
1.91281
1.67216
1.49044
2.04571
1.84572
1.61742
1.44372
1.96775
1.7794
1.56334
1.39834
1.88941
1.71315
1.51051
1.35412
1.80943
1.64566
1.456
1.30882
1.72647
1.57502
1.3994
1.26174
1.64074
1.50161
1.33935
1.21161
1.55217
1.42512
1.27668
1.15863
1.46036
1.34515
1.2097
1.10157
1.36504
1.2611
1.13897
1.04075
1.26714
1.17415
1.06441
0.976036
1.16719
1.08487
0.987531
0.908476
1.06599
0.99337
0.907747
0.838117
0.96308
0.89986
0.824646
0.763084
0.858101
0.80383
0.738714
0.685286
0.751298
0.705585
0.650502
0.60481
0.642337
0.604791
0.559017
0.52086
0.530908
0.500943
0.464355
0.433477
0.417473
0.394642
0.366497
0.342627
0.302883
0.28678
0.266783
0.24939
0.187748
0.178163
0.16573
0.154175
0.0651352
0.0620622
0.0579575
0.0535279
579.724
632.784
633.186
592.678
594.251
626.864
653.912
662.145
669.039
671.15
668.892
665.049
658.831
650.774
646.023
645.399
649.247
651.713
656.979
404.625
457.134
476.1
460.131
449.461
460.522
490.931
517.564
533.558
543.168
546.129
544.16
543.589
545.532
551.323
564.467
575.717
580.438
585.429
312.605
341.233
362.863
371.749
368.669
365.795
377.542
397.329
413.674
425.795
435.071
443.292
453.709
466.214
479.955
494.967
506.428
513.628
521.208
243.145
261.348
281.495
294.581
298.256
301.851
309.941
317.078
326.649
337.968
352.348
370.187
386.4
401.19
415.593
429.527
440.77
449.801
459.567
185.859
198.891
212.25
222.067
228.064
234.374
243.257
253.269
262.557
274.371
289.319
306.363
322.896
338.402
352.968
366.261
377.638
388.061
399.585
123.179
131.193
140.841
149.542
157.141
165.203
174.938
186.079
198.243
211.653
226.752
243.531
260.327
276.405
291.312
304.751
316.703
328.166
340.61
57.8443
63.7998
70.3113
77.4471
85.1801
94.2692
104.934
117.236
131.442
146.894
163.614
181.15
198.595
215.242
230.875
245.02
258.044
270.418
283.244
16.6626
17.1677
18.9911
21.6606
25.5722
31.1778
38.6993
48.3942
61.3644
78.5366
98.9244
119.584
139.044
156.698
172.925
187.907
201.961
215.157
228.153
2.53224
2.34871
2.2471
2.09203
2.53846
3.64478
5.54746
8.35327
12.8136
21.546
35.9506
54.8038
75.7116
98.2017
118.372
134.844
149.611
162.853
176.062
2.43418
2.29511
2.18055
2.07433
2.00513
1.99808
2.01911
2.04493
2.08547
2.25326
4.58122
10.5413
21.3964
37.2206
58.0031
80.7865
101.417
114.127
125.275
2.18977
2.1264
2.04679
1.97279
1.91155
1.87744
1.85081
1.82626
1.80201
1.78339
1.79761
1.90356
2.09002
4.19548
12.3537
28.8344
49.4435
68.9599
77.7141
2.02215
1.96771
1.91282
1.84294
1.79168
1.7476
1.71608
1.69642
1.66802
1.6277
1.58545
1.57717
1.60841
1.73014
1.97538
2.68889
11.8124
27.7797
37.9446
1.90595
1.84413
1.78151
1.71947
1.65877
1.60868
1.57538
1.5559
1.52836
1.5002
1.47444
1.46822
1.46905
1.4582
1.51355
1.57264
1.75804
3.941
9.54385
1.80306
1.73928
1.67498
1.60492
1.54063
1.48641
1.44135
1.40277
1.37359
1.34906
1.34404
1.34757
1.35371
1.35704
1.31191
1.24071
1.25558
1.27837
1.58222
1.70722
1.64611
1.58139
1.50952
1.44188
1.38175
1.32787
1.27916
1.24458
1.22444
1.21573
1.20961
1.19857
1.16885
1.12806
1.05739
0.992289
0.959591
0.941779
1.62315
1.5626
1.49712
1.42376
1.35375
1.29038
1.23419
1.18546
1.14723
1.11995
1.1002
1.08036
1.04915
1.0174
0.986447
0.938938
0.893498
0.878468
0.870992
1.55052
1.48872
1.42191
1.34696
1.27515
1.2097
1.15158
1.10126
1.05998
1.02709
1.00017
0.975306
0.947153
0.919589
0.896194
0.871579
0.845651
0.822314
0.817357
1.48724
1.42402
1.35564
1.27918
1.20576
1.13856
1.07869
1.02645
0.982418
0.945726
0.914458
0.886261
0.859021
0.833147
0.812756
0.796637
0.784985
0.776194
0.766641
1.43192
1.3672
1.29743
1.21966
1.14477
1.07591
1.01427
0.960058
0.913474
0.873935
0.84009
0.810283
0.783565
0.760747
0.743406
0.731434
0.724696
0.7217
0.720105
1.3824
1.31678
1.24598
1.16723
1.09111
1.0207
0.957267
0.901036
0.852132
0.810207
0.774514
0.744108
0.718384
0.69794
0.68342
0.674331
0.669759
0.668074
0.666559
1.33765
1.27135
1.20001
1.1207
1.04367
0.971945
0.906844
0.848688
0.797662
0.75364
0.716271
0.68511
0.659891
0.640835
0.628113
0.621083
0.618323
0.617502
0.615131
1.29585
1.22966
1.15824
1.07886
1.00135
0.928664
0.86219
0.802363
0.749475
0.703595
0.664648
0.632505
0.607112
0.588579
0.576798
0.571006
0.569499
0.569608
0.567499
1.25642
1.19047
1.11948
1.04053
0.963039
0.889875
0.822457
0.761353
0.706965
0.659523
0.61916
0.585959
0.560003
0.54136
0.529802
0.524436
0.52354
0.524323
0.522823
1.21766
1.15258
1.08249
1.00455
0.927648
0.854561
0.786736
0.724857
0.669428
0.620807
0.579278
0.545068
0.518355
0.499195
0.487302
0.481811
0.480938
0.481937
0.481145
1.17887
1.11484
1.04617
0.969807
0.894092
0.821693
0.754066
0.691987
0.636045
0.586697
0.544333
0.50928
0.48178
0.461899
0.449362
0.443287
0.442044
0.443013
0.44275
1.13841
1.07619
1.00946
0.935262
0.861348
0.790266
0.723468
0.661799
0.605911
0.556333
0.513528
0.477892
0.449712
0.429076
0.415722
0.408886
0.406992
0.407646
0.407819
1.09592
1.03576
0.971488
0.900007
0.828486
0.759339
0.693999
0.633351
0.578092
0.528801
0.485989
0.450095
0.42144
0.40014
0.385986
0.378243
0.375581
0.375842
0.376194
1.05028
0.992865
0.931518
0.863282
0.794715
0.728085
0.664798
0.60576
0.551691
0.503201
0.46083
0.425043
0.396185
0.374401
0.359516
0.350949
0.347458
0.347162
0.347612
1.00145
0.947014
0.889041
0.82451
0.75939
0.695804
0.635117
0.578234
0.525885
0.478691
0.437206
0.401907
0.373155
0.351123
0.3357
0.326341
0.322075
0.321251
0.321582
0.948805
0.897923
0.843697
0.783258
0.722011
0.66193
0.604326
0.550092
0.499949
0.454515
0.414345
0.379917
0.3516
0.329588
0.313804
0.303864
0.298875
0.297445
0.297629
0.892768
0.84547
0.795268
0.739224
0.682196
0.626006
0.571904
0.520754
0.473254
0.430009
0.391558
0.358372
0.330819
0.309105
0.293215
0.282793
0.277213
0.275276
0.275227
0.833166
0.789541
0.743604
0.692184
0.63965
0.58767
0.537423
0.489732
0.445263
0.40459
0.368233
0.336642
0.310173
0.289041
0.27326
0.262634
0.256582
0.254159
0.253908
0.770485
0.729919
0.688606
0.641985
0.59414
0.546621
0.500519
0.456609
0.41551
0.377755
0.343832
0.314169
0.28911
0.268871
0.253509
0.242829
0.23648
0.233692
0.233128
0.703708
0.667468
0.630342
0.588521
0.545486
0.502615
0.460896
0.421041
0.383615
0.349108
0.317958
0.290559
0.267231
0.248182
0.233461
0.222994
0.216445
0.213269
0.212493
0.63346
0.60193
0.568832
0.531763
0.49362
0.45555
0.418419
0.382864
0.349381
0.318407
0.29033
0.26549
0.244168
0.226547
0.212708
0.20256
0.195992
0.192614
0.191555
0.559967
0.532713
0.503855
0.471633
0.438477
0.405354
0.373
0.341961
0.312655
0.285449
0.260675
0.238624
0.219534
0.203566
0.19079
0.181241
0.174794
0.17124
0.170046
0.48309
0.459807
0.435251
0.407952
0.379901
0.351887
0.3245
0.298181
0.273254
0.25002
0.228756
0.209704
0.193058
0.178958
0.167495
0.158666
0.15254
0.149023
0.147647
0.402437
0.383165
0.362944
0.340634
0.31783
0.295149
0.272963
0.251572
0.231206
0.212123
0.194552
0.178687
0.164683
0.152652
0.142662
0.134812
0.129122
0.12564
0.124239
0.318355
0.302939
0.287036
0.26977
0.252393
0.235386
0.218665
0.20242
0.186773
0.171986
0.158263
0.14575
0.134558
0.124768
0.116451
0.109635
0.104488
0.101182
0.0996224
0.231119
0.219404
0.207768
0.195552
0.183755
0.173189
0.162207
0.151265
0.140464
0.13009
0.120342
0.111323
0.103095
0.095694
0.089136
0.0834949
0.0788699
0.0754716
0.0737225
0.14071
0.132241
0.124797
0.117428
0.111048
0.108537
0.10396
0.0982744
0.0923438
0.0864753
0.08083
0.0754601
0.0703665
0.0655291
0.0609198
0.0564948
0.0522982
0.0486233
0.0462072
0.0473602
0.0437568
0.0409913
0.0382813
0.0357153
0.0366676
0.0361163
0.0346377
0.0329398
0.0311841
0.0294497
0.0277513
0.0260759
0.0244016
0.0226963
0.0209284
0.0190782
0.017301
0.0159933
)
;

boundaryField
{
    leftWall
    {
        type            calculated;
        value           nonuniform List<scalar> 
50
(
4414.13
3616.55
2816.65
2013.63
1276.27
902.236
827.195
766.568
671.142
540.88
410.981
287.244
190.134
124.782
72.068
29.6473
10.1731
5.23687
5.10264
4.96213
4.82702
4.69124
4.5513
4.4067
4.25795
4.10542
3.94966
3.79121
3.63056
3.46817
3.30453
3.14001
2.97492
2.80938
2.64348
2.47724
2.31062
2.14357
1.97606
1.80798
1.63923
1.46985
1.29999
1.1298
0.959472
0.789166
0.619025
0.449276
0.279998
0.100513
)
;
    }
    rightWall
    {
        type            calculated;
        value           nonuniform List<scalar> 
50
(
2100.49
1591.59
1211.58
979.112
866.813
806.223
760.609
716.344
656.979
585.429
521.208
459.567
399.585
340.61
283.244
228.153
176.062
125.275
77.7141
37.9446
9.54385
1.58222
0.941779
0.870992
0.817357
0.766641
0.720105
0.666559
0.615131
0.567499
0.522823
0.481145
0.44275
0.407819
0.376194
0.347612
0.321582
0.297629
0.275227
0.253908
0.233128
0.212493
0.191555
0.170046
0.147647
0.124239
0.0996224
0.0737225
0.0462072
0.0159933
)
;
    }
    lowerWall
    {
        type            calculated;
        value           nonuniform List<scalar> 
62
(
4812.28
4821.82
4847.75
4886.87
4936.48
4995.58
5065.04
5146.69
5242.61
5354.9
5485.11
5633.82
5800.75
5984.51
6182.15
6389.32
6599.98
6806.97
7001.45
7173.24
7311.53
7405.38
7449.94
7052.01
6247.91
5457.6
4682.51
3923.34
3182.23
2459.52
1733.19
1380.86
1359.85
1419.35
1363.86
2978.53
2220.5
1481.93
1023.93
893.314
840.68
774.658
686.427
3329.49
3307.61
3241.46
3185.64
3028.74
2989.46
2943.5
2856.79
2729.4
2597.46
2512.74
2442.64
2397.13
2370.6
2359.98
2368.39
2383.94
2401.28
2384.6
)
;
    }
    atmosphere
    {
        type            calculated;
        value           nonuniform List<scalar> 
46
(
-0.000158057
-0.000694701
-0.000592394
-0.000485697
-0.000400164
-0.000339385
-0.000297363
-0.000268136
-0.000247301
-0.000231716
-0.000219126
-0.000207867
-0.000196718
-0.000184776
-0.000171436
-0.000156338
-0.000139381
-0.000120675
-0.000100773
-8.08746e-05
-6.26631e-05
-4.58414e-05
-3.42625e-05
-6.24738e-05
-5.60475e-05
-4.39874e-05
-3.06508e-05
-1.88192e-05
-4.86987e-06
0
0
0
0
0
0
0
0
0
0
0
0
0
0
0
0
0
)
;
    }
    defaultFaces
    {
        type            empty;
    }
}


// ************************************************************************* //
