/*--------------------------------*- C++ -*----------------------------------*\
  =========                 |
  \\      /  F ield         | OpenFOAM: The Open Source CFD Toolbox
   \\    /   O peration     | Website:  https://openfoam.org
    \\  /    A nd           | Version:  13
     \\/     M anipulation  |
\*---------------------------------------------------------------------------*/
FoamFile
{
    format      ascii;
    class       volScalarField;
    location    "1.6";
    object      p_rgh;
}
// * * * * * * * * * * * * * * * * * * * * * * * * * * * * * * * * * * * * * //

dimensions      [1 -1 -2 0 0 0 0];

internalField   nonuniform List<scalar> 
2268
(
4812.28
4821.82
4847.75
4886.87
4936.48
4995.58
5065.04
5146.69
5242.61
5354.9
5485.11
5633.82
5800.75
5984.51
6182.15
6389.32
6599.98
6806.97
7001.45
7173.24
7311.53
7405.38
7449.94
4811
4819.65
4843.87
4883.24
4933.55
4993.86
5064.48
5146.81
5243.23
5355.85
5486.35
5635.34
5802.34
5985.82
6183.09
6390.54
6602.98
6813.24
7011.71
7186.66
7324.26
7403.62
7441.71
4807.4
4819.89
4841.26
4880
4930.76
4991.71
5062.93
5145.92
5242.95
5356.14
5487.26
5636.75
5804.01
5987.49
6184.76
6392.77
6606.57
6819.16
7020.21
7196.7
7334.45
7407.4
7448.2
4800.68
4816.95
4836.03
4874.5
4925.69
4986.67
5057.86
5140.86
5238.18
5352.05
5484.27
5634.82
5802.94
5987.42
6185.9
6395.27
6610.79
6826.34
7030.32
7208.69
7349.61
7422.32
7469.56
4237.01
4234.59
4280.29
4403.74
4559.57
4720.17
4878.6
5037.13
5195.7
5335.25
5469.02
5622.2
5793.5
5982.13
6184.6
6397.36
6615.49
6835.16
7043.02
7224.33
7371.16
7449.29
7506.69
1388.93
1478.41
1554.09
1663.2
1813.84
2005.48
2246.24
2555.75
2963.51
3516.08
4211.19
4900.2
5480.29
5925.5
6172.28
6396.05
6620
6845.58
7058.22
7241.93
7395.95
7484.4
7561.87
1209.78
1211.27
1211.16
1210.27
1209.45
1209.56
1210.92
1213.51
1217.2
1236.91
1290.38
1537.26
2142.66
3139.31
4592.34
5981.52
6623
6861.93
7082.16
7263.66
7422.09
7521.58
7635.47
1208.01
1209.87
1210.01
1209.18
1208.32
1208.08
1208.72
1210.23
1212.42
1214.92
1218.06
1221.01
1222.58
1223.12
1288.94
1798.83
3409.42
5565.91
6961.24
7220.41
7401.65
7518.28
7684.83
3329.49
3307.61
3241.46
3185.64
3028.74
2989.46
2943.5
2856.79
2729.4
2597.46
2512.74
2442.64
2397.13
2370.6
2359.98
2368.39
2383.94
2401.28
2384.6
3273.73
3267.6
3182.67
3180.99
3220.77
3232.58
3179.14
3086.3
2952.41
2730.4
2461.01
2352.13
2286.54
2251.98
2222
2263.56
2315.3
2343.74
2257.01
3160.35
3012.17
2637.93
2595.35
2940.67
3202.92
3181.82
2905.02
2471.9
2234.1
2140.09
1927.95
1788.21
1729.03
1763.27
1747.22
1723.73
1845.07
2003.95
1706.13
2065.47
2544.07
2073.54
1906.25
1951.69
1981.05
1877.35
1874.88
1683.94
1628.53
1661.71
1634.35
1558.29
1531.65
1507.58
1473.4
1469.12
1500.09
1122.71
1366.67
1723.79
2029.39
1520.55
1280.91
1235.44
1150.65
1058.82
1180.41
1255.09
1223.33
1247.81
1320.59
1326.81
1391.81
1429.9
1320.8
1209.8
1059.12
1200.48
1355.82
1723.31
1513.47
1270.23
1232.37
1219.06
1178.16
1151.3
1110.08
1085.92
1113.51
1147.55
1144.6
1119.28
1128.4
1097.25
1043.94
1191.71
1125.82
1184.29
1597.55
1650.31
1299.16
1227.96
1216.73
1218.59
1213.01
1195.66
1179.51
1172
1170.82
1158.9
1060.57
1036.59
1059.27
1063.52
1448.18
1230.13
1079.88
1360.31
1572.45
1517.53
1220.74
1210.99
1213.2
1210.14
1201.92
1194.71
1186.49
1177.14
1169.92
1043.66
932.414
1010.28
1008.55
1204.61
1206.58
1207.24
1206.92
1206.41
1206.22
1206.61
1207.59
1209.02
1210.64
1212.21
1213.02
1212.61
1212.07
1212.73
1212.82
1210.07
1395.51
2079.9
3130.53
4012.61
4453.67
4779.34
1199.54
1200.8
1201.68
1201.8
1201.69
1201.62
1201.85
1202.47
1203.41
1204.44
1205.32
1205.72
1205.45
1204.72
1203.35
1199.86
1192.9
1182.25
1166.39
1145.17
1122.82
1103.38
1087.95
1194.84
1193.09
1192.93
1194.51
1195.44
1195.51
1195.56
1195.86
1196.49
1197.1
1197.34
1197.25
1197.09
1196.8
1195.62
1192.04
1185.47
1176.65
1166.44
1155.65
1144.13
1130.34
1115.83
1127.25
1105.07
1109.69
1123.72
1135.16
1145.96
1140.64
1129.98
1133.32
1138.01
1130.62
1117.82
1118.69
1133.31
1154.63
1154.94
1143.98
1125.77
1112.35
1101.29
1081.46
1034.8
987.444
809.894
741.04
748.099
756.045
767.799
737.811
733.466
741.699
735.81
732.792
733.334
736.21
740.677
746.846
769.043
780.528
750.764
732.958
711.622
710.08
705.487
675.981
636.574
589.894
687.04
688.779
689.226
687.734
644.068
637.548
664.991
677.603
667.304
656.774
655.634
661.247
671.435
669.31
659.167
662.591
671.848
693.881
695.804
693.094
691.806
692.857
606.168
663.79
643.784
659.325
670.789
681.232
688.279
693.509
697.494
700.454
702.506
703.792
704.452
704.259
703.822
703.23
702.435
700.732
698.419
696.343
694.739
693.719
692.581
422.472
285.755
217.508
200.144
227.287
261.634
288.52
309.738
334.915
363.522
391.685
417.875
440.24
459.839
477.669
494.86
504.842
505.508
494.122
474.884
454.803
433.169
402.767
134.308
98.0067
13.7605
7.52454
7.02883
6.86206
6.804
6.77085
6.72517
6.66019
6.57683
6.47374
6.35288
6.20847
6.03694
5.74246
5.44772
5.21158
5.10152
5.10545
5.16377
5.17395
5.10705
6.89764
25.9461
17.8641
7.07967
6.9511
6.9009
6.8718
6.84151
6.80288
6.75291
6.68877
6.60557
6.50544
6.3904
6.2481
6.07539
5.88666
5.71778
5.588
5.49453
5.41614
5.32807
5.21483
6.88858
6.84904
12.0166
7.37631
6.92773
6.89337
6.85804
6.82034
6.7761
6.72132
6.69898
6.57429
6.46569
6.35547
6.23261
6.09953
5.95524
5.81213
5.67237
5.53851
5.40659
5.27831
5.1275
6.87339
6.86965
7.09741
7.0027
6.89278
6.87076
6.8389
6.80016
6.7534
6.78366
6.79309
6.6627
6.45449
6.33313
6.21926
6.09347
5.96189
5.82079
5.67371
5.52526
5.37991
5.244
5.09925
6.86357
6.85118
6.85114
6.86423
6.86414
6.84748
6.81922
6.78151
6.73428
6.84988
6.78345
6.70119
6.47877
6.32308
6.20575
6.08428
5.95029
5.80444
5.65615
5.50824
5.366
5.24003
5.11078
6.85325
6.84543
6.84275
6.84618
6.84147
6.82475
6.79801
6.7611
6.71508
6.76706
6.77125
6.69467
6.4731
6.32003
6.20825
6.0861
5.95371
5.80958
5.66431
5.51926
5.37986
5.25588
5.12764
6.83782
6.83241
6.82904
6.82735
6.81913
6.80175
6.77525
6.73898
6.69504
6.63401
6.652
6.62034
6.42881
6.31683
6.21127
6.09417
5.96551
5.83066
5.68859
5.54384
5.403
5.27713
5.14812
6.81817
6.81395
6.8105
6.80573
6.79536
6.77733
6.75097
6.7157
6.67077
6.61573
6.55083
6.47762
6.39847
6.30897
6.20684
6.09602
5.97692
5.84783
5.70958
5.56731
5.42769
5.30233
5.17399
6.79463
6.79109
6.7873
6.78098
6.76941
6.75106
6.72513
6.69102
6.6482
6.59619
6.53512
6.46551
6.38773
6.30427
6.2057
6.10018
5.98606
5.86162
5.7279
5.58973
5.45353
5.33093
5.20486
6.76729
6.76411
6.76018
6.75315
6.74106
6.72277
6.69749
6.66468
6.62387
6.57468
6.51702
6.45109
6.37778
6.29734
6.20306
6.1027
5.99335
5.87385
5.74527
5.61224
5.48076
5.36203
5.23963
6.73671
6.73379
6.72985
6.7226
6.71044
6.69249
6.66807
6.63667
6.59788
6.55136
6.49693
6.43464
6.36449
6.2856
6.19895
6.10376
5.99935
5.88515
5.76222
5.63491
5.50889
5.39483
5.27662
6.70345
6.7008
6.69695
6.68972
6.6778
6.66041
6.637
6.60712
6.57038
6.52646
6.47514
6.41628
6.3498
6.27561
6.19355
6.1033
6.00408
5.89549
5.77853
5.65738
5.53723
5.4282
5.3151
6.66797
6.66569
6.66202
6.65497
6.64345
6.62679
6.60451
6.57619
6.5415
6.50013
6.45183
6.39645
6.33385
6.26393
6.18651
6.10121
6.00742
5.90466
5.79393
5.67911
5.56507
5.46136
5.35326
6.63077
6.62894
6.62555
6.61879
6.60777
6.59194
6.57084
6.54411
6.51143
6.47252
6.42714
6.37511
6.31631
6.2506
6.17779
6.0975
6.00918
5.91238
5.808
5.69969
5.59193
5.4935
5.39087
6.59231
6.59102
6.58799
6.58159
6.57112
6.55614
6.53625
6.51107
6.48033
6.44378
6.40119
6.35238
6.29724
6.23563
6.16735
6.09206
6.00922
5.91842
5.82051
5.71879
5.61746
5.52461
5.4274
6.55298
6.5523
6.54966
6.54367
6.53379
6.51968
6.50095
6.47725
6.44835
6.41403
6.37408
6.32834
6.27671
6.21905
6.15519
6.0848
6.0074
5.92259
5.83115
5.73614
5.64136
5.55423
5.46314
6.51308
6.51294
6.51072
6.50519
6.49595
6.48269
6.46507
6.44278
6.41562
6.38338
6.3459
6.30306
6.25476
6.2009
6.14131
6.0757
6.00364
5.92476
5.83977
5.75141
5.66318
5.58189
5.49671
6.47272
6.47306
6.47125
6.46622
6.45762
6.44522
6.42869
6.40774
6.38217
6.35187
6.31671
6.27659
6.23145
6.1812
6.12572
6.06474
5.99788
5.9248
5.84611
5.76431
5.68256
5.60694
5.52783
6.43202
6.43273
6.43132
6.4268
6.41885
6.40727
6.39177
6.37207
6.34803
6.31955
6.28653
6.24896
6.2068
6.16
6.10845
6.05193
5.99009
5.92263
5.85009
5.77468
5.69928
5.62936
5.55602
6.39096
6.39194
6.39091
6.3869
6.3796
6.36881
6.35427
6.33574
6.31312
6.28635
6.25538
6.22021
6.18084
6.13731
6.08953
6.0373
5.98031
5.91828
5.85168
5.7825
5.71332
5.64902
5.58168
6.34953
6.35067
6.34999
6.34648
6.33979
6.32974
6.31608
6.29864
6.27736
6.25221
6.22319
6.19032
6.15366
6.11324
6.06904
6.02092
5.96861
5.91182
5.85097
5.78783
5.7247
5.66596
5.60422
6.30768
6.30889
6.30851
6.30545
6.29932
6.28994
6.27708
6.26066
6.24064
6.21704
6.1899
6.15927
6.12524
6.08787
6.04716
6.00299
5.95515
5.90342
5.84814
5.79086
5.73365
5.68028
5.62404
6.26537
6.26659
6.26644
6.26375
6.25809
6.24928
6.23715
6.22168
6.20287
6.18078
6.15547
6.12705
6.09562
6.06125
6.02397
5.98371
5.94024
5.89339
5.84349
5.79192
5.74051
5.69263
5.64137
6.22248
6.22368
6.22368
6.22127
6.21598
6.20764
6.19619
6.18163
6.164
6.1434
6.11993
6.09371
6.06486
6.03349
5.99964
5.96323
5.9241
5.88207
5.83743
5.79142
5.74575
5.70367
5.65673
6.17893
6.18008
6.18014
6.1779
6.17289
6.165
6.1542
6.14053
6.1241
6.10501
6.08339
6.05939
6.03316
6.0048
5.97436
5.9418
5.90697
5.86969
5.83024
5.78969
5.74941
5.71203
5.67191
6.13474
6.13579
6.13584
6.13368
6.12891
6.12144
6.11129
6.09855
6.08333
6.06579
6.04608
6.02435
6.00077
5.97544
5.94843
5.9197
5.88912
5.85654
5.82217
5.78693
5.75202
5.71957
5.68536
6.09007
6.09096
6.09092
6.08882
6.08427
6.07723
6.06775
6.05596
6.04202
6.02608
6.00833
5.98893
5.96804
5.94577
5.92218
5.89725
5.87085
5.84285
5.81343
5.78337
5.75363
5.72608
5.69713
6.04507
6.0458
6.04565
6.04359
6.03929
6.0327
6.02394
6.01315
6.00054
5.98629
5.97057
5.95355
5.93538
5.91616
5.89597
5.87476
5.85244
5.82887
5.8042
5.77908
5.75431
5.73143
5.7075
5.99994
6.00048
6.00026
5.99832
5.9943
5.98821
5.98021
5.9705
5.9593
5.94681
5.93319
5.9186
5.90316
5.88699
5.87012
5.85253
5.83412
5.81478
5.79462
5.77416
5.75404
5.73552
5.71614
5.95483
5.95517
5.95496
5.9532
5.94951
5.94397
5.9368
5.92826
5.91858
5.90793
5.89648
5.88436
5.87167
5.85849
5.84485
5.83074
5.81605
5.8007
5.78476
5.76863
5.75282
5.73828
5.72306
5.90988
5.90993
5.90978
5.90823
5.90487
5.8999
5.89365
5.88639
5.87835
5.86968
5.86049
5.85088
5.84093
5.8307
5.8202
5.80941
5.79825
5.78664
5.77463
5.76253
5.7507
5.73984
5.72842
5.86533
5.86505
5.86493
5.86342
5.86026
5.85587
5.85067
5.84489
5.83868
5.83214
5.82534
5.81832
5.81115
5.80384
5.7964
5.78881
5.78101
5.77293
5.76461
5.75627
5.74817
5.74078
5.73302
5.82125
5.82015
5.82015
5.81854
5.81553
5.81192
5.80805
5.80405
5.79993
5.79571
5.79143
5.78708
5.78269
5.77826
5.7738
5.76928
5.76465
5.75989
5.75501
5.75016
5.74549
5.74121
5.73672
5.76696
5.76155
5.76357
5.76303
5.76146
5.75982
5.75823
5.75669
5.75517
5.75366
5.75215
5.75064
5.74913
5.74763
5.74612
5.7446
5.74306
5.74148
5.73987
5.73828
5.73675
5.73531
5.73374
4713.65
4633.81
5205.95
5207.78
1084.09
1078.1
1060.96
1045.85
1104.46
1091.5
1022.61
932.666
946.28
861.051
790.178
638.757
609.026
595.175
614.819
685.477
696.092
698.219
699.849
700.73
689.439
688.921
690.321
693.376
390.79
392.588
401.3
413.292
5.00397
4.95432
4.75075
4.42368
5.01464
4.78954
4.53423
4.32532
4.88329
4.63205
4.35446
4.14411
4.85957
4.60613
4.31716
4.10016
4.88699
4.63808
4.34742
4.12482
4.9015
4.65045
4.36145
4.14346
4.91924
4.66745
4.38034
4.16621
4.94627
4.69704
4.41437
4.20398
4.98148
4.73708
4.45991
4.25383
5.02187
4.7838
4.51428
4.3132
5.06632
4.83615
4.57488
4.37965
5.11324
4.89217
4.64105
4.45203
5.161
4.95017
4.70952
4.5278
5.20827
5.00827
4.77998
4.60627
5.2555
5.06715
4.85109
4.68609
5.30235
5.12609
4.92345
4.76707
5.34757
5.1838
4.99414
4.84696
5.3898
5.23835
5.06273
4.92507
5.42926
5.29013
5.12788
5.00013
5.46589
5.33884
5.1904
5.07235
5.49927
5.38407
5.24861
5.14048
5.52915
5.42521
5.30307
5.20485
5.55645
5.46345
5.35371
5.26534
5.58168
5.49937
5.40203
5.32297
5.60568
5.53306
5.44744
5.37781
5.62797
5.56475
5.48953
5.42797
5.64818
5.59391
5.52879
5.47537
5.66657
5.62086
5.56578
5.52009
5.68281
5.64526
5.59949
5.56133
5.69657
5.66661
5.63002
5.59914
5.70833
5.6855
5.65736
5.63349
5.71894
5.70283
5.68284
5.66544
5.729
5.71941
5.70698
5.69542
5.73158
5.7285
5.7244
5.71997
2395.5
1361.74
1135.96
1181.47
1530.75
1633.44
1247.51
1195.86
1202.91
1205.14
1202.8
1198.65
1192.3
1184.22
1167.98
991.622
917.965
925.752
987.191
1050.89
1080.64
1002.07
780.991
907.56
1287.1
1291.36
1156.11
1192.17
1201.8
1203.02
1200.73
1137.31
1028.71
940.096
901.516
908.77
909.787
940.289
951.985
952.001
819.641
745.411
760.771
757.931
837.356
1051.15
1085.77
1140.09
1103.89
926.07
860.386
858.452
871.921
888.015
899.61
905.557
926.44
651.444
682.058
715.633
754.413
753.301
756.48
763.922
741.1
824.273
829.919
821.87
824.804
840.89
855.671
870.119
884.006
895.177
904.326
915.575
702.883
716.014
729.374
739.195
745.226
751.543
760.413
766.261
753.888
767.022
802.447
823.476
840.009
855.46
870.063
883.383
894.76
905.186
911.487
702.9
710.913
720.561
729.262
736.86
744.924
754.678
765.82
777.979
791.401
806.39
823.291
840.057
856.105
871.016
884.47
896.423
907.898
914.179
700.161
706.117
712.628
719.764
727.497
736.586
747.252
759.556
773.763
789.213
805.949
823.507
840.927
857.559
873.191
887.337
900.382
912.75
910.448
405.606
417.851
447.349
480.253
517.126
565.74
617.644
675.552
751.51
783.451
803.851
824.512
843.961
861.612
877.838
892.829
906.908
920.103
922.35
4.06726
3.88373
3.78212
3.62705
14.4521
39.4368
80.9408
136.451
218.626
388.513
601.433
767.313
843.222
865.713
885.883
902.376
917.153
930.39
950.151
4.0944
3.95533
3.84077
3.73455
3.66535
3.6583
3.67933
3.70522
3.74588
5.42636
54.1987
171.197
366.127
632.936
846.541
910.912
931.545
944.293
1086.02
3.97527
3.91185
3.83225
3.75832
3.69727
3.66322
3.63648
3.61179
3.58766
3.56931
3.58353
3.68993
3.87717
38.584
205.305
574.297
920.113
967.562
1120.66
3.93286
3.87841
3.82356
3.75402
3.703
3.65893
3.62697
3.61969
4.01199
3.65438
3.51844
3.49014
3.52145
3.64591
3.89128
13.0708
268.296
835.722
1080.86
3.94181
3.88
3.8175
3.7558
3.69525
3.64521
3.764
4.61793
4.60996
4.57866
3.51081
3.50613
3.50891
3.68589
3.69039
3.85912
4.09859
93.2912
308.638
3.96409
3.90035
3.83616
3.76625
3.70215
3.64822
3.7848
4.45212
4.61151
4.0383
3.50538
3.56206
5.04682
6.29274
6.1035
5.3294
5.08744
8.75007
27.5337
3.99343
3.93236
3.86772
3.79605
3.72888
3.6705
3.62648
3.61606
3.642
3.51185
3.50471
3.63124
5.36485
6.06344
5.51056
5.15457
4.78455
3.25975
3.22815
4.03454
3.974
3.90853
3.83518
3.76519
3.70192
3.64581
3.59726
3.55924
3.53289
3.52485
3.5752
3.68038
3.73284
3.48737
3.41003
3.54747
3.29733
3.28258
4.08711
4.02531
3.95849
3.88356
3.81176
3.74637
3.68836
3.63813
3.59701
3.56497
3.54056
3.51247
3.48376
3.45619
3.4328
3.40818
3.38227
3.35995
3.35424
4.14902
4.08581
4.01742
3.94097
3.86756
3.80039
3.74058
3.68842
3.64446
3.6078
3.57632
3.54807
3.52083
3.49498
3.47464
3.45862
3.44704
3.43884
3.42945
4.21889
4.15418
4.08441
4.00664
3.93175
3.8629
3.80129
3.74711
3.70057
3.66103
3.62712
3.59729
3.5706
3.54783
3.53058
3.51875
3.51233
3.51
3.50857
4.29457
4.22895
4.15815
4.0794
4.00328
3.93287
3.86945
3.81323
3.76434
3.72243
3.68672
3.65631
3.6306
3.6102
3.59576
3.58681
3.58248
3.58137
3.58033
4.37501
4.30872
4.23737
4.15806
4.08103
4.00931
3.94421
3.88606
3.83503
3.79102
3.75365
3.72249
3.69728
3.67825
3.66557
3.65862
3.65601
3.65526
3.65303
4.4584
4.39222
4.3208
4.24141
4.1639
4.09122
4.02474
3.96492
3.91203
3.86615
3.82721
3.79507
3.76968
3.75116
3.73939
3.73363
3.73215
3.73224
3.73019
4.54416
4.47822
4.40722
4.32828
4.25079
4.17762
4.1102
4.0491
3.99471
3.94727
3.90691
3.87371
3.84776
3.82912
3.81757
3.81221
3.81131
3.8121
3.81059
4.6306
4.56552
4.49543
4.41749
4.34059
4.2675
4.19968
4.1378
4.08237
4.03375
3.99222
3.95801
3.9313
3.91214
3.90026
3.89477
3.8939
3.8949
3.89411
4.71701
4.65297
4.5843
4.50794
4.43223
4.35983
4.2922
4.23012
4.17418
4.12483
4.08247
4.04742
4.01992
4.00004
3.98751
3.98144
3.98021
3.98118
3.98091
4.80174
4.73952
4.67279
4.59859
4.52468
4.4536
4.3868
4.32513
4.26924
4.21966
4.17686
4.14123
4.11305
4.09241
4.07906
4.07224
4.07036
4.07101
4.07119
4.88444
4.82429
4.76001
4.68853
4.61701
4.54786
4.48252
4.42188
4.36662
4.31733
4.27452
4.23862
4.20997
4.18867
4.17452
4.16679
4.16416
4.16445
4.16477
4.964
4.90658
4.84524
4.777
4.70843
4.6418
4.57852
4.51948
4.46541
4.41692
4.37455
4.33876
4.30991
4.28813
4.27325
4.2647
4.26126
4.26105
4.26142
5.04036
4.98593
4.92796
4.86342
4.7983
4.73472
4.67403
4.61715
4.5648
4.51761
4.47612
4.44082
4.41207
4.39004
4.37463
4.36529
4.36109
4.36039
4.36059
5.11291
5.06203
5.00781
4.94737
4.88612
4.82604
4.76843
4.7142
4.66406
4.61862
4.57845
4.54403
4.51571
4.4937
4.47793
4.46802
4.46312
4.46178
4.46185
5.18207
5.13477
5.08457
5.02853
4.9715
4.91531
4.86121
4.81006
4.76256
4.71931
4.68086
4.64768
4.62013
4.59842
4.58254
4.57215
4.56669
4.56482
4.56463
5.24766
5.20404
5.1581
5.10668
5.05415
5.00217
4.95192
4.90423
4.85976
4.81909
4.78273
4.75114
4.72468
4.70355
4.68778
4.6772
4.6713
4.6689
4.66851
5.31018
5.26961
5.2283
5.18168
5.13383
5.08631
5.04021
4.9963
4.9552
4.91745
4.88353
4.85386
4.82881
4.80857
4.79322
4.78259
4.77638
4.77363
4.77289
5.36859
5.33235
5.29523
5.25341
5.21037
5.1675
5.12578
5.08593
5.0485
5.01399
4.98285
4.95545
4.93213
4.91308
4.89837
4.88795
4.8815
4.87827
4.87743
5.42354
5.39201
5.35891
5.32184
5.2837
5.24563
5.2085
5.17294
5.13946
5.10849
5.08041
5.05558
5.03426
5.01664
5.00281
4.99269
4.98614
4.98276
4.98166
5.47524
5.44799
5.41913
5.38691
5.35375
5.32063
5.28828
5.25724
5.22793
5.20073
5.17595
5.1539
5.13482
5.11885
5.10609
5.09655
5.0901
5.08653
5.08533
5.52356
5.50028
5.47572
5.44842
5.42037
5.39236
5.36497
5.33865
5.31372
5.29049
5.26923
5.25018
5.23354
5.21944
5.20798
5.19916
5.19302
5.1895
5.18812
5.5681
5.54883
5.52861
5.5063
5.4835
5.46081
5.43863
5.41724
5.39687
5.37779
5.36022
5.34436
5.33035
5.31833
5.30834
5.30049
5.29479
5.29131
5.28991
5.60921
5.5938
5.5779
5.56063
5.54325
5.52625
5.50952
5.49328
5.47763
5.46285
5.44912
5.43661
5.42542
5.41563
5.40732
5.4005
5.39535
5.39204
5.39048
5.64717
5.63546
5.62382
5.61161
5.59981
5.58924
5.57826
5.56732
5.55652
5.54614
5.5364
5.52738
5.51915
5.51175
5.50519
5.49955
5.49493
5.49153
5.48978
5.68196
5.67349
5.66605
5.65868
5.6523
5.64979
5.64521
5.63952
5.63359
5.62772
5.62208
5.61671
5.61162
5.60678
5.60217
5.59774
5.59355
5.58987
5.58746
5.7138
5.7102
5.70743
5.70472
5.70216
5.70311
5.70256
5.70108
5.69938
5.69763
5.69589
5.69419
5.69252
5.69085
5.68914
5.68737
5.68552
5.68374
5.68244
)
;

boundaryField
{
    leftWall
    {
        type            fixedFluxPressure;
        gradient        uniform 0;
        value           nonuniform List<scalar> 
50
(
4812.28
4811
4807.4
4800.68
4237.01
1388.93
1209.78
1208.01
1204.61
1199.54
1194.84
1127.25
809.894
589.894
606.168
422.472
134.308
6.89764
6.88858
6.87339
6.86357
6.85325
6.83782
6.81817
6.79463
6.76729
6.73671
6.70345
6.66797
6.63077
6.59231
6.55298
6.51308
6.47272
6.43202
6.39096
6.34953
6.30768
6.26537
6.22248
6.17893
6.13474
6.09007
6.04507
5.99994
5.95483
5.90988
5.86533
5.82125
5.76696
)
;
    }
    rightWall
    {
        type            fixedFluxPressure;
        gradient        uniform 0;
        value           nonuniform List<scalar> 
50
(
2384.6
2257.01
2003.95
1500.09
1209.8
1043.94
1063.52
1008.55
987.191
940.289
926.44
915.575
911.487
914.179
910.448
922.35
950.151
1086.02
1120.66
1080.86
308.638
27.5337
3.22815
3.28258
3.35424
3.42945
3.50857
3.58033
3.65303
3.73019
3.81059
3.89411
3.98091
4.07119
4.16477
4.26142
4.36059
4.46185
4.56463
4.66851
4.77289
4.87743
4.98166
5.08533
5.18812
5.28991
5.39048
5.48978
5.58746
5.68244
)
;
    }
    lowerWall
    {
        type            fixedFluxPressure;
        gradient        uniform 0;
        value           nonuniform List<scalar> 
62
(
4812.28
4821.82
4847.75
4886.87
4936.48
4995.58
5065.04
5146.69
5242.61
5354.9
5485.11
5633.82
5800.75
5984.51
6182.15
6389.32
6599.98
6806.97
7001.45
7173.24
7311.53
7405.38
7449.94
7449.94
7441.71
7448.2
7469.56
7506.69
7561.87
7635.47
7684.83
4713.65
4633.81
5205.95
5207.78
3329.49
3273.73
3160.35
1706.13
1122.71
1059.12
1191.71
1448.18
3329.49
3307.61
3241.46
3185.64
3028.74
2989.46
2943.5
2856.79
2729.4
2597.46
2512.74
2442.64
2397.13
2370.6
2359.98
2368.39
2383.94
2401.28
2384.6
)
;
    }
    atmosphere
    {
        type            prghTotalPressure;
        rho             rho;
        psi             none;
        gamma           1;
        p0              uniform 0;
        value           nonuniform List<scalar> 
46
(
5.72888
5.72835
5.72845
5.72855
5.72864
5.7287
5.72874
5.72877
5.72879
5.72881
5.72882
5.72883
5.72884
5.72886
5.72887
5.72888
5.7289
5.72892
5.72894
5.72896
5.72898
5.72899
5.72901
5.72898
5.72898
5.729
5.72901
5.72902
5.72904
5.72904
5.72904
5.72904
5.72904
5.72904
5.72904
5.72904
5.72904
5.72904
5.72904
5.72904
5.72904
5.72904
5.72904
5.72904
5.72904
5.72904
)
;
        rho             rho;
    }
    defaultFaces
    {
        type            empty;
    }
}


// ************************************************************************* //
