/*--------------------------------*- C++ -*----------------------------------*\
  =========                 |
  \\      /  F ield         | OpenFOAM: The Open Source CFD Toolbox
   \\    /   O peration     | Website:  https://openfoam.org
    \\  /    A nd           | Version:  13
     \\/     M anipulation  |
\*---------------------------------------------------------------------------*/
FoamFile
{
    format      ascii;
    class       volScalarField;
    location    "1.6";
    object      rho;
}
// * * * * * * * * * * * * * * * * * * * * * * * * * * * * * * * * * * * * * //

dimensions      [1 -3 0 0 0 0 0];

internalField   nonuniform List<scalar> 
2268
(
13529
13529
13529
13529
13529
13529
13529
13529
13529
13529
13529
13529
13529
13529
13529
13529
13529
13529
13529
13529
13528.2
13521.9
13521.6
13529
13529
13529
13529
13529
13529
13529
13529
13529
13529
13529
13529
13529
13529
13529
13529
13529
13529
13529
13529
13529
13526.5
13521.6
13529
13529
13529
13529
13529
13529
13529
13529
13529
13529
13529
13529
13529
13529
13529
13529
13529
13529
13529
13529
13529
13528.9
13528
13529
13529
13529
13529
13529
13529
13529
13529
13529
13529
13529
13529
13529
13529
13529
13529
13529
13529
13529
13529
13529
13529
13529
11178.3
11104.4
11212.9
11569.8
12014
12439.6
12819
13149.8
13417.2
13529
13529
13529
13529
13529
13529
13529
13529
13529
13529
13529
13529
13529
13529
1503.41
1754.6
1967.71
2278.02
2705.72
3244.83
3917.12
4778.13
5911.42
7444.03
9361.79
11185.6
12565.3
13411.6
13529
13529
13529
13529
13529
13529
13529
13529
13529
1000
1000
1000
1000
1000
1000
1000
1000
1000
1037.71
1154.7
1742.81
3204.55
5614.19
9125.05
12379.3
13529
13529
13529
13529
13529
13529
13529
1000
1000
1000
1000
1000
1000
1000
1000
1000
1000
1000
1000
1000
1000
1143.55
2242.37
5706.53
10300.4
13113.9
13316.6
13374.4
13411
13482.3
11925.6
11924.4
11915.4
11645.1
8248.05
7670.37
7752.97
7984.13
7984.12
8219.34
9299.34
9604.28
9719.75
9741.14
9722.97
9671.54
9672.74
9654.51
9653.86
11929.5
11935
11330.6
11600.8
11603.3
11468.3
11159.9
11140
11132.5
10094.9
8291.99
8050.81
7944.31
7897.2
7618.23
8075.03
8594.86
8663.8
7536.91
11406.4
10000.3
6931.64
6717.79
9186.13
10981
10920.2
9435.21
7030.74
5947.16
5611.92
4478.72
3752.5
3491.57
3751.92
3714.64
3605.19
4410.97
5384.92
3311.54
4649.51
6423.14
3820.43
3300.04
3835.52
4114.39
3731.88
3818.55
2986.07
2786.99
3012.7
2913.66
2550.93
2450.62
2359.16
2209.97
2301.76
2528.95
866.103
1634.64
2855.84
3619
1688.75
1006.31
989.955
732.645
441.119
915.455
1237.91
1169.9
1279.59
1542.51
1580.19
1867.68
2030.39
1671.39
1294.95
674.775
1025.26
1545.34
2523.93
1701.29
1000.89
1000.97
999.587
885.071
831.15
751.619
710.764
818.136
943.969
957.324
945.808
1006.92
898.104
734.333
1090.11
789.257
1033.67
2107.26
2101.8
1113.53
1001.08
1000.98
1006.45
1007.82
991.217
970.748
974.255
998.091
989.579
783.951
755.918
793.955
791.756
1725.61
1044.66
783.072
1490.9
1893.53
1660.46
1007.68
1001.13
1003.31
1003.74
1002.07
1000.5
999.952
1001.29
1003.35
749.468
514.533
681.679
661.946
1000
1000
1000
1000
1000
1000
1000
1000
1000
1000
1000
1000
1000
1000
1000
1000
1006.31
1359.13
2587.89
4432.07
5964.86
6718.95
7259.6
1000
1000
1000
1000
1000
1000
1000
1000
1000
1000
1000
1000
1000
1000
1000
1000
1000
1000
1000
1000
999.999
999.988
999.956
1000
998.989
997.929
999.227
999.995
1000
1000
1000
1000
1000
1000
1000
1000
1000
1000
1000
1000
1000
1000
1000
1000
999.143
998.111
924.042
904.434
909.576
924.094
936.301
948.732
942.602
929.954
932.933
937.641
929.208
914.944
915.826
931.925
956.123
959.239
952.612
939.49
932.543
928.197
914.47
871.758
827.821
599.239
536.117
543
550.138
561.523
533.096
528.166
534.471
527.569
523.999
523.829
525.812
529.703
535.958
558.473
571.277
544.748
530.521
513.501
516.078
515.45
489.779
452.507
401.152
488.594
490.981
490.977
489.294
451.179
444.82
467.243
476.951
467.382
457.759
456.28
460.866
469.85
468.948
461.357
465.244
474.673
495.565
499.918
500
500
500.001
415.76
466.328
454.299
467.866
476.813
484.472
489.641
493.503
496.122
497.745
498.782
499.462
499.922
500
500
500
500
500
500
500
500
500
500
278.633
184.919
140.556
130.09
149.474
173.916
192.972
207.91
225.532
245.578
265.394
283.883
299.709
313.671
326.473
338.898
346.3
347.08
339.252
325.783
311.608
296.295
274.732
80.8687
57.6211
4.10054
1.00826
1.00024
1.0001
1.00018
1.00026
1.00026
1.00029
1.00035
1.00049
1.00012
1.00003
1.00001
1.00001
1.00001
1
1
1
1
1
1
1.00033
12.2548
7.40658
1.02015
1.00359
1.00013
1.00001
1.00002
1.00006
1.00007
1.00041
1.00068
1.00022
1.00006
1.00001
1
1
1.00001
1.00001
1
1
1.00001
1.00001
1.0003
1.00106
3.84335
1.24109
1.00165
1.00008
1.00002
1.00013
1.00062
1.00072
1.02708
1.00564
1.00099
1.00008
1
1.00001
1.00002
1.00015
1.00025
1.0002
1.00015
1.00011
1.00008
1.00034
1.00599
1.12943
1.06099
1.00065
1.00006
1.00007
1.00017
1.0004
1.04605
1.08864
1.06529
1.00806
1.0011
1.00081
1.00119
1.00117
1.00087
1.0005
1.00039
1.00034
1.00026
1.00008
1.00037
1.00042
1.00075
1.00065
1.00013
1.00007
1.00009
1.00018
1.0004
1.08583
1.08821
1.08866
1.02624
1.00192
1.00172
1.00302
1.00282
1.00089
1.00035
1.00019
1.00017
1.00011
1.00005
1.00047
1.00086
1.00046
1.00016
1.00007
1.00006
1.00009
1.00015
1.00096
1.0525
1.08613
1.08767
1.02722
1.00303
1.0031
1.00309
1.00262
1.00038
1.00011
1.00005
1.00004
1.00004
1.00002
1.00014
1.00034
1.00013
1.00008
1.00005
1.00005
1.00007
1.00009
1.00135
1.00002
1.0374
1.05694
1.01046
1.00314
1.00321
1.00234
1.00049
1.00011
1.00004
1.00003
1.00003
1.00003
1.00001
1.00003
1.00005
1.00006
1.00005
1.00004
1.00004
1.00003
1.00003
1.00001
1.00001
1.00001
1.00002
1.00079
1.00135
1.00066
1.00008
1.00001
1.00005
1.00004
1.00002
1.00003
1.00001
1.00001
1.00004
1.00005
1.00005
1.00005
1.00004
1.00003
1.00002
1.00001
1.00001
1.00001
1.00001
1.00001
1.00008
1.00144
1.00035
1
1.00002
1.00003
1.00003
1.00002
1.00001
1.00001
1.00001
1.00003
1.00005
1.00005
1.00005
1.00003
1.00002
1.00001
1.00001
1.00001
1.00001
1.00001
1.00003
1.00039
1.00128
1.00015
1.00001
1.00002
1.00003
1.00002
1.00001
1.00001
1.00001
1.00001
1.00003
1.00004
1.00005
1.00005
1.00003
1.00002
1.00001
1.00001
1.00001
1.00001
1.00001
1.00005
1.00014
1.00001
1.00001
1.00002
1.00002
1.00002
1.00001
1.00001
1.00001
1.00001
1.00001
1.00002
1.00003
1.00003
1.00004
1.00003
1.00002
1.00001
1.00001
1.00001
1.00001
1.00001
1
1
1
1.00001
1.00002
1.00001
1.00001
1.00001
1.00001
1
1
1
1.00002
1.00002
1.00002
1.00003
1.00003
1.00002
1.00001
1.00001
1.00001
1.00001
1
1
1
1
1
1.00001
1.00001
1
1
1
1
1
1
1.00001
1.00002
1.00002
1.00002
1.00002
1.00002
1.00001
1.00001
1
1
1
1
1
1
1
1
1
1
1
1
1
1
1
1.00001
1.00001
1.00001
1.00001
1.00001
1.00001
1.00001
1
1
1
1
1
1
1
1
1
1
1
1
1
1
1
1
1.00001
1.00001
1.00001
1
1
1.00001
1.00001
1
1
1
1
1
1
1
1
1
1
1
1
1
1
1
1
1.00001
1
1
1
1
1
1
1
1
1
1
1
1
1
1
1
1
1
1
1
1
1
1
1
1
1
1
1
1
1
1
1
1
1
1
1
1
1
1
1
1
1
1
1
1
1
1
1
1
1
1
1
1
1
1
1
1
1
1
1
1
1
1
1
1
1
1
1
1
1
1
1
1
1
1
1
1
1
1
1
1
1
1
1
1
1
1
1
1
1
1
1
1
1
1
1
1
1
1
1
1
1
1
1
1
1
1
1
1
1
1
1
1
1
1
1
1
1
1
1
1
1
1
1
1
1
1
1
1
1
1
1
1
1
1
1
1
1
1
1
1
1
1
1
1
1
1
1
1
1
1
1
1
1
1
1
1
1
1
1
1
1
1
1
1
1
1
1
1
1
1
1
1
1
1
1
1
1
1
1
1
1
1
1
1
1
1
1
1
1
1
1
1
1
1
1
1
1
1
1
1
1
1
1
1
1
1
1
1
1
1
1
1
1
1
1
1
1
1
1
1
1
1
1
1
1
1
1
1
1
1
1
1
1
1
1
1
1
1
1
1
1
1
1
1
1
1
1
1
1
1
1
1
1
1
1
1
1
1
1
1
1
1
1
1
1
1
1
1
1
1
1
1
1
1
1
1
1
1
1
1
1
1
1
1
1
1
1
1
1
1
1
1
1
1
1
1
1
1
1
1
1
1
1
1
1
1
1
1
1
1
1
1
1
1
1
1
1
1
1
1
1
1
1
1
1
1
1
1
1
1
1
1
1
1
1
1
1
1
1
1
1
1
1
1
1
1
1
1
1
1
1
1
1
1
1
1
1
1
1
1
1
1
1
1
1
1
1
1
1
1
1
1
1
1
1
1
1
1
1
1
1
1
1
1
1
1
1
1
1
1
1
1
1
1
1
1
1
1
1
1
1
1
1
1
1
1
1
1
1
1
1
1
1
7077.94
6953
8041.71
8163.46
999.853
997.023
986.658
977.325
998.768
990.378
909.164
796.862
786.87
693.37
613.074
442.535
423.927
408.526
424.912
489.471
500.002
500.003
500.003
500.002
500
500
500
500
265.856
266.373
272.24
280.952
1
1.00004
1.00002
1
1
1.00001
1
1
1.00006
1.00006
1.00006
1.00004
1.00009
1.00009
1.00007
1.00007
1.00004
1.00003
1.00003
1.00003
1.00001
1.00001
1.00001
1.00001
1.00001
1.00001
1.00001
1.00001
1.00001
1.00001
1.00001
1.00001
1.00001
1.00001
1.00001
1.00001
1.00001
1.00001
1
1
1
1
1
1
1
1
1
1
1
1
1
1
1
1
1
1
1
1
1
1
1
1
1
1
1
1
1
1
1
1
1
1
1
1
1
1
1
1
1
1
1
1
1
1
1
1
1
1
1
1
1
1
1
1
1
1
1
1
1
1
1
1
1
1
1
1
1
1
1
1
1
1
1
1
1
1
1
1
1
1
1
1
1
1
1
1
1
1
1
1
1
1
1
1
1
1
3403.73
1366.46
942.47
1103.7
1755.5
1886.86
1112.72
1000.47
1000.76
1000.98
1000.82
1000.25
1000.01
999.968
978.427
649.007
503.719
513.694
618.992
981.184
946.632
798.543
487.139
695.5
1254.93
1215.23
969.456
999.923
999.95
997.311
996.829
901.405
733.577
590.247
511.717
505.652
500.028
538.759
815.685
779.184
582.731
476.697
500.222
500.264
586.605
834.114
857.42
911.26
853.246
615.901
518.817
500.395
500.048
501.428
501.6
500.002
516.973
449.148
462.801
477.573
505.837
500.572
500.113
499.401
466.445
547.411
541.17
516.497
500.101
499.961
499.95
500
499.949
499.871
500
501.631
499.905
500
500.001
500.006
500.039
500.045
500.032
496.006
475.063
476.339
496.138
499.991
499.991
499.937
499.973
500
500
500.003
494.953
500.001
500
500
500
499.999
500.001
500.017
500.018
500.014
500.024
499.93
500.035
500.009
499.983
499.986
499.999
500
500.01
494.695
500
500
500
500
500
500
500.001
500.002
500.003
500.001
500.014
500.031
500.011
500
499.999
499.999
500.016
500.011
488.235
275.88
284.207
303.837
325.282
348.662
379.168
410.649
444.847
489.524
500
500.009
500.01
500.002
500
499.999
500.005
500.023
500.022
492.398
1
1
1
1
7.76121
23.3169
49.1154
83.4501
134.078
239.063
368.387
464.169
500
500
500
500.013
500.02
500.016
504.285
1
1
1
1
1
1
1
1.00004
1.00012
1.91125
29.8861
96.768
207.642
358.818
474.96
500.01
500.011
500.035
578.688
1.00005
1.00002
1.00003
1.00007
1.00017
1.00021
1.00015
1.00007
1.00013
1.00028
1.00028
1.00053
1.00097
19.2608
108.071
305.511
487.657
503.302
584.149
1.00006
1.00005
1.00007
1.00025
1.00037
1.00038
1.00015
1.00663
1.22682
1.06075
1.01172
1.00123
1.00127
1.00271
1.00278
5.43385
134.242
422.872
545.858
1.00003
1.00003
1.00009
1.00026
1.00033
1.00036
1.07506
1.50409
1.5137
1.51216
1.00028
1.00104
1.00199
1.09426
1.06928
1.12313
1.14969
43.8894
146.917
1.00001
1.00004
1.00008
1.00015
1.00024
1.00038
1.08443
1.41108
1.49835
1.24445
1.00016
1.02475
1.70899
2.28399
2.21731
1.89204
1.77319
3.45753
12.009
1.00001
1.00002
1.00006
1.00015
1.00036
1.00112
1.00543
1.02218
1.04865
1.00053
1.00122
1.05924
1.82237
2.14094
1.91695
1.79214
1.65877
1.00611
1.00008
1.00001
1
1.00001
1.00001
1.00002
1.00006
1.0001
1.00017
1.00026
1.00064
1.0055
1.03461
1.09117
1.12609
1.03713
1.02476
1.1006
1.0031
1.00009
1
1
1
1.00001
1.00001
1.00004
1.00008
1.00011
1.00018
1.00051
1.0015
1.00023
1.00001
1.00001
1.00001
1.00001
1.00002
1.00041
1.00012
1
1
1
1
1.00001
1.00002
1.00004
1.00007
1.0001
1.00011
1.00003
1.00001
1.00001
1.00002
1.00004
1.00008
1.00011
1.00033
1.00039
1
1
1
1
1
1.00001
1.00002
1.00003
1.00004
1.00004
1.00002
1.00001
1.00002
1.00004
1.00008
1.00012
1.00024
1.00048
1.00054
1
1
1
1
1
1
1.00001
1.00001
1.00002
1.00002
1.00001
1.00001
1.00002
1.00003
1.00006
1.00011
1.00019
1.00039
1.00055
1
1
1
1
1
1
1
1
1.00001
1.00001
1.00001
1.00001
1.00001
1.00002
1.00003
1.00006
1.00011
1.00013
1.00018
1
1
1
1
1
1
1
1
1
1
1
1
1
1.00001
1.00001
1.00002
1.00003
1.00003
1.00004
1
1
1
1
1
1
1
1
1
1
1
1
1
1
1.00001
1.00001
1.00001
1.00001
1.00001
1
1
1
1
1
1
1
1
1
1
1
1
1
1
1
1
1.00001
1.00001
1.00001
1
1
1
1
1
1
1
1
1
1
1
1
1
1
1
1
1.00001
1.00001
1.00001
1
1
1
1
1
1
1
1
1
1
1
1
1
1
1
1.00001
1.00001
1.00001
1.00001
1
1
1
1
1
1
1
1
1
1
1
1
1
1
1
1.00001
1.00001
1.00002
1.00001
1
1
1
1
1
1
1
1
1
1
1
1
1
1
1
1.00001
1.00002
1.00004
1.00002
1
1
1
1
1
1
1
1
1
1
1
1
1
1
1
1.00001
1.00003
1.00006
1.00002
1
1
1
1
1
1
1
1
1
1
1
1
1
1
1
1.00001
1.00003
1.00006
1.00003
1
1
1
1
1
1
1
1
1
1
1
1
1
1
1
1.00001
1.00004
1.00006
1.00002
1
1
1
1
1
1
1
1
1
1
1
1
1
1
1
1.00002
1.00005
1.00006
1.00002
1
1
1
1
1
1
1
1
1
1
1
1
1
1
1.00001
1.00002
1.00005
1.00005
1.00001
1
1
1
1
1
1
1
1
1
1
1
1
1
1
1.00001
1.00001
1.00004
1.00002
1.00001
1
1
1
1
1
1
1
1
1
1
1
1
1
1
1.00001
1.00001
1.00001
1.00001
1
1
1
1
1
1
1
1
1
1
1
1
1
1
1
1
1.00001
1.00001
1
1
1
1
1
1
1
1
1
1
1
1
1
1
1
1
1
1
1
1
1
1
1
1
1
1
1
1
1
1
1
1
1
1
1
1
1
1
1
1
1
1
1
1
1
1
1
1
1
1
1
1
1
1
1
1
1
1
1
1
1
1
1
1
1
1
1
1
1
1
1
1
1
1
1
1
1
1
1
1
1
1
1
1
1
1
1
1
1
1
1
1
1
1
1
1
1
1
1
1
1
1
1
1
1
1
1
1
1
1
1
1
1
1
1
1
)
;

boundaryField
{
    leftWall
    {
        type            calculated;
        value           nonuniform List<scalar> 
50
(
13529
13529
13529
13529
11178.3
1503.41
1000
1000
1000
1000
1000
924.042
599.239
401.152
415.76
278.633
80.8687
1.00033
1.0003
1.00034
1.00037
1.00047
1.00014
1.00003
1.00004
1.00003
1.00003
1.00002
1.00002
1.00001
1.00001
1.00001
1.00001
1
1
1
1
1
1
1
1
1
1
1
1
1
1
1
1
1
)
;
    }
    rightWall
    {
        type            calculated;
        value           nonuniform List<scalar> 
50
(
9653.86
7536.91
5384.92
2528.95
1294.95
734.333
791.756
661.946
618.992
538.759
516.973
501.631
494.953
494.695
488.235
492.398
504.285
578.688
584.149
545.858
146.917
12.009
1.00008
1.00009
1.00012
1.00039
1.00054
1.00055
1.00018
1.00004
1.00001
1.00001
1.00001
1.00001
1.00001
1.00002
1.00002
1.00003
1.00002
1.00002
1.00001
1.00001
1
1
1
1
1
1
1
1
)
;
    }
    lowerWall
    {
        type            calculated;
        value           nonuniform List<scalar> 
62
(
13529
13529
13529
13529
13529
13529
13529
13529
13529
13529
13529
13529
13529
13529
13529
13529
13529
13529
13529
13529
13528.2
13521.9
13521.6
13521.6
13521.6
13528
13529
13529
13529
13529
13482.3
7077.94
6953
8041.71
8163.46
11925.6
11929.5
11406.4
3311.54
866.103
674.775
1090.11
1725.61
11925.6
11924.4
11915.4
11645.1
8248.05
7670.37
7752.97
7984.13
7984.12
8219.34
9299.34
9604.28
9719.75
9741.14
9722.97
9671.54
9672.74
9654.51
9653.86
)
;
    }
    atmosphere
    {
        type            calculated;
        value           nonuniform List<scalar> 
46
(
1
1
1
1
1
1
1
1
1
1
1
1
1
1
1
1
1
1
1
1
1
1
1
1
1
1
1
1
1
1
1
1
1
1
1
1
1
1
1
1
1
1
1
1
1
1
)
;
    }
    defaultFaces
    {
        type            empty;
    }
}


// ************************************************************************* //
