/*--------------------------------*- C++ -*----------------------------------*\
  =========                 |
  \\      /  F ield         | OpenFOAM: The Open Source CFD Toolbox
   \\    /   O peration     | Website:  https://openfoam.org
    \\  /    A nd           | Version:  13
     \\/     M anipulation  |
\*---------------------------------------------------------------------------*/
FoamFile
{
    format      ascii;
    class       volVectorField;
    location    "1.6";
    object      U;
}
// * * * * * * * * * * * * * * * * * * * * * * * * * * * * * * * * * * * * * //

dimensions      [0 1 -1 0 0 0 0];

internalField   nonuniform List<vector> 
2268
(
(-0.0137896 0.00497311 0)
(-0.0184233 0.000142073 0)
(-0.0153916 -0.00178742 0)
(-0.0132952 -0.00139913 0)
(-0.0121056 -0.000706282 0)
(-0.0122684 -0.000154853 0)
(-0.0136098 0.000183445 0)
(-0.015963 0.000421493 0)
(-0.0191538 0.000564853 0)
(-0.0229164 0.0006205 0)
(-0.0268972 0.000602606 0)
(-0.0309459 0.000599175 0)
(-0.0349198 0.000529284 0)
(-0.0383022 0.000296206 0)
(-0.0405271 3.28073e-05 0)
(-0.0414886 -5.52441e-06 0)
(-0.0420606 0.000568244 0)
(-0.0432579 0.00158397 0)
(-0.045822 0.00306748 0)
(-0.0508781 0.00466588 0)
(-0.0573626 0.00402233 0)
(-0.0594023 -0.00213047 0)
(-0.0347939 -0.0182919 0)
(-0.00636123 0.0101115 0)
(-0.00594156 0.000620672 0)
(-0.00463719 -0.00134263 0)
(-0.00432339 -0.000988279 0)
(-0.0043447 -0.000168874 0)
(-0.00522539 0.000699772 0)
(-0.00712848 0.00149121 0)
(-0.0100972 0.00219872 0)
(-0.0140721 0.00276094 0)
(-0.018836 0.00309112 0)
(-0.0240621 0.00321287 0)
(-0.0295519 0.00325518 0)
(-0.0350882 0.00305251 0)
(-0.0401038 0.00240931 0)
(-0.0439506 0.00148914 0)
(-0.0462801 0.000749085 0)
(-0.0473657 0.000651796 0)
(-0.047508 0.00102471 0)
(-0.0468253 0.00192704 0)
(-0.0459459 0.00283217 0)
(-0.0438407 0.000827079 0)
(-0.0408811 -0.00753089 0)
(-0.0194923 -0.0322481 0)
(0.00169835 0.0110255 0)
(0.0019121 0.000176342 0)
(0.00180445 -0.00135045 0)
(0.000850588 -0.000872658 0)
(2.5252e-05 0.00013833 0)
(-0.00130559 0.00138714 0)
(-0.00352993 0.00269557 0)
(-0.00682017 0.00392031 0)
(-0.0111756 0.00493178 0)
(-0.016419 0.00560229 0)
(-0.0222543 0.00591257 0)
(-0.028492 0.00603554 0)
(-0.0348771 0.00572314 0)
(-0.0408184 0.00468175 0)
(-0.0456292 0.00313111 0)
(-0.0488282 0.00171357 0)
(-0.0503445 0.000955636 0)
(-0.0500026 0.000633056 0)
(-0.0475065 0.000918899 0)
(-0.0433526 0.00126203 0)
(-0.0368059 -0.00181975 0)
(-0.0305332 -0.0124463 0)
(-0.00978864 -0.0433803 0)
(0.00947466 0.00861002 0)
(0.00722592 0.000401691 0)
(0.00610385 -0.00080713 0)
(0.00434771 -0.000395505 0)
(0.00299826 0.00070879 0)
(0.00133755 0.00226589 0)
(-0.00111965 0.00404206 0)
(-0.00460718 0.00580052 0)
(-0.00915869 0.00732695 0)
(-0.0146596 0.00840804 0)
(-0.0208469 0.00900971 0)
(-0.0275351 0.00929608 0)
(-0.0344518 0.00891875 0)
(-0.0409807 0.00749038 0)
(-0.0464178 0.00527569 0)
(-0.0502103 0.00297447 0)
(-0.0520672 0.00124869 0)
(-0.0514343 -0.000199674 0)
(-0.0477149 -0.00103191 0)
(-0.0415111 -0.00166624 0)
(-0.0324532 -0.00594119 0)
(-0.0240751 -0.0181977 0)
(-0.00394175 -0.0516348 0)
(0.0132346 0.00128887 0)
(0.00970193 -3.32804e-05 0)
(0.00881268 -0.000406063 0)
(0.00687233 2.50014e-05 0)
(0.00515153 0.00118589 0)
(0.00314795 0.00296188 0)
(0.000460953 0.00508902 0)
(-0.00315119 0.00726781 0)
(-0.00778802 0.00924262 0)
(-0.0133342 0.01076 0)
(-0.019604 0.0117767 0)
(-0.026508 0.0124352 0)
(-0.033682 0.0121985 0)
(-0.0404901 0.0105351 0)
(-0.0462934 0.00768157 0)
(-0.0504613 0.00446051 0)
(-0.0525023 0.00160412 0)
(-0.0516058 -0.00136192 0)
(-0.0469646 -0.0037163 0)
(-0.0393725 -0.00548743 0)
(-0.0288577 -0.0108418 0)
(-0.0193453 -0.0240919 0)
(-0.000481641 -0.0577845 0)
(0.0092762 0.00138 0)
(0.0100011 0.00123728 0)
(0.010829 0.00101619 0)
(0.00903081 0.00126339 0)
(0.00685631 0.00229237 0)
(0.00435059 0.00419886 0)
(0.00135557 0.00660428 0)
(-0.00231544 0.00911663 0)
(-0.00678561 0.011408 0)
(-0.0120583 0.0131534 0)
(-0.0182149 0.0142397 0)
(-0.0252321 0.0149535 0)
(-0.0324129 0.0146861 0)
(-0.0391574 0.0129256 0)
(-0.0449421 0.0097653 0)
(-0.0491932 0.0059018 0)
(-0.0513003 0.00187177 0)
(-0.0501279 -0.00289254 0)
(-0.0446872 -0.0070253 0)
(-0.0359917 -0.0100431 0)
(-0.0243533 -0.0163867 0)
(-0.0140111 -0.0299831 0)
(0.00338291 -0.0619152 0)
(0.0179915 -0.00561467 0)
(0.0206803 -0.000597021 0)
(0.0224666 0.00159513 0)
(0.0202183 0.0028272 0)
(0.0164259 0.00413449 0)
(0.0120959 0.00621215 0)
(0.00762447 0.00882875 0)
(0.00297292 0.0115842 0)
(-0.00211483 0.0141518 0)
(-0.00792476 0.0159866 0)
(-0.0152428 0.0173605 0)
(-0.0233659 0.0182731 0)
(-0.0304635 0.0178135 0)
(-0.0365048 0.0156085 0)
(-0.0417289 0.0116658 0)
(-0.0459698 0.00701537 0)
(-0.0479387 0.00190507 0)
(-0.0463283 -0.00463334 0)
(-0.040277 -0.0107326 0)
(-0.0306388 -0.0152088 0)
(-0.0175536 -0.0226207 0)
(-0.00568508 -0.0360486 0)
(0.012214 -0.060867 0)
(0.0208198 -0.017272 0)
(0.0285228 -0.0042476 0)
(0.0320753 0.00111126 0)
(0.030801 0.0040814 0)
(0.0273075 0.00624696 0)
(0.0230327 0.00866522 0)
(0.0187309 0.0114964 0)
(0.0146751 0.0145879 0)
(0.0108443 0.0177895 0)
(0.00667756 0.0208709 0)
(0.00138444 0.0236182 0)
(-0.00606155 0.02457 0)
(-0.0153403 0.0226358 0)
(-0.0246864 0.0189511 0)
(-0.0337547 0.0138857 0)
(-0.0400679 0.00892011 0)
(-0.0410794 0.00254499 0)
(-0.0388054 -0.0057873 0)
(-0.0328786 -0.0135545 0)
(-0.0224527 -0.0198279 0)
(-0.00716003 -0.0286979 0)
(0.00783437 -0.042098 0)
(0.032395 -0.0555654 0)
(0.0547696 -0.0314969 0)
(0.129483 -0.0134004 0)
(0.15377 -0.00428654 0)
(0.16287 -0.00197746 0)
(0.162333 0.00381874 0)
(0.150623 0.0048232 0)
(0.133572 0.00925803 0)
(0.101781 0.0157572 0)
(0.0591724 0.0175096 0)
(0.012972 0.0180121 0)
(-0.0291327 0.0117409 0)
(-0.0491606 0.00309091 0)
(-0.0529204 -0.00207286 0)
(-0.0474246 -0.00438384 0)
(-0.0390343 -0.00407657 0)
(-0.0277871 -0.00587738 0)
(-0.0191847 -0.00424015 0)
(-0.00807645 -0.00554487 0)
(-0.00118532 -0.000780434 0)
(0.0414203 -0.0633659 0)
(0.105272 -0.0306814 0)
(0.133586 -0.0107153 0)
(0.148509 -0.00217448 0)
(0.151808 0.00481692 0)
(0.147886 0.00772612 0)
(0.134202 0.0158414 0)
(0.105157 0.0263301 0)
(0.0637549 0.0289724 0)
(0.0244284 0.0276993 0)
(-0.00425127 0.0194796 0)
(-0.0214305 0.00808273 0)
(-0.0288913 5.16927e-05 0)
(-0.0283038 -0.00426258 0)
(-0.021618 -0.00567381 0)
(-0.0138918 -0.00645994 0)
(-0.0121405 -0.0031757 0)
(-0.0131439 -0.00509922 0)
(-0.0122261 -0.00286419 0)
(0.0158453 -0.0883212 0)
(0.0661876 -0.0462826 0)
(0.100474 -0.0250721 0)
(0.139709 -0.00796016 0)
(0.156587 0.00390048 0)
(0.153898 0.0108963 0)
(0.139402 0.0224442 0)
(0.113361 0.0370722 0)
(0.0765063 0.0424758 0)
(0.0397068 0.0398261 0)
(0.0139479 0.0267163 0)
(0.000590113 0.0123736 0)
(-0.00689332 0.0016448 0)
(-0.00816536 -0.0045796 0)
(-0.00376196 -0.00789671 0)
(0.000316488 -0.00747759 0)
(-0.0017231 -0.00176895 0)
(-0.0078337 -0.00424196 0)
(-0.0106674 -0.010413 0)
(-0.00710096 -0.0984075 0)
(0.0336369 -0.0596691 0)
(0.0735477 -0.0438824 0)
(0.122661 -0.0258373 0)
(0.163424 0.000123152 0)
(0.167269 0.0135809 0)
(0.150468 0.0287101 0)
(0.124456 0.0481264 0)
(0.0901075 0.0557734 0)
(0.0593805 0.051201 0)
(0.0375129 0.034109 0)
(0.0239057 0.0168488 0)
(0.0153919 0.0031624 0)
(0.0144615 -0.00566054 0)
(0.016855 -0.00975589 0)
(0.0163429 -0.00730897 0)
(0.0121995 -0.000517543 0)
(0.00709615 -0.00254683 0)
(0.0101972 -0.012122 0)
(-0.0219242 -0.0914793 0)
(0.0190459 -0.0786438 0)
(0.0635696 -0.0607468 0)
(0.110809 -0.0499352 0)
(0.159939 -0.0148054 0)
(0.190115 0.016546 0)
(0.178427 0.0386901 0)
(0.154478 0.062861 0)
(0.120897 0.0715292 0)
(0.0943254 0.0642831 0)
(0.0762551 0.0420722 0)
(0.0593589 0.0218009 0)
(0.046503 0.00587426 0)
(0.0425856 -0.00554912 0)
(0.0421779 -0.00946782 0)
(0.0347112 -0.00455928 0)
(0.0220801 0.00135123 0)
(0.0112646 -0.00177471 0)
(0.011768 -0.00340644 0)
(0.0447219 -0.0846335 0)
(0.0424816 -0.100119 0)
(0.0806188 -0.0767001 0)
(0.112396 -0.0703353 0)
(0.156179 -0.0385208 0)
(0.204519 0.00919405 0)
(0.212694 0.0488277 0)
(0.19631 0.076363 0)
(0.179424 0.0880342 0)
(0.157926 0.0739681 0)
(0.137304 0.0511137 0)
(0.116141 0.0311576 0)
(0.0963713 0.0116617 0)
(0.0828623 -0.00343692 0)
(0.0767318 -0.00716897 0)
(0.0595964 0.00236687 0)
(0.0315052 0.00896122 0)
(0.00388657 0.00365828 0)
(-0.0243438 -0.00143736 0)
(0.172326 -0.154961 0)
(0.111792 -0.106629 0)
(0.123191 -0.0815027 0)
(0.132772 -0.0824743 0)
(0.158296 -0.0574317 0)
(0.20123 -0.00901316 0)
(0.224436 0.0478775 0)
(0.217601 0.0788043 0)
(0.208954 0.0894821 0)
(0.198035 0.0803416 0)
(0.182808 0.0602762 0)
(0.163513 0.0401986 0)
(0.142283 0.0198774 0)
(0.122872 0.00283989 0)
(0.109683 -0.00175184 0)
(0.0874539 0.015244 0)
(0.045225 0.0258893 0)
(0.00136467 0.0190796 0)
(-0.038089 -0.0127182 0)
(0.287468 -0.217381 0)
(0.196209 -0.11453 0)
(0.181222 -0.0707424 0)
(0.160355 -0.0825333 0)
(0.16703 -0.0674072 0)
(0.197202 -0.0246493 0)
(0.222025 0.0432207 0)
(0.227109 0.0800799 0)
(0.226077 0.0913514 0)
(0.222457 0.0833928 0)
(0.212186 0.0661001 0)
(0.195238 0.047925 0)
(0.174183 0.0285069 0)
(0.151297 0.0115902 0)
(0.131008 0.00674222 0)
(0.105173 0.0297452 0)
(0.0591255 0.0478414 0)
(0.00860085 0.0370392 0)
(-0.0261924 -0.0209136 0)
(0.0219719 -0.0351124 0)
(0.0329409 -0.0115834 0)
(0.0376275 -0.000445832 0)
(0.0376594 0.00538726 0)
(0.0352736 0.00878811 0)
(0.0319841 0.0114494 0)
(0.0286922 0.0139732 0)
(0.0259656 0.0165224 0)
(0.0240582 0.0192295 0)
(0.022834 0.0221981 0)
(0.0219038 0.0256365 0)
(0.0206576 0.0285587 0)
(0.0184379 0.0297305 0)
(0.0148625 0.0290558 0)
(0.00926665 0.0253229 0)
(-0.000558112 0.0162012 0)
(-0.0138625 0.00385242 0)
(-0.0208413 -0.0073382 0)
(-0.0172955 -0.0178406 0)
(-0.00372448 -0.0274413 0)
(0.0161076 -0.0385221 0)
(0.0379827 -0.0519397 0)
(0.0660131 -0.0652627 0)
(0.0172319 -0.0621131 0)
(0.0265586 -0.0215328 0)
(0.0282556 -0.00290094 0)
(0.0285729 0.00595156 0)
(0.0281232 0.0105896 0)
(0.0273153 0.0136061 0)
(0.0265356 0.0158068 0)
(0.0263727 0.0174888 0)
(0.0272742 0.0190769 0)
(0.0293083 0.021074 0)
(0.0322504 0.0235781 0)
(0.0357679 0.0257837 0)
(0.0395588 0.0267407 0)
(0.0437009 0.0264129 0)
(0.048526 0.0250563 0)
(0.0535551 0.0216546 0)
(0.0580542 0.0131968 0)
(0.0617696 -0.00414324 0)
(0.0636444 -0.0281099 0)
(0.0683142 -0.0484908 0)
(0.081682 -0.0654111 0)
(0.104937 -0.0843528 0)
(0.137079 -0.109882 0)
(0.00615285 -0.0780408 0)
(0.0108901 -0.0244769 0)
(0.00844252 -0.00322078 0)
(0.0088968 0.00554831 0)
(0.0105852 0.00985978 0)
(0.012476 0.0128192 0)
(0.0143767 0.0146332 0)
(0.0169226 0.0154148 0)
(0.0206425 0.0157224 0)
(0.0256481 0.0164678 0)
(0.031752 0.0180093 0)
(0.0387454 0.0194233 0)
(0.0467556 0.0194217 0)
(0.0562618 0.0177309 0)
(0.0677821 0.0145742 0)
(0.081051 0.00991037 0)
(0.0950617 0.00172862 0)
(0.108977 -0.0127639 0)
(0.122341 -0.0342838 0)
(0.136945 -0.0604439 0)
(0.154875 -0.088396 0)
(0.175568 -0.116714 0)
(0.198083 -0.14512 0)
(-0.0121955 -0.0775489 0)
(-0.0127509 -0.0220062 0)
(-0.0167854 -0.00353641 0)
(-0.0151534 0.00304402 0)
(-0.0112972 0.00633489 0)
(-0.00717247 0.00964827 0)
(-0.00329355 0.01122 0)
(0.00163759 0.0109745 0)
(0.00801154 0.0101652 0)
(0.0154938 0.00985379 0)
(0.0240824 0.0103788 0)
(0.0340794 0.0106324 0)
(0.0457286 0.00913092 0)
(0.0592676 0.00558206 0)
(0.0748303 0.000192008 0)
(0.0922659 -0.00614227 0)
(0.110973 -0.0148182 0)
(0.130139 -0.0289111 0)
(0.149079 -0.049142 0)
(0.167594 -0.0740804 0)
(0.185635 -0.100975 0)
(0.202441 -0.127461 0)
(0.215483 -0.15214 0)
(-0.0444473 -0.0529093 0)
(-0.0427595 -0.0138618 0)
(-0.0445255 -0.00274966 0)
(-0.0419984 0.000138935 0)
(-0.0370454 0.00186577 0)
(-0.0314971 0.00645066 0)
(-0.0261295 0.00743755 0)
(-0.019385 0.00524595 0)
(-0.0106295 0.00312548 0)
(-0.000586883 0.00183576 0)
(0.0106883 0.00106015 0)
(0.0237921 -0.000458136 0)
(0.0390242 -0.00389908 0)
(0.0561493 -0.00936137 0)
(0.0746258 -0.0165541 0)
(0.0941397 -0.0244209 0)
(0.115254 -0.0342465 0)
(0.137477 -0.04907 0)
(0.159291 -0.0691504 0)
(0.1793 -0.092951 0)
(0.196186 -0.117644 0)
(0.209037 -0.140481 0)
(0.21707 -0.159554 0)
(-0.0660286 -0.00244658 0)
(-0.0567164 -0.0082029 0)
(-0.0634452 -0.00311708 0)
(-0.0651929 -0.0032957 0)
(-0.0632381 -0.00381661 0)
(-0.0582569 -0.000594338 0)
(-0.0507157 -0.00138658 0)
(-0.0417107 -0.00580815 0)
(-0.031406 -0.00979149 0)
(-0.0193199 -0.0127252 0)
(-0.00525315 -0.0156216 0)
(0.0110002 -0.019572 0)
(0.029109 -0.0251014 0)
(0.0485734 -0.0321662 0)
(0.0689786 -0.0402784 0)
(0.0904537 -0.0495438 0)
(0.113297 -0.0611513 0)
(0.136885 -0.076188 0)
(0.159404 -0.094664 0)
(0.179441 -0.115024 0)
(0.19604 -0.135415 0)
(0.208512 -0.153196 0)
(0.216687 -0.166035 0)
(-0.0332567 0.0430692 0)
(-0.0290625 0.00865126 0)
(-0.0526288 0.005569 0)
(-0.0678173 -0.00104484 0)
(-0.0734058 -0.00608904 0)
(-0.071049 -0.0076434 0)
(-0.0636096 -0.0109009 0)
(-0.0537948 -0.0163558 0)
(-0.0425068 -0.0218709 0)
(-0.0292735 -0.0269373 0)
(-0.0137752 -0.0320852 0)
(0.00386726 -0.0380292 0)
(0.0232228 -0.0450919 0)
(0.0437508 -0.0532218 0)
(0.0651355 -0.0625025 0)
(0.0876823 -0.0731334 0)
(0.111544 -0.0855954 0)
(0.135714 -0.0998867 0)
(0.158714 -0.116063 0)
(0.179282 -0.133158 0)
(0.196776 -0.149703 0)
(0.211214 -0.163604 0)
(0.222508 -0.174304 0)
(0.0272468 0.0486638 0)
(0.0448792 0.0267544 0)
(-0.000154225 0.0282278 0)
(-0.0436636 0.011187 0)
(-0.0669387 -0.00264883 0)
(-0.070913 -0.00963665 0)
(-0.0653837 -0.0159545 0)
(-0.0558534 -0.0229429 0)
(-0.0441405 -0.029879 0)
(-0.0301412 -0.0364348 0)
(-0.0138399 -0.0429938 0)
(0.00453011 -0.0501794 0)
(0.0246122 -0.0581244 0)
(0.0458004 -0.0667594 0)
(0.0680857 -0.0764253 0)
(0.0912245 -0.0874728 0)
(0.114879 -0.100223 0)
(0.138501 -0.113969 0)
(0.16096 -0.128543 0)
(0.18146 -0.143293 0)
(0.199311 -0.157162 0)
(0.213984 -0.168228 0)
(0.224613 -0.173647 0)
(0.0663488 -0.0247857 0)
(0.104158 0.0234052 0)
(0.104386 0.0723475 0)
(0.0287333 0.0233807 0)
(-0.0435928 -0.00363428 0)
(-0.0624999 -0.0105658 0)
(-0.0589491 -0.0164286 0)
(-0.049371 -0.0233528 0)
(-0.0377135 -0.0303698 0)
(-0.0236846 -0.0369303 0)
(-0.00684451 -0.0433344 0)
(0.0123396 -0.0506059 0)
(0.033452 -0.0590551 0)
(0.0563913 -0.0679841 0)
(0.0790194 -0.0778807 0)
(0.102144 -0.09064 0)
(0.127048 -0.104916 0)
(0.151568 -0.119066 0)
(0.174425 -0.133177 0)
(0.194629 -0.146526 0)
(0.21014 -0.158305 0)
(0.220658 -0.167205 0)
(0.227626 -0.173789 0)
(0.00126131 -0.0883531 0)
(0.0480661 -0.021448 0)
(0.108582 0.144354 0)
(0.14168 0.232545 0)
(0.0785448 0.116782 0)
(0.0244432 0.0138956 0)
(0.00281679 -0.0377645 0)
(-0.00015235 -0.0625547 0)
(0.00862876 -0.0801508 0)
(0.0253229 -0.0971584 0)
(0.0482041 -0.113555 0)
(0.0743016 -0.127963 0)
(0.100675 -0.141106 0)
(0.125719 -0.151076 0)
(0.147954 -0.162766 0)
(0.162669 -0.166669 0)
(0.167247 -0.174486 0)
(0.163797 -0.181574 0)
(0.156935 -0.192367 0)
(0.154064 -0.205003 0)
(0.159496 -0.216786 0)
(0.176028 -0.222264 0)
(0.199183 -0.214653 0)
(0.041211 -0.121148 0)
(-0.0157886 -0.0972989 0)
(0.018163 0.0430833 0)
(0.0448093 0.161595 0)
(0.0571675 0.116566 0)
(0.0461568 0.0424238 0)
(0.0325418 -0.010935 0)
(0.0258095 -0.0452261 0)
(0.0275285 -0.0703904 0)
(0.0363963 -0.0922689 0)
(0.049928 -0.110652 0)
(0.0655034 -0.123 0)
(0.0798345 -0.132046 0)
(0.092199 -0.140726 0)
(0.102662 -0.142838 0)
(0.11071 -0.148352 0)
(0.117477 -0.148928 0)
(0.121816 -0.155237 0)
(0.125537 -0.167775 0)
(0.129128 -0.184425 0)
(0.132097 -0.202112 0)
(0.134298 -0.216554 0)
(0.140648 -0.206032 0)
(-0.0172283 -0.102056 0)
(-0.0324113 -0.0591393 0)
(-0.0460657 0.0131529 0)
(-0.0155322 0.115265 0)
(0.018373 0.0987569 0)
(0.0323519 0.0454822 0)
(0.0318887 -0.00308857 0)
(0.0281454 -0.0405519 0)
(0.0265585 -0.070525 0)
(0.0280314 -0.0972663 0)
(0.0322642 -0.117625 0)
(0.0371189 -0.130238 0)
(0.0416462 -0.137829 0)
(0.0445809 -0.14495 0)
(0.0480951 -0.152446 0)
(0.0538914 -0.154967 0)
(0.062924 -0.158873 0)
(0.074748 -0.165423 0)
(0.0857132 -0.176779 0)
(0.092723 -0.191 0)
(0.0932334 -0.203016 0)
(0.0877464 -0.207824 0)
(0.0849229 -0.193685 0)
(-0.0336168 -0.0657903 0)
(-0.0478801 -0.0238634 0)
(-0.0565121 0.0235069 0)
(-0.0363311 0.0760986 0)
(-0.00433906 0.0710096 0)
(0.0143416 0.0352 0)
(0.0206647 -0.00417663 0)
(0.0207836 -0.0390365 0)
(0.0193166 -0.0694664 0)
(0.0177812 -0.0980935 0)
(0.0170747 -0.118877 0)
(0.0169596 -0.132132 0)
(0.0175571 -0.138731 0)
(0.0181155 -0.145438 0)
(0.019411 -0.152317 0)
(0.0226049 -0.159118 0)
(0.0284199 -0.16538 0)
(0.0355969 -0.172079 0)
(0.041476 -0.1797 0)
(0.0433396 -0.18702 0)
(0.0393378 -0.192197 0)
(0.0315594 -0.193009 0)
(0.0276023 -0.182617 0)
(-0.0293927 -0.0367168 0)
(-0.0447999 -0.00537726 0)
(-0.0512607 0.025365 0)
(-0.0385075 0.0512767 0)
(-0.0159726 0.0468158 0)
(0.000731639 0.0219137 0)
(0.00875941 -0.00913554 0)
(0.0113581 -0.0396391 0)
(0.0109351 -0.0683832 0)
(0.00863305 -0.0959585 0)
(0.00521358 -0.117373 0)
(0.00227276 -0.13122 0)
(0.000596601 -0.138439 0)
(-0.00031305 -0.145505 0)
(-0.000651717 -0.152842 0)
(-0.000350374 -0.15942 0)
(0.000465496 -0.165312 0)
(0.00107266 -0.170969 0)
(0.000254138 -0.176499 0)
(-0.00308116 -0.181013 0)
(-0.0101634 -0.182943 0)
(-0.0178599 -0.181388 0)
(-0.0205567 -0.174738 0)
(-0.0226959 -0.00862469 0)
(-0.0359925 0.00898727 0)
(-0.0419404 0.0253208 0)
(-0.0350928 0.0357471 0)
(-0.020803 0.0297555 0)
(-0.00852023 0.0104826 0)
(-0.00131633 -0.0147032 0)
(0.00165277 -0.0412143 0)
(0.00172675 -0.0673206 0)
(-0.000892493 -0.0923115 0)
(-0.00571351 -0.113311 0)
(-0.0107306 -0.127805 0)
(-0.0148951 -0.136321 0)
(-0.0179584 -0.144414 0)
(-0.0205837 -0.152396 0)
(-0.0233417 -0.159575 0)
(-0.0264374 -0.165722 0)
(-0.0302522 -0.170753 0)
(-0.0352706 -0.174513 0)
(-0.0418455 -0.17642 0)
(-0.0506284 -0.175795 0)
(-0.058069 -0.172558 0)
(-0.059883 -0.167467 0)
(-0.0175058 0.0145611 0)
(-0.0280696 0.0213367 0)
(-0.03366 0.0263882 0)
(-0.0308736 0.0274289 0)
(-0.0228441 0.0190344 0)
(-0.0149666 0.00227096 0)
(-0.0098475 -0.0192105 0)
(-0.00771995 -0.0425508 0)
(-0.00836906 -0.0659678 0)
(-0.0115402 -0.0882775 0)
(-0.016897 -0.107497 0)
(-0.0234554 -0.122003 0)
(-0.0294862 -0.131914 0)
(-0.0345386 -0.140547 0)
(-0.0395076 -0.148431 0)
(-0.0448553 -0.155282 0)
(-0.0507669 -0.16088 0)
(-0.0574285 -0.165069 0)
(-0.065037 -0.16766 0)
(-0.0735097 -0.168288 0)
(-0.0833775 -0.166654 0)
(-0.0909363 -0.163063 0)
(-0.092872 -0.158542 0)
(-0.01398 0.031538 0)
(-0.0222816 0.0313571 0)
(-0.0278176 0.0289396 0)
(-0.0277529 0.023765 0)
(-0.0239976 0.013166 0)
(-0.0197588 -0.00267849 0)
(-0.0169608 -0.02192 0)
(-0.0163068 -0.0427538 0)
(-0.0179365 -0.0637725 0)
(-0.0219151 -0.0836523 0)
(-0.0279104 -0.101128 0)
(-0.034993 -0.114998 0)
(-0.0421101 -0.125584 0)
(-0.0488854 -0.134497 0)
(-0.055739 -0.142079 0)
(-0.063025 -0.148429 0)
(-0.0708738 -0.153402 0)
(-0.0794148 -0.156873 0)
(-0.0886522 -0.158669 0)
(-0.0983737 -0.158598 0)
(-0.109005 -0.156566 0)
(-0.117052 -0.152959 0)
(-0.119783 -0.148388 0)
(-0.0119677 0.0462729 0)
(-0.018612 0.0400114 0)
(-0.0240692 0.0323293 0)
(-0.0256793 0.0230455 0)
(-0.0246974 0.0106677 0)
(-0.0231258 -0.00491238 0)
(-0.0223468 -0.0227196 0)
(-0.0231316 -0.0416169 0)
(-0.0257952 -0.0605248 0)
(-0.0304129 -0.0784274 0)
(-0.0367662 -0.0942805 0)
(-0.0442366 -0.107452 0)
(-0.0520769 -0.118086 0)
(-0.0600199 -0.126869 0)
(-0.0682223 -0.134116 0)
(-0.076843 -0.139975 0)
(-0.0859774 -0.144409 0)
(-0.0957007 -0.147309 0)
(-0.105955 -0.148566 0)
(-0.11644 -0.148081 0)
(-0.127677 -0.145863 0)
(-0.136263 -0.142231 0)
(-0.139711 -0.13736 0)
(-0.0104748 0.0590782 0)
(-0.0160233 0.0476696 0)
(-0.0212978 0.0361748 0)
(-0.0238437 0.0240966 0)
(-0.0245769 0.0104024 0)
(-0.0248324 -0.00512762 0)
(-0.0255956 -0.0219404 0)
(-0.0275598 -0.0393197 0)
(-0.0310588 -0.056488 0)
(-0.0361928 -0.0726696 0)
(-0.0428015 -0.0871653 0)
(-0.0504739 -0.0995262 0)
(-0.0587469 -0.109773 0)
(-0.0673981 -0.118239 0)
(-0.0764213 -0.125112 0)
(-0.0858519 -0.130533 0)
(-0.095747 -0.134496 0)
(-0.106145 -0.136948 0)
(-0.116949 -0.13782 0)
(-0.127886 -0.137061 0)
(-0.13941 -0.134714 0)
(-0.148406 -0.131052 0)
(-0.152463 -0.125867 0)
(-0.00892913 0.0701194 0)
(-0.0135622 0.0544614 0)
(-0.0184554 0.0401452 0)
(-0.0213916 0.0261432 0)
(-0.0231024 0.0115405 0)
(-0.0245298 -0.00394935 0)
(-0.0263705 -0.0199927 0)
(-0.0291959 -0.0361438 0)
(-0.0333016 -0.0518679 0)
(-0.0387841 -0.0666108 0)
(-0.0455414 -0.0798826 0)
(-0.0533048 -0.0913803 0)
(-0.0617706 -0.101065 0)
(-0.0707461 -0.109076 0)
(-0.0801575 -0.115537 0)
(-0.0899848 -0.120539 0)
(-0.100233 -0.124098 0)
(-0.110915 -0.126188 0)
(-0.121923 -0.126769 0)
(-0.132953 -0.125814 0)
(-0.144562 -0.123394 0)
(-0.153665 -0.119699 0)
(-0.157905 -0.114348 0)
(-0.00699569 0.0792419 0)
(-0.010629 0.0602518 0)
(-0.0148504 0.0439064 0)
(-0.0177449 0.0286289 0)
(-0.0199047 0.0134806 0)
(-0.0220091 -0.00188324 0)
(-0.0245326 -0.0172554 0)
(-0.0279205 -0.0323647 0)
(-0.0324114 -0.0468629 0)
(-0.0380872 -0.0603705 0)
(-0.0448811 -0.0725524 0)
(-0.0526139 -0.083193 0)
(-0.061073 -0.092235 0)
(-0.0700973 -0.0997303 0)
(-0.0795888 -0.105752 0)
(-0.089492 -0.110355 0)
(-0.0997807 -0.113558 0)
(-0.110443 -0.115352 0)
(-0.121358 -0.115712 0)
(-0.132278 -0.114631 0)
(-0.143633 -0.112173 0)
(-0.152621 -0.108504 0)
(-0.15691 -0.103151 0)
(-0.00456286 0.0859801 0)
(-0.00695986 0.0647341 0)
(-0.010206 0.0471216 0)
(-0.0126998 0.0311313 0)
(-0.01491 0.0157779 0)
(-0.0173103 0.000675768 0)
(-0.020196 -0.0140498 0)
(-0.0238872 -0.0282293 0)
(-0.0285656 -0.0416547 0)
(-0.0342899 -0.0540788 0)
(-0.041011 -0.0652769 0)
(-0.0486005 -0.0750972 0)
(-0.0569012 -0.0834826 0)
(-0.0657755 -0.0904463 0)
(-0.0751203 -0.0960245 0)
(-0.0848617 -0.100251 0)
(-0.0949523 -0.103142 0)
(-0.105365 -0.104694 0)
(-0.115985 -0.104891 0)
(-0.126525 -0.103736 0)
(-0.137491 -0.101292 0)
(-0.146124 -0.097713 0)
(-0.150064 -0.0925055 0)
(-0.00165252 0.0898127 0)
(-0.00260577 0.0675703 0)
(-0.00459315 0.049489 0)
(-0.00639502 0.0333196 0)
(-0.00834549 0.0180927 0)
(-0.0107323 0.00341916 0)
(-0.0137214 -0.0106395 0)
(-0.0174939 -0.0239501 0)
(-0.0221857 -0.0364071 0)
(-0.0278264 -0.0478599 0)
(-0.03437 -0.0581635 0)
(-0.0417157 -0.0672133 0)
(-0.0497379 -0.0749608 0)
(-0.0583169 -0.0814015 0)
(-0.0673506 -0.0865515 0)
(-0.0767568 -0.0904299 0)
(-0.0864766 -0.0930476 0)
(-0.0964714 -0.094404 0)
(-0.106617 -0.0944899 0)
(-0.11668 -0.093307 0)
(-0.127025 -0.0909315 0)
(-0.135188 -0.0874908 0)
(-0.138827 -0.0825655 0)
(0.00141413 0.0900908 0)
(0.00209882 0.0684738 0)
(0.00158978 0.0507416 0)
(0.000709557 0.0349116 0)
(-0.000722805 0.020141 0)
(-0.00282357 0.0060857 0)
(-0.00568212 -0.0072489 0)
(-0.0093388 -0.0197115 0)
(-0.0138856 -0.0312655 0)
(-0.0193176 -0.0418291 0)
(-0.0255838 -0.0513119 0)
(-0.0325938 -0.0596432 0)
(-0.0402399 -0.0667855 0)
(-0.0484137 -0.0727279 0)
(-0.0570168 -0.0774748 0)
(-0.0659635 -0.0810361 0)
(-0.0751876 -0.0834185 0)
(-0.0846452 -0.0846225 0)
(-0.0942164 -0.0846417 0)
(-0.10364 -0.0834817 0)
(-0.113332 -0.0812186 0)
(-0.120911 -0.0779858 0)
(-0.12406 -0.0734128 0)
(0.00435074 0.0867698 0)
(0.00667548 0.0673044 0)
(0.0077866 0.0506977 0)
(0.00799901 0.0356874 0)
(0.00727931 0.0216745 0)
(0.00566958 0.00841777 0)
(0.00315532 -0.00409783 0)
(-0.00018219 -0.0156916 0)
(-0.00441493 -0.0263727 0)
(-0.00951232 -0.0360978 0)
(-0.0154014 -0.0448146 0)
(-0.0219888 -0.0524755 0)
(-0.0291748 -0.05905 0)
(-0.0368573 -0.0645241 0)
(-0.0449406 -0.0688974 0)
(-0.0533386 -0.072173 0)
(-0.0619823 -0.0743549 0)
(-0.0708218 -0.0754443 0)
(-0.079733 -0.075436 0)
(-0.0885082 -0.0743434 0)
(-0.0974331 -0.0722395 0)
(-0.104405 -0.0692398 0)
(-0.107217 -0.0650898 0)
(0.00675139 0.0802247 0)
(0.0106349 0.064051 0)
(0.0133851 0.0492418 0)
(0.0147989 0.0354875 0)
(0.0149603 0.0225195 0)
(0.0140286 0.0102355 0)
(0.0120395 -0.00137232 0)
(0.00916046 -0.0120738 0)
(0.00537521 -0.0218799 0)
(0.00075624 -0.030785 0)
(-0.00463606 -0.0387702 0)
(-0.0107112 -0.0457932 0)
(-0.0173605 -0.0518312 0)
(-0.0244788 -0.056868 0)
(-0.0319738 -0.0608959 0)
(-0.039758 -0.0639139 0)
(-0.0477609 -0.0659244 0)
(-0.0559302 -0.0669285 0)
(-0.0641537 -0.0669242 0)
(-0.0721984 -0.0659269 0)
(-0.0803863 -0.0639986 0)
(-0.0867348 -0.0612716 0)
(-0.0890367 -0.0575496 0)
(0.00835085 0.071116 0)
(0.0135843 0.0588999 0)
(0.0178618 0.0463527 0)
(0.0204952 0.0341911 0)
(0.021642 0.0225089 0)
(0.021525 0.0113591 0)
(0.020223 0.000775202 0)
(0.0179491 -0.00898028 0)
(0.0147351 -0.0179124 0)
(0.0106783 -0.0260204 0)
(0.00587143 -0.0332849 0)
(0.000418944 -0.0396845 0)
(-0.00560478 -0.0452067 0)
(-0.0120936 -0.0498234 0)
(-0.0189429 -0.0535275 0)
(-0.0260632 -0.0563114 0)
(-0.0333842 -0.0581722 0)
(-0.0408507 -0.0591114 0)
(-0.0483485 -0.0591296 0)
(-0.0556907 -0.0582398 0)
(-0.0630973 -0.0565102 0)
(-0.0688261 -0.0540395 0)
(-0.0708096 -0.0507672 0)
(0.00905411 0.0603702 0)
(0.0153518 0.0522108 0)
(0.0208909 0.0421303 0)
(0.024664 0.0317693 0)
(0.0268199 0.0215477 0)
(0.0275898 0.0116612 0)
(0.0270839 0.00220529 0)
(0.0255227 -0.00654219 0)
(0.0229848 -0.0145701 0)
(0.0195878 -0.0218776 0)
(0.0154406 -0.0284446 0)
(0.0106501 -0.0342433 0)
(0.00531745 -0.0392524 0)
(-0.000454113 -0.0434578 0)
(-0.00659788 -0.0468471 0)
(-0.013015 -0.0494041 0)
(-0.019622 -0.0511278 0)
(-0.0263636 -0.0520149 0)
(-0.0331344 -0.052065 0)
(-0.0397337 -0.0512922 0)
(-0.0464009 -0.0497555 0)
(-0.0515209 -0.047561 0)
(-0.053098 -0.0447017 0)
(0.00901295 0.0489668 0)
(0.0159934 0.0444637 0)
(0.0224389 0.0367967 0)
(0.0271629 0.0282983 0)
(0.0302515 0.0196289 0)
(0.0318961 0.0110879 0)
(0.0322156 0.0028387 0)
(0.0314206 -0.00484799 0)
(0.0296208 -0.0119442 0)
(0.0269481 -0.0184384 0)
(0.0235215 -0.0243036 0)
(0.0194517 -0.0295089 0)
(0.0148432 -0.0340263 0)
(0.00979528 -0.0378289 0)
(0.00439998 -0.0409008 0)
(-0.00125671 -0.043235 0)
(-0.00712001 -0.0448195 0)
(-0.0131248 -0.045651 0)
(-0.019154 -0.0457318 0)
(-0.0250492 -0.0450768 0)
(-0.0309702 -0.0437374 0)
(-0.0354808 -0.041794 0)
(-0.0368244 -0.0393289 0)
(0.00848587 0.0377955 0)
(0.0157643 0.0361965 0)
(0.0227028 0.030679 0)
(0.0281092 0.0239656 0)
(0.0319636 0.0168483 0)
(0.0343761 0.00967369 0)
(0.0354689 0.00267037 0)
(0.0354245 -0.00392628 0)
(0.0343689 -0.0100757 0)
(0.0324398 -0.0157501 0)
(0.0297585 -0.0209116 0)
(0.0264363 -0.0255217 0)
(0.0225768 -0.0295454 0)
(0.0182775 -0.0329523 0)
(0.0136294 -0.0357178 0)
(0.00871726 -0.0378236 0)
(0.00361166 -0.039262 0)
(-0.00163137 -0.0400331 0)
(-0.00692898 -0.0401316 0)
(-0.0121046 -0.0395752 0)
(-0.0173159 -0.0384087 0)
(-0.021249 -0.0367277 0)
(-0.0222355 -0.0345704 0)
(0.00765878 0.0271194 0)
(0.0149265 0.0278546 0)
(0.0220077 0.024141 0)
(0.0277998 0.0190354 0)
(0.0321832 0.0133808 0)
(0.0351869 0.0075445 0)
(0.0369263 0.00177555 0)
(0.03755 -0.0037392 0)
(0.0371872 -0.0089496 0)
(0.0359699 -0.0138111 0)
(0.0340145 -0.0182746 0)
(0.0314282 -0.0222932 0)
(0.0283109 -0.0258245 0)
(0.024756 -0.0288321 0)
(0.0208508 -0.0312866 0)
(0.0166759 -0.0331656 0)
(0.0123008 -0.0344549 0)
(0.00778174 -0.0351476 0)
(0.00321344 -0.0352472 0)
(-0.00127019 -0.0347686 0)
(-0.00579866 -0.0337647 0)
(-0.00910824 -0.032296 0)
(-0.00989421 -0.0304043 0)
(0.00663509 0.0172996 0)
(0.013682 0.0196447 0)
(0.0206427 0.0174254 0)
(0.0265515 0.0137405 0)
(0.0312144 0.00943994 0)
(0.0346084 0.00488119 0)
(0.0368255 0.000288634 0)
(0.0379894 -0.00419141 0)
(0.038221 -0.00849716 0)
(0.0376379 -0.0125709 0)
(0.0363461 -0.0163546 0)
(0.0344451 -0.019794 0)
(0.032028 -0.0228404 0)
(0.029182 -0.0254512 0)
(0.0259887 -0.0275918 0)
(0.0225238 -0.0292358 0)
(0.0188525 -0.030366 0)
(0.0150286 -0.0309735 0)
(0.0111382 -0.0310558 0)
(0.00730494 -0.0306253 0)
(0.00342139 -0.0297133 0)
(0.000717224 -0.0284022 0)
(0.000210951 -0.0269089 0)
(0.00566095 0.00862525 0)
(0.0122869 0.0118564 0)
(0.0189042 0.0108064 0)
(0.0246809 0.00835397 0)
(0.0293857 0.00527476 0)
(0.0329616 0.00188509 0)
(0.0354773 -0.00162802 0)
(0.0370316 -0.00514963 0)
(0.0377293 -0.0086079 0)
(0.0376696 -0.0119372 0)
(0.0369461 -0.0150741 0)
(0.0356478 -0.0179587 0)
(0.0338591 -0.0205366 0)
(0.0316588 -0.0227602 0)
(0.0291212 -0.0245903 0)
(0.0263154 -0.0259968 0)
(0.0233018 -0.0269597 0)
(0.0201303 -0.0274678 0)
(0.016884 -0.0275172 0)
(0.0136739 -0.0271204 0)
(0.010405 -0.0262865 0)
(0.00809103 -0.0250835 0)
(0.00771575 -0.0239475 0)
(0.00491903 0.0010936 0)
(0.0109616 0.00472736 0)
(0.0170139 0.00456224 0)
(0.0224389 0.00313694 0)
(0.0269779 0.00111418 0)
(0.0305476 -0.00124868 0)
(0.0331914 -0.00380571 0)
(0.034983 -0.0064629 0)
(0.0360058 -0.00914761 0)
(0.0363425 -0.011792 0)
(0.0360736 -0.0143293 0)
(0.0352765 -0.0166955 0)
(0.0340247 -0.0188316 0)
(0.0323876 -0.0206861 0)
(0.0304306 -0.0222161 0)
(0.0282157 -0.0233889 0)
(0.0257968 -0.0241818 0)
(0.0232203 -0.0245824 0)
(0.0205564 -0.0245859 0)
(0.0179173 -0.0242039 0)
(0.0152184 -0.023453 0)
(0.0132426 -0.0223931 0)
(0.0130411 -0.0213644 0)
(0.00438332 -0.00554584 0)
(0.0097103 -0.00162205 0)
(0.0150566 -0.00110329 0)
(0.0199722 -0.00171058 0)
(0.0241902 -0.00286015 0)
(0.0276023 -0.00435322 0)
(0.0302248 -0.00608435 0)
(0.0321095 -0.00798051 0)
(0.033321 -0.0099773 0)
(0.0339273 -0.0120082 0)
(0.0339962 -0.0140047 0)
(0.0335927 -0.0158994 0)
(0.0327789 -0.0176301 0)
(0.0316136 -0.019142 0)
(0.0301531 -0.0203897 0)
(0.0284507 -0.0213384 0)
(0.0265539 -0.0219644 0)
(0.0245035 -0.0222537 0)
(0.0223652 -0.0222017 0)
(0.0202282 -0.021815 0)
(0.0180192 -0.0211156 0)
(0.0164315 -0.0201481 0)
(0.0163011 -0.0192179 0)
(0.00390329 -0.0114746 0)
(0.00842707 -0.00710342 0)
(0.0129946 -0.00607058 0)
(0.0173268 -0.0060689 0)
(0.0211301 -0.00652718 0)
(0.0242758 -0.00729842 0)
(0.0267583 -0.00832657 0)
(0.0286139 -0.00956773 0)
(0.0298943 -0.0109688 0)
(0.0306559 -0.0124657 0)
(0.0309541 -0.013988 0)
(0.030842 -0.0154659 0)
(0.0303697 -0.0168344 0)
(0.0295854 -0.0180369 0)
(0.0285359 -0.0190263 0)
(0.0272661 -0.0197669 0)
(0.0258165 -0.0202342 0)
(0.0242225 -0.0204139 0)
(0.0225394 -0.0203004 0)
(0.0208505 -0.0198994 0)
(0.0190967 -0.0192258 0)
(0.0178238 -0.018324 0)
(0.0178247 -0.017492 0)
(0.00325363 -0.0165793 0)
(0.00692102 -0.0117119 0)
(0.0107446 -0.0103435 0)
(0.0144968 -0.00990862 0)
(0.0178507 -0.00981654 0)
(0.020662 -0.00998733 0)
(0.0229164 -0.0104243 0)
(0.0246463 -0.011114 0)