/*--------------------------------*- C++ -*----------------------------------*\
  =========                 |
  \\      /  F ield         | OpenFOAM: The Open Source CFD Toolbox
   \\    /   O peration     | Website:  https://openfoam.org
    \\  /    A nd           | Version:  13
     \\/     M anipulation  |
\*---------------------------------------------------------------------------*/
FoamFile
{
    format      ascii;
    class       surfaceScalarField;
    location    "0.0007";
    object      meshPhi;
}
// * * * * * * * * * * * * * * * * * * * * * * * * * * * * * * * * * * * * * //

dimensions      [0 3 -1 0 0 0 0];

internalField   nonuniform List<scalar> 
3252
(
1.39762e-11
0
2.79524e-11
3.4976e-25
4.19286e-11
3.51023e-25
5.59047e-11
3.51023e-25
6.98798e-11
-3.51009e-25
8.37916e-11
1.04963e-24
9.71342e-11
1.20551e-27
3.805e-25
4.19286e-11
0
8.38572e-11
-1.40409e-24
1.25786e-10
-2.79808e-24
1.67714e-10
0
2.0964e-10
2.80303e-24
2.51376e-10
1.39785e-24
2.91403e-10
-1.4047e-24
0
6.98811e-11
4.19712e-24
1.39762e-10
0
2.09643e-10
0
2.79524e-10
0
3.49399e-10
0
4.18964e-10
0
4.85674e-10
-1.44651e-26
4.56716e-24
9.78335e-11
0
1.95667e-10
5.59617e-24
2.935e-10
-5.59617e-24
3.91334e-10
5.59617e-24
4.89159e-10
-1.68081e-23
5.86559e-10
1.12032e-23
6.79948e-10
-5.61625e-24
-1.21647e-23
1.25786e-10
-1.40409e-23
2.51572e-10
0
3.77358e-10
0
5.03143e-10
0
6.28919e-10
1.39899e-23
7.54163e-10
-1.40295e-23
8.74225e-10
1.39876e-23
1.51888e-23
1.53738e-10
0
3.07477e-10
0
4.61215e-10
0
6.14953e-10
1.68491e-23
7.68679e-10
0
9.21779e-10
0
1.06851e-09
0
-1.82332e-23
1.81691e-10
-7.07142e-26
3.63382e-10
-1.41428e-25
5.45072e-10
0
7.26762e-10
1.95866e-23
9.08439e-10
-7.07085e-26
1.08941e-09
3.91444e-23
1.2628e-09
1.95643e-23
2.12813e-23
2.09643e-10
2.23847e-23
4.19286e-10
-2.25463e-23
6.28929e-10
-2.23847e-23
8.38572e-10
4.48502e-23
1.0482e-09
-2.24649e-23
1.25706e-09
-8.0523e-26
1.45709e-09
0
-4.87362e-23
2.37596e-10
0
4.75191e-10
9.09182e-26
7.12787e-10
-2.51827e-23
9.50381e-10
9.09179e-26
1.18796e-09
0
1.42472e-09
-9.06133e-26
1.65139e-09
2.5122e-23
0
2.65548e-10
-5.61637e-23
5.31096e-10
0
7.96644e-10
-2.0204e-25
1.06219e-09
0
1.32772e-09
5.59603e-23
1.59241e-09
-5.593e-23
1.8457e-09
0
0
2.93501e-10
-2.22245e-25
5.87001e-10
-2.22245e-25
8.80501e-10
-6.17801e-23
1.174e-09
6.15579e-23
1.46747e-09
-2.22222e-25
1.76013e-09
0
2.04002e-09
0
-1.89289e-25
3.21453e-10
6.73965e-23
6.42906e-10
-6.73965e-23
9.64358e-10
6.73964e-23
1.28581e-09
6.73965e-23
1.60723e-09
0
1.92788e-09
-6.71275e-23
2.23435e-09
1.33637e-22
7.34068e-23
3.49406e-10
-7.30128e-23
6.98811e-10
0
1.04822e-09
0
1.39762e-09
1.45763e-22
1.74698e-09
7.27485e-23
2.09566e-09
-7.29918e-23
2.42869e-09
2.50308e-25
-7.95927e-23
3.77358e-10
0
7.54716e-10
0
1.13207e-09
0
1.50943e-09
-2.82855e-25
1.88674e-09
7.83445e-23
2.26341e-09
-7.86085e-23
2.62291e-09
-2.69388e-25
8.55692e-23
4.05311e-10
-8.42456e-23
8.10621e-10
-1.67885e-22
1.21593e-09
8.42456e-23
1.62124e-09
-8.39427e-23
2.0265e-09
0
2.431e-09
-8.36192e-23
2.82004e-09
1.68074e-22
0
1.41514e-09
5.03093e-27
1.36243e-09
3.48163e-24
1.30782e-09
3.61798e-24
1.25122e-09
0
1.19254e-09
-3.88779e-24
1.13169e-09
-4.03229e-24
1.06857e-09
-4.17591e-24
1.00312e-09
6.45159e-27
9.35228e-10
6.69115e-27
8.64818e-10
9.33873e-24
7.91794e-10
0
7.16057e-10
1.00456e-23
6.37508e-10
1.04267e-23
5.5604e-10
5.40705e-24
4.71546e-10
-5.59963e-24
3.83914e-10
0
2.93027e-10
-1.2047e-23
1.98764e-10
6.25661e-24
1.01005e-10
6.49877e-24
-6.72602e-24
3.85415e-09
1.94103e-26
3.71059e-09
2.00495e-26
3.56185e-09
2.7926e-23
3.40773e-09
0
3.24792e-09
-1.50041e-23
3.08218e-09
-1.55386e-23
2.91029e-09
2.40066e-26
2.73202e-09
2.4898e-26
2.54713e-09
1.73877e-23
2.35537e-09
2.67814e-26
2.15649e-09
3.74078e-23
1.95023e-09
5.76154e-26
1.7363e-09
-4.01797e-23
1.51442e-09
0
1.28431e-09
3.21386e-26
1.04565e-09
-2.23802e-23
7.98116e-10
3.45706e-26
5.41394e-10
3.58546e-26
2.7515e-10
-2.50062e-23
3.84338e-26
5.7769e-09
3.71729e-23
5.56172e-09
5.80608e-26
5.33879e-09
6.01499e-26
5.10779e-09
4.19515e-23
4.86826e-09
4.35128e-23
4.61985e-09
-4.5063e-23
4.36221e-09
6.95156e-26
4.09501e-09
4.85463e-23
3.81789e-09
-5.02755e-23
3.53047e-09
5.22213e-23
3.23238e-09
-5.40813e-23
2.92322e-09
8.34183e-26
2.60258e-09
5.82615e-23
2.27003e-09
-6.03366e-23
1.92512e-09
9.30638e-26
1.5674e-09
6.50969e-23
1.19639e-09
1.00106e-25
8.11601e-10
-6.97129e-23
4.12538e-10
-7.24113e-23
7.52662e-23
7.26651e-09
4.78598e-23
6.99584e-09
0
6.71545e-09
-1.03972e-22
6.42489e-09
0
6.1236e-09
-5.59425e-23
5.81115e-09
0
5.48709e-09
-6.01777e-23
5.15099e-09
-6.24139e-23
4.80242e-09
9.62748e-26
4.4409e-09
1.34577e-22
4.06596e-09
-6.97369e-23
3.67709e-09
7.23281e-23
3.27377e-09
1.11395e-25
2.85548e-09
7.78029e-23
2.42164e-09
1.19824e-25
1.97169e-09
1.6726e-22
1.50502e-09
2.57785e-25
1.02102e-09
9.00272e-23
5.19065e-10
1.3864e-25
1.43386e-25
8.3939e-09
0
8.08122e-09
6.04281e-23
7.75735e-09
1.25564e-22
7.42172e-09
-1.30366e-22
7.07371e-09
-6.77588e-23
6.71278e-09
7.00686e-23
6.33846e-09
0
5.95023e-09
0
5.54758e-09
7.81735e-23
5.12999e-09
8.11989e-23
4.69688e-09
-8.4091e-23
4.24769e-09
8.73453e-23
3.78181e-09
-9.04563e-23
3.29863e-09
9.39568e-23
2.79749e-09
-9.73033e-23
2.27774e-09
1.00919e-22
1.73868e-09
-1.04824e-22
1.1796e-09
-1.08719e-22
5.99766e-10
-1.67426e-25
1.16669e-22
9.21951e-09
1.01243e-25
8.87604e-09
-7.00952e-23
8.52035e-09
0
8.15173e-09
-1.51204e-22
7.7695e-09
-7.84725e-23
7.37309e-09
0
6.96195e-09
8.44131e-23
6.53555e-09
-8.75498e-23
6.09331e-09
-9.06682e-23
5.63465e-09
9.41771e-23
5.15896e-09
0
4.66559e-09
1.50433e-25
4.1539e-09
0
3.6232e-09
2.17786e-22
3.07279e-09
0
2.50192e-09
1.17049e-22
1.90985e-09
-1.21578e-22
1.29579e-09
0
6.58933e-10
0
-2.71017e-22
9.79476e-09
-1.50973e-22
9.42984e-09
1.58408e-22
9.05198e-09
0
8.66039e-09
-1.70449e-22
8.25432e-09
1.76789e-22
7.83318e-09
0
7.3964e-09
0
6.94341e-09
0
6.47359e-09
-2.04567e-22
5.98632e-09
0
5.48096e-09
0
4.95682e-09
0
4.41321e-09
0
3.84941e-09
2.45869e-22
3.26466e-09
2.54626e-22
2.65818e-09
0
2.02918e-09
-5.48207e-22
1.37681e-09
2.84499e-22
7.00222e-10
4.38129e-25
3.05719e-22
1.01634e-08
1.66892e-22
9.78469e-09
0
9.39266e-09
-2.70475e-25
8.98635e-09
-1.88725e-22
8.56501e-09
-2.90704e-25
8.12803e-09
0
7.67483e-09
0
7.20479e-09
0
6.7173e-09
4.52664e-22
6.2117e-09
2.34568e-22
5.68733e-09
2.43645e-22
5.14348e-09
-2.52698e-22
4.57942e-09
-2.61698e-22
3.99441e-09
0
3.38766e-09
2.81926e-22
2.75837e-09
2.92401e-22
2.10571e-09
-3.03265e-22
1.42879e-09
0
7.26745e-10
3.25737e-22
0
1.03625e-08
-1.81683e-22
9.97632e-09
1.90736e-22
9.57665e-09
-1.97789e-22
9.1624e-09
3.05203e-25
8.73282e-09
2.1312e-22
8.28729e-09
-2.20711e-22
7.82522e-09
0
7.34599e-09
0
6.84896e-09
2.4624e-22
6.33347e-09
-2.5539e-22
5.79883e-09
2.65274e-22
5.24433e-09
2.7513e-22
4.66924e-09
4.23721e-25
4.07277e-09
-2.95516e-22
3.45415e-09
3.06952e-22
2.81254e-09
3.18357e-22
2.1471e-09
-3.29696e-22
1.45694e-09
3.42455e-22
7.4114e-10
0
-3.67959e-22
1.04234e-08
-3.90854e-22
1.0035e-08
-2.04919e-22
9.633e-09
-2.12789e-22
9.21634e-09
3.28323e-25
8.78424e-09
2.29274e-22
8.3361e-09
0
7.87132e-09
4.93259e-22
7.38928e-09
3.79849e-25
6.88933e-09
7.87913e-25
6.37081e-09
-2.74748e-22
5.83304e-09
2.85804e-22
5.27529e-09
-2.95544e-22
4.69681e-09
3.06981e-22
4.09685e-09
-3.17915e-22
3.4746e-09
0
2.82922e-09
0
2.15987e-09
3.5574e-22
1.46565e-09
-3.67317e-22
7.45649e-10
5.67366e-25
3.96419e-22
1.03729e-08
3.14637e-25
9.98624e-09
3.26229e-25
9.58626e-09
2.27073e-22
9.17164e-09
-2.34837e-22
8.74165e-09
2.44291e-22
8.2957e-09
3.76259e-25
7.83318e-09
7.80467e-25
7.35348e-09
-2.72143e-22
6.85597e-09
2.83095e-22
6.33998e-09
4.35349e-25
5.80482e-09
4.5152e-25
5.24978e-09
9.36589e-25
4.67412e-09
3.27574e-22
4.07707e-09
-3.38737e-22
3.45785e-09
-3.51323e-22
2.81561e-09
5.41863e-25
2.14952e-09
3.78478e-22
1.45867e-09
5.82876e-25
7.42164e-10
6.04533e-25
6.26232e-25
1.02332e-08
4.40458e-22
9.85169e-09
0
9.45714e-09
0
9.04812e-09
-2.48998e-22
8.62394e-09
-2.58252e-22
8.184e-09
-5.35298e-22
7.72771e-09
-2.77388e-22
7.25448e-09
0
6.76368e-09
5.97213e-22
6.25464e-09
0
5.7267e-09
-3.21448e-22
5.17915e-09
-9.99186e-22
4.61125e-09
6.91045e-22
4.02225e-09
-3.58627e-22
3.41137e-09
0
2.77779e-09
0
2.12068e-09
-4.00106e-22
1.43914e-09
4.14356e-22
7.32287e-10
4.3039e-22
4.45825e-22
1.00232e-08
0
9.64947e-09
-4.85443e-22
9.26307e-09
-2.52132e-22
8.86246e-09
0
8.44699e-09
5.4246e-22
8.01608e-09
5.62198e-22
7.56917e-09
-2.91761e-22
7.10566e-09
3.02152e-22
6.62493e-09
0
6.12635e-09
-3.25024e-22
5.60924e-09
3.37602e-22
5.07293e-09
-3.49626e-22
4.51669e-09
3.63156e-22
3.93979e-09
3.77208e-22
3.34145e-09
0
2.72088e-09
4.04557e-22
2.07725e-09
4.19588e-22
1.40971e-09
4.35826e-22
7.17365e-10
6.71206e-25
0
9.75872e-09
-2.41693e-22
9.39482e-09
-2.53751e-22
9.01866e-09
0
8.62864e-09
2.73147e-22
8.22413e-09
2.83295e-22
7.8046e-09
-2.93385e-22
7.36949e-09
0
6.91821e-09
6.31654e-22
6.45017e-09
3.27806e-22
5.96475e-09
5.04856e-25
5.4613e-09
-3.52095e-22
4.93914e-09
0
4.39758e-09
-3.78746e-22
3.8359e-09
3.93403e-22
3.25336e-09
8.15434e-22
2.64917e-09
-4.22552e-22
2.02253e-09
-4.38252e-22
1.37261e-09
4.55212e-22
6.98529e-10
7.01068e-25
-9.78054e-22
9.45303e-09
2.51602e-22
9.10048e-09
0
8.73614e-09
-2.73385e-22
8.35835e-09
-4.21678e-25
7.96653e-09
8.83533e-22
7.56014e-09
-3.05454e-22
7.13866e-09
3.16803e-22
6.70152e-09
4.87926e-25
6.24815e-09
3.40784e-22
5.77794e-09
-7.06368e-22
5.29026e-09
3.66579e-22
4.78447e-09
3.802e-22
4.25988e-09
7.88067e-22
3.7158e-09
-4.0837e-22
3.15151e-09
0
2.56625e-09
6.53259e-25
1.95924e-09
0
1.32969e-09
-4.73233e-22
6.76726e-10
1.45766e-24
-1.01599e-21
9.11713e-09
2.59684e-22
8.77706e-09
-2.72414e-22
8.42571e-09
8.4964e-22
8.06136e-09
8.73195e-25
7.68346e-09
-6.08517e-22
7.29152e-09
4.69661e-25
6.88502e-09
-6.55063e-22
6.46342e-09
5.05201e-25
6.02616e-09
-3.52848e-22
5.57266e-09
-3.64872e-22
5.10232e-09
-3.78993e-22
4.6145e-09
0
4.10855e-09
4.08286e-22
3.58381e-09
-4.22828e-22
3.03957e-09
-8.77729e-22
2.47512e-09
-4.54832e-22
1.88969e-09
4.72434e-22
1.2825e-09
7.27586e-25
6.52746e-10
-1.01563e-21
-1.58065e-21
8.76017e-09
8.04094e-22
8.43336e-09
-5.63081e-22
8.09581e-09
2.92514e-22
7.74573e-09
-6.05826e-22
7.38263e-09
-9.42491e-22
7.00604e-09
3.2632e-22
6.61546e-09
-3.37943e-22
6.21037e-09
-3.505e-22
5.79024e-09
7.28128e-22
5.3545e-09
-3.7647e-22
4.90257e-09
3.91622e-22
4.43386e-09
-1.21731e-21
3.94772e-09
-4.20013e-22
3.44353e-09
0
2.92061e-09
1.35878e-21
2.37825e-09
-4.6929e-22
1.81575e-09
7.2382e-25
1.23234e-09
7.50715e-25
6.27246e-10
-5.22787e-22
1.08697e-21
8.38969e-09
-2.7511e-22
8.07666e-09
4.32685e-25
7.75342e-09
-3.00453e-22
7.41816e-09
0
7.07042e-09
-3.2268e-22
6.70976e-09
-1.0055e-21
6.3357e-09
-3.47621e-22
5.94774e-09
3.60538e-22
5.54538e-09
3.7449e-22
5.12807e-09
-3.87829e-22
4.69526e-09
-4.02837e-22
4.24637e-09
-6.20411e-25
3.7808e-09
6.43461e-25
3.29793e-09
4.48762e-22
2.79713e-09
0
2.27771e-09
4.83448e-22
1.739e-09
-5.00666e-22
1.18027e-09
-5.20041e-22
6.00767e-10
5.40162e-22
-5.58626e-22
8.01189e-09
0
7.71291e-09
-5.94394e-22
7.40427e-09
0
7.08411e-09
-6.3931e-22
6.75203e-09
6.64037e-22
6.40762e-09
0
6.0504e-09
-1.42753e-21
5.67992e-09
0
5.29568e-09
1.141e-24
4.89716e-09
-7.95733e-22
4.48384e-09
0
4.05517e-09
1.7132e-21
3.61057e-09
-8.87769e-22
3.14945e-09
0
2.6712e-09
9.56386e-22
2.17518e-09
0
1.66073e-09
0
1.12716e-09
-1.06542e-21
5.73755e-10
0
1.14786e-21
7.63143e-09
5.79085e-22
7.347e-09
0
7.05305e-09
6.31891e-22
6.74809e-09
0
6.43176e-09
6.79611e-22
6.10369e-09
0
5.76342e-09
7.29965e-22
5.41051e-09
-7.58214e-22
5.0445e-09
0
4.66489e-09
0
4.27118e-09
-8.44656e-22
3.86284e-09
8.77343e-22
3.43934e-09
0
3.00009e-09
-9.42349e-22
2.54453e-09
0
2.07204e-09
1.50748e-24
1.582e-09
1.05291e-21
1.07375e-09
0
5.46592e-10
0
1.17474e-21
1.05443e-09
9.70003e-23
2.10886e-09
9.665e-23
3.16328e-09
9.66501e-23
4.2177e-09
1.94001e-22
5.27202e-09
-3.50168e-25
6.324e-09
-3.49359e-25
7.35165e-09
-3.43786e-25
-8.62519e-23
8.12549e-09
1.20661e-09
0
2.41323e-09
0
3.61984e-09
2.20911e-22
4.82644e-09
0
6.03294e-09
0
7.23692e-09
0
8.42392e-09
0
1.92192e-22
9.18265e-09
1.3588e-09
-2.48009e-22
2.7176e-09
2.46231e-22
4.07639e-09
-2.4712e-22
5.43518e-09
2.46232e-22
6.79388e-09
-8.88923e-25
8.15051e-09
-2.47095e-22
9.48702e-09
-8.72566e-25
0
1.03299e-08
1.51099e-09
-9.83265e-25
3.02197e-09
-9.83264e-25
4.53295e-09
-5.4666e-22
6.04392e-09
-9.83256e-25
7.55483e-09
0
9.06447e-09
-5.46638e-22
1.05455e-08
-9.62464e-25
-6.04093e-25
1.14765e-08
1.66317e-09
-2.9954e-22
3.32634e-09
5.98002e-22
4.98951e-09
0
6.65266e-09
2.9954e-22
8.31578e-09
0
9.97847e-09
0
1.16053e-08
0
0
1.26251e-08
1.81536e-09
3.24578e-22
3.63071e-09
3.24578e-22
5.44606e-09
0
7.26141e-09
3.24578e-22
9.07674e-09
-6.50337e-22
1.08924e-08
3.24579e-22
1.26666e-08
6.42997e-22
-2.78643e-22
1.37764e-08
1.96754e-09
7.02653e-22
3.93508e-09
-1.26612e-24
5.90262e-09
-3.50693e-22
7.87015e-09
-7.02652e-22
9.83769e-09
-1.26613e-24
1.18061e-08
7.01394e-22
1.37297e-08
3.46082e-22
-3.00911e-22
1.49309e-08
2.11973e-09
0
4.23945e-09
0
6.35918e-09
-3.76808e-22
8.47889e-09
0
1.05986e-08
0
1.27197e-08
-3.76815e-22
1.47951e-08
0
-3.23613e-22
1.60892e-08
2.27191e-09
-4.02924e-22
4.54382e-09
4.04379e-22
6.81574e-09
-4.01469e-22
9.08764e-09
-8.08756e-22
1.13596e-08
4.04379e-22
1.36331e-08
1.45569e-24
1.58629e-08
-4.0122e-22
6.91856e-22
1.72519e-08
2.4241e-09
1.54898e-24
4.8482e-09
1.54898e-24
7.27229e-09
-4.30588e-22
9.69638e-09
-8.59625e-22
1.21205e-08
1.29021e-21
1.45461e-08
4.29043e-22
1.69336e-08
-4.2803e-22
9.51121e-25
1.84196e-08
2.57628e-09
-3.28653e-24
5.15257e-09
9.1031e-22
7.72885e-09
0
1.03051e-08
0
1.28814e-08
0
1.54589e-08
-9.13582e-22
1.80072e-08
0
7.88086e-22
1.95928e-08
2.72847e-09
0
5.45694e-09
0
8.18541e-09
9.6254e-22
1.09139e-08
0
1.36424e-08
0
1.63713e-08
-3.47508e-24
1.9084e-08
0
-8.40561e-22
2.0772e-08
2.88066e-09
-3.66367e-24
5.76131e-09
1.01477e-21
8.64196e-09
0
1.15226e-08
0
1.44033e-08
1.01474e-21
1.72835e-08
0
2.01646e-08
0
0
2.1958e-08
3.03284e-09
1.06315e-21
6.06568e-09
0
9.09852e-09
-3.85224e-24
1.21314e-08
-3.85225e-24
1.51643e-08
1.06312e-21
1.81959e-08
-3.85037e-24
2.12337e-08
-1.07763e-21
1.89478e-21
2.31471e-08
3.18503e-09
6.37005e-09
9.55508e-09
1.27401e-08
1.59252e-08
1.91088e-08
2.22866e-08
2.4589e-08
8.34102e-09
-1.76413e-09
8.46865e-09
-1.83278e-09
8.58055e-09
-1.88258e-09
8.68457e-09
-1.93034e-09
8.78142e-09
-1.97789e-09
8.87121e-09
-2.02539e-09
8.95397e-09
-2.07289e-09
9.0297e-09
-2.12039e-09
9.0984e-09
-2.16788e-09
9.16007e-09
-2.21538e-09
9.21471e-09
-2.26288e-09
9.26233e-09
-2.31037e-09
9.30292e-09
-2.35787e-09
9.33649e-09
-2.40537e-09
9.36302e-09
-2.45286e-09
9.38253e-09
-2.50036e-09
9.39501e-09
-2.54786e-09
9.40046e-09
-2.59535e-09
9.39889e-09
-2.64285e-09
9.39028e-09
-2.69035e-09
9.37465e-09
-2.73784e-09
9.35199e-09
-2.78534e-09
9.32231e-09
-2.83284e-09
9.2856e-09
-2.88033e-09
9.24186e-09
-2.92783e-09
9.19109e-09
-2.97533e-09
9.13329e-09
-3.02282e-09
9.06847e-09
-3.07032e-09
8.99662e-09
-3.11782e-09
8.91774e-09
-3.16531e-09
8.83183e-09
-3.21281e-09
8.7389e-09
-3.26031e-09
8.63894e-09
-3.3078e-09
8.53195e-09
-3.3553e-09
8.41793e-09
-3.4028e-09
8.29689e-09
-3.45029e-09
8.16882e-09
-3.49779e-09
8.03372e-09
-3.54529e-09
7.89159e-09
-3.59278e-09
7.74244e-09
-3.64028e-09
7.58626e-09
-3.68778e-09
7.42305e-09
-3.73527e-09
7.25281e-09
-3.78277e-09
7.07555e-09
-3.83027e-09
6.89126e-09
-3.87776e-09
6.69994e-09
-3.92526e-09
6.50159e-09
-3.97276e-09
6.29621e-09
-4.02025e-09
6.08355e-09
-4.06757e-09
-4.10027e-09
5.84328e-09
9.47746e-09
-1.85247e-09
9.58663e-09
-1.9164e-09
9.6679e-09
-1.96047e-09
9.74007e-09
-2.0019e-09
9.80525e-09
-2.04294e-09
9.86379e-09
-2.08391e-09
9.91577e-09
-2.12487e-09
9.96121e-09
-2.16582e-09
1.00001e-08
-2.20678e-09
1.00325e-08
-2.24773e-09
1.00583e-08
-2.28868e-09
1.00775e-08
-2.32964e-09
1.00903e-08
-2.37059e-09
1.00964e-08
-2.41155e-09
1.00961e-08
-2.4525e-09
1.00892e-08
-2.49345e-09
1.00757e-08
-2.53441e-09
1.00557e-08
-2.57536e-09
1.00292e-08
-2.61631e-09
9.99611e-09
-2.65727e-09
9.95649e-09
-2.69822e-09
9.91032e-09
-2.73918e-09
9.85762e-09
-2.78013e-09
9.79837e-09
-2.82108e-09
9.73257e-09
-2.86204e-09
9.66024e-09
-2.90299e-09
9.58136e-09
-2.94394e-09
9.49594e-09
-2.9849e-09
9.40397e-09
-3.02585e-09
9.30547e-09
-3.06681e-09
9.20042e-09
-3.10776e-09
9.08882e-09
-3.14871e-09
8.97069e-09
-3.18967e-09
8.84601e-09
-3.23062e-09
8.71479e-09
-3.27157e-09
8.57702e-09
-3.31253e-09
8.43272e-09
-3.35348e-09
8.28187e-09
-3.39444e-09
8.12447e-09
-3.43539e-09
7.96054e-09
-3.47634e-09
7.79006e-09
-3.5173e-09
7.61304e-09
-3.55825e-09
7.42947e-09
-3.5992e-09
7.23936e-09
-3.64016e-09
7.04271e-09
-3.68111e-09
6.83952e-09
-3.72207e-09
6.62978e-09
-3.76302e-09
6.41349e-09
-3.80397e-09
6.18997e-09
-3.84464e-09
-3.87132e-09
5.91804e-09
1.06204e-08
-1.90758e-09
1.07047e-08
-1.96705e-09
1.07553e-08
-2.00571e-09
1.07956e-08
-2.04124e-09
1.08291e-08
-2.07625e-09
1.08564e-08
-2.11117e-09
1.08776e-08
-2.14607e-09
1.08927e-08
-2.18097e-09
1.09018e-08
-2.21586e-09
1.09048e-08
-2.25076e-09
1.09018e-08
-2.28566e-09
1.08927e-08
-2.32055e-09
1.08776e-08
-2.35545e-09
1.08564e-08
-2.39034e-09
1.08291e-08
-2.42524e-09
1.07958e-08
-2.46013e-09
1.07564e-08
-2.49503e-09
1.0711e-08
-2.52992e-09
1.06595e-08
-2.56482e-09
1.06019e-08
-2.59971e-09
1.05383e-08
-2.63461e-09
1.04687e-08
-2.66951e-09
1.03929e-08
-2.7044e-09
1.03111e-08
-2.7393e-09
1.02233e-08
-2.77419e-09
1.01294e-08
-2.80909e-09
1.00294e-08
-2.84398e-09
9.92341e-09
-2.87888e-09
9.81133e-09
-2.91377e-09
9.6932e-09
-2.94867e-09
9.569e-09
-2.98357e-09
9.43875e-09
-3.01846e-09
9.30244e-09
-3.05336e-09
9.16007e-09
-3.08825e-09
9.01164e-09
-3.12315e-09
8.85716e-09
-3.15804e-09
8.69661e-09
-3.19294e-09
8.53001e-09
-3.22783e-09
8.35735e-09
-3.26273e-09
8.17863e-09
-3.29763e-09
7.99386e-09
-3.33252e-09
7.80302e-09
-3.36742e-09
7.60613e-09
-3.40231e-09
7.40318e-09
-3.43721e-09
7.19417e-09
-3.4721e-09
6.9791e-09
-3.507e-09
6.75797e-09
-3.54189e-09
6.53076e-09
-3.57678e-09
6.29648e-09
-3.61133e-09
-3.63273e-09
6.01362e-09
1.17639e-08
-1.92997e-09
1.1823e-08
-1.98477e-09
1.18426e-08
-2.01828e-09
1.18511e-08
-2.04835e-09
1.18529e-08
-2.07782e-09
1.1849e-08
-2.10717e-09
1.18394e-08
-2.1365e-09
1.18242e-08
-2.16582e-09
1.18035e-08
-2.19515e-09
1.17772e-08
-2.22447e-09
1.17454e-08
-2.25379e-09
1.17079e-08
-2.28311e-09
1.16649e-08
-2.31243e-09
1.16163e-08
-2.34175e-09
1.15622e-08
-2.37108e-09
1.15024e-08
-2.4004e-09
1.14371e-08
-2.42972e-09
1.13662e-08
-2.45904e-09
1.12898e-08
-2.48836e-09
1.12078e-08
-2.51769e-09
1.11202e-08
-2.54701e-09
1.1027e-08
-2.57633e-09
1.09282e-08
-2.60565e-09
1.08239e-08
-2.63497e-09
1.0714e-08
-2.6643e-09
1.05985e-08
-2.69362e-09
1.04775e-08
-2.72294e-09
1.03509e-08
-2.75226e-09
1.02187e-08
-2.78158e-09
1.00809e-08
-2.81091e-09
9.93759e-09
-2.84023e-09
9.78867e-09
-2.86955e-09
9.63419e-09
-2.89887e-09
9.47413e-09
-2.92819e-09
9.3085e-09
-2.95752e-09
9.13729e-09
-2.98684e-09
8.96051e-09
-3.01616e-09
8.77816e-09
-3.04548e-09
8.59023e-09
-3.0748e-09
8.39673e-09
-3.10412e-09
8.19766e-09
-3.13345e-09
7.99301e-09
-3.16277e-09
7.78279e-09
-3.19209e-09
7.56699e-09
-3.22141e-09
7.34562e-09
-3.25073e-09
7.11868e-09
-3.28006e-09
6.88617e-09
-3.30938e-09
6.64804e-09
-3.33869e-09
6.40306e-09
-3.36762e-09
-3.38431e-09
6.10954e-09
1.29084e-08
-1.91964e-09
1.29415e-08
-1.96957e-09
1.293e-08
-1.99821e-09
1.29066e-08
-2.02326e-09
1.28767e-08
-2.04765e-09
1.28415e-08
-2.07191e-09
1.28012e-08
-2.09615e-09
1.27558e-08
-2.12039e-09
1.27052e-08
-2.14462e-09
1.26496e-08
-2.16885e-09
1.25889e-08
-2.19309e-09
1.25231e-08
-2.21732e-09
1.24522e-08
-2.24155e-09
1.23763e-08
-2.26578e-09
1.22952e-08
-2.29002e-09
1.22091e-08
-2.31425e-09
1.21178e-08
-2.33848e-09
1.20215e-08
-2.36272e-09
1.19201e-08
-2.38695e-09
1.18136e-08
-2.41118e-09
1.1702e-08
-2.43542e-09
1.15853e-08
-2.45965e-09
1.14635e-08
-2.48388e-09
1.13367e-08
-2.50811e-09
1.12047e-08
-2.53235e-09
1.10677e-08
-2.55658e-09
1.09256e-08
-2.58081e-09
1.07783e-08
-2.60505e-09
1.0626e-08
-2.62928e-09
1.04687e-08
-2.65351e-09
1.03062e-08
-2.67775e-09
1.01386e-08
-2.70198e-09
9.96594e-09
-2.72621e-09
9.78819e-09
-2.75044e-09
9.60535e-09
-2.77468e-09
9.41742e-09
-2.79891e-09
9.22441e-09
-2.82314e-09
9.0263e-09
-2.84738e-09
8.82311e-09
-2.87161e-09
8.61483e-09
-2.89584e-09
8.40146e-09
-2.92008e-09
8.183e-09
-2.94431e-09
7.95945e-09
-2.96854e-09
7.73081e-09
-2.99277e-09
7.49708e-09
-3.01701e-09
7.25826e-09
-3.04124e-09
7.01436e-09
-3.06547e-09
6.76532e-09
-3.08969e-09
6.50969e-09
-3.11352e-09
-3.12604e-09
6.20554e-09
1.40542e-08
-1.87657e-09
1.40603e-08
-1.92144e-09
1.40175e-08
-1.94548e-09
1.39621e-08
-1.96594e-09
1.39006e-08
-1.98573e-09
1.38341e-08
-2.00539e-09
1.3763e-08
-2.02503e-09
1.36873e-08
-2.04466e-09
1.36069e-08
-2.06429e-09
1.3522e-08
-2.08392e-09
1.34325e-08
-2.10354e-09
1.33383e-08
-2.12317e-09
1.32396e-08
-2.1428e-09
1.31362e-08
-2.16243e-09
1.30283e-08
-2.18206e-09
1.29157e-08
-2.20169e-09
1.27985e-08
-2.22132e-09
1.26768e-08
-2.24095e-09
1.25504e-08
-2.26057e-09
1.24194e-08
-2.2802e-09
1.22838e-08
-2.29983e-09
1.21436e-08
-2.31946e-09
1.19988e-08
-2.33909e-09
1.18494e-08
-2.35872e-09
1.16954e-08
-2.37835e-09
1.15368e-08
-2.39798e-09
1.13736e-08
-2.4176e-09
1.12058e-08
-2.43723e-09
1.10334e-08
-2.45686e-09
1.08564e-08
-2.47649e-09
1.06748e-08
-2.49612e-09
1.04885e-08
-2.51575e-09
1.02977e-08
-2.53538e-09
1.01022e-08
-2.55501e-09
9.9022e-09
-2.57463e-09
9.69756e-09
-2.59426e-09
9.48831e-09
-2.61389e-09
9.27445e-09
-2.63352e-09
9.05599e-09
-2.65315e-09
8.83292e-09
-2.67278e-09
8.60526e-09
-2.69241e-09
8.37298e-09
-2.71203e-09
8.1361e-09
-2.73166e-09
7.89462e-09
-2.75129e-09
7.64854e-09
-2.77092e-09
7.39785e-09
-2.79055e-09
7.14255e-09
-2.81018e-09
6.8826e-09
-2.8298e-09
6.61638e-09
-2.84903e-09
-2.85793e-09
6.30161e-09
1.52016e-08
-1.80071e-09
1.51796e-08
-1.84037e-09
1.51051e-08
-1.8601e-09
1.50177e-08
-1.87641e-09
1.49244e-08
-1.89207e-09
1.48267e-08
-1.90761e-09
1.47248e-08
-1.92313e-09
1.46188e-08
-1.93864e-09
1.45087e-08
-1.95415e-09
1.43944e-08
-1.96966e-09
1.4276e-08
-1.98517e-09
1.41535e-08
-2.00068e-09
1.40269e-08
-2.01618e-09
1.38962e-08
-2.03169e-09
1.37613e-08
-2.0472e-09
1.36223e-08
-2.06271e-09
1.34792e-08
-2.07822e-09
1.3332e-08
-2.09373e-09
1.31807e-08
-2.10924e-09
1.30252e-08
-2.12475e-09
1.28657e-08
-2.14026e-09
1.2702e-08
-2.15577e-09
1.25341e-08
-2.17128e-09
1.23622e-08
-2.18678e-09
1.21862e-08
-2.20229e-09
1.2006e-08
-2.2178e-09
1.18217e-08
-2.23331e-09
1.16333e-08
-2.24882e-09
1.14408e-08
-2.26433e-09
1.12441e-08
-2.27984e-09
1.10433e-08
-2.29535e-09
1.08384e-08
-2.31086e-09
1.06294e-08
-2.32637e-09
1.04163e-08
-2.34188e-09
1.01991e-08
-2.35739e-09
9.97769e-09
-2.37289e-09
9.7522e-09
-2.3884e-09
9.5226e-09
-2.40391e-09
9.28887e-09
-2.41942e-09
9.05102e-09
-2.43493e-09
8.80905e-09
-2.45044e-09
8.56297e-09
-2.46595e-09
8.31276e-09
-2.48146e-09
8.05844e-09
-2.49697e-09
7.79999e-09
-2.51248e-09
7.53743e-09
-2.52799e-09
7.27074e-09
-2.54349e-09
6.99988e-09
-2.55899e-09
6.72313e-09
-2.57414e-09
-2.57996e-09
6.39776e-09
1.63509e-08
-1.692e-09
1.62993e-08
-1.72632e-09
1.61927e-08
-1.74206e-09
1.60732e-08
-1.75466e-09
1.59482e-08
-1.76667e-09
1.58193e-08
-1.77857e-09
1.56866e-08
-1.79045e-09
1.55503e-08
-1.80233e-09
1.54104e-08
-1.8142e-09
1.52668e-08
-1.82608e-09
1.51196e-08
-1.83795e-09
1.49687e-08
-1.84983e-09
1.48142e-08
-1.8617e-09
1.46561e-08
-1.87357e-09
1.44944e-08
-1.88545e-09
1.4329e-08
-1.89732e-09
1.41599e-08
-1.9092e-09
1.39873e-08
-1.92107e-09
1.3811e-08
-1.93294e-09
1.36311e-08
-1.94482e-09
1.34475e-08
-1.95669e-09
1.32603e-08
-1.96857e-09
1.30695e-08
-1.98044e-09
1.2875e-08
-1.99232e-09
1.26769e-08
-2.00419e-09
1.24751e-08
-2.01606e-09
1.22698e-08
-2.02794e-09
1.20608e-08
-2.03981e-09
1.18481e-08
-2.05169e-09
1.16318e-08
-2.06356e-09
1.14119e-08
-2.07543e-09
1.11884e-08
-2.08731e-09
1.09612e-08
-2.09918e-09
1.07304e-08
-2.11106e-09
1.04959e-08
-2.12293e-09
1.02578e-08
-2.13481e-09
1.00161e-08
-2.14668e-09
9.77074e-09
-2.15855e-09
9.52175e-09
-2.17043e-09
9.26912e-09
-2.1823e-09
9.01285e-09
-2.19418e-09
8.75296e-09
-2.20605e-09
8.48942e-09
-2.21792e-09
8.22225e-09
-2.2298e-09
7.95145e-09
-2.24167e-09
7.67701e-09
-2.25355e-09
7.39894e-09
-2.26542e-09
7.11717e-09
-2.27729e-09
6.82994e-09
-2.28884e-09
-2.29211e-09
6.49399e-09
1.75022e-08
-1.55033e-09
1.74196e-08
-1.57925e-09
1.72805e-08
-1.59134e-09
1.71288e-08
-1.60068e-09
1.69721e-08
-1.60953e-09
1.68119e-08
-1.61827e-09
1.66484e-08
-1.627e-09
1.64818e-08
-1.63573e-09
1.63121e-08
-1.64445e-09
1.61392e-08
-1.65317e-09
1.59631e-08
-1.6619e-09
1.57839e-08
-1.67062e-09
1.56016e-08
-1.67935e-09
1.54161e-08
-1.68807e-09
1.52274e-08
-1.69679e-09
1.50356e-08
-1.70552e-09
1.48406e-08
-1.71424e-09
1.46425e-08
-1.72297e-09
1.44413e-08
-1.73169e-09
1.42369e-08
-1.74041e-09
1.40293e-08
-1.74914e-09
1.38186e-08
-1.75786e-09
1.36048e-08
-1.76658e-09
1.33878e-08
-1.77531e-09
1.31676e-08
-1.78403e-09
1.29443e-08
-1.79276e-09
1.27178e-08
-1.80148e-09
1.24882e-08
-1.8102e-09
1.22555e-08
-1.81893e-09
1.20196e-08
-1.82765e-09
1.17805e-08
-1.83638e-09
1.15383e-08
-1.8451e-09
1.12929e-08
-1.85382e-09
1.10444e-08
-1.86255e-09
1.07928e-08
-1.87127e-09
1.0538e-08
-1.88e-09
1.028e-08
-1.88872e-09
1.00189e-08
-1.89744e-09
9.75463e-09
-1.90617e-09
9.48722e-09
-1.91489e-09
9.21665e-09
-1.92361e-09
8.94294e-09
-1.93234e-09
8.66608e-09
-1.94106e-09
8.38607e-09
-1.94979e-09
8.10291e-09
-1.95851e-09
7.81659e-09
-1.96723e-09
7.52713e-09
-1.97596e-09
7.23446e-09
-1.98467e-09
6.93682e-09
-1.99313e-09
-1.99439e-09
6.59029e-09
1.8656e-08
-1.37559e-09
1.85405e-08
-1.39911e-09
1.83685e-08
-1.40793e-09
1.81844e-08
-1.41448e-09
1.79959e-08
-1.42064e-09
1.78044e-08
-1.42671e-09
1.76102e-08
-1.43277e-09
1.74133e-08
-1.43883e-09
1.72138e-08
-1.44489e-09
1.70116e-08
-1.45095e-09
1.68067e-08
-1.45701e-09
1.65991e-08
-1.46307e-09
1.63889e-08
-1.46912e-09
1.6176e-08
-1.47518e-09
1.59605e-08
-1.48124e-09
1.57422e-08
-1.4873e-09
1.55214e-08
-1.49336e-09
1.52978e-08
-1.49942e-09
1.50716e-08
-1.50547e-09
1.48427e-08
-1.51153e-09
1.46112e-08
-1.51759e-09
1.43769e-08
-1.52365e-09
1.41401e-08
-1.52971e-09
1.39005e-08
-1.53577e-09
1.36583e-08
-1.54182e-09
1.34134e-08
-1.54788e-09
1.31659e-08
-1.55394e-09
1.29157e-08
-1.56e-09
1.26628e-08
-1.56606e-09
1.24073e-08
-1.57212e-09
1.21491e-08
-1.57817e-09
1.18882e-08
-1.58423e-09
1.16247e-08
-1.59029e-09
1.13585e-08
-1.59635e-09
1.10896e-08
-1.60241e-09
1.08181e-08
-1.60846e-09
1.05439e-08
-1.61452e-09
1.0267e-08
-1.62058e-09
9.98751e-09
-1.62664e-09
9.70531e-09
-1.6327e-09
9.42045e-09
-1.63876e-09
9.13293e-09
-1.64481e-09
8.84274e-09
-1.65087e-09
8.54988e-09
-1.65693e-09
8.25436e-09
-1.66299e-09
7.95617e-09
-1.66905e-09
7.65532e-09
-1.67511e-09
7.35175e-09
-1.68116e-09
7.04377e-09
-1.687e-09
-1.68678e-09
6.68668e-09
1.98123e-08
-1.16764e-09
1.9662e-08
-1.18584e-09
1.94565e-08
-1.19183e-09
1.924e-08
-1.19606e-09
1.90198e-08
-1.2e-09
1.8797e-08
-1.20389e-09
1.8572e-08
-1.20777e-09
1.83449e-08
-1.21165e-09
1.81155e-08
-1.21553e-09
1.78839e-08
-1.2194e-09
1.76502e-08
-1.22328e-09
1.74143e-08
-1.22716e-09
1.71762e-08
-1.23104e-09
1.6936e-08
-1.23491e-09
1.66935e-08
-1.23879e-09
1.64489e-08
-1.24267e-09
1.62021e-08
-1.24654e-09
1.59531e-08
-1.25042e-09
1.57019e-08
-1.2543e-09
1.54485e-08
-1.25818e-09
1.5193e-08
-1.26205e-09
1.49353e-08
-1.26593e-09
1.46754e-08
-1.26981e-09
1.44133e-08
-1.27369e-09
1.4149e-08
-1.27756e-09
1.38826e-08
-1.28144e-09
1.3614e-08
-1.28532e-09
1.33432e-08
-1.2892e-09
1.30702e-08
-1.29307e-09
1.2795e-08
-1.29695e-09
1.25177e-08
-1.30083e-09
1.22381e-08
-1.3047e-09
1.19564e-08
-1.30858e-09
1.16725e-08
-1.31246e-09
1.13865e-08
-1.31634e-09
1.10982e-08
-1.32021e-09
1.08078e-08
-1.32409e-09
1.05152e-08
-1.32797e-09
1.02204e-08
-1.33184e-09
9.92341e-09
-1.33572e-09
9.62425e-09
-1.3396e-09
9.32292e-09
-1.34348e-09
9.0194e-09
-1.34735e-09
8.7137e-09
-1.35123e-09
8.40582e-09
-1.35511e-09
8.09576e-09
-1.35899e-09
7.78351e-09
-1.36286e-09
7.46904e-09
-1.36674e-09
7.15078e-09
-1.37046e-09
-1.36927e-09
6.78316e-09
2.09716e-08
-9.26304e-10
2.07843e-08
-9.39382e-10
2.05447e-08
-9.42996e-10
2.02957e-08
-9.454e-10
2.00436e-08
-9.47621e-10
1.97896e-08
-9.4981e-10
1.95338e-08
-9.51993e-10
1.92764e-08
-9.54174e-10
1.90172e-08
-9.56355e-10
1.87563e-08
-9.58536e-10
1.84938e-08
-9.60717e-10
1.82295e-08
-9.62898e-10
1.79636e-08
-9.65079e-10
1.76959e-08
-9.6726e-10
1.74265e-08
-9.69441e-10
1.71555e-08
-9.71622e-10
1.68828e-08
-9.73803e-10
1.66083e-08
-9.75984e-10
1.63322e-08
-9.78165e-10
1.60544e-08
-9.80346e-10
1.57748e-08
-9.82527e-10
1.54936e-08
-9.84707e-10
1.52107e-08
-9.86888e-10
1.49261e-08
-9.89069e-10
1.46398e-08
-9.9125e-10
1.43517e-08
-9.93431e-10
1.4062e-08
-9.95612e-10
1.37706e-08
-9.97793e-10
1.34775e-08
-9.99974e-10
1.31827e-08
-1.00216e-09
1.28863e-08
-1.00434e-09
1.25881e-08
-1.00652e-09
1.22882e-08
-1.0087e-09
1.19866e-08
-1.01088e-09
1.16833e-08
-1.01306e-09
1.13784e-08
-1.01524e-09
1.10717e-08
-1.01742e-09
1.07633e-08
-1.0196e-09
1.04533e-08
-1.02178e-09
1.01415e-08
-1.02396e-09
9.82805e-09
-1.02615e-09
9.5129e-09
-1.02833e-09
9.19606e-09
-1.03051e-09
8.87751e-09
-1.03269e-09
8.55727e-09
-1.03487e-09
8.23534e-09
-1.03705e-09
7.91171e-09
-1.03923e-09
7.58634e-09
-1.04141e-09
7.25786e-09
-1.04349e-09
-1.04185e-09
6.87973e-09
2.2134e-08
-6.51403e-10
2.19072e-08
-6.59645e-10
2.1633e-08
-6.61428e-10
2.13514e-08
-6.62506e-10
2.10675e-08
-6.63495e-10
2.07822e-08
-6.64468e-10
2.04957e-08
-6.65438e-10
2.02079e-08
-6.66407e-10
1.99189e-08
-6.67377e-10
1.96287e-08
-6.68346e-10
1.93373e-08
-6.69315e-10
1.90447e-08
-6.70285e-10
1.87509e-08
-6.71254e-10
1.84558e-08
-6.72223e-10
1.81596e-08
-6.73193e-10
1.78621e-08
-6.74162e-10
1.75635e-08
-6.75131e-10
1.72636e-08
-6.76101e-10
1.69625e-08
-6.7707e-10
1.66602e-08
-6.78039e-10
1.63567e-08
-6.79008e-10
1.60519e-08
-6.79978e-10
1.5746e-08
-6.80947e-10
1.54388e-08
-6.81916e-10
1.51305e-08
-6.82886e-10
1.48209e-08
-6.83855e-10
1.45101e-08
-6.84824e-10
1.41981e-08
-6.85794e-10
1.38849e-08
-6.86763e-10
1.35705e-08
-6.87732e-10
1.32548e-08
-6.88701e-10
1.2938e-08
-6.89671e-10
1.26199e-08
-6.9064e-10
1.23007e-08
-6.91609e-10
1.19802e-08
-6.92579e-10
1.16585e-08
-6.93548e-10
1.13356e-08
-6.94517e-10
1.10115e-08
-6.95487e-10
1.06861e-08
-6.96456e-10
1.03596e-08
-6.97425e-10
1.00319e-08