/*--------------------------------*- C++ -*----------------------------------*\
  =========                 |
  \\      /  F ield         | OpenFOAM: The Open Source CFD Toolbox
   \\    /   O peration     | Website:  https://openfoam.org
    \\  /    A nd           | Version:  13
     \\/     M anipulation  |
\*---------------------------------------------------------------------------*/
FoamFile
{
    format      ascii;
    class       volScalarField;
    location    "0.0007";
    object      p;
}
// * * * * * * * * * * * * * * * * * * * * * * * * * * * * * * * * * * * * * //

dimensions      [0 2 -2 0 0 0 0];

internalField   nonuniform List<scalar> 
1690
(
-0.023574
0.029347
0.0755393
0.11278
0.131961
0.116937
0.0760465
0.0280574
-0.0230557
0.0299845
0.076376
0.113883
0.133048
0.117856
0.0756634
0.02715
-0.0222763
0.0302614
0.0762847
0.113589
0.132528
0.116635
0.0729528
0.0239186
-0.0210983
0.0306889
0.0761882
0.113226
0.131914
0.1149
0.068882
0.0188616
-0.0195677
0.0312274
0.0760354
0.112722
0.131065
0.112468
0.0632254
0.0121541
-0.0177437
0.0317993
0.0757159
0.111923
0.129752
0.109008
0.0556153
0.00299132
-0.0156896
0.032334
0.0751342
0.110692
0.127738
0.104129
0.0456478
-0.00867691
-0.0134765
0.0327576
0.0741922
0.108879
0.124718
0.0973449
0.0328955
-0.023212
-0.0111819
0.0329926
0.072784
0.106317
0.120384
0.0882419
0.0171929
-0.0407098
-0.00888641
0.0329616
0.0707959
0.102779
0.114587
0.0769305
-0.000964721
-0.0605737
-0.0066688
0.0325924
0.068147
0.098054
0.10726
0.0644973
-0.0201505
-0.0811231
-0.00459989
0.0318381
0.0648194
0.0920839
0.0984626
0.0526048
-0.0375823
-0.0999172
-0.0027363
0.0306993
0.0608427
0.0849612
0.0885117
0.0422169
-0.0495663
-0.11505
-0.00111942
0.0292029
0.0562545
0.0768373
0.0776693
0.0328032
-0.0573324
-0.141616
0.000226795
0.027376
0.0511191
0.06798
0.0662222
0.022685
-0.0666088
-0.178509
4.43546
4.42905
4.41768
4.39992
4.37656
4.34775
4.31452
4.27807
4.23976
4.20096
4.16299
4.12697
4.09383
4.06424
4.03863
4.01727
4.00026
3.98761
3.97943
3.97614
4.42924
4.42287
4.41106
4.39325
4.36965
4.34069
4.30738
4.27095
4.2328
4.19429
4.15673
4.12122
4.08865
4.05964
4.03461
4.01377
3.99721
3.98491
3.97698
3.97382
4.41917
4.41265
4.40076
4.38258
4.3586
4.32925
4.29566
4.25913
4.22111
4.183
4.14606
4.11136
4.07972
4.0517
4.02765
4.00771
3.99192
3.98024
3.97272
3.96973
4.40388
4.39711
4.38508
4.36639
4.34194
4.31213
4.27827
4.24178
4.20415
4.16678
4.1309
4.0975
4.0673
4.04076
4.01814
3.99949
3.98481
3.97398
3.96703
3.9643
4.38351
4.3765
4.36431
4.34507
4.32017
4.28994
4.25598
4.21978
4.18289
4.14669
4.11233
4.0807
4.05239
4.02775
4.00692
3.98988
3.97654
3.96675
3.9605
3.95805
4.35774
4.35055
4.33826
4.31856
4.29332
4.26286
4.22911
4.1936
4.15792
4.12339
4.09107
4.06169
4.03572
4.01336
3.99463
3.97944
3.96763
3.95901
3.95353
3.95141
4.32586
4.31861
4.30636
4.2864
4.26109
4.23081
4.19776
4.16354
4.12969
4.09746
4.06775
4.04113
4.0179
3.99815
3.98178
3.96863
3.95848
3.95112
3.94646
3.94468
4.28683
4.27975
4.26782
4.24801
4.22316
4.19369
4.1621
4.12993
4.09869
4.06945
4.04295
4.01958
3.99949
3.98262
3.9688
3.95781
3.9494
3.94334
3.93953
3.93809
4.23926
4.23276
4.22167
4.20272
4.17914
4.15144
4.12231
4.09317
4.06542
4.03993
4.01725
3.99758
3.98094
3.96717
3.95603
3.94727
3.94063
3.93589
3.93292
3.93182
4.18125
4.17601
4.16667
4.14973
4.12869
4.10409
4.07869
4.05372
4.03043
4.00947
3.99117
3.9756
3.96266
3.95212
3.94373
3.93722
3.93234
3.92888
3.92674
3.92596
4.11019
4.10739
4.10133
4.08821
4.0715
4.05175
4.03163
4.01214
3.99432
3.97861
3.96521
3.95405
3.94498
3.93775
3.9321
3.9278
3.92463
3.92242
3.92107
3.92059
4.02244
4.02417
4.02394
4.01734
4.00746
3.99476
3.9817
3.96906
3.9577
3.94792
3.93981
3.93328
3.92815
3.92422
3.92127
3.9191
3.91756
3.91653
3.91592
3.91573
3.91275
3.92288
3.93257
3.93644
3.93664
3.93364
3.92958
3.92517
3.92118
3.91787
3.91535
3.91356
3.91238
3.91168
3.91132
3.91118
3.91117
3.91123
3.91131
3.91138
3.77334
3.79926
3.8252
3.84514
3.85948
3.86915
3.87611
3.88122
3.88536
3.88893
3.89215
3.8951
3.89779
3.90019
3.90228
3.90404
3.90545
3.90651
3.90723
3.90752
3.59209
3.64849
3.69984
3.74354
3.77675
3.80233
3.82219
3.83794
3.85078
3.86146
3.87045
3.87805
3.88445
3.88978
3.89416
3.89767
3.90038
3.90235
3.90364
3.90414
3.34952
3.46579
3.55472
3.63251
3.68965
3.73437
3.76878
3.79602
3.81791
3.83575
3.85041
3.86248
3.87239
3.88046
3.88694
3.89204
3.89592
3.89871
3.9005
3.90119
3.01286
3.24743
3.38862
3.51374
3.59974
3.66662
3.71686
3.7561
3.78712
3.81201
3.83213
3.84842
3.8616
3.87217
3.88057
3.8871
3.89203
3.89555
3.89779
3.89864
2.52882
2.9917
3.20182
3.38908
3.50968
3.60055
3.66729
3.71865
3.75866
3.79035
3.81562
3.83586
3.85203
3.86488
3.87499
3.8828
3.88866
3.89281
3.89546
3.89644
1.80494
2.69237
2.99903
3.26268
3.42118
3.53741
3.62079
3.68407
3.73271
3.77081
3.80088
3.82473
3.84362
3.85851
3.87015
3.87909
3.88576
3.89047
3.89346
3.89456
0.742347
2.34536
2.79201
3.13913
3.33682
3.47835
3.57792
3.65257
3.70933
3.75337
3.78784
3.81495
3.83628
3.85299
3.86597
3.8759
3.88327
3.88847
3.89176
3.89296
0.00205626
0.0239249
0.0421682
0.0533463
0.0480951
0.00658173
-0.0746431
-0.139437
0.00337554
0.018663
0.0305332
0.036008
0.0288374
-0.003083
-0.0600878
-0.0945172
0.00373858
0.0132638
0.0198931
0.0209723
0.0123508
-0.0119909
-0.0510528
-0.0767891
0.00355382
0.00810342
0.0106265
0.00850144
-0.000877838
-0.020528
-0.047591
-0.0692874
0.00338791
0.00337379
0.0027532
-0.00174701
-0.0116316
-0.0282958
-0.0490569
-0.0679909
0.00197817
-0.000896786
-0.00395319
-0.0101893
-0.0204047
-0.0351315
-0.0525758
-0.0694832
-0.000511851
-0.00457733
-0.00970371
-0.0172334
-0.0277578
-0.0414399
-0.0572146
-0.0729572
-0.00210117
-0.00770439
-0.0144599
-0.0230521
-0.0339146
-0.047119
-0.0620845
-0.0772225
-0.00329884
-0.0103145
-0.0183737
-0.0278718
-0.0391292
-0.0522263
-0.0669024
-0.0818403
-0.00421842
-0.0124423
-0.0215737
-0.0318529
-0.0435383
-0.0567447
-0.0714337
-0.0864319
-0.0049227
-0.0141551
-0.0241691
-0.035123
-0.0472448
-0.0606794
-0.075552
-0.090786
-0.00545711
-0.0155143
-0.0262469
-0.0377745
-0.05032
-0.0640438
-0.0791775
-0.0947376
-0.00585138
-0.0165706
-0.027877
-0.0398838
-0.0528377
-0.0669099
-0.0823136
-0.0981478
-0.00612159
-0.0173477
-0.0290808
-0.0414301
-0.054681
-0.0690671
-0.0845929
-0.10028
-0.00628157
-0.0178496
-0.0298973
-0.0424946
-0.0560311
-0.0710466
-0.0871469
-0.102272
-0.167294
-0.153777
-0.145306
-0.142209
-0.142157
-0.144365
-0.148394
-0.153951
-0.160837
-0.168918
-0.1781
-0.188325
-0.199553
-0.211767
-0.224958
-0.239125
-0.254273
-0.270409
-0.287535
-0.305647
-0.32472
-0.344693
-0.365432
-0.38668
-0.408017
-0.428881
-0.448728
-0.467437
-0.485979
-0.507379
-0.537924
-0.587934
-0.672137
-0.817589
-1.05513
-1.41614
-1.92344
-2.5753
-3.32421
-4.06822
-4.68315
-5.07934
-5.23597
-5.2071
-5.1021
-5.0251
-5.04894
-5.23
-5.52958
-8.25731
-0.121155
-0.125306
-0.127039
-0.129687
-0.133557
-0.138585
-0.144702
-0.151854
-0.16
-0.169107
-0.179152
-0.190122
-0.202012
-0.214825
-0.22857
-0.243256
-0.258893
-0.275493
-0.293061
-0.311595
-0.331072
-0.351422
-0.372471
-0.393879
-0.415092
-0.435413
-0.454288
-0.47189
-0.489923
-0.512506
-0.547445
-0.607074
-0.704021
-0.874156
-1.14882
-1.56204
-2.13358
-2.8496
-3.64365
-4.39331
-4.95884
-5.25577
-5.29785
-5.18435
-5.04741
-4.98275
-5.03932
-5.21984
-5.62229
-7.04322
-0.0981819
-0.10771
-0.114467
-0.120647
-0.127018
-0.133882
-0.14139
-0.149618
-0.158611
-0.168398
-0.179002
-0.190444
-0.202744
-0.215928
-0.230013
-0.245014
-0.260949
-0.277842
-0.295705
-0.314541
-0.334321
-0.354946
-0.376195
-0.397677
-0.418836
-0.439081
-0.458108
-0.476423
-0.496044
-0.521456
-0.561911
-0.634061
-0.737863
-0.940587
-1.25903
-1.73136
-2.37334
-3.15725
-3.99508
-4.7416
-5.24853
-5.44547
-5.37282
-5.15801
-4.9729
-4.91619
-5.00761
-5.20465
-5.56715
-5.76829
-0.0872844
-0.0980248
-0.106484
-0.114435
-0.122452
-0.130746
-0.139458
-0.148692
-0.15852
-0.169004
-0.180191
-0.192122
-0.204836
-0.218366
-0.232746
-0.24802
-0.264223
-0.281379
-0.299508
-0.318611
-0.338658
-0.359558
-0.381124
-0.403045
-0.424898
-0.44625
-0.466943
-0.487629
-0.510583
-0.540903
-0.588233
-0.667987
-0.801563
-1.03206
-1.39406
-1.92394
-2.63202
-3.47788
-4.35049
-5.08408
-5.52686
-5.62679
-5.43967
-5.13163
-4.90372
-4.85629
-4.96308
-5.15297
-5.3169
-4.61717
-0.0842843
-0.095466
-0.104662
-0.113429
-0.122235
-0.131266
-0.14065
-0.15048
-0.160835
-0.17178
-0.183374
-0.195669
-0.208715
-0.222557
-0.237243
-0.252814
-0.269313
-0.286775
-0.305229
-0.324695
-0.345173
-0.366621
-0.38892
-0.411849
-0.435114
-0.458445
-0.481893
-0.506368
-0.534509
-0.572006
-0.629354
-0.72354
-0.880852
-1.1389
-1.53655
-2.10769
-2.85621
-3.73511
-4.61589
-5.32047
-5.69933
-5.7225
-5.46023
-5.10442
-4.86039
-4.81541
-4.90495
-4.97421
-4.81094
-3.55446
-0.0845631
-0.0957107
-0.105176
-0.114359
-0.123655
-0.133205
-0.143106
-0.153437
-0.164271
-0.175671
-0.187698
-0.20041
-0.213863
-0.22811
-0.243207
-0.259207
-0.276164
-0.29413
-0.313157
-0.33329
-0.354566
-0.376983
-0.400482
-0.424925
-0.450142
-0.476103
-0.503226
-0.53288
-0.568235
-0.615494
-0.685526
-0.795749
-0.972036
-1.2485
-1.66246
-2.24391
-2.99412
-3.86062
-4.71435
-5.37917
-5.71349
-5.69913
-5.422
-5.07178
-4.83739
-4.76319
-4.74066
-4.61468
-4.11022
-2.61133
-0.0873081
-0.0984043
-0.107983
-0.117384
-0.126967
-0.136853
-0.14712
-0.157836
-0.169064
-0.180868
-0.193309
-0.206448
-0.220347
-0.23507
-0.250682
-0.267248
-0.28484
-0.303529
-0.323393
-0.344509
-0.366944
-0.390741
-0.415906
-0.442427
-0.470377
-0.500112
-0.532585
-0.569739
-0.615188
-0.675192
-0.759873
-0.884964
-1.0732
-1.35385
-1.75881
-2.31296
-3.01655
-3.82044
-4.6096
-5.22655
-5.54284
-5.5378
-5.29878
-4.99118
-4.75612
-4.6003
-4.42199
-4.0969
-3.36496
-1.87608
-0.0911158
-0.102144
-0.111776
-0.121327
-0.13113
-0.141289
-0.151872
-0.162938
-0.174547
-0.18676
-0.199641
-0.213256
-0.227674
-0.24297
-0.25922
-0.27651
-0.294929
-0.314579
-0.335566
-0.358006
-0.382014
-0.407704
-0.435207
-0.464739
-0.496744
-0.532117
-0.572471
-0.620278
-0.67917
-0.754774
-0.855194
-0.992637
-1.18476
-1.45444
-1.82657
-2.3203
-2.93498
-3.63073
-4.31632
-4.86582
-5.17205
-5.20682
-5.03485
-4.7785
-4.53256
-4.29096
-3.98588
-3.52748
-2.705
-1.36335
-0.0955053
-0.106509
-0.116189
-0.125868
-0.13586
-0.14626
-0.15713
-0.168524
-0.180502
-0.193126
-0.206464
-0.220588
-0.235576
-0.251516
-0.268503
-0.286641
-0.30605
-0.326862
-0.349229
-0.373325
-0.399346
-0.427535
-0.458234
-0.491977
-0.529698
-0.572886
-0.623839
-0.685419
-0.760709
-0.854535
-0.971148
-1.11802
-1.30666
-1.55317
-1.87607
-2.28999
-2.7945
-3.36002
-3.91989
-4.38194
-4.66372
-4.73364
-4.63118
-4.4314
-4.19032
-3.90323
-3.53215
-3.01033
-2.18318
-1.02065
-0.100034
-0.111054
-0.120789
-0.130596
-0.14077
-0.1514
-0.162544
-0.174256
-0.186598
-0.199635
-0.213438
-0.22809
-0.243681
-0.260312
-0.278097
-0.297168
-0.317675
-0.339796
-0.363739
-0.389762
-0.418175
-0.44939
-0.484021
-0.522967
-0.56782
-0.620578
-0.684174
-0.761576
-0.854454
-0.968947
-1.10171
-1.25543
-1.43533
-1.6514
-1.91787
-2.24787
-2.64373
-3.086
-3.52817
-3.90481
-4.15431
-4.24641
-4.19795
-4.05014
-3.82898
-3.53136
-3.13625
-2.59201
-1.79498
-0.788212
-0.104446
-0.115513
-0.125314
-0.135257
-0.145612
-0.156465
-0.167873
-0.179892
-0.192585
-0.206021
-0.22028
-0.235453
-0.251642
-0.268965
-0.287557
-0.307575
-0.329207
-0.352679
-0.378263
-0.406312
-0.437266
-0.471724
-0.510605
-0.555268
-0.607532
-0.670281
-0.74688
-0.840983
-0.95561
-1.08545
-1.2322
-1.39088
-1.56016
-1.74475
-1.95629
-2.20884
-2.5099
-2.85025
-3.1989
-3.50842
-3.73076
-3.83668
-3.82663
-3.71731
-3.51713
-3.22263
-2.82083
-2.27239
-1.51414
-0.625301
-0.108501
-0.119625
-0.129501
-0.139585
-0.150123
-0.161193
-0.172851
-0.185157
-0.198177
-0.211987
-0.226671
-0.242329
-0.259076
-0.277045
-0.296388
-0.317283
-0.339946
-0.364657
-0.391737
-0.421635
-0.454881
-0.492294
-0.534964
-0.584544
-0.643369
-0.714626
-0.801991
-0.908809
-1.03646
-1.18176
-1.33881
-1.50062
-1.66114
-1.82096
-1.98948
-2.18098
-2.40696
-2.66723
-2.94396
-3.20325
-3.40569
-3.52118
-3.53763
-3.4548
-3.27129
-2.98256
-2.5796
-2.03471
-1.31416
-0.50907
-0.112047
-0.123295
-0.133288
-0.143533
-0.154251
-0.165518
-0.177397
-0.18995
-0.203247
-0.217368
-0.232402
-0.248455
-0.265652
-0.284141
-0.304083
-0.325689
-0.34917
-0.374848
-0.403107
-0.434389
-0.46938
-0.508961
-0.554393
-0.607478
-0.67072
-0.747378
-0.841057
-0.954668
-1.08866
-1.23963
-1.4007
-1.56243
-1.71805
-1.86606
-2.01319
-2.17106
-2.35024
-2.55447
-2.77572
-2.99244
-3.17433
-3.29224
-3.32536
-3.26046
-3.08931
-2.80591
-2.40357
-1.86529
-1.17791
-0.430139
-0.114599
-0.126203
-0.136363
-0.14676
-0.157624
-0.169044
-0.181089
-0.193825
-0.207321
-0.221684
-0.236967
-0.253297
-0.270799
-0.289618
-0.309931
-0.331935
-0.355918
-0.382174
-0.411106
-0.443232
-0.479247
-0.520083
-0.567052
-0.621984
-0.687312
-0.766071
-0.861451
-0.975877
-1.10956
-1.25933
-1.41871
-1.57897
-1.73417
-1.88287
-2.02979
-2.18216
-2.34712
-2.52731
-2.71738
-2.90267
-3.06118
-3.16858
-3.20258
-3.14425
-2.97884
-2.69751
-2.29489
-1.76185
-1.09976
-0.385386
-0.117802
-0.12925
-0.138941
-0.149249
-0.160075
-0.171503
-0.183571
-0.196339
-0.209878
-0.224245
-0.239582
-0.255975
-0.273547
-0.292445
-0.31285
-0.334981
-0.359105
-0.385542
-0.414698
-0.447104
-0.483469
-0.524739
-0.572206
-0.627647
-0.693302
-0.771998
-0.866559
-0.97909
-1.1099
-1.25655
-1.41355
-1.57492
-1.73353
-1.88929
-2.04536
-2.2077
-2.38053
-2.56304
-2.74768
-2.9204
-3.06265
-3.1542
-3.17538
-3.10853
-2.93924
-2.65586
-2.24867
-1.71415
-1.06061
-0.346213
-0.551083
1.93972
2.61375
3.03549
3.26753
3.43012
3.54322
3.62728
3.69071
3.7396
3.77762
3.80734
3.8306
3.84874
3.86277
3.87346
3.88139
3.88695
3.89048
3.89175
-0.843941
1.63062
2.47798
2.94954
3.21101
3.39049
3.51486
3.60669
3.67564
3.72852
3.76943
3.80127
3.82609
3.84537
3.86025
3.87155
3.87991
3.88576
3.88948
3.89081
-0.579069
1.44497
2.36718
2.86797
3.15686
3.35214
3.48754
3.58693
3.66127
3.718
3.7617
3.79558
3.82188
3.84224
3.85791
3.86978
3.87854
3.88467
3.88855
3.88994
-0.267775
1.34631
2.28048
2.79406
3.10605
3.31565
3.46154
3.56819
3.6477
3.70812
3.75448
3.79028
3.81798
3.83936
3.85576
3.86816
3.8773
3.88368
3.88771
3.88916
-0.0657335
1.28805
2.21052
2.72884
3.05924
3.28148
3.43714
3.55062
3.63503
3.69895
3.74781
3.78541
3.81441
3.83673
3.8538
3.86669
3.87617
3.88278
3.88696
3.88845
0.0689171
1.25506
2.15175
2.67193
3.01664
3.24995
3.41452
3.53436
3.62335
3.69053
3.74173
3.781
3.81119
3.83436
3.85205
3.86538
3.87517
3.88198
3.88629
3.88782
0.165317
1.24149
2.1022
2.62275
2.97833
3.22127
3.39387
3.51953
3.61275
3.68293
3.73627
3.77705
3.80832
3.83227
3.85051
3.86423
3.87429
3.88129
3.88571
3.88727
0.231021
1.23953
2.06104
2.58076
2.94439
3.19563
3.37534
3.50625
3.60331
3.6762
3.73146
3.7736
3.80583
3.83046
3.84919
3.86325
3.87354
3.8807
3.88521
3.88681
0.27721
1.24269
2.02725
2.54537
2.91486
3.17318
3.35907
3.49464
3.5951
3.67039
3.72734
3.77066
3.80373
3.82894
3.84808
3.86243
3.87292
3.88021
3.8848
3.88643
0.314754
1.24776
1.99977
2.51607
2.8898
3.15405
3.34523
3.48482
3.5882
3.66556
3.72394
3.76826
3.80202
3.82772
3.84719
3.86177
3.87243
3.87983
3.88448
3.88613
0.347922
1.25331
1.97789
2.49248
2.86931
3.13843
3.33396
3.47691
3.58271
3.66175
3.7213
3.76642
3.80072
3.8268
3.84653
3.86129
3.87207
3.87955
3.88425
3.88592
0.376188
1.25842
1.96129
2.47453
2.85361
3.12657
3.32552
3.47107
3.57874
3.65905
3.71946
3.76516
3.79985
3.82619
3.8461
3.86098
3.87184
3.87937
3.8841
3.88579
0.398099
1.26326
1.95059
2.46286
2.84343
3.11905
3.32033
3.46761
3.57646
3.65757
3.7185
3.76453
3.79943
3.82591
3.84591
3.86085
3.87175
3.87931
3.88405
3.88575
0.417749
1.2707
1.94811
2.45921
2.84008
3.11675
3.31893
3.46684
3.5761
3.65743
3.71848
3.76457
3.7995
3.82598
3.84598
3.86091
3.87181
3.87935
3.88409
3.88579
0.450083
1.27986
1.9528
2.46235
2.84244
3.1187
3.32056
3.46818
3.57717
3.65828
3.71914
3.76508
3.79989
3.82629
3.84622
3.8611
3.87195
3.87948
3.8842
3.88591
)
;

boundaryField
{
    internal
    {
        type            internal;
    }
    movingWall
    {
        type            zeroGradient;
    }
    farFieldMoving
    {
        type            zeroGradient;
    }
    fixedWall
    {
        type            zeroGradient;
    }
    axis
    {
        type            empty;
    }
    left
    {
        type            totalPressure;
        rho             rho;
        psi             none;
        gamma           1;
        p0              uniform 0;
        value           nonuniform List<scalar> 
30
(
-0.054497
-0.0538854
-0.0527483
-0.0510692
-0.0488808
-0.0462333
-0.0431904
-0.0398277
-0.0362323
-0.0324997
-0.0287302
-0.0250214
-0.0214605
-0.0181172
-0.0150407
-0.0105173
-0.00583846
-0.00272796
-0.000928722
-0.000144342
0
0
0
0
0
0
0
0
0
0
)
;
    }
    farField
    {
        type            zeroGradient;
    }
    back
    {
        type            wedge;
    }
    front
    {
        type            wedge;
    }
}


// ************************************************************************* //
