/*--------------------------------*- C++ -*----------------------------------*\
  =========                 |
  \\      /  F ield         | OpenFOAM: The Open Source CFD Toolbox
   \\    /   O peration     | Website:  https://openfoam.org
    \\  /    A nd           | Version:  13
     \\/     M anipulation  |
\*---------------------------------------------------------------------------*/
FoamFile
{
    format      ascii;
    class       surfaceScalarField;
    location    "0.0007";
    object      phi;
}
// * * * * * * * * * * * * * * * * * * * * * * * * * * * * * * * * * * * * * //

dimensions      [0 3 -1 0 0 0 0];

internalField   nonuniform List<scalar> 
3252
(
2.36194e-11
-1.60444e-12
1.46603e-11
-5.01703e-12
9.48931e-12
-8.80522e-12
8.32024e-12
-1.28071e-11
1.02828e-11
-1.59376e-11
1.28848e-11
-1.65138e-11
1.09093e-11
-1.13672e-11
-1.00475e-12
7.02547e-11
-6.42318e-12
4.32738e-11
-1.99646e-11
2.76488e-11
-3.51088e-11
2.41991e-11
-5.12859e-11
3.09381e-11
-6.46018e-11
3.93773e-11
-6.66895e-11
3.42741e-11
-4.62913e-11
-2.4722e-12
1.1513e-10
-1.43904e-11
6.99926e-11
-4.47087e-11
4.38802e-11
-7.88774e-11
3.85858e-11
-1.15872e-10
5.13616e-11
-1.47253e-10
6.7232e-11
-1.52125e-10
5.91768e-11
-1.04946e-10
-2.86289e-12
1.57058e-10
-2.53968e-11
9.35177e-11
-7.90023e-11
5.68194e-11
-1.40012e-10
5.0379e-11
-2.07265e-10
7.13086e-11
-2.66008e-10
9.75387e-11
-2.75755e-10
8.67406e-11
-1.87537e-10
4.869e-13
1.94862e-10
-3.92689e-11
1.125e-10
-1.22426e-10
6.49365e-11
-2.18235e-10
5.82291e-11
-3.26343e-10
9.04794e-11
-4.24035e-10
1.31538e-10
-4.42058e-10
1.18461e-10
-2.94522e-10
1.1738e-11
2.27404e-10
-5.5756e-11
1.25569e-10
-1.7433e-10
6.65443e-11
-3.12948e-10
6.0457e-11
-4.73994e-10
1.08118e-10
-6.25422e-10
1.70037e-10
-6.57076e-10
1.55645e-10
-4.26859e-10
3.63575e-11
2.53602e-10
-7.45131e-11
1.31331e-10
-2.3375e-10
5.97047e-11
-4.23011e-10
5.4687e-11
-6.50667e-10
1.21823e-10
-8.74234e-10
2.11358e-10
-9.27582e-10
1.98047e-10
-5.86934e-10
7.95707e-11
2.72462e-10
-9.50839e-11
1.28371e-10
-2.99303e-10
4.21085e-11
-5.46392e-10
3.71626e-11
-8.55363e-10
1.25117e-10
-1.17181e-09
2.47012e-10
-1.25833e-09
2.4071e-10
-7.80666e-10
1.41644e-10
2.83117e-10
-1.16888e-10
1.15292e-10
-3.69074e-10
1.1013e-11
-6.79707e-10
1.91177e-12
-1.08386e-09
1.04914e-10
-1.51239e-09
2.5708e-10
-1.64727e-09
2.69962e-10
-1.02022e-09
2.09174e-10
2.84894e-10
-1.39222e-10
9.08195e-11
-4.40548e-10
-3.64561e-11
-8.1798e-10
-5.92308e-11
-1.32663e-09
4.21229e-11
-1.87927e-09
2.11139e-10
-2.08098e-09
2.62524e-10
-1.32489e-09
2.45481e-10
2.77378e-10
-1.61292e-10
5.41002e-11
-5.1077e-10
-1.02573e-10
-9.54807e-10
-1.5435e-10
-1.56835e-09
-8.20098e-11
-2.24508e-09
7.908e-11
-2.53473e-09
1.91203e-10
-1.7169e-09
1.86688e-10
2.60497e-10
-1.82298e-10
5.15228e-12
-5.76878e-10
-1.87905e-10
-1.0832e-09
-2.87102e-10
-1.79061e-09
-2.75827e-10
-2.57778e-09
-1.53846e-10
-2.97736e-09
3.3017e-11
-2.21024e-09
-5.40596e-11
2.34549e-10
-2.01579e-10
-5.49483e-11
-6.36786e-10
-2.90324e-10
-1.19723e-09
-4.52799e-10
-1.97753e-09
-5.30149e-10
-2.84979e-09
-4.80151e-10
-3.37604e-09
-2.34396e-10
-2.78902e-09
-5.85974e-10
2.00206e-10
-2.1881e-10
-1.24317e-10
-6.89621e-10
-4.0541e-10
-1.29349e-09
-6.39099e-10
-2.1212e-09
-8.19584e-10
-3.04662e-09
-8.80202e-10
-3.69209e-09
-6.34751e-10
-3.39398e-09
-1.54212e-09
1.58285e-10
-2.34045e-10
-2.01214e-10
-7.35432e-10
-5.28961e-10
-1.37106e-09
-8.33129e-10
-2.22234e-09
-1.11431e-09
-3.1707e-09
-1.31268e-09
-3.89821e-09
-1.15766e-09
-3.93804e-09
-3.04215e-09
-6.09592e-12
5.71422e-11
-5.68822e-11
1.03494e-10
-1.18199e-10
1.15931e-10
-1.78534e-10
1.16927e-10
-2.35378e-10
1.15523e-10
-2.86712e-10
1.12189e-10
-3.30916e-10
1.07319e-10
-3.66562e-10
1.01104e-10
-3.92487e-10
9.38139e-11
-4.07838e-10
8.57607e-11
-4.12092e-10
7.72778e-11
-4.05051e-10
6.86961e-11
-3.86825e-10
6.03236e-11
-3.57793e-10
5.24358e-11
-3.18569e-10
4.52696e-11
-2.69972e-10
3.90353e-11
-2.13049e-10
3.39637e-11
-1.49132e-10
3.03458e-11
-7.93526e-11
2.79799e-11
2.16526e-11
-1.84601e-11
2.14599e-10
-1.64222e-10
3.92809e-10
-3.35398e-10
4.35844e-10
-5.04958e-10
4.40613e-10
-6.63341e-10
4.33716e-10
-8.0575e-10
4.20335e-10
-9.27649e-10
4.01107e-10
-1.02517e-09
3.76902e-10
-1.09525e-09
3.48785e-10
-1.13571e-09
3.17979e-10
-1.14531e-09
2.85755e-10
-1.1237e-09
2.53353e-10
-1.07136e-09
2.21912e-10
-9.89486e-10
1.92431e-10
-8.79859e-10
1.65758e-10
-7.44796e-10
1.42635e-10
-5.87178e-10
1.23875e-10
-4.10645e-10
1.10534e-10
-2.18308e-10
1.01888e-10
7.84946e-11
-4.11396e-11
4.64017e-10
-2.75616e-10
8.42461e-10
-5.47073e-10
9.30228e-10
-8.13551e-10
9.38097e-10
-1.06066e-09
9.20348e-10
-1.28082e-09
8.88917e-10
-1.46707e-09
8.44987e-10
-1.61374e-09
7.90771e-10
-1.71655e-09
7.28722e-10
-1.77274e-09
6.6158e-10
-1.78099e-09
5.92097e-10
-1.74135e-09
5.22876e-10
-1.65505e-09
4.56256e-10
-1.5243e-09
3.94238e-10
-1.35211e-09
3.38473e-10
-1.14214e-09
2.9038e-10
-8.98773e-10
2.5152e-10
-6.274e-10
2.2395e-10
-3.32534e-10
2.06085e-10
1.58498e-10
-7.59239e-11
8.01849e-10
-4.01275e-10
1.43848e-09
-7.70063e-10
1.57941e-09
-1.12766e-09
1.58625e-09
-1.45565e-09
1.54962e-09
-1.74398e-09
1.4897e-09
-1.98366e-09
1.40873e-09
-2.16797e-09
1.31118e-09
-2.29227e-09
1.20159e-09
-2.35405e-09
1.08488e-09
-2.35275e-09
9.65738e-10
-2.28947e-09
8.48471e-10
-2.1667e-09
7.36795e-10
-1.98795e-09
6.33786e-10
-1.75753e-09
5.41892e-10
-1.48036e-09
4.6316e-10
-1.16205e-09
3.99875e-10
-8.09213e-10
3.55114e-10
-4.273e-10
3.2613e-10
2.50263e-10
-1.25774e-10
1.23007e-09
-5.48503e-10
2.1739e-09
-1.01564e-09
2.37042e-09
-1.46163e-09
2.36786e-09
-1.86475e-09
2.30076e-09
-2.21275e-09
2.19863e-09
-2.49534e-09
2.06565e-09
-2.70567e-09
1.90973e-09
-2.83977e-09
1.73834e-09
-2.89641e-09
1.55912e-09
-2.87664e-09
1.37908e-09
-2.78331e-09
1.20433e-09
-2.6206e-09
1.03996e-09
-2.39357e-09
8.89943e-10
-2.10786e-09
7.57322e-10
-1.7695e-09
6.44553e-10
-1.38502e-09
5.5445e-10
-9.61768e-10
4.90946e-10
-5.05665e-10
4.49857e-10
3.44364e-10
-1.93419e-10
1.75558e-09
-7.2294e-10
3.04688e-09
-1.29128e-09
3.29445e-09
-1.82395e-09
3.26915e-09
-2.29661e-09
3.15565e-09
-2.69534e-09
2.99377e-09
-3.00956e-09
2.791e-09
-3.23355e-09
2.56012e-09
-3.36523e-09
2.31225e-09
-3.40573e-09
2.05828e-09
-3.35856e-09
1.8076e-09
-3.22888e-09
1.56802e-09
-3.02289e-09
1.34566e-09
-2.74732e-09
1.14507e-09
-2.40905e-09
9.69468e-10
-2.015e-09
8.21367e-10
-1.57228e-09
7.03796e-10
-1.08852e-09
6.2125e-10
-5.69687e-10
5.67885e-10
4.33609e-10
-2.81353e-10
2.38963e-09
-9.29232e-10
4.05968e-09
-1.60248e-09
4.34555e-09
-2.21986e-09
4.27812e-09
-2.75537e-09
4.09723e-09
-3.19437e-09
3.85391e-09
-3.52754e-09
3.56095e-09
-3.75182e-09
3.23739e-09
-3.86839e-09
2.89865e-09
-3.88183e-09
2.55899e-09
-3.79882e-09
2.22995e-09
-3.62723e-09
1.92058e-09
-3.37544e-09
1.63748e-09
-3.05173e-09
1.38516e-09
-2.66405e-09
1.16654e-09
-2.21991e-09
9.83702e-10
-1.72663e-09
8.39525e-10
-1.19172e-09
7.38702e-10
-6.20829e-10
6.73585e-10
5.13003e-10
-3.92547e-10
3.14801e-09
-1.17198e-09
5.2178e-09
-1.95377e-09
5.51938e-09
-2.65249e-09
5.38315e-09
-3.24197e-09
5.10804e-09
-3.70852e-09
4.75743e-09
-4.04617e-09
4.35181e-09
-4.25636e-09
3.91762e-09
-4.34499e-09
3.47476e-09
-4.32099e-09
3.04058e-09
-4.19472e-09
2.62806e-09
-3.97694e-09
2.24665e-09
-3.67804e-09
1.90264e-09
-3.30767e-09
1.5998e-09
-2.87448e-09
1.34009e-09
-2.38623e-09
1.12475e-09
-1.85012e-09
9.56073e-10
-1.27309e-09
8.38592e-10
-6.60254e-10
7.62794e-10
5.79494e-10
-5.30769e-10
4.05166e-09
-1.45618e-09
6.52937e-09
-2.34909e-09
6.81196e-09
-3.12323e-09
6.57153e-09
-3.75469e-09
6.16908e-09
-4.2333e-09
5.68158e-09
-4.5592e-09
5.13977e-09
-4.7403e-09
4.57796e-09
-4.78852e-09
4.02001e-09
-4.71783e-09
3.48538e-09
-4.54243e-09
2.9873e-09
-4.27579e-09
2.5345e-09
-3.93001e-09
2.13196e-09
-3.51565e-09
1.7819e-09
-3.04169e-09
1.48475e-09
-2.51576e-09
1.24043e-09
-1.94455e-09
1.0503e-09
-1.3342e-09
9.1841e-10
-6.89013e-10
8.334e-10
6.31622e-10
-7.00868e-10
5.12746e-09
-1.78755e-09
8.00451e-09
-2.79189e-09
8.21828e-09
-3.63179e-09
7.8281e-09
-4.28937e-09
7.25876e-09
-4.76172e-09
6.60206e-09
-5.05822e-09
5.90105e-09
-5.19522e-09
5.197e-09
-5.19162e-09
4.51637e-09
-5.06669e-09
3.87897e-09
-4.83823e-09
3.29661e-09
-4.52193e-09
2.77595e-09
-4.13106e-09
2.31957e-09
-3.67659e-09
1.92738e-09
-3.16735e-09
1.59777e-09
-2.61048e-09
1.32893e-09
-2.01188e-09
1.12105e-09
-1.37665e-09
9.77395e-10
-7.08129e-10
8.84887e-10
6.69142e-10
-9.09305e-10
6.40975e-09
-2.17266e-09
9.6545e-09
-3.28508e-09
9.73068e-09
-4.1761e-09
9.13375e-09
-4.83959e-09
8.35224e-09
-5.28472e-09
7.49315e-09
-5.53348e-09
6.61233e-09
-5.61218e-09
5.75539e-09
-5.54716e-09
4.94886e-09
-5.36263e-09
4.21043e-09
-5.07935e-09
3.54848e-09
-4.71449e-09
2.96614e-09
-4.28183e-09
2.46257e-09
-3.79214e-09
2.03474e-09
-3.25369e-09
1.67854e-09
-2.67277e-09
1.39025e-09
-2.05428e-09
1.16866e-09
-1.40212e-09
1.01608e-09
-7.1863e-10
9.17907e-10
6.92676e-10
-1.16507e-09
7.94264e-09
-2.61919e-09
1.14901e-08
-3.83077e-09
1.13368e-08
-4.75196e-09
1.0464e-08
-5.39666e-09
9.42112e-09
-5.79169e-09
8.32813e-09
-5.97468e-09
7.2516e-09
-5.98261e-09
6.23656e-09
-5.849e-09
5.30605e-09
-5.60203e-09
4.47249e-09
-5.26442e-09
3.73882e-09
-4.85393e-09
3.1032e-09
-4.38405e-09
2.56059e-09
-3.86482e-09
2.1045e-09
-3.30352e-09
1.72813e-09
-2.70538e-09
1.42568e-09
-2.07413e-09
1.19452e-09
-1.41242e-09
1.03591e-09
-7.21549e-10
9.33889e-10
7.03414e-10
-1.48077e-09
9.78357e-09
-3.1357e-09
1.35187e-08
-4.42976e-09
1.30173e-08
-5.35263e-09
1.17874e-08
-5.94979e-09
1.04338e-08
-6.27101e-09
9.08025e-09
-6.37165e-09
7.79916e-09
-6.29902e-09
6.62745e-09
-6.09255e-09
5.5803e-09
-5.78299e-09
4.66151e-09
-5.39372e-09
3.86665e-09
-4.94205e-09
3.18785e-09
-4.4405e-09
2.61528e-09
-3.89787e-09
2.13878e-09
-3.32019e-09
1.74878e-09
-2.71139e-09
1.43746e-09
-2.07399e-09
1.20075e-09
-1.40937e-09
1.03882e-09
-7.17919e-10
9.34788e-10
7.02861e-10
-1.87475e-09
1.20088e-08
-3.7312e-09
1.57391e-08
-5.08089e-09
1.47431e-08
-5.96848e-09
1.3065e-08
-6.48639e-09
1.13562e-08
-6.71071e-09
9.7241e-09
-6.71522e-09
8.23878e-09
-6.5556e-09
6.9191e-09
-6.27521e-09
5.76796e-09
-5.90546e-09
4.77719e-09
-5.46906e-09
3.93369e-09
-4.9819e-09
3.22285e-09
-4.45488e-09
2.62981e-09
-3.89521e-09
2.14079e-09
-3.30741e-09
1.74352e-09
-2.69409e-09
1.42834e-09
-2.05653e-09
1.18982e-09
-1.39495e-09
1.02717e-09
-7.08713e-10
9.22632e-10
6.92676e-10
-2.37374e-09
1.4722e-08
-4.41397e-09
1.81319e-08
-5.78019e-09
1.64737e-08
-6.58673e-09
1.42494e-08
-6.99256e-09
1.21538e-08
-7.09932e-09
1.02372e-08
-6.99797e-09
8.55891e-09
-6.74877e-09
7.10704e-09
-6.39647e-09
5.86903e-09
-5.97121e-09
4.82215e-09
-5.49367e-09
3.94383e-09
-4.97749e-09
3.21247e-09
-4.43148e-09
2.60839e-09
-3.861e-09
2.11439e-09
-3.269e-09
1.71581e-09
-2.65674e-09
1.40133e-09
-2.0243e-09
1.16439e-09
-1.37083e-09
1.00325e-09
-6.94883e-10
8.99644e-10
6.74519e-10
-3.01475e-09
1.8064e-08
-5.19005e-09
2.06472e-08
-6.51971e-09
1.81547e-08
-7.19185e-09
1.52859e-08
-7.45401e-09
1.27939e-08
-7.42693e-09
1.06021e-08
-7.21395e-09
8.75242e-09
-6.8767e-09
7.19138e-09
-6.45766e-09
5.88724e-09
-5.98353e-09
4.80152e-09
-5.4719e-09
3.90254e-09
-4.93359e-09
3.16198e-09
-4.37505e-09
2.5558e-09
-3.7997e-09
2.06377e-09
-3.20889e-09
1.66924e-09
-2.6026e-09
1.3595e-09
-1.97983e-09
1.12705e-09
-1.33878e-09
9.69385e-10
-6.77295e-10
8.67913e-10
6.4997e-10
-3.84607e-09
2.22245e-08
-6.06714e-09
2.31951e-08
-7.28522e-09
1.97103e-08
-7.77351e-09
1.61242e-08
-7.85584e-09
1.32393e-08
-7.68431e-09
1.08072e-08
-7.36048e-09
8.81918e-09
-6.94062e-09
7.17662e-09
-6.46214e-09
5.8289e-09
-5.94702e-09
4.72214e-09
-5.40886e-09
3.81631e-09
-4.85536e-09
3.07719e-09
-4.29047e-09
2.47704e-09
-3.71567e-09
1.99317e-09
-3.13084e-09
1.60733e-09
-2.53476e-09
1.30578e-09
-1.92548e-09
1.08027e-09
-1.30038e-09
9.27697e-10
-6.56742e-10
8.2937e-10
6.20475e-10
-4.90872e-09
2.74342e-08
-7.06904e-09
2.56685e-08
-8.05185e-09
2.10164e-08
-8.29226e-09
1.66999e-08
-8.18406e-09
1.34788e-08
-7.86674e-09
1.08505e-08
-7.43733e-09
8.76382e-09
-6.94344e-09
7.07069e-09
-6.41464e-09
5.70245e-09
-5.86712e-09
4.59194e-09
-5.31013e-09
3.69212e-09
-4.74808e-09
2.96404e-09
-4.18253e-09
2.37706e-09
-3.61313e-09
1.90664e-09
-3.03839e-09
1.53339e-09
-2.45606e-09
1.24287e-09
-1.86337e-09
1.02629e-09
-1.25706e-09
8.80112e-10
-6.33928e-10
7.85744e-10
5.87314e-10
-6.27908e-09
3.40006e-08
-8.23172e-09
2.79201e-08
-8.79846e-09
2.18917e-08
-8.74616e-09
1.69678e-08
-8.42933e-09
1.34941e-08
-7.97162e-09
1.07372e-08
-7.4468e-09
8.59622e-09
-6.88995e-09
6.88433e-09
-6.32094e-09
5.51768e-09
-5.74984e-09
4.41935e-09
-5.18141e-09
3.53701e-09
-4.61698e-09
2.82828e-09
-4.05583e-09
2.26051e-09
-3.49599e-09
1.80792e-09
-2.93478e-09
1.45043e-09
-2.36908e-09
1.17319e-09
-1.79544e-09
9.67104e-10
-1.21008e-09
8.28318e-10
-6.09471e-10
7.38542e-10
5.51599e-10
-7.465e-09
4.17397e-08
-9.44507e-09
3.01846e-08
-9.46725e-09
2.22079e-08
-9.10971e-09
1.69152e-08
-8.58499e-09
1.32857e-08
-8.00054e-09
1.04808e-08
-7.39395e-09
8.3299e-09
-6.78657e-09
6.62986e-09
-6.18771e-09
5.28483e-09
-5.60149e-09
4.21274e-09
-5.02846e-09
3.35769e-09
-4.46711e-09
2.67527e-09
-3.91471e-09
2.13162e-09
-3.36791e-09
1.70035e-09
-2.82299e-09
1.36108e-09
-2.27616e-09
1.09884e-09
-1.72342e-09
9.04407e-10
-1.16059e-09
7.73741e-10
-5.8395e-10
6.89059e-10
5.1424e-10
1.6737e-10
-2.6298e-10
-8.08226e-10
-8.14264e-10
-1.75236e-09
-1.48135e-09
-2.71329e-09
-2.31583e-09
-3.69596e-09
-3.24235e-09
-4.57074e-09
-4.07542e-09
-5.02574e-09
-4.51069e-09
-3.67214e-09
-5.16958e-09
-1.69421e-10
-2.83222e-10
-1.33461e-09
-8.55692e-10
-2.51404e-09
-1.50853e-09
-3.77279e-09
-2.26368e-09
-5.14177e-09
-3.07986e-09
-6.57172e-09
-3.84945e-09
-7.90952e-09
-4.35989e-09
-3.86321e-09
-8.47718e-09
-5.60639e-10
-2.98756e-10
-1.91138e-09
-8.63748e-10
-3.29598e-09
-1.48273e-09
-4.76254e-09
-2.15591e-09
-6.34311e-09
-2.85799e-09
-8.03183e-09
-3.51736e-09
-9.72671e-09
-4.00152e-09
-3.68684e-09
-1.0746e-08
-9.84414e-10
-3.17931e-10
-2.51594e-09
-8.43202e-10
-4.09255e-09
-1.4171e-09
-5.74124e-09
-2.0182e-09
-7.48231e-09
-2.62782e-09
-9.30973e-09
-3.19958e-09
-1.11557e-08
-3.63656e-09
-3.4136e-09
-1.23599e-08
-1.42124e-09
-3.40634e-10
-3.12647e-09
-8.01143e-10
-4.88061e-09
-1.32613e-09
-6.69806e-09
-1.8639e-09
-8.592e-09
-2.397e-09
-1.05564e-08
-2.89783e-09
-1.25268e-08
-3.293e-09
-3.12219e-09
-1.3838e-08
-1.88569e-09
-3.55477e-10
-3.7492e-09
-7.5299e-10
-5.67086e-09
-1.21982e-09
-7.65158e-09
-1.69853e-09
-9.69736e-09
-2.16655e-09
-1.1804e-08
-2.60679e-09
-1.39048e-08
-2.96644e-09
-2.83095e-09
-1.53058e-08
-2.34822e-09
-3.60276e-10
-4.37131e-09
-6.97437e-10
-6.4506e-09
-1.10807e-09
-8.59122e-09
-1.52544e-09
-1.07927e-08
-1.93262e-09
-1.30494e-08
-2.31847e-09
-1.52958e-08
-2.64372e-09
-2.53536e-09
-1.67925e-08
-2.7888e-09
-3.4463e-10
-4.97293e-09
-6.33037e-10
-7.21475e-09
-9.85971e-10
-9.51642e-09
-1.34348e-09
-1.18761e-08
-1.69274e-09
-1.42889e-08
-2.0267e-09
-1.66917e-08
-2.31627e-09
-2.23032e-09
-1.82909e-08
-3.20674e-09
-3.13245e-10
-5.5546e-09
-5.57085e-10
-7.95977e-09
-8.52713e-10
-1.04236e-08
-1.1516e-09
-1.29438e-08
-1.4444e-09
-1.55173e-08
-1.72675e-09
-1.80853e-08
-1.97811e-09
-1.91139e-09
-1.97932e-08
-3.60226e-09
-2.70214e-10
-6.11409e-09
-4.69351e-10
-8.68286e-09
-7.0804e-10
-1.13096e-08
-9.48903e-10
-1.39927e-08
-1.18552e-09
-1.67297e-08
-1.41536e-09
-1.947e-08
-1.62522e-09
-1.57525e-09
-2.12922e-08
-3.97351e-09
-2.18059e-10
-6.64858e-09
-3.7056e-10
-9.38087e-09
-5.52037e-10
-1.21713e-08
-7.34761e-10
-1.50185e-08
-9.14617e-10
-1.79208e-08
-1.09055e-09
-2.0839e-08
-1.25534e-09
-1.21959e-09
-2.27802e-08
-4.31251e-09
-1.58563e-10
-7.14977e-09
-2.61775e-10
-1.00447e-08
-3.8553e-10
-1.29982e-08
-5.09756e-10
-1.60095e-08
-6.31795e-10
-1.90767e-08
-7.523e-10
-2.2176e-08
-8.68763e-10
-8.44206e-10
-2.42394e-08
-4.57477e-09
-9.45063e-11
-7.56983e-09
-1.47376e-10
-1.06215e-08
-2.14543e-10
-1.37305e-08
-2.81339e-10
-1.68975e-08
-3.45485e-10
-2.01205e-08
-4.09606e-10
-2.3394e-08
-4.76346e-10
-4.60558e-10
-2.5571e-08
-4.55295e-09
-3.43242e-11
-7.68813e-09
-4.5032e-11
-1.08717e-08
-6.38172e-11
-1.41044e-08
-8.14759e-11
-1.73864e-08
-9.64119e-11
-2.07162e-08
-1.11464e-10
-2.40958e-08
-1.34487e-10
-1.37938e-10
-2.63319e-08
-3.74009e-09
-6.97014e-09
-1.0219e-08
-1.34855e-08
-1.6767e-08
-2.00621e-08
-2.33744e-08
-2.58147e-08
-4.29689e-09
-9.87073e-10
-4.06575e-09
-2.43505e-10
-3.93288e-09
-1.34232e-10
-3.83622e-09
-9.69039e-11
-3.76071e-09
-7.55548e-11
-3.69883e-09
-6.18901e-11
-3.64574e-09
-5.30925e-11
-3.59811e-09
-4.76215e-11
-3.55364e-09
-4.44745e-11
-3.51067e-09
-4.29694e-11
-3.46804e-09
-4.26298e-11
-3.42491e-09
-4.31267e-11
-3.38069e-09
-4.42204e-11
-3.33497e-09
-4.57261e-11
-3.28747e-09
-4.74982e-11
-3.23805e-09
-4.94231e-11
-3.18664e-09
-5.14091e-11
-3.13327e-09
-5.33709e-11
-3.07805e-09
-5.52176e-11
-3.02121e-09
-5.68385e-11
-2.96314e-09
-5.80727e-11
-2.90449e-09
-5.86491e-11
-2.84638e-09
-5.81113e-11
-2.79056e-09
-5.58208e-11
-2.73935e-09
-5.12042e-11
-2.69493e-09
-4.44213e-11
-2.65743e-09
-3.74988e-11
-2.62171e-09
-3.5723e-11
-2.57273e-09
-4.89818e-11
-2.48022e-09
-9.25058e-11
-2.29508e-09
-1.8514e-10
-1.95038e-09
-3.44704e-10
-1.36505e-09
-5.85323e-10
-4.7312e-10
-8.91934e-10
7.50014e-10
-1.22313e-09
2.24639e-09
-1.49638e-09
3.85949e-09
-1.6131e-09
5.33481e-09
-1.47532e-09
6.35441e-09
-1.0196e-09
6.63136e-09
-2.76954e-10
6.0565e-09
5.74857e-10
4.80053e-09
1.25598e-09
3.26802e-09
1.53251e-09
1.96004e-09
1.30799e-09
1.21231e-09
7.47724e-10
1.09867e-09
1.13647e-10
1.51493e-09
-4.16264e-10
2.41794e-09
-9.03005e-10
2.55224e-09
-1.34221e-10
8.37733e-09
-5.81922e-09
-8.6289e-09
-1.04182e-09
-8.65004e-09
-2.47922e-10
-8.67456e-09
-1.13091e-10
-8.70427e-09
-6.78036e-11
-8.7347e-09
-4.52407e-11
-8.76406e-09
-3.25567e-11
-8.79132e-09
-2.5838e-11
-8.81561e-09
-2.33298e-11
-8.83611e-09
-2.39782e-11
-8.85203e-09
-2.70474e-11
-8.86267e-09
-3.19857e-11
-8.86743e-09
-3.83686e-11
-8.86579e-09
-4.58664e-11
-8.8573e-09
-5.42141e-11
-8.84161e-09
-6.31838e-11
-8.81845e-09
-7.25849e-11
-8.7876e-09
-8.22556e-11
-8.74894e-09
-9.20301e-11
-8.70243e-09
-1.01729e-10
-8.64818e-09
-1.11092e-10
-8.58665e-09
-1.196e-10
-8.51911e-09
-1.2619e-10
-8.44814e-09
-1.29086e-10
-8.37777e-09
-1.2619e-10
-8.31237e-09
-1.16601e-10
-8.25328e-09
-1.03517e-10
-8.19275e-09
-9.80273e-11
-8.10601e-09
-1.22461e-10
-7.94382e-09
-2.1117e-10
-7.63021e-09
-4.06116e-10
-7.07083e-09
-7.44517e-10
-6.17465e-09
-1.24088e-09
-4.86245e-09
-1.89752e-09
-3.11841e-09
-2.63597e-09
-9.78692e-10
-3.36286e-09
1.4388e-09
-3.91386e-09
3.92344e-09
-4.09774e-09
6.18246e-09
-3.73434e-09
7.89742e-09
-2.73456e-09
8.79754e-09
-1.17707e-09
8.73184e-09
6.40553e-10
7.72675e-09
2.26107e-09
6.06923e-09
3.19002e-09
4.3096e-09
3.06762e-09
3.02875e-09
2.02857e-09
2.51897e-09
6.23425e-10
2.50249e-09
-3.99779e-10
1.60366e-09
-4.16454e-12
-3.52957e-09
4.9996e-09
1.7397e-08
-1.25063e-08
-1.11462e-08
-8.76932e-10
-1.12961e-08
-1.31722e-10
-1.1421e-08
6.52818e-12
-1.15351e-08
4.52801e-11
-1.16416e-08
6.10418e-11
-1.17424e-08
6.82607e-11
-1.18387e-08
7.04344e-11
-1.19309e-08
6.88567e-11
-1.20191e-08
6.42576e-11
-1.21033e-08
5.71578e-11
-1.21833e-08
4.79576e-11
-1.22586e-08
3.69713e-11
-1.23289e-08
2.44442e-11
-1.23937e-08
1.05693e-11
-1.24524e-08
-4.46188e-12
-1.25046e-08
-2.03991e-11
-1.25499e-08
-3.69961e-11
-1.25878e-08
-5.4065e-11
-1.26182e-08
-7.1333e-11
-1.26412e-08
-8.81264e-11
-1.26578e-08
-1.02952e-10
-1.26707e-08
-1.13317e-10
-1.26833e-08
-1.16463e-10
-1.26978e-08
-1.11688e-10
-1.27101e-08
-1.04391e-10
-1.27029e-08
-1.1069e-10
-1.26405e-08
-1.60357e-10
-1.24673e-08
-2.95707e-10
-1.21132e-08
-5.65312e-10
-1.15059e-08
-1.01338e-09
-1.05826e-08
-1.66786e-09
-9.29503e-09
-2.52841e-09
-7.65394e-09
-3.53861e-09
-5.65938e-09
-4.63054e-09
-3.36198e-09
-5.66026e-09
-8.84692e-10
-6.39115e-09
1.59228e-09
-6.57471e-09
3.81135e-09
-5.95342e-09
5.50712e-09
-4.43034e-09
6.48334e-09
-2.15328e-09
6.67776e-09
4.46133e-10
6.16018e-09
2.77864e-09
5.07591e-09
4.2743e-09
3.78529e-09
4.35823e-09
2.70916e-09
3.1047e-09
1.9607e-09
1.37189e-09
7.21355e-10
8.39564e-10
-2.96846e-09
3.68567e-09
-1.00507e-08
1.20828e-08
2.38103e-08
-1.64197e-08
-1.28468e-08
-6.55163e-10
-1.30404e-08
2.05468e-11
-1.31956e-08
1.54657e-10
-1.33385e-08
1.86887e-10
-1.34742e-08
1.96439e-10
-1.36048e-08
1.98797e-10
-1.37317e-08
1.97328e-10
-1.38558e-08
1.93011e-10
-1.39778e-08
1.86295e-10
-1.40982e-08
1.77489e-10
-1.42171e-08
1.66839e-10
-1.43346e-08
1.54555e-10
-1.4451e-08
1.40823e-10
-1.45663e-08
1.2582e-10
-1.46804e-08
1.09704e-10
-1.47934e-08
9.25908e-11
-1.4905e-08
7.45916e-11
-1.5015e-08
5.59227e-11
-1.51235e-08
3.71726e-11
-1.52313e-08
1.97072e-11
-1.53401e-08
5.78347e-12
-1.5451e-08
-2.38823e-12
-1.55622e-08
-5.24588e-12
-1.56641e-08
-9.76578e-12
-1.57355e-08
-3.30721e-11
-1.57423e-08
-1.03862e-10
-1.56421e-08
-2.60583e-10
-1.53908e-08
-5.46974e-10
-1.49493e-08
-1.00681e-09
-1.42848e-08
-1.6779e-09
-1.33696e-08
-2.58308e-09
-1.2183e-08
-3.71501e-09
-1.07004e-08
-5.02116e-09
-8.93473e-09
-6.39621e-09
-6.95708e-09
-7.63791e-09
-4.83907e-09
-8.50916e-09
-2.7248e-09
-8.68897e-09
-8.29045e-10
-7.84918e-09
6.472e-10
-5.90658e-09
1.55302e-09
-3.05911e-09
1.87239e-09
1.26766e-10
1.7231e-09
2.92794e-09
1.28146e-09
4.71594e-09
7.12588e-10
4.9271e-09
3.65931e-11
3.7807e-09
-1.32156e-09
2.73005e-09
-4.56302e-09
4.08102e-09
-1.01533e-08
9.27601e-09
-1.61941e-08
1.81248e-08
2.69536e-08
-1.92923e-08
-1.43512e-08
-4.35681e-10
-1.45516e-08
1.72736e-10
-1.47029e-08
2.97307e-10
-1.4841e-08
3.23295e-10
-1.4973e-08
3.28199e-10
-1.51017e-08
3.27383e-10
-1.52283e-08
3.23979e-10
-1.5354e-08
3.18712e-10
-1.54796e-08
3.11833e-10
-1.56056e-08
3.0351e-10
-1.57327e-08
2.93893e-10
-1.58612e-08
2.83134e-10
-1.59918e-08
2.71394e-10
-1.61248e-08
2.58835e-10
-1.62607e-08
2.45597e-10
-1.63999e-08
2.31802e-10
-1.6543e-08
2.17626e-10
-1.66905e-08
2.035e-10
-1.68437e-08
1.90368e-10
-1.70038e-08
1.79732e-10
-1.71709e-08
1.72882e-10
-1.73421e-08
1.68811e-10
-1.75085e-08
1.61173e-10
-1.7654e-08
1.35714e-10
-1.77568e-08
6.97946e-11
-1.77947e-08
-6.59686e-11
-1.77491e-08
-3.06192e-10
-1.76048e-08
-6.91316e-10
-1.73438e-08
-1.26782e-09
-1.69394e-08
-2.08221e-09
-1.63577e-08
-3.16483e-09
-1.55657e-08
-4.50699e-09
-1.45442e-08
-6.04269e-09
-1.3305e-08
-7.63537e-09
-1.18744e-08
-9.06849e-09
-1.03332e-08
-1.00504e-08
-8.79997e-09
-1.02222e-08
-7.35531e-09
-9.29384e-09
-6.15197e-09
-7.10992e-09
-5.2655e-09
-3.94557e-09
-4.69858e-09
-4.40159e-10
-4.36647e-09
2.59583e-09
-4.16511e-09
4.51458e-09
-4.26704e-09
5.02903e-09
-5.25679e-09
4.77044e-09
-7.93121e-09
5.40447e-09
-1.232e-08
8.46977e-09
-1.72966e-08
1.42527e-08
-2.08395e-08
2.16693e-08
2.71296e-08
-2.09696e-08
-1.58243e-08
-2.38174e-10
-1.60138e-08
3.08027e-10
-1.61472e-08
4.20823e-10
-1.62675e-08
4.41713e-10
-1.63833e-08
4.43571e-10
-1.6497e-08
4.41015e-10
-1.661e-08
4.36948e-10
-1.67232e-08
4.31953e-10
-1.68375e-08
4.26179e-10
-1.69538e-08
4.19721e-10
-1.70726e-08
4.12689e-10
-1.71946e-08
4.0522e-10
-1.73207e-08
3.97479e-10
-1.74515e-08
3.8965e-10
-1.75879e-08
3.81928e-10
-1.77306e-08
3.74541e-10
-1.78808e-08
3.67856e-10
-1.80399e-08
3.62537e-10
-1.82091e-08
3.59587e-10
-1.83892e-08
3.59878e-10
-1.85791e-08
3.62775e-10
-1.87744e-08
3.64079e-10
-1.89676e-08
3.54352e-10
-1.91507e-08
3.18808e-10
-1.93192e-08
2.3835e-10
-1.94741e-08
8.89185e-11
-1.9617e-08
-1.63319e-10
-1.97402e-08
-5.68098e-10
-1.98186e-08
-1.18946e-09
-1.98115e-08
-2.08931e-09
-1.96767e-08
-3.29966e-09
-1.93854e-08
-4.79824e-09
-1.89302e-08
-6.49785e-09
-1.83228e-08
-8.2428e-09
-1.75864e-08
-9.80492e-09
-1.67561e-08
-1.08806e-08
-1.58602e-08
-1.11182e-08
-1.49461e-08
-1.02079e-08
-1.40282e-08
-8.02782e-09
-1.31354e-08
-4.83843e-09
-1.23023e-08
-1.27322e-09
-1.15986e-08
1.89218e-09
-1.12077e-08
4.12367e-09
-1.15944e-08
5.41565e-09
-1.33053e-08
6.48136e-09
-1.63687e-08
8.46786e-09
-1.99751e-08
1.20762e-08
-2.28017e-08
1.70794e-08
-2.35483e-08
2.24176e-08
2.51538e-08
-2.15259e-08
-1.73118e-08
-6.54703e-11
-1.74845e-08
4.21658e-10
-1.75952e-08
5.20643e-10
-1.76927e-08
5.37115e-10
-1.77867e-08
5.3717e-10
-1.78798e-08
5.34048e-10
-1.79732e-08
5.30338e-10
-1.80678e-08
5.26527e-10
-1.81643e-08
5.2272e-10
-1.82636e-08
5.18992e-10
-1.83664e-08
5.15456e-10
-1.84734e-08
5.12272e-10
-1.85856e-08
5.09652e-10
-1.87038e-08
5.07851e-10
-1.8829e-08
5.0718e-10
-1.89625e-08
5.08044e-10
-1.91057e-08
5.11042e-10
-1.92602e-08
5.17023e-10
-1.94275e-08
5.26887e-10
-1.96085e-08
5.40846e-10
-1.98029e-08
5.57185e-10
-2.00101e-08
5.71273e-10
-2.02314e-08
5.75716e-10
-2.04739e-08
5.61234e-10
-2.07509e-08
5.15402e-10
-2.10777e-08
4.15733e-10
-2.14596e-08
2.18496e-10
-2.18806e-08
-1.47018e-10
-2.23036e-08
-7.66451e-10
-2.26832e-08
-1.70976e-09
-2.29834e-08
-2.9995e-09
-2.31878e-08
-4.59377e-09
-2.32998e-08
-6.38592e-09
-2.33349e-08
-8.20763e-09
-2.33112e-08
-9.82861e-09
-2.32325e-08
-1.09594e-08
-2.3072e-08
-1.12787e-08
-2.27756e-08
-1.05043e-08
-2.22797e-08
-8.52367e-09
-2.15806e-08
-5.53757e-09
-2.07828e-08
-2.07096e-09
-2.0125e-08
1.23434e-09
-1.99343e-08
3.93304e-09
-2.05377e-08
6.01899e-09
-2.20381e-08
7.98176e-09
-2.40169e-08
1.04467e-08
-2.56435e-08
1.37028e-08
-2.60245e-08
1.74604e-08
-2.4568e-08
2.09629e-08
2.19822e-08
-2.1349e-08
-1.88082e-08
8.15081e-11
-1.89596e-08
5.10557e-10
-1.90449e-08
5.94467e-10
-1.91174e-08
6.07302e-10
-1.91873e-08
6.06727e-10
-1.92575e-08
6.04119e-10
-1.93289e-08
6.01689e-10
-1.94022e-08
5.99847e-10
-1.94781e-08
5.98693e-10
-1.95575e-08
5.9832e-10
-1.96409e-08
5.98875e-10
-1.97292e-08
6.0057e-10
-1.98232e-08
6.03694e-10
-1.9924e-08
6.08612e-10
-2.00326e-08
6.15795e-10
-2.01504e-08
6.25879e-10
-2.02791e-08
6.39728e-10
-2.04205e-08
6.58422e-10
-2.05766e-08
6.82959e-10
-2.07494e-08
7.13642e-10
-2.09417e-08
7.49528e-10
-2.11592e-08
7.88709e-10
-2.14129e-08
8.2942e-10
-2.17213e-08
8.69638e-10
-2.21071e-08
9.01185e-10
-2.25878e-08
8.96502e-10
-2.31644e-08
7.95062e-10
-2.38153e-08
5.03863e-10
-2.45034e-08
-7.83335e-11
-2.51909e-08
-1.02225e-09
-2.5851e-08
-2.33938e-09
-2.64731e-08
-3.97167e-09
-2.70624e-08
-5.79662e-09
-2.76366e-08
-7.63343e-09
-2.82143e-08
-9.25089e-09
-2.87918e-08
-1.03819e-08
-2.9319e-08
-1.07514e-08
-2.96953e-08
-1.01281e-08
-2.98039e-08
-8.41511e-09
-2.95896e-08
-5.75185e-09
-2.91267e-08
-2.53391e-09
-2.86258e-08
7.33489e-10
-2.83463e-08
3.65354e-09
-2.84356e-08
6.10825e-09
-2.88075e-08
8.3537e-09
-2.90749e-08
1.07141e-08
-2.86941e-08
1.3322e-08
-2.72176e-08
1.5984e-08
-2.44991e-08
1.82463e-08
1.84566e-08
-2.09253e-08
-2.0306e-08
2.02353e-10
-2.04325e-08
5.72621e-10
-2.04906e-08
6.40861e-10
-2.05364e-08
6.50931e-10
-2.0581e-08
6.50828e-10
-2.06267e-08
6.49734e-10
-2.06744e-08
6.49427e-10
-2.07248e-08
6.50256e-10
-2.07785e-08
6.5234e-10
-2.0836e-08
6.55807e-10
-2.08979e-08
6.60858e-10
-2.09651e-08
6.67774e-10
-2.10384e-08
6.76936e-10
-2.11186e-08
6.88841e-10
-2.1207e-08
7.04143e-10
-2.13048e-08
7.23722e-10
-2.14138e-08
7.48751e-10
-2.15361e-08
7.80664e-10
-2.16741e-08
8.20963e-10
-2.18315e-08
8.71015e-10
-2.20142e-08
9.32226e-10
-2.22325e-08
1.00709e-09
-2.25032e-08
1.10009e-09
-2.28482e-08
1.21461e-09
-2.32899e-08
1.34295e-09
-2.38432e-08
1.44981e-09
-2.45079e-08
1.45969e-09
-2.5268e-08
1.26402e-09
-2.60976e-08
7.51185e-10
-2.69744e-08
-1.45432e-10
-2.78782e-08
-1.43559e-09
-2.8797e-08
-3.05283e-09
-2.97294e-08
-4.86422e-09
-3.06843e-08
-6.67858e-09
-3.16724e-08
-8.26277e-09
-3.26869e-08
-9.36743e-09
-3.36786e-08
-9.75976e-09
-3.45419e-08
-9.26471e-09
-3.51355e-08
-7.82155e-09
-3.53445e-08
-5.54278e-09
-3.51516e-08
-2.7269e-09
-3.46487e-08
2.30675e-10
-3.39925e-08
2.99726e-09
-3.32813e-08
5.39708e-09
-3.24601e-08
7.53252e-09
-3.13209e-08
9.57489e-09
-2.96037e-08
1.16048e-08
-2.71562e-08
1.35366e-08
-2.40226e-08
1.51146e-08
1.50915e-08
-2.06086e-08
-2.17975e-08
2.96633e-10
-2.18955e-08
6.05952e-10
-2.19247e-08
6.587e-10
-2.1943e-08
6.66999e-10
-2.19609e-08
6.68375e-10
-2.19809e-08
6.69664e-10
-2.20037e-08
6.72195e-10
-2.20297e-08
6.76261e-10
-2.20594e-08
6.82008e-10
-2.20932e-08
6.8961e-10
-2.21317e-08
6.99319e-10
-2.21754e-08
7.11483e-10
-2.2225e-08
7.26568e-10
-2.22813e-08
7.45187e-10
-2.23453e-08
7.68148e-10
-2.24182e-08
7.96543e-10
-2.25012e-08
8.31826e-10
-2.25964e-08
8.75847e-10
-2.27063e-08
9.30877e-10
-2.28352e-08
9.99871e-10
-2.299e-08
1.08707e-09
-2.31818e-08
1.19889e-09
-2.3426e-08
1.34429e-09
-2.37402e-08
1.52876e-09
-2.41407e-08
1.74349e-09
-2.46398e-08
1.94887e-09
-2.52425e-08
2.06245e-09
-2.59502e-08
1.97163e-09
-2.67533e-08
1.55431e-09
-2.76592e-08
7.60497e-10
-2.86559e-08
-4.38868e-10
-2.97378e-08
-1.97099e-09
-3.08963e-08
-3.70565e-09
-3.2119e-08
-5.45593e-09
-3.33839e-08
-6.99782e-09
-3.46531e-08
-8.09826e-09
-3.58632e-08
-8.54968e-09
-3.69163e-08
-8.2116e-09
-3.7684e-08
-7.05387e-09
-3.80406e-08
-5.18611e-09
-3.79173e-08
-2.85026e-09
-3.73288e-08
-3.57794e-10
-3.63512e-08
2.01961e-09
-3.50824e-08
4.12835e-09
-3.35416e-08
5.99168e-09
-3.16698e-08
7.70305e-09
-2.93883e-08
9.32337e-09
-2.66806e-08
1.08289e-08
-2.36181e-08
1.2054e-08
1.20321e-08
-2.05094e-08
-2.32746e-08
3.63542e-10
-2.33401e-08
6.08472e-10
-2.33387e-08
6.46745e-10
-2.3328e-08
6.54324e-10
-2.3318e-08
6.57978e-10
-2.33106e-08
6.62244e-10
-2.33065e-08
6.68022e-10
-2.33058e-08
6.75552e-10
-2.33088e-08
6.84994e-10
-2.33157e-08
6.96556e-10
-2.33269e-08
7.10516e-10
-2.33427e-08
7.2725e-10
-2.33634e-08
7.47257e-10
-2.33894e-08
7.71191e-10
-2.34211e-08
7.99906e-10
-2.34591e-08
8.34576e-10
-2.35041e-08
8.76801e-10
-2.35569e-08
9.28667e-10
-2.36191e-08
9.93019e-10
-2.36931e-08
1.07389e-09
-2.37836e-08
1.17754e-09
-2.38962e-08
1.31155e-09
-2.40401e-08
1.48814e-09
-2.42229e-08
1.71158e-09
-2.44526e-08
1.97322e-09
-2.47378e-08
2.23404e-09
-2.50927e-08
2.41734e-09
-2.55382e-08
2.41719e-09
-2.61098e-08
2.12589e-09
-2.6824e-08
1.47467e-09
-2.77135e-08
4.50609e-10
-2.87981e-08
-8.8633e-10
-3.00796e-08
-2.42415e-09
-3.15323e-08
-4.00328e-09
-3.30898e-08
-5.4403e-09
-3.46487e-08
-6.53937e-09
-3.6085e-08
-7.11338e-09
-3.72727e-08
-7.02387e-09
-3.80961e-08
-6.23053e-09
-3.84622e-08
-4.82e-09
-3.83207e-08
-2.99176e-09
-3.7678e-08
-1.00044e-09
-3.65852e-08
9.26823e-10
-3.51273e-08
2.67042e-09
-3.33597e-08
4.22412e-09
-3.1297e-08
5.64026e-09
-2.89369e-08
6.96336e-09
-2.62961e-08
8.18812e-09
-2.34194e-08
9.17902e-09
9.19863e-09
-2.05358e-08
-2.47167e-08
3.99917e-10
-2.47431e-08
5.75782e-10