/*--------------------------------*- C++ -*----------------------------------*\
  =========                 |
  \\      /  F ield         | OpenFOAM: The Open Source CFD Toolbox
   \\    /   O peration     | Website:  https://openfoam.org
    \\  /    A nd           | Version:  13
     \\/     M anipulation  |
\*---------------------------------------------------------------------------*/
FoamFile
{
    format      ascii;
    class       volVectorField;
    location    "0.0007";
    object      U;
}
// * * * * * * * * * * * * * * * * * * * * * * * * * * * * * * * * * * * * * //

dimensions      [0 1 -1 0 0 0 0];

internalField   nonuniform List<vector> 
1690
(
(0.330157 -0.00152305 2.90093e-18)
(0.359162 -0.00472903 -1.47409e-18)
(0.422606 -0.00829409 -1.771e-17)
(0.521358 -0.0120627 3.10008e-17)
(0.658232 -0.0149969 6.34518e-17)
(0.810995 -0.0155473 1.18078e-17)
(0.960377 -0.0106442 1.54838e-17)
(1.01802 -0.000887767 1.81467e-17)
(0.328299 -0.00394302 6.45873e-20)
(0.357177 -0.0123131 7.75138e-18)
(0.420518 -0.0216251 3.55066e-17)
(0.519518 -0.0314885 1.11512e-16)
(0.657181 -0.0393924 6.35972e-17)
(0.811642 -0.0407543 -3.15387e-18)
(0.962272 -0.028207 1.41863e-17)
(1.01889 -0.00194486 5.49948e-18)
(0.324817 -0.00626562 -3.63442e-18)
(0.353435 -0.0194876 5.40345e-18)
(0.416501 -0.0343145 3.95937e-17)
(0.515762 -0.0502278 9.05874e-17)
(0.655041 -0.0634954 5.36499e-17)
(0.81288 -0.0655734 1.80937e-17)
(0.966174 -0.0453839 -6.79506e-17)
(1.02081 -0.00175027 -4.33383e-17)
(0.319605 -0.00865851 -1.45507e-18)
(0.347831 -0.0269297 2.16084e-18)
(0.410401 -0.0476083 5.11823e-18)
(0.509889 -0.0701538 5.86259e-17)
(0.651645 -0.0895114 1.45167e-17)
(0.814811 -0.0926173 -4.17233e-17)
(0.972506 -0.0634601 -1.17938e-16)
(1.02423 -0.000831013 -8.27668e-17)
(0.312682 -0.0110087 -3.67175e-18)
(0.340343 -0.034305 -4.86779e-19)
(0.402125 -0.0609625 2.9196e-18)
(0.501709 -0.0906238 -2.20815e-17)
(0.646758 -0.116889 -4.42313e-17)
(0.817437 -0.121476 -6.23441e-17)
(0.981523 -0.0818166 -1.28407e-16)
(1.02924 0.00140219 -1.06752e-16)
(0.304096 -0.0132755 -2.72136e-18)
(0.330988 -0.0414806 -1.26744e-18)
(0.391586 -0.0741899 -7.88786e-18)
(0.49096 -0.111546 -5.42949e-17)
(0.639962 -0.145855 -6.37648e-17)
(0.820341 -0.152574 -5.24836e-17)
(0.993024 -0.10043 -9.99216e-17)
(1.03594 0.00556468 -1.02483e-16)
(0.293918 -0.015428 -2.04014e-18)
(0.3198 -0.0483613 -4.35125e-18)
(0.378686 -0.0871568 -2.81554e-17)
(0.47726 -0.132907 -8.17762e-17)
(0.630391 -0.176734 -8.71556e-17)
(0.821711 -0.186495 -3.79877e-17)
(1.00511 -0.119557 -5.39708e-17)
(1.0441 0.0120656 -7.86664e-17)
(0.282244 -0.0174311 -9.24134e-19)
(0.306842 -0.0548314 -6.79869e-18)
(0.363311 -0.0996636 -3.11257e-17)
(0.460054 -0.154543 -9.22444e-17)
(0.616316 -0.209529 -7.80074e-17)
(0.817 -0.223558 -3.07366e-17)
(1.01231 -0.139858 -2.68743e-17)
(1.0526 0.0206419 -6.13564e-17)
(0.269203 -0.0192444 -7.1775e-19)
(0.292209 -0.0607419 -7.49896e-18)
(0.345353 -0.111397 -3.64819e-17)
(0.43864 -0.175946 -8.16828e-17)
(0.594825 -0.243394 -7.13805e-17)
(0.798613 -0.263272 -2.74202e-17)
(1.00466 -0.162611 -9.07638e-18)
(1.05875 0.0296544 -3.78584e-17)
(0.25496 -0.020824 1.71075e-19)
(0.276053 -0.0659111 -5.8297e-18)
(0.324777 -0.121937 -4.10682e-17)
(0.412397 -0.196175 -7.56824e-17)
(0.562286 -0.276133 -5.90084e-17)
(0.758347 -0.303668 -2.27516e-17)
(0.970071 -0.189741 3.31925e-18)
(1.05819 0.0355006 -1.75005e-17)
(0.239718 -0.022126 -7.84116e-19)
(0.258591 -0.0701423 -4.93406e-18)
(0.301821 -0.13078 -3.64873e-17)
(0.381132 -0.21372 -6.29957e-17)
(0.516187 -0.304755 -4.33208e-17)
(0.69203 -0.341176 -1.18328e-17)
(0.900324 -0.223443 1.28749e-17)
(1.04551 0.0325454 -8.25599e-18)
(0.22371 -0.0231132 -4.50641e-19)
(0.240131 -0.0732721 -5.35575e-18)
(0.277192 -0.1374 -3.45716e-17)
(0.345534 -0.226824 -5.33673e-17)
(0.457462 -0.326086 -3.66464e-17)
(0.602914 -0.372192 -2.16619e-18)
(0.796891 -0.264147 2.02462e-17)
(1.01299 0.0139397 4.19779e-18)
(0.207181 -0.0237649 -6.7203e-19)
(0.221072 -0.0752228 -7.27043e-18)
(0.251946 -0.141458 -2.86044e-17)
(0.307481 -0.234204 -4.08479e-17)
(0.39165 -0.337742 -3.0512e-17)
(0.500536 -0.394622 2.60414e-18)
(0.670632 -0.308059 2.57576e-17)
(0.944499 -0.0245693 1.4193e-17)
(0.19036 -0.0240939 -1.0188e-18)
(0.201905 -0.076094 -7.51357e-18)
(0.227126 -0.143046 -2.38235e-17)
(0.269586 -0.235842 -3.56266e-17)
(0.326782 -0.339606 -2.58388e-17)
(0.398456 -0.407029 -1.25842e-18)
(0.53135 -0.356347 2.53333e-17)
(0.820452 -0.103978 3.27896e-17)
(0.173445 -0.0241693 -7.56644e-19)
(0.183073 -0.0761846 -6.82134e-18)
(0.203394 -0.142696 -1.94857e-17)
(0.234096 -0.232873 -2.77057e-17)
(0.269252 -0.3334 -2.5321e-17)
(0.308925 -0.408439 -5.93558e-18)
(0.393426 -0.402093 2.37633e-17)
(0.63791 -0.233477 1.85501e-17)
(0.976819 0.0237814 -3.05515e-15)
(0.938669 0.0411931 -5.55102e-16)
(0.845376 0.0445005 5.86823e-16)
(0.77184 0.0432592 3.34025e-15)
(0.69039 0.0412303 -3.09019e-16)
(0.612647 0.038616 -6.36164e-15)
(0.537564 0.0356247 -9.21223e-15)
(0.466394 0.0323658 -8.9215e-15)
(0.399902 0.0289618 -3.52694e-15)
(0.338722 0.0255319 -1.37985e-15)
(0.283247 0.0221862 -4.73577e-15)
(0.233639 0.0190192 -6.26232e-15)
(0.189845 0.0161057 -8.41086e-15)
(0.151612 0.0135005 -7.05119e-15)
(0.118518 0.0112399 -2.16174e-15)
(0.0899999 0.00934655 -1.26666e-15)
(0.0653578 0.00784215 3.41748e-15)
(0.0436545 0.00675553 1.19769e-14)
(0.0238024 0.00600524 1.31598e-14)
(0.00600693 0.00448714 2.89893e-16)
(0.976481 0.0570624 -2.54905e-15)
(0.937131 0.0995261 -6.89244e-16)
(0.842635 0.106676 3.71288e-15)
(0.767478 0.103947 4.08692e-15)
(0.685201 0.0988688 2.72296e-15)
(0.606595 0.0925566 -2.05572e-15)
(0.531019 0.0853355 -7.58161e-15)
(0.459631 0.0774802 -4.84118e-15)
(0.393184 0.0692819 1.32875e-15)
(0.332277 0.061029 4.96329e-15)
(0.277256 0.0529864 3.97432e-15)
(0.228234 0.0453803 8.02769e-17)
(0.185105 0.0383901 -4.04157e-15)
(0.147576 0.0321462 -2.85305e-15)
(0.115191 0.0267338 1.3854e-15)
(0.0873619 0.022205 2.3894e-15)
(0.0633749 0.0186102 6.06235e-15)
(0.0422854 0.0160203 8.56665e-15)
(0.0230173 0.0142387 1.10598e-14)
(0.00578082 0.0105712 2.04147e-15)
(0.976084 0.091095 -3.27022e-16)
(0.933194 0.158741 1.08356e-15)
(0.836451 0.169138 2.69036e-15)
(0.758998 0.164659 2.21319e-15)
(0.674753 0.156052 3.24658e-15)
(0.594822 0.145624 8.92218e-16)
(0.518402 0.133777 -2.87485e-15)
(0.4467 0.120998 -3.45784e-15)
(0.380424 0.107768 -5.14831e-16)
(0.320103 0.0945541 1.80124e-15)
(0.265991 0.0817735 3.19894e-15)
(0.218107 0.0697718 1.59507e-15)
(0.176255 0.058814 -9.79644e-16)
(0.140063 0.0490844 -3.50251e-16)
(0.109011 0.0406951 7.58307e-16)
(0.0824717 0.0337079 1.01816e-15)
(0.0597058 0.0281828 2.63121e-15)
(0.0397717 0.0242154 6.81375e-15)
(0.0216182 0.0214984 1.27539e-14)
(0.00543253 0.0159325 4.15327e-15)
(0.975759 0.127111 1.1562e-15)
(0.927394 0.219151 1.84876e-15)
(0.827314 0.232297 6.67417e-16)
(0.746581 0.225435 -1.81104e-16)
(0.659477 0.212873 7.46528e-16)
(0.57776 0.19787 1.26483e-15)
(0.500233 0.18097 4.98233e-16)
(0.428219 0.162919 -7.28097e-16)
(0.362326 0.144408 8.40324e-17)
(0.302967 0.126094 1.17454e-15)
(0.250255 0.108536 2.04515e-15)
(0.204064 0.0921865 2.98371e-16)
(0.164067 0.0773742 -5.68826e-16)
(0.12978 0.0643145 -3.88576e-16)
(0.100602 0.0531242 2.97867e-16)
(0.0758491 0.0438549 4.46057e-16)
(0.0547567 0.0365591 3.56424e-17)
(0.0363909 0.0313382 2.24532e-16)
(0.0197336 0.0277709 2.75971e-15)
(0.00494018 0.0205405 -7.31423e-16)
(0.975149 0.165048 1.01515e-15)
(0.919578 0.280711 6.15841e-16)
(0.815077 0.295744 -7.4932e-16)
(0.730044 0.285653 -1.21428e-15)
(0.639424 0.268447 -8.2008e-16)
(0.555605 0.248202 1.35213e-16)
(0.476903 0.225674 1.11026e-15)
(0.404764 0.201925 4.39822e-16)
(0.339617 0.177877 4.57516e-16)
(0.281701 0.15437 9.55457e-16)
(0.230928 0.132091 6.30343e-16)
(0.186983 0.111564 -4.78581e-16)
(0.149372 0.093146 -8.94075e-16)
(0.117481 0.077048 -5.66584e-16)
(0.0906131 0.0633593 8.34922e-16)
(0.068028 0.0520951 2.66136e-15)
(0.04894 0.0432784 3.6092e-15)
(0.0324332 0.0369957 2.44938e-15)
(0.0175367 0.032715 1.07449e-15)
(0.00437339 0.0241434 1.90242e-16)
(0.974072 0.205763 1.14956e-16)
(0.909445 0.344172 -5.79399e-16)
(0.799423 0.359892 -1.19022e-15)
(0.709123 0.345542 -1.27092e-15)
(0.614516 0.322799 -7.80534e-16)
(0.528449 0.296488 2.12163e-16)
(0.448704 0.267659 5.44413e-16)
(0.376813 0.237745 -7.92171e-17)
(0.312922 0.207905 -7.00283e-16)
(0.257024 0.179149 -8.93278e-16)
(0.208769 0.152256 -9.9576e-16)
(0.167614 0.127777 -4.05311e-16)
(0.132875 0.106054 2.72649e-17)
(0.103794 0.0872511 -9.35176e-17)
(0.0795829 0.0713983 2.80927e-16)
(0.059448 0.0584483 1.89361e-15)
(0.0425926 0.048374 3.21351e-15)
(0.028133 0.0412278 2.81513e-15)
(0.0151607 0.0363732 -1.19138e-15)
(0.0037639 0.0267795 -3.27905e-15)
(0.972341 0.250331 -2.84789e-16)
(0.896612 0.410471 -1.40357e-15)
(0.779898 0.425337 -1.44447e-15)
(0.683412 0.405443 -9.44541e-16)
(0.584525 0.376044 6.71854e-17)
(0.496262 0.342674 6.7252e-16)
(0.415832 0.306782 1.68293e-16)
(0.344758 0.270212 -1.08997e-15)
(0.282778 0.234348 -1.24389e-15)
(0.229562 0.200337 -1.29718e-15)
(0.184441 0.168993 -8.70644e-16)
(0.146609 0.14084 -6.42738e-16)
(0.11518 0.116153 -3.62188e-16)
(0.0892563 0.0950087 -3.7188e-16)
(0.0679637 0.0773429 -6.03347e-17)
(0.0504729 0.0630235 7.48189e-16)
(0.0359906 0.0519556 1.14857e-15)
(0.0236809 0.044142 1.47038e-15)
(0.0127125 0.0388504 -8.33813e-16)
(0.00313943 0.0285338 -1.82133e-15)
(0.969697 0.299892 -4.42177e-16)
(0.880556 0.480473 -1.38487e-15)
(0.75588 0.49253 -1.00593e-15)
(0.652377 0.46549 -3.64698e-16)
(0.549133 0.428071 5.35755e-16)
(0.45897 0.386504 7.32563e-16)
(0.378473 0.342745 -1.03693e-16)
(0.308995 0.299059 -9.03369e-16)
(0.249723 0.257016 -7.37749e-16)
(0.199928 0.217833 -5.41997e-16)
(0.15857 0.182288 -5.60155e-16)
(0.124564 0.15081 -1.29583e-15)
(0.0968246 0.123551 -1.98316e-15)
(0.0743289 0.100457 -1.84314e-15)
(0.0561372 0.0813437 -7.57908e-16)
(0.0414041 0.0659733 -4.39278e-17)
(0.0293587 0.0541711 3.09203e-16)
(0.0192298 0.0458792 1.91108e-16)
(0.0102767 0.0402811 -5.79845e-16)
(0.00252179 0.0295132 7.54204e-17)
(0.965784 0.355735 -2.69712e-16)
(0.860583 0.554997 -7.99882e-16)
(0.726579 0.561772 -5.78508e-16)
(0.615385 0.525612 3.2376e-17)
(0.507993 0.478567 5.7169e-16)
(0.416532 0.427559 6.49056e-16)
(0.336872 0.375151 -7.21262e-18)
(0.269972 0.323983 -2.26551e-16)
(0.214325 0.27573 -8.41208e-17)
(0.168733 0.231583 -4.78804e-17)
(0.131753 0.192187 -3.328e-16)
(0.102025 0.157807 -1.14794e-15)
(0.0782833 0.128413 -2.13306e-15)
(0.0594065 0.103784 -2.2075e-15)
(0.0444189 0.083591 -1.65675e-15)
(0.032484 0.0674813 -9.9035e-16)
(0.0228738 0.055192 -4.24783e-16)
(0.0148976 0.0465989 -8.51422e-16)
(0.00791756 0.0408147 -6.67206e-16)
(0.00192714 0.0298345 1.06583e-15)
(0.960125 0.419372 -1.62776e-16)
(0.835783 0.634847 -6.05786e-17)
(0.691027 0.633208 -1.37367e-17)
(0.571728 0.585533 1.34661e-16)
(0.460771 0.527027 1.89686e-16)
(0.368985 0.465295 2.68473e-16)
(0.291371 0.40355 1.37635e-16)
(0.228215 0.34469 1.37776e-16)
(0.177193 0.290359 2.28753e-16)
(0.13659 0.241595 -5.9022e-17)
(0.104557 0.198806 -3.82461e-16)
(0.0794839 0.16201 -8.48159e-16)
(0.0599635 0.13095 -1.39389e-15)
(0.0448148 0.105209 -1.59191e-15)
(0.0330603 0.0842988 -1.24165e-15)
(0.0239 0.0677459 -8.72114e-16)
(0.0166691 0.0551984 -6.11592e-16)
(0.0107716 0.0464649 -2.75979e-16)
(0.00568117 0.0406027 6.19921e-16)
(0.00136678 0.0296141 1.21126e-15)
(0.952067 0.492616 -3.55308e-17)
(0.804969 0.720791 3.10779e-16)
(0.648057 0.706782 3.9345e-16)
(0.520658 0.644733 1.65122e-16)
(0.407204 0.572751 -1.19613e-16)
(0.316493 0.499062 7.54087e-17)
(0.24243 0.427473 2.40221e-16)
(0.18433 0.360921 2.49519e-16)
(0.138968 0.30084 1.34404e-16)
(0.104101 0.247952 -3.83194e-16)
(0.0775036 0.202321 -7.10176e-16)
(0.0573705 0.163649 -7.99852e-16)
(0.0422045 0.13141 -1.02199e-15)
(0.0308127 0.104974 -8.76637e-16)
(0.022253 0.0836909 -1.91452e-16)
(0.0157894 0.0669676 4.2669e-16)
(0.0108392 0.0543675 -1.138e-16)
(0.00691146 0.0456357 -1.62221e-17)
(0.00359828 0.0397895 9.75693e-16)
(0.000848001 0.0289614 6.41447e-16)
(0.940691 0.577699 3.37818e-17)
(0.766576 0.813507 5.13299e-16)
(0.596302 0.782163 5.16928e-16)
(0.461431 0.702403 9.22219e-17)
(0.347164 0.61485 -1.80228e-16)
(0.259391 0.528143 -1.19471e-16)
(0.190649 0.446475 1.03327e-16)
(0.139001 0.372493 1.25687e-16)
(0.10031 0.307194 -5.77069e-17)
(0.0718405 0.250816 -4.63573e-16)
(0.051061 0.20297 -6.20654e-16)
(0.0360473 0.162991 -6.03774e-16)
(0.0252766 0.130059 -5.86152e-16)
(0.0175954 0.103329 -4.52428e-16)
(0.012134 0.0819896 2.29078e-16)
(0.0082455 0.0653399 6.18559e-16)
(0.00544502 0.0528666 -2.52484e-16)
(0.00335432 0.0442582 -3.14971e-16)
(0.001687 0.0385074 4.49525e-16)
(0.000374853 0.0279755 3.4859e-16)
(0.92466 0.677449 -2.97483e-17)
(0.718511 0.913471 5.72024e-16)
(0.534207 0.858658 5.70601e-16)
(0.393382 0.757406 1.07266e-16)
(0.280726 0.652275 -2.33759e-16)
(0.198216 0.5518 -1.69655e-16)
(0.136762 0.460177 1.38074e-18)
(0.0929698 0.379322 9.96902e-17)
(0.061874 0.309544 -1.3279e-16)
(0.0403363 0.250422 -4.67831e-16)
(0.0256306 0.201042 -4.22894e-16)
(0.0158052 0.160332 -2.52126e-16)
(0.00938239 0.127176 -2.88065e-16)
(0.00529897 0.100519 -3.79989e-16)
(0.00279145 0.0794079 1.18943e-16)
(0.00132365 0.0630431 3.30978e-16)
(0.000519936 0.0508482 -6.08018e-16)
(0.000118622 0.0424635 -1.10736e-15)
(-4.46638e-05 0.0368742 -2.71168e-16)
(-5.12026e-05 0.0267426 1.05446e-16)
(0.901981 0.795569 3.74267e-17)
(0.657971 1.02074 5.74907e-16)
(0.460103 0.935115 4.96222e-16)
(0.316014 0.808248 1.67801e-16)
(0.208244 0.683872 -1.10503e-16)
(0.133727 0.569346 -8.67819e-17)
(0.0816259 0.468325 -1.80773e-17)
(0.0470077 0.381452 4.72411e-17)
(0.0242825 0.30811 -1.19851e-16)
(0.0100527 0.247076 -1.98198e-16)
(0.00153897 0.19686 -1.89111e-16)
(-0.00313796 0.15598 -9.32253e-17)
(-0.00533982 0.123036 -2.66752e-16)
(-0.00599341 0.0967825 -3.44307e-16)
(-0.00572762 0.0761425 1.05647e-16)
(-0.00495192 0.0602396 2.27607e-16)
(-0.00392515 0.0484467 -6.14786e-16)
(-0.00279141 0.0403668 -1.09617e-15)
(-0.00159627 0.0349899 -5.11865e-16)
(-0.000430946 0.0253366 1.51673e-16)
(0.869619 0.93698 1.07135e-16)
(0.581161 1.13456 5.66518e-16)
(0.372345 1.00984 4.29824e-16)
(0.229111 0.853078 1.17858e-16)
(0.130419 0.708461 -9.84106e-17)
(0.0668962 0.580207 -8.94371e-17)
(0.0261816 0.47082 -1.30368e-16)
(0.0018765 0.379059 -5.23972e-17)
(-0.0119014 0.303206 -8.39949e-17)
(-0.0186258 0.241132 1.92951e-18)
(-0.0209672 0.190771 9.57601e-17)
(-0.0206347 0.150245 5.22226e-17)
(-0.0188095 0.117902 -1.53813e-16)
(-0.0162437 0.0923357 -3.08923e-16)
(-0.0134104 0.0723705 -4.37397e-17)
(-0.0105816 0.0570723 1.67665e-16)
(-0.00789607 0.0457785 -2.74902e-16)
(-0.00538309 0.0380658 -5.6853e-16)
(-0.00297344 0.0329384 -3.30557e-16)
(-0.000765814 0.0238188 -1.85908e-17)
(0.822952 1.10857 1.41058e-16)
(0.482953 1.25293 5.37778e-16)
(0.269607 1.08051 3.14584e-16)
(0.132848 0.889747 -1.77843e-17)
(0.0483592 0.724958 -1.75622e-16)
(-0.00111928 0.583993 -1.3369e-16)
(-0.0285908 0.467738 -5.20009e-17)
(-0.0417125 0.372459 8.23095e-17)
(-0.0461978 0.295229 2.01255e-16)
(-0.0454026 0.232984 2.345e-16)
(-0.0417202 0.183127 2.57997e-16)
(-0.0366024 0.143425 3.07121e-16)
(-0.0309959 0.112019 1.03545e-16)
(-0.025451 0.0873744 -1.41301e-16)
(-0.0202705 0.0682466 -1.11599e-16)
(-0.0155845 0.0536632 9.84823e-17)
(-0.0114113 0.0429408 -2.82121e-17)
(-0.00767117 0.0356405 -1.04605e-16)
(-0.00418543 0.03079 -2.04176e-16)
(-0.00105848 0.0222387 -1.77235e-16)
(0.754949 1.31853 1.33582e-16)
(0.356213 1.37178 5.11569e-16)
(0.151237 1.14406 2.17859e-16)
(0.027913 0.916061 -1.23025e-16)
(-0.0364451 0.732202 -2.28917e-16)
(-0.0690466 0.580566 -1.49371e-16)
(-0.0817271 0.459358 2.90317e-17)
(-0.0831237 0.362089 2.36036e-16)
(-0.078229 0.284631 3.90764e-16)
(-0.0700754 0.223041 4.62605e-16)
(-0.0606276 0.17427 5.86708e-16)
(-0.0510147 0.135798 6.82004e-16)
(-0.0419096 0.105605 4.75267e-16)
(-0.0336431 0.0820692 6.03006e-17)
(-0.0263417 0.0639024 -1.20647e-16)
(-0.0199927 0.0501144 1.19463e-17)
(-0.014498 0.040014 7.10795e-17)
(-0.00967548 0.0331564 1.9444e-16)
(-0.00524397 0.0286007 1.29793e-16)
(-0.00131225 0.0206359 -2.34909e-16)
(0.657387 1.58064 1.80867e-16)
(0.191539 1.48669 4.26702e-16)
(0.0177793 1.19577 6.26128e-17)
(-0.0844076 0.929788 -2.4021e-16)
(-0.122189 0.729635 -2.79412e-16)
(-0.135433 0.570119 -6.73898e-17)
(-0.132339 0.446159 1.59125e-16)
(-0.121846 0.348483 3.1474e-16)
(-0.107731 0.271891 4.65398e-16)
(-0.0925301 0.211704 6.11826e-16)
(-0.0776635 0.164523 8.13812e-16)
(-0.0638927 0.127614 9.45602e-16)
(-0.0515931 0.0988518 7.93905e-16)
(-0.0408694 0.0765648 3.34824e-16)
(-0.0316712 0.0594475 -3.82388e-17)
(-0.0238473 0.0465089 3.96219e-17)
(-0.0171885 0.0370621 2.13698e-16)
(-0.0114188 0.0306651 3.90594e-16)
(-0.00616214 0.0264141 1.82247e-16)
(-0.00153064 0.019041 -2.51361e-16)
(0.505695 1.89422 2.29345e-16)
(-0.0248177 1.58789 3.31953e-16)
(-0.129808 1.22829 -9.503e-17)
(-0.201568 0.928831 -3.50887e-16)
(-0.206707 0.717169 -2.39527e-16)
(-0.198992 0.553178 -3.21343e-17)
(-0.179692 0.428769 2.29318e-16)
(-0.157507 0.332227 3.06421e-16)
(-0.13455 0.257491 4.59303e-16)
(-0.112733 0.199354 6.15582e-16)
(-0.0928571 0.154174 8.43252e-16)
(-0.0752935 0.11909 1.08607e-15)
(-0.0601124 0.0919219 9.08968e-16)
(-0.0471934 0.070982 4.74892e-16)
(-0.036315 0.0549712 3.25663e-17)
(-0.0271941 0.0429134 5.1676e-17)
(-0.0195178 0.0341359 2.02371e-16)
(-0.0129253 0.0282068 4.80635e-16)
(-0.00695348 0.0242638 2.85132e-16)
(-0.00171719 0.0174773 -2.21123e-16)
(0.374841 2.28516 2.4613e-16)
(-0.307305 1.68272 2.08868e-16)
(-0.287651 1.23336 -2.04945e-16)
(-0.3194 0.912151 -3.2373e-16)
(-0.287765 0.694834 -1.61052e-16)
(-0.258525 0.530487 3.36833e-17)
(-0.223237 0.407899 2.1387e-16)
(-0.189879 0.313922 2.57434e-16)
(-0.15864 0.241896 3.37609e-16)
(-0.13072 0.186338 5.46156e-16)
(-0.106281 0.143481 8.37479e-16)
(-0.085301 0.110415 1.08436e-15)
(-0.0675486 0.0849513 9.9794e-16)
(-0.0526873 0.065419 5.44956e-16)
(-0.0403333 0.0505445 7.70938e-17)
(-0.0300807 0.0393798 1.57336e-16)
(-0.0215215 0.0312742 3.3054e-16)
(-0.0142192 0.0258114 6.11984e-16)
(-0.00763131 0.0221754 3.88588e-16)
(-0.00187526 0.0159616 -1.34739e-16)
(0.145037 -0.0240053 -2.459e-19)
(0.152393 -0.0751165 -4.14363e-18)
(0.165817 -0.138488 -1.00222e-17)
(0.181216 -0.220054 -2.20331e-17)
(0.191 -0.310539 -2.17657e-17)
(0.194195 -0.38743 -9.01652e-18)
(0.219835 -0.416288 1.23457e-17)
(0.336418 -0.360732 2.89972e-17)
(0.108063 -0.0230421 -2.36758e-20)
(0.112667 -0.0704854 1.42656e-19)
(0.118173 -0.125732 -6.75398e-18)
(0.119428 -0.191782 -1.59866e-17)
(0.108325 -0.264675 -1.81842e-17)
(0.0813583 -0.332848 -9.47284e-18)
(0.0527378 -0.375547 -1.95743e-18)
(0.060157 -0.376657 -3.13355e-18)
(0.0738663 -0.0217479 -3.12421e-19)
(0.0765905 -0.0643022 9.70434e-20)
(0.0768351 -0.111288 -3.08922e-18)
(0.0721017 -0.163336 -9.13293e-18)
(0.0567262 -0.218291 -1.11043e-17)
(0.0279271 -0.270309 -4.58731e-18)
(-0.00808682 -0.30815 -3.5679e-18)
(-0.0310353 -0.323412 -1.48722e-17)
(0.0430995 -0.0206255 -1.27785e-19)
(0.0451647 -0.0571487 -8.30433e-19)
(0.04178 -0.0967005 -3.20318e-18)
(0.0339255 -0.138736 -5.16435e-18)
(0.018277 -0.181924 -1.59761e-18)
(-0.0065299 -0.2228 3.66788e-18)
(-0.0368605 -0.255493 5.15219e-18)
(-0.0625806 -0.275053 -8.28616e-18)
(0.0169917 -0.0190153 -3.51038e-19)
(0.0186745 -0.0497712 -1.16211e-18)
(0.0130764 -0.0828537 -2.36439e-18)
(0.0041404 -0.116899 -1.88211e-18)
(-0.0108918 -0.150931 1.09907e-18)
(-0.0323861 -0.18298 7.78912e-18)
(-0.0577913 -0.209901 1.61292e-17)
(-0.0815116 -0.229176 1.2948e-17)
(-0.00591835 -0.0206474 -8.31393e-19)
(-0.00493237 -0.0431584 -8.49826e-19)
(-0.011094 -0.0704491 5.14748e-19)
(-0.0203578 -0.0984597 1.21203e-18)
(-0.034605 -0.126009 -5.59553e-19)
(-0.0536048 -0.151965 9.28049e-20)
(-0.0756411 -0.174606 1.02671e-17)
(-0.0971785 -0.192407 1.68221e-17)
(-0.0250672 -0.0182163 -1.12518e-18)
(-0.0253761 -0.0370662 6.54404e-19)
(-0.030942 -0.0593977 6.34546e-18)
(-0.0402227 -0.0821655 7.11633e-18)
(-0.0537158 -0.104388 -3.06683e-18)
(-0.0710657 -0.125425 -1.20815e-17)
(-0.0911233 -0.14438 -9.43761e-18)
(-0.111322 -0.160089 7.23564e-20)
(-0.0394889 -0.0168286 5.87179e-20)
(-0.041391 -0.0316 2.61197e-18)
(-0.0470266 -0.0496195 9.92039e-18)
(-0.0562791 -0.0679115 1.16131e-17)
(-0.0692017 -0.0857771 -8.25701e-19)
(-0.0854721 -0.102823 -1.44931e-17)
(-0.104341 -0.118567 -1.9531e-17)
(-0.123736 -0.132034 -1.52056e-17)
(-0.0509599 -0.0146334 1.33793e-18)
(-0.0540103 -0.0263725 2.32395e-18)
(-0.0598666 -0.0406577 4.22725e-18)
(-0.0690991 -0.0551189 8.85032e-19)
(-0.0816267 -0.0692788 -8.14579e-18)
(-0.0972058 -0.0829035 -1.26488e-17)
(-0.115366 -0.0957182 -1.07308e-17)
(-0.134302 -0.106913 -1.07457e-17)
(-0.0600188 -0.012147 1.84973e-18)
(-0.063838 -0.021315 2.10471e-18)
(-0.069917 -0.0323489 -3.15886e-18)
(-0.0791504 -0.0434991 -1.40608e-17)
(-0.0914179 -0.0544487 -2.00569e-17)
(-0.106557 -0.0650617 -1.12153e-17)
(-0.124292 -0.0751684 8.97674e-19)
(-0.142974 -0.0841168 1.33753e-18)
(-0.0669233 -0.00955665 8.57164e-19)
(-0.071255 -0.0164082 1.41087e-18)
(-0.077521 -0.0245729 -5.93166e-18)
(-0.0867681 -0.0328079 -1.91885e-17)
(-0.098868 -0.0409136 -2.20987e-17)
(-0.113716 -0.0488195 -4.87164e-18)
(-0.131177 -0.0564121 1.28511e-17)
(-0.149708 -0.0631863 9.66096e-18)
(-0.071625 -0.00695503 2.18736e-19)
(-0.076293 -0.011655 3.89891e-18)
(-0.0826855 -0.0172452 1.16336e-18)
(-0.0919119 -0.022868 -1.04925e-17)
(-0.103855 -0.0284053 -1.61105e-17)
(-0.118451 -0.0338417 -3.33718e-18)
(-0.135653 -0.0390992 1.00661e-17)
(-0.154013 -0.0437627 3.13345e-18)
(-0.0725379 -0.00439844 1.02349e-18)
(-0.0772984 -0.00708253 2.28248e-18)
(-0.0835735 -0.0103647 -3.31495e-18)
(-0.0924746 -0.0136713 -1.57708e-17)
(-0.103938 -0.0169273 -2.19623e-17)
(-0.117938 -0.020162 -1.1815e-17)
(-0.134445 -0.0233338 1.35261e-18)
(-0.152106 -0.0259968 -3.20765e-18)
(-0.0617093 -0.00202667 2.67451e-18)
(-0.0658962 -0.00293241 2.23087e-19)
(-0.0711743 -0.00419337 -5.76601e-18)
(-0.0785732 -0.00540096 -9.30485e-18)
(-0.0880956 -0.00644859 -5.30991e-18)
(-0.0997369 -0.00742725 6.04298e-18)
(-0.113286 -0.00851516 1.12309e-17)
(-0.127517 -0.00931661 -1.6485e-18)
(-0.0209682 -0.000216247 1.81504e-18)
(-0.0230547 -5.63471e-05 8.72091e-19)
(-0.025199 -5.72372e-05 -2.3061e-18)
(-0.0280648 -2.37461e-05 -2.97563e-18)
(-0.0317029 8.38967e-06 -6.96255e-19)
(-0.0362453 -0.000128967 5.96652e-18)
(-0.0411137 -0.000644084 9.76743e-18)
(-0.0449311 -0.00100181 5.95532e-18)
(0.48125 -0.236122 3.39224e-17)
(0.509568 -0.194796 2.37607e-17)
(0.531606 -0.177117 2.97044e-17)
(0.550609 -0.167282 2.55197e-17)
(0.565462 -0.160375 2.14219e-17)
(0.577721 -0.155109 1.69791e-17)
(0.588178 -0.150933 1.23868e-17)
(0.597353 -0.147502 4.55665e-18)
(0.605602 -0.144581 9.7462e-18)
(0.613181 -0.142013 2.55614e-17)
(0.620269 -0.139689 1.07872e-17)
(0.626999 -0.137533 1.42824e-17)
(0.633467 -0.135491 1.93041e-17)
(0.639746 -0.133524 1.18536e-17)
(0.645886 -0.131604 1.31398e-17)
(0.651925 -0.129709 1.03074e-17)
(0.657888 -0.127826 8.51506e-18)
(0.663792 -0.125945 9.09093e-18)
(0.669641 -0.124059 1.95915e-17)
(0.675431 -0.122163 4.15294e-17)
(0.681143 -0.120254 5.93225e-17)
(0.686735 -0.11833 5.26469e-17)
(0.692126 -0.1164 2.02598e-17)
(0.697177 -0.114489 -2.74684e-17)
(0.701674 -0.112653 -3.28366e-17)
(0.705368 -0.110981 -6.31454e-17)
(0.708101 -0.109572 -9.19718e-17)
(0.710086 -0.10846 -6.3555e-17)
(0.71234 -0.107515 -2.52116e-17)
(0.717304 -0.106344 -1.16102e-16)
(0.729465 -0.104226 -8.56673e-17)
(0.755731 -0.100001 -6.93593e-17)
(0.805565 -0.0922133 -2.48403e-18)
(0.888993 -0.0783444 -1.76635e-17)
(1.01304 -0.0553863 1.19157e-18)
(1.17734 -0.019627 -1.97103e-17)
(1.37039 0.0313732 2.32791e-17)
(1.56907 0.0961048 -1.47481e-16)
(1.7396 0.167755 4.88626e-17)
(1.8434 0.233313 1.48814e-16)
(1.84652 0.273998 7.60154e-17)
(1.74127 0.273669 5.10572e-18)
(1.56049 0.230198 2.8216e-17)
(1.36458 0.161225 2.93981e-17)
(1.21713 0.0955875 4.72558e-18)
(1.15652 0.0542449 4.74619e-17)
(1.18765 0.0410331 3.23571e-18)
(1.27133 0.0474647 -3.97423e-17)
(1.77451 0.0596993 2.40573e-17)
(0.313877 0.115587 4.06725e-17)
(0.0932472 -0.350583 -4.56392e-18)
(0.0969234 -0.327969 -1.39775e-17)
(0.101133 -0.316358 -1.407e-17)
(0.104832 -0.308594 -1.69226e-17)
(0.107915 -0.303276 -1.7699e-17)
(0.110446 -0.299638 -5.45874e-18)
(0.112528 -0.29717 4.25589e-18)
(0.114261 -0.295528 1.7315e-17)
(0.115739 -0.294469 3.05121e-17)
(0.117047 -0.293815 3.4491e-17)
(0.118264 -0.293438 3.00899e-17)
(0.119459 -0.293238 1.58924e-17)
(0.120689 -0.293143 -5.95303e-18)
(0.122004 -0.293095 -2.64296e-17)
(0.123446 -0.29305 -3.32557e-17)
(0.125047 -0.292979 -2.40349e-17)
(0.126836 -0.292853 -1.58108e-17)
(0.128834 -0.292651 -6.51117e-18)
(0.131054 -0.292349 -4.07197e-18)
(0.1335 -0.291926 -1.19728e-17)
(0.136156 -0.291362 -3.40412e-17)
(0.138953 -0.290637 -8.35288e-17)
(0.141714 -0.289728 -1.18818e-16)
(0.144105 -0.288611 -1.81098e-16)
(0.145655 -0.287291 -1.72921e-16)
(0.145969 -0.285852 -1.50066e-16)
(0.145207 -0.284539 -1.19656e-16)
(0.144855 -0.283854 -1.41406e-16)
(0.148671 -0.284584 -1.13909e-16)
(0.163518 -0.28761 -1.25504e-16)
(0.199347 -0.29323 -1.1619e-16)
(0.26767 -0.300292 -7.75104e-17)
(0.380211 -0.306296 -5.42311e-17)
(0.544419 -0.303926 -2.44099e-17)
(0.76153 -0.285789 8.43073e-17)
(1.02375 -0.241596 1.91425e-16)
(1.31363 -0.162089 3.4094e-16)
(1.604 -0.0429073 3.37942e-16)
(1.86128 0.11104 4.29614e-16)
(2.04807 0.281325 3.80518e-16)
(2.13551 0.434735 3.17913e-16)
(2.10096 0.525945 1.73821e-16)
(1.94616 0.523841 9.9903e-17)
(1.71775 0.428523 1.1459e-16)
(1.50093 0.284587 1.16474e-16)
(1.37829 0.152842 1.48909e-16)
(1.36346 0.0700427 1.23844e-16)
(1.41782 0.0370378 3.31926e-17)
(1.22077 0.186487 1.13781e-16)
(-0.632717 0.63412 1.49223e-16)
(-0.0391777 -0.327482 -2.87306e-17)
(-0.0503682 -0.321914 -3.73695e-17)
(-0.0581294 -0.319107 -3.39942e-17)
(-0.0651197 -0.317771 -2.52116e-17)
(-0.0717194 -0.317695 -6.1569e-18)
(-0.078272 -0.318595 1.46368e-17)
(-0.0849281 -0.320262 3.41126e-17)
(-0.0917693 -0.322538 5.03486e-17)
(-0.098833 -0.325298 5.71989e-17)
(-0.106132 -0.328445 5.09276e-17)
(-0.113664 -0.331899 3.09427e-17)
(-0.121414 -0.335596 2.38856e-18)
(-0.129361 -0.339483 -2.3362e-17)
(-0.137475 -0.343516 -3.78954e-17)
(-0.145724 -0.34765 -3.57814e-17)
(-0.154068 -0.351837 -3.5526e-17)
(-0.162488 -0.356043 -4.5399e-17)
(-0.170964 -0.360239 -6.60787e-17)
(-0.179477 -0.364399 -1.04815e-16)
(-0.188026 -0.368487 -1.5334e-16)
(-0.196672 -0.372435 -1.96587e-16)
(-0.205601 -0.376103 -2.25501e-16)
(-0.215152 -0.379281 -2.13316e-16)
(-0.225708 -0.381762 -1.80768e-16)
(-0.237349 -0.383555 -1.52818e-16)
(-0.249231 -0.385205 -1.25135e-16)
(-0.258853 -0.388096 -1.21656e-16)
(-0.261523 -0.394492 -1.22881e-16)
(-0.250397 -0.407119 -1.34564e-16)
(-0.217247 -0.428199 -1.37895e-16)
(-0.153984 -0.458254 -1.13501e-16)
(-0.0545919 -0.495098 -4.47041e-17)
(0.0869978 -0.533178 8.99742e-17)
(0.272834 -0.564312 2.17714e-16)
(0.499973 -0.577932 3.46476e-16)
(0.760298 -0.558303 4.35316e-16)
(1.03789 -0.491236 5.35477e-16)
(1.31023 -0.364052 3.68656e-16)
(1.54949 -0.177528 4.52415e-16)
(1.7283 0.0486606 5.35765e-16)
(1.82799 0.27711 5.51236e-16)
(1.84092 0.462373 4.81122e-16)
(1.76211 0.548903 3.01258e-16)
(1.61034 0.503971 2.66092e-16)
(1.44271 0.35655 2.32335e-16)
(1.32492 0.182342 1.45521e-16)
(1.23011 0.0556806 1.05331e-16)
(0.998252 0.0784916 1.17771e-16)
(0.0510025 0.384567 1.81435e-16)
(-1.41511 1.05104 1.84553e-16)
(-0.0805466 -0.286728 -2.75605e-17)
(-0.0961008 -0.288098 -3.3374e-17)
(-0.108257 -0.289362 -2.91441e-17)
(-0.1198 -0.291011 -1.96447e-17)
(-0.131083 -0.293271 -5.64145e-19)
(-0.142403 -0.296124 2.37144e-17)
(-0.153907 -0.299519 5.14246e-17)
(-0.165707 -0.303396 6.99544e-17)
(-0.177885 -0.307701 7.96361e-17)
(-0.190503 -0.31239 6.88262e-17)
(-0.20361 -0.317429 4.28181e-17)
(-0.217243 -0.32279 1.17401e-17)
(-0.231438 -0.328454 -1.618e-17)
(-0.246226 -0.334404 -2.69044e-17)
(-0.261642 -0.340627 -3.1658e-17)
(-0.27772 -0.347111 -4.77995e-17)
(-0.294476 -0.353836 -8.13328e-17)
(-0.311922 -0.360786 -1.27402e-16)
(-0.330084 -0.367926 -1.73228e-16)
(-0.349039 -0.375164 -2.03669e-16)
(-0.368943 -0.382307 -2.09735e-16)
(-0.39002 -0.389092 -1.74394e-16)
(-0.412395 -0.395321 -1.33752e-16)
(-0.43572 -0.401149 -9.85626e-17)
(-0.458691 -0.407435 -9.07174e-17)
(-0.478697 -0.415984 -9.96888e-17)
(-0.491871 -0.429482 -1.08319e-16)
(-0.493629 -0.451052 -1.27741e-16)
(-0.479378 -0.483572 -1.24671e-16)
(-0.444916 -0.528938 -7.42648e-17)
(-0.386399 -0.587397 2.79931e-18)
(-0.300143 -0.656625 1.39689e-16)
(-0.182784 -0.730169 2.91692e-16)
(-0.0326052 -0.799538 4.27423e-16)
(0.149731 -0.84927 5.05346e-16)
(0.357771 -0.860605 5.29787e-16)
(0.578344 -0.812326 4.32332e-16)
(0.793127 -0.684899 4.79751e-16)
(0.980979 -0.477949 4.94366e-16)
(1.12361 -0.212319 5.54693e-16)
(1.21134 0.0654386 7.51678e-16)
(1.24353 0.302402 6.41996e-16)
(1.22221 0.441049 3.4633e-16)
(1.15727 0.437508 2.04794e-16)
(1.06755 0.304219 2.62188e-16)
(0.948158 0.125512 1.97057e-16)
(0.665602 0.0503489 1.48635e-16)
(-0.00656149 0.215359 1.50456e-16)
(-1.11384 0.645139 2.00217e-16)
(-2.02455 1.30729 1.71821e-16)
(-0.100805 -0.241984 -6.87279e-19)
(-0.117134 -0.246171 -8.98924e-18)
(-0.13051 -0.249413 -1.56836e-17)
(-0.1434 -0.252589 -1.72723e-17)
(-0.156246 -0.256045 -7.02965e-18)
(-0.169291 -0.259838 1.27703e-17)
(-0.182672 -0.263983 3.62773e-17)
(-0.196498 -0.268474 5.59247e-17)
(-0.210859 -0.273304 6.35391e-17)
(-0.225835 -0.278462 5.14561e-17)
(-0.241498 -0.283942 2.97396e-17)
(-0.257917 -0.289734 4.76636e-18)
(-0.275163 -0.295835 -1.33277e-17)
(-0.293307 -0.302238 -2.19147e-17)
(-0.312423 -0.308946 -3.1453e-17)
(-0.332589 -0.315967 -5.97631e-17)
(-0.353889 -0.323312 -1.09051e-16)
(-0.376421 -0.330973 -1.59104e-16)
(-0.400317 -0.338901 -1.8604e-16)
(-0.425748 -0.34697 -1.69959e-16)
(-0.452888 -0.35501 -1.47596e-16)
(-0.481766 -0.362942 -1.06928e-16)
(-0.512014 -0.371045 -6.92631e-17)
(-0.542618 -0.380246 -7.02916e-17)
(-0.571868 -0.392262 -8.41308e-17)
(-0.597626 -0.409503 -1.34217e-16)
(-0.617841 -0.434816 -1.62946e-16)