/*--------------------------------*- C++ -*----------------------------------*\
  =========                 |
  \\      /  F ield         | OpenFOAM: The Open Source CFD Toolbox
   \\    /   O peration     | Website:  https://openfoam.org
    \\  /    A nd           | Version:  13
     \\/     M anipulation  |
\*---------------------------------------------------------------------------*/
FoamFile
{
    format      ascii;
    class       surfaceVectorField;
    location    "0.0007";
    object      Uf;
}
// * * * * * * * * * * * * * * * * * * * * * * * * * * * * * * * * * * * * * //

dimensions      [0 1 -1 0 0 0 0];

internalField   nonuniform List<vector> 
3252
(
(0.344761 -0.00312604 7.1342e-19)
(0.329461 -0.00247782 1.8373e-18)
(0.390769 -0.00651156 -9.59205e-18)
(0.358417 -0.00774804 1.98546e-18)
(0.471515 -0.0101784 6.64536e-18)
(0.421823 -0.0135983 2.24621e-18)
(0.588959 -0.0135298 4.72266e-17)
(0.520668 -0.0197786 6.11924e-17)
(0.735111 -0.0152722 3.7619e-17)
(0.657838 -0.0246141 6.35063e-17)
(0.886546 -0.0130975 1.36445e-17)
(0.811238 -0.0255253 6.19718e-18)
(0.990787 -0.00596092 1.6762e-17)
(0.961088 -0.0175454 1.49972e-17)
(1.01834 -0.00143147 1.3404e-17)
(0.342916 -0.00812805 3.90798e-18)
(0.326717 -0.00495981 -1.61678e-18)
(0.388607 -0.0169691 2.1629e-17)
(0.355476 -0.0154162 6.68414e-18)
(0.469011 -0.0265568 7.35092e-17)
(0.418692 -0.0271101 3.73643e-17)
(0.586631 -0.0354405 8.75541e-17)
(0.517811 -0.0396015 1.02001e-16)
(0.735385 -0.0400736 3.02078e-17)
(0.656208 -0.0498857 5.90757e-17)
(0.888759 -0.0344849 5.51035e-18)
(0.812205 -0.0515405 6.50411e-18)
(0.995519 -0.0156004 1.0017e-17)
(0.964046 -0.0357295 -2.31496e-17)
(1.01976 -0.00176092 -1.6699e-17)
(0.339319 -0.0128766 8.84515e-19)
(0.322361 -0.00740792 -2.60761e-18)
(0.3847 -0.0269011 2.24986e-17)
(0.350795 -0.0230152 3.87568e-18)
(0.464974 -0.0422712 6.50905e-17)
(0.413627 -0.0406046 2.33504e-17)
(0.583429 -0.0568617 7.21183e-17)
(0.512995 -0.0596489 7.55286e-17)
(0.735015 -0.0645348 3.58645e-17)
(0.653441 -0.075806 3.52122e-17)
(0.891706 -0.0554847 -2.49028e-17)
(0.81379 -0.0783782 -1.00892e-17)
(0.999296 -0.024441 -5.61394e-17)
(0.969158 -0.0540112 -9.15034e-17)
(1.02242 -0.00135925 -6.19146e-17)
(0.333916 -0.0177941 3.52884e-19)
(0.316291 -0.00980535 -2.51625e-18)
(0.378842 -0.037269 3.63954e-18)
(0.344247 -0.0305017 8.93362e-19)
(0.458931 -0.0588811 3.18721e-17)
(0.406439 -0.0540569 4.0657e-18)
(0.578659 -0.0798328 3.65709e-17)
(0.505973 -0.0800222 1.99894e-17)
(0.734232 -0.091065 -1.36147e-17)
(0.649306 -0.102706 -1.36073e-17)
(0.896187 -0.0780458 -7.98127e-17)
(0.816068 -0.106554 -5.15949e-17)
(1.00441 -0.0334064 -1.01064e-16)
(0.976823 -0.072407 -1.2295e-16)
(1.02663 0.000173339 -9.42484e-17)
(0.326713 -0.0226569 -2.07927e-18)
(0.308534 -0.012129 -3.21261e-18)
(0.370958 -0.0476338 1.21641e-18)
(0.335824 -0.0378137 -8.63925e-19)
(0.45066 -0.0757932 -9.58096e-18)
(0.397034 -0.067406 -2.30157e-18)
(0.571991 -0.103757 -3.31566e-17)
(0.496516 -0.100797 -3.76441e-17)
(0.733006 -0.119184 -5.32913e-17)
(0.643475 -0.130976 -5.36681e-17)
(0.902447 -0.101653 -9.53655e-17)
(0.81884 -0.136649 -5.75804e-17)
(1.0115 -0.0418945 -1.1802e-16)
(0.98708 -0.0910023 -1.14645e-16)
(1.03248 0.00334204 -1.0469e-16)
(0.317742 -0.027378 -1.9944e-18)
(0.29915 -0.0143511 -2.3903e-18)
(0.361012 -0.0578353 -4.57765e-18)
(0.325551 -0.044871 -2.76612e-18)
(0.439971 -0.092868 -3.10914e-17)
(0.385317 -0.0805499 -1.77375e-17)
(0.563061 -0.128701 -5.90299e-17)
(0.484302 -0.122002 -6.76503e-17)
(0.730948 -0.149216 -5.8122e-17)
(0.635311 -0.160983 -7.51323e-17)
(0.910189 -0.126505 -7.62001e-17)
(0.821007 -0.169258 -4.54389e-17)
(1.02058 -0.0496009 -1.0115e-16)
(0.998897 -0.109957 -7.75886e-17)
(1.0399 0.00862328 -9.09094e-17)
(0.307057 -0.0318946 -3.19569e-18)
(0.288221 -0.0164391 -1.49551e-18)
(0.348972 -0.067759 -1.62533e-17)
(0.313476 -0.0515701 -5.54564e-18)
(0.426611 -0.110032 -5.49658e-17)
(0.371183 -0.0933251 -2.96049e-17)
(0.551237 -0.154821 -8.44659e-17)
(0.468863 -0.14355 -8.68848e-17)
(0.726748 -0.181616 -6.25627e-17)
(0.623522 -0.19288 -8.26912e-17)
(0.917547 -0.153021 -4.59804e-17)
(0.819412 -0.204796 -3.44491e-17)
(1.03056 -0.0564675 -6.58062e-17)
(1.00862 -0.129659 -4.07461e-17)
(1.04825 0.0161696 -7.02196e-17)
(0.294734 -0.0361312 -3.86141e-18)
(0.27586 -0.0183553 -8.23103e-19)
(0.33481 -0.0772475 -1.89622e-17)
(0.299679 -0.0577784 -7.14149e-18)
(0.410238 -0.127103 -6.1685e-17)
(0.35452 -0.105477 -3.37477e-17)
(0.53538 -0.182037 -8.51258e-17)
(0.449571 -0.165122 -8.70742e-17)
(0.717304 -0.216546 -5.43638e-17)
(0.605795 -0.226217 -7.47633e-17)
(0.919485 -0.18169 -2.88046e-17)
(0.807999 -0.243083 -2.91131e-17)
(1.03805 -0.0629687 -4.33911e-17)
(1.00857 -0.150988 -1.81608e-17)
(1.05561 0.0251729 -4.98545e-17)
(0.280886 -0.0399932 -4.10836e-18)
(0.262214 -0.0200573 -2.81602e-19)
(0.318522 -0.0860697 -2.19904e-17)
(0.284281 -0.0633308 -6.67985e-18)
(0.390436 -0.143672 -5.90823e-17)
(0.335256 -0.116634 -3.87324e-17)
(0.513692 -0.209671 -7.65316e-17)
(0.425763 -0.185983 -7.87384e-17)
(0.697407 -0.253336 -4.93933e-17)
(0.578858 -0.259524 -6.53095e-17)
(0.907172 -0.212903 -1.82411e-17)
(0.778855 -0.282843 -2.51293e-17)
(1.03656 -0.0705617 -2.28544e-17)
(0.987687 -0.175514 -2.99307e-18)
(1.05847 0.0330251 -2.78697e-17)
(0.265668 -0.0433676 -2.82931e-18)
(0.247466 -0.0215007 -2.98534e-19)
(0.300164 -0.093924 -2.34489e-17)
(0.267468 -0.0680358 -5.38937e-18)
(0.3669 -0.159056 -5.83753e-17)
(0.313491 -0.126324 -3.8816e-17)
(0.484073 -0.236154 -6.73453e-17)
(0.397026 -0.204877 -6.94451e-17)
(0.661143 -0.289905 -4.08747e-17)
(0.539622 -0.290232 -5.12958e-17)
(0.870425 -0.246639 -9.70085e-18)
(0.725744 -0.321561 -1.73836e-17)
(1.01769 -0.0819803 -6.64031e-18)
(0.935776 -0.205293 8.01782e-18)
(1.05196 0.0348591 -1.2956e-17)
(0.24929 -0.0461342 -2.85909e-18)
(0.231836 -0.0226446 -6.19912e-19)
(0.279955 -0.100461 -2.07107e-17)
(0.249502 -0.0717095 -5.1417e-18)
(0.339704 -0.17225 -4.97415e-17)
(0.289693 -0.13405 -3.5544e-17)
(0.445259 -0.259238 -5.31581e-17)
(0.363603 -0.220188 -5.82546e-17)
(0.605 -0.32297 -2.75728e-17)
(0.48727 -0.315206 -4.00343e-17)
(0.803076 -0.282216 5.41084e-19)
(0.64815 -0.35604 -7.073e-18)
(0.97456 -0.10107 2.77436e-18)
(0.849385 -0.24206 1.65051e-17)
(1.0295 0.0240831 -2.12448e-18)
(0.232027 -0.0481926 -2.9032e-18)
(0.215561 -0.0234609 -5.59795e-19)
(0.258385 -0.105336 -1.99637e-17)
(0.230734 -0.0742416 -6.29976e-18)
(0.309576 -0.182112 -4.39694e-17)
(0.264744 -0.139403 -3.16295e-17)
(0.398191 -0.276456 -4.50067e-17)
(0.326772 -0.230443 -4.71947e-17)
(0.530838 -0.349144 -1.94026e-17)
(0.425014 -0.331756 -3.36219e-17)
(0.707228 -0.318057 9.06376e-18)
(0.552438 -0.383327 1.85729e-19)
(0.904348 -0.131326 1.25817e-17)
(0.73463 -0.28592 2.2964e-17)
(0.979226 -0.00638758 9.12516e-18)
(0.2142 -0.0494939 -3.97123e-18)
(0.198878 -0.0239468 -8.43187e-19)
(0.236175 -0.10834 -1.79374e-17)
(0.211612 -0.0756475 -7.39044e-18)
(0.278002 -0.187831 -3.47261e-17)
(0.239696 -0.142226 -2.62447e-17)
(0.346569 -0.285974 -3.56798e-17)
(0.288777 -0.234923 -3.82708e-17)
(0.446346 -0.366187 -1.39513e-17)
(0.359633 -0.338551 -2.82054e-17)
(0.592466 -0.351227 1.42118e-17)
(0.450152 -0.401175 6.97689e-19)
(0.805371 -0.172788 2.02398e-17)
(0.601872 -0.333392 2.55481e-17)
(0.883283 -0.0638565 2.33703e-17)
(0.196163 -0.050094 -4.26619e-18)
(0.182003 -0.0241371 -8.89284e-19)
(0.214108 -0.10957 -1.56686e-17)
(0.192602 -0.0760724 -7.17158e-18)
(0.246803 -0.189444 -2.97251e-17)
(0.215402 -0.142686 -2.16805e-17)
(0.295598 -0.287725 -3.07326e-17)
(0.252053 -0.23399 -3.17134e-17)
(0.362448 -0.373321 -1.35471e-17)
(0.29836 -0.336081 -2.5583e-17)
(0.469762 -0.381605 1.20812e-17)
(0.354225 -0.407383 -3.56911e-18)
(0.676102 -0.236045 2.8886e-17)
(0.463231 -0.377195 2.45579e-17)
(0.730244 -0.155876 2.57527e-17)
(0.178217 -0.050177 -3.78899e-18)
(0.165132 -0.0240964 -6.07183e-19)
(0.192703 -0.10944 -1.31535e-17)
(0.174095 -0.0757174 -6.03776e-18)
(0.21723 -0.187784 -2.35956e-17)
(0.192398 -0.141159 -1.67163e-17)
(0.24921 -0.283137 -2.65133e-17)
(0.218621 -0.228804 -2.60457e-17)
(0.288432 -0.370924 -1.56271e-17)
(0.246353 -0.326447 -2.42806e-17)
(0.353601 -0.405259 8.94861e-18)
(0.275351 -0.401449 -6.83716e-18)
(0.520909 -0.321736 2.12794e-17)
(0.342677 -0.406452 2.04254e-17)
(0.547493 -0.288314 2.16832e-17)
(0.961027 0.0322886 -1.83365e-15)
(0.976686 0.0373066 -2.85605e-15)
(0.89044 0.0428151 4.89293e-18)
(0.938064 0.0645538 -6.07873e-16)
(0.81137 0.0438913 1.93816e-15)
(0.844298 0.0695856 1.81661e-15)
(0.731621 0.0422633 1.54895e-15)
(0.770124 0.0676434 3.63399e-15)
(0.652829 0.039947 -3.28012e-15)
(0.688349 0.0644327 8.83759e-16)
(0.576312 0.0371476 -7.76094e-15)
(0.610266 0.0603308 -4.6677e-15)
(0.503116 0.034025 -9.06951e-15)
(0.534989 0.055644 -8.57075e-15)
(0.434158 0.0306949 -6.27342e-15)
(0.463734 0.0505434 -7.31631e-15)
(0.370173 0.0272781 -2.47298e-15)
(0.397259 0.0452187 -1.61672e-15)
(0.311681 0.0238895 -3.0272e-15)
(0.336187 0.039856 1.11553e-15)
(0.258974 0.0206316 -5.48512e-15)
(0.28089 0.034627 -1.30923e-15)
(0.21212 0.017589 -7.31699e-15)
(0.231513 0.0296789 -3.76715e-15)
(0.170977 0.0148269 -7.74342e-15)
(0.18798 0.025128 -6.69198e-15)
(0.135213 0.0123908 -4.65106e-15)
(0.150024 0.0210597 -5.39965e-15)
(0.104337 0.0103105 -1.72237e-15)
(0.117209 0.0175302 -7.66301e-16)
(0.0777136 0.00860808 1.03269e-15)
(0.0889621 0.0145745 1.71625e-16)
(0.0545489 0.00730876 7.61912e-15)
(0.0645777 0.0122266 4.45797e-15)
(0.0338517 0.00638723 1.25576e-14)
(0.0431159 0.0105328 1.06353e-14)
(0.0147682 0.00526038 6.84502e-15)
(0.0234936 0.00936366 1.23337e-14)
(0.00591798 0.00698059 9.78967e-16)
(0.960569 0.0778096 -1.64037e-15)
(0.976293 0.0726065 -1.49245e-15)
(0.888119 0.103032 1.46956e-15)
(0.935259 0.126968 1.53734e-16)
(0.808004 0.105337 3.89645e-15)
(0.839694 0.135572 3.22666e-15)
(0.726944 0.101455 3.4174e-15)
(0.763446 0.132096 3.19595e-15)
(0.647259 0.0957702 3.77215e-16)
(0.680233 0.125362 2.97195e-15)
(0.57009 0.0890119 -4.76826e-15)
(0.600997 0.11714 -6.53944e-16)
(0.496517 0.0814794 -6.23639e-15)
(0.52502 0.107777 -5.34349e-15)
(0.427449 0.0734558 -1.81249e-15)
(0.453482 0.0976447 -4.18339e-15)
(0.363596 0.0652307 3.11287e-15)
(0.387117 0.0871229 4.52108e-16)
(0.305441 0.0570811 4.47782e-15)
(0.326488 0.076582 3.4597e-15)
(0.253232 0.0492527 2.06281e-15)
(0.271899 0.0663556 3.60562e-15)
(0.206988 0.041949 -1.94305e-15)
(0.223418 0.0567238 8.0058e-16)
(0.166521 0.0353251 -3.45815e-15)
(0.180897 0.0479042 -2.58559e-15)
(0.131462 0.0294894 -7.72477e-16)
(0.144004 0.040052 -1.66294e-15)
(0.101288 0.0245107 1.87824e-15)
(0.112252 0.0332644 1.08721e-15)
(0.0753432 0.0204404 4.19238e-15)
(0.0850365 0.0275985 1.73736e-15)
(0.0528266 0.0173389 7.29166e-15)
(0.0616302 0.02311 4.43081e-15)
(0.0327449 0.0151457 9.79049e-15)
(0.0410901 0.0198823 7.73313e-15)
(0.014236 0.0124391 6.63472e-15)
(0.022352 0.0176704 1.18654e-14)
(0.0056152 0.0131153 3.04567e-15)
(0.958325 0.124145 3.62145e-16)
(0.975924 0.108434 4.03095e-16)
(0.883205 0.16384 1.87155e-15)
(0.930339 0.188062 1.46022e-15)
(0.800606 0.166939 2.45617e-15)
(0.831953 0.199842 1.69458e-15)
(0.717487 0.160434 2.72045e-15)
(0.752886 0.194243 1.03461e-15)
(0.636181 0.150933 2.09088e-15)
(0.667233 0.183731 2.01594e-15)
(0.55789 0.139809 -9.56959e-16)
(0.586423 0.171097 1.07563e-15)
(0.483727 0.127504 -3.16103e-15)
(0.509459 0.156814 -1.21446e-15)
(0.414578 0.114503 -2.01318e-15)
(0.437603 0.141495 -2.11413e-15)
(0.351097 0.101281 6.22079e-16)
(0.371515 0.12572 -2.20042e-16)
(0.293688 0.0882803 2.48734e-15)
(0.311667 0.110048 1.49274e-15)
(0.242504 0.0758821 2.41164e-15)
(0.258245 0.0949612 2.63099e-15)
(0.197472 0.0643928 3.31196e-16)
(0.211194 0.0808551 9.56776e-16)
(0.158317 0.054038 -6.70687e-16)
(0.170255 0.0680256 -7.7742e-16)
(0.124598 0.0449663 1.93918e-16)
(0.135001 0.0566732 -3.69116e-16)
(0.0957408 0.0372652 8.85863e-16)
(0.104872 0.0469136 5.31656e-16)
(0.0710551 0.0309958 1.80997e-15)
(0.0792117 0.0388058 7.36543e-16)
(0.0497279 0.0262353 4.68434e-15)
(0.0572696 0.0324085 1.35355e-15)
(0.0307782 0.0228817 9.72963e-15)
(0.0381075 0.0278222 3.57023e-15)
(0.0133687 0.0187673 8.5336e-15)
(0.0206905 0.0246854 7.83427e-15)
(0.00519017 0.0182923 1.74876e-15)
(0.95512 0.172076 1.49454e-15)
(0.975454 0.145539 1.0857e-15)
(0.875963 0.225598 1.2694e-15)
(0.923487 0.249372 1.23253e-15)
(0.789737 0.228929 2.50967e-16)
(0.821198 0.263517 -4.0696e-17)
(0.703644 0.219269 2.7424e-16)
(0.738315 0.255093 -6.97505e-16)
(0.620057 0.205508 1.00095e-15)
(0.649454 0.240261 -3.64967e-17)
(0.540255 0.189574 8.88522e-16)
(0.566686 0.222695 7.00222e-16)
(0.465372 0.172109 -1.03747e-16)
(0.488572 0.203045 8.04138e-16)
(0.396246 0.153832 -3.29439e-16)
(0.416496 0.182213 -1.44345e-16)
(0.333433 0.135418 6.19338e-16)
(0.350976 0.161002 2.70708e-16)
(0.277205 0.117475 1.6019e-15)
(0.292338 0.140155 1.06504e-15)
(0.227574 0.10051 1.18769e-15)
(0.240595 0.120294 1.338e-15)
(0.184324 0.0849154 -1.27319e-16)
(0.195526 0.1019 -8.99664e-17)
(0.147059 0.0709635 -4.80345e-16)
(0.156722 0.085318 -7.31393e-16)
(0.115239 0.0588215 -5.16146e-17)
(0.123633 0.0707608 -4.77548e-16)
(0.0882178 0.0485741 3.70611e-16)
(0.0956095 0.0583334 5.66299e-16)
(0.0652668 0.0402735 2.44593e-16)
(0.07194 0.0480719 1.55331e-15)
(0.0455604 0.0339963 1.28364e-16)
(0.0518494 0.0400166 1.82178e-15)
(0.0281375 0.0295871 1.469e-15)
(0.0344128 0.0342641 1.33656e-15)
(0.0121914 0.0242229 1.04656e-15)
(0.0186356 0.0303401 1.9174e-15)
(0.00465689 0.0224338 -2.70749e-16)
(0.950746 0.221549 8.2009e-16)
(0.974606 0.184892 5.6128e-16)
(0.866201 0.288084 -5.36876e-17)
(0.914469 0.312033 1.32301e-17)
(0.77525 0.290791 -9.77521e-16)
(0.807184 0.327485 -9.71617e-16)
(0.685374 0.277207 -1.02078e-15)
(0.719496 0.315316 -1.24283e-15)
(0.599 0.258509 -3.51148e-16)
(0.626866 0.29539 -8.00141e-16)
(0.517479 0.237143 6.13844e-16)
(0.541913 0.272163 1.7401e-16)
(0.441939 0.214016 7.81156e-16)
(0.462685 0.24654 8.24968e-16)
(0.373109 0.19012 4.48508e-16)
(0.390671 0.219765 1.7813e-16)
(0.311387 0.166338 7.01945e-16)
(0.326158 0.192874 -1.2623e-16)
(0.256853 0.143434 7.95865e-16)
(0.269259 0.166792 2.33514e-17)
(0.209321 0.122015 8.59942e-17)
(0.219756 0.142246 -1.89515e-16)
(0.168399 0.102523 -6.82539e-16)
(0.177217 0.119771 -4.41639e-16)
(0.133536 0.0852438 -7.33317e-16)
(0.141054 0.0997189 -4.29549e-16)
(0.10408 0.0703285 1.21387e-16)
(0.11058 0.0822772 -3.28071e-16)
(0.0793061 0.0578299 1.73148e-15)
(0.0850519 0.0675077 5.55605e-16)
(0.0584468 0.0477672 3.12663e-15)
(0.0637021 0.0553971 2.27427e-15)
(0.0406714 0.0401944 3.03987e-15)
(0.0457397 0.0459459 3.40969e-15)
(0.0250515 0.0348944 1.77448e-15)
(0.0302651 0.039226 2.63379e-15)
(0.0108234 0.0285087 6.40562e-16)
(0.0163388 0.0346552 -6.79288e-17)
(0.00406609 0.0255635 -1.55894e-15)
(0.944963 0.273369 -2.24199e-16)
(0.973194 0.227538 -8.77298e-17)
(0.853596 0.351882 -8.78984e-16)
(0.902938 0.377023 -9.97267e-16)
(0.756866 0.352849 -1.22983e-15)
(0.789523 0.392408 -1.31913e-15)
(0.662508 0.334378 -1.0302e-15)
(0.696086 0.375341 -1.10544e-15)
(0.573005 0.309884 -2.93241e-16)
(0.599309 0.349315 -3.50716e-16)
(0.489756 0.282336 3.75258e-16)
(0.512129 0.319521 4.45577e-16)
(0.413814 0.252975 2.38286e-16)
(0.432037 0.287208 3.53709e-16)
(0.34572 0.223097 -3.84086e-16)
(0.36056 0.25401 -5.91697e-16)
(0.285632 0.193789 -7.9502e-16)
(0.297638 0.221198 -9.75908e-16)
(0.23337 0.165948 -9.43584e-16)
(0.2431 0.189847 -1.09807e-15)
(0.188504 0.14024 -7.05921e-16)
(0.196434 0.160753 -9.32323e-16)
(0.150427 0.117113 -1.92968e-16)
(0.156963 0.134451 -5.25694e-16)
(0.118419 0.0968239 -3.20248e-17)
(0.123903 0.111251 -1.70199e-16)
(0.0917075 0.0794693 9.02897e-17)
(0.0964232 0.0912755 -2.34655e-16)
(0.0694956 0.0650414 1.07256e-15)
(0.0736916 0.0745095 1.07897e-16)
(0.0509831 0.053503 2.54152e-15)
(0.0548974 0.0608655 1.31285e-15)
(0.0353467 0.0448661 3.01795e-15)
(0.0392452 0.0502847 2.16652e-15)
(0.0217041 0.0388448 8.48418e-16)
(0.0258757 0.0427968 2.1333e-15)
(0.00934645 0.0316652 -2.21589e-15)
(0.0139194 0.037719 -1.01008e-15)
(0.00344727 0.0277545 -2.53993e-15)
(0.937488 0.328542 -8.31187e-16)
(0.970995 0.274574 -3.64905e-16)
(0.837721 0.417763 -1.42363e-15)
(0.888439 0.445239 -1.39405e-15)
(0.734153 0.415573 -1.1991e-15)
(0.767672 0.458808 -1.22124e-15)
(0.634724 0.391012 -4.47914e-16)
(0.667614 0.435401 -6.49385e-16)
(0.541933 0.359663 3.64331e-16)
(0.56651 0.402037 3.05701e-16)
(0.457167 0.325055 4.25005e-16)
(0.477279 0.364612 7.03083e-16)
(0.381289 0.288831 -4.49362e-16)
(0.396815 0.324826 2.98444e-17)
(0.314543 0.252607 -1.16553e-15)
(0.326554 0.284731 -9.94984e-16)
(0.256753 0.217653 -1.27005e-15)
(0.265952 0.245804 -9.8625e-16)
(0.207408 0.184951 -1.0878e-15)
(0.214477 0.209227 -9.1277e-16)
(0.165784 0.155173 -7.58769e-16)
(0.171272 0.175792 -7.12596e-16)
(0.131038 0.128722 -5.05021e-16)
(0.135387 0.145979 -9.75183e-16)
(0.102279 0.105774 -3.66945e-16)
(0.105836 0.120003 -1.18731e-15)
(0.0786168 0.0863369 -2.18948e-16)
(0.0816578 0.097875 -1.12079e-15)
(0.059195 0.0703138 3.36554e-16)
(0.0619437 0.079474 -4.15419e-16)
(0.0431962 0.0575905 9.4473e-16)
(0.0458566 0.064617 3.44979e-16)
(0.0298196 0.0481201 1.30654e-15)
(0.0326147 0.0531707 7.2131e-16)
(0.0182444 0.0415445 3.39298e-16)
(0.0214152 0.0451091 8.19193e-16)
(0.00782717 0.0337874 -1.31845e-15)
(0.0114726 0.039659 -7.04536e-16)
(0.00282503 0.0291091 -8.55821e-16)
(0.927933 0.388074 -9.02518e-16)
(0.967699 0.327214 -3.5413e-16)
(0.817997 0.486387 -1.199e-15)
(0.87036 0.517534 -1.08624e-15)
(0.706533 0.479258 -6.91198e-16)
(0.740922 0.527075 -7.87728e-16)
(0.601586 0.447122 7.73094e-17)
(0.633492 0.495544 -1.61988e-16)
(0.505583 0.407666 6.32364e-16)
(0.528131 0.45336 5.541e-16)
(0.419769 0.365023 3.22061e-16)
(0.437305 0.407113 6.89932e-16)
(0.344656 0.3213 -4.96238e-16)
(0.357235 0.35906 -5.44391e-17)
(0.280048 0.278421 -8.2207e-16)
(0.289073 0.311656 -5.57847e-16)
(0.225329 0.237782 -6.41658e-16)
(0.231652 0.266522 -4.04066e-16)
(0.179587 0.200385 -5.5091e-16)
(0.184002 0.224864 -2.89746e-16)
(0.141774 0.166836 -9.21285e-16)
(0.14488 0.187393 -4.44088e-16)
(0.110803 0.137429 -1.63323e-15)
(0.113057 0.154457 -1.22033e-15)
(0.0856175 0.112215 -1.91442e-15)
(0.0873591 0.12612 -2.05968e-15)
(0.065231 0.0910749 -1.31042e-15)
(0.0667109 0.102247 -2.02915e-15)
(0.0487462 0.0737987 -4.07429e-16)
(0.0501549 0.08258 -1.21678e-15)
(0.0353491 0.0601798 1.29417e-16)
(0.0368503 0.0668271 -5.27085e-16)
(0.0242791 0.0501008 2.51232e-16)
(0.0260481 0.0547701 -6.55037e-17)
(0.0147915 0.0431312 -1.87337e-16)
(0.0170182 0.046319 -3.41113e-16)
(0.00631816 0.0349965 -2.58258e-16)
(0.00907234 0.0406229 -6.24444e-16)
(0.00221821 0.0297437 5.8104e-16)
(0.915771 0.453026 -5.2857e-16)
(0.962889 0.386855 -2.14997e-16)
(0.793671 0.55832 -6.9129e-16)
(0.847894 0.594728 -4.21629e-16)
(0.67329 0.544023 -2.78667e-16)
(0.708389 0.597448 -2.89546e-16)
(0.562593 0.502519 2.97111e-16)
(0.593048 0.555613 8.47096e-17)
(0.463754 0.453528 6.09667e-16)
(0.483832 0.502889 3.76238e-16)
(0.377666 0.401832 3.26907e-16)
(0.392205 0.446555 4.54332e-16)
(0.304263 0.350034 -1.14881e-16)
(0.313592 0.389498 6.68981e-17)
(0.242748 0.300297 -1.56635e-16)
(0.248607 0.334494 -4.01438e-17)
(0.191954 0.254059 -6.63311e-17)
(0.195327 0.283203 7.59603e-17)
(0.150517 0.212244 -1.87742e-16)
(0.152287 0.236743 -5.3581e-17)
(0.117051 0.175311 -7.32936e-16)
(0.117838 0.195641 -3.58209e-16)
(0.0902338 0.143378 -1.63152e-15)
(0.0904918 0.160041 -9.94558e-16)
(0.06887 0.116323 -2.1696e-15)
(0.06891 0.129799 -1.75487e-15)
(0.0519052 0.0938716 -1.93715e-15)
(0.0519407 0.1046 -1.89253e-15)
(0.0384282 0.0756831 -1.32963e-15)
(0.0386073 0.0840347 -1.44437e-15)
(0.0276513 0.0614488 -7.12724e-16)
(0.028092 0.0676913 -9.29855e-16)
(0.0188726 0.0509738 -6.34212e-16)
(0.0196992 0.0552627 -5.20363e-16)
(0.0114367 0.0437596 -7.60994e-16)
(0.0127865 0.0465918 -5.56998e-16)
(0.00485897 0.0354258 1.83346e-16)
(0.00677332 0.0407645 -8.65109e-18)
(0.00164043 0.0297775 1.14024e-15)
(0.900302 0.524563 -1.12885e-16)
(0.955995 0.455143 -9.75554e-17)
(0.763787 0.634043 -3.75996e-17)
(0.81999 0.677614 1.29755e-16)
(0.633579 0.609807 5.91026e-17)
(0.669003 0.669979 1.94964e-16)
(0.517214 0.556814 1.61671e-16)
(0.545553 0.615218 1.50274e-16)
(0.416299 0.496724 2.28361e-16)
(0.433315 0.550026 3.11556e-17)
(0.331051 0.434985 2.04247e-16)
(0.34208 0.482342 1.69518e-16)
(0.260546 0.374657 1.37704e-16)
(0.266286 0.415681 1.90215e-16)
(0.203214 0.31802 1.82435e-16)
(0.205722 0.352971 1.9505e-16)
(0.157244 0.266421 8.74901e-17)
(0.157601 0.295754 1.80395e-16)
(0.120791 0.22059 -2.17792e-16)
(0.119938 0.244913 -2.25175e-16)
(0.0921432 0.180744 -6.11063e-16)
(0.0906908 0.200687 -5.5043e-16)
(0.0697802 0.146764 -1.11605e-15)
(0.0681497 0.162937 -8.23399e-16)
(0.0524036 0.118314 -1.49109e-15)
(0.0508611 0.131272 -1.20327e-15)
(0.0389281 0.0949446 -1.41997e-15)
(0.037638 0.105169 -1.2253e-15)
(0.0284601 0.0761733 -1.06025e-15)
(0.027521 0.08406 -7.03373e-16)
(0.0202627 0.0615866 -7.44229e-16)
(0.0197429 0.0674115 -2.06415e-16)
(0.0137098 0.0509113 -4.46846e-16)
(0.013681 0.0548294 -3.56449e-16)
(0.00824672 0.0435873 1.63801e-16)
(0.00879308 0.0460907 -1.42841e-16)
(0.00347777 0.0352095 9.1015e-16)
(0.00461359 0.0402334 8.02271e-16)
(0.00110088 0.029325 9.19203e-16)
(0.880578 0.60399 1.33505e-16)
(0.946227 0.534067 4.6613e-20)
(0.727149 0.713918 3.51337e-16)
(0.785263 0.766924 4.14725e-16)
(0.586438 0.676326 2.81376e-16)
(0.621492 0.74448 4.56828e-16)
(0.464936 0.609399 2.53525e-17)
(0.490258 0.673699 1.27704e-16)
(0.363172 0.536579 -2.38806e-17)
(0.376387 0.593978 -1.50725e-16)
(0.280242 0.463921 1.56312e-16)
(0.287184 0.513792 -2.46183e-17)
(0.214045 0.394804 2.44785e-16)
(0.215852 0.437152 1.69956e-16)
(0.162075 0.331428 1.93012e-16)
(0.161064 0.366867 1.85959e-16)
(0.121822 0.274878 -1.19674e-16)
(0.119126 0.304154 3.57982e-17)
(0.0909723 0.225553 -5.43703e-16)
(0.0875426 0.2495 -4.24451e-16)
(0.0675294 0.183338 -7.54196e-16)
(0.0639312 0.202741 -6.64226e-16)
(0.0498275 0.147823 -9.08893e-16)
(0.0464258 0.163398 -6.99209e-16)
(0.0365171 0.118433 -9.50637e-16)
(0.0335158 0.130798 -7.98283e-16)
(0.0265244 0.0945265 -5.40293e-16)
(0.0240286 0.104202 -6.589e-16)
(0.019006 0.0754817 1.11982e-16)
(0.0170591 0.0828811 2.43967e-17)
(0.0132987 0.0607824 1.61374e-16)
(0.0119173 0.0661867 5.25172e-16)
(0.00886772 0.0500812 -6.59008e-17)
(0.00807049 0.0536441 -1.84983e-16)
(0.00526671 0.0427659 4.7069e-16)
(0.00508566 0.0449698 -1.69563e-16)
(0.00219312 0.034475 8.11643e-16)
(0.00261727 0.0391693 7.05623e-16)
(0.000605143 0.0284915 4.91129e-16)
(0.855282 0.69278 2.678e-16)
(0.932453 0.626107 1.13435e-18)
(0.682275 0.798129 5.15079e-16)
(0.741877 0.863253 5.43476e-16)
(0.530803 0.743012 3.08458e-16)
(0.564393 0.820444 5.44509e-16)
(0.405322 0.659425 -4.15179e-17)
(0.426462 0.730088 9.99527e-17)
(0.304486 0.572287 -1.50404e-16)
(0.313023 0.633774 -2.07736e-16)
(0.225714 0.488053 -1.01038e-17)
(0.227954 0.540176 -1.45259e-16)
(0.165405 0.410158 1.14303e-16)
(0.162958 0.4535 5.09391e-17)
(0.120009 0.340439 3.56626e-17)
(0.115347 0.376048 1.12328e-16)
(0.0863096 0.279519 -2.56939e-16)
(0.0805588 0.308478 -9.62906e-17)
(0.0615834 0.22733 -5.40681e-16)
(0.0556512 0.250703 -4.65761e-16)
(0.0436246 0.183345 -6.12368e-16)
(0.0379929 0.202069 -5.19029e-16)
(0.0306916 0.146826 -5.95124e-16)
(0.0256454 0.161708 -4.2307e-16)
(0.0214425 0.116938 -5.20509e-16)
(0.0171089 0.128652 -4.32972e-16)
(0.0148594 0.0928537 -1.1789e-16)
(0.0112766 0.101949 -4.15203e-16)
(0.01018 0.0738166 4.20267e-16)
(0.00733306 0.0807169 1.72482e-16)
(0.00683577 0.059217 1.90981e-16)
(0.00468852 0.0642048 4.70778e-16)
(0.00439497 0.0486409 -2.83158e-16)
(0.00291413 0.0518673 -4.35185e-16)
(0.00252423 0.0414352 6.03052e-17)
(0.00169157 0.0433688 -7.2216e-16)
(0.00101575 0.0333381 3.99984e-16)
(0.000797139 0.0376971 7.9177e-17)
(0.000155911 0.0273701 2.23643e-16)
(0.822554 0.792616 2.63886e-16)
(0.912994 0.734433 4.80596e-18)
(0.627361 0.886576 5.71326e-16)
(0.687371 0.966902 5.73507e-16)
(0.465557 0.808957 3.43166e-16)
(0.49609 0.89695 5.32342e-16)
(0.338092 0.705799 -6.0136e-17)
(0.353585 0.783072 1.38404e-16)
(0.240558 0.602954 -2.02292e-16)
(0.243443 0.66831 -1.70359e-16)
(0.168113 0.506824 -8.56971e-17)
(0.165044 0.560779 -1.27027e-16)
(0.115371 0.420487 4.96389e-17)
(0.108401 0.464405 -8.6281e-18)
(0.0777183 0.345069 -1.44299e-17)
(0.0693279 0.380496 7.27115e-17)
(0.0512989 0.280522 -2.97255e-16)
(0.0425377 0.3089 -1.26134e-16)
(0.0330895 0.226182 -4.45772e-16)
(0.024759 0.248795 -3.29137e-16)
(0.0207741 0.181058 -3.39067e-16)
(0.0132384 0.198978 -3.02641e-16)
(0.0126181 0.144056 -2.69768e-16)
(0.00606124 0.15817 -1.70391e-16)
(0.00734829 0.114091 -3.33189e-16)
(0.00180959 0.125112 -2.77102e-16)
(0.00404468 0.0901562 -1.35073e-16)
(-0.000509594 0.0986518 -3.61635e-16)
(0.00205418 0.0713747 2.23027e-16)
(-0.00159058 0.0777731 1.12104e-16)
(0.000918772 0.0570568 -1.29957e-16)
(-0.00190438 0.0616377 2.77806e-16)
(0.000318099 0.0467323 -8.53133e-16)
(-0.00176653 0.049643 -6.11499e-16)
(3.65995e-05 0.0397198 -6.96888e-16)
(-0.00137824 0.0414099 -1.1016e-15)
(-5.07344e-05 0.0319014 -8.63167e-17)
(-0.00084278 0.035928 -3.94978e-16)
(-0.000246536 0.0260408 1.29225e-16)
(0.77969 0.905422 2.99646e-16)
(0.88532 0.863221 7.33137e-17)
(0.560275 0.978725 5.36297e-16)
(0.61843 1.07758 5.70589e-16)
(0.389597 0.87284 3.35009e-16)
(0.414925 0.972572 4.6204e-16)
(0.263211 0.747194 3.11872e-17)
(0.271276 0.83098 1.42091e-16)
(0.171956 0.627653 -9.88588e-17)
(0.168179 0.696415 -1.04278e-16)
(0.108257 0.519756 -5.30562e-17)
(0.0993221 0.574966 -8.81488e-17)
(0.0647604 0.425681 1.39862e-17)
(0.053083 0.46969 -7.58849e-17)
(0.0359021 0.34545 -3.47809e-17)
(0.023774 0.380324 -4.05309e-18)
(0.0173328 0.27815 -1.5831e-16)
(0.00565485 0.30569 -1.01392e-16)
(0.00588514 0.222426 -1.93737e-16)
(-0.00471111 0.244111 -9.51714e-17)
(-0.000751531 0.176793 -1.42043e-16)
(-0.0100473 0.193808 -4.24583e-17)
(-0.0042171 0.139808 -1.78406e-16)
(-0.0121454 0.153097 -1.83481e-17)
(-0.00565803 0.110149 -3.04822e-16)
(-0.012274 0.12045 -2.0861e-16)
(-0.00585849 0.0866507 -1.23433e-16)
(-0.0112703 0.0945391 -3.26091e-16)
(-0.00534044 0.0683361 1.65515e-16)
(-0.00968273 0.0742372 2.87421e-17)
(-0.00443921 0.0544507 -1.85907e-16)
(-0.00785012 0.0586382 1.96748e-16)
(-0.00335948 0.0444805 -8.51086e-16)
(-0.0059694 0.0470965 -4.39812e-16)
(-0.00220685 0.0377274 -8.09344e-16)
(-0.00412562 0.0392015 -8.24537e-16)
(-0.00100509 0.0302518 -1.86179e-16)
(-0.00230524 0.0339506 -4.18527e-16)
(-0.000603339 0.0245713 6.40202e-17)
(0.722699 1.03336 3.31216e-16)
(0.845577 1.01811 1.24611e-16)
(0.47862 1.07336 4.99439e-16)
(0.530569 1.19393 5.51713e-16)
(0.301941 0.932889 2.76687e-16)
(0.319418 1.04531 3.70456e-16)
(0.18099 0.782088 1.16959e-17)
(0.17952 0.871788 4.79797e-17)
(0.0995217 0.645503 -9.40057e-17)
(0.0881446 0.716947 -1.38188e-16)
(0.0471085 0.526511 -1.09529e-16)
(0.0318568 0.582255 -1.12235e-16)
(0.0144072 0.425777 -9.20935e-17)
(-0.00203536 0.469358 -8.99957e-17)
(-0.00479285 0.341825 -6.79079e-17)
(-0.0205792 0.375777 1.69994e-17)
(-0.0151205 0.272735 -4.18163e-17)
(-0.0295698 0.299201 6.29565e-17)
(-0.0197173 0.216411 4.79891e-17)
(-0.0324204 0.237024 1.21742e-16)
(-0.0207566 0.170878 7.43884e-17)
(-0.0316584 0.186907 1.79339e-16)
(-0.0196996 0.134369 -4.8916e-17)
(-0.0288608 0.146792 1.83538e-16)
(-0.0175148 0.105352 -2.29953e-16)
(-0.0250875 0.114919 -2.12304e-17)
(-0.0148209 0.0825352 -1.7875e-16)
(-0.020987 0.0898174 -2.2257e-16)
(-0.011993 0.0648609 6.00346e-17)
(-0.0169445 0.0702752 -7.86987e-17)
(-0.00923671 0.0515284 -4.95825e-17)
(-0.0131589 0.0553388 1.32024e-16)
(-0.00664013 0.0419925 -4.19038e-16)
(-0.00970701 0.0443345 -1.47815e-16)
(-0.00419889 0.0355488 -4.51714e-16)
(-0.00656184 0.0368308 -3.29531e-16)
(-0.00185203 0.0284621 -1.77432e-16)
(-0.00359782 0.031844 -2.6545e-16)
(-0.000916589 0.0230166 -1.0032e-16)
(0.645849 1.17897 3.3454e-16)
(0.787897 1.2067 1.37204e-16)
(0.37984 1.16831 4.28243e-16)
(0.417623 1.31285 5.24268e-16)
(0.201898 0.986869 1.51429e-16)
(0.20859 1.11255 2.64724e-16)
(0.0921407 0.808855 -9.52643e-17)
(0.0787559 0.903222 -7.20341e-17)
(0.0243561 0.655761 -1.55038e-16)
(0.00464413 0.728897 -2.03095e-16)
(-0.0142895 0.526926 -9.35902e-17)
(-0.0361346 0.58239 -1.41773e-16)
(-0.0347898 0.420967 1.39294e-17)
(-0.0559816 0.463559 -1.02301e-17)
(-0.043729 0.334548 1.40697e-16)
(-0.0630593 0.367236 1.61553e-16)
(-0.0456645 0.264674 2.17574e-16)
(-0.0627093 0.289868 2.98943e-16)
(-0.0434862 0.20851 2.46034e-16)
(-0.058121 0.227941 3.52084e-16)
(-0.0391183 0.163638 2.82111e-16)
(-0.0514666 0.178626 4.27441e-16)
(-0.0337758 0.128009 2.07189e-16)
(-0.0440317 0.139545 5.00366e-16)
(-0.0282096 0.0999215 -1.66455e-17)
(-0.0366217 0.108752 2.95161e-16)
(-0.0228524 0.077985 -1.26721e-16)
(-0.0296739 0.0846698 -3.73792e-17)
(-0.0179227 0.0610879 -8.4743e-18)
(-0.0234001 0.0660302 -1.16263e-16)
(-0.0134949 0.0483998 3.62905e-17)
(-0.0178568 0.0518513 5.38746e-17)
(-0.00954218 0.0393573 -6.5712e-17)
(-0.0130025 0.0414455 2.29709e-17)
(-0.00595661 0.0332595 -1.53483e-16)
(-0.00870436 0.0343706 4.9547e-17)
(-0.0025974 0.0265927 -1.90952e-16)
(-0.00473109 0.0296705 -3.20208e-17)
(-0.00118929 0.021421 -2.06965e-16)
(0.541172 1.34449 3.17897e-16)
(0.704629 1.43911 1.5797e-16)
(0.260793 1.26002 3.67417e-16)
(0.271284 1.42918 4.678e-16)
(0.0894138 1.03214 5.05211e-17)
(0.0824059 1.17064 1.3779e-16)
(-0.00298582 0.825808 -1.75006e-16)
(-0.0300168 0.923405 -1.83464e-16)
(-0.0520867 0.657767 -1.8987e-16)
(-0.0806679 0.731037 -2.5496e-16)
(-0.0746964 0.521067 -6.17968e-17)
(-0.103286 0.575365 -1.07089e-16)
(-0.0820629 0.411611 1.30646e-16)
(-0.10783 0.452705 9.61281e-17)
(-0.0804438 0.324066 3.11989e-16)
(-0.103095 0.355191 2.76628e-16)
(-0.0740207 0.254398 4.26029e-16)
(-0.0934447 0.278153 4.29257e-16)
(-0.0652777 0.199101 5.23524e-16)
(-0.0816565 0.217266 5.39566e-16)
(-0.0557793 0.155385 6.33487e-16)
(-0.0694139 0.169298 7.03838e-16)
(-0.0464388 0.120977 5.80521e-16)
(-0.0576566 0.131619 8.17956e-16)
(-0.0377622 0.0940517 2.71568e-16)
(-0.0469039 0.102154 6.39606e-16)
(-0.0299837 0.0731515 -2.85229e-17)