/*--------------------------------*- C++ -*----------------------------------*\
  =========                 |
  \\      /  F ield         | OpenFOAM: The Open Source CFD Toolbox
   \\    /   O peration     | Website:  https://openfoam.org
    \\  /    A nd           | Version:  13
     \\/     M anipulation  |
\*---------------------------------------------------------------------------*/
FoamFile
{
    format      ascii;
    class       volScalarField;
    location    "1.3";
    object      alpha.air;
}
// * * * * * * * * * * * * * * * * * * * * * * * * * * * * * * * * * * * * * //

dimensions      [];

internalField   nonuniform List<scalar> 
2268
(
1.26794e-13
9.64175e-14
5.91494e-14
3.5502e-14
1.89484e-14
7.93878e-15
2.7428e-15
1.19351e-15
7.92059e-16
7.16696e-16
7.40638e-16
7.62846e-16
6.79584e-16
6.21073e-16
6.30604e-16
7.11513e-16
8.92696e-16
1.91542e-15
6.79046e-15
2.93138e-14
4.6508e-14
1.39079e-14
2.2991e-15
8.59313e-13
7.86874e-13
5.77672e-13
4.0013e-13
2.68972e-13
1.37445e-13
5.21659e-14
2.06241e-14
1.13891e-14
9.07617e-15
8.86604e-15
8.86248e-15
8.56031e-15
8.36226e-15
8.53029e-15
9.18565e-15
1.09187e-14
2.76976e-14
1.06984e-13
2.84981e-13
5.89865e-13
4.76562e-13
5.11985e-14
3.75687e-12
3.68389e-12
2.89654e-12
2.08567e-12
1.65629e-12
1.01644e-12
4.65472e-13
1.88787e-13
9.95186e-14
7.4066e-14
6.34805e-14
5.87518e-14
5.35296e-14
5.23822e-14
5.46058e-14
6.88271e-14
7.14349e-14
1.387e-13
5.03762e-13
1.56348e-12
2.85201e-12
3.62723e-12
1.24574e-12
1.1257e-11
1.09905e-11
7.6516e-12
5.79242e-12
4.89402e-12
3.37655e-12
1.89517e-12
8.66269e-13
4.59613e-13
3.4681e-13
2.70346e-13
2.11892e-13
2.27344e-13
2.36648e-13
2.78031e-13
3.13419e-13
2.25982e-13
2.83721e-13
8.63954e-13
1.47017e-12
3.16959e-12
5.78478e-12
7.89692e-12
2.72453e-11
2.71428e-11
2.32954e-11
1.83533e-11
1.32072e-11
9.52088e-12
6.78173e-12
4.4079e-12
2.63127e-12
1.55393e-12
1.01551e-12
9.56584e-13
1.54452e-12
2.88848e-12
2.77527e-12
1.48013e-12
3.03863e-13
1.61062e-13
2.85809e-13
2.37992e-13
9.72686e-13
9.00711e-13
1.80456e-12
1.3993e-10
1.23342e-10
9.82178e-11
7.07322e-11
4.12082e-11
2.4953e-11
1.84566e-11
1.46988e-11
1.04453e-11
7.4147e-12
6.96992e-12
8.64196e-12
1.39489e-11
2.81708e-11
9.34165e-11
1.57487e-11
8.43398e-10
1.07494e-07
2.69766e-13
0.000117002
0.000160274
1.83723e-05
5.43657e-09
3.33634e-10
3.07828e-10
2.80141e-10
2.34415e-10
1.58273e-10
8.5636e-11
4.62909e-11
3.23702e-11
2.84781e-11
2.5188e-11
2.36995e-11
2.57447e-11
3.9882e-11
1.02928e-10
2.58388e-10
5.21336e-11
1.22662e-08
6.27586e-10
1.54732e-05
0.000122675
0.000124295
2.04463e-12
2.09823e-11
4.2011e-10
3.97114e-10
3.75982e-10
3.49552e-10
3.1952e-10
2.7465e-10
1.8378e-10
1.01183e-10
7.46813e-11
7.51427e-11
8.02093e-11
9.73907e-11
1.31435e-10
3.30552e-10
7.66199e-10
4.79934e-10
3.44713e-09
1.00567e-09
1.04811e-05
1.09595e-05
7.41685e-06
0.0302469
0.1551
-2.24894e-09
4.21866e-12
0.0133665
0.0579964
0.0719559
0.0919108
0.0889752
0.0693482
0.0448863
0.0528867
0.133816
0.172581
0.164139
0.124365
0.045318
0.00829878
0.00832437
0.0139172
0.0141172
8.1277e-14
1.55016e-06
6.84474e-11
8.52387e-12
2.54367e-10
6.96408e-11
0.000183069
0.0147615
0.063159
0.0885821
0.0821989
0.172631
0.316667
0.255784
0.165997
0.0326653
0.0090499
0.0361135
0.0158228
0.000367578
1.30146e-07
1.58961e-06
7.39828e-06
3.036e-05
2.70576e-05
0.00369269
0.225469
0.487243
0.533398
0.43401
0.351675
0.445934
0.497533
0.497537
0.437279
0.29594
0.186826
0.0484807
0.00269419
1.31396e-09
1.78457e-05
0.000133205
0.000488484
0.00187789
0.0268904
0.381724
0.558413
0.558484
0.558413
0.517936
0.441859
0.443772
0.471893
0.497866
0.498079
0.347326
0.0676584
0.00370424
1.30342e-07
8.38759e-06
8.83848e-05
0.00010909
2.044e-05
0.00128498
0.0320985
0.131998
0.246842
0.393335
0.518885
0.43804
0.180158
0.101655
0.148117
0.154658
0.0320848
0.0589326
0.00408722
0.0301905
2.40389e-07
2.01556e-05
6.38879e-06
7.87089e-06
2.66661e-05
3.45742e-24
-3.60264e-07
-6.57511e-23
1.83349e-09
0.094036
0.144819
0.0561973
0.0332779
0.0142428
0.000548523
3.53951e-05
0.0735474
0.00370567
0.0484056
6.57711e-05
3.57008e-06
5.42905e-06
6.83683e-06
2.35396e-05
2.86926e-05
6.65134e-05
5.81867e-05
2.82873e-06
1.23636e-12
1.01557e-16
0.00375582
1.50315e-05
0.008408
0.00714383
0.000308762
0.120713
0.00365291
0.047602
0.00104181
2.49698e-05
5.91767e-05
3.93978e-05
5.69197e-05
3.71071e-05
0.000102014
0.000161756
3.51099e-05
9.5107e-06
1.33945e-07
1.33439e-10
1.32451e-05
-1.62564e-22
9.92889e-22
-2.77674e-13
0.119515
5.26416e-10
4.66096e-10
4.44277e-10
4.49701e-10
4.9772e-10
5.53234e-10
4.5738e-10
3.34656e-10
2.90452e-10
2.75326e-10
2.75158e-10
3.06559e-10
4.29321e-10
6.79661e-10
8.42701e-10
4.72579e-10
4.62538e-10
3.78448e-08
1.53267e-08
5.67441e-08
0.0286312
0.219461
0.232916
1.04151e-09
6.02793e-10
5.79294e-10
8.2882e-10
2.58166e-09
2.56513e-09
1.7178e-09
1.20361e-09
7.86486e-10
6.78911e-10
6.09405e-10
6.8909e-10
1.07568e-09
1.71335e-09
1.88623e-09
1.75002e-09
1.43505e-09
-2.63872e-10
3.68858e-10
0.0567694
0.172516
0.199559
0.178319
3.04463e-09
8.95435e-10
6.41943e-10
1.03093e-09
5.45788e-09
1.06374e-08
8.17737e-09
5.64728e-09
2.80124e-09
1.25984e-09
9.20309e-10
9.22075e-10
9.93711e-10
1.07835e-09
1.04136e-09
1.01869e-09
1.0099e-09
0.0160622
0.164552
0.189883
0.192779
0.0423994
0.0054775
6.51154e-09
1.41083e-09
7.2036e-10
1.20953e-09
4.26259e-08
5.01493e-08
4.00826e-08
2.9465e-08
1.76851e-08
6.74276e-09
8.93481e-20
-1.56546e-20
-2.50924e-14
-1.05688e-13
1.13895e-23
0.0389819
0.188598
0.231774
0.233701
0.163385
0.0251915
2.14201e-05
7.14348e-08
7.77753e-09
1.30765e-09
5.65106e-10
1.86819e-09
0.00022483
0.00108692
0.00246802
0.00283745
0.00360725
0.0161024
0.0219539
0.0168951
0.0452239
0.185249
0.27247
0.274706
0.275703
0.17165
0.0565233
0.00438681
2.28763e-06
-7.98532e-11
-6.49705e-15
3.64631e-09
1.36345e-09
2.87085e-07
0.0113352
0.0207787
0.0719308
0.154614
0.176755
0.17327
0.229774
0.322305
0.322338
0.322305
0.321348
0.241013
0.119288
0.038821
0.0037571
8.54198e-06
2.96945e-08
2.3057e-08
7.49262e-09
6.49705e-15
4.41857e-09
3.91013e-07
0.0603601
0.0585953
0.0405883
0.123191
0.237489
0.251872
0.241438
0.253675
0.202417
0.150339
0.0950689
0.0407968
0.0103326
0.000114472
1.65822e-06
7.43876e-07
8.12666e-07
3.56983e-07
1.16567e-08
5.8879e-09
3.44833e-10
0.320432
0.356176
0.422006
0.0359891
0.00373608
0.0181381
0.0190797
0.0497815
6.32366e-07
0.0148496
2.19978e-10
2.30374e-10
2.6145e-10
2.57519e-10
7.29324e-09
3.13157e-06
3.81875e-06
1.26345e-06
4.26083e-07
9.79934e-08
9.76551e-09
9.68085e-09
6.18791e-08
0.994828
0.94451
0.3937
0.00650737
0.00102108
-5.33568e-07
4.17186e-14
9.22872e-20
4.34813e-20
-2.75376e-20
4.69281e-12
3.2735e-12
1.27939e-08
4.8135e-08
4.26684e-07
1.48927e-06
1.06949e-06
1.61435e-07
1.92598e-08
1.3601e-08
2.20992e-08
1.32747e-08
8.34439e-09
0.993604
0.929047
0.72103
0.652954
0.492666
0.296302
0.173245
0.0922185
0.0415527
0.013428
0.00279208
2.73341e-12
1.10414e-08
8.42084e-09
3.21943e-11
1.68963e-09
3.23177e-11
4.91454e-10
1.34686e-13
4.21145e-10
0.00596292
0.061727
0.121565
0.994874
0.988195
0.999994
0.999978
0.999967
0.992605
0.9212
0.833267
0.726778
0.617039
0.518625
0.435618
0.372444
0.337334
0.327042
0.33142
0.356163
0.411591
0.484312
0.568537
0.696146
0.814647
0.884968
0.999686
0.999998
0.999999
1
1
1
1
1
1
1
1
1
1
0.996332
0.988384
0.98471
0.986581
0.992581
0.997727
0.999905
1
0.999999
0.999999
0.999999
0.999998
0.999998
1
1
1
1
1
1
1
1
1
1
1
1
1
1
1
1
1
1
0.999999
0.999999
0.999999
0.999995
0.999996
1
1
1
1
1
0.999999
0.999995
0.999994
0.999998
0.999999
1
1
1
1
1
1
0.999999
0.999999
0.999999
0.999998
1
0.999999
1
1
1
1
1
1
0.999999
0.999984
0.999898
0.999902
0.999992
0.999999
1
1
1
1
0.999999
0.999999
0.999999
0.999999
0.999999
1
1
1
1
1
1
1
1
0.999999
0.999988
0.999837
0.999824
0.999881
0.999997
0.999998
1
1
0.999998
0.999998
0.999999
1
1
1
1
1
1
1
1
1
1
1
1
1
0.999948
0.999822
0.999824
0.999873
0.999997
0.999997
0.999997
0.999997
0.999997
0.999997
1
1
1
1
1
1
1
1
1
1
1
1
1
1
0.999993
0.999862
0.999841
0.999885
0.999998
0.999998
0.999998
0.999997
0.999997
0.999999
1
1
1
1
1
1
1
1
1
1
1
1
1
1
1
0.999974
0.999954
0.999968
0.999999
0.999999
1
0.999999
0.999999
1
1
1
1
1
1
1
1
1
1
1
1
1
1
1
1
1
0.999996
0.999995
0.999998
1
1
1
1
1
1
1
1
1
1
1
1
1
1
1
1
1
1
1
1
1
1
0.999999
1
1
1
1
1
1
1
1
1
1
1
1
1
1
1
1
1
1
1
1
1
1
1
1
1
1
1
1
1
1
1
1
1
1
1
1
1
1
1
1
1
1
1
1
1
1
1
1
1
1
1
1
1
1
1
1
1
1
1
1
1
1
1
1
1
1
1
1
1
1
1
1
1
1
1
1
1
1
1
1
1
1
1
1
1
1
1
1
1
1
1
1
1
1
1
1
1
1
1
1
1
1
1
1
1
1
1
1
1
1
1
1
1
1
1
1
1
1
1
1
1
1
1
1
1
1
1
1
1
1
1
1
1
1
1
1
1
1
1
1
1
1
1
1
1
1
1
1
1
1
1
1
1
1
1
1
1
1
1
1
1
1
1
1
1
1
1
1
1
1
1
1
1
1
1
1
1
1
1
1
1
1
1
1
1
1
1
1
1
1
1
1
1
1
1
1
1
1
1
1
1
1
1
1
1
1
1
1
1
1
1
1
1
1
1
1
1
1
1
1
1
1
1
1
1
1
1
1
1
1
1
1
1
1
1
1
1
1
1
1
1
1
1
1
1
1
1
1
1
1
1
1
1
1
1
1
1
1
1
1
1
1
1
1
1
1
1
1
1
1
1
1
1
1
1
1
1
1
1
1
1
1
1
1
1
1
1
1
1
1
1
1
1
1
1
1
1
1
1
1
1
1
1
1
1
1
1
1
1
1
1
1
1
1
1
1
1
1
1
1
1
1
1
1
1
1
1
1
1
1
1
1
1
1
1
1
1
1
1
1
1
1
1
1
1
1
1
1
1
1
1
1
1
1
1
1
1
1
1
1
1
1
1
1
1
1
1
1
1
1
1
1
1
1
1
1
1
1
1
1
1
1
1
1
1
1
1
1
1
1
1
1
1
1
1
1
1
1
1
1
1
1
1
1
1
1
1
1
1
1
1
1
1
1
1
1
1
1
1
1
1
1
1
1
1
1
1
1
1
1
1
1
1
1
1
1
1
1
1
1
1
1
1
1
1
1
1
1
1
1
1
1
1
1
1
1
1
1
1
1
1
1
1
1
1
1
1
1
1
1
1
1
1
1
1
1
1
1
1
1
1
1
1
1
1
1
1
1
0.233116
0.232916
0.104364
0.0716284
0.135669
0.0475301
0.057956
0.149996
0.00230854
1.90438e-05
0.00259533
0.140422
4.66471e-07
5.45628e-08
1.01886e-09
0.0229468
2.05786e-06
4.94344e-06
7.92507e-07
1.34788e-05
6.50327e-06
1.00869e-05
7.09733e-06
2.11571e-07
2.13369e-06
4.0366e-06
1.64779e-06
1.76573e-08
4.00351e-08
8.91124e-08
6.41869e-08
2.49116e-08
1.02177e-08
1.67968e-08
1.99138e-08
1.05263e-08
0.155456
0.19926
0.34636
0.525702
0.925153
0.954267
0.986476
0.999233
0.999998
0.999999
0.999999
0.999999
0.999998
0.999998
0.999999
0.999999
0.999999
1
1
1
1
1
1
1
1
1
1
1
1
1
1
1
1
1
1
1
1
1
1
1
1
1
1
1
1
1
1
1
1
1
1
1
1
1
1
1
1
1
1
1
1
1
1
1
1
1
1
1
1
1
1
1
1
1
1
1
1
1
1
1
1
1
1
1
1
1
1
1
1
1
1
1
1
1
1
1
1
1
1
1
1
1
1
1
1
1
1
1
1
1
1
1
1
1
1
1
1
1
1
1
1
1
1
1
1
1
1
1
1
1
1
1
0.0484573
0.00872971
0.000376689
0.00250953
0.00521872
0.00373718
0.00126789
0.000120589
0.000183493
0.000187216
0.000167992
0.000209544
0.000219291
0.000254919
0.000551068
0.00092535
0.00111656
1.2084e-21
0.098079
0.109469
0.0150573
0.0575677
0.0637229
0.0224213
0.00756119
0.00240691
0.000214113
0.000111951
0.000105454
0.000149486
0.000268638
0.000482515
0.000590161
0.000881603
0.000884588
0.000486893
2.79049e-08
0.191189
0.172293
0.170768
0.175092
0.133785
0.00822002
0.000425977
0.000517077
0.000448584
0.000186498
3.90486e-05
1.40539e-05
1.60957e-05
1.73341e-05
3.25336e-05
3.95125e-05
6.6959e-05
9.64397e-05
0.122229
0.386652
0.172539
0.179331
0.180535
0.0449413
1.15269e-07
-1.39246e-24
-5.64703e-27
-4.50605e-26
2.78781e-09
8.41837e-08
9.77087e-08
3.84014e-08
4.49067e-05
0.00383005
0.0212774
0.0233067
0.0176293
0.276257
0.410248
0.049435
0.073001
0.0278331
0.000346222
7.54923e-08
1.58152e-08
2.25907e-09
5.41884e-08
5.68002e-08
0.0335765
0.146756
0.322385
0.41755
0.398867
0.391974
0.405501
0.402904
0.378517
0.453864
1.73608e-07
1.26984e-07
1.24793e-07
6.35626e-08
9.6016e-08
5.83812e-08
4.76192e-08
0.0259995
0.195463
0.582249
0.900601
0.968943
0.981522
0.974665
0.935719
0.904291
0.950199
0.960688
0.953714
2.52951e-08
7.43969e-08
6.31993e-08
6.09077e-08
6.31458e-08
0.0167913
0.144656
0.58156
0.985879
1
1
0.999999
0.999999
0.999989
0.999902
0.999771
0.999862
1
0.999999
2.47227e-08
2.60213e-08
1.4896e-08
0.000324836
0.0758763
0.565302
0.995811
1
1
1
1
1
0.999987
0.998091
0.994968
0.994665
0.999429
0.999999
0.999999
4.31765e-09
0.0252369
0.220189
0.707103
0.999842
1
1
1
1
0.999531
0.99983
1
0.999802
0.995663
0.995667
0.999655
0.999941
0.999999
0.999999
0.657155
0.839935
0.981044
1
1
1
1
0.999984
0.999288
0.998837
0.998838
0.999989
0.999841
0.998539
0.999852
1
1
1
1
1
1
1
1
0.999999
0.999999
1
0.999925
0.999338
0.999034
0.999329
0.999959
0.999984
1
1
1
1
1
0.999998
0.999999
1
1
1
0.999998
0.999997
0.999992
0.999971
0.999964
0.999962
0.99999
0.999972
1
1
1
1
1
1
0.999998
1
1
1
1
0.999999
0.999999
0.999998
1
1
1
1
1
1
1
1
1
1
1
0.999998
1
1
1
1
1
1
1
1
1
1
1
1
1
1
1
1
1
1
0.999999
1
1
1
1
1
1
1
1
1
1
1
1
1
1
1
1
1
1
1
1
1
1
1
1
1
1
1
1
1
1
1
1
1
1
1
1
1
1
1
1
1
1
1
1
1
1
1
1
1
1
1
1
1
1
1
1
1
1
1
1
1
1
1
1
1
1
1
1
1
1
1
1
1
1
1
1
1
1
1
1
1
1
1
1
1
1
1
1
1
1
1
1
1
1
1
1
1
1
1
1
1
1
1
1
1
1
1
1
1
1
1
1
1
1
1
1
1
1
1
1
1
1
1
1
1
1
1
1
1
1
1
1
1
1
1
1
1
1
1
1
1
1
1
1
1
1
1
1
1
1
1
1
1
1
1
1
1
1
1
1
1
1
1
1
1
1
1
1
1
1
1
1
1
1
1
1
1
1
1
1
1
1
1
1
1
1
1
1
1
1
1
1
1
1
1
1
1
1
1
1
1
1
1
1
1
1
1
1
1
1
1
1
1
1
1
1
1
1
1
1
1
1
1
1
1
1
1
1
1
1
1
1
1
1
1
1
1
1
1
1
1
1
1
1
1
1
1
1
1
1
1
1
1
1
1
1
1
1
1
1
1
1
1
1
1
1
1
1
1
1
1
1
1
1
1
1
1
1
1
1
1
1
1
1
1
1
1
1
1
1
1
1
1
1
1
1
1
1
1
1
1
1
1
1
1
1
1
1
1
1
1
1
1
1
1
1
1
1
1
1
1
1
1
1
1
1
1
1
1
1
1
1
1
1
1
1
1
1
1
1
1
1
1
1
1
1
1
1
1
1
1
1
1
1
1
1
1
1
1
1
1
1
1
1
1
1
1
1
1
1
1
1
1
1
1
1
1
1
1
1
1
1
1
1
1
1
1
1
1
1
1
1
1
1
1
1
1
1
1
1
1
1
1
1
1
1
1
1
1
1
1
1
1
1
1
1
1
1
1
1
1
1
1
1
1
1
1
1
1
1
1
1
1
1
1
1
1
1
1
1
1
1
1
1
1
1
1
1
1
1
1
1
1
1
1
1
1
1
1
1
1
1
1
1
1
1
1
1
1
1
1
1
1
1
1
1
1
1
1
1
1
1
1
1
1
1
1
1
1
1
1
1
1
1
1
1
1
1
1
1
1
1
1
1
1
1
1
1
1
1
1
1
1
1
1
1
1
1
1
1
1
1
1
1
1
1
1
1
1
1
1
1
)
;

boundaryField
{
    leftWall
    {
        type            alphaContactAngle;
        contactAngleProperties 
        {
            mercury         
            {
                theta0          90;
            }
            water           
            {
                theta0          90;
            }
            oil             
            {
                theta0          90;
            }
        }
        value           nonuniform List<scalar> 
50
(
1.26794e-13
8.59313e-13
3.75687e-12
1.1257e-11
2.72453e-11
1.3993e-10
3.33634e-10
4.2011e-10
5.26416e-10
1.04151e-09
3.04463e-09
6.51154e-09
7.77753e-09
3.64631e-09
4.41857e-09
0.320432
0.994828
0.993604
0.994874
0.999686
0.999999
0.999999
1
1
1
1
1
1
1
1
1
1
1
1
1
1
1
1
1
1
1
1
1
1
1
1
1
1
1
1
)
;
    }
    rightWall
    {
        type            alphaContactAngle;
        contactAngleProperties 
        {
            mercury         
            {
                theta0          90;
            }
            water           
            {
                theta0          90;
            }
            oil             
            {
                theta0          90;
            }
        }
        value           nonuniform List<scalar> 
50
(
0.0141172
0.0158228
0.0484807
0.0676584
0.0589326
0.0735474
0.120713
0.119515
0.098079
0.191189
0.386652
0.410248
0.453864
0.953714
0.999999
0.999999
0.999999
1
0.999998
0.999998
0.999998
0.999999
1
1
1
1
1
1
1
1
1
1
1
1
1
1
1
1
1
1
1
1
1
1
1
1
1
1
1
1
)
;
    }
    lowerWall
    {
        type            alphaContactAngle;
        contactAngleProperties 
        {
            mercury         
            {
                theta0          90;
            }
            water           
            {
                theta0          90;
            }
            oil             
            {
                theta0          90;
            }
        }
        value           nonuniform List<scalar> 
62
(
1.26794e-13
9.64175e-14
5.91494e-14
3.5502e-14
1.89484e-14
7.93878e-15
2.7428e-15
1.19351e-15
7.92059e-16
7.16696e-16
7.40638e-16
7.62846e-16
6.79584e-16
6.21073e-16
6.30604e-16
7.11513e-16
8.92696e-16
1.91542e-15
6.79046e-15
2.93138e-14
4.6508e-14
1.39079e-14
2.2991e-15
2.2991e-15
5.11985e-14
1.24574e-12
7.89692e-12
1.80456e-12
5.43657e-09
2.09823e-11
0.1551
0.233116
0.232916
0.104364
0.0716284
-2.24894e-09
8.1277e-14
0.000367578
0.00269419
0.00370424
0.00408722
0.00370567
0.00365291
-2.24894e-09
4.21866e-12
0.0133665
0.0579964
0.0719559
0.0919108
0.0889752
0.0693482
0.0448863
0.0528867
0.133816
0.172581
0.164139
0.124365
0.045318
0.00829878
0.00832437
0.0139172
0.0141172
)
;
    }
    atmosphere
    {
        type            inletOutlet;
        inletValue      uniform 1;
        value           nonuniform List<scalar> 
46
(
1
1
1
1
1
1
1
1
1
1
1
1
1
1
1
1
1
1
1
1
1
1
1
1
1
1
1
1
1
1
1
1
1
1
1
1
1
1
1
1
1
1
1
1
1
1
)
;
    }
    defaultFaces
    {
        type            empty;
    }
}


// ************************************************************************* //
