/*--------------------------------*- C++ -*----------------------------------*\
  =========                 |
  \\      /  F ield         | OpenFOAM: The Open Source CFD Toolbox
   \\    /   O peration     | Website:  https://openfoam.org
    \\  /    A nd           | Version:  13
     \\/     M anipulation  |
\*---------------------------------------------------------------------------*/
FoamFile
{
    format      ascii;
    class       volScalarField;
    location    "1.3";
    object      alpha.mercury;
}
// * * * * * * * * * * * * * * * * * * * * * * * * * * * * * * * * * * * * * //

dimensions      [];

internalField   nonuniform List<scalar> 
2268
(
1
1
1
1
1
1
1
1
1
1
1
1
1
1
1
1
1
1
1
1
0.999991
0.9995
0.999432
1
1
1
1
1
1
1
1
1
1
1
1
1
1
1
1
1
1
1
1
1
0.9999
0.999432
1
1
1
1
1
1
1
1
1
1
1
1
1
1
1
1
1
1
1
1
1
1
0.999736
1
1
1
1
1
1
1
1
1
1
1
1
1
1
1
1
1
1
1
1
1
0.999999
0.999979
1
1
1
1
1
1
1
1
1
1
1
1
1
1
1
1
1
1
0.999999
0.999999
0.999998
0.999998
0.999991
0.868657
0.886153
0.925935
0.973588
0.998359
1
1
1
1
1
1
1
1
1
1
1
0.983907
0.914289
0.848259
0.795185
0.770696
0.784871
0.828736
0.104573
0.127562
0.18064
0.295081
0.478283
0.681442
0.824088
0.917552
0.961842
0.979099
0.99199
0.998488
0.970552
0.872567
0.70613
0.497356
0.302422
0.18657
0.119414
0.0803864
0.0660746
0.0754083
0.134946
3.41477e-10
1.1933e-10
1e-18
2.0265e-11
4.34281e-19
0.0182039
0.106994
0.224749
0.345639
0.411036
0.402692
0.321129
0.213564
0.107115
0.0297384
0.00123932
4.08265e-19
1.39245e-18
-1.83936e-15
-3.64893e-12
0.000793583
0.0192291
0.0312014
0.750548
0.875564
0.876399
0.875564
0.78647
0.520325
0.522073
0.535164
0.563215
0.560603
0.547887
0.554945
0.690457
0.690388
0.690551
0.69044
0.690647
0.690457
0.690663
0.342351
0.637945
0.842528
0.874406
0.875394
0.875971
0.874243
0.873693
0.869269
0.846927
0.763196
0.615552
0.608756
0.638686
0.641884
0.641068
0.670831
0.690403
0.687928
0.0902712
0.114488
0.484295
0.623771
0.470997
0.46286
0.464877
0.449431
0.433595
0.388456
0.345682
0.354271
0.263051
0.265817
0.288556
0.310227
0.401921
0.490135
0.40167
0.0890707
0.146507
0.379522
0.077671
4.19905e-11
5.41286e-07
4.19053e-11
3.78368e-09
3.46056e-08
0.0539429
0.146002
0.217544
0.249465
0.239746
0.225346
0.225316
0.229114
0.245606
0.30091
0.104189
0.472355
0.307223
1.54814e-05
1.91001e-05
0.000200821
0.000594909
0.000602706
4.68033e-05
1.6211e-19
1.49005e-12
0.063526
0.232409
0.312476
0.311437
0.327645
0.324712
0.234453
0.137545
0.123514
0.476207
0.0825493
8.0306e-05
9.20057e-05
0.000760501
0.00243665
0.00237848
0.000458786
1.464e-12
2.63694e-06
6.09879e-12
3.38104e-06
0.0130526
0.0498245
0.0753739
0.0948242
0.0490311
0.0104187
0.108128
0.454104
0.000558591
9.22895e-05
7.83446e-05
0.000132192
0.000204043
6.0632e-05
3.17048e-05
3.9459e-05
0.000114311
1.99964e-06
2.79319e-05
0.000187259
5.06437e-06
5.57846e-11
3.42773e-17
8.46651e-19
0.0106003
0.102694
0.113003
0.00140896
6.75907e-05
7.63228e-06
8.08158e-19
1.53483e-19
1.44037e-19
1.43226e-19
5.73214e-05
0.000213565
9.3183e-05
5.72306e-05
0.000641528
0.000798499
0.000190714
6.7821e-07
5.30172e-17
0.0139138
2.13177e-09
1.69482e-09
1.09917e-09
8.67811e-10
2.14974e-10
2.75722e-20
3.50968e-11
2.75722e-20
1.43049e-09
6.96146e-10
1.32067e-10
1.84958e-10
2.6519e-10
1.91225e-11
3.25172e-11
2.70763e-11
5.60317e-10
2.0345e-09
-3.09491e-17
1.80213e-08
0.00979034
0.0350779
0.0367384
3.0208e-09
3.57748e-09
3.31192e-09
4.58041e-09
4.44246e-09
2.63329e-09
9.61721e-10
2.9575e-10
3.35435e-11
2.19739e-11
2.13769e-11
8.12354e-10
1.16743e-09
1.00912e-09
2.74348e-10
4.83461e-11
1.25637e-10
1.3276e-09
1.65094e-10
9.68162e-15
0.00629561
0.022283
0.0216481
2.47846e-09
3.39466e-09
2.95905e-09
4.14437e-09
4.46842e-09
3.35301e-09
1.99986e-09
1.05351e-09
3.68691e-10
1.04318e-10
6.0237e-11
6.37893e-11
8.21886e-11
1.00105e-10
5.11183e-11
2.54844e-11
2.91625e-11
6.84555e-11
9.6752e-15
9.38986e-05
0.000455535
0.000384197
8.44803e-05
8.83884e-10
1.35154e-09
9.27936e-10
5.19783e-10
1.45521e-10
9.23801e-11
9.0207e-11
8.04087e-11
3.75036e-11
1.41366e-11
1.31375e-11
1.31753e-11
1.42641e-11
2.32185e-11
3.53929e-10
4.54108e-10
1.60182e-10
2.83013e-11
4.22569e-06
2.65356e-05
8.42241e-10
7.8111e-10
4.07135e-10
5.14361e-10
3.22315e-10
2.76132e-10
2.3169e-10
1.606e-10
1.39263e-10
1.23614e-10
1.24475e-10
1.24131e-10
1.26834e-10
1.70769e-10
2.78597e-10
4.64334e-10
1.48346e-09
3.99784e-09
2.76077e-09
1.64558e-10
4.24786e-08
1.29135e-06
7.358e-10
5.05964e-09
2.51462e-09
6.76239e-10
3.61203e-10
2.39185e-10
2.50423e-10
2.63537e-10
3.57029e-10
4.86595e-10
6.94617e-10
9.38463e-10
1.2647e-09
1.58941e-09
2.16329e-09
3.0103e-09
3.95299e-09
5.07444e-09
5.13781e-09
3.86796e-09
4.28937e-09
3.52831e-08
7.06468e-10
7.17825e-10
2.49676e-09
2.0662e-09
7.52563e-10
1.97334e-10
1.89358e-10
2.96396e-10
4.97096e-10
6.53373e-10
8.61129e-10
1.24655e-09
1.68631e-09
2.42025e-09
3.06035e-09
3.20284e-09
3.20112e-09
3.31057e-09
3.42267e-09
3.2643e-09
2.23965e-09
1.48935e-09
7.04373e-10
6.99291e-10
7.5454e-10
1.03392e-09
1.68903e-09
2.79657e-09
9.85623e-11
2.07961e-10
5.50545e-10
6.80544e-10
7.17632e-10
8.55781e-10
1.17873e-09
1.41206e-09
1.43035e-09
1.48044e-09
1.40707e-09
9.74144e-10
8.00518e-10
7.1104e-10
5.44916e-10
3.84716e-10
2.83577e-10
3.47453e-10
6.60894e-10
7.20449e-10
8.77185e-10
1.89621e-09
3.175e-09
1.0143e-10
3.70134e-10
6.8188e-10
6.87083e-10
4.89396e-10
3.46347e-10
3.24174e-10
3.3116e-10
3.13881e-10
3.05745e-10
2.73458e-10
3.03334e-10
2.39685e-10
1.52757e-10
1.40228e-10
1.84978e-10
2.29026e-10
3.15156e-10
4.18454e-10
4.94766e-10
6.69243e-10
9.50116e-10
1.1559e-09
1.58527e-10
5.0649e-10
7.1003e-10
6.67367e-10
3.48858e-10
2.00996e-10
1.37709e-10
1.03953e-10
8.09582e-11
7.19955e-11
7.82982e-11
8.78048e-11
8.58624e-11
8.11916e-11
1.02462e-10
1.31184e-10
1.53759e-10
1.6472e-10
1.83608e-10
2.14371e-10
2.41246e-10
1.82524e-10
2.68458e-10
1.53068e-10
5.08625e-10
6.93975e-10
5.91898e-10
3.42836e-10
2.09279e-10
1.31326e-10
8.01622e-11
4.81295e-11
3.25519e-11
2.90859e-11
2.85253e-11
2.94626e-11
3.26568e-11
4.0542e-11
4.45222e-11
4.15958e-11
3.77946e-11
3.93045e-11
4.14138e-11
3.10907e-11
2.08176e-11
1.85995e-11
3.91507e-11
2.71767e-10
5.93548e-10
5.43143e-10
4.09793e-10
2.97432e-10
2.01406e-10
1.10756e-10
5.36549e-11
2.07285e-11
1.29311e-11
9.3238e-12
8.59967e-12
8.29119e-12
7.89666e-12
6.92219e-12
5.68634e-12
4.69281e-12
4.45538e-12
4.57861e-12
5.55784e-12
5.98288e-12
4.65743e-12
2.5912e-11
1.7931e-10
4.45735e-10
5.18237e-10
4.73183e-10
3.7551e-10
3.07786e-10
2.29927e-10
1.23263e-10
4.00693e-11
1.29974e-11
7.24891e-12
5.57711e-12
4.69812e-12
4.12103e-12
3.50574e-12
2.94254e-12
2.56078e-12
2.38291e-12
2.63272e-12
2.79621e-12
2.48469e-12
1.23556e-12
2.34492e-11
1.34551e-10
3.3743e-10
4.65745e-10
4.38728e-10
3.78718e-10
3.30926e-10
2.96296e-10
2.30809e-10
1.11493e-10
3.05312e-11
8.12408e-12
4.991e-12
4.1813e-12
3.46116e-12
2.76301e-12
2.17248e-12
1.78037e-12
1.52096e-12
1.30173e-12
1.04009e-12
7.93881e-13
6.36174e-13
1.19538e-11
8.01854e-11
2.49537e-10
3.4472e-10
3.41559e-10
3.06254e-10
2.9887e-10
3.04978e-10
2.94747e-10
2.22034e-10
1.21141e-10
4.15021e-11
1.14082e-11
5.23546e-12
4.027e-12
3.00866e-12
2.2888e-12
1.82068e-12
1.48269e-12
1.14972e-12
8.48635e-13
6.94378e-13
5.35512e-13
5.48027e-12
4.60137e-11
1.36975e-10
2.32411e-10
2.60374e-10
2.61477e-10
2.57446e-10
2.70336e-10
2.83713e-10
2.87136e-10
2.41787e-10
1.43236e-10
6.57862e-11
2.23679e-11
9.70268e-12
7.09742e-12
4.64633e-12
3.5288e-12
2.55875e-12
1.84043e-12
1.30048e-12
9.22845e-13
7.09778e-13
3.74633e-12
1.81922e-11
5.81791e-11
1.12967e-10
1.51202e-10
1.76515e-10
1.88731e-10
2.04576e-10
2.28144e-10
2.49312e-10
2.64198e-10
2.58522e-10
1.76384e-10
1.02455e-10
4.92468e-11
2.43583e-11
1.56581e-11
1.14917e-11
7.99486e-12
6.2992e-12
4.07442e-12
2.49895e-12
1.73872e-12
1.63798e-12
9.84605e-12
2.81293e-11
4.72431e-11
7.75843e-11
1.02266e-10
1.23334e-10
1.32446e-10
1.46206e-10
1.68874e-10
1.93514e-10
2.05633e-10
2.10098e-10
1.90475e-10
1.21147e-10
7.4663e-11
4.52866e-11
2.82587e-11
1.81398e-11
1.21505e-11
8.11436e-12
5.25456e-12
3.41969e-12
7.72066e-13
4.37971e-12
1.41056e-11
2.74497e-11
3.99943e-11
5.0642e-11
6.81282e-11
7.7936e-11
8.05661e-11
8.4538e-11
9.17249e-11
1.13418e-10
1.30435e-10
1.38722e-10
1.32196e-10
9.24156e-11
5.97635e-11
3.85378e-11
2.47456e-11
1.45891e-11
8.92976e-12
5.0962e-12
3.41449e-12
2.67366e-13
1.69707e-12
6.06426e-12
1.41546e-11
2.23282e-11
2.89377e-11
3.68871e-11
4.45395e-11
4.54985e-11
4.36641e-11
4.20108e-11
4.18915e-11
4.68552e-11
5.51524e-11
5.9496e-11
6.09666e-11
4.88473e-11
3.11199e-11
1.9773e-11
1.3627e-11
7.24273e-12
3.89554e-12
2.41319e-12
7.62454e-14
6.10013e-13
2.34554e-12
6.34908e-12
1.19418e-11
1.60796e-11
2.09581e-11
2.69438e-11
2.85173e-11
2.6001e-11
2.21878e-11
1.92601e-11
1.69574e-11
1.64724e-11
1.71068e-11
1.82129e-11
1.84388e-11
1.44278e-11
1.00295e-11
7.34442e-12
4.71783e-12
2.94609e-12
1.61435e-12
1.99407e-14
1.76141e-13
7.5044e-13
2.38736e-12
5.32568e-12
8.47356e-12
1.08714e-11
1.46169e-11
1.69415e-11
1.61521e-11
1.26901e-11
1.01055e-11
8.20988e-12
6.3845e-12
5.75256e-12
5.45478e-12
5.13982e-12
4.6109e-12
3.83318e-12
2.88243e-12
2.28232e-12
1.68005e-12
1.17276e-12
3.24543e-15
4.098e-14
2.1473e-13
7.65474e-13
2.07998e-12
4.07534e-12
5.17659e-12
6.82655e-12
9.32934e-12
9.36064e-12
7.78995e-12
5.46949e-12
4.2423e-12
3.18158e-12
2.31556e-12
1.99439e-12
1.72366e-12
1.46599e-12
1.328e-12
1.14278e-12
9.34782e-13
7.47977e-13
6.12781e-13
6.26355e-16
7.66159e-15
4.72365e-14
1.95193e-13
6.23229e-13
1.63609e-12
2.34708e-12
2.78299e-12
4.37074e-12
5.00307e-12
4.17425e-12
3.09598e-12
2.10406e-12
1.55734e-12
1.07574e-12
7.6953e-13
6.41424e-13
5.30105e-13
4.81652e-13
4.43344e-13
3.75674e-13
3.08285e-13
2.6122e-13
9.82048e-17
1.63869e-15
1.06038e-14
5.01995e-14
1.67859e-13
5.27639e-13
9.14206e-13
1.12101e-12
1.7322e-12
2.31596e-12
2.02563e-12
1.54572e-12
1.03342e-12
7.00142e-13
4.7663e-13
3.20736e-13
2.33005e-13
1.88735e-13
1.62053e-13
1.49278e-13
1.28258e-13
1.07345e-13
9.7323e-14
1.65575e-17
2.57207e-16
2.14181e-15
1.045e-14
4.95146e-14
1.56807e-13
3.00184e-13
3.91621e-13
5.96183e-13
9.15845e-13
8.36214e-13
6.65294e-13
4.64968e-13
2.99454e-13
1.8935e-13
1.26178e-13
8.2592e-14
6.49268e-14
5.39524e-14
4.7275e-14
4.3112e-14
3.6953e-14
3.1914e-14
2.00217e-18
4.80859e-17
4.23522e-16
2.44795e-15
1.21607e-14
4.75252e-14
9.38664e-14
1.26006e-13
1.91554e-13
2.95634e-13
2.89389e-13
2.4208e-13
1.74291e-13
1.14366e-13
6.6176e-14
4.23015e-14
2.65549e-14
2.1368e-14
1.72823e-14
1.4985e-14
1.32853e-14
1.14197e-14
9.86881e-15
2.46953e-19
5.12748e-18
5.32108e-17
4.37811e-16
2.9255e-15
1.14352e-14
2.50317e-14
3.59557e-14
5.50687e-14
8.57329e-14
8.35932e-14
7.12639e-14
5.37412e-14
3.55574e-14
1.92838e-14
1.19858e-14
7.70259e-15
6.172e-15
5.09327e-15
4.42141e-15
3.98244e-15
3.37582e-15
2.7318e-15
2.06405e-20
5.61942e-19
8.09427e-18
7.24316e-17
5.376e-16
2.43823e-15
5.65926e-15
8.78401e-15
1.42712e-14
2.15283e-14
2.11419e-14
1.82306e-14
1.38827e-14
8.95821e-15
4.72974e-15
2.96833e-15
1.97523e-15
1.60679e-15
1.33749e-15
1.17658e-15
1.04337e-15
8.59288e-16
6.56976e-16
1.7848e-21
4.27326e-20
1.05071e-18
9.84634e-18
8.10615e-17
4.45954e-16
1.11903e-15
1.88084e-15
3.05895e-15
4.47228e-15
4.49298e-15
3.71093e-15
2.93589e-15
1.75136e-15
9.6969e-16
6.42789e-16
4.68894e-16
3.64139e-16
3.12969e-16
2.76238e-16
2.45193e-16
1.98237e-16
1.35722e-16
9.85062e-23
2.4142e-21
7.52378e-20
1.04221e-18
1.13384e-17
6.70775e-17
1.85875e-16
3.49498e-16
5.67816e-16
7.81282e-16
7.70314e-16
6.52189e-16
4.98235e-16
2.88853e-16
1.733e-16
1.23851e-16
9.56236e-17
7.38335e-17
6.41793e-17
5.67642e-17
4.87535e-17
3.6178e-17
2.27766e-17
7.34133e-24
1.94737e-22
8.2387e-21
1.19025e-19
1.12065e-18
7.25792e-18
2.55815e-17
5.27522e-17
8.42954e-17
1.12058e-16
1.1011e-16
9.56853e-17
6.84023e-17
4.09478e-17
2.5744e-17
2.00651e-17
1.62128e-17
1.27826e-17
1.13865e-17
9.95545e-18
8.31999e-18
5.67904e-18
3.25321e-18
3.75181e-25
9.51823e-24
5.80204e-22
1.03052e-20
1.11057e-19
7.19911e-19
2.36648e-18
5.50255e-18
9.76436e-18
1.22888e-17
1.21775e-17
1.0975e-17
7.74478e-18
4.74441e-18
3.46266e-18
2.87068e-18
2.35197e-18
1.92344e-18
1.7158e-18
1.49569e-18
1.15029e-18
6.63901e-19
3.43934e-19
2.13131e-26
3.40045e-25
3.28933e-23
6.94651e-22
7.96014e-21
5.33255e-20
2.03528e-19
5.14343e-19
9.06126e-19
1.24057e-18
1.23678e-18
1.02056e-18
6.85767e-19
4.84115e-19
4.10139e-19
3.56634e-19
3.06506e-19
2.667e-19
2.28864e-19
1.86762e-19
1.28931e-19
6.60987e-20
2.94147e-20
9.67533e-28
1.07769e-26
1.61108e-24
3.79983e-23
4.67233e-22
2.92244e-21
1.35867e-20
3.99494e-20
7.32833e-20
1.03052e-19
9.98708e-20
7.86423e-20
5.74862e-20
4.82533e-20
4.32995e-20
3.94724e-20
3.58243e-20
3.14605e-20
2.65607e-20
1.95342e-20
1.15944e-20
5.21299e-21
2.22764e-21
3.441e-29
3.16757e-28
6.02901e-26
1.59416e-24
2.02167e-23
1.50458e-22
7.52263e-22
2.58119e-21
5.15378e-21
7.18591e-21
6.81194e-21
5.52401e-21
4.65735e-21
4.38611e-21
4.16061e-21
3.95883e-21
3.64922e-21
3.17756e-21
2.49519e-21
1.61872e-21
8.46101e-22
3.35274e-22
1.26839e-22
9.28662e-31
7.28481e-30
1.57875e-27
4.83177e-26
6.84237e-25
6.06123e-24
3.36358e-23
1.31635e-22
2.98814e-22
4.24191e-22
4.06219e-22
3.59345e-22
3.5356e-22
3.6318e-22
3.62059e-22
3.54055e-22
3.27774e-22
2.78043e-22
1.98476e-22
1.12989e-22
5.13701e-23
1.74368e-23
2.09013e-24
1.97395e-32
1.32161e-31
3.22001e-29
1.18148e-27
1.97696e-26
1.89213e-25
1.22688e-24
5.43026e-24
1.44407e-23
2.09181e-23
2.13205e-23
2.21432e-23
2.46724e-23
2.6971e-23
2.80722e-23
2.79617e-23
2.57842e-23
2.10475e-23
1.35762e-23
6.86262e-24
2.55229e-24
2.8946e-25
1.63442e-26
3.34285e-34
1.88347e-33
5.31281e-31
2.4615e-29
4.51601e-28
4.83953e-27
3.84561e-26
1.81578e-25
5.63754e-25
8.47523e-25
9.74694e-25
1.23538e-24
1.4842e-24
1.73197e-24
1.90112e-24
1.95303e-24
1.8236e-24
1.42279e-24
8.39616e-25
3.74141e-25
5.86377e-26
3.04261e-27
1.47234e-27
2.52502e-36
1.98954e-35
7.31485e-33
4.65025e-31
8.99362e-30
1.11386e-28
1.09118e-27
5.99356e-27
2.12082e-26
3.34681e-26
4.42693e-26
6.272e-26
8.43606e-26
1.05401e-25
1.19563e-25
1.27772e-25
1.20337e-25
9.10644e-26
4.61584e-26
1.3102e-26
1.3551e-27
2.45846e-28
6.18045e-28
-1.76623e-37
-1.72173e-38
9.15413e-35
8.62127e-33
1.74275e-31
2.39687e-30
2.77044e-29
1.63063e-28
6.55454e-28
1.14031e-27
1.77196e-27
2.88176e-27
4.21169e-27
5.65633e-27
6.81559e-27
7.53389e-27
7.14937e-27
5.16772e-27
2.30081e-27
5.20314e-28
5.23165e-29
6.12365e-29
3.48085e-28
-1.3937e-38
-1.46241e-38
1.25023e-36
1.583e-34
3.47702e-33
5.04409e-32
6.47323e-31
4.13794e-30
1.86965e-29
3.61338e-29
6.45574e-29
1.18278e-28
1.88742e-28
2.78966e-28
3.67191e-28
4.08406e-28
3.95694e-28
2.84804e-28
1.20515e-28
2.33104e-29
6.85953e-30
2.44756e-29
1.65194e-28
0.0282868
0.00370463
9.46321e-07
0.0835569
0.0116919
0.00102297
6.85531e-07
0.0418979
2.02789e-06
2.58808e-05
8.91798e-07
0.00545807
5.87218e-10
2.32919e-07
7.64945e-07
5.46309e-09
3.98446e-10
1.63905e-06
1.98009e-06
3.49699e-08
5.45362e-10
8.17827e-07
1.09515e-06
2.37998e-07
1.92628e-08
1.02455e-07
5.26526e-08
1.53954e-08
5.41993e-09
3.03372e-09
2.32297e-09
5.61921e-09
1.4676e-09
1.73438e-09
2.07237e-09
2.60783e-09
3.68479e-10
4.00072e-10
4.01414e-10
2.46417e-10
1.79444e-11
1.51317e-11
9.67474e-12
4.58428e-12
2.56254e-12
1.47307e-12
1.21907e-12
1.09052e-12
8.39076e-13
6.95746e-13
6.38156e-13
5.77558e-13
5.07194e-13
4.4173e-13
3.91179e-13
3.53534e-13
4.06153e-13
3.46978e-13
3.0885e-13
2.61287e-13
5.37708e-13
4.55151e-13
4.03567e-13
3.33763e-13
1.13421e-12
9.03013e-13
7.66491e-13
6.17556e-13
1.99809e-12
1.61494e-12
1.44962e-12
1.21881e-12
2.41207e-12
1.62808e-12
1.34613e-12
1.1898e-12
1.69229e-12
1.36837e-12
1.02033e-12
9.03556e-13
1.03463e-12
8.53351e-13
7.45977e-13
6.39176e-13
7.81404e-13
6.29577e-13
4.98191e-13
4.27834e-13
4.93621e-13
4.01677e-13
3.18735e-13
2.56086e-13
2.20357e-13
1.89293e-13
1.60491e-13
1.28931e-13
8.42023e-14
7.17119e-14
6.34405e-14
5.39959e-14
2.91657e-14
2.52947e-14
2.19255e-14
1.8499e-14
8.89403e-15
7.81047e-15
6.65816e-15
5.6341e-15
2.46833e-15
2.13503e-15
1.75458e-15
1.46571e-15
5.77606e-16
4.70981e-16
3.88366e-16
3.12785e-16
1.12353e-16
9.05281e-17
6.95919e-17
5.3264e-17
1.73666e-17
1.28784e-17
9.46617e-18
6.83384e-18
2.27837e-18
1.58538e-18
1.04766e-18
6.78778e-19
2.26868e-19
1.40401e-19
8.53013e-20
5.11557e-20
1.76868e-20
1.0231e-20
6.30745e-21
2.51856e-21
1.31244e-21
3.85266e-22
2.90392e-23
4.26855e-25
1.06528e-23
1.88102e-25
2.42415e-26
4.66902e-26
4.78292e-27
8.1922e-27
1.75603e-26
4.16621e-26
4.69003e-27
6.52014e-27
1.53097e-26
4.39814e-26
1.9715e-27
4.32293e-27
1.42983e-26
4.48909e-26
1.29909e-27
4.05269e-27
1.40512e-26
4.46257e-26
8.0278e-28
3.22597e-27
1.14444e-26
3.43999e-26
6.42644e-28
2.14725e-27
6.54363e-27
1.66497e-26
0.17526
0.0348852
0.000701482
2.82286e-05
1.96558e-07
5.58754e-10
3.24222e-11
6.62151e-11
-2.06724e-15
2.38108e-05
0.00021763
0.000213243
6.25121e-05
0.000586959
0.000865863
0.000385016
3.98795e-05
3.20099e-06
0.0144246
0.193067
0.0423399
0.00239448
0.000166045
1.48478e-07
2.01252e-07
1.34302e-07
5.25219e-08
6.8508e-09
5.23118e-09
6.8358e-05
0.000179461
7.0156e-05
1.33134e-05
2.64323e-05
8.92325e-06
1.12455e-06
1.10913e-06
0.00689703
0.0842927
0.0280595
0.00175268
1.14654e-07
2.46958e-07
3.96879e-07
3.30649e-07
1.51352e-07
5.94978e-08
6.44523e-07
1.10567e-08
5.6835e-06
2.52303e-05
1.39979e-05
1.99937e-05
6.79097e-06
1.10916e-06
0.00147026
0.0069648
0.000898021
0.00928496
0.00312645
1.19809e-07
1.25955e-07
2.86346e-07
2.30553e-07
1.57833e-07
9.18918e-08
3.50077e-08
1.1673e-08
3.37896e-09
1.29722e-08
2.45116e-05
4.35923e-05
2.2209e-05
0.000118725
0.00353729
0.00694337
5.52298e-09
8.20724e-05
0.000208628
3.09529e-05
5.45355e-08
7.26598e-08
6.05721e-08
3.3143e-08
2.14006e-08
6.92501e-09
2.98003e-08
7.62367e-09
2.50003e-09
3.91348e-05
4.53618e-05
7.06683e-05
0.000578656
0.00114264
0.00182011
6.23089e-09
5.82527e-09
6.77263e-09
2.29599e-07
5.85504e-08
2.68664e-08
1.62743e-08
5.39867e-09
2.02117e-11
1.47143e-12
5.45449e-10
1.12604e-07
2.53348e-09
1.73878e-05
0.000114612
0.000480397
0.000490672
6.01746e-05
2.3351e-12
1.46108e-08
1.65224e-08
1.24719e-08
9.42252e-09
6.66329e-09
4.44963e-09
4.4925e-09
4.70965e-09
2.51899e-09
8.89881e-10
8.74751e-11
1.06764e-07
1.12215e-07
2.93586e-06
8.58596e-05
0.000228268
0.000138514
1.63639e-10
1.23893e-11
1.12355e-08
9.72145e-09
6.44509e-09
3.24759e-09
6.80933e-10
2.29066e-27
-6.40752e-28
1.05531e-27
3.19504e-11
7.6154e-11
1.15152e-10
2.79703e-08
1.16657e-07
1.43364e-05
3.16889e-05
9.45822e-06
2.16323e-06
3.51181e-09
3.93144e-14
1.76259e-09
1.15956e-09
7.94276e-10
2.19948e-10
1.06523e-11
2.39079e-12
7.11123e-13
6.87521e-13
6.84382e-12
1.74691e-11
6.63792e-11
6.0125e-11
8.89076e-07
1.16863e-05
1.90762e-06
3.87687e-07
2.3598e-09
8.96425e-11
3.88858e-14
9.93761e-11
1.17956e-11
4.41798e-12
1.87324e-12
1.54854e-12
9.41165e-13
4.3089e-13
5.58042e-13
4.85694e-12
6.76396e-12
6.60468e-12
8.36942e-08
9.32338e-07
5.82467e-07
6.56003e-13
4.04378e-13
8.56568e-10
1.45633e-14
1.38389e-14
2.6359e-12
1.6228e-12
1.10611e-12
7.83297e-13
4.73432e-13
3.57015e-13
2.55498e-13
2.65819e-13
7.40398e-13
5.87111e-13
6.54334e-09
6.29166e-08
1.75677e-07
3.65919e-14
6.02688e-13
1.8682e-11
9.25737e-11
3.65214e-14
1.28852e-14
8.42778e-13
6.46271e-13
5.3467e-13
3.37931e-13
2.22121e-13
1.84462e-13
1.53096e-13
1.33871e-13
3.56674e-12
2.61888e-10
2.31579e-09
4.27323e-09
3.65919e-14
3.6111e-14
1.26101e-13
1.57868e-12
3.94507e-12
3.83341e-14
1.1817e-14
5.21162e-13
4.00819e-13
2.98939e-13
1.95319e-13
1.41567e-13
1.13494e-13
9.90211e-14
1.24859e-13
2.81663e-12
6.14503e-11
1.85344e-10
3.90182e-12
-2.42388e-12
3.64425e-14
5.19762e-14
8.61517e-14
8.96561e-14
3.1515e-14
1.07348e-14
3.11884e-13
2.3164e-13
1.67195e-13
1.20874e-13
9.5347e-14
6.97678e-14
5.84451e-14
7.81643e-14
5.75295e-13
3.79653e-12
1.17385e-11
4.22389e-12
1.23542e-11
3.135e-14
3.23537e-14
3.38954e-14
3.47974e-14
2.28877e-14
9.39674e-15
2.2051e-13
1.46326e-13
1.08856e-13
7.511e-14
5.6537e-14
4.38677e-14
3.1216e-14
3.0142e-14
6.60777e-14
3.66417e-13
1.43278e-12
8.72245e-13
1.82097e-12
1.96665e-14
2.07276e-14
2.33786e-14
2.71457e-14
1.79416e-14
8.25733e-15
2.70993e-13
1.53289e-13
8.93295e-14
5.89963e-14
3.69263e-14
2.58779e-14
1.97809e-14
1.60295e-14
1.61524e-14
2.62573e-14
7.39223e-14
8.0942e-14
1.33984e-13
1.08036e-14
1.22774e-14
1.47072e-14
2.02831e-14
1.53557e-14
7.06944e-15
5.00954e-13
2.63622e-13
1.2065e-13
7.43426e-14
4.25059e-14
2.55626e-14
1.5517e-14
1.10577e-14
9.13448e-15
8.09459e-15
7.93074e-15
8.16489e-15
8.88674e-15
5.56629e-15
7.26795e-15
1.05569e-14
1.48538e-14
1.27183e-14
6.11263e-15
9.6771e-13
4.83165e-13
2.12909e-13
1.14497e-13
6.34684e-14
3.38001e-14
1.80604e-14
1.00033e-14
6.43908e-15
4.66459e-15
3.41336e-15
2.79052e-15
2.58974e-15
2.80279e-15
4.15574e-15
6.7465e-15
9.80083e-15
1.01108e-14
5.09196e-15
9.87582e-13
5.5403e-13
2.86503e-13
1.7269e-13
8.90206e-14
4.472e-14
2.2548e-14
1.10397e-14
5.7787e-15
3.20814e-15
1.91733e-15
1.34065e-15
1.20884e-15
1.43692e-15
2.29638e-15
3.74827e-15
4.59959e-15
7.65069e-15
4.25732e-15
7.68247e-13
4.8708e-13
2.95339e-13
1.7095e-13
9.20432e-14
4.85499e-14
2.42996e-14
1.15066e-14
5.41036e-15
2.66016e-15
1.27432e-15
6.7275e-16
5.80678e-16
7.08025e-16
1.35377e-15
1.67451e-15
2.81059e-15
5.13169e-15
3.30845e-15
5.56556e-13
3.9465e-13
2.49828e-13
1.50489e-13
8.08254e-14
4.36054e-14
2.16168e-14
1.01315e-14
4.55917e-15
2.07915e-15
9.21806e-16
3.48171e-16
2.58485e-16
3.37674e-16
5.21197e-16
1.08868e-15
1.89123e-15
2.95689e-15
2.0369e-15
3.60294e-13
2.57338e-13
1.66836e-13
1.05444e-13
5.84388e-14
3.20405e-14
1.59874e-14
7.45014e-15
3.28779e-15
1.46386e-15
6.21714e-16
1.78413e-16
1.01741e-16
9.58575e-17
2.69157e-16
7.04714e-16
1.27633e-15
1.73394e-15
1.34044e-15
2.01661e-13
1.41475e-13
9.26177e-14
5.95922e-14
3.3721e-14
1.86786e-14
9.4277e-15
4.42769e-15
1.96426e-15
8.78348e-16
3.37836e-16
4.3399e-17
1.55885e-17
4.64854e-17
1.71195e-16
4.50237e-16
8.37231e-16
1.05114e-15
8.23922e-16
9.52049e-14
6.65794e-14
4.33692e-14
2.78278e-14
1.58026e-14
8.67393e-15
4.40906e-15
2.10505e-15
9.69461e-16
4.6266e-16
7.38603e-17
4.69931e-18
5.86297e-18
2.64844e-17
1.01589e-16
2.74751e-16
5.22022e-16
6.31351e-16
4.70625e-16
3.88879e-14
2.67431e-14
1.7088e-14
1.05363e-14
6.01253e-15
3.22532e-15
1.64256e-15
7.97974e-16
4.16569e-16
8.52821e-17
5.5962e-18
7.0585e-19
2.69e-18
1.47497e-17
5.821e-17
1.5783e-16
3.11231e-16
3.6981e-16
2.40696e-16
1.27597e-14
8.81083e-15
5.638e-15
3.34863e-15
1.90938e-15
9.79063e-16
4.91568e-16
2.57982e-16
7.93088e-17
6.44627e-18
2.01962e-19
2.14006e-19
1.39704e-18
7.89729e-18
3.14091e-17
8.91611e-17
1.72899e-16
2.0985e-16
1.1871e-16
3.8883e-15
2.58309e-15
1.54889e-15
8.86385e-16
4.66962e-16
2.27797e-16
1.22725e-16
4.17247e-17
4.10325e-18
1.24308e-19
4.16419e-20
1.06314e-19
7.23643e-19
4.05604e-18
1.68125e-17
4.61819e-17
9.32358e-17
1.10425e-16
6.03545e-17
9.4098e-16
5.89626e-16
3.31059e-16
1.81625e-16
8.97455e-17
5.10246e-17
1.53456e-17
1.58156e-18
4.53973e-20
1.75678e-20
2.90466e-20
7.83219e-20
4.02589e-19
2.08344e-18
8.29351e-18
2.373e-17
4.75394e-17
5.48221e-17
2.84784e-17
1.88812e-16
1.09392e-16
5.44981e-17
2.80717e-17
1.54531e-17
4.01509e-18
3.0311e-19
8.22116e-21
7.64829e-21
1.39415e-20
2.95814e-20
7.37717e-20
2.54631e-19
1.06612e-18
4.03717e-18
1.11985e-17
2.37298e-17
2.79975e-17
1.37239e-17
2.84319e-17
1.46457e-17
6.69969e-18
3.69149e-18
7.91509e-19
4.16417e-20
2.35297e-21
3.36054e-21
7.01725e-21
1.57577e-20
3.47954e-20
7.83238e-20
2.01109e-19
6.02291e-19
2.03813e-18
5.25037e-18
1.17501e-17
1.52671e-17
7.2462e-18
3.41528e-18
1.52234e-18
7.88012e-19
1.40099e-19
5.6864e-21
9.23135e-22
1.55021e-21
3.56727e-21
8.39178e-21
1.92168e-20
4.14848e-20
8.85124e-20
1.87024e-19
4.37445e-19
1.10638e-18
2.52332e-18
6.28407e-18
6.82152e-18
3.1281e-18
2.9198e-19
1.33897e-19
2.01875e-20
7.02248e-22
3.32243e-22
6.74275e-22
1.66303e-21
4.10111e-21
9.85989e-21
2.25392e-20
4.84574e-20
9.93396e-20
1.9188e-19
3.68376e-19
7.24605e-19
1.66088e-18
3.69599e-18
3.48961e-18
1.38467e-18
2.15748e-20
2.15847e-21
7.87333e-23
9.89429e-23
2.55552e-22
6.94385e-22
1.8238e-21
4.57116e-21
1.1055e-20
2.52117e-20
5.41587e-20
1.07051e-19
1.94284e-19
3.26859e-19
5.66631e-19
1.22744e-18
1.64212e-18
1.35792e-18
4.93473e-19
2.19233e-22
1.06676e-23
2.72508e-23
8.63248e-23
2.54652e-22
7.12818e-22
1.87479e-21
4.78456e-21
1.16748e-20
2.67925e-20
5.62449e-20
1.07919e-19
1.80751e-19
2.89236e-19
4.99016e-19
8.05057e-19
9.12476e-19
5.70784e-19
1.79435e-19
9.46416e-25
6.05226e-24
2.44897e-23
7.96518e-23
2.36116e-22
6.78528e-22
1.80762e-21
4.64085e-21
1.11244e-20
2.49144e-20
5.28183e-20
9.95611e-20
1.606e-19
2.58317e-19
3.95076e-19
5.12368e-19
4.52797e-19
2.46715e-19
7.07739e-20
8.81337e-25
5.22962e-24
2.0075e-23
6.69503e-23
2.08626e-22
6.00602e-22
1.61852e-21
4.12297e-21
9.90422e-21
2.22086e-20
4.57725e-20
8.4162e-20
1.35719e-19
2.04525e-19
2.61923e-19
2.85894e-19
2.16582e-19
9.54497e-20
2.95824e-20
7.74851e-25
4.12248e-24
1.57193e-23
5.47888e-23
1.69358e-22
4.865e-22
1.29903e-21
3.25963e-21
7.67935e-21
1.69675e-20
3.41403e-20
6.05086e-20
9.51894e-20
1.35265e-19
1.45451e-19
1.24182e-19
7.22763e-20
3.38929e-20
1.23369e-20
6.54537e-25
3.11823e-24
1.19952e-23
4.07003e-23
1.24095e-22
3.51218e-22
9.18813e-22
2.2342e-21
5.08842e-21
1.08981e-20
2.10739e-20
3.58945e-20
5.36453e-20
6.92518e-20
6.51388e-20
4.5492e-20
2.31856e-20
1.17083e-20
5.32212e-21
4.91303e-25
2.12396e-24
7.99563e-24
2.56748e-23
7.78623e-23
2.12179e-22
5.38638e-22
1.26512e-21
2.77439e-21
5.71585e-21
1.06249e-20
1.72504e-20
2.39239e-20
2.85108e-20
2.35358e-20
1.45266e-20
6.7611e-21
4.01504e-21
2.29533e-21
3.16481e-25
1.23424e-24
4.25925e-24
1.29947e-23
3.57319e-23
9.2011e-23
2.24874e-22
5.16272e-22
1.09351e-21
2.15028e-21
3.82434e-21
6.01221e-21
7.69544e-21
8.58146e-21
6.40846e-21
4.2413e-21
1.96162e-21
1.17712e-21
1.14914e-21
1.5748e-25
5.41001e-25
1.70469e-24
4.87396e-24
1.29365e-23
3.2335e-23
7.46566e-23
1.68129e-22
3.46515e-22
6.51551e-22
1.08666e-21
1.60841e-21
1.97107e-21
2.0028e-21
1.40343e-21
9.92555e-22
3.96522e-22
4.00166e-22
4.14996e-22
4.41508e-26
1.31224e-25
3.77519e-25
9.96712e-25
2.45748e-24
5.98119e-24
1.28713e-23
2.6075e-23
5.4505e-23
1.00207e-22
1.66815e-22
2.42732e-22
2.93724e-22
2.72197e-22
1.97315e-22
1.57861e-22
9.3093e-23
7.51767e-23
6.42323e-23
)
;

boundaryField
{
    leftWall
    {
        type            alphaContactAngle;
        contactAngleProperties 
        {
            air             
            {
                theta0          90;
            }
            water           
            {
                theta0          90;
            }
            oil             
            {
                theta0          90;
            }
        }
        value           nonuniform List<scalar> 
50
(
1
1
1
1
1
0.868657
0.104573
3.41477e-10
2.13177e-09
3.0208e-09
2.47846e-09
8.83884e-10
5.14361e-10
3.61203e-10
1.97334e-10
9.85623e-11
1.0143e-10
1.58527e-10
1.53068e-10
3.91507e-11
2.5912e-11
2.34492e-11
1.19538e-11
5.48027e-12
3.74633e-12
1.63798e-12
7.72066e-13
2.67366e-13
7.62454e-14
1.99407e-14
3.24543e-15
6.26355e-16
9.82048e-17
1.65575e-17
2.00217e-18
2.46953e-19
2.06405e-20
1.7848e-21
9.85062e-23
7.34133e-24
3.75181e-25
2.13131e-26
9.67533e-28
3.441e-29
9.28662e-31
1.97395e-32
3.34285e-34
2.52502e-36
-1.76623e-37
-1.3937e-38
)
;
    }
    rightWall
    {
        type            alphaContactAngle;
        contactAngleProperties 
        {
            air             
            {
                theta0          90;
            }
            water           
            {
                theta0          90;
            }
            oil             
            {
                theta0          90;
            }
        }
        value           nonuniform List<scalar> 
50
(
0.690663
0.687928
0.40167
0.30091
0.137545
0.0104187
0.0106003
0.0139138
0.0144246
0.00689703
0.0069648
0.00694337
0.00182011
2.3351e-12
1.23893e-11
3.93144e-14
3.88858e-14
1.38389e-14
1.28852e-14
1.1817e-14
1.07348e-14
9.39674e-15
8.25733e-15
7.06944e-15
6.11263e-15
5.09196e-15
4.25732e-15
3.30845e-15
2.0369e-15
1.34044e-15
8.23922e-16
4.70625e-16
2.40696e-16
1.1871e-16
6.03545e-17
2.84784e-17
1.37239e-17
7.2462e-18
3.1281e-18
1.38467e-18
4.93473e-19
1.79435e-19
7.07739e-20
2.95824e-20
1.23369e-20
5.32212e-21
2.29533e-21
1.14914e-21
4.14996e-22
6.42323e-23
)
;
    }
    lowerWall
    {
        type            alphaContactAngle;
        contactAngleProperties 
        {
            air             
            {
                theta0          90;
            }
            water           
            {
                theta0          90;
            }
            oil             
            {
                theta0          90;
            }
        }
        value           nonuniform List<scalar> 
62
(
1
1
1
1
1
1
1
1
1
1
1
1
1
1
1
1
1
1
1
1
0.999991
0.9995
0.999432
0.999432
0.999432
0.999736
0.999979
0.999991
0.828736
0.134946
0.0312014
0.0282868
0.00370463
9.46321e-07
0.0835569
0.750548
0.342351
0.0902712
0.0890707
0.104189
0.123514
0.108128
0.102694
0.750548
0.875564
0.876399
0.875564
0.78647
0.520325
0.522073
0.535164
0.563215
0.560603
0.547887
0.554945
0.690457
0.690388
0.690551
0.69044
0.690647
0.690457
0.690663
)
;
    }
    atmosphere
    {
        type            inletOutlet;
        inletValue      uniform 0;
        value           nonuniform List<scalar> 
46
(
0
0
0
0
0
0
0
0
0
0
0
0
0
0
0
0
0
0
0
0
0
0
0
0
0
0
0
0
0
0
0
0
0
0
2.6075e-23
5.4505e-23
1.00207e-22
1.66815e-22
2.42732e-22
2.93724e-22
2.72197e-22
1.97315e-22
1.57861e-22
9.3093e-23
7.51768e-23
6.42323e-23
)
;
    }
    defaultFaces
    {
        type            empty;
    }
}


// ************************************************************************* //
