/*--------------------------------*- C++ -*----------------------------------*\
  =========                 |
  \\      /  F ield         | OpenFOAM: The Open Source CFD Toolbox
   \\    /   O peration     | Website:  https://openfoam.org
    \\  /    A nd           | Version:  13
     \\/     M anipulation  |
\*---------------------------------------------------------------------------*/
FoamFile
{
    format      ascii;
    class       volScalarField;
    location    "1.3";
    object      alpha.oil;
}
// * * * * * * * * * * * * * * * * * * * * * * * * * * * * * * * * * * * * * //

dimensions      [];

internalField   nonuniform List<scalar> 
2268
(
1.419e-16
2.75995e-15
3.41095e-14
1.56876e-13
4.19662e-13
9.6887e-13
2.18877e-12
4.79626e-12
9.61799e-12
1.94447e-11
3.89583e-11
8.86445e-11
1.8266e-10
3.63629e-10
7.1843e-10
1.36666e-09
2.28561e-09
3.95454e-09
4.47842e-09
4.86674e-09
8.62115e-06
0.000499599
0.0005684
4.38079e-16
5.21633e-15
2.89703e-14
1.0948e-13
3.41672e-13
8.9581e-13
2.12645e-12
5.18218e-12
1.20195e-11
2.75748e-11
6.5103e-11
1.47979e-10
3.36066e-10
6.86999e-10
1.25959e-09
2.42484e-09
6.56949e-09
1.73882e-08
4.42522e-08
5.81929e-08
1.09073e-07
9.98781e-05
0.000568192
7.29819e-16
4.64775e-15
1.99782e-14
7.66733e-14
3.52003e-13
1.06151e-12
2.79728e-12
7.17686e-12
1.77484e-11
4.72035e-11
1.13034e-10
2.56102e-10
5.01504e-10
9.8832e-10
2.01799e-09
4.45625e-09
1.22501e-08
2.87579e-08
6.59746e-08
7.1555e-08
6.48e-08
1.01868e-07
0.000264357
7.66155e-16
2.96202e-15
1.11219e-14
4.19948e-14
2.56748e-13
1.09773e-12
3.11065e-12
8.26294e-12
2.40139e-11
6.2687e-11
1.32498e-10
3.59301e-10
7.49306e-10
2.10736e-09
5.1826e-09
6.47487e-09
7.52809e-09
1.96338e-08
4.07731e-08
4.99222e-08
4.93605e-08
7.77046e-07
2.10261e-05
2.58723e-16
9.7136e-16
3.10284e-15
1.35131e-14
6.51048e-14
4.5602e-13
1.71018e-12
5.41249e-12
1.70844e-11
4.00265e-11
1.02627e-10
2.53194e-10
6.01725e-10
1.55703e-09
3.31195e-09
4.79415e-08
1.63107e-08
3.63728e-07
1.24957e-06
9.98546e-07
1.78826e-06
2.09402e-06
8.5099e-06
7.85997e-16
3.68368e-14
8.70242e-14
3.22366e-14
1.58241e-14
4.47272e-14
1.79801e-13
1.00041e-12
5.6561e-12
2.14337e-11
6.41328e-11
1.5978e-10
3.83249e-10
6.01547e-10
8.34391e-10
4.5948e-09
2.18816e-06
7.34045e-06
7.94651e-06
7.94216e-06
7.12878e-06
4.22022e-06
0.00135303
3.60375e-13
2.54906e-12
6.26009e-12
2.90044e-12
8.14295e-13
9.84029e-14
5.24556e-14
2.05082e-13
1.534e-12
6.96635e-12
1.72988e-11
9.85599e-11
8.9684e-10
1.02603e-09
5.64794e-10
5.67732e-10
2.93079e-06
7.9465e-06
7.94332e-06
7.66285e-06
3.54362e-06
1.90037e-07
0.000504938
1.12361e-11
3.04967e-11
3.81996e-11
1.97523e-11
1.15227e-11
5.9223e-12
2.19821e-12
8.96097e-13
1.28911e-12
9.60903e-12
3.25565e-11
1.62297e-10
7.1617e-10
6.94902e-10
5.67732e-10
1.56829e-07
8.7502e-07
2.81905e-06
4.39421e-06
1.69958e-06
3.03525e-07
3.73023e-08
2.15653e-07
0.249451
0.122114
0.0894775
0.0364968
0.121683
0.383583
0.387722
0.393265
0.388695
0.383621
0.317
0.268839
0.0638764
0.0620327
0.140921
0.18123
0.274698
0.276618
0.276329
0.657649
0.360568
0.0881374
2.39046e-24
3.5284e-13
0.00798708
0.0232343
0.024188
0.0347202
0.0631964
0.153306
0.209905
0.060764
0.0602957
0.0799386
0.204744
0.217017
0.241178
0.277359
0.909346
0.882031
0.343373
-2.61023e-13
1.62369e-08
2.23434e-11
1.00748e-10
0.00115013
0.0295573
0.0768488
0.219013
0.292704
0.288795
0.2233
0.190035
0.211177
0.249998
0.235573
0.520172
0.908183
0.842284
0.167896
6.66611e-14
5.94112e-07
1.35413e-06
-3.16361e-08
0.0239321
0.196792
0.237693
0.235459
0.254936
0.291085
0.293717
0.283642
0.262741
0.247056
0.240112
0.52018
0.892042
0.491329
0.0041031
-4.24339e-08
1.81932e-06
1.46741e-06
-7.78882e-20
0.0217994
0.158798
0.236856
0.235083
0.158404
0.121619
0.121554
0.138524
0.143862
0.118419
0.394747
0.520696
0.872325
0.323493
6.30923e-08
1.71532e-06
3.83223e-06
1.65143e-06
1.09468e-05
3.6597e-06
0.000258758
0.0552703
0.179796
0.211341
0.172985
0.11481
0.114311
0.125776
0.123516
0.382615
0.508842
0.886189
0.0588928
5.18785e-08
6.32857e-06
1.85219e-05
2.9287e-05
4.19447e-05
4.05561e-05
3.68214e-05
4.28926e-05
3.10084e-05
0.116047
0.121821
0.158133
0.252487
0.277447
0.244399
0.394319
0.404679
0.889662
0.118809
6.55327e-08
9.65916e-06
3.54891e-05
6.29127e-05
4.71845e-05
6.77227e-05
3.47608e-05
3.09247e-05
3.49984e-05
0.0113484
0.149562
0.4744
0.734746
0.822005
0.702641
0.693795
0.636603
1.51991e-10
3.05395e-10
1.94239e-10
1.12731e-10
6.21921e-11
3.47638e-11
1.51181e-11
9.66436e-12
1.42387e-11
3.83714e-11
1.16233e-10
5.11225e-10
6.45553e-10
6.64142e-10
1.98588e-08
8.15381e-08
3.21899e-08
4.02408e-09
6.43096e-08
1.60114e-07
5.86678e-08
0.157451
0.188966
1.47965e-09
3.76406e-09
4.73268e-09
3.76549e-09
1.37724e-09
3.55132e-10
1.1107e-10
8.70739e-11
1.06143e-10
1.58588e-10
1.39276e-10
3.96433e-10
8.76743e-10
2.17383e-09
1.16925e-08
8.36551e-09
4.4123e-09
2.75332e-09
1.04044e-08
8.57869e-09
0.0396477
0.642257
0.796891
6.31635e-09
1.02884e-08
1.13673e-08
1.04539e-08
4.57706e-09
7.12323e-10
3.51613e-10
3.13299e-10
3.02004e-10
9.3992e-10
1.99662e-09
3.2408e-09
5.857e-09
7.974e-09
8.14823e-09
5.53131e-09
2.11091e-09
2.6843e-16
2.12245e-17
0.0647643
0.645874
0.957216
0.994438
1.4464e-08
1.72258e-08
1.61602e-08
1.73379e-08
8.56432e-09
1.05535e-09
6.18647e-10
4.95526e-10
1.11535e-17
2.52334e-09
1.77414e-08
2.36154e-08
2.13289e-08
1.1698e-08
1.20836e-09
6.113e-17
6.83968e-20
0.0256262
0.382018
0.791593
0.974808
0.999979
0.999999
2.11024e-08
1.16768e-08
7.78467e-09
7.45555e-09
-2.58092e-12
-5.08646e-14
-1.22964e-14
-5.05353e-15
-2.37151e-17
-8.30561e-16
-1.0815e-20
-1.79698e-20
-1.76139e-19
2.55199e-28
3.46667e-34
0.102799
0.444767
0.771344
0.94319
0.995613
0.999998
1
1
2.02787e-08
1.3468e-08
3.15406e-07
0.0034171
0.0722054
0.100137
0.0919148
0.0573544
0.0805155
0.0773191
0.0753192
0.101051
0.229275
0.426801
0.653176
0.861985
0.961179
0.996242
0.99999
0.999998
1
1
1
3.74039e-08
0.000384267
0.0532627
0.504573
0.784676
0.773858
0.699912
0.663978
0.694798
0.701461
0.782282
0.848011
0.904931
0.959203
0.989667
0.999886
0.999998
0.999998
0.999997
0.999998
1
1
1
5.46178e-05
0.0177005
0.431024
0.964011
0.996264
0.981862
0.98092
0.950218
0.999999
0.98515
1
1
1
1
1
0.999996
0.999996
0.999998
0.999999
0.999999
1
1
1
0.00286438
0.0554897
0.606299
0.993489
0.998963
0.999986
0.999994
0.999999
0.999999
1
1
1
1
1
0.999999
0.999998
0.999999
1
1
1
1
1
1
0.00639627
0.070953
0.278969
0.347018
0.507287
0.703651
0.826747
0.907781
0.958446
0.986572
0.997208
1
1
1
1
1
1
1
1
1
0.994037
0.938273
0.878435
0.0051261
0.0118043
3.44448e-18
1.49285e-10
2.36097e-18
0.00737869
0.0787999
0.166733
0.273221
0.382961
0.481375
0.564382
0.627556
0.662666
0.672958
0.66858
0.643837
0.588409
0.515688
0.431463
0.303854
0.185353
0.115032
0.000314288
1.56471e-06
2.28168e-07
2.64365e-09
2.35725e-09
1.18332e-17
2.78307e-18
1.18332e-17
3.68114e-15
2.34014e-15
-5.65815e-25
4.79502e-08
-1.56125e-19
0.00366789
0.0116159
0.0152903
0.0134187
0.00741895
0.00227297
9.48742e-05
4.77081e-07
1.00204e-06
1.44342e-06
9.89526e-07
1.47183e-06
1.56283e-06
3.40751e-09
2.43609e-08
3.65664e-08
5.2761e-08
7.66531e-08
2.20071e-07
1.00515e-07
1.9695e-23
-5.72857e-25
-2.00362e-13
-6.72974e-11
-1.16272e-13
-1.00026e-12
-1.13838e-12
2.02111e-08
2.07495e-07
3.07843e-07
4.72625e-07
9.95514e-07
1.16006e-06
9.14695e-07
4.56429e-06
3.78532e-06
1.62953e-08
5.40427e-08
7.8403e-08
8.18338e-08
1.35611e-07
9.97778e-07
5.13743e-06
4.60573e-06
3.40412e-07
3.7997e-11
5.70085e-09
9.76243e-09
2.04875e-08
3.70559e-08
6.46633e-08
3.5146e-07
1.05466e-06
1.47021e-06
1.43429e-06
1.50139e-06
2.45978e-07
8.27666e-07
1.87563e-07
5.10756e-08
5.35752e-08
7.7718e-08
1.0884e-07
2.37021e-07
6.2902e-07
1.56357e-05
0.000100516
9.55736e-05
5.171e-06
1.92767e-10
4.90106e-09
8.90533e-09
7.73083e-09
5.15535e-08
6.83649e-07
1.23192e-06
1.2688e-06
1.07118e-06
5.18536e-07
2.37293e-08
1.11048e-07
1.53743e-07
8.11849e-08
6.3681e-08
6.17536e-08
7.43481e-08
1.53255e-07
5.77674e-07
1.20181e-05
0.000162787
0.000174162
0.000116012
1.84234e-10
1.86334e-10
1.88306e-10
1.93545e-10
1.4053e-07
6.14716e-07
7.78456e-07
4.51007e-07
2.36424e-07
1.27497e-07
2.12083e-08
6.06594e-08
1.13135e-07
1.08963e-07
8.07084e-08
6.192e-08
5.91116e-08
9.87442e-08
2.24973e-07
4.92743e-07
5.15642e-05
0.00017817
0.000174665
0.000124309
1.84234e-10
1.97617e-10
2.44205e-08
8.79265e-08
1.07191e-07
1.3714e-07
1.08795e-07
2.29098e-08
2.83923e-08
1.16594e-08
4.38724e-08
8.82733e-08
1.08539e-07
9.04414e-08
6.60367e-08
5.11329e-08
5.97087e-08
7.90786e-08
1.07424e-07
2.95064e-07
6.91502e-06
0.000137787
0.000157865
0.000114054
1.98117e-10
2.64917e-09
5.69259e-09
4.18188e-08
6.60403e-08
5.62355e-08
1.56727e-08
7.18777e-09
7.39685e-09
2.66899e-08
6.16768e-08
9.36215e-08
9.34357e-08
7.14123e-08
3.99162e-08
3.14961e-08
4.50399e-08
5.62087e-08
5.76166e-08
4.81444e-08
1.26871e-07
2.56682e-05
4.54875e-05
3.17053e-05
1.33051e-09
3.33269e-09
4.04399e-09
4.52083e-08
6.31047e-08
3.55504e-08
1.07329e-08
3.26518e-09
1.37376e-08
3.38677e-08
5.95443e-08
7.91553e-08
7.02716e-08
3.90236e-08
2.04408e-08
2.30521e-08
3.05526e-08
3.62156e-08
3.8837e-08
3.55033e-08
2.31234e-08
4.85162e-08
3.52937e-06
5.10153e-06
1.43016e-06
2.64707e-09
1.58293e-08
2.7661e-08
2.81619e-08
1.74629e-08
1.25235e-09
6.81832e-09
1.772e-08
3.38616e-08
5.34968e-08
6.00407e-08
3.57091e-08
1.90223e-08
1.50396e-08
1.68464e-08
2.19109e-08
2.56564e-08
2.60597e-08
2.23846e-08
2.272e-08
4.16764e-08
3.71884e-07
5.89951e-07
3.03314e-07
2.38978e-08
8.5649e-09
9.1497e-09
1.24681e-08
4.16412e-10
2.63771e-09
7.74458e-09
1.62049e-08
2.77139e-08
4.27371e-08
3.09274e-08
1.64542e-08
1.08381e-08
9.09652e-09
1.03999e-08
1.32416e-08
1.64849e-08
1.72402e-08
1.56824e-08
1.25455e-08
1.23545e-08
2.81541e-08
4.81281e-08
3.36953e-08
1.53669e-08
7.3057e-09
7.17513e-09
9.25471e-11
8.38501e-10
3.07834e-09
6.98186e-09
1.22935e-08
2.42342e-08
2.31233e-08
1.25005e-08
8.11281e-09
5.76278e-09
5.10347e-09
6.02962e-09
7.80762e-09
9.55297e-09
1.03344e-08
9.65912e-09
7.25366e-09
5.17627e-09
5.00881e-09
6.77109e-09
5.25596e-09
4.33278e-09
4.36986e-09
2.11705e-11
2.00362e-10
8.99605e-10
2.44195e-09
4.0233e-09
1.10344e-08
1.34407e-08
8.10173e-09
5.5355e-09
3.78073e-09
2.79647e-09
2.66011e-09
3.2697e-09
4.1537e-09
4.95223e-09
5.35955e-09
4.61196e-09
3.58266e-09
2.72028e-09
2.48817e-09
2.29249e-09
2.22575e-09
2.37326e-09
3.85161e-12
5.16362e-11
2.52971e-10
8.09414e-10
1.23477e-09
3.85443e-09
6.04214e-09
4.42975e-09
3.17579e-09
2.21999e-09
1.54147e-09
1.27419e-09
1.36983e-09
1.66402e-09
2.01934e-09
2.38989e-09
2.26853e-09
1.93762e-09
1.52893e-09
1.31265e-09
1.16026e-09
1.10294e-09
1.17258e-09
6.76425e-13
9.11257e-12
5.86803e-11
1.98342e-10
4.12902e-10
1.23783e-09
2.16826e-09
1.84928e-09
1.44702e-09
1.09636e-09
7.66638e-10
5.993e-10
5.77294e-10
6.54867e-10
7.80272e-10
9.27944e-10
9.58979e-10
8.59357e-10
7.28024e-10
6.2294e-10
5.6869e-10
5.30305e-10
5.26681e-10
8.08982e-14
1.81136e-12
1.24791e-11
4.9348e-11
1.10522e-10
4.01142e-10
7.25527e-10
6.54647e-10
5.46061e-10
4.24093e-10
3.15423e-10
2.49447e-10
2.28688e-10
2.46236e-10
2.87613e-10
3.30602e-10
3.54079e-10
3.37083e-10
2.98146e-10
2.66425e-10
2.43216e-10
2.25117e-10
2.14222e-10
9.35431e-15
1.97697e-13
1.57175e-12
8.69517e-12
2.74718e-11
9.97424e-11
1.94508e-10
1.95991e-10
1.67676e-10
1.3805e-10
1.06004e-10
8.5189e-11
7.90635e-11
8.45158e-11
9.69699e-11
1.1067e-10
1.21167e-10
1.1645e-10
1.08365e-10
1.0055e-10
9.47378e-11
8.63297e-11
7.65293e-11
6.54079e-16
2.13225e-14
2.25777e-13
1.33728e-12
5.1025e-12
2.15746e-11
4.35573e-11
4.6318e-11
4.34767e-11
3.76052e-11
3.02282e-11
2.53189e-11
2.40016e-11
2.61081e-11
3.03394e-11
3.46507e-11
3.76692e-11
3.70964e-11
3.55324e-11
3.39096e-11
3.17517e-11
2.7991e-11
2.3148e-11
4.66555e-17
1.52466e-15
2.62938e-14
1.60021e-13
7.60421e-13
3.93315e-12
8.41673e-12
9.36675e-12
8.9693e-12
8.30242e-12
7.13619e-12
6.10885e-12
6.23638e-12
7.11175e-12
8.57503e-12
9.88979e-12
1.07658e-11
1.08344e-11
1.05888e-11
1.01172e-11
9.3945e-12
8.00057e-12
5.9283e-12
1.65281e-18
7.57925e-17
1.4981e-15
1.4276e-14
1.03428e-13
5.80649e-13
1.3457e-12
1.56356e-12
1.58228e-12
1.55037e-12
1.38231e-12
1.29822e-12
1.44081e-12
1.74707e-12
2.19097e-12
2.55148e-12
2.76932e-12
2.788e-12
2.74752e-12
2.61989e-12
2.32684e-12
1.80879e-12
1.2212e-12
8.41892e-20
5.49562e-18
1.37398e-16
1.41298e-15
9.79017e-15
6.06832e-14
1.75901e-13
2.15225e-13
2.29311e-13
2.35821e-13
2.27716e-13
2.41751e-13
2.92244e-13
3.77846e-13
4.70658e-13
5.6127e-13
6.10196e-13
6.23319e-13
6.14753e-13
5.69733e-13
4.88409e-13
3.47705e-13
2.12687e-13
2.032e-21
2.27666e-19
7.84021e-18
1.04686e-16
9.26188e-16
5.77962e-15
1.54445e-14
2.05512e-14
2.61897e-14
2.83369e-14
3.0908e-14
3.84221e-14
5.08007e-14
6.87888e-14
9.00315e-14
1.0816e-13
1.18371e-13
1.21504e-13
1.18508e-13
1.05463e-13
8.24466e-14
4.97795e-14
2.78916e-14
5.8043e-23
6.38296e-21
3.46236e-19
6.2049e-18
6.30454e-17
4.03927e-16
1.25994e-15
1.80213e-15
2.49217e-15
3.27031e-15
4.03541e-15
5.27268e-15
7.58331e-15
1.08857e-14
1.4907e-14
1.83965e-14
2.07621e-14
2.13509e-14
1.98919e-14
1.60975e-14
1.12588e-14
6.16656e-15
3.31395e-15
1.1712e-24
1.41051e-22
1.35316e-20
3.07934e-19
3.49724e-18
2.05301e-17
7.81859e-17
1.36448e-16
2.17316e-16
3.28741e-16
4.46697e-16
6.64979e-16
1.05194e-15
1.59673e-15
2.22578e-15
2.82627e-15
3.22011e-15
3.23245e-15
2.77828e-15
2.04712e-15
1.2679e-15
6.81839e-16
5.1801e-16
1.84617e-26
2.89087e-24
4.30619e-22
1.21965e-20
1.4352e-19
9.80043e-19
4.03317e-18
9.07879e-18
1.73866e-17
2.95456e-17
4.54972e-17
7.75078e-17
1.32283e-16
2.10805e-16
3.00295e-16
3.89522e-16
4.33904e-16
4.03529e-16
3.19827e-16
2.15489e-16
1.31714e-16
9.76347e-17
1.60391e-16
3.33505e-28
5.34908e-26
1.02435e-23
3.65607e-22
4.70059e-21
3.75584e-20
1.74343e-19
5.1117e-19
1.22519e-18
2.38124e-18
4.24804e-18
8.10325e-18
1.47281e-17
2.48342e-17
3.66692e-17
4.70722e-17
5.0062e-17
4.43212e-17
3.29227e-17
2.24233e-17
1.75049e-17
2.46449e-17
7.34165e-17
2.63536e-29
1.15514e-27
2.10968e-25
9.50123e-24
1.41576e-22
1.20201e-21
6.64879e-21
2.51628e-20
7.78214e-20
1.71141e-19
3.54836e-19
7.54491e-19
1.48308e-18
2.59901e-18
3.96391e-18
4.98239e-18
5.15366e-18
4.49496e-18
3.44921e-18
3.00003e-18
3.92435e-18
9.41799e-18
3.47656e-17
4.8556e-30
7.36469e-29
4.40149e-27
2.33096e-25
3.88098e-24
3.62796e-23
2.45098e-22
1.11401e-21
4.35409e-21
1.08833e-20
2.59211e-20
6.26781e-20
1.3078e-19
2.43389e-19
3.80198e-19
4.86576e-19
5.2245e-19
4.89014e-19
4.65033e-19
6.0546e-19
1.14707e-18
3.48444e-18
1.8663e-17
9.16812e-31
1.17256e-29
1.74066e-28
6.2745e-27
1.15707e-25
1.19461e-24
9.3213e-24
5.24174e-23
2.47955e-22
6.94318e-22
1.87742e-21
4.94551e-21
1.15101e-20
2.28749e-20
3.70247e-20
5.0918e-20
6.02798e-20
6.75676e-20
8.66152e-20
1.61073e-19
3.96874e-19
1.97915e-18
1.16022e-17
1.57614e-31
2.04814e-30
2.12815e-29
3.01755e-28
4.72047e-27
4.80978e-26
3.9085e-25
2.50215e-24
1.3962e-23
4.57639e-23
1.43607e-22
4.24364e-22
1.08185e-21
2.31733e-21
4.09655e-21
6.18866e-21
8.66174e-21
1.18447e-20
1.95725e-20
4.81614e-20
1.9685e-19
1.0452e-18
6.9829e-18
2.39674e-32
3.56555e-31
3.81522e-30
3.84496e-29
4.03774e-28
3.52144e-27
2.69081e-26
1.86728e-25
1.11191e-24
4.26708e-24
1.50314e-23
4.73751e-23
1.28099e-22
2.93997e-22
5.63898e-22
9.30475e-22
1.50355e-21
2.43145e-21
5.02044e-21
1.72669e-20
8.74827e-20
4.86946e-19
3.38857e-18
0.404793
0.713508
0.895618
0.781053
0.814177
0.932629
0.941968
0.756871
0.997689
0.999402
0.99739
0.853548
0.999999
0.999999
0.999987
0.977052
0.999997
0.999993
0.999991
0.999984
0.999993
0.999989
0.999988
0.999996
0.999998
0.999996
0.999998
0.999999
1
1
1
1
1
1
1
1
0.844544
0.80074
0.65364
0.474298
0.0748472
0.045733
0.0135242
0.000766872
1.85278e-06
1.15232e-06
9.7484e-07
1.17727e-06
1.7141e-06
1.56516e-06
1.05823e-06
8.20763e-07
1.3187e-06
1.21864e-07
2.41539e-07
2.57251e-07
1.5481e-07
8.90179e-08
9.68666e-08
6.47676e-08
2.27054e-08
2.84679e-08
2.68866e-08
1.44498e-08
7.03056e-09
2.3294e-09
1.53661e-09
1.36962e-09
3.82467e-09
2.93671e-09
2.74882e-09
2.51087e-09
9.31993e-09
9.14309e-09
8.86625e-09
7.19804e-09
1.56448e-08
1.58447e-08
1.4385e-08
1.38878e-08
1.41608e-08
1.34294e-08
1.30539e-08
1.24335e-08
8.12859e-09
8.32162e-09
8.35129e-09
8.07366e-09
4.36445e-09
4.35208e-09
4.49355e-09
4.42177e-09
2.32885e-09
2.25776e-09
2.26996e-09
2.1919e-09
1.14495e-09
1.103e-09
1.08721e-09
1.03839e-09
5.14069e-10
4.86669e-10
4.60942e-10
4.27198e-10
2.0453e-10
1.92154e-10
1.76464e-10
1.60534e-10
7.19954e-11
6.55417e-11
5.75596e-11
5.08687e-11
2.10985e-11
1.81899e-11
1.57629e-11
1.33946e-11
5.10342e-12
4.28996e-12
3.47047e-12
2.79626e-12
9.74401e-13
7.59776e-13
5.90424e-13
4.5222e-13
1.56798e-13
1.15396e-13
8.21119e-14
5.84239e-14
1.97413e-14
1.36753e-14
9.86363e-15
7.73922e-15
2.45841e-15
2.02338e-15
1.96698e-15
2.28506e-15
5.29085e-16
6.33058e-16
8.57818e-16
1.27468e-15
2.15926e-16
2.96466e-16
4.64457e-16
8.80248e-16
1.06072e-16
1.63897e-16
3.13212e-16
7.43101e-16
5.57255e-17
9.9999e-17
2.77301e-16
8.25368e-16
3.3868e-17
8.20791e-17
2.77602e-16
8.8161e-16
2.54577e-17
8.07646e-17
2.84048e-16
9.17159e-16
1.62895e-17
6.66073e-17
2.40544e-16
7.36431e-16
1.33776e-17
4.53876e-17
1.40381e-16
3.63743e-16
0.739617
0.0571658
0.00043182
9.61587e-06
0.00798545
0.0456493
0.0737621
0.118063
0.162965
0.236368
0.360608
0.538165
0.708367
0.891743
0.987215
0.99869
0.998844
0.93944
0.735241
0.450171
0.00746712
0.000254649
0.0495636
0.425958
0.707915
0.785207
0.845201
0.892687
0.938147
0.996117
0.999552
0.999447
0.999397
0.999092
0.999106
0.999512
0.998596
0.759135
0.544999
0.054554
0.0763438
0.50905
0.981943
0.99954
0.999483
0.999551
0.999813
0.99996
0.999986
0.999978
0.999957
0.999953
0.99994
0.999926
0.999876
0.873378
0.580646
0.728171
0.602216
0.702306
0.949512
0.999999
1
1
1
1
1
1
1
0.999955
0.996145
0.978677
0.976671
0.980569
0.696668
0.55674
0.94989
0.926917
0.971958
0.999623
1
1
1
1
1
0.966424
0.853244
0.677615
0.58245
0.601094
0.607975
0.594426
0.595814
0.613169
0.525286
1
1
1
1
1
1
1
0.974001
0.804537
0.417751
0.0993986
0.0310563
0.0184776
0.0253166
0.0641535
0.0952191
0.0493075
0.0392522
0.0459922
1
1
1
1
1
0.983209
0.855344
0.41844
0.0141208
4.04096e-09
3.66926e-08
4.60355e-07
5.3196e-07
-6.75835e-18
-7.3327e-07
-2.3536e-06
-1.94137e-07
7.01917e-08
5.23629e-07
1
1
1
0.999675
0.924124
0.434698
0.00418886
3.25102e-08
4.0616e-09
2.36831e-09
4.06193e-09
2.09341e-07
1.14903e-05
0.00188889
0.00499794
0.00532547
0.000569011
8.49637e-07
1.03135e-06
1
0.974763
0.779811
0.292897
0.000158329
3.25388e-08
3.25102e-08
2.03683e-08
3.25102e-08
0.000468762
0.000169664
3.04332e-07
0.000195754
0.00432533
0.00433142
0.000344625
5.8664e-05
7.37747e-07
9.48353e-07
0.342845
0.160065
0.0189562
1.18877e-07
1.8112e-07
2.69716e-07
2.26188e-07
1.63021e-05
0.000712194
0.00116322
0.00116195
1.06071e-05
0.000157918
0.0014604
0.000147856
2.6176e-07
9.73725e-08
2.0995e-07
3.19857e-07
2.12981e-07
1.11778e-07
1.15281e-07
1.19067e-07
5.05551e-07
1.01217e-06
4.00235e-07
7.50857e-05
0.000661869
0.000966299
0.000671324
4.04816e-05
1.61778e-05
2.17157e-07
2.60004e-07
2.46489e-07
8.72119e-08
1.69206e-07
1.54472e-06
7.11481e-07
3.17652e-07
1.21369e-07
3.6549e-07
1.8264e-06
2.79927e-06
8.3263e-06
2.91757e-05
3.57588e-05
3.81356e-05
9.72024e-06
2.84816e-05
1.35912e-07
1.94664e-07
2.44512e-07
2.03061e-07
2.63299e-08
2.95892e-07
1.72656e-06
4.55372e-07
8.67141e-08
6.36432e-08
4.09067e-07
1.15788e-06
1.30993e-06
1.54122e-06
4.59687e-09
7.1903e-09
1.10941e-08
1.64979e-08
1.10171e-07
1.30058e-07
1.49684e-07
1.10725e-07
3.65299e-08
1.97319e-08
3.34835e-07
1.72672e-06
1.37423e-07
1.77743e-08
2.78723e-08
5.25728e-08
8.97953e-09
1.25762e-08
4.09959e-08
4.56205e-09
4.34829e-09
6.12878e-09
1.22292e-08
6.71867e-09
4.674e-08
3.52444e-08
1.6406e-08
6.41558e-09
1.54878e-08
3.24546e-07
1.3395e-06
3.5953e-08
6.0133e-09
1.08814e-08
5.38396e-09
2.33216e-09
2.34706e-09
2.41628e-09
4.82668e-09
5.98428e-09
7.38632e-09
8.61618e-09
7.61589e-09
1.01619e-08
6.70039e-09
4.53974e-09
4.27846e-09
3.17468e-08
2.72732e-07
3.46796e-07
7.84237e-09
1.57527e-09
2.62493e-09
2.90168e-09
2.31208e-09
2.426e-09
2.95056e-09
3.54855e-09
3.85853e-09
4.14294e-09
4.28171e-09
4.06241e-09
3.89472e-09
3.7142e-09
3.9804e-09
4.89087e-09
1.56137e-08
1.75739e-07
8.25677e-08
1.32261e-09
1.28968e-09
1.07606e-09
1.08057e-09
1.26457e-09
1.36718e-09
1.65713e-09
1.9894e-09
2.16488e-09
2.25304e-09
2.27631e-09
2.26066e-09
2.31149e-09
2.63663e-09
3.26502e-09
3.86081e-09
6.40697e-09
3.60754e-08
6.89812e-08
2.21387e-09
1.6113e-09
1.19775e-09
9.6737e-10
8.11605e-10
7.19237e-10
7.35191e-10
9.30406e-10
1.04436e-09
1.1183e-09
1.21879e-09
1.30604e-09
1.5e-09
1.93651e-09
2.7816e-09
3.80829e-09
4.47855e-09
7.14543e-09
1.94078e-08
5.74474e-09
3.26066e-09
1.96351e-09
1.42308e-09
9.05437e-10
6.50385e-10
5.34188e-10
5.02131e-10
4.96746e-10
5.5025e-10
6.68652e-10
8.09235e-10
1.04198e-09
1.54894e-09
2.46502e-09
3.81362e-09
5.68943e-09
7.06966e-09
7.17493e-09
1.22123e-08
7.79604e-09
4.30235e-09
2.38269e-09
1.27361e-09
7.38229e-10
4.60606e-10
3.27367e-10
2.75875e-10
2.74773e-10
3.6956e-10
5.47139e-10
8.22185e-10
1.35311e-09
2.34537e-09
3.95293e-09
6.73191e-09
7.80664e-09
7.72495e-09
1.1509e-08
8.94877e-09
5.38347e-09
3.18999e-09
1.62914e-09
8.94663e-10
4.74253e-10
2.71579e-10
1.85104e-10
1.653e-10
2.27412e-10
4.09204e-10
7.19967e-10
1.30126e-09
2.34521e-09
4.16632e-09
8.07627e-09
1.08357e-08
1.12607e-08
7.65291e-09
6.28425e-09
4.30269e-09
2.80182e-09
1.53474e-09
8.58794e-10
4.45065e-10
2.33083e-10
1.41114e-10
1.22992e-10
1.7973e-10
3.60426e-10
7.0354e-10
1.33878e-09
2.45455e-09
4.61487e-09
9.50194e-09
1.47179e-08
1.27269e-08
4.20312e-09
3.55428e-09
2.6007e-09
1.78996e-09
1.04675e-09
6.01383e-10
3.17945e-10
1.66998e-10
1.02911e-10
1.00608e-10
1.7296e-10
3.73183e-10
7.48803e-10
1.44406e-09
2.65934e-09
5.23908e-09
1.19622e-08
1.8523e-08
1.50656e-08
2.047e-09
1.73016e-09
1.28863e-09
9.06365e-10
5.49782e-10
3.18777e-10
1.73543e-10
9.69869e-11
7.08773e-11
9.24289e-11
1.92375e-10
4.13094e-10
8.4547e-10
1.60751e-09
2.97438e-09
6.49821e-09
1.53813e-08
2.74705e-08
1.85616e-08
9.10406e-10
7.40836e-10
5.44239e-10
3.72693e-10
2.31673e-10
1.34454e-10
7.67765e-11
5.00887e-11
5.27823e-11
9.91478e-11
2.19155e-10
4.80644e-10
9.83914e-10
1.83259e-09
3.45607e-09
7.70704e-09
2.11263e-08
3.73922e-08
2.61861e-08
3.53358e-10
2.82107e-10
2.04292e-10
1.34313e-10
8.3554e-11
4.80105e-11
3.06667e-11
2.9311e-11
5.10574e-11
1.13869e-10
2.62239e-10
5.79026e-10
1.16717e-09
2.10768e-09
3.91856e-09
1.08826e-08
2.97591e-08
5.59256e-08
3.47598e-08
1.26204e-10
9.41733e-11
6.33588e-11
4.01094e-11
2.39132e-11
1.49846e-11
1.45711e-11
2.56971e-11
5.9018e-11
1.39262e-10
3.23279e-10
7.08006e-10
1.38107e-09
2.41911e-09
4.88823e-09
1.29202e-08
4.33672e-08
9.03673e-08
4.11262e-08
3.68329e-11
2.5833e-11
1.63577e-11
1.01521e-11
6.57283e-12
6.67201e-12
1.26394e-11
3.03348e-11
7.40225e-11
1.75694e-10
4.05138e-10
8.74087e-10
1.67105e-09
2.80217e-09
5.48832e-09
1.9666e-08
5.86318e-08
1.10289e-07
4.41269e-08
8.97455e-12
5.75607e-12
3.31962e-12
2.31341e-12
2.71848e-12
5.84446e-12
1.52007e-11
3.83362e-11
9.34848e-11
2.20743e-10
5.04014e-10
1.06766e-09
1.97989e-09
3.12715e-09
6.37905e-09
2.59994e-08
8.11365e-08
1.09986e-07
4.39495e-08
1.66294e-12
9.80431e-13
6.76936e-13
1.04166e-12
2.66143e-12
7.33916e-12
1.89703e-11
4.83673e-11
1.1661e-10
2.74538e-10
6.21843e-10
1.29395e-09
2.33501e-09
3.41335e-09
8.3565e-09
3.60418e-08
8.94438e-08
1.10271e-07
4.08916e-08
2.56697e-13
1.75523e-13
3.42478e-13
1.09167e-12
3.30514e-12
9.08602e-12
2.32216e-11
5.89345e-11
1.42625e-10
3.36188e-10
7.46217e-10
1.56187e-09
2.67413e-09
4.32454e-09
1.01004e-08
3.99815e-08
9.72248e-08
1.09498e-07
3.11545e-08
3.7416e-14
8.25425e-14
3.67261e-13
1.25985e-12
3.89019e-12
1.05426e-11
2.72204e-11
6.81306e-11
1.67875e-10
3.96787e-10
8.84155e-10
1.8216e-09
3.2021e-09
5.5437e-09
1.28309e-08
4.15137e-08
9.5732e-08
7.23127e-08
1.89461e-08
1.45083e-14
8.40695e-14
4.1413e-13
1.41674e-12
4.14914e-12
1.1383e-11
3.00726e-11
7.64959e-11
1.91129e-10
4.53337e-10
1.0188e-09
2.0425e-09
3.67471e-09
6.53291e-09
1.38561e-08
3.58569e-08
6.43086e-08
3.83467e-08
9.55012e-09
1.46879e-14
9.7309e-14
4.37238e-13
1.4234e-12
4.20225e-12
1.18386e-11
3.14905e-11
8.19239e-11
2.08244e-10
5.01711e-10
1.10585e-09
2.18535e-09
4.02649e-09
6.91336e-09
1.25467e-08
2.47094e-08
2.43923e-08
1.1967e-08
4.10121e-09
1.58588e-14
1.03051e-13
4.12023e-13
1.3451e-12
4.0237e-12
1.1722e-11
3.1875e-11
8.47529e-11
2.1256e-10
5.15828e-10
1.12774e-09
2.19814e-09
4.06665e-09
6.35344e-09
9.37845e-09
1.36864e-08
5.81236e-09
3.50532e-09
1.63534e-09
1.53668e-14
9.10201e-14
3.51603e-13
1.18747e-12
3.75871e-12
1.10452e-11
3.05527e-11
8.06061e-11
2.03498e-10
4.83981e-10
1.04443e-09
1.99754e-09
3.62423e-09
5.25687e-09
5.5702e-09
5.81874e-09
3.44949e-09
8.20909e-10
5.90817e-10
1.40527e-14
7.54084e-14
2.91874e-13
1.03695e-12
3.28061e-12
9.69233e-12
2.67355e-11
6.9808e-11
1.73175e-10
4.07312e-10
8.6119e-10
1.58704e-09
2.71737e-09
3.67713e-09
3.26597e-09
1.84658e-09
6.68314e-10
2.43954e-10
2.03442e-10
1.24653e-14
6.03426e-14
2.37667e-13
8.28299e-13
2.60519e-12
7.6318e-12
2.0771e-11
5.29196e-11
1.27374e-10
2.90946e-10
5.96446e-10
1.05379e-09
1.62697e-09
2.08742e-09
2.00589e-09
1.09889e-09
4.30062e-10
1.66623e-10
8.32446e-11
9.88113e-15
4.37201e-14
1.69543e-13
5.62747e-13
1.77028e-12
5.03084e-12
1.34017e-11
3.32465e-11
7.74387e-11
1.70515e-10
3.38872e-10
5.77648e-10
8.04154e-10
1.03734e-09
1.02376e-09
5.89535e-10
2.44121e-10
9.18589e-11
3.99056e-11
6.69482e-15
2.69407e-14
9.64529e-14
3.05937e-13
8.79474e-13
2.38137e-12
6.15144e-12
1.49952e-11
3.3875e-11
7.13498e-11
1.36402e-10
2.29964e-10
3.08293e-10
3.87329e-10
3.59258e-10
2.14961e-10
7.72517e-11
2.82593e-11
2.0992e-11
3.4799e-15
1.23747e-14
4.04933e-14
1.20707e-13
3.35923e-13
8.86611e-13
2.1731e-12
5.22781e-12
1.15595e-11
2.35093e-11
4.26656e-11
6.93202e-11
9.41242e-11
1.08703e-10
9.34477e-11
4.94587e-11
1.37895e-11
9.24869e-12
7.70463e-12
9.90728e-16
3.05005e-15
9.13479e-15
2.5227e-14
6.55605e-14
1.69384e-13
3.89144e-13
8.4646e-13
1.9091e-12
3.82381e-12
6.96929e-12
1.1261e-11
1.54157e-11
1.62292e-11
1.40198e-11
7.0561e-12
2.98367e-12
1.72455e-12
1.19003e-12
)
;

boundaryField
{
    leftWall
    {
        type            alphaContactAngle;
        contactAngleProperties 
        {
            mercury         
            {
                theta0          90;
            }
            air             
            {
                theta0          90;
            }
            water           
            {
                theta0          90;
            }
        }
        value           nonuniform List<scalar> 
50
(
1.419e-16
4.38079e-16
7.29819e-16
7.66155e-16
2.58723e-16
7.85997e-16
3.60375e-13
1.12361e-11
1.51991e-10
1.47965e-09
6.31635e-09
1.4464e-08
2.11024e-08
2.02787e-08
3.74039e-08
5.46178e-05
0.00286438
0.00639627
0.0051261
0.000314288
9.89526e-07
9.14695e-07
2.45978e-07
2.37293e-08
2.12083e-08
1.16594e-08
7.39685e-09
3.26518e-09
1.25235e-09
4.16412e-10
9.25471e-11
2.11705e-11
3.85161e-12
6.76425e-13
8.08982e-14
9.35431e-15
6.54079e-16
4.66555e-17
1.65281e-18
8.41892e-20
2.032e-21
5.8043e-23
1.1712e-24
1.84617e-26
3.33505e-28
2.63536e-29
4.8556e-30
9.16812e-31
1.57614e-31
2.39674e-32
)
;
    }
    rightWall
    {
        type            alphaContactAngle;
        contactAngleProperties 
        {
            mercury         
            {
                theta0          90;
            }
            air             
            {
                theta0          90;
            }
            water           
            {
                theta0          90;
            }
        }
        value           nonuniform List<scalar> 
50
(
0.276329
0.277359
0.520172
0.52018
0.520696
0.508842
0.404679
0.636603
0.735241
0.759135
0.580646
0.55674
0.525286
0.0459922
5.23629e-07
1.03135e-06
9.48353e-07
3.19857e-07
1.54472e-06
1.72656e-06
1.72672e-06
1.3395e-06
3.46796e-07
8.25677e-08
6.89812e-08
1.94078e-08
7.17493e-09
7.72495e-09
1.12607e-08
1.27269e-08
1.50656e-08
1.85616e-08
2.61861e-08
3.47598e-08
4.11262e-08
4.41269e-08
4.39495e-08
4.08916e-08
3.11545e-08
1.89461e-08
9.55012e-09
4.10121e-09
1.63534e-09
5.90817e-10
2.03442e-10
8.32446e-11
3.99056e-11
2.0992e-11
7.70463e-12
1.19003e-12
)
;
    }
    lowerWall
    {
        type            alphaContactAngle;
        contactAngleProperties 
        {
            mercury         
            {
                theta0          90;
            }
            air             
            {
                theta0          90;
            }
            water           
            {
                theta0          90;
            }
        }
        value           nonuniform List<scalar> 
62
(
1.419e-16
2.75995e-15
3.41095e-14
1.56876e-13
4.19662e-13
9.6887e-13
2.18877e-12
4.79626e-12
9.61799e-12
1.94447e-11
3.89583e-11
8.86445e-11
1.8266e-10
3.63629e-10
7.1843e-10
1.36666e-09
2.28561e-09
3.95454e-09
4.47842e-09
4.86674e-09
8.62115e-06
0.000499599
0.0005684
0.0005684
0.000568192
0.000264357
2.10261e-05
8.5099e-06
0.00135303
0.000504938
2.15653e-07
0.404793
0.713508
0.895618
0.781053
0.249451
0.657649
0.909346
0.908183
0.892042
0.872325
0.886189
0.889662
0.249451
0.122114
0.0894775
0.0364968
0.121683
0.383583
0.387722
0.393265
0.388695
0.383621
0.317
0.268839
0.0638764
0.0620327
0.140921
0.18123
0.274698
0.276618
0.276329
)
;
    }
    atmosphere
    {
        type            inletOutlet;
        inletValue      uniform 0;
        value           nonuniform List<scalar> 
46
(
0
0
0
0
0
0
0
0
0
0
0
0
0
0
0
0
0
0
0
0
0
0
0
0
0
0
0
0
0
0
0
0
0
0
8.4646e-13
1.9091e-12
3.82381e-12
6.96929e-12
1.12611e-11
1.54157e-11
1.62292e-11
1.40198e-11
7.0561e-12
2.98367e-12
1.72455e-12
1.19003e-12
)
;
    }
    defaultFaces
    {
        type            empty;
    }
}


// ************************************************************************* //
