/*--------------------------------*- C++ -*----------------------------------*\
  =========                 |
  \\      /  F ield         | OpenFOAM: The Open Source CFD Toolbox
   \\    /   O peration     | Website:  https://openfoam.org
    \\  /    A nd           | Version:  13
     \\/     M anipulation  |
\*---------------------------------------------------------------------------*/
FoamFile
{
    format      ascii;
    class       volScalarField;
    location    "1.3";
    object      alphas;
}
// * * * * * * * * * * * * * * * * * * * * * * * * * * * * * * * * * * * * * //

dimensions      [];

internalField   nonuniform List<scalar> 
2268
(
2
2
2
2
2
2
2
2
2
2
2
2
2
2
2
2
2
2
2
2
1.99999
1.9995
1.99943
2
2
2
2
2
2
2
2
2
2
2
2
2
2
2
2
2
2
2
2
2
1.9999
1.99943
2
2
2
2
2
2
2
2
2
2
2
2
2
2
2
2
2
2
2
2
2
2
1.99974
2
2
2
2
2
2
2
2
2
2
2
2
2
2
2
2
2
2
2
2
2
2
1.99998
2
2
2
2
2
2
2
2
2
2
2
2
2
2
2
2
2
2
2
2
2
2
1.99999
1.73731
1.77231
1.85187
1.94718
1.99672
2
2
2
2
2
2
2
2
2
2
2
1.96782
1.82859
1.69653
1.59073
1.54188
1.5698
1.65882
0.209145
0.255124
0.36128
0.590162
0.956565
1.36288
1.64818
1.8351
1.92368
1.9582
1.98398
1.99698
1.9411
1.74513
1.41226
0.994713
0.604847
0.373148
0.238881
0.161149
0.132526
0.150817
0.270397
1.95452e-09
1.4605e-09
1.16614e-09
1.10894e-09
9.70084e-10
0.0364077
0.213989
0.449499
0.691279
0.822073
0.805383
0.642258
0.427127
0.214231
0.0594769
0.00247879
8.85361e-07
2.82207e-06
3.58375e-05
3.4578e-05
0.00160972
0.129199
0.527702
1.75055
1.87324
1.88237
1.96161
1.91049
1.69996
1.69879
1.67164
1.64978
1.66349
1.81422
1.89647
1.93721
1.8159
1.65798
1.58701
1.68097
1.69928
1.70001
1.34235
1.63646
1.77319
1.74881
1.75079
1.75993
1.77227
1.81586
1.96274
2.0228
1.92629
1.9589
2.22828
2.10502
1.8617
1.58488
1.58583
1.73032
1.70068
1.09099
1.11101
1.31197
1.24756
0.942085
0.925802
0.940833
1.57642
2.35848
2.45395
2.21241
2.05627
2.1527
2.24753
2.25976
2.14347
1.94166
1.77632
1.46895
1.09441
1.1353
0.926993
0.155742
0.00146605
0.00563612
0.0806711
1.1691
1.87203
2.02103
2.2027
2.24383
2.11559
2.10452
2.15001
2.20697
2.19952
1.7733
1.32497
1.11153
1.43604
0.618574
0.000296075
0.000367289
0.000464429
0.00504476
0.1193
0.554887
0.977381
1.41509
1.84211
1.90056
1.28698
1.06636
1.2435
1.23182
0.959908
0.972584
1.13161
1.36648
0.165099
0.000222794
0.00020701
0.00154627
0.00496425
0.00476061
0.00117525
0.0552703
0.179801
0.493449
0.607449
0.309508
0.313793
0.319252
0.314811
0.480783
0.750321
1.11356
1.11232
0.00131455
0.000201618
0.000191498
0.000314182
0.00052065
0.000247898
0.000299771
0.000296371
0.000268116
0.116051
0.121877
0.169775
0.252542
0.302671
0.265831
0.395246
0.788018
1.10601
0.487622
0.00594343
0.00021975
0.000228284
0.000181106
0.000217944
0.000179044
0.000340804
0.000630836
0.000567458
0.0115633
0.149677
0.475683
0.736382
0.822387
0.702642
0.693795
1.02297
5.99478e-09
5.09331e-09
3.72541e-09
3.19746e-09
1.9853e-09
1.69447e-09
1.45745e-09
1.01363e-09
3.74658e-09
2.25664e-09
1.20584e-09
1.80082e-09
2.4639e-09
2.74137e-09
2.2452e-08
8.301e-08
3.46982e-08
1.21627e-07
1.1029e-07
3.66389e-07
0.105474
0.88599
0.961192
1.06458e-08
1.27274e-08
1.30944e-08
1.54128e-08
1.80071e-08
1.33171e-08
7.18792e-09
4.28939e-09
2.53269e-09
2.23927e-09
2.01025e-09
4.08841e-09
6.43862e-09
9.33213e-09
1.78999e-08
1.37123e-08
8.96873e-09
4.61691e-09
1.18412e-08
0.170308
0.569787
1.2855
1.37514
2.04072e-08
1.97641e-08
1.92112e-08
2.18354e-08
2.98875e-08
3.93305e-08
2.88834e-08
1.93622e-08
9.44309e-09
4.92806e-09
4.87802e-09
6.1346e-09
9.00251e-09
1.14093e-08
1.13746e-08
8.63833e-09
5.19894e-09
0.0481867
0.493655
0.6346
1.22512
1.08518
1.01104
3.57664e-08
2.41614e-08
2.01772e-08
2.20061e-08
1.36733e-07
1.51688e-07
1.21047e-07
8.90513e-08
5.31302e-08
2.27799e-08
1.77677e-08
2.36417e-08
2.13573e-08
1.17442e-08
1.91622e-09
0.116946
0.565793
0.72095
1.08313
1.2818
1.05038
1.00004
1
4.54637e-08
1.62444e-08
1.00323e-08
1.35235e-08
0.00067449
0.00326076
0.00740407
0.00851236
0.0108218
0.0483072
0.0658618
0.0506852
0.135672
0.555748
0.817409
0.926918
1.27188
1.2863
1.11276
1.00877
1
1
1
3.19401e-08
1.80368e-08
1.17716e-06
0.0374226
0.134542
0.315929
0.555758
0.587619
0.600325
0.766641
1.04223
1.06807
1.19619
1.39085
1.37621
1.21985
1.07764
1.00751
1.00002
0.999999
1
1
1
5.10543e-08
0.000385441
0.234343
0.680359
0.906441
1.14343
1.41238
1.41959
1.41911
1.46248
1.38953
1.29903
1.19014
1.08159
1.02067
1.00023
1
1
0.999999
0.999999
1
1
1
0.96135
1.08623
1.69704
1.07198
1.00747
1.03628
1.03816
1.09956
1
1.0297
1
1
1
1
1
1.00001
1.00001
1
1
1
1
1
1
2.98735
2.88902
1.7874
1.01301
1.00203
0.999984
0.999994
0.999999
0.999999
1
1
1
1
1
1
1
1
1
1
1
1
1
1
2.98721
2.85809
2.44206
2.30588
1.98529
1.59256
1.34648
1.18444
1.0831
1.02686
1.00558
1
1
1
1
1
1
1
1
1
1.01193
1.12345
1.24313
2.98975
2.97639
2.99998
2.99993
2.9999
2.98519
2.8424
2.66653
2.45356
2.23408
2.03725
1.87124
1.74489
1.67467
1.65408
1.66284
1.71233
1.82318
1.96862
2.13707
2.39229
2.62929
2.76994
2.99937
3
3
3
3
3
3
3
3
3
3
3
3
2.99266
2.97677
2.96942
2.97316
2.98516
2.99545
2.99981
3
3
3
3
3
3
3
3
3
3
3
3
3
3
3
3
3
3
3
3
3
3
3
3
3
3
3
2.99999
2.99999
3
3
3
3
3
3
2.99999
2.99999
2.99999
3
3
3
3
3
3
3
3
3
3
3
3
3
3
3
3
3
3
3
3
2.99997
2.9998
2.9998
2.99998
3
3
3
3
3
3
3
3
3
3
3
3
3
3
3
3
3
3
3
2.99998
2.99967
2.99965
2.99976
2.99999
2.99999
3
3
2.99999
2.99999
3
3
3
3
3
3
3
3
3
3
3
3
3
3
2.9999
2.99964
2.99965
2.99974
2.99999
2.99999
2.99999
2.99999
2.99999
2.99999
3
3
3
3
3
3
3
3
3
3
3
3
3
3
2.99999
2.99972
2.99968
2.99977
2.99999
2.99999
2.99999
2.99999
2.99999
3
3
3
3
3
3
3
3
3
3
3
3
3
3
3
3
2.99995
2.99991
2.99994
3
3
3
3
3
3
3
3
3
3
3
3
3
3
3
3
3
3
3
3
3
3
2.99999
2.99999
3
3
3
3
3
3
3
3
3
3
3
3
3
3
3
3
3
3
3
3
3
3
3
3
3
3
3
3
3
3
3
3
3
3
3
3
3
3
3
3
3
3
3
3
3
3
3
3
3
3
3
3
3
3
3
3
3
3
3
3
3
3
3
3
3
3
3
3
3
3
3
3
3
3
3
3
3
3
3
3
3
3
3
3
3
3
3
3
3
3
3
3
3
3
3
3
3
3
3
3
3
3
3
3
3
3
3
3
3
3
3
3
3
3
3
3
3
3
3
3
3
3
3
3
3
3
3
3
3
3
3
3
3
3
3
3
3
3
3
3
3
3
3
3
3
3
3
3
3
3
3
3
3
3
3
3
3
3
3
3
3
3
3
3
3
3
3
3
3
3
3
3
3
3
3
3
3
3
3
3
3
3
3
3
3
3
3
3
3
3
3
3
3
3
3
3
3
3
3
3
3
3
3
3
3
3
3
3
3
3
3
3
3
3
3
3
3
3
3
3
3
3
3
3
3
3
3
3
3
3
3
3
3
3
3
3
3
3
3
3
3
3
3
3
3
3
3
3
3
3
3
3
3
3
3
3
3
3
3
3
3
3
3
3
3
3
3
3
3
3
3
3
3
3
3
3
3
3
3
3
3
3
3
3
3
3
3
3
3
3
3
3
3
3
3
3
3
3
3
3
3
3
3
3
3
3
3
3
3
3
3
3
3
3
3
3
3
3
3
3
3
3
3
3
3
3
3
3
3
3
3
3
3
3
3
3
3
3
3
3
3
3
3
3
3
3
3
3
3
3
3
3
3
3
3
3
3
3
3
3
3
3
3
3
3
3
3
3
3
3
3
3
3
3
3
3
3
3
3
3
3
3
3
3
3
3
3
3
3
3
3
3
3
3
3
3
3
3
3
3
3
3
3
3
3
3
3
3
3
3
3
3
3
3
3
3
3
3
3
3
3
3
3
3
3
3
3
3
3
3
3
3
3
3
3
3
3
3
3
3
3
3
3
3
3
3
3
3
3
3
3
3
3
3
3
3
3
3
3
3
3
3
3
3
3
3
3
3
3
3
3
3
3
3
3
3
3
3
3
3
3
3
3
3
3
3
3
3
3
3
3
3
3
3
3
3
3
3
3
3
3
3
3
3
3
3
3
3
3
3
3
3
1.16071
1.41967
1.20871
1.16305
1.24457
1.07726
1.11584
1.29066
1.00462
0.999511
1.00518
1.28573
1
1
0.999989
1.04589
1
1.00001
0.999998
1.00002
1.00001
1.00002
1.00001
0.999998
1
1.00001
1
0.999999
1
1
1
1
1
1
1
1
1.31091
1.39852
1.69272
2.0514
2.85031
2.90853
2.97295
2.99847
3
3
3
3
3
3
3
3
3
3
3
3
3
3
3
3
3
3
3
3
3
3
3
3
3
3
3
3
3
3
3
3
3
3
3
3
3
3
3
3
3
3
3
3
3
3
3
3
3
3
3
3
3
3
3
3
3
3
3
3
3
3
3
3
3
3
3
3
3
3
3
3
3
3
3
3
3
3
3
3
3
3
3
3
3
3
3
3
3
3
3
3
3
3
3
3
3
3
3
3
3
3
3
3
3
3
3
3
3
3
3
3
3
3
3
3
3
3
3
3
3
3
3
3
1.23551
0.153125
0.00296485
0.00759465
0.023642
0.0568608
0.0775658
0.118425
0.163516
0.236978
0.361547
0.53922
0.70915
0.893682
0.9906
1.00224
1.00227
0.939446
1.05833
1.16471
0.137319
0.177747
0.241065
0.493222
0.730599
0.792428
0.845843
0.893022
0.938464
0.996702
1.00072
1.00104
1.00119
1.00179
1.00178
1.00097
0.998599
1.3465
1.23046
0.622978
0.605125
0.910405
1.0066
1.00082
1.00103
1.0009
1.00037
1.00008
1.00003
1.00004
1.00006
1.00008
1.0001
1.00014
1.00017
1.24301
1.75453
1.24759
1.15878
1.25016
1.08434
1
1
1
1
1
1
1
1
1.00009
1.00768
1.0426
1.04664
1.03369
1.53251
1.80137
1.09819
1.14608
1.05587
1.00072
1
1
1
1
1
1.06715
1.29351
1.64477
1.8351
1.79777
1.78399
1.81107
1.80568
1.75101
1.89052
1
1
1
1
1
1
1
1.052
1.39093
2.1645
2.8012
2.93789
2.96304
2.94935
2.87154
2.80905
2.90088
2.92144
2.90713
1
1
1
1
1
1.03358
1.28931
2.16312
2.97176
3
3
3
3
2.99997
2.99988
2.99977
2.99986
3
3
1
1
1
1.00065
1.15175
2.1306
2.99162
3
3
3
3
3
2.99997
2.99619
2.98996
2.98934
2.99886
3
3
1
1.05047
1.44038
2.41421
2.99968
3
3
3
3
2.99906
2.99966
3
2.9996
2.99134
2.99134
2.99931
2.99988
3
3
2.31431
2.67987
2.96209
3
3
3
3
2.99997
2.99858
2.99767
2.99768
2.99998
2.99968
2.99708
2.9997
3
3
3
3
3
3
3
3
3
3
3
2.99985
2.99868
2.99807
2.99866
2.99992
2.99997
3
3
3
3
3
3
3
3
3
3
3
2.99999
2.99998
2.99994
2.99993
2.99992
2.99998
2.99994
3
3
3
3
3
3
3
3
3
3
3
3
3
3
3
3
3
3
3
3
3
3
3
3
3
3
3
3
3
3
3
3
3
3
3
3
3
3
3
3
3
3
3
3
3
3
3
3
3
3
3
3
3
3
3
3
3
3
3
3
3
3
3
3
3
3
3
3
3
3
3
3
3
3
3
3
3
3
3
3
3
3
3
3
3
3
3
3
3
3
3
3
3
3
3
3
3
3
3
3
3
3
3
3
3
3
3
3
3
3
3
3
3
3
3
3
3
3
3
3
3
3
3
3
3
3
3
3
3
3
3
3
3
3
3
3
3
3
3
3
3
3
3
3
3
3
3
3
3
3
3
3
3
3
3
3
3
3
3
3
3
3
3
3
3
3
3
3
3
3
3
3
3
3
3
3
3
3
3
3
3
3
3
3
3
3
3
3
3
3
3
3
3
3
3
3
3
3
3
3
3
3
3
3
3
3
3
3
3
3
3
3
3
3
3
3
3
3
3
3
3
3
3
3
3
3
3
3
3
3
3
3
3
3
3
3
3
3
3
3
3
3
3
3
3
3
3
3
3
3
3
3
3
3
3
3
3
3
3
3
3
3
3
3
3
3
3
3
3
3
3
3
3
3
3
3
3
3
3
3
3
3
3
3
3
3
3
3
3
3
3
3
3
3
3
3
3
3
3
3
3
3
3
3
3
3
3
3
3
3
3
3
3
3
3
3
3
3
3
3
3
3
3
3
3
3
3
3
3
3
3
3
3
3
3
3
3
3
3
3
3
3
3
3
3
3
3
3
3
3
3
3
3
3
3
3
3
3
3
3
3
3
3
3
3
3
3
3
3
3
3
3
3
3
3
3
3
3
3
3
3
3
3
3
3
3
3
3
3
3
3
3
3
3
3
3
3
3
3
3
3
3
3
3
3
3
3
3
3
3
3
3
3
3
3
3
3
3
3
3
3
3
3
3
3
3
3
3
3
3
3
3
3
3
3
3
3
3
3
3
3
3
3
3
3
3
3
3
3
3
3
3
3
3
3
3
3
3
3
3
3
3
3
3
3
3
3
3
3
3
3
3
3
3
3
3
3
3
3
3
3
3
3
3
3
3
3
3
3
3
3
3
3
3
3
3
3
3
3
3
3
3
3
3
3
3
3
3
3
3
3
3
3
3
3
3
3
3
3
3
3
3
3
3
3
3
3
3
3
3
3
3
3
3
3
3
3
3
3
3
3
3
3
3
3
3
3
3
3
3
3
3
3
3
3
3
3
3
3
3
3
3
3
3
3
3
3
3
3
3
3
3
3
3
3
3
3
)
;

boundaryField
{
    leftWall
    {
        type            calculated;
        value           nonuniform List<scalar> 
50
(
2
2
2
2
2
1.73731
0.209145
1.95452e-09
5.99478e-09
1.06458e-08
2.04072e-08
3.57664e-08
4.54637e-08
3.19401e-08
5.10543e-08
0.96135
2.98735
2.98721
2.98975
2.99937
3
3
3
3
3
3
3
3
3
3
3
3
3
3
3
3
3
3
3
3
3
3
3
3
3
3
3
3
3
3
)
;
    }
    rightWall
    {
        type            calculated;
        value           nonuniform List<scalar> 
50
(
1.70001
1.70068
1.46895
1.32497
0.972584
0.750321
0.788018
1.02297
1.05833
1.3465
1.75453
1.80137
1.89052
2.90713
3
3
3
3
3
3
3
3
3
3
3
3
3
3
3
3
3
3
3
3
3
3
3
3
3
3
3
3
3
3
3
3
3
3
3
3
)
;
    }
    lowerWall
    {
        type            calculated;
        value           nonuniform List<scalar> 
62
(
2
2
2
2
2
2
2
2
2
2
2
2
2
2
2
2
2
2
2
2
1.99999
1.9995
1.99943
1.99943
1.99943
1.99974
1.99998
1.99999
1.65882
0.270397
0.527702
1.16071
1.41967
1.20871
1.16305
1.75055
1.34235
1.09099
1.09441
1.11153
1.13161
1.11356
1.10601
1.75055
1.87324
1.88237
1.96161
1.91049
1.69996
1.69879
1.67164
1.64978
1.66349
1.81422
1.89647
1.93721
1.8159
1.65798
1.58701
1.68097
1.69928
1.70001
)
;
    }
    atmosphere
    {
        type            calculated;
        value           nonuniform List<scalar> 
46
(
3
3
3
3
3
3
3
3
3
3
3
3
3
3
3
3
3
3
3
3
3
3
3
3
3
3
3
3
3
3
3
3
3
3
3
3
3
3
3
3
3
3
3
3
3
3
)
;
    }
    defaultFaces
    {
        type            empty;
    }
}


// ************************************************************************* //
