/*--------------------------------*- C++ -*----------------------------------*\
  =========                 |
  \\      /  F ield         | OpenFOAM: The Open Source CFD Toolbox
   \\    /   O peration     | Website:  https://openfoam.org
    \\  /    A nd           | Version:  13
     \\/     M anipulation  |
\*---------------------------------------------------------------------------*/
FoamFile
{
    format      ascii;
    class       volScalarField;
    location    "1.3";
    object      alpha.water;
}
// * * * * * * * * * * * * * * * * * * * * * * * * * * * * * * * * * * * * * //

dimensions      [];

internalField   nonuniform List<scalar> 
2268
(
2.39789e-11
3.66254e-11
4.89584e-11
5.53573e-11
5.7774e-11
5.79758e-11
5.61276e-11
5.53034e-11
5.78983e-11
6.61977e-11
8.10657e-11
1.05764e-10
1.34557e-10
1.70754e-10
2.21626e-10
2.95341e-10
3.97432e-10
5.60166e-10
9.23911e-10
1.46148e-09
2.07864e-09
2.53067e-09
2.58128e-09
7.16911e-11
1.61495e-10
1.91541e-10
1.85551e-10
1.86245e-10
2.00633e-10
2.11884e-10
2.17341e-10
2.18406e-10
2.27503e-10
2.60713e-10
3.10548e-10
3.64699e-10
4.01486e-10
4.32207e-10
4.85725e-10
6.36459e-10
9.84471e-10
1.55584e-09
2.33904e-09
3.2101e-09
3.33118e-09
2.82728e-09
4.77191e-10
7.13107e-10
6.51658e-10
4.8207e-10
3.92906e-10
4.23999e-10
4.97413e-10
5.7626e-10
6.55266e-10
7.31575e-10
8.21049e-10
9.77842e-10
1.04958e-09
1.02253e-09
7.44452e-10
6.35731e-10
7.74914e-10
1.01451e-09
1.34264e-09
1.87292e-09
2.82036e-09
3.0188e-09
2.76248e-09
2.19393e-09
1.43885e-09
9.87363e-10
7.01592e-10
5.48079e-10
5.77871e-10
7.1234e-10
9.05912e-10
1.2444e-09
1.61562e-09
1.94236e-09
2.12324e-09
2.14483e-09
1.61491e-09
8.48046e-10
5.61412e-10
5.97619e-10
6.7293e-10
6.95757e-10
7.6071e-10
9.47009e-10
8.25637e-10
7.79232e-10
9.3527e-09
7.08473e-09
-4.90785e-13
4.07348e-10
3.65858e-10
4.17792e-10
5.51143e-10
7.43765e-10
1.07617e-09
1.35875e-09
1.57078e-09
1.56221e-09
1.14035e-09
5.7134e-10
4.27928e-10
1.66759e-11
3.38625e-11
-3.87035e-12
-1.62295e-13
-4.49034e-27
0
1.46413e-27
-3.5414e-27
0.131343
0.113847
0.0740647
0.0264125
0.00164089
4.04366e-10
4.16814e-10
4.04661e-10
4.17514e-10
4.06283e-10
4.19198e-10
1.3596e-09
3.29712e-09
2.08168e-09
7.11745e-10
1.02008e-09
0.0160911
0.0857035
0.151733
0.20469
0.229136
0.215106
0.169911
0.895427
0.872438
0.81936
0.704919
0.521717
0.318558
0.175912
0.0824476
0.0381582
0.0209013
0.00801023
0.00151239
0.029448
0.127433
0.29387
0.502644
0.697575
0.813422
0.880563
0.919483
0.933798
0.924591
0.864549
1
1
1
1
1
0.981796
0.893006
0.775251
0.654361
0.588964
0.597308
0.678871
0.786436
0.892885
0.970262
0.998761
0.999999
0.999997
0.999985
0.999987
0.999199
0.950524
0.813699
1.5542e-06
0.00232168
0.0207573
0.0299426
0.0198909
0.00418177
0.00123015
0.00222273
0.00320309
0.0028895
0.00129686
0.00363544
0.0815279
0.123214
0.12321
0.12003
0.0263305
0.0190075
0.0188911
1.48502e-19
0.00148547
0.0693348
0.125594
0.124606
0.116042
0.10234
0.0873574
0.0328517
0.0012942
0.00129908
0.00191179
0.0138125
0.0452345
0.11218
0.121522
0.103102
0.0323059
0.0188909
1.53103e-05
0.00348038
0.172331
0.376222
0.528972
0.537113
0.53143
0.32395
0.0496049
0.00129712
0.0012953
0.00135015
0.00221958
0.0133495
0.0238726
0.0413169
0.0521413
0.0874665
0.0296773
5.21682e-05
0.011209
0.452564
0.922196
0.999511
0.99812
0.97311
0.594344
0.244794
0.14988
0.0601256
0.00958325
0.0175906
0.0227649
0.0191192
0.0140767
0.0257515
0.166956
0.111252
6.54262e-05
0.0363151
0.688666
0.999896
0.99987
0.999777
0.99812
0.945499
0.709157
0.516303
0.371581
0.259184
0.207932
0.385812
0.448385
0.380376
0.40221
0.338715
0.282826
7.38974e-05
0.170109
0.91745
0.999898
0.999898
0.99923
0.997526
0.997618
0.999283
0.94473
0.820201
0.694623
0.682193
0.81594
0.802587
0.784607
0.781111
0.568319
0.407192
0.00197647
0.438597
0.999376
0.999898
0.999898
0.999832
0.99973
0.99987
0.999865
0.999859
0.999852
0.883951
0.878151
0.837924
0.747493
0.714145
0.748457
0.605372
0.464008
0.00399052
0.720585
0.997549
0.999898
0.999898
0.999898
0.999896
0.999895
0.999863
0.99975
0.999716
0.988549
0.850381
0.524959
0.264443
0.177804
0.297359
0.306205
0.229969
1
1
1
1
1
1
1
1
1
1
1
1
1
1
1
1
1
1
1
1
0.961578
0.58801
0.541379
1
1
1
1
1
1
1
1
1
1
1
1
1
1
1
1
1
1
1
0.943231
0.781541
0.135901
0.00314169
1
1
1
1
1
1
1
1
1
1
1
1
1
1
1
1
1
0.983938
0.835448
0.745259
0.160892
4.77255e-08
9.23746e-08
1
1
1
1
1
1
1
1
1
1
1
1
1
1
1
0.961018
0.811402
0.742599
0.384277
0.0449954
4.76758e-08
4.96507e-08
6.36757e-07
1
1
1
1
0.999775
0.998913
0.997532
0.997163
0.996393
0.983898
0.978046
0.983105
0.954776
0.814751
0.72753
0.622495
0.27953
0.0570058
0.000285084
1.02288e-07
9.61746e-08
2.67912e-08
3.92511e-07
1
1
0.999999
0.985248
0.907016
0.827933
0.753471
0.765891
0.746215
0.692907
0.602376
0.576611
0.44842
0.251851
0.105811
0.0187271
3.85102e-07
3.95424e-07
1.87232e-06
1.51965e-06
1.06211e-07
1.16625e-08
1.14223e-07
1
0.999615
0.886377
0.436832
0.174735
0.10295
0.0625995
0.0841497
0.0637639
0.0448645
0.0153015
0.00164956
5.42396e-16
5.31552e-20
-7.89183e-19
-4.61042e-11
3.03897e-07
1.18917e-06
2.53513e-06
1.92481e-06
5.50599e-08
3.26255e-09
1.58917e-08
0.679514
0.626124
0.14697
6.83681e-12
1.70293e-11
3.07321e-14
3.34758e-15
4.1839e-15
5.24858e-11
3.54694e-11
3.4939e-09
1.00089e-09
3.16916e-10
2.11321e-10
3.13506e-07
6.12747e-07
5.67284e-07
3.09272e-07
9.89469e-07
4.17378e-07
1.18868e-08
3.87015e-09
1.09925e-09
0.00230788
-4.996e-18
1.32342e-07
3.66989e-06
1.58379e-05
1.44427e-05
6.39229e-06
1.29566e-06
6.04661e-07
2.50872e-07
1.20559e-07
2.26161e-08
2.48487e-08
2.54597e-08
1.75721e-07
4.07954e-07
1.48581e-07
1.77205e-09
2.30632e-09
3.79514e-09
3.84049e-09
9.32678e-10
1.65567e-10
-8.88823e-08
-3.82342e-16
1.14032e-06
2.8945e-05
4.69876e-05
4.73406e-05
8.08316e-06
7.37755e-08
7.95132e-07
4.9751e-07
1.14686e-07
5.52559e-08
1.90072e-08
1.57138e-08
3.96453e-08
9.18128e-08
2.90572e-08
3.47217e-09
2.35764e-09
1.23823e-09
1.87813e-10
8.08446e-11
8.16787e-11
-2.09228e-07
4.93512e-07
5.87727e-06
2.20105e-05
3.3196e-05
1.67718e-05
1.84821e-08
7.28551e-08
2.96812e-07
4.89972e-07
8.3049e-08
2.35165e-09
1.88945e-09
1.35736e-09
1.6797e-09
4.10917e-09
1.62674e-09
1.13413e-09
4.71429e-10
1.91399e-10
1.06038e-10
8.8556e-11
9.17025e-11
-4.10476e-07
2.76626e-07
1.15205e-06
1.01255e-08
9.62517e-09
9.99886e-09
1.92693e-08
6.86014e-08
7.11556e-08
2.32874e-07
2.35072e-07
1.2925e-07
6.0428e-08
5.71721e-10
5.55863e-10
8.25998e-10
1.07759e-09
1.02652e-09
4.54351e-10
3.15083e-10
3.19386e-10
3.51883e-10
3.7586e-10
2.73231e-08
2.9943e-08
1.03142e-08
1.05651e-08
1.03406e-08
1.60636e-08
1.78545e-08
6.96436e-09
5.08997e-10
4.62755e-08
3.47597e-07
4.3927e-07
2.89439e-07
3.66392e-09
5.25929e-10
7.06129e-10
8.46501e-10
7.14864e-10
5.41992e-10
5.55993e-10
5.97244e-10
5.97881e-10
5.13863e-10
7.30322e-08
4.32515e-08
1.12105e-08
2.67262e-08
2.54881e-08
7.86093e-09
8.40382e-10
5.31505e-10
4.54341e-10
1.202e-07
9.13337e-07
1.64092e-06
6.10156e-07
4.27091e-10
4.14074e-10
4.41277e-10
4.52846e-10
4.37759e-10
4.36909e-10
4.63007e-10
5.01753e-10
4.53444e-10
4.19212e-10
4.66618e-08
1.20414e-08
1.30221e-08
2.635e-08
1.82845e-08
3.34091e-09
1.19786e-09
1.07121e-09
4.01205e-10
1.95583e-10
1.15843e-06
2.77378e-06
2.79926e-06
6.64766e-07
5.01341e-08
1.94903e-09
5.90128e-09
1.1133e-08
8.29908e-10
4.09067e-10
7.64595e-10
3.23133e-09
3.23004e-09
2.07486e-08
1.20202e-08
9.49804e-09
1.10658e-08
9.48017e-09
6.90365e-09
2.15993e-09
9.35429e-10
3.70181e-10
2.14631e-10
4.09872e-07
1.74911e-06
2.86964e-06
2.81578e-06
1.68507e-06
1.58361e-07
4.94427e-07
2.00789e-06
1.55355e-06
3.89321e-10
3.81219e-10
1.80834e-08
3.59482e-08
2.26798e-08
1.78133e-08
5.96764e-09
3.89582e-09
3.75781e-09
4.27372e-09
3.7554e-09
1.60866e-09
6.11151e-10
3.63706e-10
3.16782e-10
1.38782e-07
1.06254e-06
2.8645e-06
2.88723e-06
2.85568e-06
3.21715e-06
3.23767e-06
3.22876e-06
2.61257e-06
1.71842e-07
9.13721e-09
5.9531e-08
1.88867e-08
1.76514e-08
6.70362e-09
3.39628e-09
3.55152e-09
3.3512e-09
3.3338e-09
2.31321e-09
9.38518e-10
4.51913e-10
3.01785e-10
2.75068e-10
1.82617e-07
6.42553e-07
1.26202e-06
2.28293e-06
1.89654e-06
1.84541e-06
2.97839e-06
2.68231e-06
1.4209e-06
1.40768e-08
3.81407e-08
1.65335e-08
1.60504e-08
8.14148e-09
3.39352e-09
3.34729e-09
2.97327e-09
2.84609e-09
2.81789e-09
1.81827e-09
6.77263e-10
3.49746e-10
2.87541e-10
2.75576e-10
6.23446e-09
5.86989e-08
4.47055e-07
6.99873e-07
5.4292e-07
4.06811e-07
5.89421e-07
5.58686e-07
9.94789e-08
1.97568e-08
1.24147e-08
1.20941e-08
8.56761e-09
3.79514e-09
3.04228e-09
2.58775e-09
2.4578e-09
2.57852e-09
2.50669e-09
1.43902e-09
5.75508e-10
3.23991e-10
2.58527e-10
2.2253e-10
2.55896e-10
9.52264e-09
6.54782e-08
1.206e-07
8.58996e-08
5.69709e-08
6.93385e-08
6.89846e-08
1.72162e-08
1.08261e-08
9.25541e-09
7.39304e-09
3.64487e-09
2.90333e-09
2.24753e-09
2.06837e-09
2.12681e-09
2.27561e-09
2.01132e-09
1.1472e-09
5.59902e-10
3.06113e-10
2.43822e-10
2.13059e-10
1.67202e-10
2.1548e-10
1.20061e-09
7.07911e-09
8.14694e-09
6.16879e-09
6.72067e-09
6.60267e-09
8.85343e-09
6.48103e-09
5.51395e-09
3.04012e-09
2.45415e-09
1.90586e-09
1.64936e-09
1.59292e-09
1.71013e-09
1.72921e-09
1.43849e-09
8.84453e-10
4.90286e-10
2.48785e-10
1.80167e-10
1.55468e-10
1.57525e-10
1.90511e-10
3.0794e-10
6.44943e-10
8.36733e-10
1.06532e-09
1.20771e-09
6.89005e-09
4.56123e-09
3.83693e-09
2.2387e-09
1.84319e-09
1.46422e-09
1.23134e-09
1.13636e-09
1.15514e-09
1.20872e-09
1.184e-09
9.06842e-10
6.068e-10
3.4665e-10
1.6951e-10
1.11245e-10
9.32799e-11
9.0604e-11
9.91451e-11
1.27247e-10
1.52198e-10
1.56211e-10
2.06369e-10
4.68471e-09
2.78933e-09
2.25638e-09
1.42373e-09
1.18512e-09
9.74724e-10
8.39086e-10
7.39244e-10
7.1755e-10
7.46183e-10
7.48078e-10
6.79993e-10
5.19039e-10
3.52541e-10
1.96171e-10
9.23432e-11
5.95276e-11
4.7873e-11
4.62921e-11
5.08407e-11
5.50894e-11
5.62521e-11
6.13322e-11
2.98768e-09
1.79712e-09
1.28541e-09
8.43598e-10
6.53347e-10
5.47067e-10
4.92108e-10
4.3959e-10
4.10412e-10
4.10418e-10
4.18129e-10
3.93346e-10
3.36083e-10
2.54256e-10
1.64951e-10
8.39293e-11
3.96806e-11
2.72533e-11
2.26915e-11
2.26637e-11
2.37925e-11
2.46175e-11
2.64744e-11
1.55633e-09
8.99029e-10
6.35097e-10
4.14245e-10
3.28561e-10
2.65023e-10
2.42909e-10
2.19187e-10
2.04987e-10
2.03807e-10
2.04579e-10
1.93958e-10
1.73879e-10
1.41326e-10
9.9779e-11
5.84922e-11
2.36072e-11
1.49328e-11
1.11533e-11
1.01947e-11
1.05807e-11
1.10933e-11
1.16254e-11
7.31525e-10
4.71113e-10
3.05259e-10
1.9337e-10
1.37959e-10
1.17165e-10
1.07273e-10
9.52235e-11
8.95819e-11
8.61672e-11
8.64826e-11
8.26539e-11
7.46118e-11
6.31921e-11
4.61859e-11
2.88334e-11
1.16095e-11
7.16526e-12
5.05515e-12
4.47233e-12
4.45967e-12
4.59404e-12
4.83048e-12
2.69054e-10
1.70706e-10
1.04546e-10
7.03824e-11
5.25278e-11
4.16783e-11
3.871e-11
3.56917e-11
3.32006e-11
3.21227e-11
3.12306e-11
2.95632e-11
2.70402e-11
2.31827e-11
1.6906e-11
1.06798e-11
4.46822e-12
2.75602e-12
2.00098e-12
1.78249e-12
1.80162e-12
1.83908e-12
1.80683e-12
8.70341e-11
6.2389e-11
3.75601e-11
2.35093e-11
1.65296e-11
1.28986e-11
1.17425e-11
1.08853e-11
1.05743e-11
1.02542e-11
9.91627e-12
9.35656e-12
8.44553e-12
7.12336e-12
5.12982e-12
3.20762e-12
1.3789e-12
8.75283e-13
6.74339e-13
6.32986e-13
6.4673e-13
6.31858e-13
5.86822e-13
2.11049e-11
1.71189e-11
1.15407e-11
6.66147e-12
4.40097e-12
3.38354e-12
3.07593e-12
2.87772e-12
2.73108e-12
2.70425e-12
2.65591e-12
2.40539e-12
2.20358e-12
1.79931e-12
1.28309e-12
7.85486e-13
3.75452e-13
2.28213e-13
2.02417e-13
2.00274e-13
2.06856e-13
1.95167e-13
1.65885e-13
4.59315e-12
4.1788e-12
2.65629e-12
1.56249e-12
1.06783e-12
7.75587e-13
6.77024e-13
6.34539e-13
6.02795e-13
6.05059e-13
5.84349e-13
5.39017e-13
4.8645e-13
3.85073e-13
2.69835e-13
1.60725e-13
8.2856e-14
5.71486e-14
5.55661e-14
5.7103e-14
5.58562e-14
4.88945e-14
3.75779e-14
8.81488e-13
9.16213e-13
6.25879e-13
3.55318e-13
2.08904e-13
1.44379e-13
1.27132e-13
1.17151e-13
1.08738e-13
1.09687e-13
1.07252e-13
1.01368e-13
8.91808e-14
6.92396e-14
4.52211e-14
2.64189e-14
1.57098e-14
1.33317e-14
1.3528e-14
1.38187e-14
1.30799e-14
1.04895e-14
7.25413e-15
1.52675e-13
1.70128e-13
1.16412e-13
6.85362e-14
3.99308e-14
2.60185e-14
1.80714e-14
1.52704e-14
1.56006e-14
1.55712e-14
1.57507e-14
1.54604e-14
1.33779e-14
9.78894e-15
6.36929e-15
3.91716e-15
2.88652e-15
2.80811e-15
2.90996e-15
2.85883e-15
2.46539e-15
1.67262e-15
1.02439e-15
2.52407e-14
2.68421e-14
1.89559e-14
1.08504e-14
5.97813e-15
3.64799e-15
2.55067e-15
1.85509e-15
1.84926e-15
2.04922e-15
2.12508e-15
1.9472e-15
1.58301e-15
1.15288e-15
7.83521e-16
5.59978e-16
5.26618e-16
5.41966e-16
5.45294e-16
4.87249e-16
3.74415e-16
2.22966e-16
1.19488e-16
3.67935e-15
3.90687e-15
2.68008e-15
1.4952e-15
8.03566e-16
4.27337e-16
2.9395e-16
2.04505e-16
1.99082e-16
2.27003e-16
2.30044e-16
2.09011e-16
1.70627e-16
1.26252e-16
9.15561e-17
8.36001e-17
8.78093e-17
9.12552e-17
8.505e-17
6.83967e-17
4.5467e-17
2.40295e-17
1.25027e-17
4.49579e-16
4.6679e-16
3.07918e-16
1.68822e-16
8.71269e-17
4.78612e-17
3.02654e-17
2.01274e-17
1.89665e-17
2.15257e-17
2.17048e-17
1.9982e-17
1.64669e-17
1.27583e-17
1.1314e-17
1.20343e-17
1.30592e-17
1.26992e-17
1.0767e-17
7.62085e-18
4.5101e-18
2.1324e-18
9.77108e-19
4.90274e-17
4.69723e-17
2.96042e-17
1.60177e-17
8.34886e-18
4.56757e-18
2.69477e-18
1.73331e-18
1.52517e-18
1.74506e-18
1.79523e-18
1.68103e-18
1.44364e-18
1.30717e-18
1.39657e-18
1.59256e-18
1.67412e-18
1.52474e-18
1.15553e-18
7.19443e-19
3.73379e-19
1.49817e-19
2.66466e-20
4.80276e-18
4.23119e-18
2.55969e-18
1.36847e-18
7.10482e-19
3.79462e-19
2.15826e-19
1.32822e-19
1.0662e-19
1.20947e-19
1.2954e-19
1.27716e-19
1.24128e-19
1.34752e-19
1.62562e-19
1.86472e-19
1.86876e-19
1.58098e-19
1.06726e-19
5.92747e-20
2.53518e-20
4.21194e-21
3.18116e-22
4.19917e-19
3.43812e-19
2.01887e-19
1.06701e-19
5.45135e-20
2.85903e-20
1.56014e-20
8.79345e-21
6.49626e-21
7.15671e-21
8.1134e-21
9.12693e-21
1.03919e-20
1.33556e-20
1.70871e-20
1.94184e-20
1.87359e-20
1.4721e-20
9.00854e-21
4.36217e-21
9.08064e-22
8.16057e-23
7.73364e-24
3.28025e-20
2.51603e-20
1.43479e-20
7.49171e-21
3.81312e-21
1.95735e-21
1.02083e-21
5.51046e-22
3.79419e-22
4.11717e-22
5.08345e-22
6.56697e-22
9.23552e-22
1.32506e-21
1.69983e-21
1.89158e-21
1.76522e-21
1.29565e-21
6.61953e-22
2.14163e-22
3.04726e-23
3.92384e-24
1.09737e-25
2.17149e-21
1.6248e-21
9.11484e-22
4.70336e-22
2.37346e-22
1.18993e-22
5.90273e-23
2.97405e-23
1.91183e-23
2.16633e-23
3.12897e-23
4.97012e-23
8.1346e-23
1.2268e-22
1.5705e-22
1.65972e-22
1.49708e-22
1.00359e-22
4.40639e-23
1.1412e-23
1.41326e-24
4.16924e-26
4.58624e-28
1.173e-22
9.25039e-23
5.1631e-23
2.59067e-23
1.2797e-23
6.25227e-24
2.97427e-24
1.42586e-24
8.92122e-25
1.16478e-24
2.07344e-24
3.90932e-24
6.95706e-24
1.07075e-23
1.35873e-23
1.35491e-23
1.17691e-23
7.47572e-24
3.0419e-24
6.87677e-25
5.96584e-26
1.33962e-27
5.09228e-29
0.333805
0.0498709
1.70935e-05
0.0637612
0.0384617
0.0188183
7.48577e-05
0.0512346
2.62047e-07
0.00055346
1.39678e-05
0.000572367
3.85302e-07
6.35644e-07
1.22361e-05
1.0726e-06
7.69081e-07
2.76507e-07
5.80427e-06
2.8483e-06
3.29474e-07
3.30214e-07
3.99543e-06
3.10645e-06
1.65886e-09
2.20808e-08
6.97405e-07
6.668e-07
1.40342e-10
1.17936e-08
4.01289e-08
6.71565e-08
1.39464e-10
3.34691e-09
4.33373e-09
2.23259e-09
8.49381e-11
8.045e-11
7.26135e-11
7.24006e-11
9.87059e-11
1.06796e-10
1.17831e-10
1.28339e-10
3.76812e-10
3.56539e-10
3.28092e-10
3.0416e-10
4.22505e-10
4.31601e-10
4.10723e-10
3.5502e-10
4.17885e-10
5.96022e-10
8.76122e-10
8.6912e-10
4.15261e-10
5.33138e-10
1.16728e-09
3.69102e-09
1.79728e-08
1.36993e-08
1.53696e-08
1.65954e-08
8.04404e-08
7.56865e-08
6.42334e-08
5.05384e-08
6.78882e-08
7.23431e-08
5.53849e-08
4.86147e-08
2.27107e-08
2.37084e-08
2.29341e-08
2.15777e-08
5.13892e-09
3.99604e-09
3.71121e-09
3.64885e-09
5.51792e-10
5.91247e-10
7.18127e-10
6.73243e-10
2.48015e-10
2.01518e-10
1.93871e-10
1.8332e-10
1.13827e-10
9.53713e-11
9.15622e-11
8.61081e-11
5.37041e-11
5.01199e-11
4.84342e-11
4.56135e-11
2.56135e-11
2.46205e-11
2.40595e-11
2.29342e-11
1.14508e-11
1.10178e-11
1.05995e-11
1.00171e-11
4.73636e-12
4.57033e-12
4.33521e-12
4.07813e-12
1.75674e-12
1.66165e-12
1.53417e-12
1.41848e-12
5.58457e-13
5.12135e-13
4.68431e-13
4.21806e-13
1.51202e-13
1.34429e-13
1.15999e-13
9.94917e-14
3.21084e-14
2.68205e-14
2.23655e-14
1.83348e-14
5.75371e-15
4.50579e-15
3.4101e-15
2.55102e-15
7.59263e-16
5.41987e-16
3.85758e-16
2.74822e-16
8.26628e-17
5.59486e-17
4.0158e-17
2.13618e-17
8.44371e-18
3.5861e-18
6.80126e-19
5.38419e-20
1.60832e-19
7.92675e-21
4.21167e-23
8.12341e-24
2.27561e-28
2.55281e-27
1.41455e-26
3.90265e-26
2.25699e-28
5.99198e-28
2.68845e-27
9.06457e-27
2.2396e-28
7.29026e-28
2.93223e-27
9.48286e-27
2.22115e-28
7.94152e-28
2.93057e-27
9.38949e-27
2.20337e-28
6.86626e-28
2.39113e-27
7.20553e-27
1.36442e-28
4.44513e-28
1.35756e-27
3.46427e-27
0.0366664
0.899219
0.99849
0.997453
0.986796
0.950614
0.92497
0.881816
0.836851
0.763421
0.639007
0.461412
0.291351
0.107415
0.011368
1.76431e-08
1.85615e-08
0.060557
0.152255
0.247293
0.935136
0.939783
0.886547
0.55162
0.284524
0.212386
0.154585
0.107201
0.0617473
0.00366505
7.48956e-14
1.69042e-27
3.40324e-24
3.17916e-23
1.61418e-08
1.76263e-08
0.00140266
0.0427788
0.198415
0.746618
0.746811
0.357165
0.0098363
3.40493e-05
3.8932e-10
-7.23413e-10
-7.59815e-09
-6.53289e-09
-8.94474e-10
4.3597e-10
-3.16027e-17
9.39533e-13
9.6273e-23
8.58812e-22
2.64672e-05
0.00292233
0.0257367
0.0983917
0.209168
0.114032
0.00554653
7.35047e-07
1.43378e-09
1.40676e-09
2.52604e-09
1.90578e-09
3.54544e-11
4.09962e-09
6.89513e-08
5.0023e-08
-2.94749e-13
2.2338e-06
4.39271e-09
0.00168253
0.0235375
0.0260683
0.000675505
1.67298e-09
3.85039e-10
1.70402e-09
7.03684e-09
7.80072e-09
7.36897e-09
7.01477e-09
5.0487e-09
2.33582e-11
3.47401e-08
1.33207e-07
1.29439e-07
1.2792e-14
6.19264e-06
1.66373e-06
0.000703206
0.00717094
0.0190298
-3.51319e-09
6.72492e-09
4.39773e-09
1.05944e-08
1.10127e-08
6.30048e-09
2.71346e-09
1.69587e-09
1.69012e-09
7.63401e-10
1.49777e-15
5.94761e-08
9.07787e-08
6.52113e-07
1.27342e-05
9.02927e-06
3.24484e-06
3.83372e-10
0.000293976
6.78684e-08
2.23451e-09
4.39699e-09
4.82457e-09
3.03271e-09
1.05422e-09
2.81904e-10
3.7198e-11
2.05249e-12
1.99538e-12
2.22454e-13
1.67786e-08
1.99362e-07
7.92027e-06
1.26649e-05
2.62686e-06
1.19166e-08
7.5069e-13
7.5239e-13
1.05606e-08
1.71903e-09
9.83269e-10
5.04517e-10
1.76657e-10
1.09074e-10
7.63759e-11
6.72651e-11
5.12033e-11
1.77621e-11
2.81298e-09
5.13448e-08
1.19753e-06
5.67501e-06
2.59114e-06
8.06825e-09
1.30785e-10
1.32203e-11
9.57407e-13
3.37968e-10
1.8056e-10
1.25861e-10
6.73954e-11
4.4027e-11
3.73451e-11
2.79945e-11
1.84706e-11
1.72807e-11
7.16366e-12
2.89882e-10
1.19274e-07
1.0301e-06
8.62989e-08
3.19584e-10
7.84956e-11
6.37055e-12
3.71719e-12
1.42817e-13
7.67505e-11
7.07466e-11
7.14294e-11
7.34069e-11
7.40488e-11
5.89124e-11
3.82267e-11
2.04447e-11
1.0029e-11
6.72539e-12
5.20169e-09
7.72626e-08
8.9275e-08
1.79037e-10
1.66632e-12
2.02671e-12
2.23082e-12
5.91274e-13
1.32064e-13
1.41859e-10
1.49564e-10
1.41779e-10
1.27474e-10
1.00846e-10
7.12608e-11
4.30476e-11
2.28275e-11
1.4317e-11
1.41284e-10
1.47928e-09
1.90178e-09
1.67386e-12
1.54727e-12
1.66557e-12
1.61104e-12
1.31287e-12
6.15902e-13
1.37056e-13
2.4933e-10
2.02863e-10
1.86989e-10
1.6253e-10
1.28719e-10
9.1598e-11
5.44016e-11
3.09757e-11
2.02593e-11
3.25441e-11
4.93824e-11
1.22314e-11
1.69568e-11
2.42972e-12
2.4276e-12
1.94817e-12
1.38623e-12
6.62035e-13
1.41733e-13
3.09255e-10
2.69739e-10
2.68636e-10
2.47051e-10
1.78521e-10
1.29409e-10
8.5957e-11
5.27289e-11
2.77494e-11
1.69099e-11
1.3817e-11
1.20112e-11
1.33672e-11
3.89505e-12
3.18669e-12
2.17908e-12
1.29426e-12
6.72877e-13
1.4101e-13
7.93291e-10
6.87102e-10
5.94512e-10
4.54276e-10
3.54804e-10
2.20479e-10
1.43342e-10
7.92855e-11
4.03973e-11
2.35621e-11
1.66532e-11
1.28308e-11
1.07307e-11
6.50926e-12
3.77189e-12
2.19268e-12
1.22443e-12
5.89252e-13
1.32347e-13
5.25207e-09
5.70318e-09
2.96798e-09
1.78042e-09
1.18837e-09
7.14812e-10
2.84093e-10
1.08543e-10
5.52179e-11
3.65873e-11
2.4733e-11
1.84906e-11
1.33466e-11
8.15721e-12
4.02264e-12
2.01001e-12
1.09963e-12
4.55257e-13
1.16012e-13
1.56811e-08
1.24275e-08
8.5665e-09
5.68943e-09
3.34449e-09
2.02281e-09
9.15794e-10
2.83401e-10
1.0891e-10
5.60143e-11
3.16721e-11
2.22507e-11
1.38235e-11
7.58947e-12
3.86211e-12
1.94732e-12
9.4731e-13
3.72589e-13
9.44893e-14
3.84867e-08
1.70261e-08
8.71739e-09
8.20051e-09
5.35523e-09
3.51005e-09
1.9046e-09
9.08257e-10
3.82577e-10
1.50073e-10
4.94581e-11
2.18083e-11
1.26238e-11
7.36245e-12
3.83683e-12
1.81842e-12
7.83118e-13
2.97372e-13
7.9279e-14
4.10763e-08
2.54636e-08
1.27993e-08
9.34127e-09
6.41012e-09
4.31022e-09
2.68074e-09
1.42991e-09
7.48535e-10
3.45692e-10
1.01606e-10
2.52107e-11
1.07342e-11
6.21865e-12
3.34917e-12
1.53318e-12
5.34655e-13
2.1986e-13
6.63666e-14
2.01185e-08
1.62153e-08
1.08989e-08
7.80134e-09
5.4684e-09
3.77819e-09
2.47021e-09
1.47932e-09
8.53832e-10
4.34166e-10
1.64405e-10
3.78543e-11
8.91886e-12
4.50399e-12
2.40977e-12
9.4538e-13
1.89199e-13
1.4688e-13
5.6305e-14
3.87355e-09
4.84268e-09
4.70598e-09
3.98199e-09
3.34039e-09
2.53627e-09
1.79562e-09
1.15483e-09
6.93244e-10
4.00184e-10
1.85969e-10
4.89712e-11
8.21717e-12
2.76957e-12
1.48413e-12
2.65017e-13
7.37987e-14
8.1517e-14
4.26735e-14
6.68477e-10
8.73748e-10
1.15004e-09
1.60605e-09
1.6448e-09
1.3404e-09
9.86125e-10
6.65218e-10
4.19211e-10
2.58156e-10
1.44173e-10
4.73126e-11
7.66678e-12
1.48446e-12
3.1879e-13
7.59075e-14
3.70686e-14
3.88193e-14
2.30706e-14
1.7714e-10
1.97695e-10
2.58613e-10
4.30957e-10
5.49011e-10
4.98671e-10
3.9603e-10
2.86661e-10
1.93776e-10
1.2961e-10
8.17882e-11
3.18545e-11
5.59346e-12
3.15878e-13
3.71076e-14
2.10192e-14
2.08968e-14
2.02068e-14
1.36806e-14
8.17277e-11
7.84232e-11
8.6467e-11
1.186e-10
1.55337e-10
1.50701e-10
1.27434e-10
9.88068e-11
7.22103e-11
5.26561e-11
3.57184e-11
9.60802e-12
1.07963e-12
5.96154e-14
1.01352e-14
1.00986e-14
1.15737e-14
1.12863e-14
7.79865e-15
4.23217e-11
3.90573e-11
3.83161e-11
4.35356e-11
4.97102e-11
4.65384e-11
3.98862e-11
3.20989e-11
2.51065e-11
2.04453e-11
8.21093e-12
1.59861e-12
1.49395e-13
8.95489e-15
3.84026e-15
4.74478e-15
6.2643e-15
6.31493e-15
4.21135e-15
2.06689e-11
1.85883e-11
1.74028e-11
1.72482e-11
1.63698e-11
1.44338e-11
1.20194e-11
9.73237e-12
8.27458e-12
4.13922e-12
1.17273e-12
1.87454e-13
1.67316e-14
1.54493e-15
1.52118e-15
2.20785e-15
3.32236e-15
3.47437e-15
2.05182e-15
8.88871e-12
8.02267e-12
7.20144e-12
6.30881e-12
5.3688e-12
4.34795e-12
3.47188e-12
2.87771e-12
1.71377e-12
5.49606e-13
1.19197e-13
1.82154e-14
1.71255e-15
4.08375e-16
5.58947e-16
1.03737e-15
1.69606e-15
1.8641e-15
9.71629e-16
3.52441e-12
2.99775e-12
2.45202e-12
1.96449e-12
1.52927e-12
1.16462e-12
9.47478e-13
6.08181e-13
2.00585e-13
4.27497e-14
8.36732e-15
1.49127e-15
1.72922e-16
1.18228e-16
2.21674e-16
4.72692e-16
8.46165e-16
9.32544e-16
4.7784e-16
1.16481e-12
9.46095e-13
7.24571e-13
5.4081e-13
3.85048e-13
3.05164e-13
1.76255e-13
5.60184e-14
1.21505e-14
2.88345e-15
7.75122e-16
1.38735e-16
2.24093e-17
3.26045e-17
8.7446e-17
2.15052e-16
3.99555e-16
4.40473e-16
2.17126e-16
3.20807e-13
2.35574e-13
1.58125e-13
1.09033e-13
8.11266e-14
4.01323e-14
1.04431e-14
1.94043e-15
5.05281e-16
1.8233e-16
5.46194e-17
7.3823e-18
3.79252e-18
1.02135e-17
3.44742e-17
9.01119e-17
1.84399e-16
2.13558e-16
1.00303e-16
6.75777e-14
4.49601e-14
2.84104e-14
2.02252e-14
7.94889e-15
1.54214e-15
2.16646e-16
4.11263e-17
8.18625e-18
8.79622e-19
8.03648e-20
1.36211e-19
6.99607e-19
3.32431e-18
1.34316e-17
3.63658e-17
8.37818e-17
1.10198e-16
5.03225e-17
1.15394e-14
6.83436e-15
4.51359e-15
1.50034e-15
2.45089e-16
2.40445e-17
1.53067e-18
4.49337e-20
4.21639e-21
6.67735e-21
1.53939e-20
4.57254e-20
2.34195e-19
1.22374e-18
5.0017e-18
1.40661e-17
4.06763e-17
4.48427e-17
1.96381e-17
1.43555e-15
8.61007e-16
2.46915e-16
3.35319e-17
3.74706e-18
3.97711e-19
2.10164e-20
2.0489e-21
2.96348e-21
6.18781e-21
1.36711e-20
3.06519e-20
1.03536e-19
4.96374e-19
2.00663e-18
7.51903e-18
2.15133e-17
2.06298e-17
7.64114e-18
1.54447e-16
3.21615e-17
3.33694e-18
4.60178e-19
7.37435e-20
6.41782e-21
9.19928e-22
1.32275e-21
2.84069e-21
6.48438e-21
1.42425e-20
2.83052e-20
6.07398e-20
2.32051e-19
1.03456e-18
4.63927e-18
7.30537e-18
6.28952e-18
2.02237e-18
3.83474e-18
2.91793e-19
4.15086e-20
8.89231e-21
1.22218e-21
3.23242e-22
5.0186e-22
1.16288e-21
2.8845e-21
6.7943e-21
1.45616e-20
2.73539e-20
4.62957e-20
1.48694e-19
7.78582e-19
2.24159e-18
3.1411e-18
1.82455e-18
4.3151e-19
1.11156e-20
2.97338e-21
6.21617e-22
7.90662e-23
7.87695e-23
1.66688e-22
4.26575e-22
1.10951e-21
2.72294e-21
6.23846e-21
1.36018e-20
2.58454e-20
4.10895e-20
1.25137e-19
5.00905e-19
1.10625e-18
1.05857e-18
5.06985e-19
8.09519e-20
1.65726e-23
1.64582e-23
1.18166e-23
1.78438e-23
4.79819e-23
1.37521e-22
3.76164e-22
9.77635e-22
2.40517e-21
5.53401e-21
1.17037e-20
2.18124e-20
3.5037e-20
8.85483e-20
2.37357e-19
4.58568e-19
3.51397e-19
1.10811e-19
1.56071e-20
2.28166e-25
9.46463e-25
3.46945e-24
1.213e-23
3.7899e-23
1.10351e-22
2.99406e-22
7.65835e-22
1.845e-21
4.17672e-21
8.60209e-21
1.54982e-20
2.44058e-20
4.80746e-20
1.04529e-19
1.21032e-19
6.44118e-20
1.80006e-20
3.31185e-21
1.40359e-25
6.73504e-25
2.6123e-24
8.94813e-24
2.7579e-23
7.90768e-23
2.09981e-22
5.19465e-22
1.20679e-21
2.64192e-21
5.21292e-21
9.01083e-21
1.35943e-20
2.50288e-20
3.11523e-20
2.52415e-20
9.94934e-21
3.18807e-21
1.11881e-21
1.04817e-25
4.56276e-25
1.7314e-24
5.60656e-24
1.71763e-23
4.73613e-23
1.21855e-22
2.9056e-22
6.48093e-22
1.36063e-21
2.57288e-21
4.23071e-21
5.97498e-21
8.94925e-21
8.10245e-21
4.94774e-21
1.77266e-21
8.7205e-22
4.74855e-22
6.71319e-26
2.63426e-25
9.15165e-25
2.8127e-24
7.79965e-24
2.02876e-23
5.01813e-23
1.168e-22
2.51054e-22
5.01412e-22
9.0503e-22
1.4405e-21
1.86761e-21
2.32e-21
1.71084e-21
1.0547e-21
4.24763e-22
2.48408e-22
2.37889e-22
3.31712e-26
1.14529e-25
3.62903e-25
1.04437e-24
2.79369e-24
7.04719e-24
1.6443e-23
3.74986e-23
7.83231e-23
1.4923e-22
2.52041e-22
3.77124e-22
4.6628e-22
4.90698e-22
3.21155e-22
2.16781e-22
8.34361e-23
8.446e-23
8.58054e-23
9.21633e-27
2.74956e-26
7.949e-26
2.11122e-25
5.24303e-25
1.28715e-24
2.79545e-24
5.7238e-24
1.21145e-23
2.25504e-23
3.79923e-23
5.58053e-23
6.79156e-23
6.34137e-23
4.22001e-23
3.32244e-23
1.96165e-23
1.58549e-23
1.32747e-23
)
;

boundaryField
{
    leftWall
    {
        type            alphaContactAngle;
        contactAngleProperties 
        {
            mercury         
            {
                theta0          90;
            }
            air             
            {
                theta0          90;
            }
            oil             
            {
                theta0          90;
            }
        }
        value           nonuniform List<scalar> 
50
(
2.39789e-11
7.16911e-11
4.77191e-10
2.19393e-09
9.3527e-09
0.131343
0.895427
1
1
1
1
1
1
1
1
0.679514
0.00230788
-8.88823e-08
-2.09228e-07
-4.10476e-07
2.73231e-08
7.30322e-08
4.66618e-08
2.07486e-08
2.26798e-08
1.88867e-08
1.65335e-08
1.24147e-08
1.08261e-08
8.85343e-09
6.89005e-09
4.68471e-09
2.98768e-09
1.55633e-09
7.31525e-10
2.69054e-10
8.70341e-11
2.11049e-11
4.59315e-12
8.81488e-13
1.52675e-13
2.52407e-14
3.67935e-15
4.49579e-16
4.90274e-17
4.80276e-18
4.19917e-19
3.28025e-20
2.17149e-21
1.173e-22
)
;
    }
    rightWall
    {
        type            alphaContactAngle;
        contactAngleProperties 
        {
            mercury         
            {
                theta0          90;
            }
            air             
            {
                theta0          90;
            }
            oil             
            {
                theta0          90;
            }
        }
        value           nonuniform List<scalar> 
50
(
0.0188911
0.0188909
0.0296773
0.111252
0.282826
0.407192
0.464008
0.229969
0.152255
0.0427788
0.0257367
0.0260683
0.0190298
0.000293976
7.5239e-13
9.57407e-13
1.42817e-13
1.32064e-13
1.37056e-13
1.41733e-13
1.4101e-13
1.32347e-13
1.16012e-13
9.44893e-14
7.9279e-14
6.63666e-14
5.6305e-14
4.26735e-14
2.30706e-14
1.36806e-14
7.79865e-15
4.21135e-15
2.05182e-15
9.71629e-16
4.7784e-16
2.17126e-16
1.00303e-16
5.03225e-17
1.96381e-17
7.64114e-18
2.02237e-18
4.3151e-19
8.09519e-20
1.56071e-20
3.31185e-21
1.11881e-21
4.74855e-22
2.37889e-22
8.58054e-23
1.32747e-23
)
;
    }
    lowerWall
    {
        type            alphaContactAngle;
        contactAngleProperties 
        {
            mercury         
            {
                theta0          90;
            }
            air             
            {
                theta0          90;
            }
            oil             
            {
                theta0          90;
            }
        }
        value           nonuniform List<scalar> 
62
(
2.39789e-11
3.66254e-11
4.89584e-11
5.53573e-11
5.7774e-11
5.79758e-11
5.61276e-11
5.53034e-11
5.78983e-11
6.61977e-11
8.10657e-11
1.05764e-10
1.34557e-10
1.70754e-10
2.21626e-10
2.95341e-10
3.97432e-10
5.60166e-10
9.23911e-10
1.46148e-09
2.07864e-09
2.53067e-09
2.58128e-09
2.58128e-09
2.82728e-09
2.76248e-09
7.79232e-10
-3.5414e-27
0.169911
0.864549
0.813699
0.333805
0.0498709
1.70935e-05
0.0637612
1.5542e-06
1.48502e-19
1.53103e-05
5.21682e-05
6.54262e-05
7.38974e-05
0.00197647
0.00399052
1.5542e-06
0.00232168
0.0207573
0.0299426
0.0198909
0.00418177
0.00123015
0.00222273
0.00320309
0.0028895
0.00129686
0.00363544
0.0815279
0.123214
0.12321
0.12003
0.0263305
0.0190075
0.0188911
)
;
    }
    atmosphere
    {
        type            inletOutlet;
        inletValue      uniform 0;
        value           nonuniform List<scalar> 
46
(
0
0
0
0
0
0
0
0
0
0
0
0
0
0
0
0
0
0
0
0
0
0
0
0
0
0
0
0
0
0
0
0
0
0
5.7238e-24
1.21145e-23
2.25504e-23
3.79923e-23
5.58053e-23
6.79156e-23
6.34137e-23
4.22001e-23
3.32244e-23
1.96165e-23
1.58549e-23
1.32747e-23
)
;
    }
    defaultFaces
    {
        type            empty;
    }
}


// ************************************************************************* //
