/*--------------------------------*- C++ -*----------------------------------*\
  =========                 |
  \\      /  F ield         | OpenFOAM: The Open Source CFD Toolbox
   \\    /   O peration     | Website:  https://openfoam.org
    \\  /    A nd           | Version:  13
     \\/     M anipulation  |
\*---------------------------------------------------------------------------*/
FoamFile
{
    format      ascii;
    class       volScalarField;
    location    "1.3";
    object      k;
}
// * * * * * * * * * * * * * * * * * * * * * * * * * * * * * * * * * * * * * //

dimensions      [0 2 -2 0 0 0 0];

internalField   nonuniform List<scalar> 
2268
(
0.00165157
0.00417343
0.00670335
0.0087868
0.0103975
0.0116338
0.0126282
0.0134915
0.0143087
0.0151537
0.016109
0.0172577
0.0184688
0.0196287
0.0206397
0.0213975
0.0217816
0.0216464
0.0208156
0.0190839
0.0161821
0.0115402
0.00369309
0.00384654
0.00976286
0.0147268
0.0188493
0.0221211
0.0247016
0.0268435
0.028785
0.0307181
0.0327866
0.0350766
0.037596
0.040239
0.0428086
0.0450941
0.0468643
0.047857
0.0477648
0.046221
0.0427853
0.0368781
0.0273782
0.00979113
0.00528927
0.0131827
0.0195132
0.0247346
0.0289277
0.0322828
0.0350911
0.0376379
0.040159
0.0428322
0.0457633
0.0489547
0.0522924
0.0555383
0.0584325
0.0606925
0.062003
0.0619982
0.0602411
0.0561865
0.0490732
0.0373974
0.0145285
0.00659413
0.016159
0.023643
0.0297165
0.0346084
0.0385539
0.0418665
0.044858
0.0477857
0.0508415
0.054145
0.0577083
0.0614312
0.0650626
0.0683226
0.0709056
0.0724714
0.0726227
0.0708823
0.0666461
0.0590424
0.0461641
0.0191856
0.00793949
0.0190604
0.027647
0.0344849
0.0399835
0.0444369
0.0481756
0.0515278
0.0547653
0.0580845
0.061614
0.0653802
0.0693093
0.073156
0.0766391
0.0794511
0.0812475
0.0816194
0.0800666
0.075944
0.0683095
0.0548113
0.0241339
0.00948856
0.0221025
0.0317638
0.0393007
0.0453328
0.050224
0.0543233
0.0579732
0.0614576
0.0649701
0.0686401
0.0725079
0.0765282
0.0804764
0.0840855
0.0870654
0.0890863
0.0897459
0.0885345
0.0847789
0.0775219
0.0640322
0.0299843
0.0113717
0.0255827
0.0362241
0.0443505
0.0508159
0.0560691
0.0604671
0.0643565
0.0680323
0.0716855
0.0754398
0.0793466
0.0833826
0.0873584
0.0910247
0.0941214
0.096357
0.0973496
0.0966049
0.0934307
0.0869502
0.0743946
0.0377895
0.0136782
0.0297153
0.0410875
0.0496605
0.0564813
0.0620356
0.0666716
0.0707433
0.0745643
0.07832
0.0821215
0.0860196
0.0900305
0.0939911
0.0976657
0.100805
0.103138
0.104325
0.10392
0.10126
0.0956682
0.0850827
0.0509152
0.0164597
0.0229179
0.0282287
0.0305715
0.0305438
0.03074
0.0320012
0.0332613
0.0337663
0.0333452
0.0311827
0.0268547
0.0235303
0.021594
0.0187645
0.0152516
0.0122942
0.00997008
0.00660952
0.0241289
0.0431849
0.0541527
0.0594993
0.0615345
0.063635
0.06622
0.0682397
0.0688735
0.0678072
0.0644209
0.0586873
0.0524886
0.0477106
0.0419599
0.0349381
0.0288379
0.0224686
0.0124187
0.0268257
0.0505616
0.0654867
0.0736519
0.0775104
0.0807511
0.0839382
0.0861991
0.0867339
0.0851976
0.0812676
0.0749784
0.0680078
0.0615668
0.0545236
0.0465563
0.0390027
0.030202
0.0156276
0.0286538
0.0555024
0.0718735
0.0832437
0.0889056
0.0931205
0.0967784
0.0993272
0.0999814
0.0982235
0.0941076
0.0873344
0.0794954
0.0718224
0.0638201
0.0552217
0.0465548
0.036215
0.0184072
0.0298701
0.0588816
0.0761662
0.0891682
0.0965554
0.101864
0.105939
0.108666
0.109504
0.108202
0.104728
0.0978603
0.0890369
0.0802845
0.0713688
0.0620472
0.0523254
0.0408729
0.0209473
0.0303234
0.0608254
0.079748
0.0928595
0.101449
0.107577
0.111985
0.114819
0.115753
0.114907
0.112015
0.105815
0.0970435
0.0876386
0.077864
0.0676696
0.0569912
0.0446078
0.0225218
0.0303199
0.0617349
0.0827476
0.0959656
0.105339
0.112029
0.116778
0.119887
0.121112
0.120402
0.117342
0.111298
0.102964
0.093496
0.0832334
0.072302
0.0609081
0.0477329
0.0238865
0.0306924
0.0629017
0.0849921
0.0986536
0.108684
0.11586
0.120974
0.124399
0.12595
0.125391
0.122212
0.115979
0.107491
0.0978728
0.0873426
0.0759918
0.0641436
0.05045
0.0257998
0.0166238
0.0358721
0.0482704
0.0573329
0.0645189
0.0704592
0.0755235
0.0800188
0.0841991
0.0882404
0.0922349
0.0962183
0.100169
0.104008
0.107514
0.110474
0.112658
0.113768
0.113404
0.111058
0.106316
0.0979747
0.0789763
0.021472
0.0451998
0.0592799
0.0689331
0.0762413
0.0822428
0.0874707
0.092214
0.0966436
0.10086
0.104915
0.108819
0.112518
0.11598
0.119064
0.121585
0.123334
0.124084
0.123557
0.121439
0.117464
0.110685
0.0993686
0.0263538
0.0547124
0.0707335
0.0813113
0.0889903
0.0950651
0.10026
0.104951
0.109299
0.113397
0.1173
0.121001
0.124427
0.127547
0.130273
0.132427
0.133834
0.134316
0.133659
0.131662
0.128085
0.122356
0.113947
0.031177
0.0640028
0.0818059
0.093368
0.101637
0.10805
0.113435
0.118213
0.122521
0.126462
0.130134
0.133528
0.136569
0.139247
0.141543
0.143255
0.144248
0.144359
0.143389
0.141214
0.137655
0.132607
0.12608
0.0360463
0.0734528
0.092743
0.105154
0.113999
0.120811
0.126466
0.131392
0.135681
0.13946
0.142864
0.145883
0.148458
0.150624
0.152376
0.153515
0.153958
0.153594
0.152288
0.150045
0.146852
0.142794
0.138201
0.0411329
0.0834813
0.103927
0.116903
0.126128
0.133213
0.139044
0.144006
0.148176
0.151727
0.154803
0.157353
0.159384
0.160987
0.162134
0.162696
0.162673
0.162017
0.160688
0.158723
0.156205
0.15337
0.150669
0.0468736
0.0946085
0.115647
0.128658
0.137769
0.144784
0.150562
0.155351
0.15926
0.162508
0.165213
0.167319
0.168909
0.170086
0.170794
0.171035
0.170829
0.17016
0.169048
0.167577
0.165916
0.164363
0.163357
0.0546011
0.107337
0.127392
0.13952
0.147978
0.154613
0.160097
0.164639
0.168355
0.17143
0.173939
0.175862
0.17729
0.178291
0.178836
0.178984
0.178795
0.178302
0.177578
0.176754
0.176034
0.175743
0.176261
0.0653024
0.119809
0.137171
0.148395
0.156379
0.162679
0.167897
0.172259
0.175888
0.178906
0.181364
0.183288
0.184746
0.185778
0.186395
0.186645
0.186657
0.186517
0.186339
0.186284
0.186577
0.187559
0.189583
0.0762758
0.12489
0.143964
0.155585
0.163438
0.16948
0.174518
0.178769
0.182319
0.185278
0.187718
0.189697
0.191273
0.192483
0.193362
0.193969
0.194403
0.194829
0.195399
0.196288
0.197742
0.200112
0.203746
0.0734185
0.124195
0.148094
0.162142
0.16981
0.175296
0.180125
0.184368
0.187919
0.190845
0.193284
0.195337
0.19708
0.198572
0.199856
0.201002
0.202134
0.203404
0.204992
0.207086
0.209949
0.213949
0.219422
0.0591276
0.118581
0.149986
0.166432
0.174652
0.179779
0.184339
0.189013
0.192803
0.195798
0.198276
0.20042
0.202365
0.204191
0.206003
0.207826
0.209895
0.212414
0.215486
0.219123
0.223606
0.229356
0.236594
0.0543986
0.114726
0.148807
0.165567
0.17496
0.180882
0.185757
0.190322
0.19425
0.197492
0.200273
0.202795
0.20524
0.207729
0.210255
0.212838
0.21564
0.218868
0.222628
0.226971
0.231874
0.237191
0.242921
0.0543309
0.114774
0.14573
0.162294
0.172763
0.180574
0.186503
0.19131
0.195144
0.198406
0.201388
0.204236
0.206992
0.209497
0.211816
0.214087
0.216446
0.219116
0.222086
0.225284
0.228608
0.23188
0.234921
0.055064
0.113623
0.141836
0.15882
0.170421
0.178984
0.185651
0.190741
0.194668
0.197935
0.200788
0.203373
0.205782
0.208005
0.209964
0.211732
0.21349
0.215322
0.217202
0.219049
0.220731
0.22213
0.223061
0.0545922
0.110721
0.137331
0.154313
0.166512
0.175791
0.182931
0.188387
0.192627
0.196058
0.198922
0.20139
0.203576
0.205501
0.207151
0.208532
0.209719
0.210784
0.211728
0.212498
0.213016
0.213196
0.212905
0.0525025
0.106307
0.131691
0.148473
0.160962
0.170678
0.178333
0.184351
0.189122
0.192981
0.196149
0.198768
0.200957
0.202783
0.204257
0.205389
0.206213
0.206784
0.207125
0.207229
0.20707
0.206602
0.205753
0.0488902
0.100118
0.124549
0.141106
0.153786
0.163925
0.172143
0.178812
0.184243
0.188701
0.192383
0.195399
0.197841
0.199795
0.201304
0.202391
0.203083
0.203432
0.203478
0.203246
0.202747
0.201973
0.200895
0.0446534
0.0923025
0.115794
0.132179
0.145038
0.15559
0.164381
0.171726
0.177863
0.182997
0.187293
0.190857
0.19376
0.196065
0.197811
0.199039
0.199796
0.200137
0.200115
0.199774
0.199147
0.198255
0.197095
0.039918
0.0834941
0.105729
0.121822
0.134819
0.145733
0.155044
0.163014
0.169826
0.175634
0.180567
0.184723
0.18817
0.190947
0.193086
0.194619
0.1956
0.196096
0.196169
0.195877
0.195266
0.194374
0.193218
0.034897
0.0741501
0.0949564
0.11043
0.123372
0.134513
0.144216
0.152694
0.160083
0.166493
0.172022
0.176748
0.180733
0.184011
0.186604
0.188539
0.189862
0.190638
0.190934
0.190816
0.190338
0.189549
0.188485
0.0298924
0.0647846
0.0840155
0.0986832
0.111186
0.122297
0.132189
0.140991
0.148797
0.155678
0.161703
0.166928
0.171399
0.175148
0.178194
0.180561
0.182285
0.183424
0.184042
0.184204
0.183969
0.183392
0.182518
0.0252696
0.0558981
0.0734618
0.087157
0.0990241
0.109716
0.119499
0.128386
0.136396
0.14357
0.149942
0.155547
0.160416
0.164573
0.168034
0.17082
0.172962
0.174508
0.175513
0.176037
0.176143
0.175882
0.175306
0.0215481
0.0479151
0.0637823
0.0764078
0.0874842
0.097571
0.106908
0.115577
0.123549
0.130801
0.137339
0.143174
0.148322
0.152794
0.156605
0.159769
0.162313
0.164274
0.1657
0.166642
0.167157
0.167298
0.167112
0.0185438
0.0413466
0.0555561
0.0669865
0.0771169
0.0864494
0.0952052
0.103402
0.111066
0.11817
0.124678
0.130576
0.135861
0.140537
0.144607
0.148084
0.150986
0.153339
0.155184
0.156563
0.157522
0.15811
0.158371
0.0162058
0.036215
0.0489509
0.0592601
0.068437
0.0769384
0.0849552
0.0925464
0.0997224
0.106477
0.112777
0.118572
0.123851
0.128605
0.132831
0.136533
0.139721
0.142414
0.144641
0.146435
0.147833
0.148872
0.14959
0.0144792
0.0324234
0.0439355
0.0532622
0.0615639
0.0692635
0.0765452
0.0834832
0.0900968
0.0963786
0.102308
0.10786
0.112998
0.117711
0.121985
0.125814
0.129201
0.132157
0.134699
0.136849
0.138634
0.140083
0.141224
0.0132775
0.0297801
0.0403276
0.0488415
0.0563951
0.0633866
0.0699978
0.0763127
0.0823628
0.0881509
0.0936646
0.0988846
0.103792
0.108361
0.112578
0.116433
0.119921
0.123044
0.12581
0.128231
0.130323
0.132104
0.133594
0.0124914
0.0280421
0.0378557
0.0457231
0.0526677
0.0590708
0.0651122
0.0708819
0.0764217
0.0817455
0.0868507
0.0917257
0.0963561
0.100724
0.104814
0.108614
0.112115
0.115312
0.118206
0.1208
0.123101
0.125119
0.126862
0.0120073
0.0269604
0.0362252
0.0435884
0.0500502
0.0559816
0.0615599
0.0668787
0.0719865
0.0769058
0.0816424
0.0861926
0.0905468
0.0946934
0.0986185
0.10231
0.105757
0.108952
0.111889
0.114565
0.116982
0.119139
0.12104
0.0117241
0.0263168
0.0351705
0.0421414
0.0482233
0.0537814
0.058991
0.0639469
0.068702
0.0732842
0.0777057
0.0819686
0.0860684
0.0899975
0.0937454
0.0973004
0.100652
0.10379
0.106706
0.109394
0.111847
0.114062
0.116037
0.011563
0.0259413
0.0344823
0.0411452
0.0469262
0.0521877
0.0571036
0.061769
0.0662389
0.0705447
0.0747027
0.0787192
0.0825934
0.0863217
0.0898952
0.0933042
0.0965385
0.0995869
0.102439
0.105086
0.107519
0.109732
0.111717
0.0114691
0.025715
0.0340118
0.0404291
0.0459689
0.0509921
0.0556716
0.0601023
0.0643403
0.0684188
0.0723568
0.0761629
0.0798406
0.0833871
0.0867961
0.0900596
0.0931676
0.0961088
0.0988724
0.101448
0.103824
0.105993
0.107944
0.0114078
0.0255617
0.0336633
0.039883
0.0452282
0.0500591
0.0545471
0.0587867
0.0628342
0.0667236
0.0704755
0.0741019
0.0776066
0.0809891
0.0842454
0.0873683
0.0903484
0.0931751
0.0958371
0.098323
0.100622
0.102722
0.104614
0.0113608
0.0254379
0.0333844
0.0394503
0.0446446
0.0493251
0.0536614
0.057747
0.061638
0.0653692
0.0689622
0.07243
0.0757795
0.079012
0.0821249
0.085112
0.0879651
0.090674
0.0932279
0.0956153
0.0978247
0.0998443
0.101663
0.0113195
0.0253281
0.0331742
0.0391483
0.0442489
0.0488282
0.0530544
0.0570211
0.060784
0.0643787
0.0678288
0.0711502
0.0743526
0.0774402
0.080412
0.0832633
0.0859864
0.0885721
0.0910106
0.0932919
0.0954046
0.0973364
0.0990746
0.0112826
0.0252732
0.0331601
0.0391733
0.0442728
0.0488104
0.0529642
0.056835
0.0604819
0.0639431
0.0672459
0.0704116
0.0734553
0.0763853
0.0792031
0.0819045
0.084482
0.0869275
0.0892336
0.0913932
0.093397
0.0952324
0.0968841
0.0112819
0.0255547
0.0339189
0.0402318
0.045433
0.0499459
0.0540075
0.0577469
0.0612342
0.0645127
0.067616
0.0705731
0.073407
0.076132
0.0787516
0.0812607
0.0836507
0.0859143
0.0880479
0.0900505
0.091917
0.0936348
0.0951847
0.0115544
0.027534
0.037363
0.0441751
0.0493432
0.0536087
0.0573578
0.0607703
0.0639258
0.0668671
0.0696302
0.0722508
0.0747594
0.077175
0.0795015
0.0817303
0.0838487
0.0858491
0.0877334
0.0895101
0.0911807
0.0927329
0.0941425
0.0137087
0.0357071
0.0473826
0.053913
0.0582347
0.0615965
0.0645205
0.0671982
0.0696879
0.0720111
0.0741919
0.0762635
0.078257
0.0801919
0.0820687
0.0838721
0.0855832
0.0871922
0.0887071
0.0901474
0.091522
0.0928189
0.094009
0.0269514
0.0568746
0.0665595
0.0705665
0.0728981
0.0746862
0.0763025
0.077849
0.0793322
0.080741
0.0820793
0.0833674
0.0846275
0.0858742
0.0871027
0.088293
0.0894218
0.0904781
0.0914729
0.092433
0.0933703
0.094273
0.0951118
0.0855696
0.0911395
0.090725
0.0907212
0.0909565
0.0912851
0.0916633
0.0920704
0.0924868
0.0928978
0.093299
0.0936966
0.0940984
0.0945103
0.0949283
0.0953402
0.0957322
0.0960971
0.0964413
0.0967821
0.0971256
0.0974642
0.0977821
0.0637536
0.0504449
0.0391074
0.0322031
0.0889198
0.0785587
0.0660476
0.0552237
0.105936
0.0986111
0.0899102
0.0824894
0.120541
0.116198
0.111698
0.107915
0.134973
0.132848
0.131032
0.1298
0.149286
0.148624
0.148341
0.148521
0.163379
0.163703
0.164376
0.16543
0.177429
0.178495
0.17985
0.181527
0.191917
0.193724
0.195734
0.197974
0.207371
0.210011
0.212808
0.215751
0.224578
0.228379
0.232514
0.236574
0.242874
0.247133
0.250444
0.252294
0.247094
0.249549
0.251395
0.25258
0.236608
0.237178
0.237126
0.236646
0.223047
0.222699
0.222026
0.221081
0.21215
0.211486
0.210645
0.209643
0.204734
0.203976
0.203116
0.202164
0.199794
0.199016
0.198171
0.197271
0.195974
0.195196
0.194369
0.193501
0.192118
0.19136
0.190559
0.189722
0.187461
0.186754
0.186006
0.185222
0.181645
0.181033
0.18038
0.179689
0.17466
0.174193
0.173682
0.173131
0.16676
0.166479
0.166153
0.165783
0.158353
0.158286
0.15817
0.158008
0.149913
0.150063
0.150161
0.15021
0.141861
0.142213
0.142512
0.142759
0.134492
0.135016
0.135485
0.135899
0.127953
0.128606
0.129203
0.129743
0.122254
0.12299
0.123671
0.124294
0.117312
0.118092
0.118816
0.119484
0.113007
0.113798
0.114534
0.115215
0.109216
0.109996
0.110723
0.111396
0.105847
0.106602
0.107306
0.107955
0.102845
0.103569
0.10424
0.10486
0.100202
0.100889
0.101526
0.102111
0.0979527
0.0986015
0.0992007
0.0997487
0.0961861
0.0967916
0.0973487
0.0978556
0.0950535
0.0956021
0.0961047
0.0965592
0.0947795
0.0952414
0.0956626
0.0960405
0.0956554
0.0959792
0.0962727
0.0965334
0.0979872
0.0981082
0.098217
0.0983124
0.0358458
0.0670866
0.0877747
0.102439
0.113405
0.121298
0.126968
0.130882
0.132925
0.132673
0.129491
0.123046
0.114155
0.103901
0.0925997
0.0804809
0.0678127
0.0535273
0.0284273
0.0522748
0.0756889
0.0938856
0.108685
0.120163
0.12876
0.135125
0.139708
0.142413
0.142692
0.139737
0.133161
0.123684
0.112241
0.099253
0.0850376
0.0698846
0.0538978
0.0292368
0.0783696
0.0913733
0.105554
0.118377
0.128957
0.137314
0.143796
0.148706
0.151928
0.152855
0.150553
0.144368
0.134585
0.121757
0.106396
0.0888938
0.0696227
0.0499633
0.0251411
0.105073
0.112044
0.121935
0.13187
0.140655
0.147987
0.153949
0.158702
0.162129
0.163574
0.162156
0.15679
0.146641
0.131775
0.113157
0.0914626
0.0670314
0.0420759
0.0195767
0.129092
0.133633
0.140551
0.148064
0.155123
0.161246
0.166419
0.170711
0.174015
0.175554
0.175019
0.170533
0.159659
0.141598
0.118577
0.092707
0.0644605
0.0358132
0.0159994
0.149666
0.153787
0.159418
0.165553
0.17152
0.17682
0.181427
0.185334
0.18864
0.189825
0.18922
0.186183
0.174461
0.151602
0.123269
0.0952732
0.0685661
0.039194
0.017256
0.167813
0.172408
0.177824
0.183602
0.189294
0.194527
0.199201
0.20307
0.206942
0.20936
0.203721
0.195314
0.179253
0.154107
0.126546
0.0994078
0.0750155
0.04994
0.0222962
0.184854
0.190225
0.196122
0.202416
0.208673
0.214767
0.220349
0.223684
0.222333
0.216026
0.202402
0.187971
0.171585
0.151909
0.127279
0.101947
0.0794874
0.0571441
0.0267836
0.202106
0.208415
0.215395
0.223045
0.230802
0.236589
0.240966
0.238112
0.222013
0.205761
0.190234
0.176651
0.163287
0.146251
0.124782
0.102764
0.0820737
0.062063
0.0282157
0.220928
0.228461
0.236696
0.244753
0.251229
0.252346
0.243973
0.230161
0.211017
0.19442
0.180436
0.169201
0.15863
0.143365
0.123673
0.103515
0.084552
0.0650657
0.029533
0.242591
0.249646
0.256431
0.260559
0.256971
0.247142
0.232214
0.216147
0.199258
0.184699
0.173018
0.164056
0.154886
0.140639
0.122582
0.104368
0.0870255
0.0672438
0.0306434
0.254987
0.259728
0.260685
0.254036
0.244435
0.231468
0.216768
0.202391
0.188706
0.176864
0.167361
0.159606
0.150587
0.13743
0.121628
0.105672
0.0893504
0.0691161
0.0316425
0.253048
0.250298
0.244446
0.236087
0.226041
0.214506
0.202584
0.191134
0.180446
0.171064
0.163166
0.15587
0.146993
0.135155
0.121489
0.107158
0.091404
0.0708149
0.0325883
0.235393
0.231472
0.225539
0.218176
0.209912
0.200978
0.191902
0.183085
0.174758
0.167182
0.160266
0.153198
0.144636
0.13397
0.121821
0.108526
0.0931201
0.0723506
0.0334889
0.21928
0.215528
0.210628
0.20489
0.198559
0.1918
0.184872
0.177974
0.171251
0.164791
0.158396
0.151462
0.143231
0.133417
0.122246
0.109627
0.0945125
0.0737328
0.0343424
0.207881
0.204661
0.200766
0.196323
0.191417
0.186137
0.180607
0.174922
0.169151
0.163285
0.157129
0.150282
0.142326
0.133088
0.12256
0.110434
0.0956227
0.0749611
0.0351336
0.200566
0.197835
0.194651
0.191048
0.187035
0.182646
0.177932
0.172932
0.167666
0.162089
0.156043
0.149279
0.141556
0.132734
0.122678
0.110967
0.0964832
0.0760281
0.0358464
0.195797
0.193381
0.190618
0.187493
0.183982
0.180087
0.175821
0.171192
0.166193
0.160773
0.15482
0.148176
0.140686
0.132217
0.122562
0.111242
0.0971049
0.0769036
0.0364734
0.192092
0.189841
0.187297
0.184428
0.181193
0.177576
0.173571
0.16917
0.164356
0.159082
0.153268
0.146808
0.139588
0.131466
0.122195
0.11126
0.0974791
0.0775456
0.0370213
0.188354
0.186197
0.183782
0.181071
0.178019
0.174601
0.170801
0.166604
0.161986
0.156909
0.15131
0.145111
0.138207
0.13045
0.121566
0.111012
0.0975857
0.0779201
0.0374975
0.183921
0.181871
0.179586
0.177033
0.174165
0.170956
0.167384
0.163429
0.159065
0.154256
0.148951
0.143077
0.136533
0.129158
0.120664
0.110479
0.0974121
0.0780928
0.0377985
0.178517
0.176648
0.174558
0.172219
0.169592
0.166647
0.16336
0.159709
0.155664
0.151191
0.146238
0.140735
0.134577
0.127591
0.119479
0.109679
0.0969718
0.0779737
0.0378807
0.172166
0.170578
0.168774
0.166732
0.164418
0.161804
0.158864
0.155572
0.151898
0.147803
0.143237
0.138124
0.13236
0.125768
0.118033
0.108583
0.0962051
0.0775258
0.0377348
0.165096
0.163887
0.162456
0.160786
0.158848
0.156616
0.154065
0.151166
0.147888
0.144187
0.140016
0.135301
0.129921
0.123689
0.116292
0.107157
0.095084
0.0767315
0.0373601
0.157652
0.156887
0.155885
0.154632
0.153105
0.151281
0.149131
0.14663
0.143747
0.140438
0.136647
0.132293
0.127254
0.12134
0.114238
0.105384
0.0935967
0.0755856
0.0367612
0.150199
0.1499
0.149341
0.148513
0.147397
0.145971
0.144211
0.142089
0.13957
0.13661
0.133151
0.12911
0.124363
0.11872
0.111872
0.103265
0.0917446
0.0740926
0.0359481
0.143074
0.143212
0.143067
0.142632
0.14189
0.14082
0.1394
0.137603
0.135393
0.132728
0.129546
0.125764
0.121257
0.115837
0.109201
0.100809
0.0895417
0.0722682
0.0349357
0.136493
0.136999
0.137202
0.137094
0.13666
0.135882
0.134739
0.133204
0.131243
0.128812
0.12585
0.122272
0.117955
0.112714
0.106251
0.0980449
0.0870159
0.0701391
0.0337455
0.130548
0.131331
0.131797
0.131937
0.131736
0.131179
0.130244
0.128907
0.127133
0.124878
0.122082
0.118659
0.114486
0.109382
0.103058
0.095012
0.0842092
0.0677446
0.0324057
0.125238
0.126207
0.126849
0.127157
0.127116
0.12671
0.125919
0.124719
0.123076
0.120946
0.118267
0.114956
0.110889
0.105889
0.0996757
0.091768
0.0811783
0.0651303
0.0309593
0.120503
0.121575
0.122319
0.122723
0.122776
0.122461
0.121758
0.120645
0.119086
0.117038
0.11444
0.111207
0.107218
0.102298
0.0961747
0.0883861
0.0779979
0.062375
0.0294488
0.11626
0.11737
0.118153
0.118598
0.118692
0.11842
0.117762
0.116695
0.115187
0.113192
0.110649
0.107474
0.103545
0.0986893
0.0926432
0.0849682
0.074775
0.0595721
0.0279246
0.112429
0.113529
0.114307
0.114751
0.114848
0.114584
0.113941
0.112896
0.111415
0.109456
0.106957
0.103832
0.0999588
0.095169
0.0892055
0.0816451
0.071644
0.0568447
0.0264392
0.108953
0.110013
0.110755
0.11117
0.111246
0.110969
0.110323
0.109286
0.107826
0.1059
0.103446
0.100376
0.0965747
0.0918691
0.086007
0.0785749
0.068764
0.0543351
0.0250612
0.105808
0.106808
0.107498
0.107867
0.107907
0.107607
0.106953
0.105923
0.104489
0.102606
0.100213
0.0972264
0.0935259
0.0889399
0.0832143
0.075938
0.0663215
0.0522143
0.0238808
0.103003
0.103933
0.104559
0.104875
0.104875
0.104552
0.103894
0.102883
0.10149
0.099673
0.0973735
0.0945071
0.0909533
0.0865389
0.0810049
0.0739328
0.0645291
0.0506838
0.0230048
0.10058
0.101435
0.101993
0.102252
0.102215
0.101876
0.101228
0.100254
0.0989267
0.0972084
0.0950405
0.0923396
0.0889872
0.0848101
0.0795435
0.0727518
0.0636091
0.0499745
0.0225647
0.0986199
0.0993902
0.0998743
0.100079
0.10001
0.0996696
0.0990499
0.0981351
0.0969019
0.0953128
0.093311
0.0908169
0.0877179
0.0838462
0.0789358
0.0725314
0.0637485
0.0503232
0.022715
0.0972393
0.0979082
0.0983106
0.0984614
0.0983726
0.0980469
0.0974732
0.0966321
0.0955047
0.094059
0.0922384
0.0899697
0.0871528
0.0836347
0.0791608
0.0732676
0.065005
0.0518991
0.0236424
0.096601
0.0971365
0.0974426
0.097541
0.0974457
0.0971519
0.0966243
0.0958305
0.0947804
0.0934558
0.091792
0.0897247
0.0871731
0.0840093
0.0800068
0.0747228
0.067174
0.0546488
0.0255739
0.0969162
0.0972706
0.0974619
0.0975116
0.0974274
0.0971774
0.0966212
0.0957386
0.0946627
0.0933876
0.0918111
0.0898744
0.087518
0.0846418
0.0810593
0.0763821
0.0696705
0.0580886
0.0288455
0.0984511
0.0985755
0.098638
0.0986486
0.0986029
0.0984168
0.0974036
0.0961061
0.0948609
0.0935541
0.0919872
0.0900965
0.0878345
0.0851185
0.0817934
0.0775307
0.0714955
0.0609872
0.0334373
)
;

boundaryField
{
    leftWall
    {
        type            kqRWallFunction;
        value           nonuniform List<scalar> 
50
(
0.00165157
0.00384654
0.00528927
0.00659413
0.00793949
0.00948856
0.0113717
0.0136782
0.0166238
0.021472
0.0263538
0.031177
0.0360463
0.0411329
0.0468736
0.0546011
0.0653024
0.0762758
0.0734185
0.0591276
0.0543986
0.0543309
0.055064
0.0545922
0.0525025
0.0488902
0.0446534
0.039918
0.034897
0.0298924
0.0252696
0.0215481
0.0185438
0.0162058
0.0144792
0.0132775
0.0124914
0.0120073
0.0117241
0.011563
0.0114691
0.0114078
0.0113608
0.0113195
0.0112826
0.0112819
0.0115544
0.0137087
0.0269514
0.0855696
)
;
    }
    rightWall
    {
        type            kqRWallFunction;
        value           nonuniform List<scalar> 
50
(
0.00660952
0.0124187
0.0156276
0.0184072
0.0209473
0.0225218
0.0238865
0.0257998
0.0284273
0.0292368
0.0251411
0.0195767
0.0159994
0.017256
0.0222962
0.0267836
0.0282157
0.029533
0.0306434
0.0316425
0.0325883
0.0334889
0.0343424
0.0351336
0.0358464
0.0364734
0.0370213
0.0374975
0.0377985
0.0378807
0.0377348
0.0373601
0.0367612
0.0359481
0.0349357
0.0337455
0.0324057
0.0309593
0.0294488
0.0279246
0.0264392
0.0250612
0.0238808
0.0230048
0.0225647
0.022715
0.0236424
0.0255739
0.0288455
0.0334373
)
;
    }
    lowerWall
    {
        type            kqRWallFunction;
        value           nonuniform List<scalar> 
62
(
0.00165157
0.00417343
0.00670335
0.0087868
0.0103975
0.0116338
0.0126282
0.0134915
0.0143087
0.0151537
0.016109
0.0172577
0.0184688
0.0196287
0.0206397
0.0213975
0.0217816
0.0216464
0.0208156
0.0190839
0.0161821
0.0115402
0.00369309
0.00369309
0.00979113
0.0145285
0.0191856
0.0241339
0.0299843
0.0377895
0.0509152
0.0637536
0.0504449
0.0391074
0.0322031
0.0164597
0.0241289
0.0268257
0.0286538
0.0298701
0.0303234
0.0303199
0.0306924
0.0164597
0.0229179
0.0282287
0.0305715
0.0305438
0.03074
0.0320012
0.0332613
0.0337663
0.0333452
0.0311827
0.0268547
0.0235303
0.021594
0.0187645
0.0152516
0.0122942
0.00997008
0.00660952
)
;
    }
    atmosphere
    {
        type            inletOutlet;
        inletValue      uniform 0.1;
        value           nonuniform List<scalar> 
46
(
0.1
0.1
0.1
0.1
0.1
0.1
0.1
0.1
0.1
0.1
0.1
0.1
0.1
0.1
0.1
0.1
0.1
0.1
0.1
0.1
0.1
0.1
0.1
0.1
0.1
0.1
0.1
0.1
0.1
0.1
0.1
0.1
0.1
0.0974036
0.0961061
0.0948609
0.0935541
0.0919872
0.0900965
0.0878345
0.0851185
0.0817934
0.0775307
0.0714955
0.0609872
0.0334373
)
;
    }
    defaultFaces
    {
        type            empty;
    }
}


// ************************************************************************* //
