/*--------------------------------*- C++ -*----------------------------------*\
  =========                 |
  \\      /  F ield         | OpenFOAM: The Open Source CFD Toolbox
   \\    /   O peration     | Website:  https://openfoam.org
    \\  /    A nd           | Version:  13
     \\/     M anipulation  |
\*---------------------------------------------------------------------------*/
FoamFile
{
    format      ascii;
    class       volScalarField;
    location    "1.3";
    object      p;
}
// * * * * * * * * * * * * * * * * * * * * * * * * * * * * * * * * * * * * * //

dimensions      [1 -1 -2 0 0 0 0];

internalField   nonuniform List<scalar> 
2268
(
5618.53
5671.08
5748.76
5852.91
5965.52
6072.09
6161.32
6225.79
6261.12
6265.79
6239.98
6188.68
6113.18
6017.4
5906.84
5788.68
5670.99
5562.82
5473.5
5410.1
5376.99
5375.29
5403.25
4809.47
4855.34
4922.55
5016.98
5125.17
5233.36
5328.76
5402.32
5448.11
5463.3
5449.18
5405.34
5336.56
5245.9
5138.59
5021.95
4904.24
4794.96
4704
4637.87
4599.07
4590.86
4613.57
3998.69
4036.94
4093.57
4178.66
4282.33
4392.12
4494.17
4577.76
4635.01
4661.46
4657.01
4622.13
4560.55
4475.05
4370.84
4255.57
4137.9
4027.05
3933.26
3862.2
3815.97
3802.35
3818.48
3181.6
3214.71
3262.6
3342.07
3443.95
3557.93
3667.97
3761.95
3829.95
3865.8
3869.04
3840.6
3783.97
3701.5
3598.38
3482.94
3363.43
3249.02
3150.23
3071.75
3017.45
3000.36
3014.6
2359.29
2388.47
2429.27
2506.41
2608.73
2727.41
2846.99
2952.49
3031.55
3076.14
3085.97
3062.3
3008.75
2926.83
2821.59
2701.91
2575.23
2449.58
2339.73
2249.61
2187.79
2170.68
2194.69
1588.05
1612.2
1640.16
1706.04
1803.37
1920.14
2042.24
2155.3
2243.4
2295.55
2311.24
2291.13
2237.56
2148.37
2027.31
1886.61
1744.71
1621.87
1521.23
1440.56
1387.62
1374.71
1412.25
1168.5
1183.15
1189.97
1208.25
1237.96
1283.86
1354.53
1435.94
1510.29
1554.9
1562.79
1533.24
1476.7
1398.28
1305.4
1210.38
1123.45
1059.72
1008.87
966.961
938.39
930.37
955.488
1069.43
1077.43
1072.8
1058.83
1035.91
1014.93
1013.11
1025
1041.73
1049.98
1043.15
1020.52
989.793
960.461
937.846
922.423
907.88
889.374
866.491
841.936
821.359
806.289
811.726
2938.08
2526.18
2602.8
2560
2357.56
2198.71
2137.73
2092.6
2049.91
1996.34
1925.97
1882.55
1924.91
1980.85
2019.49
2055.6
2110.72
2149
2132.24
2181.32
1838.6
1885.39
1823.62
1657.28
1584.52
1523.2
1459.62
1400.04
1362.61
1350.43
1376.13
1401.64
1443.45
1479.62
1516.16
1557.44
1570.4
1539.52
1795.38
1522.32
1437.15
1240.62
1073.28
1007.59
962.79
912.095
867.387
859.226
891.37
965.982
1036.78
1076.14
1099.82
1119.98
1120.78
1088.37
1071.63
1601.08
1399.25
1161.83
910.337
823.934
782.181
751.088
724.767
701.657
694.481
699.743
730.265
814.776
862.829
880.309
888.873
864.625
786.825
758.513
1401.88
1183.56
902.136
788.539
754.834
725.337
699.748
682.487
672.36
655.298
632.789
618.476
623.388
629.823
639.049
641.922
631.338
576.03
545.799
1169.66
931.774
726.989
709.154
691.316
663.851
638.746
619.795
610.725
600.909
588.406
561.675
513.65
476.501
462.504
451.519
445.458
434.981
445.57
978.486
725.238
641.797
646.396
628.845
602.238
577.988
558.726
546.841
535.917
523.544
501.085
462.761
423.602
395.87
376.767
367.739
372.387
396.1
859.097
579.528
586.652
587.651
567.751
542.126
519.031
500.007
486.043
472.434
456.447
435.365
401.556
371.038
349.949
335.152
326.031
328.154
347.867
971.198
978.497
977.655
968.882
954.911
937.521
915.673
891.302
867.618
848.687
836.018
828.391
822.626
817.181
811.365
803.391
791.851
775.937
755.385
730.788
703.326
674.157
646.944
834.26
839.701
838.379
829.606
816.076
800.434
783.593
766.548
750.292
735.973
724.166
714.457
705.984
697.918
689.736
679.649
665.888
648.303
625.597
601.25
573.107
553.132
544.187
696.467
700.931
699.441
691.089
678.611
664.349
649.981
636.202
623.337
611.78
601.872
593.386
585.213
576.577
567.428
555.741
540.175
523.876
505.208
489.062
477.351
469.714
465.356
559.678
563.435
561.384
553.273
541.639
528.975
516.922
506.376
496.707
487.577
479.762
473.004
465.042
455.304
446.59
437.549
426.186
417.86
412.88
408.566
406.434
400.406
392.659
424.451
427.549
424.352
415.974
404.767
393.347
383.699
377.437
371.875
365.746
360.545
357.33
352.825
347.589
344.664
343.882
343.873
343.676
344.534
343.81
339.253
332.368
323.391
291.142
295.266
290.569
282.363
274.599
268.808
265.401
265.108
265.23
265.085
265.719
267.327
269.514
272.631
275.564
278.414
282.025
283.119
281.822
278.942
274.132
267.013
257.551
164.335
172.454
166.263
173.191
178.646
183.097
187.746
191.365
195.45
199.643
203.994
207.519
211.893
216.433
219.376
220.983
221.935
221.595
219.957
216.618
211.292
203.739
193.948
53.4885
65.9075
78.2066
96.923
110.236
120.888
129.783
135.962
141.37
146.287
150.147
153.359
156.375
159.142
161.195
162.493
162.965
162.135
159.851
155.904
149.988
141.98
131.936
6.96474
13.7887
25.388
40.2302
51.3473
60.7412
69.3172
76.6328
82.2716
87.5892
92.0367
95.9615
99.4434
102.346
104.381
105.435
105.298
103.957
101.2
96.9581
90.8191
82.6615
73.3699
5.40382
5.49506
9.18372
11.8996
15.4161
19.2936
23.4079
27.497
31.7456
36.0227
40.1347
43.9815
47.2875
49.6565
51.2723
51.9029
51.1113
49.7322
47.0509
43.2466
37.7704
31.2669
26.0552
3.98199
3.66172
3.23158
3.17955
3.04951
3.02095
4.34898
5.91808
7.86463
10.0159
12.1332
13.9808
15.4649
16.2698
16.7423
16.8616
16.4344
14.9903
13.6391
12.0712
9.41635
6.88245
5.62526
3.41098
3.32497
3.2678
3.21541
3.15634
3.12421
3.04006
2.97747
2.97453
2.98935
2.99168
2.97238
2.95246
2.91384
3.06628
3.19644
3.28792
3.30575
3.31861
3.35937
3.42105
3.48982
3.70008
3.25876
3.21199
3.15529
3.11797
3.08043
3.07168
3.07211
3.08266
3.09364
3.1007
3.101
3.09408
3.07239
3.05186
3.05078
3.10801
3.20975
3.32121
3.41157
3.47496
3.5364
3.6149
3.73072
3.10233
3.07232
3.03591
2.99893
2.9825
2.95822
2.96018
2.95584
2.95954
2.96514
2.96918
2.97454
2.9766
2.99326
3.02307
3.07372
3.13428
3.19799
3.25745
3.31882
3.39018
3.47842
3.58738
2.96638
2.94352
2.91672
2.88907
2.86806
2.8576
2.84448
2.83901
2.84181
2.84783
2.85479
2.86139
2.87761
2.89227
2.92614
2.9662
3.01726
3.07561
3.13769
3.20472
3.27946
3.3635
3.46279
2.84193
2.82295
2.80394
2.78502
2.76925
2.75694
2.74711
2.74267
2.74397
2.74793
2.7535
2.7616
2.77438
2.79686
2.82357
2.86147
2.91044
2.96705
3.02938
3.09674
3.16998
3.24804
3.33661
2.72274
2.70659
2.69215
2.67956
2.66914
2.66068
2.6535
2.64951
2.6494
2.65191
2.65585
2.66427
2.67922
2.70051
2.72814
2.76382
2.80878
2.86142
2.9203
2.98467
3.05432
3.12691
3.20795
2.60622
2.59253
2.58108
2.57226
2.56529
2.55956
2.55479
2.55198
2.5519
2.55449
2.55941
2.56781
2.58246
2.60419
2.6321
2.66629
2.70738
2.75556
2.81039
2.87099
2.93666
3.00457
3.07995
2.49133
2.48017
2.47104
2.46448
2.45957
2.4557
2.45278
2.45141
2.45218
2.45545
2.46166
2.47148
2.4853
2.50523
2.53191
2.56506
2.60392
2.64886
2.7
2.75683
2.81845
2.8821
2.95265
2.37734
2.36892
2.36193
2.35696
2.3534
2.35083
2.34928
2.34917
2.35097
2.35514
2.36216
2.37275
2.38741
2.40677
2.43157
2.46227
2.4988
2.54094
2.58889
2.6421
2.69981
2.75946
2.82546
2.26432
2.25855
2.25356
2.24987
2.24732
2.24571
2.24517
2.24604
2.24872
2.25368
2.26135
2.27229
2.28702
2.30602
2.32971
2.35846
2.39243
2.43189
2.47679
2.52663
2.58064
2.63653
2.69831
2.15255
2.14907
2.1458
2.14317
2.14141
2.14058
2.14081
2.14241
2.14576
2.15128
2.15937
2.17047
2.18499
2.20336
2.22593
2.253
2.28489
2.32183
2.36386
2.41048
2.461
2.51336
2.57114
2.04215
2.04043
2.03854
2.03678
2.03566
2.03543
2.03628
2.03845
2.04228
2.04816
2.05646
2.06752
2.08171
2.09937
2.12081
2.14635
2.17628
2.2109
2.25022
2.29379
2.34099
2.38996
2.444
1.93296
1.93259
1.9317
1.93061
1.93001
1.93024
1.93155
1.93416
1.93836
1.94446
1.9528
1.9637
1.97746
1.99437
2.01471
2.03878
2.06688
2.09928
2.13603
2.1767
2.22071
2.26645
2.31686
1.82477
1.82528
1.82512
1.8246
1.82442
1.82501
1.82662
1.82951
1.83396
1.84021
1.8485
1.85915
1.87241
1.88855
1.90783
1.93049
1.95684
1.98712
2.02139
2.0593
2.10028
2.1429
2.18988
1.7173
1.71834
1.71871
1.71866
1.71884
1.71969
1.72152
1.7246
1.72915
1.7354
1.74359
1.75394
1.76669
1.78205
1.80027
1.82158
1.84624
1.87449
1.9064
1.94165
1.97974
2.01936
2.06305
1.61034
1.61167
1.61239
1.61271
1.61318
1.61427
1.61627
1.61944
1.624
1.63018
1.63816
1.64816
1.66037
1.67496
1.69214
1.71213
1.73517
1.76148
1.79111
1.8238
1.85909
1.89577
1.93624
1.50373
1.50518
1.50612
1.50671
1.50743
1.5087
1.51083
1.51405
1.51859
1.52463
1.53236
1.54195
1.55356
1.56736
1.58351
1.60222
1.62368
1.64811
1.67557
1.7058
1.73837
1.77222
1.80936
1.39741
1.39887
1.39994
1.40071
1.40161
1.40303
1.40524
1.40849
1.41296
1.41883
1.42626
1.43541
1.4464
1.45939
1.47452
1.49195
1.51188
1.53448
1.55981
1.58764
1.61759
1.64864
1.68263
1.29135
1.29276
1.29388
1.29478
1.29582
1.29733
1.2996
1.30283
1.3072
1.31287
1.31997
1.32864
1.339
1.35116
1.36525
1.38142
1.39983
1.42065
1.44391
1.46941
1.49679
1.52512
1.55607
1.18554
1.18686
1.18801
1.189
1.19012
1.19171
1.194
1.19718
1.20142
1.20685
1.21359
1.22176
1.23145
1.24277
1.25582
1.27073
1.28764
1.3067
1.32793
1.35114
1.37601
1.40168
1.42967
1.08
1.08122
1.08236
1.08341
1.08461
1.08624
1.08853
1.09163
1.09571
1.10087
1.10722
1.11486
1.12387
1.13433
1.14632
1.15997
1.17538
1.19269
1.21192
1.23288
1.25529
1.27836
1.30345
0.974716
0.975828
0.976957
0.97805
0.979303
0.980966
0.983229
0.986242
0.990131
0.995001
1.00094
1.00802
1.01632
1.02589
1.03682
1.04919
1.06311
1.07868
1.09593
1.11469
1.13468
1.15519
1.17747
0.869672
0.870686
0.871797
0.872923
0.874216
0.875893
0.878117
0.881019
0.884705
0.889262
0.894764
0.901269
0.908831
0.917504
0.927349
0.938441
0.950868
0.964718
0.980007
0.996586
1.01421
1.03224
1.05179
0.764835
0.765765
0.766854
0.767999
0.769317
0.770993
0.773167
0.775945
0.779414
0.783644
0.78869
0.794598
0.80141
0.809169
0.817922
0.82773
0.838665
0.850804
0.864161
0.878598
0.893906
0.909528
0.926439
0.660168
0.661029
0.662087
0.663233
0.664559
0.666222
0.668336
0.670983
0.674227
0.678117
0.682695
0.687993
0.694043
0.700874
0.708525
0.717043
0.726493
0.736939
0.748392
0.760736
0.773783
0.787065
0.80142
0.555654
0.556454
0.557464
0.558585
0.559901
0.561543
0.563596
0.566112
0.569126
0.572669
0.576766
0.581439
0.586708
0.592596
0.599134
0.606362
0.614334
0.623107
0.632691
0.642986
0.653847
0.664874
0.676781
0.451335
0.452075
0.453005
0.454074
0.455366
0.456985
0.458977
0.461358
0.464133
0.467312
0.470905
0.474926
0.47939
0.484316
0.489729
0.495664
0.502169
0.50929
0.517042
0.525349
0.534085
0.542948
0.55252
0.3473
0.348008
0.348846
0.349828
0.351075
0.352662
0.354581
0.356803
0.359305
0.362079
0.365126
0.368456
0.372082
0.37602
0.380293
0.384932
0.389977
0.395469
0.401426
0.407787
0.414471
0.421249
0.428577
0.243635
0.244476
0.245265
0.246123
0.24729
0.2488
0.250579
0.252555
0.254688
0.256963
0.25938
0.261949
0.264683
0.267595
0.270703
0.274034
0.277618
0.281496
0.285687
0.290155
0.294834
0.299578
0.304741
0.140293
0.141179
0.142377
0.143338
0.144422
0.145731
0.147179
0.148697
0.150257
0.151852
0.153491
0.155186
0.15695
0.158787
0.160707
0.162724
0.164861
0.167155
0.169641
0.172291
0.175059
0.177876
0.180964
0.0445429
0.0415268
0.0442886
0.0453672
0.0460623
0.046735
0.0473961
0.0480379
0.0486632
0.0492786
0.0498933
0.0505194
0.0511647
0.0518271
0.0525038
0.0531977
0.0539171
0.0546862
0.0555485
0.0564961
0.0574811
0.0584925
0.059626
613.922
614.836
618.317
612.568
548.447
557.566
564.264
559.795
466.161
468.612
467.776
454.704
386.523
381.283
373.179
358.125
314.953
308.14
299.214
287.415
248.336
241.352
233.434
223.999
184.638
177.861
170.608
162.618
122.331
115.508
108.514
101.471
65.3169
59.5463
52.8665
46.0449
23.6366
21.147
16.0363
11.677
5.55311
5.23693
4.54015
4.18147
4.07733
4.33876
4.50111
4.55131
3.89208
4.02478
4.13933
4.22179
3.73346
3.86723
3.99949
4.09553
3.5988
3.72404
3.85515
3.95751
3.45948
3.57683
3.70401
3.80697
3.32288
3.43457
3.55711
3.65727
3.18869
3.295
3.41201
3.50811
3.05521
3.15585
3.26705
3.3586
2.92179
3.01653
3.12153
3.20839
2.78838
2.87708
2.97586
3.05787
2.65515
2.73787
2.83021
2.90731
2.52208
2.5989
2.685
2.75718
2.38924
2.46035
2.54027
2.60769
2.25679
2.32242
2.39651
2.45926
2.12486
2.18536
2.25376
2.31197
1.99319
2.04895
2.1122
2.16621
1.86173
1.91308
1.97141
2.02136
1.7306
1.77772
1.83139
1.87737
1.59985
1.64294
1.69203
1.73414
1.4694
1.50858
1.5533
1.59162
1.33921
1.37459
1.415
1.44965
1.20935
1.241
1.27725
1.30829
1.0799
1.10791
1.13999
1.16749
0.950863
0.97527
1.0033
1.02731
0.822238
0.843112
0.867111
0.887721
0.694099
0.711511
0.731598
0.74887
0.566486
0.580546
0.596765
0.610773
0.43932
0.45013
0.462631
0.473467
0.312413
0.320096
0.328985
0.336782
0.185386
0.189981
0.195418
0.200439
0.0610936
0.0626085
0.0643969
0.0661936
684.773
520.297
508.222
498.535
476.528
451.822
430.348
412.36
397.118
381.911
364.629
345.446
325.146
307.779
295.049
284.626
275.963
273.073
281.15
543.167
434.834
407.799
390.714
370.046
350.703
333.14
317.289
302.791
288.865
275.138
261.863
249.061
238.113
228.884
220.023
211.104
203.088
202.724
412.325
347.369
324.265
308.108
294.158
280.361
265.289
250.399
236.187
222.52
209.162
196.011
184.084
174.029
165.197
157.313
149.373
140.365
139.264
320.111
282.184
262.583
249.155
236.316
221.392
205.415
189.657
174.233
158.611
141.677
125.782
113.22
105.23
99.2592
94.5406
89.8702
83.3833
81.1209
264.487
232.96
212.87
196.579
180.311
163.667
146.505
129.376
110.372
88.6871
64.6714
48.245
40.3166
38.2284
38.2822
37.8825
34.8427
32.055
29.222
206.986
182.287
161.187
142.508
124.788
107.004
87.8582
66.6638
43.1416
26.6453
13.167
9.16447
8.2242
8.51295
9.90254
10.6887
9.05399
7.80488
7.66606
148.406
127.785
107.677
88.6729
70.7421
51.3921
32.6234
19.731
7.41468
6.3567
6.38619
6.35588
6.41278
6.59732
6.72332
6.57262
6.27917
6.15216
6.11917
90.1419
73.3405
55.0265
37.2463
25.3906
16.1754
6.0032
5.79155
5.9353
5.88458
5.87907
5.93069
6.02843
6.13832
6.14148
6.01096
5.93711
5.93343
5.93125
36.97
27.0304
17.9092
10.2931
5.09435
5.39094
5.55451
5.55629
5.62312
5.70352
5.74199
5.76803
5.79685
5.82019
5.76239
5.72156
5.74802
5.75884
5.75567
9.09481
6.80514
5.00248
5.1251
5.21942
5.22991
5.31744
5.38103
5.45411
5.51952
5.5634
5.57416
5.5608
5.52529
5.52702
5.55854
5.57676
5.58261
5.57995
4.21808
4.60359
4.92403
5.01503
5.03533
5.07402
5.14727
5.20153
5.25301
5.30094
5.34266
5.37342
5.36898
5.35476
5.37392
5.39166
5.40302
5.4055
5.40212
4.53999
4.58897
4.69143
4.78984
4.8531
4.91554
4.9795
5.03003
5.06841
5.10904
5.15213
5.18812
5.1989
5.20003
5.21033
5.22163
5.22857
5.22904
5.22591
4.32721
4.42336
4.51654
4.60953
4.68908
4.75572
4.81496
4.86352
4.90456
4.9445
4.98226
5.0119
5.02762
5.03445
5.04286
5.0506
5.05449
5.05352
5.05043
4.19278
4.27884
4.36654
4.45267
4.52717
4.5913
4.64803
4.69674
4.73878
4.77697
4.81096
4.83793
4.85494
4.86465
4.87269
4.87833
4.88032
4.87853
4.87556
4.05992
4.13723
4.21564
4.29311
4.36317
4.42523
4.48033
4.52843
4.57021
4.60696
4.6386
4.66375
4.68112
4.69233
4.70015
4.70475
4.70589
4.70376
4.70111
3.91251
3.98648
4.05931
4.13153
4.1982
4.25821
4.31166
4.35862
4.39953
4.435
4.46498
4.48887
4.50625
4.5181
4.52594
4.53022
4.53108
4.5291
4.52694
3.76041
3.83162
3.90074
3.96901
4.03258
4.09029
4.14188
4.18741
4.22716
4.26141
4.29017
4.31322
4.33052
4.3427
4.35069
4.35503
4.35598
4.35444
4.35296
3.60714
3.67507
3.74081
3.80562
3.8662
3.92151
3.97117
4.01516
4.05364
4.08677
4.11458
4.13704
4.15423
4.16662
4.17486
4.1794
4.18071
4.1798
4.17917
3.453
3.51749
3.57989
3.64146
3.69919
3.75212
3.79984
3.84228
3.8795
3.91159
3.93861
3.96059
3.97768
3.99024
3.99875
4.00362
4.0054
4.0051
4.00571
3.29821
3.35927
3.4184
3.47688
3.53187
3.58248
3.62828
3.66917
3.70516
3.73628
3.76259
3.78416
3.80115
3.81387
3.82263
3.82787
3.83024
3.83076
3.83219
3.14298
3.20081
3.25679
3.31228
3.36462
3.41297
3.45689
3.49624
3.531
3.56118
3.58682
3.608
3.62488
3.63767
3.64666
3.65227
3.65521
3.6566
3.65871
2.98781
3.04254
3.09549
3.14809
3.19785
3.24397
3.28601
3.32382
3.35734
3.38657
3.41153
3.43231
3.449
3.46177
3.47091
3.47684
3.48032
3.48252
3.48531
2.83302
2.88484
2.93488
2.98466
3.03188
3.07577
3.11592
3.15216
3.18441
3.21265
3.23689
3.25716
3.27354
3.28619
3.29539
3.30161
3.30561
3.30854
3.31198
2.67907
2.72804
2.77525
2.82226
2.86694
2.9086
2.94684
2.98145
3.01236
3.03952
3.0629
3.08252
3.09847
3.11093
3.12018
3.12665
3.13112
3.13472
3.13868
2.52612
2.57243
2.6168
2.66104
2.70318
2.74257
2.77881
2.81171
2.84116
2.86709
2.88948
2.90837
2.92385
2.93609
2.94534
2.95203
2.95691
2.96106
2.96546
2.37434
2.41822
2.45958
2.50099
2.54055
2.5776
2.61175
2.64282
2.67069
2.69532
2.71668
2.73481
2.74979
2.76176
2.77098
2.77784
2.78305
2.78764
2.79233
2.22429
2.26473
2.30337
2.34198
2.37889
2.41354
2.44555
2.47474
2.50102
2.52431
2.54462
2.56195
2.57638
2.58805
2.59719
2.60415
2.60963
2.61452
2.61937
2.07516
2.11237
2.14814
2.18392
2.21819
2.25042
2.28027
2.30757
2.33222
2.35415
2.37337
2.38986
2.40371
2.41504
2.42404
2.43105
2.4367
2.44181
2.44667
1.92686
1.96099
1.99387
2.02683
2.05846
2.08828
2.11596
2.14135
2.16435
2.1849
2.20299
2.21863
2.23186
2.2428
2.25162
2.25863
2.26438
2.26957
2.27435
1.77943
1.81051
1.84053
1.8707
1.89971
1.92713
1.95265
1.97612
1.99746
2.01662
2.03356
2.04831
2.06089
2.07141
2.08001
2.08695
2.09273
2.09793
2.10253
1.63273
1.66087
1.68809
1.71552
1.74194
1.76697
1.79034
1.8119
1.83158
1.84933
1.86512
1.87895
1.89086
1.90092
1.90925
1.91609
1.92184
1.92695
1.9313
1.48677
1.51203
1.53652
1.56126
1.58514
1.60782
1.62904
1.6487
1.66673
1.68306
1.69769
1.71059
1.7218
1.73137
1.7394
1.74607
1.75171
1.75662
1.76056
1.34145
1.36396
1.38582
1.40793
1.42931
1.44967
1.46878
1.48656
1.50292
1.51784
1.53129
1.54325
1.55373
1.56277
1.57044
1.57687
1.58229
1.58686
1.59031
1.19684
1.21668
1.23598
1.25553
1.27447
1.29254
1.30956
1.32545
1.34017
1.35367
1.36592
1.37692
1.38664
1.39509
1.40232
1.4084
1.4135
1.41769
1.4206
1.05291
1.07021
1.08703
1.10409
1.12064
1.13645
1.15139
1.1654
1.17845
1.19051
1.20155
1.21155
1.22045
1.22825
1.23496
1.24062
1.24533
1.24907
1.25149
0.909741
0.924584
0.939017
0.953644
0.967836
0.981412
0.994268
1.00638
1.01775
1.02834
1.03813
1.04706
1.05508
1.06217
1.06829
1.07346
1.07773
1.08102
1.08295
0.767359
0.77986
0.791981
0.804238
0.816112
0.827455
0.838201
0.848379
0.858017
0.867094
0.87556
0.883362
0.890442
0.896741
0.902207
0.906826
0.910598
0.913424
0.914966
0.625858
0.636089
0.645972
0.655919
0.665507
0.674609
0.683186
0.691345
0.699185
0.706677
0.713756
0.720362
0.726419
0.731851
0.736589
0.74058
0.743819
0.746218
0.747461
0.485217
0.493283
0.501009
0.508713
0.516056
0.522906
0.529206
0.535195
0.541153
0.547001
0.552625
0.557952
0.562893
0.567362
0.571281
0.574595
0.577278
0.579276
0.580389
0.345384
0.351387
0.357041
0.362581
0.367746
0.372339
0.376186
0.379666
0.383754
0.387962
0.392094
0.396062
0.399782
0.403181
0.406196
0.408772
0.410903
0.41261
0.413751
0.206447
0.210573
0.21422
0.217687
0.220788
0.223194
0.224312
0.224193
0.226781
0.229507
0.232166
0.234714
0.237112
0.239327
0.241339
0.243153
0.244806
0.246353
0.247653
0.0686456
0.0702817
0.0716166
0.0728409
0.0738573
0.0742702
0.0729515
0.0724028
0.0741234
0.0754199
0.0765551
0.077572
0.0784907
0.0793087
0.0800307
0.0806757
0.0812864
0.0819091
0.0825353
)
;

boundaryField
{
    leftWall
    {
        type            calculated;
        value           nonuniform List<scalar> 
50
(
5618.53
4809.47
3998.69
3181.6
2359.29
1588.05
1168.5
1069.43
971.198
834.26
696.467
559.678
424.451
291.142
164.335
53.4885
6.96474
5.40382
3.98199
3.41098
3.25876
3.10233
2.96638
2.84193
2.72274
2.60622
2.49133
2.37734
2.26432
2.15255
2.04215
1.93296
1.82477
1.7173
1.61034
1.50373
1.39741
1.29135
1.18554
1.08
0.974716
0.869672
0.764835
0.660168
0.555654
0.451335
0.3473
0.243635
0.140293
0.0445429
)
;
    }
    rightWall
    {
        type            calculated;
        value           nonuniform List<scalar> 
50
(
2132.24
1539.52
1071.63
758.513
545.799
445.57
396.1
347.867
281.15
202.724
139.264
81.1209
29.222
7.66606
6.11917
5.93125
5.75567
5.57995
5.40212
5.22591
5.05043
4.87556
4.70111
4.52694
4.35296
4.17917
4.00571
3.83219
3.65871
3.48531
3.31198
3.13868
2.96546
2.79233
2.61937
2.44667
2.27435
2.10253
1.9313
1.76056
1.59031
1.4206
1.25149
1.08295
0.914966
0.747461
0.580389
0.413751
0.247653
0.0825353
)
;
    }
    lowerWall
    {
        type            calculated;
        value           nonuniform List<scalar> 
62
(
6016.68
6069.23
6146.91
6251.06
6363.67
6470.24
6559.47
6623.94
6659.27
6663.94
6638.13
6586.83
6511.33
6415.55
6304.99
6186.83
6069.14
5960.97
5871.65
5808.25
5775.13
5773.25
5801.18
5403.25
4613.57
3818.48
3014.6
2194.69
1412.25
955.488
811.726
671.457
643.442
646.357
711.772
2938.08
2181.32
1795.38
1601.08
1401.88
1169.66
978.486
859.097
3240.58
2876.65
2953.66
2910.03
2673.07
2411.65
2351.34
2311.53
2279.97
2225.27
2148.82
2107.57
2203.16
2260.27
2300.13
2336.69
2390.52
2428.54
2411.85
)
;
    }
    atmosphere
    {
        type            calculated;
        value           nonuniform List<scalar> 
46
(
-0.000284007
-0.000322899
-0.000221955
-0.000174089
-0.000146786
-0.000129994
-0.000117572
-0.000106697
-9.66828e-05
-8.77631e-05
-8.03436e-05
-7.4892e-05
-7.1045e-05
-6.7544e-05
-6.35288e-05
-5.87466e-05
-5.34281e-05
-4.89047e-05
-4.67353e-05
-4.63653e-05
-4.58624e-05
-4.44076e-05
-4.1093e-05
-2.91961e-05
-2.72672e-05
-2.66318e-05
-2.6873e-05
-2.66388e-05
-2.66322e-05
-2.66872e-05
-2.56382e-05
-2.27248e-05
-1.77225e-05
-1.01741e-05
-7.46073e-06
-7.3685e-07
0
0
0
0
0
0
0
0
0
0
)
;
    }
    defaultFaces
    {
        type            empty;
    }
}


// ************************************************************************* //
