/*--------------------------------*- C++ -*----------------------------------*\
  =========                 |
  \\      /  F ield         | OpenFOAM: The Open Source CFD Toolbox
   \\    /   O peration     | Website:  https://openfoam.org
    \\  /    A nd           | Version:  13
     \\/     M anipulation  |
\*---------------------------------------------------------------------------*/
FoamFile
{
    format      ascii;
    class       volScalarField;
    location    "1.3";
    object      p_rgh;
}
// * * * * * * * * * * * * * * * * * * * * * * * * * * * * * * * * * * * * * //

dimensions      [1 -1 -2 0 0 0 0];

internalField   nonuniform List<scalar> 
2268
(
6016.68
6069.23
6146.91
6251.06
6363.67
6470.24
6559.47
6623.94
6659.27
6663.94
6638.13
6586.83
6511.33
6415.55
6304.99
6186.83
6069.14
5960.97
5871.65
5808.25
5775.13
5773.25
5801.18
6003.92
6049.79
6117
6211.43
6319.62
6427.81
6523.21
6596.77
6642.56
6657.75
6643.63
6599.79
6531.01
6440.35
6333.04
6216.39
6098.69
5989.41
5898.45
5832.32
5793.52
5785.2
5807.36
5989.44
6027.69
6084.32
6169.41
6273.08
6382.87
6484.92
6568.5
6625.76
6652.21
6647.76
6612.88
6551.3
6465.8
6361.59
6246.32
6128.65
6017.8
5924.01
5852.95
5806.72
5793.1
5808.72
5968.65
6001.76
6049.65
6129.12
6231
6344.98
6455.01
6549
6617
6652.84
6656.09
6627.65
6571.02
6488.55
6385.43
6269.99
6150.48
6036.07
5937.28
5858.8
5804.5
5787.41
5801.6
5942.64
5971.82
6012.61
6089.76
6192.08
6310.76
6430.34
6535.84
6614.9
6659.49
6669.32
6645.65
6592.09
6510.18
6404.94
6285.26
6158.58
6032.93
5923.08
5832.96
5771.13
5754.02
5778
5434.98
5530.1
5719.41
5978.56
6176.36
6299.78
6421.89
6534.95
6623.04
6675.2
6690.89
6670.78
6617.21
6528.02
6406.96
6266.26
6059.09
5653.88
5285.43
4989.46
4837.18
4881.8
5097.05
2052.34
2177.18
2438.42
3005.26
3913.13
4932.84
5687.27
6216.69
6503.33
6630.66
6700.34
6701.94
6511.5
5963.4
5072.73
3976.98
2955.65
2336.6
1963.84
1734.82
1637.64
1674.41
1984.82
1510.87
1518.87
1514.24
1500.27
1477.35
1557.06
2046.32
2709.49
3394.83
3764.79
3711.8
3238.06
2612.41
1994.34
1543.76
1370.72
1349.32
1330.81
1307.93
1283.37
1267.19
1340.74
1357.34
3240.58
2876.65
2953.66
2910.03
2673.07
2411.65
2351.34
2311.53
2279.97
2225.27
2148.82
2107.57
2203.16
2260.27
2300.13
2336.69
2390.52
2428.54
2411.85
2619.27
2616.64
2901.76
2879.14
2713.89
2641.42
2577.5
2511.98
2442.77
2377.13
2268.92
2120.82
2132.69
2213
2259.76
2301.65
2377.4
2408.55
2375.13
2042
1815.64
2451.88
2537.75
2088.76
2008.06
1966.44
1854.58
1740.11
1638.47
1595.9
1693.03
1582.08
1623.78
1691.83
1759.24
1947.01
2094.34
1913.9
1942.89
1896.64
2330.1
1316.79
1029.84
987.802
951.559
849.749
772.472
900.297
1143.41
1364.91
1543.74
1566.05
1541.61
1546.91
1534.03
1530.54
1673.68
1893.38
2950.86
2185.97
1053.43
1019.73
990.862
966.246
937.972
881.422
823.48
762.445
935.875
1527.49
1867.87
1892.17
1935.83
1917.15
1558.16
1182.55
1851.83
3124.83
1385.53
1033.2
1015.41
990.656
972.341
953.165
936.267
915.686
883.038
820.779
762.553
816.407
959.047
1055.99
1133.61
895.628
705.404
1708.43
3254.74
1027.03
1029.42
1011.8
985.445
961.531
941.58
929.543
918.657
906.666
861.478
822.174
775.397
730.172
703.062
700.839
679.421
705.945
1670.54
1598.75
1035.43
1029.45
1009.2
983.535
960.436
941.416
927.431
914.113
899.045
874.812
810.302
711.317
633.627
596.214
612.388
616.459
673.044
1504.67
1511.96
1511.12
1502.35
1488.38
1470.99
1449.14
1424.77
1401.09
1382.15
1369.48
1361.86
1356.09
1350.65
1344.83
1336.86
1325.32
1309.4
1288.85
1264.25
1286.97
1283.12
1251.43
1492.92
1498.36
1497.04
1488.27
1474.74
1459.1
1442.25
1425.21
1408.95
1394.63
1382.83
1373.12
1364.65
1356.58
1348.4
1338.31
1324.55
1306.96
1284.26
1222.56
1157.15
1052.86
1001.72
1480.32
1484.79
1483.3
1474.94
1462.47
1448.21
1433.84
1420.06
1407.19
1395.64
1385.73
1377.24
1369.07
1360.43
1351.28
1339.6
1324.03
1295.15
1160.21
1099.77
861.586
848.982
856.005
1468.73
1472.49
1470.44
1462.32
1450.69
1438.03
1425.97
1415.43
1405.76
1396.63
1388.81
1382.05
1374.09
1364.35
1355.64
1311.2
1163.96
1104.78
936.109
809.743
849.532
854.921
847.184
1458.7
1461.79
1458.6
1450.22
1438.78
1426.47
1415.39
1408.75
1402.39
1383.35
1372.11
1374.12
1340.34
1190.43
1097.39
1041.14
863.26
801.692
832.651
858.668
856.374
849.491
840.514
1450.58
1454.71
1450.01
1426.69
1368.11
1286.88
1192.47
1186.57
1177.3
1113.56
1008.18
994.827
922.718
812.434
777.184
799.975
839.285
860.665
861.538
858.663
853.852
846.733
837.271
1448.97
1456.84
1339.22
1058.53
907.181
812.572
718.034
726.275
723.955
708.164
726.384
754.524
793.268
832.598
855.07
863.227
864.251
863.913
862.276
858.936
853.609
846.056
836.265
1011.98
961.614
589.839
776.519
812.523
813.043
821.275
805.855
846.284
840.755
855.062
858.273
861.289
864.056
866.11
867.405
867.877
867.049
864.766
860.819
854.903
846.895
836.851
14.2329
57.8275
491.334
802.76
818.089
828.264
836.834
844.145
849.784
855.101
859.548
863.473
866.955
869.858
871.892
872.945
872.809
871.469
868.711
864.47
858.331
850.173
840.882
12.3629
65.9362
241.957
301.094
437.415
603.971
709.999
781.208
827.431
855.008
867.931
874.09
877.396
879.765
881.381
882.012
881.22
879.841
877.16
873.356
862.939
810.238
755.454
10.334
15.9647
5.0275
5.00423
4.89413
11.4101
76.3389
156.25
253.069
352.99
442.786
518.586
576.353
608.438
618.08
614.299
591.827
541.002
474.861
398.256
281.912
173.803
109.895
5.62044
5.2376
5.18083
5.12605
5.06698
5.03485
4.9507
4.88821
4.88527
4.9004
4.90273
4.88328
4.86318
8.32139
16.0514
19.6848
17.9919
12.2895
7.39626
5.36043
5.33212
5.40138
5.61207
5.29562
5.24935
5.19271
5.15382
5.11629
5.10757
5.10801
5.11856
5.12967
5.1367
5.1375
5.13077
5.10878
5.08767
5.08658
5.14381
5.24555
5.35703
5.44758
5.51107
5.57268
5.65171
5.7677
5.26447
5.23833
5.20102
5.16002
5.14362
5.11933
5.12128
5.11699
5.12162
5.13194
5.13712
5.13944
5.13892
5.15426
5.18408
5.23474
5.29532
5.35906
5.41883
5.48096
5.55276
5.64096
5.74999
5.25296
5.23069
5.20317
5.17539
5.15437
5.14389
5.13081
5.12548
5.12873
5.15187
5.2583
5.26295
5.1761
5.17998
5.21245
5.25241
5.30347
5.36189
5.42466
5.49232
5.5671
5.65092
5.74958
5.2534
5.23449
5.21554
5.19654
5.18074
5.16842
5.1586
5.15425
5.15606
5.17379
5.36175
5.38677
5.33227
5.21503
5.23902
5.27324
5.32301
5.38344
5.44525
5.50907
5.58191
5.65975
5.74823
5.25941
5.24329
5.22889
5.2163
5.20584
5.19736
5.19017
5.18622
5.18628
5.18912
5.25771
5.42673
5.43958
5.4017
5.27204
5.30763
5.35354
5.40631
5.46519
5.52804
5.59147
5.66354
5.74472
5.26806
5.25441
5.24299
5.23419
5.2272
5.22144
5.21665
5.21385
5.21378
5.21642
5.22158
5.23878
5.42774
5.47736
5.44872
5.33413
5.3742
5.42225
5.48014
5.53999
5.60229
5.6664
5.74183
5.27835
5.26722
5.25812
5.25159
5.24668
5.24278
5.23982
5.23843
5.23922
5.2425
5.24871
5.25852
5.27245
5.32791
5.38231
5.39737
5.39284
5.43734
5.48811
5.5455
5.60706
5.6694
5.73969
5.28954
5.28113
5.27417
5.26922
5.26569
5.2631
5.26151
5.26137
5.26318
5.26735
5.27438
5.28497
5.29962
5.31897
5.34381
5.37959
5.41857
5.45553
5.5013
5.55445
5.61221
5.67187
5.7377
5.30171
5.29594
5.29097
5.28729
5.28476
5.28317
5.28259
5.28343
5.28611
5.29107
5.29875
5.30969
5.32442
5.34341
5.3671
5.39588
5.43035
5.47015
5.51463
5.56405
5.61803
5.67392
5.73571
5.31513
5.31165
5.30838
5.30575
5.30402
5.30321
5.30342
5.30499
5.30834
5.31385
5.32195
5.33305
5.34757
5.36594
5.38851
5.41557
5.44746
5.48442
5.52649
5.57309
5.62358
5.67592
5.7337
5.32992
5.32819
5.32631
5.32454
5.32344
5.32322
5.32407
5.32622
5.33005
5.33593
5.34422
5.35528
5.36948
5.38713
5.40857
5.43411
5.46404
5.49866
5.53797
5.58155
5.62874
5.67772
5.73176
5.34592
5.34554
5.34465
5.34356
5.34296
5.34321
5.34451
5.34712
5.35132
5.35741
5.36575
5.37665
5.39041
5.40732
5.42766
5.45173
5.47983
5.51223
5.54897
5.58964
5.63366
5.6794
5.7298
5.36291
5.36342
5.36326
5.36274
5.36256
5.36315
5.36477
5.36766
5.3721
5.37835
5.38664
5.39728
5.41055
5.42669
5.44597
5.46863
5.49498
5.52525
5.55953
5.59744
5.63842
5.68104
5.72801
5.38064
5.38168
5.38204
5.38199
5.38217
5.38303
5.38486
5.38793
5.39248
5.39873
5.40692
5.41728
5.43002
5.44538
5.4636
5.48492
5.50958
5.53783
5.56973
5.60498
5.64307
5.68269
5.72638
5.39887
5.40019
5.40091
5.40123
5.40171
5.40279
5.40479
5.40796
5.41253
5.4187
5.42669
5.43669
5.44889
5.46349
5.48067
5.50066
5.5237
5.55
5.57964
5.61233
5.64761
5.68429
5.72476
5.41745
5.4189
5.41984
5.42043
5.42115
5.42242
5.42455
5.42777
5.43231
5.43835
5.44608
5.45567
5.46728
5.48108
5.49723
5.51594
5.5374
5.56183
5.58929
5.61951
5.65209
5.68594
5.72308
5.43632
5.43779
5.43885
5.43963
5.44053
5.44194
5.44416
5.4474
5.45187
5.45775
5.46518
5.47432
5.48532
5.4983
5.51343
5.53086
5.55079
5.5734
5.59873
5.62656
5.6565
5.68756
5.72155
5.45546
5.45687
5.45799
5.45889
5.45992
5.46144
5.46371
5.46694
5.47131
5.47697
5.48408
5.49275
5.50311
5.51527
5.52936
5.54553
5.56394
5.58476
5.60802
5.63352
5.6609
5.68923
5.72017
5.47484
5.47617
5.47731
5.4783
5.47943
5.48101
5.4833
5.48649
5.49072
5.49615
5.50289
5.51106
5.52076
5.53208
5.54513
5.56003
5.57695
5.596
5.61723
5.64044
5.66531
5.69099
5.71898
5.4945
5.49572
5.49686
5.49791
5.4991
5.50074
5.50302
5.50613
5.51021
5.51537
5.52172
5.52936
5.53837
5.54883
5.56082
5.57446
5.58988
5.60719
5.62641
5.64738
5.66979
5.69285
5.71794
5.51441
5.51552
5.51665
5.51774
5.51899
5.52066
5.52292
5.52593
5.52982
5.53469
5.54063
5.54772
5.55601
5.56559
5.57651
5.58888
5.6028
5.61838
5.63562
5.65438
5.67437
5.69488
5.71716
5.53456
5.53557
5.53668
5.53781
5.5391
5.54078
5.543
5.54591
5.54959
5.55415
5.55965
5.56616
5.57372
5.58239
5.59224
5.60333
5.61575
5.6296
5.64489
5.66147
5.67909
5.69713
5.71668
5.55492
5.55585
5.55694
5.55808
5.5594
5.56107
5.56325
5.56603
5.5695
5.57372
5.57877
5.58468
5.59149
5.59925
5.608
5.61781
5.62875
5.64089
5.65424
5.66868
5.68399
5.69961
5.71652
5.57544
5.5763
5.57736
5.57851
5.57983
5.5815
5.58361
5.58626
5.5895
5.59339
5.59797
5.60327
5.60932
5.61615
5.6238
5.63232
5.64177
5.65221
5.66367
5.67601
5.68906
5.70234
5.7167
5.59612
5.59692
5.59793
5.59906
5.60037
5.60201
5.60407
5.60658
5.6096
5.61314
5.61724
5.62191
5.62718
5.63307
5.6396
5.64683
5.6548
5.66358
5.67316
5.68346
5.69432
5.70534
5.71725
5.617
5.61774
5.61867
5.61974
5.62103
5.62265
5.62464
5.62702
5.6298
5.63298
5.63657
5.64059
5.64505
5.64998
5.65539
5.66133
5.66783
5.67496
5.68271
5.69101
5.69975
5.70861
5.71818
5.63816
5.63887
5.6397
5.64069
5.64193
5.64352
5.64544
5.64766
5.65016
5.65294
5.65599
5.65932
5.66294
5.66688
5.67115
5.67579
5.68084
5.68633
5.69229
5.69865
5.70533
5.71211
5.71944
5.65969
5.66053
5.66132
5.66218
5.66334
5.66485
5.66663
5.66861
5.67074
5.67302
5.67543
5.678
5.68074
5.68365
5.68676
5.69009
5.69367
5.69755
5.70174
5.70621
5.71089
5.71563
5.72079
5.68154
5.68243
5.68362
5.68459
5.68567
5.68698
5.68843
5.68995
5.6915
5.6931
5.69474
5.69643
5.6982
5.70004
5.70195
5.70397
5.70611
5.7084
5.71089
5.71354
5.71631
5.71912
5.72221
5.71099
5.70797
5.71073
5.71181
5.71251
5.71318
5.71384
5.71448
5.71511
5.71572
5.71634
5.71696
5.71761
5.71827
5.71895
5.71964
5.72036
5.72113
5.72199
5.72294
5.72392
5.72494
5.72607
1104.25
858.619
857.28
1458.01
946.19
886.251
874.577
1216.26
857.207
861.014
858.703
847.673
841.048
835.811
827.719
802.242
832.075
825.282
816.366
804.533
828.052
821.078
813.168
803.724
826.954
820.177
812.925
804.936
827.245
820.423
813.429
806.386
832.829
827.058
820.378
813.557
724.958
686.179
559.204
406.269
74.0214
47.7668
18.3746
6.65011
5.98971
6.25046
6.41265
6.46304
5.92962
6.06217
6.17621
6.25842
5.89588
6.02836
6.16075
6.25681
5.88517
6.01034
6.14145
6.24378
5.87094
5.98829
6.11547
6.21841
5.85967
5.97134
6.09385
6.19398
5.85065
5.95697
6.07394
6.17002
5.84226
5.9429
6.05409
6.14564
5.83399
5.92873
6.03372
6.12059
5.82576
5.91446
6.01324
6.09525
5.81772
5.90043
5.99277
6.06988
5.80984
5.88665
5.97276
6.04494
5.80219
5.8733
5.95321
6.02064
5.79492
5.86056
5.93464
5.9974
5.78819
5.84869
5.91709
5.9753
5.78171
5.83747
5.90073
5.95473
5.77545
5.8268
5.88512
5.93508
5.76952
5.81663
5.8703
5.91629
5.76396
5.80704
5.85614
5.89825
5.7587
5.79788
5.84261
5.88093
5.7537
5.78909
5.8295
5.86415
5.74904
5.78069
5.81694
5.84798
5.74479
5.77279
5.80488
5.83237
5.74094
5.76535
5.79338
5.81739
5.73751
5.75839
5.78239
5.803
5.73457
5.75198
5.77207
5.78934
5.73215
5.74621
5.76243
5.77644
5.73018
5.74099
5.75349
5.76433
5.72847
5.73615
5.74504
5.75284
5.72663
5.73123
5.73667
5.74169
5.72754
5.72905
5.73084
5.73264
2166.54
1267.03
1046.06
1030.85
1005.09
971.121
943.464
914.271
887.019
852.39
803.275
736.68
669.969
607.175
570.686
553.789
542.677
555.981
662.646
2574.81
1430.53
1048.26
992.493
873.674
771.253
731.626
697.459
667.39
638.497
606.214
592.645
578.835
567.364
558.152
549.14
540.285
532.89
542.493
1675.5
1251.69
958.303
787.691
686.729
672.14
657.018
642.153
628.042
614.439
601.085
587.991
576.263
566.087
557.314
549.284
541.285
500.645
461.173
751.728
860.406
724.075
685.817
690.843
675.921
659.943
644.184
628.759
613.136
596.203
580.308
567.726
558.309
544.65
538.757
538.569
465.188
443.637
756.446
713.513
718.44
713.94
697.435
680.791
663.628
646.499
627.495
588.481
506.055
398.989
341.947
350.028
353.726
346.684
352.192
372.935
346.478
786.706
762.007
740.907
722.232
704.509
686.724
667.578
631.341
509.774
269.499
71.8346
28.2937
20.0742
24.5931
49.9911
74.4836
46.4407
32.6179
35.7753
790.723
770.102
749.995
730.99
713.059
682.945
582.211
289.25
17.7512
7.64136
7.67085
7.64268
7.69996
7.94314
9.51585
11.8261
9.97087
7.43684
7.40414
795.056
778.255
759.941
741.932
676.926
323.397
10.3599
7.20141
7.34514
7.29441
7.2889
7.34127
7.45026
9.15841
11.6754
11.3477
7.7885
7.34392
7.3418
804.482
775.211
616.761
236.18
6.75065
6.92599
7.08956
7.09133
7.15817
7.59761
7.40697
7.30347
7.50186
10.9111
10.6548
7.52861
7.32803
7.29443
7.29142
294.784
141.071
22.3669
6.78542
6.87979
6.89035
6.97784
7.05475
7.70435
8.14341
8.18625
7.24518
7.37293
8.40846
7.30973
7.21897
7.23708
7.243
7.24043
6.00369
6.3891
6.70955
6.80055
6.8212
6.86034
6.93304
7.05384
7.6281
7.94725
7.72633
7.19642
7.17305
7.14036
7.15957
7.17729
7.18852
7.19107
7.18891
6.45128
6.49988
6.60216
6.70079
6.76545
6.82881
6.89804
6.96845
7.0131
7.05601
7.07207
7.12599
7.10964
7.11082
7.12117
7.13243
7.1392
7.13992
7.13816
6.36348
6.45925
6.5524
6.64575
6.72606
6.79285
6.85233
6.89933
6.94037
6.98032
7.01808
7.04781
7.06356
7.0704
7.07877
7.08644
7.09031
7.08966
7.08798
6.35393
6.43986
6.52757
6.61372
6.68818
6.75231
6.80907
6.85774
6.89978
6.93797
6.97197
6.99893
7.01599
7.02569
7.0337
7.03934
7.04134
7.03988
7.038
6.34616
6.42344
6.50185
6.57931
6.64937
6.71142
6.76653
6.81463
6.8564
6.89316
6.9248
6.94995
6.96732
6.97853
6.98634
6.99095
6.99211
6.99026
6.9877
6.32394
6.3979
6.47072
6.54293
6.6096
6.6696
6.72305
6.77001
6.81092
6.84639
6.87637
6.90026
6.91764
6.92949
6.93733
6.94161
6.94248
6.94069
6.93843
6.29709
6.36824
6.43734
6.50561
6.56917
6.62688
6.67847
6.724
6.76374
6.79799
6.82676
6.84981
6.8671
6.87928
6.88727
6.89161
6.89257
6.89107
6.88963
6.26902
6.33691
6.40262
6.46742
6.528
6.58329
6.63295
6.67694
6.71542
6.74855
6.77636
6.79881
6.816
6.82839
6.83663
6.84118
6.84249
6.84158
6.84097
6.24003
6.30451
6.36689
6.42846
6.48618
6.5391
6.58681
6.62925
6.66647
6.69856
6.72558
6.74756
6.76465
6.77721
6.78573
6.7906
6.79237
6.79208
6.79269
6.2104
6.27146
6.33058
6.38905
6.44404
6.49465
6.54045
6.58134
6.61732
6.64844
6.67475
6.69633
6.71332
6.72603
6.73479
6.74004
6.74241
6.74294
6.74436
6.18035
6.23819
6.29416
6.34965
6.40199
6.45033
6.49425
6.5336
6.56836
6.59854
6.62417
6.64536
6.66224
6.67503
6.68402
6.68964
6.69258
6.69397
6.69609
6.15037
6.2051
6.25805
6.31065
6.36041
6.40652
6.44856
6.48637
6.51989
6.54912
6.57408
6.59486
6.61156
6.62433
6.63347
6.6394
6.64288
6.6451
6.64788
6.12077
6.17259
6.22263
6.27241
6.31962
6.36352
6.40367
6.43991
6.47215
6.50039
6.52464
6.54491
6.56129
6.57394
6.58315
6.58937
6.59337
6.59632
6.59975
6.09201
6.14099
6.1882
6.2352
6.27988
6.32154
6.35978
6.3944
6.4253
6.45246
6.47584
6.49546
6.51141
6.52387
6.53312
6.5396
6.54408
6.54771
6.55166
6.06426
6.11056
6.15494
6.19917
6.24132
6.28071
6.31695
6.34985
6.3793
6.40522
6.42762
6.44651
6.46199
6.47423
6.48348
6.49018
6.49509
6.49926
6.50364
6.03767
6.08155
6.12291
6.16432
6.20388
6.24093
6.27508
6.30615
6.33402
6.35865
6.38002
6.39815
6.41312
6.4251
6.43432
6.44119
6.44644
6.45108
6.45572
6.01281
6.05325
6.0919
6.13051
6.16742
6.20207
6.23408
6.26327
6.28954
6.31284
6.33314
6.35048
6.36491
6.37658
6.38572
6.3927
6.39823
6.40322
6.40797
5.98888
6.02609
6.06186
6.09764
6.13191
6.16414
6.19399
6.22129
6.24594
6.26787
6.28709
6.30358
6.31744
6.32876
6.33777
6.34481
6.35054
6.35574
6.36048
5.96578
5.99991
6.03278
6.06575
6.09737
6.12719
6.15488
6.18027
6.20326
6.22382
6.24191
6.25754
6.27078
6.28172
6.29055
6.2976
6.30346
6.3087
6.31335
5.94353
5.97462
6.00464
6.03481
6.06382
6.09124
6.11675
6.14023
6.16157
6.18072
6.19767
6.21242
6.225
6.23552
6.24414
6.25114
6.25703
6.26227
6.26673
5.92204
5.95017
5.97739
6.00482
6.03124
6.05627
6.07964
6.1012
6.12088
6.13863
6.15442
6.16826
6.18017
6.19023
6.19858
6.20548
6.21135
6.21648
6.22067
5.90126
5.92652
5.95102
5.97576
5.99964
6.02231
6.04354
6.0632
6.08122
6.09756
6.11219
6.12509
6.1363
6.14588
6.15392
6.16066
6.16642
6.17128
6.1751
5.88115
5.90366
5.92551
5.94762
5.96901
5.98936
6.00848
6.02625
6.04261
6.05754
6.07098
6.08295
6.09343
6.10248
6.11016
6.11664
6.12212
6.12664
6.13003
5.86173
5.88157
5.90087
5.92041
5.93936
5.95743
5.97445
5.99034
6.00505
6.01855
6.03081
6.04181
6.05153
6.06
6.06724
6.07334
6.07844
6.0826
6.0855
5.84299
5.86029
5.87711
5.89417
5.91072
5.92653
5.94147
5.95548
5.96853
5.98059
5.99164
6.00163
6.01054
6.01835
6.02506
6.03073
6.03543
6.03916
6.04157
5.82502
5.83986
5.85429
5.86892
5.88311
5.89669
5.90954
5.92166
5.93302
5.94362
5.95341
5.96234
5.97037
5.97746
5.98358
5.98875
5.99301
5.9963
5.99823
5.80783
5.82033
5.83245
5.84471
5.85658
5.86792
5.87867
5.88885
5.89849
5.90756
5.91603
5.92384
5.93092
5.93722
5.94269
5.9473
5.95107
5.95389
5.95544
5.79152
5.80175
5.81164
5.82158
5.83117
5.84027
5.84885
5.85701
5.86485
5.87234
5.87942
5.88603
5.89209
5.89752
5.90226
5.90625
5.90948
5.91188
5.91313
5.77608
5.78414
5.79187
5.79957
5.80692
5.81376
5.82007
5.82605
5.83201
5.83786
5.84349
5.84881
5.85375
5.85822
5.86214
5.86546
5.86814
5.87014
5.87125
5.76144
5.76744
5.7731
5.77864
5.7838
5.78839
5.79224
5.79572
5.79981
5.80402
5.80815
5.81212
5.81584
5.81924
5.82225
5.82483
5.82696
5.82866
5.82981
5.7477
5.75182
5.75547
5.75894
5.76204
5.76444
5.76556
5.76544
5.76803
5.77075
5.77341
5.77596
5.77836
5.78058
5.78259
5.7844
5.78605
5.7876
5.7889
5.73509
5.73672
5.73806
5.73928
5.7403
5.74071
5.73939
5.73885
5.74057
5.74186
5.743
5.74401
5.74493
5.74575
5.74647
5.74712
5.74773
5.74835
5.74898
)
;

boundaryField
{
    leftWall
    {
        type            fixedFluxPressure;
        gradient        uniform 0;
        value           nonuniform List<scalar> 
50
(
6016.68
6003.92
5989.44
5968.65
5942.64
5434.98
2052.34
1510.87
1504.67
1492.92
1480.32
1468.73
1458.7
1450.58
1448.97
1011.98
14.2329
12.3629
10.334
5.62044
5.29562
5.26447
5.25296
5.2534
5.25941
5.26806
5.27835
5.28954
5.30171
5.31513
5.32992
5.34592
5.36291
5.38064
5.39887
5.41745
5.43632
5.45546
5.47484
5.4945
5.51441
5.53456
5.55492
5.57544
5.59612
5.617
5.63816
5.65969
5.68154
5.71099
)
;
    }
    rightWall
    {
        type            fixedFluxPressure;
        gradient        uniform 0;
        value           nonuniform List<scalar> 
50
(
2411.85
2375.13
1913.9
1673.68
1182.55
705.404
705.945
673.044
662.646
542.493
461.173
443.637
346.478
35.7753
7.40414
7.3418
7.29142
7.24043
7.18891
7.13816
7.08798
7.038
6.9877
6.93843
6.88963
6.84097
6.79269
6.74436
6.69609
6.64788
6.59975
6.55166
6.50364
6.45572
6.40797
6.36048
6.31335
6.26673
6.22067
6.1751
6.13003
6.0855
6.04157
5.99823
5.95544
5.91313
5.87125
5.82981
5.7889
5.74898
)
;
    }
    lowerWall
    {
        type            fixedFluxPressure;
        gradient        uniform 0;
        value           nonuniform List<scalar> 
62
(
6016.68
6069.23
6146.91
6251.06
6363.67
6470.24
6559.47
6623.94
6659.27
6663.94
6638.13
6586.83
6511.33
6415.55
6304.99
6186.83
6069.14
5960.97
5871.65
5808.25
5775.13
5773.25
5801.18
5801.18
5807.36
5808.72
5801.6
5778
5097.05
1984.82
1357.34
1104.25
858.619
857.28
1458.01
3240.58
2619.27
2042
1942.89
1893.38
1851.83
1708.43
1670.54
3240.58
2876.65
2953.66
2910.03
2673.07
2411.65
2351.34
2311.53
2279.97
2225.27
2148.82
2107.57
2203.16
2260.27
2300.13
2336.69
2390.52
2428.54
2411.85
)
;
    }
    atmosphere
    {
        type            prghTotalPressure;
        rho             rho;
        psi             none;
        gamma           1;
        p0              uniform 0;
        value           nonuniform List<scalar> 
46
(
5.72876
5.72872
5.72882
5.72887
5.72889
5.72891
5.72892
5.72893
5.72894
5.72895
5.72896
5.72897
5.72897
5.72897
5.72898
5.72898
5.72899
5.72899
5.72899
5.72899
5.72899
5.729
5.729
5.72901
5.72901
5.72901
5.72901
5.72901
5.72901
5.72901
5.72901
5.72902
5.72902
5.72903
5.72903
5.72904
5.72904
5.72904
5.72904
5.72904
5.72904
5.72904
5.72904
5.72904
5.72904
5.72904
)
;
        rho             rho;
    }
    defaultFaces
    {
        type            empty;
    }
}


// ************************************************************************* //
