/*--------------------------------*- C++ -*----------------------------------*\
  =========                 |
  \\      /  F ield         | OpenFOAM: The Open Source CFD Toolbox
   \\    /   O peration     | Website:  https://openfoam.org
    \\  /    A nd           | Version:  13
     \\/     M anipulation  |
\*---------------------------------------------------------------------------*/
FoamFile
{
    format      ascii;
    class       surfaceScalarField;
    location    "1.3";
    object      phi;
}
// * * * * * * * * * * * * * * * * * * * * * * * * * * * * * * * * * * * * * //

dimensions      [0 3 -1 0 0 0 0];

internalField   nonuniform List<scalar> 
4432
(
1.63831e-07
-1.63834e-07
1.22366e-06
-1.05983e-06
3.34635e-06
-2.1227e-06
6.0198e-06
-2.67346e-06
8.8267e-06
-2.80691e-06
1.14925e-05
-2.66579e-06
1.38439e-05
-2.35143e-06
1.57534e-05
-1.90948e-06
1.7123e-05
-1.36965e-06
1.78981e-05
-7.75085e-07
1.80644e-05
-1.66274e-07
1.77023e-05
3.62067e-07
1.68722e-05
8.30142e-07
1.56562e-05
1.21596e-06
1.41458e-05
1.51045e-06
1.24281e-05
1.7177e-06
1.05664e-05
1.86167e-06
8.59625e-06
1.97018e-06
6.52492e-06
2.07133e-06
4.36439e-06
2.16053e-06
2.33804e-06
2.02636e-06
9.71682e-07
1.36636e-06
9.71684e-07
6.68758e-07
-8.3259e-07
2.32705e-06
-2.71812e-06
4.41438e-06
-4.21003e-06
6.82067e-06
-5.07975e-06
9.35386e-06
-5.34011e-06
1.18235e-05
-5.13547e-06
1.4072e-05
-4.59992e-06
1.59722e-05
-3.80969e-06
1.74166e-05
-2.81405e-06
1.83244e-05
-1.68286e-06
1.86779e-05
-5.19798e-07
1.84823e-05
5.57688e-07
1.78004e-05
1.51199e-06
1.66984e-05
2.31795e-06
1.52593e-05
2.94963e-06
1.35642e-05
3.41281e-06
1.1674e-05
3.75183e-06
9.63441e-06
4.00978e-06
7.48014e-06
4.2256e-06
5.25102e-06
4.38965e-06
3.09724e-06
4.18012e-06
1.23005e-06
3.23354e-06
2.20172e-06
1.29144e-06
-2.12404e-06
3.0749e-06
-4.50158e-06
5.03819e-06
-6.17333e-06
7.22598e-06
-7.26755e-06
9.53882e-06
-7.65295e-06
1.1835e-05
-7.43164e-06
1.39767e-05
-6.74159e-06
1.58437e-05
-5.67676e-06
1.73274e-05
-4.29769e-06
1.83353e-05
-2.69081e-06
1.88218e-05
-1.00631e-06
1.8779e-05
6.00489e-07
1.82452e-05
2.0458e-06
1.72717e-05
3.29142e-06
1.5931e-05
4.29038e-06
1.4299e-05
5.04485e-06
1.24385e-05
5.61227e-06
1.04044e-05
6.04394e-06
8.25257e-06
6.37739e-06
6.03055e-06
6.61166e-06
3.83459e-06
6.37608e-06
1.6948e-06
5.37332e-06
3.89652e-06
1.8536e-06
-3.97764e-06
3.63988e-06
-6.28785e-06
5.48631e-06
-8.01975e-06
7.50263e-06
-9.28386e-06
9.63502e-06
-9.78533e-06
1.17839e-05
-9.58052e-06
1.38263e-05
-8.78398e-06
1.56528e-05
-7.50322e-06
1.71581e-05
-5.80297e-06
1.82427e-05
-3.77538e-06
1.88442e-05
-1.60783e-06
1.89398e-05
5.04829e-07
1.85505e-05
2.43512e-06
1.77109e-05
4.13102e-06
1.64825e-05
5.5188e-06
1.49359e-05
6.59144e-06
1.31274e-05
7.42072e-06
1.11225e-05
8.0489e-06
8.99703e-06
8.50281e-06
6.79984e-06
8.80885e-06
4.59184e-06
8.58406e-06
2.26473e-06
7.70042e-06
6.16124e-06
2.36321e-06
-6.34085e-06
4.12474e-06
-8.04938e-06
5.8848e-06
-9.77982e-06
7.77426e-06
-1.11733e-05
9.7597e-06
-1.17708e-05
1.17684e-05
-1.15892e-05
1.37023e-05
-1.07179e-05
1.54652e-05
-9.26613e-06
1.69625e-05
-7.30032e-06
1.80944e-05
-4.90721e-06
1.87899e-05
-2.30333e-06
1.90111e-05
2.83558e-07
1.8763e-05
2.68325e-06
1.80616e-05
4.83245e-06
1.69516e-05
6.6288e-06
1.55007e-05
8.04234e-06
1.37654e-05
9.156e-06
1.18065e-05
1.00078e-05
9.72125e-06
1.05881e-05
7.55738e-06
1.09727e-05
5.35991e-06
1.07815e-05
2.91326e-06
1.01471e-05
9.07451e-06
2.89031e-06
-9.23117e-06
4.66638e-06
-9.82545e-06
6.40326e-06
-1.15167e-05
8.16617e-06
-1.29362e-05
9.99127e-06
-1.35959e-05
1.18528e-05
-1.34507e-05
1.36604e-05
-1.25255e-05
1.53246e-05
-1.09303e-05
1.67725e-05
-8.74819e-06
1.79094e-05
-6.04412e-06
1.86618e-05
-3.05571e-06
1.89792e-05
-3.38466e-08
1.88572e-05
2.80527e-06
1.82934e-05
5.39619e-06
1.73223e-05
7.59993e-06
1.59905e-05
9.37414e-06
1.43461e-05
1.08004e-05
1.24739e-05
1.188e-05
1.04709e-05
1.2591e-05
8.37447e-06
1.30692e-05
6.23691e-06
1.29191e-05
3.80883e-06
1.25751e-05
1.28833e-05
3.40825e-06
-1.26394e-05
5.38371e-06
-1.18009e-05
7.2283e-06
-1.33613e-05
8.94408e-06
-1.4652e-05
1.06025e-05
-1.52542e-05
1.22206e-05
-1.50688e-05
1.37991e-05
-1.41039e-05
1.52755e-05
-1.24068e-05
1.6595e-05
-1.00677e-05
1.76722e-05
-7.12132e-06
1.84348e-05
-3.81832e-06
1.88131e-05
-4.12058e-07
1.88029e-05
2.81544e-06
1.84016e-05
5.79742e-06
1.76267e-05
8.37481e-06
1.65116e-05
1.04893e-05
1.50748e-05
1.22371e-05
1.34324e-05
1.35224e-05
1.1634e-05
1.43894e-05
9.70546e-06
1.49977e-05
7.67065e-06
1.49539e-05
5.22187e-06
1.50239e-05
1.81052e-05
4.14115e-06
-1.67806e-05
7.09809e-06
-1.47579e-05
9.21864e-06
-1.54818e-05
1.0683e-05
-1.61163e-05
1.17926e-05
-1.63638e-05
1.2982e-05
-1.62581e-05
1.42961e-05
-1.54181e-05
1.55087e-05
-1.36193e-05
1.65949e-05
-1.1154e-05
1.75091e-05
-8.03543e-06
1.82174e-05
-4.5267e-06
1.86499e-05
-8.44546e-07
1.87522e-05
2.71314e-06
1.84832e-05
6.06646e-06
1.79182e-05
8.93983e-06
1.72749e-05
1.11326e-05
1.66029e-05
1.2909e-05
1.58451e-05
1.42803e-05
1.49285e-05
1.53059e-05
1.37421e-05
1.61841e-05
1.24407e-05
1.62554e-05
1.0163e-05
1.73015e-05
2.82682e-05
-3.50569e-05
3.50569e-05
-3.78141e-05
2.75722e-06
-3.27549e-05
-5.05915e-06
-2.72009e-05
-5.55401e-06
-2.44042e-05
-2.79668e-06
-2.33643e-05
-1.03998e-06
-2.14864e-05
-1.87782e-06
-1.86279e-05
-2.85855e-06
-1.50748e-05
-3.5531e-06
-1.09398e-05
-4.13501e-06
-7.74786e-06
-3.1919e-06
-7.55075e-06
-1.97106e-07
-7.92219e-06
3.71435e-07
-7.42544e-06
-4.96746e-07
-7.5184e-06
9.29622e-08
-9.34439e-06
1.82599e-06
-9.83971e-06
4.95319e-07
-6.84957e-06
-2.99014e-06
-6.84957e-06
-2.62301e-05
6.12869e-05
-3.01784e-05
6.70555e-06
-2.75194e-05
-7.71816e-06
-2.51021e-05
-7.97136e-06
-2.44345e-05
-3.46428e-06
-2.30469e-05
-2.42752e-06
-2.08928e-05
-4.03197e-06
-1.82505e-05
-5.50078e-06
-1.54884e-05
-6.31519e-06
-1.27698e-05
-6.85366e-06
-1.06629e-05
-5.29872e-06
-9.03484e-06
-1.8252e-06
-8.25862e-06
-4.04782e-07
-7.23254e-06
-1.52282e-06
-6.77294e-06
-3.66634e-07
-7.00888e-06
2.06194e-06
-6.45165e-06
-6.19116e-08
-4.17122e-06
-5.27056e-06
-1.10208e-05
-1.58294e-05
7.71163e-05
-2.08995e-05
1.17757e-05
-2.15686e-05
-7.04908e-06
-2.24459e-05
-7.09404e-06
-2.28421e-05
-3.06805e-06
-2.16714e-05
-3.59821e-06
-1.96175e-05
-6.08587e-06
-1.7246e-05
-7.87227e-06
-1.50009e-05
-8.56038e-06
-1.30016e-05
-8.85291e-06
-1.15042e-05
-6.79617e-06
-9.97088e-06
-3.35848e-06
-8.17795e-06
-2.19771e-06
-6.64674e-06
-3.05403e-06
-5.63706e-06
-1.37631e-06
-4.5807e-06
1.00558e-06
-3.17398e-06
-1.46862e-06
-1.93197e-06
-6.51257e-06
-1.29528e-05
-1.08759e-05
8.79922e-05
-1.30129e-05
1.39127e-05
-1.52021e-05
-4.8598e-06
-1.86162e-05
-3.67994e-06
-1.95881e-05
-2.09611e-06
-1.86081e-05
-4.57824e-06
-1.67434e-05
-7.95057e-06
-1.45779e-05
-1.00378e-05
-1.27752e-05
-1.03631e-05
-1.13263e-05
-1.03017e-05
-1.03047e-05
-7.81778e-06
-9.1948e-06
-4.46839e-06
-7.12539e-06
-4.26711e-06
-5.38065e-06
-4.79877e-06
-3.99698e-06
-2.75998e-06
-2.18008e-06
-8.11319e-07
-1.63563e-07
-3.48513e-06
6.91399e-07
-7.36753e-06
-1.22614e-05
-6.81939e-06
9.48116e-05
-8.18042e-06
1.52737e-05
-9.87463e-06
-3.16559e-06
-1.2789e-05
-7.65576e-07
-1.31647e-05
-1.72037e-06
-1.22313e-05
-5.51166e-06
-1.05094e-05
-9.67245e-06
-8.31865e-06
-1.22285e-05
-6.49902e-06
-1.21827e-05
-6.13785e-06
-1.06629e-05
-6.51052e-06
-7.44512e-06
-6.32114e-06
-4.65778e-06
-5.25434e-06
-5.33391e-06
-4.13275e-06
-5.92037e-06
-2.79404e-06
-4.09869e-06
-1.01079e-06
-2.59457e-06
1.12668e-06
-5.62261e-06
2.06713e-06
-8.30798e-06
-1.01942e-05
-2.5172e-06
9.73288e-05
-3.35223e-06
1.61087e-05
-6.81248e-06
2.94661e-07
-8.32592e-06
7.47861e-07
-8.29225e-06
-1.75404e-06
-7.38218e-06
-6.42174e-06
-6.02008e-06
-1.10346e-05
-4.39274e-06
-1.38559e-05
-2.7208e-06
-1.38547e-05
-1.6091e-06
-1.17746e-05
-1.14341e-06
-7.91081e-06
-1.48579e-06
-4.31539e-06
-2.21519e-06
-4.6045e-06
-2.23664e-06
-5.89891e-06
-1.38132e-06
-4.95401e-06
5.75934e-08
-4.03348e-06
1.41847e-06
-6.98349e-06
1.09335e-06
-7.98286e-06
-9.10087e-06
2.89539e-06
9.44334e-05
9.79826e-07
1.80243e-05
-3.36073e-06
4.63521e-06
-4.50029e-06
1.88742e-06
-4.12672e-06
-2.12761e-06
-3.27679e-06
-7.27168e-06
-2.22712e-06
-1.20842e-05
-1.03667e-06
-1.50463e-05
2.58171e-07
-1.51495e-05
1.38248e-06
-1.28989e-05
2.30804e-06
-8.83637e-06
2.87028e-06
-4.87763e-06
2.49844e-06
-4.23265e-06
1.6291e-06
-5.02957e-06
1.33682e-06
-4.66173e-06
1.82549e-06
-4.52214e-06
1.84439e-06
-7.00239e-06
4.92882e-07
-6.63134e-06
-8.60799e-06
9.23988e-06
8.51935e-05
3.99188e-06
2.32723e-05
1.67795e-07
8.45929e-06
-6.96697e-07
2.7519e-06
-2.73253e-07
-2.55106e-06
4.04452e-07
-7.94938e-06
1.17709e-06
-1.28569e-05
2.01405e-06
-1.58833e-05
2.95905e-06
-1.60945e-05
3.87055e-06
-1.38104e-05
4.72321e-06
-9.68903e-06
5.43273e-06
-5.58714e-06
5.30032e-06
-4.10024e-06
4.55877e-06
-4.28801e-06
4.05913e-06
-4.16209e-06
4.02178e-06
-4.48478e-06
3.3182e-06
-6.29881e-06
1.61385e-06
-4.92699e-06
-6.99414e-06
1.00141e-05
-2.67948e-05
1.91432e-05
-2.3887e-05
2.60215e-05
-2.23601e-05
3.09093e-05
-2.10041e-05
3.40542e-05
-1.95088e-05
3.56052e-05
-1.78091e-05
3.61556e-05
-1.59685e-05
3.65119e-05
-1.39755e-05
3.7037e-05
-1.16791e-05
3.78862e-05
-8.88468e-06
3.8998e-05
-5.6385e-06
4.02969e-05
-2.14346e-06
4.15942e-05
1.4159e-06
4.27668e-05
4.89381e-06
4.36715e-05
8.03515e-06
4.41759e-05
1.06282e-05
4.44031e-05
1.26818e-05
4.43491e-05
1.43342e-05
4.38501e-05
1.5805e-05
4.28057e-05
1.72284e-05
4.1759e-05
1.7302e-05
4.07348e-05
1.83258e-05
2.00803e-05
4.89227e-05
1.03363e-05
-3.71311e-05
1.98225e-05
-3.33732e-05
2.74872e-05
-3.00249e-05
3.3297e-05
-2.68139e-05
3.74157e-05
-2.36275e-05
4.0135e-05
-2.05284e-05
4.17644e-05
-1.75979e-05
4.26958e-05
-1.49069e-05
4.32377e-05
-1.2221e-05
4.36678e-05
-9.31481e-06
4.42111e-05
-6.18179e-06
4.49694e-05
-2.90172e-06
4.58881e-05
4.97221e-07
4.69244e-05
3.85751e-06
4.80703e-05
6.88918e-06
4.91366e-05
9.56196e-06
4.99162e-05
1.19022e-05
5.03692e-05
1.38813e-05
5.00464e-05
1.61278e-05
4.92587e-05
1.80162e-05
4.65234e-05
2.00374e-05
4.28015e-05
2.20477e-05
2.63105e-05
3.65714e-05
9.51169e-06
-4.66428e-05
1.8212e-05
-4.20735e-05
2.54192e-05
-3.72322e-05
3.10936e-05
-3.24883e-05
3.53209e-05
-2.78549e-05
3.82646e-05
-2.34721e-05
4.02264e-05
-1.95597e-05
4.15283e-05
-1.62088e-05
4.24194e-05
-1.3112e-05
4.31063e-05
-1.00017e-05
4.3828e-05
-6.90345e-06
4.47437e-05
-3.81748e-06
4.57796e-05
-5.38697e-07
4.68298e-05
2.80733e-06
4.80011e-05
5.71792e-06
4.90579e-05
8.50522e-06
4.95421e-05
1.14179e-05
4.97822e-05
1.36412e-05
4.90664e-05
1.68435e-05
4.75419e-05
1.95407e-05
4.45565e-05
2.30228e-05
4.06834e-05
2.59208e-05
3.10029e-05
3.59909e-05
8.18129e-06
-5.4824e-05
1.54915e-05
-4.93837e-05
2.15211e-05
-4.32617e-05
2.63446e-05
-3.73119e-05
3.00232e-05
-3.15335e-05
3.2671e-05
-2.61199e-05
3.45366e-05
-2.14254e-05
3.6009e-05
-1.76812e-05
3.72584e-05
-1.43614e-05
3.83032e-05
-1.10466e-05
3.93363e-05
-7.93652e-06
4.05777e-05
-5.0589e-06
4.18517e-05
-1.81271e-06
4.27976e-05
1.86148e-06
4.36834e-05
4.83212e-06
4.44933e-05
7.69524e-06
4.45014e-05
1.14098e-05
4.39668e-05
1.41759e-05
4.31089e-05
1.77014e-05
4.15249e-05
2.11247e-05
4.05087e-05
2.40389e-05
3.91682e-05
2.72614e-05
3.15594e-05
3.86117e-05
6.23482e-06
-6.10588e-05
1.1674e-05
-5.48228e-05
1.60364e-05
-4.7624e-05
1.96404e-05
-4.09159e-05
2.24844e-05
-3.43775e-05
2.46426e-05
-2.82781e-05
2.62416e-05
-2.30244e-05
2.77986e-05
-1.92381e-05
2.93559e-05
-1.59187e-05
3.07383e-05
-1.2429e-05
3.19418e-05
-9.14001e-06
3.32914e-05
-6.40848e-06
3.45426e-05
-3.06388e-06
3.54079e-05
9.96175e-07
3.59387e-05
4.30125e-06
3.62466e-05
7.3874e-06
3.63486e-05
1.13079e-05
3.59494e-05
1.45751e-05
3.59498e-05
1.7701e-05
3.63145e-05
2.07601e-05
3.67378e-05
2.36155e-05
3.75149e-05
2.64844e-05
2.97404e-05
3.9334e-05
3.49993e-06
-6.45586e-05
6.5024e-06
-5.78252e-05
8.6988e-06
-4.98204e-05
1.06092e-05
-4.28262e-05
1.2543e-05
-3.63113e-05
1.43848e-05
-3.01199e-05
1.59578e-05
-2.45975e-05
1.76307e-05
-2.0911e-05
1.92903e-05
-1.75783e-05
2.08229e-05
-1.39617e-05
2.22179e-05
-1.0535e-05
2.34377e-05
-7.62823e-06
2.44796e-05
-4.10586e-06
2.55941e-05
-1.18322e-07
2.6473e-05
3.42237e-06
2.71082e-05
6.75223e-06
2.81777e-05
1.02383e-05
2.92879e-05
1.34649e-05
3.04809e-05
1.65081e-05
3.19301e-05
1.93109e-05
3.36152e-05
2.19305e-05
3.57205e-05
2.4379e-05
2.66525e-05
3.88083e-05
4.32896e-07
-6.49915e-05
-3.97194e-07
-5.69951e-05
-2.0279e-06
-4.81896e-05
-1.73262e-06
-4.31214e-05
-6.434e-07
-3.74004e-05
9.3161e-07
-3.16949e-05
2.99682e-06
-2.66627e-05
4.924e-06
-2.28382e-05
6.87181e-06
-1.95261e-05
8.80671e-06
-1.58966e-05
1.08747e-05
-1.26031e-05
1.26036e-05
-9.35713e-06
1.43389e-05
-5.8411e-06
1.6316e-05
-2.09549e-06
1.82567e-05
1.48169e-06
2.00838e-05
4.92516e-06
2.20021e-05
8.31997e-06
2.39905e-05
1.14765e-05
2.6117e-05
1.43815e-05
2.8415e-05
1.70129e-05
3.09852e-05
1.93603e-05
3.39878e-05
2.13764e-05
2.29067e-05
3.77336e-05
-4.48829e-06
-6.05031e-05
-1.2017e-05
-4.94663e-05
-1.63638e-05
-4.38428e-05
-1.59662e-05
-4.3519e-05
-1.44329e-05
-3.89337e-05
-1.22036e-05
-3.39242e-05
-9.49143e-06
-2.93749e-05
-6.85672e-06
-2.54729e-05
-4.22492e-06
-2.21579e-05
-1.46155e-06
-1.866e-05
1.28917e-06
-1.53538e-05
3.93318e-06
-1.20011e-05
6.55659e-06
-8.46451e-06
9.24029e-06
-4.77919e-06
1.18827e-05
-1.16075e-06
1.44741e-05
2.3338e-06
1.70998e-05
5.69427e-06
1.97701e-05
8.80623e-06
2.25556e-05
1.15961e-05
2.553e-05
1.40385e-05
2.87318e-05
1.61586e-05
3.22843e-05
1.78238e-05
1.87385e-05
3.64525e-05
-1.99986e-05
-4.05043e-05
-3.19641e-05
-3.75006e-05
-2.80922e-05
-4.77146e-05
-2.54794e-05
-4.61318e-05
-2.32657e-05
-4.11474e-05
-2.07003e-05
-3.64895e-05
-1.7827e-05
-3.22482e-05
-1.4862e-05
-2.84379e-05
-1.19634e-05
-2.50566e-05
-8.88305e-06
-2.17404e-05
-5.78303e-06
-1.84538e-05
-2.67592e-06
-1.51083e-05
4.63357e-07
-1.16038e-05
3.6421e-06
-7.95792e-06
6.81661e-06
-4.33525e-06
9.96372e-06
-8.13306e-07
1.31005e-05
2.55748e-06
1.62757e-05
5.63102e-06
1.95369e-05
8.33499e-06
2.29588e-05
1.06165e-05
2.65506e-05
1.25669e-05
3.03467e-05
1.40277e-05
1.43606e-05
3.47246e-05
-4.07696e-05
2.65435e-07
-3.77248e-05
-4.05454e-05
-3.14161e-05
-5.40233e-05
-2.97826e-05
-4.77653e-05
-2.79333e-05
-4.29967e-05
-2.56157e-05
-3.88071e-05
-2.29585e-05
-3.49054e-05
-2.00973e-05
-3.12991e-05
-1.71243e-05
-2.80296e-05
-1.39944e-05
-2.48702e-05
-1.07669e-05
-2.16813e-05
-7.47664e-06
-1.83985e-05
-4.09939e-06
-1.4981e-05
-6.52673e-07
-1.14046e-05
2.81769e-06
-7.8056e-06
6.29812e-06
-4.29374e-06
9.74475e-06
-8.89147e-07
1.32468e-05
2.12894e-06
1.67964e-05
4.78546e-06
2.04936e-05
6.9192e-06
2.42817e-05
8.77882e-06
2.82122e-05
1.00972e-05
9.92764e-06
3.26451e-05
-1.96282e-05
1.98935e-05
-2.16098e-05
-3.85637e-05
-2.9772e-05
-4.58613e-05
-3.32043e-05
-4.4333e-05
-3.22637e-05
-4.39373e-05
-3.0403e-05
-4.06678e-05
-2.71472e-05
-3.81612e-05
-2.40796e-05
-3.43668e-05
-2.0748e-05
-3.13611e-05
-1.73578e-05
-2.82604e-05
-1.39901e-05
-2.5049e-05
-1.06558e-05
-2.17328e-05
-7.32142e-06
-1.83154e-05
-3.98604e-06
-1.474e-05
-5.3272e-07
-1.12589e-05
3.03691e-06
-7.86336e-06
6.70037e-06
-4.55261e-06
1.03807e-05
-1.55137e-06
1.41877e-05
9.78472e-07
1.82356e-05
2.87128e-06
2.24393e-05
4.57508e-06
2.68266e-05
5.70989e-06
5.24931e-06
3.1505e-05
1.55779e-05
4.31541e-06
2.14891e-06
-2.51348e-05
-6.72573e-06
-3.69865e-05
-1.40489e-05
-3.70096e-05
-2.23876e-05
-3.55982e-05
-2.76155e-05
-3.54396e-05
-2.99721e-05
-3.58043e-05
-2.74676e-05
-3.68711e-05
-2.39361e-05
-3.48925e-05
-2.04209e-05
-3.17754e-05
-1.69549e-05
-2.85148e-05
-1.37421e-05
-2.49454e-05
-1.05225e-05
-2.15348e-05
-7.24579e-06
-1.80166e-05
-3.73173e-06
-1.47729e-05
-2.35818e-07
-1.13592e-05
3.54765e-06
-8.33604e-06
7.68067e-06
-5.68438e-06
1.20653e-05
-3.40619e-06
1.63849e-05
-1.44831e-06
2.09161e-05
4.36122e-08
2.54584e-05
1.16762e-06
2.96753e-06
2.774e-05
1.44553e-05
-1.01401e-05
7.79959e-06
-1.84791e-05
-2.29233e-06
-2.68946e-05
-9.79279e-06
-2.95091e-05
-1.68819e-05
-2.85088e-05
-2.09945e-05
-3.13267e-05
-2.27876e-05
-3.40109e-05
-2.25729e-05
-3.70856e-05
-2.11312e-05
-3.63338e-05
-1.90048e-05
-3.39015e-05
-1.68332e-05
-3.06861e-05
-1.51043e-05
-2.66738e-05
-1.40689e-05
-2.25698e-05
-1.32153e-05
-1.887e-05
-1.22117e-05
-1.57763e-05
-1.08905e-05
-1.26803e-05
-1.01162e-05
-9.11026e-06
-9.9775e-06
-5.82309e-06
-9.90496e-06
-3.47879e-06
-9.61801e-06
-1.73558e-06
-9.12252e-06
-4.52085e-07
-9.05902e-06
1.10375e-06
2.7317e-06
-8.8228e-06
3.93731e-06
-1.40775e-05
6.27079e-07
-1.5169e-05
-6.23434e-06
-2.00334e-05
-1.22665e-05
-2.34772e-05
-1.51508e-05
-2.56248e-05
-1.88036e-05
-2.7674e-05
-2.06891e-05
-3.21254e-05
-2.31341e-05
-3.46406e-05
-2.49984e-05
-3.44695e-05
-2.61269e-05
-3.27728e-05
-2.6741e-05
-3.0072e-05
-2.72814e-05
-2.61334e-05
-2.8344e-05
-2.15071e-05
-2.91655e-05
-1.80485e-05
-2.98661e-05
-1.50757e-05
-3.00771e-05
-1.24692e-05
-2.99668e-05
-9.22055e-06
-2.97644e-05
-6.02542e-06
-2.98466e-05
-3.39654e-06
-3.02312e-05
-1.35114e-06
-3.09713e-05
2.87827e-07
-3.18054e-05
1.93804e-06
3.7047e-06
-3.27779e-05
-1.72765e-06
-1.235e-05
-4.89668e-06
-1.20001e-05
-9.76843e-06
-1.51618e-05
-1.44827e-05
-1.87632e-05
-1.81107e-05
-2.1997e-05
-2.05318e-05
-2.52532e-05
-2.39763e-05
-2.86811e-05
-2.79274e-05
-3.06898e-05
-3.15722e-05
-3.08249e-05
-3.469e-05
-2.96551e-05
-3.71038e-05
-2.76583e-05
-3.87129e-05
-2.45245e-05
-3.94992e-05
-2.07209e-05
-4.04522e-05
-1.70955e-05
-4.11089e-05
-1.44191e-05
-4.20093e-05
-1.15688e-05
-4.28178e-05
-8.41212e-06
-4.34512e-05
-5.39198e-06
-4.41121e-05
-2.73561e-06
-4.49385e-05
-5.24839e-07
-4.59509e-05
1.30022e-06
-4.70865e-05
3.07371e-06
5.04743e-06
-4.84286e-05
-4.69741e-06
-7.65235e-06
-8.63788e-06
-8.05955e-06
-1.27814e-05
-1.10183e-05
-1.68314e-05
-1.47133e-05
-2.04979e-05
-1.83306e-05
-2.40698e-05
-2.16815e-05
-2.81376e-05
-2.46135e-05
-3.24899e-05
-2.63375e-05
-3.66393e-05
-2.66756e-05
-4.03346e-05
-2.596e-05
-4.33993e-05
-2.45937e-05
-4.56068e-05
-2.23172e-05
-4.69901e-05
-1.93378e-05
-4.78737e-05
-1.62122e-05
-4.90524e-05
-1.32405e-05
-5.03454e-05
-1.02759e-05
-5.14974e-05
-7.26009e-06
-5.24641e-05
-4.42531e-06
-5.32986e-05
-1.90109e-06
-5.40913e-05
2.67796e-07
-5.49441e-05
2.15299e-06
-5.58365e-05
3.96621e-06
5.92606e-06
-5.67145e-05
-6.1718e-06
-1.48045e-06
-1.06249e-05
-3.60641e-06
-1.46649e-05
-6.97824e-06
-1.85901e-05
-1.07881e-05
-2.24445e-05
-1.44763e-05
-2.63763e-05
-1.77498e-05
-3.0607e-05
-2.03828e-05
-3.49457e-05
-2.19989e-05
-3.90901e-05
-2.25312e-05
-4.2854e-05
-2.21962e-05
-4.61924e-05
-2.12555e-05
-4.88515e-05
-1.96582e-05
-5.07505e-05
-1.74388e-05
-5.21957e-05
-1.4767e-05
-5.35859e-05
-1.18504e-05
-5.49432e-05
-8.91864e-06
-5.60755e-05
-6.12786e-06
-5.69723e-05
-3.5285e-06
-5.7671e-05
-1.2024e-06
-5.82507e-05
8.47463e-07
-5.87762e-05
2.67844e-06
-5.92311e-05
4.42116e-06
6.23474e-06
-5.95392e-05
-6.25895e-06
4.77878e-06
-1.09136e-05
1.04835e-06
-1.4992e-05
-2.89977e-06
-1.89127e-05
-6.86729e-06
-2.28335e-05
-1.05555e-05
-2.68467e-05
-1.37366e-05
-3.1006e-05
-1.62235e-05
-3.51705e-05
-1.78344e-05
-3.91479e-05
-1.85539e-05
-4.28233e-05
-1.85209e-05
-4.61713e-05
-1.79074e-05
-4.91003e-05
-1.67293e-05
-5.14319e-05
-1.51073e-05
-5.32405e-05
-1.29585e-05
-5.46713e-05
-1.04197e-05
-5.58987e-05
-7.69124e-06
-5.688e-05
-5.14661e-06
-5.7583e-05
-2.82538e-06
-5.80575e-05
-7.27906e-07
-5.83503e-05
1.14012e-06
-5.84994e-05
2.82741e-06
-5.84967e-05
4.41856e-06
6.00642e-06
-5.82679e-05
-5.42608e-06
1.02049e-05
-9.83374e-06
5.45611e-06
-1.38214e-05
1.08794e-06
-1.76781e-05
-3.0105e-06
-2.15404e-05
-6.6932e-06
-2.54665e-05
-9.81035e-06
-2.94496e-05
-1.22404e-05
-3.33857e-05
-1.38983e-05
-3.71453e-05
-1.47942e-05
-4.06434e-05
-1.50228e-05
-4.38582e-05
-1.46926e-05
-4.67131e-05
-1.38744e-05
-4.91952e-05
-1.26252e-05
-5.12087e-05
-1.09451e-05
-5.27461e-05
-8.88225e-06
-5.38187e-05
-6.61866e-06
-5.45815e-05
-4.38379e-06
-5.50637e-05
-2.34318e-06
-5.52894e-05
-5.02139e-07
-5.52979e-05
1.14845e-06
-5.51093e-05
2.63872e-06
-5.47153e-05
4.02451e-06
5.35764e-06
-5.4066e-05
-4.16272e-06
1.43679e-05
-7.92096e-06
9.21448e-06
-1.15368e-05
4.70387e-06
-1.51537e-05
6.0643e-07
-1.88153e-05
-3.03159e-06
-2.25271e-05
-6.09843e-06
-2.62557e-05
-8.51174e-06
-2.99178e-05
-1.02362e-05
-3.3419e-05
-1.1293e-05
-3.66905e-05
-1.17513e-05
-3.96896e-05
-1.16936e-05
-4.23797e-05
-1.11843e-05
-4.47339e-05
-1.02709e-05
-4.66901e-05
-8.98884e-06
-4.8186e-05
-7.3864e-06
-4.92196e-05
-5.58498e-06
-4.98356e-05
-3.76781e-06
-5.01319e-05
-2.04686e-06
-5.01551e-05
-4.78888e-07
-4.99352e-05
9.28384e-07
-4.94909e-05
2.1943e-06
-4.88191e-05
3.35273e-06
4.42877e-06
-4.78897e-05
-2.71618e-06
1.7084e-05
-5.59425e-06
1.20926e-05
-8.60196e-06
7.71164e-06
-1.17628e-05
3.76735e-06
-1.50605e-05
2.66074e-07
-1.84394e-05
-2.71946e-06
-2.18342e-05
-5.1169e-06
-2.51689e-05
-6.90148e-06
-2.83645e-05
-8.09737e-06
-3.1358e-05
-8.75781e-06
-3.41051e-05
-8.94639e-06
-3.65687e-05
-8.72073e-06
-3.87095e-05
-8.1301e-06
-4.04883e-05
-7.21007e-06
-4.18548e-05
-6.01989e-06
-4.27825e-05
-4.65717e-06
-4.33132e-05
-3.23716e-06
-4.34963e-05
-1.86365e-06
-4.33855e-05
-5.89736e-07
-4.30188e-05
5.61541e-07
-4.24176e-05
1.593e-06
-4.1587e-05
2.5221e-06
3.362e-06
-4.05197e-05
-1.27235e-06
1.83566e-05
-3.17001e-06
1.39903e-05
-5.43392e-06
9.97559e-06
-7.9784e-06
6.31186e-06
-1.07476e-05
3.03528e-06
-1.36689e-05
2.01828e-07
-1.66475e-05
-2.13824e-06
-1.95943e-05
-3.95468e-06
-2.24349e-05
-5.25677e-06
-2.51071e-05
-6.08558e-06
-2.75626e-05
-6.49086e-06
-2.97618e-05
-6.5215e-06
-3.16691e-05
-6.22285e-06
-3.32417e-05
-5.63745e-06
-3.44433e-05
-4.81819e-06
-3.52608e-05
-3.83971e-06
-3.57066e-05
-2.79138e-06
-3.58206e-05
-1.74961e-06
-3.56433e-05
-7.67046e-07
-3.521e-05
1.28138e-07
-3.45463e-05
9.29138e-07
-3.36661e-05
1.64193e-06
2.27168e-06
-3.25753e-05
-2.19637e-08
1.83785e-05
-9.17451e-07
1.48858e-05
-2.37372e-06
1.14319e-05
-4.22096e-06
8.15913e-06
-6.35932e-06
5.17366e-06
-8.70894e-06
2.55146e-06
-1.11813e-05
3.34128e-07
-1.36787e-05
-1.45725e-06
-1.61151e-05
-2.82035e-06
-1.84268e-05
-3.77386e-06
-2.05616e-05
-4.35606e-06
-2.24767e-05
-4.60637e-06
-2.41348e-05
-4.56481e-06
-2.55004e-05
-4.27179e-06
-2.65437e-05
-3.77486e-06
-2.72505e-05
-3.13293e-06
-2.763e-05
-2.41188e-06
-2.77068e-05
-1.67274e-06
-2.75125e-05
-9.61402e-07
-2.70781e-05
-3.06359e-07
-2.64297e-05
2.80645e-07
-2.5586e-05
7.98125e-07
1.25025e-06
-2.45641e-05
9.89841e-07
1.73888e-05
9.635e-07
1.49123e-05
3.05407e-07
1.209e-05
-8.16178e-07
9.28074e-06
-2.28867e-06
6.64616e-06
-4.0173e-06
4.28011e-06
-5.91487e-06
2.23171e-06
-7.90031e-06
5.28216e-07
-9.88945e-06
-8.31188e-07
-1.18072e-05
-1.85607e-06
-1.35972e-05
-2.56611e-06
-1.52141e-05
-2.9894e-06
-1.66194e-05
-3.15947e-06
-1.77802e-05
-3.11102e-06
-1.86709e-05
-2.88419e-06
-1.92788e-05
-2.52496e-06
-1.96069e-05
-2.08382e-06
-1.96717e-05
-1.60787e-06
-1.9497e-05
-1.13615e-06
-1.91089e-05
-6.94643e-07
-1.85314e-05
-2.96908e-07
-1.77854e-05
5.20993e-08
3.54607e-07
-1.68894e-05
1.62668e-06
1.57621e-05
2.33956e-06
1.41994e-05
2.41279e-06
1.20168e-05
1.98997e-06
9.70357e-06
1.17847e-06
7.45769e-06
7.08378e-08
5.38775e-06
-1.24706e-06
3.54962e-06
-2.69485e-06
1.97603e-06
-4.20098e-06
6.74955e-07
-5.69813e-06
-3.589e-07
-7.12527e-06
-1.13896e-06
-8.43276e-06
-1.68189e-06
-9.58149e-06
-2.01073e-06
-1.05395e-05
-2.15305e-06
-1.12827e-05
-2.1409e-06
-1.17978e-05
-2.00989e-06
-1.20837e-05
-1.79794e-06
-1.21505e-05
-1.54105e-06
-1.20163e-05
-1.27033e-06
-1.17017e-05
-1.00945e-06
-1.12275e-05
-7.71154e-07
-1.06129e-05
-5.62512e-07
-3.79874e-07
-9.87806e-06
1.98161e-06
1.37807e-05
3.22178e-06
1.29593e-05
3.88386e-06
1.13548e-05
4.06699e-06
9.52047e-06
3.85642e-06
7.66827e-06
3.33208e-06
5.91211e-06
2.56818e-06
4.31354e-06
1.63769e-06
2.90654e-06
6.07418e-07
1.70525e-06
-4.62317e-07
7.10856e-07
-1.51802e-06
-8.32356e-08
-2.51166e-06
-6.88237e-07
-3.40197e-06
-1.12041e-06
-4.15649e-06
-1.39852e-06
-4.75197e-06
-1.54542e-06
-5.17407e-06
-1.58778e-06
-5.41838e-06
-1.55363e-06
-5.48958e-06
-1.46985e-06
-5.39974e-06
-1.36021e-06
-5.16553e-06
-1.24381e-06
-4.80359e-06
-1.1332e-06
-4.33142e-06
-1.03469e-06
-9.4768e-07
-3.76325e-06
2.12051e-06
1.16601e-05
3.68722e-06
1.13926e-05
4.77004e-06
1.0272e-05
5.423e-06
8.86753e-06
5.70497e-06
7.38632e-06
5.67777e-06
5.93934e-06
5.40277e-06
4.58855e-06
4.94068e-06
3.36866e-06
4.34895e-06
2.297e-06
3.68038e-06
1.37945e-06
2.98266e-06
6.14499e-07
2.29851e-06
-4.06925e-09
1.66457e-06
-4.86459e-07
1.11204e-06
-8.4598e-07
6.65148e-07
-1.09853e-06
3.39724e-07
-1.26235e-06
1.42952e-07
-1.35685e-06
7.46314e-08
-1.40152e-06
1.28172e-07
-1.41378e-06
2.92509e-07
-1.40828e-06
5.55145e-07
-1.39592e-06
9.03742e-07
-1.38335e-06
-1.36084e-06
1.31724e-06
2.11518e-06
9.54508e-06
3.84026e-06
9.66761e-06
5.18047e-06
8.93181e-06
6.15519e-06
7.89284e-06
6.79982e-06
6.74172e-06
7.15827e-06
5.58091e-06
7.27767e-06
4.46917e-06
7.20586e-06
3.4405e-06
6.98941e-06
2.51347e-06
6.67231e-06
1.69657e-06
6.2951e-06
9.91728e-07
5.89456e-06
3.96484e-07
5.50303e-06
-9.49204e-08
5.14794e-06
-4.90878e-07
4.85141e-06
-8.02005e-07
4.62944e-06
-1.04039e-06
4.49159e-06
-1.21899e-06
4.44096e-06
-1.35089e-06
4.47526e-06
-1.44811e-06
4.5881e-06
-1.52126e-06
4.77106e-06
-1.57898e-06
5.01388e-06
-1.62616e-06
-1.65509e-06
5.30844e-06
2.0203e-06
7.52471e-06
3.77983e-06
7.90808e-06
5.24209e-06
7.46958e-06
6.40469e-06
6.73027e-06
7.2856e-06
5.86084e-06
7.91375e-06
4.95278e-06
8.32324e-06
4.0597e-06
8.55012e-06
3.21365e-06
8.63047e-06
2.43314e-06
8.59916e-06
1.7279e-06
8.48907e-06
1.10184e-06
8.33053e-06
5.55035e-07
8.15081e-06
8.48068e-08
7.97357e-06
-3.13636e-07
7.81831e-06
-6.4674e-07
7.70002e-06
-9.22094e-07
7.62884e-06
-1.14781e-06
7.6101e-06
-1.33214e-06
7.64484e-06
-1.48289e-06
7.73046e-06
-1.60701e-06
7.86187e-06
-1.71045e-06
8.033e-06
-1.79735e-06
-1.85805e-06
8.23626e-06
1.87154e-06
5.65333e-06
3.58286e-06
6.1968e-06
5.06915e-06
5.98332e-06
6.31525e-06
5.48419e-06
7.32736e-06
4.84874e-06
8.12308e-06
4.15708e-06
8.7259e-06
3.4569e-06
9.16205e-06
2.77753e-06
9.4586e-06
2.13662e-06
9.64234e-06
1.54417e-06
9.73905e-06
1.00515e-06
9.77292e-06
5.21169e-07
9.76616e-06
9.15765e-08
9.73845e-06
-2.85922e-07
9.70651e-06
-6.14802e-07
9.68373e-06
-8.99325e-07
9.68004e-06
-1.14412e-06
9.70182e-06
-1.35393e-06
9.75207e-06
-1.53317e-06
9.83067e-06
-1.68573e-06
9.93567e-06
-1.81554e-06
1.00631e-05
-1.92483e-06
-2.00245e-06
1.02078e-05
1.69183e-06
3.96133e-06
3.30432e-06
4.58427e-06
4.75097e-06
4.53667e-06
6.00848e-06
4.22668e-06
7.07487e-06
3.78237e-06
7.95927e-06
3.27268e-06
8.67698e-06
2.73921e-06
9.24648e-06
2.20804e-06
9.68769e-06
1.69542e-06
1.00208e-05
1.21103e-06
1.02658e-05
7.60209e-07
1.04415e-05
3.45434e-07
1.05658e-05
-3.26649e-08
1.06546e-05
-3.7469e-07
1.07218e-05
-6.82075e-07
1.07792e-05
-9.5669e-07
1.08359e-05
-1.2008e-06
1.08985e-05
-1.41659e-06
1.09712e-05
-1.60595e-06
1.10558e-05
-1.77041e-06
1.11516e-05
-1.91137e-06
1.12565e-05
-2.02982e-06
-2.1113e-06
1.13656e-05
1.49845e-06
2.46292e-06
2.98432e-06
3.09837e-06
4.35435e-06
3.16662e-06
5.57847e-06
3.00255e-06
6.64824e-06
2.71259e-06
7.56626e-06
2.35468e-06
8.34144e-06
1.96404e-06
8.9863e-06
1.56318e-06
9.51524e-06
1.16649e-06
9.94342e-06
7.82866e-07
1.02861e-05
4.17533e-07
1.05582e-05
7.33629e-08
1.07737e-05
-2.48218e-07
1.09457e-05
-5.4666e-07
1.10856e-05
-8.2195e-07
1.12032e-05
-1.07438e-06
1.13071e-05
-1.30464e-06
1.14036e-05
-1.51313e-06
1.14975e-05
-1.69988e-06
1.15913e-05
-1.86433e-06
1.1686e-05
-2.00614e-06
1.17801e-05
-2.12389e-06
-2.20058e-06
1.18696e-05
1.30619e-06
1.15652e-06
2.65448e-06
1.74997e-06
3.92982e-06
1.89122e-06
5.0959e-06
1.83644e-06
6.13844e-06
1.67004e-06
7.05457e-06
1.43853e-06
7.84822e-06
1.17039e-06
8.52731e-06
8.84099e-07
9.10201e-06
5.91802e-07
9.58365e-06
3.01229e-07
9.98405e-06
1.71302e-08
1.0315e-05
-2.57597e-07
1.05878e-05
-5.21029e-07
1.0813e-05
-7.71815e-07
1.09998e-05
-1.00879e-06
1.11568e-05
-1.23138e-06
1.12912e-05
-1.43909e-06
1.14094e-05
-1.63136e-06
1.15166e-05
-1.80708e-06
1.16163e-05
-1.96408e-06
1.17096e-05
-2.09948e-06
1.17957e-05
-2.21006e-06
-2.27497e-06
1.18703e-05
1.12799e-06
2.8423e-08
2.34109e-06
5.36765e-07
3.51754e-06
7.14679e-07
4.61492e-06
7.3902e-07
5.61359e-06
6.71334e-07
6.50624e-06
5.45869e-07
7.29296e-06
3.8366e-07
7.97824e-06
1.9882e-07
8.56908e-06
9.63532e-10
9.07394e-06
-2.03628e-07
9.50206e-06
-4.10991e-07
9.86295e-06
-6.18494e-07
1.01658e-05
-8.2391e-07
1.04192e-05
-1.02518e-06
1.06307e-05
-1.2203e-06
1.08071e-05
-1.40782e-06
1.09548e-05
-1.58684e-06
1.10801e-05
-1.75663e-06
1.11885e-05
-1.91558e-06
1.12845e-05
-2.06007e-06
1.13701e-05
-2.18518e-06
1.14445e-05
-2.28443e-06
-2.33338e-06
1.15031e-05
9.75462e-07
-9.47295e-07
2.06693e-06
-5.54867e-07
3.15037e-06
-3.68865e-07
4.17765e-06
-2.88326e-07
5.12447e-06
-2.75521e-07
5.98044e-06
-3.10119e-07
6.74335e-06
-3.79261e-07
7.41548e-06
-4.73307e-07
8.00156e-06
-5.85118e-07
8.50789e-06
-7.09961e-07
8.94179e-06
-8.44887e-07
9.31112e-06
-9.87834e-07
9.62358e-06
-1.13637e-06
9.88589e-06
-1.28751e-06
1.01038e-05
-1.43825e-06
1.02825e-05
-1.58653e-06
1.04273e-05
-1.73163e-06
1.05442e-05
-1.87355e-06
1.06399e-05
-2.01132e-06
1.07202e-05
-2.1404e-06
1.07876e-05
-2.25259e-06
1.08415e-05
-2.3384e-06
-2.36844e-06
1.08767e-05
8.58214e-07
-1.80574e-06
1.85152e-06
-1.54835e-06
2.85541e-06
-1.37288e-06
3.81591e-06
-1.2489e-06
4.70597e-06
-1.16562e-06
5.51499e-06
-1.11916e-06
6.24078e-06
-1.10506e-06
6.88482e-06
-1.11736e-06
7.45041e-06
-1.15071e-06
7.94222e-06
-1.20177e-06
8.3661e-06
-1.26878e-06
8.72853e-06
-1.35027e-06
9.03578e-06
-1.44363e-06
9.29295e-06
-1.5447e-06
9.50378e-06
-1.64908e-06
9.67131e-06
-1.75408e-06
9.79939e-06
-1.85971e-06
9.89392e-06
-1.96809e-06
9.96285e-06
-2.08027e-06
1.00135e-05
-2.19105e-06
1.00501e-05
-2.28926e-06
1.00722e-05
-2.36054e-06
-2.3706e-06
1.00745e-05
7.88178e-07
-2.59419e-06
1.7138e-06
-2.47418e-06
2.6533e-06
-2.31252e-06
3.54726e-06
-2.14295e-06
4.37119e-06
-1.98961e-06
5.11978e-06
-1.86779e-06
5.79406e-06
-1.77937e-06
6.39607e-06
-1.71938e-06
6.92798e-06
-1.68264e-06
7.39278e-06
-1.66658e-06
7.79485e-06
-1.67086e-06
8.13948e-06
-1.69491e-06
8.43169e-06
-1.73586e-06
8.6748e-06
-1.78782e-06
8.87001e-06
-1.84431e-06
9.01769e-06
-1.90178e-06
9.11957e-06
-1.9616e-06
9.18098e-06
-2.02952e-06
9.21147e-06
-2.11078e-06
9.22079e-06
-2.20042e-06
9.21402e-06
-2.2825e-06
9.19138e-06
-2.33788e-06
-2.32676e-06
9.14764e-06
7.75988e-07