/*--------------------------------*- C++ -*----------------------------------*\
  =========                 |
  \\      /  F ield         | OpenFOAM: The Open Source CFD Toolbox
   \\    /   O peration     | Website:  https://openfoam.org
    \\  /    A nd           | Version:  13
     \\/     M anipulation  |
\*---------------------------------------------------------------------------*/
FoamFile
{
    format      ascii;
    class       volScalarField;
    location    "1.3";
    object      rho;
}
// * * * * * * * * * * * * * * * * * * * * * * * * * * * * * * * * * * * * * //

dimensions      [1 -3 0 0 0 0 0];

internalField   nonuniform List<scalar> 
2268
(
13529
13529
13529
13529
13529
13529
13529
13529
13529
13529
13529
13529
13529
13529
13529
13529
13529
13529
13529
13529
13528.9
13522.5
13521.6
13529
13529
13529
13529
13529
13529
13529
13529
13529
13529
13529
13529
13529
13529
13529
13529
13529
13529
13529
13529
13529
13527.7
13521.6
13529
13529
13529
13529
13529
13529
13529
13529
13529
13529
13529
13529
13529
13529
13529
13529
13529
13529
13529
13529
13529
13529
13525.6
13529
13529
13529
13529
13529
13529
13529
13529
13529
13529
13529
13529
13529
13529
13529
13529
13529
13529
13529
13529
13529
13529
13528.7
13529
13529
13529
13529
13529
13529
13529
13529
13529
13529
13529
13529
13529
13529
13529
13529
13529
13529
13529
13529
13529
13529
13528.9
11883.4
12102.6
12601
13198.1
13508.4
13529
13529
13529
13529
13529
13529
13529
13529
13529
13529
13529
13327.4
12455.1
11627.8
10962.7
10655.9
10833.6
11382.6
2310.19
2598.22
3263.24
4697.07
6992.4
9537.78
11325
12496
13050.9
13267.1
13428.6
13510.1
13160
11932.4
9847.1
7231.38
4789.05
3337.53
2496.11
2007.04
1827.72
1944.79
2690.49
1000
1000
1000
1000
1000
1228.08
2340.53
3815.88
5330.51
6149.87
6045.32
5023.43
3675.74
2342.05
1372.59
1015.53
1000
999.999
999.987
999.988
1009.94
1210.7
1235.98
10278.9
11908.9
11922.3
11893.8
10721
7235.54
7258.31
7439.16
7817.34
7779.15
7572.3
7646.08
9454.82
9494.61
9536.18
9551.62
9507.45
9498.53
9501.05
4960.49
8812.53
11512
11955.4
11967.8
11971
11941.6
11919.7
11810.6
11491.1
10403.3
8434.83
8280.38
8716.41
8836.36
8896.94
9287.29
9493.39
9464.56
1675.97
1993.41
6896.04
8815.22
6901.09
6799.15
6820.76
6405.1
5930.98
5295.68
4787.97
4940.99
3705.89
3721.73
4023.26
4344.4
5615.03
6836.48
5724
1659.18
2414.44
5671.06
1973.01
999.512
998.13
973.137
606.692
343.749
999.078
2153.67
3080.72
3538.59
3413.59
3210.12
3194.25
3249.46
3610.16
4442.42
1855.66
6672.48
4847.14
1000.11
1000.13
1002.49
1006.17
964.585
789.321
634.977
489.516
1198.35
3413.45
4674.26
4731.18
4885.16
4854.6
3708.04
2404.08
2107.26
6774.49
2034.26
1000.99
1001.14
1009.52
1030.5
1029.8
1005.62
972.365
910.135
800.388
768.876
1049.99
1533.85
1867.24
2125.75
1422.97
802.642
1907.94
6611.67
1006.93
1001.15
1000.97
1001.63
1002.51
1000.71
1000.31
1000.41
1001.41
942.001
939.439
919.528
873.805
852.877
870.664
802.532
809.88
1838.18
2308.86
1016.61
1000.82
1000.02
999.929
999.92
999.929
999.881
1000.54
1002.62
995.484
925.936
770.838
642.618
591.387
648.688
653.103
736.629
1000
1000
1000
1000
1000
1000
1000
1000
1000
1000
1000
1000
1000
1000
1000
1000
1000
1000
1000
1000
1094.06
1141.52
1133.13
1000
1000
1000
1000
1000
1000
1000
1000
1000
1000
1000
1000
1000
1000
1000
1000
1000
1000
1000
943.287
886.71
758.696
694.643
1000
1000
1000
1000
1000
1000
1000
1000
1000
1000
1000
1000
1000
1000
1000
1000
1000
983.954
835.613
779.102
490.185
483.848
498.367
1000
1000
1000
1000
1000
1000
1000
1000
1000
1000
1000
1000
1000
1000
1000
961.057
811.591
755.644
575.577
441.314
487.429
499.989
500
1000
1000
1000
1000
999.775
998.914
997.534
997.165
996.396
983.914
978.068
983.122
954.821
814.936
727.803
674.169
502.189
442.85
471.954
497.811
499.999
500
500
1000
1000
1000
986.968
943.139
878.073
799.583
794.745
786.646
731.796
640.358
627.459
563.38
465.573
432.64
449.839
480.629
498.126
499.997
500.001
500
500
500
1000
999.807
913.069
689.177
567.114
490.003
412.793
416.391
411.405
395.849
406.645
425.805
452.561
479.642
494.844
499.943
499.999
500
500.001
500.001
500
500
500
679.861
635.33
362.904
482.041
498.136
490.949
490.479
475.159
500
492.59
500
500
500
500
500
499.999
499.998
500
500
500
500
500
500
4.7349
28.6894
303.544
496.755
499.498
500.007
500.003
500.001
500
500
500
500
500
500
500
499.999
500
500
500
500
500
500
500
4.19165
36.4056
140.207
174.191
254.183
352.169
413.555
453.983
479.266
493.3
498.607
500
500
500
500
500
500
500
500
500
497.025
469.198
439.339
3.55772
6.89084
1.00588
1.022
1.03317
4.69872
40.3212
84.2
137.338
192.098
241.206
282.627
314.151
331.67
336.806
334.621
322.275
294.616
258.328
216.3
152.623
93.4912
58.401
1.15642
1.00106
1.00127
1.00002
1.00002
1.00001
1.00002
1.00007
1.00007
1.00023
1.00024
1.00015
1.00006
2.83028
6.79635
8.62988
7.69595
4.70206
2.13421
1.04734
1.00024
1.0005
1.00072
1.00052
1.00077
1.0008
1.00002
1.00003
1.00004
1.00005
1.00005
1.00011
1.0001
1.00035
1.00044
1.00029
1
1
1
1
1.00001
1.0001
1.00015
1.00024
1.0005
1.00058
1.00053
1.00232
1.0019
1.00004
1.00006
1.00005
1.00005
1.00007
1.0005
1.00269
1.00321
1.00181
1.00061
1
1.00001
1.00001
1.00002
1.00003
1.00018
1.00053
1.00073
1.00072
1.00075
1.00017
1.00043
1.00011
1.00006
1.00005
1.00005
1.00006
1.00012
1.00032
1.00781
1.05132
1.05046
1.00538
1.00066
1.00005
1.00001
1.00001
1.00004
1.00034
1.00062
1.00063
1.00054
1.00026
1.00003
1.00007
1.00009
1.00005
1.00004
1.00004
1.00004
1.00008
1.00029
1.006
1.08164
1.08866
1.06076
1.00281
1.00168
1.00016
1.00049
1.00208
1.00186
1.00039
1.00023
1.00014
1.0001
1.00003
1.00005
1.00006
1.00006
1.00005
1.00004
1.00004
1.00005
1.00012
1.00025
1.02573
1.08905
1.08822
1.06489
1.00289
1.00285
1.00323
1.00328
1.00328
1.00268
1.00023
1.00002
1.00007
1.00002
1.00004
1.00005
1.00006
1.00005
1.00004
1.00003
1.00003
1.00004
1.00006
1.00015
1.00345
1.06894
1.07942
1.05818
1.00228
1.0019
1.00185
1.003
1.00271
1.00145
1.00002
1.00004
1.00002
1.00003
1.00004
1.00005
1.00005
1.00004
1.00002
1.00002
1.00003
1.00003
1.00003
1.00003
1.00007
1.01282
1.02276
1.01627
1.0007
1.00054
1.00041
1.00061
1.00059
1.00012
1.00003
1.00001
1.00002
1.00003
1.00003
1.00004
1.00004
1.00002
1.00001
1.00001
1.00002
1.00002
1.00002
1.00002
1.00001
1.00003
1.00177
1.00261
1.00083
1.00009
1.00006
1.00008
1.00008
1.00003
1.00001
1.00001
1.00002
1.00002
1.00003
1.00003
1.00002
1.00001
1.00001
1.00001
1.00001
1.00001
1.00001
1.00001
1.00001
1.00002
1.00019
1.0003
1.00016
1.00002
1.00001
1.00001
1.00001
1.00001
1.00001
1.00001
1.00001
1.00002
1.00002
1.00002
1.00001
1.00001
1.00001
1.00001
1.00001
1.00001
1.00001
1.00001
1.00001
1.00001
1.00001
1.00002
1.00002
1.00001
1
1
1.00001
1
1.00001
1.00001
1.00001
1.00001
1.00001
1.00001
1.00001
1
1
1
1
1.00001
1.00001
1
1
1
1
1
1
1
1
1
1
1
1
1
1.00001
1.00001
1
1
1
1
1
1
1
1
1
1
1
1
1
1
1
1
1
1
1
1
1
1
1
1
1
1
1
1
1
1
1
1
1
1
1
1
1
1
1
1
1
1
1
1
1
1
1
1
1
1
1
1
1
1
1
1
1
1
1
1
1
1
1
1
1
1
1
1
1
1
1
1
1
1
1
1
1
1
1
1
1
1
1
1
1
1
1
1
1
1
1
1
1
1
1
1
1
1
1
1
1
1
1
1
1
1
1
1
1
1
1
1
1
1
1
1
1
1
1
1
1
1
1
1
1
1
1
1
1
1
1
1
1
1
1
1
1
1
1
1
1
1
1
1
1
1
1
1
1
1
1
1
1
1
1
1
1
1
1
1
1
1
1
1
1
1
1
1
1
1
1
1
1
1
1
1
1
1
1
1
1
1
1
1
1
1
1
1
1
1
1
1
1
1
1
1
1
1
1
1
1
1
1
1
1
1
1
1
1
1
1
1
1
1
1
1
1
1
1
1
1
1
1
1
1
1
1
1
1
1
1
1
1
1
1
1
1
1
1
1
1
1
1
1
1
1
1
1
1
1
1
1
1
1
1
1
1
1
1
1
1
1
1
1
1
1
1
1
1
1
1
1
1
1
1
1
1
1
1
1
1
1
1
1
1
1
1
1
1
1
1
1
1
1
1
1
1
1
1
1
1
1
1
1
1
1
1
1
1
1
1
1
1
1
1
1
1
1
1
1
1
1
1
1
1
1
1
1
1
1
1
1
1
1
1
1
1
1
1
1
1
1
1
1
1
1
1
1
1
1
1
1
1
1
1
1
1
1
1
1
1
1
1
1
1
1
1
1
1
1
1
1
1
1
1
1
1
1
1
1
1
1
1
1
1
1
1
1
1
1
1
1
1
1
1
1
1
1
1
1
1
1
1
1
1
1
1
1
1
1
1
1
1
1
1
1
1
1
1
1
1
1
1
1
1
1
1
1
1
1
919.126
456.978
447.943
1584.8
603.866
499.02
471.126
996.657
498.875
500.604
498.724
501.329
500
500.003
500.016
488.55
499.999
500.019
500.028
499.995
499.997
500.006
500.013
500.005
499.999
499.999
500
500.001
500
500
500
500
500
500
500
500
422.428
400.569
327.166
237.675
38.3487
23.8208
7.74859
1.38267
1.00092
1.00058
1.00049
1.00059
1.00086
1.00078
1.00053
1.00041
1.00066
1.00006
1.00012
1.00013
1.00008
1.00004
1.00005
1.00004
1.00003
1.00003
1.00003
1.00002
1.00008
1.00008
1.00006
1.00005
1.00007
1.00007
1.00006
1.00005
1.00003
1.00003
1.00003
1.00003
1.00001
1.00001
1.00001
1.00001
1.00001
1.00001
1.00001
1.00001
1
1
1
1
1
1
1
1
1
1
1
1
1
1
1
1
1
1
1
1
1
1
1
1
1
1
1
1
1
1
1
1
1
1
1
1
1
1
1
1
1
1
1
1
1
1
1
1
1
1
1
1
1
1
1
1
1
1
1
1
1
1
1
1
1
1
1
1
1
1
1
1
1
1
1
1
1
1
1
1
1
1
1
1
2777.61
1399.77
1008.2
997.842
990.796
973.442
961.852
940.848
918.334
881.927
822.255
733.38
646.381
561.228
516.69
504.555
499.962
530.32
715.125
3084.49
1511.7
972.363
913.639
764.624
638.492
604.994
577.186
553.545
530.821
502.649
502.204
500.673
499.879
499.904
499.675
499.772
500.716
515.848
1611.48
1153.68
808.871
611.825
500.82
499.81
499.746
499.778
499.908
499.989
499.993
500.066
500.32
500.166
500.241
500.055
499.98
459.625
410.673
474.799
636.072
507.664
480.349
500.002
500.004
500.003
500.002
500.001
500
500
500
499.978
498.408
489.952
488.659
493.591
420.004
398.786
475.67
464.642
488.829
500.231
500.001
500.001
500.001
500
500
483.245
426.769
339.13
291.643
301.475
304.999
298.576
306.842
329.593
306.751
500
500
500
500.003
500.001
500
500
487.026
402.464
209.458
50.5999
16.4987
10.2204
13.8689
34.5758
55.0222
32.2455
21.4009
24.2438
500
500
500
500
500
491.621
427.817
209.802
8.04631
1.00001
1.00002
1.00169
1.00198
1.04763
2.17379
4.08946
2.87374
1.00004
1.00026
500
500
500
499.838
462.138
217.914
3.09024
1.00002
1
1
1.00001
1.00053
1.00851
2.14217
3.92525
3.78537
1.3132
1.00047
1.00051
500
487.407
390.126
147.156
1.07901
1.00002
1.00002
1.00001
1.00002
1.23391
1.08466
1.00027
1.11074
3.31652
3.18718
1.17721
1.02931
1.00037
1.00047
172.08
80.8726
10.4592
1.00006
1.00009
1.00013
1.00011
1.00813
1.35538
1.58045
1.57982
1.0065
1.0915
1.73662
1.07378
1.00013
1.00006
1.0001
1.00016
1.00011
1.00006
1.00006
1.00006
1.00025
1.00051
1.0002
1.03747
1.33027
1.48218
1.33508
1.02105
1.01045
1.00011
1.00013
1.00012
1.00004
1.00008
1.00077
1.00036
1.00016
1.00006
1.00018
1.00091
1.0014
1.00415
1.01456
1.01784
1.01903
1.00488
1.01427
1.00007
1.0001
1.00012
1.0001
1.00001
1.00015
1.00086
1.00023
1.00004
1.00003
1.0002
1.00058
1.00065
1.00077
1
1
1.00001
1.00001
1.00006
1.00006
1.00007
1.00006
1.00002
1.00001
1.00017
1.00086
1.00007
1.00001
1.00001
1.00003
1
1.00001
1.00002
1
1
1
1.00001
1
1.00002
1.00002
1.00001
1
1.00001
1.00016
1.00067
1.00002
1.00001
1.00001
1
1
1
1
1
1
1
1
1
1.00001
1
1
1
1.00002
1.00014
1.00017
1.00002
1.00001
1.00001
1.00001
1
1
1
1
1
1
1
1
1
1
1
1
1.00001
1.00009
1.00004
1.00004
1.00002
1.00001
1.00001
1.00001
1
1
1
1
1
1
1
1
1
1
1
1
1.00002
1.00003
1.00004
1.00003
1.00001
1.00001
1.00001
1
1
1
1
1
1
1
1
1
1
1
1
1
1.00001
1.00002
1.00002
1.00001
1.00001
1.00001
1
1
1
1
1
1
1
1
1
1
1
1
1
1
1.00001
1.00001
1.00001
1.00001
1
1
1
1
1
1
1
1
1
1
1
1
1
1
1
1.00001
1.00001
1
1
1
1
1
1
1
1
1
1
1
1
1
1
1
1.00001
1.00001
1
1
1
1
1
1
1
1
1
1
1
1
1
1
1
1
1
1.00001
1.00001
1
1
1
1
1
1
1
1
1
1
1
1
1
1
1
1
1.00001
1.00001
1.00001
1
1
1
1
1
1
1
1
1
1
1
1
1
1
1
1
1.00001
1.00001
1.00001
1
1
1
1
1
1
1
1
1
1
1
1
1
1
1
1
1.00001
1.00002
1.00001
1
1
1
1
1
1
1
1
1
1
1
1
1
1
1
1.00001
1.00001
1.00003
1.00002
1
1
1
1
1
1
1
1
1
1
1
1
1
1
1
1.00001
1.00002
1.00005
1.00002
1
1
1
1
1
1
1
1
1
1
1
1
1
1
1
1.00001
1.00003
1.00006
1.00002
1
1
1
1
1
1
1
1
1
1
1
1
1
1
1
1.00001
1.00004
1.00005
1.00002
1
1
1
1
1
1
1
1
1
1
1
1
1
1
1
1.00002
1.00004
1.00006
1.00002
1
1
1
1
1
1
1
1
1
1
1
1
1
1
1.00001
1.00002
1.00005
1.00005
1.00002
1
1
1
1
1
1
1
1
1
1
1
1
1
1
1.00001
1.00002
1.00005
1.00004
1.00001
1
1
1
1
1
1
1
1
1
1
1
1
1
1
1.00001
1.00002
1.00003
1.00002
1
1
1
1
1
1
1
1
1
1
1
1
1
1
1
1.00001
1.00001
1.00001
1.00001
1
1
1
1
1
1
1
1
1
1
1
1
1
1
1
1
1.00001
1
1
1
1
1
1
1
1
1
1
1
1
1
1
1
1
1
1
1
1
1
1
1
1
1
1
1
1
1
1
1
1
1
1
1
1
1
1
1
1
1
1
1
1
1
1
1
1
1
1
1
1
1
1
1
1
1
1
1
1
1
1
1
1
1
1
1
1
1
1
1
1
1
1
1
1
1
1
1
1
1
1
1
1
1
1
1
1
1
1
1
1
1
1
1
1
1
1
1
1
1
1
1
1
1
1
1
1
1
1
1
1
1
1
1
1
1
1
1
1
1
1
1
1
1
1
1
1
1
1
1
1
1
1
1
1
)
;

boundaryField
{
    leftWall
    {
        type            calculated;
        value           nonuniform List<scalar> 
50
(
13529
13529
13529
13529
13529
11883.4
2310.19
1000
1000
1000
1000
1000
1000
1000
1000
679.861
4.7349
4.19165
3.55772
1.15642
1.00052
1.00053
1.00017
1.00003
1.00003
1.00002
1.00002
1.00001
1.00001
1.00001
1.00001
1
1
1
1
1
1
1
1
1
1
1
1
1
1
1
1
1
1
1
)
;
    }
    rightWall
    {
        type            calculated;
        value           nonuniform List<scalar> 
50
(
9501.05
9464.56
5724
4442.42
2404.08
802.642
809.88
736.629
715.125
515.848
410.673
398.786
306.751
24.2438
1.00026
1.00051
1.00047
1.00016
1.00077
1.00086
1.00086
1.00067
1.00017
1.00004
1.00003
1.00001
1
1
1.00001
1.00001
1.00001
1.00001
1.00001
1.00002
1.00002
1.00002
1.00002
1.00002
1.00002
1.00001
1
1
1
1
1
1
1
1
1
1
)
;
    }
    lowerWall
    {
        type            calculated;
        value           nonuniform List<scalar> 
62
(
13529
13529
13529
13529
13529
13529
13529
13529
13529
13529
13529
13529
13529
13529
13529
13529
13529
13529
13529
13529
13528.9
13522.5
13521.6
13521.6
13521.6
13525.6
13528.7
13528.9
11382.6
2690.49
1235.98
919.126
456.978
447.943
1584.8
10278.9
4960.49
1675.97
1659.18
1855.66
2107.26
1907.94
1838.18
10278.9
11908.9
11922.3
11893.8
10721
7235.54
7258.31
7439.16
7817.34
7779.15
7572.3
7646.08
9454.82
9494.61
9536.18
9551.62
9507.45
9498.53
9501.05
)
;
    }
    atmosphere
    {
        type            calculated;
        value           nonuniform List<scalar> 
46
(
1
1
1
1
1
1
1
1
1
1
1
1
1
1
1
1
1
1
1
1
1
1
1
1
1
1
1
1
1
1
1
1
1
1
1
1
1
1
1
1
1
1
1
1
1
1
)
;
    }
    defaultFaces
    {
        type            empty;
    }
}


// ************************************************************************* //
