/*--------------------------------*- C++ -*----------------------------------*\
  =========                 |
  \\      /  F ield         | OpenFOAM: The Open Source CFD Toolbox
   \\    /   O peration     | Website:  https://openfoam.org
    \\  /    A nd           | Version:  13
     \\/     M anipulation  |
\*---------------------------------------------------------------------------*/
FoamFile
{
    format      ascii;
    class       volVectorField;
    location    "1.3";
    object      U;
}
// * * * * * * * * * * * * * * * * * * * * * * * * * * * * * * * * * * * * * //

dimensions      [0 1 -1 0 0 0 0];

internalField   nonuniform List<vector> 
2268
(
(0.00141357 -0.00178637 0)
(0.00414036 -0.00364501 0)
(0.025463 -0.00878588 0)
(0.0536215 -0.011264 0)
(0.0852218 -0.0115685 0)
(0.116748 -0.0105946 0)
(0.145682 -0.00893211 0)
(0.170256 -0.00682317 0)
(0.189151 -0.00442034 0)
(0.201447 -0.0019507 0)
(0.206725 0.00026149 0)
(0.20539 0.00237049 0)
(0.198289 0.00407166 0)
(0.18629 0.00537875 0)
(0.170424 0.00628685 0)
(0.151769 0.00681961 0)
(0.131215 0.00707951 0)
(0.109346 0.00722326 0)
(0.0863965 0.00743608 0)
(0.0622235 0.00770776 0)
(0.0374718 0.00699311 0)
(0.0161502 0.00380842 0)
(0.0100388 0.00392537 0)
(0.00217641 -0.00103454 0)
(0.0156384 -0.0101836 0)
(0.0379236 -0.017739 0)
(0.0639405 -0.0219237 0)
(0.092558 -0.0230903 0)
(0.121485 -0.0220657 0)
(0.148728 -0.0195793 0)
(0.172685 -0.016012 0)
(0.192004 -0.011606 0)
(0.205563 -0.00670378 0)
(0.21275 -0.00185866 0)
(0.213517 0.0027037 0)
(0.208306 0.00667405 0)
(0.197861 0.00998099 0)
(0.183082 0.0125347 0)
(0.164968 0.0143648 0)
(0.144346 0.0156514 0)
(0.121831 0.0166331 0)
(0.0979136 0.0175084 0)
(0.0727707 0.0182183 0)
(0.0469942 0.0172067 0)
(0.0236689 0.0125805 0)
(0.00747677 0.00837032 0)
(0.00767985 -0.0069771 0)
(0.0242912 -0.0191633 0)
(0.045882 -0.0279063 0)
(0.0696905 -0.0333167 0)
(0.0957368 -0.0351081 0)
(0.1224 -0.0340015 0)
(0.148046 -0.0306815 0)
(0.17121 -0.0256298 0)
(0.190594 -0.019155 0)
(0.205002 -0.0116964 0)
(0.213589 -0.00396333 0)
(0.216054 0.00331019 0)
(0.212621 0.00977651 0)
(0.203806 0.0152737 0)
(0.190351 0.019621 0)
(0.173177 0.02286 0)
(0.153074 0.0253291 0)
(0.130692 0.0272052 0)
(0.106738 0.0287198 0)
(0.0816163 0.0298254 0)
(0.0558604 0.028582 0)
(0.0317479 0.0232021 0)
(0.00906802 0.01619 0)
(0.0136678 -0.0155279 0)
(0.0309604 -0.0291967 0)
(0.0518284 -0.0385624 0)
(0.0738388 -0.0449528 0)
(0.0977765 -0.0472899 0)
(0.122516 -0.045962 0)
(0.146739 -0.0418671 0)
(0.169088 -0.0354721 0)
(0.188368 -0.0271228 0)
(0.203373 -0.0173034 0)
(0.213108 -0.00690939 0)
(0.217071 0.0031105 0)
(0.215307 0.012222 0)
(0.208128 0.0201768 0)
(0.196098 0.0266568 0)
(0.180085 0.0316578 0)
(0.160767 0.0354624 0)
(0.138785 0.0384515 0)
(0.115087 0.0406819 0)
(0.0902395 0.0422035 0)
(0.064754 0.0409547 0)
(0.040187 0.0357678 0)
(0.0131624 0.0273886 0)
(0.0194852 -0.0285205 0)
(0.0365755 -0.0398152 0)
(0.0570481 -0.0491765 0)
(0.0777225 -0.0563274 0)
(0.100025 -0.0591942 0)
(0.123075 -0.05797 0)
(0.145835 -0.053185 0)
(0.167168 -0.0456156 0)
(0.186016 -0.0355636 0)
(0.201258 -0.0235044 0)
(0.21184 -0.0105284 0)
(0.217107 0.00223284 0)
(0.216921 0.0140048 0)
(0.211385 0.024534 0)
(0.200868 0.0333368 0)
(0.18607 0.0402308 0)
(0.167704 0.0455683 0)
(0.146394 0.049435 0)
(0.123119 0.0520418 0)
(0.0986696 0.0536776 0)
(0.0736065 0.0523788 0)
(0.0487683 0.0480854 0)
(0.0200215 0.0401072 0)
(0.025919 -0.0449025 0)
(0.0422091 -0.0492511 0)
(0.0634494 -0.0577622 0)
(0.0831964 -0.0651316 0)
(0.103562 -0.0686429 0)
(0.124773 -0.0681036 0)
(0.146054 -0.0635023 0)
(0.166018 -0.0552995 0)
(0.183979 -0.0439743 0)
(0.198957 -0.0299948 0)
(0.209931 -0.0146449 0)
(0.216115 0.000752434 0)
(0.217233 0.0151219 0)
(0.213242 0.027998 0)
(0.204262 0.0386078 0)
(0.190981 0.0467744 0)
(0.173897 0.0530919 0)
(0.153574 0.0577501 0)
(0.131237 0.0607938 0)
(0.107629 0.0627083 0)
(0.0833372 0.0614643 0)
(0.0585798 0.0580675 0)
(0.0323825 0.0515592 0)
(0.0329378 -0.0548709 0)
(0.0486978 -0.0545272 0)
(0.0727982 -0.0637756 0)
(0.0925095 -0.0721255 0)
(0.111679 -0.0763508 0)
(0.130463 -0.0757874 0)
(0.148838 -0.070858 0)
(0.166476 -0.0621043 0)
(0.182551 -0.0500407 0)
(0.196398 -0.0349066 0)
(0.207073 -0.0179693 0)
(0.213678 -0.00068322 0)
(0.215806 0.0155023 0)
(0.213397 0.0301265 0)
(0.206563 0.0424128 0)
(0.195617 0.0521108 0)
(0.18101 0.0596231 0)
(0.163324 0.0654765 0)
(0.143409 0.0694191 0)
(0.121927 0.0722341 0)
(0.0992914 0.0718017 0)
(0.0744303 0.0711669 0)
(0.0517641 0.0798287 0)
(0.039922 -0.0767945 0)
(0.0647255 -0.0695095 0)
(0.0951264 -0.0762554 0)
(0.114621 -0.0810962 0)
(0.12776 -0.0826187 0)
(0.140822 -0.0819299 0)
(0.156165 -0.0773349 0)
(0.17062 -0.0684458 0)
(0.183784 -0.0558258 0)
(0.195208 -0.0397201 0)
(0.204562 -0.0216283 0)
(0.211183 -0.0029336 0)
(0.214393 0.0147277 0)
(0.213536 0.0309927 0)
(0.208372 0.0452728 0)
(0.20105 0.0576976 0)
(0.193681 0.0693818 0)
(0.185464 0.0782251 0)
(0.176051 0.084491 0)
(0.164055 0.0892468 0)
(0.149935 0.0896806 0)
(0.130347 0.0924168 0)
(0.109093 0.133656 0)
(-0.426784 0.055248 0)
(-0.435327 -0.0102016 0)
(-0.400308 -0.0279771 0)
(-0.336605 -0.0281218 0)
(-0.294128 -0.0144991 0)
(-0.272164 -0.00456007 0)
(-0.257383 -0.00841416 0)
(-0.230094 -0.0143244 0)
(-0.192901 -0.0188041 0)
(-0.148867 -0.0225781 0)
(-0.105938 -0.018046 0)
(-0.0800719 0.000628498 0)
(-0.084318 0.00398394 0)
(-0.0896393 -0.000683846 0)
(-0.0811777 0.00110201 0)
(-0.0954073 0.00983071 0)
(-0.116376 0.00335349 0)
(-0.0997211 -0.0135051 0)
(-0.0567634 -0.0309618 0)
(-0.344535 0.212109 0)
(-0.332948 0.0257754 0)
(-0.326557 -0.0314329 0)
(-0.296607 -0.0340652 0)
(-0.283647 -0.0165154 0)
(-0.272751 -0.0105078 0)
(-0.252476 -0.0162532 0)
(-0.224471 -0.0224597 0)
(-0.19294 -0.0264402 0)
(-0.160658 -0.028982 0)
(-0.131869 -0.02205 0)
(-0.110146 -0.00515153 0)
(-0.0975795 0.000928085 0)
(-0.0886888 -0.00395109 0)
(-0.0772041 0.000122507 0)
(-0.0780357 0.0103198 0)
(-0.0802832 0.00170876 0)
(-0.0647471 -0.0209607 0)
(-0.0324525 -0.046168 0)
(-0.221181 0.371074 0)
(-0.208035 0.0459066 0)
(-0.241637 -0.0353495 0)
(-0.254183 -0.0354888 0)
(-0.2621 -0.0174221 0)
(-0.256599 -0.0146016 0)
(-0.237031 -0.0231992 0)
(-0.211128 -0.0305437 0)
(-0.184029 -0.0346043 0)
(-0.158529 -0.0373159 0)
(-0.138694 -0.0293137 0)
(-0.122026 -0.0130768 0)
(-0.103598 -0.00608822 0)
(-0.0841649 -0.0104577 0)
(-0.0686209 -0.00311798 0)
(-0.0587388 0.00898999 0)
(-0.0451527 -0.0022975 0)
(-0.0313872 -0.028389 0)
(-0.0106593 -0.0599286 0)
(-0.140316 0.423306 0)
(-0.138235 0.0613627 0)
(-0.161219 -0.0297246 0)
(-0.197718 -0.0316393 0)
(-0.222617 -0.0134122 0)
(-0.221137 -0.0179827 0)
(-0.203027 -0.0316296 0)
(-0.179355 -0.0400669 0)
(-0.155224 -0.0408288 0)
(-0.135291 -0.0427172 0)
(-0.123845 -0.034115 0)
(-0.112469 -0.0197078 0)
(-0.0923422 -0.0172791 0)
(-0.070798 -0.0207031 0)
(-0.0531753 -0.0110704 0)
(-0.0364049 -0.00028769 0)
(-0.0115843 -0.012926 0)
(0.00378728 -0.0342332 0)
(0.0143394 -0.0630441 0)
(-0.0892812 0.434411 0)
(-0.093898 0.0745555 0)
(-0.103399 -0.0185917 0)
(-0.128499 -0.0110142 0)
(-0.152543 -0.00745221 0)
(-0.147876 -0.0256147 0)
(-0.131907 -0.045589 0)
(-0.108046 -0.0585121 0)
(-0.0798414 -0.0605941 0)
(-0.0688402 -0.0541128 0)
(-0.0732248 -0.0365224 0)
(-0.0758801 -0.0197562 0)
(-0.0665288 -0.0220702 0)
(-0.0535132 -0.0258599 0)
(-0.0403196 -0.017162 0)
(-0.0232231 -0.00865337 0)
(0.00210958 -0.0216603 0)
(0.0191482 -0.0376203 0)
(0.0264693 -0.0563055 0)
(-0.045087 0.46175 0)
(-0.0370335 0.0794606 0)
(-0.0535485 -0.0098511 0)
(-0.088575 0.0021023 0)
(-0.0995054 -0.00748611 0)
(-0.0913221 -0.0292305 0)
(-0.0776691 -0.0508758 0)
(-0.0602406 -0.0638475 0)
(-0.038869 -0.0638207 0)
(-0.0230747 -0.0555687 0)
(-0.01204 -0.0389564 0)
(-0.0130222 -0.0233964 0)
(-0.0246478 -0.0250797 0)
(-0.0267772 -0.0285473 0)
(-0.0224308 -0.0209143 0)
(-0.00927903 -0.0147471 0)
(0.0108407 -0.0295275 0)
(0.0185181 -0.0399113 0)
(0.0139871 -0.0444752 0)
(0.00836542 0.473568 0)
(0.0287404 0.0888199 0)
(-0.0111191 0.0089847 0)
(-0.0517682 0.00787101 0)
(-0.0524431 -0.00952494 0)
(-0.0431304 -0.0335016 0)
(-0.0319533 -0.0564653 0)
(-0.0191618 -0.0704318 0)
(-0.00387156 -0.0704681 0)
(0.00999034 -0.0597468 0)
(0.0222681 -0.04073 0)
(0.031621 -0.0226786 0)
(0.0319188 -0.0223425 0)
(0.0234744 -0.0280318 0)
(0.0139627 -0.024893 0)
(0.0163012 -0.0220447 0)
(0.0244689 -0.0357915 0)
(0.0148208 -0.036995 0)
(0.00674758 -0.0441668 0)
(0.053746 0.451588 0)
(0.099159 0.0920291 0)
(0.0158453 0.0339437 0)
(-0.0103122 0.0112423 0)
(-0.00755218 -0.011503 0)
(0.000255674 -0.037147 0)
(0.00881124 -0.0608448 0)
(0.0179322 -0.0754137 0)
(0.0285587 -0.0761154 0)
(0.0392706 -0.0650094 0)
(0.0494243 -0.045009 0)
(0.059319 -0.0255338 0)
(0.0628604 -0.0205688 0)
(0.0568582 -0.0235062 0)
(0.0474302 -0.0226245 0)
(0.0452578 -0.0232986 0)
(0.044843 -0.0340756 0)
(0.0270302 -0.0291777 0)
(0.0254016 -0.038325 0)
(0.0384841 -0.118513 0)
(0.0812374 -0.1072 0)
(0.123152 -0.106874 0)
(0.154679 -0.106825 0)
(0.176535 -0.105949 0)
(0.188665 -0.101164 0)
(0.192789 -0.0929605 0)
(0.194573 -0.0805744 0)
(0.196732 -0.0658921 0)
(0.200699 -0.0484886 0)
(0.206193 -0.0291139 0)
(0.212878 -0.00837155 0)
(0.219896 0.0129275 0)
(0.226762 0.0347169 0)
(0.232732 0.0542756 0)
(0.236316 0.0681656 0)
(0.238003 0.0768979 0)
(0.238648 0.0837235 0)
(0.237324 0.0893922 0)
(0.232902 0.09455 0)
(0.226471 0.0941677 0)
(0.219544 0.10063 0)
(0.228051 0.133892 0)
(0.0360108 -0.175693 0)
(0.084127 -0.155976 0)
(0.128635 -0.141814 0)
(0.164864 -0.128834 0)
(0.191553 -0.115895 0)
(0.209624 -0.10354 0)
(0.22079 -0.0912231 0)
(0.227187 -0.079562 0)
(0.230823 -0.0669111 0)
(0.233196 -0.0517993 0)
(0.235665 -0.0342148 0)
(0.239166 -0.0150519 0)
(0.243713 0.00448236 0)
(0.249051 0.0235137 0)
(0.255079 0.0403515 0)
(0.261225 0.0545319 0)
(0.266248 0.0665031 0)
(0.269722 0.0760579 0)
(0.2702 0.0857178 0)
(0.267343 0.0942077 0)
(0.257835 0.0988157 0)
(0.24031 0.106775 0)
(0.216256 0.121907 0)
(0.0317999 -0.228337 0)
(0.0772847 -0.2054 0)
(0.11845 -0.182668 0)
(0.153074 -0.160637 0)
(0.179769 -0.139127 0)
(0.19884 -0.118483 0)
(0.21164 -0.0999215 0)
(0.220041 -0.0834823 0)
(0.225644 -0.0678432 0)
(0.229625 -0.0516643 0)
(0.233174 -0.0349639 0)
(0.237541 -0.0179016 0)
(0.242904 -8.97802e-05 0)
(0.248553 0.0176674 0)
(0.254583 0.0334537 0)
(0.260758 0.0479987 0)
(0.265226 0.062011 0)
(0.26685 0.0733492 0)
(0.26604 0.087978 0)
(0.26044 0.10077 0)
(0.249417 0.116605 0)
(0.229197 0.131203 0)
(0.206174 0.157042 0)
(0.0275784 -0.27596 0)
(0.0659497 -0.248871 0)
(0.100365 -0.219117 0)
(0.129488 -0.189854 0)
(0.152452 -0.161248 0)
(0.16932 -0.134497 0)
(0.18112 -0.110921 0)
(0.189734 -0.0914655 0)
(0.196866 -0.073928 0)
(0.202911 -0.0565535 0)
(0.208343 -0.0398432 0)
(0.214382 -0.0239367 0)
(0.221234 -0.00654417 0)
(0.227424 0.0123032 0)
(0.232342 0.0281167 0)
(0.236774 0.0434841 0)
(0.239519 0.0612276 0)
(0.238159 0.0751708 0)
(0.234506 0.0938904 0)
(0.227767 0.111096 0)
(0.22031 0.129479 0)
(0.213269 0.146761 0)
(0.206852 0.172766 0)
(0.022017 -0.315705 0)
(0.0498213 -0.284694 0)
(0.0749238 -0.24843 0)
(0.096262 -0.213394 0)
(0.113724 -0.179745 0)
(0.127077 -0.148135 0)
(0.13705 -0.120791 0)
(0.145239 -0.0999828 0)
(0.153429 -0.0817812 0)
(0.161337 -0.0632838 0)
(0.168439 -0.045844 0)
(0.175117 -0.0304349 0)
(0.182042 -0.0124735 0)
(0.188035 0.00828743 0)
(0.191999 0.0253153 0)
(0.194169 0.0414502 0)
(0.195274 0.0621142 0)
(0.194335 0.078355 0)
(0.192762 0.0966453 0)
(0.19367 0.114829 0)
(0.195578 0.13063 0)
(0.198681 0.147201 0)
(0.204182 0.167954 0)
(0.015561 -0.345202 0)
(0.0272585 -0.309366 0)
(0.0408088 -0.26608 0)
(0.0511896 -0.228605 0)
(0.062036 -0.192111 0)
(0.072371 -0.158026 0)
(0.0817616 -0.128291 0)
(0.0903381 -0.107466 0)
(0.0990942 -0.0890479 0)
(0.107687 -0.0695493 0)
(0.115739 -0.0516618 0)
(0.122838 -0.0367365 0)
(0.128699 -0.0185367 0)
(0.134485 0.0030189 0)
(0.14007 0.0211857 0)
(0.143934 0.0383152 0)
(0.14822 0.0589672 0)
(0.154044 0.0769078 0)
(0.160091 0.0939725 0)
(0.167235 0.109532 0)
(0.1756 0.12443 0)
(0.185248 0.138847 0)
(0.198385 0.15344 0)
(0.0130053 -0.349665 0)
(-0.00233454 -0.31023 0)
(-0.00762692 -0.267917 0)
(-0.0113446 -0.232447 0)
(-0.00719204 -0.198097 0)
(0.000144243 -0.165054 0)
(0.0102123 -0.136442 0)
(0.0214407 -0.116784 0)
(0.0316188 -0.0994473 0)
(0.0421197 -0.0802071 0)
(0.0528271 -0.0622875 0)
(0.0632293 -0.0458959 0)
(0.0723843 -0.0268469 0)
(0.0821758 -0.0053983 0)
(0.0928074 0.0141317 0)
(0.10294 0.0327584 0)
(0.112839 0.0514079 0)
(0.123331 0.0685944 0)
(0.13433 0.0845042 0)
(0.146093 0.0992087 0)
(0.158987 0.112468 0)
(0.173597 0.124388 0)
(0.191397 0.134371 0)
(0.0132869 -0.347269 0)
(-0.055282 -0.298226 0)
(-0.0795287 -0.250713 0)
(-0.0897056 -0.235497 0)
(-0.0830712 -0.207529 0)
(-0.0718736 -0.178253 0)
(-0.0587377 -0.15183 0)
(-0.0439721 -0.130617 0)
(-0.0297067 -0.112433 0)
(-0.0154151 -0.092936 0)
(-0.000435692 -0.0747064 0)
(0.0141116 -0.0566569 0)
(0.028143 -0.0374704 0)
(0.0423868 -0.017416 0)
(0.0568001 0.00206989 0)
(0.07079 0.020646 0)
(0.0847207 0.038724 0)
(0.0988707 0.0555265 0)
(0.113409 0.0707486 0)
(0.128799 0.0842904 0)
(0.145263 0.0962104 0)
(0.163124 0.105946 0)
(0.183704 0.112183 0)
(-0.0102577 -0.320596 0)
(-0.177287 -0.254104 0)
(-0.156016 -0.243574 0)
(-0.142402 -0.237366 0)
(-0.131567 -0.214324 0)
(-0.11863 -0.190797 0)
(-0.103361 -0.168119 0)
(-0.0879176 -0.147354 0)
(-0.0721074 -0.129037 0)
(-0.0560846 -0.110481 0)
(-0.0393819 -0.0924229 0)
(-0.0227084 -0.0740645 0)
(-0.00597072 -0.0548003 0)
(0.0110316 -0.034819 0)
(0.0281089 -0.0151185 0)
(0.0450933 0.00390559 0)
(0.0618947 0.0220307 0)
(0.078758 0.0386761 0)
(0.0959752 0.0534673 0)
(0.11387 0.0661713 0)
(0.132574 0.0770714 0)
(0.152127 0.0854217 0)
(0.173789 0.0890472 0)
(-0.221296 -0.096053 0)
(-0.206057 -0.173819 0)
(-0.17377 -0.243852 0)
(-0.163849 -0.242317 0)
(-0.155716 -0.220395 0)
(-0.14403 -0.196214 0)
(-0.130878 -0.175211 0)
(-0.115592 -0.156935 0)
(-0.100063 -0.140485 0)
(-0.0836478 -0.124061 0)
(-0.0665027 -0.107425 0)
(-0.0489844 -0.0900834 0)
(-0.0312018 -0.0718024 0)
(-0.0128121 -0.0525666 0)
(0.00586004 -0.0330633 0)
(0.0244529 -0.0140302 0)
(0.0430437 0.0042277 0)
(0.0616473 0.0213532 0)
(0.0805174 0.0362246 0)
(0.0999473 0.0486299 0)
(0.119809 0.0595197 0)
(0.140018 0.0673799 0)
(0.162732 0.0683592 0)
(-0.126073 0.0443167 0)
(-0.109824 -0.195401 0)
(-0.134826 -0.271285 0)
(-0.177154 -0.249889 0)
(-0.181013 -0.220002 0)
(-0.168723 -0.202917 0)
(-0.153501 -0.185263 0)
(-0.137865 -0.167189 0)
(-0.120273 -0.150132 0)
(-0.102194 -0.133455 0)
(-0.0840198 -0.116573 0)
(-0.0661048 -0.0993139 0)
(-0.048225 -0.0814363 0)
(-0.0304873 -0.0628951 0)
(-0.0122817 -0.0443805 0)
(0.00670121 -0.0263824 0)
(0.0259434 -0.00918248 0)
(0.0456068 0.00726093 0)
(0.0660028 0.0214713 0)
(0.0868181 0.0330552 0)
(0.1081 0.0431962 0)
(0.131339 0.0512644 0)
(0.156411 0.0513829 0)
(0.0865348 0.138717 0)
(0.0403797 -0.188694 0)
(-0.0130887 -0.272532 0)
(-0.0544736 -0.241521 0)
(-0.0966887 -0.25645 0)
(-0.136866 -0.217005 0)
(-0.165655 -0.201884 0)
(-0.156298 -0.173919 0)
(-0.137761 -0.155302 0)
(-0.11891 -0.138065 0)
(-0.100264 -0.121531 0)
(-0.0818327 -0.104408 0)
(-0.065632 -0.0874826 0)
(-0.0479735 -0.0712419 0)
(-0.0291229 -0.0541405 0)
(-0.0108782 -0.0368576 0)
(0.00845969 -0.0196641 0)
(0.0293935 -0.00325692 0)
(0.052908 0.0114164 0)
(0.0766156 0.0210072 0)
(0.0993184 0.0282898 0)
(0.123641 0.0311924 0)
(0.146281 0.0240776 0)
(0.0686724 -0.0472772 0)
(0.0627253 -0.127038 0)
(0.0131773 -0.170325 0)
(-0.0340403 -0.180751 0)
(-0.0730574 -0.15713 0)
(-0.105819 -0.20263 0)
(-0.119621 -0.207109 0)
(-0.12339 -0.237883 0)
(-0.118169 -0.234289 0)
(-0.10817 -0.217791 0)
(-0.0957104 -0.197655 0)
(-0.0851958 -0.174784 0)
(-0.0788503 -0.1534 0)
(-0.0745605 -0.122339 0)
(-0.0690798 -0.102943 0)
(-0.0607526 -0.0818151 0)
(-0.0536937 -0.0665645 0)
(-0.0520205 -0.0558824 0)
(-0.0545865 -0.0470828 0)
(-0.0548465 -0.0379689 0)
(-0.0509944 -0.0306497 0)
(-0.0489365 -0.0222854 0)
(-0.0514983 -0.00646678 0)
(0.0115919 -0.0697546 0)
(0.0208932 -0.0906217 0)
(-0.0161243 -0.125964 0)
(-0.0528715 -0.143438 0)
(-0.0750661 -0.154527 0)
(-0.09158 -0.150491 0)
(-0.106226 -0.185534 0)
(-0.117444 -0.199447 0)
(-0.130043 -0.196378 0)
(-0.138022 -0.18488 0)
(-0.142476 -0.168464 0)
(-0.144934 -0.145158 0)
(-0.14947 -0.1187 0)
(-0.15479 -0.108887 0)
(-0.158514 -0.0902991 0)
(-0.161067 -0.0781028 0)
(-0.160802 -0.0578113 0)
(-0.160158 -0.0354623 0)
(-0.160132 -0.0181317 0)
(-0.161295 -0.00718924 0)
(-0.164131 0.00112857 0)
(-0.1685 0.0085954 0)
(-0.1766 0.0175883 0)
(-0.0141016 -0.0724179 0)
(-0.0134536 -0.0732685 0)
(-0.0396755 -0.0925432 0)
(-0.0665195 -0.111203 0)
(-0.0890934 -0.126477 0)
(-0.103587 -0.146908 0)
(-0.118235 -0.164251 0)
(-0.138981 -0.175699 0)
(-0.160089 -0.175917 0)
(-0.178597 -0.168644 0)
(-0.193906 -0.156282 0)
(-0.20482 -0.138127 0)
(-0.210578 -0.116337 0)
(-0.214656 -0.093519 0)
(-0.218699 -0.0820117 0)
(-0.222784 -0.0663276 0)
(-0.22766 -0.0478817 0)
(-0.231607 -0.0305125 0)
(-0.235001 -0.0157359 0)
(-0.238943 -0.00364804 0)
(-0.24373 0.00562801 0)
(-0.249904 0.0146211 0)
(-0.259238 0.0244189 0)
(-0.0270886 -0.0546141 0)
(-0.0347383 -0.0540727 0)
(-0.0576464 -0.0698315 0)
(-0.0799796 -0.0894292 0)
(-0.100633 -0.108182 0)
(-0.119305 -0.125553 0)
(-0.139434 -0.142694 0)
(-0.162508 -0.152775 0)
(-0.185797 -0.154331 0)
(-0.207358 -0.149521 0)
(-0.225928 -0.140488 0)
(-0.240211 -0.125991 0)
(-0.249472 -0.108308 0)
(-0.254747 -0.0915194 0)
(-0.259785 -0.0749288 0)
(-0.266544 -0.0587716 0)
(-0.273422 -0.0420093 0)
(-0.279161 -0.0261752 0)
(-0.284004 -0.0123322 0)
(-0.288262 -0.000696104 0)
(-0.292416 0.00931986 0)
(-0.297673 0.0191013 0)
(-0.3052 0.0299853 0)
(-0.0321619 -0.0257337 0)
(-0.0456653 -0.0320513 0)
(-0.0679296 -0.0487719 0)
(-0.0893032 -0.068983 0)
(-0.110115 -0.0888501 0)
(-0.130743 -0.106773 0)
(-0.152633 -0.121468 0)
(-0.175939 -0.130257 0)
(-0.198975 -0.132562 0)
(-0.220474 -0.129787 0)
(-0.239947 -0.123773 0)
(-0.256169 -0.1133 0)
(-0.268162 -0.0990942 0)
(-0.276548 -0.0831586 0)
(-0.283866 -0.0672195 0)
(-0.291411 -0.0511896 0)
(-0.298112 -0.0357214 0)
(-0.303649 -0.0211989 0)
(-0.307867 -0.008171 0)
(-0.311209 0.00325897 0)
(-0.313962 0.0133902 0)
(-0.317241 0.0231294 0)
(-0.322116 0.0335513 0)
(-0.0304451 0.00987104 0)
(-0.0472768 -0.00683308 0)
(-0.0695694 -0.0267915 0)
(-0.0909047 -0.0478219 0)
(-0.111917 -0.0677706 0)
(-0.133147 -0.085141 0)
(-0.155167 -0.0987669 0)
(-0.177736 -0.107305 0)
(-0.199769 -0.11063 0)
(-0.2204 -0.109668 0)
(-0.239429 -0.105662 0)
(-0.256509 -0.0984449 0)
(-0.270572 -0.0880801 0)
(-0.281508 -0.0748988 0)
(-0.289848 -0.0600334 0)
(-0.29699 -0.0446844 0)
(-0.303046 -0.0301055 0)
(-0.307452 -0.0167949 0)
(-0.310584 -0.00483089 0)
(-0.312577 0.00578204 0)
(-0.313592 0.0153513 0)
(-0.314632 0.024447 0)
(-0.316841 0.0337295 0)
(-0.0249589 0.0413145 0)
(-0.0419296 0.018212 0)
(-0.0634852 -0.00459872 0)
(-0.0844243 -0.0265498 0)
(-0.10514 -0.046473 0)
(-0.126057 -0.0634324 0)
(-0.147386 -0.0766031 0)
(-0.168802 -0.0853461 0)
(-0.189605 -0.0896764 0)
(-0.209169 -0.0902308 0)
(-0.227187 -0.0877315 0)
(-0.243593 -0.0824923 0)
(-0.258089 -0.0750353 0)
(-0.270071 -0.0647538 0)
(-0.279576 -0.0520642 0)
(-0.286406 -0.0384742 0)
(-0.291278 -0.0254856 0)
(-0.29462 -0.0136435 0)
(-0.296407 -0.00297808 0)
(-0.297013 0.00654995 0)
(-0.296386 0.0151714 0)
(-0.295422 0.0232559 0)
(-0.295364 0.0311584 0)
(-0.0181891 0.0675553 0)
(-0.0329186 0.0405531 0)
(-0.0520789 0.0163086 0)
(-0.0714482 -0.00603348 0)
(-0.0910599 -0.0259032 0)
(-0.110897 -0.0425978 0)
(-0.130966 -0.0556426 0)
(-0.150929 -0.0647524 0)
(-0.170265 -0.070029 0)
(-0.188518 -0.0718971 0)
(-0.2054 -0.0708841 0)
(-0.220676 -0.0673715 0)
(-0.234289 -0.061571 0)
(-0.245984 -0.0536854 0)
(-0.255229 -0.0438837 0)
(-0.261955 -0.032769 0)
(-0.266295 -0.0218358 0)
(-0.268644 -0.0116385 0)
(-0.269437 -0.00241633 0)
(-0.268879 0.00585949 0)
(-0.266966 0.0133201 0)
(-0.264509 0.0202015 0)
(-0.262854 0.0266841 0)
(-0.0111373 0.0865136 0)
(-0.0222496 0.0586945 0)
(-0.0378423 0.0344093 0)
(-0.0543586 0.0125419 0)
(-0.0718148 -0.00686239 0)
(-0.0898489 -0.0232784 0)
(-0.108127 -0.0362871 0)
(-0.126299 -0.0457803 0)
(-0.14392 -0.051891 0)
(-0.1606 -0.0549468 0)
(-0.176057 -0.0553286 0)
(-0.190085 -0.0533716 0)
(-0.202489 -0.0493864 0)
(-0.213066 -0.0434801 0)
(-0.221563 -0.035985 0)
(-0.227696 -0.0275454 0)
(-0.231532 -0.0187776 0)
(-0.23337 -0.0104379 0)
(-0.233479 -0.00275778 0)
(-0.232168 0.00415401 0)
(-0.229449 0.0103562 0)
(-0.226084 0.0159802 0)
(-0.223482 0.0211182 0)
(-0.00454643 0.0974269 0)
(-0.0113758 0.0716883 0)
(-0.0227266 0.0487736 0)
(-0.0356379 0.0280873 0)
(-0.0499825 0.00970764 0)
(-0.0653924 -0.0060888 0)
(-0.0813714 -0.0189593 0)
(-0.0973772 -0.028733 0)
(-0.113 -0.0355293 0)
(-0.127865 -0.0396019 0)
(-0.141681 -0.0412549 0)
(-0.154219 -0.0407723 0)
(-0.165289 -0.0384076 0)
(-0.17468 -0.0344113 0)
(-0.182156 -0.029061 0)
(-0.187572 -0.0227882 0)
(-0.190918 -0.0161898 0)
(-0.192348 -0.00969176 0)
(-0.192108 -0.00361799 0)
(-0.190436 0.00189154 0)
(-0.187374 0.0068211 0)
(-0.183647 0.0112291 0)
(-0.180725 0.0151555 0)
(0.000943261 0.100815 0)
(-0.00151607 0.0792063 0)
(-0.0083738 0.0588491 0)
(-0.0172802 0.040012 0)
(-0.0280696 0.023033 0)
(-0.0402205 0.00824889 0)
(-0.0532927 -0.0041242 0)
(-0.0667741 -0.013952 0)
(-0.0801039 -0.0212171 0)
(-0.0929204 -0.0260975 0)
(-0.104912 -0.0288272 0)
(-0.115831 -0.0296461 0)
(-0.125467 -0.0287867 0)
(-0.133625 -0.0264745 0)
(-0.140118 -0.0229898 0)
(-0.144816 -0.0186915 0)
(-0.147701 -0.0139735 0)
(-0.148869 -0.00921591 0)
(-0.148497 -0.00468111 0)
(-0.146774 -0.00052756 0)
(-0.143759 0.00318908 0)
(-0.140126 0.00647472 0)
(-0.137328 0.00935463 0)
(0.00475798 0.0977868 0)
(0.00628781 0.0815676 0)
(0.00393645 0.0645473 0)
(-0.000892861 0.048041 0)
(-0.00795495 0.0327943 0)
(-0.0166568 0.019274 0)
(-0.0265005 0.00771283 0)
(-0.0370267 -0.00178268 0)
(-0.0478153 -0.00921622 0)
(-0.0583802 -0.0146378 0)
(-0.0683933 -0.0182005 0)
(-0.0775894 -0.0200912 0)
(-0.0857457 -0.0205085 0)
(-0.092671 -0.0196585 0)
(-0.0982017 -0.0177776 0)
(-0.102228 -0.0151479 0)
(-0.104722 -0.0120794 0)
(-0.105731 -0.00885802 0)
(-0.105388 -0.00571314 0)
(-0.103847 -0.00279638 0)
(-0.101157 -0.000177594 0)
(-0.0979338 0.00212298 0)
(-0.0956091 0.00411976 0)
(0.00707022 0.0902929 0)
(0.0117009 0.0794342 0)
(0.0133065 0.0659605 0)
(0.0123113 0.0521405 0)
(0.00892185 0.0389442 0)
(0.00367141 0.0269255 0)
(-0.0029518 0.0163717 0)
(-0.0104733 0.00746924 0)
(-0.0184879 0.00022936 0)
(-0.0266342 -0.00539929 0)
(-0.034561 -0.00949918 0)
(-0.0419512 -0.0121833 0)
(-0.0485888 -0.0136061 0)
(-0.0542794 -0.0139362 0)
(-0.0588694 -0.0133674 0)
(-0.0622554 -0.0121196 0)
(-0.0643949 -0.0104266 0)
(-0.0653068 -0.00851102 0)
(-0.0650822 -0.00656123 0)
(-0.0638561 -0.00471232 0)
(-0.0616499 -0.0030383 0)
(-0.0590298 -0.0015721 0)
(-0.05734 -0.000298772 0)
(0.00817212 0.0801627 0)
(0.0149153 0.0738713 0)
(0.0196029 0.0637481 0)
(0.0218196 0.0526081 0)
(0.0216914 0.0415684 0)
(0.019634 0.0312379 0)
(0.0160833 0.021942 0)
(0.011446 0.0138558 0)
(0.00610164 0.00704694 0)
(0.000390867 0.0015091 0)
(-0.00537902 -0.0028083 0)
(-0.0109375 -0.00597863 0)
(-0.0160436 -0.00810628 0)
(-0.0204919 -0.00931479 0)
(-0.0241398 -0.0097526 0)
(-0.0268828 -0.00958589 0)
(-0.0286676 -0.00899013 0)
(-0.0294907 -0.00813275 0)
(-0.0294045 -0.00716105 0)
(-0.0285142 -0.00618946 0)
(-0.0268405 -0.00529039 0)
(-0.0248739 -0.00449765 0)
(-0.0238958 -0.00380134 0)
(0.00844138 0.0687884 0)
(0.0163878 0.0660262 0)
(0.0231767 0.058797 0)
(0.0277936 0.0501399 0)
(0.030271 0.0411948 0)
(0.0308903 0.0325755 0)
(0.0300046 0.0246205 0)
(0.0279515 0.0175169 0)
(0.025052 0.0113531 0)
(0.0216043 0.00615169 0)
(0.0178785 0.00189253 0)
(0.0141183 -0.00146967 0)
(0.0105371 -0.00400297 0)
(0.007315 -0.00579235 0)
(0.0046063 -0.0069392 0)
(0.00251922 -0.00756225 0)
(0.00111619 -0.00778848 0)
(0.00042027 -0.00774023 0)
(0.000407369 -0.00752792 0)
(0.00100834 -0.007243 0)
(0.00221758 -0.0069494 0)
(0.00358825 -0.0066843 0)
(0.00395903 -0.00641796 0)
(0.00820473 0.0571451 0)
(0.0166394 0.0569291 0)
(0.0246195 0.0520426 0)
(0.0307991 0.0455413 0)
(0.0351328 0.0385045 0)
(0.0377808 0.0315114 0)
(0.0390069 0.0248904 0)
(0.0390756 0.0188292 0)
(0.0382441 0.0134268 0)
(0.0367575 0.00872447 0)
(0.0348438 0.00472553 0)
(0.0327114 0.00140848 0)
(0.0305465 -0.00126775 0)
(0.0285101 -0.00335966 0)
(0.0267351 -0.00493684 0)
(0.025327 -0.00607855 0)
(0.0243556 -0.0068708 0)
(0.0238586 -0.00739835 0)
(0.0238346 -0.00773959 0)
(0.0242393 -0.00796233 0)
(0.0250871 -0.00811966 0)
(0.0259963 -0.0082425 0)
(0.025881 -0.00828665 0)
(0.00767006 0.0458491 0)
(0.0161064 0.0473776 0)
(0.0245523 0.0443171 0)
(0.0315686 0.0396054 0)
(0.0370551 0.0342221 0)
(0.0410778 0.0286912 0)
(0.0438222 0.0233168 0)
(0.0454857 0.0182783 0)
(0.0462654 0.0136772 0)
(0.0463536 0.00956413 0)
(0.0459331 0.00595661 0)
(0.0451745 0.00284992 0)
(0.0442331 0.000222939 0)
(0.0432465 -0.00195826 0)
(0.0423309 -0.00373792 0)
(0.0415797 -0.00516709 0)
(0.0410634 -0.00630098 0)
(0.0408261 -0.0071949 0)
(0.0408821 -0.00790123 0)
(0.0412104 -0.00846644 0)
(0.0418406 -0.00892979 0)
(0.0424325 -0.00931691 0)
(0.0420154 -0.00957907 0)
(0.00695823 0.035265 0)
(0.015091 0.0379193 0)
(0.0234968 0.036253 0)
(0.0308036 0.0329873 0)
(0.0368756 0.0289902 0)
(0.0417129 0.0247243 0)
(0.0454385 0.0204634 0)
(0.0481947 0.0163735 0)
(0.0501274 0.0125532 0)
(0.051383 0.00905652 0)
(0.0521034 0.00590865 0)
(0.0524236 0.00311531 0)
(0.0524687 0.000668733 0)
(0.0523518 -0.00144884 0)
(0.0521712 -0.00326275 0)
(0.0520088 -0.00480334 0)
(0.0519287 -0.00610377 0)
(0.0519779 -0.00719717 0)
(0.0521807 -0.00811533 0)
(0.0525282 -0.00888696 0)
(0.0530598 -0.00953867 0)
(0.0534852 -0.010087 0)
(0.0529041 -0.0104773 0)
(0.00614772 0.0256092 0)
(0.0137925 0.0288994 0)
(0.0218412 0.0282757 0)
(0.029074 0.026158 0)
(0.0353281 0.0232999 0)
(0.0405583 0.0201039 0)
(0.0448399 0.016811 0)
(0.0482717 0.0135712 0)
(0.0509595 0.0104767 0)
(0.0530124 0.00758117 0)
(0.0545389 0.00491323 0)
(0.055644 0.00248475 0)
(0.0564268 0.000296451 0)
(0.0569783 -0.00165853 0)
(0.0573794 -0.00339235 0)
(0.0577002 -0.00492044 0)
(0.0579968 -0.00626033 0)
(0.0583163 -0.00742928 0)
(0.0586856 -0.00844328 0)
(0.0591067 -0.00931667 0)
(0.0596267 -0.0100633 0)
(0.0599786 -0.010693 0)
(0.0593691 -0.0111351 0)
(0.00530594 0.0169914 0)
(0.0123533 0.0205173 0)
(0.0198716 0.020644 0)
(0.0268118 0.0194212 0)
(0.0329894 0.0174873 0)
(0.0383256 0.0151853 0)
(0.042859 0.012723 0)
(0.0466544 0.0102323 0)
(0.0497866 0.00779619 0)
(0.0523363 0.00546552 0)
(0.0543858 0.00326936 0)
(0.0560167 0.00122272 0)
(0.0573075 -0.00066829 0)
(0.058331 -0.00240321 0)
(0.0591531 -0.00398515 0)
(0.0598321 -0.00541944 0)
(0.0604176 -0.00671274 0)
(0.0609534 -0.00787115 0)
(0.0614686 -0.00889896 0)
(0.06197 -0.00979851 0)
(0.0625052 -0.0105726 0)
(0.0628462 -0.0112202 0)
(0.0622643 -0.0116574 0)
(0.0044933 0.00943898 0)
(0.0108938 0.0128695 0)
(0.0178064 0.0134964 0)
(0.0243414 0.0129539 0)
(0.0302934 0.011762 0)
(0.0355567 0.0102039 0)
(0.0401402 0.00845231 0)
(0.0440824 0.00661863 0)
(0.0474344 0.00477488 0)
(0.0502549 0.00296649 0)
(0.052607 0.00122089 0)
(0.0545548 -0.000445886 0)
(0.0561606 -0.00202448 0)
(0.0574835 -0.00350934 0)
(0.0585769 -0.00489726 0)
(0.0594889 -0.00618667 0)
(0.0602627 -0.00737727 0)
(0.0609382 -0.00846776 0)
(0.0615448 -0.00945436 0)
(0.0620958 -0.0103292 0)
(0.0626422 -0.0110838 0)
(0.0629699 -0.0117067 0)
(0.0624514 -0.0120949 0)
(0.00376041 0.00290448 0)
(0.00951865 0.00597385 0)
(0.0158243 0.00688641 0)
(0.0219156 0.00684342 0)
(0.0275681 0.0062431 0)
(0.0326546 0.00530537 0)
(0.0371607 0.0041649 0)
(0.0411049 0.00291026 0)
(0.0445206 0.00160047 0)
(0.0474502 0.000273748 0)
(0.0499421 -0.001046 0)
(0.0520473 -0.00234344 0)
(0.0538169 -0.00360727 0)
(0.0552984 -0.0048282 0)
(0.0565363 -0.00599757 0)
(0.0575682 -0.00710965 0)
(0.0584305 -0.00816002 0)
(0.0591593 -0.00914392 0)
(0.0597866 -0.010053 0)
(0.0603304 -0.010871 0)
(0.0608396 -0.0115778 0)
(0.061138 -0.012147 0)
(0.0606506 -0.0124583 0)
(0.00314904 -0.0027195 0)
(0.0083253 -0.000212638 0)
(0.0140757 0.00080742 0)
(0.0197362 0.00111793 0)
(0.0250631 0.000991224 0)
(0.0299143 0.000577234 0)
(0.0342606 -3.14852e-05 0)
(0.0381084 -0.00077085 0)
(0.0414787 -0.00159584 0)
(0.0444022 -0.00247668 0)
(0.0469157 -0.00339459 0)
(0.0490609 -0.0043365 0)
(0.0508809 -0.00528946 0)
(0.052415 -0.00624028 0)
(0.0536964 -0.00717612 0)
(0.0547537 -0.00808728 0)
(0.0556148 -0.00896852 0)
(0.0563124 -0.00981642 0)
(0.0568799 -0.0106224 0)
(0.0573449 -0.0113639 0)
(0.0577628 -0.012006 0)
(0.0579695 -0.0125075 0)
(0.0574837 -0.0127225 0)
(0.00269222 -0.00761115 0)
(0.00739651 -0.00580065 0)
(0.0126906 -0.00480155 0)
(0.0179639 -0.00423719 0)
(0.0229583 -0.00396867 0)
(0.0275302 -0.00392644 0)
(0.0316513 -0.00406354 0)
(0.0353256 -0.0043393 0)
(0.0385677 -0.0047213 0)
(0.0413989 -0.00518807 0)
(0.0438484 -0.00572652 0)
(0.04595 -0.0063271 0)
(0.0477393 -0.00697661 0)
(0.049248 -0.00765638 0)
(0.0504994 -0.00834703 0)
(0.0515104 -0.00903587 0)
(0.052298 -0.00972016 0)
(0.0528889 -0.0104037 0)
(0.0533214 -0.0110842 0)
(0.0536337 -0.0117348 0)
(0.0538819 -0.0123042 0)
(0.0539432 -0.012729 0)
(0.0533856 -0.0128389 0)
(0.00243182 -0.0119761 0)
(0.00682697 -0.0109382 0)
(0.0117826 -0.0100277 0)
(0.0167043 -0.0092452 0)
(0.021335 -0.00861038 0)
(0.0255617 -0.00815018 0)
(0.0293804 -0.00786158 0)
(0.0328043 -0.00771955 0)
(0.035845 -0.00769831 0)
(0.0385155 -0.0077828 0)
(0.0408354 -0.00796726 0)
(0.042832 -0.0082458 0)
(0.044535 -0.0086036 0)
(0.0459686 -0.00901444 0)
(0.0471441 -0.00945009 0)
(0.0480634 -0.00989411 0)
(0.0487293 -0.0103496 0)
(0.0491599 -0.0108353 0)
(0.0493961 -0.0113651 0)
(0.0494906 -0.0119106 0)
(0.0495114 -0.0123997 0)
(0.0493468 -0.0127439 0)
(0.0486575 -0.012742 0)
(0.00240903 -0.0161268 0)
(0.00671305 -0.0158042 0)
(0.0114111 -0.0149361 0)
(0.0159184 -0.0138715 0)
(0.0200603 -0.0128481 0)
(0.0238125 -0.0119959 0)
(0.0272181 -0.0113338 0)
(0.0303021 -0.0108312 0)