/*--------------------------------*- C++ -*----------------------------------*\
  =========                 |
  \\      /  F ield         | OpenFOAM: The Open Source CFD Toolbox
   \\    /   O peration     | Website:  https://openfoam.org
    \\  /    A nd           | Version:  13
     \\/     M anipulation  |
\*---------------------------------------------------------------------------*/
FoamFile
{
    format      ascii;
    class       surfaceScalarField;
    location    "0.0009";
    object      meshPhi;
}
// * * * * * * * * * * * * * * * * * * * * * * * * * * * * * * * * * * * * * //

dimensions      [0 3 -1 0 0 0 0];

internalField   nonuniform List<scalar> 
3252
(
1.41494e-11
4.12037e-25
2.82988e-11
0
4.24481e-11
0
5.65976e-11
-4.12038e-25
7.07497e-11
-4.12028e-25
8.48582e-11
-4.10229e-25
9.82484e-11
-4.07976e-25
-9.75763e-28
4.24482e-11
-5.11361e-27
8.48963e-11
1.64815e-24
1.27344e-10
5.11359e-27
1.69793e-10
0
2.12249e-10
-4.94435e-24
2.54576e-10
-1.64094e-24
2.94746e-10
1.63175e-24
1.71847e-24
7.07471e-11
-9.87357e-24
1.41494e-10
4.92911e-24
2.12241e-10
4.94445e-24
2.82988e-10
-4.92912e-24
3.53748e-10
0
4.24297e-10
-4.92292e-24
4.91246e-10
4.89443e-24
-5.15612e-24
9.90459e-11
1.31648e-23
1.98092e-10
6.57215e-24
2.97137e-10
0
3.96184e-10
-6.57216e-24
4.95247e-10
-2.0458e-26
5.94024e-10
-1.31282e-23
6.8775e-10
-1.93555e-26
-1.37367e-23
1.27345e-10
0
2.54689e-10
1.64304e-23
3.82034e-10
-1.64815e-23
5.09379e-10
1.64304e-23
6.36746e-10
-1.64812e-23
7.63759e-10
0
8.84258e-10
0
-1.71947e-23
1.55644e-10
-3.94943e-23
3.11287e-10
-1.97778e-23
4.6693e-10
1.97164e-23
6.22575e-10
0
7.78244e-10
1.97774e-23
9.33504e-10
0
1.08077e-09
0
0
1.83942e-10
0
3.67885e-10
-2.31457e-23
5.51826e-10
-4.61482e-23
7.3577e-10
-2.31458e-23
9.19741e-10
-2.30737e-23
1.10326e-09
-7.14336e-26
1.2773e-09
-6.77314e-26
-4.81232e-23
2.12241e-10
2.62886e-23
4.24482e-10
2.63704e-23
6.36723e-10
-8.18175e-26
8.48965e-10
-2.63705e-23
1.06124e-09
0
1.27304e-09
0
1.47383e-09
-5.21857e-23
-2.7542e-23
2.4054e-10
9.2045e-26
4.8108e-10
-9.20448e-26
7.21619e-10
2.96667e-23
9.62161e-10
2.97588e-23
1.20273e-09
0
1.44283e-09
0
1.67037e-09
0
-3.09296e-23
2.68839e-10
0
5.37677e-10
-6.57215e-23
8.06516e-10
6.57215e-23
1.07536e-09
-6.57216e-23
1.34422e-09
0
1.61264e-09
0
1.86692e-09
6.50516e-23
6.87704e-23
2.97138e-10
-7.25187e-23
5.94275e-10
-2.24998e-25
8.91412e-10
-2.24998e-25
1.18855e-09
7.22938e-23
1.48571e-09
0
1.78248e-09
0
2.06349e-09
7.15019e-23
-7.58655e-23
3.25437e-10
-2.37088e-22
6.50873e-10
0
9.76308e-10
-7.91112e-23
1.30175e-09
7.88659e-23
1.6272e-09
-7.91094e-23
1.95234e-09
0
2.26006e-09
-7.81676e-23
-8.26314e-23
3.53736e-10
-2.65908e-25
7.0747e-10
0
1.0612e-09
8.54379e-23
1.41494e-09
-8.5704e-23
1.76869e-09
-2.65911e-25
2.12224e-09
1.70807e-22
2.45666e-09
8.43505e-23
0
3.82034e-10
9.17238e-23
7.64068e-10
-9.22965e-23
1.1461e-09
9.20101e-23
1.52814e-09
-9.22966e-23
1.91018e-09
-5.72729e-25
2.29209e-09
2.76212e-22
2.65311e-09
-2.70524e-25
-9.67961e-23
4.10333e-10
3.06817e-25
8.20666e-10
-9.85823e-23
1.231e-09
9.88891e-23
1.64133e-09
-9.88893e-23
2.05167e-09
0
2.46166e-09
-1.97377e-22
2.85246e-09
9.81434e-23
2.06159e-22
1.41616e-09
3.08734e-24
1.36369e-09
5.17109e-27
1.30907e-09
3.35959e-24
1.25243e-09
0
1.19369e-09
3.61583e-24
1.13278e-09
-3.74424e-24
1.0696e-09
6.22673e-27
1.00408e-09
-4.0277e-24
9.36124e-10
-1.25388e-23
8.65645e-10
4.33956e-24
7.92549e-10
0
7.16737e-10
4.66807e-24
6.3811e-10
4.84153e-24
5.56562e-10
1.00429e-23
4.71985e-10
8.33594e-27
3.84267e-10
-1.07858e-23
2.9329e-10
-5.58433e-24
1.98936e-10
9.29965e-27
1.01082e-10
9.64449e-27
6.25791e-24
3.85693e-09
1.90196e-26
3.71403e-09
1.99602e-26
3.56528e-09
2.07751e-26
3.41102e-09
2.15446e-26
3.25105e-09
1.39769e-23
3.08515e-09
2.317e-26
2.91309e-09
-1.49871e-23
2.73464e-09
1.5569e-23
2.54957e-09
-3.22435e-23
2.35762e-09
5.36157e-26
2.15855e-09
3.474e-23
1.95208e-09
2.88361e-26
1.73794e-09
2.99072e-26
1.51584e-09
1.93481e-23
1.2855e-09
-2.00349e-23
1.0466e-09
2.08795e-23
7.98833e-10
-4.31722e-23
5.41861e-10
-2.23524e-23
2.7536e-10
2.32948e-23
2.41869e-23
5.78112e-09
-3.43938e-23
5.56688e-09
5.78152e-26
5.34392e-09
6.01601e-26
5.11271e-09
3.89583e-23
4.87295e-09
6.46931e-26
4.62429e-09
4.19111e-23
4.3664e-09
-4.33991e-23
4.09894e-09
9.0168e-23
3.82154e-09
7.48476e-26
3.53384e-09
0
3.23546e-09
5.02991e-23
2.92599e-09
8.35005e-26
2.60503e-09
0
2.27215e-09
8.98188e-26
1.92691e-09
-5.81092e-23
1.56884e-09
-6.02684e-23
1.19746e-09
1.00204e-25
8.12302e-10
1.03925e-25
4.12856e-10
0
0
7.27192e-09
7.08223e-26
7.00235e-09
4.65264e-23
6.72189e-09
-4.82681e-23
6.43107e-09
-5.00816e-23
6.12949e-09
8.32947e-26
5.81673e-09
5.39635e-23
5.49235e-09
8.95921e-26
5.15593e-09
9.29189e-26
4.80701e-09
9.63695e-26
4.44514e-09
9.99484e-26
4.06983e-09
1.0366e-25
3.68057e-09
-6.70626e-23
3.27686e-09
-6.95544e-23
2.85815e-09
-7.21389e-23
2.42389e-09
1.49879e-22
1.9735e-09
1.24397e-25
1.50638e-09
-8.0483e-23
1.02191e-09
-1.67081e-22
5.19468e-10
8.67148e-23
1.43498e-25
8.40027e-09
-5.3561e-23
8.08876e-09
-5.6192e-23
7.76479e-09
0
7.42887e-09
-9.6998e-26
7.08051e-09
-1.00586e-25
6.71923e-09
0
6.34454e-09
-6.74815e-23
5.95593e-09
-7.01014e-23
5.55289e-09
7.27064e-23
5.13488e-09
-1.20698e-25
4.70135e-09
0
4.25171e-09
-1.29831e-25
3.78538e-09
8.41305e-23
3.30172e-09
-1.74234e-22
2.80009e-09
9.0354e-23
2.27983e-09
9.38615e-23
1.74025e-09
9.71934e-23
1.18062e-09
0
6.00237e-10
1.04551e-22
-1.73343e-25
9.22667e-09
0
8.88436e-09
6.51806e-23
8.52853e-09
1.35224e-22
8.15957e-09
7.02606e-23
7.77697e-09
7.27588e-23
7.38016e-09
0
6.96863e-09
7.81419e-23
6.54181e-09
-1.62482e-22
6.09914e-09
-2.52577e-22
5.64003e-09
-8.74609e-23
5.16386e-09
-9.07109e-23
4.67002e-09
1.5058e-25
4.15782e-09
9.77335e-23
3.6266e-09
1.01203e-22
3.07565e-09
3.14554e-22
2.50423e-09
2.17727e-22
1.91158e-09
1.12547e-22
1.29693e-09
0
6.59458e-10
0
2.01105e-25
9.80257e-09
0
9.43871e-09
1.46844e-22
9.06068e-09
0
8.66872e-09
1.58525e-22
8.26225e-09
-1.64161e-22
7.8407e-09
0
7.4035e-09
1.76589e-22
6.95006e-09
1.83444e-22
6.47978e-09
-1.89957e-22
5.99203e-09
-1.97015e-22
5.48617e-09
0
4.96152e-09
0
4.41738e-09
0
3.85303e-09
2.28336e-22
3.26771e-09
-2.3682e-22
2.66064e-09
-2.45227e-22
2.03103e-09
2.54746e-22
1.37803e-09
2.64212e-22
7.0079e-10
2.74031e-22
4.53859e-25
1.01717e-08
0
9.79394e-09
1.62368e-22
9.40168e-09
0
8.99498e-09
0
8.57323e-09
1.81492e-22
8.13583e-09
0
7.68218e-09
0
7.21169e-09
0
6.72372e-09
-2.10347e-22
6.21763e-09
0
5.69275e-09
-2.25908e-22
5.14836e-09
0
4.58375e-09
0
3.99817e-09
0
3.39083e-09
-2.61822e-22
2.76093e-09
2.7155e-22
2.10763e-09
2.8164e-22
1.43007e-09
2.91637e-22
7.27344e-10
0
0
1.03712e-08
2.68156e-25
9.9858e-09
-1.76805e-22
9.58585e-09
-1.8365e-22
9.17121e-09
-1.90518e-22
8.74121e-09
-1.97604e-22
8.29525e-09
-2.04947e-22
7.83273e-09
0
7.35303e-09
3.53432e-25
6.85551e-09
0
6.33952e-09
2.3753e-22
5.80436e-09
-2.45962e-22
5.24932e-09
0
4.67366e-09
2.65004e-22
4.07662e-09
0
3.4574e-09
4.56232e-25
2.81517e-09
2.95655e-22
2.14908e-09
3.0615e-22
1.45825e-09
0
7.41763e-10
3.29324e-22
-3.41734e-22
1.04325e-08
1.81719e-22
1.00446e-08
-3.80466e-22
9.64226e-09
3.17004e-25
9.2252e-09
2.05618e-22
8.79268e-09
-2.12582e-22
8.34411e-09
2.20835e-22
7.87887e-09
3.66603e-25
7.39636e-09
-2.37172e-22
6.89593e-09
-2.45985e-22
6.37691e-09
2.55943e-22
5.83861e-09
2.65029e-22
5.28031e-09
-2.74437e-22
4.70128e-09
5.70181e-22
4.10073e-09
-2.9521e-22
3.47787e-09
-3.06179e-22
2.83187e-09
5.09046e-25
2.16187e-09
5.27958e-25
1.46699e-09
6.8428e-22
7.46286e-10
-7.0857e-22
-3.67612e-22
1.03821e-08
3.06704e-25
9.99581e-09
-2.02396e-22
9.59548e-09
3.37762e-25
9.18046e-09
2.18737e-22
8.75005e-09
7.26276e-25
8.30367e-09
3.76623e-25
7.8407e-09
3.90612e-25
7.36054e-09
4.05119e-25
6.86254e-09
2.62517e-22
6.34605e-09
-2.71835e-22
5.81037e-09
-2.81484e-22
5.25479e-09
-2.92412e-22
4.67857e-09
3.04249e-22
4.08095e-09
5.04226e-25
3.46112e-09
5.22958e-25
2.81826e-09
-3.38354e-22
2.15152e-09
-3.50926e-22
1.46001e-09
-3.63966e-22
7.42811e-10
3.78699e-22
3.92294e-22
1.02426e-08
-3.23866e-25
9.86117e-09
-2.14683e-22
9.46625e-09
-2.22929e-22
9.05683e-09
-3.70156e-25
8.63223e-09
-2.39834e-22
8.19186e-09
-2.48348e-22
7.73514e-09
0
7.26145e-09
-2.67576e-22
6.77017e-09
-2.77074e-22
6.26064e-09
0
5.73219e-09
2.98525e-22
5.1841e-09
-6.19235e-22
4.61565e-09
-5.13946e-25
4.02608e-09
3.3252e-22
3.41461e-09
0
2.78042e-09
3.5769e-22
2.12267e-09
-5.94687e-25
1.44048e-09
0
7.32936e-10
3.9906e-22
-4.14691e-22
1.00327e-08
0
9.6588e-09
2.25142e-22
9.27199e-09
4.6791e-22
8.87099e-09
2.42862e-22
8.45512e-09
0
8.02379e-09
2.61247e-22
7.57645e-09
2.71388e-22
7.11249e-09
2.80572e-22
6.6313e-09
-5.81996e-22
6.13223e-09
0
5.61463e-09
0
5.07779e-09
-3.24136e-22
4.52101e-09
-6.73978e-22
3.94355e-09
-6.9902e-22
3.34463e-09
3.63367e-22
2.72346e-09
-3.75664e-22
2.07922e-09
3.89623e-22
1.41103e-09
0
7.18011e-10
6.71858e-25
-4.34814e-22
9.76823e-09
3.54469e-25
9.40393e-09
-4.70762e-22
9.02735e-09
-2.44176e-22
8.63695e-09
-5.06928e-22
8.23205e-09
0
7.81212e-09
0
7.37658e-09
0
6.92487e-09
0
6.45638e-09
3.04429e-22
5.97049e-09
-6.30471e-22
5.46655e-09
-3.27473e-22
4.94388e-09
3.40184e-22
4.4018e-09
5.63784e-25
3.83958e-09
5.84731e-25
3.25647e-09
0
2.65169e-09
3.93003e-22
2.02445e-09
-4.07606e-22
1.3739e-09
-4.22074e-22
6.99168e-10
-4.38457e-22
0
9.46251e-09
2.33299e-22
9.10933e-09
-2.44144e-22
8.74457e-09
2.54261e-22
8.36641e-09
4.22095e-25
7.97421e-09
0
7.56743e-09
2.8367e-22
7.14554e-09
0
6.70799e-09
9.76793e-25
6.25418e-09
5.06537e-25
5.78351e-09
6.56482e-22
5.29536e-09
-1.02022e-21
4.78907e-09
1.13022e-24
4.26397e-09
-7.31241e-22
3.71937e-09
-7.57802e-22
3.15453e-09
6.30466e-25
2.56871e-09
-4.07908e-22
1.96112e-09
4.24421e-22
1.33095e-09
8.78975e-22
6.77354e-10
7.2954e-25
4.72854e-22
9.12653e-09
-2.4115e-22
8.78562e-09
-2.53232e-22
8.43385e-09
4.21518e-25
8.06913e-09
0
7.69087e-09
5.66836e-22
7.29855e-09
4.70112e-25
6.89166e-09
-3.04139e-22
6.46966e-09
-3.1544e-22
6.03198e-09
3.27686e-22
5.57804e-09
0
5.10724e-09
-3.51362e-22
4.61894e-09
5.85119e-25
4.11251e-09
6.06858e-25
3.58726e-09
6.29404e-25
3.0425e-09
0
2.4775e-09
0
1.8915e-09
7.02197e-25
1.28373e-09
7.28288e-25
6.5336e-10
-4.71196e-22
0
8.76944e-09
2.49571e-22
8.44161e-09
0
8.10363e-09
-2.71218e-22
7.75321e-09
2.81279e-22
7.38976e-09
-2.91725e-22
7.01281e-09
6.06098e-22
6.62185e-09
5.03076e-25
6.21638e-09
5.21763e-25
5.79583e-09
3.38643e-22
5.35967e-09
0
4.90731e-09
-3.6253e-22
4.43814e-09
1.20744e-24
3.95154e-09
6.26149e-25
3.44686e-09
0
2.92343e-09
8.41672e-22
2.38055e-09
0
1.8175e-09
-4.51241e-22
1.23353e-09
7.51441e-25
6.27843e-10
-1.46008e-21
1.00945e-21
8.3988e-09
2.56284e-22
8.08458e-09
-2.68405e-22
7.76092e-09
0
7.42533e-09
-2.89337e-22
7.07725e-09
3.00561e-22
6.71625e-09
3.11728e-22
6.34183e-09
0
5.9535e-09
3.35861e-22
5.55075e-09
-3.47228e-22
5.13303e-09
-3.6013e-22
4.6998e-09
-7.47621e-22
4.25048e-09
0
3.78446e-09
0
3.30113e-09
4.1738e-22
2.79983e-09
6.92832e-25
2.27992e-09
8.97945e-22
1.74069e-09
4.64909e-22
1.18142e-09
4.82183e-22
6.01345e-10
-5.00096e-22
-1.03916e-21
8.02081e-09
8.26455e-25
7.72049e-09
-5.51672e-22
7.41144e-09
5.73375e-22
7.09096e-09
0
6.75857e-09
-6.15695e-22
6.41382e-09
-6.38569e-22
6.05626e-09
-6.62296e-22
5.68542e-09
0
5.30081e-09
0
4.90191e-09
1.47899e-21
4.48819e-09
-7.67586e-22
4.0591e-09
0
3.61407e-09
-8.25686e-22
3.15251e-09
0
2.67379e-09
0
2.17729e-09
9.21186e-22
1.66235e-09
1.9093e-21
1.12826e-09
0
5.74313e-10
1.02608e-21
1.70548e-24
7.63997e-09
-5.36862e-22
7.35423e-09
-5.65047e-22
7.05989e-09
-5.8591e-22
6.75462e-09
6.08553e-22
6.438e-09
0
6.10961e-09
0
5.76901e-09
0
5.41577e-09
-7.03015e-22
5.0494e-09
0
4.66942e-09
-7.57443e-22
4.27533e-09
7.85588e-22
3.8666e-09
0
3.44268e-09
8.45051e-22
3.00301e-09
-8.75047e-22
2.54701e-09
-9.09015e-22
2.07407e-09
-9.41282e-22
1.58355e-09
9.77822e-22
1.0748e-09
0
5.4713e-10
1.68356e-24
1.09099e-21
1.0675e-09
-1.14272e-22
2.13499e-09
-7.09086e-25
3.20248e-09
-2.28189e-22
4.26998e-09
-2.2819e-22
5.33749e-09
-3.5455e-25
6.40318e-09
1.13506e-22
7.4368e-09
-1.14685e-22
-2.06766e-25
8.14534e-09
1.22157e-09
0
2.44313e-09
0
3.66469e-09
-2.59309e-22
4.88626e-09
0
6.10784e-09
0
7.32705e-09
2.58395e-22
8.52324e-09
2.5859e-22
2.15559e-22
9.22861e-09
1.37564e-09
2.88275e-22
2.75127e-09
-8.99994e-25
4.12691e-09
-8.99993e-25
5.50254e-09
-8.99991e-25
6.87819e-09
0
8.25182e-09
0
9.60034e-09
-2.89059e-22
-2.39243e-22
1.03847e-08
1.52971e-09
3.19845e-22
3.05942e-09
-9.95448e-25
4.58912e-09
-9.95446e-25
6.11882e-09
-9.95444e-25
7.64852e-09
3.19848e-22
9.17708e-09
3.19812e-22
1.06722e-08
0
2.62561e-22
1.15399e-08
1.68378e-09
3.51606e-22
3.36756e-09
1.0909e-24
5.05133e-09
-3.51605e-22
6.7351e-09
0
8.41886e-09
-7.01037e-22
1.01024e-08
0
1.17452e-08
-3.47783e-22
0
1.26968e-08
1.83785e-09
0
3.6757e-09
-3.82371e-22
5.51355e-09
3.82371e-22
7.35139e-09
-7.63555e-22
9.18919e-09
-1.18632e-24
1.10275e-08
-3.82395e-22
1.28196e-08
7.54665e-22
-3.12462e-22
1.38558e-08
1.99192e-09
-1.28181e-24
3.98384e-09
0
5.97576e-09
-1.28181e-24
7.96767e-09
-4.13136e-22
9.95953e-09
-1.28177e-24
1.19525e-08
0
1.38956e-08
-4.09579e-22
-7.21701e-25
1.50174e-08
2.146e-09
4.42525e-22
4.29199e-09
4.42525e-22
6.43798e-09
-4.42524e-22
8.58395e-09
0
1.07299e-08
-4.42527e-22
1.28771e-08
-4.43952e-22
1.49735e-08
-4.37736e-22
7.23424e-22
1.6182e-08
2.30007e-09
0
4.60013e-09
-4.74668e-22
6.90019e-09
0
9.20024e-09
0
1.15002e-08
4.74667e-22
1.38015e-08
-4.73243e-22
1.60535e-08
-4.70217e-22
3.87215e-22
1.73502e-08
2.45414e-09
1.56817e-24
4.90827e-09
-1.56817e-24
7.3624e-09
5.05433e-22
9.81653e-09
1.51473e-21
1.22706e-08
-5.0386e-22
1.47255e-08
0
1.71358e-08
-5.00227e-22
0
1.85222e-08
2.60821e-09
0
5.21642e-09
1.06907e-21
7.82462e-09
-1.0724e-21
1.04328e-08
-3.32724e-24
1.30409e-08
1.07238e-21
1.56492e-08
1.06907e-21
1.82207e-08
2.1318e-21
8.8201e-22
1.96986e-08
2.76228e-09
-1.13393e-21
5.52456e-09
-1.13393e-21
8.28683e-09
-1.13393e-21
1.10491e-08
0
1.38113e-08
-1.1339e-21
1.65723e-08
1.13028e-21
1.93084e-08
-3.49324e-24
-2.00581e-24
2.08797e-08
2.91635e-09
-1.19546e-21
5.8327e-09
-7.41813e-24
8.74905e-09
1.19175e-21
1.16654e-08
1.19175e-21
1.45816e-08
1.19172e-21
1.74954e-08
-1.19892e-21
2.03994e-08
0
-9.98433e-22
2.20662e-08
3.07042e-09
-1.25699e-21
6.14084e-09
-1.25699e-21
9.21126e-09
0
1.22817e-08
1.25309e-21
1.5352e-08
-1.25696e-21
1.84188e-08
1.24883e-21
2.14771e-08
-3.87461e-24
-2.28072e-24
2.32546e-08
3.2245e-09
6.44899e-09
9.67347e-09
1.2898e-08
1.61224e-08
1.9343e-08
2.25328e-08
2.46432e-08
8.34269e-09
-1.76868e-09
8.46892e-09
-1.8332e-09
8.5806e-09
-1.88265e-09
8.68458e-09
-1.93035e-09
8.78142e-09
-1.97789e-09
8.87121e-09
-2.02539e-09
8.95397e-09
-2.07289e-09
9.0297e-09
-2.12039e-09
9.0984e-09
-2.16788e-09
9.16007e-09
-2.21538e-09
9.21471e-09
-2.26288e-09
9.26233e-09
-2.31037e-09
9.30292e-09
-2.35787e-09
9.33649e-09
-2.40537e-09
9.36302e-09
-2.45286e-09
9.38253e-09
-2.50036e-09
9.39501e-09
-2.54786e-09
9.40046e-09
-2.59535e-09
9.39889e-09
-2.64285e-09
9.39028e-09
-2.69035e-09
9.37465e-09
-2.73784e-09
9.35199e-09
-2.78534e-09
9.32231e-09
-2.83284e-09
9.2856e-09
-2.88033e-09
9.24186e-09
-2.92783e-09
9.19109e-09
-2.97533e-09
9.13329e-09
-3.02282e-09
9.06847e-09
-3.07032e-09
8.99662e-09
-3.11782e-09
8.91774e-09
-3.16531e-09
8.83183e-09
-3.21281e-09
8.7389e-09
-3.26031e-09
8.63894e-09
-3.3078e-09
8.53195e-09
-3.3553e-09
8.41793e-09
-3.4028e-09
8.29689e-09
-3.45029e-09
8.16882e-09
-3.49779e-09
8.03372e-09
-3.54529e-09
7.89159e-09
-3.59278e-09
7.74244e-09
-3.64028e-09
7.58626e-09
-3.68778e-09
7.42305e-09
-3.73527e-09
7.25281e-09
-3.78277e-09
7.07555e-09
-3.83027e-09
6.89126e-09
-3.87776e-09
6.69994e-09
-3.92526e-09
6.50159e-09
-3.97276e-09
6.29621e-09
-4.02025e-09
6.08352e-09
-4.06755e-09
-4.10113e-09
5.84453e-09
9.48231e-09
-1.85777e-09
9.58745e-09
-1.9171e-09
9.66806e-09
-1.9606e-09
9.7401e-09
-2.00192e-09
9.80525e-09
-2.04295e-09
9.86379e-09
-2.08391e-09
9.91577e-09
-2.12487e-09
9.96121e-09
-2.16582e-09
1.00001e-08
-2.20678e-09
1.00325e-08
-2.24773e-09
1.00583e-08
-2.28868e-09
1.00775e-08
-2.32964e-09
1.00903e-08
-2.37059e-09
1.00964e-08
-2.41155e-09
1.00961e-08
-2.4525e-09
1.00892e-08
-2.49345e-09
1.00757e-08
-2.53441e-09
1.00557e-08
-2.57536e-09
1.00292e-08
-2.61631e-09
9.99611e-09
-2.65727e-09
9.95649e-09
-2.69822e-09
9.91032e-09
-2.73918e-09
9.85762e-09
-2.78013e-09
9.79837e-09
-2.82108e-09
9.73257e-09
-2.86204e-09
9.66024e-09
-2.90299e-09
9.58136e-09
-2.94394e-09
9.49594e-09
-2.9849e-09
9.40397e-09
-3.02585e-09
9.30547e-09
-3.06681e-09
9.20042e-09
-3.10776e-09
9.08882e-09
-3.14871e-09
8.97069e-09
-3.18967e-09
8.84601e-09
-3.23062e-09
8.71479e-09
-3.27157e-09
8.57702e-09
-3.31253e-09
8.43272e-09
-3.35348e-09
8.28187e-09
-3.39444e-09
8.12447e-09
-3.43539e-09
7.96054e-09
-3.47634e-09
7.79006e-09
-3.5173e-09
7.61304e-09
-3.55825e-09
7.42947e-09
-3.5992e-09
7.23936e-09
-3.64016e-09
7.04271e-09
-3.68111e-09
6.83952e-09
-3.72207e-09
6.62978e-09
-3.76302e-09
6.41348e-09
-3.80397e-09
6.1899e-09
-3.84462e-09
-3.8721e-09
5.92053e-09
1.0628e-08
-1.91346e-09
1.07061e-08
-1.96797e-09
1.07555e-08
-2.00588e-09
1.07956e-08
-2.04127e-09
1.08291e-08
-2.07626e-09
1.08564e-08
-2.11117e-09
1.08776e-08
-2.14607e-09
1.08927e-08
-2.18097e-09
1.09018e-08
-2.21586e-09
1.09048e-08
-2.25076e-09
1.09018e-08
-2.28566e-09
1.08927e-08
-2.32055e-09
1.08776e-08
-2.35545e-09
1.08564e-08
-2.39034e-09
1.08291e-08
-2.42524e-09
1.07958e-08
-2.46013e-09
1.07564e-08
-2.49503e-09
1.0711e-08
-2.52992e-09
1.06595e-08
-2.56482e-09
1.06019e-08
-2.59971e-09
1.05383e-08
-2.63461e-09
1.04687e-08
-2.66951e-09
1.03929e-08
-2.7044e-09
1.03111e-08
-2.7393e-09
1.02233e-08
-2.77419e-09
1.01294e-08
-2.80909e-09
1.00294e-08
-2.84398e-09
9.92341e-09
-2.87888e-09
9.81133e-09
-2.91377e-09
9.6932e-09
-2.94867e-09
9.569e-09
-2.98357e-09
9.43875e-09
-3.01846e-09
9.30244e-09
-3.05336e-09
9.16007e-09
-3.08825e-09
9.01164e-09
-3.12315e-09
8.85716e-09
-3.15804e-09
8.69661e-09
-3.19294e-09
8.53001e-09
-3.22783e-09
8.35735e-09
-3.26273e-09
8.17863e-09
-3.29763e-09
7.99386e-09
-3.33252e-09
7.80302e-09
-3.36742e-09
7.60613e-09
-3.40231e-09
7.40318e-09
-3.43721e-09
7.19417e-09
-3.4721e-09
6.9791e-09
-3.507e-09
6.75797e-09
-3.54189e-09
6.53076e-09
-3.57678e-09
6.29642e-09
-3.61131e-09
-3.63347e-09
6.01612e-09
1.1774e-08
-1.93622e-09
1.18249e-08
-1.98585e-09
1.1843e-08
-2.01849e-09
1.18511e-08
-2.0484e-09
1.18529e-08
-2.07783e-09
1.1849e-08
-2.10717e-09
1.18394e-08
-2.1365e-09
1.18242e-08
-2.16582e-09
1.18035e-08
-2.19515e-09
1.17772e-08
-2.22447e-09
1.17454e-08
-2.25379e-09
1.17079e-08
-2.28311e-09
1.16649e-08
-2.31243e-09
1.16163e-08
-2.34175e-09
1.15622e-08
-2.37108e-09
1.15024e-08
-2.4004e-09
1.14371e-08
-2.42972e-09
1.13662e-08
-2.45904e-09
1.12898e-08
-2.48836e-09
1.12078e-08
-2.51769e-09
1.11202e-08
-2.54701e-09
1.1027e-08
-2.57633e-09
1.09282e-08
-2.60565e-09
1.08239e-08
-2.63497e-09
1.0714e-08
-2.6643e-09
1.05985e-08
-2.69362e-09
1.04775e-08
-2.72294e-09
1.03509e-08
-2.75226e-09
1.02187e-08
-2.78158e-09
1.00809e-08
-2.81091e-09
9.93759e-09
-2.84023e-09
9.78867e-09
-2.86955e-09
9.63419e-09
-2.89887e-09
9.47413e-09
-2.92819e-09
9.3085e-09
-2.95752e-09
9.13729e-09
-2.98684e-09
8.96051e-09
-3.01616e-09
8.77816e-09
-3.04548e-09
8.59023e-09
-3.0748e-09
8.39673e-09
-3.10412e-09
8.19766e-09
-3.13345e-09
7.99301e-09
-3.16277e-09
7.78279e-09
-3.19209e-09
7.56699e-09
-3.22141e-09
7.34562e-09
-3.25073e-09
7.11868e-09
-3.28006e-09
6.88617e-09
-3.30938e-09
6.64804e-09
-3.33869e-09
6.403e-09
-3.36761e-09
-3.385e-09
6.1121e-09
1.29209e-08
-1.92605e-09
1.29439e-08
-1.97074e-09
1.29305e-08
-1.99843e-09
1.29067e-08
-2.0233e-09
1.28767e-08
-2.04766e-09
1.28415e-08
-2.07191e-09
1.28012e-08
-2.09615e-09
1.27558e-08
-2.12039e-09
1.27052e-08
-2.14462e-09
1.26496e-08
-2.16885e-09
1.25889e-08
-2.19309e-09
1.25231e-08
-2.21732e-09
1.24522e-08
-2.24155e-09
1.23763e-08
-2.26578e-09
1.22952e-08
-2.29002e-09
1.22091e-08
-2.31425e-09
1.21178e-08
-2.33848e-09
1.20215e-08
-2.36272e-09
1.19201e-08
-2.38695e-09
1.18136e-08
-2.41118e-09
1.1702e-08
-2.43542e-09
1.15853e-08
-2.45965e-09
1.14635e-08
-2.48388e-09
1.13367e-08
-2.50811e-09
1.12047e-08
-2.53235e-09
1.10677e-08
-2.55658e-09
1.09256e-08
-2.58081e-09
1.07783e-08
-2.60505e-09
1.0626e-08
-2.62928e-09
1.04687e-08
-2.65351e-09
1.03062e-08
-2.67775e-09
1.01386e-08
-2.70198e-09
9.96594e-09
-2.72621e-09
9.78819e-09
-2.75044e-09
9.60535e-09
-2.77468e-09
9.41742e-09
-2.79891e-09
9.22441e-09
-2.82314e-09
9.0263e-09
-2.84738e-09
8.82311e-09
-2.87161e-09
8.61483e-09
-2.89584e-09
8.40146e-09
-2.92008e-09
8.183e-09
-2.94431e-09
7.95945e-09
-2.96854e-09
7.73081e-09
-2.99277e-09
7.49708e-09
-3.01701e-09
7.25826e-09
-3.04124e-09
7.01436e-09
-3.06547e-09
6.76532e-09
-3.08969e-09
6.50964e-09
-3.11351e-09
-3.12669e-09
6.20817e-09
1.40686e-08
-1.88293e-09
1.40631e-08
-1.92264e-09
1.4018e-08
-1.94571e-09
1.39622e-08
-1.96599e-09
1.39006e-08
-1.98574e-09
1.38341e-08
-2.0054e-09
1.3763e-08
-2.02503e-09
1.36873e-08
-2.04466e-09
1.36069e-08
-2.06429e-09
1.3522e-08
-2.08392e-09
1.34325e-08
-2.10354e-09
1.33383e-08
-2.12317e-09
1.32396e-08
-2.1428e-09
1.31362e-08
-2.16243e-09
1.30283e-08
-2.18206e-09
1.29157e-08
-2.20169e-09
1.27985e-08
-2.22132e-09
1.26768e-08
-2.24095e-09
1.25504e-08
-2.26057e-09
1.24194e-08
-2.2802e-09
1.22838e-08
-2.29983e-09
1.21436e-08
-2.31946e-09
1.19988e-08
-2.33909e-09
1.18494e-08
-2.35872e-09
1.16954e-08
-2.37835e-09
1.15368e-08
-2.39798e-09
1.13736e-08
-2.4176e-09
1.12058e-08
-2.43723e-09
1.10334e-08
-2.45686e-09
1.08564e-08
-2.47649e-09
1.06748e-08
-2.49612e-09
1.04885e-08
-2.51575e-09
1.02977e-08
-2.53538e-09
1.01022e-08
-2.55501e-09
9.9022e-09
-2.57463e-09
9.69756e-09
-2.59426e-09
9.48831e-09
-2.61389e-09
9.27445e-09
-2.63352e-09
9.05599e-09
-2.65315e-09
8.83292e-09
-2.67278e-09
8.60526e-09
-2.69241e-09
8.37298e-09
-2.71203e-09
8.1361e-09
-2.73166e-09
7.89462e-09
-2.75129e-09
7.64854e-09
-2.77092e-09
7.39785e-09
-2.79055e-09
7.14255e-09
-2.81018e-09
6.8826e-09
-2.8298e-09
6.61633e-09
-2.84902e-09
-2.85853e-09
6.30431e-09
1.52176e-08
-1.80682e-09
1.51826e-08
-1.84152e-09
1.51057e-08
-1.86033e-09
1.50178e-08
-1.87645e-09
1.49244e-08
-1.89208e-09
1.48267e-08
-1.90762e-09
1.47248e-08
-1.92313e-09
1.46188e-08
-1.93864e-09
1.45087e-08
-1.95415e-09
1.43944e-08
-1.96966e-09
1.4276e-08
-1.98517e-09
1.41535e-08
-2.00068e-09
1.40269e-08
-2.01618e-09
1.38962e-08
-2.03169e-09
1.37613e-08
-2.0472e-09
1.36223e-08
-2.06271e-09
1.34792e-08
-2.07822e-09
1.3332e-08
-2.09373e-09
1.31807e-08
-2.10924e-09
1.30252e-08
-2.12475e-09
1.28657e-08
-2.14026e-09
1.2702e-08
-2.15577e-09
1.25341e-08
-2.17128e-09
1.23622e-08
-2.18678e-09
1.21862e-08
-2.20229e-09
1.2006e-08
-2.2178e-09
1.18217e-08
-2.23331e-09
1.16333e-08
-2.24882e-09
1.14408e-08
-2.26433e-09
1.12441e-08
-2.27984e-09
1.10433e-08
-2.29535e-09
1.08384e-08
-2.31086e-09
1.06294e-08
-2.32637e-09
1.04163e-08
-2.34188e-09
1.01991e-08
-2.35739e-09
9.97769e-09
-2.37289e-09
9.7522e-09
-2.3884e-09
9.5226e-09
-2.40391e-09
9.28887e-09
-2.41942e-09
9.05102e-09
-2.43493e-09
8.80905e-09
-2.45044e-09
8.56297e-09
-2.46595e-09
8.31276e-09
-2.48146e-09
8.05844e-09
-2.49697e-09
7.79999e-09
-2.51248e-09
7.53743e-09
-2.52799e-09
7.27074e-09
-2.54349e-09
6.99988e-09
-2.55899e-09
6.72308e-09
-2.57413e-09
-2.58051e-09
6.40053e-09
1.63678e-08
-1.69767e-09
1.63025e-08
-1.72737e-09
1.61934e-08
-1.74226e-09
1.60733e-08
-1.7547e-09
1.59483e-08
-1.76668e-09
1.58193e-08
-1.77858e-09
1.56866e-08
-1.79045e-09
1.55503e-08
-1.80233e-09
1.54104e-08
-1.8142e-09
1.52668e-08
-1.82608e-09
1.51196e-08
-1.83795e-09
1.49687e-08
-1.84983e-09
1.48142e-08
-1.8617e-09
1.46561e-08
-1.87357e-09
1.44944e-08
-1.88545e-09
1.4329e-08
-1.89732e-09
1.41599e-08
-1.9092e-09
1.39873e-08
-1.92107e-09
1.3811e-08
-1.93294e-09
1.36311e-08
-1.94482e-09
1.34475e-08
-1.95669e-09
1.32603e-08
-1.96857e-09
1.30695e-08
-1.98044e-09
1.2875e-08
-1.99232e-09
1.26769e-08
-2.00419e-09
1.24751e-08
-2.01606e-09
1.22698e-08
-2.02794e-09
1.20608e-08
-2.03981e-09
1.18481e-08
-2.05169e-09
1.16318e-08
-2.06356e-09
1.14119e-08
-2.07543e-09
1.11884e-08
-2.08731e-09
1.09612e-08
-2.09918e-09
1.07304e-08
-2.11106e-09
1.04959e-08
-2.12293e-09
1.02578e-08
-2.13481e-09
1.00161e-08
-2.14668e-09
9.77074e-09
-2.15855e-09
9.52175e-09
-2.17043e-09
9.26912e-09
-2.1823e-09
9.01285e-09
-2.19418e-09
8.75296e-09
-2.20605e-09
8.48942e-09
-2.21792e-09
8.22225e-09
-2.2298e-09
7.95145e-09
-2.24167e-09
7.67701e-09
-2.25355e-09
7.39894e-09
-2.26542e-09
7.11717e-09
-2.27728e-09
6.8299e-09
-2.28883e-09
-2.29261e-09
6.49684e-09
1.75197e-08
-1.55541e-09
1.74229e-08
-1.58015e-09
1.72812e-08
-1.59151e-09
1.71289e-08
-1.60072e-09
1.69721e-08
-1.60953e-09
1.68119e-08
-1.61827e-09
1.66484e-08
-1.627e-09
1.64818e-08
-1.63573e-09
1.63121e-08
-1.64445e-09
1.61392e-08
-1.65317e-09
1.59631e-08
-1.6619e-09
1.57839e-08
-1.67062e-09
1.56016e-08
-1.67935e-09
1.54161e-08
-1.68807e-09
1.52274e-08
-1.69679e-09
1.50356e-08
-1.70552e-09
1.48406e-08
-1.71424e-09
1.46425e-08
-1.72297e-09
1.44413e-08
-1.73169e-09
1.42369e-08
-1.74041e-09
1.40293e-08
-1.74914e-09
1.38186e-08
-1.75786e-09
1.36048e-08
-1.76658e-09
1.33878e-08
-1.77531e-09
1.31676e-08
-1.78403e-09
1.29443e-08
-1.79276e-09
1.27178e-08
-1.80148e-09
1.24882e-08
-1.8102e-09
1.22555e-08
-1.81893e-09
1.20196e-08
-1.82765e-09
1.17805e-08
-1.83638e-09
1.15383e-08
-1.8451e-09
1.12929e-08
-1.85382e-09
1.10444e-08
-1.86255e-09
1.07928e-08
-1.87127e-09
1.0538e-08
-1.88e-09
1.028e-08
-1.88872e-09
1.00189e-08
-1.89744e-09
9.75463e-09
-1.90617e-09
9.48722e-09
-1.91489e-09
9.21665e-09
-1.92361e-09
8.94294e-09
-1.93234e-09
8.66608e-09
-1.94106e-09
8.38607e-09
-1.94979e-09
8.10291e-09
-1.95851e-09
7.81659e-09
-1.96723e-09
7.52713e-09
-1.97596e-09
7.23446e-09
-1.98467e-09
6.93677e-09
-1.99312e-09
-1.99483e-09
6.59323e-09
1.86732e-08
-1.37994e-09
1.85437e-08
-1.39984e-09
1.83691e-08
-1.40807e-09
1.81845e-08
-1.41451e-09
1.79959e-08
-1.42064e-09
1.78044e-08
-1.42671e-09
1.76102e-08
-1.43277e-09
1.74133e-08
-1.43883e-09
1.72138e-08
-1.44489e-09
1.70116e-08
-1.45095e-09
1.68067e-08
-1.45701e-09
1.65991e-08
-1.46307e-09
1.63889e-08
-1.46912e-09
1.6176e-08
-1.47518e-09
1.59605e-08
-1.48124e-09
1.57422e-08
-1.4873e-09
1.55214e-08
-1.49336e-09
1.52978e-08
-1.49942e-09
1.50716e-08
-1.50547e-09
1.48427e-08
-1.51153e-09
1.46112e-08
-1.51759e-09
1.43769e-08
-1.52365e-09
1.41401e-08
-1.52971e-09
1.39005e-08
-1.53577e-09
1.36583e-08
-1.54182e-09
1.34134e-08
-1.54788e-09
1.31659e-08
-1.55394e-09
1.29157e-08
-1.56e-09
1.26628e-08
-1.56606e-09
1.24073e-08
-1.57212e-09
1.21491e-08
-1.57817e-09
1.18882e-08
-1.58423e-09
1.16247e-08
-1.59029e-09
1.13585e-08
-1.59635e-09
1.10896e-08
-1.60241e-09
1.08181e-08
-1.60846e-09
1.05439e-08
-1.61452e-09
1.0267e-08
-1.62058e-09
9.98751e-09
-1.62664e-09
9.70531e-09
-1.6327e-09
9.42045e-09
-1.63876e-09
9.13293e-09
-1.64481e-09
8.84274e-09
-1.65087e-09
8.54988e-09
-1.65693e-09
8.25436e-09
-1.66299e-09
7.95617e-09
-1.66905e-09
7.65532e-09
-1.67511e-09
7.35175e-09
-1.68116e-09
7.04372e-09
-1.687e-09
-1.68716e-09
6.68971e-09
1.98287e-08
-1.17116e-09
1.9665e-08
-1.18638e-09
1.94571e-08
-1.19192e-09
1.92401e-08
-1.19608e-09
1.90198e-08
-1.20001e-09
1.8797e-08
-1.20389e-09
1.8572e-08
-1.20777e-09
1.83449e-08
-1.21165e-09
1.81155e-08
-1.21553e-09
1.78839e-08
-1.2194e-09
1.76502e-08
-1.22328e-09
1.74143e-08
-1.22716e-09
1.71762e-08
-1.23104e-09
1.6936e-08
-1.23491e-09
1.66935e-08
-1.23879e-09
1.64489e-08
-1.24267e-09
1.62021e-08
-1.24654e-09
1.59531e-08
-1.25042e-09
1.57019e-08
-1.2543e-09
1.54485e-08
-1.25818e-09
1.5193e-08
-1.26205e-09
1.49353e-08
-1.26593e-09
1.46754e-08
-1.26981e-09
1.44133e-08
-1.27369e-09
1.4149e-08
-1.27756e-09
1.38826e-08
-1.28144e-09
1.3614e-08
-1.28532e-09
1.33432e-08
-1.2892e-09
1.30702e-08
-1.29307e-09
1.2795e-08
-1.29695e-09
1.25177e-08
-1.30083e-09
1.22381e-08
-1.3047e-09
1.19564e-08
-1.30858e-09
1.16725e-08
-1.31246e-09
1.13865e-08
-1.31634e-09
1.10982e-08
-1.32021e-09
1.08078e-08
-1.32409e-09
1.05152e-08
-1.32797e-09
1.02204e-08
-1.33184e-09
9.92341e-09
-1.33572e-09
9.62425e-09
-1.3396e-09
9.32292e-09
-1.34348e-09
9.0194e-09
-1.34735e-09
8.7137e-09
-1.35123e-09
8.40582e-09
-1.35511e-09
8.09576e-09
-1.35899e-09
7.78351e-09
-1.36286e-09
7.46904e-09
-1.36674e-09
7.15073e-09
-1.37045e-09
-1.36958e-09
6.78629e-09
2.09863e-08
-9.28924e-10
2.07868e-08
-9.39729e-10
2.05452e-08
-9.43056e-10
2.02958e-08
-9.45411e-10
2.00437e-08
-9.47624e-10
1.97896e-08
-9.49811e-10
1.95338e-08
-9.51993e-10
1.92764e-08
-9.54174e-10
1.90172e-08
-9.56355e-10
1.87563e-08
-9.58536e-10
1.84938e-08
-9.60717e-10
1.82295e-08
-9.62898e-10
1.79636e-08
-9.65079e-10
1.76959e-08
-9.6726e-10
1.74265e-08
-9.69441e-10
1.71555e-08
-9.71622e-10
1.68828e-08
-9.73803e-10
1.66083e-08
-9.75984e-10
1.63322e-08
-9.78165e-10
1.60544e-08
-9.80346e-10
1.57748e-08
-9.82527e-10
1.54936e-08
-9.84707e-10
1.52107e-08
-9.86888e-10
1.49261e-08
-9.89069e-10
1.46398e-08
-9.9125e-10
1.43517e-08
-9.93431e-10
1.4062e-08
-9.95612e-10
1.37706e-08
-9.97793e-10
1.34775e-08
-9.99974e-10
1.31827e-08
-1.00216e-09
1.28863e-08
-1.00434e-09
1.25881e-08
-1.00652e-09
1.22882e-08
-1.0087e-09
1.19866e-08
-1.01088e-09
1.16833e-08
-1.01306e-09
1.13784e-08
-1.01524e-09
1.10717e-08
-1.01742e-09
1.07633e-08
-1.0196e-09
1.04533e-08
-1.02178e-09
1.01415e-08
-1.02396e-09
9.82805e-09
-1.02615e-09
9.5129e-09
-1.02833e-09
9.19606e-09
-1.03051e-09
8.87751e-09
-1.03269e-09
8.55727e-09
-1.03487e-09
8.23534e-09
-1.03705e-09
7.91171e-09
-1.03923e-09
7.58634e-09
-1.04141e-09
7.25781e-09
-1.04349e-09
-1.04209e-09
6.88296e-09
2.21462e-08
-6.53103e-10
2.19092e-08
-6.59825e-10
2.16333e-08
-6.61457e-10
2.13515e-08
-6.62511e-10
2.10675e-08
-6.63496e-10
2.07822e-08
-6.64468e-10
2.04957e-08
-6.65438e-10
2.02079e-08
-6.66407e-10
1.99189e-08
-6.67377e-10
1.96287e-08
-6.68346e-10
1.93373e-08
-6.69315e-10
1.90447e-08
-6.70285e-10
1.87509e-08
-6.71254e-10
1.84558e-08
-6.72223e-10
1.81596e-08
-6.73193e-10
1.78621e-08
-6.74162e-10
1.75635e-08
-6.75131e-10
1.72636e-08
-6.76101e-10
1.69625e-08
-6.7707e-10
1.66602e-08
-6.78039e-10
1.63567e-08
-6.79008e-10
1.60519e-08
-6.79978e-10
1.5746e-08
-6.80947e-10
1.54388e-08
-6.81916e-10
1.51305e-08
-6.82886e-10
1.48209e-08
-6.83855e-10
1.45101e-08
-6.84824e-10
1.41981e-08
-6.85794e-10
1.38849e-08
-6.86763e-10
1.35705e-08
-6.87732e-10
1.32548e-08
-6.88701e-10