/*--------------------------------*- C++ -*----------------------------------*\
  =========                 |
  \\      /  F ield         | OpenFOAM: The Open Source CFD Toolbox
   \\    /   O peration     | Website:  https://openfoam.org
    \\  /    A nd           | Version:  13
     \\/     M anipulation  |
\*---------------------------------------------------------------------------*/
FoamFile
{
    format      ascii;
    class       volScalarField;
    location    "0.0009";
    object      p;
}
// * * * * * * * * * * * * * * * * * * * * * * * * * * * * * * * * * * * * * //

dimensions      [0 2 -2 0 0 0 0];

internalField   nonuniform List<scalar> 
1690
(
-0.00545687
0.0442992
0.0908626
0.131316
0.151526
0.127748
0.0695937
0.0203214
-0.00514524
0.0447233
0.0914822
0.132211
0.152421
0.128352
0.0692055
0.0190861
-0.00476399
0.0446124
0.0909724
0.131448
0.151372
0.126615
0.0663756
0.0162388
-0.00418108
0.0444602
0.090244
0.130369
0.149927
0.124082
0.0620425
0.0117247
-0.00342497
0.0442497
0.0892736
0.128915
0.147929
0.120537
0.0560386
0.00548415
-0.00253435
0.04393
0.0879802
0.126948
0.145126
0.115647
0.0480986
-0.00265299
-0.00154749
0.0434607
0.0862991
0.12436
0.141287
0.109108
0.0380135
-0.0128726
-0.000505327
0.0428021
0.0841719
0.121022
0.136252
0.100717
0.0258041
-0.0251922
0.000549042
0.0419146
0.0815481
0.116787
0.129975
0.0905859
0.0119239
-0.0392268
0.00157279
0.0407679
0.0783856
0.111555
0.12247
0.0793584
-0.00275222
-0.0539834
0.00252414
0.0393505
0.0746706
0.105307
0.113802
0.0681226
-0.017072
-0.0680707
0.00336773
0.0376693
0.070436
0.0981512
0.104216
0.0578424
-0.0291199
-0.0807079
0.00407847
0.0357476
0.0657534
0.0902872
0.0940509
0.0487915
-0.0367848
-0.0911766
0.00464208
0.0336098
0.0606849
0.0818805
0.0834446
0.0402179
-0.042035
-0.111391
0.00505278
0.0312755
0.0552824
0.0730915
0.0724633
0.0306803
-0.049928
-0.138598
4.58708
4.58199
4.57264
4.55825
4.5385
4.51364
4.48439
4.45168
4.41661
4.38038
4.34416
4.30909
4.27613
4.24608
4.21956
4.19701
4.17877
4.16503
4.1561
4.1525
4.58086
4.57573
4.56609
4.55157
4.5316
4.50657
4.4772
4.44444
4.40944
4.37339
4.33748
4.30281
4.27033
4.24079
4.21479
4.19274
4.17493
4.16154
4.15287
4.1494
4.57081
4.56556
4.55581
4.54099
4.52065
4.49522
4.46549
4.43252
4.3975
4.36164
4.32615
4.29209
4.26037
4.23168
4.20656
4.18534
4.16827
4.15548
4.14721
4.14392
4.55552
4.55008
4.54012
4.52488
4.50406
4.47813
4.44803
4.41492
4.38005
4.34467
4.30995
4.27693
4.24643
4.21906
4.19525
4.17527
4.15928
4.14734
4.13966
4.13662
4.53517
4.52953
4.51935
4.50366
4.48234
4.45594
4.42558
4.39252
4.35808
4.32352
4.29
4.25846
4.22961
4.20398
4.18186
4.16345
4.14879
4.13792
4.13094
4.12822
4.50948
4.50366
4.49332
4.47723
4.4555
4.42877
4.3984
4.36572
4.33212
4.29887
4.26703
4.23745
4.21071
4.18721
4.16713
4.15055
4.13746
4.1278
4.12164
4.11925
4.4777
4.47181
4.46142
4.44511
4.4232
4.39647
4.36652
4.33475
4.30258
4.27122
4.24164
4.21454
4.19038
4.16939
4.15165
4.13715
4.12578
4.11745
4.11216
4.11015
4.43881
4.43304
4.42284
4.40667
4.38501
4.35886
4.32999
4.29986
4.26986
4.24111
4.21443
4.19036
4.16921
4.15108
4.13593
4.12367
4.11415
4.10722
4.10285
4.10121
4.39143
4.38608
4.37654
4.36112
4.34047
4.31576
4.28891
4.26136
4.23443
4.20909
4.18597
4.16547
4.14773
4.13274
4.12038
4.11048
4.10287
4.09738
4.09394
4.09268
4.33363
4.32928
4.32121
4.30757
4.28907
4.26706
4.24347
4.21966
4.19682
4.17572
4.15684
4.14039
4.1264
4.11476
4.10531
4.09784
4.09217
4.08811
4.0856
4.08469
4.2628
4.26044
4.25522
4.24501
4.23038
4.21275
4.19397
4.17525
4.1576
4.1416
4.12757
4.11559
4.1056
4.09747
4.09098
4.08595
4.08218
4.07952
4.0779
4.07734
4.1753
4.17668
4.17665
4.17238
4.16405
4.15301
4.14089
4.12875
4.11741
4.10731
4.09866
4.09148
4.08567
4.08109
4.07756
4.07491
4.07299
4.07168
4.07091
4.07067
4.0659
4.07425
4.08328
4.08875
4.09
4.08825
4.08489
4.08088
4.07693
4.07344
4.07058
4.06841
4.06685
4.06581
4.06517
4.06481
4.06465
4.06461
4.06464
4.06469
3.92683
3.94841
3.97269
3.99338
4.00844
4.01917
4.0268
4.03243
4.03682
4.04049
4.04372
4.04665
4.04932
4.05173
4.05386
4.05568
4.05716
4.05829
4.05906
4.05938
3.74601
3.79345
3.84242
3.88605
3.92004
3.9468
3.9676
3.98423
3.99774
4.00895
4.01839
4.0264
4.03319
4.0389
4.04365
4.04749
4.0505
4.05271
4.05415
4.05471
3.50387
3.60325
3.6902
3.76727
3.82599
3.87242
3.90837
3.93711
3.96026
3.97919
3.99482
4.00778
4.01852
4.02735
4.03453
4.04023
4.04462
4.04781
4.04986
4.05063
3.16669
3.37238
3.51426
3.63858
3.72799
3.79747
3.85031
3.89185
3.92486
3.9515
3.97317
3.99087
4.00532
4.01704
4.02644
4.03385
4.03948
4.04354
4.04614
4.0471
2.67799
3.09804
3.31416
3.50251
3.62853
3.72374
3.79441
3.84909
3.89192
3.92607
3.95351
3.97566
3.99355
4.00792
4.01934
4.02827
4.03502
4.03985
4.04292
4.04405
1.93347
2.77466
3.09346
3.36305
3.53016
3.65282
3.74163
3.80934
3.8617
3.903
3.93585
3.96212
3.98316
3.99992
4.01315
4.02343
4.03117
4.03668
4.04017
4.04144
0.818922
2.39684
2.86623
3.22608
3.43592
3.58617
3.69273
3.77295
3.83433
3.8823
3.92014
3.95018
3.97405
3.99295
4.0078
4.01926
4.02786
4.03396
4.03783
4.03921
0.00551111
0.0271237
0.0460577
0.0586198
0.0548074
0.0150803
-0.0596516
-0.117542
0.00553099
0.0211463
0.0340396
0.0409226
0.0348731
0.00318051
-0.0527079
-0.0867658
0.00506333
0.0152193
0.0230251
0.0253497
0.017532
-0.00764498
-0.0487479
-0.0745963
0.00437355
0.00963541
0.0133374
0.0121895
0.00320607
-0.0178573
-0.0477732
-0.0709882
0.00376061
0.00457603
0.00497545
0.00117925
-0.00875073
-0.0270943
-0.0506763
-0.0718639
0.00220627
7.93074e-05
-0.00223585
-0.00810969
-0.0187831
-0.0353342
-0.0555838
-0.0751278
-0.00013762
-0.00382781
-0.00846667
-0.0159683
-0.0272567
-0.0428343
-0.0614085
-0.0799385
-0.00181524
-0.00716308
-0.0137181
-0.0225641
-0.0344258
-0.0496002
-0.0674103
-0.0854558
-0.00312565
-0.00999802
-0.0180968
-0.0280812
-0.0405201
-0.0556675
-0.0732653
-0.0912442
-0.00416487
-0.0123445
-0.02171
-0.0326638
-0.0456789
-0.0610235
-0.078735
-0.0969326
-0.0049757
-0.0142512
-0.024652
-0.0364287
-0.0500033
-0.0656676
-0.0836769
-0.102283
-0.00559339
-0.0157654
-0.026999
-0.0394621
-0.0535626
-0.0696126
-0.0879994
-0.107088
-0.00604463
-0.0169223
-0.0288074
-0.0418287
-0.0564178
-0.0729112
-0.0916662
-0.111115
-0.00635264
-0.0177276
-0.0300795
-0.0434859
-0.0584112
-0.075263
-0.0941811
-0.113515
-0.00655518
-0.0181908
-0.0308825
-0.0445425
-0.059733
-0.0771964
-0.0968354
-0.115855
-0.154851
-0.148021
-0.143376
-0.143131
-0.145319
-0.149311
-0.154785
-0.161522
-0.169371
-0.178226
-0.18801
-0.198667
-0.210148
-0.222414
-0.235417
-0.249104
-0.263394
-0.27816
-0.293197
-0.308188
-0.322687
-0.336151
-0.348068
-0.358231
-0.367189
-0.37686
-0.391286
-0.417258
-0.464944
-0.550165
-0.693265
-0.918236
-1.24839
-1.70042
-2.27292
-2.9336
-3.61354
-4.22068
-4.675
-4.93406
-5.00365
-4.93343
-4.80417
-4.6892
-4.63683
-4.66883
-4.79202
-5.01968
-5.29905
-8.0478
-0.119502
-0.127108
-0.130745
-0.134947
-0.140151
-0.146337
-0.153447
-0.161444
-0.170295
-0.179973
-0.190453
-0.201708
-0.213714
-0.226443
-0.23986
-0.253916
-0.268533
-0.283569
-0.298779
-0.313769
-0.327981
-0.340758
-0.351552
-0.36033
-0.368136
-0.377713
-0.39422
-0.425745
-0.482681
-0.584136
-0.751735
-1.01256
-1.3919
-1.90275
-2.53417
-3.24048
-3.93796
-4.52308
-4.91165
-5.07072
-5.04094
-4.90012
-4.74235
-4.63663
-4.612
-4.674
-4.81774
-5.01732
-5.39099
-6.84148
-0.100589
-0.11201
-0.120012
-0.127321
-0.134738
-0.142549
-0.150901
-0.159874
-0.169511
-0.179835
-0.190855
-0.20257
-0.214976
-0.228064
-0.241813
-0.256179
-0.271077
-0.286339
-0.301674
-0.316636
-0.330647
-0.343117
-0.353691
-0.362593
-0.371097
-0.382164
-0.40164
-0.439478
-0.503607
-0.624185
-0.820645
-1.12369
-1.55866
-2.1341
-2.82757
-3.57836
-4.28689
-4.84165
-5.16122
-5.22353
-5.10051
-4.86996
-4.6672
-4.5629
-4.56916
-4.66743
-4.82665
-5.01456
-5.34085
-5.55129
-0.0921519
-0.104459
-0.113942
-0.12277
-0.131582
-0.140612
-0.150003
-0.159845
-0.170204
-0.181124
-0.192641
-0.204783
-0.217563
-0.230982
-0.245027
-0.259658
-0.274791
-0.29027
-0.305843
-0.321141
-0.335709
-0.349109
-0.361104
-0.371952
-0.383011
-0.3976
-0.422063
-0.466802
-0.547292
-0.688667
-0.915492
-1.26278
-1.75263
-2.39187
-3.14417
-3.93308
-4.64525
-5.16332
-5.41471
-5.40221
-5.16021
-4.84118
-4.59089
-4.48436
-4.52276
-4.65276
-4.8093
-4.96896
-5.09473
-4.38817
-0.0904545
-0.102831
-0.112834
-0.122338
-0.131854
-0.141567
-0.151594
-0.162019
-0.172909
-0.184316
-0.196281
-0.208835
-0.222001
-0.235788
-0.250197
-0.265208
-0.280774
-0.296794
-0.313097
-0.329429
-0.345487
-0.360995
-0.375864
-0.39055
-0.40665
-0.42783
-0.460993
-0.517508
-0.614869
-0.777594
-1.03451
-1.41709
-1.94625
-2.63189
-3.41633
-4.21974
-4.91696
-5.38851
-5.57166
-5.47676
-5.17111
-4.80077
-4.52881
-4.42644
-4.48944
-4.62635
-4.75167
-4.79319
-4.59468
-3.33399
-0.092226
-0.104449
-0.114637
-0.124494
-0.134453
-0.144656
-0.155194
-0.166136
-0.177541
-0.189461
-0.201941
-0.215021
-0.228731
-0.243101
-0.258153
-0.273898
-0.290329
-0.307405
-0.325043
-0.343133
-0.361581
-0.380401
-0.399877
-0.42087
-0.445353
-0.477266
-0.523561
-0.595534
-0.71028
-0.891215
-1.16675
-1.56626
-2.11018
-2.79682
-3.57785
-4.36328
-5.02775
-5.45519
-5.59066
-5.45708
-5.13437
-4.75539
-4.49487
-4.41577
-4.47032
-4.55798
-4.57257
-4.43154
-3.90217
-2.41141
-0.0962263
-0.108362
-0.118655
-0.128738
-0.139015
-0.149608
-0.160592
-0.172027
-0.18397
-0.196474
-0.20959
-0.223367
-0.237855
-0.253102
-0.269158
-0.286068
-0.30387
-0.322593
-0.342281
-0.363047
-0.385159
-0.409171
-0.436064
-0.467341
-0.505196
-0.553236
-0.617485
-0.707434
-0.837603
-1.02839
-1.30514
-1.69398
-2.21317
-2.8594
-3.59136
-4.32508
-4.94479
-5.34246
-5.46573
-5.33942
-5.04497
-4.71236
-4.47844
-4.39035
-4.39288
-4.3769
-4.24171
-3.91459
-3.16825
-1.69854
-0.101323
-0.113436
-0.123835
-0.134138
-0.144725
-0.155711
-0.167163
-0.179139
-0.191698
-0.2049
-0.218809
-0.23349
-0.249017
-0.265468
-0.28293
-0.301497
-0.32128
-0.342441
-0.365227
-0.390104
-0.417897
-0.449933
-0.488056
-0.534436
-0.591256
-0.661013
-0.74722
-0.855903
-0.997026
-1.18617
-1.44423
-1.79384
-2.25169
-2.81677
-3.45767
-4.10625
-4.66641
-5.04461
-5.18849
-5.11099
-4.88482
-4.6177
-4.41155
-4.2944
-4.21314
-4.07596
-3.80966
-3.35346
-2.52245
-1.20473
-0.106982
-0.119156
-0.129694
-0.140236
-0.15115
-0.162548
-0.174497
-0.18706
-0.200303
-0.2143
-0.229133
-0.244893
-0.261685
-0.279629
-0.298868
-0.31958
-0.341998
-0.366483
-0.393574
-0.424267
-0.460052
-0.503174
-0.556306
-0.622013
-0.701977
-0.797387
-0.907691
-1.03379
-1.17999
-1.35611
-1.57856
-1.86736
-2.23912
-2.69687
-3.21973
-3.75765
-4.23798
-4.5872
-4.75819
-4.7496
-4.61099
-4.41681
-4.24053
-4.09762
-3.94581
-3.72001
-3.37227
-2.84923
-2.01525
-0.875563
-0.112738
-0.125032
-0.135737
-0.146542
-0.157804
-0.169634
-0.182104
-0.195284
-0.209254
-0.224105
-0.239941
-0.256885
-0.275083
-0.294711
-0.315991
-0.33921
-0.364742
-0.393216
-0.425554
-0.463231
-0.508553
-0.564513
-0.634507
-0.721475
-0.826556
-0.947117
-1.07995
-1.22034
-1.36619
-1.52177
-1.69972
-1.91885
-2.19743
-2.54379
-2.94708
-3.37297
-3.76881
-4.07947
-4.26587
-4.31662
-4.25545
-4.13634
-3.99857
-3.84913
-3.65841
-3.38442
-2.99531
-2.44409
-1.63984
-0.651663
-0.118278
-0.130725
-0.141611
-0.152692
-0.164308
-0.176568
-0.189552
-0.20334
-0.218026
-0.23372
-0.250552
-0.268676
-0.28828
-0.309606
-0.332941
-0.358704
-0.387452
-0.419972
-0.457586
-0.502247
-0.556797
-0.624871
-0.710278
-0.815731
-0.94129
-1.08299
-1.23265
-1.38215
-1.52399
-1.65806
-1.79418
-1.95012
-2.14573
-2.3946
-2.69544
-3.02738
-3.35299
-3.62962
-3.82316
-3.91743
-3.92004
-3.85984
-3.75736
-3.61253
-3.40438
-3.10644
-2.6965
-2.13584
-1.36917
-0.493775
-0.123299
-0.135905
-0.146975
-0.158332
-0.170288
-0.182952
-0.196407
-0.210747
-0.226077
-0.242521
-0.260232
-0.279392
-0.300212
-0.323023
-0.348153
-0.376079
-0.407507
-0.443438
-0.485379
-0.535543
-0.597038
-0.673713
-0.769422
-0.886515
-1.02396
-1.1762
-1.3338
-1.48508
-1.62131
-1.73994
-1.84856
-1.96282
-2.10109
-2.27842
-2.50028
-2.75775
-3.02719
-3.27616
-3.47336
-3.59844
-3.64771
-3.63047
-3.55496
-3.41719
-3.20144
-2.89072
-2.46895
-1.90757
-1.17704
-0.380425
-0.127535
-0.140341
-0.151615
-0.163232
-0.175482
-0.188474
-0.202304
-0.217076
-0.232902
-0.249931
-0.268308
-0.288248
-0.310015
-0.333875
-0.360279
-0.389764
-0.423087
-0.461334
-0.506088
-0.559603
-0.624903
-0.705568
-0.805008
-0.925072
-1.06425
-1.21653
-1.37236
-1.52054
-1.65211
-1.76484
-1.86531
-1.96601
-2.08083
-2.22096
-2.39277
-2.59492
-2.81581
-3.03435
-3.2251
-3.36618
-3.44501
-3.45712
-3.40089
-3.26976
-3.05061
-2.73273
-2.30367
-1.7455
-1.04679
-0.30336
-0.130451
-0.143654
-0.155163
-0.167015
-0.179471
-0.192681
-0.206749
-0.221781
-0.237905
-0.255255
-0.274024
-0.29442
-0.316708
-0.341218
-0.368387
-0.3988
-0.433255
-0.472855
-0.519135
-0.574212
-0.640789
-0.721932
-0.820411
-0.937578
-1.07194
-1.21842
-1.3685
-1.512
-1.64302
-1.75969
-1.86727
-1.97418
-2.09023
-2.22325
-2.37779
-2.55362
-2.74377
-2.93449
-3.1076
-3.2447
-3.33081
-3.35506
-3.30826
-3.1801
-2.95833
-2.63644
-2.20213
-1.64741
-0.973894
-0.260396
-0.134129
-0.146759
-0.157648
-0.169282
-0.181667
-0.194874
-0.20897
-0.224053
-0.240244
-0.257689
-0.276569
-0.297102
-0.319561
-0.344291
-0.371732
-0.402499
-0.437418
-0.477559
-0.524364
-0.579781
-0.646228
-0.726373
-0.822579
-0.935971
-1.06539
-1.20675
-1.35311
-1.4974
-1.63122
-1.75483
-1.87177
-1.98906
-2.11577
-2.2583
-2.41882
-2.59486
-2.77794
-2.95585
-3.11403
-3.23783
-3.31424
-3.332
-3.28044
-3.14896
-2.9269
-2.59858
-2.15832
-1.60153
-0.936203
-0.216312
-0.596579
1.95715
2.66902
3.11125
3.35839
3.53166
3.65302
3.74363
3.81245
3.86588
3.90777
3.94084
3.96697
3.98757
4.00368
4.01607
4.02534
4.0319
4.03605
4.03753
-0.880006
1.63153
2.52013
3.01655
3.29524
3.48686
3.62052
3.7197
3.79469
3.85262
3.89783
3.93337
3.96134
3.9833
4.00042
4.01356
4.02337
4.03028
4.03466
4.03621
-0.581534
1.44793
2.40193
2.92752
3.23491
3.44351
3.58915
3.69668
3.77768
3.84
3.88843
3.92633
3.95605
3.97932
3.99739
4.01124
4.02154
4.0288
4.03338
4.035
-0.248227
1.35885
2.31222
2.8479
3.17861
3.40232
3.55928
3.67479
3.76158
3.8281
3.8796
3.91976
3.95115
3.97563
3.99461
4.0091
4.01987
4.02744
4.03222
4.0339
-0.0342802
1.31032
2.24131
2.77856
3.12706
3.36384
3.53123
3.65424
3.74652
3.81701
3.87142
3.91371
3.94664
3.97227
3.99207
4.00716
4.01835
4.02621
4.03117
4.03291
0.1097
1.28614
2.18258
2.71873
3.08043
3.32842
3.50524
3.63518
3.73259
3.80681
3.86393
3.90819
3.94256
3.96923
3.98978
4.00542
4.017
4.02512
4.03023
4.03202
0.215134
1.28045
2.13389
2.66753
3.03873
3.29628
3.4815
3.61777
3.71991
3.79757
3.85718
3.90324
3.93892
3.96653
3.98777
4.00389
4.01582
4.02416
4.02942
4.03126
0.290166
1.28506
2.09419
2.6242
3.00195
3.2676
3.46018
3.60216
3.70857
3.78935
3.85122
3.89889
3.93574
3.96418
3.98602
4.00258
4.0148
4.02335
4.02872
4.0306
0.345957
1.29343
2.06215
2.58796
2.9701
3.24253
3.44147
3.58847
3.69868
3.78222
3.84608
3.89518
3.93303
3.9622
3.98456
4.00148
4.01396
4.02267
4.02815
4.03006
0.392507
1.3026
2.03649
2.55812
2.94316
3.22119
3.42551
3.57685
3.69034
3.77626
3.84182
3.89212
3.93083
3.9606
3.98338
4.0006
4.01328
4.02214
4.02769
4.02964
0.433183
1.31129
2.01632
2.53421
2.92118
3.20374
3.41249
3.56745
3.68366
3.77154
3.83848
3.88975
3.92914
3.95938
3.98249
3.99994
4.01279
4.02174
4.02736
4.02933
0.467084
1.3187
2.00121
2.51606
2.90434
3.19045
3.40268
3.56046
3.67878
3.76815
3.83613
3.88811
3.92799
3.95857
3.98191
3.99952
4.01247
4.02149
4.02715
4.02914
0.492737
1.32507
1.99164
2.50425
2.89336
3.18195
3.39656
3.55624
3.67593
3.76624
3.83485
3.88726
3.92741
3.95818
3.98164
3.99933
4.01233
4.0214
4.02707
4.02907
0.515025
1.33357
1.98997
2.50067
2.88971
3.17925
3.3948
3.5552
3.67537
3.76597
3.83476
3.88726
3.92745
3.95824
3.98171
3.99939
4.01239
4.02145
4.02712
4.02912
0.553255
1.34324
1.99516
2.50409
2.89222
3.18132
3.39654
3.55665
3.67656
3.76693
3.83552
3.88786
3.92793
3.95861
3.982
3.99962
4.01258
4.02161
4.02726
4.02928
)
;

boundaryField
{
    internal
    {
        type            internal;
    }
    movingWall
    {
        type            zeroGradient;
    }
    farFieldMoving
    {
        type            zeroGradient;
    }
    fixedWall
    {
        type            zeroGradient;
    }
    axis
    {
        type            empty;
    }
    left
    {
        type            totalPressure;
        rho             rho;
        psi             none;
        gamma           1;
        p0              uniform 0;
        value           nonuniform List<scalar> 
30
(
-0.0334076
-0.033021
-0.0323056
-0.0312537
-0.0298884
-0.0282445
-0.0263648
-0.0242996
-0.0221049
-0.0198403
-0.0175649
-0.0153335
-0.0131933
-0.0111817
-0.00932493
-0.00657839
-0.00368116
-0.00172023
-0.000576116
-8.43024e-05
0
0
0
0
0
0
0
0
0
0
)
;
    }
    farField
    {
        type            zeroGradient;
    }
    back
    {
        type            wedge;
    }
    front
    {
        type            wedge;
    }
}


// ************************************************************************* //
