/*--------------------------------*- C++ -*----------------------------------*\
  =========                 |
  \\      /  F ield         | OpenFOAM: The Open Source CFD Toolbox
   \\    /   O peration     | Website:  https://openfoam.org
    \\  /    A nd           | Version:  13
     \\/     M anipulation  |
\*---------------------------------------------------------------------------*/
FoamFile
{
    format      ascii;
    class       surfaceScalarField;
    location    "0.0009";
    object      phi;
}
// * * * * * * * * * * * * * * * * * * * * * * * * * * * * * * * * * * * * * //

dimensions      [0 3 -1 0 0 0 0];

internalField   nonuniform List<scalar> 
3252
(
1.57639e-11
-1.73209e-12
7.1637e-12
-5.54914e-12
3.11701e-12
-1.01027e-11
4.28892e-12
-1.53214e-11
9.67672e-12
-1.95398e-11
1.50827e-11
-1.95145e-11
1.29993e-11
-1.13069e-11
2.19948e-12
4.68112e-11
-6.93891e-12
2.08465e-11
-2.20326e-11
8.49402e-12
-4.01982e-11
1.20313e-11
-6.13073e-11
2.92051e-11
-7.91697e-11
4.64427e-11
-7.90786e-11
4.04283e-11
-4.5463e-11
1.0229e-11
7.6406e-11
-1.55299e-11
3.28513e-11
-4.92248e-11
1.20381e-11
-9.01318e-11
1.83583e-11
-1.38375e-10
4.87503e-11
-1.80322e-10
7.95399e-11
-1.80417e-10
6.96304e-11
-1.02503e-10
2.58637e-11
1.03577e-10
-2.73495e-11
4.20514e-11
-8.67449e-11
1.24829e-11
-1.59609e-10
2.22362e-11
-2.47175e-10
6.81443e-11
-3.25293e-10
1.15448e-10
-3.26497e-10
1.01682e-10
-1.82462e-10
5.19564e-11
1.27376e-10
-4.21678e-11
4.72746e-11
-1.33988e-10
8.3794e-12
-2.48058e-10
2.22795e-11
-3.88421e-10
8.67603e-11
-5.17141e-10
1.54736e-10
-5.21485e-10
1.37574e-10
-2.858e-10
9.23533e-11
1.46897e-10
-5.96705e-11
4.73374e-11
-1.90072e-10
-1.88399e-12
-3.5448e-10
1.65403e-11
-5.6249e-10
1.02418e-10
-7.58688e-10
1.95724e-10
-7.70052e-10
1.7695e-10
-4.14295e-10
1.50544e-10
1.61298e-10
-7.94485e-11
4.10359e-11
-2.53752e-10
-2.01785e-11
-4.77207e-10
1.93066e-12
-7.68543e-10
1.09596e-10
-1.05032e-09
2.31713e-10
-1.07569e-09
2.16217e-10
-5.72833e-10
2.26428e-10
1.69829e-10
-1.0099e-10
2.71732e-11
-3.23337e-10
-4.86847e-11
-6.1359e-10
-2.64445e-11
-1.00303e-09
9.7884e-11
-1.38692e-09
2.4838e-10
-1.43799e-09
2.46343e-10
-7.71587e-10
3.10872e-10
1.71865e-10
-1.23682e-10
4.661e-12
-3.96672e-10
-8.98207e-11
-7.59647e-10
-7.53615e-11
-1.25803e-09
5.27985e-11
-1.75565e-09
2.24464e-10
-1.84975e-09
2.52325e-10
-1.02699e-09
3.79743e-10
1.66952e-10
-1.46824e-10
-2.72905e-11
-4.71268e-10
-1.45846e-10
-9.0993e-10
-1.51961e-10
-1.52075e-09
-4.00559e-11
-2.13643e-09
1.37821e-10
-2.29605e-09
2.16032e-10
-1.35948e-09
3.90777e-10
1.54855e-10
-1.69678e-10
-6.89473e-11
-5.44603e-10
-2.18116e-10
-1.0579e-09
-2.60777e-10
-1.77523e-09
-1.89231e-10
-2.50514e-09
-2.56505e-11
-2.75639e-09
1.21056e-10
-1.78719e-09
2.85302e-10
1.35627e-10
-1.91599e-10
-1.19918e-10
-6.14495e-10
-3.06302e-10
-1.19695e-09
-4.01125e-10
-2.00585e-09
-3.933e-10
-2.83842e-09
-2.67427e-10
-3.20741e-09
-4.60046e-11
-2.31634e-09
-8.75136e-12
1.09593e-10
-2.12162e-10
-1.79219e-10
-6.79417e-10
-4.08112e-10
-1.32179e-09
-5.66405e-10
-2.20129e-09
-6.40905e-10
-3.11766e-09
-5.78691e-10
-3.62318e-09
-3.04397e-10
-2.92505e-09
-5.82696e-10
7.72653e-11
-2.31241e-10
-2.45586e-10
-7.38599e-10
-5.20134e-10
-1.42928e-09
-7.46877e-10
-2.35658e-09
-9.13422e-10
-3.33315e-09
-9.4829e-10
-3.97022e-09
-6.75066e-10
-3.55929e-09
-1.54896e-09
3.91622e-11
-2.48948e-10
-3.18155e-10
-7.91615e-10
-6.39715e-10
-1.51805e-09
-9.34454e-10
-2.47218e-09
-1.19194e-09
-3.48601e-09
-1.34541e-09
-4.22674e-09
-1.13883e-09
-4.15667e-09
-2.99773e-09
3.01993e-12
4.70089e-11
-3.71793e-11
9.26641e-11
-9.0243e-11
1.07681e-10
-1.44063e-10
1.10462e-10
-1.95307e-10
1.0998e-10
-2.42156e-10
1.07765e-10
-2.83158e-10
1.04179e-10
-3.16997e-10
9.93609e-11
-3.42539e-10
9.34976e-11
-3.5888e-10
8.68209e-11
-3.65381e-10
7.95969e-11
-3.61676e-10
7.2107e-11
-3.47682e-10
6.46335e-11
-3.23579e-10
5.74448e-11
-2.89797e-10
5.07942e-11
-2.47014e-10
4.49355e-11
-1.96205e-10
4.01673e-11
-1.38648e-10
3.67977e-11
-7.50952e-11
3.43006e-11
2.59872e-11
6.57211e-12
1.76646e-10
-1.09101e-10
3.51242e-10
-2.58608e-10
4.05938e-10
-4.10142e-10
4.16258e-10
-5.5347e-10
4.13275e-10
-6.83909e-10
4.04103e-10
-7.97418e-10
3.89746e-10
-8.9041e-10
3.70801e-10
-9.59856e-10
3.48017e-10
-1.0034e-09
3.22316e-10
-1.01945e-09
2.94722e-10
-1.00718e-09
2.663e-10
-9.66501e-10
2.38096e-10
-8.98062e-10
2.11098e-10
-8.03152e-10
1.86226e-10
-6.83713e-10
1.64394e-10
-5.42449e-10
1.46675e-10
-3.82882e-10
1.34202e-10
-2.07122e-10
1.25042e-10
9.42253e-11
-2.60865e-12
3.83308e-10
-1.91536e-10
7.54412e-10
-4.29846e-10
8.67208e-10
-6.69025e-10
8.8665e-10
-8.93652e-10
8.77664e-10
-1.09639e-09
8.55496e-10
-1.27094e-09
8.2219e-10
-1.41195e-09
7.7927e-10
-1.51504e-09
7.28508e-10
-1.57704e-09
6.72009e-10
-1.59596e-09
6.12029e-10
-1.57104e-09
5.50844e-10
-1.50262e-09
4.90636e-10
-1.39206e-09
4.33422e-10
-1.24164e-09
3.81047e-10
-1.05449e-09
3.35317e-10
-8.34784e-10
2.98344e-10
-5.87773e-10
2.72353e-10
-3.16572e-10
2.53288e-10
1.90508e-10
-2.55197e-11
6.65331e-10
-2.92501e-10
1.29096e-09
-6.18601e-10
1.47376e-09
-9.41434e-10
1.50031e-09
-1.24149e-09
1.47929e-09
-1.50901e-09
1.43579e-09
-1.73579e-09
1.37334e-09
-1.91516e-09
1.29507e-09
-2.04211e-09
1.20437e-09
-2.11331e-09
1.10509e-09
-2.12715e-09
1.00118e-09
-2.08355e-09
8.96504e-10
-1.98382e-09
7.94613e-10
-1.83039e-09
6.98704e-10
-1.62671e-09
6.11619e-10
-1.3771e-09
5.36099e-10
-1.08698e-09
4.75355e-10
-7.62902e-10
4.32741e-10
-4.08721e-10
4.01547e-10
3.01256e-10
-6.45205e-11
1.02593e-09
-4.18179e-10
1.95613e-09
-8.34764e-10
2.21431e-09
-1.24026e-09
2.24173e-09
-1.61196e-09
2.19936e-09
-1.93795e-09
2.12306e-09
-2.20853e-09
2.01861e-09
-2.41649e-09
1.89164e-09
-2.55697e-09
1.74789e-09
-2.62743e-09
1.59355e-09
-2.62741e-09
1.43469e-09
-2.55823e-09
1.27695e-09
-2.42263e-09
1.12535e-09
-2.22449e-09
9.8422e-10
-1.96852e-09
8.57277e-10
-1.66021e-09
7.48053e-10
-1.306e-09
6.60724e-10
-9.13244e-10
5.99615e-10
-4.86291e-10
5.5498e-10
4.15202e-10
-1.22012e-10
1.47287e-09
-5.73513e-10
2.74994e-09
-1.08491e-09
3.08154e-09
-1.57302e-09
3.0988e-09
-2.0128e-09
3.02174e-09
-2.39049e-09
2.89755e-09
-2.69567e-09
2.73533e-09
-2.92157e-09
2.54435e-09
-3.06452e-09
2.33351e-09
-3.12375e-09
2.11189e-09
-3.1008e-09
1.88791e-09
-2.99903e-09
1.66903e-09
-2.82306e-09
1.46158e-09
-2.5784e-09
1.27077e-09
-2.27107e-09
1.10091e-09
-1.9076e-09
9.55995e-10
-1.49511e-09
8.40881e-10
-1.04139e-09
7.60558e-10
-5.50976e-10
7.02033e-10
5.23683e-10
-2.00107e-10
2.01786e-09
-7.62467e-10
3.67615e-09
-1.37378e-09
4.07089e-09
-1.94433e-09
4.06131e-09
-2.44762e-09
3.9315e-09
-2.86881e-09
3.74028e-09
-3.1979e-09
3.50163e-09
-3.4298e-09
3.2297e-09
-3.56333e-09
2.93731e-09
-3.60053e-09
2.63683e-09
-3.54574e-09
2.33899e-09
-3.40488e-09
2.05281e-09
-3.18472e-09
1.78555e-09
-2.89243e-09
1.54284e-09
-2.53527e-09
1.32907e-09
-2.12054e-09
1.14833e-09
-1.65576e-09
1.00572e-09
-1.14872e-09
9.06515e-10
-6.03865e-10
8.34421e-10
6.20608e-10
-3.01375e-10
2.67675e-09
-9.89023e-10
4.74157e-09
-1.70537e-09
5.1795e-09
-2.35704e-09
5.11967e-09
-2.91733e-09
4.91355e-09
-3.37155e-09
4.6319e-09
-3.71183e-09
4.29556e-09
-3.93642e-09
3.92477e-09
-4.04798e-09
3.53684e-09
-4.05241e-09
3.14736e-09
-3.95753e-09
2.76899e-09
-3.77208e-09
2.41175e-09
-3.50506e-09
2.08314e-09
-3.16518e-09
1.78854e-09
-2.76068e-09
1.5319e-09
-2.29932e-09
1.31687e-09
-1.78866e-09
1.14836e-09
-1.23609e-09
1.03151e-09
-6.4577e-10
9.46824e-10
7.02182e-10
-4.29197e-10
3.47009e-09
-1.25769e-09
5.95547e-09
-2.08339e-09
6.40514e-09
-2.81267e-09
6.2636e-09
-3.4205e-09
5.95137e-09
-3.89443e-09
5.55179e-09
-4.23103e-09
5.09468e-09
-4.43377e-09
4.60721e-09
-4.51063e-09
4.11121e-09
-4.4722e-09
3.62493e-09
-4.33014e-09
3.16209e-09
-4.0961e-09
2.73275e-09
-3.78105e-09
2.34375e-09
-3.39498e-09
1.9995e-09
-2.94671e-09
1.70286e-09
-2.44412e-09
1.4565e-09
-1.89443e-09
1.26476e-09
-1.30431e-09
1.13223e-09
-6.7743e-10
1.03643e-09
7.66515e-10
-5.88008e-10
4.42399e-09
-1.57382e-09
7.32921e-09
-2.5114e-09
7.74501e-09
-3.31149e-09
7.48076e-09
-3.95361e-09
7.02601e-09
-4.43074e-09
6.4775e-09
-4.74676e-09
5.87593e-09
-4.91246e-09
5.25542e-09
-4.94234e-09
4.64153e-09
-4.85222e-09
4.05383e-09
-4.6576e-09
3.50577e-09
-4.37274e-09
3.00618e-09
-4.0102e-09
2.56025e-09
-3.58071e-09
2.17056e-09
-3.0933e-09
1.8383e-09
-2.55553e-09
1.56474e-09
-1.97399e-09
1.35321e-09
-1.35435e-09
1.20748e-09
-6.99611e-10
1.10239e-09
8.1319e-10
-7.83804e-10
5.57151e-09
-1.94389e-09
8.87563e-09
-2.99286e-09
9.19431e-09
-3.85232e-09
8.75524e-09
-4.51098e-09
8.11507e-09
-4.97161e-09
7.38452e-09
-5.2487e-09
6.61599e-09
-5.36226e-09
5.84914e-09
-5.33413e-09
5.11139e-09
-5.18535e-09
4.42155e-09
-4.93486e-09
3.79096e-09
-4.59895e-09
3.22584e-09
-4.19111e-09
2.72862e-09
-3.72229e-09
2.29937e-09
-3.20121e-09
1.93705e-09
-2.6348e-09
1.64118e-09
-2.02868e-09
1.41384e-09
-1.38738e-09
1.25769e-09
-7.13141e-10
1.14535e-09
8.42859e-10
-1.02492e-09
6.95484e-09
-2.37589e-09
1.0608e-08
-3.53092e-09
1.07443e-08
-4.43222e-09
1.0066e-08
-5.08471e-09
9.19216e-09
-5.50635e-09
8.24654e-09
-5.72558e-09
7.29194e-09
-5.77295e-09
6.3702e-09
-5.67779e-09
5.50752e-09
-5.46576e-09
4.71904e-09
-5.1584e-09
4.01206e-09
-4.77317e-09
3.3887e-09
-4.32376e-09
2.84767e-09
-3.82075e-09
2.38593e-09
-3.2721e-09
1.99987e-09
-2.68378e-09
1.68706e-09
-2.06028e-09
1.44809e-09
-1.40485e-09
1.28445e-09
-7.18911e-10
1.16695e-09
8.56884e-10
-1.32339e-09
8.62889e-09
-2.87945e-09
1.25379e-08
-4.128e-09
1.23796e-08
-5.04595e-09
1.13849e-08
-5.66457e-09
1.02267e-08
-6.02281e-09
9.03609e-09
-6.16586e-09
7.88235e-09
-6.13508e-09
6.80338e-09
-5.96659e-09
5.82021e-09
-5.68939e-09
4.94091e-09
-5.32651e-09
4.16678e-09
-4.89551e-09
3.49453e-09
-4.40955e-09
2.91849e-09
-3.87825e-09
2.43209e-09
-3.30845e-09
2.02899e-09
-2.70493e-09
1.7047e-09
-2.07091e-09
1.45831e-09
-1.40832e-09
1.29004e-09
-7.17821e-10
1.16947e-09
8.57074e-10
-1.69719e-09
1.06671e-08
-3.46568e-09
1.46707e-08
-4.78504e-09
1.40756e-08
-5.68534e-09
1.26756e-08
-6.23808e-09
1.11843e-08
-6.50792e-09
9.72587e-09
-6.55851e-09
8.36847e-09
-6.44066e-09
7.13724e-09
-6.19574e-09
6.04378e-09
-5.85426e-09
5.08533e-09
-5.43935e-09
4.25581e-09
-4.96767e-09
3.54552e-09
-4.45111e-09
2.94402e-09
-3.89787e-09
2.44107e-09
-3.31339e-09
2.02763e-09
-2.70112e-09
1.6972e-09
-2.06296e-09
1.4474e-09
-1.39962e-09
1.27726e-09
-7.10898e-10
1.15548e-09
8.45344e-10
-2.17336e-09
1.31704e-08
-4.14623e-09
1.69968e-08
-5.50049e-09
1.57946e-08
-6.33874e-09
1.3892e-08
-6.79077e-09
1.20285e-08
-6.9485e-09
1.02904e-08
-6.89381e-09
8.73567e-09
-6.68435e-09
7.36534e-09
-6.36273e-09
6.17597e-09
-5.96043e-09
5.1537e-09
-5.49881e-09
4.28234e-09
-4.99268e-09
3.54567e-09
-4.45203e-09
2.92846e-09
-3.88331e-09
2.41696e-09
-3.29043e-09
1.99958e-09
-2.67539e-09
1.66799e-09
-2.03887e-09
1.41846e-09
-1.38037e-09
1.24893e-09
-6.98963e-10
1.12767e-09
8.23735e-10
-2.79137e-09
1.62797e-08
-4.93109e-09
1.94774e-08
-6.26893e-09
1.74842e-08
-6.99083e-09
1.49786e-08
-7.30675e-09
1.27227e-08
-7.33313e-09
1.07091e-08
-7.16373e-09
8.97317e-09
-6.86092e-09
7.48453e-09
-6.46705e-09
6.21978e-09
-6.00987e-09
5.15046e-09
-5.50831e-09
4.25158e-09
-4.97466e-09
3.50031e-09
-4.41663e-09
2.87687e-09
-3.83877e-09
2.36434e-09
-3.24332e-09
1.9489e-09
-2.63097e-09
1.62063e-09
-2.00114e-09
1.37463e-09
-1.35232e-09
1.20788e-09
-6.82927e-10
1.08864e-09
7.94168e-10
-3.60674e-09
2.01915e-08
-5.82987e-09
2.20283e-08
-7.07907e-09
1.90714e-08
-7.62647e-09
1.58765e-08
-7.76926e-09
1.32289e-08
-7.64801e-09
1.09648e-08
-7.36279e-09
9.07891e-09
-6.97089e-09
7.4981e-09
-6.51081e-09
6.18024e-09
-6.00625e-09
5.08206e-09
-5.4724e-09
4.17009e-09
-4.91844e-09
3.41552e-09
-4.34965e-09
2.79468e-09
-3.76856e-09
2.28793e-09
-3.17587e-09
1.87964e-09
-2.57095e-09
1.55859e-09
-1.95217e-09
1.3189e-09
-1.3171e-09
1.15678e-09
-6.63599e-10
1.04083e-09
7.58413e-10
-4.67433e-09
2.51577e-08
-6.86254e-09
2.45308e-08
-7.90669e-09
2.04392e-08
-8.21488e-09
1.65202e-08
-8.16155e-09
1.35237e-08
-7.88748e-09
1.10517e-08
-7.4889e-09
9.05475e-09
-7.01526e-09
7.41279e-09
-6.49777e-09
6.06551e-09
-5.95452e-09
4.95652e-09
-5.39638e-09
4.04518e-09
-4.82927e-09
3.29773e-09
-4.25593e-09
2.68737e-09
-3.67702e-09
2.19235e-09
-3.09175e-09
1.79565e-09
-2.49833e-09
1.48509e-09
-1.8942e-09
1.254e-09
-1.2762e-09
1.09805e-09
-6.41712e-10
9.86415e-10
7.18046e-10
-6.09135e-09
3.15275e-08
-8.09692e-09
2.68367e-08
-8.73313e-09
2.13844e-08
-8.74009e-09
1.68477e-08
-8.47021e-09
1.35862e-08
-8.04561e-09
1.09719e-08
-7.54254e-09
8.90924e-09
-6.99781e-09
7.23889e-09
-6.43318e-09
5.88549e-09
-5.86046e-09
4.78271e-09
-5.286e-09
3.88444e-09
-4.71247e-09
3.15329e-09
-4.14026e-09
2.56019e-09
-3.56826e-09
2.08192e-09
-2.99438e-09
1.70048e-09
-2.41584e-09
1.40305e-09
-1.82929e-09
1.1824e-09
-1.23097e-09
1.0338e-09
-6.17919e-10
9.27316e-10
6.7444e-10
-7.38145e-09
3.91745e-08
-9.39373e-09
2.91347e-08
-9.49081e-09
2.17759e-08
-9.17568e-09
1.68378e-08
-8.68518e-09
1.34123e-08
-8.12191e-09
1.0737e-08
-7.52766e-09
8.65558e-09
-6.92453e-09
6.98901e-09
-6.32363e-09
5.65096e-09
-5.73056e-09
4.56962e-09
-5.14726e-09
3.69522e-09
-4.57342e-09
2.98819e-09
-4.0073e-09
2.41799e-09
-3.44623e-09
1.96051e-09
-2.887e-09
1.59726e-09
-2.32603e-09
1.31502e-09
-1.75933e-09
1.10622e-09
-1.18265e-09
9.65868e-10
-5.92847e-10
8.65185e-10
6.28724e-10
-8.79339e-11
-2.85066e-10
-1.05933e-09
-8.8771e-10
-1.99346e-09
-1.65141e-09
-2.93194e-09
-2.60119e-09
-3.84895e-09
-3.63652e-09
-4.59111e-09
-4.55027e-09
-4.81003e-09
-4.97137e-09
-3.84649e-09
-4.66982e-09
-3.85019e-10
-3.14107e-10
-1.54915e-09
-9.45139e-10
-2.72686e-09
-1.69526e-09
-3.97515e-09
-2.57448e-09
-5.30041e-09
-3.53284e-09
-6.62953e-09
-4.44035e-09
-7.77309e-09
-5.024e-09
-4.24967e-09
-8.07527e-09
-7.28491e-10
-3.39808e-10
-2.08284e-09
-9.66423e-10
-3.47291e-09
-1.68083e-09
-4.94625e-09
-2.47677e-09
-6.52455e-09
-3.33019e-09
-8.19205e-09
-4.14648e-09
-9.81371e-09
-4.75086e-09
-4.19093e-09
-1.06569e-08
-1.10252e-09
-3.67448e-10
-2.64255e-09
-9.56103e-10
-4.22997e-09
-1.62311e-09
-5.89542e-09
-2.34102e-09
-7.66257e-09
-3.09273e-09
-9.51575e-09
-3.82187e-09
-1.13828e-08
-4.3789e-09
-3.94877e-09
-1.24927e-08
-1.49132e-09
-3.92454e-10
-3.21047e-09
-9.20734e-10
-4.98473e-09
-1.53263e-09
-6.83079e-09
-2.17873e-09
-8.76451e-09
-2.84276e-09
-1.07839e-08
-3.48598e-09
-1.28129e-08
-3.99273e-09
-3.63949e-09
-1.40738e-08
-1.90644e-09
-4.08213e-10
-3.79172e-09
-8.73303e-10
-5.7429e-09
-1.41929e-09
-7.7625e-09
-1.99697e-09
-9.86118e-09
-2.58189e-09
-1.20387e-08
-3.14674e-09
-1.42174e-08
-3.60619e-09
-3.30636e-09
-1.55867e-08
-2.32261e-09
-4.1567e-10
-4.37507e-09
-8.12761e-10
-6.49226e-09
-1.29402e-09
-8.68233e-09
-1.79881e-09
-1.09485e-08
-2.30757e-09
-1.32881e-08
-2.80006e-09
-1.5625e-08
-3.21249e-09
-2.95636e-09
-1.70968e-08
-2.71965e-09
-4.0182e-10
-4.94036e-09
-7.38048e-10
-7.22813e-09
-1.15224e-09
-9.58893e-09
-1.58399e-09
-1.20238e-08
-2.01857e-09
-1.45299e-08
-2.44128e-09
-1.7034e-08
-2.80471e-09
-2.58792e-09
-1.8611e-08
-3.09804e-09
-3.67739e-10
-5.48787e-09
-6.48273e-10
-7.9467e-09
-9.93479e-10
-1.04784e-08
-1.35229e-09
-1.30834e-08
-1.71361e-09
-1.57592e-08
-2.06674e-09
-1.84381e-08
-2.37781e-09
-2.19813e-09
-2.01246e-08
-3.45538e-09
-3.17852e-10
-6.01525e-09
-5.42538e-10
-8.64491e-09
-8.17952e-10
-1.13477e-08
-1.10366e-09
-1.41237e-08
-1.39162e-09
-1.69712e-08
-1.67417e-09
-1.98305e-08
-1.9288e-09
-1.78494e-09
-2.16301e-08
-3.78967e-09
-2.5513e-10
-6.51863e-09
-4.21787e-10
-9.3183e-09
-6.26478e-10
-1.21916e-08
-8.38552e-10
-1.51389e-08
-1.0524e-09
-1.81584e-08
-1.26298e-09
-2.12018e-08
-1.457e-09
-1.3478e-09
-2.31167e-08
-4.08763e-09
-1.82386e-10
-6.98313e-09
-2.88557e-10
-9.94973e-09
-4.22155e-10
-1.29901e-08
-5.60478e-10
-1.61052e-08
-6.99428e-10
-1.92924e-08
-8.36884e-10
-2.25183e-08
-9.67131e-10
-8.91166e-10
-2.45463e-08
-4.28614e-09
-1.04832e-10
-7.33888e-09
-1.52162e-10
-1.04594e-08
-2.17977e-10
-1.36504e-08
-2.85811e-10
-1.69139e-08
-3.52194e-10
-2.02463e-08
-4.18203e-10
-2.36314e-08
-4.86083e-10
-4.43009e-10
-2.57464e-08
-4.17152e-09
-3.49226e-11
-7.35465e-09
-3.94542e-11
-1.05907e-08
-5.23642e-11
-1.38816e-08
-6.5335e-11
-1.72277e-08
-7.64137e-11
-2.06245e-08
-8.81909e-11
-2.40588e-08
-1.10049e-10
-1.09387e-10
-2.61699e-08
-3.44446e-09
-6.70841e-09
-9.98526e-09
-1.32751e-08
-1.65759e-08
-1.98848e-08
-2.31846e-08
-2.54043e-08
-3.74894e-09
-1.01254e-09
-3.51307e-09
-2.46413e-10
-3.37918e-09
-1.34957e-10
-3.27991e-09
-9.94604e-11
-3.20052e-09
-7.94271e-11
-3.13424e-09
-6.62824e-11
-3.07679e-09
-5.74588e-11
-3.02519e-09
-5.15982e-11
-2.97736e-09
-4.78247e-11
-2.93183e-09
-4.55351e-11
-2.88755e-09
-4.4283e-11
-2.84381e-09
-4.37401e-11
-2.80015e-09
-4.36578e-11
-2.75632e-09
-4.38318e-11
-2.71224e-09
-4.40741e-11
-2.66806e-09
-4.41793e-11
-2.62418e-09
-4.38817e-11
-2.58137e-09
-4.28072e-11
-2.54092e-09
-4.04521e-11
-2.50467e-09
-3.62513e-11
-2.47485e-09
-2.98188e-11
-2.45341e-09
-2.14401e-11
-2.44057e-09
-1.284e-11
-2.43246e-09
-8.11142e-12
-2.41788e-09
-1.45819e-11
-2.37458e-09
-4.32985e-11
-2.26638e-09
-1.082e-10
-2.04261e-09
-2.23772e-10
-1.63967e-09
-4.02935e-10
-9.93737e-10
-6.45937e-10
-5.85733e-11
-9.35164e-10
1.17026e-09
-1.22883e-09
2.63349e-09
-1.46323e-09
4.20218e-09
-1.56869e-09
5.67835e-09
-1.47617e-09
6.81726e-09
-1.13891e-09
7.37944e-09
-5.62175e-10
7.19894e-09
1.80503e-10
6.28711e-09
9.11829e-10
4.85891e-09
1.42819e-09
3.27022e-09
1.58869e-09
1.92624e-09
1.34398e-09
1.0809e-09
8.45339e-10
7.73402e-10
3.07498e-10
8.84129e-10
-1.10727e-10
1.22876e-09
-3.44631e-10
1.69224e-09
-4.63482e-10
2.47448e-09
-7.82232e-10
2.58993e-09
-1.15366e-10
8.21204e-09
-5.61667e-09
-8.09819e-09
-1.15422e-09
-8.07799e-09
-2.87859e-10
-8.07004e-09
-1.45564e-10
-8.06927e-09
-1.00702e-10
-8.07022e-09
-7.85713e-11
-8.07062e-09
-6.58931e-11
-8.06933e-09
-5.87575e-11
-8.06546e-09
-5.54671e-11
-8.05828e-09
-5.50022e-11
-8.04718e-09
-5.66381e-11
-8.03165e-09
-5.98107e-11
-8.01133e-09
-6.40661e-11
-7.98596e-09
-6.90246e-11
-7.95545e-09
-7.43395e-11
-7.91989e-09
-7.96392e-11
-7.87965e-09
-8.44163e-11
-7.83568e-09
-8.78538e-11
-7.78983e-09
-8.86555e-11
-7.74522e-09
-8.50624e-11
-7.70615e-09
-7.53246e-11
-7.67708e-09
-5.88836e-11
-7.66015e-09
-3.83735e-11
-7.65072e-09
-2.22688e-11
-7.6314e-09
-2.7428e-11
-7.56583e-09
-8.01505e-11
-7.39527e-09
-2.1386e-10
-7.04194e-09
-4.61536e-10
-6.42165e-09
-8.44057e-10
-5.4571e-09
-1.36749e-09
-4.10268e-09
-2.00036e-09
-2.35645e-09
-2.6814e-09
-2.65243e-10
-3.32004e-09
2.06372e-09
-3.7922e-09
4.45594e-09
-3.96091e-09
6.6865e-09
-3.70673e-09
8.51166e-09
-2.96407e-09
9.70711e-09
-1.75763e-09
1.01172e-08
-2.29573e-10
9.66702e-09
1.362e-09
8.41355e-09
2.68166e-09
6.60332e-09
3.39892e-09
4.70739e-09
3.23992e-09
3.22319e-09
2.32954e-09
2.42477e-09
1.10592e-09
2.27357e-09
4.04686e-11
2.47792e-09
-5.48976e-10
2.60624e-09
-5.91804e-10
1.63116e-09
1.92857e-10
-3.58671e-09
5.10316e-09
1.72395e-08
-1.25739e-08
-1.09432e-08
-1.05543e-09
-1.10537e-08
-2.04645e-10
-1.11516e-08
-5.18038e-11
-1.12414e-08
-1.16382e-11
-1.1324e-08
3.93397e-12
-1.14009e-08
1.09797e-11
-1.14729e-08
1.32269e-11
-1.15404e-08
1.19709e-11
-1.16033e-08
7.93752e-12
-1.16616e-08
1.67483e-12
-1.17151e-08
-6.32945e-12
-1.17636e-08
-1.56023e-11
-1.18069e-08
-2.5692e-11
-1.18451e-08
-3.61164e-11
-1.18786e-08
-4.61691e-11
-1.19084e-08
-5.4615e-11
-1.19368e-08
-5.94266e-11
-1.19676e-08
-5.78842e-11
-1.20052e-08
-4.74446e-11
-1.20529e-08
-2.76557e-11
-1.21087e-08
-3.02588e-12
-1.21608e-08
1.37323e-11
-1.21822e-08
-8.987e-13
-1.2128e-08
-8.16221e-11
-1.19377e-08
-2.70433e-10
-1.15432e-08
-6.08368e-10
-1.08795e-08
-1.12525e-09
-9.89404e-09
-1.82952e-09
-8.56529e-09
-2.69624e-09
-6.88926e-09
-3.67638e-09
-4.88745e-09
-4.68321e-09
-2.62036e-09
-5.58713e-09
-1.93779e-10
-6.21878e-09
2.23625e-09
-6.39094e-09
4.46709e-09
-5.93758e-09
6.29054e-09
-4.78752e-09
7.53864e-09
-3.00572e-09
8.12173e-09
-8.12671e-10
8.03271e-09
1.45102e-09
7.35748e-09
3.3569e-09
6.13478e-09
4.62162e-09
4.71329e-09
4.6614e-09
3.4846e-09
3.55823e-09
2.71851e-09
1.87201e-09
2.35055e-09
4.08427e-10
1.94806e-09
-1.46488e-10
7.39526e-10
6.16733e-10
-2.95954e-09
3.89195e-09
-1.01006e-08
1.22453e-08
2.36517e-08
-1.64711e-08
-1.29052e-08
-8.54264e-10
-1.30781e-08
-6.47181e-11
-1.32231e-08
8.76635e-11
-1.33584e-08
1.22663e-10
-1.34873e-08
1.32618e-10
-1.36115e-08
1.35122e-10
-1.37322e-08
1.3395e-10
-1.38504e-08
1.30174e-10
-1.39668e-08
1.24318e-10
-1.40819e-08
1.16789e-10
-1.41962e-08
1.07959e-10
-1.431e-08
9.82009e-11
-1.44237e-08
8.79869e-11
-1.45379e-08
7.80936e-11
-1.4654e-08
6.98981e-11
-1.47742e-08
6.55904e-11
-1.49015e-08
6.79116e-11
-1.50384e-08
7.90185e-11
-1.51842e-08
9.83867e-11
-1.5332e-08
1.20149e-10
-1.54656e-08
1.30571e-10
-1.55583e-08
1.06374e-10
-1.55738e-08
1.4605e-11
-1.54702e-08
-1.85197e-10
-1.52045e-08
-5.36174e-10
-1.4736e-08
-1.07685e-09
-1.40293e-08
-1.83196e-09
-1.30564e-08
-2.80238e-09
-1.17952e-08
-3.95743e-09
-1.02406e-08
-5.23102e-09
-8.41646e-09
-6.50733e-09
-6.37502e-09
-7.62857e-09
-4.20153e-09
-8.39226e-09
-2.03441e-09
-8.55806e-09
-3.98806e-11
-7.9321e-09
1.6009e-09
-6.4283e-09
2.75028e-09
-4.1551e-09
3.36622e-09
-1.42861e-09
3.50699e-09
1.31024e-09
3.24433e-09
3.61955e-09
2.73689e-09
5.12906e-09
2.1106e-09
5.2877e-09
1.54651e-09
4.12232e-09
1.0735e-09
2.34503e-09
3.6258e-10
1.11934e-09
-1.24302e-09
1.45912e-09
-4.5663e-09
3.94001e-09
-1.01451e-08
9.47075e-09
-1.6236e-08
1.83376e-08
2.67549e-08
-1.92968e-08
-1.45329e-08
-6.29351e-10
-1.47262e-08
9.04645e-11
-1.48807e-08
2.35489e-10
-1.50254e-08
2.6602e-10
-1.51658e-08
2.72761e-10
-1.53042e-08
2.73475e-10
-1.54421e-08
2.71835e-10
-1.55806e-08
2.68765e-10
-1.5721e-08
2.6468e-10
-1.58641e-08
2.59929e-10
-1.60111e-08
2.54881e-10
-1.61629e-08
2.50007e-10
-1.63209e-08
2.46055e-10
-1.64871e-08
2.44277e-10
-1.66638e-08
2.46559e-10
-1.68533e-08
2.55105e-10
-1.70568e-08
2.71414e-10
-1.72724e-08
2.946e-10
-1.74935e-08
3.19544e-10
-1.77088e-08
3.35385e-10
-1.79026e-08
3.24345e-10
-1.80567e-08
2.60519e-10
-1.81509e-08
1.08757e-10
-1.81611e-08
-1.749e-10
-1.80584e-08
-6.38898e-10
-1.7808e-08
-1.32723e-09
-1.73725e-08
-2.26751e-09
-1.6716e-08
-3.45893e-09
-1.58106e-08
-4.86281e-09
-1.46469e-08
-6.39465e-09
-1.32376e-08
-7.91663e-09
-1.16275e-08
-9.23867e-09
-9.89898e-09
-1.01208e-08
-8.1488e-09
-1.03082e-08
-6.50726e-09
-9.57365e-09
-5.0995e-09
-7.83607e-09
-4.01863e-09
-5.23596e-09
-3.29179e-09
-2.15545e-09
-2.86543e-09
8.83879e-10
-2.63937e-09
3.39349e-09
-2.44985e-09
4.93955e-09
-2.2883e-09
5.12614e-09
-2.3e-09
4.13402e-09
-2.9112e-09
2.95622e-09
-4.65381e-09
2.86196e-09
-7.8053e-09
4.6106e-09
-1.2299e-08
8.43369e-09
-1.72863e-08
1.44581e-08
-2.08354e-08
2.18883e-08
2.68765e-08
-2.09139e-08
-1.60597e-08
-4.12339e-10
-1.62498e-08
2.38076e-10
-1.63941e-08
3.72117e-10
-1.65291e-08
3.9946e-10
-1.66619e-08
4.05304e-10
-1.67951e-08
4.06627e-10
-1.69302e-08
4.06947e-10
-1.70686e-08
4.07142e-10
-1.72116e-08
4.07633e-10
-1.73605e-08
4.08828e-10
-1.75168e-08
4.11247e-10
-1.76824e-08
4.15637e-10
-1.78595e-08
4.23128e-10
-1.80506e-08
4.35319e-10
-1.82581e-08
4.54065e-10
-1.84838e-08
4.80786e-10
-1.87278e-08
5.15416e-10
-1.89885e-08
5.55384e-10
-1.92639e-08
5.94862e-10
-1.95522e-08
6.23757e-10
-1.98531e-08
6.25189e-10
-2.01638e-08
5.71277e-10
-2.04745e-08
4.19411e-10
-2.07624e-08
1.13031e-10
-2.09912e-08
-4.10089e-10
-2.11155e-08
-1.20291e-09
-2.10889e-08
-2.29411e-09
-2.08712e-08
-3.6767e-09
-2.04353e-08
-5.29873e-09
-1.97742e-08
-7.05567e-09
-1.89035e-08
-8.7874e-09
-1.78601e-08
-1.02821e-08
-1.66944e-08
-1.12865e-08
-1.54684e-08
-1.15342e-08
-1.42416e-08
-1.08005e-08
-1.30744e-08
-9.00321e-09
-1.20161e-08
-6.29432e-09
-1.10858e-08
-3.08572e-09
-1.02545e-08
5.26228e-11
-9.45109e-09
2.59004e-09
-8.67239e-09
4.16085e-09
-8.19117e-09
4.64492e-09
-8.48812e-09
4.43097e-09
-9.97236e-09
4.44046e-09
-1.26678e-08
5.55742e-09
-1.61827e-08
8.1255e-09
-1.99081e-08
1.21591e-08
-2.27595e-08
1.73096e-08
-2.34788e-08
2.26094e-08
2.48679e-08
-2.14263e-08
-1.75728e-08
-2.12512e-10
-1.77499e-08
3.68956e-10
-1.78753e-08
4.89082e-10
-1.79914e-08
5.13893e-10
-1.81068e-08
5.20367e-10
-1.82241e-08
5.23915e-10
-1.8345e-08
5.27785e-10
-1.84707e-08
5.32861e-10
-1.86027e-08
5.39657e-10
-1.87426e-08
5.48747e-10
-1.88923e-08
5.60908e-10
-1.90539e-08
5.77236e-10
-1.923e-08
5.99224e-10
-1.94233e-08
6.28687e-10
-1.96367e-08
6.67422e-10
-1.98726e-08
7.16723e-10
-2.01343e-08
7.77079e-10
-2.04271e-08
8.48147e-10
-2.07603e-08
9.28059e-10
-2.11469e-08
1.01041e-09
-2.15993e-08
1.07756e-09
-2.21207e-08
1.09272e-09
-2.2698e-08
9.96689e-10
-2.32992e-08
7.14208e-10
-2.38787e-08
1.6945e-10
-2.43859e-08
-6.95674e-10
-2.47736e-08
-1.90646e-09
-2.50047e-08
-3.44558e-09
-2.50589e-08
-5.24457e-09
-2.49365e-08
-7.17805e-09
-2.4657e-08
-9.06691e-09
-2.42497e-08
-1.06894e-08
-2.37389e-08
-1.17973e-08
-2.31314e-08
-1.21417e-08
-2.2412e-08
-1.15199e-08
-2.15596e-08
-9.85556e-09
-2.05718e-08
-7.28211e-09
-1.94829e-08
-4.17463e-09
-1.83664e-08
-1.0639e-09
-1.73379e-08
1.56152e-09
-1.65914e-08
3.41431e-09
-1.64577e-08
4.51125e-09
-1.72688e-08
5.24208e-09
-1.9037e-08
6.20863e-09
-2.1383e-08
7.90341e-09
-2.37689e-08
1.05114e-08
-2.55367e-08
1.39269e-08
-2.59413e-08
1.77142e-08
-2.44509e-08
2.11209e-08
2.17099e-08
-2.12483e-08
-1.90853e-08
-3.3175e-11
-1.92434e-08
4.7823e-10
-1.93456e-08
5.82325e-10
-1.94385e-08
6.05069e-10
-1.95316e-08
6.1322e-10
-1.96278e-08
6.20024e-10
-1.97284e-08
6.28364e-10
-1.98347e-08
6.39151e-10
-1.99481e-08
6.53041e-10
-2.00702e-08
6.70834e-10
-2.02029e-08
6.93608e-10
-2.03485e-08
7.22825e-10
-2.05096e-08
7.60352e-10
-2.06893e-08
8.0837e-10
-2.08911e-08
8.6926e-10
-2.11202e-08
9.45772e-10
-2.13847e-08
1.04162e-09
-2.16983e-08
1.16179e-09
-2.20805e-08
1.31023e-09
-2.25529e-08
1.48276e-09
-2.31322e-08
1.65689e-09
-2.38204e-08
1.78096e-09
-2.45997e-08
1.77596e-09
-2.54342e-08
1.54872e-09
-2.62776e-08
1.01281e-09
-2.70832e-08
1.09964e-10
-2.78111e-08
-1.17857e-09
-2.84325e-08
-2.82422e-09
-2.8935e-08
-4.74207e-09
-2.93246e-08
-6.78839e-09
-2.96209e-08
-8.77059e-09
-2.98453e-08
-1.0465e-08
-3.00043e-08
-1.16383e-08
-3.00726e-08
-1.20734e-08
-2.99874e-08
-1.16051e-08
-2.96691e-08
-1.01739e-08
-2.9067e-08
-7.8842e-09
-2.82107e-08
-5.03095e-09
-2.72331e-08
-2.04152e-09
-2.63448e-08
6.73244e-10
-2.57968e-08
2.8663e-09
-2.57648e-08
4.47924e-09
-2.63141e-08
5.79141e-09
-2.72632e-08
7.15773e-09
-2.82498e-08
8.89005e-09
-2.88396e-08
1.11012e-08
-2.85777e-08
1.3665e-08
-2.71165e-08
1.6253e-08
-2.43812e-08
1.83876e-08
1.8241e-08
-2.08672e-08
-2.05933e-08
1.23868e-10
-2.07281e-08
5.62587e-10
-2.08042e-08
6.49301e-10
-2.08712e-08
6.70378e-10
-2.09392e-08
6.80896e-10
-2.10108e-08
6.91539e-10
-2.10872e-08
7.04736e-10
-2.11694e-08
7.21419e-10
-2.12588e-08
7.42394e-10
-2.13566e-08
7.68677e-10
-2.14647e-08
8.01632e-10
-2.15849e-08
8.43058e-10
-2.17198e-08
8.95239e-10
-2.18724e-08
9.61014e-10
-2.20472e-08
1.04408e-09
-2.22513e-08
1.14985e-09
-2.24962e-08
1.28648e-09
-2.2799e-08
1.46459e-09
-2.31817e-08
1.69298e-09
-2.36659e-08
1.96692e-09
-2.42685e-08
2.25946e-09
-2.49902e-08
2.5027e-09
-2.58164e-08
2.60219e-09
-2.67191e-08
2.45142e-09
-2.76622e-08
1.95591e-09
-2.86128e-08
1.06056e-09
-2.95451e-08
-2.46299e-10
-3.04454e-08
-1.9239e-09
-3.13124e-08
-3.8751e-09
-3.21522e-08
-5.94852e-09
-3.29725e-08
-7.95034e-09
-3.37738e-08
-9.66362e-09
-3.4542e-08
-1.08702e-08
-3.52374e-08
-1.1378e-08
-3.57872e-08
-1.10553e-08
-3.60952e-08
-9.86591e-09
-3.60777e-08
-7.90173e-09
-3.5716e-08
-5.39261e-09
-3.50885e-08
-2.66901e-09
-3.43449e-08
-7.03841e-11
-3.36802e-08
2.20154e-09
-3.31856e-08
3.98468e-09
-3.28714e-08
5.47716e-09
-3.25961e-08
6.8825e-09
-3.21193e-08
8.41319e-09
-3.11692e-08
1.01511e-08
-2.95184e-08
1.20142e-08
-2.70789e-08
1.38136e-08
-2.39485e-08
1.52592e-08
1.49487e-08
-2.06105e-08
-2.20894e-08
2.56653e-10
-2.21963e-08
6.18791e-10
-2.22436e-08
6.87696e-10
-2.22824e-08
7.07524e-10
-2.23226e-08
7.20766e-10
-2.23664e-08
7.35356e-10
-2.24149e-08
7.53222e-10
-2.24688e-08
7.75276e-10
-2.25288e-08
8.02421e-10
-2.2596e-08
8.35814e-10
-2.26713e-08
8.76998e-10
-2.27563e-08
9.2799e-10
-2.28525e-08
9.91436e-10
-2.29623e-08
1.07091e-09
-2.30897e-08
1.17147e-09
-2.32408e-08
1.30094e-09
-2.34253e-08
1.47095e-09
-2.36565e-08
1.69577e-09
-2.39509e-08
1.98736e-09
-2.43249e-08
2.34099e-09
-2.47889e-08
2.72342e-09
-2.53491e-08
3.06285e-09
-2.60032e-08
3.25632e-09
-2.67423e-08
3.19054e-09
-2.75561e-08
2.76967e-09
-2.84335e-08
1.93802e-09
-2.93715e-08
6.91645e-10
-3.03889e-08
-9.06505e-10
-3.15005e-08
-2.7635e-09
-3.2716e-08
-4.73301e-09
-3.40206e-08
-6.64575e-09
-3.53697e-08
-8.31453e-09
-3.66961e-08
-9.5437e-09
-3.79219e-08
-1.01523e-08
-3.89628e-08
-1.00144e-08
-3.97296e-08
-9.09904e-09
-4.01395e-08
-7.49183e-09
-4.01439e-08
-5.38828e-09
-3.97572e-08
-3.05565e-09
-3.90624e-08
-7.65158e-10
-3.81484e-08
1.28751e-09
-3.71503e-08
2.98654e-09
-3.60783e-08
4.40523e-09
-3.48819e-08
5.68603e-09
-3.34437e-08
6.97502e-09
-3.16324e-08
8.3398e-09
-2.93667e-08
9.74849e-09
-2.66582e-08
1.11052e-08
-2.3603e-08
1.22059e-08
1.19511e-08
-2.0559e-08
-2.3561e-08
3.62073e-10
-2.36347e-08
6.42667e-10
-2.36494e-08
6.9423e-10
-2.36565e-08
7.13035e-10
-2.36647e-08
7.28744e-10
-2.3676e-08
7.46587e-10
-2.36908e-08
7.67967e-10
-2.37092e-08
7.937e-10
-2.37314e-08
8.24667e-10
-2.37576e-08
8.62024e-10
-2.37879e-08
9.07298e-10
-2.38224e-08
9.62474e-10
-2.38612e-08
1.0302e-09
-2.39047e-08
1.11437e-09
-2.39538e-08
1.22057e-09
-2.40103e-08
1.35745e-09
-2.40773e-08
1.53802e-09
-2.41584e-08
1.77682e-09
-2.42565e-08
2.08549e-09
-2.43763e-08
2.46076e-09
-2.4524e-08
2.87118e-09
-2.47104e-08
3.24918e-09
-2.49504e-08
3.4964e-09
-2.52637e-08
3.50378e-09
-2.56734e-08
3.17942e-09
-2.62086e-08
2.47317e-09
-2.69079e-08
1.39097e-09
-2.78157e-08
1.31171e-12
-2.8986e-08
-1.5932e-09
-3.04503e-08
-3.26869e-09
-3.21867e-08
-4.90937e-09
-3.41029e-08
-6.39833e-09
-3.60517e-08
-7.59495e-09
-3.78683e-08
-8.33559e-09
-3.94074e-08
-8.47525e-09
-4.05603e-08
-7.94623e-09
-4.12576e-08
-6.79451e-09
-4.14708e-08
-5.17506e-09
-4.12163e-08
-3.31013e-09
-4.05523e-08
-1.42921e-09
-3.95497e-08
2.84924e-10
-3.83088e-08
1.74571e-09
-3.68847e-08
2.98106e-09
-3.52819e-08
4.08329e-09
-3.34611e-08
5.15417e-09
-3.13711e-08
6.2498e-09
-2.89884e-08
7.36581e-09
-2.63314e-08
8.44821e-09
-2.34497e-08
9.32601e-09
9.15839e-09
-2.06101e-08
-2.49646e-08
4.31544e-10