/*--------------------------------*- C++ -*----------------------------------*\
  =========                 |
  \\      /  F ield         | OpenFOAM: The Open Source CFD Toolbox
   \\    /   O peration     | Website:  https://openfoam.org
    \\  /    A nd           | Version:  13
     \\/     M anipulation  |
\*---------------------------------------------------------------------------*/
FoamFile
{
    format      ascii;
    class       volVectorField;
    location    "0.0009";
    object      U;
}
// * * * * * * * * * * * * * * * * * * * * * * * * * * * * * * * * * * * * * //

dimensions      [0 1 -1 0 0 0 0];

internalField   nonuniform List<vector> 
1690
(
(0.258494 -0.00139489 2.49086e-18)
(0.289877 -0.00444927 -1.16497e-17)
(0.360799 -0.00809919 -1.63855e-17)
(0.47618 -0.0122849 1.20972e-16)
(0.642675 -0.0156552 -4.40593e-17)
(0.831388 -0.0156438 1.37242e-16)
(0.997335 -0.00908404 5.5736e-17)
(1.04039 0.00170906 1.52515e-17)
(0.256994 -0.00363416 2.27491e-18)
(0.288193 -0.0116022 1.9086e-18)
(0.3589 -0.0211313 -3.66201e-17)
(0.474416 -0.0320932 6.82558e-17)
(0.641792 -0.0411405 -2.24198e-17)
(0.832338 -0.0411285 6.9057e-17)
(0.999631 -0.0239291 2.61829e-17)
(1.04152 0.00468743 -2.80006e-18)
(0.254194 -0.00576845 -8.72893e-19)
(0.285023 -0.0183131 6.587e-18)
(0.355215 -0.0334563 -1.69787e-17)
(0.470755 -0.0511414 -8.14037e-19)
(0.639886 -0.0662714 -2.81635e-17)
(0.834298 -0.0662833 1.89552e-18)
(1.00429 -0.0381504 -6.83544e-17)
(1.04379 0.00860855 -4.52717e-17)
(0.250022 -0.00795626 -6.49001e-19)
(0.280297 -0.0252372 -2.42977e-18)
(0.349625 -0.0463073 -8.74419e-19)
(0.465019 -0.0713351 -3.06483e-17)
(0.636768 -0.093324 -6.07498e-17)
(0.837163 -0.0935562 -2.86276e-17)
(1.01149 -0.053083 -1.04888e-16)
(1.04748 0.013518 -7.41034e-17)
(0.2445 -0.0100911 -1.04811e-18)
(0.274009 -0.0320539 2.94976e-18)
(0.34206 -0.059142 -2.11609e-17)
(0.457021 -0.0920052 -3.0309e-17)
(0.632061 -0.121655 -7.01874e-17)
(0.840208 -0.122424 -4.07119e-17)
(1.02065 -0.0682053 -1.0729e-16)
(1.05256 0.0196973 -8.6757e-17)
(0.23768 -0.0121313 -2.45192e-19)
(0.266187 -0.038624 -8.60297e-18)
(0.332449 -0.0717478 -2.62086e-17)
(0.446482 -0.112995 -7.30879e-17)
(0.62492 -0.151286 -8.94887e-17)
(0.841366 -0.153076 -3.12798e-17)
(1.0298 -0.0836131 -6.60172e-17)
(1.0587 0.0273794 -7.72632e-17)
(0.229635 -0.0140484 -1.02502e-18)
(0.256883 -0.0448483 -5.02754e-18)
(0.320698 -0.0839721 -2.86939e-17)
(0.432995 -0.134149 -7.92532e-17)
(0.613687 -0.182107 -8.78097e-17)
(0.836448 -0.185665 -3.34499e-17)
(1.03453 -0.0998592 -3.32629e-17)
(1.06492 0.0362962 -5.63997e-17)
(0.220458 -0.0158119 -1.23768e-19)
(0.246172 -0.0506131 -1.20047e-17)
(0.306721 -0.0956082 -3.58018e-17)
(0.416017 -0.155097 -7.61291e-17)
(0.595713 -0.213348 -7.47669e-17)
(0.819365 -0.219875 -2.63284e-17)
(1.02768 -0.117941 -1.74038e-17)
(1.06933 0.0452911 -3.84179e-17)
(0.210266 -0.0173894 3.07956e-19)
(0.234161 -0.055785 -1.09928e-17)
(0.29053 -0.106363 -3.85485e-17)
(0.394907 -0.175087 -6.55355e-17)
(0.567952 -0.243429 -6.19625e-17)
(0.784132 -0.254641 -1.85329e-17)
(1.00079 -0.139229 -3.68682e-18)
(1.06917 0.0520407 -2.6603e-17)
(0.199204 -0.0187482 -7.91587e-19)
(0.221001 -0.060226 -8.18534e-18)
(0.272342 -0.115864 -3.91632e-17)
(0.369206 -0.19297 -6.34133e-17)
(0.528335 -0.270375 -4.23494e-17)
(0.727838 -0.288063 -9.57857e-18)
(0.947489 -0.165442 9.82074e-18)
(1.06135 0.0530562 -1.48284e-17)
(0.187434 -0.0198593 -5.99934e-19)
(0.206906 -0.0638194 -1.07412e-17)
(0.252621 -0.123698 -3.75568e-17)
(0.3391 -0.207456 -5.21517e-17)
(0.477218 -0.292286 -3.61751e-17)
(0.652476 -0.317906 3.17834e-19)
(0.867012 -0.198208 2.00945e-17)
(1.04229 0.0441199 1.10092e-18)
(0.175124 -0.0207052 -5.1874e-19)
(0.192183 -0.0665021 -9.95291e-18)
(0.232017 -0.129493 -3.89941e-17)
(0.305726 -0.217467 -4.59677e-17)
(0.418059 -0.307442 -3.26005e-17)
(0.5639 -0.342611 3.98906e-18)
(0.765047 -0.236595 2.23666e-17)
(1.00495 0.0199788 2.37553e-18)
(0.162443 -0.0212892 -1.16862e-18)
(0.177193 -0.068283 -8.36624e-18)
(0.211238 -0.133062 -2.8737e-17)
(0.271048 -0.222555 -4.18098e-17)
(0.356462 -0.315192 -3.01987e-17)
(0.469597 -0.360956 4.02772e-18)
(0.649603 -0.27692 2.44812e-17)
(0.934958 -0.0214375 1.7445e-17)
(0.149547 -0.0216418 -8.88308e-19)
(0.162277 -0.0692681 -6.12105e-18)
(0.190876 -0.134545 -2.15891e-17)
(0.237141 -0.223153 -3.34481e-17)
(0.297904 -0.315959 -2.48256e-17)
(0.378453 -0.371997 4.10981e-18)
(0.525112 -0.320312 2.90357e-17)
(0.819991 -0.0935624 1.67968e-17)
(0.136567 -0.0218245 -1.21908e-18)
(0.147668 -0.0696527 -4.06106e-18)
(0.171262 -0.134371 -1.85864e-17)
(0.205446 -0.220262 -2.78034e-17)
(0.245825 -0.311121 -2.44909e-17)
(0.297781 -0.375272 3.98126e-18)
(0.402702 -0.361623 2.76453e-17)
(0.660315 -0.203487 3.0869e-17)
(0.988579 0.0210628 -1.91594e-15)
(0.943587 0.0396602 1.46903e-15)
(0.866296 0.0444441 1.84896e-15)
(0.793274 0.0439665 2.25134e-15)
(0.716957 0.0422283 -2.02397e-15)
(0.642513 0.0399078 -6.29221e-15)
(0.570028 0.0372075 -5.94678e-15)
(0.500497 0.0342232 -3.94936e-15)
(0.43467 0.0310563 2.0909e-16)
(0.37319 0.0278107 -1.27901e-15)
(0.316513 0.0245877 -1.14894e-15)
(0.264905 0.02148 -5.30055e-15)
(0.218441 0.0185675 -5.364e-15)
(0.177002 0.0159143 -3.97884e-15)
(0.140299 0.0135706 -2.35411e-15)
(0.107882 0.0115777 -1.69098e-16)
(0.0791208 0.00997998 5.28364e-15)
(0.0530852 0.00881455 8.78537e-15)
(0.0287908 0.00792252 7.6618e-15)
(0.00694997 0.0057975 -8.27661e-16)
(0.988441 0.0505759 -2.30757e-16)
(0.942324 0.095887 3.79155e-16)
(0.863742 0.106927 2.5592e-15)
(0.789216 0.105772 3.5325e-15)
(0.711926 0.101436 3.91375e-16)
(0.636606 0.0958006 -3.47699e-15)
(0.563548 0.0892617 -5.80327e-15)
(0.493701 0.0820495 -2.91855e-15)
(0.427813 0.0744055 2.32617e-15)
(0.366501 0.0665806 3.54804e-15)
(0.310185 0.0588179 1.2252e-15)
(0.259093 0.0513397 -1.6965e-15)
(0.213252 0.0443365 -3.40863e-15)
(0.172506 0.037962 -1.65207e-15)
(0.136529 0.0323357 1.47822e-15)
(0.104847 0.0275559 2.67865e-15)
(0.076809 0.0237281 6.52093e-15)
(0.0514704 0.0209455 9.1722e-15)
(0.0278559 0.0188184 9.87645e-15)
(0.00668244 0.0136638 2.02308e-15)
(0.987902 0.0808846 -1.89603e-17)
(0.938767 0.152933 1.25898e-15)
(0.857834 0.169712 2.76934e-15)
(0.781088 0.167533 2.44517e-15)
(0.701921 0.160167 1.79125e-15)
(0.625201 0.150813 -4.10765e-16)
(0.551177 0.140047 -3.19512e-15)
(0.48084 0.128269 -1.86888e-15)
(0.414919 0.115883 7.62928e-16)
(0.353985 0.103302 2.64445e-15)
(0.298394 0.0909118 1.94718e-15)
(0.248294 0.0790584 1.34635e-16)
(0.203636 0.0680292 -1.45787e-15)
(0.164189 0.0580497 1.65514e-16)
(0.129568 0.0492887 1.35205e-15)
(0.09925 0.0418812 1.33201e-15)
(0.0725548 0.0359725 3.45952e-15)
(0.0485342 0.0316924 7.2167e-15)
(0.0262263 0.0284382 1.04049e-14)
(0.00629888 0.0206068 3.69341e-15)
(0.987336 0.113339 9.43806e-16)
(0.933555 0.211536 1.22505e-15)
(0.849135 0.233298 9.68298e-16)
(0.769182 0.229498 6.29304e-16)
(0.687293 0.218683 1.46646e-15)
(0.608635 0.20518 8.29093e-16)
(0.533307 0.189766 -6.51906e-16)
(0.462382 0.173057 -7.68289e-16)
(0.396537 0.155642 1.09511e-15)
(0.336267 0.138107 1.59898e-15)
(0.281816 0.120985 1.08267e-15)
(0.233217 0.104738 -3.41463e-16)
(0.190299 0.0897341 -2.22444e-16)
(0.152727 0.0762532 1.53482e-16)
(0.120028 0.0644932 2.13078e-16)
(0.0916182 0.0546056 4.84037e-16)
(0.0667778 0.0467559 5.55201e-16)
(0.0445576 0.0410884 1.26622e-15)
(0.0240119 0.0367929 3.0892e-15)
(0.00574125 0.0266018 1.42643e-16)
(0.986445 0.147875 4.58481e-16)
(0.926516 0.271637 8.63331e-16)
(0.83746 0.29733 -1.9106e-16)
(0.753306 0.291058 -4.95263e-16)
(0.668009 0.276119 -1.0913e-16)
(0.587008 0.257814 5.169e-16)
(0.51022 0.237167 3.77536e-16)
(0.438796 0.215053 2.56986e-16)
(0.373305 0.192279 6.57493e-16)
(0.314111 0.169612 9.9998e-16)
(0.261299 0.147724 3.70304e-16)
(0.214734 0.127169 -7.35466e-16)
(0.174094 0.10837 -7.0218e-16)
(0.138911 0.0916266 1.59602e-16)
(0.108612 0.0771341 9.39666e-16)
(0.0825398 0.0650325 2.53078e-15)
(0.0599406 0.0554806 2.82957e-15)
(0.0398715 0.0486124 2.01012e-15)
(0.0214148 0.043427 9.93951e-16)
(0.0050971 0.0313184 -1.22497e-16)
(0.985073 0.185374 1.08284e-17)
(0.917323 0.334006 -5.60058e-17)
(0.82247 0.362264 -8.1636e-16)
(0.733181 0.352469 -9.21417e-16)
(0.643941 0.332537 -5.42604e-16)
(0.56035 0.308617 4.82007e-16)
(0.482137 0.282037 3.01389e-16)
(0.410489 0.253988 6.66213e-18)
(0.345784 0.22551 -4.18145e-16)
(0.288193 0.197555 -6.12795e-16)
(0.237581 0.170909 -5.48153e-16)
(0.193602 0.146187 -3.31534e-16)
(0.155751 0.123825 -2.01863e-16)
(0.123414 0.104105 -2.97693e-17)
(0.0959065 0.0871856 7.24174e-16)
(0.0725045 0.0731651 2.26243e-15)
(0.0524246 0.0621693 3.11448e-15)
(0.0347447 0.0542983 2.11513e-15)
(0.0185892 0.0483804 -1.14709e-15)
(0.0044013 0.034796 -2.34021e-15)
(0.983056 0.226924 -1.00706e-16)
(0.9056 0.399621 -6.27479e-16)
(0.803715 0.428749 -1.18211e-15)
(0.708397 0.414134 -8.70117e-16)
(0.614813 0.38812 -4.1842e-17)
(0.528561 0.357593 3.47739e-16)
(0.449169 0.324273 -3.76486e-17)
(0.377767 0.289708 -7.62533e-16)
(0.314443 0.255185 -8.18142e-16)
(0.259095 0.22182 -9.68103e-16)
(0.211305 0.190477 -9.17073e-16)
(0.170477 0.161781 -5.90711e-16)
(0.135902 0.136137 -4.02141e-16)
(0.106809 0.113765 -3.9702e-16)
(0.0824101 0.0947503 2.87476e-16)
(0.0619221 0.0791218 9.27141e-16)
(0.0445467 0.0669478 1.37941e-15)
(0.0293984 0.0582746 9.97507e-16)
(0.0156591 0.0517817 -8.93806e-16)
(0.00368456 0.0371383 -1.49586e-15)
(0.980165 0.27368 -3.81155e-16)
(0.890842 0.469389 -1.05463e-15)
(0.780588 0.497287 -1.07613e-15)
(0.678403 0.476257 -2.90253e-16)
(0.580237 0.44282 3.47637e-16)
(0.491478 0.40453 2.23593e-16)
(0.411403 0.363586 -4.21736e-16)
(0.340937 0.321927 -1.00354e-15)
(0.279753 0.281074 -7.29142e-16)
(0.227392 0.242261 -7.15563e-16)
(0.183091 0.206368 -7.77112e-16)
(0.145975 0.173972 -1.09463e-15)
(0.11512 0.145389 -1.27685e-15)
(0.0896055 0.120733 -1.3588e-15)
(0.0685544 0.0999823 -2.92966e-16)
(0.0511409 0.0830699 3.85176e-16)
(0.0365711 0.0699872 3.89494e-16)
(0.0240141 0.0607113 5.3192e-17)
(0.0127253 0.0537974 -5.81076e-16)
(0.00297187 0.0384769 -1.3747e-16)
(0.976085 0.326946 -3.50864e-16)
(0.872375 0.544178 -8.93538e-16)
(0.752307 0.568247 -7.7113e-16)
(0.642525 0.538846 7.15006e-18)
(0.539772 0.496383 4.44305e-16)
(0.44895 0.449032 2.37434e-16)
(0.368978 0.399561 -2.76975e-16)
(0.300364 0.350294 -4.8905e-16)
(0.242235 0.302935 -2.90458e-16)
(0.193683 0.258757 -2.77716e-16)
(0.153553 0.218574 -7.2794e-16)
(0.120679 0.182842 -1.56226e-15)
(0.0939284 0.151727 -2.05161e-15)
(0.0722529 0.125194 -1.63621e-15)
(0.0547075 0.103085 -1.18028e-15)
(0.04045 0.0852169 -7.46023e-16)
(0.0287121 0.0714906 -5.00788e-16)
(0.0187364 0.0618047 -5.92007e-16)
(0.00986594 0.0546159 -1.39588e-16)
(0.00228218 0.0389575 7.44988e-16)
(0.970388 0.388252 -3.70191e-16)
(0.849317 0.624851 -6.60799e-16)
(0.7179 0.64186 -2.89624e-16)
(0.599984 0.601713 2.03875e-16)
(0.492964 0.548354 3.30937e-16)
(0.40089 0.490552 1.84208e-16)
(0.322125 0.4317 -5.19952e-17)
(0.256504 0.374439 -7.78834e-17)
(0.202469 0.320555 -5.49997e-17)
(0.158589 0.271245 -2.59456e-16)
(0.123293 0.227156 -7.35926e-16)
(0.095133 0.188538 -1.33593e-15)
(0.0727948 0.155353 -1.76847e-15)
(0.0551345 0.127377 -1.56532e-15)
(0.0411733 0.104294 -9.44647e-16)
(0.0300807 0.0857923 -5.71505e-16)
(0.0211372 0.0716755 -5.42165e-16)
(0.0136755 0.0617601 -3.11398e-16)
(0.0071392 0.0544309 4.33796e-16)
(0.00162908 0.0387267 8.39597e-16)
(0.962486 0.459438 -2.03353e-16)
(0.820508 0.712264 -2.36779e-16)
(0.676177 0.718179 -1.26128e-16)
(0.549917 0.664424 2.05032e-16)
(0.4394 0.598057 2.24685e-16)
(0.347327 0.528404 2.14367e-16)
(0.271206 0.459451 1.31516e-16)
(0.209915 0.394005 8.50791e-17)
(0.161095 0.333779 -2.77324e-17)
(0.122745 0.279739 -2.98139e-16)
(0.0928885 0.232247 -7.14962e-16)
(0.069831 0.19127 -1.00154e-15)
(0.0521226 0.156515 -1.09232e-15)
(0.0385681 0.127542 -8.95666e-16)
(0.0281932 0.103861 -2.55106e-16)
(0.02021 0.0850334 -7.8943e-17)
(0.0139698 0.0707602 -3.73348e-16)
(0.00891039 0.0607793 -1.50912e-17)
(0.00458539 0.0534295 8.00376e-16)
(0.00102165 0.0379242 6.49059e-16)
(0.951544 0.542768 -8.86682e-17)
(0.784405 0.807231 -3.03386e-17)
(0.625696 0.797003 6.58367e-17)
(0.491413 0.726249 1.24167e-16)
(0.378771 0.644594 2.01529e-17)
(0.288458 0.561787 1.96567e-16)
(0.216741 0.482248 1.24848e-16)
(0.161267 0.408693 -6.64682e-18)
(0.118805 0.342534 -2.3305e-16)
(0.0867859 0.284332 -4.6685e-16)
(0.0628795 0.234049 -6.38426e-16)
(0.045208 0.191298 -6.80756e-16)
(0.0322478 0.155492 -7.27716e-16)
(0.0228043 0.125962 -2.45038e-16)
(0.0159485 0.102046 2.00073e-16)
(0.0109647 0.0831732 2.30754e-16)
(0.00729518 0.0689538 -2.47981e-16)
(0.00449328 0.0590517 -1.76007e-16)
(0.00222981 0.0517852 5.35314e-16)
(0.000465216 0.0366771 4.01285e-16)
(0.936338 0.641118 4.95291e-17)
(0.738923 0.91044 2.08655e-16)
(0.564755 0.877774 2.10529e-16)
(0.423581 0.786094 6.37948e-17)
(0.310953 0.686845 -5.97161e-17)
(0.224699 0.589831 1.22026e-16)
(0.159422 0.499571 5.16573e-17)
(0.111322 0.418293 -7.11699e-17)
(0.0763146 0.346855 -3.47231e-16)
(0.0513194 0.285212 -4.29335e-16)
(0.0337494 0.232833 -4.06787e-16)
(0.0216294 0.188925 -3.01923e-16)
(0.0134353 0.152587 -3.88164e-16)
(0.00802869 0.122921 -1.43588e-16)
(0.00456492 0.099098 2.89481e-16)
(0.00242712 0.0804326 9.11684e-17)
(0.00116456 0.0664494 -6.09337e-16)
(0.000453554 0.0567492 -6.8132e-16)
(8.54815e-05 0.0496534 -7.71414e-17)
(-3.78538e-05 0.0350984 2.14487e-16)
(0.915011 0.758288 1.20598e-16)
(0.681217 1.02226 3.86342e-16)
(0.491415 0.959447 2.76638e-16)
(0.345645 0.842454 -1.75219e-17)
(0.236099 0.723514 -2.99011e-17)
(0.156719 0.611666 5.33937e-17)
(0.100105 0.510998 -4.01825e-17)
(0.0609173 0.422729 -1.59825e-16)
(0.0343381 0.346891 -2.63311e-16)
(0.0169037 0.282652 -2.1927e-16)
(0.0059102 0.228925 -2.04745e-16)
(-0.000615532 0.18448 -1.91207e-16)
(-0.00412062 0.148107 -2.74373e-16)
(-0.00563416 0.118692 -1.84397e-16)
(-0.00588145 0.0952562 1.24865e-16)
(-0.00535887 0.0770144 1.23541e-17)
(-0.00439855 0.0634204 -6.11049e-16)
(-0.00319773 0.0540238 -7.81479e-16)
(-0.00184395 0.0471686 -2.5747e-16)
(-0.000487241 0.0332837 1.37481e-16)
(0.884667 0.89941 1.0632e-16)
(0.607354 1.14234 4.06195e-16)
(0.403617 1.04035 2.52305e-16)
(0.257081 0.893366 -7.89806e-17)
(0.154733 0.753196 -3.89777e-17)
(0.0854599 0.6265 -6.29711e-17)
(0.0397915 0.516272 -8.16045e-17)
(0.0109162 0.422086 -1.28722e-16)
(-0.00645278 0.342896 -1.00882e-16)
(-0.0159765 0.277001 -3.88642e-17)
(-0.0203078 0.222689 5.44305e-17)
(-0.0213153 0.178306 -5.28979e-17)
(-0.0202927 0.142357 -1.31246e-16)
(-0.0181142 0.113535 -1.30402e-16)
(-0.0153567 0.0907375 1.20068e-16)
(-0.0123807 0.073099 -1.04059e-17)
(-0.00939248 0.0600181 -4.14642e-16)
(-0.0064639 0.0510063 -5.23997e-16)
(-0.00356308 0.0444454 -2.73083e-16)
(-0.000884796 0.0313133 -1.03709e-18)
(0.840715 1.07189 1.75247e-16)
(0.511899 1.26909 3.85539e-16)
(0.299459 1.11805 1.60088e-16)
(0.157763 0.936447 -5.55308e-17)
(0.0678455 0.774504 -8.0647e-17)
(0.0121256 0.633729 -6.42503e-17)
(-0.0204213 0.515298 1.02492e-18)
(-0.0378443 0.416598 2.22732e-17)
(-0.0454618 0.335255 2.88547e-17)
(-0.0469191 0.268668 1.47913e-16)
(-0.0446613 0.214512 1.5685e-16)
(-0.0403334 0.170744 8.32823e-17)
(-0.0350147 0.135624 -3.29775e-17)
(-0.0293878 0.107687 -7.50283e-17)
(-0.0238615 0.0857351 9.31066e-18)
(-0.0186503 0.0688433 -1.83012e-17)
(-0.0138327 0.0563713 -6.60244e-17)
(-0.00935879 0.0478053 -1.66939e-16)
(-0.00508128 0.0415786 -1.38521e-16)
(-0.00123326 0.0292536 -1.46633e-16)
(0.775858 1.28477 1.57545e-16)
(0.387082 1.39858 3.32898e-16)
(0.177619 1.18925 1.01742e-16)
(0.048128 0.969001 -5.98572e-17)
(-0.023072 0.786042 -7.3217e-17)
(-0.0618917 0.632973 9.06678e-18)
(-0.0794209 0.508254 9.42612e-17)
(-0.0845647 0.406657 1.66102e-16)
(-0.0821829 0.324445 2.53149e-16)
(-0.0756349 0.258099 3.15936e-16)
(-0.0669956 0.204782 4.35083e-16)
(-0.0576029 0.162119 3.3325e-16)
(-0.0482723 0.128172 1.31792e-16)
(-0.0394694 0.101359 -4.89276e-17)
(-0.031423 0.0804161 -1.1143e-16)
(-0.0241982 0.0643798 3.56248e-17)
(-0.0177466 0.0525866 2.03196e-17)
(-0.0119034 0.0445099 1.47518e-16)
(-0.00641131 0.0386451 -4.72226e-17)
(-0.00153613 0.0271576 -2.06572e-16)
(0.680713 1.5545 1.91789e-16)
(0.222482 1.52582 2.90591e-16)
(0.0380813 1.24915 6.17738e-17)
(-0.0706606 0.988272 -7.55672e-17)
(-0.116047 0.786819 -8.13384e-17)
(-0.134976 0.624206 3.1162e-17)
(-0.136113 0.495573 1.98203e-16)
(-0.128583 0.392808 3.15492e-16)
(-0.116238 0.310976 4.60896e-16)
(-0.101935 0.245747 5.65835e-16)
(-0.0872367 0.193875 6.73292e-16)
(-0.0731168 0.152731 5.9755e-16)
(-0.0600936 0.120237 3.54393e-16)
(-0.0484024 0.0947342 8.27512e-17)
(-0.0380882 0.0749216 -5.50043e-17)
(-0.0290675 0.0598182 1.09522e-18)
(-0.0211696 0.048751 2.26775e-16)
(-0.0141234 0.0411916 3.45845e-16)
(-0.00756804 0.0357057 7.1678e-17)
(-0.0017973 0.0250664 -2.19127e-16)
(0.529001 1.8799 1.92292e-16)
(0.00187455 1.63995 2.35952e-16)
(-0.118466 1.28929 2.51946e-17)
(-0.196223 0.991499 -1.05655e-16)
(-0.20866 0.776358 -2.58354e-17)
(-0.205536 0.607842 9.13974e-17)
(-0.189541 0.477872 2.9338e-16)
(-0.169383 0.375686 4.45791e-16)
(-0.14738 0.295391 5.67948e-16)
(-0.125728 0.232054 7.38702e-16)
(-0.105381 0.182138 8.56854e-16)
(-0.0869161 0.142847 7.55294e-16)
(-0.0705388 0.112022 4.8976e-16)
(-0.0562513 0.0879663 1.74135e-16)
(-0.0439167 0.0693679 1.55267e-17)
(-0.0333091 0.0552471 1.42408e-16)
(-0.0241418 0.0449335 3.34297e-16)
(-0.0160468 0.0379065 4.22384e-16)
(-0.00856723 0.0328073 2.13472e-16)
(-0.00202074 0.0230118 -1.60118e-16)
(0.389128 2.30125 1.98987e-16)
(-0.291331 1.7463 1.63708e-16)
(-0.288103 1.30008 -4.62369e-17)
(-0.323935 0.9768 -1.06941e-16)
(-0.298193 0.754498 2.42684e-17)
(-0.272066 0.584589 1.95691e-16)
(-0.238953 0.455902 3.59798e-16)
(-0.206614 0.35596 4.9237e-16)
(-0.17549 0.278226 6.87944e-16)
(-0.147009 0.217433 8.39538e-16)
(-0.121483 0.169882 9.2495e-16)
(-0.0990789 0.1327 8.59695e-16)
(-0.0796907 0.1037 5.82052e-16)
(-0.0630932 0.0811826 2.52646e-16)
(-0.0489756 0.0638494 7.18964e-17)
(-0.0369775 0.050737 2.2477e-16)
(-0.0267048 0.0411878 4.74794e-16)
(-0.0177021 0.0346968 5.93833e-16)
(-0.00942457 0.0299862 2.93952e-16)
(-0.00221018 0.0210167 -3.41762e-17)
(0.114705 -0.0219314 -3.55935e-19)
(0.123712 -0.0692537 -4.21052e-18)
(0.139803 -0.130894 -1.72218e-17)
(0.157883 -0.209208 -2.38306e-17)
(0.173064 -0.293518 -1.76011e-17)
(0.189317 -0.363059 -3.56365e-18)
(0.240438 -0.384044 1.03521e-17)
(0.389455 -0.325549 2.08411e-17)
(0.0858056 -0.0214846 -8.09149e-21)
(0.0921379 -0.0659129 -1.73916e-18)
(0.0994882 -0.119991 -9.99742e-18)
(0.102334 -0.185033 -1.62933e-17)
(0.0947983 -0.256532 -1.03434e-17)
(0.076525 -0.32303 -8.48071e-18)
(0.0650523 -0.363002 -1.32142e-17)
(0.0962394 -0.360988 -2.32225e-17)
(0.0586565 -0.0208008 -2.44411e-19)
(0.0630295 -0.0608918 -1.07942e-18)
(0.0644799 -0.106968 -5.40776e-18)
(0.060577 -0.159186 -6.69912e-18)
(0.0463274 -0.215689 -4.23903e-18)
(0.0199255 -0.270072 -3.14546e-18)
(-0.0105464 -0.309955 -1.87729e-17)
(-0.0228382 -0.326009 -3.36744e-17)
(0.0339454 -0.0201724 -1.60873e-19)
(0.037323 -0.0548677 -1.90182e-18)
(0.0345952 -0.0939185 -4.28884e-18)
(0.0273191 -0.1365 -2.07659e-18)
(0.0115954 -0.181611 3.30346e-18)
(-0.0141802 -0.225464 4.50574e-18)
(-0.0453722 -0.261043 -8.20738e-18)
(-0.0695218 -0.282303 -2.40862e-17)
(0.0129854 -0.0188822 -4.81224e-19)
(0.0152956 -0.0484654 -1.26902e-18)
(0.00981264 -0.0812821 -2.06495e-18)
(0.000859512 -0.116106 1.16469e-19)
(-0.0151668 -0.152194 5.17604e-18)
(-0.0389251 -0.187291 9.08039e-18)
(-0.0673708 -0.217133 4.49924e-18)
(-0.0932109 -0.238535 -8.38295e-18)
(-0.00587725 -0.0200228 -8.22951e-19)
(-0.00462133 -0.0424626 1.50674e-19)
(-0.0110658 -0.0696572 1.52729e-18)
(-0.0209277 -0.0984063 5.49602e-19)
(-0.0368153 -0.127698 -4.88735e-19)
(-0.058733 -0.156083 2.73937e-18)
(-0.0846601 -0.181093 2.63484e-18)
(-0.10974 -0.200731 -3.85397e-18)
(-0.0219862 -0.0178799 -6.64232e-19)
(-0.0220085 -0.0367486 2.8543e-18)
(-0.0282685 -0.0590406 6.79837e-18)
(-0.0386801 -0.0824942 3.17596e-19)
(-0.0543047 -0.106169 -8.05103e-18)
(-0.0749614 -0.129109 -9.13392e-18)
(-0.0993025 -0.149926 -7.82727e-18)
(-0.12362 -0.167076 -1.04115e-17)
(-0.0338272 -0.0166471 5.92086e-19)
(-0.0357104 -0.0314071 4.72799e-18)
(-0.0422471 -0.049423 8.30103e-18)
(-0.0530331 -0.0682705 9.05107e-19)
(-0.0684327 -0.0872562 -1.05532e-17)
(-0.088268 -0.105713 -1.43555e-17)
(-0.111666 -0.122839 -1.50592e-17)
(-0.135496 -0.137337 -1.34297e-17)
(-0.0430857 -0.0146068 1.5412e-18)
(-0.0464712 -0.0261936 2.60416e-18)
(-0.0534073 -0.0404499 2.96543e-19)
(-0.0644564 -0.0552939 -7.05681e-18)
(-0.0796976 -0.0702487 -9.57561e-18)
(-0.099008 -0.0848521 -9.49003e-18)
(-0.121853 -0.0986128 -1.21788e-17)
(-0.145412 -0.110448 -1.44524e-17)
(-0.0503012 -0.0121783 1.79192e-18)
(-0.0547818 -0.0210838 -1.71202e-19)
(-0.0620957 -0.0320044 -9.0445e-18)
(-0.0733461 -0.0433491 -1.61486e-17)
(-0.088485 -0.0547883 -9.36099e-18)
(-0.107453 -0.0660018 -1.45432e-18)
(-0.129952 -0.076662 -4.36733e-18)
(-0.153349 -0.0858968 -5.65731e-18)
(-0.0556631 -0.00956639 1.35299e-18)
(-0.0609137 -0.0160601 -9.58279e-19)
(-0.0685352 -0.0240054 -1.18225e-17)
(-0.0799252 -0.0322466 -1.7545e-17)
(-0.0949769 -0.0405622 -6.61094e-18)
(-0.113678 -0.0487387 4.9544e-18)
(-0.135898 -0.0565434 3.34868e-18)
(-0.15913 -0.0632952 1.96402e-18)
(-0.0588509 -0.00688537 9.91763e-19)
(-0.0645849 -0.0111477 1.41184e-18)
(-0.0723579 -0.0164145 -6.72002e-18)
(-0.0837128 -0.0218723 -1.34464e-17)
(-0.0985335 -0.027375 -5.93246e-18)
(-0.116842 -0.0328032 1.24716e-18)
(-0.138608 -0.0379919 -5.20193e-18)
(-0.161432 -0.042378 -1.29021e-17)
(-0.0575079 -0.00423279 1.77001e-18)
(-0.0632668 -0.00645233 -3.02218e-19)
(-0.0706817 -0.00934701 -9.56207e-18)
(-0.0813434 -0.0123669 -1.51292e-17)
(-0.09518 -0.0154081 -8.84691e-18)
(-0.11224 -0.0184274 -4.07803e-18)
(-0.132479 -0.0213199 -1.46209e-17)
(-0.153654 -0.0235075 -3.11299e-17)
(-0.043593 -0.00181891 1.94949e-18)
(-0.0483994 -0.00234783 -1.79997e-18)
(-0.0541224 -0.00322418 -6.81896e-18)
(-0.0622719 -0.0040995 -4.73977e-18)
(-0.072801 -0.00484584 3.29118e-18)
(-0.0857168 -0.00550035 4.46449e-18)
(-0.100716 -0.00623457 -1.11221e-17)
(-0.115924 -0.00667352 -3.26206e-17)
(-0.00746364 -0.0001389 1.23145e-18)
(-0.00958273 0.000123722 -4.68656e-19)
(-0.0112796 0.000244205 -2.17625e-18)
(-0.0136013 0.000379999 -1.09055e-18)
(-0.01649 0.000480411 3.89536e-18)
(-0.0201364 0.000361579 5.83131e-18)
(-0.0240945 -0.000256778 -5.32303e-19)
(-0.0269466 -0.000785061 -1.23674e-17)
(0.545681 -0.214506 2.93246e-17)
(0.576196 -0.174095 2.56912e-17)
(0.596518 -0.156469 2.27201e-17)
(0.614881 -0.146703 2.00418e-17)
(0.629393 -0.139844 1.8953e-17)
(0.641452 -0.134525 2.09501e-17)
(0.651787 -0.130236 1.4784e-17)
(0.660868 -0.126663 5.9785e-18)
(0.669017 -0.123595 1.38835e-17)
(0.676468 -0.120885 2.09778e-17)
(0.683386 -0.118431 1.79432e-17)
(0.68989 -0.116164 1.49775e-17)
(0.696063 -0.114033 1.23841e-17)
(0.701962 -0.112004 6.40447e-18)
(0.70762 -0.11005 -2.44726e-19)
(0.713049 -0.108155 9.61593e-18)
(0.718234 -0.106306 1.2607e-17)
(0.723127 -0.104498 1.63559e-17)
(0.727632 -0.102737 1.87571e-17)
(0.731595 -0.101051 4.07253e-17)
(0.734804 -0.099497 4.95422e-17)
(0.737033 -0.0981647 4.94546e-17)
(0.738143 -0.097159 4.71137e-18)
(0.738286 -0.09655 -4.1561e-17)
(0.738208 -0.096289 -4.51872e-17)
(0.73965 -0.0961221 -6.30622e-17)
(0.745767 -0.095521 -7.65749e-17)
(0.761433 -0.0936326 -4.87437e-17)
(0.793389 -0.0893604 -2.52898e-17)
(0.849588 -0.0811265 -1.01219e-16)
(0.937337 -0.0667094 -7.42856e-17)
(1.06059 -0.0434852 -6.18821e-17)
(1.21725 -0.00856278 2.45282e-18)
(1.39758 0.0395289 -5.52961e-17)
(1.58398 0.0993276 -1.03651e-17)
(1.75159 0.165913 -4.7011e-17)
(1.87116 0.230341 5.39435e-17)
(1.91567 0.280234 -2.16591e-16)
(1.8643 0.300836 -6.40794e-18)
(1.7277 0.282994 1.69653e-16)
(1.53786 0.230487 7.73514e-17)
(1.34457 0.160375 -7.28794e-17)
(1.19627 0.0949955 5.41781e-17)
(1.11825 0.0511698 6.24311e-17)
(1.10915 0.0330507 7.97016e-17)
(1.15078 0.0353574 6.74245e-17)
(1.21933 0.046378 4.10397e-17)
(1.28852 0.0566006 1.57412e-17)
(1.78562 0.0637868 1.87973e-17)
(0.308676 0.0761719 1.13495e-16)
(0.146661 -0.332487 -1.62335e-17)
(0.155484 -0.309282 -8.66426e-18)
(0.162335 -0.297469 5.21784e-18)
(0.168735 -0.289306 1.3369e-17)
(0.174407 -0.283378 1.66082e-17)
(0.179484 -0.278989 2.23529e-17)
(0.184085 -0.275681 2.99062e-17)
(0.188322 -0.273137 3.09314e-17)
(0.192285 -0.271133 2.07905e-17)
(0.196055 -0.269506 5.68378e-18)
(0.199695 -0.26814 -9.31999e-18)
(0.203257 -0.266945 -1.83651e-17)
(0.20678 -0.265858 -2.01439e-17)
(0.210287 -0.264824 -1.82161e-17)
(0.213788 -0.263802 -1.87394e-17)
(0.217268 -0.262754 -2.27481e-17)
(0.220676 -0.261649 -3.38168e-17)
(0.223886 -0.260458 -4.38388e-17)
(0.226663 -0.259166 -5.61921e-17)
(0.228632 -0.257776 -6.66386e-17)
(0.229322 -0.256341 -7.84839e-17)
(0.228326 -0.254993 -1.05734e-16)
(0.225644 -0.253997 -1.23751e-16)
(0.222224 -0.253797 -1.676e-16)
(0.220655 -0.25505 -1.559e-16)
(0.225839 -0.258505 -1.28464e-16)
(0.245199 -0.264613 -9.82722e-17)
(0.287974 -0.272963 -1.11408e-16)
(0.364077 -0.281978 -6.25024e-17)
(0.481608 -0.287405 -3.69601e-17)
(0.644816 -0.283497 1.75786e-17)
(0.852483 -0.263488 1.40772e-16)
(1.09709 -0.219567 2.09727e-16)
(1.36423 -0.14552 3.48377e-16)
(1.63371 -0.0390101 3.54109e-16)
(1.88081 0.0964946 3.61142e-16)
(2.07813 0.249519 5.22375e-16)
(2.2002 0.400621 5.62787e-16)
(2.23019 0.520033 6.07241e-16)
(2.15349 0.57606 4.87403e-16)
(1.97687 0.551887 3.42262e-16)
(1.74168 0.450428 1.89781e-16)
(1.5164 0.308693 1.58836e-16)
(1.36428 0.177943 1.24455e-16)
(1.31052 0.0937003 1.28607e-16)
(1.3349 0.061747 9.33738e-17)
(1.38151 0.0586341 3.45785e-17)
(1.43291 0.0547245 2.07228e-17)
(1.22977 0.193783 1.06783e-16)
(-0.640607 0.631718 1.58251e-16)
(-0.0211578 -0.329946 -2.77518e-17)
(-0.0286913 -0.323803 -9.9141e-18)
(-0.034115 -0.32042 1.3268e-17)
(-0.0389614 -0.318448 3.80276e-17)
(-0.0434524 -0.317645 4.8073e-17)
(-0.0478886 -0.317755 4.91884e-17)
(-0.0523974 -0.318576 3.99662e-17)
(-0.0570441 -0.319954 2.35032e-17)
(-0.0618534 -0.321765 1.60433e-18)
(-0.0668286 -0.323906 -1.77257e-17)
(-0.07196 -0.32629 -2.63063e-17)
(-0.0772359 -0.328839 -3.45554e-17)
(-0.0826522 -0.331492 -4.66622e-17)
(-0.0882123 -0.334199 -5.96543e-17)
(-0.0939374 -0.336912 -8.36967e-17)
(-0.0998949 -0.339569 -1.15546e-16)
(-0.106244 -0.342076 -1.4195e-16)
(-0.113282 -0.344287 -1.6173e-16)
(-0.121441 -0.34602 -1.65528e-16)
(-0.131173 -0.347139 -1.6434e-16)
(-0.142678 -0.34771 -1.63594e-16)
(-0.155466 -0.348245 -1.80925e-16)
(-0.167815 -0.349936 -1.67017e-16)
(-0.176285 -0.35474 -1.50341e-16)
(-0.175538 -0.365097 -1.38079e-16)
(-0.158704 -0.38321 -1.01373e-16)
(-0.118457 -0.410084 -5.24158e-17)
(-0.0484218 -0.444655 2.24603e-17)
(0.0570527 -0.483296 1.09219e-16)
(0.201182 -0.520138 1.85224e-16)
(0.383806 -0.547539 2.465e-16)
(0.601939 -0.555574 3.1347e-16)
(0.847799 -0.533107 4.4443e-16)
(1.10841 -0.469688 4.38674e-16)
(1.36625 -0.357561 5.8122e-16)
(1.60053 -0.197565 4.94763e-16)
(1.79004 -0.00128132 6.06136e-16)
(1.91726 0.208594 3.51948e-16)
(1.9744 0.404927 3.40837e-16)
(1.95671 0.553727 3.77633e-16)
(1.86172 0.612125 4.03226e-16)
(1.70256 0.559404 4.00176e-16)
(1.52822 0.419211 2.76847e-16)
(1.39708 0.25299 1.76285e-16)
(1.33574 0.121373 1.78338e-16)
(1.30873 0.0502112 1.50911e-16)
(1.23753 0.0313096 1.17196e-16)
(1.00758 0.0956144 1.11109e-16)
(0.0544858 0.396439 1.94571e-16)
(-1.42119 1.06196 2.19833e-16)
(-0.084919 -0.29534 -1.89518e-17)
(-0.0994184 -0.296846 3.15055e-18)
(-0.110854 -0.298054 3.15733e-17)
(-0.121759 -0.299588 5.38671e-17)
(-0.132468 -0.301695 6.34316e-17)
(-0.143239 -0.30436 6.17186e-17)
(-0.154214 -0.307539 4.87665e-17)
(-0.165501 -0.311181 2.72684e-17)
(-0.177186 -0.315234 3.11929e-18)
(-0.189337 -0.31965 -1.82606e-17)
(-0.20202 -0.324391 -3.48044e-17)
(-0.215288 -0.329414 -5.36887e-17)
(-0.229192 -0.33468 -7.71802e-17)
(-0.243795 -0.340136 -1.14867e-16)
(-0.259203 -0.345699 -1.46602e-16)
(-0.275603 -0.351216 -1.72803e-16)
(-0.293279 -0.356457 -1.77091e-16)
(-0.312556 -0.36116 -1.6357e-16)
(-0.333639 -0.365187 -1.39307e-16)
(-0.35633 -0.368746 -1.23765e-16)
(-0.379706 -0.372657 -1.2614e-16)
(-0.401882 -0.378528 -1.28258e-16)
(-0.41993 -0.388751 -1.32162e-16)
(-0.43003 -0.406232 -1.18302e-16)
(-0.427907 -0.433832 -8.03936e-17)
(-0.409174 -0.473645 1.97914e-18)
(-0.369612 -0.526308 1.21944e-16)
(-0.305357 -0.590312 2.18963e-16)
(-0.213033 -0.661352 2.85063e-16)
(-0.0903522 -0.733043 3.04676e-16)
(0.0635319 -0.795471 2.62398e-16)
(0.246823 -0.835923 2.6073e-16)
(0.452871 -0.839736 3.11604e-16)
(0.6703 -0.791124 3.56422e-16)
(0.884366 -0.679104 4.18714e-16)
(1.07836 -0.502307 4.49125e-16)
(1.23581 -0.274107 2.0245e-16)
(1.34556 -0.0225321 3.12015e-16)
(1.40623 0.218233 3.64268e-16)
(1.41723 0.415534 4.27783e-16)
(1.38629 0.525025 6.01488e-16)
(1.319 0.517902 5.60111e-16)
(1.23676 0.399942 3.66878e-16)
(1.16927 0.228849 1.96931e-16)
(1.10436 0.0803494 1.39392e-16)
(0.972616 0.00599645 1.56362e-16)
(0.669574 0.0365274 9.14719e-17)
(-0.000217633 0.231718 1.48054e-16)
(-1.11447 0.660996 1.93363e-16)
(-2.02664 1.32062 1.78552e-16)
(-0.113348 -0.252915 -1.15904e-17)
(-0.130142 -0.25744 4.73411e-18)
(-0.143953 -0.260751 2.35335e-17)
(-0.157363 -0.263963 4.13012e-17)
(-0.17084 -0.267451 5.10025e-17)
(-0.184628 -0.271279 5.15829e-17)
(-0.19887 -0.27546 3.93573e-17)
(-0.213689 -0.279989 1.91562e-17)
(-0.229197 -0.28485 1.93728e-18)
(-0.245502 -0.290028 -1.4836e-17)
(-0.26271 -0.295508 -3.14887e-17)
(-0.280938 -0.301276 -6.03844e-17)
(-0.300318 -0.307305 -1.00048e-16)
(-0.321019 -0.313527 -1.39689e-16)
(-0.343264 -0.319812 -1.64016e-16)
(-0.367322 -0.325969 -1.63639e-16)
(-0.39344 -0.331815 -1.51182e-16)
(-0.421704 -0.337319 -1.24575e-16)
(-0.451875 -0.342803 -1.04359e-16)
(-0.48327 -0.349119 -9.26247e-17)
(-0.514776 -0.357759 -1.19251e-16)
(-0.544952 -0.370882 -1.37486e-16)
(-0.572118 -0.391238 -1.24609e-16)
(-0.594303 -0.421981 -7.84711e-17)
(-0.609015 -0.466261 2.30504e-17)
(-0.613127 -0.526574 1.1881e-16)
(-0.602892 -0.60389 2.06281e-16)
(-0.574247 -0.696746 2.58288e-16)
(-0.523358 -0.800591 2.34622e-16)