/*--------------------------------*- C++ -*----------------------------------*\
  =========                 |
  \\      /  F ield         | OpenFOAM: The Open Source CFD Toolbox
   \\    /   O peration     | Website:  https://openfoam.org
    \\  /    A nd           | Version:  13
     \\/     M anipulation  |
\*---------------------------------------------------------------------------*/
FoamFile
{
    format      ascii;
    class       surfaceVectorField;
    location    "0.0009";
    object      Uf;
}
// * * * * * * * * * * * * * * * * * * * * * * * * * * * * * * * * * * * * * //

dimensions      [0 1 -1 0 0 0 0];

internalField   nonuniform List<vector> 
3252
(
(0.274313 -0.00292208 -4.57942e-18)
(0.257931 -0.00227884 2.40988e-18)
(0.3252 -0.00627423 -1.40176e-17)
(0.289246 -0.00730078 -6.56533e-18)
(0.417844 -0.010192 5.22934e-17)
(0.360087 -0.0132917 -2.39734e-17)
(0.558345 -0.0139701 3.84556e-17)
(0.475518 -0.0201577 1.01204e-16)
(0.73753 -0.0156495 4.66493e-17)
(0.642344 -0.0257083 -3.59445e-17)
(0.916483 -0.0123547 9.63743e-17)
(0.831744 -0.0257077 1.11673e-16)
(1.02017 -0.00381852 3.59858e-17)
(0.998196 -0.0149797 4.46535e-17)
(1.04081 0.00277558 8.4822e-18)
(0.272844 -0.00761818 2.09175e-18)
(0.255721 -0.00456462 8.44089e-19)
(0.323229 -0.0163668 -1.73557e-17)
(0.286752 -0.0144937 4.03514e-18)
(0.415224 -0.0266122 1.58178e-17)
(0.357225 -0.0264436 -2.76922e-17)
(0.555791 -0.0366169 2.29175e-17)
(0.472752 -0.0403297 3.68604e-17)
(0.738065 -0.0411345 2.33476e-17)
(0.640926 -0.0520813 -2.50305e-17)
(0.920136 -0.0325044 4.75587e-17)
(0.833229 -0.0520871 3.85291e-17)
(1.02455 -0.00996821 1.20442e-17)
(1.00175 -0.0301182 -1.67896e-17)
(1.04255 0.00645357 -2.2105e-17)
(0.269886 -0.0120408 2.85705e-18)
(0.252228 -0.00681068 -7.67405e-19)
(0.319758 -0.0258847 -5.19585e-18)
(0.282796 -0.0215877 2.33871e-18)
(0.411338 -0.0422988 -8.89638e-18)
(0.352581 -0.0395276 -9.3911e-18)
(0.552685 -0.0587065 -1.44889e-17)
(0.468052 -0.0606847 -1.48706e-17)
(0.738202 -0.0662774 -1.31246e-17)
(0.638417 -0.0790823 -4.35166e-17)
(0.924057 -0.052176 -3.33323e-17)
(0.835648 -0.0792222 -1.24855e-17)
(1.02868 -0.0153409 -5.70957e-17)
(1.00768 -0.0452781 -8.55678e-17)
(1.04552 0.010877 -5.88555e-17)
(0.265443 -0.0165967 -1.53939e-18)
(0.247378 -0.00899563 -8.40063e-19)
(0.314596 -0.0357723 -1.65209e-18)
(0.277286 -0.0285317 1.45535e-19)
(0.405613 -0.0588212 -1.57613e-17)
(0.346003 -0.0524977 -1.0586e-17)
(0.548145 -0.0823297 -4.56992e-17)
(0.46119 -0.0812994 -3.04859e-17)
(0.738062 -0.0934402 -4.46788e-17)
(0.634515 -0.106996 -6.52678e-17)
(0.929425 -0.0732586 -6.68737e-17)
(0.838621 -0.107522 -3.44126e-17)
(1.0342 -0.0206004 -8.98752e-17)
(1.01587 -0.0604628 -1.06038e-16)
(1.04991 0.0163845 -8.01607e-17)
(0.259539 -0.0210725 9.50825e-19)
(0.241205 -0.0110957 -6.60213e-19)
(0.307676 -0.045598 -9.10558e-18)
(0.27023 -0.0352566 -2.63146e-18)
(0.397798 -0.0755736 -2.5735e-17)
(0.337417 -0.0652719 -2.35995e-17)
(0.541715 -0.10683 -5.02484e-17)
(0.45193 -0.102206 -5.09758e-17)
(0.737192 -0.122039 -5.54409e-17)
(0.628611 -0.136079 -7.9512e-17)
(0.935855 -0.0952287 -7.41072e-17)
(0.840768 -0.137383 -3.61552e-17)
(1.04118 -0.0253445 -9.72793e-17)
(1.02507 -0.075788 -8.73496e-17)
(1.05552 0.0232931 -8.21707e-17)
(0.252215 -0.0253777 -4.42408e-18)
(0.233771 -0.0130843 -6.24172e-19)
(0.29897 -0.0551859 -1.74058e-17)
(0.261666 -0.0416783 -6.86537e-18)
(0.387689 -0.0923713 -4.96482e-17)
(0.326739 -0.0777291 -2.74164e-17)
(0.532803 -0.13214 -8.12884e-17)
(0.439927 -0.123341 -7.60841e-17)
(0.734171 -0.152182 -6.03676e-17)
(0.619461 -0.166365 -8.86728e-17)
(0.941369 -0.118228 -4.87073e-17)
(0.838976 -0.169047 -3.23344e-17)
(1.04854 -0.0295116 -7.1498e-17)
(1.0321 -0.0915863 -5.00981e-17)
(1.06172 0.0316318 -6.71245e-17)
(0.243534 -0.0294483 -3.02628e-18)
(0.225156 -0.0149324 -5.85195e-19)
(0.288454 -0.0644102 -1.68607e-17)
(0.251656 -0.0476929 -8.43247e-18)
(0.375026 -0.109061 -5.39735e-17)
(0.313877 -0.0896917 -3.21626e-17)
(0.520376 -0.158128 -8.35315e-17)
(0.424709 -0.144448 -7.77286e-17)
(0.726097 -0.183887 -6.0615e-17)
(0.604915 -0.197413 -8.14447e-17)
(0.941665 -0.142608 -3.33561e-17)
(0.828111 -0.202396 -2.99746e-17)
(1.05357 -0.0335188 -4.45351e-17)
(1.03119 -0.108592 -2.55228e-17)
(1.06707 0.0407645 -4.7625e-17)
(0.233578 -0.0332125 -6.06421e-18)
(0.215469 -0.0166086 8.75735e-20)
(0.276119 -0.0731106 -2.39032e-17)
(0.240292 -0.0531751 -1.15093e-17)
(0.359497 -0.125353 -5.59654e-17)
(0.298795 -0.100909 -3.71464e-17)
(0.502848 -0.184223 -7.5448e-17)
(0.405683 -0.164955 -7.09432e-17)
(0.708627 -0.216613 -5.05352e-17)
(0.582123 -0.228094 -6.84988e-17)
(0.930073 -0.16871 -2.18486e-17)
(0.802117 -0.236725 -2.25123e-17)
(1.05168 -0.0384447 -2.76372e-17)
(1.01452 -0.128053 -1.06883e-17)
(1.06925 0.0489505 -3.26346e-17)
(0.222462 -0.0365872 -5.34241e-18)
(0.204838 -0.0180804 -2.31592e-19)
(0.262021 -0.081074 -2.47706e-17)
(0.227704 -0.0579872 -9.61516e-18)
(0.340808 -0.140725 -5.2042e-17)
(0.281605 -0.111049 -3.88501e-17)
(0.478362 -0.209259 -6.3749e-17)
(0.382295 -0.183903 -6.44941e-17)
(0.677265 -0.249038 -4.02374e-17)
(0.548512 -0.256654 -5.23383e-17)
(0.899321 -0.196693 -1.10785e-17)
(0.756509 -0.270653 -1.41391e-17)
(1.03723 -0.0461281 -1.48406e-17)
(0.974631 -0.151593 2.94209e-18)
(1.06533 0.0531252 -2.08257e-17)
(0.210332 -0.0394871 -4.48846e-18)
(0.193417 -0.019317 -6.97363e-19)
(0.246335 -0.0880448 -2.36743e-17)
(0.214071 -0.0620028 -9.44188e-18)
(0.318868 -0.154417 -5.12882e-17)
(0.262647 -0.119716 -3.83734e-17)
(0.445671 -0.231673 -5.28813e-17)
(0.354405 -0.200079 -5.78767e-17)
(0.62945 -0.279223 -2.59571e-17)
(0.503204 -0.281086 -3.93139e-17)
(0.844771 -0.226473 1.65612e-19)
(0.690788 -0.302328 -4.7132e-18)
(1.00544 -0.0591523 -2.16918e-18)
(0.907919 -0.180728 1.48723e-17)
(1.05198 0.0491749 -6.99772e-18)
(0.197375 -0.0418393 -5.67054e-18)
(0.181372 -0.0202944 -5.59954e-19)
(0.229399 -0.0937585 -2.4149e-17)
(0.199657 -0.0651374 -1.0353e-17)
(0.294014 -0.165577 -4.48542e-17)
(0.242475 -0.12653 -3.82645e-17)
(0.405138 -0.249872 -4.41633e-17)
(0.322667 -0.212327 -4.91067e-17)
(0.566148 -0.305101 -1.79219e-17)
(0.448088 -0.299634 -3.44149e-17)
(0.767064 -0.25776 1.02558e-17)
(0.608862 -0.32991 2.12552e-18)
(0.954121 -0.0804067 1.08616e-17)
(0.816797 -0.216154 2.12135e-17)
(1.02391 0.0326183 1.72848e-18)
(0.183829 -0.0436036 -5.23582e-18)
(0.168872 -0.0210066 -8.39157e-19)
(0.211695 -0.0979978 -2.44735e-17)
(0.184792 -0.0673721 -9.17062e-18)
(0.267135 -0.17348 -4.24809e-17)
(0.221772 -0.131231 -3.39369e-17)
(0.359083 -0.262455 -3.9284e-17)
(0.288629 -0.219917 -4.39177e-17)
(0.491968 -0.325032 -1.43001e-17)
(0.387689 -0.311206 -3.14163e-17)
(0.671652 -0.289316 1.32283e-17)
(0.517406 -0.351852 4.00812e-18)
(0.883036 -0.111962 1.26561e-17)
(0.70812 -0.257025 2.34094e-17)
(0.970444 -0.000916534 9.80447e-18)
(0.169953 -0.0447861 -4.76743e-18)
(0.156078 -0.0214718 -1.03026e-18)
(0.193768 -0.100673 -1.85516e-17)
(0.16983 -0.0687601 -7.25806e-18)
(0.239561 -0.177808 -3.52734e-17)
(0.201188 -0.133771 -2.5209e-17)
(0.311251 -0.268874 -3.60042e-17)
(0.254312 -0.22278 -3.76827e-17)
(0.413684 -0.338079 -1.30816e-17)
(0.327559 -0.31553 -2.75466e-17)
(0.566013 -0.31869 1.43158e-17)
(0.424611 -0.366829 4.06823e-18)
(0.789883 -0.152919 2.10662e-17)
(0.588146 -0.299884 2.67296e-17)
(0.878222 -0.0562902 1.71251e-17)
(0.155996 -0.0454549 -3.50468e-18)
(0.143134 -0.021731 -1.05172e-18)
(0.176096 -0.101907 -1.38551e-17)
(0.155059 -0.0694103 -5.10334e-18)
(0.212603 -0.178849 -2.75186e-17)
(0.181186 -0.134317 -2.01056e-17)
(0.265347 -0.269557 -2.91368e-17)
(0.221482 -0.221461 -3.06594e-17)
(0.338537 -0.343983 -1.03553e-17)
(0.272175 -0.313244 -2.46602e-17)
(0.456381 -0.345985 1.66546e-17)
(0.338598 -0.373246 4.0463e-18)
(0.67264 -0.210354 2.31016e-17)
(0.464664 -0.339235 2.83491e-17)
(0.741073 -0.138798 2.37519e-17)
(0.142137 -0.0457386 -2.64007e-18)
(0.13017 -0.0218353 -9.66496e-19)
(0.158901 -0.102012 -1.13237e-17)
(0.140658 -0.069433 -4.1048e-18)
(0.186972 -0.177316 -2.31949e-17)
(0.162056 -0.133149 -1.81871e-17)
(0.223524 -0.265692 -2.61471e-17)
(0.191528 -0.216836 -2.66409e-17)
(0.271844 -0.343203 -1.02519e-17)
(0.224533 -0.305764 -2.24747e-17)
(0.353082 -0.368411 1.58745e-17)
(0.266041 -0.370907 1.77333e-18)
(0.535547 -0.28491 2.92165e-17)
(0.355283 -0.367354 2.25917e-17)
(0.579012 -0.252244 2.7859e-17)
(0.967938 0.0301474 -2.6242e-16)
(0.988525 0.0330697 -1.25299e-15)
(0.904738 0.0420062 1.65534e-15)
(0.94309 0.0622535 1.04027e-15)
(0.831295 0.0442097 2.04644e-15)
(0.865291 0.0696129 2.12837e-15)
(0.755955 0.0431133 1.52767e-16)
(0.791677 0.0688214 2.75535e-15)
(0.680944 0.0410892 -4.11915e-15)
(0.714978 0.0660606 -1.07378e-15)
(0.607444 0.0385823 -6.12265e-15)
(0.640189 0.0624098 -5.18471e-15)
(0.53639 0.0357426 -4.96629e-15)
(0.567479 0.0581712 -5.89032e-15)
(0.468621 0.0326686 -1.90806e-15)
(0.497823 0.0534931 -3.54384e-15)
(0.404852 0.0294631 -5.21387e-16)
(0.431973 0.0485329 1.04195e-15)
(0.345636 0.0262286 -1.21516e-15)
(0.370559 0.0434525 6.19944e-16)
(0.291348 0.0230622 -3.18688e-15)
(0.314024 0.0384096 -2.14959e-16)
(0.242167 0.0200503 -5.3317e-15)
(0.262619 0.0335487 -3.88272e-15)
(0.198085 0.0172651 -4.68405e-15)
(0.2164 0.0289942 -4.59476e-15)
(0.158905 0.0147638 -3.18129e-15)
(0.175233 0.0248461 -3.06349e-15)
(0.124261 0.0125923 -1.28153e-15)
(0.138816 0.0211825 -8.46476e-16)
(0.0936128 0.0107934 2.50754e-15)
(0.106688 0.0180679 9.51202e-16)
(0.0662169 0.0094079 7.00257e-15)
(0.0782113 0.015572 5.77039e-15)
(0.0411193 0.00837668 8.23383e-15)
(0.05245 0.0137546 8.93755e-15)
(0.0177247 0.00688007 3.49712e-15)
(0.028423 0.0123617 8.53304e-15)
(0.00684472 0.00901906 2.93834e-16)
(0.967537 0.0727099 6.7179e-17)
(0.988185 0.0643964 -1.30046e-16)
(0.902784 0.101301 1.44823e-15)
(0.940633 0.122283 7.97515e-16)
(0.828093 0.10636 3.03687e-15)
(0.860933 0.135996 2.65913e-15)
(0.751513 0.103644 1.99065e-15)
(0.785351 0.134398 3.01546e-15)
(0.675559 0.0986697 -1.50751e-15)
(0.707168 0.128644 1.05703e-15)
(0.601347 0.0925908 -4.61891e-15)
(0.631183 0.12128 -2.01896e-15)
(0.529833 0.0857213 -4.38722e-15)
(0.557665 0.11278 -4.56306e-15)
(0.461856 0.0782972 -3.44025e-16)
(0.487586 0.103454 -2.41942e-15)
(0.398116 0.0705644 2.92596e-15)
(0.421682 0.0936181 1.58283e-15)
(0.339141 0.06277 2.4078e-15)
(0.36055 0.0835977 3.11837e-15)
(0.285267 0.055147 -2.09006e-16)
(0.304578 0.073702 1.56851e-15)
(0.236635 0.0479019 -2.53695e-15)
(0.253958 0.0642085 -8.25776e-16)
(0.193194 0.0412074 -2.54637e-15)
(0.208679 0.0553514 -2.48102e-15)
(0.154714 0.0352002 -1.15475e-16)
(0.168551 0.0473167 -7.8779e-16)
(0.120798 0.0299894 2.06749e-15)
(0.133219 0.0402463 1.41822e-15)
(0.0908815 0.025677 4.56475e-15)
(0.102186 0.0342553 2.03831e-15)
(0.0642085 0.0223622 7.82238e-15)
(0.0747861 0.0294681 5.06519e-15)
(0.0398153 0.0199013 9.5179e-15)
(0.0500742 0.0259962 8.24234e-15)
(0.0170907 0.0162896 6.02366e-15)
(0.027081 0.0233537 1.01277e-14)
(0.00650005 0.0169489 2.81736e-15)
(0.965471 0.116079 6.05289e-16)
(0.987623 0.0965103 4.5496e-16)
(0.898116 0.161162 1.99965e-15)
(0.936202 0.181389 1.24228e-15)
(0.821051 0.168643 2.61025e-15)
(0.853552 0.200654 1.88279e-15)
(0.742459 0.163917 2.12419e-15)
(0.775228 0.197719 1.55132e-15)
(0.664869 0.155575 7.10333e-16)
(0.69472 0.188689 1.63137e-15)
(0.589451 0.145528 -1.77754e-15)
(0.617046 0.177331 1.99552e-16)
(0.517198 0.134265 -2.5441e-15)
(0.54238 0.164321 -1.94323e-15)
(0.448951 0.122189 -5.76983e-16)
(0.471754 0.150162 -1.32712e-15)
(0.385378 0.109707 1.68653e-15)
(0.405871 0.135351 9.26441e-16)
(0.326951 0.0972198 2.30217e-15)
(0.345263 0.120381 2.12982e-15)
(0.273935 0.0850932 1.05744e-15)
(0.290234 0.105708 1.52163e-15)
(0.226392 0.0736444 -6.47095e-16)
(0.240872 0.0917316 -9.97229e-17)
(0.184198 0.0631305 -6.60984e-16)
(0.19707 0.078778 -8.49736e-16)
(0.147051 0.0537491 7.47959e-16)
(0.158547 0.0670983 1.59591e-16)
(0.1145 0.0456525 1.34221e-15)
(0.124872 0.0568766 7.91392e-16)
(0.0859414 0.0389808 2.37636e-15)
(0.0954933 0.0482576 9.14596e-16)
(0.0606002 0.0338715 5.30384e-15)
(0.0697111 0.0413983 2.02988e-15)
(0.0375177 0.030095 8.78171e-15)
(0.0465768 0.0364378 4.28759e-15)
(0.0160898 0.024596 7.11213e-15)
(0.0251362 0.0326727 6.80376e-15)
(0.00602438 0.0236703 1.94552e-15)
(0.962537 0.161305 1.08118e-15)
(0.986891 0.130108 7.01229e-16)
(0.891278 0.222208 1.09914e-15)
(0.930037 0.241052 1.04426e-15)
(0.810716 0.231433 8.01927e-16)
(0.843299 0.264829 3.88829e-16)
(0.729206 0.224189 1.04023e-15)
(0.761247 0.259837 6.72216e-17)
(0.649291 0.212054 1.15359e-15)
(0.677655 0.247002 6.78948e-16)
(0.57221 0.197614 1.02102e-16)
(0.597825 0.231146 6.73052e-16)
(0.499001 0.181564 -7.09036e-16)
(0.521767 0.213171 -1.37368e-16)
(0.430486 0.164508 1.46413e-16)
(0.450593 0.193819 -2.55834e-16)
(0.367277 0.147035 1.34245e-15)
(0.384925 0.173786 8.76377e-16)
(0.30975 0.129702 1.34553e-15)
(0.325193 0.153747 1.29959e-15)
(0.258057 0.11301 3.83593e-16)
(0.271562 0.134301 7.26614e-16)
(0.212142 0.0973727 -2.83039e-16)
(0.223979 0.11595 -5.38394e-16)
(0.171764 0.0831166 -3.79095e-17)
(0.182199 0.0990902 -4.62226e-16)
(0.136525 0.0704805 1.82736e-16)
(0.145821 0.0840086 1.56541e-16)
(0.105897 0.0596396 3.46086e-16)
(0.114322 0.0709033 5.76242e-16)
(0.0792264 0.0507523 5.1897e-16)
(0.0870807 0.0599219 1.50705e-15)
(0.0557134 0.0439738 9.04226e-16)
(0.0633604 0.0512288 1.69198e-15)
(0.0344085 0.0389798 2.16108e-15)
(0.0422154 0.0449655 1.63804e-15)
(0.0147144 0.0317928 1.6435e-15)
(0.0227138 0.0402289 2.04195e-15)
(0.00541929 0.0290736 1.01177e-17)
(0.958529 0.208324 6.56222e-16)
(0.985754 0.166138 2.32779e-16)
(0.882058 0.284237 3.46236e-16)
(0.921881 0.302426 3.99823e-16)
(0.796911 0.294252 -3.40358e-16)
(0.829902 0.32948 -5.06325e-16)
(0.711656 0.283725 -3.05725e-16)
(0.743159 0.32149 -7.10123e-16)
(0.628855 0.267133 1.98174e-16)
(0.655875 0.304094 -3.27681e-16)
(0.549825 0.247678 4.48489e-16)
(0.573568 0.283024 4.99307e-16)
(0.475624 0.226312 3.18361e-16)
(0.496061 0.259458 3.39144e-16)
(0.407023 0.203874 4.53586e-16)
(0.424524 0.234427 1.30776e-16)
(0.344521 0.181152 8.25612e-16)
(0.35943 0.208851 1.15172e-16)
(0.28835 0.158868 6.90885e-16)
(0.301044 0.183588 1.86842e-16)
(0.238499 0.137634 -1.72496e-16)
(0.249341 0.159364 -9.27691e-17)
(0.194749 0.117941 -7.19126e-16)
(0.20408 0.136761 -5.31809e-16)
(0.156715 0.100151 -2.79148e-16)
(0.164846 0.116207 -4.49927e-16)
(0.123882 0.0845125 5.4252e-16)
(0.131098 0.0979918 6.41238e-17)
(0.095632 0.0711937 1.72071e-15)
(0.102206 0.0822951 8.31018e-16)
(0.0712581 0.0603437 2.67745e-15)
(0.0774801 0.0692374 2.39548e-15)
(0.0499414 0.0521091 2.42732e-15)
(0.0561511 0.0589635 2.97322e-15)
(0.0307518 0.046067 1.51131e-15)
(0.0372867 0.051593 2.06307e-15)
(0.0131073 0.0374858 4.46149e-16)
(0.0199902 0.0460414 -8.55322e-17)
(0.00474628 0.0331842 -1.24066e-15)
(0.953198 0.257965 -2.18129e-17)
(0.984051 0.205658 -4.57234e-17)
(0.870116 0.347865 -4.28911e-16)
(0.91138 0.366523 -3.45754e-16)
(0.779335 0.357457 -8.67921e-16)
(0.812961 0.395315 -1.00181e-15)
(0.689606 0.342685 -7.35471e-16)
(0.720615 0.383158 -8.95407e-16)
(0.603507 0.320795 -3.9646e-17)
(0.629172 0.360223 -2.88703e-16)
(0.522421 0.295569 3.93345e-16)
(0.544232 0.33304 4.13929e-16)
(0.447382 0.268268 1.56714e-16)
(0.465421 0.30313 1.29487e-16)
(0.379044 0.240009 -2.01867e-16)
(0.393898 0.271864 -3.83342e-16)
(0.317731 0.211787 -5.13695e-16)
(0.329893 0.240401 -6.20955e-16)
(0.263461 0.184475 -5.81064e-16)
(0.27344 0.209775 -7.92947e-16)
(0.216009 0.158773 -4.41819e-16)
(0.224258 0.180808 -7.35206e-16)
(0.174959 0.13521 -2.67881e-16)
(0.181877 0.154119 -4.62944e-16)
(0.139756 0.114145 -1.17385e-16)
(0.145687 0.130128 -3.0341e-16)
(0.109753 0.0957995 3.40326e-16)
(0.114994 0.109086 -2.15976e-16)
(0.0842446 0.0803032 1.47927e-15)
(0.0890635 0.0911189 5.02755e-16)
(0.0624728 0.0677675 2.68068e-15)
(0.0671389 0.0762902 1.5854e-15)
(0.0436103 0.0583056 2.62392e-15)
(0.0484303 0.0646998 2.23475e-15)
(0.0267595 0.0513934 5.13778e-16)
(0.032034 0.056423 1.54846e-15)
(0.0113626 0.0417147 -1.73254e-15)
(0.0171035 0.0502151 -1.01867e-15)
(0.00403789 0.0360898 -1.9121e-15)
(0.946277 0.31126 -3.57955e-16)
(0.981585 0.249776 -2.43464e-16)
(0.855036 0.413907 -8.99501e-16)
(0.898088 0.434277 -8.44907e-16)
(0.757556 0.421576 -1.02899e-15)
(0.791943 0.462907 -1.12816e-15)
(0.662707 0.401364 -4.63544e-16)
(0.69313 0.445137 -5.7495e-16)
(0.573051 0.373135 1.49394e-16)
(0.597213 0.415451 1.56414e-16)
(0.49 0.341237 1.5856e-16)
(0.509685 0.381081 2.84545e-16)
(0.414482 0.307306 -3.93479e-16)
(0.429945 0.343983 -2.3316e-16)
(0.34694 0.272761 -7.8983e-16)
(0.359019 0.305903 -8.85211e-16)
(0.287434 0.238807 -8.91755e-16)
(0.296785 0.268242 -7.72839e-16)
(0.2357 0.206435 -9.43054e-16)
(0.242958 0.232173 -8.39553e-16)
(0.191244 0.176391 -7.56868e-16)
(0.196943 0.19857 -8.45829e-16)
(0.15342 0.149193 -4.98146e-16)
(0.158005 0.168031 -8.47222e-16)
(0.121491 0.125155 -3.99627e-16)
(0.125323 0.140919 -8.47392e-16)
(0.0946771 0.104431 -6.10146e-17)
(0.0980518 0.117401 -8.86594e-16)
(0.0721903 0.0870786 6.01475e-16)
(0.0753572 0.0975112 -7.98561e-18)
(0.053235 0.0731458 1.14915e-15)
(0.0564341 0.081232 6.51266e-16)
(0.0369895 0.0626903 1.19194e-15)
(0.0404869 0.0685952 8.75515e-16)
(0.022605 0.0550874 6.91014e-17)
(0.0266576 0.059614 5.16824e-16)
(0.00955719 0.0445961 -1.18924e-15)
(0.0141657 0.0529068 -7.34618e-16)
(0.00332178 0.0379156 -8.04394e-16)
(0.9374 0.369244 -7.10012e-16)
(0.978082 0.299719 -3.65691e-16)
(0.83626 0.483072 -1.06517e-15)
(0.881415 0.506585 -9.72393e-16)
(0.730992 0.486965 -6.90414e-16)
(0.76615 0.532703 -9.20425e-16)
(0.630479 0.459844 2.28677e-17)
(0.660087 0.507549 -1.38426e-16)
(0.537209 0.424024 2.86747e-16)
(0.559579 0.469643 3.96987e-16)
(0.452525 0.384432 -9.31855e-17)
(0.469767 0.42686 2.30659e-16)
(0.377118 0.343137 -7.0733e-16)
(0.389745 0.381681 -3.47834e-16)
(0.3111 0.301873 -8.68842e-16)
(0.320224 0.33624 -7.40887e-16)
(0.254157 0.262022 -7.22476e-16)
(0.2606 0.292149 -5.0519e-16)
(0.205666 0.224642 -7.45776e-16)
(0.210183 0.250662 -4.92038e-16)
(0.164823 0.190465 -9.32977e-16)
(0.168011 0.212628 -7.52009e-16)
(0.13073 0.159941 -1.18408e-15)
(0.133061 0.178561 -1.33336e-15)
(0.102464 0.133286 -1.31708e-15)
(0.104301 0.148705 -1.67237e-15)
(0.0791264 0.110547 -8.35604e-16)
(0.0807468 0.123101 -1.50042e-15)
(0.0598601 0.0916803 3.99208e-17)
(0.0614854 0.101661 -7.45947e-16)
(0.0438513 0.0766479 3.87296e-16)
(0.0456831 0.0842593 -1.92311e-16)
(0.0303027 0.0654339 2.2441e-16)
(0.032559 0.070845 -6.50029e-17)
(0.01843 0.0573174 -2.58157e-16)
(0.0213198 0.0613567 -2.76188e-16)
(0.00775312 0.0462792 -3.63386e-16)
(0.0112656 0.0543014 -3.55693e-16)
(0.00261977 0.0388059 3.13038e-16)
(0.926068 0.433008 -6.15821e-16)
(0.97317 0.356902 -3.60753e-16)
(0.813053 0.555984 -8.33497e-16)
(0.860578 0.58432 -7.7446e-16)
(0.69891 0.553817 -3.89137e-16)
(0.734703 0.605018 -5.24771e-16)
(0.592356 0.518002 2.21737e-16)
(0.620759 0.57032 1.07804e-16)
(0.495679 0.47314 3.42757e-16)
(0.515823 0.522459 3.86301e-16)
(0.409987 0.424748 -1.50788e-17)
(0.42436 0.469918 2.10201e-16)
(0.335544 0.375377 -3.81078e-16)
(0.345006 0.415776 -1.61865e-16)
(0.271969 0.327046 -3.91565e-16)
(0.277923 0.362523 -2.78678e-16)
(0.218461 0.281248 -2.84203e-16)
(0.221889 0.311905 -1.69987e-16)
(0.17397 0.239032 -4.98722e-16)
(0.175727 0.265159 -2.68373e-16)
(0.137349 0.201034 -1.13749e-15)
(0.13807 0.223016 -7.32026e-16)
(0.107444 0.167568 -1.80247e-15)
(0.107609 0.18583 -1.44646e-15)
(0.0831643 0.138703 -1.8477e-15)
(0.0831155 0.153668 -1.90674e-15)
(0.0635099 0.114341 -1.4124e-15)
(0.0634943 0.126401 -1.59994e-15)
(0.0475829 0.0943138 -9.67111e-16)
(0.0477827 0.103792 -1.05972e-15)
(0.0345736 0.0784789 -6.25642e-16)
(0.0351445 0.0855956 -6.56731e-16)
(0.0237293 0.066736 -5.45566e-16)
(0.0248364 0.0716644 -5.21958e-16)
(0.0143464 0.0582759 -3.69924e-16)
(0.016147 0.0618566 -4.48434e-16)
(0.00599837 0.0469316 2.94513e-16)
(0.00847081 0.0545939 1.53782e-16)
(0.00194802 0.0389101 7.93395e-16)
(0.911619 0.503757 -5.12062e-16)
(0.966338 0.422992 -2.84677e-16)
(0.784478 0.633194 -4.78731e-16)
(0.834551 0.668346 -4.43473e-16)
(0.660428 0.622155 -4.74014e-17)
(0.696515 0.680003 -2.05825e-16)
(0.547713 0.57552 2.66246e-16)
(0.574322 0.633148 2.04468e-16)
(0.448191 0.51998 2.58911e-16)
(0.46551 0.573341 2.76478e-16)
(0.362459 0.461663 6.82604e-17)
(0.373437 0.509642 1.99666e-16)
(0.290103 0.403592 -6.47032e-17)
(0.296026 0.445748 4.20629e-17)
(0.230069 0.347988 -6.66503e-17)
(0.232625 0.384393 5.64268e-18)
(0.180952 0.29635 -1.55363e-16)
(0.181263 0.327328 -4.10239e-17)
(0.141227 0.249603 -4.93345e-16)
(0.140217 0.27564 -2.79283e-16)
(0.109395 0.208199 -1.03045e-15)
(0.107709 0.229834 -7.25181e-16)
(0.084069 0.172248 -1.54825e-15)
(0.0821645 0.190022 -1.16454e-15)
(0.0640163 0.14162 -1.66874e-15)
(0.0621993 0.156036 -1.42191e-15)
(0.0481717 0.116046 -1.26064e-15)
(0.0466434 0.127547 -1.22209e-15)
(0.0356263 0.0952117 -7.61479e-16)
(0.0345204 0.104153 -5.91224e-16)
(0.0256008 0.0788627 -5.57102e-16)
(0.0250215 0.0854777 -3.19043e-16)
(0.0174079 0.0668082 -4.28886e-16)
(0.0174636 0.0712742 -4.55638e-16)
(0.0104383 0.0581623 5.44027e-17)
(0.0112331 0.0613199 -1.59527e-16)
(0.00432809 0.0467239 6.32947e-16)
(0.00583025 0.0539775 6.21686e-16)
(0.00131774 0.0383736 7.41936e-16)
(0.893156 0.58285 -2.19669e-16)
(0.95687 0.500012 -1.44487e-16)
(0.749344 0.715166 -1.825e-16)
(0.801977 0.7595 -1.3082e-16)
(0.614508 0.691794 3.64175e-17)
(0.650267 0.757591 -2.75977e-17)
(0.495907 0.631846 2.1468e-16)
(0.519889 0.695458 1.63526e-16)
(0.394553 0.563866 2.19621e-16)
(0.408281 0.621503 1.19704e-16)
(0.310139 0.494556 1.73697e-16)
(0.317111 0.54529 2.05231e-16)
(0.241262 0.427325 1.08721e-16)
(0.243251 0.471037 1.28093e-16)
(0.186004 0.364441 2.97022e-17)
(0.184945 0.401519 3.79983e-17)
(0.142272 0.307252 -1.6047e-16)
(0.139388 0.338305 -1.33117e-16)
(0.108046 0.256426 -5.02749e-16)
(0.104288 0.282162 -3.84734e-16)
(0.0815007 0.212132 -8.55637e-16)
(0.0774856 0.233254 -6.75678e-16)
(0.0610544 0.174209 -1.0461e-15)
(0.0571926 0.191372 -8.36889e-16)
(0.0453811 0.142292 -9.95787e-16)
(0.0419213 0.156075 -9.05178e-16)
(0.033391 0.115917 -5.81228e-16)
(0.0304769 0.126811 -5.61714e-16)
(0.0241989 0.0946191 -1.68631e-16)
(0.0219083 0.103001 -2.14732e-17)
(0.0170828 0.078027 -2.23461e-16)
(0.0154646 0.0841426 8.00174e-17)
(0.0114395 0.0658608 -1.97487e-16)
(0.0105439 0.0698898 -3.09e-16)
(0.00676572 0.0571714 3.85206e-16)
(0.00664319 0.0599437 -9.76854e-17)
(0.00276638 0.0458199 7.26113e-16)
(0.00337633 0.0526337 6.64326e-16)
(0.000736041 0.0373308 5.21881e-16)
(0.869435 0.671844 -6.01994e-17)
(0.943729 0.590479 -1.76506e-17)
(0.706137 0.802214 1.68417e-17)
(0.761033 0.858548 9.2472e-17)
(0.559968 0.762274 9.44681e-17)
(0.59438 0.837408 1.4019e-16)
(0.436327 0.686166 7.31092e-17)
(0.456556 0.756343 9.31434e-17)
(0.334716 0.603945 1.06751e-16)
(0.343921 0.665935 -2.08899e-17)
(0.253392 0.522743 1.61362e-16)
(0.255694 0.576025 1.58262e-16)
(0.18962 0.446141 6.03e-17)
(0.187286 0.491098 8.72371e-17)
(0.140459 0.376217 -1.17783e-16)
(0.135601 0.413649 -3.98037e-17)
(0.103085 0.313964 -3.47817e-16)
(0.09697 0.344818 -2.91725e-16)
(0.0750154 0.259649 -5.51073e-16)
(0.0685605 0.284867 -4.47572e-16)
(0.0541526 0.213063 -6.59205e-16)
(0.0479102 0.233514 -5.19392e-16)
(0.0387855 0.173722 -7.03808e-16)
(0.0330915 0.190166 -4.86082e-16)
(0.0275514 0.140997 -4.90779e-16)
(0.0225805 0.15408 -5.53228e-16)
(0.019383 0.114222 -2.65418e-17)
(0.0152115 0.124471 -1.92905e-16)
(0.0134541 0.0927815 2.15134e-16)
(0.0100988 0.100593 2.46018e-16)
(0.00912487 0.0761931 -4.24749e-18)
(0.00657744 0.0818188 1.59024e-16)
(0.00589242 0.0640931 -2.1265e-16)
(0.00414479 0.0677134 -4.33674e-16)
(0.00336725 0.0554848 1.73167e-16)
(0.00241736 0.0579097 -4.35676e-16)
(0.00132802 0.0443703 4.69534e-16)
(0.00112789 0.0507276 2.20587e-16)
(0.000206698 0.0359023 3.05293e-16)
(0.83868 0.772548 1.27183e-16)
(0.925367 0.697629 8.60863e-17)
(0.652956 0.894414 2.09574e-16)
(0.709241 0.96605 3.00051e-16)
(0.495503 0.832773 1.38504e-16)
(0.527031 0.918658 2.44534e-16)
(0.368475 0.737375 3.16601e-18)
(0.383493 0.814508 2.19673e-17)
(0.268833 0.639223 2.94974e-17)
(0.27245 0.70543 -4.43799e-17)
(0.192781 0.545524 8.74833e-17)
(0.189732 0.600975 8.67229e-17)
(0.13591 0.459673 -8.63608e-18)
(0.12891 0.505459 4.41682e-18)
(0.0941809 0.383225 -2.06683e-16)
(0.0853951 0.42064 -1.16772e-16)
(0.0640569 0.316595 -3.87534e-16)
(0.0547228 0.34696 -3.04064e-16)
(0.0426815 0.2595 -4.18267e-16)
(0.0336167 0.283989 -3.21282e-16)
(0.0277748 0.21128 -3.55311e-16)
(0.0194295 0.230915 -3.02861e-16)
(0.0175765 0.171087 -3.44257e-16)
(0.0101871 0.186722 -2.44973e-16)
(0.0107515 0.138025 -2.68106e-16)
(0.00440489 0.150356 -3.29632e-16)
(0.00630251 0.111227 6.89969e-17)
(0.0010008 0.120809 -1.64579e-16)
(0.00349538 0.0899355 1.92133e-16)
(-0.000808474 0.0971749 2.04806e-16)
(0.00179377 0.0735685 -2.52696e-16)
(-0.00157783 0.0787188 5.06279e-17)
(0.000807283 0.0616877 -6.44672e-16)
(-0.00169699 0.0649288 -6.10218e-16)
(0.000267059 0.053266 -3.8474e-16)
(-0.00142459 0.0553792 -7.3284e-16)
(2.30087e-05 0.0425098 6.59902e-17)
(-0.000906978 0.0484047 -1.69899e-16)
(-0.000269011 0.0341936 1.74876e-16)
(0.798261 0.88709 2.50266e-16)
(0.899389 0.825776 1.13247e-16)
(0.587462 0.991442 3.32519e-16)
(0.643193 1.08208 3.96562e-16)
(0.41975 0.902019 1.32245e-16)
(0.446217 0.999981 2.64111e-16)
(0.292069 0.784069 -2.35986e-17)
(0.300052 0.868222 -4.91611e-17)
(0.197327 0.66861 1.09867e-17)
(0.194212 0.73863 -3.45738e-17)
(0.129082 0.56225 7.45904e-18)
(0.120035 0.619302 -6.51141e-18)
(0.0809824 0.467669 -9.89126e-17)
(0.0690553 0.513779 -6.15067e-17)
(0.0479464 0.385502 -2.10624e-16)
(0.0351765 0.422489 -1.43813e-16)
(0.0258224 0.315357 -2.41692e-16)
(0.0133388 0.344944 -1.79692e-16)
(0.0115291 0.256279 -2.1214e-16)
(-2.31838e-05 0.279842 -1.26396e-16)
(0.00271586 0.207108 -1.981e-16)
(-0.00758693 0.225804 -7.13201e-17)
(-0.00233249 0.166625 -2.32032e-16)
(-0.0112718 0.181378 -1.20005e-16)
(-0.00486158 0.133668 -2.30205e-16)
(-0.0124461 0.145212 -2.0069e-16)
(-0.00575322 0.107188 -3.25861e-17)
(-0.0120589 0.116091 -1.566e-16)
(-0.00562103 0.0863016 6.96356e-17)
(-0.0107594 0.0929741 1.22396e-16)
(-0.00488066 0.0703413 -2.93662e-16)
(-0.00897372 0.0750347 6.37166e-19)
(-0.0038025 0.0588078 -6.9471e-16)
(-0.00696945 0.0616985 -5.09938e-16)
(-0.00253872 0.0506587 -5.24253e-16)
(-0.00487917 0.0524953 -6.48926e-16)
(-0.00115607 0.0403538 -6.36235e-17)
(-0.00272897 0.045789 -2.65507e-16)
(-0.000691905 0.0322907 6.61707e-17)
(0.744208 1.01793 2.52622e-16)
(0.862024 0.980849 1.41829e-16)
(0.506887 1.0923 3.3069e-16)
(0.558179 1.20573 3.95554e-16)
(0.331395 0.968198 8.96858e-17)
(0.349958 1.07933 2.04798e-16)
(0.207167 0.824559 -5.93439e-17)
(0.205915 0.915298 -6.69001e-17)
(0.120939 0.691004 -5.07556e-17)
(0.109972 0.764132 -6.04444e-17)
(0.0632772 0.572392 -7.21179e-17)
(0.0476804 0.630294 -6.36301e-17)
(0.025766 0.470038 -1.04733e-16)
(0.00877183 0.515898 -3.90365e-17)
(0.00246178 0.383213 -1.15055e-16)
(-0.0142036 0.419387 -5.09339e-17)
(-0.011047 0.310549 -7.04385e-17)
(-0.026549 0.339065 -3.40456e-17)
(-0.0180368 0.25034 6.93235e-18)
(-0.0319172 0.272805 5.73576e-17)
(-0.0207521 0.200902 1.74509e-18)
(-0.0328539 0.218559 1.07194e-16)
(-0.020773 0.160659 -9.13573e-17)
(-0.0311128 0.174479 1.72578e-17)
(-0.0191887 0.128209 -1.30831e-16)
(-0.027877 0.138944 -8.06211e-17)
(-0.0167299 0.102344 -7.45092e-18)
(-0.023922 0.110567 -1.01875e-16)
(-0.0138682 0.0820791 5.60212e-17)
(-0.0197381 0.0881963 6.30096e-17)
(-0.0108875 0.0666779 -2.08838e-16)
(-0.0156106 0.0709351 -1.44733e-17)
(-0.00793382 0.0555944 -4.68322e-16)
(-0.0116799 0.0581623 -2.35045e-16)
(-0.00504175 0.0477857 -4.00828e-16)
(-0.00795525 0.0493761 -3.40052e-16)
(-0.00220285 0.0379998 -1.39557e-16)
(-0.00434521 0.0429851 -2.03761e-16)
(-0.00106432 0.0302681 -7.60436e-17)
(0.670589 1.16809 2.7783e-16)
(0.807282 1.17109 1.66122e-16)
(0.408189 1.19498 2.74918e-16)
(0.447559 1.33427 3.58404e-16)
(0.229345 1.02891 5.42448e-17)
(0.236653 1.15389 1.30012e-16)
(0.11428 0.856952 -6.78599e-17)
(0.101248 0.95314 -5.7761e-17)
(0.0407602 0.7054 -7.25982e-17)
(0.0209792 0.780595 -7.6817e-17)
(-0.00358875 0.575593 -3.2208e-17)
(-0.026029 0.633511 -2.64567e-17)
(-0.0287499 0.466848 1.14553e-17)
(-0.0508345 0.511805 4.90865e-17)
(-0.0413818 0.376669 2.55039e-17)
(-0.0619278 0.411602 9.64143e-17)
(-0.0460298 0.302569 8.72982e-17)
(-0.0643909 0.329794 1.44474e-16)
(-0.0456945 0.242084 1.523e-16)
(-0.0617216 0.263311 2.34526e-16)
(-0.0424444 0.193027 1.20737e-16)
(-0.0561743 0.20957 3.00274e-16)
(-0.0376461 0.153504 2.62126e-17)
(-0.0492355 0.166357 2.12136e-16)
(-0.0321875 0.12191 -5.36194e-17)
(-0.0418488 0.131829 5.19582e-17)
(-0.026619 0.0969111 -3.36279e-17)
(-0.0345847 0.104462 -6.15739e-17)
(-0.0212554 0.0774432 -4.24344e-18)
(-0.0277593 0.0830218 -5.29287e-17)
(-0.016243 0.062721 -4.17276e-17)
(-0.0215102 0.0665646 9.49667e-18)
(-0.0116033 0.0521664 -1.15561e-16)
(-0.0158502 0.0544378 -2.15156e-17)
(-0.00725819 0.0447487 -1.52989e-16)
(-0.0106705 0.0461206 -4.84217e-18)
(-0.00312718 0.0355291 -1.42502e-16)
(-0.00576688 0.0400787 -9.14583e-17)
(-0.00138938 0.0281848 -1.7753e-16)
(0.568677 1.34028 2.43073e-16)
(0.726785 1.4079 1.75207e-16)
(0.287872 1.29586 2.19471e-16)
(0.302191 1.46232 3.11078e-16)
(0.113028 1.08113 2.24146e-17)
(0.105652 1.21981 8.11284e-17)
(0.0140752 0.879189 -6.64153e-17)
(-0.0131377 0.979143 -6.79597e-17)
(-0.0417319 0.710904 -3.28255e-17)
(-0.0710245 0.786649 -7.74057e-17)
(-0.0699281 0.571751 5.0887e-17)
(-0.0995855 0.628655 2.04625e-17)
(-0.081595 0.458382 1.29526e-16)
(-0.10866 0.501883 1.4787e-16)
(-0.0831029 0.366301 2.08832e-16)
(-0.107267 0.399646 2.43151e-16)
(-0.0787555 0.291877 2.8397e-16)
(-0.099747 0.317603 3.60295e-16)
(-0.0712253 0.231927 3.74423e-16)
(-0.0891993 0.25181 4.44823e-16)
(-0.062251 0.18384 3.85096e-16)
(-0.077435 0.199221 5.57941e-16)
(-0.0529126 0.145455 2.34358e-16)
(-0.0656043 0.157327 4.69564e-16)
(-0.0438589 0.11501 4.30803e-17)
(-0.0543692 0.124118 2.466e-16)
(-0.0354419 0.0910786 -7.96086e-17)