# vtk DataFile Version 2.0
sampleSurface
ASCII
DATASET POLYDATA
POINTS 1819 float
-0.00736432 5e-05 0 -0.0075 5e-05 0 -0.0075 0 0 -0.00736432 0
0 -0.00722864 5e-05 0 -0.00722864 0 0 -0.00709296 5e-05 0
-0.00709296 0 0 -0.00695728 5e-05 0 -0.00695728 0 0 -0.00682161
5e-05 0 -0.00682161 0 0 -0.00668599 5e-05 0 -0.00668599 0
0 -0.00654969 5e-05 0 -0.00654968 0 0 -0.0064 0 0
-0.0064 5e-05 0 -0.00736432 0.0001 0 -0.0075 0.0001 0 -0.00722864
0.0001 0 -0.00709296 0.0001 0 -0.00695728 0.0001 0 -0.00682161 0.0001
0 -0.00668599 0.0001 0 -0.0065497 0.0001 0 -0.0064 0.0001 0
-0.00736432 0.00015 0 -0.0075 0.00015 0 -0.00722864 0.00015 0 -0.00709296
0.00015 0 -0.00695728 0.00015 0 -0.00682161 0.00015 0 -0.00668599 0.00015
0 -0.00654973 0.00015 0 -0.0064 0.00015 0 -0.00736432 0.0002 0
-0.0075 0.0002 0 -0.00722864 0.0002 0 -0.00709296 0.0002 0 -0.00695728
0.0002 0 -0.00682161 0.0002 0 -0.00668599 0.0002 0 -0.00654977 0.0002
0 -0.0064 0.0002 0 -0.00736432 0.00025 0 -0.0075 0.00025 0
-0.00722864 0.00025 0 -0.00709296 0.00025 0 -0.00695728 0.00025 0 -0.00682161
0.00025 0 -0.00668599 0.00025 0 -0.00654982 0.00025 0 -0.0064 0.00025
0 -0.00736432 0.0003 0 -0.0075 0.0003 0 -0.00722864 0.0003 0
-0.00709296 0.0003 0 -0.00695728 0.0003 0 -0.00682161 0.0003 0 -0.00668599
0.0003 0 -0.00654987 0.0003 0 -0.0064 0.0003 0 -0.00736432 0.00035
0 -0.0075 0.00035 0 -0.00722864 0.00035 0 -0.00709296 0.00035 0
-0.00695728 0.00035 0 -0.00682161 0.00035 0 -0.00668598 0.00035 0 -0.00654995
0.00035 0 -0.0064 0.00035 0 -0.00736432 0.0004 0 -0.0075 0.0004
0 -0.00722864 0.0004 0 -0.00709296 0.0004 0 -0.00695728 0.0004 0
-0.00682161 0.0004 0 -0.00668598 0.0004 0 -0.00655003 0.0004 0 -0.0064
0.0004 0 -0.00736432 0.00045 0 -0.0075 0.00045 0 -0.00722864 0.00045
0 -0.00709296 0.00045 0 -0.00695728 0.00045 0 -0.00682161 0.00045 0
-0.00668597 0.00045 0 -0.00655012 0.00045 0 -0.0064 0.00045 0 -0.00736432
0.0005 0 -0.0075 0.0005 0 -0.00722864 0.0005 0 -0.00709296 0.0005
0 -0.00695728 0.0005 0 -0.00682161 0.0005 0 -0.00668597 0.0005 0
-0.00655022 0.0005 0 -0.0064 0.0005 0 -0.00736432 0.00055 0 -0.0075
0.00055 0 -0.00722864 0.00055 0 -0.00709296 0.00055 0 -0.00695728 0.00055
0 -0.00682161 0.00055 0 -0.00668596 0.00055 0 -0.00655034 0.00055 0
-0.0064 0.00055 0 -0.00736432 0.0006 0 -0.0075 0.0006 0 -0.00722864
0.0006 0 -0.00709296 0.0006 0 -0.00695728 0.0006 0 -0.0068216 0.0006
0 -0.00668595 0.0006 0 -0.00655047 0.0006 0 -0.0064 0.0006 0
-0.00736432 0.00065 0 -0.0075 0.00065 0 -0.00722864 0.00065 0 -0.00709296
0.00065 0 -0.00695728 0.00065 0 -0.0068216 0.00065 0 -0.00668594 0.00065
0 -0.00655061 0.00065 0 -0.0064 0.00065 0 -0.00736432 0.0007 0
-0.0075 0.0007 0 -0.00722864 0.0007 0 -0.00709296 0.0007 0 -0.00695728
0.0007 0 -0.0068216 0.0007 0 -0.00668594 0.0007 0 -0.00655078 0.0007
0 -0.0064 0.0007 0 -0.00736432 0.00075 0 -0.0075 0.00075 0
-0.00722864 0.00075 0 -0.00709296 0.00075 0 -0.00695728 0.00075 0 -0.0068216
0.00075 0 -0.00668593 0.00075 0 -0.00655023 0.00075 0 -0.0064 0.00075
0 -0.00280073 0.000183339 0 -0.0029 0.000183339 0 -0.0029 0 0
-0.00280074 0 0 -0.0026969 0.000183339 0 -0.0026969 0 0 -0.00258901
0.000183339 0 -0.00258901 0 0 -0.00247708 0.000183339 0 -0.00247708 0
0 -0.00236098 0.000183339 0 -0.00236098 0 0 -0.00224056 0.000183339 0
-0.00224057 0 0 -0.00211567 0.000183339 0 -0.00211568 0 0 -0.00198614
0.000183339 0 -0.00198615 0 0 -0.0018518 0.000183339 0 -0.00185181 0
0 -0.00171247 0.000183339 0 -0.00171247 0 0 -0.00156796 0.000183339 0
-0.00156796 0 0 -0.00141807 0.000183339 0 -0.00141808 0 0 -0.00126262
0.000183339 0 -0.00126263 0 0 -0.0011014 0.000183339 0 -0.0011014 0
0 -0.000934179 0.000183339 0 -0.000934184 0 0 -0.000760748 0.000183339 0
-0.000760754 0 0 -0.000580872 0.000183339 0 -0.000580878 0 0 -0.000394313
0.000183339 0 -0.00039432 0 0 -0.000200822 0.000183339 0 -0.000200828 0
0 0 0 0 0 0.000183339 0 -0.00280073 0.000353777 0
-0.0029 0.000353777 0 -0.00269689 0.000353777 0 -0.002589 0.000353777 0 -0.00247707
0.000353777 0 -0.00236097 0.000353777 0 -0.00224055 0.000353777 0 -0.00211567 0.000353777
0 -0.00198614 0.000353777 0 -0.00185179 0.000353777 0 -0.00171246 0.000353777 0
-0.00156795 0.000353777 0 -0.00141806 0.000353777 0 -0.00126261 0.000353777 0 -0.00110139
0.000353777 0 -0.000934167 0.000353777 0 -0.000760736 0.000353777 0 -0.00058086 0.000353777
0 -0.000394301 0.000353777 0 -0.000200809 0.000353777 0 0 0.000353777 0
-0.00280074 0.000512223 0 -0.0029 0.000512223 0 -0.00269689 0.000512223 0 -0.002589
0.000512223 0 -0.00247706 0.000512223 0 -0.00236096 0.000512223 0 -0.00224055 0.000512223
0 -0.00211566 0.000512223 0 -0.00198613 0.000512223 0 -0.00185178 0.000512223 0
-0.00171245 0.000512223 0 -0.00156794 0.000512223 0 -0.00141805 0.000512223 0 -0.0012626
0.000512223 0 -0.00110137 0.000512223 0 -0.000934156 0.000512223 0 -0.000760724 0.000512223
0 -0.000580848 0.000512223 0 -0.000394289 0.000512223 0 -0.000200797 0.000512223 0
0 0.000512223 0 -0.00280074 0.000659519 0 -0.0029 0.000659519 0 -0.00269689
0.000659519 0 -0.00258899 0.000659519 0 -0.00247705 0.000659519 0 -0.00236095 0.000659519
0 -0.00224054 0.000659519 0 -0.00211565 0.000659519 0 -0.00198612 0.000659519 0
-0.00185177 0.000659519 0 -0.00171244 0.000659519 0 -0.00156793 0.000659519 0 -0.00141804
0.000659519 0 -0.00126259 0.000659519 0 -0.00110136 0.000659519 0 -0.000934145 0.000659519
0 -0.000760713 0.000659519 0 -0.000580837 0.000659519 0 -0.000394278 0.000659519 0
-0.000200786 0.000659519 0 0 0.000659519 0 -0.00280075 0.000796451 0 -0.0029
0.000796451 0 -0.00269688 0.000796451 0 -0.00258898 0.000796451 0 -0.00247705 0.000796451
0 -0.00236095 0.000796451 0 -0.00224053 0.000796451 0 -0.00211564 0.000796451 0
-0.00198611 0.000796451 0 -0.00185177 0.000796451 0 -0.00171243 0.000796451 0 -0.00156792
0.000796451 0 -0.00141803 0.000796451 0 -0.00126258 0.000796451 0 -0.00110135 0.000796451
0 -0.000934134 0.000796451 0 -0.000760702 0.000796451 0 -0.000580826 0.000796451 0
-0.000394267 0.000796451 0 -0.000200775 0.000796451 0 0 0.000796451 0 -0.00280076
0.000923748 0 -0.0029 0.000923748 0 -0.00269688 0.000923748 0 -0.00258898 0.000923748
0 -0.00247704 0.000923748 0 -0.00236094 0.000923748 0 -0.00224052 0.000923748 0
-0.00211563 0.000923748 0 -0.0019861 0.000923748 0 -0.00185176 0.000923748 0 -0.00171242
0.000923748 0 -0.00156791 0.000923748 0 -0.00141802 0.000923748 0 -0.00126257 0.000923748
0 -0.00110134 0.000923748 0 -0.000934124 0.000923748 0 -0.000760692 0.000923748 0
-0.000580816 0.000923748 0 -0.000394256 0.000923748 0 -0.000200765 0.000923748 0 0
0.000923748 0 -0.00280077 0.00104209 0 -0.0029 0.00104209 0 -0.00269688 0.00104209
0 -0.00258897 0.00104209 0 -0.00247703 0.00104209 0 -0.00236093 0.00104209 0
-0.00224051 0.00104209 0 -0.00211562 0.00104209 0 -0.00198609 0.00104209 0 -0.00185175
0.00104209 0 -0.00171241 0.00104209 0 -0.0015679 0.00104209 0 -0.00141801 0.00104209
0 -0.00126256 0.00104209 0 -0.00110133 0.00104209 0 -0.000934115 0.00104209 0
-0.000760683 0.00104209 0 -0.000580806 0.00104209 0 -0.000394247 0.00104209 0 -0.000200755
0.00104209 0 0 0.00104209 0 -0.00280078 0.0011521 0 -0.0029 0.0011521
0 -0.00269687 0.0011521 0 -0.00258896 0.0011521 0 -0.00247702 0.0011521 0
-0.00236092 0.0011521 0 -0.00224051 0.0011521 0 -0.00211561 0.0011521 0 -0.00198608
0.0011521 0 -0.00185174 0.0011521 0 -0.0017124 0.0011521 0 -0.00156789 0.0011521
0 -0.00141801 0.0011521 0 -0.00126255 0.0011521 0 -0.00110132 0.0011521 0
-0.000934106 0.0011521 0 -0.000760674 0.0011521 0 -0.000580798 0.0011521 0 -0.000394238
0.0011521 0 -0.000200746 0.0011521 0 0 0.0011521 0 -0.0028008 0.00125437
0 -0.0029 0.00125437 0 -0.00269687 0.00125437 0 -0.00258896 0.00125437 0
-0.00247702 0.00125437 0 -0.00236091 0.00125437 0 -0.0022405 0.00125437 0 -0.00211561
0.00125437 0 -0.00198608 0.00125437 0 -0.00185173 0.00125437 0 -0.00171239 0.00125437
0 -0.00156788 0.00125437 0 -0.001418 0.00125437 0 -0.00126254 0.00125437 0
-0.00110132 0.00125437 0 -0.000934098 0.00125437 0 -0.000760665 0.00125437 0 -0.000580789
0.00125437 0 -0.00039423 0.00125437 0 -0.000200739 0.00125437 0 0 0.00125437
0 -0.00280081 0.00134945 0 -0.0029 0.00134945 0 -0.00269687 0.00134945 0
-0.00258895 0.00134945 0 -0.00247701 0.00134945 0 -0.00236091 0.00134945 0 -0.00224049
0.00134945 0 -0.0021156 0.00134945 0 -0.00198607 0.00134945 0 -0.00185172 0.00134945
0 -0.00171239 0.00134945 0 -0.00156787 0.00134945 0 -0.00141799 0.00134945 0
-0.00126254 0.00134945 0 -0.00110131 0.00134945 0 -0.00093409 0.00134945 0 -0.000760658
0.00134945 0 -0.000580782 0.00134945 0 -0.000394223 0.00134945 0 -0.000200731 0.00134945
0 0 0.00134945 0 -0.00280083 0.00143783 0 -0.0029 0.00143783 0
-0.00269687 0.00143783 0 -0.00258894 0.00143783 0 -0.002477 0.00143783 0 -0.0023609
0.00143783 0 -0.00224048 0.00143783 0 -0.00211559 0.00143783 0 -0.00198606 0.00143783
0 -0.00185172 0.00143783 0 -0.00171238 0.00143783 0 -0.00156787 0.00143783 0
-0.00141798 0.00143783 0 -0.00126253 0.00143783 0 -0.0011013 0.00143783 0 -0.000934083
0.00143783 0 -0.000760651 0.00143783 0 -0.000580775 0.00143783 0 -0.000394216 0.00143783
0 -0.000200725 0.00143783 0 0 0.00143783 0 -0.00280084 0.00152 0
-0.0029 0.00152 0 -0.00269686 0.00152 0 -0.00258894 0.00152 0 -0.002477
0.00152 0 -0.00236089 0.00152 0 -0.00224048 0.00152 0 -0.00211559 0.00152
0 -0.00198605 0.00152 0 -0.00185171 0.00152 0 -0.00171237 0.00152 0
-0.00156786 0.00152 0 -0.00141798 0.00152 0 -0.00126252 0.00152 0 -0.0011013
0.00152 0 -0.000934077 0.00152 0 -0.000760645 0.00152 0 -0.000580769 0.00152
0 -0.00039421 0.00152 0 -0.000200719 0.00152 0 0 0.00152 0
-0.00280085 0.00159638 0 -0.0029 0.00159638 0 -0.00269686 0.00159638 0 -0.00258893
0.00159638 0 -0.00247699 0.00159638 0 -0.00236089 0.00159638 0 -0.00224047 0.00159638
0 -0.00211558 0.00159638 0 -0.00198605 0.00159638 0 -0.0018517 0.00159638 0
-0.00171237 0.00159638 0 -0.00156785 0.00159638 0 -0.00141797 0.00159638 0 -0.00126252
0.00159638 0 -0.00110129 0.00159638 0 -0.000934071 0.00159638 0 -0.000760639 0.00159638
[...]
POINT_DATA 1819
FIELD attributes 2
p 1 1819 float
-0.0103108 -0.0620989 -0.0542353 -0.0106731 0.0394078 0.0389662 0.079999 0.079447 0.107194 0.106594 0.111357
0.11079 0.0901807 0.0899932 0.0527536 0.0530302 0.0298799 0.0295653 -0.00953586 -0.060095 0.04005
0.0806108 0.107738 0.111628 0.0895035 0.0510374 0.0275691 -0.00849866 -0.0582139 0.0405657 0.080793
0.107667 0.110965 0.0873814 0.0473864 0.0233323 -0.00706558 -0.055744 0.0412808 0.0810642 0.107625
0.110088 0.0843751 0.0421065 0.0171453 -0.00530556 -0.0526919 0.0421107 0.0813176 0.10747 0.108809
0.0802257 0.034956 0.00883655 -0.0033025 -0.0491252 0.0429497 0.0814186 0.107028 0.106871 0.0745746
0.0255717 -0.00191434 -0.00114631 -0.0451344 0.0436902 0.0812291 0.106096 0.103934 0.0669451 0.0135058
-0.0154817 0.00106321 -0.0408271 0.0442141 0.0805923 0.10442 0.0995397 0.0567449 -0.00186395 -0.032514
0.00321891 -0.0363241 0.0443945 0.0793334 0.101717 0.0932503 0.0435433 -0.0208431 -0.0532814 0.00521276
-0.031754 0.0441047 0.0772524 0.0977294 0.0850078 0.0276712 -0.0427195 -0.0768664 0.00694465 -0.0272467
0.0432413 0.0741633 0.0922601 0.0753738 0.0108392 -0.0652822 -0.101008 0.00833428 -0.0229236 0.0417507
0.0699785 0.0852451 0.0652084 -0.00411597 -0.0849063 -0.122446 0.00933292 -0.0188873 0.0396247 0.0647087
0.0767961 0.0549562 -0.0157424 -0.103547 -0.147683 0.00992359 -0.0152144 0.0368882 0.0584609 0.067192
0.0443494 -0.0258293 -0.126493 -0.185063 0.0101548 -0.0111314 0.0328681 0.0500029 0.0548668 0.0312258
-0.0357357 -0.130226 -0.186827 4.34621 4.35035 4.35313 4.34939 4.33618 4.33947 4.31996
4.32338 4.29734 4.30082 4.26918 4.27276 4.23611 4.23973 4.19938 4.20301 4.16044
4.164 4.12076 4.12417 4.08172 4.08493 4.04456 4.04751 4.01024 4.0129 3.97949
3.98183 3.95274 3.95477 3.93023 3.93197 3.91201 3.91351 3.89804 3.89934 3.88829
3.88943 3.88293 3.88398 3.88241 3.88154 4.33796 4.34189 4.32776 4.3113 4.28843
4.25998 4.2267 4.18991 4.15108 4.11171 4.07318 4.03668 4.00314 3.9732 3.94727
3.92552 3.90798 3.89456 3.8852 3.88008 3.87868 4.32507 4.32908 4.31471 4.29796
4.27464 4.24579 4.21219 4.17532 4.1367 4.09787 4.06016 4.02472 3.99239 3.96374
3.93907 3.9185 3.90198 3.88939 3.88064 3.87586 3.87454 4.30699 4.31112 4.29644
4.27935 4.25552 4.22625 4.1924 4.15562 4.1175 4.07957 4.04314 4.00924 3.97862
3.95171 3.92874 3.90971 3.89452 3.88301 3.87504 3.8707 3.86949 4.28369 4.28792
4.27297 4.25556 4.23128 4.20171 4.1678 4.13142 4.0942 4.05764 4.02297 3.99112
3.96266 3.93793 3.917 3.89981 3.88619 3.87592 3.86884 3.865 3.86393 4.25465
4.25895 4.24387 4.22628 4.20174 4.17213 4.13855 4.10306 4.06728 4.03267 4.00033
3.97102 3.94519 3.923 3.90442 3.8893 3.87741 3.8685 3.86239 3.8591 3.85817
4.21905 4.22332 4.20842 4.19094 4.16651 4.13737 4.10472 4.07081 4.03718 4.0052
3.9758 3.94956 3.92677 3.90744 3.89145 3.87857 3.86852 3.86105 3.85595 3.85322
3.85246 4.17575 4.17982 4.16567 4.1488 4.12515 4.09724 4.06641 4.03496 4.00434
3.97575 3.94994 3.92729 3.90791 3.89171 3.87848 3.86794 3.8598 3.85378 3.84971
3.84755 3.84695 4.12322 4.1268 4.11436 4.09899 4.07715 4.05162 4.02377 3.9959
3.96927 3.94489 3.9233 3.90469 3.88905 3.87618 3.86581 3.85766 3.85143 3.84688
3.84381 3.8422 3.84175 4.05941 4.062 4.05294 4.04047 4.02203 4.00043 3.97706
3.95407 3.93251 3.91318 3.8964 3.88224 3.87057 3.86114 3.85369 3.84791 3.84357
3.84043 3.83833 3.83725 3.83695 3.98156 3.98229 3.97944 3.97213 3.95933 3.94376
3.92668 3.91004 3.89466 3.88117 3.86973 3.86032 3.85277 3.84684 3.84227 3.83882
3.83629 3.8345 3.83333 3.83274 3.83258 3.88595 3.88321 3.89152 3.89278 3.88878
3.88188 3.87318 3.86445 3.85635 3.8494 3.84372 3.83927 3.8359 3.83343 3.83168
3.83046 3.82964 3.82912 3.82881 3.82868 3.82865 3.76744 3.75821 3.78642 3.8013
3.81034 3.81528 3.81729 3.81803 3.8182 3.81838 3.81874 3.81934 3.82013 3.82104
3.82197 3.82286 3.82365 3.8243 3.82478 3.82507 3.82516 3.61888 3.59732 3.66112
3.69679 3.72434 3.74475 3.75987 3.77154 3.78083 3.78855 3.7951 3.80074 3.80558
3.80972 3.81319 3.81604 3.8183 3.82002 3.82122 3.82189 3.82208 3.43012 3.38475
3.51264 3.5787 3.63158 3.67134 3.70191 3.72577 3.74479 3.76028 3.77303 3.78359
3.79232 3.79949 3.80532 3.80996 3.81357 3.81625 3.81809 3.8191 3.81938 3.1862
3.09466 3.33851 3.44704 3.53341 3.59635 3.64446 3.68144 3.71057 3.73387 3.75269
3.76797 3.78035 3.79034 3.79833 3.8046 3.80941 3.81296 3.81537 3.81668 3.81705
2.86457 2.68503 3.13751 3.30266 3.43174 3.52138 3.5886 3.63924 3.67855 3.70951
3.73416 3.75389 3.76967 3.78224 3.79217 3.79991 3.8058 3.8101 3.81302 3.8146
3.81503 2.4278 2.08646 2.90903 3.14838 3.32902 3.44807 3.53529 3.5997 3.64901
3.68733 3.71747 3.74132 3.76021 3.77512 3.7868 3.79583 3.80267 3.80764 3.81101
3.81281 3.8133 1.82748 1.20898 2.65447 2.99012 3.22823 3.37803 3.48535 3.56323
3.62211 3.66735 3.70259 3.73021 3.75191 3.76891 3.78214 3.79232 3.79998 3.80554
3.80928 3.81128 3.81183 1.07026 -3.55027 2.37864 2.84263 3.13701 3.31586 3.44158
3.53162 3.59904 3.65038 3.69005 3.72093 3.74501 3.76378 3.77831 3.78944 3.79779
3.80383 3.80789 3.81005 3.81063 0.00965383 -0.00553939 0.0258774 0.0367441 0.0370628 0.0151164
-0.0388513 -0.0999341 -0.139156 0.00814742 -0.00195067 0.0182595 0.0237152 0.0208077 0.00276349 -0.0347782
-0.0736955 -0.0999307 0.0060601 6.92767e-05 0.0111719 0.0124975 0.00734114 -0.00782191 -0.0340951 -0.0615299
-0.0822464 0.00386747 0.00104643 0.00487943 0.00315194 -0.0034926 -0.016822 -0.0364562 -0.0572807 -0.0747803
0.00147724 0.00110338 -0.000617077 -0.00456743 -0.0122214 -0.0243909 -0.0404171 -0.0575776 -0.0731264 -0.00134295
0.000249378 -0.00538235 -0.0109994 -0.0193724 -0.0308555 -0.0449159 -0.0600247 -0.0742557 -0.00394501 -0.000744327
-0.00941077 -0.0163474 -0.0253201 -0.0365217 -0.0496069 -0.0636709 -0.077167 -0.00593346 -0.00142406 -0.0127359
-0.0207395 -0.0302711 -0.041461 -0.0541324 -0.0677271 -0.0808512 -0.00750948 -0.00195759 -0.0154504 -0.0243485
-0.034418 -0.0457737 -0.0583698 -0.0718539 -0.0848669 -0.00875533 -0.00238587 -0.0176485 -0.0273062 -0.0378861
-0.0495065 -0.0622188 -0.0758082 -0.0888871 -0.00973619 -0.00273308 -0.0194156 -0.0297154 -0.0407681 -0.0526995
-0.0656271 -0.0794439 -0.0926989 -0.0105016 -0.00301483 -0.0208214 -0.0316567 -0.0431387 -0.0554053 -0.0685962
-0.0826779 -0.0961528 -0.0110844 -0.00323917 -0.0219139 -0.0331736 -0.0450104 -0.0575953 -0.0710299 -0.085238
-0.0989086 -0.0114956 -0.00340716 -0.0227134 -0.0342923 -0.0464129 -0.0593692 -0.0731903 -0.0872187 -0.101172
-0.0116581 -0.00423162 -0.0230408 -0.034757 -0.0470102 -0.0601931 -0.0743004 -0.0882393 -0.103118 -0.144115
-0.165986 -0.137116 -0.151604 -0.133798 -0.143505 -0.133393 -0.140165 -0.135101 -0.139824 -0.138531
-0.141765 -0.143432 -0.145549 -0.149634 -0.150882 -0.157018 -0.157567 -0.165501 -0.165467 -0.175027
-0.174495 -0.185564 -0.184591 -0.197095 -0.195724 -0.209619 -0.207878 -0.223146 -0.221056 -0.237697
-0.235271 -0.253297 -0.250543 -0.269978 -0.266901 -0.287771 -0.284376 -0.306711 -0.303001 -0.326827
-0.322804 -0.34814 -0.343807 -0.370649 -0.366008 -0.394301 -0.389368 -0.41894 -0.413759 -0.444229
-0.43891 -0.469613 -0.464351 -0.49443 -0.489476 -0.518298 -0.513826 -0.54187 -0.537712 -0.5679
-0.563234 -0.602604 -0.595673 -0.657227 -0.645092 -0.749417 -0.727927 -0.906624 -0.869628 -1.16605
-1.10486 -1.56635 -1.47097 -2.13319 -1.99591 -2.85689 -2.67865 -3.66828 -3.46457 -4.43594
-4.23766 -5.0165 -4.86023 -5.3295 -5.24066 -5.39621 -5.37468 -5.3265 -5.34548 -5.2592
-5.28389 -5.30417 -5.31572 -5.53888 -5.51448 -6.8075 -6.91956 -4.85598 -0.11173 -0.115572
-0.118904 -0.122808 -0.127551 -0.133197 -0.139764 -0.147249 -0.155647 -0.164952 -0.175163 -0.186286
-0.198333 -0.211326 -0.22529 -0.240258 -0.256263 -0.273338 -0.291519 -0.310848 -0.331357 -0.353069
-0.375976 -0.400003 -0.42494 -0.450377 -0.475707 -0.500311 -0.524055 -0.548098 -0.575959 -0.614999
-0.678406 -0.785338 -0.967401 -1.267 -1.72386 -2.35977 -3.15096 -4.00425 -4.76289 -5.27508
-5.47801 -5.43151 -5.28704 -5.20236 -5.26198 -5.53227 -6.17868 -4.09567 -0.0949876 -0.102593
-0.109111 -0.115519 -0.122229 -0.129427 -0.137226 -0.145697 -0.154887 -0.164838 -0.175583 -0.187155
-0.199589 -0.212921 -0.227189 -0.242434 -0.258699 -0.276031 -0.294477 -0.314082 -0.334887 -0.356912
-0.380144 -0.404499 -0.429773 -0.455593 -0.481456 -0.506943 -0.532195 -0.558708 -0.590479 -0.635781
-0.709553 -0.833681 -1.04475 -1.38748 -1.90286 -2.60748 -3.46359 -4.35214 -5.09182 -5.52956
-5.6222 -5.46289 -5.2433 -5.13865 -5.20907 -5.4337 -5.46292 -3.27803 -0.0873384 -0.0962208
-0.104148 -0.111926 -0.119871 -0.128143 -0.136859 -0.146105 -0.155951 -0.166457 -0.177675 -0.189653
-0.202439 -0.216081 -0.230627 -0.246128 -0.26264 -0.280222 -0.29893 -0.318816 -0.339926 -0.362294
-0.385929 -0.410785 -0.436721 -0.46347 -0.490684 -0.518141 -0.546242 -0.576834 -0.614483 -0.668365
-0.754654 -0.898973 -1.13906 -1.52045 -2.08395 -2.83904 -3.74005 -4.64588 -5.35438 -5.72124
-5.72192 -5.47848 -5.21047 -5.08847 -5.12699 -5.18832 -4.69528 -2.53022 -0.0853939 -0.094774
-0.103341 -0.111804 -0.120425 -0.129339 -0.138645 -0.148425 -0.15875 -0.169683 -0.181285 -0.193612
-0.20672 -0.220668 -0.235512 -0.251313 -0.268136 -0.286045 -0.305106 -0.325385 -0.346947 -0.369854
-0.394151 -0.419841 -0.446847 -0.475005 -0.504123 -0.534233 -0.566093 -0.602021 -0.647189 -0.711515
-0.812007 -0.975128 -1.23787 -1.64391 -2.23055 -3.00183 -3.9072 -4.79559 -5.46556 -5.78022
-5.73131 -5.45726 -5.17431 -5.01751 -4.94662 -4.75273 -3.87059 -1.87356 -0.0861583 -0.095681
-0.104546 -0.113396 -0.122451 -0.131815 -0.141567 -0.151779 -0.162517 -0.173847 -0.185828 -0.198523
-0.211995 -0.226305 -0.241522 -0.257714 -0.274955 -0.293322 -0.312897 -0.333765 -0.356016 -0.37974
-0.405017 -0.431892 -0.460353 -0.490348 -0.521899 -0.55539 -0.592063 -0.634789 -0.689217 -0.765413
-0.879873 -1.05736 -1.33124 -1.7399 -2.31484 -3.05801 -3.91452 -4.74646 -5.3705 -5.65786
-5.60743 -5.34996 -5.06407 -4.83611 -4.60717 -4.16418 -3.07117 -1.33337 -0.0888025 -0.0983655
-0.107379 -0.116457 -0.125791 -0.135466 -0.145551 -0.156107 -0.167196 -0.178879 -0.191221 -0.204286
-0.218139 -0.232853 -0.248502 -0.265165 -0.282929 -0.301887 -0.322138 -0.343792 -0.366967 -0.391784
-0.418365 -0.446811 -0.477211 -0.509696 -0.544602 -0.582774 -0.625999 -0.677603 -0.743297 -0.832383
-0.959275 -1.14485 -1.41648 -1.80472 -2.33351 -3.00238 -3.76229 -4.49837 -5.0584 -5.33027
-5.30726 -5.08832 -4.79995 -4.49643 -4.13058 -3.52664 -2.39465 -0.933346 -0.0923085 -0.101878
-0.110984 -0.120224 -0.12977 -0.139696 -0.15006 -0.160919 -0.172331 -0.184356 -0.19706 -0.21051
-0.224777 -0.239941 -0.256086 -0.273303 -0.291693 -0.311369 -0.332455 -0.35509 -0.379427 -0.405632
-0.43389 -0.464401 -0.497422 -0.533362 -0.572965 -0.617605 -0.669595 -0.732477 -0.811432 -0.914026
-1.0513 -1.23884 -1.49685 -1.84746 -2.30716 -2.87341 -3.50655 -4.11886 -4.59449 -4.84288
-4.84957 -4.67496 -4.39742 -4.05331 -3.61246 -2.94407 -1.8771 -0.658577 -0.0962402 -0.105824
-0.115006 -0.124381 -0.134106 -0.144249 -0.154861 -0.165996 -0.177711 -0.190067 -0.203131 -0.216974
-0.231675 -0.24732 -0.264004 -0.281833 -0.300928 -0.321421 -0.343469 -0.367247 -0.392956 -0.42083
-0.451149 -0.484269 -0.520679 -0.561133 -0.606843 -0.659726 -0.722566 -0.798895 -0.89281 -1.00932
-1.15519 -1.34004 -1.57703 -1.88124 -2.26401 -2.72264 -3.22745 -3.71501 -4.10156 -4.31768
-4.34405 -4.20994 -3.95758 -3.6092 -3.14403 -2.46968 -1.50091 -0.471984 -0.100252 -0.109864
-0.119125 -0.128629 -0.13852 -0.148862 -0.159704 -0.171098 -0.183102 -0.195777 -0.209195 -0.22343
-0.23857 -0.254708 -0.271952 -0.290423 -0.310262 -0.331628 -0.354713 -0.37974 -0.406969 -0.436712
-0.469379 -0.505517 -0.545889 -0.591631 -0.644447 -0.706778 -0.781754 -0.872679 -0.982377 -1.11294
-1.26632 -1.44597 -1.65879 -1.91491 -2.2237 -2.58517 -2.97964 -3.36265 -3.67378 -3.85962
-3.89701 -3.79369 -3.568 -3.23063 -2.76471 -2.10798 -1.23173 -0.341132 -0.104102 -0.113751
-0.123098 -0.132732 -0.142785 -0.153316 -0.164373 -0.17601 -0.188286 -0.201265 -0.21502 -0.229635
-0.245201 -0.261821 -0.279615 -0.29872 -0.319295 -0.341523 -0.365642 -0.391924 -0.420682 -0.452317
-0.487372 -0.526585 -0.570991 -0.622093 -0.682032 -0.75368 -0.840394 -0.945245 -1.06981 -1.21334
-1.37329 -1.54763 -1.73781 -1.95046 -2.19482 -2.47519 -2.78152 -3.08409 -3.33848 -3.50094
-3.54476 -3.46271 -3.25783 -2.93288 -2.47359 -1.84088 -1.03952 -0.246473 -0.107632 -0.117347
-0.126799 -0.136571 -0.146784 -0.157493 -0.16875 -0.180609 -0.193132 -0.206387 -0.22045 -0.235408
-0.251359 -0.268414 -0.286703 -0.306376 -0.327605 -0.350576 -0.375616 -0.403037 -0.433138 -0.466433
-0.503571 -0.545438 -0.593289 -0.648898 -0.714705 -0.793824 -0.889679 -1.00504 -1.14044 -1.29315
-1.45768 -1.62824 -1.80239 -1.98381 -2.18093 -2.40062 -2.64006 -2.88119 -3.09188 -3.23545
-3.28222 -3.21428 -3.02416 -2.70915 -2.25806 -1.64928 -0.904882 -0.178794 -0.110602 -0.120473
-0.130057 -0.13997 -0.150328 -0.161195 -0.172623 -0.18467 -0.1974 -0.210883 -0.225195 -0.240439
-0.256709 -0.274112 -0.292794 -0.312913 -0.334659 -0.358252 -0.38397 -0.412134 -0.443169 -0.477626
-0.516219 -0.559925 -0.610114 -0.668684 -0.738175 -0.821702 -0.922505 -1.04291 -1.18291 -1.33919
-1.50527 -1.6741 -1.84175 -2.00975 -2.18401 -2.37026 -2.56818 -2.76655 -2.9426 -3.06666
-3.10946 -3.04747 -2.86563 -2.55663 -2.11215 -1.52323 -0.818746 -0.133816 -0.113331 -0.123306
-0.132861 -0.142828 -0.153259 -0.164214 -0.175742 -0.187899 -0.200747 -0.214357 -0.228809 -0.244193
-0.260616 -0.278201 -0.297088 -0.317439 -0.339452 -0.36338 -0.389419 -0.417924 -0.449415 -0.484442
-0.523751 -0.568357 -0.619651 -0.679524 -0.750446 -0.835354 -0.937214 -1.0581 -1.19794 -1.35369
-1.51969 -1.68949 -1.85907 -2.02892 -2.2024 -2.38226 -2.56636 -2.74455 -2.89836 -3.00354
-3.03424 -2.96719 -2.78488 -2.47587 -2.03241 -1.45389 -0.770788 -0.103852 -0.114821 -0.124724
-0.134176 -0.144131 -0.154567 -0.165539 -0.17709 -0.189272 -0.202147 -0.215784 -0.230268 -0.245665
-0.262097 -0.279714 -0.298637 -0.31903 -0.341086 -0.365042 -0.391152 -0.419773 -0.45138 -0.486547
-0.526028 -0.570846 -0.622386 -0.682513 -0.753635 -0.838573 -0.940163 -1.06042 -1.19938 -1.35426
-1.52023 -1.69134 -1.8636 -2.03721 -2.21462 -2.3971 -2.58079 -2.75483 -2.90145 -2.99824
-3.02133 -2.94897 -2.76421 -2.45359 -2.00889 -1.43257 -0.755483 -0.0438967 0.528045 2.13248
2.72322 3.06249 3.26564 3.40631 3.50632 3.58068 3.63696 3.6802 3.71367 3.73966
3.75981 3.77536 3.78723 3.79611 3.80252 3.80682 3.80911 3.80973 0.403305 1.95063
2.6237 2.99605 3.22094 3.37486 3.48389 3.5645 3.62521 3.67163 3.70739 3.73504
3.75641 3.77284 3.78535 3.79469 3.80141 3.80593 3.80832 3.80896 0.471234 1.83024
2.53828 2.93366 3.17831 3.34472 3.46247 3.54912 3.6141 3.66357 3.70152 3.73075
3.75326 3.77052 3.78362 3.79339 3.8004 3.8051 3.8076 3.80826 0.554859 1.75058
2.46621 2.87674 3.13836 3.31625 3.44226 3.53466 3.60371 3.65607 3.69608 3.72679
3.75036 3.76839 3.78204 3.7922 3.79948 3.80436 3.80694 3.80763 0.611764 1.69412
2.40474 2.82569 3.10149 3.28973 3.42342 3.52122 3.59411 3.64917 3.69111 3.72319
3.74774 3.76647 3.78062 3.79113 3.79866 3.8037 3.80636 3.80706 0.654121 1.65398
2.35192 2.78045 3.0679 3.26539 3.40612 3.50892 3.58535 3.64292 3.68662 3.71996
3.7454 3.76476 3.77937 3.79019 3.79793 3.80311 3.80584 3.80657 0.687337 1.62612
2.30688 2.74081 3.03773 3.2434 3.39047 3.49783 3.57751 3.63735 3.68265 3.71711
3.74335 3.76327 3.77827 3.78938 3.79731 3.80261 3.8054 3.80614 0.712372 1.60655
2.26899 2.70658 3.01112 3.2239 3.37661 3.48805 3.57063 3.6325 3.67922 3.71467
3.7416 3.76201 3.77735 3.78869 3.79679 3.80219 3.80503 3.80579 0.732363 1.59234
2.23753 2.67755 2.98817 3.20705 3.36465 3.47967 3.56478 3.62841 3.67635 3.71264
3.74015 3.76097 3.7766 3.78814 3.79636 3.80185 3.80474 3.8055 0.750108 1.58188
2.2119 2.65355 2.969 3.19299 3.35473 3.47278 3.56002 3.62512 3.67406 3.71104
3.73903 3.76017 3.77602 3.78771 3.79604 3.80159 3.80452 3.80529 0.766093 1.57431
2.19179 2.6346 2.9538 3.18192 3.347 3.46748 3.55642 3.62266 3.67238 3.70988
3.73822 3.7596 3.77561 3.78742 3.79582 3.80142 3.80437 3.80515 0.779674 1.56952
2.17745 2.62108 2.94302 3.1742 3.34173 3.46396 3.55408 3.62112 3.67135 3.70919
3.73775 3.75928 3.77539 3.78726 3.7957 3.80133 3.80429 3.80508 0.792095 1.56896
2.1702 2.61405 2.93748 3.1704 3.33928 3.46243 3.55316 3.62056 3.67102 3.709
3.73764 3.75922 3.77536 3.78724 3.7957 3.80133 3.80429 3.80509 0.805913 1.57345
2.17052 2.61371 2.93723 3.17045 3.33953 3.46279 3.55353 3.62091 3.67132 3.70925
3.73784 3.75938 3.77549 3.78734 3.79578 3.8014 3.80437 3.80516 0.814458 1.57799
2.17333 2.61574 2.93879 3.17168 3.34051 3.46356 3.55413 3.62137 3.67168 3.70952
3.73805 3.75954 3.77561 3.78744 3.79585 3.80146 3.80442 3.80522 
U 3 1819 float
0.385643 -0.00572776 -5.42101e-20 0.372272 -0.000630766 8.47033e-21 0.373104 -0.000747897 -3.26226e-05 0.386694 -0.00316752
-0.000138165 0.428498 -0.0117905 1.0842e-18 0.429581 -0.0065048 -0.000283735 0.502555 -0.0181243 -2.1684e-18
0.503569 -0.00998937 -0.000435729 0.608327 -0.0238019 2.81893e-18 0.609084 -0.0130801 -0.000570544 0.736904
-0.0270128 -4.22839e-18 0.737087 -0.0148355 -0.000647114 0.874476 -0.0242709 1.51788e-18 0.87397 -0.0132837
-0.000579427 0.974204 -0.0128007 -1.19262e-18 0.973627 -0.00702282 -0.00030633 1.00266 -0.00108571 -4.73574e-05
1.00129 -0.00086487 -6.84403e-19 0.382613 -0.0106974 1.11131e-18 0.369239 -0.00133149 -1.35525e-20 0.425357
-0.0220483 2.11419e-18 0.499549 -0.0339752 4.33681e-19 0.606053 -0.0448714 -3.25261e-18 0.736327 -0.0510154
1.51788e-18 0.875966 -0.045919 0 0.976006 -0.0238912 -4.66207e-18 1.00174 -0.00164389 -1.28071e-18
0.377663 -0.0156479 0 0.364394 -0.00200175 -1.82959e-19 0.42019 -0.0323046 -1.0842e-18 0.494488
-0.0499846 4.33681e-18 0.602157 -0.0664827 6.50521e-19 0.735301 -0.0758541 -2.1684e-18 0.878539 -0.0682038
-6.50521e-19 0.979337 -0.0347265 -6.28837e-18 1.00236 -0.00213241 -1.09098e-18 0.370724 -0.0206778 -8.13152e-19
0.357623 -0.0027016 -4.74338e-19 0.412882 -0.0428199 -9.75782e-19 0.487195 -0.0666321 -3.90313e-18 0.596436
-0.0893377 -4.33681e-19 0.733769 -0.1025 1.73472e-18 0.882449 -0.0918587 -3.03577e-18 0.984564 -0.0455083
1.73472e-18 1.00337 -0.00240758 -4.67562e-19 0.361801 -0.0256349 -1.19262e-18 0.348949 -0.00342246 -4.74338e-19
0.403375 -0.053306 -4.33681e-19 0.477508 -0.083571 -2.60209e-18 0.588637 -0.113194 -4.33681e-18 0.731611
-0.130908 -8.67362e-19 0.887923 -0.116755 -2.1684e-18 0.991981 -0.0557684 -7.37257e-18 1.00486 -0.00229942
-7.65718e-19 0.350927 -0.0304486 -4.33681e-19 0.338425 -0.00416056 -1.6263e-19 0.391623 -0.0636388 -1.95156e-18
0.465221 -0.100719 -1.30104e-18 0.578371 -0.138213 -4.77049e-18 0.728427 -0.161565 -3.90313e-18 0.894781
-0.143257 -8.67362e-19 1.00166 -0.0652587 -6.72205e-18 1.00691 -0.00161312 -7.18284e-19 0.338159 -0.0350503
9.75782e-19 0.326129 -0.00490887 -1.89735e-19 0.377583 -0.0736929 -2.1684e-19 0.450052 -0.117987 -8.67362e-19
0.564957 -0.16457 3.46945e-18 0.722915 -0.195033 -4.33681e-18 0.901221 -0.171895 4.33681e-19 1.01251
-0.073928 -2.60209e-18 1.00954 -0.00017329 -3.79894e-19 0.323584 -0.0393526 -2.1684e-18 0.312171 -0.0056552
-1.89735e-19 0.361219 -0.0832819 -1.0842e-18 0.431621 -0.135153 8.67362e-19 0.547197 -0.192184 -2.60209e-18
0.711931 -0.23155 1.73472e-18 0.901971 -0.203248 -2.60209e-18 1.02077 -0.0822488 6.50521e-19 1.01243
0.00203927 -4.94667e-19 0.307333 -0.0432447 -5.09575e-18 0.2967 -0.00638229 4.06576e-19 0.342529 -0.0921336
-9.97466e-18 0.409483 -0.151739 -3.03577e-18 0.523228 -0.220318 3.46945e-18 0.690027 -0.27036 -8.67362e-18
0.887404 -0.237723 5.20417e-18 1.01897 -0.0918775 0 1.01467 0.0045574 5.42101e-20 0.289589
-0.0465944 1.51788e-18 0.279914 -0.00706829 1.00289e-18 0.321593 -0.0998836 -3.90313e-18 0.383307 -0.166939
0 0.4909 -0.247223 3.46945e-18 0.65085 -0.308955 4.33681e-18 0.846092 -0.275061 -7.80626e-18
0.997234 -0.106083 -1.86483e-17 1.01456 0.00606793 -5.42101e-19 0.270607 -0.0492592 1.0842e-18 0.262055
-0.00768823 -1.89735e-19 0.298685 -0.106112 1.73472e-18 0.353237 -0.179615 1.73472e-18 0.448991 -0.270275
1.73472e-18 0.590691 -0.343253 -3.46945e-18 0.771068 -0.31379 -1.21431e-17 0.947113 -0.129136 -7.80626e-18