/*--------------------------------*- C++ -*----------------------------------*\
  =========                 |
  \\      /  F ield         | OpenFOAM: The Open Source CFD Toolbox
   \\    /   O peration     | Website:  https://openfoam.org
    \\  /    A nd           | Version:  13
     \\/     M anipulation  |
\*---------------------------------------------------------------------------*/
FoamFile
{
    format      ascii;
    class       volScalarField;
    location    "1.2";
    object      alpha.air;
}
// * * * * * * * * * * * * * * * * * * * * * * * * * * * * * * * * * * * * * //

dimensions      [];

internalField   nonuniform List<scalar> 
2268
(
6.73889e-14
3.13308e-14
9.34918e-15
2.91809e-15
8.55463e-16
3.57379e-16
2.87247e-16
4.04497e-16
6.50624e-16
8.55725e-16
8.32607e-16
6.3126e-16
5.82441e-16
6.01514e-16
6.76086e-16
8.04258e-16
1.08774e-15
3.36517e-15
1.08037e-14
3.86742e-14
4.7848e-14
7.95038e-15
1.39276e-15
3.85867e-13
1.59101e-13
3.23138e-14
1.12167e-14
5.19188e-15
3.94684e-15
4.29866e-15
6.10299e-15
8.7062e-15
1.06627e-14
1.04033e-14
9.2324e-15
9.82697e-15
1.09148e-14
1.14874e-14
1.27883e-14
1.48527e-14
5.57079e-14
2.17318e-13
4.577e-13
8.21369e-13
5.25397e-13
3.65496e-14
1.72853e-12
7.21461e-13
2.19951e-13
1.06732e-13
5.18562e-14
3.73004e-14
3.46523e-14
4.84211e-14
6.78126e-14
8.18696e-14
7.6774e-14
7.0056e-14
7.50729e-14
8.0418e-14
7.99001e-14
1.08225e-13
8.28524e-14
3.28866e-13
1.08914e-12
2.45521e-12
3.61319e-12
4.6886e-12
1.21603e-12
4.62938e-12
2.76602e-12
1.27881e-12
6.8832e-13
2.96952e-13
2.7463e-13
2.70918e-13
3.37427e-13
3.62615e-13
3.20603e-13
2.74157e-13
3.32425e-13
5.18344e-13
6.06683e-13
4.73101e-13
3.54764e-13
1.47662e-13
4.37637e-13
1.40031e-12
1.53625e-12
4.20272e-12
7.62576e-12
1.07688e-11
1.38707e-11
1.11824e-11
8.70619e-12
6.56242e-12
3.92524e-12
2.2039e-12
1.78451e-12
1.53477e-12
1.27371e-12
1.08327e-12
1.31092e-12
2.65931e-12
7.77438e-12
1.28899e-11
1.86434e-12
5.77737e-14
5.75438e-14
5.71573e-14
5.74935e-14
5.71573e-14
5.74935e-14
5.71573e-14
5.82376e-14
2.30061e-11
1.96916e-11
1.60911e-11
1.33719e-11
1.1677e-11
9.38595e-12
7.69261e-12
6.4854e-12
6.57479e-12
8.51482e-12
1.23865e-11
2.46049e-11
7.55405e-11
2.31275e-10
6.16705e-10
1.75035e-09
3.46449e-08
7.85738e-07
4.34867e-06
0.000407262
0.00130173
0.00606989
0.0169909
9.49901e-11
5.69651e-11
3.12087e-11
2.36432e-11
1.99897e-11
2.02902e-11
2.00592e-11
2.02907e-11
2.31362e-11
3.60067e-11
6.68908e-11
1.41756e-10
3.54627e-10
7.32458e-10
6.58123e-10
2.18328e-08
2.072e-07
2.09519e-07
0.00016014
0.000166514
0.0179768
0.0969132
0.161135
2.54448e-10
1.85922e-10
1.19386e-10
8.6515e-11
5.2577e-11
4.1193e-11
4.45155e-11
5.61869e-11
8.07263e-11
1.2413e-10
2.03347e-10
3.67359e-10
5.62141e-10
1.26692e-09
3.6949e-09
3.81826e-09
1.35244e-07
1.67328e-06
2.02402e-06
0.0193781
0.184697
0.233147
0.233199
0.0220491
0.0038217
1.18739e-10
1.19356e-10
1.09463e-07
0.0203152
0.0585267
0.11402
0.111917
0.104358
0.113772
0.172878
0.185516
0.138569
0.0948462
0.0101427
0.00750161
0.00945967
0.0143582
0.0396469
0.0146699
1.18498e-07
0.000117835
0.000269802
1.85067e-05
1.34377e-13
1.35946e-07
3.20918e-06
0.000204889
0.00193981
0.052967
0.287054
0.266165
0.200015
0.118211
0.0222035
0.0269284
0.00899389
0.103069
0.0916892
0.00764569
8.17273e-23
2.62905e-06
2.99063e-12
3.29391e-23
5.62581e-23
1.73952e-05
0.0259595
0.113136
0.13652
0.398317
0.498579
0.498589
0.497237
0.419058
0.165014
0.0238121
0.103341
0.103069
0.0227451
-4.00767e-06
1.63133e-05
1.42435e-05
5.37043e-05
5.44015e-07
0.0531779
0.413606
0.546341
0.479178
0.381524
0.425329
0.471504
0.498691
0.498519
0.359831
0.0583294
0.103069
0.0499482
0.00936864
0.00188741
1.79313e-05
0.000112172
0.000572178
0.00190162
0.169511
0.558151
0.558294
0.558214
0.460795
0.332247
0.26902
0.203246
0.167916
0.102302
0.0557416
0.0929985
0.000237055
2.83697e-05
0.000179464
3.71378e-05
1.54785e-05
1.52243e-06
1.4507e-06
0.0694133
0.309013
0.467973
0.498171
0.514438
0.312965
0.0939765
0.0189046
0.00338311
5.47328e-05
0.0556669
0.00536244
2.52118e-05
2.7776e-05
5.71009e-06
4.22174e-06
3.81182e-06
7.3472e-06
3.74792e-05
-5.40031e-07
2.91896e-06
2.14181e-15
0.0196097
0.0291438
0.0478674
0.0303918
0.0236699
0.0117195
4.67946e-05
0.108556
2.57167e-05
2.44796e-05
2.76797e-05
3.84813e-05
1.86759e-05
1.10639e-05
6.41726e-05
5.29658e-05
0.000117861
3.83213e-05
1.47779e-13
3.28398e-14
1.47779e-13
1.9428e-11
2.034e-10
1.40539e-10
2.0847e-05
3.29664e-05
0.161656
4.00281e-10
3.42563e-10
2.9482e-10
2.68704e-10
2.15063e-10
1.62782e-10
1.57847e-10
1.86462e-10
2.43653e-10
3.21373e-10
4.38444e-10
6.99299e-10
1.13442e-09
1.19087e-09
1.68099e-09
3.84932e-08
4.51946e-08
5.53182e-08
0.00410666
0.161123
0.223619
0.225532
0.177351
4.96916e-10
4.7032e-10
4.51658e-10
4.46564e-10
4.57863e-10
4.89102e-10
5.02388e-10
5.39325e-10
5.76221e-10
6.08647e-10
7.29493e-10
1.56258e-09
3.39371e-09
4.12862e-09
2.81241e-09
7.10398e-09
1.98042e-08
0.101056
0.21169
0.212274
0.0449785
0.0202384
0.00513478
5.18373e-10
5.302e-10
5.4841e-10
7.62189e-10
1.45199e-09
1.13811e-09
9.57953e-10
9.99247e-10
1.02802e-09
9.97701e-10
9.80529e-10
1.15902e-09
1.20386e-09
1.13502e-09
2.59666e-09
0.113543
0.226415
0.229942
0.162024
0.0543051
1.77576e-06
-1.45673e-14
-1.15393e-10
4.78804e-10
4.77399e-10
5.6788e-10
1.96524e-09
8.6205e-09
5.81847e-09
3.90452e-09
1.30497e-09
3.84558e-08
6.60082e-12
-5.41089e-12
-3.49671e-12
2.91301e-07
0.151245
0.246023
0.25181
0.235618
0.0885921
0.00541277
3.20754e-06
4.63779e-07
6.24827e-10
-6.37922e-13
5.62485e-10
4.17582e-10
1.04919e-09
9.14436e-09
2.78268e-08
1.42304e-08
1.86553e-08
1.45043e-08
0.00019727
2.91399e-08
0.0335548
0.191969
0.292121
0.296328
0.271486
0.0878799
0.0268174
4.33859e-05
3.36539e-08
2.69366e-08
1.08198e-07
2.23358e-08
1.47542e-06
2.06156e-09
8.43521e-10
3.77826e-09
2.41251e-08
3.81652e-08
0.000240855
0.0169372
0.0306709
0.142226
0.286239
0.322658
0.32286
0.258655
0.1249
0.0377135
5.5315e-05
9.21502e-06
7.05187e-06
2.43552e-06
9.12754e-09
1.33465e-08
2.48728e-08
3.23395e-07
1.06289e-08
2.49065e-09
6.46864e-09
3.32523e-09
0.00849314
0.0756379
0.201448
0.308592
0.308629
0.310641
0.174149
0.104099
0.0199974
1.15291e-05
3.04454e-06
1.09122e-05
9.28921e-06
1.88205e-06
7.06472e-07
9.09661e-09
9.09655e-09
9.17976e-09
9.09033e-09
4.02005e-08
2.69912e-09
2.89548e-09
0.000623452
0.0498093
0.163564
0.213556
0.208463
0.0538474
0.0441125
0.000985174
1.1167e-07
1.35553e-07
8.94956e-08
2.83481e-06
7.39715e-06
3.32176e-06
9.34144e-09
9.09812e-09
9.09655e-09
9.09689e-09
9.09778e-09
9.1091e-09
4.45252e-08
3.49424e-05
0.0308344
0.127015
0.0394136
0.0203393
0.020868
2.38665e-09
1.03219e-07
1.50672e-07
2.37308e-09
1.25871e-08
1.80204e-08
7.44567e-08
6.00293e-07
7.43706e-08
2.11985e-08
1.51535e-08
9.34144e-09
9.09812e-09
0.0147937
0.0965574
0.137691
0.00620953
0.248619
0.579119
0.23085
0.000128046
2.3834e-09
2.38668e-09
2.37514e-09
2.37804e-09
2.36466e-09
2.3679e-09
2.36466e-09
2.57103e-09
3.66435e-08
6.88425e-08
5.05215e-08
0.0435993
0.143436
0.274747
0.425049
0.665808
0.832846
0.880913
0.559756
0.853752
0.876264
0.325648
0.154019
0.1435
0.119901
0.12173
0.144362
0.152258
0.167424
0.202344
0.259086
0.348235
0.470596
0.617785
0.756894
0.877545
0.95555
0.990455
1
1
0.999999
1
0.998717
0.977058
0.957492
0.925722
0.895076
0.899445
0.91898
0.907534
0.899081
0.909083
0.928313
0.952367
0.977334
0.995175
1
1
1
1
0.999999
1
1
0.999999
0.999998
0.999991
1
1
1
1
1
1
1
1
1
1
1
1
1
1
1
1
1
1
0.999999
0.999999
0.999998
0.999999
0.999992
0.99999
1
1
1
1
1
1
0.999999
0.999998
0.999998
0.999999
0.999999
1
1
1
1
1
1
0.999999
0.999999
0.999999
1
0.999999
0.999999
1
1
1
1
1
1
1
1
0.999973
0.999936
0.99998
0.999998
0.999999
1
1
1
1
0.999999
0.999999
1
1
1
1
1
1
1
1
1
1
1
1
0.999984
0.99984
0.999819
0.999893
0.999997
0.999997
0.999998
0.999998
0.999996
0.999996
0.999998
0.999999
1
1
1
1
1
1
1
1
1
1
1
1
0.999951
0.999814
0.999815
0.999815
0.999926
0.999997
0.999997
0.999997
0.999997
0.999997
0.999997
1
1
1
1
1
1
1
1
1
1
1
1
1
0.999983
0.999913
0.99986
0.999866
0.999935
0.999999
0.999999
0.999999
0.999999
0.999998
1
1
1
1
1
1
1
1
1
1
1
1
1
1
1
0.999996
0.999979
0.999973
0.999985
0.999998
1
1
1
1
1
1
1
1
1
1
1
1
1
1
1
1
1
1
1
1
1
0.999998
0.999998
1
1
1
1
1
1
1
1
1
1
1
1
1
1
1
1
1
1
1
1
1
1
1
1
1
1
1
1
1
1
1
1
1
1
1
1
1
1
1
1
1
1
1
1
1
1
1
1
1
1
1
1
1
1
1
1
1
1
1
1
1
1
1
1
1
1
1
1
1
1
1
1
1
1
1
1
1
1
1
1
1
1
1
1
1
1
1
1
1
1
1
1
1
1
1
1
1
1
1
1
1
1
1
1
1
1
1
1
1
1
1
1
1
1
1
1
1
1
1
1
1
1
1
1
1
1
1
1
1
1
1
1
1
1
1
1
1
1
1
1
1
1
1
1
1
1
1
1
1
1
1
1
1
1
1
1
1
1
1
1
1
1
1
1
1
1
1
1
1
1
1
1
1
1
1
1
1
1
1
1
1
1
1
1
1
1
1
1
1
1
1
1
1
1
1
1
1
1
1
1
1
1
1
1
1
1
1
1
1
1
1
1
1
1
1
1
1
1
1
1
1
1
1
1
1
1
1
1
1
1
1
1
1
1
1
1
1
1
1
1
1
1
1
1
1
1
1
1
1
1
1
1
1
1
1
1
1
1
1
1
1
1
1
1
1
1
1
1
1
1
1
1
1
1
1
1
1
1
1
1
1
1
1
1
1
1
1
1
1
1
1
1
1
1
1
1
1
1
1
1
1
1
1
1
1
1
1
1
1
1
1
1
1
1
1
1
1
1
1
1
1
1
1
1
1
1
1
1
1
1
1
1
1
1
1
1
1
1
1
1
1
1
1
1
1
1
1
1
1
1
1
1
1
1
1
1
1
1
1
1
1
1
1
1
1
1
1
1
1
1
1
1
1
1
1
1
1
1
1
1
1
1
1
1
1
1
1
1
1
1
1
1
1
1
1
1
1
1
1
1
1
1
1
1
1
1
1
1
1
1
1
1
1
1
1
1
1
1
1
1
1
1
1
1
1
1
1
1
1
1
1
1
1
1
1
1
1
1
1
1
1
1
1
1
1
1
1
1
1
1
1
1
1
1
1
1
1
1
1
1
1
1
1
1
1
1
1
1
1
1
1
1
1
1
1
1
1
1
1
1
1
1
1
1
1
1
1
1
1
1
1
1
1
1
1
1
1
1
1
1
1
1
1
1
1
1
1
1
1
0.0205002
0.00319347
0.186607
0.227293
0.00121397
0.00689467
0.191174
0.242983
-2.75958e-07
0.000620252
0.0482033
0.130458
5.87379e-05
0.000267032
8.57178e-08
0.000939632
1.63374e-05
2.68721e-07
5.85179e-08
2.65049e-07
9.09033e-09
1.37737e-08
7.38046e-08
2.4307e-07
9.09432e-09
9.53124e-09
2.90758e-08
7.41565e-08
1.76811e-08
8.96574e-09
6.73837e-08
1.00951e-07
0.214108
0.391642
0.464869
0.486291
0.919289
0.982706
0.995438
0.997295
0.999999
0.999999
0.999999
0.999999
0.999999
0.999999
0.999999
0.999999
0.999998
0.999998
0.999998
0.999998
0.999998
0.999999
0.999999
0.999999
1
1
1
1
1
1
1
1
1
1
1
1
1
1
1
1
1
1
1
1
1
1
1
1
1
1
1
1
1
1
1
1
1
1
1
1
1
1
1
1
1
1
1
1
1
1
1
1
1
1
1
1
1
1
1
1
1
1
1
1
1
1
1
1
1
1
1
1
1
1
1
1
1
1
1
1
1
1
1
1
1
1
1
1
1
1
1
1
1
1
1
1
1
1
1
1
1
1
1
1
1
1
1
1
1
1
1
1
1
1
1
1
7.32796e-05
0.11805
0.0611289
0.00963505
0.00410846
0.00112992
0.000314607
4.75238e-05
0.000244257
0.000241844
3.71008e-06
1.2285e-05
3.34315e-05
0.000164053
0.000518897
0.000900725
0.0021431
4.6792e-05
0.187862
0.242965
0.242983
0.117552
0.0241621
0.0153104
0.00839261
0.00139016
9.87876e-05
0.00011915
0.000178035
0.000203692
0.000407214
0.000627544
0.000821195
0.00120314
0.00159701
0.00153417
0.0406329
0.39252
0.154952
0.107077
0.0314943
0.00736155
0.00458448
0.00260564
0.00116491
0.000373905
3.89644e-05
4.49105e-05
0.000259284
0.000457365
0.000740318
0.000690598
0.000669407
0.00068867
0.000694759
0.16421
0.441362
0.00354159
2.21868e-07
9.94829e-08
-1.79411e-10
4.7527e-16
-2.68853e-14
-3.055e-31
8.01522e-11
2.63575e-09
0.000376848
3.54334e-05
4.14112e-08
0.014358
0.0435695
0.0550719
0.0236388
0.000701527
0.2158
0.440279
3.29936e-07
3.4815e-07
3.76382e-07
1.24513e-07
-4.71698e-16
-1.10115e-15
1.57527e-13
1.13758e-08
5.10708e-08
0.0212034
0.156108
0.369829
0.580032
0.672984
0.654236
0.492102
0.272588
0.227963
0.25735
4.55069e-07
5.99282e-07
5.98031e-07
1.54765e-07
4.17852e-09
9.7246e-09
2.65729e-08
0.0489905
0.24976
0.61001
0.881621
0.999999
0.999999
0.999994
0.99715
0.92948
0.867544
0.843972
0.851089
1.10061e-07
9.86502e-08
7.70414e-08
4.38903e-08
2.54587e-08
0.0897463
0.34373
0.715971
0.974146
0.999999
0.999999
1
1
0.999996
0.998443
0.996771
0.999815
0.99998
0.999998
8.6079e-08
0.0219424
0.114196
0.296171
0.599043
0.876881
1
1
0.999999
0.99999
0.999855
0.999983
1
0.997561
0.992665
0.992745
0.999422
0.999998
0.999998
0.562064
0.738241
0.880836
0.981031
1
1
1
1
0.999971
0.999248
0.998835
0.999456
0.999999
0.997927
0.995414
0.99887
0.999999
0.999998
0.999998
0.999877
1
1
1
1
0.999999
0.999999
1
0.999692
0.998835
0.998833
0.999409
1
0.999788
1
1
0.999999
1
0.999999
1
1
1
1
0.999999
0.999997
0.999997
0.999986
0.999911
0.999903
0.999918
0.999982
1
1
1
1
1
1
1
0.999999
0.999999
1
1
0.999999
0.999997
0.999997
0.999999
1
1
1
1
1
1
1
1
1
1
0.999998
0.999999
1
1
1
1
1
1
1
1
1
1
1
1
1
1
1
1
1
0.999998
1
1
1
1
1
1
1
1
1
1
1
1
1
1
1
1
1
1
0.999998
1
1
1
1
1
1
1
1
1
1
1
1
1
1
1
1
1
1
0.999999
1
1
1
1
1
1
1
1
1
1
1
1
1
1
1
1
1
1
0.999999
1
1
1
1
1
1
1
1
1
1
1
1
1
1
1
1
1
1
1
1
1
1
1
1
1
1
1
1
1
1
1
1
1
1
1
1
1
1
1
1
1
1
1
1
1
1
1
1
1
1
1
1
1
1
1
1
1
1
1
1
1
1
1
1
1
1
1
1
1
1
1
1
1
1
1
1
1
1
1
1
1
1
1
1
1
1
1
1
1
1
1
1
1
1
1
1
1
1
1
1
1
1
1
1
1
1
1
1
1
1
1
1
1
1
1
1
1
1
1
1
1
1
1
1
1
1
1
1
1
1
1
1
1
1
1
1
1
1
1
1
1
1
1
1
1
1
1
1
1
1
1
1
1
1
1
1
1
1
1
1
1
1
1
1
1
1
1
1
1
1
1
1
1
1
1
1
1
1
1
1
1
1
1
1
1
1
1
1
1
1
1
1
1
1
1
1
1
1
1
1
1
1
1
1
1
1
1
1
1
1
1
1
1
1
1
1
1
1
1
1
1
1
1
1
1
1
1
1
1
1
1
1
1
1
1
1
1
1
1
1
1
1
1
1
1
1
1
1
1
1
1
1
1
1
1
1
1
1
1
1
1
1
1
1
1
1
1
1
1
1
1
1
1
1
1
1
1
1
1
1
1
1
1
1
1
1
1
1
1
1
1
1
1
1
1
1
1
1
1
1
1
1
1
1
1
1
1
1
1
1
1
1
1
1
1
1
1
1
1
1
1
1
1
1
1
1
1
1
1
1
1
1
1
1
1
1
1
1
1
1
1
1
1
1
1
1
1
1
1
1
1
1
1
1
1
1
1
1
1
1
1
1
1
1
1
1
1
1
1
1
1
1
1
1
1
1
1
1
1
1
1
1
1
1
1
1
1
1
1
1
1
1
1
1
1
1
1
1
1
1
1
1
1
1
1
1
1
1
1
1
1
1
1
1
1
1
1
1
1
1
1
1
1
1
1
1
1
1
1
1
1
1
1
1
1
1
1
1
1
1
1
1
1
1
1
1
1
1
1
1
1
1
1
1
1
1
1
1
1
1
1
1
1
1
1
1
1
1
1
1
1
1
1
1
1
1
1
1
1
1
1
1
1
1
1
1
1
1
1
1
1
1
1
1
)
;

boundaryField
{
    leftWall
    {
        type            alphaContactAngle;
        contactAngleProperties 
        {
            mercury         
            {
                theta0          90;
            }
            water           
            {
                theta0          90;
            }
            oil             
            {
                theta0          90;
            }
        }
        value           nonuniform List<scalar> 
50
(
6.73889e-14
3.85867e-13
1.72853e-12
4.62938e-12
1.38707e-11
2.30061e-11
9.49901e-11
2.54448e-10
4.00281e-10
4.96916e-10
5.18373e-10
4.78804e-10
5.62485e-10
2.06156e-09
1.06289e-08
4.02005e-08
4.45252e-08
0.00620953
0.559756
1
0.999998
0.999999
1
1
1
1
1
1
1
1
1
1
1
1
1
1
1
1
1
1
1
1
1
1
1
1
1
1
1
1
)
;
    }
    rightWall
    {
        type            alphaContactAngle;
        contactAngleProperties 
        {
            mercury         
            {
                theta0          90;
            }
            water           
            {
                theta0          90;
            }
            oil             
            {
                theta0          90;
            }
        }
        value           nonuniform List<scalar> 
50
(
0.0143582
0.00899389
0.0238121
0.0583294
0.0557416
0.0556669
0.108556
0.161656
0.187862
0.39252
0.441362
0.440279
0.25735
0.851089
0.999998
0.999998
0.999998
0.999999
1
0.999998
0.999998
0.999998
0.999999
0.999999
1
1
1
1
1
1
1
1
1
1
1
1
1
1
1
1
1
1
1
1
1
1
1
1
1
1
)
;
    }
    lowerWall
    {
        type            alphaContactAngle;
        contactAngleProperties 
        {
            mercury         
            {
                theta0          90;
            }
            water           
            {
                theta0          90;
            }
            oil             
            {
                theta0          90;
            }
        }
        value           nonuniform List<scalar> 
62
(
6.73889e-14
3.13308e-14
9.34918e-15
2.91809e-15
8.55463e-16
3.57379e-16
2.87247e-16
4.04497e-16
6.50624e-16
8.55725e-16
8.32607e-16
6.3126e-16
5.82441e-16
6.01514e-16
6.76086e-16
8.04258e-16
1.08774e-15
3.36517e-15
1.08037e-14
3.86742e-14
4.7848e-14
7.95038e-15
1.39276e-15
1.39276e-15
3.65496e-14
1.21603e-12
1.07688e-11
5.82376e-14
0.0169909
0.161135
0.233199
0.0205002
0.00319347
0.186607
0.227293
0.0220491
0.0396469
0.103069
0.103341
0.103069
0.0929985
0.00536244
2.57167e-05
0.0220491
0.0038217
1.18739e-10
1.19356e-10
1.09463e-07
0.0203152
0.0585267
0.11402
0.111917
0.104358
0.113772
0.172878
0.185516
0.138569
0.0948462
0.0101427
0.00750161
0.00945967
0.0143582
)
;
    }
    atmosphere
    {
        type            inletOutlet;
        inletValue      uniform 1;
        value           nonuniform List<scalar> 
46
(
1
1
1
1
1
1
1
1
1
1
1
1
1
1
1
1
1
1
1
1
1
1
1
1
1
1
1
1
1
1
1
1
1
1
1
1
1
1
1
1
1
1
1
1
1
1
)
;
    }
    defaultFaces
    {
        type            empty;
    }
}


// ************************************************************************* //
