/*--------------------------------*- C++ -*----------------------------------*\
  =========                 |
  \\      /  F ield         | OpenFOAM: The Open Source CFD Toolbox
   \\    /   O peration     | Website:  https://openfoam.org
    \\  /    A nd           | Version:  13
     \\/     M anipulation  |
\*---------------------------------------------------------------------------*/
FoamFile
{
    format      ascii;
    class       volScalarField;
    location    "1.2";
    object      alphas;
}
// * * * * * * * * * * * * * * * * * * * * * * * * * * * * * * * * * * * * * //

dimensions      [];

internalField   nonuniform List<scalar> 
2268
(
2
2
2
2
2
2
2
2
2
2
2
2
2
2
2
2
2
2
2
2
1.99995
1.99947
1.99943
2
2
2
2
2
2
2
2
2
2
2
2
2
2
2
2
2
2
2
2
2
1.9999
1.99943
2
2
2
2
2
2
2
2
2
2
2
2
2
2
2
2
2
2
2
2
2
2
1.99981
2
2
2
2
2
2
2
2
2
2
2
2
2
2
2
2
2
2
2
2
2
2
1.99997
2
2
2
2
2
2
2
2
2
2
2
2
2
2
2
2
1.98838
1.94672
1.90786
1.87472
1.8718
1.90553
1.95875
2
2
2
2
2
2
2
2
2
2
2
1.99802
1.82493
1.56023
1.28201
1.01971
0.802339
0.659948
0.556007
0.477983
0.503854
0.640895
0.77418
1.906
1.97829
2
2
2
2
2
2
2
1.80804
1.33187
0.738485
0.361704
0.152391
0.0473781
0.0074645
5.17305e-06
7.49574e-06
0.000486749
0.000715484
0.0540717
0.310416
0.502688
0.706372
1.05521
1.39806
1.55513
1.61299
1.68419
1.67921
1.34892
0.735046
0.270312
0.0440523
2.63826e-09
4.90122e-08
7.869e-08
2.8633e-07
2.28682e-07
5.26313e-07
5.50006e-06
6.38383e-06
0.0654985
0.709276
1.17681
0.990318
1.11252
1.09482
1.09103
1.47146
1.87321
1.91338
1.95703
1.75008
1.6732
1.66069
1.67244
1.79552
2.03131
1.85208
1.75662
1.58721
1.61252
1.68854
1.70042
1.14578
1.19854
1.09113
1.17654
1.63467
1.81093
1.77624
1.79215
1.82371
1.8145
1.80426
1.81158
2.15545
2.16977
1.97751
1.71279
1.53531
1.68523
1.68022
1.27538
1.41096
1.20012
1.15591
1.36566
1.73745
1.60816
1.57927
1.64757
1.77433
2.05126
1.93465
2.07349
2.24352
2.26009
2.25403
2.10447
1.74905
1.60875
1.39013
1.00904
1.42345
1.5891
1.37988
0.722077
0.251062
0.250125
0.693101
2.01915
2.47792
2.26745
2.05746
2.08823
2.16304
2.21699
2.20947
1.85432
1.44149
0.920455
0.338053
0.5498
0.775552
0.458275
0.00492354
0.0017201
0.00580575
0.516599
1.89108
2.16765
2.29028
2.24435
1.94609
1.76657
1.51561
1.30412
1.20046
1.31769
0.703244
0.00184148
0.00199992
0.00913373
0.000277284
0.000221584
0.000255624
0.00835046
0.240371
1.1302
1.64297
1.73346
1.72021
1.25246
0.652541
0.424668
0.428474
0.725939
1.13201
0.797591
0.0143401
0.000438085
0.00020995
0.000202732
0.000185522
0.000612858
0.00780488
0.0106117
0.0679074
0.213546
0.299321
0.327161
0.330946
0.295781
0.293604
0.278041
0.504016
0.947166
0.875407
0.0419993
0.000232701
0.000238698
0.000199496
0.000173235
0.000665737
0.00051927
0.000552297
0.000378128
0.00537965
0.113195
0.13229
0.244592
0.418599
0.519312
0.420527
0.616663
1.03469
3.86275e-09
0.082852
0.219791
0.329118
0.342075
0.23031
0.08251
0.0202125
0.000277211
1.035e-09
2.05736e-08
4.75821e-09
9.50466e-09
3.03779e-08
4.617e-08
1.37236e-07
1.49815e-07
2.24979e-07
0.0123199
0.605008
1.34798
1.48539
1.34583
4.42997e-09
2.29643e-09
3.03875e-09
1.90527e-09
4.16234e-09
9.58069e-09
7.61664e-09
1.30828e-07
1.51742e-07
2.16487e-09
2.79925e-09
7.17308e-09
1.5669e-08
2.29515e-08
1.70476e-08
2.43068e-08
6.03594e-08
0.303168
0.730027
1.31463
1.09445
1.04251
1.01028
8.70987e-09
1.29599e-08
1.07705e-08
5.45223e-08
2.46778e-08
8.01014e-09
3.88347e-09
3.54817e-09
3.65253e-09
4.28792e-09
9.28016e-09
1.47839e-08
1.67236e-08
1.28372e-08
7.83198e-09
0.340628
0.711665
1.0278
1.27241
1.10861
1
0.999999
0.999997
8.2081e-09
1.39514e-08
1.2282e-08
1.17739e-08
2.71724e-08
1.82827e-08
1.25521e-08
5.2494e-09
1.20487e-07
2.91027e-08
3.54073e-08
2.91429e-08
8.7474e-07
0.453734
0.747485
1.00441
1.37375
1.17561
1.01083
1.00001
1
1
0.999999
7.8757e-09
1.54108e-08
2.43872e-08
3.54738e-08
8.42807e-08
4.3045e-08
5.64366e-08
4.70822e-08
0.000591815
1.03731e-07
0.100664
0.575908
0.900171
1.12593
1.42431
1.16878
1.05363
1.00009
0.999995
1
1
1
1
1.58583e-08
3.94808e-08
6.66225e-08
7.35832e-08
1.15574e-07
0.000722565
0.0508116
0.0920127
0.427763
0.858716
1.09501
1.30253
1.43142
1.24368
1.07543
1.00011
1.00002
1.00001
1
1
1
1
1
5.32073e-08
1.11015e-07
7.7058e-08
8.25836e-06
0.0254794
0.247953
0.70403
1.07803
1.3382
1.4909
1.3293
1.208
1.03999
1.00002
1.00001
1.00002
1.00002
1
1
1
1
1
1
1.6149e-07
1.2186e-07
9.4532e-06
0.0151412
0.429255
1.08056
1.39304
1.41693
1.10769
1.08822
1.00197
1
1
1
1.00001
1.00001
1.00001
1
1
1
1
1
1
1.63645e-07
0.000104828
0.107131
0.809273
1.07743
1.04068
1.04174
0.999999
1
1
1
1
1
1
1
1
1
1
1
1
1.02959
1.19311
1.27538
0.0186286
0.745857
1.84468
1.4617
1.00025
0.999982
0.999984
0.99999
0.999995
0.999998
1
1
1
1
1
1
1.0872
1.28687
1.54949
1.8501
2.33162
2.66569
2.76183
1.67927
2.56452
2.75253
1.6513
1.30801
1.28694
1.23974
1.24345
1.28872
1.30452
1.33485
1.40469
1.51817
1.69647
1.94119
2.23557
2.51379
2.75509
2.9111
2.98091
3
3
3
3.00001
2.99743
2.95412
2.91498
2.85141
2.7901
2.79888
2.83796
2.81507
2.79816
2.81817
2.85663
2.90473
2.95467
2.99035
3
3
3
3
3
3
3
3
3
2.99998
3
3
3
3
3
3
3
3
3
3
3
3
3
3
3
3
3
3
3
3
3
3
2.99998
2.99998
3
3
3
3
3
3
3
3
3
3
3
3
3
3
3
3
3
3
3
3
3
3
3
3
3
3
3
3
3
3
3
2.99995
2.99987
2.99996
2.99999
3
3
3
3
3
3
3
3
3
3
3
3
3
3
3
3
3
3
3
2.99997
2.99968
2.99964
2.99978
2.99999
2.99999
3
2.99999
2.99999
2.99999
2.99999
3
3
3
3
3
3
3
3
3
3
3
3
3
2.9999
2.99963
2.99963
2.99963
2.99985
2.99999
2.99999
2.99999
2.99999
2.99999
2.99999
3
3
3
3
3
3
3
3
3
3
3
3
3
2.99997
2.99983
2.99972
2.99973
2.99987
3
3
3
3
3
3
3
3
3
3
3
3
3
3
3
3
3
3
3
3
2.99999
2.99996
2.99995
2.99997
3
3
3
3
3
3
3
3
3
3
3
3
3
3
3
3
3
3
3
3
3
3
3
3
3
3
3
3
3
3
3
3
3
3
3
3
3
3
3
3
3
3
3
3
3
3
3
3
3
3
3
3
3
3
3
3
3
3
3
3
3
3
3
3
3
3
3
3
3
3
3
3
3
3
3
3
3
3
3
3
3
3
3
3
3
3
3
3
3
3
3
3
3
3
3
3
3
3
3
3
3
3
3
3
3
3
3
3
3
3
3
3
3
3
3
3
3
3
3
3
3
3
3
3
3
3
3
3
3
3
3
3
3
3
3
3
3
3
3
3
3
3
3
3
3
3
3
3
3
3
3
3
3
3
3
3
3
3
3
3
3
3
3
3
3
3
3
3
3
3
3
3
3
3
3
3
3
3
3
3
3
3
3
3
3
3
3
3
3
3
3
3
3
3
3
3
3
3
3
3
3
3
3
3
3
3
3
3
3
3
3
3
3
3
3
3
3
3
3
3
3
3
3
3
3
3
3
3
3
3
3
3
3
3
3
3
3
3
3
3
3
3
3
3
3
3
3
3
3
3
3
3
3
3
3
3
3
3
3
3
3
3
3
3
3
3
3
3
3
3
3
3
3
3
3
3
3
3
3
3
3
3
3
3
3
3
3
3
3
3
3
3
3
3
3
3
3
3
3
3
3
3
3
3
3
3
3
3
3
3
3
3
3
3
3
3
3
3
3
3
3
3
3
3
3
3
3
3
3
3
3
3
3
3
3
3
3
3
3
3
3
3
3
3
3
3
3
3
3
3
3
3
3
3
3
3
3
3
3
3
3
3
3
3
3
3
3
3
3
3
3
3
3
3
3
3
3
3
3
3
3
3
3
3
3
3
3
3
3
3
3
3
3
3
3
3
3
3
3
3
3
3
3
3
3
3
3
3
3
3
3
3
3
3
3
3
3
3
3
3
3
3
3
3
3
3
3
3
3
3
3
3
3
3
3
3
3
3
3
3
3
3
3
3
3
3
3
3
3
3
3
3
3
3
3
3
3
3
3
3
3
3
3
3
3
3
3
3
3
3
3
3
3
3
3
3
3
3
3
3
3
3
3
3
3
3
3
3
3
3
3
3
3
3
3
3
3
3
3
3
3
3
3
3
3
3
3
3
3
3
3
3
3
3
3
3
3
3
3
3
3
3
3
3
3
3
3
3
3
3
3
3
3
1.03558
1.00602
1.36601
1.36124
1.00209
1.01385
1.37451
1.38036
1.00004
1.00128
1.09441
1.22693
1.00012
1.00053
0.999985
1.00188
1.00003
1
1
1
1
1
1
1
1
1
1
1
1
1
1
1
1.42822
1.78328
1.92974
1.97258
2.83858
2.96541
2.99088
2.99459
3
3
3
3
3
3
3
3
3
3
3
3
3
3
3
3
3
3
3
3
3
3
3
3
3
3
3
3
3
3
3
3
3
3
3
3
3
3
3
3
3
3
3
3
3
3
3
3
3
3
3
3
3
3
3
3
3
3
3
3
3
3
3
3
3
3
3
3
3
3
3
3
3
3
3
3
3
3
3
3
3
3
3
3
3
3
3
3
3
3
3
3
3
3
3
3
3
3
3
3
3
3
3
3
3
3
3
3
3
3
3
3
3
3
3
3
3
3
3
3
3
3
3
3
3
3
3
3
0.818606
0.358183
0.183387
0.0289052
0.0123254
0.00338973
0.000958187
0.000361204
0.000749414
0.000869852
0.0158916
0.152473
0.425762
0.740141
0.891408
0.955697
0.922945
0.835299
1.23986
1.2634
0.992331
0.783852
0.606194
0.556183
0.398666
0.220602
0.200284
0.203177
0.324442
0.62334
0.876121
0.993132
1.00165
1.00243
1.0032
1.00307
1.06512
1.76642
1.24278
1.20771
1.06206
1.01437
1.00677
0.998456
0.987324
0.942221
0.932632
0.986717
1.0006
1.00102
1.0015
1.00139
1.00137
1.00139
1.00139
1.32676
1.85892
1.00708
1
1
1
1
1
1
1
1
1.00075
1.00007
1
1.02873
1.08718
1.11019
1.04729
1.0014
1.41732
1.85109
1
1
1
1
1
1
1
1
1
1.04241
1.31222
1.73966
2.16007
2.34602
2.30851
1.98424
1.54547
1.45361
1.50346
1
1
1
1
1
1
1
1.09798
1.49952
2.22002
2.76324
3
3
2.99999
2.9943
2.8593
2.73573
2.6885
2.70241
1
1
1
1
1
1.17949
1.68746
2.43194
2.94829
3
3
3
3
2.99999
2.99689
2.99372
2.99981
2.99998
3
1
1.04388
1.22839
1.59234
2.19809
2.75376
3
3
3
2.99998
2.99971
2.99997
3
2.99513
2.98536
2.98551
2.99884
3
3
2.12413
2.47648
2.76167
2.96206
3
3
3
3
2.99994
2.9985
2.99767
2.99891
3
2.99586
2.99083
2.99774
3
3
3
2.99975
3
3
3
3
3
3
3
2.99938
2.99767
2.99767
2.99882
3
2.99958
3
3
3
3
3
3
3
3
3
3
2.99999
2.99999
2.99997
2.99982
2.99981
2.99984
2.99996
3
3
3
3
3
3
3
3
3
3
3
3
2.99999
2.99999
3
3
3
3
3
3
3
3
3
3
3
3
3
3
3
3
3
3
3
3
3
3
3
3
3
3
3
3
3
3
3
3
3
3
3
3
3
3
3
3
3
3
3
3
3
3
3
3
3
3
3
3
3
3
3
3
3
3
3
3
3
3
3
3
3
3
3
3
3
3
3
3
3
3
3
3
3
3
3
3
3
3
3
3
3
3
3
3
3
3
3
3
3
3
3
3
3
3
3
3
3
3
3
3
3
3
3
3
3
3
3
3
3
3
3
3
3
3
3
3
3
3
3
3
3
3
3
3
3
3
3
3
3
3
3
3
3
3
3
3
3
3
3
3
3
3
3
3
3
3
3
3
3
3
3
3
3
3
3
3
3
3
3
3
3
3
3
3
3
3
3
3
3
3
3
3
3
3
3
3
3
3
3
3
3
3
3
3
3
3
3
3
3
3
3
3
3
3
3
3
3
3
3
3
3
3
3
3
3
3
3
3
3
3
3
3
3
3
3
3
3
3
3
3
3
3
3
3
3
3
3
3
3
3
3
3
3
3
3
3
3
3
3
3
3
3
3
3
3
3
3
3
3
3
3
3
3
3
3
3
3
3
3
3
3
3
3
3
3
3
3
3
3
3
3
3
3
3
3
3
3
3
3
3
3
3
3
3
3
3
3
3
3
3
3
3
3
3
3
3
3
3
3
3
3
3
3
3
3
3
3
3
3
3
3
3
3
3
3
3
3
3
3
3
3
3
3
3
3
3
3
3
3
3
3
3
3
3
3
3
3
3
3
3
3
3
3
3
3
3
3
3
3
3
3
3
3
3
3
3
3
3
3
3
3
3
3
3
3
3
3
3
3
3
3
3
3
3
3
3
3
3
3
3
3
3
3
3
3
3
3
3
3
3
3
3
3
3
3
3
3
3
3
3
3
3
3
3
3
3
3
3
3
3
3
3
3
3
3
3
3
3
3
3
3
3
3
3
3
3
3
3
3
3
3
3
3
3
3
3
3
3
3
3
3
3
3
3
3
3
3
3
3
3
3
3
3
3
3
3
3
3
3
3
3
3
3
3
3
3
3
3
3
3
3
3
3
3
3
3
3
3
3
3
3
3
3
3
3
3
3
3
3
3
3
3
3
3
3
3
3
3
3
3
3
3
3
3
3
3
3
3
3
3
3
3
3
3
3
3
3
3
3
3
3
3
3
3
3
3
3
3
3
3
3
3
3
3
3
3
3
3
3
3
3
3
3
3
3
3
3
3
3
3
3
3
3
3
3
3
3
3
3
3
3
3
3
3
3
3
3
3
3
3
3
3
3
3
3
3
3
3
)
;

boundaryField
{
    leftWall
    {
        type            calculated;
        value           nonuniform List<scalar> 
50
(
2
2
2
2
2
2
1.906
0.706372
3.86275e-09
4.42997e-09
8.70987e-09
8.2081e-09
7.8757e-09
1.58583e-08
5.32073e-08
1.6149e-07
1.63645e-07
0.0186286
1.67927
3.00001
3
3
3
3
3
3
3
3
3
3
3
3
3
3
3
3
3
3
3
3
3
3
3
3
3
3
3
3
3
3
)
;
    }
    rightWall
    {
        type            calculated;
        value           nonuniform List<scalar> 
50
(
1.70042
1.68022
1.60875
1.44149
1.31769
1.13201
0.947166
1.03469
1.23986
1.76642
1.85892
1.85109
1.50346
2.70241
3
3
3
3
3
3
3
3
3
3
3
3
3
3
3
3
3
3
3
3
3
3
3
3
3
3
3
3
3
3
3
3
3
3
3
3
)
;
    }
    lowerWall
    {
        type            calculated;
        value           nonuniform List<scalar> 
62
(
2
2
2
2
2
2
2
2
2
2
2
2
2
2
2
2
2
2
2
2
1.99995
1.99947
1.99943
1.99943
1.99943
1.99981
1.99997
1.95875
0.77418
0.502688
0.990318
1.03558
1.00602
1.36601
1.36124
1.11252
1.14578
1.27538
1.39013
0.920455
0.703244
0.797591
0.875407
1.11252
1.09482
1.09103
1.47146
1.87321
1.91338
1.95703
1.75008
1.6732
1.66069
1.67244
1.79552
2.03131
1.85208
1.75662
1.58721
1.61252
1.68854
1.70042
)
;
    }
    atmosphere
    {
        type            calculated;
        value           nonuniform List<scalar> 
46
(
3
3
3
3
3
3
3
3
3
3
3
3
3
3
3
3
3
3
3
3
3
3
3
3
3
3
3
3
3
3
3
3
3
3
3
3
3
3
3
3
3
3
3
3
3
3
)
;
    }
    defaultFaces
    {
        type            empty;
    }
}


// ************************************************************************* //
