/*--------------------------------*- C++ -*----------------------------------*\
  =========                 |
  \\      /  F ield         | OpenFOAM: The Open Source CFD Toolbox
   \\    /   O peration     | Website:  https://openfoam.org
    \\  /    A nd           | Version:  13
     \\/     M anipulation  |
\*---------------------------------------------------------------------------*/
FoamFile
{
    format      ascii;
    class       volScalarField;
    location    "1.2";
    object      alpha.water;
}
// * * * * * * * * * * * * * * * * * * * * * * * * * * * * * * * * * * * * * //

dimensions      [];

internalField   nonuniform List<scalar> 
2268
(
2.11331e-11
2.78764e-11
3.29148e-11
3.46405e-11
3.43234e-11
3.51914e-11
4.02169e-11
5.19281e-11
6.89271e-11
8.89838e-11
1.11485e-10
1.37779e-10
1.71308e-10
2.14588e-10
2.78062e-10
3.64367e-10
4.91596e-10
7.38894e-10
1.12891e-09
1.64186e-09
2.21601e-09
2.55058e-09
2.58484e-09
3.64409e-11
6.23803e-11
8.68695e-11
1.09633e-10
1.23155e-10
1.33329e-10
1.51849e-10
1.86454e-10
2.33079e-10
2.94213e-10
3.67425e-10
4.33479e-10
4.80705e-10
4.88734e-10
5.10011e-10
6.07586e-10
8.42343e-10
1.31217e-09
2.01278e-09
2.68559e-09
3.41429e-09
3.3787e-09
2.75397e-09
4.80461e-11
8.149e-11
1.34067e-10
2.08179e-10
3.05941e-10
3.96587e-10
4.76483e-10
5.83826e-10
7.47839e-10
1.05546e-09
1.31379e-09
1.4312e-09
1.25515e-09
7.6869e-10
5.41039e-10
7.02945e-10
9.88631e-10
1.25673e-09
1.36029e-09
1.92521e-09
2.89762e-09
2.94106e-09
2.9555e-09
3.93514e-10
4.39365e-10
2.52846e-10
2.55597e-10
3.92539e-10
6.47372e-10
9.09081e-10
1.37517e-09
1.99194e-09
2.26801e-09
2.53132e-09
2.62833e-09
1.88907e-09
6.19449e-10
5.37949e-10
5.41918e-10
5.46915e-10
5.51803e-10
5.5814e-10
5.5576e-10
5.667e-10
5.71063e-10
5.667e-10
4.96952e-09
6.93073e-09
6.13772e-09
1.99962e-09
5.58641e-10
9.67529e-10
1.44378e-09
1.53323e-09
1.54378e-09
1.57869e-09
1.58658e-09
2.40721e-09
9.04398e-10
6.12907e-10
5.4191e-10
5.47037e-10
0.00581037
0.0266377
0.0460679
0.062638
0.0640975
0.0472363
0.0206225
4.20847e-09
5.57979e-09
9.77089e-09
3.86998e-09
8.97505e-10
5.3467e-10
9.04477e-10
9.28726e-10
9.64855e-10
9.54376e-10
1.52737e-09
0.000988507
0.0875355
0.219883
0.358993
0.490144
0.598827
0.670022
0.721995
0.761209
0.748719
0.682587
0.61968
0.0469993
0.0108528
-5.92796e-13
-3.5614e-13
-2.11314e-13
-1.38589e-13
-4.81374e-14
-3.25786e-15
9.79386e-10
0.0959802
0.334066
0.630758
0.819148
0.923805
0.976311
0.996267
0.999995
0.999993
0.999834
0.999724
0.981951
0.889878
0.827448
0.646814
0.472394
0.300969
0.222434
0.193504
0.157905
0.160395
0.325538
0.632477
0.864844
0.977974
1
1
1
1
1
1
0.999998
0.999998
0.97694
0.689667
0.320985
0.496048
0.000265037
7.30286e-08
2.21754e-08
3.98035e-05
0.00107641
0.00149227
0.00174091
0.000317154
0.000308983
0.00112935
0.000797529
0.000776665
0.0298593
0.115195
0.12321
0.123214
0.092607
0.0205055
0.0183822
6.36245e-05
4.26877e-10
1.01848e-09
2.98099e-11
0.00449538
0.0634031
0.0979905
0.0821612
0.0502291
0.0379858
0.0155576
0.00234473
0.00748493
0.0202333
0.0832719
0.12321
0.122313
0.0585632
0.0183822
6.02266e-05
0.0391203
4.34633e-09
0.000107189
0.0206152
0.128974
0.195922
0.210363
0.176222
0.125788
0.0213879
0.00168534
0.00169242
0.0102069
0.0239602
0.0291461
0.0261471
0.10597
0.0427675
0.0156589
0.495927
0.11245
0.00511368
0.217057
0.635565
0.874496
0.874938
0.679831
0.18939
0.00168491
0.00168087
0.00167937
0.007731
0.00238027
0.00275505
0.0171263
0.150776
0.105562
0.487396
0.855302
0.726711
0.603684
0.770871
0.997594
0.999424
0.998014
0.822417
0.255276
0.0751269
0.0539638
0.0353105
0.105801
0.159285
0.263896
0.372164
0.264089
0.108678
0.573595
0.999196
0.999014
0.995523
0.99988
0.999897
0.999872
0.995825
0.905474
0.487826
0.292978
0.262917
0.323455
0.493246
0.683029
0.746509
0.730826
0.403893
0.201737
0.212481
0.985747
0.999795
0.999897
0.999897
0.999898
0.999688
0.996116
0.993411
0.9321
0.786458
0.739898
0.731127
0.764979
0.765003
0.753736
0.745398
0.511965
0.334924
0.129725
0.959507
0.999897
0.999897
0.999897
0.999897
0.99968
0.99974
0.999739
0.999739
0.994736
0.886806
0.867825
0.756307
0.582188
0.480715
0.579515
0.383403
0.318557
1
0.958574
0.890104
0.835441
0.828963
0.884845
0.958745
0.989894
0.999861
1
1
1
1
1
1
1
1
1
0.995893
0.745156
0.137613
2.63311e-07
0.0181806
1
1
1
1
1
1
1
1
1
1
1
1
1
1
1
1
1
0.898944
0.693557
0.113147
2.63311e-07
2.63278e-07
2.62888e-07
1
1
1
1
1
1
1
1
1
1
1
1
1
1
1
0.886457
0.741165
0.432083
0.0516909
5.30838e-09
6.30051e-07
5.44818e-07
3.25642e-06
1
1
1
1
1
1
1
1
1
1
1
1
1
0.848755
0.744561
0.499211
0.0974869
0.0015705
5.3136e-09
5.29817e-09
3.12525e-07
2.11931e-07
1.39933e-06
1
1
1
1
1
1
1
1
0.999803
1
0.966445
0.808031
0.684071
0.466727
0.118659
0.00698065
1.36975e-06
1.41026e-06
5.33595e-06
6.37122e-08
3.65117e-10
1.9963e-08
1.26777e-07
1
1
1
1
1
0.999759
0.983063
0.969329
0.856689
0.713761
0.550308
0.343186
0.0858898
0.00612385
4.65487e-07
-2.46482e-10
1.32918e-06
3.2113e-06
5.32153e-06
1.53085e-09
3.48934e-10
7.23981e-10
2.70351e-09
1
1
1
0.999992
0.991507
0.903323
0.698867
0.539152
0.279055
0.130386
0.0189946
0.000193083
-3.37788e-15
-9.50612e-11
4.40561e-07
1.00507e-06
1.09351e-06
4.37037e-07
4.68539e-07
2.48119e-10
2.50136e-10
2.8362e-10
2.06616e-10
1
1
0.999991
0.986106
0.670364
0.246565
0.0340678
1.11728e-14
-1.84322e-26
-1.53219e-13
3.35661e-20
-1.74254e-10
2.60171e-10
2.67387e-08
5.21376e-07
8.7108e-07
1.35301e-07
1.10444e-10
1.28727e-10
4.07286e-10
1.42773e-10
1.22733e-10
1.01818e-10
1
0.999965
0.954538
0.444756
0.00139548
6.75472e-13
8.1716e-13
7.2338e-07
1.43501e-07
9.11415e-08
1.94036e-07
2.55086e-08
3.57635e-08
2.7015e-08
8.47943e-08
1.02704e-07
4.2208e-08
8.20662e-10
1.26017e-10
2.48346e-10
7.17892e-11
5.93953e-11
5.51502e-11
0.99379
0.751381
0.313555
2.86913e-08
1.23373e-06
1.83618e-05
1.64542e-05
9.85681e-06
5.05733e-06
1.60572e-06
4.4794e-07
1.5921e-07
3.37995e-08
1.20485e-08
3.80515e-09
2.17086e-09
1.87393e-09
1.01777e-09
1.1916e-10
1.16133e-10
7.75812e-11
6.75434e-11
6.84912e-11
0.440244
0.14298
2.86912e-08
7.03606e-08
2.80409e-05
6.26119e-05
6.18551e-05
7.04718e-06
4.66445e-08
1.3162e-06
1.27109e-07
6.62468e-09
2.64546e-09
1.52371e-09
6.92616e-10
8.51732e-10
1.15926e-09
1.09334e-09
2.31343e-10
1.8069e-10
1.85901e-10
1.80996e-10
2.16809e-10
-3.03239e-06
-3.44874e-09
3.1881e-12
2.12251e-06
3.75543e-05
5.06865e-05
1.33419e-05
4.52598e-08
5.09084e-08
2.96069e-07
3.33576e-07
8.55776e-08
5.96751e-10
5.82393e-10
5.96859e-10
8.60795e-10
1.19943e-09
1.07958e-09
5.91638e-10
5.30259e-10
6.12495e-10
6.78176e-10
6.9703e-10
1.77437e-08
4.03743e-09
7.70353e-08
8.47456e-08
4.94885e-08
4.86327e-08
5.95448e-08
2.18308e-07
9.61301e-09
2.56185e-08
1.18036e-07
2.76518e-07
2.34846e-07
5.49804e-10
5.36483e-10
5.49038e-10
7.40498e-10
7.69073e-10
5.82932e-10
5.42655e-10
5.70869e-10
6.77714e-10
7.09841e-10
1.20432e-07
7.76664e-08
2.53845e-08
3.35632e-08
5.4063e-08
4.4751e-08
4.70333e-08
4.38815e-08
7.92871e-09
2.88978e-08
1.1056e-07
2.93199e-07
1.18215e-06
1.01066e-06
5.25892e-10
5.02295e-10
4.96294e-10
4.9402e-10
4.89656e-10
4.90952e-10
4.89442e-10
4.9095e-10
4.90198e-10
6.54075e-08
2.47613e-08
9.90013e-09
2.32504e-08
3.36744e-08
2.56853e-08
1.12956e-08
6.53582e-09
3.80083e-09
1.88334e-09
1.87228e-09
2.91584e-08
1.80414e-06
2.64724e-06
2.43424e-06
6.39633e-07
5.04502e-10
4.89465e-10
4.90952e-10
4.89441e-10
4.90952e-10
4.8944e-10
5.01966e-10
3.05308e-08
1.75508e-08
9.95887e-09
1.57232e-08
2.48487e-08
1.7014e-08
8.45254e-09
5.42037e-09
1.93413e-09
1.12571e-09
6.74583e-10
6.12559e-10
3.16713e-07
1.36735e-06
3.22134e-06
3.1723e-06
2.77976e-06
1.6114e-06
2.08142e-06
3.40754e-06
3.4184e-06
1.93143e-06
4.36804e-07
2.32594e-08
2.01801e-08
1.40298e-08
5.91745e-09
6.98419e-09
6.81627e-09
5.69144e-09
4.91508e-09
2.36264e-09
1.24046e-09
9.70547e-10
5.73054e-10
3.6789e-10
1.01206e-07
7.79637e-07
1.88193e-06
3.04102e-06
3.00154e-06
2.95184e-06
3.00094e-06
3.23102e-06
3.21931e-06
2.54573e-06
1.71637e-08
1.78647e-08
1.50106e-08
4.84404e-09
4.55915e-09
4.4511e-09
3.34398e-09
3.72035e-09
3.23119e-09
1.49513e-09
8.79305e-10
6.13104e-10
3.36031e-10
2.94576e-10
2.67061e-10
6.63295e-08
5.29772e-07
1.26261e-06
1.48025e-06
9.30719e-07
8.02962e-07
1.33795e-06
1.48678e-06
1.32876e-08
1.3802e-08
1.34714e-08
5.05254e-09
4.45007e-09
3.8021e-09
2.6495e-09
2.95001e-09
3.31574e-09
2.46091e-09
1.15904e-09
6.38455e-10
3.94391e-10
2.8843e-10
2.63755e-10
5.11987e-10
7.49883e-09
3.06469e-09
1.97932e-07
2.74415e-07
1.37085e-07
1.2191e-07
1.55167e-07
1.07888e-08
9.86613e-09
1.03375e-08
4.79786e-09
4.08818e-09
3.27971e-09
2.45705e-09
2.322e-09
2.79825e-09
2.76958e-09
2.00998e-09
1.01147e-09
5.18477e-10
3.1734e-10
2.71934e-10
2.69678e-10
2.17815e-10
3.10343e-10
3.0861e-10
6.92738e-09
1.50805e-08
8.0838e-09
1.2947e-08
8.80406e-09
6.65948e-09
6.94511e-09
3.88148e-09
3.31256e-09
2.72167e-09
2.13777e-09
1.89811e-09
2.16905e-09
2.30186e-09
2.13056e-09
1.49478e-09
8.96143e-10
4.51554e-10
2.47185e-10
2.00981e-10
2.19121e-10
2.60198e-10
2.40464e-10
1.54781e-10
2.34865e-10
1.12555e-09
1.8876e-09
6.77421e-09
4.33112e-09
4.1784e-09
2.68387e-09
2.36111e-09
1.98463e-09
1.68266e-09
1.47197e-09
1.53017e-09
1.67619e-09
1.69855e-09
1.38891e-09
9.87271e-10
6.17895e-10
3.07514e-10
1.51869e-10
1.29035e-10
1.33855e-10
1.49394e-10
1.47406e-10
1.40943e-10
1.66561e-10
2.53019e-10
4.75549e-09
2.70211e-09
2.29381e-09
1.61133e-09
1.46267e-09
1.26295e-09
1.14765e-09
1.02039e-09
1.00107e-09
1.07547e-09
1.1546e-09
1.02458e-09
8.0882e-10
5.64659e-10
3.32079e-10
1.46242e-10
8.56138e-11
7.3182e-11
7.09302e-11
7.78254e-11
8.23266e-11
8.47742e-11
9.19984e-11
2.8564e-09
1.56446e-09
1.16294e-09
8.50159e-10
7.82282e-10
6.99435e-10
6.65475e-10
6.10718e-10
5.90543e-10
6.13417e-10
6.51517e-10
6.15862e-10
5.3023e-10
4.00543e-10
2.6183e-10
1.29521e-10
5.86354e-11
4.04652e-11
3.5801e-11
3.69967e-11
4.19154e-11
4.41183e-11
4.63671e-11
1.49904e-09
8.24974e-10
5.47784e-10
3.96875e-10
3.59878e-10
3.32255e-10
3.28511e-10
3.09335e-10
3.02436e-10
3.10046e-10
3.23233e-10
3.1403e-10
2.84107e-10
2.26538e-10
1.57284e-10
8.93681e-11
3.49691e-11
2.28578e-11
1.78917e-11
1.78375e-11
1.96317e-11
2.12453e-11
2.29146e-11
6.95858e-10
3.89832e-10
2.38272e-10
1.64401e-10
1.42712e-10
1.34713e-10
1.37371e-10
1.30855e-10
1.31565e-10
1.35741e-10
1.42763e-10
1.37767e-10
1.26436e-10
1.04387e-10
7.51611e-11
4.48242e-11
1.74051e-11
1.1152e-11
8.55853e-12
8.30301e-12
9.06584e-12
9.97869e-12
1.05057e-11
2.70817e-10
1.61225e-10
9.40478e-11
6.0341e-11
4.94609e-11
4.65592e-11
4.86021e-11
4.75605e-11
4.89406e-11
5.0978e-11
5.17979e-11
5.11316e-11
4.74931e-11
3.93018e-11
2.86628e-11
1.70044e-11
6.85894e-12
4.55627e-12
3.58422e-12
3.66615e-12
4.00932e-12
4.29428e-12
4.50972e-12
8.58093e-11
5.73223e-11
3.29361e-11
1.98236e-11
1.51357e-11
1.37578e-11
1.45755e-11
1.47707e-11
1.55229e-11
1.62681e-11
1.66132e-11
1.63364e-11
1.5086e-11
1.23493e-11
8.59664e-12
5.19852e-12
2.27651e-12
1.55636e-12
1.40006e-12
1.48333e-12
1.6518e-12
1.72852e-12
1.7003e-12
2.34715e-11
1.75651e-11
1.01327e-11
5.85516e-12
4.13117e-12
3.52072e-12
3.72791e-12
3.87672e-12
4.09299e-12
4.3968e-12
4.5748e-12
4.46873e-12
4.06358e-12
3.31307e-12
2.31349e-12
1.34415e-12
6.35966e-13
4.89373e-13
4.92484e-13
5.50158e-13
5.90844e-13
5.80507e-13
5.35115e-13
5.82239e-12
4.7548e-12
2.77727e-12
1.55734e-12
1.01028e-12
7.97937e-13
8.16879e-13
8.58106e-13
9.02159e-13
1.00627e-12
1.06858e-12
1.03824e-12
9.33541e-13
7.14136e-13
5.156e-13
2.93526e-13
1.69547e-13
1.49556e-13
1.60482e-13
1.77336e-13
1.87684e-13
1.71947e-13
1.45461e-13
1.26477e-12
1.14728e-12
6.82923e-13
3.72515e-13
2.24253e-13
1.62608e-13
1.53143e-13
1.57184e-13
1.68069e-13
1.97436e-13
2.12022e-13
2.06335e-13
1.83026e-13
1.43943e-13
9.82387e-14
5.80283e-14
4.08261e-14
4.02602e-14
4.60588e-14
5.05739e-14
4.90493e-14
4.04088e-14
2.96484e-14
2.45617e-13
2.43298e-13
1.47974e-13
7.93018e-14
4.50614e-14
2.9953e-14
2.53157e-14
2.39057e-14
2.69498e-14
3.26073e-14
3.58296e-14
3.3956e-14
3.01487e-14
2.23115e-14
1.45056e-14
1.01028e-14
8.99604e-15
1.0005e-14
1.12952e-14
1.20004e-14
1.12882e-14
7.97586e-15
5.27669e-15
4.34579e-14
4.48839e-14
2.78575e-14
1.48245e-14
8.09889e-15
4.89369e-15
3.7077e-15
3.17656e-15
3.7112e-15
4.59311e-15
5.01297e-15
4.45344e-15
3.64682e-15
3.06844e-15
2.19021e-15
1.77648e-15
1.90141e-15
2.14956e-15
2.46283e-15
2.42961e-15
1.90982e-15
1.16743e-15
6.38582e-16
7.04379e-15
7.25852e-15
4.46659e-15
2.35566e-15
1.25025e-15
7.01555e-16
4.80194e-16
3.84825e-16
4.45634e-16
5.70321e-16
5.65078e-16
5.35477e-16
4.88602e-16
3.52067e-16
2.95098e-16
3.21121e-16
3.79534e-16
4.32359e-16
4.4811e-16
3.85772e-16
2.75032e-16
1.34641e-16
6.84444e-17
1.05686e-15
9.84076e-16
6.20285e-16
3.23217e-16
1.66029e-16
9.02855e-17
5.69512e-17
4.04975e-17
4.58279e-17
5.95342e-17
6.25028e-17
5.91185e-17
5.06317e-17
4.41655e-17
4.49982e-17
5.45336e-17
6.57695e-17
7.24226e-17
6.77896e-17
5.16076e-17
2.97039e-17
1.42635e-17
7.05258e-18
1.30916e-16
1.26245e-16
7.48563e-17
3.83549e-17
1.99318e-17
1.072e-17
6.28592e-18
4.19443e-18
4.35355e-18
5.6571e-18
6.09447e-18
5.91868e-18
5.4717e-18
5.52219e-18
6.6065e-18
8.39782e-18
9.8913e-18
9.72758e-18
7.99561e-18
5.39382e-18
2.85396e-18
1.20511e-18
2.29296e-19
1.679e-17
1.43429e-17
8.38607e-18
4.28105e-18
2.11622e-18
1.11529e-18
6.33442e-19
3.91347e-19
3.6881e-19
4.64529e-19
5.27359e-19
5.46363e-19
5.63745e-19
6.7146e-19
8.99423e-19
1.1484e-18
1.22241e-18
1.12489e-18
8.41467e-19
4.84431e-19
2.20049e-19
4.6221e-20
6.20367e-21
1.67494e-18
1.47156e-18
8.51283e-19
4.30812e-19
2.09463e-19
1.07076e-19
5.77226e-20
3.28366e-20
2.82054e-20
3.40622e-20
4.08919e-20
4.65116e-20
5.68953e-20
7.91253e-20
1.11328e-19
1.31657e-19
1.34598e-19
1.13859e-19
7.21698e-20
3.76547e-20
9.61582e-21
1.51893e-21
6.27968e-23
1.62212e-19
1.36829e-19
7.7596e-20
3.87016e-20
1.8717e-20
9.30607e-21
4.69962e-21
2.46563e-21
1.9312e-21
2.28844e-21
2.95732e-21
3.91934e-21
5.77826e-21
8.79734e-21
1.18247e-20
1.3823e-20
1.3375e-20
1.02988e-20
5.69767e-21
2.12399e-21
4.17131e-22
3.26689e-23
2.70937e-24
1.44669e-20
1.14007e-20
6.24789e-21
3.06123e-21
1.46833e-21
7.12699e-22
3.40875e-22
1.65903e-22
1.19395e-22
1.45187e-22
2.13135e-22
3.42029e-22
5.78378e-22
9.07842e-22
1.18695e-21
1.34622e-21
1.20536e-21
8.30209e-22
3.92207e-22
1.20222e-22
1.35622e-23
1.50311e-24
2.22672e-26
1.11882e-21
8.45746e-22
4.48636e-22
2.15141e-22
1.01809e-22
4.82357e-23
2.2064e-23
1.00612e-23
6.86038e-24
9.1996e-24
1.61941e-23
3.06249e-23
5.53877e-23
8.67268e-23
1.11597e-22
1.13375e-22
9.87259e-23
5.94259e-23
2.4397e-23
6.05528e-24
5.37453e-25
8.55087e-27
1.57738e-28
7.40925e-23
5.59381e-23
2.89941e-23
1.35021e-23
6.2532e-24
2.88866e-24
1.26896e-24
5.50592e-25
3.83269e-25
6.18883e-25
1.30258e-24
2.70669e-24
4.97633e-24
7.68231e-24
9.57446e-24
8.92647e-24
7.62423e-24
4.31928e-24
1.61619e-24
3.47704e-25
2.42495e-26
2.32576e-28
4.85205e-29
0.00559025
0.000540618
0.0101641
0.119613
0.000549831
2.28435e-06
0.00916466
0.12295
2.38056e-06
2.36694e-06
0.00212315
0.0346357
2.71339e-06
6.84471e-06
1.48844e-05
1.14523e-09
3.54379e-07
7.36513e-07
1.41964e-07
1.07887e-09
2.19678e-10
2.03467e-08
3.82775e-10
1.09542e-09
2.31241e-10
2.7584e-10
3.25573e-10
4.36355e-10
1.16219e-10
1.39137e-10
1.49378e-10
1.15906e-10
5.43188e-11
5.91648e-11
5.75237e-11
5.27565e-11
7.70769e-11
7.94661e-11
7.96689e-11
7.87752e-11
2.2709e-10
2.37893e-10
2.41042e-10
2.28616e-10
6.06491e-10
4.80129e-10
4.34031e-10
4.05865e-10
5.95374e-10
4.98967e-10
4.86521e-10
5.49465e-10
4.98957e-10
4.89198e-10
4.90858e-10
4.96463e-10
1.14582e-08
4.99347e-08
4.58036e-08
2.01863e-08
1.41128e-07
6.81284e-08
4.31671e-08
4.28515e-08
9.92787e-08
1.04755e-07
8.55132e-08
1.31485e-07
2.44739e-07
2.26704e-08
3.06177e-08
4.23354e-08
1.04303e-07
3.59717e-08
8.26483e-09
7.04943e-09
7.66964e-09
4.72184e-09
1.67289e-09
9.65213e-10
7.87165e-10
3.93324e-10
3.49976e-10
2.65012e-10
1.7775e-10
1.43619e-10
1.46219e-10
1.35931e-10
8.77604e-11
8.38642e-11
8.13257e-11
7.87998e-11
4.58667e-11
4.48385e-11
4.37493e-11
4.21419e-11
2.29708e-11
2.26216e-11
2.21406e-11
2.15407e-11
1.0448e-11
1.02279e-11
9.92094e-12
9.51366e-12
4.4533e-12
4.318e-12
4.13114e-12
3.92351e-12
1.63612e-12
1.53793e-12
1.42547e-12
1.30491e-12
5.07118e-13
4.65309e-13
4.15959e-13
3.72381e-13
1.30098e-13
1.1187e-13
9.40526e-14
7.83405e-14
2.48517e-14
2.08342e-14
1.67145e-14
1.33796e-14
3.8387e-15
2.95537e-15
2.18614e-15
1.58464e-15
4.53434e-16
3.18964e-16
2.26953e-16
1.67056e-16
4.65901e-17
2.94971e-17
1.23443e-17
3.48783e-18
2.01876e-18
3.54942e-19
3.08026e-20
1.24287e-20
2.70022e-28
8.13059e-25
6.31142e-24
1.51543e-23
2.63943e-28
7.7941e-27
3.51679e-26
7.84004e-26
2.62794e-28
1.23089e-27
5.59081e-27
1.74083e-26
2.61661e-28
1.37389e-27
5.16324e-27
1.60521e-26
2.58164e-28
1.33486e-27
4.65275e-27
1.45274e-26
2.56022e-28
9.97946e-28
3.37262e-27
9.85858e-27
1.71349e-28
5.48089e-28
1.61934e-27
4.00044e-27
0.20317
0.879934
0.938871
0.990365
0.995892
0.99887
0.999678
0.999734
0.999739
0.999677
0.984345
0.847674
0.574362
0.261313
0.110969
0.0462095
0.0813412
0.164795
0.158094
0.247218
0.494894
0.451252
0.442131
0.474438
0.618119
0.782179
0.799913
0.797061
0.67594
0.377298
0.124923
0.00814587
5.69024e-16
6.45616e-16
3.72077e-16
-1.3663e-10
0.0163531
0.02492
0.073474
0.00658598
0.000930749
0.000355571
0.00239474
0.00675548
0.0150061
0.0585269
0.0674456
0.0133844
5.58566e-12
1.34872e-15
1.4998e-15
4.09446e-13
5.39107e-08
7.90995e-07
2.63102e-07
0.00368324
0.0302522
6.11726e-10
1.06512e-08
1.72605e-08
2.90808e-09
1.25783e-12
1.94765e-11
0
1.8668e-11
2.36608e-10
1.7096e-11
8.77664e-09
5.05045e-08
3.45634e-08
1.03966e-09
3.58624e-06
1.25038e-05
3.89487e-07
0.0164927
0.0356126
7.84251e-09
2.44536e-08
2.79635e-08
1.4743e-08
4.70339e-09
1.09977e-08
8.10884e-09
4.03708e-09
4.94917e-09
1.9163e-08
1.3428e-07
1.98681e-07
1.86526e-07
6.49378e-08
8.55624e-06
1.5271e-05
7.88368e-06
0.00303734
0.0123576
4.07723e-09
9.79561e-09
1.01921e-08
6.618e-09
3.55658e-09
4.67949e-09
4.19829e-09
5.0096e-09
5.54034e-09
2.12064e-08
1.40495e-07
1.81193e-07
2.61254e-07
1.6138e-06
1.38208e-05
1.58774e-05
-1.97496e-14
1.43581e-30
-2.51884e-14
5.51824e-10
2.63739e-10
3.8893e-10
6.15254e-10
8.22411e-10
3.90269e-10
2.8425e-12
2.37753e-12
2.43552e-12
2.4775e-12
2.49876e-12
2.24422e-08
4.71132e-07
4.16226e-06
9.40784e-06
3.23971e-06
-1.99518e-13
1.6727e-11
2.23071e-12
9.47473e-11
1.24959e-10
1.48315e-10
1.78009e-10
1.725e-10
1.19538e-10
9.15703e-11
5.48884e-11
2.28536e-11
4.40404e-12
2.47745e-12
1.48136e-10
3.64248e-07
1.33449e-06
8.80907e-07
1.82833e-08
1.76519e-19
1.9671e-11
7.81222e-13
4.98284e-11
4.94407e-11
4.39433e-11
3.6998e-11
2.70008e-11
2.09131e-11
1.7518e-11
1.46711e-11
7.81758e-12
3.99275e-12
2.49851e-12
2.84083e-09
3.72335e-08
1.36916e-09
1.54216e-09
2.16284e-12
8.96919e-12
1.77931e-12
1.42898e-13
7.77144e-11
7.70172e-11
7.4728e-11
7.61703e-11
6.09414e-11
4.53411e-11
4.08468e-11
2.9563e-11
1.57894e-11
9.21952e-12
8.47803e-12
8.10221e-11
2.26928e-12
2.26114e-12
4.6719e-12
2.13626e-12
2.24779e-12
5.2301e-13
1.24158e-13
2.20201e-10
1.76687e-10
1.46882e-10
1.33499e-10
1.11091e-10
9.53642e-11
7.12682e-11
4.45874e-11
3.05067e-11
1.7777e-11
7.85345e-12
3.85055e-12
2.59034e-12
2.24276e-12
1.65486e-12
1.57368e-12
1.26381e-12
6.44671e-13
1.29369e-13
3.35677e-10
2.57036e-10
2.35433e-10
2.30946e-10
2.15641e-10
1.64328e-10
1.18754e-10
8.60346e-11
5.55689e-11
3.07149e-11
1.69108e-11
8.99951e-12
4.69697e-12
3.51166e-12
2.82432e-12
2.21069e-12
1.51413e-12
7.39115e-13
1.38607e-13
6.07195e-10
6.91769e-10
5.94462e-10
5.49175e-10
4.51207e-10
3.2365e-10
2.31373e-10
1.69517e-10
1.04804e-10
4.26706e-11
2.42354e-11
1.43794e-11
9.16196e-12
5.99449e-12
3.7742e-12
2.41204e-12
1.50702e-12
7.73203e-13
1.42308e-13
2.19071e-09
4.05966e-09
3.96722e-09
2.98283e-09
1.50339e-09
7.43116e-10
5.09143e-10
3.64645e-10
1.18553e-10
5.84147e-11
3.86342e-11
2.35558e-11
1.51873e-11
9.11821e-12
4.6044e-12
2.45498e-12
1.45659e-12
7.74392e-13
1.43336e-13
1.69187e-08
1.12953e-08
1.22352e-08
9.5015e-09
4.99904e-09
2.92738e-09
1.43712e-09
6.7802e-10
1.80364e-10
8.66205e-11
4.97607e-11
2.88285e-11
1.88222e-11
1.04333e-11
4.90678e-12
2.39848e-12
1.34836e-12
6.66803e-13
1.39187e-13
3.72926e-08
2.68942e-08
2.1521e-08
1.50838e-08
8.08178e-09
5.38823e-09
3.0513e-09
1.41027e-09
5.49903e-10
1.77203e-10
6.56108e-11
3.2275e-11
1.85205e-11
1.0188e-11
4.89728e-12
2.36799e-12
1.2086e-12
5.01089e-13
1.26267e-13
1.25799e-07
7.12327e-08
3.13104e-08
1.56428e-08
9.84587e-09
6.9676e-09
4.30593e-09
2.23812e-09
9.93508e-10
3.97627e-10
1.15606e-10
3.34173e-11
1.72486e-11
9.82557e-12
4.90437e-12
2.24122e-12
1.03383e-12
4.13146e-13
1.01111e-13
3.98903e-08
3.12859e-08
3.75655e-08
2.02689e-08
9.56132e-09
7.00205e-09
4.30091e-09
2.3325e-09
1.22533e-09
5.63941e-10
2.00995e-10
3.93485e-11
1.42015e-11
8.18404e-12
4.3133e-12
2.01837e-12
8.50193e-13
3.29101e-13
8.44084e-14
4.37664e-09
7.77534e-09
1.163e-08
8.53987e-09
6.70224e-09
5.04754e-09
3.36013e-09
2.05246e-09
1.15267e-09
5.8056e-10
2.43527e-10
5.37033e-11
1.11333e-11
5.88119e-12
3.2901e-12
1.55328e-12
4.5093e-13
2.20197e-13
6.94265e-14
5.85729e-10
1.50058e-09
2.36516e-09
3.10365e-09
3.45214e-09
2.84791e-09
2.14243e-09
1.4215e-09
8.56378e-10
4.82823e-10
2.40985e-10
6.16889e-11
9.25543e-12
3.76619e-12
2.11805e-12
5.51581e-13
1.62741e-13
1.48328e-13
5.77706e-14
2.29361e-10
2.67777e-10
4.24532e-10
1.09973e-09
1.63925e-09
1.44705e-09
1.11622e-09
7.77684e-10
4.97439e-10
3.03362e-10
1.75835e-10
5.27974e-11
7.62109e-12
2.0531e-12
8.55854e-13
1.75252e-13
6.66771e-14
8.62686e-14
4.37743e-14
1.27371e-10
1.27821e-10
1.61632e-10
2.80223e-10
5.12531e-10
5.18527e-10
4.37218e-10
3.28468e-10
2.26538e-10
1.50252e-10
9.42636e-11
3.26833e-11
5.17895e-12
4.1106e-13
8.59203e-14
4.22016e-14
3.61673e-14
4.08598e-14
2.42392e-14
7.2613e-11
7.07056e-11
7.78763e-11
1.05776e-10
1.59195e-10
1.62161e-10
1.42052e-10
1.1282e-10
8.3672e-11
6.26907e-11
3.90277e-11
1.03343e-11
1.1579e-12
7.64985e-14
2.01271e-14
1.83148e-14
2.0389e-14
2.06754e-14
1.40967e-14
3.95993e-11
3.79473e-11
3.88047e-11
4.68643e-11
5.52372e-11
5.24564e-11
4.57413e-11
3.73095e-11
2.9472e-11
2.36307e-11
8.81691e-12
1.58788e-12
1.47698e-13
1.24173e-14
7.15551e-15
8.98504e-15
1.12179e-14
1.10755e-14
7.83252e-15
1.98862e-11
1.85957e-11
1.82044e-11
1.90155e-11
1.83819e-11
1.63447e-11
1.37073e-11
1.11995e-11
9.58082e-12
4.43681e-12
1.15089e-12
1.72507e-13
1.59885e-14
2.55765e-15
2.8966e-15
4.29152e-15
5.99673e-15
5.81037e-15
3.81015e-15
8.79111e-12
8.175e-12
7.55587e-12
6.77775e-12
5.77213e-12
4.72044e-12
3.80742e-12
3.25309e-12
1.63033e-12
5.16349e-13
1.12075e-13
1.67614e-14
1.61872e-15
7.47887e-16
1.1316e-15
2.03817e-15
3.07454e-15
3.03851e-15
1.5061e-15
3.42096e-12
2.93405e-12
2.43388e-12
1.95737e-12
1.53326e-12
1.19674e-12
9.94395e-13
4.93965e-13
1.50959e-13
3.57256e-14
8.31976e-15
1.4371e-15
1.9997e-16
2.19639e-16
4.59093e-16
9.46318e-16
1.49706e-15
1.51411e-15
6.6734e-16
1.09285e-12
8.89935e-13
6.84642e-13
5.01941e-13
3.65155e-13
2.83981e-13
1.30298e-13
3.75635e-14
9.80104e-15
3.01879e-15
7.83413e-16
1.00585e-16
3.49501e-17
6.91443e-17
1.88065e-16
4.19308e-16
6.86448e-16
6.65647e-16
2.92254e-16
2.77863e-13
1.97406e-13
1.33678e-13
9.32619e-14
6.46398e-14
2.36928e-14
5.6275e-15
1.53782e-15
5.83147e-16
2.13298e-16
4.65508e-17
5.27e-18
6.96893e-18
2.30879e-17
7.35247e-17
1.70357e-16
3.00674e-16
2.89769e-16
1.12253e-16
5.21579e-14
3.37661e-14
2.38244e-14
1.27824e-14
3.48878e-15
6.59368e-16
1.44512e-16
3.48028e-17
5.48327e-18
3.19342e-19
1.10985e-19
3.10387e-19
1.69425e-18
7.61873e-18
2.69603e-17
6.55759e-17
1.28489e-16
1.41773e-16
5.0815e-17
7.9231e-15
5.24292e-15
2.31733e-15
5.7083e-16
8.924e-17
9.4709e-18
5.08893e-19
9.52139e-21
4.54746e-21
9.25274e-21
2.51292e-20
8.5405e-20
5.14172e-19
2.46022e-18
9.53974e-18
2.28145e-17
5.99365e-17
5.01745e-17
1.94079e-17
9.68962e-16
3.84899e-16
7.49271e-17
1.27325e-17
1.98596e-18
1.62072e-19
4.39279e-21
2.09852e-21
3.77392e-21
8.37766e-21
1.86325e-20
4.30187e-20
1.82235e-19
8.85834e-19
3.34409e-18
1.0409e-17
2.79082e-17
2.28165e-17
6.80441e-18
5.88028e-17
8.0681e-18
1.51354e-18
2.96494e-19
3.59891e-20
1.96415e-21
9.68178e-22
1.71149e-21
3.86278e-21
8.67831e-21
1.86924e-20
3.62022e-20
8.58059e-20
3.60359e-19
1.47936e-18
6.21114e-18
8.41141e-18
6.20318e-18
1.72686e-18
8.40231e-19
1.33078e-19
2.8998e-20
5.1881e-21
4.91558e-22
3.54335e-22
6.61548e-22
1.60649e-21
3.95326e-21
9.04241e-21
1.86942e-20
3.37447e-20
5.65435e-20
2.0034e-19
1.04438e-18
2.81186e-18
3.25388e-18
1.64095e-18
2.99287e-19
6.80196e-21
1.92467e-21
2.21365e-22
6.03088e-23
9.3953e-23
2.30759e-22
6.03011e-22
1.53219e-21
3.67214e-21
8.21118e-21
1.73044e-20
3.13094e-20
4.69689e-20
1.58385e-19
6.28891e-19
1.241e-18
1.03523e-18
4.04721e-19
5.45024e-20
2.32952e-23
1.55377e-23
1.1236e-23
2.28709e-23
6.71003e-23
1.90918e-22
5.13097e-22
1.30868e-21
3.15173e-21
7.06029e-21
1.45381e-20
2.60089e-20
3.99676e-20
1.07211e-19
2.82877e-19
4.67749e-19
3.06883e-19
7.90571e-20
9.88818e-21
3.3764e-25
1.35958e-24
4.94254e-24
1.68286e-23
5.18672e-23
1.486e-22
3.96128e-22
9.96207e-22
2.35259e-21
5.19892e-21
1.03649e-20
1.80364e-20
2.71152e-20
5.6137e-20
1.08921e-19
1.03732e-19
4.45383e-20
1.06703e-20
2.38701e-21
2.04457e-25
9.45626e-25
3.52865e-24
1.19755e-23
3.62278e-23
1.02528e-22
2.67746e-22
6.50621e-22
1.48308e-21
3.18044e-21
6.08175e-21
1.0118e-20
1.4622e-20
2.68012e-20
2.77304e-20
1.78714e-20
6.22812e-21
2.12804e-21
9.20293e-22
1.44207e-25
5.98507e-25
2.24732e-24
7.2001e-24
2.1663e-23
5.9014e-23
1.49724e-22
3.5073e-22
7.67481e-22
1.57659e-21
2.88743e-21
4.55992e-21
6.122e-21
8.60687e-21
6.56333e-21
3.13468e-21
1.15926e-21
6.69441e-22
4.23124e-22
8.69591e-26
3.26495e-25
1.12844e-24
3.4557e-24
9.48077e-24
2.437e-23
5.98861e-23
1.37512e-22
2.8965e-22
5.63314e-22
9.79711e-22
1.48544e-21
1.78995e-21
1.99649e-21
1.21116e-21
6.91992e-22
3.12719e-22
1.94804e-22
2.02827e-22
3.928e-26
1.3365e-25
4.21318e-25
1.2095e-24
3.22904e-24
8.1125e-24
1.87685e-23
4.23999e-23
8.67617e-23
1.60613e-22
2.60139e-22
3.65906e-22
4.16781e-22
3.80614e-22
2.08967e-22
1.34989e-22
5.51804e-23
6.06037e-23
5.79918e-23
9.93282e-27
2.99877e-26
8.75026e-26
2.341e-25
5.84237e-25
1.43769e-24
3.13433e-24
6.32032e-24
1.29886e-23
2.31185e-23
3.58604e-23
4.72722e-23
4.96658e-23
3.53447e-23
1.90931e-23
1.44773e-23
1.17668e-23
5.36442e-24
5.9231e-24
)
;

boundaryField
{
    leftWall
    {
        type            alphaContactAngle;
        contactAngleProperties 
        {
            mercury         
            {
                theta0          90;
            }
            air             
            {
                theta0          90;
            }
            oil             
            {
                theta0          90;
            }
        }
        value           nonuniform List<scalar> 
50
(
2.11331e-11
3.64409e-11
4.80461e-11
3.93514e-10
4.96952e-09
4.20847e-09
0.0469993
0.646814
1
1
1
1
1
1
1
1
1
0.99379
0.440244
-3.03239e-06
1.77437e-08
1.20432e-07
6.54075e-08
3.05308e-08
2.32594e-08
1.71637e-08
1.32876e-08
1.07888e-08
8.80406e-09
6.77421e-09
4.75549e-09
2.8564e-09
1.49904e-09
6.95858e-10
2.70817e-10
8.58093e-11
2.34715e-11
5.82239e-12
1.26477e-12
2.45617e-13
4.34579e-14
7.04379e-15
1.05686e-15
1.30916e-16
1.679e-17
1.67494e-18
1.62212e-19
1.44669e-20
1.11882e-21
7.40925e-23
)
;
    }
    rightWall
    {
        type            alphaContactAngle;
        contactAngleProperties 
        {
            mercury         
            {
                theta0          90;
            }
            air             
            {
                theta0          90;
            }
            oil             
            {
                theta0          90;
            }
        }
        value           nonuniform List<scalar> 
50
(
0.0183822
0.0183822
0.0427675
0.105562
0.108678
0.201737
0.334924
0.318557
0.158094
0.02492
0.0302522
0.0356126
0.0123576
-2.51884e-14
2.23071e-12
7.81222e-13
1.42898e-13
1.24158e-13
1.29369e-13
1.38607e-13
1.42308e-13
1.43336e-13
1.39187e-13
1.26267e-13
1.01111e-13
8.44084e-14
6.94265e-14
5.77706e-14
4.37743e-14
2.42392e-14
1.40967e-14
7.83252e-15
3.81015e-15
1.5061e-15
6.6734e-16
2.92254e-16
1.12253e-16
5.0815e-17
1.94079e-17
6.80441e-18
1.72686e-18
2.99287e-19
5.45024e-20
9.88818e-21
2.38701e-21
9.20293e-22
4.23124e-22
2.02827e-22
5.79918e-23
5.9231e-24
)
;
    }
    lowerWall
    {
        type            alphaContactAngle;
        contactAngleProperties 
        {
            mercury         
            {
                theta0          90;
            }
            air             
            {
                theta0          90;
            }
            oil             
            {
                theta0          90;
            }
        }
        value           nonuniform List<scalar> 
62
(
2.11331e-11
2.78764e-11
3.29148e-11
3.46405e-11
3.43234e-11
3.51914e-11
4.02169e-11
5.19281e-11
6.89271e-11
8.89838e-11
1.11485e-10
1.37779e-10
1.71308e-10
2.14588e-10
2.78062e-10
3.64367e-10
4.91596e-10
7.38894e-10
1.12891e-09
1.64186e-09
2.21601e-09
2.55058e-09
2.58484e-09
2.58484e-09
2.75397e-09
2.9555e-09
5.667e-10
0.0206225
0.61968
0.827448
0.496048
0.00559025
0.000540618
0.0101641
0.119613
0.000265037
6.36245e-05
6.02266e-05
0.0156589
0.487396
0.573595
0.212481
0.129725
0.000265037
7.30286e-08
2.21754e-08
3.98035e-05
0.00107641
0.00149227
0.00174091
0.000317154
0.000308983
0.00112935
0.000797529
0.000776665
0.0298593
0.115195
0.12321
0.123214
0.092607
0.0205055
0.0183822
)
;
    }
    atmosphere
    {
        type            inletOutlet;
        inletValue      uniform 0;
        value           nonuniform List<scalar> 
46
(
7.40925e-23
5.59381e-23
2.89941e-23
1.35021e-23
6.2532e-24
2.88866e-24
1.26896e-24
5.50592e-25
3.83269e-25
6.18883e-25
1.30258e-24
2.70669e-24
4.97633e-24
7.68231e-24
9.57446e-24
8.92647e-24
7.62423e-24
4.31928e-24
1.61619e-24
3.47704e-25
2.42495e-26
2.32576e-28
4.85205e-29
1.71349e-28
0
0
0
0
0
0
0
0
0
0
0
0
0
0
0
0
0
0
0
0
0
0
)
;
    }
    defaultFaces
    {
        type            empty;
    }
}


// ************************************************************************* //
