/*--------------------------------*- C++ -*----------------------------------*\
  =========                 |
  \\      /  F ield         | OpenFOAM: The Open Source CFD Toolbox
   \\    /   O peration     | Website:  https://openfoam.org
    \\  /    A nd           | Version:  13
     \\/     M anipulation  |
\*---------------------------------------------------------------------------*/
FoamFile
{
    format      ascii;
    class       volScalarField;
    location    "1.2";
    object      alpha.oil;
}
// * * * * * * * * * * * * * * * * * * * * * * * * * * * * * * * * * * * * * //

dimensions      [];

internalField   nonuniform List<scalar> 
2268
(
1.0733e-16
2.6114e-15
4.53141e-14
2.5572e-13
7.56565e-13
1.94396e-12
4.53965e-12
9.90968e-12
2.10349e-11
4.35837e-11
8.76647e-11
1.73391e-10
3.3443e-10
6.22372e-10
1.17928e-09
2.09549e-09
3.61451e-09
6.65355e-09
1.03096e-08
1.04329e-08
5.38727e-05
0.000527119
0.000568444
3.61702e-16
5.73727e-15
4.3021e-14
1.89486e-13
6.07165e-13
1.69605e-12
4.48847e-12
1.14529e-11
2.85281e-11
6.9486e-11
1.61262e-10
3.582e-10
7.74534e-10
1.5832e-09
2.91955e-09
5.82349e-09
1.336e-08
3.05661e-08
6.8603e-08
8.57263e-08
5.86664e-08
0.000102045
0.00056836
6.5317e-16
7.01325e-15
3.9079e-14
1.66863e-13
6.38048e-13
2.01975e-12
5.93825e-12
1.66135e-11
4.51745e-11
1.38891e-10
3.23168e-10
6.9415e-10
1.48497e-09
3.05891e-09
5.20794e-09
7.46953e-09
2.63446e-08
6.78764e-08
9.95422e-08
7.96715e-08
5.87521e-08
1.77614e-07
0.000189104
9.00465e-16
8.0918e-15
4.59992e-14
2.12544e-13
8.65738e-13
2.90907e-12
9.08167e-12
2.61365e-11
7.26406e-11
1.81074e-10
4.16548e-10
9.53253e-10
2.01749e-09
5.66243e-09
1.13612e-08
7.77436e-09
8.00755e-09
6.4461e-08
8.09784e-08
7.97623e-08
2.65415e-07
2.05985e-06
3.0911e-05
7.15357e-16
4.19908e-15
2.26128e-14
1.38558e-13
7.6089e-13
2.6041e-12
8.0862e-12
2.10339e-11
4.80783e-11
1.28426e-10
3.02653e-10
5.96283e-10
9.29289e-10
1.49037e-09
2.07155e-09
6.18276e-07
3.01827e-06
5.18807e-06
4.78259e-06
3.60372e-06
6.56598e-06
1.55971e-06
1.55226e-06
9.11683e-17
7.94023e-16
5.53731e-15
3.33721e-14
2.08048e-13
1.04773e-12
2.71607e-12
8.849e-12
2.48875e-11
6.12256e-11
1.16925e-10
2.52802e-10
7.54801e-10
7.73456e-10
7.7502e-10
2.88601e-06
7.56901e-06
7.56873e-06
7.56901e-06
7.55139e-06
9.21555e-06
1.55066e-06
0.00344989
7.426e-18
8.41162e-17
8.20239e-16
5.76589e-15
3.44355e-14
1.17695e-13
4.28609e-13
2.39805e-12
9.08181e-12
3.42029e-11
8.55448e-11
6.10902e-10
6.32816e-09
7.75004e-10
1.92718e-07
1.96113e-06
4.55145e-06
6.86719e-06
6.32833e-06
2.51665e-06
2.43985e-06
0.00674147
0.00355157
9.89709e-19
8.86477e-18
9.78916e-17
9.90204e-16
3.76306e-15
1.73541e-14
2.28683e-13
2.61389e-12
1.88277e-11
8.75643e-11
3.18803e-10
2.00138e-09
3.90391e-09
5.25248e-08
2.75246e-07
2.17227e-07
1.20582e-07
4.80199e-07
3.11762e-07
2.86587e-07
0.0960871
0.414364
0.250785
0.908994
0.908998
0.908974
0.528465
0.124634
0.103955
0.0980189
0.363304
0.438095
0.441405
0.439736
0.375804
0.0944905
0.056098
0.0918081
0.176504
0.209769
0.279905
0.277175
0.893736
0.816126
0.908874
0.823576
0.35661
0.0622831
0.0277755
0.0435231
0.0758332
0.109729
0.166563
0.236694
0.116635
0.0559249
0.0559642
0.159003
0.242273
0.224575
0.292007
0.827572
0.60249
0.807521
0.843876
0.593116
0.00460523
-6.33463e-12
0
1.09972e-21
5.44063e-05
0.0191042
0.198497
0.321446
0.234648
0.190575
0.184915
0.262291
0.204026
0.329527
0.681894
0.102179
0.374399
0.400671
0.186018
0.00680757
1.12948e-12
1.19733e-08
0.000416101
0.0156739
0.0650479
0.208361
0.320705
0.321633
0.303708
0.276194
0.2548
0.203958
0.405715
0.207823
0.00129127
0.00614709
0.0189686
1.86066e-27
6.84144e-11
3.56284e-06
6.76447e-05
0.00807822
0.156522
0.240391
0.160005
0.14582
0.174557
0.18388
0.159844
0.119473
0.373663
0.520696
0.242566
3.29503e-06
-4.10602e-14
-1.93939e-09
4.31862e-25
2.28003e-07
1.87418e-06
7.6546e-11
0.0180938
0.203159
0.239047
0.238874
0.147315
0.0740157
0.0753785
0.101217
0.113257
0.46633
0.52018
0.78281
0.0141909
2.1141e-08
7.61188e-07
6.88098e-06
2.32857e-05
1.84271e-05
8.79985e-09
0.00256598
0.0678957
0.213538
0.240492
0.239729
0.186964
0.204605
0.222595
0.242882
0.4721
0.491542
0.86517
0.0390119
2.49384e-07
5.15605e-06
2.5112e-05
4.31943e-05
3.75727e-05
5.33292e-05
8.84149e-05
0.000181899
0.00514874
0.113193
0.132059
0.242793
0.417025
0.519257
0.420464
0.616564
0.489854
1.04833e-18
2.66793e-14
4.7847e-15
1.38104e-14
6.00658e-15
5.5156e-14
9.39936e-13
6.93195e-12
3.71938e-11
1.96606e-10
7.75544e-10
2.41383e-09
5.97011e-09
2.67749e-08
4.11123e-08
2.17567e-08
5.50419e-09
3.4385e-13
6.18272e-11
0.0658028
0.600411
0.740138
0.795155
3.21972e-18
1.30786e-12
3.25859e-13
8.04794e-13
1.9594e-13
8.60673e-13
3.44793e-12
2.09946e-11
8.24029e-11
1.98457e-10
5.64921e-10
2.42534e-09
5.4232e-09
1.05105e-08
8.56406e-09
2.9534e-09
1.91717e-10
6.14043e-18
0.0945498
0.671346
0.950524
0.977727
0.994854
3.67452e-15
2.07232e-10
3.27821e-10
2.2223e-10
1.80506e-11
3.56433e-11
1.17009e-10
2.91201e-10
5.16288e-10
1.24004e-09
6.25978e-09
1.12167e-08
1.30338e-08
9.37171e-09
7.5778e-16
4.59928e-11
0.03242
0.337974
0.786235
0.945695
0.999998
0.999999
0.999996
5.89551e-11
1.42719e-09
3.82469e-09
1.95899e-09
1.1633e-10
1.55733e-10
6.37583e-10
1.31192e-09
5.10745e-09
2.90621e-08
3.53993e-08
2.91282e-08
7.44374e-10
8.13224e-10
0.00941618
0.248979
0.666895
0.909837
0.994587
0.999997
0.999999
1
0.999998
1.68996e-09
8.18206e-09
1.81523e-08
7.2379e-09
4.19804e-10
2.16684e-10
4.58676e-10
3.56487e-09
3.72653e-09
1.62592e-08
8.04352e-09
7.73916e-09
0.0238074
0.236945
0.609854
0.905139
0.973181
0.999955
0.999995
1
1
1
0.999998
7.29393e-09
3.50511e-08
5.40911e-08
6.62235e-10
8.89434e-10
7.31899e-11
6.58232e-11
7.32051e-11
0.00108458
1.6702e-08
0.127034
0.333954
0.655455
0.868976
0.962286
0.999945
0.999989
0.99999
0.999992
1
1
1
1
1.98622e-08
1.02519e-07
5.71297e-08
8.24807e-06
9.32698e-10
0.0210388
0.0996853
0.152257
0.412316
0.558974
0.806857
0.895708
0.980003
0.999988
0.999997
0.999988
0.99999
0.999998
0.999999
1
1
1
1
3.98705e-08
1.13114e-07
9.44413e-06
0.0132709
0.279827
0.589871
0.752376
0.791537
0.946153
0.955888
0.999015
1
1
1
0.999997
0.999992
0.999997
1
1
1
1
1
1
2.93516e-08
1.5465e-11
0.0146277
0.42823
0.959191
0.979661
0.979132
0.999999
1
1
1
1
1
1
0.999999
1
1
1
1
1
0.985206
0.903443
0.862309
1.21986e-12
1.28267e-09
0.107326
0.76915
0.999871
0.999982
0.999984
0.99999
0.999995
0.999998
1
1
1
1
1
1
0.956401
0.856564
0.725253
0.574951
0.334192
0.167154
0.119087
2.7988e-11
0.00326787
0.123736
0.674352
0.845953
0.856437
0.880037
0.878263
0.855638
0.84774
0.832576
0.797656
0.740914
0.651765
0.529404
0.382215
0.243106
0.122455
0.0444499
0.00954539
2.62852e-07
4.06332e-07
6.90074e-07
3.30828e-07
0.00128259
0.0229419
0.0425061
0.0742407
0.104873
0.100542
0.0810198
0.0924661
0.100918
0.0909169
0.0716871
0.0476332
0.0226663
0.0048248
1.91551e-08
1.17473e-08
4.22496e-09
1.31176e-07
6.12688e-07
2.97109e-07
4.67403e-07
6.82273e-07
1.72072e-06
9.26067e-06
-5.31187e-11
-1.37863e-25
3.20974e-09
4.0666e-09
3.45983e-09
2.74765e-09
2.53953e-09
1.81465e-08
2.9404e-09
1.14776e-08
-1.01686e-09
1.05992e-10
9.1946e-09
1.62069e-08
1.78933e-08
3.20264e-08
1.65097e-07
2.90885e-07
6.4731e-07
1.19007e-06
1.69133e-06
1.10147e-06
8.13943e-06
1.01177e-05
9.64421e-08
6.69956e-08
8.05341e-08
7.49507e-08
7.29556e-08
8.40134e-08
1.00866e-06
1.9753e-06
1.27393e-06
1.76957e-10
1.29591e-10
9.30898e-09
1.08682e-08
2.98915e-08
7.03198e-08
1.38322e-07
3.63064e-07
7.48036e-07
1.08366e-06
1.49755e-06
2.41541e-07
1.24399e-06
1.29625e-06
9.34422e-08
3.48146e-08
3.71124e-08
6.0238e-08
8.21737e-08
8.70888e-08
7.00308e-08
1.90272e-07
2.74541e-05
6.22699e-05
1.76896e-05
-8.72489e-11
1.08329e-09
1.04452e-08
2.81534e-08
1.11811e-07
3.38365e-07
5.49129e-07
5.60954e-07
4.76075e-07
2.13603e-08
1.74187e-07
2.96533e-07
1.44211e-07
4.69974e-08
4.57698e-08
5.07995e-08
7.06638e-08
8.72623e-08
7.06725e-08
8.44919e-08
1.61232e-05
0.000159274
0.000180104
0.000103382
3.28553e-11
1.14269e-10
2.34927e-09
3.98227e-08
1.05654e-07
1.29322e-07
1.41904e-07
1.08254e-07
8.73199e-09
4.77505e-08
1.06968e-07
1.43879e-07
1.01913e-07
8.06693e-08
4.80191e-08
5.29402e-08
7.29423e-08
7.43127e-08
6.92849e-08
1.02066e-07
4.90435e-05
0.000185861
0.0001846
0.00018335
7.11118e-05
1.65757e-10
2.81664e-10
3.24357e-09
2.71277e-08
5.70373e-08
1.55482e-08
4.11758e-09
2.43224e-08
6.55026e-08
1.11295e-07
1.09022e-07
1.10605e-07
5.95497e-08
3.40738e-08
4.82813e-08
7.42604e-08
9.27581e-08
1.14916e-07
8.92665e-08
1.71156e-05
8.66684e-05
0.000139847
0.000133734
6.37382e-05
2.71804e-10
4.53203e-10
2.62329e-08
9.26346e-08
9.32048e-08
1.6666e-09
1.14165e-08
3.62508e-08
7.24371e-08
9.28548e-08
1.19426e-07
7.38689e-08
2.8507e-08
2.7618e-08
3.98388e-08
5.93213e-08
7.30233e-08
8.49478e-08
4.97373e-08
5.08002e-08
4.13276e-06
2.10439e-05
2.65449e-05
1.4474e-05
1.32406e-06
2.23872e-08
3.88553e-08
5.43577e-08
5.33206e-10
4.51757e-09
1.70622e-08
3.9084e-08
6.01619e-08
9.98967e-08
7.35386e-08
2.84637e-08
1.9126e-08
2.03164e-08
2.99687e-08
3.80501e-08
4.42511e-08
4.88506e-08
4.9527e-08
1.6737e-08
1.56782e-08
1.63767e-08
2.21563e-06
1.80497e-06
2.21047e-07
1.61367e-08
1.5339e-08
1.29089e-10
1.4323e-09
6.62195e-09
1.76476e-08
2.99855e-08
6.63925e-08
6.09462e-08
2.6935e-08
1.63776e-08
1.21684e-08
1.36989e-08
1.87977e-08
2.37752e-08
2.86098e-08
3.22703e-08
2.25833e-08
1.53889e-08
1.73324e-08
6.37093e-09
7.84558e-08
9.14115e-08
2.43921e-08
9.14008e-09
2.65157e-11
3.586e-10
2.08516e-09
6.75954e-09
1.17946e-08
3.50107e-08
4.04875e-08
2.09372e-08
1.33217e-08
8.65359e-09
7.11568e-09
8.18704e-09
1.14298e-08
1.48831e-08
1.59855e-08
1.76921e-08
1.33393e-08
8.74796e-09
6.21165e-09
6.71249e-09
6.95033e-09
7.05365e-09
6.22321e-09
4.67389e-12
7.5115e-11
5.43652e-10
2.20326e-09
4.02658e-09
1.48696e-08
2.13365e-08
1.30826e-08
9.03757e-09
5.98334e-09
4.32411e-09
3.871e-09
4.88181e-09
6.59942e-09
8.11674e-09
9.84502e-09
8.41522e-09
6.38237e-09
4.30343e-09
3.58812e-09
2.88535e-09
3.21391e-09
3.70643e-09
6.83887e-13
1.31353e-11
1.19069e-10
6.06847e-10
1.32558e-09
5.33147e-09
8.99342e-09
6.58439e-09
4.95572e-09
3.52156e-09
2.41661e-09
1.98064e-09
2.16655e-09
2.72905e-09
3.39753e-09
4.29873e-09
3.99361e-09
3.33021e-09
2.56727e-09
2.09191e-09
1.89526e-09
1.86454e-09
2.02447e-09
8.07602e-14
1.88963e-12
2.18417e-11
1.38231e-10
3.96482e-10
1.66855e-09
3.19108e-09
2.67075e-09
2.1865e-09
1.67595e-09
1.1795e-09
9.56487e-10
9.67234e-10
1.14233e-09
1.38656e-09
1.74056e-09
1.76992e-09
1.54968e-09
1.26005e-09
1.08911e-09
9.9015e-10
9.77342e-10
1.0299e-09
7.51599e-15
2.21088e-13
3.33466e-12
2.5587e-11
1.04074e-10
4.55311e-10
9.68463e-10
8.78708e-10
7.8393e-10
6.46662e-10
4.87758e-10
4.00783e-10
3.96834e-10
4.59667e-10
5.53607e-10
6.56436e-10
7.0779e-10
6.5377e-10
5.6526e-10
5.00256e-10
4.73924e-10
4.68545e-10
4.72866e-10
5.44658e-16
2.08751e-14
4.23028e-13
3.99217e-12
2.31693e-11
1.07091e-10
2.4927e-10
2.42761e-10
2.33134e-10
2.05536e-10
1.6043e-10
1.40674e-10
1.4337e-10
1.67591e-10
2.0441e-10
2.33888e-10
2.53623e-10
2.47766e-10
2.23353e-10
2.13053e-10
2.0501e-10
2.006e-10
1.92597e-10
3.10075e-17
1.58569e-15
4.48097e-14
5.34647e-13
4.24622e-12
2.13922e-11
5.36611e-11
5.65029e-11
5.81812e-11
5.46943e-11
4.55814e-11
4.25198e-11
4.56379e-11
5.49787e-11
6.60325e-11
7.88109e-11
8.86991e-11
8.36441e-11
8.2457e-11
8.08466e-11
8.03916e-11
7.53235e-11
6.82925e-11
1.42698e-18
9.74428e-17
4.01803e-15
6.23742e-14
6.22166e-13
3.5738e-12
9.55868e-12
1.09231e-11
1.20995e-11
1.22345e-11
1.11592e-11
1.11641e-11
1.29313e-11
1.65621e-11
2.08176e-11
2.46089e-11
2.65513e-11
2.70593e-11
2.74448e-11
2.77837e-11
2.65858e-11
2.36788e-11
1.9309e-11
5.46994e-20
4.96243e-18
3.12004e-16
6.35636e-15
7.53163e-14
4.88745e-13
1.40235e-12
1.75381e-12
2.11185e-12
2.33897e-12
2.34503e-12
2.58665e-12
3.2969e-12
4.3063e-12
5.81191e-12
6.9148e-12
7.75071e-12
7.99946e-12
8.30952e-12
8.19916e-12
7.82875e-12
6.23288e-12
4.72213e-12
1.78315e-21
2.21725e-19
2.1517e-17
5.609e-16
7.49911e-15
5.34445e-14
1.70237e-13
2.34628e-13
3.16507e-13
3.90369e-13
4.31871e-13
5.40859e-13
7.48168e-13
1.07472e-12
1.46806e-12
1.76302e-12
1.95228e-12
2.02283e-12
2.16077e-12
2.11693e-12
1.82361e-12
1.33583e-12
8.44779e-13
5.17686e-23
9.45529e-21
1.33935e-18
4.24868e-17
6.15366e-16
4.65782e-15
1.7003e-14
2.63729e-14
4.16738e-14
5.6523e-14
7.0882e-14
9.71584e-14
1.51396e-13
2.21959e-13
2.95844e-13
3.76034e-13
4.16998e-13
4.62737e-13
4.75685e-13
4.48197e-13
3.80657e-13
2.28574e-13
1.35843e-13
1.48307e-24
4.04238e-22
7.54958e-20
2.7795e-18
4.22246e-17
3.38287e-16
1.3861e-15
2.56637e-15
4.80493e-15
7.21049e-15
1.0096e-14
1.49844e-14
2.41812e-14
4.02548e-14
5.74291e-14
7.07274e-14
8.30224e-14
8.93643e-14
9.17979e-14
8.11258e-14
5.68039e-14
3.10142e-14
1.56518e-14
4.5812e-26
1.68091e-23
3.84626e-21
1.61098e-19
2.49554e-18
2.08484e-17
9.52973e-17
2.25206e-16
4.90549e-16
8.43851e-16
1.22001e-15
2.22191e-15
4.00511e-15
6.17905e-15
9.04414e-15
1.25885e-14
1.51262e-14
1.60273e-14
1.49597e-14
1.15297e-14
7.49704e-15
3.39272e-15
2.08076e-15
2.22662e-27
5.88303e-25
1.7678e-22
8.52393e-21
1.31524e-19
1.12663e-18
5.83237e-18
1.71513e-17
4.3703e-17
8.68411e-17
1.51323e-16
2.9491e-16
5.43919e-16
9.45324e-16
1.42675e-15
1.97841e-15
2.33859e-15
2.39478e-15
2.04093e-15
1.42323e-15
7.74085e-16
4.41764e-16
5.17421e-16
2.95105e-28
2.26287e-26
6.74489e-24
3.81895e-22
6.38686e-21
5.6846e-20
3.39279e-19
1.335e-18
3.74324e-18
8.49274e-18
1.69839e-17
3.63694e-17
7.18482e-17
1.27765e-16
1.99758e-16
2.71992e-16
3.13213e-16
2.9064e-16
2.22576e-16
1.47514e-16
9.252e-17
9.27769e-17
2.18122e-16
7.12493e-29
1.52357e-27
2.52617e-25
1.71433e-23
2.90164e-22
2.77768e-21
1.95657e-20
9.41805e-20
2.97101e-19
7.4187e-19
1.70242e-18
3.96797e-18
8.24897e-18
1.52331e-17
2.45214e-17
3.30565e-17
3.50176e-17
3.14594e-17
2.38014e-17
1.71166e-17
1.63777e-17
3.17591e-17
1.05655e-16
1.54193e-29
2.37448e-28
1.03195e-26
7.29159e-25
1.31908e-23
1.37251e-22
1.10189e-21
5.95203e-21
2.20697e-20
5.91178e-20
1.51161e-19
3.79059e-19
8.40725e-19
1.63174e-18
2.69243e-18
3.43583e-18
3.66735e-18
3.31876e-18
2.68796e-18
2.87429e-18
4.63351e-18
1.27892e-17
4.91063e-17
3.35631e-30
4.86462e-29
7.30836e-28
3.17168e-26
6.41765e-25
6.99679e-24
5.88784e-23
3.4991e-22
1.50468e-21
4.36493e-21
1.2225e-20
3.33108e-20
7.95458e-20
1.6189e-19
2.62341e-19
3.52717e-19
3.97875e-19
3.96979e-19
4.32559e-19
6.75673e-19
1.41581e-18
4.76947e-18
2.57779e-17
6.78991e-31
9.82539e-30
1.05549e-28
1.84117e-27
3.42179e-26
3.66392e-25
3.0746e-24
2.00558e-23
9.82711e-23
3.15988e-22
9.8146e-22
2.92982e-21
7.52633e-21
1.612e-20
2.74126e-20
4.04757e-20
5.07746e-20
6.21702e-20
9.01262e-20
1.90117e-19
5.10926e-19
2.60404e-18
1.54225e-17
1.27731e-31
1.89695e-30
1.97959e-29
2.06487e-28
2.56418e-27
2.42622e-26
1.94568e-25
1.3657e-24
7.35649e-24
2.70846e-23
9.39338e-23
3.00308e-22
8.15335e-22
1.84612e-21
3.42836e-21
5.36323e-21
8.04328e-21
1.16603e-20
2.1243e-20
5.81831e-20
2.46546e-19
1.33541e-18
8.85942e-18
2.16595e-32
3.44793e-31
3.7914e-30
3.73901e-29
3.5849e-28
2.97853e-27
2.2166e-26
1.56504e-25
8.31331e-25
3.42206e-24
1.25385e-23
4.05567e-23
1.11787e-22
2.62445e-22
5.12238e-22
8.61277e-22
1.45815e-21
2.45242e-21
5.46931e-21
2.05495e-20
1.07923e-19
5.89553e-19
4.04771e-18
0.973741
0.996089
0.800266
0.626832
0.998022
0.993042
0.798338
0.616728
0.999951
0.999333
0.949545
0.834256
0.999937
0.999724
0.999985
0.99906
0.999983
0.999999
1
1
1
1
1
1
1
1
1
1
1
1
1
1
0.785892
0.608358
0.535131
0.513709
0.0807109
0.0172943
0.00456236
0.0027052
6.05394e-07
5.55833e-07
5.50071e-07
5.72086e-07
1.26707e-06
1.35789e-06
1.33711e-06
1.316e-06
1.80999e-06
1.81743e-06
1.81715e-06
1.8012e-06
1.57439e-06
9.53699e-07
7.82887e-07
6.49046e-07
4.5807e-07
3.04242e-07
1.37437e-07
1.18509e-07
2.78913e-08
1.26446e-08
1.96387e-08
6.57879e-09
3.87282e-09
4.45714e-09
6.02669e-09
4.73652e-09
3.95558e-08
3.65954e-09
6.52435e-09
9.81437e-09
4.62938e-08
1.74594e-08
1.04669e-08
1.49212e-08
2.05401e-08
1.60901e-08
1.58945e-08
1.63348e-08
9.90241e-09
1.02668e-08
1.17735e-08
1.26141e-08
6.19883e-09
6.21606e-09
6.87648e-09
7.01257e-09
3.72308e-09
3.74614e-09
3.83268e-09
3.91878e-09
2.0372e-09
2.01947e-09
2.02374e-09
2.00389e-09
1.03303e-09
1.01824e-09
9.99054e-10
9.7339e-10
4.63264e-10
4.45557e-10
4.24079e-10
3.97937e-10
1.86314e-10
1.75075e-10
1.61653e-10
1.48328e-10
6.32523e-11
5.68679e-11
5.01152e-11
4.3129e-11
1.75035e-11
1.514e-11
1.26568e-11
1.06456e-11
3.9801e-12
3.19214e-12
2.48977e-12
1.91765e-12
6.57732e-13
5.14933e-13
3.83171e-13
2.86903e-13
9.0983e-14
6.64388e-14
4.7114e-14
3.38139e-14
1.09116e-14
8.05569e-15
6.67699e-15
6.50173e-15
1.8437e-15
1.88764e-15
2.3622e-15
3.24077e-15
6.49362e-16
8.89345e-16
1.30155e-15
2.06957e-15
3.11612e-16
4.31391e-16
7.81419e-16
1.57372e-15
1.55473e-16
2.46396e-16
5.3118e-16
1.36893e-15
8.17602e-17
1.6259e-16
5.18269e-16
1.53686e-15
5.01539e-17
1.36734e-16
4.74667e-16
1.48396e-15
3.80819e-17
1.2911e-16
4.47631e-16
1.41893e-15
2.26904e-17
9.87041e-17
3.40187e-16
1.00935e-15
1.71889e-17
5.6063e-17
1.67597e-16
4.20572e-16
0.775127
-9.55412e-20
-1.88539e-12
-4.96115e-08
-1.84517e-08
-8.40028e-08
-3.62618e-07
0.000218633
1.66437e-05
1.73325e-05
0.0154227
0.152191
0.425548
0.737397
0.887173
0.952784
0.916516
0.835158
0.631814
0.485128
0.260865
0.431196
0.533707
0.510251
0.373488
0.216431
0.199988
0.20282
0.323856
0.622268
0.874441
0.991204
0.999168
0.998771
0.998393
0.998466
0.942811
0.576257
0.765227
0.886199
0.967575
0.992282
0.99302
0.990638
0.983829
0.941099
0.932515
0.986559
0.999663
0.999435
0.99924
0.999298
0.999302
0.999299
0.999305
0.830087
0.521939
0.996458
1
1
1
1
1
1
1
1
0.999623
0.999965
1
0.985631
0.956392
0.944872
0.976319
0.999298
0.765493
0.517962
1
1
1
1
1
1
1
1
1
0.978797
0.843892
0.63017
0.419962
0.326966
0.345706
0.507827
0.727098
0.768282
0.729175
1
0.999999
0.999999
1
1
1
1
0.95101
0.75024
0.38999
0.118379
-1.41499e-07
7.582e-07
2.91462e-09
0.00282467
0.0701461
0.131818
0.155471
0.148684
1
1
1
1
1
0.910254
0.65627
0.284029
0.0258535
5.73336e-07
5.57562e-07
1.43532e-07
2.86895e-09
2.87263e-09
0.00152954
0.00304684
1.61416e-06
1.59185e-06
1.83802e-06
1
0.978058
0.885804
0.703829
0.400957
0.123119
3.77316e-07
5.06025e-09
5.57806e-07
9.53755e-06
0.000145279
1.66275e-05
-2.10037e-09
0.0024255
0.00730596
0.00723288
0.000578307
1.61416e-06
2.01717e-06
0.437936
0.261759
0.119164
0.0189689
1.13096e-07
2.40631e-08
2.23275e-08
2.03103e-07
2.87289e-05
0.000752075
0.00116496
0.000543547
7.76529e-07
0.00206944
0.00458361
0.00112965
5.99919e-07
1.61427e-06
1.84294e-06
0.000123038
5.87134e-08
6.19774e-08
6.27668e-08
2.82968e-07
8.89431e-07
8.97807e-07
7.32048e-08
0.000307662
0.00116517
0.0011673
0.000591157
1.15858e-07
0.000211728
1.91451e-07
1.90293e-07
5.92138e-07
9.87291e-08
9.88079e-07
4.97246e-07
2.21486e-07
1.04864e-07
7.63085e-08
6.74844e-07
2.87291e-06
2.87579e-06
1.35027e-05
8.90834e-05
9.70804e-05
8.24015e-05
1.76337e-05
1.16408e-07
1.61936e-07
2.27138e-07
3.96167e-07
1.7949e-07
9.99018e-08
2.35702e-07
1.20575e-06
7.35362e-07
2.60651e-07
8.57865e-08
5.91843e-07
2.8837e-06
3.01285e-06
6.14225e-07
3.35387e-09
3.35384e-09
8.88716e-08
4.55729e-08
1.78853e-07
3.14368e-07
3.58878e-07
3.28302e-07
3.49354e-08
1.22974e-07
1.71154e-06
1.18901e-06
2.85637e-07
6.51331e-08
6.28292e-08
7.61725e-08
4.61466e-08
2.5716e-08
3.77497e-09
5.65352e-09
1.31548e-08
2.75869e-08
4.90032e-08
8.72802e-08
1.26835e-07
1.24022e-07
5.32922e-08
4.78872e-09
1.82398e-07
1.73047e-06
3.94262e-07
6.40642e-08
1.28129e-08
1.49295e-08
5.47164e-09
2.84912e-09
2.83418e-09
3.39322e-09
4.84388e-09
7.0163e-09
9.34007e-09
1.10499e-08
9.62215e-09
4.57492e-09
4.13114e-09
4.03152e-09
5.68014e-09
2.09918e-07
1.73161e-06
6.80527e-08
1.15811e-08
1.74946e-09
1.8543e-09
3.27147e-09
3.54067e-09
3.44717e-09
3.34734e-09
3.87683e-09
4.60603e-09
5.19241e-09
5.26076e-09
4.8736e-09
3.87147e-09
4.05356e-09
4.23665e-09
5.58996e-09
2.45027e-07
1.22897e-06
2.9829e-09
1.20781e-09
1.20662e-09
1.24111e-09
1.80117e-09
2.1822e-09
2.19301e-09
2.43186e-09
2.67322e-09
2.99563e-09
3.25322e-09
3.44916e-09
3.48717e-09
3.74107e-09
4.20743e-09
4.35904e-09
4.65849e-09
2.56935e-07
6.79871e-07
4.00712e-09
2.06221e-09
1.75598e-09
1.2487e-09
9.69855e-10
7.58983e-10
7.57473e-10
1.19249e-09
1.4723e-09
1.72842e-09
1.90778e-09
2.07316e-09
2.17873e-09
2.6009e-09
3.4197e-09
4.07838e-09
3.68689e-09
1.82013e-07
3.39405e-07
9.4594e-09
3.89485e-09
2.77774e-09
1.57111e-09
1.043e-09
7.96839e-10
6.60764e-10
6.92001e-10
8.4574e-10
9.24106e-10
1.049e-09
1.22024e-09
1.45636e-09
1.93329e-09
2.84155e-09
3.80975e-09
3.81446e-09
7.26768e-08
2.09927e-07
1.4043e-08
8.14004e-09
4.37055e-09
2.85716e-09
1.44632e-09
8.30814e-10
5.63956e-10
4.60081e-10
4.51781e-10
5.0506e-10
6.22574e-10
7.99215e-10
1.04548e-09
1.55486e-09
2.52492e-09
3.76084e-09
4.60217e-09
1.05469e-08
1.76521e-08
1.61293e-08
1.24492e-08
8.05144e-09
4.26242e-09
1.97392e-09
1.0126e-09
5.45933e-10
3.45421e-10
2.7358e-10
2.763e-10
3.55963e-10
5.55406e-10
8.3457e-10
1.37387e-09
2.37779e-09
3.85861e-09
5.85311e-09
7.65474e-09
7.53777e-09
1.26354e-08
1.05219e-08
7.44499e-09
4.56595e-09
2.17604e-09
1.10432e-09
5.56954e-10
3.0002e-10
1.94987e-10
1.74374e-10
2.28621e-10
4.26029e-10
7.39637e-10
1.32938e-09
2.38733e-09
4.13002e-09
7.06203e-09
8.11632e-09
8.01494e-09
7.18187e-09
6.33823e-09
4.81244e-09
3.25536e-09
1.82083e-09
9.66442e-10
4.86549e-10
2.46324e-10
1.45921e-10
1.27329e-10
1.87428e-10
3.80415e-10
7.30726e-10
1.38472e-09
2.52599e-09
4.53686e-09
8.8382e-09
1.12945e-08
1.16928e-08
3.84737e-09
3.44368e-09
2.67878e-09
1.86062e-09
1.11563e-09
6.1578e-10
3.18227e-10
1.63653e-10
1.01386e-10
1.02649e-10
1.85566e-10
3.97815e-10
7.9453e-10
1.52127e-09
2.77816e-09
5.25799e-09
1.07765e-08
1.48992e-08
1.21076e-08
1.91023e-09
1.67714e-09
1.2967e-09
8.92619e-10
5.40927e-10
3.02755e-10
1.61513e-10
8.99574e-11
6.95193e-11
9.87435e-11
2.12016e-10
4.533e-10
9.17837e-10
1.7332e-09
3.14908e-09
6.37284e-09
1.38257e-08
2.09044e-08
1.4179e-08
8.66422e-10
7.16626e-10
5.2746e-10
3.5153e-10
2.13137e-10
1.20388e-10
6.74317e-11
4.61791e-11
5.54334e-11
1.1303e-10
2.51575e-10
5.45083e-10
1.09834e-09
2.0162e-09
3.66932e-09
8.14747e-09
1.91813e-08
3.08425e-08
1.8885e-08
3.38994e-10
2.68412e-10
1.89638e-10
1.21153e-10
7.08462e-11
4.00667e-11
2.67791e-11
3.0409e-11
6.01697e-11
1.36976e-10
3.13005e-10
6.77652e-10
1.33622e-09
2.36537e-09
4.38762e-09
1.0974e-08
2.84116e-08
4.68641e-08
2.58709e-08
1.15146e-10
8.31788e-11
5.41342e-11
3.22633e-11
1.85821e-11
1.26544e-11
1.54138e-11
3.17152e-11
7.47367e-11
1.74606e-10
3.98991e-10
8.52674e-10
1.62926e-09
2.7684e-09
5.36572e-09
1.54335e-08
4.35798e-08
6.95163e-08
3.3076e-08
3.10887e-11
2.10733e-11
1.30378e-11
7.68408e-12
5.50526e-12
7.29625e-12
1.64704e-11
4.03563e-11
9.73341e-11
2.25987e-10
5.10708e-10
1.07079e-09
1.97182e-09
3.19983e-09
6.64984e-09
2.22804e-08
6.1499e-08
1.05205e-07
3.65429e-08
6.84669e-12
4.11382e-12
2.42053e-12
1.95719e-12
3.28951e-12
8.1367e-12
2.13947e-11
5.29582e-11
1.26305e-10
2.90702e-10
6.48235e-10
1.32883e-09
2.35229e-09
3.6206e-09
8.2367e-09
3.18744e-08
9.09031e-08
1.12197e-07
3.69841e-08
1.09476e-12
6.47272e-13
6.22896e-13
1.41633e-12
4.01765e-12
1.06532e-11
2.77484e-11
6.78036e-11
1.60051e-10
3.67298e-10
8.08715e-10
1.61964e-09
2.7623e-09
4.02278e-09
1.03448e-08
4.67381e-08
9.96328e-08
1.12067e-07
3.51737e-08
1.58694e-13
1.63296e-13
5.13065e-13
1.74347e-12
5.08086e-12
1.35837e-11
3.42442e-11
8.31369e-11
1.96443e-10
4.51235e-10
9.84576e-10
1.93479e-09
3.20824e-09
4.64858e-09
1.39625e-08
5.31312e-08
1.06068e-07
1.11205e-07
2.7782e-08
3.16654e-14
1.31414e-13
6.18663e-13
2.07913e-12
5.9979e-12
1.57377e-11
3.95634e-11
9.66245e-11
2.32448e-10
5.33985e-10
1.16465e-09
2.25965e-09
3.71507e-09
6.20736e-09
1.69899e-08
5.46831e-08
1.04821e-07
7.70192e-08
1.62989e-08
2.13455e-14
1.43214e-13
6.93433e-13
2.22958e-12
6.40931e-12
1.69814e-11
4.32518e-11
1.07688e-10
2.62864e-10
6.02288e-10
1.3228e-09
2.53319e-09
4.3175e-09
7.80359e-09
1.72328e-08
4.40368e-08
7.7047e-08
3.60006e-08
8.74172e-09
2.4554e-14
1.62362e-13
7.07838e-13
2.2149e-12
6.19134e-12
1.72244e-11
4.45077e-11
1.13406e-10
2.84013e-10
6.62267e-10
1.40953e-09
2.67543e-09
4.75717e-09
8.12241e-09
1.50471e-08
2.90554e-08
2.46939e-08
1.14506e-08
3.6146e-09
2.66429e-14
1.67669e-13
6.34951e-13
1.9949e-12
5.79418e-12
1.66739e-11
4.46644e-11
1.15008e-10
2.81969e-10
6.72291e-10
1.41383e-09
2.65202e-09
4.77589e-09
7.18938e-09
1.04698e-08
1.50301e-08
4.97458e-09
3.16e-09
1.47803e-09
2.48899e-14
1.40589e-13
5.24539e-13
1.68784e-12
5.286e-12
1.5199e-11
4.12243e-11
1.06758e-10
2.64367e-10
6.1293e-10
1.28459e-09
2.36765e-09
4.20506e-09
5.77524e-09
5.64374e-09
5.82801e-09
3.17923e-09
5.9139e-10
4.9821e-10
2.16047e-14
1.09922e-13
4.15112e-13
1.42991e-12
4.45406e-12
1.29403e-11
3.50495e-11
8.9989e-11
2.19177e-10
5.04228e-10
1.03151e-09
1.84273e-09
3.04815e-09
3.91488e-09
3.15976e-09
1.46007e-09
4.0772e-10
2.02125e-10
1.70877e-10
1.80768e-14
8.43914e-14
3.19789e-13
1.10349e-12
3.4063e-12
9.84442e-12
2.63448e-11
6.59534e-11
1.55906e-10
3.49376e-10
6.94837e-10
1.18221e-09
1.75455e-09
2.13454e-09
1.94785e-09
9.80877e-10
3.93998e-10
1.55436e-10
7.04188e-11
1.35567e-14
5.72254e-14
2.19547e-13
7.21056e-13
2.22764e-12
6.25456e-12
1.64327e-11
4.00666e-11
9.16282e-11
1.97702e-10
3.81482e-10
6.26194e-10
8.26244e-10
1.02782e-09
9.67926e-10
5.20439e-10
2.07201e-10
7.83041e-11
3.62757e-11
8.66468e-15
3.33786e-14
1.18899e-13
3.75753e-13
1.06883e-12
2.85951e-12
7.33879e-12
1.76516e-11
3.91213e-11
8.04116e-11
1.48696e-10
2.4035e-10
3.03671e-10
3.60653e-10
3.0651e-10
1.68831e-10
5.52413e-11
2.10052e-11
1.81098e-11
4.12359e-15
1.44541e-14
4.7057e-14
1.39934e-13
3.88695e-13
1.02185e-12
2.48358e-12
5.92121e-12
1.28405e-11
2.5434e-11
4.44881e-11
6.86069e-11
8.77246e-11
9.22375e-11
7.04955e-11
3.04863e-11
8.26701e-12
6.50842e-12
5.234e-12
1.06851e-15
3.32859e-15
1.00617e-14
2.79908e-14
7.31083e-14
1.8934e-13
4.36648e-13
9.3612e-13
2.05343e-12
3.94546e-12
6.66456e-12
9.78138e-12
1.18233e-11
9.9133e-12
6.93608e-12
2.58663e-12
1.70696e-12
5.83182e-13
5.23869e-13
)
;

boundaryField
{
    leftWall
    {
        type            alphaContactAngle;
        contactAngleProperties 
        {
            mercury         
            {
                theta0          90;
            }
            air             
            {
                theta0          90;
            }
            water           
            {
                theta0          90;
            }
        }
        value           nonuniform List<scalar> 
50
(
1.0733e-16
3.61702e-16
6.5317e-16
9.00465e-16
7.15357e-16
9.11683e-17
7.426e-18
9.89709e-19
1.04833e-18
3.21972e-18
3.67452e-15
5.89551e-11
1.68996e-09
7.29393e-09
1.98622e-08
3.98705e-08
2.93516e-08
1.21986e-12
2.7988e-11
3.30828e-07
1.72072e-06
1.10147e-06
2.41541e-07
2.13603e-08
8.73199e-09
4.11758e-09
1.6666e-09
5.33206e-10
1.29089e-10
2.65157e-11
4.67389e-12
6.83887e-13
8.07602e-14
7.51599e-15
5.44658e-16
3.10075e-17
1.42698e-18
5.46994e-20
1.78315e-21
5.17686e-23
1.48307e-24
4.5812e-26
2.22662e-27
2.95105e-28
7.12493e-29
1.54193e-29
3.35631e-30
6.78991e-31
1.27731e-31
2.16595e-32
)
;
    }
    rightWall
    {
        type            alphaContactAngle;
        contactAngleProperties 
        {
            mercury         
            {
                theta0          90;
            }
            air             
            {
                theta0          90;
            }
            water           
            {
                theta0          90;
            }
        }
        value           nonuniform List<scalar> 
50
(
0.277175
0.292007
0.329527
0.405715
0.520696
0.52018
0.491542
0.489854
0.631814
0.576257
0.521939
0.517962
0.729175
0.148684
1.83802e-06
2.01717e-06
1.84294e-06
9.88079e-07
2.35702e-07
1.71154e-06
1.73047e-06
1.73161e-06
1.22897e-06
6.79871e-07
3.39405e-07
2.09927e-07
1.76521e-08
7.53777e-09
8.01494e-09
1.16928e-08
1.21076e-08
1.4179e-08
1.8885e-08
2.58709e-08
3.3076e-08
3.65429e-08
3.69841e-08
3.51737e-08
2.7782e-08
1.62989e-08
8.74172e-09
3.6146e-09
1.47803e-09
4.9821e-10
1.70877e-10
7.04188e-11
3.62757e-11
1.81098e-11
5.234e-12
5.23869e-13
)
;
    }
    lowerWall
    {
        type            alphaContactAngle;
        contactAngleProperties 
        {
            mercury         
            {
                theta0          90;
            }
            air             
            {
                theta0          90;
            }
            water           
            {
                theta0          90;
            }
        }
        value           nonuniform List<scalar> 
62
(
1.0733e-16
2.6114e-15
4.53141e-14
2.5572e-13
7.56565e-13
1.94396e-12
4.53965e-12
9.90968e-12
2.10349e-11
4.35837e-11
8.76647e-11
1.73391e-10
3.3443e-10
6.22372e-10
1.17928e-09
2.09549e-09
3.61451e-09
6.65355e-09
1.03096e-08
1.04329e-08
5.38727e-05
0.000527119
0.000568444
0.000568444
0.00056836
0.000189104
3.0911e-05
1.55226e-06
0.00344989
0.00355157
0.250785
0.973741
0.996089
0.800266
0.626832
0.908994
0.893736
0.827572
0.681894
0.207823
0.242566
0.78281
0.86517
0.908994
0.908998
0.908974
0.528465
0.124634
0.103955
0.0980189
0.363304
0.438095
0.441405
0.439736
0.375804
0.0944905
0.056098
0.0918081
0.176504
0.209769
0.279905
0.277175
)
;
    }
    atmosphere
    {
        type            inletOutlet;
        inletValue      uniform 0;
        value           nonuniform List<scalar> 
46
(
2.16595e-32
3.44793e-31
3.7914e-30
3.73901e-29
3.5849e-28
2.97853e-27
2.2166e-26
1.56504e-25
8.31331e-25
3.42206e-24
1.25385e-23
4.05567e-23
1.11787e-22
2.62445e-22
5.12238e-22
8.61277e-22
1.45815e-21
2.45242e-21
5.46931e-21
2.05495e-20
1.07923e-19
5.89553e-19
4.04771e-18
1.71889e-17
0
0
0
0
0
0
0
0
0
0
0
0
0
0
0
0
0
0
0
0
0
0
)
;
    }
    defaultFaces
    {
        type            empty;
    }
}


// ************************************************************************* //
