/*--------------------------------*- C++ -*----------------------------------*\
  =========                 |
  \\      /  F ield         | OpenFOAM: The Open Source CFD Toolbox
   \\    /   O peration     | Website:  https://openfoam.org
    \\  /    A nd           | Version:  13
     \\/     M anipulation  |
\*---------------------------------------------------------------------------*/
FoamFile
{
    format      ascii;
    class       volScalarField;
    location    "1.2";
    object      alpha.mercury;
}
// * * * * * * * * * * * * * * * * * * * * * * * * * * * * * * * * * * * * * //

dimensions      [];

internalField   nonuniform List<scalar> 
2268
(
1
1
1
1
1
1
1
1
1
1
1
1
1
1
1
1
1
1
1
1
0.999946
0.999473
0.999432
1
1
1
1
1
1
1
1
1
1
1
1
1
1
1
1
1
1
1
1
1
0.999898
0.999432
1
1
1
1
1
1
1
1
1
1
1
1
1
1
1
1
1
1
1
1
1
1
0.999811
1
1
1
1
1
1
1
1
1
1
1
1
1
1
1
1
1
1
1
1
1
0.999998
0.999969
1
1
1
1
1
1
1
1
1
1
1
1
1
1
1
0.999999
0.994187
0.973357
0.953927
0.937358
0.935896
0.952762
0.979376
1
1
1
1
1
1
1
1
1
1
1
0.999011
0.912465
0.780117
0.641007
0.509853
0.401166
0.329969
0.277993
0.238377
0.24997
0.311342
0.359879
0.953001
0.989147
1
1
1
1
1
1
1
0.90402
0.665934
0.369242
0.180852
0.0761954
0.0236889
0.00373124
7.59745e-19
-3.28731e-19
1.34887e-19
0.000106713
6.93652e-05
0.00646754
0.00786528
0.353186
0.527606
0.699031
0.777566
0.806496
0.842095
0.839605
0.674462
0.367523
0.135156
0.0220262
-2.32596e-10
2.17109e-08
1.11822e-08
5.44457e-20
1.49977e-16
4.5285e-23
7.90963e-12
6.66871e-14
0.00368198
0.0295491
0.0315042
0.0199689
0.0686916
0.0871802
0.0910261
0.471495
0.87429
0.874237
0.841713
0.522359
0.449679
0.453108
0.445695
0.450541
0.690134
0.690138
0.690135
0.690139
0.690122
0.69013
0.690085
0.0665533
0.169204
0.091126
0.176306
0.638625
0.874295
0.874234
0.874316
0.873935
0.85208
0.815939
0.707995
0.588826
0.657676
0.660748
0.599576
0.613211
0.689934
0.680617
0.0692987
0.2667
0.184833
0.156017
0.386266
0.86642
0.804078
0.789637
0.823761
0.848198
0.846372
0.663298
0.278544
0.256566
0.286876
0.288702
0.292504
0.52499
0.603894
0.199106
0.298825
0.490406
0.594219
0.596909
0.357613
0.125451
0.125062
0.266575
0.38133
0.386926
0.31078
0.296092
0.245307
0.222407
0.22236
0.229555
0.285435
0.430394
0.201712
0.0934587
0.257773
0.37546
0.229111
0.00229351
3.01167e-21
1.66203e-05
-5.89589e-06
0.0300507
0.126188
0.227818
0.358074
0.387396
0.387815
0.373015
0.340448
0.259945
0.314884
0.0908414
0.00056351
0.000957406
0.00429767
8.29355e-05
8.74603e-05
0.000124591
0.00417305
0.00701842
1.44407e-06
1.47951e-06
3.82663e-05
0.0147917
0.119773
0.147616
0.133369
0.152534
0.129723
0.222416
-0.000653309
3.67932e-05
0.000177368
9.60294e-05
9.1593e-05
7.54004e-05
0.000286195
0.00384622
0.00402365
1.46115e-06
3.71002e-06
-8.84449e-08
-1.58156e-21
0.000189783
4.16717e-12
5.08985e-12
3.9575e-12
0.0158881
0.0649774
0.00508011
0.00145703
7.47064e-05
5.90491e-05
5.91783e-05
4.84246e-05
0.000217823
0.000153522
5.515e-05
4.06322e-05
0.000115455
7.72378e-07
0.000115848
0.000899239
0.000786872
2.78066e-05
1.78772e-10
4.57396e-13
0.0299333
1.33095e-09
0.041426
0.109896
0.164559
0.171037
0.115155
0.041255
0.0101062
0.000138605
-6.28623e-11
9.24134e-09
1.23242e-10
6.56367e-11
1.51949e-11
7.37761e-12
4.2057e-20
4.36349e-09
2.95122e-08
-2.03284e-08
0.0279185
0.0383575
0.0343296
0.00931259
1.46961e-09
4.42081e-10
8.41724e-10
2.82388e-10
1.39428e-09
4.05626e-09
3.05301e-09
6.45943e-08
7.49656e-08
7.02381e-11
2.29258e-11
2.99987e-11
3.23296e-11
2.75832e-11
2.31418e-11
2.07314e-11
3.77591e-10
3.2766e-10
0.000203388
0.00323323
0.00449685
0.0020341
1.06689e-05
3.57737e-09
5.58103e-09
4.39873e-09
2.60067e-08
1.01519e-08
2.28007e-09
4.46302e-10
1.29614e-10
2.60824e-11
2.73873e-11
3.93994e-11
4.50379e-11
3.91357e-11
3.01857e-11
2.10021e-11
2.08616e-11
2.09985e-11
1.72411e-06
4.97872e-05
9.05058e-10
9.03375e-10
9.05058e-10
7.33784e-07
3.35637e-09
5.54603e-09
3.37684e-09
1.95957e-09
5.97273e-10
3.35775e-10
1.00471e-10
1.12851e-11
6.31947e-12
1.0445e-11
1.21463e-11
1.25856e-11
4.64338e-11
1.13176e-09
3.19967e-09
5.01051e-10
6.27528e-08
8.62231e-07
1.08869e-09
1.12254e-09
9.0506e-10
9.03375e-10
1.11334e-07
2.24914e-09
2.988e-09
1.54369e-09
4.01413e-10
1.90239e-10
6.85651e-11
5.97939e-12
2.14269e-12
2.33449e-12
2.62862e-11
2.41305e-10
1.22616e-09
3.09915e-09
5.83588e-09
6.36855e-09
6.42488e-09
1.87651e-08
6.32501e-10
1.04964e-09
1.10733e-09
9.89978e-10
3.81811e-09
1.22551e-08
1.18986e-09
9.49583e-10
5.98296e-10
2.72845e-10
9.43229e-11
6.5514e-11
8.82886e-11
2.23182e-10
5.64546e-10
1.71332e-09
3.14076e-09
4.08329e-09
4.75127e-09
5.27694e-09
4.47589e-09
2.13411e-09
3.13306e-10
6.11443e-10
1.17877e-09
9.83411e-10
1.62373e-09
3.82014e-09
6.58031e-09
7.29251e-10
5.11822e-10
2.61204e-10
1.57277e-10
1.39797e-10
3.60548e-10
8.31564e-10
1.66164e-09
2.7116e-09
3.26658e-09
3.4733e-09
3.11627e-09
2.70501e-09
1.93282e-09
1.07486e-09
3.03989e-10
3.08515e-10
6.45335e-10
9.02592e-10
8.22141e-10
1.22853e-09
2.18217e-09
3.19723e-09
5.08759e-10
3.24307e-10
1.93839e-10
2.04469e-10
5.09307e-10
9.47436e-10
1.58345e-09
1.98038e-09
2.23511e-09
2.12286e-09
1.61089e-09
8.04177e-10
5.14454e-10
3.21563e-10
2.09376e-10
2.3217e-10
2.81062e-10
4.12435e-10
4.53463e-10
5.35541e-10
7.12099e-10
8.55736e-10
1.05698e-09
3.58891e-10
1.84288e-10
2.2888e-10
5.12411e-10
7.84531e-10
9.30234e-10
9.73231e-10
9.88446e-10
7.86959e-10
6.14584e-10
3.72278e-10
3.34119e-10
2.15055e-10
1.36691e-10
1.34858e-10
1.71495e-10
1.97897e-10
1.83883e-10
1.64656e-10
2.23871e-10
2.1056e-10
1.61528e-10
1.3554e-10
1.92537e-10
9.49461e-11
4.22724e-10
7.43669e-10
7.06299e-10
4.80108e-10
3.68941e-10
3.0144e-10
2.26559e-10
1.26737e-10
1.03834e-10
9.85109e-11
8.97681e-11
7.59277e-11
8.20386e-11
8.86697e-11
7.61341e-11
5.23637e-11
3.68342e-11
3.63527e-11
2.82914e-11
1.95667e-11
1.57953e-11
5.93745e-11
7.81453e-11
5.72359e-10
8.12132e-10
6.8516e-10
3.34821e-10
1.69223e-10
1.07974e-10
8.76714e-11
6.37613e-11
5.25727e-11
4.17508e-11
3.18947e-11
2.98627e-11
2.87063e-11
2.22504e-11
1.33954e-11
8.09406e-12
6.60662e-12
6.71571e-12
8.04142e-12
8.89619e-12
6.89319e-12
1.27726e-11
1.05832e-10
6.48793e-10
8.11412e-10
7.12828e-10
3.62703e-10
1.62997e-10
8.77253e-11
4.39344e-11
2.54166e-11
1.67022e-11
1.24284e-11
1.03304e-11
8.83695e-12
7.08169e-12
5.53305e-12
4.42527e-12
3.58017e-12
3.11435e-12
3.09555e-12
3.35945e-12
3.92955e-12
2.09425e-12
1.18175e-11
1.46259e-10
5.26258e-10
7.18066e-10
6.31893e-10
4.52519e-10
3.1018e-10
2.18436e-10
1.16819e-10
5.71114e-11
2.02362e-11
1.09484e-11
7.08161e-12
5.52838e-12
4.62071e-12
3.94473e-12
3.34007e-12
2.63815e-12
2.09095e-12
1.88966e-12
1.7369e-12
1.3644e-12
9.594e-13
1.05514e-11
9.8194e-11
3.80328e-10
5.5933e-10
5.88206e-10
4.80375e-10
4.15344e-10
3.42573e-10
2.84433e-10
1.67072e-10
6.28965e-11
1.71972e-11
7.61212e-12
5.47014e-12
4.60807e-12
3.93352e-12
3.28603e-12
2.51711e-12
1.93154e-12
1.5623e-12
1.31271e-12
1.05722e-12
7.86779e-13
4.79244e-12
4.10469e-11
1.6458e-10
3.74893e-10
4.41373e-10
4.43531e-10
3.79622e-10
3.5314e-10
3.46001e-10
3.2675e-10
2.55061e-10
1.23353e-10
3.64021e-11
1.35751e-11
7.25202e-12
5.39132e-12
4.49297e-12
3.64415e-12
2.93979e-12
2.43122e-12
2.03916e-12
1.63601e-12
1.12658e-12
1.10175e-12
1.30768e-11
6.4452e-11
2.13326e-10
3.28793e-10
3.42043e-10
3.14376e-10
2.98645e-10
3.06938e-10
3.27453e-10
3.33232e-10
3.21704e-10
2.33639e-10
1.1979e-10
5.40449e-11
2.55188e-11
1.44035e-11
1.03629e-11
8.75063e-12
7.43817e-12
6.10912e-12
4.22267e-12
3.26716e-12
5.45033e-13
5.67498e-12
2.72318e-11
6.83772e-11
1.42129e-10
2.09657e-10
2.213e-10
2.13004e-10
2.19394e-10
2.41416e-10
2.79604e-10
3.02807e-10
3.01972e-10
2.835e-10
2.32947e-10
1.50018e-10
8.82309e-11
5.21559e-11
3.43625e-11
2.44189e-11
1.69962e-11
1.26852e-11
8.93228e-12
2.08205e-13
2.23534e-12
1.1515e-11
3.20666e-11
5.47329e-11
9.46111e-11
1.18502e-10
1.31417e-10
1.36639e-10
1.47481e-10
1.61811e-10
1.8705e-10
2.16901e-10
2.34294e-10
2.35779e-10
2.12649e-10
1.65521e-10
1.15003e-10
7.34629e-11
4.62965e-11
2.90994e-11
1.71939e-11
1.04884e-11
6.33459e-14
7.36936e-13
4.25655e-12
1.44199e-11
3.05323e-11
4.52009e-11
4.52551e-11
7.16403e-11
8.17917e-11
8.39104e-11
8.7983e-11
9.19147e-11
9.59607e-11
1.0553e-10
1.21276e-10
1.29877e-10
1.2393e-10
1.00438e-10
6.88184e-11
4.26567e-11
2.53677e-11
1.46439e-11
7.48972e-12
1.5754e-14
2.03328e-13
1.32833e-12
5.51295e-12
1.46086e-11
2.51073e-11
2.64193e-11
3.45096e-11
4.82367e-11
4.81634e-11
4.60854e-11
4.45271e-11
3.95222e-11
3.66064e-11
3.8392e-11
4.12307e-11
4.27495e-11
4.02088e-11
3.26159e-11
2.21385e-11
1.31174e-11
7.61949e-12
4.13149e-12
3.17606e-15
4.75224e-14
3.47839e-13
1.73892e-12
5.85492e-12
1.28989e-11
1.55357e-11
1.77374e-11
2.79962e-11
2.88238e-11
2.51264e-11
2.17128e-11
1.90885e-11
1.54105e-11
1.28291e-11
1.10076e-11
1.05835e-11
1.00437e-11
9.15393e-12
7.2103e-12
4.53647e-12
3.56257e-12
2.23757e-12
5.95897e-16
9.61974e-15
7.89168e-14
4.58951e-13
1.93456e-12
5.63083e-12
8.01872e-12
8.67121e-12
1.46818e-11
1.6636e-11
1.42393e-11
1.06474e-11
9.04139e-12
7.39379e-12
4.90895e-12
3.84655e-12
3.51616e-12
2.93892e-12
2.73497e-12
2.46832e-12
1.75803e-12
1.43418e-12
1.14267e-12
1.04886e-16
1.81994e-15
1.70802e-14
1.127e-13
5.62649e-13
2.06484e-12
3.52631e-12
3.9599e-12
6.68412e-12
8.72966e-12
7.72611e-12
5.50776e-12
4.05268e-12
3.28476e-12
2.3168e-12
1.57103e-12
1.2601e-12
1.06328e-12
9.3724e-13
8.82551e-13
6.8947e-13
5.92168e-13
5.0924e-13
1.65451e-17
3.13425e-16
3.59123e-15
2.7982e-14
1.62051e-13
6.68509e-13
1.312e-12
1.64005e-12
2.6893e-12
3.9446e-12
3.55802e-12
2.69113e-12
1.82981e-12
1.33074e-12
9.46088e-13
6.32779e-13
4.39381e-13
3.54007e-13
3.17185e-13
2.96233e-13
2.73689e-13
2.31749e-13
2.0728e-13
2.28146e-18
4.74106e-17
7.04395e-16
6.61055e-15
4.46032e-14
1.95386e-13
4.35045e-13
5.89946e-13
9.76649e-13
1.52901e-12
1.40979e-12
1.13651e-12
7.87245e-13
5.10721e-13
3.46759e-13
2.40877e-13
1.5797e-13
1.24382e-13
1.04692e-13
9.92135e-14
9.29872e-14
8.46765e-14
7.67111e-14
2.78659e-19
6.14407e-18
1.24124e-16
1.38472e-15
1.12737e-14
5.12136e-14
1.27801e-13
1.85479e-13
3.18536e-13
5.09342e-13
4.89471e-13
4.05554e-13
2.87998e-13
1.7892e-13
1.15189e-13
7.87577e-14
5.29754e-14
4.2903e-14
3.60779e-14
3.29752e-14
3.16777e-14
2.90132e-14
2.58742e-14
3.18704e-20
6.72923e-19
1.92032e-17
2.58161e-16
2.50605e-15
1.18723e-14
3.27297e-14
5.29009e-14
9.32564e-14
1.44243e-13
1.38205e-13
1.20539e-13
8.72753e-14
5.20748e-14
3.32326e-14
2.23841e-14
1.56929e-14
1.33607e-14
1.12266e-14
1.0712e-14
1.01153e-14
9.38496e-15
8.04453e-15
3.50371e-21
6.2245e-20
2.58726e-18
4.20918e-17
4.69108e-16
2.39606e-15
7.21237e-15
1.3513e-14
2.37484e-14
3.47806e-14
3.40654e-14
3.0069e-14
2.18128e-14
1.27167e-14
7.79081e-15
5.751e-15
4.48097e-15
3.63328e-15
3.32529e-15
3.17512e-15
3.08814e-15
2.69705e-15
2.26198e-15
3.51597e-22
4.93475e-21
3.03698e-19
5.90025e-18
7.12047e-17
4.14292e-16
1.35189e-15
2.86714e-15
5.04416e-15
7.20076e-15
7.2195e-15
6.34847e-15
4.41847e-15
2.64488e-15
1.77051e-15
1.36047e-15
1.08116e-15
9.32975e-16
8.73974e-16
8.62261e-16
7.9998e-16
6.74583e-16
5.04752e-16
3.07461e-23
3.45136e-22
3.10112e-20
6.99048e-19
9.04158e-18
5.99483e-17
2.13812e-16
5.05463e-16
8.86953e-16
1.26526e-15
1.28039e-15
1.10483e-15
7.52114e-16
4.4506e-16
3.52924e-16
2.91828e-16
2.5021e-16
2.15448e-16
2.10069e-16
2.02569e-16
1.90903e-16
1.42466e-16
1.00762e-16
2.34699e-24
2.18929e-23
2.72506e-21
6.90735e-20
9.54374e-19
7.04146e-18
2.84086e-17
7.32689e-17
1.30843e-16
1.89258e-16
1.89908e-16
1.60457e-16
1.09231e-16
7.67088e-17
6.46783e-17
5.67638e-17
4.92168e-17
4.31328e-17
4.3532e-17
4.24212e-17
3.59699e-17
2.48958e-17
1.43515e-17
1.55553e-25
1.26132e-24
2.02716e-22
5.66118e-21
8.37102e-20
6.66316e-19
3.09628e-18
8.65748e-18
1.64252e-17
2.36984e-17
2.35682e-17
1.91815e-17
1.39299e-17
1.07054e-17
9.42389e-18
9.01643e-18
7.98238e-18
7.74639e-18
7.71841e-18
7.34563e-18
6.18896e-18
3.4664e-18
1.8885e-18
8.64882e-27
6.41787e-26
1.26252e-23
3.87233e-22
6.14864e-21
5.29635e-20
2.721e-19
8.45694e-19
1.73991e-18
2.47389e-18
2.41009e-18
1.7714e-18
1.33455e-18
1.39835e-18
1.3806e-18
1.27741e-18
1.19845e-18
1.16897e-18
1.21057e-18
1.09978e-18
7.57068e-19
3.82571e-19
1.65229e-19
3.8709e-28
2.80206e-27
6.58473e-25
2.24972e-23
3.83005e-22
3.5339e-21
1.9785e-20
7.03967e-20
1.55748e-19
2.22896e-19
1.89018e-19
1.56762e-19
1.59777e-19
1.53204e-19
1.59668e-19
1.69374e-19
1.70735e-19
1.70063e-19
1.63962e-19
1.29804e-19
8.20546e-20
3.13348e-20
1.24183e-20
1.46829e-29
9.38491e-29
2.89981e-26
1.13431e-24
2.03569e-23
1.98266e-22
1.22704e-21
4.75261e-21
1.14299e-20
1.68304e-20
1.52636e-20
1.43528e-20
1.50981e-20
1.71883e-20
1.84624e-20
1.99378e-20
2.0696e-20
2.09391e-20
1.86908e-20
1.31347e-20
6.36795e-21
2.43075e-21
9.33e-22
3.90537e-31
2.90296e-30
9.95408e-28
4.57756e-26
9.20368e-25
9.5402e-24
6.71622e-23
3.08815e-22
7.75465e-22
1.18046e-21
1.12503e-21
1.20921e-21
1.45716e-21
1.72343e-21
1.89521e-21
2.07482e-21
2.20721e-21
2.09817e-21
1.65234e-21
1.01469e-21
4.47688e-22
1.45146e-22
1.49601e-23
1.30047e-32
8.19425e-32
3.08531e-29
1.76222e-27
3.48218e-26
3.96127e-25
3.33592e-24
1.7202e-23
4.5936e-23
7.06267e-23
7.58055e-23
9.60708e-23
1.24259e-22
1.50044e-22
1.71789e-22
1.93806e-22
1.97373e-22
1.81401e-22
1.31484e-22
6.71722e-23
2.49089e-23
3.52909e-24
2.95372e-25
2.9561e-34
1.84356e-33
8.34655e-31
6.09587e-29
1.13712e-27
1.45822e-26
1.49564e-25
8.09606e-25
2.41482e-24
3.69512e-24
4.64801e-24
6.69249e-24
9.14416e-24
1.15787e-23
1.3955e-23
1.54333e-23
1.57318e-23
1.36356e-23
8.33322e-24
3.82267e-24
7.12428e-25
7.43364e-26
5.56059e-27
-5.76286e-36
2.464e-35
1.99341e-32
1.92759e-30
3.55192e-29
5.02438e-28
5.93476e-27
3.33244e-26
1.11468e-25
1.76265e-25
2.57306e-25
4.1124e-25
5.95457e-25
7.9948e-25
9.71023e-25
1.11511e-24
1.13036e-24
9.03531e-25
4.83509e-25
1.55958e-25
2.16373e-26
1.29849e-27
1.51659e-27
-1.4054e-36
-9.30398e-37
4.73279e-34
5.79135e-32
1.11109e-30
1.62921e-29
2.07111e-28
1.21466e-27
4.52576e-27
7.77008e-27
1.28604e-26
2.26135e-26
3.47604e-26
4.96147e-26
6.17716e-26
7.5002e-26
7.25819e-26
5.32845e-26
2.47199e-26
6.46027e-27
5.13069e-28
1.88628e-28
7.92531e-28
-1.30063e-37
-1.34801e-37
1.0952e-35
1.561e-33
3.33957e-32
4.87781e-31
6.40895e-30
3.97496e-29
1.6457e-28
3.14676e-28
5.81716e-28
1.12218e-27
1.82974e-27
2.78293e-27
3.6997e-27
4.30784e-27
4.19849e-27
2.7639e-27
1.13184e-27
2.38359e-28
2.76518e-29
6.90138e-29
4.40477e-28
-9.11754e-39
-1.08039e-38
2.30561e-37
3.65833e-35
9.41374e-34
1.35889e-32
1.779e-31
1.19105e-30
5.42736e-30
1.16299e-29
2.38714e-29
5.04342e-29
8.72154e-29
1.42087e-28
2.03134e-28
2.24302e-28
2.28379e-28
1.46391e-28
5.60161e-29
1.06981e-29
6.45657e-30
2.92306e-29
1.97198e-28
0.000168297
0.000176425
0.0029633
0.0262627
0.000214115
6.14428e-05
0.00132309
0.0173385
4.70621e-05
4.44404e-05
0.000128357
0.000649813
2.04079e-06
1.9526e-06
8.99501e-09
2.11903e-08
1.82621e-08
5.05188e-09
1.95722e-08
3.38956e-08
4.57131e-09
5.68525e-09
1.90456e-08
3.02978e-08
4.3765e-09
5.90365e-09
8.77189e-09
8.62521e-09
1.66572e-09
1.96916e-09
1.01938e-09
4.12698e-10
8.76587e-11
1.41948e-10
3.20992e-11
2.16441e-11
9.15532e-12
7.38892e-12
5.79686e-12
4.94638e-12
3.58321e-12
2.67012e-12
2.36392e-12
1.90846e-12
1.22399e-12
1.03868e-12
9.15091e-13
8.32682e-13
7.10521e-13
6.5871e-13
6.2649e-13
5.81975e-13
6.32654e-13
5.80036e-13
5.27018e-13
4.71035e-13
7.67461e-13
6.82491e-13
5.99154e-13
5.23886e-13
2.30606e-12
1.69359e-12
1.38625e-12
1.19234e-12
5.50044e-12
4.6065e-12
3.38388e-12
2.63586e-12
6.22584e-12
4.81421e-12
3.93625e-12
3.36518e-12
4.47618e-12
3.42464e-12
2.66756e-12
2.24661e-12
2.35208e-12
1.79305e-12
1.44226e-12
1.23443e-12
1.57419e-12
1.18486e-12
9.86874e-13
8.21572e-13
9.00891e-13
7.54652e-13
6.46356e-13
5.49043e-13
4.39858e-13
3.86568e-13
3.39662e-13
2.9134e-13
1.82553e-13
1.63109e-13
1.44e-13
1.19052e-13
6.85017e-14
6.06496e-14
5.36227e-14
4.77026e-14
2.38111e-14
2.11259e-14
1.83919e-14
1.56795e-14
7.39096e-15
6.47079e-15
5.55236e-15
4.77895e-15
1.99494e-15
1.69115e-15
1.39863e-15
1.12168e-15
4.39728e-16
3.60308e-16
2.82731e-16
2.24296e-16
8.11136e-17
6.13815e-17
4.4863e-17
3.22738e-17
1.05518e-17
7.79751e-18
5.40142e-18
3.75491e-18
1.15717e-18
7.77608e-19
4.90362e-19
2.97721e-19
9.9155e-20
5.79227e-20
3.36657e-20
2.01418e-20
7.02569e-21
3.61305e-21
8.71395e-22
5.36741e-23
1.18094e-22
5.22275e-24
9.23283e-26
1.04022e-25
5.60566e-27
1.57241e-26
4.10107e-26
8.92322e-26
5.5876e-27
1.44915e-26
3.09717e-26
7.62853e-26
5.57549e-27
9.15962e-27
2.7767e-26
8.17541e-26
2.6571e-27
7.11186e-27
2.44517e-26
7.5681e-26
1.93167e-27
6.47191e-27
2.21331e-26
6.89635e-26
1.11673e-27
4.77384e-27
1.61527e-26
4.70362e-26
8.24715e-28
2.64963e-27
7.80344e-27
1.92216e-26
0.0216297
0.00201622
8.24329e-08
7.39604e-08
3.44585e-08
3.43901e-08
7.36398e-06
6.79848e-13
2.82727e-12
6.34939e-05
0.000228885
0.000122304
5.69425e-05
0.00112611
0.00133955
0.000105506
1.79928e-07
6.06086e-13
0.0222294
0.0246894
0.00125773
8.47932e-08
2.61797e-07
3.98423e-07
4.37772e-08
1.44569e-11
3.1431e-12
6.80245e-13
2.619e-05
0.00023065
0.000228885
2.23616e-05
1.12518e-05
2.54043e-05
1.03961e-05
1.36626e-07
0.000202935
0.00630334
0.00634645
0.000138328
8.25832e-08
4.21334e-07
4.54626e-07
4.55479e-07
5.00456e-08
1.08346e-08
1.70062e-11
1.13016e-05
7.7653e-05
0.000108133
1.95849e-05
1.12515e-05
2.85243e-05
1.14573e-05
2.20824e-07
0.00202026
0.00644697
9.60364e-09
2.15701e-08
9.70855e-08
2.9646e-07
4.53509e-07
3.26197e-07
1.58739e-07
6.4461e-08
5.09538e-08
4.3094e-09
4.26701e-09
4.3094e-09
1.10516e-05
3.86306e-05
5.24416e-05
2.9323e-05
1.90996e-07
0.00221442
0.00614591
3.23212e-08
2.50755e-08
6.59705e-08
1.17993e-07
1.03515e-07
5.27885e-08
4.17795e-08
3.74972e-08
2.91529e-08
4.2865e-09
1.587e-07
4.55055e-09
6.50807e-06
5.0567e-05
4.96037e-05
5.56715e-05
0.000306364
0.000717697
0.00111776
2.89959e-08
3.43587e-08
3.26347e-08
3.30371e-08
3.06702e-08
2.1712e-08
1.5833e-08
5.87421e-09
1.92369e-12
1.69974e-12
2.38772e-07
6.25697e-07
4.44017e-08
4.83041e-06
1.18619e-05
0.00035782
0.000637797
0.000556334
0.000227038
1.00045e-08
1.44e-08
7.23681e-09
3.84369e-09
1.15836e-08
1.44398e-08
8.25216e-09
1.92279e-09
1.16143e-11
2.32002e-09
4.95154e-09
8.65215e-09
1.72309e-10
1.67567e-10
1.78015e-05
0.00017885
0.00018325
1.79276e-05
1.27786e-09
5.55033e-10
7.17119e-10
6.61837e-10
6.68513e-10
3.78754e-10
6.8433e-20
4.36907e-15
3.29205e-14
2.7466e-12
9.32275e-13
9.48965e-13
1.48057e-12
1.37043e-12
1.21271e-05
2.84088e-05
2.24439e-05
2.74903e-15
2.74389e-15
2.74221e-15
3.22818e-11
2.88332e-11
2.57776e-11
1.00296e-11
3.41346e-13
3.458e-13
3.12695e-13
9.3632e-13
8.52395e-12
1.91678e-11
1.33561e-11
1.62519e-11
3.20589e-07
3.11935e-06
2.45415e-06
4.07843e-11
8.20666e-10
2.7504e-15
1.17739e-14
3.82179e-12
2.79585e-12
1.95188e-12
1.43775e-12
9.55297e-13
6.23418e-13
3.98075e-13
2.10867e-13
1.16845e-13
8.91042e-14
8.91968e-14
4.69137e-09
4.26489e-08
4.42988e-14
1.89439e-12
1.56058e-10
1.71494e-09
2.6896e-14
1.38665e-14
1.51223e-12
9.96794e-13
7.49994e-13
5.67988e-13
3.63819e-13
2.67159e-13
2.18472e-13
1.79926e-13
1.4995e-13
1.37001e-13
4.94659e-12
1.99376e-10
5.33214e-10
2.7141e-12
4.40485e-14
4.39381e-14
5.04033e-14
4.48251e-14
1.41118e-14
6.9673e-13
5.56163e-13
4.80044e-13
3.74497e-13
2.57412e-13
1.81055e-13
1.44221e-13
1.19767e-13
1.03655e-13
9.29308e-14
9.36825e-14
6.98247e-13
7.54437e-12
6.37636e-14
6.11733e-14
5.87964e-14
5.49969e-14
4.49125e-14
1.30859e-14
5.32344e-13
4.24603e-13
3.29556e-13
2.50816e-13
1.86423e-13
1.29211e-13
1.01793e-13
8.13931e-14
6.54088e-14
4.81427e-14
4.46637e-14
4.47963e-14
4.73515e-14
4.98876e-14
5.17226e-14
5.03378e-14
4.98527e-14
4.15358e-14
1.21157e-14
3.97406e-13
2.78497e-13
1.91498e-13
1.45629e-13
1.06974e-13
7.6451e-14
5.84054e-14
4.37677e-14
3.06225e-14
2.57878e-14
2.52544e-14
2.56979e-14
2.74031e-14
3.07264e-14
3.29885e-14
3.61291e-14
4.09702e-14
3.34636e-14
1.09997e-14
4.33043e-13
2.73965e-13
1.58225e-13
9.84492e-14
6.58233e-14
4.50232e-14
3.12473e-14
2.26803e-14
1.75081e-14
1.65362e-14
1.5562e-14
1.4954e-14
1.59438e-14
1.80641e-14
2.09131e-14
2.56877e-14
3.27486e-14
2.43404e-14
9.82547e-15
9.56367e-13
5.42913e-13
2.40736e-13
1.25851e-13
6.70329e-14
3.98652e-14
2.34613e-14
1.51503e-14
1.2343e-14
1.17304e-14
1.03525e-14
9.29632e-15
9.18577e-15
1.03823e-14
1.32646e-14
1.70469e-14
2.58965e-14
1.92684e-14
8.78994e-15
2.11552e-12
1.00489e-12
4.8101e-13
1.94326e-13
9.6652e-14
5.08151e-14
2.63683e-14
1.405e-14
9.17923e-15
7.78658e-15
6.61128e-15
5.42966e-15
5.00725e-15
5.59561e-15
8.15666e-15
1.26661e-14
1.96031e-14
1.64365e-14
7.51217e-15
2.44207e-12
1.3503e-12
6.77076e-13
2.97764e-13
1.41553e-13
7.00331e-14
3.26951e-14
1.51202e-14
8.01588e-15
5.08378e-15
3.75354e-15
2.98999e-15
2.73812e-15
3.08768e-15
4.8956e-15
8.74735e-15
1.48302e-14
1.35759e-14
6.53763e-15
1.65441e-12
9.48392e-13
5.06079e-13
3.14212e-13
1.55633e-13
7.56663e-14
3.53565e-14
1.61048e-14
7.51748e-15
3.82285e-15
2.30014e-15
1.59362e-15
1.43454e-15
1.72743e-15
3.02566e-15
5.83034e-15
8.325e-15
1.02661e-14
5.405e-15
9.35274e-13
6.30861e-13
4.40383e-13
2.58718e-13
1.35562e-13
6.93462e-14
3.33732e-14
1.51392e-14
6.75148e-15
3.11642e-15
1.56245e-15
8.24799e-16
7.34358e-16
9.61873e-16
1.85418e-15
2.59747e-15
4.6077e-15
7.97484e-15
4.37474e-15
6.00157e-13
4.54299e-13
3.13835e-13
1.98193e-13
1.03831e-13
5.43126e-14
2.65095e-14
1.21443e-14
5.30773e-15
2.32389e-15
1.07659e-15
4.24281e-16
3.6016e-16
5.0724e-16
9.78709e-16
1.67977e-15
2.96168e-15
5.60455e-15
3.41216e-15
3.65874e-13
2.6476e-13
1.8293e-13
1.19151e-13
6.75053e-14
3.60566e-14
1.77662e-14
8.09978e-15
3.47914e-15
1.48967e-15
6.27405e-16
2.03823e-16
1.55178e-16
1.59809e-16
4.34165e-16
1.14098e-15
2.04574e-15
3.22755e-15
2.15119e-15
1.90861e-13
1.37723e-13
9.48513e-14
6.13675e-14
3.55455e-14
1.91173e-14
9.46855e-15
4.32094e-15
1.84948e-15
8.23398e-16
2.62324e-16
5.11587e-17
2.80273e-17
8.12356e-17
2.98037e-16
7.83872e-16
1.38611e-15
1.84403e-15
1.39148e-15
8.63798e-14
6.2819e-14
4.26324e-14
2.681e-14
1.52827e-14
8.1326e-15
4.0391e-15
1.86194e-15
8.16886e-16
3.58828e-16
5.06421e-17
5.62946e-18
1.04185e-17
5.00967e-17
1.92159e-16
5.04672e-16
8.93805e-16
1.07435e-15
8.39953e-16
3.49045e-14
2.4451e-14
1.58104e-14
9.51338e-15
5.32272e-15
2.78281e-15
1.35962e-15
6.28774e-16
3.01656e-16
4.97611e-17
2.73097e-18
1.21778e-18
5.44208e-18
3.0227e-17
1.15278e-16
3.03402e-16
5.49285e-16
6.01344e-16
4.36841e-16
1.12806e-14
7.76091e-15
4.90105e-15
2.84226e-15
1.51643e-15
7.53208e-16
3.57283e-16
1.81931e-16
3.51014e-17
2.26376e-18
1.79237e-19
3.87368e-19
3.05527e-18
1.69685e-17
6.52297e-17
1.71973e-16
3.08204e-16
3.35079e-16
1.83568e-16
3.25388e-15
2.08608e-15
1.21759e-15
6.49534e-16
3.20947e-16
1.51658e-16
7.84544e-17
1.63431e-17
1.07171e-18
5.10579e-20
5.35386e-20
1.98686e-19
1.64312e-18
8.94738e-18
3.4654e-17
9.06827e-17
1.62164e-16
1.76135e-16
8.42384e-17
7.14546e-16
4.30417e-16
2.3743e-16
1.18871e-16
5.62263e-17
2.86206e-17
5.5133e-18
2.87647e-19
1.59565e-20
2.01565e-20
3.74201e-20
1.27605e-19
8.53337e-19
4.47024e-18
1.72651e-17
4.50363e-17
8.0069e-17
8.15888e-17
3.82454e-17
1.28718e-16
6.89105e-17
3.37305e-17
1.61529e-17
7.16138e-18
9.13913e-19
2.69836e-20
5.7255e-21
9.19726e-21
1.79882e-20
3.83626e-20
1.04921e-19
4.63232e-19
2.16214e-18
8.08216e-18
2.04012e-17
3.77835e-17
3.74309e-17
1.53461e-17
1.61177e-17
7.70969e-18
4.05339e-18
1.2788e-18
1.1193e-19
3.13101e-21
2.31579e-21
4.26827e-21
9.39358e-21
2.08616e-20
4.5161e-20
1.04323e-19
3.0442e-19
1.0752e-18
3.65947e-18
8.93668e-18
1.74814e-17
1.93248e-17
7.3135e-18
1.68306e-18
8.4875e-19
2.07867e-19
1.58303e-20
7.68027e-22
9.87396e-22
2.11001e-21
4.9573e-21
1.14841e-20
2.56439e-20
5.43984e-20
1.13026e-19
2.5352e-19
6.31147e-19
1.75897e-18
3.74137e-18
8.89224e-18
7.54134e-18
3.09205e-18
1.33936e-19
2.99506e-20
1.30199e-21
2.21455e-22
4.04078e-22
9.69573e-22
2.40153e-21
5.80584e-21
1.36254e-20
3.02541e-20
6.35677e-20
1.25266e-19
2.40826e-19
4.73744e-19
9.74484e-19
2.11961e-18
4.60466e-18
3.7974e-18
1.25278e-18
4.0387e-21
8.89927e-23
5.56292e-23
1.38026e-22
3.90957e-22
1.03795e-21
2.63113e-21
6.44811e-21
1.52103e-20
3.35372e-20
7.03453e-20
1.34325e-19
2.36259e-19
3.95404e-19
6.8151e-19
1.50068e-18
1.82338e-18
1.33173e-18
4.39978e-19
4.77412e-24
1.04513e-23
4.30825e-23
1.35109e-22
3.77065e-22
1.04293e-21
2.66392e-21
6.63906e-21
1.5903e-20
3.53955e-20
7.18499e-20
1.33664e-19
2.16727e-19
3.37538e-19
5.81944e-19
9.17557e-19
9.32379e-19
5.30119e-19
1.48157e-19
1.55328e-24
1.00049e-23
3.7952e-23
1.18814e-22
3.42388e-22
9.72711e-22
2.5548e-21
6.37253e-21
1.49009e-20
3.25842e-20
6.67533e-20
1.20492e-19
1.84469e-19
2.95031e-19
4.40885e-19
5.42543e-19
4.44747e-19
2.15664e-19
6.05234e-20
1.43499e-24
8.11755e-24
3.0107e-23
9.57297e-23
2.95346e-22
8.32383e-22
2.1995e-21
5.49385e-21
1.29094e-20
2.81724e-20
5.65209e-20
1.00046e-19
1.54896e-19
2.27642e-19
2.77391e-19
2.86385e-19
1.97174e-19
8.08127e-20
2.4969e-20
1.19603e-24
6.03449e-24
2.24536e-23
7.59121e-23
2.31259e-22
6.5337e-22
1.71316e-21
4.22385e-21
9.74847e-21
2.102e-20
4.09512e-20
7.01797e-20
1.05728e-19
1.45869e-19
1.45284e-19
1.13784e-19
5.95e-20
2.77851e-20
1.05938e-20
9.52553e-25
4.37378e-24
1.61831e-23
5.43882e-23
1.6272e-22
4.54393e-22
1.16862e-21
2.7901e-21
6.23259e-21
1.30728e-20
2.45077e-20
4.0218e-20
5.76464e-20
7.0612e-20
6.09493e-20
3.82584e-20
1.86972e-20
9.53958e-21
4.50663e-21
6.75547e-25
2.78372e-24
1.03673e-23
3.29303e-23
9.80608e-23
2.63935e-22
6.60563e-22
1.52389e-21
3.27805e-21
6.60793e-21
1.19029e-20
1.85797e-20
2.44764e-20
2.74774e-20
2.05149e-20
1.13175e-20
5.13879e-21
3.15512e-21
2.03406e-21
4.09717e-25
1.52872e-24
5.24782e-24
1.59506e-23
4.33862e-23
1.10391e-22
2.67994e-22
6.06911e-22
1.2598e-21
2.41294e-21
4.13802e-21
6.20386e-21
7.39729e-21
7.60423e-21
5.00303e-21
3.15267e-21
1.48475e-21
9.22086e-22
9.80584e-22
1.86417e-25
6.31087e-25
1.97827e-24
5.64187e-24
1.49442e-23
3.72e-23
8.51553e-23
1.89973e-22
3.83636e-22
7.01152e-22
1.12238e-21
1.56393e-21
1.77017e-21
1.60131e-21
9.79134e-22
6.4937e-22
2.61662e-22
2.87066e-22
2.80746e-22
4.75785e-26
1.43107e-25
4.15537e-25
1.10508e-24
2.73808e-24
6.67985e-24
1.44289e-23
2.87917e-23
5.84617e-23
1.02844e-22
1.57858e-22
2.06662e-22
2.16906e-22
1.56657e-22
9.37056e-23
6.9731e-23
5.57119e-23
2.55008e-23
2.8655e-23
)
;

boundaryField
{
    leftWall
    {
        type            alphaContactAngle;
        contactAngleProperties 
        {
            air             
            {
                theta0          90;
            }
            water           
            {
                theta0          90;
            }
            oil             
            {
                theta0          90;
            }
        }
        value           nonuniform List<scalar> 
50
(
1
1
1
1
1
1
0.953001
0.353186
1.33095e-09
1.46961e-09
3.57737e-09
3.35637e-09
2.24914e-09
1.18986e-09
7.29251e-10
5.08759e-10
3.58891e-10
1.92537e-10
5.93745e-11
1.27726e-11
1.18175e-11
1.05514e-11
4.79244e-12
1.10175e-12
5.45033e-13
2.08205e-13
6.33459e-14
1.5754e-14
3.17606e-15
5.95897e-16
1.04886e-16
1.65451e-17
2.28146e-18
2.78659e-19
3.18704e-20
3.50371e-21
3.51597e-22
3.07461e-23
2.34699e-24
1.55553e-25
8.64882e-27
3.8709e-28
1.46829e-29
3.90537e-31
1.30047e-32
2.9561e-34
-5.76286e-36
-1.4054e-36
-1.30063e-37
-9.11754e-39
)
;
    }
    rightWall
    {
        type            alphaContactAngle;
        contactAngleProperties 
        {
            air             
            {
                theta0          90;
            }
            water           
            {
                theta0          90;
            }
            oil             
            {
                theta0          90;
            }
        }
        value           nonuniform List<scalar> 
50
(
0.690085
0.680617
0.603894
0.430394
0.314884
0.222416
0.0649774
0.0299333
0.0222294
0.00630334
0.00644697
0.00614591
0.00111776
0.000227038
1.27786e-09
2.74221e-15
1.17739e-14
1.38665e-14
1.41118e-14
1.30859e-14
1.21157e-14
1.09997e-14
9.82547e-15
8.78994e-15
7.51217e-15
6.53763e-15
5.405e-15
4.37474e-15
3.41216e-15
2.15119e-15
1.39148e-15
8.39953e-16
4.36841e-16
1.83568e-16
8.42384e-17
3.82454e-17
1.53461e-17
7.3135e-18
3.09205e-18
1.25278e-18
4.39978e-19
1.48157e-19
6.05234e-20
2.4969e-20
1.05938e-20
4.50663e-21
2.03406e-21
9.80584e-22
2.80746e-22
2.8655e-23
)
;
    }
    lowerWall
    {
        type            alphaContactAngle;
        contactAngleProperties 
        {
            air             
            {
                theta0          90;
            }
            water           
            {
                theta0          90;
            }
            oil             
            {
                theta0          90;
            }
        }
        value           nonuniform List<scalar> 
62
(
1
1
1
1
1
1
1
1
1
1
1
1
1
1
1
1
1
1
1
1
0.999946
0.999473
0.999432
0.999432
0.999432
0.999811
0.999969
0.979376
0.359879
0.00786528
0.0199689
0.000168297
0.000176425
0.0029633
0.0262627
0.0686916
0.0665533
0.0692987
0.199106
0.201712
0.0908414
-0.000653309
0.00508011
0.0686916
0.0871802
0.0910261
0.471495
0.87429
0.874237
0.841713
0.522359
0.449679
0.453108
0.445695
0.450541
0.690134
0.690138
0.690135
0.690139
0.690122
0.69013
0.690085
)
;
    }
    atmosphere
    {
        type            inletOutlet;
        inletValue      uniform 0;
        value           nonuniform List<scalar> 
46
(
-9.11754e-39
-1.08039e-38
2.30561e-37
3.65833e-35
9.41374e-34
1.35889e-32
1.779e-31
1.19105e-30
5.42736e-30
1.16299e-29
2.38714e-29
5.04342e-29
8.72154e-29
1.42087e-28
2.03134e-28
2.24302e-28
2.28379e-28
1.46391e-28
5.60161e-29
1.06981e-29
6.45657e-30
2.92306e-29
1.97198e-28
8.24715e-28
0
0
0
0
0
0
0
0
0
0
0
0
0
0
0
0
0
0
0
0
0
0
)
;
    }
    defaultFaces
    {
        type            empty;
    }
}


// ************************************************************************* //
