/*--------------------------------*- C++ -*----------------------------------*\
  =========                 |
  \\      /  F ield         | OpenFOAM: The Open Source CFD Toolbox
   \\    /   O peration     | Website:  https://openfoam.org
    \\  /    A nd           | Version:  13
     \\/     M anipulation  |
\*---------------------------------------------------------------------------*/
FoamFile
{
    format      ascii;
    class       volScalarField;
    location    "1.2";
    object      epsilon;
}
// * * * * * * * * * * * * * * * * * * * * * * * * * * * * * * * * * * * * * //

dimensions      [0 2 -3 0 0 0 0];

internalField   nonuniform List<scalar> 
2268
(
0.0120014
0.0341019
0.0619615
0.0906883
0.11906
0.149336
0.184244
0.228414
0.282127
0.34316
0.408253
0.472773
0.531547
0.579914
0.614006
0.630622
0.627033
0.600233
0.546688
0.462803
0.345193
0.195533
0.0381898
0.0181444
0.0255432
0.0352364
0.0460612
0.05844
0.0736803
0.0931892
0.118467
0.149291
0.18395
0.22001
0.254551
0.284808
0.30868
0.324781
0.332219
0.330292
0.31814
0.294431
0.25722
0.204481
0.136958
0.0679201
0.0286063
0.0309764
0.0368155
0.0439843
0.0531202
0.065441
0.082089
0.103835
0.130235
0.159747
0.190194
0.219138
0.2444
0.264427
0.278278
0.285413
0.285425
0.277781
0.261597
0.235608
0.198458
0.150672
0.115179
0.0381733
0.0373755
0.0414408
0.0471251
0.0550836
0.0664605
0.082262
0.102945
0.12791
0.155635
0.1841
0.211139
0.234869
0.253976
0.267685
0.275564
0.277308
0.272539
0.260662
0.241018
0.213024
0.177887
0.170205
0.0471784
0.0437557
0.0469801
0.0521213
0.0597463
0.0709203
0.0865822
0.107006
0.131479
0.158471
0.186094
0.212412
0.235752
0.254934
0.26924
0.27826
0.281734
0.279393
0.270887
0.256253
0.236116
0.2138
0.240185
0.0571941
0.0504272
0.0532937
0.058523
0.0663521
0.0777144
0.0935443
0.114017
0.138343
0.164994
0.192227
0.218332
0.241798
0.261523
0.276787
0.287169
0.292429
0.292374
0.28683
0.276671
0.264377
0.25834
0.348509
0.0703117
0.0581514
0.0607196
0.0665005
0.0749637
0.0867596
0.102875
0.123476
0.147755
0.174188
0.201155
0.227183
0.250944
0.271384
0.287744
0.299527
0.306494
0.308535
0.305547
0.299203
0.294213
0.309068
0.533565
0.0883087
0.0677422
0.0697368
0.0764158
0.0859018
0.0983084
0.114692
0.135347
0.159532
0.185698
0.212317
0.237988
0.261618
0.282273
0.299224
0.311962
0.320251
0.324048
0.32331
0.320001
0.320157
0.353498
0.838493
0.263165
0.419981
0.521444
0.624309
0.750583
0.832148
0.825283
0.809376
0.841777
0.912715
0.934586
0.832123
0.609628
0.510654
0.482643
0.404581
0.303017
0.21149
0.0872228
0.227366
0.309758
0.336338
0.350268
0.352096
0.354329
0.350306
0.348212
0.355999
0.369802
0.373546
0.354242
0.305798
0.267325
0.246508
0.225834
0.193991
0.146142
0.108412
0.31415
0.29236
0.286974
0.283854
0.280657
0.278485
0.276307
0.275971
0.279404
0.283983
0.284737
0.276986
0.25867
0.236591
0.219406
0.204704
0.183381
0.152692
0.164457
0.378221
0.29933
0.279754
0.264319
0.25896
0.258508
0.259133
0.259801
0.260534
0.261188
0.261462
0.258244
0.248739
0.23347
0.217544
0.203696
0.183701
0.164062
0.221688
0.416525
0.310981
0.288489
0.265637
0.257854
0.257949
0.259708
0.259967
0.258951
0.258542
0.259216
0.258406
0.250242
0.235289
0.219251
0.204985
0.186535
0.174949
0.269478
0.430596
0.315554
0.298169
0.27449
0.265193
0.263681
0.263925
0.262411
0.260589
0.260622
0.263366
0.26531
0.256858
0.238696
0.221413
0.206688
0.190443
0.184759
0.301183
0.4297
0.320626
0.300206
0.281064
0.272118
0.268472
0.266999
0.264513
0.262198
0.261622
0.264353
0.266723
0.258573
0.240261
0.222736
0.20804
0.194364
0.193352
0.325574
0.448147
0.329762
0.301463
0.284366
0.276258
0.272072
0.269782
0.267211
0.265017
0.263911
0.264504
0.263982
0.255334
0.239115
0.222138
0.207587
0.196213
0.199776
0.34673
0.113616
0.0822969
0.0840886
0.0930097
0.105087
0.119378
0.13675
0.157693
0.181552
0.206768
0.232122
0.256608
0.279353
0.299503
0.31646
0.329871
0.339591
0.34573
0.348647
0.350097
0.354162
0.37628
0.491796
0.16747
0.110716
0.111011
0.123775
0.140686
0.158954
0.177881
0.197899
0.219446
0.242234
0.265241
0.287687
0.308883
0.328111
0.34477
0.358494
0.369181
0.376985
0.383131
0.389359
0.395207
0.406514
0.445812
0.227945
0.142135
0.145258
0.162904
0.184206
0.205459
0.225395
0.24444
0.263417
0.283491
0.3041
0.32454
0.344066
0.361956
0.377566
0.39038
0.400431
0.407282
0.411822
0.414955
0.415909
0.417336
0.428381
0.292208
0.180723
0.185907
0.207367
0.231481
0.254003
0.273892
0.29194
0.309277
0.327024
0.345339
0.363463
0.380624
0.396064
0.409086
0.418657
0.424872
0.426942
0.425811
0.423092
0.418682
0.413597
0.412532
0.370423
0.227858
0.231791
0.254459
0.27916
0.301293
0.320269
0.337232
0.353209
0.369036
0.384809
0.399818
0.413305
0.424384
0.432501
0.436437
0.436775
0.434223
0.429331
0.422938
0.415172
0.407033
0.401194
0.472279
0.284523
0.282976
0.303623
0.326413
0.346533
0.363685
0.379004
0.393125
0.406422
0.41862
0.429101
0.437367
0.442677
0.445069
0.4444
0.441121
0.435876
0.428931
0.420705
0.411621
0.402585
0.395318
0.598872
0.349983
0.339415
0.354964
0.373298
0.389677
0.403782
0.416231
0.42716
0.436573
0.44414
0.449568
0.452815
0.453668
0.452256
0.448717
0.443359
0.436582
0.428618
0.419809
0.410623
0.401812
0.394648
0.74469
0.422754
0.400932
0.408212
0.419286
0.429908
0.439403
0.447677
0.454486
0.459695
0.463177
0.464778
0.464509
0.462352
0.458467
0.453062
0.446412
0.438809
0.430489
0.421768
0.413116
0.405196
0.399007
0.877829
0.498788
0.467609
0.462737
0.463004
0.465851
0.469883
0.473854
0.476947
0.478769
0.479166
0.478022
0.475329
0.471162
0.465693
0.459132
0.451731
0.443767
0.435535
0.427354
0.419651
0.413138
0.408593
0.962973
0.578023
0.542458
0.516632
0.502637
0.497099
0.495781
0.495888
0.495959
0.495293
0.493515
0.490554
0.486366
0.48103
0.474712
0.467598
0.459924
0.452014
0.44431
0.437144
0.430791
0.426325
0.424279
1.04173
0.676571
0.627236
0.564877
0.537234
0.523582
0.517271
0.514188
0.512136
0.509912
0.506876
0.502921
0.498023
0.492279
0.485851
0.47882
0.471364
0.463904
0.457193
0.451741
0.447351
0.446115
0.448034
1.22264
0.813594
0.670145
0.602708
0.566577
0.544899
0.534177
0.52888
0.525773
0.522942
0.519545
0.515369
0.510489
0.505086
0.499464
0.493324
0.486586
0.479776
0.474001
0.469524
0.465168
0.463126
0.46308
1.46602
0.801513
0.663666
0.625706
0.590404
0.559764
0.545733
0.53954
0.536418
0.533782
0.530721
0.5269
0.52226
0.516962
0.511032
0.504316
0.496806
0.48879
0.481496
0.474463
0.467724
0.462114
0.456831
1.43919
0.705073
0.611168
0.603777
0.583359
0.563558
0.551007
0.544043
0.540059
0.536889
0.533562
0.52949
0.524334
0.518171
0.510859
0.502738
0.493973
0.485058
0.476804
0.469227
0.461858
0.454201
0.445753
1.272
0.61197
0.550115
0.554567
0.554943
0.553357
0.549614
0.544716
0.540145
0.535669
0.530865
0.52545
0.519357
0.512717
0.505549
0.497858
0.489675
0.481316
0.473189
0.465214
0.456843
0.447601
0.437427
1.0932
0.542032
0.497699
0.509636
0.523924
0.533847
0.538025
0.537942
0.535653
0.532105
0.52763
0.522387
0.516522
0.510208
0.503521
0.49645
0.48898
0.481192
0.473109
0.464529
0.455121
0.444755
0.433559
0.92419
0.475574
0.446042
0.463682
0.486477
0.5053
0.517566
0.524033
0.526421
0.526037
0.523712
0.519992
0.515262
0.509829
0.503867
0.497417
0.49049
0.482993
0.474718
0.465496
0.455229
0.444005
0.432051
0.771154
0.410165
0.393417
0.415615
0.443458
0.46849
0.487868
0.501137
0.509257
0.513418
0.514599
0.51354
0.510853
0.506977
0.50217
0.496563
0.490201
0.482945
0.474541
0.46486
0.454002
0.442194
0.429708
0.626947
0.346177
0.339848
0.365262
0.396164
0.425241
0.449663
0.468535
0.482104
0.49111
0.496375
0.498672
0.498685
0.496951
0.49382
0.489474
0.483966
0.477177
0.468931
0.459214
0.448218
0.436246
0.423596
0.496539
0.286212
0.287492
0.314198
0.346041
0.376979
0.40438
0.427093
0.444897
0.458109
0.467289
0.473063
0.476047
0.47678
0.475657
0.472917
0.468635
0.46276
0.45521
0.446051
0.435537
0.423996
0.411737
0.385945
0.233178
0.239028
0.264979
0.295687
0.326315
0.354528
0.379092
0.399491
0.415705
0.428007
0.436817
0.442604
0.445821
0.446843
0.445925
0.443198
0.438684
0.432396
0.424447
0.415095
0.404666
0.39346
0.30012
0.189141
0.196564
0.220038
0.247926
0.276414
0.303505
0.328
0.349241
0.366978
0.381244
0.392245
0.400285
0.405694
0.408777
0.409768
0.408821
0.406021
0.401445
0.395237
0.387639
0.378943
0.369421
0.238639
0.154473
0.161136
0.181022
0.20503
0.230181
0.254733
0.277615
0.298151
0.315976
0.33096
0.343141
0.352667
0.359741
0.364581
0.367373
0.368262
0.367358
0.364767
0.36064
0.355188
0.348659
0.341292
0.193143
0.127125
0.13244
0.148667
0.168563
0.189761
0.21094
0.231202
0.249926
0.266719
0.281365
0.293779
0.303995
0.312114
0.318266
0.322576
0.325161
0.326119
0.325558
0.323612
0.320458
0.316293
0.311303
0.159796
0.105869
0.109656
0.122534
0.13863
0.156052
0.173763
0.191051
0.207403
0.222464
0.236008
0.247915
0.258147
0.266723
0.2737
0.279148
0.283139
0.285745
0.287047
0.287143
0.286158
0.284233
0.281498
0.135977
0.0897656
0.0919885
0.10195
0.114743
0.128827
0.143378
0.15783
0.171773
0.184911
0.197042
0.208041
0.217843
0.226426
0.233795
0.239974
0.244992
0.248887
0.251699
0.253486
0.254321
0.254289
0.253475
0.119504
0.0779201
0.0786271
0.0861188
0.0961443
0.107416
0.119265
0.131242
0.143016
0.154343
0.165051
0.175024
0.184187
0.192499
0.199936
0.206488
0.21215
0.216926
0.220822
0.223857
0.226061
0.227475
0.228144
0.108483
0.0694214
0.0687327
0.0741852
0.0819527
0.0909212
0.100541
0.110449
0.120377
0.130122
0.139537
0.148514
0.156978
0.164874
0.172161
0.178808
0.184787
0.190073
0.194648
0.1985
0.20163
0.204045
0.205765
0.101304
0.063396
0.0614863
0.0652973
0.0712634
0.0783868
0.0862027
0.0944145
0.102804
0.111202
0.11948
0.12754
0.135304
0.142711
0.149708
0.15625
0.162291
0.167791
0.172713
0.177026
0.180709
0.183751
0.186153
0.0966846
0.0590924
0.0561635
0.0586852
0.0632425
0.068911
0.0752849
0.0821179
0.0892309
0.0964844
0.103766
0.110985
0.118066
0.124942
0.131555
0.137849
0.143769
0.149264
0.154285
0.158791
0.162747
0.166131
0.168932
0.0936764
0.055938
0.0521904
0.0537199
0.0571915
0.0617255
0.0669555
0.0726714
0.0787255
0.0850014
0.0914032
0.0978487
0.104266
0.110588
0.116753
0.122701
0.128371
0.133707
0.138653
0.143162
0.147194
0.150717
0.153718
0.0916425
0.0535449
0.0491572
0.0499325
0.0525735
0.0562264
0.0605506
0.0653616
0.0705347
0.075973
0.081595
0.0873284
0.0931066
0.0988664
0.104546
0.110084
0.11542
0.120494
0.12525
0.129638
0.133613
0.137141
0.140202
0.0901914
0.0516781
0.0467967
0.0469988
0.0490026
0.0519685
0.0555722
0.0596466
0.064084
0.068803
0.0737344
0.0788159
0.0839881
0.0891929
0.0943723
0.0994678
0.104421
0.109174
0.113671
0.117861
0.1217
0.12515
0.128189
0.0891066
0.0502084
0.0449455
0.0447064
0.0462144
0.0486376
0.0516617
0.0551313
0.0589509
0.0630508
0.0673725
0.0718626
0.0764697
0.0811423
0.0858283
0.0904746
0.0950274
0.0994328
0.103638
0.107595
0.111256
0.114586
0.11756
0.0882746
0.0490691
0.043507
0.0429194
0.0440321
0.0460176
0.0485677
0.0515346
0.0548318
0.0583981
0.0621836
0.0661431
0.0702327
0.0744085
0.0786252
0.0828369
0.0869963
0.0910558
0.0949677
0.0986852
0.102163
0.105361
0.10826
0.0876385
0.0482242
0.0424214
0.0415488
0.0423367
0.0439603
0.0461154
0.0486596
0.0515121
0.0546185
0.0579354
0.0614248
0.0650496
0.0687733
0.0725584
0.0763668
0.0801593
0.0838963
0.0875366
0.091038
0.0943564
0.0974476
0.100283
0.0871569
0.0476486
0.041646
0.0405315
0.0410439
0.0423615
0.0441826
0.0463683
0.048842
0.0515537
0.0544656
0.057545
0.0607614
0.064085
0.067486
0.0709347
0.0744013
0.0778555
0.0812656
0.0845961
0.087805
0.0908432
0.0936615
0.086786
0.0473163
0.0411427
0.0398157
0.040089
0.0411443
0.0426816
0.0445641
0.0467176
0.0490956
0.0516639
0.0543944
0.0572618
0.0602427
0.0633143
0.0664557
0.0696471
0.0728699
0.0761048
0.0793276
0.0825021
0.0855738
0.0884629
0.086456
0.0471949
0.0408702
0.0393522
0.0394167
0.0402485
0.0415481
0.0431792
0.0450692
0.0471732
0.0494598
0.0519043
0.0544858
0.0571857
0.0599882
0.0628803
0.065853
0.0689014
0.0720231
0.0752128
0.0784501
0.0816793
0.0847855
0.0860664
0.0472464
0.0407798
0.0390891
0.0389757
0.0396242
0.0407339
0.0421673
0.043852
0.0457439
0.0478134
0.050038
0.0523999
0.0548848
0.057482
0.0601861
0.0629983
0.0659288
0.0689969
0.0722263
0.0756302
0.0791785
0.0827438
0.0854936
0.0474105
0.0408023
0.0389646
0.0387134
0.0392274
0.0402016
0.0414967
0.0430392
0.0447855
0.0467066
0.0487815
0.0509944
0.0533337
0.0557928
0.0583716
0.06108
0.0639421
0.067
0.0703147
0.0739571
0.0779829
0.0823919
0.084733
0.0475008
0.0408263
0.0389051
0.0385779
0.0390201
0.0399238
0.0411479
0.0426182
0.0442911
0.0461378
0.048138
0.0502768
0.0525439
0.0549345
0.0574515
0.0601095
0.0629408
0.0660029
0.0693864
0.0732231
0.0777206
0.0833864
1.01461
0.714034
0.676001
0.756077
0.52577
0.527241
0.542391
0.563532
0.448881
0.457692
0.465402
0.467891
0.416559
0.419212
0.421427
0.4217
0.399729
0.399469
0.399671
0.399924
0.392217
0.391021
0.390627
0.390967
0.391384
0.390054
0.389589
0.390033
0.396326
0.395283
0.395044
0.39568
0.407029
0.406623
0.406938
0.408079
0.424469
0.425658
0.427793
0.430018
0.44843
0.449445
0.451241
0.451914
0.460646
0.458496
0.456539
0.454973
0.451106
0.44687
0.442481
0.438222
0.437867
0.432557
0.427216
0.421907
0.428603
0.422866
0.417125
0.411381
0.424195
0.418166
0.412149
0.406147
0.422246
0.415949
0.409678
0.403448
0.419592
0.413096
0.40663
0.400216
0.413448
0.40692
0.400415
0.393959
0.401979
0.395684
0.389393
0.383138
0.384583
0.378827
0.373048
0.367282
0.361866
0.356925
0.351928
0.346913
0.335377
0.331434
0.327399
0.323304
0.307127
0.304253
0.301262
0.298174
0.278967
0.277136
0.275168
0.273075
0.25235
0.251438
0.250374
0.249174
0.228121
0.227946
0.227615
0.227144
0.206536
0.206903
0.207123
0.207197
0.187456
0.188198
0.188798
0.189254
0.170567
0.171547
0.172394
0.173103
0.155542
0.15666
0.157655
0.158522
0.14212
0.143307
0.144382
0.14534
0.130132
0.131342
0.132452
0.133454
0.11949
0.120695
0.121809
0.122827
0.110159
0.111347
0.112452
0.113468
0.102156
0.103327
0.10442
0.105429
0.0955347
0.0967018
0.097792
0.0987984
0.0903888
0.0915811
0.0926895
0.0937063
0.0868648
0.0881363
0.0893012
0.0903497
0.0851895
0.0866492
0.0879365
0.0890416
0.085784
0.0876804
0.0891839
0.0903309
0.0900415
0.0927397
0.0943076
0.0951992
0.420361
0.339933
0.307745
0.291304
0.283143
0.278294
0.275295
0.272882
0.270895
0.26932
0.267764
0.264074
0.254108
0.238472
0.221553
0.206125
0.195836
0.204077
0.359865
0.444545
0.36226
0.326193
0.308886
0.299669
0.293746
0.290045
0.287479
0.285304
0.283149
0.280354
0.274809
0.263668
0.247657
0.229447
0.210367
0.194822
0.198966
0.32649
0.436558
0.382785
0.350418
0.3327
0.321947
0.314947
0.310469
0.307257
0.304544
0.302041
0.299117
0.293871
0.283854
0.268621
0.248367
0.22276
0.196093
0.186551
0.253254
0.414826
0.391354
0.371508
0.357749
0.347772
0.340404
0.334854
0.330442
0.326752
0.323876
0.321693
0.319342
0.314005
0.301807
0.277771
0.240223
0.197086
0.173192
0.203579
0.399402
0.393213
0.385355
0.378178
0.371737
0.365971
0.360567
0.355645
0.351432
0.348673
0.348218
0.352763
0.357138
0.348907
0.315235
0.254876
0.19374
0.159376
0.164682
0.392389
0.394148
0.394368
0.39331
0.39124
0.388522
0.385311
0.381903
0.378855
0.37796
0.380513
0.402751
0.428253
0.411985
0.346035
0.261812
0.195965
0.165332
0.183076
0.392097
0.397188
0.402152
0.405961
0.408384
0.410074
0.4115
0.411529
0.411098
0.415568
0.419285
0.433929
0.436419
0.38562
0.334245
0.271971
0.21579
0.198231
0.260016
0.398035
0.404728
0.41308
0.421901
0.430038
0.437577
0.446379
0.447702
0.448538
0.440388
0.418741
0.397533
0.382889
0.359712
0.331916
0.284048
0.242042
0.240278
0.344341
0.411391
0.420689
0.4332
0.448892
0.462479
0.470973
0.47753
0.465638
0.445641
0.410669
0.380844
0.364878
0.354361
0.336852
0.31142
0.28119
0.260563
0.266453
0.40313
0.435055
0.448347
0.461526
0.474213
0.474501
0.472342
0.461474
0.435677
0.403173
0.372969
0.352235
0.344145
0.341707
0.33027
0.307533
0.283986
0.271751
0.282147
0.439694
0.454964
0.461246
0.463594
0.463547
0.452384
0.435336
0.41497
0.390404
0.365059
0.344403
0.331778
0.328913
0.330314
0.322787
0.304431
0.285911
0.276865
0.289388
0.459594
0.452678
0.447559
0.438431
0.427353
0.41178
0.393872
0.375406
0.356554
0.339021
0.32526
0.317344
0.315576
0.315291
0.308672
0.295528
0.282442
0.276604
0.292761
0.475822
0.431953
0.421719
0.409268
0.395717
0.380726
0.365378
0.350454
0.336168
0.323364
0.313215
0.306695
0.303323
0.300169
0.293607
0.283856
0.274871
0.272791
0.294538
0.492832
0.413845
0.401665
0.388679
0.375483
0.362183
0.3492
0.336773
0.325023
0.314378
0.305387
0.298387
0.292852
0.287249
0.280178
0.272232
0.266304
0.268113
0.295991
0.511065
0.402616
0.389932
0.377181
0.364686
0.352531
0.340816
0.32954
0.318738
0.308613
0.299424
0.291278
0.283858
0.276535
0.269026
0.262233
0.258684
0.264008
0.297678
0.530401
0.397001
0.38409
0.371431
0.359198
0.347395
0.335984
0.324894
0.3141
0.303701
0.293841
0.284588
0.275857
0.26755
0.259936
0.254103
0.252492
0.260821
0.299652
0.550317
0.393924
0.380668
0.367786
0.355365
0.343365
0.331721
0.320347
0.309198
0.29833
0.287845
0.277843
0.26841
0.259738
0.25236
0.247463
0.247497
0.258387
0.30209
0.570878
0.390322
0.376656
0.363409
0.350623
0.338255
0.326268
0.314561
0.303092
0.291901
0.281086
0.270782
0.261179
0.252616
0.245746
0.2418
0.243268
0.256261
0.303754
0.588886
0.383861
0.369962
0.356494
0.343478
0.330937
0.318801
0.306983
0.295453
0.284248
0.27347
0.263286
0.253937
0.245821
0.239648
0.236657
0.239309
0.253843
0.304112
0.602212
0.373176
0.359477
0.346184
0.333364
0.321038
0.309121
0.297549
0.286306
0.275435
0.265042
0.255325
0.246548
0.239126
0.233746
0.231618
0.235191
0.250781
0.302823
0.609887
0.357906
0.344999
0.332442
0.320368
0.308713
0.29742
0.286476
0.27587
0.265662
0.255969
0.246978
0.238957
0.232319
0.227727
0.226351
0.23061
0.246821
0.299696
0.611459
0.33857
0.327043
0.315862
0.305017
0.294467
0.284191
0.274189
0.264491
0.255173
0.24636
0.238234
0.23106
0.225231
0.221379
0.220632
0.225353
0.241796
0.294626
0.606788
0.316388
0.306815
0.297396
0.288101
0.278932
0.269907
0.261058
0.252442
0.244151
0.236316
0.229117
0.222807
0.217759
0.214568
0.214313
0.219285
0.235605
0.287589
0.595985
0.292862
0.285474
0.277967
0.270365
0.26271
0.255052
0.247452
0.239992
0.232778
0.225943
0.219666
0.214185
0.209848
0.207216
0.207312
0.212333
0.228211
0.278622
0.579323
0.269401
0.26409
0.258441
0.252506
0.246352
0.240055
0.233698
0.22738
0.221215
0.215341
0.209929
0.205201
0.201482
0.199293
0.199597
0.204484
0.219634
0.267832
0.557284
0.246967
0.243473
0.23948
0.235057
0.230283
0.225246
0.220044
0.214786
0.209589
0.204591
0.199952
0.19588
0.192672
0.190808
0.191186
0.195772
0.209949
0.255381
0.530446
0.226125
0.22411
0.221498
0.218359
0.214775
0.210841
0.206658
0.202335
0.197992
0.193759
0.189786
0.186263
0.183456
0.181806
0.182139
0.186284
0.199285
0.241499
0.499586
0.207076
0.206198
0.204673
0.202571
0.19997
0.196958
0.193636
0.19011
0.186493
0.182907
0.179488
0.176406
0.1739
0.172366
0.172555
0.17615
0.187821
0.226465
0.46553
0.189773
0.18973
0.18903
0.187736
0.185916
0.183651
0.181035
0.178166
0.175148
0.172093
0.169122
0.166386
0.164094
0.162596
0.162568
0.165539
0.175779
0.210626
0.429311
0.174056
0.174607
0.174514
0.173832
0.172619
0.170944
0.168893
0.166553
0.164019
0.161389
0.158773
0.156299
0.154151
0.152635
0.152348
0.154659
0.16343
0.194377
0.39197
0.159756
0.160716
0.161061
0.160833
0.16008
0.158863
0.157252
0.155329
0.153177
0.150883
0.148541
0.146266
0.144214
0.142648
0.142092
0.143756
0.151086
0.178176
0.354771
0.146743
0.147977
0.148629
0.148731
0.14832
0.147447
0.146175
0.144573
0.142716
0.140682
0.138554
0.13643
0.134447
0.132831
0.132032
0.13311
0.139107
0.162537
0.31896
0.13495
0.136359
0.137218
0.137552
0.137387
0.136767
0.135745
0.134386
0.132754
0.130921
0.128962
0.126963
0.125046
0.123406
0.122431
0.12304
0.127895
0.148044
0.286004
0.124364
0.125876
0.126868
0.127354
0.127357
0.126913
0.126072
0.124891
0.123432
0.121758
0.119941
0.118061
0.11623
0.114623
0.113581
0.113899
0.117902
0.135332
0.257303
0.115015
0.116582
0.117649
0.118226
0.118332
0.118004
0.117287
0.116238
0.114913
0.113375
0.111692
0.109945
0.108243
0.106757
0.105796
0.106069
0.109619
0.125104
0.234424
0.106973
0.10856
0.109657
0.110274
0.110433
0.110173
0.109541
0.108591
0.107381
0.105972
0.104434
0.102851
0.101341
0.100086
0.0993978
0.0999418
0.10357
0.118122
0.218829
0.100337
0.101922
0.103012
0.103627
0.103798
0.103572
0.102999
0.102136
0.101039
0.0997696
0.0983994
0.0970234
0.0957782
0.0948764
0.0946782
0.0958857
0.100295
0.115271
0.212316
0.0952488
0.0968092
0.0978553
0.0984296
0.0985827
0.0983704
0.0978497
0.0970762
0.0961057
0.094999
0.0938309
0.0927069
0.0917901
0.0913497
0.0918521
0.0941731
0.100321
0.117719
0.217455
0.0919062
0.0934066
0.0943624
0.094859
0.0949718
0.094768
0.0943068
0.0936418
0.0928248
0.0919129
0.0909809
0.0901414
0.0895843
0.0896506
0.0909801
0.0948366
0.104014
0.127309
0.240012
0.0906002
0.0919624
0.0927599
0.09314
0.0932016
0.0930157
0.0926372
0.092112
0.0914835
0.0908005
0.0901299
0.0895806
0.0893522
0.0898402
0.0918804
0.0973595
0.110958
0.146948
0.296827
0.0917687
0.0928203
0.0933615
0.0935894
0.0936025
0.0934589
0.0931982
0.092852
0.0924495
0.0920248
0.0916267
0.0913392
0.0913287
0.091959
0.0941114
0.100177
0.117747
0.177647
0.462467
0.0960314
0.0964569
0.0966323
0.0966904
0.096676
0.0966106
0.096508
0.0963795
0.0962359
0.0960903
0.0959619
0.0958847
0.0959286
0.0962593
0.0973371
0.100732
0.113523
0.188327
1.33366
)
;

boundaryField
{
    leftWall
    {
        type            epsilonWallFunction;
        value           nonuniform List<scalar> 
50
(
0.0120014
0.0181444
0.0286063
0.0381733
0.0471784
0.0571941
0.0703117
0.0883087
0.113616
0.16747
0.227945
0.292208
0.370423
0.472279
0.598872
0.74469
0.877829
0.962973
1.04173
1.22264
1.46602
1.43919
1.272
1.0932
0.92419
0.771154
0.626947
0.496539
0.385945
0.30012
0.238639
0.193143
0.159796
0.135977
0.119504
0.108483
0.101304
0.0966846
0.0936764
0.0916425
0.0901914
0.0891066
0.0882746
0.0876385
0.0871569
0.086786
0.086456
0.0860664
0.0854936
0.084733
)
;
    }
    rightWall
    {
        type            epsilonWallFunction;
        value           nonuniform List<scalar> 
50
(
0.0872228
0.108412
0.164457
0.221688
0.269478
0.301183
0.325574
0.34673
0.359865
0.32649
0.253254
0.203579
0.164682
0.183076
0.260016
0.344341
0.40313
0.439694
0.459594
0.475822
0.492832
0.511065
0.530401
0.550317
0.570878
0.588886
0.602212
0.609887
0.611459
0.606788
0.595985
0.579323
0.557284
0.530446
0.499586
0.46553
0.429311
0.39197
0.354771
0.31896
0.286004
0.257303
0.234424
0.218829
0.212316
0.217455
0.240012
0.296827
0.462467
1.33366
)
;
    }
    lowerWall
    {
        type            epsilonWallFunction;
        value           nonuniform List<scalar> 
62
(
0.0120014
0.0341019
0.0619615
0.0906883
0.11906
0.149336
0.184244
0.228414
0.282127
0.34316
0.408253
0.472773
0.531547
0.579914
0.614006
0.630622
0.627033
0.600233
0.546688
0.462803
0.345193
0.195533
0.0381898
0.0381898
0.0679201
0.115179
0.170205
0.240185
0.348509
0.533565
0.838493
1.01461
0.714034
0.676001
0.756077
0.263165
0.227366
0.31415
0.378221
0.416525
0.430596
0.4297
0.448147
0.263165
0.419981
0.521444
0.624309
0.750583
0.832148
0.825283
0.809376
0.841777
0.912715
0.934586
0.832123
0.609628
0.510654
0.482643
0.404581
0.303017
0.21149
0.0872228
)
;
    }
    atmosphere
    {
        type            inletOutlet;
        inletValue      uniform 0.1;
        value           nonuniform List<scalar> 
46
(
0.084733
0.0475008
0.0408263
0.0389051
0.0385779
0.0390201
0.0399238
0.0411479
0.0426182
0.0442911
0.0461378
0.048138
0.0502768
0.0525439
0.0549345
0.0574515
0.0601095
0.0629408
0.0660029
0.0693864
0.0732231
0.0777206
0.0833864
0.1
0.1
0.1
0.1
0.1
0.1
0.1
0.1
0.1
0.1
0.1
0.1
0.1
0.1
0.1
0.1
0.1
0.1
0.1
0.1
0.1
0.1
0.1
)
;
    }
    defaultFaces
    {
        type            empty;
    }
}


// ************************************************************************* //
