/*--------------------------------*- C++ -*----------------------------------*\
  =========                 |
  \\      /  F ield         | OpenFOAM: The Open Source CFD Toolbox
   \\    /   O peration     | Website:  https://openfoam.org
    \\  /    A nd           | Version:  13
     \\/     M anipulation  |
\*---------------------------------------------------------------------------*/
FoamFile
{
    format      ascii;
    class       volScalarField;
    location    "1.2";
    object      p;
}
// * * * * * * * * * * * * * * * * * * * * * * * * * * * * * * * * * * * * * //

dimensions      [1 -1 -2 0 0 0 0];

internalField   nonuniform List<scalar> 
2268
(
6922.49
6978.31
7015.12
7013.07
6962.55
6866.49
6733.17
6569.6
6385.26
6187.09
5980.68
5772.12
5568.69
5378.37
5207.72
5060.03
4935.59
4833.25
4752.38
4693.81
4658.73
4646.19
4655.09
6103.88
6160.56
6198.31
6196.65
6150.81
6062.65
5938.33
5784.97
5608.55
5416.71
5213.88
5005.57
4799.43
4604.55
4428.71
4276.01
4147.24
4041.68
3958.86
3899.19
3863.67
3852.63
3863.22
5282.46
5342.04
5381.72
5382.21
5341.98
5262.52
5147.82
5002.66
4833.3
4647.55
4448.33
4240.35
4031.53
3832.07
3651.14
3493.54
3360.48
3251.43
3166.02
3104.64
3069.56
3062.84
3067.67
4453.53
4525.07
4571.4
4577.53
4543.27
4471.22
4363.98
4224.12
4058.23
3876.05
3678.4
3469.39
3257.09
3052.83
2867.11
2705.16
2568.13
2455.23
2365.84
2300.5
2266.22
2267
2266.95
3612.54
3703.02
3760.55
3777.21
3751.08
3686.69
3586.25
3450.03
3284.35
3101.98
2901.12
2686.47
2464.96
2251.09
2058.02
1891.06
1753.01
1644.59
1558.4
1493.91
1462.08
1465.45
1464.28
2755
2870.35
2944.41
2977.13
2962.37
2907.44
2814.9
2681.87
2512.24
2320.04
2098.43
1862.21
1653.48
1477.22
1332.96
1217.03
1126.13
1056.58
999.743
956.673
924.289
901.012
890.434
1904.42
2041.96
2139.5
2192.39
2189.14
2142.84
2056.68
1918.87
1729.48
1544.2
1372.41
1220.76
1112.68
1034.51
975.267
927.839
887.628
850.315
816.383
789.561
754.795
709.654
691.607
1322.14
1410.93
1483.14
1529.51
1522.27
1463.23
1373.99
1273
1156.56
1067.88
1015.42
983.719
953.228
920.922
887.74
853.659
819.025
783.986
750.848
723.935
685.072
645.037
629.091
2091.25
1911.38
1823.19
1981.18
2426.53
2742.45
2696.75
2592.25
2627.26
2661.28
2577.86
2357.13
2162.68
2156.73
2161.56
2147.58
2181.63
2330.22
2480.61
1999.69
1781.43
1695.77
1646.53
1768.64
1964.77
1922.02
1921.1
1965.85
1981.93
1923.63
1773.96
1617.48
1611.15
1610.7
1612.19
1637.48
1743.48
1907.45
1849.8
1564.09
1546.47
1488.06
1406.55
1320.07
1189.75
1157.69
1191.35
1202.64
1194.7
1174.5
1217.89
1228.05
1223.06
1232.39
1242.62
1239.83
1399.77
1577.39
1221.66
1231.52
1161.68
1043.12
857.703
781.356
767.937
764.24
745.3
756.714
799.824
931.825
987.478
993.196
993.806
1001.48
903.03
1007.44
1194.46
906.623
854.83
785.961
711.497
660.7
673.292
676.74
652.436
619.662
611.239
618.181
643.902
693.975
714.154
712.079
727.069
657.946
727.708
887.974
748.273
674.38
603.439
581.283
595.085
613.094
616.869
605.318
589.437
564.517
538.375
513.526
499.579
490.332
480.046
488.512
468.061
520.015
754.672
669.725
607.449
553.898
536.33
542.133
553.45
551.633
539.591
533.473
522.996
505.563
483.519
435.042
402.246
387.333
382.907
370.426
390.132
696.151
611.121
556.728
510.669
492.224
491.97
495.703
490.534
478.792
470.88
460.372
443.267
420.503
382.19
355.74
341.371
333.76
320.356
327.02
1081.93
1097.68
1106.67
1109.68
1088.23
1038.16
982.569
945.245
922.62
905.043
887.997
868.997
846.021
819.347
789.953
758.247
724.814
689.705
654.615
620.463
589.211
561.116
542.41
939.979
933.405
915.832
892.611
869.836
851.128
835.593
818.702
801.251
783.421
765.008
744.301
720.338
693.424
664.124
631.828
598.854
567.045
538.596
515.974
500.644
487.912
483.332
804.707
799.638
789.448
772.957
753.667
734.129
715.441
697.247
679.07
660.432
640.648
618.713
594.459
566.959
539.628
512.783
488.551
472.719
461.28
450.841
437.584
426.786
421.331
678.689
674.314
665.848
651.27
633.141
613.732
594.268
575.028
555.716
536.274
515.739
492.994
471.066
450.22
431.987
420.465
411.901
405.242
397.867
387.298
375.411
364.733
355.943
560.54
556.523
548.201
533.716
515.177
494.677
473.79
453.578
433.024
413.643
396.607
381.039
369.119
362.746
357.74
353.803
349.414
341.671
332.779
322.921
311.958
301.015
290.398
448.985
443.935
434.934
419.697
400.07
377.816
355.877
337.317
321.811
310.636
304.575
301.997
300.639
299.5
297.356
291.813
285.392
277.439
268.512
258.623
247.813
236.556
224.943
343.577
336.111
326.339
310.585
290.013
269.228
254.267
246.171
243.518
242.803
243.081
243.47
242.898
239.919
235.571
229.738
222.856
214.474
205.073
194.856
183.8
172.12
159.758
244.607
235.035
225.095
208.949
194.852
187.775
185.863
186.088
187.354
188.034
187.153
185.553
182.989
179.658
175.257
169.276
161.79
152.853
143.02
132.463
120.734
108.276
96.1068
153.038
144.045
132.915
125.82
126.869
129.414
131.543
132.027
131.095
130.417
128.915
127.094
124.539
121.003
116.317
110.168
102.186
92.5842
82.2408
71.0785
58.012
46.2774
38.5401
75.4251
68.2538
57.2529
67.4912
74.2267
75.787
76.5516
76.1815
75.1817
74.258
72.9123
71.0548
68.272
64.3636
59.2464
52.8586
45.3789
36.9881
29.2608
22.3692
14.8398
9.91987
8.26913
29.6113
16.5236
15.5533
25.0357
30.9566
31.0337
30.3112
29.1422
28.3987
27.8832
26.7049
25.7007
23.8628
21.1975
17.9074
14.3644
10.7443
7.5505
5.4591
4.40907
4.08737
4.12464
4.30247
2.85302
3.78403
4.07196
4.60265
6.03202
6.24685
5.77232
5.15855
5.24236
5.3827
5.19032
4.80395
4.35952
3.89897
3.56395
3.50955
3.59819
3.7413
3.89423
3.96145
3.97498
4.0004
4.08056
3.06405
3.07805
3.07796
3.16085
3.26742
3.14015
3.09303
3.09099
3.07727
3.08499
3.12009
3.17279
3.25813
3.36515
3.43548
3.47075
3.51128
3.57987
3.65986
3.73173
3.78988
3.84537
3.91724
3.05419
3.07442
3.06273
3.05344
3.06774
3.06997
3.07545
3.08514
3.09608
3.11003
3.12909
3.15344
3.1881
3.23199
3.27483
3.31543
3.36304
3.42392
3.49162
3.5613
3.62621
3.69113
3.76205
3.00134
2.99089
2.98288
2.97872
2.98093
2.97921
2.97837
2.98107
2.98738
2.99813
3.01413
3.03729
3.06967
3.10572
3.14474
3.18566
3.2342
3.28995
3.35098
3.41407
3.47719
3.53911
3.6061
2.92223
2.90222
2.89157
2.88752
2.88528
2.8814
2.88006
2.88265
2.88923
2.90045
2.91675
2.93795
2.96546
2.99847
3.03363
3.07312
3.11617
3.16427
3.21735
3.27326
3.33043
3.38877
3.45268
2.82798
2.80848
2.79692
2.79106
2.78775
2.78509
2.78509
2.78849
2.79536
2.80622
2.82132
2.84015
2.86224
2.88932
2.92139
2.95795
2.99699
3.03985
3.08617
3.13595
3.18834
3.24313
3.30401
2.72404
2.7075
2.6975
2.69209
2.68917
2.68786
2.68883
2.69252
2.69924
2.70928
2.72286
2.73982
2.75956
2.78196
2.80874
2.84019
2.87654
2.91579
2.95812
3.00313
3.05092
3.10179
3.15903
2.61433
2.60194
2.59428
2.58995
2.58789
2.58762
2.58937
2.59345
2.60012
2.60956
2.62189
2.63721
2.65537
2.67639
2.70015
2.72715
2.75808
2.79343
2.83221
2.87328
2.91696
2.96388
3.01728
2.50253
2.49431
2.48906
2.48593
2.4847
2.48521
2.48757
2.49197
2.49859
2.50758
2.51905
2.53307
2.54967
2.56889
2.59087
2.61568
2.64336
2.67438
2.70867
2.74578
2.78558
2.82877
2.87833
2.39074
2.38599
2.38289
2.3809
2.38039
2.38146
2.38421
2.38878
2.39528
2.40386
2.4146
2.42757
2.44281
2.46037
2.48034
2.50285
2.52803
2.55598
2.58673
2.62014
2.65642
2.69613
2.74209
2.27982
2.27749
2.27618
2.2752
2.27531
2.27679
2.27976
2.28436
2.29068
2.29882
2.30887
2.32089
2.33493
2.35102
2.36923
2.38966
2.41246
2.43777
2.46561
2.49598
2.52912
2.56565
2.60823
2.16942
2.16925
2.16912
2.16898
2.16961
2.17137
2.17445
2.17899
2.18506
2.19276
2.20215
2.21328
2.22621
2.24098
2.25763
2.27626
2.29699
2.31997
2.34529
2.37299
2.40332
2.43686
2.47625
2.05967
2.06081
2.06164
2.06221
2.06328
2.06525
2.06838
2.0728
2.07859
2.08584
2.09459
2.1049
2.11682
2.13037
2.14561
2.16263
2.18153
2.20245
2.22552
2.25082
2.27862
2.30944
2.34562
1.95019
1.95213
1.95362
1.95478
1.95621
1.95838
1.96152
1.96579
1.97128
1.97808
1.98623
1.99577
2.00675
2.0192
2.03317
2.04873
2.06598
2.08506
2.1061
2.12921
2.15465
2.18293
2.21616
1.84069
1.84308
1.84501
1.84659
1.84833
1.85064
1.85377
1.85789
1.86309
1.86945
1.87703
1.88586
1.89598
1.90742
1.92022
1.93445
1.9502
1.9676
1.9868
2.0079
2.03115
2.05705
2.08751
1.73097
1.73356
1.73575
1.73763
1.73958
1.74199
1.74509
1.74904
1.75396
1.75991
1.76696
1.77512
1.78444
1.79494
1.80667
1.81968
1.83406
1.84993
1.86743
1.88667
1.90789
1.93155
1.9594
1.62089
1.62353
1.62586
1.62792
1.63
1.63245
1.63549
1.63927
1.64391
1.64947
1.656
1.66354
1.67212
1.68175
1.69249
1.70437
1.71749
1.73194
1.74787
1.76537
1.78469
1.80622
1.8316
1.51042
1.513
1.51536
1.51752
1.51966
1.5221
1.52505
1.52865
1.533
1.53818
1.54422
1.55118
1.55905
1.56788
1.57769
1.58852
1.60045
1.61359
1.62804
1.64392
1.66144
1.68098
1.70402
1.39957
1.402
1.40434
1.40651
1.40867
1.41106
1.4139
1.4173
1.42137
1.42617
1.43174
1.43813
1.44534
1.4534
1.46233
1.47218
1.483
1.49489
1.50795
1.52229
1.53811
1.55575
1.57657
1.28838
1.29062
1.29286
1.295
1.29712
1.29945
1.30215
1.30534
1.30912
1.31355
1.31868
1.32451
1.33109
1.33841
1.34651
1.35541
1.36517
1.37588
1.38762
1.4005
1.41469
1.43051
1.44922
1.17689
1.17891
1.18103
1.18309
1.18514
1.18736
1.18991
1.1929
1.19639
1.20046
1.20513
1.21044
1.2164
1.22301
1.2303
1.2383
1.24705
1.25662
1.2671
1.27857
1.29121
1.30529
1.32194
1.06515
1.06695
1.0689
1.07085
1.0728
1.07491
1.0773
1.08006
1.08326
1.08696
1.0912
1.09599
1.10135
1.10728
1.11379
1.12091
1.12869
1.13717
1.14644
1.15657
1.16771
1.18012
1.1948
0.953219
0.954788
0.956564
0.958372
0.960198
0.962164
0.964372
0.966899
0.96981
0.973151
0.976952
0.981233
0.986003
0.991266
0.997032
1.00332
1.01015
1.0176
1.02571
1.03455
1.04427
1.05507
1.06786
0.841116
0.842479
0.844069
0.845718
0.847395
0.849197
0.851205
0.853486
0.856094
0.859069
0.862439
0.866218
0.870415
0.875031
0.880072
0.88555
0.891492
0.897942
0.904953
0.912576
0.920935
0.930221
0.941199
0.728886
0.730062
0.731467
0.732941
0.734448
0.736061
0.737849
0.739867
0.74216
0.744763
0.7477
0.750984
0.754619
0.758607
0.76295
0.767656
0.772745
0.778255
0.784226
0.790703
0.797783
0.805628
0.814878
0.616555
0.617572
0.6188
0.620089
0.621403
0.622803
0.624348
0.626083
0.628047
0.630269
0.632771
0.635562
0.638646
0.642024
0.645696
0.649666
0.65395
0.658577
0.663577
0.668982
0.674876
0.681381
0.689018
0.504166
0.505053
0.506114
0.507206
0.508305
0.509467
0.510744
0.512176
0.513794
0.515626
0.517687
0.519988
0.52253
0.525315
0.528341
0.531612
0.535137
0.538939
0.543038
0.547462
0.552264
0.557549
0.563706
0.391766
0.392556
0.39346
0.39434
0.395197
0.396095
0.397079
0.398187
0.399445
0.400875
0.402491
0.404303
0.406311
0.408517
0.410921
0.413524
0.416334
0.419366
0.422636
0.426158
0.429978
0.434164
0.439017
0.279433
0.280142
0.280867
0.281485
0.282051
0.282643
0.283303
0.284063
0.284944
0.285965
0.287137
0.288467
0.289959
0.291614
0.293432
0.295418
0.297577
0.299922
0.302464
0.305211
0.308165
0.311403
0.315227
0.167239
0.167776
0.168196
0.168433
0.168619
0.168838
0.169126
0.169507
0.169997
0.17061
0.171355
0.172238
0.173263
0.174434
0.175756
0.177235
0.178882
0.180709
0.182734
0.184947
0.187322
0.189905
0.193282
0.0549508
0.0552476
0.0552785
0.0551492
0.0550036
0.0549036
0.054871
0.0549184
0.0550547
0.0552861
0.0556169
0.0560507
0.0565911
0.0572425
0.0580105
0.0589035
0.0599347
0.061128
0.0625182
0.0641623
0.0662388
0.0691504
0.0731997
525.44
520.288
511.775
492.535
477.566
475.777
478.51
480.409
415.059
412.011
411.111
409.5
348.794
344.123
340.087
336.864
282.191
276.61
270.977
265.659
215.93
209.848
203.622
197.359
149.685
143.058
136.436
129.81
85.5727
78.0184
70.9402
64.6069
30.6568
23.5114
18.9218
17.442
6.94808
5.43206
4.82272
4.70294
4.52072
4.60949
4.64064
4.6586
4.18445
4.26059
4.32492
4.37575
4.01014
4.08739
4.16167
4.21902
3.85069
3.92661
4.00389
4.06571
3.69046
3.76524
3.84315
3.90701
3.53508
3.60869
3.68557
3.74895
3.38355
3.45475
3.52939
3.59125
3.23466
3.30257
3.37406
3.43383
3.0883
3.15231
3.22025
3.27747
2.94457
3.00443
3.06836
3.12276
2.80358
2.85921
2.91909
2.97041
2.66525
2.71678
2.77247
2.82055
2.52889
2.57648
2.62825
2.67325
2.39415
2.43804
2.48593
2.52786
2.26078
2.30117
2.34542
2.38432
2.1285
2.16562
2.20633
2.24229
1.99698
2.03102
2.06845
2.10154
1.86595
1.89711
1.93138
1.96174
1.7353
1.76373
1.79504
1.82277
1.60496
1.63079
1.65923
1.68442
1.4748
1.49814
1.52386
1.54661
1.34481
1.36572
1.38878
1.40921
1.21501
1.23356
1.2541
1.27228
1.08552
1.10179
1.11981
1.13582
0.956379
0.970413
0.986038
0.999938
0.827659
0.839528
0.852789
0.864661
0.699489
0.709259
0.720258
0.730143
0.572017
0.579783
0.588538
0.596459
0.445342
0.451192
0.457767
0.463707
0.319741
0.32367
0.327934
0.331794
0.197089
0.198484
0.199066
0.20036
0.0796973
0.0801925
0.0749286
0.071641
583.966
520.893
483.584
444.24
422.925
413.835
408.975
400.973
390.026
378.508
363.348
344.069
324.076
305.337
291.653
282.364
272.895
261.443
259.772
484.21
431.924
396.419
360.477
334.956
317.673
303.939
291.421
279.131
266.169
252.592
241.695
233.357
226.137
219.891
214.469
205.949
192.429
187.989
402.925
365.084
331.283
297.137
269.284
246.475
227
210.842
196.822
185.433
176.973
170.53
164.331
158.139
153.967
151.66
146.754
135.374
135.77
330.612
301.746
271.392
240.778
213.781
190.484
170.277
152.609
137.514
125.218
113.379
101.944
91.2775
84.5277
84.2675
88.7526
90.9564
86.6693
86.945
256.632
233.164
207.778
181.344
156.374
133.597
113.289
95.4524
79.4006
64.5303
48.5883
34.7001
27.1434
23.5269
24.8286
33.7944
39.5874
40.9382
39.1728
186.348
165.513
142.943
119.357
96.6961
75.8254
57.5874
42.156
28.8503
19.1652
10.7637
6.25211
6.12214
6.42885
7.32044
9.20513
10.769
10.948
10.074
118.249
98.8545
78.4575
57.9962
39.9632
27.1433
18.4735
11.9436
6.43705
5.69768
5.73362
5.68117
5.67941
5.78638
5.91013
5.88041
5.62333
5.44676
5.30893
53.8302
38.6252
25.9064
15.9899
10.724
6.97523
4.98689
5.20719
5.45405
5.45892
5.433
5.5014
5.5223
5.58282
5.6449
5.41859
5.27583
5.25216
5.23558
14.3089
9.06768
6.09806
4.77772
4.68029
5.13061
5.20793
5.17884
5.21795
5.26712
5.28896
5.30455
5.29199
5.251
5.19495
5.10892
5.10227
5.09428
5.08107
4.52744
4.45251
4.68449
4.95283
4.9999
5.00181
5.01367
5.01692
5.03555
5.06068
5.0716
5.0805
5.06926
5.01237
4.96616
4.95821
4.95584
4.94709
4.93995
4.654
4.65506
4.70392
4.75121
4.7723
4.80289
4.83069
4.84704
4.86016
4.86424
4.87497
4.88959
4.89008
4.86229
4.83476
4.81853
4.80953
4.80106
4.79605
4.44361
4.47956
4.52377
4.56793
4.60273
4.6394
4.66762
4.68652
4.69925
4.70785
4.71787
4.72737
4.72587
4.70886
4.68794
4.67281
4.6626
4.65431
4.64984
4.27984
4.32076
4.36517
4.40966
4.44665
4.47941
4.50555
4.52493
4.53923
4.54937
4.55817
4.56417
4.56249
4.55105
4.5362
4.52362
4.51373
4.50585
4.50172
4.13087
4.17296
4.21394
4.25332
4.28741
4.31717
4.34182
4.36129
4.37624
4.38722
4.39541
4.4001
4.39907
4.39173
4.3814
4.37135
4.36259
4.35554
4.352
3.97543
4.01898
4.05781
4.09383
4.12572
4.1537
4.17739
4.19671
4.21194
4.22339
4.23155
4.23609
4.23612
4.23163
4.22449
4.21674
4.20951
4.20361
4.20103
3.81724
3.86107
3.89874
3.9329
3.96327
3.99004
4.01298
4.03202
4.04733
4.05907
4.06746
4.07237
4.0735
4.0711
4.06635
4.06064
4.05505
4.05049
4.04921
3.65826
3.70169
3.73847
3.77142
3.80072
3.82659
3.84891
3.86767
3.88297
3.89491
3.90362
3.90906
3.91124
3.91048
3.90761
3.9037
3.89978
3.89659
3.8969
3.49921
3.54193
3.57792
3.61
3.6385
3.66368
3.68548
3.70396
3.71922
3.73132
3.74035
3.74637
3.74949
3.75007
3.74873
3.74635
3.74393
3.74245
3.74419
3.34072
3.38262
3.41782
3.44921
3.47706
3.50161
3.52295
3.54116
3.55633
3.56856
3.57789
3.58443
3.58834
3.58999
3.58993
3.5889
3.58792
3.58808
3.59126
3.18365
3.22451
3.25892
3.28956
3.31673
3.34067
3.36154
3.37945
3.39449
3.40673
3.41628
3.42323
3.4278
3.43032
3.43133
3.43153
3.43193
3.43361
3.43816
3.02847
3.0682
3.10165
3.13142
3.15776
3.181
3.20132
3.21884
3.23365
3.24581
3.25546
3.26273
3.26783
3.27111
3.27306
3.27436
3.27601
3.2791
3.28486
2.87557
2.91391
2.94613
2.97479
3.00016
3.02258
3.04224
3.05926
3.07373
3.08575
3.09544
3.10295
3.1085
3.11243
3.1152
3.11747
3.12024
3.12455
3.13135
2.72507
2.76147
2.79222
2.81959
2.84386
2.86537
2.88428
2.90071
2.91479
2.92659
2.93625
2.94393
2.94984
2.95432
2.9578
2.9609
2.96462
2.96997
2.97759
2.5765
2.61082
2.63991
2.66583
2.68889
2.70938
2.72745
2.74323
2.75683
2.76835
2.77792
2.78569
2.79188
2.79681
2.80088
2.80468
2.80919
2.81536
2.82357
2.42962
2.46178
2.48907
2.51346
2.53521
2.55459
2.57175
2.5868
2.59987
2.61105
2.62045
2.62825
2.63465
2.63993
2.64448
2.64886
2.65398
2.66074
2.66929
2.28429
2.31417
2.3396
2.36237
2.38275
2.40096
2.41715
2.43143
2.44391
2.45469
2.46388
2.47164
2.47817
2.48372
2.48865
2.49347
2.49904
2.50617
2.51482
2.14022
2.16781
2.19134
2.21247
2.23143
2.24844
2.26362
2.27709
2.28895
2.29929
2.30822
2.31589
2.32248
2.32822
2.33343
2.33857
2.34442
2.3517
2.36021
1.99724
2.02253
2.04417
2.06365
2.08119
2.09698
2.11114
2.12378
2.13499
2.14486
2.1535
2.16103
2.16762
2.17347
2.17887
2.18421
2.19019
2.19743
2.2056
1.85513
1.8782
1.89797
1.91583
1.93195
1.94653
1.95967
1.97148
1.98203
1.99142
1.99973
2.00708
2.01362
2.01952
2.02502
2.03045
2.03644
2.04347
2.0511
1.71379
1.73468
1.75265
1.76892
1.78366
1.79706
1.8092
1.82018
1.83008
1.83897
1.84693
1.85408
1.86051
1.86639
1.87191
1.87736
1.88324
1.88992
1.89687
1.57307
1.59191
1.60814
1.62288
1.6363
1.64854
1.65971
1.66988
1.67913
1.68752
1.69512
1.70202
1.70831
1.71412
1.7196
1.72498
1.73066
1.73689
1.74305
1.43296
1.44983
1.46441
1.47769
1.48983
1.50097
1.51119
1.52058
1.52918
1.53707
1.54429
1.55092
1.55703
1.56271
1.56809
1.57333
1.57875
1.58445
1.58977
1.2934
1.30843
1.32144
1.33333
1.34425
1.35432
1.36363
1.37224
1.38021
1.38759
1.39442
1.40075
1.40664
1.41215
1.41738
1.42243
1.42753
1.43266
1.43712
1.15447
1.16773
1.17924
1.1898
1.19954
1.20858
1.21699
1.22484
1.23218
1.23904
1.24546
1.25147
1.2571
1.26241
1.26743
1.27224
1.27697
1.28152
1.28515
1.01616
1.02775
1.03782
1.0471
1.0557
1.06373
1.07126
1.07835
1.08504
1.09136
1.09734
1.103
1.10835
1.11341
1.11818
1.12271
1.12704
1.13099
1.13388
0.878586
0.888541
0.897215
0.905235
0.912708
0.919736
0.92638
0.932692
0.938713
0.944471
0.949982
0.955252
0.960278
0.965048
0.969542
0.973741
0.977633
0.980999
0.983234
0.741777
0.750132
0.757425
0.764198
0.770549
0.776566
0.782304
0.787811
0.793123
0.798266
0.803253
0.808082
0.812737
0.817183
0.821367
0.825219
0.828654
0.831428
0.83315
0.605819
0.612546
0.618452
0.623974
0.629194
0.63418
0.638981
0.643637
0.648183
0.652644
0.657033
0.661346
0.665564
0.669636
0.673482
0.676977
0.679957
0.682163
0.683492
0.470702
0.475769
0.480278
0.484546
0.488622
0.492556
0.49638
0.500132
0.503841
0.507534
0.511225
0.514918
0.518596
0.522212
0.525674
0.528816
0.531374
0.533026
0.534119
0.336328
0.339687
0.342812
0.345844
0.348781
0.351647
0.354462
0.357254
0.360049
0.362873
0.365745
0.368676
0.371664
0.374683
0.377665
0.380441
0.382652
0.383857
0.384863
0.202539
0.204178
0.205965
0.207805
0.209626
0.211422
0.213202
0.214985
0.216793
0.218647
0.220566
0.222565
0.224657
0.226845
0.229122
0.231406
0.233349
0.234281
0.23556
0.0693232
0.0687316
0.0690142
0.0695336
0.0701207
0.0707267
0.0713424
0.0719728
0.0726273
0.0733149
0.074044
0.0748211
0.075652
0.0765444
0.0775154
0.0785789
0.079559
0.0794169
0.0816444
)
;

boundaryField
{
    leftWall
    {
        type            calculated;
        value           nonuniform List<scalar> 
50
(
6922.49
6103.88
5282.46
4453.53
3612.54
2755
1904.42
1322.14
1081.93
939.979
804.707
678.689
560.54
448.985
343.577
244.607
153.038
75.4251
29.6113
2.85302
3.06405
3.05419
3.00134
2.92223
2.82798
2.72404
2.61433
2.50253
2.39074
2.27982
2.16942
2.05967
1.95019
1.84069
1.73097
1.62089
1.51042
1.39957
1.28838
1.17689
1.06515
0.953219
0.841116
0.728886
0.616555
0.504166
0.391766
0.279433
0.167239
0.0549508
)
;
    }
    rightWall
    {
        type            calculated;
        value           nonuniform List<scalar> 
50
(
2480.61
1907.45
1399.77
1007.44
727.708
520.015
390.132
327.02
259.772
187.989
135.77
86.945
39.1728
10.074
5.30893
5.23558
5.08107
4.93995
4.79605
4.64984
4.50172
4.352
4.20103
4.04921
3.8969
3.74419
3.59126
3.43816
3.28486
3.13135
2.97759
2.82357
2.66929
2.51482
2.36021
2.2056
2.0511
1.89687
1.74305
1.58977
1.43712
1.28515
1.13388
0.983234
0.83315
0.683492
0.534119
0.384863
0.23556
0.0816444
)
;
    }
    lowerWall
    {
        type            calculated;
        value           nonuniform List<scalar> 
62
(
7320.64
7376.46
7413.27
7411.22
7360.7
7264.64
7131.32
6967.75
6783.41
6585.24
6378.83
6170.27
5966.84
5776.52
5605.87
5458.18
5333.74
5231.4
5150.53
5091.96
5056.86
5044.14
5053.02
4655.09
3863.22
3067.67
2266.95
1464.28
890.434
691.607
629.091
556.411
551.648
539.98
541.897
2091.25
1999.69
1849.8
1577.39
1194.46
887.974
754.672
696.151
2131.99
1959.47
1872.81
2176.69
2776.49
3092.1
3033.38
2805.59
2812.76
2848.22
2761.81
2542.07
2439.73
2435.73
2441.32
2428.58
2462.22
2609.72
2759.99
)
;
    }
    atmosphere
    {
        type            calculated;
        value           nonuniform List<scalar> 
46
(
0
0
0
0
0
0
0
0
0
0
0
0
0
0
0
0
0
0
0
0
0
0
0
-5.49166e-06
-6.32594e-06
-5.93603e-06
-1.16382e-05
-3.41024e-05
-8.44727e-05
-0.0001496
-0.000221326
-0.000292091
-0.000355373
-0.000405604
-0.000438262
-0.000450111
-0.000439593
-0.000407289
-0.000356331
-0.000292588
-0.00022434
-0.000161179
-0.000112126
-8.38396e-05
-8.69438e-05
-6.90499e-05
)
;
    }
    defaultFaces
    {
        type            empty;
    }
}


// ************************************************************************* //
