/*--------------------------------*- C++ -*----------------------------------*\
  =========                 |
  \\      /  F ield         | OpenFOAM: The Open Source CFD Toolbox
   \\    /   O peration     | Website:  https://openfoam.org
    \\  /    A nd           | Version:  13
     \\/     M anipulation  |
\*---------------------------------------------------------------------------*/
FoamFile
{
    format      ascii;
    class       surfaceScalarField;
    location    "1.2";
    object      phi;
}
// * * * * * * * * * * * * * * * * * * * * * * * * * * * * * * * * * * * * * //

dimensions      [0 3 -1 0 0 0 0];

internalField   nonuniform List<scalar> 
4432
(
2.74578e-06
-2.74579e-06
5.05576e-06
-2.30999e-06
7.63805e-06
-2.5823e-06
1.0075e-05
-2.43692e-06
1.19741e-05
-1.89912e-06
1.31742e-05
-1.20014e-06
1.36371e-05
-4.62891e-07
1.33841e-05
2.53032e-07
1.25302e-05
8.53892e-07
1.12504e-05
1.27978e-06
9.73263e-06
1.51777e-06
8.15366e-06
1.57897e-06
6.65646e-06
1.49719e-06
5.34315e-06
1.31332e-06
4.27102e-06
1.07213e-06
3.45117e-06
8.19854e-07
2.86073e-06
5.90438e-07
2.44341e-06
4.17322e-07
2.11129e-06
3.32115e-07
1.8064e-06
3.04897e-07
1.56012e-06
2.46281e-07
1.35306e-06
2.07056e-07
1.35306e-06
2.49132e-06
-5.23711e-06
5.50691e-06
-5.32558e-06
8.47968e-06
-5.55507e-06
1.10754e-05
-5.03261e-06
1.30272e-05
-3.85097e-06
1.42107e-05
-2.38356e-06
1.4633e-05
-8.85229e-07
1.43468e-05
5.39196e-07
1.3473e-05
1.72767e-06
1.2192e-05
2.56087e-06
1.06772e-05
3.03257e-06
9.08908e-06
3.16706e-06
7.56313e-06
3.02314e-06
6.1974e-06
2.67904e-06
5.04623e-06
2.2233e-06
4.11938e-06
1.7467e-06
3.38605e-06
1.32376e-06
2.78259e-06
1.02078e-06
2.22365e-06
8.91047e-07
1.64814e-06
8.80411e-07
1.09929e-06
7.95125e-07
6.75689e-07
6.30662e-07
2.02875e-06
2.72135e-06
-7.95846e-06
6.05203e-06
-8.65627e-06
9.13217e-06
-8.63521e-06
1.17241e-05
-7.62452e-06
1.36362e-05
-5.76314e-06
1.47847e-05
-3.53204e-06
1.5192e-05
-1.29247e-06
1.49145e-05
8.16605e-07
1.40685e-05
2.57368e-06
1.28259e-05
3.80351e-06
1.13461e-05
4.51235e-06
9.78015e-06
4.73302e-06
8.25776e-06
4.54552e-06
6.87339e-06
4.06341e-06
5.68014e-06
3.41654e-06
4.68648e-06
2.74036e-06
3.86147e-06
2.14878e-06
3.14445e-06
1.7378e-06
2.45562e-06
1.57989e-06
1.7285e-06
1.60753e-06
9.84312e-07
1.53931e-06
3.22868e-07
1.2921e-06
2.35162e-06
3.07115e-06
-1.10296e-05
6.51859e-06
-1.21037e-05
9.62535e-06
-1.1742e-05
1.21908e-05
-1.019e-05
1.4065e-05
-7.63732e-06
1.51925e-05
-4.65957e-06
1.56113e-05
-1.7113e-06
1.53707e-05
1.05722e-06
1.45746e-05
3.36979e-06
1.33923e-05
4.98578e-06
1.19693e-05
5.93536e-06
1.04438e-05
6.25858e-06
8.9383e-06
6.05102e-06
7.54647e-06
5.45524e-06
6.32153e-06
4.64148e-06
5.27342e-06
3.78846e-06
4.37551e-06
3.04668e-06
3.57337e-06
2.53993e-06
2.79784e-06
2.35542e-06
1.97873e-06
2.42664e-06
1.10673e-06
2.41131e-06
2.05057e-07
2.19378e-06
2.55667e-06
3.37357e-06
-1.44032e-05
6.79283e-06
-1.55229e-05
9.88807e-06
-1.48372e-05
1.24407e-05
-1.27426e-05
1.43058e-05
-9.50241e-06
1.54404e-05
-5.79412e-06
1.59008e-05
-2.17171e-06
1.57309e-05
1.22712e-06
1.50171e-05
4.08353e-06
1.39237e-05
6.07925e-06
1.25769e-05
7.28214e-06
1.11114e-05
7.72413e-06
9.63949e-06
7.52288e-06
8.25435e-06
6.84038e-06
7.01085e-06
5.88497e-06
5.91645e-06
4.88286e-06
4.95289e-06
4.01024e-06
4.08431e-06
3.40851e-06
3.25564e-06
3.18408e-06
2.41194e-06
3.27033e-06
1.51794e-06
3.30531e-06
4.85643e-07
3.22607e-06
3.04232e-06
3.50555e-06
-1.79087e-05
6.80578e-06
-1.88232e-05
9.87391e-06
-1.79053e-05
1.24317e-05
-1.53004e-05
1.43179e-05
-1.13886e-05
1.549e-05
-6.96623e-06
1.60225e-05
-2.70416e-06
1.59532e-05
1.29641e-06
1.53515e-05
4.68522e-06
1.43889e-05
7.04185e-06
1.31676e-05
8.50344e-06
1.17793e-05
9.11241e-06
1.03939e-05
8.90823e-06
9.08447e-06
8.14983e-06
7.89531e-06
7.07413e-06
6.82542e-06
5.95275e-06
5.85505e-06
4.9806e-06
4.95836e-06
4.30519e-06
4.10742e-06
4.03502e-06
3.35713e-06
4.02061e-06
2.62916e-06
4.03327e-06
1.69181e-06
4.16343e-06
4.73415e-06
3.50084e-06
-2.14095e-05
6.58987e-06
-2.19122e-05
9.60915e-06
-2.09246e-05
1.21662e-05
-1.78574e-05
1.40852e-05
-1.33077e-05
1.53003e-05
-8.18128e-06
1.59156e-05
-3.31951e-06
1.59911e-05
1.22089e-06
1.5533e-05
5.1433e-06
1.47689e-05
7.80596e-06
1.38144e-05
9.45793e-06
1.26643e-05
1.02626e-05
1.14852e-05
1.00872e-05
1.03588e-05
9.27621e-06
9.34399e-06
8.08898e-06
8.46258e-06
6.83416e-06
7.67767e-06
5.7655e-06
6.88425e-06
5.09861e-06
6.12639e-06
4.79288e-06
5.8055e-06
4.3415e-06
5.58795e-06
4.25084e-06
4.87232e-06
4.87909e-06
9.60647e-06
3.56325e-06
-2.49728e-05
6.41144e-06
-2.47604e-05
9.26542e-06
-2.37786e-05
1.17428e-05
-2.03348e-05
1.36898e-05
-1.52546e-05
1.49288e-05
-9.42031e-06
1.55821e-05
-3.97284e-06
1.58755e-05
9.2757e-07
1.57037e-05
5.31502e-06
1.51362e-05
8.37352e-06
1.44389e-05
1.01552e-05
1.39142e-05
1.07873e-05
1.34833e-05
1.05182e-05
1.30627e-05
9.69673e-06
1.25765e-05
8.57526e-06
1.19617e-05
7.44889e-06
1.12254e-05
6.50185e-06
1.03295e-05
5.99449e-06
9.36292e-06
5.75947e-06
9.14002e-06
4.56441e-06
9.04649e-06
4.34439e-06
8.24122e-06
5.68437e-06
1.78477e-05
-2.93845e-05
2.93845e-05
-4.49053e-05
1.55208e-05
-5.48039e-05
9.89862e-06
-5.62636e-05
1.45972e-06
-4.97802e-05
-6.4834e-06
-4.1277e-05
-8.50318e-06
-3.53455e-05
-5.93155e-06
-3.16709e-05
-3.67452e-06
-2.70243e-05
-4.6466e-06
-1.94868e-05
-7.53755e-06
-1.02438e-05
-9.24294e-06
-4.45835e-06
-5.78548e-06
-5.26408e-06
8.05723e-07
-6.5284e-06
1.26432e-06
-5.90194e-06
-6.26456e-07
-6.91517e-06
1.01323e-06
-9.4882e-06
2.57303e-06
-7.89809e-06
-1.59011e-06
-7.89808e-06
-2.5849e-05
5.52334e-05
-3.70133e-05
2.66851e-05
-4.25063e-05
1.53917e-05
-4.36531e-05
2.6065e-06
-4.08113e-05
-9.32521e-06
-3.62863e-05
-1.30282e-05
-3.33064e-05
-8.91144e-06
-3.03511e-05
-6.62983e-06
-2.60607e-05
-8.937e-06
-2.05799e-05
-1.30183e-05
-1.46262e-05
-1.51967e-05
-9.28812e-06
-1.11236e-05
-7.41264e-06
-1.06976e-06
-6.05347e-06
-9.48489e-08
-4.63734e-06
-2.04258e-06
-4.2876e-06
6.63503e-07
-5.43344e-06
3.71887e-06
-4.96154e-06
-2.062e-06
-1.28596e-05
-2.3077e-05
7.83104e-05
-3.34203e-05
3.70284e-05
-3.56845e-05
1.7656e-05
-3.4662e-05
1.58398e-06
-3.40653e-05
-9.9219e-06
-3.29873e-05
-1.41063e-05
-3.14733e-05
-1.04254e-05
-2.88189e-05
-9.28422e-06
-2.49729e-05
-1.2783e-05
-2.07117e-05
-1.72795e-05
-1.65984e-05
-1.931e-05
-1.30689e-05
-1.4653e-05
-9.2174e-06
-4.9213e-06
-6.09587e-06
-3.21638e-06
-3.83948e-06
-4.29896e-06
-2.1618e-06
-1.01417e-06
-1.65456e-06
3.21163e-06
-1.98285e-06
-1.73372e-06
-1.48425e-05
-1.94658e-05
9.77763e-05
-2.9394e-05
4.69565e-05
-3.15598e-05
1.98218e-05
-3.07986e-05
8.22817e-07
-3.04071e-05
-1.03134e-05
-3.07209e-05
-1.37925e-05
-2.96971e-05
-1.14492e-05
-2.68275e-05
-1.21538e-05
-2.32985e-05
-1.6312e-05
-2.00912e-05
-2.04867e-05
-1.70751e-05
-2.23261e-05
-1.433e-05
-1.73981e-05
-1.02368e-05
-9.01445e-06
-6.21077e-06
-7.24241e-06
-2.94865e-06
-7.56106e-06
-2.89808e-08
-3.93384e-06
1.93275e-06
1.2499e-06
9.98308e-07
-7.9927e-07
-1.38442e-05
-1.45327e-05
0.000112309
-2.34999e-05
5.59237e-05
-2.68247e-05
2.31465e-05
-2.72215e-05
1.2196e-06
-2.74748e-05
-1.00601e-05
-2.79223e-05
-1.33449e-05
-2.61141e-05
-1.32574e-05
-2.31624e-05
-1.51055e-05
-2.03182e-05
-1.91562e-05
-1.81732e-05
-2.26317e-05
-1.59899e-05
-2.45095e-05
-1.34012e-05
-1.99868e-05
-9.88287e-06
-1.25328e-05
-5.92284e-06
-1.12024e-05
-2.58139e-06
-1.09025e-05
4.44508e-07
-6.95973e-06
3.05993e-06
-1.36553e-06
2.7355e-06
-4.74844e-07
-1.11087e-05
-9.29773e-06
0.000121607
-1.4756e-05
6.1382e-05
-1.98674e-05
2.82579e-05
-2.2521e-05
3.87321e-06
-2.34483e-05
-9.13272e-06
-2.29386e-05
-1.38546e-05
-2.10822e-05
-1.51138e-05
-1.83208e-05
-1.78669e-05
-1.53676e-05
-2.21094e-05
-1.32552e-05
-2.47441e-05
-1.24648e-05
-2.52999e-05
-1.09955e-05
-2.1456e-05
-8.07653e-06
-1.54518e-05
-4.83614e-06
-1.44428e-05
-2.14267e-06
-1.3596e-05
5.43192e-07
-9.6456e-06
3.05803e-06
-3.88037e-06
3.41671e-06
-8.33525e-07
-7.69196e-06
-3.78198e-06
0.000125389
-7.71911e-06
6.53191e-05
-1.23305e-05
3.28693e-05
-1.58386e-05
7.38129e-06
-1.78276e-05
-7.14367e-06
-1.80377e-05
-1.36445e-05
-1.65611e-05
-1.65904e-05
-1.42194e-05
-2.02086e-05
-1.16704e-05
-2.46584e-05
-9.16908e-06
-2.72455e-05
-7.28631e-06
-2.71827e-05
-5.66065e-06
-2.30817e-05
-3.6854e-06
-1.74271e-05
-2.43534e-06
-1.56929e-05
-8.7392e-07
-1.51574e-05
1.21962e-06
-1.17391e-05
3.52936e-06
-6.19012e-06
4.08329e-06
-1.38746e-06
-3.60868e-06
8.27647e-07
0.000124561
-3.0923e-06
6.92391e-05
-6.95011e-06
3.67271e-05
-1.04429e-05
1.08741e-05
-1.28288e-05
-4.75786e-06
-1.34568e-05
-1.30165e-05
-1.24262e-05
-1.7621e-05
-1.05561e-05
-2.20787e-05
-8.47681e-06
-2.67377e-05
-6.37319e-06
-2.93491e-05
-4.59546e-06
-2.89604e-05
-2.94007e-06
-2.47371e-05
-1.13013e-06
-1.9237e-05
3.66997e-09
-1.68267e-05
1.04946e-06
-1.62032e-05
2.59725e-06
-1.32869e-05
4.8002e-06
-8.39308e-06
5.35597e-06
-1.94324e-06
1.7473e-06
7.82334e-06
-3.27962e-05
1.35672e-05
-3.05043e-05
1.87983e-05
-2.90097e-05
2.36124e-05
-2.51489e-05
2.77769e-05
-1.94191e-05
3.05892e-05
-1.22326e-05
3.19836e-05
-5.36718e-06
3.29863e-05
-7.51984e-08
3.41279e-05
4.17348e-06
3.5104e-05
7.39734e-06
3.56955e-05
9.56373e-06
3.59365e-05
1.05463e-05
3.58552e-05
1.05995e-05
3.54245e-05
1.01274e-05
3.46178e-05
9.38204e-06
3.33476e-05
8.71914e-06
3.16662e-05
8.18317e-06
2.93571e-05
8.30362e-06
2.66754e-05
8.44123e-06
2.43439e-05
6.89595e-06
2.27409e-05
5.94735e-06
2.10904e-05
7.33489e-06
1.46997e-05
2.42384e-05
9.38178e-06
-4.2178e-05
1.53898e-05
-3.65123e-05
1.92525e-05
-3.28725e-05
2.23789e-05
-2.82753e-05
2.52435e-05
-2.22837e-05
2.83413e-05
-1.53304e-05
3.14252e-05
-8.45102e-06
3.38851e-05
-2.53509e-06
3.58364e-05
2.22218e-06
3.73847e-05
5.84908e-06
3.85575e-05
8.39088e-06
3.92284e-05
9.87539e-06
3.93227e-05
1.05052e-05
3.88001e-05
1.06501e-05
3.78179e-05
1.03642e-05
3.60868e-05
1.04502e-05
3.38687e-05
1.04012e-05
3.113e-05
1.10423e-05
2.76641e-05
1.19071e-05
2.22085e-05
1.23516e-05
1.64692e-05
1.16866e-05
9.50168e-06
1.43024e-05
2.09146e-05
3.28683e-06
4.81046e-06
-4.69885e-05
1.04152e-05
-4.2117e-05
1.50595e-05
-3.75168e-05
1.90328e-05
-3.22486e-05
2.26665e-05
-2.59174e-05
2.61336e-05
-1.87975e-05
2.93963e-05
-1.17138e-05
3.2255e-05
-5.39372e-06
3.45555e-05
-7.83011e-08
3.63065e-05
4.09808e-06
3.74995e-05
7.19784e-06
3.80381e-05
9.33678e-06
3.80036e-05
1.05398e-05
3.70079e-05
1.16457e-05
3.54763e-05
1.18959e-05
3.317e-05
1.27566e-05
2.95025e-05
1.40687e-05
2.52203e-05
1.53245e-05
2.00466e-05
1.70808e-05
1.47584e-05
1.76399e-05
8.40392e-06
1.80411e-05
2.01828e-06
2.06881e-05
2.61629e-05
-3.23002e-06
3.45392e-06
-5.04424e-05
7.68111e-06
-4.63442e-05
1.18449e-05
-4.16806e-05
1.57943e-05
-3.6198e-05
1.95116e-05
-2.96347e-05
2.29667e-05
-2.22526e-05
2.60693e-05
-1.48164e-05
2.87142e-05
-8.03855e-06
3.07461e-05
-2.11025e-06
3.22127e-05
2.63155e-06
3.31354e-05
6.27509e-06
3.31916e-05
9.28059e-06
3.26435e-05
1.10879e-05
3.12157e-05
1.30735e-05
2.84785e-05
1.46331e-05
2.51419e-05
1.60932e-05
2.06028e-05
1.86077e-05
1.59906e-05
1.99367e-05
1.19015e-05
2.117e-05
7.48634e-06
2.2055e-05
2.47975e-06
2.30478e-05
-2.25748e-06
2.54253e-05
2.94084e-05
-5.50297e-06
2.92413e-06
-5.33665e-05
6.03222e-06
-4.94523e-05
9.35893e-06
-4.50073e-05
1.27325e-05
-3.95716e-05
1.59302e-05
-3.28324e-05
1.87584e-05
-2.50808e-05
2.11057e-05
-1.71637e-05
2.30876e-05
-1.00204e-05
2.44382e-05
-3.46091e-06
2.51893e-05
1.88053e-06
2.55505e-05
5.91385e-06
2.51406e-05
9.69048e-06
2.36242e-05
1.26042e-05
2.15569e-05
1.51408e-05
1.83546e-05
1.78354e-05
1.48626e-05
1.95852e-05
1.1823e-05
2.16473e-05
8.63978e-06
2.312e-05
5.45838e-06
2.43514e-05
2.10754e-06
2.54058e-05
-1.43953e-06
2.65948e-05
-4.48412e-06
2.84699e-05
3.11161e-05
-6.19183e-06
2.06388e-06
-5.54304e-05
4.07777e-06
-5.14662e-05
6.37171e-06
-4.73013e-05
8.76348e-06
-4.19634e-05
1.10096e-05
-3.50785e-05
1.27894e-05
-2.68606e-05
1.39671e-05
-1.83414e-05
1.48853e-05
-1.09386e-05
1.54536e-05
-4.02918e-06
1.54469e-05
1.88724e-06
1.50008e-05
6.35992e-06
1.41362e-05
1.05551e-05
1.26083e-05
1.4132e-05
1.08099e-05
1.69392e-05
9.18339e-06
1.94619e-05
7.2231e-06
2.15455e-05
5.28067e-06
2.35897e-05
3.15537e-06
2.52453e-05
9.02578e-07
2.66042e-05
-1.44538e-06
2.77538e-05
-3.75945e-06
2.89089e-05
-5.52939e-06
3.02398e-05
3.17507e-05
-6.164e-06
5.40293e-07
-5.59707e-05
1.31037e-06
-5.22362e-05
2.17391e-06
-4.81648e-05
3.24682e-06
-4.30363e-05
4.12555e-06
-3.59572e-05
4.49123e-06
-2.72262e-05
4.48655e-06
-1.83367e-05
4.24381e-06
-1.06959e-05
4.23457e-06
-4.01993e-06
4.09446e-06
2.02736e-06
3.84315e-06
6.61123e-06
3.62922e-06
1.0769e-05
3.49317e-06
1.42681e-05
3.10576e-06
1.73266e-05
2.52759e-06
2.00401e-05
1.65908e-06
2.2414e-05
6.17623e-07
2.46312e-05
-6.47332e-07
2.65102e-05
-2.05085e-06
2.80077e-05
-3.50311e-06
2.9206e-05
-4.88526e-06
3.0291e-05
-5.77304e-06
3.11276e-05
3.16055e-05
-5.62788e-06
-1.19969e-06
-5.47711e-05
-2.16411e-06
-5.12719e-05
-3.00577e-06
-4.73231e-05
-3.99039e-06
-4.20516e-05
-5.03061e-06
-3.4917e-05
-5.908e-06
-2.63489e-05
-6.42636e-06
-1.78184e-05
-6.5284e-06
-1.05938e-05
-6.09625e-06
-4.45208e-06
-5.29711e-06
1.22822e-06
-4.53001e-06
5.84415e-06
-3.74034e-06
9.97936e-06
-3.08156e-06
1.36093e-05
-2.59949e-06
1.68446e-05
-2.33228e-06
1.97729e-05
-2.33735e-06
2.24191e-05
-2.59391e-06
2.48878e-05
-3.11858e-06
2.70349e-05
-3.79883e-06
2.86879e-05
-4.50093e-06
2.99081e-05
-5.22563e-06
3.10157e-05
-5.67177e-06
3.15737e-05
3.08805e-05
-4.94672e-06
-2.15953e-06
-5.26116e-05
-5.01166e-06
-4.84197e-05
-9.02258e-06
-4.33122e-05
-1.28443e-05
-3.823e-05
-1.51361e-05
-3.26252e-05
-1.58372e-05
-2.56478e-05
-1.54097e-05
-1.82458e-05
-1.45147e-05
-1.14888e-05
-1.35104e-05
-5.45637e-06
-1.21628e-05
-1.19462e-07
-1.07826e-05
4.46395e-06
-9.37181e-06
8.56863e-06
-8.05362e-06
1.22912e-05
-6.91258e-06
1.57036e-05
-5.9777e-06
1.88381e-05
-5.25929e-06
2.17007e-05
-4.81424e-06
2.44427e-05
-4.70398e-06
2.69246e-05
-4.79293e-06
2.87768e-05
-4.84094e-06
2.99561e-05
-5.12305e-06
3.12977e-05
-5.49281e-06
3.19434e-05
2.97577e-05
-4.37019e-06
-4.05456e-07
-5.2206e-05
-5.96157e-06
-4.28635e-05
-1.73922e-05
-3.18817e-05
-2.20366e-05
-3.35855e-05
-2.30553e-05
-3.16064e-05
-2.29695e-05
-2.57336e-05
-2.209e-05
-1.91254e-05
-2.08202e-05
-1.27586e-05
-1.9348e-05
-6.92856e-06
-1.76396e-05
-1.82785e-06
-1.57713e-05
2.59566e-06
-1.38667e-05
6.66403e-06
-1.20304e-05
1.04549e-05
-1.03737e-05
1.40469e-05
-8.95147e-06
1.74158e-05
-7.75847e-06
2.05077e-05
-6.74024e-06
2.34244e-05
-6.03472e-06
2.6219e-05
-5.55974e-06
2.83017e-05
-4.79015e-06
2.91864e-05
-4.30299e-06
3.08104e-05
-4.44467e-06
3.20849e-05
2.89614e-05
-3.64862e-06
6.91626e-06
-5.91239e-05
-1.00054e-05
-2.59415e-05
-2.81223e-05
-1.37645e-05
-2.84862e-05
-3.32216e-05
-2.86459e-05
-3.14465e-05
-2.84225e-05
-2.59569e-05
-2.74251e-05
-2.01227e-05
-2.60806e-05
-1.41031e-05
-2.43532e-05
-8.65592e-06
-2.22806e-05
-3.9004e-06
-2.014e-05
4.55047e-07
-1.78712e-05
4.39519e-06
-1.56448e-05
8.22854e-06
-1.35332e-05
1.19352e-05
-1.16331e-05
1.55158e-05
-1.00033e-05
1.88779e-05
-8.43711e-06
2.18582e-05
-7.04265e-06
2.48244e-05
-6.09823e-06
2.7357e-05
-5.92072e-06
2.90085e-05
-5.38073e-06
3.02701e-05
-3.97617e-06
3.068e-05
3.00237e-05
-5.03865e-06
2.20176e-09
-5.91271e-05
-2.17422e-05
-4.19721e-06
-2.66887e-05
-8.81801e-06
-2.99475e-05
-2.99626e-05
-3.29922e-05
-2.84013e-05
-3.32047e-05
-2.57441e-05
-3.23119e-05
-2.10151e-05
-3.11493e-05
-1.52654e-05
-2.90528e-05
-1.07524e-05
-2.6562e-05
-6.39111e-06
-2.40928e-05
-2.01414e-06
-2.16146e-05
1.91686e-06
-1.91466e-05
5.7604e-06
-1.67824e-05
9.57076e-06
-1.48668e-05
1.35999e-05
-1.34359e-05
1.74467e-05
-1.27677e-05
2.11898e-05
-1.3285e-05
2.53416e-05
-1.54674e-05
2.95393e-05
-1.93772e-05
3.2918e-05
-2.28773e-05
3.37701e-05
-2.48953e-05
3.26982e-05
3.03308e-05
-2.5202e-05
-1.27028e-05
-4.64248e-05
-1.58394e-05
-1.06124e-06
-1.9189e-05
-5.46883e-06
-2.79152e-05
-2.12358e-05
-3.48853e-05
-2.14308e-05
-3.77836e-05
-2.28455e-05
-3.77098e-05
-2.10886e-05
-3.58578e-05
-1.71173e-05
-3.36488e-05
-1.29614e-05
-3.13648e-05
-8.67511e-06
-2.92058e-05
-4.17317e-06
-2.77751e-05
4.86134e-07
-2.77587e-05
5.74375e-06
-2.9378e-05
1.11899e-05
-3.18217e-05
1.60433e-05
-3.42409e-05
1.98658e-05
-3.62249e-05
2.31737e-05
-3.74757e-05
2.65926e-05
-3.80447e-05
3.01087e-05
-3.82842e-05
3.31578e-05
-3.8639e-05
3.41253e-05
-3.89072e-05
3.29667e-05
3.03882e-05
-3.89639e-05
-1.91235e-05
-2.73011e-05
-1.82519e-05
-1.93302e-06
-2.11215e-05
-2.59931e-06
-3.05219e-05
-1.18357e-05
-3.67039e-05
-1.52492e-05
-4.13878e-05
-1.81619e-05
-4.42668e-05
-1.82098e-05
-4.57249e-05
-1.56594e-05
-4.64884e-05
-1.21979e-05
-4.69637e-05
-8.1999e-06
-4.7324e-05
-3.81286e-06
-4.79586e-05
1.1207e-06
-4.85537e-05
6.33891e-06
-4.89576e-05
1.1594e-05
-4.94407e-05
1.65265e-05
-5.01607e-05
2.05859e-05
-5.10271e-05
2.40402e-05
-5.15165e-05
2.70823e-05
-5.13761e-05
2.99686e-05
-5.05167e-05
3.22986e-05
-4.94276e-05
3.30362e-05
-4.82368e-05
3.1776e-05
2.93883e-05
-4.72364e-05
-1.72565e-05
-1.00442e-05
-2.09323e-05
1.74308e-06
-2.41443e-05
6.12825e-07
-3.11074e-05
-4.87296e-06
-3.72607e-05
-9.09621e-06
-4.28582e-05
-1.25647e-05
-4.76219e-05
-1.34463e-05
-5.12073e-05
-1.20743e-05
-5.39555e-05
-9.44984e-06
-5.61653e-05
-5.99015e-06
-5.80927e-05
-1.88552e-06
-5.95295e-05
2.55755e-06
-6.03359e-05
7.14542e-06
-6.06099e-05
1.18681e-05
-6.04541e-05
1.63707e-05
-6.02606e-05
2.03924e-05
-5.98755e-05
2.36551e-05
-5.93003e-05
2.65071e-05
-5.82595e-05
2.89278e-05
-5.6533e-05
3.05721e-05
-5.43428e-05
3.08461e-05
-5.22045e-05
2.96377e-05
2.74648e-05
-5.02807e-05
-1.39726e-05
3.92889e-06
-2.01009e-05
7.87173e-06
-2.51347e-05
5.64674e-06
-3.10185e-05
1.01084e-06
-3.68854e-05
-3.22935e-06
-4.2845e-05
-6.60516e-06
-4.82911e-05
-8.00036e-06
-5.28764e-05
-7.489e-06
-5.66726e-05
-5.65372e-06
-5.97826e-05
-2.8802e-06
-6.22177e-05
5.49621e-07
-6.4004e-05
4.34381e-06
-6.50688e-05
8.21025e-06
-6.53494e-05
1.21487e-05
-6.50078e-05
1.60292e-05
-6.41471e-05
1.95317e-05
-6.30147e-05
2.25227e-05
-6.16121e-05
2.51045e-05
-5.97526e-05
2.70683e-05
-5.73614e-05
2.81808e-05
-5.46483e-05
2.81329e-05
-5.19443e-05
2.69337e-05
2.49237e-05
-4.94028e-05
-1.08458e-05
1.47749e-05
-1.74832e-05
1.45092e-05
-2.30505e-05
1.12142e-05
-2.88246e-05
6.78488e-06
-3.4679e-05
2.62507e-06
-4.0622e-05
-6.62223e-07
-4.62107e-05
-2.41161e-06
-5.11149e-05
-2.58489e-06
-5.52647e-05
-1.50401e-06
-5.86589e-05
5.14032e-07
-6.12879e-05
3.17859e-06
-6.31583e-05
6.21422e-06
-6.43126e-05
9.36451e-06
-6.46473e-05
1.24833e-05
-6.42201e-05
1.56019e-05
-6.31407e-05
1.84524e-05
-6.16136e-05
2.09955e-05
-5.96751e-05
2.31659e-05
-5.73254e-05
2.47185e-05
-5.4537e-05
2.53922e-05
-5.14997e-05
2.50956e-05
-4.84441e-05
2.3878e-05
2.19768e-05
-4.54969e-05
-8.20962e-06
2.29848e-05
-1.42094e-05
2.05092e-05
-1.95566e-05
1.65614e-05
-2.49715e-05
1.21998e-05
-3.05121e-05
8.16565e-06
-3.61157e-05
4.94133e-06
-4.14691e-05
2.9418e-06
-4.62876e-05
2.23357e-06
-5.04303e-05
2.63865e-06
-5.38293e-05
3.91301e-06
-5.64576e-05
5.80687e-06
-5.83185e-05
8.07506e-06
-5.94353e-05
1.04813e-05
-5.98477e-05
1.28956e-05
-5.94688e-05
1.52229e-05
-5.84192e-05
1.74028e-05
-5.67641e-05
1.93403e-05
-5.45653e-05
2.09672e-05
-5.19222e-05
2.20753e-05
-4.89298e-05
2.23996e-05
-4.57358e-05
2.19015e-05
-4.25144e-05
2.06566e-05
1.88302e-05
-3.93676e-05
-5.7741e-06
2.87588e-05
-1.06005e-05
2.53356e-05
-1.52146e-05
2.11755e-05
-1.99796e-05
1.69648e-05
-2.49277e-05
1.31137e-05
-2.99554e-05
9.969e-06
-3.48214e-05
7.80784e-06
-3.9283e-05
6.69507e-06
-4.31718e-05
6.52742e-06
-4.63867e-05
7.12795e-06
-4.88755e-05
8.29559e-06
-5.06217e-05
9.82127e-06
-5.16586e-05
1.15181e-05
-5.20049e-05
1.3242e-05
-5.16851e-05
1.4903e-05
-5.07133e-05
1.6431e-05
-4.91154e-05
1.77424e-05
-4.69319e-05
1.87836e-05
-4.42452e-05
1.93885e-05
-4.12422e-05
1.93965e-05
-3.80698e-05
1.87291e-05
-3.48621e-05
1.74488e-05
1.56806e-05
-3.17121e-05
-3.52161e-06
3.22805e-05
-6.93428e-06
2.87483e-05
-1.05174e-05
2.47586e-05
-1.43935e-05
2.08409e-05
-1.85345e-05
1.72547e-05
-2.28134e-05
1.42478e-05
-2.70201e-05
1.20145e-05
-3.09391e-05
1.06141e-05
-3.44004e-05
9.98865e-06
-3.72873e-05
1.00148e-05
-3.95298e-05
1.05381e-05
-4.11023e-05
1.13937e-05
-4.2009e-05
1.24247e-05
-4.22747e-05
1.35077e-05
-4.19239e-05
1.45521e-05
-4.09786e-05
1.54857e-05
-3.94791e-05
1.62429e-05
-3.7445e-05
1.67495e-05
-3.4958e-05
1.69015e-05
-3.21446e-05
1.65829e-05
-2.91612e-05
1.57456e-05
-2.61338e-05
1.44214e-05
1.26981e-05
-2.3151e-05
-1.55023e-06
3.38306e-05
-3.52509e-06
3.07231e-05
-5.94011e-06
2.71735e-05
-8.77753e-06
2.36783e-05
-1.19632e-05
2.04404e-05
-1.53602e-05
1.76448e-05
-1.87792e-05
1.54334e-05
-2.20257e-05
1.38605e-05
-2.49357e-05
1.28987e-05
-2.73874e-05
1.24664e-05
-2.93011e-05
1.24518e-05
-3.06371e-05
1.27296e-05
-3.13895e-05
1.31771e-05
-3.15706e-05
1.36888e-05
-3.12005e-05
1.4182e-05
-3.03051e-05
1.45902e-05
-2.89157e-05
1.48535e-05
-2.70731e-05
1.49069e-05
-2.48419e-05
1.46703e-05
-2.23295e-05
1.40704e-05
-1.96569e-05
1.30729e-05
-1.6936e-05
1.17005e-05
1.00163e-05
-1.42539e-05
1.84687e-08
3.38122e-05
-6.42173e-07
3.13837e-05
-1.88776e-06
2.84191e-05
-3.6328e-06
2.54233e-05
-5.78855e-06
2.25961e-05
-8.22234e-06
2.00785e-05
-1.07677e-05
1.79787e-05
-1.32519e-05
1.63447e-05
-1.55222e-05
1.5169e-05
-1.74585e-05
1.44027e-05
-1.89766e-05
1.39699e-05
-2.00275e-05
1.37804e-05
-2.05924e-05
1.3742e-05
-2.06744e-05
1.37708e-05
-2.02886e-05
1.37961e-05
-1.94569e-05
1.37586e-05
-1.82082e-05
1.36047e-05
-1.65824e-05
1.32811e-05
-1.46419e-05
1.27298e-05
-1.24722e-05
1.19005e-05
-1.01711e-05
1.07717e-05
-7.83142e-06
9.36081e-06
7.71736e-06
-5.53228e-06
1.16221e-06
3.26498e-05
1.56386e-06
3.09819e-05
1.37635e-06
2.86066e-05
6.74474e-07
2.61252e-05
-4.60474e-07
2.3731e-05
-1.91797e-06
2.1536e-05
-3.55897e-06
1.96197e-05
-5.23652e-06
1.80222e-05
-6.81527e-06
1.67477e-05
-8.18315e-06
1.57705e-05
-9.25669e-06
1.50434e-05
-9.98162e-06
1.45053e-05
-1.03304e-05
1.40907e-05
-1.02959e-05
1.37363e-05
-9.88556e-06
1.33857e-05
-9.11668e-06
1.29896e-05
-8.01527e-06
1.25033e-05
-6.61785e-06
1.18836e-05
-4.97683e-06
1.10887e-05
-3.16173e-06
1.00852e-05
-1.24921e-06
8.85915e-06
6.84478e-07
7.42704e-06
5.83682e-06
2.56527e-06
1.88036e-06
3.07695e-05
3.09123e-06
2.97711e-05
3.76312e-06
2.79346e-05
3.95863e-06
2.59296e-05
3.74195e-06
2.39477e-05
3.1951e-06
2.20828e-05
2.4231e-06
2.03917e-05
1.54089e-06
1.89044e-05
6.59956e-07
1.76286e-05
-1.2199e-07
1.65525e-05
-7.27262e-07
1.56486e-05
-1.10083e-06
1.48789e-05
-1.20957e-06
1.41995e-05
-1.03899e-06
1.35657e-05
-5.88842e-07
1.29355e-05
1.29951e-07
1.22708e-05
1.09667e-06
1.15366e-05
2.28036e-06
1.06999e-05
3.63787e-06
9.73115e-06
5.11464e-06
8.60834e-06
6.64977e-06
7.32391e-06
8.1836e-06
5.89322e-06
4.35428e-06
9.66636e-06
2.29159e-06
2.84778e-05
4.04204e-06
2.80206e-05
5.34221e-06
2.66344e-05
6.23226e-06
2.50395e-05
6.75712e-06
2.34228e-05
6.97493e-06
2.1865e-05
6.95913e-06
2.04074e-05
6.79266e-06
1.90708e-05
6.55965e-06
1.78616e-05
6.33781e-06
1.67743e-05
6.19273e-06
1.57937e-05
6.17459e-06
1.4897e-05
6.31737e-06
1.40566e-05
6.63997e-06
1.32431e-05
7.1484e-06
1.24271e-05
7.83801e-06
1.15812e-05
8.69474e-06
1.06798e-05
9.69519e-06
9.69943e-06
1.08065e-05
8.61979e-06
1.19878e-05
7.42688e-06
1.31939e-05
6.11778e-06
1.43808e-05
4.70628e-06
3.2252e-06
1.55101e-05
2.4819e-06
2.5996e-05
4.5484e-06
2.59541e-05
6.25518e-06
2.49276e-05
7.62441e-06
2.36703e-05
8.68604e-06
2.23611e-05
9.47972e-06
2.10713e-05
1.00547e-05
1.98325e-05
1.04671e-05
1.86584e-05
1.07757e-05
1.75529e-05
1.10374e-05
1.65126e-05
1.13024e-05
1.55286e-05
1.1612e-05
1.45874e-05
1.19966e-05
1.3672e-05
1.24757e-05
1.27639e-05
1.30588e-05
1.1844e-05
1.3746e-05
1.08939e-05
1.45295e-05
9.89627e-06
1.53935e-05
8.83538e-06
1.63149e-05
7.69835e-06
1.72645e-05
6.47725e-06
1.82101e-05
5.17206e-06
1.91203e-05
3.7961e-06
2.37819e-06
1.99675e-05
2.5198e-06
2.34761e-05
4.73277e-06
2.37411e-05
6.66202e-06
2.29984e-05
8.31779e-06
2.20145e-05
9.72044e-06
2.09585e-05
1.08976e-05
1.98941e-05
1.18823e-05
1.88478e-05
1.27115e-05
1.78292e-05
1.34243e-05
1.68401e-05
1.40591e-05
1.58777e-05
1.46519e-05
1.49359e-05
1.52331e-05
1.40061e-05
1.58272e-05
1.30779e-05
1.64511e-05
1.21399e-05
1.71151e-05
1.11801e-05
1.7822e-05
1.0187e-05
1.85685e-05
9.14971e-06
1.93451e-05
8.0588e-06
2.01364e-05
6.90702e-06
2.09227e-05
5.6908e-06
2.16818e-05
4.41292e-06
2.23917e-05
3.08615e-06
1.73718e-06
2.30329e-05
2.45085e-06
2.10253e-05
4.68969e-06
2.15023e-05
6.70418e-06
2.09839e-05
8.49585e-06
2.02229e-05
1.00791e-05
1.93752e-05
1.14744e-05
1.84988e-05
1.27051e-05
1.7617e-05
1.37963e-05
1.6738e-05
1.47734e-05
1.5863e-05
1.56618e-05
1.49893e-05
1.64853e-05
1.41124e-05
1.72651e-05
1.32263e-05
1.80188e-05
1.23242e-05
1.87597e-05
1.1399e-05
1.94964e-05
1.04434e-05
2.02327e-05
9.45065e-06
2.09678e-05
8.41459e-06
2.16963e-05
7.33032e-06
2.24084e-05
6.19482e-06
2.30911e-05
5.00805e-06
2.37293e-05
3.77455e-06
2.43081e-05
2.50741e-06
1.23139e-06
2.48141e-05
2.30568e-06
1.87196e-05
4.48625e-06
1.93217e-05
6.49097e-06
1.89792e-05
8.3125e-06
1.84013e-05
9.96024e-06
1.77275e-05
1.14499e-05
1.70091e-05
1.27993e-05
1.62676e-05
1.40263e-05
1.55111e-05
1.51484e-05
1.47409e-05
1.61824e-05
1.39553e-05
1.7144e-05
1.31508e-05
1.80471e-05
1.23231e-05
1.89037e-05
1.14676e-05
1.97231e-05
1.05795e-05
2.05118e-05
9.65471e-06
2.12732e-05
8.6893e-06
2.20073e-05
7.68045e-06
2.27111e-05
6.62649e-06
2.33784e-05
5.52745e-06
2.40006e-05
4.3858e-06
2.45671e-05
3.208e-06
2.50672e-05
2.00723e-06
8.07315e-07
2.54915e-05
2.10815e-06
1.66116e-05
4.17213e-06
1.72578e-05
6.10381e-06
1.70475e-05
7.88571e-06
1.66194e-05
9.52149e-06
1.60917e-05
1.10225e-05
1.55081e-05
1.24025e-05
1.48877e-05
1.36751e-05
1.42384e-05
1.48534e-05
1.35627e-05
1.59489e-05
1.28597e-05
1.69724e-05
1.21273e-05
1.79332e-05
1.13623e-05
1.88391e-05
1.05616e-05
1.96964e-05
9.72218e-06
2.05097e-05
8.84145e-06
2.12813e-05
7.91769e-06
2.20115e-05
6.95017e-06
2.26985e-05
5.93946e-06
2.33381e-05
4.88782e-06
2.3924e-05
3.79984e-06
2.44487e-05
2.68326e-06
2.49039e-05
1.55204e-06
4.29215e-07
2.52821e-05
1.88035e-06
1.47311e-05
3.78838e-06
1.53497e-05
5.60583e-06
1.52301e-05
7.30443e-06
1.49209e-05
8.88098e-06
1.45152e-05
1.03419e-05
1.40472e-05
1.16972e-05
1.35324e-05
1.29573e-05
1.29783e-05
1.41322e-05
1.23877e-05
1.52308e-05
1.17611e-05
1.62608e-05
1.10973e-05
1.72288e-05
1.03943e-05
1.81403e-05
9.65018e-06
1.89994e-05
8.86303e-06
1.98093e-05
8.03154e-06
2.05717e-05
7.15528e-06
2.12869e-05
6.23498e-06
2.19535e-05
5.27281e-06
2.25686e-05
4.27272e-06
2.31275e-05
3.24088e-06
2.36239e-05
2.1868e-06
2.40508e-05
1.12507e-06
7.87707e-08
2.44014e-05
1.64178e-06
1.30894e-05
3.37067e-06
1.36209e-05
5.04856e-06
1.35522e-05
6.63745e-06
1.3332e-05
8.12686e-06
1.30258e-05
9.51773e-06
1.26563e-05
1.08159e-05
1.22343e-05
1.20288e-05
1.17653e-05
1.31642e-05
1.12524e-05
1.42289e-05
1.06964e-05
1.52289e-05
1.00972e-05
1.61693e-05
9.45389e-06
1.70542e-05
8.76531e-06
1.78867e-05
8.0305e-06
1.86692e-05
7.24906e-06
1.9403e-05
6.42146e-06
2.00885e-05
5.54943e-06
2.0725e-05
4.6363e-06
2.13103e-05
3.68737e-06
2.18406e-05
2.7105e-06
2.23108e-05
1.71657e-06
2.27142e-05
7.21643e-07
-2.51094e-07
2.30442e-05
1.40922e-06
1.16801e-05
2.94969e-06
1.20804e-05
4.47504e-06
1.20268e-05
5.93976e-06
1.18672e-05
7.32658e-06
1.16389e-05
8.63086e-06
1.1352e-05
9.85415e-06
1.10109e-05
1.10008e-05
1.06186e-05
1.20762e-05
1.0177e-05
1.30855e-05
9.68706e-06
1.40336e-05
9.14915e-06
1.49244e-05
8.56307e-06
1.57613e-05
7.92841e-06
1.65469e-05
7.24488e-06
1.72832e-05
6.51269e-06
1.79717e-05
5.73293e-06
1.86132e-05
4.90798e-06
1.92074e-05
4.04202e-06
1.97533e-05
3.14147e-06
2.02481e-05
2.21563e-06
2.06872e-05
1.27747e-06
2.10641e-05
3.44683e-07
-5.58636e-07
2.13718e-05
1.19509e-06
1.04851e-05
2.55063e-06
1.07248e-05
3.92103e-06
1.06564e-05
5.25622e-06
1.0532e-05
6.53347e-06
1.03617e-05
7.74316e-06
1.01423e-05
8.88276e-06
9.87132e-06
9.95352e-06
9.54786e-06
1.09584e-05
9.17206e-06
1.19011e-05
8.74436e-06
1.27851e-05
8.26512e-06
1.36136e-05
7.73452e-06
1.43895e-05
7.15258e-06
1.51148e-05
6.51947e-06
1.57917e-05
5.83577e-06
1.64218e-05
5.10286e-06
1.70063e-05
4.32346e-06
1.75461e-05
3.50218e-06
1.80413e-05
2.64626e-06
1.84903e-05
1.76653e-06
1.88899e-05
8.77883e-07
1.92337e-05
8.60632e-10
-8.38421e-07
1.95136e-05
1.00963e-06
9.47531e-06
2.19423e-06
9.54014e-06
3.41628e-06
9.43431e-06
4.62397e-06
9.32428e-06
5.79092e-06
9.19468e-06
6.90366e-06
9.02952e-06
7.95626e-06
8.81869e-06
8.94717e-06
8.55693e-06
9.87717e-06
8.24202e-06
1.07482e-05
7.87329e-06
1.15626e-05
7.45074e-06
1.23225e-05
6.97453e-06
1.30301e-05
6.44494e-06
1.36873e-05
5.86229e-06
1.42958e-05
5.22727e-06
1.48574e-05
4.54124e-06
1.53741e-05
3.80678e-06
1.58478e-05
3.02846e-06
1.62802e-05
2.21385e-06
1.66719e-05
1.37477e-06
1.7021e-05
5.2869e-07
1.73225e-05
-3.00593e-07
-1.08249e-06
1.75666e-05
8.60543e-07
8.6148e-06
1.89765e-06
8.503e-06
2.98585e-06
8.34607e-06
4.07425e-06
8.23583e-06
5.13496e-06
8.13393e-06
6.15235e-06
8.01209e-06
7.11823e-06
7.85278e-06
8.02888e-06
7.64625e-06
8.88321e-06
7.38766e-06
9.68153e-06
7.07494e-06
1.04248e-05
6.70746e-06
1.11141e-05
6.28521e-06
1.17506e-05
5.80842e-06
1.23354e-05
5.27743e-06
1.28699e-05
4.69276e-06
1.33557e-05
4.05537e-06
1.37953e-05
3.36721e-06
1.41916e-05
2.63209e-06
1.45485e-05
1.85702e-06
1.48689e-05
1.05425e-06
1.51546e-05
2.42982e-07
1.54025e-05
-5.48493e-07
-1.28212e-06
1.56023e-05
7.55913e-07
7.85874e-06
1.67678e-06
7.58205e-06
2.65191e-06
7.37089e-06
3.63378e-06
7.2539e-06
4.59565e-06
7.17202e-06
5.52193e-06
7.08576e-06
6.40368e-06
6.97099e-06
7.23597e-06
6.81393e-06
8.01629e-06
6.60731e-06
8.74346e-06
6.34774e-06
9.41698e-06
6.03391e-06
1.00366e-05
5.66557e-06
1.06022e-05
5.24282e-06
1.11137e-05
4.7659e-06
1.15714e-05
4.23497e-06
1.19765e-05
3.65031e-06
1.2331e-05
3.01268e-06
1.26388e-05
2.32425e-06
1.29056e-05
1.59022e-06
1.31384e-05
8.21417e-07
1.33434e-05
3.7941e-08
1.35226e-05
-7.27645e-07
-1.42595e-06
1.36665e-05
7.04156e-07
7.1546e-06
1.54769e-06
6.73848e-06
2.43476e-06
6.48376e-06
3.32503e-06
6.36358e-06
4.19683e-06
6.30018e-06
5.03749e-06
6.24506e-06
5.8391e-06
6.16934e-06
6.59654e-06
6.05646e-06
7.30635e-06
5.89747e-06
7.96603e-06
5.68802e-06
8.57355e-06
5.42637e-06
9.12703e-06
5.11205e-06
9.62466e-06
4.74517e-06
1.00647e-05
4.32581e-06
1.04459e-05
3.8538e-06
1.07676e-05
3.32857e-06
1.1031e-05