/*--------------------------------*- C++ -*----------------------------------*\
  =========                 |
  \\      /  F ield         | OpenFOAM: The Open Source CFD Toolbox
   \\    /   O peration     | Website:  https://openfoam.org
    \\  /    A nd           | Version:  13
     \\/     M anipulation  |
\*---------------------------------------------------------------------------*/
FoamFile
{
    format      ascii;
    class       volScalarField;
    location    "1.2";
    object      rho;
}
// * * * * * * * * * * * * * * * * * * * * * * * * * * * * * * * * * * * * * //

dimensions      [1 -3 0 0 0 0 0];

internalField   nonuniform List<scalar> 
2268
(
13529
13529
13529
13529
13529
13529
13529
13529
13529
13529
13529
13529
13529
13529
13529
13529
13529
13529
13529
13529
13528.3
13522.1
13521.6
13529
13529
13529
13529
13529
13529
13529
13529
13529
13529
13529
13529
13529
13529
13529
13529
13529
13529
13529
13529
13529
13527.7
13521.6
13529
13529
13529
13529
13529
13529
13529
13529
13529
13529
13529
13529
13529
13529
13529
13529
13529
13529
13529
13529
13529
13529
13526.5
13529
13529
13529
13529
13529
13529
13529
13529
13529
13529
13529
13529
13529
13529
13529
13529
13529
13529
13529
13529
13529
13529
13528.6
13529
13529
13529
13529
13529
13529
13529
13529
13529
13529
13529
13529
13529
13529
13529
13529
13456.2
13195.2
12951.8
12744.2
12725.8
12937.2
13270.6
13529
13529
13529
13529
13529
13529
13529
13529
13529
13529
13529
13516.6
12432.3
10774.1
9031.18
7387.94
6026.2
5134.18
4482.97
3986.21
4130.56
4894.74
5490.22
12940.1
13393
13529
13529
13529
13529
13529
13529
13529
12326.5
9343.49
5626.24
3265.89
1954.65
1296.8
1046.75
999.998
999.996
999.837
1001.17
982.909
980.845
935.794
5425.07
7610.38
9758.15
10742.1
11104.6
11550.6
11519.4
9450.33
5604.69
2693.37
1275.97
1000
1000
1000
1000
1000
1000
999.998
999.998
1026.77
1137.66
954.62
891.833
1384.11
1633.96
1685.98
6643.13
11891.7
11881
11438.3
7249.08
6303.17
6352.03
6250.59
6284.22
9414.11
9480.26
9506.05
9548.37
9534.16
9497.24
9493.14
1347.37
2697.24
1687.28
2797.03
8822.76
11922.9
11939.4
11932.5
11911.6
11620.6
11137.7
9699.21
8032.32
8946.16
9050.72
8314.49
8539.6
9504.99
9372.46
1351.49
3948.64
2904.37
2532.8
5542.96
11853.1
11074.3
10893.4
11320.9
11601.1
11481.6
9074.83
3931.24
3599.12
4000.89
4027.95
4114.99
7310.74
8377.63
3050.41
4589.92
6934.37
8244.64
8385.64
5477.12
2571.72
2566.9
4286.59
5356.66
5269.47
4310.88
4168.24
3487.73
3163.65
3149.66
3250.67
4114.77
6131.28
3320.37
2120.4
4217.21
5692.77
3870.51
1028.62
999.427
998.275
826.546
740.65
1903.08
3216.67
4953.06
5434.49
5498.24
5390.53
5037.99
3967.82
4629.15
1923.96
1006.82
1011.97
1053.67
1001
1001.08
1001.56
1052.28
1009.54
589.734
412.99
383.37
597.744
2150.98
2717.91
2601.48
2851.09
2392.08
3470.95
595.053
993.34
1002.19
1001.2
1001.14
1000.93
1003.57
1048.15
1049.13
966.068
893.277
860.163
851.021
861.076
867.336
865.056
866.851
962.965
1459.88
631.038
998.725
1000.91
1000.7
1000.71
1000.57
1002.65
1001.84
1000.53
1000.38
998.872
943.413
935.422
889.87
801.346
740.72
789.747
691.685
968.614
1000
1519.03
2376.88
3061.76
3142.93
2442.78
1516.88
1126.62
1001.74
1000
1000
1000
1000
1000
1000
1000
1000
1000
995.897
1155.93
956.981
834.74
541.926
1000
1000
1000
1000
1000
1000
1000
1000
1000
1000
1000
1000
1000
1000
1000
1000
1000
899.045
743.795
492.775
536.145
516.403
497.577
1000
1000
1000
1000
1000
1000
1000
1000
1000
1000
1000
1000
1000
1000
1000
886.571
757.601
601.323
445.644
472.902
499.999
500
500.011
1000
1000
1000
1000
1000
1000
1000
1000
1000
1000
1000
1000
1000
848.906
749.515
623.952
431.171
456.589
497.299
499.998
500
500
500.002
1000
1000
1000
1000
1000
1000
1000
1000
999.803
1000
966.479
808.223
696.267
585.496
423.858
459.638
486.619
499.979
500.003
500
500
500
499.999
1000
1000
1000
1000
1000
999.759
983.08
969.36
857.374
714.048
614.148
510.486
413.876
440.737
481.181
499.972
499.996
499.998
500.001
500
500
500
500
1000
1000
1000
999.996
991.515
913.918
748.911
615.589
485.522
410.183
422.597
448.151
490.021
499.994
499.999
499.995
499.996
499.999
500
500
500
500
500
1000
1000
999.995
992.742
810.327
541.664
410.469
395.977
473.13
477.988
499.508
500
500
500
499.999
499.997
499.998
500
500
500
500
500
500
1000
999.965
961.883
658.998
481.03
489.851
489.587
500
500
500
500
500
500
500
500
500
500
500
500
500
492.618
451.818
431.292
993.797
751.629
367.797
384.806
499.937
500.009
500.008
500.005
500.003
500.001
500
500
500
500
500
500
478.244
428.425
362.901
287.901
167.762
84.4096
60.4245
440.804
145.468
62.7441
337.502
423.159
428.425
440.2
439.26
427.964
424.024
416.456
399.03
370.716
326.231
265.172
191.725
122.31
62.1051
23.1805
5.76315
1.00013
1.0002
1.00034
0.997136
1.64001
12.448
22.2127
38.0836
53.3822
51.1837
41.4289
47.1406
51.3585
46.3679
36.7719
24.769
12.3105
3.40758
1.00001
1.00001
1
1.00007
1.00031
1.00015
1.00023
1.00034
1.00088
1.00463
1.00008
1.00009
1.00006
1.00006
1.00007
1.00022
1.00001
1.00004
1.00012
1.00028
1.00023
1
1.00001
1.00001
1.00001
1.00002
1.00008
1.00015
1.00032
1.00059
1.00084
1.00067
1.00414
1.00508
1.00009
1.0001
1.00009
1.00009
1.00008
1.00005
1.00053
1.0011
1.00093
1.00118
1.00101
1.00001
1.00001
1.00002
1.00004
1.00007
1.00018
1.00037
1.00054
1.00075
1.00019
1.00065
1.00066
1.00007
1.00006
1.00005
1.00005
1.00005
1.00005
1.00004
1.0001
1.01373
1.03288
1.01147
1.00243
1.00064
1.00001
1.00001
1.00006
1.00017
1.00027
1.00028
1.00024
1.00004
1.0001
1.00016
1.00009
1.00005
1.00004
1.00004
1.00004
1.00005
1.00004
1.00005
1.00805
1.0798
1.09124
1.05481
1.00317
1.00278
1.00161
1.0021
1.00346
1.00348
1.002
1.00049
1.00003
1.00004
1.00007
1.00008
1.00006
1.00005
1.00003
1.00003
1.00004
1.00004
1.00004
1.00006
1.02448
1.09285
1.0929
1.09337
1.03852
1.003
1.00295
1.003
1.00324
1.00324
1.00255
1.00002
1.00003
1.00005
1.00006
1.00006
1.00006
1.00003
1.00002
1.00003
1.00004
1.00005
1.00006
1.00005
1.00854
1.04325
1.06985
1.06726
1.03307
1.00148
1.00093
1.00082
1.00138
1.00153
1.00001
1.00002
1.00003
1.00004
1.00005
1.00006
1.00004
1.00002
1.00002
1.00002
1.00003
1.00004
1.00004
1.00003
1.00003
1.00206
1.01051
1.01325
1.00742
1.00094
1.00015
1.00014
1.00018
1.00001
1.00001
1.00002
1.00002
1.00003
1.00005
1.00004
1.00002
1.00001
1.00001
1.00002
1.00002
1.00002
1.00003
1.00003
1.00001
1.00001
1.00001
1.00111
1.00091
1.00013
1.00002
1.00002
1.00001
1.00001
1.00001
1.00001
1.00002
1.00004
1.00003
1.00002
1.00001
1.00001
1.00001
1.00001
1.00001
1.00001
1.00002
1.00001
1.00001
1.00001
1
1.00004
1.00005
1.00001
1.00001
1.00001
1
1.00001
1.00001
1.00001
1.00002
1.00002
1.00001
1.00001
1.00001
1.00001
1.00001
1.00001
1.00001
1.00001
1.00001
1.00001
1
1
1
1
1
1
1
1
1
1
1
1.00001
1.00001
1.00001
1.00001
1
1
1
1
1
1
1.00001
1
1
1
1
1
1
1
1
1
1
1
1
1
1.00001
1
1
1
1
1
1
1
1
1
1
1
1
1
1
1
1
1
1
1
1
1
1
1
1
1
1
1
1
1
1
1
1
1
1
1
1
1
1
1
1
1
1
1
1
1
1
1
1
1
1
1
1
1
1
1
1
1
1
1
1
1
1
1
1
1
1
1
1
1
1
1
1
1
1
1
1
1
1
1
1
1
1
1
1
1
1
1
1
1
1
1
1
1
1
1
1
1
1
1
1
1
1
1
1
1
1
1
1
1
1
1
1
1
1
1
1
1
1
1
1
1
1
1
1
1
1
1
1
1
1
1
1
1
1
1
1
1
1
1
1
1
1
1
1
1
1
1
1
1
1
1
1
1
1
1
1
1
1
1
1
1
1
1
1
1
1
1
1
1
1
1
1
1
1
1
1
1
1
1
1
1
1
1
1
1
1
1
1
1
1
1
1
1
1
1
1
1
1
1
1
1
1
1
1
1
1
1
1
1
1
1
1
1
1
1
1
1
1
1
1
1
1
1
1
1
1
1
1
1
1
1
1
1
1
1
1
1
1
1
1
1
1
1
1
1
1
1
1
1
1
1
1
1
1
1
1
1
1
1
1
1
1
1
1
1
1
1
1
1
1
1
1
1
1
1
1
1
1
1
1
1
1
1
1
1
1
1
1
1
1
1
1
1
1
1
1
1
1
1
1
1
1
1
1
1
1
1
1
1
1
1
1
1
1
1
1
1
1
1
1
1
1
1
1
1
1
1
1
1
1
1
1
1
1
1
1
1
1
1
1
1
1
1
1
1
1
1
1
1
1
1
1
1
1
1
1
1
1
1
1
1
1
1
1
1
1
1
1
1
1
1
1
1
1
1
1
1
1
1
1
1
1
1
1
1
1
1
1
1
1
1
1
1
1
1
1
1
1
1
1
1
1
1
1
1
1
1
1
1
1
1
1
1
1
1
1
1
1
1
1
1
1
1
1
1
1
1
1
1
1
494.758
500.975
450.574
788.564
502.459
497.361
426.425
666.129
500.614
500.271
478.68
460.686
499.999
499.896
500.008
499.531
499.992
500
500
500
500
500
500
500
500
500
500
500
500
500
500
500
393.16
304.571
268.031
257.341
41.2747
9.62986
3.27662
2.34989
1.0003
1.00028
1.00027
1.00029
1.00063
1.00068
1.00067
1.00066
1.0009
1.00091
1.00091
1.0009
1.00079
1.00048
1.00039
1.00032
1.00024
1.0002
1.00011
1.00008
1.00015
1.00007
1.00005
1.00005
1.0001
1.00011
1.00009
1.00013
1.00026
1.00002
1.00003
1.00005
1.00013
1.00004
1.00001
1.00001
1.00002
1.00001
1.00001
1.00001
1.00001
1.00001
1.00001
1.00001
1
1
1
1
1
1
1
1
1
1
1
1
1
1
1
1
1
1
1
1
1
1
1
1
1
1
1
1
1
1
1
1
1
1
1
1
1
1
1
1
1
1
1
1
1
1
1
1
1
1
1
1
1
1
1
1
1
1
1
1
1
1
1
1
1
1
1
1
1
1
1
1
1
1
1
1
1
1
1
1
1
1
1
1
883.362
907.329
938.933
990.376
995.896
998.872
999.778
999.843
999.748
1000.55
995.153
925.425
787.906
645.247
572.679
524.03
539.604
582.374
774.931
824.047
642.585
666.969
709.012
729.585
804.872
890.396
899.907
898.471
838.222
691.553
565.24
504.051
499.737
499.731
499.339
499.236
490.545
398.719
542.104
451.664
484.751
496.51
498.916
502.083
506.922
529.077
533.703
506.817
500.882
501.181
499.886
499.802
500.038
499.806
499.656
446.223
378.884
498.233
500
500.001
500.004
500.006
500.004
500.002
500.001
500.001
499.812
499.982
500
492.979
478.762
473.204
488.593
499.653
429.414
378.182
500
500
500.001
500.001
500.001
500.001
500.001
500
500
489.42
422.104
315.455
210.649
164.84
174.187
255.174
367.974
397.116
392.324
500
500
500
500
500
500
500
475.554
375.37
195.605
60.0744
1.00857
1.00124
1.06696
2.58378
40.8593
75.4055
86.1063
78.2645
500
500
500
500
500
455.217
328.479
142.731
13.9009
1.00032
1.00035
1.00021
1.00047
1.00416
2.01346
4.9431
3.47982
1.24332
1.00093
500
489.051
443.016
352.211
201.078
62.4365
1.00019
1
1.00028
1.00476
1.07249
1.0083
1.00036
2.37571
5.03087
4.91285
1.28858
1.00081
1.00101
219.53
131.618
60.4627
10.4655
1.00006
1.00001
1.00001
1.0001
1.01434
1.37529
1.58132
1.27123
1.00476
2.07485
3.32042
1.5637
1.00031
1.00081
1.00092
1.0614
1.00003
1.00003
1.00003
1.00014
1.00044
1.00045
1.00004
1.15352
1.58142
1.58248
1.29505
1.00063
1.10565
1.0001
1.0001
1.00032
1.00005
1.00049
1.00025
1.00011
1.00005
1.00004
1.00034
1.00143
1.00144
1.00674
1.04445
1.04844
1.04112
1.0088
1.00007
1.00008
1.00011
1.0002
1.00009
1.00005
1.00012
1.0006
1.00037
1.00013
1.00004
1.0003
1.00144
1.0015
1.00031
1
1
1.00004
1.00002
1.00009
1.00016
1.00018
1.00016
1.00002
1.00006
1.00085
1.00059
1.00014
1.00003
1.00003
1.00004
1.00002
1.00001
1
1
1.00001
1.00001
1.00002
1.00004
1.00006
1.00006
1.00003
1
1.00009
1.00086
1.0002
1.00004
1.00001
1.00001
1
1
1
1
1
1
1
1.00001
1
1
1
1
1
1.0001
1.00086
1.00005
1.00002
1.00001
1.00001
1.00001
1
1
1
1
1
1
1
1
1
1
1
1
1.00012
1.00061
1.00004
1.00003
1.00002
1.00002
1.00001
1.00001
1
1
1
1
1
1
1
1
1
1
1
1.00013
1.00034
1.00013
1.00007
1.00003
1.00002
1.00001
1.00001
1
1
1
1
1
1
1
1
1
1
1
1.00009
1.00017
1.00004
1.00003
1.00004
1.00002
1.00001
1.00001
1
1
1
1
1
1
1
1
1
1
1
1.00004
1.0001
1.00001
1.00001
1.00001
1.00001
1.00001
1.00001
1
1
1
1
1
1
1
1
1
1
1
1.00001
1.00001
1.00001
1.00001
1.00001
1.00001
1
1
1
1
1
1
1
1
1
1
1
1
1
1
1
1.00001
1.00001
1
1
1
1
1
1
1
1
1
1
1
1
1
1
1
1
1
1
1
1
1
1
1
1
1
1
1
1
1
1
1
1
1
1
1.00001
1.00001
1
1
1
1
1
1
1
1
1
1
1
1
1
1
1
1
1.00001
1.00001
1.00001
1
1
1
1
1
1
1
1
1
1
1
1
1
1
1
1
1.00001
1.00001
1.00001
1
1
1
1
1
1
1
1
1
1
1
1
1
1
1
1
1.00001
1.00002
1.00001
1
1
1
1
1
1
1
1
1
1
1
1
1
1
1
1.00001
1.00001
1.00002
1.00001
1
1
1
1
1
1
1
1
1
1
1
1
1
1
1
1.00001
1.00002
1.00003
1.00002
1
1
1
1
1
1
1
1
1
1
1
1
1
1
1
1.00001
1.00003
1.00005
1.00002
1
1
1
1
1
1
1
1
1
1
1
1
1
1
1
1.00002
1.00005
1.00006
1.00002
1
1
1
1
1
1
1
1
1
1
1
1
1
1
1.00001
1.00002
1.00005
1.00006
1.00002
1
1
1
1
1
1
1
1
1
1
1
1
1
1
1.00001
1.00003
1.00005
1.00006
1.00001
1
1
1
1
1
1
1
1
1
1
1
1
1
1
1.00001
1.00003
1.00005
1.00004
1.00001
1
1
1
1
1
1
1
1
1
1
1
1
1
1
1.00001
1.00002
1.00004
1.00002
1
1
1
1
1
1
1
1
1
1
1
1
1
1
1
1.00001
1.00001
1.00001
1.00001
1
1
1
1
1
1
1
1
1
1
1
1
1
1
1
1.00001
1.00001
1
1
1
1
1
1
1
1
1
1
1
1
1
1
1
1
1
1
1
1
1
1
1
1
1
1
1
1
1
1
1
1
1
1
1
1
1
1
1
1
1
1
1
1
1
1
1
1
1
1
1
1
1
1
1
1
1
1
1
1
1
1
1
1
1
1
1
1
1
1
1
1
1
1
1
1
1
1
1
1
1
1
1
1
1
1
1
1
1
1
1
1
1
1
1
1
1
1
1
1
1
1
1
1
1
1
1
1
1
1
1
1
1
1
1
1
1
1
1
1
1
1
1
1
1
1
1
1
1
1
1
1
1
1
1
1
)
;

boundaryField
{
    leftWall
    {
        type            calculated;
        value           nonuniform List<scalar> 
50
(
13529
13529
13529
13529
13529
13529
12940.1
5425.07
1000
1000
1000
1000
1000
1000
1000
1000
1000
993.797
440.804
0.997136
1.00088
1.00067
1.00019
1.00004
1.00003
1.00002
1.00001
1.00001
1.00001
1.00001
1
1
1
1
1
1
1
1
1
1
1
1
1
1
1
1
1
1
1
1
)
;
    }
    rightWall
    {
        type            calculated;
        value           nonuniform List<scalar> 
50
(
9493.14
9372.46
8377.63
6131.28
4629.15
3470.95
1459.88
968.614
774.931
398.719
378.884
378.182
392.324
78.2645
1.00093
1.00101
1.00092
1.00049
1.00012
1.00085
1.00086
1.00086
1.00061
1.00034
1.00017
1.0001
1.00001
1
1
1.00001
1.00001
1.00001
1.00001
1.00001
1.00002
1.00002
1.00002
1.00002
1.00001
1.00001
1
1
1
1
1
1
1
1
1
1
)
;
    }
    lowerWall
    {
        type            calculated;
        value           nonuniform List<scalar> 
62
(
13529
13529
13529
13529
13529
13529
13529
13529
13529
13529
13529
13529
13529
13529
13529
13529
13529
13529
13529
13529
13528.3
13522.1
13521.6
13521.6
13521.6
13526.5
13528.6
13270.6
5490.22
935.794
891.833
494.758
500.975
450.574
788.564
1384.11
1347.37
1351.49
3050.41
3320.37
1923.96
595.053
631.038
1384.11
1633.96
1685.98
6643.13
11891.7
11881
11438.3
7249.08
6303.17
6352.03
6250.59
6284.22
9414.11
9480.26
9506.05
9548.37
9534.16
9497.24
9493.14
)
;
    }
    atmosphere
    {
        type            calculated;
        value           nonuniform List<scalar> 
46
(
1
1
1
1
1
1
1
1
1
1
1
1
1
1
1
1
1
1
1
1
1
1
1
1
1
1
1
1
1
1
1
1
1
1
1
1
1
1
1
1
1
1
1
1
1
1
)
;
    }
    defaultFaces
    {
        type            empty;
    }
}


// ************************************************************************* //
