/*--------------------------------*- C++ -*----------------------------------*\
  =========                 |
  \\      /  F ield         | OpenFOAM: The Open Source CFD Toolbox
   \\    /   O peration     | Website:  https://openfoam.org
    \\  /    A nd           | Version:  13
     \\/     M anipulation  |
\*---------------------------------------------------------------------------*/
FoamFile
{
    format      ascii;
    class       volScalarField;
    location    "0.1";
    object      alpha.water;
}
// * * * * * * * * * * * * * * * * * * * * * * * * * * * * * * * * * * * * * //

dimensions      [];

internalField   nonuniform List<scalar> 
2268
(
2.78994e-23
2.6832e-21
1.08022e-20
4.12487e-20
3.55059e-19
2.85461e-18
1.74524e-17
5.40814e-17
2.76417e-16
1.57244e-15
9.13752e-16
5.69955e-11
1.19989e-10
2.5073e-10
1.369e-10
5.62145e-11
4.03798e-12
1.13272e-14
2.54114e-19
1.06001e-24
2.81147e-26
3.98929e-27
2.00425e-28
9.71296e-21
3.36524e-19
9.75224e-19
4.17261e-18
4.23446e-17
2.93337e-16
1.48292e-15
3.73037e-15
1.49117e-14
5.6094e-14
2.66518e-14
1.18985e-10
1.95004e-10
3.93972e-09
2.82966e-09
9.08868e-10
1.31428e-10
2.33985e-12
9.53604e-17
4.97645e-23
6.65388e-24
1.1659e-24
5.57553e-26
9.06698e-19
1.69775e-17
4.38047e-17
2.01661e-16
1.8478e-15
1.1515e-14
4.56201e-14
7.48611e-14
2.3686e-13
6.51109e-13
3.19685e-13
3.32731e-11
3.83874e-14
5.61201e-09
3.52491e-08
7.73652e-09
6.93472e-16
9.27577e-15
9.14794e-17
2.52863e-18
5.45364e-19
6.17814e-20
2.62021e-21
1.05863e-16
9.78352e-16
2.47326e-15
9.22952e-15
5.09153e-14
2.8317e-13
8.55552e-13
1.87307e-12
4.29124e-12
8.10409e-12
2.1009e-12
2.81884e-13
7.94552e-14
1.53002e-06
2.86115e-07
1.52936e-24
7.35497e-18
6.04509e-18
5.06583e-18
2.01274e-18
4.21871e-19
4.36752e-20
1.66652e-21
7.70431e-15
4.47458e-14
9.45951e-14
3.06268e-13
9.33808e-13
4.10439e-12
1.21398e-11
1.97369e-11
2.78901e-11
4.69769e-11
7.29803e-12
3.56491e-13
1.56274e-05
9.55207e-06
7.98402e-07
1.1318e-17
3.47489e-17
1.15981e-17
6.70451e-18
2.37998e-18
5.39027e-19
7.60559e-20
6.1373e-21
1.79173e-13
7.53485e-13
1.33126e-12
4.50242e-12
1.44943e-11
4.51708e-11
8.52455e-11
1.06751e-10
1.7482e-10
1.43855e-10
1.50516e-17
1.60738e-05
0.000148356
7.78617e-05
2.4025e-06
1.31847e-13
1.71037e-17
1.20266e-17
7.36682e-18
2.96966e-18
7.97904e-19
1.59572e-19
1.5617e-20
2.26527e-12
7.40817e-12
1.09689e-11
3.72306e-11
1.03599e-10
3.13679e-10
4.96176e-10
5.93224e-10
8.38042e-10
1.3481e-09
-2.36559e-11
8.58791e-05
0.000232576
0.000158097
2.4562e-06
1.44869e-14
2.40106e-14
2.54537e-15
6.31951e-18
2.6565e-18
7.62529e-19
1.70123e-19
1.07845e-20
1.49927e-11
3.93631e-11
4.77851e-11
1.67906e-10
4.00031e-10
1.0128e-09
1.51145e-09
1.73929e-09
2.70804e-09
6.67429e-09
8.29758e-09
1.12437e-08
0.000155057
9.37395e-05
1.01158e-06
1.84701e-08
1.16523e-09
-1.12425e-14
1.64122e-13
4.39926e-14
7.48868e-15
1.58942e-16
1.7935e-17
4.73337e-42
1.46143e-40
1.13812e-39
1.2558e-38
5.31519e-41
4.40438e-43
2.27635e-47
9.40536e-49
6.94988e-56
2.06644e-58
1.20486e-60
1.19024e-63
0
0
0
0
0
0
0
2.00007e-40
1.04932e-38
1.05717e-37
1.07961e-36
2.8564e-38
5.81157e-41
5.34184e-43
5.05699e-46
1.52586e-47
1.67382e-55
7.86505e-58
3.79837e-60
3.19343e-63
0
0
0
0
0
0
1.16633e-38
1.64478e-37
7.29383e-36
3.70797e-35
4.63593e-37
2.87537e-38
1.85736e-39
2.78434e-42
6.79498e-45
2.40192e-46
3.93447e-55
5.30261e-58
7.1075e-60
3.47761e-63
0
0
0
0
0
6.60991e-38
3.8453e-36
2.9581e-33
2.24881e-34
4.86671e-34
1.09397e-34
7.92343e-39
1.70744e-39
3.29401e-41
3.33545e-44
6.16841e-46
6.3036e-55
5.21277e-57
1.28385e-59
2.31874e-63
0
0
0
0
4.56968e-33
1.00921e-30
7.1858e-30
3.65532e-28
2.74533e-31
1.26078e-32
6.11591e-34
8.09236e-37
3.3317e-38
5.73533e-40
1.16563e-43
2.98272e-47
6.95049e-56
4.33636e-57
4.81315e-59
8.86298e-62
0
0
0
2.36779e-33
1.98305e-25
1.61742e-26
5.73251e-27
3.50524e-28
9.41279e-32
1.29262e-33
2.11646e-36
2.79614e-39
2.33449e-40
1.4913e-43
2.36341e-45
3.09489e-47
4.50454e-55
2.42582e-57
8.19016e-60
4.0735e-63
0
0
5.32653e-34
1.38594e-21
2.18509e-22
2.63791e-25
1.18293e-28
4.46954e-30
7.40669e-34
9.87953e-37
1.37063e-37
2.58499e-38
1.69527e-39
5.06927e-41
5.54917e-43
9.80557e-46
1.01258e-54
6.16704e-57
1.72366e-59
1.43262e-62
0
3.26644e-34
-7.63035e-35
7.65374e-20
1.28877e-21
3.29472e-29
2.40806e-29
4.99654e-30
1.92322e-33
2.03597e-34
6.92398e-36
4.43675e-38
1.07169e-39
1.24658e-41
5.29653e-44
4.98447e-47
2.35522e-55
1.0863e-57
2.03913e-60
9.13068e-64
4.1184e-11
8.84368e-11
9.01485e-11
3.35177e-10
7.08213e-10
1.60348e-09
2.33925e-09
3.61067e-09
4.75025e-09
1.61702e-08
1.66743e-08
0.000212241
2.41165e-06
2.43119e-06
2.39434e-06
1.01553e-06
1.0933e-13
7.94228e-14
3.07722e-14
3.55747e-14
4.60963e-14
2.28657e-14
3.34383e-15
-4.874e-19
4.26631e-11
-2.75492e-19
4.41574e-11
-1.53206e-18
4.56659e-11
3.94268e-09
6.25123e-09
0.000876667
0.0214445
0.0812474
0.191237
0.158517
0.0220724
2.22906e-09
1.62116e-09
1.81625e-09
1.32313e-09
6.69371e-10
2.82772e-10
6.01186e-11
1.37425e-11
3.78277e-12
0.0519238
0.0511662
0.0556132
0.0696013
0.0958955
0.139216
0.206306
0.304842
0.466987
0.6458
0.80699
0.928931
0.785657
0.109334
5.20484e-10
2.23818e-09
2.96789e-09
1.88199e-09
7.55545e-10
3.099e-10
9.65524e-11
2.87392e-11
8.70788e-12
0.754478
0.749162
0.758549
0.786484
0.829027
0.880742
0.935488
0.988327
1
1
1
1
0.895376
0.150627
4.84824e-10
1.01186e-09
4.4154e-10
2.94056e-10
1.54778e-10
6.92609e-11
1.8895e-11
6.11434e-12
2.03013e-12
1
1
1
1
1
1
1
1
1
1
1
1
0.932633
0.199608
1.00451e-05
7.78711e-08
2.62654e-10
2.5507e-10
1.39549e-10
5.75903e-11
2.10045e-11
6.46522e-12
1.78353e-12
1
1
1
1
1
1
1
1
1
1
1
1
0.931771
0.204278
1.75244e-11
6.26995e-10
5.08352e-10
2.43122e-10
9.40309e-11
3.82849e-11
6.0903e-12
2.14806e-12
6.70322e-13
1
1
1
1
1
1
1
1
1
1
1
1
0.906318
0.17622
7.23875e-11
5.79158e-10
4.89741e-10
2.22605e-10
7.89735e-11
2.67672e-11
4.85157e-12
1.55066e-12
4.19726e-13
1
1
1
1
1
1
1
1
1
1
1
1
0.866486
0.134729
1.74434e-11
5.33524e-10
4.70617e-10
2.1096e-10
7.01367e-11
2.2482e-11
2.54349e-12
8.44866e-13
2.66283e-13
1
1
1
1
1
1
1
1
1
1
1
1
0.815153
0.0942045
1.52096e-11
5.59299e-10
4.98363e-10
2.17028e-10
6.77819e-11
1.91446e-11
2.74801e-12
5.02945e-13
1.29745e-13
1
1
1
1
1
1
1
1
1
1
1
0.999999
0.749308
0.0577807
1.74075e-11
5.42786e-10
4.36592e-10
1.78057e-10
5.18874e-11
1.14659e-11
2.07976e-12
3.07553e-13
4.21003e-14
1
1
1
1
1
1
1
1
1
1
1
0.999996
0.669432
0.0294388
1.08091e-11
2.11402e-10
1.79778e-10
6.6463e-11
1.51169e-11
2.63312e-12
3.58438e-13
4.42398e-14
4.80226e-15
1
1
1
1
1
1
1
1
1
1
1
0.999983
0.576498
0.010875
1.74558e-11
3.69513e-11
1.32262e-11
3.11856e-12
2.49428e-13
3.72213e-14
3.9616e-15
9.23724e-16
3.96281e-17
1
1
1
1
1
1
1
1
1
1
1
0.999933
0.471215
0.00180574
1.07622e-11
1.89037e-10
2.04058e-11
4.74729e-13
4.8899e-14
5.62143e-15
6.65004e-16
3.68208e-17
7.56403e-19
1
1
1
1
1
1
1
1
1
1
1
0.999767
0.359745
1.40546e-08
7.01116e-09
9.98408e-10
7.03327e-11
3.87365e-12
1.00779e-13
1.07496e-14
7.78675e-16
7.05484e-17
1.31265e-18
1
1
1
1
1
1
1
1
1
1
1
0.999296
0.269707
2.19729e-05
1.29173e-08
1.15009e-09
9.94402e-11
3.8494e-12
7.41837e-14
4.54041e-15
4.46083e-16
2.21576e-17
3.49559e-19
1
1
1
1
1
1
1
1
1
1
1
0.997845
0.228927
0.000444508
6.00398e-12
-6.67445e-13
7.93379e-12
5.31624e-13
2.03638e-14
3.25747e-16
2.55784e-17
1.78683e-18
1.39688e-20
0.822605
0.848158
0.863609
0.859956
0.847897
0.828681
0.803357
0.772599
0.73887
0.707163
0.687728
0.68924
0.150822
1.29514e-08
5.77421e-08
4.49304e-09
3.42832e-11
4.15729e-13
6.61786e-15
8.33702e-16
1.09706e-17
4.24424e-22
4.0104e-25
0.0770337
0.100236
0.114364
0.110876
0.0997212
0.0837721
0.0651162
0.0461265
0.0283992
0.0143785
0.00678042
0.00898229
0.0173071
0.000157899
2.53774e-06
1.21964e-07
8.0062e-10
7.96575e-11
1.92532e-12
3.75312e-14
4.1956e-16
3.7455e-18
1.36649e-22
0
-1.84434e-18
-9.37125e-20
-3.61506e-11
-1.74751e-12
-4.29174e-14
-6.60578e-16
-6.54364e-18
-3.91375e-20
-1.19932e-22
-5.64174e-11
-3.46514e-12
-1.96852e-08
8.36765e-05
7.27418e-06
4.36073e-07
2.05608e-08
7.64245e-10
9.22969e-12
2.41945e-13
3.51825e-16
3.02089e-20
-2.91777e-33
0
0
0
0
0
-5.26024e-127
-1.2038e-87
-4.01497e-83
-8.07574e-73
-1.87148e-69
-1.64725e-66
-7.66464e-64
-2.08033e-61
-3.71867e-59
-4.71544e-57
-4.83205e-55
-4.84446e-53
-7.71073e-51
-2.89992e-48
-8.98352e-46
-1.34605e-43
-9.71967e-42
-3.36602e-40
0
0
0
0
-2.39641e-128
-7.4505e-94
-6.1773e-90
-6.52302e-74
-1.63916e-70
-1.57241e-67
-8.0086e-65
-2.54042e-62
-5.33546e-60
-7.99333e-58
-9.20032e-56
-9.46025e-54
-9.80902e-52
-9.84292e-50
-8.55889e-48
-5.76088e-46
-2.84398e-44
-9.48602e-43
-2.02687e-41
0
0
0
0
0
-4.00442e-123
-2.75739e-89
-7.3706e-86
-2.2212e-70
-2.56486e-67
-1.21021e-64
-3.1979e-62
-5.35742e-60
-6.02524e-58
-4.87043e-56
-3.20532e-54
-2.05256e-52
-1.34725e-50
-8.04893e-49
-3.91294e-47
-1.43756e-45
-3.82899e-44
-7.21978e-43
0
0
0
0
0
0
-3.32224e-121
-1.52161e-87
-2.78517e-84
-5.74292e-69
-4.65567e-66
-1.56206e-63
-2.90195e-61
-3.35012e-59
-2.58769e-57
-1.46662e-55
-7.21917e-54
-3.69923e-52
-1.91447e-50
-8.51864e-49
-2.95983e-47
-7.76669e-46
-1.52574e-44
0
0
0
0
0
0
0
-1.60864e-120
-5.94246e-87
-8.60667e-84
-1.40187e-68
-9.13868e-66
-2.4566e-63
-3.62511e-61
-3.31137e-59
-2.04192e-57
-9.62195e-56
-4.25064e-54
-1.99989e-52
-8.94559e-51
-3.28296e-49
-9.34006e-48
-2.04851e-46
0
0
0
0
0
0
0
0
-1.60516e-120
-5.05238e-87
-6.22138e-84
-8.58627e-69
-4.78744e-66
-1.09704e-63
-1.37791e-61
-1.07554e-59
-5.78581e-58
-2.52289e-56
-1.11112e-54
-5.16336e-53
-2.15755e-51
-7.25906e-50
-1.91737e-48
0
0
0
0
0
0
0
0
0
-6.11477e-121
-1.68152e-87
-1.83186e-84
-2.21156e-69
-1.09313e-66
-2.22514e-64
-2.49322e-62
-1.75654e-60
-8.81854e-59
-3.85535e-57
-1.80081e-55
-8.5975e-54
-3.5557e-52
-1.18184e-50
0
0
0
0
0
0
0
0
0
0
-1.24587e-121
-3.03889e-88
-2.99727e-85
-3.21909e-70
-1.45431e-67
-2.72077e-65
-2.82874e-63
-1.88523e-61
-9.36622e-60
-4.37658e-58
-2.25307e-56
-1.14121e-54
-4.89596e-53
0
0
0
0
0
0
0
0
0
0
0
-1.66587e-122
-3.62466e-89
-3.29768e-86
-3.22273e-71
-1.36736e-68
-2.42799e-66
-2.42964e-64
-1.59878e-62
-8.28594e-61
-4.34473e-59
-2.52855e-57
-1.39425e-55
0
0
0
0
0
0
0
0
0
0
0
0
-1.62759e-123
-3.28045e-90
-2.79401e-87
-2.53733e-72
-1.04252e-69
-1.81326e-67
-1.80665e-65
-1.22107e-63
-6.9131e-62
-4.21745e-60
-2.81987e-58
0
0
0
0
0
0
0
0
0
0
0
0
0
-1.27682e-124
-2.44712e-91
-1.99679e-88
-1.74464e-73
-7.13151e-71
-1.25011e-68
-1.2795e-66
-9.20003e-65
-5.92271e-63
-4.31019e-61
0
0
0
0
0
0
0
0
0
0
0
0
0
0
-8.62495e-126
-1.62099e-92
-1.31667e-89
-1.12761e-74
-4.70628e-72
-8.54683e-70
-9.23545e-68
-7.29397e-66
-5.52732e-64
0
0
0
0
0
0
0
0
0
0
0
0
0
0
0
-5.34162e-127
-1.00994e-93
-8.37687e-91
-7.3616e-76
-3.18379e-73
-6.11031e-71
-7.13971e-69
-6.38177e-67
0
0
0
0
0
0
0
0
0
0
0
0
0
0
0
0
-3.18182e-128
-6.20919e-95
-5.39789e-92
-4.98529e-77
-2.30258e-74
-4.76443e-72
-6.15662e-70
0
0
0
0
0
0
0
0
0
0
0
0
0
0
0
0
0
-1.89918e-129
-3.93129e-96
-3.65822e-93
-3.64236e-78
-1.83895e-75
-4.19243e-73
0
0
0
0
0
0
0
0
0
0
0
0
0
0
0
0
0
0
-1.18065e-130
-2.65073e-97
-2.70753e-94
-2.97742e-79
-1.68308e-76
0
0
0
0
0
0
0
0
0
0
0
0
0
0
0
0
0
0
0
-7.88975e-132
-1.9753e-98
-2.2717e-95
-2.83765e-80
0
0
0
0
0
0
0
0
0
0
0
0
0
0
0
0
0
0
0
0
-5.88265e-133
-1.69254e-99
-2.26107e-96
0
0
0
0
0
0
0
0
0
0
0
0
0
0
0
0
0
0
0
0
0
-5.11709e-134
-1.75869e-100
0
0
0
0
0
0
0
0
0
0
0
0
0
0
0
0
0
0
0
0
0
0
-5.55898e-135
0
0
0
0
0
0
0
0
0
0
0
0
0
0
0
0
0
0
0
0
0
0
0
0
0
0
0
0
0
0
0
0
0
0
0
0
0
0
0
0
0
0
0
0
0
0
0
0
0
0
0
0
0
0
0
0
0
0
0
0
0
0
0
0
0
0
0
0
0
3.4706e-15
2.29753e-15
9.09588e-16
8.46346e-16
1.72956e-12
7.59904e-13
2.96507e-13
8.56065e-14
4.35616e-12
2.11392e-12
1.08381e-12
2.14155e-13
9.66406e-13
5.06574e-13
9.95375e-14
2.85118e-14
8.74203e-13
3.62024e-13
5.14413e-14
5.14249e-15
3.53841e-13
1.04845e-13
3.5087e-14
9.4887e-16
1.1616e-13
6.18394e-14
1.17265e-14
2.54826e-15
1.5415e-14
3.57613e-15
7.19526e-16
2.77657e-16
1.13373e-15
9.33432e-17
2.7852e-17
1.12785e-17
8.60204e-15
1.57023e-15
2.26718e-16
1.90901e-18
3.56993e-16
2.64901e-16
4.51636e-17
3.09842e-19
3.00024e-20
2.77443e-20
1.58921e-20
2.4583e-21
2.07311e-19
1.80452e-20
3.11696e-23
9.42344e-26
1.54074e-32
1.33697e-23
1.04273e-23
1.28294e-24
1.11524e-34
7.1619e-24
4.41956e-24
5.56035e-25
7.47069e-35
-1.35039e-30
-1.71553e-31
-9.91952e-33
-9.73895e-29
-1.30813e-29
-1.17138e-30
-5.82223e-32
-6.91682e-42
-3.70319e-29
-1.4685e-30
-5.05383e-33
-5.98139e-32
-6.50785e-36
-9.62001e-37
-1.00586e-36
-5.59588e-39
-2.67265e-38
-7.09876e-38
-9.34527e-38
-2.68023e-40
-1.22475e-39
-3.65278e-39
-6.50714e-39
-9.47399e-42
-4.67681e-41
-1.64483e-40
-3.44391e-40
-2.23582e-43
-1.29464e-42
-5.70502e-42
-1.3137e-41
-3.50855e-45
-2.44987e-44
-1.36511e-43
-3.54122e-43
-4.00895e-47
-3.40833e-46
-2.27591e-45
-6.76854e-45
-3.14405e-49
-3.38817e-48
-2.68682e-47
-9.32021e-47
-1.70074e-51
-2.37068e-50
-2.27874e-49
-9.39038e-49
-6.44085e-54
-1.18444e-52
-1.40844e-51
-7.01015e-51
-1.72963e-56
-4.26938e-55
-6.4177e-54
-3.92643e-53
-3.35063e-59
-1.11579e-57
-2.16696e-56
-1.66615e-55
-4.884e-62
-2.12817e-60
-5.41095e-59
-5.36011e-58
-5.87205e-65
-3.04069e-63
-9.9527e-62
-1.29617e-60
-6.42067e-68
-3.51446e-66
-1.3569e-64
-2.31807e-63
-6.14898e-71
-3.68152e-69
-1.4341e-67
-2.99481e-66
-4.3356e-74
-3.52563e-72
-1.31247e-70
-2.70374e-69
-1.84145e-77
-2.60961e-75
-1.14361e-73
-1.61224e-72
-3.31105e-81
-1.18633e-78
-8.5338e-77
-5.6658e-76
-2.8342e-97
-2.34984e-82
-4.21448e-80
-8.66155e-80
-2.4001e-101
-2.29146e-98
-9.49555e-84
1.7787e-88
-8.50693e-136
-2.32952e-102
-1.10319e-99
0
0
-1.09326e-136
-1.43931e-103
0
0
0
-9.71087e-138
0
7.18242e-17
2.69187e-17
1.40118e-18
6.13457e-20
1.47657e-22
1.32406e-28
3.24532e-34
6.08949e-35
7.17597e-36
4.1653e-37
3.11546e-38
1.36757e-39
3.46618e-41
4.87334e-43
3.50169e-45
1.00131e-47
9.09388e-58
2.02596e-61
1.235e-64
1.18705e-14
6.02397e-16
9.35301e-17
1.85174e-19
2.21662e-23
1.43046e-27
1.68155e-32
8.32455e-36
2.50262e-36
3.25028e-37
1.99053e-38
5.57232e-40
1.0224e-41
1.80988e-43
8.04897e-46
2.02998e-48
1.52003e-52
2.05241e-57
1.73483e-60
5.72289e-14
5.32587e-15
9.35117e-16
1.84102e-18
8.39484e-24
3.39372e-29
1.14031e-30
3.7964e-31
6.94168e-32
7.43148e-33
1.39415e-34
7.94256e-36
1.94958e-38
4.59463e-40
5.31816e-42
1.47269e-44
1.10662e-51
1.7399e-54
9.74677e-58
1.44602e-15
2.89651e-16
7.94941e-18
2.49498e-20
1.26778e-24
5.42527e-27
2.48465e-27
5.71166e-28
7.07311e-29
4.9372e-30
4.86095e-32
2.40116e-33
6.72074e-37
4.68161e-39
4.52311e-41
1.24595e-43
7.85221e-50
1.73329e-52
1.41754e-55
1.57238e-15
1.97781e-16
1.28786e-18
6.72572e-22
3.81651e-26
8.06024e-27
2.92952e-27
4.82702e-28
4.16584e-29
1.93935e-30
4.51328e-32
3.29034e-35
1.20454e-36
3.78396e-40
2.4111e-42
9.2304e-46
3.06878e-48
4.19802e-51
1.92456e-54
2.31664e-16
1.31987e-17
8.18558e-20
1.94861e-23
2.88108e-25
1.22358e-25
2.96699e-26
3.80982e-27
2.75759e-28
1.11177e-29
2.30507e-31
2.55514e-35
1.41861e-37
2.20443e-40
1.47492e-42
4.70001e-45
1.26903e-47
1.07741e-50
3.11589e-55
1.64592e-16
1.31408e-18
6.0937e-22
3.51062e-24
9.13262e-25
2.75662e-25
3.74884e-26
2.93699e-27
1.34079e-28
3.29911e-30
3.68108e-32
1.08255e-34
1.00099e-39
2.50819e-41
1.35921e-43
5.15793e-46
7.43539e-49
1.92245e-52
4.22658e-56
2.66883e-17
2.95307e-19
2.38423e-22
8.1589e-25
4.53774e-25
1.04971e-25
1.13532e-26
6.50219e-28
1.93879e-29
2.66903e-31
1.19297e-33
1.13635e-36
8.0718e-41
1.30655e-42
8.14875e-45
1.79993e-47
1.26362e-50
8.85385e-54
1.8253e-57
2.00186e-18
2.12399e-20
5.2417e-24
2.09144e-25
1.28613e-25
2.33933e-26
1.87401e-27
7.2326e-29
1.28603e-30
8.91125e-33
2.82351e-35
6.83955e-38
1.08059e-40
2.08033e-43
9.08108e-46
1.70838e-48
2.68266e-51
3.93001e-54
2.19614e-57
6.27562e-20
3.45142e-22
2.33364e-25
1.05414e-25
3.10675e-26
3.74014e-27
1.99751e-28
4.82359e-30
4.974e-32
2.57657e-34
9.39012e-37
2.04054e-39
4.42371e-42
2.21959e-44
1.60814e-47
1.29869e-49
2.72628e-52
3.02348e-55
7.26492e-59
2.10456e-21
9.59138e-25
5.68873e-26
2.77393e-26
5.35537e-27
4.20051e-28
1.4393e-29
2.12786e-31
1.47348e-33
6.91842e-36
1.83324e-38
4.74325e-41
2.72914e-43
9.70155e-46
2.79969e-48
7.40835e-51
1.1721e-53
6.14369e-57
1.31536e-62
5.83746e-23
6.80897e-27
9.95645e-27
4.59775e-27
6.26101e-28
3.19773e-29
6.91904e-31
6.28035e-33
3.34417e-35
1.01384e-37
2.92325e-40
2.0612e-42
9.24613e-45
3.40943e-47
1.09375e-49
2.1926e-52
1.76556e-55
9.86056e-61
1.00691e-64
1.29922e-27
1.01806e-28
1.30243e-27
5.12538e-28
4.85866e-29
1.5629e-30
2.0412e-32
1.18025e-34
3.99425e-37
1.18413e-39
1.07714e-41
5.88674e-44
2.66966e-46
1.01532e-48
2.44693e-51
2.6119e-54
2.60736e-59
7.09531e-63
1.78661e-70
1.8964e-26
1.99359e-28
1.24818e-28
3.87367e-29
2.40876e-30
4.61722e-32
3.31479e-34
1.31373e-36
3.62328e-39
4.21402e-41
2.7203e-43
1.46725e-45
6.49411e-48
1.82898e-50
2.39582e-53
3.68969e-58
1.77418e-61
1.90465e-68
4.19529e-72
8.27336e-27
6.74631e-29
8.81516e-30
1.94502e-30
7.4434e-32
7.85044e-34
3.82063e-36
1.54506e-38
1.48376e-40
1.06597e-42
6.41935e-45
3.14456e-47
9.86671e-50
1.51614e-52
3.36396e-57
2.31856e-60
5.95681e-67
2.72992e-70
2.2625e-74
2.10172e-30
1.41983e-30
4.35323e-31
6.22107e-32
1.35192e-33
9.67029e-36
4.90413e-38
5.08465e-40
3.99233e-42
2.62299e-44
1.40478e-46
4.84163e-49
8.23012e-52
2.55347e-56
2.1118e-59
1.03739e-65
7.11302e-69
1.23039e-72
4.08552e-80
1.27502e-32
2.22627e-32
1.47526e-32
1.2168e-33
1.78985e-35
1.45086e-37
1.72953e-39
1.44989e-41
1.03375e-43
5.93737e-46
2.21454e-48
4.06237e-51
1.84943e-55
1.53994e-58
1.31981e-64
1.16903e-67
2.96114e-71
2.78389e-78
1.42455e-86
5.24146e-34
4.35135e-34
3.2919e-34
1.72484e-35
3.05463e-37
5.35886e-39
5.25164e-41
3.77372e-43
2.46376e-45
9.69111e-48
1.87659e-50
1.38532e-54
9.61687e-58
1.37195e-63
1.402e-66
4.39279e-70
8.61713e-77
1.40153e-84
2.06459e-100
5.01286e-36
1.36359e-35
5.48326e-36
3.18024e-37
1.10848e-38
1.64737e-40
1.48584e-42
8.63963e-45
4.11651e-47
8.23222e-50
1.10421e-53
5.9046e-57
1.38313e-62
1.37399e-65
4.55972e-69
1.72857e-75
5.92429e-83
4.17178e-98
0
7.09725e-38
4.06085e-37
1.3063e-37
1.1492e-38
3.13574e-40
4.5486e-42
3.82558e-44
1.38277e-46
3.35041e-49
7.37287e-53
4.50075e-56
1.73011e-61
1.4062e-64
3.84745e-68
2.58661e-74
1.51018e-81
3.65493e-96
0
0
1.36876e-39
1.68572e-38
5.38175e-39
3.73648e-40
7.43755e-42
1.09819e-43
6.27067e-46
1.44069e-48
3.09697e-52
2.4116e-55
2.51173e-60
1.64189e-63
5.06171e-67
3.13042e-73
2.46173e-80
1.90856e-94
0
0
0
6.95367e-41
6.85038e-40
2.15907e-40
1.19132e-41
1.57864e-43
1.82935e-45
5.27344e-48
3.57941e-51
1.34188e-54
6.04724e-59
1.52386e-62
3.68686e-66
3.22337e-72
7.60072e-79
7.00808e-93
0
0
0
0
2.43103e-42
2.26575e-41
7.05378e-42
3.00601e-43
2.95823e-45
1.65242e-47
1.63745e-50
6.64362e-54
2.09925e-57
1.4469e-61
2.39367e-65
2.91489e-71
1.13624e-77
1.98792e-91
0
0
0
0
0
6.03478e-44
5.76695e-43
1.53461e-43
4.89845e-45
3.79321e-47
6.22259e-50
3.07679e-53
1.55418e-56
1.39971e-60
1.38757e-64
2.35671e-70
1.535e-76
4.64025e-90
0
0
0
0
0
0
1.03679e-45
1.08896e-44
2.10825e-45
4.98236e-47
1.67281e-49
1.24527e-52
9.98198e-56
1.32963e-59
7.07297e-64
1.71252e-69
1.98804e-75
9.3307e-89
0
0
0
0
0
0
0
1.15501e-47
1.43044e-46
1.96257e-47
2.66388e-49
3.98056e-52
4.98497e-55
1.13352e-58
3.06381e-63
5.16831e-71
2.63207e-74
1.66434e-87
0
0
0
0
0
0
0
0
7.35993e-50
1.21272e-48
1.11888e-49
6.96763e-52
1.6027e-54
7.47208e-58
1.07944e-62
6.08534e-68
3.48578e-73
2.6132e-86
0
0
0
0
0
0
0
0
0
1.9799e-52
5.88484e-51
2.95033e-52
8.81305e-55
2.67942e-57
3.45089e-62
2.81247e-67
4.46951e-72
3.72886e-85
0
0
0
0
0
0
0
0
0
0
-2.61586e-55
1.24375e-53
2.54822e-56
3.39798e-57
7.6968e-64
1.05284e-66
5.09887e-71
4.63068e-84
0
0
0
0
0
0
0
0
0
0
0
-4.09199e-57
1.77242e-57
4.81735e-59
1.86112e-61
3.15568e-66
4.61097e-70
4.66547e-83
0
0
0
0
0
0
0
0
0
0
0
0
-2.4781e-59
4.70284e-60
1.32784e-61
6.53717e-66
2.7021e-69
3.44701e-82
0
0
0
0
0
0
0
0
0
0
0
0
0
-1.02529e-61
6.91095e-63
4.08537e-66
7.47613e-69
1.57387e-81
0
0
0
0
0
0
0
0
0
0
0
0
0
0
-2.8689e-64
7.27026e-67
6.26867e-69
3.3312e-81
0
0
0
0
0
0
0
0
0
0
0
0
0
0
0
-5.30411e-67
6.28094e-70
9.63209e-76
0
0
0
0
0
0
0
0
0
0
0
0
0
0
0
0
-6.18771e-70
5.48687e-76
4.28023e-83
0
0
0
0
0
0
0
0
0
0
0
0
0
0
0
0
-4.17023e-73
6.69819e-87
0
0
0
0
0
0
0
0
0
0
0
0
0
0
0
0
0
-1.29828e-76
0
0
0
0
0
0
0
0
0
0
0
0
0
0
0
0
0
0
4.9191e-84
0
0
0
0
0
0
0
0
0
0
0
0
0
0
0
0
0
0
0
0
0
0
0
0
0
0
0
0
0
0
0
0
0
0
0
0
0
0
0
0
0
0
0
0
0
0
0
0
0
0
0
0
0
0
0
0
0
0
0
0
0
0
0
0
0
0
0
0
0
0
0
0
0
0
0
0
0
0
0
0
0
0
0
0
0
0
0
0
0
0
0
0
0
0
)
;

boundaryField
{
    leftWall
    {
        type            alphaContactAngle;
        contactAngleProperties 
        {
            mercury         
            {
                theta0          90;
            }
            air             
            {
                theta0          90;
            }
            oil             
            {
                theta0          90;
            }
        }
        value           nonuniform List<scalar> 
50
(
2.78994e-23
9.71296e-21
9.06698e-19
1.05863e-16
7.70431e-15
1.79173e-13
2.26527e-12
1.49927e-11
4.1184e-11
-4.874e-19
0.0519238
0.754478
1
1
1
1
1
1
1
1
1
1
1
1
0.822605
0.0770337
0
0
0
0
0
0
0
0
0
0
0
0
0
0
0
0
0
0
0
0
0
0
0
0
)
;
    }
    rightWall
    {
        type            alphaContactAngle;
        contactAngleProperties 
        {
            mercury         
            {
                theta0          90;
            }
            air             
            {
                theta0          90;
            }
            oil             
            {
                theta0          90;
            }
        }
        value           nonuniform List<scalar> 
50
(
0
0
0
0
0
0
0
9.13068e-64
1.235e-64
1.73483e-60
9.74677e-58
1.41754e-55
1.92456e-54
3.11589e-55
4.22658e-56
1.8253e-57
2.19614e-57
7.26492e-59
1.31536e-62
1.00691e-64
1.78661e-70
4.19529e-72
2.2625e-74
4.08552e-80
1.42455e-86
2.06459e-100
0
0
0
0
0
0
0
0
0
0
0
0
0
0
0
0
0
0
0
0
0
0
0
0
)
;
    }
    lowerWall
    {
        type            alphaContactAngle;
        contactAngleProperties 
        {
            mercury         
            {
                theta0          90;
            }
            air             
            {
                theta0          90;
            }
            oil             
            {
                theta0          90;
            }
        }
        value           nonuniform List<scalar> 
62
(
2.78994e-23
2.6832e-21
1.08022e-20
4.12487e-20
3.55059e-19
2.85461e-18
1.74524e-17
5.40814e-17
2.76417e-16
1.57244e-15
9.13752e-16
5.69955e-11
1.19989e-10
2.5073e-10
1.369e-10
5.62145e-11
4.03798e-12
1.13272e-14
2.54114e-19
1.06001e-24
2.81147e-26
3.98929e-27
2.00425e-28
2.00425e-28
5.57553e-26
2.62021e-21
1.66652e-21
6.1373e-21
1.5617e-20
1.07845e-20
1.7935e-17
3.4706e-15
2.29753e-15
9.09588e-16
8.46346e-16
4.73337e-42
2.00007e-40
1.16633e-38
6.60991e-38
4.56968e-33
2.36779e-33
5.32653e-34
3.26644e-34
4.73337e-42
1.46143e-40
1.13812e-39
1.2558e-38
5.31519e-41
4.40438e-43
2.27635e-47
9.40536e-49
6.94988e-56
2.06644e-58
1.20486e-60
1.19024e-63
0
0
0
0
0
0
0
)
;
    }
    atmosphere
    {
        type            inletOutlet;
        inletValue      uniform 0;
        value           nonuniform List<scalar> 
46
(
0
0
0
0
0
0
0
0
0
0
0
0
0
0
0
0
0
0
0
0
0
0
0
0
0
-9.71086e-138
0
0
0
0
0
0
0
0
0
0
0
0
0
0
0
0
0
0
0
0
)
;
    }
    defaultFaces
    {
        type            empty;
    }
}


// ************************************************************************* //
