/*--------------------------------*- C++ -*----------------------------------*\
  =========                 |
  \\      /  F ield         | OpenFOAM: The Open Source CFD Toolbox
   \\    /   O peration     | Website:  https://openfoam.org
    \\  /    A nd           | Version:  13
     \\/     M anipulation  |
\*---------------------------------------------------------------------------*/
FoamFile
{
    format      ascii;
    class       volScalarField;
    location    "0.1";
    object      alpha.oil;
}
// * * * * * * * * * * * * * * * * * * * * * * * * * * * * * * * * * * * * * //

dimensions      [];

internalField   nonuniform List<scalar> 
2268
(
0
0
0
0
0
0
0
0
0
0
0
-2.69117e-35
1.50602e-10
5.7042e-10
6.19589e-10
6.30169e-10
6.68004e-10
0.374802
0.989676
1
1
1
1
0
0
0
0
0
0
0
0
0
0
0
-6.79006e-34
-8.60083e-24
-5.23223e-19
-3.64058e-13
9.16375e-19
0.31818
0.918244
1
1
1
1
1
0
0
0
0
0
0
0
0
0
0
0
-2.58406e-32
-1.32767e-22
-9.62899e-18
-1.34299e-19
0.216722
0.869495
1
1
1
1
1
1
0
0
0
0
0
0
0
0
0
0
0
-1.03289e-30
-1.1634e-21
6.10569e-14
0.0520305
0.674461
0.999901
1
1
1
1
1
1
0
0
0
0
0
0
0
0
0
0
0
-3.77019e-29
-3.21368e-21
1.90477e-06
0.306696
0.940847
1
1
1
1
1
1
1
0
0
0
0
0
0
0
0
0
0
0
-9.2371e-28
-7.33136e-28
0.0106298
0.641508
1
1
1
1
1
1
1
1
0
0
0
0
0
0
0
0
0
0
1.35604e-79
-1.30053e-26
0
0.154506
0.862489
1
1
1
1
1
1
1
1
0
0
0
0
0
0
0
0
0
3.15885e-74
1.30408e-63
-4.02653e-39
1.75103e-13
0.344223
0.963822
1
1
1
1
1
1
1
1
1.42745e-13
4.34683e-12
4.50685e-11
3.44056e-10
1.36593e-10
1.15272e-11
1.41518e-12
1.41519e-13
6.2531e-15
1.54781e-16
3.94324e-18
6.28368e-20
7.01546e-22
5.17475e-24
2.3533e-26
5.39855e-29
4.16499e-32
1.81158e-37
1.97848e-41
4.80055e-12
1.96049e-10
1.53576e-09
3.93369e-09
1.27087e-08
-7.82978e-13
1.00331e-12
3.47334e-12
3.5694e-13
1.71895e-14
4.97109e-16
1.16281e-17
1.67118e-19
1.62646e-21
9.97218e-24
3.57628e-26
6.06347e-29
2.89049e-32
9.2564e-38
1.76063e-10
1.9822e-09
1.10716e-08
1.51368e-08
1.03052e-07
5.30211e-08
1.55597e-08
2.10997e-10
3.25012e-11
1.82346e-12
3.37667e-14
7.09188e-16
1.88993e-17
2.68974e-19
2.43131e-21
1.17261e-23
2.40657e-26
1.3535e-29
1.65636e-35
1.41485e-09
7.41479e-09
1.743e-08
2.43303e-08
2.66067e-07
1.30223e-07
1.10554e-07
1.30148e-08
1.08951e-09
6.04248e-11
2.0179e-12
4.7191e-14
8.9658e-16
1.36649e-17
1.48377e-19
1.00177e-21
3.5294e-24
5.19703e-27
2.14965e-30
2.2108e-08
1.37096e-07
1.28744e-07
1.74242e-07
3.8356e-06
9.69661e-06
1.32703e-06
1.92253e-07
2.00083e-08
1.13177e-09
3.49087e-11
4.42066e-13
6.86615e-15
3.99454e-16
6.57719e-18
4.86867e-20
2.02486e-22
3.74294e-25
1.99203e-28
1.50101e-08
1.61232e-08
0.0320963
0.00158534
2.21142e-06
2.13913e-05
3.01745e-07
5.49929e-10
3.80925e-10
4.19904e-11
2.20894e-12
1.77872e-13
1.07063e-14
4.28797e-16
1.08619e-17
1.6964e-19
1.48718e-21
6.34991e-24
9.52853e-27
1.61231e-08
0.269011
0.705865
0.524226
0.0523636
2.03716e-15
1.22508e-12
5.31267e-12
1.1313e-11
2.45234e-12
3.83184e-13
3.89578e-14
2.38523e-15
9.0697e-17
2.11925e-18
2.87795e-20
2.08442e-22
6.89123e-25
7.20963e-28
0.597722
0.889816
1
0.996667
0.218293
2.69317e-07
-6.69562e-12
4.85042e-11
1.73912e-11
3.24081e-12
3.73419e-13
2.9235e-14
1.62875e-15
6.38565e-17
1.69982e-18
2.96219e-20
3.20866e-22
1.94003e-24
4.90894e-27
0
0
0
0
0
0
0
0
4.95666e-69
3.53456e-64
2.11412e-58
-8.17458e-25
0.00179068
0.600018
0.999998
0.999999
1
1
1
1
1
1
1
0
0
0
0
0
0
0
3.68211e-69
1.41068e-64
1.82224e-57
2.34526e-56
-6.85873e-24
0.108478
0.802574
1
1
1
1
1
1
1
1
1
0
0
0
0
0
0
4.71396e-70
2.80094e-63
8.84299e-59
2.29653e-53
2.24509e-54
-3.96188e-23
0.147771
0.857284
0.999797
0.999998
1
1
1
1
1
1
1
0
0
0
0
0
1.31731e-75
7.48047e-66
1.19757e-59
2.87741e-55
1.27252e-51
1.18404e-52
-1.5293e-22
0.104624
0.849373
0.999462
0.99989
1
1
1
1
1
1
1
0
0
0
0
4.45809e-73
2.41102e-69
3.76631e-64
7.33124e-58
3.83137e-53
4.27753e-50
3.13334e-51
-3.55913e-22
0.0673672
0.800392
0.99999
1
1
1
1
1
1
1
1
0
0
0
2.87142e-71
2.56074e-67
1.40013e-64
3.34255e-61
2.35244e-55
1.07607e-51
9.11341e-49
1.49048e-48
-3.7779e-22
0.0682294
0.795722
1
1
1
1
1
1
1
1
1
0
0
4.63219e-71
9.72476e-69
4.83745e-65
1.29504e-60
2.46167e-57
1.09343e-53
9.88938e-50
1.00593e-46
5.11594e-47
-6.01185e-48
0.0936824
0.82378
1
1
1
1
1
1
1
1
1
0
1.17771e-79
1.84533e-69
4.76583e-65
1.16161e-61
1.36818e-58
2.5644e-55
1.10084e-51
3.25743e-48
2.47117e-45
3.0076e-44
-6.15174e-46
0.133514
0.865271
1
1
1
1
1
1
1
1
1
1.30162e-75
1.2231e-72
3.97983e-68
2.20064e-63
2.13369e-60
6.85136e-56
3.59206e-54
1.52665e-50
9.73629e-47
5.78743e-42
9.12902e-42
-1.31493e-59
0.184847
0.905795
1
1
1
1
1
1
1
1
1
4.85677e-71
3.45558e-67
6.91735e-63
6.90141e-59
9.04751e-58
7.68572e-52
1.64539e-51
2.80916e-48
5.82633e-43
8.67274e-41
1.56569e-39
-7.2008e-41
0.250692
0.942219
1
1
1
1
1
1
1
1
1
1.90084e-68
1.61362e-64
1.45276e-60
1.13935e-55
5.84213e-54
5.0254e-50
1.3622e-47
1.04493e-44
3.26438e-41
9.40447e-39
1.45984e-36
-6.74722e-39
0.330568
0.970561
1
1
1
1
1
1
1
1
1
3.44778e-65
3.86546e-62
1.99367e-58
1.92342e-53
1.31524e-51
3.44108e-48
3.14627e-45
2.39667e-42
2.18916e-39
1.73813e-37
7.74015e-35
-1.49916e-36
0.4235
0.989125
1
1
1
1
1
1
1
1
1
1.10264e-61
7.41634e-60
2.80746e-56
1.02864e-51
1.62187e-49
3.0007e-46
3.49736e-43
2.35269e-40
1.51405e-37
4.32565e-36
5.71601e-33
-1.52632e-34
0.528773
0.998194
1
1
1
1
1
1
1
1
1
5.88018e-60
1.32849e-57
3.93509e-54
2.44869e-50
1.45453e-47
2.48687e-44
2.35547e-41
1.44716e-38
8.08505e-36
1.44604e-34
2.71861e-31
-7.47709e-33
0.64022
1
1
1
1
1
1
1
1
1
1
3.45718e-58
1.74801e-56
5.03581e-53
1.94217e-49
1.72204e-46
1.50306e-42
1.15946e-39
6.7401e-37
3.29614e-34
1.12266e-31
7.60229e-29
-2.27135e-31
0.73025
0.999978
1
1
1
1
1
1
1
1
1
1.23346e-55
2.28071e-53
4.12333e-50
3.33864e-48
8.71883e-44
7.00937e-41
4.80052e-38
2.64359e-35
1.09069e-32
2.78345e-30
7.6904e-28
-3.36052e-46
0.771073
0.999555
0.999999
1
1
1
1
0.99592
0.975076
0.935492
0.930978
2.1931e-50
3.82649e-48
5.27374e-45
4.54131e-44
4.03176e-39
2.3335e-36
1.02857e-33
3.4725e-31
7.76276e-29
1.10886e-26
3.15038e-25
2.16823e-43
0.638956
0.860761
0.860793
0.834386
0.782174
0.706283
0.587361
0.44552
0.31296
0.202151
0.173499
4.50305e-47
8.33919e-45
7.45935e-42
3.68858e-39
4.15787e-36
1.90047e-33
5.95493e-31
1.36232e-28
2.02245e-26
1.99522e-24
2.31294e-23
-2.9965e-45
0.0627158
0.111983
0.11058
0.0875573
0.0512355
0.0130405
1.54271e-15
2.14243e-22
2.74067e-21
1.03486e-27
-1.94416e-26
1.71084e-45
3.05805e-43
1.23257e-40
4.77031e-38
1.25121e-34
4.92006e-32
1.286e-29
2.40362e-27
2.93413e-25
2.42626e-23
2.55574e-22
1.22205e-20
-8.20331e-35
-2.86871e-11
-2.17488e-12
-9.71731e-14
3.86231e-25
3.32964e-23
5.27138e-12
7.50916e-11
5.24009e-10
9.03075e-10
1.39859e-09
7.20095e-44
1.01445e-41
6.07867e-39
5.42582e-36
3.4725e-33
1.14485e-30
2.50143e-28
3.87349e-26
3.96942e-24
2.80841e-22
1.47445e-20
5.25548e-19
1.34084e-17
3.12067e-16
6.0769e-15
9.83568e-14
1.29453e-12
1.41096e-11
1.19797e-10
6.50529e-10
1.85349e-09
2.46153e-09
2.44091e-09
1.70086e-42
3.42889e-40
2.26722e-37
1.85224e-34
8.55903e-32
2.35868e-29
4.07605e-27
4.59895e-25
3.50724e-23
1.87792e-21
7.44219e-20
2.32287e-18
5.91216e-17
1.28738e-15
2.253e-14
3.21914e-13
3.53257e-12
2.928e-11
1.75886e-10
6.89679e-10
1.53497e-09
1.80399e-09
1.10551e-09
1.75369e-41
7.49041e-39
5.09426e-36
2.46099e-33
7.30208e-31
1.37543e-28
1.71491e-26
1.45519e-24
8.5806e-23
3.59674e-21
1.1064e-19
2.59924e-18
4.71395e-17
4.83866e-16
6.92066e-15
6.30668e-14
3.94214e-13
1.85058e-12
5.27864e-12
8.96072e-12
1.86937e-11
4.92106e-11
2.43417e-11
1.00498e-43
1.06003e-40
7.90433e-38
3.7101e-35
1.11938e-32
2.24925e-30
3.08995e-28
2.96039e-26
2.01583e-24
9.95636e-23
3.64593e-21
1.01346e-19
2.18342e-18
3.45425e-17
3.73549e-16
2.89227e-15
3.34049e-14
1.54573e-13
5.19049e-13
1.25399e-12
1.79642e-12
1.71601e-12
1.93926e-12
8.12799e-44
6.0144e-41
2.5656e-38
7.1737e-36
1.39407e-33
1.94592e-31
1.99124e-29
1.51545e-27
8.68226e-26
3.7856e-24
1.26745e-22
3.27563e-21
6.54049e-20
1.00582e-18
1.18696e-17
8.48664e-17
7.47044e-16
3.65322e-15
1.33377e-14
3.4523e-14
6.91495e-14
9.54681e-14
1.08428e-13
1.68668e-46
1.58215e-43
7.56389e-41
2.31332e-38
4.90065e-36
7.46012e-34
8.33209e-32
6.9255e-30
4.33341e-28
2.06151e-26
5.93684e-25
1.64091e-23
4.66306e-22
5.23957e-21
1.03608e-19
1.00365e-18
7.54079e-18
4.24358e-17
1.77577e-16
5.51882e-16
1.2361e-15
2.63539e-15
4.73387e-15
1.45687e-49
1.58712e-46
8.28381e-44
2.69673e-41
6.03513e-39
9.73654e-37
6.93957e-35
8.04942e-33
3.14165e-31
3.80351e-29
1.52651e-27
4.78497e-26
1.15967e-24
2.1804e-23
3.20395e-22
3.69932e-21
3.33048e-20
2.28536e-19
1.17855e-18
4.7688e-18
1.68543e-17
5.40574e-17
1.4955e-16
5.09156e-53
7.1168e-50
4.52776e-47
1.74116e-44
4.50838e-42
8.29097e-40
1.11596e-37
1.12064e-35
8.51908e-34
4.96832e-32
2.25172e-30
8.01906e-29
2.25878e-27
5.0312e-26
8.80683e-25
1.19908e-23
1.25409e-22
1.00997e-21
6.6444e-21
3.14053e-20
2.1733e-19
9.71354e-19
3.97989e-18
9.15819e-57
1.68515e-53
1.34731e-50
6.30344e-48
1.94077e-45
4.17755e-43
6.51769e-41
7.5519e-39
6.61875e-37
4.45411e-35
2.3305e-33
9.57564e-32
3.11125e-30
8.02369e-29
1.64433e-27
2.67894e-26
3.48048e-25
3.64821e-24
3.18036e-23
2.44673e-22
1.77572e-21
1.21621e-20
7.19818e-20
9.07485e-61
2.27247e-57
2.36043e-54
1.38783e-51
5.24823e-49
1.36762e-46
2.5629e-44
3.55468e-42
3.72438e-40
2.99241e-38
1.86441e-36
8.74303e-35
3.05303e-33
8.73659e-32
2.23454e-30
4.71547e-29
7.5981e-28
9.815e-27
1.11156e-25
1.17325e-24
1.19212e-23
1.12459e-22
9.12467e-22
4.96625e-65
1.77176e-61
2.48214e-58
1.89313e-55
9.02784e-53
2.90587e-50
6.6255e-48
1.10584e-45
1.38321e-43
1.31917e-41
9.7185e-40
5.58909e-38
2.53305e-36
9.13906e-35
2.65862e-33
6.34896e-32
1.27739e-30
2.24185e-29
3.561e-28
5.23815e-27
7.10196e-26
8.5928e-25
8.81668e-24
1.43448e-69
7.79749e-66
1.5449e-62
1.58626e-59
9.83657e-57
4.01549e-54
1.14016e-51
2.33896e-49
3.5637e-47
4.11127e-45
3.63418e-43
2.48195e-41
1.32544e-39
5.66554e-38
2.01014e-36
6.15993e-35
1.67745e-33
4.12181e-32
9.22412e-31
1.87672e-29
3.40249e-28
5.34641e-27
7.08923e-26
1.93777e-74
1.81144e-70
5.44642e-67
7.90372e-64
6.61589e-61
3.53199e-58
1.2824e-55
3.3079e-53
6.25209e-51
8.86568e-49
9.63141e-47
8.19212e-45
5.59467e-43
3.16035e-41
1.52484e-39
6.46199e-38
2.44378e-36
8.25829e-35
2.4718e-33
6.4679e-32
1.46099e-30
2.80727e-29
4.5106e-28
1.79981e-82
9.89969e-76
6.13734e-72
1.35003e-68
1.59199e-65
1.17202e-62
5.75751e-60
1.9697e-57
4.87678e-55
8.97041e-53
1.25058e-50
1.36899e-48
1.25157e-46
1.0169e-44
7.46923e-43
4.82767e-41
2.66776e-39
1.24742e-37
4.94562e-36
1.22527e-34
3.56572e-33
1.09787e-31
2.21662e-30
0
1.2061e-83
4.38541e-77
2.02782e-73
3.67537e-70
3.74786e-67
2.47158e-64
1.11485e-61
3.56301e-59
8.41469e-57
1.55181e-54
2.37533e-52
3.12614e-50
3.67495e-48
3.80397e-46
3.32267e-44
2.44235e-42
1.49495e-40
7.73428e-39
1.5388e-37
1.25353e-35
3.72965e-34
9.41433e-33
0
0
2.24937e-82
1.98435e-78
5.48908e-75
7.65197e-72
6.59557e-69
3.93621e-66
1.72195e-63
5.37412e-61
1.19015e-58
1.84438e-56
2.46427e-54
4.174e-52
7.621e-50
1.11774e-47
1.26534e-45
1.14291e-43
8.3829e-42
3.26118e-40
1.91311e-38
1.02816e-36
2.45157e-35
0
0
0
3.7823e-84
2.82209e-80
7.08546e-77
9.28638e-74
7.75754e-71
4.61896e-68
2.13373e-65
7.99555e-63
2.5282e-60
6.9187e-58
1.64867e-55
3.34734e-53
5.6359e-51
7.77021e-49
5.91522e-47
2.21197e-45
2.91223e-43
2.87573e-41
1.95274e-39
9.68682e-38
0
0
0
0
3.08478e-89
5.50869e-85
1.658e-81
2.31245e-78
1.65759e-75
5.3479e-71
1.01448e-67
6.4499e-65
3.02073e-62
1.17274e-59
3.67421e-57
9.56395e-55
1.65617e-52
1.72821e-50
2.20674e-48
3.61431e-46
4.2266e-44
3.43241e-42
2.17564e-40
0
0
0
0
0
1.70977e-88
1.16586e-84
2.91258e-81
3.96525e-78
3.77656e-75
2.25304e-72
1.95811e-69
1.82328e-66
1.15957e-63
5.17919e-61
1.78384e-58
4.99415e-56
6.42447e-54
1.5119e-51
2.00748e-49
2.81562e-47
3.83625e-45
3.64769e-43
0
0
0
0
0
0
3.70716e-91
2.73423e-87
4.69639e-84
6.66108e-81
1.15512e-77
1.59534e-74
2.7122e-71
3.25755e-68
2.5044e-65
1.36592e-62
5.77612e-60
1.97467e-57
5.5059e-55
1.25124e-52
2.32374e-50
2.59154e-48
2.06684e-46
0
0
0
0
0
0
0
2.51021e-94
2.206e-90
7.33617e-87
1.01543e-83
3.28958e-80
1.40196e-76
3.43528e-73
4.81006e-70
3.7004e-67
2.36029e-64
1.40613e-61
6.92779e-59
2.67649e-56
8.17106e-54
2.01367e-51
4.07397e-49
0
0
0
0
0
0
0
0
2.10527e-98
2.61538e-94
1.24441e-90
3.28219e-87
4.54506e-83
3.56894e-79
1.37852e-75
2.98248e-72
4.24668e-69
4.50607e-66
3.84485e-63
2.70104e-60
1.54526e-57
7.06616e-55
2.55965e-52
0
0
0
0
0
0
0
0
0
3.61699e-105
1.12485e-100
1.35007e-96
8.01526e-93
1.29493e-87
2.97199e-83
3.13872e-79
1.85505e-75
7.26017e-72
2.12823e-68
4.98761e-65
9.34584e-62
1.32773e-58
6.89501e-56
1
1
1
1
1
1
1
1
1
1
1
1
1
1
1
1
1
1
1
1
1
1
1
1
1
1
1
1
1
1
1
1
1
1
1
1
1
1
1
0.993788
1
1
0.999999
0.52769
1
1
0.756711
0.0609392
1
0.956528
0.23398
3.82436e-07
1
0.611143
0.0183853
1.78458e-07
0.968359
0.296054
6.30844e-07
3.04523e-08
0.696591
0.147278
2.46432e-07
1.46398e-07
0.145602
0.0639009
6.70157e-07
3.5242e-07
-3.73226e-10
0.00900997
0.00240263
-5.66486e-10
7.33618e-09
-1.61673e-09
2.70747e-10
5.18438e-11
3.03864e-09
3.16597e-09
1.44879e-09
1.63554e-11
4.27365e-10
1.78477e-10
8.47326e-11
2.20237e-12
1.57867e-11
1.21247e-11
2.57679e-12
5.51523e-13
1.40454e-12
9.45937e-13
5.16789e-13
8.65089e-14
1.00234e-13
7.4926e-14
3.40065e-14
8.80076e-15
6.85874e-15
6.11019e-15
3.04897e-15
6.18269e-16
3.42391e-16
4.00534e-16
2.56824e-16
3.08795e-17
1.27419e-17
1.92559e-17
1.50678e-17
1.11361e-18
3.28982e-19
6.60144e-19
6.59144e-19
2.96765e-20
5.88192e-21
1.61259e-20
2.0694e-20
6.04003e-22
7.29878e-23
2.62873e-22
4.31897e-22
9.66603e-24
7.5154e-25
3.23492e-24
5.8823e-24
1.23017e-25
6.03781e-27
3.43152e-26
7.39959e-26
1.23725e-27
3.92178e-29
2.95029e-28
8.49232e-28
9.69404e-30
2.0857e-31
2.04368e-30
7.76224e-30
5.81682e-32
9.69331e-34
1.15821e-32
5.6539e-32
2.61628e-34
3.46808e-36
5.24429e-35
3.16259e-34
8.59638e-37
6.59102e-39
2.18611e-37
1.48823e-36
2.02307e-39
2.71605e-41
7.79396e-40
7.13136e-39
3.4386e-42
5.00602e-44
2.19396e-42
3.11117e-41
4.33719e-45
6.935e-47
4.79479e-45
1.0538e-43
3.62877e-48
7.64164e-50
8.87573e-48
2.94696e-46
1.18065e-51
5.69443e-53
1.30236e-50
7.81594e-49
4.16214e-55
1
1
1
1
0.294872
5.58455e-07
5.67988e-11
5.72986e-10
3.25704e-10
6.80903e-11
7.71653e-12
5.54623e-13
2.87146e-14
1.16567e-15
3.61765e-17
7.82459e-19
1.07123e-20
8.22606e-23
2.66822e-25
1
1
1
0.873893
0.132645
4.79406e-07
1.07016e-10
8.4974e-10
4.07746e-10
7.27582e-11
6.07754e-12
3.06942e-13
1.39773e-14
4.99382e-16
1.18814e-17
2.22024e-19
2.78665e-21
1.97355e-23
5.82658e-26
1
1
1
0.42413
5.81067e-07
6.46185e-09
5.48443e-09
3.28113e-09
7.36127e-10
8.45896e-11
1.90662e-12
1.25319e-13
3.28984e-15
1.36745e-16
3.77949e-18
6.8277e-20
7.67299e-22
4.68703e-24
1.15907e-26
1
1
0.835311
0.0926877
2.53075e-07
4.59287e-09
6.15379e-09
2.19611e-09
3.56516e-10
3.15468e-11
5.54318e-13
3.35033e-14
1.25825e-15
5.69922e-17
1.5232e-18
2.53596e-20
2.57461e-22
1.41801e-24
3.17581e-27
1
1
0.41198
5.64531e-07
2.2044e-09
4.61754e-09
3.37062e-09
8.52209e-10
1.05359e-10
7.62755e-12
3.77809e-13
8.35119e-15
7.22422e-16
2.95446e-17
7.81523e-19
1.19567e-20
1.12183e-22
5.74856e-25
1.20517e-27
1
0.805907
0.0810401
1.71659e-07
1.97459e-09
2.78769e-09
1.22705e-09
2.35343e-10
2.59383e-11
2.07014e-12
1.42638e-13
4.42029e-15
3.27846e-16
1.17859e-17
2.70034e-19
3.6331e-21
2.99016e-23
1.33667e-25
2.42219e-28
1
0.395266
6.28042e-07
3.53932e-09
3.04437e-09
1.96915e-09
5.3589e-10
8.77225e-11
1.09479e-11
1.01912e-12
7.34269e-14
3.78412e-15
8.67545e-17
4.64385e-18
9.55182e-20
1.15645e-21
8.50941e-24
3.39138e-26
5.51063e-29
0.850737
0.0808107
1.82845e-07
1.15175e-09
4.44007e-09
1.58972e-09
3.32673e-10
5.04849e-11
6.06045e-12
5.35272e-13
3.65232e-14
1.66521e-15
3.2615e-17
1.4899e-18
2.63104e-20
2.75943e-22
1.76783e-24
6.23622e-27
9.07988e-30
0.492759
5.10517e-07
4.38593e-09
5.71018e-09
3.81045e-09
1.10843e-09
2.05468e-10
2.86822e-11
3.04323e-12
2.40387e-13
1.42678e-14
5.5033e-16
1.57627e-17
3.44509e-19
4.88767e-21
4.43488e-23
2.54038e-25
8.10412e-28
1.0401e-30
0.15189
1.81672e-07
5.70897e-09
6.18042e-09
2.69791e-09
6.45562e-10
1.06403e-10
1.28417e-11
1.18953e-12
8.18739e-14
4.0346e-15
1.32677e-16
3.21038e-18
5.57723e-20
3.58383e-22
5.30494e-24
2.72615e-26
7.55715e-29
8.05637e-32
0.00361851
2.8764e-09
6.03323e-09
4.58295e-09
1.50136e-09
3.0469e-10
4.35436e-11
4.49595e-12
3.59201e-13
2.04576e-14
8.15745e-16
2.25904e-17
4.52323e-19
6.48754e-21
6.75259e-23
4.81792e-25
2.10599e-27
4.79282e-30
4.0694e-33
2.16245e-07
2.95028e-09
4.85384e-09
2.51357e-09
6.74835e-10
1.15323e-10
1.37642e-11
1.19526e-12
7.43655e-14
3.51573e-15
1.18287e-16
2.75987e-18
4.63747e-20
5.80514e-22
5.25776e-24
3.16164e-26
1.12879e-28
2.04737e-31
1.33818e-34
7.29397e-10
2.96362e-09
2.65028e-09
1.09168e-09
2.45435e-10
3.45952e-11
3.35608e-12
2.39655e-13
1.15839e-14
4.6947e-16
1.29149e-17
2.48897e-19
3.60035e-21
3.9063e-23
2.98766e-25
1.47194e-27
4.19711e-30
5.87367e-33
2.87216e-36
7.30828e-10
1.79309e-09
1.10647e-09
3.82899e-10
7.16374e-11
8.28575e-12
6.44477e-13
3.70053e-14
1.49666e-15
4.8002e-17
1.04454e-18
1.6971e-20
2.11208e-22
1.94588e-24
1.23035e-26
4.86858e-29
1.07232e-31
1.12946e-34
4.24627e-38
7.20052e-10
8.7675e-10
3.89552e-10
1.10028e-10
1.76406e-11
1.68637e-12
1.05694e-13
4.85444e-15
1.64141e-16
3.89688e-18
6.74581e-20
8.96962e-22
9.29094e-24
7.16666e-26
3.67628e-28
1.12645e-30
1.87062e-33
1.54591e-36
4.68798e-40
4.08108e-10
3.6129e-10
1.17879e-10
2.74299e-11
3.65353e-12
2.91357e-13
1.48118e-14
5.33929e-16
1.42889e-17
2.69422e-19
3.72135e-21
4.01239e-23
3.48095e-25
2.17079e-27
8.54623e-30
1.95299e-32
2.55287e-35
1.74294e-38
4.6375e-42
6.46386e-09
1.06147e-10
3.19003e-11
6.10676e-12
6.3637e-13
4.24369e-14
1.75303e-15
4.94362e-17
1.04937e-18
1.60007e-20
1.76589e-22
1.53899e-24
1.08262e-26
5.2134e-29
1.53236e-31
2.79032e-34
3.08085e-37
1.85858e-40
4.17736e-44
3.82627e-10
2.20886e-11
7.7549e-12
1.21811e-12
9.35256e-14
5.18952e-15
1.73781e-16
3.92832e-18
6.50037e-20
7.99737e-22
7.26564e-24
5.18829e-26
2.7475e-28
9.55049e-31
2.23779e-33
3.54257e-36
3.47226e-39
1.72081e-42
2.83622e-46
1.05296e-10
4.39345e-12
1.66773e-12
2.11872e-13
1.17698e-14
5.31551e-16
1.43619e-17
2.68799e-19
3.43815e-21
3.30724e-23
2.59192e-25
1.55048e-27
5.65426e-30
1.46975e-32
2.9557e-35
4.02443e-38
3.30327e-41
1.10278e-44
1.3425e-48
2.14001e-11
9.82541e-13
3.02915e-13
3.08006e-14
1.29257e-15
4.56101e-17
9.91599e-19
1.54727e-20
1.59654e-22
1.15734e-24
7.85576e-27
3.87541e-29
1.08867e-31
2.45664e-34
3.52329e-37
3.36008e-40
2.51206e-43
3.84851e-47
5.71388e-51
4.11172e-12
1.91377e-13
4.40402e-14
3.61315e-15
1.23634e-16
3.2915e-18
5.76031e-20
7.33425e-22
6.38853e-24
3.61823e-26
2.03128e-28
7.92411e-31
2.09459e-33
4.09206e-36
3.59158e-39
2.51844e-42
1.7097e-45
3.39575e-49
1.98038e-53
8.01823e-13
2.76365e-14
4.91816e-15
3.36238e-16
9.95395e-18
2.00888e-19
2.83244e-21
2.88995e-23
2.0417e-25
1.03169e-27
4.59891e-30
1.3827e-32
3.12605e-35
5.11225e-38
4.70659e-41
2.7321e-44
9.09049e-48
1.16178e-51
-3.95146e-61
1.1879e-13
2.96569e-15
4.13507e-16
2.49103e-17
6.46233e-19
1.03819e-20
1.18178e-22
9.68779e-25
5.07274e-27
2.4785e-29
8.54939e-32
2.18175e-34
4.0919e-37
5.21538e-40
3.38398e-43
1.67563e-46
2.89921e-50
-1.71727e-59
-1.20729e-64
1.2386e-14
2.42511e-16
2.63167e-17
1.49636e-18
3.29231e-20
4.50319e-22
4.16986e-24
2.7749e-26
1.0479e-28
4.5903e-31
1.39769e-33
2.94539e-36
4.30211e-39
3.9824e-42
2.05705e-45
4.61581e-49
-3.17151e-58
-4.30398e-63
-2.13976e-67
9.27014e-16
1.53005e-17
1.30934e-18
7.36131e-20
1.30978e-21
1.60732e-23
1.22533e-25
6.70255e-28
1.99817e-30
6.89341e-33
1.89213e-35
3.12515e-38
3.31108e-41
2.01343e-44
5.41784e-48
-3.7811e-57
-6.46257e-62
-7.48441e-66
-1.84238e-72
5.06054e-17
7.40215e-19
5.31639e-20
2.8995e-21
4.14353e-23
4.59842e-25
2.92114e-27
1.32636e-29
3.78375e-32
7.96642e-35
1.96661e-37
2.37323e-40
1.64219e-43
5.06994e-47
-3.35577e-56
-6.28961e-61
-1.08757e-64
-9.25925e-71
-2.67497e-75
2.02314e-18
2.68151e-20
1.78009e-21
8.74512e-23
1.07006e-24
1.02673e-26
5.48452e-29
2.07213e-31
5.70141e-34
7.19356e-37
1.44556e-39
1.13498e-42
3.92287e-46
-2.37059e-55
-4.54749e-60
-1.01926e-63
-1.88296e-69
-1.30513e-73
-2.92008e-80
5.9567e-20
7.09628e-22
4.71002e-23
1.95169e-24
2.23133e-26
1.7479e-28
7.87506e-31
2.45048e-33
5.33576e-36
5.60558e-39
6.65842e-42
2.5524e-45
-1.38119e-54
-2.61307e-59
-7.0783e-63
-2.43568e-68
-2.5545e-72
-2.88774e-78
-3.35724e-83
1.31417e-21
1.35623e-23
9.28956e-25
3.19328e-26
3.52737e-28
2.22282e-30
8.37824e-33
2.08972e-35
3.40418e-38
3.27424e-41
1.396e-44
-6.71879e-54
-1.23139e-58
-3.8965e-62
-2.31144e-67
-3.19736e-71
-1.07729e-76
-3.03931e-81
2.0912e-90
2.23606e-23
1.8781e-25
1.31708e-26
3.85265e-28
3.96933e-30
2.0645e-32
6.34295e-35
1.203e-37
1.31702e-40
6.32013e-44
-2.70683e-53
-4.74359e-58
-1.75521e-61
-1.7369e-66
-2.94304e-70
-2.42918e-75
-1.03029e-79
3.31867e-88
6.04126e-94
3.03203e-25
1.90658e-27
1.33182e-28
3.43026e-30
3.12278e-32
1.35413e-34
3.21475e-37
4.16795e-40
2.31139e-43
-8.73998e-53
-1.32735e-57
-6.54788e-61
-1.09983e-65
-2.16948e-69
-3.85781e-74
-2.13036e-78
1.89068e-86
8.39664e-92
1.4035e-96
3.35728e-27
1.4363e-29
9.69234e-31
2.22071e-32
1.73151e-34
5.92198e-37
9.76521e-40
6.54382e-43
-1.86106e-52
1.1612e-57
-2.03419e-60
-6.44455e-65
-1.3904e-68
-4.66704e-73
-3.13038e-77
6.47629e-85
4.22961e-90
1.83889e-94
1.42514e-99
3.05955e-29
8.10107e-32
5.10968e-33
1.01694e-34
6.40751e-37
1.54858e-39
1.34615e-42
5.04421e-52
9.62319e-56
-5.63726e-60
-4.17416e-64
-8.75027e-68
-4.46233e-72
-3.51045e-76
1.56266e-83
1.28681e-88
8.64196e-93
1.76996e-97
0
2.27738e-31
3.45585e-34
1.93191e-35
3.13092e-37
1.42184e-39
1.83412e-42
1.70378e-50
1.86087e-54
-2.03163e-59
-3.55347e-63
-6.26403e-67
-3.42243e-71
-3.09752e-75
2.85336e-82
2.75155e-87
2.44778e-91
7.76083e-96
0
0
1.36373e-33
9.90584e-37
4.73905e-38
5.65193e-40
1.43549e-42
3.21768e-49
-1.08778e-56
-1.49725e-58
-3.63669e-62
-5.43133e-66
-2.18184e-70
-2.17483e-74
4.10127e-81
4.47621e-86
4.88416e-90
2.05245e-94
0
0
0
6.4584e-36
7.64102e-40
1.22687e-41
6.03874e-45
5.27988e-49
-8.26252e-57
-1.49851e-57
-3.7505e-61
-5.10437e-65
-1.11996e-69
-1.25289e-73
4.8146e-80
3.80993e-86
7.44058e-89
3.849e-93
0
0
0
0
2.37634e-38
6.36735e-42
1.21027e-43
6.61818e-47
6.96894e-51
-1.38088e-56
-3.51588e-60
-4.6729e-64
-4.51803e-69
-5.91482e-73
4.75644e-79
6.15711e-84
9.0551e-88
5.51696e-92
0
0
0
0
0
6.65009e-41
1.05927e-44
1.19336e-46
5.94685e-50
-9.62678e-56
-2.7852e-59
-3.8182e-63
-1.37306e-68
-2.16397e-72
4.38355e-78
5.41303e-83
9.03193e-87
6.3707e-91
0
0
0
0
0
0
1.37331e-43
1.18075e-47
8.36928e-50
-3.4807e-55
-1.61699e-58
-2.59511e-62
-2.94533e-68
-5.84039e-72
3.41097e-77
4.44528e-82
7.39929e-86
5.98554e-90
0
0
0
0
0
0
0
1.99097e-46
6.29112e-51
-2.89722e-55
-4.78216e-58
-1.26388e-61
-3.92277e-68
-1.04938e-71
2.20609e-76
3.11831e-81
5.58808e-85
4.60148e-89
0
0
0
0
0
0
0
0
1.83723e-49
-1.90141e-56
-3.2106e-58
-3.09423e-61
-2.08779e-68
-8.77124e-72
1.16655e-75
1.8005e-80
3.6299e-84
3.21867e-88
0
0
0
0
0
0
0
0
0
8.30395e-53
-1.66052e-59
-1.69374e-61
1.15869e-68
8.45393e-72
4.61793e-75
6.75368e-80
1.91095e-83
1.935e-87
0
0
0
0
0
0
0
0
0
0
)
;

boundaryField
{
    leftWall
    {
        type            alphaContactAngle;
        contactAngleProperties 
        {
            mercury         
            {
                theta0          90;
            }
            air             
            {
                theta0          90;
            }
            water           
            {
                theta0          90;
            }
        }
        value           nonuniform List<scalar> 
50
(
0
0
0
0
0
0
0
0
0
0
0
0
0
0
0
0
1.30162e-75
4.85677e-71
1.90084e-68
3.44778e-65
1.10264e-61
5.88018e-60
3.45718e-58
1.23346e-55
2.1931e-50
4.50305e-47
1.71084e-45
7.20095e-44
1.70086e-42
1.75369e-41
1.00498e-43
8.12799e-44
1.68668e-46
1.45687e-49
5.09156e-53
9.15819e-57
9.07485e-61
4.96625e-65
1.43448e-69
1.93777e-74
1.79981e-82
0
0
0
0
0
0
0
0
0
)
;
    }
    rightWall
    {
        type            alphaContactAngle;
        contactAngleProperties 
        {
            mercury         
            {
                theta0          90;
            }
            air             
            {
                theta0          90;
            }
            water           
            {
                theta0          90;
            }
        }
        value           nonuniform List<scalar> 
50
(
1.97848e-41
9.2564e-38
1.65636e-35
2.14965e-30
1.99203e-28
9.52853e-27
7.20963e-28
4.90894e-27
2.66822e-25
5.82658e-26
1.15907e-26
3.17581e-27
1.20517e-27
2.42219e-28
5.51063e-29
9.07988e-30
1.0401e-30
8.05637e-32
4.0694e-33
1.33818e-34
2.87216e-36
4.24627e-38
4.68798e-40
4.6375e-42
4.17736e-44
2.83622e-46
1.3425e-48
5.71388e-51
1.98038e-53
-3.95146e-61
-1.20729e-64
-2.13976e-67
-1.84238e-72
-2.67497e-75
-2.92008e-80
-3.35724e-83
2.0912e-90
6.04126e-94
1.4035e-96
1.42514e-99
0
0
0
0
0
0
0
0
0
0
)
;
    }
    lowerWall
    {
        type            alphaContactAngle;
        contactAngleProperties 
        {
            mercury         
            {
                theta0          90;
            }
            air             
            {
                theta0          90;
            }
            water           
            {
                theta0          90;
            }
        }
        value           nonuniform List<scalar> 
62
(
0
0
0
0
0
0
0
0
0
0
0
-2.69117e-35
1.50602e-10
5.7042e-10
6.19589e-10
6.30169e-10
6.68004e-10
0.374802
0.989676
1
1
1
1
1
1
1
1
1
1
1
1
1
1
1
1
1.42745e-13
4.80055e-12
1.76063e-10
1.41485e-09
2.2108e-08
1.50101e-08
1.61231e-08
0.597722
1.42745e-13
4.34683e-12
4.50685e-11
3.44056e-10
1.36593e-10
1.15272e-11
1.41518e-12
1.41519e-13
6.2531e-15
1.54781e-16
3.94324e-18
6.28368e-20
7.01546e-22
5.17475e-24
2.3533e-26
5.39855e-29
4.16499e-32
1.81158e-37
1.97848e-41
)
;
    }
    atmosphere
    {
        type            inletOutlet;
        inletValue      uniform 0;
        value           nonuniform List<scalar> 
46
(
0
0
0
0
0
0
0
0
0
0
0
0
0
0
0
0
0
0
0
0
0
0
0
5.69443e-53
1.30236e-50
7.81593e-49
4.16214e-55
8.30395e-53
-1.66052e-59
-1.69374e-61
1.15869e-68
8.45393e-72
4.61793e-75
6.75368e-80
1.91095e-83
1.935e-87
0
0
0
0
0
0
0
0
0
0
)
;
    }
    defaultFaces
    {
        type            empty;
    }
}


// ************************************************************************* //
