/*--------------------------------*- C++ -*----------------------------------*\
  =========                 |
  \\      /  F ield         | OpenFOAM: The Open Source CFD Toolbox
   \\    /   O peration     | Website:  https://openfoam.org
    \\  /    A nd           | Version:  13
     \\/     M anipulation  |
\*---------------------------------------------------------------------------*/
FoamFile
{
    format      ascii;
    class       volScalarField;
    location    "0.1";
    object      alpha.air;
}
// * * * * * * * * * * * * * * * * * * * * * * * * * * * * * * * * * * * * * //

dimensions      [];

internalField   nonuniform List<scalar> 
2268
(
5.76534e-50
4.18674e-49
1.49996e-50
4.16415e-54
-2.10686e-51
-2.7429e-52
-1.19399e-48
-2.03725e-47
2.46467e-43
1.15062e-41
4.21442e-42
1.10808e-37
2.43452e-37
1.38979e-34
8.52365e-36
4.04004e-38
1.22363e-41
1.52686e-48
1.17879e-52
3.18221e-57
1.73339e-59
-7.66569e-65
-3.14353e-66
1.61008e-46
1.28356e-46
3.73509e-48
1.51665e-51
-6.83011e-49
-1.03074e-49
-4.8644e-46
-7.20801e-45
2.87806e-41
8.33559e-40
7.62812e-40
5.12095e-36
1.35661e-33
9.86815e-33
1.89237e-33
9.55327e-35
7.07746e-39
1.82482e-44
1.08646e-50
4.31842e-55
1.04586e-56
1.80445e-61
-6.58433e-65
8.56696e-43
9.59372e-44
3.17578e-46
1.2852e-49
-8.06917e-47
-1.35841e-47
-7.67429e-44
-9.84495e-43
9.01134e-40
3.10719e-38
4.34422e-38
6.53046e-34
5.98154e-32
3.01978e-31
5.77452e-32
9.42744e-34
2.39066e-37
2.67582e-42
9.56703e-48
5.71418e-51
1.43197e-54
3.63837e-56
4.62101e-58
3.63894e-40
2.55802e-41
3.93119e-44
2.75257e-46
-3.61671e-45
4.66353e-45
-5.69357e-42
-5.81708e-41
9.42009e-36
4.31205e-34
9.85177e-36
2.51515e-29
8.10837e-29
1.2113e-28
9.31854e-30
1.43111e-32
2.00734e-38
3.00735e-43
7.9468e-48
1.02057e-48
5.96398e-50
6.43318e-52
2.20812e-54
3.42913e-38
1.98474e-39
3.02411e-42
3.97363e-43
1.97529e-47
4.65545e-43
-1.98812e-40
-1.51569e-39
1.78756e-34
1.23962e-32
5.2437e-34
7.46544e-27
5.94889e-27
1.72281e-27
5.09825e-29
4.53288e-32
4.37328e-37
5.53733e-42
4.36439e-45
4.94777e-46
1.03136e-48
1.03301e-50
5.61028e-53
1.08706e-36
6.00801e-38
1.24506e-40
1.89249e-40
6.19735e-40
3.90934e-40
-3.03634e-39
-1.69329e-38
2.39615e-31
4.80405e-31
2.23455e-32
6.73854e-26
4.36916e-26
1.51855e-26
6.08883e-28
9.29363e-31
1.35846e-35
1.3819e-37
9.69707e-43
1.4081e-44
8.56738e-47
1.97922e-48
2.98301e-50
2.11144e-35
1.13745e-36
7.29457e-39
4.55764e-38
1.30167e-37
5.41084e-39
3.69696e-33
2.0859e-32
1.11845e-29
1.41375e-28
7.36422e-30
8.82759e-26
6.03468e-26
2.42171e-26
1.60369e-27
4.63891e-30
1.34936e-34
4.02179e-40
2.91139e-42
1.46569e-43
1.2781e-44
5.07595e-46
2.70627e-49
5.21603e-34
2.38348e-35
7.2917e-37
6.63626e-36
1.659e-35
5.11451e-39
5.36563e-31
2.26323e-30
2.37964e-28
1.07439e-27
8.45514e-28
5.2592e-26
5.24662e-31
2.81029e-32
8.60206e-27
1.28276e-27
1.35743e-30
1.00305e-34
3.95749e-38
1.08264e-42
4.90329e-44
6.5036e-47
4.64947e-48
1
1
1
1
1
1
1
1
1
1
1
1
1
1
1
1
1
1
1
1
1
1
1
1
1
1
1
1
1
1
1
1
1
1
1
1
1
1
1
1
1
1
1
1
1
1
1
1
1
1
1
1
1
1
1
1
1
1
1
1
1
1
1
1
1
1
1
1
1
1
1
1
1
1
1
1
1
1
1
1
0.999996
0.99999
0.999999
1
1
1
1
1
1
1
1
1
1
1
1
1
1
0.967904
0.998415
0.999998
0.999979
1
1
1
1
1
1
1
1
1
1
1
1
1
1
0.730989
0.294135
0.475774
0.947636
1
1
1
1
1
1
1
1
1
1
1
1
1
1
0.402278
0.110184
7.05556e-08
0.00333329
0.781707
1
1
1
1
1
1
1
1
1
1
1
1
1
1
2.58348e-32
9.32239e-34
7.62794e-35
6.61202e-34
1.50634e-33
6.3773e-33
4.01592e-29
1.50909e-28
4.19242e-27
4.1352e-27
1.46887e-26
5.43088e-21
7.72425e-21
5.01347e-21
6.57327e-22
2.05133e-24
3.17919e-29
6.85349e-35
1.05388e-36
1.4457e-40
1.47334e-43
3.39612e-45
2.67237e-46
4.3609e-27
1.45463e-28
2.54053e-29
1.79076e-28
3.90363e-28
1.50352e-27
4.98962e-27
1.631e-26
1.66893e-25
2.12412e-22
9.45075e-23
2.52532e-18
3.41724e-17
4.50498e-18
2.8506e-20
7.25686e-24
1.75896e-28
1.62529e-29
1.24569e-30
4.26074e-32
6.37201e-36
4.6679e-39
3.72244e-43
1.90848e-22
1.83476e-23
5.89632e-24
3.16922e-23
6.72898e-23
1.98018e-22
4.76506e-22
1.14298e-21
3.89798e-21
1.73854e-19
2.42937e-20
7.89734e-15
4.36298e-15
1.3105e-16
1.41655e-19
5.52157e-23
1.30334e-24
3.82471e-27
5.79236e-30
6.62721e-31
1.79738e-32
5.23913e-34
-1.24606e-26
1.43939e-19
3.00127e-20
1.51432e-20
5.24659e-20
1.03383e-19
2.60744e-19
4.92332e-19
9.59122e-19
2.02303e-18
3.48345e-18
3.15626e-19
1.24457e-12
8.4177e-14
2.72088e-16
5.19813e-20
9.81043e-23
8.53212e-25
1.38031e-27
3.44601e-29
5.67903e-31
3.44475e-32
2.22723e-29
-3.44662e-28
3.13543e-18
9.04927e-19
5.14544e-19
1.47765e-18
2.77238e-18
6.78024e-18
1.14366e-17
2.00343e-17
3.65093e-17
5.52815e-17
2.6877e-18
1.43579e-11
1.15942e-12
5.28293e-15
1.08044e-18
4.89433e-21
3.24786e-22
1.04857e-23
1.02579e-24
3.51311e-26
1.82884e-27
2.43818e-24
-1.7298e-42
4.89833e-17
1.75373e-17
1.03716e-17
2.54949e-17
4.55235e-17
1.11219e-16
1.7198e-16
3.00718e-16
4.38075e-16
6.85299e-16
-2.49069e-20
1.58469e-10
1.38919e-11
8.49087e-14
2.13598e-17
1.22685e-20
7.50682e-21
1.13482e-21
8.76376e-23
4.80044e-24
8.27377e-23
1.05707e-19
2.1579e-37
5.1872e-16
4.13709e-16
3.22717e-16
2.65707e-16
4.4362e-16
1.60879e-15
2.29253e-15
3.53575e-15
4.6919e-15
6.56461e-15
-2.40953e-18
1.55336e-09
1.40939e-10
1.10735e-12
3.96971e-16
1.62266e-18
1.08991e-18
2.13408e-19
2.41493e-20
9.73151e-21
5.651e-18
1.45494e-16
3.16564e-15
1.17018e-14
1.05616e-14
9.41316e-15
1.29265e-14
1.58585e-14
3.30005e-14
4.32916e-14
4.33732e-14
5.89022e-14
4.98048e-14
-5.73948e-24
1.34009e-08
1.17791e-09
3.42798e-12
1.20425e-16
1.47002e-16
2.19043e-17
5.80496e-18
1.43957e-18
2.35376e-16
2.42703e-14
1.94669e-14
4.01449e-13
1.85157e-13
1.13951e-13
1.03318e-13
2.23453e-13
2.58795e-13
3.4569e-13
4.2738e-13
3.643e-13
3.88984e-13
4.90247e-13
1.63926e-20
1.00626e-07
8.9224e-09
-6.3816e-27
1.55363e-14
4.2345e-15
4.26623e-16
1.50901e-15
7.58795e-15
1.58e-13
5.55021e-13
3.19282e-13
2.96585e-12
2.86734e-12
2.754e-12
2.67789e-12
3.32745e-12
3.56285e-12
4.71462e-12
5.40924e-12
6.13728e-12
6.12434e-12
4.25676e-12
-6.63629e-19
6.49946e-07
6.12678e-08
-1.26192e-25
1.51576e-13
5.17364e-13
4.03791e-13
9.67889e-13
2.96147e-12
6.70844e-12
5.20541e-12
1.7929e-12
1.42134e-11
2.19686e-11
1.95495e-11
1.83078e-11
2.19785e-11
2.32806e-11
2.93584e-11
3.12205e-11
3.5903e-11
3.93827e-11
4.04801e-11
3.07327e-12
3.57568e-06
3.26734e-07
-7.72842e-25
1.99483e-12
1.23857e-11
2.19314e-11
3.33264e-11
3.97066e-11
4.01699e-11
2.94335e-11
7.55857e-12
3.12718e-11
1.50984e-10
1.41253e-10
1.09296e-10
1.20821e-10
1.3681e-10
1.54593e-10
1.47565e-10
1.55642e-10
1.56556e-10
1.42455e-10
1.82504e-11
1.67076e-05
1.67918e-06
6.76446e-24
1.84598e-11
8.3554e-11
1.25645e-10
1.31456e-10
1.52813e-10
1.98591e-10
9.85893e-11
3.48381e-11
3.71388e-11
1.12832e-09
1.04661e-09
6.2372e-10
5.90734e-10
7.24004e-10
7.0058e-10
5.72802e-10
5.20392e-10
4.67911e-10
3.88298e-10
4.47179e-11
6.6899e-05
1.12087e-05
2.42886e-23
1.51438e-10
4.35237e-10
5.68385e-10
7.13491e-10
6.68376e-10
6.77305e-10
3.54062e-10
2.32381e-11
1.01675e-10
7.24614e-09
6.49282e-09
3.50257e-09
2.7792e-09
3.18164e-09
2.58818e-09
1.7682e-09
1.30654e-09
9.67991e-10
6.75874e-10
7.00279e-11
0.000232573
3.4704e-05
4.39508e-13
4.03273e-10
1.44067e-09
1.5765e-09
1.62071e-09
1.92809e-09
2.28423e-09
1.14781e-08
2.33665e-08
2.00489e-08
2.62821e-08
2.1768e-08
1.21971e-08
8.74423e-09
8.23857e-09
6.23816e-09
3.72346e-09
2.39486e-09
1.36355e-09
6.00699e-10
5.64563e-11
0.000703674
4.29314e-05
3.20363e-09
3.30967e-09
2.05669e-09
2.68094e-09
5.39084e-09
8.98935e-09
7.19291e-09
1.11641e-07
9.49586e-08
6.75461e-08
1.54574e-08
8.47477e-09
6.20482e-09
6.89539e-09
4.93027e-09
2.22974e-09
1.12314e-09
2.08376e-11
-6.61525e-11
2.11907e-11
-2.24037e-17
0.0021551
4.37999e-08
2.35146e-09
5.45104e-07
8.8785e-09
1.115e-08
2.8872e-08
6.58192e-09
0.00408018
0.0249235
0.0645077
0.0690219
0.177395
0.151842
0.136391
0.140044
0.152103
0.171319
0.196643
0.227401
0.26113
0.292837
0.312272
0.31076
0.210222
0.139239
0.139207
0.165614
0.217826
0.293717
0.412639
0.55448
0.68704
0.797849
0.826501
0.922966
0.899764
0.885636
0.889124
0.900279
0.916228
0.934884
0.953873
0.971601
0.985622
0.99322
0.991018
0.919977
0.887859
0.889418
0.912443
0.948764
0.986959
1
1
1
1
1
1
1
1
1
1
1
1
1
1
1
1
1
1
0.999916
0.999993
1
1
1
1
1
1
1
1
1
1
1
1
1
1
1
1
1
1
1
1
1
1
1
1
1
1
1
1
1
1
1
1
1
1
1
1
1
1
1
1
1
1
1
1
1
1
1
1
1
1
1
1
1
1
1
1
1
1
1
1
1
1
1
1
1
1
1
1
1
1
1
1
1
1
1
1
1
1
1
1
1
1
1
1
1
1
1
1
1
1
1
1
1
1
1
1
1
1
1
1
1
1
1
1
1
1
1
1
1
1
1
1
1
1
1
1
1
1
1
1
1
1
1
1
1
1
1
1
1
1
1
1
1
1
1
1
1
1
1
1
1
1
1
1
1
1
1
1
1
1
1
1
1
1
1
1
1
1
1
1
1
1
1
1
1
1
1
1
1
1
1
1
1
1
1
1
1
1
1
1
1
1
1
1
1
1
1
1
1
1
1
1
1
1
1
1
1
1
1
1
1
1
1
1
1
1
1
1
1
1
1
1
1
1
1
1
1
1
1
1
1
1
1
1
1
1
1
1
1
1
1
1
1
1
1
1
1
1
1
1
1
1
1
1
1
1
1
1
1
1
1
1
1
1
1
1
1
1
1
1
1
1
1
1
1
1
1
1
1
1
1
1
1
1
1
1
1
1
1
1
1
1
1
1
1
1
1
1
1
1
1
1
1
1
1
1
1
1
1
1
1
1
1
1
1
1
1
1
1
1
1
1
1
1
1
1
1
1
1
1
1
1
1
1
1
1
1
1
1
1
1
1
1
1
1
1
1
1
1
1
1
1
1
1
1
1
1
1
1
1
1
1
1
1
1
1
1
1
1
1
1
1
1
1
1
1
1
1
1
1
1
1
1
1
1
1
1
1
1
1
1
1
1
1
1
1
1
1
1
1
1
1
1
1
1
1
1
1
1
1
1
1
1
1
1
1
1
1
1
1
1
1
1
1
1
1
1
1
1
1
1
1
1
1
1
1
1
1
1
1
1
1
1
1
1
1
1
1
1
1
1
1
1
1
1
1
1
1
1
1
1
1
1
1
1
1
1
1
1
1
1
1
1
1
1
1
1
1
1
1
1
1
1
1
1
1
1
1
1
1
1
1
1
1
1
1
1
1
1
1
1
1
1
1
1
1
1
1
1
1
1
1
1
1
1
1
1
1
1
1
1
1
1
1
1
1
1
1
1
1
1
1
1
1
1
1
1
1
1
1
1
1
1
1
1
1
1
-1.31827e-37
-1.66373e-32
-7.21093e-32
4.90346e-14
-2.49682e-31
3.23723e-17
1.87353e-14
3.84308e-13
1.59016e-18
2.37513e-14
7.34847e-13
2.92134e-12
2.37708e-15
8.53133e-13
7.69924e-12
1.30782e-11
8.87876e-14
8.45159e-12
5.50322e-11
2.2103e-11
1.78345e-12
9.35018e-11
1.58374e-10
-1.63404e-11
1.33705e-11
1.79077e-10
7.01266e-11
1.84237e-09
3.26716e-11
5.3103e-11
6.02364e-11
1.91761e-08
2.36124e-11
2.23984e-11
3.62781e-11
1.21195e-07
-7.1681e-12
-4.66343e-12
9.31029e-08
0.00621218
-7.82901e-12
3.12018e-13
5.23305e-07
0.47231
6.38791e-20
1.05923e-07
0.243289
0.939061
7.40061e-19
0.0434721
0.76602
1
1.55497e-07
0.388857
0.981615
1
0.0316405
0.703946
0.999999
1
0.303409
0.852722
1
1
0.854398
0.936099
0.999999
1
1
0.99099
0.997597
1
1
1
1
1
1
1
1
1
1
1
1
1
1
1
1
1
1
1
1
1
1
1
1
1
1
1
1
1
1
1
1
1
1
1
1
1
1
1
1
1
1
1
1
1
1
1
1
1
1
1
1
1
1
1
1
1
1
1
1
1
1
1
1
1
1
1
1
1
1
1
1
1
1
1
1
1
1
1
1
1
1
1
1
1
1
1
1
1
1
1
1
1
1
1
1
1
2.12207e-13
9.2747e-14
6.79487e-14
7.65585e-08
0.705128
0.999999
1
1
1
1
1
1
1
1
1
1
1
1
1
3.4382e-13
6.78188e-14
6.32185e-09
0.126107
0.867355
1
1
1
1
1
1
1
1
1
1
1
1
1
1
1.08578e-12
-3.73766e-14
6.59542e-08
0.57587
0.999999
1
1
1
1
1
1
1
1
1
1
1
1
1
1
7.44455e-14
1.83742e-08
0.164689
0.907312
1
1
1
1
1
1
1
1
1
1
1
1
1
1
1
-1e-11
1.06118e-07
0.58802
0.999999
1
1
1
1
1
1
1
1
1
1
1
1
1
1
1
3.11163e-08
0.194093
0.91896
1
1
1
1
1
1
1
1
1
1
1
1
1
1
1
1
1.16883e-07
0.604734
0.999999
1
1
1
1
1
1
1
1
1
1
1
1
1
1
1
1
0.149263
0.919189
1
1
1
1
1
1
1
1
1
1
1
1
1
1
1
1
1
0.507241
0.999999
1
1
1
1
1
1
1
1
1
1
1
1
1
1
1
1
1
0.84811
1
1
1
1
1
1
1
1
1
1
1
1
1
1
1
1
1
1
0.996381
1
1
1
1
1
1
1
1
1
1
1
1
1
1
1
1
1
1
1
1
1
1
1
1
1
1
1
1
1
1
1
1
1
1
1
1
1
1
1
1
1
1
1
1
1
1
1
1
1
1
1
1
1
1
1
1
1
1
1
1
1
1
1
1
1
1
1
1
1
1
1
1
1
1
1
1
1
1
1
1
1
1
1
1
1
1
1
1
1
1
1
1
1
1
1
1
1
1
1
1
1
1
1
1
1
1
1
1
1
1
1
1
1
1
1
1
1
1
1
1
1
1
1
1
1
1
1
1
1
1
1
1
1
1
1
1
1
1
1
1
1
1
1
1
1
1
1
1
1
1
1
1
1
1
1
1
1
1
1
1
1
1
1
1
1
1
1
1
1
1
1
1
1
1
1
1
1
1
1
1
1
1
1
1
1
1
1
1
1
1
1
1
1
1
1
1
1
1
1
1
1
1
1
1
1
1
1
1
1
1
1
1
1
1
1
1
1
1
1
1
1
1
1
1
1
1
1
1
1
1
1
1
1
1
1
1
1
1
1
1
1
1
1
1
1
1
1
1
1
1
1
1
1
1
1
1
1
1
1
1
1
1
1
1
1
1
1
1
1
1
1
1
1
1
1
1
1
1
1
1
1
1
1
1
1
1
1
1
1
1
1
1
1
1
1
1
1
1
1
1
1
1
1
1
1
1
1
1
1
1
1
1
1
1
1
1
1
1
1
1
1
1
1
1
1
1
1
1
1
1
1
1
1
1
1
1
1
1
1
1
1
1
1
1
1
1
1
1
1
1
1
1
1
1
1
1
1
1
1
1
1
1
1
1
1
1
1
1
1
1
1
1
1
1
1
1
1
1
1
1
1
1
1
1
1
1
1
1
1
1
1
1
1
1
1
1
1
1
1
1
1
1
1
1
1
1
1
1
1
1
1
1
1
1
1
1
1
1
1
1
1
1
1
1
1
1
1
1
1
1
1
1
1
1
1
1
1
1
1
1
1
1
1
1
1
1
1
1
1
1
1
1
1
1
1
1
1
1
1
1
1
1
1
1
1
1
1
1
1
1
1
1
1
1
1
1
1
1
1
1
1
1
1
1
1
1
1
1
1
1
1
1
1
1
1
1
1
1
1
1
1
1
1
1
1
1
1
1
1
1
1
1
1
1
1
1
1
1
1
1
1
1
1
1
1
1
1
1
1
1
1
1
1
1
1
1
1
1
1
1
1
1
1
1
1
1
1
1
1
1
1
1
1
1
1
1
1
1
1
1
1
1
1
1
1
1
1
1
1
1
1
1
1
1
1
1
1
1
1
1
1
1
1
1
1
1
1
1
1
1
1
1
1
1
1
1
1
1
1
1
1
1
1
1
1
1
1
)
;

boundaryField
{
    leftWall
    {
        type            alphaContactAngle;
        contactAngleProperties 
        {
            mercury         
            {
                theta0          90;
            }
            water           
            {
                theta0          90;
            }
            oil             
            {
                theta0          90;
            }
        }
        value           nonuniform List<scalar> 
50
(
5.76534e-50
1.61008e-46
8.56696e-43
3.63894e-40
3.42913e-38
1.08706e-36
2.11144e-35
5.21603e-34
2.58348e-32
4.3609e-27
1.90848e-22
1.43939e-19
3.13543e-18
4.89833e-17
5.1872e-16
1.17018e-14
1.85157e-13
2.86734e-12
2.19686e-11
1.50984e-10
1.12832e-09
7.24614e-09
2.62821e-08
1.54574e-08
0.177395
0.922966
1
1
1
1
1
1
1
1
1
1
1
1
1
1
1
1
1
1
1
1
1
1
1
1
)
;
    }
    rightWall
    {
        type            alphaContactAngle;
        contactAngleProperties 
        {
            mercury         
            {
                theta0          90;
            }
            water           
            {
                theta0          90;
            }
            oil             
            {
                theta0          90;
            }
        }
        value           nonuniform List<scalar> 
50
(
1
1
1
1
1
1
1
1
1
1
1
1
1
1
1
1
1
1
1
1
1
1
1
1
1
1
1
1
1
1
1
1
1
1
1
1
1
1
1
1
1
1
1
1
1
1
1
1
1
1
)
;
    }
    lowerWall
    {
        type            alphaContactAngle;
        contactAngleProperties 
        {
            mercury         
            {
                theta0          90;
            }
            water           
            {
                theta0          90;
            }
            oil             
            {
                theta0          90;
            }
        }
        value           nonuniform List<scalar> 
62
(
5.76534e-50
4.18674e-49
1.49996e-50
4.16415e-54
-2.10686e-51
-2.7429e-52
-1.19399e-48
-2.03725e-47
2.46467e-43
1.15062e-41
4.21442e-42
1.10808e-37
2.43452e-37
1.38979e-34
8.52365e-36
4.04004e-38
1.22363e-41
1.52686e-48
1.17879e-52
3.18221e-57
1.73339e-59
-7.66569e-65
-3.14353e-66
-3.14353e-66
-6.58433e-65
4.62101e-58
2.20812e-54
5.61028e-53
2.98301e-50
2.70627e-49
4.64947e-48
-1.31827e-37
-1.66373e-32
-7.21093e-32
4.90346e-14
1
1
1
1
1
1
1
0.402278
1
1
1
1
1
1
1
1
1
1
1
1
1
1
1
1
1
1
1
)
;
    }
    atmosphere
    {
        type            inletOutlet;
        inletValue      uniform 1;
        value           nonuniform List<scalar> 
46
(
1
1
1
1
1
1
1
1
1
1
1
1
1
1
1
1
1
1
1
1
1
1
1
1
0.999999
1
1
1
1
1
1
1
1
1
1
1
1
1
1
1
1
1
1
1
1
1
)
;
    }
    defaultFaces
    {
        type            empty;
    }
}


// ************************************************************************* //
