/*--------------------------------*- C++ -*----------------------------------*\
  =========                 |
  \\      /  F ield         | OpenFOAM: The Open Source CFD Toolbox
   \\    /   O peration     | Website:  https://openfoam.org
    \\  /    A nd           | Version:  13
     \\/     M anipulation  |
\*---------------------------------------------------------------------------*/
FoamFile
{
    format      ascii;
    class       volScalarField;
    location    "0.1";
    object      alpha.mercury;
}
// * * * * * * * * * * * * * * * * * * * * * * * * * * * * * * * * * * * * * //

dimensions      [];

internalField   nonuniform List<scalar> 
2268
(
1
1
1
1
1
1
1
1
1
1
1
1
1
1
1
1
1
0.625198
0.0103243
8.49147e-10
9.80436e-10
3.09992e-10
2.29621e-11
1
1
1
1
1
1
1
1
1
1
1
1
1
1
1
1
0.68182
0.0817556
1.71479e-08
8.10068e-10
8.10855e-10
2.2011e-10
1.61652e-11
1
1
1
1
1
1
1
1
1
1
1
1
1
1
1
0.783278
0.130505
4.78531e-09
4.33403e-09
3.46163e-09
1.5101e-09
3.00311e-10
2.2706e-11
1
1
1
1
1
1
1
1
1
1
1
1
1
0.999998
0.947969
0.325539
9.93575e-05
5.32344e-09
7.02973e-09
5.45091e-09
1.81532e-09
3.1366e-10
1.95005e-11
1
1
1
1
1
1
1
1
1
1
1
1
0.999984
0.999989
0.693303
0.0591532
3.38565e-09
5.74241e-09
7.67056e-09
4.38801e-09
1.4674e-09
2.81473e-10
2.59582e-11
1
1
1
1
1
1
1
1
1
1
1
0.999984
0.999852
0.989292
0.358489
3.87016e-08
3.72814e-09
6.10566e-09
5.75351e-09
3.10042e-09
1.02566e-09
2.28386e-10
2.48604e-11
1
1
1
1
1
1
1
1
1
1
1
0.999914
0.999767
0.845336
0.137509
1.61902e-09
3.16001e-09
5.78882e-09
4.81125e-09
2.21869e-09
7.51057e-10
2.00292e-10
1.298e-11
1
1
1
1
1
1
1
1
1
1
1
1
0.999845
0.655684
0.0361765
1.48134e-09
3.35187e-09
4.71816e-09
3.1628e-09
1.57458e-09
6.00588e-10
9.30226e-11
1.67777e-11
1.36637e-29
2.80673e-28
1.70587e-27
3.67471e-27
5.16107e-30
7.9088e-32
7.32333e-33
3.15958e-34
7.26756e-36
6.88018e-38
3.84325e-40
1.16586e-43
7.71016e-54
-2.94815e-60
-7.31954e-63
0
0
0
0
4.10136e-28
1.79526e-26
1.59797e-25
3.74534e-25
1.1492e-26
6.16842e-30
1.02591e-31
1.38955e-32
5.42017e-34
9.70227e-36
5.20895e-38
5.69115e-40
3.5087e-43
3.0932e-53
-4.11318e-60
-8.31911e-63
0
0
0
2.02951e-26
2.81931e-25
2.1643e-24
2.12306e-23
3.24237e-25
1.0522e-26
7.33816e-28
1.58956e-31
2.34048e-32
1.12633e-33
1.30675e-35
1.35476e-38
2.0453e-40
4.24441e-43
5.84189e-53
-1.73721e-60
-2.70594e-63
0
0
1.43374e-25
1.23776e-24
2.62852e-23
1.41196e-22
7.96736e-23
3.11818e-24
1.79878e-26
7.97811e-28
3.74773e-31
2.24348e-32
7.31085e-34
9.86213e-36
5.0051e-38
1.73594e-40
3.18974e-43
9.21812e-53
-2.92215e-61
-3.65854e-64
0
3.37359e-23
3.15511e-22
5.81248e-21
7.91528e-21
7.98189e-22
6.05763e-23
3.21735e-25
3.78736e-26
1.77969e-27
2.36381e-30
8.84815e-33
8.88559e-35
2.77335e-37
9.01571e-39
9.57626e-41
1.49463e-43
1.43934e-52
1.36484e-60
-1.92518e-65
2.33871e-23
3.18414e-19
2.739e-19
7.16296e-20
3.91899e-21
4.81298e-23
3.06611e-25
3.6174e-28
3.78354e-30
2.73324e-31
5.90499e-34
1.81473e-35
2.23342e-37
1.20518e-39
1.56523e-42
1.6088e-48
1.2662e-53
5.6992e-57
1.22224e-62
9.62774e-24
1.14751e-16
3.30911e-17
1.88899e-18
1.491e-20
3.46744e-24
4.63385e-28
3.19843e-30
3.52565e-31
3.85767e-32
2.33686e-33
6.93244e-35
8.04491e-37
1.08515e-39
1.11078e-42
4.04122e-45
5.36025e-48
1.37141e-51
3.12035e-56
1.10609e-14
3.8378e-15
6.16082e-16
3.29729e-17
8.44928e-20
1.74079e-23
2.64544e-27
8.76728e-28
1.33402e-28
1.02155e-29
4.46069e-31
1.10622e-32
1.25216e-34
5.99434e-37
7.59171e-40
2.93156e-43
9.50973e-46
1.13533e-48
2.96289e-52
1
1
1
1
1
1
1
1
1
1
1
0.999788
0.998207
0.399979
1.89414e-09
1.53764e-09
3.02762e-09
2.49985e-09
1.38067e-09
6.10133e-10
2.51367e-10
7.61006e-11
1.15163e-11
1
1
1
1
1
1
1
1
0.999123
0.978556
0.918753
0.808763
0.733005
0.175354
1.90619e-08
1.48127e-09
1.67714e-09
1.2896e-09
6.73425e-10
3.09957e-10
9.64677e-11
3.10696e-11
1.10476e-11
0.948076
0.948834
0.944387
0.930399
0.904104
0.860784
0.793694
0.695158
0.533013
0.3542
0.19301
0.0710691
0.0665723
0.0333822
0.00020325
2.43744e-06
7.3923e-08
3.02209e-10
2.99183e-10
1.46857e-10
4.93433e-11
1.64435e-11
5.57795e-12
0.245522
0.250838
0.241451
0.213516
0.170973
0.119258
0.0645119
0.0116726
1.84722e-19
-2.59467e-20
-9.8456e-12
1.17572e-08
1.84943e-22
1.02056e-13
0.000537792
0.000109509
-1.90625e-12
5.05556e-10
3.48018e-10
1.59698e-10
4.30322e-11
1.53713e-11
5.97211e-12
0
0
0
0
0
0
0
0
0
0
0
0
0
0
0
0
0
0
0
1.46196e-13
4.76806e-15
0
0
0
0
0
0
0
0
0
0
0
0
0
0
0
0
0
0
0
0
0
0
0
0
0
0
0
0
0
0
0
0
0
0
0
0
0
0
0
0
0
0
0
0
0
0
0
0
0
0
0
0
0
0
0
0
0
0
0
0
0
0
0
0
0
0
0
0
0
0
0
0
0
0
0
0
0
0
0
0
0
0
0
0
0
0
0
0
0
0
0
0
0
0
0
0
0
0
0
0
0
0
0
0
0
0
0
0
0
0
0
0
0
0
0
0
0
0
0
0
0
0
0
0
0
0
0
0
0
0
0
0
0
0
0
0
0
0
0
0
0
0
0
0
0
0
0
0
0
0
0
0
0
0
0
0
0
0
0
0
0
0
0
0
0
0
0
0
0
0
0
0
0
0
0
0
0
0
0
0
0
0
0
0
0
0
0
0
0
0
0
0
0
0
0
0
0
0
0
0
0
0
0
0
0
0
0
0
0
0
0
0
0
0
0
0
0
0
0
0
0
0
0
0
0
0
0
0
0
0
0
0
0
0
0
0
0
0
0
0
0
0
0
0
0
0
0
0
0
0
0
0
0
0
0
0
0
0
0
0
0
0
0
0
0
0
0
0
0
0
0
0
0
0
0
0
0
0
0
0
0
0
0
0
0
0
0
0
0
0
0
0
0
0
0
0
0
0
0
0
0
0
0
0
0
0
0
0
0
0
0
0
0
0
0
0
0
0
0
0
0
0
0
0
0
0
0
0
0
0
0
0
0
0
0
0
0
0
0
0
0
0
0
0
0
0
0
0
0
0
0
0
0
0
0
0
0
0
0
0
0
0
0
0
0
0
0
0
0
0
0
0
0
0
0
0
0
0
0
0
0
0
0
0
0
0
0
0
0
0
0
0
0
0
0
0
0
0
0
0
0
0
0
0
0
0
0
0
0
0
0
0
0
0
0
0
0
0
0
0
0
0
0
0
0
0
0
0
0
0
0
0
0
0
0
0
0
0
0
0
0
0
0
0
0
0
0
0
0
0
0
0
0
0
0
0
0
0
0
0
0
0
0
0
0
0
0
0
0
0
0
0
0
0
0
0
0
0
0
0
0
0
0
0
0
0
0
0
0
0
0
0
0
0
0
0
0
0
0
0
0
0
0
0
0
0
0
0
0
0
0
0
0
0
0
0
0
0
0
0
0
0
0
0
0
0
0
0
0
0
0
0
0
0
0
0
0
0
0
0
0
0
0
0
0
0
0
0
0
0
0
0
0
0
0
0
0
0
0
0
0
0
0
0
0
0
0
0
0
0
0
0
0
0
0
0
0
0
0
0
0
0
0
0
0
0
0
0
0
0
0
0
0
0
0
0
0
0
0
0
0
0
0
0
0
0
0
0
0
0
0
0
0
0
0
0
0
0
0
0
0
0
0
0
0
0
0
0
0
0
0
0
0
0
0
0
0
0
0
0
0
0
0
0
0
0
0
0
0
0
0
0
0
0
0
0
0
0
0
0
0
0
0
0
0
0
0
0
0
0
0
0
0
0
0
0
0
0
0
0
0
0
0
0
0
0
0
0
0
0
0
0
0
0
0
0
0
0
0
0
0
0
0
0
0
0
0
0
0
0
0
0
0
0
0
0
0
0
0
0
0
0
0
0
0
0
0
0
0
0
0
0
0
0
0
0
0
0
0
0
0
0
0
0
0
0
0
0
0
0
0
0
0
0
0
0
0
0
0
0
0
0
0
0
0
0
0
0
0
0
0
0
0
0
0
0
0
0
0
0
0
0
0
0
0
0
0
0
0
0
0
0
0
0
0
0
0
0
0
0
0
0
0
0
0
0
0
0
0
0
0
0
0
0
0
0
0
0
0
0
0
0
0
0
0
0
0
0
0
0
0
0
0
0
0
0
0
0
0
0
0
0
0
0
0
0
0
0
0
0
0
0
0
8.91194e-12
4.12727e-12
1.85805e-12
6.79107e-13
6.09377e-12
3.02584e-12
1.37664e-12
5.2797e-13
2.94309e-12
1.49433e-12
8.00391e-13
1.71314e-13
3.20634e-12
1.89618e-12
4.61569e-13
1.38975e-13
0
0
-5.50016e-263
-1.88599e-262
0
0
0
0
0
0
0
0
0
0
0
0
0
0
0
0
0
0
0
0
0
0
0
0
0
0
0
0
0
0
0
0
0
0
0
0
0
0
0
0
0
0
0
0
0
0
0
0
0
0
0
0
0
0
0
0
0
0
0
0
0
0
0
0
0
0
0
0
0
0
0
0
0
0
0
0
0
0
0
0
0
0
0
0
0
0
0
0
0
0
0
0
0
0
0
0
0
0
0
0
0
0
0
0
0
0
0
0
0
0
0
0
0
0
0
0
0
0
0
0
0
0
0
0
0
0
0
0
0
0
0
0
0
0
0
0
0
0
0
0
0
0
0
0
0
0
0
0
1.10922e-13
1.84106e-14
2.96895e-15
3.67085e-16
1.48116e-18
2.2078e-23
1.09474e-26
3.42729e-27
1.15798e-27
1.68648e-28
1.24002e-29
4.84128e-31
9.63798e-33
9.1041e-35
4.09021e-37
1.18108e-39
4.8036e-46
1.64811e-48
2.03444e-51
1.02164e-13
9.17082e-15
2.98677e-15
7.69772e-17
1.85909e-19
1.76217e-23
2.08831e-27
9.57409e-28
2.6992e-28
3.11008e-29
1.67672e-30
3.98734e-32
4.60934e-34
5.68659e-36
2.6755e-38
3.91515e-41
4.89918e-45
2.00947e-49
1.9389e-52
4.86595e-14
5.74511e-15
1.1919e-15
7.48366e-18
1.94262e-21
1.44229e-25
2.27979e-26
8.38951e-27
1.56279e-27
1.5838e-28
2.73038e-30
1.45174e-31
4.11753e-34
9.66178e-36
1.06393e-37
2.8335e-40
5.16596e-47
1.25653e-49
1.13609e-52
6.37999e-15
1.46271e-15
6.51177e-17
3.73327e-19
2.99585e-23
1.33675e-25
6.29893e-26
1.53983e-26
1.93689e-27
1.3719e-28
1.46129e-30
6.43469e-32
6.63736e-35
1.01936e-36
5.66448e-39
2.9709e-42
2.326e-46
5.04494e-49
4.02011e-52
4.79285e-44
4.78878e-44
2.05305e-44
4.52589e-26
1.36153e-25
9.58355e-26
3.39531e-26
6.04601e-27
5.57315e-28
2.71695e-29
6.38623e-31
5.43691e-34
2.05058e-35
2.88551e-38
5.47031e-41
9.42836e-45
3.10842e-47
4.91344e-50
2.81969e-53
1.16433e-43
4.29645e-35
1.40349e-32
1.8551e-27
2.87923e-26
2.76227e-26
8.34633e-27
1.12145e-27
7.34034e-29
2.35334e-30
3.19642e-32
3.66917e-35
7.83728e-38
2.94514e-40
1.4113e-43
6.5029e-46
1.57937e-48
1.96182e-51
9.19558e-55
0
2.80118e-38
1.62547e-33
2.44709e-29
3.09389e-27
4.82937e-27
1.19271e-27
1.15924e-28
4.99407e-30
9.18335e-32
5.37857e-34
2.30776e-37
4.6147e-40
9.37453e-43
6.94692e-45
2.34605e-47
4.59378e-50
4.98503e-53
1.67662e-56
0
2.61009e-41
2.26836e-34
3.29577e-31
3.37741e-28
5.91139e-28
1.06527e-28
6.77276e-30
1.66194e-31
1.25434e-33
6.93725e-37
3.49267e-39
2.15087e-42
3.94261e-44
1.99546e-46
5.52143e-49
9.70883e-52
7.00128e-55
0
0
2.08828e-42
2.68684e-35
7.45953e-32
8.00307e-29
5.00885e-29
5.64304e-30
2.02351e-31
2.00264e-33
1.43904e-36
6.17061e-39
1.49011e-41
1.51121e-43
1.06683e-45
4.10151e-48
1.01194e-50
1.15383e-53
0
0
0
1.94984e-43
3.82049e-36
2.72442e-32
8.32084e-30
2.4972e-30
1.57229e-31
2.2226e-33
1.92242e-36
4.87297e-39
4.23932e-41
5.00909e-43
4.08853e-45
2.09374e-47
3.72372e-50
1.06738e-52
0
0
0
0
1.90711e-44
1.27772e-36
5.09806e-33
3.97889e-31
6.65518e-32
1.64305e-33
1.87287e-36
2.28445e-39
8.2416e-41
1.39392e-42
1.26846e-44
7.80946e-47
3.13421e-49
6.47169e-52
0
0
0
0
0
6.88062e-46
2.43119e-37
5.12185e-34
1.02206e-32
6.71563e-34
2.44113e-36
2.451e-39
1.26627e-40
2.66915e-42
3.13333e-44
2.22845e-46
1.09157e-48
2.81055e-51
0
0
0
0
0
0
1.49063e-46
3.0019e-38
2.7096e-35
1.0073e-34
1.341e-36
2.24565e-39
1.4291e-40
3.468e-42
5.08851e-44
4.97222e-46
2.95025e-48
9.25581e-51
0
0
0
0
0
0
0
2.08957e-47
2.47063e-39
6.30234e-37
3.05795e-37
6.58215e-40
9.58581e-41
4.29111e-42
3.6651e-44
8.71356e-46
6.32573e-48
2.40164e-50
0
0
0
0
0
0
0
0
2.20852e-48
1.34437e-40
2.15529e-39
1.18228e-40
3.17789e-41
2.98504e-42
8.46737e-44
1.21799e-45
1.12799e-47
5.20723e-50
0
0
0
0
0
0
0
0
0
3.45582e-45
4.29583e-42
2.76593e-41
2.0584e-42
1.20945e-42
5.7007e-44
1.18249e-45
1.63763e-47
1.00318e-49
0
0
0
0
0
0
0
0
0
2.23486e-54
6.23349e-49
6.05434e-44
5.94747e-45
1.47481e-43
3.16334e-44
8.99714e-46
1.68037e-47
1.64496e-49
0
0
0
0
0
0
0
0
0
0
1.69813e-54
3.95673e-50
1.83592e-47
2.28795e-46
7.86546e-45
8.46576e-46
1.74706e-47
1.95685e-49
0
0
0
0
0
0
0
0
0
0
0
2.00536e-55
2.85394e-51
5.8225e-49
8.42875e-48
2.85853e-46
2.04757e-47
5.99763e-50
0
0
0
0
0
0
0
0
0
0
0
0
6.76924e-58
1.03319e-52
1.56164e-50
1.44927e-49
6.22959e-48
1.99286e-49
0
0
0
0
0
0
0
0
0
0
0
0
0
1.61898e-59
4.46171e-55
1.81158e-52
5.69604e-52
6.01726e-50
0
0
0
0
0
0
0
0
0
0
0
0
0
0
7.73983e-61
9.53291e-58
1.91275e-55
1.83371e-55
0
0
0
0
0
0
0
0
0
0
0
0
0
0
0
2.9065e-62
1.74733e-60
2.52336e-58
0
0
0
0
0
0
0
0
0
0
0
0
0
0
0
0
0
7.46423e-63
0
0
0
0
0
0
0
0
0
0
0
0
0
0
0
0
0
0
0
0
0
0
0
0
0
0
0
0
0
0
0
0
0
0
0
0
0
0
0
0
0
0
0
0
0
0
0
0
0
0
0
0
0
0
0
0
0
0
0
0
0
0
0
0
0
0
0
0
0
0
0
0
0
0
0
0
0
0
0
0
0
0
0
0
0
0
0
0
0
0
0
0
0
0
0
0
0
0
0
0
0
0
0
0
0
0
0
0
0
0
0
0
0
0
0
0
0
0
0
0
0
0
0
0
0
0
0
0
0
0
0
0
0
0
0
0
0
0
0
0
0
0
0
0
0
0
0
0
0
0
0
0
0
0
0
0
0
0
0
0
0
0
0
0
0
0
0
0
0
0
0
0
0
0
0
0
0
0
0
0
0
0
0
0
0
0
0
0
0
0
0
0
0
0
0
0
0
0
0
0
0
0
0
0
0
0
0
0
0
0
0
0
0
0
0
0
0
0
0
0
0
0
0
0
0
0
0
0
0
0
0
0
0
0
0
0
0
0
0
0
0
0
0
0
0
0
0
0
0
0
0
0
0
0
0
0
0
0
0
0
0
0
0
0
0
0
0
0
0
0
0
0
0
0
0
0
0
0
0
0
0
0
0
0
0
0
0
0
0
0
0
0
0
0
0
0
0
0
0
0
0
0
0
0
0
0
0
0
0
0
0
0
0
0
0
0
0
0
0
0
0
0
0
0
0
0
0
0
0
0
0
0
0
0
0
0
0
0
0
0
0
0
0
0
0
0
0
0
0
0
0
0
0
0
0
0
0
0
0
)
;

boundaryField
{
    leftWall
    {
        type            alphaContactAngle;
        contactAngleProperties 
        {
            air             
            {
                theta0          90;
            }
            water           
            {
                theta0          90;
            }
            oil             
            {
                theta0          90;
            }
        }
        value           nonuniform List<scalar> 
50
(
1
1
1
1
1
1
1
1
1
1
0.948076
0.245522
0
0
0
0
0
0
0
0
0
0
0
0
0
0
0
0
0
0
0
0
0
0
0
0
0
0
0
0
0
0
0
0
0
0
0
0
0
0
)
;
    }
    rightWall
    {
        type            alphaContactAngle;
        contactAngleProperties 
        {
            air             
            {
                theta0          90;
            }
            water           
            {
                theta0          90;
            }
            oil             
            {
                theta0          90;
            }
        }
        value           nonuniform List<scalar> 
50
(
0
0
0
0
-1.92518e-65
1.22224e-62
3.12035e-56
2.96289e-52
2.03444e-51
1.9389e-52
1.13609e-52
4.02011e-52
2.81969e-53
9.19558e-55
1.67662e-56
0
0
0
0
0
0
0
0
0
0
0
0
0
0
0
0
0
0
0
0
0
0
0
0
0
0
0
0
0
0
0
0
0
0
0
)
;
    }
    lowerWall
    {
        type            alphaContactAngle;
        contactAngleProperties 
        {
            air             
            {
                theta0          90;
            }
            water           
            {
                theta0          90;
            }
            oil             
            {
                theta0          90;
            }
        }
        value           nonuniform List<scalar> 
62
(
1
1
1
1
1
1
1
1
1
1
1
1
1
1
1
1
1
0.625198
0.0103243
8.49147e-10
9.80436e-10
3.09992e-10
2.29621e-11
2.29621e-11
1.61652e-11
2.2706e-11
1.95005e-11
2.59582e-11
2.48604e-11
1.298e-11
1.67777e-11
8.91194e-12
4.12727e-12
1.85805e-12
6.79107e-13
1.36637e-29
4.10136e-28
2.02951e-26
1.43374e-25
3.37359e-23
2.33871e-23
9.62774e-24
1.10609e-14
1.36637e-29
2.80673e-28
1.70587e-27
3.67471e-27
5.16107e-30
7.9088e-32
7.32333e-33
3.15958e-34
7.26756e-36
6.88018e-38
3.84325e-40
1.16586e-43
7.71016e-54
-2.94815e-60
-7.31954e-63
0
0
0
0
)
;
    }
    atmosphere
    {
        type            inletOutlet;
        inletValue      uniform 0;
        value           uniform 0;
    }
    defaultFaces
    {
        type            empty;
    }
}


// ************************************************************************* //
