/*--------------------------------*- C++ -*----------------------------------*\
  =========                 |
  \\      /  F ield         | OpenFOAM: The Open Source CFD Toolbox
   \\    /   O peration     | Website:  https://openfoam.org
    \\  /    A nd           | Version:  13
     \\/     M anipulation  |
\*---------------------------------------------------------------------------*/
FoamFile
{
    format      ascii;
    class       volScalarField;
    location    "0.1";
    object      epsilon;
}
// * * * * * * * * * * * * * * * * * * * * * * * * * * * * * * * * * * * * * //

dimensions      [0 2 -3 0 0 0 0];

internalField   nonuniform List<scalar> 
2268
(
0.215754
0.391634
0.515163
0.59257
0.646687
0.694812
0.750624
0.826887
0.935948
1.08571
1.2676
1.44168
1.54177
1.51735
1.38371
1.208
1.04291
0.904981
0.77239
0.636797
0.532927
0.431273
0.257031
0.26467
0.27588
0.28967
0.298082
0.305012
0.313216
0.325187
0.34389
0.372693
0.413762
0.464247
0.512183
0.53927
0.535488
0.509393
0.477116
0.46388
0.511145
0.541809
0.494436
0.452297
0.409146
0.30723
0.325865
0.261562
0.242941
0.233788
0.230342
0.231387
0.236946
0.248037
0.26611
0.291644
0.321843
0.348558
0.360716
0.355382
0.341227
0.329396
0.346485
0.398689
0.415735
0.409561
0.411462
0.414956
0.452543
0.359483
0.255992
0.22036
0.202581
0.194424
0.192638
0.196062
0.204732
0.219038
0.238422
0.259815
0.27658
0.281159
0.274082
0.263063
0.257339
0.285423
0.3187
0.335461
0.347305
0.374672
0.419184
0.590554
0.380209
0.252489
0.206382
0.183329
0.172319
0.168842
0.170988
0.178127
0.189917
0.205154
0.220687
0.231018
0.231207
0.223561
0.214166
0.212457
0.234152
0.257688
0.276013
0.297611
0.343057
0.428742
0.737203
0.393771
0.249943
0.196961
0.170366
0.157364
0.15261
0.153662
0.159393
0.168943
0.180736
0.191764
0.197625
0.195568
0.188583
0.181105
0.181844
0.196772
0.215107
0.233402
0.260835
0.321721
0.455676
0.915157
0.403023
0.24801
0.190368
0.161282
0.146778
0.140942
0.140934
0.145248
0.152666
0.161441
0.168872
0.171672
0.168912
0.163774
0.159351
0.161654
0.172844
0.187788
0.205828
0.238019
0.315572
0.515216
1.16565
0.409764
0.246443
0.185623
0.154756
0.139077
0.132277
0.131221
0.134114
0.1395
0.145606
0.150151
0.150966
0.148538
0.146227
0.145875
0.150042
0.159364
0.172592
0.191445
0.22924
0.326645
0.617356
1.63749
0.478399
1.04385
1.85175
2.71111
2.34816
1.49655
1.02976
0.807466
0.711427
0.664872
0.634429
0.6103
0.588985
0.568533
0.546679
0.518908
0.47466
0.389729
0.232891
0.453993
0.648711
0.982002
1.32936
1.1508
0.74843
0.490143
0.376782
0.340395
0.331663
0.329096
0.326835
0.323905
0.320423
0.31637
0.311007
0.302056
0.284402
0.262499
0.677732
0.713162
1.26746
1.46662
1.20066
0.801823
0.486847
0.329909
0.274039
0.259083
0.25628
0.25574
0.255026
0.253991
0.253028
0.252767
0.25454
0.263047
0.337364
0.899178
1.07597
1.94627
1.75203
1.36815
0.930911
0.559363
0.345434
0.258078
0.22905
0.220908
0.218664
0.217636
0.21693
0.216971
0.219171
0.227025
0.251407
0.384373
1.10173
2.48038
2.29073
1.95369
1.50824
1.04196
0.646748
0.384059
0.262263
0.215756
0.199976
0.194639
0.192432
0.191437
0.191916
0.19575
0.207822
0.243141
0.417045
0.971985
1.77362
1.52574
1.44536
1.30755
1.05673
0.708629
0.425893
0.275367
0.211235
0.186988
0.177947
0.174194
0.172688
0.17341
0.178501
0.193747
0.237019
0.440998
0.856504
0.876847
0.888496
0.919674
0.971907
0.975672
0.734669
0.458185
0.290084
0.211118
0.178819
0.166002
0.1606
0.15852
0.159415
0.165544
0.183279
0.232506
0.45897
1.27236
0.992991
0.820694
0.763496
0.813343
0.887499
0.736919
0.477948
0.301971
0.212555
0.173513
0.157248
0.150272
0.147639
0.148687
0.155707
0.175449
0.229232
0.472563
0.416038
0.244703
0.180748
0.147949
0.130864
0.122809
0.12033
0.121345
0.124215
0.127307
0.129028
0.128564
0.127628
0.129708
0.135065
0.141415
0.149949
0.163237
0.185697
0.233787
0.356655
0.695667
1.43289
0.42119
0.243382
0.177398
0.143219
0.12488
0.115435
0.111225
0.110016
0.110213
0.110605
0.110526
0.110422
0.112708
0.120461
0.132184
0.14269
0.154435
0.171404
0.19944
0.253217
0.366755
0.614343
1.07522
0.423697
0.243776
0.176831
0.141806
0.122566
0.112039
0.106486
0.103663
0.102137
0.101081
0.100331
0.100894
0.10564
0.117426
0.132071
0.145628
0.161282
0.182317
0.214185
0.26697
0.357836
0.508108
0.6886
0.426418
0.247936
0.179727
0.143764
0.123697
0.112298
0.105785
0.101867
0.0990403
0.0966617
0.0951503
0.0959499
0.101722
0.114124
0.12801
0.142199
0.159843
0.183441
0.216092
0.262383
0.326986
0.408027
0.478821
0.436948
0.250492
0.182864
0.146458
0.125557
0.113125
0.105499
0.100546
0.0969425
0.0940919
0.0923308
0.092875
0.0977179
0.107652
0.119161
0.132057
0.149143
0.17212
0.201984
0.239404
0.283325
0.328271
0.36027
0.440142
0.248196
0.18211
0.146187
0.125134
0.112347
0.104349
0.0991339
0.0954861
0.092731
0.090856
0.0907428
0.0939803
0.100947
0.109397
0.120007
0.135055
0.15531
0.180615
0.210074
0.241325
0.269639
0.287467
0.441939
0.248756
0.180768
0.144571
0.123634
0.111079
0.103338
0.0983357
0.0947957
0.0920117
0.0899041
0.0891725
0.0910692
0.0956448
0.101501
0.109902
0.122436
0.13931
0.159953
0.183132
0.206633
0.227123
0.240558
0.445516
0.248218
0.178921
0.142506
0.121699
0.109397
0.101943
0.0972102
0.0938819
0.0912153
0.0890649
0.0879954
0.0890006
0.0919424
0.0960847
0.102831
0.113123
0.12687
0.143498
0.162016
0.180914
0.198295
0.212343
0.44963
0.246256
0.176092
0.139734
0.119215
0.107261
0.10016
0.0957656
0.0927399
0.0903128
0.0882865
0.0871209
0.0876239
0.0895787
0.0927539
0.0984146
0.106985
0.118249
0.131821
0.147198
0.163783
0.181102
0.199092
0.453624
0.243957
0.173078
0.13685
0.116645
0.105042
0.0982913
0.0942345
0.0915291
0.0893886
0.0875745
0.0864648
0.0867343
0.0881506
0.0908433
0.0958149
0.103135
0.112581
0.124046
0.137631
0.153782
0.173505
0.198525
0.457237
0.241793
0.170328
0.134223
0.114294
0.102994
0.0965444
0.0927844
0.0903726
0.0885145
0.0869407
0.0859657
0.0861627
0.0873097
0.0897751
0.0942757
0.10068
0.108852
0.119028
0.131999
0.149379
0.173883
0.209289
0.46037
0.239951
0.168014
0.132008
0.112298
0.101236
0.0950243
0.0915044
0.0893408
0.0877377
0.0864037
0.0856021
0.0858188
0.0868431
0.0891845
0.0933132
0.0990288
0.106356
0.115933
0.129323
0.149465
0.181135
0.230842
0.463006
0.23855
0.166227
0.130269
0.110708
0.0998152
0.0937769
0.0904384
0.0884753
0.0870966
0.0859977
0.0853982
0.0856979
0.0866841
0.0889357
0.0927522
0.0979734
0.104848
0.114461
0.129205
0.153494
0.194551
0.262733
0.46521
0.237776
0.165069
0.129057
0.109554
0.0987558
0.0928279
0.0896182
0.0878156
0.086641
0.0857838
0.0854242
0.0858752
0.0869073
0.0891197
0.0927364
0.0977267
0.104616
0.114962
0.131992
0.16162
0.213806
0.303716
0.467125
0.237997
0.164691
0.128418
0.108848
0.0980692
0.0922
0.089082
0.0874183
0.086447
0.0858551
0.0857879
0.0864824
0.0877084
0.0900448
0.0937289
0.0989386
0.106524
0.118522
0.138946
0.17506
0.239324
0.351705
0.468912
0.240297
0.165418
0.128434
0.108624
0.0977985
0.0919648
0.0889334
0.0874166
0.0866738
0.0863904
0.0866584
0.0877008
0.0894096
0.0922638
0.0965617
0.102775
0.112149
0.127233
0.152719
0.196868
0.273744
0.406209
0.472221
0.247755
0.168053
0.129376
0.109055
0.0981255
0.092335
0.0894111
0.0880603
0.0875687
0.0876327
0.0882848
0.0899238
0.0927378
0.0969155
0.102818
0.111322
0.12416
0.144446
0.177454
0.231866
0.322011
0.470182
0.486116
0.265875
0.173111
0.131157
0.110086
0.0990985
0.093446
0.0907107
0.0895759
0.0893738
0.089857
0.0909396
0.09366
0.0986242
0.105357
0.114292
0.126864
0.145541
0.174215
0.218117
0.285907
0.391809
0.556634
0.528865
0.299392
0.179362
0.13298
0.111362
0.100584
0.0952768
0.092867
0.0920278
0.0921766
0.0932085
0.0948024
0.0989696
0.107422
0.118091
0.131368
0.149229
0.175171
0.213359
0.268452
0.3485
0.464418
0.634993
0.566326
0.264985
0.177236
0.131463
0.110586
0.100633
0.0959839
0.0940474
0.0935207
0.0939396
0.0956533
0.098691
0.103674
0.111835
0.123105
0.13883
0.16068
0.191199
0.233922
0.293925
0.374445
0.475728
0.587675
0.581427
0.251377
0.165881
0.128092
0.109383
0.100088
0.0956343
0.0937066
0.0930978
0.0933787
0.094757
0.0976296
0.102335
0.109652
0.120203
0.135268
0.156437
0.185893
0.225976
0.278245
0.34242
0.412324
0.47187
0.560049
0.238004
0.159021
0.12445
0.107079
0.0982407
0.0939537
0.0921245
0.0916277
0.0919832
0.0932002
0.0955179
0.0993406
0.105142
0.113792
0.126557
0.144847
0.17006
0.203437
0.245034
0.291935
0.337022
0.369106
0.548378
0.233299
0.156193
0.122524
0.105583
0.0968894
0.0926299
0.0908035
0.0903171
0.0906533
0.0917026
0.0936013
0.0966144
0.101236
0.108226
0.118616
0.133543
0.153984
0.180342
0.211771
0.245359
0.275769
0.296413
0.541561
0.231482
0.155174
0.121672
0.104786
0.09608
0.091784
0.0899267
0.0894217
0.0897195
0.0906363
0.0922286
0.0947142
0.0984833
0.104147
0.112506
0.124411
0.140499
0.160847
0.18452
0.209211
0.231326
0.246821
0.53577
0.230609
0.154872
0.121391
0.104451
0.095679
0.0913237
0.0894253
0.0888964
0.0891648
0.0899988
0.0913941
0.0935053
0.0966344
0.101241
0.107915
0.117263
0.129702
0.145188
0.162948
0.181323
0.197892
0.209961
0.529835
0.230044
0.154831
0.121358
0.104346
0.0954944
0.0910707
0.0891208
0.0885547
0.0887844
0.0895456
0.0907881
0.0926082
0.0952216
0.0989546
0.104215
0.111414
0.120811
0.132335
0.145408
0.158873
0.171086
0.18019
0.523924
0.22958
0.154851
0.121395
0.104321
0.0953956
0.0909033
0.0888953
0.0882795
0.0884562
0.0891376
0.0902378
0.0918028
0.0939742
0.0969686
0.10105
0.106475
0.113392
0.121721
0.131051
0.140596
0.149258
0.155797
0.518298
0.229175
0.154874
0.121433
0.104305
0.0953142
0.0907571
0.088689
0.0880157
0.0881287
0.0887223
0.0896832
0.0910169
0.092806
0.0951839
0.0983093
0.102327
0.107307
0.11317
0.11963
0.126168
0.13208
0.136578
0.51307
0.228815
0.154885
0.12145
0.104273
0.0952227
0.0906061
0.0884798
0.0877473
0.0877925
0.0882967
0.0891254
0.0902538
0.0917212
0.093602
0.0959835
0.0989377
0.102485
0.106553
0.110941
0.115319
0.119252
0.122264
0.508227
0.228498
0.15489
0.121447
0.10422
0.095115
0.0904441
0.0882638
0.0874747
0.0874545
0.087874
0.0885835
0.0895363
0.0907419
0.092236
0.0940608
0.0962451
0.0987822
0.101608
0.104583
0.107501
0.110098
0.112101
0.50373
0.228221
0.154897
0.121433
0.104153
0.0949951
0.0902742
0.0880451
0.0872047
0.0871249
0.0874688
0.0880752
0.0888827
0.0898809
0.0910817
0.0925006
0.0941426
0.0959888
0.0979845
0.100034
0.102004
0.103741
0.105087
0.499536
0.227984
0.154913
0.121417
0.104081
0.0948714
0.0901044
0.0878319
0.0869464
0.0868149
0.0870937
0.0876139
0.0883037
0.0891405
0.0901216
0.0912477
0.0925118
0.093891
0.0953405
0.0967924
0.0981611
0.0993544
0.100285
0.49562
0.227791
0.154943
0.121407
0.104013
0.0947539
0.0899458
0.087636
0.0867122
0.0865369
0.0867613
0.0872106
0.0878065
0.0885183
0.0893351
0.0902495
0.0912491
0.0923111
0.093399
0.0944642
0.0954501
0.096301
0.0969674
0.492002
0.227646
0.154986
0.121402
0.103954
0.0946536
0.0898132
0.0874743
0.0865202
0.0863091
0.0864887
0.0868802
0.087401
0.0880157
0.0887084
0.0894677
0.090279
0.0911209
0.091964
0.0927726
0.0935091
0.0941391
0.0946355
0.488822
0.227573
0.155031
0.121392
0.103904
0.0945826
0.0897282
0.0873743
0.0864001
0.0861615
0.0863045
0.0866485
0.0871084
0.0876463
0.0882434
0.0888862
0.0895593
0.090243
0.090913
0.0915428
0.0921073
0.0925872
0.0929676
0.48663
0.227652
0.155046
0.121339
0.103852
0.0945559
0.0897249
0.0873815
0.0864027
0.0861462
0.0862598
0.0865637
0.0869724
0.087447
0.0879675
0.088519
0.0890859
0.0896496
0.0901888
0.0906828
0.0911157
0.091479
0.0917688
0.487332
0.228149
0.154953
0.121154
0.103763
0.0945926
0.0898585
0.0875711
0.0866128
0.086351
0.0864417
0.08671
0.087073
0.0874921
0.0879471
0.0884226
0.0889027
0.0893686
0.0897997
0.0901773
0.0904907
0.0907415
0.0909366
0.497163
0.229828
0.154583
0.120645
0.103566
0.0947195
0.0902155
0.0880609
0.0871621
0.0869124
0.0869867
0.087222
0.0875408
0.0879071
0.0883014
0.0887087
0.0891125
0.0894931
0.0898275
0.0900935
0.0902787
0.0903903
0.090451
0.534297
0.234349
0.153504
0.119443
0.103139
0.0949804
0.0909265
0.0890215
0.0882377
0.0880227
0.0880879
0.0882905
0.0885635
0.0888756
0.0892094
0.089551
0.0898843
0.090188
0.0904346
0.0905916
0.0906315
0.0905529
0.0903896
0.644714
0.243428
0.150463
0.116912
0.102339
0.0954654
0.0921781
0.0906755
0.0900734
0.0899184
0.0899808
0.0901493
0.0903723
0.0906255
0.0908953
0.0911702
0.091436
0.0916723
0.0918478
0.0919161
0.0918174
0.0915019
0.0909693
0.933922
0.251175
0.141939
0.112148
0.101121
0.0963714
0.0942193
0.0932733
0.0929124
0.0928362
0.0928974
0.0930264
0.0931911
0.0933766
0.0935742
0.0937764
0.0939737
0.0941512
0.0942828
0.0943196
0.0941703
0.0936803
0.0926361
1.66522
0.214604
0.120938
0.104616
0.0998796
0.098091
0.097337
0.0970265
0.0969246
0.0969237
0.0969728
0.0970478
0.0971377
0.0972374
0.0973438
0.0974543
0.0975659
0.0976745
0.0977727
0.0978422
0.0978268
0.0975309
0.0963129
3.61774
3.26318
2.93708
2.71996
1.38067
1.40644
1.29947
1.16701
0.735193
0.730914
0.702647
0.658477
0.495245
0.493596
0.476955
0.450066
0.365904
0.362823
0.352209
0.336761
0.290284
0.288473
0.282927
0.275765
0.24481
0.2463
0.246527
0.247325
0.220819
0.227227
0.234342
0.243919
0.214178
0.227218
0.242875
0.262855
0.223061
0.244908
0.271503
0.304095
0.247014
0.280487
0.321256
0.370046
0.286401
0.334884
0.392718
0.46011
0.341921
0.409864
0.489587
0.579561
0.412412
0.505141
0.614296
0.730135
0.491819
0.613282
0.762461
0.896515
0.571866
0.71924
0.910648
1.05857
0.645625
0.802179
1.01831
1.1577
0.722039
0.842425
0.975495
1.01247
0.777498
0.832857
0.833335
0.76138
0.652323
0.661141
0.624884
0.554511
0.488914
0.481231
0.454095
0.412938
0.372908
0.365249
0.348558
0.325241
0.298832
0.294421
0.284973
0.271397
0.249752
0.2476
0.242121
0.233713
0.212939
0.211954
0.208591
0.203068
0.18272
0.182274
0.18011
0.176377
0.157708
0.157498
0.156085
0.153565
0.137923
0.137819
0.136897
0.135216
0.123173
0.123116
0.122512
0.121397
0.112706
0.112669
0.112266
0.111519
0.105493
0.105465
0.105189
0.104676
0.100564
0.100542
0.100345
0.0999816
0.0971675
0.0971504
0.0970057
0.0967382
0.0947854
0.0947727
0.0946634
0.0944597
0.0930833
0.0930735
0.0929874
0.0928261
0.0918539
0.0918418
0.0917679
0.0916318
0.0909784
0.0909515
0.0908732
0.0907431
0.0904083
0.0903373
0.0902247
0.0900706
0.0901667
0.089989
0.0897823
0.0895521
0.0903538
0.0899408
0.0895316
0.0891412
0.0911136
0.090219
0.0894435
0.0887939
0.092406
0.0906321
0.0893501
0.0884232
1.70622
1.12572
0.813403
0.688325
0.725304
0.835115
0.735053
0.490618
0.312275
0.214082
0.167456
0.146801
0.137702
0.134331
0.135626
0.143851
0.166123
0.22537
0.489
0.894404
0.682868
0.558815
0.54046
0.658243
0.828181
0.704703
0.458669
0.298497
0.207171
0.160666
0.138509
0.128264
0.124501
0.126157
0.1355
0.159828
0.222969
0.49988
0.554267
0.459719
0.419429
0.470454
0.669793
0.784081
0.569765
0.383467
0.264641
0.192285
0.152552
0.132014
0.121964
0.118315
0.120392
0.130563
0.156233
0.221739
0.506408
0.392323
0.348107
0.353349
0.454386
0.677272
0.666348
0.456667
0.316984
0.230236
0.175983
0.144139
0.126424
0.117308
0.1141
0.116627
0.12742
0.153984
0.220981
0.510089
0.307171
0.294307
0.330025
0.475343
0.637547
0.519716
0.362216
0.263634
0.20139
0.161321
0.136326
0.121522
0.113601
0.11098
0.113954
0.125236
0.152439
0.220471
0.512017
0.265566
0.276241
0.33704
0.490548
0.543461
0.403481
0.290508
0.222126
0.178292
0.148814
0.129308
0.117126
0.110428
0.108441
0.111849
0.123544
0.151259
0.220098
0.512816
0.253921
0.285265
0.374956
0.490644
0.429283
0.313635
0.236617
0.19043
0.159956
0.138254
0.123044
0.11311
0.107563
0.106207
0.110037
0.122112
0.150286
0.219814
0.51282
0.267591
0.318564
0.419404
0.45392
0.342357
0.249936
0.197176
0.166556
0.145426
0.129365
0.117482
0.109424
0.104914
0.104159
0.108401
0.120845
0.149461
0.21961
0.512203
0.306095
0.381888
0.45483
0.386123
0.273946
0.204326
0.168786
0.148685
0.133936
0.12193
0.112596
0.106073
0.102466
0.102269
0.10691
0.119721
0.148774
0.219491
0.511071
0.36978
0.462716
0.465589
0.32946
0.225484
0.172659
0.148712
0.135395
0.124907
0.115782
0.108373
0.103078
0.10024
0.100547
0.105571
0.118747
0.148234
0.219464
0.509493
0.465099
0.538983
0.437986
0.284141
0.192467
0.151407
0.134724
0.125597
0.117888
0.110774
0.104791
0.10046
0.0982624
0.0990181
0.104405
0.11794
0.14785
0.219536
0.507522
0.587782
0.595466
0.417293
0.256259
0.171535
0.137533
0.125108
0.118464
0.112507
0.106759
0.101809
0.0982204
0.0965492
0.0977006
0.103427
0.117311
0.147632
0.21971
0.505206
0.717464
0.627286
0.403832
0.237925
0.157755
0.128431
0.118578
0.113351
0.108442
0.103586
0.0993689
0.0963453
0.0951049
0.0966043
0.102649
0.116868
0.14758
0.219983
0.502586
0.846177
0.658918
0.394371
0.223033
0.147878
0.122473
0.114268
0.109774
0.105424
0.101117
0.0974055
0.0948093
0.0939225
0.0957294
0.10207
0.116609
0.14769
0.220347
0.499705
0.953409
0.674014
0.376927
0.208319
0.14077
0.118836
0.111616
0.107365
0.103235
0.0992364
0.0958629
0.0935868
0.0929902
0.0950701
0.101686
0.116529
0.147952
0.220792
0.496603
1.01673
0.648033
0.345817
0.193692
0.13574
0.116981
0.110233
0.105851
0.101688
0.0978247
0.0946772
0.0926514
0.0923032
0.094629
0.101503
0.116635
0.148379
0.22137
0.49347
0.987945
0.57394
0.305821
0.180013
0.132744
0.116622
0.109837
0.105014
0.100631
0.0967851
0.0937858
0.091962
0.0918356
0.0943959
0.101524
0.116945
0.149014
0.222192
0.490874
0.811607
0.468687
0.264186
0.169198
0.131919
0.117506
0.110162
0.104653
0.0999274
0.0960265
0.0931288
0.0914775
0.0915555
0.0943413
0.10172
0.117429
0.149824
0.223197
0.488645
0.591902
0.370121
0.231495
0.163044
0.133103
0.119221
0.110881
0.104549
0.0994382
0.0954604
0.0926474
0.0911548
0.0914268
0.0944309
0.102056
0.118049
0.150768
0.224323
0.486603
0.443743
0.304525
0.211682
0.161107
0.135401
0.121108
0.111593
0.104469
0.0990254
0.0950014
0.0922839
0.0909497
0.0914107
0.0946262
0.102489
0.118758
0.151787
0.22549
0.48458
0.348661
0.263625
0.200425
0.160987
0.137429
0.1224
0.111889
0.104194
0.0985649
0.0945727
0.0919846
0.090819
0.0914672
0.0948862
0.102976
0.119504
0.152816
0.22661
0.482483
0.288937
0.236726
0.192265
0.160022
0.137879
0.12246
0.111458
0.103564
0.0979661
0.0941147
0.0917038
0.0907227
0.0915574
0.09517
0.103469
0.120233
0.153792
0.22761
0.480286
0.249814
0.216057
0.183383
0.156435
0.135979
0.120975
0.11017
0.102515
0.0971859
0.0935916
0.0914082
0.0906275
0.0916469
0.0954409
0.10393
0.1209
0.154662
0.228438
0.478012
0.219925
0.196794
0.172091
0.149784
0.131722
0.118038
0.108102
0.101084
0.0962316
0.0929929
0.0910778
0.0905087
0.0917078
0.0956682
0.104324
0.121468
0.155387
0.229066
0.475693
0.193739
0.177316
0.158653
0.140815
0.125763
0.114079
0.10549
0.099385
0.0951492
0.0923292
0.0907057
0.0903509
0.0917203
0.0958293
0.104626
0.12191
0.155942
0.22948
0.473369
0.169919
0.158246
0.144505
0.130899
0.119072
0.109678
0.102646
0.0975693
0.0940048
0.0916241
0.0902951
0.0901471
0.0916728
0.0959106
0.104823
0.122213
0.156316
0.22968
0.471072
0.149127
0.141019
0.131278
0.121385
0.112558
0.105368
0.0998516
0.0957781
0.0928641
0.0909054
0.089855
0.0898979
0.0915615
0.0959065
0.104908
0.122372
0.156509
0.229676
0.468838
0.132219
0.126753
0.120089
0.113168
0.106826
0.101509
0.0973064
0.0941144
0.0917789
0.0901984
0.0893975
0.0896085
0.0913891
0.0958187
0.104883
0.122391
0.156527
0.229483
0.466693
0.119395
0.115785
0.111328
0.106593
0.102129
0.0982641
0.0951077
0.0926349
0.0907821
0.0895224
0.0889347
0.0892876
0.0911627
0.0956546
0.104758
0.122281
0.156385
0.229124
0.464663
0.110174
0.107795
0.104822
0.10159
0.0984524
0.095645
0.0932734
0.0913572
0.0898886
0.0888901
0.0884774
0.0889451
0.0908924
0.0954252
0.104544
0.122056
0.156104
0.228622
0.462767
0.103751
0.102151
0.100133
0.097889
0.0956478
0.0935783
0.0917736
0.0902735
0.089101
0.0883083
0.0880345
0.0885912
0.0905896
0.0951434
0.104257
0.121735
0.155703
0.228002
0.461026
0.0993223
0.098206
0.0967861
0.0951764
0.0935275
0.0919621
0.0905587
0.0893632
0.0884142
0.0877798
0.087613
0.0882356
0.090266
0.0948231
0.103913
0.121337
0.155205
0.227289
0.459451
0.0962494
0.0954317
0.0943853
0.0931804
0.0919209
0.0906978
0.0895763
0.0886019
0.0878193
0.0873046
0.0872179
0.0878864
0.0899325
0.0944774
0.103528
0.120881
0.154634
0.226508
0.458054
0.0940818
0.0934501
0.0926384
0.0916939
0.0906921
0.0897028
0.0887799
0.0879656
0.0873062
0.0868809
0.0868525
0.0875504
0.0895984
0.0941183
0.103116
0.120384
0.154008
0.225679
0.45684
0.0925207
0.0920047
0.0913416
0.0905668
0.0897382
0.0889108
0.0881294
0.0874321
0.0868642
0.0865052
0.0865183
0.0872326
0.0892715
0.0937561
0.10269
0.119861
0.153346
0.224822
0.455815
0.0913695
0.0909215
0.0903517
0.0896892
0.0889799
0.0882677
0.0875898
0.0869799
0.0864812
0.086172
0.0862143
0.0869356
0.0889575
0.0933992
0.102262
0.119328
0.152665
0.223955
0.454978
0.0904935
0.0900746
0.0895602
0.0889739
0.088351
0.0877255
0.0871274
0.0865863
0.0861428
0.0858731
0.085937
0.0866596
0.0886596
0.0930539
0.10184
0.118795
0.15198
0.223094
0.454329
0.0897909
0.0893614
0.0888747
0.0883436
0.0877897
0.0872365
0.0867067
0.0862256
0.0858307
0.0855962
0.0856791
0.0864015
0.0883789
0.0927247
0.101433
0.118274
0.151306
0.222254
0.453862
0.0891742
0.0886886
0.0882101
0.0877254
0.0872363
0.086753
0.0862903
0.0858689
0.0855236
0.085326
0.0854307
0.0861562
0.0881146
0.0924156
0.101049
0.11778
0.150661
0.221455
0.453564
0.0885677
0.0879789
0.0874987
0.0870634
0.086645
0.0862376
0.0858479
0.0854922
0.0852028
0.085049
0.0851828
0.0859195
0.0878675
0.092133
0.100701
0.117331
0.150074
0.220734
0.453408
0.0879325
0.0872142
0.0867382
0.0863623
0.0860219
0.0856956
0.0853835
0.0850983
0.0848704
0.0847671
0.0849381
0.0856959
0.0876455
0.0918897
0.10041
0.116959
0.149588
0.22015
0.453324
0.0873253
0.0865505
0.086105
0.0857865
0.0855105
0.0852486
0.0849977
0.0847691
0.0845918
0.0845319
0.0847373
0.0855184
0.0874777
0.0917154
0.100209
0.116706
0.149253
0.21973
0.45316
)
;

boundaryField
{
    leftWall
    {
        type            epsilonWallFunction;
        value           nonuniform List<scalar> 
50
(
0.215754
0.26467
0.325865
0.359483
0.380209
0.393771
0.403023
0.409764
0.416038
0.42119
0.423697
0.426418
0.436948
0.440142
0.441939
0.445516
0.44963
0.453624
0.457237
0.46037
0.463006
0.46521
0.467125
0.468912
0.472221
0.486116
0.528865
0.566326
0.581427
0.560049
0.548378
0.541561
0.53577
0.529835
0.523924
0.518298
0.51307
0.508227
0.50373
0.499536
0.49562
0.492002
0.488822
0.48663
0.487332
0.497163
0.534297
0.644714
0.933922
1.66522
)
;
    }
    rightWall
    {
        type            epsilonWallFunction;
        value           nonuniform List<scalar> 
50
(
0.232891
0.262499
0.337364
0.384373
0.417045
0.440998
0.45897
0.472563
0.489
0.49988
0.506408
0.510089
0.512017
0.512816
0.51282
0.512203
0.511071
0.509493
0.507522
0.505206
0.502586
0.499705
0.496603
0.49347
0.490874
0.488645
0.486603
0.48458
0.482483
0.480286
0.478012
0.475693
0.473369
0.471072
0.468838
0.466693
0.464663
0.462767
0.461026
0.459451
0.458054
0.45684
0.455815
0.454978
0.454329
0.453862
0.453564
0.453408
0.453324
0.45316
)
;
    }
    lowerWall
    {
        type            epsilonWallFunction;
        value           nonuniform List<scalar> 
62
(
0.215754
0.391634
0.515163
0.59257
0.646687
0.694812
0.750624
0.826887
0.935948
1.08571
1.2676
1.44168
1.54177
1.51735
1.38371
1.208
1.04291
0.904981
0.77239
0.636797
0.532927
0.431273
0.257031
0.257031
0.30723
0.452543
0.590554
0.737203
0.915157
1.16565
1.63749
3.61774
3.26318
2.93708
2.71996
0.478399
0.453993
0.677732
0.899178
1.10173
0.971985
0.856504
1.27236
0.478399
1.04385
1.85175
2.71111
2.34816
1.49655
1.02976
0.807466
0.711427
0.664872
0.634429
0.6103
0.588985
0.568533
0.546679
0.518908
0.47466
0.389729
0.232891
)
;
    }
    atmosphere
    {
        type            inletOutlet;
        inletValue      uniform 0.1;
        value           nonuniform List<scalar> 
46
(
0.1
0.1
0.1
0.1
0.1
0.1
0.1
0.1
0.1
0.1
0.1
0.1
0.1
0.1
0.1
0.1
0.1
0.1
0.1
0.1
0.1
0.1
0.1
0.092406
0.0906321
0.0893501
0.0884232
0.0873253
0.0865505
0.086105
0.0857865
0.0855105
0.0852486
0.0849977
0.0847691
0.0845918
0.0845319
0.0847373
0.0855184
0.0874777
0.0917154
0.100209
0.116706
0.149253
0.21973
0.45316
)
;
    }
    defaultFaces
    {
        type            empty;
    }
}


// ************************************************************************* //
