/*--------------------------------*- C++ -*----------------------------------*\
  =========                 |
  \\      /  F ield         | OpenFOAM: The Open Source CFD Toolbox
   \\    /   O peration     | Website:  https://openfoam.org
    \\  /    A nd           | Version:  13
     \\/     M anipulation  |
\*---------------------------------------------------------------------------*/
FoamFile
{
    format      ascii;
    class       volScalarField;
    location    "0.1";
    object      k;
}
// * * * * * * * * * * * * * * * * * * * * * * * * * * * * * * * * * * * * * //

dimensions      [0 2 -2 0 0 0 0];

internalField   nonuniform List<scalar> 
2268
(
0.0134493
0.0201672
0.0243074
0.0267556
0.0284183
0.0298632
0.0314949
0.0336526
0.0366138
0.040481
0.0449346
0.0490228
0.0513666
0.050952
0.0480248
0.0438974
0.0397765
0.0360906
0.0325839
0.028536
0.0251106
0.0216604
0.0152439
0.025507
0.0420388
0.0501781
0.054775
0.0578286
0.0604315
0.0633341
0.0671351
0.0722509
0.0786845
0.0856784
0.0914805
0.0937403
0.091194
0.0849136
0.0769389
0.0696001
0.0646606
0.0583425
0.0510761
0.0475712
0.0440328
0.0283198
0.0293589
0.0512762
0.0610954
0.0666006
0.0703425
0.0736063
0.0772455
0.081903
0.0879529
0.0952418
0.102774
0.10854
0.110055
0.106471
0.09934
0.0905926
0.0838896
0.0783408
0.0699311
0.0646384
0.0635596
0.0606877
0.0367913
0.0313859
0.0565234
0.0673637
0.0733998
0.0775671
0.0812549
0.0853393
0.0904293
0.0967988
0.10414
0.111312
0.116268
0.116754
0.112503
0.105159
0.0963844
0.0914151
0.0846476
0.0774233
0.0743012
0.0754145
0.0739253
0.0440503
0.0326103
0.0597856
0.0713551
0.0777628
0.0822174
0.0861715
0.0904881
0.0957096
0.102
0.108929
0.115305
0.119194
0.11877
0.114274
0.107136
0.0992537
0.0942235
0.0879581
0.0828035
0.0817327
0.0850471
0.0859584
0.0511752
0.0334031
0.0619048
0.0740151
0.0806967
0.0853401
0.0894324
0.0938029
0.0989165
0.104836
0.111059
0.116427
0.119238
0.118231
0.113978
0.10755
0.101034
0.0961376
0.0911625
0.0878882
0.0886794
0.0944086
0.0992893
0.0592197
0.0339411
0.0633191
0.075827
0.0827092
0.0874648
0.0915905
0.0958709
0.100693
0.106038
0.11138
0.115667
0.117529
0.11634
0.112891
0.107891
0.102926
0.0988901
0.0954019
0.0939124
0.0966374
0.105406
0.116851
0.0697251
0.034332
0.0642722
0.0770627
0.0840869
0.0888943
0.0929705
0.0970495
0.101446
0.106084
0.110455
0.113677
0.114793
0.11379
0.111703
0.108832
0.105709
0.102904
0.101084
0.101565
0.106636
0.119426
0.14112
0.0876965
0.0241018
0.0412815
0.060955
0.0798886
0.0744025
0.0546049
0.041256
0.0340898
0.0308021
0.0292135
0.0282034
0.0274182
0.0267297
0.0260693
0.0253614
0.0244574
0.0230017
0.0201122
0.0141843
0.0409547
0.080505
0.129975
0.172858
0.167712
0.125864
0.0887462
0.0682401
0.0591165
0.0551442
0.0533339
0.0524357
0.0519147
0.0514948
0.0509377
0.0498611
0.0474536
0.0417615
0.0272453
0.0534399
0.108748
0.183
0.223004
0.213535
0.170437
0.122148
0.0914653
0.0770483
0.0707985
0.0680796
0.0668094
0.0661038
0.0655342
0.0647596
0.0632766
0.0600805
0.0527345
0.0323
0.0646553
0.143268
0.238922
0.253538
0.240981
0.201755
0.150259
0.111698
0.0917939
0.0826703
0.0785844
0.0766525
0.0755786
0.0747354
0.0736693
0.0717922
0.0680037
0.0595744
0.0353141
0.0740719
0.225517
0.248058
0.259627
0.253187
0.221248
0.173542
0.130453
0.105317
0.0928897
0.0870257
0.0841587
0.0825526
0.0813414
0.0799424
0.0776936
0.0734311
0.0642036
0.0373531
0.0680837
0.155177
0.169905
0.201275
0.226637
0.225747
0.189696
0.146825
0.117799
0.102089
0.0942317
0.0902417
0.0879815
0.0863358
0.0845839
0.0819905
0.0773337
0.0674758
0.0388242
0.0622202
0.0805182
0.108942
0.147551
0.190357
0.219958
0.200021
0.159972
0.128853
0.110352
0.100528
0.0953421
0.0923606
0.0902439
0.0881359
0.0852263
0.0802315
0.0698521
0.0399176
0.080784
0.0871557
0.103835
0.134848
0.177221
0.215023
0.20726
0.17015
0.138128
0.117595
0.106029
0.0996836
0.0959696
0.0933744
0.0909209
0.0877241
0.0824341
0.0716117
0.0407406
0.0346935
0.0651561
0.0782593
0.0854438
0.0902694
0.0941869
0.0978588
0.101519
0.105055
0.108058
0.109967
0.110444
0.110179
0.110538
0.111284
0.111162
0.110856
0.112072
0.116143
0.125619
0.144876
0.17665
0.160144
0.0349886
0.0655778
0.0788659
0.0861327
0.0908664
0.0944416
0.0974433
0.100057
0.102224
0.103783
0.104669
0.105256
0.106802
0.110699
0.115904
0.119715
0.123249
0.128409
0.136683
0.150181
0.171417
0.201272
0.224179
0.0351324
0.0655828
0.0791008
0.0864725
0.0911397
0.0944243
0.0968731
0.0986761
0.0998864
0.100575
0.100992
0.101906
0.104986
0.111642
0.119357
0.126017
0.133115
0.141897
0.153766
0.170096
0.191842
0.21777
0.236178
0.0353003
0.0656412
0.0796059
0.0871809
0.0918821
0.0950238
0.0971505
0.0984416
0.0989234
0.0988023
0.0987166
0.0997641
0.103588
0.111027
0.119058
0.126986
0.136303
0.147807
0.162058
0.179408
0.199351
0.219276
0.232127
0.0358922
0.0661623
0.0803377
0.0879665
0.0925653
0.0954162
0.0970947
0.0978778
0.0979174
0.0974777
0.0971929
0.0980818
0.101471
0.107816
0.11503
0.122937
0.132891
0.145397
0.160306
0.177017
0.194151
0.209065
0.21745
0.0360739
0.0666733
0.0804369
0.0879362
0.0923873
0.095042
0.0965028
0.0971068
0.0970791
0.096646
0.0962413
0.0967049
0.0991757
0.103945
0.109683
0.116719
0.126184
0.138194
0.152226
0.167319
0.181939
0.193875
0.200363
0.0361767
0.0663974
0.0800587
0.0874818
0.0918951
0.0945625
0.096068
0.0967086
0.0966695
0.0961525
0.0955445
0.0955755
0.0972049
0.100572
0.104866
0.110798
0.119177
0.129896
0.14234
0.155538
0.168115
0.178361
0.184517
0.0363772
0.0663096
0.0797962
0.0870647
0.0913725
0.0939948
0.0955044
0.0961744
0.0961593
0.0956297
0.0949212
0.0946731
0.0956903
0.0980138
0.101243
0.10621
0.113402
0.122615
0.133315
0.144718
0.15578
0.16531
0.172291
0.036607
0.0663261
0.0795241
0.0865629
0.0907204
0.0932703
0.094773
0.0954835
0.0955329
0.0950607
0.0943555
0.0939787
0.0946144
0.0962563
0.0988155
0.10307
0.109236
0.117092
0.126263
0.13625
0.146409
0.156086
0.16488
0.0368295
0.0663907
0.0792773
0.0860614
0.0900478
0.0925074
0.09399
0.0947379
0.0948654
0.0944872
0.0938514
0.0934543
0.0938875
0.0951291
0.0973131
0.101075
0.106443
0.11323
0.121256
0.130339
0.140281
0.150966
0.162613
0.0370302
0.0664728
0.0790741
0.0856165
0.089433
0.0917944
0.0932448
0.0940192
0.0942216
0.0939488
0.0934157
0.0930655
0.093416
0.0944439
0.0964299
0.099846
0.104618
0.110634
0.117924
0.126644
0.137065
0.149656
0.16526
0.0372038
0.0665557
0.078919
0.0852528
0.0889155
0.0911802
0.0925899
0.093378
0.0936451
0.0934763
0.0930613
0.0927994
0.093144
0.0940711
0.0959481
0.0991039
0.103437
0.108946
0.11588
0.124742
0.136295
0.151664
0.172404
0.0373495
0.0666325
0.0788142
0.0849817
0.0885145
0.0906903
0.092055
0.0928463
0.0931671
0.0930989
0.0928136
0.0926732
0.093069
0.0939688
0.0957826
0.0987416
0.102778
0.108024
0.11495
0.124397
0.137641
0.156511
0.183466
0.0374713
0.0666971
0.0787609
0.0848091
0.0882406
0.0903404
0.0916617
0.0924506
0.0928197
0.0928543
0.0927164
0.092736
0.0932427
0.0941885
0.0959953
0.0988515
0.102769
0.108026
0.115302
0.125744
0.141099
0.16392
0.19765
0.0375771
0.0667201
0.0787472
0.0847309
0.0880964
0.0901417
0.0914305
0.0922221
0.0926451
0.0927966
0.0928343
0.0930616
0.093755
0.0948606
0.0967858
0.0997228
0.103796
0.109434
0.117496
0.12938
0.147196
0.174037
0.21413
0.0376794
0.0666584
0.0787735
0.0847585
0.0881029
0.0901296
0.091415
0.0922332
0.0927333
0.0930313
0.0932844
0.0937613
0.094724
0.0961878
0.0984923
0.101848
0.10652
0.113096
0.122593
0.13656
0.157261
0.187933
0.232913
0.0378877
0.0665921
0.0789743
0.0850132
0.0883782
0.0904327
0.0917591
0.09264
0.093244
0.0937138
0.0942171
0.0949882
0.0963891
0.0986018
0.101775
0.106117
0.112065
0.120375
0.13219
0.149083
0.173153
0.207295
0.255075
0.0387169
0.0668067
0.079523
0.0855822
0.0889928
0.0911382
0.0925762
0.093577
0.0943207
0.0949909
0.0957935
0.0968937
0.099032
0.102608
0.107343
0.113423
0.121503
0.132593
0.147966
0.168764
0.196696
0.234244
0.284204
0.041041
0.0682744
0.0807001
0.0865444
0.0899846
0.0922892
0.0939162
0.0950932
0.0960085
0.0969052
0.0980737
0.0995399
0.102611
0.108296
0.115303
0.123698
0.134327
0.14857
0.167497
0.19166
0.222329
0.260623
0.308973
0.0429432
0.0699668
0.0824593
0.0871618
0.0904845
0.092942
0.0947612
0.0961007
0.0971313
0.0981614
0.0997474
0.102108
0.105683
0.111199
0.118531
0.128202
0.140744
0.15686
0.177284
0.202802
0.232875
0.265943
0.297939
0.0435947
0.0709885
0.0818699
0.0874503
0.0908554
0.0932212
0.0949092
0.0961128
0.0970149
0.0979153
0.0992825
0.101547
0.104985
0.110062
0.117056
0.126469
0.138777
0.154545
0.174056
0.196975
0.222189
0.246795
0.265571
0.0425324
0.0701698
0.0812774
0.0869604
0.0903347
0.092572
0.0941406
0.0952816
0.0961875
0.0970988
0.0983453
0.100261
0.103176
0.107388
0.113358
0.121647
0.132707
0.146795
0.163918
0.183429
0.203562
0.221389
0.233161
0.0419473
0.0699799
0.0810767
0.0866591
0.0899099
0.0920065
0.0934529
0.0945131
0.0953782
0.0962477
0.0973641
0.0989911
0.101384
0.104874
0.10989
0.116919
0.126366
0.138404
0.15281
0.168761
0.184667
0.198246
0.207074
0.0416026
0.069997
0.0810639
0.0865198
0.0896425
0.0916178
0.0929638
0.0939534
0.0947717
0.0955881
0.0965886
0.0979813
0.0999957
0.102914
0.107101
0.112961
0.120826
0.130804
0.142637
0.155576
0.168335
0.179247
0.186654
0.0413049
0.0700113
0.0810916
0.0864726
0.0895029
0.0913882
0.0926588
0.0935935
0.0943729
0.0951458
0.0960615
0.0972838
0.0990017
0.101449
0.104919
0.109728
0.116134
0.12421
0.133729
0.144083
0.154294
0.163139
0.169389
0.0409958
0.0699609
0.0810917
0.0864484
0.0894243
0.0912474
0.0924606
0.0933488
0.09409
0.0948196
0.0956614
0.096745
0.0982196
0.100267
0.103108
0.106977
0.112063
0.118416
0.125857
0.133928
0.141903
0.14888
0.153929
0.0406848
0.0698537
0.0810441
0.0864066
0.0893569
0.0911397
0.0923095
0.0931567
0.0938586
0.0945413
0.0953104
0.096269
0.0975306
0.0992294
0.101522
0.10457
0.108502
0.113345
0.118967
0.125037
0.131033
0.136302
0.14017
0.040386
0.0697146
0.080956
0.0863344
0.0892749
0.0910322
0.0921689
0.0929797
0.0936416
0.0942745
0.0949709
0.0958131
0.0968856
0.0982827
0.100109
0.10247
0.105441
0.109033
0.113147
0.11755
0.121882
0.125694
0.128515
0.040106
0.0695614
0.0808398
0.0862333
0.0891706
0.0909113
0.0920225
0.0928016
0.0934251
0.0940085
0.0946346
0.0953705
0.0962785
0.0974226
0.0988693
0.10068
0.102897
0.105514
0.108457
0.111567
0.114601
0.117265
0.119252
0.0398449
0.0694036
0.0807068
0.0861108
0.0890464
0.0907753
0.0918666
0.0926188
0.0932076
0.0937449
0.0943067
0.094949
0.0957182
0.096657
0.0978057
0.0991976
0.10085
0.102749
0.104838
0.107007
0.109099
0.110927
0.1123
0.0396011
0.0692464
0.0805658
0.0859757
0.0889093
0.0906291
0.0917049
0.0924348
0.0929935
0.0934901
0.0939955
0.0945582
0.0952137
0.0959906
0.096912
0.097994
0.0992395
0.100631
0.102125
0.103645
0.10509
0.106344
0.107291
0.0393728
0.0690936
0.0804251
0.0858381
0.0887692
0.0904817
0.0915451
0.092257
0.0927905
0.0932525
0.0937102
0.094207
0.0947711
0.0954223
0.0961733
0.0970299
0.097988
0.0990296
0.10012
0.101206
0.102221
0.103095
0.103758
0.0391589
0.0689501
0.0802945
0.0857106
0.0886397
0.0903462
0.0913996
0.0920968
0.0926095
0.0930426
0.0934607
0.0939037
0.0943952
0.0949494
0.0955731
0.0962665
0.0970219
0.0978224
0.0986404
0.0994385
0.100173
0.100799
0.101276
0.0389613
0.0688268
0.0801906
0.0856126
0.0885406
0.0902419
0.0912866
0.0919713
0.0924663
0.0928751
0.0932604
0.0936595
0.0940933
0.0945725
0.0951005
0.0956743
0.0962852
0.0969177
0.0975497
0.0981543
0.0987021
0.0991649
0.0995182
0.0387887
0.0687509
0.080147
0.0855785
0.0885049
0.0901995
0.0912345
0.0919065
0.0923852
0.0927725
0.0931297
0.0934924
0.0938796
0.0942998
0.0947544
0.0952391
0.0957444
0.0962562
0.0967567
0.0972257
0.0976436
0.0979935
0.098261
0.0386745
0.0687914
0.0802353
0.0856726
0.088589
0.0902685
0.0912873
0.0919426
0.092403
0.0927691
0.0931007
0.0934317
0.0937799
0.0941523
0.094549
0.0949648
0.0953901
0.0958115
0.0962135
0.0965805
0.0968994
0.0971617
0.0973608
0.0387308
0.069116
0.0806014
0.0860108
0.0888849
0.0905246
0.0915103
0.0921379
0.0925737
0.0929157
0.0932212
0.0935227
0.0938361
0.0941676
0.0945164
0.0948766
0.0952384
0.0955884
0.0959116
0.0961938
0.096426
0.0966064
0.0967364
0.0393108
0.0700991
0.0815176
0.0867813
0.0895288
0.0910741
0.0919923
0.0925713
0.0929703
0.0932812
0.0935575
0.0938283
0.0941082
0.094402
0.0947084
0.0950212
0.09533
0.0956209
0.0958773
0.0960832
0.0962285
0.0963157
0.0963559
0.0413816
0.0724673
0.0834125
0.0882404
0.0906903
0.0920435
0.0928385
0.0933372
0.0936811
0.0939505
0.094191
0.0944275
0.0946717
0.0949273
0.0951927
0.0954617
0.095724
0.0959647
0.0961646
0.0963015
0.0963569
0.0963289
0.0962357
0.0471066
0.0773328
0.0867739
0.0906298
0.0925194
0.0935481
0.0941507
0.0945317
0.0947992
0.0950139
0.0952095
0.0954043
0.0956066
0.095819
0.0960397
0.0962633
0.0964808
0.096678
0.0968337
0.0969183
0.0968955
0.0967381
0.0964487
0.060424
0.0857036
0.0917544
0.0939758
0.0950479
0.0956396
0.0959951
0.0962288
0.0964016
0.0965478
0.0966863
0.0968274
0.0969758
0.0971328
0.0972969
0.0974648
0.0976302
0.0977829
0.0979058
0.097969
0.0979208
0.0976812
0.0971505
0.0886364
0.0966391
0.0974912
0.0978653
0.0981026
0.098259
0.0983669
0.0984481
0.0985166
0.0985809
0.0986459
0.0987143
0.0987874
0.0988653
0.0989477
0.0990331
0.0991196
0.0992044
0.0992824
0.0993428
0.0993558
0.0992258
0.0986596
0.150433
0.140625
0.131266
0.12492
0.226989
0.221959
0.212435
0.201006
0.236486
0.232512
0.225189
0.215792
0.232856
0.229752
0.223069
0.214138
0.217339
0.214741
0.209738
0.203328
0.200601
0.199114
0.196132
0.192557
0.18602
0.186197
0.185694
0.185339
0.175865
0.178223
0.180656
0.183961
0.17129
0.176374
0.182268
0.189719
0.172755
0.181189
0.191167
0.203179
0.180211
0.192691
0.207464
0.224701
0.193261
0.210418
0.230263
0.252771
0.211371
0.23387
0.259328
0.287262
0.233459
0.261946
0.293945
0.326947
0.257355
0.291959
0.331959
0.366996
0.280911
0.319926
0.366941
0.402041
0.303031
0.341844
0.390982
0.420662
0.326614
0.354604
0.382788
0.388592
0.343152
0.354807
0.352469
0.332746
0.313459
0.314388
0.303119
0.282092
0.269621
0.266482
0.257241
0.2432
0.234135
0.231166
0.224863
0.215889
0.208064
0.206266
0.202324
0.196539
0.188054
0.187129
0.18463
0.180717
0.17091
0.170467
0.16881
0.166037
0.155303
0.155098
0.153956
0.151948
0.141275
0.141179
0.140385
0.13894
0.129342
0.129297
0.128749
0.12773
0.119842
0.11982
0.119445
0.118739
0.112709
0.112697
0.11244
0.111952
0.107573
0.107564
0.107385
0.107044
0.103955
0.103947
0.103818
0.103574
0.101417
0.101409
0.101314
0.101133
0.0996221
0.0996153
0.0995417
0.0994029
0.0983381
0.0983308
0.0982709
0.0981593
0.0974131
0.0974016
0.0973475
0.0972509
0.0967557
0.0967314
0.0966716
0.0965766
0.0963184
0.0962637
0.0961796
0.0960666
0.0960919
0.095973
0.0958309
0.0956696
0.0960983
0.0958524
0.0955975
0.0953438
0.0963682
0.0958867
0.0954456
0.0950547
0.0968468
0.0959699
0.0952918
0.0947667
0.117051
0.114376
0.120663
0.14209
0.18023
0.220708
0.218759
0.182116
0.149533
0.127107
0.113384
0.105431
0.100639
0.0973291
0.0943721
0.0907721
0.0850726
0.0736504
0.0417338
0.178505
0.161589
0.156812
0.170987
0.20853
0.249756
0.232986
0.187501
0.15545
0.13329
0.118897
0.109983
0.104346
0.1004
0.0969717
0.0929811
0.0868695
0.0748902
0.0423856
0.195998
0.179167
0.176267
0.195802
0.245836
0.271474
0.222503
0.181143
0.154183
0.134742
0.121346
0.112429
0.106468
0.102169
0.0984349
0.0941654
0.0877554
0.0754246
0.0427731
0.196834
0.184696
0.18858
0.219009
0.275389
0.268481
0.209972
0.173023
0.150108
0.133627
0.121689
0.113248
0.107321
0.102905
0.0990148
0.0945778
0.087989
0.0754898
0.042987
0.191884
0.1871
0.19957
0.244483
0.286481
0.245604
0.19454
0.164246
0.145137
0.131245
0.120728
0.112939
0.107251
0.10288
0.0989526
0.0944486
0.0877934
0.0752745
0.0430933
0.187423
0.190899
0.212768
0.262436
0.27358
0.220988
0.179328
0.155257
0.139785
0.128125
0.118921
0.111853
0.106524
0.102309
0.098437
0.0939525
0.0873265
0.074897
0.0431308
0.186832
0.198867
0.232523
0.270722
0.244049
0.196535
0.164857
0.146526
0.134291
0.124564
0.116576
0.110255
0.105355
0.10137
0.097623
0.0932263
0.0867013
0.0744316
0.0431205
0.192437
0.212646
0.251143
0.2625
0.216606
0.175847
0.152003
0.138457
0.12889
0.120821
0.11395
0.108369
0.103928
0.100215
0.0966386
0.0923769
0.0859988
0.0739256
0.0430738
0.205795
0.23545
0.263744
0.238633
0.191175
0.15857
0.141121
0.131274
0.123807
0.117133
0.111264
0.106379
0.102392
0.0989671
0.0955852
0.0914846
0.0852759
0.0734097
0.0429973
0.227045
0.262405
0.266608
0.216217
0.171021
0.145009
0.132317
0.12511
0.119227
0.113693
0.108689
0.10443
0.100866
0.0977212
0.0945386
0.0906071
0.0845713
0.072904
0.0428955
0.257466
0.285694
0.255374
0.197126
0.156103
0.134973
0.125457
0.120008
0.115271
0.110634
0.106345
0.102619
0.0994301
0.0965435
0.0935516
0.0897838
0.0839109
0.0724217
0.0427715
0.294307
0.301838
0.246137
0.184653
0.146014
0.127883
0.120291
0.11594
0.111988
0.108021
0.104295
0.101006
0.0981348
0.0954762
0.0926578
0.0890396
0.0833108
0.0719716
0.0426282
0.329843
0.309537
0.239567
0.17609
0.139045
0.122931
0.116518
0.112812
0.109359
0.105861
0.102558
0.0996146
0.0970055
0.0945423
0.0918763
0.0883885
0.0827803
0.071559
0.042468
0.361771
0.31603
0.23434
0.168993
0.133897
0.119533
0.113883
0.110506
0.107322
0.104126
0.101126
0.0984472
0.0960499
0.093751
0.0912153
0.0878366
0.0823234
0.0711869
0.042293
0.385693
0.317046
0.226364
0.161985
0.130095
0.117377
0.112187
0.108892
0.105802
0.102775
0.0999788
0.097496
0.095266
0.0931022
0.0906751
0.0873841
0.0819401
0.0708561
0.0421056
0.39711
0.306442
0.213732
0.155056
0.127393
0.116246
0.111265
0.107849
0.104706
0.101743
0.0990776
0.0967405
0.0946434
0.0925904
0.0902505
0.0870251
0.0816244
0.0705623
0.0419223
0.386259
0.282297
0.198042
0.14875
0.12585
0.11602
0.110975
0.10726
0.103949
0.100973
0.0983833
0.0961536
0.0941627
0.0921998
0.0899282
0.0867472
0.081364
0.0702954
0.0417693
0.341957
0.249491
0.182315
0.144116
0.125586
0.116562
0.111158
0.106997
0.103442
0.100403
0.097855
0.0957077
0.093804
0.0919151
0.0896959
0.0865409
0.0811531
0.0700544
0.0416361
0.286176
0.219407
0.170793
0.142012
0.126491
0.117614
0.111602
0.106915
0.103086
0.0999709
0.097451
0.0953738
0.0935456
0.0917189
0.0895394
0.0863954
0.0809851
0.0698367
0.0415129
0.246978
0.200015
0.164699
0.141996
0.127982
0.118753
0.112039
0.10685
0.102785
0.0996136
0.0971301
0.0951224
0.0933646
0.0915928
0.0894437
0.0862995
0.0808536
0.0696415
0.0413907
0.220024
0.188002
0.161674
0.142612
0.12921
0.119493
0.112195
0.106647
0.102446
0.0992751
0.0968541
0.0949251
0.0932382
0.0915176
0.089393
0.0862418
0.0807528
0.0694687
0.0412643
0.201174
0.179311
0.159038
0.142389
0.129406
0.119437
0.111862
0.106192
0.102002
0.0989113
0.096591
0.0947564
0.093145
0.0914749
0.0893724
0.0862112
0.0806769
0.069319
0.0411323
0.186846
0.171244
0.155089
0.140412
0.128133
0.118386
0.110947
0.105435
0.10142
0.0984961
0.0963181
0.0945959
0.0930663
0.0914482
0.0893678
0.0861974
0.0806204
0.0691921
0.0409957
0.173948
0.162286
0.1492
0.136488
0.12538
0.116384
0.109489
0.104396
0.100703
0.0980224
0.096023
0.0944288
0.0929871
0.0914235
0.0893671
0.0861911
0.080578
0.0690873
0.0408565
0.161091
0.152161
0.141651
0.131034
0.121508
0.113679
0.107635
0.10315
0.0998847
0.0974992
0.0957026
0.0942466
0.092897
0.09139
0.089361
0.086185
0.0805449
0.0690027
0.040717
0.148281
0.141483
0.133283
0.124812
0.117074
0.110625
0.105586
0.101803
0.099013
0.0969457
0.0953612
0.0940465
0.0927898
0.091341
0.0893427
0.0861736
0.0805173
0.0689367
0.0405793
0.136255
0.13122
0.125069
0.118621
0.112638
0.107569
0.10354
0.100458
0.0981392
0.0963846
0.0950069
0.0938294
0.0926635
0.0912729
0.0893086
0.0861535
0.0804926
0.0688874
0.0404451
0.125812
0.12221
0.117774
0.113061
0.108614
0.10477
0.101645
0.0991949
0.097305
0.0958363
0.0946493
0.0935994
0.092519
0.0911856
0.0892578
0.0861235
0.0804693
0.0688535
0.0403163
0.117398
0.114895
0.11179
0.108442
0.105219
0.102367
0.0999843
0.0980633
0.0965377
0.0953165
0.0942972
0.0933615
0.0923597
0.0910809
0.0891916
0.0860841
0.080447
0.0688335
0.0401944
0.111021
0.109307
0.107162
0.104811
0.102497
0.100394
0.0985847
0.0970815
0.095851
0.0948351
0.093958
0.0931215
0.0921901
0.0909626
0.0891125
0.0860368
0.080426
0.0688268
0.0400806
0.106392
0.10521
0.10372
0.102057
0.100382
0.098818
0.0974331
0.0962475
0.0952477
0.0943968
0.0936371
0.0928849
0.0920152
0.0908352
0.0890244
0.0859843
0.0804073
0.0688323
0.039976
0.103105
0.102269
0.101209
0.100005
0.098765
0.0975778
0.0964978
0.0955476
0.0947241
0.094003
0.0933383
0.0926563
0.0918401
0.0907035
0.0889314
0.0859294
0.080392
0.0688497
0.0398813
0.100784
0.100169
0.099384
0.0984806
0.0975326
0.0966049
0.0957414
0.0949636
0.0942731
0.0936527
0.0930639
0.0924397
0.0916694
0.0905721
0.0888374
0.085875
0.0803814
0.0688781
0.0397974
0.0991325
0.0986571
0.0980482
0.0973407
0.0965879
0.0958388
0.0951287
0.0944767
0.0938861
0.0933434
0.0928149
0.092238
0.0915069
0.090445
0.0887462
0.0858239
0.0803768
0.0689172
0.0397245
0.0979393
0.0975509
0.0970542
0.096475
0.095854
0.0952291
0.0946287
0.0940692
0.0935539
0.0930715
0.0925909
0.0920531
0.0913556
0.0903257
0.0886609
0.0857784
0.0803792
0.0689662
0.0396629
0.0970593
0.0967213
0.0962947
0.0958004
0.0952701
0.0947336
0.0942137
0.0937238
0.0932668
0.092832
0.0923904
0.0918853
0.0912171
0.0902163
0.0885838
0.0857403
0.0803891
0.0690245
0.0396128
0.0963912
0.0960737
0.0956878
0.0952505
0.0947855
0.0943154
0.0938577
0.093423
0.0930131
0.0926179
0.0922095
0.0917331
0.0910916
0.0901179
0.0885163
0.0857106
0.0804069
0.0690911
0.039574
0.0958584
0.095532
0.0951654
0.0947681
0.0943545
0.0939391
0.0935342
0.0931474
0.0927794
0.09242
0.0920423
0.0915932
0.0909773
0.09003
0.0884583
0.0856894
0.0804321
0.0691645
0.0395461
0.0953967
0.0950306
0.0946679
0.0943028
0.0939358
0.093572
0.0932178
0.0928776
0.092551
0.0922276
0.0918815
0.0914606
0.0908712
0.0899509
0.0884091
0.0856759
0.080463
0.0692424
0.0395284
0.0949531
0.0945191
0.0941529
0.0938199
0.0935016
0.0931916
0.0928904
0.0925995
0.0923171
0.0920328
0.0917212
0.0913313
0.0907708
0.0898788
0.0883668
0.0856678
0.0804965
0.0693194
0.0395192
0.0945039
0.0939908
0.0936252
0.0933294
0.0930626
0.0928078
0.0925605
0.0923197
0.0920828
0.0918393
0.0915642
0.0912071
0.0906767
0.0898133
0.0883299
0.0856619
0.0805266
0.0693862
0.0395143
0.0940965
0.0935525
0.0932046
0.0929442
0.0927185
0.0925058
0.0922992
0.0920968
0.0918953
0.091684
0.091438
0.0911074
0.0906012
0.0897602
0.0882984
0.0856529
0.0805435
0.0694306
0.0395043
)
;

boundaryField
{
    leftWall
    {
        type            kqRWallFunction;
        value           nonuniform List<scalar> 
50
(
0.0134493
0.025507
0.0293589
0.0313859
0.0326103
0.0334031
0.0339411
0.034332
0.0346935
0.0349886
0.0351324
0.0353003
0.0358922
0.0360739
0.0361767
0.0363772
0.036607
0.0368295
0.0370302
0.0372038
0.0373495
0.0374713
0.0375771
0.0376794
0.0378877
0.0387169
0.041041
0.0429432
0.0435947
0.0425324
0.0419473
0.0416026
0.0413049
0.0409958
0.0406848
0.040386
0.040106
0.0398449
0.0396011
0.0393728
0.0391589
0.0389613
0.0387887
0.0386745
0.0387308
0.0393108
0.0413816
0.0471066
0.060424
0.0886364
)
;
    }
    rightWall
    {
        type            kqRWallFunction;
        value           nonuniform List<scalar> 
50
(
0.0141843
0.0272453
0.0323
0.0353141
0.0373531
0.0388242
0.0399176
0.0407406
0.0417338
0.0423856
0.0427731
0.042987
0.0430933
0.0431308
0.0431205
0.0430738
0.0429973
0.0428955
0.0427715
0.0426282
0.042468
0.042293
0.0421056
0.0419223
0.0417693
0.0416361
0.0415129
0.0413907
0.0412643
0.0411323
0.0409957
0.0408565
0.040717
0.0405793
0.0404451
0.0403163
0.0401944
0.0400806
0.039976
0.0398813
0.0397974
0.0397245
0.0396629
0.0396128
0.039574
0.0395461
0.0395284
0.0395192
0.0395143
0.0395043
)
;
    }
    lowerWall
    {
        type            kqRWallFunction;
        value           nonuniform List<scalar> 
62
(
0.0134493
0.0201672
0.0243074
0.0267556
0.0284183
0.0298632
0.0314949
0.0336526
0.0366138
0.040481
0.0449346
0.0490228
0.0513666
0.050952
0.0480248
0.0438974
0.0397765
0.0360906
0.0325839
0.028536
0.0251106
0.0216604
0.0152439
0.0152439
0.0283198
0.0367913
0.0440503
0.0511752
0.0592197
0.0697251
0.0876965
0.150433
0.140625
0.131266
0.12492
0.0241018
0.0409547
0.0534399
0.0646553
0.0740719
0.0680837
0.0622202
0.080784
0.0241018
0.0412815
0.060955
0.0798886
0.0744025
0.0546049
0.041256
0.0340898
0.0308021
0.0292135
0.0282034
0.0274182
0.0267297
0.0260693
0.0253614
0.0244574
0.0230017
0.0201122
0.0141843
)
;
    }
    atmosphere
    {
        type            inletOutlet;
        inletValue      uniform 0.1;
        value           nonuniform List<scalar> 
46
(
0.1
0.1
0.1
0.1
0.1
0.1
0.1
0.1
0.1
0.1
0.1
0.1
0.1
0.1
0.1
0.1
0.1
0.1
0.1
0.1
0.1
0.1
0.1
0.0968468
0.0959699
0.0952918
0.0947667
0.0940965
0.0935525
0.0932046
0.0929442
0.0927185
0.0925058
0.0922992
0.0920968
0.0918953
0.091684
0.091438
0.0911074
0.0906012
0.0897602
0.0882984
0.0856529
0.0805435
0.0694306
0.0395043
)
;
    }
    defaultFaces
    {
        type            empty;
    }
}


// ************************************************************************* //
