/*--------------------------------*- C++ -*----------------------------------*\
  =========                 |
  \\      /  F ield         | OpenFOAM: The Open Source CFD Toolbox
   \\    /   O peration     | Website:  https://openfoam.org
    \\  /    A nd           | Version:  13
     \\/     M anipulation  |
\*---------------------------------------------------------------------------*/
FoamFile
{
    format      ascii;
    class       volScalarField;
    location    "0.1";
    object      nut;
}
// * * * * * * * * * * * * * * * * * * * * * * * * * * * * * * * * * * * * * //

dimensions      [0 2 -1 0 0 0 0];

internalField   nonuniform List<scalar> 
2268
(
7.54538e-05
9.34657e-05
0.000103222
0.000108725
0.000112395
0.000115518
0.000118933
0.000123263
0.000128908
0.000135841
0.000143358
0.000150027
0.000154022
0.000153985
0.000150013
0.000143566
0.000136536
0.000129536
0.000123712
0.000115087
0.000106485
9.79095e-05
8.13676e-05
0.000221236
0.00057653
0.00078229
0.000905883
0.00098676
0.00104936
0.00111016
0.00117957
0.0012606
0.0013467
0.0014231
0.00147053
0.00146652
0.00139774
0.00127393
0.00111663
0.000939846
0.000736171
0.000565414
0.000474862
0.000450305
0.000426498
0.000234941
0.000238058
0.000904688
0.0013828
0.00170756
0.00193332
0.00210733
0.00226641
0.00243403
0.00261626
0.00279927
0.0029537
0.00304189
0.00302203
0.00287085
0.00260284
0.00224238
0.00182799
0.00138543
0.00105868
0.000918131
0.00088364
0.000798807
0.000269199
0.000246623
0.00112324
0.00185336
0.00239351
0.00278514
0.0030846
0.00334309
0.0035948
0.00385002
0.00409382
0.00429199
0.00439892
0.00436351
0.00415611
0.00378333
0.00324901
0.00263505
0.00202344
0.00160821
0.00143061
0.00136616
0.00117334
0.000295721
0.000251727
0.00127407
0.00222034
0.00296862
0.00353051
0.00395813
0.00430982
0.00462832
0.00493032
0.00520538
0.00542207
0.00553484
0.00549108
0.00525705
0.00482353
0.00417316
0.00341242
0.00270209
0.00223568
0.00202015
0.00189756
0.00155104
0.000319723
0.000255018
0.00137991
0.00250325
0.00344009
0.00416529
0.00471683
0.00515357
0.00552473
0.00585494
0.00614198
0.00636189
0.00647481
0.00643291
0.00619991
0.00574824
0.00505221
0.00422733
0.00347712
0.00297851
0.00271345
0.00249337
0.00194711
0.000344889
0.000257256
0.00145493
0.0027183
0.00381737
0.00469081
0.00535677
0.00586947
0.00628243
0.00662863
0.00691582
0.00713027
0.00724165
0.00721172
0.00700356
0.00657438
0.00589797
0.00509208
0.00436204
0.00385641
0.00353119
0.00316866
0.00238516
0.000375363
0.000258885
0.0015086
0.00287938
0.00411199
0.00511371
0.00588095
0.00645991
0.00690621
0.00726055
0.0075411
0.00774562
0.00785582
0.00784535
0.00767969
0.00730765
0.00670271
0.00598025
0.00532823
0.00484941
0.0044644
0.00392974
0.00290326
0.000422695
0.000109283
0.000146932
0.000180584
0.000211868
0.000212173
0.000179314
0.000148758
0.000129529
0.000120026
0.000115524
0.00011284
0.000110861
0.000109176
0.000107583
0.000105891
0.000103746
0.000100319
9.34107e-05
7.7751e-05
0.000332508
0.000899159
0.00154827
0.00202292
0.00219974
0.001905
0.00144617
0.00111233
0.000924011
0.000825173
0.000777906
0.000757126
0.000748869
0.000744812
0.000738119
0.000719441
0.000670955
0.000551902
0.000254507
0.000379241
0.00149244
0.002378
0.00305177
0.00341792
0.00326057
0.00275816
0.00228224
0.00194965
0.00174121
0.00162766
0.00157079
0.00154209
0.00152181
0.0014917
0.00142563
0.0012763
0.000951479
0.000278323
0.000418413
0.00171689
0.00263968
0.00330209
0.00382008
0.00393536
0.0036327
0.00325063
0.00293845
0.00268541
0.00251596
0.00241834
0.00236216
0.00231727
0.0022512
0.00211648
0.0018333
0.00127053
0.000292003
0.000448205
0.00184536
0.00241755
0.00310518
0.00382519
0.00422813
0.00419098
0.00398798
0.00380631
0.00359927
0.00340848
0.00327499
0.00318733
0.00311058
0.00299699
0.00277531
0.00233513
0.00152582
0.000301101
0.000429209
0.00122191
0.00170284
0.00252259
0.00353547
0.0043403
0.00457024
0.00455553
0.00453538
0.00444048
0.00427388
0.00411876
0.00399938
0.00388475
0.00371315
0.00338945
0.00277809
0.00172884
0.000307618
0.000406795
0.000665437
0.00120219
0.00213056
0.0033555
0.00446289
0.00490118
0.00502676
0.00515116
0.00519128
0.00508629
0.00492833
0.00478045
0.00462375
0.0043855
0.00394891
0.00316097
0.00188872
0.000312455
0.000461618
0.000688475
0.00118235
0.0021435
0.00347535
0.00468861
0.0052463
0.00545163
0.00568642
0.00585532
0.00583121
0.0056873
0.00551609
0.00531493
0.00500377
0.00444808
0.00348583
0.00201342
0.00031611
0.000260379
0.0015614
0.00304958
0.00444112
0.00560405
0.0065012
0.00716255
0.00764388
0.0079965
0.00825468
0.00843491
0.00853901
0.00856039
0.00847815
0.0082521
0.00786432
0.00737596
0.006925
0.0065377
0.00607477
0.00529646
0.00403708
0.00161084
0.000261588
0.00159026
0.00315553
0.00466205
0.00595056
0.00695396
0.00768324
0.00818988
0.00853331
0.00876429
0.00892094
0.00902989
0.00910842
0.00915555
0.00914671
0.00903959
0.00885248
0.00865785
0.00843056
0.00801641
0.00721068
0.00593471
0.00420664
0.000262183
0.00158793
0.00318453
0.00474572
0.00609942
0.0071621
0.00793148
0.00845362
0.00879169
0.00900646
0.00914919
0.00926352
0.00939018
0.00955283
0.00970799
0.00981417
0.00988812
0.00993949
0.00993514
0.00975374
0.00925651
0.00840004
0.00729048
0.000263004
0.00156407
0.00317336
0.0047581
0.00614252
0.00723659
0.0080299
0.00856182
0.0088926
0.00908912
0.00921749
0.00933569
0.00949395
0.00972118
0.00996593
0.010206
0.0104607
0.0107186
0.0109381
0.0110405
0.0109383
0.0106056
0.0101279
0.000265346
0.00157279
0.00317654
0.00475514
0.00614185
0.00724317
0.00804239
0.0085752
0.00890119
0.00908868
0.009208
0.00932225
0.00948319
0.00971824
0.00999379
0.0103003
0.0106568
0.0110541
0.0114506
0.0117799
0.0119739
0.0119832
0.0118123
0.000266095
0.00161195
0.00319757
0.00476068
0.00613891
0.00723622
0.0080322
0.00856089
0.00888287
0.00906537
0.00917513
0.00927528
0.00941925
0.00963286
0.00989723
0.0102169
0.0106106
0.0110668
0.0115469
0.0119939
0.012345
0.012546
0.0125686
0.000266525
0.00159504
0.00319109
0.00476426
0.00614739
0.00724519
0.00803784
0.00855976
0.00887223
0.00904318
0.00913849
0.00921945
0.00933787
0.00951771
0.00975079
0.0100531
0.0104404
0.0109007
0.0114
0.0118891
0.0123099
0.0126061
0.0127379
0.000267324
0.00159427
0.00320292
0.00478734
0.00617428
0.00726849
0.00805254
0.00856348
0.00886428
0.0090232
0.00910464
0.00916719
0.00925946
0.00940376
0.00960096
0.00987298
0.0102314
0.0106653
0.0111469
0.0116341
0.0120723
0.012403
0.0125814
0.000268235
0.00160777
0.00323222
0.00482618
0.00621328
0.00729943
0.00807079
0.00856821
0.00885691
0.00900523
0.00907575
0.00912387
0.00919463
0.00930886
0.0094746
0.00971511
0.0100382
0.0104351
0.0108846
0.0113505
0.0117791
0.0121073
0.0122893
0.000269115
0.00162609
0.00326811
0.00487097
0.00625636
0.00733215
0.00808893
0.00857197
0.0088491
0.0089889
0.00905205
0.0090908
0.00914675
0.00923941
0.00938194
0.00959616
0.00988726
0.0102495
0.0106676
0.0111089
0.0115168
0.011822
0.0119877
0.000269906
0.0016447
0.00330389
0.00491508
0.00629815
0.00736313
0.00810522
0.00857433
0.00884111
0.00897451
0.00903357
0.00906765
0.00911518
0.00919448
0.00932202
0.00951708
0.00978386
0.01012
0.0105148
0.0109356
0.0113189
0.0115924
0.0117445
0.000270589
0.00166146
0.00333626
0.0049552
0.00633618
0.00739111
0.0081196
0.00857611
0.0088341
0.00896313
0.00902088
0.00905417
0.00909851
0.00917107
0.00929021
0.00947286
0.00972374
0.0100439
0.0104245
0.0108291
0.0111857
0.0114289
0.0115883
0.000271161
0.00167508
0.00336317
0.00498945
0.00636933
0.00741595
0.00813284
0.00857865
0.0088297
0.00895634
0.00901526
0.00905112
0.00909668
0.00916792
0.0092841
0.0094606
0.00970365
0.0100166
0.0103897
0.0107792
0.0111083
0.0113317
0.0115303
0.000271638
0.0016838
0.0033822
0.00501586
0.00639665
0.00743779
0.00814591
0.00858353
0.00882981
0.00895618
0.00901883
0.00906062
0.00911181
0.00918717
0.00930612
0.00948329
0.00972639
0.0100392
0.0104078
0.0107812
0.0110865
0.0113106
0.0115762
0.000272055
0.00168338
0.00338879
0.00503153
0.00641708
0.00745696
0.00816006
0.00859256
0.0088366
0.00896514
0.00903428
0.00908569
0.00914752
0.00923364
0.00936284
0.009549
0.00980021
0.0101181
0.0104831
0.0108425
0.011139
0.0113904
0.0117333
0.000272495
0.0016642
0.00337613
0.00503417
0.00643125
0.00747559
0.00817815
0.00860899
0.0088536
0.00898695
0.00906557
0.00913018
0.00920786
0.00931318
0.00946271
0.00966816
0.00993609
0.0102646
0.0106311
0.0109899
0.011306
0.0116119
0.0120194
0.000273586
0.00161089
0.00334016
0.00502759
0.00644597
0.00750087
0.00820682
0.00863871
0.00888596
0.00902611
0.00911667
0.00919806
0.00929873
0.0094353
0.00961907
0.00985701
0.0101531
0.0105035
0.0108876
0.0112722
0.0116377
0.0120101
0.0124541
0.000277527
0.00151079
0.00328778
0.00502594
0.0064747
0.00754356
0.0082543
0.00868804
0.00893852
0.00908649
0.009191
0.00929139
0.00942409
0.00960771
0.00984305
0.0101304
0.0104732
0.0108717
0.0113104
0.011752
0.012179
0.0126039
0.0130597
0.000286638
0.00140126
0.00326783
0.00506914
0.006544
0.00762109
0.00833175
0.00876356
0.00901451
0.00916889
0.00928735
0.00940628
0.00957473
0.00982591
0.0101322
0.0104829
0.0108822
0.0113408
0.0118343
0.0123151
0.0127654
0.0131631
0.0135305
0.000293066
0.00166267
0.00345278
0.00520106
0.00666335
0.00772547
0.00841987
0.00883789
0.00907931
0.00923157
0.0093615
0.00950799
0.00969581
0.00995107
0.0102715
0.0106549
0.0110953
0.011582
0.0120924
0.0125936
0.0130347
0.0133801
0.0135944
0.000294181
0.00180424
0.00363658
0.00537334
0.00679194
0.00781431
0.00847707
0.00887228
0.00909872
0.00924052
0.00936217
0.00950593
0.00969331
0.00994266
0.0102592
0.0106417
0.01108
0.0115636
0.0120659
0.0125498
0.0129756
0.0132947
0.0134518
0.000290708
0.00186191
0.00373876
0.00546877
0.0068588
0.00785074
0.0084895
0.00886922
0.00908768
0.0092249
0.00933969
0.0094715
0.00964427
0.0098714
0.0101634
0.0105234
0.0109426
0.0114041
0.0118868
0.0123582
0.0127746
0.0130888
0.0132557
0.000288782
0.00188919
0.00378767
0.00551634
0.0068907
0.00786327
0.0084855
0.00885369
0.00906506
0.00919687
0.00930376
0.00942221
0.00957507
0.00977791
0.0100422
0.0103722
0.0107617
0.0111961
0.0116533
0.0121037
0.012509
0.0128264
0.0130196
0.000287631
0.00190496
0.00381135
0.00553711
0.00690189
0.00786265
0.00847429
0.00883443
0.00903976
0.00916565
0.00926387
0.00936835
0.00950145
0.0096789
0.00991246
0.0102077
0.010561
0.0109599
0.011384
0.0118056
0.0121902
0.0125004
0.0127038
0.000286594
0.00191294
0.00382138
0.00554385
0.00690246
0.00785609
0.00846121
0.00881603
0.0090168
0.00913752
0.00922793
0.00931977
0.0094339
0.0095854
0.00978573
0.0100414
0.0103514
0.0107056
0.0110857
0.0114662
0.0118166
0.012104
0.0122992
0.000285483
0.00191489
0.00382242
0.00554228
0.00689731
0.00784702
0.00844845
0.00879996
0.00899742
0.00911386
0.00919753
0.00927835
0.0093754
0.00950223
0.00966925
0.00988311
0.0101445
0.0104461
0.0107726
0.0111018
0.0114071
0.01166
0.0118346
0.00028434
0.00191287
0.00381742
0.00553521
0.00688854
0.00783662
0.00843637
0.00878602
0.00898112
0.00909404
0.00917195
0.0092433
0.00932542
0.00943007
0.00956601
0.00973916
0.00995103
0.0101968
0.0104648
0.0107369
0.0109908
0.0112024
0.0113499
0.00028322
0.00190864
0.00380857
0.00552425
0.00687693
0.00782483
0.00842424
0.00877302
0.00896644
0.00907641
0.00914935
0.00921258
0.00928194
0.00936743
0.00947608
0.00961258
0.0097785
0.00997083
0.0101811
0.0103956
0.0105968
0.0107654
0.0108835
0.000282153
0.00190324
0.00379737
0.00551056
0.00686301
0.00781156
0.00841149
0.00876009
0.00895233
0.00905981
0.00912847
0.00918479
0.00924348
0.00931305
0.00939896
0.00950466
0.0096313
0.00977691
0.00993562
0.0100976
0.0102499
0.010378
0.0104683
0.000281145
0.00189725
0.00378476
0.00549503
0.00684736
0.00779703
0.00839804
0.00874698
0.00893845
0.00904389
0.00910892
0.00915947
0.00920942
0.0092662
0.00933405
0.00941534
0.00951073
0.00961877
0.00973538
0.00985378
0.00996494
0.0100586
0.0101249
0.000280195
0.00189096
0.00377139
0.00547843
0.00683067
0.00778174
0.00838424
0.0087339
0.00892499
0.00902882
0.00909083
0.00913666
0.00917961
0.00922639
0.00928039
0.00934322
0.00941511
0.00949489
0.00957967
0.00966484
0.0097443
0.00981113
0.00985861
0.000279298
0.00188457
0.00375785
0.00546162
0.00681388
0.00776657
0.0083708
0.00872146
0.00891247
0.00901507
0.00907465
0.00911666
0.0091541
0.0091932
0.00923682
0.00928607
0.00934096
0.00940044
0.00946244
0.0095238
0.00958047
0.0096279
0.00966162
0.000278455
0.00187835
0.00374493
0.00544589
0.00679847
0.00775291
0.00835892
0.00871063
0.00890171
0.00900336
0.00906097
0.00909993
0.00913306
0.0091663
0.00920221
0.00924162
0.0092844
0.00932965
0.00937583
0.00942073
0.00946167
0.00949568
0.0095198
0.000277679
0.00187282
0.00373419
0.00543364
0.00678714
0.00774322
0.00835058
0.00870295
0.0088939
0.00899465
0.00905061
0.0090871
0.00911683
0.0091456
0.00917578
0.00920804
0.00924219
0.00927749
0.00931272
0.00934633
0.00937651
0.00940131
0.00941877
0.000277014
0.0018693
0.00372905
0.00542976
0.00678493
0.00774176
0.00834895
0.00870064
0.00889064
0.00899016
0.00904452
0.00907892
0.00910594
0.00913127
0.00915713
0.00918414
0.00921209
0.00924031
0.00926784
0.00929352
0.00931613
0.0093344
0.00934701
0.000276627
0.00187085
0.00373692
0.00544408
0.00680125
0.00775579
0.00835891
0.00870675
0.00889379
0.0089911
0.00904356
0.00907603
0.00910082
0.00912346
0.00914607
0.0091692
0.00919263
0.00921572
0.00923767
0.00925755
0.00927452
0.00928775
0.00929642
0.000277033
0.00188443
0.00377336
0.00549553
0.0068526
0.00779684
0.00838732
0.00872486
0.00890504
0.00899815
0.00904793
0.00907835
0.0091012
0.00912171
0.00914188
0.00916216
0.00918231
0.0092017
0.00921955
0.00923506
0.00924755
0.00925654
0.00926154
0.000279748
0.00192426
0.00386887
0.00561804
0.00696549
0.00788122
0.00844236
0.00875815
0.00892489
0.00901051
0.00905621
0.00908416
0.00910515
0.00912392
0.00914223
0.00916046
0.00917832
0.00919515
0.00921012
0.00922239
0.00923135
0.00923666
0.00923816
0.000288453
0.0020168
0.0040793
0.00586699
0.00717695
0.00802777
0.00853116
0.00880759
0.00895143
0.00902498
0.00906454
0.0090892
0.0091081
0.0091252
0.00914196
0.00915863
0.00917488
0.00919003
0.00920319
0.00921342
0.00921997
0.00922261
0.0092214
0.00030977
0.00221106
0.00450393
0.00632302
0.00752779
0.00825024
0.0086549
0.00886967
0.00897957
0.00903583
0.00906679
0.0090869
0.00910297
0.00911791
0.00913277
0.00914768
0.00916235
0.00917612
0.00918813
0.00919734
0.0092029
0.00920465
0.00920324
0.000351845
0.00263187
0.00533818
0.00708732
0.00804058
0.0085422
0.00880239
0.00893501
0.00900197
0.0090367
0.00905667
0.00907054
0.00908228
0.00909361
0.0091051
0.00911684
0.0091286
0.00913992
0.00915012
0.00915835
0.00916386
0.00916677
0.00916964
0.000424615
0.00391661
0.0070731
0.00823953
0.00867215
0.00885846
0.00894669
0.00899015
0.00901214
0.00902397
0.0090313
0.00903685
0.00904185
0.00904685
0.00905202
0.00905737
0.00906283
0.00906825
0.00907339
0.00907797
0.00908178
0.00908551
0.00909572
0.000562979
0.000545412
0.000527995
0.000516352
0.00335862
0.00315259
0.00312557
0.00311593
0.00684624
0.00665683
0.00649531
0.00636463
0.00985365
0.00962476
0.00938949
0.0091697
0.0116185
0.0114387
0.0112407
0.0110488
0.0124763
0.0123692
0.0122368
0.012101
0.0127213
0.0126685
0.0125885
0.0125
0.0126056
0.0125808
0.0125341
0.0124868
0.0123292
0.0123216
0.0123107
0.0123238
0.0120415
0.0120642
0.0121142
0.0122177
0.0118327
0.0119139
0.012058
0.0122799
0.011737
0.0118991
0.012151
0.0124979
0.01176
0.0120102
0.0123626
0.0128145
0.0118941
0.0122251
0.012659
0.0131763
0.01212
0.0125091
0.0130075
0.013521
0.012419
0.0128076
0.0133071
0.0137424
0.0128008
0.0131107
0.0135107
0.0137567
0.0132969
0.0134338
0.0135187
0.013423
0.0136306
0.0136037
0.0134173
0.0130878
0.0135563
0.0134549
0.0132333
0.0129155
0.0133819
0.0132808
0.0131152
0.0128909
0.0132304
0.0131674
0.0130558
0.0128973
0.0130379
0.0130056
0.0129281
0.0128096
0.0127439
0.0127284
0.0126711
0.0125764
0.0123459
0.012339
0.0122955
0.0122182
0.01188
0.0118776
0.011844
0.0117812
0.0113899
0.0113896
0.0113637
0.0113137
0.0109166
0.0109172
0.0108978
0.0108593
0.0104941
0.0104951
0.010481
0.0104525
0.0101441
0.0101452
0.0101353
0.0101148
0.00987249
0.00987337
0.00986638
0.00985184
0.00967143
0.00967202
0.009667
0.00965656
0.00952666
0.00952695
0.00952316
0.00951544
0.00942351
0.00942348
0.00942043
0.00941443
0.00935005
0.00934965
0.00934691
0.00934189
0.0092978
0.00929681
0.00929397
0.0092893
0.00926099
0.00925907
0.00925561
0.00925065
0.00923534
0.0092321
0.00922748
0.00922157
0.00921658
0.00921194
0.00920582
0.00919845
0.00919872
0.00919373
0.00918669
0.00917802
0.00917332
0.00917193
0.00916654
0.00915813
0.00913509
0.00914598
0.00914657
0.00914088
0.000722705
0.00104588
0.00161096
0.00263981
0.00403066
0.00524969
0.00585944
0.00608407
0.00644434
0.00679201
0.00690953
0.00681472
0.00661968
0.00634675
0.00591
0.00515506
0.00392096
0.00216619
0.000320561
0.00320633
0.00344137
0.00396035
0.0048686
0.00594554
0.00677875
0.00693258
0.00689844
0.00728588
0.00771811
0.00791882
0.00785986
0.00763996
0.00728675
0.00670844
0.00574241
0.00424937
0.00226385
0.000323454
0.00623771
0.0062844
0.00666696
0.0073343
0.00812072
0.00845939
0.00782018
0.00770114
0.00808456
0.00849777
0.00868717
0.00861748
0.00836468
0.0079404
0.00724343
0.00611233
0.00443626
0.00230901
0.00032515
0.00888791
0.00881949
0.00905797
0.00950042
0.0100779
0.00973573
0.00868895
0.00849986
0.00880803
0.00913194
0.0092462
0.00913005
0.0088366
0.00835278
0.00756561
0.00631804
0.00452505
0.00232094
0.000326039
0.0107879
0.0107051
0.0108614
0.011317
0.0115857
0.0104459
0.0094036
0.00920941
0.00941378
0.00960979
0.00962235
0.00944664
0.00911308
0.00858339
0.00773334
0.0064107
0.00455062
0.00231306
0.000326421
0.0119047
0.0118731
0.0120886
0.0126359
0.0123949
0.0108932
0.00996275
0.00976668
0.00986356
0.00992805
0.00984314
0.00961359
0.00924823
0.00868707
0.007797
0.0064304
0.00453745
0.0022938
0.00032648
0.0123722
0.0124773
0.0129776
0.0134438
0.0124868
0.011084
0.0103374
0.010147
0.0101469
0.0101007
0.00994027
0.00967258
0.00928732
0.00870776
0.00779484
0.00640563
0.00450168
0.0022683
0.000326321
0.0124551
0.0127749
0.0135348
0.0136622
0.012334
0.0111349
0.0105461
0.0103588
0.0102812
0.0101558
0.00994719
0.00965914
0.00926555
0.00867776
0.0077537
0.00635535
0.00445347
0.00223964
0.000326006
0.0124525
0.0130648
0.0137644
0.0132732
0.0120071
0.0110755
0.0106191
0.0104312
0.0103
0.0101271
0.0098952
0.00960178
0.00920868
0.00861949
0.0076914
0.00629169
0.00439913
0.0022097
0.000325569
0.0125465
0.0133928
0.01374
0.0127708
0.0116741
0.0109609
0.0105957
0.0104046
0.0102425
0.0100477
0.00981054
0.00952186
0.00913461
0.00854772
0.0076193
0.00622219
0.00434252
0.00217963
0.000325033
0.0128273
0.0136292
0.013401
0.0123083
0.0113949
0.0108291
0.0105145
0.0103202
0.0101442
0.00994443
0.00971295
0.00943425
0.00905505
0.00847177
0.00754439
0.00615146
0.00428604
0.00215018
0.000324412
0.0132626
0.01377
0.0130664
0.0119751
0.0111861
0.0107018
0.0104093
0.0102123
0.0100325
0.00983678
0.00961567
0.00934837
0.00897718
0.00839722
0.00747086
0.00608232
0.0042312
0.00212185
0.00032372
0.0136476
0.0137468
0.0127907
0.0117293
0.0110299
0.01059
0.0103044
0.0101048
0.00992549
0.00973666
0.00952644
0.00926953
0.00890496
0.00832719
0.0074011
0.00601642
0.00417895
0.00209499
0.000322964
0.0139203
0.0136417
0.0125323
0.0115242
0.0109115
0.0104998
0.0102149
0.0100118
0.00983296
0.00965018
0.00944898
0.00920022
0.00884029
0.00826322
0.00733637
0.00595471
0.00412989
0.00206983
0.000322155
0.0140426
0.013422
0.0122348
0.0113362
0.0108207
0.0104343
0.0101484
0.00993968
0.00975894
0.00957955
0.00938443
0.00914117
0.00878376
0.00820575
0.00727707
0.00589756
0.00408428
0.00204651
0.000321302
0.0139592
0.0130419
0.0118887
0.0111714
0.0107604
0.0103965
0.0101075
0.00988967
0.00970331
0.00952371
0.00933144
0.0090909
0.00873386
0.00815362
0.00722209
0.00584392
0.00404118
0.00202428
0.000320532
0.0135915
0.0124965
0.0115422
0.0110625
0.0107383
0.0103879
0.0100911
0.0098598
0.00966394
0.00948083
0.00928856
0.00904826
0.00868939
0.00810492
0.00716908
0.00579125
0.00399834
0.00200156
0.00031988
0.012967
0.0119528
0.0113234
0.0110476
0.0107602
0.0104063
0.0100947
0.00984551
0.00963714
0.00944816
0.00925389
0.00901202
0.0086497
0.00805961
0.00711835
0.00573999
0.00395612
0.0019789
0.000319292
0.0124526
0.0117057
0.0113408
0.0111325
0.0108186
0.0104426
0.0101095
0.00984011
0.00961818
0.0094225
0.00922533
0.00898093
0.00861421
0.00801764
0.00707022
0.00569065
0.00391511
0.00195676
0.000318738
0.0123716
0.0118234
0.011533
0.0112636
0.0108872
0.0104799
0.0101237
0.00983558
0.00960181
0.00940048
0.00920077
0.00895378
0.00858241
0.00797909
0.00702526
0.00564411
0.00387621
0.00193576
0.000318187
0.0124963
0.0120665
0.0117374
0.0113701
0.0109333
0.0104989
0.0101251
0.00982412
0.00958311
0.00937901
0.00917833
0.00892951
0.00855392
0.00794417
0.00698418
0.0056014
0.0038405
0.00191664
0.000317622
0.0126062
0.012224
0.0118398
0.0114029
0.0109309
0.0104839
0.0101041
0.00979976
0.00955833
0.00935571
0.00915648
0.00890726
0.00852841
0.0079131
0.00694764
0.00556346
0.00380896
0.00190001
0.000317035
0.0125774
0.0122153
0.0118045
0.0113427
0.0108666
0.0104268
0.0100557
0.00975946
0.00952545
0.00932919
0.00913426
0.00888642
0.00850569
0.00788603
0.00691614
0.005531
0.00378225
0.00188619
0.000316432
0.0123825
0.0120447
0.0116418
0.0111935
0.0107409
0.0103278
0.00998052
0.00970352
0.00948446
0.00929915
0.00911131
0.00886667
0.00848558
0.00786304
0.00688993
0.00550436
0.00376064
0.00187533
0.000315819
0.0120551
0.0117517
0.0113824
0.0109738
0.0105657
0.0101952
0.00988403
0.00963524
0.00943702
0.00926628
0.00908774
0.00884793
0.00846798
0.00784407
0.00686905
0.00548359
0.00374417
0.00186737
0.000315207
0.0116458
0.0113846
0.0110639
0.0107106
0.0103598
0.0100422
0.0097749
0.00955981
0.00938593
0.00923188
0.00906405
0.0088303
0.00845283
0.00782902
0.00685336
0.00546854
0.00373265
0.00186218
0.000314603
0.0112045
0.0109891
0.0107239
0.0104327
0.0101445
0.0098835
0.00966273
0.00948291
0.00933427
0.00919746
0.00904088
0.00881397
0.00844008
0.00781769
0.00684259
0.0054589
0.00372577
0.00185955
0.000314016
0.0107744
0.0106047
0.0103954
0.0101659
0.00993883
0.0097323
0.00955585
0.00940948
0.00928473
0.0091644
0.00901886
0.00879912
0.00842966
0.00780988
0.00683641
0.00545426
0.00372319
0.00185927
0.000313454
0.010389
0.0102611
0.0101029
0.00992908
0.0097563
0.00959768
0.00945998
0.00934288
0.00923924
0.00913371
0.00899847
0.00878592
0.00842153
0.00780533
0.00683444
0.00545419
0.00372448
0.00186111
0.000312922
0.0100688
0.00997566
0.00985995
0.00973207
0.00960367
0.00948401
0.00937785
0.00928481
0.00919879
0.00910599
0.00898003
0.00877447
0.00841557
0.00780379
0.00683629
0.00545823
0.00372926
0.00186483
0.000312426
0.00981896
0.00975238
0.00966915
0.00957623
0.00948157
0.00939161
0.00930974
0.00923553
0.00916366
0.00908145
0.00896367
0.00876479
0.00841169
0.00780498
0.00684157
0.00546593
0.00373712
0.00187021
0.000311971
0.00963288
0.00958509
0.00952497
0.00945703
0.00938663
0.00931827
0.00925437
0.00919441
0.0091336
0.00906006
0.00894941
0.00875686
0.00840974
0.00780866
0.00684988
0.00547685
0.00374767
0.00187702
0.00031156
0.00949792
0.00946275
0.00941827
0.0093674
0.00931383
0.00926071
0.00920977
0.00916039
0.00910811
0.00904161
0.00893716
0.0087506
0.00840958
0.00781454
0.00686085
0.00549057
0.00376054
0.00188505
0.000311196
0.00940089
0.00937388
0.00933965
0.00930018
0.00925803
0.00921552
0.00917384
0.00913228
0.00908656
0.00902579
0.00892679
0.0087459
0.00841105
0.00782236
0.00687412
0.00550669
0.00377539
0.00189412
0.000310881
0.00933076
0.00930883
0.00928116
0.00924919
0.00921479
0.00917967
0.00914466
0.00910891
0.0090683
0.00901226
0.00891809
0.0087426
0.00841396
0.00783187
0.00688935
0.00552483
0.00379191
0.00190404
0.000310616
0.00927931
0.0092602
0.00923657
0.00920952
0.00918045
0.00915058
0.00912047
0.00908916
0.00905263
0.0090006
0.0089108
0.00874051
0.00841808
0.00784277
0.00690619
0.00554461
0.00380976
0.00191464
0.000310401
0.0092406
0.00922251
0.00920112
0.00917728
0.00915198
0.00912602
0.0090997
0.00907195
0.00903882
0.00899032
0.00890458
0.00873933
0.00842312
0.00785471
0.00692422
0.00556564
0.00382863
0.00192574
0.000310235
0.00921023
0.00919159
0.00917111
0.00914939
0.00912692
0.00910411
0.00908094
0.00905625
0.00902615
0.0089809
0.00889903
0.00873871
0.00842868
0.00786722
0.00694292
0.00558738
0.0038481
0.00193714
0.000310117
0.00918481
0.00916435
0.00914387
0.00912359
0.00910347
0.00908343
0.00906312
0.00904126
0.00901402
0.00897187
0.00889375
0.00873824
0.00843428
0.00787968
0.00696153
0.00560905
0.00386754
0.0019485
0.000310043
0.0091619
0.00913909
0.00911818
0.00909906
0.00908106
0.00906358
0.00904597
0.0090268
0.00900228
0.0089631
0.00888853
0.00873755
0.00843931
0.00789118
0.00697889
0.00562942
0.0038859
0.00195922
0.000310006
0.00914098
0.00911646
0.00909531
0.00907728
0.00906116
0.00904593
0.00903067
0.00901386
0.00899174
0.00895514
0.00888364
0.00873655
0.00844315
0.00790054
0.00699331
0.00564655
0.00390143
0.00196821
0.000309986
0.00912534
0.00910089
0.00908007
0.00906292
0.00904807
0.00903428
0.00902052
0.00900522
0.00898464
0.00894971
0.00888018
0.00873555
0.00844525
0.00790619
0.00700233
0.0056576
0.00391183
0.00197449
0.000309941
)
;

boundaryField
{
    leftWall
    {
        type            nutkWallFunction;
        Cmu             0.09;
        kappa           0.41;
        E               9.8;
        value           nonuniform List<scalar> 
50
(
7.92771e-06
2.09938e-05
2.23848e-05
2.30771e-05
2.34837e-05
2.37425e-05
2.39163e-05
2.40416e-05
2.41568e-05
2.42504e-05
2.43623e-05
2.63759e-05
2.9785e-05
2.98539e-05
2.98928e-05
2.99686e-05
3.00551e-05
3.01386e-05
3.02137e-05
3.02784e-05
3.03327e-05
3.03779e-05
3.04171e-05
3.0455e-05
3.05396e-05
3.1229e-05
3.21952e-05
3.30954e-05
3.33985e-05
3.29029e-05
3.2627e-05
3.24634e-05
3.23215e-05
3.21735e-05
3.2024e-05
3.18798e-05
3.17441e-05
3.1617e-05
3.1498e-05
3.13861e-05
3.1281e-05
3.11836e-05
3.10983e-05
3.10417e-05
3.10696e-05
3.13557e-05
3.23581e-05
3.499e-05
4.04829e-05
5.01921e-05
)
;
    }
    rightWall
    {
        type            nutkWallFunction;
        Cmu             0.09;
        kappa           0.41;
        E               9.8;
        value           nonuniform List<scalar> 
50
(
1.69452e-06
2.84425e-05
3.16297e-05
3.3397e-05
3.45446e-05
3.53508e-05
3.59389e-05
3.63755e-05
3.68959e-05
3.72336e-05
3.7433e-05
3.75426e-05
3.7597e-05
3.76161e-05
3.76109e-05
3.7587e-05
3.75479e-05
3.74957e-05
3.74322e-05
3.73586e-05
3.72761e-05
3.71858e-05
3.70889e-05
3.69939e-05
3.69144e-05
3.6845e-05
3.67808e-05
3.67169e-05
3.66508e-05
3.65816e-05
3.65099e-05
3.64366e-05
3.63631e-05
3.62903e-05
3.62193e-05
3.61511e-05
3.60863e-05
3.60257e-05
3.597e-05
3.59195e-05
3.58746e-05
3.58357e-05
3.58027e-05
3.57758e-05
3.5755e-05
3.57401e-05
3.57306e-05
3.57256e-05
3.5723e-05
3.57177e-05
)
;
    }
    lowerWall
    {
        type            nutkWallFunction;
        Cmu             0.09;
        kappa           0.41;
        E               9.8;
        value           nonuniform List<scalar> 
62
(
7.92771e-06
9.53202e-06
1.03771e-05
1.08402e-05
1.11417e-05
1.13959e-05
1.16752e-05
1.20326e-05
1.25034e-05
1.30881e-05
1.37249e-05
1.428e-05
1.45869e-05
1.45332e-05
1.41469e-05
1.35798e-05
1.29839e-05
1.25993e-05
1.40397e-05
1.339e-05
1.26088e-05
1.17595e-05
9.95166e-06
9.95166e-06
2.67197e-05
3.01243e-05
3.27111e-05
3.50309e-05
3.7446e-05
4.03428e-05
4.4789e-05
5.75379e-05
5.5799e-05
5.40769e-05
5.28708e-05
5.58996e-06
3.64883e-05
4.25654e-05
4.73707e-05
5.10531e-05
4.87443e-05
4.637e-05
4.75668e-05
5.58996e-06
1.05551e-05
1.49367e-05
1.84394e-05
1.74783e-05
1.36247e-05
1.05487e-05
8.65678e-06
7.71229e-06
7.23514e-06
6.92399e-06
6.67768e-06
6.45834e-06
6.24488e-06
6.01264e-06
5.71053e-06
5.21032e-06
4.16051e-06
1.69452e-06
)
;
    }
    atmosphere
    {
        type            calculated;
        value           nonuniform List<scalar> 
46
(
0.009
0.009
0.009
0.009
0.009
0.009
0.009
0.009
0.009
0.009
0.009
0.009
0.009
0.009
0.009
0.009
0.009
0.009
0.009
0.009
0.009
0.009
0.009
0.00913509
0.00914598
0.00914657
0.00914088
0.00912534
0.00910089
0.00908007
0.00906292
0.00904807
0.00903428
0.00902052
0.00900522
0.00898464
0.00894971
0.00888018
0.00873555
0.00844525
0.00790619
0.00700233
0.0056576
0.00391183
0.00197449
0.000309941
)
;
    }
    defaultFaces
    {
        type            empty;
    }
}


// ************************************************************************* //
