/*--------------------------------*- C++ -*----------------------------------*\
  =========                 |
  \\      /  F ield         | OpenFOAM: The Open Source CFD Toolbox
   \\    /   O peration     | Website:  https://openfoam.org
    \\  /    A nd           | Version:  13
     \\/     M anipulation  |
\*---------------------------------------------------------------------------*/
FoamFile
{
    format      ascii;
    class       volScalarField;
    location    "0.1";
    object      p;
}
// * * * * * * * * * * * * * * * * * * * * * * * * * * * * * * * * * * * * * //

dimensions      [1 -1 -2 0 0 0 0];

internalField   nonuniform List<scalar> 
2268
(
12408.1
12450.1
12489.4
12516.5
12520.2
12495.2
12438
12340.4
12182.4
11919.9
11470.1
10707.2
9492.51
7766.96
5726.44
3833.86
2479.14
1720.24
1513.33
1504.15
1508.76
1514.76
1525.7
11601
11633.1
11657.2
11669.3
11658.3
11616.4
11536.3
11405.5
11199.3
10870.5
10340.7
9502.93
8255.58
6564.85
4586.98
2755.53
1640.5
1387.75
1430.26
1459.39
1472.24
1481.97
1494.43
10794.3
10821.2
10830.3
10823.1
10791.3
10725.5
10614.8
10443.2
10183.1
9788.57
9190.08
8301.09
7051.01
5397.88
3459.47
1872.11
1344.11
1325.39
1386.32
1413.64
1427.36
1439.54
1456.3
9987.52
10014.2
10012.4
9986.91
9933.07
9841.48
9699.77
9490.22
9185.7
8744.83
8107.51
7202.9
5974.73
4330.53
2445.4
1400.63
1266.8
1298.13
1340.04
1362.14
1375.72
1389.18
1411.05
9181.75
9210.09
9201.32
9160.57
9086.21
8970.24
8800.53
8559.99
8224.41
7758.97
7112.58
6226.74
5042.58
3393.6
1736.05
1244.48
1235.59
1262.76
1291.12
1308.82
1319.88
1332.36
1357.57
8378.76
8408.61
8395.14
8341.85
8249.21
8111.25
7917.25
7652.36
7296.71
6823.08
6189.52
5350.75
4228.7
2618.16
1394.83
1192.51
1201.56
1222.35
1242.44
1254.86
1260.75
1269.1
1292.26
7579.42
7609.77
7592.36
7528.4
7419.56
7261.9
7046.85
6762.62
6394.6
5923.13
5317.16
4549.43
3513.5
2042.96
1261.1
1158.29
1165.07
1180.44
1193.76
1199.92
1197.87
1197.11
1206.84
6781.55
6810.17
6788.38
6714.65
6590.76
6414.56
6179.82
5878.42
5501.01
5036.41
4468.78
3792.22
2881.53
1644.2
1181.44
1117.35
1126.09
1137.23
1144.2
1142.82
1129.15
1106.3
1074.39
7.35387
7.41756
7.90085
8.59569
9.15391
9.41612
9.34418
9.13791
8.92553
8.74104
8.58665
8.45954
8.3565
8.27473
8.21202
8.16663
8.13703
8.12144
8.11787
7.24696
7.29856
7.77367
8.4528
9.01386
9.33246
9.27401
9.07311
8.86365
8.68086
8.52752
8.40114
8.29862
8.21719
8.15465
8.10921
8.07923
8.06289
8.05857
7.05287
7.12583
7.65511
8.34062
8.90904
9.28348
9.21392
9.00667
8.79754
8.61617
8.46409
8.33883
8.23721
8.15639
8.09417
8.04871
8.01833
8.00147
7.99709
6.78098
6.92863
7.55958
8.30394
8.87871
9.30376
9.17132
8.93823
8.72554
8.54516
8.39471
8.27116
8.17093
8.09109
8.02943
7.98413
7.9536
7.93683
7.9332
6.48481
6.75614
7.37561
8.36842
8.94724
9.43301
9.14648
8.86484
8.64604
8.46656
8.31852
8.19753
8.09939
8.02104
7.96029
7.91547
7.88524
7.86916
7.8668
6.49653
6.5001
6.64859
8.44211
9.27855
9.67549
9.12877
8.78056
8.55664
8.37938
8.23499
8.11772
8.02252
7.94627
7.88691
7.84298
7.81354
7.79863
7.79769
4.61506
2.89759
-1.26983
3.82448
9.41972
9.7119
9.05779
8.67574
8.4533
8.28263
8.14388
8.03162
7.94034
7.86689
7.80946
7.76689
7.73869
7.72528
7.7257
-21.4692
-2.22396
0.064873
3.98182
9.0306
9.32916
8.87575
8.54078
8.33228
8.17546
8.04531
7.93944
7.85304
7.78311
7.72815
7.68743
7.66092
7.64921
7.65074
5542.18
5565.15
5534.8
5446.71
5302.04
5101
4841.57
4521.74
4140.66
3703.79
3224.38
2720.54
2076.02
1336.68
1106.35
1056.1
1062.59
1067.6
1064.88
1049.91
1012.74
923.7
649.121
3905.73
3921.19
3872.47
3765.17
3602.15
3387.47
3125.44
2823.7
2494.44
2172.67
1894.19
1684.28
1431.22
1085.58
994.176
976.216
978.589
975.989
964.855
940.386
893.266
809.7
676.569
2395.25
2412.7
2358.86
2263.95
2134.95
1981.88
1816.51
1654.28
1504.15
1359.77
1233.2
1141.72
1038.78
939.094
904.279
901.08
898.211
889.264
872.457
843.266
794.853
720.248
611.697
1496.1
1512.7
1488.36
1449.85
1398.46
1337.88
1272.39
1213.66
1172.93
1136.64
1092.34
1034.48
949.383
875.52
843.336
832.67
821.867
807.38
786.408
754.194
705.059
633.655
535.679
1221.49
1233.82
1234.51
1232.73
1225.93
1212.72
1192.33
1163.55
1121.38
1069.15
1009.06
941.236
867.188
811.22
781.558
763.699
747.086
728.49
704.449
670.345
621.285
553.209
464.679
1115.22
1124.05
1129.35
1129.83
1122.73
1106.7
1081.63
1048.25
1007.68
960.638
907.591
848.577
785.141
738.351
711.792
692.283
673.265
652.212
626.117
591.247
543.737
480.925
402.353
1008.8
1014.25
1017.02
1015.14
1006.69
990.801
967.45
937.209
900.987
859.273
812.51
760.419
704.482
663.146
639.291
620.405
601.019
579.228
552.693
518.467
473.54
415.837
344.882
903.126
907.198
908.569
905.51
896.679
881.537
860.129
832.858
800.237
762.778
720.874
674.218
624.321
588.016
567.031
549.472
530.664
509.186
483.239
450.477
408.432
355.286
290.465
798.58
801.791
802.398
798.872
790.176
775.957
756.319
731.615
702.275
668.736
631.356
589.679
545.339
514.135
496.059
480.079
462.342
441.806
417.086
386.286
347.311
298.453
238.882
695.633
698.155
698.181
694.407
686.034
672.846
654.992
632.811
606.689
577.017
544.068
507.169
468.237
442.113
426.82
412.5
396.105
376.905
353.838
325.392
289.813
245.451
191.288
594.525
596.51
596.079
592.186
584.233
572.135
556.086
536.418
513.49
487.651
459.083
426.901
393.39
372.248
359.509
346.832
331.906
314.252
293.111
267.376
235.683
196.711
149.401
495.359
496.942
496.147
492.223
484.742
473.737
459.454
442.24
422.446
400.405
376.234
348.889
320.953
304.609
294.19
283.08
269.611
253.538
234.43
211.67
184.425
151.794
113.106
398.148
399.477
398.382
394.498
387.504
377.55
364.952
350.095
333.364
315.121
295.474
273.278
251.194
239.328
230.974
221.285
209.136
194.495
177.375
157.682
135.157
109.541
80.6389
302.265
303.616
302.338
298.632
292.174
283.262
272.314
259.787
246.138
231.783
216.871
200.251
184.478
176.513
169.912
161.446
150.375
136.973
121.691
105.057
87.3152
69.1601
51.2982
207.19
209.05
207.421
203.936
198.093
190.363
181.28
171.374
161.136
150.974
140.944
130.006
120.608
115.831
110.65
103.211
93.1977
81.1645
67.9863
54.7718
42.4134
32.0597
24.8762
117.79
120.985
118.016
114.497
109.501
103.591
97.3485
91.2768
85.8073
81.1
76.6797
70.0712
62.576
59.3774
55.3299
49.4894
41.8508
33.3739
25.3941
17.7673
12.1209
9.51834
8.95074
46.7821
51.6423
48.7773
46.6587
44.0612
41.5559
39.4691
37.9209
36.8958
36.3147
36.0677
33.0433
24.2865
19.9946
17.4502
15.1933
13.1426
11.5422
10.3653
7.91097
5.50766
4.02285
4.2192
6.48582
8.2941
7.85089
7.26448
6.35438
5.38958
4.46054
3.61586
2.85428
2.21909
1.90882
1.98802
3.38698
3.07842
2.75521
2.40455
1.99134
1.54072
1.44968
1.39768
1.28463
1.22844
1.405
1.76444
1.97317
1.70281
1.66238
1.63587
1.6151
1.60622
1.60735
1.61476
1.62299
1.64022
1.65539
1.59913
1.56937
1.58865
1.68791
1.85073
1.99279
2.00575
1.93717
1.82802
1.71905
1.6388
1.75414
1.77798
1.74741
1.74833
1.74177
1.73058
1.7161
1.69903
1.68307
1.67771
1.69101
1.72276
1.78565
1.8447
1.89341
1.93801
1.97449
1.99351
1.97519
1.93727
1.87117
1.80897
1.76977
1.69123
1.70256
1.68424
1.67791
1.66981
1.66353
1.65875
1.65568
1.65658
1.66555
1.68307
1.7037
1.74012
1.77246
1.80917
1.84669
1.88538
1.90596
1.92231
1.90502
1.88273
1.85637
1.85522
1.64427
1.6436
1.63068
1.62183
1.61444
1.61003
1.60842
1.6097
1.61506
1.62676
1.64518
1.66592
1.6875
1.71639
1.7474
1.78037
1.81623
1.84972
1.8671
1.87842
1.87961
1.87877
1.89826
1.59448
1.59084
1.58336
1.57778
1.57414
1.57308
1.57463
1.579
1.58685
1.59908
1.61575
1.63537
1.65759
1.68313
1.71071
1.74022
1.77163
1.80223
1.82787
1.84769
1.86287
1.87849
1.90889
1.54219
1.5386
1.53495
1.5333
1.53357
1.53593
1.54049
1.54754
1.55753
1.5708
1.58701
1.60525
1.62533
1.64801
1.67287
1.69977
1.7283
1.75676
1.78302
1.8071
1.82991
1.85464
1.88991
1.48653
1.48348
1.48191
1.48274
1.48557
1.49019
1.49662
1.50507
1.51586
1.52918
1.54476
1.56207
1.58103
1.602
1.62496
1.64982
1.67627
1.70338
1.73011
1.75655
1.78336
1.81256
1.8492
1.42667
1.42426
1.42391
1.42617
1.43052
1.43651
1.44402
1.45316
1.46414
1.47712
1.49199
1.50853
1.52666
1.54652
1.56814
1.59148
1.61639
1.64242
1.66911
1.69647
1.72492
1.75566
1.79163
1.36212
1.36027
1.36063
1.36368
1.36886
1.37562
1.38372
1.39317
1.40411
1.41667
1.43087
1.44664
1.46396
1.48287
1.50337
1.52547
1.5491
1.57405
1.60012
1.62729
1.6558
1.68629
1.72051
1.29275
1.29131
1.29206
1.29546
1.30099
1.30807
1.31641
1.32594
1.33671
1.34885
1.36242
1.37744
1.39393
1.41189
1.43135
1.45229
1.47469
1.49845
1.52347
1.54972
1.57728
1.6065
1.6384
1.21873
1.21755
1.21845
1.2219
1.22745
1.23455
1.24287
1.25228
1.2628
1.2745
1.28746
1.30175
1.3174
1.33442
1.35283
1.37262
1.39376
1.41621
1.43989
1.46477
1.49084
1.51827
1.54766
1.1404
1.13937
1.14028
1.14358
1.14892
1.15581
1.16391
1.17307
1.18324
1.19448
1.20685
1.22042
1.23523
1.2513
1.26865
1.28726
1.30712
1.32817
1.35035
1.37361
1.39792
1.42332
1.45016
1.05816
1.05723
1.05805
1.06109
1.06609
1.07263
1.08038
1.08917
1.09892
1.10965
1.12141
1.13425
1.14823
1.16336
1.17964
1.19706
1.2156
1.2352
1.2558
1.27734
1.29976
1.32306
1.34742
0.972479
0.971611
0.972302
0.975033
0.97963
0.985732
0.993043
1.00137
1.01063
1.02081
1.03194
1.04405
1.05718
1.07135
1.08655
1.10278
1.11998
1.13812
1.15711
1.17689
1.1974
1.21859
1.24054
0.883777
0.882959
0.883518
0.885933
0.890103
0.895732
0.902553
0.910373
0.919091
0.928673
0.939126
0.950478
0.96275
0.975951
0.990073
1.00509
1.02096
1.03762
1.05501
1.07304
1.09165
1.11077
1.13043
0.792471
0.791697
0.792138
0.794252
0.798007
0.803159
0.809465
0.816741
0.824876
0.833821
0.84357
0.854135
0.865526
0.877743
0.890769
0.904572
0.919103
0.934301
0.950092
0.966402
0.983153
1.00027
1.01774
0.698939
0.698197
0.698541
0.700385
0.703756
0.708447
0.714237
0.720948
0.728468
0.736742
0.745755
0.755504
0.76599
0.777203
0.78912
0.801702
0.814897
0.82864
0.842858
0.857477
0.872419
0.8876
0.902982
0.603544
0.602783
0.603059
0.604669
0.6077
0.611961
0.617241
0.623374
0.630255
0.637828
0.646071
0.654977
0.664534
0.674725
0.685519
0.696872
0.708731
0.72103
0.733698
0.74666
0.759845
0.773169
0.78656
0.506713
0.50574
0.505979
0.507398
0.510144
0.51401
0.518788
0.524332
0.530548
0.537392
0.544838
0.552873
0.561478
0.570628
0.580285
0.590404
0.600927
0.611791
0.622927
0.63427
0.645752
0.657293
0.668802
0.408889
0.407299
0.407582
0.408854
0.411372
0.414869
0.419145
0.42408
0.429608
0.435694
0.442318
0.449458
0.457089
0.46518
0.473687
0.482562
0.491746
0.50118
0.510803
0.520555
0.530386
0.540237
0.549986
0.309915
0.307468
0.308106
0.30926
0.311574
0.314707
0.318463
0.322765
0.327582
0.332892
0.338674
0.344903
0.351546
0.358565
0.365911
0.373534
0.381377
0.389384
0.397503
0.405688
0.413914
0.422172
0.430364
0.209089
0.205095
0.207246
0.208545
0.210656
0.21339
0.216602
0.220261
0.224364
0.2289
0.233845
0.239167
0.244826
0.250776
0.256967
0.263344
0.269853
0.276443
0.28307
0.289705
0.296373
0.303265
0.310415
0.110048
0.0951342
0.103646
0.106562
0.108662
0.110999
0.113676
0.116707
0.120112
0.123885
0.128
0.132415
0.137087
0.141963
0.14699
0.152114
0.15728
0.162441
0.167565
0.172646
0.177843
0.183967
0.191887
0.0295391
-0.0267566
-0.000380959
0.00598912
0.00864449
0.0107951
0.0129816
0.0153633
0.0180081
0.0209213
0.0240763
0.0274322
0.0309412
0.0345514
0.0382086
0.0418575
0.0454455
0.048932
0.0523076
0.0556326
0.0592307
0.0646807
0.0760938
67.8275
-11.3192
38.406
61.0664
491.447
384.811
308.423
237.575
456.914
349.257
274.846
217.871
425.145
350.041
287.801
231.922
375.219
314.224
260.271
209.06
326.279
274.059
226.021
177.608
277.703
231.464
187.357
140.681
230.107
188.8
147.971
102.023
184.011
146.675
108.987
64.8293
141.428
107.852
72.8532
34.489
106.112
75.8893
38.7924
13.6349
77.376
49.4076
19.036
5.37754
52.6035
27.3689
8.57958
4.09478
32.047
14.8208
4.2978
3.52556
16.7407
8.57851
3.73556
3.33608
2.93469
1.72981
3.07215
3.1294
2.32712
0.316968
2.22213
2.794
1.48978
1.42407
1.80388
2.25735
1.58531
1.59692
1.72219
1.90465
1.75856
1.77776
1.84937
1.96014
1.88859
1.9168
1.96327
2.02416
1.93903
1.96706
2.00124
2.04567
1.94934
1.97524
2.00438
2.03995
1.92779
1.95195
1.97807
2.0087
1.88426
1.90671
1.93047
1.95727
1.82387
1.84459
1.86604
1.88957
1.74993
1.76886
1.7882
1.80885
1.66507
1.68227
1.69963
1.71784
1.57171
1.58723
1.60283
1.61891
1.4718
1.48577
1.49973
1.51396
1.36681
1.37932
1.3918
1.40438
1.25784
1.26901
1.2801
1.29123
1.14577
1.15566
1.1655
1.1753
1.03126
1.03997
1.0486
1.05718
0.914775
0.922367
0.92988
0.937302
0.796723
0.803245
0.809673
0.816001
0.677393
0.682876
0.688267
0.693529
0.557072
0.561545
0.565891
0.570096
0.436014
0.439456
0.442738
0.445848
0.31457
0.316841
0.318919
0.320879
0.193933
0.194305
0.194711
0.195459
0.0794756
0.0766139
0.0736852
0.071567
15.0096
14.4424
12.6251
7.74627
6.54804
8.10944
8.47013
8.28721
8.11631
7.9917
7.88033
7.78669
7.70927
7.64585
7.59559
7.55852
7.53532
7.52653
7.52942
126.059
60.4821
24.7913
5.76163
5.44994
7.00317
7.92064
7.87262
7.77248
7.70029
7.62414
7.5541
7.49319
7.44158
7.39998
7.36959
7.35182
7.34701
7.35184
137.145
61.6516
12.3417
0.991934
6.06997
6.89569
7.32036
7.4015
7.41156
7.38839
7.34697
7.30225
7.25962
7.22148
7.19004
7.16748
7.15563
7.15464
7.16105
144.857
56.6188
4.44087
2.85662
6.00896
6.87683
6.98274
7.03633
7.07605
7.08013
7.06516
7.04239
7.01681
6.99187
6.97069
6.956
6.94982
6.95213
6.95964
126.533
36.1154
1.56277
5.4787
6.17168
6.48333
6.60883
6.70225
6.75644
6.7796
6.78516
6.78035
6.76959
6.75667
6.74505
6.73767
6.73655
6.74159
6.74985
95.3113
16.6864
3.41708
5.43777
6.09235
6.19058
6.29154
6.38863
6.45062
6.48838
6.50975
6.51932
6.521
6.51855
6.51541
6.5145
6.51773
6.52498
6.5337
58.5369
6.38662
5.27778
5.48434
5.7205
5.8596
5.98863
6.08719
6.15718
6.20677
6.24034
6.26131
6.27324
6.27964
6.28378
6.28838
6.29522
6.30418
6.31314
27.6386
4.38011
4.914
5.33476
5.44753
5.57216
5.69947
5.79913
5.87623
5.93489
5.97773
6.00766
6.0279
6.04163
6.05183
6.06101
6.07076
6.08098
6.08998
10.1122
5.15794
4.84651
5.00852
5.1554
5.29818
5.42232
5.52444
5.60727
5.67259
5.7224
5.7593
5.78616
5.80582
5.82097
5.83384
5.84585
5.85694
5.86581
4.66199
4.4179
4.67723
4.77437
4.89898
5.03661
5.15867
5.26296
5.3497
5.41968
5.47461
5.51683
5.54886
5.57323
5.59231
5.60807
5.62177
5.6334
5.64198
4.75531
4.19032
4.38667
4.51713
4.65253
4.78691
4.90819
5.01383
5.10291
5.17595
5.23451
5.28066
5.31663
5.34463
5.36675
5.3847
5.39959
5.41146
5.41965
3.7881
3.93867
4.13309
4.27527
4.41697
4.54971
4.6704
4.77625
4.86634
4.94115
5.00211
5.05103
5.08988
5.12061
5.14499
5.16451
5.18016
5.19202
5.19973
3.51911
3.72173
3.90727
4.05323
4.19248
4.32443
4.4441
4.54926
4.63936
4.71494
4.7773
4.82805
4.86889
4.90154
4.92751
4.94809
4.96412
4.97576
4.98292
3.41168
3.55793
3.70185
3.83958
3.9786
4.10976
4.22809
4.33199
4.42137
4.49694
4.5599
4.61169
4.65376
4.68766
4.71466
4.73584
4.75195
4.76321
4.76978
3.26331
3.36358
3.49343
3.63227
3.773
3.90401
4.02119
4.1237
4.21193
4.28688
4.34977
4.40198
4.44446
4.47911
4.50664
4.52804
4.54398
4.55472
4.56066
3.08543
3.14085
3.27817
3.42925
3.5746
3.70643
3.82276
3.92383
4.01066
4.08451
4.14672
4.19859
4.24126
4.27597
4.30358
4.32486
4.34041
4.35056
4.35575
2.85354
2.90632
3.06486
3.23317
3.38485
3.51777
3.63301
3.73225
3.81721
3.88948
3.95051
4.00159
4.04382
4.0782
4.1055
4.12636
4.14132
4.15077
4.15528
2.52311
2.67567
2.86651
3.05018
3.20663
3.33935
3.45242
3.54898
3.63139
3.70149
3.76083
3.81064
3.85196
3.88562
3.91228
3.93248
3.94669
3.95538
3.95923
2.22089
2.47452
2.69903
2.88801
3.04327
3.17247
3.28139
3.37399
3.45296
3.52024
3.57733
3.62542
3.66542
3.69802
3.72377
3.7431
3.75645
3.76432
3.76753
2.14993
2.37374
2.57863
2.75241
2.89681
3.01763
3.11981
3.20695
3.2815
3.34527
3.39961
3.44554
3.48386
3.51511
3.53971
3.55802
3.57041
3.57745
3.58003
2.14573
2.31961
2.48783
2.63665
2.76426
2.87321
2.9666
3.04701
3.11634
3.17601
3.22715
3.27057
3.3069
3.33656
3.35983
3.37699
3.38838
3.39458
3.39657
2.1348
2.27084
2.4064
2.53061
2.64037
2.7363
2.81999
2.89299
2.95657
3.01176
3.05937
3.10002
3.13414
3.16202
3.18382
3.19974
3.21009
3.21548
3.21691
2.10836
2.21556
2.32475
2.42755
2.52078
2.60409
2.67809
2.74356
2.80124
2.85177
2.89567
2.93336
2.96512
2.99109
3.01135
3.02599
3.0353
3.0399
3.04081
2.06458
2.15039
2.23879
2.32377
2.40257
2.47441
2.53931
2.59754
2.64941
2.69528
2.73543
2.7701
2.79942
2.82342
2.84207
2.85542
2.86371
2.86756
2.86802
2.00432
2.07438
2.14672
2.2173
2.28393
2.34574
2.40242
2.45391
2.50028
2.54163
2.57809
2.60976
2.63662
2.65863
2.67567
2.68774
2.69505
2.69821
2.69827
1.92982
1.9881
2.04813
2.10728
2.16387
2.2171
2.26652
2.3119
2.35315
2.39024
2.42316
2.45188
2.47633
2.49637
2.51184
2.52267
2.52905
2.53158
2.53129
1.84358
1.89291
1.94348
1.99357
2.04195
2.08792
2.13101
2.17094
2.20752
2.24063
2.27019
2.2961
2.31822
2.33635
2.35028
2.35993
2.36544
2.36741
2.36684
1.7481
1.79045
1.83362
1.87646
1.91809
1.95792
1.99553
2.03062
2.06297
2.09241
2.11883
2.14207
2.16197
2.17827
2.19075
2.19928
2.204
2.20547
2.20466
1.64543
1.68221
1.71945
1.7564
1.79242
1.82703
1.85988
1.89067
1.9192
1.94529
1.96879
1.98954
2.00732
2.02189
2.03299
2.04049
2.04449
2.04552
2.04454
1.5373
1.56944
1.6018
1.63385
1.66513
1.69525
1.72393
1.75091
1.776
1.79903
1.81983
1.83825
1.85406
1.867
1.87682
1.88335
1.8867
1.88737
1.88625
1.42496
1.45315
1.48137
1.50925
1.53644
1.56266
1.58766
1.61124
1.63322
1.65345
1.67177
1.68802
1.70198
1.7134
1.72202
1.72768
1.73045
1.73081
1.72961
1.30936
1.33409
1.3587
1.38295
1.40656
1.42933
1.45106
1.47158
1.49074
1.50841
1.52444
1.53869
1.55093
1.56094
1.56845
1.5733
1.57557
1.57568
1.57443
1.19122
1.21284
1.23424
1.25525
1.27567
1.29535
1.31413
1.33188
1.34847
1.3638
1.37772
1.39011
1.40076
1.40945
1.41593
1.42006
1.42188
1.42179
1.42054
1.07107
1.08983
1.10831
1.12638
1.14391
1.16079
1.17689
1.19211
1.20636
1.21952
1.2315
1.24216
1.25133
1.2588
1.26434
1.26782
1.26926
1.26902
1.26779
0.949282
0.965381
0.981152
0.996522
1.0114
1.02571
1.03935
1.05226
1.06434
1.07551
1.08568
1.09474
1.10253
1.10887
1.11355
1.11643
1.11755
1.11721
1.11603
0.826162
0.839734
0.85296
0.865807
0.878222
0.890148
0.901521
0.912277
0.922351
0.931674
0.940169
0.947738
0.954252
0.959542
0.96343
0.965789
0.966633
0.966233
0.965138
0.701923
0.713062
0.723861
0.734326
0.744429
0.754132
0.763388
0.772148
0.780357
0.78796
0.794893
0.801075
0.806397
0.810715
0.813878
0.81577
0.816396
0.815979
0.814993
0.576725
0.585483
0.593946
0.602141
0.610061
0.617677
0.624952
0.631845
0.638314
0.644311
0.649786
0.654672
0.65888
0.662296
0.664794
0.666275
0.666734
0.666343
0.665487
0.450671
0.457071
0.463268
0.469294
0.475144
0.480793
0.486207
0.491351
0.496189
0.500683
0.504791
0.508463
0.511632
0.514209
0.516097
0.51722
0.517561
0.517233
0.516534
0.323911
0.327931
0.331878
0.335796
0.33966
0.343435
0.347085
0.350575
0.353874
0.356951
0.359774
0.362308
0.364505
0.366308
0.367654
0.368486
0.368778
0.368576
0.368066
0.196867
0.198283
0.199856
0.201626
0.203511
0.205445
0.207376
0.209266
0.211083
0.212804
0.214405
0.215866
0.217163
0.218273
0.21917
0.219826
0.220204
0.220262
0.220045
0.0689503
0.0676069
0.0671279
0.0670332
0.0671669
0.067444
0.0678091
0.068226
0.0686706
0.069126
0.0695808
0.0700288
0.0704683
0.0709019
0.0713343
0.0717646
0.072167
0.0724679
0.07257
)
;

boundaryField
{
    leftWall
    {
        type            calculated;
        value           nonuniform List<scalar> 
50
(
12408.1
11601
10794.3
9987.52
9181.75
8378.76
7579.42
6781.55
5542.18
3905.73
2395.25
1496.1
1221.49
1115.22
1008.8
903.126
798.58
695.633
594.525
495.359
398.148
302.265
207.19
117.79
46.7821
6.48582
1.76444
1.75414
1.69123
1.64427
1.59448
1.54219
1.48653
1.42667
1.36212
1.29275
1.21873
1.1404
1.05816
0.972479
0.883777
0.792471
0.698939
0.603544
0.506713
0.408889
0.309915
0.209089
0.110048
0.0295391
)
;
    }
    rightWall
    {
        type            calculated;
        value           nonuniform List<scalar> 
50
(
8.11787
8.05857
7.99709
7.9332
7.8668
7.79769
7.7257
7.65074
7.52942
7.35184
7.16105
6.95964
6.74985
6.5337
6.31314
6.08998
5.86581
5.64198
5.41965
5.19973
4.98292
4.76978
4.56066
4.35575
4.15528
3.95923
3.76753
3.58003
3.39657
3.21691
3.04081
2.86802
2.69827
2.53129
2.36684
2.20466
2.04454
1.88625
1.72961
1.57443
1.42054
1.26779
1.11603
0.965138
0.814993
0.665487
0.516534
0.368066
0.220045
0.07257
)
;
    }
    lowerWall
    {
        type            calculated;
        value           nonuniform List<scalar> 
62
(
12806.2
12848.3
12887.6
12914.6
12918.3
12893.4
12836.1
12738.5
12580.6
12318.1
11868.2
11105.4
9890.66
8165.11
6124.59
4232.01
2877.29
1974.68
1532
1518.87
1523.48
1529.47
1540.41
1525.7
1494.43
1456.3
1411.05
1357.57
1292.26
1206.84
1074.39
99.1261
19.9794
69.7046
92.365
7.35387
7.24696
7.05287
6.78098
6.48481
6.49653
4.61506
-21.4692
7.3833
7.44699
7.93028
8.62512
9.18334
9.44555
9.37361
9.16734
8.95496
8.77047
8.61608
8.48897
8.38593
8.30416
8.24145
8.19606
8.16646
8.15087
8.1473
)
;
    }
    atmosphere
    {
        type            calculated;
        value           nonuniform List<scalar> 
46
(
-0.0269061
-0.0464661
-0.0416324
-0.0396976
-0.0381341
-0.0365829
-0.0348697
-0.0329285
-0.03075
-0.0283557
-0.0257824
-0.0230738
-0.0202779
-0.0174458
-0.0146319
-0.0118933
-0.00928977
-0.00688244
-0.00473382
-0.00290875
-0.00147737
-0.000515236
-6.79226e-05
0
0
0
0
0
0
0
0
0
0
0
0
0
0
0
0
0
0
0
0
0
0
0
)
;
    }
    defaultFaces
    {
        type            empty;
    }
}


// ************************************************************************* //
