/*--------------------------------*- C++ -*----------------------------------*\
  =========                 |
  \\      /  F ield         | OpenFOAM: The Open Source CFD Toolbox
   \\    /   O peration     | Website:  https://openfoam.org
    \\  /    A nd           | Version:  13
     \\/     M anipulation  |
\*---------------------------------------------------------------------------*/
FoamFile
{
    format      ascii;
    class       surfaceScalarField;
    location    "0.1";
    object      phi;
}
// * * * * * * * * * * * * * * * * * * * * * * * * * * * * * * * * * * * * * //

dimensions      [0 3 -1 0 0 0 0];

internalField   nonuniform List<scalar> 
4432
(
3.55154e-07
-3.55162e-07
1.80454e-06
-1.44939e-06
4.02275e-06
-2.21822e-06
6.69955e-06
-2.6768e-06
9.73997e-06
-3.04042e-06
1.32022e-05
-3.46221e-06
1.72778e-05
-4.07561e-06
2.22912e-05
-5.01346e-06
2.86837e-05
-6.39243e-06
3.69398e-05
-8.25611e-06
4.73764e-05
-1.04366e-05
5.97954e-05
-1.2419e-05
7.29659e-05
-1.31705e-05
8.43346e-05
-1.13687e-05
9.15412e-05
-7.20662e-06
9.49839e-05
-3.44261e-06
9.69673e-05
-1.98345e-06
9.42914e-05
2.67588e-06
7.73405e-05
1.6951e-05
5.56053e-05
2.17352e-05
3.28488e-05
2.27565e-05
1.2311e-05
2.05378e-05
1.2311e-05
1.01965e-06
-1.37482e-06
2.71634e-06
-3.14608e-06
4.89988e-06
-4.40177e-06
7.48432e-06
-5.26124e-06
1.04607e-05
-6.01677e-06
1.39097e-05
-6.91121e-06
1.8006e-05
-8.17199e-06
2.30108e-05
-1.00182e-05
2.92367e-05
-1.26183e-05
3.69665e-05
-1.5986e-05
4.63171e-05
-1.97872e-05
5.70559e-05
-2.31578e-05
6.83017e-05
-2.44164e-05
7.82809e-05
-2.13479e-05
8.53018e-05
-1.42275e-05
8.92893e-05
-7.43011e-06
8.95388e-05
-2.23297e-06
7.96762e-05
1.25384e-05
6.57089e-05
3.09183e-05
4.91788e-05
3.82654e-05
3.17452e-05
4.019e-05
1.41827e-05
3.81003e-05
2.64938e-05
1.58074e-06
-2.95556e-06
3.42494e-06
-4.99029e-06
5.57642e-06
-6.55325e-06
8.06936e-06
-7.75418e-06
1.0948e-05
-8.89541e-06
1.43071e-05
-1.02703e-05
1.8301e-05
-1.21658e-05
2.31328e-05
-1.48501e-05
2.9021e-05
-1.85065e-05
3.61356e-05
-2.31006e-05
4.45144e-05
-2.81659e-05
5.39269e-05
-3.25703e-05
6.36269e-05
-3.41164e-05
7.22499e-05
-2.99709e-05
7.87918e-05
-2.07694e-05
8.30553e-05
-1.16936e-05
7.76824e-05
3.13992e-06
6.77471e-05
2.24738e-05
5.74742e-05
4.11911e-05
4.55454e-05
5.01943e-05
3.15773e-05
5.41581e-05
1.59423e-05
5.37353e-05
4.24361e-05
1.99111e-06
-4.94668e-06
3.97393e-06
-6.97312e-06
6.12271e-06
-8.70203e-06
8.54408e-06
-1.01756e-05
1.13209e-05
-1.16722e-05
1.45559e-05
-1.35054e-05
1.83829e-05
-1.59928e-05
2.29576e-05
-1.94248e-05
2.84307e-05
-2.39796e-05
3.49034e-05
-2.95733e-05
4.23724e-05
-3.56349e-05
5.06263e-05
-4.08242e-05
5.90089e-05
-4.2499e-05
6.64197e-05
-3.73816e-05
7.2293e-05
-2.66427e-05
7.39204e-05
-1.33211e-05
6.78935e-05
9.16679e-06
5.98904e-05
3.04769e-05
5.26063e-05
4.84752e-05
4.37925e-05
5.90081e-05
3.23281e-05
6.56225e-05
1.79162e-05
6.81472e-05
6.03523e-05
2.26054e-06
-7.20723e-06
4.37638e-06
-9.08896e-06
6.54495e-06
-1.08706e-05
8.91334e-06
-1.2544e-05
1.15906e-05
-1.43495e-05
1.46828e-05
-1.65976e-05
1.83041e-05
-1.96141e-05
2.25711e-05
-2.36918e-05
2.75839e-05
-2.89924e-05
3.33962e-05
-3.53856e-05
3.99823e-05
-4.2221e-05
4.71533e-05
-4.79952e-05
5.43347e-05
-4.96805e-05
6.06324e-05
-4.36792e-05
6.56457e-05
-3.16561e-05
6.37833e-05
-1.14586e-05
5.97443e-05
1.32058e-05
5.46411e-05
3.55801e-05
4.98473e-05
5.3269e-05
4.34764e-05
6.53791e-05
3.41647e-05
7.49342e-05
2.06586e-05
8.16533e-05
8.1011e-05
2.42515e-06
-9.63238e-06
4.65495e-06
-1.13188e-05
6.85396e-06
-1.30696e-05
9.18405e-06
-1.48741e-05
1.17683e-05
-1.69337e-05
1.47115e-05
-1.95408e-05
1.81095e-05
-2.30121e-05
2.20457e-05
-2.76281e-05
2.65785e-05
-3.35252e-05
3.17248e-05
-4.0532e-05
3.74435e-05
-4.79396e-05
4.35736e-05
-5.41252e-05
4.96578e-05
-5.57647e-05
5.49373e-05
-4.89588e-05
5.84739e-05
-3.51926e-05
5.65836e-05
-9.56844e-06
5.39144e-05
1.58751e-05
5.11653e-05
3.83291e-05
4.85222e-05
5.59122e-05
4.44468e-05
6.94545e-05
3.73857e-05
8.19953e-05
2.48838e-05
9.41552e-05
0.000105895
2.52178e-06
-1.21542e-05
4.83856e-06
-1.36355e-05
7.06905e-06
-1.53001e-05
9.37168e-06
-1.71767e-05
1.18726e-05
-1.94346e-05
1.46711e-05
-2.23393e-05
1.78451e-05
-2.61861e-05
2.14485e-05
-3.12315e-05
2.55043e-05
-3.75809e-05
2.99966e-05
-4.50243e-05
3.4869e-05
-5.2812e-05
3.99785e-05
-5.92348e-05
4.50641e-05
-6.08502e-05
4.95257e-05
-5.34204e-05
5.15481e-05
-3.7215e-05
5.0967e-05
-8.98734e-06
4.96948e-05
1.71472e-05
4.88877e-05
3.91362e-05
4.82598e-05
5.65402e-05
4.66141e-05
7.11002e-05
4.23923e-05
8.6217e-05
3.15556e-05
0.000104992
0.00013745
2.57072e-06
-1.47249e-05
4.9529e-06
-1.60177e-05
7.21357e-06
-1.75608e-05
9.49794e-06
-1.94611e-05
1.19282e-05
-2.18648e-05
1.45949e-05
-2.5006e-05
1.75585e-05
-2.91497e-05
2.08464e-05
-3.45194e-05
2.44473e-05
-4.11818e-05
2.83154e-05
-4.88925e-05
3.23777e-05
-5.68743e-05
3.6515e-05
-6.33721e-05
4.0722e-05
-6.50572e-05
4.45768e-05
-5.72753e-05
4.59512e-05
-3.85894e-05
4.64084e-05
-9.44457e-06
4.65572e-05
1.69985e-05
4.74208e-05
3.82726e-05
4.87667e-05
5.51943e-05
4.98431e-05
7.00238e-05
4.9613e-05
8.64471e-05
4.30811e-05
0.000111524
0.000180531
-4.05302e-05
4.05306e-05
-6.07259e-05
2.01954e-05
-5.4954e-05
-5.77222e-06
-2.56037e-05
-2.93501e-05
9.70763e-06
-3.53111e-05
3.47973e-05
-2.50893e-05
4.61902e-05
-1.13926e-05
4.88347e-05
-2.6441e-06
4.69732e-05
1.86175e-06
4.29809e-05
3.99267e-06
3.80445e-05
4.93663e-06
3.27404e-05
5.30438e-06
2.73247e-05
5.41587e-06
2.18928e-05
5.43209e-06
1.64819e-05
5.41097e-06
1.11649e-05
5.31718e-06
6.18593e-06
4.97899e-06
2.18991e-06
3.9961e-06
2.19002e-06
-3.84264e-05
7.89573e-05
-5.1314e-05
3.30826e-05
-4.04604e-05
-1.66266e-05
-1.3105e-05
-5.67053e-05
1.68768e-05
-6.52923e-05
4.00434e-05
-4.82543e-05
5.05833e-05
-2.19311e-05
5.23706e-05
-4.43038e-06
4.9661e-05
4.5721e-06
4.49585e-05
8.69574e-06
3.94928e-05
1.04027e-05
3.38174e-05
1.098e-05
2.81518e-05
1.10816e-05
2.25692e-05
1.10148e-05
1.71079e-05
1.08722e-05
1.18522e-05
1.05729e-05
7.00063e-06
9.83052e-06
2.89603e-06
8.10063e-06
5.08587e-06
-3.62663e-05
0.000115224
-3.96364e-05
3.64524e-05
-2.27962e-05
-3.34662e-05
1.42562e-06
-8.0927e-05
2.56273e-05
-8.94939e-05
4.61998e-05
-6.88268e-05
5.47496e-05
-3.04809e-05
5.50207e-05
-4.70143e-06
5.12628e-05
8.33005e-06
4.58753e-05
1.40834e-05
3.99933e-05
1.62849e-05
3.4091e-05
1.68824e-05
2.83289e-05
1.68439e-05
2.27487e-05
1.65952e-05
1.7377e-05
1.62439e-05
1.22843e-05
1.56657e-05
7.60734e-06
1.45076e-05
3.48903e-06
1.2219e-05
8.5751e-06
-3.21193e-05
0.000147344
-1.90157e-05
2.3349e-05
4.61818e-06
-5.70998e-05
2.13377e-05
-9.76463e-05
3.7897e-05
-0.000106053
5.46751e-05
-8.56035e-05
5.99441e-05
-3.57485e-05
5.78501e-05
-2.60645e-06
5.27171e-05
1.34636e-05
4.65721e-05
2.02289e-05
4.02921e-05
2.25651e-05
3.42043e-05
2.29703e-05
2.83891e-05
2.26591e-05
2.28483e-05
2.21361e-05
1.7587e-05
2.15052e-05
1.26473e-05
2.06053e-05
8.09677e-06
1.9058e-05
3.93506e-06
1.63806e-05
1.25099e-05
-1.74214e-05
0.000164765
2.83796e-05
-2.24518e-05
5.01219e-05
-7.88423e-05
5.03662e-05
-9.78911e-05
5.49807e-05
-0.000110667
6.60361e-05
-9.66595e-05
6.61232e-05
-3.5836e-05
6.08913e-05
2.62527e-06
5.40776e-05
2.02773e-05
4.71249e-05
2.71816e-05
4.0472e-05
2.9218e-05
3.42337e-05
2.92087e-05
2.83945e-05
2.84984e-05
2.29112e-05
2.76195e-05
1.77608e-05
2.66557e-05
1.29498e-05
2.54164e-05
8.4801e-06
2.35278e-05
4.25084e-06
2.061e-05
1.6761e-05
2.80063e-05
0.00013676
8.43239e-05
-7.87694e-05
9.42924e-05
-8.8811e-05
9.17922e-05
-9.53914e-05
8.11016e-05
-9.99775e-05
7.93512e-05
-9.49087e-05
7.2396e-05
-2.88801e-05
6.37787e-05
1.1243e-05
5.52191e-05
2.88372e-05
4.74953e-05
3.49056e-05
4.05271e-05
3.61864e-05
3.41832e-05
3.55527e-05
2.83489e-05
3.43328e-05
2.29362e-05
3.30322e-05
1.78922e-05
3.16997e-05
1.31869e-05
3.01217e-05
8.76673e-06
2.79479e-05
4.46695e-06
2.49097e-05
2.12277e-05
0.000100135
3.66246e-05
9.78004e-05
-7.64348e-05
9.6936e-05
-8.79466e-05
9.56447e-05
-9.41003e-05
9.27448e-05
-9.70782e-05
9.0345e-05
-9.25085e-05
7.71956e-05
-1.573e-05
6.58552e-05
2.25838e-05
5.5931e-05
3.87617e-05
4.76143e-05
4.32225e-05
4.04317e-05
4.33691e-05
3.40409e-05
4.19435e-05
2.82435e-05
4.01302e-05
2.29141e-05
3.83616e-05
1.79722e-05
3.66415e-05
1.33548e-05
3.47391e-05
8.96699e-06
3.23357e-05
4.60948e-06
2.92671e-05
2.58372e-05
0.000101696
-6.5071e-05
0.000102042
-7.67813e-05
0.000100764
-8.66683e-05
9.98224e-05
-9.31591e-05
9.9122e-05
-9.63782e-05
9.51763e-05
-8.85631e-05
7.97792e-05
-3.3263e-07
6.67597e-05
3.56037e-05
5.60873e-05
4.94342e-05
4.74438e-05
5.18661e-05
4.01731e-05
5.064e-05
3.38023e-05
4.83143e-05
2.80766e-05
4.5856e-05
2.28436e-05
4.35947e-05
1.80008e-05
4.14843e-05
1.34587e-05
3.92811e-05
9.09342e-06
3.6701e-05
4.68959e-06
3.3671e-05
3.05267e-05
5.51053e-06
-2.02354e-05
1.0752e-05
-2.12592e-05
1.56562e-05
-2.2465e-05
2.04856e-05
-2.42905e-05
2.54797e-05
-2.68589e-05
3.08025e-05
-3.03288e-05
3.65314e-05
-3.48786e-05
4.26544e-05
-4.06424e-05
4.90674e-05
-4.75948e-05
5.56031e-05
-5.54282e-05
6.20457e-05
-6.33168e-05
6.83796e-05
-6.97061e-05
7.5093e-05
-7.17706e-05
8.1468e-05
-6.36503e-05
8.38162e-05
-4.09376e-05
8.64979e-05
-1.21263e-05
9.10307e-05
1.24657e-05
9.77488e-05
3.15545e-05
0.00010683
4.61131e-05
0.000118739
5.81144e-05
0.000135669
6.95174e-05
0.000166994
8.01992e-05
8.53404e-05
0.000262185
5.62701e-06
-2.58624e-05
1.09902e-05
-2.66224e-05
1.59537e-05
-2.74285e-05
2.07787e-05
-2.91155e-05
2.56612e-05
-3.17415e-05
3.07201e-05
-3.53877e-05
3.59834e-05
-4.01419e-05
4.13786e-05
-4.60375e-05
4.66981e-05
-5.29143e-05
5.17003e-05
-6.04304e-05
5.61143e-05
-6.77308e-05
5.98748e-05
-7.34666e-05
6.3943e-05
-7.58388e-05
6.72279e-05
-6.69353e-05
7.06418e-05
-4.43515e-05
7.61592e-05
-1.76436e-05
8.44085e-05
4.21645e-06
9.53668e-05
2.05962e-05
0.000109186
3.22943e-05
0.000126756
4.05442e-05
0.0001503
4.59737e-05
0.000182818
4.76809e-05
4.29831e-05
0.000225175
5.96788e-06
-3.18303e-05
1.13429e-05
-3.19974e-05
1.63837e-05
-3.24693e-05
2.13272e-05
-3.40589e-05
2.63068e-05
-3.6721e-05
3.13959e-05
-4.04768e-05
3.65657e-05
-4.53117e-05
4.17232e-05
-5.11951e-05
4.69137e-05
-5.81048e-05
5.19609e-05
-6.54776e-05
5.6194e-05
-7.19639e-05
5.86216e-05
-7.58942e-05
5.96297e-05
-7.68469e-05
6.07504e-05
-6.8056e-05
6.37125e-05
-4.73136e-05
7.04561e-05
-2.43872e-05
8.06294e-05
-5.95686e-06
9.38407e-05
7.38488e-06
0.000110013
1.61222e-05
0.00012962
2.09366e-05
0.000153573
2.20215e-05
0.000182614
1.86399e-05
9.00779e-06
0.000216589
7.16164e-06
-3.89919e-05
1.23171e-05
-3.71528e-05
1.7561e-05
-3.77132e-05
2.29877e-05
-3.94856e-05
2.86336e-05
-4.2367e-05
3.45356e-05
-4.63788e-05
4.06567e-05
-5.14327e-05
4.65777e-05
-5.71161e-05
5.18324e-05
-6.33595e-05
5.61138e-05
-6.97589e-05
5.92579e-05
-7.5108e-05
6.15363e-05
-7.81725e-05
6.1766e-05
-7.70766e-05
6.06997e-05
-6.69897e-05
6.23205e-05
-4.89344e-05
6.86296e-05
-3.06963e-05
7.89742e-05
-1.63015e-05
9.27118e-05
-6.3527e-06
0.000109452
-6.17724e-07
0.000129115
1.27366e-06
0.000151672
-5.36104e-07
0.000176556
-6.24422e-06
-1.60343e-05
0.000201599
6.2923e-06
-4.52842e-05
1.20453e-05
-4.29058e-05
1.81156e-05
-4.37835e-05
2.42887e-05
-4.56587e-05
3.04219e-05
-4.85002e-05
3.64046e-05
-5.23614e-05
4.21228e-05
-5.7151e-05
4.76328e-05
-6.2626e-05
5.26355e-05
-6.83623e-05
5.66749e-05
-7.37983e-05
5.96425e-05
-7.80756e-05
6.13604e-05
-7.98904e-05
6.16343e-05
-7.73505e-05
6.09473e-05
-6.63027e-05
6.24697e-05
-5.04569e-05
6.82526e-05
-3.64791e-05
7.80185e-05
-2.60674e-05
9.11718e-05
-1.9506e-05
0.000107185
-1.66304e-05
0.000125616
-1.71579e-05
0.000145937
-2.08573e-05
0.000167148
-2.74544e-05
-3.63163e-05
0.00018743
4.00301e-06
-4.92872e-05
1.05667e-05
-4.94694e-05
1.72158e-05
-5.04326e-05
2.37539e-05
-5.21968e-05
3.00794e-05
-5.48257e-05
3.6067e-05
-5.8349e-05
4.15954e-05
-6.26794e-05
4.65631e-05
-6.75937e-05
5.08763e-05
-7.26755e-05
5.44236e-05
-7.73457e-05
5.70666e-05
-8.07186e-05
5.8671e-05
-8.14949e-05
5.91525e-05
-7.7832e-05
5.93491e-05
-6.64993e-05
6.16052e-05
-5.2713e-05
6.72784e-05
-4.21523e-05
7.63933e-05
-3.51823e-05
8.85165e-05
-3.16292e-05
0.00010313
-3.12435e-05
0.000119693
-3.37215e-05
0.000137531
-3.86954e-05
0.000155682
-4.56058e-05
-5.34776e-05
0.000172844
4.91457e-06
-5.42018e-05
1.07931e-05
-5.53479e-05
1.68534e-05
-5.6493e-05
2.28665e-05
-5.82099e-05
2.86849e-05
-6.0644e-05
3.41692e-05
-6.38333e-05
3.91987e-05
-6.77089e-05
4.36744e-05
-7.20694e-05
4.75424e-05
-7.65434e-05
5.07371e-05
-8.05404e-05
5.31909e-05
-8.31724e-05
5.48393e-05
-8.31433e-05
5.56996e-05
-7.86923e-05
5.6577e-05
-6.73767e-05
5.94276e-05
-5.55636e-05
6.50518e-05
-4.77764e-05
7.34699e-05
-4.36004e-05
8.43793e-05
-4.25387e-05
9.73486e-05
-4.42128e-05
0.000111875
-4.82476e-05
0.000127336
-5.41562e-05
0.00014293
-6.12005e-05
-6.82458e-05
0.000157699
5.06796e-06
-5.92697e-05
1.04861e-05
-6.0766e-05
1.59407e-05
-6.19477e-05
2.1309e-05
-6.35782e-05
2.64827e-05
-6.58177e-05
3.13558e-05
-6.87064e-05
3.58351e-05
-7.21882e-05
3.98475e-05
-7.60818e-05
4.3341e-05
-8.00369e-05
4.62783e-05
-8.34776e-05
4.86263e-05
-8.55204e-05
5.03659e-05
-8.48829e-05
5.15355e-05
-7.98618e-05
5.28951e-05
-6.87364e-05
5.61025e-05
-5.8771e-05
6.15594e-05
-5.32333e-05
6.92263e-05
-5.12673e-05
7.88748e-05
-5.21872e-05
9.01695e-05
-5.55075e-05
0.000102698
-6.07759e-05
0.000115952
-6.74104e-05
0.000129293
-7.4542e-05
-8.09141e-05
0.000141962
4.72985e-06
-6.39995e-05
9.622e-06
-6.56582e-05
1.44801e-05
-6.68057e-05
1.92211e-05
-6.83192e-05
2.37695e-05
-7.03661e-05
2.80514e-05
-7.29884e-05
3.20014e-05
-7.61381e-05
3.55679e-05
-7.96483e-05
3.87162e-05
-8.31852e-05
4.1424e-05
-8.61855e-05
4.36785e-05
-8.77749e-05
4.54774e-05
-8.66817e-05
4.68255e-05
-8.121e-05
4.84911e-05
-7.0402e-05
5.18394e-05
-6.21192e-05
5.69995e-05
-5.83935e-05
6.38772e-05
-5.8145e-05
7.22848e-05
-6.05948e-05
8.19663e-05
-6.5189e-05
9.26058e-05
-7.14154e-05
0.000103812
-7.8617e-05
0.000115103
-8.5833e-05
-9.16514e-05
0.000125841
4.25341e-06
-6.82529e-05
8.57009e-06
-6.99748e-05
1.28156e-05
-7.10513e-05
1.6935e-05
-7.24385e-05
2.08758e-05
-7.4307e-05
2.45873e-05
-7.66998e-05
2.80247e-05
-7.95755e-05
3.11543e-05
-8.2778e-05
3.39561e-05
-8.5987e-05
3.64219e-05
-8.86513e-05
3.85512e-05
-8.99042e-05
4.03417e-05
-8.84722e-05
4.17369e-05
-8.26052e-05
4.35639e-05
-7.2229e-05
4.68834e-05
-6.54387e-05
5.16455e-05
-6.31556e-05
5.77179e-05
-6.42174e-05
6.49346e-05
-6.78114e-05
7.30972e-05
-7.33516e-05
8.19724e-05
-8.02906e-05
9.12783e-05
-8.79229e-05
0.000100674
-9.52285e-05
-0.000100636
0.000109658
3.75299e-06
-7.20059e-05
7.50353e-06
-7.37254e-05
1.11505e-05
-7.46983e-05
1.46665e-05
-7.59545e-05
1.80203e-05
-7.76607e-05
2.1179e-05
-7.98586e-05
2.4114e-05
-8.25104e-05
2.68053e-05
-8.54693e-05
2.92449e-05
-8.84267e-05
3.14363e-05
-9.08427e-05
3.33876e-05
-9.18556e-05
3.50946e-05
-9.01791e-05
3.64333e-05
-8.39439e-05
3.83192e-05
-7.41149e-05
4.14915e-05
-6.8611e-05
4.5795e-05
-6.74591e-05
5.107e-05
-6.94924e-05
5.71604e-05
-7.39018e-05
6.39074e-05
-8.00987e-05
7.1139e-05
-8.75222e-05
7.86767e-05
-9.54605e-05
8.62847e-05
-0.000102836
-0.000107953
9.36025e-05
3.27628e-06
-7.52822e-05
6.49966e-06
-7.69487e-05
9.58484e-06
-7.77835e-05
1.25328e-05
-7.89025e-05
1.53305e-05
-8.04583e-05
1.79594e-05
-8.24876e-05
2.04029e-05
-8.49539e-05
2.26514e-05
-8.77177e-05
2.47065e-05
-9.04818e-05
2.65823e-05
-9.27186e-05
2.82987e-05
-9.3572e-05
2.98578e-05
-9.17383e-05
3.10771e-05
-8.51632e-05
3.29651e-05
-7.60029e-05
3.593e-05
-7.15759e-05
3.97596e-05
-7.12887e-05
4.42744e-05
-7.40072e-05
4.93215e-05
-7.89489e-05
5.47626e-05
-8.55398e-05
6.04719e-05
-9.32315e-05
6.63385e-05
-0.000101327
7.22726e-05
-0.000108771
-0.0001137
7.8019e-05
2.84873e-06
-7.81309e-05
5.60522e-06
-7.97052e-05
8.18245e-06
-8.03607e-05
1.06123e-05
-8.13323e-05
1.28963e-05
-8.27424e-05
1.50271e-05
-8.46183e-05
1.69962e-05
-8.69231e-05
1.88011e-05
-8.95226e-05
2.0451e-05
-9.21317e-05
2.19701e-05
-9.42377e-05
2.33965e-05
-9.49984e-05
2.47612e-05
-9.3103e-05
2.58562e-05
-8.62582e-05
2.77321e-05
-7.78788e-05
3.0487e-05
-7.43308e-05
3.38793e-05
-7.46811e-05
3.77148e-05
-7.78427e-05
4.18355e-05
-8.30696e-05
4.61115e-05
-8.98158e-05
5.04381e-05
-9.75581e-05
5.4751e-05
-0.00010564
5.90589e-05
-0.000113078
-0.000117997
6.33566e-05
2.49889e-06
-8.06298e-05
4.87161e-06
-8.2078e-05
7.01367e-06
-8.25028e-05
8.98974e-06
-8.33084e-05
1.08155e-05
-8.45681e-05
1.24921e-05
-8.62949e-05
1.40163e-05
-8.84473e-05
1.53886e-05
-9.0895e-05
1.66222e-05
-9.33653e-05
1.7751e-05
-9.53665e-05
1.88364e-05
-9.60838e-05
1.9953e-05
-9.42196e-05
2.09848e-05
-8.729e-05
2.28828e-05
-7.97769e-05
2.54904e-05
-7.69384e-05
2.85451e-05
-7.77358e-05
3.18431e-05
-8.11407e-05
3.52292e-05
-8.64558e-05
3.85634e-05
-9.315e-05
4.17358e-05
-0.000100731
4.47038e-05
-0.000108608
4.7498e-05
-0.000115873
-0.000120851
5.03515e-05
2.27769e-06
-8.29075e-05
4.3777e-06
-8.4178e-05
6.16898e-06
-8.4294e-05
7.76833e-06
-8.49077e-05
9.20759e-06
-8.60074e-05
1.04946e-05
-8.7582e-05
1.16262e-05
-8.95789e-05
1.25993e-05
-9.18681e-05
1.34265e-05
-9.41926e-05
1.41515e-05
-9.60916e-05
1.48671e-05
-9.67994e-05
1.57e-05
-9.50525e-05
1.67548e-05
-8.83449e-05
1.87319e-05
-8.1754e-05
2.1306e-05
-7.95125e-05
2.41902e-05
-8.062e-05
2.718e-05
-8.41306e-05
3.01154e-05
-8.93913e-05
3.28519e-05
-9.58867e-05
3.52745e-05
-0.000103153
3.73339e-05
-0.000110668
3.91069e-05
-0.000117646
-0.000122592
4.08481e-05
2.29628e-06
-8.52038e-05
4.17497e-06
-8.60567e-05
5.69338e-06
-8.58124e-05
7.02726e-06
-8.62416e-05
8.19665e-06
-8.71767e-05
9.20809e-06
-8.85934e-05
1.00479e-05
-9.04188e-05
1.06951e-05
-9.25153e-05
1.11499e-05
-9.46474e-05
1.14812e-05
-9.64228e-05
1.18606e-05
-9.71787e-05
1.25105e-05
-9.57023e-05
1.35336e-05
-8.9368e-05
1.56305e-05
-8.3851e-05
1.83078e-05
-8.21898e-05
2.12398e-05
-8.3552e-05
2.42313e-05
-8.71221e-05
2.71239e-05
-9.22838e-05
2.97641e-05
-9.85268e-05
3.20001e-05
-0.000105389
3.38769e-05
-0.000112545
3.56058e-05
-0.000119375
-0.000124826
3.78403e-05
2.79623e-06
-8.79999e-05
4.1518e-06
-8.74121e-05
5.56521e-06
-8.72256e-05
6.82583e-06
-8.7502e-05
7.91666e-06
-8.82673e-05
8.84363e-06
-8.95201e-05
9.57037e-06
-9.11453e-05
1.00379e-05
-9.29825e-05
1.01963e-05
-9.48057e-05
1.00424e-05
-9.62687e-05
9.82476e-06
-9.6961e-05
1.03462e-05
-9.62236e-05
1.13184e-05
-9.034e-05
1.36307e-05
-8.61631e-05
1.66844e-05
-8.52433e-05
1.99956e-05
-8.6863e-05
2.32997e-05
-9.0426e-05
2.63936e-05
-9.53776e-05
2.93845e-05
-0.000101518
3.22016e-05
-0.000108206
3.46787e-05
-0.000115022
3.64088e-05
-0.000121105
-0.000127282
3.88646e-05
4.86534e-06
-9.28649e-05
4.49984e-06
-8.70457e-05
6.12017e-06
-8.88454e-05
7.53106e-06
-8.89124e-05
8.8423e-06
-8.95781e-05
1.00123e-05
-9.06895e-05
1.09328e-05
-9.20651e-05
1.14578e-05
-9.35066e-05
1.1354e-05
-9.47006e-05
1.0341e-05
-9.52539e-05
8.12954e-06
-9.47473e-05
6.43061e-06
-9.4523e-05
8.63555e-06
-9.25441e-05
1.23225e-05
-8.98497e-05
1.67965e-05
-8.97169e-05
2.14099e-05
-9.14759e-05
2.62117e-05
-9.5227e-05
3.11623e-05
-0.000100328
3.5301e-05
-0.000105656
3.83792e-05
-0.000111284
4.04879e-05
-0.00011713
3.98509e-05
-0.000120468
-0.000116482
2.90518e-05
2.01541e-05
-0.000113019
7.55344e-06
-7.44446e-05
6.7461e-06
-8.80376e-05
8.47405e-06
-9.06399e-05
1.0018e-05
-9.11216e-05
1.12597e-05
-9.19308e-05
1.1983e-05
-9.27879e-05
1.18548e-05
-9.33778e-05
1.05067e-05
-9.33518e-05
7.78166e-06
-9.25279e-05
4.7417e-06
-9.17061e-05
3.77476e-06
-9.35549e-05
5.22231e-06
-9.39914e-05
1.04692e-05
-9.50964e-05
1.61765e-05
-9.5424e-05
2.06282e-05
-9.59273e-05
2.17474e-05
-9.63457e-05
1.94566e-05
-9.80362e-05
1.60253e-05
-0.000102224
1.19339e-05
-0.000107193
5.37057e-06
-0.000110567
-6.30298e-06
-0.000108794
-9.72617e-05
-2.55241e-05
-2.96039e-06
-0.000110058
3.44961e-06
-8.08551e-05
3.39609e-06
-8.79844e-05
2.75775e-06
-9.00019e-05
1.98715e-06
-9.03514e-05
9.54498e-07
-9.08987e-05
-3.19608e-07
-9.15145e-05
-1.89723e-06
-9.18011e-05
-3.84567e-06
-9.14047e-05
-6.08743e-06
-9.02879e-05
-8.21674e-06
-8.9579e-05
-1.03507e-05
-9.14226e-05
-1.08441e-05
-9.34988e-05
-1.05204e-05
-9.54206e-05
-9.73814e-06
-9.62068e-05
-8.98255e-06
-9.66834e-05
-8.73389e-06
-9.65952e-05
-9.66273e-06
-9.7108e-05
-1.3173e-05
-9.87147e-05
-1.95233e-05
-0.000100843
-2.99506e-05
-0.00010014
-4.56359e-05
-9.31091e-05
-7.61756e-05
-6.67227e-05
-7.42704e-06
-0.000102631
-1.08494e-06
-8.71973e-05
-6.82829e-07
-8.83868e-05
-2.37704e-06
-8.83081e-05
-4.35587e-06
-8.8373e-05
-6.56334e-06
-8.86918e-05
-8.98882e-06
-8.90897e-05
-1.15045e-05
-8.92863e-05
-1.38378e-05
-8.90724e-05
-1.56245e-05
-8.85026e-05
-1.70102e-05
-8.81947e-05
-1.91757e-05
-8.92586e-05
-2.12792e-05
-9.13958e-05
-2.39848e-05
-9.27156e-05
-2.6633e-05
-9.35592e-05
-2.92459e-05
-9.40711e-05
-3.17193e-05
-9.41224e-05
-3.50672e-05
-9.37609e-05
-4.00788e-05
-9.37031e-05
-4.84156e-05
-9.25056e-05
-6.07928e-05
-8.77626e-05
-7.7031e-05
-7.68707e-05
-5.74225e-05
-9.57843e-05
-5.23831e-06
-9.73923e-05
-3.37162e-06
-8.90636e-05
-4.40727e-06
-8.73509e-05
-6.34814e-06
-8.63671e-05
-8.69131e-06
-8.60298e-05
-1.12936e-05
-8.60894e-05
-1.40945e-05
-8.62888e-05
-1.69724e-05
-8.64085e-05
-1.97177e-05
-8.63272e-05
-2.21036e-05
-8.61168e-05
-2.41861e-05
-8.61124e-05
-2.66724e-05
-8.67724e-05
-3.01842e-05
-8.78842e-05
-3.41566e-05
-8.87433e-05
-3.84489e-05
-8.92669e-05
-4.3065e-05
-8.94551e-05
-4.80204e-05
-8.91671e-05
-5.35541e-05
-8.82272e-05
-6.087e-05
-8.63871e-05
-7.07519e-05
-8.26237e-05
-8.32957e-05
-7.52187e-05
-9.77543e-05
-6.24122e-05
-4.29645e-05
-0.000112212
-4.17826e-06
-9.32139e-05
-5.09342e-06
-8.81483e-05
-6.91453e-06
-8.55296e-05
-9.14362e-06
-8.41378e-05
-1.16271e-05
-8.35462e-05
-1.43295e-05
-8.33868e-05
-1.72185e-05
-8.33998e-05
-2.02238e-05
-8.34031e-05
-2.32407e-05
-8.33103e-05
-2.61962e-05
-8.31614e-05
-2.91833e-05
-8.31253e-05
-3.2572e-05
-8.33838e-05
-3.66283e-05
-8.38279e-05
-4.1266e-05
-8.41057e-05
-4.64304e-05
-8.41025e-05
-5.2165e-05
-8.37206e-05
-5.85653e-05
-8.27668e-05
-6.58598e-05
-8.09328e-05
-7.44908e-05
-7.77561e-05
-8.47454e-05
-7.2369e-05
-9.63462e-05
-6.36178e-05
-0.000108296
-5.04627e-05
-3.24064e-05
-0.000118854
-4.03627e-06
-8.91775e-05
-6.28334e-06
-8.59011e-05
-8.55066e-06
-8.32622e-05
-1.09364e-05
-8.1752e-05
-1.34822e-05
-8.10003e-05
-1.62088e-05
-8.06601e-05
-1.91154e-05
-8.04931e-05
-2.21743e-05
-8.03441e-05
-2.53466e-05
-8.01379e-05
-2.86246e-05
-7.98834e-05
-3.20965e-05
-7.96534e-05
-3.59699e-05
-7.95104e-05
-4.04173e-05
-7.93804e-05
-4.54476e-05
-7.90754e-05
-5.10811e-05
-7.84691e-05
-5.73778e-05
-7.7424e-05
-6.44232e-05
-7.57214e-05
-7.2328e-05
-7.3028e-05
-8.12085e-05
-6.88755e-05
-9.09773e-05
-6.26002e-05
-0.000101132
-5.34635e-05
-0.000110693
-4.09011e-05
-2.48166e-05
-0.000118283
-4.01699e-06
-8.51606e-05
-6.85906e-06
-8.30591e-05
-9.39214e-06
-8.07291e-05
-1.1882e-05
-7.92621e-05
-1.44562e-05
-7.8426e-05
-1.71745e-05
-7.79419e-05
-2.00614e-05
-7.76061e-05
-2.31198e-05
-7.72857e-05
-2.6347e-05
-7.69107e-05
-2.97635e-05
-7.64669e-05
-3.34437e-05
-7.59732e-05
-3.7517e-05
-7.54371e-05
-4.20985e-05
-7.4799e-05
-4.72349e-05
-7.39391e-05
-5.29665e-05
-7.27375e-05
-5.93431e-05
-7.10475e-05
-6.64065e-05
-6.8658e-05
-7.41649e-05
-6.52696e-05
-8.25493e-05
-6.04912e-05
-9.12963e-05
-5.38532e-05
-9.98561e-05
-4.49037e-05
-0.00010739
-3.33676e-05
-1.93226e-05
-0.000112884
-3.89695e-06
-8.12639e-05
-6.96194e-06
-7.99943e-05
-9.64356e-06
-7.80477e-05
-1.22016e-05
-7.67041e-05
-1.47864e-05
-7.58413e-05
-1.74789e-05
-7.52493e-05
-2.03222e-05
-7.47629e-05
-2.3338e-05
-7.42699e-05
-2.65435e-05
-7.37053e-05
-2.99691e-05
-7.30413e-05
-3.36739e-05
-7.22685e-05
-3.77425e-05
-7.13686e-05
-4.22542e-05
-7.02873e-05
-4.72582e-05
-6.89351e-05
-5.27919e-05
-6.72039e-05
-5.8882e-05
-6.49574e-05
-6.55278e-05
-6.20123e-05
-7.26705e-05
-5.81269e-05
-8.01535e-05
-5.30082e-05
-8.76638e-05
-4.63429e-05
-9.46994e-05
-3.78682e-05
-0.000100595
-2.74722e-05
-1.52966e-05
-0.000104621
-3.69821e-06
-7.7566e-05
-6.78856e-06
-7.69042e-05
-9.51837e-06
-7.53181e-05
-1.21006e-05
-7.4122e-05
-1.46747e-05
-7.32674e-05
-1.73257e-05
-7.25984e-05
-2.0105e-05
-7.19836e-05
-2.30452e-05
-7.13298e-05
-2.61721e-05
-7.05784e-05
-2.95177e-05
-6.96958e-05
-3.3127e-05
-6.86593e-05
-3.70564e-05
-6.74393e-05
-4.13586e-05
-6.59852e-05
-4.60709e-05
-6.42229e-05
-5.12161e-05
-6.20588e-05
-5.67976e-05
-5.93759e-05
-6.27837e-05
-5.60263e-05
-6.90824e-05
-5.18283e-05
-7.55128e-05
-4.65779e-05
-8.17786e-05
-4.00771e-05
-8.74618e-05
-3.2185e-05
-9.20568e-05
-2.28774e-05
-1.23022e-05
-9.50513e-05
-3.45631e-06
-7.41103e-05
-6.46831e-06
-7.38927e-05
-9.17354e-06
-7.26131e-05
-1.17344e-05
-7.15614e-05
-1.42698e-05
-7.07321e-05
-1.68588e-05
-7.00095e-05
-1.95536e-05
-6.9289e-05
-2.239e-05
-6.84935e-05
-2.53967e-05
-6.75718e-05
-2.86027e-05
-6.64899e-05
-3.20415e-05
-6.52205e-05
-3.57498e-05
-6.37311e-05
-3.976e-05
-6.19751e-05
-4.40934e-05
-5.98896e-05
-4.87563e-05
-5.7396e-05
-5.37332e-05
-5.43991e-05
-5.8974e-05
-5.07855e-05
-6.43768e-05
-4.64256e-05
-6.97698e-05
-4.1185e-05
-7.48996e-05
-3.49473e-05
-7.94381e-05
-2.76465e-05
-8.30121e-05
-1.93033e-05
-1.00556e-05
-8.52589e-05
-3.20476e-06
-7.0906e-05
-6.0808e-06
-7.10171e-05
-8.70567e-06
-6.99886e-05
-1.12032e-05
-6.90641e-05
-1.36697e-05
-6.82658e-05
-1.61734e-05
-6.7506e-05
-1.87623e-05
-6.67002e-05
-2.14711e-05
-6.57848e-05
-2.43271e-05
-6.47159e-05
-2.7355e-05
-6.34622e-05
-3.05787e-05
-6.19969e-05
-3.4021e-05
-6.02889e-05
-3.7699e-05
-5.82972e-05
-4.16195e-05
-5.59691e-05
-4.5775e-05
-5.32406e-05
-5.01372e-05
-5.00371e-05
-5.46479e-05
-4.62749e-05
-5.9208e-05
-4.18655e-05
-6.36679e-05
-3.67252e-05
-6.78239e-05
-3.07913e-05
-7.14266e-05
-2.40438e-05
-7.42051e-05
-1.6525e-05
-8.35301e-06
-7.59078e-05
-2.94964e-06
-6.7957e-05
-5.6583e-06
-6.83089e-05
-8.16649e-06
-6.74807e-05
-1.05669e-05
-6.66639e-05
-1.29363e-05
-6.58967e-05
-1.53314e-05
-6.5111e-05
-1.77939e-05
-6.42379e-05
-2.03546e-05
-6.32242e-05
-2.30379e-05
-6.20327e-05
-2.58634e-05
-6.06368e-05
-2.88477e-05
-5.90127e-05
-3.20034e-05
-5.71333e-05
-3.53366e-05
-5.49641e-05
-3.88435e-05
-5.24623e-05
-4.25071e-05
-4.95771e-05
-4.62919e-05
-4.62524e-05
-5.01386e-05
-4.24283e-05
-5.39575e-05
-3.80468e-05
-5.76238e-05
-3.3059e-05
-6.0978e-05
-2.74371e-05
-6.3835e-05
-2.11869e-05
-6.60009e-05
-1.43591e-05
-7.05563e-06
-6.72986e-05
-2.69905e-06
-6.52583e-05
-5.22124e-06
-6.57871e-05
-7.58521e-06
-6.51171e-05
-9.86124e-06
-6.43881e-05
-1.2109e-05
-6.36491e-05
-1.43742e-05
-6.2846e-05
-1.66915e-05
-6.19207e-05
-1.90874e-05
-6.08284e-05
-2.1582e-05
-5.95382e-05
-2.41906e-05
-5.80283e-05
-2.69239e-05
-5.62795e-05
-2.97874e-05
-5.42699e-05
-3.27798e-05
-5.19718e-05
-3.58905e-05
-4.93517e-05
-3.90969e-05
-4.63708e-05
-4.23614e-05
-4.2988e-05
-4.56274e-05
-3.91623e-05
-4.88168e-05
-3.48574e-05
-5.18279e-05
-3.0048e-05
-5.4538e-05
-2.47271e-05
-5.68102e-05
-1.89147e-05
-5.85063e-05
-1.26633e-05
-6.05761e-06
-5.95044e-05
-2.45046e-06
-6.28084e-05
-4.77525e-06
-6.34627e-05
-6.97713e-06
-6.29155e-05
-9.10793e-06
-6.22575e-05
-1.12136e-05
-6.15436e-05
-1.33304e-05
-6.07293e-05
-1.54866e-05
-5.97646e-05
-1.7704e-05
-5.86112e-05
-1.99988e-05
-5.72434e-05
-2.23825e-05
-5.56447e-05
-2.48613e-05
-5.38008e-05
-2.74359e-05
-5.16953e-05
-3.01003e-05
-4.93075e-05
-3.28402e-05
-4.66119e-05
-3.56308e-05
-4.35803e-05
-3.84352e-05
-4.01836e-05
-4.12023e-05
-3.63953e-05
-4.38654e-05
-3.21944e-05
-4.63427e-05
-2.75707e-05
-4.85396e-05
-2.25302e-05
-5.03554e-05
-1.7099e-05
-5.16913e-05
-1.13272e-05
-5.28747e-06
-5.24617e-05
-2.20455e-06
-6.06041e-05
-4.32529e-06
-6.13422e-05
-6.35151e-06
-6.08895e-05
-8.3209e-06
-6.02883e-05
-1.02679e-05
-5.95967e-05
-1.22209e-05
-5.87764e-05
-1.42026e-05
-5.7783e-05
-1.62308e-05
-5.6583e-05
-1.83184e-05
-5.51559e-05
-2.04735e-05
-5.34896e-05
-2.26991e-05
-5.15752e-05
-2.49929e-05
-4.94016e-05
-2.73461e-05
-4.69542e-05
-2.97429e-05
-4.42151e-05
-3.21586e-05
-4.11645e-05
-3.45591e-05
-3.77832e-05
-3.68993e-05
-3.40551e-05
-3.91233e-05
-2.99704e-05
-4.11654e-05
-2.55287e-05
-4.29527e-05
-2.07428e-05
-4.44102e-05
-1.56415e-05
-4.54671e-05
-1.02705e-05
-4.68977e-06
-4.60648e-05
-1.95674e-06
-5.86478e-05
-3.87114e-06
-5.94281e-05
-5.71349e-06
-5.90473e-05
-7.50933e-06
-5.84926e-05
-9.28418e-06
-5.78219e-05
-1.10604e-05
-5.70002e-05
-1.28567e-05
-5.59867e-05
-1.46877e-05
-5.47521e-05
-1.65634e-05
-5.32802e-05
-1.84893e-05
-5.15637e-05
-2.0466e-05
-4.95984e-05
-2.24893e-05
-4.73783e-05
-2.45493e-05
-4.48942e-05
-2.663e-05
-4.21344e-05
-2.87084e-05
-3.90861e-05
-3.07539e-05
-3.57377e-05
-3.27277e-05
-3.20812e-05
-3.45835e-05
-2.81145e-05
-3.62684e-05
-2.38438e-05
-3.77254e-05
-1.92857e-05
-3.88983e-05
-1.44687e-05
-3.97357e-05
-9.43287e-06
-4.2285e-06
-4.01971e-05
-1.70282e-06
-5.69449e-05
-3.41335e-06
-5.77176e-05
-5.06664e-06
-5.73941e-05
-6.67926e-06
-5.688e-05
-8.27055e-06
-5.62306e-05
-9.85928e-06
-5.54115e-05
-1.14615e-05
-5.43845e-05
-1.30894e-05
-5.31242e-05
-1.47506e-05
-5.16188e-05
-1.64486e-05
-4.98657e-05
-1.81823e-05
-4.78647e-05
-1.99462e-05
-4.56144e-05
-2.17303e-05
-4.31101e-05
-2.35196e-05
-4.03451e-05
-2.52935e-05
-3.73122e-05
-2.70254e-05
-3.40058e-05
-2.86827e-05
-3.04239e-05
-3.0227e-05
-2.65701e-05
-3.16157e-05
-2.24551e-05
-3.28036e-05
-1.80977e-05
-3.37469e-05
-1.35253e-05
-3.44077e-05
-8.77229e-06
-3.87657e-06
-3.47595e-05
-1.43333e-06
-5.55118e-05
-2.9515e-06
-5.61995e-05
-4.41409e-06
-5.59315e-05
-5.83463e-06
-5.54594e-05
-7.23174e-06
-5.48335e-05
-8.62351e-06
-5.40197e-05
-1.00247e-05
-5.29832e-05
-1.14456e-05
-5.17032e-05
-1.28917e-05
-5.01727e-05
-1.43644e-05
-4.8393e-05
-1.58613e-05
-4.63677e-05
-1.73765e-05
-4.4099e-05
-1.89006e-05
-4.15859e-05
-2.04202e-05
-3.88255e-05
-2.19174e-05
-3.58149e-05
-2.337e-05
-3.25531e-05
-2.47513e-05
-2.90426e-05
-2.60298e-05
-2.52915e-05
-2.7171e-05
-2.13139e-05
-2.81379e-05
-1.71308e-05
-2.88947e-05
-1.27685e-05
-2.94112e-05
-8.25543e-06
-3.61725e-06
-2.96706e-05
-1.14043e-06
-5.43712e-05
-2.49249e-06
-5.48474e-05
-3.76195e-06
-5.4662e-05
-4.97854e-06
-5.42428e-05
-6.16972e-06
-5.36422e-05
-7.3559e-06
-5.28334e-05
-8.5509e-06
-5.17881e-05
-9.76261e-06
-5.04914e-05
-1.09941e-05
-4.89411e-05
-1.22446e-05
-4.71423e-05
-1.3511e-05
-4.51013e-05
-1.47872e-05
-4.28227e-05
-1.60648e-05
-4.03081e-05
-1.73325e-05
-3.75576e-05
-1.85759e-05
-3.45715e-05
-1.9777e-05
-3.13518e-05
-2.09147e-05
-2.79048e-05
-2.19643e-05