/*--------------------------------*- C++ -*----------------------------------*\
  =========                 |
  \\      /  F ield         | OpenFOAM: The Open Source CFD Toolbox
   \\    /   O peration     | Website:  https://openfoam.org
    \\  /    A nd           | Version:  13
     \\/     M anipulation  |
\*---------------------------------------------------------------------------*/
FoamFile
{
    format      ascii;
    class       volVectorField;
    location    "0.1";
    object      U;
}
// * * * * * * * * * * * * * * * * * * * * * * * * * * * * * * * * * * * * * //

dimensions      [0 1 -1 0 0 0 0];

internalField   nonuniform List<vector> 
2268
(
(-0.000368201 -0.000729491 0)
(0.00999457 -0.0052228 0)
(0.0325115 -0.00841203 0)
(0.0606326 -0.0100786 0)
(0.0931636 -0.0112552 0)
(0.130025 -0.0126174 0)
(0.172632 -0.0147088 0)
(0.223933 -0.0180976 0)
(0.288435 -0.0233829 0)
(0.371456 -0.0310207 0)
(0.478257 -0.0404793 0)
(0.608902 -0.0494246 0)
(0.756023 -0.0530429 0)
(0.898837 -0.0458002 0)
(1.0079 -0.0299685 0)
(1.06635 -0.0197477 0)
(1.08857 -0.0259945 0)
(1.1046 -0.0355601 0)
(1.05433 -0.0158808 0)
(0.770205 0.05541 0)
(0.501812 0.0773671 0)
(0.247232 0.0731092 0)
(0.0535669 0.040259 0)
(0.0052405 -0.0038602 0)
(0.0198749 -0.0123207 0)
(0.0425576 -0.0182645 0)
(0.0698173 -0.022056 0)
(0.101402 -0.0251879 0)
(0.137742 -0.0288308 0)
(0.180299 -0.0340514 0)
(0.231607 -0.0418913 0)
(0.295089 -0.0531905 0)
(0.37429 -0.0680869 0)
(0.471843 -0.0850616 0)
(0.587435 -0.100128 0)
(0.715671 -0.105566 0)
(0.839867 -0.0913196 0)
(0.935967 -0.0589837 0)
(0.994309 -0.0272004 0)
(1.02684 -0.00485523 0)
(1.02889 0.0480782 0)
(0.839838 0.156138 0)
(0.654209 0.173471 0)
(0.464307 0.174843 0)
(0.258198 0.16055 0)
(0.0817503 0.10358 0)
(0.0103064 -0.011069 0)
(0.0276689 -0.021659 0)
(0.0505373 -0.0295257 0)
(0.0769878 -0.0352499 0)
(0.107451 -0.0404644 0)
(0.142718 -0.0466668 0)
(0.184224 -0.0552951 0)
(0.234062 -0.067705 0)
(0.294769 -0.0848654 0)
(0.36872 -0.106703 0)
(0.457266 -0.131008 0)
(0.559775 -0.152317 0)
(0.67197 -0.160054 0)
(0.778824 -0.140594 0)
(0.860374 -0.0968108 0)
(0.917203 -0.0525468 0)
(0.955677 -0.0112164 0)
(0.856152 0.103248 0)
(0.712672 0.198522 0)
(0.590651 0.241069 0)
(0.445899 0.256503 0)
(0.272476 0.248427 0)
(0.108029 0.184558 0)
(0.0138755 -0.0210264 0)
(0.0336361 -0.0320381 0)
(0.0569726 -0.0410652 0)
(0.0828866 -0.0483925 0)
(0.112318 -0.0555853 0)
(0.146311 -0.0643069 0)
(0.18623 -0.076215 0)
(0.233773 -0.0928396 0)
(0.290792 -0.115166 0)
(0.358857 -0.142863 0)
(0.438586 -0.173109 0)
(0.529262 -0.199203 0)
(0.627413 -0.20804 0)
(0.717677 -0.183354 0)
(0.786098 -0.129113 0)
(0.842203 -0.0688729 0)
(0.849347 0.0381169 0)
(0.73064 0.146389 0)
(0.64121 0.243907 0)
(0.55561 0.297191 0)
(0.441782 0.325384 0)
(0.293006 0.32972 0)
(0.134309 0.276814 0)
(0.0159396 -0.0326583 0)
(0.0378792 -0.0431754 0)
(0.0618973 -0.0527378 0)
(0.0875263 -0.0613172 0)
(0.116056 -0.0703002 0)
(0.148688 -0.0813842 0)
(0.186691 -0.0963251 0)
(0.231417 -0.116715 0)
(0.28418 -0.143474 0)
(0.345958 -0.17602 0)
(0.416886 -0.211031 0)
(0.496363 -0.240811 0)
(0.581282 -0.249996 0)
(0.655404 -0.220152 0)
(0.714426 -0.15731 0)
(0.764126 -0.0722793 0)
(0.721317 0.0618547 0)
(0.651077 0.180233 0)
(0.597749 0.277437 0)
(0.538742 0.338518 0)
(0.451531 0.381822 0)
(0.324676 0.405366 0)
(0.165961 0.380911 0)
(0.0169662 -0.0452689 0)
(0.0406979 -0.0548904 0)
(0.0654577 -0.0644984 0)
(0.0909789 -0.0739632 0)
(0.118743 -0.0844654 0)
(0.150022 -0.0976411 0)
(0.185968 -0.115241 0)
(0.227631 -0.138822 0)
(0.275877 -0.169204 0)
(0.331197 -0.205556 0)
(0.393365 -0.244201 0)
(0.462004 -0.276651 0)
(0.533884 -0.28573 0)
(0.593942 -0.250698 0)
(0.64515 -0.179974 0)
(0.681427 -0.0524077 0)
(0.635814 0.0802617 0)
(0.598233 0.202114 0)
(0.570745 0.297451 0)
(0.536516 0.366958 0)
(0.475872 0.426785 0)
(0.374116 0.477109 0)
(0.21039 0.504352 0)
(0.0174158 -0.0584051 0)
(0.042472 -0.0670758 0)
(0.0679035 -0.0763848 0)
(0.0934216 -0.086401 0)
(0.120553 -0.0981257 0)
(0.150562 -0.113075 0)
(0.184469 -0.132912 0)
(0.223042 -0.159106 0)
(0.266767 -0.192303 0)
(0.315695 -0.231496 0)
(0.369297 -0.272737 0)
(0.427402 -0.306973 0)
(0.486043 -0.315732 0)
(0.535606 -0.276452 0)
(0.57948 -0.19647 0)
(0.603485 -0.0500126 0)
(0.575303 0.0909496 0)
(0.561171 0.211442 0)
(0.555639 0.306222 0)
(0.546245 0.382896 0)
(0.515819 0.458825 0)
(0.449773 0.544662 0)
(0.278553 0.666389 0)
(0.0175812 -0.0732088 0)
(0.0435182 -0.0802571 0)
(0.0695152 -0.0888019 0)
(0.0950987 -0.0990001 0)
(0.121739 -0.111637 0)
(0.150629 -0.128046 0)
(0.182639 -0.149746 0)
(0.2183 -0.178029 0)
(0.257718 -0.213385 0)
(0.300536 -0.254568 0)
(0.345982 -0.297431 0)
(0.393988 -0.332494 0)
(0.439935 -0.341217 0)
(0.480915 -0.299134 0)
(0.520295 -0.206234 0)
(0.542104 -0.0493166 0)
(0.529739 0.0936998 0)
(0.534309 0.210865 0)
(0.548947 0.303947 0)
(0.565148 0.384289 0)
(0.572087 0.471289 0)
(0.560707 0.591832 0)
(0.410669 0.888959 0)
(-0.362822 0.125408 0)
(-0.636378 0.0534374 0)
(-0.686652 -0.0263756 0)
(-0.475999 -0.111879 0)
(-0.0678589 -0.127459 0)
(0.270253 -0.0801514 0)
(0.472227 -0.0349101 0)
(0.551985 -0.00893399 0)
(0.553492 0.00397305 0)
(0.51693 0.0103194 0)
(0.464091 0.0133995 0)
(0.404722 0.0148195 0)
(0.343121 0.0154524 0)
(0.28104 0.015771 0)
(0.219068 0.0159877 0)
(0.15765 0.0160264 0)
(0.0982758 0.0152864 0)
(0.0447581 0.0121141 0)
(0.0095084 0.00599236 0)
(-0.358157 0.29461 0)
(-0.58046 0.135941 0)
(-0.549512 -0.0527286 0)
(-0.32013 -0.218692 0)
(0.0428492 -0.260993 0)
(0.344829 -0.186501 0)
(0.533664 -0.0846819 0)
(0.599601 -0.0187876 0)
(0.589393 0.0148321 0)
(0.543261 0.0304776 0)
(0.483241 0.0372386 0)
(0.418788 0.0397712 0)
(0.353718 0.0404673 0)
(0.289387 0.0404924 0)
(0.226231 0.0402337 0)
(0.164767 0.0393897 0)
(0.10642 0.0367467 0)
(0.0541297 0.0297825 0)
(0.0155184 0.0172335 0)
(-0.362639 0.470051 0)
(-0.511473 0.16871 0)
(-0.358749 -0.118756 0)
(-0.126185 -0.344389 0)
(0.168862 -0.384372 0)
(0.429167 -0.290319 0)
(0.595088 -0.130504 0)
(0.638925 -0.0243376 0)
(0.612963 0.0300576 0)
(0.556825 0.0546156 0)
(0.490701 0.0644361 0)
(0.422753 0.0674951 0)
(0.355957 0.0677813 0)
(0.291145 0.067113 0)
(0.228521 0.0659857 0)
(0.168519 0.0638858 0)
(0.112232 0.0591934 0)
(0.0616166 0.0491717 0)
(0.0211026 0.0325496 0)
(-0.370165 0.624792 0)
(-0.38099 0.160574 0)
(-0.0254629 -0.199763 0)
(0.152866 -0.452096 0)
(0.346117 -0.489555 0)
(0.53918 -0.383769 0)
(0.67336 -0.165328 0)
(0.683315 -0.0207673 0)
(0.635686 0.0511588 0)
(0.567887 0.0823917 0)
(0.495643 0.0938502 0)
(0.424632 0.0965171 0)
(0.356621 0.0958056 0)
(0.291804 0.0940202 0)
(0.230077 0.0916925 0)
(0.171658 0.0881148 0)
(0.117174 0.0814753 0)
(0.0675971 0.0692474 0)
(0.0253288 0.0509165 0)
(-0.362463 0.67321 0)
(-0.00495781 0.110994 0)
(0.646869 -0.35923 0)
(0.546341 -0.514631 0)
(0.601895 -0.561896 0)
(0.685324 -0.44674 0)
(0.769912 -0.179293 0)
(0.73362 -0.00339658 0)
(0.657962 0.0799999 0)
(0.577259 0.114164 0)
(0.499037 0.125291 0)
(0.425369 0.126501 0)
(0.356523 0.124152 0)
(0.291981 0.120827 0)
(0.23128 0.116997 0)
(0.174335 0.111801 0)
(0.121262 0.103392 0)
(0.0721697 0.0896835 0)
(0.0281805 0.0709177 0)
(-0.215503 1.47802 0)
(0.843536 -0.384373 0)
(1.08437 -0.435841 0)
(1.07803 -0.453797 0)
(1.02217 -0.490335 0)
(0.86703 -0.447042 0)
(0.872551 -0.159602 0)
(0.783656 0.0307738 0)
(0.677609 0.117584 0)
(0.584175 0.149896 0)
(0.500709 0.158417 0)
(0.424992 0.15709 0)
(0.355725 0.152523 0)
(0.291698 0.147298 0)
(0.232085 0.141752 0)
(0.17646 0.134899 0)
(0.124463 0.124972 0)
(0.0755129 0.110415 0)
(0.0299761 0.0921328 0)
(1.13617 0.161004 0)
(1.11247 -0.368153 0)
(1.11599 -0.416996 0)
(1.11112 -0.449919 0)
(1.10657 -0.47577 0)
(1.04129 -0.44943 0)
(0.948708 -0.11122 0)
(0.819831 0.0799441 0)
(0.691038 0.163072 0)
(0.587383 0.189137 0)
(0.500215 0.192894 0)
(0.423323 0.188057 0)
(0.354123 0.180782 0)
(0.290857 0.173379 0)
(0.232377 0.165984 0)
(0.177936 0.157511 0)
(0.126772 0.14633 0)
(0.0778233 0.131422 0)
(0.0310434 0.114168 0)
(1.18422 -0.282486 0)
(1.16602 -0.360133 0)
(1.15833 -0.412503 0)
(1.1518 -0.44354 0)
(1.15137 -0.464728 0)
(1.1422 -0.463296 0)
(0.984446 -0.0427508 0)
(0.834116 0.13974 0)
(0.696296 0.213487 0)
(0.58623 0.230657 0)
(0.497334 0.2282 0)
(0.420302 0.21917 0)
(0.351702 0.208843 0)
(0.289446 0.199077 0)
(0.232142 0.189769 0)
(0.17877 0.179759 0)
(0.128279 0.167585 0)
(0.0793255 0.152672 0)
(0.0316763 0.136459 0)
(0.017792 -0.0940819 0)
(0.0444579 -0.100528 0)
(0.0711113 -0.107991 0)
(0.0968577 -0.118175 0)
(0.122986 -0.13181 0)
(0.150518 -0.14996 0)
(0.180129 -0.173831 0)
(0.211999 -0.20443 0)
(0.245798 -0.24184 0)
(0.280764 -0.284468 0)
(0.316013 -0.327728 0)
(0.351269 -0.362188 0)
(0.381112 -0.370612 0)
(0.410463 -0.327319 0)
(0.447119 -0.215009 0)
(0.469493 -0.0534231 0)
(0.475136 0.0853011 0)
(0.503601 0.195052 0)
(0.546718 0.281357 0)
(0.602936 0.356995 0)
(0.681224 0.439089 0)
(0.820006 0.552863 0)
(1.08512 0.780939 0)
(0.0182936 -0.127152 0)
(0.0452017 -0.130902 0)
(0.0725806 -0.13605 0)
(0.0985308 -0.145488 0)
(0.124387 -0.159605 0)
(0.15097 -0.178975 0)
(0.178665 -0.204249 0)
(0.207413 -0.235767 0)
(0.236385 -0.272818 0)
(0.264424 -0.313281 0)
(0.290308 -0.352812 0)
(0.31354 -0.384077 0)
(0.328804 -0.394347 0)
(0.344049 -0.355722 0)
(0.373669 -0.234141 0)
(0.396575 -0.0783185 0)
(0.42772 0.0486641 0)
(0.47913 0.144897 0)
(0.545729 0.216338 0)
(0.628786 0.271592 0)
(0.735804 0.316971 0)
(0.881772 0.34799 0)
(1.10386 0.318693 0)
(0.0214235 -0.152934 0)
(0.0461564 -0.155263 0)
(0.0745281 -0.159287 0)
(0.101104 -0.168207 0)
(0.127604 -0.182211 0)
(0.15457 -0.201614 0)
(0.182196 -0.226651 0)
(0.210097 -0.257222 0)
(0.237771 -0.292735 0)
(0.265615 -0.332248 0)
(0.291563 -0.370957 0)
(0.313074 -0.401441 0)
(0.315163 -0.414941 0)
(0.3178 -0.3689 0)
(0.335349 -0.246283 0)
(0.356769 -0.112509 0)
(0.401135 -0.0032109 0)
(0.464694 0.0774244 0)
(0.543655 0.132526 0)
(0.638869 0.167111 0)
(0.754239 0.182558 0)
(0.896346 0.172649 0)
(1.08168 0.121731 0)
(0.0312439 -0.170339 0)
(0.0502351 -0.176071 0)
(0.0799328 -0.180932 0)
(0.108489 -0.190492 0)
(0.138115 -0.205319 0)
(0.169083 -0.225899 0)
(0.20114 -0.252258 0)
(0.234384 -0.284258 0)
(0.265966 -0.322935 0)
(0.291708 -0.365207 0)
(0.311515 -0.401182 0)
(0.326318 -0.421561 0)
(0.328553 -0.421878 0)
(0.327771 -0.366286 0)
(0.328149 -0.257557 0)
(0.346138 -0.148785 0)
(0.391327 -0.0604192 0)
(0.457027 0.00276397 0)
(0.539229 0.0420215 0)
(0.636902 0.0595194 0)
(0.750201 0.05574 0)
(0.878835 0.0277684 0)
(1.02183 -0.0280544 0)
(0.0312841 -0.251712 0)
(0.0446866 -0.222387 0)
(0.0810749 -0.221731 0)
(0.113908 -0.231034 0)
(0.146946 -0.247689 0)
(0.179625 -0.271345 0)
(0.211255 -0.301046 0)
(0.241392 -0.333778 0)
(0.269897 -0.366106 0)
(0.294645 -0.395067 0)
(0.31371 -0.417679 0)
(0.326104 -0.427772 0)
(0.328715 -0.417125 0)
(0.329808 -0.359054 0)
(0.327631 -0.26791 0)
(0.345513 -0.181703 0)
(0.387916 -0.115217 0)
(0.45038 -0.0711607 0)
(0.5293 -0.0485547 0)
(0.622263 -0.0456623 0)
(0.726907 -0.0615547 0)
(0.839824 -0.0955265 0)
(0.95662 -0.145573 0)
(0.00917984 -0.256108 0)
(0.0386412 -0.254118 0)
(0.075183 -0.260307 0)
(0.110326 -0.269998 0)
(0.144811 -0.284153 0)
(0.177953 -0.303126 0)
(0.208984 -0.326521 0)
(0.237291 -0.353316 0)
(0.262372 -0.381554 0)
(0.283674 -0.408349 0)
(0.300533 -0.428493 0)
(0.311623 -0.435056 0)
(0.314932 -0.417809 0)
(0.318303 -0.357426 0)
(0.321515 -0.277932 0)
(0.341331 -0.212358 0)
(0.381483 -0.166165 0)
(0.43926 -0.139461 0)
(0.511708 -0.13117 0)
(0.596075 -0.139788 0)
(0.689209 -0.163658 0)
(0.78708 -0.200394 0)
(0.88553 -0.245452 0)
(0.0144072 -0.278497 0)
(0.0421198 -0.282635 0)
(0.0745116 -0.288858 0)
(0.106852 -0.29842 0)
(0.138676 -0.312109 0)
(0.169131 -0.330147 0)
(0.197481 -0.352145 0)
(0.223102 -0.376978 0)
(0.245596 -0.402678 0)
(0.264667 -0.425969 0)
(0.279993 -0.442071 0)
(0.290611 -0.443905 0)
(0.29521 -0.421685 0)
(0.301186 -0.360459 0)
(0.308819 -0.291654 0)
(0.330392 -0.242824 0)
(0.368363 -0.213517 0)
(0.420839 -0.201721 0)
(0.485546 -0.205724 0)
(0.560009 -0.223724 0)
(0.641238 -0.253395 0)
(0.725626 -0.291171 0)
(0.80975 -0.331263 0)
(0.0155834 -0.306576 0)
(0.0420309 -0.313769 0)
(0.0712011 -0.320078 0)
(0.100196 -0.329119 0)
(0.128554 -0.34173 0)
(0.155622 -0.35811 0)
(0.18083 -0.377918 0)
(0.203711 -0.400125 0)
(0.22392 -0.422764 0)
(0.241247 -0.442709 0)
(0.255552 -0.455158 0)
(0.266077 -0.453161 0)
(0.27194 -0.427374 0)
(0.279974 -0.366741 0)
(0.290504 -0.308184 0)
(0.31285 -0.272847 0)
(0.348291 -0.256966 0)
(0.395229 -0.257203 0)
(0.451943 -0.271182 0)
(0.51645 -0.296662 0)
(0.586256 -0.330741 0)
(0.658453 -0.369051 0)
(0.730281 -0.405127 0)
(0.0146044 -0.333168 0)
(0.0388961 -0.341848 0)
(0.0649679 -0.348163 0)
(0.0906707 -0.356638 0)
(0.115643 -0.368173 0)
(0.139415 -0.382987 0)
(0.161586 -0.4008 0)
(0.181823 -0.420674 0)
(0.199885 -0.440764 0)
(0.215642 -0.457991 0)
(0.229071 -0.467623 0)
(0.239444 -0.462783 0)
(0.246211 -0.434324 0)
(0.2555 -0.375111 0)
(0.267622 -0.326089 0)
(0.289793 -0.301621 0)
(0.322308 -0.296227 0)
(0.363696 -0.305856 0)
(0.412642 -0.327659 0)
(0.467626 -0.359009 0)
(0.526743 -0.396552 0)
(0.587714 -0.435306 0)
(0.648512 -0.468184 0)
(0.0131614 -0.35736 0)
(0.0348077 -0.366649 0)
(0.0576641 -0.372706 0)
(0.0800516 -0.380537 0)
(0.101707 -0.391072 0)
(0.122295 -0.404547 0)
(0.141535 -0.420722 0)
(0.159201 -0.438731 0)
(0.17514 -0.456812 0)
(0.189304 -0.471962 0)
(0.201748 -0.479488 0)
(0.2117 -0.472554 0)
(0.218911 -0.441855 0)
(0.228638 -0.384692 0)
(0.241405 -0.344243 0)
(0.262628 -0.328479 0)
(0.291925 -0.331153 0)
(0.327885 -0.347912 0)
(0.369469 -0.375647 0)
(0.415528 -0.411471 0)
(0.464685 -0.451665 0)
(0.515273 -0.49089 0)
(0.565981 -0.521023 0)
(0.0116635 -0.378907 0)
(0.0306023 -0.388346 0)
(0.0503211 -0.393936 0)
(0.0694743 -0.401077 0)
(0.0879214 -0.4107 0)
(0.105432 -0.423039 0)
(0.121822 -0.437886 0)
(0.136946 -0.454427 0)
(0.15072 -0.470968 0)
(0.163167 -0.484566 0)
(0.174399 -0.490567 0)
(0.183575 -0.482075 0)
(0.19081 -0.449339 0)
(0.20034 -0.394814 0)
(0.213102 -0.361866 0)
(0.232878 -0.352979 0)
(0.258817 -0.361727 0)
(0.289565 -0.383705 0)
(0.32425 -0.415715 0)
(0.362012 -0.454738 0)
(0.40183 -0.496897 0)
(0.442845 -0.536479 0)
(0.483897 -0.564666 0)
(0.0102821 -0.397786 0)
(0.0266248 -0.407067 0)
(0.0434225 -0.412022 0)
(0.0595306 -0.418452 0)
(0.0749497 -0.427244 0)
(0.089533 -0.438619 0)
(0.103168 -0.452383 0)
(0.115771 -0.467765 0)
(0.127313 -0.483134 0)
(0.137867 -0.49561 0)
(0.147616 -0.500552 0)
(0.155694 -0.490981 0)
(0.16262 -0.456308 0)
(0.171572 -0.405058 0)
(0.184009 -0.378474 0)
(0.202114 -0.374915 0)
(0.224746 -0.388074 0)
(0.250618 -0.413633 0)
(0.278953 -0.448452 0)
(0.309024 -0.489503 0)
(0.340212 -0.532954 0)
(0.371952 -0.572924 0)
(0.404641 -0.599895 0)
(0.00912029 -0.413909 0)
(0.023057 -0.422875 0)
(0.0372745 -0.427053 0)
(0.0506056 -0.432765 0)
(0.0632472 -0.440794 0)
(0.0751054 -0.451333 0)
(0.0861208 -0.464195 0)
(0.0962514 -0.478646 0)
(0.105503 -0.493114 0)
(0.114002 -0.504787 0)
(0.121987 -0.509068 0)
(0.128698 -0.498874 0)
(0.135134 -0.4625 0)
(0.143458 -0.415127 0)
(0.155533 -0.393808 0)
(0.172029 -0.394253 0)
(0.191663 -0.410404 0)
(0.213202 -0.438151 0)
(0.235897 -0.474431 0)
(0.259086 -0.516365 0)
(0.28229 -0.560265 0)
(0.305405 -0.600607 0)
(0.329936 -0.626893 0)
(0.0083438 -0.428033 0)
(0.020084 -0.436517 0)
(0.032223 -0.439562 0)
(0.0431162 -0.444439 0)
(0.0533025 -0.451697 0)
(0.0627057 -0.461458 0)
(0.071304 -0.47352 0)
(0.0790747 -0.487173 0)
(0.0860439 -0.500906 0)
(0.092357 -0.511994 0)
(0.0983424 -0.515923 0)
(0.10343 -0.505633 0)
(0.109205 -0.46811 0)
(0.117283 -0.42504 0)
(0.129261 -0.407996 0)
(0.14456 -0.411337 0)
(0.161817 -0.429347 0)
(0.179923 -0.458079 0)
(0.198126 -0.494691 0)
(0.215695 -0.536394 0)
(0.232063 -0.579798 0)
(0.247604 -0.619689 0)
(0.264228 -0.646174 0)
(0.00844898 -0.443125 0)
(0.0178936 -0.45024 0)
(0.0287421 -0.451278 0)
(0.0375757 -0.454905 0)
(0.0457073 -0.461199 0)
(0.0530289 -0.470104 0)
(0.059533 -0.481345 0)
(0.0651863 -0.494208 0)
(0.0699925 -0.507247 0)
(0.0741148 -0.517858 0)
(0.0779276 -0.521722 0)
(0.0812829 -0.511737 0)
(0.0863369 -0.474498 0)
(0.0946316 -0.436033 0)
(0.106993 -0.422443 0)
(0.121807 -0.427862 0)
(0.137766 -0.446885 0)
(0.153819 -0.475929 0)
(0.169203 -0.512103 0)
(0.183158 -0.552633 0)
(0.195126 -0.59433 0)
(0.20533 -0.632526 0)
(0.216005 -0.658911 0)
(0.0110727 -0.45607 0)
(0.0163366 -0.461482 0)
(0.0270128 -0.461013 0)
(0.0343149 -0.463513 0)
(0.0410036 -0.46876 0)
(0.0468771 -0.476595 0)
(0.0518832 -0.486644 0)
(0.0559079 -0.498159 0)
(0.0588695 -0.509781 0)
(0.0608629 -0.519196 0)
(0.0626579 -0.52265 0)
(0.0644301 -0.513816 0)
(0.0688885 -0.480754 0)
(0.0774726 -0.448477 0)
(0.0905939 -0.438033 0)
(0.105923 -0.444685 0)
(0.121914 -0.463566 0)
(0.137901 -0.491075 0)
(0.153101 -0.524136 0)
(0.166128 -0.560569 0)
(0.177033 -0.598133 0)
(0.186641 -0.633354 0)
(0.197543 -0.660084 0)
(0.0191534 -0.45242 0)
(0.0150068 -0.455684 0)
(0.0266728 -0.456557 0)
(0.0334293 -0.459861 0)
(0.0397154 -0.465136 0)
(0.0451839 -0.472488 0)
(0.0497076 -0.481644 0)
(0.0530123 -0.492007 0)
(0.0547503 -0.502523 0)
(0.0547466 -0.51139 0)
(0.0536531 -0.515306 0)
(0.052281 -0.508103 0)
(0.0564346 -0.478061 0)
(0.0658809 -0.452779 0)
(0.0808886 -0.445402 0)
(0.0982339 -0.452463 0)
(0.116309 -0.470226 0)
(0.133722 -0.495794 0)
(0.149876 -0.527308 0)
(0.165511 -0.562609 0)
(0.179728 -0.600462 0)
(0.191752 -0.637464 0)
(0.202144 -0.668261 0)
(0.0418673 -0.459528 0)
(0.0160642 -0.462146 0)
(0.0293113 -0.463932 0)
(0.0366217 -0.467196 0)
(0.0440219 -0.472117 0)
(0.0508205 -0.479305 0)
(0.0566041 -0.488342 0)
(0.0607308 -0.4985 0)
(0.0621914 -0.508671 0)
(0.0594397 -0.517085 0)
(0.0514703 -0.52167 0)
(0.0350189 -0.516614 0)
(0.0366246 -0.484245 0)
(0.0545289 -0.462192 0)
(0.0778198 -0.45758 0)
(0.102535 -0.466062 0)
(0.127234 -0.484091 0)
(0.153463 -0.508222 0)
(0.181352 -0.532331 0)
(0.19809 -0.568624 0)
(0.213197 -0.608344 0)
(0.219593 -0.646413 0)
(0.211077 -0.688585 0)
(0.263587 -0.541293 0)
(0.0137246 -0.479942 0)
(0.0372061 -0.470068 0)
(0.0413719 -0.471091 0)
(0.0497945 -0.474824 0)
(0.0576208 -0.481921 0)
(0.0632468 -0.491029 0)
(0.065411 -0.500818 0)
(0.0619547 -0.508965 0)
(0.0505497 -0.511752 0)
(0.0343481 -0.507571 0)
(0.019986 -0.510301 0)
(0.0160359 -0.495285 0)
(0.0395434 -0.477057 0)
(0.072371 -0.475929 0)
(0.101451 -0.488299 0)
(0.121661 -0.515506 0)
(0.117635 -0.553443 0)
(0.092415 -0.607027 0)
(0.0754314 -0.64012 0)
(0.04966 -0.665494 0)
(0.00473252 -0.663636 0)
(-0.0701039 -0.594388 0)
(-0.0155023 -0.680388 0)
(-0.00452768 -0.366622 0)
(0.0275195 -0.508853 0)
(0.0165259 -0.527159 0)
(0.0129375 -0.526455 0)
(0.00819417 -0.526491 0)
(0.00202489 -0.525603 0)
(-0.00572576 -0.521198 0)
(-0.0152826 -0.511145 0)
(-0.0263847 -0.496868 0)
(-0.0383365 -0.487766 0)
(-0.0510064 -0.507356 0)
(-0.0579664 -0.533576 0)
(-0.0584061 -0.564799 0)
(-0.0545073 -0.573148 0)
(-0.0495199 -0.570762 0)
(-0.0460841 -0.55754 0)
(-0.0460456 -0.552467 0)
(-0.0582358 -0.551557 0)
(-0.0836748 -0.56789 0)
(-0.127385 -0.574892 0)
(-0.196593 -0.548709 0)
(-0.29253 -0.465185 0)
(-0.0458761 -0.575387 0)
(-0.019633 -0.452584 0)
(0.0029263 -0.479173 0)
(-0.00845956 -0.48283 0)
(-0.0176477 -0.4841 0)
(-0.0288457 -0.486877 0)
(-0.0414659 -0.490027 0)
(-0.0550952 -0.491728 0)
(-0.0685665 -0.490491 0)
(-0.079789 -0.486136 0)
(-0.0872969 -0.482421 0)
(-0.0964156 -0.488241 0)
(-0.10806 -0.505788 0)
(-0.121211 -0.512351 0)
(-0.135932 -0.517161 0)
(-0.149874 -0.52014 0)
(-0.16296 -0.520635 0)
(-0.177362 -0.517335 0)
(-0.198232 -0.523886 0)
(-0.232545 -0.525755 0)
(-0.288342 -0.508922 0)
(-0.366906 -0.457737 0)
(-0.46182 -0.355784 0)
(-0.027697 -0.533801 0)
(-0.0228686 -0.476712 0)
(-0.018045 -0.474304 0)
(-0.0283607 -0.4703 0)
(-0.0398495 -0.469351 0)
(-0.0531915 -0.470442 0)
(-0.0678696 -0.472214 0)
(-0.0834017 -0.473364 0)
(-0.0988297 -0.473101 0)
(-0.112698 -0.471912 0)
(-0.124099 -0.47208 0)
(-0.135423 -0.476691 0)
(-0.151538 -0.482764 0)
(-0.172196 -0.488769 0)
(-0.194456 -0.492584 0)
(-0.218274 -0.494897 0)
(-0.243709 -0.495197 0)
(-0.270875 -0.493538 0)
(-0.303974 -0.487445 0)
(-0.34957 -0.472695 0)
(-0.410645 -0.438161 0)
(-0.485577 -0.3718 0)
(-0.565091 -0.264642 0)
(-0.018234 -0.514226 0)
(-0.0255207 -0.47921 0)
(-0.0314375 -0.466183 0)
(-0.0427554 -0.459039 0)
(-0.0553309 -0.456331 0)
(-0.0692832 -0.455962 0)
(-0.0843941 -0.456477 0)
(-0.100378 -0.456795 0)
(-0.116686 -0.456398 0)
(-0.132698 -0.455584 0)
(-0.148305 -0.455681 0)
(-0.16494 -0.458253 0)
(-0.184824 -0.462653 0)
(-0.208326 -0.465825 0)
(-0.234639 -0.467428 0)
(-0.263745 -0.467096 0)
(-0.296058 -0.463928 0)
(-0.332296 -0.45652 0)
(-0.374487 -0.442904 0)
(-0.425202 -0.417501 0)
(-0.485009 -0.372625 0)
(-0.550601 -0.301141 0)
(-0.612704 -0.198964 0)
(-0.0157382 -0.492274 0)
(-0.0287438 -0.470246 0)
(-0.0396743 -0.455606 0)
(-0.0520693 -0.447541 0)
(-0.0652168 -0.44384 0)
(-0.0793601 -0.442469 0)
(-0.0945259 -0.442067 0)
(-0.110609 -0.441743 0)
(-0.127372 -0.441067 0)
(-0.14462 -0.440159 0)
(-0.162531 -0.439578 0)
(-0.181993 -0.439884 0)
(-0.204212 -0.440615 0)
(-0.229644 -0.44053 0)
(-0.258208 -0.438927 0)
(-0.290093 -0.435126 0)
(-0.325717 -0.427944 0)
(-0.365657 -0.41554 0)
(-0.410667 -0.395256 0)
(-0.46114 -0.362957 0)
(-0.515783 -0.313766 0)
(-0.57065 -0.243629 0)
(-0.61802 -0.151293 0)
(-0.0145951 -0.47034 0)
(-0.0303516 -0.456124 0)
(-0.0437281 -0.442615 0)
(-0.0569548 -0.434476 0)
(-0.0704416 -0.430124 0)
(-0.0846118 -0.427862 0)
(-0.0996608 -0.426499 0)
(-0.115637 -0.425261 0)
(-0.132499 -0.42376 0)
(-0.150258 -0.421959 0)
(-0.169165 -0.420057 0)
(-0.189821 -0.418188 0)
(-0.212947 -0.416018 0)
(-0.238969 -0.412789 0)
(-0.26807 -0.407842 0)
(-0.300477 -0.400367 0)
(-0.336475 -0.38917 0)
(-0.37627 -0.372489 0)
(-0.419816 -0.347952 0)
(-0.466359 -0.312568 0)
(-0.513857 -0.263276 0)
(-0.558538 -0.198028 0)
(-0.594474 -0.116932 0)
(-0.013479 -0.448876 0)
(-0.0302237 -0.439947 0)
(-0.0447893 -0.428422 0)
(-0.0585602 -0.420801 0)
(-0.0722462 -0.41617 0)
(-0.086357 -0.413228 0)
(-0.101194 -0.410986 0)
(-0.116909 -0.408788 0)
(-0.133579 -0.406267 0)
(-0.151312 -0.403295 0)
(-0.17035 -0.399872 0)
(-0.191108 -0.395946 0)
(-0.214053 -0.391213 0)
(-0.239531 -0.385136 0)
(-0.267761 -0.377095 0)
(-0.298919 -0.366315 0)
(-0.333113 -0.351712 0)
(-0.370246 -0.331818 0)
(-0.409812 -0.304796 0)
(-0.45062 -0.268594 0)
(-0.490509 -0.221398 0)
(-0.526313 -0.162284 0)
(-0.55368 -0.0919105 0)
(-0.0123566 -0.428326 0)
(-0.0290874 -0.42322 0)
(-0.0440093 -0.413734 0)
(-0.0579973 -0.40688 0)
(-0.0717228 -0.402221 0)
(-0.0856859 -0.398787 0)
(-0.100226 -0.395788 0)
(-0.115551 -0.392673 0)
(-0.131801 -0.389107 0)
(-0.149119 -0.384915 0)
(-0.167715 -0.379999 0)
(-0.187875 -0.374215 0)
(-0.209907 -0.367282 0)
(-0.234057 -0.358761 0)
(-0.260488 -0.34811 0)
(-0.28928 -0.334639 0)
(-0.320391 -0.317452 0)
(-0.353532 -0.295419 0)
(-0.388015 -0.267226 0)
(-0.422579 -0.23155 0)
(-0.455316 -0.187374 0)
(-0.483691 -0.134402 0)
(-0.504599 -0.0734253 0)
(-0.0112676 -0.409018 0)
(-0.0274231 -0.4067 0)
(-0.0422122 -0.399016 0)
(-0.0561112 -0.392965 0)
(-0.0696872 -0.38841 0)
(-0.0833809 -0.384632 0)
(-0.0975228 -0.381001 0)
(-0.112337 -0.377063 0)
(-0.127986 -0.37252 0)
(-0.144619 -0.367185 0)
(-0.162403 -0.360915 0)
(-0.181537 -0.353537 0)
(-0.202214 -0.344786 0)
(-0.224586 -0.334293 0)
(-0.24873 -0.321593 0)
(-0.274634 -0.306114 0)
(-0.302146 -0.287158 0)
(-0.330888 -0.2639 0)
(-0.360146 -0.235458 0)
(-0.388787 -0.201028 0)
(-0.415229 -0.1601 0)
(-0.437569 -0.112699 0)
(-0.453606 -0.0595939 0)
(-0.0102688 -0.391034 0)
(-0.0255794 -0.390778 0)
(-0.0398859 -0.384594 0)
(-0.0534373 -0.379281 0)
(-0.0666739 -0.374886 0)
(-0.0799597 -0.370868 0)
(-0.0935897 -0.366725 0)
(-0.107778 -0.362079 0)
(-0.122684 -0.356675 0)
(-0.138444 -0.350333 0)
(-0.155189 -0.342905 0)
(-0.173051 -0.334212 0)
(-0.192141 -0.32402 0)
(-0.212531 -0.312014 0)
(-0.234225 -0.297812 0)
(-0.257135 -0.280958 0)
(-0.281045 -0.260929 0)
(-0.305551 -0.237153 0)
(-0.329996 -0.209066 0)
(-0.353426 -0.176217 0)
(-0.374616 -0.138404 0)
(-0.392141 -0.0958207 0)
(-0.404468 -0.0491381 0)
(-0.00933551 -0.374433 0)
(-0.0236483 -0.375689 0)
(-0.0372759 -0.370712 0)
(-0.0502843 -0.366031 0)
(-0.0630141 -0.361807 0)
(-0.0757556 -0.357623 0)
(-0.088759 -0.353072 0)
(-0.102214 -0.347839 0)
(-0.116264 -0.341707 0)
(-0.131025 -0.33452 0)
(-0.146597 -0.326137 0)
(-0.163061 -0.3164 0)
(-0.180472 -0.305104 0)
(-0.19884 -0.291993 0)
(-0.218115 -0.276759 0)
(-0.238163 -0.259052 0)
(-0.258739 -0.238493 0)
(-0.279452 -0.214701 0)
(-0.299731 -0.187337 0)
(-0.318807 -0.156178 0)
(-0.335737 -0.121206 0)
(-0.3495 -0.0826802 0)
(-0.359029 -0.0411856 0)
(-0.00846791 -0.359187 0)
(-0.0217158 -0.361559 0)
(-0.0345139 -0.35754 0)
(-0.0468291 -0.353383 0)
(-0.0589115 -0.349319 0)
(-0.0709858 -0.345022 0)
(-0.0832565 -0.340151 0)
(-0.0958837 -0.334444 0)
(-0.10899 -0.327719 0)
(-0.12267 -0.319844 0)
(-0.136996 -0.310702 0)
(-0.152012 -0.30016 0)
(-0.167733 -0.288051 0)
(-0.184132 -0.27417 0)
(-0.201122 -0.258278 0)
(-0.218547 -0.240115 0)
(-0.23616 -0.219417 0)
(-0.253604 -0.195939 0)
(-0.270395 -0.169495 0)
(-0.285923 -0.140005 0)
(-0.299485 -0.10755 0)
(-0.310331 -0.0724159 0)
(-0.317732 -0.0350916 0)
(-0.00763598 -0.345295 0)
(-0.0197765 -0.34847 0)
(-0.0316626 -0.3452 0)
(-0.0431744 -0.341467 0)
(-0.0544965 -0.337547 0)
(-0.0657982 -0.333174 0)
(-0.0772435 -0.328059 0)
(-0.0889636 -0.321979 0)
(-0.10106 -0.314782 0)
(-0.113606 -0.306365 0)
(-0.126651 -0.296637 0)
(-0.140215 -0.285495 0)
(-0.154286 -0.272809 0)
(-0.168814 -0.258421 0)
(-0.183695 -0.242152 0)
(-0.198766 -0.223818 0)
(-0.213795 -0.203241 0)
(-0.228467 -0.180274 0)
(-0.24238 -0.15483 0)
(-0.255057 -0.126915 0)
(-0.26596 -0.0966625 0)
(-0.274558 -0.0643488 0)
(-0.280345 -0.0303944 0)
(-0.00682826 -0.332729 0)
(-0.0178477 -0.336466 0)
(-0.0287569 -0.333776 0)
(-0.0393828 -0.330384 0)
(-0.0498547 -0.32659 0)
(-0.0602964 -0.322172 0)
(-0.0708381 -0.316876 0)
(-0.0815863 -0.310509 0)
(-0.0926226 -0.302947 0)
(-0.104004 -0.294114 0)
(-0.11576 -0.283946 0)
(-0.127895 -0.27237 0)
(-0.140381 -0.259292 0)
(-0.153154 -0.244597 0)
(-0.166106 -0.228156 0)
(-0.179082 -0.209843 0)
(-0.191871 -0.189547 0)
(-0.2042 -0.16719 0)
(-0.215743 -0.142749 0)
(-0.226118 -0.11628 0)
(-0.234925 -0.0879348 0)
(-0.241771 -0.0579753 0)
(-0.246309 -0.0267504 0)
(-0.00601714 -0.321494 0)
(-0.0159076 -0.325575 0)
(-0.0258134 -0.323326 0)
(-0.0354938 -0.320208 0)
(-0.0450444 -0.316529 0)
(-0.054554 -0.312092 0)
(-0.0641273 -0.306666 0)
(-0.0738519 -0.300084 0)
(-0.0837935 -0.292246 0)
(-0.0939938 -0.283101 0)
(-0.10447 -0.272612 0)
(-0.115213 -0.260735 0)
(-0.126187 -0.247407 0)
(-0.137324 -0.232549 0)
(-0.14852 -0.216075 0)
(-0.159632 -0.197905 0)
(-0.170474 -0.177977 0)
(-0.180818 -0.156263 0)
(-0.190393 -0.13278 0)
(-0.198902 -0.107612 0)
(-0.20603 -0.0809159 0)
(-0.211495 -0.0529221 0)
(-0.215059 -0.0239269 0)
(-0.00517503 -0.311611 0)
(-0.0139454 -0.315797 0)
(-0.022845 -0.313888 0)
(-0.0315334 -0.310998 0)
(-0.0401036 -0.307431 0)
(-0.0486198 -0.302997 0)
(-0.0571714 -0.297484 0)
(-0.0658326 -0.290743 0)
(-0.0746563 -0.282698 0)
(-0.083672 -0.273323 0)
(-0.092886 -0.262606 0)
(-0.102282 -0.250529 0)
(-0.111819 -0.237055 0)
(-0.121431 -0.222136 0)
(-0.131024 -0.205719 0)
(-0.140471 -0.187761 0)
(-0.149612 -0.168237 0)
(-0.158258 -0.147153 0)
(-0.166189 -0.124556 0)
(-0.173163 -0.100543 0)
(-0.178937 -0.0752644 0)
(-0.18329 -0.0489237 0)
(-0.186063 -0.0217553 0)
(-0.00425826 -0.303171 0)
(-0.0119266 -0.307109 0)
(-0.0198674 -0.30548 0)
(-0.0275206 -0.302802 0)
(-0.0350546 -0.299354 0)
(-0.0425222 -0.294943 0)
(-0.0500077 -0.289371 0)
(-0.0575763 -0.282511 0)
(-0.0652693 -0.274312 0)
(-0.0731047 -0.264771 0)
(-0.0810798 -0.253897 0)
(-0.0891731 -0.241694 0)
(-0.097344 -0.228147 0)
(-0.105532 -0.213233 0)
(-0.113653 -0.196925 0)
(-0.121601 -0.179208 0)
(-0.129244 -0.160085 0)
(-0.136426 -0.139588 0)
(-0.142968 -0.117784 0)
(-0.148675 -0.0947824 0)
(-0.153343 -0.070725 0)
(-0.156796 -0.0457804 0)
(-0.158919 -0.0201232 0)
(-0.00327555 -0.296199 0)
(-0.00983319 -0.299408 0)
(-0.0169251 -0.298109 0)
(-0.0234762 -0.29567 0)
(-0.0299077 -0.292354 0)
(-0.0362723 -0.287976 0)
(-0.0426553 -0.282359 0)
(-0.0491121 -0.275405 0)
(-0.0556702 -0.267088 0)
(-0.062335 -0.257426 0)
(-0.0690957 -0.246448 0)
(-0.0759279 -0.234172 0)
(-0.0827938 -0.220603 0)
(-0.0896409 -0.205733 0)
(-0.0964003 -0.189557 0)
(-0.102986 -0.172079 0)
(-0.109292 -0.153325 0)
(-0.115197 -0.133348 0)
(-0.120558 -0.112232 0)
(-0.125216 -0.0900987 0)
(-0.128996 -0.0670875 0)
(-0.131727 -0.0433388 0)
(-0.133304 -0.018948 0)
(-0.00260943 -0.290456 0)
(-0.00776578 -0.292428 0)
(-0.0141411 -0.29177 0)
(-0.0194359 -0.289662 0)
(-0.0246695 -0.286483 0)
(-0.0298748 -0.282125 0)
(-0.0351273 -0.276458 0)
(-0.0404621 -0.269419 0)
(-0.0458866 -0.261009 0)
(-0.0513914 -0.251261 0)
(-0.0569584 -0.240219 0)
(-0.0625627 -0.227909 0)
(-0.0681718 -0.214348 0)
(-0.0737438 -0.199541 0)
(-0.0792255 -0.183497 0)
(-0.0845522 -0.166236 0)
(-0.0896468 -0.147797 0)
(-0.0944201 -0.128251 0)
(-0.0987682 -0.1077 0)
(-0.102568 -0.0862839 0)
(-0.105663 -0.064159 0)
(-0.107865 -0.0414539 0)
(-0.109014 -0.0181692 0)
(-0.00380113 -0.28618 0)
(-0.00617319 -0.285843 0)
(-0.0117761 -0.286519 0)
(-0.0154675 -0.284902 0)
(-0.0193593 -0.281822 0)
(-0.0233486 -0.277426 0)
(-0.0274513 -0.271677 0)
(-0.0316588 -0.264549 0)
(-0.0359496 -0.256062 0)
(-0.0402987 -0.246257 0)
(-0.0446825 -0.23518 0)
(-0.0490785 -0.222864 0)
(-0.0534617 -0.209328 0)
(-0.0578022 -0.194588 0)
(-0.0620633 -0.178661 0)
(-0.0662016 -0.161575 0)
(-0.0701686 -0.14338 0)
(-0.0739109 -0.124155 0)
(-0.0773697 -0.10402 0)
(-0.0804715 -0.0831423 0)
(-0.0830995 -0.0617299 0)
(-0.0850223 -0.0399621 0)
(-0.0859099 -0.0177369 0)
(-0.010096 -0.28545 0)
(-0.00561064 -0.280449 0)
(-0.0101751 -0.283019 0)
(-0.0116981 -0.28182 0)
(-0.0140431 -0.27863 0)
(-0.0167592 -0.274056 0)
(-0.0196945 -0.268159 0)
(-0.0227614 -0.260925 0)
(-0.0259042 -0.252369 0)
(-0.0290846 -0.242525 0)
(-0.0322779 -0.231431 0)
(-0.0354662 -0.219118 0)