# vtk DataFile Version 2.0
sampleSurface
ASCII
DATASET POLYDATA
POINTS 1819 float
-0.0073895 5e-05 0 -0.0075 5e-05 0 -0.0075 0 0 -0.0073895 0
0 -0.007279 5e-05 0 -0.007279 0 0 -0.0071685 5e-05 0
-0.0071685 0 0 -0.007058 5e-05 0 -0.007058 0 0 -0.00694749
5e-05 0 -0.00694749 0 0 -0.00683691 5e-05 0 -0.00683691 0
0 -0.00672498 5e-05 0 -0.00672498 0 0 -0.0066 0 0
-0.0066 5e-05 0 -0.0073895 0.0001 0 -0.0075 0.0001 0 -0.007279
0.0001 0 -0.0071685 0.0001 0 -0.007058 0.0001 0 -0.00694749 0.0001
0 -0.00683691 0.0001 0 -0.006725 0.0001 0 -0.0066 0.0001 0
-0.0073895 0.00015 0 -0.0075 0.00015 0 -0.007279 0.00015 0 -0.0071685
0.00015 0 -0.007058 0.00015 0 -0.00694749 0.00015 0 -0.00683691 0.00015
0 -0.00672502 0.00015 0 -0.0066 0.00015 0 -0.0073895 0.0002 0
-0.0075 0.0002 0 -0.007279 0.0002 0 -0.0071685 0.0002 0 -0.007058
0.0002 0 -0.00694749 0.0002 0 -0.00683691 0.0002 0 -0.00672506 0.0002
0 -0.0066 0.0002 0 -0.0073895 0.00025 0 -0.0075 0.00025 0
-0.007279 0.00025 0 -0.0071685 0.00025 0 -0.007058 0.00025 0 -0.00694749
0.00025 0 -0.00683691 0.00025 0 -0.00672511 0.00025 0 -0.0066 0.00025
0 -0.0073895 0.0003 0 -0.0075 0.0003 0 -0.007279 0.0003 0
-0.0071685 0.0003 0 -0.007058 0.0003 0 -0.00694749 0.0003 0 -0.00683691
0.0003 0 -0.00672517 0.0003 0 -0.0066 0.0003 0 -0.0073895 0.00035
0 -0.0075 0.00035 0 -0.007279 0.00035 0 -0.0071685 0.00035 0
-0.007058 0.00035 0 -0.00694749 0.00035 0 -0.00683692 0.00035 0 -0.00672524
0.00035 0 -0.0066 0.00035 0 -0.0073895 0.0004 0 -0.0075 0.0004
0 -0.007279 0.0004 0 -0.0071685 0.0004 0 -0.007058 0.0004 0
-0.00694749 0.0004 0 -0.00683692 0.0004 0 -0.00672532 0.0004 0 -0.0066
0.0004 0 -0.0073895 0.00045 0 -0.0075 0.00045 0 -0.007279 0.00045
0 -0.0071685 0.00045 0 -0.007058 0.00045 0 -0.00694749 0.00045 0
-0.00683692 0.00045 0 -0.00672541 0.00045 0 -0.0066 0.00045 0 -0.0073895
0.0005 0 -0.0075 0.0005 0 -0.007279 0.0005 0 -0.0071685 0.0005
0 -0.007058 0.0005 0 -0.00694749 0.0005 0 -0.00683692 0.0005 0
-0.00672551 0.0005 0 -0.0066 0.0005 0 -0.0073895 0.00055 0 -0.0075
0.00055 0 -0.007279 0.00055 0 -0.0071685 0.00055 0 -0.007058 0.00055
0 -0.00694749 0.00055 0 -0.00683692 0.00055 0 -0.00672563 0.00055 0
-0.0066 0.00055 0 -0.0073895 0.0006 0 -0.0075 0.0006 0 -0.007279
0.0006 0 -0.0071685 0.0006 0 -0.007058 0.0006 0 -0.00694749 0.0006
0 -0.00683693 0.0006 0 -0.00672575 0.0006 0 -0.0066 0.0006 0
-0.0073895 0.00065 0 -0.0075 0.00065 0 -0.007279 0.00065 0 -0.0071685
0.00065 0 -0.007058 0.00065 0 -0.00694749 0.00065 0 -0.00683693 0.00065
0 -0.00672589 0.00065 0 -0.0066 0.00065 0 -0.0073895 0.0007 0
-0.0075 0.0007 0 -0.007279 0.0007 0 -0.0071685 0.0007 0 -0.007058
0.0007 0 -0.00694749 0.0007 0 -0.00683693 0.0007 0 -0.00672605 0.0007
0 -0.0066 0.0007 0 -0.0073895 0.00075 0 -0.0075 0.00075 0
-0.007279 0.00075 0 -0.0071685 0.00075 0 -0.007058 0.00075 0 -0.00694749
0.00075 0 -0.00683693 0.00075 0 -0.00672583 0.00075 0 -0.0066 0.00075
0 -0.00299361 0.000183339 0 -0.0031 0.000183339 0 -0.0031 0 0
-0.00299361 0 0 -0.00288255 0.000183339 0 -0.00288256 0 0 -0.00276722
0.000183339 0 -0.00276722 0 0 -0.00264757 0.000183339 0 -0.00264758 0
0 -0.00252348 0.000183339 0 -0.00252348 0 0 -0.00239477 0.000183339 0
-0.00239478 0 0 -0.00226128 0.000183339 0 -0.00226129 0 0 -0.00212284
0.000183339 0 -0.00212284 0 0 -0.00197924 0.000183339 0 -0.00197925 0
0 -0.00183031 0.000183339 0 -0.00183032 0 0 -0.00167585 0.000183339 0
-0.00167585 0 0 -0.00151565 0.000183339 0 -0.00151565 0 0 -0.0013495
0.000183339 0 -0.0013495 0 0 -0.00117717 0.000183339 0 -0.00117717 0
0 -0.000998436 0.000183339 0 -0.00099844 0 0 -0.000813064 0.000183339 0
-0.000813068 0 0 -0.000620804 0.000183339 0 -0.000620809 0 0 -0.000421401
0.000183339 0 -0.000421405 0 0 -0.000214588 0.000183339 0 -0.000214593 0
0 0 0 0 0 0.000183339 0 -0.00299361 0.000353777 0
-0.0031 0.000353777 0 -0.00288255 0.000353777 0 -0.00276722 0.000353777 0 -0.00264757
0.000353777 0 -0.00252347 0.000353777 0 -0.00239477 0.000353777 0 -0.00226128 0.000353777
0 -0.00212283 0.000353777 0 -0.00197924 0.000353777 0 -0.00183031 0.000353777 0
-0.00167584 0.000353777 0 -0.00151564 0.000353777 0 -0.00134949 0.000353777 0 -0.00117716
0.000353777 0 -0.000998429 0.000353777 0 -0.000813056 0.000353777 0 -0.000620796 0.000353777
0 -0.000421393 0.000353777 0 -0.00021458 0.000353777 0 0 0.000353777 0
-0.00299361 0.000512223 0 -0.0031 0.000512223 0 -0.00288255 0.000512223 0 -0.00276721
0.000512223 0 -0.00264756 0.000512223 0 -0.00252347 0.000512223 0 -0.00239476 0.000512223
0 -0.00226127 0.000512223 0 -0.00212282 0.000512223 0 -0.00197923 0.000512223 0
-0.0018303 0.000512223 0 -0.00167584 0.000512223 0 -0.00151564 0.000512223 0 -0.00134948
0.000512223 0 -0.00117715 0.000512223 0 -0.000998421 0.000512223 0 -0.000813049 0.000512223
0 -0.000620789 0.000512223 0 -0.000421385 0.000512223 0 -0.000214572 0.000512223 0
0 0.000512223 0 -0.00299362 0.000659519 0 -0.0031 0.000659519 0 -0.00288255
0.000659519 0 -0.00276721 0.000659519 0 -0.00264756 0.000659519 0 -0.00252346 0.000659519
0 -0.00239476 0.000659519 0 -0.00226127 0.000659519 0 -0.00212282 0.000659519 0
-0.00197922 0.000659519 0 -0.00183029 0.000659519 0 -0.00167583 0.000659519 0 -0.00151563
0.000659519 0 -0.00134947 0.000659519 0 -0.00117715 0.000659519 0 -0.000998414 0.000659519
0 -0.000813041 0.000659519 0 -0.000620781 0.000659519 0 -0.000421378 0.000659519 0
-0.000214565 0.000659519 0 0 0.000659519 0 -0.00299363 0.000796451 0 -0.0031
0.000796451 0 -0.00288254 0.000796451 0 -0.0027672 0.000796451 0 -0.00264755 0.000796451
0 -0.00252346 0.000796451 0 -0.00239475 0.000796451 0 -0.00226126 0.000796451 0
-0.00212281 0.000796451 0 -0.00197922 0.000796451 0 -0.00183029 0.000796451 0 -0.00167582
0.000796451 0 -0.00151562 0.000796451 0 -0.00134947 0.000796451 0 -0.00117714 0.000796451
0 -0.000998407 0.000796451 0 -0.000813034 0.000796451 0 -0.000620774 0.000796451 0
-0.00042137 0.000796451 0 -0.000214558 0.000796451 0 0 0.000796451 0 -0.00299363
0.000923748 0 -0.0031 0.000923748 0 -0.00288254 0.000923748 0 -0.0027672 0.000923748
0 -0.00264755 0.000923748 0 -0.00252345 0.000923748 0 -0.00239475 0.000923748 0
-0.00226126 0.000923748 0 -0.00212281 0.000923748 0 -0.00197921 0.000923748 0 -0.00183028
0.000923748 0 -0.00167582 0.000923748 0 -0.00151562 0.000923748 0 -0.00134946 0.000923748
0 -0.00117713 0.000923748 0 -0.0009984 0.000923748 0 -0.000813028 0.000923748 0
-0.000620768 0.000923748 0 -0.000421364 0.000923748 0 -0.000214551 0.000923748 0 0
0.000923748 0 -0.00299364 0.00104209 0 -0.0031 0.00104209 0 -0.00288254 0.00104209
0 -0.00276719 0.00104209 0 -0.00264754 0.00104209 0 -0.00252345 0.00104209 0
-0.00239474 0.00104209 0 -0.00226125 0.00104209 0 -0.0021228 0.00104209 0 -0.00197921
0.00104209 0 -0.00183028 0.00104209 0 -0.00167581 0.00104209 0 -0.00151561 0.00104209
0 -0.00134945 0.00104209 0 -0.00117713 0.00104209 0 -0.000998394 0.00104209 0
-0.000813022 0.00104209 0 -0.000620761 0.00104209 0 -0.000421358 0.00104209 0 -0.000214545
0.00104209 0 0 0.00104209 0 -0.00299365 0.0011521 0 -0.0031 0.0011521
0 -0.00288254 0.0011521 0 -0.00276719 0.0011521 0 -0.00264754 0.0011521 0
-0.00252344 0.0011521 0 -0.00239473 0.0011521 0 -0.00226124 0.0011521 0 -0.00212279
0.0011521 0 -0.0019792 0.0011521 0 -0.00183027 0.0011521 0 -0.00167581 0.0011521
0 -0.0015156 0.0011521 0 -0.00134945 0.0011521 0 -0.00117712 0.0011521 0
-0.000998389 0.0011521 0 -0.000813016 0.0011521 0 -0.000620756 0.0011521 0 -0.000421352
0.0011521 0 -0.000214539 0.0011521 0 0 0.0011521 0 -0.00299367 0.00125437
0 -0.0031 0.00125437 0 -0.00288254 0.00125437 0 -0.00276718 0.00125437 0
-0.00264753 0.00125437 0 -0.00252344 0.00125437 0 -0.00239473 0.00125437 0 -0.00226124
0.00125437 0 -0.00212279 0.00125437 0 -0.0019792 0.00125437 0 -0.00183027 0.00125437
0 -0.0016758 0.00125437 0 -0.0015156 0.00125437 0 -0.00134944 0.00125437 0
-0.00117711 0.00125437 0 -0.000998383 0.00125437 0 -0.000813011 0.00125437 0 -0.00062075
0.00125437 0 -0.000421347 0.00125437 0 -0.000214534 0.00125437 0 0 0.00125437
0 -0.00299368 0.00134945 0 -0.0031 0.00134945 0 -0.00288254 0.00134945 0
-0.00276718 0.00134945 0 -0.00264753 0.00134945 0 -0.00252343 0.00134945 0 -0.00239472
0.00134945 0 -0.00226123 0.00134945 0 -0.00212278 0.00134945 0 -0.00197919 0.00134945
0 -0.00183026 0.00134945 0 -0.0016758 0.00134945 0 -0.00151559 0.00134945 0
-0.00134944 0.00134945 0 -0.00117711 0.00134945 0 -0.000998378 0.00134945 0 -0.000813006
0.00134945 0 -0.000620746 0.00134945 0 -0.000421342 0.00134945 0 -0.00021453 0.00134945
0 0 0.00134945 0 -0.00299369 0.00143783 0 -0.0031 0.00143783 0
-0.00288253 0.00143783 0 -0.00276718 0.00143783 0 -0.00264753 0.00143783 0 -0.00252343
0.00143783 0 -0.00239472 0.00143783 0 -0.00226123 0.00143783 0 -0.00212278 0.00143783
0 -0.00197919 0.00143783 0 -0.00183026 0.00143783 0 -0.00167579 0.00143783 0
-0.00151559 0.00143783 0 -0.00134943 0.00143783 0 -0.00117711 0.00143783 0 -0.000998374
0.00143783 0 -0.000813001 0.00143783 0 -0.000620741 0.00143783 0 -0.000421338 0.00143783
0 -0.000214525 0.00143783 0 0 0.00143783 0 -0.0029937 0.00152 0
-0.0031 0.00152 0 -0.00288253 0.00152 0 -0.00276717 0.00152 0 -0.00264752
0.00152 0 -0.00252342 0.00152 0 -0.00239472 0.00152 0 -0.00226123 0.00152
0 -0.00212278 0.00152 0 -0.00197918 0.00152 0 -0.00183025 0.00152 0
-0.00167579 0.00152 0 -0.00151559 0.00152 0 -0.00134943 0.00152 0 -0.0011771
0.00152 0 -0.00099837 0.00152 0 -0.000812997 0.00152 0 -0.000620737 0.00152
0 -0.000421334 0.00152 0 -0.000214522 0.00152 0 0 0.00152 0
-0.00299372 0.00159638 0 -0.0031 0.00159638 0 -0.00288253 0.00159638 0 -0.00276717
0.00159638 0 -0.00264752 0.00159638 0 -0.00252342 0.00159638 0 -0.00239471 0.00159638
0 -0.00226122 0.00159638 0 -0.00212277 0.00159638 0 -0.00197918 0.00159638 0
-0.00183025 0.00159638 0 -0.00167578 0.00159638 0 -0.00151558 0.00159638 0 -0.00134943
0.00159638 0 -0.0011771 0.00159638 0 -0.000998366 0.00159638 0 -0.000812994 0.00159638
0 -0.000620734 0.00159638 0 -0.000421331 0.00159638 0 -0.000214518 0.00159638 0
[...]
POINT_DATA 1819
FIELD attributes 2
p 1 1819 float
-0.0530451 -0.103923 -0.0957014 -0.0536041 -0.00501144 -0.0056457 0.0324466 0.0317215 0.0578402 0.0571251 0.0662806
0.0655674 0.058846 0.0585087 0.0364944 0.0365997 0.0193052 0.0192115 -0.0516534 -0.101228 -0.00374667
0.033638 0.0588369 0.0669881 0.0586285 0.0351924 0.0176783 -0.0495598 -0.0983585 -0.00214497 0.0348515
0.0596332 0.0670633 0.0573213 0.0321809 0.0137874 -0.0466498 -0.0945124 9.29999e-05 0.0365795 0.0608421
0.0672669 0.0555316 0.0278258 0.00802151 -0.0430183 -0.0897062 0.00285559 0.0387014 0.0623364 0.0674787
0.05305 0.0218477 0.000136203 -0.0387803 -0.0840284 0.00600798 0.0410743 0.0639765 0.0675503 0.0496112
0.0138578 -0.010281 -0.0340692 -0.0776012 0.00940069 0.0435422 0.0656098 0.0672948 0.044851 0.00331959
-0.0238047 -0.0290436 -0.0705759 0.012855 0.0459087 0.0670221 0.066392 0.0381735 -0.0105936 -0.04132
-0.0238858 -0.0631325 0.0161615 0.0479311 0.0679131 0.0643014 0.0286275 -0.0291183 -0.0641498 -0.0187964
-0.0554757 0.0190878 0.0493309 0.0679093 0.0603472 0.015154 -0.0534114 -0.0934017 -0.0139817 -0.0478269
0.0213939 0.0497985 0.0665813 0.0541676 -0.00225525 -0.0829141 -0.128138 -0.00963487 -0.0404102 0.0228614
0.0489868 0.063418 0.0461014 -0.021264 -0.11371 -0.163906 -0.00591781 -0.0334325 0.0233242 0.0465656
0.057948 0.0368248 -0.0383036 -0.145156 -0.205222 -0.00294738 -0.0270644 0.0226994 0.0424002 0.0501564
0.026784 -0.0515925 -0.180661 -0.262602 -0.000300134 -0.02037 0.0207561 0.0358101 0.0393024 0.0148274
-0.0589876 -0.176781 -0.240534 4.22158 4.22835 4.23117 4.22475 4.20881 4.21212 4.18945
4.19291 4.16164 4.16512 4.12918 4.13277 4.09188 4.0955 4.0514 4.05498 4.00937
4.01285 3.96745 3.97074 3.9271 3.93013 3.88951 3.89224 3.85556 3.85796 3.82579
3.82786 3.80045 3.80219 3.77954 3.781 3.76294 3.76415 3.75041 3.75143 3.74175
3.74263 3.73703 3.73782 3.73644 3.73579 4.21329 4.21983 4.20029 4.18062 4.15257
4.11983 4.08238 4.04192 4.00013 3.95867 3.91897 3.88217 3.8491 3.82022 3.79573
3.77561 3.75967 3.74767 3.73939 3.73489 3.73365 4.20026 4.20696 4.18706 4.16705
4.13848 4.10539 4.06771 4.02732 3.98595 3.94524 3.90659 3.87105 3.83934 3.81185
3.78869 3.76975 3.75481 3.74361 3.73591 3.73173 3.73057 4.18204 4.18895 4.1686
4.14818 4.11904 4.08564 4.04783 4.00773 3.96712 3.92761 3.8905 3.85675 3.82692
3.80129 3.77985 3.76245 3.7488 3.73862 3.73164 3.72786 3.72681 4.15855 4.16567
4.14488 4.1241 4.09447 4.06091 4.02321 3.98379 3.9444 3.9066 3.87157 3.8401
3.81261 3.78923 3.76986 3.75426 3.74211 3.73308 3.72693 3.72361 3.72268 4.12928
4.13658 4.11551 4.09451 4.06463 4.03124 3.9941 3.9559 3.91833 3.88284 3.85045
3.82176 3.79703 3.77624 3.7592 3.74559 3.73507 3.72731 3.72204 3.71921 3.71842
4.0934 4.10077 4.07978 4.0589 4.02921 3.99656 3.96064 3.92441 3.88939 3.8569
3.82775 3.80232 3.78072 3.7628 3.74827 3.73678 3.72798 3.72153 3.71717 3.71484
3.71419 4.04979 4.05702 4.03676 4.01658 3.98785 3.95679 3.92302 3.8897 3.8581
3.82935 3.80401 3.7823 3.76415 3.74929 3.7374 3.72811 3.72105 3.71591 3.71246
3.71063 3.71013 3.99691 4.00367 3.98527 3.96678 3.94015 3.91188 3.8815 3.85221
3.82498 3.80073 3.77978 3.76217 3.74769 3.73604 3.72685 3.71976 3.71443 3.71059
3.70802 3.70668 3.70631 3.93275 3.93842 3.9238 3.90858 3.88575 3.86191 3.83642
3.81245 3.7906 3.77159 3.75553 3.74232 3.73169 3.72331 3.71681 3.71188 3.70823
3.70563 3.70392 3.70303 3.70279 3.8546 3.85812 3.85057 3.84102 3.82438 3.80707
3.78827 3.771 3.75554 3.74245 3.73169 3.7231 3.7164 3.71127 3.70741 3.70457
3.70252 3.70109 3.70017 3.69971 3.69959 3.75881 3.75826 3.76343 3.76315 3.75594
3.74773 3.73765 3.72851 3.72039 3.71379 3.70864 3.70479 3.702 3.70006 3.69874
3.69787 3.69732 3.69699 3.6968 3.69673 3.69672 3.64041 3.63224 3.65998 3.67411
3.68056 3.68451 3.6853 3.68567 3.68573 3.68607 3.68669 3.68759 3.68864 3.68976
3.69084 3.69182 3.69265 3.69332 3.6938 3.69408 3.69417 3.49256 3.46993 3.53774
3.57328 3.59875 3.61822 3.63205 3.64318 3.65207 3.65963 3.66608 3.67165 3.6764
3.6804 3.68372 3.6864 3.6885 3.69007 3.69115 3.69176 3.69193 3.30559 3.25548
3.39445 3.4604 3.51142 3.54989 3.57882 3.60171 3.61989 3.63478 3.64699 3.65705
3.6653 3.672 3.67737 3.6816 3.68484 3.68722 3.68884 3.68972 3.68998 3.06539
2.96364 3.22842 3.33572 3.4199 3.48074 3.52654 3.56188 3.58958 3.61173 3.62951
3.64384 3.65535 3.66452 3.67176 3.67738 3.68163 3.68473 3.68683 3.68796 3.68828
2.75082 2.5545 3.03894 3.20032 3.32603 3.41215 3.4761 3.52424 3.56142 3.59061
3.61369 3.63201 3.64651 3.65793 3.66684 3.6737 3.67885 3.68258 3.6851 3.68645
3.68683 2.32765 1.96523 2.82555 3.05724 3.23203 3.34557 3.42829 3.48921 3.53561
3.5715 3.59952 3.6215 3.63872 3.65216 3.66257 3.67052 3.67646 3.68074 3.68361
3.68515 3.68558 1.75262 1.1159 2.58939 2.91176 3.14036 3.28236 3.38376 3.45708
3.51224 3.55439 3.58696 3.61227 3.63193 3.64716 3.65887 3.66778 3.67441 3.67916
3.68235 3.68405 3.68452 1.04013 -3.84946 2.33475 2.77698 3.05766 3.22651 3.3449
3.42938 3.4923 3.53993 3.57643 3.60458 3.62631 3.64304 3.65585 3.66555 3.67274
3.67788 3.68133 3.68316 3.68366 0.00239447 -0.0110713 0.0163389 0.0247441 0.0233119 0.000851705
-0.0544151 -0.118863 -0.154776 0.00331158 -0.00486619 0.0110664 0.0142801 0.00998904 -0.00777317 -0.0432593
-0.0795255 -0.101282 0.00287318 -0.00137837 0.0059703 0.00556317 -0.000317294 -0.0143357 -0.0372266 -0.0608715
-0.0781085 0.00184082 0.000358501 0.00135987 -0.00153192 -0.00828052 -0.0199791 -0.0361194 -0.0528611 -0.0668651
0.00025998 0.000752021 -0.00275725 -0.00727801 -0.0144856 -0.0248151 -0.0376057 -0.0509428 -0.0632779 -0.00203895
-1.28843e-05 -0.00641849 -0.012009 -0.0194829 -0.0289598 -0.0399351 -0.0514093 -0.0625506 -0.00420244 -0.000937961
-0.0095204 -0.0159334 -0.0236848 -0.0327895 -0.0429123 -0.0535032 -0.0640121 -0.00574446 -0.00149896 -0.0120343
-0.0191481 -0.0272188 -0.0362412 -0.046019 -0.0562384 -0.0664414 -0.00692708 -0.00191906 -0.014062 -0.0217998
-0.0302294 -0.0393569 -0.049088 -0.0592392 -0.0693573 -0.00785201 -0.00225097 -0.0157041 -0.0239973 -0.0328011
-0.0421382 -0.0519891 -0.06225 -0.0724331 -0.0085853 -0.00252201 -0.0170399 -0.0258223 -0.0349936 -0.0445908
-0.0546454 -0.0651141 -0.0754576 -0.0091714 -0.00274779 -0.0181286 -0.0273349 -0.0368534 -0.0467352 -0.0570364
-0.0677567 -0.0783128 -0.00964321 -0.002937 -0.0190207 -0.0285825 -0.0384029 -0.0485634 -0.0591032 -0.069976
-0.0807147 -0.0100071 -0.00308694 -0.0197336 -0.0295833 -0.039659 -0.0501538 -0.0610582 -0.0718389 -0.0827759
-0.01016 -0.00375956 -0.0200434 -0.0300212 -0.0402178 -0.0509156 -0.0620799 -0.0728346 -0.08432 -0.148441
-0.178534 -0.135011 -0.155413 -0.127732 -0.142136 -0.124101 -0.134754 -0.123076 -0.131142 -0.124105
-0.130315 -0.126832 -0.131664 -0.131008 -0.134783 -0.136459 -0.139395 -0.143064 -0.145308 -0.150738
-0.152397 -0.159429 -0.160575 -0.169107 -0.169791 -0.179764 -0.18002 -0.191408 -0.191259 -0.204059
-0.20352 -0.217741 -0.216828 -0.232499 -0.231218 -0.24839 -0.246745 -0.265487 -0.263473 -0.283868
-0.28148 -0.303623 -0.300849 -0.324848 -0.321676 -0.347648 -0.344062 -0.372136 -0.368118 -0.398426
-0.393961 -0.426637 -0.421705 -0.456884 -0.451464 -0.489253 -0.483332 -0.52373 -0.517332 -0.560054
-0.553291 -0.597605 -0.590707 -0.635559 -0.628784 -0.673731 -0.667048 -0.714486 -0.70701 -0.765324
-0.754814 -0.842559 -0.824927 -0.975646 -0.944276 -1.21114 -1.15619 -1.61012 -1.51863 -2.22565
-2.0852 -3.05977 -2.86884 -4.01803 -3.79796 -4.90528 -4.70083 -5.5231 -5.38174 -5.80732
-5.74925 -5.87213 -5.88083 -5.97162 -5.9761 -7.15483 -7.29223 -5.09208 -0.107346 -0.107757
-0.108563 -0.110179 -0.112809 -0.116464 -0.121126 -0.126761 -0.133339 -0.140834 -0.14923 -0.158519
-0.168708 -0.179809 -0.191847 -0.204854 -0.218875 -0.233968 -0.250201 -0.26765 -0.286403 -0.30655
-0.328189 -0.351428 -0.376387 -0.403186 -0.431947 -0.462783 -0.495763 -0.53082 -0.567625 -0.605535
-0.643911 -0.683154 -0.72672 -0.783768 -0.873292 -1.02879 -1.3019 -1.75866 -2.45131 -3.36434
-4.36685 -5.22661 -5.7412 -5.88867 -5.84465 -5.9375 -6.4952 -4.3155 -0.0872717 -0.0924687
-0.0969521 -0.101445 -0.106311 -0.111706 -0.117725 -0.124423 -0.131838 -0.139996 -0.148922 -0.158641
-0.16918 -0.180573 -0.192857 -0.206081 -0.220307 -0.235602 -0.252037 -0.269692 -0.288655 -0.309023
-0.330905 -0.35442 -0.379696 -0.406858 -0.436033 -0.46734 -0.500852 -0.536525 -0.574116 -0.613194
-0.653516 -0.69608 -0.745122 -0.811204 -0.915852 -1.0965 -1.40947 -1.9235 -2.68762 -3.66925
-4.70323 -5.52585 -5.93975 -5.96077 -5.82645 -5.84376 -5.78337 -3.49103 -0.0766463 -0.0835735
-0.089813 -0.0959497 -0.102259 -0.108891 -0.115952 -0.123522 -0.131663 -0.140429 -0.149865 -0.160015
-0.170925 -0.18264 -0.195214 -0.208705 -0.223176 -0.238698 -0.255348 -0.273211 -0.292379 -0.312963
-0.335083 -0.358865 -0.384444 -0.411957 -0.441555 -0.473385 -0.507566 -0.544134 -0.582995 -0.62398
-0.667258 -0.714454 -0.770691 -0.847823 -0.96907 -1.17389 -1.52027 -2.07625 -2.8852 -3.90141
-4.9387 -5.71669 -6.04906 -5.97865 -5.7656 -5.6101 -5.01378 -2.72812 -0.0732006 -0.0809082
-0.0879866 -0.0949575 -0.102056 -0.10941 -0.117117 -0.125255 -0.133891 -0.143084 -0.152889 -0.16336
-0.174549 -0.186513 -0.19931 -0.213005 -0.227669 -0.243377 -0.260213 -0.278272 -0.297654 -0.318474
-0.340859 -0.364942 -0.390871 -0.418807 -0.448928 -0.481415 -0.516438 -0.554114 -0.594481 -0.637613
-0.684112 -0.736244 -0.79995 -0.887929 -1.02378 -1.24612 -1.61015 -2.17802 -2.98451 -3.97709
-4.96808 -5.68506 -5.95468 -5.82788 -5.52872 -5.13917 -4.15032 -2.0383 -0.072278 -0.0802485
-0.0877357 -0.0951938 -0.102807 -0.110673 -0.118868 -0.127462 -0.136517 -0.146093 -0.156249 -0.16704
-0.178527 -0.190768 -0.203829 -0.21778 -0.232695 -0.248656 -0.265754 -0.284087 -0.303765 -0.32491
-0.347658 -0.372155 -0.398565 -0.42707 -0.45787 -0.491177 -0.527201 -0.566122 -0.608099 -0.653468
-0.703293 -0.760469 -0.831508 -0.929164 -1.07575 -1.30609 -1.66763 -2.21077 -2.95942 -3.86031
-4.74316 -5.36847 -5.57975 -5.41409 -5.03778 -4.45947 -3.28711 -1.4603 -0.0735704 -0.0816595
-0.0893626 -0.0971043 -0.10504 -0.113245 -0.121784 -0.130715 -0.140095 -0.149982 -0.160432 -0.171505
-0.183261 -0.195765 -0.209083 -0.223291 -0.238467 -0.2547 -0.272085 -0.290729 -0.310748 -0.332275
-0.355455 -0.380449 -0.407439 -0.436627 -0.468238 -0.502515 -0.539708 -0.580068 -0.623921 -0.671911
-0.725589 -0.78836 -0.866923 -0.973253 -1.12687 -1.3564 -1.69825 -2.18797 -2.83748 -3.59679
-4.32458 -4.82671 -4.97464 -4.78909 -4.37869 -3.71822 -2.54964 -1.03047 -0.0758882 -0.084038
-0.0918727 -0.0998036 -0.107966 -0.116422 -0.125224 -0.134425 -0.144076 -0.154231 -0.164947 -0.176283
-0.1883 -0.201065 -0.214648 -0.229129 -0.24459 -0.261125 -0.278837 -0.297838 -0.318256 -0.340232
-0.363924 -0.389512 -0.417197 -0.447206 -0.479796 -0.51525 -0.553882 -0.596064 -0.64234 -0.693713
-0.752182 -0.821483 -0.908084 -1.02247 -1.18038 -1.40316 -1.71575 -2.13969 -2.67677 -3.28237
-3.84601 -4.22036 -4.30978 -4.12206 -3.71692 -3.05527 -1.98751 -0.736551 -0.0787621 -0.0869626
-0.0948964 -0.102972 -0.111311 -0.119967 -0.128985 -0.138412 -0.148297 -0.158692 -0.169651 -0.181233
-0.193502 -0.206526 -0.22038 -0.235143 -0.250906 -0.267766 -0.285833 -0.30523 -0.326092 -0.348574
-0.372852 -0.399123 -0.427615 -0.458591 -0.492351 -0.529244 -0.569683 -0.614207 -0.663628 -0.71932
-0.783655 -0.86049 -0.955677 -1.07768 -1.238 -1.45089 -1.73152 -2.09094 -2.5247 -2.99473
-3.41734 -3.68552 -3.72915 -3.5456 -3.15935 -2.52879 -1.58187 -0.538608 -0.0818598 -0.0901182
-0.0981433 -0.106347 -0.114838 -0.123665 -0.13287 -0.142496 -0.152589 -0.163201 -0.174386 -0.186202
-0.198715 -0.211994 -0.226117 -0.241168 -0.257242 -0.274442 -0.292886 -0.312704 -0.334045 -0.357079
-0.381998 -0.409028 -0.438427 -0.470504 -0.505626 -0.544231 -0.586865 -0.634274 -0.687555 -0.748409
-0.819519 -0.904723 -1.00896 -1.13832 -1.3 -1.50185 -1.7515 -2.05338 -2.40087 -2.76329
-3.07811 -3.26751 -3.27762 -3.0972 -2.72817 -2.13382 -1.29288 -0.400835 -0.084949 -0.0932706
-0.101387 -0.109713 -0.118345 -0.127327 -0.136701 -0.146506 -0.156789 -0.167601 -0.178995 -0.191032
-0.203778 -0.217305 -0.231693 -0.24703 -0.263415 -0.28096 -0.299789 -0.320043 -0.341881 -0.365491
-0.391086 -0.418922 -0.449295 -0.482561 -0.51918 -0.559696 -0.604798 -0.655458 -0.713041 -0.779478
-0.857779 -0.95178 -1.06532 -1.20207 -1.36509 -1.5566 -1.77831 -2.03067 -2.30763 -2.58661
-2.82175 -2.9547 -2.94054 -2.76076 -2.40456 -1.84368 -1.08649 -0.301554 -0.0879057 -0.0963094
-0.104531 -0.112984 -0.121754 -0.130884 -0.140414 -0.150386 -0.160846 -0.171843 -0.183434 -0.19568
-0.208647 -0.22241 -0.237052 -0.252667 -0.269356 -0.287234 -0.306437 -0.327114 -0.349435 -0.373605
-0.399858 -0.428477 -0.459797 -0.4942 -0.532297 -0.574742 -0.622301 -0.676196 -0.738077 -0.810198
-0.895528 -0.997468 -1.1192 -1.26269 -1.42752 -1.61116 -1.81062 -2.02351 -2.24502 -2.45976
-2.63523 -2.72682 -2.69448 -2.51361 -2.16708 -1.63531 -0.941355 -0.230469 -0.0905063 -0.0990572
-0.107399 -0.11598 -0.124882 -0.134149 -0.143823 -0.153947 -0.164566 -0.175732 -0.187501 -0.199934
-0.213101 -0.227078 -0.24195 -0.257813 -0.274771 -0.292946 -0.312497 -0.333568 -0.35632 -0.38098
-0.407805 -0.437099 -0.46923 -0.504649 -0.543934 -0.587819 -0.6373 -0.69372 -0.75892 -0.835386
-0.925908 -1.0335 -1.16095 -1.30917 -1.47559 -1.65503 -1.84171 -2.03068 -2.21667 -2.38809
-2.52121 -2.58155 -2.53339 -2.34867 -2.0076 -1.49776 -0.847546 -0.182996 -0.0930393 -0.101817
-0.1102 -0.118882 -0.127889 -0.137271 -0.147063 -0.157309 -0.168055 -0.17935 -0.191252 -0.203824
-0.217133 -0.231259 -0.246285 -0.26231 -0.279441 -0.2978 -0.317526 -0.338789 -0.361781 -0.386721
-0.413869 -0.443542 -0.476125 -0.512122 -0.552031 -0.596654 -0.647139 -0.704854 -0.771678 -0.850059
-0.942872 -1.05312 -1.18322 -1.33352 -1.5013 -1.6809 -1.86539 -2.04813 -2.2217 -2.37383
-2.48357 -2.52209 -2.45848 -2.26575 -1.92328 -1.42324 -0.796174 -0.153273 -0.0944514 -0.103307
-0.11167 -0.120392 -0.129444 -0.138875 -0.148718 -0.159015 -0.169812 -0.181158 -0.193111 -0.205732
-0.219091 -0.233266 -0.248343 -0.264415 -0.281597 -0.300002 -0.319731 -0.340995 -0.364027 -0.389021
-0.416233 -0.445979 -0.478649 -0.514726 -0.554785 -0.599634 -0.650373 -0.708407 -0.77562 -0.854435
-0.947712 -1.05844 -1.18895 -1.33961 -1.50815 -1.68897 -1.87475 -2.05847 -2.23143 -2.37998
-2.48309 -2.5134 -2.44231 -2.24473 -1.89977 -1.40112 -0.780566 -0.103349 0.528182 2.10536
2.66778 2.98996 3.18142 3.31364 3.40726 3.47648 3.52853 3.56819 3.5986 3.62195
3.63987 3.65353 3.66384 3.67146 3.67691 3.68055 3.68248 3.68301 0.403625 1.93173
2.57616 2.9295 3.14134 3.28583 3.38772 3.4626 3.5186 3.56105 3.59344 3.61822
3.63716 3.65155 3.66239 3.67039 3.67609 3.6799 3.68192 3.68246 0.465552 1.81262
2.49648 2.87244 3.1031 3.25923 3.36911 3.44944 3.50925 3.55436 3.58864 3.61476
3.63466 3.64974 3.66106 3.6694 3.67534 3.6793 3.6814 3.68196 0.542899 1.73137
2.42837 2.82006 3.06722 3.23413 3.3516 3.43712 3.50053 3.54817 3.58422 3.61159
3.63237 3.64808 3.65985 3.66851 3.67466 3.67876 3.68093 3.68151 0.595061 1.67286
2.3697 2.77283 3.03404 3.21078 3.33534 3.42572 3.49252 3.5425 3.58019 3.60871
3.63031 3.64659 3.65876 3.66771 3.67405 3.67828 3.68051 3.68111 0.633394 1.63078
2.31887 2.73077 3.00379 3.18936 3.32043 3.41532 3.48524 3.53738 3.57657 3.60614
3.62847 3.64527 3.65781 3.66701 3.67352 3.67786 3.68015 3.68076 0.662626 1.6012
2.2752 2.69381 2.97661 3.17004 3.30701 3.40599 3.47876 3.53285 3.57339 3.6039
3.62688 3.64413 3.65698 3.6664 3.67307 3.6775 3.67983 3.68046 0.683576 1.58018
2.2382 2.66182 2.95262 3.15296 3.29516 3.39781 3.47311 3.52893 3.57066 3.60198
3.62552 3.64317 3.65629 3.66589 3.67269 3.6772 3.67958 3.68021 0.699649 1.56478
2.20732 2.63466 2.93195 3.13823 3.28498 3.39083 3.46834 3.52565 3.56839 3.6004
3.62441 3.64238 3.65573 3.66549 3.67238 3.67696 3.67937 3.68001 0.714056 1.55337
2.18207 2.6122 2.9147 3.12598 3.27658 3.38514 3.46448 3.52304 3.5666 3.59917
3.62356 3.64178 3.65531 3.66518 3.67216 3.67678 3.67922 3.67986 0.727551 1.5451
2.1622 2.59447 2.90105 3.11638 3.27008 3.3808 3.4616 3.52111 3.56531 3.59829
3.62296 3.64137 3.65502 3.66497 3.672 3.67666 3.67912 3.67977 0.739532 1.53985
2.148 2.58185 2.89142 3.10974 3.2657 3.37796 3.45977 3.51993 3.56455 3.59779
3.62263 3.64115 3.65487 3.66487 3.67193 3.67661 3.67907 3.67973 0.750866 1.53892
2.14074 2.57532 2.88654 3.10655 3.26374 3.3768 3.45911 3.51956 3.56435 3.59769
3.62258 3.64113 3.65486 3.66487 3.67194 3.67662 3.67908 3.67974 0.76326 1.54302
2.14084 2.57501 2.88641 3.10673 3.26409 3.37722 3.45951 3.51992 3.56465 3.59793
3.62277 3.64128 3.65498 3.66497 3.67201 3.67668 3.67915 3.67981 0.77123 1.5475
2.14354 2.57698 2.88792 3.10792 3.26503 3.37795 3.46007 3.52035 3.56497 3.59818
3.62296 3.64142 3.65509 3.66504 3.67207 3.67673 3.67919 3.67986 
U 3 1819 float
0.484745 -0.00568492 -1.24683e-18 0.473906 -0.000725683 -5.42101e-20 0.474906 -0.000827462 -3.60932e-05 0.485969 -0.00315409
-0.000137579 0.519162 -0.011448 -2.71051e-19 0.520365 -0.00632552 -0.000275915 0.57708 -0.0171166 1.19262e-18
0.57815 -0.0094467 -0.000412058 0.657574 -0.0219602 -1.6263e-18 0.658421 -0.0120752 -0.000526713 0.752836
-0.0253223 -7.58942e-19 0.753216 -0.0139461 -0.000608319 0.862468 -0.0247337 -2.1684e-19 0.862263 -0.0135459
-0.000590863 0.949992 -0.0167668 1.68051e-18 0.949757 -0.00918275 -0.000400545 0.989667 -0.00282908 -0.000123402
0.995072 -0.00239817 3.38813e-20 0.481193 -0.0106362 4.87891e-19 0.470274 -0.00152344 -2.37169e-19 0.515672
-0.0214512 5.42101e-19 0.573916 -0.0321147 9.75782e-19 0.655081 -0.0414205 -9.75782e-19 0.75165 -0.0476787
1.51788e-18 0.862916 -0.0468148 0 0.95076 -0.0315322 -6.50521e-19 0.994526 -0.00485185 -8.26704e-19
0.475336 -0.015635 -4.33681e-19 0.464409 -0.00229763 -3.32037e-19 0.509891 -0.0315656 9.75782e-19 0.56857
-0.0473729 1.95156e-18 0.65086 -0.0614429 1.95156e-18 0.749547 -0.0707494 -2.1684e-19 0.863515 -0.0696123
1.0842e-18 0.952351 -0.0463396 -1.51788e-18 0.994713 -0.0069729 -7.58942e-19 0.46706 -0.0207731 -2.33103e-18
0.456153 -0.00311418 -8.53809e-19 0.501659 -0.0420424 -4.33681e-19 0.560834 -0.0633543 3.90313e-18 0.644686
-0.0826576 3.03577e-18 0.746425 -0.0954813 -1.30104e-18 0.864434 -0.0938641 -8.67362e-19 0.95508 -0.0615055
0 0.995269 -0.00905355 -2.98156e-19 0.456347 -0.0259175 -6.39679e-18 0.445504 -0.00396603 -7.72494e-19
0.490895 -0.0526359 -1.95156e-18 0.550551 -0.0797671 6.28837e-18 0.636342 -0.104848 3.90313e-18 0.742195
-0.121801 4.77049e-18 0.865933 -0.119469 -8.67362e-19 0.959242 -0.0766155 -3.46945e-18 0.996223 -0.0109374
-3.25261e-19 0.443197 -0.031016 -4.22839e-18 0.432483 -0.0048519 -1.69407e-18 0.477524 -0.0632677 -1.30104e-18
0.537522 -0.0965872 1.73472e-18 0.625528 -0.128194 5.63785e-18 0.736721 -0.150185 -4.33681e-19 0.868415
-0.146875 0 0.965395 -0.0915057 8.67362e-19 0.997706 -0.0124307 -2.71051e-19 0.427624 -0.0360108
-8.45678e-18 0.417133 -0.00576579 -3.44234e-18 0.461461 -0.0738487 1.30104e-18 0.521477 -0.113787 3.03577e-18
0.611783 -0.152946 -1.30104e-18 0.729719 -0.181352 5.20417e-18 0.872284 -0.176768 -2.1684e-18 0.974235
-0.105984 -4.77049e-18 0.999928 -0.0132493 -1.46367e-18 0.409672 -0.0408171 -2.92735e-18 0.399532 -0.00669468
-1.81604e-18 0.442615 -0.0842257 -2.60209e-18 0.502054 -0.131251 -1.30104e-18 0.594378 -0.179331 6.93889e-18
0.72035 -0.216202 -3.46945e-18 0.876928 -0.210048 1.73472e-18 0.985692 -0.119849 -7.80626e-18 1.00307
-0.0130219 -2.54788e-18 0.389431 -0.0453163 2.38524e-18 0.379807 -0.00761767 -1.35525e-19 0.420916 -0.0941548
0 0.478779 -0.148694 -4.77049e-18 0.572078 -0.207396 -8.67362e-19 0.706159 -0.255544 2.60209e-18
0.878048 -0.247798 6.93889e-18 0.99647 -0.13344 -6.50521e-18 1.00691 -0.0115538 -2.38524e-18 0.367058
-0.0493509 -4.33681e-19 0.358152 -0.00850553 -2.71051e-20 0.396336 -0.103264 0 0.451061 -0.165515
3.90313e-18 0.542889 -0.236528 8.67362e-19 0.681681 -0.299069 -4.33681e-18 0.864445 -0.290811 2.60209e-18
0.99678 -0.148687 1.30104e-17 1.00999 -0.00944404 -1.49078e-18 0.342804 -0.052723 2.1684e-18 0.334841
-0.00932097 7.86047e-19 0.36896 -0.111016 -6.50521e-18 0.418389 -0.180606 -8.67362e-18 0.504308 -0.264728