/*--------------------------------*- C++ -*----------------------------------*\
  =========                 |
  \\      /  F ield         | OpenFOAM: The Open Source CFD Toolbox
   \\    /   O peration     | Website:  https://openfoam.org
    \\  /    A nd           | Version:  13
     \\/     M anipulation  |
\*---------------------------------------------------------------------------*/
FoamFile
{
    format      ascii;
    class       volScalarField;
    location    "0.05";
    object      alpha.oil;
}
// * * * * * * * * * * * * * * * * * * * * * * * * * * * * * * * * * * * * * //

dimensions      [];

internalField   nonuniform List<scalar> 
2268
(
0
0
0
0
0
0
0
0
0
0
0
-1.04087e-47
1.39484e-08
0.235572
0.953352
1
1
1
1
1
1
1
1
0
0
0
0
0
0
0
0
0
0
0
-8.28614e-46
0.0121995
0.635023
1
1
1
1
1
1
1
1
1
0
0
0
0
0
0
0
0
0
0
0
-2.61706e-44
0.115454
0.843401
1
1
1
1
1
1
1
1
1
0
0
0
0
0
0
0
0
0
0
0
-4.47782e-43
0.209668
0.924433
1
1
1
1
1
1
1
1
1
0
0
0
0
0
0
0
0
0
0
0
-4.55024e-42
0.290867
0.961952
1
1
1
1
1
1
1
1
1
0
0
0
0
0
0
0
0
0
0
0
-2.79076e-41
0.365357
0.982013
1
1
1
1
1
1
1
1
1
0
0
0
0
0
0
0
0
0
0
0
-1.00828e-40
0.434474
0.992702
1
1
1
1
1
1
1
1
1
0
0
0
0
0
0
0
0
0
0
0
-1.13837e-32
0.498038
0.997906
1
1
1
1
1
1
1
1
1
-6.4813e-30
-2.85674e-31
-1.21677e-39
0
0
0
0
0
0
0
0
0
0
0
0
0
0
0
0
-2.5675e-27
-1.83892e-28
-1.89053e-30
-5.42837e-39
0
0
0
0
0
0
0
0
0
0
0
0
0
0
0
-2.26035e-25
-2.37226e-26
-5.48528e-28
-3.99575e-30
-9.71305e-39
0
0
0
0
0
0
0
0
0
0
0
0
0
0
4.946e-13
-1.05133e-24
-4.27956e-26
-7.39562e-28
-4.59776e-30
-1.00501e-38
0
0
0
0
0
0
0
0
0
0
0
0
0
-4.9462e-13
2.03046e-12
-1.30658e-24
-4.16831e-26
-6.24687e-28
-3.46123e-30
-7.77266e-39
0
0
0
0
0
0
0
0
0
0
0
0
1.59157e-11
-2.74066e-12
1.31021e-12
-9.88312e-25
-2.76418e-26
-3.76073e-28
-2.12136e-30
-4.86057e-39
0
0
0
0
0
0
0
0
0
0
0
6.6853e-09
1.33264e-05
2.59071e-10
4.20212e-13
-5.36847e-25
-1.38743e-26
-1.8932e-28
-1.0299e-30
-2.30106e-39
0
0
0
0
0
0
0
0
0
0
0.0429319
0.00139658
5.02229e-13
2.69426e-12
-4.10195e-24
-2.28524e-25
-5.73081e-27
-7.37386e-29
-3.66745e-31
-8.13794e-40
0
0
0
0
0
0
0
0
0
0
0
0
0
0
0
0
0
0
0
0
-2.8223e-31
0.588182
1
1
1
1
1
1
1
1
1
1
0
0
0
0
0
0
0
0
0
0
0
-2.85191e-30
0.693131
0.999998
1
1
1
1
1
1
1
1
1
0
0
0
0
0
0
0
0
0
0
0
1.87593e-30
0.753538
0.999936
1
1
1
1
1
1
1
1
1
0
0
0
0
0
0
0
0
0
0
0
2.57803e-13
0.792789
1
1
1
1
1
1
1
1
1
1
0
0
0
0
0
0
0
0
0
0
0
5.82193e-05
0.821028
1
1
1
1
1
1
1
1
1
1
0
0
0
0
0
0
0
0
0
0
0
-1.73739e-21
0.758718
1
1
1
1
1
1
1
1
1
1
0
0
0
0
0
0
0
0
0
0
0
0
0.751187
1
1
1
1
1
1
1
1
1
1
0
0
0
0
0
0
0
0
0
0
0
0
0.755413
1
1
1
1
1
1
1
1
1
1
0
0
0
0
0
0
0
0
0
0
0
0
0.768836
1
1
1
1
1
1
1
1
1
1
0
0
0
0
0
0
0
0
0
0
0
0
0.787326
1
1
1
1
1
1
1
1
1
1
0
0
0
0
0
0
0
0
0
0
0
0
0.808829
1
1
1
1
1
1
1
1
1
1
0
0
0
0
0
0
0
0
0
0
0
0
0.832016
1
1
1
1
1
1
1
1
1
1
0
0
0
0
0
0
0
0
0
0
0
0
0.85611
1
1
1
1
1
1
1
1
1
1
0
0
0
0
0
0
0
0
0
0
0
0
0.880707
1
1
1
1
1
1
1
1
1
1
0
0
0
0
0
0
0
0
0
0
0
0
0.905706
1
1
1
1
1
1
1
1
1
1
0
0
0
0
0
0
0
0
0
0
0
0
0.929628
1
1
1
1
1
1
1
1
1
1
0
0
0
0
0
0
0
0
0
0
0
0
0.945223
0.999998
1
1
1
1
1
1
1
1
1
0
0
0
0
0
0
0
0
0
0
0
0
0.943681
0.996329
0.995634
0.993818
0.99057
0.986278
0.980472
0.972904
0.964305
0.952542
0.920379
0
0
0
0
0
0
0
0
0
0
0
0
0.422491
0.463483
0.453383
0.431721
0.404714
0.374836
0.343294
0.310849
0.280145
0.247206
0.20552
0
0
0
0
0
0
0
0
0
0
0
5.58455e-28
-2.87415e-25
-6.23283e-23
-1.27374e-20
-2.03213e-18
-1.89709e-16
-1.04753e-14
-3.5258e-13
7.13446e-13
-7.39892e-11
7.0464e-11
-8.7927e-10
0
0
0
0
0
0
0
0
0
0
1.02387e-28
1.39051e-25
3.94033e-23
8.69898e-21
1.50891e-18
1.67095e-16
1.14515e-14
4.97546e-13
1.37349e-11
1.6421e-10
2.26081e-09
9.71564e-09
1.54279e-08
0
0
0
0
0
0
0
0
0
0
0
5.93099e-27
2.36636e-24
2.14529e-22
1.10165e-19
1.55828e-17
1.04177e-15
3.9468e-14
8.83384e-13
1.10662e-11
6.99029e-11
2.48592e-10
7.01241e-10
0
0
0
0
0
0
0
0
0
0
0
0
-4.08186e-43
-1.74307e-40
1.15586e-26
4.25196e-24
6.85742e-22
4.65429e-20
4.83353e-16
2.94592e-14
5.90752e-13
4.80203e-12
1.55567e-11
0
0
0
0
0
0
0
0
0
0
0
0
0
1.43078e-27
7.96113e-25
1.65307e-22
1.47268e-20
7.5702e-19
2.62109e-17
5.45974e-16
6.9977e-15
5.77722e-14
2.55428e-13
0
0
0
0
0
0
0
0
0
0
0
0
0
0
1.59188e-28
7.65588e-26
1.37683e-23
8.37606e-22
4.25419e-20
1.61247e-18
3.38732e-17
3.82516e-16
2.33521e-15
0
0
0
0
0
0
0
0
0
0
0
0
0
0
0
1.09945e-29
4.686e-27
7.56711e-25
5.42008e-23
2.16336e-21
5.59791e-20
9.80824e-19
1.09065e-17
0
0
0
0
0
0
0
0
0
0
0
0
0
0
0
0
5.5883e-31
2.2034e-28
3.31085e-26
2.25655e-24
8.59201e-23
2.10559e-21
3.49237e-20
0
0
0
0
0
0
0
0
0
0
0
0
0
0
0
0
0
2.38803e-32
8.91856e-30
1.27769e-27
8.52867e-26
3.21185e-24
7.7801e-23
0
0
0
0
0
0
0
0
0
0
0
0
0
0
0
0
0
0
9.15393e-34
3.30639e-31
4.70253e-29
3.17866e-27
1.22047e-25
0
0
0
0
0
0
0
0
0
0
0
0
0
0
0
0
0
0
0
3.29556e-35
1.20657e-32
1.7567e-30
1.23406e-28
0
0
0
0
0
0
0
0
0
0
0
0
0
0
0
0
0
0
0
0
1.19729e-36
4.54129e-34
6.95651e-32
0
0
0
0
0
0
0
0
0
0
0
0
0
0
0
0
0
0
0
0
0
4.5391e-38
1.83576e-35
0
0
0
0
0
0
0
0
0
0
0
0
0
0
0
0
0
0
0
0
0
0
1.87273e-39
0
0
0
0
0
0
0
0
0
0
0
0
0
0
0
0
0
0
0
0
0
0
0
0
0
0
0
0
0
0
0
0
0
0
0
0
0
0
0
0
0
0
0
0
0
0
0
0
0
0
0
0
0
0
0
0
0
0
0
0
0
0
0
0
0
0
0
0
0
0
0
0
0
0
0
0
0
0
0
0
0
0
0
0
0
0
0
0
0
0
0
0
0
0
0
0
0
0
0
0
0
0
0
0
0
0
0
0
0
0
0
0
0
0
0
0
0
0
0
0
0
0
0
0
0
0
0
0
0
0
0
0
0
0
0
0
0
0
0
0
0
0
0
0
0
0
0
0
0
0
0
0
0
0
0
0
0
0
0
0
0
0
0
0
0
0
0
0
0
0
0
0
0
0
0
0
0
0
0
0
0
0
0
0
0
0
0
0
0
0
0
0
0
0
0
0
0
0
0
0
0
0
0
0
0
0
0
1
1
1
1
1
1
1
1
1
1
0.999998
0.554654
1
0.999999
0.886802
0.0572102
1
0.999999
0.470079
1.35474e-06
1
0.947232
0.14089
1.90288e-06
0.999999
0.738264
0.0252737
1.26259e-07
0.999999
0.499021
2.13071e-06
1.28161e-07
0.973514
0.301503
2.38801e-06
2.96829e-07
0.893679
0.185453
2.74876e-06
2.21405e-07
0.802846
0.106142
3.17296e-06
1.37945e-07
0.702693
0.0542988
3.17195e-06
1.8758e-09
0.596316
0.022994
3.0166e-06
2.91454e-08
0.485855
0.00668558
1.58762e-06
7.0602e-09
0.369596
0.000379656
2.81651e-09
1.89597e-10
0.260064
1.26202e-06
4.09073e-08
3.49474e-09
0.208765
7.01621e-07
8.10752e-08
9.66966e-09
0.240915
1.3716e-06
5.94847e-11
5.86739e-10
0.135367
0.00372145
2.36635e-06
2.42848e-11
1.03869e-10
2.2134e-10
8.74053e-10
6.20767e-13
1.512e-10
1.34989e-10
1.5992e-10
1.11318e-16
2.84812e-10
9.38359e-12
8.75138e-12
3.90649e-18
1.22512e-11
1.99479e-13
5.70693e-13
-4.71494e-32
3.45807e-13
5.54665e-15
1.23221e-14
-1.48723e-33
6.57094e-15
9.60098e-17
1.67813e-16
-2.32497e-35
6.49477e-17
1.23416e-18
2.41315e-18
-1.60846e-37
3.61077e-19
9.13523e-21
2.89827e-20
-3.8575e-40
1.25203e-21
4.05096e-23
2.09849e-22
0
2.96263e-24
1.12347e-25
9.60436e-25
0
4.86305e-27
1.8153e-28
2.66671e-27
0
5.09819e-30
1.01726e-31
4.00754e-30
0
2.96622e-33
-8.62739e-49
2.43868e-33
0
8.07543e-37
-3.51365e-52
0
0
8.50818e-41
0
0
0
0
0
0
0
0
0
0
0
0
0
0
0
0
0
0
0
0
0
0
0
0
0
0
0
0
0
0
0
0
0
0
0
0.446952
3.4494e-06
2.26724e-08
5.16654e-09
2.15557e-10
-2.00824e-24
-8.59688e-26
-1.98044e-27
-2.28533e-29
-1.00501e-31
-2.54739e-40
0
0
0
0
0
0
0
0
0.194723
1.49164e-06
8.26667e-10
2.4057e-10
1.21735e-11
-7.39051e-24
-2.63183e-25
-4.71908e-27
-3.79558e-29
-9.74587e-32
-2.80889e-37
-5.67674e-40
0
0
0
0
0
0
0
1.79063e-06
2.75905e-08
4.49641e-09
2.44852e-12
-3.58311e-23
-6.02111e-25
-1.56607e-26
-1.74717e-28
-5.85223e-31
3.34699e-34
-7.48824e-39
0
0
0
0
0
0
0
0
2.83513e-08
1.12255e-08
1.03614e-09
-1.85763e-22
-9.52991e-24
-5.10268e-25
-1.40643e-26
-1.84687e-28
-8.90452e-31
-5.10483e-38
0
0
0
0
0
0
0
0
0
4.4635e-08
1.58087e-08
1.20263e-09
3.45454e-23
-9.85668e-24
-6.99217e-25
-2.21789e-26
-3.73117e-28
-2.9889e-30
-8.39019e-33
0
0
0
0
0
0
0
0
0
3.23613e-08
7.46187e-09
3.19764e-10
-7.38948e-21
-4.53142e-22
-1.25641e-23
-1.2459e-25
-3.92076e-29
-1.47741e-31
0
0
0
0
0
0
0
0
0
0
1.28625e-07
1.90595e-08
7.14381e-10
-1.4824e-21
-5.61157e-23
-7.3702e-25
-6.61059e-28
-7.85578e-30
-4.90482e-32
-1.20564e-34
0
0
0
0
0
0
0
0
0
8.79773e-08
1.03161e-08
2.89665e-10
-2.83035e-16
-6.82387e-18
-6.00197e-20
-6.61086e-25
-2.6118e-31
-5.46335e-34
4.31397e-38
1.23451e-40
1.17815e-43
0
0
0
0
0
0
0
1.11888e-07
1.01958e-08
2.64928e-10
-3.16013e-17
-3.65187e-19
-5.10579e-24
-4.4775e-29
-4.47604e-31
-1.74354e-33
-3.58771e-38
2.48036e-42
0
0
0
0
0
0
0
0
6.08711e-08
3.78744e-09
5.33313e-11
-4.07537e-17
-6.7671e-19
-4.43038e-21
-3.74249e-26
7.78711e-32
2.96575e-34
2.40731e-41
0
0
0
0
0
0
0
0
0
2.50368e-08
1.17756e-09
1.92045e-11
1.41688e-13
1.07351e-15
-3.82185e-25
-7.15306e-29
-6.45372e-31
-2.83446e-33
-4.33767e-36
0
0
0
0
0
0
0
0
0
1.6394e-09
7.32697e-11
9.04471e-13
8.83817e-15
-1.41912e-20
-6.39095e-23
-2.60972e-27
-4.56296e-32
-7.91169e-35
0
0
0
0
0
0
0
0
0
0
3.2742e-09
1.28627e-10
2.47312e-12
2.2829e-14
8.37234e-17
-3.47495e-26
-3.54713e-31
-6.96119e-34
-2.05798e-38
-1.46121e-41
0
0
0
0
0
0
0
0
0
5.90349e-10
1.59511e-11
1.92192e-13
1.01448e-15
-2.24644e-25
-1.78389e-30
-3.9643e-33
-3.51987e-37
-2.61743e-40
6.86934e-46
0
0
0
0
0
0
0
0
0
2.19599e-11
5.36455e-13
5.61577e-15
-9.22174e-25
-6.94494e-30
-1.73448e-32
-4.30864e-36
-5.22684e-39
-2.89254e-42
-4.92365e-46
0
0
0
0
0
0
0
0
0
3.25487e-11
1.72196e-14
1.27817e-17
6.44066e-21
-1.47206e-28
-8.13602e-32
-2.67727e-35
-4.82079e-41
-8.80583e-45
1.50758e-50
6.61922e-56
1.67437e-59
1.70285e-63
0
0
0
0
0
0
8.0849e-11
4.74877e-16
6.25231e-19
-1.6136e-26
-6.38123e-30
-1.39e-33
-5.58069e-40
-9.6644e-44
3.75726e-49
1.48866e-54
3.65551e-58
4.27499e-62
0
0
0
0
0
0
0
3.20065e-12
2.16346e-17
-1.20703e-24
-6.00256e-28
-1.01139e-31
-7.14214e-39
-1.13284e-42
1.11368e-47
3.77428e-53
8.26853e-57
8.34671e-61
0
0
0
0
0
0
0
0
1.23138e-13
-4.02405e-23
-4.30923e-26
-9.09279e-30
-9.82289e-38
-1.33802e-41
4.18862e-46
1.13877e-51
2.15845e-55
1.90449e-59
0
0
0
0
0
0
0
0
0
1.12824e-14
-1.44546e-24
-6.40706e-28
-1.07008e-36
-7.34342e-41
2.03526e-44
4.16682e-50
6.55482e-54
5.03212e-58
0
0
0
0
0
0
0
0
0
0
3.1844e-16
-2.07496e-26
1.48235e-35
8.1196e-39
1.25385e-42
5.21552e-49
2.15657e-52
1.51222e-56
0
0
0
0
0
0
0
0
0
0
0
-1.24012e-25
1.06735e-33
6.38397e-37
8.38471e-41
1.0593e-46
1.02986e-50
1.59926e-57
0
0
0
0
0
0
0
0
0
0
0
0
7.34889e-33
1.84485e-35
4.36462e-39
6.5582e-45
5.38281e-49
2.17714e-53
0
0
0
0
0
0
0
0
0
0
0
0
0
6.84145e-35
9.82636e-38
3.30312e-43
3.12754e-47
1.07913e-51
0
0
0
0
0
0
0
0
0
0
0
0
0
0
1.04227e-37
6.47165e-42
1.38201e-45
5.79547e-50
0
0
0
0
0
0
0
0
0
0
0
0
0
0
0
-8.02234e-40
2.06372e-44
2.1817e-48
0
0
0
0
0
0
0
0
0
0
0
0
0
0
0
0
6.74739e-44
2.34786e-47
0
0
0
0
0
0
0
0
0
0
0
0
0
0
0
0
0
5.80892e-47
0
0
0
0
0
0
0
0
0
0
0
0
0
0
0
0
0
0
0
0
0
0
0
0
0
0
0
0
0
0
0
0
0
0
0
0
0
0
0
0
0
0
0
0
0
0
0
0
0
0
0
0
0
0
0
0
0
0
0
0
0
0
0
0
0
0
0
0
0
0
0
0
0
0
0
0
0
0
0
0
0
0
0
0
0
0
0
0
0
0
0
0
0
0
0
0
0
0
0
0
0
0
0
0
0
0
0
0
0
0
0
0
0
0
0
0
0
0
0
0
0
0
0
0
0
0
0
0
0
0
0
0
0
0
0
0
0
0
0
0
0
0
0
0
0
0
0
0
0
0
0
0
0
0
0
0
0
0
0
0
0
0
0
0
0
0
0
0
0
0
0
0
0
0
0
0
0
0
0
0
0
0
0
0
0
0
0
0
0
0
0
0
0
0
0
0
0
0
0
0
0
0
0
0
0
0
0
0
0
0
0
0
0
0
0
0
0
0
0
0
0
0
0
0
0
0
0
0
0
0
0
0
0
0
0
0
0
0
0
0
0
0
0
0
0
0
0
0
0
0
0
0
0
0
0
0
0
0
0
0
0
0
0
0
0
0
0
0
0
0
0
0
0
0
0
0
0
0
0
0
0
0
0
0
)
;

boundaryField
{
    leftWall
    {
        type            alphaContactAngle;
        contactAngleProperties 
        {
            mercury         
            {
                theta0          90;
            }
            air             
            {
                theta0          90;
            }
            water           
            {
                theta0          90;
            }
        }
        value           uniform 0;
    }
    rightWall
    {
        type            alphaContactAngle;
        contactAngleProperties 
        {
            mercury         
            {
                theta0          90;
            }
            air             
            {
                theta0          90;
            }
            water           
            {
                theta0          90;
            }
        }
        value           uniform 0;
    }
    lowerWall
    {
        type            alphaContactAngle;
        contactAngleProperties 
        {
            mercury         
            {
                theta0          90;
            }
            air             
            {
                theta0          90;
            }
            water           
            {
                theta0          90;
            }
        }
        value           nonuniform List<scalar> 
62
(
0
0
0
0
0
0
0
0
0
0
0
-1.04087e-47
1.39484e-08
0.235572
0.953352
1
1
1
1
1
1
1
1
1
1
1
1
1
1
1
1
1
1
1
1
-6.4813e-30
-2.5675e-27
-2.26035e-25
4.946e-13
-4.9462e-13
1.59157e-11
6.6853e-09
0.0429319
-6.4813e-30
-2.85674e-31
-1.21677e-39
0
0
0
0
0
0
0
0
0
0
0
0
0
0
0
0
)
;
    }
    atmosphere
    {
        type            inletOutlet;
        inletValue      uniform 0;
        value           uniform 0;
    }
    defaultFaces
    {
        type            empty;
    }
}


// ************************************************************************* //
