/*--------------------------------*- C++ -*----------------------------------*\
  =========                 |
  \\      /  F ield         | OpenFOAM: The Open Source CFD Toolbox
   \\    /   O peration     | Website:  https://openfoam.org
    \\  /    A nd           | Version:  13
     \\/     M anipulation  |
\*---------------------------------------------------------------------------*/
FoamFile
{
    format      ascii;
    class       volScalarField;
    location    "0.05";
    object      alpha.water;
}
// * * * * * * * * * * * * * * * * * * * * * * * * * * * * * * * * * * * * * //

dimensions      [];

internalField   nonuniform List<scalar> 
2268
(
2.79227e-29
3.24241e-28
5.56867e-28
1.16479e-27
1.47336e-27
4.68416e-25
6.3447e-24
5.41798e-23
5.77275e-22
3.80119e-21
7.9668e-23
2.69623e-14
1.77661e-16
2.13252e-18
1.1366e-24
2.52918e-29
2.56733e-33
0
0
0
0
0
0
2.75912e-26
2.28496e-25
3.36065e-25
4.55444e-25
1.01218e-24
2.53293e-22
3.63462e-21
2.26947e-20
1.9077e-19
6.58971e-19
2.53324e-20
3.7942e-12
1.25241e-13
7.519e-17
4.32272e-22
2.44881e-24
5.21918e-27
1.2799e-33
0
0
0
0
0
9.02157e-24
5.76167e-23
7.3874e-23
8.59622e-23
5.35665e-22
1.56766e-20
7.34823e-19
3.39286e-18
2.29583e-17
1.50526e-17
1.27449e-18
1.90226e-10
7.61297e-12
8.34088e-15
5.86829e-20
1.4669e-23
1.80501e-24
2.94919e-27
2.29142e-37
0
0
0
0
1.33077e-21
6.92764e-21
7.8294e-21
4.47988e-20
1.20216e-19
8.55117e-18
6.91345e-17
2.41217e-16
1.21337e-15
2.65598e-15
1.07193e-16
5.34467e-09
2.32509e-10
2.01081e-13
1.08698e-19
2.59988e-20
1.93275e-22
5.28318e-28
1.22313e-29
2.40077e-31
0
0
0
1.81434e-19
7.04969e-19
1.3982e-18
6.86947e-18
1.2328e-17
4.29887e-16
3.03003e-15
9.48161e-15
3.54563e-14
3.31555e-14
-4.82663e-26
9.57119e-08
4.31857e-09
-1.48627e-27
1.08858e-16
3.29845e-17
2.94406e-18
6.59188e-20
1.12356e-23
4.52078e-25
5.63453e-32
0
0
5.52927e-17
1.3702e-16
3.45544e-16
3.21695e-16
3.09562e-16
7.21836e-15
8.51312e-14
1.26185e-13
3.72547e-13
1.15793e-12
9.35195e-14
1.16679e-06
5.50976e-08
-8.43168e-26
1.59489e-17
4.07743e-18
1.81764e-19
6.1321e-23
1.82915e-24
5.9425e-27
3.73646e-31
1.32144e-32
0
3.8009e-15
1.62875e-14
1.80594e-14
3.96098e-14
2.29191e-13
8.45264e-13
2.06168e-12
4.26306e-12
7.75006e-12
1.04695e-11
1.38425e-12
1.00152e-05
8.43721e-07
2.55269e-24
3.49362e-17
6.47365e-18
3.10817e-19
2.72928e-24
2.5732e-26
2.61558e-28
6.99765e-30
3.09336e-31
2.43005e-33
2.6172e-13
8.35424e-13
1.0288e-12
2.95025e-12
4.83895e-12
9.6719e-12
1.79867e-11
2.61963e-11
3.45516e-11
3.82643e-11
6.59813e-13
6.15355e-05
9.60187e-06
1.46024e-21
1.46818e-14
1.80271e-15
5.42819e-17
9.19918e-19
1.09382e-27
5.99105e-29
2.12704e-30
9.07644e-32
1.22662e-33
0
0
0
0
0
0
0
0
0
0
0
0
0
0
0
0
0
0
0
0
0
0
0
0
0
0
0
0
0
0
0
0
0
0
0
0
0
0
0
0
0
0
0
0
0
0
0
0
0
0
0
0
0
0
0
0
0
0
0
0
0
0
0
0
0
0
0
0
0
0
0
0
0
0
0
0
0
0
0
0
0
0
0
0
0
0
0
0
0
0
0
0
0
0
0
0
0
0
0
0
0
0
0
0
0
0
0
0
0
0
0
0
0
0
0
0
0
0
0
0
0
0
0
0
0
0
0
0
0
0
0
0
0
0
0
0
0
0
0
0
0
0
0
0
0
0
0
0
0
0
0
0
9.80715e-12
1.83228e-11
3.38091e-11
8.08563e-11
1.6765e-10
1.65962e-10
2.51859e-10
3.29818e-10
2.61493e-10
1.49189e-10
1.13571e-09
0.000281074
2.7472e-05
1.66988e-12
7.07859e-15
6.79397e-15
6.65614e-16
2.08781e-17
4.33647e-19
1.27096e-22
1.74074e-24
7.802e-26
2.98745e-27
1.40641e-10
2.72537e-10
6.65577e-10
1.87475e-09
3.44406e-09
5.0476e-09
4.84176e-09
5.79771e-09
4.92394e-09
2.83115e-10
8.88907e-11
0.00199937
2.45849e-06
2.08824e-06
1.97159e-08
3.73528e-15
6.38874e-15
4.17599e-16
9.20975e-18
4.12527e-19
1.74666e-21
9.99647e-23
5.36287e-24
1.03909e-08
1.00547e-08
5.36878e-09
1.97384e-09
1.52259e-09
2.63444e-09
5.62999e-09
6.76039e-09
0.00070608
0.00421954
0.0119506
0.0250856
0.00681869
6.39602e-05
2.5198e-09
4.76051e-09
2.99064e-10
1.14254e-14
1.39465e-15
5.42151e-17
1.45627e-18
3.3322e-20
1.57261e-21
0.226871
0.222538
0.229199
0.246733
0.273232
0.308887
0.354122
0.409315
0.473414
0.541689
0.611428
0.666331
0.105873
2.51983e-09
2.30986e-09
1.97281e-10
1.78336e-11
1.27308e-12
7.49375e-14
2.2912e-15
7.05903e-17
3.29519e-18
9.71962e-20
1
1
1
1
1
1
1
1
1
1
1
0.999942
0.178972
4.61298e-09
6.90373e-09
7.11899e-10
6.14454e-11
4.11763e-12
1.8108e-13
5.74867e-15
2.6962e-16
2.71604e-17
1.74948e-18
1
1
1
1
1
1
1
1
1
1
1
1
0.241282
3.48553e-09
3.55218e-09
4.04334e-10
4.06727e-11
3.36311e-12
1.8796e-13
6.7046e-15
2.56763e-16
2.18455e-17
1.24167e-18
1
1
1
1
1
1
1
1
1
1
1
1
0.248813
3.05022e-09
2.93717e-09
3.02001e-10
2.74414e-11
2.00884e-12
1.17003e-13
6.29929e-15
2.71597e-16
7.31459e-18
1.27277e-19
1
1
1
1
1
1
1
1
1
1
1
1
0.244587
2.605e-09
2.51479e-09
2.2749e-10
1.7904e-11
1.18943e-12
5.92238e-14
2.76983e-15
1.10033e-16
3.37757e-18
7.88006e-20
1
1
1
1
1
1
1
1
1
1
1
1
0.231164
2.55657e-09
2.64603e-09
3.3198e-10
1.469e-11
5.97114e-13
3.51636e-14
1.51775e-15
5.6136e-17
1.5218e-18
2.91274e-20
1
1
1
1
1
1
1
1
1
1
1
1
0.212674
3.71433e-09
6.48207e-09
4.05516e-10
1.38129e-11
3.58872e-13
1.09949e-14
5.66078e-16
1.7602e-17
4.05973e-19
1.04774e-22
1
1
1
1
1
1
1
1
1
1
1
1
0.191171
-1.72497e-18
6.31785e-09
2.7737e-10
3.78571e-12
4.26962e-14
1.47949e-15
7.01523e-17
2.22837e-18
4.7117e-20
9.89164e-24
1
1
1
1
1
1
1
1
1
1
1
1
0.167984
1.06262e-19
6.26577e-10
6.35029e-11
1.35509e-12
1.78108e-16
1.45165e-18
1.91678e-20
1.24774e-21
4.22021e-23
1.05344e-24
1
1
1
1
1
1
1
1
1
1
1
1
0.14389
-4.10211e-19
4.04512e-11
1.93999e-12
3.17632e-14
1.66238e-16
1.27646e-18
4.45801e-21
6.7997e-22
4.32932e-23
1.33204e-24
1
1
1
1
1
1
1
1
1
1
1
0.999999
0.119293
3.79197e-09
2.42205e-11
2.26631e-12
7.49816e-14
5.9367e-17
1.57846e-20
1.04688e-22
1.25564e-23
7.04464e-25
7.37762e-27
1
1
1
1
1
1
1
1
1
1
1
0.999991
0.0942933
2.9189e-08
2.19181e-10
1.54726e-11
5.36914e-13
1.41714e-15
5.2531e-20
6.82758e-23
5.90459e-26
6.96219e-29
7.05824e-32
1
1
1
1
1
1
1
1
1
1
1
0.999932
0.0703704
5.8202e-08
6.73354e-10
4.89874e-11
1.63896e-12
2.5826e-14
2.56657e-18
8.01208e-21
1.43437e-23
6.63278e-27
5.1855e-35
1
1
1
1
1
1
1
1
1
1
1
0.999451
0.0547772
1.77874e-06
4.08568e-10
2.72279e-11
6.2223e-13
3.88239e-15
3.57316e-18
3.77689e-20
2.24946e-24
5.81486e-28
1.60046e-33
0.993067
0.995647
0.99676
0.996411
0.995735
0.994827
0.993666
0.992021
0.990139
0.988236
0.986651
0.984292
0.0497874
2.94541e-17
-3.2224e-18
-2.23424e-19
-6.18158e-21
-1.03381e-22
-1.20225e-24
-1.01969e-26
-6.34544e-29
-2.84583e-31
-9.01899e-34
0.424067
0.453623
0.468891
0.464048
0.454956
0.443477
0.430284
0.416179
0.401542
0.388047
0.377714
0.371429
0.029114
4.85289e-21
-6.21295e-20
-2.61136e-21
-5.38693e-23
-7.07211e-25
-6.46232e-27
-4.26898e-29
-2.06106e-31
-7.0527e-34
-1.53866e-36
0
0
0
0
0
0
0
0
0
0
0
0
0
0
0
0
0
0
0
0
0
0
0
0
0
0
0
0
0
0
0
0
0
0
0
0
0
0
0
0
0
0
0
0
0
0
0
0
0
0
0
0
0
0
0
0
0
0
0
0
0
0
0
0
0
0
0
0
0
0
0
0
0
0
0
0
0
0
0
0
0
0
0
0
0
0
0
0
0
0
0
0
0
0
0
0
0
0
0
0
0
0
0
0
0
0
0
0
0
0
0
0
0
0
0
0
0
0
0
0
0
0
0
0
0
0
0
0
0
0
0
0
0
0
0
0
0
0
0
0
0
0
0
0
0
0
0
0
0
0
0
0
0
0
0
0
0
0
0
0
0
0
0
0
0
0
0
0
0
0
0
0
0
0
0
0
0
0
0
0
0
0
0
0
0
0
0
0
0
0
0
0
0
0
0
0
0
0
0
0
0
0
0
0
0
0
0
0
0
0
0
0
0
0
0
0
0
0
0
0
0
0
0
0
0
0
0
0
0
0
0
0
0
0
0
0
0
0
0
0
0
0
0
0
0
0
0
0
0
0
0
0
0
0
0
0
0
0
0
0
0
0
0
0
0
0
0
0
0
0
0
0
0
0
0
0
0
0
0
0
0
0
0
0
0
0
0
0
0
0
0
0
0
0
0
0
0
0
0
0
0
0
0
0
0
0
0
0
0
0
0
0
0
0
0
0
0
0
0
0
0
0
0
0
0
0
0
0
0
0
0
0
0
0
0
0
0
0
0
0
0
0
0
0
0
0
0
0
0
0
0
0
0
0
0
0
0
0
0
0
0
0
0
0
0
0
0
0
0
0
0
0
0
0
0
0
0
0
0
0
0
0
0
0
0
0
0
0
0
0
0
0
0
0
0
0
0
0
0
0
0
0
0
0
0
0
0
0
0
0
0
0
0
0
0
0
0
0
0
0
0
0
0
0
0
0
0
0
0
0
0
0
0
0
0
0
0
0
0
0
0
0
0
0
0
0
0
0
0
0
0
0
0
0
0
0
0
0
0
0
0
0
0
0
0
0
0
0
0
0
0
0
0
0
0
0
0
0
0
0
0
0
0
0
0
0
0
0
0
0
0
0
0
0
0
0
0
0
0
0
0
0
0
0
0
0
0
0
0
0
0
0
0
0
0
0
0
0
0
0
0
0
0
0
0
0
0
0
0
1.56433e-29
1.23321e-30
0
0
4.04189e-25
4.6308e-27
2.60903e-28
0
9.81372e-23
1.37638e-23
4.16135e-25
1.51711e-30
4.91989e-21
3.45479e-22
1.11479e-24
1.06463e-30
1.32932e-19
4.0446e-21
2.37356e-28
1.45579e-33
8.27551e-20
2.29887e-21
1.69911e-25
-7.25542e-42
1.43237e-20
4.73306e-23
3.77331e-29
-6.66517e-42
3.51181e-21
8.55062e-24
5.77785e-30
-2.82852e-39
1.0217e-21
1.53019e-24
1.10917e-30
-1.08969e-39
7.23833e-24
1.36413e-25
2.27411e-29
-1.05697e-38
2.2034e-25
2.16491e-28
3.01958e-36
6.9132e-39
2.42857e-27
7.46763e-31
2.59007e-35
4.9954e-37
8.89891e-32
2.6594e-30
3.75521e-35
4.15315e-40
1.99528e-33
9.04212e-33
6.03978e-36
6.56245e-43
1.17362e-33
9.66341e-36
1.24063e-37
9.58055e-52
-2.78969e-42
2.77227e-40
2.87071e-42
1.51239e-51
-3.68099e-36
-1.66869e-38
-3.97689e-41
3.41874e-48
-4.16353e-36
-7.21559e-39
1.83605e-50
0
-4.30835e-39
-8.73234e-55
-5.82685e-58
0
0
0
-9.90563e-92
0
0
0
0
0
0
0
0
0
0
0
0
0
0
0
0
0
0
0
0
0
0
0
0
0
0
0
0
0
0
0
0
0
0
0
0
0
0
0
0
0
0
0
0
0
0
0
0
0
0
0
0
0
0
0
0
0
0
0
0
0
0
0
0
0
0
0
0
0
0
0
0
0
0
0
0
0
0
0
0
0
0
0
0
0
0
0
0
0
0
0
0
0
0
0
0
0
0
0
0
0
0
0
0
0
0
0
0
0
0
0
0
0
0
0
0
0
0
0
0
0
0
0
0
0
0
0
0
0
0
0
0
0
0
0
0
0
0
0
0
0
0
0
0
0
0
0
0
0
0
0
0
0
0
0
0
0
0
0
0
0
0
0
0
0
0
0
0
0
0
0
0
0
0
0
0
0
0
0
0
0
0
0
0
-5.46471e-43
0
0
0
0
0
0
0
0
0
0
0
0
0
0
0
0
0
0
-3.34461e-45
-1.83386e-46
0
0
0
0
0
0
0
0
0
0
0
0
0
0
0
0
0
-6.76609e-42
0
0
0
0
0
0
0
0
0
0
0
0
0
0
0
0
0
0
-2.22754e-42
0
0
0
0
0
0
0
0
0
0
0
0
0
0
0
0
0
0
1.20727e-44
0
0
0
0
0
0
0
0
0
0
0
0
0
0
0
0
0
0
-1.81119e-40
0
0
0
0
0
0
0
0
0
0
0
0
0
0
0
0
0
0
3.5591e-56
2.59348e-58
0
0
0
0
0
0
0
0
0
0
0
0
0
0
0
0
0
4.71673e-58
0
0
0
0
0
0
0
0
0
0
0
0
0
0
0
0
0
0
0
0
0
0
0
0
0
0
0
0
0
0
0
0
0
0
0
0
0
0
0
0
0
0
0
0
0
0
0
0
0
0
0
0
0
0
0
0
0
0
0
0
0
0
0
0
0
0
0
0
0
0
0
0
0
0
0
0
0
0
0
0
0
0
0
0
0
0
0
0
0
0
0
0
0
0
0
0
0
0
0
0
0
0
0
0
0
0
0
0
0
0
0
0
0
0
0
0
0
0
0
0
0
0
0
0
0
0
0
0
0
0
0
0
0
0
0
0
0
0
0
0
0
0
0
0
0
0
0
0
0
0
0
0
0
0
0
0
0
0
0
0
0
0
0
0
0
0
0
0
0
0
0
0
0
0
0
0
0
0
0
0
0
0
0
0
0
0
0
0
0
0
0
0
0
0
0
0
0
0
0
0
0
0
0
0
0
0
0
0
0
0
0
0
0
0
0
0
0
0
0
0
0
0
0
0
0
0
0
0
0
0
0
0
0
0
0
0
0
0
0
0
0
0
0
0
0
0
0
0
0
0
0
0
0
0
0
0
0
0
0
0
0
0
0
0
0
0
0
0
0
0
0
0
0
0
0
0
0
0
0
0
0
0
0
0
0
0
0
0
0
0
0
0
0
0
0
0
0
0
0
0
0
0
0
0
0
0
0
0
0
0
0
0
0
0
0
0
0
0
0
0
0
0
0
0
0
0
0
0
0
0
0
0
0
0
0
0
0
0
0
0
0
0
0
0
0
0
0
0
0
0
0
0
0
0
0
0
0
0
0
0
0
0
0
0
0
0
0
0
0
0
0
0
0
0
0
0
0
0
0
0
0
0
0
0
0
0
0
0
0
0
0
0
0
0
0
0
0
0
0
0
0
0
0
0
0
0
0
0
0
0
0
0
0
0
0
0
0
0
0
0
0
0
0
0
0
0
0
0
0
0
0
0
0
0
0
0
0
0
0
0
0
0
0
0
0
0
0
0
0
0
0
0
0
0
0
0
0
0
0
0
0
0
0
0
0
0
0
0
0
0
0
0
0
0
0
0
0
0
0
0
0
0
0
0
0
0
0
0
0
0
0
0
0
0
0
0
0
0
0
0
0
0
0
0
0
0
0
0
0
0
0
0
0
0
0
0
0
0
0
0
0
0
0
0
0
0
0
0
0
0
0
0
0
0
0
0
0
0
0
0
0
0
0
0
0
0
0
0
0
0
0
0
0
0
0
0
0
0
0
0
0
0
0
0
0
0
0
0
0
)
;

boundaryField
{
    leftWall
    {
        type            alphaContactAngle;
        contactAngleProperties 
        {
            mercury         
            {
                theta0          90;
            }
            air             
            {
                theta0          90;
            }
            oil             
            {
                theta0          90;
            }
        }
        value           nonuniform List<scalar> 
50
(
2.79227e-29
2.75912e-26
9.02157e-24
1.33077e-21
1.81434e-19
5.52927e-17
3.8009e-15
2.6172e-13
9.80715e-12
1.40641e-10
1.03909e-08
0.226871
1
1
1
1
1
1
1
1
1
1
1
1
1
0.993067
0.424067
0
0
0
0
0
0
0
0
0
0
0
0
0
0
0
0
0
0
0
0
0
0
0
)
;
    }
    rightWall
    {
        type            alphaContactAngle;
        contactAngleProperties 
        {
            mercury         
            {
                theta0          90;
            }
            air             
            {
                theta0          90;
            }
            oil             
            {
                theta0          90;
            }
        }
        value           uniform 0;
    }
    lowerWall
    {
        type            alphaContactAngle;
        contactAngleProperties 
        {
            mercury         
            {
                theta0          90;
            }
            air             
            {
                theta0          90;
            }
            oil             
            {
                theta0          90;
            }
        }
        value           nonuniform List<scalar> 
62
(
2.79227e-29
3.24241e-28
5.56867e-28
1.16479e-27
1.47336e-27
4.68416e-25
6.3447e-24
5.41798e-23
5.77275e-22
3.80119e-21
7.9668e-23
2.69623e-14
1.77661e-16
2.13252e-18
1.1366e-24
2.52918e-29
2.56733e-33
0
0
0
0
0
0
0
0
0
0
0
0
2.43005e-33
1.22662e-33
1.56433e-29
1.23321e-30
0
0
0
0
0
0
0
0
0
0
0
0
0
0
0
0
0
0
0
0
0
0
0
0
0
0
0
0
0
)
;
    }
    atmosphere
    {
        type            inletOutlet;
        inletValue      uniform 0;
        value           uniform 0;
    }
    defaultFaces
    {
        type            empty;
    }
}


// ************************************************************************* //
