/*--------------------------------*- C++ -*----------------------------------*\
  =========                 |
  \\      /  F ield         | OpenFOAM: The Open Source CFD Toolbox
   \\    /   O peration     | Website:  https://openfoam.org
    \\  /    A nd           | Version:  13
     \\/     M anipulation  |
\*---------------------------------------------------------------------------*/
FoamFile
{
    format      ascii;
    class       volScalarField;
    location    "0.05";
    object      epsilon;
}
// * * * * * * * * * * * * * * * * * * * * * * * * * * * * * * * * * * * * * //

dimensions      [0 2 -3 0 0 0 0];

internalField   nonuniform List<scalar> 
2268
(
0.634634
0.841468
0.933159
0.969081
0.987795
1.00451
1.02568
1.05612
1.10249
1.17681
1.27975
1.36868
1.41199
1.31447
1.21595
1.10662
1.03584
1.00492
0.986562
0.964929
0.928097
0.846812
0.651603
0.619989
0.497004
0.462299
0.450589
0.447126
0.446766
0.447929
0.4507
0.45634
0.467923
0.482825
0.493628
0.505134
0.52558
0.621085
0.63149
0.588052
0.549325
0.528171
0.525315
0.537048
0.558924
0.632353
0.695656
0.400534
0.323366
0.297374
0.288394
0.28554
0.285128
0.286301
0.289462
0.295668
0.301816
0.304115
0.307808
0.327696
0.388522
0.409666
0.391721
0.367938
0.355035
0.359651
0.386246
0.452718
0.761258
0.726755
0.356157
0.257884
0.224607
0.212744
0.208871
0.2083
0.209628
0.212697
0.217439
0.220717
0.219832
0.218829
0.231652
0.265894
0.285345
0.279387
0.266189
0.259917
0.269326
0.304363
0.398813
0.844671
0.742448
0.333434
0.222912
0.185132
0.171354
0.166766
0.166096
0.167534
0.170485
0.174218
0.175838
0.17346
0.170879
0.179812
0.199216
0.212861
0.211743
0.204722
0.202834
0.215614
0.257121
0.374188
0.917159
0.750903
0.321165
0.20307
0.162233
0.14705
0.141864
0.141021
0.142401
0.145085
0.147978
0.148544
0.145635
0.143193
0.150586
0.161718
0.169881
0.170192
0.166499
0.167364
0.182687
0.230375
0.371455
0.998991
0.755679
0.31422
0.191399
0.148419
0.132162
0.126455
0.12538
0.126585
0.12892
0.131112
0.13103
0.128141
0.126531
0.133519
0.139982
0.144082
0.14452
0.142621
0.145266
0.162669
0.217042
0.388591
1.116
0.75863
0.310004
0.184343
0.139881
0.122803
0.116641
0.115298
0.11625
0.118191
0.119794
0.119321
0.116734
0.116186
0.123208
0.127126
0.128621
0.128887
0.128076
0.131985
0.151081
0.211793
0.41957
1.3586
0.698518
0.934629
1.03321
1.05347
1.04389
1.02727
1.01609
1.00732
0.998572
0.989834
0.981181
0.97264
0.964181
0.955645
0.946485
0.934565
0.911087
0.842315
0.650653
0.613505
0.525651
0.489297
0.471558
0.46524
0.464835
0.467801
0.4711
0.472908
0.473414
0.473048
0.472185
0.471101
0.470044
0.469374
0.470133
0.475948
0.499548
0.594831
0.6901
0.446403
0.358494
0.317843
0.302066
0.298368
0.300023
0.302887
0.304986
0.306126
0.306549
0.306544
0.306367
0.306339
0.307214
0.311505
0.327866
0.388174
0.678193
0.727032
0.432584
0.312516
0.25312
0.227891
0.219495
0.218584
0.220026
0.221477
0.222392
0.222814
0.222926
0.222947
0.223256
0.224908
0.231344
0.253789
0.333682
0.713296
0.76623
0.460641
0.307176
0.226231
0.190649
0.177296
0.173774
0.173767
0.174479
0.175043
0.175322
0.175406
0.175483
0.175989
0.178223
0.186241
0.212729
0.304567
0.731743
0.839426
0.526209
0.33076
0.22099
0.172567
0.153758
0.147631
0.146253
0.146258
0.146469
0.146582
0.146603
0.1467
0.147362
0.150086
0.159352
0.188752
0.288445
0.742299
0.988203
0.651112
0.374586
0.22999
0.165711
0.140771
0.132002
0.129314
0.128653
0.128526
0.128472
0.128423
0.128529
0.129329
0.132479
0.142758
0.174362
0.2794
0.748567
1.24961
0.897253
0.444189
0.245728
0.165378
0.134097
0.1227
0.11876
0.117467
0.117016
0.116798
0.116678
0.116788
0.117713
0.121235
0.132351
0.165659
0.274367
0.752377
0.761374
0.306029
0.177894
0.131904
0.113894
0.10718
0.105484
0.106096
0.107577
0.108641
0.108006
0.106085
0.106912
0.11354
0.115104
0.114536
0.114728
0.11519
0.120616
0.14122
0.204081
0.398816
0.938631
0.763706
0.303215
0.174186
0.127504
0.108899
0.101675
0.0994761
0.0995019
0.100309
0.10085
0.100326
0.0994603
0.101813
0.10833
0.109672
0.1094
0.110258
0.111919
0.117929
0.135532
0.180028
0.287198
0.501618
0.765285
0.301372
0.172524
0.125676
0.106744
0.0991066
0.0964021
0.0958187
0.095996
0.0961788
0.0960297
0.0963904
0.0998589
0.106065
0.10809
0.108952
0.110492
0.112768
0.118219
0.130836
0.156305
0.200565
0.251152
0.764198
0.303808
0.173266
0.125716
0.106327
0.0982562
0.0950761
0.0939665
0.0936537
0.0936258
0.0938954
0.0953222
0.0995209
0.104565
0.106783
0.108504
0.110328
0.112658
0.116963
0.125014
0.138194
0.155685
0.169378
0.772563
0.308389
0.175804
0.127239
0.107242
0.0987077
0.0951073
0.0935842
0.0928984
0.0926756
0.0931696
0.0953249
0.100025
0.103189
0.104483
0.106048
0.107798
0.109996
0.113331
0.118472
0.125487
0.13298
0.137219
0.772335
0.305695
0.176345
0.12797
0.107682
0.0988565
0.0950353
0.0933721
0.0926144
0.0923556
0.0927879
0.0945809
0.097903
0.0997697
0.10065
0.101991
0.103787
0.105954
0.1087
0.112217
0.116331
0.120256
0.123049
0.773304
0.307871
0.176744
0.128037
0.107674
0.0988467
0.0950656
0.0934561
0.0927129
0.0923302
0.0923302
0.0931751
0.0950452
0.096201
0.0969332
0.0982809
0.100085
0.102141
0.104456
0.107062
0.109879
0.112863
0.117034
0.775439
0.308045
0.176388
0.127724
0.107482
0.0987661
0.0950675
0.0935021
0.0927487
0.0922633
0.0919879
0.0922767
0.0932916
0.0939202
0.0945635
0.0958193
0.0974584
0.0992691
0.101198
0.103251
0.105524
0.108641
0.115244
0.777736
0.306629
0.175216
0.126916
0.10693
0.0983897
0.0948107
0.093323
0.0926125
0.0921267
0.091768
0.0918142
0.0923783
0.0927257
0.0933069
0.0944142
0.0958098
0.0973229
0.0989047
0.100595
0.102685
0.106394
0.115817
0.779882
0.304895
0.17387
0.125987
0.106272
0.0979094
0.0944518
0.0930523
0.0924122
0.0919813
0.0916362
0.0915941
0.0919302
0.0921483
0.0926912
0.0936534
0.0948122
0.0960466
0.0973391
0.0987874
0.100882
0.105404
0.117813
0.781794
0.303269
0.172631
0.125131
0.105659
0.097455
0.0941055
0.0927875
0.0922192
0.0918552
0.0915533
0.0914831
0.0917007
0.0918676
0.0923875
0.0932289
0.0941906
0.0951957
0.0962644
0.097562
0.0997741
0.10524
0.120755
0.78346
0.30188
0.171578
0.124403
0.105139
0.09707
0.0938121
0.0925632
0.0920562
0.0917514
0.0914932
0.0914149
0.0915668
0.0917181
0.0922206
0.0929647
0.0937718
0.0946002
0.0955067
0.0967275
0.0991429
0.105654
0.124425
0.784884
0.300802
0.170733
0.123812
0.104716
0.0967583
0.0935765
0.0923832
0.0919244
0.0916663
0.0914447
0.0913646
0.0914779
0.0916272
0.0921102
0.0927734
0.0934607
0.0941576
0.0949549
0.0961637
0.0988678
0.106544
0.12879
0.786082
0.300109
0.170113
0.123354
0.104384
0.0965157
0.0933948
0.0922445
0.0918215
0.0915988
0.0914076
0.0913308
0.0914219
0.0915705
0.0920257
0.0926182
0.0932136
0.0938178
0.094555
0.0958205
0.0989257
0.107959
0.134023
0.787074
0.299868
0.169739
0.123037
0.104147
0.0963435
0.0932686
0.0921497
0.0917522
0.0915567
0.0913942
0.0913302
0.0914122
0.0915538
0.0919713
0.0925032
0.0930362
0.0935921
0.094331
0.0957497
0.09943
0.110133
0.140516
0.788053
0.300015
0.169606
0.12287
0.104013
0.0962504
0.0932075
0.0921116
0.0917342
0.091563
0.0914324
0.0913984
0.0914873
0.091613
0.0919904
0.0924859
0.0930056
0.0935907
0.0944476
0.0961979
0.100745
0.113618
0.149171
0.789198
0.300395
0.169742
0.122877
0.103997
0.09625
0.0932307
0.0921594
0.0918095
0.0916717
0.091582
0.0915929
0.0917033
0.0918265
0.0921987
0.0927231
0.0933355
0.0941186
0.0953551
0.097823
0.10378
0.119599
0.161544
0.788612
0.303337
0.170807
0.123261
0.104198
0.0964254
0.0934299
0.0923999
0.0921007
0.0920164
0.0919746
0.0920217
0.0922078
0.0924674
0.0929787
0.0937015
0.0946424
0.09598
0.0981302
0.102072
0.110433
0.130345
0.179021
0.787239
0.317115
0.173868
0.124093
0.104607
0.0968028
0.0938718
0.092934
0.0927338
0.0927368
0.0927403
0.0927876
0.0931627
0.0939546
0.094987
0.0963044
0.0980743
0.100665
0.104717
0.111446
0.12383
0.149827
0.205022
0.823126
0.349714
0.177526
0.125035
0.105298
0.0976108
0.0948675
0.0941275
0.094111
0.0942521
0.0942966
0.0942156
0.0950521
0.0971167
0.0993512
0.102032
0.105553
0.110611
0.11819
0.129675
0.148103
0.184318
0.261659
0.868474
0.309973
0.171655
0.123135
0.104571
0.0974292
0.0949893
0.0944719
0.0946386
0.0948939
0.0952152
0.0952845
0.0960068
0.0981622
0.100919
0.104727
0.109927
0.117402
0.128329
0.143307
0.160635
0.184151
0.227619
0.834162
0.296307
0.167118
0.122
0.104119
0.0971044
0.0946669
0.0940968
0.0941959
0.0944136
0.0945317
0.0946191
0.094844
0.0959742
0.097794
0.100515
0.104519
0.110532
0.119519
0.132006
0.146378
0.15887
0.168533
0.823747
0.293632
0.165332
0.120888
0.103305
0.0963078
0.0937757
0.093071
0.093039
0.0931814
0.0932928
0.0933314
0.0933961
0.093901
0.094952
0.0966666
0.0993201
0.103403
0.109524
0.117997
0.127978
0.137292
0.144714
0.817414
0.292686
0.164886
0.120536
0.102996
0.0959758
0.0933826
0.0926004
0.0924956
0.0925972
0.0927151
0.0927922
0.0928794
0.093192
0.0938705
0.0950338
0.0968748
0.0997037
0.103888
0.10962
0.116504
0.123397
0.129173
0.813098
0.292416
0.164822
0.120463
0.102908
0.0958617
0.09323
0.0924026
0.0922555
0.0923329
0.0924597
0.0925808
0.0927212
0.0929947
0.0935123
0.0943726
0.0957058
0.0976944
0.100536
0.104318
0.10881
0.113355
0.117142
0.809679
0.292358
0.164871
0.120483
0.1029
0.0958275
0.0931665
0.0923077
0.0921312
0.0921889
0.0923155
0.0924605
0.0926343
0.0928987
0.0933269
0.0939892
0.0949668
0.0963571
0.0982499
0.100659
0.103421
0.106149
0.108372
0.806857
0.292355
0.164935
0.120516
0.102906
0.0958081
0.0931224
0.0922384
0.0920378
0.0920765
0.0921948
0.0923445
0.0925273
0.0927763
0.0931357
0.0936502
0.0943664
0.095331
0.0965755
0.0980807
0.0997323
0.101308
0.102563
0.804465
0.292363
0.164994
0.120546
0.102909
0.0957888
0.0930825
0.0921783
0.091958
0.0919794
0.0920852
0.0922279
0.0924035
0.0926289
0.0929293
0.0933309
0.0938583
0.094531
0.0953537
0.0962994
0.0972908
0.0982027
0.0989158
0.802365
0.292373
0.165047
0.120568
0.102905
0.0957659
0.0930425
0.0921222
0.0918862
0.0918926
0.0919848
0.0921151
0.0922755
0.0924739
0.092724
0.0930399
0.0934333
0.0939103
0.0944656
0.0950741
0.0956851
0.0962279
0.0966454
0.800466
0.292386
0.165097
0.120585
0.102897
0.0957392
0.0930013
0.0920682
0.0918196
0.0918132
0.0918925
0.0920089
0.0921519
0.0923241
0.0925323
0.0927836
0.0930825
0.093429
0.0938149
0.0942201
0.0946115
0.094948
0.095203
0.798712
0.292407
0.165148
0.1206
0.102886
0.0957105
0.0929597
0.0920159
0.0917572
0.0917402
0.0918079
0.091911
0.0920372
0.092186
0.0923604
0.0925632
0.0927952
0.0930539
0.0933311
0.0936117
0.0938735
0.0940921
0.0942551
0.797069
0.292439
0.165202
0.120617
0.102875
0.0956814
0.0929186
0.0919658
0.0916988
0.0916732
0.091731
0.0918223
0.0919337
0.0920627
0.0922102
0.0923765
0.0925608
0.0927596
0.0929657
0.0931678
0.093351
0.0934999
0.0936093
0.795525
0.292484
0.165261
0.120636
0.102865
0.0956536
0.0928795
0.0919187
0.091645
0.0916122
0.0916619
0.0917432
0.0918421
0.0919549
0.0920812
0.0922202
0.0923701
0.0925273
0.0926857
0.0928371
0.0929709
0.0930775
0.0931545
0.794072
0.292543
0.165327
0.120658
0.102858
0.0956285
0.0928437
0.0918759
0.0915965
0.091558
0.091601
0.0916742
0.0917627
0.0918626
0.0919724
0.0920907
0.0922155
0.0923432
0.092469
0.0925866
0.0926886
0.0927685
0.0928257
0.792711
0.292616
0.165397
0.120683
0.102854
0.0956073
0.092813
0.0918394
0.0915555
0.0915124
0.0915499
0.0916164
0.0916967
0.0917862
0.0918832
0.0919858
0.092092
0.0921985
0.0923012
0.0923955
0.092476
0.0925386
0.0925834
0.791444
0.292698
0.165462
0.120703
0.102849
0.0955916
0.0927917
0.0918146
0.0915274
0.0914807
0.0915138
0.0915749
0.0916485
0.0917297
0.0918164
0.091907
0.091999
0.0920896
0.0921754
0.0922526
0.0923176
0.0923678
0.0924041
0.790316
0.292763
0.165482
0.12069
0.102835
0.095585
0.0927909
0.091816
0.0915282
0.091479
0.0915084
0.0915648
0.0916324
0.0917065
0.0917848
0.0918655
0.0919462
0.0920241
0.0920963
0.0921594
0.0922109
0.0922497
0.0922774
0.789585
0.2927
0.165298
0.120546
0.102778
0.0955966
0.0928416
0.0918836
0.0916006
0.0915505
0.0915764
0.0916279
0.0916897
0.0917568
0.0918271
0.0918985
0.0919689
0.0920354
0.0920948
0.0921437
0.0921795
0.0922011
0.0922114
0.791245
0.292045
0.164339
0.119976
0.102592
0.0956546
0.0930236
0.0921172
0.0918507
0.0918025
0.0918248
0.0918703
0.0919247
0.0919835
0.0920444
0.0921056
0.0921646
0.0922186
0.0922638
0.0922954
0.0923073
0.0922946
0.0922576
0.809761
0.288991
0.16079
0.118212
0.102103
0.0958476
0.0935278
0.0927427
0.0925147
0.0924734
0.0924914
0.0925285
0.0925727
0.09262
0.0926685
0.0927162
0.092761
0.0927998
0.0928281
0.0928379
0.0928147
0.0927354
0.0925742
0.935287
0.276365
0.149935
0.113781
0.101114
0.096426
0.0947472
0.0941943
0.0940375
0.0940102
0.0940235
0.0940496
0.0940802
0.0941125
0.0941449
0.094176
0.0942038
0.0942257
0.0942373
0.0942283
0.0941722
0.0940028
0.0935756
1.63816
0.22074
0.123712
0.105344
0.0998558
0.0979714
0.0973273
0.0971239
0.0970706
0.0970658
0.0970761
0.0970914
0.0971087
0.0971267
0.0971447
0.0971618
0.0971771
0.0971895
0.0971971
0.0971946
0.09716
0.0969977
0.0963003
2.21075
1.85995
1.59153
1.43018
0.594795
0.561306
0.502329
0.458037
0.255597
0.248377
0.238009
0.231199
0.169169
0.166627
0.164238
0.164786
0.137825
0.139038
0.141853
0.147346
0.127061
0.132249
0.14023
0.149481
0.125464
0.135254
0.149721
0.163853
0.128447
0.143259
0.165729
0.18486
0.133953
0.153626
0.182593
0.206289
0.141161
0.165817
0.201507
0.229312
0.149622
0.179363
0.22168
0.251184
0.159238
0.194292
0.242999
0.27065
0.170235
0.211281
0.265603
0.285662
0.183071
0.231702
0.289243
0.294119
0.197789
0.255187
0.313223
0.30269
0.215007
0.279693
0.339312
0.319638
0.238171
0.313368
0.372151
0.337924
0.265101
0.357037
0.420516
0.356414
0.274934
0.339343
0.382487
0.315931
0.319397
0.337141
0.286842
0.225662
0.239052
0.218164
0.194374
0.173756
0.171763
0.169473
0.163647
0.155344
0.147785
0.147381
0.144961
0.140717
0.131348
0.131309
0.129974
0.127371
0.118445
0.118403
0.117579
0.11598
0.109094
0.109053
0.10856
0.107617
0.102959
0.102927
0.102638
0.102091
0.0991358
0.0991123
0.0989401
0.098617
0.0967709
0.0967529
0.0966457
0.0964471
0.0952769
0.0952623
0.0951921
0.0950636
0.0943002
0.0942882
0.0942394
0.0941519
0.0936378
0.0936277
0.0935924
0.0935298
0.0931734
0.0931651
0.0931384
0.0930919
0.0928391
0.0928323
0.0928117
0.0927759
0.0925938
0.0925885
0.0925722
0.0925439
0.0924127
0.0924085
0.0923953
0.0923721
0.0922828
0.0922782
0.0922659
0.0922451
0.092205
0.0921942
0.0921772
0.0921535
0.0922075
0.0921711
0.0921325
0.0920926
0.0923754
0.0922544
0.0921491
0.0920616
0.092884
0.0925186
0.0922464
0.0920546
0.0938859
0.0929463
0.0923768
0.0920369
0.992381
0.814512
0.513725
0.268468
0.167909
0.129175
0.114208
0.108527
0.106333
0.105409
0.104948
0.104718
0.10483
0.105929
0.10995
0.122145
0.157525
0.270151
0.756055
0.419287
0.458302
0.377693
0.234613
0.16005
0.125724
0.110272
0.10361
0.100689
0.0993176
0.0986004
0.0982428
0.0983402
0.0995779
0.104001
0.11701
0.153804
0.268649
0.758766
0.236587
0.266978
0.236341
0.183776
0.145488
0.121274
0.108274
0.101816
0.0986453
0.0970188
0.0961255
0.0956694
0.0957424
0.0970503
0.101686
0.115109
0.15257
0.268386
0.76087
0.170577
0.187682
0.176154
0.154269
0.132882
0.116638
0.106568
0.100935
0.097882
0.0961864
0.0952059
0.0946892
0.0947402
0.0960768
0.100812
0.11443
0.152198
0.268504
0.762669
0.149212
0.153309
0.146173
0.135234
0.122861
0.112219
0.104786
0.100183
0.0974545
0.0958245
0.0948325
0.0942931
0.0943328
0.0956811
0.100463
0.114176
0.152108
0.268739
0.764279
0.146881
0.137031
0.129127
0.122398
0.115219
0.108345
0.103009
0.0993808
0.0970473
0.0955562
0.0946042
0.0940721
0.0941138
0.095472
0.100283
0.114056
0.152105
0.269013
0.765705
0.156756
0.131966
0.119626
0.114051
0.109638
0.105178
0.101372
0.098551
0.0965964
0.0952699
0.0943856
0.093881
0.0939365
0.0953091
0.100147
0.113973
0.152132
0.269307
0.766946
0.17037
0.132214
0.114606
0.108715
0.105673
0.102697
0.0999496
0.0977484
0.0961189
0.0949531
0.0941464
0.0936803
0.0937578
0.0951505
0.100019
0.113901
0.152174
0.269616
0.767982
0.184921
0.133997
0.11171
0.10521
0.102857
0.100791
0.0987587
0.0970141
0.0956461
0.0946224
0.0938919
0.0934678
0.0935721
0.0949893
0.0998924
0.113837
0.152231
0.269941
0.768816
0.197085
0.135306
0.109721
0.102798
0.100838
0.0993403
0.0977874
0.0963703
0.0952034
0.0942974
0.0936351
0.0932522
0.0933848
0.0948293
0.0997713
0.113784
0.152305
0.27028
0.769435
0.20606
0.135795
0.108197
0.101097
0.0993912
0.0982521
0.0970152
0.0958256
0.094807
0.0939934
0.0933885
0.0930429
0.0932036
0.0946769
0.0996606
0.113744
0.152397
0.270634
0.76985
0.211615
0.135662
0.10701
0.0999046
0.0983783
0.0974611
0.0964217
0.0953809
0.094465
0.09372
0.093161
0.0928476
0.0930349
0.0945377
0.099565
0.113723
0.152511
0.271
0.770055
0.215051
0.135444
0.106159
0.0991264
0.0977256
0.0969257
0.0959893
0.0950321
0.09418
0.0934821
0.092958
0.0926718
0.0928839
0.094416
0.0994879
0.113721
0.152646
0.271377
0.770068
0.217878
0.135458
0.105639
0.0987346
0.0974025
0.0966205
0.0957022
0.094772
0.0939501
0.0932808
0.092782
0.0925185
0.0927534
0.0943147
0.0994318
0.113742
0.152801
0.27176
0.769889
0.221515
0.135572
0.105409
0.0987424
0.0974023
0.0965278
0.0955451
0.094591
0.0937706
0.0931147
0.0926334
0.0923889
0.0926453
0.0942354
0.0993978
0.113784
0.152975
0.272147
0.76954
0.225777
0.13503
0.105431
0.0991963
0.0977278
0.0966297
0.0954997
0.0944766
0.0936345
0.0929803
0.0925109
0.092283
0.0925599
0.0941787
0.0993864
0.113847
0.153167
0.272531
0.769025
0.225517
0.13297
0.105934
0.100214
0.0983821
0.0969024
0.0955454
0.0944155
0.0935342
0.0928737
0.0924125
0.0921998
0.0924973
0.0941454
0.0993992
0.113936
0.15338
0.272916
0.768371
0.216969
0.130276
0.107266
0.101831
0.099321
0.0972954
0.095645
0.094385
0.0934572
0.0927885
0.0923359
0.092139
0.0924586
0.0941392
0.0994442
0.114064
0.153646
0.273356
0.767622
0.191099
0.127024
0.109769
0.10401
0.100424
0.0977177
0.0957455
0.0943566
0.0933882
0.0927162
0.0922751
0.0920967
0.0924423
0.094163
0.0995339
0.114267
0.154057
0.274113
0.767219
0.161195
0.126919
0.113496
0.106285
0.101377
0.0980118
0.0957738
0.0942967
0.0933112
0.0926479
0.0922243
0.0920675
0.0924413
0.0942043
0.0996453
0.1145
0.154511
0.274924
0.766751
0.149234
0.129071
0.116141
0.107472
0.101694
0.0979903
0.0956581
0.0941763
0.0932128
0.0925764
0.0921784
0.0920465
0.0924493
0.0942541
0.0997627
0.114732
0.154952
0.275681
0.766182
0.142973
0.12783
0.115557
0.106852
0.10115
0.0975837
0.0953759
0.0939864
0.093088
0.0924975
0.0921333
0.0920294
0.0924613
0.0943054
0.0998757
0.114949
0.155351
0.276343
0.765511
0.133459
0.122241
0.112165
0.104806
0.0999487
0.0968853
0.0949657
0.0937415
0.0929406
0.0924105
0.0920864
0.0920126
0.0924729
0.0943528
0.0999771
0.115139
0.155695
0.276894
0.764769
0.122652
0.114864
0.107633
0.102182
0.0984741
0.0960586
0.0944949
0.093468
0.09278
0.0923176
0.0920367
0.0919936
0.0924809
0.0943924
0.100062
0.115297
0.155977
0.277327
0.763962
0.113028
0.10808
0.103376
0.0996797
0.0970445
0.0952436
0.094024
0.0931914
0.0926161
0.0922217
0.091984
0.0919708
0.0924829
0.0944212
0.100128
0.11542
0.156193
0.277644
0.76312
0.10586
0.102911
0.100019
0.0976281
0.0958241
0.0945202
0.0935914
0.0929295
0.0924568
0.0921257
0.0919287
0.0919434
0.0924775
0.0944378
0.100173
0.115506
0.156343
0.277844
0.762248
0.101066
0.0993496
0.0976029
0.0960758
0.094852
0.0939154
0.0932137
0.0926921
0.0923071
0.092032
0.0918716
0.0919114
0.0924643
0.0944416
0.100196
0.115555
0.156429
0.277935
0.761375
0.09801
0.0970007
0.095931
0.0949423
0.0941031
0.0934255
0.0928936
0.0924826
0.0921697
0.0919423
0.0918137
0.0918752
0.0924435
0.0944329
0.100198
0.11557
0.156454
0.277924
0.760503
0.096074
0.0954587
0.0947807
0.0941214
0.0935325
0.0930342
0.0926266
0.0923006
0.0920457
0.0918577
0.091756
0.0918357
0.0924161
0.0944128
0.100181
0.115552
0.156423
0.277821
0.75966
0.0948225
0.0944285
0.0939792
0.0935228
0.0930974
0.0927229
0.0924056
0.0921442
0.0919349
0.0917789
0.0916994
0.091794
0.0923831
0.0943829
0.100148
0.115505
0.156342
0.277636
0.758842
0.0939877
0.0937215
0.0934092
0.0930806
0.0927634
0.0924749
0.0922233
0.0920107
0.091837
0.0917066
0.091645
0.0917512
0.0923461
0.094345
0.1001
0.115434
0.156218
0.277382
0.758075
0.0934124
0.0932227
0.0929952
0.0927492
0.0925049
0.0922769
0.0920731
0.0918971
0.091751
0.0916407
0.0915933
0.0917084
0.0923064
0.0943008
0.100041
0.115342
0.156058
0.277068
0.757354
0.0930042
0.0928622
0.092689
0.0924976
0.0923034
0.0921183
0.0919495
0.091801
0.091676
0.0915815
0.0915451
0.0916666
0.0922653
0.0942523
0.0999726
0.115233
0.155867
0.276706
0.7567
0.0927079
0.0925967
0.0924591
0.0923046
0.0921454
0.0919909
0.0918478
0.09172
0.0916112
0.0915288
0.0915008
0.0916266
0.092224
0.0942011
0.0998977
0.115111
0.155652
0.276305
0.756104
0.0924892
0.0923983
0.0922845
0.0921555
0.0920208
0.0918884
0.0917642
0.0916521
0.0915555
0.0914824
0.0914607
0.0915891
0.0921836
0.0941487
0.0998184
0.114979
0.155418
0.275875
0.755586
0.0923263
0.0922484
0.0921506
0.0920391
0.0919219
0.0918057
0.0916955
0.0915951
0.0915079
0.0914419
0.0914248
0.0915545
0.0921449
0.0940963
0.0997367
0.114841
0.15517
0.275423
0.755134
0.0922038
0.0921332
0.0920456
0.0919464
0.0918418
0.0917376
0.0916382
0.0915468
0.0914669
0.0914064
0.0913929
0.091523
0.0921083
0.094045
0.0996541
0.114699
0.154914
0.274957
0.754768
0.0921093
0.0920396
0.091958
0.0918675
0.0917727
0.0916782
0.0915875
0.0915037
0.0914301
0.0913744
0.0913638
0.0914939
0.0920738
0.0939953
0.0995722
0.114556
0.154652
0.274485
0.754471
0.0920294
0.0919518
0.0918727
0.0917895
0.0917039
0.0916186
0.0915366
0.0914605
0.0913933
0.0913427
0.0913354
0.0914659
0.092041
0.0939476
0.0994926
0.114414
0.154392
0.274015
0.754259
0.0919466
0.0918482
0.0917697
0.0916951
0.0916205
0.0915466
0.0914753
0.0914087
0.0913499
0.0913062
0.0913039
0.0914366
0.0920085
0.0939023
0.0994178
0.114281
0.154145
0.273567
0.754119
0.0918399
0.0917086
0.0916324
0.0915705
0.091511
0.0914522
0.0913951
0.0913416
0.0912943
0.0912605
0.091266
0.0914036
0.0919755
0.0938606
0.0993524
0.114166
0.153929
0.273174
0.754036
0.0917099
0.0915557
0.0914877
0.0914405
0.0913968
0.0913534
0.091311
0.091271
0.091236
0.0912129
0.0912274
0.0913716
0.0919465
0.0938285
0.0993069
0.114088
0.15378
0.272882
0.753965
)
;

boundaryField
{
    leftWall
    {
        type            epsilonWallFunction;
        value           nonuniform List<scalar> 
50
(
0.634634
0.619989
0.695656
0.726755
0.742448
0.750903
0.755679
0.75863
0.761374
0.763706
0.765285
0.764198
0.772563
0.772335
0.773304
0.775439
0.777736
0.779882
0.781794
0.78346
0.784884
0.786082
0.787074
0.788053
0.789198
0.788612
0.787239
0.823126
0.868474
0.834162
0.823747
0.817414
0.813098
0.809679
0.806857
0.804465
0.802365
0.800466
0.798712
0.797069
0.795525
0.794072
0.792711
0.791444
0.790316
0.789585
0.791245
0.809761
0.935287
1.63816
)
;
    }
    rightWall
    {
        type            epsilonWallFunction;
        value           nonuniform List<scalar> 
50
(
0.650653
0.594831
0.678193
0.713296
0.731743
0.742299
0.748567
0.752377
0.756055
0.758766
0.76087
0.762669
0.764279
0.765705
0.766946
0.767982
0.768816
0.769435
0.76985
0.770055
0.770068
0.769889
0.76954
0.769025
0.768371
0.767622
0.767219
0.766751
0.766182
0.765511
0.764769
0.763962
0.76312
0.762248
0.761375
0.760503
0.75966
0.758842
0.758075
0.757354
0.7567
0.756104
0.755586
0.755134
0.754768
0.754471
0.754259
0.754119
0.754036
0.753965
)
;
    }
    lowerWall
    {
        type            epsilonWallFunction;
        value           nonuniform List<scalar> 
62
(
0.634634
0.841468
0.933159
0.969081
0.987795
1.00451
1.02568
1.05612
1.10249
1.17681
1.27975
1.36868
1.41199
1.31447
1.21595
1.10662
1.03584
1.00492
0.986562
0.964929
0.928097
0.846812
0.651603
0.651603
0.632353
0.761258
0.844671
0.917159
0.998991
1.116
1.3586
2.21075
1.85995
1.59153
1.43018
0.698518
0.613505
0.6901
0.727032
0.76623
0.839426
0.988203
1.24961
0.698518
0.934629
1.03321
1.05347
1.04389
1.02727
1.01609
1.00732
0.998572
0.989834
0.981181
0.97264
0.964181
0.955645
0.946485
0.934565
0.911087
0.842315
0.650653
)
;
    }
    atmosphere
    {
        type            inletOutlet;
        inletValue      uniform 0.1;
        value           nonuniform List<scalar> 
46
(
0.1
0.1
0.1
0.1
0.1
0.1
0.1
0.1
0.1
0.1
0.1
0.1
0.1
0.1
0.1
0.1
0.1
0.1
0.1
0.1
0.1
0.1
0.1
0.0938859
0.0929463
0.0923768
0.0920369
0.0917099
0.0915557
0.0914877
0.0914405
0.0913968
0.0913534
0.091311
0.091271
0.091236
0.0912129
0.0912274
0.0913716
0.0919465
0.0938285
0.0993069
0.114088
0.15378
0.272882
0.753965
)
;
    }
    defaultFaces
    {
        type            empty;
    }
}


// ************************************************************************* //
