/*--------------------------------*- C++ -*----------------------------------*\
  =========                 |
  \\      /  F ield         | OpenFOAM: The Open Source CFD Toolbox
   \\    /   O peration     | Website:  https://openfoam.org
    \\  /    A nd           | Version:  13
     \\/     M anipulation  |
\*---------------------------------------------------------------------------*/
FoamFile
{
    format      ascii;
    class       volScalarField;
    location    "0.05";
    object      k;
}
// * * * * * * * * * * * * * * * * * * * * * * * * * * * * * * * * * * * * * //

dimensions      [0 2 -2 0 0 0 0];

internalField   nonuniform List<scalar> 
2268
(
0.0268881
0.0328537
0.03543
0.0364538
0.0369892
0.0374583
0.0380435
0.0388764
0.0401257
0.0420683
0.0446528
0.0468081
0.0477599
0.0457391
0.043139
0.0404247
0.0383697
0.0373916
0.0368494
0.0362544
0.0352469
0.0330077
0.0274305
0.0441873
0.0616686
0.0672803
0.0693565
0.0702787
0.0709173
0.0716585
0.0727624
0.0745041
0.0772107
0.0802241
0.0820778
0.0819562
0.0772874
0.0732159
0.0699461
0.0668155
0.0662716
0.0665327
0.0665758
0.0656487
0.0613731
0.0448784
0.0479158
0.0715426
0.0783578
0.0809331
0.082146
0.0829953
0.0839526
0.0853378
0.0874199
0.0903366
0.0931197
0.0942419
0.0930839
0.0887021
0.084981
0.0824918
0.080593
0.0800885
0.0801934
0.0805318
0.0801239
0.0753174
0.0512269
0.0494393
0.076049
0.0835164
0.086376
0.0877959
0.0888272
0.0899741
0.091566
0.0938065
0.0966083
0.0988116
0.0989973
0.0968794
0.093355
0.0901098
0.0886925
0.0876525
0.0871481
0.0872035
0.0879693
0.088413
0.0840419
0.0552698
0.0502111
0.0783754
0.0862768
0.0893284
0.090898
0.0920701
0.0933558
0.0950646
0.0973144
0.0998293
0.101387
0.100812
0.0983367
0.0959812
0.0932207
0.0921254
0.0915139
0.0910206
0.0911464
0.0924574
0.0940717
0.0910867
0.0587339
0.0506313
0.0796544
0.0878676
0.0910615
0.0927388
0.0940082
0.0953756
0.0971171
0.0992692
0.101425
0.102408
0.101362
0.0990825
0.0980142
0.0956841
0.0944405
0.0939305
0.0934322
0.0936995
0.0956584
0.0988469
0.0986008
0.062554
0.0508716
0.0803818
0.0888171
0.0921188
0.0938709
0.0951972
0.0965923
0.098296
0.10028
0.102066
0.102596
0.101356
0.0996119
0.09979
0.0978557
0.0963309
0.0957857
0.0953025
0.0957828
0.0985028
0.103791
0.108277
0.0678042
0.0510218
0.0808031
0.089385
0.0927647
0.0945636
0.0959103
0.0972845
0.0988927
0.100662
0.102094
0.102295
0.101067
0.100039
0.10131
0.0997759
0.0980749
0.0975171
0.0971308
0.0979229
0.101509
0.109322
0.12093
0.0779417
0.0286419
0.0354454
0.0381814
0.0387551
0.0385064
0.0380462
0.0376968
0.0374557
0.0372187
0.0369819
0.0367467
0.0365137
0.036282
0.0360468
0.0357916
0.0354546
0.0347885
0.032861
0.0273745
0.0471244
0.0638166
0.0694236
0.0704471
0.0700283
0.0693888
0.0688518
0.0684669
0.0682307
0.0680881
0.0679985
0.0679363
0.0678842
0.0678209
0.0676934
0.0673213
0.0660783
0.0617775
0.0461665
0.0511903
0.0746471
0.0817574
0.0829043
0.0823857
0.0816788
0.0811474
0.0808128
0.0806321
0.0805357
0.0804796
0.0804404
0.0804025
0.0803393
0.0801723
0.0796515
0.0780025
0.0725957
0.0506436
0.0531209
0.0814112
0.0892325
0.0899277
0.0890044
0.0880454
0.0873942
0.0870261
0.0868446
0.0867548
0.0867024
0.0866615
0.0866149
0.0865292
0.0863055
0.085655
0.0837469
0.0777263
0.0525235
0.0551837
0.0878005
0.0957798
0.0952904
0.0935498
0.0921185
0.0912039
0.0907039
0.0904595
0.0903384
0.0902667
0.0902091
0.0901428
0.090026
0.0897441
0.0889868
0.0868976
0.080466
0.0535166
0.0588568
0.0946082
0.102929
0.100504
0.097388
0.095216
0.0938906
0.0931663
0.0928025
0.0926168
0.0925062
0.0924204
0.0923272
0.0921758
0.0918392
0.0909945
0.0887662
0.0820261
0.0540915
0.0655609
0.103037
0.109928
0.106118
0.101122
0.0979105
0.096022
0.0949874
0.0944535
0.0941737
0.0940075
0.0938842
0.0937594
0.0935726
0.0931868
0.0922693
0.0899268
0.0829427
0.0544372
0.0774457
0.118668
0.117947
0.111509
0.104921
0.100451
0.0978659
0.0964448
0.0956965
0.0952973
0.0950616
0.0948932
0.0947337
0.0945123
0.094083
0.093104
0.0906639
0.0834846
0.0546498
0.0511615
0.0811623
0.0898777
0.0933374
0.0951708
0.096501
0.0977837
0.0991876
0.100611
0.101596
0.101498
0.100488
0.10054
0.103042
0.102274
0.100705
0.100315
0.100273
0.101714
0.106642
0.117676
0.136471
0.123156
0.0512794
0.0813244
0.0900401
0.0934945
0.0952766
0.0964764
0.0975178
0.0985499
0.0995034
0.100081
0.0999411
0.0995305
0.100803
0.104201
0.104481
0.103834
0.104084
0.104776
0.107023
0.112534
0.123008
0.139148
0.150794
0.0513569
0.081357
0.0900158
0.0934132
0.0950863
0.096092
0.0968337
0.0974663
0.0979918
0.0983056
0.0983591
0.0987131
0.100859
0.104537
0.105742
0.106163
0.107038
0.108302
0.110916
0.116031
0.124284
0.13464
0.140002
0.0513104
0.0813285
0.0900865
0.0934647
0.095042
0.0958696
0.0963468
0.096648
0.0968507
0.0970161
0.0973173
0.0983388
0.101027
0.104223
0.105719
0.106838
0.108028
0.109513
0.11198
0.116032
0.12164
0.127433
0.129551
0.0517102
0.081363
0.0903402
0.0937757
0.095331
0.096057
0.0963601
0.096434
0.0964074
0.0964474
0.0968813
0.0983385
0.101322
0.103463
0.104466
0.105569
0.106792
0.108294
0.110435
0.113467
0.11718
0.120537
0.12157
0.0517082
0.0815337
0.0904009
0.0938547
0.0953835
0.0960469
0.0962753
0.0962834
0.09621
0.0962151
0.096594
0.0978144
0.099976
0.10132
0.102053
0.103034
0.104296
0.105806
0.107678
0.109994
0.112587
0.11493
0.116417
0.0517542
0.0814076
0.0903122
0.0937872
0.0953322
0.0960194
0.0962803
0.0963195
0.0962461
0.0961605
0.0962556
0.0968787
0.0981425
0.0990037
0.0996019
0.100567
0.101828
0.10327
0.104901
0.106746
0.108769
0.110941
0.113712
0.0518582
0.0813979
0.0902869
0.0937574
0.0953131
0.0960212
0.0963029
0.0963505
0.0962566
0.0960906
0.0959909
0.0962386
0.0969433
0.0974384
0.0979457
0.0988371
0.0999874
0.101271
0.102664
0.104199
0.105986
0.108423
0.11285
0.051971
0.0814214
0.0902149
0.093635
0.095175
0.0958893
0.0961875
0.0962525
0.0961671
0.0959848
0.0958119
0.0958811
0.0962784
0.0965685
0.0970126
0.0977978
0.0987859
0.099874
0.101047
0.102375
0.104115
0.107039
0.113247
0.0520766
0.0814597
0.0901373
0.0934859
0.0949925
0.0956999
0.0960087
0.0960954
0.0960372
0.0958776
0.0956998
0.0956967
0.0959348
0.0961248
0.0965285
0.0972112
0.0980397
0.0989423
0.0999305
0.101125
0.102929
0.106453
0.114474
0.0521709
0.0815039
0.0900741
0.0933521
0.094821
0.0955159
0.0958308
0.0959378
0.0959106
0.0957858
0.0956283
0.0955992
0.0957543
0.0959007
0.096279
0.0968761
0.09757
0.098319
0.0991652
0.100286
0.102222
0.106415
0.116262
0.0522529
0.0815468
0.0900272
0.0932444
0.0946796
0.0953616
0.0956798
0.0958033
0.0958034
0.0957114
0.0955785
0.0955407
0.0956506
0.0957803
0.0961402
0.0966685
0.0972566
0.0978877
0.0986343
0.0997313
0.101856
0.106769
0.118472
0.0523229
0.0815813
0.0899919
0.0931615
0.0945699
0.0952412
0.0955612
0.0956968
0.0957178
0.0956522
0.0955412
0.0955013
0.0955854
0.0957094
0.0960521
0.0965241
0.0970312
0.0975773
0.0982634
0.0993837
0.101753
0.107445
0.121066
0.0523814
0.0816015
0.0899645
0.0931008
0.0944903
0.0951538
0.0954744
0.0956178
0.0956536
0.0956082
0.0955161
0.0954786
0.0955483
0.0956694
0.0959921
0.0964169
0.0968649
0.0973566
0.0980213
0.0992168
0.101902
0.108465
0.124108
0.0524299
0.0816085
0.0899486
0.0930662
0.0944442
0.0951021
0.095422
0.0955698
0.0956154
0.095586
0.0955125
0.0954842
0.0955492
0.0956659
0.0959652
0.0963537
0.0967676
0.0972422
0.0979365
0.099279
0.102387
0.109965
0.12776
0.0524781
0.0816172
0.0899546
0.0930661
0.0944384
0.0950926
0.0954116
0.0955624
0.0956166
0.0956025
0.095551
0.0955438
0.0956163
0.0957272
0.0960074
0.0963822
0.0968035
0.0973237
0.0981364
0.099749
0.103449
0.112257
0.132425
0.0525314
0.0816403
0.0899897
0.0931068
0.0944792
0.0951335
0.0954563
0.0956163
0.0956861
0.0956945
0.0956721
0.0956981
0.0957916
0.0959123
0.0962046
0.0966187
0.0971295
0.0978194
0.0989303
0.101054
0.105638
0.115996
0.138856
0.0525001
0.081644
0.0900822
0.0932268
0.0946071
0.095272
0.0956126
0.0957984
0.095901
0.0959456
0.0959588
0.0960179
0.0961728
0.0963971
0.096804
0.0973788
0.0981437
0.0992411
0.100985
0.104057
0.110024
0.122373
0.147776
0.0524914
0.0812661
0.0901594
0.0934103
0.0948252
0.0955313
0.0959244
0.096171
0.0963376
0.0964395
0.0964885
0.0965657
0.0968592
0.0974319
0.0981967
0.0991865
0.100522
0.102452
0.105398
0.110113
0.11821
0.133273
0.160737
0.0542335
0.0813447
0.0906185
0.0938648
0.0952842
0.0960712
0.0965759
0.0969428
0.0972228
0.0974121
0.0974943
0.0975154
0.098111
0.0994688
0.100994
0.102849
0.105286
0.108724
0.113724
0.121024
0.132069
0.151351
0.186483
0.0563025
0.0834624
0.0913071
0.0938923
0.0952776
0.0961475
0.0967463
0.0972162
0.0975982
0.0978583
0.0981069
0.098223
0.0987641
0.100194
0.102051
0.104602
0.108059
0.112912
0.11976
0.128813
0.139033
0.151828
0.172618
0.0547488
0.0827149
0.0907913
0.0938375
0.095235
0.0960403
0.0965811
0.0969958
0.0973293
0.0975626
0.0976885
0.0978014
0.0980383
0.0988612
0.100166
0.102095
0.104891
0.108974
0.114843
0.122669
0.131416
0.138925
0.144434
0.0542474
0.0824806
0.0904481
0.0934873
0.0948685
0.0955951
0.0960365
0.0963506
0.0965978
0.0967822
0.0968958
0.0969624
0.0970711
0.0974859
0.09829
0.0995753
0.101527
0.104447
0.108667
0.114286
0.120694
0.126536
0.130995
0.0539418
0.0824045
0.0903769
0.0933683
0.0947108
0.0953855
0.0957667
0.09602
0.0962156
0.0963713
0.0964842
0.0965631
0.0966622
0.0969277
0.0974611
0.0983523
0.0997362
0.101811
0.104787
0.108729
0.113313
0.117771
0.121366
0.0537319
0.0823827
0.0903754
0.0933426
0.0946584
0.0953022
0.0956484
0.0958658
0.0960303
0.0961684
0.0962847
0.0963859
0.0965059
0.0967269
0.097129
0.0977855
0.0987893
0.100261
0.102318
0.104986
0.108072
0.111118
0.113582
0.0535641
0.08236
0.0903821
0.0933443
0.0946454
0.0952699
0.0955936
0.0957874
0.0959305
0.0960546
0.0961699
0.0962841
0.0964193
0.096623
0.0969486
0.0974484
0.098181
0.0992127
0.100598
0.102331
0.104282
0.106177
0.107684
0.0534247
0.0823309
0.0903785
0.0933434
0.0946369
0.0952483
0.0955559
0.0957322
0.0958583
0.0959693
0.0960786
0.0961947
0.0963325
0.0965193
0.0967883
0.0971729
0.0977068
0.0984227
0.0993394
0.100437
0.101629
0.102753
0.103631
0.0533062
0.0822995
0.0903656
0.0933343
0.0946238
0.0952266
0.0955226
0.0956858
0.0957985
0.0958975
0.0959981
0.0961087
0.0962394
0.0964064
0.0966291
0.0969269
0.0973181
0.0978163
0.0984237
0.0991183
0.0998425
0.100504
0.101012
0.0532021
0.0822678
0.0903463
0.0933175
0.0946045
0.0952016
0.0954896
0.095643
0.0957453
0.0958338
0.0959248
0.0960263
0.0961453
0.0962914
0.0964756
0.0967085
0.0969989
0.0973509
0.0977602
0.0982079
0.0986564
0.0990533
0.0993528
0.053108
0.0822362
0.0903228
0.0932951
0.0945802
0.0951732
0.0954556
0.095602
0.0956961
0.0957759
0.0958577
0.095949
0.096055
0.0961814
0.096334
0.0965185
0.0967381
0.0969928
0.0972763
0.0975739
0.0978612
0.0981076
0.0982907
0.0530212
0.0822049
0.0902972
0.0932693
0.0945525
0.0951426
0.095421
0.0955622
0.0956501
0.0957226
0.0957961
0.0958778
0.0959714
0.0960804
0.0962078
0.0963561
0.0965259
0.0967153
0.0969182
0.0971236
0.0973153
0.0974751
0.0975918
0.0529399
0.0821739
0.0902706
0.0932419
0.0945233
0.0951112
0.0953866
0.0955241
0.0956071
0.0956737
0.0957402
0.0958133
0.095896
0.0959904
0.0960979
0.0962192
0.0963536
0.0964986
0.096649
0.0967964
0.09693
0.0970386
0.0971165
0.0528635
0.0821436
0.090244
0.0932144
0.0944942
0.0950803
0.0953536
0.0954882
0.0955675
0.0956295
0.0956901
0.0957559
0.0958295
0.0959119
0.0960038
0.0961049
0.0962139
0.0963282
0.0964435
0.0965535
0.0966508
0.0967282
0.0967827
0.0527915
0.082114
0.0902186
0.0931884
0.0944669
0.0950517
0.0953235
0.095456
0.0955324
0.0955906
0.0956465
0.0957063
0.0957723
0.0958452
0.095925
0.0960109
0.0961014
0.096194
0.0962853
0.0963705
0.0964443
0.096502
0.0965422
0.0527239
0.0820861
0.090196
0.0931663
0.0944442
0.0950282
0.0952989
0.0954297
0.0955038
0.095559
0.0956111
0.095666
0.0957259
0.0957912
0.0958615
0.0959359
0.0960127
0.0960897
0.096164
0.096232
0.0962901
0.0963349
0.0963659
0.0526612
0.0820625
0.0901813
0.0931542
0.0944326
0.0950161
0.0952858
0.0954153
0.0954875
0.0955401
0.0955889
0.0956399
0.0956948
0.0957539
0.0958167
0.0958821
0.0959485
0.0960139
0.0960756
0.096131
0.0961774
0.0962127
0.096237
0.0526057
0.0820541
0.0901901
0.0931691
0.0944483
0.0950308
0.0952988
0.0954264
0.0954966
0.0955468
0.0955927
0.0956401
0.0956906
0.0957445
0.0958011
0.0958592
0.0959173
0.0959734
0.096025
0.0960699
0.096106
0.0961321
0.0961489
0.0525736
0.0821051
0.0902723
0.0932561
0.094531
0.0951076
0.0953708
0.0954948
0.0955619
0.0956093
0.095652
0.0956958
0.0957422
0.0957911
0.095842
0.0958937
0.0959444
0.0959922
0.0960347
0.0960692
0.0960932
0.0961058
0.0961083
0.0526799
0.0823922
0.0905745
0.0935261
0.0947682
0.0953217
0.0955707
0.0956864
0.0957483
0.0957915
0.0958303
0.0958698
0.0959114
0.095955
0.0959999
0.0960449
0.0960883
0.096128
0.096161
0.0961836
0.0961908
0.0961788
0.0961473
0.0536902
0.0835591
0.0914791
0.0942152
0.0953298
0.0958143
0.0960282
0.0961264
0.0961788
0.0962156
0.0962488
0.0962825
0.096318
0.0963549
0.0963926
0.0964299
0.0964652
0.0964962
0.0965194
0.0965288
0.096514
0.0964596
0.0963504
0.0598001
0.0874582
0.0937232
0.0956982
0.0964736
0.0968044
0.0969491
0.0970162
0.0970531
0.0970802
0.0971053
0.097131
0.0971579
0.0971859
0.0972142
0.0972419
0.0972677
0.0972896
0.0973042
0.0973041
0.097272
0.097168
0.0969125
0.0876965
0.0964665
0.0977657
0.0982286
0.0984389
0.0985373
0.0985842
0.0986087
0.0986248
0.0986385
0.098652
0.0986663
0.0986813
0.0986969
0.0987127
0.0987282
0.0987429
0.0987558
0.0987656
0.0987685
0.0987511
0.0986604
0.0982841
0.110075
0.0982709
0.088503
0.0819705
0.14555
0.135839
0.125668
0.118633
0.135376
0.129662
0.124167
0.120566
0.126904
0.124079
0.121557
0.120435
0.120906
0.120734
0.121288
0.123083
0.118336
0.120724
0.124333
0.128447
0.118447
0.123501
0.130583
0.137283
0.120367
0.128099
0.139138
0.148147
0.123429
0.133533
0.147451
0.158344
0.127314
0.139698
0.156389
0.168824
0.131786
0.146373
0.165638
0.178542
0.136769
0.153556
0.175175
0.187153
0.142347
0.161515
0.185046
0.193946
0.148678
0.170753
0.195024
0.197923
0.155675
0.180935
0.204652
0.201457
0.163435
0.190932
0.214463
0.207812
0.173377
0.203828
0.225999
0.214077
0.184818
0.219851
0.241776
0.219523
0.190425
0.214876
0.229233
0.204559
0.20902
0.215088
0.195236
0.169352
0.177414
0.168021
0.156713
0.146571
0.145984
0.144731
0.141573
0.137036
0.132625
0.132339
0.130901
0.128411
0.122614
0.122564
0.121734
0.120141
0.114381
0.114348
0.113819
0.112802
0.10815
0.108123
0.107796
0.107175
0.103895
0.103874
0.103678
0.103308
0.101161
0.101145
0.101027
0.100805
0.0994384
0.0994261
0.0993516
0.0992146
0.0983409
0.0983307
0.0982818
0.0981931
0.0976221
0.0976136
0.0975796
0.0975193
0.0971353
0.0971281
0.0971035
0.0970604
0.096795
0.096789
0.0967703
0.0967383
0.0965507
0.0965457
0.0965312
0.0965066
0.0963722
0.0963681
0.0963565
0.0963369
0.0962415
0.0962378
0.0962281
0.0962117
0.0961501
0.0961454
0.0961356
0.0961202
0.0960993
0.096089
0.0960746
0.096056
0.0961072
0.0960782
0.0960476
0.0960163
0.0962195
0.0961373
0.0960632
0.0959991
0.0965155
0.0962969
0.0961253
0.0959971
0.0970382
0.0965262
0.0961961
0.0959849
0.0860884
0.122567
0.132491
0.119546
0.110338
0.104198
0.100438
0.0983511
0.0972267
0.0966151
0.0962553
0.0960087
0.0957922
0.0955193
0.0950304
0.0939689
0.091396
0.0839725
0.0548569
0.116485
0.139113
0.145635
0.127504
0.115601
0.107898
0.102943
0.100088
0.0985011
0.0976155
0.0970917
0.096743
0.0964582
0.0961314
0.0955871
0.0944516
0.0917645
0.0841744
0.0550057
0.120706
0.133883
0.132982
0.124731
0.116795
0.109511
0.104346
0.10114
0.0992709
0.0981901
0.0975378
0.0971058
0.0967658
0.0963986
0.0958164
0.0946337
0.0918824
0.0842226
0.0551182
0.120672
0.127261
0.126021
0.121717
0.115683
0.109487
0.104717
0.101566
0.0996348
0.0984698
0.0977447
0.0972586
0.0968806
0.0964858
0.0958793
0.09467
0.0918895
0.0842117
0.0552129
0.122536
0.123442
0.121016
0.117851
0.113271
0.10836
0.104326
0.101507
0.0996883
0.0985385
0.0977956
0.0972861
0.0968879
0.0964769
0.0958566
0.0946354
0.0918476
0.0841774
0.0552967
0.126631
0.120753
0.116624
0.113737
0.110411
0.106722
0.103514
0.101146
0.0995332
0.0984627
0.0977426
0.0972344
0.0968309
0.0964134
0.0957877
0.0945645
0.0917822
0.0841317
0.0553704
0.134026
0.120496
0.113377
0.110228
0.107731
0.105028
0.102563
0.10064
0.0992583
0.0982958
0.0976219
0.0971314
0.0967335
0.096317
0.0956923
0.0944738
0.0917042
0.0840791
0.055434
0.141938
0.121671
0.111333
0.107549
0.105511
0.103518
0.10164
0.100097
0.0989302
0.0980794
0.0974606
0.0969967
0.0966113
0.0962011
0.0955817
0.0943723
0.0916193
0.0840215
0.0554866
0.149681
0.123117
0.109961
0.105563
0.103773
0.102267
0.100823
0.0995787
0.0985928
0.0978435
0.0972798
0.0968453
0.0964759
0.0960752
0.0954638
0.0942659
0.0915312
0.0839608
0.0555282
0.155948
0.124095
0.108911
0.104086
0.102449
0.101273
0.100137
0.0991165
0.0982731
0.0976088
0.0970946
0.0966888
0.0963364
0.0959466
0.0953448
0.0941594
0.0914433
0.0838984
0.0555584
0.160577
0.124576
0.108069
0.102997
0.101466
0.100509
0.0995847
0.0987228
0.0979857
0.0973885
0.0969159
0.0965359
0.0961999
0.0958214
0.0952296
0.0940568
0.0913583
0.0838359
0.0555775
0.163562
0.12472
0.107415
0.102218
0.100763
0.0999465
0.0991573
0.0984008
0.0977377
0.0971904
0.0967507
0.0963927
0.0960717
0.0957043
0.0951223
0.0939614
0.0912785
0.0837748
0.0555856
0.165546
0.124825
0.106965
0.101707
0.100303
0.0995621
0.0988452
0.0981486
0.0975314
0.0970181
0.0966031
0.0962633
0.0959556
0.0955985
0.0950259
0.0938757
0.0912059
0.0837164
0.0555833
0.167154
0.125033
0.10672
0.101452
0.100071
0.0993415
0.0986386
0.0979614
0.0973657
0.0968726
0.0964753
0.0961499
0.095854
0.0955065
0.0949425
0.0938015
0.0911419
0.0836615
0.055571
0.168893
0.125235
0.106653
0.101466
0.100064
0.0992736
0.098527
0.0978326
0.0972372
0.0967529
0.0963672
0.0960536
0.0957681
0.0954294
0.0948733
0.0937398
0.0910873
0.0836111
0.0555496
0.170648
0.125008
0.106736
0.101775
0.100286
0.0993468
0.0984982
0.0977534
0.0971408
0.0966565
0.0962781
0.0959741
0.0956981
0.0953678
0.0948186
0.0936909
0.0910425
0.0835654
0.0555196
0.170071
0.123879
0.10708
0.102451
0.100738
0.0995451
0.0985369
0.0977136
0.0970707
0.0965802
0.0962062
0.0959106
0.0956435
0.0953209
0.0947779
0.0936542
0.0910067
0.0835243
0.0554822
0.165363
0.122269
0.107892
0.10351
0.101387
0.099831
0.098616
0.0976966
0.0970175
0.0965191
0.0961493
0.0958617
0.0956029
0.0952875
0.0947495
0.0936278
0.0909775
0.0834844
0.0554407
0.153317
0.120513
0.109401
0.104916
0.102143
0.100137
0.0986958
0.0976809
0.0969697
0.0964668
0.096103
0.0958243
0.0955741
0.0952654
0.0947308
0.093608
0.0909489
0.0834343
0.0554177
0.139482
0.120543
0.111588
0.106351
0.102787
0.100351
0.0987227
0.0976415
0.0969153
0.0964169
0.0960635
0.0957958
0.0955548
0.0952526
0.0947208
0.0935953
0.0909245
0.0833846
0.0553919
0.133666
0.121582
0.113047
0.107068
0.102997
0.100341
0.0986445
0.0975567
0.0968444
0.0963639
0.0960272
0.0957731
0.0955424
0.095247
0.0947177
0.0935888
0.0909054
0.0833395
0.0553607
0.129881
0.120508
0.112519
0.106613
0.102618
0.100056
0.0984434
0.0974195
0.096753
0.096305
0.0959913
0.0957536
0.0955343
0.095246
0.0947193
0.0935871
0.0908914
0.0833004
0.0553244
0.12396
0.116851
0.110237
0.105208
0.101774
0.0995561
0.0981458
0.09724
0.0966439
0.0962397
0.0959541
0.095735
0.0955281
0.0952473
0.0947234
0.0935883
0.0908815
0.0832674
0.0552841
0.117134
0.112045
0.107179
0.103381
0.100722
0.098955
0.0977996
0.0970375
0.0965244
0.0961697
0.095915
0.0957158
0.0955218
0.0952488
0.0947281
0.0935908
0.0908746
0.0832403
0.0552407
0.110848
0.107496
0.104234
0.1016
0.0996827
0.0983549
0.0974504
0.0968316
0.096402
0.0960976
0.0958742
0.0956949
0.0955138
0.0952487
0.0947316
0.0935932
0.0908696
0.0832186
0.0551952
0.105972
0.103905
0.101844
0.10011
0.0987833
0.0978175
0.0971279
0.0966363
0.0962831
0.0960257
0.0958319
0.0956719
0.0955033
0.095246
0.0947329
0.0935946
0.0908659
0.0832019
0.0551484
0.102589
0.101355
0.100086
0.0989649
0.0980606
0.0973664
0.0968461
0.0964593
0.0961716
0.0959557
0.095789
0.0956467
0.0954898
0.0952402
0.0947314
0.0935942
0.0908628
0.0831898
0.0551015
0.100373
0.0996362
0.0988511
0.0981222
0.0975019
0.0970008
0.0966075
0.0963033
0.0960695
0.0958892
0.095746
0.0956196
0.0954735
0.095231
0.0947267
0.0935918
0.0908601
0.0831819
0.0550548
0.0989479
0.0984954
0.0979964
0.0975107
0.0970766
0.0967094
0.096409
0.0961683
0.0959777
0.0958267
0.0957036
0.0955911
0.0954546
0.0952188
0.0947192
0.0935874
0.0908576
0.083178
0.0550095
0.0980208
0.0977308
0.0974006
0.0970655
0.0967532
0.0964783
0.0962453
0.0960527
0.095896
0.0957689
0.0956626
0.0955619
0.0954338
0.0952042
0.0947092
0.0935815
0.0908554
0.0831776
0.0549659
0.0974023
0.0972068
0.096978
0.0967378
0.0965059
0.0962949
0.0961106
0.0959542
0.0958239
0.0957159
0.0956234
0.0955326
0.0954118
0.0951876
0.0946974
0.0935743
0.0908536
0.0831807
0.0549248
0.0969771
0.0968383
0.0966723
0.096493
0.0963151
0.0961488
0.0959999
0.0958707
0.0957609
0.095668
0.0955866
0.0955039
0.0953893
0.09517
0.0946843
0.0935664
0.0908525
0.0831869
0.0548864
0.0966763
0.0965728
0.0964468
0.0963078
0.0961668
0.0960321
0.095909
0.0958002
0.095706
0.095625
0.0955525
0.0954765
0.0953669
0.0951521
0.0946708
0.0935584
0.0908523
0.083196
0.0548514
0.0964585
0.0963777
0.0962779
0.0961661
0.0960507
0.0959386
0.0958344
0.0957408
0.0956586
0.0955868
0.0955213
0.0954507
0.0953454
0.0951344
0.0946574
0.0935507
0.0908531
0.0832079
0.0548198
0.0962983
0.0962322
0.0961499
0.0960567
0.0959592
0.0958634
0.0957731
0.095691
0.095618
0.0955533
0.0954934
0.095427
0.0953252
0.0951176
0.0946446
0.0935437
0.0908552
0.0832223
0.0547922
0.0961791
0.0961225
0.0960517
0.0959713
0.0958866
0.0958026
0.0957227
0.0956492
0.0955832
0.0955241
0.0954685
0.0954055
0.0953067
0.0951021
0.094633
0.0935379
0.0908588
0.083239
0.0547684
0.0960899
0.0960381
0.0959746
0.095903
0.0958276
0.0957524
0.0956804
0.0956137
0.0955532
0.0954985
0.0954464
0.0953863
0.0952901
0.0950882
0.0946228
0.0935335
0.0908639
0.0832578
0.0547489
0.096022
0.0959697
0.09591
0.0958446
0.0957764
0.0957083
0.0956428
0.0955818
0.095526
0.0954753
0.0954263
0.0953689
0.0952751
0.095076
0.0946142
0.0935306
0.0908705
0.0832784
0.0547334
0.0959664
0.0959063
0.0958474
0.095787
0.0957253
0.095664
0.0956049
0.0955496
0.0954988
0.0954521
0.0954066
0.0953521
0.095261
0.0950649
0.094607
0.0935292
0.0908784
0.0833004
0.0547223
0.0959116
0.0958339
0.0957738
0.0957188
0.0956648
0.0956116
0.0955603
0.0955119
0.0954673
0.0954259
0.0953848
0.0953343
0.0952468
0.0950543
0.0946007
0.0935287
0.090887
0.0833229
0.0547151
0.0958439
0.0957408
0.0956803
0.095633
0.095589
0.0955461
0.0955046
0.0954652
0.0954286
0.0953942
0.0953593
0.095314
0.0952312
0.0950433
0.0945945
0.0935283
0.090895
0.0833433
0.0547108
0.0957638
0.0956436
0.0955866
0.0955482
0.0955142
0.0954813
0.0954493
0.0954188
0.0953902
0.095363
0.0953343
0.0952945
0.0952166
0.095033
0.0945885
0.0935269
0.0909
0.0833582
0.0547071
)
;

boundaryField
{
    leftWall
    {
        type            kqRWallFunction;
        value           nonuniform List<scalar> 
50
(
0.0268881
0.0441873
0.0479158
0.0494393
0.0502111
0.0506313
0.0508716
0.0510218
0.0511615
0.0512794
0.0513569
0.0513104
0.0517102
0.0517082
0.0517542
0.0518582
0.051971
0.0520766
0.0521709
0.0522529
0.0523229
0.0523814
0.0524299
0.0524781
0.0525314
0.0525001
0.0524914
0.0542335
0.0563025
0.0547488
0.0542474
0.0539418
0.0537319
0.0535641
0.0534247
0.0533062
0.0532021
0.053108
0.0530212
0.0529399
0.0528635
0.0527915
0.0527239
0.0526612
0.0526057
0.0525736
0.0526799
0.0536902
0.0598001
0.0876965
)
;
    }
    rightWall
    {
        type            kqRWallFunction;
        value           nonuniform List<scalar> 
50
(
0.0273745
0.0461665
0.0506436
0.0525235
0.0535166
0.0540915
0.0544372
0.0546498
0.0548569
0.0550057
0.0551182
0.0552129
0.0552967
0.0553704
0.055434
0.0554866
0.0555282
0.0555584
0.0555775
0.0555856
0.0555833
0.055571
0.0555496
0.0555196
0.0554822
0.0554407
0.0554177
0.0553919
0.0553607
0.0553244
0.0552841
0.0552407
0.0551952
0.0551484
0.0551015
0.0550548
0.0550095
0.0549659
0.0549248
0.0548864
0.0548514
0.0548198
0.0547922
0.0547684
0.0547489
0.0547334
0.0547223
0.0547151
0.0547108
0.0547071
)
;
    }
    lowerWall
    {
        type            kqRWallFunction;
        value           nonuniform List<scalar> 
62
(
0.0268881
0.0328537
0.03543
0.0364538
0.0369892
0.0374583
0.0380435
0.0388764
0.0401257
0.0420683
0.0446528
0.0468081
0.0477599
0.0457391
0.043139
0.0404247
0.0383697
0.0373916
0.0368494
0.0362544
0.0352469
0.0330077
0.0274305
0.0274305
0.0448784
0.0512269
0.0552698
0.0587339
0.062554
0.0678042
0.0779417
0.110075
0.0982709
0.088503
0.0819705
0.0286419
0.0471244
0.0511903
0.0531209
0.0551837
0.0588568
0.0655609
0.0774457
0.0286419
0.0354454
0.0381814
0.0387551
0.0385064
0.0380462
0.0376968
0.0374557
0.0372187
0.0369819
0.0367467
0.0365137
0.036282
0.0360468
0.0357916
0.0354546
0.0347885
0.032861
0.0273745
)
;
    }
    atmosphere
    {
        type            inletOutlet;
        inletValue      uniform 0.1;
        value           nonuniform List<scalar> 
46
(
0.1
0.1
0.1
0.1
0.1
0.1
0.1
0.1
0.1
0.1
0.1
0.1
0.1
0.1
0.1
0.1
0.1
0.1
0.1
0.1
0.1
0.1
0.1
0.0970382
0.0965262
0.0961961
0.0959849
0.0957638
0.0956436
0.0955866
0.0955482
0.0955142
0.0954813
0.0954493
0.0954188
0.0953902
0.095363
0.0953343
0.0952945
0.0952166
0.095033
0.0945885
0.0935269
0.0909
0.0833582
0.0547071
)
;
    }
    defaultFaces
    {
        type            empty;
    }
}


// ************************************************************************* //
