/*--------------------------------*- C++ -*----------------------------------*\
  =========                 |
  \\      /  F ield         | OpenFOAM: The Open Source CFD Toolbox
   \\    /   O peration     | Website:  https://openfoam.org
    \\  /    A nd           | Version:  13
     \\/     M anipulation  |
\*---------------------------------------------------------------------------*/
FoamFile
{
    format      ascii;
    class       volScalarField;
    location    "0.05";
    object      nut;
}
// * * * * * * * * * * * * * * * * * * * * * * * * * * * * * * * * * * * * * //

dimensions      [0 2 -1 0 0 0 0];

internalField   nonuniform List<scalar> 
2268
(
0.000102527
0.000115445
0.000121068
0.000123415
0.00012466
0.000125714
0.000126997
0.000128796
0.000131436
0.000135346
0.000140221
0.000144073
0.000145392
0.000143241
0.000137743
0.000132904
0.000127916
0.000125216
0.000123873
0.000122594
0.000120474
0.000115794
0.000103927
0.000283435
0.000688669
0.000881242
0.000960807
0.000994167
0.00101313
0.00103174
0.00105723
0.00109475
0.00114663
0.00119967
0.00122827
0.00119674
0.00102287
0.000776788
0.000697274
0.000683252
0.000719561
0.000754288
0.000759373
0.00072224
0.00060652
0.000286655
0.000297034
0.00115009
0.00170888
0.0019824
0.00210586
0.00217111
0.0022247
0.0022893
0.00237614
0.00248408
0.00258573
0.00262841
0.00253345
0.00216092
0.0016729
0.00149498
0.00149231
0.00156894
0.00163023
0.00162292
0.0014959
0.00112773
0.000310246
0.000302691
0.00146146
0.00243423
0.00298955
0.00326087
0.00339983
0.00349774
0.00359967
0.00372345
0.00386309
0.00398128
0.00401234
0.00386011
0.00338596
0.00274839
0.00248111
0.00247494
0.00256784
0.00263316
0.00258599
0.00231144
0.00159391
0.000325485
0.000305616
0.00165803
0.00300537
0.00387918
0.00433968
0.00457479
0.00472243
0.00485487
0.00499932
0.00514831
0.00526128
0.00527311
0.00509314
0.00461101
0.00392593
0.00358844
0.00355965
0.00364214
0.00368622
0.0035682
0.00309759
0.00199555
0.000338513
0.000307254
0.00177801
0.0034218
0.00460015
0.00526383
0.00560663
0.00580544
0.00596102
0.00611292
0.00625662
0.00635405
0.00634938
0.0061704
0.00574166
0.00509523
0.00472514
0.0046657
0.00471872
0.00472123
0.00450797
0.00381709
0.00235557
0.000352526
0.000308217
0.00185065
0.00370933
0.00514577
0.00600064
0.00644991
0.00669728
0.00686959
0.00702026
0.00715094
0.00722995
0.00721524
0.0070578
0.00671233
0.00615663
0.00579649
0.00571368
0.00573148
0.00568401
0.00536828
0.00446697
0.00271534
0.000370758
0.000308834
0.00189553
0.00390073
0.00553668
0.00655363
0.00709777
0.00738766
0.00757143
0.007716
0.00783084
0.00789289
0.00787521
0.00775221
0.00749733
0.00704787
0.00673048
0.00664038
0.00662964
0.00653864
0.00613822
0.00507859
0.00313694
0.000402432
0.000105698
0.000120982
0.000126986
0.000128315
0.000127837
0.000126818
0.000125869
0.000125347
0.000124849
0.000124354
0.00012386
0.000123368
0.000122876
0.000122371
0.000121812
0.000121054
0.000119551
0.00011538
0.000103654
0.000325773
0.000697288
0.000886512
0.000947181
0.000948663
0.000932227
0.000912036
0.000895552
0.000885984
0.000881342
0.000879703
0.000879698
0.000880372
0.000880706
0.00087865
0.000867615
0.000825659
0.000687585
0.000322479
0.000341747
0.00112342
0.00167809
0.00194618
0.0020223
0.00201237
0.00197532
0.00194054
0.00191858
0.00190686
0.00190158
0.00189976
0.00189906
0.00189625
0.001883
0.00183301
0.00167018
0.00122191
0.00034036
0.000349317
0.00137893
0.00229306
0.00287543
0.00312852
0.00317857
0.00314477
0.00309789
0.00306478
0.00304586
0.00303643
0.00303204
0.00302849
0.00301832
0.00298068
0.00285423
0.00248718
0.00162947
0.00034808
0.000357688
0.00150617
0.00268783
0.00361233
0.00413136
0.00430761
0.0043081
0.00426115
0.00422093
0.00419606
0.00418273
0.00417541
0.00416743
0.00414471
0.00406715
0.00382664
0.00319471
0.0019133
0.000352259
0.00037141
0.00153088
0.00288275
0.00411373
0.00494646
0.00530668
0.00537414
0.00534142
0.00529959
0.00527079
0.00525417
0.00524367
0.00522964
0.00518909
0.00505775
0.00467645
0.00375704
0.00209934
0.000354749
0.000391459
0.0014675
0.00290342
0.00440668
0.00555367
0.00612898
0.00628643
0.00627956
0.00624104
0.00621026
0.00619099
0.00617711
0.00615562
0.00609318
0.00589934
0.00536729
0.00417416
0.00221601
0.000356289
0.000431979
0.00141253
0.00281869
0.00455413
0.00599089
0.00677224
0.00702523
0.00704901
0.00701645
0.00698486
0.00696331
0.00694584
0.00691597
0.00682959
0.00657111
0.00589458
0.00446577
0.00228625
0.000357259
0.000309407
0.00193726
0.00408682
0.00594421
0.00715728
0.00781972
0.00815807
0.00834558
0.00846868
0.00855068
0.00858438
0.00856669
0.00850935
0.00841639
0.00817867
0.00796897
0.00789419
0.0078559
0.00771966
0.00724781
0.00610676
0.00420293
0.00145431
0.000309887
0.00196306
0.00418891
0.00617007
0.00750221
0.00823894
0.00860383
0.00878463
0.00888342
0.0089386
0.00896023
0.00896406
0.00898218
0.00902072
0.00895824
0.00886957
0.00884301
0.00882798
0.00874133
0.00840948
0.00756426
0.00606757
0.00407978
0.000310182
0.00197665
0.00422698
0.00624896
0.00762317
0.00838522
0.00875405
0.00892281
0.00900262
0.00904314
0.00906705
0.00909826
0.00916819
0.00927277
0.0093101
0.00931018
0.00933222
0.00936108
0.00936583
0.00926105
0.00889402
0.00813455
0.00702384
0.000310061
0.00195942
0.0042155
0.00625382
0.00764596
0.00841869
0.00878711
0.00894656
0.00901412
0.00904763
0.00907774
0.00913058
0.0092301
0.00934943
0.00941987
0.00946776
0.00951982
0.00958094
0.00964878
0.00969257
0.00963627
0.00938763
0.00891797
0.000311502
0.00193196
0.00417807
0.00622017
0.00762689
0.00841298
0.00878665
0.00894334
0.0090044
0.00903355
0.00906668
0.00913026
0.0092373
0.00933646
0.00940053
0.00945839
0.00952154
0.00959567
0.00968508
0.00978065
0.00984806
0.00983327
0.00969356
0.00031157
0.00195717
0.00417085
0.00619509
0.00760403
0.00839855
0.00877783
0.0089357
0.00899507
0.00902123
0.00905005
0.00910427
0.00918836
0.00926054
0.00931284
0.00936778
0.00943278
0.00950926
0.0096
0.0097034
0.00980674
0.00988566
0.00991284
0.000311733
0.00193733
0.00415329
0.00618295
0.00759649
0.00839456
0.00877596
0.00893435
0.00899225
0.00901347
0.0090313
0.00906566
0.00912066
0.00916993
0.00921096
0.00926158
0.00932419
0.00939709
0.00948129
0.0095788
0.00969043
0.00981461
0.00994352
0.000312125
0.00193577
0.00415932
0.00619415
0.007607
0.00840174
0.00877989
0.00893571
0.00899074
0.0090069
0.00901512
0.00903336
0.00906641
0.00909795
0.00913039
0.0091755
0.00923239
0.00929818
0.00937363
0.00946406
0.00958049
0.00973852
0.00994552
0.000312559
0.00194584
0.00418047
0.00621731
0.00762412
0.00841072
0.00878259
0.00893466
0.00898723
0.0090004
0.00900306
0.00901152
0.00903088
0.00905136
0.00907789
0.00911724
0.0091669
0.00922429
0.00929125
0.00937684
0.00950088
0.00969182
0.00996602
0.000312968
0.00195875
0.00420559
0.00624325
0.00764194
0.00841862
0.00878321
0.00893142
0.00898238
0.0089945
0.00899493
0.00899847
0.00901024
0.00902457
0.00904722
0.00908137
0.00912392
0.00917328
0.00923318
0.00931664
0.00945148
0.00967604
0.0100106
0.000313333
0.00197138
0.00422984
0.00626797
0.00765852
0.00842538
0.00878289
0.00892755
0.00897748
0.00898962
0.00898963
0.00899105
0.00899884
0.00900998
0.00903009
0.00905993
0.00909636
0.00913904
0.0091938
0.0092777
0.00942579
0.00968437
0.0100743
0.000313651
0.00198254
0.00425137
0.00629008
0.00767343
0.0084315
0.00878262
0.00892412
0.00897328
0.00898581
0.00898615
0.00898675
0.0089925
0.00900201
0.00902037
0.00904678
0.00907838
0.00911606
0.00916779
0.00925456
0.00941798
0.00971065
0.0101523
0.000313921
0.00199133
0.00426905
0.0063089
0.00768661
0.00843731
0.00878292
0.00892163
0.00897009
0.00898303
0.0089839
0.00898428
0.00898895
0.00899761
0.00901464
0.00903837
0.00906644
0.00910091
0.00915184
0.00924403
0.00942495
0.0097517
0.0102425
0.000314145
0.00199692
0.00428201
0.00632407
0.00769809
0.00844301
0.00878403
0.00892031
0.00896811
0.00898139
0.00898284
0.00898332
0.00898749
0.00899567
0.00901164
0.00903343
0.00905933
0.00909259
0.00914532
0.00924601
0.00944708
0.00980756
0.0103434
0.000314329
0.00199886
0.00428993
0.00633565
0.00770811
0.00844891
0.00878627
0.00892051
0.00896772
0.00898133
0.00898348
0.00898443
0.0089886
0.00899663
0.00901192
0.00903279
0.00905837
0.00909311
0.00915118
0.00926446
0.00948894
0.00988171
0.0104546
0.000314517
0.00199831
0.00429385
0.00634424
0.00771708
0.00845538
0.0087901
0.00892283
0.0089697
0.00898382
0.00898696
0.00898895
0.00899384
0.00900235
0.00901798
0.00903983
0.00906808
0.00910851
0.00917725
0.0093088
0.00956023
0.00998206
0.0105804
0.000314698
0.00199691
0.00429376
0.00634944
0.0077249
0.0084627
0.00879615
0.00892825
0.00897538
0.00899045
0.00899504
0.00899885
0.00900559
0.00901619
0.00903461
0.00906103
0.009097
0.00914991
0.00923756
0.00939535
0.00967759
0.0101251
0.0107418
0.000314558
0.00197772
0.00427577
0.00634596
0.00773089
0.00847192
0.00880617
0.00893896
0.00898723
0.00900384
0.00901041
0.00901688
0.00902775
0.00904445
0.0090708
0.00910803
0.0091597
0.00923516
0.00935315
0.00954731
0.00986549
0.01034
0.0109785
0.000315001
0.00187432
0.0042077
0.00632828
0.0077362
0.00848489
0.00882198
0.00895687
0.00900732
0.0090261
0.00903495
0.00904478
0.00906322
0.00909341
0.00913632
0.00919393
0.00927269
0.0093843
0.00954747
0.00979153
0.0101561
0.0106693
0.0113416
0.000321596
0.0017029
0.00416307
0.00634186
0.00776007
0.00851003
0.00884835
0.00898581
0.00903937
0.00906103
0.00907204
0.00908377
0.00911415
0.00916901
0.00923968
0.00933052
0.00945178
0.00961826
0.00984844
0.0101655
0.0105995
0.0111853
0.0119615
0.000328504
0.00202256
0.00437116
0.0064435
0.00781291
0.00853943
0.00886821
0.00900361
0.00905853
0.00908238
0.00909779
0.00911269
0.00914406
0.00920409
0.00928762
0.00940301
0.00956005
0.00977347
0.0100586
0.0104206
0.0108302
0.011266
0.0117816
0.0003234
0.0020781
0.00443924
0.00649587
0.00783985
0.0085489
0.00886807
0.00899856
0.00905102
0.00907349
0.00908557
0.00909816
0.00912061
0.00916516
0.00923355
0.00933293
0.00947375
0.00966932
0.00993143
0.0102594
0.0106185
0.0109336
0.0111403
0.000321519
0.00208517
0.00445333
0.00650676
0.00784086
0.00853989
0.00885166
0.00897712
0.00902635
0.009047
0.00905742
0.00906613
0.00908017
0.00910869
0.00915708
0.00923143
0.00934054
0.00949514
0.00970345
0.00996229
0.0102443
0.010496
0.0106719
0.000320369
0.00208806
0.00445835
0.00650915
0.00783831
0.0085319
0.00883905
0.00896093
0.00900767
0.00902694
0.00903659
0.00904385
0.00905391
0.00907318
0.00910702
0.0091608
0.00924139
0.00935672
0.00951253
0.00970611
0.00991889
0.0101161
0.0102628
0.000319568
0.00208888
0.00445992
0.00650949
0.00783631
0.00852714
0.00883166
0.0089513
0.00899636
0.00901469
0.00902412
0.00903127
0.00904006
0.0090548
0.0090797
0.00911896
0.00917749
0.00926058
0.00937183
0.00950915
0.00966053
0.00980333
0.00991165
0.000318917
0.00208814
0.00445927
0.00650867
0.00783476
0.0085244
0.00882755
0.00894584
0.00898977
0.00900741
0.00901667
0.00902393
0.00903231
0.00904468
0.00906397
0.00909313
0.00913535
0.00919376
0.00927016
0.00936272
0.00946359
0.00955838
0.00963001
0.000318369
0.00208669
0.00445719
0.00650673
0.00783292
0.00852226
0.00882478
0.00894224
0.00898536
0.00900239
0.00901135
0.0090185
0.00902647
0.00903719
0.00905258
0.00907452
0.00910489
0.00914532
0.00919641
0.00925653
0.00932053
0.00937969
0.00942385
0.0003179
0.00208504
0.00445431
0.00650389
0.00783053
0.00852008
0.00882241
0.00893941
0.00898194
0.00899842
0.00900695
0.00901374
0.00902111
0.00903042
0.00904285
0.00905954
0.00908149
0.00910943
0.00914332
0.00918178
0.00922149
0.00925736
0.00928371
0.000317489
0.00208336
0.00445097
0.00650036
0.00782759
0.00851765
0.00882009
0.00893686
0.00897897
0.00899497
0.00900303
0.00900932
0.00901597
0.00902398
0.0090341
0.00904696
0.00906304
0.00908258
0.00910528
0.00913006
0.0091548
0.00917655
0.00919225
0.000317117
0.00208167
0.00444732
0.00649631
0.00782418
0.00851495
0.00881771
0.00893443
0.00897626
0.00899186
0.00899946
0.0090052
0.00901111
0.00901798
0.00902628
0.00903633
0.00904835
0.00906232
0.00907789
0.00909424
0.00911002
0.00912351
0.00913306
0.000316775
0.00207994
0.00444343
0.00649188
0.00782043
0.00851203
0.00881527
0.00893208
0.00897373
0.00898901
0.00899619
0.00900141
0.00900664
0.00901253
0.0090194
0.0090274
0.00903659
0.00904686
0.00905789
0.00906906
0.00907949
0.00908817
0.00909419
0.000316456
0.00207815
0.00443936
0.00648719
0.00781646
0.00850899
0.00881282
0.0089298
0.00897137
0.0089864
0.00899322
0.00899799
0.00900262
0.0090077
0.00901346
0.00901995
0.00902716
0.00903495
0.00904303
0.00905097
0.00905817
0.009064
0.00906795
0.000316155
0.00207629
0.00443515
0.00648235
0.00781239
0.00850594
0.00881043
0.00892767
0.00896921
0.00898405
0.00899059
0.00899497
0.0089991
0.00900353
0.00900842
0.0090138
0.0090196
0.00902568
0.00903182
0.00903769
0.00904288
0.00904699
0.0090497
0.000315871
0.00207438
0.00443089
0.00647752
0.00780842
0.00850306
0.00880826
0.0089258
0.00896736
0.00898206
0.00898836
0.00899242
0.00899614
0.00900004
0.00900427
0.00900881
0.00901359
0.00901849
0.00902331
0.00902781
0.0090317
0.00903472
0.00903668
0.000315605
0.00207245
0.00442679
0.00647312
0.00780501
0.00850074
0.00880662
0.00892444
0.00896602
0.00898062
0.00898672
0.00899052
0.0089939
0.00899739
0.00900109
0.009005
0.00900903
0.00901307
0.00901696
0.00902051
0.00902353
0.00902582
0.00902727
0.000315357
0.00207068
0.0044236
0.00647038
0.00780341
0.00849997
0.00880623
0.00892415
0.00896569
0.00898016
0.00898609
0.00898967
0.00899277
0.00899592
0.00899921
0.00900262
0.00900608
0.00900948
0.00901267
0.00901552
0.00901787
0.00901958
0.0090206
0.000315142
0.00206979
0.00442395
0.00647316
0.00780709
0.00850318
0.0088087
0.00892609
0.00896733
0.00898159
0.00898733
0.00899071
0.00899357
0.00899643
0.00899938
0.0090024
0.0090054
0.00900829
0.00901092
0.00901317
0.0090149
0.00901601
0.00901646
0.00031505
0.00207281
0.00443694
0.00649296
0.00782509
0.00851589
0.00881719
0.0089323
0.00897251
0.00898632
0.00899181
0.00899499
0.00899764
0.00900026
0.00900293
0.00900563
0.00900826
0.00901073
0.00901289
0.00901456
0.00901559
0.00901583
0.00901529
0.000315662
0.00209201
0.00449277
0.00656168
0.0078787
0.00854909
0.00883688
0.00894545
0.00898302
0.00899585
0.00900096
0.00900391
0.00900639
0.00900882
0.00901129
0.00901375
0.00901612
0.00901829
0.00902006
0.0090212
0.0090214
0.00902038
0.00901809
0.000320388
0.00217443
0.00468412
0.00675807
0.00801056
0.0086203
0.00887359
0.00896701
0.00899892
0.00900983
0.00901429
0.009017
0.00901933
0.00902164
0.00902398
0.00902632
0.00902856
0.00903059
0.00903218
0.00903299
0.00903247
0.00903
0.00902526
0.000344114
0.00249092
0.00527269
0.00724404
0.00828414
0.00874659
0.0089282
0.00899303
0.0090149
0.00902254
0.00902593
0.0090282
0.00903027
0.00903237
0.00903452
0.00903669
0.00903881
0.00904077
0.00904238
0.00904324
0.00904265
0.00903958
0.00903317
0.000422524
0.00379415
0.00695352
0.00824344
0.00873378
0.00891959
0.00898716
0.00901047
0.00901836
0.0090213
0.00902282
0.009024
0.00902513
0.00902631
0.00902754
0.0090288
0.00903005
0.00903126
0.00903234
0.00903311
0.00903315
0.00903164
0.00902778
0.000493264
0.000467295
0.00044294
0.000422831
0.00320552
0.00295864
0.00282945
0.00276539
0.00645308
0.00609191
0.00582992
0.00565861
0.00856791
0.00831565
0.00809711
0.0079218
0.00954572
0.00943555
0.00933337
0.00925339
0.009919
0.00991822
0.00992133
0.00993364
0.0100641
0.0101492
0.0102503
0.0103518
0.0101516
0.0103089
0.0105132
0.0106853
0.0102358
0.0104462
0.0107166
0.0109388
0.0103343
0.0105923
0.0109236
0.0111863
0.0104468
0.0107506
0.0111387
0.0114217
0.0105724
0.0109225
0.0113654
0.0116474
0.0107124
0.0111124
0.011603
0.0118509
0.0108673
0.0113252
0.0118346
0.011987
0.0110275
0.011546
0.0120343
0.0120673
0.011181
0.0117305
0.0121997
0.0121598
0.0113589
0.0119321
0.012352
0.0122057
0.0115963
0.0121839
0.0125109
0.0121688
0.0118703
0.0122456
0.0123646
0.0119203
0.0123109
0.0123499
0.0119597
0.0114384
0.0118502
0.0116463
0.0113715
0.0111275
0.0111666
0.0111241
0.0110228
0.0108797
0.0107117
0.0106949
0.0106384
0.0105463
0.0103014
0.0102961
0.0102614
0.0101988
0.00994108
0.00993885
0.00991613
0.0098739
0.00964935
0.00964805
0.00963341
0.00960611
0.00943559
0.00943468
0.00942552
0.00940855
0.00929054
0.00928984
0.00928417
0.00927376
0.00919616
0.00919559
0.009192
0.00918554
0.0091353
0.00913482
0.00913246
0.0091283
0.00909549
0.00909507
0.00909344
0.00909063
0.00906871
0.00906835
0.00906717
0.00906518
0.00905016
0.00904985
0.00904895
0.00904748
0.00903696
0.00903668
0.00903598
0.00903485
0.00902742
0.00902717
0.00902659
0.00902568
0.0090206
0.00902033
0.00901979
0.00901899
0.00901615
0.00901572
0.00901508
0.00901423
0.00901423
0.00901335
0.00901232
0.00901115
0.00901546
0.00901359
0.00901162
0.00900963
0.00902012
0.00901654
0.00901291
0.00900946
0.00902601
0.00902065
0.00901504
0.00900976
0.00902667
0.00902196
0.0090156
0.0090092
0.000672131
0.00165995
0.0030753
0.00479091
0.0065256
0.00756453
0.00794949
0.0080216
0.00800105
0.00796991
0.00794544
0.00792216
0.007878
0.00775194
0.00739215
0.00650631
0.00477252
0.00234914
0.000358221
0.00291256
0.00380037
0.00505399
0.0062365
0.00751472
0.00833397
0.00864905
0.00870178
0.00867243
0.00863483
0.00860455
0.00857396
0.00851509
0.00835238
0.00790687
0.00686178
0.00492748
0.00237366
0.000358881
0.00554251
0.00604253
0.0067343
0.0076191
0.00843845
0.00890006
0.0090505
0.00904222
0.00899105
0.00894381
0.00890739
0.00887074
0.008802
0.00861762
0.00812572
0.00700202
0.00498011
0.0023787
0.000359354
0.00768305
0.00776629
0.00811401
0.008643
0.00906396
0.00924975
0.00926094
0.00919806
0.00912771
0.00907266
0.0090316
0.00899079
0.00891625
0.00872069
0.00820688
0.007049
0.00499304
0.00237704
0.000359739
0.00905656
0.00894547
0.00901693
0.00924324
0.0093986
0.00941696
0.00934802
0.0092564
0.0091776
0.00911965
0.00907662
0.00903367
0.0089561
0.00875513
0.00823149
0.00705952
0.00499145
0.00237303
0.000360072
0.00982552
0.0095768
0.00947975
0.009512
0.00952239
0.00946098
0.00936198
0.00926476
0.00918745
0.00913118
0.00908867
0.00904527
0.00896638
0.00876276
0.00823445
0.00705639
0.00498443
0.00236803
0.00036036
0.0103132
0.00990204
0.00967098
0.00958797
0.00952721
0.00943901
0.0093391
0.00924952
0.00917943
0.00912761
0.00908722
0.00904449
0.00896524
0.0087602
0.00822923
0.00704797
0.00497509
0.00236249
0.000360604
0.0106426
0.0100773
0.00973378
0.00957565
0.00948144
0.00939102
0.00930226
0.00922511
0.00916413
0.00911777
0.00908024
0.00903874
0.00895964
0.0087537
0.00822074
0.00703724
0.0049645
0.00235655
0.000360801
0.0109041
0.0101807
0.00974163
0.00953256
0.00942268
0.00933878
0.00926368
0.00919899
0.00914674
0.00910568
0.00907109
0.00903103
0.00895228
0.00874562
0.00821084
0.00702533
0.00495311
0.00235032
0.00036095
0.0111058
0.0102431
0.00972967
0.0094851
0.00936772
0.00929191
0.00922893
0.00917469
0.00912975
0.00909329
0.00906137
0.00902269
0.00894431
0.00873694
0.00820032
0.00701278
0.00494121
0.00234388
0.000361052
0.011262
0.0102855
0.00971475
0.00944402
0.00932256
0.00925366
0.00920001
0.00915369
0.00911438
0.00908157
0.00905188
0.00901441
0.00893632
0.00872818
0.00818961
0.00699994
0.00492903
0.00233734
0.000361106
0.0113779
0.0103195
0.00970392
0.00941268
0.00928847
0.00922457
0.00917735
0.00913647
0.00910114
0.00907103
0.00904308
0.00900658
0.00892868
0.00871967
0.00817901
0.00698706
0.00491676
0.00233077
0.000361115
0.0114693
0.0103534
0.00969994
0.00939187
0.00926537
0.00920433
0.00916075
0.00912305
0.00909019
0.0090619
0.00903521
0.00899945
0.0089216
0.00871162
0.00816876
0.00697439
0.00490461
0.00232429
0.000361079
0.0115415
0.0103869
0.00970312
0.00938205
0.00925315
0.00919252
0.00914985
0.00911323
0.0090815
0.00905425
0.0090284
0.00899315
0.00891523
0.0087042
0.00815903
0.00696213
0.00489274
0.00231797
0.000361003
0.0115894
0.0104118
0.00971209
0.00938378
0.00925194
0.00918877
0.00914419
0.00910668
0.00907488
0.009048
0.00902264
0.00898773
0.00890965
0.00869747
0.00814993
0.00695041
0.00488132
0.00231189
0.000360889
0.0116082
0.0104156
0.00972505
0.00939787
0.00926197
0.00919263
0.00914317
0.00910294
0.00907006
0.00904302
0.00901789
0.00898316
0.00890484
0.00869146
0.00814147
0.00693928
0.0048704
0.00230611
0.000360741
0.0115432
0.0103869
0.00974153
0.00942641
0.0092836
0.00920339
0.00914599
0.00910143
0.00906668
0.00903912
0.00901401
0.00897937
0.0089007
0.008686
0.00813343
0.00692848
0.00485982
0.00230059
0.000360561
0.0113429
0.0103278
0.00976699
0.00946952
0.00931469
0.00921893
0.00915113
0.0091012
0.00906421
0.00903597
0.00901081
0.00897613
0.00889687
0.00868049
0.00812487
0.00691677
0.0048483
0.00229469
0.000360373
0.0110705
0.0102903
0.00981301
0.00952461
0.0093502
0.00923548
0.00915633
0.00910102
0.00906197
0.00903322
0.00900808
0.00897326
0.00889308
0.00867426
0.00811436
0.00690156
0.00483231
0.00228561
0.000360264
0.0108625
0.0103039
0.00987418
0.00957759
0.00937957
0.0092471
0.00915861
0.00909945
0.00905929
0.00903053
0.00900563
0.00897075
0.00888959
0.00866813
0.00810358
0.00688569
0.00481553
0.00227615
0.000360148
0.0107749
0.0103074
0.00990317
0.00959996
0.0093885
0.00924727
0.00915516
0.00909527
0.00905557
0.00902758
0.00900331
0.00896854
0.00888651
0.00866253
0.00809351
0.00687076
0.00479983
0.00226745
0.00036001
0.0106188
0.0102245
0.00986043
0.0095738
0.00936959
0.00923313
0.00914487
0.00908802
0.0090506
0.00902423
0.00900097
0.00896656
0.00888386
0.00865764
0.00808463
0.00685757
0.00478602
0.0022599
0.000359852
0.0103623
0.0100529
0.00975075
0.009505
0.00932702
0.00920704
0.0091289
0.0090782
0.00904453
0.00902047
0.00899858
0.00896472
0.00888158
0.00865352
0.00807712
0.0068464
0.0047744
0.00225361
0.000359677
0.0100677
0.00983656
0.00960551
0.0094135
0.00927183
0.0091745
0.00910979
0.0090669
0.00903779
0.00901643
0.00899611
0.00896297
0.00887963
0.00865016
0.00807104
0.00683737
0.00476504
0.00224862
0.000359491
0.00978391
0.00962238
0.00945887
0.00932023
0.00921534
0.0091411
0.00909014
0.00905526
0.00903085
0.00901227
0.0089936
0.00896128
0.00887796
0.00864751
0.00806635
0.00683046
0.00475793
0.00224489
0.000359296
0.00954763
0.00944187
0.00933333
0.00923892
0.00916504
0.00911069
0.00907183
0.00904418
0.0090241
0.00900816
0.00899108
0.00895964
0.00887653
0.0086455
0.00806298
0.00682557
0.00475297
0.00224237
0.000359098
0.00937212
0.00930602
0.00923685
0.00917469
0.00912399
0.00908497
0.0090558
0.00903416
0.0090178
0.00900421
0.00898861
0.00895804
0.0088753
0.0086441
0.00806086
0.0068226
0.00475004
0.00224099
0.000358898
0.00925144
0.00921089
0.0091674
0.00912678
0.00909212
0.00906416
0.00904229
0.00902538
0.00901209
0.00900049
0.0089862
0.00895649
0.00887425
0.00864323
0.00805988
0.00682141
0.004749
0.00224065
0.000358701
0.0091717
0.00914658
0.0091189
0.00909198
0.00906796
0.00904768
0.00903113
0.00901783
0.00900699
0.00899705
0.0089839
0.008955
0.00887338
0.00864286
0.00805993
0.00682184
0.00474968
0.00224127
0.000358509
0.00911943
0.00910337
0.00908519
0.00906682
0.00904974
0.00903472
0.009022
0.00901142
0.00900249
0.0089939
0.00898173
0.0089536
0.00887267
0.00864293
0.00806093
0.00682372
0.0047519
0.00224274
0.000358326
0.00908469
0.00907395
0.00906149
0.00904848
0.00903594
0.00902453
0.00901455
0.00900601
0.00899856
0.00899105
0.00897971
0.00895229
0.00887213
0.00864341
0.00806275
0.00682689
0.00475548
0.00224496
0.000358152
0.009061
0.00905346
0.00904452
0.00903492
0.0090254
0.00901648
0.00900848
0.00900145
0.00899514
0.0089885
0.00897786
0.00895109
0.00887176
0.00864425
0.00806531
0.00683119
0.00476026
0.00224784
0.000357992
0.00904441
0.00903884
0.00903212
0.00902475
0.00901727
0.0090101
0.00900352
0.00899762
0.00899218
0.00898623
0.00897617
0.00895003
0.00887156
0.00864544
0.00806851
0.00683647
0.00476607
0.00225128
0.000357845
0.00903249
0.00902818
0.00902291
0.00901702
0.00901094
0.00900501
0.00899947
0.00899441
0.00898964
0.00898424
0.00897467
0.0089491
0.00887152
0.00864692
0.00807227
0.00684258
0.00477274
0.00225519
0.000357714
0.00902377
0.00902028
0.00901595
0.00901107
0.00900597
0.00900092
0.00899615
0.00899172
0.00898747
0.00898249
0.00897334
0.00894831
0.00887165
0.00864868
0.00807651
0.00684939
0.00478015
0.00225949
0.000357599
0.00901734
0.00901433
0.00901063
0.00900643
0.00900202
0.00899761
0.0089934
0.00898946
0.00898561
0.00898098
0.00897219
0.00894767
0.00887194
0.00865068
0.00808114
0.00685678
0.00478815
0.00226411
0.000357502
0.00901258
0.00900977
0.00900642
0.00900269
0.00899877
0.00899486
0.00899108
0.00898751
0.00898398
0.00897964
0.00897117
0.00894715
0.00887236
0.00865287
0.0080861
0.00686464
0.00479662
0.00226896
0.000357421
0.00900908
0.00900608
0.00900287
0.00899945
0.00899592
0.00899239
0.00898898
0.00898574
0.00898249
0.00897842
0.00897025
0.00894672
0.00887289
0.00865521
0.00809128
0.0068728
0.00480542
0.00227399
0.00035736
0.00900647
0.00900278
0.00899947
0.00899626
0.00899307
0.00898992
0.00898686
0.00898394
0.00898099
0.00897718
0.00896934
0.00894631
0.00887344
0.00865759
0.00809652
0.00688108
0.00481435
0.00227909
0.000357315
0.00900428
0.00899933
0.00899574
0.00899272
0.00898989
0.00898714
0.00898449
0.00898194
0.00897932
0.00897583
0.00896834
0.00894583
0.00887391
0.00865984
0.00810154
0.00688904
0.00482301
0.00228406
0.000357287
0.00900202
0.00899553
0.00899162
0.00898882
0.00898639
0.0089841
0.00898189
0.00897975
0.00897751
0.00897437
0.00896725
0.00894525
0.0088742
0.00866168
0.0081058
0.00689592
0.0048306
0.00228846
0.000357271
0.00899973
0.00899226
0.00898821
0.00898563
0.00898354
0.00898162
0.00897977
0.00897796
0.00897603
0.00897318
0.00896635
0.00894472
0.00887426
0.00866276
0.00810848
0.00690041
0.00483581
0.00229174
0.000357255
)
;

boundaryField
{
    leftWall
    {
        type            nutkWallFunction;
        Cmu             0.09;
        kappa           0.41;
        E               9.8;
        value           nonuniform List<scalar> 
50
(
1.08646e-05
2.69774e-05
2.79943e-05
2.83974e-05
2.85991e-05
2.87082e-05
2.87704e-05
2.88092e-05
2.88451e-05
2.88755e-05
2.88954e-05
2.92735e-05
3.51978e-05
3.51971e-05
3.52114e-05
3.52437e-05
3.52787e-05
3.53115e-05
3.53406e-05
3.5366e-05
3.53876e-05
3.54057e-05
3.54207e-05
3.54356e-05
3.5452e-05
3.54426e-05
3.54965e-05
3.80249e-05
3.88633e-05
3.82354e-05
3.80306e-05
3.79053e-05
3.7819e-05
3.77498e-05
3.76923e-05
3.76433e-05
3.76003e-05
3.75613e-05
3.75253e-05
3.74916e-05
3.74598e-05
3.74299e-05
3.74018e-05
3.73757e-05
3.73526e-05
3.73392e-05
3.73835e-05
3.78018e-05
4.02419e-05
4.98994e-05
)
;
    }
    rightWall
    {
        type            nutkWallFunction;
        Cmu             0.09;
        kappa           0.41;
        E               9.8;
        value           nonuniform List<scalar> 
50
(
6.66384e-06
3.91371e-05
4.12805e-05
4.21486e-05
4.26001e-05
4.28593e-05
4.30145e-05
4.31096e-05
4.32021e-05
4.32684e-05
4.33185e-05
4.33606e-05
4.33978e-05
4.34305e-05
4.34587e-05
4.3482e-05
4.35005e-05
4.35138e-05
4.35223e-05
4.35259e-05
4.35249e-05
4.35194e-05
4.35099e-05
4.34967e-05
4.34801e-05
4.34617e-05
4.34515e-05
4.34401e-05
4.34262e-05
4.34101e-05
4.33922e-05
4.33729e-05
4.33527e-05
4.33319e-05
4.3311e-05
4.32903e-05
4.32701e-05
4.32507e-05
4.32324e-05
4.32152e-05
4.31996e-05
4.31855e-05
4.31732e-05
4.31626e-05
4.31539e-05
4.3147e-05
4.3142e-05
4.31388e-05
4.31369e-05
4.31352e-05
)
;
    }
    lowerWall
    {
        type            nutkWallFunction;
        Cmu             0.09;
        kappa           0.41;
        E               9.8;
        value           nonuniform List<scalar> 
62
(
1.08646e-05
1.19018e-05
1.23178e-05
1.24785e-05
1.25616e-05
1.26338e-05
1.27233e-05
1.28493e-05
1.30357e-05
1.33192e-05
1.36857e-05
1.39826e-05
1.41113e-05
1.39422e-05
1.53709e-05
1.57583e-05
1.53796e-05
1.51955e-05
1.50922e-05
1.4978e-05
1.47821e-05
1.43354e-05
1.31439e-05
1.31439e-05
3.29909e-05
3.50471e-05
3.62843e-05
3.73054e-05
3.83939e-05
3.9832e-05
4.24452e-05
4.99112e-05
4.7398e-05
4.51902e-05
4.36383e-05
7.05983e-06
3.96052e-05
4.15348e-05
4.24208e-05
4.33476e-05
4.49507e-05
4.77374e-05
4.85002e-05
7.05983e-06
9.03099e-06
9.76208e-06
9.91153e-06
9.84691e-06
9.72667e-06
9.63482e-06
9.57118e-06
9.50838e-06
9.44538e-06
9.3826e-06
9.32019e-06
9.25789e-06
9.19438e-06
9.12526e-06
9.03352e-06
8.85069e-06
8.31015e-06
6.66384e-06
)
;
    }
    atmosphere
    {
        type            calculated;
        value           nonuniform List<scalar> 
46
(
0.009
0.009
0.009
0.009
0.009
0.009
0.009
0.009
0.009
0.009
0.009
0.009
0.009
0.009
0.009
0.009
0.009
0.009
0.009
0.009
0.009
0.009
0.009
0.00902667
0.00902196
0.0090156
0.0090092
0.00899973
0.00899226
0.00898821
0.00898563
0.00898354
0.00898162
0.00897977
0.00897796
0.00897603
0.00897318
0.00896635
0.00894472
0.00887426
0.00866276
0.00810848
0.00690041
0.00483581
0.00229174
0.000357255
)
;
    }
    defaultFaces
    {
        type            empty;
    }
}


// ************************************************************************* //
