/*--------------------------------*- C++ -*----------------------------------*\
  =========                 |
  \\      /  F ield         | OpenFOAM: The Open Source CFD Toolbox
   \\    /   O peration     | Website:  https://openfoam.org
    \\  /    A nd           | Version:  13
     \\/     M anipulation  |
\*---------------------------------------------------------------------------*/
FoamFile
{
    format      ascii;
    class       volScalarField;
    location    "0.05";
    object      p;
}
// * * * * * * * * * * * * * * * * * * * * * * * * * * * * * * * * * * * * * //

dimensions      [1 -1 -2 0 0 0 0];

internalField   nonuniform List<scalar> 
2268
(
12583.1
12597
12581.5
12514.5
12380.6
12168.6
11865.4
11449.1
10882
10096.5
8988.19
7365.17
4839.78
2217.8
1436.3
1289.41
1260.45
1216.19
1175.93
1147.98
1131.96
1127.12
1130.77
11780.7
11787.8
11764.6
11691
11551
11331.5
11017.3
10583.9
9988.97
9155.68
7989.69
6286.85
3646.53
1642.5
1328.33
1263.93
1230.58
1185.96
1146.57
1118.8
1102.86
1098.18
1101.92
10982.6
10984.7
10951.9
10867.9
10718.2
10488.3
10160.4
9707.53
9084.11
8209.42
7012.24
5285.1
2719.5
1453.86
1289.8
1239.85
1198.42
1153.24
1114.65
1086.92
1070.63
1065.81
1070.21
10190.4
10191.5
10152
10057.6
9897.16
9656.45
9316.77
8849.65
8209.97
7320.5
6134.33
4446.08
2124.81
1356.11
1245.65
1204.85
1161.78
1117.42
1079.57
1051.51
1034.16
1028.84
1034.44
9404.94
9407.35
9365.55
9263.77
9094.19
8844.98
8498.22
8026.3
7387.43
6512.97
5376.93
3780.19
1775.67
1280.61
1195.74
1163.27
1121.75
1078.82
1041.42
1012.46
993.103
986.702
993.018
8627.56
8631.57
8590.47
8485.47
8310.4
8056.93
7709.56
7243.36
6621.66
5786.73
4728.53
3253.85
1559.52
1213.68
1143.4
1117.96
1079.11
1037.8
1000.54
969.944
947.314
938.756
943.204
7859.09
7863.69
7824.34
7719.71
7543.62
7291.02
6949.85
6499.04
5907.77
5130.2
4165.93
2828.26
1410.1
1150.43
1090.49
1070.32
1034.48
994.825
957.33
924.196
896.44
883.032
879.846
7098.9
7102.45
7064.36
6962.49
6789.6
6542.86
6213.78
5785.77
5234.16
4525.68
3657.74
2462.48
1291.54
1089.25
1038.16
1021.02
988.434
950.344
912.137
875.212
839.42
811.862
786.055
7.92512
8.07813
8.20771
8.29063
8.32517
8.3208
8.28986
8.24377
8.191
8.13714
8.08565
8.03857
7.99712
7.96205
7.93389
7.91301
7.89956
7.89306
7.89198
7.84445
8.01761
8.15367
8.23811
8.27252
8.26706
8.23485
8.18776
8.1343
8.08
8.02822
7.98096
7.93939
7.90423
7.876
7.85503
7.8414
7.83462
7.83316
7.74337
7.96847
8.11522
8.19866
8.22962
8.21997
8.18404
8.13425
8.07901
8.02359
7.97111
7.92341
7.88154
7.84616
7.81772
7.79651
7.78251
7.7753
7.77357
7.61586
7.93704
8.09967
8.17702
8.19901
8.18067
8.1378
8.08321
8.02488
7.96753
7.91386
7.86541
7.82303
7.78725
7.75844
7.73679
7.72229
7.71477
7.71308
7.4552
7.92212
8.10878
8.1742
8.18086
8.14888
8.09576
8.0343
7.9716
7.91153
7.85619
7.80666
7.76356
7.72721
7.69787
7.67566
7.66068
7.65307
7.65165
7.25109
7.91607
8.14396
8.18729
8.17274
8.12274
8.05662
7.98667
7.91863
7.85523
7.79781
7.74695
7.70294
7.66588
7.63589
7.61309
7.59776
7.59028
7.58916
6.86759
7.9742
8.23146
8.21419
8.17014
8.09932
8.01846
7.93919
7.8653
7.79822
7.73847
7.6861
7.64104
7.6032
7.57252
7.54917
7.53366
7.52641
7.52554
5.58563
8.09517
8.4063
8.25472
8.16519
8.07362
7.97835
7.89001
7.81045
7.73976
7.67768
7.62378
7.57767
7.53902
7.5077
7.48395
7.46844
7.46146
7.46069
5925.86
5926.47
5888.94
5793.41
5631.42
5401.82
5101.2
4720.11
4244.1
3656.8
2936.18
1973.82
1165.52
1000.24
958.599
943.228
915.539
879.706
839.851
795.692
743.489
670.248
503.019
4378.99
4374.04
4332.2
4243.12
4101.56
3908.19
3664.07
3368
3017.63
2611.48
2134.64
1498.7
990.195
880.982
856.073
844.137
820.692
787.534
747.038
698.212
636.649
554.473
440.621
2900.79
2894.99
2846.52
2764.08
2647.74
2499.88
2324.35
2126.3
1913.68
1698.11
1477.16
1152.69
836.339
766.558
760.657
753.148
732.514
701.346
660.95
610.223
545.518
461.601
351.027
1728.87
1714.07
1667.19
1610.65
1542.72
1463.98
1376.28
1282.13
1185.46
1092.82
1003.32
858.008
701.932
671.086
677.824
671.809
652.215
622.08
582.054
531.068
466.321
383.69
279.297
1057.29
1063.08
1050.93
1032.76
1004.83
967.824
924.505
877.704
829.775
782.539
734.241
667.782
617.826
607.643
610.102
600.342
579.715
549.748
510.297
460.388
398.158
320.993
228.171
963.269
968.603
967.65
958.508
938.519
908.162
869.617
825.095
776.438
725.079
670.856
614.151
576.408
561.491
552.293
536.971
514.521
484.5
446.111
398.359
339.891
269.565
187.433
868.963
870.652
868.096
858.367
839.613
812.447
778.658
740.001
697.901
653.388
606.595
558.758
527.177
510.819
496.609
478.513
455.199
425.622
388.808
343.834
289.715
226.264
154.48
778.15
778.751
775.665
766.319
749.373
725.471
696.107
662.691
626.356
587.946
547.6
505.83
476.201
458.824
442.959
424.02
400.791
372.267
337.541
295.809
246.34
189.681
127.011
690.972
691.228
688.334
680.076
665.357
644.723
619.403
590.54
559.04
525.591
490.284
453.016
425.131
407.762
391.724
373.015
350.619
323.714
291.526
253.368
208.735
158.332
102.649
607.431
607.5
604.862
597.666
585.001
567.313
545.603
520.791
493.59
464.541
433.654
400.397
374.68
358.204
342.837
325.069
304.098
279.287
250.005
215.67
175.908
131.598
82.3256
527.317
527.278
524.889
518.627
507.753
492.65
474.134
452.94
429.622
404.594
377.788
348.409
325.277
310.266
296.115
279.793
260.695
238.342
212.23
181.873
146.997
108.536
65.4287
450.301
450.2
448.049
442.604
433.302
420.484
404.819
386.89
367.123
345.827
322.884
297.374
277.118
263.929
251.347
236.815
219.902
200.255
177.48
151.179
121.159
88.3788
51.1945
376.069
375.914
373.943
369.185
361.254
350.472
337.383
322.441
305.969
288.197
268.987
247.402
230.251
219.108
208.312
195.788
181.251
164.453
145.099
122.874
97.6692
70.4423
39.1788
304.459
304.271
302.417
298.212
291.483
282.541
271.814
259.647
246.282
231.889
216.324
198.739
184.859
175.853
166.947
156.54
144.47
130.577
114.66
96.498
76.0604
54.2478
28.9632
235.286
235.197
233.528
229.871
224.275
217.056
208.543
198.989
188.577
177.426
165.413
151.893
141.413
134.489
127.45
119.166
109.557
98.5368
85.9992
71.8234
56.0336
39.4886
20.4482
167.339
167.743
166.506
163.583
159.193
153.662
147.249
140.155
132.529
124.443
115.863
106.554
99.8469
94.9658
89.6781
83.4156
76.1576
67.8626
58.5167
48.1003
36.7116
25.4458
13.8445
101.09
102.784
101.768
99.5444
96.3721
92.5117
88.1624
83.4886
78.6101
73.5403
68.3148
63.1189
59.9613
57.2017
53.5456
49.2216
44.272
38.653
32.4054
25.5797
18.3081
12.1521
7.88522
46.9046
51.8006
50.6114
48.9598
47.0462
44.9624
42.8531
40.8287
38.9357
37.1365
35.4511
32.5898
28.4552
26.6711
24.6427
22.5103
20.2339
17.715
14.991
12.1176
9.23934
7.35252
4.18905
26.579
27.9298
25.4587
23.7359
22.5376
21.5356
20.6915
19.9827
19.375
18.9437
18.8393
17.5651
13.1359
11.6834
11.0527
10.5304
9.89135
9.13104
8.26687
7.31797
6.35676
5.98163
6.09872
1.26958
1.73688
1.41667
1.41911
1.45453
1.46817
1.4837
1.50446
1.53053
1.56458
1.63315
1.5954
1.59197
1.54653
1.5729
1.61592
1.65227
1.67857
1.69658
1.68966
1.60431
1.61732
2.21649
1.49287
1.53032
1.51062
1.52978
1.55364
1.57546
1.59592
1.61603
1.63662
1.65828
1.67996
1.69303
1.71197
1.73093
1.75769
1.79058
1.82499
1.85982
1.8952
1.9262
1.94278
1.96297
2.04829
1.43278
1.45282
1.45534
1.46702
1.48377
1.50276
1.52197
1.54127
1.56103
1.58124
1.60104
1.61961
1.64048
1.66357
1.69127
1.72319
1.75843
1.79612
1.83618
1.87831
1.92544
1.99118
2.09582
1.40179
1.4083
1.40949
1.41607
1.42778
1.44281
1.45951
1.47723
1.49586
1.51533
1.5355
1.55655
1.58041
1.60636
1.63532
1.66838
1.70531
1.7459
1.79042
1.83979
1.89825
1.97754
2.09121
1.36035
1.36265
1.36442
1.36984
1.37924
1.39188
1.40676
1.42325
1.44109
1.46028
1.48097
1.50347
1.52882
1.55664
1.58753
1.62225
1.66111
1.7044
1.75275
1.80739
1.87154
1.952
2.05558
1.31129
1.31248
1.31484
1.31994
1.3282
1.33943
1.35309
1.3687
1.38602
1.40504
1.42595
1.44906
1.47489
1.50358
1.53553
1.57129
1.61129
1.65599
1.7061
1.76273
1.82791
1.90481
1.99592
1.2561
1.25683
1.25906
1.26365
1.27106
1.28128
1.294
1.30885
1.32564
1.34439
1.36524
1.38844
1.41434
1.44319
1.47535
1.51123
1.55123
1.5958
1.64554
1.70126
1.76413
1.83543
1.91563
1.19589
1.19632
1.19818
1.20225
1.209
1.21849
1.23045
1.24462
1.26086
1.27919
1.29971
1.32264
1.34824
1.37674
1.40844
1.44367
1.48276
1.52607
1.57402
1.62714
1.68601
1.75098
1.82179
1.13155
1.13173
1.13324
1.13687
1.14312
1.15202
1.16335
1.17688
1.19252
1.21029
1.23027
1.25263
1.27757
1.30529
1.33603
1.37004
1.40756
1.44885
1.49418
1.54383
1.59803
1.65671
1.71932
1.06376
1.06378
1.065
1.06827
1.07409
1.08249
1.09324
1.10615
1.12112
1.13819
1.15744
1.17898
1.20298
1.22959
1.25899
1.29136
1.32686
1.36567
1.40791
1.45372
1.5031
1.55582
1.61125
0.993083
0.992983
0.993992
0.996963
1.00242
1.01034
1.02051
1.03276
1.04701
1.06327
1.08161
1.10213
1.12495
1.15019
1.17797
1.20841
1.24161
1.27765
1.3166
1.35846
1.40313
1.45031
1.49941
0.919913
0.919749
0.920604
0.923325
0.928419
0.935867
0.945449
0.956995
0.970437
0.985786
1.00309
1.02244
1.0439
1.06756
1.09352
1.12183
1.15255
1.1857
1.22128
1.25923
1.2994
1.34147
1.38493
0.84457
0.844378
0.845122
0.847622
0.852362
0.859318
0.868276
0.879072
0.891641
0.905987
0.922149
0.940183
0.960148
0.982101
1.00609
1.03215
1.0603
1.09051
1.12273
1.15688
1.19279
1.23016
1.26853
0.767308
0.767111
0.767773
0.770068
0.77445
0.780893
0.789192
0.79919
0.810824
0.824092
0.839021
0.85565
0.874018
0.894158
0.916094
0.939834
0.96536
0.992631
1.02157
1.05207
1.08396
1.11697
1.15072
0.688344
0.688157
0.688753
0.690851
0.694868
0.700775
0.708381
0.717538
0.728185
0.740313
0.753941
0.769092
0.785791
0.804052
0.823879
0.845262
0.868166
0.892533
0.918276
0.945278
0.973379
1.00234
1.03182
0.607871
0.607699
0.60824
0.610143
0.613785
0.619137
0.626021
0.6343
0.643916
0.654856
0.66713
0.680752
0.695731
0.71207
0.729761
0.748778
0.769078
0.790593
0.813235
0.836889
0.861404
0.886569
0.912104
0.526071
0.525908
0.526396
0.528104
0.531365
0.536146
0.542283
0.549655
0.558204
0.567919
0.5788
0.590855
0.604082
0.618477
0.63402
0.650679
0.668405
0.68713
0.706767
0.727209
0.748321
0.76992
0.791757
0.443134
0.442947
0.443383
0.4449
0.44778
0.451978
0.457349
0.463786
0.471241
0.4797
0.489161
0.499622
0.511078
0.523515
0.53691
0.551227
0.566416
0.582412
0.599135
0.616489
0.634357
0.652577
0.670938
0.359295
0.359009
0.3594
0.360731
0.363231
0.366836
0.371421
0.376899
0.383234
0.390413
0.398431
0.40728
0.416951
0.427425
0.438676
0.450668
0.463354
0.476676
0.490563
0.504934
0.519693
0.534707
0.549777
0.274682
0.274252
0.274622
0.275743
0.277848
0.280839
0.284611
0.289108
0.294303
0.300186
0.306747
0.313975
0.321856
0.330369
0.339487
0.349176
0.359394
0.370091
0.38121
0.392688
0.404454
0.416414
0.428399
0.188846
0.18814
0.188712
0.189625
0.191294
0.193638
0.196581
0.200092
0.204152
0.20875
0.21387
0.219499
0.225616
0.232202
0.239229
0.246666
0.254477
0.262621
0.271057
0.279743
0.288647
0.297777
0.307029
0.103197
0.0980811
0.101013
0.102348
0.103651
0.105356
0.107485
0.110023
0.112963
0.116289
0.119984
0.124029
0.128404
0.133088
0.138056
0.143279
0.148728
0.154374
0.160189
0.166157
0.172322
0.178989
0.186481
0.0304544
0.00356943
0.0171494
0.0203913
0.0217718
0.0229539
0.0242184
0.0256473
0.0272687
0.0290806
0.03107
0.0332205
0.0355143
0.0379317
0.0404514
0.0430508
0.0457074
0.0484028
0.051131
0.0539145
0.0568867
0.0607292
0.067222
154.971
74.2801
65.5318
48.3833
288.421
191.987
116.533
50.8207
220.059
133.07
50.9279
13.3283
175.398
100.745
33.4602
10.0366
141.729
72.0049
23.7458
8.59816
109.469
47.2587
13.4018
8.12723
81.8671
30.9213
8.72459
7.28351
60.0526
21.0879
7.15533
6.78728
44.2475
14.5641
6.84494
6.55814
32.6352
10.9913
6.50673
6.2691
24.1209
8.53517
6.13332
5.95083
17.999
6.87021
5.70625
5.60448
13.7026
5.80415
5.21938
5.22039
10.6413
5.16189
4.80369
4.85606
8.31618
4.75812
4.57277
4.61426
6.96155
4.58136
4.42096
4.42269
5.72258
4.41966
4.22554
4.18179
0.802074
3.63377
3.91841
3.89094
2.64292
2.63529
3.38766
3.53687
2.44984
2.5699
2.72962
2.89377
2.13841
2.26578
2.44451
2.61316
2.23094
2.33088
2.43304
2.53969
2.20219
2.27761
2.35602
2.43879
2.14853
2.20897
2.27012
2.33425
2.0729
2.12217
2.17153
2.22273
1.98041
2.02165
2.06279
2.10509
1.87723
1.91245
1.94754
1.98334
1.76737
1.79786
1.82822
1.85906
1.65323
1.67985
1.70638
1.73322
1.53626
1.55964
1.58292
1.60643
1.41734
1.4379
1.45839
1.47903
1.29702
1.31511
1.33311
1.35123
1.17568
1.19153
1.20732
1.22318
1.05358
1.06739
1.08114
1.09494
0.930889
0.942814
0.954691
0.966594
0.807775
0.81794
0.828048
0.838171
0.684337
0.692827
0.701268
0.709698
0.560685
0.567575
0.574397
0.581197
0.436909
0.442232
0.447477
0.452672
0.313176
0.316895
0.320516
0.324107
0.190221
0.191902
0.193623
0.19553
0.069422
0.0685837
0.0677365
0.0673365
7.79427
8.25736
8.55062
8.31037
8.13539
8.01851
7.90561
7.80584
7.71915
7.6439
7.57885
7.52299
7.47551
7.43584
7.40379
7.37977
7.36461
7.35808
7.35739
8.64602
8.29143
8.4926
8.24222
8.04055
7.90465
7.77843
7.67057
7.57879
7.50034
7.43329
7.37621
7.32798
7.28786
7.25566
7.23191
7.21745
7.21154
7.21104
8.12866
8.14729
8.18351
8.03585
7.89067
7.75169
7.62547
7.51671
7.42393
7.34487
7.27761
7.22058
7.17257
7.13281
7.10113
7.07811
7.06444
7.05906
7.05872
8.03729
7.92116
7.93433
7.82837
7.69765
7.56726
7.44877
7.34473
7.2549
7.17797
7.1124
7.05681
7.01005
6.97143
6.94082
6.91881
6.90597
6.90107
6.90083
7.66885
7.68919
7.69923
7.60004
7.47738
7.36022
7.25279
7.15687
7.07297
7.00048
6.93833
6.88544
6.8409
6.80412
6.77505
6.7543
6.74233
6.73785
6.73771
7.40306
7.44419
7.44136
7.34345
7.23668
7.13554
7.04128
6.95572
6.87982
6.81348
6.75613
6.70704
6.66553
6.6312
6.60409
6.58482
6.57379
6.56975
6.56969
7.06022
7.15078
7.14623
7.06878
6.98243
6.89831
6.81814
6.74407
6.67735
6.61831
6.56675
6.52227
6.48446
6.45307
6.42828
6.41069
6.4007
6.3971
6.39714
6.78543
6.85899
6.85185
6.79015
6.72168
6.65331
6.5869
6.52452
6.4675
6.41637
6.37122
6.33192
6.29828
6.27024
6.24804
6.2323
6.22344
6.22033
6.22044
6.53551
6.57446
6.56138
6.51129
6.45758
6.40351
6.35016
6.29925
6.25199
6.20902
6.17062
6.13684
6.1077
6.08326
6.06385
6.05011
6.04243
6.03982
6.04004
6.24684
6.28176
6.27222
6.23248
6.19181
6.15089
6.10987
6.07001
6.03236
5.99755
5.96599
5.93789
5.91341
5.89273
5.87624
5.86458
5.85813
5.85605
5.85634
5.9402
5.98401
5.98237
5.95359
5.92539
5.8969
5.86758
5.83829
5.80991
5.7831
5.75831
5.7359
5.71613
5.69927
5.68576
5.67622
5.67102
5.66946
5.66984
5.62269
5.67986
5.69009
5.67448
5.65914
5.64272
5.62455
5.60532
5.58581
5.5667
5.54851
5.53167
5.51656
5.5035
5.49296
5.48553
5.48159
5.48055
5.48099
5.29738
5.37144
5.39648
5.39623
5.39419
5.38949
5.38192
5.37218
5.36106
5.34927
5.3374
5.32595
5.31536
5.30602
5.29839
5.29304
5.29031
5.28976
5.29028
4.98609
5.06947
5.10648
5.12137
5.13202
5.13834
5.14066
5.13979
5.13653
5.13163
5.12574
5.11942
5.11316
5.10739
5.10257
5.09922
5.09765
5.09758
5.09816
4.7126
4.78408
4.82473
4.85191
4.8737
4.89009
4.90156
4.90891
4.91296
4.91449
4.91421
4.91272
4.91055
4.90816
4.90601
4.90455
4.90409
4.90445
4.90508
4.45418
4.50558
4.55007
4.58753
4.6194
4.64517
4.66517
4.68016
4.69099
4.69849
4.7034
4.7064
4.70804
4.70882
4.70917
4.70948
4.71004
4.71081
4.71146
4.17085
4.22334
4.27793
4.32678
4.36899
4.40396
4.43207
4.45418
4.47126
4.48422
4.49388
4.501
4.50615
4.50983
4.51247
4.51442
4.51592
4.51704
4.51771
3.85963
3.93124
4.00558
4.06921
4.12284
4.16709
4.20294
4.23163
4.25438
4.27226
4.2862
4.29701
4.30531
4.31162
4.31633
4.31974
4.32208
4.32351
4.32419
3.55101
3.63624
3.73561
3.81654
3.8823
3.93559
3.97859
4.01317
4.04093
4.06313
4.08082
4.09486
4.10593
4.11455
4.1211
4.1258
4.12886
4.13055
4.13124
3.13404
3.33407
3.4711
3.57187
3.64954
3.7109
3.75998
3.79951
3.83145
3.85728
3.87814
3.89493
3.90836
3.91896
3.92707
3.93288
3.93656
3.93846
3.93912
2.86612
3.08309
3.23342
3.3438
3.42832
3.49485
3.54816
3.59131
3.62643
3.65509
3.67847
3.69749
3.71286
3.7251
3.73451
3.74124
3.74541
3.74747
3.74812
2.71059
2.88885
3.02751
3.13526
3.22024
3.28837
3.34369
3.38896
3.42617
3.45682
3.48206
3.50277
3.51965
3.53318
3.54362
3.55107
3.55563
3.55781
3.55842
2.57291
2.7204
2.8426
2.94245
3.02402
3.09108
3.1465
3.1925
3.23076
3.26259
3.28903
3.31091
3.32886
3.34334
3.35455
3.36254
3.36738
3.36962
3.37019
2.43965
2.56334
2.67034
2.76113
2.83758
2.90192
2.95609
3.0017
3.0401
3.07236
3.09941
3.12196
3.14059
3.15568
3.16741
3.17576
3.18078
3.18305
3.18357
2.30759
2.4126
2.5064
2.58832
2.65903
2.71976
2.77175
2.81614
2.85394
2.88603
2.91315
2.93592
2.95485
2.97026
2.98227
2.99081
2.99591
2.99817
2.99865
2.17547
2.26579
2.34832
2.42199
2.48686
2.54354
2.59277
2.63534
2.67198
2.70337
2.73011
2.75273
2.77162
2.78708
2.79915
2.80774
2.81283
2.81506
2.81549
2.04309
2.12162
2.19451
2.26068
2.31987
2.37232
2.41847
2.45881
2.49387
2.52416
2.55015
2.57227
2.59084
2.6061
2.61805
2.62654
2.63156
2.63371
2.6341
1.91059
1.97939
2.04397
2.10334
2.15711
2.20533
2.24821
2.28605
2.31923
2.34811
2.37305
2.3944
2.41242
2.42726
2.43892
2.44721
2.45209
2.45415
2.45448
1.77811
1.83868
1.89599
1.94918
1.99785
2.04191
2.08145
2.11664
2.14771
2.17495
2.19861
2.21897
2.23622
2.25049
2.26171
2.2697
2.27438
2.27633
2.27662
1.64576
1.69919
1.75005
1.79761
1.84148
1.88151
1.91771
1.95014
1.97898
2.0044
2.02661
2.0458
2.06213
2.07567
2.08634
2.09394
2.09838
2.1002
2.10045
1.51357
1.56071
1.60578
1.64817
1.68752
1.72367
1.75655
1.78621
1.81272
1.83621
1.85682
1.87471
1.88998
1.90268
1.91271
1.91985
1.92401
1.92569
1.9259
1.38155
1.42306
1.46287
1.50048
1.53558
1.56799
1.59763
1.6245
1.64863
1.67011
1.68904
1.70552
1.71964
1.7314
1.74071
1.74734
1.75118
1.75272
1.75289
1.24971
1.28609
1.32108
1.35425
1.38532
1.41414
1.44061
1.46471
1.48645
1.50587
1.52305
1.53805
1.55093
1.56169
1.57022
1.57629
1.5798
1.58118
1.58132
1.11802
1.1497
1.18021
1.20921
1.23646
1.26183
1.28522
1.30658
1.32593
1.34326
1.35864
1.37211
1.3837
1.3934
1.4011
1.40657
1.40973
1.41097
1.41107
0.986478
1.01378
1.04009
1.06515
1.08877
1.11081
1.13119
1.14987
1.16682
1.18207
1.19562
1.20752
1.21778
1.22638
1.23321
1.23808
1.24087
1.24195
1.24203
0.855058
0.87823
0.900578
0.921892
0.942018
0.960846
0.978302
0.994338
1.00893
1.02208
1.0338
1.04411
1.05302
1.06049
1.06643
1.07066
1.07309
1.07401
1.07407
0.723737
0.74298
0.761543
0.779266
0.79603
0.811744
0.826344
0.839786
0.852046
0.863115
0.872998
0.881704
0.889234
0.895562
0.900597
0.904182
0.906236
0.90701
0.907052
0.592485
0.607945
0.622861
0.637119
0.650629
0.663317
0.675127
0.686022
0.695976
0.70498
0.713031
0.720132
0.726281
0.731453
0.73557
0.738504
0.740184
0.740821
0.740846
0.461265
0.47304
0.484415
0.495311
0.505656
0.515393
0.524475
0.532867
0.540548
0.547505
0.553735
0.559235
0.564001
0.568012
0.571206
0.573486
0.574798
0.575296
0.575324
0.330038
0.338176
0.346077
0.353684
0.360938
0.367788
0.374192
0.380123
0.385561
0.390494
0.394916
0.398824
0.402212
0.405065
0.407339
0.408971
0.409927
0.410316
0.410351
0.198818
0.203263
0.207696
0.212054
0.216263
0.220269
0.224036
0.227538
0.23076
0.233689
0.23632
0.238649
0.240671
0.242377
0.243749
0.244762
0.245406
0.245728
0.245812
0.0672267
0.068026
0.0691601
0.0704033
0.0716703
0.0729144
0.0741071
0.0752309
0.076275
0.0772322
0.0780979
0.0788687
0.0795428
0.0801195
0.0806005
0.0809911
0.0813004
0.0815317
0.0816528
)
;

boundaryField
{
    leftWall
    {
        type            calculated;
        value           nonuniform List<scalar> 
50
(
12583.1
11780.7
10982.6
10190.4
9404.94
8627.56
7859.09
7098.9
5925.86
4378.99
2900.79
1728.87
1057.29
963.269
868.963
778.15
690.972
607.431
527.317
450.301
376.069
304.459
235.286
167.339
101.09
46.9046
26.579
1.26958
1.49287
1.43278
1.40179
1.36035
1.31129
1.2561
1.19589
1.13155
1.06376
0.993083
0.919913
0.84457
0.767308
0.688344
0.607871
0.526071
0.443134
0.359295
0.274682
0.188846
0.103197
0.0304544
)
;
    }
    rightWall
    {
        type            calculated;
        value           nonuniform List<scalar> 
50
(
7.89198
7.83316
7.77357
7.71308
7.65165
7.58916
7.52554
7.46069
7.35739
7.21104
7.05872
6.90083
6.73771
6.56969
6.39714
6.22044
6.04004
5.85634
5.66984
5.48099
5.29028
5.09816
4.90508
4.71146
4.51771
4.32419
4.13124
3.93912
3.74812
3.55842
3.37019
3.18357
2.99865
2.81549
2.6341
2.45448
2.27662
2.10045
1.9259
1.75289
1.58132
1.41107
1.24203
1.07407
0.907052
0.740846
0.575324
0.410351
0.245812
0.0816528
)
;
    }
    lowerWall
    {
        type            calculated;
        value           nonuniform List<scalar> 
62
(
12981.2
12995.2
12979.6
12912.6
12778.8
12566.8
12263.6
11847.3
11280.1
10494.7
9386.34
7763.32
5237.93
2525.63
1468.9
1304.12
1275.17
1230.9
1190.64
1162.7
1146.68
1141.83
1145.48
1130.77
1101.92
1070.21
1034.44
993.018
943.204
879.846
786.055
186.27
105.579
96.8304
79.6819
7.92512
7.84445
7.74337
7.61586
7.4552
7.25109
6.86759
5.58563
7.95455
8.10756
8.23714
8.32006
8.3546
8.35023
8.31929
8.2732
8.22043
8.16657
8.11508
8.068
8.02655
7.99148
7.96332
7.94244
7.92899
7.92249
7.9214
)
;
    }
    atmosphere
    {
        type            calculated;
        value           nonuniform List<scalar> 
46
(
-0.0106946
-0.0149733
-0.0137355
-0.0132832
-0.0128479
-0.0123446
-0.0117497
-0.0110644
-0.0102984
-0.009464
-0.00857464
-0.00764485
-0.00669057
-0.00572922
-0.00477965
-0.00386187
-0.00299655
-0.00220448
-0.00150584
-0.000919874
-0.000465188
-0.00016054
-1.84183e-05
0
0
0
0
0
0
0
0
0
0
0
0
0
0
0
0
0
0
0
0
0
0
0
)
;
    }
    defaultFaces
    {
        type            empty;
    }
}


// ************************************************************************* //
