/*--------------------------------*- C++ -*----------------------------------*\
  =========                 |
  \\      /  F ield         | OpenFOAM: The Open Source CFD Toolbox
   \\    /   O peration     | Website:  https://openfoam.org
    \\  /    A nd           | Version:  13
     \\/     M anipulation  |
\*---------------------------------------------------------------------------*/
FoamFile
{
    format      ascii;
    class       volScalarField;
    location    "0.05";
    object      p_rgh;
}
// * * * * * * * * * * * * * * * * * * * * * * * * * * * * * * * * * * * * * //

dimensions      [1 -1 -2 0 0 0 0];

internalField   nonuniform List<scalar> 
2268
(
12981.2
12995.2
12979.6
12912.6
12778.8
12566.8
12263.6
11847.3
11280.1
10494.7
9386.34
7763.32
5237.93
2525.63
1468.9
1304.12
1275.17
1230.9
1190.64
1162.7
1146.68
1141.83
1145.48
12975.1
12982.2
12959.1
12885.4
12745.4
12525.9
12211.8
11778.4
11183.4
10350.1
9184.14
7481.3
4826.94
2106.48
1372.47
1308.08
1274.72
1230.1
1190.71
1162.94
1147.01
1142.33
1146.07
12973.3
12975.4
12942.6
12858.6
12709
12479
12151.2
11698.3
11074.9
10200.2
9002.99
7275.85
4488.9
1827.66
1363.37
1313.42
1272
1226.81
1188.23
1160.5
1144.2
1139.38
1143.79
12977.4
12978.5
12939
12844.6
12684.2
12443.5
12103.8
11636.7
10997
10107.5
8921.38
7233.13
4349.1
1661.93
1348.66
1307.85
1264.79
1220.43
1182.58
1154.52
1137.16
1131.84
1137.44
12988.3
12990.7
12948.9
12847.1
12677.5
12428.3
12081.6
11609.6
10970.8
10096.3
8960.28
7363.54
4355.27
1544.34
1328.17
1295.7
1254.19
1211.25
1173.86
1144.89
1125.54
1119.13
1125.45
13007.2
13011.2
12970.1
12865.1
12690.1
12436.6
12089.2
11623
11001.3
10166.4
9108.18
7633.49
4398.17
1451.41
1305.26
1279.82
1240.97
1199.66
1162.4
1131.81
1109.18
1100.62
1105.07
13035
13039.6
13000.3
12895.7
12719.6
12467
12125.8
11675
11083.7
10306.2
9341.88
8004.16
4420.34
1378.1
1281.78
1261.61
1225.77
1186.12
1148.62
1115.49
1087.73
1074.32
1071.14
13071.1
13074.7
13036.6
12934.7
12761.9
12515.1
12186
11758
11206.4
10497.9
9629.98
8434.39
4399.26
1322.02
1258.88
1241.74
1209.15
1171.06
1132.86
1095.93
1060.14
1032.58
1006.78
7.95455
8.10756
8.23714
8.32006
8.3546
8.35023
8.31929
8.2732
8.22043
8.16657
8.11508
8.068
8.02655
7.99148
7.96332
7.94244
7.92899
7.92249
7.9214
7.93274
8.1059
8.24196
8.3264
8.3608
8.35534
8.32314
8.27605
8.22259
8.16829
8.11651
8.06925
8.02768
7.99252
7.96428
7.94332
7.92969
7.92291
7.92145
7.89051
8.11561
8.26236
8.34581
8.37677
8.36712
8.33119
8.2814
8.22616
8.17073
8.11826
8.07056
8.02869
7.99331
7.96487
7.94366
7.92965
7.92245
7.92072
7.82187
8.14305
8.30567
8.38302
8.40502
8.38667
8.34381
8.28922
8.23089
8.17353
8.11987
8.07141
8.02903
7.99326
7.96444
7.9428
7.9283
7.92077
7.91908
7.72006
8.18699
8.37364
8.43907
8.44573
8.41374
8.36063
8.29916
8.23646
8.1764
8.12105
8.07153
8.02842
7.99208
7.96273
7.94052
7.92554
7.91794
7.91651
7.57482
8.23979
8.46768
8.51102
8.49646
8.44647
8.38034
8.31039
8.24235
8.17896
8.12153
8.07068
8.02666
7.98961
7.95962
7.93681
7.92148
7.914
7.91288
7.25017
8.35933
8.61404
8.59677
8.55272
8.4819
8.40104
8.32178
8.24788
8.18081
8.12105
8.06868
8.02363
7.98578
7.95511
7.93175
7.91624
7.90899
7.90812
15.4841
8.84425
8.84774
8.69616
8.60663
8.51506
8.4198
8.33145
8.25189
8.1812
8.11912
8.06522
8.01911
7.98046
7.94915
7.92539
7.90988
7.9029
7.90213
13143.1
13143.7
13106.2
13010.7
12848.7
12619.1
12318.5
11937.4
11461.4
10874.1
10153.5
9189.22
4294.43
1266.98
1225.33
1209.96
1182.27
1146.44
1106.58
1062.43
1010.22
936.982
769.753
13290
13285.1
13243.2
13154.2
13012.6
12819.2
12575.1
12279
11928.7
11522.5
11045.7
10393.2
3952.96
1210.31
1185.4
1173.47
1150.02
1116.86
1076.37
1027.54
965.98
883.804
769.952
13505.6
13499.8
13451.3
13368.9
13252.5
13104.7
12929.1
12731.1
12511.5
12261.5
11964.6
11511.1
3678.38
1158.51
1152.59
1145.08
1124.44
1093.27
1052.88
1002.15
937.446
853.529
742.955
11443.5
11478
11355.3
11099
10729.3
10244.5
9641.55
8918.78
8092.06
7221.81
6338.01
5567.38
2404.84
1125.61
1132.35
1126.33
1106.74
1076.61
1036.58
985.594
920.846
838.215
733.822
2091.53
2097.32
2085.18
2067.01
2039.08
2002.07
1958.75
1911.95
1864.02
1816.78
1768.49
1702
1227.5
1124.77
1127.22
1117.46
1096.84
1066.87
1027.42
977.511
915.28
838.116
745.293
2122.71
2128.04
2127.09
2117.95
2097.96
2067.6
2029.06
1984.53
1935.88
1884.52
1830.3
1773.59
1296
1141.21
1132.01
1116.69
1094.24
1064.22
1025.83
978.079
919.611
849.285
767.153
2153.6
2155.29
2152.73
2143
2124.25
2097.08
2063.29
2024.64
1982.54
1938.02
1891.23
1843.39
1329.31
1153.14
1138.93
1120.83
1097.52
1067.94
1031.13
986.151
932.032
868.581
796.798
2187.98
2188.58
2185.49
2176.15
2159.2
2135.3
2105.94
2072.52
2036.19
1997.77
1957.43
1915.66
1353.53
1163.74
1147.87
1128.93
1105.71
1077.18
1042.46
1000.72
951.255
894.595
831.926
2226
2226.25
2223.36
2215.1
2200.38
2179.75
2154.43
2125.56
2094.06
2060.61
2025.31
1988.04
1370.06
1175.27
1159.24
1140.53
1118.13
1091.23
1059.04
1020.88
976.247
925.844
870.161
2267.65
2267.72
2265.08
2257.88
2245.22
2227.53
2205.82
2181.01
2153.81
2124.76
2093.87
2060.61
1381.33
1188.31
1172.95
1155.18
1134.21
1109.4
1080.11
1045.78
1006.02
961.707
912.435
2312.73
2312.69
2310.3
2304.04
2293.17
2278.06
2259.55
2238.35
2215.03
2190.01
2163.2
2133.82
1388.64
1202.97
1188.82
1172.5
1153.4
1131.05
1104.94
1074.58
1039.7
1001.24
958.135
2360.91
2360.81
2358.66
2353.21
2343.91
2331.09
2315.43
2297.5
2277.73
2256.43
2233.49
2207.98
1392.9
1219.23
1206.65
1192.12
1175.21
1155.56
1132.78
1106.48
1076.46
1043.68
1006.5
2411.87
2411.72
2409.74
2404.99
2397.06
2386.27
2373.18
2358.24
2341.77
2324
2304.79
2283.2
1394.62
1237.01
1226.21
1213.69
1199.15
1182.35
1163
1140.77
1115.57
1088.34
1057.08
2465.46
2465.27
2463.41
2459.21
2452.48
2443.54
2432.81
2420.64
2407.28
2392.88
2377.32
2359.73
1394.25
1256.35
1247.44
1237.04
1224.97
1211.07
1195.16
1177
1156.56
1134.75
1109.46
2521.48
2521.39
2519.72
2516.06
2510.47
2503.25
2494.73
2485.18
2474.77
2463.62
2451.6
2438.06
1392.29
1277.58
1270.55
1262.26
1252.65
1241.63
1229.09
1214.92
1199.13
1182.58
1163.54
2578.72
2579.13
2577.89
2574.97
2570.58
2565.05
2558.63
2551.54
2543.91
2535.83
2527.25
2517.78
1390.38
1300.66
1295.37
1289.11
1281.85
1273.56
1264.21
1253.79
1242.4
1231.14
1219.54
2637.67
2639.36
2638.35
2636.12
2632.95
2629.09
2624.74
2620.07
2615.19
2610.12
2604.89
2598.31
1397.72
1325.49
1321.84
1317.51
1312.56
1306.94
1300.7
1293.87
1286.6
1280.44
1276.17
2690.24
2702
2703.77
2701.19
2697.48
2692.98
2687.78
2681.39
2674.49
2667.63
2661.73
2652.59
1416.93
1352.68
1349.73
1345.19
1338.6
1330.38
1319.94
1307.02
1292.72
1275.21
1229.32
1210.04
1293.69
1333.72
1318.52
1292
1259.04
1221.47
1181.49
1140.13
1102.12
1073.25
1054.48
684.538
659.035
644.358
613.71
575.513
533.201
488.472
442.402
398.741
352.557
294.702
4.18174
4.64905
4.32883
4.33127
4.36669
4.38034
4.39587
4.41663
4.44269
4.47674
4.54531
4.50757
4.50414
4.4587
4.48506
4.52808
4.56443
4.59074
4.60874
4.60182
4.51647
4.52948
5.12865
4.53023
4.56767
4.54797
4.56714
4.591
4.61282
4.63328
4.65339
4.67398
4.69564
4.71732
4.73038
4.74932
4.76829
4.79505
4.82794
4.86234
4.89718
4.93256
4.96355
4.98015
5.00035
5.08568
4.59533
4.61537
4.61789
4.62957
4.64633
4.66531
4.68452
4.70382
4.72358
4.7438
4.76359
4.78217
4.80303
4.82612
4.85383
4.88575
4.92098
4.95867
4.99873
5.04086
5.088
5.15373
5.25837
4.68954
4.69605
4.69724
4.70381
4.71552
4.73055
4.74726
4.76498
4.7836
4.80308
4.82324
4.84429
4.86815
4.89411
4.92307
4.95612
4.99306
5.03364
5.07816
5.12754
5.186
5.26529
5.37895
4.77329
4.77559
4.77737
4.78278
4.79218
4.80482
4.8197
4.83619
4.85403
4.87322
4.89391
4.91641
4.94176
4.96958
5.00047
5.03519
5.07405
5.11734
5.16569
5.22033
5.28448
5.36494
5.46852
4.84942
4.85061
4.85298
4.85808
4.86634
4.87757
4.89123
4.90684
4.92415
4.94318
4.96409
4.98719
5.01303
5.04171
5.07366
5.10942
5.14942
5.19413
5.24424
5.30086
5.36605
5.44294
5.53405
4.91943
4.92016
4.92239
4.92698
4.93439
4.94461
4.95733
4.97218
4.98897
5.00772
5.02857
5.05177
5.07767
5.10652
5.13868
5.17456
5.21456
5.25913
5.30887
5.36459
5.42746
5.49876
5.57896
4.98442
4.98484
4.9867
4.99077
4.99753
5.00701
5.01897
5.03314
5.04939
5.06771
5.08824
5.11117
5.13676
5.16526
5.19696
5.23219
5.27128
5.31459
5.36255
5.41567
5.47453
5.53951
5.61031
5.04527
5.04545
5.04696
5.05059
5.05684
5.06574
5.07707
5.0906
5.10624
5.12401
5.14399
5.16635
5.19129
5.21901
5.24975
5.28376
5.32128
5.36257
5.4079
5.45755
5.51175
5.57043
5.63304
5.10268
5.10269
5.10391
5.10718
5.11301
5.12141
5.13215
5.14506
5.16004
5.17711
5.19635
5.2179
5.24189
5.2685
5.2979
5.33027
5.36578
5.40458
5.44683
5.49263
5.54202
5.59473
5.65017
5.15719
5.15709
5.1581
5.16107
5.16652
5.17445
5.18462
5.19687
5.21112
5.22738
5.24572
5.26624
5.28906
5.3143
5.34208
5.37252
5.40572
5.44176
5.48071
5.52256
5.56724
5.61442
5.66352
5.20922
5.20905
5.20991
5.21263
5.21772
5.22517
5.23475
5.2463
5.25974
5.27509
5.2924
5.31174
5.3332
5.35686
5.38282
5.41113
5.44185
5.47501
5.51058
5.54853
5.5887
5.63077
5.67423
5.25907
5.25888
5.25962
5.26212
5.26686
5.27382
5.28277
5.29357
5.30614
5.32048
5.33665
5.35468
5.37465
5.3966
5.42059
5.44665
5.47479
5.505
5.53723
5.57138
5.60729
5.64466
5.68303
5.307
5.3068
5.30746
5.30976
5.31414
5.32058
5.32888
5.33888
5.35052
5.36378
5.37871
5.39534
5.41371
5.43385
5.45579
5.47953
5.50505
5.53232
5.56126
5.59176
5.62366
5.65666
5.69041
5.35323
5.35304
5.35364
5.35574
5.35975
5.36566
5.37327
5.38242
5.39307
5.4052
5.41883
5.43398
5.45068
5.46894
5.48877
5.51015
5.53305
5.55742
5.58316
5.61016
5.63827
5.66722
5.69671
5.39795
5.39778
5.39832
5.40022
5.40387
5.40922
5.4161
5.42438
5.434
5.44494
5.45721
5.47083
5.48581
5.50215
5.51984
5.53886
5.55916
5.58067
5.60332
5.62697
5.65149
5.67665
5.70219
5.44135
5.44118
5.44167
5.44338
5.44664
5.45142
5.45756
5.46493
5.47348
5.48319
5.49408
5.50613
5.51936
5.53375
5.5493
5.56595
5.58368
5.60241
5.62204
5.64248
5.6636
5.6852
5.70703
5.4836
5.48342
5.48385
5.48537
5.48825
5.49245
5.49782
5.50426
5.51171
5.52017
5.52963
5.54009
5.55155
5.56399
5.57738
5.5917
5.60689
5.62288
5.63961
5.65696
5.67483
5.69305
5.71141
5.52496
5.52467
5.52506
5.5264
5.5289
5.5325
5.53709
5.54256
5.5489
5.55608
5.5641
5.57294
5.58262
5.59309
5.60434
5.61633
5.62902
5.64234
5.65623
5.6706
5.68536
5.70037
5.71544
5.56554
5.56511
5.56548
5.5666
5.56871
5.5717
5.57547
5.57997
5.58516
5.59105
5.59761
5.60483
5.61271
5.62123
5.63035
5.64004
5.65025
5.66095
5.67207
5.68355
5.69531
5.70727
5.71926
5.6049
5.60419
5.60477
5.60568
5.60735
5.60969
5.61264
5.61615
5.62021
5.6248
5.62992
5.63555
5.64167
5.64826
5.65528
5.66272
5.67053
5.67867
5.68711
5.6958
5.7047
5.71383
5.72308
5.64445
5.63933
5.64226
5.6436
5.6449
5.6466
5.64873
5.65127
5.65421
5.65754
5.66123
5.66528
5.66965
5.67434
5.6793
5.68453
5.68998
5.69562
5.70144
5.70741
5.71357
5.72024
5.72773
5.6969
5.67001
5.68359
5.68683
5.68821
5.6894
5.69066
5.69209
5.69371
5.69552
5.69751
5.69966
5.70196
5.70437
5.70689
5.70949
5.71215
5.71485
5.71757
5.72036
5.72333
5.72717
5.73366
421.705
341.014
332.265
315.117
617.752
521.318
445.864
380.151
611.987
524.998
442.855
231.062
629.924
555.27
436.637
36.8972
658.852
589.127
267.382
9.6331
689.189
596.449
96.0749
9.28777
724.184
505.457
26.2105
8.56822
764.966
373.561
8.56665
8.1972
791.471
247.043
8.38179
8.09339
774.662
166.29
8.16923
7.92951
741.179
104.884
7.92156
7.73637
689.852
60.5489
7.61989
7.51509
621.515
31.1987
7.25825
7.25622
536.717
14.5322
6.9664
7.01706
432.241
7.47743
6.85897
6.90045
322.303
6.99426
6.8324
6.83408
272.504
6.95713
6.76222
6.71838
323.453
6.29736
6.58018
6.55272
193.684
10.5977
6.17792
6.32383
5.362
5.48207
5.64179
5.80593
5.17577
5.30314
5.48187
5.65052
5.3935
5.49344
5.59559
5.70224
5.48994
5.56536
5.64377
5.72654
5.56148
5.62191
5.68307
5.74719
5.61104
5.66031
5.70967
5.76087
5.64374
5.68498
5.72613
5.76842
5.66576
5.70097
5.73606
5.77187
5.68109
5.71158
5.74194
5.77278
5.69214
5.71877
5.7453
5.77213
5.70037
5.72375
5.74703
5.77054
5.70664
5.7272
5.74769
5.76833
5.71152
5.72961
5.74761
5.76573
5.71537
5.73122
5.74701
5.76287
5.71846
5.73227
5.74603
5.75983
5.72097
5.73289
5.74477
5.75667
5.72305
5.73322
5.74332
5.75345
5.72481
5.7333
5.74174
5.75017
5.72635
5.73324
5.74006
5.74686
5.72777
5.73309
5.73834
5.74353
5.72923
5.73295
5.73657
5.74016
5.73147
5.73315
5.73487
5.73678
5.73586
5.73503
5.73418
5.73378
127.306
8.79175
9.0841
8.84384
8.66886
8.55198
8.43907
8.33931
8.25261
8.17737
8.11232
8.05646
8.00898
7.96931
7.93726
7.91324
7.89808
7.89155
7.89086
73.3048
8.95058
9.15126
8.90088
8.69921
8.56331
8.43709
8.32923
8.23745
8.159
8.09196
8.03487
7.98664
7.94652
7.91432
7.89058
7.87611
7.8702
7.8697
8.91321
8.93116
8.96737
8.81971
8.67453
8.53554
8.40933
8.30057
8.20779
8.12873
8.06146
8.00443
7.95643
7.91667
7.88499
7.86197
7.8483
7.84292
7.84258
8.94635
8.83022
8.84338
8.73742
8.6067
8.47631
8.35782
8.25378
8.16395
8.08702
8.02145
7.96586
7.9191
7.88048
7.84987
7.82786
7.81503
7.81012
7.80988
8.70312
8.72345
8.73347
8.63428
8.51162
8.39446
8.28704
8.19112
8.10722
8.03472
7.97257
7.91969
7.87515
7.83836
7.8093
7.78854
7.77658
7.77209
7.77196
8.56252
8.60363
8.6008
8.50289
8.39612
8.29498
8.20072
8.11516
8.03926
7.97292
7.91557
7.86648
7.82497
7.79064
7.76353
7.74425
7.73323
7.72919
7.72913
8.34494
8.43543
8.43087
8.35341
8.26706
8.18294
8.10278
8.02871
7.96199
7.90294
7.85138
7.8069
7.76909
7.73771
7.71292
7.69532
7.68534
7.68174
7.68178
8.19532
8.26883
8.26168
8.19998
8.13151
8.06314
7.99673
7.93435
7.87733
7.8262
7.78105
7.74175
7.70811
7.68007
7.65787
7.64213
7.63326
7.63016
7.63027
8.07062
8.1095
8.09641
8.04631
7.99261
7.93853
7.88518
7.83427
7.78702
7.74405
7.70564
7.67187
7.64272
7.61828
7.59887
7.58513
7.57745
7.57485
7.57506
7.90711
7.94198
7.93244
7.8927
7.85202
7.81111
7.77009
7.73023
7.69258
7.65777
7.6262
7.59811
7.57363
7.55295
7.53646
7.52479
7.51835
7.51627
7.51656
7.72563
7.76943
7.76778
7.739
7.7108
7.68231
7.65299
7.6237
7.59533
7.56851
7.54372
7.52131
7.50154
7.48468
7.47117
7.46163
7.45644
7.45487
7.45526
7.5333
7.59047
7.6007
7.58508
7.56975
7.55332
7.53516
7.51593
7.49642
7.4773
7.45911
7.44228
7.42716
7.41411
7.40357
7.39614
7.39219
7.39115
7.3916
7.33319
7.40724
7.43228
7.43203
7.43
7.42529
7.41772
7.40798
7.39687
7.38507
7.3732
7.36175
7.35116
7.34182
7.33419
7.32884
7.32611
7.32556
7.32608
7.14709
7.23046
7.26747
7.28236
7.29302
7.29934
7.30166
7.30079
7.29753
7.29263
7.28674
7.28042
7.27416
7.26839
7.26357
7.26021
7.25865
7.25858
7.25915
6.99879
7.07027
7.11092
7.1381
7.15989
7.17628
7.18775
7.1951
7.19915
7.20068
7.2004
7.19891
7.19674
7.19435
7.1922
7.19074
7.19028
7.19064
7.19127
6.86557
6.91697
6.96145
6.99891
7.03079
7.05655
7.07655
7.09154
7.10237
7.10987
7.11479
7.11779
7.11943
7.12021
7.12055
7.12086
7.12143
7.12219
7.12285
6.70743
6.75992
6.81451
6.86336
6.90557
6.94054
6.96865
6.99076
7.00784
7.0208
7.03046
7.03758
7.04272
7.04641
7.04905
7.051
7.0525
7.05362
7.05429
6.52141
6.59301
6.66735
6.73098
6.78461
6.82887
6.86472
6.89341
6.91615
6.93403
6.94798
6.95878
6.96708
6.97339
6.9781
6.98152
6.98385
6.98529
6.98597
6.33798
6.42321
6.52258
6.60351
6.66927
6.72256
6.76555
6.80014
6.8279
6.8501
6.86779
6.88183
6.8929
6.90152
6.90806
6.91277
6.91583
6.91752
6.9182
6.0462
6.24624
6.38327
6.48403
6.56171
6.62306
6.67215
6.71168
6.74362
6.76944
6.7903
6.80709
6.82052
6.83112
6.83924
6.84505
6.84872
6.85062
6.85129
5.90348
6.12045
6.27078
6.38116
6.46568
6.53221
6.58551
6.62867
6.66379
6.69245
6.71583
6.73485
6.75022
6.76246
6.77187
6.7786
6.78277
6.78483
6.78548
5.87314
6.05141
6.19006
6.29781
6.38279
6.45093
6.50624
6.55151
6.58872
6.61937
6.64461
6.66532
6.6822
6.69573
6.70618
6.71362
6.71818
6.72036
6.72097
5.86066
6.00814
6.13034
6.2302
6.31177
6.37882
6.43425
6.48025
6.51851
6.55033
6.57677
6.59865
6.61661
6.63108
6.6423
6.65029
6.65513
6.65737
6.65794
5.85259
5.97628
6.08328
6.17407
6.25052
6.31486
6.36903
6.41464
6.45304
6.48531
6.51235
6.5349
6.55353
6.56863
6.58036
6.5887
6.59372
6.59599
6.59651
5.84572
5.95073
6.04454
6.12646
6.19717
6.2579
6.30989
6.35428
6.39208
6.42416
6.45128
6.47406
6.49299
6.5084
6.52041
6.52895
6.53405
6.53631
6.53679
5.8388
5.92912
6.01165
6.08532
6.15019
6.20687
6.2561
6.29867
6.33531
6.3667
6.39345
6.41606
6.43496
6.45041
6.46248
6.47107
6.47616
6.47839
6.47882
5.83162
5.91015
5.98304
6.0492
6.10839
6.16085
6.20699
6.24733
6.28239
6.31268
6.33867
6.36079
6.37937
6.39462
6.40657
6.41507
6.42009
6.42224
6.42262
5.82431
5.89311
5.95769
6.01705
6.07083
6.11905
6.16193
6.19977
6.23295
6.26182
6.28677
6.30812
6.32614
6.34098
6.35264
6.36093
6.36581
6.36787
6.3682
5.81703
5.87759
5.9349
5.98809
6.03676
6.08083
6.12036
6.15555
6.18663
6.21386
6.23753
6.25788
6.27514
6.2894
6.30063
6.30861
6.3133
6.31524
6.31553
5.80987
5.8633
5.91416
5.96172
6.00559
6.04562
6.08181
6.11425
6.14309
6.16851
6.19072
6.20991
6.22623
6.23977
6.25045
6.25805
6.26249
6.26431
6.26455
5.80287
5.85001
5.89508
5.93747
5.97683
6.01297
6.04586
6.07551
6.10202
6.12551
6.14613
6.16401
6.17928
6.19198
6.20202
6.20916
6.21331
6.21499
6.2152
5.79605
5.83756
5.87737
5.91498
5.95008
5.98249
6.01213
6.03899
6.06313
6.08461
6.10354
6.12002
6.13413
6.1459
6.15521
6.16184
6.16568
6.16722
6.16739
5.7894
5.82579
5.86077
5.89394
5.92501
5.95383
5.98031
6.0044
6.02614
6.04557
6.06274
6.07774
6.09062
6.10138
6.10991
6.11598
6.11949
6.12087
6.12101
5.78291
5.81459
5.84509
5.87409
5.90135
5.92672
5.9501
5.97147
5.99081
6.00815
6.02353
6.037
6.04859
6.05829
6.06598
6.07146
6.07462
6.07586
6.07596
5.77656
5.80386
5.83017
5.85523
5.87885
5.90089
5.92127
5.93995
5.95691
5.97215
5.98571
5.9976
6.00786
6.01646
6.0233
6.02816
6.03096
6.03203
6.03211
5.77033
5.79351
5.81585
5.83717
5.85729
5.87612
5.89358
5.90961
5.92421
5.93736
5.94908
5.95939
5.96829
5.97576
5.98171
5.98593
5.98836
5.98929
5.98934
5.76421
5.78345
5.80201
5.81974
5.8365
5.85221
5.86681
5.88026
5.89252
5.90359
5.91347
5.92217
5.9297
5.93603
5.94107
5.94465
5.94671
5.94748
5.94752
5.75815
5.77361
5.78853
5.80278
5.81629
5.82898
5.84079
5.85169
5.86164
5.87064
5.8787
5.8858
5.89195
5.89712
5.90123
5.90417
5.90585
5.90649
5.90651
5.75212
5.7639
5.77527
5.78617
5.79652
5.80625
5.81533
5.82373
5.83141
5.83836
5.84459
5.85009
5.85486
5.85887
5.86207
5.86434
5.86566
5.86615
5.86618
5.74609
5.75423
5.76213
5.76974
5.77699
5.78384
5.79025
5.79618
5.80161
5.80655
5.81097
5.81488
5.81827
5.82112
5.82339
5.82502
5.82598
5.82637
5.8264
5.74007
5.74451
5.74894
5.7533
5.75751
5.76152
5.76528
5.76879
5.77201
5.77494
5.77757
5.7799
5.78192
5.78363
5.785
5.78601
5.78665
5.78698
5.78706
5.73367
5.73447
5.7356
5.73685
5.73811
5.73936
5.74055
5.74167
5.74272
5.74367
5.74454
5.74531
5.74599
5.74656
5.74704
5.74743
5.74774
5.74797
5.7481
)
;

boundaryField
{
    leftWall
    {
        type            fixedFluxPressure;
        gradient        uniform 0;
        value           nonuniform List<scalar> 
50
(
12981.2
12975.1
12973.3
12977.4
12988.3
13007.2
13035
13071.1
13143.1
13290
13505.6
11443.5
2091.53
2122.71
2153.6
2187.98
2226
2267.65
2312.73
2360.91
2411.87
2465.46
2521.48
2578.72
2637.67
2690.24
1210.04
4.18174
4.53023
4.59533
4.68954
4.77329
4.84942
4.91943
4.98442
5.04527
5.10268
5.15719
5.20922
5.25907
5.307
5.35323
5.39795
5.44135
5.4836
5.52496
5.56554
5.6049
5.64445
5.6969
)
;
    }
    rightWall
    {
        type            fixedFluxPressure;
        gradient        uniform 0;
        value           nonuniform List<scalar> 
50
(
7.9214
7.92145
7.92072
7.91908
7.91651
7.91288
7.90812
7.90213
7.89086
7.8697
7.84258
7.80988
7.77196
7.72913
7.68178
7.63027
7.57506
7.51656
7.45526
7.3916
7.32608
7.25915
7.19127
7.12285
7.05429
6.98597
6.9182
6.85129
6.78548
6.72097
6.65794
6.59651
6.53679
6.47882
6.42262
6.3682
6.31553
6.26455
6.2152
6.16739
6.12101
6.07596
6.03211
5.98934
5.94752
5.90651
5.86618
5.8264
5.78706
5.7481
)
;
    }
    lowerWall
    {
        type            fixedFluxPressure;
        gradient        uniform 0;
        value           nonuniform List<scalar> 
62
(
12981.2
12995.2
12979.6
12912.6
12778.8
12566.8
12263.6
11847.3
11280.1
10494.7
9386.34
7763.32
5237.93
2525.63
1468.9
1304.12
1275.17
1230.9
1190.64
1162.7
1146.68
1141.83
1145.48
1145.48
1146.07
1143.79
1137.44
1125.45
1105.07
1071.14
1006.78
421.705
341.014
332.265
315.117
7.95455
7.93274
7.89051
7.82187
7.72006
7.57482
7.25017
15.4841
7.95455
8.10756
8.23714
8.32006
8.3546
8.35023
8.31929
8.2732
8.22043
8.16657
8.11508
8.068
8.02655
7.99148
7.96332
7.94244
7.92899
7.92249
7.9214
)
;
    }
    atmosphere
    {
        type            prghTotalPressure;
        rho             rho;
        psi             none;
        gamma           1;
        p0              uniform 0;
        value           nonuniform List<scalar> 
46
(
5.71835
5.71407
5.7153
5.71576
5.71619
5.7167
5.71729
5.71798
5.71874
5.71958
5.72047
5.7214
5.72235
5.72331
5.72426
5.72518
5.72604
5.72684
5.72753
5.72812
5.72857
5.72888
5.72902
5.72904
5.72904
5.72904
5.72904
5.72904
5.72904
5.72904
5.72904
5.72904
5.72904
5.72904
5.72904
5.72904
5.72904
5.72904
5.72904
5.72904
5.72904
5.72904
5.72904
5.72904
5.72904
5.72904
)
;
        rho             rho;
    }
    defaultFaces
    {
        type            empty;
    }
}


// ************************************************************************* //
