/*--------------------------------*- C++ -*----------------------------------*\
  =========                 |
  \\      /  F ield         | OpenFOAM: The Open Source CFD Toolbox
   \\    /   O peration     | Website:  https://openfoam.org
    \\  /    A nd           | Version:  13
     \\/     M anipulation  |
\*---------------------------------------------------------------------------*/
FoamFile
{
    format      ascii;
    class       surfaceScalarField;
    location    "0.05";
    object      phi;
}
// * * * * * * * * * * * * * * * * * * * * * * * * * * * * * * * * * * * * * //

dimensions      [0 3 -1 0 0 0 0];

internalField   nonuniform List<scalar> 
4432
(
7.36868e-07
-7.36863e-07
2.07098e-06
-1.33411e-06
3.8749e-06
-1.80393e-06
5.96797e-06
-2.09307e-06
8.32289e-06
-2.35493e-06
1.10417e-05
-2.71885e-06
1.43235e-05
-3.2818e-06
1.8478e-05
-4.1545e-06
2.39804e-05
-5.50238e-06
3.16219e-05
-7.64155e-06
4.21595e-05
-1.05376e-05
5.47109e-05
-1.25514e-05
6.68454e-05
-1.21345e-05
7.6959e-05
-1.01136e-05
6.81468e-05
8.81209e-06
5.8629e-05
9.51776e-06
4.73196e-05
1.13095e-05
3.78767e-05
9.44284e-06
3.01282e-05
7.7486e-06
2.25933e-05
7.53484e-06
1.43994e-05
8.1939e-06
6.11835e-06
8.28108e-06
6.11842e-06
1.03519e-06
-1.77203e-06
2.42253e-06
-2.72144e-06
4.15133e-06
-3.53273e-06
6.1698e-06
-4.11154e-06
8.47662e-06
-4.66175e-06
1.11599e-05
-5.40218e-06
1.43959e-05
-6.51779e-06
1.84518e-05
-8.21032e-06
2.36973e-05
-1.07479e-05
3.0548e-05
-1.44923e-05
3.92067e-05
-1.91962e-05
4.94551e-05
-2.27999e-05
5.98986e-05
-2.25779e-05
6.45754e-05
-1.47905e-05
6.0463e-05
1.29243e-05
5.17268e-05
1.82539e-05
4.39479e-05
1.90883e-05
3.70278e-05
1.63629e-05
3.0452e-05
1.43243e-05
2.35926e-05
1.43942e-05
1.59513e-05
1.58351e-05
7.77066e-06
1.64616e-05
1.38889e-05
1.3101e-06
-3.08213e-06
2.72926e-06
-4.1406e-06
4.37398e-06
-5.17746e-06
6.28142e-06
-6.01898e-06
8.48465e-06
-6.86498e-06
1.10667e-05
-7.98425e-06
1.41764e-05
-9.6275e-06
1.80257e-05
-1.20596e-05
2.28673e-05
-1.55895e-05
2.88861e-05
-2.05111e-05
3.60175e-05
-2.63277e-05
4.39951e-05
-3.07774e-05
5.18293e-05
-3.04122e-05
5.35336e-05
-1.64949e-05
5.1945e-05
1.4513e-05
4.64836e-05
2.37154e-05
4.11822e-05
2.43898e-05
3.59696e-05
2.15755e-05
3.0563e-05
1.97308e-05
2.46165e-05
2.03407e-05
1.77069e-05
2.27447e-05
9.61327e-06
2.45553e-05
2.35023e-05
1.494e-06
-4.57611e-06
2.95654e-06
-5.60312e-06
4.54064e-06
-6.76156e-06
6.34197e-06
-7.8203e-06
8.42669e-06
-8.9497e-06
1.08786e-05
-1.04362e-05
1.38207e-05
-1.25696e-05
1.74094e-05
-1.56483e-05
2.17964e-05
-1.99764e-05
2.7022e-05
-2.57367e-05
3.28914e-05
-3.21971e-05
3.90052e-05
-3.68913e-05
4.44261e-05
-3.5833e-05
4.59063e-05
-1.79752e-05
4.54292e-05
1.499e-05
4.23662e-05
2.67784e-05
3.88912e-05
2.78647e-05
3.50795e-05
2.53872e-05
3.08252e-05
2.39851e-05
2.58757e-05
2.52902e-05
1.97209e-05
2.88994e-05
1.15903e-05
3.26858e-05
3.50924e-05
1.58743e-06
-6.16355e-06
3.09009e-06
-7.10579e-06
4.63164e-06
-8.3031e-06
6.33798e-06
-9.52664e-06
8.30022e-06
-1.09119e-05
1.06042e-05
-1.27402e-05
1.335e-05
-1.53154e-05
1.66455e-05
-1.89438e-05
2.05648e-05
-2.38957e-05
2.50591e-05
-3.02309e-05
2.98674e-05
-3.70054e-05
3.45425e-05
-4.15664e-05
3.8261e-05
-3.95515e-05
3.9842e-05
-1.95563e-05
4.02274e-05
1.46047e-05
3.89206e-05
2.80853e-05
3.69251e-05
2.98602e-05
3.43762e-05
2.79361e-05
3.12764e-05
2.70849e-05
2.74062e-05
2.91605e-05
2.21055e-05
3.42002e-05
1.39496e-05
4.08417e-05
4.90422e-05
1.61265e-06
-7.7762e-06
3.13291e-06
-8.62605e-06
4.63763e-06
-9.80782e-06
6.2577e-06
-1.11467e-05
8.09743e-06
-1.27517e-05
1.02425e-05
-1.48852e-05
1.27735e-05
-1.78464e-05
1.57584e-05
-2.19287e-05
1.92163e-05
-2.73536e-05
2.30474e-05
-3.40621e-05
2.69708e-05
-4.09289e-05
3.05813e-05
-4.51769e-05
3.32427e-05
-4.2213e-05
3.49021e-05
-2.12157e-05
3.59633e-05
1.35435e-05
3.59503e-05
2.80983e-05
3.52029e-05
3.06076e-05
3.3838e-05
2.93011e-05
3.192e-05
2.90028e-05
2.9266e-05
3.18144e-05
2.50944e-05
3.83718e-05
1.71861e-05
4.875e-05
6.62282e-05
1.59146e-06
-9.36766e-06
3.09795e-06
-1.01325e-05
4.56028e-06
-1.12701e-05
6.09759e-06
-1.2684e-05
7.81556e-06
-1.44696e-05
9.79562e-06
-1.68653e-05
1.2101e-05
-2.01518e-05
1.4769e-05
-2.45966e-05
1.77816e-05
-3.03662e-05
2.10168e-05
-3.72973e-05
2.41996e-05
-4.41116e-05
2.70249e-05
-4.80022e-05
2.90655e-05
-4.42537e-05
3.07864e-05
-2.29367e-05
3.23781e-05
1.19517e-05
3.33394e-05
2.7137e-05
3.36719e-05
3.0275e-05
3.34361e-05
2.95368e-05
3.27494e-05
2.96894e-05
3.15246e-05
3.30392e-05
2.90205e-05
4.08758e-05
2.1991e-05
5.57795e-05
8.82191e-05
1.53286e-06
-1.09005e-05
2.99806e-06
-1.15977e-05
4.40799e-06
-1.26801e-05
5.86204e-06
-1.41381e-05
7.45878e-06
-1.60664e-05
9.27149e-06
-1.8678e-05
1.13475e-05
-2.22278e-05
1.37006e-05
-2.69497e-05
1.62914e-05
-3.29571e-05
1.89909e-05
-3.99967e-05
2.15643e-05
-4.6685e-05
2.38476e-05
-5.02855e-05
2.5526e-05
-4.59321e-05
2.73154e-05
-2.47261e-05
2.929e-05
9.97711e-06
3.10271e-05
2.53999e-05
3.23018e-05
2.90003e-05
3.31417e-05
2.8697e-05
3.37384e-05
2.90927e-05
3.42192e-05
3.25583e-05
3.42429e-05
4.08522e-05
3.02149e-05
5.98075e-05
0.000118434
3.11566e-07
-3.10939e-07
6.30066e-06
-5.98881e-06
1.24728e-05
-6.17196e-06
1.69212e-05
-4.44812e-06
1.95039e-05
-2.58239e-06
2.0534e-05
-1.02975e-06
2.0419e-05
1.15225e-07
1.95364e-05
8.82746e-07
1.81713e-05
1.36523e-06
1.65192e-05
1.65227e-06
1.47047e-05
1.81457e-06
1.28007e-05
1.90412e-06
1.08434e-05
1.95733e-06
8.84259e-06
2.00092e-06
6.79488e-06
2.04778e-06
4.71154e-06
2.08341e-06
2.6939e-06
2.01773e-06
1.03128e-06
1.66268e-06
1.03136e-06
1.3895e-06
-1.69863e-06
8.44179e-06
-1.304e-05
1.46018e-05
-1.2331e-05
1.86012e-05
-8.44684e-06
2.07223e-05
-4.7029e-06
2.13949e-05
-1.70182e-06
2.10291e-05
4.81354e-07
1.9977e-05
1.93521e-06
1.8499e-05
2.84343e-06
1.67717e-05
3.37966e-06
1.49058e-05
3.68056e-06
1.29658e-05
3.84418e-06
1.09832e-05
3.93993e-06
8.96839e-06
4.01572e-06
6.92593e-06
4.09026e-06
4.88579e-06
4.12356e-06
2.94871e-06
3.95485e-06
1.28042e-06
3.33104e-06
2.31176e-06
1.44825e-06
-3.14675e-06
1.00949e-05
-2.16866e-05
1.64931e-05
-1.87291e-05
2.00509e-05
-1.20046e-05
2.16674e-05
-6.31915e-06
2.19506e-05
-1.98479e-06
2.1322e-05
1.11021e-06
2.01051e-05
3.15221e-06
1.85303e-05
4.4184e-06
1.67507e-05
5.15931e-06
1.48614e-05
5.56993e-06
1.29174e-05
5.78833e-06
1.09459e-05
5.9115e-06
8.95904e-06
6.00267e-06
6.96958e-06
6.07981e-06
5.01648e-06
6.07674e-06
3.17884e-06
5.79261e-06
1.52311e-06
4.98686e-06
3.83502e-06
3.22718e-07
-3.46867e-06
1.12436e-05
-3.26061e-05
1.83233e-05
-2.58075e-05
2.15242e-05
-1.52046e-05
2.26549e-05
-7.44924e-06
2.25558e-05
-1.88526e-06
2.16659e-05
2.00027e-06
2.02819e-05
4.53635e-06
1.86054e-05
6.09491e-06
1.67678e-05
6.99687e-06
1.48498e-05
7.48793e-06
1.28976e-05
7.74048e-06
1.09353e-05
7.8738e-06
8.97655e-06
7.96135e-06
7.03933e-06
8.01703e-06
5.16073e-06
7.95535e-06
3.38699e-06
7.56638e-06
1.70861e-06
6.66533e-06
5.54362e-06
-1.22642e-06
-2.24183e-06
1.20555e-05
-4.58883e-05
2.0324e-05
-3.40761e-05
2.31693e-05
-1.80498e-05
2.37602e-05
-8.03991e-06
2.32504e-05
-1.37528e-06
2.20826e-05
3.16827e-06
2.05197e-05
6.09932e-06
1.87321e-05
7.88257e-06
1.68285e-05
8.90059e-06
1.48749e-05
9.44161e-06
1.29091e-05
9.70637e-06
1.09517e-05
9.8313e-06
9.01689e-06
9.89627e-06
7.1233e-06
9.91072e-06
5.29872e-06
9.78003e-06
3.55531e-06
9.30991e-06
1.83049e-06
8.39027e-06
7.37433e-06
-3.90059e-06
1.65852e-06
1.23497e-05
-6.21377e-05
2.27043e-05
-4.44297e-05
2.51124e-05
-2.04572e-05
2.50279e-05
-7.95495e-06
2.40428e-05
-3.89741e-07
2.2564e-05
4.64716e-06
2.08029e-05
7.86047e-06
1.88921e-05
9.79338e-06
1.69142e-05
1.08784e-05
1.49194e-05
1.14364e-05
1.29358e-05
1.16899e-05
1.09798e-05
1.17873e-05
9.06374e-06
1.18123e-05
7.20323e-06
1.17712e-05
5.41301e-06
1.15702e-05
3.67663e-06
1.10463e-05
1.9029e-06
1.01641e-05
9.27717e-06
6.57387e-06
-4.91576e-06
1.50672e-05
-7.06294e-05
2.58939e-05
-5.52553e-05
2.75242e-05
-2.20868e-05
2.64975e-05
-6.92775e-06
2.49264e-05
1.18175e-06
2.30891e-05
6.48465e-06
2.11059e-05
9.84381e-06
1.90592e-05
1.18401e-05
1.70008e-05
1.29368e-05
1.49615e-05
1.34757e-05
1.29584e-05
1.36929e-05
1.10018e-05
1.37439e-05
9.10033e-06
1.37137e-05
7.26351e-06
1.3608e-05
5.49279e-06
1.33409e-05
3.75166e-06
1.27875e-05
1.94067e-06
1.19751e-05
1.1218e-05
4.69104e-05
-5.1828e-05
3.68174e-05
-6.05362e-05
3.09038e-05
-4.93405e-05
3.05357e-05
-2.17182e-05
2.81862e-05
-4.57776e-06
2.59138e-05
3.45439e-06
2.36633e-05
8.7353e-06
2.14319e-05
1.20754e-05
1.92357e-05
1.40362e-05
1.70896e-05
1.50829e-05
1.50019e-05
1.55633e-05
1.29769e-05
1.57179e-05
1.1017e-05
1.57037e-05
9.12523e-06
1.56054e-05
7.30347e-06
1.54297e-05
5.54109e-06
1.51033e-05
3.78873e-06
1.45398e-05
1.95127e-06
1.38126e-05
1.31691e-05
2.99388e-06
-1.38944e-05
5.90768e-06
-1.45115e-05
8.69969e-06
-1.54721e-05
1.15163e-05
-1.69547e-05
1.45269e-05
-1.90769e-05
1.78572e-05
-2.20083e-05
2.15677e-05
-2.59383e-05
2.56393e-05
-3.10212e-05
2.99525e-05
-3.72703e-05
3.42665e-05
-4.43107e-05
3.84454e-05
-5.08639e-05
4.22175e-05
-5.40576e-05
4.51447e-05
-4.88595e-05
4.81146e-05
-2.76959e-05
5.31913e-05
4.90042e-06
5.91516e-05
1.94397e-05
6.46359e-05
2.3516e-05
6.97388e-05
2.3594e-05
7.52605e-05
2.3571e-05
8.25375e-05
2.52813e-05
9.38609e-05
2.95288e-05
0.000117133
3.6535e-05
4.45646e-05
0.000191003
2.67227e-06
-1.65667e-05
5.21204e-06
-1.70513e-05
7.62039e-06
-1.78804e-05
1.00286e-05
-1.93628e-05
1.25436e-05
-2.1592e-05
1.52312e-05
-2.46959e-05
1.80984e-05
-2.88056e-05
2.10848e-05
-3.40076e-05
2.40648e-05
-4.02503e-05
2.68897e-05
-4.71356e-05
2.95349e-05
-5.35091e-05
3.21557e-05
-5.66785e-05
3.44352e-05
-5.1139e-05
3.72626e-05
-3.05233e-05
4.36436e-05
-1.48053e-06
5.16202e-05
1.14632e-05
5.98234e-05
1.53127e-05
6.81483e-05
1.52691e-05
7.73863e-05
1.4333e-05
8.89436e-05
1.3724e-05
0.00010506
1.34128e-05
0.000129057
1.25377e-05
9.52353e-06
0.000164098
2.26866e-06
-1.88353e-05
4.62383e-06
-1.94065e-05
6.81397e-06
-2.00706e-05
8.98077e-06
-2.15296e-05
1.12038e-05
-2.38149e-05
1.35122e-05
-2.70043e-05
1.58758e-05
-3.11692e-05
1.82004e-05
-3.63323e-05
2.03355e-05
-4.23854e-05
2.21313e-05
-4.89313e-05
2.364e-05
-5.50178e-05
2.53634e-05
-5.84018e-05
2.67941e-05
-5.25698e-05
2.88283e-05
-3.25575e-05
3.616e-05
-8.81221e-06
4.55667e-05
2.05652e-06
5.549e-05
5.38939e-06
6.57308e-05
5.02843e-06
7.69096e-05
3.15414e-06
9.00403e-05
5.93413e-07
0.000106245
-2.79152e-06
0.000126368
-7.58534e-06
-1.41924e-05
0.000150084
2.97745e-06
-2.18128e-05
5.01623e-06
-2.14453e-05
7.03568e-06
-2.209e-05
9.17696e-06
-2.36709e-05
1.1419e-05
-2.60569e-05
1.37367e-05
-2.9322e-05
1.60633e-05
-3.34957e-05
1.82726e-05
-3.85415e-05
2.01634e-05
-4.42761e-05
2.14597e-05
-5.02275e-05
2.2049e-05
-5.56071e-05
2.26107e-05
-5.89634e-05
2.22885e-05
-5.22475e-05
2.38262e-05
-3.40953e-05
3.1476e-05
-1.6462e-05
4.12753e-05
-7.74269e-06
5.17139e-05
-5.04922e-06
6.25031e-05
-5.76081e-06
7.39995e-05
-8.34215e-06
8.67739e-05
-1.2181e-05
0.000101226
-1.72437e-05
0.000117188
-2.35472e-05
-3.00883e-05
0.000133084
4.05175e-06
-2.58646e-05
6.5369e-06
-2.39304e-05
9.36775e-06
-2.49209e-05
1.2353e-05
-2.66561e-05
1.54108e-05
-2.91148e-05
1.84559e-05
-3.23671e-05
2.13365e-05
-3.63762e-05
2.3814e-05
-4.1019e-05
2.55639e-05
-4.6026e-05
2.62183e-05
-5.0882e-05
2.54873e-05
-5.4876e-05
2.30035e-05
-5.64796e-05
2.10163e-05
-5.02602e-05
2.30106e-05
-3.60896e-05
2.98615e-05
-2.33129e-05
3.88593e-05
-1.67404e-05
4.86538e-05
-1.48438e-05
5.88457e-05
-1.59527e-05
6.95251e-05
-1.90215e-05
8.09094e-05
-2.35653e-05
9.30344e-05
-2.93686e-05
0.000105467
-3.59794e-05
-4.1639e-05
0.000117017
2.32341e-06
-2.8188e-05
6.51114e-06
-2.81182e-05
1.05491e-05
-2.89589e-05
1.43708e-05
-3.04778e-05
1.79479e-05
-3.26919e-05
2.12046e-05
-3.56239e-05
2.40349e-05
-3.92066e-05
2.6292e-05
-4.32762e-05
2.78021e-05
-4.75361e-05
2.84142e-05
-5.14941e-05
2.79346e-05
-5.43965e-05
2.62587e-05
-5.48038e-05
2.42864e-05
-4.82879e-05
2.52984e-05
-3.71016e-05
3.04088e-05
-2.84233e-05
3.77375e-05
-2.40691e-05
4.61013e-05
-2.32075e-05
5.49874e-05
-2.48388e-05
6.42583e-05
-2.82924e-05
7.38878e-05
-3.31948e-05
8.37416e-05
-3.92224e-05
9.34175e-05
-4.56552e-05
-5.05048e-05
0.000102283
3.17511e-06
-3.13631e-05
6.99322e-06
-3.19363e-05
1.08413e-05
-3.2807e-05
1.45396e-05
-3.41762e-05
1.79749e-05
-3.61272e-05
2.10398e-05
-3.86888e-05
2.36321e-05
-4.17989e-05
2.56496e-05
-4.52938e-05
2.69998e-05
-4.88863e-05
2.76143e-05
-5.21086e-05
2.74108e-05
-5.41931e-05
2.63813e-05
-5.37743e-05
2.54928e-05
-4.73994e-05
2.67536e-05
-3.83624e-05
3.07636e-05
-3.24332e-05
3.6622e-05
-2.99274e-05
4.35052e-05
-3.00908e-05
5.09369e-05
-3.22704e-05
5.86792e-05
-3.60348e-05
6.65792e-05
-4.10947e-05
7.4443e-05
-4.70862e-05
8.19533e-05
-5.31656e-05
-5.73073e-05
8.87558e-05
3.28887e-06
-3.4652e-05
6.79153e-06
-3.5439e-05
1.02685e-05
-3.62839e-05
1.36008e-05
-3.75085e-05
1.66871e-05
-3.92135e-05
1.9432e-05
-4.14337e-05
2.17494e-05
-4.41163e-05
2.35667e-05
-4.71111e-05
2.48337e-05
-5.01533e-05
2.55329e-05
-5.28079e-05
2.56824e-05
-5.43427e-05
2.5396e-05
-5.34879e-05
2.53395e-05
-4.73429e-05
2.68511e-05
-3.9874e-05
3.02302e-05
-3.58122e-05
3.49874e-05
-3.46846e-05
4.06015e-05
-3.57048e-05
4.66971e-05
-3.83659e-05
5.3026e-05
-4.23637e-05
5.93955e-05
-4.74642e-05
6.5608e-05
-5.32987e-05
7.14159e-05
-5.89735e-05
-6.25092e-05
7.66177e-05
3.00919e-06
-3.76611e-05
6.12143e-06
-3.85512e-05
9.19242e-06
-3.93548e-05
1.21282e-05
-4.04442e-05
1.48461e-05
-4.19313e-05
1.727e-05
-4.38576e-05
1.93344e-05
-4.61807e-05
2.09909e-05
-4.87676e-05
2.22172e-05
-5.13796e-05
2.30269e-05
-5.36176e-05
2.34818e-05
-5.47975e-05
2.37347e-05
-5.37408e-05
2.42322e-05
-4.78404e-05
2.58888e-05
-4.15305e-05
2.88335e-05
-3.87569e-05
3.27641e-05
-3.86152e-05
3.73463e-05
-4.0287e-05
4.2302e-05
-4.33217e-05
4.74131e-05
-4.74747e-05
5.24943e-05
-5.25454e-05
5.73654e-05
-5.81698e-05
6.18625e-05
-6.34707e-05
-6.65258e-05
6.5879e-05
2.65322e-06
-4.03143e-05
5.35782e-06
-4.12557e-05
8.01706e-06
-4.2014e-05
1.05588e-05
-4.29859e-05
1.29175e-05
-4.42901e-05
1.50344e-05
-4.59744e-05
1.68613e-05
-4.80077e-05
1.83683e-05
-5.02745e-05
1.95506e-05
-5.25619e-05
2.04373e-05
-5.45043e-05
2.11018e-05
-5.5462e-05
2.16887e-05
-5.43276e-05
2.24913e-05
-4.8643e-05
2.41793e-05
-4.32185e-05
2.67705e-05
-4.1348e-05
3.00525e-05
-4.18972e-05
3.37998e-05
-4.40342e-05
3.78075e-05
-4.73293e-05
4.18972e-05
-5.15645e-05
4.59102e-05
-5.65584e-05
4.97003e-05
-6.19598e-05
5.31438e-05
-6.69142e-05
-6.95722e-05
5.61901e-05
2.30745e-06
-4.26217e-05
4.63523e-06
-4.35834e-05
6.91025e-06
-4.4289e-05
9.08128e-06
-4.51569e-05
1.1101e-05
-4.63097e-05
1.29261e-05
-4.77995e-05
1.4523e-05
-4.96045e-05
1.58742e-05
-5.16258e-05
1.69852e-05
-5.36729e-05
1.78898e-05
-5.54089e-05
1.86587e-05
-5.62309e-05
1.94122e-05
-5.50812e-05
2.03437e-05
-4.95745e-05
2.19715e-05
-4.48463e-05
2.42439e-05
-4.36204e-05
2.69931e-05
-4.46463e-05
3.00545e-05
-4.70956e-05
3.32747e-05
-5.05496e-05
3.65133e-05
-5.48031e-05
3.96423e-05
-5.96873e-05
4.25496e-05
-6.48672e-05
4.51519e-05
-6.95165e-05
-7.18637e-05
4.74431e-05
2.00189e-06
-4.46235e-05
3.99418e-06
-4.55756e-05
5.91997e-06
-4.62147e-05
7.74865e-06
-4.69855e-05
9.4508e-06
-4.80118e-05
1.09977e-05
-4.93464e-05
1.23672e-05
-5.09739e-05
1.35499e-05
-5.28085e-05
1.45555e-05
-5.46785e-05
1.54178e-05
-5.62712e-05
1.62002e-05
-5.70133e-05
1.70002e-05
-5.58811e-05
1.79431e-05
-5.05173e-05
1.94494e-05
-4.63526e-05
2.14228e-05
-4.55938e-05
2.37176e-05
-4.6941e-05
2.62044e-05
-4.95824e-05
2.87648e-05
-5.31099e-05
3.12885e-05
-5.73268e-05
3.36777e-05
-6.20765e-05
3.58534e-05
-6.70429e-05
3.77715e-05
-7.14346e-05
-7.35596e-05
3.94672e-05
1.75567e-06
-4.6379e-05
3.45379e-06
-4.72737e-05
5.05881e-06
-4.78197e-05
6.56632e-06
-4.8493e-05
7.96673e-06
-4.94122e-05
9.2447e-06
-5.06243e-05
1.03863e-05
-5.21155e-05
1.13864e-05
-5.38086e-05
1.22553e-05
-5.55473e-05
1.30232e-05
-5.70392e-05
1.37474e-05
-5.77374e-05
1.45103e-05
-5.66441e-05
1.53949e-05
-5.14018e-05
1.6748e-05
-4.77057e-05
1.84412e-05
-4.7287e-05
2.03405e-05
-4.88403e-05
2.23381e-05
-5.158e-05
2.4339e-05
-5.51108e-05
2.6256e-05
-5.92438e-05
2.80148e-05
-6.38353e-05
2.95682e-05
-6.85963e-05
3.09152e-05
-7.27816e-05
-7.47852e-05
3.21405e-05
1.58404e-06
-4.7963e-05
3.02615e-06
-4.87157e-05
4.32732e-06
-4.91208e-05
5.52501e-06
-4.96906e-05
6.63338e-06
-5.05206e-05
7.64893e-06
-5.16399e-05
8.56266e-06
-5.30292e-05
9.36989e-06
-5.46158e-05
1.00773e-05
-5.62547e-05
1.07104e-05
-5.76722e-05
1.13219e-05
-5.83489e-05
1.19903e-05
-5.73125e-05
1.27855e-05
-5.21971e-05
1.39792e-05
-4.88994e-05
1.5415e-05
-4.87227e-05
1.69679e-05
-5.03932e-05
1.85465e-05
-5.31586e-05
2.00723e-05
-5.66366e-05
2.14732e-05
-6.06446e-05
2.26899e-05
-6.5052e-05
2.37005e-05
-6.96069e-05
2.45617e-05
-7.36428e-05
-7.56513e-05
2.54276e-05
1.4924e-06
-4.94553e-05
2.70985e-06
-4.99331e-05
3.71538e-06
-5.01263e-05
4.61062e-06
-5.05859e-05
5.43738e-06
-5.13473e-05
6.20097e-06
-5.24035e-05
6.89329e-06
-5.37216e-05
7.50624e-06
-5.52288e-05
8.03984e-06
-5.67883e-05
8.51087e-06
-5.81432e-05
8.9681e-06
-5.88062e-05
9.49933e-06
-5.78437e-05
1.0209e-05
-5.29068e-05
1.12588e-05
-4.99491e-05
1.24658e-05
-4.99298e-05
1.37192e-05
-5.16465e-05
1.49446e-05
-5.43841e-05
1.60775e-05
-5.77695e-05
1.70525e-05
-6.16197e-05
1.78128e-05
-6.58124e-05
1.83465e-05
-7.01407e-05
1.87777e-05
-7.40739e-05
-7.62637e-05
1.93897e-05
1.42737e-06
-5.08827e-05
2.45439e-06
-5.09602e-05
3.18602e-06
-5.0858e-05
3.8043e-06
-5.12042e-05
4.37782e-06
-5.19209e-05
4.91581e-06
-5.29415e-05
5.40819e-06
-5.4214e-05
5.84196e-06
-5.56626e-05
6.20916e-06
-5.71556e-05
6.51513e-06
-5.84492e-05
6.797e-06
-5.90881e-05
7.15104e-06
-5.81978e-05
7.80884e-06
-5.35646e-05
8.74365e-06
-5.0884e-05
9.75375e-06
-5.094e-05
1.07559e-05
-5.26488e-05
1.17e-05
-5.53282e-05
1.25355e-05
-5.86051e-05
1.32013e-05
-6.22855e-05
1.36299e-05
-6.6241e-05
1.37823e-05
-7.02931e-05
1.37734e-05
-7.4065e-05
-7.65682e-05
1.40775e-05
1.165e-06
-5.20477e-05
2.10962e-06
-5.19048e-05
2.66338e-06
-5.14118e-05
3.09402e-06
-5.16348e-05
3.48712e-06
-5.2314e-05
3.85599e-06
-5.33104e-05
4.1933e-06
-5.45513e-05
4.48612e-06
-5.59555e-05
4.72421e-06
-5.73937e-05
4.91189e-06
-5.86369e-05
5.08091e-06
-5.92571e-05
5.32072e-06
-5.84376e-05
5.89432e-06
-5.41383e-05
6.69224e-06
-5.1682e-05
7.51406e-06
-5.17618e-05
8.31722e-06
-5.3452e-05
9.06901e-06
-5.608e-05
9.73425e-06
-5.92704e-05
1.0266e-05
-6.28173e-05
1.06046e-05
-6.65796e-05
1.0703e-05
-7.03916e-05
1.05659e-05
-7.39279e-05
-7.63667e-05
1.03642e-05
8.55159e-07
-5.29027e-05
1.77809e-06
-5.28275e-05
2.28836e-06
-5.19218e-05
2.64207e-06
-5.19883e-05
2.94303e-06
-5.26148e-05
3.21559e-06
-5.35827e-05
3.46084e-06
-5.47963e-05
3.66681e-06
-5.61612e-05
3.82218e-06
-5.75488e-05
3.94367e-06
-5.87582e-05
4.10846e-06
-5.94216e-05
4.50168e-06
-5.88305e-05
4.80942e-06
-5.44458e-05
5.4141e-06
-5.22865e-05
6.09676e-06
-5.24443e-05
6.81677e-06
-5.41717e-05
7.51637e-06
-5.67794e-05
8.17475e-06
-5.99285e-05
8.78523e-06
-6.34275e-05
9.35272e-06
-6.71468e-05
9.89194e-06
-7.09304e-05
1.07206e-05
-7.47562e-05
-7.82206e-05
1.25749e-05
2.7793e-06
-5.5682e-05
2.91612e-06
-5.29639e-05
2.80101e-06
-5.18065e-05
2.88406e-06
-5.20712e-05
3.05331e-06
-5.27839e-05
3.25772e-06
-5.3787e-05
3.46441e-06
-5.50029e-05
3.63229e-06
-5.63289e-05
3.72401e-06
-5.76404e-05
3.68244e-06
-5.87164e-05
3.65015e-06
-5.93891e-05
4.32904e-06
-5.95092e-05
4.28658e-06
-5.44032e-05
4.89421e-06
-5.2894e-05
5.78577e-06
-5.33357e-05
6.67262e-06
-5.50584e-05
7.52832e-06
-5.76349e-05
8.36238e-06
-6.07623e-05
9.22111e-06
-6.42859e-05
1.0162e-05
-6.80874e-05
1.11365e-05
-7.19044e-05
1.19655e-05
-7.55847e-05
-8.17132e-05
1.5459e-05
1.60077e-05
-7.16899e-05
4.07685e-06
-4.10329e-05
3.25147e-06
-5.09809e-05
3.78963e-06
-5.26091e-05
4.06444e-06
-5.30584e-05
4.36825e-06
-5.40905e-05
4.64527e-06
-5.52796e-05
4.78057e-06
-5.64639e-05
4.68135e-06
-5.75407e-05
4.24432e-06
-5.8279e-05
2.82605e-06
-5.79703e-05
1.39497e-06
-5.80776e-05
2.6868e-06
-5.56949e-05
4.9391e-06
-5.51463e-05
6.93974e-06
-5.53362e-05
8.59354e-06
-5.6712e-05
9.88952e-06
-5.89306e-05
1.09709e-05
-6.18433e-05
1.19817e-05
-6.52963e-05
1.31961e-05
-6.93013e-05
1.46407e-05
-7.33483e-05
1.10021e-05
-7.19449e-05
-5.77259e-05
-1.29839e-05
-6.56758e-06
-6.5123e-05
-6.92363e-07
-4.69088e-05
-1.2571e-06
-5.04165e-05
-1.89184e-06
-5.19745e-05
-2.43344e-06
-5.25169e-05
-3.2266e-06
-5.32974e-05
-4.25487e-06
-5.42514e-05
-5.53397e-06
-5.51849e-05
-7.10012e-06
-5.59747e-05
-8.92462e-06
-5.64546e-05
-1.03748e-05
-5.65203e-05
-1.2319e-05
-5.61337e-05
-1.34098e-05
-5.46044e-05
-1.45601e-05
-5.39964e-05
-1.54987e-05
-5.43979e-05
-1.66975e-05
-5.55136e-05
-1.84692e-05
-5.71592e-05
-2.10042e-05
-5.93086e-05
-2.45125e-05
-6.17884e-05
-2.96108e-05
-6.42033e-05
-3.84433e-05
-6.45161e-05
-5.35221e-05
-5.68665e-05
-3.75884e-05
-7.36596e-05
-6.5956e-06
-5.85279e-05
-3.37868e-06
-5.01265e-05
-3.38229e-06
-5.04136e-05
-4.45039e-06
-5.09071e-05
-5.63065e-06
-5.13373e-05
-7.00281e-06
-5.19259e-05
-8.65107e-06
-5.26038e-05
-1.05844e-05
-5.32523e-05
-1.27934e-05
-5.37665e-05
-1.52138e-05
-5.4035e-05
-1.77694e-05
-5.39656e-05
-2.03605e-05
-5.35436e-05
-2.24701e-05
-5.24956e-05
-2.45145e-05
-5.19528e-05
-2.68333e-05
-5.20799e-05
-2.97256e-05
-5.26221e-05
-3.34182e-05
-5.34675e-05
-3.82556e-05
-5.44721e-05
-4.4759e-05
-5.52859e-05
-5.38509e-05
-5.51125e-05
-6.6392e-05
-5.19762e-05
-8.10296e-05
-4.223e-05
-2.34343e-05
-9.51847e-05
-4.00972e-06
-5.45182e-05
-3.74973e-06
-5.03866e-05
-4.56255e-06
-4.96009e-05
-5.85762e-06
-4.96122e-05
-7.31701e-06
-4.98781e-05
-8.97215e-06
-5.02709e-05
-1.08761e-05
-5.07e-05
-1.30455e-05
-5.10831e-05
-1.54682e-05
-5.1344e-05
-1.81001e-05
-5.14034e-05
-2.08771e-05
-5.11889e-05
-2.37279e-05
-5.06931e-05
-2.63585e-05
-4.98653e-05
-2.90582e-05
-4.92533e-05
-3.2171e-05
-4.89674e-05
-3.59157e-05
-4.88777e-05
-4.05451e-05
-4.88383e-05
-4.63908e-05
-4.86266e-05
-5.38566e-05
-4.78204e-05
-6.33448e-05
-4.56246e-05
-7.47163e-05
-4.06051e-05
-8.61431e-05
-3.08036e-05
-1.53336e-05
-9.42439e-05
-3.17412e-06
-5.13441e-05
-4.17393e-06
-4.93868e-05
-5.30562e-06
-4.84693e-05
-6.65603e-06
-4.82619e-05
-8.1879e-06
-4.83463e-05
-9.92278e-06
-4.85361e-05
-1.18867e-05
-4.87363e-05
-1.409e-05
-4.88799e-05
-1.65254e-05
-4.89088e-05
-1.9163e-05
-4.87661e-05
-2.19475e-05
-4.84046e-05
-2.48277e-05
-4.7813e-05
-2.76767e-05
-4.70165e-05
-3.06869e-05
-4.62433e-05
-3.40966e-05
-4.5558e-05
-3.81031e-05
-4.48713e-05
-4.29102e-05
-4.40314e-05
-4.87358e-05
-4.28012e-05
-5.57646e-05
-4.07918e-05
-6.40069e-05
-3.73825e-05
-7.29413e-05
-3.1671e-05
-8.10317e-05
-2.27133e-05
-1.03678e-05
-8.59975e-05
-2.70102e-06
-4.86433e-05
-4.24026e-06
-4.78477e-05
-5.58723e-06
-4.71224e-05
-7.00765e-06
-4.68416e-05
-8.57379e-06
-4.67803e-05
-1.03189e-05
-4.67911e-05
-1.22629e-05
-4.67924e-05
-1.44139e-05
-4.67291e-05
-1.6767e-05
-4.65558e-05
-1.93026e-05
-4.62306e-05
-2.19869e-05
-4.57205e-05
-2.47853e-05
-4.50147e-05
-2.76672e-05
-4.41348e-05
-3.07416e-05
-4.31691e-05
-3.41656e-05
-4.21341e-05
-3.80824e-05
-4.09545e-05
-4.26223e-05
-3.94916e-05
-4.78882e-05
-3.75355e-05
-5.39017e-05
-3.47784e-05
-6.04908e-05
-3.07936e-05
-6.70985e-05
-2.50633e-05
-7.26378e-05
-1.71743e-05
-7.24072e-06
-7.57648e-05
-2.34308e-06
-4.63004e-05
-4.05662e-06
-4.61344e-05
-5.54862e-06
-4.56306e-05
-7.0442e-06
-4.53462e-05
-8.63755e-06
-4.51871e-05
-1.03711e-05
-4.50577e-05
-1.22667e-05
-4.48969e-05
-1.43339e-05
-4.46621e-05
-1.65719e-05
-4.43179e-05
-1.897e-05
-4.38326e-05
-2.151e-05
-4.31806e-05
-2.41756e-05
-4.23492e-05
-2.69675e-05
-4.1343e-05
-2.99495e-05
-4.01872e-05
-3.32151e-05
-3.88686e-05
-3.68507e-05
-3.7319e-05
-4.0921e-05
-3.54215e-05
-4.54471e-05
-3.30094e-05
-5.03653e-05
-2.98603e-05
-5.54559e-05
-2.57032e-05
-6.02583e-05
-2.02611e-05
-6.40521e-05
-1.33804e-05
-5.23755e-06
-6.60553e-05
-2.06269e-06
-4.4238e-05
-3.78951e-06
-4.44078e-05
-5.34914e-06
-4.40712e-05
-6.89055e-06
-4.38049e-05
-8.49372e-06
-4.35841e-05
-1.02004e-05
-4.33512e-05
-1.20337e-05
-4.30638e-05
-1.40054e-05
-4.26905e-05
-1.61185e-05
-4.2205e-05
-1.83688e-05
-4.15825e-05
-2.07481e-05
-4.08014e-05
-2.32508e-05
-3.98467e-05
-2.58836e-05
-3.87103e-05
-2.86827e-05
-3.73883e-05
-3.16977e-05
-3.58538e-05
-3.49702e-05
-3.40466e-05
-3.85179e-05
-3.18739e-05
-4.23155e-05
-2.92119e-05
-4.6266e-05
-2.59099e-05
-5.01641e-05
-2.18052e-05
-5.36641e-05
-1.67611e-05
-5.62992e-05
-1.07455e-05
-3.93053e-06
-5.76062e-05
-1.8461e-06
-4.23923e-05
-3.519e-06
-4.27352e-05
-5.08417e-06
-4.25063e-05
-6.63087e-06
-4.22584e-05
-8.21748e-06
-4.19976e-05
-9.87949e-06
-4.16893e-05
-1.16387e-05
-4.13047e-05
-1.35078e-05
-4.08217e-05
-1.5492e-05
-4.02209e-05
-1.75914e-05
-3.94832e-05
-1.9803e-05
-3.859e-05
-2.21251e-05
-3.75247e-05
-2.4563e-05
-3.62725e-05
-2.71341e-05
-3.48173e-05
-2.98596e-05
-3.31285e-05
-3.27508e-05
-3.11555e-05
-3.57971e-05
-2.88277e-05
-3.89513e-05
-2.60579e-05
-4.21125e-05
-2.27488e-05
-4.51092e-05
-1.88085e-05
-4.76921e-05
-1.41785e-05
-4.95584e-05
-8.8792e-06
-3.06129e-06
-5.04276e-05
-1.67388e-06
-4.07188e-05
-3.26522e-06
-4.11442e-05
-4.79324e-06
-4.09785e-05
-6.30919e-06
-4.07427e-05
-7.85288e-06
-4.04541e-05
-9.45205e-06
-4.00903e-05
-1.11257e-05
-3.96312e-05
-1.28856e-05
-3.90618e-05
-1.47382e-05
-3.83685e-05
-1.66851e-05
-3.75365e-05
-1.87255e-05
-3.65497e-05
-2.08586e-05
-3.53917e-05
-2.30858e-05
-3.40455e-05
-2.54121e-05
-3.24911e-05
-2.78411e-05
-3.06996e-05
-3.0366e-05
-2.86306e-05
-3.29614e-05
-2.62324e-05
-3.55733e-05
-2.34461e-05
-3.811e-05
-2.02122e-05
-4.04358e-05
-1.64829e-05
-4.23728e-05
-1.22415e-05
-4.37227e-05
-7.5295e-06
-2.47142e-06
-4.43125e-05
-1.52987e-06
-3.91893e-05
-3.02683e-06
-3.96476e-05
-4.48979e-06
-3.95158e-05
-5.94737e-06
-3.92853e-05
-7.42588e-06
-3.89758e-05
-8.94604e-06
-3.85704e-05
-1.05233e-05
-3.80542e-05
-1.2168e-05
-3.74173e-05
-1.3886e-05
-3.66506e-05
-1.56795e-05
-3.57431e-05
-1.75481e-05
-3.46812e-05
-1.949e-05
-3.345e-05
-2.1503e-05
-3.20326e-05
-2.35845e-05
-3.04097e-05
-2.57277e-05
-2.85566e-05
-2.79161e-05
-2.64422e-05
-3.01183e-05
-2.40304e-05
-3.22816e-05
-2.12829e-05
-3.43281e-05
-1.81657e-05
-3.61529e-05
-1.46582e-05
-3.76295e-05
-1.07651e-05
-3.86258e-05
-6.53313e-06
-2.06471e-06
-3.90326e-05
-1.4022e-06
-3.77873e-05
-2.79787e-06
-3.82522e-05
-4.17744e-06
-3.81365e-05
-5.55666e-06
-3.79063e-05
-6.95268e-06
-3.758e-05
-8.38052e-06
-3.71427e-05
-9.85221e-06
-3.65826e-05
-1.13762e-05
-3.58934e-05
-1.29574e-05
-3.50696e-05
-1.45974e-05
-3.41032e-05
-1.62954e-05
-3.29834e-05
-1.80483e-05
-3.16971e-05
-1.98515e-05
-3.02296e-05
-2.16974e-05
-2.85639e-05
-2.35739e-05
-2.66802e-05
-2.54605e-05
-2.45558e-05
-2.73246e-05
-2.21663e-05
-2.91189e-05
-1.94886e-05
-3.07793e-05
-1.65054e-05
-3.22257e-05
-1.32119e-05
-3.33676e-05
-9.6233e-06
-3.41158e-05
-5.78516e-06
-1.78043e-06
-3.44e-05
-1.28294e-06
-3.65048e-05
-2.57271e-06
-3.69626e-05
-3.85677e-06
-3.68526e-05
-5.14356e-06
-3.66197e-05
-6.4442e-06
-3.62795e-05
-7.7694e-06
-3.58176e-05
-9.12822e-06
-3.52239e-05
-1.05272e-05
-3.44946e-05
-1.19699e-05
-3.3627e-05
-1.34572e-05
-3.26159e-05
-1.49876e-05
-3.14531e-05
-1.65569e-05
-3.01279e-05
-1.81587e-05
-2.86279e-05
-1.9783e-05
-2.69396e-05
-2.14154e-05
-2.50479e-05
-2.30343e-05
-2.2937e-05
-2.46092e-05
-2.05914e-05
-2.60993e-05
-1.79986e-05
-2.74528e-05
-1.5152e-05
-2.86088e-05
-1.20559e-05
-2.95022e-05
-8.73008e-06
-3.00716e-05
-5.21562e-06
-1.58081e-06
-3.02712e-05
-1.16707e-06
-3.53379e-05
-2.34752e-06
-3.57824e-05
-3.52788e-06
-3.56724e-05
-4.71244e-06
-3.54352e-05
-5.90837e-06
-3.50836e-05
-7.12323e-06
-3.46028e-05
-8.36368e-06
-3.39836e-05
-9.6345e-06
-3.32239e-05
-1.09381e-05
-3.23234e-05
-1.22746e-05
-3.12795e-05
-1.36416e-05
-3.00862e-05
-1.50343e-05
-2.87353e-05
-1.64452e-05
-2.7217e-05
-1.78637e-05
-2.55212e-05
-1.92746e-05
-2.3637e-05
-2.06575e-05
-2.15542e-05
-2.1985e-05
-1.92639e-05
-2.32227e-05
-1.67609e-05
-2.43292e-05
-1.40455e-05
-2.52584e-05
-1.11268e-05
-2.59626e-05
-8.02579e-06
-2.63996e-05
-4.77886e-06
-1.44141e-06
-2.65389e-05
-1.05178e-06
-3.42864e-05
-2.12014e-06
-3.47142e-05
-3.19122e-06
-3.46014e-05
-4.26675e-06
-3.43598e-05
-5.3513e-06
-3.39991e-05
-6.45024e-06
-3.35039e-05
-7.56841e-06
-3.28655e-05
-8.7092e-06
-3.20832e-05
-9.87402e-06
-3.11587e-05
-1.10622e-05
-3.00914e-05
-1.22708e-05
-2.88776e-05
-1.34947e-05
-2.75114e-05
-1.47261e-05
-2.59856e-05
-1.59545e-05
-2.42929e-05
-1.71653e-05
-2.24262e-05
-1.834e-05
-2.03795e-05
-1.94548e-05
-1.81491e-05
-2.04812e-05
-1.57345e-05
-2.13864e-05
-1.31403e-05
-2.2135e-05
-1.03783e-05
-2.26921e-05
-7.46878e-06
-2.30276e-05
-4.44318e-06
-1.34716e-06
-2.31218e-05
-9.35003e-07
-3.33513e-05
-1.88945e-06
-3.37598e-05
-2.84759e-06
-3.36433e-05
-3.80939e-06
-3.3398e-05
-4.7778e-06
-3.30308e-05
-5.75682e-06
-3.25249e-05
-6.75008e-06
-3.18722e-05
-7.7599e-06
-3.10734e-05
-8.78688e-06
-3.01317e-05
-9.82975e-06
-2.90485e-05
-1.08853e-05
-2.78221e-05
-1.19484e-05
-2.64483e-05
-1.30115e-05
-2.49225e-05
-1.40646e-05
-2.32398e-05
-1.50945e-05
-2.13962e-05
-1.60849e-05
-1.93892e-05
-1.70157e-05
-1.72183e-05
-1.78634e-05
-1.48866e-05
-1.86021e-05
-1.24016e-05
-1.92043e-05
-9.77609e-06
-1.96437e-05
-7.02925e-06
-1.98991e-05
-4.18797e-06
-1.28856e-06
-1.99576e-05
-8.14644e-07
-3.25369e-05
-1.65503e-06
-3.29194e-05
-2.49815e-06
-3.28002e-05
-3.34284e-06
-3.25533e-05
-4.19153e-06
-3.21821e-05
-5.04771e-06
-3.16688e-05
-5.91432e-06
-3.10056e-05
-6.79295e-06
-3.01947e-05
-7.68355e-06
-2.92411e-05
-8.58445e-06
-2.81476e-05
-9.49239e-06
-2.69141e-05
-1.04023e-05
-2.55384e-05
-1.13074e-05
-2.40174e-05
-1.21985e-05
-2.23487e-05
-1.30641e-05
-2.05305e-05
-1.38904e-05
-1.85629e-05
-1.46605e-05
-1.64481e-05
-1.53555e-05
-1.41916e-05
-1.59546e-05
-1.18026e-05
-1.6436e-05
-9.29458e-06
-1.67797e-05
-6.68564e-06
-1.69691e-05
-3.99824e-06
-1.26065e-06
-1.6997e-05
-6.86535e-07
-3.18502e-05
-1.41684e-06
-3.21891e-05
-2.14412e-06
-3.20729e-05
-2.86877e-06
-3.18287e-05
-3.59461e-06
-3.14562e-05
-4.32565e-06
-3.09377e-05
-5.06454e-06
-3.02667e-05
-5.81227e-06
-2.9447e-05
-6.5682e-06
-2.84851e-05
-7.33041e-06
-2.73854e-05
-8.09569e-06
-2.61488e-05
-8.85944e-06
-2.47746e-05
-9.61554e-06
-2.32613e-05
-1.03562e-05
-2.1608e-05
-1.10717e-05
-1.9815e-05
-1.17504e-05
-1.78841e-05
-1.23789e-05
-1.58196e-05
-1.29418e-05
-1.36286e-05
-1.34225e-05
-1.13219e-05
-1.38035e-05