/*--------------------------------*- C++ -*----------------------------------*\
  =========                 |
  \\      /  F ield         | OpenFOAM: The Open Source CFD Toolbox
   \\    /   O peration     | Website:  https://openfoam.org
    \\  /    A nd           | Version:  13
     \\/     M anipulation  |
\*---------------------------------------------------------------------------*/
FoamFile
{
    format      ascii;
    class       volVectorField;
    location    "0.05";
    object      U;
}
// * * * * * * * * * * * * * * * * * * * * * * * * * * * * * * * * * * * * * //

dimensions      [0 1 -1 0 0 0 0];

internalField   nonuniform List<vector> 
2268
(
(0.00359262 -0.00231785 0)
(0.0152909 -0.00461254 0)
(0.0335876 -0.00619167 0)
(0.0559073 -0.00701236 0)
(0.0812173 -0.00776783 0)
(0.109999 -0.00892104 0)
(0.143965 -0.0107828 0)
(0.185973 -0.0137552 0)
(0.240528 -0.0185537 0)
(0.313314 -0.0270625 0)
(0.423934 -0.0397682 0)
(0.539235 -0.0511143 0)
(0.645853 -0.0574819 0)
(0.753956 -0.0609159 0)
(0.936799 -0.0486748 0)
(0.78776 0.0124624 0)
(0.59028 0.0351255 0)
(0.476648 0.031655 0)
(0.385973 0.0254562 0)
(0.301371 0.0244239 0)
(0.213178 0.0270005 0)
(0.117791 0.0280476 0)
(0.0346373 0.0200204 0)
(0.00595888 -0.00661 0)
(0.0191746 -0.011206 0)
(0.0369294 -0.0149269 0)
(0.0583525 -0.0173449 0)
(0.0829212 -0.0195498 0)
(0.111124 -0.0225801 0)
(0.144481 -0.0272464 0)
(0.185504 -0.0344556 0)
(0.237953 -0.0455154 0)
(0.305405 -0.062526 0)
(0.399137 -0.0843306 0)
(0.498061 -0.100513 0)
(0.582916 -0.0974679 0)
(0.695822 -0.0625249 0)
(0.81252 0.095039 0)
(0.652183 0.089605 0)
(0.535915 0.0875645 0)
(0.458524 0.0726468 0)
(0.384944 0.0615982 0)
(0.310081 0.0609595 0)
(0.228357 0.0667304 0)
(0.137806 0.0682835 0)
(0.049099 0.0536659 0)
(0.00831642 -0.0128215 0)
(0.0227142 -0.0184385 0)
(0.0399397 -0.0236306 0)
(0.0601624 -0.0275721 0)
(0.0834861 -0.0313837 0)
(0.110521 -0.0364421 0)
(0.142596 -0.0439712 0)
(0.181788 -0.0552775 0)
(0.230969 -0.0719829 0)
(0.291964 -0.0958957 0)
(0.371228 -0.124897 0)
(0.451887 -0.147289 0)
(0.517664 -0.144782 0)
(0.612534 -0.0845797 0)
(0.657539 0.0769689 0)
(0.564763 0.115076 0)
(0.496225 0.119422 0)
(0.439552 0.104087 0)
(0.380467 0.0932893 0)
(0.317073 0.0949582 0)
(0.244675 0.105125 0)
(0.160498 0.110863 0)
(0.0669315 0.0997119 0)
(0.00981226 -0.0205693 0)
(0.0253563 -0.0261762 0)
(0.0423012 -0.0322225 0)
(0.0614619 -0.0374459 0)
(0.0834754 -0.0428318 0)
(0.109115 -0.0499078 0)
(0.139562 -0.0601685 0)
(0.176448 -0.075169 0)
(0.221794 -0.0965943 0)
(0.276168 -0.125725 0)
(0.3431 -0.159212 0)
(0.407234 -0.184204 0)
(0.457845 -0.179706 0)
(0.527583 -0.0932986 0)
(0.554773 0.0796987 0)
(0.502563 0.137835 0)
(0.462684 0.142779 0)
(0.422698 0.128226 0)
(0.377382 0.11926 0)
(0.326099 0.124291 0)
(0.264035 0.140225 0)
(0.186225 0.154347 0)
(0.086288 0.157438 0)
(0.010427 -0.0289597 0)
(0.0269138 -0.0342243 0)
(0.0437416 -0.0406443 0)
(0.0620181 -0.0468744 0)
(0.0827608 -0.0537148 0)
(0.106882 -0.0627088 0)
(0.135444 -0.0754836 0)
(0.169677 -0.0936961 0)
(0.210873 -0.118915 0)
(0.258751 -0.151781 0)
(0.315042 -0.187744 0)
(0.365403 -0.212894 0)
(0.404452 -0.204291 0)
(0.452995 -0.101457 0)
(0.479328 0.0802394 0)
(0.452949 0.149531 0)
(0.433253 0.157306 0)
(0.408065 0.145292 0)
(0.376165 0.139139 0)
(0.337604 0.148228 0)
(0.287043 0.17137 0)
(0.217198 0.198519 0)
(0.108976 0.226274 0)
(0.0104647 -0.0376071 0)
(0.0274616 -0.0424156 0)
(0.0441748 -0.0488687 0)
(0.0616834 -0.0558365 0)
(0.0812134 -0.0639563 0)
(0.103754 -0.0746983 0)
(0.130255 -0.089706 0)
(0.161611 -0.110615 0)
(0.198527 -0.138763 0)
(0.240205 -0.174134 0)
(0.287305 -0.211092 0)
(0.326598 -0.234911 0)
(0.357267 -0.221293 0)
(0.392013 -0.110274 0)
(0.420488 0.076462 0)
(0.411373 0.152836 0)
(0.407077 0.1645 0)
(0.395363 0.155807 0)
(0.376719 0.152783 0)
(0.35177 0.166139 0)
(0.314872 0.197601 0)
(0.257841 0.243338 0)
(0.139998 0.310919 0)
(0.0101975 -0.0461987 0)
(0.0271969 -0.0506021 0)
(0.0436551 -0.0568858 0)
(0.0604259 -0.0643564 0)
(0.0787824 -0.073554 0)
(0.0997138 -0.0858293 0)
(0.124049 -0.102756 0)
(0.152402 -0.12586 0)
(0.185037 -0.156191 0)
(0.220902 -0.193123 0)
(0.260033 -0.230096 0)
(0.290444 -0.252002 0)
(0.315203 -0.233624 0)
(0.342086 -0.119291 0)
(0.372392 0.0692492 0)
(0.375595 0.150038 0)
(0.383545 0.165485 0)
(0.384233 0.160115 0)
(0.378806 0.159949 0)
(0.368708 0.177023 0)
(0.349137 0.216736 0)
(0.314069 0.287448 0)
(0.187846 0.426233 0)
(0.00974583 -0.0549579 0)
(0.0263067 -0.0588202 0)
(0.042307 -0.0647636 0)
(0.0583055 -0.0725199 0)
(0.0755056 -0.0825816 0)
(0.0948238 -0.0961582 0)
(0.116952 -0.114696 0)
(0.142269 -0.13955 0)
(0.17072 -0.171469 0)
(0.201221 -0.209284 0)
(0.233401 -0.245793 0)
(0.256499 -0.265879 0)
(0.277378 -0.243529 0)
(0.301174 -0.129105 0)
(0.332312 0.0593861 0)
(0.344417 0.142363 0)
(0.362227 0.160893 0)
(0.374357 0.158308 0)
(0.382088 0.160066 0)
(0.388224 0.178959 0)
(0.391514 0.223525 0)
(0.391853 0.316904 0)
(0.285893 0.584479 0)
(-0.000773542 -0.00265478 0)
(0.0371395 -0.0191199 0)
(0.109813 -0.0190289 0)
(0.170346 -0.0135063 0)
(0.210071 -0.00775816 0)
(0.230107 -0.00311804 0)
(0.234798 0.000202224 0)
(0.228701 0.00241266 0)
(0.215599 0.00379683 0)
(0.198205 0.00462367 0)
(0.178316 0.00509298 0)
(0.157036 0.00535524 0)
(0.134974 0.00551332 0)
(0.112381 0.00564875 0)
(0.0892816 0.0058106 0)
(0.0656761 0.00599074 0)
(0.0420966 0.00594422 0)
(0.0206014 0.00498479 0)
(0.00528082 0.00295493 0)
(0.00777413 -0.00436836 0)
(0.057654 -0.0470469 0)
(0.13707 -0.0467579 0)
(0.193958 -0.0330095 0)
(0.227574 -0.0188371 0)
(0.24249 -0.00725666 0)
(0.243499 0.00117179 0)
(0.234877 0.00679092 0)
(0.220084 0.0103033 0)
(0.201569 0.012386 0)
(0.180928 0.0135614 0)
(0.159135 0.014209 0)
(0.136719 0.0145954 0)
(0.113901 0.0149136 0)
(0.0907327 0.015254 0)
(0.067328 0.0154909 0)
(0.0443513 0.0149603 0)
(0.023598 0.0124461 0)
(0.00726095 0.00805933 0)
(0.00938356 -0.00932346 0)
(0.0677192 -0.0823667 0)
(0.159593 -0.075255 0)
(0.214159 -0.0502455 0)
(0.241523 -0.0273104 0)
(0.251089 -0.00930614 0)
(0.248343 0.00367494 0)
(0.237278 0.0122687 0)
(0.220989 0.0176181 0)
(0.201621 0.0207613 0)
(0.180547 0.0225177 0)
(0.158597 0.0234644 0)
(0.136217 0.0240127 0)
(0.113609 0.024438 0)
(0.0908719 0.0248343 0)
(0.0682283 0.0249323 0)
(0.0463491 0.0238006 0)
(0.0264842 0.0201757 0)
(0.00940919 0.0146663 0)
(-0.000249993 -0.0131975 0)
(0.0653305 -0.127778 0)
(0.179614 -0.106577 0)
(0.233977 -0.0660632 0)
(0.255544 -0.0336963 0)
(0.260015 -0.00961661 0)
(0.253644 0.00740583 0)
(0.240173 0.018577 0)
(0.222375 0.0254735 0)
(0.202109 0.0294918 0)
(0.180548 0.0317015 0)
(0.158391 0.0328617 0)
(0.136014 0.0334994 0)
(0.113605 0.0339503 0)
(0.0913054 0.0342899 0)
(0.0693887 0.034134 0)
(0.0484028 0.0324496 0)
(0.0289962 0.028193 0)
(0.0110089 0.0226695 0)
(-0.0172141 -0.00740438 0)
(0.0508569 -0.187849 0)
(0.200229 -0.143529 0)
(0.25594 -0.0805725 0)
(0.270963 -0.0378544 0)
(0.269988 -0.00813788 0)
(0.259793 0.0123999 0)
(0.243783 0.025715 0)
(0.224372 0.0338634 0)
(0.20312 0.0385508 0)
(0.180995 0.0410777 0)
(0.158564 0.0423501 0)
(0.136135 0.0429926 0)
(0.113882 0.0433776 0)
(0.0919622 0.0435585 0)
(0.0706327 0.0430834 0)
(0.0502484 0.0409529 0)
(0.0309223 0.0364652 0)
(0.0119245 0.0313195 0)
(-0.0176212 0.0290458 0)
(0.0180761 -0.274248 0)
(0.223064 -0.191378 0)
(0.282485 -0.0938762 0)
(0.288652 -0.0392497 0)
(0.28128 -0.00463399 0)
(0.266796 0.0187497 0)
(0.247975 0.0337388 0)
(0.226787 0.0428117 0)
(0.204445 0.0479535 0)
(0.181683 0.0506479 0)
(0.158926 0.0519259 0)
(0.136406 0.0524823 0)
(0.114266 0.0527142 0)
(0.0926504 0.0526562 0)
(0.0717476 0.0518397 0)
(0.0517062 0.0493914 0)
(0.0322317 0.0449829 0)
(0.0123411 0.040407 0)
(0.267863 -0.0298419 0)
(0.0118983 -0.334881 0)
(0.25336 -0.249704 0)
(0.317803 -0.104264 0)
(0.309761 -0.0365682 0)
(0.29394 0.00164336 0)
(0.27447 0.0268403 0)
(0.252472 0.0428746 0)
(0.229321 0.0524609 0)
(0.205796 0.0577881 0)
(0.182351 0.0604706 0)
(0.159245 0.061628 0)
(0.136619 0.0619999 0)
(0.114565 0.0619957 0)
(0.0931844 0.0616403 0)
(0.07257 0.0604896 0)
(0.0526924 0.0578465 0)
(0.0329873 0.0537198 0)
(0.0124745 0.0497613 0)
(0.895946 -0.171704 0)
(0.405335 -0.310107 0)
(0.296415 -0.255485 0)
(0.366396 -0.10807 0)
(0.335177 -0.028673 0)
(0.308137 0.0109637 0)
(0.282869 0.0368102 0)
(0.257323 0.0531586 0)
(0.232006 0.0628164 0)
(0.207195 0.0680473 0)
(0.183014 0.0705367 0)
(0.159529 0.0714483 0)
(0.136772 0.0715432 0)
(0.114765 0.0712327 0)
(0.0935423 0.070544 0)
(0.0730964 0.0690889 0)
(0.0532657 0.0663626 0)
(0.033337 0.0626261 0)
(0.0124728 0.0591969 0)
(0.00903663 -0.0669026 0)
(0.0244369 -0.0707855 0)
(0.0393651 -0.0763478 0)
(0.0540564 -0.0843427 0)
(0.0695039 -0.0953939 0)
(0.0864391 -0.110537 0)
(0.105341 -0.130971 0)
(0.126324 -0.15774 0)
(0.149059 -0.191143 0)
(0.172694 -0.229378 0)
(0.196372 -0.265041 0)
(0.21099 -0.282889 0)
(0.22807 -0.256079 0)
(0.250777 -0.142091 0)
(0.279848 0.0413771 0)
(0.301393 0.123625 0)
(0.332086 0.145476 0)
(0.360536 0.145849 0)
(0.388176 0.148085 0)
(0.420859 0.16419 0)
(0.469409 0.202558 0)
(0.566353 0.282901 0)
(0.782812 0.472304 0)
(0.00813928 -0.0837418 0)
(0.0215413 -0.0865964 0)
(0.0345609 -0.0911862 0)
(0.0472483 -0.0990814 0)
(0.0603374 -0.110848 0)
(0.0742705 -0.127261 0)
(0.0892309 -0.149158 0)
(0.105065 -0.177149 0)
(0.121276 -0.211072 0)
(0.137224 -0.24875 0)
(0.152412 -0.283399 0)
(0.160604 -0.299794 0)
(0.173485 -0.271015 0)
(0.192232 -0.157395 0)
(0.22047 0.0107833 0)
(0.254719 0.0855905 0)
(0.298607 0.1075 0)
(0.342833 0.108044 0)
(0.388994 0.105802 0)
(0.443057 0.108909 0)
(0.514311 0.118729 0)
(0.618054 0.131009 0)
(0.792923 0.118021 0)
(0.00687909 -0.0993336 0)
(0.0184871 -0.0994852 0)
(0.030771 -0.103088 0)
(0.0423229 -0.110893 0)
(0.0540229 -0.122976 0)
(0.0661827 -0.139826 0)
(0.0787985 -0.161941 0)
(0.0915285 -0.189552 0)
(0.103707 -0.222146 0)
(0.114619 -0.257482 0)
(0.124112 -0.289717 0)
(0.127613 -0.305578 0)
(0.135454 -0.279786 0)
(0.148758 -0.17413 0)
(0.173568 -0.0274617 0)
(0.217621 0.0377135 0)
(0.270634 0.0573799 0)
(0.324603 0.0564309 0)
(0.381273 0.0487046 0)
(0.445329 0.0393656 0)
(0.522766 0.0272653 0)
(0.620198 0.00726909 0)
(0.748797 -0.0273078 0)
(0.0112308 -0.0817523 0)
(0.0208385 -0.0952938 0)
(0.0321958 -0.104344 0)
(0.0433716 -0.11457 0)
(0.0551282 -0.127824 0)
(0.0674155 -0.145257 0)
(0.079996 -0.167492 0)
(0.0923653 -0.194738 0)
(0.103646 -0.226479 0)
(0.112803 -0.260728 0)
(0.119025 -0.293006 0)
(0.116473 -0.311598 0)
(0.11674 -0.283126 0)
(0.123198 -0.180488 0)
(0.144823 -0.0685161 0)
(0.193132 -0.0156248 0)
(0.248925 0.000758563 0)
(0.305949 -0.00220586 0)
(0.365235 -0.0146687 0)
(0.42982 -0.032844 0)
(0.502683 -0.0570083 0)
(0.58493 -0.0887031 0)
(0.677286 -0.125201 0)
(0.0250871 -0.151908 0)
(0.0247029 -0.127327 0)
(0.0427175 -0.125905 0)
(0.0581312 -0.133279 0)
(0.0743067 -0.146095 0)
(0.0908447 -0.164206 0)
(0.107021 -0.187458 0)
(0.121799 -0.215411 0)
(0.133625 -0.246778 0)
(0.140896 -0.278684 0)
(0.14233 -0.307281 0)
(0.127298 -0.32388 0)
(0.11453 -0.282661 0)
(0.116239 -0.185103 0)
(0.137518 -0.107789 0)
(0.182389 -0.0674967 0)
(0.234195 -0.055128 0)
(0.288035 -0.0599922 0)
(0.343844 -0.075413 0)
(0.40291 -0.0985279 0)
(0.466133 -0.128608 0)
(0.53275 -0.164112 0)
(0.602416 -0.196961 0)
(0.00518622 -0.147202 0)
(0.0238681 -0.146455 0)
(0.0464818 -0.152311 0)
(0.0670971 -0.161145 0)
(0.086857 -0.173911 0)
(0.105336 -0.190728 0)
(0.121891 -0.211111 0)
(0.135788 -0.234079 0)
(0.146168 -0.257953 0)
(0.152254 -0.279985 0)
(0.152696 -0.296255 0)
(0.143634 -0.301292 0)
(0.135781 -0.265031 0)
(0.129139 -0.197504 0)
(0.14568 -0.141268 0)
(0.180955 -0.112094 0)
(0.224197 -0.104559 0)
(0.270833 -0.111877 0)
(0.319635 -0.129578 0)
(0.370431 -0.155368 0)
(0.422865 -0.187704 0)
(0.476045 -0.223184 0)
(0.530533 -0.251349 0)
(0.0091052 -0.160117 0)
(0.0276513 -0.161746 0)
(0.0482701 -0.166778 0)
(0.0683019 -0.174707 0)
(0.0874812 -0.186 0)
(0.105087 -0.20083 0)
(0.120448 -0.218848 0)
(0.132976 -0.239145 0)
(0.142161 -0.260114 0)
(0.147616 -0.279123 0)
(0.148576 -0.291996 0)
(0.142821 -0.291387 0)
(0.139437 -0.257029 0)
(0.137419 -0.203645 0)
(0.151404 -0.165271 0)
(0.179168 -0.14726 0)
(0.214209 -0.145524 0)
(0.253017 -0.155853 0)
(0.293957 -0.17542 0)
(0.336128 -0.202476 0)
(0.378503 -0.235097 0)
(0.420512 -0.268967 0)
(0.463871 -0.293069 0)
(0.00974361 -0.178262 0)
(0.027522 -0.18195 0)
(0.046115 -0.186575 0)
(0.0642272 -0.193534 0)
(0.081506 -0.203342 0)
(0.0973032 -0.216175 0)
(0.111032 -0.231722 0)
(0.122231 -0.249133 0)
(0.130581 -0.266911 0)
(0.135949 -0.282608 0)
(0.138023 -0.292146 0)
(0.135422 -0.288428 0)
(0.136284 -0.254656 0)
(0.138353 -0.210892 0)
(0.151124 -0.184741 0)
(0.173698 -0.175467 0)
(0.202131 -0.178918 0)
(0.233915 -0.192101 0)
(0.267523 -0.213139 0)
(0.301818 -0.24065 0)
(0.335595 -0.272643 0)
(0.368685 -0.304351 0)
(0.402482 -0.32501 0)
(0.00890632 -0.195325 0)
(0.0249413 -0.200037 0)
(0.0413931 -0.204523 0)
(0.0573771 -0.210741 0)
(0.0725915 -0.219299 0)
(0.08651 -0.23041 0)
(0.098664 -0.243818 0)
(0.108714 -0.258756 0)
(0.116478 -0.273865 0)
(0.121979 -0.286899 0)
(0.125198 -0.29404 0)
(0.124985 -0.288704 0)
(0.128816 -0.256235 0)
(0.133555 -0.219496 0)
(0.145448 -0.201621 0)
(0.164324 -0.19862 0)
(0.187589 -0.206135 0)
(0.213481 -0.221644 0)
(0.240751 -0.243723 0)
(0.2683 -0.271226 0)
(0.295011 -0.302166 0)
(0.32101 -0.331743 0)
(0.346455 -0.349487 0)
(0.00784929 -0.210571 0)
(0.0218825 -0.215696 0)
(0.036149 -0.219976 0)
(0.0499897 -0.225537 0)
(0.0631712 -0.233031 0)
(0.0752753 -0.24271 0)
(0.0859394 -0.254378 0)
(0.0949246 -0.267368 0)
(0.102143 -0.280463 0)
(0.107708 -0.291608 0)
(0.111744 -0.297243 0)
(0.113127 -0.291236 0)
(0.118681 -0.260009 0)
(0.124758 -0.22864 0)
(0.135768 -0.21649 0)
(0.151795 -0.217898 0)
(0.17096 -0.228382 0)
(0.192005 -0.24559 0)
(0.213956 -0.268299 0)
(0.235864 -0.295492 0)
(0.256759 -0.325238 0)
(0.277191 -0.352866 0)
(0.295403 -0.368163 0)
(0.00683148 -0.223921 0)
(0.0189744 -0.229212 0)
(0.0312072 -0.233223 0)
(0.0430327 -0.238193 0)
(0.0542979 -0.244795 0)
(0.0646867 -0.253307 0)
(0.0739287 -0.263593 0)
(0.0818616 -0.275078 0)
(0.0884573 -0.286679 0)
(0.0938703 -0.296508 0)
(0.0982795 -0.301226 0)
(0.100548 -0.295015 0)
(0.106853 -0.264861 0)
(0.113338 -0.237672 0)
(0.123361 -0.229577 0)
(0.137025 -0.234046 0)
(0.152844 -0.246582 0)
(0.169883 -0.2649 0)
(0.187399 -0.287868 0)
(0.204613 -0.314546 0)
(0.220731 -0.343081 0)
(0.236613 -0.368939 0)
(0.248956 -0.382367 0)
(0.00594549 -0.235516 0)
(0.016413 -0.240827 0)
(0.0268074 -0.244518 0)
(0.036782 -0.248949 0)
(0.0462653 -0.254808 0)
(0.0550368 -0.262386 0)
(0.0629056 -0.271591 0)
(0.0697656 -0.281929 0)
(0.0756214 -0.292429 0)
(0.0806349 -0.301345 0)
(0.0850011 -0.305511 0)
(0.0876069 -0.299327 0)
(0.0939721 -0.270035 0)
(0.100273 -0.246184 0)
(0.109223 -0.24101 0)
(0.120832 -0.247572 0)
(0.13384 -0.26143 0)
(0.147529 -0.280354 0)
(0.161321 -0.303262 0)
(0.174593 -0.329276 0)
(0.18673 -0.356638 0)
(0.198846 -0.380971 0)
(0.206354 -0.392934 0)
(0.00526809 -0.245649 0)
(0.0143059 -0.250784 0)
(0.0230346 -0.254053 0)
(0.0312856 -0.257963 0)
(0.0390866 -0.263195 0)
(0.0463115 -0.270029 0)
(0.0528356 -0.278397 0)
(0.0585896 -0.287865 0)
(0.0635874 -0.297553 0)
(0.0679815 -0.305832 0)
(0.071955 -0.309681 0)
(0.0744965 -0.303655 0)
(0.08046 -0.275064 0)
(0.0862525 -0.253956 0)
(0.0941145 -0.250908 0)
(0.103895 -0.258852 0)
(0.114497 -0.273465 0)
(0.125342 -0.292579 0)
(0.135978 -0.315155 0)
(0.145897 -0.340383 0)
(0.154643 -0.366614 0)
(0.163516 -0.389679 0)
(0.16716 -0.400678 0)
(0.00487295 -0.254652 0)
(0.0127396 -0.25926 0)
(0.0199171 -0.261917 0)
(0.0265152 -0.265289 0)
(0.0326923 -0.26999 0)
(0.0384177 -0.276244 0)
(0.0436194 -0.283975 0)
(0.0482441 -0.292783 0)
(0.0522964 -0.301861 0)
(0.0558933 -0.309682 0)
(0.0592039 -0.313369 0)
(0.0613979 -0.307601 0)
(0.0666558 -0.279658 0)
(0.0718431 -0.260868 0)
(0.0786704 -0.25936 0)
(0.0868204 -0.268146 0)
(0.0953422 -0.283067 0)
(0.10377 -0.302026 0)
(0.111724 -0.324025 0)
(0.118786 -0.348325 0)
(0.124605 -0.373451 0)
(0.130546 -0.39555 0)
(0.131325 -0.406224 0)
(0.00482121 -0.262531 0)
(0.0117293 -0.266193 0)
(0.0174179 -0.267985 0)
(0.0223977 -0.270809 0)
(0.0270041 -0.275091 0)
(0.0312911 -0.280928 0)
(0.0352201 -0.288196 0)
(0.038734 -0.29651 0)
(0.0418082 -0.305115 0)
(0.0445038 -0.312583 0)
(0.0469545 -0.316192 0)
(0.0485862 -0.310784 0)
(0.0529481 -0.283583 0)
(0.0576293 -0.26679 0)
(0.0635482 -0.266358 0)
(0.0702621 -0.275562 0)
(0.0770051 -0.29045 0)
(0.083414 -0.308988 0)
(0.089166 -0.330202 0)
(0.0938637 -0.353419 0)
(0.0971689 -0.377404 0)
(0.100381 -0.398885 0)
(0.0993312 -0.410108 0)
(0.00497747 -0.271307 0)
(0.0109476 -0.272928 0)
(0.0152986 -0.273058 0)
(0.0187832 -0.275135 0)
(0.0219709 -0.279056 0)
(0.024971 -0.284616 0)
(0.0277577 -0.291581 0)
(0.0302616 -0.299545 0)
(0.0324202 -0.307782 0)
(0.0342236 -0.314942 0)
(0.0357505 -0.318476 0)
(0.0366937 -0.313462 0)
(0.0400273 -0.287391 0)
(0.0444177 -0.272261 0)
(0.049597 -0.272471 0)
(0.0550833 -0.281785 0)
(0.0603621 -0.296448 0)
(0.0652022 -0.314458 0)
(0.0693256 -0.334803 0)
(0.0723294 -0.356819 0)
(0.0737161 -0.379487 0)
(0.0744796 -0.400355 0)
(0.0723727 -0.412481 0)
(0.00467515 -0.284799 0)
(0.0091196 -0.281839 0)
(0.0129658 -0.27881 0)
(0.0154785 -0.279704 0)
(0.0176734 -0.283202 0)
(0.0197256 -0.288537 0)
(0.0216369 -0.295278 0)
(0.0233476 -0.302958 0)
(0.0247878 -0.310854 0)
(0.0259009 -0.317678 0)
(0.0267835 -0.321054 0)
(0.027452 -0.316273 0)
(0.0299837 -0.292554 0)
(0.0336496 -0.278527 0)
(0.0380849 -0.278958 0)
(0.0425352 -0.288163 0)
(0.0467361 -0.302502 0)
(0.0505749 -0.319952 0)
(0.0538659 -0.339414 0)
(0.0562636 -0.360138 0)
(0.0571365 -0.381212 0)
(0.0575657 -0.400722 0)
(0.0557933 -0.413661 0)
(0.00545864 -0.278392 0)
(0.00631965 -0.274574 0)
(0.011127 -0.272481 0)
(0.0133257 -0.274296 0)
(0.0150228 -0.278241 0)
(0.016548 -0.283596 0)
(0.0179501 -0.290053 0)
(0.0191847 -0.297239 0)
(0.0201664 -0.304508 0)
(0.0208351 -0.310723 0)
(0.021663 -0.313703 0)
(0.0224732 -0.309513 0)
(0.0251271 -0.289856 0)
(0.0272569 -0.277161 0)
(0.0307446 -0.277371 0)
(0.0346805 -0.286033 0)
(0.0385094 -0.299505 0)
(0.0421483 -0.315839 0)
(0.0455679 -0.333951 0)
(0.0486655 -0.353109 0)
(0.0513333 -0.372484 0)
(0.0553981 -0.390856 0)
(0.0591901 -0.406317 0)
(0.018608 -0.226206 0)
(0.0137668 -0.249692 0)
(0.0150384 -0.257527 0)
(0.0152284 -0.263765 0)
(0.0158838 -0.269617 0)
(0.0169105 -0.275819 0)
(0.0180683 -0.282698 0)
(0.0191306 -0.290117 0)
(0.0198286 -0.297579 0)
(0.0200844 -0.304081 0)
(0.0199707 -0.307786 0)
(0.0201023 -0.304813 0)
(0.023301 -0.281076 0)
(0.0242023 -0.270295 0)
(0.0287775 -0.271362 0)
(0.0334624 -0.280611 0)
(0.0381665 -0.29454 0)
(0.0426403 -0.31138 0)
(0.0471218 -0.330194 0)
(0.0518027 -0.350388 0)
(0.0567876 -0.371151 0)
(0.0627787 -0.392372 0)
(0.069849 -0.409166 0)
(0.198268 -0.299167 0)
(0.0143129 -0.288672 0)
(0.0168146 -0.269117 0)
(0.0199277 -0.271717 0)
(0.0209646 -0.276313 0)
(0.0225801 -0.281832 0)
(0.0242976 -0.288417 0)
(0.0255641 -0.295706 0)
(0.0257406 -0.30307 0)
(0.0244131 -0.309336 0)
(0.0216577 -0.314231 0)
(0.00815874 -0.31346 0)
(0.00718334 -0.286232 0)
(0.0209973 -0.275933 0)
(0.0323404 -0.278245 0)
(0.0422903 -0.287947 0)
(0.0499766 -0.30227 0)
(0.056169 -0.31942 0)
(0.0617198 -0.338539 0)
(0.0673332 -0.359175 0)
(0.0728554 -0.380532 0)
(0.0797886 -0.405829 0)
(0.0465369 -0.456294 0)
(-0.0335991 -0.523412 0)
(-0.0151898 -0.2239 0)
(-0.000594702 -0.310708 0)
(-0.00781249 -0.317346 0)
(-0.0114296 -0.315752 0)
(-0.0150705 -0.319853 0)
(-0.0198756 -0.325635 0)
(-0.0259888 -0.331164 0)
(-0.0335162 -0.335615 0)
(-0.0425135 -0.337616 0)
(-0.0518812 -0.33267 0)
(-0.0618115 -0.335958 0)
(-0.0693329 -0.327746 0)
(-0.0758553 -0.331184 0)
(-0.0801326 -0.332976 0)
(-0.0855836 -0.339465 0)
(-0.0935466 -0.349911 0)
(-0.104814 -0.364688 0)
(-0.120051 -0.383291 0)
(-0.141723 -0.40548 0)
(-0.178659 -0.422559 0)
(-0.242008 -0.380671 0)
(-0.327075 -0.222009 0)
(-0.0305853 -0.30043 0)
(-0.0277125 -0.253667 0)
(-0.0145355 -0.272077 0)
(-0.020586 -0.277598 0)
(-0.0267222 -0.28057 0)
(-0.0335796 -0.284653 0)
(-0.0416979 -0.289232 0)
(-0.0512843 -0.293579 0)
(-0.0623402 -0.297124 0)
(-0.0748301 -0.299112 0)
(-0.0883384 -0.298901 0)
(-0.102948 -0.297184 0)
(-0.115563 -0.290132 0)
(-0.125969 -0.287301 0)
(-0.137111 -0.289353 0)
(-0.150806 -0.293849 0)
(-0.168186 -0.300782 0)
(-0.190559 -0.309654 0)
(-0.220074 -0.318888 0)
(-0.260784 -0.324874 0)
(-0.319088 -0.316682 0)
(-0.395874 -0.267969 0)
(-0.47795 -0.154735 0)
(-0.0161244 -0.305506 0)
(-0.0217318 -0.272844 0)
(-0.0210797 -0.269604 0)
(-0.0275345 -0.270323 0)
(-0.0350054 -0.272272 0)
(-0.0433721 -0.275001 0)
(-0.0529236 -0.278016 0)
(-0.0638524 -0.280804 0)
(-0.0761823 -0.282891 0)
(-0.0898148 -0.28376 0)
(-0.104501 -0.282916 0)
(-0.119921 -0.280473 0)
(-0.13461 -0.275767 0)
(-0.148468 -0.27284 0)
(-0.163613 -0.272234 0)
(-0.181695 -0.273376 0)
(-0.203817 -0.27548 0)
(-0.231457 -0.277415 0)
(-0.266631 -0.276881 0)
(-0.312014 -0.269246 0)
(-0.369446 -0.245385 0)
(-0.434175 -0.191528 0)
(-0.490372 -0.100205 0)
(-0.0113744 -0.286149 0)
(-0.0206044 -0.270091 0)
(-0.0250514 -0.264481 0)
(-0.0317706 -0.263557 0)
(-0.0395078 -0.264417 0)
(-0.0482694 -0.265942 0)
(-0.0581974 -0.267589 0)
(-0.0693901 -0.268953 0)
(-0.0818617 -0.269673 0)
(-0.0955386 -0.269399 0)
(-0.110206 -0.267858 0)
(-0.125552 -0.264984 0)
(-0.140875 -0.260897 0)
(-0.156305 -0.257254 0)
(-0.17321 -0.254578 0)
(-0.192837 -0.252333 0)
(-0.216218 -0.249706 0)
(-0.244476 -0.245393 0)
(-0.278813 -0.237105 0)
(-0.320167 -0.220948 0)
(-0.367753 -0.190835 0)
(-0.416007 -0.139882 0)
(-0.453444 -0.0662763 0)
(-0.00896581 -0.270024 0)
(-0.0193771 -0.262946 0)
(-0.0263323 -0.25832 0)
(-0.0335976 -0.256813 0)
(-0.0415477 -0.256766 0)
(-0.0504097 -0.257236 0)
(-0.0603086 -0.257724 0)
(-0.0713088 -0.257891 0)
(-0.0834189 -0.257455 0)
(-0.0965837 -0.256159 0)
(-0.11066 -0.253804 0)
(-0.125436 -0.250344 0)
(-0.140626 -0.245916 0)
(-0.156421 -0.241258 0)
(-0.173646 -0.236547 0)
(-0.193157 -0.231356 0)
(-0.215693 -0.224892 0)
(-0.241912 -0.215923 0)
(-0.272261 -0.202555 0)
(-0.30657 -0.18201 0)
(-0.343128 -0.150679 0)
(-0.377386 -0.10531 0)
(-0.402035 -0.0461063 0)
(-0.00741609 -0.256225 0)
(-0.0177696 -0.253829 0)
(-0.0258745 -0.250504 0)
(-0.0336832 -0.248894 0)
(-0.0418815 -0.248217 0)
(-0.0507752 -0.24783 0)
(-0.0605083 -0.247342 0)
(-0.0711495 -0.246489 0)
(-0.0827189 -0.24505 0)
(-0.0951885 -0.242834 0)
(-0.108476 -0.239688 0)
(-0.122469 -0.235552 0)
(-0.137072 -0.230486 0)
(-0.152453 -0.224748 0)
(-0.169091 -0.218318 0)
(-0.187504 -0.210805 0)
(-0.208119 -0.201519 0)
(-0.231205 -0.189441 0)
(-0.256724 -0.173159 0)
(-0.284034 -0.150865 0)
(-0.311373 -0.120579 0)
(-0.335466 -0.080971 0)
(-0.35181 -0.032867 0)
(-0.00633789 -0.244254 0)
(-0.0161645 -0.244362 0)
(-0.0246585 -0.242116 0)
(-0.0327852 -0.240595 0)
(-0.0411344 -0.239516 0)
(-0.0499823 -0.238485 0)
(-0.0594731 -0.237227 0)
(-0.069686 -0.235542 0)
(-0.0806564 -0.233265 0)
(-0.0923809 -0.230247 0)
(-0.104822 -0.226364 0)
(-0.11793 -0.221538 0)
(-0.131683 -0.215749 0)
(-0.146198 -0.20903 0)
(-0.161733 -0.201254 0)
(-0.17856 -0.192073 0)
(-0.196861 -0.180921 0)
(-0.216645 -0.167025 0)
(-0.237628 -0.149406 0)
(-0.25905 -0.126952 0)
(-0.279437 -0.0986488 0)
(-0.296525 -0.0640976 0)
(-0.307543 -0.0242329 0)
(-0.00556488 -0.233669 0)
(-0.0147518 -0.23509 0)
(-0.0232173 -0.233585 0)
(-0.0313999 -0.232185 0)
(-0.0397311 -0.230854 0)
(-0.0484203 -0.229356 0)
(-0.0575925 -0.227504 0)
(-0.0673281 -0.225157 0)
(-0.077672 -0.222193 0)
(-0.0886379 -0.218496 0)
(-0.100215 -0.213958 0)
(-0.112383 -0.20849 0)
(-0.125142 -0.202025 0)
(-0.138555 -0.194492 0)
(-0.152741 -0.185728 0)
(-0.167808 -0.175433 0)
(-0.183774 -0.16317 0)
(-0.200505 -0.148381 0)
(-0.217625 -0.130423 0)
(-0.234423 -0.108651 0)
(-0.24975 -0.0825943 0)
(-0.262076 -0.0522699 0)
(-0.269664 -0.0185389 0)
(-0.0049874 -0.224154 0)
(-0.013537 -0.226229 0)
(-0.0217404 -0.225176 0)
(-0.0297649 -0.223866 0)
(-0.0379121 -0.222366 0)
(-0.046325 -0.220527 0)
(-0.0551009 -0.218222 0)
(-0.0643129 -0.215354 0)
(-0.0740078 -0.211835 0)
(-0.0842071 -0.207575 0)
(-0.0949116 -0.20248 0)
(-0.106113 -0.19646 0)
(-0.117809 -0.189424 0)
(-0.130021 -0.181266 0)
(-0.14278 -0.171822 0)
(-0.156091 -0.160847 0)
(-0.169879 -0.148015 0)
(-0.183943 -0.132944 0)
(-0.197905 -0.11523 0)
(-0.211154 -0.0945227 0)
(-0.222831 -0.0706505 0)
(-0.231893 -0.0438048 0)
(-0.237238 -0.0147121 0)
(-0.00452823 -0.215503 0)
(-0.0124633 -0.217867 0)
(-0.0202709 -0.217067 0)
(-0.0279828 -0.215806 0)
(-0.0358103 -0.214181 0)
(-0.0438433 -0.212089 0)
(-0.0521517 -0.209436 0)
(-0.0607962 -0.206159 0)
(-0.0698199 -0.202198 0)
(-0.079245 -0.197482 0)
(-0.0890757 -0.191934 0)
(-0.0993046 -0.185466 0)
(-0.10992 -0.177985 0)
(-0.120912 -0.16938 0)
(-0.132261 -0.159506 0)
(-0.143913 -0.14817 0)
(-0.155747 -0.135142 0)
(-0.167544 -0.120167 0)
(-0.178957 -0.103007 0)
(-0.189494 -0.0834935 0)
(-0.198513 -0.0616135 0)
(-0.205304 -0.0376125 0)
(-0.20915 -0.012094 0)
(-0.00413541 -0.207589 0)
(-0.0114739 -0.210047 0)
(-0.0188051 -0.209374 0)
(-0.0260975 -0.208128 0)
(-0.0335028 -0.206405 0)
(-0.0410725 -0.204119 0)
(-0.048853 -0.2012 0)
(-0.0568915 -0.197604 0)
(-0.0652241 -0.193295 0)
(-0.0738699 -0.18822 0)
(-0.0828311 -0.182316 0)
(-0.0920972 -0.175504 0)
(-0.101647 -0.167698 0)
(-0.111451 -0.1588 0)
(-0.121459 -0.148689 0)
(-0.131589 -0.13722 0)
(-0.141703 -0.124236 0)
(-0.151591 -0.109578 0)
(-0.160953 -0.0931153 0)
(-0.169398 -0.0747906 0)
(-0.176454 -0.0546673 0)
(-0.181627 -0.0329985 0)
(-0.184443 -0.0102741 0)
(-0.00377645 -0.200344 0)
(-0.0105258 -0.202794 0)
(-0.0173298 -0.202174 0)
(-0.0241298 -0.20092 0)
(-0.0310383 -0.199115 0)
(-0.0380809 -0.19668 0)
(-0.0452857 -0.193556 0)
(-0.0526872 -0.189715 0)
(-0.0603135 -0.185137 0)
(-0.0681785 -0.179786 0)
(-0.0762809 -0.173612 0)
(-0.0846057 -0.16655 0)
(-0.0931252 -0.158526 0)
(-0.101797 -0.149458 0)
(-0.110558 -0.139252 0)
(-0.119314 -0.127805 0)
(-0.12793 -0.115015 0)
(-0.136213 -0.100788 0)
(-0.143915 -0.085068 0)
(-0.150729 -0.0678583 0)
(-0.156304 -0.0492593 0)
(-0.160297 -0.029505 0)
(-0.162387 -0.00899798 0)
(-0.00343165 -0.193735 0)
(-0.00959131 -0.196125 0)
(-0.0158342 -0.195516 0)
(-0.0220921 -0.194242 0)
(-0.028451 -0.19237 0)
(-0.0349195 -0.18982 0)
(-0.0415124 -0.186539 0)
(-0.0482537 -0.182511 0)
(-0.0551638 -0.177729 0)
(-0.0622513 -0.172172 0)
(-0.069511 -0.165803 0)
(-0.0769242 -0.15857 0)
(-0.0844589 -0.150414 0)
(-0.0920672 -0.14127 0)
(-0.0996815 -0.13107 0)
(-0.107208 -0.119745 0)
(-0.11452 -0.107232 0)
(-0.121451 -0.0934859 0)
(-0.127797 -0.0784946 0)
(-0.133319 -0.0622975 0)
(-0.137756 -0.0450067 0)
(-0.140863 -0.0268322 0)
(-0.142424 -0.00810186 0)
(-0.00309006 -0.187748 0)
(-0.00865444 -0.190055 0)
(-0.0143132 -0.189437 0)
(-0.019995 -0.188138 0)
(-0.0257669 -0.186212 0)
(-0.0316274 -0.183573 0)
(-0.0375823 -0.180172 0)
(-0.0436474 -0.176004 0)
(-0.0498368 -0.171071 0)
(-0.0561543 -0.165366 0)
(-0.0625912 -0.158862 0)
(-0.0691268 -0.151522 0)
(-0.075727 -0.1433 0)
(-0.0823432 -0.134149 0)
(-0.088909 -0.124023 0)
(-0.0953366 -0.112878 0)
(-0.101513 -0.100682 0)
(-0.107298 -0.0874225 0)
(-0.112524 -0.0731153 0)
(-0.117007 -0.0578185 0)
(-0.120548 -0.0416447 0)
(-0.122974 -0.0247764 0)
(-0.124135 -0.00748334 0)
(-0.0027436 -0.182388 0)
(-0.00770524 -0.184596 0)
(-0.0127659 -0.183959 0)
(-0.0178484 -0.182638 0)
(-0.0230071 -0.180669 0)
(-0.0282352 -0.177963 0)
(-0.0335335 -0.174474 0)
(-0.0389125 -0.170202 0)
(-0.044381 -0.165161 0)
(-0.0499391 -0.159352 0)
(-0.0555757 -0.152762 0)
(-0.061269 -0.145363 0)
(-0.0669854 -0.137124 0)
(-0.0726782 -0.128013 0)
(-0.078286 -0.118 0)
(-0.08373 -0.107064 0)
(-0.0889125 -0.0951952 0)
(-0.0937165 -0.0824015 0)
(-0.0980075 -0.0687172 0)
(-0.101639 -0.0542093 0)
(-0.104462 -0.0389852 0)
(-0.106347 -0.0232016 0)
(-0.107193 -0.00707718 0)
(-0.00238332 -0.177669 0)
(-0.00673603 -0.179757 0)
(-0.0111948 -0.1791 0)
(-0.0156622 -0.177763 0)
(-0.020188 -0.175765 0)
(-0.0247653 -0.173011 0)
(-0.0293941 -0.169457 0)
(-0.0340814 -0.16511 0)
(-0.0388323 -0.159992 0)
(-0.0436436 -0.154114 0)
(-0.0485029 -0.147473 0)
(-0.0533885 -0.140051 0)
(-0.0582688 -0.131828 0)
(-0.0631012 -0.122785 0)
(-0.0678311 -0.112906 0)
(-0.0723903 -0.102187 0)
(-0.0766965 -0.0906328 0)
(-0.0806533 -0.0782677 0)
(-0.0841527 -0.0651372 0)
(-0.0870784 -0.0513127 0)
(-0.0893137 -0.0368942 0)
(-0.0907585 -0.0220142 0)
(-0.0913408 -0.00684644 0)
(-0.00199265 -0.173624 0)
(-0.00573571 -0.17554 0)
(-0.00960506 -0.174872 0)
(-0.0134437 -0.173531 0)
(-0.0173195 -0.171518 0)
(-0.021231 -0.16873 0)
(-0.0251808 -0.165128 0)
(-0.0291743 -0.160726 0)
(-0.0332126 -0.155555 0)
(-0.0372903 -0.149634 0)
(-0.0413942 -0.142967 0)
(-0.0455038 -0.135546 0)
(-0.0495909 -0.127359 0)
(-0.053618 -0.118397 0)
(-0.0575387 -0.108658 0)
(-0.0612957 -0.0981465 0)
(-0.0648216 -0.0868814 0)
(-0.0680387 -0.0748974 0)
(-0.0708606 -0.062248 0)
(-0.0731943 -0.0490079 0)
(-0.0749442 -0.0352716 0)
(-0.076024 -0.021151 0)
(-0.0763752 -0.00677363 0)
(-0.00154525 -0.170228 0)
(-0.0046772 -0.171863 0)
(-0.00799693 -0.171245 0)
(-0.0111879 -0.169932 0)
(-0.0143965 -0.167919 0)
(-0.0176303 -0.165108 0)
(-0.0208958 -0.161469 0)
(-0.0241958 -0.157026 0)
(-0.0275279 -0.15182 0)
(-0.0308841 -0.145876 0)
(-0.0342516 -0.139201 0)
(-0.0376122 -0.131796 0)
(-0.0409416 -0.123656 0)
(-0.044209 -0.11478 0)
(-0.0473763 -0.105174 0)
(-0.0503977 -0.0948511 0)
(-0.0532201 -0.0838399 0)
(-0.0557829 -0.0721827 0)
(-0.0580192 -0.0599402 0)
(-0.0598552 -0.0471916 0)
(-0.061209 -0.0340322 0)
(-0.0619937 -0.0205617 0)
(-0.0621357 -0.00685724 0)
(-0.00101806 -0.167428 0)
(-0.00346811 -0.168439 0)
(-0.00635099 -0.168129 0)
(-0.0088644 -0.16694 0)
(-0.0113923 -0.164953 0)
(-0.0139435 -0.162127 0)
(-0.0165248 -0.158459 0)
(-0.0191341 -0.153988 0)
(-0.021765 -0.148761 0)
(-0.0244083 -0.142807 0)
(-0.0270526 -0.136138 0)
(-0.0296833 -0.128758 0)
(-0.0322813 -0.120668 0)
(-0.0348228 -0.111873 0)
(-0.0372784 -0.102385 0)
(-0.0396139 -0.0922246 0)
(-0.0417901 -0.081425 0)
(-0.0437637 -0.0700346 0)