/*--------------------------------*- C++ -*----------------------------------*\
  =========                 |
  \\      /  F ield         | OpenFOAM: The Open Source CFD Toolbox
   \\    /   O peration     | Website:  https://openfoam.org
    \\  /    A nd           | Version:  13
     \\/     M anipulation  |
\*---------------------------------------------------------------------------*/
FoamFile
{
    format      ascii;
    class       volScalarField;
    location    "2.95";
    object      alpha.mercury;
}
// * * * * * * * * * * * * * * * * * * * * * * * * * * * * * * * * * * * * * //

dimensions      [];

internalField   nonuniform List<scalar> 
2268
(
1
1
1
1
1
1
1
1
1
1
1
1
1
1
1
1
1
1
0.999989
0.999658
0.999455
0.999455
0.999506
1
1
1
1
1
1
1
1
1
1
1
1
1
1
1
1
1
1
0.999997
0.99999
0.99997
0.999965
1
1
1
1
1
1
1
1
1
1
1
1
1
1
1
1
1
1
1
1
1
1
1
1
1
1
1
1
1
1
1
1
1
1
1
1
1
1
1
1
1
1
1
1
1
1
1
1
1
1
1
1
1
1
1
1
1
1
1
1
1
1
1
1
1
1
1
1
0.999999
0.999987
1
1
1
1
1
1
1
1
1
0.999081
0.992762
0.987431
0.982619
0.976293
0.968417
0.959243
0.949172
0.938967
0.929724
0.922518
0.91675
0.907692
0.892825
0.801366
0.733191
0.686723
0.65339
0.619691
0.585103
0.550862
0.51752
0.485007
0.454716
0.427398
0.397604
0.365005
0.332327
0.300555
0.270898
0.244188
0.221664
0.204425
0.19259
0.184171
0.171085
0.147351
0.0772739
0.0429519
0.0281367
0.0203992
0.014517
0.00987118
0.00634279
0.00379065
0.00182158
1.09009e-07
9.54413e-22
1.45462e-21
3.3162e-21
1.17274e-20
5.65829e-20
-1.52973e-10
-1.43335e-09
-3.98692e-09
1.48785e-19
-1.07114e-10
-3.69335e-09
-1.74067e-07
-4.21838e-08
0.877999
0.87804
0.878038
0.878015
0.800079
0.65696
0.656858
0.667694
0.692999
0.699548
0.650784
0.64999
0.701834
0.752761
0.752763
0.752805
0.752716
0.752779
0.752722
0.865639
0.876022
0.878041
0.871579
0.853042
0.835573
0.826628
0.82619
0.825703
0.824918
0.759341
0.677653
0.752315
0.752747
0.752756
0.752839
0.752815
0.752793
0.752779
0.563766
0.608058
0.60343
0.566499
0.550501
0.567945
0.542118
0.498135
0.448494
0.524647
0.569653
0.588793
0.512752
0.555123
0.596247
0.613125
0.58503
0.546813
0.501
0.309827
0.31939
0.289811
0.202141
0.151085
0.11988
0.0680605
0.0484649
0.082625
0.0682951
0.15475
0.241457
0.250064
0.200582
0.140467
0.0910597
0.103584
0.13985
0.226614
0.0482464
0.0479011
0.0810623
0.110018
0.0595782
0.0306513
0.0306644
0.0308497
0.0326157
0.0149725
0.00241689
0.0138375
0.0956942
0.0567716
1.2775e-11
-4.56112e-15
-2.77448e-09
6.59534e-11
3.96378e-05
0.0505851
0.0644879
0.065071
0.0751769
0.0934328
0.0525688
0.0651457
0.0739383
0.0730594
0.0277025
0.00062024
0.00028011
0.00594544
5.79703e-08
1.54137e-07
4.37738e-06
1.12162e-06
6.89998e-06
2.87272e-06
0.0431224
0.0268231
0.0304824
0.040009
0.0900461
0.090562
0.0776797
0.0779332
0.0469203
0.0123934
0.000484126
0.000285075
5.76257e-08
5.66579e-08
3.62367e-07
6.82464e-06
1.61044e-06
2.01636e-05
2.92289e-06
0.0164838
0.0224068
0.0259372
0.013611
0.016869
0.0842954
0.0836693
0.0486705
0.00229638
0.000390497
0.000492131
0.000215469
6.41598e-08
5.76088e-08
3.56601e-07
6.91433e-06
1.54858e-06
0.000247407
1.69574e-05
4.87734e-07
3.25995e-10
9.3497e-06
1.4341e-05
7.58616e-11
6.34748e-12
2.23317e-13
6.34718e-12
1.09799e-08
3.22881e-12
4.16326e-11
8.95962e-11
1.25114e-10
2.25716e-10
5.7684e-10
6.8327e-10
8.43194e-10
1.24598e-09
7.22826e-10
2.46483e-11
1.42042e-11
-2.76885e-07
-1.85694e-21
3.32986e-08
3.26415e-10
8.3586e-07
5.33193e-07
6.64848e-09
7.27615e-10
6.01522e-10
5.91758e-10
5.84301e-10
6.58905e-10
8.66766e-10
9.65085e-10
8.29821e-10
1.07698e-09
2.37049e-09
2.78461e-09
3.33009e-09
4.44384e-09
3.36666e-09
3.3182e-12
1.01145e-07
4.48997e-07
3.30769e-07
1.31051e-09
3.76579e-10
3.64926e-10
3.68542e-10
1.85503e-09
9.95616e-10
9.687e-10
9.93401e-10
1.01518e-09
1.02171e-09
1.01679e-09
9.82256e-10
8.95651e-10
7.92492e-10
7.96194e-10
8.27718e-10
9.91065e-10
1.94006e-09
2.10203e-09
3.67992e-12
2.14961e-07
6.19524e-07
6.17754e-07
4.06484e-10
4.42724e-10
5.05914e-10
6.13702e-10
8.1151e-10
8.15315e-10
8.66403e-10
9.20695e-10
9.56645e-10
1.02005e-09
1.11723e-09
1.24643e-09
1.35667e-09
1.42095e-09
1.44842e-09
1.5379e-09
1.90886e-09
2.86585e-09
3.78976e-09
3.08612e-09
3.0633e-09
7.65511e-08
7.91941e-08
4.49545e-10
4.88316e-10
5.38487e-10
5.97133e-10
6.5692e-10
7.68699e-10
9.15063e-10
1.05572e-09
1.15804e-09
1.29493e-09
1.48412e-09
1.66507e-09
1.71306e-09
1.70645e-09
1.66886e-09
1.79369e-09
2.41167e-09
3.80625e-09
4.24136e-09
6.3716e-09
4.51822e-09
2.00027e-07
4.18342e-06
4.63887e-10
4.8446e-10
5.17495e-10
5.65883e-10
6.74052e-10
8.73771e-10
1.01004e-09
1.10057e-09
1.14165e-09
1.18122e-09
1.23421e-09
1.2894e-09
1.32746e-09
1.30245e-09
1.35506e-09
1.79851e-09
2.81788e-09
3.90068e-09
4.17074e-09
7.82036e-09
4.38578e-08
9.35699e-07
7.37922e-06
4.64368e-10
4.57182e-10
4.23635e-10
4.47903e-10
5.41952e-10
5.96644e-10
5.7761e-10
5.035e-10
4.7112e-10
4.9097e-10
5.65203e-10
6.6934e-10
7.97835e-10
9.32792e-10
1.09706e-09
1.25276e-09
1.74411e-09
3.45107e-09
3.44985e-09
5.11695e-09
1.67028e-07
3.56843e-07
8.34049e-07
4.63078e-10
4.4614e-10
3.7739e-10
2.98858e-10
2.6257e-10
2.205e-10
1.57627e-10
1.19016e-10
1.1529e-10
1.31186e-10
1.84381e-10
2.67172e-10
3.74957e-10
5.20754e-10
6.34184e-10
7.28758e-10
1.3634e-09
4.66509e-09
5.88318e-09
4.40331e-09
1.59606e-08
8.03711e-09
6.87617e-08
4.28544e-10
4.35244e-10
3.76936e-10
2.42153e-10
1.33701e-10
7.62516e-11
4.41027e-11
3.30103e-11
3.26136e-11
3.75992e-11
5.171e-11
6.53677e-11
7.16585e-11
7.53646e-11
8.37324e-11
1.14145e-10
1.64131e-10
4.45503e-10
9.10223e-10
9.04501e-10
6.21877e-10
5.81155e-10
6.21872e-10
3.22724e-10
3.74834e-10
3.29438e-10
2.26977e-10
1.18437e-10
7.36042e-11
4.31184e-11
3.19818e-11
2.65772e-11
2.27677e-11
1.95737e-11
1.69319e-11
1.48917e-11
1.33238e-11
1.30148e-11
1.38073e-11
1.44538e-11
1.84936e-11
7.14998e-11
3.00076e-10
6.19913e-10
1.17746e-09
2.218e-09
2.64234e-10
3.20759e-10
2.73845e-10
1.54641e-10
9.85741e-11
8.16293e-11
6.56187e-11
4.56189e-11
3.00362e-11
2.21538e-11
1.59749e-11
1.23147e-11
9.76803e-12
8.06593e-12
7.30489e-12
7.56265e-12
1.06956e-11
4.14116e-11
1.28164e-10
3.13294e-10
6.58394e-10
1.18197e-09
1.87597e-09
2.50469e-10
3.02643e-10
2.2778e-10
1.6104e-10
1.40083e-10
1.28741e-10
1.09323e-10
8.76719e-11
5.46729e-11
3.09646e-11
1.84657e-11
1.18616e-11
8.17044e-12
5.60081e-12
4.21321e-12
4.06529e-12
5.40888e-12
2.04891e-11
6.64537e-11
1.5592e-10
3.12846e-10
4.47421e-10
5.63468e-10
2.54123e-10
3.06501e-10
2.5582e-10
2.01273e-10
1.95026e-10
1.84745e-10
1.59929e-10
1.20031e-10
8.07431e-11
4.14558e-11
2.09204e-11
1.24502e-11
7.95979e-12
4.99022e-12
3.38776e-12
2.74459e-12
2.32347e-12
3.05596e-12
7.8197e-12
2.04551e-11
5.43941e-11
1.037e-10
1.15422e-10
2.61028e-10
3.26507e-10
3.06948e-10
2.7249e-10
2.5176e-10
2.20805e-10
1.81138e-10
1.4439e-10
8.99253e-11
5.05997e-11
2.48042e-11
1.37838e-11
8.54456e-12
5.2218e-12
3.38008e-12
2.40793e-12
1.67525e-12
1.33827e-12
1.6122e-12
2.75996e-12
6.96143e-12
1.63693e-11
1.72068e-11
2.58365e-10
3.54992e-10
3.63982e-10
3.26026e-10
2.88454e-10
2.47237e-10
1.87315e-10
1.42749e-10
9.16793e-11
5.00676e-11
3.0266e-11
1.76587e-11
1.05208e-11
6.84049e-12
3.81883e-12
2.15812e-12
1.4053e-12
1.13801e-12
9.09473e-13
8.94323e-13
1.34082e-12
2.64666e-12
4.11592e-12
2.47573e-10
3.5896e-10
3.78881e-10
3.52364e-10
3.01718e-10
2.54616e-10
1.85002e-10
1.30868e-10
8.70031e-11
5.42436e-11
3.0113e-11
1.89484e-11
1.21322e-11
7.83671e-12
4.5791e-12
2.54836e-12
1.41937e-12
1.0161e-12
8.11302e-13
6.67267e-13
6.14628e-13
7.83833e-13
2.71875e-12
2.28041e-10
3.51974e-10
3.78228e-10
3.47278e-10
2.89974e-10
2.30327e-10
1.75265e-10
1.14527e-10
7.94247e-11
5.31239e-11
3.23974e-11
1.90829e-11
1.18482e-11
7.82508e-12
5.1862e-12
3.0216e-12
1.61589e-12
1.01571e-12
7.65345e-13
6.01286e-13
4.73261e-13
4.40295e-13
1.14409e-12
2.01942e-10
3.3049e-10
3.56753e-10
3.19269e-10
2.5691e-10
2.03286e-10
1.36017e-10
9.83769e-11
6.58704e-11
4.18601e-11
2.68165e-11
2.08434e-11
1.21881e-11
8.01593e-12
4.66179e-12
2.73126e-12
1.85538e-12
1.09592e-12
7.42699e-13
5.87858e-13
4.29692e-13
3.1441e-13
3.49952e-13
1.72176e-10
2.89145e-10
3.14093e-10
2.73552e-10
2.19494e-10
1.62698e-10
1.09e-10
8.43825e-11
5.5782e-11
3.35853e-11
2.1134e-11
1.38005e-11
9.67609e-12
6.93893e-12
4.3499e-12
2.69855e-12
1.911e-12
1.13704e-12
7.37802e-13
5.59037e-13
4.07129e-13
2.89396e-13
2.10456e-13
1.44542e-10
2.41638e-10
2.68656e-10
2.3164e-10
1.80742e-10
1.34943e-10
9.17062e-11
6.46869e-11
4.36953e-11
2.32707e-11
1.46388e-11
9.94837e-12
7.02637e-12
5.0577e-12
3.46619e-12
2.44415e-12
1.68863e-12
1.10908e-12
7.21582e-13
5.20692e-13
3.76804e-13
2.56661e-13
1.90637e-13
1.16377e-10
1.97474e-10
2.21917e-10
1.87376e-10
1.46223e-10
1.07753e-10
7.275e-11
4.96466e-11
3.34869e-11
1.59924e-11
9.55183e-12
6.57355e-12
4.94731e-12
3.52284e-12
2.59615e-12
1.86197e-12
1.30748e-12
9.34711e-13
6.49228e-13
4.56587e-13
3.22148e-13
2.29374e-13
1.64049e-13
9.45419e-11
1.56458e-10
1.71081e-10
1.45691e-10
1.1214e-10
8.14338e-11
5.51733e-11
3.70198e-11
2.41999e-11
1.18084e-11
6.62358e-12
4.51567e-12
3.36718e-12
2.48168e-12
1.80157e-12
1.29618e-12
9.4271e-13
7.01003e-13
5.05479e-13
3.61221e-13
2.56521e-13
1.75848e-13
1.31883e-13
7.12068e-11
1.14988e-10
1.27704e-10
1.06815e-10
8.15368e-11
5.84883e-11
3.96861e-11
2.64243e-11
1.68885e-11
9.3512e-12
4.82718e-12
3.38284e-12
2.33187e-12
1.65087e-12
1.18154e-12
8.4751e-13
6.23231e-13
4.76253e-13
3.50576e-13
2.55553e-13
1.81333e-13
1.29388e-13
9.40008e-14
5.30521e-11
8.285e-11
8.97855e-11
7.42839e-11
5.61947e-11
3.98799e-11
2.75028e-11
1.83197e-11
1.16915e-11
6.78442e-12
3.95693e-12
2.49691e-12
1.60685e-12
1.07647e-12
7.3828e-13
5.16107e-13
3.78532e-13
2.905e-13
2.17579e-13
1.61335e-13
1.15774e-13
7.90016e-14
5.96656e-14
3.75246e-11
5.6106e-11
5.88144e-11
4.84995e-11
3.6381e-11
2.58323e-11
1.78619e-11
1.2096e-11
7.82838e-12
4.81426e-12
2.93399e-12
1.79654e-12
1.11021e-12
6.97779e-13
4.45787e-13
3.00532e-13
2.15411e-13
1.61184e-13
1.18963e-13
8.86578e-14
6.25581e-14
4.43826e-14
3.28933e-14
2.59121e-11
3.78138e-11
3.78871e-11
3.03602e-11
2.25379e-11
1.60473e-11
1.11455e-11
7.55798e-12
4.97732e-12
3.18482e-12
2.00824e-12
1.24068e-12
7.48743e-13
4.48076e-13
2.6449e-13
1.67261e-13
1.12526e-13
7.89658e-14
5.71984e-14
4.16158e-14
3.0066e-14
2.08057e-14
1.53128e-14
1.69709e-11
2.38932e-11
2.27859e-11
1.81156e-11
1.33828e-11
9.53922e-12
6.63605e-12
4.51548e-12
3.00919e-12
1.98452e-12
1.29017e-12
8.04756e-13
4.88168e-13
2.87086e-13
1.62478e-13
9.42044e-14
5.66425e-14
3.74587e-14
2.48883e-14
1.76043e-14
1.25569e-14
8.56122e-15
6.25635e-15
1.09299e-11
1.48276e-11
1.34597e-11
1.03267e-11
7.49646e-12
5.29206e-12
3.65091e-12
2.47178e-12
1.66982e-12
1.12416e-12
7.4306e-13
4.69833e-13
2.85993e-13
1.67655e-13
9.37937e-14
5.1319e-14
2.88403e-14
1.72794e-14
1.04377e-14
6.78967e-15
4.75093e-15
2.97688e-15
2.19212e-15
6.75752e-12
8.88677e-12
7.5302e-12
5.61796e-12
3.98275e-12
2.74555e-12
1.85536e-12
1.2308e-12
8.23042e-13
5.53649e-13
3.67923e-13
2.35029e-13
1.45447e-13
8.64567e-14
4.89341e-14
2.60924e-14
1.40975e-14
7.69775e-15
4.20291e-15
2.47299e-15
1.54618e-15
9.37107e-16
6.49172e-16
4.3873e-12
5.11566e-12
4.10661e-12
2.93019e-12
1.99462e-12
1.32079e-12
8.61452e-13
5.56965e-13
3.65224e-13
2.42951e-13
1.60963e-13
1.0227e-13
6.40758e-14
3.73311e-14
2.1757e-14
1.18493e-14
6.16558e-15
3.17821e-15
1.58515e-15
8.31032e-16
4.85587e-16
2.61701e-16
1.78109e-16
2.53681e-12
2.83863e-12
2.14635e-12
1.44538e-12
9.2919e-13
5.84727e-13
3.65614e-13
2.28177e-13
1.44444e-13
9.3756e-14
6.06096e-14
3.84676e-14
2.30343e-14
1.41198e-14
8.22438e-15
4.47803e-15
2.30576e-15
1.154e-15
5.4507e-16
2.67751e-16
1.32893e-16
7.17315e-17
4.38232e-17
1.50091e-12
1.51952e-12
1.0639e-12
6.69285e-13
4.02478e-13
2.38766e-13
1.38403e-13
8.23736e-14
5.0166e-14
3.17076e-14
1.97019e-14
1.20096e-14
7.56552e-15
4.55463e-15
2.60663e-15
1.43616e-15
7.35154e-16
3.60074e-16
1.62615e-16
7.36739e-17
3.60078e-17
1.68547e-17
9.74234e-18
7.82458e-13
7.34563e-13
4.80274e-13
2.79452e-13
1.55369e-13
8.65024e-14
4.82688e-14
2.73318e-14
1.59995e-14
8.90459e-15
5.52091e-15
3.50208e-15
2.14659e-15
1.28083e-15
7.26484e-16
3.95613e-16
1.88163e-16
9.17078e-17
4.00467e-17
1.71187e-17
7.33847e-18
3.51268e-18
1.84701e-18
4.07286e-13
3.36322e-13
1.95509e-13
1.07652e-13
5.65939e-14
2.7894e-14
1.42076e-14
7.41845e-15
4.0262e-15
2.45902e-15
1.48943e-15
9.12311e-16
5.40967e-16
3.15711e-16
1.7074e-16
8.8417e-17
4.29088e-17
2.00515e-17
8.35519e-18
3.43764e-18
1.4398e-18
6.27834e-19
2.98482e-19
1.52063e-13
1.05277e-13
5.95477e-14
2.97559e-14
1.45553e-14
7.15845e-15
3.61772e-15
1.88087e-15
1.03211e-15
5.9434e-16
3.52087e-16
2.07001e-16
1.18944e-16
6.63076e-17
3.56698e-17
1.8107e-17
8.57122e-18
3.74199e-18
1.52742e-18
5.64322e-19
2.18789e-19
9.24976e-20
4.09865e-20
6.39548e-14
3.81919e-14
2.0084e-14
9.61073e-15
4.44819e-15
2.04734e-15
9.71279e-16
4.83949e-16
2.55498e-16
1.3756e-16
7.67723e-17
4.32293e-17
2.39529e-17
1.29771e-17
6.82891e-18
3.37056e-18
1.52574e-18
6.28467e-19
2.39696e-19
8.31291e-20
2.99999e-20
1.15157e-20
4.66772e-21
1.72394e-14
1.08181e-14
5.67422e-15
2.65519e-15
1.18797e-15
5.23254e-16
2.39976e-16
1.10595e-16
5.53109e-17
2.87916e-17
1.53516e-17
8.31562e-18
4.53566e-18
2.40658e-18
1.21426e-18
5.63463e-19
2.38352e-19
9.13584e-20
3.22681e-20
1.06445e-20
3.54e-21
1.23084e-21
4.45709e-22
4.48819e-15
2.55303e-15
1.273e-15
5.98291e-16
2.68609e-16
1.18246e-16
5.04402e-17
2.41996e-17
1.16113e-17
5.87112e-18
3.03601e-18
1.5798e-18
8.13064e-19
4.05368e-19
1.9034e-19
8.27587e-20
3.24194e-20
1.13818e-20
3.66463e-21
1.11292e-21
3.39028e-22
1.07076e-22
3.57094e-23
6.48317e-16
3.7181e-16
2.11764e-16
1.07033e-16
5.1378e-17
2.34824e-17
1.0442e-17
4.79688e-18
2.24471e-18
1.12725e-18
5.63841e-19
2.79816e-19
1.35793e-19
6.32915e-20
2.75846e-20
1.09562e-20
3.88354e-21
1.2315e-21
3.58625e-22
9.83479e-23
2.72352e-23
7.65631e-24
2.56779e-24
5.15751e-17
3.48106e-17
2.22763e-17
1.53075e-17
8.33419e-18
4.08301e-18
1.80646e-18
8.57375e-19
4.22002e-19
2.11054e-19
1.04675e-19
4.95769e-20
2.20204e-20
9.32427e-21
3.6498e-21
1.29856e-21
4.06327e-22
1.13352e-22
2.92365e-23
7.10434e-24
1.69779e-24
4.473e-25
3.72385e-26
7.43095e-19
1.17305e-18
1.67193e-18
1.61933e-18
1.11179e-18
6.23603e-19
3.10935e-19
1.54186e-19
7.82127e-20
3.98749e-20
1.95316e-20
8.63698e-21
3.4151e-21
1.28213e-21
4.39792e-22
1.34971e-22
3.56107e-23
8.49167e-24
1.89543e-24
4.00273e-25
9.30912e-26
5.94952e-27
1.9039e-28
8.465e-27
6.88292e-21
6.78304e-20
1.67174e-19
1.4454e-19
9.13166e-20
4.98314e-20
2.64262e-20
1.41544e-20
7.4322e-21
3.63246e-21
1.53318e-21
5.44973e-22
1.81124e-22
5.08583e-23
1.22885e-23
2.56566e-24
4.96858e-25
9.38847e-26
1.6985e-26
2.64014e-27
5.30198e-29
3.59104e-29
0.0118602
0.0249629
0.0365781
0.035914
4.44404e-05
2.80877e-07
-2.32713e-11
2.22246e-15
1.6907e-07
2.90185e-06
1.28923e-06
1.6485e-05
2.37639e-07
1.26984e-05
6.96741e-06
0.000242542
5.78225e-07
2.66991e-06
0.000119028
0.000229811
8.7121e-06
6.28879e-06
9.31433e-06
4.54517e-06
1.28452e-06
8.01049e-07
4.78256e-07
1.64888e-07
1.09284e-07
5.27552e-08
2.4054e-08
1.04835e-08
9.36233e-10
2.61079e-09
4.40994e-09
5.82018e-09
2.78375e-09
3.10272e-09
3.65661e-09
5.74149e-09
2.09124e-09
2.06902e-09
3.20824e-09
6.03944e-09
5.36693e-10
4.73868e-10
8.44219e-10
1.80697e-09
8.77844e-11
7.79669e-11
1.44454e-10
3.11158e-10
1.29237e-11
1.28343e-11
2.11924e-11
3.97963e-11
6.18624e-12
9.65478e-12
1.71879e-11
2.66869e-11
6.7161e-12
1.15348e-11
1.87894e-11
2.77861e-11
4.38085e-12
9.26223e-12
1.50286e-11
2.31182e-11
8.92762e-13
2.74369e-12
6.86817e-12
1.34983e-11
1.98223e-13
3.38475e-13
1.01625e-12
3.46908e-12
1.4205e-13
1.26284e-13
1.30715e-13
2.37457e-13
1.27209e-13
1.09537e-13
9.6903e-14
8.05234e-14
1.01403e-13
8.75563e-14
7.86112e-14
7.53e-14
7.42025e-14
6.22365e-14
5.4992e-14
4.95667e-14
4.81701e-14
4.00708e-14
3.43945e-14
3.03173e-14
2.72489e-14
2.21275e-14
1.93264e-14
1.675e-14
1.30777e-14
1.03781e-14
9.05312e-15
8.12338e-15
5.24401e-15
4.30825e-15
3.77721e-15
3.20718e-15
1.85665e-15
1.40686e-15
1.20497e-15
1.10358e-15
5.62021e-16
4.46617e-16
3.81174e-16
3.17261e-16
1.46443e-16
1.14658e-16
9.47967e-17
8.13497e-17
3.41586e-17
2.74252e-17
2.25981e-17
1.86192e-17
7.10599e-18
5.4492e-18
4.346e-18
3.51548e-18
1.32165e-18
9.95122e-19
7.55231e-19
5.70204e-19
2.00341e-19
1.43868e-19
1.07473e-19
7.83189e-20
2.66241e-20
1.82419e-20
1.29026e-20
8.60284e-21
2.89052e-21
1.86387e-21
1.26309e-21
7.60982e-22
2.54883e-22
1.54644e-22
1.09591e-22
5.23458e-23
2.04887e-23
8.74753e-24
3.30564e-24
8.20103e-25
3.72924e-25
1.11157e-25
4.0539e-26
9.07587e-27
9.00506e-28
8.6546e-28
1.16404e-27
3.53392e-27
1.75372e-28
3.87584e-28
1.35709e-27
4.3462e-27
8.95539e-29
3.05688e-28
1.05114e-27
3.20495e-27
0.00953342
0.00416164
0.0119803
0.00992423
0.00551069
0.0246916
0.03544
0.0045762
2.7552e-05
2.96121e-05
7.64809e-05
0.000117506
9.53462e-06
1.74865e-05
5.23534e-06
5.05019e-06
0.000988731
0.00195518
1.1255e-06
3.24137e-08
0.000363684
0.0105614
0.00449521
0.0046816
0.0223819
0.0168584
0.000236313
2.71235e-05
2.71354e-05
3.07751e-05
6.6412e-05
6.63428e-05
4.67137e-05
7.7176e-06
0.0001479
0.00270665
0.00293194
1.65489e-08
0.000120175
0.00125324
0.00178876
0.000801645
0.00484761
0.00867736
0.0024695
0.000124234
0.000120878
3.28923e-05
4.10263e-07
4.68823e-06
1.28484e-05
2.84348e-06
3.75256e-06
0.000428033
0.00457985
0.00513105
0.0048211
0.000515457
0.000293621
5.08363e-06
0.00036441
0.000944364
1.15845e-06
1.29067e-06
0.000128497
0.000128198
3.39759e-05
3.92745e-07
3.74783e-07
3.10708e-07
5.35943e-06
3.0215e-05
7.46469e-05
0.00168547
0.00391702
0.00268372
0.000265396
4.58661e-05
4.47633e-06
2.79099e-06
6.91792e-07
6.92383e-07
3.11632e-06
3.01621e-05
3.7793e-05
8.25501e-06
1.80723e-06
4.66388e-07
8.61332e-08
2.48282e-07
1.13798e-05
2.40003e-05
1.51513e-05
3.39693e-05
6.66127e-06
2.8576e-08
1.75005e-08
3.26187e-07
2.45748e-07
8.34336e-07
8.38947e-07
4.93503e-07
-1.55624e-13
7.51258e-11
3.42254e-08
3.90288e-07
1.79915e-07
9.69204e-08
1.49348e-07
4.88845e-08
4.84645e-08
8.30648e-08
1.2904e-06
6.45851e-06
6.11994e-09
1.86092e-08
1.83374e-07
2.50271e-07
5.03492e-07
5.00871e-07
1.4846e-07
1.35361e-08
1.45388e-08
5.80342e-09
5.17112e-09
1.50859e-08
1.70174e-06
2.69815e-06
2.09644e-06
1.96328e-06
9.68304e-05
0.000176661
1.20679e-05
1.03348e-08
7.45482e-08
1.49124e-07
2.07897e-07
1.85842e-07
1.77337e-07
7.21604e-08
4.09007e-08
2.79169e-08
2.40752e-08
5.30736e-09
1.23745e-08
3.55259e-07
3.72868e-07
0.000238032
0.00129103
0.00224856
0.0023778
0.00114309
1.30731e-08
3.19621e-08
4.11504e-08
3.80369e-08
3.51377e-08
1.29209e-07
2.65969e-07
1.35645e-07
4.28281e-07
2.12562e-06
1.23022e-06
2.61966e-06
3.59267e-06
2.3853e-05
0.00138655
0.00272937
0.00272958
0.00272936
0.00227388
8.91833e-09
1.07558e-08
1.63104e-08
1.8717e-08
2.54806e-08
1.67031e-07
5.68601e-07
1.59179e-06
1.99088e-06
3.74745e-06
2.51538e-05
5.21066e-05
5.74522e-05
0.000146952
0.00082172
0.00117478
0.00132061
0.00122163
0.000959967
8.78201e-09
1.06867e-08
9.88776e-09
4.57842e-09
1.39542e-08
4.23071e-08
2.48093e-10
1.16259e-06
6.05678e-06
9.06039e-06
2.18673e-05
3.28813e-05
4.74776e-05
7.45209e-05
3.47716e-10
6.79828e-10
3.49085e-10
3.42574e-08
3.44045e-06
2.46241e-09
3.21258e-09
1.82206e-09
2.32234e-10
2.34831e-10
2.32251e-10
2.3012e-10
1.64212e-07
2.20581e-06
3.99625e-06
5.35713e-06
4.35682e-06
3.2012e-06
1.43302e-09
3.13491e-09
1.41345e-08
3.19052e-09
4.36661e-10
9.64356e-10
4.32193e-10
4.80276e-10
2.58133e-10
2.58632e-10
7.22904e-10
1.70434e-09
3.0099e-09
5.24172e-09
1.20462e-07
3.9216e-07
1.15614e-09
1.40586e-09
1.16408e-07
1.71353e-09
1.49254e-09
3.04637e-09
4.39195e-09
2.68249e-09
4.14942e-08
6.07071e-11
1.05612e-10
2.21605e-10
4.95644e-10
1.104e-09
2.4675e-09
6.66516e-09
9.3742e-09
9.88451e-09
2.80926e-08
1.34781e-08
2.17394e-09
1.51285e-09
1.68684e-09
3.1521e-09
7.67211e-09
8.73796e-09
4.87337e-09
3.10039e-09
4.23669e-11
1.05588e-10
2.38429e-10
4.67392e-10
8.28836e-10
1.32997e-09
2.44701e-09
4.388e-09
3.73291e-09
3.86231e-09
5.22961e-09
2.30178e-09
1.57263e-09
2.24117e-09
4.19344e-09
7.27676e-09
7.50028e-09
3.03933e-09
7.53167e-10
4.01307e-11
8.53958e-11
1.61596e-10
2.80295e-10
4.5173e-10
8.34872e-10
1.47638e-09
3.25417e-09
3.58e-09
3.17822e-09
2.36662e-09
1.42586e-09
1.27499e-09
1.65982e-09
2.84118e-09
4.24961e-09
3.55999e-09
1.32491e-09
7.45947e-10
3.39097e-11
6.78533e-11
1.23371e-10
2.09148e-10
3.24493e-10
4.76603e-10
6.96353e-10
1.67475e-09
2.43443e-09
2.49928e-09
1.79329e-09
1.04534e-09
8.75343e-10
8.90985e-10
1.27636e-09
1.48017e-09
1.16254e-09
4.49931e-10
3.62039e-10
2.33427e-11
4.49473e-11
7.96343e-11
1.3526e-10
2.24723e-10
3.4966e-10
4.8315e-10
6.46398e-10
9.93607e-10
1.14172e-09
1.05544e-09
6.60501e-10
4.80798e-10
4.00342e-10
3.83205e-10
3.91591e-10
2.72505e-10
9.40313e-11
6.1811e-11
1.07354e-11
2.17123e-11
3.66502e-11
6.16109e-11
1.16687e-10
2.06258e-10
2.71089e-10
3.27777e-10
3.875e-10
4.33164e-10
4.31737e-10
3.12986e-10
2.09803e-10
1.5431e-10
9.72368e-11
6.71167e-11
3.50393e-11
9.15428e-12
1.70711e-12
2.64763e-12
9.35376e-12
1.89156e-11
3.27846e-11
5.27423e-11
7.84699e-11
1.07147e-10
1.35635e-10
1.60706e-10
1.75265e-10
1.65941e-10
1.32103e-10
8.5512e-11
5.03351e-11
1.80355e-11
7.9855e-12
2.51653e-12
2.08738e-13
2.14862e-14
3.50726e-13
1.6912e-12
5.52954e-12
1.07014e-11
1.78447e-11
2.66563e-11
3.65382e-11
4.70315e-11
5.80668e-11
6.64741e-11
6.71485e-11
5.22423e-11
3.04541e-11
1.24264e-11
3.07336e-12
6.71357e-13
3.4397e-14
4.67889e-15
5.05672e-16
8.89651e-14
2.46451e-13
8.10423e-13
2.21933e-12
4.46362e-12
6.94804e-12
9.77472e-12
1.28371e-11
1.6332e-11
1.99968e-11
2.15791e-11
1.72661e-11
9.3812e-12
3.20504e-12
6.11918e-13
7.65348e-14
4.23853e-15
5.9082e-16
4.7999e-17
4.70615e-14
6.2307e-14
1.32306e-13
3.1713e-13
7.34691e-13
1.42483e-12
2.10493e-12
2.80542e-12
3.73111e-12
4.83146e-12
5.48287e-12
4.74651e-12
2.44811e-12
7.5389e-13
1.15826e-13
1.21985e-14
6.46159e-16
8.82244e-17
2.30497e-17
2.65438e-14
2.4818e-14
3.10003e-14
4.80438e-14
8.48958e-14
1.66198e-13
3.07493e-13
4.44905e-13
6.34329e-13
8.82124e-13
1.05771e-12
1.01993e-12
5.46497e-13
1.59272e-13
2.05808e-14
1.25073e-15
1.03436e-16
3.75587e-17
1.55565e-17
1.3421e-14
1.13739e-14
1.03473e-14
1.01918e-14
1.21976e-14
1.87149e-14
3.47415e-14
5.33978e-14
8.32903e-14
1.25794e-13
1.63542e-13
1.7018e-13
1.01538e-13
3.08099e-14
3.87725e-15
1.54791e-16
3.06275e-17
2.46554e-17
1.11995e-17
6.14988e-15
4.72849e-15
3.76783e-15
3.12912e-15
2.71828e-15
2.65983e-15
3.25295e-15
4.59341e-15
7.72973e-15
1.32382e-14
1.88383e-14
2.10389e-14
1.45256e-14
4.83943e-15
5.84405e-16
2.8145e-17
1.40484e-17
1.59346e-17
7.7399e-18
2.3621e-15
1.78314e-15
1.33468e-15
9.99176e-16
7.41962e-16
5.61958e-16
4.27781e-16
3.93494e-16
6.34599e-16
1.17647e-15
1.84752e-15
2.21965e-15
1.7811e-15
6.9918e-16
7.3454e-17
6.65849e-18
7.63064e-18
1.0906e-17
5.31302e-18
7.9885e-16
5.62484e-16
4.07784e-16
2.88583e-16
2.08042e-16
1.51834e-16
8.25352e-17
4.51785e-17
5.42651e-17
9.4693e-17
1.56994e-16
2.02583e-16
1.70255e-16
5.61767e-17
7.24099e-18
2.98417e-18
4.08342e-18
7.75864e-18
3.50812e-18
2.21955e-16
1.53371e-16
1.02889e-16
6.82372e-17
4.91849e-17
2.88173e-17
1.3563e-17
7.86758e-18
6.53328e-18
8.07673e-18
1.25474e-17
1.47676e-17
3.87774e-18
7.50078e-19
7.90756e-19
1.30589e-18
2.31932e-18
5.19956e-18
2.27411e-18
5.56578e-17
3.64129e-17
2.25237e-17
1.4637e-17
9.62289e-18
3.74225e-18
1.2043e-18
8.42139e-19
8.26707e-19
8.44751e-19
9.27719e-19
2.64356e-19
1.11937e-19
1.57412e-19
3.26822e-19
7.30866e-19
1.63625e-18
3.58438e-18
1.39639e-18
1.18306e-17
7.12926e-18
4.14396e-18
2.73146e-18
1.13282e-18
2.45488e-19
5.41493e-20
5.83735e-20
7.50586e-20
8.38349e-20
3.75046e-20
3.52056e-20
6.22399e-20
1.25322e-19
2.54562e-19
5.60993e-19
1.32841e-18
2.28673e-18
8.5808e-19
2.12281e-18
1.21674e-18
7.70656e-19
3.20044e-19
7.55182e-20
7.16231e-21
2.10061e-21
3.79326e-21
7.44832e-21
7.5539e-21
1.35571e-20
2.87403e-20
6.06111e-20
1.20981e-19
2.2939e-19
4.86745e-19
1.03662e-18
1.56173e-18
4.69176e-19
3.15267e-19
1.78098e-19
9.27515e-20
2.14272e-20
1.8045e-21
2.53551e-22
3.92466e-22
9.88539e-22
2.26787e-21
5.5032e-21
1.32265e-20
2.93974e-20
6.10733e-20
1.18827e-19
2.12052e-19
4.24523e-19
8.29598e-19
9.23738e-19
2.83141e-19
4.01581e-20
2.23558e-20
6.27404e-21
6.10708e-22
7.24271e-23
1.16407e-22
3.0432e-22
8.34278e-22
2.19728e-21
5.54403e-21
1.34042e-20
3.00346e-20
6.14058e-20
1.12523e-19
1.97809e-19
3.82761e-19
6.17172e-19
6.15176e-19
1.36276e-19
4.65348e-21
1.27558e-21
1.57905e-22
2.01502e-23
3.3921e-23
9.6788e-23
2.90045e-22
8.19045e-22
2.17415e-21
5.47145e-21
1.31235e-20
2.89973e-20
5.78609e-20
1.05284e-19
1.8671e-19
3.19527e-19
4.61301e-19
3.23453e-19
7.87352e-20
3.37798e-22
4.6818e-23
4.79414e-24
8.79206e-24
2.83216e-23
9.26965e-23
2.77885e-22
7.86664e-22
2.1038e-21
5.29428e-21
1.26359e-20
2.7843e-20
5.50542e-20
9.88012e-20
1.6494e-19
2.46014e-19
3.0866e-19
2.1181e-19
3.42004e-20
7.49521e-24
7.14083e-25
1.89573e-24
7.45371e-24
2.60674e-23
8.50649e-23
2.55444e-22
7.20168e-22
1.90505e-21
4.80723e-21
1.13986e-20
2.47844e-20
4.83682e-20
8.56105e-20
1.35376e-19
1.84231e-19
1.94076e-19
9.34355e-20
1.95176e-20
1.19945e-25
3.70019e-25
1.66665e-24
6.55425e-24
2.28309e-23
7.23306e-23
2.16897e-22
6.04281e-22
1.59689e-21
3.99535e-21
9.42605e-21
2.03354e-20
3.92309e-20
6.74736e-20
1.01171e-19
1.24621e-19
1.01024e-19
5.13641e-20
8.45747e-21
5.58554e-26
3.20352e-25
1.39169e-24
5.21393e-24
1.7619e-23
5.5082e-23
1.62583e-22
4.51034e-22
1.19241e-21
2.98743e-21
7.05713e-21
1.49846e-20
2.84181e-20
4.84267e-20
6.49521e-20
7.48056e-20
5.14185e-20
1.81973e-20
4.60967e-21
5.05831e-26
2.49073e-25
9.80338e-25
3.37694e-24
1.09684e-23
3.33871e-23
9.89455e-23
2.82301e-22
7.54582e-22
1.91976e-21
4.50858e-21
9.77215e-21
1.894e-20
3.0262e-20
3.71466e-20
3.81727e-20
1.9725e-20
8.10546e-21
2.29248e-21
3.42283e-26
1.4285e-25
5.04675e-25
1.62599e-24
5.21167e-24
1.63529e-23
4.95015e-23
1.44145e-22
3.99192e-22
1.05539e-21
2.56184e-21
5.5522e-21
1.04017e-20
1.66336e-20
1.89632e-20
1.60231e-20
6.5336e-21
2.83825e-21
7.12486e-22
1.25605e-26
4.33769e-26
1.34727e-25
4.11752e-25
1.51606e-24
5.19196e-24
1.74707e-23
5.47336e-23
1.62167e-22
4.4897e-22
1.13215e-21
2.54207e-21
4.70674e-21
7.06557e-21
7.04419e-21
4.46016e-21
1.6608e-21
4.71305e-22
2.96851e-23
)
;

boundaryField
{
    leftWall
    {
        type            alphaContactAngle;
        contactAngleProperties 
        {
            air             
            {
                theta0          90;
            }
            water           
            {
                theta0          90;
            }
            oil             
            {
                theta0          90;
            }
        }
        value           nonuniform List<scalar> 
50
(
1
1
1
1
1
1
0.801366
0.0772739
4.87734e-07
3.32986e-08
1.31051e-09
4.06484e-10
4.49545e-10
4.63887e-10
4.64368e-10
4.63078e-10
4.28544e-10
3.22724e-10
2.64234e-10
2.50469e-10
2.54123e-10
2.61028e-10
2.58365e-10
2.47573e-10
2.28041e-10
2.01942e-10
1.72176e-10
1.44542e-10
1.16377e-10
9.45419e-11
7.12068e-11
5.30521e-11
3.75246e-11
2.59121e-11
1.69709e-11
1.09299e-11
6.75752e-12
4.3873e-12
2.53681e-12
1.50091e-12
7.82458e-13
4.07286e-13
1.52063e-13
6.39548e-14
1.72394e-14
4.48819e-15
6.48317e-16
5.15751e-17
7.43095e-19
8.465e-27
)
;
    }
    rightWall
    {
        type            alphaContactAngle;
        contactAngleProperties 
        {
            air             
            {
                theta0          90;
            }
            water           
            {
                theta0          90;
            }
            oil             
            {
                theta0          90;
            }
        }
        value           nonuniform List<scalar> 
50
(
0.752722
0.752779
0.501
0.226614
3.96378e-05
2.87272e-06
2.92289e-06
1.69574e-05
1.1255e-06
1.65489e-08
0.0048211
0.00268372
6.66127e-06
6.45851e-06
1.20679e-05
0.00114309
0.00227388
0.000959967
3.44045e-06
9.64356e-10
4.14942e-08
3.10039e-09
7.53167e-10
7.45947e-10
3.62039e-10
6.1811e-11
1.70711e-12
2.14862e-14
5.05672e-16
4.7999e-17
2.30497e-17
1.55565e-17
1.11995e-17
7.7399e-18
5.31302e-18
3.50812e-18
2.27411e-18
1.39639e-18
8.5808e-19
4.69176e-19
2.83141e-19
1.36276e-19
7.87352e-20
3.42004e-20
1.95176e-20
8.45747e-21
4.60967e-21
2.29248e-21
7.12486e-22
2.96851e-23
)
;
    }
    lowerWall
    {
        type            alphaContactAngle;
        contactAngleProperties 
        {
            air             
            {
                theta0          90;
            }
            water           
            {
                theta0          90;
            }
            oil             
            {
                theta0          90;
            }
        }
        value           nonuniform List<scalar> 
62
(
1
1
1
1
1
1
1
1
1
1
1
1
1
1
1
1
1
1
0.999989
0.999658
0.999455
0.999455
0.999506
0.999506
1
1
1
0.999987
0.892825
0.147351
-4.21838e-08
0.0118602
0.0249629
0.0365781
0.035914
0.877999
0.865639
0.563766
0.309827
0.0482464
0.0505851
0.0431224
0.0164838
0.877999
0.87804
0.878038
0.878015
0.800079
0.65696
0.656858
0.667694
0.692999
0.699548
0.650784
0.64999
0.701834
0.752761
0.752763
0.752805
0.752716
0.752779
0.752722
)
;
    }
    atmosphere
    {
        type            inletOutlet;
        inletValue      uniform 0;
        value           nonuniform List<scalar> 
46
(
0
0
6.78304e-20
1.67174e-19
1.4454e-19
9.13166e-20
4.98314e-20
2.64262e-20
1.41544e-20
7.4322e-21
3.63246e-21
1.53318e-21
5.44973e-22
1.81124e-22
5.08583e-23
1.22885e-23
2.56566e-24
4.96858e-25
9.38847e-26
1.6985e-26
0
0
0
8.9554e-29
3.05689e-28
1.05114e-27
3.20495e-27
0
0
0
0
0
5.19196e-24
1.74707e-23
5.47336e-23
1.62167e-22
4.4897e-22
1.13215e-21
0
0
0
0
0
0
0
0
)
;
    }
    defaultFaces
    {
        type            empty;
    }
}


// ************************************************************************* //
