/*--------------------------------*- C++ -*----------------------------------*\
  =========                 |
  \\      /  F ield         | OpenFOAM: The Open Source CFD Toolbox
   \\    /   O peration     | Website:  https://openfoam.org
    \\  /    A nd           | Version:  13
     \\/     M anipulation  |
\*---------------------------------------------------------------------------*/
FoamFile
{
    format      ascii;
    class       volScalarField;
    location    "2.95";
    object      alphas;
}
// * * * * * * * * * * * * * * * * * * * * * * * * * * * * * * * * * * * * * //

dimensions      [];

internalField   nonuniform List<scalar> 
2268
(
2
2
2
2
2
2
2
2
2
2
2
2
2
2
2
2
2
2
1.99999
1.99966
1.99945
1.99946
1.99951
2
2
2
2
2
2
2
2
2
2
2
2
2
2
2
2
2
2
2
1.99999
1.99997
1.99997
2
2
2
2
2
2
2
2
2
2
2
2
2
2
2
2
2
2
2
2
2
2
2
2
2
2
2
2
2
2
2
2
2
2
2
2
2
2
2
2
2
2
2
2
2
2
2
2
2
2
2
2
2
2
2
2
2
2
2
2
2
2
2
2
2
2
2
2
2
1.99999
2
2
2
2
2
2
2
2
2
1.99816
1.98552
1.97486
1.96524
1.95259
1.93683
1.91849
1.89834
1.87793
1.85945
1.84504
1.83354
1.81611
1.78707
1.60273
1.46638
1.37345
1.30678
1.23938
1.17021
1.10172
1.03504
0.970014
0.909432
0.854796
0.795209
0.73001
0.664654
0.60111
0.541797
0.488377
0.44333
0.408852
0.385206
0.368706
0.346689
0.304388
0.154548
0.0859038
0.0562735
0.0407996
0.0290345
0.0197458
0.0126856
0.0075813
0.00364317
2.27314e-07
1.67783e-08
2.19179e-08
2.46896e-08
3.59834e-08
8.10925e-08
1.87133e-07
4.21979e-07
1.13702e-06
8.10616e-06
7.61897e-05
0.000498433
0.00346072
0.00926717
1.8715
1.86258
1.90117
1.92561
1.90154
1.76889
1.76887
1.76233
1.78303
1.78959
1.76892
1.71269
1.7087
1.75131
1.72513
1.65876
1.73764
1.77705
1.76794
1.85915
1.87026
1.87377
1.82355
1.81216
1.84577
1.84222
1.82395
1.95913
2.06422
1.88785
1.77231
1.86944
1.97811
1.93624
1.87216
1.77739
1.77644
1.76801
1.56406
1.61045
1.61315
1.54169
1.26051
1.13813
1.08603
0.998113
1.27981
2.19684
2.34868
2.09405
2.1373
2.27537
2.27237
1.97714
1.6872
1.60066
1.60658
1.10997
1.13419
1.09347
0.892052
0.752502
0.556151
0.352141
0.245785
0.326919
1.04692
2.09447
2.37712
2.39981
2.35016
2.26715
1.97181
1.49562
1.30446
1.66986
0.436783
0.22698
0.296416
0.305586
0.434865
0.719686
0.765825
0.826245
0.623141
0.126671
0.414172
1.63846
2.20989
2.10761
0.721401
0.291911
0.26631
0.0796608
0.829472
0.148905
0.165152
0.169691
0.184765
0.576023
0.862446
1.00085
1.04912
0.860695
0.140932
0.00155204
0.25688
1.6375
0.979574
0.0177355
0.000181434
0.000177115
0.000187119
0.627662
0.148114
0.200056
0.203349
0.150485
0.568762
1.03236
1.07198
0.823537
0.242783
0.0294925
0.00104259
0.00125539
1.37141
0.675991
0.000208756
0.000208721
0.000184501
0.000355997
0.449081
0.142918
0.227797
0.231828
0.139682
0.301548
1.07072
1.26193
0.471411
0.0073234
0.00116988
0.00105117
0.0355544
1.42818
0.732656
0.0193775
0.000196716
0.00069176
0.0134021
0.477722
1.02354e-06
6.96703e-08
1.87692e-05
2.87528e-05
7.93025e-05
3.66953e-06
5.20775e-07
3.6014e-07
2.61964e-07
1.42606e-07
1.07277e-07
1.07617e-07
1.07108e-07
1.24986e-07
1.88699e-07
3.08893e-07
2.10544e-06
3.23531e-06
3.97854e-06
4.274e-06
5.40675e-06
2.87541e-06
0.00842228
1.17157e-07
5.33614e-08
0.00162852
0.00120017
8.72997e-05
8.41789e-08
8.98002e-08
1.02014e-07
6.48242e-08
3.58503e-07
7.52529e-07
1.01705e-06
1.22726e-06
1.40166e-06
1.54479e-06
1.64168e-06
0.0014082
0.00300255
0.0110127
0.0356089
0.0689878
0.0903197
0.131644
0.00114102
0.0112543
0.00613965
0.00132112
0.000173357
3.39829e-06
3.26124e-08
5.16172e-09
0.000194599
0.0018055
0.00482357
0.00992893
0.0270276
0.0683738
0.125918
0.202014
0.284059
0.347809
0.446659
0.584359
0.708334
0.800452
0.8874
0.330249
0.229323
0.152716
0.189608
0.203276
0.173107
0.174275
0.327829
0.38576
0.402982
0.447606
0.518791
0.611989
0.761776
0.891852
0.95556
1.03326
1.15269
1.19591
1.16009
1.13807
1.06976
1.10285
0.797467
0.885942
0.891051
0.918323
0.927858
0.926837
1.18411
1.19921
1.22527
1.26021
1.30191
1.34364
1.2994
1.11807
1.08336
1.15858
1.195
1.06432
1.00012
1
1
1.00004
1.02825
1.13962
1.01838
1.00021
0.999867
1.00761
1.08423
1.09104
1.0365
1.00779
1.01429
1.01339
1.00117
1
1
1
1
1
1
1
1
1.0005
1.00087
1
1.00118
0.999609
0.999873
0.999975
1.00014
1.00263
1
1
1
1
1
1
1
1
1
1
1
1
1
1
1
1
0.999999
1.11114
1.10328
1.10146
1.11406
1.14355
1.18714
1.23655
1.28593
1.33777
1.38962
1.43898
1.4855
1.52809
1.56364
1.58117
1.57539
1.55636
1.53104
1.49194
1.4298
1.35105
1.26754
1.19649
2.595
2.55248
2.53103
2.55105
2.59622
2.64533
2.70197
2.76551
2.82264
2.86492
2.89449
2.91608
2.93157
2.94098
2.9421
2.93374
2.91593
2.88778
2.8493
2.80144
2.74426
2.67836
2.61586
3
3
3
2.99999
3
3
3
3
3
3
3
3
3
3
3
3
3
3
3
3
2.99999
2.99999
3
3
3
3
3
3
3
3
2.99999
3
3
3
3
3
3
3
3
3
3
3
3
3
3
3
3
2.99999
2.99999
3
3
2.99999
2.99987
2.99975
2.9999
2.99999
3
3
3
3
3
3
3
3
3
3
3
3
3
2.99999
2.99997
2.99994
2.99999
3
2.9999
2.99967
2.99966
2.9997
2.99999
3
3
3
3
3
3
3
3
3
3
3
3
3
2.99999
2.99992
2.99989
2.99994
3
2.99988
2.99967
2.99966
2.99966
2.99995
2.99999
2.99999
3
3
3
3
3
3
3
3
3
3
3
2.99999
2.99991
2.99989
2.99993
3
3
2.99986
2.99968
2.99984
2.99999
2.99999
2.99999
2.99999
3
3
3
3
3
3
3
3
3
3
2.99999
2.99995
2.9999
2.99998
3
3
3
3
3
3
2.99999
2.99999
2.99999
3
3
3
3
3
3
3
3
3
3
3
2.99999
2.99999
3
3
3
3
3
3
3
3
3
3
3
3
3
3
3
3
3
3
3
3
3
3
3
3
3
3
3
3
3
3
3
3
3
3
3
3
3
3
3
3
3
3
3
3
3
3
3
3
3
3
3
3
3
3
3
3
3
3
3
3
3
3
3
3
3
3
3
3
3
3
3
3
3
3
3
3
3
3
3
3
3
3
3
3
3
3
3
3
3
3
3
3
3
3
3
3
3
3
3
3
3
3
3
3
3
3
3
3
3
3
3
3
3
3
3
3
3
3
3
3
3
3
3
3
3
3
3
3
3
3
3
3
3
3
3
3
3
3
3
3
3
3
3
3
3
3
3
3
3
3
3
3
3
3
3
3
3
3
3
3
3
3
3
3
3
3
3
3
3
3
3
3
3
3
3
3
3
3
3
3
3
3
3
3
3
3
3
3
3
3
3
3
3
3
3
3
3
3
3
3
3
3
3
3
3
3
3
3
3
3
3
3
3
3
3
3
3
3
3
3
3
3
3
3
3
3
3
3
3
3
3
3
3
3
3
3
3
3
3
3
3
3
3
3
3
3
3
3
3
3
3
3
3
3
3
3
3
3
3
3
3
3
3
3
3
3
3
3
3
3
3
3
3
3
3
3
3
3
3
3
3
3
3
3
3
3
3
3
3
3
3
3
3
3
3
3
3
3
3
3
3
3
3
3
3
3
3
3
3
3
3
3
3
3
3
3
3
3
3
3
3
3
3
3
3
3
3
3
3
3
3
3
3
3
3
3
3
3
3
3
3
3
3
3
3
3
3
3
3
3
3
3
3
3
3
3
3
3
3
3
3
3
3
3
3
3
3
3
3
3
3
3
3
3
3
3
3
3
3
3
3
3
3
3
3
3
3
3
3
3
3
3
3
3
3
3
3
3
3
3
3
3
3
3
3
3
3
3
3
3
3
3
3
3
3
3
3
3
3
3
3
3
3
3
3
3
3
3
3
3
3
3
3
3
3
3
3
3
3
3
3
3
3
3
3
3
3
3
3
3
3
3
3
3
3
3
3
3
3
3
3
3
3
3
3
3
3
3
3
3
3
3
3
3
3
3
3
3
3
3
3
3
3
3
3
3
3
3
3
3
3
3
3
3
3
3
3
3
3
3
3
3
3
3
3
3
3
3
3
3
3
3
3
3
3
3
3
3
3
3
3
3
3
3
3
3
3
3
3
3
3
3
3
3
3
3
3
3
3
3
3
3
3
3
3
3
3
3
3
3
3
3
3
3
3
3
3
3
3
3
3
3
3
3
3
3
3
3
3
3
3
3
3
3
3
3
3
3
3
3
3
3
3
3
3
3
3
3
3
3
3
3
3
3
3
0.0551041
0.0965507
0.12103
0.0947062
0.303497
0.347755
0.215185
0.0815507
0.897029
0.986327
1.05277
0.893031
1.25387
1.2744
1.27432
1.2474
1.05351
1.05114
1.02057
1.00412
0.999996
0.999994
1
0.999989
0.999997
0.999996
0.999993
0.999989
1.16646
1.14783
1.13134
1.11426
2.59419
2.57731
2.5594
2.53838
3
3
3
3
3
3
3
3
3
3
3
3
3
3
3
3
3
3
3
3
3
3
3
3
3
3
3
3
3
3
3
3
3
3
3
3
3
3
3
3
3
3
3
3
3
3
3
3
3
3
3
3
3
3
3
3
3
3
3
3
3
3
3
3
3
3
3
3
3
3
3
3
3
3
3
3
3
3
3
3
3
3
3
3
3
3
3
3
3
3
3
3
3
3
3
3
3
3
3
3
3
3
3
3
3
3
3
3
3
3
3
3
3
3
3
3
3
3
3
3
3
3
3
3
3
3
3
3
3
3
3
3
0.0325642
0.036064
0.0645512
0.0702774
0.135252
0.946649
0.927756
0.219513
0.00175511
0.00173309
0.00131133
0.0772104
1.37679
0.310566
0.000492358
0.000221622
0.049839
0.265737
0.48421
0.0458251
0.0535646
0.17492
0.183335
0.496847
0.820678
0.776358
0.395521
0.0400128
0.0100592
0.00715622
0.0141863
0.178468
0.0467158
0.135489
0.346908
0.548145
0.432217
0.345617
0.720752
0.771298
0.880109
0.720729
0.702163
0.987768
0.871886
0.721636
0.682477
0.696992
0.699214
0.577433
0.460381
0.651392
0.855152
0.902027
0.957116
0.876097
0.736478
1.16761
1.23838
1.23799
1.10586
1.10041
1.30537
1.26018
1.27751
1.07149
0.999565
1.00001
0.999842
0.996629
1.00009
1.0003
1.00188
1.02661
1.04027
1.01172
1.00026
1.00572
1.00038
1.0001
1.00062
1.12054
1.31258
1.19893
1.01122
0.99999
1
1
1
1
1.00025
1.00047
1.00003
1.00001
0.999945
0.999985
0.999989
0.999997
1.00008
1.00009
1.0019
1.01535
1.00517
1
1
1
1
1
1
1.00003
1.0001
1.00006
1
0.999992
0.999992
0.999997
1
0.999998
0.999997
0.999998
1
1
1
1
1
1
0.999991
0.99999
0.999995
0.999984
0.999887
0.999807
0.999713
1.08543
1.05012
1.01705
1
1.00031
1.00027
1.00016
1.00017
1.00022
1.00019
1.00009
1.00003
0.999997
1.00003
1.00245
1.01173
1.02408
1.03648
1.02539
2.50092
2.465
2.41516
2.32794
2.18946
2.04275
1.93081
1.87261
1.84884
1.83638
1.82719
1.82005
1.81489
1.83085
1.97897
2.13916
2.21934
2.25014
2.20167
3
3
3
3
3
2.99997
2.99916
2.99539
2.99271
2.99082
2.99061
2.99224
2.99711
2.99725
2.98854
2.98497
2.98681
2.98933
2.98399
3
3
3
2.99966
2.99909
2.99867
2.999
2.99995
2.99994
2.9999
2.99979
2.99959
2.99928
2.99886
3
3
3
3
3
3
3
3
2.99927
2.99838
2.99838
2.99852
2.99961
2.99997
2.99995
2.99936
2.99885
2.99885
2.99926
2.99997
3
3
3
3
3
3
3
2.99993
2.99998
2.99996
3
2.99996
2.99999
2.99999
2.99975
2.99921
2.99936
2.99976
2.99999
3
3
3
3
3
3
3
3
3
3
3
3
3
2.99999
3
3
3
3
3
3
3
3
3
3
3
3
3
3
3
3
3
3
3
3
3
3
3
3
3
3
3
3
3
3
3
3
3
3
3
3
3
3
3
3
3
3
3
3
3
3
3
3
3
3
3
3
3
3
3
3
3
3
3
3
3
3
3
3
3
3
3
3
3
3
3
3
3
3
3
3
3
3
3
3
3
3
3
3
3
3
3
3
3
3
3
3
3
3
3
3
3
3
3
3
3
3
3
3
3
3
3
3
3
3
3
3
3
3
3
3
3
3
3
3
3
3
3
3
3
3
3
3
3
3
3
3
3
3
3
3
3
3
3
3
3
3
3
3
3
3
3
3
3
3
3
3
3
3
3
3
3
3
3
3
3
3
3
3
3
3
3
3
3
3
3
3
3
3
3
3
3
3
3
3
3
3
3
3
3
3
3
3
3
3
3
3
3
3
3
3
3
3
3
3
3
3
3
3
3
3
3
3
3
3
3
3
3
3
3
3
3
3
3
3
3
3
3
3
3
3
3
3
3
3
3
3
3
3
3
3
3
3
3
3
3
3
3
3
3
3
3
3
3
3
3
3
3
3
3
3
3
3
3
3
3
3
3
3
3
3
3
3
3
3
3
3
3
3
3
3
3
3
3
3
3
3
3
3
3
3
3
3
3
3
3
3
3
3
3
3
3
3
3
3
3
3
3
3
3
3
3
3
3
3
3
3
3
3
3
3
3
3
3
3
3
3
3
3
3
3
3
3
3
3
3
3
3
3
3
3
3
3
3
3
3
3
3
3
3
3
3
3
3
3
3
3
3
3
3
3
3
3
3
3
3
3
3
3
3
3
3
3
3
3
3
3
3
3
3
3
3
3
3
3
3
3
3
3
3
3
3
3
3
3
3
3
3
3
3
3
3
3
3
3
3
3
3
3
3
3
3
3
3
3
3
3
3
3
3
3
3
3
3
3
3
3
3
3
3
3
3
3
3
3
3
3
3
3
3
3
3
3
3
3
3
3
3
3
3
3
3
3
3
3
3
3
3
3
3
3
3
3
3
3
3
3
3
3
3
3
3
3
3
3
3
3
3
3
3
3
3
3
3
3
3
3
3
3
3
3
3
3
3
3
3
3
3
3
3
3
3
3
3
3
3
3
3
3
3
3
3
3
3
3
3
3
3
3
3
3
3
3
3
3
3
3
3
3
3
3
3
3
3
3
3
3
3
3
3
3
3
3
3
3
3
)
;

boundaryField
{
    leftWall
    {
        type            calculated;
        value           nonuniform List<scalar> 
50
(
2
2
2
2
2
2
1.60273
0.154548
1.02354e-06
1.17157e-07
0.00114102
0.330249
0.797467
1.13962
1.00118
1.11114
2.595
3
3
3
2.99999
2.99999
2.99999
2.99999
3
3
3
3
3
3
3
3
3
3
3
3
3
3
3
3
3
3
3
3
3
3
3
3
3
3
)
;
    }
    rightWall
    {
        type            calculated;
        value           nonuniform List<scalar> 
50
(
1.76794
1.76801
1.60658
1.66986
0.829472
0.627662
0.449081
0.477722
0.48421
0.345617
0.736478
1.01172
0.999945
0.999992
0.999713
1.02539
2.20167
2.98399
3
3
3
3
3
3
3
3
3
3
3
3
3
3
3
3
3
3
3
3
3
3
3
3
3
3
3
3
3
3
3
3
)
;
    }
    lowerWall
    {
        type            calculated;
        value           nonuniform List<scalar> 
62
(
2
2
2
2
2
2
2
2
2
2
2
2
2
2
2
2
2
2
1.99999
1.99966
1.99945
1.99946
1.99951
1.99951
2
2
2
1.99999
1.78707
0.304388
0.00926717
0.0551041
0.0965507
0.12103
0.0947062
1.8715
1.85915
1.56406
1.10997
0.436783
0.148905
0.148114
0.142918
1.8715
1.86258
1.90117
1.92561
1.90154
1.76889
1.76887
1.76233
1.78303
1.78959
1.76892
1.71269
1.7087
1.75131
1.72513
1.65876
1.73764
1.77705
1.76794
)
;
    }
    atmosphere
    {
        type            calculated;
        value           nonuniform List<scalar> 
46
(
3
3
3
3
3
3
3
3
3
3
3
3
3
3
3
3
3
3
3
3
3
3
3
3
3.00001
3
3
3
3
3
3
3
3
3
3
3
3
3
3
3
3
3
3
3
3
3
)
;
    }
    defaultFaces
    {
        type            empty;
    }
}


// ************************************************************************* //
