/*--------------------------------*- C++ -*----------------------------------*\
  =========                 |
  \\      /  F ield         | OpenFOAM: The Open Source CFD Toolbox
   \\    /   O peration     | Website:  https://openfoam.org
    \\  /    A nd           | Version:  13
     \\/     M anipulation  |
\*---------------------------------------------------------------------------*/
FoamFile
{
    format      ascii;
    class       volScalarField;
    location    "2.95";
    object      alpha.oil;
}
// * * * * * * * * * * * * * * * * * * * * * * * * * * * * * * * * * * * * * //

dimensions      [];

internalField   nonuniform List<scalar> 
2268
(
8.24846e-14
5.0922e-13
1.94702e-12
5.69693e-12
1.39287e-11
2.92335e-11
5.81597e-11
1.10918e-10
2.05099e-10
3.86735e-10
7.01919e-10
1.31371e-09
2.36612e-09
3.83853e-09
6.33727e-09
9.79392e-09
1.65392e-08
1.70926e-08
1.14902e-05
0.000341856
0.000545373
0.00054468
0.000494492
7.4049e-14
4.7906e-13
1.96309e-12
6.12626e-12
1.50091e-11
3.215e-11
6.28296e-11
1.20829e-10
2.37213e-10
4.57628e-10
9.69984e-10
1.92411e-09
3.93632e-09
8.3386e-09
1.78222e-08
3.30085e-08
6.52111e-08
1.67556e-07
3.48029e-06
1.04731e-05
2.95398e-05
3.47065e-05
7.6935e-09
1.31042e-13
5.63957e-13
1.32409e-12
3.26704e-12
1.0591e-11
3.43076e-11
7.29558e-11
1.27469e-10
2.42832e-10
4.47865e-10
8.33578e-10
1.42809e-09
2.22048e-09
3.37076e-09
5.4189e-09
1.13957e-08
3.47123e-08
6.06681e-08
1.3283e-08
1.02242e-08
9.04023e-09
1.10921e-08
2.91878e-08
1.95088e-13
1.2398e-12
2.45555e-12
4.88862e-12
1.15887e-11
2.51288e-11
5.37263e-11
1.41213e-10
2.71886e-10
4.65814e-10
8.58569e-10
1.56915e-09
2.70839e-09
4.40854e-09
7.01492e-09
1.10659e-08
1.67441e-08
2.50718e-08
3.64098e-08
3.4791e-08
2.57837e-08
1.27717e-07
2.35823e-07
3.91399e-11
5.15286e-11
4.15133e-11
3.19127e-11
2.68462e-11
3.13598e-11
5.52726e-11
1.03907e-10
1.95019e-10
3.62431e-10
6.73555e-10
1.42995e-09
2.69922e-09
4.20339e-09
6.04042e-09
1.03289e-08
3.09595e-08
6.08033e-08
8.31939e-08
2.63056e-08
2.77136e-08
1.24718e-06
1.28333e-05
2.68998e-10
2.82005e-10
2.30073e-10
1.73566e-10
1.34231e-10
9.70129e-11
7.83755e-11
8.60553e-11
1.09199e-10
1.66471e-10
4.107e-10
9.88079e-10
1.70161e-09
1.86275e-09
1.06805e-09
6.32555e-10
2.09654e-07
7.29009e-07
8.94945e-07
5.99496e-07
9.42746e-07
1.00477e-05
2.22799e-05
1.08152e-09
9.09328e-10
7.02935e-10
5.67125e-10
4.87592e-10
3.95065e-10
2.72992e-10
1.7754e-10
1.4303e-10
1.45508e-10
2.07893e-10
4.86754e-10
7.14729e-10
7.43277e-10
6.4375e-10
6.41524e-10
2.88762e-07
1.05184e-06
1.20203e-06
1.2007e-06
3.71187e-06
1.25817e-05
2.12361e-05
3.00571e-09
2.83199e-09
2.1838e-09
1.6483e-09
1.349e-09
1.17715e-09
9.23424e-10
5.82867e-10
3.73049e-10
2.89779e-10
2.89896e-10
3.20845e-10
3.98881e-10
5.80219e-10
1.55438e-09
8.38775e-09
3.37675e-08
1.27549e-07
4.54029e-07
5.76716e-07
2.8008e-06
1.12357e-06
3.64183e-07
0.114403
0.0720646
0.0418252
0.040399
0.131812
0.285407
0.285491
0.28368
0.260678
0.254124
0.270717
0.231749
0.108114
0.0613925
0.0744689
0.108926
0.190742
0.230962
0.222916
0.126763
0.11605
0.0977807
0.0475272
0.0529133
0.0889722
0.113868
0.067403
0.0348375
0.0469364
0.174202
0.236257
0.124738
0.0614646
0.061407
0.151933
0.231617
0.231278
0.222872
0.425274
0.379888
0.380938
0.379002
0.156522
0.00183778
0.00170333
0.00174974
0.00170406
0.00171055
0.039588
0.157347
0.174075
0.0838666
0.064807
0.203983
0.363007
0.425385
0.445295
0.445491
0.444075
0.441214
0.415045
0.393668
0.311541
0.21592
0.148765
0.0896092
0.0061299
0.0646475
0.168495
0.174153
0.223726
0.261046
0.342235
0.386478
0.381808
0.445933
0.302617
0.102102
0.0968247
0.0272862
0.257643
0.652727
0.704398
0.714166
0.507387
0.06528
0.0033108
0.0391987
0.293079
0.313211
0.298832
0.132098
0.0695447
0.00016348
0.307852
0.0182035
0.00619081
0.00618391
0.00612881
0.361072
0.743726
0.74307
0.726495
0.568872
0.0747733
0.000236563
4.25609e-06
0.265388
0.313442
0.017726
0.00016343
0.000163573
0.000163451
0.184506
0.0190553
0.00809884
0.0061298
0.00615044
0.359026
0.744498
0.737541
0.443011
0.0311812
0.00163303
8.76914e-06
4.11505e-06
0.138381
0.297592
0.000198786
0.000163457
0.00016344
0.000290566
0.0255465
0.00605501
0.0159781
0.0135311
0.00612416
0.175278
0.669568
0.553483
0.0811231
5.25346e-08
8.7595e-08
2.66126e-07
0.0109371
0.147585
0.285224
0.0193676
0.000169538
0.000163451
0.00113432
0.000425656
3.25878e-09
3.20573e-09
2.63788e-09
2.25667e-09
1.97413e-09
1.8269e-09
1.76606e-09
1.64589e-09
1.30826e-09
9.65037e-10
6.80551e-10
4.82839e-10
3.79951e-10
3.82757e-10
4.8702e-10
1.81083e-09
9.82982e-25
-3.02767e-21
-1.00299e-20
-4.52399e-21
7.29248e-08
1.63257e-06
-4.08315e-09
1.8359e-09
1.48324e-09
1.35339e-09
1.08834e-09
9.50902e-10
4.97564e-09
4.44851e-09
3.09074e-09
2.2734e-09
1.80515e-09
1.31449e-09
8.43464e-10
4.56163e-10
2.28743e-10
4.21183e-09
3.48834e-08
-5.55448e-20
5.06391e-20
-3.11598e-19
-4.87224e-19
0.00100961
0.00702047
0.00602724
3.54189e-10
2.98528e-19
1.62545e-20
1.28455e-20
3.64649e-23
3.11807e-27
2.87568e-11
3.05701e-11
5.85039e-21
-1.81971e-13
-1.07302e-13
-4.72951e-14
-1.11101e-14
-2.50078e-15
0.000859916
0.00657747
0.0223348
0.0714311
0.17881
0.316842
0.429395
0.521176
0.488502
2.77087e-11
0.0325753
0.1447
0.189605
0.203275
0.173107
0.0783463
0.0252456
0.0334569
0.0600988
0.0943028
0.1404
0.231213
0.349427
0.440967
0.504572
0.582379
0.701849
0.841818
0.919956
0.930964
0.965122
0.948577
0.44713
0.716606
0.889786
0.918265
0.927858
0.905974
0.687512
0.645187
0.671784
0.717978
0.756073
0.795969
0.850298
0.940965
0.958318
0.920709
0.9025
0.96784
0.999942
1
1
0.99998
0.985872
0.928708
0.99074
0.999854
0.999867
0.996193
0.957885
0.954482
0.981748
0.996105
0.992853
0.993304
0.999413
1
1
1
1
1
1
1
1
0.999748
0.999565
0.999984
0.999344
0.999609
0.999873
0.999936
0.999925
0.998687
0.999998
1
1
1
1
1
1
1
1
1
1
1
1
1
1
0.999999
0.999997
0.944306
0.947518
0.948866
0.942968
0.928225
0.906429
0.881725
0.857035
0.831113
0.805188
0.780512
0.757252
0.735954
0.718181
0.709416
0.712307
0.721819
0.734481
0.75403
0.785099
0.824477
0.866229
0.901751
0.202467
0.223361
0.234276
0.224472
0.201891
0.177333
0.149014
0.117245
0.0886775
0.0675413
0.0527554
0.0419621
0.0342168
0.0295096
0.0289516
0.0331302
0.042033
0.0561094
0.0753483
0.0992817
0.127871
0.160818
0.19207
-2.34294e-08
-6.81348e-10
-3.49401e-23
9.29337e-17
-1.12568e-09
4.54499e-09
8.52291e-13
9.21006e-13
5.32348e-14
5.23125e-16
9.44766e-23
5.50852e-22
-2.8099e-21
-2.52575e-10
2.21448e-12
4.1641e-07
1.18221e-06
1.72759e-06
2.1582e-06
2.399e-06
2.55924e-06
3.19072e-06
2.03393e-06
1.12765e-06
3.30979e-07
1.10963e-07
1.49242e-07
3.6307e-07
4.23261e-07
7.6498e-07
3.31371e-06
8.97111e-07
3.80265e-07
7.87759e-08
3.31693e-08
2.63023e-08
2.66804e-08
3.5585e-08
3.98264e-08
4.69957e-08
5.82862e-08
8.48608e-08
9.99962e-08
1.58919e-07
2.09485e-07
1.76049e-07
1.34472e-06
8.18475e-07
4.66317e-07
6.43292e-07
6.44204e-07
4.41085e-06
6.343e-05
0.000124215
4.74151e-05
9.29945e-07
7.48542e-09
3.62796e-08
2.92865e-08
5.45432e-08
1.64875e-07
2.38974e-07
1.80586e-07
1.46779e-07
1.18482e-07
9.58776e-08
9.04993e-08
1.02337e-07
1.58388e-07
2.06796e-06
8.4581e-06
2.25216e-05
4.6228e-06
9.27478e-07
4.96444e-05
0.000164513
0.000163904
0.000146526
1.53579e-11
3.99318e-11
1.47436e-09
2.11768e-09
1.30816e-07
2.66667e-07
2.66525e-07
2.61123e-07
1.67748e-07
1.24346e-07
1.02627e-07
1.07809e-07
1.1246e-07
1.57051e-07
3.79535e-06
3.44295e-05
4.97041e-05
2.93225e-05
2.32137e-07
5.91455e-05
0.000164361
0.000164375
0.000163716
1.99595e-05
1.53579e-11
3.73149e-10
5.32154e-09
1.85154e-07
2.66645e-07
2.66571e-07
2.61006e-07
1.92506e-07
1.20288e-07
9.01562e-08
9.02321e-08
8.1926e-08
1.01932e-07
3.7893e-06
4.08958e-05
4.99844e-05
3.50686e-05
2.21857e-07
5.55347e-07
7.10487e-05
0.000162413
7.68641e-05
9.21475e-10
1.25893e-09
7.5728e-09
5.03272e-09
7.99326e-08
1.69655e-07
2.32932e-07
2.33397e-07
1.8442e-07
1.12921e-07
8.33562e-08
7.07969e-08
5.22282e-08
6.16551e-08
2.90682e-06
2.35369e-05
4.75217e-05
8.66167e-06
1.72177e-07
1.7166e-07
2.68535e-07
3.43876e-07
2.19237e-07
3.15426e-07
1.41107e-09
5.82769e-08
3.66133e-08
1.45613e-08
5.76074e-08
1.28045e-07
1.77738e-07
1.55991e-07
1.06811e-07
8.08091e-08
5.26668e-08
2.94632e-08
3.24388e-08
1.97349e-06
3.76095e-06
4.71725e-06
6.27404e-07
1.80865e-07
9.44805e-08
1.15564e-07
1.02051e-07
1.14694e-07
1.92737e-07
4.48862e-07
6.68297e-07
1.02802e-07
8.64089e-09
1.23627e-08
4.92007e-08
7.39831e-08
1.07749e-07
8.56521e-08
5.93315e-08
4.22822e-08
2.69909e-08
1.81298e-08
1.05441e-06
9.17071e-07
3.55108e-07
1.84044e-07
1.07667e-07
9.34885e-08
1.04e-07
9.75787e-08
1.22005e-07
3.08592e-07
6.99275e-07
6.99698e-07
5.21681e-07
2.89056e-08
7.43606e-09
8.79952e-09
3.41347e-08
5.76109e-08
5.14452e-08
3.84141e-08
2.74213e-08
1.70894e-08
1.22373e-08
6.60873e-07
4.10252e-07
1.78142e-07
9.05051e-08
8.80939e-08
8.68552e-08
8.51573e-08
7.10239e-08
7.1313e-08
1.57757e-07
4.64585e-07
6.98941e-07
4.45592e-07
7.87561e-08
7.4739e-09
7.46102e-09
1.26233e-08
2.35154e-08
2.47641e-08
2.02967e-08
1.60752e-08
1.18762e-08
7.59742e-09
5.58209e-07
4.06228e-07
1.96321e-07
8.76844e-08
7.45469e-08
7.43306e-08
6.75196e-08
5.30503e-08
4.48904e-08
8.20326e-08
1.85664e-07
3.27283e-07
2.51627e-07
6.05865e-08
1.77272e-08
1.17274e-08
9.46244e-09
1.05734e-08
1.18453e-08
1.08082e-08
8.65818e-09
6.33215e-09
5.04368e-09
3.64246e-07
3.8119e-07
2.00147e-07
8.66419e-08
6.8627e-08
5.96284e-08
4.94592e-08
3.86277e-08
3.28953e-08
4.1757e-08
6.29179e-08
7.49439e-08
5.93817e-08
3.45494e-08
2.05275e-08
1.17278e-08
8.44816e-09
7.73168e-09
7.28078e-09
6.62885e-09
5.56537e-09
4.5255e-09
3.4797e-09
2.8034e-07
3.15043e-07
1.58321e-07
8.38093e-08
6.05729e-08
4.66343e-08
3.65302e-08
2.72875e-08
2.26814e-08
2.57855e-08
3.02799e-08
2.80746e-08
2.03289e-08
1.69695e-08
1.24561e-08
8.63571e-09
6.77017e-09
5.82336e-09
5.05127e-09
4.47485e-09
3.81983e-09
3.06631e-09
2.59596e-09
1.39618e-07
1.95023e-07
1.24329e-07
7.44418e-08
5.30226e-08
3.77529e-08
2.76295e-08
1.99965e-08
1.59632e-08
1.57738e-08
1.64654e-08
1.43889e-08
1.10191e-08
8.73289e-09
6.99283e-09
5.69067e-09
4.70458e-09
3.99214e-09
3.35679e-09
2.93322e-09
2.53344e-09
2.16829e-09
1.81562e-09
8.98221e-08
1.3795e-07
9.69519e-08
6.52787e-08
4.64792e-08
3.14229e-08
2.2208e-08
1.54623e-08
1.14659e-08
9.69508e-09
8.56358e-09
7.05247e-09
5.47348e-09
4.48135e-09
3.86007e-09
3.35798e-09
2.85696e-09
2.4158e-09
2.02584e-09
1.77618e-09
1.54538e-09
1.27488e-09
1.1244e-09
5.82739e-08
8.87404e-08
7.40076e-08
5.57511e-08
3.98333e-08
2.6539e-08
1.7905e-08
1.20446e-08
8.32204e-09
6.23077e-09
4.84713e-09
3.72401e-09
2.95234e-09
2.46201e-09
2.1346e-09
1.86309e-09
1.59003e-09
1.33777e-09
1.11124e-09
9.62186e-10
8.16518e-10
6.95602e-10
6.11438e-10
4.35821e-08
6.82374e-08
6.13501e-08
4.61442e-08
3.29442e-08
2.22421e-08
1.4631e-08
9.38151e-09
6.04799e-09
4.04718e-09
2.81987e-09
2.04647e-09
1.58923e-09
1.30987e-09
1.10819e-09
9.57724e-10
8.11941e-10
6.69119e-10
5.60405e-10
4.72744e-10
3.99596e-10
3.29315e-10
2.84175e-10
3.15668e-08
4.80988e-08
4.54107e-08
3.53416e-08
2.55942e-08
1.756e-08
1.15598e-08
7.27312e-09
4.45263e-09
2.75901e-09
1.77963e-09
1.19023e-09
8.66717e-10
6.82728e-10
5.59651e-10
4.67923e-10
3.84562e-10
3.22911e-10
2.62833e-10
2.1886e-10
1.81938e-10
1.43917e-10
1.21885e-10
2.30603e-08
3.49219e-08
3.30136e-08
2.5109e-08
1.80667e-08
1.25142e-08
8.28557e-09
5.157e-09
3.10865e-09
1.85653e-09
1.11817e-09
6.87613e-10
4.52798e-10
3.26108e-10
2.53124e-10
2.04677e-10
1.69016e-10
1.40743e-10
1.14107e-10
9.28705e-11
7.62815e-11
5.65952e-11
4.71202e-11
1.58153e-08
2.43662e-08
2.17524e-08
1.66132e-08
1.18523e-08
8.13566e-09
5.36338e-09
3.30677e-09
1.95857e-09
1.13395e-09
6.52771e-10
3.76486e-10
2.28787e-10
1.50132e-10
1.07298e-10
8.21029e-11
6.67037e-11
5.46032e-11
4.37827e-11
3.52715e-11
2.77171e-11
2.02239e-11
1.61311e-11
1.20642e-08
1.60873e-08
1.39839e-08
1.0391e-08
7.17303e-09
4.77573e-09
3.08544e-09
1.88546e-09
1.10373e-09
6.25411e-10
3.48863e-10
1.90474e-10
1.09011e-10
6.3742e-11
4.24813e-11
3.04883e-11
2.34049e-11
1.87733e-11
1.49981e-11
1.19057e-11
9.22241e-12
6.44784e-12
5.08779e-12
7.65253e-09
1.02089e-08
8.49394e-09
6.01723e-09
3.94135e-09
2.51292e-09
1.57635e-09
9.45671e-10
5.42318e-10
3.01344e-10
1.61611e-10
8.58139e-11
4.43643e-11
2.54836e-11
1.55908e-11
1.03164e-11
7.4764e-12
5.80387e-12
4.55358e-12
3.61752e-12
2.66666e-12
1.89941e-12
1.4266e-12
5.13389e-09
6.21559e-09
4.80493e-09
3.20284e-09
1.97332e-09
1.19198e-09
6.99311e-10
4.06731e-10
2.28747e-10
1.25216e-10
6.41117e-11
3.18385e-11
1.68587e-11
9.05165e-12
5.12562e-12
3.21177e-12
2.20727e-12
1.65409e-12
1.25936e-12
9.63148e-13
7.27053e-13
4.89341e-13
3.55334e-13
2.9725e-09
3.32599e-09
2.41588e-09
1.5025e-09
8.63727e-10
4.91926e-10
2.78987e-10
1.56066e-10
8.58801e-11
4.20337e-11
2.14771e-11
1.09044e-11
5.46037e-12
2.81498e-12
1.51835e-12
8.99688e-13
5.64008e-13
4.1037e-13
3.03158e-13
2.24805e-13
1.56242e-13
1.10231e-13
7.64015e-14
1.73657e-09
1.67332e-09
1.07944e-09
6.40682e-10
3.51523e-10
1.78595e-10
9.30157e-11
4.86149e-11
2.50898e-11
1.34198e-11
6.63974e-12
3.23044e-12
1.53444e-12
7.61826e-13
3.84162e-13
2.13335e-13
1.33199e-13
9.2569e-14
6.55979e-14
4.73825e-14
3.30878e-14
2.18265e-14
1.40444e-14
7.2707e-10
5.69354e-10
3.59002e-10
1.96206e-10
1.01836e-10
5.17829e-11
2.66502e-11
1.3727e-11
7.14383e-12
3.62268e-12
1.76009e-12
8.12831e-13
3.69522e-13
1.73009e-13
8.62623e-14
4.68394e-14
2.84444e-14
1.88793e-14
1.31184e-14
8.81202e-15
5.77157e-15
3.72065e-15
2.25992e-15
3.38459e-10
2.25673e-10
1.31015e-10
6.84358e-11
3.37692e-11
1.61468e-11
7.7951e-12
3.84242e-12
1.91668e-12
9.09723e-13
4.15643e-13
1.83004e-13
7.9845e-14
3.58369e-14
1.7567e-14
9.45811e-15
5.61908e-15
3.59805e-15
2.38588e-15
1.52562e-15
9.48134e-16
5.57996e-16
3.1254e-16
1.01636e-10
6.94337e-11
3.96905e-11
2.02121e-11
9.68161e-12
4.45809e-12
2.07925e-12
9.43762e-13
4.43434e-13
2.02774e-13
8.78314e-14
3.67469e-14
1.56166e-14
6.93418e-15
3.31681e-15
1.73816e-15
1.01032e-15
6.2827e-16
3.96349e-16
2.37372e-16
1.3591e-16
7.29176e-17
3.91188e-17
2.89063e-11
1.7609e-11
9.4818e-12
4.83528e-12
2.33212e-12
1.0775e-12
4.67991e-13
2.18688e-13
9.77453e-14
4.30327e-14
1.78793e-14
7.1244e-15
2.85829e-15
1.20976e-15
5.56765e-16
2.87753e-16
1.65046e-16
9.96366e-17
5.93724e-17
3.31177e-17
1.70874e-17
8.56128e-18
5.96379e-18
4.5743e-12
2.76023e-12
1.67824e-12
9.17448e-13
4.7405e-13
2.27607e-13
1.02413e-13
4.55559e-14
1.96102e-14
8.45836e-15
3.33645e-15
1.25444e-15
4.75749e-16
1.93147e-16
8.70781e-17
4.454e-17
2.52684e-17
1.46866e-17
8.09481e-18
4.0658e-18
1.94523e-18
1.12763e-18
2.21172e-18
3.89215e-13
2.74989e-13
1.88605e-13
1.395e-13
8.15968e-14
4.18694e-14
1.86874e-14
8.48793e-15
3.78619e-15
1.59373e-15
6.13518e-16
2.18337e-16
7.6597e-17
2.93887e-17
1.28561e-17
6.5826e-18
3.69914e-18
2.01207e-18
9.90111e-19
4.46185e-19
2.29268e-19
3.17809e-19
1.64892e-18
5.89647e-15
9.74693e-15
1.50016e-14
1.57393e-14
1.15657e-14
6.75104e-15
3.35537e-15
1.57049e-15
7.10647e-16
2.99381e-16
1.1204e-16
3.71545e-17
1.18061e-17
4.24787e-18
1.82287e-18
9.35399e-19
4.96343e-19
2.48477e-19
1.11917e-19
5.11595e-20
5.27254e-20
1.93668e-19
1.23885e-18
1.05109e-22
5.9905e-17
6.50274e-16
1.73309e-15
1.59369e-15
1.03978e-15
5.57706e-16
2.74458e-16
1.2893e-16
5.49369e-17
2.02339e-17
6.41306e-18
1.87712e-18
6.50099e-19
2.69036e-19
1.33848e-19
6.64445e-20
2.96118e-20
1.25287e-20
8.26547e-21
2.03205e-20
9.18906e-20
6.3146e-19
-1.4069e-11
-3.81217e-21
0.00712083
0.0138772
0.0042394
0.0166439
0.0611004
0.0654803
0.485453
0.574813
0.64119
0.659934
0.872932
0.862795
0.862834
0.876177
0.973243
0.974423
0.989623
0.99779
0.999979
0.999982
0.999983
0.99998
0.999995
0.999994
0.999992
0.999989
0.916766
0.926086
0.934328
0.942867
0.202905
0.211344
0.220301
0.230808
1.96274e-06
2.42394e-06
1.26135e-06
2.42438e-06
2.22515e-07
2.37474e-07
1.93612e-07
1.91112e-07
2.05637e-07
2.16481e-07
2.1574e-07
2.38461e-07
1.85182e-07
2.03923e-07
1.99806e-07
2.17947e-07
1.21617e-07
1.50349e-07
1.44852e-07
1.47739e-07
7.6674e-08
7.91837e-08
9.18385e-08
9.25473e-08
4.06437e-08
4.35022e-08
5.12821e-08
5.36163e-08
1.67605e-08
2.33927e-08
2.58965e-08
2.75111e-08
8.93539e-09
8.63444e-09
1.03261e-08
1.20777e-08
5.53771e-09
4.74355e-09
4.81508e-09
4.70888e-09
3.45361e-09
2.91253e-09
2.61824e-09
2.54424e-09
2.66251e-09
2.12143e-09
1.91994e-09
1.71761e-09
2.10573e-09
1.80022e-09
1.48581e-09
1.34041e-09
1.54574e-09
1.33571e-09
1.19979e-09
1.04756e-09
9.89452e-10
8.66157e-10
7.87016e-10
7.14022e-10
5.47621e-10
4.73882e-10
4.43363e-10
4.09029e-10
2.63111e-10
2.2095e-10
2.08042e-10
2.00002e-10
1.09422e-10
9.64168e-11
8.99131e-11
8.12795e-11
4.25943e-11
3.44431e-11
3.12799e-11
3.02193e-11
1.47278e-11
1.24765e-11
1.12204e-11
9.82195e-12
4.47791e-12
3.73733e-12
3.24666e-12
2.91716e-12
1.2159e-12
1.04247e-12
9.06735e-13
7.81655e-13
2.90457e-13
2.40196e-13
2.03611e-13
1.73127e-13
6.22088e-14
5.12708e-14
4.1657e-14
3.33013e-14
1.09466e-14
8.73143e-15
7.04109e-15
5.47725e-15
1.72243e-15
1.32817e-15
1.02834e-15
7.59358e-16
2.30502e-16
1.7393e-16
1.38253e-16
1.11382e-16
2.95406e-17
2.53515e-17
2.65402e-17
3.64615e-17
6.2078e-18
8.19148e-18
1.46433e-17
3.31702e-17
3.41119e-18
6.44163e-18
1.63915e-17
4.82427e-17
2.94522e-18
7.12441e-18
2.26402e-17
7.33679e-17
2.55166e-18
7.89309e-18
2.85771e-17
9.30067e-17
1.83472e-18
6.44767e-18
2.24512e-17
6.95872e-17
0.0039868
0.00376325
0.0145322
0.0215228
0.026507
0.376224
0.314262
0.0252382
7.6271e-07
5.31413e-08
7.80433e-05
0.0201767
0.176318
0.0893043
0.000472641
0.000202244
0.0155742
0.11477
0.00025607
0.00585903
0.0037643
0.0108115
0.0139688
0.0150998
0.233301
0.200017
0.0126085
0.0177891
0.0100041
0.00536379
0.00585709
0.0632116
0.0322498
0.134566
0.344046
0.450517
0.23696
0.0581805
0.446374
0.319932
0.333925
0.176517
0.149867
0.427789
0.324315
0.178957
0.521832
0.696927
0.69862
0.575187
0.45991
0.649365
0.854734
0.894236
0.821871
0.67728
0.570191
0.915938
0.880665
0.854257
0.852067
0.85719
0.774263
0.717535
0.734724
0.95886
0.999498
0.999994
0.999738
0.996492
0.999953
0.999836
0.999024
0.985852
0.977905
0.9928
0.999734
0.997118
0.999806
0.999949
0.999689
0.939731
0.84371
0.900518
0.99437
0.999974
0.999997
0.999999
1
0.999999
0.999867
0.999755
0.999971
0.999938
0.999931
0.999984
0.999989
0.999997
0.999951
0.999942
0.999041
0.992325
0.997416
1
1
0.999999
1
1
0.999999
0.999984
0.999951
0.999971
0.999978
0.999979
0.999992
0.999997
0.999998
0.999998
0.999996
0.999997
1
1
1
1
1
1
0.999987
0.999984
0.999985
0.99998
0.999694
0.999454
0.999689
0.957284
0.97494
0.991476
0.999999
0.999845
0.999865
0.999922
0.999916
0.999889
0.999907
0.999956
0.999983
0.999996
0.999965
0.996696
0.985602
0.975989
0.969129
0.975721
0.249541
0.2675
0.292422
0.336032
0.405268
0.478626
0.534594
0.563693
0.575577
0.581798
0.586389
0.589959
0.592546
0.583941
0.499517
0.414549
0.374455
0.35906
0.38352
2.06133e-06
1.72022e-06
1.62634e-06
2.21921e-06
1.92241e-06
1.33207e-05
0.00041692
0.002299
0.00363696
0.00457182
0.00460482
0.00358818
0.00111068
-1.6153e-08
3.80817e-16
1.13438e-16
4.57415e-17
3.89909e-17
4.57414e-17
1.93525e-07
3.72405e-07
1.44577e-06
0.0001687
0.000453464
0.000664748
0.000497877
2.15676e-05
-7.34234e-10
-1.2739e-08
-2.12433e-07
-2.93123e-07
-3.13779e-07
1.02818e-05
1.38051e-06
8.43177e-08
4.09656e-08
2.41837e-08
5.51224e-09
2.8743e-07
5.21929e-07
5.74583e-07
0.000366657
0.000811904
0.000808905
0.000739667
0.000194904
3.5202e-11
2.6643e-07
0.000283508
0.000550404
0.000548849
0.000371265
1.40931e-05
5.9249e-07
1.82332e-07
1.47608e-07
6.98562e-08
2.4292e-07
4.12231e-07
4.43252e-07
3.67889e-05
1.2264e-05
1.81408e-05
1.0981e-06
1.99035e-05
1.83215e-06
2.53189e-07
0.000122584
0.000394986
0.000319869
0.00012116
3.17543e-06
6.51379e-07
3.21683e-07
2.67663e-07
1.11243e-07
1.53578e-07
1.73544e-07
1.70839e-07
3.58605e-07
1.19163e-07
1.20902e-07
3.95007e-07
7.63908e-07
1.30144e-06
4.01278e-06
1.82513e-06
3.86486e-07
2.77888e-07
1.59525e-07
6.38089e-07
4.84429e-07
3.92963e-07
3.70188e-07
2.23035e-07
9.54587e-08
1.04108e-07
1.08487e-07
1.34809e-07
1.65259e-07
1.67879e-07
1.95492e-07
3.14581e-07
6.08731e-07
8.49311e-07
3.26491e-07
1.89064e-07
1.57014e-07
1.42691e-07
2.59228e-07
3.10497e-07
3.4706e-07
3.674e-07
3.46085e-07
5.77507e-08
7.61571e-08
1.05997e-07
1.58303e-07
2.01628e-07
2.1516e-07
1.91637e-07
1.76779e-07
2.07809e-07
2.29412e-07
2.51451e-07
2.17049e-07
1.80734e-07
1.3982e-07
1.83e-07
2.08481e-07
2.30296e-07
3.02924e-07
3.3242e-07
3.01515e-08
4.04558e-08
5.84844e-08
8.92948e-08
1.26194e-07
1.54852e-07
1.5868e-07
1.40057e-07
1.27661e-07
1.42305e-07
1.79342e-07
1.76486e-07
1.39815e-07
9.9919e-08
9.60825e-08
9.77936e-08
1.20428e-07
1.32799e-07
1.41596e-07
1.3599e-08
1.65513e-08
2.03636e-08
2.57797e-08
3.45236e-08
4.55056e-08
5.32417e-08
5.40514e-08
5.28941e-08
5.95026e-08
7.47896e-08
8.37369e-08
7.0061e-08
5.0991e-08
4.35504e-08
4.57867e-08
4.32569e-08
3.79679e-08
3.17376e-08
5.46455e-09
7.12824e-09
8.45505e-09
9.24353e-09
9.65682e-09
9.84384e-09
1.09532e-08
1.39993e-08
1.8623e-08
2.28992e-08
2.66152e-08
2.90129e-08
2.86603e-08
2.53497e-08
2.12942e-08
1.95229e-08
1.75196e-08
1.71226e-08
1.71667e-08
2.47771e-09
3.03984e-09
4.04586e-09
5.08132e-09
6.18459e-09
7.2174e-09
8.16413e-09
9.25989e-09
1.05449e-08
1.17199e-08
1.24268e-08
1.26978e-08
1.29129e-08
1.25895e-08
1.32119e-08
1.38876e-08
1.52225e-08
1.88391e-08
2.20135e-08
1.57457e-09
1.46881e-09
1.67882e-09
2.16231e-09
2.72141e-09
3.37269e-09
4.06869e-09
4.76254e-09
5.45733e-09
6.02516e-09
6.38144e-09
6.64828e-09
7.06529e-09
8.14758e-09
9.73729e-09
1.32963e-08
1.84897e-08
3.04344e-08
4.84823e-08
1.20329e-09
1.01793e-09
9.22903e-10
9.08282e-10
1.06896e-09
1.32505e-09
1.62996e-09
1.96456e-09
2.30825e-09
2.70419e-09
3.10084e-09
3.58503e-09
4.35851e-09
5.69199e-09
8.52383e-09
1.36287e-08
2.4765e-08
5.08025e-08
7.76758e-08
9.1063e-10
7.50756e-10
6.25709e-10
5.4145e-10
5.09122e-10
5.34545e-10
6.4321e-10
7.9883e-10
1.01497e-09
1.29677e-09
1.6401e-09
2.11814e-09
2.85813e-09
4.18871e-09
6.86551e-09
1.34012e-08
2.97905e-08
6.98262e-08
8.39121e-08
6.20772e-10
5.06259e-10
4.21966e-10
3.42769e-10
2.83202e-10
2.56034e-10
2.6529e-10
3.29301e-10
4.5323e-10
6.45379e-10
9.18964e-10
1.33177e-09
2.0128e-09
3.21781e-09
5.89983e-09
1.32364e-08
3.34255e-08
8.46486e-08
8.37196e-08
3.48871e-10
2.96701e-10
2.45372e-10
1.96595e-10
1.60419e-10
1.36073e-10
1.34947e-10
1.62352e-10
2.32394e-10
3.6262e-10
5.76481e-10
9.22004e-10
1.50196e-09
2.52545e-09
4.79434e-09
1.15496e-08
3.45814e-08
8.75305e-08
6.95997e-08
1.67612e-10
1.402e-10
1.16578e-10
9.58299e-11
7.71971e-11
6.65282e-11
6.85477e-11
8.85199e-11
1.3598e-10
2.30372e-10
3.99559e-10
6.96804e-10
1.21035e-09
2.11895e-09
4.07393e-09
1.05435e-08
3.47403e-08
9.37412e-08
4.42553e-08
6.71779e-11
5.64859e-11
4.62475e-11
3.74467e-11
3.09181e-11
2.86957e-11
3.36896e-11
5.0309e-11
8.76938e-11
1.63258e-10
3.06269e-10
5.70811e-10
1.04049e-09
1.87038e-09
3.60294e-09
9.63326e-09
3.72098e-08
9.50015e-08
3.44253e-08
2.43524e-11
1.91935e-11
1.54735e-11
1.23032e-11
1.07452e-11
1.15941e-11
1.70527e-11
3.0608e-11
6.26276e-11
1.2642e-10
2.53908e-10
5.02129e-10
9.54731e-10
1.76494e-09
3.34834e-09
9.32742e-09
3.93842e-08
9.4894e-08
2.86525e-08
7.57034e-12
5.81209e-12
4.40286e-12
3.52588e-12
3.54413e-12
5.25151e-12
1.02406e-11
2.19145e-11
4.92935e-11
1.06912e-10
2.27688e-10
4.74283e-10
9.40424e-10
1.75957e-09
3.31315e-09
9.08426e-09
4.14149e-08
9.3786e-08
2.06139e-08
2.17322e-12
1.57198e-12
1.14337e-12
1.04068e-12
1.47673e-12
3.12995e-12
7.41102e-12
1.80037e-11
4.21433e-11
9.75594e-11
2.18956e-10
4.73522e-10
9.68265e-10
1.8331e-09
3.40318e-09
9.3527e-09
4.06963e-08
6.85896e-08
1.26252e-08
5.38167e-13
3.61565e-13
2.8003e-13
3.76016e-13
8.69538e-13
2.32083e-12
6.18072e-12
1.57283e-11
3.89311e-11
9.41952e-11
2.21083e-10
4.89444e-10
1.02338e-09
1.97416e-09
3.58857e-09
9.42916e-09
3.71988e-08
3.64244e-08
7.48712e-09
1.13785e-13
7.74347e-14
8.58066e-14
2.09356e-13
6.6057e-13
1.95466e-12
5.50382e-12
1.46476e-11
3.72344e-11
9.52093e-11
2.305e-10
5.20789e-10
1.1115e-09
2.15216e-09
3.89644e-09
1.03968e-08
2.70192e-08
1.95626e-08
3.59603e-09
2.05879e-14
1.7936e-14
4.34385e-14
1.65027e-13
5.65762e-13
1.75996e-12
5.11855e-12
1.43136e-11
3.82266e-11
9.83458e-11
2.46368e-10
5.66192e-10
1.19868e-09
2.35913e-09
4.13424e-09
1.04135e-08
2.02197e-08
6.80321e-09
2.32452e-09
3.76139e-15
8.12642e-15
3.61584e-14
1.51598e-13
5.30216e-13
1.70166e-12
5.14112e-12
1.46682e-11
3.98139e-11
1.0413e-10
2.62395e-10
6.07427e-10
1.29407e-09
2.45757e-09
4.3552e-09
9.78311e-09
1.15004e-08
7.49079e-09
1.26734e-09
1.1793e-15
6.92332e-15
3.55395e-14
1.47035e-13
5.25571e-13
1.70964e-12
5.27841e-12
1.53128e-11
4.20463e-11
1.10679e-10
2.77694e-10
6.37487e-10
1.34108e-09
2.52832e-09
4.36064e-09
8.09555e-09
8.17254e-09
3.20682e-09
8.44939e-10
9.12703e-16
6.93284e-15
3.50136e-14
1.47113e-13
5.25476e-13
1.7619e-12
5.3873e-12
1.56169e-11
4.31235e-11
1.13411e-10
2.82726e-10
6.42712e-10
1.3366e-09
2.45572e-09
3.98218e-09
6.33028e-09
4.76716e-09
2.3402e-09
3.92219e-10
9.82693e-16
7.14824e-15
3.49403e-14
1.45786e-13
5.20075e-13
1.72959e-12
5.30142e-12
1.53133e-11
4.18064e-11
1.09859e-10
2.71033e-10
6.07175e-10
1.23996e-09
2.23484e-09
3.37894e-09
4.5291e-09
3.24571e-09
9.22439e-10
2.4708e-10
1.08145e-15
7.25963e-15
3.40453e-14
1.36736e-13
4.86692e-13
1.57626e-12
4.83572e-12
1.38179e-11
3.76594e-11
9.79394e-11
2.39952e-10
5.31851e-10
1.06696e-09
1.84959e-09
2.63694e-09
2.87861e-09
1.62848e-09
5.74587e-10
1.15552e-10
1.17121e-15
6.76824e-15
3.00533e-14
1.15565e-13
4.00904e-13
1.28376e-12
3.88294e-12
1.10702e-11
3.01803e-11
7.84694e-11
1.92407e-10
4.1933e-10
8.18708e-10
1.39784e-09
1.77174e-09
1.7492e-09
8.91993e-10
2.15444e-10
6.72463e-11
1.08871e-15
5.48744e-15
2.22691e-14
7.92765e-14
2.6557e-13
8.30534e-13
2.52595e-12
7.41169e-12
2.04474e-11
5.39953e-11
1.31609e-10
2.92316e-10
5.76839e-10
9.20984e-10
1.07738e-09
9.40672e-10
3.61073e-10
1.08659e-10
3.40717e-11
7.56285e-16
3.25432e-15
1.19178e-14
3.98746e-14
1.32262e-13
4.28192e-13
1.33333e-12
4.00535e-12
1.14674e-11
3.14226e-11
7.9061e-11
1.76056e-10
3.34093e-10
5.34548e-10
5.924e-10
4.20341e-10
1.3423e-10
4.13091e-11
1.06266e-11
2.80929e-16
1.00447e-15
3.24652e-15
1.03519e-14
3.95813e-14
1.40464e-13
4.87094e-13
1.57704e-12
4.8383e-12
1.38986e-11
3.63545e-11
8.39704e-11
1.57035e-10
2.3699e-10
2.33914e-10
1.24501e-10
3.64801e-11
7.1616e-12
4.10025e-13
)
;

boundaryField
{
    leftWall
    {
        type            alphaContactAngle;
        contactAngleProperties 
        {
            mercury         
            {
                theta0          90;
            }
            air             
            {
                theta0          90;
            }
            water           
            {
                theta0          90;
            }
        }
        value           nonuniform List<scalar> 
50
(
8.24846e-14
7.4049e-14
1.31042e-13
1.95088e-13
3.91399e-11
2.68998e-10
1.08152e-09
3.00571e-09
3.25878e-09
1.8359e-09
3.54189e-10
2.77087e-11
0.44713
0.928708
0.999344
0.944306
0.202467
-2.34294e-08
1.12765e-06
1.34472e-06
2.06796e-06
3.79535e-06
3.7893e-06
2.90682e-06
1.97349e-06
1.05441e-06
6.60873e-07
5.58209e-07
3.64246e-07
2.8034e-07
1.39618e-07
8.98221e-08
5.82739e-08
4.35821e-08
3.15668e-08
2.30603e-08
1.58153e-08
1.20642e-08
7.65253e-09
5.13389e-09
2.9725e-09
1.73657e-09
7.2707e-10
3.38459e-10
1.01636e-10
2.89063e-11
4.5743e-12
3.89215e-13
5.89647e-15
1.05109e-22
)
;
    }
    rightWall
    {
        type            alphaContactAngle;
        contactAngleProperties 
        {
            mercury         
            {
                theta0          90;
            }
            air             
            {
                theta0          90;
            }
            water           
            {
                theta0          90;
            }
        }
        value           nonuniform List<scalar> 
50
(
0.222916
0.222872
0.445295
0.445933
0.307852
0.184506
0.0255465
0.000425656
0.00025607
0.0581805
0.570191
0.9928
0.999931
0.999979
0.999689
0.975721
0.38352
4.57414e-17
5.51224e-09
6.98562e-08
1.11243e-07
2.23035e-07
3.46085e-07
3.3242e-07
1.41596e-07
3.17376e-08
1.71667e-08
2.20135e-08
4.84823e-08
7.76758e-08
8.39121e-08
8.37196e-08
6.95997e-08
4.42553e-08
3.44253e-08
2.86525e-08
2.06139e-08
1.26252e-08
7.48712e-09
3.59603e-09
2.32452e-09
1.26734e-09
8.44939e-10
3.92219e-10
2.4708e-10
1.15552e-10
6.72463e-11
3.40717e-11
1.06266e-11
4.10025e-13
)
;
    }
    lowerWall
    {
        type            alphaContactAngle;
        contactAngleProperties 
        {
            mercury         
            {
                theta0          90;
            }
            air             
            {
                theta0          90;
            }
            water           
            {
                theta0          90;
            }
        }
        value           nonuniform List<scalar> 
62
(
8.24846e-14
5.0922e-13
1.94702e-12
5.69693e-12
1.39287e-11
2.92335e-11
5.81597e-11
1.10918e-10
2.05099e-10
3.86735e-10
7.01919e-10
1.31371e-09
2.36612e-09
3.83853e-09
6.33727e-09
9.79392e-09
1.65392e-08
1.70926e-08
1.14902e-05
0.000341856
0.000545373
0.00054468
0.000494492
0.000494492
7.6935e-09
2.91878e-08
2.35823e-07
1.28333e-05
2.22799e-05
2.12361e-05
3.64183e-07
-1.4069e-11
-3.81217e-21
0.00712083
0.0138772
0.114403
0.126763
0.425274
0.445491
0.302617
0.0182035
0.0190553
0.00605501
0.114403
0.0720646
0.0418252
0.040399
0.131812
0.285407
0.285491
0.28368
0.260678
0.254124
0.270717
0.231749
0.108114
0.0613925
0.0744689
0.108926
0.190742
0.230962
0.222916
)
;
    }
    atmosphere
    {
        type            inletOutlet;
        inletValue      uniform 0;
        value           nonuniform List<scalar> 
46
(
0
0
6.50275e-16
1.73309e-15
1.59369e-15
1.03978e-15
5.57706e-16
2.74458e-16
1.2893e-16
5.49369e-17
2.0234e-17
6.41306e-18
1.87712e-18
6.50099e-19
2.69036e-19
1.33848e-19
6.64445e-20
2.96118e-20
1.25287e-20
8.26547e-21
0
0
0
1.83473e-18
6.44769e-18
2.24512e-17
6.95873e-17
0
0
0
0
0
1.40464e-13
4.87094e-13
1.57704e-12
4.8383e-12
1.38986e-11
3.63545e-11
0
0
0
0
0
0
0
0
)
;
    }
    defaultFaces
    {
        type            empty;
    }
}


// ************************************************************************* //
