/*--------------------------------*- C++ -*----------------------------------*\
  =========                 |
  \\      /  F ield         | OpenFOAM: The Open Source CFD Toolbox
   \\    /   O peration     | Website:  https://openfoam.org
    \\  /    A nd           | Version:  13
     \\/     M anipulation  |
\*---------------------------------------------------------------------------*/
FoamFile
{
    format      ascii;
    class       volScalarField;
    location    "2.95";
    object      alpha.air;
}
// * * * * * * * * * * * * * * * * * * * * * * * * * * * * * * * * * * * * * //

dimensions      [];

internalField   nonuniform List<scalar> 
2268
(
6.06162e-13
7.29155e-13
7.95136e-13
6.3737e-13
4.11101e-13
2.1517e-13
9.57084e-14
4.50161e-14
3.44615e-14
3.80313e-14
5.90452e-14
1.16209e-13
2.36627e-13
4.18239e-13
7.95433e-13
1.34022e-12
1.93312e-12
2.32046e-12
4.82728e-12
1.32768e-11
2.27491e-11
6.29858e-11
3.56743e-10
1.8721e-12
2.49435e-12
2.52661e-12
2.29909e-12
1.67491e-12
8.85947e-13
3.8739e-13
2.45644e-13
2.6429e-13
4.38517e-13
9.43651e-13
1.88841e-12
3.32045e-12
5.8353e-12
9.84401e-12
1.52349e-11
2.17623e-11
2.54806e-11
2.84804e-11
1.48069e-10
6.96377e-10
2.48194e-09
7.16367e-09
4.17355e-12
6.3354e-12
6.24605e-12
5.22752e-12
4.49401e-12
3.40523e-12
1.38285e-12
8.30873e-13
1.04442e-12
2.18736e-12
5.22004e-12
1.15422e-11
2.33795e-11
4.41165e-11
7.88817e-11
1.42201e-10
3.01233e-10
4.94997e-10
8.86368e-10
2.15819e-09
5.15121e-09
8.47845e-09
2.35045e-08
9.97421e-12
1.21356e-11
9.9948e-12
6.20465e-12
7.45166e-12
7.47412e-12
6.16881e-12
4.58813e-12
4.16687e-12
5.83558e-12
1.15544e-11
2.46592e-11
4.87425e-11
8.78122e-11
1.605e-10
3.82035e-10
1.45095e-09
6.92808e-09
2.66888e-08
4.07619e-08
1.96318e-08
1.35278e-08
2.28474e-08
1.25092e-11
6.98622e-12
6.60632e-12
6.38347e-12
7.81479e-12
1.02565e-11
1.1491e-11
1.17497e-11
1.17265e-11
1.23332e-11
1.56155e-11
2.79956e-11
5.16917e-11
8.25896e-11
1.08493e-10
1.13793e-10
3.40508e-10
1.07512e-08
6.30247e-08
9.3476e-08
1.22596e-08
1.21939e-08
1.26389e-08
2.43439e-10
4.69829e-09
3.62821e-08
4.97373e-08
6.06547e-12
6.68954e-12
8.78399e-12
1.31684e-11
1.82877e-11
2.88557e-11
4.30224e-11
5.27762e-11
6.54624e-11
1.02284e-10
9.36525e-10
3.4505e-09
3.65364e-09
3.25859e-09
4.68854e-08
3.67264e-07
1.34508e-05
0.00023789
0.000466665
1.97353e-10
3.9553e-09
1.84262e-07
3.65415e-07
4.42513e-08
4.93356e-12
4.71604e-12
6.35432e-12
8.92885e-12
1.05908e-10
5.91269e-10
1.07343e-09
1.49824e-09
2.40863e-09
1.09251e-08
3.70763e-08
5.90913e-08
7.99614e-08
4.099e-07
8.40166e-06
0.000120238
0.00150188
0.00322159
3.8677e-09
1.48037e-08
5.65595e-08
3.62462e-07
1.90003e-07
1.15596e-06
7.25244e-09
6.32048e-12
2.68094e-11
3.00214e-09
5.49613e-09
7.19902e-09
8.09689e-09
1.18011e-08
2.65127e-08
5.96837e-08
1.3036e-07
3.39149e-07
2.55071e-06
2.52044e-05
0.000165213
0.00115331
0.00308896
0.000368082
0.0114772
0.0344221
0.043059
0.056525
0.0565201
0.0565548
0.0477547
0.0454514
0.0454564
0.0655467
0.0603184
0.0656394
0.0614644
0.0483793
0.0147402
0.0138209
0.0135083
0.0131927
0.000368082
0.000721126
0.00663731
0.0109563
0.0177194
0.0285506
0.0250323
0.0347235
0.090962
0.122482
0.0649897
0.0602495
0.0800243
0.137049
0.123105
0.0715149
0.0133826
0.0131922
0.0131918
0.00375283
0.0048167
0.00844958
0.00989677
0.000995461
0.000135641
2.98022e-05
3.08124e-05
0.127039
0.381945
0.389929
0.253038
0.312574
0.360418
0.338357
0.182303
0.0513761
0.0272147
0.0530946
0.0149433
0.017112
0.0242128
0.024242
0.018888
0.00161697
3.34298e-05
3.02206e-05
0.0240198
0.301399
0.573439
0.575236
0.575177
0.575091
0.575057
0.482484
0.300659
0.214317
0.256899
0.0125578
0.00969202
0.0124889
0.0194214
0.019355
0.00188552
3.25361e-05
0.0167932
0.0168409
0.010482
0.135343
0.523861
0.575141
0.560284
0.140856
0.0532711
0.0655884
0.0264991
0.173847
0.00984377
0.00999527
0.0111216
0.0094276
0.00936171
0.00452756
0.0424952
0.0582493
0.0485681
0.00358467
2.49987e-05
0.0854384
0.453405
0.222044
3.08295e-06
3.08293e-06
3.76644e-06
3.28912e-06
0.147717
0.0142714
0.0461037
0.0454183
0.0214389
0.00988145
0.0355794
0.0596924
0.0748865
0.0392537
0.00102422
2.18572e-05
0.000227041
0.411011
0.126133
3.08155e-06
1.05383e-05
5.9467e-06
8.36804e-06
0.141176
0.0346319
0.0556684
0.0554742
0.0354454
0.030844
0.077521
0.180369
0.0976489
0.000910194
0.000129599
2.22148e-05
0.0080621
0.426866
0.149144
3.08226e-06
4.44984e-06
0.000175071
0.00392432
0.159087
1.49388e-08
2.19375e-08
2.24005e-08
2.28602e-08
2.64335e-05
1.22256e-06
1.73003e-07
1.19494e-07
7.95652e-08
4.72115e-08
3.55044e-08
3.56518e-08
3.54927e-08
4.13838e-08
6.23529e-08
1.01905e-07
7.01252e-07
1.0776e-06
1.3257e-06
1.42465e-06
1.77793e-06
5.98868e-07
0.00280743
1.62413e-08
1.70751e-08
0.000542284
0.0003997
2.90951e-05
2.5916e-08
2.80496e-08
3.258e-08
2.04607e-08
1.1846e-07
2.49827e-07
3.38094e-07
4.08381e-07
4.66427e-07
5.11947e-07
5.33742e-07
0.000469396
0.00100085
0.00367091
0.0118696
0.0226593
0.0277661
0.041872
0.000380339
0.00375142
0.00204655
0.000440371
5.77845e-05
1.1321e-06
1.02154e-08
1.04812e-09
6.48658e-05
0.000601833
0.00160786
0.00330964
0.0090092
0.0227913
0.0416859
0.0651455
0.0872414
0.0921259
0.0892831
0.0891724
0.0929795
0.0930915
0.132966
0.110083
0.0655826
0.00267187
1.00142e-06
1.23114e-07
1.06832e-07
0.0319761
0.100861
0.117434
0.114294
0.117768
0.12613
0.126926
0.13745
0.150295
0.150329
0.150295
0.150281
0.118031
0.0800444
0.0690363
0.0348779
0.0514233
0.116779
0.0564452
0.000421748
1.92822e-05
1.09045e-07
0.00695445
0.165532
0.184675
0.184495
0.180743
0.181947
0.182556
0.149702
0.0590355
0.041682
0.079291
0.0974996
0.0321597
5.81033e-05
2.84099e-08
9.49026e-08
1.96437e-05
0.0141229
0.0703027
0.00921413
0.000119953
-5.50665e-10
0.00380741
0.0421148
0.0455181
0.0182519
0.00389473
0.00714731
0.00669562
0.000587156
1.08267e-07
9.75565e-08
4.37258e-08
3.03603e-08
2.04293e-08
1.23076e-13
4.5647e-16
2.54671e-08
0.000252084
0.000432959
1.4389e-07
0.000611991
1.74876e-07
1.06975e-08
1.28283e-05
7.04316e-05
0.00131302
2.42614e-06
6.90416e-08
6.18865e-08
3.95805e-08
1.41199e-08
1.16792e-08
1.40705e-08
1.16791e-08
1.41559e-08
1.54995e-08
8.38369e-08
9.62474e-08
2.6671e-09
-1.9387e-28
-4.05892e-10
-5.73463e-19
1.81917e-15
0.0556105
0.0519215
0.0508656
0.0570319
0.071775
0.0935712
0.118275
0.142965
0.168886
0.194812
0.219488
0.242748
0.264046
0.281819
0.290584
0.287693
0.278181
0.265519
0.24597
0.214901
0.175523
0.133771
0.0982476
0.797512
0.776373
0.765585
0.775527
0.798109
0.822667
0.850986
0.882754
0.911322
0.932459
0.947245
0.958038
0.965783
0.97049
0.971048
0.96687
0.957967
0.943891
0.924652
0.900718
0.872129
0.839182
0.80793
1
1
1
0.999998
0.999999
1
1
1
1
1
1
1
1
1
1
1
0.999999
0.999998
0.999998
0.999998
0.999997
0.999997
0.999998
0.999999
0.999999
0.999999
0.999999
1
1
0.999999
0.999997
0.999999
0.999999
1
1
1
1
1
1
1
1
1
1
1
1
1
0.999998
0.999997
0.999997
0.999999
0.999999
0.999996
0.999936
0.999874
0.99995
0.999998
0.999999
1
1
1
1
1
1
1
1
1
1
1
1
0.999997
0.999988
0.999973
0.999995
0.999999
0.99995
0.999835
0.999833
0.99985
0.999997
0.999999
0.999999
0.999999
0.999999
1
1
1
1
1
1
1
1
1
0.999996
0.999962
0.999946
0.999969
1
0.999941
0.999835
0.999833
0.999833
0.999977
0.999997
0.999997
0.999999
0.999999
1
1
1
1
1
1
1
1
1
0.999996
0.999957
0.999946
0.999963
1
0.999999
0.999929
0.999838
0.999922
0.999997
0.999997
0.999997
0.999997
0.999999
1
1
1
1
1
1
1
1
1
0.999997
0.999976
0.999951
0.999991
1
1
1
1
1
0.999999
0.999998
0.999997
0.999998
1
1
1
1
1
1
1
1
1
1
0.999998
0.999996
0.999995
0.999999
1
1
1
1
1
1
0.999999
0.999999
0.999999
1
1
1
1
1
1
1
1
1
1
0.999999
0.999999
1
1
1
1
1
1
1
1
0.999999
0.999999
0.999999
1
1
1
1
1
1
1
1
1
1
0.999999
1
1
1
1
1
1
1
1
1
1
0.999999
1
1
1
1
1
1
1
1
1
1
1
0.999999
1
1
1
1
1
1
1
1
1
1
1
1
1
1
1
1
1
1
1
1
1
1
1
1
1
1
1
1
1
1
1
1
1
1
1
1
1
1
1
1
1
1
1
1
1
1
1
1
1
1
1
1
1
1
1
1
1
1
1
1
1
1
1
1
1
1
1
1
1
1
1
1
1
1
1
1
1
1
1
1
1
1
1
1
1
1
1
1
1
1
1
1
1
1
1
1
1
1
1
1
1
1
1
1
1
1
1
1
1
1
1
1
1
1
1
1
1
1
1
1
1
1
1
1
1
1
1
1
1
1
1
1
1
1
1
1
1
1
1
1
1
1
1
1
1
1
1
1
1
1
1
1
1
1
1
1
1
1
1
1
1
1
1
1
1
1
1
1
1
1
1
1
1
1
1
1
1
1
1
1
1
1
1
1
1
1
1
1
1
1
1
1
1
1
1
1
1
1
1
1
1
1
1
1
1
1
1
1
1
1
1
1
1
1
1
1
1
1
1
1
1
1
1
1
1
1
1
1
1
1
1
1
1
1
1
1
1
1
1
1
1
1
1
1
1
1
1
1
1
1
1
1
1
1
1
1
1
1
1
1
1
1
1
1
1
1
1
1
1
1
1
1
1
1
1
1
1
1
1
1
1
1
1
1
1
1
1
1
1
1
1
1
1
1
1
1
1
1
1
1
1
1
1
1
1
1
1
1
1
1
1
1
1
1
1
1
1
1
1
1
1
1
1
1
1
1
1
1
1
1
1
1
1
1
1
1
1
1
1
1
1
1
1
1
1
1
1
1
1
1
1
1
1
1
1
1
1
1
1
1
1
1
1
1
1
1
1
1
1
1
1
1
1
1
1
1
1
1
1
1
1
1
1
1
1
1
1
1
1
1
1
1
1
1
1
1
1
1
1
1
1
1
1
1
1
1
1
1
1
1
1
1
1
1
1
1
1
1
1
1
1
1
1
1
1
1
1
1
1
1
1
1
1
1
1
1
1
1
1
1
1
1
1
1
1
1
1
1
1
1
1
1
1
1
1
1
1
1
1
1
1
1
1
1
1
1
1
1
1
1
1
1
1
1
1
1
1
1
1
1
1
1
1
1
1
1
1
1
1
1
1
1
1
1
1
1
1
1
1
1
1
1
1
1
1
1
1
1
1
1
1
1
1
1
1
1
1
1
1
1
1
1
1
1
1
1
1
1
0.0104613
0.0155417
0.0135844
0.00300033
0.099723
0.11037
0.0513616
0.00535677
0.137192
0.137169
0.137192
0.0776879
0.126979
0.137192
0.137159
0.12358
0.0267552
0.0255715
0.0102369
0.0019582
8.5408e-12
5.10759e-20
-2.59982e-21
3.91542e-23
1.83001e-29
-1.02003e-16
-1.99471e-15
-1.87312e-14
0.0832317
0.0739135
0.065671
0.0571311
0.797094
0.788656
0.779699
0.769192
0.999998
0.999998
0.999999
0.999998
1
1
1
1
1
1
1
1
1
1
1
1
1
1
1
1
1
1
1
1
1
1
1
1
1
1
1
1
1
1
1
1
1
1
1
1
1
1
1
1
1
1
1
1
1
1
1
1
1
1
1
1
1
1
1
1
1
1
1
1
1
1
1
1
1
1
1
1
1
1
1
1
1
1
1
1
1
1
1
1
1
1
1
1
1
1
1
1
1
1
1
1
1
1
1
1
1
1
1
1
1
1
1
1
1
1
1
1
1
1
1
1
1
1
1
1
1
1
1
1
1
1
1
1
1
1
1
1
0.00317018
0.00799248
0.00868613
0.00963538
0.0325744
0.173681
0.180871
0.0617074
0.000566414
0.000557938
0.000360107
0.0189329
0.400152
0.0737423
3.08195e-06
3.09256e-06
0.0107624
0.0490191
0.161317
0.013322
0.0163576
0.0476618
0.0534586
0.157461
0.180871
0.180875
0.12748
0.00738983
2.66066e-07
0.000576961
0.00273212
0.0383745
0.00479085
0.000302494
0.000855359
0.030738
0.0631311
0.0958123
0.091379
0.14962
0.180869
0.18087
0.180867
0.180875
0.180877
0.18081
0.0534676
3.55644e-10
0.00019751
0.000745357
0.000148597
0.000673798
0.000136788
0.00231158
0.0420283
0.0628515
0.0522152
0.0835463
0.119041
0.127908
0.0843539
0.080443
0.177033
0.18088
0.180842
0.0374565
4.67568e-11
5.99921e-06
3.44409e-05
4.53653e-05
4.15772e-05
0.000133574
0.000901791
0.0124622
0.0181775
0.00451602
1.34319e-20
0.00283595
0.000189886
4.82206e-05
0.000310603
0.0602679
0.156287
0.0994517
0.00559222
3.55196e-11
6.71644e-07
1.36011e-07
3.14227e-08
5.83506e-07
0.000121166
0.000220555
1.09048e-05
-4.36332e-11
-6.98729e-26
-2.54173e-24
-1.50018e-24
-1.24466e-24
4.35798e-05
4.92521e-05
0.000952273
0.00767484
0.00258404
5.70324e-08
1.19351e-07
2.70385e-07
1.81643e-07
2.5058e-08
1.08139e-07
1.58985e-05
4.851e-05
2.86943e-05
6.44376e-06
1.22562e-07
-7.08479e-14
6.48571e-25
5.68315e-07
4.88073e-23
-7.86227e-14
-4.28811e-22
6.48798e-16
4.91825e-08
5.81269e-08
6.59578e-08
4.36776e-08
4.46878e-17
1.8177e-08
1.88131e-07
1.95616e-06
2.00968e-08
-3.79246e-22
-7.99407e-09
-2.23799e-10
0.0427149
0.0250597
0.00852327
2.80181e-07
0.000154149
0.000134476
7.77641e-05
8.40456e-05
0.000111041
9.28249e-05
4.36451e-05
1.72079e-05
4.45953e-17
2.16462e-05
0.00175964
0.00784937
0.0145303
0.0208639
0.0157941
0.750459
0.7325
0.707578
0.663968
0.594732
0.521374
0.465405
0.436307
0.424422
0.418192
0.413601
0.41003
0.407447
0.41562
0.492226
0.573051
0.613142
0.62854
0.604533
0.999998
0.999998
0.999998
0.999998
0.999998
0.999986
0.999581
0.997696
0.996355
0.995415
0.995317
0.996182
0.998629
0.998984
0.995631
0.994205
0.994724
0.995629
0.994022
1
1
0.999999
0.999831
0.999546
0.999335
0.999502
0.999976
0.999976
0.999959
0.999917
0.99984
0.999727
0.999567
0.999999
1
1
1
0.999997
1
0.999999
0.999999
0.999633
0.999188
0.999191
0.99926
0.999805
0.99999
0.99998
0.99969
0.99943
0.99943
0.999629
0.999986
0.999999
1
1
1
1
1
1
0.999963
0.999988
0.999982
0.999999
0.99998
0.999997
0.999998
0.999877
0.999605
0.99968
0.999879
0.999997
0.999999
1
1
1
1
1
1
1
1
1
1
0.999999
0.999999
0.999996
0.999998
1
1
1
0.999999
0.999999
1
1
1
1
1
1
1
1
1
1
1
0.999999
0.999999
1
1
1
1
1
1
1
1
1
1
1
1
1
1
1
1
1
1
1
1
1
1
1
1
1
1
1
1
1
1
1
1
1
1
1
1
1
1
1
1
1
1
1
1
1
1
1
1
1
1
1
1
1
1
1
1
1
1
1
1
1
1
1
1
1
1
1
1
1
1
1
1
1
1
1
1
1
1
1
1
1
1
1
1
1
1
1
1
1
1
1
1
1
1
1
1
1
1
1
1
1
1
1
1
1
1
1
1
1
1
1
1
1
1
1
1
1
1
1
1
1
1
1
1
1
1
1
1
1
1
1
1
1
1
1
1
1
1
1
1
1
1
1
1
1
1
1
1
1
1
1
1
1
1
1
1
1
1
1
1
1
1
1
1
1
1
1
1
1
1
1
1
1
1
1
1
1
1
1
1
1
1
1
1
1
1
1
1
1
1
1
1
1
1
1
1
1
1
1
1
1
1
1
1
1
1
1
1
1
1
1
1
1
1
1
1
1
1
1
1
1
1
1
1
1
1
1
1
1
1
1
1
1
1
1
1
1
1
1
1
1
1
1
1
1
1
1
1
1
1
1
1
1
1
1
1
1
1
1
1
1
1
1
1
1
1
1
1
1
1
1
1
1
1
1
1
1
1
1
1
1
1
1
1
1
1
1
1
1
1
1
1
1
1
1
1
1
1
1
1
1
1
1
1
1
1
1
1
1
1
1
1
1
1
1
1
1
1
1
1
1
1
1
1
1
1
1
1
1
1
1
1
1
1
1
1
1
1
1
1
1
1
1
1
1
1
1
1
1
1
1
1
1
1
1
1
1
1
1
1
1
1
1
1
1
1
1
1
1
1
1
1
1
1
1
1
1
1
1
1
1
1
1
1
1
1
1
1
1
1
1
1
1
1
1
1
1
1
1
1
1
1
1
1
1
1
1
1
1
1
1
1
1
1
1
1
1
1
1
1
1
1
1
1
1
1
1
1
1
1
1
1
1
1
1
1
1
1
1
1
1
1
1
1
1
1
1
1
1
1
1
1
1
1
1
1
1
1
1
1
1
1
1
1
1
1
1
1
1
1
1
1
1
1
1
1
1
1
1
1
1
1
1
1
1
1
1
1
1
1
1
1
1
1
1
1
1
1
1
1
1
1
1
1
1
1
1
1
1
1
1
1
1
1
1
1
1
1
1
1
1
1
)
;

boundaryField
{
    leftWall
    {
        type            alphaContactAngle;
        contactAngleProperties 
        {
            mercury         
            {
                theta0          90;
            }
            water           
            {
                theta0          90;
            }
            oil             
            {
                theta0          90;
            }
        }
        value           nonuniform List<scalar> 
50
(
6.06162e-13
1.8721e-12
4.17355e-12
9.97421e-12
1.25092e-11
2.43439e-10
1.97353e-10
3.8677e-09
1.49388e-08
1.62413e-08
0.000380339
0.110083
0.116779
0.0703027
0.000611991
0.0556105
0.797512
1
0.999999
0.999998
0.999997
0.999996
0.999996
0.999997
0.999998
0.999999
0.999999
0.999999
1
1
1
1
1
1
1
1
1
1
1
1
1
1
1
1
1
1
1
1
1
1
)
;
    }
    rightWall
    {
        type            alphaContactAngle;
        contactAngleProperties 
        {
            mercury         
            {
                theta0          90;
            }
            water           
            {
                theta0          90;
            }
            oil             
            {
                theta0          90;
            }
        }
        value           nonuniform List<scalar> 
50
(
0.0131927
0.0131918
0.0530946
0.256899
0.173847
0.147717
0.141176
0.159087
0.161317
0.0958123
0.0522152
0.00451602
-6.98729e-26
1.22562e-07
-2.23799e-10
0.0157941
0.604533
0.994022
0.999997
1
1
1
1
1
1
1
1
1
1
1
1
1
1
1
1
1
1
1
1
1
1
1
1
1
1
1
1
1
1
1
)
;
    }
    lowerWall
    {
        type            alphaContactAngle;
        contactAngleProperties 
        {
            mercury         
            {
                theta0          90;
            }
            water           
            {
                theta0          90;
            }
            oil             
            {
                theta0          90;
            }
        }
        value           nonuniform List<scalar> 
62
(
6.06162e-13
7.29155e-13
7.95136e-13
6.3737e-13
4.11101e-13
2.1517e-13
9.57084e-14
4.50161e-14
3.44615e-14
3.80313e-14
5.90452e-14
1.16209e-13
2.36627e-13
4.18239e-13
7.95433e-13
1.34022e-12
1.93312e-12
2.32046e-12
4.82728e-12
1.32768e-11
2.27491e-11
6.29858e-11
3.56743e-10
3.56743e-10
7.16367e-09
2.35045e-08
2.28474e-08
1.26389e-08
0.000466665
0.00322159
0.00308896
0.0104613
0.0155417
0.0135844
0.00300033
0.000368082
0.000368082
0.00375283
0.0149433
0.0125578
0.00984377
0.0142714
0.0346319
0.000368082
0.0114772
0.0344221
0.043059
0.056525
0.0565201
0.0565548
0.0477547
0.0454514
0.0454564
0.0655467
0.0603184
0.0656394
0.0614644
0.0483793
0.0147402
0.0138209
0.0135083
0.0131927
)
;
    }
    atmosphere
    {
        type            inletOutlet;
        inletValue      uniform 1;
        value           nonuniform List<scalar> 
46
(
1
1
1
1
1
1
1
1
1
1
1
1
1
1
1
1
1
1
1
1
1
1
1
1
1
1
1
1
1
1
1
1
1
1
1
1
1
1
1
1
1
1
1
1
1
1
)
;
    }
    defaultFaces
    {
        type            empty;
    }
}


// ************************************************************************* //
