/*--------------------------------*- C++ -*----------------------------------*\
  =========                 |
  \\      /  F ield         | OpenFOAM: The Open Source CFD Toolbox
   \\    /   O peration     | Website:  https://openfoam.org
    \\  /    A nd           | Version:  13
     \\/     M anipulation  |
\*---------------------------------------------------------------------------*/
FoamFile
{
    format      ascii;
    class       volScalarField;
    location    "2.95";
    object      alpha.water;
}
// * * * * * * * * * * * * * * * * * * * * * * * * * * * * * * * * * * * * * //

dimensions      [];

internalField   nonuniform List<scalar> 
2268
(
1.09901e-10
1.37846e-10
1.54051e-10
1.61185e-10
1.69655e-10
1.77559e-10
1.84944e-10
1.9137e-10
1.9753e-10
2.05927e-10
2.19836e-10
2.45466e-10
2.84366e-10
3.30737e-10
3.97726e-10
4.85184e-10
6.22579e-10
9.19448e-10
1.708e-09
2.52313e-09
2.76871e-09
2.76841e-09
2.7576e-09
2.04695e-10
2.51798e-10
2.63074e-10
2.56498e-10
2.82532e-10
3.18415e-10
3.65364e-10
4.16197e-10
4.6543e-10
5.03586e-10
5.43949e-10
5.75262e-10
6.03499e-10
6.31124e-10
6.63739e-10
7.18502e-10
8.17813e-10
9.97613e-10
1.41323e-09
2.09708e-09
2.46024e-09
2.43862e-09
1.79406e-09
3.56882e-10
1.00993e-09
1.34187e-09
1.13892e-09
8.27711e-10
5.5379e-10
4.47256e-10
5.4786e-10
6.66654e-10
7.82147e-10
8.84347e-10
9.47756e-10
9.70182e-10
9.58142e-10
8.88774e-10
8.76387e-10
9.32116e-10
1.08472e-09
1.39872e-09
1.59781e-09
1.67614e-09
1.59755e-09
8.6308e-10
1.63216e-10
3.29716e-10
5.45479e-10
6.06861e-10
1.06004e-09
1.85657e-09
1.48148e-09
3.54646e-10
4.68625e-10
5.62722e-10
6.58666e-10
6.63357e-10
6.97487e-10
7.13107e-10
6.58074e-10
6.27003e-10
6.15197e-10
5.83845e-10
5.82422e-10
5.97186e-10
5.40638e-10
3.92078e-10
3.14336e-10
1.50576e-10
7.11942e-10
1.06717e-10
1.14102e-10
8.97741e-11
8.89919e-11
1.51904e-10
2.29153e-10
2.28118e-10
1.9494e-09
1.16528e-08
1.60249e-08
1.26941e-08
5.79818e-10
4.94976e-11
1.16777e-19
3.03043e-11
-8.95938e-12
2.91477e-11
-9.17196e-12
3.03117e-11
-5.27194e-12
4.14555e-11
1.48148e-10
6.25894e-08
1.54575e-08
1.17495e-08
6.7255e-08
6.97289e-08
5.40106e-08
5.10015e-08
1.80244e-07
0.000918579
0.00723772
0.0125689
0.0173813
0.0237067
0.0315827
0.0407575
0.050828
0.0610327
0.0702748
0.0774815
0.0832354
0.0920602
0.106686
0.198634
0.266809
0.313277
0.34661
0.380309
0.414897
0.449138
0.48248
0.514993
0.545284
0.572602
0.602396
0.634995
0.667673
0.699445
0.729102
0.755812
0.778335
0.795574
0.807401
0.815705
0.8274
0.849406
0.922726
0.957048
0.971863
0.9796
0.985483
0.990128
0.993657
0.996209
0.998178
1
1
1
1
1
1
1
1
1
0.999997
0.999974
0.999832
0.998846
0.996911
0.00722984
0.0384183
0.0457148
0.0385271
0.0115842
0.0011122
0.00109554
0.000871297
0.000871296
0.000871297
0.0129525
0.0579418
0.124412
0.124382
0.124389
0.123529
0.0427205
0.00275035
0.0111696
0.0072298
0.00720681
0.0175412
0.0699378
0.0763248
0.0469041
0.0344722
0.0716839
0.0484972
0.0056637
0.00146682
0.0258407
0.0429235
0.0487395
0.0627316
0.0237133
0.00218579
0.00273665
0.0111568
0.00720681
0.00723694
0.00718279
0.0446025
0.291982
0.430082
0.456148
0.500084
0.422763
0.0916971
0.000830985
0.000822268
0.000599667
0.00059231
0.00058815
0.000588161
0.000586483
0.000587109
0.000610994
0.229739
0.219423
0.244762
0.358572
0.436359
0.566962
0.715986
0.80274
0.803746
0.624176
0.207163
0.0148123
0.000605686
0.000600872
0.0234299
0.084221
0.209279
0.264026
0.070554
0.636579
0.840305
0.809624
0.843275
0.663424
0.314737
0.264905
0.238191
0.443157
0.909266
0.85893
0.423103
0.036086
0.0697334
0.560312
0.814631
0.864867
0.973337
0.518261
0.921368
0.919326
0.917623
0.909267
0.536133
0.199178
0.149289
0.141318
0.309501
0.89394
0.999118
0.914277
0.275261
0.464514
0.982271
0.999829
0.999832
0.999826
0.667774
0.923551
0.918974
0.91797
0.932402
0.541047
0.129361
0.125087
0.404169
0.882645
0.984949
0.999485
0.999484
0.450608
0.576275
0.999798
0.999819
0.999829
0.999681
0.833274
0.942829
0.905947
0.905057
0.944819
0.777009
0.168616
0.182478
0.772557
0.996793
0.99948
0.999485
0.980785
0.425549
0.565632
0.980629
0.999819
0.99966
0.994694
0.84047
0.999999
1
0.999991
0.999986
0.999974
0.999999
1
1
1
1
1
1
1
1
1
1
0.999999
0.999999
0.999999
0.999999
0.999998
0.999998
0.997193
1
1
0.999457
0.9996
0.999971
1
1
1
1
1
1
1
1
1
0.999999
0.999999
0.999531
0.998999
0.996329
0.98813
0.976331
0.965213
0.9521
0.99962
0.996249
0.997953
0.99956
0.999942
0.999999
1
1
0.999935
0.999398
0.998392
0.99669
0.990991
0.977209
0.957454
0.928277
0.890424
0.836443
0.731907
0.593985
0.477625
0.385731
0.378531
0.889917
0.901842
0.852628
0.810394
0.796724
0.826893
0.889678
0.873893
0.849109
0.825607
0.787929
0.73347
0.641862
0.513123
0.408738
0.345099
0.267326
0.14787
0.040151
2.44526e-16
3.00348e-19
2.43856e-16
-1.31705e-19
0.436091
0.226949
0.109792
0.0817157
0.0721418
0.087072
0.146956
0.170138
0.143722
0.101279
0.0619799
0.0214746
2.19082e-19
1.81252e-26
-1.01352e-26
5.74209e-27
1.16381e-18
6.81069e-19
9.91749e-17
2.10695e-09
1.08906e-08
7.37375e-08
1.10628e-06
0.000988865
4.60156e-05
2.57929e-05
0.000133367
3.26579e-09
-1.3193e-20
3.87587e-20
-7.57283e-28
-4.7444e-29
-1.5635e-18
-7.13567e-19
-7.58282e-18
6.92339e-10
7.0203e-09
8.73846e-09
7.36652e-09
1.02628e-08
1.98498e-08
8.41862e-08
1.43794e-07
2.99173e-07
1.34956e-06
8.0975e-06
4.41935e-05
0.000391222
0.000127251
5.08892e-05
4.67217e-06
-4.78439e-12
1.30148e-08
6.04806e-09
4.47901e-09
3.04583e-09
2.14424e-09
2.87397e-09
2.26814e-08
5.94418e-08
5.88458e-08
3.39016e-08
3.7153e-08
4.18519e-08
1.98952e-07
2.96184e-07
3.21815e-07
6.29937e-07
2.0397e-06
8.39284e-05
0.00056076
0.000268476
9.02201e-08
9.44486e-08
2.18787e-07
2.40842e-07
1.59208e-07
3.73008e-08
1.35329e-09
1.35011e-09
1.35329e-09
9.50311e-08
1.94611e-07
1.94611e-07
1.3005e-07
1.45307e-07
2.07419e-07
2.07737e-07
9.77089e-08
2.03319e-08
2.86014e-08
1.70455e-06
2.18529e-05
0.000266471
0.000138845
1.37705e-06
9.03654e-08
1.97545e-07
2.59761e-07
2.5707e-07
1.22163e-07
6.05467e-09
1.42722e-09
1.35017e-09
5.59934e-08
1.88975e-07
1.94611e-07
1.49065e-07
2.27262e-08
1.3858e-08
2.10752e-08
2.82497e-10
2.82275e-10
1.37676e-07
6.64663e-07
2.8337e-07
2.94676e-07
3.49507e-07
1.97592e-06
5.11657e-07
1.21221e-07
7.98285e-08
6.43647e-08
6.4406e-08
5.27024e-08
3.19355e-08
2.0147e-08
8.45251e-09
7.63091e-09
1.06152e-08
9.40228e-09
3.73359e-09
2.62885e-09
1.19893e-09
6.22968e-10
2.44785e-09
3.7679e-08
2.1011e-09
3.19395e-07
6.26809e-07
8.96966e-07
5.88528e-07
1.14981e-09
1.83296e-08
4.6001e-08
1.21725e-07
2.51592e-07
1.93558e-07
9.22824e-08
5.46664e-08
4.84079e-08
3.98819e-08
3.74811e-08
1.60247e-08
5.14382e-09
2.85567e-09
1.95218e-09
1.51819e-09
1.56368e-09
4.97722e-09
1.81833e-09
4.75845e-07
2.03995e-06
2.87065e-06
4.82703e-07
2.58418e-11
2.6239e-11
3.74688e-07
2.07965e-06
2.60888e-06
1.35669e-06
5.7069e-07
4.14995e-07
3.18001e-07
2.61676e-07
1.21216e-07
1.48083e-08
5.04831e-09
4.70774e-09
3.75436e-09
2.60057e-09
1.28768e-09
5.89756e-10
9.88132e-10
8.33432e-07
4.00768e-06
4.21076e-06
6.54054e-07
2.58861e-11
2.58418e-11
8.87068e-07
2.85016e-06
3.17181e-06
3.12436e-06
1.19821e-06
9.02206e-07
6.11157e-07
3.85159e-07
1.3941e-07
4.98578e-08
5.95578e-09
6.06282e-09
4.13478e-09
2.63482e-09
1.36891e-09
5.35e-10
4.05467e-10
5.38024e-07
3.7594e-06
4.16042e-06
1.91351e-06
2.58418e-11
2.64944e-11
3.2487e-07
2.16375e-06
2.88837e-06
3.36721e-06
3.36771e-06
2.54008e-06
1.10891e-06
5.27896e-07
1.01675e-07
3.49838e-08
1.30117e-08
9.47011e-09
7.70958e-09
5.92574e-09
3.94243e-09
2.21268e-09
5.61137e-10
1.94163e-07
2.10371e-06
4.04028e-06
1.46339e-06
5.40267e-11
4.14371e-11
4.25906e-11
1.63046e-11
1.37153e-06
3.30598e-06
3.36621e-06
3.36771e-06
3.16024e-06
6.20741e-07
1.19505e-08
1.22295e-08
1.18608e-08
1.39147e-08
1.89034e-08
1.68567e-08
1.21858e-08
8.39337e-09
2.63269e-09
6.29468e-08
3.70003e-07
1.17235e-06
4.02196e-07
5.43633e-10
1.08492e-10
1.40422e-10
2.91603e-09
7.04772e-08
7.03719e-07
2.43306e-06
3.35983e-06
2.33796e-06
2.79835e-07
1.18732e-08
1.31712e-08
1.17667e-08
1.3766e-08
1.9781e-08
1.97621e-08
1.87116e-08
1.25265e-08
8.76707e-09
1.51625e-08
4.662e-09
4.71246e-09
5.2747e-09
1.38634e-08
1.02788e-09
6.47538e-10
1.97173e-09
8.00484e-09
4.72375e-08
2.39448e-07
6.63172e-07
5.79066e-07
9.55387e-08
5.00998e-08
5.85506e-08
4.70563e-08
7.95153e-09
1.13609e-08
1.74962e-08
1.71758e-08
1.18767e-08
9.19293e-09
1.38792e-08
8.34841e-09
7.81028e-09
4.67719e-09
3.79717e-09
1.31074e-09
8.1178e-10
2.29696e-09
7.26612e-09
2.06261e-08
3.53087e-08
3.60438e-08
3.99664e-09
2.20856e-08
4.40418e-08
5.76941e-08
3.40161e-08
7.79932e-09
8.01391e-09
1.15452e-08
1.12833e-08
8.77368e-09
7.14711e-09
1.95769e-08
1.69344e-08
1.5092e-08
5.26031e-09
2.81807e-09
1.41092e-09
7.35808e-10
1.23467e-09
2.14891e-09
3.40757e-09
4.48719e-09
3.34231e-09
2.05792e-09
1.20197e-08
2.60002e-08
2.97704e-08
2.36558e-08
1.05515e-08
6.80185e-09
7.477e-09
7.33426e-09
6.44112e-09
5.20963e-09
1.98172e-08
1.53309e-08
1.55278e-08
5.74255e-09
2.88289e-09
1.79601e-09
1.20562e-09
1.32945e-09
1.66442e-09
2.00223e-09
2.35051e-09
2.03936e-09
1.26418e-09
3.16234e-09
9.56497e-09
1.25712e-08
1.16217e-08
8.15735e-09
5.46225e-09
4.66087e-09
4.18626e-09
3.69778e-09
3.39915e-09
1.95752e-08
1.22927e-08
1.35757e-08
5.31339e-09
3.03603e-09
2.06781e-09
1.57318e-09
1.39108e-09
1.34944e-09
1.46186e-09
1.60683e-09
1.54863e-09
1.25456e-09
1.54318e-09
3.75083e-09
5.39509e-09
5.41459e-09
4.56091e-09
3.44284e-09
2.62603e-09
2.18886e-09
1.99744e-09
1.87008e-09
1.90679e-08
1.00783e-08
9.06861e-09
4.67885e-09
2.92571e-09
2.07546e-09
1.61908e-09
1.34209e-09
1.15514e-09
1.05091e-09
1.01813e-09
9.23253e-10
8.15048e-10
8.43409e-10
1.49598e-09
2.25186e-09
2.43074e-09
2.14613e-09
1.67004e-09
1.26224e-09
9.759e-10
8.47955e-10
8.50411e-10
1.83767e-08
8.09585e-09
6.42525e-09
3.84003e-09
2.67823e-09
2.00783e-09
1.58326e-09
1.2859e-09
1.04785e-09
8.3445e-10
6.55297e-10
5.58223e-10
4.71883e-10
4.55069e-10
6.14216e-10
8.62279e-10
9.69707e-10
8.79875e-10
6.91828e-10
5.17214e-10
3.87048e-10
3.29995e-10
3.27617e-10
1.81927e-08
6.98697e-09
4.61231e-09
3.12809e-09
2.39037e-09
1.87706e-09
1.50112e-09
1.1944e-09
9.35162e-10
7.01023e-10
5.18461e-10
3.85026e-10
2.91565e-10
2.52999e-10
2.56621e-10
3.06254e-10
3.40584e-10
3.12892e-10
2.47934e-10
1.87133e-10
1.37559e-10
1.07985e-10
1.07502e-10
1.81388e-08
6.33355e-09
3.3476e-09
2.59406e-09
2.12697e-09
1.70854e-09
1.35664e-09
1.05946e-09
8.08976e-10
5.98563e-10
4.32106e-10
3.03469e-10
2.12089e-10
1.56122e-10
1.27577e-10
1.15225e-10
1.11456e-10
9.90002e-11
7.81894e-11
5.94532e-11
4.26007e-11
3.3945e-11
3.31411e-11
1.81248e-08
6.39163e-09
2.77034e-09
2.29143e-09
1.91622e-09
1.52562e-09
1.17649e-09
8.89227e-10
6.6132e-10
4.82593e-10
3.47037e-10
2.43713e-10
1.6637e-10
1.12075e-10
7.54117e-11
5.43071e-11
4.13501e-11
3.16247e-11
2.40758e-11
1.79912e-11
1.35476e-11
1.05324e-11
9.76129e-12
1.8013e-08
7.40049e-09
2.72518e-09
2.19286e-09
1.75175e-09
1.33476e-09
9.86257e-10
7.1498e-10
5.11984e-10
3.64933e-10
2.6001e-10
1.81753e-10
1.2499e-10
8.33104e-11
5.30441e-11
3.34694e-11
2.09409e-11
1.37571e-11
8.86168e-12
6.25785e-12
4.71414e-12
3.5822e-12
3.19514e-12
1.72264e-08
7.70287e-09
3.28573e-09
2.22261e-09
1.60205e-09
1.14025e-09
7.93219e-10
5.424e-10
3.72287e-10
2.5672e-10
1.77447e-10
1.21509e-10
8.25129e-11
5.49881e-11
3.51504e-11
2.14846e-11
1.27775e-11
7.61101e-12
4.31582e-12
2.64655e-12
1.85328e-12
1.28329e-12
1.09486e-12
1.56366e-08
7.38247e-09
3.77016e-09
2.21613e-09
1.45128e-09
9.54842e-10
6.19004e-10
3.95196e-10
2.53639e-10
1.64709e-10
1.08297e-10
7.13826e-11
4.74681e-11
3.13858e-11
2.02339e-11
1.23383e-11
7.35121e-12
4.20361e-12
2.24399e-12
1.23116e-12
7.39787e-13
4.67661e-13
3.64814e-13
1.44492e-08
6.85786e-09
3.63709e-09
2.08866e-09
1.27266e-09
7.77846e-10
4.67831e-10
2.77314e-10
1.65128e-10
9.95698e-11
6.12488e-11
3.78109e-11
2.41972e-11
1.51568e-11
9.807e-12
6.07821e-12
3.58034e-12
2.02379e-12
1.04091e-12
5.26973e-13
2.94259e-13
1.60352e-13
1.17987e-13
1.19844e-08
6.09967e-09
3.29318e-09
1.84135e-09
1.05747e-09
6.06018e-10
3.39496e-10
1.86516e-10
1.01915e-10
5.64871e-11
3.16536e-11
1.82482e-11
1.05027e-11
6.54904e-12
4.09456e-12
2.49451e-12
1.46006e-12
8.18452e-13
4.14887e-13
2.05998e-13
9.97837e-14
5.3959e-14
3.51097e-14
1.02838e-08
5.23623e-09
2.79213e-09
1.50989e-09
8.22629e-10
4.44144e-10
2.29033e-10
1.16865e-10
5.89521e-11
2.99519e-11
1.49606e-11
7.65049e-12
4.3117e-12
2.49152e-12
1.46868e-12
8.80555e-13
5.06461e-13
2.79569e-13
1.38079e-13
6.54081e-14
3.21625e-14
1.53126e-14
9.44838e-15
7.82436e-09
4.07576e-09
2.14368e-09
1.11727e-09
5.76483e-10
2.92967e-10
1.43069e-10
6.78994e-11
3.19413e-11
1.37047e-11
6.37693e-12
3.0924e-12
1.56407e-12
8.40791e-13
4.68842e-13
2.69169e-13
1.4251e-13
7.76642e-14
3.74313e-14
1.70976e-14
7.6021e-15
3.79602e-15
2.17593e-15
5.98771e-09
3.02642e-09
1.4716e-09
7.43397e-10
3.68024e-10
1.70537e-10
7.74353e-11
3.40103e-11
1.43312e-11
6.19103e-12
2.57534e-12
1.12009e-12
5.05803e-13
2.51279e-13
1.27942e-13
6.79674e-14
3.58918e-14
1.85958e-14
8.57999e-15
3.81499e-15
1.70152e-15
8.01363e-16
4.28005e-16
3.42381e-09
1.66959e-09
8.08534e-10
3.87429e-10
1.82272e-10
8.26454e-11
3.629e-11
1.49255e-11
6.03007e-12
2.3552e-12
9.11579e-13
3.52498e-13
1.43124e-13
6.39731e-14
3.11219e-14
1.57628e-14
7.95132e-15
3.81644e-15
1.71786e-15
6.97699e-16
2.96735e-16
1.40457e-16
7.21753e-17
2.05528e-09
9.32004e-10
4.29831e-10
1.9786e-10
8.82419e-11
3.77255e-11
1.55332e-11
6.09975e-12
2.30098e-12
8.12913e-13
2.82658e-13
9.90708e-14
3.67298e-14
1.49105e-14
6.84334e-15
3.30475e-15
1.5738e-15
7.06516e-16
2.97424e-16
1.1495e-16
4.6964e-17
2.09861e-17
1.01528e-17
8.37555e-10
4.06687e-10
1.88912e-10
8.40558e-11
3.604e-11
1.47858e-11
5.85692e-12
2.1066e-12
7.36403e-13
2.42819e-13
7.67318e-14
2.42815e-14
8.318e-15
3.20627e-15
1.37743e-15
6.18084e-16
2.73576e-16
1.14127e-16
4.47181e-17
1.66716e-17
6.48136e-18
2.7175e-18
1.20696e-18
3.13843e-10
1.43654e-10
6.41246e-11
2.82536e-11
1.20116e-11
4.88531e-12
1.79385e-12
6.52137e-13
2.11743e-13
6.52709e-14
1.91013e-14
5.54342e-15
1.72539e-15
6.10069e-16
2.41604e-16
1.01322e-16
4.15714e-17
1.5961e-17
5.77969e-18
2.04338e-18
7.53418e-19
2.95086e-19
1.23079e-19
6.68872e-11
3.17594e-11
1.57921e-11
7.34422e-12
3.27683e-12
1.3602e-12
5.08396e-13
1.74572e-13
5.30108e-14
1.55596e-14
4.12888e-15
1.08876e-15
3.10989e-16
1.02464e-16
3.81758e-17
1.48605e-17
5.59028e-18
1.96843e-18
6.60375e-19
2.18602e-19
7.60374e-20
2.71495e-20
1.12006e-20
7.18993e-12
4.1462e-12
2.39484e-12
1.45359e-12
7.23663e-13
3.15763e-13
1.16077e-13
4.00957e-14
1.22901e-14
3.37252e-15
8.46092e-16
2.05503e-16
5.29577e-17
1.60292e-17
5.49637e-18
1.96186e-18
6.67008e-19
2.1234e-19
6.5385e-20
1.9994e-20
6.19843e-21
2.08231e-21
2.60631e-22
1.28719e-13
1.77311e-13
2.30488e-13
2.01693e-13
1.25294e-13
6.13479e-14
2.47191e-14
8.59788e-15
2.60943e-15
6.96404e-16
1.65672e-16
3.67331e-17
8.39755e-18
2.30347e-18
7.17634e-19
2.2935e-19
6.8136e-20
1.94558e-20
5.54582e-21
1.55006e-21
4.76585e-22
4.73229e-23
1.35309e-24
7.8396e-21
1.2826e-15
1.19595e-14
2.58193e-14
2.00731e-14
1.09168e-14
4.68005e-15
1.67146e-15
5.11531e-16
1.34657e-16
3.09572e-17
6.47425e-18
1.3375e-18
3.34e-19
8.99738e-20
2.40546e-20
6.07793e-21
1.55371e-21
4.11398e-22
1.023e-22
1.99654e-23
5.78287e-25
5.30541e-27
0.977679
0.959495
0.942717
0.947208
0.895993
0.872986
0.887538
0.929163
0.377355
0.288015
0.221617
0.262361
8.84507e-05
1.65413e-11
2.46537e-16
-1.41866e-18
1.46485e-06
2.60519e-06
2.15791e-05
2.18059e-05
1.23866e-05
1.22028e-05
8.16406e-06
1.56627e-05
4.08166e-06
4.86267e-06
7.92657e-06
1.10419e-05
2.53695e-06
9.15715e-07
1.43646e-06
2.17804e-06
5.90648e-07
3.55615e-10
2.30258e-10
1.26649e-09
3.64632e-10
4.93503e-10
3.63557e-09
6.27662e-09
1.87017e-09
2.07721e-09
6.11393e-09
1.39626e-08
9.54112e-10
8.77668e-10
1.77065e-09
4.22086e-09
2.91166e-10
2.442e-10
3.52806e-10
7.72186e-10
3.365e-10
2.99822e-10
2.35342e-10
2.28016e-10
8.07933e-10
8.35887e-10
5.56934e-10
3.15334e-10
2.53812e-09
1.45667e-09
1.19277e-09
7.23381e-10
7.78306e-09
3.09843e-09
2.3209e-09
1.85979e-09
6.28771e-09
6.03793e-09
4.85824e-09
3.32984e-09
4.47409e-09
4.05216e-09
3.89331e-09
3.69107e-09
2.91269e-09
2.70484e-09
2.54642e-09
2.4571e-09
1.71362e-09
1.61838e-09
1.56904e-09
1.48489e-09
8.36891e-10
8.20359e-10
8.21335e-10
7.96755e-10
3.29723e-10
3.54337e-10
3.6965e-10
3.64936e-10
1.0948e-10
1.09604e-10
1.29985e-10
1.33769e-10
3.24858e-11
3.13751e-11
3.61395e-11
3.85049e-11
9.70947e-12
8.57211e-12
9.51167e-12
1.03982e-11
2.98287e-12
2.73581e-12
2.75547e-12
2.68807e-12
1.01876e-12
8.45259e-13
8.08472e-13
8.24691e-13
3.37299e-13
2.93595e-13
2.7421e-13
2.50433e-13
1.03413e-13
8.80413e-14
7.8979e-14
7.40312e-14
2.91547e-14
2.51935e-14
2.25296e-14
2.01848e-14
7.35651e-15
6.05887e-15
5.24847e-15
4.6261e-15
1.67456e-15
1.36361e-15
1.1263e-15
9.3087e-16
3.14149e-16
2.4679e-16
2.01156e-16
1.6028e-16
5.20287e-17
3.9358e-17
3.04015e-17
2.23588e-17
7.06926e-18
5.08903e-18
3.79868e-18
2.53747e-18
7.89754e-19
5.38782e-19
4.14886e-19
2.28726e-19
8.00904e-20
4.05805e-20
1.7269e-20
4.77151e-21
2.48816e-21
7.56461e-22
2.51463e-22
3.87805e-23
5.62767e-24
3.78374e-24
4.25909e-25
4.07094e-26
1.6024e-27
7.75537e-29
1.25592e-27
8.49101e-28
3.84786e-43
5.66419e-29
2.16765e-28
6.66233e-28
0.98331
0.984083
0.964801
0.958918
0.935408
0.425404
0.469427
0.908478
0.999405
0.999412
0.999485
0.960773
0.42352
0.836936
0.999519
0.99979
0.972675
0.834256
0.838425
0.980819
0.979514
0.930965
0.928077
0.822757
0.563446
0.60225
0.859675
0.974794
0.989969
0.994028
0.991344
0.898348
0.962913
0.865124
0.65495
0.516038
0.696977
0.846007
0.462127
0.529195
0.483417
0.641812
0.664419
0.382659
0.492338
0.640108
0.424579
0.30304
0.301182
0.424063
0.539929
0.349959
0.145125
0.103024
0.131521
0.254737
0.372773
2.4488e-13
5.30078e-13
0.0178293
0.063215
0.0614228
0.0487028
0.101584
0.0843045
0.00355565
0.000468504
3.73806e-08
0.000226957
0.00346254
1.66012e-19
2.15894e-19
-1.62295e-19
-1.30637e-09
-9.87158e-20
1.40479e-19
6.71377e-07
1.91194e-09
5.30078e-13
1.55632e-08
2.90633e-20
-1.17559e-20
1.01039e-19
3.6375e-15
7.46032e-10
1.81456e-05
3.7154e-08
4.02512e-08
3.29371e-07
5.1413e-07
2.60093e-07
1.71657e-18
3.03181e-06
2.79336e-05
6.19211e-05
1.55059e-05
1.06772e-05
3.08177e-06
4.86577e-06
7.56178e-06
5.54017e-06
9.0809e-18
7.25273e-11
1.27416e-09
1.38859e-09
4.80732e-08
1.13305e-07
3.6076e-07
5.9586e-07
2.51807e-08
-1.61711e-18
2.20909e-08
1.38347e-05
1.49174e-05
7.90363e-06
3.38744e-06
1.57246e-06
2.10968e-06
3.4295e-06
2.92278e-06
3.2806e-07
3.23976e-11
6.63934e-09
1.19498e-08
4.65535e-08
4.72585e-07
1.1045e-05
1.35703e-05
1.11306e-05
1.78019e-05
0.000209508
0.000369355
0.000298761
1.35109e-06
5.87086e-07
9.26075e-08
2.09667e-07
4.94446e-07
7.18537e-07
1.50797e-07
8.68015e-09
1.09228e-08
9.69201e-08
3.73696e-08
4.38439e-08
3.15266e-06
1.32979e-05
0.00130648
0.00525809
0.00723187
0.00762954
0.00734222
1.12985e-09
1.26648e-09
1.27332e-08
2.75333e-08
4.13443e-08
3.64811e-07
7.86337e-07
4.54696e-07
9.0663e-07
7.38908e-06
8.77875e-06
8.61019e-06
3.21716e-06
0.000415858
0.00687108
0.00967024
0.00967353
0.00967019
0.00967349
1.22311e-08
2.07667e-08
4.6322e-08
7.27104e-08
8.67195e-08
4.29107e-07
1.2975e-06
3.84542e-06
6.24096e-06
9.6323e-06
5.30858e-05
0.000177252
0.000202983
0.000869331
0.00354741
0.00461981
0.00395509
0.00314905
0.00501828
2.37591e-08
3.66368e-08
3.6644e-08
1.86022e-08
3.60989e-08
1.16348e-07
3.54231e-08
1.47556e-06
1.76946e-05
3.18945e-05
6.12413e-05
0.000126942
0.000225669
0.000348584
8.08174e-10
1.36665e-09
2.2721e-10
1.09979e-11
9.44471e-10
6.24434e-09
8.41377e-09
5.92267e-09
1.29623e-10
1.62672e-10
1.5397e-10
1.45361e-10
6.37136e-08
7.61229e-06
1.543e-05
2.09988e-05
1.55814e-05
1.79312e-05
1.89129e-08
3.50134e-08
4.3587e-08
9.28181e-09
1.31712e-09
1.65692e-07
1.13481e-09
1.23347e-09
4.22969e-10
1.29904e-10
3.05083e-10
8.7597e-10
1.67872e-09
1.77536e-09
5.64695e-07
1.50276e-06
6.50308e-10
6.6104e-10
6.59129e-10
1.98518e-08
1.86337e-09
5.03166e-09
1.15912e-08
6.42942e-09
1.11117e-07
2.35647e-10
1.89978e-10
1.43603e-10
2.15655e-10
4.73791e-10
1.34711e-09
4.89174e-09
9.62037e-09
6.53065e-09
6.45982e-08
1.5904e-09
7.4986e-10
7.15701e-10
1.78432e-09
4.32636e-09
1.80721e-08
2.26006e-08
1.75071e-08
1.20369e-08
1.98129e-10
1.20744e-10
1.40275e-10
1.91098e-10
2.85731e-10
4.43133e-10
8.84894e-10
2.50123e-09
2.17481e-09
2.83944e-09
3.51111e-09
1.34924e-09
7.4692e-10
2.92743e-09
7.79631e-09
1.67e-08
1.97554e-08
1.31618e-08
8.70524e-09
3.58191e-10
1.29175e-10
1.34081e-10
1.48071e-10
1.92337e-10
3.07909e-10
5.10954e-10
1.06096e-09
1.26288e-09
1.25457e-09
1.24499e-09
6.08098e-10
5.67346e-10
2.20148e-09
5.27162e-09
9.20672e-09
9.53912e-09
7.41505e-09
8.67046e-09
9.50193e-10
2.73797e-10
1.56742e-10
1.47911e-10
1.57516e-10
1.86339e-10
2.33603e-10
4.02704e-10
5.41927e-10
5.72673e-10
4.78204e-10
3.38453e-10
3.47289e-10
9.65608e-10
2.28567e-09
2.99055e-09
3.20394e-09
2.6784e-09
3.6993e-09
1.91923e-09
8.33127e-10
3.64734e-10
2.11671e-10
1.61281e-10
1.57844e-10
1.65152e-10
1.88892e-10
2.30577e-10
2.45674e-10
2.24955e-10
1.76321e-10
1.68329e-10
3.00031e-10
5.96693e-10
7.65105e-10
6.96443e-10
5.07612e-10
5.80646e-10
2.91897e-09
1.46449e-09
7.60292e-10
4.21776e-10
2.32931e-10
1.50376e-10
1.21627e-10
1.14513e-10
1.14e-10
1.10176e-10
9.75999e-11
7.75537e-11
6.74388e-11
7.6214e-11
1.03014e-10
1.10578e-10
8.01702e-11
4.11415e-11
1.40251e-11
2.34121e-09
1.69718e-09
1.00904e-09
6.31639e-10
3.73846e-10
1.99781e-10
1.09638e-10
7.38708e-11
5.95772e-11
5.22584e-11
4.49991e-11
3.55576e-11
2.44446e-11
1.73039e-11
1.31729e-11
1.09475e-11
5.23421e-12
9.0503e-13
2.46501e-13
1.40165e-09
1.28975e-09
1.011e-09
6.75994e-10
4.4296e-10
2.61239e-10
1.39814e-10
6.86729e-11
4.03929e-11
3.0176e-11
2.3487e-11
1.60203e-11
8.79295e-12
3.87076e-12
1.43495e-12
5.53281e-13
5.07157e-14
1.80876e-14
7.19843e-15
7.71544e-10
7.11765e-10
6.40338e-10
5.72314e-10
4.19489e-10
2.77751e-10
1.66799e-10
8.54967e-11
4.09384e-11
2.19332e-11
1.27772e-11
6.67651e-12
3.0439e-12
1.05805e-12
2.61506e-13
5.52818e-14
6.45462e-15
2.00191e-15
5.50869e-16
3.56273e-10
3.47527e-10
3.22098e-10
2.89119e-10
2.61418e-10
2.2256e-10
1.51188e-10
9.10233e-11
4.6409e-11
2.03982e-11
8.3157e-12
3.19854e-12
1.13661e-12
3.4341e-13
7.92172e-14
1.58057e-14
1.47817e-15
5.23098e-16
1.92879e-16
1.33095e-10
1.34064e-10
1.34948e-10
1.26332e-10
1.13082e-10
1.01573e-10
9.09245e-11
6.64238e-11
3.98089e-11
1.93299e-11
7.44862e-12
2.29075e-12
5.99113e-13
1.44108e-13
3.03094e-14
3.62399e-15
5.18489e-16
3.09414e-16
1.17367e-16
3.82175e-11
4.17568e-11
4.27022e-11
4.17919e-11
4.0239e-11
3.71415e-11
3.5285e-11
3.02416e-11
2.26649e-11
1.35672e-11
6.15263e-12
1.91736e-12
4.16919e-13
7.50103e-14
1.3022e-14
9.7457e-16
2.54641e-16
2.0431e-16
8.24569e-17
1.00524e-11
1.03971e-11
1.07606e-11
1.1028e-11
1.0757e-11
1.04776e-11
1.02485e-11
9.75243e-12
8.58415e-12
6.56392e-12
3.67367e-12
1.3199e-12
2.81072e-13
3.86139e-14
3.9054e-15
2.45016e-16
1.2548e-16
1.21333e-16
5.53027e-17
2.56307e-12
2.56975e-12
2.53337e-12
2.47474e-12
2.41835e-12
2.39293e-12
2.38795e-12
2.35403e-12
2.40994e-12
2.20041e-12
1.51724e-12
6.60422e-13
1.5725e-13
1.90255e-14
9.30455e-16
6.7948e-17
5.99581e-17
7.94604e-17
3.67663e-17
7.44114e-13
6.70317e-13
6.22403e-13
5.613e-13
5.18355e-13
4.84746e-13
4.551e-13
4.64069e-13
5.25509e-13
5.51047e-13
4.49988e-13
2.39866e-13
5.64158e-14
4.49207e-15
1.72752e-16
2.78555e-17
2.826e-17
5.4539e-17
2.32565e-17
2.13853e-13
1.84223e-13
1.54351e-13
1.27407e-13
1.09869e-13
8.64639e-14
7.26598e-14
7.79158e-14
9.29509e-14
1.05213e-13
9.81842e-14
5.26455e-14
7.99479e-15
3.58127e-16
1.64194e-17
9.81415e-18
1.36781e-17
3.45368e-17
1.43405e-17
6.06776e-14
4.85367e-14
3.72057e-14
2.96656e-14
2.32949e-14
1.3188e-14
8.03297e-15
9.04452e-15
1.19814e-14
1.51083e-14
1.3878e-14
4.32086e-15
5.13007e-16
2.09307e-17
1.86154e-18
3.1019e-18
8.31507e-18
2.24526e-17
8.22138e-18
1.52085e-14
1.10547e-14
7.96637e-15
6.25543e-15
3.65686e-15
1.38173e-15
5.41173e-16
6.88248e-16
1.08697e-15
1.52283e-15
7.14261e-16
1.95577e-16
2.61136e-17
8.52793e-19
4.51983e-19
1.63498e-18
6.13271e-18
1.30788e-17
4.67327e-18
3.29462e-15
2.26641e-15
1.69259e-15
9.5688e-16
3.74972e-16
7.66975e-17
2.00062e-17
3.72951e-17
8.18066e-17
4.25143e-17
1.69749e-17
6.24951e-18
8.64506e-19
9.72831e-20
2.32585e-19
1.19655e-18
4.25803e-18
8.21054e-18
2.27667e-18
6.0437e-16
4.03185e-16
2.52926e-16
9.11235e-17
1.68583e-17
1.15516e-18
4.92894e-19
1.70249e-18
1.04617e-18
5.26922e-19
3.22259e-19
1.07706e-19
2.89479e-20
4.47535e-20
1.65846e-19
9.12654e-19
3.01308e-18
4.21041e-18
1.23329e-18
9.61543e-17
6.191e-17
2.35415e-17
4.01364e-18
2.19046e-19
6.56536e-21
1.24772e-20
9.26031e-21
7.36015e-21
8.04229e-21
7.76014e-21
9.30901e-21
1.5893e-20
3.60709e-20
1.42693e-19
7.55997e-19
1.89361e-18
2.49382e-18
4.97674e-19
1.3981e-17
5.09229e-18
9.44971e-19
5.19269e-20
5.63616e-22
1.15323e-22
1.47404e-22
2.79119e-22
6.19489e-22
1.40547e-21
3.26293e-21
7.24502e-21
1.44608e-20
3.36812e-20
1.33761e-19
5.4759e-19
1.24294e-18
1.02965e-18
2.47755e-19
1.30833e-18
2.41595e-19
1.22034e-20
9.06685e-23
1.36499e-23
2.50511e-23
6.61825e-23
1.85879e-22
4.98857e-22
1.28028e-21
3.13057e-21
7.03917e-21
1.39853e-20
3.19322e-20
1.12181e-19
3.45654e-19
7.16084e-19
5.86617e-19
8.12207e-20
3.97613e-20
1.10509e-21
6.2521e-24
2.55203e-24
6.11358e-24
1.9291e-23
5.83382e-23
1.66892e-22
4.49343e-22
1.16048e-21
2.82128e-21
6.2583e-21
1.23e-20
2.76014e-20
8.68736e-20
2.30246e-19
3.96392e-19
1.95109e-19
3.64076e-20
4.07071e-22
4.00218e-24
5.45544e-25
1.47674e-24
5.03726e-24
1.61229e-23
4.90443e-23
1.3896e-22
3.74606e-22
9.5912e-22
2.319e-21
5.107e-21
9.95115e-21
2.16161e-20
6.10849e-20
1.46486e-19
1.69145e-19
9.18004e-20
1.14114e-20
1.56566e-24
9.5228e-26
3.03269e-25
1.13051e-24
3.85642e-24
1.22016e-23
3.65366e-23
1.03071e-22
2.77949e-22
7.12412e-22
1.72387e-21
3.73633e-21
7.18647e-21
1.55669e-20
3.61881e-20
8.50036e-20
7.04636e-20
2.3835e-20
5.09131e-21
1.19439e-26
5.29531e-26
2.09465e-25
7.26864e-25
2.38347e-24
7.34303e-24
2.20843e-23
6.40947e-23
1.74687e-22
4.54498e-22
1.0925e-21
2.4175e-21
4.79236e-21
9.87534e-21
2.00122e-20
3.98572e-20
2.2346e-20
8.63171e-21
2.19107e-21
7.17814e-27
3.01362e-26
1.07068e-25
3.47327e-25
1.12424e-24
3.5721e-24
1.09773e-23
3.25216e-23
9.18254e-23
2.48224e-22
6.16586e-22
1.3644e-21
2.64939e-21
5.51515e-21
9.94536e-21
1.49047e-20
6.07637e-21
2.57712e-21
5.84734e-22
2.62037e-27
9.0841e-27
2.83488e-26
8.72019e-26
3.24859e-25
1.12782e-24
3.8555e-24
1.22928e-23
3.71327e-23
1.05083e-22
2.71085e-22
6.21626e-22
1.19673e-21
2.31915e-21
3.50436e-21
3.68061e-21
1.36511e-21
3.6967e-22
2.16533e-23
)
;

boundaryField
{
    leftWall
    {
        type            alphaContactAngle;
        contactAngleProperties 
        {
            mercury         
            {
                theta0          90;
            }
            air             
            {
                theta0          90;
            }
            oil             
            {
                theta0          90;
            }
        }
        value           nonuniform List<scalar> 
50
(
1.09901e-10
2.04695e-10
3.56882e-10
1.63216e-10
1.50576e-10
1.48148e-10
0.198634
0.922726
0.999999
1
0.99962
0.889917
0.436091
0.000988865
4.41935e-05
8.39284e-05
2.18529e-05
2.8337e-07
3.19395e-07
4.75845e-07
8.33432e-07
5.38024e-07
1.94163e-07
6.29468e-08
1.51625e-08
1.38792e-08
1.95769e-08
1.98172e-08
1.95752e-08
1.90679e-08
1.83767e-08
1.81927e-08
1.81388e-08
1.81248e-08
1.8013e-08
1.72264e-08
1.56366e-08
1.44492e-08
1.19844e-08
1.02838e-08
7.82436e-09
5.98771e-09
3.42381e-09
2.05528e-09
8.37555e-10
3.13843e-10
6.68872e-11
7.18993e-12
1.28719e-13
7.8396e-21
)
;
    }
    rightWall
    {
        type            alphaContactAngle;
        contactAngleProperties 
        {
            mercury         
            {
                theta0          90;
            }
            air             
            {
                theta0          90;
            }
            oil             
            {
                theta0          90;
            }
        }
        value           nonuniform List<scalar> 
50
(
0.0111696
0.0111568
0.000610994
0.070554
0.518261
0.667774
0.833274
0.84047
0.838425
0.846007
0.372773
1.40479e-19
6.19211e-05
1.49174e-05
0.000298761
0.00734222
0.00967349
0.00501828
9.44471e-10
1.65692e-07
1.11117e-07
1.20369e-08
8.70524e-09
8.67046e-09
3.6993e-09
5.80646e-10
1.40251e-11
2.46501e-13
7.19843e-15
5.50869e-16
1.92879e-16
1.17367e-16
8.24569e-17
5.53027e-17
3.67663e-17
2.32565e-17
1.43405e-17
8.22138e-18
4.67327e-18
2.27667e-18
1.23329e-18
4.97674e-19
2.47755e-19
8.12207e-20
3.64076e-20
1.14114e-20
5.09131e-21
2.19107e-21
5.84734e-22
2.16533e-23
)
;
    }
    lowerWall
    {
        type            alphaContactAngle;
        contactAngleProperties 
        {
            mercury         
            {
                theta0          90;
            }
            air             
            {
                theta0          90;
            }
            oil             
            {
                theta0          90;
            }
        }
        value           nonuniform List<scalar> 
62
(
1.09901e-10
1.37846e-10
1.54051e-10
1.61185e-10
1.69655e-10
1.77559e-10
1.84944e-10
1.9137e-10
1.9753e-10
2.05927e-10
2.19836e-10
2.45466e-10
2.84366e-10
3.30737e-10
3.97726e-10
4.85184e-10
6.22579e-10
9.19448e-10
1.708e-09
2.52313e-09
2.76871e-09
2.76841e-09
2.7576e-09
2.7576e-09
1.79406e-09
8.6308e-10
3.14336e-10
4.14555e-11
0.106686
0.849406
0.996911
0.977679
0.959495
0.942717
0.947208
0.00722984
0.0072298
0.00720681
0.229739
0.636579
0.921368
0.923551
0.942829
0.00722984
0.0384183
0.0457148
0.0385271
0.0115842
0.0011122
0.00109554
0.000871297
0.000871296
0.000871297
0.0129525
0.0579418
0.124412
0.124382
0.124389
0.123529
0.0427205
0.00275035
0.0111696
)
;
    }
    atmosphere
    {
        type            inletOutlet;
        inletValue      uniform 0;
        value           nonuniform List<scalar> 
46
(
0
0
1.19595e-14
2.58193e-14
2.00731e-14
1.09168e-14
4.68006e-15
1.67146e-15
5.11531e-16
1.34657e-16
3.09572e-17
6.47425e-18
1.3375e-18
3.34e-19
8.99738e-20
2.40546e-20
6.07793e-21
1.55371e-21
4.11398e-22
1.023e-22
0
0
0
3.84787e-43
5.66421e-29
2.16765e-28
6.66234e-28
0
0
0
0
0
1.12782e-24
3.8555e-24