/*--------------------------------*- C++ -*----------------------------------*\
  =========                 |
  \\      /  F ield         | OpenFOAM: The Open Source CFD Toolbox
   \\    /   O peration     | Website:  https://openfoam.org
    \\  /    A nd           | Version:  13
     \\/     M anipulation  |
\*---------------------------------------------------------------------------*/
FoamFile
{
    format      ascii;
    class       volScalarField;
    location    "2.95";
    object      epsilon;
}
// * * * * * * * * * * * * * * * * * * * * * * * * * * * * * * * * * * * * * //

dimensions      [0 2 -3 0 0 0 0];

internalField   nonuniform List<scalar> 
2268
(
0.00307567
0.0159529
0.0287979
0.0407858
0.0518576
0.0620527
0.0713596
0.0797672
0.0873027
0.0940664
0.100518
0.106355
0.111209
0.114899
0.117216
0.11787
0.116397
0.11206
0.103706
0.0896386
0.067803
0.0372406
0.00704813
0.00592982
0.0111372
0.0173851
0.0230235
0.0278957
0.0320627
0.0356056
0.0386126
0.0411702
0.0433738
0.0454027
0.0472149
0.0487023
0.0498052
0.0504496
0.0505284
0.049876
0.0482449
0.0452759
0.0404764
0.0332759
0.0234599
0.0143078
0.0105562
0.0113514
0.0156707
0.0197827
0.0233372
0.0263411
0.0288595
0.03097
0.0327456
0.0342561
0.035595
0.0367522
0.0376884
0.0383709
0.03876
0.038801
0.0384146
0.0374917
0.0358922
0.033455
0.0300362
0.0257628
0.0254415
0.0152703
0.0123258
0.0154807
0.0188198
0.0217935
0.0243412
0.0264967
0.0283158
0.0298542
0.0311646
0.0323038
0.0332698
0.0340448
0.0346102
0.0349453
0.0350263
0.0348237
0.034308
0.0334705
0.0323679
0.0312154
0.0307226
0.0381633
0.0198521
0.0135293
0.0158016
0.0186329
0.0212749
0.0235994
0.0256044
0.0273211
0.0287869
0.0300407
0.03112
0.0320254
0.0327488
0.0332815
0.0336175
0.0337559
0.0337028
0.0334868
0.0331982
0.0330846
0.033775
0.0369999
0.0536761
0.024281
0.0148389
0.0163927
0.0188508
0.0212777
0.0234834
0.025432
0.0271285
0.0285919
0.0298489
0.0309247
0.0318213
0.0325364
0.0330686
0.0334236
0.0336183
0.0336869
0.0337008
0.0338268
0.0344794
0.0367638
0.0441658
0.0752546
0.0286312
0.016211
0.017163
0.0193305
0.0216064
0.0237481
0.0256893
0.0274082
0.0289045
0.0301936
0.0312917
0.0322027
0.0329282
0.033472
0.0338484
0.0340893
0.03425
0.0344317
0.0348511
0.0360411
0.0395466
0.0514559
0.111462
0.0327729
0.0176263
0.0180732
0.0199999
0.0221581
0.0242621
0.0262185
0.0279781
0.0295205
0.0308503
0.031976
0.0329044
0.0336397
0.0341888
0.0345729
0.0348366
0.0350509
0.0353347
0.0359241
0.0373887
0.0414453
0.0564164
0.187068
0.00594941
0.017144
0.0275027
0.039084
0.050594
0.0580025
0.064797
0.0694921
0.0715553
0.0739697
0.0655751
0.0589823
0.0603135
0.053087
0.0443276
0.0367465
0.0278828
0.01669
0.00277864
0.00802627
0.0123105
0.0172819
0.0230498
0.0287169
0.0326003
0.0349875
0.036316
0.0363885
0.0356454
0.0327665
0.0307515
0.0291078
0.0256504
0.0220322
0.0188718
0.0153998
0.0110818
0.00537072
0.0122095
0.0137703
0.0173945
0.0214003
0.0251732
0.0277832
0.0292588
0.0300925
0.0302886
0.0298359
0.0279398
0.0262631
0.0246991
0.0217807
0.0189319
0.0166585
0.0145775
0.0124906
0.0109098
0.0166196
0.0161292
0.0190091
0.0219357
0.0243037
0.0261265
0.0272005
0.0279007
0.028171
0.028123
0.0269873
0.0256661
0.0244873
0.0213774
0.01856
0.016678
0.0155233
0.0154654
0.0202982
0.0219533
0.0187765
0.0208442
0.0229797
0.0245745
0.0256694
0.0263986
0.0268889
0.0269259
0.0267151
0.0260791
0.0256974
0.0259865
0.0220151
0.0189075
0.017424
0.0168388
0.0182963
0.0349377
0.0293001
0.022303
0.0229191
0.0240322
0.0250272
0.0258514
0.0263576
0.026558
0.0263495
0.0259668
0.0253344
0.0251225
0.0275185
0.0223979
0.0194202
0.0181481
0.0175603
0.0188829
0.0383072
0.0467054
0.0272196
0.0252972
0.0253346
0.0256634
0.0262028
0.0266085
0.0266392
0.026353
0.0258924
0.0252494
0.0247308
0.0269072
0.0223527
0.0198171
0.0185574
0.017926
0.0188438
0.037743
0.0912713
0.0327995
0.0276518
0.0267024
0.0264817
0.0266606
0.0269412
0.0269137
0.0265464
0.0259571
0.0252618
0.0244671
0.025464
0.0223246
0.020204
0.0189738
0.0183617
0.0188475
0.034904
0.0356203
0.0196368
0.019467
0.0210665
0.0230401
0.0250558
0.026988
0.0287539
0.0303115
0.0316509
0.0327722
0.0336892
0.0344093
0.0349431
0.0353188
0.0355938
0.0358517
0.0362199
0.0369282
0.0384802
0.0421357
0.0515203
0.0793074
0.0385323
0.0222769
0.0215647
0.0227193
0.0242965
0.0259564
0.0275575
0.0290207
0.0303224
0.0314624
0.0324375
0.0332506
0.0339128
0.0344384
0.0348542
0.0352117
0.0355823
0.0360677
0.0368344
0.0381892
0.0407159
0.0454879
0.0541821
0.042043
0.0256505
0.0242571
0.0248846
0.0260049
0.0272476
0.0284629
0.0295875
0.0306073
0.0315205
0.0323245
0.0330228
0.033628
0.0341571
0.0346359
0.0351036
0.0356079
0.03621
0.0370012
0.0381201
0.0397675
0.0421705
0.0453475
0.046147
0.0295781
0.0274498
0.0275305
0.0281773
0.0289904
0.0298368
0.0306666
0.0314421
0.0321492
0.0327976
0.0333966
0.033954
0.034482
0.0350111
0.0355742
0.0361852
0.0368441
0.0375781
0.0384284
0.0394307
0.0405861
0.0417787
0.0518048
0.0335782
0.0309371
0.0304675
0.0306087
0.0309941
0.0315137
0.0320933
0.032658
0.0331907
0.0337067
0.0342166
0.0347254
0.0352424
0.0357913
0.0363911
0.0370222
0.0376494
0.0382651
0.0388641
0.0394211
0.0398939
0.0402281
0.0567368
0.0374801
0.0343142
0.0333096
0.0330138
0.0330665
0.033325
0.0336791
0.0340552
0.034434
0.0348215
0.0352308
0.0356811
0.0361862
0.0367315
0.0373057
0.0378993
0.038485
0.0389973
0.0393833
0.0396099
0.0396695
0.0395843
0.0614493
0.0413068
0.037258
0.0358057
0.0352289
0.0350721
0.0351348
0.0352927
0.0354995
0.0357349
0.0359998
0.0363104
0.0366912
0.0371542
0.0376679
0.0381986
0.0387321
0.0392352
0.0396189
0.0398126
0.0398004
0.0396146
0.0393187
0.0669083
0.044625
0.0398901
0.0380907
0.0373172
0.0370141
0.0369171
0.0369052
0.0369483
0.0370398
0.0371851
0.0374035
0.0377187
0.0381328
0.0386009
0.0390678
0.0395041
0.0398678
0.0400839
0.0400981
0.0399164
0.0395864
0.0391781
0.0720117
0.0474283
0.0422581
0.040248
0.0393811
0.0390092
0.0387873
0.0385892
0.0384342
0.0383597
0.0383802
0.0385145
0.0387828
0.0391702
0.0395919
0.0399588
0.0402396
0.0404034
0.0404119
0.0402552
0.0399525
0.0395433
0.0390953
0.0815498
0.0505919
0.0446069
0.0424542
0.0416333
0.0413003
0.0409601
0.0404934
0.0400377
0.0397282
0.0395781
0.0395611
0.0396663
0.0398623
0.0400845
0.0402761
0.0404161
0.0404789
0.0404261
0.0402421
0.0399313
0.0395057
0.039028
0.095795
0.050261
0.0439812
0.0422125
0.0418939
0.0419422
0.0417663
0.0412781
0.0407075
0.0402714
0.0399793
0.0397646
0.0396228
0.0395546
0.0395419
0.039558
0.0395869
0.0396081
0.0395829
0.0394775
0.0392742
0.0389715
0.0385927
0.100972
0.0508085
0.0433519
0.0411323
0.0404636
0.0403263
0.0401974
0.0399137
0.039573
0.039309
0.0391334
0.0389797
0.0388566
0.038782
0.0387539
0.0387577
0.0387821
0.0388082
0.0388019
0.0387285
0.0385663
0.0383156
0.0380128
0.102421
0.0506068
0.0424973
0.0399206
0.0389412
0.0385668
0.0383498
0.038132
0.0379489
0.037849
0.0378175
0.037796
0.0377817
0.0377874
0.0378142
0.0378549
0.0379015
0.0379423
0.0379555
0.0379148
0.0378003
0.0376083
0.037362
0.101389
0.0500375
0.0416246
0.0387858
0.0375784
0.0370267
0.0367232
0.0365193
0.0364106
0.0363934
0.0364417
0.0365136
0.0365961
0.0366881
0.0367865
0.0368839
0.0369733
0.0370457
0.0370866
0.0370778
0.0370025
0.036855
0.0366536
0.09751
0.0487836
0.0404571
0.037523
0.0362183
0.0356049
0.03529
0.0351099
0.035035
0.0350468
0.0351288
0.035253
0.0353979
0.0355527
0.0357086
0.0358564
0.0359878
0.0360942
0.036164
0.036184
0.0361411
0.0360307
0.0358724
0.0927541
0.0469759
0.0389559
0.0360654
0.0347699
0.0341742
0.0339022
0.0337763
0.0337384
0.033775
0.0338803
0.0340358
0.0342192
0.0344146
0.0346093
0.0347928
0.0349554
0.0350881
0.0351808
0.0352235
0.0352067
0.0351278
0.0350081
0.0881278
0.044724
0.0371368
0.0344109
0.033211
0.0326824
0.0324751
0.032418
0.0324401
0.0325236
0.0326629
0.032848
0.0330594
0.0332815
0.0335009
0.0337065
0.0338885
0.034038
0.0341463
0.0342058
0.0342098
0.0341576
0.0340695
0.0832739
0.0421685
0.0350721
0.0326005
0.0315566
0.0311289
0.031001
0.03102
0.0311147
0.0312595
0.0314462
0.0316657
0.0319046
0.032149
0.0323867
0.0326074
0.0328022
0.0329629
0.0330824
0.0331553
0.0331767
0.0331467
0.0330834
0.0777167
0.0394021
0.0329016
0.030714
0.0298446
0.029537
0.029499
0.0295971
0.0297657
0.0299758
0.0302147
0.0304739
0.030743
0.0310106
0.0312663
0.0315014
0.0317081
0.0318797
0.0320105
0.0320967
0.032135
0.0321255
0.032083
0.0716558
0.0365509
0.0307143
0.0288291
0.0281333
0.0279407
0.027994
0.0281688
0.0284066
0.0286783
0.028969
0.0292696
0.0295715
0.029865
0.0301418
0.0303944
0.0306164
0.0308025
0.0309482
0.031051
0.0311085
0.0311208
0.0310997
0.0654843
0.0337539
0.0285946
0.0270026
0.0264724
0.0263851
0.0265144
0.0267566
0.0270554
0.0273816
0.0277199
0.0280611
0.0283968
0.028719
0.0290206
0.0292953
0.0295379
0.029744
0.0299103
0.0300349
0.0301161
0.0301539
0.0301573
0.0596389
0.0311468
0.0266152
0.0252835
0.0248967
0.0249003
0.0250942
0.0253879
0.0257339
0.0261053
0.0264856
0.0268644
0.0272336
0.0275862
0.0279159
0.0282173
0.0284859
0.0287179
0.0289108
0.0290628
0.0291729
0.0292408
0.0292732
0.0544846
0.0288321
0.0248265
0.023705
0.0234316
0.0235065
0.023751
0.0240852
0.0244676
0.0248738
0.0252883
0.0257003
0.0261016
0.0264853
0.0268456
0.0271775
0.0274767
0.0277399
0.0279646
0.0281492
0.0282927
0.028395
0.0284603
0.0502321
0.026854
0.0232483
0.0222822
0.0220909
0.0222173
0.0224986
0.0228628
0.0232728
0.0237066
0.0241496
0.0245911
0.025023
0.0254382
0.0258311
0.0261964
0.0265301
0.0268285
0.027089
0.0273101
0.0274904
0.0276297
0.0277308
0.0468463
0.0251934
0.0218722
0.0210135
0.0208776
0.0210387
0.0213458
0.0217323
0.0221641
0.0226209
0.0230892
0.0235585
0.0240206
0.0244684
0.0248958
0.0252973
0.0256683
0.0260051
0.0263046
0.0265649
0.0267844
0.0269623
0.0270999
0.0440847
0.0237783
0.020672
0.0198863
0.0197867
0.0199714
0.0202973
0.020702
0.0211534
0.0216322
0.0221256
0.0226234
0.0231174
0.0236
0.0240646
0.0245054
0.0249171
0.0252953
0.0256364
0.0259376
0.026197
0.0264133
0.0265863
0.0417894
0.0225544
0.0196139
0.0188827
0.0188097
0.0190127
0.0193557
0.0197788
0.0202512
0.0207545
0.0212762
0.0218063
0.0223362
0.0228581
0.0233645
0.0238488
0.0243049
0.0247275
0.0251121
0.0254554
0.0257547
0.0260082
0.0262146
0.0398188
0.0214751
0.0186704
0.0179853
0.0179374
0.0181606
0.0185239
0.0189697
0.0194684
0.0200023
0.020559
0.0211285
0.0217016
0.0222696
0.0228244
0.023358
0.0238632
0.0243337
0.0247642
0.0251505
0.0254895
0.0257786
0.026016
0.038057
0.0205029
0.0178215
0.0171833
0.0171655
0.0174156
0.017807
0.0182841
0.0188183
0.0193925
0.0199945
0.0206137
0.0212404
0.0218647
0.0224769
0.0230678
0.0236286
0.0241519
0.0246315
0.0250622
0.0254404
0.0257632
0.0260283
0.0364277
0.0196153
0.0170582
0.0164754
0.016498
0.0167857
0.0172161
0.0177359
0.0183177
0.0189453
0.0196063
0.0202896
0.0209842
0.0216784
0.0223607
0.0230196
0.0236448
0.0242274
0.02476
0.0252371
0.0256542
0.0260084
0.0262971
0.0348946
0.0188067
0.0163856
0.015873
0.0159504
0.0162889
0.0167711
0.0173465
0.01799
0.0186864
0.0194236
0.0201893
0.0209703
0.0217527
0.0225216
0.023263
0.0239641
0.0246144
0.0252055
0.0257312
0.026187
0.0265697
0.0268773
0.0334629
0.0180908
0.0158265
0.0154048
0.015554
0.015957
0.0165028
0.0171461
0.0178655
0.018648
0.0194815
0.0203522
0.0212437
0.022138
0.0230156
0.0238584
0.0246505
0.0253793
0.0260356
0.0266129
0.027107
0.0275152
0.0278359
0.0321813
0.0175082
0.0154311
0.015126
0.0153629
0.0158394
0.0164552
0.0171742
0.0179816
0.0188677
0.0198208
0.0208247
0.0218578
0.0228954
0.0239111
0.0248805
0.0257833
0.0266045
0.0273343
0.0279667
0.0284985
0.028928
0.029255
0.0311629
0.0171468
0.0152985
0.0151348
0.0154652
0.0160096
0.0166877
0.0174792
0.0183802
0.0193863
0.020486
0.0216588
0.0228748
0.0240988
0.0252926
0.0264225
0.0274619
0.028393
0.0292061
0.0298972
0.0304654
0.0309114
0.0312367
0.0306318
0.0171921
0.0156197
0.0156041
0.0160004
0.0165718
0.0172747
0.0181147
0.0191032
0.0202426
0.0215207
0.0229094
0.0243657
0.0258363
0.0272645
0.0286012
0.0298113
0.0308742
0.031782
0.032535
0.0331373
0.0335936
0.0339082
0.0310413
0.0180396
0.0167667
0.0168342
0.0171837
0.0176664
0.0183015
0.0191306
0.0201823
0.0214637
0.0229593
0.0246286
0.0264074
0.0282126
0.0299556
0.0315634
0.0329887
0.03421
0.0352248
0.0360419
0.0366743
0.0371332
0.0374277
0.0333708
0.0205563
0.0194687
0.01934
0.0193312
0.019465
0.0198487
0.0205563
0.0216224
0.0230499
0.0248136
0.0268554
0.029078
0.0313494
0.0335253
0.0354924
0.0371898
0.0386001
0.0397339
0.0406154
0.0412717
0.0417246
0.0419898
0.0400032
0.0267146
0.0251478
0.0239606
0.0228619
0.0221384
0.0219574
0.0223714
0.0233783
0.0249533
0.0270526
0.0295965
0.0324438
0.0353825
0.0381679
0.0406134
0.0426497
0.0442801
0.0455436
0.0464886
0.0471635
0.0476017
0.0478292
0.0574771
0.0410681
0.0363805
0.0318741
0.0281974
0.0257629
0.0245667
0.0244672
0.0253277
0.0270528
0.0295717
0.0327906
0.0365239
0.0404422
0.0441174
0.0471949
0.0496326
0.0515033
0.0529048
0.0539182
0.0546205
0.0550412
0.0552197
0.106943
0.0733704
0.0567539
0.0440808
0.0354003
0.0301295
0.0274271
0.0266105
0.027252
0.0291309
0.0321504
0.0362356
0.0411948
0.0465801
0.051677
0.0555673
0.0584142
0.0604988
0.062039
0.0631487
0.0639498
0.0643686
0.0644688
0.288092
0.138902
0.0877337
0.0596031
0.0434175
0.0344799
0.030029
0.0284369
0.0288436
0.0308683
0.0344055
0.0394608
0.045958
0.0535433
0.0615295
0.0663567
0.0694033
0.0715167
0.0731313
0.0743827
0.0755388
0.0760035
0.0759433
1.56409
0.20777
0.117926
0.0725143
0.0493351
0.0374019
0.0316499
0.0295162
0.0297635
0.0318864
0.0357899
0.0415983
0.0495131
0.0600578
0.0771762
0.0821561
0.0844292
0.0858903
0.0871275
0.0882909
0.090155
0.0906185
0.0903328
0.190508
0.146222
0.144062
0.152768
0.0641046
0.0643675
0.0631918
0.0593625
0.0474537
0.0479235
0.0474718
0.0459555
0.042347
0.0424638
0.0422534
0.0416319
0.0403037
0.0402696
0.0401095
0.0397735
0.0394392
0.0393171
0.0391437
0.0388884
0.0390613
0.0388854
0.0386873
0.0384518
0.0388616
0.0386607
0.0384569
0.0382413
0.038772
0.0385676
0.0383679
0.0381712
0.0387181
0.0385287
0.038358
0.0382029
0.0383443
0.0382115
0.0381101
0.0380135
0.0377975
0.0376668
0.0375548
0.0374473
0.0371644
0.0370357
0.0369146
0.0367982
0.0364737
0.0363502
0.0362308
0.0361152
0.035718
0.0356053
0.0354932
0.035381
0.0348803
0.0347804
0.0346766
0.0345684
0.033964
0.0338752
0.0337792
0.0336754
0.0329951
0.0329157
0.0328274
0.0327298
0.0320099
0.0319403
0.0318609
0.0317721
0.0310428
0.0309845
0.0309166
0.0308395
0.0301195
0.0300747
0.0300207
0.0299581
0.0292573
0.0292285
0.0291909
0.0291448
0.0284696
0.0284582
0.0284379
0.028409
0.0277667
0.0277729
0.0277701
0.0277585
0.0271618
0.027185
0.0271989
0.0272035
0.0266727
0.0267116
0.0267406
0.0267599
0.0263232
0.0263761
0.0264183
0.0264499
0.0261439
0.0262084
0.0262612
0.0263023
0.0261719
0.0262454
0.0263057
0.0263528
0.0264523
0.0265315
0.0265956
0.0266448
0.0270392
0.0271203
0.0271839
0.0272302
0.0279984
0.0280769
0.0281349
0.0281725
0.0294112
0.0294818
0.0295281
0.0295502
0.0313787
0.0314354
0.0314632
0.0314618
0.0340276
0.0340641
0.0340661
0.0340328
0.0375163
0.0375268
0.0374961
0.037423
0.0420414
0.0420218
0.0419541
0.0418359
0.0478404
0.04779
0.0476864
0.0475256
0.0551853
0.0551065
0.0549774
0.0547923
0.0643508
0.0642383
0.0641064
0.0639484
0.0755633
0.0753662
0.0752623
0.0752483
0.0892892
0.0889134
0.0888616
0.0891378
0.0586496
0.0361316
0.0305432
0.0286674
0.0278302
0.027546
0.0275487
0.0273701
0.0267499
0.0259684
0.0251433
0.0242163
0.0244182
0.0227611
0.0210039
0.0198916
0.01933
0.0192064
0.028871
0.0462656
0.0370452
0.0328747
0.0307316
0.0295647
0.0288923
0.0285615
0.0279866
0.027086
0.0261102
0.0252052
0.0245717
0.0250314
0.0237189
0.0222504
0.0213001
0.0203489
0.0192568
0.0244137
0.0418231
0.0371339
0.0341773
0.0321767
0.0308921
0.0300006
0.0293935
0.0286085
0.0276201
0.0265603
0.0256161
0.0249939
0.0249612
0.0239264
0.0225934
0.0214292
0.0202359
0.0195458
0.0244873
0.03992
0.0371738
0.034987
0.0332302
0.0318883
0.0308769
0.0300816
0.0292299
0.0282342
0.0271967
0.0262534
0.0254874
0.0249129
0.0239467
0.0228199
0.0218307
0.0210811
0.0214772
0.0317003
0.0388979
0.0371507
0.035501
0.0340307
0.0327471
0.0316979
0.0308161
0.0299356
0.0289681
0.0279781
0.0270423
0.0261832
0.0253794
0.0244817
0.0236021
0.0229115
0.0226159
0.0239524
0.0390734
0.0383097
0.0371168
0.0358542
0.0346256
0.0334796
0.0325026
0.0316501
0.0307732
0.0298189
0.0288539
0.027922
0.0270328
0.0261813
0.0253429
0.0245954
0.0240756
0.0240834
0.0261263
0.0446313
0.0379928
0.037122
0.0361361
0.0351088
0.034118
0.0332536
0.0324684
0.0316224
0.0306891
0.0297374
0.0288084
0.027914
0.0270602
0.0262572
0.0255622
0.0251028
0.0252493
0.0276819
0.0481731
0.03786
0.037192
0.0364015
0.0355352
0.0346874
0.0339388
0.0332226
0.0324108
0.0314957
0.0305512
0.0296251
0.0287317
0.0278769
0.0270798
0.0263979
0.0259561
0.0261676
0.028797
0.0496496
0.0378494
0.0373301
0.0366751
0.0359161
0.0351894
0.0345662
0.0339259
0.0331315
0.0322104
0.0312568
0.0303319
0.0294449
0.0285839
0.0277752
0.027104
0.0267077
0.0270439
0.0300274
0.0524103
0.0379535
0.0375697
0.0369981
0.0362637
0.0356296
0.0351813
0.0346661
0.033847
0.0328521
0.0318436
0.0309142
0.0300599
0.029204
0.0283762
0.0276703
0.0273382
0.0278796
0.0315334
0.0589169
0.0378143
0.0374441
0.036893
0.0362233
0.0357069
0.0353311
0.0348751
0.0341451
0.0331948
0.0321679
0.0312206
0.0304237
0.0296776
0.0288022
0.0279225
0.0275546
0.028246
0.0321736
0.053694
0.0372503
0.0369113
0.036451
0.0359039
0.035383
0.0349106
0.0344385
0.0338488
0.0330772
0.0321717
0.0312498
0.0304109
0.0295734
0.0286562
0.0277814
0.0273511
0.0280201
0.031984
0.0585834
0.0365989
0.0362835
0.0358714
0.0353678
0.03485
0.034356
0.0338602
0.0332773
0.0325804
0.0317886
0.0309479
0.0300955
0.0291914
0.0282553
0.0273743
0.0268313
0.0272624
0.031017
0.0591934
0.0359241
0.0356289
0.0352428
0.0347628
0.0342414
0.0337203
0.0331929
0.0326243
0.0319831
0.0312692
0.0304905
0.0296428
0.0287006
0.0277049
0.0267301
0.0260078
0.0260364
0.0288535
0.0527902
0.0351957
0.034906
0.0345291
0.0340626
0.033538
0.0329954
0.0324491
0.0318864
0.0312882
0.0306354
0.029907
0.0290711
0.0281019
0.0270365
0.0259678
0.0250487
0.024637
0.0263106
0.0447716
0.0343861
0.0340929
0.033718
0.033265
0.0327522
0.0322113
0.0316615
0.0311048
0.0305277
0.0299041
0.0291971
0.0283654
0.0273872
0.0262942
0.0251601
0.0240883
0.0233413
0.024166
0.0383387
0.0334966
0.0332014
0.0328315
0.0323961
0.0319071
0.0313851
0.030846
0.0302943
0.0297204
0.0290993
0.0283947
0.027568
0.0266012
0.025518
0.0243737
0.0232455
0.0223397
0.0226727
0.0339266
0.0325582
0.0322687
0.031911
0.031498
0.0310378
0.0305415
0.0300184
0.0294714
0.028893
0.0282634
0.0275539
0.0267369
0.0258009
0.0247669
0.0236788
0.0226091
0.0217595
0.0220647
0.0323213
0.0316129
0.0313378
0.0310002
0.0306135
0.0301828
0.0297123
0.0292061
0.0286647
0.0280824
0.0274457
0.0267366
0.0259392
0.025053
0.0240986
0.0231212
0.022208
0.0215941
0.0222677
0.0331947
0.0306976
0.0304445
0.0301329
0.0297752
0.0293729
0.0289268
0.0284377
0.0279048
0.0273242
0.0266888
0.0259904
0.0252251
0.0244003
0.0235424
0.0227049
0.0219966
0.0217
0.0229246
0.0354627
0.0298381
0.0296123
0.0293305
0.0290025
0.0286276
0.0282047
0.0277334
0.0272127
0.0266409
0.0260165
0.0253392
0.0246134
0.0238543
0.0230951
0.0223988
0.0218942
0.0219086
0.0236936
0.0381979
0.0290491
0.0288533
0.0286031
0.0283043
0.0279553
0.0275549
0.0271023
0.0265973
0.0260405
0.0254344
0.0247841
0.0241005
0.0234046
0.0227351
0.0221633
0.0218338
0.0221133
0.0243972
0.0409044
0.0283385
0.028174
0.0279545
0.0276833
0.0273587
0.0269798
0.0265463
0.0260593
0.025521
0.024937
0.0243162
0.0236734
0.0230338
0.0224405
0.021971
0.0217828
0.0222771
0.0249845
0.0433797
0.0277132
0.0275786
0.0273876
0.0271416
0.0268392
0.0264803
0.0260654
0.0255968
0.0250786
0.0245178
0.0239259
0.0233207
0.0227299
0.0221998
0.0218129
0.0217377
0.0224053
0.0254683
0.0455658
0.0271822
0.0270748
0.026909
0.0266848
0.0264016
0.0260601
0.0256621
0.025211
0.0247122
0.0241742
0.02361
0.0230387
0.0224903
0.0220135
0.0216948
0.021712
0.0225225
0.0258848
0.0474801
0.02676
0.0266758
0.0265307
0.0263239
0.0260557
0.0257281
0.0253441
0.0249082
0.024427
0.0239102
0.0233718
0.0228319
0.0223217
0.0218915
0.0216315
0.0217277
0.0226613
0.0262879
0.0491988
0.0264676
0.0264015
0.0262712
0.0260761
0.0258174
0.0254986
0.0251242
0.0247
0.0242338
0.0237362
0.0232217
0.0227113
0.0222366
0.0218491
0.021642
0.0218085
0.0228522
0.0267213
0.050854
0.0263328
0.0262781
0.0261553
0.0259643
0.0257078
0.025391
0.0250201
0.0246027
0.0241476
0.0236666
0.0231744
0.0226923
0.0222519
0.0219051
0.0217469
0.0219773
0.0231204
0.0272137
0.0524734
0.0263904
0.0263385
0.0262137
0.0260168
0.0257526
0.0254284
0.0250528
0.0246352
0.0241863
0.0237186
0.0232474
0.0227934
0.0223876
0.0220811
0.0219694
0.0222572
0.0234867
0.0277731
0.0540131
0.0266824
0.0266224
0.0264832
0.0262672
0.0259819
0.0256374
0.0252455
0.0248184
0.024369
0.023911
0.0234599
0.0230357
0.0226672
0.0224035
0.0223387
0.0226795
0.0239825
0.0284304
0.0555345
0.0272592
0.0271772
0.0270076
0.0267548
0.02643
0.0260475
0.0256233
0.0251739
0.0247153
0.0242631
0.0238331
0.0234434
0.0231199
0.0229071
0.0228949
0.0232891
0.0246568
0.0292433
0.0571698
0.0281823
0.0280608
0.0278397
0.0275264
0.0271369
0.0266914
0.0262127
0.0257235
0.0252447
0.0247948
0.0243901
0.0240462
0.023784
0.0236406
0.0236975
0.0241548
0.0255863
0.0302994
0.0590821
0.029528
0.0293449
0.0290448
0.028639
0.0281496
0.0276063
0.027042
0.0264891
0.0259762
0.0255266
0.0251575
0.0248818
0.0247125
0.024675
0.0248367
0.0253851
0.0268952
0.0317435
0.0615477
0.0313928
0.0311208
0.0307063
0.0301642
0.029526
0.0288352
0.028141
0.0274913
0.026927
0.0264788
0.0261665
0.0259996
0.0259804
0.0261165
0.0264524
0.0271541
0.0287893
0.0338156
0.0649856
0.0339004
0.0335072
0.0329331
0.032196
0.0313396
0.0304294
0.0295414
0.0287486
0.0281108
0.0276709
0.0274541
0.0274665
0.0276955
0.0281221
0.0287584
0.0297371
0.0316097
0.0369371
0.0701557
0.0372113
0.0366619
0.0358735
0.0348628
0.0336894
0.0324535
0.0312769
0.0302742
0.0295345
0.0291194
0.0290641
0.0293727
0.0300107
0.0309186
0.0320659
0.0335498
0.0359045
0.0418306
0.0783511
0.0415341
0.040798
0.0397355
0.0383508
0.036719
0.034995
0.033384
0.0320722
0.0311924
0.030833
0.031048
0.0318427
0.0331425
0.0348168
0.0367911
0.0391604
0.0424928
0.0497219
0.0919166
0.0471376
0.0462063
0.0448223
0.0429487
0.0406586
0.0381855
0.0359051
0.0341308
0.0330571
0.0328066
0.0334694
0.0350603
0.0374041
0.0402204
0.0434127
0.0472092
0.0524396
0.062588
0.11505
0.0543583
0.0532824
0.051586
0.0491325
0.0459152
0.0422339
0.0388834
0.036408
0.0350645
0.0350106
0.0364186
0.0393431
0.0432832
0.0476298
0.0523416
0.0581255
0.0667474
0.0834976
0.156242
0.063593
0.0625456
0.0606922
0.0577115
0.0532697
0.0474386
0.0423211
0.038794
0.037087
0.037371
0.0400471
0.0453887
0.0515936
0.0576503
0.0636971
0.0715403
0.0853177
0.116712
0.237834
0.0752917
0.074624
0.0730353
0.070009
0.0643214
0.0539875
0.0459857
0.0410194
0.0388836
0.0397099
0.0445965
0.0551513
0.0634988
0.0709694
0.0770937
0.0854961
0.104218
0.164381
0.454514
0.0901258
0.0901792
0.0895261
0.0878164
0.0826231
0.060777
0.0489037
0.0425186
0.0400411
0.0415322
0.0498738
0.0750544
0.0784643
0.0882637
0.0918193
0.0964526
0.110775
0.193629
1.4561
)
;

boundaryField
{
    leftWall
    {
        type            epsilonWallFunction;
        value           nonuniform List<scalar> 
50
(
0.00307567
0.00592982
0.0105562
0.0152703
0.0198521
0.024281
0.0286312
0.0327729
0.0356203
0.0385323
0.042043
0.046147
0.0518048
0.0567368
0.0614493
0.0669083
0.0720117
0.0815498
0.095795
0.100972
0.102421
0.101389
0.09751
0.0927541
0.0881278
0.0832739
0.0777167
0.0716558
0.0654843
0.0596389
0.0544846
0.0502321
0.0468463
0.0440847
0.0417894
0.0398188
0.038057
0.0364277
0.0348946
0.0334629
0.0321813
0.0311629
0.0306318
0.0310413
0.0333708
0.0400032
0.0574771
0.106943
0.288092
1.56409
)
;
    }
    rightWall
    {
        type            epsilonWallFunction;
        value           nonuniform List<scalar> 
50
(
0.00277864
0.00537072
0.0109098
0.0202982
0.0349377
0.0383072
0.037743
0.034904
0.028871
0.0244137
0.0244873
0.0317003
0.0390734
0.0446313
0.0481731
0.0496496
0.0524103
0.0589169
0.053694
0.0585834
0.0591934
0.0527902
0.0447716
0.0383387
0.0339266
0.0323213
0.0331947
0.0354627
0.0381979
0.0409044
0.0433797
0.0455658
0.0474801
0.0491988
0.050854
0.0524734
0.0540131
0.0555345
0.0571698
0.0590821
0.0615477
0.0649856
0.0701557
0.0783511
0.0919166
0.11505
0.156242
0.237834
0.454514
1.4561
)
;
    }
    lowerWall
    {
        type            epsilonWallFunction;
        value           nonuniform List<scalar> 
62
(
0.00307567
0.0159529
0.0287979
0.0407858
0.0518576
0.0620527
0.0713596
0.0797672
0.0873027
0.0940664
0.100518
0.106355
0.111209
0.114899
0.117216
0.11787
0.116397
0.11206
0.103706
0.0896386
0.067803
0.0372406
0.00704813
0.00704813
0.0143078
0.0254415
0.0381633
0.0536761
0.0752546
0.111462
0.187068
0.190508
0.146222
0.144062
0.152768
0.00594941
0.00802627
0.0122095
0.0166196
0.0219533
0.0293001
0.0467054
0.0912713
0.00594941
0.017144
0.0275027
0.039084
0.050594
0.0580025
0.064797
0.0694921
0.0715553
0.0739697
0.0655751
0.0589823
0.0603135
0.053087
0.0443276
0.0367465
0.0278828
0.01669
0.00277864
)
;
    }
    atmosphere
    {
        type            inletOutlet;
        inletValue      uniform 0.1;
        value           nonuniform List<scalar> 
46
(
0.1
0.1
0.117926
0.0725143
0.0493351
0.0374019
0.0316499
0.0295162
0.0297635
0.0318864
0.0357899
0.0415983
0.0495131
0.0600578
0.1
0.1
0.1
0.1
0.1
0.1
0.1
0.1
0.1
0.1
0.1
0.1
0.1
0.1
0.1
0.1
0.1
0.1
0.060777
0.0489037
0.0425186
0.0400411
0.0415322
0.0498738
0.1
0.0784643
0.1
0.1
0.1
0.1
0.1
0.1
)
;
    }
    defaultFaces
    {
        type            empty;
    }
}


// ************************************************************************* //
