/*--------------------------------*- C++ -*----------------------------------*\
  =========                 |
  \\      /  F ield         | OpenFOAM: The Open Source CFD Toolbox
   \\    /   O peration     | Website:  https://openfoam.org
    \\  /    A nd           | Version:  13
     \\/     M anipulation  |
\*---------------------------------------------------------------------------*/
FoamFile
{
    format      ascii;
    class       volScalarField;
    location    "2.95";
    object      k;
}
// * * * * * * * * * * * * * * * * * * * * * * * * * * * * * * * * * * * * * //

dimensions      [0 2 -2 0 0 0 0];

internalField   nonuniform List<scalar> 
2268
(
0.000806326
0.00241939
0.00357701
0.004506
0.00528707
0.00596066
0.00654664
0.00705712
0.00750213
0.0078935
0.00826208
0.00858479
0.00884727
0.00904245
0.00916145
0.00919122
0.00910876
0.00887505
0.00842341
0.00764096
0.0063446
0.00425681
0.00138483
0.00207257
0.00562526
0.00797688
0.00987528
0.0114704
0.012847
0.0140497
0.0151053
0.016034
0.016853
0.017577
0.0181948
0.0187014
0.0190824
0.019318
0.0193793
0.0192195
0.0187618
0.0178792
0.0163629
0.0138774
0.0099269
0.00368797
0.00304823
0.00763517
0.0105306
0.0128664
0.0148329
0.0165274
0.018005
0.0193003
0.0204389
0.021442
0.0223206
0.0230698
0.0236803
0.0241353
0.024412
0.024478
0.0242812
0.023737
0.0227059
0.0209564
0.0180993
0.0134633
0.00541714
0.00389892
0.0092098
0.012437
0.0150428
0.017253
0.0191664
0.020839
0.0223073
0.023598
0.0247334
0.0257228
0.0265634
0.0272444
0.0277489
0.0280546
0.0281299
0.0279246
0.0273566
0.0262903
0.0244956
0.0215547
0.0166053
0.00709404
0.00464027
0.0105281
0.014003
0.0168106
0.0192147
0.0213113
0.0231533
0.0247743
0.0261995
0.0274502
0.0285354
0.0294529
0.0301925
0.0307388
0.031072
0.0311642
0.0309703
0.0304161
0.0293783
0.0276416
0.0247787
0.0197348
0.00889537
0.00529763
0.0116636
0.0153537
0.0183325
0.0209058
0.0231684
0.025168
0.0269331
0.0284851
0.029844
0.0310183
0.0320067
0.0328005
0.0333864
0.0337482
0.0338632
0.0336937
0.0331764
0.0322045
0.0305887
0.0279237
0.0230252
0.0111292
0.00590238
0.0126535
0.0165474
0.019685
0.0224146
0.0248333
0.0269845
0.0288893
0.030564
0.0320273
0.0332874
0.0343436
0.0351894
0.035814
0.0362049
0.0363459
0.036208
0.0357396
0.0348523
0.0333907
0.031014
0.0265865
0.0144419
0.00644699
0.0135159
0.0176141
0.0209061
0.0237838
0.0263503
0.0286467
0.0306856
0.0324769
0.034039
0.0353788
0.0364967
0.0373884
0.0380456
0.0384599
0.0386227
0.0385145
0.0380958
0.0372957
0.0359952
0.0339511
0.0303526
0.0203792
0.00124222
0.00253397
0.00346015
0.00433161
0.00512868
0.0056274
0.00606703
0.00637037
0.00651916
0.0066862
0.00619569
0.00578358
0.00587153
0.00539092
0.00477514
0.00420988
0.00350297
0.00249014
0.000753178
0.00268671
0.00566431
0.0078398
0.00974445
0.0113509
0.0124179
0.0133707
0.0140447
0.0144101
0.0144576
0.013861
0.0131088
0.0129013
0.0117884
0.0105869
0.00940702
0.00799075
0.00593498
0.00206413
0.00356366
0.00770187
0.0106185
0.0128829
0.0147363
0.0161299
0.0172011
0.0179852
0.0184348
0.0185445
0.0179923
0.0172744
0.0166834
0.0151973
0.0136639
0.0122031
0.0105267
0.0081442
0.00330725
0.00439294
0.00973181
0.0131677
0.015612
0.017378
0.0187985
0.019925
0.0207731
0.0212663
0.0214262
0.0210354
0.0203966
0.0197388
0.0178543
0.0160052
0.0143573
0.0126137
0.0103
0.00499761
0.00530838
0.0117444
0.0155293
0.0180768
0.0198103
0.0210903
0.0221894
0.0230064
0.0233905
0.0233814
0.0230903
0.0227716
0.0226379
0.020134
0.0179469
0.0162455
0.0144221
0.0121256
0.00717501
0.00652234
0.0138175
0.0178304
0.0202635
0.0219556
0.0232263
0.0242895
0.0249951
0.0252296
0.0250767
0.0246704
0.0242984
0.0250414
0.0218324
0.0195909
0.0177865
0.0156726
0.0128964
0.00762977
0.00898902
0.0163272
0.0202551
0.022434
0.0239387
0.0251661
0.0262061
0.0268201
0.0269743
0.0267415
0.0262426
0.0255777
0.0260525
0.0230347
0.0209121
0.0189248
0.0165158
0.0131648
0.00755531
0.0139367
0.0195304
0.022817
0.0246182
0.0258729
0.026962
0.0279317
0.0284848
0.0285533
0.0282126
0.0276134
0.0266871
0.0264199
0.024076
0.0220459
0.0198853
0.0171884
0.0131835
0.00717175
0.00681845
0.0145764
0.0189959
0.0225259
0.0256096
0.0283689
0.030846
0.0330451
0.0349715
0.0366403
0.0380554
0.0392285
0.0401604
0.0408469
0.0412863
0.0414792
0.0414189
0.0410818
0.0404214
0.0393693
0.037812
0.0354436
0.0311298
0.00712679
0.0156293
0.0204621
0.024231
0.0274531
0.0302917
0.0328026
0.0350069
0.0369306
0.0385975
0.0400151
0.0411973
0.0421539
0.0428884
0.0434036
0.0437052
0.0437911
0.043646
0.0432412
0.042538
0.0414776
0.0399377
0.0376635
0.00753203
0.0166467
0.0218869
0.0258624
0.0291779
0.0320395
0.0345282
0.0366921
0.0385756
0.040204
0.0415989
0.0427792
0.0437615
0.0445562
0.0451707
0.0456103
0.0458687
0.0459261
0.0457525
0.0453083
0.0445454
0.0434159
0.0419337
0.00799453
0.0176978
0.0233741
0.0275561
0.0309492
0.0338159
0.0362817
0.0384219
0.0402744
0.0418689
0.0432448
0.0444307
0.045445
0.0462988
0.0470063
0.0475743
0.0479837
0.0481913
0.0481596
0.0478529
0.0472387
0.0463158
0.0451652
0.00862271
0.019169
0.0250523
0.0293435
0.0327654
0.035622
0.0380792
0.0402123
0.0420436
0.0436159
0.0449808
0.0461733
0.0472143
0.0481167
0.0488924
0.0495431
0.0500349
0.0503165
0.0503521
0.0501142
0.0495828
0.0487814
0.0478054
0.00915849
0.0204592
0.0266503
0.0310726
0.0345534
0.0374391
0.0399043
0.0420208
0.0438299
0.0453811
0.0467252
0.0479052
0.0489564
0.0498989
0.0507196
0.0514017
0.0519261
0.0522594
0.0523424
0.0521345
0.0516318
0.0508867
0.0500147
0.00963778
0.0213203
0.0279774
0.0326393
0.0362604
0.0392253
0.0417122
0.0438081
0.0455881
0.047109
0.048423
0.0495796
0.0506225
0.0515731
0.0524087
0.0530998
0.05363
0.0539694
0.0540508
0.053833
0.0533377
0.0526374
0.0518446
0.0102063
0.0224389
0.0293535
0.0342069
0.0379651
0.041011
0.0435143
0.0455844
0.0473188
0.0487919
0.0500637
0.0511894
0.0522151
0.0531573
0.0539858
0.0546574
0.055149
0.0554325
0.0554601
0.0552109
0.0547214
0.054065
0.053336
0.0107552
0.0235816
0.0308485
0.0358939
0.039785
0.0429124
0.0454197
0.0474247
0.0490673
0.0504588
0.0516691
0.0527558
0.0537635
0.0546978
0.0555017
0.0561119
0.0565101
0.056682
0.0566131
0.0563177
0.0558368
0.0552279
0.0545688
0.0117434
0.0248676
0.0327528
0.0379592
0.0419599
0.0451587
0.0476258
0.0494766
0.0509268
0.0521603
0.0532513
0.0542244
0.0551034
0.0558854
0.056535
0.0570194
0.0573323
0.0574653
0.0574038
0.057155
0.0567439
0.0562001
0.0555884
0.0131458
0.0268183
0.0341161
0.0392165
0.0433141
0.0466194
0.0491064
0.0508772
0.0521913
0.0532851
0.0542297
0.0550188
0.0556802
0.0562376
0.056695
0.0570459
0.0572901
0.0574234
0.0574287
0.0572954
0.0570261
0.0566346
0.0561495
0.0136315
0.0278432
0.0347802
0.0395685
0.0433529
0.0464371
0.0488577
0.0506831
0.0520857
0.0532389
0.054212
0.0549999
0.0556395
0.0561681
0.0566022
0.0569448
0.0571992
0.0573615
0.0574161
0.057348
0.0571529
0.0568428
0.0564554
0.0137475
0.0280207
0.0348091
0.0394127
0.0429759
0.0458596
0.0481688
0.0499874
0.0514524
0.0526796
0.05372
0.0545748
0.0552733
0.0558487
0.0563198
0.0566951
0.0569799
0.0571752
0.0572736
0.057264
0.05714
0.0569076
0.056592
0.0136401
0.0278755
0.0345619
0.0390311
0.0424416
0.0451868
0.0474105
0.0492105
0.0507029
0.0519675
0.053048
0.0539584
0.0547215
0.0553599
0.0558893
0.0563179
0.0566514
0.0568925
0.0570382
0.0570818
0.057017
0.0568453
0.0565871
0.0132742
0.027446
0.0340554
0.0384314
0.0417502
0.0444276
0.0466203
0.0484183
0.0499206
0.051196
0.0522955
0.0532433
0.0540559
0.0547491
0.0553335
0.055816
0.0562011
0.0564908
0.0566838
0.0567758
0.0567615
0.0566419
0.0564374
0.0128269
0.0268
0.0333281
0.0376309
0.0408946
0.0435411
0.045733
0.0475501
0.0490678
0.0503574
0.051476
0.0524535
0.0533055
0.0540431
0.0546742
0.0552036
0.0556347
0.0559684
0.0562038
0.0563383
0.056368
0.0562945
0.0561394
0.0123989
0.0259729
0.0323942
0.03664
0.0398758
0.0425098
0.0447083
0.0465512
0.0481022
0.0494263
0.0505771
0.0515888
0.0524776
0.0532541
0.0539248
0.0544938
0.0549636
0.055335
0.0556072
0.0557789
0.0558477
0.0558159
0.0557042
0.0119479
0.0250112
0.0312792
0.0354807
0.0387061
0.0413403
0.0435512
0.0454243
0.0470196
0.048392
0.0495888
0.0506426
0.0515718
0.0523872
0.0530954
0.0537008
0.0542056
0.054611
0.0549167
0.0551226
0.0552275
0.0552335
0.0551594
0.0114209
0.023943
0.0300506
0.0341991
0.0374141
0.0400563
0.0422867
0.0441939
0.0458366
0.0472629
0.0485127
0.0496155
0.0505901
0.0514477
0.0521955
0.0528381
0.0533784
0.0538179
0.0541574
0.0543975
0.0545378
0.0545803
0.0545406
0.0108304
0.0228097
0.0287562
0.0328487
0.0360471
0.0386934
0.0409461
0.0428885
0.044578
0.0460579
0.0473625
0.0485179
0.0495419
0.0504458
0.051237
0.0519206
0.0524998
0.052977
0.0533534
0.0536304
0.0538082
0.0538885
0.0538838
0.0102095
0.0216583
0.027444
0.0314756
0.0346533
0.037299
0.0395662
0.04154
0.0432727
0.0448028
0.0461605
0.0473692
0.0484449
0.0493984
0.050237
0.0509661
0.0515892
0.0521089
0.0525271
0.0528456
0.053065
0.0531866
0.0532203
0.00959963
0.0205354
0.0261606
0.0301244
0.0332741
0.0359137
0.0381901
0.0401861
0.0419533
0.0435277
0.0449351
0.0461956
0.0473232
0.0483282
0.0492175
0.0499962
0.050668
0.0512354
0.0517007
0.0520658
0.0523314
0.0524988
0.0525754
0.0090403
0.0194827
0.0249458
0.0288334
0.0319458
0.0345712
0.0368498
0.0388613
0.0406559
0.042267
0.0437183
0.045027
0.0462054
0.0472624
0.0482045
0.049036
0.0497603
0.0503798
0.0508966
0.0513126
0.0516288
0.0518459
0.0519693
0.00855966
0.0185311
0.0238295
0.0276317
0.030697
0.0332995
0.0355729
0.0375934
0.0394088
0.0410508
0.042541
0.0438944
0.0451219
0.0462308
0.0472266
0.0481129
0.0488924
0.0495671
0.0501387
0.0506087
0.050978
0.0512473
0.0514203
0.00816675
0.0176979
0.0228284
0.0265371
0.0295471
0.0321195
0.0343815
0.0364059
0.0382377
0.0399065
0.0414321
0.042828
0.0441032
0.0452639
0.046314
0.0472563
0.0480926
0.0488242
0.0494522
0.0499778
0.0504016
0.0507239
0.0509467
0.00784067
0.0169903
0.0219467
0.025556
0.0285062
0.0310444
0.033292
0.0353178
0.0371641
0.0388583
0.0404184
0.0418562
0.0431792
0.044392
0.0454973
0.0464966
0.0473908
0.0481804
0.0488655
0.0494467
0.0499242
0.050298
0.0505689
0.00756456
0.0163855
0.0211793
0.0246894
0.0275776
0.0300814
0.0323154
0.034344
0.0362064
0.0379277
0.0395241
0.0410056
0.0423783
0.0436451
0.0448073
0.0458652
0.0468183
0.0476661
0.0484079
0.0490434
0.0495724
0.0499947
0.0503101
0.00732386
0.0158578
0.020506
0.0239275
0.0267617
0.0292368
0.0314618
0.0334976
0.0353808
0.0371342
0.0387718
0.0403018
0.0417285
0.0430532
0.0442755
0.0453941
0.0464072
0.0473132
0.0481106
0.0487985
0.0493762
0.0498432
0.0501986
0.00710616
0.0153867
0.0199101
0.0232592
0.026053
0.0285113
0.0307383
0.0327912
0.0347042
0.036498
0.0381847
0.0397707
0.041258
0.0426464
0.0439336
0.0451165
0.0461918
0.0471568
0.048009
0.0487471
0.0493698
0.0498765
0.0502663
0.00690269
0.0149585
0.0193822
0.0226799
0.0254518
0.0279098
0.0301534
0.0322369
0.0341924
0.0360385
0.0377857
0.0394382
0.0409963
0.0424571
0.0438164
0.0450691
0.0462102
0.0472356
0.0481422
0.0489281
0.0495918
0.0501327
0.0505501
0.00670936
0.0145694
0.0189224
0.0221944
0.0249669
0.0274441
0.0297216
0.0318514
0.0338641
0.0357772
0.0375992
0.0393324
0.0409745
0.04252
0.0439618
0.0452922
0.0465043
0.0475929
0.048554
0.0493853
0.0500856
0.0506546
0.0510918
0.00652699
0.014226
0.0185437
0.0218201
0.0246183
0.0271355
0.0294644
0.0316564
0.033742
0.0357379
0.0376517
0.0394831
0.0412267
0.0428733
0.0444118
0.0458311
0.0471222
0.0482781
0.0492944
0.050169
0.0509012
0.0514913
0.0519401
0.00636249
0.0139501
0.0182765
0.0215918
0.0244412
0.0270167
0.0294114
0.0316789
0.0338514
0.0359468
0.0379716
0.0399229
0.0417906
0.0435602
0.0452149
0.0467388
0.0481195
0.0493486
0.0504217
0.0513373
0.0520963
0.0527001
0.053151
0.00623144
0.013786
0.0181776
0.0215686
0.0244898
0.0271339
0.0296001
0.0319491
0.0342187
0.0364293
0.0385871
0.0406853
0.0427073
0.04463
0.0464276
0.0480774
0.0495624
0.0508727
0.0520046
0.0529588
0.0537385
0.0543477
0.0547906
0.00616487
0.0138169
0.0183466
0.0218458
0.0248438
0.0275476
0.0300737
0.0324975
0.0348665
0.0372063
0.0395225
0.0418028
0.0440203
0.0461382
0.0481164
0.0499213
0.0515299
0.0529313
0.0541241
0.0551133
0.0559066
0.0565117
0.0569358
0.00622358
0.0141991
0.0189571
0.022575
0.0256164
0.0283321
0.0308755
0.0333462
0.0358061
0.0382865
0.0407919
0.0433019
0.0457732
0.0481467
0.050359
0.0523588
0.0541156
0.0556192
0.0568742
0.057893
0.0586908
0.0592812
0.0596757
0.00653209
0.0152372
0.0203208
0.023997
0.026961
0.0295688
0.0320374
0.0344978
0.0370252
0.0396548
0.0423885
0.0451938
0.0480032
0.0507213
0.0532446
0.0554927
0.057427
0.0590436
0.0603594
0.0613998
0.0621913
0.0627558
0.0631102
0.00736408
0.0175544
0.0230013
0.0264805
0.0290664
0.0313259
0.0335587
0.0359161
0.0384723
0.0412581
0.0442693
0.0474595
0.0507286
0.0539241
0.0568723
0.0594384
0.0615806
0.0633163
0.0646872
0.0657391
0.0665138
0.0670413
0.0673464
0.00935186
0.0224183
0.0279291
0.0305044
0.0321019
0.0336082
0.0353712
0.0375042
0.0400402
0.0429872
0.046333
0.0500217
0.0539193
0.0577942
0.06135
0.0643219
0.0666908
0.0685361
0.0699494
0.0710043
0.0717613
0.0722454
0.0724904
0.0140695
0.0321576
0.036195
0.0363903
0.0360353
0.03626
0.0372945
0.0390857
0.0415555
0.0446635
0.0483916
0.0526945
0.0574301
0.0622978
0.0668252
0.0703039
0.0728685
0.0747696
0.0761955
0.0772547
0.0780303
0.0784756
0.0786385
0.0271586
0.0514593
0.0481218
0.0435598
0.0402767
0.0388311
0.0390009
0.0404054
0.0427874
0.0460388
0.050145
0.0551089
0.0608619
0.0672058
0.0737543
0.0777854
0.0803446
0.0821212
0.0834643
0.0845212
0.0854437
0.0858672
0.0858956
0.0850429
0.087712
0.061485
0.0495901
0.0433671
0.0405304
0.0400465
0.041174
0.0434904
0.0468321
0.051196
0.0566563
0.0633306
0.0716876
0.0846664
0.0885498
0.0903244
0.0914414
0.0923348
0.0931698
0.0943387
0.0946736
0.0945352
0.0206782
0.0173108
0.0172055
0.0180105
0.0352593
0.034
0.0332215
0.0326645
0.0407318
0.0400459
0.0394866
0.0389151
0.0443072
0.0438137
0.043385
0.0429664
0.0471083
0.0467059
0.0463412
0.0459801
0.0493973
0.0490314
0.0486892
0.0483497
0.0512753
0.0509278
0.0505942
0.0502639
0.0528042
0.052476
0.0521593
0.0518478
0.0540877
0.053784
0.0534873
0.0531969
0.0551571
0.0548847
0.0546242
0.0543734
0.0557962
0.0555844
0.0553908
0.0551945
0.0561502
0.0559523
0.0557603
0.0555632
0.0563165
0.0561286
0.0559368
0.0557389
0.056338
0.0561607
0.0559761
0.0557841
0.0562197
0.056057
0.0558835
0.055699
0.0559539
0.0558073
0.0556456
0.0554686
0.0555475
0.0554157
0.0552654
0.0550963
0.0550275
0.0549093
0.0547705
0.0546109
0.0544319
0.054328
0.0542021
0.0540546
0.0537998
0.053712
0.0536018
0.0534698
0.0531642
0.053095
0.0530034
0.0528901
0.0525504
0.0525027
0.0524326
0.0523405
0.051979
0.0519543
0.0519071
0.0518379
0.0514659
0.0514649
0.0514413
0.0513952
0.0510279
0.0510499
0.0510491
0.0510253
0.0506835
0.0507271
0.0507473
0.0507442
0.0504552
0.050518
0.050557
0.0505718
0.0503698
0.050449
0.0505033
0.0505325
0.0504587
0.0505505
0.0506164
0.0506559
0.0507578
0.0508582
0.050931
0.0509761
0.0513084
0.0514125
0.0514874
0.0515327
0.052158
0.0522609
0.0523321
0.0523716
0.0533624
0.0534583
0.0535198
0.0535468
0.0549869
0.05507
0.0551153
0.0551227
0.0571085
0.0571728
0.0571955
0.0571764
0.0598168
0.0598572
0.0598519
0.0598001
0.0632139
0.0632269
0.0631905
0.0631032
0.0674093
0.0673947
0.067329
0.0672097
0.0725089
0.0724693
0.0723832
0.0722475
0.0785897
0.0785236
0.078435
0.0783202
0.0856813
0.0855627
0.0854937
0.0854733
0.0939702
0.0937591
0.0937264
0.0938752
0.0223368
0.0247706
0.0267517
0.0279613
0.0288294
0.0296413
0.0304041
0.0308
0.030659
0.030144
0.0293682
0.0282413
0.0274696
0.0257924
0.0236978
0.0212828
0.0180877
0.012856
0.00631491
0.0319809
0.0317187
0.0320737
0.0323969
0.032709
0.0330292
0.0333974
0.0333969
0.0329677
0.0322276
0.0312837
0.0302417
0.0296323
0.0278825
0.0255925
0.0227886
0.0186049
0.0122046
0.00564366
0.037917
0.0370195
0.0366205
0.0363455
0.0361799
0.036055
0.0360019
0.0356893
0.0350589
0.0341449
0.033069
0.0319613
0.0310008
0.0291605
0.0266352
0.0234361
0.0190567
0.0129831
0.00566206
0.0421712
0.0411355
0.0403802
0.0397402
0.0391889
0.038713
0.0383087
0.0377702
0.0369803
0.0359581
0.0347794
0.0334874
0.0320696
0.0300815
0.0275211
0.0243898
0.0204123
0.0151123
0.00672125
0.0453262
0.0443246
0.0434348
0.0426184
0.0418358
0.041122
0.0404651
0.0397366
0.0388212
0.0377105
0.0364335
0.0349819
0.033306
0.0312417
0.0287493
0.025768
0.0220539
0.0170187
0.00772737
0.0477632
0.0468361
0.045923
0.0450257
0.0441389
0.0433126
0.0425221
0.0416491
0.0406077
0.0393987
0.0380229
0.0364593
0.0346649
0.0325549
0.0300754
0.0271282
0.0234559
0.0183287
0.00843783
0.0497124
0.0488704
0.047982
0.0470637
0.0461436
0.0452725
0.0444086
0.0434318
0.0422841
0.0409752
0.0395061
0.0378555
0.0359847
0.0338314
0.03132
0.0283226
0.0245651
0.0192524
0.00887438
0.0513363
0.0505688
0.0497246
0.0488143
0.0478953
0.0470132
0.0461015
0.0450426
0.0437982
0.0423933
0.0408374
0.0391099
0.0371691
0.0349564
0.032389
0.0293123
0.0254214
0.0199465
0.0090515
0.0527263
0.0520298
0.0512269
0.0503267
0.0494237
0.0485609
0.047624
0.0464837
0.0451368
0.0436324
0.0419942
0.0401975
0.0381837
0.0358938
0.0332594
0.0301099
0.0261132
0.0205232
0.00937762
0.0539611
0.0533461
0.0525688
0.0516412
0.050758
0.0499701
0.0490576
0.047815
0.0463236
0.0446922
0.0429728
0.041132
0.0390558
0.0366798
0.0339329
0.0307017
0.0266315
0.0209057
0.0101177
0.0548271
0.0542113
0.053426
0.0525183
0.0516918
0.0509105
0.0499788
0.0487271
0.0471925
0.045471
0.0436684
0.041809
0.0397651
0.037317
0.034369
0.031002
0.0268105
0.0207562
0.00951801
0.0552063
0.0546141
0.0538875
0.0530547
0.0521911
0.0512874
0.0502875
0.049085
0.0476266
0.0459396
0.0440997
0.0421534
0.0399881
0.0374481
0.0344811
0.0310842
0.0269614
0.0211858
0.0100713
0.0553879
0.0548181
0.0541232
0.0533075
0.0524155
0.0514543
0.0503877
0.0491391
0.0476865
0.0460357
0.0442047
0.0421899
0.0399096
0.0373015
0.0343003
0.0308504
0.0267013
0.0210435
0.0101569
0.0554473
0.0548988
0.0542198
0.0534056
0.0524823
0.0514643
0.050332
0.0490509
0.0475935
0.0459514
0.0441121
0.0420382
0.0396607
0.0369445
0.033833
0.0302684
0.0259981
0.0202702
0.00943262
0.0553741
0.0548343
0.0541576
0.0533376
0.0523862
0.05132
0.0501389
0.0488252
0.0473591
0.0457156
0.0438579
0.0417272
0.039257
0.0364154
0.0331762
0.0294563
0.0250066
0.0191228
0.0084754
0.0551526
0.0546136
0.0539335
0.0531104
0.0521475
0.0510575
0.049846
0.0485066
0.0470211
0.0453563
0.0434613
0.04127
0.0387206
0.0357798
0.0324182
0.0285369
0.0238955
0.0178299
0.00766221
0.0547891
0.0542517
0.0535723
0.0527535
0.0517948
0.0507021
0.0494789
0.0481204
0.0466087
0.0449092
0.0429695
0.0407256
0.0381184
0.035111
0.0316641
0.0276765
0.022911
0.0167549
0.00706948
0.0543158
0.0537871
0.0531169
0.0523112
0.0513673
0.0502849
0.0490624
0.0476925
0.0461572
0.0444239
0.0424449
0.0401649
0.0375303
0.0345044
0.0310379
0.0270278
0.0222543
0.0161526
0.00684156
0.0537769
0.053266
0.052615
0.0518308
0.0509088
0.0498442
0.0486308
0.0472585
0.0457095
0.0439549
0.0419553
0.0396643
0.037041
0.0340449
0.0306238
0.0266816
0.0220154
0.0160822
0.00695427
0.0532148
0.0527306
0.0521078
0.0513522
0.0504576
0.0494163
0.0482194
0.0468553
0.0453068
0.0435497
0.041553
0.0392821
0.0367014
0.0337738
0.0304491
0.0266374
0.0221427
0.0164065
0.00725769
0.0526632
0.0522131
0.0516255
0.0509041
0.0500413
0.0490283
0.0478552
0.0465099
0.0449767
0.0432366
0.0412659
0.0390375
0.0365224
0.0336873
0.0304842
0.0268245
0.0225064
0.0169287
0.00762007
0.0521455
0.0517347
0.0511871
0.0505035
0.049676
0.0486956
0.0475524
0.0462351
0.04473
0.0430222
0.0410933
0.0389219
0.036484
0.0337489
0.0306687
0.0271512
0.0229809
0.0175065
0.00797327
0.0516769
0.0513085
0.050803
0.050159
0.0493687
0.0484238
0.047315
0.0460322
0.0445638
0.0428978
0.0410193
0.0389112
0.036552
0.0339119
0.0309415
0.0275422
0.0234827
0.0180661
0.00829157
0.051269
0.0509433
0.0504798
0.0498753
0.0491224
0.0482138
0.0471414
0.0458964
0.0444692
0.0428489
0.0410236
0.0389783
0.0366927
0.0341366
0.0312573
0.0279496
0.0239682
0.0185778
0.00856899
0.050933
0.0506482
0.0502245
0.0496573
0.04894
0.0480665
0.04703
0.0458228
0.0444369
0.0428629
0.0410897
0.039103
0.0368826
0.0343971
0.0315904
0.0283508
0.0244214
0.0190359
0.00880927
0.0506832
0.0504354
0.050047
0.049513
0.0488276
0.0479859
0.0469822
0.0458105
0.0444635
0.0429325
0.0412073
0.0392733
0.0371095
0.034682
0.0319313
0.0287402
0.024842
0.0194457
0.00902618
0.0505377
0.0503213
0.0499623
0.0494553
0.0487958
0.0479803
0.0470046
0.0458636
0.044551
0.0430587
0.0413761
0.0394881
0.0373719
0.0349912
0.0322827
0.0291243
0.0252411
0.0198214
0.00923275
0.0505198
0.0503274
0.0499897
0.0495017
0.0488602
0.0480634
0.0471085
0.0459918
0.0447077
0.0432485
0.0416029
0.0397544
0.0376782
0.0353346
0.0326565
0.0295168
0.0256329
0.0201753
0.00942856
0.0506577
0.05048
0.0501535
0.0496741
0.0490405
0.0482525
0.0473095
0.046209
0.0449465
0.0435144
0.0419006
0.0400864
0.038044
0.0357298
0.033072
0.0299378
0.0260378
0.0205257
0.00961235
0.0509847
0.0508102
0.0504826
0.0499989
0.0493601
0.0485686
0.0476259
0.046532
0.0452834
0.0438727
0.0422866
0.0405036
0.0384917
0.0362019
0.0335561
0.0304153
0.0264822
0.0208949
0.00979199
0.0515389
0.0513542
0.0510103
0.0505062
0.0498458
0.0490349
0.0480785
0.0469794
0.0457364
0.0443424
0.0427823
0.0410313
0.039051
0.0367851
0.0341467
0.030988
0.0270027
0.0213132
0.00998318
0.0523651
0.0521541
0.0517754
0.0512307
0.0505278
0.0496772
0.048689
0.0475709
0.0463248
0.0449446
0.0434136
0.0417017
0.0397625
0.0375279
0.0348983
0.0317128
0.0276532
0.0218238
0.0102049
0.0535159
0.0532598
0.052824
0.0522133
0.0514406
0.0505236
0.0494804
0.048326
0.047068
0.0457025
0.0442111
0.0425569
0.0406813
0.0384995
0.0358916
0.0326764
0.0285168
0.022494
0.0104881
0.0550547
0.0547318
0.0542118
0.0535026
0.0526243
0.0516051
0.0504758
0.0492635
0.0479848
0.0466407
0.0452112
0.0436511
0.0418842
0.0398001
0.0372475
0.0340119
0.0297247
0.0234312
0.0108782
0.0570583
0.056645
0.0560087
0.0551601
0.0541281
0.052957
0.0516984
0.0503992
0.0490911
0.0477835
0.0464569
0.0450551
0.0434772
0.0415736
0.0391444
0.0359216
0.0314824
0.0248098
0.0114532
0.0596208
0.059094
0.0583061
0.0572669
0.0560158
0.0546219
0.0531711
0.0517439
0.0503963
0.0491526
0.0479969
0.0468603
0.0456049
0.0440207
0.0418356
0.0387005
0.0341009
0.0269039
0.0123365
0.0628569
0.0622008
0.061228
0.0599382
0.0583791
0.0566558
0.0549167
0.0532993
0.0518983
0.0507617
0.0498847
0.0491842
0.0484618
0.0474113
0.0456594
0.0427483
0.0380208
0.0301272
0.0137292
0.0669038
0.0661237
0.0649489
0.0633488
0.0613618
0.0591402
0.0569575
0.0550515
0.0535743
0.0526095
0.0521787
0.052185
0.0523117
0.0520894
0.0510225
0.0485449
0.0438094
0.0350673
0.0159441
0.0719166
0.071064
0.0697181
0.0677773
0.0652105
0.0621947
0.0593059
0.0569565
0.0553661
0.0546662
0.0549451
0.0561042
0.057521
0.0584653
0.0583363
0.0565553
0.0521004
0.0425494
0.0195224
0.0780535
0.0772628
0.0758789
0.0736743
0.0703756
0.0659643
0.0619238
0.0589081
0.0571555
0.0568514
0.058269
0.0614124
0.0646033
0.0669739
0.0678799
0.0670285
0.0634292
0.05378
0.025723
0.0854663
0.0849733
0.0838465
0.08173
0.0777475
0.0704675
0.0645888
0.0606729
0.0587244
0.0589764
0.0622371
0.0693311
0.0740927
0.0779519
0.079593
0.0796799
0.0777966
0.0705249
0.0392544
0.0943995
0.0943974
0.0939486
0.092802
0.0893321
0.0748903
0.0666037
0.0618194
0.0597179
0.0605728
0.066479
0.0837065
0.0849804
0.091468
0.0929218
0.0933884
0.0935568
0.0933935
0.0867553
)
;

boundaryField
{
    leftWall
    {
        type            kqRWallFunction;
        value           nonuniform List<scalar> 
50
(
0.000806326
0.00207257
0.00304823
0.00389892
0.00464027
0.00529763
0.00590238
0.00644699
0.00681845
0.00712679
0.00753203
0.00799453
0.00862271
0.00915849
0.00963778
0.0102063
0.0107552
0.0117434
0.0131458
0.0136315
0.0137475
0.0136401
0.0132742
0.0128269
0.0123989
0.0119479
0.0114209
0.0108304
0.0102095
0.00959963
0.0090403
0.00855966
0.00816675
0.00784067
0.00756456
0.00732386
0.00710616
0.00690269
0.00670936
0.00652699
0.00636249
0.00623144
0.00616487
0.00622358
0.00653209
0.00736408
0.00935186
0.0140695
0.0271586
0.0850429
)
;
    }
    rightWall
    {
        type            kqRWallFunction;
        value           nonuniform List<scalar> 
50
(
0.000753178
0.00206413
0.00330725
0.00499761
0.00717501
0.00762977
0.00755531
0.00717175
0.00631491
0.00564366
0.00566206
0.00672125
0.00772737
0.00843783
0.00887438
0.0090515
0.00937762
0.0101177
0.00951801
0.0100713
0.0101569
0.00943262
0.0084754
0.00766221
0.00706948
0.00684156
0.00695427
0.00725769
0.00762007
0.00797327
0.00829157
0.00856899
0.00880927
0.00902618
0.00923275
0.00942856
0.00961235
0.00979199
0.00998318
0.0102049
0.0104881
0.0108782
0.0114532
0.0123365
0.0137292
0.0159441
0.0195224
0.025723
0.0392544
0.0867553
)
;
    }
    lowerWall
    {
        type            kqRWallFunction;
        value           nonuniform List<scalar> 
62
(
0.000806326
0.00241939
0.00357701
0.004506
0.00528707
0.00596066
0.00654664
0.00705712
0.00750213
0.0078935
0.00826208
0.00858479
0.00884727
0.00904245
0.00916145
0.00919122
0.00910876
0.00887505
0.00842341
0.00764096
0.0063446
0.00425681
0.00138483
0.00138483
0.00368797
0.00541714
0.00709404
0.00889537
0.0111292
0.0144419
0.0203792
0.0206782
0.0173108
0.0172055
0.0180105
0.00124222
0.00268671
0.00356366
0.00439294
0.00530838
0.00652234
0.00898902
0.0139367
0.00124222
0.00253397
0.00346015
0.00433161
0.00512868
0.0056274
0.00606703
0.00637037
0.00651916
0.0066862
0.00619569
0.00578358
0.00587153
0.00539092
0.00477514
0.00420988
0.00350297
0.00249014
0.000753178
)
;
    }
    atmosphere
    {
        type            inletOutlet;
        inletValue      uniform 0.1;
        value           nonuniform List<scalar> 
46
(
0.1
0.1
0.061485
0.0495901
0.0433671
0.0405304
0.0400465
0.041174
0.0434904
0.0468321
0.051196
0.0566563
0.0633306
0.0716876
0.1
0.1
0.1
0.1
0.1
0.1
0.1
0.1
0.1
0.1
0.1
0.1
0.1
0.1
0.1
0.1
0.1
0.1
0.0748903
0.0666037
0.0618194
0.0597179
0.0605728
0.066479
0.1
0.0849804
0.1
0.1
0.1
0.1
0.1
0.1
)
;
    }
    defaultFaces
    {
        type            empty;
    }
}


// ************************************************************************* //
