/*--------------------------------*- C++ -*----------------------------------*\
  =========                 |
  \\      /  F ield         | OpenFOAM: The Open Source CFD Toolbox
   \\    /   O peration     | Website:  https://openfoam.org
    \\  /    A nd           | Version:  13
     \\/     M anipulation  |
\*---------------------------------------------------------------------------*/
FoamFile
{
    format      ascii;
    class       volScalarField;
    location    "2.95";
    object      nut;
}
// * * * * * * * * * * * * * * * * * * * * * * * * * * * * * * * * * * * * * //

dimensions      [0 2 -1 0 0 0 0];

internalField   nonuniform List<scalar> 
2268
(
1.9025e-05
3.30228e-05
3.99872e-05
4.48039e-05
4.85132e-05
5.15313e-05
5.4054e-05
5.61918e-05
5.80209e-05
5.96139e-05
6.11192e-05
6.23656e-05
6.33464e-05
6.40467e-05
6.44444e-05
6.45037e-05
6.41534e-05
6.32608e-05
6.15762e-05
5.86197e-05
5.3432e-05
4.3792e-05
2.44885e-05
6.51958e-05
0.000255713
0.000329406
0.000381215
0.000424487
0.000463284
0.000498948
0.000531832
0.000562011
0.000589344
0.000612419
0.00063104
0.000646309
0.000658015
0.000665748
0.000668935
0.000666554
0.000656658
0.000635438
0.000595336
0.000520869
0.000378045
8.55549e-05
7.92191e-05
0.0004622
0.000636884
0.000753138
0.000848484
0.000933294
0.00101097
0.00108251
0.00114816
0.00120791
0.00125969
0.00130331
0.00133909
0.0013663
0.00138378
0.0013898
0.0013813
0.00135256
0.00129276
0.00118145
0.00098157
0.000633218
0.00010381
8.9595e-05
0.000619338
0.000899253
0.00108214
0.00122927
0.00135825
0.00147504
0.00158164
0.00167876
0.00176664
0.00184343
0.00190879
0.00196221
0.00200231
0.00202703
0.00203322
0.00201531
0.00196322
0.00185854
0.00166842
0.00133955
0.00080775
0.000118682
9.76164e-05
0.000737344
0.00111682
0.00136499
0.00156185
0.00173206
0.00188431
0.00202185
0.00214602
0.00225748
0.00235489
0.00243783
0.00250522
0.00255514
0.00258473
0.00258943
0.00256134
0.00248643
0.00233981
0.00207846
0.00163609
0.000947343
0.000132675
0.000104025
0.000825105
0.00129426
0.00160457
0.00184864
0.00205718
0.00224161
0.00240652
0.00255408
0.00268551
0.00280011
0.00289739
0.00297601
0.00303365
0.00306683
0.00306988
0.00303305
0.00293941
0.0027594
0.00244232
0.00190884
0.00108035
0.000148128
0.000109511
0.000888895
0.00143584
0.00180415
0.00209279
0.00233713
0.00255105
0.00274053
0.00290869
0.00305751
0.00318693
0.00329643
0.00338453
0.00344879
0.00348529
0.00348766
0.00344501
0.00333875
0.00313681
0.00278417
0.00218902
0.00123632
0.000168409
0.000114141
0.000932757
0.001545
0.00196681
0.00229758
0.00257565
0.00281698
0.00302895
0.00321566
0.00338017
0.00352293
0.0036433
0.00373993
0.00381036
0.00385056
0.00385382
0.00380883
0.00369654
0.00348476
0.00311883
0.00250308
0.0014697
0.000199811
2.33434e-05
3.3708e-05
3.91792e-05
4.32058e-05
4.67901e-05
4.91373e-05
5.11258e-05
5.25578e-05
5.34544e-05
5.43936e-05
5.26844e-05
5.10405e-05
5.14435e-05
4.92698e-05
4.62957e-05
4.34078e-05
3.96077e-05
3.34375e-05
1.8374e-05
8.09413e-05
0.000234565
0.000320082
0.000370757
0.000403796
0.000425714
0.000459873
0.000488844
0.000513583
0.000527756
0.000527721
0.000502922
0.000514635
0.000487595
0.000457846
0.000422021
0.000373167
0.000286068
7.13975e-05
9.36131e-05
0.000387697
0.000583382
0.000697993
0.000776389
0.000842802
0.000910122
0.000967422
0.00100981
0.00103737
0.00104278
0.00102259
0.00101422
0.000954347
0.000887556
0.000804535
0.000684132
0.000477922
9.02317e-05
0.000104504
0.000528465
0.000820923
0.00100002
0.00111833
0.00121732
0.00131359
0.00139197
0.00144485
0.00146916
0.00147566
0.00145881
0.001432
0.00134206
0.00124219
0.00111236
0.000922447
0.000617389
0.000110741
0.000115522
0.000661135
0.00104126
0.0012798
0.00143728
0.00155952
0.00167862
0.00177161
0.00182874
0.00184174
0.00183996
0.00181611
0.00177487
0.00165723
0.00153315
0.00136321
0.0011117
0.000723248
0.000132615
0.000130671
0.000770441
0.00124843
0.00153772
0.00173349
0.0018781
0.00201453
0.00211716
0.00217416
0.00217954
0.00216214
0.00211513
0.00205085
0.0019153
0.00177868
0.00156889
0.00125891
0.000792708
0.000136768
0.000155704
0.000881418
0.00145962
0.00178789
0.00200969
0.00217534
0.00232288
0.0024302
0.00248493
0.00248567
0.00245474
0.00238083
0.00227024
0.00213639
0.00198609
0.00173695
0.00136948
0.000827763
0.000136116
0.000191528
0.00104664
0.00169448
0.0020427
0.00227503
0.00245401
0.00260628
0.00271328
0.00276408
0.00275976
0.00271655
0.00261978
0.00246706
0.00233684
0.002165
0.00187565
0.00144811
0.000829949
0.000132622
0.000117467
0.0009738
0.00166826
0.00216778
0.00256192
0.00289082
0.00317299
0.0034179
0.00363131
0.00381746
0.00397713
0.00411107
0.00421853
0.00429734
0.00434358
0.0043504
0.00430656
0.00419367
0.00398206
0.00362509
0.00305388
0.00219452
0.00109972
0.000118633
0.000986891
0.00174742
0.0023259
0.00279178
0.00318159
0.00351415
0.0038005
0.00404812
0.00426157
0.00444267
0.00459389
0.00471579
0.00480705
0.00486451
0.00488228
0.00485042
0.00475349
0.00456862
0.00426438
0.00380281
0.00315582
0.00235628
0.000121443
0.000972306
0.00177735
0.00241908
0.00294643
0.00339068
0.00376972
0.00409523
0.00437565
0.00461517
0.00481808
0.00498761
0.00512537
0.00523091
0.00530188
0.00533356
0.00531775
0.00524243
0.00509163
0.00484668
0.00449076
0.00402284
0.00348993
0.000124648
0.000953039
0.00179133
0.00248235
0.00305944
0.00355001
0.00397069
0.00433247
0.0046429
0.00490745
0.00513179
0.00531995
0.00547423
0.00559487
0.00567999
0.00572602
0.00572662
0.00567299
0.00555486
0.00536299
0.00509335
0.00475689
0.00439436
0.00012917
0.00098488
0.00182582
0.00254348
0.00315666
0.00368468
0.00414113
0.00453468
0.00487139
0.00515841
0.00540232
0.00560774
0.00577753
0.00591247
0.00601101
0.00607034
0.00608593
0.00605209
0.00596313
0.00581588
0.00561275
0.0053684
0.00511289
0.000133053
0.00100512
0.00186282
0.00260873
0.00325482
0.00381508
0.00430043
0.00471858
0.00507692
0.00538276
0.00564284
0.00586252
0.00604538
0.00619272
0.00630313
0.00637414
0.00640299
0.00638674
0.00632287
0.00621127
0.00605722
0.00587482
0.0056874
0.000136044
0.000990395
0.00189076
0.00267776
0.00335899
0.00394833
0.00445689
0.00489403
0.00526895
0.0055893
0.00586199
0.00609282
0.00628592
0.0064429
0.00656264
0.00664326
0.00668324
0.00668131
0.00663657
0.00655117
0.00643315
0.00629471
0.00615248
0.00014012
0.00101547
0.00194401
0.00276471
0.00347618
0.00408956
0.00461614
0.00506741
0.005454
0.00578455
0.00606623
0.00630508
0.00650546
0.00666915
0.00679525
0.0068821
0.00692909
0.00693663
0.00690613
0.00684176
0.00675159
0.00664551
0.00653492
0.000144569
0.00105524
0.00202675
0.00288097
0.00361737
0.00424856
0.00478676
0.00524549
0.00563779
0.00597366
0.00626033
0.00650367
0.00670777
0.00687425
0.00700243
0.00709153
0.00714234
0.00715673
0.00713784
0.00709105
0.00702328
0.00694204
0.00685498
0.000152198
0.00110009
0.0021644
0.00305461
0.00380602
0.00444398
0.00498387
0.00544074
0.00582996
0.00616345
0.00644833
0.00668904
0.00688934
0.00705143
0.00717631
0.00726509
0.00731959
0.00734218
0.00733604
0.00730586
0.00725717
0.00719543
0.0071258
0.000162358
0.00128788
0.00238174
0.00327899
0.00403041
0.00466363
0.00519627
0.00564378
0.00602234
0.00634539
0.00662037
0.00685122
0.00704205
0.00719614
0.00731601
0.00740385
0.00746192
0.00749266
0.00749883
0.00748398
0.00745216
0.00740728
0.0073524
0.000165628
0.00137323
0.0025113
0.00342577
0.00418037
0.00481266
0.00534453
0.00579224
0.00616993
0.00648946
0.00675906
0.00698437
0.00717043
0.00732136
0.00744034
0.00752996
0.00759262
0.00763063
0.00764639
0.00764272
0.00762274
0.00758959
0.00754612
0.000166073
0.00139634
0.00256606
0.00350202
0.00426858
0.00490782
0.00544516
0.00589758
0.0062785
0.00659893
0.00686786
0.0070922
0.00727766
0.00742885
0.00754936
0.00764208
0.00770956
0.00775416
0.00777816
0.00778388
0.0077737
0.00774995
0.00771475
0.000165153
0.00139763
0.00258278
0.00353501
0.00431408
0.00496309
0.00550873
0.00596809
0.00635449
0.00667857
0.00694994
0.0071764
0.00736415
0.00751809
0.00764208
0.00773924
0.00781224
0.00786348
0.00789509
0.00790905
0.00790714
0.00789107
0.0078625
0.000162632
0.00138971
0.00258
0.00354257
0.00433142
0.00498929
0.00554294
0.00600942
0.00640176
0.0067308
0.00700661
0.00723729
0.00742937
0.00758793
0.00771697
0.00781977
0.00789907
0.00795721
0.0079962
0.00801775
0.00802323
0.00801392
0.00799128
0.000159645
0.00137606
0.0025662
0.0035338
0.00432884
0.00499279
0.00555232
0.00602467
0.0064226
0.00675732
0.0070389
0.00727538
0.00747337
0.00763803
0.00777345
0.00788295
0.00796927
0.00803468
0.00808107
0.00810992
0.00812237
0.00811938
0.00810231
0.000157
0.00135751
0.00254315
0.00351121
0.00430903
0.00497631
0.00553947
0.00601613
0.00641932
0.00676022
0.00704848
0.00729197
0.00749714
0.00766912
0.007812
0.00792908
0.00802307
0.00809615
0.00815007
0.0081862
0.00820545
0.00820863
0.00819695
0.000154283
0.00133513
0.00251069
0.00347537
0.0042728
0.00494111
0.0055064
0.00598657
0.00639491
0.00674228
0.0070379
0.0072893
0.00750263
0.0076829
0.00783412
0.00795953
0.00806174
0.00814286
0.00820454
0.00824801
0.00827407
0.00828337
0.00827698
0.000151054
0.00130942
0.00247019
0.00342716
0.00422132
0.00488898
0.00545561
0.00593907
0.00635261
0.00670678
0.00701028
0.00727025
0.0074925
0.00768183
0.00784208
0.0079764
0.0080873
0.00817679
0.00824642
0.00829735
0.00833028
0.00834574
0.00834462
0.000147325
0.0012811
0.00242305
0.00336858
0.00415682
0.00482258
0.00539019
0.00587701
0.00629601
0.0066573
0.00696912
0.00723817
0.0074699
0.00766883
0.00783864
0.0079823
0.00810222
0.00820033
0.00827809
0.00833659
0.00837646
0.00839815
0.0084024
0.000143257
0.00125074
0.00237058
0.00330205
0.00408261
0.00474547
0.00531384
0.00580424
0.00622898
0.00659771
0.00691818
0.00719664
0.00743822
0.00764712
0.00782679
0.00798007
0.00810924
0.00821611
0.00830211
0.00836824
0.00841512
0.00844314
0.00845288
0.000139066
0.00121853
0.00231423
0.00323029
0.00400234
0.00466186
0.00523084
0.00572488
0.00615559
0.00653198
0.00686128
0.00714934
0.00740092
0.00761995
0.00780963
0.00797263
0.0081111
0.00822678
0.008321
0.00839477
0.00844867
0.00848304
0.00849839
0.000135
0.00118485
0.00225591
0.00315642
0.00391985
0.00457597
0.00514553
0.00564322
0.00607993
0.00646403
0.0068022
0.00709985
0.00736141
0.0075905
0.00779012
0.00796275
0.00811041
0.00823474
0.00833706
0.00841832
0.00847913
0.00851981
0.00854078
0.000131273
0.00115089
0.00219828
0.0030839
0.00383904
0.00449188
0.00506204
0.00556334
0.00600594
0.0063976
0.00674447
0.00705152
0.00732281
0.00756169
0.00777094
0.00795286
0.00810937
0.00824202
0.00835209
0.00844053
0.00850798
0.00855476
0.00858123
0.000128134
0.00111891
0.00214437
0.00301613
0.0037635
0.00441328
0.00498404
0.00548883
0.00593711
0.00633605
0.00669127
0.00700729
0.00728783
0.00753598
0.00775428
0.0079449
0.00810964
0.00825001
0.00836724
0.00846232
0.00853589
0.00858835
0.00862001
0.000125505
0.00109261
0.00209699
0.0029558
0.00369612
0.00434312
0.00491456
0.0054227
0.00587638
0.00628216
0.00664518
0.00696953
0.00725859
0.00751517
0.00774165
0.00794005
0.0081121
0.00825928
0.00838283
0.00848374
0.00856273
0.00862027
0.00865666
0.000123238
0.00107135
0.00205828
0.00290535
0.00363895
0.00428345
0.00485571
0.00536716
0.00582589
0.00623796
0.00660803
0.00693981
0.00723634
0.00750021
0.00773365
0.00793859
0.00811672
0.00826953
0.00839829
0.008504
0.00858749
0.0086493
0.00868979
0.000121237
0.00105389
0.00202699
0.00286495
0.00359343
0.00423615
0.00480925
0.00532366
0.00578693
0.00620455
0.0065807
0.0069187
0.00722133
0.00749099
0.00772982
0.00793973
0.00812241
0.0082794
0.008412
0.00852134
0.00860828
0.00867348
0.00871735
0.00011942
0.00103924
0.00200192
0.00283351
0.00355877
0.00420086
0.0047754
0.00529278
0.00576006
0.00618226
0.00656315
0.00690576
0.00721268
0.00748624
0.00772855
0.00794157
0.00812707
0.00828664
0.00842167
0.00853336
0.00862266
0.0086903
0.00873676
0.000117719
0.00102666
0.00198206
0.00280989
0.00353385
0.00417655
0.00475313
0.00527348
0.0057442
0.00616987
0.00655394
0.00689927
0.0072084
0.00748369
0.00772736
0.00794149
0.00812796
0.00828847
0.0084245
0.00853728
0.00862787
0.00869705
0.00874537
0.000116104
0.00101581
0.00196669
0.002793
0.00351723
0.00416149
0.0047405
0.00526367
0.00573708
0.00616493
0.00655043
0.0068964
0.0072055
0.00748025
0.00772312
0.00793639
0.0081221
0.00828205
0.00841778
0.00853058
0.00862151
0.00869145
0.00874097
0.000114579
0.00100681
0.00195547
0.00278163
0.00350685
0.00415305
0.00473456
0.0052602
0.00573545
0.00616409
0.00654922
0.00689374
0.00720061
0.00747272
0.00771287
0.00792361
0.00810715
0.00826536
0.00839981
0.00851177
0.00860233
0.00867237
0.00872252
0.000113212
0.00100036
0.00194818
0.00277394
0.00349955
0.00414733
0.00473119
0.00525902
0.00573545
0.00616375
0.00654694
0.00688824
0.00719108
0.00745889
0.00769493
0.00790202
0.00808251
0.00823828
0.00837084
0.00848142
0.00857106
0.00864066
0.0086909
0.000112146
0.000997554
0.00194388
0.00276636
0.00349024
0.00413892
0.00472535
0.00525579
0.00573348
0.00616099
0.00654136
0.00687834
0.00717609
0.00743876
0.0076701
0.00787319
0.00805039
0.00820353
0.00833397
0.00844285
0.00853114
0.00859975
0.00864945
0.000111665
0.000999397
0.00193946
0.00275257
0.00347175
0.00412135
0.004712
0.00524699
0.00572735
0.00615475
0.00653243
0.006865
0.00715764
0.00741536
0.00764245
0.00784206
0.00801644
0.00816719
0.00829551
0.00840243
0.00848889
0.00855585
0.00860416
0.000112301
0.00100586
0.00192902
0.0027246
0.00343686
0.00408933
0.00468795
0.00523126
0.00571724
0.0061465
0.00652278
0.00685197
0.00714067
0.00739491
0.00761937
0.00781698
0.00798955
0.00813841
0.00826465
0.00836924
0.00845319
0.00851756
0.00856336
0.000115075
0.0010165
0.00190891
0.00267979
0.00338419
0.00404255
0.004654
0.00521052
0.00570602
0.00613995
0.00651701
0.00684492
0.0071321
0.00738574
0.00761063
0.0078087
0.00798087
0.00812831
0.00825223
0.00835383
0.0084343
0.00849489
0.00853686
0.000122007
0.00103817
0.00189342
0.00263388
0.00332594
0.00398936
0.00461607
0.00518954
0.00569805
0.00613949
0.00651986
0.00684934
0.00713865
0.00739639
0.00762685
0.00782901
0.00800228
0.00814825
0.00826899
0.00836649
0.00844227
0.00849776
0.00853451
0.000136944
0.0011014
0.00192969
0.00262743
0.00328923
0.00394584
0.00458348
0.0051739
0.0056969
0.00614766
0.00653352
0.00686766
0.00716397
0.0074332
0.00767824
0.00788978
0.00806506
0.00820816
0.00832369
0.00841545
0.00848531
0.00853443
0.00856465
0.00016659
0.0012685
0.00207752
0.00270374
0.00330136
0.00392741
0.00456408
0.00516684
0.00570297
0.00616304
0.00655536
0.00689666
0.00720575
0.00749873
0.00777724
0.00800538
0.00818096
0.0083166
0.00842242
0.00850604
0.008569
0.00861068
0.00863303
0.000230424
0.00171578
0.00237553
0.00286513
0.00336268
0.00393583
0.0045588
0.00516702
0.00571249
0.00617985
0.00657766
0.00692661
0.00725392
0.00759189
0.00795672
0.00820643
0.00837098
0.00848683
0.00857316
0.00864375
0.00869827
0.00873099
0.00874369
0.000416156
0.00333255
0.00288518
0.00305217
0.00343089
0.00395286
0.00456036
0.00516925
0.00571934
0.00619049
0.00659105
0.00694485
0.00729036
0.00770126
0.00835951
0.0085897
0.00869682
0.00876162
0.0088068
0.00884864
0.00888449
0.00890191
0.00890398
0.000202001
0.000184443
0.000184939
0.000191101
0.00174542
0.00161635
0.00157188
0.00161764
0.00314658
0.00301168
0.00295601
0.00296579
0.00417223
0.00406858
0.00400921
0.00399093
0.00495556
0.00487538
0.00481869
0.00478396
0.00556828
0.00550313
0.00545062
0.00541015
0.00605777
0.00600298
0.00595492
0.00591339
0.00645742
0.00641054
0.00636695
0.00632661
0.00679081
0.00675033
0.00671082
0.00667235
0.00707181
0.00703656
0.00700094
0.00696496
0.0073072
0.00727703
0.00724565
0.00721265
0.00750728
0.00748031
0.00745124
0.00741988
0.00768047
0.0076558
0.00762852
0.0075986
0.00783187
0.0078091
0.00778341
0.00775486
0.00796403
0.00794305
0.00791889
0.00789162
0.00807836
0.00805916
0.0080365
0.00801047
0.00817623
0.00815881
0.00813767
0.00811287
0.00825947
0.00824387
0.0082243
0.00820082
0.00833039
0.00831669
0.00829881
0.0082768
0.00839158
0.00837993
0.00836391
0.00834356
0.00844565
0.00843623
0.00842228
0.00840382
0.00849496
0.00848786
0.00847612
0.00845975
0.00854114
0.00853645
0.00852706
0.00851296
0.00858534
0.00858307
0.00857607
0.00856429
0.00862777
0.00862785
0.00862318
0.0086137
0.00866779
0.00867006
0.00866757
0.00866027
0.00870391
0.00870813
0.00870763
0.00870232
0.008734
0.00873991
0.00874113
0.00873759
0.00875547
0.00876276
0.00876545
0.00876346
0.00876567
0.00877409
0.008778
0.00877735
0.00876245
0.00877176
0.0087767
0.00877722
0.00874483
0.00875482
0.00876059
0.0087621
0.00871365
0.00872407
0.00873044
0.00873272
0.00867212
0.00868266
0.00868927
0.008692
0.00862606
0.00863622
0.0086426
0.00864527
0.00858359
0.00859277
0.00859827
0.0086002
0.0085544
0.00856193
0.00856587
0.00856636
0.00854844
0.00855376
0.00855563
0.00855419
0.00857435
0.00857723
0.00857697
0.00857372
0.00863813
0.00863871
0.00863696
0.00863298
0.00874386
0.00874247
0.00874045
0.0087379
0.00890069
0.00889819
0.00889718
0.00889779
0.000765633
0.00152837
0.00210877
0.00245454
0.0026878
0.00287065
0.00302
0.00311938
0.00316255
0.00314921
0.00308727
0.00296417
0.00278121
0.00263046
0.00240635
0.00204941
0.00152327
0.000774474
0.000124313
0.0019896
0.00244423
0.00281629
0.00307371
0.0032569
0.00339826
0.0035147
0.00358677
0.00361141
0.00358004
0.00349453
0.0033498
0.00315709
0.00294993
0.0026493
0.00219429
0.00153094
0.000696159
0.000117417
0.00309381
0.0033215
0.00353145
0.0036949
0.00381354
0.00389981
0.00396864
0.00400703
0.00400512
0.00395058
0.00384212
0.00367839
0.00346517
0.00319857
0.00282601
0.0023068
0.00161516
0.000776154
0.000117828
0.00400943
0.00409673
0.00419442
0.0042773
0.00433447
0.0043684
0.00439074
0.00439252
0.00435921
0.00427876
0.00414668
0.00395986
0.00371541
0.00340092
0.00298716
0.00245239
0.00177883
0.000957037
0.000128257
0.00475351
0.00475954
0.00478274
0.00480358
0.00481022
0.0048013
0.00478219
0.00474719
0.00468231
0.00457456
0.00441775
0.00420636
0.00393374
0.00358814
0.00315171
0.00260825
0.00193553
0.00108829
0.000137539
0.00535946
0.00531904
0.00529374
0.00526947
0.00523728
0.0051946
0.00514159
0.00507319
0.00497699
0.00484176
0.00466
0.00442557
0.00413076
0.00376373
0.00330989
0.00275109
0.00205602
0.00115725
0.00014357
0.00585423
0.00579033
0.00573399
0.00567805
0.0056167
0.00554718
0.00546658
0.00536863
0.00524339
0.00508139
0.00487587
0.00462039
0.00430673
0.00392314
0.00345372
0.00287598
0.00215095
0.00120508
0.000147135
0.00626486
0.00618811
0.00611318
0.00603502
0.00595191
0.00586118
0.00575758
0.00563376
0.00548154
0.00529431
0.00506639
0.0047913
0.00446029
0.00406115
0.00357657
0.00297921
0.00222268
0.00124345
0.000148514
0.00661055
0.0065266
0.00643971
0.00634674
0.00624741
0.00613995
0.00601675
0.00586952
0.00569256
0.0054817
0.00523264
0.00493892
0.00459069
0.00417469
0.00367315
0.0030551
0.00226931
0.00126245
0.000151012
0.00690483
0.00681725
0.00672231
0.00661855
0.00650789
0.00638781
0.00624813
0.00607925
0.00587875
0.00564524
0.00537617
0.0050654
0.00470079
0.0042672
0.00374516
0.00310311
0.00228954
0.00124739
0.000156375
0.00715446
0.00706382
0.0069631
0.00685292
0.00673494
0.00660237
0.00644612
0.00625827
0.00603837
0.00578483
0.00549713
0.00517094
0.00479532
0.00435141
0.00380735
0.00313927
0.00229032
0.00120514
0.000151848
0.00736358
0.00727267
0.00716983
0.00705586
0.00692853
0.00678121
0.00660872
0.00640615
0.00617182
0.00590397
0.00560102
0.0052587
0.00486633
0.00440436
0.00385168
0.00317942
0.00233485
0.001263
0.000155826
0.00754405
0.00745386
0.00734955
0.00723121
0.00709511
0.00693559
0.00674843
0.00653053
0.00628169
0.00600013
0.00568262
0.005323
0.00491069
0.00443194
0.00386809
0.00319243
0.00235366
0.00128493
0.000156852
0.00770226
0.00761317
0.00750737
0.00738415
0.00723965
0.00706908
0.00686888
0.00663736
0.00637406
0.00607749
0.00574372
0.00536553
0.00493256
0.00443389
0.0038541
0.00317042
0.0023364
0.00128162
0.000151689
0.00784089
0.00775261
0.00764498
0.00751679
0.00736444
0.00718394
0.0069725
0.00672861
0.00645162
0.0061397
0.00578848
0.00539039
0.00493563
0.00441429
0.00381469
0.00311756
0.00228435
0.00125087
0.000144398
0.00796143
0.00787371
0.00776423
0.00763159
0.00747256
0.00728373
0.00706272
0.00680797
0.0065183
0.00619138
0.00582248
0.00540409
0.00492694
0.00438187
0.00375932
0.00304262
0.00220166
0.00118396
0.00013782
0.00806549
0.00797834
0.00786742
0.0077313
0.00756706
0.00737174
0.00714307
0.00687924
0.00657844
0.00623779
0.0058523
0.00541466
0.00491599
0.00434791
0.00370217
0.0029657
0.00211472
0.00111436
0.00013258
0.00815521
0.00806896
0.00795733
0.00781896
0.00765112
0.00745122
0.00721695
0.00694612
0.00663635
0.00628423
0.00588452
0.00543031
0.00491328
0.00432634
0.00366157
0.00290791
0.00204844
0.00106422
0.000130336
0.00823323
0.00814843
0.00803707
0.00789777
0.00772803
0.00752549
0.00728772
0.0070122
0.00669608
0.00633553
0.0059253
0.00545865
0.00492887
0.00432867
0.00365048
0.00288507
0.00202005
0.00104534
0.000131123
0.00830238
0.00821976
0.00810974
0.00797088
0.00780096
0.00759769
0.00735855
0.00708079
0.00676119
0.00639564
0.00597907
0.00550552
0.00496836
0.00436066
0.00367513
0.00290316
0.0020335
0.00105675
0.00013368
0.00836538
0.00828572
0.0081781
0.00804105
0.00787256
0.00767035
0.00743187
0.00715422
0.0068339
0.00646689
0.00604828
0.00557231
0.00503261
0.00442236
0.00373393
0.00295786
0.00208084
0.00108858
0.000136811
0.00842448
0.00834854
0.00824425
0.00811024
0.00794459
0.00774503
0.00750899
0.0072335
0.00691498
0.00654948
0.00613212
0.00565725
0.00511855
0.00450883
0.00381943
0.00303873
0.00214943
0.00113057
0.000139877
0.00848122
0.00840954
0.00830941
0.00817944
0.00801773
0.00782206
0.00758989
0.0073182
0.00700341
0.00664151
0.00622765
0.00575613
0.00522033
0.00461227
0.00392171
0.00313418
0.00222783
0.00117571
0.000142636
0.00853621
0.00846923
0.00837381
0.00824855
0.00809156
0.00790066
0.00767331
0.00740652
0.00709673
0.00673971
0.00633055
0.00586338
0.00533097
0.00472427
0.00403118
0.0032343
0.00230762
0.00121964
0.000145032
0.00858929
0.00852719
0.00843675
0.00831655
0.00816471
0.00797907
0.0077571
0.00749578
0.0071915
0.00683995
0.00643595
0.00597316
0.00544363
0.00483725
0.00413996
0.00333175
0.00238324
0.00125992
0.000147099
0.00863941
0.00858214
0.00849671
0.00838167
0.00823512
0.00805492
0.00783851
0.00758282
0.00728414
0.00693795
0.00653881
0.00607988
0.00555246
0.00494511
0.00424218
0.00342143
0.00245094
0.00129459
0.000149038
0.00868477
0.00863213
0.00855159
0.00844162
0.00830033
0.00812554
0.00791463
0.00766445
0.00737114
0.00702996
0.0066351
0.00617921
0.00565282
0.00504343
0.00433398
0.00350048
0.00250917
0.00132329
0.000150862
0.00872304
0.00867476
0.00859891
0.00849388
0.00835775
0.00818826
0.00798273
0.00773785
0.00744958
0.00711294
0.00672172
0.00626808
0.00574189
0.00512976
0.00441351
0.00356785
0.00255767
0.00134615
0.000152474
0.0087516
0.00870744
0.00863608
0.0085359
0.00840488
0.00824069
0.00804048
0.00780079
0.00751735
0.00718489
0.00679685
0.00634494
0.00581846
0.00520337
0.00448068
0.0036242
0.00259795
0.00136526
0.000153958
0.00876794
0.00872767
0.00866074
0.00856543
0.00843965
0.00828092
0.00808621
0.00785184
0.00757327
0.00724494
0.00685994
0.00640957
0.00588273
0.00526489
0.00453659
0.00367107
0.00263182
0.0013821
0.00015539
0.00877002
0.00873354
0.00867105
0.00858082
0.00846063
0.00830782
0.00811912
0.00789056
0.00761731
0.00729347
0.0069118
0.00646325
0.00593639
0.00531639
0.00458354
0.00371086
0.00266145
0.00139802
0.000156897
0.0087569
0.00872408
0.00866613
0.00858131
0.00846729
0.00832118
0.0081394
0.00791763
0.00765066
0.00733223
0.00695474
0.00650884
0.00598279
0.00536157
0.00462539
0.00374721
0.00268983
0.00141471
0.000158638
0.00872921
0.00869981
0.00864641
0.00856735
0.00846023
0.00832189
0.00814836
0.00793485
0.00767571
0.00736428
0.00699257
0.00655089
0.00602719
0.00540622
0.00466805
0.00378558
0.00272125
0.00143457
0.000160852
0.00868965
0.00866308
0.00861396
0.00854084
0.00844133
0.00831198
0.00814834
0.00794506
0.00769596
0.00739392
0.00703055
0.00659577
0.00607711
0.00545879
0.00472033
0.00383416
0.00276215
0.00146121
0.000163886
0.00864322
0.00861841
0.00857277
0.00850532
0.00841383
0.0082946
0.00814264
0.00795193
0.00771569
0.00742633
0.00707514
0.00665163
0.00614267
0.00553132
0.00479531
0.00390531
0.00282201
0.00149978
0.000168281
0.00859732
0.00857262
0.00852899
0.00846619
0.00838245
0.00827397
0.00813525
0.00795954
0.00773945
0.00746711
0.00713364
0.00672835
0.00623718
0.00564074
0.00491238
0.00401777
0.00291491
0.00155733
0.000174816
0.00856138
0.00853486
0.0084911
0.00843093
0.00835346
0.00825515
0.00813043
0.00797181
0.00777142
0.00752142
0.00721348
0.00683728
0.0063776
0.00581054
0.00509987
0.00419983
0.00306175
0.0016429
0.000184561
0.00854627
0.00851639
0.00847018
0.00840946
0.00833464
0.00824344
0.00813184
0.00799161
0.00781432
0.00759293
0.00732117
0.00699066
0.00658447
0.00607149
0.00539696
0.00449266
0.00329396
0.0017683
0.000198862
0.00856318
0.00853016
0.00848012
0.00841476
0.00833529
0.00824304
0.00814093
0.00801924
0.00786798
0.00768212
0.00746065
0.00720053
0.00687979
0.00645892
0.00585159
0.00495248
0.00366008
0.00195144
0.00021954
0.0086222
0.00858987
0.00853792
0.00846473
0.00836771
0.00825522
0.00815458
0.00805059
0.00792752
0.00778377
0.00763039
0.00747837
0.00728042
0.00700248
0.00651037
0.0056521
0.00424407
0.00223033
0.000250387
0.00873143
0.00870821
0.00866322
0.0085872
0.00845784
0.00827803
0.00816458
0.00807686
0.00798203
0.00788315
0.00781702
0.0078441
0.00778086
0.00770592
0.0073956
0.00668335
0.00522664
0.00272318
0.000305121
0.00889883
0.00889316
0.00887306
0.00882636
0.00869273
0.00830528
0.00816391
0.00808935
0.00801576
0.00795082
0.00797515
0.00840204
0.00828339
0.00853097
0.00846338
0.00813793
0.00711132
0.00405421
0.000465203
)
;

boundaryField
{
    leftWall
    {
        type            nutkWallFunction;
        Cmu             0.09;
        kappa           0.41;
        E               9.8;
        value           nonuniform List<scalar> 
50
(
2.18952e-06
6.69612e-06
7.98083e-06
8.92637e-06
9.66194e-06
1.02622e-05
1.09092e-05
1.28556e-05
1.38208e-05
1.41101e-05
1.448e-05
1.48907e-05
1.54265e-05
1.58658e-05
1.62448e-05
1.66856e-05
1.72166e-05
1.31907e-05
1.45205e-05
1.49627e-05
1.50726e-05
1.49817e-05
1.46483e-05
1.42324e-05
1.38269e-05
1.33917e-05
1.28742e-05
1.22794e-05
1.16334e-05
1.09771e-05
1.03535e-05
9.80024e-06
9.33462e-06
8.93844e-06
8.59553e-06
8.29071e-06
8.01003e-06
7.74322e-06
7.48549e-06
7.23847e-06
7.01222e-06
6.82957e-06
6.73592e-06
6.8185e-06
7.2453e-06
8.34176e-06
1.07023e-05
1.53415e-05
2.47584e-05
4.90633e-05
)
;
    }
    rightWall
    {
        type            nutkWallFunction;
        Cmu             0.09;
        kappa           0.41;
        E               9.8;
        value           nonuniform List<scalar> 
50
(
2.13547e-06
7.4155e-06
9.30213e-06
1.15367e-05
1.56208e-05
1.60743e-05
1.60006e-05
1.5617e-05
1.47168e-05
1.39619e-05
1.39074e-05
1.50854e-05
1.61666e-05
1.68416e-05
1.72408e-05
1.73664e-05
1.75782e-05
1.84661e-05
1.36198e-05
1.3851e-05
1.39555e-05
1.3092e-05
1.18983e-05
1.08218e-05
9.99437e-06
9.66546e-06
9.82851e-06
1.02603e-05
1.07628e-05
1.12395e-05
1.16589e-05
1.20169e-05
1.23216e-05
1.25926e-05
1.28473e-05
1.30857e-05
1.3307e-05
1.35209e-05
1.37461e-05
1.40044e-05
1.43295e-05
1.47693e-05
1.54015e-05
1.63383e-05
1.7741e-05
1.98138e-05
2.2842e-05
2.74178e-05
3.55833e-05
5.56182e-05
)
;
    }
    lowerWall
    {
        type            nutkWallFunction;
        Cmu             0.09;
        kappa           0.41;
        E               9.8;
        value           nonuniform List<scalar> 
62
(
2.18952e-06
3.62778e-06
4.3372e-06
4.81884e-06
5.18301e-06
5.47403e-06
5.71286e-06
5.91154e-06
6.07842e-06
6.22077e-06
6.35133e-06
6.46307e-06
6.55226e-06
6.61765e-06
6.65714e-06
6.66698e-06
6.63969e-06
6.56161e-06
6.40749e-06
6.12942e-06
5.63196e-06
4.69553e-06
2.80929e-06
2.80929e-06
8.70335e-06
1.03669e-05
1.17203e-05
1.29916e-05
1.44728e-05
1.80603e-05
2.29704e-05
2.29861e-05
2.09619e-05
2.07282e-05
2.118e-05
2.68126e-06
8.3276e-06
9.6015e-06
1.09185e-05
1.30798e-05
1.44294e-05
1.67953e-05
2.09353e-05
2.68126e-06
3.72059e-06
4.28813e-06
4.74897e-06
5.13671e-06
5.38896e-06
5.57697e-06
5.70097e-06
5.75491e-06
5.81992e-06
5.63284e-06
5.4682e-06
5.50285e-06
5.28146e-06
4.99909e-06
4.72409e-06
4.33365e-06
3.70314e-06
2.13547e-06
)
;
    }
    atmosphere
    {
        type            calculated;
        value           nonuniform List<scalar> 
46
(
0.009
0.009
0.00288518
0.00305217
0.00343089
0.00395286
0.00456036
0.00516925
0.00571934
0.00619049
0.00659105
0.00694485
0.00729036
0.00770126
0.009
0.009
0.009
0.009
0.009
0.009
0.009
0.009
0.009
0.009
0.009
0.009
0.009
0.009
0.009
0.009
0.009
0.009
0.00830528
0.00816391
0.00808935
0.00801576
0.00795082
0.00797515
0.009
0.00828339
0.009
0.009
0.009
0.009
0.009
0.009
)
;
    }
    defaultFaces
    {
        type            empty;
    }
}


// ************************************************************************* //
