/*--------------------------------*- C++ -*----------------------------------*\
  =========                 |
  \\      /  F ield         | OpenFOAM: The Open Source CFD Toolbox
   \\    /   O peration     | Website:  https://openfoam.org
    \\  /    A nd           | Version:  13
     \\/     M anipulation  |
\*---------------------------------------------------------------------------*/
FoamFile
{
    format      ascii;
    class       volScalarField;
    location    "2.95";
    object      p;
}
// * * * * * * * * * * * * * * * * * * * * * * * * * * * * * * * * * * * * * //

dimensions      [1 -1 -2 0 0 0 0];

internalField   nonuniform List<scalar> 
2268
(
5863.86
5837.29
5805.46
5769.26
5730.9
5691.85
5653.12
5615.41
5579.08
5544.17
5510.59
5478.23
5446.95
5416.7
5387.6
5359.95
5334.13
5310.4
5288.66
5268.31
5248.88
5231.11
5213.45
5073.23
5048.61
5018.17
4982.68
4943.93
4903.73
4863.28
4823.49
4784.87
4747.59
4711.59
4676.91
4643.49
4611.39
4580.77
4551.92
4525.22
4500.98
4479.29
4459.96
4442.87
4428.38
4413.05
4283.65
4259.01
4229.49
4195.1
4156.43
4115.43
4073.46
4031.6
3990.56
3950.64
3911.83
3874.36
3838.36
3804
3771.56
3741.37
3713.87
3689.5
3668.56
3651.13
3637.16
3625.64
3611.95
3494.68
3467.15
3437.22
3403.96
3365.93
3324.81
3281.97
3238.63
3195.62
3153.37
3111.94
3071.81
3033.28
2996.67
2962.36
2930.84
2902.64
2878.4
2858.62
2843.52
2832.47
2822.61
2809.3
2705.81
2673.15
2641.96
2609.71
2572.75
2532.05
2488.96
2444.72
2400.31
2356.36
2312.84
2270.62
2230.12
2191.71
2155.87
2123.24
2094.46
2070.33
2051.54
2038.3
2029.23
2019.98
2005.4
1916.25
1872.63
1837.86
1805.63
1769.81
1730.51
1689
1646.47
1603.89
1562.38
1522.73
1483.97
1446.3
1410.65
1377.6
1347.81
1321.79
1300.25
1283.7
1272.2
1264.17
1256.07
1241.54
1195.81
1159.14
1136.27
1116.03
1094.16
1070.52
1045.79
1020.65
995.756
971.965
950.656
929.947
909.857
891.021
873.688
858.085
844.294
832.419
822.449
814.334
807.818
803.153
797.272
809.32
800.205
796.07
790.986
785.116
778.556
771.311
763.574
755.767
748.151
741.115
734.589
728.561
722.841
717.392
712.164
707.038
701.831
696.325
690.618
685.435
683.18
684.407
2806.11
2825.62
2811.45
2752.31
2663.82
2572.75
2510.64
2463.2
2430.72
2416.24
2382.73
2359.61
2379.48
2388.67
2387.28
2386
2381.62
2378.21
2376.53
2102.13
2122.76
2111.42
2061.56
2008.96
1971.88
1914.51
1860.73
1818.94
1803.88
1811.4
1817.54
1790.62
1780.82
1779.2
1777.26
1775.02
1772.36
1770.02
1517.55
1528.91
1522.04
1484.48
1437.96
1397.77
1351.46
1312.98
1292.47
1265.22
1277.88
1302.05
1279.88
1257.08
1239.05
1228.79
1234.27
1246.35
1260.16
1144.12
1146.42
1156.48
1156.56
1126.11
1083.03
1061.76
1047.79
1038.38
1003.65
981.171
970.734
971.054
949.89
938.15
935.606
941.834
950.466
954.689
963.239
964.034
976.71
995.962
999.111
979.031
975.768
969.061
949.598
919.457
884.711
853.998
828.116
835.34
854.798
862.896
860.561
850.773
835.373
872.441
867.517
870.358
876.877
896.165
904.864
901.135
893.269
871.384
845.598
825.966
806.545
766.988
784.779
804.064
806.556
803.952
794.741
790.305
780.128
778.142
781.125
780.127
786.926
812.149
811.688
796.503
778.601
772.272
765.072
752.415
729.523
742.519
746.833
747.584
745.327
738.298
739.565
701.982
705.017
707.626
705.1
699.843
712.292
718.177
707.285
704.946
708.228
705.935
698.158
690.669
697.557
691.283
689.843
687.983
682.317
687.12
686.697
685.53
684.399
682.225
679.32
675.853
671.821
667.282
662.512
657.727
652.841
647.837
642.685
637.313
631.723
625.959
619.99
613.767
607.234
600.657
594.961
591.999
593.739
562.82
561.757
560.697
558.575
555.73
552.356
548.339
543.647
538.619
533.488
528.247
522.847
517.257
511.397
505.351
499.225
493.032
486.793
480.383
474.217
469.23
466.352
465.751
439.296
438.936
437.74
435.208
432.225
429.105
425.266
420.194
414.98
409.829
404.519
399.082
393.584
387.957
382.581
377.837
373.378
369.142
365.929
364.291
363.928
364.647
365.962
323.454
321.956
320.029
317.66
314.932
311.784
307.709
303.909
299.761
295.477
291.385
287.801
285.406
284.315
283.195
282.13
281.888
283.038
285.122
287.84
290.818
293.883
296.602
229.553
229.654
229.512
228.621
226.68
223.566
220.728
218.697
216.56
214.098
212.27
211.347
211.476
212.754
214.315
215.812
218
221.038
224.307
227.221
229.995
232.687
235.686
161.489
163.55
164.645
164.426
163.096
161.114
159.605
157.854
156.363
155.211
154.365
153.989
153.606
153.263
154.085
155.933
157.98
159.713
161.909
164.576
167.316
170.062
172.882
102.98
103.659
103.746
103.096
101.792
100.216
98.4507
96.297
94.2748
92.5023
91.2336
90.3804
89.9233
89.8925
90.6235
92.1722
93.9454
95.999
98.4273
101.205
104.192
107.166
109.918
45.1468
45.6472
45.67
44.9204
43.549
41.9092
40.0273
38.0996
36.2959
34.8604
33.6798
32.842
32.4005
32.2432
32.5353
33.3114
34.6635
36.3786
38.4744
40.9386
43.6568
46.4017
49.1048
10.7129
11.1462
11.2419
10.9289
10.335
9.67713
8.95103
8.16206
7.44166
6.89058
6.50313
6.24393
6.08335
6.0282
6.10644
6.34271
6.75037
7.33103
8.06189
8.9128
9.87087
10.8872
11.8207
4.3291
4.32733
4.30523
4.32257
4.35404
4.39028
4.43559
4.48585
4.53099
4.56918
4.60581
4.64561
4.68821
4.73232
4.77661
4.82127
4.86524
4.90462
4.93654
4.96149
4.98185
4.99643
5.02759
4.22743
4.23137
4.23725
4.25018
4.27
4.2959
4.32704
4.35968
4.39033
4.42037
4.45227
4.4862
4.52172
4.55811
4.59435
4.62951
4.66309
4.69479
4.72499
4.75428
4.78371
4.81351
4.84877
4.10705
4.10725
4.11168
4.12272
4.14066
4.16488
4.19412
4.22506
4.25579
4.286
4.31841
4.35277
4.38855
4.42521
4.46203
4.49823
4.53357
4.56776
4.60085
4.63294
4.66428
4.69481
4.72797
3.98755
3.98712
3.9905
3.99956
4.01451
4.03529
4.06098
4.08909
4.11948
4.14959
4.1816
4.21565
4.25126
4.28791
4.32503
4.36216
4.39892
4.43505
4.4703
4.5044
4.53721
4.568
4.60023
3.86535
3.86508
3.86833
3.87616
3.88868
3.90525
3.92667
3.95258
3.98101
4.01156
4.04347
4.07681
4.11153
4.14731
4.18379
4.22057
4.25732
4.29385
4.32992
4.36515
4.39918
4.43078
4.46301
3.74034
3.73998
3.74296
3.74982
3.76113
3.77526
3.79303
3.8161
3.84284
3.87357
3.90505
3.93751
3.97118
4.00581
4.04123
4.07712
4.1133
4.14965
4.18596
4.2218
4.2566
4.28893
4.3217
3.61311
3.6126
3.61507
3.6215
3.63208
3.64554
3.66171
3.68199
3.70759
3.73649
3.76657
3.79783
3.8303
3.86389
3.89832
3.93339
3.96898
4.00504
4.04138
4.07748
4.1127
4.14545
4.17868
3.48429
3.48391
3.486
3.49217
3.50188
3.51466
3.53051
3.54997
3.57331
3.59966
3.62793
3.6577
3.68893
3.72142
3.75486
3.78911
3.82409
3.85977
3.89595
3.93208
3.96746
4.00044
4.03399
3.35402
3.35398
3.35612
3.36164
3.37052
3.38251
3.39761
3.41599
3.43764
3.46212
3.4887
3.51706
3.54699
3.57828
3.61068
3.64406
3.67834
3.7135
3.74935
3.78532
3.82066
3.85371
3.88742
3.22244
3.2226
3.22474
3.22982
3.23799
3.24918
3.26338
3.28063
3.30086
3.32371
3.34878
3.37574
3.40435
3.43442
3.46572
3.49813
3.53161
3.56612
3.60147
3.63709
3.6722
3.70513
3.73884
3.08968
3.09
3.0921
3.09682
3.1044
3.11483
3.12812
3.14427
3.16316
3.18457
3.20819
3.23376
3.26104
3.28984
3.31997
3.35134
3.38388
3.41759
3.45228
3.48736
3.52206
3.5547
3.58817
2.95594
2.9564
2.95845
2.96286
2.96989
2.97961
2.99202
3.00709
3.02474
3.04479
3.06702
3.0912
3.11712
3.14461
3.1735
3.20371
3.23521
3.26797
3.30182
3.33619
3.37029
3.40245
3.43555
2.82139
2.82198
2.82397
2.82809
2.83461
2.84364
2.85519
2.86924
2.88571
2.90446
2.92533
2.94812
2.97266
2.99879
3.02637
3.05533
3.08565
3.11732
3.15017
3.18362
3.21694
3.24845
3.28096
2.68619
2.68687
2.68881
2.69265
2.69869
2.70706
2.71778
2.73084
2.74617
2.76367
2.7832
2.80461
2.82774
2.85246
2.87866
2.90627
2.93529
2.96573
2.99741
3.02978
3.06209
3.09273
3.1245
2.55045
2.55122
2.55308
2.55665
2.56224
2.56998
2.5799
2.59199
2.60622
2.62249
2.6407
2.66072
2.68243
2.7057
2.73045
2.75663
2.78424
2.8133
2.84364
2.87474
2.90587
2.93545
2.96622
2.4143
2.41507
2.41687
2.4202
2.42536
2.43249
2.44163
2.45279
2.46594
2.48101
2.49791
2.51655
2.53681
2.55859
2.58183
2.60649
2.63259
2.66014
2.689
2.71867
2.74843
2.77672
2.80651
2.27777
2.27854
2.28026
2.28337
2.28813
2.29467
2.30307
2.31332
2.32541
2.3393
2.35491
2.37215
2.39095
2.41121
2.43289
2.45596
2.48044
2.50637
2.53362
2.56171
2.58995
2.6167
2.64559
2.14093
2.14167
2.14331
2.1462
2.15058
2.15658
2.16425
2.17363
2.18469
2.19741
2.21173
2.22759
2.24491
2.26363
2.2837
2.30512
2.32791
2.35213
2.37766
2.40406
2.43066
2.45602
2.48308
2.00383
2.00453
2.00608
2.00875
2.01276
2.01822
2.0252
2.03373
2.04379
2.05537
2.06843
2.0829
2.09874
2.11589
2.13433
2.15404
2.17509
2.19752
2.22123
2.2458
2.27065
2.29443
2.31947
1.86651
1.86718
1.86863
1.87108
1.87472
1.87965
1.88595
1.89364
1.90272
1.91318
1.92499
1.93809
1.95246
1.96804
1.98482
2.00281
2.02205
2.04262
2.06442
2.08709
2.11006
2.13208
2.15526
1.72904
1.72967
1.73101
1.73324
1.7365
1.74091
1.74653
1.7534
1.76152
1.77087
1.78145
1.79321
1.80611
1.82013
1.83525
1.85149
1.86892
1.88758
1.90743
1.92811
1.94913
1.96932
1.99054
1.59144
1.59205
1.59328
1.59526
1.59814
1.60203
1.60699
1.61305
1.62022
1.62851
1.63788
1.64831
1.65978
1.67225
1.68573
1.70024
1.71584
1.73258
1.75043
1.76907
1.78805
1.80631
1.82558
1.45377
1.45436
1.45547
1.4572
1.45969
1.46305
1.46735
1.47262
1.47888
1.48612
1.49433
1.50348
1.51355
1.52452
1.53639
1.54919
1.56297
1.57781
1.59365
1.6102
1.62709
1.64336
1.66049
1.31605
1.31665
1.31763
1.31909
1.32117
1.324
1.32764
1.33215
1.33752
1.34376
1.35085
1.35878
1.36751
1.37703
1.38735
1.39849
1.4105
1.42345
1.43729
1.45178
1.46657
1.4808
1.49586
1.17835
1.17894
1.17978
1.18094
1.1826
1.18489
1.18789
1.19165
1.19618
1.20147
1.20751
1.21427
1.22174
1.22989
1.23873
1.24828
1.25858
1.2697
1.2816
1.29405
1.30678
1.31905
1.33199
1.04071
1.0413
1.04196
1.04279
1.04399
1.04573
1.04811
1.05116
1.05489
1.05928
1.06433
1.07001
1.07629
1.08315
1.09061
1.09866
1.10735
1.11672
1.12675
1.13726
1.14799
1.15832
1.16929
0.903165
0.90376
0.904214
0.904658
0.905367
0.906548
0.908302
0.910667
0.91364
0.917205
0.921337
0.926009
0.931196
0.936877
0.943042
0.949697
0.956875
0.964614
0.972893
0.981547
0.990381
0.998881
1.00787
0.765781
0.766382
0.766576
0.766566
0.766728
0.767321
0.76846
0.770172
0.772441
0.775238
0.778528
0.78228
0.786464
0.791056
0.796037
0.801404
0.807182
0.813407
0.820058
0.82701
0.834083
0.84087
0.848115
0.6286
0.6292
0.62904
0.628467
0.62801
0.627995
0.628536
0.629637
0.631259
0.633352
0.635871
0.638779
0.642044
0.645638
0.649533
0.653713
0.658197
0.663025
0.6682
0.673604
0.679085
0.684364
0.689992
0.491635
0.492174
0.491437
0.490142
0.489024
0.48843
0.488437
0.489001
0.490047
0.491504
0.493317
0.495445
0.497853
0.50052
0.503404
0.506478
0.509754
0.513291
0.517118
0.521151
0.525221
0.529102
0.533266
0.354839
0.355024
0.353186
0.35106
0.349411
0.348436
0.348088
0.348255
0.348834
0.349742
0.350919
0.352322
0.353924
0.355715
0.357608
0.359617
0.361736
0.364062
0.366641
0.369413
0.372041
0.374529
0.377015
0.218116
0.216958
0.212774
0.210273
0.2087
0.207822
0.207444
0.207435
0.207701
0.208175
0.208804
0.209548
0.210384
0.211273
0.212213
0.213166
0.214227
0.21538
0.216735
0.218228
0.220199
0.221022
0.221758
0.0766692
0.0732682
0.0700297
0.0692678
0.0688819
0.0687253
0.0687032
0.0687832
0.0689412
0.0691555
0.0694026
0.0696601
0.0699117
0.0701037
0.0702279
0.0703627
0.0705675
0.0708528
0.0713268
0.0720301
0.0729752
0.0721605
0.0713843
599.926
601.754
604.482
605.552
465.333
463.369
460.977
461.771
367.057
367.318
366.982
366.394
298.549
299.733
300.146
299.331
238.146
239.278
239.765
239.598
174.7
175.665
176.296
176.676
111.538
112.458
113.308
114.116
51.3668
52.4668
53.1253
53.4993
12.3268
12.6384
12.9507
13.2863
5.09658
5.14486
5.18306
5.208
4.89657
4.94351
4.99317
5.03235
4.77971
4.8294
4.88138
4.91991
4.65039
4.69998
4.75321
4.79315
4.51239
4.56242
4.61679
4.65808
4.37179
4.42272
4.47814
4.52024
4.22955
4.28125
4.33746
4.38013
4.08538
4.13762
4.19442
4.23749
3.9391
3.99164
4.04875
4.09212
3.79048
3.84307
3.90031
3.94377
3.63953
3.69189
3.74892
3.79233
3.48632
3.53817
3.59482
3.63793
3.33096
3.38206
3.43793
3.48055
3.17335
3.22342
3.27836
3.32029
3.01366
3.06242
3.11603
3.15715
2.85223
2.89938
2.95151
2.99151
2.68955
2.73471
2.78483
2.82357
2.52473
2.56809
2.61641
2.65378
2.3588
2.39993
2.44589
2.48171
2.19197
2.23061
2.27411
2.30807
2.02461
2.06058
2.10114
2.13308
1.85672
1.88982
1.92746
1.95718
1.68858
1.71866
1.75305
1.78058
1.52073
1.54768
1.57893
1.60411
1.3538
1.37764
1.40543
1.42821
1.18799
1.20871
1.23325
1.2535
1.02359
1.04126
1.06238
1.0802
0.860956
0.875661
0.893615
0.908893
0.700325
0.712268
0.726916
0.739645
0.54119
0.550484
0.562095
0.572237
0.382539
0.389152
0.397689
0.405544
0.224245
0.228319
0.234026
0.239752
0.0718453
0.0736681
0.0763885
0.0792297
600.434
602.932
604.144
604.974
603.757
604.26
604.919
606.157
612.581
615.614
615.673
616.042
625.434
617.363
605.533
600.478
599.677
600.504
606.923
468.413
473.353
473.251
478.159
482.845
482.872
481.72
487.113
489.677
491.499
493.641
499.088
512.814
499.526
488.797
486.751
490.018
494.676
499.07
366.636
368.14
368.331
373.567
378.166
377.507
379.973
384.402
386.325
388.913
391.209
394.513
400.065
396.505
394.987
397.095
399.818
400.794
400.748
297.541
297.852
298.92
299.908
301.677
304.502
306.627
309.645
313.654
316.891
318.833
319.902
321.865
323.561
325.664
326.86
326.14
324.069
322.66
238.956
239.937
240.732
241.172
243.331
247.311
249.891
251.935
253.315
254.965
256.487
257.784
259.418
260.537
261.557
261.908
260.785
258.681
258.074
177.221
178.65
179.888
181.192
183.52
187.306
190.65
191.862
192.19
193.232
194.38
195.433
196.53
197.348
197.944
198.043
197.328
195.971
195.54
115.411
117.288
118.958
120.688
122.875
125.676
128.145
129.555
130.413
131.345
132.255
133.038
133.727
134.178
134.415
134.441
134.016
133.13
132.756
53.9508
55.5496
57.3385
59.3363
61.7871
64.4282
66.6171
68.1032
69.109
69.9489
70.6314
71.1379
71.5259
71.5956
71.0674
70.2533
69.401
68.8853
69.0186
13.8701
14.5853
15.3896
16.5677
18.1906
19.7942
21.0177
21.8255
22.3531
22.7478
23.0276
23.218
23.3398
23.379
23.3462
22.8254
22.1632
21.8427
22.1113
5.23476
5.26466
5.28623
5.30653
5.312
5.2861
5.24182
5.24936
5.28516
5.32495
5.3692
5.39727
5.37485
5.52848
6.01779
6.35002
6.45774
6.3782
6.31091
5.07124
5.09078
5.10871
5.13137
5.15168
5.15591
5.1453
5.12358
5.1127
5.11323
5.12563
5.14179
5.15913
5.15527
5.07785
5.04942
5.04445
5.04879
5.05051
4.95256
4.96742
4.97957
4.98983
4.99686
4.99591
4.992
4.98773
4.98395
4.9806
4.97842
4.977
4.96911
4.95163
4.94565
4.93451
4.92756
4.9228
4.9204
4.82648
4.83927
4.84754
4.84923
4.84657
4.8455
4.84558
4.84988
4.84894
4.84349
4.8341
4.8261
4.81651
4.81098
4.80676
4.8005
4.79466
4.79072
4.78933
4.69294
4.70555
4.71297
4.71658
4.71725
4.71687
4.71706
4.71639
4.71312
4.70662
4.69683
4.68623
4.67967
4.67508
4.67227
4.66703
4.66219
4.65871
4.6573
4.55581
4.56844
4.57646
4.58195
4.5844
4.58509
4.58453
4.58264
4.57852
4.57223
4.56428
4.55612
4.54953
4.54431
4.53967
4.53431
4.52941
4.52565
4.52352
4.41599
4.4292
4.4378
4.44456
4.44852
4.45021
4.45012
4.44822
4.44433
4.43865
4.43168
4.42431
4.41748
4.4113
4.40557
4.39981
4.39462
4.39051
4.38779
4.27364
4.28722
4.29643
4.30416
4.30922
4.31184
4.3123
4.31077
4.3073
4.30218
4.29583
4.28889
4.28196
4.27526
4.26887
4.26276
4.25735
4.253
4.24986
4.12866
4.14207
4.15205
4.16058
4.16651
4.1699
4.17096
4.1699
4.16692
4.16233
4.1565
4.14992
4.14304
4.13614
4.12943
4.1231
4.1175
4.11292
4.10956
3.98049
3.99398
4.00451
4.01372
4.02039
4.02448
4.02615
4.02564
4.0232
4.01915
4.01382
4.00762
4.00093
3.99404
3.98723
3.98076
3.97499
3.9702
3.96676
3.82911
3.84277
3.85376
3.86358
3.87089
3.87564
3.87793
3.87802
3.87617
3.87268
3.86788
3.86211
3.85571
3.84898
3.8422
3.83569
3.82978
3.82482
3.82141
3.67453
3.68842
3.69979
3.71013
3.71804
3.72342
3.72635
3.72707
3.72585
3.72297
3.71875
3.71347
3.70745
3.70097
3.69433
3.68785
3.68188
3.67685
3.67352
3.51687
3.53093
3.54263
3.55342
3.56189
3.56788
3.57146
3.57285
3.5723
3.57008
3.56647
3.56174
3.55617
3.55003
3.54362
3.53726
3.53132
3.5263
3.5231
3.35611
3.37042
3.38237
3.39355
3.40253
3.40912
3.41336
3.41543
3.41558
3.41406
3.41111
3.40699
3.40193
3.3962
3.39009
3.38393
3.37812
3.37322
3.37018
3.19244
3.20702
3.21912
3.23063
3.24009
3.24725
3.25214
3.25492
3.2558
3.255
3.25275
3.24928
3.24479
3.23954
3.23381
3.22794
3.22235
3.21766
3.21483
3.02596
3.04089
3.05303
3.0648
3.07469
3.08242
3.08795
3.09143
3.09305
3.09301
3.0915
3.08872
3.08486
3.08016
3.07489
3.0694
3.06412
3.05971
3.05713
2.85733
2.87188
2.88417
2.89621
2.9065
2.91475
2.92091
2.92511
2.92749
2.92823
2.92749
2.92545
2.92229
2.91821
2.91348
2.90844
2.90356
2.89951
2.89719
2.68631
2.70037
2.71279
2.72503
2.73566
2.7444
2.75119
2.7561
2.75926
2.76081
2.76089
2.75964
2.75723
2.75385
2.74975
2.74525
2.74083
2.73717
2.73517
2.51311
2.52676
2.53919
2.55154
2.56245
2.57163
2.579
2.5846
2.58854
2.59091
2.59185
2.59145
2.58986
2.58725
2.58386
2.57999
2.57612
2.5729
2.57116
2.338
2.35132
2.36364
2.37602
2.38714
2.39671
2.40462
2.41088
2.41559
2.4188
2.42061
2.4211
2.42039
2.41862
2.416
2.41283
2.40956
2.40681
2.40536
2.16149
2.17437
2.18651
2.19885
2.2101
2.21999
2.22838
2.23527
2.24072
2.24476
2.24746
2.24888
2.2491
2.24822
2.24644
2.24402
2.24139
2.23914
2.23797
1.98383
1.99632
2.00822
2.02042
2.03172
2.04183
2.05063
2.0581
2.06425
2.06911
2.07272
2.07509
2.07627
2.07634
2.07544
2.07383
2.07186
2.07009
2.0692
1.80564
1.81766
1.82923
1.84118
1.85242
1.86265
1.87176
1.87972
1.88652
1.89217
1.89668
1.90002
1.90221
1.90328
1.90331
1.90249
1.90118
1.89989
1.89923
1.62733
1.63888
1.65003
1.66161
1.67264
1.68285
1.69215
1.70048
1.70784
1.71424
1.71962
1.72395
1.72718
1.72928
1.73027
1.73028
1.72959
1.72869
1.72825
1.44961
1.46051
1.4711
1.48216
1.4928
1.50282
1.51213
1.52069
1.5285
1.53555
1.54178
1.54709
1.55139
1.55456
1.55655
1.55737
1.55726
1.55669
1.55636
1.27282
1.28302
1.2929
1.30324
1.31329
1.32289
1.332
1.3406
1.3487
1.35629
1.36329
1.36957
1.37496
1.37925
1.38226
1.38391
1.38431
1.38394
1.38367
1.09754
1.10683
1.11583
1.12522
1.13442
1.14334
1.15197
1.16036
1.16855
1.17651
1.18418
1.19139
1.19788
1.20334
1.20743
1.20989
1.21074
1.21047
1.21015
0.923978
0.932256
0.940172
0.948384
0.956432
0.964344
0.972175
0.980041
0.988037
0.996177
1.00438
1.01243
1.02
1.02665
1.03186
1.03519
1.03645
1.03614
1.03573
0.752416
0.759448
0.766115
0.772903
0.779464
0.785953
0.792581
0.799556
0.807027
0.815058
0.823593
0.832381
0.84095
0.84874
0.855089
0.859337
0.861085
0.860748
0.860187
0.582505
0.588296
0.59361
0.598773
0.603468
0.608045
0.613033
0.618717
0.625254
0.632778
0.641347
0.650739
0.660029
0.668686
0.676029
0.681359
0.683913
0.683801
0.683325
0.413701
0.418305
0.422222
0.42563
0.428131
0.430164
0.433234
0.437315
0.442461
0.44889
0.456931
0.466846
0.476086
0.484808
0.492652
0.499112
0.503216
0.504458
0.504828
0.246736
0.250044
0.252447
0.254123
0.254308
0.251873
0.253198
0.255643
0.258987
0.263594
0.270497
0.281913
0.289443
0.296546
0.303503
0.31046
0.316693
0.321174
0.325176
0.0827367
0.0834099
0.084026
0.0842705
0.0832741
0.0811666
0.0817929
0.0827616
0.0840242
0.0858501
0.0889541
0.0957754
0.0983527
0.101067
0.104167
0.107935
0.112134
0.11511
0.123202
)
;

boundaryField
{
    leftWall
    {
        type            calculated;
        value           nonuniform List<scalar> 
50
(
5863.86
5073.23
4283.65
3494.68
2705.81
1916.25
1195.81
809.32
686.697
562.82
439.296
323.454
229.553
161.489
102.98
45.1468
10.7129
4.3291
4.22743
4.10705
3.98755
3.86535
3.74034
3.61311
3.48429
3.35402
3.22244
3.08968
2.95594
2.82139
2.68619
2.55045
2.4143
2.27777
2.14093
2.00383
1.86651
1.72904
1.59144
1.45377
1.31605
1.17835
1.04071
0.903165
0.765781
0.6286
0.491635
0.354839
0.218116
0.0766692
)
;
    }
    rightWall
    {
        type            calculated;
        value           nonuniform List<scalar> 
50
(
2376.53
1770.02
1260.16
954.689
835.373
790.305
739.565
687.12
606.923
499.07
400.748
322.66
258.074
195.54
132.756
69.0186
22.1113
6.31091
5.05051
4.9204
4.78933
4.6573
4.52352
4.38779
4.24986
4.10956
3.96676
3.82141
3.67352
3.5231
3.37018
3.21483
3.05713
2.89719
2.73517
2.57116
2.40536
2.23797
2.0692
1.89923
1.72825
1.55636
1.38367
1.21015
1.03573
0.860187
0.683325
0.504828
0.325176
0.123202
)
;
    }
    lowerWall
    {
        type            calculated;
        value           nonuniform List<scalar> 
62
(
6262.01
6235.44
6203.61
6167.41
6129.05
6090
6051.27
6013.56
5977.23
5942.32
5908.74
5876.38
5845.1
5814.85
5785.75
5758.1
5732.28
5708.55
5686.8
5666.33
5646.82
5629.05
5611.41
5213.45
4413.05
3611.95
2809.3
2005.4
1241.54
797.272
684.407
671.171
682.958
694.694
695.694
2806.11
2102.13
1517.55
1144.12
963.239
872.441
780.128
701.982
3157.58
3177.4
3163
3103.62
2984.65
2838.55
2776.41
2733.25
2710.5
2698.53
2646.2
2623.52
2664.17
2692.95
2691.75
2690.97
2685.38
2681.41
2679.83
)
;
    }
    atmosphere
    {
        type            calculated;
        value           nonuniform List<scalar> 
46
(
-0.000133645
-8.34484e-05
-4.85285e-05
-4.49528e-06
0
0
0
0
0
0
-2.75568e-06
-1.17889e-05
-2.96157e-05
-5.88007e-05
-8.56892e-05
-0.00011027
-0.000131131
-0.000149026
-0.000171538
-0.000192982
-0.000112877
-0.00012868
-0.000147699
-0.000182176
-0.000187421
-0.000193997
-0.000196213
-0.000145935
-0.000141476
-0.000139967
-0.000136423
-0.000138448
-0.000257701
-0.000275477
-0.000276596
-0.0002866
-0.000309962
-0.000327571
-0.000232832
-0.000242362
-0.000324132
-0.000422762
-0.000567709
-0.000784961
-0.00115221
-0.00110177
)
;
    }
    defaultFaces
    {
        type            empty;
    }
}


// ************************************************************************* //
