/*--------------------------------*- C++ -*----------------------------------*\
  =========                 |
  \\      /  F ield         | OpenFOAM: The Open Source CFD Toolbox
   \\    /   O peration     | Website:  https://openfoam.org
    \\  /    A nd           | Version:  13
     \\/     M anipulation  |
\*---------------------------------------------------------------------------*/
FoamFile
{
    format      ascii;
    class       volScalarField;
    location    "2.95";
    object      p_rgh;
}
// * * * * * * * * * * * * * * * * * * * * * * * * * * * * * * * * * * * * * //

dimensions      [1 -1 -2 0 0 0 0];

internalField   nonuniform List<scalar> 
2268
(
6262.01
6235.44
6203.61
6167.41
6129.05
6090
6051.27
6013.56
5977.23
5942.32
5908.74
5876.38
5845.1
5814.85
5785.75
5758.1
5732.28
5708.55
5686.8
5666.33
5646.82
5629.05
5611.41
6267.68
6243.06
6212.62
6177.13
6138.38
6098.18
6057.73
6017.94
5979.32
5942.04
5906.04
5871.36
5837.94
5805.84
5775.22
5746.37
5719.67
5695.43
5673.73
5654.4
5637.28
5622.79
5607.5
6274.4
6249.75
6220.24
6185.85
6147.18
6106.18
6064.2
6022.35
5981.31
5941.39
5902.57
5865.11
5829.11
5794.75
5762.3
5732.12
5704.62
5680.25
5659.31
5641.88
5627.91
5616.39
5602.7
6281.73
6254.2
6224.27
6191.01
6152.98
6111.85
6069.02
6025.68
5982.67
5940.42
5898.99
5858.86
5820.33
5783.72
5749.41
5717.88
5689.69
5665.45
5645.67
5630.57
5619.52
5609.65
5596.34
6289.16
6256.5
6225.31
6193.06
6156.09
6115.4
6072.31
6028.07
5983.66
5939.71
5896.19
5853.97
5813.47
5775.05
5739.22
5706.59
5677.81
5653.68
5634.89
5621.65
5612.57
5603.32
5588.7
6295.9
6252.28
6217.5
6185.28
6149.46
6110.16
6068.65
6026.12
5983.54
5938.31
5873.02
5812.64
5755.45
5694.15
5629.15
5562.14
5495.29
5432.35
5378.32
5337.58
5306.16
5261.25
5186.34
5419.63
5056.17
4810.56
4630.55
4447.15
4257.72
4068.86
3883.9
3703.15
3534.17
3381.91
3218.39
3042.04
2866.57
2696.94
2539.18
2397.36
2277.52
2184.91
2120.07
2073.15
2005.23
1884.92
1678.15
1479.2
1393.13
1345.25
1306.85
1274.59
1247.83
1225.98
1207.28
1189.59
1182.56
1176.03
1170
1164.28
1158.83
1153.6
1148.48
1143.27
1137.76
1132.05
1126.8
1124.11
1124.48
3157.58
3177.4
3163
3103.62
2984.65
2838.55
2776.41
2733.25
2710.5
2698.53
2646.2
2623.52
2664.17
2692.95
2691.75
2690.97
2685.38
2681.41
2679.83
3142.32
3174.88
3166.06
3110.9
3036.95
2978
2909.95
2856.88
2811.03
2791.79
2726.22
2639.68
2698.52
2686.97
2686.59
2685.3
2684.64
2681.98
2680
2672.21
2768.42
2752.4
2646.68
2588.35
2591.83
2497.93
2378.36
2247.66
2323.34
2415
2485.92
2313.58
2368.5
2430.93
2464.49
2425.72
2366.3
2290.38
2100.83
2127.52
2060.07
1836.56
1677.63
1566.03
1421.19
1363.56
1443.48
1323.27
1461.92
1664.21
1686.18
1532.21
1361.47
1242.09
1313.51
1434
1646.79
1344.81
1371.77
1494.45
1617.17
1422.44
1258.67
1249.1
1237.28
1251.05
1222.59
1121.35
1020.98
1219.55
1098.87
1042.82
1096.17
1098.86
1108.6
1013.6
1395.2
1448.56
1453.41
1501.47
1537.37
1319.96
1355.07
1380.45
1383.65
1268.42
1152.16
1103.77
925.239
985.96
1124.92
1130.27
1127.65
1118.46
1036.4
1360.31
1270.13
1291.29
1345.12
1528.68
1472.81
1402.72
1439.28
1365.12
1213.56
1149.96
1136.28
928.546
1019.97
1129.38
1130.16
1127.88
1120.92
1063.32
1217.98
1242.31
1265.07
1204.84
1182.29
1437.98
1420.67
1356.94
1158.69
1151.77
1150.09
1134.82
911.287
1010.27
1128.45
1131.28
1129.32
1123.14
1058.4
1220.17
1219
1217.93
1215.79
1212.77
1209.32
1205.29
1200.75
1195.98
1191.19
1186.31
1181.3
1176.15
1170.78
1165.19
1159.43
1153.46
1147.23
1140.7
1134.12
1128.43
1125.46
1125.71
1221.48
1220.42
1219.01
1216.98
1214.37
1211.02
1207
1202.31
1197.28
1192.15
1186.91
1181.51
1175.92
1170.06
1164.01
1157.89
1151.39
1144.8
1136.63
1125.07
1112.65
1104.44
1094.88
1222.85
1219.85
1219.99
1218.72
1216.04
1212.96
1209.12
1204.05
1198.78
1193.21
1187.12
1180.35
1170.39
1153.97
1133.46
1108.1
1080.16
1052.86
1009.79
954.14
906.684
871.349
854.245
1132.53
1156.64
1160.88
1140.53
1131.59
1142.15
1152.11
1109.89
1086.96
1073.42
1050.62
1018.49
974.098
909.718
855.326
825.32
789.744
736.604
704.356
706.055
714.027
732.588
727.802
911.92
835.006
803.193
787.99
781.108
782.126
728.415
728.493
712.789
690.316
667.543
645.359
651.34
699.409
709.926
692.013
684.804
721.564
741.4
744.343
747.118
749.803
745.577
701.108
737.966
744.311
744.224
740.613
716.468
712.99
727.014
733.83
730.796
730.211
733.369
733.325
732.983
733.805
735.653
737.7
739.433
741.629
744.296
746.891
749.546
752.718
744.933
746.227
746.145
745.438
744.067
741.691
740.766
738.614
736.592
734.819
733.551
732.698
732.24
732.21
732.941
734.489
736.263
738.316
740.745
743.523
746.512
749.49
752.251
710.998
714.43
714.99
709.713
697.969
680.996
661.735
642.438
622.398
602.723
584.184
566.982
551.558
538.897
533.023
535.832
543.877
554.499
570.348
594.67
625.091
657.208
684.904
167.366
184.179
192.44
184.406
166.514
147.045
124.628
99.5046
76.9018
60.1607
48.4476
39.921
33.8277
30.1672
29.818
33.255
40.4817
51.8446
67.312
86.4953
109.352
135.605
160.478
5.98977
5.98804
5.96604
5.98607
6.0151
6.0507
6.09595
6.14617
6.19132
6.22948
6.26608
6.30586
6.34845
6.39255
6.43685
6.48185
6.52644
6.56627
6.59855
6.6237
6.6442
6.65938
6.68955
6.01442
6.0182
6.02437
6.03678
6.05574
6.08173
6.11322
6.14827
6.17699
6.20647
6.23791
6.27174
6.30725
6.34362
6.37986
6.41498
6.44856
6.48026
6.51049
6.5398
6.56929
6.59915
6.63439
6.01985
6.02254
6.02822
6.03487
6.05188
6.07969
6.16592
6.25806
6.21658
6.20008
6.23012
6.26421
6.29979
6.33637
6.37302
6.4091
6.44436
6.47852
6.51158
6.54364
6.57499
6.60553
6.63874
6.02715
6.03967
6.05775
6.0414
6.05126
6.12153
6.26571
6.29719
6.31059
6.19175
6.21984
6.25329
6.28831
6.32462
6.36139
6.39833
6.435
6.47103
6.50624
6.54032
6.57312
6.60392
6.63619
6.03161
6.07133
6.09191
6.07292
6.04993
6.13003
6.26561
6.29551
6.32478
6.20135
6.21173
6.24329
6.27492
6.30965
6.3453
6.38193
6.41863
6.45507
6.49106
6.52626
6.56028
6.59187
6.62412
6.03131
6.07764
6.09541
6.07937
6.04758
6.06209
6.16028
6.28757
6.21985
6.16731
6.19893
6.23141
6.26459
6.29351
6.32764
6.36361
6.39979
6.43608
6.47233
6.50813
6.5429
6.5752
6.60797
6.02816
6.05321
6.08648
6.04429
6.04368
6.05714
6.07343
6.0938
6.11941
6.14995
6.18382
6.21738
6.24736
6.27597
6.30981
6.34496
6.38061
6.41665
6.45294
6.48901
6.52419
6.5569
6.59013
6.02341
6.02527
6.02858
6.02957
6.03874
6.05137
6.06725
6.08669
6.11005
6.1366
6.16568
6.19681
6.22711
6.25825
6.29159
6.3259
6.36088
6.3965
6.43266
6.46878
6.50413
6.53708
6.57062
6.01724
6.01701
6.0184
6.02369
6.03245
6.04442
6.05952
6.0779
6.0996
6.12436
6.1515
6.17986
6.20947
6.24015
6.27258
6.306
6.34025
6.37537
6.41122
6.44717
6.4825
6.51553
6.54923
6.01039
6.01019
6.01201
6.01693
6.0251
6.03628
6.05047
6.06771
6.08793
6.11091
6.1364
6.16369
6.19195
6.22153
6.25277
6.28519
6.31866
6.35315
6.38849
6.42411
6.45921
6.49214
6.52583
6.00272
6.00281
6.00461
6.00914
6.01669
6.02711
6.04039
6.05651
6.0754
6.09686
6.12063
6.1464
6.17357
6.2021
6.23219
6.26355
6.29609
6.3298
6.36448
6.39955
6.43425
6.46689
6.50035
5.99391
5.99438
5.99616
6.00037
6.00737
6.01707
6.02946
6.04451
6.06215
6.08222
6.10448
6.12867
6.15457
6.18202
6.2109
6.2411
6.27259
6.30535
6.3392
6.37356
6.40766
6.43982
6.47292
5.98445
5.98506
5.98681
5.99079
5.99727
6.00628
6.01781
6.03184
6.0483
6.06706
6.08793
6.11072
6.13525
6.16137
6.18895
6.2179
6.24822
6.27989
6.31274
6.34619
6.3795
6.41101
6.44352
5.97423
5.97497
5.97679
5.98053
5.98654
5.99488
6.00558
6.01862
6.03395
6.05144
6.07097
6.09238
6.1155
6.14022
6.16642
6.19403
6.22305
6.25348
6.28516
6.31753
6.34985
6.38049
6.41226
5.96361
5.96442
5.9662
5.96972
5.97528
5.98298
5.99288
6.00496
6.01918
6.03545
6.05366
6.07368
6.09538
6.11865
6.1434
6.16958
6.19719
6.22624
6.25659
6.28768
6.31882
6.34839
6.37916
5.9526
5.95339
5.95515
5.95845
5.96358
5.97068
5.97981
5.99095
6.00409
6.01916
6.03606
6.05469
6.07495
6.09673
6.11997
6.14463
6.17073
6.19828
6.22713
6.2568
6.28657
6.31486
6.34465
5.94125
5.94202
5.94371
5.94679
5.95153
5.95805
5.96643
5.97667
5.98876
6.00264
6.01824
6.03549
6.05428
6.07454
6.09622
6.11929
6.14377
6.1697
6.19695
6.22504
6.25328
6.28003
6.30893
5.92958
5.93031
5.93193
5.9348
5.93916
5.94514
5.9528
5.96217
5.97323
5.98594
6.00026
6.01612
6.03344
6.05215
6.07222
6.09364
6.11644
6.14066
6.16619
6.19259
6.21919
6.24454
6.2716
5.91766
5.91835
5.91988
5.92253
5.92652
5.93197
5.93894
5.94746
5.95752
5.96909
5.98215
5.99662
6.01246
6.02961
6.04805
6.06776
6.08881
6.11124
6.13495
6.15952
6.18437
6.20815
6.23318
5.90552
5.90618
5.9076
5.91004
5.91366
5.91859
5.92488
5.93256
5.94164
5.9521
5.9639
5.97701
5.99137
6.00695
6.02373
6.04172
6.06097
6.08153
6.10334
6.126
6.14898
6.171
6.19418
5.89323
5.89384
5.89517
5.89737
5.90062
5.90503
5.91065
5.91751
5.92563
5.93498
5.94556
5.95732
5.97022
5.98423
5.99936
6.0156
6.03302
6.05169
6.07154
6.09222
6.11323
6.13343
6.15465
5.88081
5.8814
5.88262
5.88459
5.88746
5.89134
5.89629
5.90235
5.90953
5.91781
5.92718
5.93762
5.94908
5.96155
5.97503
5.98954
6.00514
6.02189
6.03974
6.05838
6.07735
6.09561
6.11489
5.86832
5.8689
5.86999
5.87172
5.8742
5.87755
5.88185
5.88712
5.89338
5.90062
5.90883
5.91798
5.92805
5.93902
5.95089
5.96369
5.97747
5.9923
6.00814
6.0247
6.04159
6.05786
6.07499
5.85579
5.85636
5.85733
5.85879
5.86087
5.86369
5.86734
5.87184
5.87721
5.88345
5.89055
5.89847
5.9072
5.91673
5.92705
5.93818
5.9502
5.96314
5.97698
5.99147
6.00626
6.02049
6.03555
5.84327
5.84385
5.84468
5.84583
5.84748
5.84977
5.85278
5.85654
5.86107
5.86636
5.8724
5.87916
5.88662
5.89477
5.90362
5.91316
5.92347
5.93459
5.94648
5.95894
5.97167
5.98393
5.99688
5.8308
5.83139
5.83205
5.83287
5.83407
5.83581
5.83819
5.84124
5.84497
5.84936
5.85441
5.86009
5.86637
5.87324
5.88069
5.88874
5.89743
5.9068
5.91683
5.92734
5.93807
5.9484
5.95937
5.81845
5.81904
5.81949
5.81993
5.82064
5.82182
5.82358
5.82594
5.82892
5.83248
5.83661
5.84128
5.84647
5.85215
5.85832
5.86497
5.87215
5.87989
5.88817
5.89682
5.90566
5.91416
5.92314
5.80626
5.80685
5.80705
5.80704
5.8072
5.80779
5.80893
5.81064
5.81291
5.81571
5.819
5.82275
5.82693
5.83153
5.83651
5.84187
5.84765
5.85388
5.86053
5.86748
5.87455
5.88134
5.88859
5.79427
5.79487
5.79471
5.79413
5.79367
5.79366
5.7942
5.7953
5.79692
5.79902
5.80154
5.80444
5.80771
5.8113
5.8152
5.81938
5.82386
5.82869
5.83386
5.83927
5.84475
5.85003
5.85566
5.78249
5.78303
5.7823
5.781
5.77988
5.77929
5.7793
5.77986
5.78091
5.78236
5.78418
5.7863
5.78871
5.79138
5.79426
5.79734
5.80061
5.80415
5.80798
5.81201
5.81608
5.81996
5.82413
5.77089
5.77108
5.76924
5.76711
5.76546
5.76449
5.76414
5.76431
5.76489
5.7658
5.76697
5.76838
5.76998
5.77177
5.77366
5.77567
5.77779
5.78012
5.78269
5.78547
5.7881
5.79058
5.79307
5.75936
5.75821
5.75402
5.75152
5.74995
5.74907
5.74869
5.74868
5.74895
5.74942
5.75005
5.7508
5.75163
5.75252
5.75346
5.75441
5.75547
5.75663
5.75798
5.75948
5.76145
5.76227
5.76301
5.74311
5.73971
5.73647
5.73571
5.73532
5.73517
5.73515
5.73523
5.73538
5.7356
5.73585
5.7361
5.73635
5.73655
5.73667
5.73681
5.73701
5.7373
5.73777
5.73847
5.73942
5.7386
5.73783
1207.09
1293.79
1373.29
1373.76
1057.35
1043.93
1065.72
1095.34
853.221
818.504
792.119
830.93
695.517
692.176
692.536
700.671
741.469
743.241
753.22
758.818
754.559
755.487
756.161
756.474
753.879
754.791
755.638
756.443
697.731
705.384
711.841
718.223
169.283
176.058
183.232
191.615
6.75849
6.80716
6.84441
6.87037
6.68223
6.72919
6.77884
6.8181
6.69053
6.74023
6.79221
6.83079
6.68638
6.73599
6.78922
6.82919
6.67352
6.72358
6.77795
6.81923
6.65807
6.709
6.76443
6.80654
6.64099
6.69269
6.74891
6.79158
6.622
6.67423
6.73104
6.77411
6.6009
6.65345
6.71056
6.75392
6.57747
6.63005
6.6873
6.73075
6.55171
6.60406
6.66109
6.7045
6.52368
6.57554
6.63219
6.6753
6.49351
6.54462
6.60048
6.64311
6.4611
6.51117
6.56611
6.60804
6.42661
6.47537
6.52898
6.5701
6.39036
6.43752
6.48965
6.52965
6.35288
6.39804
6.44816
6.4869
6.31326
6.35661
6.40494
6.4423
6.27252
6.31365
6.35961
6.39543
6.23089
6.26952
6.31302
6.34699
6.18872
6.22469
6.26525
6.29719
6.14602
6.17912
6.21676
6.24648
6.10308
6.13316
6.16754
6.19508
6.06042
6.08737
6.11862
6.14381
6.01869
6.04253
6.07032
6.0931
5.97807
5.99879
6.02333
6.04358
5.93887
5.95654
5.97766
5.99547
5.90143
5.91613
5.93409
5.94936
5.86599
5.87793
5.89258
5.90531
5.83205
5.84134
5.85295
5.8631
5.79859
5.80521
5.81374
5.8216
5.76549
5.76957
5.77527
5.781
5.73829
5.74011
5.74283
5.74567
1194.87
1158.95
1209.18
1193.9
1149.63
1109.85
1195.04
1130.59
1145.93
1148.98
1149.44
1134.82
898.68
1087.83
1138.91
1133.92
1129.86
1090.3
1054.36
1116.38
1123.01
1184.15
1134.14
1071.56
1130.39
1094.62
1059.69
1137.84
1147.09
1150.41
1154.57
1125.95
1144.8
1103.01
1032.77
1002.42
1057.95
1075.53
905.169
921.751
897.246
954.48
1009.26
937.282
919.334
957.753
924.979
899.947
901.106
952.399
1003.68
925.357
843.779
832.868
873.627
920.379
967.59
720.273
701.856
703.588
749.218
758.815
700.873
725.29
721.977
754.323
772.031
773.361
774.519
777.947
778.131
780.487
781.86
794.975
816.742
806.923
759.655
756.214
757.817
758.307
760.302
733.34
686.398
718.138
768.06
772.208
773.633
774.913
776.542
777.663
778.77
779.24
778.108
776.276
775.319
756.95
758.376
759.614
760.893
763.228
766.491
765.937
770.087
771.91
772.952
774.106
775.155
776.251
777.07
777.656
777.735
777.032
775.714
775.366
757.733
759.607
761.279
763.011
765.203
768.003
770.465
771.873
772.73
773.662
774.572
775.355
776.08
776.549
776.773
776.803
778.088
778.641
775.467
728.816
742.836
756.26
764.254
766.597
769.252
771.478
772.959
773.946
774.798
775.515
776.04
776.449
776.511
780.037
797.067
810.494
808.177
788.994
206.548
221.019
240.914
275.496
330.152
387.949
432.046
455.139
464.777
469.982
473.762
476.715
478.831
473.332
446.829
413.402
382.038
369.916
379.467
6.89691
6.92658
6.94824
6.96912
6.97453
6.96181
7.26236
8.85631
10.0135
10.8728
11.4973
11.4944
9.58221
11.931
32.017
42.0573
44.3379
40.6983
37.8545
6.85708
6.87685
6.89572
7.06722
7.34149
7.53479
7.37435
6.95892
7.07596
7.17435
7.54825
7.94754
8.4935
9.37149
6.8645
6.83493
6.82991
6.83505
6.91902
6.86351
6.87862
6.89078
7.25002
7.68154
7.67773
7.60781
7.08852
6.96609
7.0242
7.33787
7.5547
7.51996
7.21627
6.86985
6.84613
6.83844
6.83356
6.83142
6.86254
6.87551
6.8838
6.92241
6.89485
6.89978
6.88259
6.90605
6.89106
6.89341
6.99446
7.2632
7.18046
6.96995
6.84584
6.83706
6.83093
6.82688
6.82662
6.85411
6.86674
6.87415
6.87798
6.87841
6.87807
6.87869
6.8785
6.87583
6.87291
6.86019
6.84771
6.84101
6.8363
6.83406
6.82881
6.82391
6.82029
6.81866
6.84211
6.85475
6.86278
6.86831
6.87081
6.87151
6.87103
6.86933
6.86552
6.85952
6.85101
6.84261
6.83595
6.83074
6.82631
6.82112
6.81627
6.81239
6.81015
6.82745
6.84068
6.84932
6.85614
6.86016
6.86188
6.86179
6.85993
6.85608
6.85042
6.84345
6.836
6.82913
6.82291
6.81729
6.81161
6.80643
6.80232
6.79962
6.81026
6.82385
6.83309
6.84086
6.84597
6.84863
6.84911
6.84758
6.84413
6.83902
6.8327
6.82573
6.81875
6.812
6.80562
6.79952
6.79413
6.78977
6.78664
6.79046
6.80386
6.81386
6.82239
6.82833
6.83174
6.83282
6.83177
6.8288
6.82422
6.81841
6.81183
6.80492
6.798
6.79128
6.78495
6.77934
6.77475
6.77138
6.76748
6.78096
6.79149
6.8007
6.80737
6.81147
6.81314
6.81264
6.81021
6.80616
6.80084
6.79464
6.78794
6.78105
6.77423
6.76776
6.76198
6.75719
6.75375
6.74128
6.75495
6.76594
6.77575
6.78307
6.78782
6.79011
6.7902
6.78835
6.78487
6.78007
6.7743
6.7679
6.76116
6.75439
6.74787
6.74197
6.73702
6.73361
6.71189
6.72578
6.73715
6.74749
6.7554
6.76078
6.76371
6.76443
6.76321
6.76034
6.75612
6.75084
6.74482
6.73834
6.7317
6.72523
6.71927
6.71425
6.71095
6.67942
6.69349
6.70519
6.71597
6.72444
6.73044
6.73402
6.7354
6.73485
6.73264
6.72903
6.7243
6.71873
6.7126
6.70619
6.69983
6.69391
6.68894
6.68577
6.64386
6.65817
6.67011
6.6813
6.69028
6.69687
6.7011
6.70318
6.70333
6.70181
6.69886
6.69474
6.68968
6.68396
6.67785
6.6717
6.66591
6.66108
6.65807
6.60539
6.61997
6.63206
6.64357
6.65303
6.6602
6.66508
6.66786
6.66874
6.66795
6.6657
6.66222
6.65774
6.65249
6.64677
6.6409
6.63535
6.63075
6.62792
6.5641
6.57903
6.59117
6.60294
6.61283
6.62055
6.62608
6.62957
6.63119
6.63115
6.62964
6.62685
6.623
6.6183
6.61304
6.60755
6.60232
6.598
6.59539
6.52066
6.53521
6.5475
6.55954
6.56983
6.57808
6.58424
6.58844
6.59082
6.59156
6.59083
6.58878
6.58562
6.58154
6.57682
6.57179
6.56696
6.56301
6.5606
6.47484
6.48889
6.50132
6.51356
6.52419
6.53293
6.53971
6.54462
6.54778
6.54933
6.54941
6.54817
6.54576
6.54238
6.53828
6.5338
6.52943
6.52588
6.52376
6.42683
6.44048
6.45291
6.46526
6.47617
6.48535
6.49271
6.49832
6.50225
6.50463
6.50557
6.50517
6.50358
6.50098
6.49758
6.49373
6.48991
6.4868
6.48493
6.37691
6.39023
6.40255
6.41494
6.42606
6.43563
6.44353
6.4498
6.4545
6.45771
6.45952
6.46002
6.45931
6.45754
6.45492
6.45176
6.44856
6.44591
6.44432
6.32559
6.33847
6.35062
6.36295
6.37421
6.3841
6.39248
6.39938
6.40482
6.40887
6.41157
6.41299
6.41321
6.41233
6.41055
6.40815
6.40558
6.40339
6.40211
6.27313
6.28563
6.29752
6.30972
6.32102
6.33114
6.33994
6.3474
6.35355
6.35842
6.36202
6.36439
6.36558
6.36565
6.36476
6.36315
6.36124
6.35947
6.35852
6.22014
6.23215
6.24373
6.25568
6.26691
6.27715
6.28626
6.29421
6.30102
6.30667
6.31118
6.31452
6.31671
6.31778
6.31781
6.31701
6.31574
6.31443
6.31374
6.16703
6.17857
6.18972
6.2013
6.21233
6.22255
6.23184
6.24017
6.24754
6.25393
6.25931
6.26365
6.26688
6.26898
6.26997
6.26999
6.26933
6.2684
6.26794
6.11449
6.1254
6.13599
6.14705
6.15769
6.16771
6.17701
6.18558
6.19339
6.20044
6.20666
6.21198
6.21628
6.21946
6.22144
6.22228
6.22218
6.2216
6.22125
6.0629
6.0731
6.08299
6.09332
6.10337
6.11298
6.12208
6.13068
6.13878
6.14637
6.15337
6.15965
6.16504
6.16934
6.17235
6.17401
6.17441
6.17403
6.17376
6.01281
6.02211
6.0311
6.0405
6.04969
6.05862
6.06725
6.07564
6.08382
6.09179
6.09946
6.10666
6.11316
6.11862
6.12272
6.12518
6.12603
6.12575
6.12543
5.96445
5.97273
5.98064
5.98885
5.9969
6.00481
6.01264
6.02051
6.02851
6.03665
6.04485
6.0529
6.06047
6.06713
6.07234
6.07567
6.07693
6.07661
6.0762
5.91808
5.92511
5.93178
5.93857
5.94513
5.95162
5.95825
5.96522
5.97269
5.98072
5.98926
5.99805
6.00662
6.01441
6.02076
6.02501
6.02675
6.02641
6.02585
5.87336
5.87916
5.88447
5.88963
5.89433
5.8989
5.90389
5.90958
5.91611
5.92364
5.93221
5.9416
5.95089
5.95955
5.96689
5.97222
5.97477
5.97466
5.97418
5.82975
5.83436
5.83828
5.84168
5.84418
5.84622
5.84929
5.85337
5.85851
5.86494
5.87299
5.8829
5.89214
5.90086
5.90871
5.91517
5.91927
5.92051
5.92088
5.78798
5.79129
5.7937
5.79537
5.79556
5.79312
5.79445
5.79689
5.80024
5.80484
5.81175
5.82316
5.83069
5.8378
5.84475
5.85171
5.85794
5.86242
5.86642
5.74918
5.74985
5.75047
5.75071
5.74972
5.74761
5.74824
5.7492
5.75047
5.75229
5.7554
5.76222
5.7648
5.76751
5.77061
5.77438
5.77858
5.78155
5.78965
)
;

boundaryField
{
    leftWall
    {
        type            fixedFluxPressure;
        gradient        uniform 0;
        value           nonuniform List<scalar> 
50
(
6262.01
6267.68
6274.4
6281.73
6289.16
6295.9
5419.63
1678.15
1220.17
1221.48
1222.85
1132.53
911.92
701.108
744.933
710.998
167.366
5.98977
6.01442
6.01985
6.02715
6.03161
6.03131
6.02816
6.02341
6.01724
6.01039
6.00272
5.99391
5.98445
5.97423
5.96361
5.9526
5.94125
5.92958
5.91766
5.90552
5.89323
5.88081
5.86832
5.85579
5.84327
5.8308
5.81845
5.80626
5.79427
5.78249
5.77089
5.75936
5.74311
)
;
    }
    rightWall
    {
        type            fixedFluxPressure;
        gradient        uniform 0;
        value           nonuniform List<scalar> 
50
(
2679.83
2680
2290.38
1646.79
1013.6
1036.4
1063.32
1058.4
1054.36
1075.53
967.59
806.923
775.319
775.366
775.467
788.994
379.467
37.8545
6.91902
6.83142
6.82662
6.81866
6.81015
6.79962
6.78664
6.77138
6.75375
6.73361
6.71095
6.68577
6.65807
6.62792
6.59539
6.5606
6.52376
6.48493
6.44432
6.40211
6.35852
6.31374
6.26794
6.22125
6.17376
6.12543
6.0762
6.02585
5.97418
5.92088
5.86642
5.78965
)
;
    }
    lowerWall
    {
        type            fixedFluxPressure;
        gradient        uniform 0;
        value           nonuniform List<scalar> 
62
(
6262.01
6235.44
6203.61
6167.41
6129.05
6090
6051.27
6013.56
5977.23
5942.32
5908.74
5876.38
5845.1
5814.85
5785.75
5758.1
5732.28
5708.55
5686.8
5666.33
5646.82
5629.05
5611.41
5611.41
5607.5
5602.7
5596.34
5588.7
5186.34
1884.92
1124.48
1207.09
1293.79
1373.29
1373.76
3157.58
3142.32
2672.21
2100.83
1344.81
1395.2
1360.31
1217.98
3157.58
3177.4
3163
3103.62
2984.65
2838.55
2776.41
2733.25
2710.5
2698.53
2646.2
2623.52
2664.17
2692.95
2691.75
2690.97
2685.38
2681.41
2679.83
)
;
    }
    atmosphere
    {
        type            prghTotalPressure;
        rho             rho;
        psi             none;
        gamma           1;
        p0              uniform 0;
        value           nonuniform List<scalar> 
46
(
5.72891
5.72896
5.72899
5.72904
5.72904
5.72904
5.72904
5.72904
5.72904
5.72904
5.72904
5.72903
5.72901
5.72898
5.72896
5.72893
5.72891
5.72889
5.72887
5.72885
5.72893
5.72891
5.72889
5.72886
5.72887
5.72885
5.72885
5.72889
5.7289
5.7289
5.7289
5.7289
5.72878
5.72877
5.72877
5.72876
5.72873
5.72872
5.72881
5.7288
5.72872
5.72862
5.72847
5.72826
5.72789
5.72794
)
;
        rho             rho;
    }
    defaultFaces
    {
        type            empty;
    }
}


// ************************************************************************* //
