/*--------------------------------*- C++ -*----------------------------------*\
  =========                 |
  \\      /  F ield         | OpenFOAM: The Open Source CFD Toolbox
   \\    /   O peration     | Website:  https://openfoam.org
    \\  /    A nd           | Version:  13
     \\/     M anipulation  |
\*---------------------------------------------------------------------------*/
FoamFile
{
    format      ascii;
    class       surfaceScalarField;
    location    "2.95";
    object      phi;
}
// * * * * * * * * * * * * * * * * * * * * * * * * * * * * * * * * * * * * * //

dimensions      [0 3 -1 0 0 0 0];

internalField   nonuniform List<scalar> 
4432
(
-6.74588e-07
6.74565e-07
-1.96122e-06
1.2866e-06
-3.4564e-06
1.49514e-06
-4.84361e-06
1.38719e-06
-6.037e-06
1.19336e-06
-6.99616e-06
9.59139e-07
-7.70682e-06
7.10647e-07
-8.17368e-06
4.66846e-07
-8.41133e-06
2.37636e-07
-8.43786e-06
2.65241e-08
-8.27197e-06
-1.65887e-07
-7.93412e-06
-3.37845e-07
-7.44962e-06
-4.84498e-07
-6.84764e-06
-6.01967e-07
-6.15518e-06
-6.92451e-07
-5.39167e-06
-7.63495e-07
-4.56896e-06
-8.22694e-07
-3.69136e-06
-8.77585e-07
-2.76161e-06
-9.2974e-07
-1.80109e-06
-9.60511e-07
-8.86876e-07
-9.142e-07
-2.66726e-07
-6.20138e-07
-2.66718e-07
-1.01211e-06
1.68655e-06
-2.346e-06
2.62042e-06
-3.73115e-06
2.88022e-06
-5.0064e-06
2.66237e-06
-6.09259e-06
2.27949e-06
-6.95658e-06
1.82307e-06
-7.5855e-06
1.33952e-06
-7.98118e-06
8.62491e-07
-8.15495e-06
4.11376e-07
-8.12216e-06
-6.29063e-09
-7.90324e-06
-3.84821e-07
-7.52169e-06
-7.194e-07
-7.00646e-06
-9.99731e-07
-6.38967e-06
-1.21875e-06
-5.70147e-06
-1.38065e-06
-4.96641e-06
-1.49855e-06
-4.203e-06
-1.5861e-06
-3.42401e-06
-1.65657e-06
-2.64006e-06
-1.71368e-06
-1.86526e-06
-1.73531e-06
-1.13459e-06
-1.64487e-06
-4.87292e-07
-1.26743e-06
-7.54005e-07
-1.30951e-06
2.99608e-06
-2.63312e-06
3.94405e-06
-3.90129e-06
4.1484e-06
-5.05028e-06
3.81137e-06
-6.02339e-06
3.25261e-06
-6.79287e-06
2.59256e-06
-7.34613e-06
1.89279e-06
-7.68252e-06
1.19888e-06
-7.80983e-06
5.38682e-07
-7.74081e-06
-7.53127e-08
-7.49606e-06
-6.29575e-07
-7.10003e-06
-1.11544e-06
-6.58276e-06
-1.51701e-06
-5.97681e-06
-1.82472e-06
-5.31297e-06
-2.04451e-06
-4.61765e-06
-2.19388e-06
-3.91283e-06
-2.29094e-06
-3.21568e-06
-2.35373e-06
-2.53881e-06
-2.39057e-06
-1.89048e-06
-2.38365e-06
-1.27402e-06
-2.26134e-06
-6.51922e-07
-1.88954e-06
-1.40593e-06
-1.51313e-06
4.50921e-06
-2.83532e-06
5.26628e-06
-4.00039e-06
5.31352e-06
-5.02951e-06
4.84054e-06
-5.89566e-06
4.11881e-06
-6.57805e-06
3.27498e-06
-7.06435e-06
2.3791e-06
-7.35155e-06
1.4861e-06
-7.44421e-06
6.3134e-07
-7.35228e-06
-1.6726e-07
-7.09553e-06
-8.86351e-07
-6.69826e-06
-1.51273e-06
-6.19049e-06
-2.02482e-06
-5.60415e-06
-2.4111e-06
-4.96948e-06
-2.67922e-06
-4.31327e-06
-2.85013e-06
-3.65932e-06
-2.94493e-06
-3.02729e-06
-2.9858e-06
-2.43078e-06
-2.98711e-06
-1.87281e-06
-2.94166e-06
-1.33463e-06
-2.79956e-06
-7.28175e-07
-2.49602e-06
-2.13413e-06
-1.62864e-06
6.13789e-06
-2.95121e-06
6.5889e-06
-4.02674e-06
6.3891e-06
-4.94823e-06
5.76207e-06
-5.71834e-06
4.88894e-06
-6.32402e-06
3.88068e-06
-6.75342e-06
2.80852e-06
-7.00154e-06
1.73423e-06
-7.07018e-06
6.99979e-07
-6.96591e-06
-2.71527e-07
-6.70707e-06
-1.14519e-06
-6.31664e-06
-1.90317e-06
-5.82446e-06
-2.51699e-06
-5.26143e-06
-2.97412e-06
-4.65627e-06
-3.28438e-06
-4.03509e-06
-3.47131e-06
-3.42237e-06
-3.55763e-06
-2.83919e-06
-3.56897e-06
-2.29995e-06
-3.52633e-06
-1.80485e-06
-3.43674e-06
-1.32355e-06
-3.28084e-06
-7.45669e-07
-3.07389e-06
-2.87978e-06
-1.65899e-06
7.7969e-06
-2.97025e-06
7.9001e-06
-3.96442e-06
7.38318e-06
-4.78866e-06
6.58623e-06
-5.47386e-06
5.57406e-06
-6.01331e-06
4.42007e-06
-6.39584e-06
3.191e-06
-6.61501e-06
1.95336e-06
-6.67118e-06
7.56132e-07
-6.56954e-06
-3.73159e-07
-6.31828e-06
-1.39642e-06
-5.9436e-06
-2.27781e-06
-5.4759e-06
-2.98465e-06
-4.94197e-06
-3.50799e-06
-4.36811e-06
-3.85817e-06
-3.77873e-06
-4.06062e-06
-3.19813e-06
-4.13816e-06
-2.64821e-06
-4.11882e-06
-2.14531e-06
-4.02917e-06
-1.69123e-06
-3.89076e-06
-1.25324e-06
-3.71876e-06
-7.47677e-07
-3.57937e-06
-3.62745e-06
-1.74699e-06
9.54392e-06
-2.91874e-06
9.07178e-06
-3.8029e-06
8.26726e-06
-4.52846e-06
7.31171e-06
-5.12959e-06
6.17513e-06
-5.60225e-06
4.89267e-06
-5.93695e-06
3.52565e-06
-6.12693e-06
2.14332e-06
-6.17069e-06
7.99876e-07
-6.07474e-06
-4.69115e-07
-5.83433e-06
-1.63682e-06
-5.47646e-06
-2.63566e-06
-5.03036e-06
-3.43071e-06
-4.52019e-06
-4.01812e-06
-3.97017e-06
-4.40815e-06
-3.40308e-06
-4.62765e-06
-2.84248e-06
-4.6987e-06
-2.3109e-06
-4.65034e-06
-1.82841e-06
-4.51159e-06
-1.40252e-06
-4.31659e-06
-1.00912e-06
-4.11207e-06
-6.48311e-07
-3.94012e-06
-4.27577e-06
-1.87088e-06
1.14148e-05
-2.6977e-06
9.89853e-06
-3.41894e-06
8.98842e-06
-4.01445e-06
7.90715e-06
-4.49452e-06
6.65515e-06
-4.85748e-06
5.25559e-06
-5.10257e-06
3.77072e-06
-5.22884e-06
2.26956e-06
-5.22856e-06
7.99579e-07
-5.10255e-06
-5.95135e-07
-4.85042e-06
-1.88896e-06
-4.4898e-06
-2.99628e-06
-4.0417e-06
-3.87882e-06
-3.53239e-06
-4.52744e-06
-2.98377e-06
-4.95677e-06
-2.41625e-06
-5.19517e-06
-1.85084e-06
-5.26412e-06
-1.31161e-06
-5.18957e-06
-8.30045e-07
-4.99315e-06
-4.34454e-07
-4.71217e-06
-1.50075e-07
-4.39645e-06
-3.86737e-08
-4.05153e-06
-4.31447e-06
1.74904e-06
-1.74905e-06
3.83684e-06
-2.0878e-06
4.92635e-06
-1.0895e-06
5.04074e-06
-1.14384e-07
4.3058e-06
7.34945e-07
2.50514e-06
1.80067e-06
1.11789e-06
1.38727e-06
8.16894e-08
1.0362e-06
-4.36598e-07
5.18293e-07
2.47554e-07
-6.84148e-07
-2.94693e-08
2.77026e-07
-1.25694e-06
1.22747e-06
-7.31575e-07
-5.25359e-07
-5.9678e-08
-6.71894e-07
2.44347e-07
-3.04022e-07
3.90982e-07
-1.46631e-07
3.80403e-07
1.05827e-08
3.86281e-07
-5.8745e-09
3.86285e-07
2.17985e-06
-3.9289e-06
4.0654e-06
-3.97335e-06
4.96185e-06
-1.98595e-06
4.48545e-06
3.62028e-07
3.35837e-06
1.86204e-06
2.66721e-06
2.49183e-06
1.73492e-06
2.31957e-06
9.95971e-07
1.77516e-06
3.00792e-07
1.21348e-06
-1.66926e-07
-2.1642e-07
-1.21844e-07
2.31952e-07
4.72198e-07
6.33434e-07
4.64883e-07
-5.18037e-07
3.44335e-07
-5.51341e-07
2.8801e-07
-2.47692e-07
2.18158e-07
-7.67751e-08
1.26373e-07
1.02373e-07
-1.79924e-08
1.38496e-07
3.68298e-07
2.26234e-06
-6.1912e-06
3.65233e-06
-5.36331e-06
4.61456e-06
-2.94816e-06
4.70032e-06
2.76254e-07
4.09728e-06
2.46506e-06
3.30525e-06
3.28382e-06
2.46736e-06
3.15743e-06
1.80432e-06
2.43817e-06
1.57407e-06
1.44373e-06
6.21503e-07
7.36146e-07
4.46806e-07
4.06652e-07
1.16771e-06
-8.74668e-08
1.08282e-06
-4.33141e-07
6.65069e-07
-1.33588e-07
3.61862e-07
5.55181e-08
4.55413e-08
2.3955e-07
-1.432e-07
2.91117e-07
-4.88977e-07
4.84276e-07
-1.20677e-07
1.39718e-06
-7.58838e-06
2.19963e-06
-6.16572e-06
3.15398e-06
-3.90249e-06
4.46329e-06
-1.03305e-06
4.93339e-06
1.99495e-06
3.96756e-06
4.24964e-06
3.30635e-06
3.81863e-06
3.07229e-06
2.67223e-06
3.60747e-06
9.08569e-07
2.68523e-06
1.65842e-06
2.09168e-06
1.00022e-06
1.79404e-06
2.10195e-07
1.42879e-06
-6.78663e-08
5.14812e-07
7.80409e-07
1.59247e-07
4.11097e-07
5.09329e-08
3.47877e-07
2.7616e-07
6.59013e-08
8.74635e-07
-1.14186e-07
7.53982e-07
6.59858e-08
-7.65437e-06
5.62242e-07
-6.66194e-06
1.33255e-06
-4.67277e-06
2.66495e-06
-2.36545e-06
4.14746e-06
5.12436e-07
3.81039e-06
4.5867e-06
4.08796e-06
3.54105e-06
4.96282e-06
1.79738e-06
5.57235e-06
2.99033e-07
5.72593e-06
1.50483e-06
5.10402e-06
1.62214e-06
3.91437e-06
1.39985e-06
8.48075e-07
2.99844e-06
-1.20162e-06
2.83012e-06
-5.37392e-07
-2.53125e-07
9.62836e-07
-1.15234e-06
2.64699e-06
-1.61824e-06
5.67004e-06
-3.13722e-06
6.42403e-06
2.32749e-07
-7.88709e-06
1.92767e-07
-6.62194e-06
8.08809e-07
-5.28879e-06
1.26983e-06
-2.82645e-06
2.30648e-06
-5.24181e-07
3.31453e-06
3.5787e-06
4.16639e-06
2.68926e-06
5.16465e-06
7.99181e-07
5.66245e-06
-1.9875e-07
5.94977e-06
1.21751e-06
6.19876e-06
1.37317e-06
6.37897e-06
1.21966e-06
3.01633e-07
9.07578e-06
-1.78414e-06
4.91589e-06
-1.99248e-07
-1.83799e-06
1.50255e-06
-2.85412e-06
3.4705e-06
-3.58618e-06
4.91068e-06
-4.57738e-06
1.13347e-05
7.40326e-07
-8.62738e-06
1.38901e-07
-6.02052e-06
8.20975e-07
-5.97085e-06
1.17275e-06
-3.17819e-06
1.3309e-06
-6.82304e-07
2.66661e-06
2.24304e-06
3.8253e-06
1.53062e-06
4.54399e-06
8.052e-08
4.49973e-06
-1.54478e-07
4.75813e-06
9.59117e-07
5.38075e-06
7.50564e-07
5.32277e-06
1.27763e-06
7.31654e-07
1.36669e-05
-4.43952e-07
6.09152e-06
5.01437e-07
-2.78336e-06
1.6977e-06
-4.05036e-06
2.90355e-06
-4.79202e-06
3.36749e-06
-5.0413e-06
1.47022e-05
6.79999e-07
-9.30737e-06
1.47396e-07
-5.48791e-06
8.24749e-07
-6.6482e-06
1.33929e-06
-3.69272e-06
1.20938e-06
-5.52395e-07
2.04251e-06
1.40993e-06
3.10176e-06
4.71382e-07
3.17235e-06
9.93621e-09
2.93027e-06
8.76038e-08
3.19867e-06
6.90719e-07
3.70827e-06
2.40981e-07
3.60896e-06
1.37694e-06
1.05934e-06
1.62165e-05
1.00616e-06
6.14473e-06
1.2667e-06
-3.04389e-06
1.58485e-06
-4.36849e-06
1.83155e-06
-5.03871e-06
1.52662e-06
-4.73636e-06
1.62289e-05
-2.10691e-06
1.35215e-05
-3.17576e-06
1.09673e-05
-3.68081e-06
9.49348e-06
-3.9737e-06
8.20005e-06
-4.09737e-06
6.77882e-06
-4.04797e-06
5.20619e-06
-3.88332e-06
3.60608e-06
-3.66315e-06
2.04939e-06
-3.36358e-06
5.00003e-07
-2.94293e-06
-1.01582e-06
-2.40999e-06
-2.42195e-06
-1.76024e-06
-3.64611e-06
-1.0105e-06
-4.62864e-06
-1.99087e-07
-5.33895e-06
6.45767e-07
-5.80173e-06
1.5125e-06
-6.06202e-06
2.37659e-06
-6.12834e-06
3.19314e-06
-6.00626e-06
3.86074e-06
-5.66089e-06
4.24437e-06
-5.09594e-06
4.15088e-06
-4.3031e-06
3.16717e-06
-3.06798e-06
-8.00482e-07
-3.46904e-07
-1.38467e-07
1.366e-05
9.83648e-08
1.07306e-05
5.05672e-07
9.08632e-06
9.92586e-07
7.71328e-06
1.57301e-06
6.19852e-06
2.27628e-06
4.50301e-06
2.99125e-06
2.89118e-06
3.5987e-06
1.44197e-06
4.11878e-06
-2.00771e-08
4.5928e-06
-1.48986e-06
5.03003e-06
-2.85922e-06
5.44545e-06
-4.06158e-06
5.84924e-06
-5.0325e-06
6.2156e-06
-5.70538e-06
6.53678e-06
-6.12301e-06
6.81812e-06
-6.34345e-06
7.03846e-06
-6.34877e-06
7.17647e-06
-6.14435e-06
7.12678e-06
-5.61128e-06
6.79888e-06
-4.7681e-06
6.17216e-06
-3.67644e-06
5.28425e-06
-2.18013e-06
-4.44715e-08
4.5282e-06
1.56134e-06
1.20987e-05
2.65539e-06
9.63661e-06
3.708e-06
8.03372e-06
4.61592e-06
6.80537e-06
5.54176e-06
5.27268e-06
6.57613e-06
3.46864e-06
7.58783e-06
1.87948e-06
8.32231e-06
7.0748e-07
8.89075e-06
-5.88524e-07
9.31551e-06
-1.91462e-06
9.56823e-06
-3.11193e-06
9.6648e-06
-4.15815e-06
9.665e-06
-5.03269e-06
9.54945e-06
-5.58982e-06
9.29969e-06
-5.87323e-06
8.95289e-06
-5.99662e-06
8.46689e-06
-5.86274e-06
7.74135e-06
-5.41878e-06
6.77988e-06
-4.64979e-06
5.66399e-06
-3.65219e-06
4.42318e-06
-2.43561e-06
3.23755e-06
-9.9448e-07
9.63366e-07
2.22972e-06
3.47128e-06
8.62735e-06
4.8621e-06
8.24573e-06
6.14334e-06
6.75242e-06
7.41227e-06
5.53638e-06
8.61754e-06
4.06738e-06
9.74883e-06
2.33731e-06
1.05308e-05
1.09743e-06
1.12659e-05
-2.75893e-08
1.1793e-05
-1.11565e-06
1.20255e-05
-2.14706e-06
1.19452e-05
-3.0317e-06
1.15477e-05
-3.76059e-06
1.09606e-05
-4.44557e-06
1.04131e-05
-5.04229e-06
9.69114e-06
-5.15119e-06
8.64406e-06
-4.9495e-06
7.26456e-06
-4.48317e-06
5.74911e-06
-3.90329e-06
4.15127e-06
-3.05192e-06
2.5767e-06
-2.07759e-06
1.12554e-06
-9.84425e-07
-6.33442e-08
1.94407e-07
1.77975e-06
-8.79712e-07
2.67931e-06
5.94796e-06
5.45885e-06
5.4661e-06
7.6355e-06
4.57568e-06
9.57937e-06
3.59244e-06
1.11838e-05
2.46293e-06
1.21527e-05
1.36829e-06
1.26171e-05
6.33062e-07
1.31796e-05
-5.90097e-07
1.35769e-05
-1.51305e-06
1.35163e-05
-2.08642e-06
1.30577e-05
-2.57308e-06
1.22463e-05
-2.94923e-06
1.1205e-05
-3.40424e-06
1.0161e-05
-3.99826e-06
8.95443e-06
-3.94457e-06
7.37568e-06
-3.37072e-06
5.54408e-06
-2.65154e-06
3.80018e-06
-2.15936e-06
2.12828e-06
-1.37999e-06
4.66558e-07
-4.15838e-07
-1.07285e-06
5.55007e-07
-2.40858e-06
1.53018e-06
2.6337e-06
-3.26251e-06
2.19271e-06
3.75516e-06
5.68955e-06
1.96919e-06
8.48634e-06
1.77883e-06
1.06792e-05
1.39959e-06
1.22635e-05
8.78505e-07
1.31497e-05
4.82051e-07
1.38833e-05
-1.00506e-07
1.42607e-05
-9.67544e-07
1.43804e-05
-1.63277e-06
1.42187e-05
-1.92472e-06
1.3732e-05
-2.08643e-06
1.29959e-05
-2.2131e-06
1.19606e-05
-2.36899e-06
1.04501e-05
-2.48772e-06
8.72807e-06
-2.22257e-06
6.93827e-06
-1.58092e-06
5.09131e-06
-8.04542e-07
3.03283e-06
-1.00846e-07
9.67036e-07
6.8585e-07
-9.46318e-07
1.49756e-06
-2.62723e-06
2.23597e-06
-3.97235e-06
2.87534e-06
3.44977e-06
-4.78837e-06
4.21678e-06
-4.61645e-07
7.01568e-06
-8.29709e-07
9.44339e-06
-6.48875e-07
1.14224e-05
-5.79434e-07
1.28812e-05
-5.80266e-07
1.39702e-05
-6.0698e-07
1.47866e-05
-9.1691e-07
1.51571e-05
-1.33805e-06
1.51984e-05
-1.67404e-06
1.49169e-05
-1.6432e-06
1.43527e-05
-1.52227e-06
1.34912e-05
-1.35165e-06
1.22738e-05
-1.15149e-06
1.064e-05
-8.53952e-07
8.71431e-06
-2.96884e-07
6.68657e-06
4.46812e-07
4.54421e-06
1.3378e-06
2.27146e-06
2.17188e-06
2.23554e-09
2.95504e-06
-2.08907e-06
3.58883e-06
-3.85038e-06
3.99725e-06
-5.18739e-06
4.21235e-06
4.29982e-06
-6.03746e-06
4.3349e-06
-4.79633e-06
7.48154e-06
-3.97596e-06
9.9866e-06
-3.15367e-06
1.19672e-05
-2.55985e-06
1.34786e-05
-2.09157e-06
1.46716e-05
-1.79992e-06
1.54754e-05
-1.72069e-06
1.58466e-05
-1.70916e-06
1.57803e-05
-1.60768e-06
1.54174e-05
-1.28023e-06
1.47626e-05
-8.6744e-07
1.37774e-05
-3.66385e-07
1.24179e-05
2.08055e-07
1.06245e-05
9.39434e-07
8.50514e-06
1.82241e-06
6.18844e-06
2.7634e-06
3.79175e-06
3.73431e-06
1.35052e-06
4.61286e-06
-1.01087e-06
5.31611e-06
-3.11692e-06
5.69453e-06
-4.84334e-06
5.72331e-06
-6.13613e-06
5.50478e-06
5.21363e-06
-7.05024e-06
3.94525e-06
-8.74101e-06
7.55676e-06
-7.58646e-06
1.04159e-05
-6.01236e-06
1.25939e-05
-4.73753e-06
1.4202e-05
-3.69953e-06
1.55299e-05
-3.12779e-06
1.64852e-05
-2.67583e-06
1.68372e-05
-2.06107e-06
1.65833e-05
-1.35354e-06
1.59357e-05
-6.32467e-07
1.50244e-05
4.40266e-08
1.38024e-05
8.55779e-07
1.21312e-05
1.87938e-06
9.96105e-06
3.10955e-06
7.45165e-06
4.33162e-06
4.83086e-06
5.38382e-06
2.23827e-06
6.32639e-06
-1.90518e-07
7.04105e-06
-2.33518e-06
7.46016e-06
-4.15247e-06
7.51123e-06
-5.60805e-06
7.17837e-06
-6.63212e-06
6.52843e-06
5.8053e-06
-7.22421e-06
6.00833e-06
-1.47486e-05
7.00027e-06
-8.5775e-06
9.42216e-06
-8.43365e-06
1.16948e-05
-7.00988e-06
1.34536e-05
-5.45805e-06
1.46802e-05
-4.35408e-06
1.53968e-05
-3.39218e-06
1.5601e-05
-2.26513e-06
1.52563e-05
-1.00855e-06
1.44192e-05
2.05018e-07
1.31565e-05
1.30704e-06
1.15239e-05
2.4887e-06
9.5825e-06
3.82106e-06
7.49863e-06
5.19365e-06
5.40313e-06
6.42725e-06
3.36079e-06
7.42617e-06
1.41652e-06
8.27054e-06
-4.17831e-07
8.87517e-06
-2.10669e-06
9.14872e-06
-3.61252e-06
9.01675e-06
-4.91642e-06
8.48202e-06
-6.00438e-06
7.61587e-06
6.70826e-06
-6.90755e-06
-2.21571e-06
-1.25323e-05
-8.50253e-07
-9.94293e-06
-3.59234e-07
-8.92425e-06
6.5022e-08
-7.43363e-06
6.45985e-07
-6.03851e-06
1.50509e-06
-5.21269e-06
2.8233e-06
-4.70996e-06
4.30298e-06
-3.74444e-06
5.20623e-06
-1.9115e-06
5.32049e-06
9.10298e-08
4.88353e-06
1.74425e-06
4.11692e-06
3.2556e-06
3.17837e-06
4.75997e-06
2.22427e-06
6.14825e-06
1.36831e-06
7.28385e-06
6.59775e-07
8.13554e-06
1.07459e-07
8.82381e-06
-3.57079e-07
9.34071e-06
-8.09665e-07
9.60235e-06
-1.31889e-06
9.5271e-06
-1.9391e-06
9.10317e-06
-2.7028e-06
8.38074e-06
7.14241e-06
-3.13645e-06
-3.4129e-06
-9.1183e-06
-4.64909e-06
-8.70641e-06
-5.36834e-06
-8.20469e-06
-5.81886e-06
-6.98273e-06
-5.87776e-06
-5.97917e-06
-5.39564e-06
-5.69441e-06
-4.25812e-06
-5.84711e-06
-2.97248e-06
-5.02974e-06
-1.8493e-06
-3.0344e-06
-1.35076e-06
-4.0729e-07
-1.16709e-06
1.56077e-06
-1.16476e-06
3.25346e-06
-1.21537e-06
4.81085e-06
-1.26022e-06
6.19346e-06
-1.27577e-06
7.29994e-06
-1.26949e-06
8.12997e-06
-1.19882e-06
8.75401e-06
-1.05691e-06
9.1998e-06
-8.76665e-07
9.42319e-06
-7.09235e-07
9.36089e-06
-6.08104e-07
9.00339e-06
-6.10708e-07
8.38438e-06
7.33829e-06
-8.05626e-07
-3.49192e-06
-5.62497e-06
-5.47846e-06
-6.7188e-06
-6.87389e-06
-6.80844e-06
-7.86286e-06
-5.99307e-06
-8.46379e-06
-5.37762e-06
-8.50062e-06
-5.65706e-06
-8.06606e-06
-6.28122e-06
-7.47089e-06
-5.6245e-06
-6.71098e-06
-3.79393e-06
-6.17915e-06
-9.38778e-07
-5.73915e-06
1.12106e-06
-5.30428e-06
2.81883e-06
-4.83998e-06
4.34676e-06
-4.33511e-06
5.68879e-06
-3.8218e-06
6.78682e-06
-3.31676e-06
7.62512e-06
-2.80236e-06
8.23981e-06
-2.25373e-06
8.65139e-06
-1.67311e-06
8.84283e-06
-1.09752e-06
8.7857e-06
-5.68468e-07
8.47472e-06
-1.24522e-07
7.94097e-06
7.14974e-06
6.42956e-08
-3.46374e-06
-2.15979e-06
-5.55389e-06
-4.6276e-06
-7.1228e-06
-5.23871e-06
-8.25998e-06
-4.85519e-06
-9.06935e-06
-4.56765e-06
-9.58746e-06
-5.13843e-06
-9.95586e-06
-5.91238e-06
-9.97411e-06
-5.60582e-06
-9.8674e-06
-3.90023e-06
-9.4706e-06
-1.33525e-06
-8.95761e-06
6.08363e-07
-8.36077e-06
2.22222e-06
-7.67058e-06
3.65677e-06
-6.91518e-06
4.93355e-06
-6.11854e-06
5.99031e-06
-5.30658e-06
6.81326e-06
-4.48384e-06
7.41713e-06
-3.64424e-06
7.81182e-06
-2.79333e-06
7.99199e-06
-1.95439e-06
7.94692e-06
-1.16132e-06
7.68189e-06
-4.55468e-07
7.23533e-06
6.62654e-06
6.7786e-08
-2.8933e-06
7.34623e-07
-5.08836e-06
-2.43163e-06
-6.76875e-06
-3.55756e-06
-8.04931e-06
-3.57399e-06
-8.93234e-06
-3.68405e-06
-9.74598e-06
-4.32431e-06
-1.06244e-05
-5.03356e-06
-1.12877e-05
-4.94212e-06
-1.16523e-05
-3.53521e-06
-1.14362e-05
-1.55102e-06
-1.09624e-05
1.34834e-07
-1.03309e-05
1.59094e-06
-9.58351e-06
2.9096e-06
-8.73962e-06
4.08982e-06
-7.82476e-06
5.07559e-06
-6.86811e-06
5.85671e-06
-5.88672e-06
6.43581e-06
-4.88958e-06
6.81472e-06
-3.88856e-06
6.99103e-06
-2.90558e-06
6.96413e-06
-1.97022e-06
6.74673e-06
-1.11599e-06
6.38134e-06
5.89623e-06
-3.85614e-07
-2.20607e-06
2.94182e-06
-4.43375e-06
-2.03091e-07
-6.27248e-06
-1.71813e-06
-7.6517e-06
-2.19418e-06
-8.63589e-06
-2.69934e-06
-9.57015e-06
-3.3896e-06
-1.06342e-05
-3.96907e-06
-1.16726e-05
-3.90333e-06
-1.22348e-05
-2.97272e-06
-1.22122e-05
-1.57332e-06
-1.18777e-05
-1.99335e-07
-1.13415e-05
1.05491e-06
-1.06477e-05
2.21605e-06
-9.82298e-06
3.26532e-06
-8.90141e-06
4.1542e-06
-7.91439e-06
4.86985e-06
-6.8853e-06
5.40685e-06
-5.83216e-06
5.76168e-06
-4.77303e-06
5.93205e-06
-3.72991e-06
5.92124e-06
-2.72959e-06
5.74669e-06
-1.79912e-06
5.45118e-06
5.04067e-06
-9.43525e-07
-1.83797e-06
4.78069e-06
-3.86933e-06
1.82904e-06
-5.71487e-06
1.28059e-07
-7.07358e-06
-8.34913e-07
-8.15639e-06
-1.61605e-06
-9.19142e-06
-2.35413e-06
-1.02836e-05
-2.87651e-06
-1.12824e-05
-2.90417e-06
-1.19129e-05
-2.34189e-06
-1.20965e-05
-1.38943e-06
-1.19406e-05
-3.54942e-07
-1.15489e-05
6.63459e-07
-1.09682e-05
1.63554e-06
-1.02306e-05
2.5279e-06
-9.37517e-06
3.299e-06
-8.43429e-06
3.92915e-06
-7.43488e-06
4.4076e-06
-6.39984e-06
4.72679e-06
-5.35109e-06
4.88347e-06
-4.31197e-06
4.88244e-06
-3.3058e-06
4.74084e-06
-2.35321e-06
4.49894e-06
4.13661e-06
-1.44901e-06
-1.67394e-06
6.45563e-06
-3.41722e-06
3.5731e-06
-5.02169e-06
1.73316e-06
-6.33848e-06
4.82422e-07
-7.45907e-06
-4.94985e-07
-8.51719e-06
-1.29559e-06
-9.55605e-06
-1.83728e-06
-1.04756e-05
-1.98425e-06
-1.11202e-05
-1.69697e-06
-1.14088e-05
-1.10058e-06
-1.13979e-05
-3.65572e-07
-1.1146e-05
4.11707e-07
-1.06934e-05
1.18318e-06
-1.00739e-05
1.90865e-06
-9.32306e-06
2.54836e-06
-8.47301e-06
3.07929e-06
-7.55164e-06
3.48642e-06
-6.58419e-06
3.75951e-06
-5.59448e-06
3.89398e-06
-4.60493e-06
3.89322e-06
-3.63804e-06
3.77433e-06
-2.71183e-06
3.57313e-06
3.2429e-06
-1.81797e-06
-1.44617e-06
7.90263e-06
-2.91004e-06
5.03771e-06
-4.2805e-06
3.10424e-06
-5.49281e-06
1.69527e-06
-6.57919e-06
5.91859e-07
-7.59931e-06
-2.75051e-07
-8.5622e-06
-8.74018e-07
-9.40161e-06
-1.14451e-06
-1.00186e-05
-1.07964e-06
-1.03639e-05
-7.55089e-07
-1.04512e-05
-2.78005e-07
-1.03131e-05
2.73824e-07
-9.98017e-06
8.50497e-07
-9.48139e-06
1.41009e-06
-8.84777e-06
1.91493e-06
-8.10864e-06
2.34036e-06
-7.29101e-06
2.66897e-06
-6.41997e-06
2.88866e-06
-5.51914e-06
2.99336e-06
-4.61114e-06
2.98558e-06
-3.71584e-06
2.8794e-06
-2.84996e-06
2.70766e-06
2.40564e-06
-2.01251e-06
-1.15181e-06
9.05547e-06
-2.34956e-06
6.23627e-06
-3.50779e-06
4.26312e-06
-4.58384e-06
2.77186e-06
-5.58382e-06
1.59231e-06
-6.52576e-06
6.673e-07
-7.39986e-06
4.52733e-10
-8.15745e-06
-3.86584e-07
-8.73649e-06
-5.00314e-07
-9.10006e-06
-3.91253e-07
-9.24767e-06
-1.30151e-07
-9.19539e-06
2.2177e-07
-8.96378e-06
6.19096e-07
-8.57548e-06
1.022e-06
-8.05642e-06
1.39607e-06
-7.43224e-06
1.71638e-06
-6.72757e-06
1.96448e-06
-5.96608e-06
2.12734e-06
-5.17033e-06
2.19785e-06
-4.36063e-06
2.17621e-06
-3.55703e-06
2.0762e-06
-2.77626e-06
1.92728e-06
1.64659e-06
-2.01704e-06
-8.3107e-07
9.88742e-06
-1.7759e-06
7.18186e-06
-2.73221e-06
5.22008e-06
-3.6588e-06
3.69901e-06
-4.54349e-06
2.47747e-06
-5.38183e-06
1.50605e-06
-6.15685e-06
7.75844e-07
-6.83138e-06
2.88273e-07
-7.36225e-06
3.08401e-08
-7.72103e-06
-3.22111e-08
-7.90084e-06
4.98904e-08
-7.90882e-06
2.29967e-07
-7.75764e-06
4.6813e-07
-7.46422e-06
7.2877e-07
-7.04919e-06
9.81241e-07
-6.53423e-06
1.2016e-06
-5.94103e-06
1.37145e-06
-5.29087e-06
1.47736e-06
-4.60407e-06
1.51125e-06
-3.90071e-06
1.4732e-06
-3.19796e-06
1.37379e-06
-2.51202e-06
1.24177e-06
9.84e-07
-1.84922e-06
-5.25328e-07
1.04138e-05
-1.23186e-06
7.88922e-06
-1.99413e-06
5.98301e-06
-2.76412e-06
4.46954e-06
-3.51847e-06
3.23229e-06
-4.24092e-06
2.22891e-06
-4.91051e-06
1.44579e-06
-5.49786e-06
8.75947e-07
-5.97163e-06
5.04887e-07
-6.30888e-06
3.05293e-07
-6.50013e-06
2.4137e-07
-6.5466e-06
2.76651e-07
-6.45568e-06
3.77414e-07
-6.23956e-06
5.12839e-07
-5.91416e-06
6.56025e-07
-5.49722e-06
7.84838e-07
-5.00724e-06
8.81637e-07
-4.4629e-06
9.3317e-07
-3.88268e-06
9.31248e-07
-3.28324e-06
8.74064e-07
-2.6823e-06
7.73237e-07
-2.09615e-06
6.55987e-07
4.15461e-07
-1.52739e-06
-2.6627e-07
1.06809e-05
-7.53923e-07
8.37766e-06
-1.33018e-06
6.55993e-06
-1.94121e-06
5.08112e-06
-2.55763e-06
3.84919e-06
-3.15763e-06
2.82932e-06
-3.71896e-06
2.00748e-06
-4.2167e-06
1.374e-06
-4.62637e-06
9.14835e-07
-4.9292e-06
6.08375e-07
-5.11511e-06
4.27497e-07
-5.18179e-06
3.43535e-07
-5.13284e-06
3.28656e-07
-4.97662e-06
3.56802e-07
-4.72508e-06
4.04663e-07
-4.39237e-06
4.52295e-07
-3.99388e-06
4.83301e-07
-3.54546e-06
4.84915e-07
-3.06284e-06
4.48802e-07
-2.56222e-06
3.73764e-07
-2.05809e-06
2.69419e-07
-1.56524e-06
1.6356e-07
-5.81293e-08
-1.09142e-06
-5.85207e-08
1.07407e-05
-3.62621e-07
8.68266e-06
-7.651e-07
6.9631e-06
-1.21924e-06
5.53582e-06
-1.69547e-06
4.32589e-06
-2.17038e-06
3.30464e-06
-2.62203e-06
2.45947e-06
-3.02851e-06
1.7808e-06
-3.3695e-06
1.25609e-06
-3.62893e-06
8.68048e-07
-3.79677e-06
5.95544e-07
-3.86886e-06
4.15818e-07
-3.84616e-06
3.06135e-07
-3.73394e-06
2.44763e-07
-3.54092e-06
2.11806e-07
-3.27806e-06
1.89585e-07
-2.95774e-06
1.63126e-07
-2.59328e-06
1.20592e-07
-2.19843e-06
5.41309e-08
-1.78573e-06
-3.8675e-08
-1.37004e-06
-1.45933e-07
-9.65254e-07
-2.4095e-07
-4.53964e-07
-5.69222e-07
6.47799e-08
1.06768e-05
-6.8569e-08
8.81682e-06
-3.08644e-07
7.20385e-06
-6.12023e-07
5.83975e-06
-9.50445e-07
4.66478e-06
-1.30132e-06
3.65591e-06
-1.64408e-06
2.80258e-06
-1.95917e-06
2.09618e-06
-2.22892e-06
1.5261e-06
-2.43911e-06
1.07846e-06
-2.57991e-06
7.36552e-07
-2.64614e-06
4.82228e-07
-2.63688e-06
2.97039e-07
-2.55501e-06
1.63054e-07
-2.4066e-06
6.35476e-08
-2.19985e-06
-1.70251e-08
-1.94453e-06
-9.20749e-08
-1.65131e-06
-1.72492e-07
-1.33116e-06
-2.6589e-07
-9.96312e-07
-3.73263e-07
-6.57866e-07
-4.84168e-07
-3.3213e-07
-5.66329e-07
-7.76642e-07
-9.27556e-09
1.45041e-07
1.0533e-05
1.43539e-07
8.8192e-06
4.62539e-08
7.30181e-06
-1.17609e-07
6.00416e-06
-3.2542e-07
4.87305e-06
-5.57392e-07
3.88827e-06
-7.95094e-07
3.04061e-06
-1.02109e-06
2.32246e-06
-1.21962e-06
1.72487e-06
-1.37777e-06
1.23682e-06
-1.48597e-06
8.44941e-07
-1.53838e-06
5.348e-07
-1.53274e-06
2.91549e-07
-1.47012e-06
1.00573e-07
-1.3544e-06
-5.20322e-08
-1.19144e-06
-1.79869e-07
-9.88569e-07
-2.94833e-07
-7.54279e-07
-4.06688e-07
-4.97803e-07
-5.22228e-07
-2.27446e-07
-6.43445e-07
4.90175e-08
-7.60371e-07
3.30084e-07
-8.47193e-07
-1.01777e-06
5.71392e-07
1.91385e-07
1.03423e-05
2.93729e-07
8.7176e-06
3.17881e-07
7.27829e-06
2.7813e-07
6.04444e-06
1.89282e-07
4.96233e-06
6.69285e-08
4.01099e-06
-7.30707e-08
3.18092e-06
-2.15273e-07
2.46492e-06
-3.45659e-07
1.85548e-06
-4.52109e-07
1.34346e-06
-5.25355e-07
9.18352e-07
-5.59128e-07
5.68719e-07
-5.50216e-07
2.82769e-07
-4.983e-07
4.87778e-08
-4.05513e-07
-1.44707e-07
-2.75788e-07
-3.09493e-07
-1.14606e-07
-4.55929e-07
7.16113e-08
-5.92817e-07
2.76104e-07
-7.26638e-07
4.90827e-07
-8.57991e-07
7.09136e-07
-9.78534e-07
9.20742e-07
-1.05851e-06
-1.21454e-06
1.11769e-06
2.21711e-07
1.01218e-05
4.05826e-07
8.53433e-06
5.30575e-07
7.15417e-06
5.96578e-07
5.97893e-06
6.11319e-07
4.948e-06
5.85887e-07
4.03676e-06
5.33136e-07
3.23395e-06
4.66301e-07
2.532e-06
3.98147e-07
1.92383e-06
3.39959e-07
1.40182e-06
3.00884e-07
9.57569e-07
2.87513e-07
5.82213e-07
3.03784e-07
2.66606e-07
3.51064e-07
1.59584e-09
4.2859e-07
-2.22146e-07
5.33864e-07
-4.14689e-07
6.63064e-07
-5.85061e-07
8.11341e-07
-7.41046e-07
9.72901e-07
-8.88115e-07
1.14246e-06
-1.02744e-06
1.31146e-06
-1.14736e-06
1.47188e-06
-1.2188e-06
-1.37489e-06
1.63237e-06
2.5025e-07
9.87215e-06
5.01153e-07
8.28407e-06
7.08228e-07
6.94763e-06
8.61529e-07
5.82608e-06
9.62312e-07
4.84758e-06
1.01776e-06
3.98161e-06
1.0382e-06
3.21376e-06
1.03525e-06
2.53515e-06
1.02054e-06
1.9387e-06
1.00473e-06
1.41777e-06
9.96697e-07
9.65714e-07
1.00318e-06
5.75828e-07
1.02855e-06
2.41317e-07
1.07487e-06
-4.46556e-08
1.14233e-06
-2.89542e-07
1.22954e-06
-5.01845e-07
1.33372e-06
-6.89193e-07
1.45151e-06
-8.58794e-07
1.57871e-06
-1.01528e-06
1.70925e-06
-1.15788e-06
1.83901e-06
-1.27705e-06
1.96337e-06
-1.34296e-06
-1.48974e-06
2.07836e-06
2.87434e-07
9.58573e-06
5.96875e-07
7.97526e-06
8.71533e-07
6.67344e-06
1.09459e-06
5.60339e-06
1.26313e-06
4.67934e-06
1.38179e-06
3.86319e-06
1.45927e-06
3.13648e-06
1.50614e-06
2.48844e-06
1.53335e-06
1.91162e-06
1.55111e-06
1.4001e-06
1.56817e-06
9.48743e-07
1.59127e-06
5.52794e-07
1.62501e-06
2.07631e-07
1.67182e-06
-9.14206e-08
1.73243e-06
-3.50116e-07
1.80607e-06
-5.75462e-07
1.89092e-06
-7.7401e-07
1.98429e-06
-9.52161e-07
2.0823e-06
-1.11325e-06
2.18238e-06
-1.25792e-06
2.27952e-06
-1.37407e-06
2.36945e-06
-1.43281e-06
-1.57363e-06
2.45346e-06
3.39599e-07
9.2463e-06
7.05317e-07
7.60989e-06
1.03631e-06
6.34277e-06
1.31309e-06
5.32688e-06
1.53123e-06
4.46142e-06
1.69466e-06
3.69994e-06
1.81174e-06
3.01955e-06
1.89284e-06
2.40745e-06
1.94876e-06
1.85578e-06
1.98961e-06
1.35932e-06
2.02404e-06
9.14359e-07
2.05879e-06
5.1808e-07
2.09845e-06
1.67988e-07
2.14552e-06
-1.38466e-07
2.20086e-06
-4.05443e-07
2.26392e-06
-6.38517e-07
2.33328e-06
-8.43375e-07
2.40668e-06
-1.02556e-06
2.48182e-06
-1.18839e-06
2.5551e-06
-1.33116e-06
2.62477e-06
-1.44372e-06
2.68877e-06
-1.49666e-06
-1.62301e-06
2.73833e-06
4.1058e-07
8.83632e-06
8.34406e-07
7.18638e-06
1.21338e-06
5.964e-06
1.52924e-06
5.01119e-06
1.77921e-06
4.21158e-06
1.96879e-06
3.51047e-06
2.10751e-06
2.8809e-06
2.20655e-06
2.30848e-06
2.27713e-06
1.78524e-06
2.3296e-06
1.30687e-06
2.37266e-06
8.71308e-07
2.41299e-06
4.77743e-07
2.45504e-06
1.25937e-07
2.501e-06
-1.84445e-07
2.55149e-06
-4.55945e-07
2.60572e-06
-6.92764e-07
2.6623e-06
-8.9997e-07
2.71907e-06
-1.08235e-06
2.77378e-06
-1.2431e-06
2.8255e-06
-1.38289e-06
2.87178e-06
-1.48995e-06
2.91094e-06
-1.53576e-06
-1.65389e-06
2.94191e-06
5.01775e-07
8.33436e-06
9.88359e-07
6.69979e-06
1.40858e-06
5.54382e-06
1.74977e-06
4.67005e-06
2.01426e-06
3.94712e-06
2.21159e-06
3.31317e-06
2.35413e-06
2.73838e-06
2.45482e-06
2.20778e-06
2.52595e-06
1.7141e-06
2.57835e-06
1.25445e-06
2.62094e-06
8.28685e-07
2.66035e-06
4.38301e-07
2.7007e-06
8.55593e-08
2.74364e-06
-2.27417e-07
2.78905e-06
-5.01392e-07
2.83549e-06
-7.39239e-07
2.88103e-06
-9.45543e-07
2.92359e-06
-1.12495e-06
2.96193e-06
-1.28147e-06
2.99384e-06
-1.41481e-06
3.01985e-06
-1.516e-06
3.04074e-06
-1.55663e-06
-1.65994e-06
3.04694e-06
6.13765e-07
7.72068e-06
1.16839e-06
6.14508e-06
1.62346e-06
5.08866e-06
1.97632e-06
4.31713e-06
2.23823e-06
3.68516e-06
2.42541e-06
3.12595e-06
2.55464e-06
2.6091e-06
2.64152e-06
2.12086e-06
2.69974e-06
1.65582e-06
2.74089e-06
1.21325e-06
2.77418e-06
7.95341e-07
2.8062e-06
4.06215e-07
2.84072e-06
5.09928e-08
2.87856e-06
-2.65314e-07
2.91845e-06
-5.41323e-07
2.95773e-06
-7.78565e-07
2.99368e-06
-9.81532e-07
3.02394e-06
-1.15526e-06
3.04677e-06
-1.30433e-06
3.0625e-06
-1.43061e-06
3.07071e-06
-1.52424e-06
3.07233e-06
-1.5582e-06
-1.6522e-06
3.0646e-06
7.45737e-07
6.97431e-06
1.37269e-06
5.51777e-06
1.85519e-06
4.60592e-06
2.20553e-06
3.96661e-06
2.44792e-06
3.44263e-06
2.60792e-06
2.96584e-06
2.70814e-06
2.50878e-06
2.76732e-06
2.06159e-06
2.8007e-06
1.62237e-06
2.82053e-06
1.19333e-06
2.8364e-06
7.79397e-07
2.855e-06
3.87541e-07
2.87976e-06
2.61582e-08
2.91059e-06
-2.96195e-07
2.94453e-06
-5.75318e-07
2.97719e-06
-8.1128e-07
3.00451e-06
-1.0089e-06
3.02369e-06
-1.17448e-06
3.03367e-06
-1.31437e-06
3.03368e-06
-1.43065e-06
3.02568e-06
-1.51631e-06
3.01307e-06
-1.54571e-06
-1.62503e-06
2.98608e-06
8.95347e-07
6.07854e-06
1.59574e-06
4.81693e-06
2.09656e-06
4.10477e-06
2.42915e-06
3.63376e-06
2.63528e-06
3.2363e-06
2.75265e-06
2.84831e-06
2.81065e-06
2.45064e-06
2.83102e-06
2.0411e-06
2.83003e-06
1.62325e-06
2.82028e-06
1.20298e-06
2.81168e-06
7.8791e-07
2.81128e-06
3.87855e-07
2.82257e-06
1.47924e-08
2.84455e-06
-3.18237e-07
2.8722e-06
-6.0303e-07
2.89863e-06
-8.3776e-07
2.91816e-06
-1.02848e-06
2.92729e-06
-1.18367e-06
2.92455e-06
-1.31167e-06
2.91092e-06
-1.41713e-06
2.88785e-06
-1.49335e-06
2.85991e-06
-1.51765e-06
-1.59162e-06
2.82645e-06
1.057e-06
5.02067e-06
1.82744e-06
4.04588e-06
2.33461e-06
3.59715e-06
2.63288e-06
3.33517e-06
2.78707e-06
3.08185e-06
2.84966e-06
2.78552e-06
2.85665e-06
2.44349e-06
2.8315e-06
2.0661e-06
2.79025e-06
1.66437e-06
2.74513e-06
1.24798e-06
2.70623e-06
8.26704e-07
2.6815e-06
4.12497e-07
2.6753e-06
2.09174e-08
2.68628e-06
-3.29292e-07
2.707e-06
-6.23812e-07
2.72726e-06
-8.58078e-07
2.73936e-06
-1.04063e-06
2.73924e-06
-1.18361e-06
2.72607e-06
-1.29859e-06
2.69952e-06
-1.39066e-06
2.66195e-06
-1.45584e-06
2.62146e-06
-1.47745e-06
-1.54608e-06
2.57611e-06
1.22097e-06
3.799e-06
2.05066e-06
3.21559e-06
2.54684e-06
3.10052e-06
2.79331e-06
3.08835e-06
2.88409e-06
2.9908e-06
2.88678e-06
2.78263e-06
2.8415e-06
2.48859e-06