/*--------------------------------*- C++ -*----------------------------------*\
  =========                 |
  \\      /  F ield         | OpenFOAM: The Open Source CFD Toolbox
   \\    /   O peration     | Website:  https://openfoam.org
    \\  /    A nd           | Version:  13
     \\/     M anipulation  |
\*---------------------------------------------------------------------------*/
FoamFile
{
    format      ascii;
    class       volScalarField;
    location    "2.95";
    object      rho;
}
// * * * * * * * * * * * * * * * * * * * * * * * * * * * * * * * * * * * * * //

dimensions      [1 -3 0 0 0 0 0];

internalField   nonuniform List<scalar> 
2268
(
13529
13529
13529
13529
13529
13529
13529
13529
13529
13529
13529
13529
13529
13529
13529
13529
13529
13529
13528.9
13524.5
13521.9
13521.9
13522.6
13529
13529
13529
13529
13529
13529
13529
13529
13529
13529
13529
13529
13529
13529
13529
13529
13529
13529
13529
13528.9
13528.6
13528.5
13529
13529
13529
13529
13529
13529
13529
13529
13529
13529
13529
13529
13529
13529
13529
13529
13529
13529
13529
13529
13529
13529
13529
13529
13529
13529
13529
13529
13529
13529
13529
13529
13529
13529
13529
13529
13529
13529
13529
13529
13529
13529
13529
13529
13529
13529
13529
13529
13529
13529
13529
13529
13529
13529
13529
13529
13529
13529
13529
13529
13529
13529
13529
13529
13529
13529
13529
13529
13529
13528.8
13529
13529
13529
13529
13529
13529
13529
13529
13529
13517.5
13438.3
13371.5
13311.2
13232
13133.3
13018.3
12892.2
12764.3
12648.5
12558.2
12485.9
12372.2
12185.7
11040.3
10186.1
9603.95
9186.32
8764.11
8330.76
7901.75
7484.01
7076.65
6697.14
6354.87
5981.59
5573.15
5163.72
4765.65
4394.09
4059.43
3777.23
3561.23
3412.95
3307.36
3142.02
2842.93
1968.16
1538.14
1352.52
1255.58
1181.88
1123.67
1079.47
1047.49
1022.82
1000
1000
1000
1000
1000
1000
1000
1000
1000
999.997
999.975
999.834
998.845
996.913
11942.9
11953.5
11945.6
11937.4
10901.8
9031.89
9030.54
9175.99
9506.84
9592.16
8952.83
8967.6
9673.65
10339.2
10345.8
10362.7
10321.6
10302.6
10306.2
11781.8
11916.9
11945.5
11885.3
11643.6
11395.9
11274.9
11282.9
11236.9
11189.6
10361.8
9312
10283.4
10263.5
10277.6
10284.9
10302.8
10302.9
10307
7847.04
8423.61
8361.47
7898.28
7817.97
8114.73
7791.32
7240.23
6491.42
7190.89
7727.84
8045.53
7024.97
7553.15
8099.96
8397.73
8097.02
7611.14
7001.33
4644.14
4762.5
4386.24
3300.88
2677.24
2344.59
1744.74
1532.8
1966.41
1551.51
2333.67
3366.3
3471.37
2826.72
2054.9
1487.77
1804.21
2347.18
3359.64
1440.63
1539.42
1954.74
2345.37
1598.3
1055.78
1031.96
1012.66
1138.13
1144.48
893.419
630.434
1477.85
994.963
709.869
880.733
899.705
973.446
672.897
1614.84
1794.89
1801.07
1929.41
1980.73
1282.25
1402.22
1504.93
1582.41
1306.12
1007.63
918.154
488.844
621.458
991.136
999.97
999.929
1000
760.214
1516.5
1285.96
1333.48
1476.78
1938.8
1726.86
1544.85
1680.11
1533.06
1153.44
1006.04
1003.34
520.211
725.198
999.902
999.993
999.933
1000.1
846.228
1168.9
1217.13
1262.78
1132.06
1092.9
1643.91
1591.36
1471.68
1027.86
1004.76
1006.14
989.177
499.769
708.394
990.318
999.997
999.763
998.612
841.071
1000.01
1000
1000.12
1000.18
999.974
999.999
1000
1000
1000
1000
1000
1000
1000
1000
1000
1000
999.999
999.999
999.999
999.999
999.998
999.995
997.195
1000
1000
999.469
999.607
999.971
1000
1000
1000
1000
1000
1000
1000
1000
1000
1000
999.999
999.531
999
996.333
988.142
976.86
968.757
955.16
999.62
996.252
997.955
999.56
999.942
999.999
1000
1000
999.935
999.399
998.394
996.694
991
977.232
957.926
931.631
901.678
872.251
821.401
752.496
692.418
646.421
622.924
890.027
918.195
924.981
905.196
898.362
913.446
928.883
886.617
865.955
855.771
835.198
803.796
757.595
687.974
629.372
597.535
558.666
498.945
461.178
460.058
465.551
482.597
474.341
659.773
585.308
554.686
540.848
536.071
540.066
490.877
492.916
479.798
460.449
440.198
419.642
425.299
470.541
479.201
460.434
451.348
483.952
499.971
500
500
499.993
493.008
465.413
495.425
499.953
500.067
498.1
478.985
477.286
490.892
498.057
496.434
496.659
499.707
500
500
500
500
500
500
500
500
499.875
499.797
500.1
499.717
500.196
500.064
500.019
499.967
499.345
499.999
500
500
500
500
500
500
500
500
500
500
500
500
500
500.002
500.005
500.012
472.292
474.372
474.752
471.541
464.184
453.308
440.981
428.661
415.726
402.789
390.476
378.869
368.241
359.373
354.999
356.441
361.188
367.506
377.261
392.765
412.414
433.248
450.976
102.053
112.723
118.043
113.013
101.743
89.4894
75.3582
59.5057
45.2502
34.7031
27.325
21.9391
18.0742
15.7255
15.447
17.5321
21.9745
28.9986
38.5988
50.5416
64.8076
81.2481
96.8434
1.00028
1.0003
1.00035
1.00198
1.00051
1.00012
1.00008
1.00006
1.00006
1.00005
1.00003
1.00002
1.00001
1.00001
1.00001
1.00022
1.00059
1.00086
1.00108
1.0012
1.00129
1.00165
1.00105
1.00089
1.0008
1.00096
1.00066
1.00018
1.00023
1.00043
1.00178
1.0007
1.00038
1.00013
1.00007
1.00006
1.00005
1.00006
1.00004
1.00003
1.00003
1.00005
1.00006
1.00009
1.00013
1.00012
1.00115
1.00245
1.0031
1.00081
1.00032
1.0022
1.03203
1.06406
1.02627
1.00182
1.00057
1.00043
1.00033
1.00029
1.0002
1.00013
1.0001
1.00008
1.00006
1.00005
1.00005
1.00006
1.00009
1.00187
1.00823
1.01545
1.00296
1.00047
1.02478
1.08298
1.08464
1.07629
1.00312
1.0012
1.0009
1.00061
1.00045
1.00027
1.00018
1.00014
1.00009
1.00007
1.00005
1.00006
1.00006
1.00008
1.00243
1.02094
1.02896
1.01655
1.00012
1.02952
1.08234
1.08419
1.08458
1.01332
1.00336
1.00254
1.00111
1.00062
1.00023
1.00017
1.00014
1.00011
1.00007
1.00005
1.00005
1.00004
1.00005
1.00209
1.02251
1.02898
1.01897
1.00011
1.00028
1.03546
1.08105
1.03973
1.0033
1.00336
1.00337
1.00316
1.00066
1.0001
1.00013
1.00013
1.00011
1.00008
1.00006
1.00005
1.00003
1.00003
1.00152
1.01212
1.02489
1.00473
1.00009
1.00009
1.00014
1.00018
1.00018
1.00086
1.00243
1.00339
1.00235
1.00029
1.00004
1.00008
1.0001
1.00009
1.00007
1.00006
1.00004
1.00003
1.00002
1.001
1.00189
1.00236
1.00032
1.00011
1.00005
1.00006
1.00005
1.00007
1.00014
1.00046
1.001
1.00063
1.0001
1.00006
1.00008
1.00008
1.00006
1.00005
1.00005
1.00004
1.00003
1.00002
1.00054
1.00047
1.00019
1.0001
1.00006
1.00005
1.00005
1.00005
1.00007
1.00018
1.00038
1.00039
1.00026
1.00004
1.00005
1.00006
1.00005
1.00004
1.00003
1.00003
1.00002
1.00002
1.00001
1.00035
1.00023
1.00011
1.00005
1.00005
1.00005
1.00004
1.00004
1.00004
1.00008
1.00024
1.00035
1.00022
1.00005
1.00003
1.00003
1.00003
1.00002
1.00002
1.00002
1.00002
1.00001
1.00001
1.0003
1.00022
1.00012
1.00005
1.00004
1.00004
1.00004
1.00003
1.00002
1.00004
1.0001
1.00017
1.00013
1.00003
1.00002
1.00002
1.00002
1.00001
1.00001
1.00001
1.00001
1.00001
1.00001
1.0002
1.00021
1.00012
1.00005
1.00004
1.00003
1.00003
1.00002
1.00002
1.00002
1.00003
1.00004
1.00003
1.00002
1.00001
1.00001
1.00001
1.00001
1.00001
1.00001
1
1
1
1.00016
1.00017
1.00009
1.00005
1.00003
1.00003
1.00002
1.00002
1.00001
1.00001
1.00002
1.00001
1.00001
1.00001
1.00001
1.00001
1.00001
1.00001
1
1
1
1
1
1.00009
1.00011
1.00007
1.00004
1.00003
1.00002
1.00002
1.00001
1.00001
1.00001
1.00001
1.00001
1.00001
1
1
1
1
1
1
1
1
1
1
1.00006
1.00008
1.00005
1.00004
1.00003
1.00002
1.00001
1.00001
1.00001
1.00001
1
1
1
1
1
1
1
1
1
1
1
1
1
1.00005
1.00005
1.00004
1.00003
1.00002
1.00002
1.00001
1.00001
1.00001
1
1
1
1
1
1
1
1
1
1
1
1
1
1
1.00004
1.00004
1.00003
1.00003
1.00002
1.00001
1.00001
1.00001
1
1
1
1
1
1
1
1
1
1
1
1
1
1
1
1.00003
1.00003
1.00003
1.00002
1.00001
1.00001
1.00001
1
1
1
1
1
1
1
1
1
1
1
1
1
1
1
1
1.00003
1.00003
1.00002
1.00001
1.00001
1.00001
1
1
1
1
1
1
1
1
1
1
1
1
1
1
1
1
1
1.00002
1.00002
1.00001
1.00001
1.00001
1.00001
1
1
1
1
1
1
1
1
1
1
1
1
1
1
1
1
1
1.00002
1.00001
1.00001
1.00001
1
1
1
1
1
1
1
1
1
1
1
1
1
1
1
1
1
1
1
1.00002
1.00001
1.00001
1
1
1
1
1
1
1
1
1
1
1
1
1
1
1
1
1
1
1
1
1.00001
1.00001
1.00001
1
1
1
1
1
1
1
1
1
1
1
1
1
1
1
1
1
1
1
1
1.00001
1.00001
1
1
1
1
1
1
1
1
1
1
1
1
1
1
1
1
1
1
1
1
1
1.00001
1
1
1
1
1
1
1
1
1
1
1
1
1
1
1
1
1
1
1
1
1
1
1
1
1
1
1
1
1
1
1
1
1
1
1
1
1
1
1
1
1
1
1
1
1
1
1
1
1
1
1
1
1
1
1
1
1
1
1
1
1
1
1
1
1
1
1
1
1
1
1
1
1
1
1
1
1
1
1
1
1
1
1
1
1
1
1
1
1
1
1
1
1
1
1
1
1
1
1
1
1
1
1
1
1
1
1
1
1
1
1
1
1
1
1
1
1
1
1
1
1
1
1
1
1
1
1
1
1
1
1
1
1
1
1
1
1
1
1
1
1
1
1
1
1
1
1
1
1
1
1
1
1
1
1
1
1
1
1
1
1
1
1
1
1
1
1
1
1
1
1
1
1
1
1
1
1
1
1
1
1
1
1
1
1
1
1
1
1
1
1
1
1
1
1
1
1
1
1
1
1
1
1
1
1
1
1138.15
1297.23
1441.16
1440.03
898.814
881.422
918.14
961.908
620.221
575.598
542.366
592.629
436.685
431.707
431.649
441.494
486.657
487.276
496.453
502.028
500.12
500.088
500.125
500.067
500.019
500.013
500.01
500.008
458.47
463.118
467.231
471.493
102.25
106.461
110.93
116.173
1.00102
1.00125
1.00068
1.00129
1.00014
1.00015
1.00015
1.00019
1.00011
1.00012
1.00012
1.00015
1.00009
1.0001
1.0001
1.00011
1.00006
1.00008
1.00007
1.00007
1.00004
1.00004
1.00005
1.00005
1.00002
1.00002
1.00003
1.00003
1.00002
1.00001
1.00002
1.00002
1.00001
1.00001
1.00001
1.00001
1.00001
1.00001
1.00001
1.00001
1
1
1
1
1
1
1
1
1
1
1
1
1
1
1
1
1
1
1
1
1
1
1
1
1
1
1
1
1
1
1
1
1
1
1
1
1
1
1
1
1
1
1
1
1
1
1
1
1
1
1
1
1
1
1
1
1
1
1
1
1
1
1
1
1
1
1
1
1
1
1
1
1
1
1
1
1
1
1
1
1
1
1
1
1
1
1
1
1
1
1
1
1114.28
1042.28
1134.16
1103.95
1023.25
947.742
1106.21
983.07
999.779
999.814
1000.56
972.47
512.208
881.898
999.826
999.959
993.849
918.142
838.73
983.762
986.333
1079.3
995.931
893.802
983.082
930.517
869.304
984.063
995.338
997.127
995.174
930.889
979.674
932.512
828.975
777.946
855.186
875.193
687.031
706.266
674.761
741.097
805.116
714.13
688.087
731.449
687.184
651.949
650.498
711.72
770.058
674.68
572.543
555.936
604.459
662.858
723.145
465.026
444.424
445.155
494.263
502.874
436.027
460.55
453.586
484.757
500.677
500.002
500.101
501.713
500.049
500.327
500.523
515.741
541.964
532.713
503.458
499.182
499.964
500.012
499.854
469.935
422.053
450.767
497.702
500.117
500.023
500.006
500.001
500.003
500.088
500.203
500.193
500.457
500.118
500.008
500.006
500.006
499.984
499.99
499.539
496.177
498.711
500
500
500.005
500.002
500.001
500.002
499.993
499.976
499.987
500.021
500.092
500.004
500.002
500.003
500.004
500.008
500.008
500.002
500
500
500
500
500
500.028
500.042
500.032
500.034
501.366
502.486
500.307
478.686
487.496
495.749
500.003
499.926
499.936
499.962
499.959
499.945
499.954
499.978
499.992
500.006
500.001
502.876
515.533
525.662
524.384
510.683
125.521
134.483
146.919
168.68
203.229
239.836
267.767
282.285
288.219
291.354
293.634
295.433
296.732
293.124
275.88
254.444
234.442
226.754
232.801
1.00116
1.00102
1.00108
1.00143
1.00139
1.00934
1.21703
2.17258
2.84801
3.34165
3.69112
3.67248
2.53422
3.85642
15.6601
21.5076
22.8164
20.6721
18.9997
1.00024
1.00037
1.00089
1.08426
1.2265
1.3324
1.24848
1.02796
1.09961
1.15443
1.35689
1.57149
1.86756
2.36148
1.00069
1.00005
1.00003
1.00048
1.04655
1.00018
1.00031
1.00032
1.18297
1.40514
1.40365
1.3691
1.09954
1.03744
1.06961
1.23492
1.34916
1.3351
1.1853
1.00711
1.00053
1.00014
1.00008
1.00021
1.00013
1.00021
1.00023
1.01836
1.00613
1.00908
1.00059
1.01
1.00311
1.00693
1.06119
1.19712
1.16119
1.0605
1.00161
1.00037
1.00023
1.00018
1.00073
1.00008
1.00009
1.00009
1.00019
1.00007
1.0001
1.00029
1.00052
1.00079
1.00245
1.00109
1.00022
1.00016
1.0001
1.00037
1.00036
1.00034
1.00027
1.00017
1.00005
1.00005
1.00006
1.00007
1.00009
1.0001
1.00013
1.00022
1.00036
1.00048
1.00024
1.00013
1.0001
1.0001
1.00019
1.00027
1.00029
1.00024
1.00019
1.00003
1.00004
1.00006
1.00008
1.00011
1.00012
1.00012
1.00013
1.00015
1.00016
1.00016
1.00013
1.00011
1.00009
1.00014
1.00017
1.00017
1.00018
1.00018
1.00002
1.00002
1.00003
1.00005
1.00007
1.00008
1.00009
1.00009
1.0001
1.00011
1.00011
1.0001
1.00008
1.00006
1.00007
1.00007
1.00008
1.00008
1.00008
1.00001
1.00001
1.00001
1.00001
1.00002
1.00003
1.00003
1.00004
1.00004
1.00005
1.00005
1.00005
1.00004
1.00003
1.00003
1.00003
1.00003
1.00002
1.00002
1.00001
1.00001
1.00001
1.00001
1.00001
1.00001
1.00001
1.00001
1.00001
1.00002
1.00002
1.00002
1.00002
1.00001
1.00001
1.00001
1.00001
1.00001
1.00001
1
1
1
1
1
1
1.00001
1.00001
1.00001
1.00001
1.00001
1.00001
1.00001
1.00001
1.00001
1.00001
1.00001
1.00001
1.00001
1
1
1
1
1
1
1
1
1
1
1
1
1
1
1
1.00001
1.00001
1.00002
1.00002
1
1
1
1
1
1
1
1
1
1
1
1
1
1
1
1.00001
1.00001
1.00003
1.00004
1
1
1
1
1
1
1
1
1
1
1
1
1
1
1
1.00001
1.00001
1.00003
1.00004
1
1
1
1
1
1
1
1
1
1
1
1
1
1
1
1.00001
1.00002
1.00004
1.00004
1
1
1
1
1
1
1
1
1
1
1
1
1
1
1
1.00001
1.00002
1.00004
1.00003
1
1
1
1
1
1
1
1
1
1
1
1
1
1
1
1.00001
1.00002
1.00005
1.00002
1
1
1
1
1
1
1
1
1
1
1
1
1
1
1
1
1.00002
1.00005
1.00002
1
1
1
1
1
1
1
1
1
1
1
1
1
1
1
1
1.00002
1.00005
1.00001
1
1
1
1
1
1
1
1
1
1
1
1
1
1
1
1
1.00002
1.00005
1.00001
1
1
1
1
1
1
1
1
1
1
1
1
1
1
1
1
1.00002
1.00003
1.00001
1
1
1
1
1
1
1
1
1
1
1
1
1
1
1
1
1.00002
1.00002
1
1
1
1
1
1
1
1
1
1
1
1
1
1
1
1
1.00001
1.00001
1.00001
1
1
1
1
1
1
1
1
1
1
1
1
1
1
1
1
1.00001
1.00001
1
1
1
1
1
1
1
1
1
1
1
1
1
1
1
1
1
1
1.00001
1
1
1
1
1
1
1
1
1
1
1
1
1
1
1
1
1
1
1
1
1
1
1
1
1
1
1
1
1
1
1
1
1
1
1
1
1
1
1
1
1
1
1
1
1
1
1
1
1
1
1
1
1
1
1
1
1
1
1
1
1
1
1
1
1
1
1
1
1
1
1
1
1
1
1
1
1
1
1
1
1
1
1
1
1
1
1
1
1
1
1
1
1
1
1
1
1
1
1
1
1
1
1
1
1
1
1
1
1
1
1
1
1
1
1
1
1
1
1
1
1
1
1
1
1
1
1
1
1
1
1
1
1
1
1
1
1
1
1
1
1
1
1
1
1
1
1
1
1
1
1
1
1
1
)
;

boundaryField
{
    leftWall
    {
        type            calculated;
        value           nonuniform List<scalar> 
50
(
13529
13529
13529
13529
13529
13529
11040.3
1968.16
1000.01
1000
999.62
890.027
659.773
465.413
499.717
472.292
102.053
1.00028
1.00089
1.00115
1.00187
1.00243
1.00209
1.00152
1.001
1.00054
1.00035
1.0003
1.0002
1.00016
1.00009
1.00006
1.00005
1.00004
1.00003
1.00003
1.00002
1.00002
1.00002
1.00001
1.00001
1.00001
1
1
1
1
1
1
1
1
)
;
    }
    rightWall
    {
        type            calculated;
        value           nonuniform List<scalar> 
50
(
10306.2
10307
7001.33
3359.64
672.897
760.214
846.228
841.071
838.73
875.193
723.145
532.713
500.118
500.092
500.307
510.683
232.801
18.9997
1.04655
1.00021
1.00073
1.00017
1.00019
1.00018
1.00008
1.00002
1.00001
1.00001
1.00002
1.00004
1.00004
1.00004
1.00003
1.00002
1.00002
1.00001
1.00001
1.00001
1
1
1
1
1
1
1
1
1
1
1
1
)
;
    }
    lowerWall
    {
        type            calculated;
        value           nonuniform List<scalar> 
62
(
13529
13529
13529
13529
13529
13529
13529
13529
13529
13529
13529
13529
13529
13529
13529
13529
13529
13529
13528.9
13524.5
13521.9
13521.9
13522.6
13522.6
13529
13529
13529
13528.8
12185.7
2842.93
996.913
1138.15
1297.23
1441.16
1440.03
11942.9
11781.8
7847.04
4644.14
1440.63
1614.84
1516.5
1168.9
11942.9
11953.5
11945.6
11937.4
10901.8
9031.89
9030.54
9175.99
9506.84
9592.16
8952.83
8967.6
9673.65
10339.2
10345.8
10362.7
10321.6
10302.6
10306.2
)
;
    }
    atmosphere
    {
        type            calculated;
        value           nonuniform List<scalar> 
46
(
1
1
1
1
1
1
1
1
1
1
1
1
1
1
1
1
1
1
1
1
1
1
1
1
1
1
1
1
1
1
1
1
1
1
1
1
1
1
1
1
1
1
1
1
1
1
)
;
    }
    defaultFaces
    {
        type            empty;
    }
}


// ************************************************************************* //
