/*--------------------------------*- C++ -*----------------------------------*\
  =========                 |
  \\      /  F ield         | OpenFOAM: The Open Source CFD Toolbox
   \\    /   O peration     | Website:  https://openfoam.org
    \\  /    A nd           | Version:  13
     \\/     M anipulation  |
\*---------------------------------------------------------------------------*/
FoamFile
{
    format      ascii;
    class       volVectorField;
    location    "2.95";
    object      U;
}
// * * * * * * * * * * * * * * * * * * * * * * * * * * * * * * * * * * * * * //

dimensions      [0 1 -1 0 0 0 0];

internalField   nonuniform List<vector> 
2268
(
(-0.0044642 0.00251781 0)
(-0.0140104 0.00492284 0)
(-0.0310862 0.00585821 0)
(-0.047874 0.00547526 0)
(-0.0627025 0.00475615 0)
(-0.0750377 0.00385737 0)
(-0.0845563 0.00289337 0)
(-0.0912372 0.00194833 0)
(-0.0952119 0.00105837 0)
(-0.0966791 0.000232304 0)
(-0.09584 -0.00052567 0)
(-0.0929131 -0.00122135 0)
(-0.0881608 -0.00184267 0)
(-0.0819006 -0.00237277 0)
(-0.0744637 -0.0028186 0)
(-0.0661139 -0.00321091 0)
(-0.0570236 -0.00357816 0)
(-0.0472783 -0.00394848 0)
(-0.0369177 -0.00431893 0)
(-0.0260935 -0.00458139 0)
(-0.0152476 -0.00443236 0)
(-0.00519232 -0.00289613 0)
(-0.00281695 -0.00169931 0)
(-0.00677818 0.0062273 0)
(-0.0188482 0.0109397 0)
(-0.0348403 0.0123969 0)
(-0.0504112 0.0115083 0)
(-0.063979 0.00988212 0)
(-0.0751619 0.0079309 0)
(-0.0836837 0.0058602 0)
(-0.0894996 0.00381998 0)
(-0.0927031 0.00189489 0)
(-0.0934597 0.00011513 0)
(-0.0919621 -0.00150231 0)
(-0.0884644 -0.00294557 0)
(-0.0832617 -0.00416733 0)
(-0.0767139 -0.00513458 0)
(-0.0691912 -0.00586476 0)
(-0.0610082 -0.00641683 0)
(-0.0524085 -0.00685235 0)
(-0.0435683 -0.00722945 0)
(-0.0346142 -0.00755668 0)
(-0.02568 -0.00770249 0)
(-0.016949 -0.00724894 0)
(-0.00874889 -0.00516662 0)
(-0.00418081 -0.00209339 0)
(-0.0093486 0.012511 0)
(-0.0226873 0.0176357 0)
(-0.0374762 0.0189891 0)
(-0.0515959 0.0175243 0)
(-0.0637851 0.0149797 0)
(-0.0737808 0.0119568 0)
(-0.0813399 0.00875531 0)
(-0.0863973 0.00559147 0)
(-0.0890073 0.00259322 0)
(-0.0892945 -0.00018801 0)
(-0.0874396 -0.00270647 0)
(-0.0837055 -0.00492402 0)
(-0.0784023 -0.00677289 0)
(-0.0718998 -0.00820624 0)
(-0.0645719 -0.00925054 0)
(-0.0567464 -0.00998816 0)
(-0.0486983 -0.0105045 0)
(-0.0406519 -0.0108822 0)
(-0.0327785 -0.0111479 0)
(-0.0251963 -0.0111812 0)
(-0.0179368 -0.010558 0)
(-0.0109493 -0.00844621 0)
(-0.00545198 -0.00561676 0)
(-0.0112571 0.0202858 0)
(-0.0254664 0.0249569 0)
(-0.0392636 0.0257053 0)
(-0.0520037 0.0235417 0)
(-0.0628792 0.0200726 0)
(-0.0717639 0.0159862 0)
(-0.0784506 0.0116452 0)
(-0.0828556 0.00732482 0)
(-0.0849976 0.00319718 0)
(-0.0849614 -0.000654332 0)
(-0.082909 -0.00413119 0)
(-0.0790966 -0.00717409 0)
(-0.0738404 -0.00967723 0)
(-0.0675058 -0.0115818 0)
(-0.0604563 -0.0129239 0)
(-0.0530172 -0.0138079 0)
(-0.0454764 -0.0143398 0)
(-0.0380858 -0.0146278 0)
(-0.0310426 -0.0147322 0)
(-0.0244515 -0.0145828 0)
(-0.0182365 -0.0138489 0)
(-0.012073 -0.0120058 0)
(-0.00589986 -0.00966308 0)
(-0.0125648 0.0287918 0)
(-0.0271379 0.0324841 0)
(-0.0401607 0.0321428 0)
(-0.0516556 0.0291572 0)
(-0.0613468 0.0247937 0)
(-0.0692412 0.0197089 0)
(-0.0751705 0.0142936 0)
(-0.0790372 0.00887032 0)
(-0.0808281 0.00365518 0)
(-0.0805915 -0.0012352 0)
(-0.0784629 -0.00563495 0)
(-0.0746754 -0.00945544 0)
(-0.0695484 -0.0125594 0)
(-0.0634412 -0.0148803 0)
(-0.0566963 -0.0164668 0)
(-0.0496255 -0.0174413 0)
(-0.0425168 -0.0179251 0)
(-0.035636 -0.0180502 0)
(-0.0291965 -0.0179162 0)
(-0.0232976 -0.0175288 0)
(-0.0178192 -0.0167167 0)
(-0.0122349 -0.0153694 0)
(-0.00613544 -0.0140855 0)
(-0.0138839 0.0368367 0)
(-0.0275563 0.0387678 0)
(-0.039979 0.0369134 0)
(-0.0503469 0.0331024 0)
(-0.0589877 0.0280412 0)
(-0.0660142 0.0222355 0)
(-0.0712996 0.016065 0)
(-0.0747421 0.00987661 0)
(-0.0763049 0.00391484 0)
(-0.07602 -0.00168659 0)
(-0.0739541 -0.00673845 0)
(-0.0703032 -0.0110981 0)
(-0.0654136 -0.0146107 0)
(-0.05962 -0.01722 0)
(-0.0532252 -0.0189811 0)
(-0.0465164 -0.0200253 0)
(-0.0397722 -0.0204777 0)
(-0.0332597 -0.0204817 0)
(-0.0272097 -0.0201621 0)
(-0.0217485 -0.0195885 0)
(-0.0167875 -0.0187497 0)
(-0.0115989 -0.0179225 0)
(-0.00696786 -0.0184472 0)
(-0.0170521 0.0440111 0)
(-0.0272427 0.0444433 0)
(-0.0387521 0.0412789 0)
(-0.0478988 0.0367635 0)
(-0.0554874 0.0311093 0)
(-0.0616478 0.0246679 0)
(-0.0662777 0.0177991 0)
(-0.069288 0.0108722 0)
(-0.0706204 0.00416601 0)
(-0.0703019 -0.00214957 0)
(-0.0683455 -0.00788365 0)
(-0.0648603 -0.0128075 0)
(-0.0601943 -0.0167306 0)
(-0.0546657 -0.0196135 0)
(-0.0485469 -0.021514 0)
(-0.0421043 -0.0225763 0)
(-0.0356012 -0.0229302 0)
(-0.029302 -0.0227388 0)
(-0.0234641 -0.0221647 0)
(-0.0182792 -0.0213526 0)
(-0.0137719 -0.0204327 0)
(-0.00904897 -0.0198399 0)
(-0.00724491 -0.0216968 0)
(-0.0214091 0.0553252 0)
(-0.0252309 0.0487882 0)
(-0.0353397 0.0442191 0)
(-0.0427766 0.0390868 0)
(-0.0488972 0.0330117 0)
(-0.0537231 0.0261637 0)
(-0.0572013 0.0188491 0)
(-0.0593385 0.0114297 0)
(-0.0600675 0.00418861 0)
(-0.0593442 -0.00268158 0)
(-0.0571508 -0.00906724 0)
(-0.0535913 -0.014573 0)
(-0.0489022 -0.0190112 0)
(-0.0433732 -0.0223449 0)
(-0.0372725 -0.0246164 0)
(-0.0308402 -0.0259507 0)
(-0.0243074 -0.0264432 0)
(-0.017925 -0.0262284 0)
(-0.0120292 -0.0254357 0)
(-0.00701799 -0.0242765 0)
(-0.00332737 -0.0230761 0)
(-0.000450496 -0.0220715 0)
(0.000722396 -0.0238915 0)
(0.00942947 -0.00409067 0)
(0.0352108 -0.0060295 0)
(0.0516273 -0.00290786 0)
(0.0568638 -0.000945541 0)
(0.0534293 0.00239671 0)
(0.0404662 0.00751732 0)
(0.0194173 0.00570539 0)
(0.00615393 0.00392982 0)
(-0.00380166 0.00156067 0)
(-0.00203471 -0.00494457 0)
(0.00626175 0.00118649 0)
(-0.0085357 0.00685594 0)
(-0.0134708 -0.00301282 0)
(-0.00376059 -0.00399612 0)
(0.00162865 -0.00183923 0)
(0.00391143 -0.00111275 0)
(0.00465024 -0.000203191 0)
(0.00373159 -0.000608217 0)
(0.0050524 0.00152495 0)
(0.0150382 -0.0135858 0)
(0.0388218 -0.0148191 0)
(0.0532609 -0.00731663 0)
(0.0553692 0.000847852 0)
(0.0454994 0.00710497 0)
(0.0344877 0.0106068 0)
(0.0243955 0.00933104 0)
(0.0146553 0.00693814 0)
(0.00709025 0.00425033 0)
(0.000165938 -0.00209174 0)
(-0.0024915 0.000988644 0)
(0.00173328 0.00389341 0)
(0.00632694 -0.00254205 0)
(0.00492658 -0.00304768 0)
(0.00362002 -0.00146066 0)
(0.00299511 -0.000606655 0)
(0.00186382 0.000292764 0)
(0.000966569 0.000556663 0)
(-0.00154861 0.00268408 0)
(0.0182621 -0.0252973 0)
(0.0353396 -0.0224644 0)
(0.0479166 -0.0114743 0)
(0.0548907 0.00213336 0)
(0.0516845 0.0107546 0)
(0.0424339 0.0137006 0)
(0.0322414 0.012619 0)
(0.0231387 0.00977819 0)
(0.0202459 0.00630806 0)
(0.0122232 0.000975453 0)
(0.00377953 0.00109409 0)
(0.00910341 0.00080886 0)
(0.0146431 -0.00268754 0)
(0.00956754 -0.00188552 0)
(0.00541644 -0.000652178 0)
(0.00224436 0.000297874 0)
(-0.0007996 0.00101235 0)
(-0.0020344 0.00144282 0)
(-0.0068688 0.000458151 0)
(0.00938287 -0.0338358 0)
(0.021437 -0.028055 0)
(0.0305653 -0.0159986 0)
(0.044454 -0.00107673 0)
(0.0556197 0.0116138 0)
(0.0518145 0.0180442 0)
(0.0407856 0.0168808 0)
(0.0349886 0.0132568 0)
(0.0396543 0.00647753 0)
(0.0370553 0.00578189 0)
(0.0249803 0.00345339 0)
(0.0233021 -0.000370509 0)
(0.0207783 -0.00224917 0)
(0.00873109 0.000606316 0)
(0.00259003 0.00132583 0)
(0.000857567 0.00232372 0)
(0.00116006 0.00216415 0)
(0.00640025 0.00242994 0)
(0.0131242 -0.00174386 0)
(-0.00434595 -0.0383432 0)
(0.00415988 -0.0321769 0)
(0.0104596 -0.0215821 0)
(0.0234469 -0.00847138 0)
(0.0395378 0.00631951 0)
(0.047301 0.0233943 0)
(0.0441089 0.0198673 0)
(0.0512798 0.0119475 0)
(0.0608734 0.00307755 0)
(0.0665482 0.00858493 0)
(0.0613193 0.00654537 0)
(0.0551618 0.00307486 0)
(0.0295887 0.00373445 0)
(-0.00730701 0.00731702 0)
(-0.0140597 0.0018306 0)
(0.0014017 -0.000378612 0)
(0.0196788 -0.00232711 0)
(0.0397385 -0.00601415 0)
(0.0702665 0.0129559 0)
(0.00252288 -0.0376242 0)
(0.000861154 -0.0328751 0)
(0.00446974 -0.0244175 0)
(0.0123627 -0.0130156 0)
(0.0208189 -0.000644262 0)
(0.0318801 0.0201909 0)
(0.0424058 0.0154528 0)
(0.0539423 0.00585709 0)
(0.0622597 -0.000185001 0)
(0.066713 0.00701877 0)
(0.0690758 0.00784737 0)
(0.0781189 0.00671523 0)
(0.0426421 0.0268162 0)
(-0.0222732 0.0195825 0)
(-0.0138102 -0.0054041 0)
(0.0068392 -0.0101198 0)
(0.0282608 -0.0134456 0)
(0.0451448 -0.0198165 0)
(0.0674743 0.0431035 0)
(0.0133076 -0.0402626 0)
(0.000152196 -0.0306833 0)
(0.00449931 -0.0274128 0)
(0.0121106 -0.0146729 0)
(0.0135228 -0.00311132 0)
(0.0220191 0.0137486 0)
(0.0374528 0.00983791 0)
(0.0488825 0.0016295 0)
(0.0523085 -0.000947438 0)
(0.0524835 0.00532555 0)
(0.0570008 0.00535811 0)
(0.0666164 0.00652188 0)
(0.040101 0.0587956 0)
(-0.0119787 0.0282065 0)
(-0.000510013 -0.0116646 0)
(0.0122099 -0.0176727 0)
(0.0272837 -0.0213842 0)
(0.033096 -0.0244673 0)
(0.0513136 0.062966 0)
(0.0166841 -0.0441008 0)
(-0.000186543 -0.0278423 0)
(0.00475916 -0.0308892 0)
(0.0135 -0.0168773 0)
(0.0131985 -0.00319051 0)
(0.0181528 0.00897172 0)
(0.030201 0.00466654 0)
(0.0371566 2.2516e-05 0)
(0.0351964 -0.000328787 0)
(0.0340865 0.00387387 0)
(0.0388507 0.00215063 0)
(0.0449477 0.00682953 0)
(0.0298747 0.0752907 0)
(0.00401932 0.0305965 0)
(0.0137602 -0.0146037 0)
(0.0164137 -0.02122 0)
(0.0211093 -0.0246089 0)
(0.0141903 -0.0243859 0)
(0.0297428 0.0770059 0)
(-0.0106048 0.0792914 0)
(-0.0143625 0.0679587 0)
(-0.018829 0.0602418 0)
(-0.0208151 0.0522568 0)
(-0.0219159 0.0436461 0)
(-0.0220672 0.0341918 0)
(-0.021425 0.0243128 0)
(-0.0203871 0.0144084 0)
(-0.0190304 0.00462043 0)
(-0.017057 -0.00475046 0)
(-0.0145255 -0.0134278 0)
(-0.0113323 -0.0207931 0)
(-0.00753642 -0.0265661 0)
(-0.00330804 -0.0306712 0)
(0.00116184 -0.0332806 0)
(0.00578507 -0.0346251 0)
(0.0104733 -0.0348424 0)
(0.0150623 -0.0340817 0)
(0.0191251 -0.0323733 0)
(0.0219714 -0.0298599 0)
(0.0227459 -0.0267341 0)
(0.0204523 -0.0218904 0)
(0.0107299 -0.0124218 0)
(-0.00229337 0.0741413 0)
(0.000103874 0.0600269 0)
(0.0013234 0.0514178 0)
(0.00384311 0.0440071 0)
(0.00670022 0.0359023 0)
(0.0102372 0.0269354 0)
(0.0141867 0.0180829 0)
(0.0177663 0.00983666 0)
(0.0207618 0.00151776 0)
(0.0234477 -0.00675258 0)
(0.0258648 -0.014443 0)
(0.028137 -0.0211853 0)
(0.0303402 -0.026602 0)
(0.0324192 -0.0304395 0)
(0.0342694 -0.0329087 0)
(0.0358966 -0.0343217 0)
(0.0372886 -0.0346131 0)
(0.0383063 -0.0337777 0)
(0.038585 -0.0313998 0)
(0.0375817 -0.027544 0)
(0.034969 -0.0221572 0)
(0.0310646 -0.014142 0)
(0.0270741 -0.00148564 0)
(0.00449783 0.0708537 0)
(0.0118523 0.0559249 0)
(0.0170227 0.0466315 0)
(0.0221992 0.039385 0)
(0.0271832 0.0310771 0)
(0.0326018 0.0215034 0)
(0.0381526 0.012846 0)
(0.0428522 0.00577247 0)
(0.0464168 -0.00166377 0)
(0.0490875 -0.00925106 0)
(0.05089 -0.0162636 0)
(0.0517924 -0.0223996 0)
(0.0519754 -0.0274458 0)
(0.0516505 -0.0308648 0)
(0.0507441 -0.0328926 0)
(0.0491846 -0.0339648 0)
(0.0469244 -0.0337742 0)
(0.0436832 -0.0321822 0)
(0.0391916 -0.0287183 0)
(0.0336188 -0.0236001 0)
(0.0271983 -0.0170859 0)
(0.0204419 -0.00876599 0)
(0.0145658 0.00262971 0)
(0.0125709 0.0577047 0)
(0.0227916 0.0493045 0)
(0.0294282 0.0409573 0)
(0.036378 0.0341067 0)
(0.0432037 0.0257634 0)
(0.0495329 0.0160838 0)
(0.0545726 0.00828298 0)
(0.0586713 0.00191022 0)
(0.0621902 -0.00456227 0)
(0.0642878 -0.0110479 0)
(0.0646687 -0.016888 0)
(0.0633023 -0.0219226 0)
(0.0605997 -0.0262622 0)
(0.0575387 -0.0294162 0)
(0.0541833 -0.0305581 0)
(0.0495084 -0.0304777 0)
(0.0430103 -0.0289211 0)
(0.0351429 -0.0260113 0)
(0.0266704 -0.0213906 0)
(0.0180556 -0.0157993 0)
(0.00974752 -0.0093678 0)
(0.00250315 -0.00209907 0)
(-0.00316238 0.00774579 0)
(0.00808012 0.0408651 0)
(0.0232697 0.0379722 0)
(0.0355253 0.0315225 0)
(0.0465634 0.0254066 0)
(0.0562361 0.0180071 0)
(0.0629291 0.0100337 0)
(0.066697 0.00445976 0)
(0.0695059 -0.00190398 0)
(0.0721154 -0.00738174 0)
(0.0731202 -0.0117882 0)
(0.0717558 -0.0155056 0)
(0.0682945 -0.0184842 0)
(0.0631752 -0.021635 0)
(0.0575651 -0.0249613 0)
(0.0516247 -0.0250813 0)
(0.0441597 -0.0228697 0)
(0.0348327 -0.0195146 0)
(0.0251319 -0.0165215 0)
(0.0158987 -0.0120368 0)
(0.00686055 -0.00680807 0)
(-0.00189795 -0.00121104 0)
(-0.00984062 0.00461781 0)
(-0.0159765 0.0118294 0)
(0.0072653 0.0252315 0)
(0.0224041 0.019946 0)
(0.0385991 0.0167513 0)
(0.0519839 0.0129949 0)
(0.0621088 0.00858254 0)
(0.0686839 0.0046114 0)
(0.0729381 0.00120018 0)
(0.0757873 -0.00449575 0)
(0.0772183 -0.00881426 0)
(0.0771618 -0.0110016 0)
(0.0754272 -0.0125468 0)
(0.0721486 -0.013738 0)
(0.0673546 -0.0153794 0)
(0.0604788 -0.0173417 0)
(0.0517704 -0.0165068 0)
(0.042306 -0.0131256 0)
(0.0324265 -0.00904913 0)
(0.0218402 -0.00590448 0)
(0.0107051 -0.00185979 0)
(-0.000129195 0.00295862 0)
(-0.00998775 0.00758255 0)
(-0.0182511 0.0119182 0)
(-0.0241616 0.0162352 0)
(0.0171879 0.0078386 0)
(0.0308068 0.00198397 0)
(0.0445995 0.00178831 0)
(0.0564613 0.00123828 0)
(0.0657066 0.000160218 0)
(0.0725036 -0.000752262 0)
(0.0775773 -0.00294625 0)
(0.0807748 -0.0064602 0)
(0.081868 -0.00909624 0)
(0.0811948 -0.00978013 0)
(0.0789234 -0.00983753 0)
(0.0751529 -0.00966702 0)
(0.0696474 -0.009455 0)
(0.0619501 -0.00891487 0)
(0.0522438 -0.00659099 0)
(0.0415224 -0.00261916 0)
(0.0303047 0.00188006 0)
(0.0183816 0.00609811 0)
(0.00600678 0.0104346 0)
(-0.00590731 0.0145133 0)
(-0.0164102 0.0177235 0)
(-0.0248154 0.0199982 0)
(-0.0307083 0.0216148 0)
(0.0167443 -0.0101904 0)
(0.0330143 -0.00952423 0)
(0.0473736 -0.00803431 0)
(0.0593484 -0.0068741 0)
(0.0687062 -0.00590838 0)
(0.0759399 -0.00542831 0)
(0.0813793 -0.0062856 0)
(0.0845952 -0.00778759 0)
(0.0853446 -0.00886817 0)
(0.0840997 -0.00847953 0)
(0.0813629 -0.00752802 0)
(0.077057 -0.00620455 0)
(0.0708603 -0.00455362 0)
(0.0623536 -0.00231348 0)
(0.0516626 0.0010947 0)
(0.0396101 0.00552111 0)
(0.0269011 0.0102556 0)
(0.0137996 0.0148504 0)
(0.000703219 0.0191047 0)
(-0.0114739 0.022358 0)
(-0.021838 0.0241965 0)
(-0.0301095 0.0248744 0)
(-0.0359688 0.0251207 0)
(0.0171498 -0.0314452 0)
(0.0318109 -0.0242845 0)
(0.0488092 -0.0184666 0)
(0.0621686 -0.0147403 0)
(0.0722911 -0.0119519 0)
(0.0802153 -0.010195 0)
(0.0864702 -0.0094517 0)
(0.0900848 -0.00905028 0)
(0.0902992 -0.00843877 0)
(0.0876682 -0.00676062 0)
(0.0834602 -0.00473558 0)
(0.0778786 -0.00234304 0)
(0.070235 0.000582378 0)
(0.0598427 0.00394331 0)
(0.0469739 0.00810923 0)
(0.0329959 0.0126797 0)
(0.0189098 0.0178738 0)
(0.00526833 0.0228876 0)
(-0.0071546 0.027072 0)
(-0.0178287 0.0294415 0)
(-0.0265942 0.0297835 0)
(-0.0333058 0.0286934 0)
(-0.0376131 0.0263528 0)
(0.0396105 -0.0556864 0)
(0.0265658 -0.0336847 0)
(0.0447443 -0.0254312 0)
(0.0577703 -0.0210817 0)
(0.0681148 -0.0170368 0)
(0.076167 -0.0146265 0)
(0.0815306 -0.0128384 0)
(0.0840761 -0.00998844 0)
(0.0834926 -0.00615812 0)
(0.0800501 -0.00174152 0)
(0.0744607 0.00275151 0)
(0.0667539 0.00858401 0)
(0.0570311 0.0159525 0)
(0.0459212 0.0247161 0)
(0.0345514 0.0323999 0)
(0.0235154 0.0374089 0)
(0.0127986 0.0404321 0)
(0.0025125 0.0414337 0)
(-0.0070876 0.0407535 0)
(-0.0156539 0.0384584 0)
(-0.0231186 0.0347674 0)
(-0.030134 0.0304114 0)
(-0.0350565 0.0274784 0)
(-0.0129285 -0.106172 0)
(-0.00831906 -0.0795817 0)
(-0.00296259 -0.0757092 0)
(-0.000555591 -0.0608261 0)
(0.00173347 -0.0464995 0)
(0.00557471 -0.0368415 0)
(0.0117025 -0.0284546 0)
(0.0195136 -0.0183043 0)
(0.0262064 -0.0062594 0)
(0.0290442 0.0046804 0)
(0.0279727 0.0136386 0)
(0.0245344 0.0225102 0)
(0.019775 0.0317828 0)
(0.014533 0.0406576 0)
(0.00953528 0.0484206 0)
(0.00527452 0.0548115 0)
(0.00190107 0.0607764 0)
(-0.000794058 0.065491 0)
(-0.00318029 0.0677981 0)
(-0.00567243 0.067214 0)
(-0.00864304 0.0636972 0)
(-0.0129171 0.0572826 0)
(-0.0184436 0.0482348 0)
(-0.0165282 -0.0523221 0)
(-0.023581 -0.0485266 0)
(-0.0271169 -0.046188 0)
(-0.0302396 -0.0392767 0)
(-0.0318118 -0.0329522 0)
(-0.0307345 -0.030102 0)
(-0.0261914 -0.0293201 0)
(-0.0192581 -0.0242876 0)
(-0.0125074 -0.013664 0)
(-0.00804226 -0.00073141 0)
(-0.00637094 0.00917976 0)
(-0.00609415 0.0181269 0)
(-0.00630988 0.0266339 0)
(-0.00659964 0.0343033 0)
(-0.00677867 0.0403963 0)
(-0.00685034 0.0450804 0)
(-0.00671211 0.048775 0)
(-0.00615464 0.051621 0)
(-0.00524023 0.0531977 0)
(-0.00427864 0.0529638 0)
(-0.00345881 0.0508639 0)
(-0.00354169 0.0470703 0)
(-0.00688136 0.040478 0)
(-0.0158076 -0.0397936 0)
(-0.0256999 -0.0411826 0)
(-0.0335644 -0.039781 0)
(-0.0399324 -0.0344728 0)
(-0.0442802 -0.0304542 0)
(-0.0460137 -0.0307904 0)
(-0.0447403 -0.0331758 0)
(-0.0417997 -0.0294025 0)
(-0.0379318 -0.0188915 0)
(-0.0345039 -0.00395818 0)
(-0.0319104 0.00722196 0)
(-0.0296009 0.0164164 0)
(-0.0272462 0.0247743 0)
(-0.0246064 0.0321388 0)
(-0.0218372 0.0381326 0)
(-0.0191148 0.0426377 0)
(-0.0164282 0.0459196 0)
(-0.0136091 0.0481045 0)
(-0.0105649 0.0490911 0)
(-0.00742702 0.0487102 0)
(-0.00436047 0.0469383 0)
(-0.0021676 0.0438637 0)
(-0.00290435 0.0390395 0)
(-0.0155178 -0.0207597 0)
(-0.025359 -0.0303758 0)
(-0.0344489 -0.0323372 0)
(-0.0415969 -0.0291932 0)
(-0.046868 -0.0269281 0)
(-0.0503447 -0.0295105 0)
(-0.0526719 -0.0334328 0)
(-0.0536735 -0.0309571 0)
(-0.0534589 -0.0212467 0)
(-0.0521784 -0.00631751 0)
(-0.0495454 0.0047299 0)
(-0.0466077 0.0137857 0)
(-0.0430928 0.0217801 0)
(-0.0391846 0.0288049 0)
(-0.0349733 0.0345565 0)
(-0.0306433 0.0389621 0)
(-0.0262736 0.0421531 0)
(-0.0218222 0.0442258 0)
(-0.0172647 0.0451453 0)
(-0.0127112 0.044822 0)
(-0.00818003 0.0432477 0)
(-0.00462379 0.0406435 0)
(-0.00377689 0.0370732 0)
(-0.0120726 -0.00331318 0)
(-0.0223898 -0.0190543 0)
(-0.0323124 -0.0239194 0)
(-0.0401011 -0.0229342 0)
(-0.045751 -0.0224765 0)
(-0.0502267 -0.0258487 0)
(-0.0547427 -0.0300588 0)
(-0.0591278 -0.0289477 0)
(-0.0620005 -0.0205475 0)
(-0.0623809 -0.008024 0)
(-0.0604464 0.00187604 0)
(-0.0572828 0.0102603 0)
(-0.0535844 0.0177349 0)
(-0.0492604 0.0244023 0)
(-0.0445005 0.0299508 0)
(-0.0394552 0.0343103 0)
(-0.0342451 0.0375208 0)
(-0.0289203 0.0396087 0)
(-0.0235251 0.0405583 0)
(-0.0181755 0.0403466 0)
(-0.0128831 0.0390318 0)
(-0.00857547 0.0368366 0)
(-0.00688081 0.0339785 0)
(-0.00817633 0.0102299 0)
(-0.0186607 -0.00709421 0)
(-0.0292712 -0.0143491 0)
(-0.0377559 -0.0157165 0)
(-0.0438235 -0.0173709 0)
(-0.0487778 -0.020947 0)
(-0.0543026 -0.0244812 0)
(-0.0601604 -0.0241263 0)
(-0.0647078 -0.0177216 0)
(-0.0661371 -0.00867831 0)
(-0.064956 -0.00034772 0)
(-0.0625589 0.00697277 0)
(-0.0591791 0.0137132 0)
(-0.0550674 0.0197714 0)
(-0.0503414 0.0248694 0)
(-0.0451887 0.0289476 0)
(-0.0397548 0.0319904 0)
(-0.0341335 0.0339899 0)
(-0.0284207 0.0349331 0)
(-0.0227571 0.0348331 0)
(-0.0171281 0.0337778 0)
(-0.0124802 0.0320085 0)
(-0.010322 0.0296373 0)
(-0.00638679 0.0210758 0)
(-0.0159322 0.00452754 0)
(-0.0262186 -0.00424899 0)
(-0.0346328 -0.00820854 0)
(-0.0410014 -0.0117096 0)
(-0.0465071 -0.0155615 0)
(-0.0522774 -0.0184576 0)
(-0.0581796 -0.0183334 0)
(-0.0627409 -0.0144435 0)
(-0.0648938 -0.00811252 0)
(-0.0648715 -0.0017175 0)
(-0.0633008 0.00444487 0)
(-0.0606341 0.0102245 0)
(-0.057053 0.0154889 0)
(-0.0527385 0.0199953 0)
(-0.0478836 0.023653 0)
(-0.0426451 0.0264168 0)
(-0.0371426 0.028253 0)
(-0.0315002 0.0291473 0)
(-0.0258711 0.0291249 0)
(-0.0202547 0.0282833 0)
(-0.0155393 0.0268543 0)
(-0.0132097 0.0247926 0)
(-0.00590619 0.0305561 0)
(-0.0140761 0.0148051 0)
(-0.0229686 0.00522234 0)
(-0.0307134 -0.00085879 0)
(-0.0371289 -0.00569398 0)
(-0.0428853 -0.00983602 0)
(-0.0485672 -0.0126586 0)
(-0.0540005 -0.0131318 0)
(-0.0583488 -0.0108796 0)
(-0.0608627 -0.00684077 0)
(-0.0615414 -0.00209929 0)
(-0.0607729 0.0027289 0)
(-0.0588316 0.00743564 0)
(-0.0559142 0.0118084 0)
(-0.0521975 0.0156262 0)
(-0.0478671 0.0187731 0)
(-0.0430782 0.0211769 0)
(-0.0379621 0.0227877 0)
(-0.0326556 0.0235842 0)
(-0.0273244 0.0235905 0)
(-0.021942 0.0229022 0)
(-0.0174147 0.0217214 0)
(-0.0151818 0.0198676 0)
(-0.0051054 0.039034 0)
(-0.011992 0.0235141 0)
(-0.0194784 0.0132805 0)
(-0.02636 0.00602045 0)
(-0.0324743 0.00033795 0)
(-0.0380963 -0.00416856 0)
(-0.043463 -0.00722048 0)
(-0.0484169 -0.0083508 0)
(-0.0524241 -0.0074675 0)
(-0.0550281 -0.00505206 0)
(-0.0561606 -0.00183938 0)
(-0.0559835 0.00171616 0)
(-0.0546812 0.0053367 0)
(-0.052414 0.00879688 0)
(-0.0493403 0.0118838 0)
(-0.0456234 0.014468 0)
(-0.0414107 0.0164591 0)
(-0.0368313 0.0177958 0)
(-0.0320226 0.0184492 0)
(-0.027144 0.0184354 0)
(-0.0221885 0.0178378 0)
(-0.0180019 0.0168455 0)
(-0.0160476 0.0151415 0)
(-0.00391728 0.0461 0)
(-0.00959738 0.0307136 0)
(-0.0158119 0.0201173 0)
(-0.0217809 0.0122205 0)
(-0.0273405 0.00601965 0)
(-0.0325508 0.00117594 0)
(-0.0374698 -0.00224222 0)
(-0.0419263 -0.00403359 0)
(-0.0455798 -0.00421084 0)
(-0.0481337 -0.00310262 0)
(-0.0494979 -0.00116224 0)
(-0.0497289 0.0012389 0)
(-0.0489403 0.00384171 0)
(-0.0472484 0.00642161 0)
(-0.0447837 0.00878336 0)
(-0.0416864 0.0107909 0)
(-0.0380877 0.0123461 0)
(-0.0341062 0.0133801 0)
(-0.0298735 0.013857 0)
(-0.0255498 0.0137833 0)
(-0.0210916 0.0132361 0)
(-0.0173862 0.0123761 0)
(-0.015845 0.0108081 0)
(-0.00256156 0.0514744 0)
(-0.00710065 0.036494 0)
(-0.0121315 0.0258235 0)
(-0.0171729 0.0176458 0)
(-0.022045 0.0111334 0)
(-0.0266851 0.00600124 0)
(-0.0310533 0.00222346 0)
(-0.0349998 -0.000159223 0)
(-0.0382836 -0.00120195 0)
(-0.0406946 -0.00112669 0)
(-0.0421408 -0.000246598 0)
(-0.0426322 0.00115154 0)
(-0.0422302 0.00283723 0)
(-0.0410154 0.00460594 0)
(-0.0390902 0.00628096 0)
(-0.0365694 0.00772971 0)
(-0.0335658 0.00885156 0)
(-0.0301853 0.00957446 0)
(-0.0265482 0.00985677 0)
(-0.0227945 0.00969926 0)
(-0.0189106 0.00916567 0)
(-0.0157115 0.00841551 0)
(-0.0146239 0.00696361 0)
(-0.00127774 0.0551084 0)
(-0.00473122 0.0409342 0)
(-0.00864856 0.030458 0)
(-0.0127601 0.0222345 0)
(-0.0168729 0.0155733 0)
(-0.020861 0.0102267 0)
(-0.0246312 0.00612726 0)
(-0.0280464 0.00325123 0)
(-0.0309309 0.00152139 0)
(-0.0331297 0.000771474 0)
(-0.034554 0.000779862 0)
(-0.0351872 0.00132574 0)
(-0.0350568 0.00221084 0)
(-0.034217 0.00325557 0)
(-0.032745 0.00430473 0)
(-0.0307321 0.00523343 0)
(-0.0282725 0.00594376 0)
(-0.0254561 0.00636319 0)
(-0.0223895 0.00644725 0)
(-0.0192124 0.00619115 0)
(-0.015866 0.00565424 0)
(-0.0132121 0.00498443 0)
(-0.0126116 0.0036453 0)
(-0.000260448 0.0571776 0)
(-0.0026838 0.0441308 0)
(-0.0055527 0.0340615 0)
(-0.00874671 0.0259646 0)
(-0.0120668 0.0192812 0)
(-0.0153595 0.0138038 0)
(-0.0185076 0.00945455 0)
(-0.0213832 0.00618419 0)
(-0.0238477 0.00391376 0)
(-0.0257796 0.00251349 0)
(-0.0271 0.00181786 0)
(-0.027778 0.00165414 0)
(-0.0278194 0.00185726 0)
(-0.0272579 0.00227437 0)
(-0.0261495 0.00277019 0)
(-0.0245652 0.00323099 0)
(-0.0225806 0.0035646 0)
(-0.0202711 0.00370028 0)
(-0.0177293 0.00359331 0)
(-0.0150709 0.00323448 0)
(-0.0122723 0.00267986 0)
(-0.0101054 0.00208069 0)
(-0.009933 0.000836078 0)
(0.00039659 0.0579721 0)
(-0.00107455 0.0462352 0)
(-0.00296379 0.0366897 0)
(-0.00527499 0.0288364 0)
(-0.00779847 0.0222322 0)
(-0.0103792 0.016708 0)
(-0.0128944 0.0121912 0)
(-0.0152256 0.00862809 0)
(-0.017256 0.00594631 0)
(-0.0188851 0.00404222 0)
(-0.0200417 0.00278806 0)
(-0.0206887 0.00204711 0)
(-0.0208188 0.00168417 0)
(-0.0204498 0.00157104 0)
(-0.0196207 0.00159139 0)
(-0.0183845 0.00164392 0)
(-0.0168012 0.00164377 0)
(-0.0149298 0.00152433 0)
(-0.0128499 0.00124142 0)
(-0.0106762 0.000784717 0)
(-0.00833423 0.000212943 0)
(-0.00665096 -0.000326769 0)
(-0.00687483 -0.00150028 0)
(0.000767829 0.0578785 0)
(0.000103711 0.047381 0)
(-0.000933835 0.0384079 0)
(-0.00240886 0.0308722 0)
(-0.00415487 0.0244265 0)
(-0.00603083 0.0189345 0)
(-0.00791822 0.0143342 0)
(-0.00970821 0.0105761 0)
(-0.011299 0.00759804 0)
(-0.0126032 0.00531681 0)
(-0.0135556 0.00363189 0)
(-0.0141162 0.00243438 0)
(-0.0142693 0.0016142 0)
(-0.0140211 0.00106507 0)
(-0.0133965 0.000688547 0)
(-0.0124342 0.000395339 0)
(-0.0111789 0.000108795 0)
(-0.00967708 -0.000232536 0)
(-0.00799573 -0.00067057 0)
(-0.00622058 -0.00121422 0)
(-0.00431755 -0.00180177 0)
(-0.00304446 -0.00228513 0)
(-0.00357589 -0.0034206 0)
(0.000893353 0.0572623 0)
(0.000899315 0.047708 0)
(0.000592496 0.0392937 0)
(-0.000123054 0.0321204 0)
(-0.00113929 0.0258929 0)
(-0.00234204 0.0205015 0)
(-0.00362543 0.0158958 0)
(-0.00489151 0.0120331 0)
(-0.0060498 0.00886141 0)
(-0.00702211 0.00631382 0)
(-0.00774754 0.00431035 0)
(-0.0081848 0.00276414 0)
(-0.00831254 0.00158619 0)
(-0.00812804 0.00068934 0)
(-0.0076459 -8.52402e-06 0)
(-0.00689177 -0.000585836 0)
(-0.00589814 -0.00111084 0)
(-0.00469843 -0.00163924 0)
(-0.00334714 -0.00220992 0)
(-0.00192622 -0.00282991 0)
(-0.000352055 -0.00344475 0)
(0.000509473 -0.00390519 0)
(-0.000324287 -0.00492128 0)
(0.000883637 0.056331 0)
(0.00142461 0.0474085 0)
(0.00172209 0.0394652 0)
(0.00166961 0.0326465 0)
(0.00131233 0.0266756 0)
(0.000727486 0.0214454 0)
(3.38179e-06 0.0169075 0)
(-0.000773628 0.0130226 0)
(-0.00152232 0.00974716 0)
(-0.00217178 0.00702885 0)
(-0.0026647 0.00480397 0)
(-0.00295899 0.00300356 0)
(-0.0030294 0.00155641 0)
(-0.0028667 0.000392039 0)
(-0.00247727 -0.000557461 0)
(-0.00187638 -0.00136045 0)
(-0.00108602 -0.00207676 0)
(-0.000130927 -0.00275615 0)
(0.000946406 -0.00343413 0)
(0.00208721 -0.00411989 0)
(0.00332977 -0.0047672 0)
(0.00397192 -0.00521485 0)
(0.00299241 -0.00610068 0)
(0.000839249 0.0552144 0)
(0.0017978 0.0466185 0)
(0.00258768 0.0390422 0)
(0.00309367 0.0325544 0)
(0.00330465 0.0268548 0)
(0.00326263 0.0218242 0)
(0.00303616 0.017409 0)
(0.00269816 0.0135711 0)
(0.00232002 0.010272 0)
(0.00196737 0.00746681 0)
(0.00169562 0.00510523 0)
(0.00154714 0.00313303 0)
(0.00155019 0.00149423 0)
(0.00171874 0.000132886 0)
(0.00205296 -0.00100664 0)
(0.00254549 -0.00198334 0)
(0.00318166 -0.00284896 0)
(0.00394689 -0.00364836 0)
(0.00480777 -0.00441426 0)
(0.00569498 -0.00515162 0)
(0.00670213 -0.00580284 0)
(0.00713538 -0.00621545 0)
(0.0060124 -0.00705562 0)
(0.000831208 0.0539545 0)
(0.00212179 0.0454369 0)
(0.0033139 0.03813 0)
(0.00427949 0.0319423 0)
(0.00496124 0.0265218 0)
(0.00537123 0.0217227 0)
(0.0055609 0.0174775 0)
(0.00559257 0.0137429 0)
(0.00553047 0.0104814 0)
(0.00543556 0.00765496 0)
(0.00536089 0.00522366 0)
(0.00534867 0.00314584 0)
(0.00542875 0.00137884 0)
(0.00561813 -0.000120158 0)
(0.00592161 -0.00139617 0)
(0.00633725 -0.00249905 0)
(0.00685628 -0.00347346 0)
(0.00747011 -0.00435972 0)
(0.00815017 -0.00518544 0)
(0.0088529 -0.0059502 0)
(0.00961895 -0.00659773 0)
(0.00990533 -0.0069684 0)
(0.00872067 -0.0077852 0)
(0.000904573 0.0525271 0)
(0.00247546 0.0439247 0)
(0.00400609 0.0368178 0)
(0.00534287 0.030908 0)
(0.00639754 0.0257735 0)
(0.00716171 0.0212308 0)
(0.00767582 0.0171924 0)
(0.0079954 0.0136056 0)
(0.00818023 0.0104318 0)
(0.0082883 0.0076372 0)
(0.00837119 0.00519039 0)
(0.00847074 0.00306057 0)
(0.00861762 0.00121713 0)
(0.00883017 -0.000370861 0)
(0.00911604 -0.0017388 0)
(0.00947613 -0.00292837 0)
(0.00990524 -0.00397762 0)
(0.0104 -0.00492295 0)
(0.0109372 -0.00578545 0)
(0.0114635 -0.00656435 0)
(0.0120775 -0.00720169 0)
(0.0122035 -0.007537 0)
(0.0109412 -0.00831364 0)
(0.0010813 0.0508632 0)
(0.00291375 0.0421081 0)
(0.0047421 0.0351749 0)
(0.00637459 0.0295423 0)
(0.00770818 0.0247088 0)
(0.00872646 0.0204468 0)
(0.00946743 0.0166451 0)
(0.00998547 0.0132399 0)
(0.0103394 0.0101898 0)
(0.0105866 0.00746465 0)
(0.0107782 0.00504059 0)
(0.0109557 0.0028971 0)
(0.0111498 0.00101495 0)
(0.0113788 -0.000625366 0)
(0.0116512 -0.00205053 0)
(0.0119684 -0.00329437 0)
(0.0123274 -0.00438973 0)
(0.0127249 -0.00536829 0)
(0.0131409 -0.00624771 0)
(0.0135464 -0.00702803 0)
(0.013984 -0.0076484 0)
(0.0140155 -0.00795273 0)
(0.0127586 -0.00867485 0)
(0.00137172 0.0488694 0)
(0.00346972 0.0399862 0)
(0.00557449 0.0332528 0)
(0.00743775 0.0279273 0)
(0.00896065 0.0234245 0)
(0.0101332 0.0194712 0)
(0.0110014 0.015932 0)
(0.011625 0.0127328 0)
(0.012066 0.00983002 0)
(0.0123836 0.00719763 0)
(0.0126294 0.0048197 0)
(0.0128453 0.00268618 0)
(0.0130612 0.000789438 0)
(0.0132941 -0.000878512 0)
(0.0135512 -0.00233589 0)
(0.013832 -0.00360896 0)
(0.0141326 -0.0047266 0)
(0.01445 -0.005716 0)
(0.0147675 -0.00659457 0)
(0.0150455 -0.00736236 0)
(0.0153784 -0.00795906 0)
(0.0152969 -0.0082277 0)
(0.014038 -0.00889261 0)
(0.00177727 0.0464388 0)
(0.00416059 0.0375392 0)
(0.00653062 0.0310903 0)
(0.00856656 0.0261384 0)
(0.0101926 0.0220151 0)
(0.0114213 0.0184042 0)
(0.0123179 0.0151505 0)
(0.0129545 0.0121731 0)
(0.0134005 0.00942953 0)
(0.0137189 0.00689964 0)
(0.0139633 0.00457686 0)
(0.0141757 0.00246267 0)
(0.0143852 0.000562093 0)
(0.0146065 -0.00112055 0)
(0.014843 -0.00259446 0)
(0.0150902 -0.00387879 0)
(0.015341 -0.00499919 0)
(0.0155891 -0.0059805 0)
(0.0158183 -0.0068418 0)
(0.0160119 -0.00758287 0)
(0.0162083 -0.00814734 0)
(0.0160676 -0.00838316 0)
(0.0148748 -0.00898032 0)
(0.00230053 0.0434601 0)
(0.00499014 0.0347376 0)
(0.00761806 0.0287206 0)
(0.00976941 0.0242484 0)
(0.0114131 0.020573 0)
(0.0126018 0.0173441 0)
(0.0134313 0.0143957 0)
(0.0139928 0.0116477 0)
(0.0143658 0.00906379 0)
(0.0146187 0.00663334 0)
(0.0148077 0.00436124 0)
(0.0149756 0.00226223 0)
(0.0151506 0.00035561 0)
(0.0153439 -0.00134006 0)
(0.0155539 -0.00282384 0)
(0.0157687 -0.00410766 0)
(0.0159749 -0.00521559 0)
(0.016163 -0.00617279 0)
(0.0163195 -0.00700175 0)
(0.0164141 -0.00770568 0)
(0.016532 -0.00823459 0)
(0.0163135 -0.00843398 0)
(0.0151443 -0.00896797 0)
(0.00294417 0.0398222 0)
(0.00595062 0.031553 0)
(0.0088221 0.0261802 0)
(0.0110287 0.0223323 0)
(0.0126037 0.0191907 0)
(0.0136588 0.0163862 0)
(0.0143325 0.0137576 0)
(0.0147392 0.011237 0)
(0.0149699 0.00880242 0)
(0.0150983 0.00645681 0)
(0.0151829 0.004219 0)
(0.0152681 0.0021187 0)
(0.0153818 0.000191804 0)
(0.0155321 -0.00152624 0)
(0.0157099 -0.0030215 0)
(0.0158931 -0.00429864 0)
(0.0160598 -0.00538207 0)
(0.0161941 -0.0063014 0)
(0.0162809 -0.00708511 0)
(0.0163096 -0.00774369 0)
(0.0163152 -0.00823006 0)
(0.0160572 -0.00840433 0)
(0.0149726 -0.00886938 0)
(0.00371448 0.035423 0)
(0.00701452 0.0279717 0)
(0.0101059 0.0235159 0)
(0.0123014 0.0204714 0)
(0.0137187 0.017961 0)
(0.0145521 0.0156206 0)
(0.0149929 0.0133165 0)