/*--------------------------------*- C++ -*----------------------------------*\
  =========                 |
  \\      /  F ield         | OpenFOAM: The Open Source CFD Toolbox
   \\    /   O peration     | Website:  https://openfoam.org
    \\  /    A nd           | Version:  13
     \\/     M anipulation  |
\*---------------------------------------------------------------------------*/
FoamFile
{
    format      ascii;
    class       surfaceScalarField;
    location    "0.0005";
    object      meshPhi;
}
// * * * * * * * * * * * * * * * * * * * * * * * * * * * * * * * * * * * * * //

dimensions      [0 3 -1 0 0 0 0];

internalField   nonuniform List<scalar> 
3252
(
1.37314e-11
2.78776e-25
2.74627e-11
0
4.11939e-11
0
5.49243e-11
2.78778e-25
6.86478e-11
2.7878e-25
8.22951e-11
1.23304e-27
9.5587e-11
5.62461e-25
-3.10957e-25
4.11941e-11
3.34035e-24
8.23881e-11
0
1.23582e-10
0
1.64773e-10
1.11511e-24
2.05944e-10
1.11512e-24
2.46887e-10
4.93238e-27
2.86761e-10
0
2.49767e-24
6.86569e-11
3.34531e-24
1.37314e-10
0
2.0597e-10
-1.48874e-26
2.74622e-10
-6.67578e-24
3.4324e-10
0
4.11482e-10
-3.34551e-24
4.77935e-10
3.37364e-24
0
9.61196e-11
1.98501e-26
1.92239e-10
4.46042e-24
2.88358e-10
4.46042e-24
3.84471e-10
-8.8812e-24
4.80537e-10
4.46049e-24
5.76085e-10
0
6.69107e-10
-4.49684e-24
4.99764e-24
1.23582e-10
1.11014e-23
2.47165e-10
0
3.70746e-10
0
4.9432e-10
0
6.17834e-10
-4.95983e-26
7.40698e-10
1.11023e-23
8.60279e-10
-4.80143e-26
0
1.51045e-10
0
3.0209e-10
1.33813e-23
4.53133e-10
0
6.04169e-10
0
7.55133e-10
-1.33815e-23
9.05323e-10
0
1.05145e-09
0
-1.49462e-23
1.78508e-10
1.5542e-23
3.57015e-10
-6.94753e-26
5.35521e-10
-1.56115e-23
7.14018e-10
-1.56116e-23
8.92432e-10
-1.56118e-23
1.06996e-09
-6.91022e-26
1.24261e-09
1.56491e-23
-1.75143e-23
2.05971e-10
0
4.11941e-10
7.94003e-26
6.17909e-10
7.93996e-26
8.23867e-10
3.56042e-23
1.02973e-09
1.78421e-23
1.23462e-09
-7.89932e-26
1.43378e-09
-1.79495e-23
-1.99504e-23
2.33434e-10
0
4.66866e-10
-2.00719e-23
7.00297e-10
0
9.33717e-10
0
1.16703e-09
8.92819e-26
1.3993e-09
-3.99691e-23
1.62494e-09
0
0
2.60896e-10
0
5.21792e-10
-4.44057e-23
7.82685e-10
-8.90099e-23
1.04357e-09
-4.4406e-23
1.30434e-09
-4.46052e-23
1.56401e-09
0
1.8161e-09
4.46089e-23
-1.0009e-22
2.88359e-10
-9.79108e-23
5.76717e-10
-4.90646e-23
8.65073e-10
-4.90646e-23
1.15342e-09
0
1.44164e-09
-4.90658e-23
1.72874e-09
-2.17438e-25
2.00725e-09
0
0
3.15822e-10
5.3525e-23
6.31643e-10
0
9.47462e-10
0
1.26327e-09
0
1.57895e-09
5.32882e-23
1.89351e-09
2.37299e-25
2.19839e-09
0
6.02779e-23
3.43285e-10
1.15455e-22
6.86568e-10
5.77274e-23
1.02985e-09
0
1.37312e-09
1.15455e-22
1.71625e-09
0
2.05831e-09
5.77394e-23
2.38953e-09
-2.48916e-25
6.51147e-23
3.70747e-10
-1.24614e-22
7.41494e-10
-2.77901e-25
1.11224e-09
-6.24459e-23
1.48297e-09
-2.77887e-25
1.85356e-09
1.24061e-22
2.2231e-09
6.19039e-23
2.58058e-09
-6.21661e-23
-7.07529e-23
3.9821e-10
-6.66085e-23
7.96419e-10
2.97751e-25
1.19463e-09
2.97749e-25
1.59282e-09
2.97737e-25
1.99087e-09
0
2.38785e-09
-6.66252e-23
2.77438e-09
-6.68054e-23
0
1.41393e-09
5.14958e-27
1.361e-09
0
1.30641e-09
-3.70963e-24
1.24988e-09
0
1.19126e-09
-3.98592e-24
1.13047e-09
4.14603e-24
1.06742e-09
0
1.00203e-09
-4.45342e-24
9.3422e-10
4.62559e-24
8.63887e-10
4.79747e-24
7.90943e-10
7.18943e-27
7.1529e-10
5.15316e-24
6.36826e-10
-1.06893e-23
5.55449e-10
-1.10864e-23
4.71049e-10
-1.72559e-23
3.83513e-10
-5.96281e-24
2.92726e-10
0
1.98567e-10
0
1.00914e-10
-6.6525e-24
9.94673e-27
3.85085e-09
-1.31871e-23
3.7067e-09
2.76047e-23
3.55803e-09
-1.43167e-23
3.40406e-09
1.48956e-23
3.24442e-09
0
3.07886e-09
2.31225e-26
2.90716e-09
2.39808e-26
2.72908e-09
2.48711e-26
2.54438e-09
2.57944e-26
2.35284e-09
1.85148e-23
2.15417e-09
-1.9175e-23
1.94814e-09
1.9945e-23
1.73444e-09
2.98448e-26
1.51281e-09
-2.13619e-23
1.28295e-09
0
1.04455e-09
3.32957e-26
7.97297e-10
7.17051e-23
5.40857e-10
4.95796e-23
2.74901e-10
-2.56367e-23
3.83991e-26
5.77192e-09
5.7542e-26
5.55588e-09
4.00288e-23
5.33306e-09
-4.13979e-23
5.10229e-09
-4.30095e-23
4.86302e-09
4.46737e-23
4.61487e-09
4.63339e-23
4.35751e-09
-4.79861e-23
4.0906e-09
-4.97692e-23
3.81378e-09
5.16932e-23
3.52668e-09
0
3.22891e-09
8.03427e-26
2.92009e-09
5.76723e-23
2.5998e-09
-5.97287e-23
2.26761e-09
6.20377e-23
1.92308e-09
6.43428e-23
1.56576e-09
-6.65407e-23
1.19516e-09
6.92131e-23
8.10794e-10
1.03711e-25
4.12163e-10
7.44522e-23
7.72535e-23
7.26016e-09
-4.91626e-23
6.98847e-09
7.50327e-26
6.70823e-09
7.73978e-26
6.41797e-09
8.0167e-26
6.11701e-09
-5.74373e-23
5.80489e-09
8.62079e-26
5.48118e-09
-6.17853e-23
5.14545e-09
6.42666e-23
4.79725e-09
1.33117e-22
4.43613e-09
-1.37864e-22
4.06159e-09
0
3.67315e-09
0
3.27028e-09
1.11272e-25
2.85244e-09
1.15406e-25
2.41908e-09
8.28455e-23
1.96963e-09
-1.71723e-22
1.50347e-09
-1.77975e-22
1.02e-09
-9.2294e-23
5.18589e-10
1.3849e-25
-9.91778e-23
8.38645e-09
0
8.07269e-09
-6.20704e-23
7.74901e-09
1.29119e-22
7.41374e-09
-6.68759e-23
7.0661e-09
2.08189e-22
6.70556e-09
7.19404e-23
6.33163e-09
7.46136e-23
5.94382e-09
-2.3227e-22
5.54161e-09
8.03777e-23
5.12447e-09
0
4.69184e-09
0
4.24314e-09
8.95449e-23
3.77777e-09
-9.2872e-23
3.29512e-09
-9.64621e-23
2.79453e-09
1.99948e-22
2.27535e-09
0
1.73688e-09
0
1.17841e-09
0
5.99209e-10
-1.67244e-25
0
9.21117e-09
6.89513e-23
8.86665e-09
-7.2104e-23
8.5112e-09
1.49761e-22
8.14297e-09
0
7.76114e-09
0
7.36515e-09
0
6.95446e-09
-8.65392e-23
6.52851e-09
0
6.08675e-09
-9.32245e-23
5.62859e-09
1.39699e-25
5.15342e-09
0
4.66059e-09
-1.03857e-22
4.14946e-09
0
3.61934e-09
0
3.06953e-09
1.16037e-22
2.49929e-09
-2.40523e-22
1.90787e-09
1.2464e-22
1.29448e-09
3.88186e-22
6.58313e-10
0
1.39101e-22
9.78572e-09
0
9.41983e-09
0
9.04226e-09
-1.68707e-22
8.65108e-09
-1.75005e-22
8.24544e-09
0
7.82475e-09
0
7.38844e-09
0
6.93593e-09
0
6.46662e-09
2.10335e-22
5.97988e-09
0
5.47506e-09
0
4.9515e-09
0
4.40848e-09
-2.4303e-22
3.8453e-09
-2.5206e-22
3.26119e-09
2.61804e-22
2.65538e-09
2.71532e-22
2.02707e-09
2.81621e-22
1.37541e-09
2.91662e-22
6.99555e-10
3.02937e-22
-3.14284e-22
1.01538e-08
-3.43651e-22
9.77428e-09
0
9.38257e-09
1.86523e-22
8.97669e-09
0
8.5558e-09
2.00964e-22
8.11928e-09
0
7.66656e-09
0
7.19703e-09
-2.23885e-22
6.71006e-09
0
6.20501e-09
2.41181e-22
5.68121e-09
3.61402e-25
5.13795e-09
0
4.57451e-09
0
3.99013e-09
-5.57744e-22
3.38405e-09
2.89443e-22
2.75545e-09
-3.00197e-22
2.1035e-09
0
1.42733e-09
-3.2292e-22
7.26041e-10
-3.34434e-22
-3.47451e-22
1.03525e-08
-1.87196e-22
9.96568e-09
-1.95613e-22
9.56636e-09
-2.03087e-22
9.15255e-09
-2.10658e-22
8.72343e-09
-2.18488e-22
8.27837e-09
-3.27907e-25
7.81679e-09
0
7.33807e-09
0
6.84157e-09
0
6.32664e-09
0
5.79259e-09
3.93483e-25
5.23869e-09
0
4.66422e-09
2.92962e-22
4.06841e-09
3.03847e-22
3.45046e-09
0
2.80956e-09
4.72207e-25
2.14484e-09
4.89751e-25
1.45543e-09
0
7.40413e-10
-3.64122e-22
3.78283e-22
1.04132e-08
-2.00752e-22
1.00242e-08
3.06396e-25
9.62265e-09
3.16433e-25
9.20643e-09
3.27977e-25
8.77479e-09
0
8.32712e-09
2.44135e-22
7.86283e-09
-5.06047e-22
7.3813e-09
2.62994e-22
6.8819e-09
2.72373e-22
6.36394e-09
-2.82085e-22
5.82675e-09
2.9299e-22
5.2696e-09
3.03876e-22
4.69176e-09
3.15167e-22
4.09245e-09
4.72256e-25
3.47087e-09
6.77555e-22
2.82621e-09
3.51619e-22
2.15759e-09
3.64683e-22
1.46413e-09
-3.7714e-22
7.44906e-10
-3.9172e-22
4.06943e-22
1.03624e-08
-2.13872e-22
9.97554e-09
4.49227e-22
9.57596e-09
4.6628e-22
9.16178e-09
0
8.73224e-09
3.62405e-25
8.28675e-09
-2.5975e-22
7.82473e-09
-2.69011e-22
7.34554e-09
2.79816e-22
6.84856e-09
-2.89793e-22
6.33313e-09
4.3488e-25
5.79855e-09
4.51031e-25
5.24411e-09
-3.22843e-22
4.66908e-09
6.71618e-22
4.07268e-09
1.00638e-24
3.45413e-09
3.61749e-22
2.8126e-09
5.41272e-25
2.14723e-09
1.12276e-24
1.45714e-09
5.82239e-25
7.41414e-10
0
6.25595e-25
1.02226e-08
-3.42184e-25
9.8411e-09
0
9.44697e-09
3.56312e-25
9.03839e-09
2.5527e-22
8.61465e-09
-2.65139e-22
8.17517e-09
0
7.71937e-09
-4.12096e-25
7.24664e-09
2.95378e-22
6.75637e-09
-3.06797e-22
6.24788e-09
0
5.72051e-09
-3.29543e-22
5.17355e-09
0
4.60627e-09
-3.55512e-22
4.01791e-09
3.67657e-22
3.40769e-09
0
2.77481e-09
-3.96631e-22
2.11841e-09
-4.10181e-22
1.43762e-09
1.27688e-21
7.31537e-10
-8.83731e-22
-6.61446e-25
1.00126e-08
2.38109e-22
9.63908e-09
3.61997e-25
9.2531e-09
0
8.85292e-09
2.68487e-22
8.43788e-09
-8.34988e-22
8.00743e-09
-5.77203e-22
7.56099e-09
-2.99108e-22
7.09797e-09
8.97755e-25
6.61776e-09
3.21749e-22
6.11971e-09
-3.33704e-22
5.60317e-09
3.46604e-22
5.06744e-09
-3.58443e-22
4.5118e-09
3.71762e-22
3.93553e-09
5.58677e-25
3.33784e-09
8.0154e-22
2.71795e-09
4.15961e-22
2.07502e-09
0
1.40821e-09
-8.94245e-22
7.1662e-10
-9.27471e-22
-4.80682e-22
9.74815e-09
4.9733e-22
9.38468e-09
0
9.00895e-09
2.69602e-22
8.61934e-09
2.80026e-22
8.21526e-09
5.8128e-22
7.79617e-09
3.02093e-22
7.36151e-09
3.12865e-22
6.91072e-09
-3.23552e-22
6.44318e-09
-3.36061e-22
5.95828e-09
5.04314e-25
5.45537e-09
-3.61498e-22
4.93378e-09
3.7493e-22
4.39281e-09
0
3.83174e-09
1.21168e-21
3.24983e-09
8.37193e-22
2.6463e-09
-4.34464e-22
2.02035e-09
-4.49955e-22
1.37113e-09
4.67349e-22
6.97795e-10
7.00299e-25
7.25775e-25
9.44256e-09
-2.58083e-22
9.09064e-09
0
8.72674e-09
2.81501e-22
8.34934e-09
4.21236e-25
7.95792e-09
-3.01928e-22
7.55197e-09
3.14506e-22
7.13093e-09
4.69954e-25
6.69426e-09
3.37337e-22
6.24137e-09
-3.4886e-22
5.77167e-09
0
5.28452e-09
-3.7581e-22
4.77927e-09
-7.78983e-22
4.25525e-09
0
3.71176e-09
6.06633e-25
3.14808e-09
4.35484e-22
2.56346e-09
4.52317e-22
1.95712e-09
6.76792e-25
1.32825e-09
7.01938e-25
6.76007e-10
7.28028e-25
7.54591e-25
9.10681e-09
2.67586e-22
8.76755e-09
-5.59944e-22
8.41663e-09
-2.90632e-22
8.05266e-09
4.3614e-25
7.67515e-09
3.1307e-22
7.28362e-09
6.49404e-22
6.87755e-09
3.36766e-22
6.4564e-09
3.48775e-22
6.01961e-09
3.62781e-22
5.5666e-09
-3.75175e-22
5.09676e-09
-5.63005e-25
4.60947e-09
5.83919e-25
4.10408e-09
-8.37741e-22
3.57991e-09
0
3.03626e-09
-4.5025e-22
2.47242e-09
-4.67654e-22
1.88763e-09
-9.6936e-22
1.28111e-09
-5.02325e-22
6.52046e-10
-5.20988e-22
0
8.75005e-09
2.76052e-22
8.42421e-09
-5.78248e-22
8.08708e-09
6.00619e-22
7.73737e-09
6.22454e-22
7.37465e-09
4.66741e-25
6.99845e-09
4.84083e-25
6.60828e-09
-3.46969e-22
6.20363e-09
5.20708e-25
5.78394e-09
0
5.34867e-09
-3.871e-22
4.89723e-09
-4.01483e-22
4.42902e-09
-4.15798e-22
3.94342e-09
0
3.43978e-09
4.48567e-22
2.91742e-09
-4.63889e-22
2.37566e-09
-9.64342e-22
1.81377e-09
5.01171e-22
1.231e-09
-5.18292e-22
6.26567e-10
-5.36771e-22
1.11674e-21
8.3798e-09
4.29747e-25
8.06789e-09
4.31003e-25
7.74506e-09
-3.0847e-22
7.41014e-09
3.20372e-22
7.06277e-09
3.32272e-22
6.70248e-09
-3.4412e-22
6.32882e-09
1.07123e-21
5.94127e-09
0
5.53934e-09
0
5.12248e-09
3.98763e-22
4.69014e-09
-4.12982e-22
4.24173e-09
0
3.77667e-09
8.89767e-22
3.29433e-09
-4.6008e-22
2.79407e-09
9.57115e-22
2.27522e-09
7.17097e-25
1.7371e-09
-1.02882e-21
1.17898e-09
1.06859e-21
6.00112e-10
-1.10589e-21
5.75185e-22
8.00226e-09
-5.81571e-22
7.70453e-09
8.83933e-25
7.39628e-09
0
7.07645e-09
-6.5638e-22
6.74472e-09
0
6.40066e-09
0
6.04383e-09
1.05962e-24
5.67374e-09
1.52009e-21
5.28991e-09
-7.87717e-22
4.89182e-09
-8.16985e-22
4.47895e-09
8.48567e-22
4.05074e-09
0
3.60662e-09
-9.11478e-22
3.146e-09
0
2.66827e-09
-9.80469e-22
2.17279e-09
0
1.6589e-09
1.05621e-21
1.12592e-09
-1.09387e-21
5.73124e-10
0
1.17843e-21
7.62222e-09
0
7.33902e-09
0
7.04543e-09
-6.47774e-22
6.74078e-09
-6.71776e-22
6.42479e-09
1.00818e-24
6.09705e-09
0
5.75715e-09
7.50546e-22
5.40461e-09
7.78434e-22
5.03899e-09
-8.06192e-22
4.65979e-09
0
4.26651e-09
0
3.85861e-09
0
3.43556e-09
0
2.9968e-09
-9.67516e-22
2.54173e-09
0
2.06976e-09
-1.04075e-21
1.58025e-09
-1.08098e-21
1.07256e-09
1.12115e-21
5.45984e-10
0
1.74207e-24
1.03596e-09
-3.44069e-25
2.07191e-09
2.30565e-22
3.10786e-09
-7.76581e-23
4.14377e-09
-1.54285e-22
5.17937e-09
-7.73177e-23
6.21239e-09
-7.7678e-23
7.23117e-09
1.54237e-22
-2.43042e-25
8.09503e-09
1.18548e-09
0
2.37095e-09
0
3.55642e-09
1.74662e-22
4.74185e-09
0
5.92699e-09
-1.75451e-22
7.10967e-09
0
8.28326e-09
1.75785e-22
1.60382e-22
9.11192e-09
1.335e-09
0
2.66999e-09
-1.96258e-22
4.00498e-09
-8.734e-25
5.33993e-09
-1.9626e-22
6.67463e-09
1.95393e-22
8.00733e-09
-1.96288e-22
9.3265e-09
1.95079e-22
-1.78609e-22
1.02453e-08
1.48452e-09
-2.17074e-22
2.96903e-09
-2.17074e-22
4.45353e-09
-2.17074e-22
5.93801e-09
4.32218e-22
7.42231e-09
-9.65929e-25
8.90524e-09
-9.65312e-25
1.0366e-08
0
0
1.13783e-08
1.63404e-09
-2.3683e-22
3.26807e-09
0
4.90209e-09
0
6.5361e-09
0
8.16999e-09
0
9.80321e-09
-2.37893e-22
1.14068e-08
0
0
1.25139e-08
1.78355e-09
-1.15131e-24
3.56711e-09
-2.57553e-22
5.35065e-09
0
7.13418e-09
0
8.91769e-09
0
1.07011e-08
-2.58692e-22
1.24494e-08
5.12627e-22
0
1.3653e-08
1.93307e-09
-2.79519e-22
3.86615e-09
-2.78275e-22
5.79921e-09
-5.57795e-22
7.73227e-09
2.78276e-22
9.66539e-09
-2.79522e-22
1.1599e-08
-2.79494e-22
1.34942e-08
-2.78675e-22
5.02035e-22
1.47962e-08
2.08259e-09
-5.97996e-22
4.16518e-09
5.99333e-22
6.24777e-09
-1.33657e-24
8.33037e-09
-3.00334e-22
1.04131e-08
-2.98998e-22
1.24968e-08
3.00298e-22
1.45414e-08
-2.98209e-22
-2.69506e-22
1.59444e-08
2.23211e-09
-1.42921e-24
4.46422e-09
-6.40871e-22
6.69633e-09
6.4087e-22
8.92846e-09
1.42922e-24
1.11608e-08
3.21146e-22
1.33945e-08
-3.21107e-22
1.55916e-08
-3.17755e-22
5.78612e-22
1.70982e-08
2.38163e-09
-1.52184e-24
4.76326e-09
3.41965e-22
7.1449e-09
1.36329e-21
9.52655e-09
6.82406e-22
1.19084e-08
3.41958e-22
1.42921e-08
1.52319e-24
1.6645e-08
-6.79171e-22
-1.03325e-24
1.82584e-08
2.53115e-09
7.22332e-22
5.0623e-09
0
7.59346e-09
-7.22331e-22
1.01246e-08
-3.229e-24
1.26561e-08
0
1.51894e-08
0
1.77018e-08
0
-6.60111e-22
1.94257e-08
2.68067e-09
7.67192e-22
5.36134e-09
7.63777e-22
8.04202e-09
0
1.07227e-08
7.67186e-22
1.34037e-08
-7.67162e-22
1.60865e-08
0
1.87624e-08
7.63387e-22
0
2.0601e-08
2.83019e-09
-8.08822e-22
5.66038e-09
8.05222e-22
8.49058e-09
-8.08821e-22
1.13208e-08
-3.59956e-24
1.41514e-08
8.05186e-22
1.69835e-08
0
1.98271e-08
-1.6176e-21
0
2.1785e-08
2.97971e-09
-3.78476e-24
5.95942e-09
8.46668e-22
8.93914e-09
-8.50451e-22
1.19189e-08
-8.54231e-22
1.4899e-08
-3.78522e-24
1.78803e-08
-3.78646e-24
2.0883e-08
-8.48825e-22
-2.68267e-24
2.29746e-08
3.12923e-09
6.25846e-09
9.3877e-09
1.2517e-08
1.56466e-08
1.87773e-08
2.19292e-08
2.45018e-08
8.33858e-09
-1.75718e-09
8.46821e-09
-1.83217e-09
8.58047e-09
-1.88247e-09
8.68456e-09
-1.93032e-09
8.78142e-09
-1.97788e-09
8.87121e-09
-2.02539e-09
8.95397e-09
-2.07289e-09
9.0297e-09
-2.12039e-09
9.0984e-09
-2.16788e-09
9.16007e-09
-2.21538e-09
9.21471e-09
-2.26288e-09
9.26233e-09
-2.31037e-09
9.30292e-09
-2.35787e-09
9.33649e-09
-2.40537e-09
9.36302e-09
-2.45286e-09
9.38253e-09
-2.50036e-09
9.39501e-09
-2.54786e-09
9.40046e-09
-2.59535e-09
9.39889e-09
-2.64285e-09
9.39028e-09
-2.69035e-09
9.37465e-09
-2.73784e-09
9.35199e-09
-2.78534e-09
9.32231e-09
-2.83284e-09
9.2856e-09
-2.88033e-09
9.24186e-09
-2.92783e-09
9.19109e-09
-2.97533e-09
9.13329e-09
-3.02282e-09
9.06847e-09
-3.07032e-09
8.99662e-09
-3.11782e-09
8.91774e-09
-3.16531e-09
8.83183e-09
-3.21281e-09
8.7389e-09
-3.26031e-09
8.63894e-09
-3.3078e-09
8.53195e-09
-3.3553e-09
8.41793e-09
-3.4028e-09
8.29689e-09
-3.45029e-09
8.16882e-09
-3.49779e-09
8.03372e-09
-3.54529e-09
7.89159e-09
-3.59278e-09
7.74244e-09
-3.64028e-09
7.58626e-09
-3.68778e-09
7.42305e-09
-3.73527e-09
7.25281e-09
-3.78277e-09
7.07555e-09
-3.83027e-09
6.89126e-09
-3.87776e-09
6.69994e-09
-3.92526e-09
6.50159e-09
-3.97276e-09
6.29621e-09
-4.02025e-09
6.08358e-09
-4.06759e-09
-4.09941e-09
5.84202e-09
9.47004e-09
-1.84425e-09
9.58526e-09
-1.91529e-09
9.66763e-09
-1.96026e-09
9.74002e-09
-2.00186e-09
9.80524e-09
-2.04293e-09
9.86379e-09
-2.08391e-09
9.91577e-09
-2.12487e-09
9.96121e-09
-2.16582e-09
1.00001e-08
-2.20678e-09
1.00325e-08
-2.24773e-09
1.00583e-08
-2.28868e-09
1.00775e-08
-2.32964e-09
1.00903e-08
-2.37059e-09
1.00964e-08
-2.41155e-09
1.00961e-08
-2.4525e-09
1.00892e-08
-2.49345e-09
1.00757e-08
-2.53441e-09
1.00557e-08
-2.57536e-09
1.00292e-08
-2.61631e-09
9.99611e-09
-2.65727e-09
9.95649e-09
-2.69822e-09
9.91032e-09
-2.73918e-09
9.85762e-09
-2.78013e-09
9.79837e-09
-2.82108e-09
9.73257e-09
-2.86204e-09
9.66024e-09
-2.90299e-09
9.58136e-09
-2.94394e-09
9.49594e-09
-2.9849e-09
9.40397e-09
-3.02585e-09
9.30547e-09
-3.06681e-09
9.20042e-09
-3.10776e-09
9.08882e-09
-3.14871e-09
8.97069e-09
-3.18967e-09
8.84601e-09
-3.23062e-09
8.71479e-09
-3.27157e-09
8.57702e-09
-3.31253e-09
8.43272e-09
-3.35348e-09
8.28187e-09
-3.39444e-09
8.12447e-09
-3.43539e-09
7.96054e-09
-3.47634e-09
7.79006e-09
-3.5173e-09
7.61304e-09
-3.55825e-09
7.42947e-09
-3.5992e-09
7.23936e-09
-3.64016e-09
7.04271e-09
-3.68111e-09
6.83952e-09
-3.72207e-09
6.62978e-09
-3.76302e-09
6.41349e-09
-3.80397e-09
6.19003e-09
-3.84466e-09
-3.87054e-09
5.91555e-09
1.06082e-08
-1.89843e-09
1.07025e-08
-1.96554e-09
1.07548e-08
-2.00541e-09
1.07955e-08
-2.04118e-09
1.08291e-08
-2.07624e-09
1.08564e-08
-2.11117e-09
1.08776e-08
-2.14607e-09
1.08927e-08
-2.18097e-09
1.09018e-08
-2.21586e-09
1.09048e-08
-2.25076e-09
1.09018e-08
-2.28566e-09
1.08927e-08
-2.32055e-09
1.08776e-08
-2.35545e-09
1.08564e-08
-2.39034e-09
1.08291e-08
-2.42524e-09
1.07958e-08
-2.46013e-09
1.07564e-08
-2.49503e-09
1.0711e-08
-2.52992e-09
1.06595e-08
-2.56482e-09
1.06019e-08
-2.59971e-09
1.05383e-08
-2.63461e-09
1.04687e-08
-2.66951e-09
1.03929e-08
-2.7044e-09
1.03111e-08
-2.7393e-09
1.02233e-08
-2.77419e-09
1.01294e-08
-2.80909e-09
1.00294e-08
-2.84398e-09
9.92341e-09
-2.87888e-09
9.81133e-09
-2.91377e-09
9.6932e-09
-2.94867e-09
9.569e-09
-2.98357e-09
9.43875e-09
-3.01846e-09
9.30244e-09
-3.05336e-09
9.16007e-09
-3.08825e-09
9.01164e-09
-3.12315e-09
8.85716e-09
-3.15804e-09
8.69661e-09
-3.19294e-09
8.53001e-09
-3.22783e-09
8.35735e-09
-3.26273e-09
8.17863e-09
-3.29763e-09
7.99386e-09
-3.33252e-09
7.80302e-09
-3.36742e-09
7.60613e-09
-3.40231e-09
7.40318e-09
-3.43721e-09
7.19417e-09
-3.4721e-09
6.9791e-09
-3.507e-09
6.75797e-09
-3.54189e-09
6.53076e-09
-3.57678e-09
6.29654e-09
-3.61134e-09
-3.63199e-09
6.01114e-09
1.17473e-08
-1.9202e-09
1.18198e-08
-1.98298e-09
1.1842e-08
-2.01793e-09
1.1851e-08
-2.04829e-09
1.18529e-08
-2.07781e-09
1.18489e-08
-2.10717e-09
1.18394e-08
-2.1365e-09
1.18242e-08
-2.16582e-09
1.18035e-08
-2.19515e-09
1.17772e-08
-2.22447e-09
1.17454e-08
-2.25379e-09
1.17079e-08
-2.28311e-09
1.16649e-08
-2.31243e-09
1.16163e-08
-2.34175e-09
1.15622e-08
-2.37108e-09
1.15024e-08
-2.4004e-09
1.14371e-08
-2.42972e-09
1.13662e-08
-2.45904e-09
1.12898e-08
-2.48836e-09
1.12078e-08
-2.51769e-09
1.11202e-08
-2.54701e-09
1.1027e-08
-2.57633e-09
1.09282e-08
-2.60565e-09
1.08239e-08
-2.63497e-09
1.0714e-08
-2.6643e-09
1.05985e-08
-2.69362e-09
1.04775e-08
-2.72294e-09
1.03509e-08
-2.75226e-09
1.02187e-08
-2.78158e-09
1.00809e-08
-2.81091e-09
9.93759e-09
-2.84023e-09
9.78867e-09
-2.86955e-09
9.63419e-09
-2.89887e-09
9.47413e-09
-2.92819e-09
9.3085e-09
-2.95752e-09
9.13729e-09
-2.98684e-09
8.96051e-09
-3.01616e-09
8.77816e-09
-3.04548e-09
8.59023e-09
-3.0748e-09
8.39673e-09
-3.10412e-09
8.19766e-09
-3.13345e-09
7.99301e-09
-3.16277e-09
7.78279e-09
-3.19209e-09
7.56699e-09
-3.22141e-09
7.34562e-09
-3.25073e-09
7.11868e-09
-3.28006e-09
6.88617e-09
-3.30938e-09
6.64804e-09
-3.33869e-09
6.40311e-09
-3.36764e-09
-3.38362e-09
6.10701e-09
1.28879e-08
-1.90959e-09
1.29375e-08
-1.96762e-09
1.29293e-08
-1.99782e-09
1.29064e-08
-2.02318e-09
1.28767e-08
-2.04763e-09
1.28415e-08
-2.07191e-09
1.28012e-08
-2.09615e-09
1.27558e-08
-2.12039e-09
1.27052e-08
-2.14462e-09
1.26496e-08
-2.16885e-09
1.25889e-08
-2.19309e-09
1.25231e-08
-2.21732e-09
1.24522e-08
-2.24155e-09
1.23763e-08
-2.26578e-09
1.22952e-08
-2.29002e-09
1.22091e-08
-2.31425e-09
1.21178e-08
-2.33848e-09
1.20215e-08
-2.36272e-09
1.19201e-08
-2.38695e-09
1.18136e-08
-2.41118e-09
1.1702e-08
-2.43542e-09
1.15853e-08
-2.45965e-09
1.14635e-08
-2.48388e-09
1.13367e-08
-2.50811e-09
1.12047e-08
-2.53235e-09
1.10677e-08
-2.55658e-09
1.09256e-08
-2.58081e-09
1.07783e-08
-2.60505e-09
1.0626e-08
-2.62928e-09
1.04687e-08
-2.65351e-09
1.03062e-08
-2.67775e-09
1.01386e-08
-2.70198e-09
9.96594e-09
-2.72621e-09
9.78819e-09
-2.75044e-09
9.60535e-09
-2.77468e-09
9.41742e-09
-2.79891e-09
9.22441e-09
-2.82314e-09
9.0263e-09
-2.84738e-09
8.82311e-09
-2.87161e-09
8.61483e-09
-2.89584e-09
8.40146e-09
-2.92008e-09
8.183e-09
-2.94431e-09
7.95945e-09
-2.96854e-09
7.73081e-09
-2.99277e-09
7.49708e-09
-3.01701e-09
7.25826e-09
-3.04124e-09
7.01436e-09
-3.06547e-09
6.76532e-09
-3.08969e-09
6.50974e-09
-3.11354e-09
-3.1254e-09
6.20294e-09
1.40303e-08
-1.86658e-09
1.40557e-08
-1.91945e-09
1.40166e-08
-1.94509e-09
1.39619e-08
-1.96586e-09
1.39005e-08
-1.98572e-09
1.38341e-08
-2.00539e-09
1.3763e-08
-2.02503e-09
1.36873e-08
-2.04466e-09
1.36069e-08
-2.06429e-09
1.3522e-08
-2.08392e-09
1.34325e-08
-2.10354e-09
1.33383e-08
-2.12317e-09
1.32396e-08
-2.1428e-09
1.31362e-08
-2.16243e-09
1.30283e-08
-2.18206e-09
1.29157e-08
-2.20169e-09
1.27985e-08
-2.22132e-09
1.26768e-08
-2.24095e-09
1.25504e-08
-2.26057e-09
1.24194e-08
-2.2802e-09
1.22838e-08
-2.29983e-09
1.21436e-08
-2.31946e-09
1.19988e-08
-2.33909e-09
1.18494e-08
-2.35872e-09
1.16954e-08
-2.37835e-09
1.15368e-08
-2.39798e-09
1.13736e-08
-2.4176e-09
1.12058e-08
-2.43723e-09
1.10334e-08
-2.45686e-09
1.08564e-08
-2.47649e-09
1.06748e-08
-2.49612e-09
1.04885e-08
-2.51575e-09
1.02977e-08
-2.53538e-09
1.01022e-08
-2.55501e-09
9.9022e-09
-2.57463e-09
9.69756e-09
-2.59426e-09
9.48831e-09
-2.61389e-09
9.27445e-09
-2.63352e-09
9.05599e-09
-2.65315e-09
8.83292e-09
-2.67278e-09
8.60526e-09
-2.69241e-09
8.37298e-09
-2.71203e-09
8.1361e-09
-2.73166e-09
7.89462e-09
-2.75129e-09
7.64854e-09
-2.77092e-09
7.39785e-09
-2.79055e-09
7.14255e-09
-2.81018e-09
6.8826e-09
-2.8298e-09
6.61643e-09
-2.84904e-09
-2.85733e-09
6.29895e-09
1.51751e-08
-1.79109e-09
1.51744e-08
-1.83845e-09
1.51041e-08
-1.85972e-09
1.50175e-08
-1.87633e-09
1.49244e-08
-1.89206e-09
1.48267e-08
-1.90761e-09
1.47248e-08
-1.92313e-09
1.46188e-08
-1.93864e-09
1.45087e-08
-1.95415e-09
1.43944e-08
-1.96966e-09
1.4276e-08
-1.98517e-09
1.41535e-08
-2.00068e-09
1.40269e-08
-2.01618e-09
1.38962e-08
-2.03169e-09
1.37613e-08
-2.0472e-09
1.36223e-08
-2.06271e-09
1.34792e-08
-2.07822e-09
1.3332e-08
-2.09373e-09
1.31807e-08
-2.10924e-09
1.30252e-08
-2.12475e-09
1.28657e-08
-2.14026e-09
1.2702e-08
-2.15577e-09
1.25341e-08
-2.17128e-09
1.23622e-08
-2.18678e-09
1.21862e-08
-2.20229e-09
1.2006e-08
-2.2178e-09
1.18217e-08
-2.23331e-09
1.16333e-08
-2.24882e-09
1.14408e-08
-2.26433e-09
1.12441e-08
-2.27984e-09
1.10433e-08
-2.29535e-09
1.08384e-08
-2.31086e-09
1.06294e-08
-2.32637e-09
1.04163e-08
-2.34188e-09
1.01991e-08
-2.35739e-09
9.97769e-09
-2.37289e-09
9.7522e-09
-2.3884e-09
9.5226e-09
-2.40391e-09
9.28887e-09
-2.41942e-09
9.05102e-09
-2.43493e-09
8.80905e-09
-2.45044e-09
8.56297e-09
-2.46595e-09
8.31276e-09
-2.48146e-09
8.05844e-09
-2.49697e-09
7.79999e-09
-2.51248e-09
7.53743e-09
-2.52799e-09
7.27074e-09
-2.54349e-09
6.99989e-09
-2.55899e-09
6.72318e-09
-2.57415e-09
-2.57941e-09
6.39503e-09
1.63226e-08
-1.68303e-09
1.62938e-08
-1.72456e-09
1.61917e-08
-1.74171e-09
1.6073e-08
-1.75459e-09
1.59482e-08
-1.76666e-09
1.58193e-08
-1.77857e-09
1.56866e-08
-1.79045e-09
1.55503e-08
-1.80233e-09
1.54104e-08
-1.8142e-09
1.52668e-08
-1.82608e-09
1.51196e-08
-1.83795e-09
1.49687e-08
-1.84983e-09
1.48142e-08
-1.8617e-09
1.46561e-08
-1.87357e-09
1.44944e-08
-1.88545e-09
1.4329e-08
-1.89732e-09
1.41599e-08
-1.9092e-09
1.39873e-08
-1.92107e-09
1.3811e-08
-1.93294e-09
1.36311e-08
-1.94482e-09
1.34475e-08
-1.95669e-09
1.32603e-08
-1.96857e-09
1.30695e-08
-1.98044e-09
1.2875e-08
-1.99232e-09
1.26769e-08
-2.00419e-09
1.24751e-08
-2.01606e-09
1.22698e-08
-2.02794e-09
1.20608e-08
-2.03981e-09
1.18481e-08
-2.05169e-09
1.16318e-08
-2.06356e-09
1.14119e-08
-2.07543e-09
1.11884e-08
-2.08731e-09
1.09612e-08
-2.09918e-09
1.07304e-08
-2.11106e-09
1.04959e-08
-2.12293e-09
1.02578e-08
-2.13481e-09
1.00161e-08
-2.14668e-09
9.77074e-09
-2.15855e-09
9.52175e-09
-2.17043e-09
9.26912e-09
-2.1823e-09
9.01285e-09
-2.19418e-09
8.75296e-09
-2.20605e-09
8.48942e-09
-2.21792e-09
8.22225e-09
-2.2298e-09
7.95145e-09
-2.24167e-09
7.67701e-09
-2.25355e-09
7.39894e-09
-2.26542e-09
7.11717e-09
-2.27729e-09
6.83e-09
-2.28884e-09
-2.29163e-09
6.49118e-09
1.74731e-08
-1.54229e-09
1.7414e-08
-1.57773e-09
1.72795e-08
-1.59105e-09
1.71286e-08
-1.60063e-09
1.6972e-08
-1.60952e-09
1.68119e-08
-1.61827e-09
1.66484e-08
-1.627e-09
1.64818e-08
-1.63573e-09
1.63121e-08
-1.64445e-09
1.61392e-08
-1.65317e-09
1.59631e-08
-1.6619e-09
1.57839e-08
-1.67062e-09
1.56016e-08
-1.67935e-09
1.54161e-08
-1.68807e-09
1.52274e-08
-1.69679e-09
1.50356e-08
-1.70552e-09
1.48406e-08
-1.71424e-09
1.46425e-08
-1.72297e-09
1.44413e-08
-1.73169e-09
1.42369e-08
-1.74041e-09
1.40293e-08
-1.74914e-09
1.38186e-08
-1.75786e-09
1.36048e-08
-1.76658e-09
1.33878e-08
-1.77531e-09
1.31676e-08
-1.78403e-09
1.29443e-08
-1.79276e-09
1.27178e-08
-1.80148e-09
1.24882e-08
-1.8102e-09
1.22555e-08
-1.81893e-09
1.20196e-08
-1.82765e-09
1.17805e-08
-1.83638e-09
1.15383e-08
-1.8451e-09
1.12929e-08
-1.85382e-09
1.10444e-08
-1.86255e-09
1.07928e-08
-1.87127e-09
1.0538e-08
-1.88e-09
1.028e-08
-1.88872e-09
1.00189e-08
-1.89744e-09
9.75463e-09
-1.90617e-09
9.48722e-09
-1.91489e-09
9.21665e-09
-1.92361e-09
8.94294e-09
-1.93234e-09
8.66608e-09
-1.94106e-09
8.38607e-09
-1.94979e-09
8.10291e-09
-1.95851e-09
7.81659e-09
-1.96723e-09
7.52713e-09
-1.97596e-09
7.23446e-09
-1.98467e-09
6.93687e-09
-1.99313e-09
-1.99396e-09
6.58741e-09
1.86272e-08
-1.36869e-09
1.85351e-08
-1.39789e-09
1.83674e-08
-1.4077e-09
1.81842e-08
-1.41444e-09
1.79959e-08
-1.42063e-09
1.78044e-08
-1.42671e-09
1.76102e-08
-1.43277e-09
1.74133e-08
-1.43883e-09
1.72138e-08
-1.44489e-09
1.70116e-08
-1.45095e-09
1.68067e-08
-1.45701e-09
1.65991e-08
-1.46307e-09
1.63889e-08
-1.46912e-09
1.6176e-08
-1.47518e-09
1.59605e-08
-1.48124e-09
1.57422e-08
-1.4873e-09
1.55214e-08
-1.49336e-09
1.52978e-08
-1.49942e-09
1.50716e-08
-1.50547e-09
1.48427e-08
-1.51153e-09
1.46112e-08
-1.51759e-09
1.43769e-08
-1.52365e-09
1.41401e-08
-1.52971e-09
1.39005e-08
-1.53577e-09
1.36583e-08
-1.54182e-09
1.34134e-08
-1.54788e-09
1.31659e-08
-1.55394e-09
1.29157e-08
-1.56e-09
1.26628e-08
-1.56606e-09
1.24073e-08
-1.57212e-09
1.21491e-08
-1.57817e-09
1.18882e-08
-1.58423e-09
1.16247e-08
-1.59029e-09
1.13585e-08
-1.59635e-09
1.10896e-08
-1.60241e-09
1.08181e-08
-1.60846e-09
1.05439e-08
-1.61452e-09
1.0267e-08
-1.62058e-09
9.98751e-09
-1.62664e-09
9.70531e-09
-1.6327e-09
9.42045e-09
-1.63876e-09
9.13293e-09
-1.64481e-09
8.84274e-09
-1.65087e-09
8.54988e-09
-1.65693e-09
8.25436e-09
-1.66299e-09
7.95617e-09
-1.66905e-09
7.65532e-09
-1.67511e-09
7.35175e-09
-1.68116e-09
7.04382e-09
-1.68701e-09
-1.68641e-09
6.68372e-09
1.97852e-08
-1.16204e-09
1.96571e-08
-1.18496e-09
1.94556e-08
-1.19166e-09
1.92399e-08
-1.19603e-09
1.90197e-08
-1.2e-09
1.8797e-08
-1.20389e-09
1.8572e-08
-1.20777e-09
1.83449e-08
-1.21165e-09
1.81155e-08
-1.21553e-09
1.78839e-08
-1.2194e-09
1.76502e-08
-1.22328e-09
1.74143e-08
-1.22716e-09
1.71762e-08
-1.23104e-09
1.6936e-08
-1.23491e-09
1.66935e-08
-1.23879e-09
1.64489e-08
-1.24267e-09
1.62021e-08
-1.24654e-09
1.59531e-08
-1.25042e-09
1.57019e-08
-1.2543e-09
1.54485e-08
-1.25818e-09
1.5193e-08
-1.26205e-09
1.49353e-08
-1.26593e-09
1.46754e-08
-1.26981e-09
1.44133e-08
-1.27369e-09
1.4149e-08
-1.27756e-09
1.38826e-08
-1.28144e-09
1.3614e-08
-1.28532e-09
1.33432e-08
-1.2892e-09
1.30702e-08
-1.29307e-09
1.2795e-08
-1.29695e-09
1.25177e-08
-1.30083e-09
1.22381e-08
-1.3047e-09
1.19564e-08
-1.30858e-09
1.16725e-08
-1.31246e-09
1.13865e-08
-1.31634e-09
1.10982e-08
-1.32021e-09
1.08078e-08
-1.32409e-09
1.05152e-08
-1.32797e-09
1.02204e-08
-1.33184e-09
9.92341e-09
-1.33572e-09
9.62425e-09
-1.3396e-09
9.32292e-09
-1.34348e-09
9.0194e-09
-1.34735e-09
8.7137e-09
-1.35123e-09
8.40582e-09
-1.35511e-09
8.09576e-09
-1.35899e-09
7.78351e-09
-1.36286e-09
7.46904e-09
-1.36674e-09
7.15084e-09
-1.37047e-09
-1.36897e-09
6.78011e-09
2.09475e-08
-9.22124e-10
2.078e-08
-9.38814e-10
2.05439e-08
-9.42896e-10
2.02955e-08
-9.4538e-10
2.00436e-08
-9.47618e-10
1.97896e-08
-9.49809e-10
1.95338e-08
-9.51992e-10
1.92764e-08
-9.54174e-10
1.90172e-08
-9.56355e-10
1.87563e-08
-9.58536e-10
1.84938e-08
-9.60717e-10
1.82295e-08
-9.62898e-10
1.79636e-08
-9.65079e-10
1.76959e-08
-9.6726e-10
1.74265e-08
-9.69441e-10
1.71555e-08
-9.71622e-10
1.68828e-08
-9.73803e-10
1.66083e-08
-9.75984e-10
1.63322e-08
-9.78165e-10
1.60544e-08
-9.80346e-10
1.57748e-08
-9.82527e-10
1.54936e-08
-9.84707e-10
1.52107e-08
-9.86888e-10
1.49261e-08
-9.89069e-10
1.46398e-08
-9.9125e-10
1.43517e-08
-9.93431e-10
1.4062e-08
-9.95612e-10
1.37706e-08
-9.97793e-10
1.34775e-08
-9.99974e-10
1.31827e-08
-1.00216e-09
1.28863e-08
-1.00434e-09
1.25881e-08
-1.00652e-09
1.22882e-08
-1.0087e-09
1.19866e-08
-1.01088e-09
1.16833e-08
-1.01306e-09
1.13784e-08
-1.01524e-09
1.10717e-08
-1.01742e-09
1.07633e-08
-1.0196e-09
1.04533e-08
-1.02178e-09
1.01415e-08
-1.02396e-09
9.82805e-09
-1.02615e-09
9.5129e-09
-1.02833e-09
9.19606e-09
-1.03051e-09
8.87751e-09
-1.03269e-09
8.55727e-09
-1.03487e-09
8.23534e-09
-1.03705e-09
7.91171e-09
-1.03923e-09
7.58634e-09
-1.04141e-09
7.25792e-09
-1.0435e-09
-1.04162e-09
6.87659e-09
2.21144e-08
-6.48681e-10
2.19039e-08
-6.59359e-10
2.16324e-08
-6.6138e-10
2.13513e-08
-6.62497e-10
2.10675e-08
-6.63493e-10
2.07822e-08
-6.64467e-10
2.04957e-08
-6.65438e-10
2.02079e-08
-6.66407e-10
1.99189e-08
-6.67377e-10
1.96287e-08
-6.68346e-10
1.93373e-08
-6.69315e-10
1.90447e-08
-6.70285e-10
1.87509e-08
-6.71254e-10
1.84558e-08
-6.72223e-10
1.81596e-08
-6.73193e-10
1.78621e-08
-6.74162e-10
1.75635e-08
-6.75131e-10
1.72636e-08
-6.76101e-10
1.69625e-08
-6.7707e-10
1.66602e-08
-6.78039e-10
1.63567e-08
-6.79008e-10
1.60519e-08
-6.79978e-10
1.5746e-08
-6.80947e-10
1.54388e-08
-6.81916e-10
1.51305e-08
-6.82886e-10
1.48209e-08
-6.83855e-10
1.45101e-08
-6.84824e-10
1.41981e-08
-6.85794e-10
1.38849e-08
-6.86763e-10
1.35705e-08
-6.87732e-10
1.32548e-08
-6.88701e-10
1.2938e-08
-6.89671e-10
1.26199e-08
-6.9064e-10
1.23007e-08
-6.91609e-10
1.19802e-08
-6.92579e-10
1.16585e-08
-6.93548e-10
1.13356e-08
-6.94517e-10
1.10115e-08
-6.95487e-10
1.06861e-08
-6.96456e-10