/*--------------------------------*- C++ -*----------------------------------*\
  =========                 |
  \\      /  F ield         | OpenFOAM: The Open Source CFD Toolbox
   \\    /   O peration     | Website:  https://openfoam.org
    \\  /    A nd           | Version:  13
     \\/     M anipulation  |
\*---------------------------------------------------------------------------*/
FoamFile
{
    format      ascii;
    class       volScalarField;
    location    "0.0005";
    object      p;
}
// * * * * * * * * * * * * * * * * * * * * * * * * * * * * * * * * * * * * * //

dimensions      [0 2 -2 0 0 0 0];

internalField   nonuniform List<scalar> 
1690
(
-0.0560406
-0.00195053
0.0425332
0.0764551
0.0953812
0.0897684
0.0685248
0.0296237
-0.0551974
-0.000986333
0.0436869
0.0778244
0.09663
0.0910553
0.0682592
0.0290794
-0.0537575
-2.4775e-05
0.0442946
0.0781885
0.0966635
0.0903845
0.0660392
0.0258956
-0.0515861
0.00143559
0.0452614
0.0788359
0.0969288
0.0894926
0.0628315
0.0208271
-0.0487508
0.00332504
0.0465061
0.0796778
0.0973039
0.0882789
0.0583589
0.0137788
-0.0453358
0.00553374
0.0478922
0.0805591
0.0976173
0.0865279
0.052258
0.00446151
-0.0414372
0.00794987
0.0492889
0.0813357
0.0977051
0.0839747
0.0440739
-0.00753126
-0.0371687
0.0104469
0.050546
0.0818308
0.0973334
0.080178
0.033145
-0.0228001
-0.0326605
0.0128819
0.0514866
0.0818229
0.0961508
0.0744138
0.0185506
-0.0421341
-0.0280557
0.0151017
0.0519148
0.0810673
0.0937187
0.0658535
-0.000613931
-0.0661438
-0.0235034
0.0169536
0.0516287
0.0792814
0.0896533
0.054422
-0.0242183
-0.0973499
-0.0191489
0.0183045
0.0504562
0.0761053
0.0836499
0.0417045
-0.0491068
-0.130833
-0.0151207
0.0190564
0.0483147
0.0712627
0.0755399
0.0298316
-0.0691806
-0.155095
-0.0115201
0.0191535
0.0451785
0.0646416
0.0654702
0.0192827
-0.0828949
-0.192606
-0.0084179
0.0186067
0.0410803
0.0564941
0.0540528
0.00885659
-0.0939842
-0.245341
4.27949
4.27009
4.25718
4.23465
4.20735
4.17434
4.13709
4.09708
4.05589
4.01505
3.97594
3.93963
3.90695
3.87838
3.85417
3.83436
3.81885
3.80748
3.80017
3.79726
4.2732
4.26402
4.25039
4.228
4.2004
4.16727
4.12999
4.09007
4.04913
4.00868
3.97007
3.93436
3.90231
3.87438
3.85077
3.83149
3.81643
3.8054
3.79833
3.79552
4.26306
4.25362
4.23997
4.21709
4.18914
4.15564
4.11816
4.07828
4.03765
3.99779
3.96
3.92527
3.89429
3.86745
3.84487
3.82652
3.81222
3.80179
3.79511
3.79247
4.2477
4.23789
4.2242
4.20064
4.17229
4.13836
4.10076
4.06111
4.02113
3.98229
3.94581
3.9126
3.88322
3.85796
3.83686
3.8198
3.80658
3.79697
3.79084
3.78843
4.22723
4.21703
4.2033
4.17903
4.15033
4.11606
4.07854
4.03946
4.00052
3.96317
3.92851
3.89731
3.86999
3.84672
3.82744
3.81197
3.80005
3.79142
3.78593
3.78379
4.20133
4.1908
4.1771
4.15221
4.12332
4.08895
4.05189
4.01383
3.97648
3.94116
3.90884
3.88013
3.85529
3.83436
3.81718
3.8035
3.79303
3.78549
3.78072
3.77887
4.16925
4.15855
4.14504
4.11978
4.09104
4.05701
4.021
3.98461
3.9495
3.91684
3.88743
3.86167
3.83968
3.82137
3.8065
3.79476
3.78585
3.77946
3.77544
3.7739
4.12997
4.11938
4.10639
4.08123
4.05324
4.02027
3.98612
3.95221
3.92011
3.8908
3.86484
3.84248
3.82366
3.80819
3.79577
3.78606
3.77875
3.77354
3.77028
3.76905
4.08208
4.07209
4.0602
4.03596
4.00964
3.97876
3.94753
3.91709
3.88887
3.8636
3.84164
3.82304
3.80764
3.79516
3.78527
3.77762
3.77191
3.76788
3.76537
3.76444
4.02367
4.01512
4.00534
3.98332
3.96001
3.93261
3.90561
3.87976
3.85633
3.83578
3.8183
3.80377
3.79197
3.78256
3.77521
3.76961
3.76547
3.76258
3.76079
3.76014
3.95214
3.94644
3.94045
3.92263
3.90421
3.88209
3.86084
3.8408
3.82308
3.80789
3.79527
3.78504
3.77692
3.77059
3.76575
3.76213
3.75951
3.7577
3.7566
3.75621
3.86381
3.86347
3.86399
3.85327
3.84226
3.82762
3.81382
3.80085
3.78969
3.78039
3.77294
3.76712
3.7627
3.7594
3.75699
3.75526
3.75406
3.75327
3.7528
3.75266
3.75343
3.76304
3.77432
3.77484
3.77442
3.76981
3.76526
3.76057
3.75672
3.75372
3.75162
3.75025
3.74946
3.74908
3.74898
3.74903
3.74915
3.74929
3.74941
3.74949
3.61311
3.64144
3.66976
3.68721
3.70126
3.70948
3.71594
3.72062
3.72468
3.72826
3.73155
3.73457
3.73729
3.73969
3.74174
3.74343
3.74477
3.74576
3.74641
3.74669
3.43068
3.49471
3.54873
3.59075
3.62364
3.64761
3.66671
3.68165
3.69402
3.70428
3.71293
3.72018
3.72624
3.73122
3.73527
3.73846
3.7409
3.74265
3.74378
3.74423
3.18683
3.31924
3.4099
3.48648
3.54278
3.58533
3.61838
3.64426
3.66511
3.68202
3.69584
3.70713
3.7163
3.72368
3.72953
3.73408
3.7375
3.73994
3.74149
3.7421
2.84988
3.11255
3.25249
3.37615
3.46013
3.52386
3.57179
3.60891
3.63823
3.6616
3.68036
3.69541
3.70745
3.717
3.72449
3.73025
3.73455
3.73758
3.73952
3.74025
2.36974
2.87338
3.07739
3.26188
3.37782
3.46434
3.52763
3.576
3.61356
3.64308
3.66646
3.68499
3.69965
3.71116
3.7201
3.72693
3.73199
3.73556
3.73782
3.73866
1.66468
2.59476
2.89014
3.14686
3.29767
3.40784
3.48647
3.54579
3.59119
3.62648
3.65412
3.67581
3.69282
3.70607
3.7163
3.72407
3.7298
3.73382
3.73637
3.73731
0.647235
2.27382
2.70046
3.03483
3.22174
3.35524
3.44871
3.51842
3.57115
3.61175
3.64326
3.66779
3.68688
3.70168
3.71303
3.72162
3.72793
3.73234
3.73513
3.73616
-0.00403806
0.0169239
0.0334275
0.0426011
0.0360464
-0.0068416
-0.0951587
-0.169981
-0.000343478
0.0134564
0.0233633
0.026931
0.0187012
-0.0129797
-0.0698589
-0.103181
0.00150265
0.00943984
0.0141985
0.0137627
0.00462438
-0.0182372
-0.0539089
-0.0782884
0.00216974
0.00538862
0.00628979
0.00310018
-0.00620529
-0.0235834
-0.0467348
-0.0655614
0.00260061
0.00156371
-0.000355995
-0.00549129
-0.0146593
-0.0290699
-0.0462701
-0.0620472
0.00147323
-0.00207493
-0.00591379
-0.0122116
-0.0214194
-0.0337717
-0.0478304
-0.0614773
-0.000974929
-0.00526809
-0.0106525
-0.0178216
-0.0270928
-0.0384176
-0.050972
-0.0635065
-0.00233699
-0.00793601
-0.0145164
-0.0224164
-0.0318324
-0.0426888
-0.0545308
-0.0665094
-0.00331172
-0.0100965
-0.0176648
-0.0262153
-0.035881
-0.0466237
-0.0582196
-0.0700086
-0.00403631
-0.0118276
-0.0202267
-0.0293634
-0.0393436
-0.0501757
-0.0617913
-0.0736195
-0.00458547
-0.0132121
-0.0223099
-0.031973
-0.0422979
-0.0533281
-0.0651084
-0.0771213
-0.00500618
-0.0143167
-0.0239968
-0.0341235
-0.0447953
-0.0560741
-0.0680836
-0.0803642
-0.00532709
-0.0151949
-0.0253542
-0.0358812
-0.0468961
-0.0584717
-0.0707312
-0.0832778
-0.00556208
-0.0158867
-0.0264265
-0.037258
-0.0485385
-0.0603988
-0.0727892
-0.0852258
-0.00570268
-0.0163795
-0.0272168
-0.038284
-0.0498442
-0.0623001
-0.0751833
-0.0870217
-0.183197
-0.160004
-0.146317
-0.139252
-0.136048
-0.135661
-0.137473
-0.141078
-0.146201
-0.152656
-0.160314
-0.169092
-0.178941
-0.189831
-0.201753
-0.214712
-0.228732
-0.243845
-0.260096
-0.277538
-0.296229
-0.316233
-0.337615
-0.360441
-0.384767
-0.410638
-0.438063
-0.466962
-0.497071
-0.527851
-0.558555
-0.588693
-0.619019
-0.653194
-0.699944
-0.775704
-0.907251
-1.13508
-1.50774
-2.06469
-2.8104
-3.68031
-4.52234
-5.16313
-5.50953
-5.59138
-5.55627
-5.59675
-5.83603
-8.54783
-0.121863
-0.120994
-0.12002
-0.120384
-0.122235
-0.12542
-0.12984
-0.135418
-0.142085
-0.14979
-0.158492
-0.16817
-0.178816
-0.190423
-0.202996
-0.216564
-0.231163
-0.246839
-0.263645
-0.281639
-0.300882
-0.321439
-0.343376
-0.366759
-0.391648
-0.41809
-0.446082
-0.475479
-0.505883
-0.536567
-0.566679
-0.596035
-0.62636
-0.662826
-0.715998
-0.804601
-0.958067
-1.22121
-1.64777
-2.27691
-3.09688
-4.01461
-4.84691
-5.40621
-5.62375
-5.59221
-5.50772
-5.53339
-5.90246
-7.30391
-0.0948076
-0.101577
-0.106362
-0.110694
-0.115339
-0.120575
-0.126536
-0.133278
-0.140828
-0.149206
-0.158424
-0.168495
-0.179434
-0.191274
-0.204058
-0.217825
-0.232621
-0.248501
-0.265527
-0.283751
-0.303234
-0.32405
-0.346276
-0.369984
-0.395236
-0.422065
-0.450437
-0.480167
-0.510838
-0.541821
-0.572552
-0.603275
-0.636193
-0.677101
-0.738086
-0.84106
-1.01876
-1.32355
-1.81082
-2.51761
-3.41485
-4.37644
-5.18703
-5.65413
-5.73808
-5.58144
-5.43492
-5.4767
-5.83061
-6.02335
-0.0799854
-0.0884546
-0.0953062
-0.101804
-0.108414
-0.115331
-0.122692
-0.130591
-0.1391
-0.148273
-0.158157
-0.168797
-0.180234
-0.192515
-0.205686
-0.219797
-0.234902
-0.251057
-0.268323
-0.286778
-0.306508
-0.327593
-0.350115
-0.374148
-0.399754
-0.426976
-0.455811
-0.486137
-0.517664
-0.54996
-0.582738
-0.61658
-0.654175
-0.702219
-0.774215
-0.894095
-1.09999
-1.44586
-1.98939
-2.76308
-3.7237
-4.71475
-5.49299
-5.87126
-5.84369
-5.57954
-5.38316
-5.41811
-5.58237
-4.87701
-0.0755835
-0.0850169
-0.0929039
-0.100399
-0.107929
-0.115676
-0.123767
-0.132299
-0.141349
-0.150981
-0.161254
-0.172223
-0.183941
-0.196462
-0.209842
-0.224142
-0.239424
-0.255757
-0.273215
-0.291879
-0.311834
-0.333168
-0.355969
-0.380329
-0.406347
-0.434109
-0.463659
-0.494958
-0.527836
-0.562054
-0.597621
-0.635532
-0.679047
-0.735702
-0.820205
-0.958011
-1.18882
-1.5663
-2.14597
-2.95429
-3.93696
-4.92429
-5.66382
-5.98539
-5.87882
-5.56069
-5.33878
-5.26345
-5.0802
-3.79999
-0.0740584
-0.0836065
-0.0918879
-0.0999196
-0.108042
-0.116388
-0.125055
-0.134125
-0.143668
-0.153751
-0.164435
-0.17578
-0.187846
-0.200693
-0.214384
-0.228984
-0.244566
-0.261203
-0.278978
-0.297979
-0.318303
-0.34005
-0.363329
-0.388254
-0.414949
-0.443529
-0.474085
-0.506641
-0.541136
-0.577523
-0.616152
-0.658551
-0.708645
-0.774644
-0.871697
-1.02503
-1.27236
-1.66239
-2.24429
-3.03811
-3.98833
-4.92891
-5.61932
-5.89629
-5.77857
-5.46233
-5.16926
-4.90661
-4.36456
-2.82651
-0.0754736
-0.0850583
-0.0935219
-0.101831
-0.110287
-0.118997
-0.128039
-0.137481
-0.147386
-0.157817
-0.168834
-0.180499
-0.192874
-0.206024
-0.220016
-0.234924
-0.250825
-0.267802
-0.285946
-0.305357
-0.326141
-0.348417
-0.372311
-0.397963
-0.425524
-0.455144
-0.486952
-0.521031
-0.557449
-0.596429
-0.638776
-0.686599
-0.744384
-0.820549
-0.929537
-1.09409
-1.34658
-1.72704
-2.27378
-2.99939
-3.85336
-4.6925
-5.31196
-5.56644
-5.46285
-5.15016
-4.78058
-4.35224
-3.58722
-2.05862
-0.0780748
-0.0876365
-0.0961818
-0.104659
-0.113337
-0.122308
-0.131634
-0.141372
-0.151581
-0.162317
-0.173642
-0.185615
-0.198303
-0.211772
-0.226096
-0.241353
-0.257627
-0.275011
-0.293606
-0.313524
-0.334887
-0.357832
-0.382508
-0.409084
-0.43774
-0.468667
-0.502057
-0.538108
-0.577102
-0.619624
-0.666974
-0.72178
-0.788798
-0.875994
-0.995923
-1.16709
-1.41453
-1.76765
-2.25245
-2.87372
-3.58806
-4.28293
-4.79973
-5.01804
-4.93453
-4.64047
-4.23945
-3.72866
-2.89189
-1.51923
-0.0813565
-0.0909105
-0.0995063
-0.108103
-0.116948
-0.12612
-0.135674
-0.14566
-0.156131
-0.167143
-0.178752
-0.191023
-0.204021
-0.217817
-0.23249
-0.248123
-0.264808
-0.282649
-0.301758
-0.322261
-0.344301
-0.368036
-0.393645
-0.421332
-0.451325
-0.48388
-0.519295
-0.557954
-0.600434
-0.647747
-0.701692
-0.765266
-0.843106
-0.942049
-1.07184
-1.24583
-1.48133
-1.7979
-2.21117
-2.72014
-3.28903
-3.83418
-4.24011
-4.41419
-4.34645
-4.08471
-3.6934
-3.16324
-2.34029
-1.15769
-0.0848942
-0.0944695
-0.103112
-0.111813
-0.120799
-0.130143
-0.139893
-0.150097
-0.160804
-0.172067
-0.183946
-0.196503
-0.209807
-0.223934
-0.238965
-0.254992
-0.272116
-0.290449
-0.310118
-0.331268
-0.354062
-0.378687
-0.40536
-0.43433
-0.465894
-0.500403
-0.538312
-0.580265
-0.627163
-0.680451
-0.742383
-0.816256
-0.906292
-1.01758
-1.15648
-1.33079
-1.55068
-1.82803
-2.17211
-2.58011
-3.02433
-3.44391
-3.75599
-3.89184
-3.83331
-3.60231
-3.23313
-2.70922
-1.92941
-0.912748
-0.0884312
-0.0980534
-0.106749
-0.115553
-0.124672
-0.134174
-0.144104
-0.154506
-0.16543
-0.176929
-0.189063
-0.201895
-0.215498
-0.229951
-0.245341
-0.261766
-0.279335
-0.298173
-0.318423
-0.340247
-0.363836
-0.389408
-0.417225
-0.447592
-0.480893
-0.517605
-0.558331
-0.604084
-0.65602
-0.716
-0.786658
-0.87162
-0.974618
-1.09858
-1.24657
-1.42041
-1.62383
-1.86299
-2.14437
-2.46724
-2.81294
-3.13785
-3.38071
-3.48702
-3.43352
-3.22476
-2.87458
-2.36364
-1.63139
-0.74156
-0.0917643
-0.101438
-0.11019
-0.119099
-0.128349
-0.138001
-0.148097
-0.158683
-0.169807
-0.181525
-0.193896
-0.206987
-0.220874
-0.235639
-0.251375
-0.268188
-0.286194
-0.305529
-0.326351
-0.348842
-0.373222
-0.399741
-0.428692
-0.460439
-0.495468
-0.534364
-0.577791
-0.627517
-0.684495
-0.751146
-0.830559
-0.926114
-1.04083
-1.176
-1.33325
-1.5074
-1.69679
-1.903
-2.13114
-2.384
-2.65203
-2.90566
-3.09859
-3.18416
-3.13373
-2.93932
-2.60272
-2.10617
-1.41812
-0.61971
-0.0948117
-0.104597
-0.113443
-0.122479
-0.131867
-0.141665
-0.151919
-0.162675
-0.173983
-0.185901
-0.198489
-0.211816
-0.225961
-0.24101
-0.257057
-0.274218
-0.292606
-0.312374
-0.333691
-0.356757
-0.381813
-0.409134
-0.439074
-0.472029
-0.50856
-0.549407
-0.595663
-0.648017
-0.708915
-0.780732
-0.866626
-0.970031
-1.09378
-1.23899
-1.4009
-1.57525
-1.75605
-1.94088
-2.13282
-2.33567
-2.54579
-2.74465
-2.89836
-2.96688
-2.9173
-2.73226
-2.40491
-1.92203
-1.27175
-0.536707
-0.0970845
-0.10719
-0.116162
-0.125324
-0.134835
-0.14476
-0.155149
-0.16605
-0.177514
-0.189597
-0.202364
-0.215883
-0.230236
-0.245509
-0.261794
-0.279273
-0.297967
-0.318076
-0.339777
-0.363274
-0.388804
-0.416671
-0.447215
-0.480934
-0.518393
-0.560356
-0.607861
-0.662203
-0.72543
-0.800089
-0.889295
-0.996301
-1.12351
-1.27109
-1.43521
-1.60982
-1.78855
-1.96801
-2.14806
-2.3299
-2.50995
-2.67427
-2.79735
-2.84676
-2.79132
-2.60787
-2.28347
-1.80918
-1.18585
-0.488672
-0.0998853
-0.110266
-0.118955
-0.128131
-0.137672
-0.147656
-0.158112
-0.169084
-0.180621
-0.192779
-0.20562
-0.219213
-0.233636
-0.248979
-0.265347
-0.282783
-0.301548
-0.321742
-0.343534
-0.36713
-0.392776
-0.420777
-0.451513
-0.485471
-0.523233
-0.565575
-0.613526
-0.668476
-0.732365
-0.807683
-0.897405
-1.00461
-1.13158
-1.27839
-1.44216
-1.61855
-1.80126
-1.98614
-2.17203
-2.35679
-2.53321
-2.68612
-2.79229
-2.82394
-2.75452
-2.56337
-2.23474
-1.7589
-1.14466
-0.454231
-0.544831
1.90023
2.53837
2.94084
3.15949
3.31239
3.41826
3.49653
3.55526
3.60016
3.63478
3.66157
3.68231
3.6983
3.71053
3.71975
3.72651
3.73122
3.7342
3.73529
-0.835302
1.60709
2.41417
2.86263
3.10871
3.27722
3.39344
3.47876
3.54244
3.59087
3.62801
3.65663
3.67869
3.69565
3.70857
3.71829
3.7254
3.73035
3.73348
3.73462
-0.588161
1.42128
2.31076
2.78789
3.05999
3.24322
3.36957
3.46177
3.53026
3.58208
3.62165
3.65201
3.67532
3.69318
3.70676
3.71694
3.72438
3.72955
3.73281
3.734
-0.293227
1.31557
2.22797
2.71947
3.01413
3.21086
3.34691
3.44569
3.5188
3.57386
3.61573
3.64773
3.67222
3.69092
3.7051
3.71571
3.72345
3.72882
3.73221
3.73343
-0.101949
1.24976
2.16005
2.65846
2.9717
3.18053
3.32567
3.43066
3.50813
3.56626
3.61028
3.64381
3.66938
3.68886
3.70359
3.7146
3.72261
3.72816
3.73167
3.73293
0.0247829
1.20994
2.10229
2.60476
2.93295
3.15251
3.30601
3.41678
3.49834
3.55931
3.60533
3.64026
3.66683
3.68701
3.70225
3.71361
3.72187
3.72758
3.73119
3.73248
0.114135
1.19039
2.05295
2.55802
2.89798
3.12702
3.28809
3.40417
3.48948
3.55307
3.60091
3.63711
3.66458
3.68539
3.70107
3.71274
3.72122
3.72708
3.73077
3.73209
0.172532
1.18356
2.01141
2.51786
2.86691
3.10422
3.27203
3.39292
3.48163
3.54756
3.59704
3.63437
3.66263
3.68399
3.70006
3.712
3.72067
3.72665
3.73042
3.73176
0.210957
1.18292
1.97688
2.48385
2.83982
3.08427
3.25798
3.38311
3.47483
3.54284
3.59374
3.63206
3.66099
3.68283
3.69922
3.71139
3.72022
3.7263
3.73013
3.7315
0.241044
1.18508
1.94851
2.45559
2.81678
3.06728
3.24604
3.37485
3.46916
3.53893
3.59104
3.63018
3.65968
3.6819
3.69856
3.71091
3.71986
3.72602
3.72991
3.73129
0.267936
1.18846
1.92571
2.43277
2.79793
3.05342
3.23637
3.36823
3.46467
3.53588
3.58896
3.62875
3.65868
3.6812
3.69807
3.71056
3.7196
3.72583
3.72974
3.73114
0.291528
1.19206
1.90828
2.41539
2.78351
3.04295
3.22917
3.36339
3.46145
3.53375
3.58753
3.62779
3.65803
3.68075
3.69776
3.71034
3.71944
3.72571
3.72965
3.73105
0.310443
1.19593
1.89693
2.4041
2.77421
3.03637
3.2248
3.36058
3.45967
3.53261
3.58682
3.62733
3.65774
3.68057
3.69763
3.71026
3.71938
3.72567
3.72962
3.73103
0.327872
1.20265
1.89391
2.40053
2.7712
3.03446
3.22373
3.36005
3.45946
3.53258
3.58686
3.62741
3.65782
3.68065
3.6977
3.71032
3.71943
3.72571
3.72965
3.73108
0.354059
1.21138
1.89816
2.40343
2.77343
3.0363
3.22526
3.36129
3.46044
3.53334
3.58745
3.62786
3.65817
3.68091
3.6979
3.71047
3.71955
3.72581
3.72974
3.73118
)
;

boundaryField
{
    internal
    {
        type            internal;
    }
    movingWall
    {
        type            zeroGradient;
    }
    farFieldMoving
    {
        type            zeroGradient;
    }
    fixedWall
    {
        type            zeroGradient;
    }
    axis
    {
        type            empty;
    }
    left
    {
        type            totalPressure;
        rho             rho;
        psi             none;
        gamma           1;
        p0              uniform 0;
        value           nonuniform List<scalar> 
30
(
-0.0887256
-0.0877766
-0.0860001
-0.0833585
-0.0798945
-0.0756756
-0.070789
-0.0653428
-0.0594663
-0.0533087
-0.047035
-0.0408166
-0.0348182
-0.0291823
-0.0240125
-0.0164808
-0.00894553
-0.00409963
-0.00137697
-0.000207827
0
0
0
0
0
0
0
0
0
0
)
;
    }
    farField
    {
        type            zeroGradient;
    }
    back
    {
        type            wedge;
    }
    front
    {
        type            wedge;
    }
}


// ************************************************************************* //
