/*--------------------------------*- C++ -*----------------------------------*\
  =========                 |
  \\      /  F ield         | OpenFOAM: The Open Source CFD Toolbox
   \\    /   O peration     | Website:  https://openfoam.org
    \\  /    A nd           | Version:  13
     \\/     M anipulation  |
\*---------------------------------------------------------------------------*/
FoamFile
{
    format      ascii;
    class       surfaceScalarField;
    location    "0.0005";
    object      phi;
}
// * * * * * * * * * * * * * * * * * * * * * * * * * * * * * * * * * * * * * //

dimensions      [0 3 -1 0 0 0 0];

internalField   nonuniform List<scalar> 
3252
(
3.3574e-11
-1.3838e-12
2.40737e-11
-4.231e-12
1.75364e-11
-7.19383e-12
1.39022e-11
-1.00963e-11
1.24424e-11
-1.22636e-11
1.20831e-11
-1.32879e-11
9.49711e-12
-1.0706e-11
-3.96414e-12
9.99874e-11
-5.54138e-12
7.146e-11
-1.68976e-11
5.18364e-11
-2.87638e-11
4.10114e-11
-4.04627e-11
3.7334e-11
-4.97568e-11
3.63818e-11
-5.32787e-11
2.99379e-11
-4.41364e-11
-1.44102e-11
1.64299e-10
-1.24467e-11
1.16725e-10
-3.79807e-11
8.41214e-11
-6.48163e-11
6.65563e-11
-9.155e-11
6.16348e-11
-1.13453e-10
6.13244e-11
-1.21211e-10
5.13908e-11
-1.00655e-10
-3.03265e-11
2.25062e-10
-2.20559e-11
1.58371e-10
-6.74095e-11
1.12921e-10
-1.15484e-10
8.93439e-11
-1.64086e-10
8.48239e-11
-2.04999e-10
8.75195e-11
-2.19455e-10
7.4712e-11
-1.8087e-10
-4.9846e-11
2.80823e-10
-3.4279e-11
1.94844e-10
-1.05013e-10
1.36616e-10
-1.80838e-10
1.07977e-10
-2.59022e-10
1.06353e-10
-3.2689e-10
1.15762e-10
-3.51727e-10
1.01174e-10
-2.85862e-10
-6.98296e-11
3.30149e-10
-4.89658e-11
2.24547e-10
-1.50455e-10
1.53435e-10
-2.60769e-10
1.20807e-10
-3.77429e-10
1.25572e-10
-4.8262e-10
1.47247e-10
-5.23591e-10
1.32477e-10
-4.17217e-10
-8.54369e-11
3.71641e-10
-6.58823e-11
2.45828e-10
-2.0315e-10
1.61366e-10
-3.54813e-10
1.25748e-10
-5.20308e-10
1.41508e-10
-6.76795e-10
1.83377e-10
-7.42991e-10
1.70726e-10
-5.77218e-10
-8.97255e-11
4.0396e-10
-8.46826e-11
2.5698e-10
-2.6214e-10
1.58054e-10
-4.61855e-10
1.19913e-10
-6.88125e-10
1.51877e-10
-9.14625e-10
2.23769e-10
-1.01977e-09
2.16906e-10
-7.69512e-10
-7.47668e-11
4.25883e-10
-1.04879e-10
2.56262e-10
-3.25953e-10
1.40653e-10
-5.79676e-10
9.88519e-11
-8.79743e-10
1.50294e-10
-1.19938e-09
2.60189e-10
-1.36194e-09
2.65949e-10
-1.00091e-09
-3.77018e-11
4.36371e-10
-1.25823e-10
2.4196e-10
-3.92437e-10
1.05693e-10
-7.04303e-10
5.5455e-11
-1.09039e-09
1.21901e-10
-1.5266e-09
2.67468e-10
-1.76717e-09
2.98624e-10
-1.28415e-09
5.09766e-12
4.34675e-10
-1.46694e-10
2.12559e-10
-4.58679e-10
4.9389e-11
-8.29489e-10
-2.02324e-11
-1.30911e-09
4.1802e-11
-1.87686e-09
2.01292e-10
-2.21377e-09
2.77697e-10
-1.63906e-09
2.51298e-14
4.2044e-10
-1.66549e-10
1.67131e-10
-5.21192e-10
-3.0867e-11
-9.47309e-10
-1.37581e-10
-1.5182e-09
-1.16692e-10
-2.21343e-09
1.51188e-11
-2.66014e-09
1.57038e-10
-2.08586e-09
-1.52658e-10
3.93835e-10
-1.8445e-10
1.0599e-10
-5.7663e-10
-1.344e-10
-1.0502e-09
-2.98809e-10
-1.69705e-09
-3.63035e-10
-2.49234e-09
-3.09633e-10
-3.05561e-09
-1.06173e-10
-2.62054e-09
-5.95508e-10
3.55649e-10
-1.99726e-10
3.13075e-11
-6.23035e-10
-2.56212e-10
-1.13342e-09
-4.93588e-10
-1.83041e-09
-6.74745e-10
-2.68177e-09
-7.50113e-10
-3.34979e-09
-5.40549e-10
-3.18758e-09
-1.49978e-09
3.07101e-10
-2.12194e-10
-5.37173e-11
-6.60426e-10
-3.89052e-10
-1.1963e-09
-7.01972e-10
-1.91568e-09
-1.00264e-09
-2.77916e-09
-1.24577e-09
-3.50364e-09
-1.14598e-09
-3.6739e-09
-3.03379e-09
-1.81896e-11
7.04388e-11
-7.92715e-11
1.14017e-10
-1.4813e-10
1.23449e-10
-2.1428e-10
1.22684e-10
-2.76049e-10
1.20385e-10
-3.3112e-10
1.15861e-10
-3.7772e-10
1.09647e-10
-4.14347e-10
1.02015e-10
-4.39865e-10
9.3333e-11
-4.53528e-10
8.39955e-11
-4.54984e-10
7.43998e-11
-4.44245e-10
6.4915e-11
-4.21647e-10
5.58651e-11
-3.87786e-10
4.75166e-11
-3.43463e-10
4.00765e-11
-2.89629e-10
3.37022e-11
-2.27384e-10
2.85419e-11
-1.58041e-10
2.48159e-11
-8.29497e-11
2.25616e-11
1.79646e-11
-5.14073e-11
2.64134e-10
-2.26988e-10
4.33755e-10
-4.17204e-10
4.62336e-10
-6.0307e-10
4.62515e-10
-7.74669e-10
4.51623e-10
-9.26982e-10
4.33734e-10
-1.05504e-09
4.09406e-10
-1.15482e-09
3.7988e-10
-1.22338e-09
3.46577e-10
-1.25886e-09
3.1103e-10
-1.26054e-09
2.74739e-10
-1.22867e-09
2.39081e-10
-1.16435e-09
2.05237e-10
-1.06936e-09
1.7416e-10
-9.45999e-10
1.46575e-10
-7.96918e-10
1.23022e-10
-6.25123e-10
1.04003e-10
-4.34173e-10
9.03053e-11
-2.27736e-10
8.20802e-11
6.51302e-11
-9.13911e-11
5.68784e-10
-3.70756e-10
9.29163e-10
-6.71509e-10
9.85908e-10
-9.62575e-10
9.84347e-10
-1.22924e-09
9.57562e-10
-1.46358e-09
9.1622e-10
-1.65805e-09
8.61232e-10
-1.80691e-09
7.9566e-10
-1.90623e-09
7.22717e-10
-1.95388e-09
6.45778e-10
-1.94941e-09
5.68036e-10
-1.89385e-09
4.92343e-10
-1.7894e-09
4.21074e-10
-1.63914e-09
3.56088e-10
-1.44678e-09
2.9875e-10
-1.21647e-09
2.50036e-10
-9.5273e-10
2.1086e-10
-6.60781e-10
1.82721e-10
-3.45904e-10
1.65834e-10
1.3139e-10
-1.40753e-10
9.77791e-10
-5.23349e-10
1.58345e-09
-9.29937e-10
1.67274e-09
-1.31868e-09
1.66334e-09
-1.6706e-09
1.61044e-09
-1.97532e-09
1.53307e-09
-2.22336e-09
1.43299e-09
-2.4082e-09
1.31623e-09
-2.5259e-09
1.18862e-09
-2.57506e-09
1.05606e-09
-2.55638e-09
9.23888e-10
-2.47229e-09
7.96695e-10
-2.3265e-09
6.78157e-10
-2.1236e-09
5.71024e-10
-1.8687e-09
4.7721e-10
-1.56721e-09
3.98007e-10
-1.22483e-09
3.34633e-10
-8.47914e-10
2.89273e-10
-4.42739e-10
2.62072e-10
2.0724e-10
-2.03132e-10
1.49082e-09
-6.93198e-10
2.38728e-09
-1.20508e-09
2.50829e-09
-1.6871e-09
2.48063e-09
-2.11653e-09
2.38752e-09
-2.4811e-09
2.25818e-09
-2.77025e-09
2.09607e-09
-2.97787e-09
1.91166e-09
-3.10127e-09
1.71423e-09
-3.14081e-09
1.51274e-09
-3.09925e-09
1.31495e-09
-2.98103e-09
1.12718e-09
-2.79175e-09
9.54246e-10
-2.53761e-09
7.99533e-10
-2.22503e-09
6.65221e-10
-1.86048e-09
5.52638e-10
-1.45045e-09
4.63069e-10
-1.00192e-09
3.99215e-10
-5.21609e-10
3.60959e-10
2.8484e-10
-2.81588e-10
2.11284e-09
-8.86675e-10
3.33688e-09
-1.5054e-09
3.48247e-09
-2.07735e-09
3.42082e-09
-2.5767e-09
3.26869e-09
-2.99012e-09
3.06759e-09
-3.30728e-09
2.82392e-09
-3.52397e-09
2.55428e-09
-3.64007e-09
2.27209e-09
-3.65888e-09
1.98971e-09
-3.58596e-09
1.71721e-09
-3.42828e-09
1.46234e-09
-3.19352e-09
1.23061e-09
-2.88945e-09
1.02558e-09
-2.52365e-09
8.49239e-10
-2.10334e-09
7.02561e-10
-1.63543e-09
5.8658e-10
-1.12707e-09
5.04246e-10
-5.84908e-10
4.54968e-10
3.58245e-10
-3.79065e-10
2.85364e-09
-1.10917e-09
4.43287e-09
-1.83723e-09
4.58811e-09
-2.49537e-09
4.47014e-09
-3.05585e-09
4.23481e-09
-3.50564e-09
3.93807e-09
-3.83645e-09
3.59104e-09
-4.04776e-09
3.2181e-09
-4.14349e-09
2.83714e-09
-4.13088e-09
2.46384e-09
-4.01893e-09
2.11007e-09
-3.81738e-09
1.78435e-09
-3.53595e-09
1.49219e-09
-3.18384e-09
1.23666e-09
-2.76949e-09
1.01899e-09
-2.30049e-09
8.39372e-10
-1.78383e-09
6.98238e-10
-1.22642e-09
5.98485e-10
-6.34436e-10
5.38843e-10
4.23364e-10
-4.99022e-10
3.72809e-09
-1.36596e-09
5.67931e-09
-2.20569e-09
5.81955e-09
-2.94457e-09
5.6149e-09
-3.55511e-09
5.26624e-09
-4.02658e-09
4.84606e-09
-4.35519e-09
4.37236e-09
-4.54614e-09
3.87858e-09
-4.60875e-09
3.38672e-09
-4.55501e-09
2.91514e-09
-4.39767e-09
2.47654e-09
-4.14922e-09
2.07917e-09
-3.82119e-09
1.72761e-09
-3.42385e-09
1.42368e-09
-2.96608e-09
1.16731e-09
-2.45554e-09
9.57424e-10
-1.89889e-09
7.93548e-10
-1.30246e-09
6.78222e-10
-6.7167e-10
6.09342e-10
4.77735e-10
-6.45735e-10
4.75669e-09
-1.66266e-09
7.08303e-09
-2.61503e-09
7.17124e-09
-3.42629e-09
6.83997e-09
-4.07263e-09
6.34171e-09
-4.54857e-09
5.76705e-09
-4.85781e-09
5.14319e-09
-5.01334e-09
4.51283e-09
-5.03098e-09
3.90086e-09
-4.92793e-09
3.32702e-09
-4.72061e-09
2.80328e-09
-4.42393e-09
2.33638e-09
-4.05079e-09
1.92893e-09
-3.61201e-09
1.58072e-09
-3.11655e-09
1.28979e-09
-2.57168e-09
1.05346e-09
-1.98349e-09
8.70071e-10
-1.35741e-09
7.41558e-10
-6.9793e-10
6.6488e-10
5.20217e-10
-8.24631e-10
5.96655e-09
-2.00546e-09
8.65276e-09
-3.0687e-09
8.63609e-09
-3.93989e-09
8.12738e-09
-4.60399e-09
7.43745e-09
-5.06467e-09
6.6754e-09
-5.33662e-09
5.87942e-09
-5.44227e-09
5.10001e-09
-5.40466e-09
4.36265e-09
-5.2461e-09
3.68642e-09
-4.98628e-09
3.08065e-09
-4.64186e-09
2.54911e-09
-4.22649e-09
2.0914e-09
-3.75105e-09
1.70459e-09
-3.22405e-09
1.38436e-09
-2.6521e-09
1.12618e-09
-2.04042e-09
9.27014e-10
-1.39341e-09
7.88006e-10
-7.14455e-10
7.05145e-10
5.50668e-10
-1.04283e-09
7.39284e-09
-2.40122e-09
1.0398e-08
-3.56923e-09
1.02037e-08
-4.48261e-09
9.45494e-09
-5.14234e-09
8.52672e-09
-5.56605e-09
7.5446e-09
-5.78279e-09
6.55818e-09
-5.82555e-09
5.62195e-09
-5.72459e-09
4.75867e-09
-5.50674e-09
3.98401e-09
-5.19405e-09
3.30253e-09
-4.80416e-09
2.71366e-09
-4.35073e-09
2.21301e-09
-3.84412e-09
1.79438e-09
-3.29204e-09
1.45083e-09
-2.70012e-09
1.1758e-09
-2.07255e-09
9.64811e-10
-1.41257e-09
8.18114e-10
-7.22435e-10
7.30737e-10
5.69647e-10
-1.31006e-09
9.08131e-09
-2.85746e-09
1.23269e-08
-4.11787e-09
1.18582e-08
-5.04937e-09
1.0795e-08
-5.67867e-09
9.57976e-09
-6.04256e-09
8.34796e-09
-6.18726e-09
7.15869e-09
-6.15639e-09
6.06381e-09
-5.98668e-09
5.07924e-09
-5.7083e-09
4.21411e-09
-5.34452e-09
3.46612e-09
-4.91299e-09
2.82909e-09
-4.42668e-09
2.29398e-09
-3.89492e-09
1.85098e-09
-3.32427e-09
1.49039e-09
-2.7192e-09
1.20362e-09
-2.08275e-09
9.84756e-10
-1.41697e-09
8.33127e-10
-7.23015e-10
7.42861e-10
5.7817e-10
-1.64024e-09
1.10923e-08
-3.38196e-09
1.44421e-08
-4.71411e-09
1.35763e-08
-5.63248e-09
1.21136e-08
-6.20208e-09
1.05644e-08
-6.48345e-09
9.05979e-09
-6.5415e-09
7.66318e-09
-6.42928e-09
6.4146e-09
-6.18842e-09
5.31859e-09
-5.8508e-09
4.37453e-09
-5.43962e-09
3.57148e-09
-4.97156e-09
2.89676e-09
-4.45826e-09
2.33631e-09
-3.9076e-09
1.8766e-09
-3.32474e-09
1.50522e-09
-2.71289e-09
1.21166e-09
-2.07389e-09
9.8868e-10
-1.40866e-09
8.34712e-10
-7.17298e-10
7.4309e-10
5.77492e-10
-2.05254e-09
1.3506e-08
-3.98189e-09
1.67349e-08
-5.35502e-09
1.53252e-08
-6.22144e-09
1.33696e-08
-6.70026e-09
1.14473e-08
-6.87812e-09
9.65674e-09
-6.83821e-09
8.05793e-09
-6.64042e-09
6.66761e-09
-6.32911e-09
5.47482e-09
-5.93586e-09
4.46619e-09
-5.48255e-09
3.62109e-09
-4.984e-09
2.91981e-09
-4.44998e-09
2.34325e-09
-3.88662e-09
1.87431e-09
-3.29759e-09
1.4981e-09
-2.68475e-09
1.20235e-09
-2.0488e-09
9.78692e-10
-1.38961e-09
8.2473e-10
-7.06288e-10
7.33106e-10
5.68999e-10
-2.57223e-09
1.64281e-08
-4.66245e-09
1.9177e-08
-6.03451e-09
1.70612e-08
-6.80304e-09
1.45155e-08
-7.16022e-09
1.21959e-08
-7.21681e-09
1.01193e-08
-7.07247e-09
8.33462e-09
-6.78814e-09
6.81995e-09
-6.40991e-09
5.54947e-09
-5.9666e-09
4.49258e-09
-5.47754e-09
3.61918e-09
-4.95503e-09
2.90255e-09
-4.4066e-09
2.31884e-09
-3.83652e-09
1.84771e-09
-3.24684e-09
1.4721e-09
-2.63818e-09
1.17831e-09
-2.01015e-09
9.57006e-10
-1.36165e-09
8.05098e-10
-6.90955e-10
7.1466e-10
5.54051e-10
-3.23335e-09
1.9999e-08
-5.4264e-09
2.17094e-08
-6.74271e-09
1.87284e-08
-7.36174e-09
1.54985e-08
-7.56999e-09
1.27817e-08
-7.49153e-09
1.04324e-08
-7.23926e-09
8.48842e-09
-6.87263e-09
6.87448e-09
-6.4336e-09
5.54723e-09
-5.94729e-09
4.45928e-09
-5.42961e-09
3.57133e-09
-4.88986e-09
2.85009e-09
-4.33315e-09
2.26753e-09
-3.76184e-09
1.80057e-09
-3.17647e-09
1.43038e-09
-2.57645e-09
1.14213e-09
-1.96043e-09
9.25777e-10
-1.32647e-09
7.77659e-10
-6.72156e-10
6.89406e-10
5.33942e-10
-4.07757e-09
2.44011e-08
-6.28158e-09
2.42392e-08
-7.46361e-09
2.02476e-08
-7.88438e-09
1.6269e-08
-7.91402e-09
1.3174e-08
-7.69612e-09
1.05907e-08
-7.33902e-09
8.52149e-09
-6.89642e-09
6.83653e-09
-6.4045e-09
5.475e-09
-5.88318e-09
4.37323e-09
-5.34423e-09
3.48382e-09
-4.79379e-09
2.76786e-09
-4.23454e-09
2.19387e-09
-3.66696e-09
1.73663e-09
-3.09019e-09
1.37597e-09
-2.50258e-09
1.09628e-09
-1.90194e-09
8.87024e-10
-1.28563e-09
7.44119e-10
-6.5066e-10
6.58868e-10
5.09849e-10
-5.13406e-09
2.9846e-08
-7.25631e-09
2.66734e-08
-8.17292e-09
2.1487e-08
-8.34555e-09
1.67765e-08
-8.18457e-09
1.33604e-08
-7.82779e-09
1.05942e-08
-7.37279e-09
8.44015e-09
-6.8636e-09
6.71489e-09
-6.328e-09
5.34134e-09
-5.78003e-09
4.24211e-09
-5.22708e-09
3.36322e-09
-4.67211e-09
2.6613e-09
-4.11546e-09
2.10229e-09
-3.55592e-09
1.65943e-09
-2.99139e-09
1.3117e-09
-2.41929e-09
1.04302e-09
-1.83671e-09
8.42573e-10
-1.24048e-09
7.06004e-10
-6.27147e-10
6.24404e-10
4.82814e-10
-6.46223e-09
3.66053e-08
-8.35219e-09
2.88611e-08
-8.84625e-09
2.22893e-08
-8.7348e-09
1.69849e-08
-8.3734e-09
1.33307e-08
-7.88615e-09
1.0451e-08
-7.34422e-09
8.25505e-09
-6.77964e-09
6.5204e-09
-6.21018e-09
5.15571e-09
-5.64387e-09
4.07388e-09
-5.08376e-09
3.21598e-09
-4.52982e-09
2.53557e-09
-3.98029e-09
1.99687e-09
-3.43245e-09
1.57221e-09
-2.88314e-09
1.24012e-09
-2.32899e-09
9.8435e-10
-1.76656e-09
7.94029e-10
-1.19221e-09
6.64645e-10
-6.02203e-10
5.87191e-10
4.53734e-10
-7.58352e-09
4.4472e-08
-9.49252e-09
3.10533e-08
-9.43524e-09
2.25256e-08
-9.03438e-09
1.68887e-08
-8.47687e-09
1.30892e-08
-7.87419e-09
1.0176e-08
-7.25912e-09
7.97989e-09
-6.65119e-09
6.265e-09
-6.05764e-09
4.92779e-09
-5.48081e-09
3.87624e-09
-4.91972e-09
3.04818e-09
-4.37168e-09
2.39543e-09
-3.83308e-09
1.88132e-09
-3.29992e-09
1.47782e-09
-2.76817e-09
1.16342e-09
-2.23385e-09
9.22002e-10
-1.69307e-09
7.42764e-10
-1.14189e-09
6.21163e-10
-5.76369e-10
5.48238e-10
4.2335e-10
4.78014e-10
-2.32991e-10
-5.01289e-10
-7.17077e-10
-1.4601e-09
-1.27344e-09
-2.44714e-09
-1.96454e-09
-3.50032e-09
-2.76159e-09
-4.5262e-09
-3.51078e-09
-5.26523e-09
-3.95364e-09
-3.3849e-09
-5.77799e-09
8.39416e-11
-2.43645e-10
-1.0809e-09
-7.37708e-10
-2.26219e-09
-1.27762e-09
-3.52297e-09
-1.88918e-09
-4.91684e-09
-2.55286e-09
-6.42715e-09
-3.18315e-09
-7.94102e-09
-3.61335e-09
-3.36198e-09
-8.7926e-09
-3.70839e-10
-2.48356e-10
-1.71461e-09
-7.28927e-10
-3.09018e-09
-1.23704e-09
-4.53734e-09
-1.77697e-09
-6.09659e-09
-2.32833e-09
-7.77622e-09
-2.83622e-09
-9.50332e-09
-3.20543e-09
-3.09342e-09
-1.06906e-08
-8.58365e-10
-2.56583e-10
-2.37386e-09
-6.97948e-10
-3.93301e-09
-1.16239e-09
-5.55509e-09
-1.63936e-09
-7.25733e-09
-2.11039e-09
-9.03732e-09
-2.53917e-09
-1.08338e-08
-2.86969e-09
-2.81679e-09
-1.21227e-08
-1.35314e-09
-2.74382e-10
-3.03448e-09
-6.5064e-10
-4.75862e-09
-1.07228e-09
-6.53604e-09
-1.49594e-09
-8.37678e-09
-1.90355e-09
-1.02728e-08
-2.27635e-09
-1.21715e-08
-2.57461e-09
-2.55392e-09
-1.35415e-08
-1.87131e-09
-2.87359e-10
-3.70356e-09
-6.01943e-10
-5.58384e-09
-9.75555e-10
-7.51312e-09
-1.35019e-09
-9.49334e-09
-1.70683e-09
-1.15186e-08
-2.03456e-09
-1.35346e-08
-2.30688e-09
-2.30558e-09
-1.49865e-08
-2.38487e-09
-2.87187e-10
-4.36642e-09
-5.53459e-10
-6.39565e-09
-8.79394e-10
-8.47375e-09
-1.20515e-09
-1.05983e-08
-1.51539e-09
-1.27629e-08
-1.80357e-09
-1.49142e-08
-2.05074e-09
-2.06163e-09
-1.64602e-08
-2.87052e-09
-2.70131e-10
-5.00656e-09
-5.00012e-10
-7.18911e-09
-7.79439e-10
-9.4182e-09
-1.05865e-09
-1.16907e-08
-1.32556e-09
-1.40017e-08
-1.57639e-09
-1.62996e-08
-1.7974e-09
-1.81586e-09
-1.79483e-08
-3.33069e-09
-2.4272e-10
-5.62375e-09
-4.39057e-10
-7.96124e-09
-6.74061e-10
-1.03434e-08
-9.08666e-10
-1.27674e-08
-1.13386e-09
-1.52298e-08
-1.34768e-09
-1.76836e-08
-1.54073e-09
-1.56345e-09
-1.94425e-08
-3.76664e-09
-2.08272e-10
-6.21649e-09
-3.70834e-10
-8.70966e-09
-5.62519e-10
-1.12464e-08
-7.53571e-10
-1.38246e-08
-9.37576e-10
-1.64422e-08
-1.11373e-09
-1.90593e-08
-1.27651e-09
-1.30071e-09
-2.09354e-08
-4.17643e-09
-1.68517e-10
-6.78252e-09
-2.95891e-10
-9.43175e-09
-4.44443e-10
-1.21244e-08
-5.92132e-10
-1.48588e-08
-7.3461e-10
-1.76339e-08
-8.72004e-10
-2.04208e-08
-1.00194e-09
-1.02481e-09
-2.24206e-08
-4.55552e-09
-1.24345e-10
-7.31752e-09
-2.14561e-10
-1.01231e-08
-3.19575e-10
-1.29723e-08
-4.23567e-10
-1.58643e-08
-5.2365e-10
-1.87981e-08
-6.21028e-10
-2.17602e-08
-7.15736e-10
-7.33932e-10
-2.38896e-08
-4.87919e-09
-7.66423e-11
-7.79603e-09
-1.27902e-10
-1.07565e-08
-1.89343e-10
-1.37605e-08
-2.49744e-10
-1.6808e-08
-3.0674e-10
-1.98983e-08
-3.62779e-10
-2.3037e-08
-4.20728e-10
-4.3103e-10
-2.52978e-08
-4.9808e-09
-2.98169e-11
-8.04358e-09
-4.48347e-11
-1.11467e-08
-6.59877e-11
-1.429e-08
-8.61303e-11
-1.74735e-08
-1.03383e-10
-2.06979e-08
-1.19642e-10
-2.39804e-08
-1.40953e-10
-1.50924e-10
-2.63521e-08
-4.17556e-09
-7.34962e-09
-1.05448e-08
-1.37603e-08
-1.69933e-08
-2.02436e-08
-2.35364e-08
-2.626e-08
-5.02494e-09
-9.02409e-10
-4.8184e-09
-2.21509e-10
-4.70091e-09
-1.19323e-10
-4.61996e-09
-8.12784e-11
-4.56044e-09
-5.95897e-11
-4.51408e-09
-4.6368e-11
-4.47559e-09
-3.84981e-11
-4.44135e-09
-3.42346e-11
-4.40889e-09
-3.24644e-11
-4.37645e-09
-3.24371e-11
-4.34282e-09
-3.36309e-11
-4.30714e-09
-3.56829e-11
-4.2688e-09
-3.83334e-11
-4.22741e-09
-4.13893e-11
-4.18269e-09
-4.47211e-11
-4.13445e-09
-4.82396e-11
-4.08259e-09
-5.18668e-11
-4.02704e-09
-5.55435e-11
-3.96782e-09
-5.9219e-11
-3.90497e-09
-6.28512e-11
-3.83856e-09
-6.64094e-11
-3.7687e-09
-6.9863e-11
-3.69553e-09
-7.31701e-11
-3.61925e-09
-7.62842e-11
-3.54009e-09
-7.91596e-11
-3.45837e-09
-8.17151e-11
-3.37465e-09
-8.37174e-11
-3.29005e-09
-8.46072e-11
-3.20658e-09
-8.34696e-11
-3.12716e-09
-7.94184e-11
-3.05362e-09
-7.3543e-11
-2.98265e-09
-7.09682e-11
-2.89887e-09
-8.37769e-11
-2.76366e-09
-1.35207e-10
-2.51081e-09
-2.5285e-10
-2.04538e-09
-4.65438e-10
-1.264e-09
-7.81374e-10
-9.42813e-11
-1.16972e-09
1.43524e-09
-1.52953e-09
3.14193e-09
-1.70669e-09
4.69044e-09
-1.54851e-09
5.65331e-09
-9.62873e-10
5.68958e-09
-3.62675e-11
4.80761e-09
8.81967e-10
3.42285e-09
1.38476e-09
2.18609e-09
1.23676e-09
1.68597e-09
5.00119e-10
2.32599e-09
-6.40022e-10
2.48355e-09
-1.57492e-10
8.60635e-09
-6.1165e-09
-9.10915e-09
-8.56901e-10
-9.18581e-09
-1.7696e-10
-9.2542e-09
-5.55145e-11
-9.3248e-09
-1.15251e-11
-9.39497e-09
1.0418e-11
-9.46373e-09
2.23639e-11
-9.53035e-09
2.81165e-11
-9.59412e-09
2.95343e-11
-9.65434e-09
2.77514e-11
-9.71032e-09
2.35409e-11
-9.76139e-09
1.74448e-11
-9.80691e-09
9.83795e-12
-9.84621e-09
9.64832e-13
-9.87862e-09
-8.97674e-12
-9.90357e-09
-1.97747e-11
-9.92056e-09
-3.12481e-11
-9.92915e-09
-4.32786e-11
-9.92891e-09
-5.57852e-11
-9.91942e-09
-6.87009e-11
-9.9003e-09
-8.19721e-11
-9.87115e-09
-9.55608e-11
-9.8316e-09
-1.09416e-10
-9.78129e-09
-1.23482e-10
-9.71984e-09
-1.3773e-10
-9.6469e-09
-1.52106e-10
-9.56236e-09
-1.66249e-10
-9.46711e-09
-1.78971e-10
-9.36378e-09
-1.87932e-10
-9.25673e-09
-1.90526e-10
-9.14881e-09
-1.87333e-10
-9.03424e-09
-1.88116e-10
-8.8859e-09
-2.19306e-10
-8.64273e-09
-3.26944e-10
-8.20823e-09
-5.69715e-10
-7.45816e-09
-1.00292e-09
-6.27978e-09
-1.64382e-09
-4.60698e-09
-2.45417e-09
-2.44891e-09
-3.3278e-09
7.7139e-11
-4.05557e-09
2.71489e-09
-4.34444e-09
5.07668e-09
-3.91029e-09
6.73015e-09
-2.61634e-09
7.34416e-09
-6.50281e-10
6.83347e-09
1.39265e-09
5.47801e-09
2.74022e-09
3.93669e-09
2.77809e-09
2.88123e-09
1.55558e-09
1.59099e-09
6.50229e-10
-3.57466e-09
5.00869e-09
1.76211e-08
-1.25438e-08
-1.12231e-08
-6.33288e-10
-1.14172e-08
-2.67466e-11
-1.15706e-08
9.06982e-11
-1.17095e-08
1.25938e-10
-1.18399e-08
1.40561e-10
-1.19646e-08
1.47084e-10
-1.20852e-08
1.48677e-10
-1.22023e-08
1.46632e-10
-1.23163e-08
1.41702e-10
-1.24271e-08
1.34422e-10
-1.25349e-08
1.25196e-10
-1.26394e-08
1.14328e-10
-1.27405e-08
1.02047e-10
-1.28379e-08
8.84939e-11
-1.29315e-08
7.37532e-11
-1.30206e-08
5.7887e-11
-1.31048e-08
4.09307e-11
-1.31835e-08
2.28753e-11
-1.32558e-08
3.67954e-12
-1.33212e-08
-1.66429e-11
-1.33787e-08
-3.80112e-11
-1.34277e-08
-6.04112e-11
-1.34673e-08
-8.39395e-11
-1.34963e-08
-1.08678e-10
-1.35141e-08
-1.3436e-10
-1.35206e-08
-1.5974e-10
-1.35174e-08
-1.82196e-10
-1.35063e-08
-1.99005e-10
-1.3485e-08
-2.11791e-10
-1.34382e-08
-2.34119e-10
-1.33272e-08
-2.99158e-10
-1.3085e-08
-4.61477e-10
-1.26242e-08
-7.87733e-10
-1.18558e-08
-1.33814e-09
-1.07139e-08
-2.1448e-09
-9.16489e-09
-3.19286e-09
-7.21796e-09
-4.4011e-09
-4.94416e-09
-5.6016e-09
-2.4384e-09
-6.56132e-09
8.10123e-11
-6.86386e-09
2.3076e-09
-6.13688e-09
3.89821e-09
-4.20695e-09
4.6158e-09
-1.36786e-09
4.42906e-09
1.57939e-09
3.56733e-09
3.60195e-09
2.35662e-09
3.9888e-09
7.83866e-10
3.12833e-09
-3.00704e-09
4.44116e-09
-1.0101e-08
1.21035e-08
2.40313e-08
-1.64643e-08
-1.2703e-08
-4.0027e-10
-1.29203e-08
1.35444e-10
-1.30846e-08
2.45402e-10
-1.32332e-08
2.72649e-10
-1.33736e-08
2.80584e-10
-1.35086e-08
2.82076e-10
-1.364e-08
2.80022e-10
-1.37687e-08
2.75338e-10
-1.38955e-08
2.68471e-10
-1.40208e-08
2.59731e-10
-1.41449e-08
2.49358e-10
-1.42681e-08
2.3754e-10
-1.43905e-08
2.24416e-10
-1.45121e-08
2.10074e-10
-1.46329e-08
1.9455e-10
-1.47528e-08
1.7785e-10
-1.48719e-08
1.59962e-10
-1.49899e-08
1.40857e-10
-1.51067e-08
1.20493e-10
-1.52221e-08
9.87804e-11
-1.53357e-08
7.55613e-11
-1.54467e-08
5.05944e-11
-1.55542e-08
2.35854e-11
-1.56573e-08
-5.54567e-12
-1.57556e-08
-3.61082e-11
-1.58489e-08
-6.64178e-11
-1.59361e-08
-9.5021e-11
-1.60104e-08
-1.24685e-10
-1.6053e-08
-1.69225e-10
-1.60272e-08
-2.59903e-10
-1.58802e-08
-4.46109e-10
-1.55545e-08
-7.87214e-10
-1.50037e-08
-1.33857e-09
-1.42025e-08
-2.1393e-09
-1.3143e-08
-3.20432e-09
-1.1823e-08
-4.51285e-09
-1.02421e-08
-5.98202e-09
-8.41464e-09
-7.42901e-09
-6.4614e-09
-8.51456e-09
-4.50379e-09
-8.82147e-09
-2.75709e-09
-7.88358e-09
-1.44692e-09
-5.51712e-09
-7.46785e-10
-2.068e-09
-6.74731e-10
1.50733e-09
-1.05963e-09
3.98685e-09
-2.09395e-09
5.02312e-09
-4.89562e-09
5.93001e-09
-1.03088e-08
9.85433e-09
-1.62895e-08
1.80856e-08
2.71647e-08
-1.93752e-08
-1.41382e-08
-1.88101e-10
-1.43541e-08
2.86338e-10
-1.45054e-08
3.84821e-10
-1.46392e-08
4.04213e-10
-1.47654e-08
4.06286e-10
-1.48869e-08
4.03585e-10
-1.50056e-08
3.98668e-10
-1.51224e-08
3.92139e-10
-1.52381e-08
3.84207e-10
-1.53534e-08
3.75005e-10
-1.54687e-08
3.64642e-10
-1.55844e-08
3.53207e-10
-1.57007e-08
3.40768e-10
-1.5818e-08
3.27361e-10
-1.59365e-08
3.12998e-10
-1.60563e-08
2.97667e-10
-1.61777e-08
2.81337e-10
-1.63008e-08
2.63961e-10
-1.64257e-08
2.45459e-10
-1.65526e-08
2.25687e-10
-1.66815e-08
2.04401e-10
-1.68121e-08
1.81273e-10
-1.69445e-08
1.55978e-10
-1.70785e-08
1.28462e-10
-1.72138e-08
9.91306e-11
-1.73484e-08
6.81702e-11
-1.74762e-08
3.27541e-11
-1.75827e-08
-1.80962e-11
-1.76433e-08
-1.087e-10
-1.76255e-08
-2.7766e-10
-1.74998e-08
-5.71779e-10
-1.72505e-08
-1.03651e-09
-1.68784e-08
-1.71076e-09
-1.63892e-08
-2.62846e-09
-1.57775e-08
-3.81605e-09
-1.50215e-08
-5.26877e-09
-1.41002e-08
-6.90332e-09
-1.30226e-08
-8.50662e-09
-1.18266e-08
-9.71061e-09
-1.06134e-08
-1.00346e-08
-9.49392e-09
-9.00308e-09
-8.55968e-09
-6.45137e-09
-7.85237e-09
-2.77531e-09
-7.4569e-09
1.11187e-09
-7.76905e-09
4.299e-09
-9.41713e-09
6.6712e-09
-1.29658e-08
9.47872e-09
-1.75914e-08
1.44799e-08
-2.09965e-08
2.14921e-08
2.73143e-08
-2.10975e-08
-1.55876e-08
-7.3683e-12
-1.57886e-08
4.13797e-10
-1.59175e-08
5.00078e-10
-1.60289e-08
5.12973e-10
-1.61337e-08
5.10566e-10
-1.62349e-08
5.0471e-10
-1.6334e-08
4.97701e-10
-1.64318e-08
4.89956e-10
-1.65291e-08
4.81536e-10
-1.66266e-08
4.72455e-10
-1.67247e-08
4.62731e-10
-1.68238e-08
4.52382e-10
-1.69245e-08
4.41425e-10
-1.7027e-08
4.29869e-10
-1.71317e-08
4.17709e-10
-1.7239e-08
4.04929e-10
-1.73491e-08
3.91496e-10
-1.74625e-08
3.77358e-10
-1.75795e-08
3.62427e-10
-1.77003e-08
3.46542e-10
-1.78254e-08
3.29446e-10
-1.79549e-08
3.10798e-10
-1.80892e-08
2.90263e-10
-1.82284e-08
2.67623e-10
-1.83717e-08
2.42459e-10
-1.85161e-08
2.12593e-10
-1.86541e-08
1.70752e-10
-1.87728e-08
1.00582e-10
-1.88567e-08
-2.47381e-11
-1.88957e-08
-2.38662e-10
-1.88928e-08
-5.74731e-10
-1.88644e-08
-1.06492e-09
-1.88279e-08
-1.74721e-09
-1.87838e-08
-2.67261e-09
-1.8709e-08
-3.89084e-09
-1.85727e-08
-5.40502e-09
-1.83603e-08
-7.11572e-09
-1.80815e-08
-8.78546e-09
-1.7754e-08
-1.00381e-08
-1.73883e-08
-1.04002e-08
-1.69685e-08
-9.42292e-09
-1.64944e-08
-6.92543e-09
-1.60572e-08
-3.2125e-09
-1.59131e-08
9.67733e-10
-1.64747e-08
4.86059e-09
-1.81439e-08
8.34044e-09
-2.07876e-08
1.21224e-08
-2.31663e-08
1.68587e-08
-2.37508e-08
2.20783e-08
2.52867e-08
-2.16738e-08
-1.70636e-08
1.41698e-10
-1.7245e-08
5.14803e-10
-1.73481e-08
5.88166e-10
-1.74337e-08
5.95688e-10
-1.75139e-08
5.9017e-10
-1.75916e-08
5.82323e-10
-1.76681e-08
5.74149e-10
-1.7744e-08
5.65936e-10
-1.78202e-08
5.5766e-10
-1.7897e-08
5.49266e-10
-1.7975e-08
5.40714e-10
-1.80546e-08
5.31983e-10
-1.81362e-08
5.23061e-10
-1.82203e-08
5.13943e-10
-1.83072e-08
5.04626e-10
-1.83974e-08
4.951e-10
-1.84912e-08
4.85351e-10
-1.85892e-08
4.75347e-10
-1.86918e-08
4.65021e-10
-1.87995e-08
4.54243e-10
-1.89129e-08
4.42798e-10
-1.90325e-08
4.30395e-10
-1.91589e-08
4.16719e-10
-1.92926e-08
4.01327e-10
-1.94331e-08
3.82926e-10
-1.9578e-08
3.5751e-10
-1.97229e-08
3.1563e-10
-1.9863e-08
2.4073e-10
-1.99988e-08
1.11014e-10
-2.01416e-08
-9.58351e-11
-2.0315e-08
-4.01295e-10
-2.0545e-08
-8.34934e-10
-2.08428e-08
-1.44939e-09
-2.11952e-08
-2.32028e-09
-2.15745e-08
-3.51151e-09
-2.19636e-08
-5.01594e-09
-2.23701e-08
-6.70921e-09
-2.28142e-08
-8.34133e-09
-2.3297e-08
-9.55533e-09
-2.37724e-08
-9.92486e-09
-2.41465e-08
-9.04887e-09
-2.43375e-08
-6.73436e-09
-2.43659e-08
-3.18415e-09
-2.44223e-08
1.02413e-09
-2.47777e-08
5.21598e-09
-2.55537e-08
9.11646e-09
-2.63658e-08
1.29346e-08
-2.63535e-08
1.68464e-08
-2.47678e-08
2.04943e-08
2.20396e-08
-2.14704e-08
-1.8552e-08
2.59088e-10
-1.87094e-08
5.87018e-10
-1.87843e-08
6.47244e-10
-1.88423e-08
6.50627e-10
-1.88961e-08
6.43418e-10
-1.89487e-08
6.34822e-10
-1.90011e-08
6.26515e-10
-1.90539e-08
6.18693e-10
-1.91075e-08
6.11289e-10
-1.91625e-08
6.04217e-10
-1.92192e-08
5.97414e-10
-1.9278e-08
5.9084e-10
-1.93394e-08
5.84478e-10
-1.94038e-08
5.78326e-10
-1.94716e-08
5.72391e-10
-1.95432e-08
5.6669e-10
-1.96191e-08
5.61243e-10
-1.96998e-08
5.56061e-10
-1.97859e-08
5.51138e-10
-1.98781e-08
5.46421e-10
-1.99771e-08
5.41804e-10
-2.00838e-08
5.37138e-10
-2.01993e-08
5.32225e-10
-2.03246e-08
5.26587e-10
-2.04603e-08
5.18615e-10
-2.06067e-08
5.0394e-10
-2.0765e-08
4.73871e-10
-2.09399e-08
4.15719e-10
-2.11448e-08
3.1585e-10
-2.14027e-08
1.62047e-10
-2.17416e-08
-6.23175e-11
-2.21816e-08
-3.94927e-10
-2.27226e-08
-9.08481e-10
-2.33458e-08
-1.69707e-09
-2.4032e-08
-2.82529e-09
-2.4781e-08
-4.26696e-09
-2.56145e-08
-5.87564e-09
-2.65574e-08
-7.39844e-09
-2.7604e-08
-8.50877e-09
-2.86851e-08
-8.84378e-09
-2.96605e-08
-8.07347e-09
-3.03652e-08
-6.02966e-09
-3.06983e-08
-2.85102e-09
-3.06881e-08
1.01395e-09
-3.04525e-08
4.98038e-09
-3.00186e-08
8.68257e-09
-2.91434e-08
1.20593e-08
-2.74315e-08
1.51346e-08
-2.46401e-08
1.77048e-08
1.8428e-08
-2.09775e-08
-2.00442e-08
3.45054e-10
-2.01738e-08
6.28877e-10
-2.02189e-08
6.76203e-10
-2.02481e-08
6.76744e-10
-2.02745e-08
6.69236e-10
-2.03009e-08
6.61132e-10
-2.03282e-08
6.5375e-10
-2.03567e-08
6.47223e-10
-2.03869e-08
6.4147e-10
-2.04191e-08
6.36403e-10
-2.04536e-08
6.3196e-10
-2.04909e-08
6.28106e-10
-2.05312e-08
6.24833e-10
-2.0575e-08
6.22158e-10
-2.06228e-08
6.20115e-10
-2.06748e-08
6.1876e-10
-2.07318e-08
6.18164e-10
-2.07941e-08
6.18409e-10
-2.08626e-08
6.1958e-10
-2.09379e-08
6.21753e-10
-2.10211e-08
6.25002e-10
-2.11134e-08
6.29412e-10
-2.12162e-08
6.35072e-10
-2.13315e-08
6.41836e-10
-2.14614e-08
6.48608e-10
-2.16098e-08
6.52264e-10
-2.1783e-08
6.47094e-10
-2.19933e-08
6.25987e-10
-2.226e-08
5.82549e-10
-2.26076e-08
5.09637e-10
-2.30581e-08
3.88222e-10
-2.36218e-08
1.68738e-10
-2.42928e-08
-2.37426e-10
-2.50568e-08
-9.33086e-10
-2.59048e-08
-1.97728e-09
-2.68419e-08
-3.32988e-09
-2.7884e-08
-4.83355e-09
-2.9044e-08
-6.23844e-09
-3.03077e-08
-7.24507e-09
-3.16023e-08
-7.54912e-09
-3.27775e-08
-6.89828e-09
-3.36296e-08
-5.17759e-09
-3.39787e-08
-2.50187e-09
-3.37381e-08
7.73327e-10
-3.29381e-08
4.18031e-09
-3.16205e-08
7.36504e-09
-2.9742e-08
1.01808e-08
-2.72225e-08
1.26151e-08
-2.40684e-08
1.45526e-08
1.4988e-08
-2.05766e-08
-2.15329e-08
4.00053e-10
-2.1631e-08
6.39288e-10
-2.16449e-08
6.74434e-10
-2.16446e-08
6.73475e-10
-2.16429e-08
6.66983e-10
-2.16424e-08
6.60537e-10
-2.16438e-08
6.55097e-10
-2.16473e-08
6.50746e-10
-2.16533e-08
6.47412e-10
-2.16619e-08
6.45026e-10
-2.16735e-08
6.43544e-10
-2.16883e-08
6.42953e-10
-2.17068e-08
6.43266e-10
-2.17291e-08
6.4453e-10
-2.17558e-08
6.46818e-10
-2.17873e-08
6.50236e-10
-2.18241e-08
6.54919e-10
-2.18667e-08
6.61033e-10
-2.19159e-08
6.68774e-10
-2.19725e-08
6.78383e-10
-2.20377e-08
6.90153e-10
-2.21127e-08
7.04469e-10
-2.21995e-08
7.21843e-10
-2.23005e-08
7.42801e-10
-2.24193e-08
7.67445e-10
-2.2562e-08
7.94949e-10
-2.27384e-08
8.23511e-10
-2.29637e-08
8.51257e-10
-2.32571e-08
8.76012e-10
-2.36382e-08
8.90721e-10
-2.41204e-08
8.70448e-10
-2.47082e-08
7.56489e-10
-2.53996e-08
4.53945e-10
-2.61929e-08
-1.39717e-10
-2.70904e-08
-1.07982e-09
-2.80941e-08
-2.32616e-09
-2.92004e-08
-3.72722e-09
-3.03934e-08
-5.04545e-09
-3.16353e-08
-6.00322e-09
-3.28484e-08
-6.33598e-09
-3.38983e-08
-5.84838e-09
-3.46015e-08
-4.4744e-09
-3.47764e-08
-2.32702e-09
-3.4309e-08
3.06005e-10
-3.31911e-08
3.06231e-09
-3.14894e-08
5.66343e-09
-2.92748e-08
7.96618e-09
-2.66071e-08
9.9474e-09
-2.35659e-08
1.15133e-08
1.18821e-08
-2.04074e-08
-2.30112e-08
4.24495e-10
-2.3074e-08
6.173e-10
-2.30557e-08
6.41581e-10
-2.30254e-08
6.40516e-10
-2.29952e-08
6.36235e-10
-2.29672e-08
6.32482e-10
-2.29421e-08
6.29883e-10
-2.29198e-08
6.28485e-10
-2.29006e-08
6.2824e-10
-2.28847e-08
6.2911e-10
-2.28722e-08
6.31077e-10
-2.28634e-08
6.34155e-10
-2.28586e-08
6.38389e-10
-2.28579e-08
6.43851e-10
-2.28617e-08
6.50652e-10
-2.28704e-08
6.58948e-10
-2.28844e-08
6.68928e-10
-2.29042e-08
6.80825e-10
-2.29304e-08
6.94938e-10
-2.29637e-08
7.1164e-10
-2.30049e-08
7.31416e-10
-2.30553e-08
7.54899e-10
-2.31165e-08
7.83001e-10
-2.31907e-08
8.17006e-10
-2.32816e-08
8.58304e-10
-2.33951e-08
9.08447e-10
-2.35405e-08
9.68932e-10
-2.3731e-08
1.04176e-09
-2.3981e-08
1.12605e-09
-2.43031e-08
1.21278e-09
-2.47053e-08
1.27263e-09
-2.51943e-08
1.24551e-09
-2.57816e-08
1.04124e-09
-2.64851e-08
5.63756e-10
-2.73288e-08
-2.36121e-10
-2.83223e-08
-1.33261e-09
-2.94498e-08
-2.59978e-09
-3.06635e-08
-3.83169e-09
-3.18842e-08
-4.78255e-09
-3.30036e-08
-5.21657e-09
-3.3889e-08
-4.96296e-09
-3.43935e-08
-3.96988e-09
-3.43832e-08
-2.33739e-09
-3.37776e-08
-2.99611e-10
-3.25716e-08
1.85637e-09
-3.08312e-08
3.92297e-09
-2.86494e-08
5.78446e-09
-2.6111e-08
7.40905e-09
-2.32903e-08
8.69418e-09
9.03476e-09
-2.03897e-08
-2.44696e-08
4.18043e-10
-2.44923e-08
5.6133e-10
-2.44401e-08