/*--------------------------------*- C++ -*----------------------------------*\
  =========                 |
  \\      /  F ield         | OpenFOAM: The Open Source CFD Toolbox
   \\    /   O peration     | Website:  https://openfoam.org
    \\  /    A nd           | Version:  13
     \\/     M anipulation  |
\*---------------------------------------------------------------------------*/
FoamFile
{
    format      ascii;
    class       volVectorField;
    location    "0.0005";
    object      U;
}
// * * * * * * * * * * * * * * * * * * * * * * * * * * * * * * * * * * * * * //

dimensions      [0 1 -1 0 0 0 0];

internalField   nonuniform List<vector> 
1690
(
(0.421283 -0.0015947 2.15091e-17)
(0.446167 -0.00482382 -5.51339e-18)
(0.499137 -0.00818829 2.39359e-17)
(0.578508 -0.0114865 1.1243e-16)
(0.684981 -0.0139336 3.31897e-17)
(0.801011 -0.0151016 1.2908e-17)
(0.930908 -0.0120091 5.30625e-17)
(0.99302 -0.00401664 3.34267e-17)
(0.419025 -0.00409449 6.79586e-18)
(0.443865 -0.0125338 9.93259e-18)
(0.496858 -0.0213263 5.72298e-17)
(0.576612 -0.0299479 1.56356e-16)
(0.68369 -0.0365906 1.3037e-16)
(0.801193 -0.0393849 1.05346e-16)
(0.932148 -0.0319895 7.77673e-17)
(0.993432 -0.0100919 3.15672e-17)
(0.414763 -0.0065254 -2.90351e-19)
(0.439508 -0.0199235 1.18217e-17)
(0.492518 -0.0339515 7.93658e-17)
(0.572792 -0.0478331 1.43466e-16)
(0.681227 -0.059019 1.34475e-16)
(0.8013 -0.06308 1.07396e-16)
(0.934553 -0.0519286 -7.89946e-18)
(0.99462 -0.0147271 -1.57064e-17)
(0.408343 -0.00905102 -6.09981e-18)
(0.432934 -0.027652 1.29381e-17)
(0.485897 -0.047277 5.49254e-17)
(0.566806 -0.06694 8.9632e-17)
(0.677384 -0.0832423 5.30267e-17)
(0.801373 -0.0889392 1.222e-17)
(0.9385 -0.0730497 -1.37364e-16)
(0.997144 -0.0190124 -1.007e-16)
(0.399768 -0.01156 -2.5647e-18)
(0.424096 -0.0353933 2.21306e-18)
(0.476877 -0.060789 1.58289e-17)
(0.558463 -0.0866687 1.64817e-17)
(0.671942 -0.108731 -1.96628e-17)
(0.801487 -0.116567 -5.27579e-17)
(0.944392 -0.0947459 -1.92259e-16)
(1.00108 -0.0222617 -1.46538e-16)
(0.389069 -0.0140176 -5.97115e-19)
(0.412987 -0.0430386 -1.58473e-18)
(0.465351 -0.0743514 -9.68823e-18)
(0.547523 -0.106978 -4.25917e-17)
(0.664605 -0.135735 -8.21217e-17)
(0.801749 -0.146451 -6.79535e-17)
(0.952876 -0.117098 -1.50848e-16)
(1.00669 -0.0238099 -1.32014e-16)
(0.376297 -0.0163946 -4.3092e-19)
(0.399609 -0.0505064 -1.11119e-18)
(0.451189 -0.0878725 -2.60395e-17)
(0.533647 -0.127914 -8.82877e-17)
(0.654898 -0.164712 -1.02898e-16)
(0.802117 -0.179441 -3.83391e-17)
(0.964526 -0.140343 -8.24491e-17)
(1.01437 -0.0229086 -1.00915e-16)
(0.361531 -0.0186531 -3.69071e-18)
(0.383988 -0.0576852 -4.18471e-18)
(0.434239 -0.101195 -3.00575e-17)
(0.51635 -0.149448 -1.04562e-16)
(0.64196 -0.196157 -1.00203e-16)
(0.801597 -0.216581 -2.39278e-17)
(0.978376 -0.164813 -3.6131e-17)
(1.02427 -0.0187683 -7.15923e-17)
(0.34489 -0.0207455 -1.43662e-18)
(0.366182 -0.0644194 -4.98267e-18)
(0.414336 -0.114051 -4.02103e-17)
(0.494942 -0.171379 -1.01095e-16)
(0.624108 -0.230354 -8.49748e-17)
(0.796388 -0.258766 -1.17947e-17)
(0.988745 -0.191242 -1.46148e-17)
(1.03537 -0.0112202 -5.74416e-17)
(0.326545 -0.0226145 -7.20946e-19)
(0.346308 -0.0705031 -4.06591e-18)
(0.391324 -0.126015 -4.26762e-17)
(0.468504 -0.193101 -8.77718e-17)
(0.598334 -0.266676 -6.81023e-17)
(0.778045 -0.305716 -1.61931e-17)
(0.982296 -0.221236 -4.45165e-18)
(1.0439 -0.00200085 -4.21721e-17)
(0.306728 -0.0241951 -5.83385e-21)
(0.324562 -0.0756779 -5.19967e-18)
(0.36515 -0.136449 -3.52522e-17)
(0.436157 -0.213326 -7.74186e-17)
(0.560513 -0.302578 -5.78545e-17)
(0.734925 -0.354217 -1.52678e-17)
(0.94051 -0.257128 9.2382e-18)
(1.04235 0.00358525 -1.57431e-17)
(0.285733 -0.025419 6.88378e-19)
(0.301247 -0.0796476 -6.33345e-18)
(0.336088 -0.144557 -3.48687e-17)
(0.397853 -0.230157 -6.44513e-17)
(0.507454 -0.333515 -4.32662e-17)
(0.658947 -0.397613 -1.00901e-17)
(0.850192 -0.300328 2.26614e-17)
(1.01962 -0.00443055 6.73889e-18)
(0.263903 -0.0262248 3.93505e-20)
(0.276814 -0.0821467 -6.70941e-18)
(0.305035 -0.149619 -3.01529e-17)
(0.355157 -0.241278 -5.15441e-17)
(0.440474 -0.354128 -4.30856e-17)
(0.55365 -0.429514 -6.36025e-18)
(0.714956 -0.348749 2.71603e-17)
(0.957575 -0.03262 2.04848e-17)
(0.241601 -0.0265821 -1.77979e-19)
(0.251875 -0.0831218 -7.23528e-18)
(0.273618 -0.151459 -2.46711e-17)
(0.311098 -0.245363 -3.85612e-17)
(0.367604 -0.360824 -3.32169e-17)
(0.435766 -0.446258 -1.42899e-19)
(0.55439 -0.401607 3.01972e-17)
(0.826363 -0.117367 3.26077e-17)
(0.219158 -0.0265469 -3.34402e-19)
(0.22713 -0.0828913 -5.10265e-18)
(0.243428 -0.15072 -1.7907e-17)
(0.269259 -0.242952 -3.08844e-17)
(0.30029 -0.354375 -2.94636e-17)
(0.328727 -0.445813 -6.40666e-18)
(0.390754 -0.452241 2.24512e-17)
(0.614296 -0.272125 1.7031e-17)
(0.950402 0.0273934 -8.37917e-15)
(0.939691 0.04251 -2.74624e-15)
(0.819236 0.0443758 2.44469e-15)
(0.749971 0.0424846 2.62939e-15)
(0.663148 0.0402131 1.69226e-15)
(0.582624 0.0373233 -3.95501e-15)
(0.505482 0.0340631 -1.40232e-14)
(0.43324 0.0305622 -1.50171e-14)
(0.366641 0.026964 -5.05851e-15)
(0.306272 0.0234009 -2.20534e-15)
(0.252421 0.0199881 -6.46261e-15)
(0.205118 0.0168176 -9.81625e-15)
(0.164157 0.0139565 -1.52819e-14)
(0.129137 0.011447 -1.23939e-14)
(0.0994981 0.00930986 -1.18418e-15)
(0.0745645 0.00754955 -3.18726e-15)
(0.0535706 0.00616527 4.26858e-16)
(0.0355978 0.00516836 1.80094e-14)
(0.0195514 0.00452985 2.09396e-14)
(0.00520528 0.00348035 9.90624e-16)
(0.949786 0.0654561 -3.74889e-15)
(0.937856 0.102439 -3.68586e-16)
(0.816366 0.105673 5.67454e-15)
(0.745339 0.101777 3.96841e-15)
(0.65787 0.0960639 5.53663e-15)
(0.576513 0.0891242 1.47473e-15)
(0.498967 0.0812861 -8.53203e-15)
(0.426608 0.0728815 -9.28349e-15)
(0.360161 0.0642497 -5.86478e-16)
(0.300162 0.05571 6.01793e-15)
(0.246842 0.047539 5.6844e-15)
(0.200175 0.0399572 4.70602e-15)
(0.159904 0.0331239 -3.36401e-15)
(0.125582 0.0271381 -5.25771e-15)
(0.0966182 0.022047 1.42242e-15)
(0.0723172 0.0178583 3.86338e-15)
(0.051904 0.0145678 6.80285e-15)
(0.0344596 0.0122023 8.59296e-15)
(0.018903 0.010694 1.14812e-14)
(0.00501614 0.00817879 2.3154e-15)
(0.949671 0.104307 -2.15563e-16)
(0.933543 0.163507 2.03095e-15)
(0.809938 0.167407 2.1455e-15)
(0.736615 0.161337 1.81558e-15)
(0.647061 0.151647 3.78015e-15)
(0.564482 0.140216 3.14306e-15)
(0.486237 0.127391 -1.02144e-15)
(0.413756 0.113759 -4.2824e-15)
(0.347687 0.099874 -3.33637e-15)
(0.28847 0.0862469 3.08611e-16)
(0.236225 0.0733076 3.14623e-15)
(0.190813 0.0613867 2.50772e-15)
(0.15188 0.0507123 -9.68961e-17)
(0.1189 0.0414163 -6.47018e-16)
(0.0912227 0.03355 5.93644e-16)
(0.0681178 0.0271064 9.2696e-16)
(0.0487963 0.0220626 1.89529e-15)
(0.0323474 0.0184476 5.24095e-15)
(0.0177218 0.0161509 1.50987e-14)
(0.00470279 0.0123329 5.69008e-15)
(0.949806 0.144838 2.42628e-15)
(0.927143 0.225375 2.69637e-15)
(0.800403 0.229754 -1.78333e-16)
(0.723864 0.220774 -7.4992e-16)
(0.631261 0.206663 -9.51513e-16)
(0.547092 0.190262 1.37365e-16)
(0.467975 0.17203 1.70084e-15)
(0.395474 0.152853 7.45306e-17)
(0.330092 0.133518 -3.53077e-16)
(0.272114 0.114726 5.20045e-16)
(0.221489 0.0970474 2.31518e-15)
(0.177918 0.0808986 1.18938e-15)
(0.140904 0.0665506 -7.09613e-16)
(0.109815 0.0541421 -5.60977e-16)
(0.0839261 0.0437058 -9.59267e-17)
(0.0624645 0.0352016 4.32985e-16)
(0.044628 0.0285739 -8.23773e-16)
(0.0295224 0.0238399 -1.66728e-15)
(0.0161415 0.0208385 2.15913e-15)
(0.00427069 0.0158851 -1.88445e-15)
(0.94977 0.186989 1.4356e-15)
(0.918535 0.288029 6.31534e-16)
(0.787681 0.292252 -7.90289e-16)
(0.706914 0.279498 -1.3894e-15)
(0.610606 0.260254 -2.15686e-15)
(0.524633 0.238219 -6.76727e-16)
(0.444665 0.214036 1.16277e-15)
(0.372422 0.18895 7.61045e-16)
(0.308165 0.163985 3.9681e-16)
(0.251959 0.140024 4.28396e-16)
(0.203519 0.117742 8.14809e-16)
(0.162341 0.0976039 -4.04669e-16)
(0.12776 0.0798823 -1.06814e-15)
(0.0990186 0.0646859 -1.15312e-15)
(0.0753124 0.0519989 6.65244e-16)
(0.0558279 0.0417256 2.74913e-15)
(0.0397569 0.033761 4.57025e-15)
(0.0262329 0.0280954 3.16211e-15)
(0.014308 0.0245126 8.85837e-16)
(0.00377401 0.0186501 1.02429e-15)
(0.949375 0.231582 2.67772e-17)
(0.907443 0.352233 -1.61533e-15)
(0.771491 0.355295 -1.53787e-15)
(0.685503 0.337736 -1.52648e-15)
(0.585057 0.312428 -8.62634e-16)
(0.497258 0.283946 1.87464e-16)
(0.416662 0.253179 7.38248e-16)
(0.345135 0.221789 -4.35302e-16)
(0.28257 0.191032 -6.5352e-16)
(0.228738 0.16194 -1.36336e-15)
(0.183065 0.135246 -1.84966e-15)
(0.144805 0.111411 -8.31834e-16)
(0.113108 0.0906622 5.47281e-16)
(0.0870867 0.0730377 4.07151e-16)
(0.0658629 0.0584435 2.14552e-16)
(0.0485924 0.0467073 1.45617e-15)
(0.0344725 0.0376605 3.23866e-15)
(0.0226782 0.0312539 4.01538e-15)
(0.0123342 0.0272132 -1.15694e-15)
(0.00324169 0.0206627 -4.89325e-15)
(0.948421 0.279652 -4.62529e-16)
(0.893475 0.418887 -2.20267e-15)
(0.751379 0.419438 -1.56415e-15)
(0.659226 0.395767 -1.23426e-15)
(0.554437 0.363238 1.446e-18)
(0.465006 0.327339 1.18586e-15)
(0.384235 0.289287 6.94081e-16)
(0.314071 0.251199 -8.98858e-16)
(0.253893 0.214527 -1.22747e-15)
(0.203104 0.180399 -1.38091e-15)
(0.160789 0.149542 -1.40686e-15)
(0.125937 0.122352 -6.20042e-16)
(0.097511 0.0989564 -4.17866e-16)
(0.0745043 0.0792844 -3.53571e-16)
(0.0559776 0.0631355 -3.89259e-16)
(0.0410732 0.0502436 5.13886e-16)
(0.0290101 0.0403656 3.25661e-16)
(0.0190191 0.0334028 1.64547e-15)
(0.0103105 0.0290233 -6.62829e-16)
(0.00269837 0.0219912 -1.96375e-15)
(0.946632 0.332313 -3.02067e-16)
(0.876086 0.488811 -1.03474e-15)
(0.726729 0.485082 -5.95147e-16)
(0.627563 0.453655 -3.31831e-16)
(0.518501 0.412523 4.15927e-16)
(0.427893 0.368118 1.34285e-15)
(0.347655 0.322065 7.26405e-16)
(0.279695 0.276941 -3.98003e-16)
(0.222713 0.23432 -6.46098e-16)
(0.17568 0.195347 -3.21086e-16)
(0.137302 0.160657 -8.77215e-17)
(0.1063 0.130512 -8.57428e-16)
(0.081461 0.104886 -2.61533e-15)
(0.0616822 0.0835642 -2.65129e-15)
(0.0459872 0.0662162 -1.29564e-15)
(0.0335261 0.0524698 -3.48167e-16)
(0.0235573 0.042001 1.1017e-16)
(0.0153818 0.0346562 7.73407e-16)
(0.00830709 0.030049 -6.36256e-16)
(0.00216301 0.0227215 8.49146e-17)
(0.943629 0.390831 -1.07485e-16)
(0.854549 0.56278 1.57928e-16)
(0.696753 0.552475 6.30865e-16)
(0.589911 0.51126 2.00175e-16)
(0.476996 0.459933 2.17806e-16)
(0.385978 0.40586 4.15193e-16)
(0.307255 0.351148 3.68816e-16)
(0.242516 0.298767 7.75649e-17)
(0.189625 0.250295 2.68519e-16)
(0.147072 0.206783 1.90346e-16)
(0.113171 0.168679 -1.45472e-17)
(0.0863924 0.136035 -4.53233e-16)
(0.065378 0.108625 -1.93463e-15)
(0.0489607 0.0860574 -2.7831e-15)
(0.0361577 0.0678587 -2.38995e-15)
(0.0261513 0.0535444 -1.91914e-15)
(0.0182579 0.0427086 -8.20983e-16)
(0.0118616 0.035141 -1.20931e-15)
(0.00637596 0.0304066 -1.17813e-15)
(0.00164941 0.0229462 1.31952e-15)
(0.938886 0.456695 -1.65041e-16)
(0.827926 0.641541 5.61783e-16)
(0.660495 0.62169 9.56234e-16)
(0.545625 0.568231 3.75121e-16)
(0.429709 0.504941 -1.66703e-16)
(0.339402 0.440043 -3.00437e-16)
(0.263455 0.376143 -2.7705e-17)
(0.203103 0.316457 2.20964e-16)
(0.15524 0.262393 4.66842e-16)
(0.117867 0.214776 1.58226e-16)
(0.0889147 0.173759 -2.92081e-16)
(0.0666503 0.139117 -4.61184e-16)
(0.0496125 0.110383 -9.06781e-16)
(0.0366125 0.08697 -1.19161e-15)
(0.0266947 0.0682526 -1.32673e-15)
(0.0190991 0.0536356 -7.53316e-16)
(0.0132171 0.042635 -7.34686e-16)
(0.00852678 0.0349861 -2.10726e-16)
(0.00455363 0.0302125 8.01088e-16)
(0.00116703 0.0227567 1.56179e-15)
(0.93168 0.531696 -1.76601e-16)
(0.794994 0.72578 6.80484e-16)
(0.616821 0.692575 9.3921e-16)
(0.494052 0.623975 3.68607e-16)
(0.376522 0.546848 -1.4767e-16)
(0.288435 0.470065 -3.15476e-16)
(0.216783 0.396667 -1.37898e-16)
(0.162082 0.329844 2.56528e-16)
(0.120178 0.270626 3.95213e-16)
(0.0886179 0.219461 -2.02219e-16)
(0.0649975 0.176103 -8.8455e-16)
(0.047442 0.139994 -9.80897e-16)
(0.0344464 0.110397 -8.94272e-16)
(0.0248468 0.0865209 -1.01741e-15)
(0.0177494 0.067592 -3.06324e-16)
(0.0124756 0.0529106 1.00344e-15)
(0.00850658 0.0419226 2.65549e-16)
(0.00542239 0.0343143 1.27206e-16)
(0.00286358 0.0295765 1.21838e-15)
(0.000721772 0.0222386 7.29724e-16)
(0.920992 0.618042 -1.91104e-16)
(0.754166 0.816053 6.21182e-16)
(0.564437 0.764687 8.46071e-16)
(0.434595 0.677627 3.59686e-16)
(0.317467 0.584803 1.86428e-17)
(0.233509 0.495295 -1.63531e-16)
(0.167884 0.412383 -3.71968e-17)
(0.120128 0.338841 2.31529e-16)
(0.0850551 0.275089 2.58657e-16)
(0.0598374 0.221042 -3.71515e-16)
(0.0418187 0.175964 -7.39607e-16)
(0.0290661 0.138928 -6.36568e-16)
(0.0200951 0.108914 -3.23725e-16)
(0.0138144 0.084931 -5.61988e-16)
(0.00942453 0.0660662 -1.29122e-16)
(0.0063489 0.0515284 9.14671e-16)
(0.00417021 0.0407041 -1.78811e-16)
(0.00257477 0.0332385 -7.11513e-16)
(0.0013188 0.0285985 4.30678e-16)
(0.000316738 0.0214687 2.47464e-16)
(0.905359 0.718544 -1.78863e-16)
(0.703353 0.912636 5.96948e-16)
(0.501929 0.837216 6.85007e-16)
(0.366782 0.728035 3.25597e-16)
(0.252788 0.617838 2.24126e-16)
(0.175239 0.515119 -1.94768e-17)
(0.117508 0.423042 -1.25121e-16)
(0.0779426 0.343465 6.0626e-17)
(0.0504565 0.275965 4.52799e-17)
(0.0319772 0.219782 -2.35107e-16)
(0.0197075 0.173632 -3.1288e-16)
(0.0117518 0.136199 -1.38417e-16)
(0.00671159 0.106185 -5.10096e-17)
(0.00361386 0.0824142 -4.05576e-16)
(0.00178147 0.0638531 -2.69966e-16)
(0.000755897 0.0496347 5.64964e-16)
(0.000229133 0.039099 -5.79101e-16)
(-4.79146e-06 0.0318588 -1.74623e-15)
(-7.58956e-05 0.0273663 -5.02796e-16)
(-4.71451e-05 0.0205133 1.42725e-16)
(0.882612 0.836872 -1.96376e-17)
(0.639791 1.01529 5.67196e-16)
(0.427868 0.908928 6.22069e-16)
(0.290352 0.773755 3.53243e-16)
(0.182993 0.644936 6.3722e-17)
(0.114425 0.529007 -1.6152e-16)
(0.0664837 0.428524 -1.7832e-16)
(0.036223 0.343847 -1.83746e-16)
(0.0169182 0.273522 -1.23495e-16)
(0.00541816 0.215998 -1.44912e-16)
(-0.00108089 0.16942 -7.6089e-17)
(-0.0043394 0.132088 5.73808e-18)
(-0.00560728 0.102451 -1.68016e-16)
(-0.00570077 0.0791703 -6.36818e-16)
(-0.00515247 0.0611147 -3.78475e-16)
(-0.00429163 0.0473592 5.25445e-16)
(-0.00331301 0.0372116 -2.3642e-16)
(-0.00231629 0.0302612 -1.40264e-15)
(-0.00132186 0.0259542 -7.57673e-16)
(-0.000370702 0.0194291 1.39901e-16)
(0.849539 0.977784 4.16423e-17)
(0.559814 1.1229 6.03239e-16)
(0.340992 0.978118 5.63264e-16)
(0.205342 0.813071 2.52828e-16)
(0.108903 0.665113 -1.04473e-16)
(0.0520343 0.536573 -4.48413e-16)
(0.015685 0.428865 -2.95936e-16)
(-0.00437105 0.34022 -1.57131e-16)
(-0.015095 0.268097 -1.59905e-17)
(-0.0195393 0.210039 8.33189e-17)
(-0.0203654 0.163648 1.57349e-16)
(-0.0191078 0.12687 3.7741e-17)
(-0.0168137 0.0979378 -1.74846e-16)
(-0.0141126 0.075381 -4.77e-16)
(-0.011377 0.0579944 -3.91856e-16)
(-0.0088011 0.0448146 2.61862e-16)
(-0.00646571 0.0351308 9.17324e-18)
(-0.00436819 0.0285184 -6.70086e-16)
(-0.00242469 0.0244244 -5.1113e-16)
(-0.000655579 0.0182626 -2.49468e-17)
(0.801475 1.14766 2.27191e-17)
(0.458588 1.23319 5.83299e-16)
(0.240468 1.04258 5.39453e-16)
(0.112162 0.84408 1.70271e-17)
(0.0316713 0.677522 -3.8319e-16)
(-0.0108424 0.537584 -5.06333e-16)
(-0.0340238 0.424254 -2.5361e-16)
(-0.043249 0.332947 -5.31108e-18)
(-0.0451992 0.260087 3.25543e-16)
(-0.0426786 0.20227 4.30892e-16)
(-0.0380347 0.156629 5.15738e-16)
(-0.0325083 0.120804 3.68695e-16)
(-0.0269005 0.0928514 2.45357e-16)
(-0.0216337 0.0712066 3.59364e-17)
(-0.0169125 0.0546159 -2.52026e-16)
(-0.0127939 0.0420962 -4.96121e-17)
(-0.00924769 0.0329308 3.43028e-17)
(-0.00617456 0.0266902 -6.16489e-17)
(-0.00339292 0.022828 -1.05377e-16)
(-0.000904278 0.0170515 -2.84946e-16)
(0.73166 1.35396 4.5579e-17)
(0.329576 1.34212 5.70448e-16)
(0.126163 1.09941 4.25799e-16)
(0.0116839 0.864874 -2.09e-16)
(-0.0472466 0.681396 -5.07333e-16)
(-0.073055 0.532102 -4.27674e-16)
(-0.0818087 0.41503 -1.28674e-16)
(-0.0799052 0.322491 2.13902e-16)
(-0.0731176 0.249917 4.82079e-16)
(-0.0638652 0.19306 6.45887e-16)
(-0.0540409 0.148664 7.176e-16)
(-0.0445413 0.114124 7.86594e-16)
(-0.0358923 0.0873725 9.23172e-16)
(-0.0282984 0.0667845 6.16402e-16)
(-0.0217937 0.051083 -1.25114e-16)
(-0.0163011 0.0392825 -1.89059e-16)
(-0.0116837 0.0306718 2.99516e-17)
(-0.00775308 0.0248243 3.3127e-16)
(-0.00423686 0.0212055 9.50777e-17)
(-0.00111975 0.0158255 -3.61866e-16)
(0.632959 1.60807 1.88161e-17)
(0.164281 1.44587 4.93367e-16)
(-0.0010878 1.14392 2.42017e-16)
(-0.0946519 0.873725 -3.45943e-16)
(-0.126152 0.676327 -4.9589e-16)
(-0.133379 0.520479 -2.98542e-16)
(-0.126961 0.40169 -4.96325e-17)
(-0.113951 0.309355 2.00909e-16)
(-0.0986724 0.238023 4.42607e-16)
(-0.0830395 0.182763 5.59925e-16)
(-0.0683898 0.140025 7.17155e-16)
(-0.0552442 0.107037 1.00479e-15)
(-0.0438383 0.0816563 1.29946e-15)
(-0.0341564 0.0622299 8.8751e-16)
(-0.0260653 0.047481 7.5466e-17)
(-0.0193594 0.0364369 -1.62866e-16)
(-0.0138021 0.0284019 6.05578e-18)
(-0.00912332 0.0229586 5.13489e-16)
(-0.00496769 0.0195886 2.92004e-16)
(-0.00130512 0.0146075 -3.15565e-16)
(0.482118 1.91041 6.3851e-18)
(-0.0488816 1.53568 3.83936e-16)
(-0.140127 1.16976 4.30564e-17)
(-0.204231 0.869274 -3.73252e-16)
(-0.203192 0.662358 -3.8163e-16)
(-0.190704 0.503294 -1.71937e-16)
(-0.168921 0.384844 -2.77392e-17)
(-0.145124 0.294076 6.63698e-17)
(-0.121779 0.224831 2.20944e-16)
(-0.100207 0.171703 3.99283e-16)
(-0.0811303 0.130957 6.17964e-16)
(-0.0646818 0.0997235 1.07647e-15)
(-0.0508043 0.0758334 1.37776e-15)
(-0.0392671 0.0576376 1.04246e-15)
(-0.0297774 0.0438788 1.32315e-16)
(-0.0220088 0.0336098 5.37123e-17)
(-0.0156326 0.0261584 1.79375e-16)
(-0.0103055 0.021122 5.65322e-16)
(-0.00559679 0.0180013 4.06331e-16)
(-0.00146348 0.013415 -2.53874e-16)
(0.360033 2.27348 1.148e-17)
(-0.322942 1.6196 2.34153e-16)
(-0.287146 1.16983 -1.43389e-16)
(-0.313312 0.851009 -3.4838e-16)
(-0.276549 0.639772 -2.03298e-16)
(-0.244055 0.481304 -3.22831e-17)
(-0.207299 0.36515 5.42659e-17)
(-0.173285 0.277187 3.67303e-17)
(-0.142439 0.210739 1.06916e-16)
(-0.115427 0.160174 1.89373e-16)
(-0.0923437 0.121668 4.79637e-16)
(-0.0729371 0.0923327 9.1019e-16)
(-0.0568662 0.0700106 1.25502e-15)
(-0.0436954 0.0530835 9.94651e-16)
(-0.0329823 0.0403303 1.52739e-16)
(-0.0242898 0.0308399 1.9574e-16)
(-0.0172049 0.0239696 2.40144e-16)
(-0.0113197 0.0193359 6.96631e-16)
(-0.00613522 0.016462 5.41277e-16)
(-0.00159777 0.0122602 -1.76648e-16)
(0.181562 -0.0260307 -5.36727e-19)
(0.186999 -0.080795 -3.29865e-18)
(0.196576 -0.145099 -7.52046e-18)
(0.208019 -0.227961 -2.01748e-17)
(0.212033 -0.324671 -2.69605e-17)
(0.200296 -0.411749 -1.67037e-17)
(0.195902 -0.451989 6.86072e-18)
(0.270676 -0.399946 2.24776e-17)
(0.133763 -0.0243301 -8.59415e-20)
(0.136378 -0.0741204 1.5537e-19)
(0.139132 -0.12926 -1.92449e-18)
(0.138426 -0.193891 -1.27657e-17)
(0.124825 -0.266698 -2.20848e-17)
(0.0905887 -0.336747 -2.20965e-17)
(0.0461686 -0.383232 -1.24254e-17)
(0.0304442 -0.388789 -1.83645e-18)
(0.0905538 -0.0222208 -1.80513e-19)
(0.0914181 -0.0661531 3.92299e-19)
(0.0898706 -0.112913 -2.73976e-19)
(0.084299 -0.163495 -6.79479e-18)
(0.0689979 -0.215807 -1.3892e-17)
(0.0396114 -0.264228 -1.41233e-17)
(0.000624656 -0.298857 -7.05486e-18)
(-0.0298731 -0.312575 7.78253e-19)
(0.0524808 -0.0203676 1.45883e-19)
(0.0529823 -0.0575874 6.5246e-19)
(0.0487907 -0.0964297 -1.24984e-18)
(0.0403689 -0.136859 -4.67704e-18)
(0.025197 -0.177464 -6.37743e-18)
(0.0021596 -0.215012 -4.46891e-18)
(-0.0258775 -0.244702 8.88948e-19)
(-0.0510001 -0.26278 2.37734e-18)
(0.0203895 -0.0182913 -2.14597e-19)
(0.021173 -0.0491641 -5.16625e-19)
(0.0156271 -0.0813389 -1.6141e-18)
(0.00687939 -0.11375 -3.047e-18)
(-0.00681802 -0.14516 -2.57436e-18)
(-0.025662 -0.173877 7.5166e-19)
(-0.0476009 -0.197833 6.00765e-18)
(-0.0685719 -0.215333 1.26048e-17)
(-0.00699836 -0.0203461 -6.36456e-19)
(-0.00649854 -0.0419436 -9.79625e-19)
(-0.0121307 -0.0682761 -1.43873e-18)
(-0.020579 -0.0947942 -1.37003e-19)
(-0.0329241 -0.12016 1.37396e-18)
(-0.0488407 -0.143477 2.05132e-18)
(-0.0669637 -0.163751 4.12059e-18)
(-0.0849835 -0.180023 1.20099e-17)
(-0.0293774 -0.0176458 -1.22232e-18)
(-0.0300949 -0.0355779 -1.42618e-18)
(-0.0348424 -0.0570419 1.94416e-18)
(-0.0427444 -0.078498 7.99122e-18)
(-0.0539196 -0.0989185 8.1418e-18)
(-0.0679196 -0.117847 -2.0576e-18)
(-0.0838442 -0.134887 -1.49345e-17)
(-0.100171 -0.149326 -1.55862e-17)
(-0.0465933 -0.0160206 1.36517e-20)
(-0.0485004 -0.0301572 -1.93023e-19)
(-0.0531296 -0.0473838 5.78118e-18)
(-0.0606407 -0.0646044 1.69165e-17)
(-0.0709654 -0.0810464 1.80663e-17)
(-0.0837071 -0.0964551 1.81091e-18)
(-0.0982864 -0.110681 -1.79964e-17)
(-0.113567 -0.123123 -2.41836e-17)
(-0.0604246 -0.0137387 1.52466e-18)
(-0.0630466 -0.0250849 9.43617e-19)
(-0.0677102 -0.0387518 2.83083e-18)
(-0.0749641 -0.0524067 7.54818e-18)
(-0.0847084 -0.0655003 4.40192e-18)
(-0.0966414 -0.0779031 -4.19567e-18)
(-0.110398 -0.0895701 -1.18419e-17)
(-0.125041 -0.099997 -1.07773e-17)
(-0.0714106 -0.0113116 1.58453e-18)
(-0.0744511 -0.020275 2.72618e-18)
(-0.0791711 -0.030906 1.80832e-18)
(-0.0862588 -0.041515 -4.08083e-18)
(-0.0956164 -0.0517269 -1.69915e-17)
(-0.107031 -0.0614855 -2.56061e-17)
(-0.120283 -0.0707874 -1.91025e-17)
(-0.134545 -0.0792235 -3.83065e-18)
(-0.0798812 -0.00888672 -2.05156e-20)
(-0.0831761 -0.0157029 2.29681e-18)
(-0.0879453 -0.0236823 1.74231e-19)
(-0.0949272 -0.0316301 -1.07514e-17)
(-0.104034 -0.0392998 -2.5205e-17)
(-0.115115 -0.0466801 -3.05861e-17)
(-0.128052 -0.0537815 -1.64149e-17)
(-0.14209 -0.0602867 8.78856e-18)
(-0.0860051 -0.00652076 -1.86115e-18)
(-0.0894678 -0.0113507 2.74679e-18)
(-0.0942802 -0.016963 7.36765e-18)
(-0.101194 -0.0225339 4.09046e-18)
(-0.110134 -0.0279081 -7.95592e-18)
(-0.120989 -0.0331108 -1.81756e-17)
(-0.133705 -0.038158 -9.75054e-18)
(-0.14759 -0.0427914 1.31975e-17)
(-0.0890546 -0.00422752 -3.30213e-19)
(-0.0926065 -0.00718453 2.36258e-18)
(-0.0974035 -0.0106538 2.93644e-18)
(-0.10418 -0.0140928 -3.77061e-18)
(-0.112892 -0.0174058 -1.9165e-17)
(-0.123466 -0.0206512 -3.34079e-17)
(-0.135863 -0.0238584 -2.72786e-17)
(-0.149449 -0.0267339 -5.73804e-18)
(-0.0825996 -0.00206888 3.27967e-18)
(-0.0858928 -0.00330984 2.45375e-18)
(-0.0902308 -0.00487222 -3.73375e-18)
(-0.0962843 -0.00637835 -9.16794e-18)
(-0.104066 -0.00770487 -1.00263e-17)
(-0.113556 -0.00894094 -6.21534e-18)
(-0.124607 -0.0102625 2.856e-18)
(-0.136582 -0.0113506 1.26789e-17)
(-0.0409169 -0.000283729 2.25641e-18)
(-0.0427881 -0.000281826 2.89329e-18)
(-0.0450097 -0.000420984 -1.91108e-19)
(-0.048008 -0.00052024 -3.40991e-18)
(-0.0518681 -0.000590375 -3.65711e-18)
(-0.0567013 -0.000766341 -1.04303e-18)
(-0.0619018 -0.00119802 4.54002e-18)
(-0.0661371 -0.00149257 1.35552e-17)
(0.396348 -0.257418 3.22123e-17)
(0.419377 -0.218022 3.22709e-17)
(0.442389 -0.20141 3.17512e-17)
(0.460691 -0.192254 3.3219e-17)
(0.474757 -0.185926 2.82196e-17)
(0.486188 -0.181281 2.28498e-17)
(0.49584 -0.177735 1.6994e-17)
(0.504272 -0.174922 1.18859e-17)
(0.511863 -0.172596 9.8316e-18)
(0.518877 -0.170591 1.238e-17)
(0.5255 -0.168793 1.17865e-17)
(0.531866 -0.167123 7.51671e-18)
(0.538069 -0.165523 1.30974e-17)
(0.54418 -0.163957 8.76619e-18)
(0.550247 -0.162399 1.18872e-17)
(0.55631 -0.160829 9.55853e-18)
(0.562398 -0.159235 1.49778e-17)
(0.568532 -0.157604 8.52348e-18)
(0.574729 -0.155926 5.79955e-18)
(0.580999 -0.154196 2.0452e-17)
(0.58735 -0.152407 3.64546e-17)
(0.593787 -0.150556 5.36033e-17)
(0.600313 -0.148642 2.4395e-17)
(0.606924 -0.146662 -1.63828e-18)
(0.613613 -0.144614 -4.63361e-18)
(0.620366 -0.142493 -3.05653e-17)
(0.627155 -0.1403 -5.0962e-17)
(0.633908 -0.138045 -4.23453e-17)
(0.640474 -0.135761 -2.62518e-17)
(0.646583 -0.133512 -1.21227e-16)
(0.65195 -0.13139 -9.28654e-17)
(0.656574 -0.129416 -8.08575e-17)
(0.661387 -0.127419 -1.74269e-17)
(0.669355 -0.124972 -1.44914e-17)
(0.686693 -0.121102 -4.66437e-18)
(0.723669 -0.114358 -2.89796e-18)
(0.794113 -0.102246 -1.69092e-17)
(0.911537 -0.0814721 -4.95427e-17)
(1.08129 -0.0471604 -2.70251e-17)
(1.29216 0.00540302 1.55956e-17)
(1.51303 0.0757511 -2.78627e-17)
(1.6964 0.154751 -1.11826e-16)
(1.78962 0.222821 -2.03819e-17)
(1.75343 0.253177 3.2522e-17)
(1.60498 0.230807 9.97208e-17)
(1.41461 0.168316 9.79285e-17)
(1.27936 0.100838 4.41829e-17)
(1.26957 0.0602497 5.11019e-17)
(1.74759 0.0512384 2.25241e-17)
(0.308902 0.158187 -1.07214e-17)
(0.0449533 -0.365474 3.23288e-18)
(0.042401 -0.34389 6.74318e-18)
(0.043041 -0.33291 6.5869e-18)
(0.0429293 -0.326021 -4.09192e-18)
(0.0423889 -0.321797 -1.40896e-17)
(0.041315 -0.3194 -2.35078e-17)
(0.0398077 -0.318254 -2.78719e-17)
(0.0379361 -0.317977 -2.59605e-17)
(0.0357731 -0.318304 -1.64628e-17)
(0.0333867 -0.319055 -4.42186e-18)
(0.0308419 -0.320098 1.54803e-17)
(0.0281997 -0.321341 3.35881e-17)
(0.0255184 -0.322716 4.15978e-17)
(0.0228635 -0.324161 2.64809e-17)
(0.0202933 -0.325627 4.92342e-19)
(0.0178524 -0.327078 -3.31079e-17)
(0.0155823 -0.328486 -5.27477e-17)
(0.0135224 -0.329827 -5.02116e-17)
(0.011711 -0.331082 -3.91774e-17)
(0.0101866 -0.332235 -1.58492e-17)
(0.00898914 -0.33327 1.83887e-19)
(0.00815799 -0.334172 -6.94884e-18)
(0.00773233 -0.33492 -1.87221e-17)
(0.00775381 -0.335493 -7.85909e-17)
(0.00826993 -0.335873 -1.02724e-16)
(0.0093237 -0.33604 -1.25005e-16)
(0.010906 -0.335962 -1.43781e-16)
(0.0128647 -0.33558 -1.8673e-16)
(0.0148283 -0.334801 -1.72663e-16)
(0.0163003 -0.333557 -1.66796e-16)
(0.0172188 -0.331939 -1.29769e-16)
(0.0190386 -0.330429 -7.2069e-17)
(0.0262861 -0.330026 -5.16546e-17)
(0.0482362 -0.332015 -5.33165e-17)
(0.0989297 -0.336971 -3.19144e-17)
(0.194623 -0.343167 -5.19235e-17)
(0.349408 -0.345509 -5.74613e-17)
(0.570293 -0.334724 -8.13786e-17)
(0.851734 -0.297092 -6.93634e-17)
(1.17211 -0.217547 -7.26993e-17)
(1.49408 -0.0866632 5.97023e-18)
(1.77029 0.0895319 -1.37846e-19)
(1.95006 0.280737 9.59726e-17)
(1.99841 0.42953 9.95255e-17)
(1.8983 0.475461 1.17288e-16)
(1.69516 0.401159 1.93252e-16)
(1.49797 0.248978 2.26132e-16)
(1.43196 0.0968028 1.60218e-16)
(1.18897 0.178648 1.00983e-19)
(-0.638572 0.638323 -3.94075e-17)
(-0.0461316 -0.31611 -8.55872e-19)
(-0.0608637 -0.31117 -1.28383e-17)
(-0.0709741 -0.309264 -2.70523e-17)
(-0.0802173 -0.308861 -3.92811e-17)
(-0.088973 -0.309763 -4.66835e-17)
(-0.0976692 -0.311644 -4.36882e-17)
(-0.106491 -0.314295 -2.99727e-17)
(-0.11555 -0.317556 -1.1839e-17)
(-0.124905 -0.321304 1.04404e-17)
(-0.134588 -0.325448 3.24188e-17)
(-0.144612 -0.329916 5.26085e-17)
(-0.154986 -0.334658 6.28243e-17)
(-0.165712 -0.339639 6.29402e-17)
(-0.176797 -0.344838 4.28398e-17)
(-0.18824 -0.35023 9.73322e-18)
(-0.200022 -0.35579 -2.64609e-17)
(-0.21212 -0.361494 -5.23195e-17)
(-0.224506 -0.367325 -5.4091e-17)
(-0.237142 -0.373266 -4.10326e-17)
(-0.249977 -0.379291 -3.1966e-17)
(-0.262964 -0.385372 -4.36984e-17)
(-0.276065 -0.391487 -9.52895e-17)
(-0.289223 -0.397618 -1.2749e-16)
(-0.302366 -0.403747 -1.74283e-16)
(-0.315417 -0.409847 -2.15912e-16)
(-0.328339 -0.415835 -2.27757e-16)
(-0.34123 -0.421515 -2.2212e-16)
(-0.354339 -0.426576 -1.89448e-16)
(-0.367841 -0.430764 -1.47644e-16)
(-0.381122 -0.434288 -1.10704e-16)
(-0.391605 -0.438382 -8.73225e-17)
(-0.393622 -0.44564 -8.11606e-17)
(-0.378166 -0.459569 -7.43104e-17)
(-0.334118 -0.483232 -1.06315e-16)
(-0.250893 -0.517444 -1.22936e-16)
(-0.121129 -0.558942 -1.33247e-16)
(0.0588695 -0.599451 -9.37166e-17)
(0.288778 -0.625593 -6.25787e-17)
(0.560975 -0.620071 1.01396e-16)
(0.855106 -0.55824 2.45118e-16)
(1.14256 -0.420968 3.28557e-16)
(1.38778 -0.205476 4.01942e-16)
(1.5564 0.0555834 3.84959e-16)
(1.62718 0.29785 3.88338e-16)
(1.58827 0.442402 3.01454e-16)
(1.4537 0.422538 3.39824e-16)
(1.27257 0.261729 3.25156e-16)
(0.998079 0.138728 1.44107e-16)
(0.0238355 0.376793 -7.7689e-17)
(-1.42415 1.03956 -1.11142e-16)
(-0.0698415 -0.273314 3.00558e-19)
(-0.0860584 -0.274666 -7.41287e-18)
(-0.0987447 -0.276199 -1.92381e-17)
(-0.11072 -0.278135 -3.11908e-17)
(-0.122403 -0.280693 -3.55672e-17)
(-0.134101 -0.283833 -3.34663e-17)
(-0.145973 -0.287495 -2.49116e-17)
(-0.158144 -0.291615 -5.61551e-18)
(-0.170702 -0.296138 1.81221e-17)
(-0.183716 -0.30102 4.42082e-17)
(-0.19724 -0.306227 7.11529e-17)
(-0.211319 -0.311733 9.58481e-17)
(-0.22599 -0.317518 1.00985e-16)
(-0.241287 -0.323575 7.79698e-17)
(-0.257242 -0.3299 3.42884e-17)
(-0.273885 -0.336499 -1.31197e-17)
(-0.291244 -0.343379 -4.16191e-17)
(-0.309345 -0.350548 -3.8606e-17)
(-0.328218 -0.358019 -2.78711e-17)
(-0.347896 -0.365806 -3.41126e-17)
(-0.368399 -0.373916 -7.80724e-17)
(-0.38972 -0.382356 -1.34449e-16)
(-0.411837 -0.39114 -1.99502e-16)
(-0.434714 -0.400265 -2.35206e-16)
(-0.458329 -0.409663 -2.4281e-16)
(-0.482732 -0.419157 -2.04088e-16)
(-0.507994 -0.428473 -1.30749e-16)
(-0.533948 -0.437445 -7.32443e-17)
(-0.559595 -0.446489 -4.10099e-17)
(-0.582305 -0.457173 -3.87556e-17)
(-0.597336 -0.472499 -9.1316e-17)
(-0.59833 -0.496489 -1.43173e-16)
(-0.578829 -0.533067 -1.88436e-16)
(-0.533901 -0.584721 -1.98195e-16)
(-0.460661 -0.651452 -1.65435e-16)
(-0.357336 -0.729708 -7.48935e-17)
(-0.222267 -0.81075 7.03152e-17)
(-0.0553496 -0.879241 2.41206e-16)
(0.140114 -0.911583 4.35419e-16)
(0.35049 -0.876471 5.93297e-16)
(0.554178 -0.744785 7.42629e-16)
(0.729487 -0.50914 6.8042e-16)
(0.856933 -0.203335 6.69567e-16)
(0.92574 0.0969601 5.88404e-16)
(0.924674 0.292691 4.22866e-16)
(0.84539 0.305318 3.51491e-16)
(0.606539 0.204651 2.55923e-16)
(-0.037001 0.255205 -4.19175e-17)
(-1.14245 0.635154 -1.2592e-16)
(-2.03843 1.29132 -7.37421e-17)
(-0.0865314 -0.227136 1.8231e-17)
(-0.102442 -0.231335 2.08547e-17)
(-0.115493 -0.234797 1.6612e-17)
(-0.128017 -0.238181 6.8104e-18)
(-0.140398 -0.241803 -5.08748e-18)
(-0.152891 -0.24571 -1.62081e-17)
(-0.165634 -0.249915 -1.92296e-17)
(-0.178742 -0.254415 -1.5753e-17)
(-0.192303 -0.2592 -9.51092e-19)
(-0.206392 -0.264264 2.1191e-17)
(-0.221075 -0.269599 4.41589e-17)
(-0.236411 -0.275202 6.82471e-17)
(-0.252457 -0.281073 7.47689e-17)
(-0.269264 -0.287215 5.64877e-17)
(-0.286887 -0.293639 1.74005e-17)
(-0.305381 -0.300355 -2.236e-17)
(-0.324802 -0.307378 -3.3315e-17)
(-0.345213 -0.314723 -2.77881e-17)
(-0.366673 -0.322408 -1.7363e-17)
(-0.389248 -0.330461 -2.81136e-17)
(-0.413 -0.338916 -8.97569e-17)
(-0.437987 -0.347818 -1.62138e-16)
(-0.464269 -0.35721 -2.12415e-16)
(-0.491909 -0.367109 -2.29404e-16)
(-0.520986 -0.377457 -1.79299e-16)