/*--------------------------------*- C++ -*----------------------------------*\
  =========                 |
  \\      /  F ield         | OpenFOAM: The Open Source CFD Toolbox
   \\    /   O peration     | Website:  https://openfoam.org
    \\  /    A nd           | Version:  13
     \\/     M anipulation  |
\*---------------------------------------------------------------------------*/
FoamFile
{
    format      ascii;
    class       surfaceVectorField;
    location    "0.0005";
    object      Uf;
}
// * * * * * * * * * * * * * * * * * * * * * * * * * * * * * * * * * * * * * //

dimensions      [0 1 -1 0 0 0 0];

internalField   nonuniform List<vector> 
3252
(
(0.433803 -0.00320926 7.99785e-18)
(0.420436 -0.00257879 1.59916e-17)
(0.472602 -0.00650606 9.21122e-18)
(0.445304 -0.0078847 2.78851e-19)
(0.538571 -0.00983739 6.81829e-17)
(0.498282 -0.0134061 3.64211e-17)
(0.631157 -0.0127101 7.28101e-17)
(0.577797 -0.0188149 1.28902e-16)
(0.743618 -0.0145176 2.30491e-17)
(0.684497 -0.0228536 6.96324e-17)
(0.865471 -0.0135621 3.28977e-17)
(0.80108 -0.0247613 4.75721e-17)
(0.963649 -0.00822091 4.37564e-17)
(0.931373 -0.019777 6.23269e-17)
(0.993175 -0.00659704 3.27294e-17)
(0.431557 -0.00831412 8.36422e-18)
(0.417088 -0.00516333 3.57485e-18)
(0.470275 -0.01693 3.35812e-17)
(0.441884 -0.0157448 1.07913e-17)
(0.536209 -0.0256371 1.06793e-16)
(0.494885 -0.0268014 6.72916e-17)
(0.629032 -0.0332692 1.43363e-16)
(0.574875 -0.0377019 1.50497e-16)
(0.743639 -0.0379877 1.17858e-16)
(0.682571 -0.0463614 1.32236e-16)
(0.865881 -0.0357032 9.1616e-17)
(0.801242 -0.0496408 1.06278e-16)
(0.968076 -0.0216102 5.58733e-17)
(0.933241 -0.0407712 3.88267e-17)
(0.993972 -0.0119892 1.00798e-17)
(0.427252 -0.0132244 5.76569e-18)
(0.411738 -0.00773171 -3.0275e-18)
(0.465919 -0.0269375 4.55937e-17)
(0.436411 -0.023593 1.23477e-17)
(0.532041 -0.0408923 1.11416e-16)
(0.489398 -0.0402628 6.78506e-17)
(0.625738 -0.0534261 1.38971e-16)
(0.569971 -0.056869 1.18102e-16)
(0.74256 -0.0610494 1.20936e-16)
(0.679417 -0.0704741 9.61002e-17)
(0.867151 -0.0575279 4.99925e-17)
(0.801334 -0.0752898 6.25535e-17)
(0.970827 -0.0342978 -1.15985e-17)
(0.936413 -0.0620002 -6.88999e-17)
(0.995809 -0.0168179 -5.57498e-17)
(0.420759 -0.0183515 3.41916e-18)
(0.404238 -0.0102756 -4.40747e-18)
(0.459311 -0.0374645 3.39317e-17)
(0.428703 -0.0314053 7.80379e-18)
(0.525688 -0.0571085 7.22786e-17)
(0.481579 -0.0538028 3.6209e-17)
(0.620714 -0.0750911 7.13295e-17)
(0.562812 -0.0764454 5.46132e-17)
(0.740642 -0.0860906 3.26238e-17)
(0.674779 -0.0955049 1.82285e-17)
(0.869345 -0.0810271 -6.22647e-17)
(0.801427 -0.102235 -1.88864e-17)
(0.974464 -0.0474464 -1.19996e-16)
(0.941321 -0.0835824 -1.63645e-16)
(0.999027 -0.0207263 -1.22642e-16)
(0.412054 -0.0234767 -1.75817e-19)
(0.394599 -0.0127761 -1.61414e-18)
(0.450369 -0.0480912 9.02097e-18)
(0.418729 -0.0391393 3.78316e-19)
(0.516959 -0.0737288 1.61553e-17)
(0.471309 -0.0674001 3.50136e-18)
(0.61369 -0.0976996 -1.59049e-18)
(0.553178 -0.0965395 -1.20571e-17)
(0.737886 -0.112649 -3.621e-17)
(0.668397 -0.121833 -4.98372e-17)
(0.87266 -0.105699 -1.22234e-16)
(0.801613 -0.131085 -6.0099e-17)
(0.979697 -0.0604142 -1.70609e-16)
(0.948491 -0.105722 -1.72252e-16)
(1.00379 -0.0232204 -1.39521e-16)
(0.401151 -0.0285281 -1.09092e-18)
(0.382862 -0.0152084 -5.16347e-19)
(0.439035 -0.058695 -5.63648e-18)
(0.406485 -0.0467301 -1.3546e-18)
(0.50567 -0.0906649 -2.61399e-17)
(0.458468 -0.0809928 -1.76347e-17)
(0.604382 -0.121356 -6.23566e-17)
(0.540779 -0.117226 -6.47991e-17)
(0.734207 -0.141092 -7.50378e-17)
(0.659888 -0.149895 -9.22185e-17)
(0.877483 -0.131829 -1.09247e-16)
(0.801928 -0.162614 -5.35615e-17)
(0.987075 -0.072932 -1.41934e-16)
(0.958538 -0.128646 -1.17605e-16)
(1.01042 -0.0236651 -1.16901e-16)
(0.388077 -0.0334505 -7.71056e-19)
(0.369091 -0.0175393 -2.02174e-18)
(0.425248 -0.0691895 -1.35754e-17)
(0.391986 -0.0540829 -2.61111e-18)
(0.491586 -0.107893 -5.71635e-17)
(0.442917 -0.0944588 -2.80003e-17)
(0.592373 -0.146313 -9.55927e-17)
(0.525206 -0.138516 -9.62298e-17)
(0.729344 -0.172076 -7.0619e-17)
(0.648584 -0.180174 -1.01583e-16)
(0.884109 -0.15996 -6.03179e-17)
(0.801864 -0.197788 -3.13062e-17)
(0.997094 -0.0847745 -9.11849e-17)
(0.971285 -0.152643 -5.98429e-17)
(1.0192 -0.0212917 -8.66065e-17)
(0.372881 -0.0381691 -3.93771e-18)
(0.353385 -0.0197263 -2.58727e-18)
(0.408944 -0.0794399 -1.71211e-17)
(0.375271 -0.0610639 -4.57534e-18)
(0.474384 -0.125321 -6.73097e-17)
(0.424496 -0.107586 -3.50276e-17)
(0.576979 -0.172802 -1.02383e-16)
(0.50587 -0.160293 -1.02865e-16)
(0.722376 -0.206369 -6.20663e-17)
(0.633221 -0.213052 -9.27485e-17)
(0.891583 -0.190779 -3.00102e-17)
(0.799047 -0.237534 -1.79883e-17)
(1.0093 -0.0957502 -5.28966e-17)
(0.983453 -0.178176 -2.5597e-17)
(1.02971 -0.015515 -6.46659e-17)
(0.355652 -0.0425824 -3.20965e-18)
(0.335888 -0.0217165 -1.08544e-18)
(0.390074 -0.0892353 -2.25965e-17)
(0.35643 -0.0674922 -4.53281e-18)
(0.45363 -0.142715 -7.06524e-17)
(0.403044 -0.120028 -4.14203e-17)
(0.556994 -0.200866 -9.30348e-17)
(0.481969 -0.182159 -9.45571e-17)
(0.7106 -0.24456 -4.83857e-17)
(0.611461 -0.24834 -7.66954e-17)
(0.895167 -0.225098 -1.32008e-17)
(0.787387 -0.281982 -1.3953e-17)
(1.02019 -0.106173 -3.48483e-17)
(0.98558 -0.206162 -9.62704e-18)
(1.03956 -0.00694961 -4.99498e-17)
(0.336532 -0.0465588 -2.39343e-18)
(0.316803 -0.0234477 -3.69369e-19)
(0.36862 -0.098259 -2.33711e-17)
(0.335617 -0.0731327 -4.62331e-18)
(0.428771 -0.159558 -6.52239e-17)
(0.378456 -0.13125 -3.90263e-17)
(0.530436 -0.229888 -7.79371e-17)
(0.452601 -0.203198 -8.26818e-17)
(0.688365 -0.286195 -4.21485e-17)
(0.57974 -0.284483 -6.30641e-17)
(0.883941 -0.263576 -1.03363e-17)
(0.756846 -0.329291 -1.57382e-17)
(1.0209 -0.117722 -2.22583e-17)
(0.961749 -0.238258 2.27986e-18)
(1.04314 0.00084505 -2.91803e-17)
(0.315733 -0.0499365 -2.60275e-18)
(0.29639 -0.024852 3.35998e-19)
(0.34466 -0.106063 -2.02259e-17)
(0.313082 -0.0777065 -5.75795e-18)
(0.399326 -0.174887 -5.63353e-17)
(0.350839 -0.140527 -3.50634e-17)
(0.494836 -0.257951 -6.76366e-17)
(0.417296 -0.221779 -7.10335e-17)
(0.647787 -0.328397 -3.6562e-17)
(0.534387 -0.317959 -5.06712e-17)
(0.842786 -0.305765 -3.0381e-18)
(0.697514 -0.374999 -1.27183e-17)
(0.998099 -0.134143 -2.54394e-18)
(0.896029 -0.276729 1.5849e-17)
(1.03116 3.78391e-06 -4.67454e-18)
(0.293552 -0.0525333 -2.82254e-18)
(0.27497 -0.0258644 3.68382e-19)
(0.318476 -0.112102 -2.06011e-17)
(0.289201 -0.0809389 -6.51882e-18)
(0.365452 -0.187357 -4.966e-17)
(0.320777 -0.147113 -3.25437e-17)
(0.448817 -0.281836 -5.38589e-17)
(0.376802 -0.235768 -5.80875e-17)
(0.583009 -0.365562 -2.66791e-17)
(0.47443 -0.343728 -4.31772e-17)
(0.760954 -0.349038 6.26314e-18)
(0.607032 -0.413048 -8.25117e-18)
(0.93954 -0.160888 1.51593e-17)
(0.783502 -0.323166 2.488e-17)
(0.989033 -0.0210513 1.35151e-17)
(0.270383 -0.0541858 -3.33503e-18)
(0.252895 -0.026441 -6.79183e-20)
(0.290718 -0.115883 -1.84312e-17)
(0.264505 -0.08266 -6.96897e-18)
(0.328459 -0.195449 -4.08485e-17)
(0.289528 -0.150546 -2.74472e-17)
(0.394066 -0.297703 -4.73149e-17)
(0.33341 -0.243271 -4.5136e-17)
(0.496373 -0.391818 -2.47243e-17)
(0.404507 -0.357268 -3.82146e-17)
(0.64139 -0.389164 1.03868e-17)
(0.495465 -0.437937 -3.29152e-18)
(0.838124 -0.199942 2.40186e-17)
(0.635687 -0.375221 2.86596e-17)
(0.892824 -0.0757252 2.64673e-17)
(0.246712 -0.0548519 -3.70663e-18)
(0.230513 -0.0265857 -2.55258e-19)
(0.262473 -0.117291 -1.59532e-17)
(0.23965 -0.0829327 -6.18168e-18)
(0.290739 -0.198411 -3.16162e-17)
(0.258703 -0.150871 -2.13294e-17)
(0.336031 -0.303093 -3.58891e-17)
(0.290428 -0.243645 -3.47686e-17)
(0.400372 -0.403538 -1.66813e-17)
(0.334348 -0.356965 -3.13626e-17)
(0.500284 -0.423936 1.5025e-17)
(0.382885 -0.445806 -3.23742e-18)
(0.693761 -0.267963 3.13287e-17)
(0.473559 -0.424383 2.63709e-17)
(0.721581 -0.17688 2.49113e-17)
(0.22303 -0.0547191 -2.71853e-18)
(0.208156 -0.0263622 -3.93609e-19)
(0.234854 -0.116806 -1.15048e-17)
(0.215386 -0.0820492 -4.57474e-18)
(0.254734 -0.196836 -2.43957e-17)
(0.229717 -0.148624 -1.48675e-17)
(0.281696 -0.298663 -3.0174e-17)
(0.251338 -0.237995 -2.77504e-17)
(0.312478 -0.40009 -1.79362e-17)
(0.274463 -0.345261 -2.87311e-17)
(0.361081 -0.449025 8.01412e-18)
(0.291144 -0.435178 -9.4199e-18)
(0.51213 -0.367627 1.99012e-17)
(0.333763 -0.45514 1.78912e-17)
(0.511433 -0.334859 1.86614e-17)
(0.951958 0.0347851 -5.6248e-15)
(0.950159 0.0428376 -6.55762e-15)
(0.874194 0.0434252 -2.00174e-16)
(0.938969 0.0663483 -1.81088e-15)
(0.789996 0.0434475 2.53535e-15)
(0.818107 0.0691536 3.71531e-15)
(0.706321 0.0413696 2.16938e-15)
(0.748149 0.0662444 3.15616e-15)
(0.624213 0.0387945 -1.07987e-15)
(0.661072 0.0626716 3.20463e-15)
(0.545191 0.0357229 -8.89729e-15)
(0.58022 0.0581554 -1.81896e-15)
(0.470407 0.0323445 -1.45111e-14)
(0.502919 0.0530644 -1.1863e-14)
(0.400829 0.0287959 -1.01286e-14)
(0.430631 0.0476022 -1.27615e-14)
(0.337171 0.025215 -3.65795e-15)
(0.364092 0.0419907 -3.29922e-15)
(0.279883 0.0217256 -4.29515e-15)
(0.303868 0.0364358 1.02968e-15)
(0.229139 0.0184318 -8.10884e-15)
(0.250227 0.0311171 -1.68399e-15)
(0.184864 0.0154131 -1.24992e-14)
(0.203174 0.0261775 -4.1032e-15)
(0.146762 0.0127246 -1.38642e-14)
(0.162484 0.021721 -1.05934e-14)
(0.114353 0.0103979 -6.89126e-15)
(0.127738 0.0178131 -9.58653e-15)
(0.0870194 0.00844577 -2.16745e-15)
(0.0983651 0.0144857 -1.58743e-16)
(0.064033 0.00687004 -1.41316e-15)
(0.0736804 0.0117453 -4.1355e-16)
(0.0445662 0.00567591 9.05776e-15)
(0.052915 0.00959056 2.93517e-15)
(0.0276407 0.00485493 1.94477e-14)
(0.03515 0.00803983 1.4305e-14)
(0.0122527 0.00401483 1.11499e-14)
(0.0192963 0.00704759 1.72187e-14)
(0.00513087 0.00540759 1.51179e-15)
(0.951493 0.0835395 -2.09602e-15)
(0.949731 0.0832459 -2.06875e-15)
(0.871424 0.104025 2.59549e-15)
(0.935805 0.130801 7.72411e-16)
(0.786557 0.103761 4.83715e-15)
(0.813309 0.134216 3.99645e-15)
(0.701454 0.0989728 4.7382e-15)
(0.741191 0.129423 2.94471e-15)
(0.618502 0.0926573 3.54273e-15)
(0.65273 0.121843 4.7014e-15)
(0.538897 0.0852766 -3.43738e-15)
(0.570792 0.112823 2.26804e-15)
(0.463828 0.0771604 -8.90091e-15)
(0.492914 0.10268 -4.96066e-15)
(0.394242 0.0686443 -5.0143e-15)
(0.420497 0.0918614 -6.90542e-15)
(0.330822 0.0600577 2.65549e-15)
(0.354229 0.0808056 -1.89408e-15)
(0.273966 0.051699 5.8542e-15)
(0.294602 0.0699196 3.30309e-15)
(0.223795 0.0438173 5.20413e-15)
(0.241794 0.0595488 4.47747e-15)
(0.180178 0.0366029 7.44601e-16)
(0.195724 0.0499635 3.66071e-15)
(0.142771 0.0301856 -4.29359e-15)
(0.156088 0.0413542 -1.81046e-15)
(0.111055 0.024639 -1.97856e-15)
(0.122404 0.0338351 -3.06527e-15)
(0.0843844 0.0199909 2.62064e-15)
(0.0940526 0.0274559 1.02833e-15)
(0.062016 0.0162431 5.30631e-15)
(0.0703204 0.0222183 2.46708e-15)
(0.0431181 0.0134066 7.68158e-15)
(0.0504263 0.0181106 4.46925e-15)
(0.0267176 0.0114619 1.00107e-14)
(0.0334552 0.0151619 6.99904e-15)
(0.0118122 0.00945968 6.98309e-15)
(0.0183413 0.0132872 1.32013e-14)
(0.00486714 0.0101605 3.92011e-15)
(0.949096 0.133253 8.82877e-16)
(0.949738 0.123815 1.08489e-15)
(0.86633 0.16542 2.08714e-15)
(0.930392 0.19351 2.3585e-15)
(0.778854 0.164428 1.98357e-15)
(0.805245 0.197672 1.0016e-15)
(0.691667 0.15658 2.77993e-15)
(0.730338 0.19024 5.52719e-16)
(0.607135 0.146036 3.46742e-15)
(0.639284 0.178427 1.451e-15)
(0.526522 0.13392 1.09879e-15)
(0.555922 0.164606 1.66352e-15)
(0.45103 0.1207 -2.62218e-15)
(0.477247 0.149184 3.18599e-16)
(0.381562 0.106943 -3.81801e-15)
(0.404757 0.132887 -2.13771e-15)
(0.318716 0.0931847 -1.54712e-15)
(0.339026 0.11638 -1.86785e-15)
(0.262786 0.0798953 1.70154e-15)
(0.280419 0.100265 4.12689e-16)
(0.213782 0.0674559 2.8328e-15)
(0.228971 0.0850351 2.73715e-15)
(0.171467 0.0561469 1.22917e-15)
(0.184465 0.0710632 1.85877e-15)
(0.135404 0.0461491 -3.6694e-16)
(0.146477 0.0585992 -3.98504e-16)
(0.105007 0.0375549 -3.80012e-17)
(0.114428 0.0477801 -6.04664e-16)
(0.0795818 0.0303869 7.57262e-16)
(0.087631 0.0386503 2.54205e-16)
(0.05836 0.0246305 1.40229e-15)
(0.065335 0.0311891 6.83802e-16)
(0.0405061 0.0202881 3.53761e-15)
(0.0467445 0.0253601 5.56836e-16)
(0.0250651 0.0173202 1.00799e-14)
(0.0309568 0.0211886 1.84039e-15)
(0.0110715 0.0142772 1.04813e-14)
(0.0169439 0.0185413 8.7292e-15)
(0.00449009 0.0141575 1.96151e-15)
(0.945664 0.184215 2.55833e-15)
(0.949788 0.165321 1.93111e-15)
(0.858767 0.227523 1.2863e-15)
(0.922841 0.256101 1.66433e-15)
(0.767539 0.225347 -4.58879e-16)
(0.794045 0.260469 -4.84201e-16)
(0.677349 0.213848 -8.48876e-16)
(0.715392 0.249668 -1.06955e-15)
(0.590627 0.198612 -4.17006e-16)
(0.620937 0.23306 -1.55397e-15)
(0.50869 0.181312 9.04845e-16)
(0.535867 0.213914 -2.69536e-16)
(0.432744 0.162616 9.02518e-16)
(0.456324 0.192785 1.4319e-15)
(0.363596 0.143362 -1.35373e-16)
(0.383952 0.170733 4.17666e-16)
(0.30171 0.124293 7.55215e-17)
(0.319133 0.148657 2.17335e-17)
(0.247211 0.106048 1.40124e-15)
(0.26204 0.127346 4.74237e-16)
(0.199943 0.0891203 1.76255e-15)
(0.212507 0.107417 1.56526e-15)
(0.159515 0.0738555 2.57201e-16)
(0.170132 0.0893101 3.92638e-16)
(0.125366 0.0604595 -6.3665e-16)
(0.134334 0.0732984 -8.8881e-16)
(0.0968152 0.0490191 -3.32693e-16)
(0.104419 0.0595078 -8.56943e-16)
(0.0731099 0.0395313 1.63705e-16)
(0.0796208 0.0479496 2.84523e-16)
(0.0534545 0.0319482 -1.83933e-16)
(0.0591474 0.0385587 1.59065e-15)
(0.0370134 0.0262501 -1.23783e-15)
(0.0421933 0.0312576 1.87228e-15)
(0.02286 0.0223666 2.11026e-16)
(0.0278782 0.0260526 7.46558e-16)
(0.0100764 0.0184075 1.74654e-16)
(0.0152251 0.0227572 1.52271e-15)
(0.00402244 0.017344 -4.30582e-16)
(0.940992 0.236386 1.0425e-15)
(0.949571 0.208742 7.25281e-16)
(0.848579 0.290101 -6.59053e-17)
(0.912943 0.319695 -5.01286e-16)
(0.752504 0.285992 -1.08435e-15)
(0.779518 0.323417 -1.16721e-15)
(0.658524 0.270052 -1.76612e-15)
(0.696119 0.308326 -1.45851e-15)
(0.569167 0.249437 -1.43029e-15)
(0.597724 0.286112 -1.50433e-15)
(0.485786 0.226348 2.26245e-16)
(0.510831 0.260917 -2.41014e-16)
(0.409537 0.201722 9.65571e-16)
(0.430546 0.233509 9.48732e-16)
(0.341067 0.176695 5.8225e-16)
(0.358665 0.205335 1.57864e-16)
(0.280626 0.152223 4.12315e-16)
(0.295261 0.177532 -1.32751e-16)
(0.22811 0.129086 6.18079e-16)
(0.240251 0.151053 -4.74984e-16)
(0.18314 0.107857 2.16192e-16)
(0.193206 0.126599 -5.28579e-16)
(0.145136 0.0889047 -7.30351e-16)
(0.153499 0.104633 -6.20039e-16)
(0.113387 0.0724227 -1.10985e-15)
(0.120372 0.0854067 -2.53665e-16)
(0.0871101 0.0584581 -2.60521e-16)
(0.0930027 0.0689961 -3.66453e-16)
(0.0654898 0.046956 1.68818e-15)
(0.0705481 0.055349 4.38011e-16)
(0.0477081 0.0378159 3.64308e-15)
(0.0521799 0.0443344 2.09724e-15)
(0.0329387 0.0309799 3.87902e-15)
(0.0370925 0.035818 3.89888e-15)
(0.020296 0.0263367 2.04473e-15)
(0.0244407 0.0297727 3.59232e-15)
(0.00892471 0.0216354 9.5379e-16)
(0.0133128 0.0259552 -1.441e-16)
(0.00350562 0.0197407 -1.95927e-15)
(0.934857 0.290561 -7.75947e-16)
(0.948891 0.255091 -2.21319e-16)
(0.835467 0.353735 -1.57733e-15)
(0.900361 0.38524 -1.91313e-15)
(0.733484 0.346676 -1.53228e-15)
(0.761294 0.387138 -1.55119e-15)
(0.635053 0.325313 -1.20061e-15)
(0.67218 0.366589 -1.37832e-15)
(0.542798 0.298446 -3.47163e-16)
(0.569532 0.337729 -4.2452e-16)
(0.458056 0.268843 4.57833e-16)
(0.480905 0.305595 6.93679e-16)
(0.381852 0.23777 1.62176e-16)
(0.400221 0.271242 7.15854e-16)
(0.314572 0.206691 -5.42421e-16)
(0.329384 0.236553 -6.70338e-16)
(0.256165 0.176752 -1.00197e-15)
(0.26803 0.20288 -9.44531e-16)
(0.206227 0.148837 -1.60208e-15)
(0.215741 0.171301 -1.37226e-15)
(0.164112 0.123546 -1.35003e-15)
(0.17177 0.142544 -1.62515e-15)
(0.129022 0.101226 -1.54853e-16)
(0.135239 0.117038 -7.24449e-16)
(0.100087 0.0820107 4.78494e-16)
(0.1052 0.0949637 5.79234e-17)
(0.0764203 0.0658737 3.12608e-16)
(0.0807071 0.0763068 2.14429e-17)
(0.0571538 0.0526824 8.24038e-16)
(0.0608508 0.0609227 -9.15979e-17)
(0.0414571 0.0422664 2.33116e-15)
(0.0447799 0.0485947 9.78404e-16)
(0.0285258 0.0345157 3.61993e-15)
(0.0317029 0.039119 1.76168e-15)
(0.0175292 0.0292704 1.47639e-15)
(0.020823 0.0324235 2.81376e-15)
(0.00768664 0.0239983 -2.99069e-15)
(0.0113081 0.0282067 -9.06409e-16)
(0.00296621 0.0214075 -3.4079e-15)
(0.926965 0.347708 -1.31308e-15)
(0.94751 0.305438 -3.80848e-16)
(0.818999 0.419157 -1.88943e-15)
(0.884624 0.453598 -1.60817e-15)
(0.710053 0.407819 -1.40223e-15)
(0.738832 0.452113 -1.0709e-15)
(0.606647 0.379799 -6.27684e-16)
(0.643109 0.424637 -7.74898e-16)
(0.511437 0.345616 5.8285e-16)
(0.536144 0.387862 2.12429e-16)
(0.425653 0.30866 9.44455e-16)
(0.446114 0.347761 1.26577e-15)
(0.350054 0.27059 -8.7861e-17)
(0.365615 0.305754 7.10535e-16)
(0.284635 0.233197 -1.06017e-15)
(0.296572 0.264185 -6.43909e-16)
(0.228949 0.197774 -1.30279e-15)
(0.238021 0.224566 -9.31536e-16)
(0.182224 0.165252 -1.39365e-15)
(0.189144 0.188032 -8.41431e-16)
(0.143507 0.136195 -1.02063e-15)
(0.148833 0.155264 -7.35381e-16)
(0.111771 0.110868 -5.20798e-16)
(0.115941 0.126594 -7.40878e-16)
(0.0859913 0.0892998 -3.86305e-16)
(0.0893411 0.102073 -1.53644e-15)
(0.065189 0.0713572 -3.71089e-16)
(0.0679775 0.0815628 -1.52318e-15)
(0.0484596 0.0568072 5.40771e-17)
(0.0508922 0.0647991 -8.50635e-16)
(0.0349765 0.0453947 4.2149e-16)
(0.0372315 0.0514646 7.50764e-17)
(0.0239723 0.0369477 9.7353e-16)
(0.0262345 0.0412776 2.1597e-16)
(0.014685 0.031253 5.12372e-16)
(0.0171676 0.034113 1.20157e-15)
(0.00641895 0.0255719 -1.30133e-15)
(0.00929072 0.0296131 -6.49303e-16)
(0.00242586 0.0224267 -9.20917e-16)
(0.916907 0.408798 -6.60143e-16)
(0.945099 0.360972 -2.02729e-16)
(0.79858 0.486981 -8.19081e-16)
(0.865091 0.525582 -4.25887e-16)
(0.681639 0.469656 -4.659e-16)
(0.711426 0.518686 3.07404e-17)
(0.572918 0.433464 3.52252e-17)
(0.608341 0.482447 -6.02375e-17)
(0.474957 0.390725 8.70934e-16)
(0.497312 0.436271 3.14785e-16)
(0.38872 0.345511 1.04025e-15)
(0.406495 0.387079 8.69272e-16)
(0.314512 0.299914 1.74455e-16)
(0.327031 0.33673 5.43853e-16)
(0.251781 0.256019 -5.19788e-16)
(0.260715 0.288001 -1.55221e-16)
(0.199583 0.215189 -4.86556e-16)
(0.205821 0.242469 -1.79178e-16)
(0.156719 0.178318 -2.06532e-16)
(0.161076 0.20123 -5.99955e-17)
(0.121912 0.145859 -4.65555e-16)
(0.124982 0.164829 -5.03654e-17)
(0.0939109 0.117933 -1.72035e-15)
(0.096137 0.133424 -6.51083e-16)
(0.0715512 0.0944197 -2.63298e-15)
(0.0732505 0.106892 -2.26783e-15)
(0.0537874 0.0750485 -1.98583e-15)
(0.0551877 0.0849317 -2.71858e-15)
(0.0397001 0.0594684 -8.30546e-16)
(0.0409691 0.0671425 -1.8543e-15)
(0.0284874 0.0473309 -1.23178e-16)
(0.0297612 0.0530973 -1.15016e-15)
(0.0194349 0.0383956 4.3574e-16)
(0.0208519 0.0424324 -3.65192e-16)
(0.0118616 0.0323946 8.14312e-17)
(0.0135847 0.0349665 -2.38789e-16)
(0.00516557 0.0264526 -2.82297e-16)
(0.00732123 0.0302899 -9.12886e-16)
(0.00190081 0.0228911 7.15193e-16)
(0.904127 0.474856 2.22123e-17)
(0.941202 0.423067 -1.36934e-16)
(0.77344 0.557724 3.89958e-16)
(0.840928 0.601961 3.64554e-16)
(0.647547 0.532245 4.19462e-16)
(0.678202 0.587029 7.97338e-16)
(0.533432 0.486065 2.0883e-16)
(0.567252 0.539789 2.89685e-16)
(0.433249 0.43339 3.14699e-16)
(0.452802 0.482531 2.10732e-17)
(0.347456 0.379003 3.92427e-16)
(0.362147 0.423085 4.90429e-17)
(0.27565 0.325435 2.25847e-16)
(0.284845 0.3638 1.65937e-16)
(0.216567 0.274973 1.71301e-16)
(0.222351 0.307775 1.50935e-16)
(0.168672 0.228936 2.30145e-16)
(0.172032 0.256508 3.6999e-16)
(0.130303 0.188079 8.97679e-17)
(0.132129 0.210936 1.73912e-16)
(0.0998647 0.152655 -2.29889e-16)
(0.10076 0.171363 -1.56547e-16)
(0.0759029 0.12258 -1.18042e-15)
(0.0762915 0.137706 -4.57301e-16)
(0.057148 0.0975469 -2.35112e-15)
(0.0573116 0.109618 -1.40873e-15)
(0.0425185 0.077124 -2.59011e-15)
(0.0426427 0.0866116 -1.96882e-15)
(0.0311084 0.0608321 -2.15884e-15)
(0.031316 0.0681388 -1.84596e-15)
(0.0221617 0.0482253 -1.38007e-15)
(0.0225431 0.05366 -1.32265e-15)
(0.0150329 0.0389938 -1.01161e-15)
(0.0156788 0.042731 -7.76829e-16)
(0.00913275 0.032817 -1.194e-15)
(0.0101554 0.0351147 -6.98389e-16)
(0.00395893 0.0267449 4.77649e-17)
(0.00544357 0.030356 -1.65467e-16)
(0.0014026 0.0228951 1.44348e-15)
(0.887883 0.54701 1.90082e-16)
(0.935193 0.493348 -1.70966e-16)
(0.742605 0.631801 7.55317e-16)
(0.811047 0.68346 6.22622e-16)
(0.606971 0.59545 6.70992e-16)
(0.63811 0.657113 9.47508e-16)
(0.487749 0.537164 1.09152e-16)
(0.519191 0.596195 3.71782e-16)
(0.386273 0.473084 -2.3235e-16)
(0.402448 0.526033 -1.56948e-16)
(0.30215 0.408676 -1.66558e-16)
(0.313279 0.45522 -3.08145e-16)
(0.233967 0.346845 9.43616e-17)
(0.239533 0.386576 -8.41842e-17)
(0.179586 0.289918 3.41661e-16)
(0.182078 0.323315 2.39192e-16)
(0.136818 0.239019 3.15349e-16)
(0.137269 0.266662 4.30129e-16)
(0.103532 0.194642 -6.2821e-17)
(0.102875 0.217256 -2.65192e-17)
(0.0778433 0.156754 -3.7509e-16)
(0.076656 0.175051 -5.9575e-16)
(0.058141 0.125012 -6.79919e-16)
(0.0568051 0.139659 -7.27562e-16)
(0.0430933 0.0988901 -1.0466e-15)
(0.0418392 0.110477 -9.0037e-16)
(0.0316212 0.077782 -1.25794e-15)
(0.030582 0.0868181 -1.10232e-15)
(0.0228618 0.0610774 -1.04525e-15)
(0.0221098 0.0679824 -8.03725e-16)
(0.0161264 0.0482356 -7.44171e-16)
(0.0157042 0.0533226 1.47105e-16)
(0.0108526 0.0388803 -4.77484e-16)
(0.0108027 0.0423199 -2.22017e-16)
(0.00655073 0.0326428 2.85954e-16)
(0.00693563 0.0346852 -3.75197e-17)
(0.00282155 0.026553 1.17446e-15)
(0.0036874 0.029926 1.01497e-15)
(0.000938811 0.0225284 1.13532e-15)
(0.867173 0.626512 2.42108e-16)
(0.926194 0.573783 -1.84045e-16)
(0.704875 0.709487 8.07433e-16)
(0.774038 0.770714 6.50046e-16)
(0.559019 0.658902 6.59124e-16)
(0.589934 0.728643 8.91404e-16)
(0.435476 0.586115 1.15178e-16)
(0.463534 0.650941 3.64028e-16)
(0.334106 0.509157 -2.30043e-16)
(0.34621 0.566002 -6.23054e-17)
(0.253215 0.434036 -2.28307e-16)
(0.260243 0.482867 -2.37486e-16)
(0.190045 0.363865 5.57179e-17)
(0.191684 0.404698 -8.62105e-17)
(0.141469 0.300775 3.24606e-16)
(0.140548 0.334495 2.43697e-16)
(0.104613 0.24551 1.01945e-16)
(0.10215 0.272988 3.25122e-16)
(0.0769161 0.198177 -5.37162e-16)
(0.0738455 0.220361 -2.89115e-16)
(0.0562647 0.158378 -9.31845e-16)
(0.0531004 0.176123 -8.10154e-16)
(0.0409501 0.125465 -9.38374e-16)
(0.0380101 0.139534 -8.04161e-16)
(0.0296321 0.0986766 -9.54719e-16)
(0.0270802 0.109715 -6.01423e-16)
(0.021275 0.077229 -6.68353e-16)
(0.0191841 0.0857732 -7.83654e-16)
(0.0150884 0.0603852 3.36613e-16)
(0.0134764 0.0668669 -2.1537e-16)
(0.0104701 0.0475168 6.41223e-16)
(0.0093309 0.0522498 9.57877e-16)
(0.00695204 0.0381878 1.97639e-16)
(0.00628082 0.0413379 3.74694e-17)
(0.00414977 0.0319886 6.62841e-16)
(0.00396078 0.0337969 -3.03289e-16)
(0.00176777 0.0259749 9.78531e-16)
(0.00207068 0.0291058 8.1407e-16)
(0.000513876 0.0218728 4.82191e-16)
(0.840603 0.714762 2.05663e-16)
(0.912958 0.666821 -1.84814e-16)
(0.65879 0.790848 7.31535e-16)
(0.728055 0.864166 6.08729e-16)
(0.502741 0.721952 6.07321e-16)
(0.532316 0.800997 7.63304e-16)
(0.376328 0.632061 1.92275e-16)
(0.399747 0.703024 3.42169e-16)
(0.276989 0.540865 -7.07828e-17)
(0.28423 0.601527 1.24236e-16)
(0.201201 0.454595 -1.01516e-16)
(0.203566 0.505402 -8.95049e-17)
(0.14455 0.376282 9.47156e-17)
(0.141997 0.417874 -8.23789e-17)
(0.102865 0.307546 2.44846e-16)
(0.0984501 0.341282 1.43706e-16)
(0.0726214 0.248558 -5.06822e-17)
(0.0672757 0.275627 1.49007e-16)
(0.0509124 0.198914 -5.52204e-16)
(0.0455207 0.220488 -3.01418e-16)
(0.0354779 0.157784 -6.89027e-16)
(0.0304563 0.174856 -5.20322e-16)
(0.0245869 0.124195 -4.82999e-16)
(0.0201687 0.137606 -3.8058e-16)
(0.0169469 0.0971413 -4.40684e-16)
(0.0132176 0.107581 -1.83583e-16)
(0.0116061 0.0756706 -3.49503e-16)
(0.00857255 0.083696 -4.81612e-16)
(0.00787299 0.0589299 3.83256e-16)
(0.00549694 0.0649771 -2.01499e-16)
(0.00524805 0.046215 3.77902e-16)
(0.00347478 0.0505947 7.34965e-16)
(0.00336603 0.0370394 -4.40304e-16)
(0.00214498 0.0399117 -3.84511e-16)
(0.00194945 0.0309608 -1.50833e-16)
(0.00124919 0.0325566 -1.24323e-15)
(0.000805394 0.0250989 3.4075e-16)
(0.000602097 0.0279893 -4.9013e-17)
(0.000129746 0.0210005 1.93641e-16)
(0.80617 0.813336 2.00031e-16)
(0.893658 0.775622 -9.69591e-17)
(0.602631 0.875625 6.40161e-16)
(0.670658 0.963862 5.81644e-16)
(0.437189 0.783622 5.08583e-16)
(0.463834 0.87315 6.52633e-16)
(0.3102 0.673942 2.75787e-16)
(0.327468 0.751144 3.39818e-16)
(0.215364 0.567415 1.04546e-16)
(0.216887 0.631613 1.41618e-16)
(0.146803 0.46992 -7.13353e-17)
(0.143958 0.522253 -9.25407e-17)
(0.0982102 0.383979 -3.39413e-17)
(0.0912621 0.425919 -1.52485e-16)
(0.064421 0.310331 5.30929e-17)
(0.0564829 0.343751 -6.50738e-17)
(0.0413646 0.248386 -9.23565e-17)
(0.0332051 0.274806 -4.15342e-17)
(0.0259112 0.197128 -2.73284e-16)
(0.0183158 0.21793 -1.88712e-16)
(0.0157613 0.155257 -2.2724e-16)
(0.00901438 0.17155 -1.91079e-16)
(0.0092415 0.121466 -9.55107e-17)
(0.00347481 0.134156 -6.42669e-17)
(0.00516287 0.0945163 -2.25059e-16)
(0.000375018 0.104324 -1.11195e-16)
(0.00269424 0.0733029 -3.39008e-16)
(-0.00117739 0.0807943 -5.24522e-16)
(0.0012649 0.0568736 1.39885e-16)
(-0.0017852 0.0624837 -3.25781e-16)
(0.000489921 0.0444629 3.36496e-18)
(-0.00184045 0.0484956 5.44636e-16)
(0.00011147 0.0355449 -1.15202e-15)
(-0.00159287 0.0381534 -4.02833e-16)
(-4.1542e-05 0.0296535 -1.13585e-15)
(-0.00119378 0.0310578 -1.5695e-15)
(-6.39315e-05 0.0240025 -1.85945e-16)
(-0.000716796 0.0266583 -6.33899e-16)
(-0.000213576 0.0199726 1.41273e-16)
(0.761055 0.923994 2.6692e-16)
(0.865585 0.904302 1.19103e-17)
(0.534463 0.96309 5.94125e-16)
(0.598619 1.06916 5.8575e-16)
(0.361496 0.842575 4.90109e-16)
(0.383144 0.943628 5.91796e-16)
(0.237246 0.71052 2.11123e-16)
(0.246589 0.79372 3.01549e-16)
(0.149902 0.588029 -4.68447e-17)
(0.144851 0.655252 -2.28655e-17)
(0.0908447 0.479682 -1.69767e-16)
(0.082306 0.532957 -3.09213e-16)
(0.0517899 0.386958 -1.80984e-16)
(0.0403323 0.428787 -2.38869e-16)
(0.0267575 0.309326 -1.5417e-16)
(0.015325 0.342092 -1.70044e-16)
(0.0113 0.245285 -1.34008e-16)
(0.000437657 0.270831 -6.8151e-17)
(0.00223021 0.193134 -1.11128e-16)
(-0.00743004 0.213021 -2.74177e-17)
(-0.00267917 0.151095 -3.59217e-17)
(-0.0110086 0.166525 4.40859e-17)
(-0.00496096 0.11754 -7.95545e-17)
(-0.0119423 0.129465 2.22133e-17)
(-0.00564919 0.0910228 -3.98142e-16)
(-0.0113764 0.100178 -1.71532e-16)
(-0.00542452 0.0703071 -5.10002e-16)
(-0.0100312 0.0772593 -5.54543e-16)
(-0.00472056 0.0543624 6.52419e-17)
(-0.0083569 0.0595395 -3.85364e-16)
(-0.00380052 0.0423779 1.5146e-16)
(-0.00661312 0.0460736 3.89752e-16)
(-0.00281314 0.0337998 -8.08896e-16)
(-0.00493603 0.0361596 -1.09988e-16)
(-0.00182612 0.028147 -1.08604e-15)
(-0.00337262 0.0293796 -1.02552e-15)
(-0.000838937 0.0227513 -3.17099e-16)
(-0.0018896 0.0251801 -6.30752e-16)
(-0.000517358 0.0188411 5.50364e-17)
(0.701361 1.04864 3.15836e-16)
(0.824777 1.05822 3.18935e-17)
(0.452227 1.05184 5.8362e-16)
(0.507667 1.17835 5.92967e-16)
(0.274982 0.8971 4.10877e-16)
(0.289205 1.01049 5.50998e-16)
(0.157956 0.740441 7.74355e-17)
(0.157339 0.82893 1.31351e-16)
(0.0815006 0.602015 -2.73306e-16)
(0.0691155 0.671517 -2.48059e-16)
(0.0342572 0.483702 -3.73565e-16)
(0.0196422 0.537217 -4.78251e-16)
(0.00599488 0.385351 -2.27799e-16)
(-0.00992338 0.42662 -2.74131e-16)
(-0.009568 0.304816 -8.78479e-17)
(-0.0243997 0.336583 -7.89182e-17)
(-0.0171962 0.239597 3.27585e-17)
(-0.0306037 0.26407 1.59957e-16)
(-0.0198951 0.187266 1.19659e-16)
(-0.0314599 0.206119 2.62377e-16)
(-0.019703 0.145594 9.86358e-17)
(-0.029468 0.160099 3.4198e-16)
(-0.0179425 0.112668 -6.6614e-17)
(-0.0260113 0.123798 2.08238e-16)
(-0.0154511 0.0868651 -3.23168e-16)
(-0.0220101 0.0953588 4.16291e-17)
(-0.0127358 0.0668463 -4.35205e-16)
(-0.0179872 0.0732623 -2.12752e-16)
(-0.010082 0.0515247 -7.09586e-17)
(-0.0142287 0.0562782 -3.1982e-16)
(-0.0076275 0.040061 1.37822e-16)
(-0.0108581 0.0434328 1.01401e-16)
(-0.00541336 0.0318849 -3.24262e-16)
(-0.00789889 0.0340118 2.21192e-17)
(-0.00340885 0.0265087 -5.92058e-16)
(-0.00529877 0.027588 -3.56639e-16)
(-0.00152538 0.0213999 -2.72485e-16)
(-0.00292349 0.0236117 -3.02099e-16)
(-0.000783701 0.0176478 -1.5889e-16)
(0.621614 1.18941 2.96375e-16)
(0.765486 1.24437 3.45033e-17)
(0.353795 1.13963 5.61778e-16)
(0.392086 1.28814 5.76675e-16)
(0.177296 0.945137 2.83001e-16)
(0.181546 1.07128 4.80867e-16)
(0.0732053 0.76232 -1.79432e-16)
(0.0603675 0.854801 -9.94858e-17)
(0.0111742 0.60883 -4.43638e-16)
(-0.00900947 0.679705 -4.47183e-16)
(-0.0219834 0.481953 -3.82276e-16)
(-0.0429119 0.5349 -4.65786e-16)
(-0.0382744 0.379433 -1.31725e-16)
(-0.058656 0.419636 -1.89207e-16)
(-0.0440529 0.297181 1.57099e-16)
(-0.0621446 0.327674 1.07689e-16)
(-0.0438202 0.231705 3.77257e-16)
(-0.0595906 0.254938 4.06234e-16)
(-0.040298 0.179866 4.72541e-16)
(-0.0535999 0.197596 5.41718e-16)
(-0.0352342 0.139043 4.43558e-16)
(-0.0462856 0.152581 6.19794e-16)
(-0.0296817 0.107082 3.08151e-16)
(-0.0387111 0.117404 5.84114e-16)
(-0.0242505 0.0822264 1.42557e-16)
(-0.0315356 0.0900604 5.94758e-16)
(-0.0192602 0.0630625 -1.05419e-16)
(-0.0250692 0.0689521 3.35156e-16)
(-0.0148432 0.0484702 -1.52665e-16)
(-0.0194286 0.0528134 -1.86605e-16)
(-0.0110131 0.0375971 -8.4199e-18)
(-0.0146018 0.0406597 -1.21494e-16)
(-0.00770689 0.0298674 -1.2798e-17)
(-0.0105034 0.0317769 3.20598e-17)
(-0.00480189 0.0247943 -8.31144e-17)
(-0.00698826 0.0257366 1.40894e-16)
(-0.00212825 0.0199926 -1.9352e-16)
(-0.00382796 0.0219985 -2.04648e-18)
(-0.00101535 0.016426 -3.24597e-16)
(0.514553 1.34818 3.01764e-16)
(0.680753 1.47171 3.17756e-17)
(0.23614 1.22298 4.99446e-16)
(0.244326 1.39374 5.30694e-16)
(0.0687633 0.984276 1.14182e-16)
(0.0605332 1.12248 3.31013e-16)
(-0.0161512 0.774808 -3.55446e-16)
(-0.0431593 0.86965 -2.79629e-16)
(-0.0593993 0.608111 -4.6823e-16)
(-0.0879426 0.678988 -5.01431e-16)
(-0.0768529 0.474634 -2.80901e-16)
(-0.104167 0.526288 -3.61074e-16)
(-0.0805037 0.369604 3.94901e-17)
(-0.105096 0.408293 -8.79078e-17)
(-0.0763278 0.286866 3.45545e-16)
(-0.0974647 0.315826 2.07201e-16)
(-0.0683722 0.222007 5.62489e-16)
(-0.0862976 0.243866 4.61721e-16)
(-0.058892 0.171267 6.81089e-16)
(-0.0737545 0.187813 6.01552e-16)
(-0.0492513 0.131709 7.51468e-16)
(-0.0614414 0.144257 7.1737e-16)
(-0.0401918 0.100992 8.53637e-16)
(-0.0500614 0.110504 8.99128e-16)