/*--------------------------------*- C++ -*----------------------------------*\
  =========                 |
  \\      /  F ield         | OpenFOAM: The Open Source CFD Toolbox
   \\    /   O peration     | Website:  https://openfoam.org
    \\  /    A nd           | Version:  13
     \\/     M anipulation  |
\*---------------------------------------------------------------------------*/
FoamFile
{
    format      ascii;
    class       volScalarField;
    location    "2.05";
    object      alpha.oil;
}
// * * * * * * * * * * * * * * * * * * * * * * * * * * * * * * * * * * * * * //

dimensions      [];

internalField   nonuniform List<scalar> 
2268
(
1.53725e-14
1.55264e-13
8.3391e-13
2.9856e-12
8.09757e-12
1.90408e-11
4.01804e-11
7.87351e-11
1.50638e-10
2.9997e-10
5.38417e-10
9.8746e-10
1.86551e-09
3.50875e-09
6.514e-09
1.16926e-08
1.80925e-08
1.87271e-08
1.87688e-08
0.000177123
0.000449936
0.000566406
0.00056716
9.95217e-15
1.43943e-13
9.89903e-13
3.52533e-12
9.90115e-12
2.45036e-11
5.71801e-11
1.13341e-10
2.09663e-10
3.82117e-10
7.1249e-10
1.44943e-09
2.59407e-09
4.64541e-09
7.87549e-09
1.48769e-08
3.2048e-08
4.1752e-08
3.76042e-08
9.5372e-09
9.02945e-08
5.7096e-05
0.000198656
6.9973e-15
1.0804e-13
9.59733e-13
4.35995e-12
1.12547e-11
2.61383e-11
5.50271e-11
1.11374e-10
2.18348e-10
4.18164e-10
8.01946e-10
1.38192e-09
2.36187e-09
3.81667e-09
5.81277e-09
7.58418e-09
8.09097e-09
9.00032e-09
8.15844e-09
8.39724e-09
9.71169e-09
1.05734e-08
2.31235e-08
3.61422e-15
2.38408e-14
7.09946e-13
3.98751e-12
1.06119e-11
2.6014e-11
6.53701e-11
1.40739e-10
2.924e-10
5.82566e-10
1.08303e-09
1.90118e-09
3.19742e-09
5.22796e-09
7.86365e-09
1.1383e-08
8.25252e-09
7.99117e-09
7.53605e-09
7.99117e-09
7.9547e-09
8.08702e-09
1.39716e-08
4.15752e-14
7.32616e-14
4.9007e-13
2.48688e-12
7.53388e-12
1.95121e-11
4.19725e-11
1.05004e-10
2.32574e-10
5.2459e-10
1.04326e-09
2.08202e-09
3.64933e-09
5.25034e-09
6.38592e-09
2.52028e-08
2.81182e-07
7.06922e-07
9.35363e-07
2.49628e-07
8.07117e-09
7.56054e-07
2.47676e-06
7.48961e-13
1.3699e-12
2.21535e-12
3.65058e-12
7.08799e-12
1.73239e-11
4.10376e-11
7.45167e-11
1.73289e-10
3.66323e-10
7.87176e-10
1.49396e-09
2.10029e-09
2.20764e-09
1.99599e-09
8.05973e-09
1.1447e-06
2.95937e-06
3.01592e-06
3.07501e-06
7.7682e-06
3.14279e-05
4.80517e-05
2.35182e-12
8.49227e-12
1.28131e-11
1.30951e-11
1.19363e-11
1.44521e-11
2.15289e-11
2.77419e-11
5.71654e-11
1.5576e-10
2.69348e-10
3.81713e-10
6.25972e-10
1.60609e-09
5.81298e-09
6.15354e-08
6.19028e-07
1.46393e-06
2.5217e-06
5.05132e-06
2.08217e-05
4.8183e-05
4.96844e-05
1.84128e-12
1.50572e-12
1.53194e-12
6.92904e-12
7.20818e-12
8.69713e-12
3.08369e-11
5.21634e-11
1.00012e-10
1.65306e-10
2.52261e-10
4.39424e-10
9.901e-10
2.89973e-09
9.60417e-09
2.33539e-08
9.5925e-31
-2.44316e-27
-6.52966e-24
2.49009e-06
1.33388e-05
4.54337e-06
1.91265e-05
0.113624
0.111372
0.0930191
0.0440526
0.0300049
0.0295913
0.0458085
0.27223
0.315162
0.324827
0.328754
0.333396
0.327104
0.260572
0.0706665
0.081689
0.137139
0.221606
0.219038
0.411388
0.405133
0.377617
0.3342
0.218003
0.052268
0.0363465
0.0381074
0.0530112
0.0561111
0.08074
0.143167
0.193723
0.131653
0.064489
0.0629881
0.137631
0.222328
0.219108
0.417722
0.364117
0.505083
0.616284
0.6204
0.464848
0.0951609
0.00118255
2.14586e-10
-2.09671e-21
2.14586e-10
2.64901e-10
0.150647
0.183179
0.0897706
0.065936
0.146563
0.222726
0.241856
0.151418
0.0105429
0.0462585
0.275696
0.620844
0.641295
0.356801
0.0343469
0.00348196
0.000582045
2.97372e-07
0.0258623
0.172985
0.195699
0.252374
0.226658
0.252797
0.342204
0.498911
0.00407247
0.00442804
0.00450318
0.00468315
0.527794
0.741525
0.720878
0.26456
0.0043179
0.000882008
6.35702e-07
0.0971987
0.244194
0.248905
0.253301
0.269145
0.254565
0.320899
0.504142
0.0215796
0.0142638
0.00508972
0.0378757
0.50369
0.74151
0.740283
0.297029
0.000364416
1.31699e-08
0.00891449
0.174447
0.268028
0.269096
0.270982
0.272762
0.275584
0.321792
0.466529
0.0355093
0.0342409
0.0362108
0.114838
0.670323
0.738839
0.634774
0.0107313
-5.73301e-11
-2.58415e-13
0.00214203
0.0349751
0.158256
0.263632
0.269666
0.261809
0.202206
0.170205
0.508971
0.0315161
0.0327055
0.0402393
0.157242
0.701818
0.701015
0.144236
4.91262e-06
4.58565e-07
-7.23612e-14
-4.23308e-11
1.38347e-16
0.000839459
0.0397198
0.0691181
0.0446337
0.0132846
0.00279658
0.508465
1.50825e-09
9.42077e-10
8.07631e-10
8.31864e-10
1.0004e-09
1.13823e-09
5.81081e-10
4.71799e-10
3.84161e-10
3.00882e-10
2.31846e-10
3.03204e-10
5.6425e-10
9.10123e-10
1.70098e-09
4.00479e-09
1.9997e-13
-1.33354e-26
-1.07504e-22
-3.69168e-23
9.40369e-07
1.30256e-06
1.32055e-06
5.18447e-09
4.94933e-09
4.30458e-09
4.11202e-09
4.4114e-09
4.44755e-09
4.30613e-09
2.85088e-09
1.55814e-09
9.4712e-10
3.56072e-10
2.89409e-10
4.47277e-10
5.28771e-10
5.44638e-10
2.32741e-10
2.17692e-09
-8.39053e-21
8.32442e-21
7.95024e-22
-1.20968e-25
1.86922e-19
0.108834
5.15697e-09
4.27565e-09
3.78204e-09
3.45754e-09
3.4989e-09
3.61929e-09
3.58624e-09
3.04365e-09
2.02932e-09
1.13912e-09
2.9606e-11
-1.90688e-13
-3.26938e-13
-3.98681e-15
-8.68197e-16
-1.50699e-16
0.0022489
0.0190832
0.0339228
0.0674207
0.289619
0.738776
0.935023
5.35538e-11
-9.68792e-13
-2.94383e-15
1.57004e-21
-7.07304e-27
4.78873e-28
-2.39663e-27
-7.58289e-28
3.35625e-28
4.14677e-28
7.37615e-29
0.00309539
0.0166766
0.0411775
0.0759958
0.173012
0.352358
0.469997
0.613915
0.757359
0.881395
0.997622
0.986276
0.00188882
0.0307037
0.130602
0.224489
0.320133
0.399622
0.376463
0.256759
0.179219
0.218728
0.342518
0.44464
0.516148
0.589495
0.682695
0.788188
0.903139
0.869343
0.831499
0.959216
0.999257
0.997976
0.987572
0.425589
0.634557
0.900346
0.965208
0.976787
0.976705
0.976787
0.911056
0.850925
0.912627
0.931711
0.935058
0.948579
0.954395
0.952095
0.979888
0.994598
0.98385
0.974998
0.99868
0.999962
0.99877
0.99854
0.760812
0.822531
0.894748
0.924084
0.936906
0.94648
0.954041
0.951292
0.952769
0.961578
0.973631
0.991467
0.999888
0.999926
0.999962
0.999997
0.999999
0.999999
0.999999
0.999999
0.999967
0.99996
1
0.0740422
0.115349
0.163642
0.209091
0.246136
0.275422
0.304652
0.356623
0.406315
0.450121
0.51305
0.584719
0.688067
0.812127
0.938645
0.999994
0.999997
0.999999
0.999999
0.999999
0.999998
1
0.999999
-1.64515e-10
-6.24488e-10
3.45302e-24
2.88841e-23
-1.37942e-13
-8.28812e-22
5.24225e-19
-6.65651e-19
8.93583e-07
0.000842243
0.00485862
0.0139017
0.0338319
0.082895
0.169604
0.343017
0.625463
0.883428
0.998983
0.999997
0.999998
0.999657
0.966554
1.31314e-06
4.08212e-06
3.03338e-06
1.83485e-05
0.000241346
0.000318532
5.07656e-05
1.02801e-07
-2.17905e-13
8.86934e-22
-2.78287e-08
-2.66275e-12
1.41377e-06
2.96129e-06
4.17271e-06
5.82568e-06
0.00788462
0.0738167
0.191008
0.334632
0.398941
0.379325
0.272445
2.2265e-06
8.06557e-06
1.08225e-05
6.47002e-05
4.64344e-08
2.43304e-06
4.62611e-06
-2.75523e-10
2.17906e-13
1.58283e-05
3.46047e-05
1.91929e-08
8.02338e-08
-9.91818e-10
2.71807e-12
-5.28168e-12
1.17732e-06
5.98481e-06
7.14749e-06
5.93823e-06
3.2889e-06
1.90642e-07
8.79153e-08
1.15988e-06
2.83856e-06
2.77561e-07
7.40166e-08
5.39132e-08
5.19921e-08
2.40556e-07
8.24589e-06
9.46392e-05
0.000170036
0.000167461
0.000102346
5.54505e-10
1.90646e-09
1.40691e-10
5.56835e-10
-3.25789e-10
2.444e-11
-2.76375e-10
4.16297e-07
1.9509e-07
8.97994e-08
7.95281e-08
4.8782e-07
2.76865e-07
1.21905e-07
1.0308e-07
1.23008e-07
8.36885e-08
2.49655e-07
1.7448e-05
0.000171453
0.000171773
0.00016946
0.00014658
-1.15344e-10
1.27276e-10
2.16075e-09
3.75648e-09
3.01866e-08
6.91412e-08
8.30674e-08
7.36688e-08
5.26608e-08
3.3258e-08
5.10891e-08
3.73233e-07
2.28348e-07
1.62309e-07
1.30593e-07
1.64792e-07
1.93555e-07
2.07976e-07
2.21683e-06
6.78043e-05
0.000148307
0.000132335
2.68044e-05
3.75578e-07
2.75727e-26
1.89511e-08
5.04095e-09
7.19095e-08
2.20789e-07
2.46834e-07
1.91437e-07
1.90512e-07
1.89172e-07
1.41524e-07
1.85004e-07
2.11631e-07
1.16537e-07
1.01755e-07
1.45867e-07
2.45906e-07
3.05246e-07
3.41969e-07
8.81334e-07
6.19068e-06
5.40976e-06
2.80221e-08
1.0383e-07
3.22442e-09
2.16286e-08
8.19068e-09
6.02611e-08
3.18847e-07
3.13042e-07
3.08409e-07
2.69895e-07
2.33082e-07
1.92018e-07
7.45613e-08
1.06402e-07
8.42411e-08
6.64668e-08
5.67798e-08
6.35628e-08
9.32538e-08
8.44328e-08
3.99206e-08
8.03625e-08
2.27633e-07
4.23881e-07
5.13265e-07
5.29997e-08
1.41238e-08
6.87302e-09
2.54468e-08
1.73556e-07
2.89412e-07
2.89882e-07
2.42907e-07
1.90169e-07
1.46947e-07
5.74974e-08
8.94666e-08
7.86315e-08
5.32457e-08
3.66926e-08
2.64804e-08
2.68122e-08
3.01376e-08
3.4733e-08
1.47846e-07
5.76888e-07
9.67532e-07
9.5851e-07
4.31179e-07
1.17638e-08
4.93434e-09
1.0321e-08
5.01101e-08
1.60378e-07
1.81664e-07
1.51092e-07
1.2606e-07
9.60133e-08
4.90815e-08
8.49335e-08
7.58665e-08
5.14432e-08
3.12249e-08
2.11754e-08
2.08812e-08
2.93565e-08
4.96731e-08
1.47086e-07
5.04591e-07
8.15126e-07
8.48406e-07
3.12279e-07
8.02227e-09
4.94139e-09
8.67481e-09
1.58735e-08
6.13229e-08
8.26882e-08
7.69521e-08
5.98314e-08
4.73844e-08
4.63686e-08
8.24392e-08
7.63973e-08
5.22881e-08
3.11207e-08
2.03039e-08
1.77071e-08
2.16382e-08
3.33283e-08
6.31264e-08
1.50246e-07
3.4227e-07
2.36905e-07
4.84598e-08
8.57401e-09
8.96526e-09
1.02504e-08
1.1692e-08
1.23278e-08
2.56257e-08
2.33467e-08
2.30209e-08
1.96588e-08
3.68499e-08
7.06281e-08
7.05085e-08
5.24575e-08
3.21851e-08
1.96737e-08
1.46835e-08
1.36591e-08
1.5691e-08
2.12857e-08
2.36081e-08
1.59597e-08
1.52978e-08
1.42738e-08
1.17719e-08
1.20214e-08
1.03471e-08
9.88053e-09
1.02629e-08
9.83904e-09
1.024e-08
9.42733e-09
7.97257e-09
3.06185e-08
5.97363e-08
6.14076e-08
4.81195e-08
3.19705e-08
1.84991e-08
1.21314e-08
9.72269e-09
8.77489e-09
8.41891e-09
8.04627e-09
6.02579e-09
7.12183e-09
8.78408e-09
1.0717e-08
1.04365e-08
8.30839e-09
7.7229e-09
7.51814e-09
6.88072e-09
6.19719e-09
5.23454e-09
4.08749e-09
2.0586e-08
4.38246e-08
5.08161e-08
4.10645e-08
2.96812e-08
1.73199e-08
1.03363e-08
7.11912e-09
6.0348e-09
5.41136e-09
4.90391e-09
4.35868e-09
4.6664e-09
5.85879e-09
7.01611e-09
6.82654e-09
5.68909e-09
5.24026e-09
5.12817e-09
4.83976e-09
4.36757e-09
3.67608e-09
2.90551e-09
1.51402e-08
3.08367e-08
3.47545e-08
3.12952e-08
2.52457e-08
1.59895e-08
8.90308e-09
5.39274e-09
4.00427e-09
3.5501e-09
3.35423e-09
3.20275e-09
3.18485e-09
3.42931e-09
3.77691e-09
3.70108e-09
3.3847e-09
3.1991e-09
3.18209e-09
3.10848e-09
2.91779e-09
2.5663e-09
2.15019e-09
9.80997e-09
1.98817e-08
2.23727e-08
2.07431e-08
1.70984e-08
1.32972e-08
7.7249e-09
4.06074e-09
2.67128e-09
2.13388e-09
1.97988e-09
1.96841e-09
1.96591e-09
1.95792e-09
1.96312e-09
1.89104e-09
1.80008e-09
1.76322e-09
1.77406e-09
1.78176e-09
1.72781e-09
1.59064e-09
1.40542e-09
6.3026e-09
1.22675e-08
1.35053e-08
1.20932e-08
1.0327e-08
8.87575e-09
5.94396e-09
3.17929e-09
1.86875e-09
1.27407e-09
1.05607e-09
1.03332e-09
1.07128e-09
1.07246e-09
1.0363e-09
9.78233e-10
9.14066e-10
9.01524e-10
9.05257e-10
9.24838e-10
9.10036e-10
8.53525e-10
7.80275e-10
3.69518e-09
6.98286e-09
7.68244e-09
6.62404e-09
5.34976e-09
4.98823e-09
3.77998e-09
2.17848e-09
1.296e-09
7.86091e-10
5.54897e-10
4.94867e-10
5.09237e-10
5.28349e-10
5.19981e-10
4.93886e-10
4.58036e-10
4.39905e-10
4.32748e-10
4.22865e-10
4.09671e-10
3.97727e-10
3.68419e-10
2.12775e-09
3.70962e-09
3.84693e-09
3.23805e-09
2.45779e-09
2.36475e-09
1.98439e-09
1.25371e-09
7.73973e-10
4.7395e-10
3.0027e-10
2.28837e-10
2.17185e-10
2.26583e-10
2.34817e-10
2.25086e-10
2.1439e-10
2.02462e-10
1.96274e-10
1.83094e-10
1.76424e-10
1.66675e-10
1.52166e-10
1.07147e-09
1.77741e-09
1.76273e-09
1.41006e-09
9.94073e-10
9.29773e-10
8.6636e-10
6.0806e-10
3.92091e-10
2.4599e-10
1.52835e-10
1.07316e-10
8.9713e-11
8.78132e-11
9.09535e-11
9.30698e-11
9.21993e-11
8.70177e-11
7.92175e-11
7.51074e-11
6.71973e-11
6.24308e-11
5.70098e-11
4.89389e-10
7.59423e-10
7.26336e-10
5.62007e-10
3.73649e-10
3.29086e-10
3.11069e-10
2.37469e-10
1.63345e-10
1.04901e-10
6.71701e-11
4.42973e-11
3.33492e-11
3.15334e-11
3.26434e-11
3.45906e-11
3.2692e-11
3.09776e-11
3.01583e-11
2.82076e-11
2.43238e-11
2.11351e-11
1.88147e-11
2.03716e-10
2.85438e-10
2.62707e-10
1.98737e-10
1.27275e-10
1.04605e-10
9.82117e-11
7.97701e-11
5.76428e-11
3.88596e-11
2.53819e-11
1.66682e-11
1.1963e-11
9.79985e-12
9.73151e-12
1.02345e-11
1.10826e-11
1.06912e-11
1.01725e-11
9.10714e-12
7.67799e-12
6.47416e-12
5.59449e-12
7.44392e-11
9.31735e-11
8.23765e-11
6.07769e-11
3.79526e-11
2.92915e-11
2.71554e-11
2.30415e-11
1.72392e-11
1.19852e-11
8.05289e-12
5.40123e-12
3.79293e-12
3.08877e-12
2.95477e-12
3.06504e-12
3.25471e-12
3.18141e-12
2.93956e-12
2.65969e-12
2.21494e-12
1.70089e-12
1.41542e-12
2.2157e-11
2.5855e-11
2.19307e-11
1.58334e-11
9.7111e-12
7.12723e-12
6.48973e-12
5.7059e-12
4.38958e-12
3.11576e-12
2.13442e-12
1.45595e-12
1.03454e-12
8.2845e-13
7.76801e-13
7.97968e-13
8.37874e-13
8.25258e-13
7.63115e-13
6.82368e-13
5.36636e-13
4.143e-13
3.09941e-13
5.34949e-12
5.97334e-12
4.8777e-12
3.47731e-12
2.09887e-12
1.48817e-12
1.3347e-12
1.21505e-12
9.59217e-13
6.92314e-13
4.80453e-13
3.31829e-13
2.38809e-13
1.92065e-13
1.78689e-13
1.82188e-13
1.89651e-13
1.87071e-13
1.71779e-13
1.46668e-13
1.16158e-13
7.93239e-14
5.67798e-14
1.04345e-12
1.12545e-12
8.96965e-13
6.3361e-13
3.79542e-13
2.63164e-13
2.34554e-13
2.21868e-13
1.7975e-13
1.31696e-13
9.23293e-14
6.42916e-14
4.73257e-14
3.86604e-14
3.60763e-14
3.72865e-14
3.86149e-14
3.71269e-14
3.32981e-14
2.78457e-14
1.95833e-14
1.40943e-14
8.85631e-15
1.56307e-13
1.69632e-13
1.34468e-13
9.45964e-14
5.66876e-14
3.90024e-14
3.50807e-14
3.46353e-14
2.88341e-14
2.15587e-14
1.52872e-14
1.07369e-14
7.81539e-15
6.59134e-15
6.52368e-15
6.86242e-15
7.07583e-15
6.6233e-15
5.74147e-15
4.64293e-15
3.29488e-15
2.00227e-15
1.17371e-15
1.7898e-14
2.00622e-14
1.61508e-14
1.14581e-14
6.94771e-15
4.82722e-15
4.462e-15
4.62441e-15
3.98475e-15
2.92767e-15
2.09295e-15
1.50324e-15
1.1813e-15
1.07165e-15
1.11115e-15
1.1599e-15
1.1808e-15
1.075e-15
8.86956e-16
6.70002e-16
4.25589e-16
2.52838e-16
1.49889e-16
9.36942e-16
1.82215e-15
1.53258e-15
1.12032e-15
6.98955e-16
5.00317e-16
4.8517e-16
5.33369e-16
4.60773e-16
3.49801e-16
2.58521e-16
1.9639e-16
1.70382e-16
1.65851e-16
1.69947e-16
1.81462e-16
1.8049e-16
1.5829e-16
1.22038e-16
8.30796e-17
5.05911e-17
2.79605e-17
2.69754e-17
8.59894e-17
1.24344e-16
1.14196e-16
8.85985e-17
5.81395e-17
4.38345e-17
4.41394e-17
5.17215e-17
4.6938e-17
3.89244e-17
3.02523e-17
2.47991e-17
2.3147e-17
2.3888e-17
2.50541e-17
2.66078e-17
2.5377e-17
2.10732e-17
1.50905e-17
9.48554e-18
5.33409e-18
4.41347e-18
1.0186e-17
3.7525e-18
6.33334e-18
6.7439e-18
5.71746e-18
4.06054e-18
3.30051e-18
3.46498e-18
4.40062e-18
4.50186e-18
4.04181e-18
3.32807e-18
2.96102e-18
2.95464e-18
3.2189e-18
3.5089e-18
3.59674e-18
3.24886e-18
2.52649e-18
1.70775e-18
1.06782e-18
7.93761e-19
1.22005e-18
5.91602e-18
1.02593e-19
8.10165e-20
1.73974e-19
3.09861e-19
2.45484e-19
2.19904e-19
2.5615e-19
3.64222e-19
4.13885e-19
3.9799e-19
3.51003e-19
3.43103e-19
3.68144e-19
4.14904e-19
4.42414e-19
4.35365e-19
3.88621e-19
2.88242e-19
1.94448e-19
1.3548e-19
1.95366e-19
7.0544e-19
4.27074e-18
1.21662e-21
3.49538e-21
9.03138e-21
1.2276e-20
1.11127e-20
1.11604e-20
1.39425e-20
1.72208e-20
2.50837e-20
2.74493e-20
2.71497e-20
2.58138e-20
3.08271e-20
4.22485e-20
4.61609e-20
4.56399e-20
4.39542e-20
3.27749e-20
2.64805e-20
3.19595e-20
9.02298e-20
4.3579e-19
2.91916e-18
3.02836e-24
3.64194e-23
2.6173e-22
4.33519e-22
4.92734e-22
5.73778e-22
8.40661e-22
1.6774e-21
2.56583e-21
3.01149e-21
3.17219e-21
3.45528e-21
4.32393e-21
5.62239e-21
6.27672e-21
6.23823e-21
5.42653e-21
4.55588e-21
4.78371e-21
9.5381e-21
3.87488e-20
2.04948e-19
1.45516e-18
1.34249e-06
0.0828538
0.158099
0.175119
0.719011
0.816198
0.809729
0.653473
0.818268
0.805652
0.81125
0.714715
0.814329
0.813866
0.936787
0.955746
0.981038
0.986237
0.999712
0.999944
0.999993
0.999994
0.999999
0.999996
1
1
1
1
0.999999
1
0.999999
0.999998
0.991717
0.999999
0.999999
0.992563
0.240263
0.271054
0.238037
0.138032
1.51102e-08
5.18639e-06
2.37102e-06
-1.4922e-10
4.26398e-08
8.05842e-08
1.02955e-07
6.1908e-08
5.34035e-08
5.63667e-08
6.08214e-08
6.46798e-08
1.24359e-07
1.06691e-07
8.65124e-08
8.69276e-08
1.38272e-07
1.20519e-07
9.47922e-08
8.54349e-08
1.29647e-07
1.00562e-07
8.2974e-08
6.35291e-08
8.54161e-08
7.34469e-08
5.53443e-08
4.42173e-08
4.25389e-08
3.8738e-08
2.87649e-08
1.64023e-08
1.80025e-08
1.56474e-08
1.0623e-08
8.33737e-09
7.36611e-09
5.72163e-09
4.93539e-09
3.13107e-09
3.6844e-09
3.30456e-09
2.4014e-09
2.07642e-09
2.56846e-09
2.25027e-09
1.93769e-09
1.54798e-09
1.90726e-09
1.7854e-09
1.45344e-09
1.29593e-09
1.29313e-09
1.17576e-09
1.05937e-09
9.18024e-10
7.31965e-10
6.86134e-10
5.88124e-10
5.46696e-10
3.43769e-10
3.12091e-10
2.86702e-10
2.63651e-10
1.43575e-10
1.26997e-10
1.10227e-10
1.03048e-10
5.20994e-11
4.49464e-11
3.93783e-11
3.52397e-11
1.73647e-11
1.3977e-11
1.16297e-11
1.03281e-11
4.94021e-12
4.01239e-12
3.33748e-12
2.7636e-12
1.23359e-12
9.50065e-13
7.60316e-13
6.09347e-13
2.57186e-13
2.00526e-13
1.54459e-13
1.16431e-13
4.53682e-14
3.352e-14
2.48258e-14
1.79986e-14
6.61818e-15
4.83752e-15
3.50736e-15
2.58331e-15
8.57164e-16
6.3526e-16
5.19501e-16
4.97759e-16
1.21593e-16
1.15252e-16
1.34324e-16
1.91678e-16
3.1436e-17
4.19222e-17
6.78055e-17
1.31043e-16
1.48552e-17
2.43604e-17
5.06309e-17
1.33209e-16
9.81804e-18
1.93634e-17
5.48283e-17
1.69958e-16
7.87921e-18
2.05279e-17
6.81458e-17
2.21632e-16
6.05647e-18
2.13034e-17
7.66329e-17
2.4307e-16
4.90826e-18
1.72609e-17
5.71695e-17
1.61437e-16
0.107353
0.0322398
0.03266
0.169962
0.697439
0.648972
0.0138821
8.14952e-05
-6.53471e-09
-4.38169e-19
2.04985e-20
-9.97034e-20
1.69931e-19
3.12694e-21
2.60807e-05
5.87477e-05
8.2728e-05
7.41806e-05
0.382468
0.235024
0.0321765
0.153938
0.735515
0.897982
0.599835
0.0342555
0.0413413
0.110397
0.16863
0.192518
0.190001
0.173388
0.144809
0.0576015
5.62767e-05
6.5389e-05
6.78226e-05
0.0113457
0.599151
0.614776
0.933448
0.998751
0.972561
0.733384
0.655685
0.690085
0.870596
0.936617
0.950259
0.946811
0.937243
0.918882
0.843104
0.648223
0.411718
0.172785
0.00499628
0.952738
0.990838
0.999366
0.998711
0.981334
0.924338
0.937618
0.999874
0.999942
0.999933
0.999982
0.999992
0.999947
0.999787
0.999634
0.999709
0.988828
0.873442
0.628829
0.99997
0.999965
0.99938
0.999023
0.999544
0.999994
0.999999
1
0.999993
0.999988
0.99999
0.999999
0.99999
0.999816
0.999712
0.999724
0.999716
0.987396
0.946031
0.99997
0.999964
0.999979
0.999999
0.999999
1
1
0.999999
0.999997
0.999998
1
1
1
1
0.999999
0.999383
0.997248
0.994446
0.994083
0.999995
0.999991
0.999996
1
1
1
1
1
1
1
1
1
1
1
0.999999
0.999973
0.987223
0.979635
0.97957
0.999998
0.999998
0.999999
1
0.999196
0.992099
0.98074
0.972627
0.966385
0.96071
0.958557
0.960914
0.962447
0.95873
0.93613
0.926804
0.930473
0.926692
0.915805
0.951612
0.847796
0.704816
0.613366
0.521722
0.415062
0.345454
0.311352
0.286517
0.267137
0.260769
0.267553
0.270789
0.251042
0.198431
0.187765
0.195084
0.191044
0.157736
0.0684556
0.0231857
0.0128644
0.00351473
3.26875e-22
-3.20724e-22
-1.32338e-23
-2.39757e-24
-1.31947e-09
-3.49058e-09
-2.1176e-23
5.51518e-18
8.92457e-13
1.99807e-08
7.96002e-09
-4.70751e-22
-3.48673e-09
-1.99371e-08
1.36569e-08
-1.14571e-10
3.40942e-10
1.4502e-10
-1.45088e-09
1.01388e-07
8.47681e-07
2.41438e-06
3.82281e-06
1.29543e-06
-1.223e-22
1.66821e-05
6.74248e-05
0.000294409
0.000426531
0.000184356
2.98349e-05
9.43053e-07
8.53072e-07
6.84326e-07
6.30696e-08
9.35235e-08
1.75048e-07
4.41009e-07
1.56354e-06
4.32198e-06
3.00747e-05
0.000388359
0.000580361
0.000217413
7.81733e-05
0.000155793
0.00129406
0.0012508
0.000802415
1.39384e-05
1.56805e-06
1.06848e-06
6.72181e-07
7.2824e-08
9.88081e-08
1.54215e-07
2.86291e-07
6.41105e-07
2.0894e-06
2.2373e-05
0.000753131
0.000991365
0.000988646
9.62239e-05
4.37507e-05
0.000679643
0.00107964
0.000541853
6.64036e-06
1.55612e-06
5.65691e-07
4.90979e-07
7.93416e-08
7.22401e-08
1.12574e-07
2.02811e-07
3.06809e-07
3.75109e-07
1.03182e-06
0.000135673
0.000778934
0.000947935
0.000316134
1.0257e-06
4.60068e-07
2.18185e-07
1.88223e-07
3.05631e-06
1.1378e-06
1.94864e-07
5.64912e-07
7.39167e-08
6.66527e-08
6.4324e-08
1.36029e-07
2.61678e-07
2.33583e-07
2.57685e-07
8.34328e-08
5.13261e-08
1.45334e-05
2.21691e-05
2.36425e-06
4.11417e-07
1.95141e-07
1.4061e-07
7.95405e-08
6.69544e-08
2.36116e-07
6.71322e-07
5.59547e-08
5.15127e-08
4.54131e-08
8.35555e-08
1.52383e-07
1.6409e-07
3.94917e-07
4.62048e-07
2.34714e-07
8.17119e-08
6.10495e-08
3.30747e-07
1.05273e-06
8.3002e-07
4.05013e-07
6.67208e-08
6.79805e-08
2.77771e-07
6.79136e-07
3.20235e-08
3.39564e-08
3.67025e-08
5.61883e-08
5.16528e-08
3.67852e-08
4.7173e-07
8.87322e-07
8.20374e-07
2.71606e-07
7.05553e-08
5.5152e-08
8.56767e-07
9.65386e-07
4.75914e-07
9.13126e-08
6.83876e-08
2.87909e-07
6.50477e-07
1.54191e-08
1.89033e-08
2.27791e-08
3.32821e-08
2.99418e-08
2.68084e-08
3.12471e-08
5.11047e-07
5.94529e-07
3.12142e-07
8.04736e-08
3.68415e-08
2.2215e-07
3.22393e-07
1.07706e-07
3.99431e-08
7.443e-08
1.16396e-07
1.86053e-07
6.41843e-09
8.82507e-09
1.20698e-08
1.62675e-08
2.31567e-08
2.63378e-08
2.28506e-08
1.78517e-08
2.11878e-08
2.80985e-08
5.27838e-08
3.4416e-08
1.7957e-08
1.36003e-08
1.27865e-08
2.8918e-08
4.79998e-08
3.3989e-08
1.89112e-08
2.94422e-09
3.86271e-09
5.59371e-09
8.3431e-09
1.14744e-08
1.68192e-08
1.96976e-08
1.84811e-08
1.98352e-08
2.43131e-08
3.371e-08
3.11224e-08
1.58484e-08
1.12022e-08
1.51972e-08
2.28501e-08
3.32101e-08
1.53569e-08
1.41178e-08
1.76951e-09
1.92374e-09
2.58351e-09
3.81679e-09
5.47976e-09
7.40513e-09
9.21151e-09
1.12912e-08
1.35789e-08
1.47307e-08
1.50021e-08
1.47392e-08
1.24226e-08
1.10704e-08
1.16018e-08
1.95067e-08
1.31479e-08
1.50515e-08
1.41545e-08
1.32267e-09
1.24973e-09
1.32434e-09
1.64849e-09
2.15872e-09
2.87136e-09
3.79237e-09
4.79189e-09
5.58825e-09
5.56108e-09
4.90434e-09
4.61659e-09
5.19847e-09
6.17257e-09
8.69305e-09
8.96669e-09
1.36868e-08
1.52324e-08
1.47533e-08
1.04279e-09
9.01705e-10
8.23339e-10
8.00631e-10
9.0154e-10
1.14966e-09
1.49582e-09
1.89588e-09
2.30525e-09
2.57691e-09
2.63258e-09
2.91714e-09
3.44816e-09
4.43813e-09
5.36174e-09
9.28219e-09
1.38466e-08
1.78232e-08
1.7729e-08
7.6521e-10
6.3392e-10
5.26303e-10
4.43335e-10
4.0842e-10
4.28203e-10
5.18488e-10
6.58327e-10
8.34127e-10
1.0383e-09
1.29201e-09
1.65113e-09
2.24727e-09
3.26843e-09
5.01419e-09
8.25483e-09
1.63829e-08
2.62571e-08
2.30693e-08
4.65943e-10
3.86821e-10
3.11487e-10
2.47496e-10
2.09108e-10
2.00257e-10
2.25204e-10
2.88817e-10
3.99231e-10
5.66251e-10
8.11549e-10
1.18961e-09
1.80454e-09
2.86788e-09
4.6624e-09
9.11457e-09
2.09576e-08
4.19738e-08
3.56048e-08
2.27582e-10
1.89348e-10
1.51171e-10
1.19236e-10
1.01033e-10
9.86737e-11
1.14908e-10
1.58846e-10
2.40672e-10
3.80517e-10
6.07948e-10
9.73616e-10
1.58357e-09
2.65732e-09
4.68283e-09
1.00256e-08
2.5616e-08
7.02562e-08
4.64524e-08
8.96033e-11
7.3772e-11
5.80057e-11
4.67705e-11
4.2413e-11
4.71488e-11
6.47429e-11
1.02098e-10
1.71959e-10
2.96363e-10
5.09936e-10
8.70017e-10
1.47878e-09
2.54119e-09
4.73702e-09
1.09849e-08
3.34966e-08
7.9405e-08
6.53996e-08
2.93332e-11
2.32662e-11
1.79977e-11
1.53685e-11
1.65115e-11
2.34443e-11
3.97505e-11
7.26669e-11
1.34921e-10
2.50437e-10
4.57738e-10
8.20395e-10
1.43763e-09
2.48809e-09
4.74451e-09
1.26267e-08
3.85541e-08
9.72459e-08
6.45709e-08
8.10686e-12
6.13721e-12
4.79377e-12
4.78346e-12
7.16353e-12
1.35896e-11
2.77159e-11
5.64321e-11
1.13396e-10
2.24102e-10
4.32183e-10
8.09053e-10
1.45009e-09
2.51463e-09
4.73923e-09
1.37358e-08
4.86988e-08
9.89016e-08
6.53035e-08
1.92373e-12
1.39457e-12
1.29065e-12
1.92677e-12
4.01856e-12
9.44197e-12
2.14353e-11
4.69496e-11
1.006e-10
2.09406e-10
4.25551e-10
8.28433e-10
1.51763e-09
2.62019e-09
4.84914e-09
1.57377e-08
5.39206e-08
1.01378e-07
5.79925e-08
3.91627e-13
3.05262e-13
4.63968e-13
1.1206e-12
2.87029e-12
7.31339e-12
1.77295e-11
4.12348e-11
9.29508e-11
2.02453e-10
4.33164e-10
8.71886e-10
1.634e-09
2.80319e-09
4.97402e-09
1.70629e-08
6.43358e-08
1.02064e-07
5.40239e-08
7.0694e-14
8.20418e-14
2.43824e-13
7.87145e-13
2.30461e-12
6.11179e-12
1.53048e-11
3.73245e-11
8.88468e-11
2.02375e-10
4.51284e-10
9.31217e-10
1.78897e-09
3.09475e-09
5.73145e-09
1.78052e-08
6.29098e-08
1.02561e-07
3.59036e-08
1.3322e-14
3.70582e-14
1.62238e-13
6.03598e-13
1.88553e-12
5.26056e-12
1.3782e-11
3.50942e-11
8.76425e-11
2.08768e-10
4.76508e-10
1.00884e-09
1.95082e-09
3.4951e-09
5.88579e-09
1.73525e-08
5.53568e-08
6.42438e-08
3.00905e-08
5.05361e-15
2.83673e-14
1.38235e-13
5.145e-13
1.60173e-12
4.71264e-12
1.2949e-11
3.43126e-11
8.81165e-11
2.16419e-10
5.01915e-10
1.06628e-09
2.10032e-09
3.72225e-09
6.48959e-09
1.68609e-08
2.89074e-08
3.71096e-08
1.10066e-08
3.96568e-15
2.67387e-14
1.23592e-13
4.55274e-13
1.48492e-12
4.39579e-12
1.26648e-11
3.43503e-11
8.9081e-11
2.21645e-10
5.16601e-10
1.09866e-09
2.16136e-09
3.83508e-09
6.2897e-09
1.37224e-08
1.90272e-08
7.5773e-09
8.23876e-09
3.63388e-15
2.44389e-14
1.0718e-13
4.13673e-13
1.37084e-12
4.20354e-12
1.22064e-11
3.33957e-11
8.71421e-11
2.17575e-10
5.08571e-10
1.07029e-09
2.08718e-09
3.62163e-09
5.78915e-09
9.70401e-09
7.42883e-09
7.63449e-09
2.87287e-09
3.44089e-15
2.18809e-14
9.72407e-14
3.71658e-13
1.24314e-12
3.87983e-12
1.12642e-11
3.06862e-11
8.01529e-11
1.99384e-10
4.60957e-10
9.63014e-10
1.86228e-09
3.13051e-09
4.5214e-09
7.05637e-09
5.35269e-09
2.40535e-09
2.0696e-09
3.44851e-15
1.96021e-14
8.49922e-14
3.17932e-13
1.0643e-12
3.26296e-12
9.53193e-12
2.57974e-11
6.69924e-11
1.65969e-10
3.82117e-10
7.93391e-10
1.504e-09
2.47348e-09
3.47782e-09
3.96468e-09
2.52677e-09
1.48239e-09
7.83069e-10
3.15191e-15
1.61937e-14
6.73835e-14
2.42637e-13
7.99717e-13
2.44033e-12
7.00526e-12
1.89974e-11
4.91498e-11
1.21647e-10
2.7908e-10
5.7146e-10
1.0613e-09
1.73134e-09
2.12366e-09
2.43529e-09
1.4773e-09
5.39997e-10
4.19658e-10
2.58455e-15
1.16011e-14
4.41588e-14
1.49957e-13
4.74029e-13
1.41816e-12
4.10714e-12
1.12909e-11
2.93666e-11
7.30607e-11
1.69319e-10
3.50627e-10
6.46572e-10
1.05684e-09
1.32746e-09
1.36026e-09
6.45673e-10
2.66939e-10
2.38421e-10
1.60569e-15
6.1907e-15
2.13194e-14
6.83435e-14
2.12935e-13
6.47885e-13
1.90207e-12
5.3865e-12
1.44478e-11
3.72704e-11
8.87665e-11
1.88108e-10
3.44903e-10
5.65195e-10
7.21543e-10
6.73739e-10
2.96879e-10
1.39235e-10
1.28325e-10
5.46066e-16
1.7659e-15
5.52418e-15
1.63742e-14
5.48786e-14
1.84269e-13
5.8061e-13
1.73059e-12
4.908e-12
1.30391e-11
3.17641e-11
6.93686e-11
1.29491e-10
2.17547e-10
2.85546e-10
2.55317e-10
1.1617e-10
5.24722e-11
3.14926e-11
)
;

boundaryField
{
    leftWall
    {
        type            alphaContactAngle;
        contactAngleProperties 
        {
            mercury         
            {
                theta0          90;
            }
            air             
            {
                theta0          90;
            }
            water           
            {
                theta0          90;
            }
        }
        value           nonuniform List<scalar> 
50
(
1.53725e-14
9.95217e-15
6.9973e-15
3.61422e-15
4.15752e-14
7.48961e-13
2.35182e-12
1.84128e-12
1.50825e-09
5.18447e-09
5.15697e-09
5.35538e-11
0.00188882
0.425589
0.760812
0.0740422
-1.64515e-10
1.31314e-06
2.2265e-06
1.15988e-06
4.8782e-07
3.73233e-07
1.85004e-07
7.45613e-08
5.74974e-08
4.90815e-08
4.63686e-08
3.68499e-08
3.06185e-08
2.0586e-08
1.51402e-08
9.80997e-09
6.3026e-09
3.69518e-09
2.12775e-09
1.07147e-09
4.89389e-10
2.03716e-10
7.44392e-11
2.2157e-11
5.34949e-12
1.04345e-12
1.56307e-13
1.7898e-14
9.36942e-16
8.59894e-17
3.7525e-18
1.02593e-19
1.21662e-21
3.02836e-24
)
;
    }
    rightWall
    {
        type            alphaContactAngle;
        contactAngleProperties 
        {
            mercury         
            {
                theta0          90;
            }
            air             
            {
                theta0          90;
            }
            water           
            {
                theta0          90;
            }
        }
        value           nonuniform List<scalar> 
50
(
0.219038
0.219108
0.241856
0.498911
0.504142
0.466529
0.508971
0.508465
0.382468
0.0113457
0.00499628
0.628829
0.946031
0.994083
0.97957
0.915805
0.157736
1.36569e-08
6.84326e-07
6.72181e-07
4.90979e-07
5.64912e-07
6.71322e-07
6.79136e-07
6.50477e-07
1.86053e-07
1.89112e-08
1.41178e-08
1.41545e-08
1.47533e-08
1.7729e-08
2.30693e-08
3.56048e-08
4.64524e-08
6.53996e-08
6.45709e-08
6.53035e-08
5.79925e-08
5.40239e-08
3.59036e-08
3.00905e-08
1.10066e-08
8.23876e-09
2.87287e-09
2.0696e-09
7.83069e-10
4.19658e-10
2.38421e-10
1.28325e-10
3.14926e-11
)
;
    }
    lowerWall
    {
        type            alphaContactAngle;
        contactAngleProperties 
        {
            mercury         
            {
                theta0          90;
            }
            air             
            {
                theta0          90;
            }
            water           
            {
                theta0          90;
            }
        }
        value           nonuniform List<scalar> 
62
(
1.53725e-14
1.55264e-13
8.3391e-13
2.9856e-12
8.09757e-12
1.90408e-11
4.01804e-11
7.87351e-11
1.50638e-10
2.9997e-10
5.38417e-10
9.8746e-10
1.86551e-09
3.50875e-09
6.514e-09
1.16926e-08
1.80925e-08
1.87271e-08
1.87688e-08
0.000177123
0.000449936
0.000566406
0.00056716
0.00056716
0.000198656
2.31235e-08
1.39716e-08
2.47676e-06
4.80517e-05
4.96844e-05
1.91265e-05
1.34249e-06
0.0828538
0.158099
0.175119
0.113624
0.411388
0.417722
0.151418
0.00407247
0.0215796
0.0355093
0.0315161
0.113624
0.111372
0.0930191
0.0440526
0.0300049
0.0295913
0.0458085
0.27223
0.315162
0.324827
0.328754
0.333396
0.327104
0.260572
0.0706665
0.081689
0.137139
0.221606
0.219038
)
;
    }
    atmosphere
    {
        type            inletOutlet;
        inletValue      uniform 0;
        value           nonuniform List<scalar> 
46
(
3.02836e-24
3.64194e-23
2.6173e-22
4.33519e-22
4.92734e-22
5.73778e-22
8.4066e-22
1.6774e-21
2.56583e-21
3.01149e-21
3.17219e-21
3.45528e-21
4.32393e-21
5.62239e-21
6.27672e-21
6.23823e-21
5.42653e-21
4.55588e-21
4.78371e-21
9.5381e-21
3.87488e-20
2.04948e-19
1.45516e-18
4.90826e-18
0
0
0
0
0
0
0
0
0
0
0
0
0
0
0
0
0
0
0
0
0
0
)
;
    }
    defaultFaces
    {
        type            empty;
    }
}

