/*--------------------------------*- C++ -*----------------------------------*\
  =========                 |
  \\      /  F ield         | OpenFOAM: The Open Source CFD Toolbox
   \\    /   O peration     | Website:  https://openfoam.org
    \\  /    A nd           | Version:  13
     \\/     M anipulation  |
\*---------------------------------------------------------------------------*/
FoamFile
{
    format      ascii;
    class       volScalarField;
    location    "2.05";
    object      alpha.air;
}
// * * * * * * * * * * * * * * * * * * * * * * * * * * * * * * * * * * * * * //

dimensions      [];

internalField   nonuniform List<scalar> 
2268
(
2.05239e-13
2.81028e-13
2.71647e-13
1.59674e-13
8.67155e-14
4.01554e-14
1.85936e-14
9.45851e-15
6.58625e-15
7.21121e-15
1.18138e-14
2.10042e-14
5.68361e-14
1.78329e-13
2.65298e-13
2.51703e-13
3.77506e-13
1.73346e-12
2.06365e-12
2.04338e-12
2.74867e-13
2.54516e-13
3.51955e-13
7.56782e-13
9.9605e-13
9.02719e-13
6.5839e-13
4.31095e-13
2.4455e-13
1.29806e-13
7.48035e-14
6.26317e-14
9.37166e-14
2.40403e-13
1.00146e-12
2.65823e-12
6.13351e-12
9.59044e-12
9.95497e-12
2.12412e-11
6.04562e-11
6.82641e-11
1.13091e-10
1.52758e-10
3.18047e-10
1.23575e-11
1.9632e-12
2.46917e-12
1.84863e-12
1.59676e-12
9.45101e-13
5.56784e-13
3.4571e-13
2.81465e-13
3.69653e-13
8.44938e-13
2.71454e-12
7.31164e-12
1.92529e-11
4.61153e-11
1.01647e-10
1.95478e-10
3.27188e-10
4.73027e-10
7.91614e-10
1.59349e-09
3.22637e-09
5.15398e-09
1.17737e-09
4.30784e-12
4.29049e-12
3.90112e-12
3.28455e-12
2.43199e-12
1.73663e-12
1.29212e-12
1.19391e-12
1.57378e-12
3.38794e-12
8.30455e-12
2.0726e-11
5.17559e-11
1.25499e-10
2.57057e-10
4.61031e-10
6.83807e-10
7.99912e-10
1.13064e-09
1.1393e-09
1.15242e-09
1.04846e-08
5.92327e-09
1.22048e-11
1.12228e-11
1.04569e-11
9.72564e-12
8.56291e-12
7.13019e-12
5.8958e-12
5.66809e-12
6.33586e-12
8.48185e-12
1.38812e-11
2.9831e-11
6.75406e-11
1.39259e-10
2.39011e-10
2.40229e-10
2.41563e-10
3.25542e-10
3.93409e-10
6.11273e-07
1.60079e-06
6.1065e-10
5.86375e-10
2.75379e-11
2.96919e-11
3.11468e-11
3.18801e-11
3.47799e-11
3.58885e-11
3.35008e-11
3.01782e-11
3.35255e-11
4.10066e-11
5.94005e-11
1.05725e-10
1.59335e-10
1.62183e-10
7.72536e-10
3.56335e-08
2.82476e-07
3.52967e-06
3.80689e-05
0.000153632
0.000364989
0.000579661
0.000670533
4.64861e-11
6.61712e-11
7.11464e-11
7.15622e-11
7.2426e-11
8.80601e-11
1.10145e-10
1.35986e-10
1.70363e-10
2.75946e-10
5.02258e-10
1.04547e-09
3.00516e-09
1.33824e-08
1.03587e-07
6.95048e-07
3.97176e-06
2.23359e-05
0.000102326
0.000304877
0.000689511
0.00124903
0.00141936
9.71742e-11
8.97955e-11
1.09417e-10
1.34275e-10
1.74978e-10
2.19322e-10
2.75162e-10
3.89179e-10
6.05098e-10
9.64355e-10
1.66491e-09
3.33007e-09
9.7826e-09
4.1576e-08
1.93962e-07
8.73286e-07
4.21068e-06
1.9979e-05
3.41007e-05
5.17257e-05
7.74945e-05
0.000155562
0.000497744
0.000329503
0.000342823
0.00441376
0.0192747
0.0275567
0.0430528
0.0660473
0.0703876
0.058732
0.0436476
0.0434707
0.0544891
0.0762023
0.103852
0.0919841
0.0419375
0.0146449
0.0145198
0.0143424
0.00402039
0.00495638
0.00371724
0.00149983
0.000338693
0.000336851
0.00033588
0.00225979
0.00337012
0.0429653
0.0697312
0.0603692
0.0593519
0.0965945
0.0990895
0.0612661
0.0193476
0.0145113
0.0141348
0.0163488
0.018108
0.0204312
0.0223671
0.015577
0.00812635
0.00148432
1.08523e-05
7.0156e-08
0.0341951
0.23444
0.298195
0.20361
0.15623
0.221976
0.209572
0.0751815
0.0154164
0.0140709
0.0155348
0.0155593
0.0216703
0.0269895
0.0269716
0.0255421
0.00387689
5.22006e-08
6.58035e-08
7.0156e-08
0.404154
0.569473
0.56969
0.569549
0.482625
0.470913
0.37243
0.107566
0.0140245
0.0155285
0.0155281
0.0155309
0.0214493
0.0255014
0.00919998
0.0132832
0.00517709
0.000305196
8.93677e-05
0.166494
0.548772
0.569583
0.569566
0.56928
0.48685
0.471383
0.45088
0.0600946
0.0174426
0.0233089
0.0156405
0.011461
0.0114716
0.0287851
0.04527
0.024106
0.000473014
8.12776e-05
0.0236795
0.245672
0.539061
0.569422
0.553129
0.299235
0.372446
0.45599
0.385398
0.0734344
0.0748955
0.0598347
0.0114716
0.0454835
0.107475
0.0957022
0.0102011
7.45501e-05
0.000747431
3.52021e-05
3.5563e-05
0.0616586
0.219442
0.218659
0.0611074
0.0459928
0.307417
0.353806
0.072897
0.0808279
0.0668584
0.078825
0.161984
0.148748
0.126541
8.30872e-05
0.000121811
4.12641e-05
4.29143e-05
7.85435e-05
1.84658e-10
-1.75527e-20
-1.40201e-08
-1.42767e-08
-8.60684e-09
0.0111344
0.052284
1.37387e-09
7.86092e-10
5.18367e-10
5.40174e-10
8.16372e-10
1.30838e-09
1.94101e-09
2.16322e-09
2.29414e-09
2.50158e-09
3.3918e-09
4.30081e-09
4.91697e-09
1.19808e-08
2.4423e-08
5.46115e-08
2.39845e-07
1.05278e-06
1.32318e-06
1.59859e-06
1.77799e-06
5.5005e-06
0.00610086
1.79775e-09
1.10508e-09
4.68433e-10
4.68432e-10
6.13096e-10
1.09616e-09
2.34947e-09
4.26731e-09
5.04213e-09
5.44561e-09
6.87637e-09
7.83774e-09
8.37292e-09
2.67019e-08
5.65984e-08
8.28303e-08
1.24785e-07
3.50969e-06
0.0035635
0.0208783
0.0429684
0.0584564
0.0507204
8.95027e-10
5.99961e-10
4.68427e-10
4.79198e-10
4.43761e-10
4.50446e-10
4.43761e-10
4.20732e-10
4.35073e-10
3.8808e-10
4.02023e-10
3.87941e-10
4.19511e-10
0.00120783
0.0107666
0.0242201
0.0359298
0.0588456
0.117402
0.165905
0.165005
0.0843332
0.010312
4.48903e-10
3.15646e-05
0.00272825
0.00359755
0.00241793
0.000265779
0.000362933
0.00191702
0.00836545
0.0185847
0.0301534
0.0444689
0.0659529
0.103167
0.160227
0.156552
0.137543
0.16659
0.168509
0.168501
0.101721
0.00214256
0.0137113
0.122751
0.0887583
0.0252804
0.000562707
0.000543773
0.000203247
0.000199798
0.0924379
0.178407
0.180261
0.181248
0.197219
0.202141
0.202196
0.202141
0.174677
0.0865044
0.130599
0.168501
0.0407836
0.00074305
0.00201689
0.0124051
0.196242
0.13482
0.0244495
0.00368633
0.00309105
0.00429748
0.00976856
0.0729141
0.133624
0.0758353
0.0630381
0.064942
0.0514206
0.0456046
0.0479049
0.0201117
0.00540165
0.0161502
0.025002
0.00132007
3.74861e-05
0.00122983
0.0014584
0.239188
0.177469
0.105252
0.0759158
0.0630941
0.0535203
0.0459586
0.0487083
0.0472312
0.0384224
0.026369
0.00853178
0.000112096
7.42506e-05
3.8042e-05
2.77864e-06
8.505e-07
8.09957e-07
8.11829e-07
5.41633e-07
3.24594e-05
3.97746e-05
-3.29648e-21
0.925958
0.884651
0.83623
0.790763
0.753836
0.724578
0.695347
0.643377
0.593685
0.549879
0.48695
0.415281
0.311933
0.187873
0.0613547
6.28994e-06
2.79671e-06
1.24235e-06
7.53931e-07
6.31288e-07
1.4593e-06
7.60378e-08
-1.22106e-10
1
1
1
1
0.999989
0.999988
0.999993
0.999999
0.999999
0.999158
0.995141
0.986098
0.966168
0.917104
0.830396
0.656983
0.374537
0.116572
0.00101684
2.39983e-06
1.69446e-06
0.000342745
0.0334456
0.999999
0.999996
0.999997
0.999978
0.999748
0.999675
0.999948
1
1
1
1
1
0.999998
0.999996
0.999996
0.999994
0.992115
0.926183
0.808992
0.665368
0.601059
0.620675
0.727555
0.999998
0.999992
0.999989
0.999934
0.999997
0.999997
0.999995
1
1
0.999984
0.999965
0.999999
1
1
1
1
0.999999
0.999994
0.999993
0.999994
0.999997
1
1
0.999999
0.999997
1
1
1
1
1
0.999992
0.999905
0.999829
0.99983
0.999895
0.999998
1
1
1
1
1
1
1
1
1
1
0.999999
1
1
1
1
1
1
0.999983
0.999828
0.999827
0.999828
0.99985
0.999997
1
1
1
1
1
1
1
1
1
1
1
1
1
1
1
1
1
0.999998
0.999932
0.999851
0.999866
0.99997
0.999996
0.999997
0.999998
0.999999
0.999999
0.999999
1
1
1
1
1
1
1
1
1
1
1
1
1
0.999999
0.999994
0.999994
0.999998
0.999997
0.999997
0.999997
0.999997
0.999998
0.999999
1
1
1
1
1
1
1
1
1
1
1
1
1
1
1
1
0.999999
0.999998
0.999997
0.999998
0.999999
0.999999
1
1
1
1
1
1
1
1
1
1
1
1
1
1
1
1
0.999999
0.999999
0.999999
0.999999
1
1
1
1
1
1
1
1
1
1
1
1
1
1
1
1
1
1
1
0.999999
0.999999
0.999999
1
1
1
1
1
1
1
1
1
1
1
1
1
1
1
1
1
1
1
1
1
1
1
1
1
1
1
1
1
1
1
1
1
1
1
1
1
1
1
1
1
1
1
1
1
1
1
1
1
1
1
1
1
1
1
1
1
1
1
1
1
1
1
1
1
1
1
1
1
1
1
1
1
1
1
1
1
1
1
1
1
1
1
1
1
1
1
1
1
1
1
1
1
1
1
1
1
1
1
1
1
1
1
1
1
1
1
1
1
1
1
1
1
1
1
1
1
1
1
1
1
1
1
1
1
1
1
1
1
1
1
1
1
1
1
1
1
1
1
1
1
1
1
1
1
1
1
1
1
1
1
1
1
1
1
1
1
1
1
1
1
1
1
1
1
1
1
1
1
1
1
1
1
1
1
1
1
1
1
1
1
1
1
1
1
1
1
1
1
1
1
1
1
1
1
1
1
1
1
1
1
1
1
1
1
1
1
1
1
1
1
1
1
1
1
1
1
1
1
1
1
1
1
1
1
1
1
1
1
1
1
1
1
1
1
1
1
1
1
1
1
1
1
1
1
1
1
1
1
1
1
1
1
1
1
1
1
1
1
1
1
1
1
1
1
1
1
1
1
1
1
1
1
1
1
1
1
1
1
1
1
1
1
1
1
1
1
1
1
1
1
1
1
1
1
1
1
1
1
1
1
1
1
1
1
1
1
1
1
1
1
1
1
1
1
1
1
1
1
1
1
1
1
1
1
1
1
1
1
1
1
1
1
1
1
1
1
1
1
1
1
1
1
1
1
1
1
1
1
1
1
1
1
1
1
1
1
1
1
1
1
1
1
1
1
1
1
1
1
1
1
1
1
1
1
1
1
1
1
1
1
1
1
1
1
1
1
1
1
1
1
1
1
1
1
1
1
1
1
1
1
1
1
1
1
1
1
1
1
1
1
1
1
1
1
1
1
1
1
1
1
1
1
1
1
1
1
1
1
1
1
1
1
1
1
1
1
1
1
1
1
1
1
1
1
1
1
1
1
1
1
1
1
1
1
1
1
1
1
1
1
1
1
1
1
1
1
1
1
1
1
1
1
1
1
1
1
1
1
1
1
1
1
1
1
1
1
1
1
1
1
1
1
1
1
1
1
1
1
1
1
1
1
1
1
1
1
1
1
1
1
1
1
1
1
1
1
1
1
1
1
1
1
1
1
1
1
1
1
1
1
1
1
1
1
1
1
1
1
1
1
1
1
1
1
1
1
1
1
1
1
1
1
1
1
1
1
1
1
1
1
1
0.0140308
0.00978663
0.00986005
0.0538261
0.0150549
0.11593
0.171144
0.186122
0.169646
0.185833
0.186002
0.186157
0.185671
0.185695
0.060223
0.0402795
0.0189202
0.0136085
8.38247e-05
-2.56085e-19
1.01992e-09
-9.37716e-11
8.23325e-08
1.47794e-06
6.49092e-10
1.48589e-10
1.15687e-08
3.59225e-07
-4.75899e-27
2.20388e-18
-2.47288e-13
2.3612e-15
0.00828316
5.60983e-07
8.08205e-07
0.00743527
0.759737
0.728946
0.761962
0.861968
1
0.999995
0.999998
1
1
1
1
1
1
1
1
1
1
1
1
1
1
1
1
1
1
1
1
1
1
1
1
1
1
1
1
1
1
1
1
1
1
1
1
1
1
1
1
1
1
1
1
1
1
1
1
1
1
1
1
1
1
1
1
1
1
1
1
1
1
1
1
1
1
1
1
1
1
1
1
1
1
1
1
1
1
1
1
1
1
1
1
1
1
1
1
1
1
1
1
1
1
1
1
1
1
1
1
1
1
1
1
1
1
1
1
1
1
1
1
1
1
1
1
1
1
1
1
1
1
1
1
1
0.0981953
0.105739
0.113859
0.177657
0.177697
0.177097
0.114082
0.000640362
0.00218281
0.00221367
0.00117295
0.000646139
0.000314387
0.000120881
6.02931e-05
2.89704e-05
6.29532e-06
0.000225413
0.000111411
0.186155
0.183676
0.175664
0.168804
0.0987141
0.144073
0.16748
0.106041
0.032801
0.00563698
0.00250077
0.00156497
0.000805939
0.000445115
0.000428219
0.000180611
2.05401e-05
0.00039324
0.00216181
0.186124
0.179565
0.040136
0.00119927
0.0266111
0.165873
0.167471
0.140261
0.0260023
2.03655e-05
1.81284e-05
0.000193975
0.000250273
0.000145824
0.000217033
0.000269371
1.7842e-05
0.0203712
0.0801716
0.046367
0.0089303
0.00034962
0.000363172
0.0177351
0.0756572
0.0623603
9.69187e-05
2.13621e-06
5.52032e-05
1.62593e-05
1.43873e-06
3.66325e-05
0.000175555
0.000262827
0.000191065
1.46699e-05
0.0318391
0.086224
-4.61369e-08
-9.32852e-09
0.000587732
0.000969617
0.000447593
0
-5.76134e-09
7.41378e-08
3.01706e-06
1.21811e-05
9.2711e-06
5.79041e-08
9.37847e-06
0.000183743
0.000265811
0.000173478
0.000101634
0.00995033
0.0462129
1.39905e-05
1.72938e-05
8.98321e-06
1.03862e-09
9.04927e-10
3.78981e-08
2.95904e-07
6.92364e-07
2.72145e-06
1.62859e-06
1.03346e-07
6.18891e-08
7.77645e-08
2.50562e-07
1.03132e-06
0.000616788
0.00193527
0.00202438
0.00205466
7.29224e-07
5.78893e-07
3.23403e-20
1.77667e-08
2.25908e-07
1.07332e-07
2.29867e-07
3.80943e-07
4.20555e-07
3.89157e-07
3.59822e-07
1.15173e-07
8.18554e-08
3.55342e-07
3.50873e-07
6.12393e-07
0.0124592
0.0190053
0.0178919
1.28629e-13
1.76546e-14
-4.44504e-20
9.00701e-09
0.000804275
0.00790069
0.0192596
0.027373
0.033615
0.03929
0.041443
0.0390856
0.0375529
0.040677
0.0582829
0.0651555
0.0619844
0.0673582
0.0791715
0.0483862
0.152204
0.295184
0.386634
0.478278
0.584938
0.654546
0.688647
0.713479
0.732831
0.739133
0.732322
0.729144
0.745654
0.787577
0.797208
0.789857
0.795064
0.831838
0.931544
0.976814
0.987136
0.996485
1
1
0.999998
0.999991
0.999966
0.9999
0.999753
0.999461
0.998827
0.997785
0.997597
0.996719
0.998046
0.999672
0.999997
1
1
1
1
1
0.999999
0.999997
0.999994
0.999993
0.999966
0.99985
0.999737
0.999656
0.999573
0.999816
0.99997
0.999999
0.999999
0.999999
1
1
1
1
0.999998
0.999996
0.99997
0.999612
0.99942
0.999783
0.999922
0.999844
0.998706
0.998749
0.999198
0.999986
0.999998
0.999999
0.999999
1
1
1
1
0.999999
0.999998
0.999978
0.999247
0.999009
0.999011
0.999904
0.999956
0.99932
0.99892
0.999458
0.999993
0.999998
0.999999
1
1
1
1
1
1
1
0.999999
0.999864
0.999221
0.999052
0.999684
0.999999
0.999999
1
1
0.999997
0.999999
1
0.999999
1
1
1
1
1
1
1
1
1
0.999985
0.999978
0.999998
0.999999
1
1
1
1
1
0.999999
1
1
1
1
1
1
1
1
1
1
1
1
0.999999
0.999999
1
1
1
1
0.999999
1
1
1
1
1
1
1
0.999999
0.999999
1
1
1
0.999999
0.999999
1
1
1
1
0.999999
1
1
1
1
1
1
1
0.999999
0.999999
1
1
1
1
1
1
1
1
1
1
1
1
1
1
1
1
1
1
1
1
1
1
1
1
1
1
1
1
1
1
1
1
1
1
1
1
1
1
1
1
1
1
1
1
1
1
1
1
1
1
1
1
1
1
1
1
1
1
1
1
1
1
1
1
1
1
1
1
1
1
1
1
1
1
1
1
1
1
1
1
1
1
1
1
1
1
1
1
1
1
1
1
1
1
1
1
1
1
1
1
1
1
1
1
1
1
1
1
1
1
1
1
1
1
1
1
1
1
1
1
1
1
1
1
1
1
1
1
1
1
1
1
1
1
1
1
1
1
1
1
1
1
1
1
1
1
1
1
1
1
1
1
1
1
1
1
1
1
1
1
1
1
1
1
1
1
1
1
1
1
1
1
1
1
1
1
1
1
1
1
1
1
1
1
1
1
1
1
1
1
1
1
1
1
1
1
1
1
1
1
1
1
1
1
1
1
1
1
1
1
1
1
1
1
1
1
1
1
1
1
1
1
1
1
1
1
1
1
1
1
1
1
1
1
1
1
1
1
1
1
1
1
1
1
1
1
1
1
1
1
1
1
1
1
1
1
1
1
1
1
1
1
1
1
1
1
1
1
1
1
1
1
1
1
1
1
1
1
1
1
1
1
1
1
1
1
1
1
1
1
1
1
1
1
1
1
1
1
1
1
1
1
1
1
1
1
1
1
1
1
1
1
1
1
1
1
1
1
1
1
1
1
1
1
1
1
1
1
1
1
1
1
1
1
1
1
1
1
1
1
1
1
1
1
1
1
1
1
1
1
1
1
1
1
1
1
1
1
1
1
1
1
1
1
1
1
1
1
1
1
1
1
1
1
1
1
1
1
1
1
1
1
1
1
1
1
1
1
1
1
1
1
1
1
1
1
1
1
1
1
1
1
1
1
1
1
1
1
1
1
1
1
1
1
1
1
1
1
1
1
1
1
1
1
1
1
1
1
1
1
1
1
1
1
1
1
1
1
1
1
1
1
1
1
1
1
1
1
1
1
1
1
1
1
1
1
1
1
1
1
1
1
1
1
1
1
)
;

boundaryField
{
    leftWall
    {
        type            alphaContactAngle;
        contactAngleProperties 
        {
            mercury         
            {
                theta0          90;
            }
            water           
            {
                theta0          90;
            }
            oil             
            {
                theta0          90;
            }
        }
        value           nonuniform List<scalar> 
50
(
2.05239e-13
7.56782e-13
1.9632e-12
4.30784e-12
1.22048e-11
2.75379e-11
4.64861e-11
9.71742e-11
1.37387e-09
1.79775e-09
8.95027e-10
4.48903e-10
0.122751
0.196242
0.239188
0.925958
1
0.999999
0.999998
0.999999
0.999999
1
1
1
1
1
1
1
1
1
1
1
1
1
1
1
1
1
1
1
1
1
1
1
1
1
1
1
1
1
)
;
    }
    rightWall
    {
        type            alphaContactAngle;
        contactAngleProperties 
        {
            mercury         
            {
                theta0          90;
            }
            water           
            {
                theta0          90;
            }
            oil             
            {
                theta0          90;
            }
        }
        value           nonuniform List<scalar> 
50
(
0.0143424
0.0141348
0.0140709
0.0140245
0.0600946
0.385398
0.353806
0.052284
0.000111411
0.00216181
0.0801716
0.086224
0.0462129
0.00205466
0.0178919
0.0791715
0.831838
0.999997
0.999999
0.999999
1
0.999999
0.999999
0.999999
0.999999
1
1
1
1
1
1
1
1
1
1
1
1
1
1
1
1
1
1
1
1
1
1
1
1
1
)
;
    }
    lowerWall
    {
        type            alphaContactAngle;
        contactAngleProperties 
        {
            mercury         
            {
                theta0          90;
            }
            water           
            {
                theta0          90;
            }
            oil             
            {
                theta0          90;
            }
        }
        value           nonuniform List<scalar> 
62
(
2.05239e-13
2.81028e-13
2.71647e-13
1.59674e-13
8.67155e-14
4.01554e-14
1.85936e-14
9.45851e-15
6.58625e-15
7.21121e-15
1.18138e-14
2.10042e-14
5.68361e-14
1.78329e-13
2.65298e-13
2.51703e-13
3.77506e-13
1.73346e-12
2.06365e-12
2.04338e-12
2.74867e-13
2.54516e-13
3.51955e-13
3.51955e-13
1.23575e-11
1.17737e-09
5.92327e-09
5.86375e-10
0.000670533
0.00141936
0.000497744
0.0140308
0.00978663
0.00986005
0.0538261
0.000329503
0.00402039
0.0163488
0.0155348
0.0155285
0.0174426
0.0734344
0.072897
0.000329503
0.000342823
0.00441376
0.0192747
0.0275567
0.0430528
0.0660473
0.0703876
0.058732
0.0436476
0.0434707
0.0544891
0.0762023
0.103852
0.0919841
0.0419375
0.0146449
0.0145198
0.0143424
)
;
    }
    atmosphere
    {
        type            inletOutlet;
        inletValue      uniform 1;
        value           nonuniform List<scalar> 
46
(
0.999999
0.999999
0.999999
0.999999
0.999999
0.999999
1
1
1
1
1
1
1
1
1
1
1
1
1
1
1
1
1
1
1
1
1
1
1
1
1
1
1
1
1
1
1
1
1
1
1
1
1
1
1
1
)
;
    }
    defaultFaces
    {
        type            empty;
    }
}


// ************************************************************************* //
