/*--------------------------------*- C++ -*----------------------------------*\
  =========                 |
  \\      /  F ield         | OpenFOAM: The Open Source CFD Toolbox
   \\    /   O peration     | Website:  https://openfoam.org
    \\  /    A nd           | Version:  13
     \\/     M anipulation  |
\*---------------------------------------------------------------------------*/
FoamFile
{
    format      ascii;
    class       volScalarField;
    location    "2.05";
    object      alphas;
}
// * * * * * * * * * * * * * * * * * * * * * * * * * * * * * * * * * * * * * //

dimensions      [];

internalField   nonuniform List<scalar> 
2268
(
2
2
2
2
2
2
2
2
2
2
2
2
2
2
2
2
2
2
2
1.99982
1.99955
1.99943
1.99943
2
2
2
2
2
2
2
2
2
2
2
2
2
2
2
2
2
2
2
2
2
1.99994
1.9998
2
2
2
2
2
2
2
2
2
2
2
2
2
2
2
2
2
2
2
2
2
2
2
2
2
2
2
2
2
2
2
2
2
2
2
2
2
2
2
2
2
2
2
2
2
2
2
2
2
2
2
2
2
2
2
2
2
2
2
2
2
2
1.99848
1.99462
1.9905
1.98859
1.99025
1.99427
1.99628
2
2
2
2
2
2
2
2
2
1.94823
1.85561
1.73425
1.60052
1.46639
1.33833
1.19423
1.07337
0.984951
0.930597
0.913584
0.936466
0.990719
0.996195
2
2
2
2
2
1.92998
1.6969
1.3789
1.00156
0.662489
0.417288
0.248746
0.134545
0.0573973
0.00605773
2.14668e-06
1.25343e-05
6.84716e-05
0.000309501
0.000919681
0.00208936
0.00379528
0.00430776
1.98035
1.92685
1.78637
1.50683
1.07014
0.58613
0.258418
0.0675026
0.00262373
3.05837e-09
5.247e-09
1.04296e-08
3.03379e-08
1.27628e-07
5.91491e-07
2.64326e-06
1.26324e-05
5.99373e-05
0.000102302
0.000157667
0.000245822
0.000471539
0.00154003
1.86556
1.86752
1.86138
1.85699
1.86779
1.91364
1.93762
1.76744
1.74196
1.71723
1.71316
1.7195
1.74787
1.76451
1.77156
1.71018
1.68375
1.76784
1.76474
1.50056
1.48796
1.5279
1.5635
1.53175
1.51116
1.52557
1.69173
1.72583
1.84901
1.95364
1.91559
1.86436
1.92368
1.86441
1.74945
1.69835
1.76854
1.76419
0.744681
0.660498
0.794109
0.939398
1.06777
0.896932
0.61129
0.658153
0.918094
1.29714
2.02797
2.26004
2.0477
1.96994
2.11265
2.09025
1.87478
1.77165
1.74991
0.55693
0.415701
0.354431
0.608241
0.901302
0.87387
0.448881
0.0552367
0.0210305
0.0124967
1.33283
2.15421
2.37686
2.37181
2.22821
2.24222
2.11759
1.76175
1.51121
0.340104
0.379709
0.367874
0.387859
0.831683
0.895027
0.870847
0.37488
0.0274297
0.00379444
0.500005
1.76056
2.20908
2.31836
2.31394
2.20622
2.21478
2.12793
1.55376
0.228882
0.242011
0.243063
0.250552
0.766569
1.02165
1.05347
0.548648
0.0799407
0.00226461
0.0808195
0.911504
1.88736
2.06437
2.0866
1.32861
1.6367
2.11027
1.91665
0.270643
0.273045
0.25634
0.216812
0.951501
1.24881
1.10773
0.166399
0.0218021
0.00232664
0.00233434
0.0351226
0.343232
0.921958
0.925644
0.445131
0.340184
1.13863
1.79565
0.273777
0.28107
0.259139
0.430834
1.2696
1.31818
0.679325
0.000355667
0.000401447
0.000323218
0.000337343
0.000466751
0.000990153
0.0397407
0.0691249
0.0446344
0.0132846
0.0361996
0.702085
0.349228
0.279115
0.168128
0.0643805
0.00892201
5.06168e-09
6.40411e-09
6.96146e-09
7.26816e-09
8.17981e-09
1.08593e-08
1.35635e-08
1.56538e-08
3.84025e-08
7.63053e-08
1.70033e-07
7.29267e-07
3.16518e-06
3.97048e-06
4.7961e-06
6.27436e-06
1.78041e-05
0.0183039
1.126e-08
9.02245e-09
6.36491e-09
6.26168e-09
6.90595e-09
1.03327e-08
1.39032e-08
1.8462e-08
2.0416e-08
2.0319e-08
2.29931e-08
2.516e-08
2.64227e-08
8.30103e-08
1.72863e-07
2.52547e-07
3.9151e-07
1.05431e-05
0.0106905
0.0626348
0.128905
0.175369
0.261089
8.61272e-09
6.85368e-09
6.41224e-09
6.66679e-09
7.0143e-09
7.93474e-09
8.04955e-09
7.42291e-09
6.1919e-09
4.74045e-09
3.16368e-09
2.61024e-09
2.29223e-09
0.00362349
0.0322999
0.0726603
0.110038
0.19562
0.386129
0.565136
0.784635
0.991775
0.965965
2.17703e-09
9.46946e-05
0.00818476
0.0107926
0.0072538
0.000797339
0.0010888
0.00575106
0.0250963
0.055754
0.0904601
0.136502
0.214535
0.350679
0.556676
0.642668
0.764987
0.969768
1.11944
1.26286
1.18656
1.00405
1.02741
0.370143
0.296979
0.206443
0.226177
0.321764
0.400232
0.377063
0.534072
0.714441
0.75951
0.886263
1.0363
1.12257
1.19608
1.28912
1.31222
1.16265
1.26114
1.337
1.08157
1.00149
1.00403
1.02479
1.01431
1.03902
0.973695
0.976267
0.98606
0.989598
1.00609
1.1298
1.2518
1.14013
1.12083
1.12988
1.10284
1.09121
1.09581
1.04022
1.0108
1.0323
1.05
1.00264
1.00007
1.00246
1.00292
1.47838
1.35494
1.2105
1.15183
1.12619
1.10704
1.09192
1.09742
1.09446
1.07684
1.05274
1.01706
1.00022
1.00015
1.00008
1.00001
1
1
1
1
1.00006
1.00008
1
2.85192
2.7693
2.67233
2.58138
2.50765
2.44916
2.39069
2.28675
2.18737
2.09976
1.9739
1.83056
1.62387
1.37575
1.12271
1.00001
1.00001
1
1
1
1
1
0.999999
3
3
3
3
2.99997
2.99997
2.99998
3
3
2.99831
2.99028
2.9722
2.93234
2.83421
2.66079
2.31397
1.74907
1.23314
1.00203
1
1
1.00069
1.06689
3
2.99999
2.99999
2.99995
2.99948
2.99934
2.9999
3
3
3
3
3
3
2.99999
2.99999
2.99999
2.98423
2.85237
2.61798
2.33074
2.20212
2.24135
2.45511
3
2.99998
2.99998
2.99987
2.99999
2.99999
2.99999
3
3
2.99997
2.99993
3
3
3
3
3
3
2.99999
2.99999
2.99999
2.99999
3
3
3
2.99999
3
3
3
3
3
2.99998
2.99981
2.99966
2.99966
2.99979
2.99999
3
3
3
3
3
3
3
3
3
3
3
3
3
3
3
3
3
2.99997
2.99966
2.99965
2.99965
2.9997
2.99999
3
3
3
3
3
3
3
3
3
3
3
3
3
3
3
3
3
3
2.99986
2.9997
2.99973
2.99994
2.99999
2.99999
3
3
3
3
3
3
3
3
3
3
3
3
3
3
3
3
3
3
2.99999
2.99999
2.99999
2.99999
2.99999
2.99999
2.99999
2.99999
3
3
3
3
3
3
3
3
3
3
3
3
3
3
3
3
3
3
2.99999
2.99999
3
3
3
3
3
3
3
3
3
3
3
3
3
3
3
3
3
3
3
3
3
3
3
3
3
3
3
3
3
3
3
3
3
3
3
3
3
3
3
3
3
3
3
3
3
3
3
3
3
3
3
3
3
3
3
3
3
3
3
3
3
3
3
3
3
3
3
3
3
3
3
3
3
3
3
3
3
3
3
3
3
3
3
3
3
3
3
3
3
3
3
3
3
3
3
3
3
3
3
3
3
3
3
3
3
3
3
3
3
3
3
3
3
3
3
3
3
3
3
3
3
3
3
3
3
3
3
3
3
3
3
3
3
3
3
3
3
3
3
3
3
3
3
3
3
3
3
3
3
3
3
3
3
3
3
3
3
3
3
3
3
3
3
3
3
3
3
3
3
3
3
3
3
3
3
3
3
3
3
3
3
3
3
3
3
3
3
3
3
3
3
3
3
3
3
3
3
3
3
3
3
3
3
3
3
3
3
3
3
3
3
3
3
3
3
3
3
3
3
3
3
3
3
3
3
3
3
3
3
3
3
3
3
3
3
3
3
3
3
3
3
3
3
3
3
3
3
3
3
3
3
3
3
3
3
3
3
3
3
3
3
3
3
3
3
3
3
3
3
3
3
3
3
3
3
3
3
3
3
3
3
3
3
3
3
3
3
3
3
3
3
3
3
3
3
3
3
3
3
3
3
3
3
3
3
3
3
3
3
3
3
3
3
3
3
3
3
3
3
3
3
3
3
3
3
3
3
3
3
3
3
3
3
3
3
3
3
3
3
3
3
3
3
3
3
3
3
3
3
3
3
3
3
3
3
3
3
3
3
3
3
3
3
3
3
3
3
3
3
3
3
3
3
3
3
3
3
3
3
3
3
3
3
3
3
3
3
3
3
3
3
3
3
3
3
3
3
3
3
3
3
3
3
3
3
3
3
3
3
3
3
3
3
3
3
3
3
3
3
3
3
3
3
3
3
3
3
3
3
3
3
3
3
3
3
3
3
3
3
3
3
3
3
3
3
3
3
3
3
3
3
3
3
3
3
3
3
3
3
3
3
3
3
3
3
3
3
3
3
3
3
3
3
3
3
3
3
3
3
3
3
3
3
3
3
3
3
3
3
3
3
3
3
3
3
3
3
3
3
3
3
3
3
3
3
3
3
3
3
3
3
3
3
3
3
3
3
3
3
3
3
3
3
3
3
3
3
3
3
3
3
3
3
3
3
3
3
3
3
3
3
3
3
3
3
3
3
3
3
3
3
3
3
3
3
3
3
3
3
3
3
3
3
3
3
3
3
3
3
3
3
3
3
3
3
3
3
3
3
3
3
3
3
3
3
3
3
3
3
3
3
3
3
3
3
3
3
3
3
3
3
3
3
3
3
3
3
0.0721416
0.210257
0.297498
0.446296
0.767506
1.17324
1.33739
1.23158
1.32734
1.3637
1.36942
1.27424
1.37134
1.37096
1.11768
1.07784
1.0378
1.0271
1.00009
1.00006
0.999995
0.999999
1
1
1
1
1
1
0.999999
1
0.999999
0.999998
1.01657
1
1
1.01487
2.51947
2.45789
2.52392
2.72394
3
2.99999
3
3
3
3
3
3
3
3
3
3
3
3
3
3
3
3
3
3
3
3
3
3
3
3
3
3
3
3
3
3
3
3
3
3
3
3
3
3
3
3
3
3
3
3
3
3
3
3
3
3
3
3
3
3
3
3
3
3
3
3
3
3
3
3
3
3
3
3
3
3
3
3
3
3
3
3
3
3
3
3
3
3
3
3
3
3
3
3
3
3
3
3
3
3
3
3
3
3
3
3
3
3
3
3
3
3
3
3
3
3
3
3
3
3
3
3
3
3
3
3
3
3
3
3
3
3
0.460187
0.34976
0.375323
0.729199
1.32471
1.25614
0.373956
0.00202826
0.00655833
0.00676201
0.00373106
0.00215041
0.0011161
0.000448774
0.000240862
0.000177369
0.000129958
0.000762971
0.382803
0.806905
0.583534
0.686549
1.25652
1.20064
1.03215
0.536871
0.360646
0.208812
0.185546
0.20002
0.194696
0.175813
0.146161
0.058907
0.000748043
0.000162192
0.00124736
0.0178311
1.15943
1.15537
1.05497
1.00235
1.05239
1.23143
1.15902
1.11168
0.948615
0.936707
0.950314
0.947395
0.938
0.919332
0.84394
0.649478
0.412163
0.235818
0.256238
1.0936
1.01801
1.00042
0.999801
1.03454
1.15132
1.12474
1.00022
1.00006
1.00012
1.00003
1.00001
1.00009
1.00039
1.00063
1.00048
0.989279
0.976879
0.904237
1.00003
0.999965
1.00114
1.00194
1.0009
1.00001
1
1
1.00001
1.00002
1.00002
1
1.00002
1.00037
1.00055
1.00035
1.00016
1.0223
1.09985
1.00001
1.00002
1.00001
0.999999
1
1
1
1
1.00001
1
1
1
1
1
1
1.00123
1.00308
1.00143
1.00203
0.999997
0.999993
0.999996
1
1
1
1
1
1
1
1
1
1
1
1
1.00003
1.02509
1.0373
1.03392
0.999998
0.999998
0.999999
1
1.00161
1.0158
1.03852
1.05475
1.06723
1.07858
1.08289
1.07817
1.07511
1.08091
1.11329
1.12594
1.12003
1.13179
1.15585
1.09677
1.30441
1.59037
1.77327
1.95656
2.16988
2.30909
2.37729
2.42696
2.46565
2.47822
2.46458
2.45827
2.48908
2.56685
2.58591
2.57119
2.58229
2.65788
2.86309
2.95363
2.97427
2.99297
3
3
2.99999
2.99998
2.99992
2.99975
2.99937
2.99861
2.99693
2.9942
2.99372
2.9914
2.99494
2.99913
2.99999
3
3
3
3
3
3
2.99999
2.99999
2.99998
2.99992
2.99962
2.99935
2.99928
2.99915
2.99963
2.99994
3
3
3
3
3
3
3
3
2.99999
2.99994
2.99922
2.99884
2.99957
2.99984
2.99969
2.99741
2.9975
2.9984
2.99997
3
3
3
3
3
3
3
3
3
2.99996
2.99849
2.99802
2.99802
2.99981
2.99991
2.99864
2.99784
2.99892
2.99999
3
3
3
3
3
3
3
3
3
3
2.99973
2.99844
2.9981
2.99937
3
3
3
3
2.99999
3
3
3
3
3
3
3
3
3
3
3
3
2.99997
2.99996
3
3
3
3
3
3
3
3
3
3
3
3
3
3
3
3
3
3
3
3
3
3
3
3
3
3
3
3
3
3
3
3
3
3
3
3
3
3
3
3
3
3
3
3
3
3
3
3
3
3
3
3
3
3
3
3
3
3
3
3
3
3
3
3
3
3
3
3
3
3
3
3
3
3
3
3
3
3
3
3
3
3
3
3
3
3
3
3
3
3
3
3
3
3
3
3
3
3
3
3
3
3
3
3
3
3
3
3
3
3
3
3
3
3
3
3
3
3
3
3
3
3
3
3
3
3
3
3
3
3
3
3
3
3
3
3
3
3
3
3
3
3
3
3
3
3
3
3
3
3
3
3
3
3
3
3
3
3
3
3
3
3
3
3
3
3
3
3
3
3
3
3
3
3
3
3
3
3
3
3
3
3
3
3
3
3
3
3
3
3
3
3
3
3
3
3
3
3
3
3
3
3
3
3
3
3
3
3
3
3
3
3
3
3
3
3
3
3
3
3
3
3
3
3
3
3
3
3
3
3
3
3
3
3
3
3
3
3
3
3
3
3
3
3
3
3
3
3
3
3
3
3
3
3
3
3
3
3
3
3
3
3
3
3
3
3
3
3
3
3
3
3
3
3
3
3
3
3
3
3
3
3
3
3
3
3
3
3
3
3
3
3
3
3
3
3
3
3
3
3
3
3
3
3
3
3
3
3
3
3
3
3
3
3
3
3
3
3
3
3
3
3
3
3
3
3
3
3
3
3
3
3
3
3
3
3
3
3
3
3
3
3
3
3
3
3
3
3
3
3
3
3
3
3
3
3
3
3
3
3
3
3
3
3
3
3
3
3
3
3
3
3
3
3
3
3
3
3
3
3
3
3
3
3
3
3
3
3
3
3
3
3
3
3
3
3
3
3
3
3
3
3
3
3
3
3
3
3
3
3
3
3
3
3
3
3
3
3
3
3
3
3
3
3
3
3
3
3
3
3
3
3
3
3
3
3
3
3
3
3
3
3
3
3
3
3
3
3
3
3
3
3
3
3
3
3
3
3
3
3
3
3
3
3
3
3
3
3
3
3
3
3
3
3
3
3
3
3
3
3
3
3
3
3
3
3
3
3
3
3
3
3
3
3
3
3
3
3
3
3
3
3
3
3
3
3
3
3
3
3
3
3
3
3
3
3
3
3
3
3
3
)
;

boundaryField
{
    leftWall
    {
        type            calculated;
        value           nonuniform List<scalar> 
50
(
2
2
2
2
2
2
2
1.98035
0.349228
1.126e-08
8.61272e-09
2.17703e-09
0.370143
1.01431
1.47838
2.85192
3
3
3
3
3
3
3
3
3
3
3
3
3
3
3
3
3
3
3
3
3
3
3
3
3
3
3
3
3
3
3
3
3
3
)
;
    }
    rightWall
    {
        type            calculated;
        value           nonuniform List<scalar> 
50
(
1.76474
1.76419
1.74991
1.51121
1.55376
1.91665
1.79565
0.702085
0.382803
0.0178311
0.256238
0.904237
1.09985
1.00203
1.03392
1.15585
2.65788
2.99999
3
3
3
3
3
3
3
3
3
3
3
3
3
3
3
3
3
3
3
3
3
3
3
3
3
3
3
3
3
3
3
3
)
;
    }
    lowerWall
    {
        type            calculated;
        value           nonuniform List<scalar> 
62
(
2
2
2
2
2
2
2
2
2
2
2
2
2
2
2
2
2
2
2
1.99982
1.99955
1.99943
1.99943
1.99943
1.9998
2
2
1.99628
0.996195
0.00430776
0.00154003
0.0721416
0.210257
0.297498
0.446296
1.86556
1.50056
0.744681
0.55693
0.340104
0.228882
0.270643
0.273777
1.86556
1.86752
1.86138
1.85699
1.86779
1.91364
1.93762
1.76744
1.74196
1.71723
1.71316
1.7195
1.74787
1.76451
1.77156
1.71018
1.68375
1.76784
1.76474
)
;
    }
    atmosphere
    {
        type            calculated;
        value           nonuniform List<scalar> 
46
(
3
3
3
3
3
3
3
3
3
3
3
3
3
3
3
3
3
3
3
3
3
3
3
3
3
3
3
3
3
3
3
3
3
3
3
3
3
3
3
3
3
3
3
3
3
3
)
;
    }
    defaultFaces
    {
        type            empty;
    }
}


// ************************************************************************* //
