/*--------------------------------*- C++ -*----------------------------------*\
  =========                 |
  \\      /  F ield         | OpenFOAM: The Open Source CFD Toolbox
   \\    /   O peration     | Website:  https://openfoam.org
    \\  /    A nd           | Version:  13
     \\/     M anipulation  |
\*---------------------------------------------------------------------------*/
FoamFile
{
    format      ascii;
    class       volScalarField;
    location    "2.05";
    object      alpha.mercury;
}
// * * * * * * * * * * * * * * * * * * * * * * * * * * * * * * * * * * * * * //

dimensions      [];

internalField   nonuniform List<scalar> 
2268
(
1
1
1
1
1
1
1
1
1
1
1
1
1
1
1
1
1
1
1
0.999823
0.99955
0.999434
0.999433
1
1
1
1
1
1
1
1
1
1
1
1
1
1
1
1
1
1
1
1
1
0.999943
0.999801
1
1
1
1
1
1
1
1
1
1
1
1
1
1
1
1
1
1
1
1
1
1
1
1
1
1
1
1
1
1
1
1
1
1
1
1
1
1
1
1
1
1
1
1
1
1
1
1
1
1
1
1
1
1
1
1
1
1
1
1
1
1
0.999241
0.99731
0.995248
0.994292
0.99512
0.997133
0.998136
1
1
1
1
1
1
1
1
1
0.974116
0.927807
0.867124
0.800261
0.733194
0.669166
0.597113
0.536684
0.492469
0.46524
0.45656
0.467681
0.494474
0.497067
1
1
1
1
1
0.964989
0.84845
0.689448
0.500781
0.331244
0.208644
0.124373
0.0672725
0.0286986
0.00302871
6.63388e-22
1.19383e-21
1.6766e-22
3.04081e-26
-2.95708e-15
3.82648e-43
6.92192e-27
-2.24319e-23
0.990177
0.963423
0.893184
0.753416
0.535069
0.293065
0.129209
0.0337513
0.00131187
-1.58733e-20
2.25293e-20
1.44767e-20
2.96692e-20
5.20304e-20
7.6341e-20
2.28072e-11
2.07187e-10
1.30213e-10
6.96386e-12
5.72027e-14
1.50084e-21
1.54291e-07
1.38342e-05
0.875473
0.877558
0.877558
0.877558
0.877558
0.877443
0.846834
0.642022
0.625298
0.630732
0.626998
0.611318
0.596077
0.596192
0.712469
0.751337
0.751337
0.751337
0.751337
0.538554
0.533977
0.569564
0.612398
0.656365
0.728941
0.74411
0.82342
0.831355
0.832003
0.831851
0.79566
0.746291
0.751122
0.751327
0.751332
0.751337
0.751336
0.751337
0.138957
0.121029
0.113866
0.128006
0.200319
0.203852
0.255838
0.328469
0.459047
0.597276
0.662326
0.68273
0.643112
0.659036
0.678474
0.697799
0.751337
0.751337
0.732923
0.179454
0.17924
0.121581
0.125788
0.0997713
0.0779742
0.0402249
0.0104448
0.00877419
0.00595723
0.0601847
0.209963
0.247403
0.23373
0.263982
0.30141
0.373754
0.548423
0.485113
0.144723
0.164348
0.158389
0.159414
0.113692
0.0629512
0.0550598
0.0473945
0.0110981
0.00132216
0.000261834
0.00852133
0.128069
0.18038
0.1764
0.23826
0.273033
0.227198
0.434668
0.0774873
0.0789102
0.095526
0.0891467
0.114232
0.0968927
0.0886866
0.0896503
0.0390786
0.00101038
0.000433318
1.98196e-05
0.00107396
0.043505
0.0781158
0.0790731
0.121888
0.210254
0.146966
0.00741529
0.00705857
0.0203125
0.0337796
0.0723635
0.0937756
0.0929256
0.0625321
0.0107892
4.21745e-05
4.33528e-05
2.03766e-05
8.04628e-09
1.37121e-11
2.53206e-13
4.72594e-18
2.39487e-17
0.023089
0.11263
0.0117851
0.00294046
0.00916223
0.0185585
0.0409164
0.0854622
0.0777327
5.07466e-05
1.77778e-05
9.97127e-05
0.0001043
0.00011556
7.5347e-05
1.04632e-05
3.42991e-06
3.832e-07
-1.97388e-09
-9.90611e-08
0.0183838
0.174614
0.139557
0.0840642
0.0321903
0.004461
-8.50092e-13
-4.90599e-16
-2.40077e-20
7.87373e-13
1.87088e-10
2.26051e-10
1.78918e-10
1.693e-10
7.75e-10
6.67639e-10
1.09665e-09
4.86624e-09
3.42135e-09
4.75326e-10
1.59605e-10
1.79651e-11
1.79968e-11
1.74281e-11
3.41131e-10
3.78934e-10
3.27513e-10
3.72181e-10
3.27632e-10
1.29831e-09
1.27433e-09
1.40459e-09
1.86574e-09
1.51753e-09
1.00396e-09
6.78704e-10
4.28346e-10
1.18786e-09
1.26184e-09
1.91163e-09
7.4883e-09
7.04379e-09
1.40654e-09
9.70794e-10
6.63108e-10
1.74281e-11
4.69645e-05
3.85335e-10
3.89072e-10
6.12457e-10
8.85828e-10
1.09206e-09
1.48205e-09
1.56601e-09
1.55853e-09
1.42868e-09
1.21855e-09
9.64003e-10
7.23303e-10
5.17011e-10
4.21764e-10
4.19943e-10
5.07598e-10
8.16836e-10
1.05718e-09
1.54704e-09
1.78146e-09
2.22874e-09
-8.02541e-11
3.00319e-06
3.88381e-10
4.30432e-10
5.66895e-10
7.4046e-10
8.08685e-10
9.1401e-10
9.06195e-10
8.69529e-10
7.89636e-10
7.66769e-10
7.66463e-10
8.10391e-10
9.24087e-10
1.02916e-09
1.17606e-09
1.47261e-09
1.82577e-09
2.13042e-09
2.61846e-09
6.26094e-09
1.38779e-08
1.39318e-08
5.50665e-12
3.44065e-10
3.74017e-10
4.49696e-10
5.16255e-10
5.59037e-10
5.85202e-10
6.1846e-10
6.7523e-10
7.66801e-10
9.0102e-10
1.08901e-09
1.32829e-09
1.56624e-09
1.72544e-09
1.81515e-09
1.94981e-09
2.14069e-09
2.12362e-09
1.91064e-09
2.49331e-09
1.51077e-08
2.00804e-08
1.63184e-09
4.18425e-10
4.63457e-10
5.11881e-10
5.40116e-10
5.62847e-10
6.24859e-10
6.91062e-10
7.8016e-10
9.42048e-10
1.11064e-09
1.20976e-09
1.29793e-09
1.37645e-09
1.38849e-09
1.37729e-09
1.48912e-09
1.75982e-09
1.75738e-09
1.14195e-09
1.33445e-09
1.22159e-08
1.71677e-08
1.02449e-08
4.82635e-10
4.95246e-10
4.96673e-10
4.78973e-10
4.3884e-10
3.90311e-10
3.92014e-10
4.26675e-10
4.86682e-10
5.37711e-10
5.88146e-10
6.37834e-10
6.4958e-10
6.28818e-10
6.06846e-10
6.60792e-10
9.15177e-10
1.00612e-09
8.54818e-10
1.32814e-09
1.29684e-08
2.49251e-08
3.29252e-08
3.24152e-10
3.86709e-10
4.4241e-10
4.56783e-10
4.28876e-10
3.32909e-10
2.21806e-10
1.60453e-10
1.34807e-10
1.19908e-10
1.14346e-10
1.15342e-10
1.22998e-10
1.29579e-10
1.38357e-10
1.53042e-10
3.10315e-10
5.62384e-10
9.60694e-10
1.76115e-09
4.96222e-09
6.74947e-09
5.50739e-09
1.44205e-10
2.4136e-10
3.52642e-10
4.13474e-10
4.10469e-10
3.54865e-10
2.65201e-10
1.94444e-10
1.46119e-10
1.14235e-10
8.87353e-11
6.20019e-11
3.82924e-11
2.82519e-11
2.30611e-11
2.28468e-11
3.15876e-11
1.72802e-10
5.43962e-10
7.11941e-10
7.09636e-10
9.60849e-10
2.57037e-09
9.98398e-11
2.48507e-10
3.99507e-10
4.19397e-10
3.75134e-10
3.25625e-10
2.83805e-10
2.42278e-10
1.90637e-10
1.38677e-10
9.54934e-11
6.187e-11
3.43937e-11
1.77788e-11
1.14849e-11
1.05628e-11
1.08178e-11
3.91644e-11
1.24993e-10
1.40111e-10
8.71297e-11
1.10604e-10
6.21137e-10
9.93384e-11
3.08912e-10
4.30984e-10
4.22687e-10
3.63879e-10
3.3991e-10
3.12295e-10
2.62221e-10
2.19005e-10
1.75112e-10
1.21738e-10
6.93208e-11
3.37824e-11
1.72714e-11
1.04163e-11
8.52507e-12
8.60504e-12
1.48074e-11
3.1257e-11
3.76717e-11
3.42339e-11
3.51472e-11
5.15093e-11
1.00454e-10
3.21515e-10
4.20806e-10
4.19199e-10
3.92307e-10
3.50594e-10
2.89388e-10
2.50874e-10
2.15672e-10
1.74612e-10
1.2625e-10
7.9889e-11
3.76589e-11
1.76876e-11
1.0906e-11
7.83417e-12
6.45392e-12
6.78677e-12
8.78953e-12
1.41091e-11
1.8996e-11
2.08035e-11
2.09653e-11
9.82185e-11
3.07278e-10
3.76723e-10
3.82371e-10
3.45311e-10
2.82413e-10
2.4984e-10
2.26303e-10
1.97443e-10
1.63873e-10
1.15862e-10
7.99411e-11
4.02094e-11
2.00798e-11
1.20481e-11
8.32374e-12
5.89263e-12
4.41822e-12
4.42802e-12
5.67378e-12
8.36589e-12
1.00412e-11
1.04551e-11
9.23826e-11
2.60721e-10
3.12487e-10
2.98352e-10
2.53755e-10
2.20195e-10
2.0563e-10
1.86348e-10
1.59538e-10
1.35492e-10
9.89168e-11
6.5946e-11
3.98981e-11
2.15678e-11
1.41131e-11
9.29622e-12
6.17095e-12
4.2914e-12
2.98251e-12
2.49677e-12
2.53905e-12
3.03322e-12
3.03362e-12
8.0448e-11
2.14588e-10
2.55196e-10
2.49018e-10
2.04596e-10
1.66236e-10
1.50428e-10
1.33172e-10
1.21392e-10
9.58562e-11
7.5934e-11
4.71719e-11
3.36975e-11
2.14951e-11
1.45892e-11
9.67672e-12
6.33706e-12
4.14401e-12
2.83127e-12
1.90005e-12
1.34774e-12
1.00728e-12
8.11252e-13
6.45706e-11
1.54326e-10
1.85545e-10
1.73882e-10
1.51538e-10
1.28231e-10
1.0707e-10
9.86138e-11
8.74929e-11
7.28781e-11
5.76932e-11
3.68142e-11
2.44668e-11
1.89849e-11
1.318e-11
8.93411e-12
5.90811e-12
3.89228e-12
2.66916e-12
1.77965e-12
1.23552e-12
8.60043e-13
6.33316e-13
4.49042e-11
1.00853e-10
1.22621e-10
1.17693e-10
1.02512e-10
8.67806e-11
7.4349e-11
6.33169e-11
5.39713e-11
4.43575e-11
3.39069e-11
2.62909e-11
2.00519e-11
1.4135e-11
1.02777e-11
7.04652e-12
4.73878e-12
3.19639e-12
2.27315e-12
1.53841e-12
1.06242e-12
7.35194e-13
5.16923e-13
2.8659e-11
6.11275e-11
7.32054e-11
7.31433e-11
6.61234e-11
5.62571e-11
4.72219e-11
3.22279e-11
2.24243e-11
2.00377e-11
1.84271e-11
1.60928e-11
1.33778e-11
9.38151e-12
6.94958e-12
4.84765e-12
3.25414e-12
2.24794e-12
1.76159e-12
1.24361e-12
8.6583e-13
5.69713e-13
4.05968e-13
2.07437e-11
4.21701e-11
4.96362e-11
4.98017e-11
4.66999e-11
3.70973e-11
3.00869e-11
2.05374e-11
1.31799e-11
1.10172e-11
1.00819e-11
1.01655e-11
7.48511e-12
4.96495e-12
4.24473e-12
3.19346e-12
2.23939e-12
1.60479e-12
1.18227e-12
9.33493e-13
6.34546e-13
4.33773e-13
3.11935e-13
1.40238e-11
2.85386e-11
3.34847e-11
3.36404e-11
2.90736e-11
2.56314e-11
2.02108e-11
1.46279e-11
9.49552e-12
6.9753e-12
5.56636e-12
4.61722e-12
3.64824e-12
2.98279e-12
2.24435e-12
1.89703e-12
1.52059e-12
1.16682e-12
8.95411e-13
6.61255e-13
4.88876e-13
3.19325e-13
2.40357e-13
9.8683e-12
1.94687e-11
2.24486e-11
2.25694e-11
2.07723e-11
1.79969e-11
1.43993e-11
1.04881e-11
7.02396e-12
4.66815e-12
3.46622e-12
2.73197e-12
2.14961e-12
1.84529e-12
1.48291e-12
1.21488e-12
1.03945e-12
8.35146e-13
6.4328e-13
4.66982e-13
3.48706e-13
2.50732e-13
1.83114e-13
6.18434e-12
1.25257e-11
1.4705e-11
1.44825e-11
1.37105e-11
1.21354e-11
1.00909e-11
7.61951e-12
5.28739e-12
3.38954e-12
2.25679e-12
1.67138e-12
1.29958e-12
1.1067e-12
9.24507e-13
7.75963e-13
6.83448e-13
5.59078e-13
4.38501e-13
3.19368e-13
2.42404e-13
1.83584e-13
1.38978e-13
3.99199e-12
7.78129e-12
8.83233e-12
8.67775e-12
8.34429e-12
7.62347e-12
6.60164e-12
5.33918e-12
3.85166e-12
2.53545e-12
1.56501e-12
1.02035e-12
7.59546e-13
6.23247e-13
5.30897e-13
4.55156e-13
4.11353e-13
3.47079e-13
2.78128e-13
2.01512e-13
1.57524e-13
1.24298e-13
9.79774e-14
2.35544e-12
4.53207e-12
4.98959e-12
4.8334e-12
4.43662e-12
4.21606e-12
3.85052e-12
3.30558e-12
2.62959e-12
1.8294e-12
1.12153e-12
6.61094e-13
4.27368e-13
3.30937e-13
2.77407e-13
2.40449e-13
2.18216e-13
1.92268e-13
1.57534e-13
1.14816e-13
9.37064e-14
7.5693e-14
6.14274e-14
1.34927e-12
2.49553e-12
2.64335e-12
2.43551e-12
2.22134e-12
2.08458e-12
1.92197e-12
1.8263e-12
1.6072e-12
1.21728e-12
7.78422e-13
4.5717e-13
2.46771e-13
1.72637e-13
1.34434e-13
1.13993e-13
1.0054e-13
9.16093e-14
7.76779e-14
6.10217e-14
4.94414e-14
4.07673e-14
3.35293e-14
7.05229e-13
1.26842e-12
1.31478e-12
1.1459e-12
9.95217e-13
9.40819e-13
8.64707e-13
8.27907e-13
8.34624e-13
7.11116e-13
4.83571e-13
2.99191e-13
1.6058e-13
9.14345e-14
6.32707e-14
5.00598e-14
4.23646e-14
3.80665e-14
3.32059e-14
2.71808e-14
2.23574e-14
1.88365e-14
1.55348e-14
3.57566e-13
6.00154e-13
5.84128e-13
4.84337e-13
4.0348e-13
3.83417e-13
3.51149e-13
3.31318e-13
3.45859e-13
3.51588e-13
2.6031e-13
1.70434e-13
9.78972e-14
5.26995e-14
2.93869e-14
2.07719e-14
1.66571e-14
1.44248e-14
1.27969e-14
1.05233e-14
8.93342e-15
7.51645e-15
6.0924e-15
1.60125e-13
2.5739e-13
2.37173e-13
1.82903e-13
1.44053e-13
1.35575e-13
1.28816e-13
1.21585e-13
1.26013e-13
1.38339e-13
1.14336e-13
8.34875e-14
5.21839e-14
2.82906e-14
1.47151e-14
8.33562e-15
6.32453e-15
5.20631e-15
4.26633e-15
3.68297e-15
2.97509e-15
2.50029e-15
2.08334e-15
6.48354e-14
9.87894e-14
8.69886e-14
6.34618e-14
4.73314e-14
4.37479e-14
4.12959e-14
3.92553e-14
4.00862e-14
4.57242e-14
4.14479e-14
3.17284e-14
2.1455e-14
1.31935e-14
7.09441e-15
3.43436e-15
2.06893e-15
1.58879e-15
1.37889e-15
1.16942e-15
9.07322e-16
7.25548e-16
5.98339e-16
2.41347e-14
3.35119e-14
2.8205e-14
1.9774e-14
1.41277e-14
1.27593e-14
1.2093e-14
1.16111e-14
1.17432e-14
1.36249e-14
1.33121e-14
1.05802e-14
7.50432e-15
4.66941e-15
2.60629e-15
1.33812e-15
6.68435e-16
4.91812e-16
3.98176e-16
3.1337e-16
2.39099e-16
1.8545e-16
1.51477e-16
7.98533e-15
9.92333e-15
7.98233e-15
5.39446e-15
3.72996e-15
3.29289e-15
3.18042e-15
3.09719e-15
3.11371e-15
3.61182e-15
3.71802e-15
3.06252e-15
2.22557e-15
1.47456e-15
8.61009e-16
4.47149e-16
2.00722e-16
1.30713e-16
9.88355e-17
7.75569e-17
5.71704e-17
4.03258e-17
3.21167e-17
2.17869e-15
2.51588e-15
1.93456e-15
1.26885e-15
8.5736e-16
7.43477e-16
7.33028e-16
7.29395e-16
7.36155e-16
8.47805e-16
8.98736e-16
7.5477e-16
5.58993e-16
3.74711e-16
2.25013e-16
1.16218e-16
5.04282e-17
3.03496e-17
2.2068e-17
1.66571e-17
1.15974e-17
8.30039e-18
5.90128e-18
4.83565e-16
5.35255e-16
3.94796e-16
2.54623e-16
1.6927e-16
1.45558e-16
1.46641e-16
1.50556e-16
1.5448e-16
1.77729e-16
1.89939e-16
1.59809e-16
1.18469e-16
7.96102e-17
4.76182e-17
2.395e-17
1.03803e-17
5.97322e-18
4.23915e-18
2.98999e-18
2.10658e-18
1.31514e-18
8.97573e-19
8.72932e-17
9.36256e-17
6.71083e-17
4.29248e-17
2.84283e-17
2.44357e-17
2.52676e-17
2.70145e-17
2.85259e-17
3.30938e-17
3.50313e-17
2.90884e-17
2.14855e-17
1.42167e-17
8.27674e-18
4.04008e-18
1.73242e-18
1.03448e-18
6.93369e-19
4.73616e-19
2.90529e-19
1.95599e-19
1.15397e-19
1.22459e-17
1.31978e-17
9.38143e-18
6.00078e-18
4.00589e-18
3.48396e-18
3.73106e-18
4.1869e-18
4.59937e-18
5.45127e-18
5.64029e-18
4.57611e-18
3.20465e-18
2.06597e-18
1.21429e-18
5.539e-19
2.49736e-19
1.53851e-19
9.81363e-20
6.52313e-20
4.10513e-20
2.28644e-20
1.21209e-20
1.32409e-18
1.46974e-18
1.06073e-18
6.87961e-19
4.69492e-19
4.19894e-19
4.72e-19
5.59112e-19
6.49812e-19
7.56398e-19
7.54257e-19
5.988e-19
4.24301e-19
2.72431e-19
1.55291e-19
6.67364e-20
3.23452e-20
2.00334e-20
1.2352e-20
7.71547e-21
4.36163e-21
2.32072e-21
1.0582e-21
6.45917e-20
1.26495e-19
9.55397e-20
6.42431e-20
4.56792e-20
4.27913e-20
5.14397e-20
6.50452e-20
7.7545e-20
9.3489e-20
9.06834e-20
7.1457e-20
5.19555e-20
3.29508e-20
1.67206e-20
7.34991e-21
3.80844e-21
2.3229e-21
1.36733e-21
7.83986e-22
4.17825e-22
1.7718e-22
7.81153e-23
5.78484e-21
8.22505e-21
6.79825e-21
4.88846e-21
3.70934e-21
3.71241e-21
4.72421e-21
6.40513e-21
8.2467e-21
1.07994e-20
1.02176e-20
8.05513e-21
5.79535e-21
3.54928e-21
1.64462e-21
7.46552e-22
4.1402e-22
2.42587e-22
1.35356e-22
7.06994e-23
3.02793e-23
1.20588e-23
3.4649e-24
2.42291e-22
4.01233e-22
3.85227e-22
3.05445e-22
2.54887e-22
2.78748e-22
3.76792e-22
5.60485e-22
8.31419e-22
1.15236e-21
1.06221e-21
8.35359e-22
5.8371e-22
3.37059e-22
1.54027e-22
7.20652e-23
4.05496e-23
2.26498e-23
1.18678e-23
5.55436e-24
2.16357e-24
5.55288e-25
7.9728e-26
6.39974e-24
4.80198e-24
9.48339e-24
1.60926e-23
1.52575e-23
1.86911e-23
2.84894e-23
4.81765e-23
8.06454e-23
1.14597e-22
1.03145e-22
8.11629e-23
5.44709e-23
2.94334e-23
1.31951e-23
6.3684e-24
3.60924e-24
1.92867e-24
9.34655e-25
3.14736e-25
1.09313e-25
1.70012e-26
1.02316e-27
7.38139e-26
2.03307e-25
4.85619e-25
6.23684e-25
6.86223e-25
9.6944e-25
1.58546e-24
2.40704e-24
5.23323e-24
7.76985e-24
6.9263e-24
4.53379e-24
2.92257e-24
1.85405e-24
8.65268e-25
4.40479e-25
2.90903e-25
1.45546e-25
6.71763e-26
2.32748e-26
4.55271e-27
3.36865e-28
1.67668e-28
1.78525e-28
2.05856e-27
1.35843e-26
2.15355e-26
3.04935e-26
5.15692e-26
9.85433e-26
2.42746e-25
5.5359e-25
8.25869e-25
7.21435e-25
4.93925e-25
3.06335e-25
1.76621e-25
8.47397e-26
4.33782e-26
2.30029e-26
1.08427e-26
4.58505e-27
1.2069e-27
1.6578e-28
1.82468e-29
7.1612e-29
0.0150239
0.0490214
0.0549091
0.0548497
0.00166521
0.00462799
0.00711485
0.00987185
6.55047e-05
0.000275705
8.40884e-05
0.000524816
4.30432e-10
6.651e-06
0.000112078
0.000625464
2.57631e-12
2.13223e-05
6.20781e-05
5.55252e-05
1.41985e-06
2.51208e-06
1.19582e-06
2.04636e-09
4.9301e-08
1.93344e-09
6.6911e-09
1.98465e-09
5.77807e-09
3.28096e-09
2.99966e-09
3.083e-09
2.98139e-09
2.91735e-09
2.60063e-09
2.34336e-09
8.74249e-10
7.66352e-10
7.49637e-10
1.14951e-09
7.09098e-11
5.95025e-11
5.61636e-11
1.54852e-10
2.06244e-11
1.73167e-11
1.49667e-11
1.40124e-11
1.04654e-11
1.06115e-11
1.04151e-11
8.95344e-12
2.63895e-12
2.79033e-12
2.9433e-12
3.53082e-12
7.33809e-13
7.18944e-13
7.83189e-13
1.26431e-12
5.51452e-13
4.90299e-13
4.82782e-13
5.51377e-13
4.39993e-13
3.80029e-13
3.38235e-13
3.32871e-13
3.45011e-13
2.97219e-13
2.51185e-13
2.21042e-13
2.68307e-13
2.30631e-13
1.91847e-13
1.71561e-13
2.10046e-13
1.79231e-13
1.54953e-13
1.32946e-13
1.60891e-13
1.42531e-13
1.17286e-13
1.06219e-13
1.20513e-13
1.05555e-13
9.12982e-14
7.81874e-14
8.48086e-14
7.6906e-14
6.30051e-14
5.62646e-14
5.4254e-14
4.76039e-14
4.16844e-14
3.54691e-14
2.97575e-14
2.66307e-14
2.16315e-14
1.93925e-14
1.36169e-14
1.16211e-14
9.98641e-15
8.74362e-15
5.43215e-15
4.49571e-15
3.58126e-15
3.17658e-15
1.80152e-15
1.4465e-15
1.17566e-15
9.91135e-16
5.29617e-16
3.97006e-16
3.06434e-16
2.58597e-16
1.28573e-16
9.80052e-17
7.71754e-17
6.06012e-17
2.70879e-17
1.97067e-17
1.49798e-17
1.14036e-17
4.72859e-18
3.51272e-18
2.57844e-18
1.83892e-18
6.91959e-19
4.86937e-19
3.42281e-19
2.31344e-19
8.22152e-20
5.64295e-20
3.73304e-20
2.35739e-20
8.0603e-21
5.08823e-21
3.25426e-21
2.14317e-21
6.42754e-22
3.86951e-22
2.04783e-22
5.31653e-23
2.5726e-23
7.79802e-24
1.82345e-24
2.41086e-25
2.39295e-25
3.16926e-26
6.69825e-27
8.63621e-27
5.33447e-28
1.18255e-27
3.00115e-27
8.66134e-27
5.29425e-28
1.07127e-27
3.36276e-27
1.07147e-26
3.02721e-28
1.03045e-27
3.64091e-27
1.13736e-26
2.36365e-28
8.17798e-28
2.67068e-27
7.41554e-27
0.0291241
0.000151807
0.000543291
0.0131327
0.0470881
0.0379378
0.00891457
1.28379e-05
4.95453e-06
6.04977e-05
0.000106109
0.000105995
8.64718e-05
4.30651e-05
1.6951e-05
1.5855e-05
1.4172e-05
6.27615e-06
2.32638e-08
0.00670746
0.00016464
0.00280948
0.00729607
0.00325824
4.77131e-05
8.7466e-05
0.000590182
6.08361e-06
2.44489e-06
9.65211e-08
1.11105e-07
3.39289e-06
8.50316e-06
1.04116e-05
7.49665e-05
1.75912e-05
-9.26047e-08
8.27581e-11
0.000951278
0.00094749
0.000558649
1.38603e-08
1.3735e-08
0.000212591
0.000462756
0.000403502
6.04466e-06
1.42367e-05
3.32247e-07
1.01007e-06
2.73443e-06
6.26373e-06
9.24969e-05
0.000223488
0.000195745
0.000959684
0.00536357
0.00087927
0.000188635
6.06167e-10
6.99666e-08
1.48103e-06
5.07279e-06
2.19825e-05
2.93129e-05
5.61028e-05
1.19789e-05
1.77562e-06
6.75344e-06
1.67685e-05
3.70187e-05
0.000102716
9.86652e-05
0.000203667
0.00396029
0.00836768
2.89343e-05
3.21408e-08
5.86825e-10
4.22575e-06
7.97269e-06
5.94587e-06
1.14354e-06
1.99617e-07
3.87875e-06
6.40181e-08
5.05554e-08
5.39902e-09
5.66966e-09
1.5313e-07
2.17303e-05
5.40785e-05
6.80602e-05
0.0025265
0.0075904
2.63463e-07
6.1352e-10
5.59056e-10
4.08099e-10
3.08508e-08
7.4026e-08
6.99688e-08
9.49693e-09
1.47367e-09
1.08039e-07
9.86327e-08
3.44228e-08
3.64147e-08
3.19087e-08
2.10058e-09
6.3977e-09
1.31484e-05
0.000454689
0.000892727
1.68872e-09
1.53016e-09
5.95356e-09
1.53571e-07
1.9999e-07
2.08517e-07
1.59273e-07
2.87818e-08
2.22402e-15
1.35414e-08
2.06947e-08
5.72853e-08
1.15702e-07
2.35415e-08
2.21416e-07
2.67432e-05
0.000246768
0.000322138
0.000338924
2.59511e-09
1.71526e-09
4.0006e-08
1.70733e-07
2.02418e-07
2.77161e-08
5.04066e-26
-1.31246e-13
-2.22402e-15
-6.79754e-15
-1.01665e-13
-6.54826e-14
1.19444e-10
7.5746e-05
0.00115438
0.00183271
0.00180298
0.00150994
0.00126354
2.21373e-09
4.47187e-09
1.56877e-08
1.51062e-08
5.5862e-09
9.26166e-09
4.4e-08
2.37203e-07
1.19706e-06
7.8139e-06
2.44954e-05
3.18439e-05
2.32078e-05
0.000538754
0.00284549
0.00325915
0.00326785
0.00302462
0.00231215
2.02809e-09
2.51102e-09
2.52707e-09
5.57326e-09
2.79564e-08
1.35813e-07
6.03571e-07
2.45468e-06
8.6555e-06
2.48221e-05
5.74982e-05
0.000113502
0.000226602
0.000423409
0.000466618
0.000621459
0.000400391
5.88521e-05
4.04339e-07
3.62677e-10
1.17878e-09
5.05069e-09
1.76511e-08
3.7495e-08
8.82558e-08
2.30184e-07
5.16398e-07
1.99317e-06
1.07543e-05
2.73747e-05
3.35447e-05
1.04079e-05
-5.65941e-09
6.63301e-16
-1.53493e-10
1.95533e-08
9.69609e-08
3.65159e-08
1.54925e-11
2.35854e-11
3.66729e-11
4.55898e-11
1.88857e-13
1.52258e-13
3.26223e-13
3.18473e-13
-1.69063e-12
2.85187e-11
1.87455e-15
-1.15326e-16
7.33796e-15
2.43982e-08
1.50657e-08
1.27783e-08
7.5628e-08
6.79249e-08
4.67582e-09
6.0922e-12
3.73776e-12
3.45789e-12
3.37396e-12
1.17333e-12
3.91964e-13
9.49182e-13
5.85882e-12
4.33851e-12
3.12316e-11
2.42681e-13
1.41027e-08
8.44894e-08
1.01259e-07
6.02487e-08
9.87042e-09
5.56809e-08
8.32517e-08
4.61396e-09
3.76398e-12
2.41734e-12
1.30874e-12
7.84263e-13
8.34966e-13
1.78077e-12
7.95551e-12
5.05466e-11
6.54374e-10
1.80371e-09
2.06129e-09
2.36389e-08
1.32395e-07
1.21706e-07
4.89682e-08
1.79997e-09
1.68912e-10
1.92163e-10
2.0925e-10
2.05779e-12
1.64256e-12
9.58021e-13
7.94404e-13
9.80857e-13
2.65941e-12
3.04391e-11
1.19167e-10
1.19496e-09
3.61334e-09
6.17694e-09
1.00047e-08
4.89643e-08
3.01524e-08
4.4911e-09
2.21224e-09
9.50251e-11
1.27674e-10
1.93864e-10
9.46261e-13
9.98883e-13
1.00596e-12
1.75461e-12
4.58563e-12
2.31497e-11
1.14914e-10
2.95233e-10
1.31284e-09
3.19338e-09
6.22507e-09
1.44122e-08
1.71238e-09
-1.25554e-10
3.37179e-10
2.80024e-10
9.00363e-11
9.73299e-11
1.83164e-10
4.92198e-13
1.18322e-12
2.89971e-12
7.23017e-12
2.2635e-11
9.08258e-11
2.49256e-10
4.87002e-10
1.01815e-09
1.99597e-09
3.70609e-09
1.15795e-08
1.00785e-08
6.31979e-09
1.96154e-09
3.2734e-10
3.15507e-11
7.69885e-11
1.08825e-10
4.74233e-13
3.14866e-12
1.01906e-11
2.31807e-11
6.4259e-11
1.29059e-10
2.91348e-10
5.22575e-10
8.90581e-10
1.27804e-09
1.96795e-09
2.7719e-09
5.67148e-09
4.06153e-09
1.29091e-09
1.78989e-10
1.43123e-11
2.37753e-11
4.41424e-11
5.15504e-13
4.19791e-12
1.40355e-11
3.4996e-11
8.24154e-11
1.30498e-10
2.44043e-10
4.87064e-10
7.69562e-10
1.07074e-09
1.16266e-09
5.59323e-10
2.27836e-10
1.31225e-10
8.17669e-11
2.37563e-11
5.97328e-12
1.00843e-11
1.48153e-11
4.04266e-13
3.20106e-12
1.09446e-11
2.76507e-11
5.8347e-11
1.11235e-10
1.87996e-10
3.1837e-10
4.56878e-10
5.63853e-10
5.5824e-10
3.86442e-10
1.62668e-10
5.8179e-11
9.07049e-12
2.26566e-12
3.04915e-12
4.4114e-12
4.84592e-12
2.56471e-13
1.71989e-12
6.0822e-12
1.4837e-11
3.02667e-11
5.53977e-11
8.87896e-11
1.28246e-10
1.71203e-10
1.9934e-10
2.0069e-10
1.69419e-10
1.07598e-10
5.55991e-11
9.22616e-12
1.44374e-12
1.25081e-12
1.83391e-12
1.79116e-12
1.45098e-13
6.40833e-13
2.24317e-12
5.33037e-12
1.00318e-11
1.74309e-11
2.7806e-11
4.00803e-11
5.02561e-11
5.4895e-11
4.89466e-11
4.00257e-11
2.17121e-11
5.01103e-12
6.12843e-13
3.3599e-13
5.22315e-13
6.39985e-13
3.39706e-13
7.42225e-14
2.08289e-13
5.32325e-13
1.21998e-12
2.61756e-12
4.42263e-12
6.77637e-12
9.4261e-12
1.17397e-11
1.25009e-11
1.16125e-11
8.82726e-12
4.24298e-12
8.06243e-13
1.18698e-13
1.41185e-13
1.31093e-13
5.61877e-14
6.15979e-14
3.69341e-14
5.93398e-14
1.09712e-13
1.87327e-13
3.71851e-13
7.19833e-13
1.08915e-12
1.47223e-12
1.78779e-12
1.87211e-12
1.77306e-12
1.37691e-12
6.44027e-13
1.17906e-13
3.52683e-14
2.9844e-14
1.27954e-14
7.86246e-15
2.39958e-15
1.73647e-14
1.82439e-14
2.10393e-14
2.87836e-14
4.64332e-14
8.51195e-14
1.37072e-13
1.80623e-13
2.2323e-13
2.4477e-13
2.39242e-13
1.97456e-13
9.8646e-14
1.971e-14
7.39574e-15
3.63389e-15
1.64788e-15
4.64176e-16
2.12569e-16
7.28204e-15
6.17066e-15
5.30891e-15
5.00182e-15
5.99843e-15
8.07748e-15
1.1218e-14
1.51363e-14
1.969e-14
2.40002e-14
2.53451e-14
2.25805e-14
1.19647e-14
2.52227e-15
1.21854e-15
3.44061e-16
1.2152e-16
9.80504e-17
6.58698e-17
2.5847e-15
2.02996e-15
1.52078e-15
1.14232e-15
8.92055e-16
7.85004e-16
8.46903e-16
1.03573e-15
1.39551e-15
1.88003e-15
2.18244e-15
2.04259e-15
1.15289e-15
3.00012e-16
8.16904e-17
3.9051e-17
4.83898e-17
6.39439e-17
3.75623e-17
7.64119e-16
5.63494e-16
3.97102e-16
2.85886e-16
1.79708e-16
1.17548e-16
8.67623e-17
7.98328e-17
9.21767e-17
1.24302e-16
1.56459e-16
1.53975e-16
9.55051e-17
3.41207e-17
1.18817e-17
1.36348e-17
2.52832e-17
4.30438e-17
2.29328e-17
1.86458e-16
1.27563e-16
8.25072e-17
5.6262e-17
3.01688e-17
1.84611e-17
1.39505e-17
9.75543e-18
7.38459e-18
7.97655e-18
9.51934e-18
9.63704e-18
5.61999e-18
3.55516e-18
4.49522e-18
6.25498e-18
1.27958e-17
2.29042e-17
1.58848e-17
3.81426e-17
2.3389e-17
1.4734e-17
7.99583e-18
3.06726e-18
1.76762e-18
1.46288e-18
1.20486e-18
7.81731e-19
5.27455e-19
5.57082e-19
3.88477e-19
2.69012e-19
4.58059e-19
1.32786e-18
2.76625e-18
6.35522e-18
1.47489e-17
1.03197e-17
6.44993e-18
3.62916e-18
2.08633e-18
7.09449e-19
1.70901e-19
7.55276e-20
8.03648e-20
8.07412e-20
6.7303e-20
4.47215e-20
3.96764e-20
5.77203e-20
1.09261e-19
2.32317e-19
5.48856e-19
1.39436e-18
3.53358e-18
8.94102e-18
7.40685e-18
9.0381e-19
5.03762e-19
1.76265e-19
3.60608e-20
3.51352e-21
1.99426e-21
3.21886e-21
4.98105e-21
7.46018e-21
1.29833e-20
2.56737e-20
5.19259e-20
1.04349e-19
2.04082e-19
4.11983e-19
9.12472e-19
2.30592e-18
5.98591e-18
4.05672e-18
1.09245e-19
4.8097e-20
8.08212e-21
5.68528e-22
1.9491e-22
3.54838e-22
8.78963e-22
2.15561e-21
5.14115e-21
1.17124e-20
2.56696e-20
5.32353e-20
1.03793e-19
1.9155e-19
3.36623e-19
7.65322e-19
1.88788e-18
3.11954e-18
2.61015e-18
1.14566e-20
2.12196e-21
1.42818e-22
4.94154e-23
1.01493e-22
2.82365e-22
7.64644e-22
1.98761e-21
4.93989e-21
1.16886e-20
2.60323e-20
5.38928e-20
1.02308e-19
1.76966e-19
3.02345e-19
6.48454e-19
1.25174e-18
2.00631e-18
1.22811e-18
6.37143e-22
3.42561e-23
1.13646e-23
2.7477e-23
8.60483e-23
2.51525e-22
7.12801e-22
1.88612e-21
4.71914e-21
1.10422e-20
2.46517e-20
5.08514e-20
9.3835e-20
1.61107e-19
2.7973e-19
5.21313e-19
8.76734e-19
9.97484e-19
7.33029e-19
6.84887e-24
2.07527e-24
6.16979e-24
2.29683e-23
7.51083e-23
2.2667e-22
6.45275e-22
1.72026e-21
4.33257e-21
1.03048e-20
2.31029e-20
4.722e-20
8.65819e-20
1.47803e-19
2.42716e-19
3.8884e-19
5.37315e-19
5.98452e-19
3.06897e-19
2.3094e-25
1.17993e-24
5.15089e-24
1.93748e-23
6.36122e-23
1.94622e-22
5.52218e-22
1.46415e-21
3.68409e-21
8.75117e-21
1.94396e-20
3.95089e-20
7.21356e-20
1.20988e-19
1.87717e-19
2.80202e-19
3.47482e-19
2.7551e-19
1.62258e-19
1.77748e-25
9.96336e-25
4.23738e-24
1.54915e-23
5.06116e-23
1.51353e-22
4.30764e-22
1.13133e-21
2.83701e-21
6.7288e-21
1.49091e-20
3.0204e-20
5.47758e-20
9.06221e-20
1.37146e-19
1.77e-19
1.78954e-19
1.48635e-19
6.00233e-20
1.54359e-25
7.78365e-25
3.15558e-24
1.10397e-23
3.5376e-23
1.04989e-22
2.92391e-22
7.67397e-22
1.9151e-21
4.54571e-21
1.00376e-20
2.00908e-20
3.63669e-20
5.98617e-20
8.0351e-20
1.06533e-19
9.56616e-20
5.74296e-20
2.80481e-20
1.21237e-25
5.29791e-25
1.95019e-24
6.39519e-24
1.95578e-23
5.66682e-23
1.58892e-22
4.21698e-22
1.05602e-21
2.52198e-21
5.62833e-21
1.13924e-20
2.0788e-20
3.42648e-20
4.51322e-20
5.66397e-20
3.95617e-20
2.46666e-20
1.49783e-20
7.27377e-26
2.71443e-25
9.00966e-25
2.77862e-24
8.34264e-24
2.44667e-23
6.93267e-23
1.88877e-22
4.86779e-22
1.20508e-21
2.7594e-21
5.6903e-21
1.03798e-20
1.70194e-20
2.21538e-20
2.59352e-20
1.53808e-20
1.12236e-20
7.89431e-21
2.4383e-26
7.61455e-26
2.28874e-25
6.49607e-25
2.08786e-24
6.72298e-24
2.03699e-23
5.82101e-23
1.57974e-22
4.01433e-22
9.37133e-22
1.98235e-21
3.68223e-21
6.1321e-21
8.02585e-21
8.97325e-21
5.32666e-21
3.73511e-21
1.94461e-21
)
;

boundaryField
{
    leftWall
    {
        type            alphaContactAngle;
        contactAngleProperties 
        {
            air             
            {
                theta0          90;
            }
            water           
            {
                theta0          90;
            }
            oil             
            {
                theta0          90;
            }
        }
        value           nonuniform List<scalar> 
50
(
1
1
1
1
1
1
1
0.990177
0.174614
3.41131e-10
3.85335e-10
3.88381e-10
3.44065e-10
4.18425e-10
4.82635e-10
3.24152e-10
1.44205e-10
9.98398e-11
9.93384e-11
1.00454e-10
9.82185e-11
9.23826e-11
8.0448e-11
6.45706e-11
4.49042e-11
2.8659e-11
2.07437e-11
1.40238e-11
9.8683e-12
6.18434e-12
3.99199e-12
2.35544e-12
1.34927e-12
7.05229e-13
3.57566e-13
1.60125e-13
6.48354e-14
2.41347e-14
7.98533e-15
2.17869e-15
4.83565e-16
8.72932e-17
1.22459e-17
1.32409e-18
6.45917e-20
5.78484e-21
2.42291e-22
6.39974e-24
7.38139e-26
1.78525e-28
)
;
    }
    rightWall
    {
        type            alphaContactAngle;
        contactAngleProperties 
        {
            air             
            {
                theta0          90;
            }
            water           
            {
                theta0          90;
            }
            oil             
            {
                theta0          90;
            }
        }
        value           nonuniform List<scalar> 
50
(
0.751337
0.751337
0.732923
0.485113
0.434668
0.146966
0.11263
0.0183838
2.32638e-08
8.27581e-11
0.00536357
0.00836768
0.0075904
0.000892727
0.000338924
0.00126354
0.00231215
4.04339e-07
3.65159e-08
4.67582e-09
4.61396e-09
2.0925e-10
1.93864e-10
1.83164e-10
1.08825e-10
4.41424e-11
1.48153e-11
4.84592e-12
1.79116e-12
3.39706e-13
6.15979e-14
2.39958e-15
2.12569e-16
6.58698e-17
3.75623e-17
2.29328e-17
1.58848e-17
1.03197e-17
7.40685e-18
4.05672e-18
2.61015e-18
1.22811e-18
7.33029e-19
3.06897e-19
1.62258e-19
6.00233e-20
2.80481e-20
1.49783e-20
7.89431e-21
1.94461e-21
)
;
    }
    lowerWall
    {
        type            alphaContactAngle;
        contactAngleProperties 
        {
            air             
            {
                theta0          90;
            }
            water           
            {
                theta0          90;
            }
            oil             
            {
                theta0          90;
            }
        }
        value           nonuniform List<scalar> 
62
(
1
1
1
1
1
1
1
1
1
1
1
1
1
1
1
1
1
1
1
0.999823
0.99955
0.999434
0.999433
0.999433
0.999801
1
1
0.998136
0.497067
-2.24319e-23
1.38342e-05
0.0150239
0.0490214
0.0549091
0.0548497
0.875473
0.538554
0.138957
0.179454
0.144723
0.0774873
0.00741529
0.0117851
0.875473
0.877558
0.877558
0.877558
0.877558
0.877443
0.846834
0.642022
0.625298
0.630732
0.626998
0.611318
0.596077
0.596192
0.712469
0.751337
0.751337
0.751337
0.751337
)
;
    }
    atmosphere
    {
        type            inletOutlet;
        inletValue      uniform 0;
        value           nonuniform List<scalar> 
46
(
1.78525e-28
2.05856e-27
1.35843e-26
2.15355e-26
3.04935e-26
5.15692e-26
9.85433e-26
2.42746e-25
5.5359e-25
8.25868e-25
7.21434e-25
4.93925e-25
3.06335e-25
1.76621e-25
8.47397e-26
4.33782e-26
2.30029e-26
1.08427e-26
4.58505e-27
1.2069e-27
1.6578e-28
1.82468e-29
7.1612e-29
2.36366e-28
0
0
0
0
0
0
0
0
0
0
0
0
0
0
0
0
0
0
0
0
0
0
)
;
    }
    defaultFaces
    {
        type            empty;
    }
}


// ************************************************************************* //
