/*--------------------------------*- C++ -*----------------------------------*\
  =========                 |
  \\      /  F ield         | OpenFOAM: The Open Source CFD Toolbox
   \\    /   O peration     | Website:  https://openfoam.org
    \\  /    A nd           | Version:  13
     \\/     M anipulation  |
\*---------------------------------------------------------------------------*/
FoamFile
{
    format      ascii;
    class       volScalarField;
    location    "2.05";
    object      alpha.water;
}
// * * * * * * * * * * * * * * * * * * * * * * * * * * * * * * * * * * * * * //

dimensions      [];

internalField   nonuniform List<scalar> 
2268
(
5.23081e-11
8.94879e-11
1.06551e-10
1.10974e-10
1.17544e-10
1.24848e-10
1.32046e-10
1.40347e-10
1.53147e-10
1.76414e-10
1.99968e-10
2.27775e-10
2.72103e-10
3.37637e-10
4.15561e-10
5.17314e-10
6.62744e-10
9.65679e-10
1.52555e-09
2.29127e-09
2.71136e-09
2.77887e-09
2.77887e-09
1.37235e-10
2.39518e-10
2.1017e-10
2.26369e-10
2.6245e-10
3.11884e-10
3.71012e-10
4.24107e-10
4.74045e-10
5.18769e-10
5.69222e-10
6.23098e-10
6.45648e-10
6.5217e-10
6.85282e-10
7.6463e-10
9.18985e-10
1.16749e-09
1.49327e-09
1.95577e-09
2.41396e-09
2.57008e-09
2.35444e-09
3.19702e-10
3.89704e-10
3.20443e-10
3.28708e-10
3.88389e-10
4.81274e-10
5.9732e-10
7.33562e-10
8.82505e-10
1.04301e-09
1.18458e-09
1.238e-09
1.17329e-09
9.34247e-10
8.61937e-10
8.43554e-10
9.73071e-10
1.10887e-09
1.2063e-09
1.48462e-09
1.73475e-09
1.90983e-09
1.21186e-09
3.35123e-10
3.81003e-10
3.01179e-10
3.03421e-10
3.47166e-10
4.225e-10
5.40274e-10
6.88077e-10
9.72133e-10
1.39166e-09
1.62232e-09
1.62728e-09
1.34753e-09
6.956e-10
5.10687e-10
4.94413e-10
4.82218e-08
5.11867e-08
5.20176e-08
5.4045e-08
6.03842e-08
5.9185e-08
8.99987e-08
2.821e-10
2.65884e-10
2.44183e-10
2.48035e-10
2.42168e-10
2.94942e-10
5.45681e-10
1.59225e-09
3.97432e-11
-1.74843e-14
-3.6528e-12
-6.3373e-12
-6.9464e-12
-3.91304e-12
-1.69134e-20
-2.39036e-12
0.000758524
0.00268961
0.00475151
0.00570682
0.00487801
0.00286585
0.00186115
2.32661e-10
2.25726e-10
2.20963e-10
2.16414e-10
2.25052e-10
2.24372e-10
2.31889e-10
7.13482e-09
-5.29601e-11
0.0258841
0.0721929
0.132876
0.199739
0.266806
0.330834
0.402887
0.463315
0.507525
0.534719
0.543283
0.531946
0.504915
0.502214
2.28121e-10
2.28688e-10
9.44713e-09
5.0934e-08
2.28293e-07
0.0350109
0.15155
0.310552
0.499219
0.668756
0.791356
0.875627
0.932727
0.971301
0.996971
0.999999
0.999995
0.999976
0.999895
0.99969
0.99929
0.998703
0.998531
0.00982253
0.0365772
0.106816
0.246584
0.464931
0.706935
0.870791
0.966249
0.998688
1
1
1
1
1
1
0.999999
0.999996
0.99998
0.999966
0.999946
0.999909
0.99984
0.999469
0.0105736
0.0107272
0.0250093
0.0591148
0.0648805
0.0499132
0.0413106
0.0153599
0.000807278
0.000793662
0.000778144
0.000796064
0.000616475
0.039384
0.124881
0.125036
0.0968792
0.0125373
0.0152835
0.0460376
0.0559336
0.0491017
0.0519024
0.125293
0.218454
0.219208
0.136213
0.112263
0.0689208
0.0176773
0.000803824
0.000633783
0.0206301
0.0850946
0.124414
0.0916842
0.011824
0.0154198
0.426973
0.496747
0.360619
0.233343
0.163704
0.323173
0.647517
0.670338
0.540953
0.368529
0.103235
0.0190751
0.00263104
0.00155567
0.00977991
0.0266932
0.0269191
0.0105205
0.0111503
0.653593
0.794658
0.81049
0.571526
0.252413
0.255189
0.599097
0.955208
0.987744
0.993461
0.535661
0.194702
0.00992187
0.00102107
0.00101913
0.00101911
0.00101912
0.00180715
0.00195072
0.835676
0.815696
0.821577
0.814454
0.333012
0.186324
0.210779
0.682869
0.984279
0.997706
0.833244
0.345508
0.0581535
0.00114885
0.00101911
0.00574468
0.00101908
0.00102328
0.00109576
0.88349
0.883517
0.883744
0.861517
0.370606
0.132812
0.12576
0.589215
0.960084
0.998908
0.966973
0.579861
0.191837
0.117977
0.0977735
0.348929
0.230083
0.011965
0.00110706
0.883641
0.883805
0.883642
0.839911
0.21183
0.0599109
0.176598
0.916535
0.989136
0.99921
0.997779
0.964969
0.780085
0.516926
0.511675
0.677083
0.751801
0.499289
0.0245931
0.883802
0.883526
0.88374
0.745375
0.0952821
0.0647742
0.65149
0.999861
0.99986
0.999859
0.999853
0.999806
0.999085
0.96027
0.930878
0.955366
0.986715
0.986069
0.420867
0.825386
0.860443
0.915936
0.96781
0.995539
1
1
1
1
1
1
1
1
1
1
1
1
0.999999
0.999999
0.999998
0.999997
0.999993
0.993898
1
1
1
1
1
1
1
1
1
1
1
1
1
1
1
1
1
0.999996
0.996436
0.979122
0.957032
0.941544
0.840399
1
1
1
1
1
1
1
1
1
1
1
1
1
0.998792
0.989233
0.97578
0.961821
0.922071
0.848675
0.766674
0.545376
0.176891
0.054662
1
0.999968
0.997272
0.996402
0.997582
0.999734
0.999637
0.998083
0.991635
0.981415
0.969847
0.952436
0.91737
0.855655
0.763778
0.670436
0.510099
0.363413
0.217576
0.0741402
0.0168842
0.000235793
1.27219e-05
0.87536
0.880538
0.844118
0.774948
0.679323
0.600175
0.623337
0.650803
0.642373
0.601011
0.476233
0.358141
0.28171
0.208309
0.115163
0.0371349
0.0103566
5.73787e-05
6.96548e-11
7.04814e-20
1.13661e-07
7.06823e-06
2.31166e-05
0.378169
0.230623
0.0752043
0.0311061
0.0201224
0.0189972
0.0134447
0.0160295
0.0154511
0.0115381
0.00525052
3.702e-19
-1.18192e-19
1.24433e-18
-2.38488e-19
3.20365e-20
-1.98185e-21
7.75347e-23
-2.09001e-21
2.44789e-13
9.58099e-08
4.70992e-07
1.37315e-06
-2.51202e-09
-3.55949e-10
1.78648e-27
1.50349e-22
-1.52454e-23
-2.60291e-26
1.5061e-21
-3.79292e-20
-1.47078e-20
-8.05572e-18
2.36564e-12
1.13088e-06
2.69751e-15
1.64077e-13
1.02325e-10
2.50524e-10
4.20726e-31
-1.93511e-20
6.91716e-17
1.60246e-09
3.92096e-08
6.80383e-08
5.16959e-12
-1.53929e-08
-2.974e-09
0.000128267
0.000145532
2.71146e-05
3.26928e-09
4.84674e-07
1.66885e-07
1.78631e-07
2.78015e-07
7.07816e-08
5.43358e-07
4.03962e-08
8.21337e-08
7.86552e-11
4.38913e-09
3.74924e-08
4.94801e-08
6.38387e-08
7.76562e-08
1.56003e-07
3.10687e-07
6.71956e-07
-2.7455e-08
-5.13694e-09
-2.30011e-12
7.01536e-08
1.06523e-05
1.15184e-05
7.20469e-06
1.30749e-06
1.74441e-07
2.15692e-07
5.30821e-08
3.36655e-08
1.54667e-07
5.97356e-07
3.19175e-09
1.84838e-09
4.19621e-08
5.04002e-08
8.73423e-08
2.18017e-07
2.13642e-07
1.87226e-07
7.9378e-08
-1.94443e-08
1.29798e-08
3.2898e-08
3.74242e-06
1.09002e-05
6.7859e-06
1.10319e-06
2.65242e-07
3.38387e-08
7.05913e-09
4.71757e-09
0
9.12097e-08
5.72099e-07
6.78622e-08
1.07807e-09
2.75418e-08
4.2921e-08
6.15619e-08
1.96979e-07
2.03684e-07
2.29624e-08
4.31358e-17
-1.03416e-09
3.86049e-08
5.07182e-07
1.79093e-06
2.79795e-06
2.94251e-07
1.63491e-08
7.59298e-11
5.48631e-09
5.23676e-09
2.93376e-07
6.37972e-07
1.49388e-08
1.46051e-07
6.49931e-08
1.63543e-09
5.43279e-09
8.84451e-09
1.67078e-08
5.22923e-08
6.28692e-08
1.05276e-08
7.98343e-17
1.24052e-08
5.00153e-08
1.75445e-07
1.66891e-07
7.57056e-09
8.92187e-09
4.92874e-10
2.89176e-10
3.5299e-08
1.18224e-06
2.81992e-06
3.12497e-06
1.72021e-06
1.54893e-08
2.17739e-08
2.13864e-09
3.6325e-09
7.92897e-09
7.9804e-09
1.01235e-08
1.0596e-08
6.60081e-09
2.44047e-09
2.69703e-08
1.19304e-08
5.36991e-09
4.90788e-09
7.20955e-09
5.20423e-10
2.17915e-10
1.71101e-10
1.13992e-07
1.47118e-06
2.8719e-06
3.1252e-06
3.12496e-06
3.96025e-07
-1.44288e-09
-4.76793e-10
2.65376e-08
6.57016e-08
4.69485e-08
1.19694e-08
3.93159e-09
3.18076e-09
3.1504e-09
2.67824e-08
1.22826e-08
8.37069e-09
4.73291e-09
9.77916e-10
4.6908e-10
3.14906e-10
1.98707e-10
1.49726e-08
3.636e-07
2.08592e-06
3.12495e-06
3.17498e-06
3.13301e-06
1.61724e-06
1.38252e-06
1.02168e-06
2.95061e-07
6.68753e-08
2.53e-08
7.67148e-09
3.34933e-09
3.06446e-09
2.21286e-08
9.78647e-09
9.5934e-09
7.69633e-09
1.58464e-09
4.15779e-10
3.80638e-10
2.95219e-10
2.48456e-10
3.31414e-10
1.52328e-07
2.25783e-06
3.16131e-06
3.17498e-06
3.16131e-06
3.12399e-06
1.94273e-06
3.43835e-07
1.01728e-07
3.68342e-08
1.89935e-08
9.74548e-09
8.10873e-09
1.60937e-08
5.73458e-09
5.67146e-09
4.25843e-09
2.66063e-09
1.39477e-09
7.72735e-10
6.79704e-10
7.57262e-10
4.4258e-10
1.13959e-08
4.18686e-07
1.56772e-06
2.45227e-06
1.60968e-06
1.27497e-06
8.66563e-07
3.20542e-07
9.04372e-08
3.0189e-08
2.90599e-08
2.85594e-08
2.44523e-08
1.68115e-08
3.8224e-09
3.2876e-09
3.17954e-09
2.38202e-09
1.6942e-09
1.24631e-09
1.28461e-09
1.85979e-09
2.97855e-09
5.40514e-09
4.90354e-08
3.07594e-07
2.48803e-07
1.82387e-07
1.68612e-07
1.38985e-07
1.40631e-07
7.46804e-08
2.47691e-08
2.49636e-08
2.59865e-08
2.178e-08
1.78974e-08
3.59805e-09
2.38977e-09
2.72118e-09
2.26515e-09
1.75847e-09
1.39628e-09
1.36957e-09
1.93872e-09
3.30673e-09
5.11969e-09
7.38308e-09
1.22537e-08
2.79613e-09
7.41266e-09
1.70457e-08
2.29564e-08
3.22507e-08
3.90756e-08
2.10445e-08
2.02519e-08
1.87458e-08
1.60228e-08
1.844e-08
3.90842e-09
2.21665e-09
2.56084e-09
2.23218e-09
1.78435e-09
1.40663e-09
1.07925e-09
1.1683e-09
1.80971e-09
2.92836e-09
4.18022e-09
1.81024e-09
2.54735e-09
4.33662e-09
1.21688e-08
1.51773e-08
1.50806e-08
1.02867e-08
1.17309e-08
1.12291e-08
1.16273e-08
1.04272e-08
1.85882e-08
4.223e-09
2.1841e-09
2.37652e-09
2.08571e-09
1.73241e-09
1.35819e-09
9.87003e-10
7.05446e-10
7.26639e-10
9.2585e-10
1.14529e-09
1.35411e-09
2.14586e-09
3.2262e-09
5.45299e-09
7.50738e-09
7.67183e-09
6.315e-09
5.20801e-09
5.67838e-09
6.46793e-09
6.06379e-09
1.86142e-08
4.90593e-09
2.18633e-09
2.19582e-09
1.93658e-09
1.61805e-09
1.30564e-09
9.71266e-10
6.59003e-10
4.40965e-10
3.74624e-10
4.2027e-10
6.42175e-10
1.13676e-09
1.80265e-09
2.55936e-09
3.39236e-09
3.4209e-09
2.81682e-09
2.41674e-09
2.49695e-09
3.02916e-09
3.24154e-09
1.74174e-08
6.44152e-09
2.20051e-09
2.0249e-09
1.73956e-09
1.41962e-09
1.16569e-09
9.10836e-10
6.60019e-10
4.27807e-10
2.72856e-10
2.08204e-10
2.55265e-10
4.37542e-10
7.12141e-10
1.00358e-09
1.26825e-09
1.21687e-09
1.03515e-09
9.26202e-10
9.78432e-10
1.26697e-09
1.50635e-09
1.64467e-08
7.32751e-09
2.6706e-09
1.895e-09
1.54328e-09
1.1928e-09
9.58961e-10
7.73869e-10
5.94207e-10
4.22545e-10
2.66875e-10
1.62368e-10
1.25824e-10
1.50037e-10
2.21052e-10
3.09646e-10
3.95008e-10
3.75537e-10
3.31966e-10
3.04244e-10
3.38483e-10
4.65605e-10
6.00733e-10
1.41325e-08
7.18557e-09
3.12928e-09
1.82865e-09
1.33877e-09
9.68691e-10
7.4124e-10
5.81598e-10
4.67663e-10
3.61376e-10
2.50897e-10
1.53724e-10
8.984e-11
6.78537e-11
6.9777e-11
8.53872e-11
1.04753e-10
1.06158e-10
9.83223e-11
9.30281e-11
1.05805e-10
1.48067e-10
2.00699e-10
1.24593e-08
6.71363e-09
3.24769e-09
1.72204e-09
1.13819e-09
7.53469e-10
5.40064e-10
4.14932e-10
3.28723e-10
2.64729e-10
2.01922e-10
1.38298e-10
7.63661e-11
4.72883e-11
3.22783e-11
2.8283e-11
2.87315e-11
3.03975e-11
2.99722e-11
3.00515e-11
3.3429e-11
4.29931e-11
5.69269e-11
1.04176e-08
5.90298e-09
3.08274e-09
1.54226e-09
9.30326e-10
5.64032e-10
3.70694e-10
2.71023e-10
2.11137e-10
1.6847e-10
1.34941e-10
1.01876e-10
6.48674e-11
3.71759e-11
2.16423e-11
1.39227e-11
1.07092e-11
1.03106e-11
1.03799e-11
1.04508e-11
1.09011e-11
1.28693e-11
1.54627e-11
8.92744e-09
4.94396e-09
2.63892e-09
1.29467e-09
7.24258e-10
4.08622e-10
2.35682e-10
1.64661e-10
1.21442e-10
9.6467e-11
7.76319e-11
6.08889e-11
4.38345e-11
2.78025e-11
1.50623e-11
8.55002e-12
5.26386e-12
4.23114e-12
4.06538e-12
3.97951e-12
4.11618e-12
4.34125e-12
4.58757e-12
6.72481e-09
3.8e-09
2.04652e-09
1.00172e-09
5.2378e-10
2.78329e-10
1.45298e-10
9.25853e-11
6.43559e-11
4.86626e-11
3.85713e-11
3.14459e-11
2.41421e-11
1.65411e-11
9.97463e-12
5.03643e-12
2.81255e-12
1.92506e-12
1.57709e-12
1.54694e-12
1.4811e-12
1.5008e-12
1.50668e-12
4.74675e-09
2.65182e-09
1.40972e-09
6.90651e-10
3.44678e-10
1.73808e-10
8.36105e-11
4.65315e-11
3.03872e-11
2.1709e-11
1.68101e-11
1.3282e-11
1.04283e-11
7.97513e-12
5.36003e-12
2.81866e-12
1.3137e-12
7.88935e-13
6.22877e-13
5.72028e-13
5.24637e-13
4.9735e-13
4.83158e-13
2.99877e-09
1.61954e-09
8.42644e-10
4.0942e-10
1.9694e-10
9.43556e-11
4.35031e-11
2.15618e-11
1.29159e-11
8.90245e-12
6.6349e-12
5.09966e-12
3.96983e-12
2.96453e-12
2.09679e-12
1.29388e-12
5.58209e-13
3.12228e-13
2.21848e-13
1.86593e-13
1.64769e-13
1.52905e-13
1.44723e-13
1.6518e-09
8.48693e-10
4.28663e-10
2.03372e-10
9.44535e-11
4.33067e-11
1.93502e-11
8.80241e-12
4.8328e-12
3.16604e-12
2.29267e-12
1.73549e-12
1.322e-12
1.01086e-12
7.33136e-13
4.73472e-13
2.1247e-13
1.02764e-13
6.80123e-14
5.60844e-14
4.8596e-14
4.10169e-14
3.76809e-14
7.2726e-10
3.66152e-10
1.78661e-10
8.28048e-11
3.72661e-11
1.64596e-11
7.14018e-12
3.07389e-12
1.5672e-12
9.71683e-13
6.80683e-13
5.04565e-13
3.80202e-13
2.86152e-13
2.08478e-13
1.35462e-13
6.30774e-14
2.87062e-14
1.84504e-14
1.49821e-14
1.23184e-14
1.03709e-14
8.58521e-15
2.60706e-10
1.27242e-10
6.00484e-11
2.73476e-11
1.18384e-11
5.1008e-12
2.16088e-12
9.01413e-13
4.35389e-13
2.56688e-13
1.73724e-13
1.25713e-13
9.31093e-14
6.89642e-14
4.92559e-14
3.11874e-14
1.46943e-14
6.53409e-15
4.34202e-15
3.42227e-15
2.83286e-15
2.11171e-15
1.65654e-15
7.27726e-11
3.4711e-11
1.60192e-11
7.14546e-12
3.03505e-12
1.28042e-12
5.27268e-13
2.17753e-13
1.0202e-13
5.77923e-14
3.78955e-14
2.67082e-14
1.95541e-14
1.41366e-14
9.74266e-15
5.96483e-15
2.70174e-15
1.32136e-15
8.84794e-16
6.9613e-16
5.16921e-16
4.00576e-16
2.72141e-16
1.49672e-11
7.30951e-12
3.33114e-12
1.46635e-12
6.18703e-13
2.58782e-13
1.05588e-13
4.3674e-14
2.01497e-14
1.11268e-14
7.10233e-15
4.88148e-15
3.38997e-15
2.39047e-15
1.65458e-15
9.42417e-16
4.24027e-16
2.30748e-16
1.59682e-16
1.25423e-16
9.35029e-17
6.08993e-17
3.70981e-17
2.29493e-12
1.16468e-12
5.32973e-13
2.35549e-13
1.00291e-13
4.22119e-14
1.76474e-14
7.28607e-15
3.38729e-15
1.76663e-15
1.09509e-15
7.43194e-16
5.28388e-16
3.7215e-16
2.48536e-16
1.29868e-16
6.04182e-17
3.64635e-17
2.59937e-17
1.94761e-17
1.29836e-17
7.95615e-18
4.24558e-18
1.74411e-13
1.38167e-13
6.54137e-14
2.97422e-14
1.30441e-14
5.6515e-15
2.46591e-15
1.03987e-15
4.7439e-16
2.47246e-16
1.52606e-16
1.04584e-16
7.62319e-17
5.29566e-17
3.15583e-17
1.61591e-17
8.15273e-18
5.33804e-18
3.7793e-18
2.58302e-18
1.59895e-18
7.97411e-19
4.11405e-19
1.90028e-14
1.21199e-14
6.19078e-15
2.99041e-15
1.39147e-15
6.37635e-16
2.84484e-16
1.24724e-16
5.87511e-17
3.19989e-17
1.98684e-17
1.38346e-17
9.98058e-18
6.70303e-18
3.68797e-18
1.8736e-18
1.07057e-18
7.23423e-19
4.91294e-19
3.03287e-19
1.53847e-19
7.16744e-20
2.40235e-20
1.10102e-15
7.93017e-16
4.57282e-16
2.43942e-16
1.25609e-16
6.25485e-17
2.89646e-17
1.35982e-17
6.80674e-18
3.8067e-18
2.37628e-18
1.67115e-18
1.1787e-18
7.52537e-19
4.07592e-19
2.11935e-19
1.3198e-19
8.8821e-20
5.64792e-20
3.11395e-20
1.41863e-20
4.19596e-21
7.26759e-22
3.94143e-17
1.5234e-17
1.63583e-17
1.68737e-17
1.00465e-17
5.5607e-18
2.84248e-18
1.4581e-18
7.53045e-19
4.21886e-19
2.65183e-19
1.88898e-19
1.2926e-19
7.8306e-20
4.12688e-20
2.29144e-20
1.54131e-20
1.00995e-20
5.84882e-21
2.40066e-21
9.13894e-22
1.6398e-22
9.82856e-24
6.07576e-19
7.49906e-19
9.80421e-19
8.79539e-19
6.22808e-19
3.90113e-19
2.05349e-19
9.54054e-20
5.76751e-20
3.30002e-20
2.10763e-20
1.29373e-20
8.69949e-21
6.16199e-21
3.44987e-21
2.16153e-21
1.67043e-21
1.02663e-21
5.5192e-22
2.15977e-22
4.6907e-23
3.83771e-24
1.07001e-25
2.1983e-21
9.89414e-21
4.07665e-20
4.57179e-20
4.22424e-20
3.02917e-20
1.76024e-20
1.11755e-20
6.69867e-21
3.79968e-21
2.43118e-21
1.57465e-21
1.04232e-21
6.87257e-22
4.11647e-22
2.71743e-22
1.8071e-22
1.03391e-22
4.85151e-23
1.38308e-23
2.07726e-24
9.68108e-26
1.72141e-27
0.970944
0.858338
0.777132
0.716205
0.264269
0.0632438
0.012012
0.150533
0.012021
0.00823847
0.00266409
0.0986032
1.9844e-15
0.000432632
0.00287786
0.00334888
4.2147e-05
0.000133479
0.000141758
-1.17195e-20
5.94345e-06
3.9778e-06
1.66697e-07
2.05226e-06
-1.17907e-08
-4.71563e-12
9.99175e-12
1.0942e-07
6.63214e-07
3.63723e-07
1.31724e-06
2.17958e-06
3.16226e-07
7.26101e-07
5.72539e-07
1.2741e-06
1.2778e-08
5.95704e-08
5.98029e-08
5.45488e-08
-1.83026e-13
3.78574e-13
8.66208e-14
4.48957e-11
7.7773e-10
1.84905e-10
1.78321e-10
1.99956e-10
3.01388e-09
2.09747e-09
1.05213e-09
5.52011e-10
3.07172e-09
2.79176e-09
2.06421e-09
1.43107e-09
6.87393e-09
5.8125e-09
4.44448e-09
3.55626e-09
2.24285e-08
1.71864e-08
1.34063e-08
9.83302e-09
2.00691e-08
1.73111e-08
1.36156e-08
1.18995e-08
1.46842e-08
1.36057e-08
1.12901e-08
9.16839e-09
9.72717e-09
8.89953e-09
7.49737e-09
7.23459e-09
5.80799e-09
5.21204e-09
4.9919e-09
4.38729e-09
3.16269e-09
3.05124e-09
2.73878e-09
2.69983e-09
1.62411e-09
1.54858e-09
1.52542e-09
1.446e-09
7.0961e-10
7.18384e-10
6.69767e-10
6.78982e-10
2.46703e-10
2.42419e-10
2.58478e-10
2.58464e-10
7.22391e-11
7.27861e-11
6.81318e-11
7.27377e-11
1.79596e-11
1.65726e-11
1.74227e-11
1.80987e-11
4.90439e-12
4.47343e-12
4.27587e-12
4.45733e-12
1.46224e-12
1.31337e-12
1.26816e-12
1.24304e-12
4.65215e-13
3.97151e-13
3.60101e-13
3.42972e-13
1.34205e-13
1.16184e-13
1.03678e-13
9.17234e-14
3.45157e-14
2.83731e-14
2.4325e-14
2.0796e-14
7.52468e-15
6.24115e-15
5.12269e-15
4.09578e-15
1.39166e-15
1.08519e-15
8.46939e-16
6.39213e-16
2.11941e-16
1.59916e-16
1.16797e-16
8.23092e-17
2.7084e-17
1.89321e-17
1.3436e-17
9.772e-18
2.86821e-18
1.91164e-18
1.13221e-18
3.69962e-19
1.68066e-19
6.10536e-20
1.65018e-20
2.83133e-21
2.68715e-21
4.15205e-22
4.98765e-23
4.50653e-24
6.90382e-29
3.70996e-26
2.84364e-26
8.61265e-27
6.29605e-29
2.01629e-28
6.82278e-28
2.22857e-27
6.29605e-29
2.2269e-28
7.64802e-28
2.3798e-27
5.6088e-29
1.72829e-28
5.542e-28
1.54208e-27
0.765328
0.861869
0.852938
0.639248
0.0777755
0.135993
0.863122
0.999265
0.997812
0.997726
0.998721
0.999248
0.999599
0.999836
0.999897
0.999896
0.999897
0.999694
0.61742
0.572113
0.783983
0.667588
0.0883846
4.55783e-05
0.256043
0.798177
0.852027
0.856796
0.825731
0.804982
0.808434
0.825803
0.854737
0.94196
0.999688
0.999896
0.999539
0.986493
0.213774
0.204711
0.0258574
4.98189e-05
0.000828105
0.10053
0.176381
0.16925
0.103396
0.063348
0.0497224
0.052994
0.0625037
0.080966
0.156587
0.351284
0.588068
0.805884
0.909469
1.60216e-05
4.35066e-05
0.000284035
0.000925764
0.000929573
3.74668e-09
3.02285e-21
4.64325e-09
1.76465e-24
5.05676e-09
0
5.05676e-09
5.02926e-23
1.23147e-25
-4.10448e-09
1.53973e-06
0.0109538
0.090759
0.276579
1.48075e-06
3.46447e-05
3.22218e-05
2.78167e-06
2.00853e-07
1.00597e-07
8.66283e-08
6.80082e-08
9.68901e-08
1.31207e-07
4.0024e-07
5.31752e-07
5.0587e-07
6.67799e-08
3.20253e-07
4.85436e-05
0.000114277
0.00012741
0.000165229
1.57854e-05
1.89962e-05
1.1599e-05
8.97329e-07
5.01098e-07
2.54993e-07
3.3334e-08
3.62021e-08
1.24957e-07
1.09445e-07
5.86002e-08
1.04882e-07
1.31174e-07
4.8674e-08
2.19672e-09
6.21565e-09
0.000803807
0.00307475
0.00297009
4.42837e-06
8.0167e-06
3.70855e-06
1.02916e-07
3.46103e-13
3.70184e-15
4.05051e-14
1.43274e-19
5.02016e-15
6.36347e-10
1.19153e-08
1.03096e-07
1.75984e-07
5.80401e-08
1.00729e-08
1.05091e-08
7.10292e-05
0.00103725
0.00219936
1.81522e-06
2.07512e-06
7.84829e-07
-1.83916e-15
7.35132e-15
4.05052e-14
-1.17248e-21
2.46157e-14
-2.28778e-23
-4.58826e-21
-5.33511e-14
-1.36833e-13
6.61253e-09
0.000516935
0.00443288
0.00620771
0.00573939
0.00443948
0.00375992
1.26461e-06
6.63377e-10
1.99634e-15
4.19693e-15
2.19374e-09
2.27185e-08
1.3555e-07
6.19318e-07
3.35529e-06
2.39568e-05
7.37468e-05
9.36347e-05
4.41007e-05
0.0027654
0.0111461
0.0117681
0.0117911
0.010867
0.00811333
1.98377e-08
3.12168e-11
2.16495e-11
1.33647e-08
7.9081e-08
3.63902e-07
1.62879e-06
6.89574e-06
2.53421e-05
7.56349e-05
0.00018981
0.000425843
0.000946314
0.0017916
0.00193675
0.00265958
0.00155315
0.00026889
2.53811e-06
3.28637e-10
2.54144e-09
1.3102e-08
4.6147e-08
9.6245e-08
2.28505e-07
6.0922e-07
1.36321e-06
4.03391e-06
2.30838e-05
0.000105953
0.000161559
3.8887e-05
-1.33749e-09
3.29675e-18
-3.38861e-11
2.38798e-09
7.46158e-09
2.28313e-09
2.1669e-10
2.23351e-10
1.83652e-10
1.51815e-10
7.51856e-12
6.27507e-12
7.79731e-12
7.30939e-12
1.31539e-12
4.53157e-11
2.40542e-16
-9.05756e-17
2.5032e-16
6.08152e-09
2.80342e-09
9.28739e-09
1.21173e-08
6.04288e-09
2.11407e-09
4.14443e-10
3.89249e-10
2.55733e-10
1.63863e-10
9.80646e-11
4.09049e-11
1.41556e-11
1.41559e-11
6.32077e-12
1.40829e-12
8.73681e-12
1.71556e-08
5.5703e-08
2.81334e-08
7.13426e-09
1.27538e-08
1.35899e-08
6.74128e-09
2.79979e-09
8.96197e-10
7.54493e-10
4.2845e-10
2.00107e-10
1.12777e-10
8.28556e-11
6.70983e-11
7.97261e-11
2.91149e-10
5.87412e-10
7.376e-10
2.95332e-08
8.70887e-08
5.35333e-08
7.41706e-09
1.68017e-09
6.13195e-09
4.34508e-10
2.07266e-09
2.43181e-09
1.86282e-09
7.45228e-10
2.37119e-10
9.58754e-11
7.39294e-11
7.04097e-11
1.08425e-10
3.66169e-10
8.30453e-10
1.88301e-09
1.82215e-08
6.95227e-08
2.15323e-08
5.07745e-09
4.70593e-10
4.16357e-11
4.87353e-11
1.14084e-09
6.30672e-09
3.31414e-09
8.14442e-10
2.57368e-10
8.85649e-11
7.31349e-11
8.23817e-11
1.47701e-10
3.88971e-10
6.65539e-10
2.1033e-09
1.11349e-08
1.15351e-09
7.07188e-10
6.10379e-10
1.99993e-10
4.37863e-11
6.68192e-11
1.01133e-09
8.53945e-09
3.45199e-09
7.41739e-10
2.01315e-10
1.22986e-10
8.05589e-11
1.01241e-10
1.71196e-10
3.16477e-10
5.15935e-10
1.45257e-09
3.84247e-09
1.74068e-09
1.15516e-09
3.68774e-10
1.17695e-10
2.53462e-11
5.44345e-11
5.94408e-10
8.12325e-09
3.3886e-09
8.81193e-10
2.07625e-10
1.26482e-10
9.15046e-11
1.06582e-10
1.55398e-10
2.49159e-10
4.00695e-10
7.87574e-10
2.47609e-10
7.11079e-10
9.90523e-10
4.45157e-10
5.9747e-11
7.53849e-12
3.02367e-11
3.31206e-10
6.1014e-09
3.44057e-09
1.30053e-09
4.2877e-10
1.29304e-10
1.00175e-10
1.09775e-10
1.49233e-10
2.1238e-10
3.00645e-10
3.45221e-10
2.17385e-10
6.86354e-11
1.86476e-11
6.0641e-12
2.71446e-12
3.48006e-12
1.85661e-11
1.61993e-10
4.05299e-09
2.92935e-09
1.7228e-09
8.98528e-10
3.55853e-10
1.41638e-10
1.18188e-10
1.23863e-10
1.44371e-10
1.61867e-10
1.51405e-10
1.10541e-10
5.80803e-11
2.45031e-11
4.52705e-12
1.59846e-12
2.33797e-12
9.07027e-12
5.74785e-11
2.45624e-09
2.0984e-09
1.55787e-09
1.08977e-09
6.60627e-10
3.22915e-10
1.53299e-10
9.85435e-11
8.17046e-11
7.17881e-11
6.03927e-11
4.65807e-11
2.7907e-11
1.46643e-11
2.67975e-12
9.37779e-13
9.67263e-13
4.17223e-12
2.35761e-11
1.38608e-09
1.25958e-09
1.10759e-09
8.77509e-10
6.46993e-10
4.26051e-10
2.36111e-10
1.13217e-10
5.59689e-11
3.47535e-11
2.28341e-11
1.55912e-11
7.41551e-12
2.02599e-12
5.01618e-13
2.90912e-13
4.51408e-13
1.66669e-12
5.59263e-12
6.97812e-10
6.63891e-10
5.98421e-10
5.30346e-10
4.45619e-10
3.33038e-10
2.22654e-10
1.25249e-10
5.85772e-11
2.53349e-11
1.13491e-11
5.29941e-12
2.1537e-12
6.63003e-13
1.88536e-13
1.47391e-13
1.24234e-13
1.32244e-13
1.23763e-12
2.76868e-10
2.84227e-10
2.66145e-10
2.39536e-10
2.13116e-10
1.85187e-10
1.41134e-10
9.39469e-11
5.09713e-11
2.15254e-11
7.6609e-12
2.57813e-12
8.2361e-13
2.6031e-13
9.69861e-14
4.52354e-14
1.38988e-14
2.38184e-14
4.22722e-14
8.49404e-11
9.25142e-11
8.96833e-11
8.55966e-11
7.95482e-11
7.27403e-11
6.3669e-11
4.91872e-11
3.17253e-11
1.52952e-11
5.3784e-12
1.52837e-12
3.96371e-13
1.1143e-13
3.81088e-14
9.30539e-15
2.97683e-15
2.05375e-15
3.71436e-15
2.13885e-11
2.32165e-11
2.26962e-11
2.30047e-11
2.2803e-11
2.2006e-11
2.03727e-11
1.81445e-11
1.39625e-11
7.9848e-12
3.0798e-12
8.2419e-13
1.75621e-13
3.98791e-14
1.22212e-14
1.68174e-15
8.84206e-16
8.72183e-16
6.42413e-16
4.98835e-12
5.06208e-12
4.85907e-12
4.94805e-12
5.0064e-12
5.0755e-12
5.1574e-12
5.01903e-12
4.37185e-12
2.91862e-12
1.28236e-12
3.49633e-13
6.39681e-14
1.17554e-14
1.6582e-15
3.73996e-16
4.60634e-16
5.46485e-16
2.8627e-16
1.21883e-12
1.1149e-12
1.00394e-12
9.41561e-13
9.16174e-13
9.61155e-13
1.03059e-12
1.05895e-12
9.97937e-13
7.53597e-13
3.73211e-13
1.05007e-13
1.72794e-14
2.66623e-15
2.93903e-16
1.4431e-16
2.13512e-16
3.47518e-16
1.76171e-16
3.02931e-13
2.51281e-13
2.01744e-13
1.70291e-13
1.44837e-13
1.45213e-13
1.60474e-13
1.73557e-13
1.69135e-13
1.35795e-13
7.15393e-14
2.0382e-14
2.51065e-15
3.43213e-16
7.79575e-17
5.59664e-17
9.84047e-17
1.76508e-16
1.1877e-16
7.06032e-14
5.28374e-14
4.02286e-14
2.84591e-14
1.71611e-14
1.53239e-14
1.69571e-14
1.93944e-14
1.95256e-14
1.64256e-14
8.94657e-15
1.67055e-15
1.03291e-16
1.11688e-17
1.36339e-17
1.94626e-17
4.40008e-17
1.09229e-16
7.45786e-17
1.44762e-14
9.98288e-15
7.02131e-15
3.59744e-15
1.3822e-15
7.90752e-16
9.78845e-16
1.30949e-15
1.42094e-15
1.24276e-15
4.85335e-16
6.39629e-17
1.6022e-18
5.455e-19
1.89926e-18
6.9241e-18
2.14385e-17
6.27623e-17
5.20585e-17
2.49031e-15
1.67781e-15
8.37598e-16
2.86471e-16
5.01479e-17
1.88385e-17
2.951e-17
4.72393e-17
5.50926e-17
4.89192e-17
1.65156e-17
1.40342e-18
7.1514e-20
1.8666e-19
8.45765e-19
3.39501e-18
1.24071e-17
3.99101e-17
2.68616e-17
3.70581e-16
2.03956e-16
5.75156e-17
8.71578e-18
5.93607e-19
2.16942e-19
5.53291e-19
1.16933e-18
1.42229e-18
7.84782e-19
1.63519e-19
2.21307e-20
3.1798e-20
9.96787e-20
4.21782e-19
2.42856e-18
9.51205e-18
1.86916e-17
1.63809e-17
4.77443e-17
1.30281e-17
1.62407e-18
9.20138e-20
5.07343e-21
2.71534e-21
7.96844e-21
1.99379e-20
2.36574e-20
1.46774e-20
8.94148e-21
1.42904e-20
2.62931e-20
6.90714e-20
3.08622e-19
1.81368e-18
5.3873e-18
1.0965e-17
6.88725e-18
3.49126e-18
2.97457e-19
1.15769e-20
4.45799e-22
1.22023e-22
1.35529e-22
2.95888e-22
7.43661e-22
1.45949e-21
2.83234e-21
6.22435e-21
1.29625e-20
2.37035e-20
5.90945e-20
2.70437e-19
1.24017e-18
3.18199e-18
4.59856e-18
3.7294e-18
5.88018e-20
1.94802e-21
3.88687e-23
1.25049e-23
2.16219e-23
5.51368e-23
1.52311e-22
4.08764e-22
1.04398e-21
2.53626e-21
5.83078e-21
1.20869e-20
2.20698e-20
5.37288e-20
2.15493e-19
7.71885e-19
1.58176e-18
2.35178e-18
1.28106e-18
3.01153e-22
5.14919e-24
1.65908e-24
4.38419e-24
1.42273e-23
4.40035e-23
1.26564e-22
3.41413e-22
8.77587e-22
2.13554e-21
4.86445e-21
1.00632e-20
1.84341e-20
4.26142e-20
1.47019e-19
4.63998e-19
8.65894e-19
8.23182e-19
5.58133e-19
4.4592e-25
2.67959e-25
9.23508e-25
3.39071e-24
1.1194e-23
3.38979e-23
9.79357e-23
2.61733e-22
6.70249e-22
1.62778e-21
3.69605e-21
7.63382e-21
1.39509e-20
3.07947e-20
9.60763e-20
2.53071e-19
3.60055e-19
3.46473e-19
1.49063e-19
3.37234e-26
1.66755e-25
6.80764e-25
2.40143e-24
7.77359e-24
2.33538e-23
6.59802e-23
1.76114e-22
4.48383e-22
1.08894e-21
2.46171e-21
5.02496e-21
9.19566e-21
1.97644e-20
4.7809e-20
1.3706e-19
1.51593e-19
9.87786e-20
4.86466e-20
2.56435e-26
1.1276e-25
4.17816e-25
1.38037e-24
4.26147e-24
1.24951e-23
3.55461e-23
9.59252e-23
2.44833e-22
5.97739e-22
1.36458e-21
2.81689e-21
5.21944e-21
1.1061e-20
2.3767e-20
6.36344e-20
4.90025e-20
3.07934e-20
1.91162e-20
1.52947e-26
5.73626e-26
1.9146e-25
5.94523e-25
1.80195e-24
5.34802e-24
1.53751e-23
4.25949e-23
1.11849e-22
2.82897e-22
6.62259e-22
1.3926e-21
2.58564e-21
5.35943e-21
1.07025e-20
2.4716e-20
1.4878e-20
1.09725e-20
7.07609e-21
5.0886e-27
1.59518e-26
4.81772e-26
1.37609e-25
4.47121e-25
1.45854e-24
4.48604e-24
1.30378e-23
3.60432e-23
9.35048e-23
2.23006e-22
4.80963e-22
9.10198e-22
1.88491e-21
3.60284e-21
7.30428e-21
4.36819e-21
2.89514e-21
1.16867e-21
)
;

boundaryField
{
    leftWall
    {
        type            alphaContactAngle;
        contactAngleProperties 
        {
            mercury         
            {
                theta0          90;
            }
            air             
            {
                theta0          90;
            }
            oil             
            {
                theta0          90;
            }
        }
        value           nonuniform List<scalar> 
50
(
5.23081e-11
1.37235e-10
3.19702e-10
3.35123e-10
2.821e-10
2.32661e-10
2.28121e-10
0.00982253
0.825386
1
1
1
0.87536
0.378169
-2.51202e-09
-1.53929e-08
-2.7455e-08
-1.94443e-08
-1.03416e-09
1.24052e-08
2.69703e-08
2.67824e-08
2.21286e-08
1.60937e-08
1.68115e-08
1.78974e-08
1.844e-08
1.85882e-08
1.86142e-08
1.74174e-08
1.64467e-08
1.41325e-08
1.24593e-08
1.04176e-08
8.92744e-09
6.72481e-09
4.74675e-09
2.99877e-09
1.6518e-09
7.2726e-10
2.60706e-10
7.27726e-11
1.49672e-11
2.29493e-12
1.74411e-13
1.90028e-14
1.10102e-15
3.94143e-17
6.07576e-19
2.1983e-21
)
;
    }
    rightWall
    {
        type            alphaContactAngle;
        contactAngleProperties 
        {
            mercury         
            {
                theta0          90;
            }
            air             
            {
                theta0          90;
            }
            oil             
            {
                theta0          90;
            }
        }
        value           nonuniform List<scalar> 
50
(
0.0152835
0.0154198
0.0111503
0.00195072
0.00109576
0.00110706
0.0245931
0.420867
0.61742
0.986493
0.909469
0.276579
0.000165229
0.00297009
0.00219936
0.00375992
0.00811333
2.53811e-06
2.28313e-09
2.11407e-09
2.79979e-09
2.07266e-09
1.14084e-09
1.01133e-09
5.94408e-10
3.31206e-10
1.61993e-10
5.74785e-11
2.35761e-11
5.59263e-12
1.23763e-12
4.22722e-14
3.71436e-15
6.42413e-16
2.8627e-16
1.76171e-16
1.1877e-16
7.45786e-17
5.20585e-17
2.68616e-17
1.63809e-17
6.88725e-18
3.7294e-18
1.28106e-18
5.58133e-19
1.49063e-19
4.86466e-20
1.91162e-20
7.07609e-21
1.16867e-21
)
;
    }
    lowerWall
    {
        type            alphaContactAngle;
        contactAngleProperties 
        {
            mercury         
            {
                theta0          90;
            }
            air             
            {
                theta0          90;
            }
            oil             
            {
                theta0          90;
            }
        }
        value           nonuniform List<scalar> 
62
(
5.23081e-11
8.94879e-11
1.06551e-10
1.10974e-10
1.17544e-10
1.24848e-10
1.32046e-10
1.40347e-10
1.53147e-10
1.76414e-10
1.99968e-10
2.27775e-10
2.72103e-10
3.37637e-10
4.15561e-10
5.17314e-10
6.62744e-10
9.65679e-10
1.52555e-09
2.29127e-09
2.71136e-09
2.77887e-09
2.77887e-09
2.77887e-09
2.35444e-09
1.21186e-09
8.99987e-08
0.00186115
0.502214
0.998531
0.999469
0.970944
0.858338
0.777132
0.716205
0.0105736
0.0460376
0.426973
0.653593
0.835676
0.88349
0.883641
0.883802
0.0105736
0.0107272
0.0250093
0.0591148
0.0648805
0.0499132
0.0413106
0.0153599
0.000807278
0.000793662
0.000778144
0.000796064
0.000616475
0.039384
0.124881
0.125036
0.0968792
0.0125373
0.0152835
)
;
    }
    atmosphere
    {
        type            inletOutlet;
        inletValue      uniform 0;
        value           nonuniform List<scalar> 
46
(
2.1983e-21
9.89413e-21
4.07665e-20
4.57179e-20
4.22424e-20
3.02917e-20
1.76024e-20
1.11755e-20
6.69867e-21
3.79967e-21
2.43118e-21
1.57465e-21
1.04232e-21
6.87257e-22
4.11647e-22
2.71743e-22
1.8071e-22
1.03391e-22
4.85151e-23
1.38308e-23
2.07726e-24
9.68109e-26
1.72141e-27
5.6088e-29
0
0
0
0
0
0
0
0
0
0
0
0
0
0
0
0
0
0
0
0
0
0
)
;
    }
    defaultFaces
    {
        type            empty;
    }
}

