/*--------------------------------*- C++ -*----------------------------------*\
  =========                 |
  \\      /  F ield         | OpenFOAM: The Open Source CFD Toolbox
   \\    /   O peration     | Website:  https://openfoam.org
    \\  /    A nd           | Version:  13
     \\/     M anipulation  |
\*---------------------------------------------------------------------------*/
FoamFile
{
    format      ascii;
    class       volScalarField;
    location    "2.05";
    object      epsilon;
}
// * * * * * * * * * * * * * * * * * * * * * * * * * * * * * * * * * * * * * //

dimensions      [0 2 -3 0 0 0 0];

internalField   nonuniform List<scalar> 
2268
(
0.00486079
0.0221591
0.0400619
0.0583273
0.0775691
0.0977963
0.118716
0.13984
0.160636
0.180998
0.199848
0.216556
0.230731
0.242062
0.250171
0.2544
0.253671
0.246382
0.229999
0.200675
0.1532
0.0854762
0.0136563
0.00976901
0.0172559
0.026401
0.0351079
0.0435059
0.0517666
0.059964
0.0680954
0.0761249
0.0840709
0.0915072
0.0981714
0.103921
0.108635
0.112162
0.114249
0.114475
0.112204
0.106487
0.0959588
0.0788758
0.0542185
0.0276357
0.0174668
0.0185689
0.0250188
0.0315104
0.03768
0.0436117
0.0494011
0.0550994
0.060718
0.0662358
0.0714258
0.0761329
0.0802644
0.0837438
0.0864794
0.0883238
0.0890352
0.08825
0.0854481
0.0799243
0.0708268
0.0577661
0.0504939
0.0249346
0.0205005
0.0252826
0.0307172
0.0359956
0.04106
0.0459674
0.0507642
0.0554643
0.0600376
0.0643515
0.0682997
0.0718199
0.0748663
0.0773881
0.0793022
0.0804691
0.0806834
0.0796835
0.0771901
0.0730158
0.0677175
0.0765312
0.0314288
0.0224957
0.0260373
0.0308219
0.0356514
0.0403246
0.0448432
0.0492328
0.0534996
0.0576164
0.0615023
0.0650873
0.068336
0.071232
0.07376
0.0758871
0.0775473
0.0786524
0.0791459
0.0791339
0.0791977
0.081576
0.108381
0.0367747
0.0243843
0.0269816
0.0313271
0.0359136
0.040408
0.044757
0.0489614
0.0530161
0.0569009
0.0605698
0.0639844
0.0671369
0.0700405
0.072712
0.0751583
0.0773695
0.0793484
0.0812135
0.0834453
0.0875833
0.0989053
0.151903
0.0410766
0.0261113
0.0280047
0.0320572
0.0365068
0.04093
0.0452159
0.0493437
0.0532974
0.0570685
0.0606416
0.0640066
0.0671846
0.0702175
0.0731482
0.0760132
0.078841
0.0817029
0.0848582
0.0891201
0.0970828
0.119079
0.226505
0.0445819
0.0276697
0.0290757
0.0329439
0.0373226
0.0417111
0.0459758
0.0500729
0.0539799
0.057707
0.0612641
0.0646641
0.0679592
0.0712204
0.0745118
0.077888
0.0813987
0.0851574
0.0895213
0.0955325
0.106603
0.139575
0.404045
0.0142214
0.0609339
0.123891
0.190022
0.233988
0.270293
0.300221
0.287825
0.276733
0.266492
0.250989
0.229856
0.201946
0.17774
0.153409
0.125462
0.0955552
0.0647814
0.0216799
0.0266595
0.0459056
0.069699
0.0903966
0.105142
0.118403
0.128688
0.128207
0.124213
0.11928
0.113396
0.105896
0.0973492
0.0879652
0.0773168
0.0667482
0.05642
0.0457595
0.0297263
0.050027
0.0546584
0.069496
0.0809897
0.0891449
0.0971552
0.103178
0.103304
0.099631
0.0952735
0.0905626
0.085001
0.0788544
0.0721745
0.065042
0.0578968
0.0513751
0.0454052
0.0452515
0.0750418
0.0676441
0.0768451
0.0834894
0.0885374
0.0941896
0.0981926
0.0975835
0.0932998
0.0888865
0.0842688
0.0790553
0.0733464
0.0674938
0.061573
0.0557866
0.0509592
0.0476435
0.0586816
0.0979822
0.082341
0.0858796
0.0888138
0.0918044
0.0960591
0.0986843
0.0970745
0.0926622
0.0881248
0.0832488
0.0779222
0.0721483
0.0664184
0.0609016
0.055831
0.0520259
0.0507087
0.0728856
0.122186
0.0994629
0.0957945
0.095001
0.0958946
0.0987046
0.100172
0.0977042
0.0938714
0.0896154
0.0845347
0.078835
0.0729051
0.0670495
0.061583
0.0568541
0.053706
0.0540316
0.0864599
0.178627
0.119627
0.106133
0.101505
0.100315
0.10155
0.101854
0.098874
0.0954013
0.0914868
0.0864405
0.0806877
0.0745877
0.0685444
0.0629983
0.0583227
0.0555629
0.057578
0.0981589
0.351418
0.138111
0.115664
0.107834
0.104862
0.104552
0.103547
0.10021
0.0968468
0.0932465
0.0884037
0.0827151
0.0765909
0.0704548
0.0647864
0.0600102
0.0573603
0.0605801
0.108956
0.0483095
0.0299163
0.0308385
0.0345568
0.0388696
0.043192
0.0474018
0.0514503
0.0553255
0.0590534
0.0626612
0.066212
0.0698236
0.0736086
0.0776509
0.0819996
0.0867061
0.0919147
0.0980673
0.106319
0.119858
0.14886
0.230296
0.0544451
0.0324144
0.033542
0.0371742
0.0413046
0.0454828
0.049539
0.053406
0.0571392
0.0608905
0.0648099
0.0690545
0.0737755
0.079065
0.0849242
0.0912701
0.0980461
0.105345
0.113559
0.123493
0.136874
0.156957
0.188534
0.0524497
0.035697
0.0373574
0.0407978
0.0444216
0.0480132
0.0515912
0.0551626
0.0588853
0.0630192
0.0678177
0.0734936
0.080163
0.0877959
0.0961893
0.104915
0.113643
0.122426
0.131466
0.140872
0.150862
0.16178
0.172705
0.0557653
0.0410985
0.0421555
0.0448806
0.0478066
0.0508085
0.0539902
0.057461
0.0615099
0.0665121
0.072842
0.0807418
0.0901533
0.100731
0.11175
0.122348
0.131815
0.14015
0.147384
0.153217
0.157526
0.160616
0.162501
0.0612383
0.0478086
0.0480132
0.0499083
0.0521092
0.0545426
0.0574316
0.0610368
0.0657704
0.0720991
0.0804854
0.0911284
0.103506
0.116477
0.128957
0.139653
0.147558
0.152959
0.156302
0.157763
0.157867
0.157087
0.155705
0.0678028
0.0541633
0.0542231
0.0556132
0.0572691
0.0592587
0.0620139
0.0658997
0.0714322
0.0792642
0.0897862
0.10277
0.117087
0.131142
0.143408
0.152603
0.158004
0.160139
0.160224
0.158995
0.156955
0.154509
0.151892
0.073582
0.0595686
0.060018
0.0611626
0.0625387
0.0643873
0.0672115
0.0714284
0.0777601
0.0870508
0.0993643
0.113812
0.128944
0.142848
0.154038
0.16151
0.164862
0.164843
0.162958
0.160198
0.157043
0.153829
0.150692
0.0872579
0.0668608
0.0661405
0.0666966
0.0677496
0.0695411
0.0725929
0.0773882
0.0848692
0.0959069
0.109887
0.125387
0.140463
0.153241
0.162681
0.168274
0.16994
0.168557
0.165676
0.162218
0.158613
0.155103
0.151777
0.115451
0.0773001
0.0726314
0.0720183
0.072534
0.0742566
0.0779745
0.0841809
0.0939403
0.107794
0.123675
0.139272
0.152772
0.163055
0.170636
0.174889
0.175313
0.172679
0.169086
0.165409
0.161762
0.158208
0.154849
0.146591
0.0815483
0.0744876
0.0737135
0.0747078
0.0767852
0.0805053
0.0867332
0.0961468
0.108766
0.123266
0.138111
0.152566
0.166216
0.177975
0.185003
0.18362
0.177836
0.173629
0.170126
0.166592
0.163068
0.159604
0.170427
0.0862899
0.0762247
0.0749356
0.0757674
0.0776042
0.0806687
0.0856212
0.0932298
0.103814
0.116696
0.130703
0.144963
0.159077
0.172024
0.180113
0.181979
0.180279
0.178968
0.17658
0.17306
0.169485
0.165716
0.185934
0.0899149
0.0769849
0.0748343
0.0754879
0.0773528
0.0802909
0.0846748
0.0910505
0.0996471
0.110174
0.122102
0.134767
0.147509
0.158799
0.166935
0.171596
0.174555
0.177122
0.177002
0.174872
0.172536
0.169754
0.196719
0.0923742
0.0775433
0.0744684
0.0747189
0.0764608
0.0793062
0.0833466
0.0888881
0.0960778
0.104683
0.114435
0.125003
0.135795
0.145617
0.152811
0.157533
0.161211
0.164376
0.166006
0.166656
0.166817
0.165551
0.200944
0.093015
0.0772688
0.0735878
0.0734773
0.0750375
0.0777525
0.0815492
0.0865552
0.0928499
0.100228
0.108406
0.11706
0.125807
0.13389
0.140213
0.144687
0.148306
0.151289
0.153348
0.154663
0.155537
0.155534
0.198749
0.0918697
0.0760276
0.0720718
0.0717338
0.073121
0.0756732
0.0792525
0.0838883
0.0896014
0.0962091
0.10337
0.110735
0.117987
0.124617
0.12998
0.133941
0.13702
0.139541
0.141418
0.142736
0.14371
0.144187
0.191909
0.08925
0.0738924
0.069959
0.0695358
0.0707952
0.0731771
0.0765225
0.0808177
0.0860463
0.0920503
0.0985136
0.105081
0.111402
0.11708
0.12171
0.125158
0.127707
0.129671
0.131125
0.132144
0.132891
0.133312
0.182284
0.0855685
0.0710986
0.0673857
0.0669745
0.0681438
0.0703576
0.0734497
0.0773852
0.0821331
0.0875656
0.0934273
0.0994034
0.105129
0.110239
0.114434
0.117593
0.11985
0.12145
0.122542
0.123227
0.123649
0.123819
0.172041
0.0814447
0.0679427
0.0645079
0.0641506
0.065252
0.0673006
0.0701285
0.0736883
0.0779459
0.0828047
0.0880733
0.0934993
0.0987491
0.103481
0.107435
0.110488
0.112684
0.114177
0.115118
0.115623
0.115827
0.115803
0.161964
0.077223
0.0646136
0.0614478
0.0611543
0.0622001
0.0640918
0.0666588
0.0698453
0.0736177
0.0779064
0.0825761
0.0874392
0.0922205
0.0966181
0.100396
0.103422
0.105679
0.107247
0.108237
0.108756
0.108929
0.108874
0.151719
0.0729285
0.0611908
0.0582845
0.0580571
0.0590568
0.0608062
0.0631309
0.0659678
0.0692839
0.0730296
0.0771136
0.0814056
0.0856936
0.0897309
0.0933093
0.0962943
0.0986323
0.100345
0.1015
0.102174
0.102474
0.102541
0.141281
0.0685654
0.0577139
0.0550678
0.0549107
0.0558758
0.0575026
0.0596145
0.0621417
0.0650505
0.0683046
0.0718441
0.0755836
0.0793672
0.0830072
0.0863314
0.0892143
0.0915842
0.093425
0.0947659
0.0956514
0.0961629
0.0964392
0.13072
0.0641447
0.0542049
0.0518285
0.0517502
0.0526948
0.0542225
0.0561568
0.0584231
0.0609857
0.0638159
0.066875
0.0701095
0.073407
0.076634
0.0796576
0.0823702
0.0846968
0.0866014
0.0880853
0.089165
0.0898937
0.0903959
0.120097
0.0596779
0.0506779
0.0485864
0.0485995
0.0495401
0.0509936
0.0527873
0.0548437
0.0571248
0.0596061
0.0622628
0.065057
0.067915
0.0707436
0.0734473
0.07594
0.0781539
0.080046
0.0816005
0.0828138
0.0837149
0.084405
0.109481
0.0551815
0.0471478
0.0453595
0.0454788
0.0464328
0.0478369
0.0495255
0.0514203
0.0534821
0.0556883
0.0580219
0.0604515
0.0629325
0.0654025
0.0677956
0.0700475
0.0721019
0.0739172
0.07547
0.0767443
0.0777509
0.0785673
0.09896
0.0506898
0.0436412
0.0421725
0.0424126
0.043397
0.0447744
0.0463895
0.0481659
0.0500639
0.0520626
0.0541429
0.056285
0.0584582
0.0606239
0.062738
0.0647543
0.0666294
0.0683272
0.0698228
0.0710948
0.0721421
0.0730201
0.0886936
0.0462759
0.0402081
0.0390662
0.0394375
0.040466
0.0418361
0.0434044
0.0450993
0.0468795
0.048723
0.0506138
0.0525355
0.0544688
0.0563893
0.0582679
0.0600726
0.0617714
0.0633353
0.0647413
0.0659673
0.0670055
0.0678944
0.0791315
0.0421093
0.0369366
0.0361044
0.0366076
0.0376891
0.0390662
0.0406083
0.0422471
0.0439436
0.0456751
0.0474266
0.0491853
0.0509379
0.0526685
0.0543579
0.0559846
0.0575255
0.0589582
0.0602632
0.0614201
0.0624188
0.0632839
0.0709555
0.0383608
0.0339292
0.0333676
0.0339937
0.0351299
0.0365216
0.0380495
0.0396502
0.041287
0.0429378
0.0445884
0.046228
0.047847
0.0494343
0.0509774
0.0524613
0.0538697
0.0551855
0.0563932
0.057475
0.0584205
0.0592451
0.0639882
0.0350647
0.0312622
0.0309382
0.0316766
0.0328651
0.0342733
0.0357925
0.0373645
0.0389556
0.0405452
0.0421202
0.0436712
0.0451906
0.0466705
0.0481021
0.0494749
0.050777
0.0519956
0.053118
0.0541297
0.0550209
0.0558
0.0584052
0.0323346
0.029044
0.0289192
0.0297524
0.0309837
0.0324024
0.0339099
0.0354537
0.0370033
0.0385402
0.0400528
0.0415332
0.042975
0.0443723
0.0457183
0.0470054
0.0482245
0.0493656
0.0504184
0.0513709
0.052214
0.0529521
0.054456
0.0303314
0.0274064
0.0274266
0.028325
0.0295784
0.0309917
0.0324748
0.0339809
0.0354833
0.0369662
0.0384196
0.0398369
0.0412128
0.0425425
0.0438206
0.0450409
0.0461959
0.0472775
0.0482768
0.0491835
0.0499894
0.0506954
0.0523398
0.0292145
0.0264825
0.0265752
0.0274939
0.0287352
0.0301147
0.0315498
0.032999
0.0344396
0.0358585
0.0372476
0.0386014
0.0399154
0.0411853
0.0424066
0.0435737
0.04468
0.0457181
0.0466798
0.0475558
0.0483383
0.0490261
0.0521532
0.0291156
0.0263891
0.0264651
0.0273427
0.0285226
0.0298266
0.0311785
0.032542
0.0338981
0.0352363
0.0365499
0.0378341
0.039085
0.0402986
0.0414704
0.042595
0.0436659
0.0446758
0.0456168
0.0464798
0.0472568
0.0479445
0.0539073
0.0301327
0.0272232
0.0271785
0.0279351
0.0289861
0.0301574
0.0313788
0.0326185
0.0338606
0.0350961
0.036319
0.0375246
0.0387088
0.0398675
0.0409957
0.0420878
0.0431371
0.0441358
0.045076
0.0459485
0.0467446
0.0474592
0.0575741
0.0323567
0.0290773
0.0287875
0.0293171
0.0301474
0.0311095
0.032139
0.0332076
0.0343004
0.0354079
0.0365231
0.0376402
0.0387539
0.0398592
0.0409505
0.0420215
0.0430651
0.0440735
0.0450384
0.0459512
0.0468022
0.0475837
0.0631668
0.0359185
0.0320753
0.0313752
0.0315261
0.0320061
0.0326557
0.0334153
0.0342563
0.0351601
0.036113
0.0371037
0.0381232
0.0391639
0.0402191
0.041282
0.0423459
0.0434034
0.0444471
0.0454704
0.0464665
0.0474264
0.0483378
0.0708446
0.0411028
0.0364504
0.0350758
0.0346052
0.0345406
0.0347359
0.035128
0.0356767
0.0363503
0.0371231
0.0379751
0.0388908
0.0398585
0.0408689
0.0419142
0.0429869
0.0440807
0.0451909
0.0463157
0.0474551
0.0486054
0.0497489
0.0812557
0.0486603
0.0427276
0.0401451
0.0386164
0.0377027
0.0372493
0.0371565
0.0373446
0.0377494
0.038322
0.0390261
0.0398361
0.040734
0.0417072
0.0427463
0.0438442
0.0449974
0.0462077
0.0474858
0.0488501
0.050315
0.0518614
0.0967997
0.0607937
0.0521294
0.0470517
0.0436275
0.0413887
0.040035
0.0393306
0.0390974
0.039207
0.0395701
0.040126
0.0408343
0.041669
0.0426132
0.0436562
0.0447925
0.0460239
0.0473651
0.0488521
0.0505466
0.0525169
0.0547649
0.128375
0.0841948
0.067271
0.0564432
0.0495826
0.0453554
0.042834
0.0414195
0.0407368
0.0405507
0.0407138
0.0411333
0.0417515
0.0425328
0.043456
0.0445092
0.0456895
0.0470069
0.0484964
0.0502392
0.0523868
0.0551585
0.0586917
0.250099
0.138751
0.0921318
0.0683659
0.0558761
0.0490564
0.0452423
0.0431285
0.0420383
0.0415996
0.0415989
0.0419103
0.0424587
0.0432
0.0441089
0.0451728
0.0463916
0.0477849
0.0494133
0.0514231
0.0541332
0.0581794
0.0644827
1.10662
0.24736
0.123554
0.0793039
0.0605799
0.0514938
0.046712
0.0441256
0.0427778
0.0421865
0.0420898
0.0423389
0.0428477
0.0435664
0.0444673
0.0455373
0.0467782
0.0482164
0.0499333
0.0521406
0.0553947
0.0613789
0.076546
0.507001
0.436541
0.472773
0.610329
0.223841
0.227489
0.225691
0.215768
0.179261
0.180093
0.177302
0.170988
0.162703
0.161932
0.159733
0.156191
0.15409
0.152731
0.150814
0.148348
0.149593
0.147974
0.14613
0.144061
0.148109
0.146384
0.14456
0.142647
0.149151
0.147421
0.145624
0.143784
0.15231
0.150655
0.148931
0.147159
0.157019
0.155464
0.153976
0.152411
0.16267
0.161026
0.159764
0.158495
0.167205
0.165335
0.163742
0.162508
0.164018
0.163072
0.162277
0.161632
0.155276
0.155163
0.155064
0.154902
0.144437
0.144617
0.14479
0.144869
0.133551
0.133692
0.133828
0.133896
0.123862
0.123841
0.123815
0.12375
0.115674
0.115506
0.115328
0.115129
0.108687
0.108453
0.108199
0.107929
0.102413
0.102198
0.10195
0.101684
0.0964437
0.0963068
0.0961254
0.0959191
0.0905564
0.0905214
0.090435
0.0903176
0.0847071
0.0847719
0.0847817
0.0847573
0.078974
0.0791195
0.0792116
0.0792677
0.0734913
0.0736936
0.0738453
0.0739621
0.0683935
0.0686291
0.0688192
0.0689756
0.0637859
0.0640371
0.0642474
0.0644266
0.0597339
0.0599888
0.0602076
0.0603971
0.0562696
0.0565221
0.0567415
0.0569343
0.0534019
0.0536497
0.0538677
0.0540607
0.0511303
0.0513753
0.051593
0.0517864
0.0494545
0.0497006
0.0499211
0.0501179
0.0483794
0.0486338
0.0488634
0.0490697
0.0479193
0.0481931
0.048443
0.0486693
0.0480991
0.0484115
0.0486999
0.0489635
0.0489577
0.0493397
0.0496964
0.0500253
0.0505552
0.0510585
0.051532
0.05197
0.0529935
0.0537044
0.0543728
0.0549866
0.0564694
0.0575341
0.0585196
0.0594025
0.0614159
0.0630793
0.0645567
0.0658098
0.0689599
0.0715679
0.0736809
0.0752873
0.0827093
0.0861061
0.0882983
0.0896146
0.216059
0.147497
0.127094
0.116756
0.111689
0.109262
0.106202
0.102121
0.0988685
0.0956923
0.0913233
0.0859196
0.0798062
0.0735659
0.0677207
0.062744
0.0601878
0.0645873
0.114587
0.174533
0.148132
0.134273
0.125247
0.119473
0.115169
0.110082
0.105025
0.101529
0.0984655
0.0945926
0.0896545
0.0838
0.0774857
0.0712751
0.0659265
0.063339
0.0682533
0.11064
0.158151
0.145189
0.136296
0.129436
0.124106
0.119243
0.11356
0.108007
0.104017
0.100798
0.0972445
0.0927854
0.0873316
0.081173
0.0747748
0.0691283
0.06643
0.0709357
0.105018
0.14983
0.141698
0.135245
0.129933
0.125404
0.120888
0.115558
0.110118
0.105812
0.102336
0.0988991
0.0949059
0.090127
0.0846489
0.0787052
0.0731049
0.0698185
0.0720065
0.097179
0.144208
0.138326
0.133218
0.128827
0.124819
0.120685
0.116003
0.111157
0.106934
0.103338
0.0999427
0.0963281
0.0922685
0.0877516
0.0828961
0.0781767
0.0744894
0.0734226
0.0888802
0.140797
0.13608
0.131751
0.127862
0.124185
0.120414
0.116353
0.112172
0.108278
0.104785
0.10151
0.0982184
0.0947541
0.0910804
0.0872538
0.0834472
0.0797454
0.0755456
0.0811077
0.139741
0.135605
0.131727
0.128142
0.1247
0.121244
0.117677
0.11405
0.110547
0.107259
0.104131
0.101063
0.0979663
0.0947721
0.091378
0.087599
0.0829885
0.0765738
0.0747719
0.141032
0.137175
0.133527
0.130111
0.126833
0.12361
0.1204
0.117197
0.114058
0.111009
0.10802
0.105086
0.102173
0.0991298
0.0956813
0.0913746
0.0856308
0.077927
0.0766745
0.144498
0.140723
0.137116
0.133732
0.130522
0.127423
0.124423
0.12152
0.118723
0.115951
0.113113
0.110309
0.107654
0.104948
0.10183
0.0980054
0.0932024
0.0869853
0.0943572
0.149909
0.145971
0.142171
0.138653
0.135359
0.132178
0.129181
0.126436
0.123996
0.121605
0.118931
0.116267
0.114138
0.112178
0.109577
0.106892
0.105286
0.103086
0.127008
0.156165
0.152096
0.147864
0.143957
0.140305
0.136689
0.133481
0.13101
0.129225
0.12711
0.123847
0.120419
0.118405
0.117206
0.114933
0.111167
0.109856
0.113696
0.163647
0.160861
0.15789
0.153346
0.149083
0.145079
0.140904
0.137096
0.134032
0.132055
0.130021
0.12614
0.120609
0.115976
0.113062
0.110304
0.10614
0.103269
0.108228
0.187482
0.160277
0.157488
0.153989
0.149729
0.145305
0.141131
0.136777
0.132825
0.13013
0.127947
0.124083
0.117533
0.111036
0.106158
0.101953
0.0980922
0.0965731
0.106256
0.199983
0.154125
0.152072
0.14903
0.145216
0.14094
0.136506
0.13203
0.127896
0.124702
0.122055
0.118214
0.111991
0.105266
0.0997903
0.0953931
0.0920948
0.0921641
0.104848
0.206926
0.144409
0.142814
0.140406
0.137097
0.133187
0.12904
0.124838
0.120947
0.117764
0.114899
0.111031
0.105461
0.0994865
0.0943687
0.0902449
0.0874888
0.0885521
0.103173
0.213761
0.133508
0.132149
0.130143
0.127433
0.124163
0.120595
0.116951
0.113517
0.110527
0.107596
0.103891
0.0991664
0.0941745
0.0897377
0.086102
0.0838871
0.085645
0.101374
0.218766
0.123271
0.122004
0.120263
0.118032
0.115379
0.112465
0.10946
0.106547
0.103797
0.100957
0.0975864
0.0936129
0.0895029
0.085724
0.0825711
0.0807918
0.0828959
0.0988882
0.21888
0.114542
0.113325
0.111762
0.109878
0.107711
0.105349
0.102894
0.100429
0.0979549
0.0953089
0.0922795
0.0888916
0.0854119
0.082126
0.0793303
0.0777851
0.0798912
0.0953657
0.213575
0.107305
0.106172
0.104763
0.103135
0.101318
0.0993573
0.0973005
0.0951721
0.0929394
0.0905008
0.087769
0.0847859
0.0817143
0.0787421
0.0761425
0.0746407
0.0764709
0.0908385
0.203736
0.10112
0.100134
0.0988905
0.0974732
0.0959105
0.0942272
0.0924396
0.0905418
0.0884943
0.0862346
0.083726
0.0810082
0.0781827
0.0753829
0.0728546
0.0712632
0.0726545
0.0855796
0.19084
0.095487
0.0947017
0.093647
0.0924235
0.0910625
0.0895794
0.0879767
0.0862381
0.084328
0.0822065
0.0798575
0.0773099
0.0746293
0.0719174
0.0693938
0.0676617
0.0685775
0.0799828
0.176535
0.0900523
0.0894907
0.0886368
0.0876012
0.0864165
0.0850943
0.0836327
0.082015
0.0802132
0.0782011
0.0759704
0.0735405
0.0709564
0.0683018
0.0657761
0.0639274
0.0644419
0.0744692
0.162327
0.0846571
0.0843103
0.0836525
0.0827966
0.0817741
0.0805943
0.0792552
0.077743
0.0760378
0.0741223
0.0719922
0.0696617
0.0671657
0.0645795
0.06209
0.0602033
0.0604619
0.0693952
0.149385
0.079307
0.0791434
0.0786614
0.0779695
0.0770962
0.0760483
0.074824
0.0734138
0.0718043
0.0699852
0.0679559
0.0657292
0.0633379
0.0608559
0.0584647
0.0566413
0.0568165
0.0649983
0.138368
0.0741047
0.0740812
0.0737443
0.0731963
0.0724566
0.0715302
0.0704159
0.0691077
0.0675977
0.0658814
0.0639622
0.0618553
0.0595958
0.0572611
0.0550327
0.05337
0.0536188
0.0613698
0.12949
0.0691857
0.0692593
0.0690369
0.0686079
0.0679836
0.0671665
0.0661563
0.0649494
0.0635426
0.0619364
0.0601385
0.0581685
0.0560664
0.0539156
0.0519007
0.05047
0.0509074
0.0584769
0.122571
0.0646752
0.0648113
0.0646752
0.0643399
0.0638116
0.0630906
0.0621766
0.0610681
0.0597655
0.0582736
0.0566045
0.0547829
0.0528544
0.0509085
0.0491341
0.0479725
0.0486588
0.0562032
0.117263
0.0606638
0.0608379
0.0607651
0.0605026
0.0600529
0.0594147
0.0585878
0.0575723
0.0563713
0.054993
0.0534538
0.0517825
0.0500302
0.0482918
0.0467591
0.045867
0.046812
0.054402
0.113132
0.0572076
0.0574034
0.0573785
0.0571728
0.0567874
0.0562203
0.0554711
0.0545413
0.0534358
0.0521656
0.0507498
0.049221
0.047634
0.0460875
0.0447746
0.0441235
0.0452968
0.0529378
0.109827
0.0543363
0.0545468
0.0545584
0.0543987
0.0540672
0.0535615
0.0528815
0.0520291
0.0510107
0.0498388
0.0485344
0.0471321
0.045689
0.0443053
0.0431733
0.0427134
0.0440584
0.0517143
0.107069
0.0520636
0.0522888
0.0523316
0.0522116
0.0519274
0.0514765
0.0508585
0.0500758
0.0491353
0.04805
0.0468418
0.0455458
0.0442193
0.0429618
0.0419624
0.0416329
0.0430787
0.0506929
0.104757
0.0504021
0.0506464
0.0507209
0.0506394
0.0504
0.0500001
0.0494395
0.0487204
0.0478499
0.0468406
0.0457141
0.0445045
0.0432676
0.0420999
0.0411849
0.040923
0.0423955
0.0499067
0.10291
0.0493713
0.0496449
0.0497574
0.0497181
0.049525
0.0491762
0.0486715
0.0480134
0.0472082
0.0462681
0.0452135
0.0440765
0.04291
0.0418051
0.040937
0.0406923
0.0421278
0.0494898
0.101804
0.0490052
0.0493268
0.0494902
0.0495016
0.0493607
0.0490667
0.0486204
0.0480246
0.0472854
0.0464144
0.0454304
0.0443637
0.0432638
0.0422158
0.0413845
0.0411386
0.04251
0.0497232
0.101945
0.0493607
0.0497594
0.0499939
0.0500698
0.0499906
0.0497587
0.0493771
0.0488499
0.0481836
0.0473896
0.0464864
0.0455036
0.0444894
0.0435257
0.0427687
0.0425696
0.0439349
0.0511158
0.104301
0.0505264
0.0510449
0.0513781
0.0515362
0.0515305
0.0513702
0.0510626
0.0506144
0.0500337
0.049333
0.0485325
0.0476645
0.0467819
0.045973
0.0453987
0.0454071
0.0469941
0.0545054
0.110355
0.0526394
0.0533348
0.0537988
0.0540567
0.0541354
0.0540555
0.0538317
0.0534749
0.0529961
0.0524106
0.051743
0.051034
0.0503519
0.0498111
0.0496124
0.0501545
0.052493
0.0612028
0.122552
0.0559152
0.0568519
0.0574733
0.0578398
0.0580061
0.0580103
0.0578767
0.0576218
0.0572604
0.0568116
0.0563072
0.0558022
0.0553935
0.055253
0.0556879
0.0572813
0.0613838
0.0731865
0.145033
0.0606991
0.0619209
0.0626967
0.0631565
0.0633966
0.0634766
0.063431
0.0632813
0.0630452
0.0627458
0.062422
0.062145
0.0620503
0.0623971
0.0636907
0.0669504
0.0744562
0.0934344
0.18676
0.0675427
0.0689988
0.0698542
0.0703474
0.0706203
0.0707495
0.070775
0.0707199
0.0706024
0.0704462
0.0702927
0.0702227
0.0704001
0.0711698
0.0732875
0.0785099
0.0913351
0.125956
0.273119
0.0772724
0.0786753
0.0794151
0.0798232
0.0800557
0.0801849
0.080245
0.0802542
0.0802265
0.0801807
0.080151
0.0802069
0.0804987
0.0813728
0.0836943
0.0898744
0.107839
0.171709
0.505177
0.0909047
0.0915955
0.0919085
0.0920724
0.092168
0.0922268
0.092262
0.0922807
0.0922883
0.0922926
0.092308
0.0923647
0.0925299
0.0929712
0.0941679
0.0977911
0.111553
0.194129
1.46238
)
;

boundaryField
{
    leftWall
    {
        type            epsilonWallFunction;
        value           nonuniform List<scalar> 
50
(
0.00486079
0.00976901
0.0174668
0.0249346
0.0314288
0.0367747
0.0410766
0.0445819
0.0483095
0.0544451
0.0524497
0.0557653
0.0612383
0.0678028
0.073582
0.0872579
0.115451
0.146591
0.170427
0.185934
0.196719
0.200944
0.198749
0.191909
0.182284
0.172041
0.161964
0.151719
0.141281
0.13072
0.120097
0.109481
0.09896
0.0886936
0.0791315
0.0709555
0.0639882
0.0584052
0.054456
0.0523398
0.0521532
0.0539073
0.0575741
0.0631668
0.0708446
0.0812557
0.0967997
0.128375
0.250099
1.10662
)
;
    }
    rightWall
    {
        type            epsilonWallFunction;
        value           nonuniform List<scalar> 
50
(
0.0216799
0.0297263
0.0452515
0.0586816
0.0728856
0.0864599
0.0981589
0.108956
0.114587
0.11064
0.105018
0.097179
0.0888802
0.0811077
0.0747719
0.0766745
0.0943572
0.127008
0.163647
0.187482
0.199983
0.206926
0.213761
0.218766
0.21888
0.213575
0.203736
0.19084
0.176535
0.162327
0.149385
0.138368
0.12949
0.122571
0.117263
0.113132
0.109827
0.107069
0.104757
0.10291
0.101804
0.101945
0.104301
0.110355
0.122552
0.145033
0.18676
0.273119
0.505177
1.46238
)
;
    }
    lowerWall
    {
        type            epsilonWallFunction;
        value           nonuniform List<scalar> 
62
(
0.00486079
0.0221591
0.0400619
0.0583273
0.0775691
0.0977963
0.118716
0.13984
0.160636
0.180998
0.199848
0.216556
0.230731
0.242062
0.250171
0.2544
0.253671
0.246382
0.229999
0.200675
0.1532
0.0854762
0.0136563
0.0136563
0.0276357
0.0504939
0.0765312
0.108381
0.151903
0.226505
0.404045
0.507001
0.436541
0.472773
0.610329
0.0142214
0.0266595
0.050027
0.0750418
0.0979822
0.122186
0.178627
0.351418
0.0142214
0.0609339
0.123891
0.190022
0.233988
0.270293
0.300221
0.287825
0.276733
0.266492
0.250989
0.229856
0.201946
0.17774
0.153409
0.125462
0.0955552
0.0647814
0.0216799
)
;
    }
    atmosphere
    {
        type            inletOutlet;
        inletValue      uniform 0.1;
        value           nonuniform List<scalar> 
46
(
0.1
0.1
0.123554
0.0793039
0.0605799
0.0514938
0.046712
0.0441256
0.0427778
0.0421865
0.0420898
0.0423389
0.0428477
0.0435664
0.0444673
0.0455373
0.0467782
0.0482164
0.0499333
0.0521406
0.0553947
0.0613789
0.1
0.1
0.1
0.1
0.1
0.1
0.1
0.1
0.1
0.1
0.1
0.1
0.1
0.1
0.1
0.1
0.1
0.1
0.1
0.1
0.1
0.1
0.1
0.1
)
;
    }
    defaultFaces
    {
        type            empty;
    }
}


// ************************************************************************* //
