/*--------------------------------*- C++ -*----------------------------------*\
  =========                 |
  \\      /  F ield         | OpenFOAM: The Open Source CFD Toolbox
   \\    /   O peration     | Website:  https://openfoam.org
    \\  /    A nd           | Version:  13
     \\/     M anipulation  |
\*---------------------------------------------------------------------------*/
FoamFile
{
    format      ascii;
    class       volScalarField;
    location    "2.05";
    object      nut;
}
// * * * * * * * * * * * * * * * * * * * * * * * * * * * * * * * * * * * * * //

dimensions      [0 2 -1 0 0 0 0];

internalField   nonuniform List<scalar> 
2268
(
2.22879e-05
3.59964e-05
4.38239e-05
4.98255e-05
5.4905e-05
5.94319e-05
6.34957e-05
6.71165e-05
7.0297e-05
7.30629e-05
7.55198e-05
7.75976e-05
7.93006e-05
8.06288e-05
8.15629e-05
8.20444e-05
8.19758e-05
8.11825e-05
7.93406e-05
7.58274e-05
6.94052e-05
5.73201e-05
3.11797e-05
7.55387e-05
0.000272877
0.000352247
0.000418214
0.000480601
0.0005398
0.000594991
0.00064498
0.000688471
0.000723533
0.000753614
0.000779816
0.000802102
0.000820203
0.000833555
0.00084111
0.000841214
0.000831001
0.000805358
0.000755053
0.000662953
0.000489944
0.000106797
9.09076e-05
0.000474305
0.000659283
0.000802069
0.000934724
0.00106061
0.00117842
0.00128582
0.00138047
0.00146049
0.00153019
0.00159099
0.00164276
0.00168473
0.00171525
0.0017313
0.00172817
0.00169796
0.00162717
0.0014922
0.00125163
0.000831341
0.000130406
0.000102121
0.000625416
0.000917176
0.00113293
0.00132828
0.0015124
0.00168497
0.00184348
0.00198532
0.00210914
0.00221844
0.00231475
0.00239742
0.00246477
0.00251349
0.00253795
0.00252954
0.00247459
0.0023508
0.00212082
0.00172339
0.00106845
0.000149725
0.000110043
0.000740111
0.00113107
0.00141385
0.00166364
0.00189684
0.00211536
0.00231741
0.00250074
0.0026645
0.00281115
0.00294199
0.00305557
0.00314883
0.00321627
0.00324928
0.00323521
0.00315502
0.00297895
0.00265877
0.0021182
0.00125898
0.00016801
0.000115723
0.000827879
0.0013068
0.00165042
0.00194781
0.00222255
0.00247959
0.00271858
0.00293809
0.00313779
0.00331939
0.00348355
0.00362775
0.00374714
0.00383365
0.00387563
0.00385673
0.00375376
0.00353188
0.00313565
0.00247686
0.00144311
0.00018764
0.000120166
0.000894941
0.00144981
0.00184838
0.00218748
0.00249804
0.00278781
0.00305846
0.00330978
0.00354209
0.0037567
0.00395321
0.0041278
0.0042734
0.00437914
0.00443052
0.00440828
0.00428674
0.00402888
0.00357636
0.00283208
0.00165335
0.000213453
0.000123551
0.000944617
0.00156498
0.00201276
0.00238931
0.00273082
0.003049
0.00334738
0.00362728
0.00388984
0.00413614
0.00436449
0.00456934
0.00474101
0.0048658
0.00492664
0.0049025
0.00476698
0.00448378
0.00399642
0.00320565
0.00191906
0.00025825
3.11693e-05
5.28379e-05
6.74363e-05
7.78235e-05
8.33138e-05
8.65637e-05
8.87931e-05
8.74289e-05
8.58434e-05
8.45265e-05
8.24076e-05
7.98733e-05
7.61613e-05
7.2701e-05
6.93015e-05
6.48857e-05
5.90723e-05
5.13404e-05
3.59575e-05
0.000121262
0.000444994
0.000666405
0.000813285
0.000884958
0.000915234
0.00092868
0.000922251
0.000890786
0.00085726
0.000817879
0.000781596
0.000726954
0.000680131
0.000643258
0.000578798
0.000484266
0.000354655
0.000124427
0.00014988
0.000785079
0.00125576
0.00157849
0.00175473
0.00184385
0.00188705
0.00187109
0.00180462
0.00173076
0.0016461
0.00156261
0.00145606
0.00135033
0.00124014
0.00109547
0.000897251
0.000622657
0.000142365
0.000172758
0.00106402
0.00173545
0.00219538
0.00246508
0.00261366
0.00268704
0.00266968
0.00257989
0.00247435
0.00235478
0.00222869
0.00208
0.0019185
0.00173898
0.00152046
0.00122965
0.000822435
0.000153809
0.000188901
0.00130408
0.00214966
0.00271386
0.00305241
0.00324586
0.00334023
0.00332253
0.00322002
0.00309132
0.00294501
0.00278303
0.00259754
0.00238858
0.00215025
0.00186872
0.0014978
0.000971876
0.000164754
0.000203375
0.0015235
0.00253165
0.00317408
0.003558
0.00377823
0.00388204
0.00386059
0.00374923
0.00360296
0.00343372
0.00323965
0.00302295
0.00277503
0.00248858
0.00215235
0.00171206
0.00108428
0.000175004
0.000230319
0.0017431
0.00290748
0.00360073
0.00400942
0.00424059
0.00434262
0.00431275
0.00419113
0.0040288
0.00383874
0.00361909
0.0033715
0.0030898
0.00276389
0.00237905
0.0018792
0.00117172
0.000182451
0.000287965
0.00207398
0.00330479
0.00400966
0.00442299
0.00465094
0.0047415
0.00469802
0.00456417
0.0043856
0.00417542
0.00393248
0.00365676
0.00334362
0.00298272
0.00255489
0.00200308
0.00123049
0.000190532
0.000127741
0.000999399
0.00170751
0.00222415
0.00265451
0.00303978
0.00339755
0.00373532
0.00405715
0.00436537
0.00466001
0.00493689
0.00518782
0.00539852
0.005551
0.00562501
0.0055987
0.00544763
0.00514062
0.00463206
0.00385299
0.00271881
0.00130681
0.000135972
0.00107614
0.00182533
0.00239398
0.00287718
0.0033155
0.00372484
0.00411567
0.00449492
0.0048662
0.00522788
0.00557254
0.00588522
0.00614489
0.00632911
0.00641727
0.00639119
0.00623468
0.00592962
0.00545393
0.00478649
0.00392538
0.00295641
0.000133057
0.00105212
0.00183389
0.00245665
0.00299415
0.0034845
0.00394792
0.00439692
0.00484075
0.00528304
0.0057187
0.00613345
0.00650376
0.00680312
0.00700872
0.00710417
0.00707961
0.0069284
0.00664646
0.00623267
0.00569662
0.00507964
0.00448511
0.000133561
0.000972445
0.0017654
0.00243584
0.00302923
0.00357756
0.00410229
0.00461823
0.00513629
0.00565794
0.00617155
0.00665328
0.00707154
0.00739799
0.00761437
0.00771322
0.00769073
0.00754916
0.00729649
0.00694736
0.00653075
0.00610085
0.00574577
0.000136992
0.000905787
0.00169965
0.00240538
0.00304773
0.00365145
0.00423792
0.00482367
0.00541864
0.00601917
0.0066045
0.00714126
0.00759139
0.00792974
0.00814828
0.0082451
0.0082223
0.00809152
0.00787145
0.00758763
0.00727655
0.00698699
0.00677771
0.000141672
0.000909894
0.00169798
0.00242662
0.00310702
0.00375707
0.00439802
0.00504638
0.00570893
0.00637631
0.00701791
0.00758652
0.00804795
0.00838655
0.00859968
0.00869208
0.00867333
0.00856099
0.00838117
0.00816333
0.00793993
0.00774707
0.00761917
0.000146739
0.000932327
0.00175001
0.00251405
0.00323146
0.00392014
0.00460406
0.00529976
0.00601218
0.00672608
0.00739713
0.00797235
0.00842827
0.00875752
0.00896489
0.00905997
0.00905574
0.00897208
0.0088368
0.00867781
0.00852084
0.0083901
0.00830397
0.000155997
0.00096473
0.00187725
0.0027008
0.00345208
0.00416534
0.00487468
0.00559921
0.00634117
0.00707672
0.00774575
0.00830462
0.00873861
0.009052
0.00925613
0.00936136
0.00937882
0.00932813
0.00923677
0.00912771
0.00901944
0.00892713
0.00886035
0.000171423
0.00104818
0.00210921
0.00300421
0.003779
0.00449841
0.00521383
0.00594886
0.0067017
0.00743146
0.00807113
0.00858757
0.00898436
0.00928076
0.00949251
0.00961544
0.00965385
0.00963085
0.00957828
0.00951107
0.00943873
0.00937014
0.00931101
0.000185848
0.00136158
0.00247575
0.00340136
0.00418595
0.00489487
0.00558728
0.00629347
0.00700277
0.00767282
0.00825782
0.00874179
0.00913726
0.0094602
0.00970555
0.00985101
0.00988837
0.00987838
0.00986227
0.00983053
0.00978436
0.00973123
0.00967454
0.00019517
0.001532
0.00279056
0.00377341
0.00457546
0.00527577
0.00593079
0.00657934
0.00722223
0.00783216
0.00837619
0.0088387
0.00922563
0.00954794
0.00979967
0.00995556
0.0100307
0.0100682
0.010096
0.0100911
0.0100625
0.0100219
0.00996718
0.000201216
0.00164766
0.00301405
0.00405859
0.00488904
0.00559262
0.00622863
0.00683641
0.00742524
0.00797969
0.00847829
0.008911
0.00927851
0.00958295
0.00981556
0.0099771
0.0100873
0.0101744
0.0102399
0.0102623
0.0102594
0.0102426
0.0102015
0.000205484
0.00172729
0.0031685
0.00426175
0.00512072
0.00583432
0.00646399
0.00704747
0.00759881
0.00811153
0.00857228
0.00897489
0.00931973
0.00960544
0.00982594
0.00998295
0.0101017
0.0102021
0.0102805
0.0103295
0.0103609
0.010374
0.0103526
0.000207345
0.00177515
0.0032639
0.00439229
0.00527493
0.00600138
0.00663208
0.0072035
0.00773216
0.00821796
0.00865346
0.00903409
0.00935948
0.00962899
0.00983949
0.00999546
0.0101163
0.0102186
0.0103
0.0103601
0.0104045
0.0104324
0.0104317
0.000206874
0.0017972
0.00331126
0.0044621
0.00536218
0.00610042
0.00673514
0.00730174
0.00781807
0.00828829
0.00870912
0.00907704
0.00939141
0.00965179
0.0098571
0.0100127
0.0101329
0.0102315
0.0103119
0.0103749
0.010424
0.0104589
0.0104716
0.000204687
0.00179859
0.00331989
0.00448166
0.00539312
0.00614038
0.00677937
0.0073445
0.00785437
0.00831585
0.00872875
0.00909091
0.00940148
0.0096593
0.00986464
0.0100226
0.0101436
0.0102397
0.0103174
0.0103797
0.0104289
0.0104654
0.0104843
0.00020131
0.00178301
0.00329738
0.00446075
0.0053776
0.00613029
0.00677232
0.00733698
0.00784322
0.00829968
0.00870838
0.00906856
0.00937953
0.00963945
0.00984895
0.0100125
0.0101383
0.0102359
0.0103131
0.0103741
0.0104219
0.0104572
0.0104776
0.000197575
0.00175296
0.00324982
0.00440738
0.00532431
0.00607885
0.00672199
0.00728586
0.00778951
0.00824268
0.00864901
0.00900899
0.00932232
0.00958696
0.0098033
0.00997518
0.0101089
0.0102123
0.0102924
0.0103545
0.0104017
0.0104357
0.0104561
0.000193655
0.00171159
0.00318266
0.00432845
0.00524097
0.00599411
0.00663633
0.00719855
0.00769964
0.00815009
0.00855471
0.00891504
0.00923136
0.00950171
0.00972619
0.00990787
0.0100517
0.0101639
0.0102506
0.0103168
0.0103658
0.0104001
0.0104209
0.000189456
0.00166337
0.00310151
0.00423032
0.00513456
0.00588351
0.00652299
0.00708256
0.00758076
0.0080285
0.00843145
0.00879205
0.00911119
0.00938718
0.00961993
0.00981183
0.00996676
0.0100896
0.0101852
0.0102583
0.010312
0.0103489
0.0103718
0.000184979
0.00161116
0.00301098
0.00411848
0.00501126
0.0057538
0.0063891
0.00694522
0.0074402
0.00788509
0.00828619
0.0086467
0.00896811
0.00924902
0.00948939
0.00969105
0.009857
0.00999098
0.010097
0.0101789
0.0102395
0.0102815
0.0103084
0.000180243
0.00155677
0.00291461
0.00399757
0.00487653
0.00561108
0.00624128
0.00679354
0.00728516
0.00772719
0.00812632
0.00848636
0.00880934
0.00909414
0.00934104
0.00955143
0.0097276
0.00987246
0.00998913
0.0100807
0.0101497
0.0101986
0.0102312
0.000175248
0.00150144
0.00281521
0.00387159
0.00473526
0.00546098
0.00608575
0.00663419
0.00712269
0.00756209
0.00795933
0.00831875
0.00864241
0.00893008
0.00918222
0.00939999
0.00958518
0.00973998
0.00986683
0.0099682
0.0100461
0.0101029
0.0101421
0.000169994
0.00144619
0.00271525
0.00374422
0.0045921
0.00530891
0.00592852
0.00647363
0.00695963
0.00739696
0.00779266
0.00815141
0.00847506
0.00876458
0.00902066
0.00924435
0.00943707
0.00960051
0.00973654
0.00984708
0.00993378
0.00999853
0.0100448
0.000164482
0.00139198
0.0026171
0.00361912
0.00445175
0.00516034
0.0057756
0.00631831
0.00680274
0.0072388
0.00763361
0.00799133
0.00831471
0.00860524
0.00886404
0.00909219
0.00929087
0.00946141
0.00960525
0.00972389
0.00981861
0.00989096
0.00994403
0.000158748
0.00133954
0.00252307
0.00350015
0.00431922
0.00502102
0.00563323
0.00617471
0.00665877
0.00709436
0.0074883
0.00784522
0.00816813
0.00845909
0.00871958
0.00895079
0.00915383
0.00932982
0.0094799
0.00960524
0.00970682
0.00978589
0.00984507
0.000153091
0.00128779
0.00243504
0.00339144
0.00419992
0.00489707
0.00550779
0.0060492
0.00653339
0.00696904
0.00736265
0.00771894
0.00804132
0.00833222
0.00859347
0.00882644
0.00903229
0.00921205
0.00936669
0.00949716
0.00960421
0.00968882
0.00975314
0.000147783
0.00123831
0.0023568
0.00329825
0.00409984
0.00479458
0.00540515
0.00594726
0.00643216
0.00686818
0.00726163
0.00761734
0.00793896
0.00822926
0.00849034
0.00872383
0.008931
0.00911289
0.00927042
0.00940438
0.00951539
0.00960421
0.00967258
0.000142899
0.00119711
0.0022955
0.0032278
0.00402585
0.00471994
0.00533112
0.00587415
0.00635971
0.00679585
0.00718882
0.00754352
0.00786382
0.00815276
0.00841269
0.00864548
0.00885254
0.00903502
0.00919382
0.0093297
0.00944318
0.00953489
0.00960616
0.000138676
0.0011686
0.00225663
0.00318537
0.00398269
0.00467722
0.00528915
0.00583266
0.00631818
0.00675363
0.00714527
0.0074981
0.00781617
0.00810274
0.00836042
0.00859126
0.00879687
0.00897849
0.00913709
0.00927343
0.00938802
0.00948137
0.00955455
0.000135446
0.00115453
0.00224204
0.0031722
0.00397092
0.00466643
0.00527871
0.00582187
0.00630627
0.00673985
0.00712895
0.00747873
0.00779341
0.00807646
0.00833068
0.00855833
0.00876118
0.00894061
0.00909769
0.0092332
0.0093477
0.00944166
0.00951588
0.00013352
0.00115402
0.00224889
0.00318423
0.00398584
0.00468256
0.00529477
0.00583674
0.00631894
0.00674947
0.0071348
0.00748029
0.00779035
0.00806864
0.00831819
0.00854142
0.00874028
0.00891629
0.00907064
0.00920422
0.00931763
0.0094113
0.00948589
0.000133099
0.00116365
0.00227014
0.00321267
0.00401815
0.00471652
0.00532864
0.00586905
0.00634843
0.00677504
0.00715562
0.00749572
0.00780003
0.00807243
0.00831612
0.00853375
0.00872743
0.00889886
0.00904939
0.00918003
0.00929146
0.00938413
0.00945854
0.000134209
0.0011791
0.00229702
0.0032468
0.00405679
0.00475762
0.00537034
0.00590956
0.00638608
0.00680843
0.00718363
0.00751756
0.00781518
0.00808066
0.00831742
0.00852831
0.00871567
0.00888139
0.00902703
0.00915377
0.00926242
0.00935342
0.00942714
0.000136734
0.00119639
0.00232188
0.00327727
0.00409212
0.00479665
0.0054113
0.00595031
0.00642451
0.00684267
0.00721221
0.00753943
0.00782965
0.00808733
0.00831618
0.00851927
0.00869918
0.00885808
0.00899777
0.00911967
0.00922473
0.00931339
0.00938582
0.000140494
0.00121303
0.0023398
0.00329792
0.00411774
0.00482753
0.00544589
0.00598611
0.00645884
0.00687317
0.00723701
0.00755717
0.00783944
0.00808862
0.0083087
0.00850303
0.00867446
0.00882549
0.00895824
0.00907443
0.00917513
0.00926068
0.00933107
0.000145368
0.00122759
0.00234757
0.00330478
0.00412992
0.00484706
0.00547139
0.00601455
0.00648686
0.00689784
0.00725608
0.00756903
0.007843
0.00808319
0.0082939
0.00847874
0.00864089
0.00878323
0.0089083
0.00901813
0.00911386
0.00919558
0.00926281
0.00015148
0.00123895
0.00234087
0.00329338
0.0041255
0.00485341
0.00548681
0.00603503
0.00650817
0.00691644
0.00726935
0.00757518
0.00784083
0.00807191
0.00827303
0.0084481
0.00860063
0.00873396
0.00885109
0.00895438
0.00904492
0.00912218
0.00918478
0.00015977
0.00124454
0.00231126
0.00325668
0.00410056
0.00484499
0.0054918
0.00604773
0.00652316
0.00692955
0.0072777
0.00757689
0.00783467
0.0080571
0.00824905
0.00841473
0.00855802
0.00868272
0.00879238
0.00888964
0.00897538
0.00904792
0.00910409
0.00017564
0.0012431
0.00224942
0.00318821
0.0040527
0.00482171
0.00548694
0.00605326
0.00653244
0.00693795
0.00728226
0.00757579
0.0078268
0.00804174
0.00822574
0.00838326
0.00851854
0.00863586
0.00873929
0.00883182
0.00891391
0.00898234
0.00903077
0.000221391
0.00125569
0.00216367
0.00309501
0.00398894
0.00478894
0.00547545
0.00605326
0.00653688
0.0069424
0.0072841
0.00757351
0.00781952
0.0080289
0.008207
0.00835846
0.00848783
0.00859979
0.0086989
0.00878847
0.0088688
0.00893548
0.00897891
0.000303448
0.00151472
0.00212639
0.00302024
0.00393683
0.00476203
0.00546479
0.006051
0.00653796
0.00694387
0.00728432
0.00757158
0.00781493
0.00802134
0.00819629
0.00834453
0.00847076
0.00857993
0.0086769
0.00876525
0.00884526
0.00891145
0.00896921
0.000280331
0.000267215
0.000275602
0.000300792
0.00231107
0.00226429
0.00232497
0.00250592
0.00418679
0.00414114
0.00421751
0.00439795
0.00561655
0.00560887
0.00567083
0.00578673
0.00672165
0.00672585
0.00676565
0.00683162
0.00758893
0.0075902
0.0076087
0.00763911
0.00827798
0.00827105
0.0082713
0.00827558
0.00882998
0.00881389
0.00879924
0.00878411
0.00927383
0.00924976
0.00922394
0.00919518
0.00963096
0.00960138
0.00956918
0.00953286
0.00991941
0.00988699
0.00985267
0.00981448
0.010156
0.010122
0.0100864
0.0100495
0.0103194
0.010295
0.010268
0.0102383
0.0104155
0.0104021
0.0103851
0.0103638
0.0104671
0.0104611
0.0104512
0.0104366
0.010486
0.0104838
0.0104779
0.0104674
0.0104816
0.0104807
0.0104763
0.0104676
0.0104602
0.0104592
0.0104548
0.0104465
0.0104248
0.0104234
0.0104185
0.01041
0.0103764
0.0103748
0.0103697
0.010361
0.0103149
0.0103141
0.0103094
0.0103012
0.0102409
0.0102417
0.0102383
0.0102312
0.0101559
0.010159
0.0101576
0.0101524
0.0100631
0.010069
0.0100701
0.0100672
0.00996689
0.00997565
0.00997953
0.00997912
0.00987221
0.00988377
0.00989034
0.00989245
0.00978403
0.00979814
0.0098072
0.00981167
0.00970657
0.00972286
0.00973411
0.00974068
0.0096426
0.00966067
0.00967375
0.00968214
0.00959279
0.00961226
0.00962684
0.00963673
0.00955541
0.00957594
0.0095917
0.00960285
0.00952629
0.00954763
0.00956436
0.0095766
0.00949951
0.00952147
0.009539
0.00955221
0.00946837
0.00949077
0.00950896
0.00952301
0.00942693
0.00944951
0.0094681
0.00948278
0.00937138
0.00939368
0.00941226
0.0094272
0.00930122
0.0093225
0.00934037
0.00935494
0.0092195
0.00923866
0.00925485
0.00926826
0.00913234
0.00914791
0.00916137
0.00917306
0.00904845
0.0090588
0.00906905
0.00907934
0.00898231
0.00898653
0.00899459
0.00900504
0.00897167
0.00897006
0.00897613
0.00898458
0.00153304
0.00294754
0.00398356
0.00463081
0.00501684
0.005216
0.00527194
0.00520256
0.00505092
0.00485014
0.00461113
0.00433478
0.00401741
0.00365786
0.00324591
0.0027568
0.00213341
0.00128009
0.000193144
0.00327453
0.00421503
0.0049548
0.00544413
0.00572958
0.00585198
0.00584048
0.00571766
0.00552238
0.00527842
0.0049937
0.0046681
0.00429841
0.00388076
0.00340485
0.00284442
0.00214489
0.00122222
0.000189393
0.00480447
0.00538336
0.00586074
0.00618007
0.00634687
0.00637884
0.00629239
0.00610722
0.00585575
0.00555793
0.00521957
0.00483903
0.00441285
0.00393725
0.00340268
0.00278673
0.00204505
0.00112274
0.000185849
0.00601204
0.00635345
0.00663246
0.00680402
0.0068598
0.00680427
0.00664505
0.0063972
0.00608609
0.00572882
0.0053307
0.00489017
0.00440453
0.00387176
0.00328699
0.00263975
0.00190707
0.0010536
0.000181143
0.00695201
0.00713413
0.00726784
0.00731935
0.00727841
0.00714426
0.00692023
0.00661636
0.00625042
0.00583595
0.00537812
0.00487684
0.00433137
0.00374286
0.00311364
0.00244806
0.00174939
0.000981837
0.000175822
0.00769122
0.00776168
0.0077878
0.00774547
0.00762579
0.00742649
0.00714911
0.00679982
0.00638978
0.00592853
0.00542055
0.00486712
0.00426995
0.00363382
0.00296765
0.00228499
0.00159884
0.000894922
0.000170362
0.0082797
0.00827007
0.00821744
0.00810504
0.00792596
0.00767796
0.00736188
0.0069814
0.00654286
0.00605187
0.00551155
0.00492383
0.00429185
0.00362223
0.00292596
0.00221785
0.00151346
0.000818021
0.000166057
0.00875381
0.00868769
0.00857983
0.00841903
0.00820008
0.00792104
0.0075828
0.00718761
0.00673853
0.00623782
0.00568662
0.00508639
0.00443981
0.00375173
0.00303038
0.00228541
0.0015315
0.000792331
0.000171098
0.0091415
0.00903809
0.00889496
0.00870488
0.00846403
0.00817088
0.00782655
0.00743264
0.00699007
0.00649798
0.00595481
0.00536093
0.00471768
0.00402509
0.00328449
0.00249962
0.00168028
0.000847562
0.000187622
0.00946629
0.00934151
0.00917946
0.00897562
0.0087272
0.00843347
0.00809643
0.00771721
0.00729552
0.00682676
0.00630532
0.00573146
0.00510749
0.00442655
0.00367334
0.00285105
0.00196519
0.000994574
0.000209366
0.00974387
0.00961252
0.00944385
0.00923658
0.00899003
0.00870466
0.00838464
0.00803263
0.00764603
0.00721031
0.00671417
0.00616539
0.0055748
0.00492091
0.0041748
0.00330851
0.00233046
0.00124234
0.000225315
0.00998459
0.00986469
0.00970029
0.00949977
0.00926333
0.00899321
0.00869409
0.00836704
0.00800937
0.00760434
0.00713448
0.00660749
0.00603918
0.00540925
0.00468424
0.00382386
0.00281357
0.00159003
0.000233857
0.0101809
0.0100703
0.00992266
0.00973317
0.00951169
0.00926283
0.008983
0.00867633
0.00834072
0.0079611
0.00751848
0.00701367
0.00645862
0.00583348
0.00510037
0.00422222
0.00313753
0.00174089
0.000238276
0.0103177
0.0102207
0.0100876
0.00991625
0.00971217
0.00948048
0.0092214
0.00893514
0.00861804
0.00825707
0.00783786
0.00735557
0.00681137
0.00618584
0.00544044
0.00452677
0.0033607
0.0018323
0.000240738
0.0104002
0.0103163
0.0101989
0.0100447
0.00985869
0.0096453
0.00940501
0.00913695
0.00883577
0.00848976
0.00808675
0.00762105
0.00708733
0.00646391
0.00570921
0.00476428
0.00353413
0.00190681
0.0002433
0.010438
0.0103654
0.0102625
0.0101257
0.00995761
0.00976126
0.00953717
0.00928365
0.00899491
0.00866007
0.00826861
0.00781473
0.00728899
0.0066673
0.00590729
0.00494358
0.00367249
0.00197322
0.000244991
0.0104426
0.0103792
0.0102884
0.0101668
0.0100148
0.00983355
0.00962288
0.00938041
0.00910032
0.0087737
0.00839151
0.00794613
0.00742551
0.00680487
0.00604199
0.00506826
0.00377274
0.00202441
0.000244949
0.0104238
0.0103672
0.0102854
0.0101755
0.0100362
0.00986711
0.00966695
0.00943279
0.00915922
0.0088387
0.008463
0.0080233
0.00750581
0.00688585
0.00612175
0.00514352
0.00383577
0.00205807
0.000243113
0.0103884
0.0103364
0.0102607
0.0101587
0.0100284
0.00986805
0.00967551
0.0094474
0.00917861
0.00886241
0.00849099
0.00805469
0.00753891
0.0069193
0.00615496
0.00517593
0.00386496
0.00207454
0.00023973
0.0103404
0.0102917
0.0102198
0.0101228
0.00999814
0.00984345
0.00965589
0.00943178
0.00916614
0.00885266
0.00848363
0.00804896
0.00753373
0.00691397
0.00614969
0.00517204
0.00386423
0.00207483
0.000235126
0.0102818
0.0102362
0.0101669
0.0100729
0.00995157
0.00980009
0.00961533
0.0093934
0.0091294
0.00881717
0.00844898
0.00801451
0.00749873
0.00687809
0.00611359
0.00513821
0.00383763
0.00206024
0.000229722
0.010214
0.0101716
0.0101047
0.0100128
0.00989329
0.00974345
0.00955995
0.00933884
0.00907525
0.00876307
0.00839451
0.00795911
0.00744181
0.00681942
0.006054
0.00508081
0.0037896
0.00203256
0.000223933
0.0101383
0.0100994
0.0100351
0.00994498
0.00982681
0.00967782
0.00949475
0.00927366
0.0090097
0.00869678
0.00832703
0.00788989
0.00737029
0.00674533
0.0059781
0.00500638
0.00372517
0.00199426
0.000218193
0.0100566
0.0100218
0.00996034
0.00987221
0.00975532
0.00960703
0.00942415
0.00920282
0.0089382
0.00862418
0.00825283
0.00781349
0.00729104
0.00666285
0.00589294
0.00492171
0.00365023
0.00194887
0.00021283
0.00997234
0.00994173
0.0098835
0.00979765
0.00968231
0.00953496
0.00935249
0.00913109
0.00886592
0.00855083
0.00817781
0.00773609
0.00721051
0.00657861
0.00580532
0.00483368
0.0035712
0.00190068
0.000208097
0.00988949
0.00986311
0.00980828
0.00972504
0.00961168
0.00946573
0.00928414
0.00906311
0.00879778
0.00848193
0.00810744
0.0076634
0.0071346
0.00649873
0.0057216
0.00474884
0.00349452
0.00185416
0.000204077
0.00981231
0.00978995
0.00973865
0.00965834
0.00954741
0.00940341
0.00922331
0.00900326
0.00873834
0.00842223
0.00804665
0.00760056
0.00706862
0.0064287
0.00564746
0.00467306
0.00342581
0.00181294
0.000200772
0.00974458
0.00972595
0.00967818
0.00960108
0.00949302
0.00935156
0.00917362
0.00895527
0.00869149
0.00837578
0.00799971
0.007552
0.00701721
0.0063733
0.00558776
0.00461112
0.0033693
0.0017794
0.000198071
0.00968886
0.00967367
0.00962941
0.00955575
0.009451
0.00931268
0.00913764
0.00892183
0.00866008
0.00834568
0.00796995
0.00752136
0.00698423
0.00633657
0.00554653
0.00456673
0.00332777
0.00175457
0.000195875
0.00964588
0.00963388
0.00959315
0.00952317
0.0094222
0.00928769
0.0091164
0.00890416
0.00864558
0.00833374
0.0079596
0.00751128
0.00697274
0.00632186
0.00552716
0.00454281
0.00330309
0.00173889
0.00019407
0.00961414
0.00960519
0.00956808
0.00950211
0.00940545
0.00927553
0.00910902
0.00890161
0.00864773
0.00834015
0.00796944
0.00752321
0.00698487
0.00633184
0.00553256
0.00454205
0.00329703
0.00173281
0.000192641
0.00958983
0.00958393
0.00955065
0.00948907
0.00939738
0.00927297
0.00911248
0.0089115
0.00866427
0.00836326
0.00799857
0.00755713
0.00702154
0.00636833
0.00556525
0.00456723
0.00331201
0.00173759
0.000191631
0.00956726
0.00956453
0.00953532
0.00947863
0.00939263
0.00927479
0.00912178
0.00892915
0.00869101
0.00839953
0.00804429
0.00761139
0.00708229
0.0064321
0.00562712
0.00462106
0.00335102
0.0017554
0.000191249
0.00953977
0.00954029
0.00951543
0.00946411
0.00938461
0.00927452
0.00913063
0.00894857
0.00872239
0.00844403
0.00810251
0.00768297
0.00716532
0.00652264
0.00571884
0.00470527
0.00341675
0.00178909
0.000191832
0.009501
0.0095047
0.00948435
0.00943887
0.00936668
0.00926559
0.00913262
0.00896359
0.00875263
0.00849153
0.00816879
0.0077684
0.00726835
0.00663879
0.00584003
0.00481979
0.00350959
0.00184047
0.000193948
0.00944633
0.00945286
0.00943705
0.00939784
0.00933381
0.00924305
0.00912293
0.00896959
0.00877741
0.00853819
0.00824
0.00786563
0.00739057
0.00678093
0.00599144
0.00496417
0.00362713
0.00190857
0.000198298
0.00937413
0.00938294
0.00937165
0.00933913
0.00928415
0.00920515
0.00909991
0.00896509
0.00879551
0.00858322
0.00831612
0.00797587
0.00753514
0.00695447
0.00617991
0.00514361
0.00376878
0.00198971
0.000205793
0.00928659
0.00929724
0.00929055
0.00926525
0.00922028
0.0091545
0.00906625
0.00895282
0.00880973
0.00862966
0.00840085
0.00810439
0.00771033
0.00717254
0.00642419
0.0053791
0.00394811
0.00208387
0.00021757
0.00919018
0.00920287
0.00920112
0.00918354
0.00914944
0.0090982
0.00902885
0.00893943
0.00882642
0.0086836
0.00850038
0.0082586
0.0079273
0.00745446
0.00675692
0.00571673
0.00420893
0.00220569
0.000235661
0.00909642
0.00911198
0.00911524
0.00910541
0.00908254
0.00904669
0.00899756
0.00893404
0.0088537
0.00875194
0.00862042
0.00844384
0.00819394
0.0078179
0.00721884
0.00623281
0.00464638
0.00240143
0.00026465
0.00902374
0.00904119
0.00904772
0.00904432
0.00903203
0.0090115
0.00898291
0.00894585
0.00889902
0.00883975
0.0087629
0.00865849
0.00850649
0.00826486
0.00784177
0.0070361
0.00546326
0.00280719
0.000318038
0.00899805
0.00900856
0.00901282
0.00901273
0.00900927
0.00900294
0.00899394
0.00898223
0.00896745
0.00894882
0.00892477
0.00889207
0.00884388
0.00876412
0.00860969
0.00824471
0.00718505
0.00408555
0.000465586
)
;

boundaryField
{
    leftWall
    {
        type            nutkWallFunction;
        Cmu             0.09;
        kappa           0.41;
        E               9.8;
        value           nonuniform List<scalar> 
50
(
2.52391e-06
7.75699e-06
9.23393e-06
1.02811e-05
1.10227e-05
1.15553e-05
1.19518e-05
1.22602e-05
1.38945e-05
1.57915e-05
1.55758e-05
1.58138e-05
1.62602e-05
1.67835e-05
1.72507e-05
1.85559e-05
1.59998e-05
1.81009e-05
1.94886e-05
2.03279e-05
2.08922e-05
2.1116e-05
2.10167e-05
2.06794e-05
2.0183e-05
1.96337e-05
1.90664e-05
1.84617e-05
1.78149e-05
1.71257e-05
1.63924e-05
1.56134e-05
1.47878e-05
1.39207e-05
1.30497e-05
1.22395e-05
1.14937e-05
1.08513e-05
1.03669e-05
1.0092e-05
1.00579e-05
1.02682e-05
1.07031e-05
1.13338e-05
1.214e-05
1.31404e-05
1.44788e-05
1.68377e-05
2.32953e-05
4.07361e-05
)
;
    }
    rightWall
    {
        type            nutkWallFunction;
        Cmu             0.09;
        kappa           0.41;
        E               9.8;
        value           nonuniform List<scalar> 
50
(
3.99899e-06
1.24199e-05
1.41003e-05
1.54408e-05
1.65175e-05
1.79417e-05
1.89686e-05
2.16217e-05
2.24325e-05
2.21519e-05
2.16783e-05
2.10252e-05
2.04262e-05
2.00908e-05
1.96206e-05
1.98382e-05
2.1061e-05
2.09742e-05
2.34176e-05
2.48138e-05
2.55051e-05
2.5879e-05
2.62459e-05
2.65037e-05
2.65066e-05
2.623e-05
2.57102e-05
2.5002e-05
2.41738e-05
2.3298e-05
2.24457e-05
2.16703e-05
2.10057e-05
2.04585e-05
2.00194e-05
1.96655e-05
1.93762e-05
1.91321e-05
1.89279e-05
1.87678e-05
1.86791e-05
1.87097e-05
1.89445e-05
1.94968e-05
2.05183e-05
2.21961e-05
2.48422e-05
2.91591e-05
3.71643e-05
5.56949e-05
)
;
    }
    lowerWall
    {
        type            nutkWallFunction;
        Cmu             0.09;
        kappa           0.41;
        E               9.8;
        value           nonuniform List<scalar> 
62
(
2.52391e-06
3.98849e-06
4.77508e-06
5.35616e-06
5.84316e-06
6.2717e-06
6.65394e-06
6.99424e-06
7.29479e-06
7.56163e-06
7.79237e-06
7.98513e-06
8.14122e-06
8.26163e-06
8.34562e-06
8.38872e-06
8.38166e-06
8.30786e-06
8.13627e-06
7.80694e-06
7.19571e-06
6.03262e-06
3.45541e-06
3.45541e-06
1.06322e-05
1.27619e-05
1.44771e-05
1.6089e-05
1.85253e-05
2.43709e-05
2.90744e-05
3.09092e-05
2.87642e-05
2.93438e-05
3.16607e-05
3.5002e-06
1.22006e-05
1.5966e-05
1.79904e-05
1.98183e-05
2.18045e-05
2.56733e-05
3.14063e-05
3.5002e-06
5.50356e-06
6.83988e-06
7.79304e-06
8.29803e-06
8.64245e-06
8.90383e-06
8.85467e-06
8.74606e-06
8.64285e-06
8.47845e-06
8.25559e-06
7.93039e-06
7.62554e-06
7.27504e-06
6.84459e-06
6.29682e-06
5.56789e-06
3.99899e-06
)
;
    }
    atmosphere
    {
        type            calculated;
        value           nonuniform List<scalar> 
46
(
0.009
0.009
0.00212639
0.00302024
0.00393683
0.00476203
0.00546479
0.006051
0.00653796
0.00694387
0.00728432
0.00757158
0.00781493
0.00802134
0.00819629
0.00834453
0.00847076
0.00857993
0.0086769
0.00876525
0.00884526
0.00891145
0.009
0.009
0.009
0.009
0.009
0.009
0.009
0.009
0.009
0.009
0.009
0.009
0.009
0.009
0.009
0.009
0.009
0.009
0.009
0.009
0.009
0.009
0.009
0.009
)
;
    }
    defaultFaces
    {
        type            empty;
    }
}


// ************************************************************************* //
