/*--------------------------------*- C++ -*----------------------------------*\
  =========                 |
  \\      /  F ield         | OpenFOAM: The Open Source CFD Toolbox
   \\    /   O peration     | Website:  https://openfoam.org
    \\  /    A nd           | Version:  13
     \\/     M anipulation  |
\*---------------------------------------------------------------------------*/
FoamFile
{
    format      ascii;
    class       volScalarField;
    location    "2.05";
    object      p;
}
// * * * * * * * * * * * * * * * * * * * * * * * * * * * * * * * * * * * * * //

dimensions      [1 -1 -2 0 0 0 0];

internalField   nonuniform List<scalar> 
2268
(
6603.18
6561.73
6489.55
6383.95
6256.63
6115.1
5967.47
5820.82
5680.05
5548.66
5428.36
5320.35
5224.57
5140.37
5066.93
5003.58
4950.27
4906.84
4872.87
4847.32
4828.44
4816.55
4810.57
5814.53
5775.74
5707.11
5601.19
5472.01
5327.73
5176.87
5026.91
4883.09
4748.42
4625.71
4515.74
4418.5
4333.37
4259.44
4195.96
4142.83
4099.79
4066.41
4042.04
4025.38
4018.08
4014.56
5035.29
4994.01
4927.59
4820.86
4689.46
4541.96
4387.29
4233.47
4085.98
3947.92
3822.16
3709.65
3610.48
3524.07
3449.54
3385.93
3333.32
3291.31
3259.55
3237.72
3224.8
3222.02
3217.77
4264.9
4220.29
4152.62
4043.28
3908.42
3756.82
3597.69
3439.7
3288.32
3146.46
3017.39
2902.22
2801.03
2713.33
2638.2
2574.52
2522.38
2481.58
2451.92
2433.39
2425.08
2426.38
2419.8
3503.86
3455.61
3384.6
3270.65
3130.88
2973.66
2808.59
2645.32
2489.32
2342.81
2210.39
2093.33
1991.36
1903.68
1829.18
1765.92
1714.24
1674.47
1646.48
1630.32
1625.44
1629.99
1621.34
2751.74
2701.22
2625.93
2505.16
2358.49
2192.48
2017.14
1845.55
1684.28
1542.97
1426.9
1333.83
1259.16
1199.07
1150.84
1114.78
1085.88
1062.35
1043.71
1029.87
1020.76
1017.06
1008.49
2003.24
1959.66
1877.84
1744.89
1585.15
1417.95
1270.93
1149.72
1055.33
987.29
938.755
904.483
880.009
861.97
848.549
841.095
833.79
825.024
814.422
801.803
787.355
773.815
765.892
1298.61
1245.91
1170.49
1072
973.704
892.1
840.178
811.475
801.465
800.115
799.417
798.053
795.876
792.844
788.983
783.25
775.846
766.592
755.371
742.27
727.889
714.697
707.199
2203.69
2193.42
2191.09
2211.86
2242.05
2271.81
2291.75
2303.37
2340.18
2394.1
2436.18
2467.7
2491.81
2550.13
2653.25
2773.39
2898.41
3012.22
3092.26
1630.04
1619.3
1601.96
1599.85
1606.73
1607.02
1629.12
1686.19
1735.39
1793.71
1841.01
1895.15
1943.27
2002.79
2067.64
2170.06
2299.81
2421.41
2503.03
1336
1330.45
1303.19
1280.61
1245.93
1211.21
1201.88
1201.7
1197.97
1211.59
1239.02
1306.41
1374.27
1428.16
1491.09
1586.06
1703.98
1836.83
1922.27
1169.31
1167.56
1161.21
1141.84
1098.17
1066.29
1045.52
1022.04
970.734
934.349
927.132
945.126
1009.02
1059.82
1103.42
1178.16
1253.36
1332.93
1443.55
995.504
987.629
995.927
986.826
980.902
975.401
966.658
946.483
903.48
871.475
857.957
836.692
849.34
883.848
912.587
952.02
990.595
1021.41
1084.84
858.187
844.045
843.724
840.575
856.407
875.656
871.81
844.919
823.248
809.334
803.799
796.459
781.155
781.766
794.966
806.056
819.738
840.264
853.702
773.386
757.805
744.912
738.536
746.161
769.584
767.755
740.759
745.453
747.133
744.774
745.303
742.297
735.675
735.292
735.831
734.898
729.244
743.842
714.134
696.039
677.998
665.439
668.348
672.799
671.997
667.81
681.39
684.696
683.512
684.755
685.155
685.405
685.706
683.25
681.438
675.977
668.366
758.475
737.934
710.971
689.837
683.7
687.776
693.342
697.834
701.109
703.255
704.288
703.978
702.341
699.402
695.205
689.488
682.092
672.821
661.756
649.141
636.105
624.418
617.522
517.295
519.218
527.984
538.957
549.346
557.778
564.693
570.083
573.903
576.428
577.68
577.753
576.594
574.044
570.024
564.639
557.605
548.789
538.581
527.783
516.867
507.078
500.131
402.044
405.284
411.905
419.358
426.862
433.653
439.717
444.597
448.209
450.894
452.523
453.127
452.601
450.575
447.228
443.325
437.985
431.864
426.631
422.845
420.067
418.229
417.844
287.52
290.91
296.038
301.059
305.836
310.467
315.645
319.705
322.963
326.321
328.596
330.298
332.089
333.69
335.011
336.743
338.549
340.04
343.156
347.569
351.494
354.678
355.898
178.204
180.851
184.711
189.242
193.535
198.238
203.231
207.724
212.306
218.533
224.766
231.065
238.103
245.981
254.205
261.912
269.612
277.01
283.811
288.91
291.688
293.176
294.266
90.3983
93.8273
98.6024
103.712
109.384
115.46
121.438
128.053
135.484
144.584
154.794
165.366
175.802
186.097
196.08
204.779
212.631
220.682
226.512
229.283
231.035
231.83
231.564
30.8678
34.9029
38.9759
43.1187
47.4323
52.2891
57.7526
64.8529
73.0237
81.6396
91.8445
103.231
115.325
127.896
139.306
149.07
157.188
163.908
168.126
170.094
170.935
170.668
169.196
5.11728
6.26436
7.44159
8.80827
10.2276
11.7704
13.6873
16.5493
19.9309
23.9023
29.151
35.6995
44.6171
55.9553
69.8906
84.4872
98.6179
108.308
112.573
113.63
112.911
110.97
108.002
2.68093
2.67495
2.62274
2.62375
2.66798
2.73428
2.80099
2.86888
2.98482
3.21567
3.67713
4.50332
5.9982
9.01862
13.9569
22.9422
34.7035
46.0336
53.8843
57.661
57.3194
53.7695
49.6664
2.54705
2.54385
2.54011
2.5437
2.55537
2.57427
2.59673
2.62973
2.67994
2.75321
2.85484
2.98877
3.14197
3.28955
3.40254
3.50724
4.14222
7.2504
11.7125
16.0198
16.6604
14.7812
12.0527
2.41356
2.40687
2.40159
2.40395
2.41448
2.43656
2.47071
2.51358
2.56635
2.62394
2.67727
2.72555
2.77058
2.81203
2.86014
2.94552
3.09019
3.27364
3.39956
3.41342
3.49241
3.61102
3.89832
2.29174
2.2835
2.27671
2.27762
2.28983
2.31287
2.34681
2.39071
2.44436
2.50231
2.56015
2.61577
2.67006
2.72445
2.77661
2.83234
2.88626
2.97211
3.10134
3.24068
3.41236
3.59615
3.81675
2.17729
2.16866
2.16226
2.16336
2.17405
2.19469
2.22542
2.26573
2.31561
2.37202
2.43209
2.49579
2.56255
2.63144
2.7004
2.76318
2.83613
2.92343
3.04451
3.18361
3.33871
3.50365
3.68396
2.0682
2.0597
2.05376
2.0548
2.06422
2.08259
2.11014
2.14621
2.18995
2.24242
2.30138
2.36632
2.43747
2.51274
2.59187
2.67396
2.76055
2.86595
2.9886
3.11754
3.25646
3.39994
3.56393
1.96321
1.95494
1.94927
1.9503
1.95908
1.97592
2.00108
2.03428
2.07451
2.12212
2.1775
2.24058
2.31061
2.3869
2.46996
2.55973
2.65769
2.76882
2.89228
3.02222
3.15838
3.2941
3.44664
1.86172
1.85401
1.84882
1.85005
1.85849
1.87429
1.8976
1.92843
1.96647
2.0117
2.06434
2.12462
2.1925
2.26797
2.35123
2.44227
2.54229
2.65437
2.77848
2.91021
3.04689
3.17995
3.32436
1.76382
1.757
1.75256
1.75409
1.76228
1.77727
1.79923
1.82821
1.86423
1.90739
1.95794
2.01616
2.08211
2.15592
2.23789
2.3283
2.4282
2.5397
2.66283
2.79415
2.9297
3.06005
3.19928
1.66992
1.66401
1.66036
1.66218
1.67018
1.6845
1.70536
1.73289
1.76723
1.8086
1.85727
1.9135
1.97737
2.04908
2.1291
2.21793
2.31656
2.42641
2.54747
2.67662
2.80958
2.93674
3.07142
1.57969
1.57473
1.57188
1.57401
1.58184
1.59559
1.61548
1.64174
1.67458
1.71426
1.76108
1.81527
1.8769
1.94627
2.02395
2.11055
2.20698
2.31431
2.43236
2.55824
2.68761
2.811
2.9412
1.49292
1.48885
1.48678
1.48923
1.49694
1.51017
1.52918
1.55423
1.58562
1.62363
1.66856
1.72061
1.77992
1.84678
1.92182
2.00569
2.09922
2.20329
2.31764
2.43944
2.56451
2.68363
2.80892
1.40937
1.40614
1.40482
1.40757
1.41515
1.42787
1.44603
1.46993
1.49988
1.5362
1.57918
1.62902
1.68589
1.75009
1.82224
1.903
1.99314
2.0934
2.20347
2.32065
2.44087
2.5553
2.67562
1.32884
1.32637
1.3257
1.32871
1.33613
1.34834
1.36566
1.38842
1.41694
1.45155
1.49254
1.54011
1.59443
1.65584
1.72492
1.8023
1.88867
1.9847
2.09007
2.20216
2.31711
2.42658
2.54159
1.25105
1.24925
1.24915
1.25234
1.25956
1.27123
1.2877
1.30932
1.33642
1.36932
1.40829
1.45354
1.50525
1.56378
1.62967
1.70345
1.78578
1.87726
1.97756
2.08419
2.19351
2.29765
2.40719
1.17573
1.1745
1.17486
1.17815
1.18512
1.19622
1.21184
1.23232
1.258
1.28919
1.32614
1.36906
1.41814
1.47375
1.53634
1.60637
1.68445
1.77114
1.86609
1.96696
2.07033
2.16885
2.27241
1.10259
1.10187
1.10258
1.10589
1.11255
1.12305
1.1378
1.15715
1.18142
1.21091
1.24585
1.28644
1.33291
1.38559
1.44482
1.51099
1.58468
1.66639
1.75579
1.8507
1.94792
2.04059
2.13814
1.03143
1.03111
1.03206
1.03529
1.04158
1.05147
1.06535
1.08358
1.10647
1.13429
1.16726
1.20558
1.2495
1.29923
1.35503
1.41726
1.48645
1.56308
1.64681
1.73563
1.82658
1.91335
2.00468
0.962015
0.96198
0.963076
0.966128
0.972016
0.981276
0.994312
1.01146
1.03302
1.05924
1.09033
1.12647
1.16783
1.21457
1.2669
1.32515
1.38978
1.46126
1.53926
1.62191
1.70652
1.78727
1.87239
0.894215
0.894403
0.895475
0.898348
0.903834
0.912491
0.924722
0.940851
0.96115
0.985841
1.0151
1.04906
1.08784
1.13155
1.18038
1.23461
1.29467
1.36096
1.4332
1.50966
1.58787
1.66252
1.74116
0.827882
0.828257
0.829316
0.831994
0.837103
0.845202
0.85668
0.871836
0.890909
0.914088
0.94151
0.973271
1.00944
1.05011
1.09542
1.14562
1.20108
1.26218
1.32865
1.39891
1.47074
1.53926
1.61153
0.762927
0.763439
0.76448
0.766995
0.771776
0.779369
0.79014
0.804358
0.822229
0.843905
0.869487
0.899035
0.932587
0.970193
1.01196
1.0581
1.10896
1.16487
1.22558
1.28967
1.35512
1.41756
1.48339
0.699215
0.699848
0.700894
0.703288
0.707796
0.714935
0.725039
0.738345
0.755026
0.775199
0.798931
0.826249
0.857159
0.891681
0.929893
0.971975
1.01822
1.06894
1.1239
1.18182
1.24091
1.29723
1.3567
0.636642
0.637381
0.638471
0.640807
0.645097
0.651823
0.661285
0.67369
0.689178
0.707835
0.729696
0.754758
0.783001
0.814418
0.849059
0.887072
0.928715
0.974251
1.02349
1.07527
1.12799
1.1782
1.23114
0.575046
0.575922
0.577118
0.579445
0.583554
0.589888
0.598714
0.610208
0.624483
0.641595
0.661552
0.684327
0.709875
0.738167
0.76923
0.803178
0.840235
0.880631
0.924185
0.969884
1.01635
1.0605
1.10708
0.514295
0.515318
0.516657
0.519011
0.522957
0.528896
0.537068
0.547623
0.560648
0.576174
0.594188
0.61464
0.637467
0.662622
0.690111
0.720022
0.752543
0.787871
0.825858
0.865625
0.905962
0.944256
0.984609
0.454164
0.455353
0.45686
0.459241
0.463011
0.468532
0.476014
0.485584
0.497309
0.5112
0.527224
0.545317
0.565403
0.587422
0.611363
0.637292
0.665366
0.695759
0.72834
0.762354
0.796799
0.829429
0.863859
0.394453
0.395795
0.397452
0.399839
0.403397
0.40845
0.415185
0.423711
0.434076
0.446276
0.460263
0.475964
0.493297
0.512195
0.532636
0.55467
0.578428
0.604055
0.631449
0.659973
0.688778
0.716017
0.744708
0.334919
0.336432
0.338213
0.340539
0.343813
0.348326
0.354242
0.361652
0.37059
0.381037
0.39294
0.406222
0.420799
0.436605
0.453614
0.471865
0.491464
0.512537
0.534994
0.558312
0.581829
0.604006
0.627406
0.275414
0.277102
0.278944
0.281131
0.284033
0.28792
0.292936
0.299154
0.306595
0.31523
0.325004
0.33584
0.347665
0.360417
0.374074
0.388663
0.404274
0.421009
0.438803
0.457246
0.475798
0.493306
0.51178
0.215729
0.217666
0.219505
0.22146
0.223912
0.227103
0.231151
0.236112
0.241992
0.24876
0.256361
0.264732
0.27381
0.283548
0.293928
0.304974
0.316758
0.329363
0.342738
0.356569
0.370478
0.383594
0.397523
0.155716
0.158009
0.159746
0.161425
0.163419
0.165904
0.168963
0.172634
0.176915
0.181777
0.187177
0.19307
0.199415
0.206181
0.213359
0.22097
0.22907
0.237724
0.246899
0.256377
0.265881
0.274852
0.284396
0.0954702
0.0978258
0.099464
0.100808
0.10237
0.104173
0.10624
0.108596
0.111238
0.114152
0.11732
0.120723
0.124346
0.128176
0.132218
0.136493
0.141042
0.145915
0.1511
0.156467
0.161889
0.167061
0.172644
0.0339817
0.0336189
0.0341307
0.0347695
0.0355083
0.0362136
0.0369524
0.037764
0.0386492
0.0396067
0.0406346
0.0417299
0.0428906
0.0441172
0.0454158
0.0467998
0.048293
0.0499231
0.0517021
0.0536055
0.0556357
0.0578201
0.0609032
615.742
614.888
612.612
610.091
492.959
488.202
485.6
483.473
419.622
420.187
418.295
413.969
359.015
358.633
355.871
351.915
294.903
293.751
291.25
288.453
230.445
229.095
227.126
224.857
167.384
165.85
163.876
161.643
105.75
103.783
101.004
98.1763
48.755
46.9452
42.6632
38.4887
12.1728
12.6547
10.8952
8.23275
4.29978
4.59872
4.80807
4.96303
4.11662
4.40554
4.7212
4.96808
3.96316
4.25324
4.57767
4.82845
3.83266
4.11836
4.4413
4.6911
3.70608
3.9845
4.30283
4.5508
3.57458
3.84826
4.16318
4.40848
3.4416
3.70824
4.01661
4.2575
3.30587
3.56437
3.86401
4.09896
3.16707
3.41652
3.70645
3.93415
3.02577
3.26533
3.54405
3.76377
2.88286
3.11184
3.3788
3.58944
2.73915
2.95706
3.2109
3.41177
2.59442
2.80072
3.04133
3.23181
2.44896
2.64323
2.86976
3.04985
2.30359
2.48558
2.69828
2.86756
2.15925
2.32897
2.52716
2.68551
2.01584
2.17326
2.35742
2.50464
1.87354
2.01871
2.18854
2.32491
1.73279
1.86582
2.02189
2.14727
1.59395
1.71512
1.85714
1.97163
1.4565
1.56597
1.6946
1.79826
1.32027
1.41821
1.53341
1.62674
1.18561
1.27224
1.37468
1.4578
1.05305
1.12873
1.21834
1.29151
0.922448
0.987499
1.06498
1.12839
0.793868
0.848702
0.91422
0.968341
0.667597
0.712664
0.766981
0.812014
0.543751
0.579668
0.622965
0.659215
0.421745
0.449002
0.482081
0.509834
0.301162
0.320145
0.343197
0.362904
0.182818
0.193373
0.206217
0.218024
0.0672201
0.0708732
0.0722843
0.0746133
606.804
601.398
588.109
572.968
567.421
565.001
573.368
581.552
586.365
587.511
586.96
587.816
589.025
590.473
592.56
593.293
593.365
592.404
594.507
485.158
488.596
481.677
472.5
465.703
462.792
465.516
465.622
465.912
465.273
464.434
464.359
464.486
465.473
468.129
472.094
476.666
481.524
490.506
407.439
404.811
402.946
402.512
397.687
389.853
381.809
378.714
376.741
375.448
374.417
373.423
372.314
371.21
370.174
370.012
371.603
375.388
381.588
345.491
341.628
339.074
336.663
332.441
326.364
319.389
315.017
312.226
310.627
309.307
307.876
306.179
304.01
300.889
296.903
293.373
291.245
291.153
283.737
278.87
274.912
271.383
267.432
262.609
256.645
251.759
248.657
246.569
244.969
243.54
242.051
240.258
237.881
234.942
231.637
227.354
223.059
220.768
215.547
210.764
206.306
201.724
196.828
191.726
187.451
184.244
181.942
180.3
179.067
177.999
176.893
175.534
173.696
171.19
167.453
163.18
157.509
151.745
146.092
140.718
135.414
130.144
125.32
121.302
118.095
115.721
114.19
113.32
112.826
112.565
112.431
111.959
110.83
108.549
105.031
93.9363
87.8476
81.0905
74.9913
69.3157
63.6111
59.0568
55.8462
53.2497
51.2373
50.1067
49.7975
49.8198
50.0435
50.745
51.0335
51.1696
50.7807
47.8341
34.926
31.2163
27.4698
24.3519
21.371
18.4476
16.5408
15.4485
14.5448
13.8578
13.6006
13.7244
13.9107
14.1704
14.6971
14.8778
14.9289
14.8148
13.4661
6.75635
6.15453
6.01755
5.8373
5.895
6.00503
6.12287
6.2265
6.30213
6.34791
6.38738
6.44314
6.53964
6.66077
6.61431
6.64935
6.42867
6.26293
6.16444
5.21432
5.43599
5.56161
5.6792
5.78796
5.89479
5.99398
6.09242
6.17596
6.22939
6.26149
6.28377
6.29301
6.25465
6.18749
6.10383
6.08524
6.10874
6.09958
5.19855
5.33188
5.43837
5.54523
5.64614
5.74228
5.82805
5.91758
5.99658
6.04763
6.05952
6.06726
6.0952
6.09047
6.05044
6.00587
5.98332
5.97357
5.96857
5.05768
5.17776
5.28892
5.39092
5.49102
5.57625
5.65336
5.72326
5.79213
5.84766
5.86959
5.87475
5.86674
5.86096
5.848
5.84705
5.84214
5.83932
5.83833
4.9132
5.02201
5.12695
5.23278
5.32568
5.41035
5.48343
5.53776
5.58927
5.63884
5.67841
5.69844
5.69412
5.68746
5.69018
5.69876
5.70275
5.70214
5.70124
4.76842
4.8708
4.96882
5.07038
5.1633
5.24666
5.31858
5.3752
5.41884
5.46013
5.50492
5.53564
5.54618
5.54846
5.55187
5.55637
5.55867
5.5571
5.55548
4.62151
4.71688
4.80994
4.9081
4.9991
5.08121
5.15282
5.2124
5.26165
5.30531
5.34468
5.37372
5.38935
5.39704
5.4018
5.40505
5.40535
5.40269
5.4011
4.46632
4.55657
4.64557
4.74067
4.82993
4.91098
4.98238
5.04349
5.09506
5.1395
5.17712
5.20555
5.2234
5.23389
5.23986
5.24255
5.24207
5.23944
5.2386
4.30288
4.38941
4.475
4.56737
4.65487
4.73487
4.80582
4.86731
4.91987
4.96439
5.00149
5.02984
5.04935
5.06164
5.06855
5.07124
5.07069
5.06864
5.06852
4.13218
4.21591
4.29863
4.3885
4.47421
4.55303
4.62331
4.68466
4.73737
4.78203
4.81886
4.84758
4.86826
4.88184
4.88957
4.89264
4.89241
4.89107
4.89155
3.95559
4.03683
4.1171
4.20458
4.28845
4.36594
4.43536
4.4963
4.54889
4.59349
4.63032
4.65939
4.68088
4.69545
4.704
4.70766
4.70806
4.70748
4.70831
3.77397
3.85304
3.93107
4.01623
4.09818
4.1742
4.2426
4.30291
4.35519
4.39967
4.43654
4.46592
4.48804
4.50341
4.51277
4.51722
4.51836
4.51846
4.51956
3.58867
3.66543
3.74134
3.82417
3.90411
3.97853
4.04574
4.10527
4.15709
4.20136
4.23824
4.2679
4.29055
4.30664
4.3168
4.32204
4.32399
4.32476
4.32599
3.40033
3.47494
3.54873
3.62919
3.70702
3.77968
3.84557
3.90416
3.95539
3.99937
4.03622
4.06609
4.08921
4.10594
4.11686
4.12294
4.12565
4.12696
4.12839
3.21027
3.2825
3.35412
3.43209
3.50766
3.57842
3.64283
3.70034
3.75087
3.79446
3.83121
3.86125
3.88476
3.90208
3.91372
3.92055
3.92399
3.92584
3.92739
3.01921
3.08906
3.15832
3.23365
3.30679
3.37548
3.43824
3.49454
3.54424
3.58734
3.62391
3.65404
3.67788
3.69571
3.708
3.71557
3.71967
3.72193
3.72367
2.82838
2.89543
2.96213
3.0346
3.1051
3.17153
3.23247
3.2874
3.33613
3.37863
3.41492
3.44506
3.46915
3.48743
3.50033
3.50852
3.51323
3.5159
3.51777
2.63815
2.70228
2.76617
2.83553
2.90319
2.96714
3.02608
3.07945
3.12707
3.16884
3.20475
3.2348
3.25907
3.27773
3.29114
3.29995
3.30516
3.30815
3.31021
2.44939
2.51016
2.57098
2.63698
2.70154
2.76281
2.81954
2.87118
2.91752
2.95842
2.99383
3.0237
3.04805
3.06702
3.08089
3.09018
3.09588
3.09921
3.10137
2.26223
2.31948
2.37695
2.43933
2.50057
2.55894
2.61325
2.66297
2.70785
2.74773
2.7825
2.81208
2.83644
2.85563
2.86987
2.87965
2.88576
2.88934
2.89167
2.07722
2.13055
2.18441
2.24296
2.30065
2.35589
2.40756
2.45516
2.49839
2.53708
2.57108
2.60025
2.6245
2.64384
2.65842
2.66857
2.67508
2.67896
2.68137
1.89423
1.9436
1.99366
2.04817
2.10211
2.15399
2.20281
2.24806
2.28945
2.32676
2.35982
2.38845
2.4125
2.43192
2.44675
2.4573
2.46415
2.46825
2.4708
1.71368
1.7589
1.80501
1.8553
1.90528
1.9536
1.99933
2.04201
2.08133
2.11707
2.14901
2.17695
2.20069
2.22009
2.23514
2.246
2.2532
2.25756
2.26014
1.53559
1.57674
1.61878
1.66471
1.71054
1.75508
1.7975
1.83736
1.87437
1.90831
1.93894
1.96602
1.98931
2.0086
2.02379
2.03497
2.04246
2.04698
2.04965
1.36053
1.39746
1.43532
1.47676
1.51828
1.55883
1.59771
1.6345
1.66895
1.70083
1.72992
1.75594
1.77861
1.79768
1.81294
1.82432
1.83208
1.83679
1.83939
1.18858
1.22138
1.25501
1.29184
1.32889
1.36526
1.40035
1.43382
1.46543
1.49499
1.52227
1.54699
1.56886
1.58754
1.60273
1.61428
1.6222
1.62694
1.62952
1.02024
1.04881
1.07815
1.11028
1.14271
1.17472
1.2058
1.23568
1.26417
1.2911
1.31626
1.33941
1.36023
1.37834
1.39335
1.40487
1.41285
1.41759
1.42
0.855521
0.879927
0.904925
0.932285
0.959988
0.987464
1.01432
1.04034
1.0654
1.08937
1.11209
1.13334
1.15282
1.17014
1.18476
1.19621
1.20408
1.2086
1.21087
0.69465
0.714742
0.735343
0.757869
0.780738
0.803525
0.82594
0.847842
0.869152
0.889796
0.909677
0.928637
0.94643
0.962668
0.976785
0.988001
0.995745
1.00002
1.00202
0.53713
0.552944
0.569105
0.586733
0.604666
0.622609
0.64037
0.657871
0.675084
0.691991
0.708563
0.72473
0.740346
0.755112
0.76847
0.779586
0.787352
0.791422
0.793415
0.382705
0.394201
0.405866
0.418515
0.431382
0.444301
0.457168
0.469959
0.482684
0.495375
0.508064
0.520778
0.533506
0.54614
0.558359
0.569319
0.577673
0.582484
0.584936
0.230831
0.238401
0.245588
0.253256
0.261028
0.268849
0.276687
0.284554
0.292484
0.300532
0.308767
0.317278
0.326172
0.335556
0.345458
0.355596
0.364769
0.371427
0.376866
0.0783454
0.0808755
0.0832484
0.0857544
0.0883061
0.0908772
0.0934653
0.0960842
0.0987591
0.101524
0.104424
0.107521
0.110898
0.114675
0.119016
0.12404
0.129062
0.131596
0.141937
)
;

boundaryField
{
    leftWall
    {
        type            calculated;
        value           nonuniform List<scalar> 
50
(
6603.18
5814.53
5035.29
4264.9
3503.86
2751.74
2003.24
1298.61
758.475
517.295
402.044
287.52
178.204
90.3983
30.8678
5.11728
2.68093
2.54705
2.41356
2.29174
2.17729
2.0682
1.96321
1.86172
1.76382
1.66992
1.57969
1.49292
1.40937
1.32884
1.25105
1.17573
1.10259
1.03143
0.962015
0.894215
0.827882
0.762927
0.699215
0.636642
0.575046
0.514295
0.454164
0.394453
0.334919
0.275414
0.215729
0.155716
0.0954702
0.0339817
)
;
    }
    rightWall
    {
        type            calculated;
        value           nonuniform List<scalar> 
50
(
3092.26
2503.03
1922.27
1443.55
1084.84
853.702
743.842
668.366
594.507
490.506
381.588
291.153
223.059
163.18
105.031
47.8341
13.4661
6.16444
6.09958
5.96857
5.83833
5.70124
5.55548
5.4011
5.2386
5.06852
4.89155
4.70831
4.51956
4.32599
4.12839
3.92739
3.72367
3.51777
3.31021
3.10137
2.89167
2.68137
2.4708
2.26014
2.04965
1.83939
1.62952
1.42
1.21087
1.00202
0.793415
0.584936
0.376866
0.141937
)
;
    }
    lowerWall
    {
        type            calculated;
        value           nonuniform List<scalar> 
62
(
7001.33
6959.88
6887.7
6782.1
6654.78
6513.25
6365.62
6218.97
6078.19
5946.81
5826.51
5718.5
5622.71
5538.52
5465.08
5401.73
5348.41
5304.99
5271.02
5245.4
5226.42
5214.48
5208.51
4810.57
4014.56
3217.77
2419.8
1621.34
1008.49
765.892
707.199
689.245
712.727
712.709
706.859
2203.69
1630.04
1336
1169.31
995.504
858.187
773.386
714.134
2554.24
2544.78
2542.6
2563.65
2593.8
2623.07
2630.8
2563.45
2593.8
2650.03
2690.68
2716.03
2733.97
2792.5
2941.64
3077.42
3202.42
3314.99
3395.08
)
;
    }
    atmosphere
    {
        type            calculated;
        value           nonuniform List<scalar> 
46
(
-2.04207e-05
0
0
0
0
0
0
0
0
0
0
0
0
0
0
0
0
0
0
0
0
0
-3.41909e-06
-1.67978e-06
-4.68059e-06
-1.04602e-05
-2.08217e-05
-2.65043e-05
-7.31276e-05
-0.000149452
-0.000253955
-0.000384129
-0.000536171
-0.000704871
-0.000883378
-0.00106344
-0.00123615
-0.00139303
-0.00152734
-0.00163548
-0.00171855
-0.00178438
-0.00184955
-0.00193022
-0.00208037
-0.00122322
)
;
    }
    defaultFaces
    {
        type            empty;
    }
}


// ************************************************************************* //
