/*--------------------------------*- C++ -*----------------------------------*\
  =========                 |
  \\      /  F ield         | OpenFOAM: The Open Source CFD Toolbox
   \\    /   O peration     | Website:  https://openfoam.org
    \\  /    A nd           | Version:  13
     \\/     M anipulation  |
\*---------------------------------------------------------------------------*/
FoamFile
{
    format      ascii;
    class       volScalarField;
    location    "2.05";
    object      p_rgh;
}
// * * * * * * * * * * * * * * * * * * * * * * * * * * * * * * * * * * * * * //

dimensions      [1 -1 -2 0 0 0 0];

internalField   nonuniform List<scalar> 
2268
(
7001.33
6959.88
6887.7
6782.1
6654.78
6513.25
6365.62
6218.97
6078.19
5946.81
5826.51
5718.5
5622.71
5538.52
5465.08
5401.73
5348.41
5304.99
5271.02
5245.4
5226.42
5214.48
5208.51
7008.98
6970.19
6901.56
6795.64
6666.46
6522.18
6371.32
6221.36
6077.54
5942.87
5820.16
5710.19
5612.95
5527.81
5453.89
5390.41
5337.28
5294.24
5260.86
5236.49
5219.83
5212.46
5208.78
7026.04
6984.76
6918.34
6811.61
6680.21
6532.71
6378.04
6224.21
6076.73
5938.67
5812.91
5700.4
5601.22
5514.82
5440.29
5376.68
5324.07
5282.06
5250.3
5228.47
5215.55
5212.77
5208.52
7051.95
7007.34
6939.67
6830.33
6695.47
6543.87
6384.74
6226.75
6075.37
5933.51
5804.44
5689.26
5588.08
5500.38
5425.25
5361.57
5309.43
5268.63
5238.97
5220.44
5212.13
5213.43
5206.85
7087.21
7038.96
6967.95
6853.99
6714.23
6557.01
6391.94
6228.67
6072.67
5926.15
5793.74
5676.68
5574.71
5487.03
5412.53
5349.27
5295.07
5248.89
5214.06
5194.73
5192.59
5203.83
5198.51
7131.39
7080.87
7005.58
6884.81
6738.14
6572.13
6396.79
6225.2
6063.93
5817.63
5513.74
5174.55
4828.68
4496.58
4188.65
3860.35
3586.35
3383.49
3254.4
3205.32
3241.25
3346.14
3348.06
7179.18
7135.6
7053.79
6920.84
6761.09
6426.08
5720.44
4837.08
3838.34
2957.65
2321.44
1883.23
1585.05
1382.11
1245.65
1223.68
1216.37
1207.6
1196.96
1184.27
1169.67
1155.91
1147.92
7216.53
7015.85
6551.96
5680.44
4374.51
2954.43
1996.25
1439.59
1250.16
1241.56
1240.86
1239.49
1237.32
1234.28
1230.42
1224.69
1217.28
1208.02
1196.8
1183.69
1169.29
1156.07
1148.49
2554.24
2544.78
2542.6
2563.65
2593.8
2623.07
2630.8
2563.45
2593.8
2650.03
2690.68
2716.03
2733.97
2792.5
2941.64
3077.42
3202.42
3314.99
3395.08
2295.54
2279.93
2303.28
2350.67
2411.41
2499.3
2538.88
2683.43
2740.66
2796.06
2839.74
2851.92
2843.29
2907.61
2975.43
3081.26
3211.41
3329.7
3411.5
1706.2
1671.27
1620.1
1615.12
1714.45
1698.79
1813.47
1954.33
2191.42
2454.85
2572.77
2668.41
2666.05
2753.87
2849.84
2984.01
3214.46
3350.49
3400.78
1819.7
1831.9
1671.8
1638.56
1492.19
1402.23
1317.8
1251.47
1199.03
1155.67
1205.3
1573.19
1718.53
1731.73
1865.45
2041.86
2321.36
2897.05
2847.38
1735.98
1793.18
1781.7
1774.41
1546.41
1348.53
1315.26
1332.22
1204.52
1140.59
1079.64
971.757
1356.15
1563.63
1578.65
1843.08
2003.07
1878.42
2709.48
1487.06
1477.97
1549.01
1516.03
1558.21
1463.04
1420.78
1476.38
1305.26
1137.13
1120.18
1012.58
891.518
1054.24
1212.78
1309.57
1472.77
1817.21
1573.36
1156.65
1139.05
1195.06
1256.68
1330
1419.26
1437.76
1417.13
1179.72
1129.63
1127.14
1121.28
1071.04
983.956
982.718
1044.98
1061.22
1072.45
1433.72
1181.65
1110.88
1131.75
1140.06
1109.75
1366.59
1455.72
1109.49
1122.87
1126.67
1125.51
1126.8
1126.83
1118.14
1111.91
1114.84
1119.95
1111.89
1076.2
2459.03
2204.18
1806.31
1438.46
1246.98
1221.24
1226.81
1231.3
1234.58
1236.72
1237.76
1237.45
1235.81
1232.87
1228.67
1222.96
1215.56
1206.29
1195.22
1182.61
1169.57
1157.88
1147.74
1175.96
1177.88
1186.65
1197.62
1208.01
1216.44
1223.36
1228.74
1232.56
1235.09
1236.34
1236.41
1235.26
1232.71
1228.69
1223.3
1216.27
1207.45
1194.9
1172.71
1147.26
1127.27
1089.96
1185.9
1189.14
1195.76
1203.21
1210.72
1217.51
1223.57
1228.45
1232.07
1234.75
1236.38
1236.98
1236.46
1233.49
1222.65
1208.21
1192.82
1162.16
1105.26
1050.36
961.202
846.499
827.193
1196.57
1199.93
1202.61
1206.84
1212.69
1219.28
1224.37
1227.01
1224.42
1218.49
1210.26
1197.56
1173.66
1130.33
1064.01
1024.98
962.535
884.177
820.137
759.358
767.551
808.338
804.209
1084.64
1107.51
1125.3
1106.82
1061.67
1025.62
1042.59
1013.69
969.54
953.422
894.619
831.608
796.582
766.474
726.558
708.089
747.446
726.761
713.972
784.984
808.428
809.262
804.998
775.812
729.243
707.774
699.332
698.981
703.707
703.3
674.881
646.851
687.118
701.086
707.513
725.772
739.432
748.084
772.863
789.226
791.058
791.767
808.239
810.733
810.839
810.441
519.858
563.457
613.823
636.771
649.304
660.298
670.609
675.946
685.064
699.327
717.258
740.08
757.57
770.166
781.598
791.385
799.505
806.224
810.442
812.41
813.232
812.96
811.513
58.6161
88.8229
124.155
157.52
184.834
206.941
229.422
268.845
307.185
341.974
391.494
448.463
530.085
628.7
731.642
789.397
803.53
813.222
817.487
818.544
817.825
815.885
812.917
4.21591
4.20997
4.15777
4.15889
4.21935
4.28697
4.34707
4.40591
4.5208
5.39617
8.93382
16.6868
33.4479
74.0502
145.405
287.22
515.329
724.254
820.617
825.171
824.83
821.019
791.56
4.20832
4.20747
4.20291
4.22534
4.43362
4.50964
4.30084
4.29048
4.34022
4.41344
4.51504
4.64898
4.80351
4.95317
5.06633
5.17229
12.3345
70.064
171.613
294.905
348.823
330.692
239.42
4.20096
4.19954
4.19756
4.25021
4.20493
4.22467
4.26028
4.299
4.35178
4.42347
4.49404
4.51212
4.55609
4.5977
4.64567
4.73093
4.87666
5.0644
5.19137
5.20422
5.28086
5.39662
5.68382
4.20348
4.19692
4.18793
4.18863
4.20051
4.22355
4.25765
4.30919
4.44527
4.57729
4.6358
4.62992
4.58395
4.63509
4.68726
4.74295
4.79687
4.88273
5.01196
5.1517
5.32318
5.50686
5.72744
4.21364
4.20477
4.1982
4.19929
4.21
4.23058
4.26148
4.31927
4.52582
4.58531
4.64588
4.68685
4.60471
4.66804
4.7362
4.79898
4.87201
4.95943
5.08049
5.21951
5.37458
5.5395
5.71982
4.22966
4.22098
4.21496
4.21595
4.22541
4.2438
4.27137
4.30961
4.4241
4.56413
4.60958
4.56297
4.60572
4.6805
4.75637
4.83795
4.92383
5.02782
5.15001
5.2788
5.41768
5.56115
5.72509
4.24966
4.2414
4.23562
4.23663
4.24544
4.2624
4.28762
4.32087
4.36171
4.41538
4.47021
4.53196
4.60414
4.68034
4.76339
4.85306
4.94838
5.05616
5.17906
5.30885
5.44492
5.58057
5.73307
4.27323
4.26554
4.26033
4.26154
4.26995
4.28576
4.3091
4.33992
4.37791
4.42319
4.47603
4.53752
4.60828
4.68532
4.76651
4.85673
4.95579
5.06674
5.19043
5.32202
5.45863
5.59163
5.73598
4.30052
4.2937
4.28925
4.29075
4.29892
4.31389
4.33585
4.36483
4.40086
4.44416
4.49527
4.55409
4.62068
4.69367
4.77495
4.86531
4.96514
5.0767
5.1998
5.33102
5.46654
5.59686
5.73603
4.33181
4.32591
4.32224
4.32404
4.332
4.34631
4.36716
4.39471
4.42907
4.47058
4.51973
4.57638
4.64031
4.71127
4.7909
4.87976
4.9784
5.0883
5.20943
5.33856
5.47151
5.59864
5.7333
4.36678
4.36183
4.35896
4.36106
4.36886
4.38259
4.40248
4.42874
4.46159
4.50132
4.54827
4.60272
4.66421
4.73332
4.81094
4.89757
4.99401
5.10133
5.21937
5.34527
5.47464
5.59803
5.72822
4.40519
4.40113
4.39906
4.40148
4.40916
4.42237
4.44137
4.46642
4.49781
4.53583
4.58076
4.6328
4.69211
4.75897
4.83401
4.91789
5.01142
5.11549
5.22983
5.35164
5.4767
5.59583
5.72112
4.44683
4.44361
4.44228
4.44501
4.45256
4.46526
4.48341
4.50731
4.53726
4.57358
4.61655
4.66639
4.72326
4.78746
4.85962
4.94039
5.03052
5.13078
5.24085
5.35803
5.47825
5.59268
5.71299
4.49148
4.48901
4.48834
4.49133
4.49874
4.51092
4.52823
4.55098
4.57951
4.61412
4.6551
4.70267
4.75699
4.8184
4.88749
4.96487
5.05123
5.14727
5.25263
5.36472
5.47968
5.58915
5.70415
4.53887
4.53707
4.53696
4.54014
4.54735
4.559
4.57547
4.59708
4.62418
4.65707
4.69604
4.74129
4.79301
4.85154
4.91742
4.99121
5.07353
5.16502
5.26531
5.37195
5.48127
5.5854
5.69494
4.58873
4.5875
4.58785
4.59114
4.5981
4.60919
4.6248
4.64527
4.67095
4.70213
4.73908
4.782
4.83108
4.88669
4.94929
5.01932
5.09739
5.18408
5.27904
5.37991
5.48328
5.58179
5.68536
4.64078
4.64005
4.64075
4.64405
4.6507
4.6612
4.67595
4.69529
4.71956
4.74905
4.78399
4.82458
4.87105
4.92373
4.98296
5.04913
5.12281
5.20453
5.29393
5.38883
5.48606
5.57873
5.67628
4.6948
4.69447
4.69541
4.69863
4.70492
4.71481
4.72869
4.74692
4.7698
4.79762
4.83059
4.86892
4.91283
4.96256
5.01836
5.0806
5.14978
5.22641
5.31014
5.39896
5.48991
5.57668
5.66801
4.75058
4.75053
4.75162
4.75466
4.76055
4.76981
4.78284
4.79999
4.82154
4.84776
4.87885
4.915
4.95636
5.00309
5.05542
5.11367
5.17831
5.24978
5.32778
5.41044
5.49505
5.57579
5.66091
4.80796
4.80814
4.80921
4.81207
4.81756
4.82621
4.83844
4.85457
4.87487
4.89956
4.92882
4.96278
5.00155
5.04527
5.0941
5.14833
5.20839
5.27468
5.34692
5.42338
5.50159
5.57624
5.65488
4.86682
4.86718
4.86824
4.87091
4.87602
4.88412
4.89559
4.91075
4.92982
4.953
4.98042
5.01219
5.04836
5.08903
5.13434
5.18453
5.23999
5.30109
5.36756
5.43783
5.50966
5.57817
5.65044
4.92705
4.92755
4.92859
4.93111
4.93589
4.94348
4.95425
4.96847
4.98634
5.00801
5.0336
5.06314
5.0967
5.1343
5.17607
5.22221
5.27307
5.32897
5.38969
5.45378
5.51923
5.58167
5.6475
4.98852
4.98916
4.9902
4.99259
4.9971
5.00424
5.01434
5.02765
5.04433
5.0645
5.08823
5.11555
5.14646
5.18098
5.2192
5.26128
5.30753
5.35824
5.4132
5.47113
5.53021
5.58654
5.64601
5.05114
5.05188
5.05297
5.0553
5.05959
5.06632
5.07578
5.08819
5.10368
5.12233
5.14419
5.16926
5.1975
5.22892
5.26356
5.30157
5.34321
5.38875
5.43798
5.48976
5.54249
5.5927
5.64563
5.11474
5.11562
5.11681
5.11914
5.12325
5.12958
5.13841
5.1499
5.16417
5.18129
5.20124
5.22402
5.24957
5.27786
5.30892
5.34287
5.37993
5.42032
5.46388
5.50958
5.55604
5.60019
5.64677
5.17918
5.1802
5.18154
5.1839
5.18784
5.19378
5.20195
5.21251
5.22553
5.24106
5.25907
5.27953
5.30235
5.32751
5.355
5.38491
5.41743
5.45276
5.49074
5.53051
5.57085
5.60914
5.6495
5.24425
5.24543
5.24694
5.24932
5.25309
5.25861
5.26609
5.27567
5.28739
5.30128
5.31731
5.3354
5.35548
5.3775
5.40144
5.42737
5.45545
5.48584
5.51842
5.55244
5.58688
5.61951
5.65394
5.30973
5.31107
5.31273
5.31511
5.31867
5.32373
5.33046
5.33899
5.34935
5.36155
5.37554
5.39124
5.40857
5.42747
5.44791
5.46995
5.4937
5.51933
5.54672
5.57525
5.60405
5.63129
5.65998
5.37539
5.3769
5.37868
5.38101
5.38428
5.3888
5.39471
5.40212
5.41106
5.42151
5.43341
5.44669
5.46127
5.47707
5.49408
5.51233
5.53193
5.55301
5.57546
5.59878
5.6223
5.64448
5.66788
5.44108
5.44277
5.44461
5.4468
5.4497
5.45359
5.4586
5.46482
5.47226
5.48089
5.49067
5.5015
5.51333
5.52608
5.53974
5.55433
5.56994
5.58667
5.60447
5.62291
5.64146
5.65897
5.67744
5.50659
5.50853
5.51036
5.51232
5.51477
5.51796
5.52201
5.52697
5.53285
5.53962
5.54722
5.55559
5.56467
5.57441
5.58479
5.59583
5.60762
5.62022
5.6336
5.64743
5.66134
5.67445
5.68838
5.57177
5.57406
5.5758
5.57748
5.57947
5.58196
5.58502
5.58869
5.59297
5.59783
5.60323
5.60912
5.61547
5.62223
5.62941
5.63702
5.64512
5.65378
5.66295
5.67243
5.68193
5.69091
5.70045
5.63672
5.63907
5.64071
5.64206
5.64362
5.64542
5.64749
5.64984
5.65249
5.6554
5.65857
5.66197
5.66559
5.66942
5.67347
5.67774
5.68229
5.68716
5.69235
5.69771
5.70314
5.70831
5.71389
5.70042
5.70006
5.70057
5.70121
5.70195
5.70266
5.7034
5.70421
5.70509
5.70605
5.70708
5.70817
5.70933
5.71056
5.71186
5.71324
5.71474
5.71637
5.71814
5.72005
5.72208
5.72426
5.72735
1242.15
1448.69
1465.66
1434.77
918.664
839.974
823.694
885.924
750.574
745.472
739.373
777.088
729.317
729.2
785.714
797.099
802.283
804.207
809.239
806.324
810.19
808.855
806.864
804.577
809.702
808.167
806.194
803.96
810.665
808.697
805.919
803.092
809.922
814.457
810.175
800.306
212.879
238.87
209.757
124.246
6.08521
6.38875
6.59559
6.74845
6.02727
6.31622
6.63191
6.87875
5.99902
6.2891
6.61354
6.86432
5.99379
6.27948
6.6024
6.8522
5.99245
6.27084
6.58914
6.83709
5.98618
6.25981
6.57469
6.81996
5.97834
6.24495
6.5533
6.79416
5.96774
6.22623
6.52585
6.76078
5.95409
6.20353
6.49345
6.72115
5.93796
6.17752
6.45624
6.67595
5.92023
6.14921
6.41617
6.62681
5.90172
6.11962
6.37346
6.57433
5.88217
6.08848
6.32908
6.51956
5.8619
6.05617
6.28271
6.46279
5.84173
6.02372
6.23642
6.4057
5.82258
5.9923
6.19049
6.34884
5.80437
5.96178
6.14595
6.29317
5.78726
5.93243
6.10226
6.23863
5.7717
5.90473
6.06081
6.18619
5.75806
5.87923
6.02125
6.13574
5.7458
5.85527
5.9839
6.08757
5.73477
5.83271
5.94791
6.04124
5.72531
5.81193
5.91437
5.99749
5.71794
5.79361
5.88322
5.95639
5.71253
5.77758
5.85506
5.91847
5.70914
5.76398
5.8295
5.88362
5.70807
5.75313
5.80745
5.85248
5.70942
5.74533
5.78863
5.82488
5.7126
5.73986
5.77294
5.80069
5.71722
5.7362
5.75925
5.77896
5.72407
5.73462
5.74747
5.75927
5.73366
5.73732
5.73873
5.74106
1253.96
1070.93
1055.82
1054.2
1134.89
1084.55
1101.92
1114.74
1118.7
1120.2
1120.51
1121.65
1122.9
1124.16
1126.1
1126.83
1126.9
1125.77
1025.9
999.28
1017.16
997.239
838.07
790.565
829.503
1003.42
1045.76
1066.68
1064.71
1058.05
1059.42
1065.54
1076.22
1107.62
1131.24
1135.44
1139.9
1144.01
820.065
816.412
795.015
793.99
779.531
758.472
782.087
786.235
799.083
792.342
785.829
786.056
788.669
794.878
824.332
901.795
996.004
1085
1153.38
789.405
794.356
793.57
791.445
779.362
746.63
745.888
769.845
767.415
765.269
763.846
762.48
760.886
758.894
756.512
752.511
755.282
819.485
931.385
801.25
796.011
791.748
788.064
784.431
779.812
773.783
768.885
765.83
763.687
762.088
760.663
759.169
757.288
755.16
752.729
749.683
773.452
818.699
800.493
795.268
790.485
786.026
781.445
776.549
771.447
767.171
763.962
761.663
760.022
758.788
757.719
756.613
755.253
753.059
750.455
754.653
756.919
799.829
794.067
788.411
783.038
777.734
772.465
767.64
763.619
760.411
758.038
756.508
755.638
755.145
754.883
754.752
754.723
749.336
744.741
742.964
798.852
792.763
786.006
779.909
773.668
762.968
750.422
741.504
734.516
728.511
725.866
727.215
728.316
728.097
738.986
748.151
749.642
739.173
722.911
765.376
682.143
568.878
495.712
422.533
337.911
282.686
255.478
235.575
220.212
215.5
221.003
223.413
223.426
244.407
245.961
251.835
242.158
196.279
65.1286
27.023
18.3353
10.4094
7.55598
7.6689
7.79934
7.95329
8.19878
8.69106
9.65379
11.3588
14.8587
20.802
21.9667
26.6782
19.6574
9.69088
7.83796
6.99975
7.22143
7.34717
7.46512
7.57454
7.68349
7.78819
7.89614
8.01786
8.31572
8.91193
9.22762
8.66146
8.41993
8.13715
7.91581
7.87197
7.89727
7.88649
7.10922
7.24258
7.34915
7.45626
7.55824
7.657
7.76732
8.19844
8.4605
8.16552
8.04465
8.1264
9.23955
9.19422
8.72646
7.93012
7.8974
7.88696
7.87994
7.09355
7.21366
7.32488
7.42702
7.52747
7.61417
7.71189
8.52414
8.83503
8.88779
8.00314
7.95542
8.5954
8.99637
8.43593
7.8899
7.88108
7.878
7.87476
7.07429
7.18309
7.28807
7.394
7.487
7.57175
7.64554
7.84505
8.59024
8.82208
8.18036
7.8613
7.85967
7.85236
7.85283
7.86311
7.86499
7.86335
7.86286
7.0547
7.15707
7.25509
7.35673
7.44979
7.53312
7.60507
7.66149
7.70512
7.76301
7.8166
7.82488
7.83451
7.83586
7.83837
7.84272
7.84494
7.84357
7.84245
7.03298
7.12834
7.22138
7.31958
7.41067
7.49279
7.56469
7.62435
7.67336
7.7169
7.75635
7.786
7.80206
7.80942
7.81368
7.81652
7.81682
7.81441
7.81331
7.00296
7.0932
7.18219
7.27732
7.36658
7.44761
7.51956
7.58121
7.63272
7.6765
7.71392
7.7426
7.76141
7.77191
7.77711
7.77926
7.77873
7.77639
7.776
6.9647
7.05122
7.1368
7.22919
7.31669
7.39669
7.46765
7.52978
7.58246
7.62662
7.66344
7.69177
7.71162
7.72399
7.73051
7.73307
7.73256
7.73057
7.73054
6.91917
7.0029
7.08562
7.17549
7.26122
7.34004
7.41032
7.47167
7.5244
7.56908
7.60594
7.63461
7.65526
7.66884
7.67656
7.67965
7.67945
7.67808
7.67855
6.86777
6.949
7.02928
7.11676
7.20063
7.27813
7.34756
7.4085
7.4611
7.50571
7.54256
7.57161
7.59308
7.60763
7.61619
7.61986
7.62027
7.61967
7.62049
6.81134
6.89041
6.96843
7.0536
7.13555
7.21157
7.27997
7.34029
7.39258
7.43706
7.47393
7.5033
7.52543
7.54079
7.55015
7.55461
7.55573
7.55584
7.55694
6.75123
6.82799
6.90389
6.98673
7.06667
7.14108
7.2083
7.26783
7.31965
7.36392
7.40081
7.43046
7.45312
7.4692
7.47937
7.48461
7.48656
7.48733
7.48857
6.68808
6.76269
6.83648
6.91694
6.99476
7.06743
7.13332
7.19191
7.24314
7.28712
7.32397
7.35385
7.37697
7.3937
7.40462
7.4107
7.41342
7.41473
7.41616
6.62322
6.69545
6.76706
6.84503
6.9206
6.99136
7.05577
7.11329
7.16381
7.20741
7.24416
7.27419
7.29771
7.31502
7.32667
7.3335
7.33696
7.33882
7.34037
6.55735
6.6272
6.69646
6.77179
6.84493
6.91362
6.97638
7.03268
7.08238
7.12548
7.16205
7.19218
7.21602
7.23385
7.24615
7.25373
7.25784
7.26014
7.26187
6.49171
6.55877
6.62546
6.69793
6.76844
6.83486
6.8958
6.95073
6.99946
7.04196
7.07825
7.10839
7.13248
7.15077
7.16367
7.17187
7.1766
7.17936
7.18118
6.42668
6.49081
6.5547
6.62406
6.69171
6.75567
6.8146
6.86798
6.91559
6.95737
6.99328
7.02333
7.0476
7.06626
7.07967
7.08849
7.09375
7.09683
7.09886
6.36311
6.42388
6.4847
6.55069
6.61526
6.67653
6.73326
6.7849
6.83124
6.87214
6.90755
6.93742
6.96178
6.98074
6.99462
7.00393
7.00968
7.01312
7.01522
6.30114
6.35839
6.41586
6.47825
6.53949
6.59785
6.65216
6.70189
6.74677
6.78665
6.82142
6.851
6.87535
6.89455
6.90879
6.91859
6.92477
6.92846
6.93072
6.24133
6.29466
6.34852
6.40707
6.46476
6.52
6.57167
6.61927
6.6625
6.70119
6.73519
6.76436
6.78861
6.80796
6.82253
6.83271
6.8393
6.84328
6.8456
6.18353
6.23291
6.28296
6.33747
6.39141
6.4433
6.49211
6.53736
6.57875
6.61607
6.64913
6.67775
6.70181
6.72123
6.73606
6.74664
6.75359
6.75777
6.76022
6.12818
6.1734
6.21951
6.2698
6.31978
6.3681
6.41383
6.4565
6.49582
6.53156
6.56351
6.59145
6.61519
6.6346
6.64965
6.66053
6.66783
6.67228
6.67472
6.07528
6.11643
6.15847
6.2044
6.25023
6.29477
6.33719
6.37705
6.41406
6.448
6.47863
6.50571
6.529
6.5483
6.5635
6.5747
6.58228
6.58682
6.58941
6.02541
6.06234
6.10021
6.14165
6.18316
6.22372
6.26259
6.29938
6.33383
6.36572
6.39481
6.42083
6.44351
6.46258
6.47784
6.48924
6.49704
6.50176
6.5043
5.97866
6.01146
6.04509
6.08192
6.11897
6.15535
6.19043
6.2239
6.25551
6.28507
6.31235
6.33707
6.35894
6.37763
6.39283
6.40439
6.41233
6.41704
6.41962
5.93551
5.96408
5.99342
6.02556
6.05799
6.09
6.12108
6.15096
6.17945
6.20637
6.23154
6.25469
6.27551
6.29363
6.30864
6.32017
6.32814
6.33288
6.33529
5.89599
5.9204
5.9454
5.97276
6.00046
6.02793
6.05479
6.08081
6.10587
6.12984
6.15256
6.17381
6.1933
6.21061
6.22524
6.2367
6.24456
6.24908
6.25135
5.86031
5.88041
5.90101
5.92353
5.9464
5.96919
5.9916
6.01351
6.03482
6.05546
6.07534
6.0943
6.1121
6.12834
6.14246
6.15368
6.16142
6.16569
6.16769
5.82799
5.8438
5.85996
5.87759
5.89553
5.91347
5.93123
5.94873
5.96594
5.98285
5.99942
6.01559
6.03121
6.04598
6.05934
6.07045
6.07822
6.08228
6.08428
5.79876
5.81025
5.82192
5.83457
5.84744
5.86036
5.87322
5.88601
5.89874
5.91143
5.92412
5.93683
5.94956
5.9622
5.97442
5.98538
5.99373
5.99854
6.00099
5.77208
5.77965
5.78684
5.7945
5.80228
5.8101
5.81794
5.8258
5.83373
5.84178
5.85002
5.85853
5.86742
5.87681
5.88671
5.89685
5.90602
5.91268
5.91811
5.74479
5.74732
5.74969
5.7522
5.75475
5.75732
5.75991
5.76253
5.7652
5.76797
5.77087
5.77396
5.77734
5.78112
5.78546
5.79048
5.7955
5.79804
5.80838
)
;

boundaryField
{
    leftWall
    {
        type            fixedFluxPressure;
        gradient        uniform 0;
        value           nonuniform List<scalar> 
50
(
7001.33
7008.98
7026.04
7051.95
7087.21
7131.39
7179.18
7216.53
2459.03
1175.96
1185.9
1196.57
1084.64
775.812
519.858
58.6161
4.21591
4.20832
4.20096
4.20348
4.21364
4.22966
4.24966
4.27323
4.30052
4.33181
4.36678
4.40519
4.44683
4.49148
4.53887
4.58873
4.64078
4.6948
4.75058
4.80796
4.86682
4.92705
4.98852
5.05114
5.11474
5.17918
5.24425
5.30973
5.37539
5.44108
5.50659
5.57177
5.63672
5.70042
)
;
    }
    rightWall
    {
        type            fixedFluxPressure;
        gradient        uniform 0;
        value           nonuniform List<scalar> 
50
(
3395.08
3411.5
3400.78
2847.38
2709.48
1573.36
1433.72
1076.2
1025.9
1144.01
1153.38
931.385
818.699
756.919
742.964
722.911
196.279
7.83796
7.88649
7.87994
7.87476
7.86286
7.84245
7.81331
7.776
7.73054
7.67855
7.62049
7.55694
7.48857
7.41616
7.34037
7.26187
7.18118
7.09886
7.01522
6.93072
6.8456
6.76022
6.67472
6.58941
6.5043
6.41962
6.33529
6.25135
6.16769
6.08428
6.00099
5.91811
5.80838
)
;
    }
    lowerWall
    {
        type            fixedFluxPressure;
        gradient        uniform 0;
        value           nonuniform List<scalar> 
62
(
7001.33
6959.88
6887.7
6782.1
6654.78
6513.25
6365.62
6218.97
6078.19
5946.81
5826.51
5718.5
5622.71
5538.52
5465.08
5401.73
5348.41
5304.99
5271.02
5245.4
5226.42
5214.48
5208.51
5208.51
5208.78
5208.52
5206.85
5198.51
3348.06
1147.92
1148.49
1242.15
1448.69
1465.66
1434.77
2554.24
2295.54
1706.2
1819.7
1735.98
1487.06
1156.65
1181.65
2554.24
2544.78
2542.6
2563.65
2593.8
2623.07
2630.8
2563.45
2593.8
2650.03
2690.68
2716.03
2733.97
2792.5
2941.64
3077.42
3202.42
3314.99
3395.08
)
;
    }
    atmosphere
    {
        type            prghTotalPressure;
        rho             rho;
        psi             none;
        gamma           1;
        p0              uniform 0;
        value           nonuniform List<scalar> 
46
(
5.72902
5.72903
5.72903
5.72904
5.72904
5.72904
5.72904
5.72904
5.72904
5.72904
5.72904
5.72904
5.72904
5.72904
5.72904
5.72904
5.72904
5.72904
5.72904
5.72904
5.72904
5.72904
5.72904
5.72904
5.72904
5.72903
5.72902
5.72901
5.72897
5.72889
5.72879
5.72866
5.7285
5.72834
5.72816
5.72798
5.7278
5.72765
5.72751
5.7274
5.72732
5.72726
5.72719
5.72711
5.72696
5.72782
)
;
        rho             rho;
    }
    defaultFaces
    {
        type            empty;
    }
}


// ************************************************************************* //
