/*--------------------------------*- C++ -*----------------------------------*\
  =========                 |
  \\      /  F ield         | OpenFOAM: The Open Source CFD Toolbox
   \\    /   O peration     | Website:  https://openfoam.org
    \\  /    A nd           | Version:  13
     \\/     M anipulation  |
\*---------------------------------------------------------------------------*/
FoamFile
{
    format      ascii;
    class       surfaceScalarField;
    location    "2.05";
    object      phi;
}
// * * * * * * * * * * * * * * * * * * * * * * * * * * * * * * * * * * * * * //

dimensions      [0 3 -1 0 0 0 0];

internalField   nonuniform List<scalar> 
4432
(
1.18256e-06
-1.18256e-06
5.68311e-07
6.14254e-07
-5.40988e-07
1.1093e-06
-1.61966e-06
1.07867e-06
-2.547e-06
9.27332e-07
-3.27794e-06
7.30937e-07
-3.79267e-06
5.14731e-07
-4.09189e-06
2.99217e-07
-4.19648e-06
1.04591e-07
-4.13988e-06
-5.66e-08
-3.94768e-06
-1.922e-07
-3.64237e-06
-3.05308e-07
-3.25283e-06
-3.89532e-07
-2.80746e-06
-4.45376e-07
-2.33192e-06
-4.75539e-07
-1.85151e-06
-4.80406e-07
-1.37999e-06
-4.7152e-07
-9.13234e-07
-4.66749e-07
-4.31348e-07
-4.81883e-07
7.74189e-08
-5.08764e-07
5.91761e-07
-5.1434e-07
8.12259e-07
-2.205e-07
8.12265e-07
3.92105e-07
-1.57465e-06
-5.00984e-08
1.05647e-06
-7.50976e-07
1.81018e-06
-1.48637e-06
1.81407e-06
-2.14153e-06
1.58249e-06
-2.68109e-06
1.27051e-06
-3.08257e-06
9.16212e-07
-3.33371e-06
5.50356e-07
-3.44301e-06
2.13891e-07
-3.43055e-06
-6.90594e-08
-3.30271e-06
-3.20034e-07
-3.07427e-06
-5.33748e-07
-2.76754e-06
-6.96262e-07
-2.40928e-06
-8.03639e-07
-2.02775e-06
-8.57071e-07
-1.65241e-06
-8.55749e-07
-1.30167e-06
-8.22265e-07
-9.80974e-07
-7.87452e-07
-6.83606e-07
-7.79257e-07
-3.91194e-07
-8.01181e-07
-1.02166e-07
-8.03373e-07
1.42935e-07
-4.65606e-07
9.55179e-07
-2.6543e-08
-1.5481e-06
-2.94109e-07
1.32403e-06
-7.07194e-07
2.22327e-06
-1.19734e-06
2.30422e-06
-1.68209e-06
2.06724e-06
-2.1226e-06
1.71102e-06
-2.48469e-06
1.2783e-06
-2.74048e-06
8.06139e-07
-2.88336e-06
3.56778e-07
-2.92237e-06
-3.00478e-08
-2.85596e-06
-3.86451e-07
-2.69245e-06
-6.97255e-07
-2.45123e-06
-9.37481e-07
-2.15808e-06
-1.0968e-06
-1.84178e-06
-1.17338e-06
-1.53426e-06
-1.16327e-06
-1.25549e-06
-1.10104e-06
-1.01766e-06
-1.02528e-06
-8.2308e-07
-9.73835e-07
-6.61506e-07
-9.62757e-07
-5.10568e-07
-9.54313e-07
-2.97958e-07
-6.78221e-07
6.57222e-07
-1.70561e-07
-1.37753e-06
-2.96393e-07
1.44987e-06
-5.05033e-07
2.43192e-06
-8.25089e-07
2.62428e-06
-1.20252e-06
2.44468e-06
-1.59342e-06
2.10193e-06
-1.95249e-06
1.63738e-06
-2.23564e-06
1.08929e-06
-2.42418e-06
5.45323e-07
-2.51871e-06
6.44887e-08
-2.51069e-06
-3.94472e-07
-2.40439e-06
-8.03564e-07
-2.21797e-06
-1.1239e-06
-1.97703e-06
-1.33774e-06
-1.71029e-06
-1.44012e-06
-1.44857e-06
-1.42499e-06
-1.2143e-06
-1.33532e-06
-1.02463e-06
-1.21495e-06
-8.9001e-07
-1.10846e-06
-8.08517e-07
-1.04425e-06
-7.53042e-07
-1.00979e-06
-5.94717e-07
-8.3655e-07
6.24933e-08
-1.40785e-07
-1.23674e-06
-1.33442e-07
1.44254e-06
-2.02695e-07
2.50118e-06
-4.1273e-07
2.83433e-06
-7.26312e-07
2.75827e-06
-1.10151e-06
2.47713e-06
-1.4812e-06
2.01708e-06
-1.80601e-06
1.41411e-06
-2.04433e-06
7.83642e-07
-2.19294e-06
2.13097e-07
-2.23698e-06
-3.50435e-07
-2.17907e-06
-8.61469e-07
-2.03773e-06
-1.26523e-06
-1.83798e-06
-1.53748e-06
-1.60822e-06
-1.66987e-06
-1.37927e-06
-1.65393e-06
-1.16948e-06
-1.54509e-06
-9.9824e-07
-1.38618e-06
-8.85481e-07
-1.2212e-06
-8.3859e-07
-1.09113e-06
-8.39309e-07
-1.00906e-06
-7.44339e-07
-9.3151e-07
-6.81831e-07
-1.54815e-08
-1.22125e-06
1.21874e-07
1.30519e-06
1.38939e-07
2.48412e-06
-1.62812e-08
2.98956e-06
-3.06607e-07
3.04861e-06
-6.85794e-07
2.85632e-06
-1.09138e-06
2.42266e-06
-1.45283e-06
1.77555e-06
-1.74325e-06
1.07406e-06
-1.9387e-06
4.08553e-07
-2.02182e-06
-2.67305e-07
-1.99836e-06
-8.84912e-07
-1.88825e-06
-1.37533e-06
-1.7202e-06
-1.70552e-06
-1.52497e-06
-1.86508e-06
-1.30321e-06
-1.87568e-06
-1.08277e-06
-1.76552e-06
-8.95166e-07
-1.57377e-06
-7.62506e-07
-1.35385e-06
-6.97915e-07
-1.15571e-06
-6.90926e-07
-1.01604e-06
-6.65383e-07
-9.57036e-07
-1.34722e-06
8.62374e-08
-1.30748e-06
3.77886e-07
1.01354e-06
4.12939e-07
2.44907e-06
2.95845e-07
3.10664e-06
1.03661e-08
3.33405e-06
-3.8958e-07
3.25624e-06
-8.02679e-07
2.83574e-06
-1.17841e-06
2.15128e-06
-1.47409e-06
1.36974e-06
-1.64935e-06
5.83814e-07
-1.71991e-06
-1.96726e-07
-1.69916e-06
-9.05653e-07
-1.60262e-06
-1.47184e-06
-1.45015e-06
-1.85797e-06
-1.28678e-06
-2.02842e-06
-1.06414e-06
-2.0983e-06
-8.16357e-07
-2.01329e-06
-5.7575e-07
-1.81436e-06
-3.72884e-07
-1.5567e-06
-2.21076e-07
-1.30751e-06
-1.02123e-07
-1.13498e-06
-1.98108e-08
-1.03934e-06
-1.36703e-06
2.88356e-07
-1.59583e-06
5.56013e-07
7.4589e-07
5.55676e-07
2.44939e-06
4.15306e-07
3.24699e-06
1.72116e-07
3.57722e-06
-1.84982e-07
3.61331e-06
-5.69004e-07
3.21975e-06
-9.96895e-07
2.57917e-06
-1.30983e-06
1.68268e-06
-1.40228e-06
6.76269e-07
-1.35196e-06
-2.47033e-07
-1.21007e-06
-1.04754e-06
-1.01191e-06
-1.66999e-06
-7.93723e-07
-2.07614e-06
-5.58989e-07
-2.26315e-06
-3.23114e-07
-2.33417e-06
-7.33172e-08
-2.26309e-06
1.73918e-07
-2.0616e-06
3.93547e-07
-1.77634e-06
5.57505e-07
-1.47147e-06
6.29691e-07
-1.20717e-06
5.19901e-07
-9.29552e-07
-8.4714e-07
-6.43396e-07
6.43398e-07
-1.69531e-06
1.05191e-06
-2.1806e-06
4.85293e-07
-1.04942e-06
-1.13117e-06
6.51696e-07
-1.70111e-06
2.41718e-06
-1.76548e-06
4.37916e-06
-1.96198e-06
4.85576e-06
-4.76593e-07
5.39783e-06
-5.42065e-07
6.44269e-06
-1.04485e-06
7.41165e-06
-9.68964e-07
8.03659e-06
-6.24935e-07
7.37663e-06
6.59974e-07
6.47752e-06
8.99116e-07
6.33391e-06
1.43612e-07
5.98893e-06
3.4499e-07
5.15598e-06
8.32958e-07
3.2685e-06
1.88749e-06
3.26851e-06
-8.62152e-07
1.50555e-06
-1.09685e-06
1.28661e-06
-9.5129e-07
3.39738e-07
1.02477e-07
-2.18493e-06
1.51297e-06
-3.1116e-06
2.68722e-06
-2.93971e-06
3.93075e-06
-3.20549e-06
5.3067e-06
-1.85252e-06
6.08453e-06
-1.31988e-06
6.67022e-06
-1.63053e-06
6.84998e-06
-1.14872e-06
7.11821e-06
-8.93155e-07
7.02593e-06
7.52267e-07
6.8277e-06
1.09736e-06
6.08919e-06
8.82135e-07
5.43018e-06
1.00401e-06
4.76252e-06
1.50063e-06
3.40461e-06
3.24542e-06
6.67314e-06
-1.49154e-06
2.9971e-06
-8.06562e-07
6.01642e-07
-2.93565e-07
-1.73254e-07
9.16018e-07
-3.39451e-06
1.98567e-06
-4.18123e-06
2.91361e-06
-3.86763e-06
4.35242e-06
-4.64429e-06
5.88834e-06
-3.38843e-06
6.63051e-06
-2.06202e-06
6.7966e-06
-1.79659e-06
6.43017e-06
-7.82269e-07
6.33903e-06
-8.01998e-07
6.40761e-06
6.83685e-07
6.16284e-06
1.34213e-06
5.48459e-06
1.56039e-06
4.91567e-06
1.57293e-06
4.11428e-06
2.30202e-06
2.87634e-06
4.48336e-06
9.54948e-06
-2.08295e-06
5.08005e-06
-1.85282e-06
3.71514e-07
-9.45072e-07
-1.081e-06
3.19684e-07
-4.65926e-06
1.26897e-06
-5.13051e-06
2.41601e-06
-5.01464e-06
4.23277e-06
-6.46102e-06
6.55669e-06
-5.71233e-06
7.24625e-06
-2.75155e-06
6.86213e-06
-1.41242e-06
6.23647e-06
-1.56566e-07
5.46393e-06
-2.94119e-08
5.45561e-06
6.92046e-07
5.28776e-06
1.51e-06
4.52275e-06
2.32541e-06
4.17897e-06
1.91674e-06
3.55859e-06
2.92242e-06
1.79023e-06
6.25174e-06
1.13397e-05
-1.55002e-06
6.63007e-06
-2.2735e-06
1.09499e-06
-1.71081e-06
-1.64368e-06
-1.40019e-06
-4.96986e-06
-7.25028e-07
-5.80567e-06
5.86163e-07
-6.32584e-06
2.72857e-06
-8.60344e-06
5.29533e-06
-8.2791e-06
6.45766e-06
-3.91389e-06
6.40871e-06
-1.36346e-06
6.55434e-06
-3.02178e-07
5.23716e-06
1.28779e-06
4.8094e-06
1.11982e-06
4.68668e-06
1.63272e-06
4.20189e-06
2.8102e-06
3.95902e-06
2.15962e-06
3.37231e-06
3.50912e-06
1.84951e-06
7.7745e-06
1.31892e-05
-2.65189e-07
6.89526e-06
-1.92185e-06
2.75166e-06
-2.24416e-06
-1.32136e-06
-2.68629e-06
-4.52772e-06
-2.49949e-06
-5.99247e-06
-1.1081e-06
-7.71725e-06
1.04842e-06
-1.076e-05
2.9615e-06
-1.01922e-05
4.16366e-06
-5.11604e-06
4.6642e-06
-1.864e-06
4.99184e-06
-6.29809e-07
5.32412e-06
9.55549e-07
4.65889e-06
1.78511e-06
4.26607e-06
2.02559e-06
4.22657e-06
2.84974e-06
3.90478e-06
2.48146e-06
3.0497e-06
4.36424e-06
2.47858e-06
8.34564e-06
1.56678e-05
1.59228e-06
5.30299e-06
-1.36987e-06
5.7138e-06
-2.62876e-06
-6.2459e-08
-3.46719e-06
-3.68926e-06
-3.68969e-06
-5.76997e-06
-2.55807e-06
-8.84887e-06
-6.57787e-07
-1.26602e-05
5.12452e-07
-1.13624e-05
1.65216e-06
-6.25574e-06
2.62509e-06
-2.83691e-06
3.19914e-06
-1.20384e-06
3.68735e-06
4.67342e-07
4.06258e-06
1.40992e-06
4.00484e-06
2.08339e-06
4.09467e-06
2.75997e-06
4.02001e-06
2.55618e-06
3.58292e-06
4.80139e-06
2.29423e-06
9.63439e-06
1.7962e-05
2.10819e-07
5.09219e-06
-1.8196e-06
7.74424e-06
-3.09935e-06
1.2173e-06
-4.21546e-06
-2.57314e-06
-4.44382e-06
-5.54159e-06
-3.87216e-06
-9.4205e-06
-2.67938e-06
-1.3853e-05
-1.93913e-06
-1.21026e-05
-6.58166e-07
-7.53668e-06
5.8802e-07
-4.08308e-06
1.48526e-06
-2.10106e-06
2.24467e-06
-2.92048e-07
2.79266e-06
8.61946e-07
3.18497e-06
1.69112e-06
3.62207e-06
2.32292e-06
3.7194e-06
2.45889e-06
3.57031e-06
4.95052e-06
3.7043e-06
9.50042e-06
2.16665e-05
1.75778e-06
-3.35359e-06
1.91367e-06
5.90009e-07
1.37033e-06
2.99272e-06
2.95504e-07
4.32179e-06
-8.39856e-07
4.71256e-06
-1.41965e-06
4.1931e-06
-1.56927e-06
3.36939e-06
-1.41747e-06
2.42738e-06
-1.09627e-06
1.3615e-06
-7.03205e-07
2.83218e-07
-3.06921e-07
-6.43316e-07
2.00561e-08
-1.37453e-06
2.6382e-07
-1.91378e-06
4.33456e-07
-2.24581e-06
5.79585e-07
-2.40932e-06
7.32443e-07
-2.48708e-06
9.2721e-07
-2.4579e-06
1.11002e-06
-2.24445e-06
1.20418e-06
-1.87054e-06
1.05807e-06
-1.32538e-06
3.83342e-07
-5.32467e-07
-1.28281e-06
7.36563e-07
3.38875e-06
-5.51874e-06
-3.38306e-06
2.95082e-08
-3.64254e-06
8.49508e-07
-2.79182e-06
2.14202e-06
-1.58945e-06
3.11945e-06
-3.01588e-07
3.42474e-06
8.56506e-07
3.03506e-06
1.8998e-06
2.32614e-06
2.72085e-06
1.60637e-06
3.22814e-06
8.54235e-07
3.42799e-06
8.33857e-08
3.32327e-06
-5.38596e-07
2.94973e-06
-1.00099e-06
2.36694e-06
-1.33099e-06
1.62331e-06
-1.5022e-06
7.74941e-07
-1.56097e-06
-5.74785e-08
-1.65467e-06
-8.64542e-07
-1.65085e-06
-1.74233e-06
-1.36667e-06
-2.80289e-06
-8.09998e-07
-4.10334e-06
-2.49304e-08
-5.84603e-06
1.21021e-06
-8.31695e-06
3.20749e-06
5.49265e-06
-1.04208e-05
-9.80884e-07
1.01041e-06
-5.30864e-07
3.99509e-07
8.51279e-07
7.59913e-07
2.60604e-06
1.36473e-06
4.26562e-06
1.76521e-06
5.61162e-06
1.68911e-06
6.63149e-06
1.30631e-06
7.1513e-06
1.08659e-06
7.10968e-06
8.95874e-07
6.58067e-06
6.12421e-07
5.57192e-06
4.7016e-07
4.15388e-06
4.17067e-07
2.45069e-06
3.72205e-07
5.21325e-07
4.27164e-07
-1.59571e-06
5.56064e-07
-3.66009e-06
4.09705e-07
-5.74593e-06
4.3498e-07
-8.03855e-06
9.25935e-07
-1.06054e-05
1.75683e-06
-1.34578e-05
2.82749e-06
-1.65511e-05
4.30351e-06
-1.98816e-05
6.53798e-06
8.8146e-06
-2.32035e-05
1.97585e-06
-9.65439e-07
3.71029e-06
-1.33492e-06
5.7056e-06
-1.23539e-06
7.54438e-06
-4.7403e-07
8.95304e-06
3.56576e-07
9.84167e-06
8.0049e-07
1.03994e-05
7.48584e-07
1.01832e-05
1.30287e-06
9.1911e-06
1.88795e-06
7.6934e-06
2.11014e-06
5.55251e-06
2.61106e-06
2.82731e-06
3.14229e-06
-2.61559e-07
3.46108e-06
-3.61108e-06
3.77668e-06
-7.1862e-06
4.13119e-06
-1.0766e-05
3.98954e-06
-1.42502e-05
3.91913e-06
-1.80225e-05
4.69826e-06
-2.20305e-05
5.7648e-06
-2.59235e-05
6.72052e-06
-2.93555e-05
7.73554e-06
-3.17364e-05
8.9188e-06
1.02705e-05
-3.31922e-05
4.49602e-06
-5.46146e-06
6.77718e-06
-3.61609e-06
8.77463e-06
-3.23283e-06
1.04188e-05
-2.11818e-06
1.15215e-05
-7.46117e-07
1.20436e-05
2.78358e-07
1.18986e-05
8.93667e-07
1.07378e-05
2.46367e-06
8.52645e-06
4.09935e-06
5.79143e-06
4.84521e-06
2.26879e-06
6.13376e-06
-2.02125e-06
7.43238e-06
-6.77842e-06
8.21831e-06
-1.17661e-05
8.76447e-06
-1.67914e-05
9.15657e-06
-2.17036e-05
8.90178e-06
-2.62087e-05
8.42428e-06
-3.03132e-05
8.80273e-06
-3.38778e-05
9.32942e-06
-3.65053e-05
9.34805e-06
-3.84717e-05
9.70194e-06
-3.97718e-05
1.0219e-05
1.05761e-05
-4.00774e-05
3.92283e-06
-9.38427e-06
6.9466e-06
-6.63983e-06
9.23261e-06
-5.51881e-06
1.09303e-05
-3.81581e-06
1.19858e-05
-1.80166e-06
1.22099e-05
5.42984e-08
1.10955e-05
2.00819e-06
8.89638e-06
4.66279e-06
5.71611e-06
7.27969e-06
1.51798e-06
9.0434e-06
-3.44604e-06
1.10979e-05
-9.01729e-06
1.30037e-05
-1.49714e-05
1.41725e-05
-2.09629e-05
1.47561e-05
-2.65861e-05
1.47798e-05
-3.15914e-05
1.39072e-05
-3.59462e-05
1.27791e-05
-3.92541e-05
1.21107e-05
-4.15202e-05
1.15956e-05
-4.31666e-05
1.09944e-05
-4.42175e-05
1.07528e-05
-4.46381e-05
1.06396e-05
1.02368e-05
-4.42987e-05
3.06834e-06
-1.24524e-05
7.00632e-06
-1.05774e-05
1.01711e-05
-8.68327e-06
1.21392e-05
-5.78358e-06
1.29583e-05
-2.62062e-06
1.2514e-05
4.9861e-07
1.06278e-05
3.89433e-06
7.73317e-06
7.55735e-06
3.79203e-06
1.12207e-05
-1.51388e-06
1.43491e-05
-7.6784e-06
1.72622e-05
-1.43617e-05
1.96868e-05
-2.1265e-05
2.10757e-05
-2.78351e-05
2.13261e-05
-3.37198e-05
2.06645e-05
-3.87229e-05
1.89102e-05
-4.26533e-05
1.67097e-05
-4.52425e-05
1.47e-05
-4.67268e-05
1.30799e-05
-4.75092e-05
1.17769e-05
-4.77295e-05
1.09732e-05
-4.75016e-05
1.04117e-05
9.5835e-06
-4.68483e-05
2.99793e-06
-1.54502e-05
6.29357e-06
-1.38717e-05
9.43139e-06
-1.18203e-05
1.14813e-05
-7.8331e-06
1.22018e-05
-3.34094e-06
1.13672e-05
1.33321e-06
8.93848e-06
6.32295e-06
5.64114e-06
1.08546e-05
1.12566e-06
1.5736e-05
-4.86731e-06
2.03419e-05
-1.16537e-05
2.40483e-05
-1.90713e-05
2.71039e-05
-2.64791e-05
2.84829e-05
-3.33938e-05
2.82399e-05
-3.94481e-05
2.67181e-05
-4.44026e-05
2.38641e-05
-4.78718e-05
2.01785e-05
-4.97546e-05
1.65826e-05
-5.04454e-05
1.37707e-05
-5.03632e-05
1.16947e-05
-4.98162e-05
1.04263e-05
-4.90906e-05
9.6862e-06
8.74896e-06
-4.82561e-05
8.28124e-06
-2.37324e-05
7.10426e-06
-1.26947e-05
7.37387e-06
-1.20896e-05
8.4998e-06
-8.95884e-06
9.05703e-06
-3.89814e-06
8.17221e-06
2.21797e-06
5.79859e-06
8.69637e-06
2.19735e-06
1.44554e-05
-2.66142e-06
2.05941e-05
-8.94707e-06
2.66263e-05
-1.61741e-05
3.12734e-05
-2.35983e-05
3.45258e-05
-3.09619e-05
3.58442e-05
-3.72521e-05
3.45284e-05
-4.32281e-05
3.26929e-05
-4.81642e-05
2.87997e-05
-5.1236e-05
2.32497e-05
-5.2598e-05
1.79436e-05
-5.28282e-05
1.40002e-05
-5.21507e-05
1.10167e-05
-5.10026e-05
9.27804e-06
-4.98934e-05
8.57691e-06
8.04634e-06
-4.91908e-05
2.49707e-07
-2.39842e-05
2.68556e-06
-1.51331e-05
2.72583e-06
-1.21314e-05
2.29863e-06
-8.53247e-06
1.66075e-06
-3.26064e-06
2.9976e-07
3.5788e-06
-2.68652e-06
1.16827e-05
-7.44793e-06
1.9217e-05
-1.32729e-05
2.64193e-05
-1.89921e-05
3.23455e-05
-2.34063e-05
3.56872e-05
-2.61514e-05
3.72701e-05
-2.84751e-05
3.81666e-05
-3.25381e-05
3.85898e-05
-3.83052e-05
3.84582e-05
-4.50592e-05
3.55506e-05
-5.13943e-05
2.95813e-05
-5.29404e-05
1.94876e-05
-5.32124e-05
1.42712e-05
-5.24427e-05
1.02467e-05
-5.13387e-05
8.17389e-06
-4.98971e-05
7.13534e-06
7.61892e-06
-4.94699e-05
-1.98954e-06
-2.1996e-05
-1.90492e-06
-1.52196e-05
-2.90028e-06
-1.11376e-05
-4.35721e-06
-7.07657e-06
-6.18013e-06
-1.43833e-06
-8.01909e-06
5.41753e-06
-9.64502e-06
1.33087e-05
-1.17141e-05
2.12865e-05
-1.39e-05
2.8606e-05
-1.59061e-05
3.43531e-05
-1.77981e-05
3.75814e-05
-1.94944e-05
3.8969e-05
-2.14923e-05
4.01669e-05
-2.51563e-05
4.22554e-05
-3.06786e-05
4.39814e-05
-3.73304e-05
4.22024e-05
-4.18703e-05
3.41198e-05
-4.50079e-05
2.26229e-05
-4.86356e-05
1.78969e-05
-5.11277e-05
1.27375e-05
-5.1482e-05
8.52764e-06
-5.02499e-05
5.90323e-06
5.82425e-06
-4.84552e-05
-2.66208e-06
-1.93349e-05
-4.49929e-06
-1.33832e-05
-6.58209e-06
-9.05546e-06
-8.88069e-06
-4.77853e-06
-1.07545e-05
4.35032e-07
-1.20299e-05
6.69263e-06
-1.25138e-05
1.37924e-05
-1.23153e-05
2.10878e-05
-1.13624e-05
2.7653e-05
-1.04668e-05
3.34581e-05
-1.04308e-05
3.75466e-05
-1.16582e-05
4.01984e-05
-1.39136e-05
4.24247e-05
-1.63298e-05
4.46741e-05
-1.86836e-05
4.63376e-05
-1.95157e-05
4.30378e-05
-1.98578e-05
3.44647e-05
-2.26731e-05
2.54395e-05
-2.6222e-05
2.1446e-05
-3.08152e-05
1.73306e-05
-3.43028e-05
1.20155e-05
-3.64537e-05
8.05447e-06
5.81387e-06
-3.64429e-05
-3.70066e-06
-1.56349e-05
-6.59992e-06
-1.04845e-05
-9.19669e-06
-6.45919e-06
-1.14701e-05
-2.50556e-06
-1.31407e-05
2.1053e-06
-1.39695e-05
7.52115e-06
-1.38005e-05
1.36231e-05
-1.2678e-05
1.9965e-05
-1.07978e-05
2.57726e-05
-8.58782e-06
3.12479e-05
-6.93365e-06
3.58924e-05
-6.34155e-06
3.96065e-05
-6.38141e-06
4.24649e-05
-6.18174e-06
4.44748e-05
-5.1339e-06
4.52903e-05
-4.76485e-06
4.26696e-05
-5.69132e-06
3.53933e-05
-8.19136e-06
2.79419e-05
-1.05236e-05
2.378e-05
-1.28252e-05
1.96335e-05
-1.57488e-05
1.49401e-05
-1.82951e-05
1.06017e-05
7.18751e-06
-1.96681e-05
-4.4236e-06
-1.1212e-05
-7.7591e-06
-7.14954e-06
-1.04539e-05
-3.76486e-06
-1.25887e-05
-3.71043e-07
-1.40121e-05
3.52832e-06
-1.45631e-05
8.07188e-06
-1.41208e-05
1.31805e-05
-1.27194e-05
1.85633e-05
-1.07236e-05
2.37764e-05
-8.28048e-06
2.88044e-05
-5.86299e-06
3.34745e-05
-3.7424e-06
3.74855e-05
-1.80244e-06
4.05246e-05
2.19082e-07
4.2453e-05
2.59751e-06
4.29116e-05
4.48984e-06
4.07773e-05
4.18323e-06
3.57002e-05
2.21513e-06
2.99105e-05
5.47617e-07
2.54479e-05
-1.06943e-06
2.1251e-05
-3.00398e-06
1.68752e-05
-5.0687e-06
1.2667e-05
8.77809e-06
-6.65869e-06
-4.62889e-06
-6.58353e-06
-8.07765e-06
-3.70118e-06
-1.07455e-05
-1.09737e-06
-1.27403e-05
1.62348e-06
-1.39988e-05
4.78652e-06
-1.44186e-05
8.49142e-06
-1.39314e-05
1.2693e-05
-1.25739e-05
1.72055e-05
-1.0576e-05
2.17781e-05
-8.08813e-06
2.63161e-05
-5.26607e-06
3.0652e-05
-2.27501e-06
3.44939e-05
7.44654e-07
3.75044e-05
3.79406e-06
3.94031e-05
6.84823e-06
3.9857e-05
9.28754e-06
3.83376e-05
1.02123e-05
3.47753e-05
9.79745e-06
3.03251e-05
9.04491e-06
2.62004e-05
8.1066e-06
2.21895e-05
6.85767e-06
1.81244e-05
5.38182e-06
1.41433e-05
1.04024e-05
3.75794e-06
-4.49913e-06
-2.08489e-06
-7.84753e-06
-3.53127e-07
-1.03962e-05
1.45106e-06
-1.22576e-05
3.48462e-06
-1.34129e-05
5.94163e-06
-1.38039e-05
8.88212e-06
-1.33826e-05
1.22716e-05
-1.21686e-05
1.59913e-05
-1.02811e-05
1.98903e-05
-7.81461e-06
2.38492e-05
-4.8652e-06
2.77022e-05
-1.56098e-06
3.11893e-05
1.9493e-06
3.39936e-05
5.52902e-06
3.58229e-05
9.00094e-06
3.63846e-05
1.19284e-05
3.54097e-05
1.37778e-05
3.29255e-05
1.45482e-05
2.95544e-05
1.4754e-05
2.59944e-05
1.4583e-05
2.23606e-05
1.40445e-05
1.86631e-05
1.31731e-05
1.5015e-05
1.1495e-05
1.20808e-05
-4.166e-06
2.08094e-06
-7.27268e-06
2.75335e-06
-9.64272e-06
3.82091e-06
-1.13713e-05
5.21302e-06
-1.24539e-05
7.02406e-06
-1.2852e-05
9.28006e-06
-1.25312e-05
1.19506e-05
-1.14964e-05
1.49562e-05
-9.79201e-06
1.81857e-05
-7.47451e-06
2.15315e-05
-4.60663e-06
2.4834e-05
-1.28742e-06
2.78697e-05
2.33784e-06
3.0368e-05
6.0938e-06
3.20665e-05
9.75733e-06
3.27207e-05
1.29961e-05
3.21705e-05
1.54651e-05
3.04562e-05
1.71021e-05
2.79171e-05
1.81236e-05
2.49726e-05
1.86734e-05
2.18109e-05
1.88068e-05
1.85299e-05
1.8572e-05
1.52501e-05
1.20557e-05
1.80117e-05
-3.67188e-06
5.75266e-06
-6.48315e-06
5.5645e-06
-8.65015e-06
5.98781e-06
-1.02434e-05
6.80616e-06
-1.12595e-05
8.04004e-06
-1.16701e-05
9.6906e-06
-1.14469e-05
1.17273e-05
-1.05801e-05
1.40892e-05
-9.08606e-06
1.66915e-05
-6.98732e-06
1.94325e-05
-4.32672e-06
2.21731e-05
-1.1821e-06
2.47248e-05
2.32001e-06
2.68656e-05
6.00703e-06
2.83792e-05
9.66204e-06
2.90654e-05
1.30233e-05
2.8809e-05
1.5846e-05
2.76331e-05
1.80358e-05
2.57271e-05
1.96608e-05
2.33474e-05
2.08011e-05
2.06706e-05
2.15067e-05
1.78245e-05
2.18229e-05
1.49342e-05
1.20835e-05
2.17954e-05
-3.14586e-06
8.89862e-06
-5.61869e-06
8.03737e-06
-7.55546e-06
7.92457e-06
-8.99539e-06
8.24607e-06
-9.93152e-06
8.97611e-06
-1.03399e-05
1.00989e-05
-1.01947e-05
1.1582e-05
-9.47904e-06
1.33734e-05
-8.19001e-06
1.54023e-05
-6.33629e-06
1.75786e-05
-3.94551e-06
1.97822e-05
-1.0788e-06
2.18579e-05
2.15873e-06
2.36278e-05
5.61883e-06
2.49189e-05
9.11298e-06
2.5571e-05
1.24312e-05
2.54906e-05
1.53848e-05
2.46792e-05
1.78699e-05
2.32418e-05
1.988e-05
2.13372e-05
2.14419e-05
1.91087e-05
2.25878e-05
1.66788e-05
2.33579e-05
1.41645e-05
1.16574e-05
2.37843e-05
-2.6478e-06
1.15467e-05
-4.76518e-06
1.01549e-05
-6.44364e-06
9.60313e-06
-7.70647e-06
9.50894e-06
-8.54144e-06
9.81108e-06
-8.92516e-06
1.04826e-05
-8.8324e-06
1.14892e-05
-8.2426e-06
1.27835e-05
-7.1441e-06
1.43037e-05
-5.53645e-06
1.59708e-05
-3.43764e-06
1.76832e-05
-8.94573e-07
1.93147e-05
2.0091e-06
2.0724e-05
5.15329e-06
2.17745e-05
8.38426e-06
2.23398e-05
1.15339e-05
2.23407e-05
1.44501e-05
2.17629e-05
1.70303e-05
2.06614e-05
1.92321e-05
1.91353e-05
2.10507e-05
1.72903e-05
2.24981e-05
1.52316e-05
2.3601e-05
1.3062e-05
1.0863e-05
2.43958e-05
-2.17922e-06
1.37263e-05
-3.94203e-06
1.1918e-05
-5.35154e-06
1.10128e-05
-6.4207e-06
1.05782e-05
-7.13534e-06
1.05258e-05
-7.47247e-06
1.08198e-05
-7.40717e-06
1.14238e-05
-6.91734e-06
1.22936e-05
-5.98732e-06
1.33736e-05
-4.61159e-06
1.4595e-05
-2.8009e-06
1.58723e-05
-5.9017e-07
1.71038e-05
1.95636e-06
1.81773e-05
4.7447e-06
1.8986e-05
7.65395e-06
1.94304e-05
1.05511e-05
1.94434e-05
1.33118e-05
1.9002e-05
1.58417e-05
1.81315e-05
1.80856e-05
1.68913e-05
2.00178e-05
1.53582e-05
2.16358e-05
1.36137e-05
2.29561e-05
1.17421e-05
9.82601e-06
2.39935e-05
-1.7419e-06
1.54687e-05
-3.15707e-06
1.33335e-05
-4.29315e-06
1.21491e-05
-5.15925e-06
1.14445e-05
-5.74015e-06
1.11068e-05
-6.01319e-06
1.10929e-05
-5.95399e-06
1.13646e-05
-5.54004e-06
1.18796e-05
-4.75406e-06
1.25875e-05
-3.58755e-06
1.34283e-05
-2.04588e-06
1.43305e-05
-1.53732e-07
1.52115e-05
2.04082e-06
1.59826e-05
4.46615e-06
1.65605e-05
7.02924e-06
1.68672e-05
9.62655e-06
1.6846e-05
1.21576e-05
1.64709e-05
1.45393e-05
1.57497e-05
1.67131e-05
1.47174e-05
1.86462e-05
1.34252e-05
2.03244e-05
1.19357e-05
2.17499e-05
1.0317e-05
8.64119e-06
2.29351e-05
-1.32589e-06
1.67951e-05
-2.40445e-06
1.44125e-05
-3.27155e-06
1.30165e-05
-3.93214e-06
1.21053e-05
-4.37172e-06
1.15465e-05
-4.56837e-06
1.12896e-05
-4.49836e-06
1.12947e-05
-4.13934e-06
1.15206e-05
-3.47335e-06
1.19215e-05
-2.48999e-06
1.24449e-05
-1.19035e-06
1.30308e-05
4.08872e-07
1.36121e-05
2.27297e-06
1.41183e-05
4.34908e-06
1.44842e-05
6.56664e-06
1.46495e-05
8.84602e-06
1.45665e-05
1.11073e-05
1.42095e-05
1.32798e-05
1.3577e-05
1.53099e-05
1.26874e-05
1.71601e-05
1.15751e-05
1.881e-05
1.0286e-05
2.02552e-05
8.87212e-06
7.4109e-06
2.1486e-05
-9.2913e-07
1.77251e-05
-1.68217e-06
1.51662e-05
-2.28579e-06
1.36206e-05
-2.74341e-06
1.25632e-05
-3.03982e-06
1.18431e-05
-3.15325e-06
1.14032e-05
-3.06036e-06
1.12018e-05
-2.73905e-06
1.11993e-05
-2.17108e-06
1.13535e-05
-1.34456e-06
1.16183e-05
-2.56968e-07
1.19431e-05
1.08161e-06
1.22735e-05
2.64606e-06
1.25538e-05
4.39819e-06
1.2732e-05
6.28657e-06
1.2761e-05
8.25072e-06
1.26022e-05
1.0228e-05
1.22322e-05
1.21603e-05
1.16446e-05
1.39992e-05
1.08485e-05
1.57092e-05
9.8652e-06
1.72674e-05
8.72796e-06
1.86611e-05
7.47889e-06
6.18845e-06
1.9884e-05
-5.42909e-07
1.82686e-05
-9.83938e-07
1.56078e-05
-1.3362e-06
1.39732e-05
-1.59833e-06
1.28256e-05
-1.75429e-06
1.19993e-05
-1.78216e-06
1.14312e-05
-1.65859e-06
1.10784e-05
-1.36154e-06
1.09023e-05
-8.72472e-07
1.08644e-05
-1.78316e-07
1.09242e-05
7.26027e-07
1.10387e-05
1.83614e-06
1.11633e-05
3.13581e-06
1.1254e-05
4.59726e-06
1.12705e-05
6.18331e-06
1.11749e-05
7.8492e-06
1.09362e-05
9.54654e-06
1.05347e-05
1.12286e-05
9.96248e-06
1.28549e-05
9.22218e-06
1.43918e-05
8.32833e-06
1.58155e-05
7.30439e-06
1.71127e-05
6.18192e-06
5.03958e-06
1.82622e-05
-1.72231e-07
1.84419e-05
-3.1509e-07
1.57513e-05
-4.2728e-07
1.40859e-05
-5.04811e-07
1.29035e-05
-5.2725e-07
1.2022e-05
-4.71307e-07
1.13755e-05
-3.13148e-07
1.09204e-05
-3.05278e-08
1.06198e-05
3.95363e-07
1.04386e-05
9.78771e-07
1.03408e-05
1.7282e-06
1.02893e-05
2.64277e-06
1.02487e-05
3.71182e-06
1.01849e-05
4.91722e-06
1.0065e-05
6.23298e-06
9.85903e-06
7.62607e-06
9.54309e-06
9.05989e-06
9.10087e-06
1.04978e-05
8.52456e-06
1.19052e-05
7.81474e-06
1.32536e-05
6.97998e-06
1.45205e-05
6.03769e-06
1.5688e-05
5.01486e-06
3.98743e-06
1.67405e-05
1.95415e-07
1.82471e-05
3.31712e-07
1.56156e-05
4.30561e-07
1.39876e-05
5.21349e-07
1.28131e-05
6.2244e-07
1.19212e-05
7.57348e-07
1.12408e-05
9.50709e-07
1.07272e-05
1.22584e-06
1.03448e-05
1.60283e-06
1.00617e-05
2.09676e-06
9.84688e-06
2.71632e-06
9.66971e-06
3.46391e-06
9.50105e-06
4.33554e-06
9.31326e-06
5.32007e-06
9.08041e-06
6.39934e-06
8.77971e-06
7.54963e-06
8.39277e-06
8.74359e-06
7.90688e-06
9.95263e-06
7.31549e-06
1.11496e-05
6.61781e-06
1.23094e-05
5.82023e-06
1.34103e-05
4.93692e-06
1.4437e-05
3.9883e-06
3.06201e-06
1.5363e-05
5.24763e-07
1.77235e-05
9.12027e-07
1.52292e-05
1.21856e-06
1.36816e-05
1.46505e-06
1.25671e-05
1.67892e-06
1.17077e-05
1.88704e-06
1.10329e-05
2.11523e-06
1.04992e-05
2.38729e-06
1.00729e-05
2.72405e-06
9.72502e-06
3.14202e-06
9.42898e-06
3.65223e-06
9.15953e-06
4.26022e-06
8.89307e-06
4.96573e-06
8.60774e-06
5.7625e-06
8.28362e-06
6.63866e-06
7.90354e-06
7.57753e-06
7.45387e-06
8.55912e-06
6.92528e-06
9.56163e-06
6.31298e-06
1.05627e-05
5.61675e-06
1.15415e-05
4.84142e-06
1.24803e-05
3.99822e-06
1.33623e-05
3.10679e-06
2.25362e-06
1.41711e-05
8.17581e-07
1.69066e-05
1.43342e-06
1.4614e-05
1.91646e-06
1.31991e-05
2.29985e-06
1.21841e-05
2.61351e-06
1.13944e-05
2.88647e-06
1.07602e-05
3.14626e-06
1.02396e-05
3.41791e-06
9.80137e-06
3.72319e-06
9.41986e-06
4.07973e-06
9.07252e-06
4.50037e-06
8.73894e-06
4.99294e-06
8.40053e-06
5.56015e-06
8.04054e-06
6.19964e-06
7.64414e-06
6.90425e-06
7.19892e-06
7.66273e-06
6.69539e-06
8.46062e-06
6.12739e-06
9.28136e-06
5.49224e-06
1.01081e-05
4.79005e-06
1.09232e-05
4.02636e-06
1.17101e-05
3.21141e-06
1.24561e-05
2.36091e-06
1.57199e-06
1.31384e-05
1.05576e-06
1.58521e-05
1.86658e-06
1.3804e-05
2.50398e-06
1.25623e-05
3.00527e-06
1.16833e-05
3.40441e-06
1.09956e-05
3.73305e-06
1.04319e-05
4.02045e-06
9.95242e-06
4.29292e-06
9.52907e-06
4.57325e-06
9.13967e-06
4.88013e-06
8.76574e-06
5.2278e-06
8.39134e-06
5.62587e-06
8.0025e-06
6.07939e-06
7.58705e-06
6.58892e-06
7.13463e-06
7.15086e-06
6.637e-06
7.75802e-06
6.08824e-06
8.40033e-06
5.48511e-06
9.06571e-06
4.82689e-06
9.74019e-06
4.11559e-06
1.04099e-05
3.3567e-06
1.10616e-05
2.55974e-06
1.16813e-05
1.74162e-06
9.99448e-07
1.22543e-05
1.24265e-06
1.46099e-05
2.21022e-06
1.2837e-05
2.97172e-06
1.18013e-05
3.5689e-06
1.10865e-05
4.0376e-06
1.05272e-05
4.41128e-06
1.00584e-05
4.72071e-06
9.64321e-06
4.99343e-06
9.25653e-06
5.25321e-06
8.88003e-06
5.51966e-06
8.4994e-06
5.80809e-06
8.103e-06
6.12944e-06
7.68121e-06
6.49044e-06
7.22609e-06
6.89381e-06
6.7313e-06
7.33863e-06
6.19221e-06
7.82076e-06
5.60614e-06
8.33339e-06
4.97251e-06
8.86758e-06
4.29273e-06
9.41329e-06
3.56992e-06
9.95932e-06
2.81069e-06
1.0493e-05
2.0262e-06
1.10038e-05
1.23084e-06
5.33137e-07
1.14708e-05
1.37591e-06
1.32352e-05
2.46318e-06
1.17505e-05
3.32094e-06
1.09441e-05
3.99082e-06
1.0417e-05
4.511e-06
1.00073e-05
4.9168e-06
9.65289e-06
5.24046e-06
9.31976e-06
5.51061e-06
8.98655e-06
5.75182e-06
8.63895e-06
5.98442e-06
8.26691e-06
6.22436e-06
7.86314e-06
6.48345e-06
7.42219e-06
6.76954e-06
6.94005e-06
7.08686e-06
6.41403e-06
7.43635e-06
5.84276e-06
7.81611e-06
5.22642e-06
8.22188e-06
4.56679e-06
8.64747e-06
3.8672e-06
9.08484e-06
3.13261e-06
9.5248e-06
2.37074e-06
9.95878e-06
1.59225e-06
1.03758e-05
8.14319e-07
1.46309e-07
1.07631e-05
1.47049e-06
1.17651e-05
2.64168e-06
1.05799e-05
3.56458e-06
1.00216e-05
4.28237e-06
9.69958e-06
4.83422e-06
9.45575e-06
5.25705e-06
9.23028e-06
5.58469e-06
8.9923e-06
5.84689e-06
8.72449e-06
6.06891e-06
8.41704e-06
6.27141e-06
8.06451e-06
6.47061e-06
7.66402e-06
6.67863e-06
7.21423e-06
6.90388e-06
6.71485e-06
7.15146e-06
6.1665e-06
7.42357e-06
5.57071e-06
7.7199e-06
4.93016e-06
8.03802e-06
4.24874e-06
8.37364e-06
3.53164e-06
8.72149e-06
2.78483e-06
9.07462e-06
2.01764e-06
9.42451e-06
1.24256e-06
9.76377e-06
4.75086e-07
-1.64263e-07
1.0075e-05
1.53402e-06
1.02322e-05
2.76239e-06
9.35209e-06
3.72591e-06
9.05849e-06
4.46707e-06
8.9587e-06
5.02842e-06
8.89461e-06
5.45027e-06
8.80859e-06
5.76879e-06
8.67392e-06
6.01502e-06
8.47838e-06
6.21463e-06
8.21752e-06
6.38818e-06
7.89104e-06
6.55158e-06
7.50068e-06
6.7167e-06
7.04917e-06
6.89188e-06
6.53973e-06
7.0825e-06
5.97593e-06
7.29141e-06
5.36186e-06
7.51934e-06
4.7023e-06
7.76523e-06
4.00292e-06
8.02672e-06
3.27024e-06
8.29957e-06
2.51205e-06
8.57858e-06
1.73867e-06
8.85854e-06
9.62639e-07
9.13114e-06
2.02961e-07
-4.1666e-07
9.38398e-06
1.59265e-06
8.63953e-06
2.85979e-06
8.08522e-06
3.83803e-06
8.0805e-06
4.57575e-06
8.22118e-06
5.12166e-06
8.34885e-06
5.52167e-06
8.40869e-06
5.81544e-06
8.38023e-06
6.03548e-06
8.25841e-06
6.20748e-06
8.04559e-06
6.35123e-06
7.74735e-06
6.4816e-06
7.37036e-06
6.60949e-06
6.92133e-06
6.74258e-06
6.40669e-06
6.88592e-06
5.83264e-06
7.04247e-06
5.20537e-06
7.21347e-06
4.53138e-06
7.39877e-06
3.8177e-06
7.59703e-06
3.07208e-06
7.80617e-06
2.30299e-06
8.02329e-06
1.52161e-06
8.24274e-06
7.43368e-07
8.45938e-06
-1.37026e-08
-6.127e-07
8.65608e-06
1.66606e-06
6.97449e-06
2.96844e-06
6.78333e-06
3.9404e-06
7.1088e-06
4.64445e-06
7.5173e-06
5.14538e-06
7.84802e-06
5.4994e-06
8.05475e-06
5.7509e-06
8.12879e-06
5.93346e-06
8.07591e-06
6.07182e-06
7.90726e-06
6.18398e-06
7.63522e-06
6.28287e-06
7.27151e-06
6.37762e-06
6.82662e-06
6.47457e-06
6.30978e-06
6.5779e-06
5.72937e-06
6.69013e-06
5.09321e-06
6.81251e-06
4.40908e-06
6.94536e-06
3.68494e-06
7.08838e-06
2.92917e-06
7.24048e-06
2.15099e-06
7.39976e-06
1.36237e-06
7.56516e-06
5.78011e-07
7.73171e-06
-1.79719e-07
-7.6884e-07
7.88828e-06
1.79343e-06
5.18098e-06
3.13928e-06
5.43766e-06
4.07475e-06
6.17351e-06
4.70592e-06
6.88624e-06
5.12719e-06
7.42683e-06
5.40924e-06
7.77274e-06
5.60113e-06
7.93693e-06
5.73592e-06
7.94115e-06
5.83565e-06
7.80756e-06
5.91507e-06
7.55584e-06
5.98402e-06
7.2026e-06
6.04914e-06
6.76153e-06
6.11483e-06
6.24415e-06
6.18387e-06
5.66038e-06
6.25788e-06
5.01927e-06
6.33768e-06
4.32938e-06
6.42348e-06
3.59923e-06
6.51531e-06
2.83745e-06
6.61358e-06
2.05281e-06
6.71897e-06
1.25705e-06
6.831e-06
4.66216e-07
6.94935e-06
-2.98125e-07
-8.80422e-07
7.06158e-06
2.01265e-06
3.16929e-06
3.42259e-06
4.02808e-06
4.27906e-06
5.3172e-06
4.78439e-06
6.38099e-06
5.0856e-06
7.12566e-06
5.27051e-06
7.58786e-06
5.38908e-06
7.81837e-06
5.46988e-06
7.86036e-06
5.52937e-06
7.74809e-06
5.57717e-06
7.50806e-06
5.61906e-06
7.16072e-06
5.65855e-06
6.72208e-06
5.69767e-06
6.20506e-06
5.73751e-06
5.6206e-06
5.77839e-06
4.97845e-06
5.82019e-06
4.28766e-06
5.86255e-06
3.55696e-06
5.9055e-06
2.79461e-06
5.94946e-06
2.00894e-06
5.99619e-06
1.21036e-06