/*--------------------------------*- C++ -*----------------------------------*\
  =========                 |
  \\      /  F ield         | OpenFOAM: The Open Source CFD Toolbox
   \\    /   O peration     | Website:  https://openfoam.org
    \\  /    A nd           | Version:  13
     \\/     M anipulation  |
\*---------------------------------------------------------------------------*/
FoamFile
{
    format      ascii;
    class       volScalarField;
    location    "2.05";
    object      rho;
}
// * * * * * * * * * * * * * * * * * * * * * * * * * * * * * * * * * * * * * //

dimensions      [1 -3 0 0 0 0 0];

internalField   nonuniform List<scalar> 
2268
(
13529
13529
13529
13529
13529
13529
13529
13529
13529
13529
13529
13529
13529
13529
13529
13529
13529
13529
13529
13526.7
13523.1
13521.6
13521.6
13529
13529
13529
13529
13529
13529
13529
13529
13529
13529
13529
13529
13529
13529
13529
13529
13529
13529
13529
13529
13529
13528.3
13526.4
13529
13529
13529
13529
13529
13529
13529
13529
13529
13529
13529
13529
13529
13529
13529
13529
13529
13529
13529
13529
13529
13529
13529
13529
13529
13529
13529
13529
13529
13529
13529
13529
13529
13529
13529
13529
13529
13529
13529
13529
13529
13529
13529
13529
13529
13529
13529
13529
13529
13529
13529
13529
13529
13529
13529
13529
13529
13529
13529
13529
13529
13529
13519.5
13495.3
13469.5
13457.5
13467.9
13493.1
13505.6
13529
13529
13529
13529
13529
13529
13529
13529
13529
13204.7
12624.5
11864.2
11026.5
10186.2
9383.98
8481.23
7724.11
7170.13
6828.95
6720.09
6859.21
7194.67
7227.06
13529
13529
13529
13529
13529
13090.3
11630.2
9638.09
7274.29
5150.16
3614.1
2558.27
1842.86
1359.57
1037.95
999.999
999.996
999.977
999.897
999.693
999.301
998.728
998.557
13405.9
13070.7
12190.7
10439.5
7703.88
4671.81
2618.86
1422.87
1016.44
1000
1000
1000
1000
1000
1000
999.999
999.996
999.98
999.966
999.947
999.916
999.844
999.667
11911.7
11938.9
11944
11953.6
11952.4
11935.7
11521.1
8837.47
8618.11
8696.42
8647.85
8438.08
8228.57
8235.66
9799.3
10330.8
10330.3
10288.2
10289.6
7537.83
7482.69
7943.54
8504.13
9114.25
10106.4
10304.4
11295.3
11386.2
11353.2
11312.2
10836.9
10194.1
10248.5
10282.1
10320.7
10325.4
10287.8
10289.8
2515.79
2316.22
2153.68
2273.3
3184.04
3313.52
4156.33
5114.79
6751.4
8449.11
9064.07
9256.03
8778.82
9009.4
9233.96
9500.4
10265.1
10286.7
10047.8
3157.15
3224.88
2478.51
2411.19
1912.67
1630.77
1321.7
1113.69
1108.19
1074.35
1350.3
3048.8
3444.1
3261.57
3699.1
4192.59
5184.3
7592.63
6814.52
2795.68
3041.39
2966.69
2973.52
2135.08
1408.76
1316.13
1456.35
1136.58
1016.04
836.953
509.942
1913.47
2566.53
2514.75
3364.23
3822.63
3235.68
6133.85
1942.62
1958.25
2178.68
2086.53
2167.91
1814.46
1695.79
1950.63
1488.96
1012.58
977.316
667.598
340.92
841.673
1290.65
1555.39
2017.27
3017.84
2223.06
1001.79
996.496
1176.61
1354.35
1526.04
1698.13
1751.27
1767.91
1135.1
999.782
999.437
982.732
859.275
648.961
646.726
808.049
852.95
897.07
1803.2
1059.07
939.741
1027.88
1075.15
999.911
1571.65
1775.38
1000.55
1000.1
1001.21
1001.26
1001.37
1000.52
980.271
965.484
977.688
993.358
987.477
923.866
3187.74
2748.51
2053.24
1403.31
1055.89
1000
1000
1000
1000
1000
1000
1000
1000
1000
1000
1000
1000
999.999
999.999
999.998
999.998
999.994
993.905
1000
1000
1000
1000
1000
1000
1000
1000
1000
1000
1000
1000
1000
1000
1000
1000
1000
999.997
996.44
979.143
957.075
941.602
895.502
1000
1000
1000
1000
1000
1000
1000
1000
1000
1000
1000
1000
1000
998.793
989.244
975.804
962.982
931.672
865.754
800.551
690.35
546.363
522.224
1000
999.968
997.274
996.406
997.584
999.734
999.637
998.085
991.643
981.434
969.877
954.028
925.775
876.347
801.936
757.099
686.415
598.578
524.702
452.988
457.683
499.049
493.164
876.427
895.979
909.444
887.193
839.39
799.986
811.569
779.275
732.161
710.556
647.674
580.658
539.987
503.259
456.713
431.403
462.013
434.86
415.918
479.649
499.629
498.997
493.821
591.16
548.037
525.402
513.714
508.519
507.354
501.848
471.631
441.047
467.927
471.169
467.594
474.341
477.243
476.095
489.964
497.305
491.941
487.524
499.341
499.982
499.387
499.273
380.645
411.443
447.479
462.118
468.516
473.293
477.067
475.695
476.432
480.827
486.842
495.743
499.944
499.963
499.981
499.999
500
500
500
500
499.984
499.981
500
37.947
58.5593
82.7855
105.482
123.849
138.436
153.022
178.955
203.751
225.61
257.012
292.775
344.345
406.251
469.384
499.997
499.999
499.999
500
500
499.999
500
500
0.999974
0.999998
1
1.00008
1.01065
1.01151
1.0072
1.00131
1.00062
1.4205
3.4245
7.93697
17.8823
42.3652
85.6324
172.166
313.106
441.831
499.493
499.999
499.999
499.829
483.311
1.00064
1.00205
1.00155
1.0129
1.13133
1.16573
1.02644
1.00032
1.00004
1.00001
0.999992
1
1.0008
1.00205
1.00215
1.00291
4.93445
37.8346
96.3129
167.981
200.072
190.283
136.95
1.00111
1.00407
1.00591
1.03408
1.00282
1.00151
1.00233
1
1.00001
1.00791
1.01756
1.00065
1.00006
1.00015
1.00007
1
1.00059
1.003
1.00358
1.00302
1.0017
1.00011
1.00004
1.00059
1.00147
1.00032
1.00021
1.00004
1.00004
1.00012
1.00412
1.04726
1.08603
1.08638
1.05419
1.00172
1.00002
1.00002
1
1
1.00001
1.00001
1.00022
1.00011
1.00005
1.00004
1.00027
1.00015
1.00007
1.00006
1.00007
1.00005
1.00013
1.00871
1.08567
1.08719
1.08743
1.07627
1.00312
1.0004
1
1
1.00004
1.0001
1.00009
1.00005
1.00003
1.00002
1.00003
1.00021
1.00013
1.00009
1.00007
1.00009
1.0001
1.00011
1.00111
1.03385
1.07437
1.06812
1.0165
1.00336
1.00313
1.00163
1.00138
1.00106
1.0004
1.00019
1.00012
1.0001
1.0001
1.00007
1.00012
1.00012
1.00007
1.00006
1.00008
1.00013
1.00015
1.00017
1.00044
1.00309
1.00285
1.00227
1.00321
1.00317
1.00317
1.00313
1.00197
1.0005
1.00026
1.00019
1.00015
1.00013
1.0001
1.00005
1.00006
1.00005
1.00004
1.00003
1.00003
1.00005
1.00004
1.00002
1.00004
1.00013
1.00063
1.00182
1.00248
1.00162
1.00128
1.00088
1.00041
1.00023
1.00017
1.00015
1.00012
1.0001
1.00005
1.00005
1.00004
1.00003
1.00002
1.00002
1.00002
1.00002
1.00002
1.00008
1.00029
1.00053
1.00079
1.00046
1.00019
1.00017
1.00014
1.00017
1.00015
1.00012
1.0001
1.00009
1.00007
1.00004
1.00005
1.00004
1.00003
1.00002
1.00001
1.00001
1.00002
1.00003
1.00008
1.00026
1.00041
1.00044
1.00016
1.00001
1.00002
1.00003
1.00004
1.00007
1.00006
1.00006
1.00005
1.00004
1.00004
1.00005
1.00004
1.00003
1.00002
1.00001
1.00001
1.00001
1.00002
1.00003
1.00008
1.00018
1.00012
1.00003
1.00001
1.00002
1.00002
1.00002
1.00002
1.00002
1.00002
1.00002
1.00002
1.00004
1.00004
1.00004
1.00003
1.00002
1.00001
1.00001
1.00001
1.00001
1.00001
1.00001
1.00001
1.00001
1.00001
1.00001
1.00001
1.00001
1.00001
1.00001
1.00001
1.00001
1.00001
1.00001
1.00003
1.00003
1.00003
1.00003
1.00002
1.00001
1.00001
1.00001
1.00001
1
1
1
1
1.00001
1.00001
1.00001
1.00001
1.00001
1.00001
1.00001
1.00001
1.00001
1.00001
1.00003
1.00003
1.00003
1.00002
1.00002
1.00001
1.00001
1
1
1
1
1
1
1
1
1
1
1
1
1
1
1
1
1.00002
1.00002
1.00002
1.00002
1.00001
1.00001
1.00001
1
1
1
1
1
1
1
1
1
1
1
1
1
1
1
1
1.00002
1.00002
1.00001
1.00001
1.00001
1.00001
1
1
1
1
1
1
1
1
1
1
1
1
1
1
1
1
1
1.00002
1.00001
1.00001
1.00001
1.00001
1.00001
1
1
1
1
1
1
1
1
1
1
1
1
1
1
1
1
1
1.00001
1.00001
1.00001
1
1
1
1
1
1
1
1
1
1
1
1
1
1
1
1
1
1
1
1
1.00001
1.00001
1
1
1
1
1
1
1
1
1
1
1
1
1
1
1
1
1
1
1
1
1
1.00001
1
1
1
1
1
1
1
1
1
1
1
1
1
1
1
1
1
1
1
1
1
1
1
1
1
1
1
1
1
1
1
1
1
1
1
1
1
1
1
1
1
1
1
1
1
1
1
1
1
1
1
1
1
1
1
1
1
1
1
1
1
1
1
1
1
1
1
1
1
1
1
1
1
1
1
1
1
1
1
1
1
1
1
1
1
1
1
1
1
1
1
1
1
1
1
1
1
1
1
1
1
1
1
1
1
1
1
1
1
1
1
1
1
1
1
1
1
1
1
1
1
1
1
1
1
1
1
1
1
1
1
1
1
1
1
1
1
1
1
1
1
1
1
1
1
1
1
1
1
1
1
1
1
1
1
1
1
1
1
1
1
1
1
1
1
1
1
1
1
1
1
1
1
1
1
1
1
1
1
1
1
1
1
1
1
1
1
1
1
1
1
1
1
1
1
1
1
1
1
1
1
1
1
1
1
1
1
1
1
1
1
1
1
1
1
1
1
1
1
1
1
1
1
1
1
1
1
1
1
1
1
1
1
1
1
1
1
1
1
1
1
1
1
1
1
1
1
1
1
1
1
1
1
1
1
1
1
1
1
1
1
1
1
1
1
1
1
1
1
1
1
1
1
1
1
1
1
1
1
1
1
1
1
1
1
1
1
1
1
1
1
1
1
1
1
1
1
1
1
1
1
1
1
1
1
1
1
1
1
1
1
1
1
1
1
1
1
1
1
1
1
1
1
1
1
1
1
1
1
1
1
1
1
1
1
1
1
1
1
1
1
1
1
1
1174.22
1562.99
1599.06
1545.88
646.318
534.071
513.304
611.012
422.211
414.981
409.613
463.247
407.35
407.641
472.848
489.724
490.58
493.554
500.838
500.723
500.021
500.035
500.016
500
500.001
500
500
500
500
500
500.001
500.001
495.867
500
500
496.29
120.891
136.256
119.781
69.8782
1.00001
1.00259
1.00118
1
1.00002
1.00004
1.00005
1.00003
1.00003
1.00003
1.00003
1.00003
1.00007
1.00006
1.00005
1.00004
1.00008
1.00007
1.00005
1.00005
1.00009
1.00007
1.00005
1.00004
1.00006
1.00005
1.00004
1.00003
1.00004
1.00003
1.00003
1.00002
1.00002
1.00002
1.00001
1.00001
1.00001
1.00001
1.00001
1.00001
1.00001
1
1
1
1
1
1
1
1
1
1
1
1
1
1
1
1
1
1
1
1
1
1
1
1
1
1
1
1
1
1
1
1
1
1
1
1
1
1
1
1
1
1
1
1
1
1
1
1
1
1
1
1
1
1
1
1
1
1
1
1
1
1
1
1
1
1
1
1
1
1
1
1
1
1
1
1
1
1
1
1
1
1
1
1
1
1
1
1213.12
880.149
876.732
902.079
1063.73
973.917
990.782
999.48
997.881
998.547
1000.16
1000.68
1000.77
1000.42
1000.14
1000.14
1000.13
999.816
808.655
780.557
802.482
782.743
555.019
493.216
556.751
816.655
880.788
912.11
910.084
901.244
903.438
912.543
927.257
970.902
1000.73
1000.17
999.572
992.168
526.405
525.098
500.179
499.427
487.135
470.264
510.652
519.892
538.801
531.849
524.856
526.413
531.163
540.492
579.39
678.42
796.576
905.281
984.611
488.327
498.023
499.968
500.283
491.634
462.313
469.169
500.334
500.73
500.129
500.015
500.087
500.2
500.395
501.207
501.191
508.123
581.09
704.286
500.378
500.018
499.723
499.573
499.881
500.078
500.015
500.003
500.049
499.995
499.996
500
499.996
499.91
500.151
500.642
500.893
528.016
575.918
500.004
500.001
500.001
500
500.001
500.001
500.001
500
499.999
500.001
500.001
500
500.001
500
500
499.692
499.608
506.451
512.091
500.002
500.004
500.002
500.002
500.002
500.003
500.002
500
500
500
500
500.001
500.002
500
500.003
500.348
497.034
495.232
496.587
500.001
500.001
500.001
500.002
499.601
496.058
490.389
486.341
483.226
480.394
479.32
480.496
481.261
480.948
488.174
494.47
495.431
488.281
478.836
475.856
424.05
352.703
307.07
261.34
208.116
173.382
156.369
143.991
134.431
131.529
135.033
136.482
136.321
149.646
150.541
154.334
148.104
119.094
35.1594
12.5697
7.41935
2.75394
1.00046
1.0022
1.00979
1.0401
1.14241
1.41135
1.96746
2.96087
5.01084
8.5177
9.24723
12.064
7.96808
2.06476
1.00801
1.00001
1.00002
1.00008
1.00028
1.00065
1.00185
1.00493
1.01026
1.03164
1.16854
1.4845
1.64883
1.32656
1.21276
1.09199
1.01489
1.00074
1.00174
1.00084
1.00003
1.00005
1.00009
1.00022
1.00078
1.00216
1.01501
1.19379
1.2896
1.10849
1.03901
1.07774
1.64574
1.62449
1.40061
1.00714
1.00182
1.00146
1.0004
1.00004
1.00005
1.00008
1.00014
1.00032
1.00104
1.01116
1.37581
1.49469
1.49333
1.04802
1.02204
1.34034
1.54014
1.27121
1.00346
1.00154
1.00142
1.00031
1.00004
1.00004
1.00006
1.0001
1.00015
1.00019
1.00052
1.0677
1.3887
1.47304
1.15778
1.00086
1.00211
1.00181
1.00076
1.00155
1.00058
1.0001
1.00029
1.00004
1.00004
1.00003
1.00007
1.00013
1.00012
1.00013
1.00004
1.00004
1.0073
1.01115
1.00133
1.00094
1.00053
1.00014
1.00007
1.00003
1.00012
1.00034
1.00003
1.00003
1.00002
1.00004
1.00008
1.00008
1.0002
1.00023
1.00014
1.00008
1.00012
1.00037
1.00055
1.00041
1.00021
1.00004
1.00004
1.00014
1.00034
1.00002
1.00002
1.00002
1.00003
1.00003
1.00002
1.00024
1.00045
1.00042
1.00016
1.00009
1.00019
1.00057
1.00057
1.00026
1.00005
1.00003
1.00014
1.00033
1.00002
1.00001
1.00001
1.00002
1.00002
1.00002
1.00002
1.00026
1.00031
1.00017
1.00007
1.00006
1.00019
1.00022
1.00007
1.00002
1.00004
1.00006
1.00009
1.00001
1.00001
1.00001
1.00001
1.00001
1.00002
1.00001
1.00002
1.00002
1.00003
1.00004
1.00002
1.00001
1.00001
1.00001
1.00001
1.00002
1.00002
1.00001
1.00001
1
1
1.00001
1.00001
1.00001
1.00001
1.00001
1.00002
1.00002
1.00002
1.00002
1.00001
1.00001
1.00001
1.00001
1.00002
1.00001
1.00001
1
1
1
1
1
1
1.00001
1.00001
1.00001
1.00001
1.00001
1.00001
1.00001
1.00001
1.00001
1.00001
1.00001
1.00001
1.00001
1
1
1
1
1
1
1
1
1
1
1
1
1
1
1
1
1.00001
1.00001
1.00001
1
1
1
1
1
1
1
1
1
1
1
1
1
1
1
1
1.00001
1.00001
1.00001
1
1
1
1
1
1
1
1
1
1
1
1
1
1
1
1
1.00001
1.00001
1.00001
1
1
1
1
1
1
1
1
1
1
1
1
1
1
1
1
1.00001
1.00002
1.00002
1
1
1
1
1
1
1
1
1
1
1
1
1
1
1
1.00001
1.00001
1.00004
1.00002
1
1
1
1
1
1
1
1
1
1
1
1
1
1
1
1.00001
1.00002
1.00004
1.00003
1
1
1
1
1
1
1
1
1
1
1
1
1
1
1
1.00001
1.00002
1.00005
1.00003
1
1
1
1
1
1
1
1
1
1
1
1
1
1
1
1.00001
1.00002
1.00005
1.00003
1
1
1
1
1
1
1
1
1
1
1
1
1
1
1
1.00001
1.00003
1.00005
1.00003
1
1
1
1
1
1
1
1
1
1
1
1
1
1
1
1.00001
1.00003
1.00005
1.00003
1
1
1
1
1
1
1
1
1
1
1
1
1
1
1
1.00001
1.00003
1.00005
1.00002
1
1
1
1
1
1
1
1
1
1
1
1
1
1
1
1.00001
1.00003
1.00003
1.00002
1
1
1
1
1
1
1
1
1
1
1
1
1
1
1
1.00001
1.00001
1.00002
1.00001
1
1
1
1
1
1
1
1
1
1
1
1
1
1
1
1.00001
1.00001
1
1
1
1
1
1
1
1
1
1
1
1
1
1
1
1
1
1
1
1
1
1
1
1
1
1
1
1
1
1
1
1
1
1
1
1
1
1
1
1
1
1
1
1
1
1
1
1
1
1
1
1
1
1
1
1
1
1
1
1
1
1
1
1
1
1
1
1
1
1
1
1
1
1
1
1
1
1
1
1
1
1
1
1
1
1
1
1
1
1
1
1
1
1
1
1
1
1
1
1
1
1
1
1
1
1
1
1
1
1
1
1
1
1
1
1
1
1
1
1
1
1
1
1
1
1
1
1
1
1
1
1
1
1
1
)
;

boundaryField
{
    leftWall
    {
        type            calculated;
        value           nonuniform List<scalar> 
50
(
13529
13529
13529
13529
13529
13529
13529
13405.9
3187.74
1000
1000
1000
876.427
591.16
380.645
37.947
0.999974
1.00064
1.00111
1.00059
1.00027
1.00021
1.00012
1.00005
1.00005
1.00004
1.00004
1.00004
1.00003
1.00003
1.00002
1.00002
1.00002
1.00001
1.00001
1.00001
1
1
1
1
1
1
1
1
1
1
1
1
1
1
)
;
    }
    rightWall
    {
        type            calculated;
        value           nonuniform List<scalar> 
50
(
10289.6
10289.8
10047.8
6814.52
6133.85
2223.06
1803.2
923.866
808.655
992.168
984.611
704.286
575.918
512.091
496.587
478.836
119.094
1.00801
1.00084
1.0004
1.00031
1.00029
1.00034
1.00034
1.00033
1.00009
1.00001
1.00001
1.00001
1.00001
1.00001
1.00001
1.00002
1.00002
1.00003
1.00003
1.00003
1.00003
1.00003
1.00002
1.00002
1.00001
1
1
1
1
1
1
1
1
)
;
    }
    lowerWall
    {
        type            calculated;
        value           nonuniform List<scalar> 
62
(
13529
13529
13529
13529
13529
13529
13529
13529
13529
13529
13529
13529
13529
13529
13529
13529
13529
13529
13529
13526.7
13523.1
13521.6
13521.6
13521.6
13526.4
13529
13529
13505.6
7227.06
998.557
999.667
1174.22
1562.99
1599.06
1545.88
11911.7
7537.83
2515.79
3157.15
2795.68
1942.62
1001.79
1059.07
11911.7
11938.9
11944
11953.6
11952.4
11935.7
11521.1
8837.47
8618.11
8696.42
8647.85
8438.08
8228.57
8235.66
9799.3
10330.8
10330.3
10288.2
10289.6
)
;
    }
    atmosphere
    {
        type            calculated;
        value           nonuniform List<scalar> 
46
(
0.999999
0.999999
0.999999
0.999999
0.999999
0.999999
1
1
1
1
1
1
1
1
1
1
1
1
1
1
1
1
1
1
1
1
1
1
1
1
1
1
1
1
1
1
1
1
1
1
1
1
1
1
1
1
)
;
    }
    defaultFaces
    {
        type            empty;
    }
}


// ************************************************************************* //
