/*--------------------------------*- C++ -*----------------------------------*\
  =========                 |
  \\      /  F ield         | OpenFOAM: The Open Source CFD Toolbox
   \\    /   O peration     | Website:  https://openfoam.org
    \\  /    A nd           | Version:  13
     \\/     M anipulation  |
\*---------------------------------------------------------------------------*/
FoamFile
{
    format      ascii;
    class       volScalarField;
    location    "150";
    object      p;
}
// * * * * * * * * * * * * * * * * * * * * * * * * * * * * * * * * * * * * * //

dimensions      [0 2 -2 0 0 0 0];

internalField   nonuniform List<scalar> 
10720
(
-77.7155
-150.907
-237.329
-322.074
-400.132
-479.801
-550.199
-609.168
-660.457
-700.484
-731.174
-753.822
-769.113
-778.236
-781.704
-779.094
-771.28
-756.922
-737.152
-710.603
-678.299
-639.442
-596.249
-549.621
-503.035
-461.537
-424.131
-387.265
-350.666
-314.556
-278.759
-243.14
-207.594
-171.9
-135.807
-98.2265
-58.8184
-11.6961
35.4123
-3.8763
63.1555
135.15
202.613
260.445
304.612
331.481
341.274
339.67
327.648
307.241
283.823
260.141
237.212
215.723
195.493
176.59
158.592
141.243
124.039
106.935
89.6093
72.1569
54.9806
39.9925
28.2656
18.7337
11.0042
5.08015
1.01654
-1.28458
-1.93002
-1.00097
1.50474
5.59645
11.6911
20.3374
35.2706
60.3453
31.3844
-24.292
-86.5528
-152.592
-220.356
-289.66
-356.878
-419.909
-478.11
-529.704
-574.352
-612.001
-642.714
-666.588
-683.538
-693.24
-696.284
-692.253
-681.688
-663.978
-639.674
-608.506
-572.137
-531.704
-490.269
-452.109
-416.777
-381.51
-346.143
-310.992
-275.971
-240.98
-205.941
-170.651
-134.871
-97.5307
-58.3057
-11.2797
35.1324
81.5265
129.439
177.348
223.758
264.832
297.952
320.142
330.385
329.982
320.206
303.784
284.008
262.919
241.618
220.864
200.892
181.844
163.559
145.856
128.407
111.119
93.7808
76.4765
59.6181
44.6931
32.6208
22.6688
14.5067
8.15621
3.67135
0.980774
-0.0151512
0.600255
2.82832
6.68814
12.6003
21.1046
35.9462
60.0296
47.0858
-2.74279
-58.7039
-120.351
-184.184
-249.539
-314.817
-377.343
-435.55
-488.436
-534.764
-574.207
-606.598
-631.835
-650.083
-661.527
-666.415
-664.56
-656.147
-640.941
-619.236
-591.086
-557.738
-520.466
-481.803
-445.256
-410.943
-376.726
-342.293
-307.921
-273.554
-239.098
-204.489
-169.541
-134.028
-96.8981
-57.8453
-11.0075
34.9051
92.0949
135.941
179.629
221.164
257.206
286.148
305.975
316.141
317.309
310.339
297.205
280.164
261.022
241.036
221.077
201.586
182.778
164.635
147.032
129.73
112.606
95.5156
78.5246
62.0085
47.1465
34.8373
24.6655
16.3141
9.78387
5.11983
2.25968
1.10409
1.57182
3.66581
7.41381
13.2377
21.6747
36.3939
59.4967
70.5678
28.6306
-19.1616
-71.6803
-126.765
-184.351
-242.777
-300.229
-355.383
-407.098
-454.234
-496.116
-532.255
-562.34
-586.132
-603.638
-614.637
-618.839
-616.182
-606.542
-590.087
-567.019
-538.347
-505.387
-470.33
-436.172
-403.499
-370.742
-337.529
-304.145
-270.596
-236.811
-202.747
-168.234
-133.063
-96.21
-57.3931
-10.8667
34.5191
108.159
144.351
180.691
215.858
246.773
272.193
290.318
300.495
302.991
298.346
288.072
273.862
257.18
239.177
220.694
202.237
184.092
166.363
149.01
131.896
114.927
98.0275
81.2702
65.0074
50.2073
37.7169
27.3281
18.7494
11.9747
7.05402
3.93713
2.53659
2.78065
4.67758
8.26252
13.9562
22.2833
36.8052
58.9329
78.0055
40.7423
-1.93411
-49.1339
-98.7772
-151.27
-205.219
-258.992
-311.571
-361.8
-408.533
-450.974
-488.448
-520.418
-546.489
-566.431
-579.869
-586.682
-586.729
-579.992
-566.577
-546.761
-521.369
-491.648
-459.482
-427.372
-396.125
-364.638
-332.534
-300.083
-267.339
-234.244
-200.76
-166.731
-131.955
-95.437
-56.9233
-10.8138
33.898
111.494
143.562
175.852
207.107
234.614
257.523
274.404
284.575
288.092
285.39
277.585
265.958
251.65
235.649
218.744
201.458
184.141
166.984
150.033
133.239
116.551
99.9409
83.4939
67.539
52.8792
40.2892
29.7254
20.9546
13.9725
8.83269
5.49847
3.89254
3.94902
5.67769
9.11896
14.6916
22.9035
37.1974
58.3358
82.5593
49.5227
11.4847
-30.5729
-74.8301
-121.994
-170.772
-219.864
-268.521
-315.69
-360.39
-401.852
-439.334
-472.197
-499.935
-522.145
-538.445
-548.591
-552.307
-549.439
-539.984
-524.169
-502.665
-476.608
-447.639
-417.872
-388.272
-358.176
-327.264
-295.803
-263.895
-231.511
-198.627
-165.103
-130.752
-94.6109
-56.4581
-10.8762
33.0485
112.251
140.571
169.281
197.267
222.026
242.934
258.813
268.921
273.193
272.034
266.274
256.905
244.817
230.823
215.621
199.706
183.443
167.073
150.709
134.375
118.071
101.813
85.705
70.0608
55.5631
42.9163
32.2029
23.2581
16.0795
10.7233
7.16716
5.34448
5.19722
6.74025
10.0209
15.4552
23.5311
37.5521
57.6855
83.2277
53.4242
19.0133
-19.0607
-59.0477
-101.89
-146.43
-191.532
-236.695
-280.972
-323.517
-363.634
-400.563
-433.622
-462.234
-485.882
-504.084
-516.447
-522.636
-522.455
-515.887
-503.148
-484.801
-461.857
-435.727
-408.17
-380.199
-351.488
-321.786
-291.338
-260.289
-228.635
-196.372
-163.375
-129.474
-93.745
-56.009
-11.0638
31.982
110.043
135.538
161.517
186.944
209.528
228.824
243.854
253.838
258.659
258.706
254.617
247.174
237.076
224.979
211.473
196.996
181.899
166.448
150.802
135.041
119.214
103.379
87.661
72.3594
58.0677
45.4275
34.6116
25.5245
18.1718
12.6143
8.84572
6.81242
6.46498
7.82371
10.942
16.2309
24.1561
37.8609
56.9878
82.1223
55.0595
23.7452
-10.8752
-47.1398
-86.1194
-126.751
-168.043
-209.668
-250.821
-290.764
-328.917
-364.576
-397.072
-425.797
-450.182
-469.671
-483.834
-492.292
-494.759
-491.12
-481.507
-466.359
-446.536
-423.253
-397.984
-371.742
-344.482
-316.043
-286.657
-256.505
-225.617
-194.002
-161.556
-128.13
-92.8453
-55.5764
-11.3686
30.7118
106.508
129.64
153.341
176.648
197.429
215.382
229.662
239.469
244.678
245.654
242.91
237.082
228.726
218.367
206.49
193.464
179.607
165.182
150.371
135.292
120.037
104.699
89.4199
74.4918
60.445
47.8655
36.9892
27.7878
20.2811
14.5362
10.5629
8.32202
7.77327
8.94331
11.8919
17.0232
24.7785
38.123
56.2482
79.7293
54.9495
26.2407
-5.47397
-38.5907
-74.2469
-111.478
-149.389
-187.796
-225.995
-263.369
-299.444
-333.582
-365.155
-393.571
-418.232
-438.547
-454.026
-464.232
-468.804
-467.559
-460.584
-448.224
-431.205
-410.556
-387.499
-362.997
-337.204
-310.051
-281.762
-252.542
-222.452
-191.518
-159.653
-126.729
-91.9186
-55.1579
-11.7759
29.2617
102.092
123.271
145.075
166.604
185.859
202.675
216.277
225.87
231.342
233.028
231.361
226.87
220.014
211.209
200.85
189.236
176.638
163.301
149.406
135.098
120.495
105.721
90.9318
76.4153
62.6549
50.1909
39.3011
30.0191
22.3835
16.4695
12.3028
9.86042
9.11221
10.0917
12.8652
17.828
25.3945
38.3371
55.4675
76.6067
53.784
27.322
-1.87452
-32.2648
-65.0112
-99.2166
-134.074
-169.501
-204.879
-239.699
-273.583
-305.962
-336.289
-363.996
-388.486
-409.172
-425.524
-437.081
-443.446
-444.346
-439.798
-430.043
-415.675
-397.55
-376.675
-353.939
-329.642
-303.805
-276.647
-248.393
-219.135
-188.914
-157.663
-125.273
-90.9709
-54.7539
-12.2752
27.6632
97.2389
116.753
136.939
156.943
174.888
190.713
203.698
213.048
218.685
220.909
220.1
216.709
211.126
203.688
194.715
184.438
173.083
160.859
147.937
134.467
120.587
106.438
92.1896
78.124
64.6915
52.3955
41.5403
32.2127
24.4749
18.4111
14.0639
11.4269
10.4816
11.2686
13.8613
18.6437
26.0022
38.5031
54.6475
73.045
51.9135
27.4009
0.391704
-27.6231
-57.8207
-89.3559
-121.494
-154.213
-186.975
-219.365
-251.089
-281.647
-310.56
-337.315
-361.346
-382.072
-398.958
-411.5
-419.297
-421.989
-419.533
-412.09
-400.129
-384.352
-365.579
-344.603
-321.815
-297.312
-271.313
-244.058
-215.663
-186.188
-155.583
-123.762
-90.0056
-54.3687
-12.8603
25.9409
92.1815
110.264
129.049
147.73
164.532
179.479
191.891
200.986
206.708
209.336
209.205
206.717
202.208
195.958
188.228
179.194
169.032
157.915
145.993
133.409
120.307
106.837
93.1772
79.6014
66.5386
54.4615
43.6892
34.3539
26.5426
20.3513
15.8386
13.0159
11.8775
12.4712
14.8778
19.4681
26.5989
38.6213
53.7916
69.2557
49.6072
26.8079
1.7231
-24.2065
-52.1509
-81.3102
-111.007
-141.269
-171.617
-201.712
-231.333
-260.048
-287.452
-313.081
-336.412
-356.898
-374.007
-387.218
-396.132
-400.329
-399.7
-394.33
-384.571
-370.988
-354.235
-335.005
-313.73
-290.577
-265.762
-239.535
-212.035
-183.338
-153.413
-122.194
-89.0241
-54.0063
-13.5297
24.1105
87.0851
103.917
121.475
138.989
154.784
168.942
180.815
189.648
195.394
198.32
198.725
196.974
193.366
188.14
181.511
173.612
164.575
154.535
143.616
131.944
119.661
106.917
93.8859
80.8388
68.1859
56.376
45.7346
36.4306
28.5769
22.2818
17.6207
14.6228
13.2965
13.6967
15.9125
20.2988
27.1824
38.6928
52.9028
65.3781
47.0383
25.7585
2.37933
-21.704
-47.6464
-74.6864
-102.19
-130.226
-158.368
-186.326
-213.945
-240.853
-266.71
-291.114
-313.59
-333.627
-350.713
-364.328
-374.072
-379.497
-380.421
-376.867
-369.09
-357.528
-342.693
-325.171
-305.407
-283.609
-259.998
-234.825
-208.249
-180.362
-151.15
-120.57
-88.0273
-53.6703
-14.2802
22.1811
82.0475
97.7806
114.247
130.72
145.619
159.061
170.427
178.993
184.718
187.857
188.684
187.533
184.678
180.329
174.666
167.79
159.797
150.786
140.853
130.102
118.661
106.674
94.3092
81.8272
69.623
58.1257
47.6624
38.43
30.566
24.1931
19.4026
16.2418
14.7343
14.942
16.9623
21.1332
27.7503
38.7185
51.9847
61.5041
44.3308
24.4099
2.55532
-19.8809
-44.0328
-69.1743
-94.7033
-120.724
-146.847
-172.827
-198.557
-223.722
-248.038
-271.165
-292.679
-312.106
-328.969
-342.76
-353.078
-359.478
-361.708
-359.735
-353.73
-344.02
-330.995
-315.133
-296.861
-276.418
-254.025
-229.93
-204.306
-177.259
-148.794
-118.889
-87.0153
-53.3633
-15.1077
20.161
77.1374
91.8897
107.382
122.917
137.01
149.793
160.68
168.981
174.649
177.936
179.093
178.429
176.202
172.6
167.779
161.816
154.778
146.736
137.754
127.915
117.326
106.117
94.4467
82.5616
70.8416
59.6995
49.4597
40.3393
32.4988
26.0755
21.1764
17.8668
16.1861
16.2033
18.0243
21.9686
28.3004
38.7005
51.0409
57.6946
41.5707
22.8731
2.3912
-18.5671
-41.1106
-64.5397
-88.2887
-112.479
-136.753
-160.907
-184.871
-208.377
-231.195
-253.031
-273.516
-292.221
-308.705
-322.487
-333.163
-340.309
-343.613
-342.995
-338.554
-330.525
-319.188
-304.921
-288.115
-269.019
-247.851
-224.852
-200.205
-174.029
-146.345
-117.151
-85.9884
-53.0855
-16.0083
18.0592
72.3964
86.2664
100.877
115.564
128.923
141.098
151.532
159.567
165.154
168.535
169.948
169.679
167.974
165.008
160.917
155.763
149.591
142.447
134.371
125.419
115.677
105.257
94.3022
83.0399
71.8356
61.0877
51.1142
42.1462
34.3637
27.9188
22.9335
19.491
17.6464
17.4762
19.0949
22.8019
28.8305
38.6406
50.0755
53.9905
38.8186
21.229
1.99085
-17.6343
-38.7216
-60.6008
-82.7375
-105.262
-127.848
-150.321
-172.642
-194.581
-215.953
-236.512
-255.936
-273.843
-289.83
-303.449
-314.298
-321.987
-326.155
-326.682
-323.609
-317.091
-307.317
-294.572
-279.194
-261.428
-241.486
-219.598
-195.95
-170.673
-143.802
-115.357
-84.9465
-52.8372
-16.9753
15.8847
67.8488
80.9203
94.7293
108.642
121.327
132.937
142.944
150.715
156.2
159.636
161.245
161.295
160.024
157.595
154.135
149.693
144.3
137.98
130.754
122.653
113.742
104.111
93.8817
83.2628
72.6021
62.283
52.6156
43.839
36.1492
29.7124
24.665
21.1067
19.1091
18.7561
20.1699
23.6299
29.3385
38.5415
49.0928
50.4198
36.1142
19.5344
1.43055
-16.9848
-36.7481
-57.2206
-77.8898
-98.8969
-119.939
-140.866
-161.659
-182.128
-202.12
-221.435
-239.793
-256.856
-272.261
-285.594
-296.465
-304.514
-309.359
-310.838
-308.945
-303.772
-295.431
-284.122
-270.124
-253.665
-234.942
-214.173
-191.544
-167.191
-141.165
-113.506
-83.8898
-52.6169
-18.0018
13.6469
63.5079
75.8532
88.9276
102.127
114.193
125.275
134.875
142.387
147.755
151.214
152.97
153.277
152.366
150.394
147.476
143.658
138.96
133.391
126.953
119.661
111.553
102.699
93.1976
83.235
73.1395
63.2794
53.9544
45.4067
37.8443
31.4459
26.3614
22.7062
20.5679
20.0376
21.2453
24.4494
29.8225
38.4061
48.0972
46.9991
33.4864
17.8346
0.76647
-16.5424
-35.0997
-54.2866
-73.6184
-93.2379
-112.865
-132.368
-151.749
-170.843
-189.532
-207.647
-224.949
-241.145
-255.907
-268.859
-279.629
-287.882
-293.235
-295.49
-294.602
-290.615
-283.577
-273.611
-260.935
-245.749
-228.234
-208.588
-186.993
-163.588
-138.437
-111.599
-82.8172
-52.423
-19.0794
11.3579
59.38
71.0597
83.4578
95.9997
107.491
118.078
127.291
134.547
139.79
143.245
145.109
145.623
145.011
143.424
140.974
137.7
133.617
128.727
123.015
116.48
109.141
101.044
92.2646
82.9641
73.4499
64.0739
55.1234
46.8394
39.4381
33.1086
28.0129
24.2809
22.0154
21.3151
22.316
25.2569
30.2809
38.2374
47.0938
43.7372
30.9551
16.1567
0.0436724
-16.2529
-33.7028
-51.7131
-69.8187
-88.1688
-106.497
-124.69
-142.763
-160.577
-178.035
-195.004
-211.276
-226.599
-240.681
-253.18
-263.752
-272.075
-277.79
-280.662
-280.618
-277.663
-271.798
-263.077
-251.658
-237.706
-221.377
-202.852
-182.302
-159.866
-135.619
-109.637
-81.7289
-52.2533
-20.1993
9.02935
55.4662
66.5324
78.3046
90.237
101.191
111.313
120.158
127.164
132.273
135.705
137.646
138.325
137.961
136.701
134.651
131.852
128.314
124.031
118.983
113.152
106.539
99.1709
91.0991
82.4603
73.5382
64.6656
56.117
48.1286
40.9206
34.6901
29.6097
25.822
23.444
22.5821
23.3773
26.0487
30.7121
38.0389
46.0876
40.6394
28.5332
14.5237
-0.707717
-16.0712
-32.5031
-49.4303
-66.4115
-83.5949
-100.73
-117.713
-134.577
-151.197
-167.5
-183.38
-198.658
-213.117
-226.499
-238.496
-248.79
-257.075
-263.023
-266.371
-267.022
-264.956
-260.137
-252.56
-242.326
-229.56
-214.392
-196.98
-177.48
-156.03
-132.713
-107.621
-80.6234
-52.1044
-21.3519
6.6734
51.764
62.2626
73.4534
84.8185
95.2688
104.951
113.446
120.208
125.179
128.573
130.566
131.376
131.217
130.233
128.528
126.141
123.082
119.342
114.895
109.712
103.78
97.1071
89.7223
81.7374
73.4109
65.0557
56.9316
49.2671
42.2825
36.1806
31.1418
27.3204
24.8457
23.8322
24.4235
26.8212
31.1147
37.8137
45.0835
37.7064
26.2277
12.9514
-1.46262
-15.9644
-31.4556
-47.3846
-63.3297
-79.4383
-95.4727
-111.343
-127.087
-142.598
-157.821
-172.669
-186.995
-200.607
-213.282
-224.742
-234.697
-242.858
-248.928
-252.626
-253.84
-252.531
-248.633
-242.099
-232.973
-221.338
-207.299
-190.985
-172.537
-152.086
-129.723
-105.551
-79.4994
-51.9719
-22.527
4.30353
48.2698
58.2401
68.8885
79.723
89.7009
98.9678
107.128
113.652
118.482
121.826
123.85
124.764
124.776
124.025
122.615
120.586
117.948
114.692
110.786
106.196
100.897
94.8802
88.1561
80.8108
73.0771
65.2477
57.5657
50.2495
43.516
37.5704
32.5996
28.7668
26.2123
25.0581
25.4492
27.5706
31.4877
37.5657
44.0865
34.9372
24.0432
11.4493
-2.20369
-15.9061
-30.5259
-45.531
-60.5194
-75.634
-90.6533
-105.495
-120.203
-134.684
-148.897
-162.775
-176.191
-188.983
-200.953
-211.856
-221.429
-229.395
-235.494
-239.435
-241.092
-240.417
-237.325
-231.73
-223.631
-213.07
-200.12
-184.885
-167.485
-148.043
-126.653
-103.43
-78.3554
-51.8508
-23.713
1.93388
44.9766
54.4541
64.5946
74.9313
84.4642
93.3383
101.179
107.472
112.16
115.444
117.484
118.478
118.63
118.078
116.921
115.203
112.935
110.107
106.686
102.635
97.9194
92.5176
86.4224
79.6969
72.5486
65.2477
58.0201
51.0719
44.6139
38.851
33.9735
30.1517
27.5351
26.2523
26.4483
28.2931
31.8299
37.2979
43.1017
32.3288
21.9805
10.025
-2.91756
-15.8779
-29.6867
-43.8349
-57.9365
-72.1326
-86.2114
-100.101
-113.849
-127.373
-140.643
-153.61
-166.163
-178.165
-189.444
-199.781
-208.938
-216.658
-222.706
-226.796
-228.795
-228.641
-226.244
-221.489
-214.335
-204.784
-192.879
-178.697
-162.337
-143.908
-123.508
-101.258
-77.1894
-51.7357
-24.9
-0.422353
41.877
50.8944
60.5581
70.4255
79.5391
88.0403
95.5743
101.643
106.188
109.407
111.45
112.506
112.774
112.39
111.451
110.003
108.058
105.608
102.621
99.0569
94.8762
90.0461
84.545
78.4152
71.8388
65.0635
58.2975
51.7324
45.571
40.0146
35.2546
31.4661
28.8055
27.4074
27.415
28.9849
32.1408
37.0139
42.1339
29.8767
20.0399
8.68241
-3.59516
-15.863
-28.9164
-42.2673
-55.5457
-68.889
-82.0979
-95.1052
-107.962
-120.596
-132.988
-145.098
-156.836
-168.083
-178.687
-188.457
-197.179
-204.612
-210.545
-214.707
-216.954
-217.223
-215.419
-211.409
-205.117
-196.511
-185.603
-172.443
-157.106
-139.692
-120.293
-99.0381
-75.9994
-51.6196
-26.0757
-2.75054
38.9638
47.549
56.7645
66.19
74.9065
83.0526
90.293
96.1436
100.548
103.696
105.732
106.835
107.199
106.958
106.206
104.991
103.33
101.213
98.6128
95.4871
91.7933
87.4912
82.5472
76.9848
70.9624
64.7048
58.4019
52.231
46.3834
41.0545
36.4347
32.7012
30.0148
28.5153
28.3431
29.642
32.4195
36.7165
41.1874
27.5754
18.2195
7.42384
-4.23014
-15.8496
-28.1979
-40.8047
-53.3166
-65.8679
-78.2685
-90.457
-102.487
-114.294
-125.866
-137.175
-148.143
-158.67
-168.623
-177.832
-186.106
-193.225
-198.993
-203.16
-205.578
-206.181
-204.876
-201.52
-196.008
-188.28
-178.316
-166.141
-151.811
-135.405
-117.015
-96.7718
-74.7825
-51.4959
-27.2287
-5.03675
36.229
44.4079
53.2003
62.2073
70.5474
78.3556
85.3153
90.9559
95.2213
98.2952
100.315
101.452
101.896
101.775
101.185
100.174
98.7593
96.9368
94.6793
91.9465
88.6942
84.8764
80.4509
75.4254
69.9349
64.1828
58.3403
52.5692
47.0485
41.9655
37.5063
33.8483
31.1547
29.5685
29.2263
30.2607
32.6654
36.4087
40.2663
25.4194
16.5167
6.24968
-4.81824
-15.83
-27.5179
-39.4293
-51.2263
-63.0397
-74.6881
-86.1161
-97.3767
-108.414
-119.223
-129.781
-140.025
-149.868
-159.195
-167.856
-175.678
-182.462
-188.028
-192.146
-194.667
-195.527
-194.637
-191.849
-187.038
-180.118
-171.044
-159.816
-146.466
-131.06
-113.681
-94.4606
-73.537
-51.3561
-28.3468
-7.26704
33.6644
41.4601
49.8525
58.4627
66.4457
73.9322
80.622
86.0601
90.1888
93.1866
95.1841
96.3453
96.8544
96.8369
96.3857
95.5508
94.3526
92.7886
90.835
88.4533
85.5992
82.2234
78.2773
73.7554
68.7725
63.5095
58.1203
52.7505
47.5657
42.7432
38.463
34.8998
32.2171
30.5593
30.0586
30.8373
32.878
36.0927
39.3742
23.4031
14.9274
5.1597
-5.3565
-15.7972
-26.8655
-38.1257
-49.2545
-60.3792
-71.3264
-82.0465
-92.5918
-102.913
-113.009
-122.866
-132.429
-141.624
-150.353
-158.48
-165.854
-172.292
-177.625
-181.651
-184.219
-185.268
-184.718
-182.421
-178.234
-172.054
-163.812
-153.488
-141.091
-126.668
-110.298
-92.1091
-72.2596
-51.193
-29.4202
-9.4279
31.2618
38.6954
46.709
54.9431
62.5862
69.7661
76.1971
81.439
85.4341
88.3547
90.3252
91.5022
92.0644
92.1346
91.8037
91.1225
90.1134
88.7768
87.0917
85.0227
82.5262
79.552
76.0469
71.9951
67.492
62.6985
57.7508
52.7797
47.936
43.3852
39.2993
35.8486
33.1943
31.4806
30.8341
31.3681
33.0567
35.7706
38.5138
21.52
13.4483
4.15168
-5.84309
-15.747
-26.2325
-36.8816
-47.3857
-57.8661
-68.1593
-78.2193
-88.0988
-97.7518
-107.184
-116.385
-125.308
-133.892
-142.05
-149.663
-156.595
-162.68
-167.761
-171.662
-174.229
-175.41
-175.134
-173.254
-169.622
-164.114
-156.648
-147.18
-135.702
-122.245
-106.875
-89.7184
-70.9485
-50.9994
-30.4367
-11.5065
29.0128
36.1039
43.7586
51.635
58.9545
65.842
72.0244
77.077
80.9414
83.7846
85.7246
86.9107
87.5166
87.6613
87.4343
86.8867
86.043
84.9061
83.4583
81.6669
79.4905
76.8797
73.7782
70.1618
66.1095
61.7631
57.2425
52.6631
48.1613
43.89
40.0114
36.6886
34.0793
32.3253
31.5471
31.8495
33.2009
35.4439
37.6873
19.7638
12.0745
3.22396
-6.278
-15.6759
-25.6133
-35.6877
-45.6054
-55.483
-65.165
-74.6083
-83.8667
-92.8978
-101.71
-110.297
-118.621
-126.629
-134.245
-141.364
-147.864
-153.596
-158.413
-162.16
-164.691
-165.956
-165.896
-164.369
-161.222
-156.323
-149.575
-140.916
-130.321
-117.804
-103.422
-87.293
-69.601
-50.7654
-31.3865
-13.4901
26.91
33.6762
40.99
48.5257
55.5369
62.1449
68.0892
72.9587
76.6961
79.462
81.3687
82.5586
83.1999
83.4085
83.2709
82.8399
82.1409
81.1793
79.9407
78.3956
76.5054
74.2216
71.4872
68.2723
64.6408
60.717
56.6059
52.4082
48.2458
44.2582
40.5962
37.4151
34.8659
33.0872
32.1923
32.2783
33.3102
35.1137
36.8961
18.1284
10.8016
2.37395
-6.66179
-15.5818
-25.0019
-34.5356
-43.9023
-53.2146
-62.3244
-71.192
-79.87
-88.3206
-96.5537
-104.568
-112.33
-119.796
-126.899
-133.546
-139.627
-145.009
-149.555
-153.13
-155.594
-156.904
-157.009
-155.777
-153.054
-148.704
-142.616
-134.716
-124.964
-113.359
-99.9461
-84.8366
-68.2149
-50.4853
-32.2589
-15.3676
24.9454
31.4029
38.3929
45.6044
52.3211
58.6617
64.3776
69.0704
72.6843
75.3735
77.245
78.4344
79.1039
79.3672
79.3074
78.978
78.4058
77.5979
76.5434
75.2164
73.5808
71.5905
69.1891
66.3422
63.1011
59.5743
55.8527
52.0235
48.1943
44.491
41.0526
38.024
35.549
33.7605
32.7648
32.6513
33.3836
34.7804
36.1407
16.6076
9.62485
1.59843
-6.99527
-15.4637
-24.3954
-33.4195
-42.2681
-51.0496
-59.6233
-67.952
-76.0877
-83.9962
-91.6884
-99.1668
-106.403
-113.36
-119.978
-126.175
-131.853
-136.892
-141.165
-144.554
-146.928
-148.249
-148.477
-147.49
-145.136
-141.275
-135.793
-128.603
-119.651
-108.926
-96.4594
-82.3529
-66.789
-50.1514
-33.0456
-17.1296
23.1118
29.2761
35.9575
42.8597
49.2951
55.3799
60.8761
65.3994
68.8933
71.5069
73.3415
74.5266
75.219
75.5285
75.5364
75.2956
74.8344
74.1615
73.2691
72.1347
70.7255
68.9977
66.8968
64.3857
61.5049
58.3484
54.9945
51.518
48.013
44.5917
41.3803
38.5131
36.1245
34.3406
33.2603
32.9656
33.4204
34.4443
35.4211
15.1955
8.5396
0.894342
-7.28005
-15.3212
-23.7911
-32.3343
-40.6954
-48.9782
-57.0486
-64.8728
-72.501
-79.9025
-87.0893
-94.0668
-100.811
-107.289
-113.449
-119.219
-124.511
-129.217
-133.219
-136.414
-138.68
-139.987
-140.302
-139.515
-137.479
-134.055
-129.124
-122.594
-114.401
-104.518
-92.9707
-79.8465
-65.3225
-49.7573
-33.7385
-18.7674
21.4018
27.2873
33.6746
40.2813
46.448
52.2878
57.5731
61.9329
65.3103
67.8497
69.6468
70.8249
71.5352
71.8839
71.9503
71.7871
71.4229
70.8687
70.1189
69.1543
67.9456
66.4521
64.6216
62.4155
59.8653
57.0522
54.0432
50.9016
47.7089
44.5641
41.5807
38.8809
36.5892
34.8235
33.6752
33.2187
33.4198
34.1047
34.7359
13.8859
7.54096
0.258294
-7.51794
-15.1541
-23.1871
-31.2759
-39.1771
-46.9906
-54.5883
-61.9397
-69.093
-76.0204
-82.7354
-89.2441
-95.5269
-101.556
-107.286
-112.652
-117.575
-121.958
-125.694
-128.691
-130.838
-132.11
-132.482
-131.857
-130.094
-127.057
-122.628
-116.709
-109.228
-100.151
-89.4902
-77.3226
-63.814
-49.2981
-34.3306
-20.2732
19.8087
25.4286
31.5354
37.8596
43.7693
49.3746
54.4575
58.6592
61.9243
64.3908
66.1498
67.3183
68.0422
68.4247
68.5418
68.4462
68.1672
67.7166
67.0922
66.2774
65.2461
63.961
62.3728
60.4427
58.1943
55.6978
53.01
50.1842
47.29
44.4138
41.6563
39.1277
36.9416
35.2065
34.0066
33.4083
33.3808
33.7609
34.0836
12.6732
6.62439
-0.313232
-7.71098
-14.9631
-22.5823
-30.2413
-37.7088
-45.0798
-52.2333
-59.1409
-65.8491
-72.3328
-78.6062
-84.6772
-90.5286
-96.1368
-101.462
-106.447
-111.02
-115.093
-118.57
-121.367
-123.387
-124.609
-125.015
-124.519
-122.989
-120.295
-116.32
-110.964
-104.151
-95.8381
-86.028
-74.7862
-62.2649
-48.7685
-34.8159
-21.6413
18.3257
23.6925
29.5314
35.5859
41.2495
46.6298
51.5179
55.5677
58.7238
61.119
62.8395
63.9966
64.7307
65.1416
65.3028
65.2664
65.0616
64.7024
64.1878
63.5048
62.6301
61.5299
60.158
58.4766
56.5029
54.2967
51.9062
49.3759
46.7646
44.1468
41.6108
39.2548
37.1809
35.4878
34.2522
33.5327
33.3023
33.4114
33.4616
11.552
5.78514
-0.82373
-7.86151
-14.7491
-21.976
-29.2285
-36.2861
-43.2404
-49.9758
-56.4665
-62.7577
-68.826
-74.6863
-80.3474
-85.7953
-91.0092
-95.9549
-100.58
-104.821
-108.599
-111.825
-114.426
-116.315
-117.474
-117.895
-117.501
-116.17
-113.778
-110.212
-105.374
-99.1832
-91.5917
-82.594
-72.2429
-60.6756
-48.1664
-35.1908
-22.8669
16.9466
22.0717
27.6549
33.451
38.879
44.0436
48.7446
52.6481
55.6987
58.024
59.7062
60.8501
61.5915
62.0265
62.226
62.2408
62.1013
61.8219
61.4037
60.8363
60.0996
59.1631
57.9841
56.5258
54.8006
52.8593
50.7425
48.4867
46.1414
43.77
41.4492
39.2649
37.308
35.6669
34.4108
33.5906
33.1833
33.0548
32.8669
10.5167
5.01888
-1.2768
-7.97189
-14.5132
-21.3679
-28.2352
-34.9057
-41.4669
-47.8086
-53.9076
-59.8073
-65.4864
-70.9603
-76.2384
-81.3087
-86.1536
-90.743
-95.0299
-98.9577
-102.455
-105.441
-107.849
-109.605
-110.695
-111.116
-110.801
-109.639
-107.513
-104.315
-99.9504
-94.3377
-87.4243
-79.1975
-69.6987
-59.0479
-47.4898
-35.4517
-23.947
15.6652
20.5598
25.8983
31.4473
36.6495
41.607
46.128
49.8901
52.8389
55.0962
56.7402
57.8697
58.6156
59.0706
59.303
59.3629
59.2804
59.0707
58.7369
58.271
57.6554
56.8634
55.8557
54.5972
53.096
51.3952
49.5287
47.5264
45.4294
43.2912
41.1771
39.1618
37.3249
35.7443
34.4818
33.581
33.0229
32.6889
32.2959
9.5623
4.32112
-1.67591
-8.04472
-14.2568
-20.7584
-27.2608
-33.565
-39.755
-45.7259
-51.4563
-56.9888
-62.303
-67.415
-72.3347
-77.0522
-81.552
-85.8077
-89.7773
-93.4102
-96.6412
-99.3977
-101.62
-103.245
-104.26
-104.67
-104.416
-103.396
-101.504
-98.6375
-94.7044
-89.6259
-83.3466
-75.8478
-67.1594
-57.3847
-46.7375
-35.5974
-24.8799
14.4759
19.1501
24.2546
29.5668
34.5526
39.3112
43.6591
47.2851
50.1351
52.3261
53.9319
55.0461
55.7944
56.266
56.5267
56.6256
56.5927
56.444
56.184
55.8068
55.2977
54.6329
53.7769
52.6966
51.3963
49.9127
48.2742
46.5046
44.6378
42.7181
40.801
38.9504
37.2346
35.7216
34.4658
33.5039
32.8201
32.3117
31.7447
8.68386
3.68775
-2.02448
-8.08226
-13.9815
-20.1475
-26.304
-32.2617
-38.1008
-43.7223
-49.1063
-54.2937
-59.266
-64.0392
-68.6238
-73.0111
-77.1884
-81.1319
-84.8043
-88.1598
-91.1401
-93.6792
-95.7238
-97.2192
-98.1574
-98.5479
-98.3396
-97.4412
-95.754
-93.184
-89.644
-85.0575
-79.3686
-72.5531
-64.6313
-55.6893
-45.9108
-35.6275
-25.6653
13.3728
17.8367
22.7168
27.8023
32.5805
37.1482
41.3294
44.8242
47.5786
49.7049
51.2727
52.3705
53.1192
53.6043
53.8893
54.0221
54.0324
53.9368
53.7412
53.4414
53.0257
52.4725
51.7504
50.8283
49.7079
48.4198
46.9876
45.4303
43.7754
42.0593
40.3284
38.6362
37.0413
35.6015
34.364
33.3593
32.5743
31.9209
31.2091
7.87666
3.11438
-2.3258
-8.08713
-13.6888
-19.5358
-25.3642
-30.9939
-36.5017
-41.7936
-46.8516
-51.7147
-56.3664
-60.8226
-65.0936
-69.1724
-73.0483
-76.7001
-80.0945
-83.1901
-85.9345
-88.2682
-90.1434
-91.5139
-92.375
-92.7402
-92.5657
-91.7699
-90.263
-87.9586
-84.7752
-80.6406
-75.4986
-69.3215
-62.1207
-53.9657
-45.0116
-35.5435
-26.3046
12.3509
16.6134
21.279
26.1469
30.7261
35.1101
39.1309
42.4989
45.1609
47.2241
48.7543
49.835
50.582
51.078
51.3835
51.5455
51.5935
51.544
51.4044
51.1721
50.8376
50.3824
49.7783
48.9963
48.036
46.923
45.6766
44.312
42.851
41.3231
39.7666
38.226
36.7501
35.3877
34.1788
33.1482
32.285
31.5143
30.685
7.13614
2.59735
-2.58327
-8.06185
-13.3802
-18.9242
-24.4411
-29.7602
-34.9548
-39.9359
-44.6866
-49.2453
-53.5963
-57.7554
-61.7334
-65.5241
-69.1186
-72.498
-75.6326
-78.4852
-81.0085
-83.1492
-84.8643
-86.1152
-86.9005
-87.2364
-87.0866
-86.378
-85.0297
-82.9629
-80.1027
-76.381
-71.7435
-66.16
-59.6335
-52.2186
-44.0431
-35.348
-26.8001
11.405
15.475
19.935
24.5943
28.9823
33.19
37.0562
40.3018
42.8742
44.8758
46.3686
47.4315
48.1753
48.6796
49.0024
49.1894
49.2698
49.2603
49.1692
48.9957
48.732
48.3623
47.8617
47.2033
46.3851
45.4283
44.3487
43.1579
41.8731
40.5182
39.1239
37.7267
36.3669
35.0846
33.9131
32.872
31.952
31.0898
30.1681
6.45797
2.1327
-2.79994
-8.00888
-13.0577
-18.3134
-23.5346
-28.5596
-33.4579
-38.1457
-42.6075
-46.8799
-50.9487
-54.8297
-58.5335
-62.0551
-65.387
-68.5125
-71.4049
-74.0307
-76.3475
-78.3073
-79.872
-81.0095
-81.7212
-82.0261
-81.8938
-81.2593
-80.0506
-78.1963
-75.6282
-72.2833
-68.1094
-63.0747
-57.176
-50.4533
-43.0096
-35.0449
-27.1555
10.5304
14.416
18.6793
23.1382
27.3427
31.3806
35.0978
38.2253
40.711
42.6524
44.1081
45.1525
45.8916
46.4019
46.7391
46.9473
47.0555
47.0806
47.0315
46.9087
46.7064
46.4112
46.001
45.4515
44.759
43.9409
43.0099
41.9752
40.8499
39.6528
38.4084
37.1461
35.8982
34.6975
33.5706
32.5328
31.5755
30.6454
29.6543
5.83798
1.71692
-2.97889
-7.93058
-12.7226
-17.7043
-22.6448
-27.391
-32.0094
-36.4202
-40.6099
-44.6131
-48.4174
-52.0378
-55.4854
-58.7558
-61.8427
-64.7316
-67.3985
-69.8131
-71.9375
-73.7284
-75.1526
-76.1833
-76.8249
-77.098
-76.9778
-76.4068
-75.3211
-73.6569
-71.3524
-68.35
-64.6005
-60.0713
-54.7537
-48.6755
-41.9164
-34.6394
-27.3761
9.72247
13.4317
17.506
21.773
25.8011
29.6757
33.2493
36.2626
38.664
40.5466
41.9655
42.9907
43.7239
44.2381
44.5868
44.813
44.945
44.9997
44.9866
44.9076
44.7584
44.5278
44.1964
43.7423
43.1606
42.465
41.6663
40.7709
39.7891
38.7351
37.6284
36.4918
35.3511
34.2321
33.1558
32.1331
31.1559
30.1793
29.1397
5.27234
1.34637
-3.12297
-7.82933
-12.3766
-17.0978
-21.7718
-26.2539
-30.6072
-34.7567
-38.6899
-42.4403
-45.9963
-49.373
-52.5809
-55.617
-58.4759
-61.1446
-63.6015
-65.8199
-67.7652
-69.3993
-70.6926
-71.6237
-72.199
-72.4405
-72.3287
-71.8125
-70.8354
-69.3411
-67.2743
-64.5826
-61.22
-57.1543
-52.3723
-46.8908
-40.7694
-34.1375
-27.4677
8.97688
12.5172
16.4104
20.493
24.3516
28.0691
31.5042
34.4069
36.7265
38.5516
39.9341
40.9395
41.6654
42.1817
42.5395
42.7806
42.9326
43.0125
43.0303
42.989
42.8854
42.7105
42.4476
42.0768
41.5922
41.0047
40.3228
39.5515
38.6979
37.7732
36.792
35.772
34.733
33.6949
32.6735
31.6761
30.6944
29.6903
28.6209
4.75725
1.01791
-3.23511
-7.70724
-12.0216
-16.4947
-20.9157
-25.1473
-29.2501
-33.153
-36.8446
-40.3573
-43.6806
-46.8289
-49.813
-52.6304
-55.2768
-57.7407
-60.0029
-62.0391
-63.8184
-65.3072
-66.4793
-67.318
-67.8313
-68.0425
-67.9359
-67.4673
-66.5867
-65.2443
-63.3914
-60.9808
-57.9699
-54.3274
-50.0367
-45.1054
-39.5754
-33.5464
-27.4372
8.28956
11.668
15.3876
19.2931
22.9887
26.5548
29.8562
32.6521
34.8922
36.661
38.0073
38.9925
39.7098
40.2264
40.591
40.8443
41.0131
41.1142
41.1582
41.1489
41.0845
40.9576
40.754
40.4555
40.0558
39.5631
38.9842
38.3226
37.5833
36.7746
35.9072
34.9946
34.0514
33.0924
32.129
31.1652
30.1923
29.1774
28.0947
4.28916
0.72833
-3.31795
-7.56651
-11.6589
-15.8961
-20.0767
-24.0711
-27.9368
-31.6068
-35.0709
-38.3601
-41.465
-44.3997
-47.175
-49.7885
-52.2372
-54.5108
-56.5922
-58.4597
-60.0857
-61.4401
-62.5002
-63.2535
-63.7094
-63.892
-63.7891
-63.3621
-62.5671
-61.3607
-59.7002
-57.5432
-54.851
-51.5935
-47.7516
-43.3253
-38.3414
-32.8736
-27.2923
7.65659
10.88
14.433
18.1683
21.7073
25.1276
28.2999
30.9923
33.1551
34.8688
36.179
37.1434
37.8511
38.3663
38.7357
38.9987
39.1813
39.3001
39.3662
39.3841
39.353
39.2672
39.1145
38.8787
38.5529
38.1431
37.6545
37.0895
36.4516
35.7464
34.9818
34.1675
33.314
32.4317
31.5281
30.6043
29.6513
28.6401
27.5586