/*--------------------------------*- C++ -*----------------------------------*\
  =========                 |
  \\      /  F ield         | OpenFOAM: The Open Source CFD Toolbox
   \\    /   O peration     | Website:  https://openfoam.org
    \\  /    A nd           | Version:  13
     \\/     M anipulation  |
\*---------------------------------------------------------------------------*/
FoamFile
{
    format      ascii;
    class       surfaceScalarField;
    location    "150";
    object      phi;
}
// * * * * * * * * * * * * * * * * * * * * * * * * * * * * * * * * * * * * * //

dimensions      [0 3 -1 0 0 0 0];

internalField   nonuniform List<scalar> 
21254
(
-0.238158
0.257713
-0.0195551
0.279705
-0.0219918
0.298594
-0.0188889
0.315453
-0.0168597
0.331415
-0.0159616
0.344172
-0.0127564
0.354257
-0.0100856
0.362471
-0.00821314
0.367895
-0.00542458
0.371595
-0.00369974
0.373819
-0.00222378
0.374419
-0.000599733
0.373772
0.000646978
0.371798
0.00197419
0.368422
0.00337578
0.363924
0.00449832
0.358126
0.0057976
0.351136
0.00699075
0.342821
0.00831487
0.333429
0.00939227
0.322653
0.0107761
0.31108
0.0115729
0.298991
0.0120895
0.287696
0.0112948
0.278395
0.00930079
0.270408
0.007987
0.262611
0.0077971
0.254686
0.00792438
0.246299
0.00838731
0.237359
0.00894008
0.227839
0.00952092
0.217727
0.0101112
0.206959
0.010769
0.195292
0.0116672
0.182199
0.0130939
0.166621
0.0155796
0.146213
0.0204101
0.115636
0.0305802
0.0949664
0.0207272
-0.215072
-0.0230861
-0.191173
-0.0238982
-0.161769
-0.0294049
-0.129472
-0.0322963
-0.0953887
-0.0340835
-0.0601183
-0.0352704
-0.0252526
-0.0348657
0.00710549
-0.032358
0.0364791
-0.0293735
0.0624564
-0.0259773
0.0846512
-0.0221948
0.103475
-0.0188238
0.119294
-0.0158187
0.132484
-0.0131904
0.143768
-0.0112837
0.153474
-0.00970607
0.162083
-0.00860938
0.169832
-0.00774856
0.177032
-0.00720009
0.183807
-0.00677528
0.190329
-0.00652168
0.196587
-0.00625844
0.202513
-0.00592615
0.207478
-0.00496467
0.211294
-0.00381596
0.21424
-0.00294684
0.216315
-0.0020745
0.217635
-0.00132045
0.218209
-0.000573956
0.217978
0.000230776
0.216857
0.00112129
0.214983
0.00187439
0.212479
0.00250381
0.209407
0.00307168
0.205626
0.00378014
0.200713
0.00491249
0.193501
0.00721182
0.178677
0.0148214
0.156339
0.022339
-0.217312
0.238858
-0.0411009
0.260893
-0.0440268
0.2839
-0.0418964
0.305364
-0.0383232
0.326302
-0.0368997
0.345703
-0.0321578
0.363165
-0.0275469
0.378945
-0.0239931
0.392638
-0.0191176
0.404302
-0.0153636
0.41396
-0.0118812
0.421718
-0.00835815
0.42788
-0.00551464
0.432651
-0.00279649
0.435927
9.93751e-05
0.437395
0.00303042
0.436975
0.00621822
0.434786
0.00917923
0.430325
0.0127758
0.423877
0.0158404
0.415038
0.0196152
0.404096
0.0225147
0.391043
0.0251429
0.376513
0.0258246
0.361768
0.0240447
0.347257
0.0224983
0.333079
0.0219752
0.319459
0.021544
0.306224
0.0216229
0.293232
0.021933
0.280278
0.0224764
0.267203
0.0231863
0.253759
0.0242139
0.239733
0.025695
0.224726
0.0281019
0.207743
0.0325647
0.187507
0.0406494
0.155153
0.0629375
0.112082
0.0638329
-0.19529
-0.0451081
-0.171689
-0.0474984
-0.144056
-0.0570382
-0.114824
-0.0615284
-0.0837781
-0.0651293
-0.0513529
-0.0676956
-0.0190704
-0.0671481
0.0118068
-0.0632351
0.0400953
-0.057662
0.0652958
-0.0511778
0.0872927
-0.0441916
0.106392
-0.0379229
0.123024
-0.0324505
0.137412
-0.0275787
0.149999
-0.023871
0.161086
-0.0207928
0.170963
-0.0184865
0.17994
-0.0167248
0.188269
-0.0155297
0.196065
-0.0145706
0.203486
-0.0139427
0.210603
-0.0133754
0.217341
-0.012665
0.223241
-0.0108638
0.228024
-0.00859914
0.231896
-0.00681905
0.234853
-0.00503241
0.236948
-0.00341506
0.238232
-0.00185873
0.238855
-0.000392663
0.238909
0.00106745
0.238333
0.00244977
0.237001
0.00383509
0.234871
0.00520031
0.231891
0.00676017
0.227814
0.00898859
0.222633
0.0123919
0.211722
0.0257304
0.190857
0.0432027
-0.210956
0.232699
-0.0628441
0.254606
-0.0659338
0.278247
-0.0655377
0.29987
-0.0599459
0.320438
-0.0574673
0.340131
-0.0518509
0.357659
-0.0450748
0.373432
-0.0397657
0.387007
-0.0326923
0.398666
-0.0270226
0.408439
-0.0216537
0.416493
-0.0164125
0.422651
-0.0116727
0.427383
-0.00752779
0.430426
-0.00294451
0.432526
0.000930732
0.433377
0.00536719
0.433332
0.00922458
0.432067
0.0140411
0.429527
0.0183803
0.425602
0.0235408
0.420124
0.0279928
0.413067
0.0322
0.404524
0.0343677
0.395008
0.0335606
0.384576
0.0329304
0.373114
0.0334373
0.360763
0.0338946
0.347694
0.0346927
0.334
0.0356263
0.31983
0.0366464
0.305215
0.0378012
0.290099
0.03933
0.274308
0.0414856
0.257455
0.0449558
0.238544
0.051476
0.216396
0.0627984
0.183369
0.0959665
0.135714
0.111513
-0.189076
-0.0669883
-0.165103
-0.0714706
-0.136424
-0.0857178
-0.106577
-0.0913753
-0.0753872
-0.096319
-0.0430111
-0.100072
-0.0110531
-0.099106
0.0188207
-0.0931089
0.0462561
-0.0850973
0.0711141
-0.0760357
0.093086
-0.0661635
0.112336
-0.0571731
0.129222
-0.0493366
0.144018
-0.042374
0.157035
-0.0368881
0.168613
-0.0323706
0.179018
-0.0288913
0.188516
-0.0262236
0.197318
-0.0243311
0.205586
-0.022839
0.213506
-0.0218629
0.221091
-0.0209607
0.228249
-0.0198224
0.234675
-0.0172906
0.240083
-0.0140076
0.244576
-0.0113117
0.248211
-0.00866712
0.251019
-0.00622354
0.253066
-0.00390567
0.254346
-0.00167229
0.25493
0.000483821
0.254811
0.00256884
0.254012
0.00463411
0.25246
0.00675165
0.250053
0.00916685
0.246408
0.012634
0.241103
0.0176961
0.230438
0.0363946
0.210544
0.0630961
-0.203514
0.226253
-0.0855831
0.249057
-0.0887376
0.274129
-0.09061
0.297012
-0.0828282
0.319188
-0.0796442
0.340442
-0.0731043
0.35995
-0.0645827
0.377531
-0.0573463
0.393396
-0.0485568
0.40732
-0.0409467
0.41942
-0.0337536
0.429693
-0.0266856
0.438168
-0.0201476
0.444879
-0.014239
0.450151
-0.00821622
0.45362
-0.00253762
0.455425
0.0035622
0.455322
0.00932734
0.453632
0.0157308
0.450232
0.0217807
0.445267
0.0285059
0.438987
0.0342727
0.431524
0.039663
0.423386
0.0425055
0.415006
0.0419398
0.406444
0.041493
0.397328
0.0425534
0.387508
0.0437141
0.376804
0.0453975
0.365034
0.0473974
0.352188
0.0494931
0.338251
0.0517385
0.323222
0.0543607
0.306974
0.0577352
0.289251
0.0626804
0.269109
0.0716191
0.245293
0.0866175
0.21099
0.130272
0.162552
0.159973
-0.181055
-0.089448
-0.156968
-0.0955574
-0.127744
-0.114941
-0.0977435
-0.121376
-0.0664672
-0.127595
-0.0339653
-0.132573
-0.00206346
-0.131008
0.0274548
-0.122627
0.0544079
-0.11205
0.0788811
-0.100509
0.100536
-0.0878178
0.119615
-0.0762523
0.136529
-0.0662505
0.151516
-0.0573614
0.164895
-0.0502669
0.17689
-0.0443656
0.187793
-0.0397943
0.197783
-0.0362132
0.20709
-0.0336381
0.215853
-0.0316024
0.224185
-0.0301948
0.232151
-0.0289266
0.23969
-0.0273617
0.246483
-0.0240832
0.252287
-0.0198113
0.257162
-0.0161875
0.261155
-0.0126596
0.264312
-0.00938146
0.266668
-0.00626156
0.268278
-0.00328328
0.269172
-0.000410693
0.269375
0.00236563
0.268885
0.00512354
0.267687
0.00794867
0.265662
0.0111905
0.262432
0.0158629
0.25741
0.0227171
0.247258
0.0465455
0.22769
0.0826628
-0.199506
0.223068
-0.109145
0.246761
-0.112431
0.273253
-0.117102
0.296909
-0.106484
0.320114
-0.102848
0.342473
-0.0954639
0.362885
-0.0849945
0.381455
-0.0759159
0.39848
-0.0655815
0.413305
-0.0557718
0.426322
-0.0467704
0.437468
-0.0378313
0.447017
-0.0296973
0.454638
-0.0218601
0.460512
-0.0140895
0.464635
-0.00666104
0.467161
0.00103616
0.468131
0.00835766
0.4673
0.0165623
0.464929
0.0241512
0.460874
0.0325614
0.455271
0.0398753
0.448357
0.0465775
0.440527
0.0503354
0.432358
0.0501099
0.424055
0.0497954
0.415477
0.0511318
0.406561
0.0526302
0.397167
0.0547909
0.387129
0.057435
0.376199
0.0604231
0.364146
0.0637912
0.350752
0.0677545
0.335723
0.0727642
0.318643
0.0797601
0.29863
0.0916319
0.274247
0.111002
0.239238
0.165282
0.19068
0.208546
-0.176004
-0.11295
-0.151211
-0.120351
-0.120747
-0.145405
-0.0899154
-0.152208
-0.0579259
-0.159585
-0.0247924
-0.165707
0.00753016
-0.16333
0.0371024
-0.152199
0.063902
-0.13885
0.0881408
-0.124748
0.109524
-0.109201
0.128395
-0.0951237
0.145248
-0.0831032
0.160292
-0.072405
0.17384
-0.0638155
0.186157
-0.0566819
0.197417
-0.0510548
0.207806
-0.0466015
0.217516
-0.0433485
0.226687
-0.0407731
0.235411
-0.038919
0.243728
-0.0372443
0.251604
-0.0352377
0.258763
-0.0312417
0.264942
-0.0259915
0.270176
-0.0214213
0.274496
-0.0169799
0.277955
-0.0128404
0.280581
-0.00888733
0.282407
-0.00510891
0.283473
-0.00147642
0.283833
0.00200564
0.283481
0.00547554
0.28238
0.00905021
0.280477
0.0130932
0.277384
0.0189563
0.272498
0.0276025
0.262899
0.0561442
0.243981
0.101581
-0.196285
0.220864
-0.133723
0.245882
-0.137448
0.273751
-0.144971
0.298613
-0.131345
0.322833
-0.127069
0.34656
-0.119191
0.367936
-0.10637
0.38778
-0.0957601
0.405783
-0.0835842
0.421827
-0.0718162
0.436142
-0.0610858
0.44854
-0.0502287
0.45924
-0.0403971
0.468218
-0.0308382
0.475334
-0.021206
0.480901
-0.012228
0.484544
-0.00260578
0.486353
0.00654852
0.486438
0.0164775
0.484622
0.0259676
0.480954
0.0362288
0.475658
0.0451715
0.468885
0.0533507
0.461055
0.0581655
0.452682
0.0584825
0.444029
0.0584476
0.435053
0.0601085
0.425767
0.0619161
0.416177
0.0643809
0.406214
0.0673989
0.395807
0.070831
0.384726
0.0748729
0.372702
0.0797802
0.359303
0.0861645
0.34391
0.0951547
0.325334
0.11021
0.301943
0.134395
0.267554
0.199674
0.219548
0.256567
-0.171815
-0.13742
-0.146203
-0.145963
-0.114427
-0.17718
-0.0824531
-0.184182
-0.0494613
-0.192576
-0.0153963
-0.199772
0.017646
-0.196372
0.0475739
-0.182127
0.0744768
-0.165753
0.0986551
-0.148926
0.119873
-0.130419
0.138538
-0.113789
0.155249
-0.0998135
0.17026
-0.0874163
0.183877
-0.0774329
0.196358
-0.0691627
0.207863
-0.0625599
0.218585
-0.0573235
0.22865
-0.0534133
0.238186
-0.0503088
0.247283
-0.0480167
0.255964
-0.045925
0.264173
-0.0434471
0.271726
-0.0387943
0.278293
-0.0325585
0.283866
-0.0269943
0.288529
-0.0216435
0.292279
-0.01659
0.295162
-0.0117705
0.297208
-0.00715538
0.298455
-0.00272474
0.298931
0.00152919
0.298642
0.00576457
0.297603
0.0100884
0.295666
0.0150292
0.29254
0.0220811
0.287538
0.0326034
0.278228
0.0654525
0.260004
0.119803
-0.194345
0.220253
-0.159631
0.24631
-0.163505
0.275749
-0.174411
0.301888
-0.157484
0.327366
-0.152547
0.35217
-0.143994
0.374717
-0.128917
0.395411
-0.116454
0.414462
-0.102636
0.431446
-0.0887992
0.446592
-0.076232
0.46004
-0.0636771
0.471656
-0.0520131
0.481503
-0.0406844
0.489641
-0.029344
0.495891
-0.0184781
0.500406
-0.00712145
0.503088
0.00386688
0.503959
0.0156064
0.502956
0.0269711
0.500117
0.0390674
0.495506
0.0497828
0.489447
0.0594105
0.482122
0.0654904
0.47404
0.0665643
0.465439
0.0670494
0.456323
0.0692243
0.446726
0.0715127
0.436734
0.0743734
0.426313
0.0778194
0.415473
0.081671
0.40417
0.0861747
0.392278
0.0916719
0.379464
0.0989786
0.365219
0.109399
0.348339
0.127091
0.326977
0.155757
0.294875
0.231777
0.248432
0.303021
-0.168667
-0.163099
-0.141949
-0.172681
-0.108724
-0.210405
-0.0754397
-0.217467
-0.0412457
-0.22677
-0.00593622
-0.235081
0.0280846
-0.230393
0.0586758
-0.212718
0.0859322
-0.193009
0.110272
-0.173266
0.131428
-0.151575
0.149953
-0.132314
0.166524
-0.116384
0.181437
-0.102329
0.195028
-0.0910242
0.207582
-0.0817166
0.219267
-0.0742454
0.230225
-0.0682815
0.240589
-0.0637766
0.250449
-0.0601692
0.259877
-0.0574447
0.268886
-0.0549341
0.277452
-0.0520133
0.285329
-0.0466715
0.292288
-0.0395178
0.298252
-0.0329579
0.30324
-0.0266318
0.307302
-0.0206528
0.310442
-0.0149094
0.312719
-0.00943251
0.314134
-0.00413981
0.314745
0.000918234
0.314559
0.00595055
0.313525
0.0111234
0.311587
0.0169665
0.308368
0.0253002
0.303181
0.0377904
0.293952
0.0746814
0.276343
0.137412
-0.193123
0.220367
-0.186875
0.247857
-0.190995
0.27898
-0.205534
0.30632
-0.184823
0.333087
-0.179315
0.359142
-0.170049
0.382706
-0.152481
0.404611
-0.138359
0.424475
-0.1225
0.44239
-0.106714
0.458583
-0.0924247
0.472889
-0.0779835
0.485383
-0.064507
0.496181
-0.0514827
0.505216
-0.0383787
0.512442
-0.025704
0.517886
-0.0125654
0.521476
0.000277262
0.523125
0.0139576
0.522836
0.0272607
0.520692
0.0412112
0.516696
0.0537793
0.511087
0.0650194
0.504218
0.0723587
0.496415
0.0743675
0.487935
0.0755294
0.478834
0.0783248
0.469116
0.0812309
0.458825
0.0846644
0.448024
0.0886209
0.436664
0.0930323
0.424791
0.098048
0.412315
0.104149
0.399138
0.112157
0.38487
0.123669
0.368664
0.143298
0.349003
0.175421
0.320085
0.260698
0.276399
0.346718
-0.166214
-0.190008
-0.138337
-0.200558
-0.103397
-0.245345
-0.0685908
-0.252273
-0.0329663
-0.262395
0.00371465
-0.271762
0.0389582
-0.265637
0.0704253
-0.244185
0.0982254
-0.220809
0.122865
-0.197906
0.144109
-0.172818
0.162562
-0.150767
0.179013
-0.132835
0.193806
-0.117122
0.207322
-0.10454
0.219905
-0.094299
0.231669
-0.0860096
0.242795
-0.0794076
0.253379
-0.0743611
0.263514
-0.0703038
0.273228
-0.0671587
0.282565
-0.0642706
0.291459
-0.0609076
0.299704
-0.0549166
0.307032
-0.0468463
0.313362
-0.0392875
0.318704
-0.0319741
0.323087
-0.0250361
0.326505
-0.018327
0.328999
-0.0119276
0.330618
-0.00575833
0.331362
0.000173417
0.331263
0.00604819
0.330277
0.0121086
0.328292
0.018951
0.324981
0.0286101
0.319623
0.0431472
0.310392
0.0839115
0.293387
0.154415
-0.192738
0.221349
-0.215486
0.250288
-0.219933
0.28311
-0.238356
0.311841
-0.213554
0.340079
-0.207553
0.367491
-0.197461
0.392276
-0.177266
0.415066
-0.161149
0.436044
-0.143477
0.454792
-0.125462
0.471692
-0.109325
0.486814
-0.0931057
0.500171
-0.0778637
0.511771
-0.063083
0.521616
-0.0482236
0.529727
-0.0338149
0.53597
-0.0188078
0.540298
-0.00405108
0.5427
0.0115558
0.543128
0.0268323
0.541663
0.042677
0.538342
0.0570998
0.533335
0.0700271
0.526953
0.0787406
0.519528
0.0817929
0.511265
0.0837922
0.502218
0.0873722
0.492459
0.0909899
0.482049
0.0950742
0.470979
0.0996905
0.459259
0.104752
0.44689
0.110417
0.433818
0.117221
0.419925
0.126049
0.404991
0.138602
0.388379
0.15991
0.369197
0.194602
0.343063
0.286833
0.302578
0.387211
-0.164338
-0.218408
-0.135107
-0.229789
-0.0983905
-0.282062
-0.0620221
-0.288641
-0.024743
-0.299674
0.013518
-0.310023
0.0502299
-0.302348
0.082751
-0.276706
0.111278
-0.249336
0.136393
-0.22302
0.157842
-0.194267
0.176329
-0.169254
0.192713
-0.149218
0.207398
-0.131807
0.22082
-0.117962
0.233339
-0.106818
0.245142
-0.0978126
0.256362
-0.0906275
0.267105
-0.0851041
0.27746
-0.0806587
0.28746
-0.0771585
0.297068
-0.0738793
0.30627
-0.0701093
0.314867
-0.0635141
0.322585
-0.0545647
0.329268
-0.0459703
0.334967
-0.0376731
0.339652
-0.0297213
0.34337
-0.0220451
0.346118
-0.0146756
0.347925
-0.00756533
0.348828
-0.00072902
0.348815
0.00606128
0.347873
0.0130512
0.345886
0.0209381
0.3425
0.0319963
0.336954
0.0486933
0.327739
0.0931263
0.311332
0.170823
-0.19279
0.223015
-0.245711
0.253503
-0.25042
0.28822
-0.273073
0.318408
-0.243742
0.347935
-0.23708
0.376822
-0.226348
0.402779
-0.203223
0.42671
-0.18508
0.448673
-0.16544
0.468299
-0.145089
0.486054
-0.12708
0.502052
-0.109103
0.516113
-0.0919252
0.52843
-0.0753998
0.539136
-0.0589295
0.54795
-0.0426293
0.554968
-0.0258253
0.560049
-0.00913168
0.563246
0.00835836
0.56446
0.0256188
0.563607
0.0435304
0.560936
0.0597712
0.556507
0.0744556
0.550629
0.0846184
0.543557
0.0888647
0.535465
0.0918848
0.526525
0.0963114
0.516784
0.100731
0.506236
0.105622
0.494987
0.110939
0.48299
0.11675
0.470219
0.123189
0.456634
0.130807
0.442113
0.140571
0.426429
0.154287
0.408965
0.177376
0.389186
0.214383
0.364547
0.311475
0.326845
0.424922
-0.163019
-0.248179
-0.132321
-0.260486
-0.0936429
-0.320741
-0.055414
-0.32687
-0.0164508
-0.338637
0.0236488
-0.350123
0.0618953
-0.340595
0.0956599
-0.310471
0.125085
-0.278761
0.150844
-0.248779
0.172621
-0.216044
0.191214
-0.187846
0.207597
-0.165602
0.222199
-0.146409
0.235518
-0.131281
0.247966
-0.119266
0.259739
-0.109585
0.270991
-0.10188
0.281862
-0.0959755
0.292386
-0.0911821
0.302571
-0.0873437
0.312458
-0.0837663
0.321966
-0.079617
0.330894
-0.0724424
0.33896
-0.0626315
0.346027
-0.0530367
0.352058
-0.0437042
0.357087
-0.0347503
0.361088
-0.026047
0.364089
-0.0176761
0.366122
-0.00959873
0.367168
-0.00177557
0.367275
0.00595358
0.366389
0.0139363
0.364383
0.0229436
0.360908
0.03547
0.355241
0.0543592
0.346065
0.102301
0.330231
0.186656
-0.193459
0.225255
-0.277507
0.257322
-0.282487
0.293969
-0.30972
0.325839
-0.275612
0.356983
-0.268224
0.387343
-0.256708
0.414447
-0.230327
0.439607
-0.21024
0.462606
-0.18844
0.483174
-0.165657
0.50172
-0.145625
0.518351
-0.125734
0.53321
-0.106784
0.546369
-0.0885589
0.557663
-0.0702227
0.56725
-0.0522169
0.574985
-0.0335601
0.580851
-0.0149976
0.584706
0.00450319
0.586588
0.0237377
0.586451
0.0436673
0.584356
0.061866
0.580506
0.0783062
0.575137
0.0899873
0.568465
0.0955371
0.560677
0.0996731
0.551857
0.105131
0.542088
0.110501
0.531492
0.116218
0.520029
0.122402
0.507762
0.129017
0.494662
0.136288
0.480646
0.144822
0.465578
0.155639
0.449198
0.170667
0.430931
0.195642
0.410106
0.235208
0.385795
0.335786
0.349946
0.460778
-0.162012
-0.279626
-0.129807
-0.292692
-0.089052
-0.361496
-0.0488908
-0.367031
-0.0079618
-0.379566
0.0340076
-0.392092
0.0740207
-0.380608
0.109179
-0.345629
0.139674
-0.309256
0.166151
-0.275256
0.188399
-0.238292
0.207208
-0.206655
0.223665
-0.182059
0.238217
-0.160961
0.251445
-0.144509
0.263799
-0.13162
0.275512
-0.121298
0.286772
-0.11314
0.297676
-0.106879
0.308315
-0.101821
0.318707
-0.0977355
0.328818
-0.093878
0.338584
-0.0893825
0.347842
-0.0817007
0.35626
-0.0710498
0.363679
-0.0604554
0.370077
-0.0501028
0.375428
-0.0401016
0.379746
-0.0303643
0.383008
-0.0209382
0.38524
-0.0118315
0.386481
-0.00301574
0.386695
0.00573952
0.385874
0.0147581
0.383858
0.0249603
0.380332
0.0389956
0.374528
0.0601634
0.365408
0.111421
0.350206
0.201859
-0.194443
0.22804
-0.311104
0.261867
-0.316313
0.300553
-0.348406
0.334026
-0.309085
0.366783
-0.300981
0.398729
-0.288654
0.427341
-0.258939
0.453636
-0.236535
0.47771
-0.212513
0.499182
-0.187129
0.518625
-0.165068
0.53612
-0.143229
0.551594
-0.122259
0.565373
-0.102338
0.577437
-0.0822864
0.587709
-0.0624884
0.5961
-0.0419514
0.602596
-0.0214934
0.607128
-2.92193e-05
0.609697
0.0211696
0.610233
0.0431314
0.608799
0.0633002
0.605529
0.0815761
0.600656
0.0948599
0.594372
0.101822
0.586858
0.107187
0.578192
0.113797
0.568495
0.120197
0.557807
0.126906
0.546198
0.13401
0.533672
0.141544
0.520217
0.149744
0.505801
0.159238
0.490223
0.171218
0.473231
0.187661
0.454262
0.214612
0.432417
0.257056
0.407691
0.360514
0.372958
0.495517
-0.161359
-0.31271
-0.127424
-0.326626
-0.0845349
-0.404385
-0.0422812
-0.409285
0.000692903
-0.42254
0.0447145
-0.436113
0.0866716
-0.422565
0.12333
-0.382288
0.155001
-0.340926
0.182383
-0.302638
0.205209
-0.261118
0.224335
-0.225781
0.240899
-0.198623
0.255464
-0.175525
0.268623
-0.157668
0.280889
-0.143886
0.292512
-0.132921
0.303725
-0.124354
0.31466
-0.117814
0.325364
-0.112525
0.335879
-0.10825
0.346174
-0.104173
0.356215
-0.0994238
0.365774
-0.09126
0.374532
-0.0798073
0.382303
-0.068227
0.389041
-0.05684
0.394739
-0.0458
0.39934
-0.0349652
0.402885
-0.0244832
0.405353
-0.0143001
0.406761
-0.00442447
0.40712
0.00538032
0.40635
0.0155275
0.404349
0.0269602
0.400762
0.0425816
0.39485
0.0660739
0.385852
0.120418
0.371301
0.216408
-0.195925
0.231231
-0.34641
0.266919
-0.352001
0.307765
-0.389251
0.343093
-0.344414
0.377604
-0.335492
0.411191
-0.322241
0.441223
-0.288971
0.468855
-0.264167
0.493991
-0.237648
0.51645
-0.209588
0.536729
-0.185347
0.55496
-0.161461
0.571253
-0.138552
0.585736
-0.116821
0.598414
-0.0949641
0.609279
-0.0733528
0.618338
-0.0510108
0.625519
-0.0286742
0.630709
-0.00521886
0.633845
0.0180338
0.635007
0.041969
0.634153
0.0641547
0.631445
0.0842838
0.627118
0.0991866
0.621325
0.107615
0.614108
0.114404
0.605646
0.122259
0.596004
0.12984
0.585272
0.137638
0.573527
0.145755
0.560773
0.154297
0.54699
0.163527
0.532131
0.174097
0.516042
0.187306
0.498458
0.205244
0.478839
0.23423
0.456185
0.27971
0.430805
0.385893
0.396742
0.529584
-0.160921
-0.347715
-0.125325
-0.362222
-0.0800684
-0.449642
-0.0356227
-0.453731
0.00959708
-0.46776
0.0558845
-0.482401
0.0998087
-0.466489
0.138172
-0.420651
0.171144
-0.373898
0.199535
-0.331029
0.223035
-0.284618
0.242563
-0.245309
0.259357
-0.215417
0.273983
-0.190151
0.287103
-0.170788
0.299287
-0.15607
0.310819
-0.144453
0.32196
-0.135494
0.332858
-0.128712
0.343602
-0.123269
0.354204
-0.118852
0.364669
-0.114638
0.37492
-0.109675
0.384773
-0.101113
0.393847
-0.088881
0.401957
-0.0763376
0.409038
-0.0639204
0.415045
-0.0518073
0.41997
-0.0398903
0.423792
-0.0283056
0.426506
-0.0170139
0.42812
-0.00603805
0.428608
0.00489212
0.427928
0.0162082
0.425931
0.0289575
0.422323
0.0461901
0.416332
0.0720652
0.407419
0.129331
0.393571
0.230257
-0.197647
0.2349
-0.383662
0.272553
-0.389654
0.315698
-0.432397
0.352917
-0.381632
0.389212
-0.371786
0.424559
-0.357588
0.45614
-0.320552
0.485087
-0.293114
0.511457
-0.264018
0.534913
-0.233044
0.556158
-0.206593
0.575176
-0.180478
0.59218
-0.155555
0.607336
-0.131978
0.620556
-0.108184
0.6321
-0.0848967
0.641779
-0.0606888
0.649549
-0.0364441
0.655387
-0.0110568
0.659183
0.0142375
0.660924
0.0402287
0.660678
0.0644008
0.658543
0.0864185
0.654721
0.103009
0.649345
0.112991
0.642456
0.121293
0.634229
0.130485
0.62471
0.139359
0.613967
0.148381
0.602098
0.157625
0.58911
0.167285
0.575015
0.177622
0.559721
0.189391
0.543143
0.203885
0.524965
0.223424
0.504704
0.254493
0.481297
0.303119
0.455332
0.411861
0.421778
0.563142
-0.160863
-0.384499
-0.123222
-0.399862
-0.0755853
-0.497279
-0.0287624
-0.500553
0.018771
-0.515293
0.0673912
-0.531021
0.113581
-0.512679
0.153731
-0.460801
0.188176
-0.408343
0.217675
-0.360528
0.241961
-0.308903
0.261966
-0.265315
0.279042
-0.232492
0.293776
-0.204886
0.306886
-0.183898
0.319015
-0.168199
0.330466
-0.155903
0.341504
-0.146533
0.352349
-0.139557
0.363095
-0.134015
0.373756
-0.129513
0.384333
-0.125216
0.39479
-0.120132
0.404897
-0.11122
0.414267
-0.0982515
0.422699
-0.0847694
0.430112
-0.0713328
0.43646
-0.0581553
0.441697
-0.0451274
0.445802
-0.0324112
0.448758
-0.01997
0.450563
-0.00784297
0.451208
0.00424637
0.450618
0.0167981
0.448651
0.0309237
0.445016
0.0498242
0.438979
0.0781004
0.430239
0.138071
0.417078
0.243416
-0.199682
0.239041
-0.423021
0.278718
-0.429331
0.324277
-0.477956
0.363452
-0.420808
0.40168
-0.410014
0.438983
-0.394891
0.472092
-0.353661
0.502485
-0.323507
0.530215
-0.291747
0.554774
-0.257604
0.576908
-0.228727
0.596775
-0.200345
0.614411
-0.173191
0.630245
-0.147811
0.644217
-0.122156
0.656326
-0.0970061
0.666604
-0.0709671
0.674943
-0.0447828
0.681267
-0.0173805
0.685631
0.00987356
0.687982
0.0378775
0.688256
0.0641271
0.686675
0.0879998
0.683374
0.10631
0.678466
0.117899
0.671981
0.127779
0.663965
0.138501
0.654584
0.148741
0.6439
0.159064
0.631939
0.169586
0.618761
0.180462
0.604346
0.192037
0.588682
0.205055
0.571592
0.220974
0.552796
0.242219
0.531885
0.275403
0.507835
0.327168
0.481302
0.438394
0.448282
0.596165
-0.160894
-0.423288
-0.121375
-0.439381
-0.0710763
-0.547577
-0.0217688
-0.549861
0.0282564
-0.565318
0.0794454
-0.58221
0.127927
-0.56116
0.17006
-0.502934
0.206029
-0.444312
0.236794
-0.391293
0.261938
-0.334047
0.282548
-0.285925
0.29998
-0.249925
0.31489
-0.219796
0.328053
-0.197061
0.340129
-0.180275
0.351486
-0.167261
0.362451
-0.157497
0.373217
-0.150324
0.383918
-0.144716
0.3946
-0.140195
0.405283
-0.135898
0.415904
-0.130753
0.426238
-0.121554
0.435903
-0.107916
0.444636
-0.0935029
0.452367
-0.0790639
0.459024
-0.0648119
0.464572
-0.0506755
0.468951
-0.0367911
0.472169
-0.0231872
0.474201
-0.00987498
0.474989
0.00345846
0.474515
0.0172719
0.472596
0.0328433
0.468952
0.0534686
0.4629
0.084153
0.454303
0.146669
0.441885
0.255834
-0.202083
0.243602
-0.46454
0.285408
-0.471137
0.333482
-0.526029
0.374725
-0.462051
0.415072
-0.450361
0.454331
-0.43415
0.489147
-0.388477
0.5211
-0.35546
0.550125
-0.320773
0.575782
-0.283261
0.598912
-0.251857
0.619657
-0.22109
0.638165
-0.1917
0.654629
-0.164275
0.669189
-0.136715
0.68188
-0.109697
0.692707
-0.0817939
0.7016
-0.053676
0.708569
-0.0243488
0.71345
0.0049927
0.716294
0.0350337
0.717151
0.0632701
0.716066
0.0890849
0.71326
0.109116
0.70879
0.12237
0.702675
0.133893
0.694966
0.14621
0.685753
0.157954
0.67511
0.169708
0.66309
0.181606
0.649753
0.193799
0.635078
0.206713
0.619003
0.22113
0.60142
0.238557
0.582054
0.261586
0.560516
0.296942
0.535802
0.351884
0.508773
0.465426
0.476304
0.628637
-0.161129
-0.464241
-0.119463
-0.481046
-0.0664621
-0.600579
-0.0145246
-0.601798
0.0381465
-0.617989
0.0920237
-0.636087
0.143005
-0.612141
0.187212
-0.547142
0.224883
-0.481983
0.256974
-0.423383
0.283113
-0.360186
0.304369
-0.307181
0.322218
-0.267774
0.337368
-0.234946
0.350612
-0.210305
0.362688
-0.192351
0.373971
-0.178544
0.384838
-0.168363
0.395518
-0.161004
0.406168
-0.155366
0.416839
-0.150865
0.427569
-0.146629
0.438331
-0.141515
0.448896
-0.132119
0.458807
-0.117827
0.467818
-0.102515
0.475851
-0.0870964
0.482818
-0.0717787
0.488671
-0.0565293
0.493351
-0.0414705
0.496824
-0.0266608
0.499054
-0.0121052
0.500036
0.00247649
0.499668
0.0176394
0.497812
0.0346981
0.494184
0.0570957
0.488134
0.0902018
0.479744
0.155058
0.468098
0.267479
-0.204695
0.248434
-0.50828
0.292571
-0.515274
0.343327
-0.576785
0.386805
-0.505529
0.429315
-0.492871
0.470608
-0.475444
0.507282
-0.425151
0.540846
-0.389024
0.571254
-0.35118
0.598145
-0.310152
0.622409
-0.276121
0.64401
-0.242691
0.663284
-0.210974
0.680478
-0.181469
0.695635
-0.151873
0.708925
-0.122987
0.720289
-0.0931584
0.729745
-0.0631312
0.737178
-0.031782
0.742614
-0.000442897
0.74596
0.0316869
0.747284
0.0619468
0.746728
0.0896404
0.744397
0.111447
0.740405
0.126362
0.734659
0.139639
0.727239
0.153631
0.718222
0.166971
0.707652
0.180278
0.695623
0.193634
0.682144
0.207278
0.667221
0.221635
0.650793
0.237558
0.632741
0.256609
0.612825
0.281501
0.590621
0.319146
0.56531
0.377193
0.537828
0.492907
0.505881
0.660586
-0.161518
-0.507418
-0.117642
-0.524922
-0.0617718
-0.656449
-0.0069998
-0.65657
0.0484461
-0.673435
0.105132
-0.692773
0.15882
-0.665829
0.205214
-0.593536
0.24472
-0.521489
0.278252
-0.456915
0.30544
-0.387375
0.327436
-0.329176
0.345802
-0.28614
0.361238
-0.250382
0.374617
-0.223684
0.386729
-0.204463
0.39797
-0.189786
0.408752
-0.179145
0.419338
-0.17159
0.429904
-0.165933
0.440554
-0.161515
0.451313
-0.157388
0.462185
-0.152387
0.472919
-0.142854
0.483056
-0.127963
0.492345
-0.111804
0.500659
-0.0954103
0.507934
-0.0790546
0.514074
-0.0626688
0.519039
-0.0464364
0.522772
-0.0303932
0.525247
-0.01458
0.526395
0.00132868
0.526147
0.017887
0.524377
0.0364686
0.520776
0.0606971
0.514792
0.0961865
0.5066
0.163251
0.495706
0.278373
-0.207632
0.253773
-0.554421
0.30035
-0.561852
0.353793
-0.630228
0.399737
-0.551474
0.444416
-0.537549
0.487981
-0.519009
0.526504
-0.463674
0.561785
-0.424304
0.593734
-0.38313
0.621934
-0.338352
0.647183
-0.30137
0.669821
-0.265329
0.689859
-0.231013
0.707769
-0.199378
0.723658
-0.167762
0.737486
-0.136815
0.749426
-0.105098
0.759382
-0.0730867
0.767364
-0.0397641
0.773251
-0.00632956
0.777067
0.0278707
0.778911
0.0601034
0.77877
0.0897812
0.776901
0.113316
0.77332
0.129943
0.767956
0.145003
0.760858
0.160729
0.752063
0.175766
0.741647
0.190695
0.72961
0.205671
0.71602
0.220868
0.700866
0.236789
0.684101
0.254323
0.66562
0.27509
0.645124
0.301997
0.622342
0.341929
0.596434
0.403103
0.568481
0.520862
0.537078
0.691991
-0.162113
-0.552936
-0.115855
-0.57118
-0.0569025
-0.715402
0.000777616
-0.71425
0.0592174
-0.731875
0.118914
-0.75247
0.175343
-0.722258
0.224165
-0.642357
0.265579
-0.562903
0.300703
-0.492038
0.329053
-0.415726
0.351876
-0.351999
0.370801
-0.305066
0.386586
-0.266166
0.400155
-0.237253
0.412314
-0.216622
0.423552
-0.201024
0.434248
-0.18984
0.444739
-0.182081
0.45522
-0.176415
0.465817
-0.172112
0.476583
-0.168154
0.487544
-0.163348
0.498439
-0.153749
0.508787
-0.138312
0.518304
-0.12132
0.526877
-0.103983
0.53442
-0.0865978
0.540859
-0.0691085
0.546095
-0.0516717
0.5501
-0.0343989
0.552789
-0.0172684
0.55414
-2.34116e-05
0.554055
0.0179725
0.552349
0.0381734
0.548841
0.0642047
0.542916
0.10211
0.534998
0.171167
0.524871
0.288499
-0.2108
0.25947
-0.603091
0.308519
-0.6109
0.365029
-0.686738
0.413285
-0.59973
0.460486
-0.58475
0.506318
-0.564841
0.546949
-0.504305
0.583961
-0.461316
0.617494
-0.416663
0.647026
-0.367884
0.673553
-0.327897
0.69712
-0.288896
0.718099
-0.251992
0.736763
-0.218042
0.753281
-0.18428
0.767727
-0.151261
0.780183
-0.117554
0.790619
-0.0835231
0.799031
-0.0481763
0.8054
-0.0126983
0.809708
0.0235626
0.811922
0.0578896
0.812228
0.0894752
0.81081
0.114735
0.807645
0.133108
0.8027
0.149948
0.795919
0.16751
0.787346
0.184338
0.777045
0.200997
0.765066
0.21765
0.751402
0.234532
0.736052
0.252138
0.718982
0.271393
0.700076
0.293995
0.679089
0.322983
0.655719
0.365299
0.629256
0.429565
0.60088
0.549236
0.569981
0.722891
-0.162813
-0.600923
-0.114052
-0.619942
-0.0518819
-0.777572
0.0088653
-0.774998
0.0704444
-0.793454
0.13333
-0.815356
0.192765
-0.781692
0.244062
-0.693655
0.287549
-0.606389
0.324328
-0.528817
0.353946
-0.445343
0.377681
-0.375734
0.397237
-0.324621
0.413444
-0.282373
0.427248
-0.251056
0.439518
-0.228892
0.450751
-0.212258
0.461399
-0.200488
0.471799
-0.192481
0.482212
-0.186828
0.492729
-0.182628
0.503495
-0.17892
0.514508
-0.17436
0.525537
-0.164779
0.53607
-0.148844
0.545785
-0.131036
0.554617
-0.112815
0.562421
-0.0944018
0.569111
-0.0757982
0.574645
-0.0572064
0.578898
-0.0386519
0.58183
-0.0202004
0.583357
-0.00155027
0.583423
0.0179066
0.581856
0.0397407
0.578416
0.0676457
0.57263
0.107896
0.564963
0.178836
0.55562
0.297842
-0.214259
0.265547
-0.654378
0.317269
-0.662622
0.376831
-0.746301
0.427809
-0.650708
0.477453
-0.634394
0.525815
-0.613203
0.568463
-0.546953
0.607428
-0.500281
0.642658
-0.451893
0.673675
-0.3989
0.701378
-0.3556
0.726097
-0.313614
0.747956
-0.273851
0.767414
-0.2375
0.784574
-0.201439
0.799659
-0.166347
0.812623
-0.130518
0.823544
-0.094444
0.83246
-0.0570921
0.839236
-0.0194743
0.843929
0.0188702
0.846569
0.0552495
0.847274
0.0887701
0.846253
0.115756
0.843502
0.13586
0.838907
0.154543
0.832444
0.173973
0.824162
0.19262
0.814033
0.211126
0.802094
0.229589
0.788373
0.248252
0.772879
0.267632
0.755541
0.288732
0.736244
0.313292
0.714777
0.34445
0.69086
0.389216
0.663877
0.456549
0.6351
0.578015
0.604657