/*--------------------------------*- C++ -*----------------------------------*\
  =========                 |
  \\      /  F ield         | OpenFOAM: The Open Source CFD Toolbox
   \\    /   O peration     | Website:  https://openfoam.org
    \\  /    A nd           | Version:  13
     \\/     M anipulation  |
\*---------------------------------------------------------------------------*/
FoamFile
{
    format      ascii;
    class       volVectorField;
    location    "150";
    object      U;
}
// * * * * * * * * * * * * * * * * * * * * * * * * * * * * * * * * * * * * * //

dimensions      [0 1 -1 0 0 0 0];

internalField   nonuniform List<vector> 
10720
(
(0.414837 28.1364 1.54661e-17)
(2.21112 30.4112 -1.43287e-17)
(4.45083 32.5999 0)
(7.01645 34.2859 -3.99881e-16)
(9.84566 35.5622 4.48013e-16)
(12.8722 36.385 3.25257e-16)
(15.9396 36.6509 4.475e-16)
(18.9548 36.4008 0)
(21.8398 35.6969 0)
(24.5167 34.578 0)
(26.9568 33.1258 1.16284e-16)
(29.1473 31.4273 0)
(31.0639 29.5131 2.34924e-15)
(32.696 27.414 0)
(34.0312 25.1595 0)
(35.0813 22.7952 0)
(35.8337 20.3398 -3.96485e-15)
(36.2917 17.8449 -5.92977e-15)
(36.4364 15.3347 5.2776e-15)
(36.2788 12.8695 0)
(35.8015 10.4861 4.34278e-15)
(35.0416 8.2581 -8.51294e-15)
(34.0468 6.23763 4.24152e-15)
(32.9268 4.4884 -1.27241e-16)
(31.8804 3.0584 0)
(30.9928 1.89538 1.68413e-15)
(30.1684 0.911493 2.60661e-17)
(29.3088 0.0654535 -7.3829e-16)
(28.3767 -0.665433 -2.69576e-15)
(27.3682 -1.29587 -9.78818e-15)
(26.2863 -1.83252 4.36309e-15)
(25.1343 -2.27877 7.95555e-15)
(23.91 -2.63565 6.86256e-15)
(22.6045 -2.90372 2.34517e-14)
(21.171 -3.07862 -9.48381e-15)
(19.5723 -3.15857 -6.70841e-17)
(17.5072 -3.09073 2.17273e-17)
(15.0799 -2.86736 3.78305e-15)
(9.66812 -2.28198 1.38182e-14)
(-1.01359 25.7004 2.87019e-19)
(-2.17484 22.9489 -1.0349e-17)
(-3.00002 19.8461 4.98213e-17)
(-3.35501 16.2428 -1.45545e-16)
(-3.08489 12.5143 -4.96758e-16)
(-2.14724 8.79793 8.81653e-16)
(-0.614795 5.37665 4.4329e-15)
(1.26791 2.52455 2.58308e-15)
(3.25725 0.148768 0)
(5.47153 -1.90379 0)
(7.74229 -3.43482 2.01152e-15)
(9.84931 -4.42577 7.37656e-16)
(11.7223 -4.9988 -1.23256e-15)
(13.3641 -5.27795 1.01648e-15)
(14.7981 -5.36379 1.67885e-15)
(16.057 -5.32184 1.08277e-15)
(17.1716 -5.20085 1.38106e-15)
(18.174 -5.03036 9.16446e-16)
(19.095 -4.83068 0)
(19.957 -4.60507 0)
(20.778 -4.35517 -1.26044e-15)
(21.5693 -4.07065 -5.7743e-17)
(22.3328 -3.73608 8.47838e-16)
(23.038 -3.32037 -5.8551e-16)
(23.6188 -2.81815 2.37272e-17)
(24.0568 -2.26708 0)
(24.3775 -1.69359 9.33709e-17)
(24.5973 -1.11369 0)
(24.7227 -0.538761 0)
(24.7507 0.0199169 1.10197e-17)
(24.6607 0.554154 0)
(24.4666 1.05689 3.63384e-17)
(24.1874 1.52206 7.73682e-18)
(23.8379 1.94432 -3.19492e-16)
(23.4127 2.32003 4.42632e-16)
(22.902 2.65022 -2.3694e-18)
(22.1805 2.92727 0)
(21.1831 3.11571 4.97776e-15)
(18.3608 3.24336 9.00782e-15)
(7.03887 24.4402 -6.34158e-18)
(8.94256 26.1797 -1.74654e-18)
(11.2608 27.7557 0)
(13.9256 29.064 0)
(16.7907 30.044 -1.315e-16)
(19.8598 30.6353 -3.11657e-16)
(23.0157 30.7933 0)
(26.1239 30.5401 0)
(29.1287 29.8868 6.63314e-16)
(31.9413 28.8838 0)
(34.5073 27.5913 2.44344e-15)
(36.7979 26.0579 0)
(38.8016 24.3561 8.75465e-16)
(40.5284 22.5483 -8.62442e-16)
(41.9872 20.6546 1.73785e-15)
(43.146 18.7046 -3.47678e-15)
(44.0038 16.7102 3.72246e-15)
(44.5504 14.6965 3.40701e-15)
(44.7856 12.6716 3.33717e-15)
(44.6914 10.6659 2.02853e-16)
(44.2679 8.70507 -3.48512e-15)
(43.5056 6.84342 3.30943e-15)
(42.4294 5.12219 -1.86666e-16)
(41.0743 3.59894 0)
(39.5485 2.32541 0)
(37.9993 1.24863 0)
(36.4847 0.291802 1.4064e-16)
(34.9963 -0.554828 -3.14216e-17)
(33.5361 -1.29368 1.97653e-15)
(32.099 -1.93121 3.74891e-17)
(30.6699 -2.47005 -2.96854e-17)
(29.2309 -2.91265 -8.67414e-17)
(27.7635 -3.26121 4.72367e-15)
(26.2523 -3.51804 -7.92475e-15)
(24.6572 -3.683 -4.30014e-17)
(22.959 -3.75698 -9.15588e-15)
(20.8992 -3.69964 0)
(18.697 -3.50984 -1.09279e-15)
(13.3952 -2.75329 7.33935e-15)
(5.42905 22.5865 8.17773e-18)
(4.03112 20.5246 -4.17297e-17)
(2.80262 18.1097 -5.16392e-16)
(1.86828 15.3665 6.36226e-16)
(1.40454 12.3908 0)
(1.49705 9.31696 -1.35479e-15)
(2.16886 6.34209 -9.71713e-16)
(3.33856 3.68025 -7.38217e-15)
(4.83976 1.35868 2.29764e-15)
(6.58964 -0.5587 -1.74202e-15)
(8.46623 -1.95932 2.19778e-15)
(10.3116 -2.89155 -6.26491e-16)
(12.041 -3.47101 0)
(13.6221 -3.79519 -4.18022e-16)
(15.0459 -3.94695 5.31127e-17)
(16.324 -3.97951 -9.31515e-16)
(17.4726 -3.93743 0)
(18.5149 -3.8458 0)
(19.4746 -3.7225 -9.62094e-17)
(20.3744 -3.56497 9.24607e-17)
(21.2297 -3.37129 -1.09107e-15)
(22.0527 -3.12481 -1.17466e-16)
(22.8452 -2.80556 5.15009e-17)
(23.5839 -2.37673 5.68558e-16)
(24.2144 -1.85129 -3.96954e-16)
(24.7121 -1.29627 -2.89755e-16)
(25.093 -0.740465 0)
(25.3699 -0.194888 0)
(25.5462 0.334066 0)
(25.6287 0.837576 8.59587e-18)
(25.6451 1.3082 0)
(25.5912 1.7431 0)
(25.4568 2.14124 2.62682e-17)
(25.2358 2.50167 1.29156e-16)
(24.9202 2.82604 -3.58534e-16)
(24.519 3.1197 7.34613e-16)
(23.9307 3.38069 -2.34997e-15)
(23.3442 3.60259 -3.81907e-15)
(21.2464 3.64609 -6.08086e-15)
(8.36997 22.5096 -1.2298e-18)
(9.75434 24.0335 1.52833e-17)
(11.4346 25.5126 -1.28078e-17)
(13.3645 26.8716 -4.0675e-17)
(15.4897 27.993 -1.71762e-16)
(17.811 28.8522 5.96842e-16)
(20.2538 29.4087 -4.18145e-16)
(22.7424 29.6258 -4.91513e-16)
(25.222 29.5016 4.82787e-18)
(27.6347 29.0478 -6.40727e-16)
(29.9285 28.2852 5.95687e-16)
(32.0715 27.2438 -1.54855e-15)
(34.036 25.9552 -7.40495e-16)
(35.8082 24.4471 0)
(37.3689 22.7554 -1.77483e-15)
(38.7327 20.9046 3.57038e-15)
(39.9057 18.9147 0)
(40.8688 16.8292 -6.76731e-15)
(41.6126 14.678 -3.38498e-15)
(42.1099 12.5134 3.94883e-16)
(42.3486 10.3735 -3.91292e-16)
(42.3076 8.32619 -1.77483e-16)
(41.9885 6.42053 -2.52245e-15)
(41.399 4.71886 1.26749e-15)
(40.5896 3.26601 0)
(39.6368 2.00607 1.10746e-15)
(38.5612 0.87043 -1.30811e-16)
(37.3567 -0.140936 0)
(36.0405 -1.02471 1.73918e-15)
(34.6396 -1.78503 3.22813e-15)
(33.1747 -2.42465 -5.69074e-15)
(31.6593 -2.94749 -4.89757e-15)
(30.0962 -3.35852 -1.05157e-16)
(28.4813 -3.66243 -6.95473e-15)
(26.7799 -3.86138 -5.57295e-15)
(24.9739 -3.95486 7.98469e-15)
(22.8218 -3.90974 0)
(20.5458 -3.68234 -8.53639e-16)
(15.6664 -3.00117 -1.11639e-14)
(7.23469 20.9023 -1.34193e-17)
(6.23685 19.143 -5.21367e-17)
(5.39752 17.07 2.04592e-16)
(4.72059 14.7448 0)
(4.35405 12.2475 3.91564e-16)
(4.34746 9.6449 0)
(4.72881 7.06564 2.77946e-15)
(5.48149 4.66963 1.64489e-15)
(6.56016 2.53666 1.51225e-15)
(7.90336 0.725012 0)
(9.39245 -0.714162 -2.21965e-15)
(10.9132 -1.79639 -4.75339e-16)
(12.3928 -2.57706 2.15238e-15)
(13.791 -3.11369 0)
(15.0881 -3.45904 -1.00077e-15)
(16.282 -3.65782 -3.02233e-16)
(17.3789 -3.74889 1.24569e-15)
(18.3919 -3.75915 6.45106e-16)
(19.3375 -3.7078 1.77099e-16)
(20.2327 -3.60073 -9.62103e-17)
(21.0898 -3.44084 9.9488e-16)
(21.9175 -3.21993 0)
(22.716 -2.92471 0)
(23.4656 -2.53327 2.35667e-17)
(24.1225 -2.05891 0)
(24.6632 -1.55018 6.01636e-16)
(25.098 -1.02654 -7.85246e-18)
(25.4384 -0.495805 -3.62465e-17)
(25.6879 0.0342322 0)
(25.8483 0.553505 -1.78235e-17)
(25.9247 1.05463 2.47521e-17)
(25.9227 1.53104 0)
(25.8443 1.97671 -3.3191e-17)
(25.6897 2.38645 0)
(25.4471 2.75851 0)
(25.1156 3.09376 3.89992e-17)
(24.5835 3.39162 -5.32977e-17)
(23.9739 3.61091 3.81674e-15)
(22.0978 3.65308 1.17703e-14)
(10.8929 20.6304 -1.0745e-17)
(12.17 21.9307 -7.65015e-18)
(13.6993 23.1961 -4.5372e-18)
(15.4559 24.352 -9.80612e-18)
(17.3915 25.3082 0)
(19.5123 26.0464 0)
(21.7615 26.5233 -6.99216e-16)
(24.0771 26.7042 8.3841e-16)
(26.4123 26.5826 0)
(28.7114 26.1611 -1.01802e-15)
(30.9228 25.4544 -1.29076e-15)
(33.0082 24.4857 -1.22046e-15)
(34.9336 23.2847 1.45532e-15)
(36.6718 21.8843 1.37308e-15)
(38.2032 20.3178 0)
(39.5134 18.619 2.18161e-15)
(40.5744 16.8305 7.56015e-16)
(41.3756 14.9851 6.09874e-15)
(41.9141 13.1091 3.69635e-16)
(42.1951 11.2309 -3.66487e-16)
(42.2259 9.38167 3.09911e-15)
(42.0219 7.60576 -5.07595e-16)
(41.6111 5.94381 2.76426e-15)
(41.0295 4.4403 1.15414e-15)
(40.3333 3.12696 -6.83358e-17)
(39.5796 1.96678 -1.00187e-15)
(38.7715 0.905469 7.39755e-18)
(37.8762 -0.061371 -7.42219e-18)
(36.8744 -0.930186 -1.66675e-15)
(35.7597 -1.70142 -4.4121e-17)
(34.5291 -2.37123 2.78262e-15)
(33.1852 -2.93523 -4.73404e-15)
(31.7322 -3.39055 -3.82164e-15)
(30.1747 -3.73569 -2.03462e-18)
(28.4909 -3.96879 5.07012e-15)
(26.6714 -4.08411 0)
(24.4974 -4.05207 4.1418e-15)
(22.1536 -3.78328 7.38637e-16)
(17.5307 -3.14156 4.65314e-15)
(9.81743 19.2686 -2.59739e-17)
(8.85131 17.7902 6.83733e-17)
(8.00216 16.046 3.03005e-16)
(7.28928 14.0741 0)
(6.83897 11.9473 -3.48799e-16)
(6.68943 9.70958 0)
(6.86568 7.46012 -2.22522e-15)
(7.353 5.32668 -1.00978e-16)
(8.12414 3.37915 1.10983e-15)
(9.13987 1.67257 9.86473e-16)
(10.3144 0.257349 3.50514e-17)
(11.5663 -0.85839 1.66543e-15)
(12.8348 -1.70344 -1.08013e-15)
(14.0763 -2.31753 3.42711e-16)
(15.2631 -2.74065 1.16809e-15)
(16.3825 -3.01243 1.2848e-15)
(17.4314 -3.16727 -1.15041e-15)
(18.4136 -3.2323 5.71412e-18)
(19.3387 -3.22733 0)
(20.2181 -3.16177 1.19259e-15)
(21.0611 -3.03892 5.82045e-17)
(21.874 -2.8533 -8.92693e-16)
(22.6562 -2.59393 0)
(23.391 -2.24395 2.23041e-17)
(24.0421 -1.81059 0)
(24.5863 -1.33248 -2.83522e-16)
(25.0295 -0.832483 0)
(25.3818 -0.322383 3.4018e-17)
(25.6471 0.187727 -1.03473e-18)
(25.828 0.687376 5.70024e-19)
(25.9286 1.16755 -2.24189e-17)
(25.9544 1.62076 -7.58207e-19)
(25.9085 2.04303 0)
(25.7928 2.43189 1.45539e-16)
(25.5977 2.78746 2.82111e-18)
(25.3225 3.1098 -7.44718e-16)
(24.861 3.39978 4.78638e-15)
(24.305 3.58891 1.15761e-17)
(22.6106 3.62131 0)
(12.4662 19.1941 -1.52438e-17)
(13.551 20.3453 -1.47992e-18)
(14.8564 21.4871 -7.4907e-18)
(16.348 22.5555 1.49411e-16)
(17.9845 23.4681 -5.21468e-17)
(19.7875 24.2191 -1.88585e-16)
(21.7099 24.7683 3.00874e-16)
(23.7041 25.0799 0)
(25.74 25.1431 1.17721e-15)
(27.7711 24.9504 5.48933e-16)
(29.7566 24.5027 0)
(31.6627 23.8099 1.17234e-15)
(33.4558 22.8885 -6.18165e-16)
(35.1078 21.7576 1.71915e-15)
(36.5962 20.44 0)
(37.9004 18.9592 -2.85874e-15)
(39.0073 17.333 2.72064e-15)
(39.9077 15.5817 -1.67025e-16)
(40.5863 13.7371 0)
(41.0278 11.8434 2.94545e-15)
(41.2222 9.9463 -2.97336e-15)
(41.1685 8.10377 -1.51742e-16)
(40.8841 6.36888 -2.31108e-15)
(40.4045 4.79347 -2.12181e-15)
(39.7895 3.41337 0)
(39.106 2.20168 0)
(38.3793 1.10697 -2.29441e-16)
(37.5984 0.116039 -2.5695e-17)
(36.7543 -0.772781 1.58471e-15)
(35.8407 -1.56408 -4.20656e-17)
(34.8446 -2.25827 4.20045e-17)
(33.7492 -2.85303 4.43184e-15)
(32.5357 -3.34511 0)
(31.1886 -3.73011 1.23376e-14)
(29.6745 -4.00217 -4.24692e-17)
(27.98 -4.14893 0)
(25.9032 -4.14101 -3.16112e-17)
(23.6028 -3.85176 0)
(19.2016 -3.22715 -3.95514e-15)
(11.5468 17.9948 2.5054e-17)
(10.7181 16.7054 -1.61155e-16)
(9.96907 15.1832 1.77255e-16)
(9.31236 13.4639 2.82387e-16)
(8.85963 11.615 -1.11827e-15)
(8.63972 9.66034 -1.44488e-15)
(8.68319 7.6749 1.75284e-15)
(8.98703 5.76436 -1.90795e-15)
(9.53739 3.99417 -8.59149e-16)
(10.3081 2.41188 -7.63937e-16)
(11.2368 1.05828 1.47356e-15)
(12.2625 -0.0518839 -1.41521e-15)
(13.3372 -0.933876 -6.19928e-16)
(14.4214 -1.61315 6.03356e-16)
(15.4861 -2.11543 -1.31007e-15)
(16.5145 -2.47069 2.40202e-16)
(17.4978 -2.70549 0)
(18.4336 -2.84238 -9.10678e-16)
(19.3257 -2.89855 3.21999e-16)
(20.1806 -2.8843 -1.2484e-15)
(21.0042 -2.80367 0)
(21.8 -2.65387 7.73795e-16)
(22.5662 -2.42719 6.07373e-16)
(23.2877 -2.11257 -4.58798e-16)
(23.9337 -1.71594 0)
(24.4815 -1.2694 -3.0218e-16)
(24.9324 -0.79672 0)
(25.2944 -0.309872 0)
(25.5709 0.181487 0)
(25.7641 0.667056 3.43653e-17)
(25.8779 1.1378 0)
(25.9173 1.58698 0)
(25.8855 2.00941 -1.2398e-16)
(25.7854 2.40083 -1.38317e-16)
(25.6087 2.75959 0)
(25.3567 3.08338 -7.8081e-16)
(24.9316 3.37255 6.32442e-17)
(24.4228 3.54426 0)
(22.9206 3.56444 -5.11527e-15)
(13.9484 17.9372 1.83797e-17)
(14.9304 18.9571 -1.31035e-17)
(16.1077 19.9751 0)
(17.4479 20.9318 8.30462e-18)
(18.9109 21.7542 -1.25217e-16)
(20.5268 22.4426 1.7773e-16)
(22.2548 22.9587 4.51088e-17)
(24.0563 23.2706 -7.51687e-16)
(25.9103 23.3652 -9.17502e-17)
(27.7784 23.2316 1.12525e-15)
(29.6251 22.8656 -4.01395e-16)
(31.4205 22.2705 9.05404e-16)
(33.1313 21.4563 4.53052e-16)
(34.7282 20.4366 3.28556e-16)
(36.1855 19.2299 0)
(37.4796 17.8576 -6.20389e-16)
(38.5894 16.3449 -1.36951e-15)
(39.4905 14.7292 -5.06989e-15)
(40.1655 13.0444 1.49542e-15)
(40.6049 11.3218 -1.89853e-15)
(40.8041 9.59587 -2.97387e-16)
(40.7669 7.90797 0)
(40.5094 6.30117 2.06874e-15)
(40.0626 4.81808 1.31781e-16)
(39.4773 3.4913 -5.885e-17)
(38.8108 2.30811 -8.19999e-16)
(38.0917 1.23109 1.89115e-16)
(37.3197 0.249732 3.95754e-16)
(36.4956 -0.634762 -1.48117e-15)
(35.6245 -1.42525 -7.91267e-17)
(34.7058 -2.12326 2.52262e-15)
(33.7314 -2.72806 4.09728e-15)
(32.6844 -3.23785 0)
(31.5409 -3.64876 -1.8399e-17)
(30.2513 -3.95358 -4.61305e-15)
(28.7824 -4.13461 0)
(26.924 -4.16001 -7.32712e-15)
(24.813 -3.87203 0)
(20.7055 -3.27653 3.58382e-15)
(13.1078 16.8786 -2.52147e-17)
(12.3463 15.7477 6.57263e-17)
(11.6441 14.4095 0)
(11.0142 12.8945 0)
(10.5556 11.2664 4.80174e-16)
(10.2881 9.53909 2.39367e-15)
(10.24 7.76953 0)
(10.4152 6.04911 -1.39912e-15)
(10.8056 4.44017 -1.34287e-15)
(11.3906 2.97969 1.34979e-15)
(12.1253 1.7009 -5.43007e-17)
(12.9636 0.621786 5.88563e-16)
(13.8691 -0.264977 2.96159e-17)
(14.8088 -0.975036 1.554e-15)
(15.7556 -1.52406 1.39345e-15)
(16.6916 -1.93355 -1.30735e-15)
(17.6052 -2.22366 1.8395e-16)
(18.4897 -2.41283 -3.41926e-16)
(19.3438 -2.51598 1.58205e-16)
(20.1697 -2.54319 9.18659e-16)
(20.9699 -2.49923 1.18796e-16)
(21.7455 -2.38329 -8.58789e-17)
(22.4932 -2.18986 -5.17581e-16)
(23.1992 -1.91149 0)
(23.8368 -1.55305 2.13469e-17)
(24.3843 -1.14054 5.63265e-16)
(24.8395 -0.696718 -2.94815e-18)
(25.208 -0.234012 2.92411e-18)
(25.4925 0.237424 0)
(25.6947 0.706672 -3.22795e-17)
(25.818 1.16407 0)
(25.867 1.60179 0)
(25.8448 2.01397 1.13971e-16)
(25.7539 2.39615 1.84419e-16)
(25.5866 2.74649 0)
(25.3443 3.06109 7.27002e-16)
(24.9358 3.33988 -4.45905e-15)
(24.4467 3.48826 2.08847e-17)
(23.0994 3.48581 4.68053e-15)
(15.1565 16.8686 -6.3428e-20)
(16.0407 17.7836 -1.26986e-17)
(17.1003 18.7043 -1.40732e-19)
(18.3013 19.5751 1.37146e-19)
(19.604 20.3308 8.48342e-17)
(21.0442 20.9772 0)
(22.5847 21.4807 -3.38611e-16)
(24.193 21.8118 8.09232e-18)
(25.8568 21.9589 -3.38396e-16)
(27.5433 21.9098 -6.84024e-16)
(29.2243 21.6568 0)
(30.8754 21.1984 -1.64678e-15)
(32.4664 20.5383 -1.41202e-15)
(33.9699 19.6838 -3.43056e-15)
(35.3608 18.6471 0)
(36.6139 17.4445 -2.1093e-15)
(37.706 16.0964 -2.2098e-15)
(38.6183 14.6222 2.39259e-15)
(39.3343 13.0461 -2.35271e-15)
(39.8381 11.4018 2.17854e-15)
(40.1193 9.72874 2.6742e-16)
(40.1742 8.07451 -2.30216e-15)
(40.0122 6.48726 0)
(39.6573 5.01179 -1.97317e-15)
(39.1511 3.68047 1.15702e-16)
(38.5434 2.48698 8.58539e-16)
(37.8638 1.40108 0)
(37.1173 0.411861 -2.93974e-17)
(36.3081 -0.479801 6.30162e-17)
(35.4453 -1.27634 2.42238e-15)
(34.5358 -1.97962 -2.24536e-15)
(33.5825 -2.5898 -3.90009e-15)
(32.582 -3.10645 3.30586e-15)
(31.5252 -3.52793 -6.08696e-17)
(30.3742 -3.84921 4.41984e-15)
(29.1011 -4.05281 6.16677e-15)
(27.4951 -4.10758 3.55737e-15)
(25.6845 -3.83259 -1.09785e-17)
(21.9954 -3.28415 -3.73904e-18)
(14.3939 15.9209 1.02215e-17)
(13.7 14.9147 1.28556e-16)
(13.0478 13.7219 1.75684e-16)
(12.45 12.3702 -3.30238e-16)
(11.9958 10.92 -1.31364e-15)
(11.7005 9.37755 4.32277e-16)
(11.5898 7.78669 1.11466e-15)
(11.6729 6.2291 2.8781e-15)
(11.945 4.764 1.16165e-15)
(12.3889 3.41878 -1.08942e-15)
(12.9711 2.22092 -3.69148e-17)
(13.6562 1.18838 -5.27278e-16)
(14.4167 0.317165 0)
(15.2261 -0.402388 -2.53589e-17)
(16.0609 -0.979303 -8.59501e-16)
(16.9046 -1.4285 3.75397e-16)
(17.7444 -1.76436 -3.68124e-16)
(18.5714 -2.00053 0)
(19.3811 -2.14871 5.57852e-16)
(20.1722 -2.21758 -9.72631e-16)
(20.9443 -2.21146 0)
(21.6961 -2.13051 7.1192e-16)
(22.4231 -1.97103 0)
(23.1122 -1.72835 -2.68931e-17)
(23.74 -1.40683 2.66168e-17)
(24.2855 -1.02783 -2.75899e-16)
(24.7437 -0.612603 -5.01065e-18)
(25.118 -0.174166 -2.99688e-18)
(25.41 0.276864 7.63621e-19)
(25.621 0.729325 -4.32191e-17)
(25.7537 1.17312 -6.04634e-17)
(25.812 1.60015 9.08888e-17)
(25.7988 2.00413 2.51135e-18)
(25.7163 2.37983 2.60444e-17)
(25.557 2.72447 0)
(25.3219 3.03204 1.41426e-17)
(24.9253 3.30135 2.06346e-15)
(24.4469 3.42802 -1.04599e-17)
(23.2167 3.3992 4.28325e-15)
(16.2127 15.9286 3.85102e-18)
(17.0231 16.754 1.9044e-17)
(17.9926 17.5883 0)
(19.0875 18.3792 -2.50657e-17)
(20.2679 19.0678 3.37935e-17)
(21.5725 19.664 0)
(22.9674 20.1366 -1.26055e-16)
(24.4245 20.4596 9.78904e-16)
(25.9367 20.6226 -1.3516e-15)
(27.477 20.6129 4.31111e-16)
(29.022 20.4214 5.83124e-16)
(30.5522 20.0438 2.0981e-15)
(32.0412 19.4795 1.49916e-15)
(33.4638 18.7312 1.78316e-15)
(34.7955 17.8067 4.70176e-16)
(36.0108 16.7178 1.55114e-15)
(37.0859 15.4806 2.12254e-15)
(37.9985 14.1163 2.05098e-15)
(38.7264 12.6549 -1.50669e-15)
(39.2532 11.1273 -4.60705e-15)
(39.5684 9.56746 0)
(39.6694 8.01489 8.44897e-17)
(39.5639 6.51137 1.79245e-15)
(39.2728 5.09672 1.87798e-15)
(38.8308 3.80111 -1.06625e-16)
(38.279 2.62544 -7.74939e-16)
(37.645 1.54909 5.55349e-18)
(36.9363 0.563744 -3.93431e-16)
(36.1569 -0.328392 4.13965e-17)
(35.315 -1.12776 -4.54311e-15)
(34.4177 -1.83508 -7.70125e-18)
(33.4701 -2.44963 -6.13003e-17)
(32.4742 -2.97047 -3.17726e-15)
(31.4308 -3.39592 -6.05473e-17)
(30.3184 -3.72209 -4.12584e-15)
(29.1334 -3.9328 -1.17846e-14)
(27.6965 -4.00232 3.36827e-15)
(26.1801 -3.73714 6.2768e-16)
(23.0065 -3.24333 2.87653e-15)
(15.5089 15.0754 -4.66117e-17)
(14.8667 14.1731 -1.75212e-16)
(14.2542 13.1015 -1.27707e-16)
(13.6838 11.8851 -3.25684e-16)
(13.2367 10.5821 7.34363e-16)
(12.9245 9.19294 -5.30296e-17)
(12.7709 7.75231 -2.83418e-15)
(12.7872 6.33524 -9.92271e-16)
(12.9705 4.99725 1.44377e-17)
(13.3062 3.75806 0)
(13.7681 2.64098 -9.33148e-16)
(14.3284 1.66273 8.72171e-16)
(14.9661 0.820339 -8.41491e-16)
(15.6604 0.107441 -4.31456e-16)
(16.392 -0.48069 3.61141e-16)
(17.1466 -0.954258 3.58835e-16)
(17.9123 -1.32268 1.28985e-15)
(18.6789 -1.59531 -3.0542e-16)
(19.4403 -1.78076 -5.21313e-16)
(20.1925 -1.88592 0)
(20.9329 -1.91438 -7.93452e-16)
(21.6581 -1.86665 -5.91139e-16)
(22.3623 -1.74019 -1.18832e-17)
(23.033 -1.53228 -6.37328e-17)
(23.649 -1.24698 -2.08947e-17)
(24.1901 -0.901561 3.19241e-16)
(24.6494 -0.515652 -6.16456e-18)
(25.0277 -0.102535 4.95526e-17)
(25.3261 0.326914 8.79228e-18)
(25.545 0.761422 3.95882e-17)
(25.6864 1.19055 -1.02791e-17)
(25.7537 1.6057 -1.9976e-16)
(25.7493 1.99996 -1.88376e-16)
(25.6751 2.36745 -1.87551e-16)
(25.5238 2.70461 -8.47066e-18)
(25.2958 3.00362 4.78856e-18)
(24.911 3.26189 -2.07679e-15)
(24.4442 3.3679 -2.93426e-15)
(23.3117 3.31315 -3.93849e-15)
(17.1264 15.0971 -1.17834e-17)
(17.8734 15.8461 -6.86552e-18)
(18.766 16.6061 -1.18523e-17)
(19.7701 17.3281 -2.73374e-17)
(20.8463 17.9581 6.35033e-17)
(22.0343 18.5089 -1.49985e-16)
(23.3029 18.9524 4.77455e-16)
(24.6266 19.2652 0)
(26.0028 19.4391 4.12394e-16)
(27.4082 19.462 1.1141e-17)
(28.8237 19.3244 -5.00744e-16)
(30.2347 19.0206 -1.93474e-15)
(31.6181 18.5475 -7.83597e-16)
(32.9516 17.9046 0)
(34.2128 17.0956 0)
(35.3772 16.1285 0)
(36.4208 15.0157 0)
(37.3208 13.7749 -1.98536e-15)
(38.057 12.4263 1.97157e-15)
(38.6108 10.9973 1.92888e-15)
(38.9691 9.52116 -1.55163e-15)
(39.1258 8.03716 1.36012e-15)
(39.0846 6.58716 -1.40157e-15)
(38.862 5.2109 -1.02533e-16)
(38.4865 3.93795 -4.6664e-17)
(37.9931 2.77319 7.84536e-16)
(37.4084 1.7025 1.68811e-16)
(36.7425 0.719352 0)
(36.0005 -0.173743 0)
(35.19 -0.975995 3.80702e-17)
(34.3177 -1.68747 0)
(33.3878 -2.30676 3.38311e-15)
(32.4019 -2.83217 -3.00569e-15)
(31.3625 -3.26111 -4.84891e-15)
(30.2535 -3.58932 7.69886e-15)
(29.0855 -3.79941 5.61266e-15)
(27.7121 -3.87073 -3.21664e-15)
(26.3742 -3.60177 -1.21993e-15)
(23.7121 -3.15235 -2.75638e-15)
(16.4737 14.3236 0)
(15.8764 13.5083 4.90394e-17)
(15.2994 12.5384 2.4362e-16)
(14.7549 11.4356 -1.05264e-15)
(14.3179 10.2564 9.26047e-16)
(13.9962 8.99626 -7.50967e-16)
(13.8131 7.68348 7.62353e-18)
(13.7805 6.38848 7.55112e-16)
(13.8965 5.16267 8.02332e-16)
(14.1486 4.02027 0)
(14.5153 2.98102 3.87333e-16)
(14.974 2.06018 -1.18406e-15)
(15.5084 1.25473 1.87891e-15)
(16.1025 0.559839 3.42641e-16)
(16.7407 -0.0270662 -6.97597e-16)
(17.4115 -0.512729 -6.49983e-16)
(18.1042 -0.902984 -5.97743e-16)
(18.8092 -1.20367 0)
(19.5195 -1.42037 0)
(20.2297 -1.55783 0)
(20.935 -1.61856 7.45985e-16)
(21.6308 -1.60287 0)
(22.3101 -1.50884 -4.8099e-16)
(22.9607 -1.33496 -6.14813e-17)
(23.5631 -1.08491 -3.70035e-16)
(24.0979 -0.772824 -2.83158e-16)
(24.5564 -0.416446 0)
(24.9376 -0.0290781 -4.13314e-17)
(25.2413 0.378261 -9.34332e-18)
(25.4673 0.794212 1.73999e-18)
(25.6169 1.20805 1.39638e-16)
(25.6929 1.61075 -1.76204e-17)
(25.6972 1.99493 1.82864e-16)
(25.6314 2.35397 -2.26156e-16)
(25.4881 2.6835 0)
(25.2678 2.97385 -1.36123e-17)
(24.8953 3.22085 -3.48546e-17)
(24.4421 3.30808 2.79045e-15)
(23.3992 3.22929 -2.35703e-17)
(17.9295 14.3519 1.41733e-17)
(18.6234 15.0346 0)
(19.4514 15.7291 4.35097e-17)
(20.3794 16.3894 -9.38908e-18)
(21.3688 16.9657 -3.70246e-17)
(22.4592 17.4726 1.40783e-16)
(23.6214 17.8845 -2.1098e-16)
(24.8322 18.1811 -2.52494e-16)
(26.0917 18.3554 0)
(27.3797 18.3963 -4.33408e-16)
(28.6812 18.2946 -4.63048e-16)
(29.9846 18.0442 4.59504e-16)
(31.2703 17.6401 1.71078e-15)
(32.5195 17.0795 6.83632e-16)
(33.7119 16.3632 -2.06767e-15)
(34.8241 15.4957 -1.48692e-15)
(35.8332 14.4861 1.16908e-15)
(36.7166 13.3484 8.61527e-16)
(37.4528 12.1019 -4.31451e-16)
(38.0216 10.7728 4.29991e-16)
(38.4086 9.39087 1.09107e-15)
(38.6065 7.99121 2.03011e-16)
(38.6167 6.61167 -1.90694e-16)
(38.452 5.28911 -1.26842e-15)
(38.1355 4.05163 0)
(37.6964 2.90728 -6.64849e-16)
(37.1589 1.84853 -3.1739e-16)
(36.5348 0.871855 -2.92771e-16)
(35.8307 -0.0192334 -1.08291e-15)
(35.054 -0.822473 4.05397e-15)
(34.2115 -1.53688 1.66923e-15)
(33.307 -2.1604 3.92521e-18)
(32.3415 -2.69044 3.86465e-17)
(31.316 -3.12336 0)
(30.2146 -3.45395 -3.63609e-15)
(29.0497 -3.66241 0)
(27.6912 -3.73129 0)
(26.4079 -3.44911 5.89017e-16)
(24.1537 -3.02152 4.66082e-18)
(17.3201 13.6471 -4.78717e-17)
(16.761 12.9064 1.64379e-16)
(16.2151 12.0235 1.1003e-17)
(15.6945 11.018 2.34428e-16)
(15.2689 9.94428 -8.48458e-16)
(14.943 8.79441 6.31696e-16)
(14.7394 7.59184 3.48874e-17)
(14.6709 6.40377 -6.3066e-16)
(14.7355 5.27706 -6.20576e-16)
(14.9223 4.22223 -6.62802e-16)
(15.2132 3.25638 -1.31921e-15)
(15.5892 2.39319 0)
(16.0374 1.62898 -6.79495e-16)
(16.5449 0.959412 -2.4172e-17)
(17.0998 0.383213 0)
(17.693 -0.104516 -5.74377e-16)
(18.3159 -0.506933 -2.73883e-16)
(18.9597 -0.827278 -2.58215e-16)
(19.6176 -1.06862 8.93075e-16)
(20.2833 -1.23356 7.98568e-16)
(20.9511 -1.32316 -8.30826e-17)
(21.6151 -1.33732 6.19712e-16)
(22.2676 -1.27432 1.23418e-16)
(22.8966 -1.13318 -5.9174e-17)
(23.4836 -0.917222 3.3037e-16)
(24.0101 -0.638057 2.01679e-17)
(24.466 -0.311379 0)
(24.8485 0.0497814 0)
(25.1564 0.434327 -1.83663e-18)
(25.3887 0.830929 4.61322e-18)
(25.546 1.22866 -1.55599e-16)
(25.6303 1.61809 -1.71751e-17)
(25.6431 1.99139 2.40653e-16)
(25.5856 2.34122 2.16555e-16)
(25.4506 2.66238 1.01141e-17)
(25.2383 2.94352 3.64454e-18)
(24.8789 3.17882 3.86528e-15)
(24.4407 3.24871 -2.66699e-15)
(23.4834 3.14843 2.2e-17)
(18.6389 13.6788 5.42258e-18)
(19.2867 14.3035 0)
(20.0587 14.9401 -2.79005e-17)
(20.9211 15.5454 0)
(21.8356 16.0734 -8.27286e-17)
(22.8418 16.5399 8.01537e-17)
(23.9118 16.9215 1.60826e-16)
(25.0243 17.2002 2.38189e-16)
(26.181 17.3705 0)
(27.3644 17.4225 -2.89067e-16)
(28.5623 17.348 4.74655e-16)
(29.7662 17.1403 -9.72375e-16)
(30.9594 16.7942 -5.43292e-16)
(32.126 16.3052 -5.51247e-16)
(33.2481 15.672 1.31808e-15)
(34.3046 14.8966 1.42209e-15)
(35.2736 13.9849 -1.51965e-15)
(36.133 12.9481 -1.50742e-15)
(36.8618 11.8018 0)
(37.4401 10.5675 3.94996e-16)
(37.8516 9.27237 -7.64742e-16)
(38.087 7.94916 1.88376e-16)
(38.1452 6.63378 4.17019e-18)
(38.0351 5.36143 3.00046e-15)
(37.7751 4.15904 -1.64054e-16)
(37.3888 3.03662 9.94379e-17)
(36.8982 1.99159 2.94707e-16)
(36.3159 1.02314 3.12006e-16)
(35.6495 0.13569 9.35934e-16)
(34.9067 -0.66716 -1.87438e-15)
(34.0945 -1.3834 -1.53711e-15)
(33.2174 -2.01028 -6.02946e-15)
(32.2762 -2.54448 5.19365e-15)
(31.2717 -2.98135 -7.35719e-17)
(30.1875 -3.31479 3.39979e-15)
(29.0337 -3.52238 -1.06246e-16)
(27.6899 -3.58913 5.91769e-17)
(26.4004 -3.29372 4.16166e-18)
(24.4194 -2.86531 -2.12789e-15)
(18.0673 13.0341 2.33608e-17)
(17.5419 12.3576 -8.52594e-17)
(17.0239 11.55 1.68796e-16)
(16.5254 10.6288 0)
(16.1119 9.64628 4.96203e-16)
(15.7856 8.59159 0)
(15.5683 7.48537 0)
(15.4732 6.3914 0)
(15.4983 5.35265 1.15576e-15)
(15.6339 4.37696 -5.7244e-16)
(15.8642 3.47946 6.46588e-16)
(16.1727 2.67244 0)
(16.5487 1.95137 0)
(16.9822 1.31178 -5.87291e-16)
(17.4634 0.752936 0)
(17.986 0.271064 5.35316e-16)
(18.5431 -0.135664 1.24204e-17)
(19.1274 -0.468389 0)
(19.7326 -0.7281 -6.38678e-16)
(20.3526 -0.91563 -9.47114e-16)
(20.981 -1.03074 -6.59996e-16)
(21.6111 -1.07249 -5.75181e-16)
(22.2351 -1.0389 9.86348e-16)
(22.841 -0.92915 0)
(23.411 -0.746108 3.31817e-16)
(23.9271 -0.499145 3.08402e-16)
(24.3786 -0.202063 1.16252e-16)
(24.761 0.132628 0)
(25.0719 0.493895 -8.94852e-18)
(25.3096 0.870495 -5.54051e-17)
(25.474 1.25143 1.64892e-16)
(25.5662 1.6269 -1.66933e-17)
(25.5874 1.98868 -2.20448e-16)
(25.5383 2.32873 2.43237e-16)
(25.4118 2.64102 -2.07288e-18)
(25.2079 2.91262 9.9126e-18)
(24.8623 3.13588 -3.76934e-15)
(24.4402 3.19014 2.49833e-15)
(23.5649 3.0712 6.14645e-15)
(19.27 13.0663 2.3172e-18)
(19.8774 13.6397 -1.58379e-17)
(20.6005 14.2247 0)
(21.4058 14.7805 -3.8853e-18)
(22.2554 15.2647 0)
(23.1886 15.6934 0)
(24.1785 16.0457 1.863e-17)
(25.2051 16.3052 2.06232e-16)
(26.2717 16.4679 4.75482e-16)
(27.3625 16.5249 1.2082e-15)
(28.4675 16.4691 6.81141e-16)
(29.5808 16.2942 7.83994e-16)
(30.6883 15.9944 0)
(31.7767 15.5645 1.51856e-15)
(32.8305 15.0017 -5.3729e-16)
(33.8307 14.3058 0)
(34.7573 13.4806 1.26888e-15)
(35.589 12.5341 1.44424e-15)
(36.3054 11.4791 0)
(36.8864 10.3347 1.40446e-15)
(37.3149 9.12528 -1.37227e-15)
(37.5803 7.8803 0)
(37.6792 6.63248 -1.62472e-16)
(37.6175 5.4146 3.14257e-17)
(37.4091 4.25221 7.73848e-17)
(37.0732 3.15655 1.15927e-15)
(36.6284 2.12901 -3.9647e-18)
(36.0877 1.17169 -3.08708e-17)
(35.459 0.290225 -2.59831e-17)
(34.7503 -0.510533 5.68541e-17)
(33.9687 -1.2273 1.54896e-15)
(33.1191 -1.85652 5.45724e-15)
(32.203 -2.39415 4.28854e-17)
(31.2214 -2.83453 -3.96242e-15)
(30.159 -3.17077 -3.09009e-15)
(29.0239 -3.37815 -4.57173e-15)
(27.707 -3.44332 -2.66334e-15)
(26.4074 -3.14084 2.09729e-17)
(24.5963 -2.69832 1.98407e-15)
(18.7316 12.4743 -5.4322e-17)
(18.236 11.8542 -2.04822e-16)
(17.7433 11.1125 4.08021e-16)
(17.2654 10.2652 0)
(16.8643 9.36218 8.09511e-16)
(16.5405 8.39082 0)
(16.3143 7.36949 -4.52649e-16)
(16.1995 6.35893 1.8198e-15)
(16.1941 5.39854 -1.41026e-15)
(16.2893 4.49457 0)
(16.4708 3.66025 1.04971e-15)
(16.724 2.90674 1.01674e-15)
(17.0399 2.22886 0)
(17.41 1.62193 -1.00586e-15)
(17.8269 1.08514 2.44006e-16)
(18.2858 0.614943 -2.44122e-16)
(18.7819 0.210431 2.38137e-16)
(19.3093 -0.128268 4.19196e-16)
(19.8627 -0.400647 -1.50836e-17)
(20.4365 -0.606003 5.09434e-16)
(21.0242 -0.742829 1.5148e-16)
(21.619 -0.809317 -1.44621e-16)
(22.213 -0.803114 -4.68435e-16)
(22.7942 -0.72312 4.0342e-16)
(23.3456 -0.571525 -2.94691e-16)
(23.8497 -0.355915 -3.12781e-16)
(24.2949 -0.0881912 -1.10597e-16)
(24.6757 0.219863 -1.26507e-18)
(24.9884 0.557406 9.81086e-18)
(25.2307 0.913409 5.29908e-17)
(25.4014 1.27685 8.89994e-18)
(25.5012 1.63767 -1.61738e-17)
(25.5306 1.98724 2.75765e-16)
(25.4898 2.31686 -2.4946e-16)
(25.372 2.61968 1.0405e-17)
(25.1769 2.88131 -7.48446e-16)
(24.846 3.09239 1.83197e-15)
(24.441 3.13252 0)
(23.644 2.99735 -5.89342e-15)
(19.8342 12.5054 8.97507e-18)
(20.4059 13.0332 0)
(21.0856 13.5718 0)
(21.8404 14.0831 -1.32098e-17)
(22.633 14.5275 -1.95842e-17)
(23.502 14.9215 0)
(24.4214 15.2458 0)
(25.3723 15.4861 -6.79815e-16)
(26.359 15.6392 -3.40451e-17)
(27.3672 15.6975 -4.11998e-17)
(28.3886 15.6548 -1.57642e-15)
(29.4193 15.5052 -4.10852e-16)
(30.4472 15.2432 7.81716e-16)
(31.4615 14.8631 -6.68117e-17)
(32.4491 14.3613 0)
(33.3931 13.736 0)
(34.2753 12.9889 -3.48217e-15)
(35.0757 12.1257 -6.38393e-16)
(35.7748 11.1568 6.52898e-16)
(36.3533 10.0975 -1.36261e-15)
(36.7933 8.96967 2.58667e-15)
(37.083 7.79982 1.22447e-15)
(37.2171 6.61798 -1.18442e-15)
(37.1988 5.45478 -1.3358e-15)
(37.0381 4.33431 2.11564e-16)
(36.75 3.26829 -1.14227e-15)
(36.3501 2.26102 -1.28841e-16)
(35.8507 1.31728 2.87168e-17)
(35.2601 0.443867 -2.86794e-17)
(34.5859 -0.353045 9.63483e-17)
(33.8354 -1.06898 -3.98537e-17)
(33.0139 -1.69951 -2.69602e-15)
(32.1232 -2.2397 -1.02126e-16)
(31.1649 -2.683 1.2122e-16)
(30.1254 -3.02167 0)
(29.012 -3.22919 4.25128e-15)
(27.7292 -3.29256 2.49428e-15)
(26.4373 -2.98947 0)
(24.7416 -2.52936 0)
(19.3255 11.9604 0)
(18.8566 11.3901 1.83636e-16)
(18.3872 10.7066 -6.12045e-16)
(17.9288 9.92461 -2.97819e-16)
(17.54 9.09169 -7.35389e-16)
(17.2204 8.19384 0)
(16.989 7.24803 0)
(16.8597 6.31187 -8.14648e-16)
(16.8309 5.42174 8.53414e-16)
(16.8939 4.58264 0)
(17.0359 3.80642 -4.45211e-16)
(17.2438 3.10337 -4.80693e-16)
(17.5094 2.46788 4.55455e-16)
(17.8256 1.8947 4.7292e-16)
(18.1864 1.3827 -8.78708e-16)
(18.5886 0.928478 0)
(19.0287 0.531352 -1.99381e-16)
(19.5025 0.192155 1.20186e-17)
(20.0057 -0.0876894 8.86225e-16)
(20.5336 -0.306316 -1.64858e-16)
(21.0802 -0.46108 1.58102e-16)
(21.6387 -0.549356 -1.21235e-16)
(22.2014 -0.568252 1.71706e-16)
(22.7567 -0.516204 -8.19948e-16)
(23.288 -0.39454 -2.91982e-16)
(23.7782 -0.209198 2.54676e-16)
(24.2155 0.0296318 -1.56322e-17)
(24.5931 0.311072 0)
(24.9064 0.624632 -9.33102e-18)
(25.1521 0.959546 5.64916e-17)
(25.3286 1.30488 -8.51614e-17)
(25.4355 1.65037 1.48285e-16)
(25.4727 1.98705 -5.58963e-16)
(25.4404 2.30564 5.80905e-16)
(25.3314 2.59843 -8.83957e-18)
(25.1455 2.84976 7.09019e-16)
(24.8301 3.04843 3.36323e-17)
(24.443 3.0761 -7.26342e-17)
(23.7204 2.92736 -5.28645e-15)
(20.341 11.9893 -8.64909e-18)
(20.8807 12.4761 0)
(21.5216 12.9729 0)
(22.2314 13.4437 1.41692e-17)