/*--------------------------------*- C++ -*----------------------------------*\
  =========                 |
  \\      /  F ield         | OpenFOAM: The Open Source CFD Toolbox
   \\    /   O peration     | Website:  https://openfoam.org
    \\  /    A nd           | Version:  13
     \\/     M anipulation  |
\*---------------------------------------------------------------------------*/
FoamFile
{
    format      ascii;
    class       volScalarField;
    location    "100";
    object      nut;
}
// * * * * * * * * * * * * * * * * * * * * * * * * * * * * * * * * * * * * * //

dimensions      [0 2 -1 0 0 0 0];

internalField   nonuniform List<scalar> 
10720
(
0.0890419
0.0934825
0.0984357
0.103769
0.109806
0.11655
0.124142
0.132467
0.141491
0.150907
0.1603
0.16924
0.177142
0.183355
0.187723
0.190394
0.191567
0.19152
0.190377
0.18833
0.185368
0.181572
0.176983
0.171819
0.166475
0.161224
0.156063
0.150862
0.145527
0.140054
0.134439
0.128651
0.122656
0.116405
0.109725
0.102504
0.0936803
0.0838537
0.0615133
0.0847926
0.080135
0.0750023
0.0685262
0.0606222
0.0506008
0.0391424
0.0365692
0.0347694
0.0423229
0.0491814
0.0546187
0.0592948
0.0636893
0.0680055
0.072282
0.0764731
0.0805155
0.0843588
0.0879996
0.0914641
0.0947907
0.0980151
0.101138
0.103967
0.106277
0.108044
0.109319
0.110165
0.110605
0.110726
0.11063
0.110303
0.109691
0.108712
0.107358
0.10518
0.102681
0.0930844
0.100264
0.0998481
0.0991345
0.0981413
0.0970712
0.0958466
0.0945395
0.0932852
0.0920628
0.0916605
0.092365
0.0939706
0.0962382
0.0994116
0.103547
0.108515
0.114264
0.120555
0.12724
0.133972
0.140619
0.146751
0.152052
0.155921
0.157849
0.157919
0.156546
0.154049
0.150751
0.146903
0.142696
0.138261
0.133701
0.129108
0.12459
0.120267
0.116319
0.11306
0.107897
0.100686
0.100787
0.101044
0.100823
0.100366
0.0995936
0.0982133
0.0957566
0.0928821
0.0891686
0.0851101
0.0810046
0.0769735
0.0730656
0.0694296
0.0661089
0.0631508
0.0605754
0.0583961
0.0565973
0.0551658
0.0540815
0.0533201
0.0528466
0.0526354
0.0526438
0.0528037
0.0530489
0.0533324
0.054037
0.0560481
0.0591347
0.0625908
0.0658616
0.0686785
0.0711279
0.0731633
0.0769674
0.0802894
0.121438
0.121272
0.120895
0.120312
0.119635
0.118757
0.117675
0.116445
0.115018
0.113421
0.111684
0.109826
0.107889
0.105975
0.104355
0.102972
0.101815
0.10091
0.10018
0.0995544
0.0996094
0.100408
0.10203
0.103812
0.109001
0.115636
0.122247
0.128113
0.132946
0.136633
0.139192
0.140736
0.141438
0.14148
0.141046
0.140212
0.139324
0.13735
0.137931
0.121581
0.12153
0.121506
0.121236
0.120767
0.120082
0.119107
0.117803
0.116167
0.114179
0.111826
0.109166
0.106253
0.103107
0.0998218
0.0964405
0.093025
0.0896206
0.0862795
0.0830164
0.0798568
0.0768134
0.0738844
0.070976
0.0680398
0.0651385
0.0623125
0.0596033
0.0570391
0.0546724
0.0525159
0.0514917
0.0518919
0.0533091
0.0553048
0.0577425
0.0604995
0.0635392
0.0686555
0.128567
0.128471
0.128276
0.127975
0.127608
0.127132
0.12654
0.125856
0.125046
0.124118
0.123069
0.121888
0.120567
0.119108
0.117549
0.115909
0.11397
0.111768
0.109304
0.10661
0.10371
0.100835
0.0982153
0.0959067
0.0944142
0.0939898
0.0945468
0.0978254
0.103359
0.109898
0.116772
0.123531
0.129863
0.135595
0.140711
0.145224
0.149479
0.152317
0.156198
0.128636
0.12863
0.128604
0.128467
0.128221
0.127857
0.127334
0.12662
0.125714
0.124591
0.123247
0.121693
0.119935
0.117964
0.115814
0.113498
0.111042
0.108474
0.105828
0.103123
0.100385
0.097624
0.0948336
0.091931
0.0888514
0.0856408
0.0823289
0.0789525
0.0755446
0.0721416
0.0687586
0.0654614
0.0623829
0.0596833
0.0573313
0.0567802
0.0575494
0.058698
0.0620161
0.132164
0.132095
0.131966
0.131771
0.131531
0.131221
0.130843
0.130405
0.129888
0.129295
0.128621
0.127855
0.12699
0.126018
0.124922
0.123695
0.12231
0.120735
0.11892
0.116835
0.114424
0.111687
0.108657
0.105451
0.102245
0.0992011
0.0963794
0.0941752
0.0930399
0.0930538
0.0962416
0.101747
0.10881
0.11697
0.125846
0.135155
0.144899
0.154716
0.16434
0.132207
0.1322
0.132174
0.132076
0.131911
0.131676
0.131346
0.130903
0.130348
0.129663
0.128842
0.12789
0.126806
0.125579
0.12422
0.122724
0.121102
0.119358
0.117508
0.115555
0.113513
0.111383
0.109157
0.106768
0.104156
0.101342
0.098342
0.0951782
0.0918726
0.0884482
0.0849293
0.081338
0.0777014
0.0740667
0.0704432
0.0669984
0.0639743
0.0612233
0.0606562
0.13422
0.134173
0.134087
0.133958
0.133799
0.133594
0.133342
0.133048
0.132702
0.132304
0.131851
0.131335
0.130751
0.130092
0.129346
0.128503
0.127546
0.126457
0.125201
0.123755
0.122071
0.120117
0.117848
0.115266
0.11244
0.109412
0.106226
0.102944
0.0997124
0.0966402
0.0943583
0.0932833
0.0949138
0.099698
0.107135
0.117148
0.129653
0.145463
0.162867
0.134241
0.134231
0.134204
0.134132
0.134013
0.13385
0.133626
0.13333
0.132961
0.132508
0.131967
0.131343
0.130633
0.129827
0.128934
0.127945
0.126862
0.125684
0.124416
0.123055
0.121605
0.12006
0.118409
0.116598
0.114575
0.112343
0.109902
0.107255
0.104408
0.101371
0.0981576
0.0947853
0.0912684
0.0876237
0.0838627
0.0799485
0.0759147
0.0714008
0.0654152
0.135518
0.135487
0.135427
0.135335
0.13522
0.135072
0.134891
0.134678
0.134428
0.134141
0.133814
0.133441
0.133018
0.132539
0.131995
0.131381
0.13068
0.129882
0.128967
0.127923
0.126723
0.125342
0.123745
0.121908
0.119847
0.117557
0.115006
0.112179
0.109076
0.105711
0.102219
0.0987653
0.0959281
0.0943668
0.096191
0.101808
0.11176
0.128772
0.152929
0.135523
0.135512
0.135488
0.135437
0.135348
0.135228
0.135067
0.134856
0.134596
0.134277
0.133899
0.133466
0.132975
0.13242
0.131804
0.131123
0.130374
0.129556
0.12867
0.127711
0.12668
0.125568
0.124363
0.123026
0.121513
0.119816
0.117928
0.115841
0.113547
0.111043
0.108327
0.105402
0.102273
0.0989423
0.0954121
0.091641
0.0875453
0.0830231
0.0744724
0.136392
0.136374
0.136333
0.136269
0.136186
0.136079
0.135947
0.135792
0.135609
0.135399
0.135161
0.134889
0.134582
0.134234
0.133839
0.133391
0.13288
0.132296
0.131623
0.130847
0.129946
0.128908
0.127712
0.126347
0.12482
0.123122
0.121213
0.119061
0.116627
0.113872
0.110772
0.107317
0.103594
0.0998038
0.0968065
0.0957316
0.0995204
0.111488
0.137541
0.13639
0.136384
0.136369
0.136337
0.136269
0.136176
0.136053
0.135894
0.1357
0.135464
0.135187
0.134872
0.134518
0.134119
0.133678
0.13319
0.132654
0.132067
0.13143
0.130737
0.129988
0.129174
0.128287
0.127295
0.126164
0.124887
0.12345
0.121843
0.120052
0.118064
0.115869
0.113458
0.110824
0.107957
0.104846
0.101452
0.09762
0.0935073
0.0846293
0.137017
0.137006
0.136978
0.136932
0.136872
0.136792
0.136693
0.136576
0.136437
0.136278
0.136097
0.13589
0.135656
0.135391
0.135091
0.134749
0.134358
0.133912
0.1334
0.132813
0.132135
0.131351
0.130446
0.129411
0.12825
0.126956
0.125502
0.123861
0.122
0.119878
0.117445
0.114647
0.111424
0.107725
0.103643
0.0995281
0.0968352
0.10017
0.121498
0.137018
0.137022
0.137019
0.136999
0.136946
0.13687
0.13677
0.136644
0.136491
0.136309
0.136098
0.13586
0.135594
0.135297
0.13497
0.13461
0.134214
0.133781
0.13331
0.132797
0.132239
0.131632
0.130966
0.130218
0.129363
0.128394
0.127298
0.126064
0.124676
0.123122
0.121384
0.119449
0.117302
0.114924
0.112293
0.109371
0.105971
0.102348
0.0941148
0.137495
0.137485
0.137464
0.137429
0.137384
0.137322
0.137246
0.137155
0.137049
0.136926
0.136786
0.136627
0.136447
0.136243
0.136011
0.135748
0.135448
0.135104
0.134708
0.134253
0.133726
0.133118
0.132417
0.131615
0.130715
0.129709
0.128576
0.127296
0.125843
0.124188
0.122291
0.120103
0.117556
0.114551
0.110972
0.106656
0.101816
0.0972467
0.109364
0.137504
0.137518
0.137522
0.137509
0.137465
0.1374
0.137316
0.137212
0.137088
0.136941
0.136774
0.136587
0.136381
0.136153
0.135903
0.135629
0.135329
0.135002
0.134645
0.134256
0.133832
0.133369
0.13286
0.132286
0.131629
0.130883
0.130038
0.129082
0.128003
0.126788
0.125419
0.123882
0.122158
0.120226
0.118057
0.115614
0.112703
0.109594
0.102357
0.13788
0.137868
0.13785
0.137821
0.137784
0.137734
0.137672
0.137599
0.137514
0.137416
0.137305
0.137179
0.137038
0.136877
0.136695
0.136488
0.136252
0.135981
0.135669
0.135311
0.134897
0.134419
0.133869
0.13324
0.132534
0.131743
0.130849
0.129836
0.128684
0.127369
0.125861
0.124126
0.122103
0.119749
0.11704
0.113557
0.109109
0.101437
0.103788
0.137897
0.137913
0.137919
0.137908
0.137869
0.137814
0.137743
0.137656
0.137553
0.137432
0.137295
0.137144
0.136979
0.136799
0.136603
0.136389
0.136156
0.135903
0.135627
0.135326
0.134998
0.134638
0.134241
0.133794
0.133281
0.132699
0.132037
0.131289
0.130442
0.129485
0.128403
0.127181
0.125802
0.124246
0.12248
0.120471
0.118036
0.115427
0.109264
0.138199
0.138186
0.138169
0.138143
0.13811
0.138067
0.138014
0.137953
0.137881
0.137801
0.137711
0.137609
0.137495
0.137367
0.137221
0.137056
0.136868
0.136652
0.136403
0.136117
0.135787
0.135406
0.134968
0.134468
0.133907
0.133277
0.132565
0.131757
0.130835
0.12978
0.128567
0.12717
0.125536
0.123631
0.121588
0.119086
0.116038
0.108723
0.104228
0.138217
0.138229
0.138231
0.13822
0.138186
0.13814
0.138081
0.138008
0.137922
0.137821
0.137707
0.137583
0.137448
0.137302
0.137144
0.136974
0.136789
0.136588
0.136371
0.136133
0.135875
0.135591
0.135277
0.134923
0.134517
0.134055
0.133532
0.132938
0.132266
0.131505
0.130643
0.129666
0.12856
0.127306
0.125874
0.124235
0.122223
0.120066
0.114928
0.138463
0.138451
0.138436
0.138412
0.138382
0.138343
0.138297
0.138243
0.138181
0.138113
0.138037
0.137952
0.137858
0.137753
0.137634
0.1375
0.137347
0.137172
0.136971
0.13674
0.136473
0.136167
0.135814
0.135413
0.134962
0.134456
0.133883
0.133232
0.13249
0.131638
0.130657
0.129523
0.128194
0.126632
0.124987
0.123098
0.121059
0.115971
0.108428
0.138473
0.138477
0.138472
0.138461
0.138433
0.138396
0.138348
0.138288
0.138217
0.138133
0.138038
0.137935
0.137823
0.137703
0.137574
0.137435
0.137286
0.137124
0.136949
0.136759
0.136552
0.136324
0.136072
0.135788
0.135462
0.135092
0.134672
0.134197
0.133657
0.133046
0.132353
0.131566
0.130674
0.129658
0.128495
0.127158
0.125504
0.123732
0.119515
0.138674
0.138667
0.138655
0.138634
0.138608
0.138574
0.138533
0.138485
0.138431
0.138372
0.138306
0.138234
0.138154
0.138066
0.137967
0.137855
0.137729
0.137585
0.13742
0.137231
0.137013
0.136763
0.136477
0.136151
0.135786
0.135375
0.13491
0.134381
0.133778
0.133086
0.132289
0.131364
0.130279
0.129026
0.127688
0.126174
0.124557
0.121586
0.113959
0.138673
0.138668
0.138659
0.13865
0.138626
0.138597
0.138559
0.138512
0.138453
0.138384
0.138306
0.13822
0.138127
0.138028
0.137921
0.137807
0.137684
0.137552
0.137409
0.137254
0.137085
0.1369
0.136696
0.136464
0.1362
0.1359
0.135559
0.135174
0.134737
0.134241
0.133679
0.133041
0.132315
0.131489
0.130539
0.129446
0.128087
0.126631
0.123201
0.138838
0.138837
0.13883
0.138814
0.138793
0.138764
0.138728
0.138687
0.13864
0.138588
0.138531
0.138469
0.1384
0.138324
0.13824
0.138146
0.13804
0.137919
0.137782
0.137625
0.137444
0.137239
0.137004
0.136737
0.136438
0.136102
0.135722
0.135289
0.134795
0.134229
0.133576
0.132817
0.131942
0.130973
0.129913
0.128696
0.127241
0.125482
0.119179
0.138827
0.138817
0.138809
0.138803
0.138784
0.13876
0.138729
0.138691
0.138643
0.138587
0.138522
0.138452
0.138375
0.138293
0.138204
0.13811
0.138008
0.137899
0.137781
0.137653
0.137514
0.137362
0.137193
0.137003
0.136786
0.13654
0.136261
0.135946
0.135588
0.135183
0.134724
0.134201
0.133607
0.13293
0.13215
0.131252
0.130133
0.128933
0.126157
0.138966
0.13897
0.138967
0.138956
0.13894
0.138917
0.138888
0.138854
0.138814
0.138769
0.13872
0.138666
0.138606
0.138541
0.138468
0.138387
0.138296
0.138194
0.138078
0.137946
0.137795
0.137623
0.137428
0.137208
0.136961
0.136685
0.136371
0.136014
0.135607
0.135141
0.134601
0.13398
0.133295
0.132561
0.131739
0.130785
0.129491
0.128251
0.123447
0.138951
0.138944
0.13894
0.138937
0.13892
0.138898
0.138871
0.138839
0.138799
0.138752
0.1387
0.138641
0.138578
0.13851
0.138437
0.138358
0.138274
0.138183
0.138085
0.137979
0.137864
0.137737
0.137597
0.137438
0.137258
0.137054
0.136824
0.136564
0.136269
0.135936
0.135557
0.135127
0.134637
0.134078
0.133435
0.132693
0.131768
0.130774
0.128529
0.139072
0.139078
0.139078
0.139071
0.139059
0.139041
0.139018
0.13899
0.138957
0.138919
0.138877
0.138831
0.138779
0.138722
0.13866
0.13859
0.138511
0.138423
0.138324
0.138211
0.138083
0.137938
0.137774
0.13759
0.137386
0.137156
0.136896
0.1366
0.136263
0.135875
0.135429
0.134935
0.134412
0.133855
0.133221
0.132484
0.131406
0.130385
0.126764
0.139062
0.139061
0.139064
0.139064
0.139046
0.139023
0.138997
0.138967
0.138932
0.138892
0.138847
0.138799
0.138746
0.13869
0.138629
0.138564
0.138494
0.138419
0.138337
0.138249
0.138152
0.138046
0.137928
0.137795
0.137644
0.137474
0.137282
0.137066
0.136821
0.136544
0.13623
0.135874
0.135467
0.135004
0.13447
0.133853
0.133086
0.132259
0.13044
0.139171
0.139175
0.139175
0.139169
0.139159
0.139145
0.139126
0.139103
0.139075
0.139044
0.139009
0.138969
0.138925
0.138876
0.138821
0.13876
0.138692
0.138616
0.13853
0.138433
0.138324
0.1382
0.138061
0.137906
0.137734
0.137542
0.137325
0.137078
0.136796
0.136473
0.136113
0.135734
0.135337
0.134912
0.134421
0.133851
0.132997
0.132129
0.129346
0.13917
0.139177
0.139185
0.139184
0.139165
0.139141
0.139114
0.139084
0.139051
0.139014
0.138974
0.138932
0.138888
0.138841
0.13879
0.138736
0.138678
0.138615
0.138547
0.138473
0.138392
0.138302
0.138203
0.138091
0.137963
0.13782
0.137659
0.137478
0.137273
0.137042
0.13678
0.136483
0.136144
0.135757
0.135312
0.134797
0.134159
0.133467
0.131989
0.139271
0.139271
0.139269
0.139261
0.139252
0.139238
0.139221
0.139201
0.139177
0.13915
0.13912
0.139086
0.139048
0.139006
0.138959
0.138906
0.138847
0.138781
0.138706
0.138622
0.138527
0.13842
0.138301
0.138168
0.138023
0.137861
0.137679
0.137472
0.137236
0.136972
0.136693
0.136407
0.136106
0.13578
0.135398
0.134954
0.134291
0.133577
0.131395
0.139279
0.139289
0.139296
0.139294
0.139275
0.139251
0.139223
0.139193
0.139161
0.139125
0.139088
0.13905
0.139011
0.13897
0.138927
0.138882
0.138833
0.13878
0.138723
0.138661
0.138592
0.138517
0.138432
0.138337
0.138229
0.138108
0.137972
0.13782
0.137648
0.137454
0.137234
0.136984
0.1367
0.136376
0.136003
0.135572
0.135038
0.134458
0.133253
0.13937
0.139366
0.139361
0.139352
0.13934
0.139326
0.139309
0.13929
0.139268
0.139244
0.139217
0.139188
0.139155
0.139118
0.139077
0.139031
0.13898
0.138922
0.138857
0.138783
0.1387
0.138607
0.138504
0.13839
0.138266
0.138128
0.137974
0.137801
0.137609
0.137405
0.137196
0.136982
0.136754
0.136503
0.136206
0.135857
0.135341
0.134774
0.133051
0.139381
0.139387
0.13939
0.139387
0.139371
0.139348
0.139322
0.139293
0.139261
0.139227
0.139192
0.139157
0.139121
0.139084
0.139047
0.139007
0.138966
0.138921
0.138873
0.13882
0.138762
0.138698
0.138626
0.138545
0.138453
0.13835
0.138235
0.138106
0.137961
0.137797
0.137611
0.137401
0.137162
0.136889
0.136574
0.136212
0.135763
0.135275
0.13429
0.139461
0.139456
0.13945
0.139439
0.139426
0.13941
0.139393
0.139374
0.139352
0.13933
0.139305
0.139278
0.139249
0.139216
0.13918
0.13914
0.139095
0.139044
0.138987
0.138923
0.13885
0.138769
0.138678
0.138579
0.138472
0.138356
0.138228
0.138089
0.137942
0.137792
0.137639
0.13748
0.137308
0.137114
0.136883
0.136609
0.136203
0.135761
0.134401
0.139467
0.139466
0.139464
0.139462
0.139449
0.13943
0.139407
0.139381
0.139351
0.13932
0.139287
0.139253
0.13922
0.139186
0.139153
0.139118
0.139081
0.139043
0.139002
0.138956
0.138907
0.138852
0.138791
0.138721
0.138643
0.138555
0.138457
0.138347
0.138224
0.138085
0.137928
0.13775
0.137547
0.137316
0.137051
0.136744
0.136367
0.135955
0.135146
0.139536
0.139533
0.139527
0.139516
0.139503
0.139488
0.13947
0.139451
0.139431
0.139409
0.139386
0.139361
0.139334
0.139304
0.139272
0.139237
0.139197
0.139152
0.139102
0.139045
0.138981
0.13891
0.13883
0.138745
0.138654
0.138558
0.138456
0.138351
0.138244
0.138137
0.138027
0.137911
0.137783
0.137636
0.137458
0.137243
0.136923
0.13658
0.13551
0.139535
0.139529
0.139524
0.139522
0.139512
0.139496
0.139477
0.139455
0.139429
0.139401
0.139371
0.13934
0.13931
0.139279
0.139248
0.139216
0.139184
0.13915
0.139114
0.139075
0.139032
0.138985
0.138932
0.138872
0.138805
0.13873
0.138646
0.138552
0.138447
0.138329
0.138195
0.138044
0.137872
0.137675
0.13745
0.137191
0.136871
0.136524
0.135857
0.139594
0.139594
0.13959
0.139581
0.13957
0.139556
0.13954
0.139522
0.139502
0.139482
0.13946
0.139436
0.139411
0.139384
0.139355
0.139322
0.139287
0.139247
0.139203
0.139153
0.139096
0.139033
0.138964
0.138892
0.138817
0.138742
0.138665
0.138588
0.138513
0.138437
0.138359
0.138276
0.138183
0.138075
0.137941
0.137777
0.137527
0.137262
0.136423
0.139588
0.139581
0.139577
0.139574
0.139565
0.139552
0.139536
0.139517
0.139495
0.139471
0.139444
0.139417
0.139389
0.139361
0.139333
0.139305
0.139276
0.139246
0.139214
0.139179
0.139142
0.139101
0.139055
0.139003
0.138944
0.13888
0.138807
0.138727
0.138637
0.138536
0.138422
0.138293
0.138146
0.137979
0.137787
0.137566
0.137294
0.137003
0.136451
0.139641
0.139643
0.139641
0.139634
0.139625
0.139613
0.139599
0.139583
0.139566
0.139547
0.139526
0.139504
0.139481
0.139456
0.139429
0.1394
0.139368
0.139332
0.139292
0.139247
0.139198
0.139142
0.139083
0.139023
0.138965
0.138908
0.138851
0.138795
0.138741
0.138688
0.138633
0.138575
0.13851
0.138433
0.138336
0.138217
0.138027
0.137829
0.137177
0.139636
0.139634
0.139631
0.139626
0.139615
0.139602
0.139587
0.139571
0.139552
0.139531
0.139508
0.139484
0.13946
0.139435
0.13941
0.139384
0.139358
0.139331
0.139303
0.139272
0.139239
0.139203
0.139162
0.139117
0.139066
0.139009
0.138947
0.138878
0.1388
0.138713
0.138615
0.138505
0.138379
0.138236
0.138072
0.137884
0.137651
0.137409
0.136954
0.139685
0.139687
0.139685
0.13968
0.139672
0.139663
0.139651
0.139637
0.139621
0.139604
0.139585
0.139565
0.139544
0.139521
0.139496
0.139469
0.13944
0.139408
0.139372
0.139332
0.139287
0.139239
0.139189
0.139141
0.139096
0.139053
0.139012
0.138971
0.138932
0.138893
0.138854
0.138813
0.138768
0.138717
0.13865
0.138568
0.13843
0.13829
0.137793
0.139686
0.139689
0.139688
0.139679
0.139666
0.139652
0.139636
0.13962
0.139603
0.139584
0.139564
0.139543
0.139521
0.139499
0.139477
0.139455
0.139431
0.139407
0.139382
0.139355
0.139325
0.139293
0.139257
0.139217
0.139172
0.139123
0.139069
0.139008
0.138941
0.138866
0.138782
0.138686
0.138578
0.138455
0.138314
0.138154
0.137952
0.137756
0.137381
0.139733
0.139732
0.139729
0.139723
0.139716
0.139707
0.139696
0.139684
0.13967
0.139655
0.139638
0.13962
0.139601
0.13958
0.139557
0.139533
0.139506
0.139477
0.139444
0.139408
0.139368
0.139326
0.139283
0.139245
0.13921
0.139179
0.139148
0.139118
0.139089
0.13906
0.139031
0.139002
0.138971
0.138937
0.138893
0.13884
0.138745
0.138654
0.138287
0.13974
0.139744
0.139742
0.139732
0.139718
0.139701
0.139685
0.139668
0.139651
0.139633
0.139614
0.139595
0.139576
0.139557
0.139537
0.139517
0.139497
0.139475
0.139453
0.139429
0.139403
0.139374
0.139342
0.139306
0.139267
0.139223
0.139175
0.139122
0.139064
0.138999
0.138925
0.138843
0.138749
0.138643
0.138522
0.138384
0.13821
0.138051
0.137743
0.139782
0.139779
0.139774
0.139767
0.13976
0.13975
0.13974
0.139728
0.139715
0.139701
0.139686
0.13967
0.139652
0.139633
0.139613
0.13959
0.139566
0.13954
0.13951
0.139477
0.139441
0.139403
0.139367
0.139335
0.139308
0.139284
0.139262
0.13924
0.139218
0.139197
0.139176
0.139154
0.139132
0.139108
0.13908
0.139047
0.138985
0.138932
0.13867
0.139791
0.139795
0.139791
0.13978
0.139766
0.139749
0.139732
0.139715
0.139698
0.13968
0.139662
0.139644
0.139626
0.139609
0.139591
0.139573
0.139555
0.139536
0.139516
0.139495
0.139472
0.139446
0.139418
0.139386
0.13935
0.139312
0.139269
0.139223
0.139171
0.139114
0.13905
0.138978
0.138897
0.138805
0.1387
0.138581
0.13843
0.138303
0.13805
0.139829
0.139824
0.139819
0.139811
0.139802
0.139792
0.139781
0.13977
0.139757
0.139744
0.13973
0.139715
0.139699
0.139682
0.139663
0.139643
0.139621
0.139597
0.13957
0.13954
0.139507
0.139474
0.139441
0.139414
0.139392
0.139374
0.139357
0.139341
0.139325
0.139309
0.139293
0.139277
0.13926
0.139244
0.139225
0.139205
0.139165
0.13914
0.138959
0.139836
0.139838
0.139832
0.139821
0.139808
0.139793
0.139776
0.139759
0.139742
0.139724
0.139706
0.139689
0.139672
0.139656
0.13964
0.139624
0.139607
0.139591
0.139573
0.139554
0.139533
0.13951
0.139485
0.139457
0.139425
0.13939
0.139353
0.139311
0.139266
0.139215
0.139159
0.139096
0.139025
0.138945
0.138854
0.13875
0.13862
0.138517
0.138309
0.139869
0.139865
0.139859
0.139851
0.139842
0.139832
0.139821
0.13981
0.139798
0.139786
0.139773
0.139759
0.139744
0.139728
0.139711
0.139692
0.139672
0.13965
0.139626
0.139598
0.139568
0.139537
0.139508
0.139484
0.139465
0.13945
0.139436
0.139424
0.139412
0.139401
0.139389
0.139377
0.139365
0.139353
0.13934
0.139327
0.139302
0.139294
0.139172
0.139873
0.139873
0.139867
0.139856
0.139844
0.13983
0.139815
0.139799
0.139783
0.139766
0.139749
0.139732
0.139716
0.1397
0.139685
0.13967
0.139655
0.13964
0.139624
0.139607
0.139589
0.139568
0.139546
0.13952
0.139491
0.13946
0.139427
0.13939
0.139349
0.139305
0.139255
0.1392
0.139137
0.139067
0.138987
0.138897
0.138784
0.1387
0.138527
0.139902
0.139899
0.139894
0.139886
0.139878
0.139869
0.139858
0.139848
0.139837
0.139825
0.139813
0.1398
0.139786
0.139772
0.139756
0.139739
0.13972
0.1397
0.139677
0.139652
0.139625
0.139596
0.139568
0.139546
0.139529
0.139515
0.139504
0.139494
0.139485
0.139477
0.139468
0.139459
0.139451
0.139442
0.139433
0.139425
0.139408
0.139411
0.139327
0.139905
0.139904
0.139899
0.139887
0.139876
0.139863
0.13985
0.139835
0.13982
0.139804
0.139787
0.139772
0.139756
0.139741
0.139727
0.139713
0.139699
0.139685
0.13967
0.139655
0.139639
0.13962
0.1396
0.139577
0.139551
0.139523
0.139493
0.13946
0.139424
0.139384
0.13934
0.139291
0.139236
0.139174
0.139104
0.139024
0.138926
0.138856
0.138712
0.139931
0.139929
0.139924
0.139917
0.13991
0.139902
0.139892
0.139883
0.139873
0.139863
0.139851
0.139839
0.139827
0.139813
0.139798
0.139782
0.139765
0.139746
0.139726
0.139703
0.139677
0.13965
0.139623
0.139601
0.139585
0.139572
0.139562
0.139554
0.139546
0.13954
0.139533
0.139527
0.139521
0.139515
0.139509
0.139504
0.139493
0.139501
0.139441
0.139934
0.139935
0.13993
0.139917
0.139906
0.139894
0.139881
0.139867
0.139853
0.139838
0.139823
0.139808
0.139793
0.139779
0.139766
0.139752
0.139739
0.139726
0.139713
0.139699
0.139684
0.139667
0.139649
0.139628
0.139605
0.13958
0.139552
0.139522
0.13949
0.139454
0.139415
0.139371
0.139322
0.139267
0.139206
0.139136
0.13905
0.13899
0.138868
0.139959
0.139956
0.139951
0.139945
0.139939
0.139931
0.139924
0.139916
0.139907
0.139898
0.139888
0.139877
0.139865
0.139852
0.139839
0.139824
0.139807
0.13979
0.139771
0.13975
0.139726
0.1397
0.139674
0.139652
0.139635
0.139623
0.139613
0.139605
0.139599
0.139594
0.139589
0.139584
0.13958
0.139576
0.139571
0.139569
0.139561
0.139572
0.139526
0.139963
0.139965
0.13996
0.139947
0.139935
0.139923
0.13991
0.139897
0.139883
0.139869
0.139855
0.139841
0.139828
0.139814
0.139801
0.139789
0.139777
0.139764
0.139752
0.139739
0.139725
0.13971
0.139693
0.139674
0.139653
0.13963
0.139606
0.139579
0.139549
0.139517
0.139482
0.139442
0.139399
0.13935
0.139296
0.139234
0.139157
0.139104
0.139001
0.139986
0.139982
0.139977
0.139972
0.139966
0.13996
0.139953
0.139947
0.139939
0.139931
0.139922
0.139912
0.139901
0.139889
0.139876
0.139862
0.139847
0.139831
0.139813
0.139793
0.139772
0.139748
0.139722
0.139699
0.139681
0.139668
0.139658
0.13965
0.139645
0.13964
0.139636
0.139632
0.139629
0.139626
0.139623
0.139623
0.139617
0.13963
0.13959
0.139992
0.139994
0.139988
0.139975
0.139962
0.13995
0.139938
0.139925
0.139912
0.139898
0.139885
0.139872
0.139859
0.139846
0.139834
0.139822
0.139811
0.139799
0.139788
0.139776
0.139763
0.139749
0.139734
0.139716
0.139697
0.139676
0.139654
0.139629
0.139602
0.139573
0.139541
0.139506
0.139467
0.139423
0.139375
0.139321
0.139252
0.139204
0.139115
0.140013
0.140008
0.140003
0.139997
0.139992
0.139987
0.139982
0.139977
0.13997
0.139963
0.139955
0.139945
0.139935
0.139924
0.139911
0.139898
0.139884
0.139868
0.139852
0.139834
0.139814
0.139792
0.139768
0.139744
0.139723
0.139709
0.139698
0.13969
0.139684
0.13968
0.139676
0.139673
0.139671
0.139669
0.139667
0.139668
0.139664
0.139678
0.139637
0.140018
0.140019
0.140013
0.14
0.139988
0.139976
0.139964
0.139951
0.139938
0.139925
0.139912
0.139899
0.139887
0.139875
0.139864
0.139853
0.139842
0.139831
0.13982
0.139809
0.139797
0.139784
0.13977
0.139754
0.139737
0.139718
0.139697
0.139675
0.13965
0.139624
0.139595
0.139563
0.139528
0.139489
0.139445
0.139397
0.139336
0.139291
0.139213
0.140037
0.140032
0.140027
0.140022
0.140017
0.140014
0.14001
0.140005
0.14
0.139993
0.139985
0.139976
0.139966
0.139955
0.139944
0.139932
0.139918
0.139904
0.139888
0.139871
0.139853
0.139833
0.139811
0.139787
0.139765
0.139748
0.139735
0.139726
0.13972
0.139715
0.139711
0.139709
0.139707
0.139706
0.139705
0.139706
0.139703
0.139718
0.139672
0.14004
0.140041
0.140034
0.140021
0.14001
0.139999
0.139987
0.139975
0.139962
0.13995
0.139937
0.139925
0.139913
0.139902
0.139891
0.139881
0.139871
0.139861
0.13985
0.13984
0.139829
0.139817
0.139804
0.139789
0.139773
0.139755
0.139736
0.139716
0.139693
0.139669
0.139643
0.139614
0.139583
0.139547
0.139508
0.139466
0.139411
0.139368
0.139299
0.140057
0.140053
0.140048
0.140044
0.140041
0.140039
0.140036
0.140032
0.140027
0.14002
0.140013
0.140004
0.139995
0.139985
0.139975
0.139963
0.139951
0.139937
0.139923
0.139907
0.139889
0.139871
0.139851
0.139829
0.139806
0.139786
0.139771
0.13976
0.139752
0.139746
0.139743
0.13974
0.139738
0.139737
0.139737
0.139738
0.139736
0.139753
0.139705
0.140059
0.14006
0.140054
0.14004
0.140029
0.140019
0.140009
0.139997
0.139985
0.139972
0.13996
0.139948
0.139937
0.139926
0.139916
0.139906
0.139897
0.139887
0.139878
0.139868
0.139857
0.139846
0.139834
0.13982
0.139805
0.139789
0.139772
0.139753
0.139733
0.139711
0.139687
0.13966
0.139632
0.1396
0.139565
0.139527
0.139478
0.139437
0.139374
0.140075
0.140072
0.140067
0.140064
0.140063
0.140062
0.14006
0.140057
0.140052
0.140046
0.140039
0.140032
0.140023
0.140014
0.140004
0.139993
0.139982
0.139969
0.139955
0.13994
0.139924
0.139907
0.139889
0.139869
0.139847
0.139825
0.139806
0.139792
0.139782
0.139775
0.139771
0.139768
0.139766
0.139765
0.139764
0.139766
0.139764
0.139781
0.139736
0.140077
0.140078
0.140072
0.140058
0.140047
0.140038
0.140028
0.140017
0.140005
0.139993
0.139981
0.13997
0.139959
0.139949
0.139939
0.13993
0.139921
0.139912
0.139903
0.139893
0.139884
0.139873
0.139862
0.139849
0.139835
0.13982
0.139804
0.139787
0.139768
0.139748
0.139726
0.139702
0.139676
0.139647
0.139615
0.139581
0.139538
0.139499
0.139441
0.140092
0.140088
0.140084
0.140083
0.140084
0.140084
0.140082
0.140079
0.140075
0.14007
0.140064
0.140057
0.14005
0.140042
0.140032
0.140022
0.140011
0.139999
0.139986
0.139972
0.139957
0.139941
0.139923
0.139906
0.139886
0.139865
0.139843
0.139825
0.139811
0.139802
0.139796
0.139792
0.13979
0.139789
0.139788
0.13979
0.139788
0.139806
0.139764
0.140094
0.140096
0.14009
0.140076
0.140064
0.140055
0.140045
0.140035
0.140023
0.140012
0.14
0.139989
0.139979
0.139969
0.13996
0.139951
0.139942
0.139934
0.139925
0.139917
0.139907
0.139898
0.139887
0.139875
0.139862
0.139848
0.139833
0.139817
0.1398
0.139782
0.139762
0.13974
0.139716
0.13969
0.139661
0.13963
0.139592
0.139554
0.139502
0.140108
0.140104
0.1401
0.140101
0.140104
0.140104
0.140102
0.1401
0.140096
0.140092
0.140088
0.140082
0.140075
0.140068
0.140059
0.14005
0.140039
0.140028
0.140016
0.140002
0.139988
0.139973
0.139956
0.13994
0.139922
0.139903
0.139881
0.139859
0.139841
0.139829
0.13982
0.139815
0.139812
0.13981
0.139809
0.139811
0.139809
0.139826
0.13979
0.140111
0.140114
0.140107
0.140092
0.140081
0.140072
0.140062
0.140051
0.14004
0.140029
0.140018
0.140007
0.139997
0.139988
0.139979
0.13997
0.139962
0.139954
0.139946
0.139938
0.139929
0.13992
0.13991
0.139899
0.139887
0.139874
0.13986
0.139845
0.139829
0.139812
0.139794
0.139774
0.139752
0.139728
0.139702
0.139674
0.13964
0.139605
0.139557
0.140124
0.140119
0.140116
0.14012
0.140122
0.140122
0.140121
0.140119
0.140117
0.140114
0.14011
0.140105
0.140099
0.140092
0.140084
0.140076
0.140066
0.140055
0.140044
0.140031
0.140018
0.140003
0.139988
0.139972
0.139956
0.139938
0.139919
0.139897
0.139874
0.139856
0.139844
0.139836
0.139831
0.139829
0.139828
0.13983
0.139827
0.139843
0.139812
0.140126
0.140129
0.140123
0.140108
0.140097
0.140088
0.140078
0.140067
0.140056
0.140044
0.140034
0.140023
0.140014
0.140005
0.139996
0.139988
0.13998
0.139973
0.139965
0.139957
0.139949
0.13994
0.139931
0.13992
0.139909
0.139896
0.139884
0.13987
0.139855
0.13984
0.139823
0.139804
0.139785
0.139763
0.139739
0.139713
0.139683
0.139652
0.139607
0.140138
0.140133
0.140131
0.140138
0.140139
0.140138
0.140139
0.140138
0.140136
0.140134
0.14013
0.140126
0.140121
0.140115
0.140108
0.1401
0.140091
0.140081
0.140071
0.140059
0.140046
0.140032
0.140018
0.140002
0.139987
0.139971
0.139954
0.139934
0.139911
0.139888
0.139869
0.139857
0.139849
0.139846
0.139844
0.139845
0.139842
0.139857
0.139832
0.14014
0.140142
0.140136
0.140121
0.140111
0.140103
0.140092
0.140081
0.14007
0.140059
0.140049
0.140039
0.140029
0.140021
0.140012
0.140004
0.139997
0.139989
0.139982
0.139974
0.139966
0.139958
0.139949
0.139939
0.139928
0.139917
0.139905
0.139892
0.139879
0.139864
0.139849
0.139832
0.139814
0.139794
0.139773
0.139749
0.139722
0.139693
0.139652
0.14015
0.140146
0.140146
0.140153
0.140153
0.140153
0.140155
0.140155
0.140154
0.140152
0.14015
0.140146
0.140141
0.140136
0.14013
0.140123
0.140115
0.140106
0.140096
0.140085
0.140073
0.140061
0.140047
0.140032
0.140017
0.140002
0.139985
0.139968
0.139947
0.139925
0.139901
0.139881
0.139867
0.139861
0.139858
0.139859
0.139855
0.139869
0.139848
0.140151
0.140151
0.140146
0.140132
0.140123
0.140115
0.140105
0.140094
0.140083
0.140072
0.140062
0.140052
0.140043
0.140035
0.140027
0.140019
0.140011
0.140004
0.139997
0.13999
0.139982
0.139974
0.139965
0.139956
0.139946
0.139935
0.139924
0.139912
0.139899
0.139886
0.139872
0.139856
0.13984
0.139822
0.139802
0.139781
0.139756
0.139731
0.139694
0.140158
0.140156
0.140158
0.140162
0.140164