/*--------------------------------*- C++ -*----------------------------------*\
  =========                 |
  \\      /  F ield         | OpenFOAM: The Open Source CFD Toolbox
   \\    /   O peration     | Website:  https://openfoam.org
    \\  /    A nd           | Version:  13
     \\/     M anipulation  |
\*---------------------------------------------------------------------------*/
FoamFile
{
    format      ascii;
    class       volScalarField;
    location    "100";
    object      p;
}
// * * * * * * * * * * * * * * * * * * * * * * * * * * * * * * * * * * * * * //

dimensions      [0 2 -2 0 0 0 0];

internalField   nonuniform List<scalar> 
10720
(
-44.8113
-115.62
-199.325
-282.052
-359.035
-437.844
-508.094
-567.609
-619.781
-661.105
-693.343
-717.757
-734.762
-745.468
-750.6
-749.749
-743.696
-731.109
-713.08
-688.281
-657.707
-620.592
-579.104
-534.138
-489.095
-448.895
-412.591
-376.753
-341.115
-305.901
-270.947
-236.129
-201.348
-166.397
-131.044
-94.2512
-55.7616
-10.0094
35.0413
25.9685
90.0782
158.004
220.992
274.211
313.496
335.336
341.813
337.524
322.591
300.521
276.236
251.993
228.793
207.311
187.215
168.507
150.728
133.61
116.622
99.7173
82.5642
65.2662
48.2405
33.4525
21.9886
12.7355
5.28543
-0.359745
-4.15049
-6.18783
-6.581
-5.41712
-2.69878
1.5766
7.82104
16.5669
31.559
56.563
52.5099
-1.28245
-61.6579
-125.989
-192.283
-260.337
-326.653
-389.137
-447.102
-498.774
-543.766
-581.91
-613.258
-637.978
-655.938
-666.831
-671.096
-668.344
-659.111
-642.808
-619.965
-590.319
-555.489
-516.585
-476.591
-439.672
-405.412
-371.146
-336.719
-302.445
-268.25
-234.045
-199.759
-165.201
-130.151
-93.5914
-55.2792
-9.61051
34.7309
100.808
146.772
192.425
236.208
274.428
304.437
323.301
330.676
327.725
315.826
298.032
277.378
255.677
234.013
213.127
193.162
174.199
156.047
138.504
121.221
104.096
86.9083
69.7463
53.0342
38.2983
26.4684
16.7761
8.87669
2.78938
-1.43484
-3.87059
-4.62348
-3.78152
-1.34748
2.6912
8.75013
17.3526
32.2561
56.2627
66.0925
17.9895
-36.2364
-96.1087
-158.385
-222.443
-286.666
-348.458
-406.276
-459.074
-505.61
-545.504
-578.625
-604.778
-623.989
-636.453
-642.464
-641.803
-634.634
-620.728
-600.368
-573.605
-541.659
-505.779
-468.441
-433.063
-399.776
-366.52
-332.995
-299.475
-265.915
-232.23
-198.362
-164.137
-129.347
-92.9915
-54.8463
-9.35252
34.5454
109.38
151.258
192.675
231.707
265.139
291.346
308.413
316.186
315.213
306.415
291.934
273.946
254.142
233.734
213.567
194.025
175.261
157.224
139.763
122.62
105.655
88.7167
71.8726
55.5078
40.8302
28.751
18.8292
10.7327
4.45907
0.0508699
-2.55963
-3.47702
-2.78688
-0.490314
3.43402
9.40304
17.9383
32.7206
55.7658
85.5397
45.0001
-1.32353
-52.3688
-106.094
-162.464
-219.843
-276.455
-331.01
-382.355
-429.35
-471.304
-507.717
-538.219
-562.535
-580.646
-592.43
-597.545
-595.898
-587.357
-572.075
-550.242
-522.838
-491.15
-457.316
-424.262
-392.571
-360.733
-328.393
-295.832
-263.065
-230.031
-196.691
-162.888
-128.429
-92.3423
-54.4252
-9.2223
34.2247
121.782
156.495
191.126
224.34
253.167
276.321
292.189
300.33
300.955
294.734
283.23
268.115
250.786
232.346
213.611
195.047
176.895
159.223
141.971
124.981
108.145
91.3805
74.7581
58.6382
44.0103
31.7331
21.5797
13.2433
6.71382
2.03849
-0.838604
-2.00906
-1.54895
0.545583
4.30328
10.1398
18.565
33.1515
55.2451
90.9211
54.9208
13.5788
-32.2446
-80.5994
-131.899
-184.769
-237.63
-289.491
-339.199
-385.621
-427.956
-465.518
-497.754
-524.239
-544.735
-558.87
-566.502
-567.456
-561.704
-549.348
-530.65
-506.414
-477.858
-446.824
-415.754
-385.445
-354.839
-323.573
-291.917
-259.931
-227.565
-194.786
-161.451
-127.376
-91.6143
-53.9903
-9.17656
33.6678
123.178
153.908
184.664
214.199
239.893
260.847
275.811
284.22
286.107
282.026
273.1
260.609
245.659
229.201
212.002
194.56
177.188
160.047
143.164
126.469
109.897
93.4105
77.093
61.2779
46.7833
34.3942
24.0537
15.5145
8.76809
3.86503
0.763482
-0.618518
-0.351056
1.57092
5.18168
10.8951
19.2049
33.5658
54.692
93.5307
61.5909
24.7323
-16.1114
-59.2173
-105.29
-153.064
-201.275
-249.2
-295.795
-340.088
-381.316
-418.732
-451.687
-479.66
-502.234
-519.005
-529.75
-534.181
-532.127
-523.576
-508.74
-488.267
-463.265
-435.336
-406.543
-377.837
-348.584
-318.479
-287.786
-256.612
-224.936
-192.741
-159.897
-126.233
-90.8374
-53.5621
-9.24226
32.8823
122.159
149.335
176.731
203.228
226.414
245.625
259.841
268.404
271.249
268.866
262.089
251.911
239.201
224.748
209.23
193.125
176.769
160.38
144.051
127.789
111.579
95.4292
79.4399
63.9271
49.584
37.1234
26.6192
17.8939
10.94
5.81081
2.47882
0.872454
0.929788
2.661
6.10734
11.68
19.8539
33.9444
54.0868
92.773
63.9581
30.6167
-6.34905
-45.2813
-87.1052
-130.689
-174.932
-219.349
-263.009
-305.076
-344.863
-381.61
-414.635
-443.351
-467.232
-485.795
-498.646
-505.447
-505.978
-500.211
-488.347
-470.932
-448.948
-423.774
-397.13
-370.009
-342.103
-313.175
-283.469
-253.131
-222.168
-190.576
-158.245
-125.019
-90.0234
-53.1511
-9.43004
31.8797
118.631
143.105
167.913
192.019
213.206
231.01
244.576
253.185
256.749
255.701
250.688
242.491
231.799
219.247
205.412
190.717
175.495
159.992
144.35
128.634
112.88
97.1389
81.5278
66.349
52.202
39.7349
29.115
20.2358
13.0972
7.75716
4.20422
2.37991
2.23093
3.77295
7.05336
12.4783
20.5017
34.2788
53.4354
90.4719
64.2975
33.9514
0.333619
-34.974
-73.019
-112.762
-153.245
-194.151
-234.687
-274.13
-311.906
-347.314
-379.69
-408.421
-432.935
-452.674
-467.196
-476.131
-479.181
-476.219
-467.364
-453.039
-434.079
-411.665
-387.243
-361.804
-335.31
-307.611
-278.939
-249.475
-219.256
-188.297
-156.504
-123.742
-89.1778
-52.7581
-9.73335
30.6723
113.998
136.219
158.873
180.997
200.522
217.156
230.13
238.702
242.797
242.789
239.202
232.676
223.757
212.954
200.743
187.482
173.474
158.969
144.135
129.077
113.875
98.6123
83.4278
68.612
54.6988
42.2789
31.5849
22.579
15.2754
9.73782
5.97126
3.93167
3.57478
4.92288
8.02962
13.2947
21.1484
34.5683
52.7429
87.1062
63.1344
35.31
4.51228
-27.7293
-62.5229
-98.9264
-136.075
-173.791
-211.383
-248.244
-283.911
-317.747
-349.133
-377.476
-402.177
-422.646
-438.389
-448.968
-454.028
-453.366
-447.055
-435.427
-419.186
-399.331
-377.059
-353.312
-328.246
-301.8
-274.196
-245.641
-216.201
-185.905
-154.678
-122.407
-88.3061
-52.3802
-10.1392
29.2837
108.687
129.042
149.9
170.356
188.476
204.111
216.538
225.015
229.488
230.284
227.847
222.712
215.324
206.091
195.399
183.539
170.772
157.331
143.389
129.078
114.507
99.7919
85.0838
70.6681
57.0298
44.7121
33.9911
24.8923
17.4487
11.7317
7.76285
5.51386
4.95072
6.10295
9.03067
14.1247
21.7902
34.8114
52.0098
83.1665
61.0817
35.4304
7.07381
-22.5147
-54.4666
-87.9055
-122.05
-156.824
-191.616
-225.932
-259.396
-291.448
-321.544
-349.123
-373.587
-394.352
-410.887
-422.725
-429.482
-430.869
-426.891
-417.777
-404.101
-386.695
-366.543
-344.514
-320.904
-295.739
-269.238
-241.625
-212.996
-183.396
-152.768
-121.018
-87.4134
-52.017
-10.6375
27.745
103.084
121.85
141.174
160.2
177.112
191.867
203.788
212.127
216.857
218.273
216.758
212.772
206.69
198.843
189.543
179.015
167.477
155.131
142.14
128.647
114.78
100.672
86.4908
72.5135
59.191
47.028
36.3278
27.171
19.6137
13.7366
9.57785
7.12622
6.35894
7.31318
10.056
14.9672
22.4251
35.0079
51.2379
78.915
58.4616
34.6958
8.45971
-18.8181
-48.2815
-79.1057
-110.579
-142.683
-174.886
-206.784
-238.088
-268.303
-296.957
-323.542
-347.496
-368.239
-385.237
-397.983
-406.091
-409.188
-407.22
-400.339
-388.994
-373.866
-355.756
-335.44
-313.299
-289.434
-264.064
-237.425
-209.638
-180.767
-150.77
-119.575
-86.5035
-51.6723
-11.2222
26.0805
97.3946
114.791
132.787
150.571
166.428
180.4
191.839
200.013
204.908
206.798
206.019
202.979
198.004
191.365
183.317
174.031
163.679
152.426
140.418
127.791
114.684
101.24
87.6312
74.1306
61.1651
49.2078
38.577
29.3997
21.7575
15.7421
11.4085
8.76292
7.79536
8.5506
11.1032
15.8198
23.0506
35.1583
50.4305
74.5361
55.5131
33.4045
9.0335
-16.2165
-43.4819
-71.9817
-101.059
-130.743
-160.563
-190.186
-219.394
-247.763
-274.892
-300.324
-323.539
-343.994
-361.158
-374.511
-383.661
-388.19
-387.974
-383.089
-373.874
-360.874
-344.726
-326.107
-305.44
-282.891
-258.675
-233.04
-206.127
-178.016
-148.683
-118.078
-85.5785
-51.3507
-11.8912
24.3072
91.7585
107.959
124.79
141.472
156.403
169.666
180.645
188.637
193.625
195.872
195.681
193.418
189.375
183.78
176.845
168.697
159.465
149.28
138.26
126.53
114.225
101.49
88.4962
75.5108
62.9423
51.2388
40.7255
31.5667
23.8703
17.7405
13.2488
10.4196
9.25677
9.81273
12.17
16.6801
23.6644
35.2636
49.5905
70.1503
52.3902
31.7512
9.03334
-14.4217
-39.7344
-66.162
-93.0894
-120.585
-148.228
-175.736
-202.955
-229.52
-255.095
-279.284
-301.615
-321.583
-338.679
-352.383
-362.3
-367.991
-369.261
-366.125
-358.826
-347.784
-333.499
-316.542
-297.346
-276.118
-253.077
-228.471
-202.461
-175.141
-146.506
-116.526
-84.6397
-51.0559
-12.642
22.4345
86.2568
101.406
117.199
132.9
147.003
159.62
170.16
177.954
182.98
185.493
185.77
184.144
180.882
176.185
170.229
163.11
154.921
145.758
135.714
124.891
113.413
101.421
89.0785
76.6446
64.5116
53.1075
42.7589
33.6589
25.9404
19.722
15.091
12.0904
10.7388
11.0963
13.2537
17.5458
24.2643
35.3247
48.7215
65.835
49.2007
29.8762
8.63592
-13.2178
-36.7848
-61.3567
-86.3498
-111.865
-137.519
-163.072
-188.418
-213.248
-237.282
-260.184
-281.534
-300.864
-317.7
-331.537
-341.974
-348.583
-351.099
-349.482
-343.893
-334.646
-322.117
-306.775
-289.032
-269.125
-247.273
-223.719
-198.639
-172.141
-144.237
-114.918
-83.6867
-50.7908
-13.471
20.4702
80.9444
95.1547
110.02
124.837
138.193
150.212
160.335
167.921
172.944
175.652
176.298
175.193
172.585
168.656
163.556
157.357
150.125
141.928
132.828
122.905
112.266
101.038
89.3771
77.5267
65.8647
54.8027
44.6643
35.6636
27.9567
21.6769
16.9274
13.7693
12.2368
12.3975
14.3512
18.4141
24.848
35.3437
47.827
61.6397
46.0187
27.8774
7.96769
-12.4493
-34.4482
-57.347
-80.5967
-104.314
-128.149
-151.9
-175.498
-198.68
-221.219
-242.825
-263.134
-281.722
-298.15
-311.942
-322.693
-329.998
-333.534
-333.217
-329.137
-321.517
-310.628
-296.836
-280.521
-261.927
-241.27
-218.788
-194.663
-169.017
-141.877
-113.256
-82.7198
-50.5549
-14.3745
18.4228
75.8523
89.2173
103.243
117.26
129.933
141.399
151.124
158.496
163.483
166.327
167.264
166.585
164.524
161.25
156.894
151.514
145.152
137.851
129.652
120.608
110.805
100.355
89.3952
78.1545
66.9952
56.3143
46.4293
37.5683
29.9075
23.595
18.7494
15.4493
13.7453
13.7124
15.459
19.282
25.4133
35.3226
46.9112
57.5963
42.8945
25.8253
7.12145
-11.9992
-32.5788
-53.9636
-75.6347
-97.7181
-119.891
-141.985
-163.959
-185.588
-206.687
-227.018
-246.258
-264.033
-279.943
-293.543
-304.432
-312.235
-316.589
-317.368
-314.605
-308.447
-299.074
-286.761
-271.837
-254.54
-235.08
-213.682
-190.535
-165.769
-139.425
-111.538
-81.7387
-50.3485
-15.3456
16.3012
70.9964
83.5963
96.8581
110.143
122.189
133.138
142.484
149.637
154.565
157.5
158.665
158.332
156.729
154.011
150.3
145.641
140.063
133.589
126.236
118.037
109.057
99.3833
89.1379
78.5281
67.8998
57.635
48.0432
39.3612
31.7813
25.4659
20.5479
17.1232
15.2583
15.036
16.5731
20.1465
25.9582
35.2638
45.9783
53.7254
39.8605
23.7686
6.16465
-11.7796
-31.0686
-51.0795
-71.3141
-91.9084
-112.565
-133.135
-153.6
-173.773
-193.503
-212.592
-230.763
-247.684
-262.996
-276.288
-287.171
-295.295
-300.286
-301.973
-300.345
-295.486
-287.503
-276.586
-263.005
-246.982
-228.713
-208.41
-186.259
-162.398
-136.882
-109.765
-80.7439
-50.1703
-16.3772
14.1147
66.3835
78.287
90.8479
103.458
114.927
125.391
134.375
141.308
146.156
149.146
150.488
150.437
149.215
146.971
143.817
139.793
134.915
129.194
122.629
115.235
107.05
98.145
88.6169
78.6516
68.5764
58.7584
49.4967
41.0312
33.5668
27.2788
22.3136
18.7829
16.7694
16.3632
17.6895
21.0042
26.4809
35.1703
45.0324
50.0377
36.9391
21.7456
5.14625
-11.7219
-29.8352
-48.5905
-67.5162
-86.7498
-106.016
-125.184
-144.256
-163.068
-181.505
-199.4
-216.516
-232.565
-247.222
-260.114
-270.874
-279.171
-284.635
-287.06
-286.396
-282.682
-275.962
-266.349
-254.056
-239.275
-222.184
-202.979
-181.839
-158.907
-134.25
-107.938
-79.734
-50.0186
-17.4609
11.8754
62.0142
73.2789
85.1929
97.1819
108.113
118.121
126.758
133.472
138.227
141.244
142.719
142.898
141.995
140.153
137.479
134.01
129.756
124.716
118.878
112.239
104.818
96.6617
87.8461
78.5323
69.0269
59.6811
50.7819
42.5682
35.2532
29.0232
24.0367
20.42
18.2714
17.6883
18.8032
21.8518
26.9796
35.0451
44.079
46.5375
34.1452
19.778
4.10533
-11.7781
-28.8118
-46.4179
-64.1436
-82.1325
-100.123
-118.002
-135.784
-153.331
-170.549
-187.304
-203.393
-218.567
-232.536
-244.963
-255.506
-263.848
-269.643
-272.651
-272.795
-270.077
-264.492
-256.089
-245.019
-231.441
-215.509
-197.4
-177.283
-155.299
-131.529
-106.057
-78.7093
-49.8914
-18.5882
9.59452
57.8854
68.5607
79.8764
91.2888
101.717
111.295
119.599
126.096
130.747
133.767
135.344
135.708
135.071
133.571
131.311
128.327
124.625
120.198
115.026
109.089
102.391
94.9574
86.8412
78.1793
69.2553
60.402
51.8931
43.9635
36.8305
30.6886
25.7073
22.0258
19.7568
19.0052
19.9093
22.6857
27.453
34.8914
43.1227
43.226
31.4873
17.8844
3.06718
-11.9084
-27.9495
-44.4976
-61.123
-77.968
-94.7856
-111.475
-128.065
-144.433
-160.508
-176.183
-191.283
-205.592
-218.857
-230.772
-241.023
-249.307
-255.309
-258.764
-259.572
-257.709
-253.136
-245.844
-235.927
-223.505
-208.707
-191.686
-172.598
-151.58
-128.722
-104.123
-77.6683
-49.7852
-19.7495
7.28437
53.9907
64.1207
74.8803
85.7553
95.7109
104.882
112.867
119.149
123.689
126.696
128.347
128.861
128.446
127.237
125.333
122.771
119.557
115.679
111.11
105.822
99.8021
93.0588
85.6228
77.6062
69.268
60.9216
52.8265
45.2096
38.289
32.265
27.3154
23.591
21.2175
20.3072
21.0026
23.5023
27.8995
34.7126
42.1685
40.1007
28.969
16.0765
2.05281
-12.0841
-27.2079
-42.781
-58.3923
-74.1838
-89.921
-105.515
-121.002
-136.276
-151.282
-165.935
-180.088
-193.553
-206.108
-217.48
-227.381
-235.525
-241.627
-245.408
-246.751
-245.615
-241.933
-235.652
-226.813
-215.495
-201.798
-185.852
-167.794
-147.756
-125.833
-102.138
-76.6097
-49.6957
-20.9343
4.95808
50.3237
59.9458
70.1866
80.5581
90.0697
98.8546
106.534
112.606
117.03
120.008
121.71
122.346
122.116
121.154
119.558
117.363
114.578
111.189
107.165
102.471
97.0832
90.9931
84.2121
76.8275
69.0734
61.2432
53.58
46.3007
39.6206
33.7428
28.8512
25.1064
22.6452
21.5873
22.0774
24.2978
28.3181
34.5123
41.2214
37.1578
26.592
14.3608
1.07616
-12.2826
-26.5565
-41.227
-55.9021
-70.719
-85.4596
-100.042
-114.509
-128.767
-142.775
-156.467
-169.716
-182.364
-194.215
-205.026
-214.537
-222.474
-228.586
-232.588
-234.352
-233.824
-230.919
-225.549
-217.709
-207.438
-194.805
-179.914
-162.882
-143.833
-122.865
-100.101
-75.5318
-49.618
-22.1315
2.62967
46.875
56.023
65.7776
75.6763
84.769
93.1881
100.574
106.44
110.744
113.683
115.419
116.151
116.076
115.325
113.993
112.119
109.711
106.757
103.222
99.0693
94.2647
88.7872
82.6306
75.8594
68.6829
61.3724
54.154
47.2329
40.8183
35.113
30.3052
26.5626
24.0313
22.838
23.1279
25.0684
28.7077
34.2935
40.2866
34.3922
24.3546
12.7424
0.147746
-12.4886
-25.9713
-39.8046
-53.6117
-67.5283
-81.3455
-94.9922
-108.513
-121.827
-134.905
-147.694
-160.088
-171.951
-183.112
-193.354
-202.445
-210.125
-216.173
-220.306
-222.389
-222.361
-220.125
-215.57
-208.649
-199.363
-187.751
-173.89
-157.876
-139.821
-119.824
-98.0154
-74.4327
-49.5465
-23.3308
0.312097
43.6348
52.3402
61.638
71.0905
79.7879
87.859
94.9624
100.627
104.808
107.701
109.457
110.266
110.32
109.749
108.645
107.05
104.973
102.403
99.3069
95.6438
91.3748
86.4676
80.9017
74.7208
68.1093
61.3165
54.551
48.0037
41.8761
36.3678
31.6683
27.9503
25.3673
24.0518
24.1481
25.8103
29.0677
34.0597
39.3687
31.7972
22.255
11.2226
-0.725836
-12.6876
-25.4335
-38.4876
-51.489
-64.5695
-77.5327
-90.3121
-102.956
-115.393
-127.602
-139.545
-151.131
-162.243
-172.732
-182.408
-191.059
-198.446
-204.368
-208.557
-210.872
-211.245
-209.581
-205.747
-199.664
-191.299
-180.661
-167.799
-152.789
-135.728
-116.714
-95.882
-73.3103
-49.4743
-24.52
-1.98019
40.5943
48.8834
57.7516
66.7836
75.1061
82.8451
89.6774
95.1449
99.2053
102.045
103.808
104.677
104.84
104.422
103.515
102.163
100.376
98.1459
95.4413
92.2199
88.4392
84.0596
79.0484
73.4305
67.3671
61.0849
54.7747
48.6129
42.7901
37.5002
32.9321
29.2606
26.6443
25.2207
25.1318
26.5197
29.3973
33.8137
38.4722
29.3656
20.2894
9.80206
-1.54035
-12.8706
-24.9283
-37.2552
-49.5063
-61.8103
-73.9801
-85.9545
-97.7844
-109.406
-120.807
-131.957
-142.781
-153.179
-163.02
-172.136
-180.337
-187.406
-193.153
-197.336
-199.806
-200.496
-199.312
-196.11
-190.785
-183.275
-173.56
-161.662
-147.637
-131.566
-113.542
-93.7035
-72.1616
-49.3949
-25.6878
-4.23359
37.7437
45.6415
54.1039
62.7373
70.7041
78.1263
84.6985
89.9755
93.9143
96.6952
98.4567
99.3729
99.626
99.3391
98.6032
97.4622
95.9302
94.0001
91.6433
88.8186
85.4815
81.5866
77.0922
72.0079
66.4713
60.6885
54.8315
49.0617
43.5574
38.5049
34.0888
30.4848
27.8539
26.3371
26.0729
27.1928
29.6959
33.5584
37.6012
27.0907
18.4536
8.47931
-2.2933
-13.0314
-24.4446
-36.0917
-47.643
-59.2235
-70.6548
-81.8817
-92.9545
-103.817
-114.465
-124.874
-134.981
-144.701
-153.92
-162.489
-170.238
-176.97
-182.507
-186.632
-189.192
-190.124
-189.338
-186.685
-182.041
-175.318
-166.472
-155.501
-142.437
-127.346
-110.315
-91.4808
-70.9848
-49.2998
-26.8221
-6.43399
35.0737
42.6021
50.6806
58.9359
66.5646
73.6847
80.0064
85.0989
88.9173
91.6368
93.3894
94.3413
94.67
94.4954
93.907
92.95
91.6412
89.9757
87.928
85.4583
82.522
79.07
75.0544
70.4711
65.438
60.139
54.7289
49.3532
44.1772
39.3771
35.1319
31.6149
28.9878
27.3932
26.9652
27.8257
29.9628
33.2961
36.7593
24.9653
16.7421
7.25266
-2.98338
-13.1649
-23.9732
-34.9838
-45.8807
-56.7861
-67.529
-78.06
-88.4288
-98.5859
-108.53
-118.247
-127.68
-136.759
-145.384
-153.422
-160.723
-167.106
-172.407
-176.432
-179.028
-180.137
-179.676
-177.497
-173.459
-167.457
-159.424
-149.337
-137.206
-123.081
-107.04
-89.2183
-69.7766
-49.1818
-27.9129
-8.56751
32.5746
39.7538
47.4687
55.3655
62.6718
69.5038
75.5844
80.4976
84.1975
86.8536
88.5915
89.57
89.9614
89.8831
89.4229
88.6267
87.5135
86.0813
84.3072
82.1543
79.5785
76.5298
72.9551
68.8402
64.2837
59.4497
54.4756
49.4922
44.65
40.1142
36.0558
32.6439
30.0383
28.3816
27.8027
28.4147
30.1975
33.0287
35.9493
22.9821
15.1507
6.11864
-3.61012
-13.2683
-23.5076
-33.9206
-44.2058
-54.4794
-64.5802
-74.4624
-84.176
-93.6751
-102.964
-112.033
-120.834
-129.307
-137.366
-144.893
-151.754
-157.784
-162.83
-166.722
-169.31
-170.54
-170.34
-168.564
-165.063
-159.716
-152.441
-143.192
-131.962
-118.784
-103.725
-86.9171
-68.535
-49.0338
-28.9479
-10.6219
30.2373
37.0859
44.4563
52.0118
59.0109
65.5674
71.4163
76.1557
79.7393
82.3307
84.0495
85.0472
85.4912
85.4955
85.1464
84.4906
83.5489
82.322
80.7901
78.919
76.6665
73.9832
70.8127
67.1324
63.0243
58.6336
54.0818
49.4844
44.9778
40.7146
36.8564
33.5654
30.9982
29.2953
28.5796
28.9562
30.3991
32.7576
35.1735
21.1337
13.6733
5.0745
-4.17471
-13.3394
-23.0434
-32.8944
-42.6053
-52.2877
-61.7886
-71.0646
-80.167
-89.0535
-97.7309
-106.194
-114.403
-122.306
-129.828
-136.864
-143.294
-148.972
-153.752
-157.486
-160.031
-161.336
-161.341
-159.905
-156.875
-152.121
-145.546
-137.089
-126.724
-114.469
-100.38
-84.5813
-67.2573
-48.8459
-29.9175
-12.5851
28.0534
34.5883
41.6315
48.8617
55.5677
61.8605
67.4869
72.058
75.5276
78.0538
79.7501
80.7608
81.2487
81.3244
81.0715
80.5385
79.7473
78.701
77.383
75.7623
73.7994
71.4454
68.6433
65.3642
61.6752
57.7044
53.5581
49.3375
45.1644
41.1784
37.5304
34.3745
31.8612
30.1279
29.2904
29.4467
30.5672
32.4839
34.4332
19.4133
12.3046
4.11668
-4.67872
-13.3774
-22.576
-31.8981
-41.0693
-50.1974
-59.1363
-67.8464
-76.3778
-84.6925
-92.7994
-100.697
-108.351
-115.718
-122.731
-129.299
-135.313
-140.642
-145.15
-148.709
-151.181
-152.523
-152.684
-151.532
-148.913
-144.693
-138.763
-131.049
-121.511
-110.15
-97.0123
-82.2146
-65.9411
-48.6123
-30.8111
-14.4456
26.0143
32.2512
38.9831
45.9036
52.3295
58.3697
63.7823
68.1904
71.549
74.0096
75.6807
76.6998
77.2236
77.3611
77.1924
76.7668
76.1078
75.2201
74.0908
72.6922
70.9874
68.9295
66.4619
63.5512
60.2517
56.6757
52.9157
49.0593
45.2144
41.5071
38.0765
35.067
32.6219
30.8734
29.9301
29.883
30.7007
32.2079
33.729
17.814
11.0392
3.24117
-5.12389
-13.382
-22.1035
-30.927
-39.5907
-48.1981
-56.6106
-64.791
-72.7888
-80.5696
-88.1433
-95.5117
-102.646
-109.51
-116.043
-122.165
-127.778
-132.766
-137.001
-140.372
-142.75
-144.097
-144.373
-143.456
-141.194
-137.451
-132.112
-125.092
-116.339
-105.841
-93.6332
-79.8203
-64.5852
-48.3254
-31.6203
-16.194
24.112
30.0657
36.501
43.1258
49.284
55.0822
60.2888
64.5402
67.7904
70.1859
71.8295
72.8525
73.4066
73.5969
73.5018
73.1703
72.6274
71.8794
70.9165
69.7144
68.2393
66.4467
64.2814
61.7073
58.7679
55.5609
52.1661
48.6589
45.1338
41.7034
38.4943
35.6405
33.2762
31.5272
30.4944
30.262
30.7989
31.9297
33.0607
16.3292
9.87167
2.44412
-5.51262
-13.3538
-21.6241
-29.9771
-38.1631
-46.2813
-54.1996
-61.884
-69.3825
-76.6639
-83.7395
-90.6137
-97.2619
-103.652
-109.733
-115.432
-120.662
-125.318
-129.283
-132.458
-134.725
-136.053
-136.41
-135.684
-133.731
-130.412
-125.612
-119.238
-111.227
-101.557
-90.2514
-77.4031
-63.1886
-47.9788
-32.3369
-17.8215
22.3386
28.0231
34.1755
40.5175
46.4198
51.986
56.9946
61.0947
64.2393
66.5703
68.1852
69.209
69.7878
70.0235
69.9926
69.7438
69.3026
68.6777
67.8615
66.8331
65.5618
64.0062
62.1134
59.8455
57.2369
54.3725
51.3208
48.1457
44.9294
41.7711
38.7851
36.0935
33.8209
32.085
30.9794
30.5811
30.8606
31.6486
32.4272
14.9522
8.79657
1.72153
-5.84743
-13.2934
-21.1367
-29.0451
-36.7803
-44.4382
-51.8923
-59.1119
-66.143
-72.9576
-79.5681
-85.9799
-92.173
-98.1193
-103.774
-109.073
-113.938
-118.274
-121.973
-124.949
-127.095
-128.385
-128.793
-128.222
-126.533
-123.591
-119.281
-113.504
-106.192
-97.3121
-86.8768
-74.9677
-61.7499
-47.5673
-32.9539
-19.3203
20.6869
26.1147
31.9972
38.069
43.7262
49.07
53.8885
57.8419
60.8844
63.1519
64.7368
65.7582
66.3571
66.6323
66.6573
66.4811
66.1296
65.6126
64.9257
64.0506
62.96
61.6156
59.9674
57.9769
55.6708
53.1226
50.391
47.5296
44.6087
41.7154
38.951
36.4258
34.2539
32.5441
31.3822
30.838
30.8847
31.3637
31.8267
13.6768
7.80883
1.06926
-6.13099
-13.2021
-20.641
-28.1287
-35.439
-42.6626
-49.6805
-56.4638
-63.057
-69.4346
-75.61
-81.59
-87.3572
-92.888
-98.1431
-103.064
-107.582
-111.61
-115.052
-117.829
-119.846
-121.082
-121.52
-121.072
-119.608
-117
-113.133
-107.908
-101.25
-93.119
-83.5193
-72.519
-60.2703
-47.0859
-33.4654
-20.6845
19.1497
24.3329
29.9575
35.7709
41.1933
46.3238
50.959
54.7712
57.7145
59.9194
61.4736
62.4903
63.1053
63.4143
63.4884
63.3758
63.1029
62.6812
62.108
61.3682
60.4373
59.2806
57.8511
56.1109
54.0804
51.8227
49.3878
46.8203
44.18
41.5421
38.9955
36.6388
34.5747
32.9024
31.7004
31.0306
30.8702
31.0736
31.2567
12.4973
6.90318
0.483339
-6.3662
-13.0814
-20.1369
-27.2268
-34.1353
-40.9502
-47.5573
-53.9307
-60.1135
-66.0822
-71.8503
-77.4262
-82.7952
-87.9366
-92.8162
-97.3819
-101.571
-105.306
-108.499
-111.079
-112.964
-114.136
-114.585
-114.234
-112.962
-110.648
-107.18
-102.462
-96.4141
-88.991
-80.1887
-70.0627
-58.75
-46.5323
-33.8676
-21.9092
17.7201
22.6698
28.0481
33.614
38.8115
43.7372
48.1963
51.8723
54.7192
56.8625
58.3858
59.3957
60.0236
60.3617
60.4786
60.4216
60.2179
59.8798
59.4065
58.7857
57.996
57.0058
55.7715
54.2563
52.4755
50.4832
48.3216
46.0278
43.6518
41.2578
38.9232
36.7347
34.7837
33.1593
31.9325
31.1578
30.8161
30.7767
30.7141
11.4077
6.0749
-0.0403159
-6.55592
-12.9331
-19.6247
-26.3375
-32.8666
-39.2958
-45.5162
-51.5046
-57.3022
-62.8875
-68.2749
-73.473
-78.4695
-83.2465
-87.774
-92.0055
-95.8849
-99.3415
-102.296
-104.685
-106.436
-107.536
-107.982
-107.706
-106.597
-104.542
-101.434
-97.1786
-91.6975
-84.9397
-76.894
-67.6044
-57.1909
-45.9045
-34.157
-22.9912
16.3919
21.1187
26.2613
31.5903
36.5722
41.3011
45.5906
49.135
51.8887
53.9719
55.4638
56.4653
57.103
57.4658
57.6199
57.6118
57.4688
57.2041
56.8186
56.3025
55.6371
54.7942
53.7337
52.4203
50.8648
49.1138
47.2027
45.1618
43.0329
40.87
38.7397
36.7171
34.8826
33.315
32.0779
31.2183
30.7211
30.471
30.1955
10.4025
5.31909
-0.505588
-6.70319
-12.7589
-19.1053
-25.4609
-31.631
-37.6958
-43.5521
-49.1781
-54.6143
-59.8403
-64.8711
-69.7159
-74.3643
-78.8006
-82.9985
-86.9164
-90.5041
-93.6972
-96.4245
-98.6283
-100.248
-101.272
-101.704
-101.485
-100.514
-98.6862
-95.9013
-92.0688
-87.1113
-80.9755
-73.6442
-65.1499
-55.5958
-45.2012
-34.3321
-23.9288
15.159
19.6727
24.5898
29.6917
34.4668
39.0067
43.1329
46.5504
49.2137
51.2379
52.6983
53.6901
54.3351
54.7189
54.9052
54.9398
54.8499
54.6495
54.341
53.9168
53.3608
52.6479
51.7416
50.6085
49.2556
47.7229
46.0401
44.2318
42.3322
40.3865
38.4511
36.5906
34.8742
33.3709
32.1368
31.2119
30.5844
30.1544
29.697
9.47661
4.63131
-0.916275
-6.8107
-12.5609
-18.5792
-24.5961
-30.4266
-36.1471
-41.6602
-46.9456
-52.0423
-56.9316
-61.6286
-66.1429
-70.4656
-74.5836
-78.4733
-82.0974
-85.4108
-88.356
-90.8678
-92.8948
-94.3851
-95.3314
-95.742
-95.5653
-94.7112
-93.0828
-90.5878
-87.14
-82.6649
-77.1081
-70.4474
-62.7052
-53.9678
-44.4236
-34.3926
-24.7212
14.0153
18.3255
23.0265
27.9108
32.4875
36.8458
40.8146
44.1097
46.6852
48.6519
50.0805
51.0613
51.7113
52.1129
52.3271
52.399
52.3555
52.2112
51.9701
51.6263
51.1665
50.568
49.7981
48.8255
47.6543
46.3184
44.8427
43.2468
41.5587
39.8156
38.0647
36.3606
34.7625
33.3295
32.1102
31.1385
30.4051
29.8245
29.2144
8.62492
4.00686
-1.276
-6.88142
-12.341
-18.0473
-23.7431
-29.2519
-34.6474
-39.8368
-44.8016
-49.5793
-54.1529
-58.5375
-62.7428
-66.7611
-70.5817
-74.1834
-77.5329
-80.5894
-83.3012
-85.6097
-87.4687
-88.8343
-89.7028
-90.0864
-89.9409
-89.1857
-87.7326
-85.4969
-82.3983
-78.3661
-73.3458
-67.3115
-60.2766
-52.3108
-43.5737
-34.34
-25.37
12.9553
17.0708
21.565
26.2404
30.6268
34.8104
38.6277
41.8044
44.295
46.2053
47.6022
48.5711
49.2239
49.6402
49.8785
49.9827
49.9798
49.8844
49.7021
49.4286
49.0527
48.5549
47.9056
47.0754
46.0663
44.907
43.6182
42.2154
40.721
39.1655
37.5879
36.0335
34.5523
33.194
32.0002
30.9989
30.1826
29.4791
28.7437
7.84265
3.44181
-1.58846
-6.91821
-12.1011
-17.511
-22.9019
-28.1062
-33.1943
-38.0783
-42.7412
-47.2193
-51.4969
-55.5889
-59.5052
-63.2394
-66.7823
-70.1152
-73.2081
-76.0246
-78.5178
-80.6354
-82.3356
-83.5821
-84.3743
-84.7273
-84.6042
-83.9328
-82.6339
-80.6303
-77.848
-74.2205
-69.6951
-64.2432
-57.8697
-50.6296
-42.6545
-34.1767
-25.8772
11.9738
15.9031
20.1991
24.6743
28.8777
32.8934
36.5646
39.6269
42.0352
43.8903
45.2555
46.2114
46.8653
47.2936
47.5524
47.6847
47.7169
47.6642
47.5329
47.3207
47.0181
46.6085
46.0651
45.3609
44.4961
43.4946
42.3738
41.1455
39.8277
38.4448
37.0286
35.6163
34.2492
32.9688
31.8096
30.7941
29.9165
29.1159
28.2805
7.12525
2.93194
-1.85697
-6.92383
-11.8434
-16.9714
-22.0727
-26.9887
-31.786
-36.382
-40.7608
-44.9573
-48.9571
-52.7751
-56.4211
-59.89
-63.1739
-66.2561
-69.1099
-71.7024
-73.9915
-75.9302
-77.4815
-78.6151
-79.3336
-79.6544
-79.5469
-78.9468
-77.7836
-75.9873
-73.4909
-70.2326
-66.162
-61.2485
-55.4907
-48.9292
-41.6703
-33.9067
-26.2464
11.0659
14.8169
18.923
23.2058
27.2336
31.0876
34.618
37.5698
39.8982
41.6992
43.0328
43.9749
44.6281
45.066
45.3423
45.4985
45.5611
45.5455
45.4586
45.2994
45.0607
44.7279
44.2774
43.6845
42.9474
42.0865
41.1158
40.0446
38.8868
37.6617
36.3949
35.1164
33.8598
32.6588
31.5417
30.5261
29.6068
28.7329
27.8208
6.46837
2.47355
-2.08487
-6.90088
-11.5696
-16.4296
-21.256
-25.8987
-30.4213
-34.7452
-38.8565
-42.7882
-46.5276
-50.0889
-53.4825
-56.7037
-59.746
-62.5947
-65.2259
-67.6099
-69.7089
-71.4806
-72.8929
-73.9204
-74.5686
-74.8568
-74.7597
-74.2206
-73.177
-71.5662
-69.3277
-66.405
-62.7505
-58.3328
-53.1449
-47.2151
-40.6262
-33.5349
-26.4827
10.2267
13.807
17.731
21.8294
25.6883
29.3866
32.7812
35.6261
37.8767
39.6249
40.927
41.8544
42.5055
42.9506
43.2414
43.4182
43.5071
43.5233
43.4747
43.3615
43.1781
42.9121
42.5427
42.0474
41.4233
40.687
39.8501
38.9196
37.9059
36.8243
35.6949
34.5416
33.3909
32.2698
31.2008
30.1972
29.2539
28.3282
27.3605
5.86799
2.06279
-2.27521
-6.85199
-11.2817
-15.8869
-20.4523
-24.836
-29.0985
-33.1658
-37.0249
-40.7079
-44.2029
-47.5241
-50.6816
-53.6718
-56.4891
-59.1206
-61.5447
-63.7349
-65.6571
-67.274
-68.5566
-69.4853
-70.0671
-70.3231
-70.2329
-69.7464
-68.8083
-67.3634
-65.3574
-62.7391
-59.4638
-55.5007
-50.838
-45.4929
-39.528
-33.0674
-26.5918
9.45182
12.8687
16.618
20.5392
24.2358
27.7844
31.0478
33.7891
35.9642
37.6606
38.9312
39.8431
40.4906
40.941
41.2438
41.438
41.5492
41.5928
41.5771
41.5036
41.368
41.1598
40.861
40.4512
39.9264
39.3001
38.5818
37.7766
36.8923
35.9405
34.9367
33.8995
32.8496
31.8079
30.7917
29.8104
28.8587
27.9004
26.8961
5.32018
1.69639
-2.4311
-6.77949
-10.9817
-15.3443
-19.6619
-23.8001
-27.8167
-31.6417
-35.2633
-38.7124
-41.9784
-45.0747
-48.0117
-50.7863
-53.3942
-55.8237
-58.0557
-60.066
-61.8244
-63.2977
-64.4605
-65.2975
-65.8173
-66.0424
-65.9563
-65.5155
-64.6711
-63.3744
-61.5776
-59.2346
-56.304
-52.7557
-48.5746
-43.7686
-38.3823
-32.5111
-26.5803
8.73696
11.9973
15.5791
19.33
22.8705
26.2747
29.4116
32.0527
34.1544
35.7998
37.0389
37.9346
38.5772
39.031
39.3433
39.5521
39.6823
39.7492
39.7617
39.7222
39.6275
39.4694
39.2319
38.8966
38.4586
37.929
37.3154
36.6215
35.8527
35.0177
34.1282
33.1982
32.2435
31.2797
30.3196
29.369
28.4223
27.4484
26.4244
4.82126
1.37094
-2.55534
-6.68576
-10.6712
-14.803
-18.8853
-22.7908
-26.5748
-30.171
-33.569
-36.7983
-39.8493
-42.7354
-45.4665
-48.0402
-50.4532
-52.6951
-54.7487
-56.5926
-58.1997
-59.5402
-60.5924
-61.3447
-61.8072
-62.0032
-61.9197
-61.5187
-60.7575
-59.5935
-57.9848
-55.8901
-53.2718
-50.1007
-46.3594
-42.048
-37.196
-31.8734
-26.4559
8.07811
11.1884
14.6095
18.1969
21.5873
24.8525
27.867
30.411
32.4411
34.0366
35.2442
36.123
36.7593
37.2147
37.5344
37.7552
37.9014
37.9879
38.0244
38.0138
37.9545
37.8392
37.6546
37.3839
37.0218
36.5769
36.0554
35.4596
34.7934
34.063
33.2768
32.4453
31.5798
30.6918
29.7898
28.8768
27.9465
26.9716
25.9428