/*--------------------------------*- C++ -*----------------------------------*\
  =========                 |
  \\      /  F ield         | OpenFOAM: The Open Source CFD Toolbox
   \\    /   O peration     | Website:  https://openfoam.org
    \\  /    A nd           | Version:  13
     \\/     M anipulation  |
\*---------------------------------------------------------------------------*/
FoamFile
{
    format      ascii;
    class       surfaceScalarField;
    location    "100";
    object      phi;
}
// * * * * * * * * * * * * * * * * * * * * * * * * * * * * * * * * * * * * * //

dimensions      [0 3 -1 0 0 0 0];

internalField   nonuniform List<scalar> 
21254
(
-0.227759
0.247423
-0.0196633
0.269478
-0.0220559
0.288603
-0.0191243
0.305762
-0.0171594
0.322052
-0.0162897
0.335219
-0.0131672
0.345755
-0.0105359
0.354429
-0.00867387
0.360338
-0.00590897
0.364514
-0.00417629
0.367195
-0.00268038
0.368289
-0.00109426
0.368213
7.58859e-05
0.366783
0.00143007
0.363868
0.00291573
0.359733
0.00413429
0.354209
0.00552494
0.347403
0.00680581
0.3392
0.00820272
0.329861
0.00933944
0.319103
0.010758
0.307524
0.0115796
0.295417
0.0121067
0.284089
0.0113284
0.274728
0.00936153
0.266665
0.00806244
0.258792
0.00787383
0.250788
0.00800351
0.242319
0.00846968
0.233288
0.00903045
0.223665
0.00962392
0.213433
0.0102317
0.202524
0.0109105
0.190691
0.011833
0.177405
0.0132876
0.161615
0.0157914
0.141024
0.020596
0.11053
0.0305015
0.0940989
0.0165493
-0.204719
-0.0230401
-0.180813
-0.023906
-0.151543
-0.0292697
-0.11949
-0.0320527
-0.0857365
-0.0337538
-0.0509033
-0.0348332
-0.0166469
-0.0342563
0.015113
-0.0317597
0.0441033
-0.0289901
0.0695733
-0.0254699
0.0912625
-0.0216891
0.109566
-0.0183033
0.124888
-0.015322
0.137635
-0.0127464
0.148535
-0.0109003
0.157904
-0.0093691
0.166222
-0.0083175
0.173718
-0.0074958
0.180701
-0.00698361
0.18729
-0.00658899
0.193653
-0.00636255
0.199774
-0.00612108
0.20558
-0.00580599
0.210429
-0.00484988
0.214133
-0.00370439
0.216976
-0.0028427
0.218952
-0.00197684
0.220186
-0.00123405
0.220668
-0.000482262
0.220338
0.000329925
0.219139
0.00119915
0.217213
0.00192524
0.214682
0.00253058
0.211604
0.00307766
0.207839
0.00376465
0.20297
0.00486887
0.195868
0.00710105
0.181307
0.0145554
0.160174
0.0211348
-0.207843
0.229294
-0.0411147
0.251252
-0.0440141
0.274215
-0.0420874
0.295666
-0.0386103
0.316611
-0.0372341
0.336057
-0.0326135
0.353591
-0.0280695
0.369462
-0.0245454
0.383272
-0.0197185
0.39507
-0.0159742
0.404885
-0.0124952
0.412741
-0.00895032
0.418917
-0.0060995
0.423739
-0.00339224
0.427166
-0.00051108
0.42888
0.00242045
0.42879
0.0056153
0.42699
0.00860526
0.422964
0.0122292
0.416968
0.0153358
0.408582
0.0191442
0.39807
0.0220923
0.385406
0.02477
0.37121
0.0255254
0.356723
0.0238481
0.342395
0.0223905
0.328336
0.0219329
0.314779
0.0215606
0.301562
0.0216874
0.28855
0.0220423
0.275545
0.02263
0.262389
0.0233878
0.248833
0.0244671
0.234659
0.0260076
0.219466
0.028483
0.20225
0.0330093
0.181739
0.0411124
0.149127
0.0631206
0.107949
0.0578044
-0.185935
-0.044948
-0.162447
-0.0473939
-0.13495
-0.0567661
-0.105889
-0.0611138
-0.0750514
-0.0645915
-0.0428634
-0.0670212
-0.0107942
-0.0663254
0.0197322
-0.062286
0.0474688
-0.0567265
0.0722197
-0.0502207
0.0938041
-0.0432734
0.112536
-0.037035
0.128819
-0.0316052
0.142873
-0.0268004
0.155151
-0.0231784
0.165954
-0.0201713
0.17557
-0.0179341
0.184311
-0.0162367
0.19243
-0.0151025
0.200037
-0.014195
0.207289
-0.0136146
0.214255
-0.0130876
0.220858
-0.0124093
0.226628
-0.01062
0.231285
-0.00836164
0.235037
-0.00659519
0.237881
-0.00482163
0.239868
-0.00322044
0.241066
-0.00168069
0.241627
-0.000231136
0.241616
0.00121037
0.240972
0.00256907
0.239576
0.00392619
0.237395
0.00525761
0.234384
0.00677461
0.230302
0.00895063
0.225173
0.0122283
0.214336
0.0253866
0.194197
0.041276
-0.201916
0.223645
-0.0628433
0.245568
-0.0659371
0.269239
-0.0657584
0.290916
-0.0602872
0.311575
-0.0578934
0.33138
-0.0524185
0.349048
-0.0457373
0.364982
-0.0404786
0.378741
-0.0334777
0.390593
-0.0278259
0.400563
-0.0224659
0.408831
-0.0172183
0.415199
-0.012467
0.42011
-0.00830369
0.423297
-0.00369798
0.425476
0.000241725
0.426369
0.00472228
0.426343
0.00863125
0.425095
0.0134776
0.422586
0.017845
0.418719
0.0230114
0.413338
0.0274728
0.40642
0.0316883
0.398049
0.0338963
0.388719
0.0331782
0.378471
0.0326378
0.367182
0.0332225
0.354979
0.0337635
0.342023
0.0346439
0.328403
0.0356621
0.314263
0.03677
0.299635
0.038017
0.28446
0.0396419
0.268567
0.0419013
0.251564
0.0454872
0.232461
0.0521119
0.210088
0.0634879
0.176943
0.0962699
0.129336
0.105461
-0.180065
-0.0667989
-0.156177
-0.0712823
-0.127622
-0.0853201
-0.097934
-0.0908023
-0.066942
-0.0955835
-0.0348206
-0.0991426
-0.00311013
-0.0980357
0.026492
-0.0918881
0.0535647
-0.0837991
0.0780774
-0.0747332
0.0996996
-0.0648955
0.118612
-0.0559469
0.135172
-0.0481657
0.149653
-0.0412815
0.162372
-0.0358969
0.173673
-0.0314726
0.183824
-0.0280849
0.193093
-0.0255053
0.201687
-0.0236968
0.209771
-0.0222784
0.217528
-0.0213718
0.224969
-0.0205284
0.231995
-0.0194363
0.2383
-0.0169252
0.243592
-0.0136533
0.247974
-0.0109782
0.251507
-0.00835404
0.25422
-0.00593393
0.25618
-0.00364117
0.257383
-0.00143387
0.2579
0.000693015
0.257723
0.0027458
0.256875
0.00477365
0.255285
0.00684706
0.252856
0.00920358
0.249208
0.0125976
0.243952
0.017484
0.233383
0.0359527
0.213926
0.0607336
-0.194995
0.217683
-0.0855308
0.240459
-0.0887128
0.265513
-0.0908129
0.288391
-0.0831651
0.310587
-0.0800894
0.331881
-0.0737123
0.35144
-0.0652955
0.369095
-0.0581335
0.385046
-0.0494286
0.399068
-0.041848
0.411276
-0.0346742
0.421668
-0.0276104
0.430263
-0.0210613
0.43709
-0.0151313
0.442472
-0.00907944
0.446075
-0.00336113
0.448019
0.00277844
0.448059
0.00859081
0.446501
0.0150357
0.443217
0.0211296
0.438347
0.0278817
0.432141
0.0336788
0.424738
0.0390922
0.416649
0.0419847
0.408315
0.0415124
0.399798
0.0411552
0.390734
0.0422867
0.380973
0.0435246
0.37033
0.0452871
0.358618
0.0473749
0.345816
0.0495733
0.331896
0.0519369
0.316847
0.054692
0.300533
0.0582155
0.282695
0.0633278
0.262392
0.0724171
0.238377
0.0875076
0.204057
0.130595
0.155191
0.154375
-0.172578
-0.0892164
-0.148557
-0.0953031
-0.119422
-0.114455
-0.0895337
-0.120691
-0.0583979
-0.126719
-0.0260656
-0.131475
0.00561261
-0.129714
0.0348818
-0.121157
0.0615824
-0.1105
0.0857718
-0.0989225
0.107131
-0.0862543
0.125922
-0.0747378
0.142555
-0.0647993
0.157269
-0.0559945
0.170383
-0.0490116
0.182125
-0.0432144
0.192793
-0.0387527
0.202565
-0.0352767
0.211673
-0.0328046
0.220255
-0.0308608
0.228424
-0.0295405
0.236243
-0.0283477
0.24365
-0.0268429
0.250317
-0.0235934
0.256003
-0.0193391
0.260768
-0.0157435
0.264657
-0.0122441
0.267721
-0.0089979
0.269992
-0.00591202
0.271528
-0.00297012
0.272358
-0.000137236
0.272508
0.0025958
0.271976
0.00530439
0.270751
0.00807159
0.268716
0.0112379
0.265498
0.0158149
0.260531
0.022449
0.250514
0.0459643
0.231289
0.0799603
-0.191289
0.214815
-0.109057
0.238493
-0.112392
0.26497
-0.11729
0.288629
-0.106824
0.31185
-0.103309
0.334243
-0.0961057
0.3547
-0.085752
0.373335
-0.0767689
0.390434
-0.0665277
0.405353
-0.0567667
0.418476
-0.0477972
0.429741
-0.0388747
0.439413
-0.0307337
0.447165
-0.0228829
0.453173
-0.0150878
0.457434
-0.00762195
0.460084
0.000128889
0.461165
0.00750959
0.460436
0.0157645
0.458155
0.0234109
0.454176
0.0318609
0.448634
0.0392207
0.441761
0.0459649
0.433953
0.0497928
0.425783
0.0496823
0.41746
0.0494776
0.408847
0.0509002
0.399885
0.0524861
0.390442
0.0547308
0.380353
0.0574638
0.369373
0.060554
0.357267
0.0640427
0.34381
0.0681497
0.328696
0.0733293
0.311496
0.0805284
0.291325
0.0925886
0.266739
0.112095
0.231731
0.165605
0.18266
0.203478
-0.16783
-0.112676
-0.1431
-0.120033
-0.112726
-0.144828
-0.0819966
-0.151421
-0.0501332
-0.158583
-0.0171498
-0.164458
0.0149775
-0.161841
0.0443447
-0.150524
0.0709374
-0.137092
0.0949487
-0.122934
0.116089
-0.107394
0.134719
-0.0933684
0.151332
-0.0814122
0.166136
-0.0707978
0.179448
-0.0623237
0.191535
-0.0553015
0.202576
-0.0497933
0.212756
-0.0454567
0.222272
-0.0423211
0.231265
-0.039853
0.239825
-0.0381012
0.247994
-0.0365167
0.255734
-0.0345829
0.262766
-0.0306249
0.268825
-0.025399
0.273947
-0.0208656
0.278164
-0.0164614
0.281529
-0.0123632
0.284071
-0.00845392
0.285823
-0.00472194
0.286826
-0.00114033
0.287135
0.00228573
0.286747
0.00569293
0.285624
0.00919429
0.28372
0.0131418
0.280651
0.0188836
0.275832
0.0272674
0.266393
0.0554008
0.247764
0.0985896
-0.188366
0.212908
-0.133599
0.237895
-0.137378
0.265741
-0.145136
0.290589
-0.131672
0.314811
-0.127532
0.338546
-0.11984
0.359944
-0.10715
0.379819
-0.0966447
0.397868
-0.0845762
0.413968
-0.072867
0.42835
-0.062179
0.440827
-0.0513515
0.451613
-0.0415195
0.460682
-0.0319524
0.467897
-0.0223023
0.473559
-0.0132844
0.477307
-0.00361896
0.479226
0.00559064
0.479423
0.0155687
0.477717
0.0251168
0.474154
0.0354236
0.468952
0.0444236
0.462256
0.0526604
0.454483
0.0575662
0.446142
0.0580239
0.437492
0.0581277
0.42849
0.0599026
0.419152
0.0618243
0.409485
0.0643978
0.399423
0.0675262
0.3889
0.0710788
0.377686
0.0752566
0.365514
0.0803223
0.351952
0.0868929
0.336374
0.0961085
0.317589
0.111376
0.293949
0.13574
0.259493
0.200067
0.210869
0.252135
-0.163934
-0.137107
-0.138376
-0.145591
-0.106679
-0.176525
-0.074796
-0.183304
-0.0419168
-0.191462
-0.00798506
-0.19839
0.0248984
-0.194724
0.0546596
-0.180285
0.081386
-0.163818
0.105375
-0.146922
0.126392
-0.128412
0.144855
-0.111831
0.161361
-0.0979179
0.176167
-0.0856035
0.189577
-0.0757342
0.201853
-0.0675767
0.213156
-0.0610964
0.223684
-0.0559849
0.233564
-0.0522012
0.242927
-0.0492156
0.251864
-0.0470384
0.260397
-0.0450489
0.268468
-0.0426547
0.275892
-0.0380493
0.282337
-0.0318444
0.287796
-0.0263249
0.292355
-0.0210206
0.296009
-0.0160173
0.298806
-0.0112514
0.300777
-0.00669347
0.301962
-0.00232496
0.302387
0.00185993
0.302061
0.00601843
0.301003
0.0102515
0.299068
0.015076
0.295973
0.021977
0.291046
0.0321937
0.281908
0.0645338
0.263934
0.116565
-0.186648
0.212516
-0.159468
0.238548
-0.16341
0.267961
-0.174548
0.294078
-0.157789
0.319549
-0.153002
0.344353
-0.144644
0.366908
-0.129704
0.387624
-0.11736
0.406703
-0.103655
0.423725
-0.0898892
0.438923
-0.0773769
0.452431
-0.0648603
0.464119
-0.0532067
0.474045
-0.041879
0.482269
-0.0305263
0.488614
-0.0196292
0.493231
-0.00823564
0.496012
0.00280997
0.49698
0.0146004
0.49607
0.0260274
0.493317
0.0381759
0.488785
0.048956
0.482792
0.0586529
0.475522
0.0648362
0.467478
0.0660682
0.458891
0.0667138
0.449767
0.0690267
0.440136
0.0714551
0.430081
0.0744533
0.419568
0.0780387
0.408607
0.0820408
0.397153
0.0867103
0.385079
0.0923967
0.372051
0.0999208
0.357556
0.110604
0.340391
0.128541
0.318692
0.15744
0.286372
0.232388
0.239246
0.299282
-0.161009
-0.162745
-0.134345
-0.172255
-0.101191
-0.209679
-0.0679905
-0.216504
-0.033896
-0.225556
0.00129134
-0.233577
0.0351751
-0.228608
0.0656239
-0.210734
0.0927288
-0.190923
0.116906
-0.171099
0.137898
-0.149404
0.156255
-0.130188
0.172653
-0.114316
0.187391
-0.100342
0.200804
-0.0891469
0.213175
-0.0799479
0.224679
-0.0726007
0.235459
-0.066764
0.245648
-0.0623906
0.255342
-0.0589093
0.264612
-0.056309
0.273473
-0.0539099
0.281901
-0.0510824
0.289647
-0.0457954
0.296483
-0.0386805
0.302331
-0.0321732
0.307213
-0.0259025
0.311178
-0.0199833
0.31423
-0.0143035
0.316432
-0.0088948
0.317782
-0.00367593
0.318343
0.00129917
0.318121
0.00623982
0.317068
0.0113043
0.315136
0.0170084
0.311952
0.0251606
0.306845
0.0373012
0.297792
0.0735856
0.280404
0.133952
-0.185621
0.212825
-0.186671
0.240284
-0.190869
0.271375
-0.205639
0.298691
-0.185105
0.325443
-0.179754
0.351488
-0.17069
0.37505
-0.153266
0.396958
-0.139268
0.416837
-0.123535
0.434773
-0.107824
0.450994
-0.0935983
0.465341
-0.079207
0.477885
-0.0657508
0.488741
-0.0527356
0.497842
-0.0396271
0.505142
-0.0269292
0.510666
-0.0137588
0.514339
-0.00086349
0.516075
0.0128647
0.515874
0.0262293
0.513814
0.0402356
0.509897
0.0528739
0.504357
0.0641927
0.497545
0.0716483
0.489783
0.0738305
0.481325
0.0751719
0.472226
0.0781266
0.462486
0.0811949
0.452149
0.0847909
0.441273
0.0889148
0.429809
0.0935064
0.417798
0.0987213
0.405149
0.105047
0.391758
0.113313
0.377229
0.125135
0.360712
0.145061
0.340652
0.177503
0.311337
0.26171
0.266924
0.343721
-0.158749
-0.189618
-0.130921
-0.200084
-0.0960489
-0.244551
-0.0613201
-0.251233
-0.0257796
-0.261097
0.0107873
-0.270144
0.0459021
-0.263723
0.0772484
-0.24208
0.10492
-0.218594
0.129423
-0.195603
0.150528
-0.170508
0.168841
-0.148501
0.185149
-0.130624
0.199796
-0.114988
0.213158
-0.102509
0.225583
-0.0923725
0.237185
-0.0842031
0.248149
-0.0777275
0.258572
-0.0728134
0.268548
-0.068886
0.27811
-0.0658704
0.287301
-0.0631012
0.296057
-0.0598382
0.30417
-0.0539091
0.311374
-0.0458847
0.317587
-0.0383865
0.322821
-0.031137
0.327106
-0.0242682
0.330435
-0.0176324
0.332852
-0.0113122
0.334404
-0.00522866
0.335096
0.000606186
0.334962
0.00637386
0.333958
0.0123071
0.331978
0.0189873
0.328705
0.0284322
0.323431
0.0425745
0.314376
0.0826372
0.297571
0.150757
-0.185393
0.213966
-0.215244
0.242872
-0.219774
0.27566
-0.238428
0.304363
-0.213808
0.332577
-0.207967
0.359973
-0.198086
0.384746
-0.178038
0.407532
-0.162055
0.42851
-0.144513
0.447267
-0.126581
0.464184
-0.110516
0.479332
-0.0943545
0.492722
-0.0791409
0.504366
-0.0643792
0.514263
-0.0495242
0.522433
-0.0350995
0.528743
-0.0200689
0.533147
-0.00526756
0.535627
0.0103856
0.536133
0.0257228
0.534743
0.0416262
0.531492
0.0561246
0.526546
0.0691386
0.520215
0.077979
0.512828
0.0812177
0.504587
0.0834128
0.495543
0.0871703
0.485767
0.0909708
0.475317
0.0952407
0.464182
0.100049
0.45237
0.105319
0.439878
0.111214
0.426647
0.118278
0.412558
0.127401
0.397383
0.140311
0.380479
0.161963
0.360915
0.197069
0.334266
0.28836
0.293013
0.384988
-0.157034
-0.217977
-0.12785
-0.229267
-0.0911975
-0.281203
-0.0548975
-0.287533
-0.0177012
-0.298293
0.0204598
-0.308305
0.0570571
-0.30032
0.0894696
-0.274492
0.117884
-0.247008
0.142881
-0.220599
0.164214
-0.19184
0.182584
-0.166872
0.198849
-0.146888
0.213412
-0.129551
0.226706
-0.115803
0.239089
-0.104755
0.250752
-0.0958663
0.261826
-0.0888012
0.272421
-0.0834081
0.282627
-0.0790927
0.292482
-0.0757248
0.301948
-0.0725674
0.311013
-0.0689028
0.319478
-0.0623748
0.327071
-0.053478
0.333636
-0.0449512
0.339226
-0.0367267
0.34381
-0.028853
0.347438
-0.0212603
0.350106
-0.0139808
0.351846
-0.00696854
0.352696
-0.000243424
0.352646
0.00642377
0.351686
0.013267
0.349705
0.0209674
0.34636
0.031778
0.340899
0.0480353
0.331859
0.0916768
0.315634
0.166981
-0.185583
0.215767
-0.245428
0.24622
-0.250227
0.280899
-0.273107
0.311059
-0.243967
0.340561
-0.237469
0.369424
-0.226949
0.395361
-0.203976
0.419279
-0.185972
0.441233
-0.166467
0.460856
-0.146205
0.478615
-0.128274
0.494622
-0.110361
0.508704
-0.0932225
0.52105
-0.0767254
0.531791
-0.0602651
0.540651
-0.0439596
0.547722
-0.0271393
0.552864
-0.0104099
0.556126
0.00712392
0.557407
0.024442
0.556623
0.0424111
0.554015
0.0587321
0.549645
0.0735094
0.543815
0.0838087
0.536781
0.0882526
0.528711
0.0914828
0.519776
0.0961052
0.51002
0.100727
0.499436
0.105825
0.488127
0.111358
0.476045
0.117403
0.463159
0.1241
0.449427
0.13201
0.434723
0.142107
0.418817
0.156219
0.401089
0.179694
0.380986
0.217175
0.355818
0.313534
0.317356
0.42347
-0.155847
-0.247712
-0.125197
-0.259918
-0.0865807
-0.319819
-0.048419
-0.325695
-0.00952996
-0.337182
0.0304771
-0.348312
0.0686233
-0.338466
0.102288
-0.308157
0.131614
-0.276334
0.157269
-0.246254
0.178949
-0.21352
0.197446
-0.185369
0.213731
-0.163173
0.228232
-0.144051
0.241444
-0.129015
0.25378
-0.117091
0.26543
-0.107517
0.276555
-0.0999256
0.287292
-0.0941459
0.297679
-0.0894791
0.307726
-0.0857715
0.317476
-0.0823177
0.326849
-0.0782761
0.335646
-0.0711723
0.343588
-0.0614201
0.350537
-0.0518998
0.356457
-0.0426476
0.361384
-0.0337807
0.365294
-0.0251703
0.368213
-0.0169004
0.370177
-0.00893321
0.371168
-0.00123461
0.371237
0.00635433
0.370333
0.0141704
0.368333
0.0229664
0.364899
0.0352106
0.359318
0.0536145
0.350314
0.100679
0.334645
0.18265
-0.186365
0.218122
-0.277185
0.250155
-0.28226
0.286763
-0.309714
0.318598
-0.275801
0.349712
-0.268583
0.380044
-0.257281
0.407126
-0.231058
0.432264
-0.21111
0.455245
-0.189449
0.475801
-0.16676
0.494341
-0.146814
0.510973
-0.126993
0.525838
-0.108088
0.539011
-0.0898983
0.550329
-0.0715825
0.559948
-0.0535789
0.567724
-0.0349146
0.573638
-0.0163245
0.577548
0.00321487
0.579487
0.0225025
0.579409
0.0424892
0.577372
0.0607699
0.573572
0.0773085
0.568247
0.0891338
0.56161
0.0948901
0.553844
0.0992488
0.545031
0.104918
0.535249
0.110509
0.52462
0.116454
0.513101
0.122877
0.500753
0.129752
0.487544
0.137309
0.473388
0.146166
0.458146
0.157348
0.441555
0.17281
0.423039
0.198209
0.401943
0.238272
0.377154
0.338322
0.340609
0.460026
-0.154957
-0.27912
-0.122795
-0.29208
-0.0821013
-0.360513
-0.0420036
-0.365793
-0.0011457
-0.37804
0.0407421
-0.3902
0.0806622
-0.378386
0.11573
-0.343224
0.146135
-0.306739
0.172524
-0.272643
0.194688
-0.235684
0.213418
-0.204098
0.229794
-0.179549
0.244265
-0.158522
0.257407
-0.142158
0.269667
-0.12935
0.281278
-0.119127
0.292426
-0.111074
0.303212
-0.104931
0.313725
-0.0999929
0.323989
-0.0960351
0.33397
-0.0922992
0.343604
-0.08791
0.352734
-0.080302
0.361028
-0.0697145
0.368329
-0.0592007
0.374617
-0.0489355
0.379865
-0.0390295
0.38409
-0.0293944
0.387269
-0.0200795
0.389431
-0.0110953
0.390614
-0.00241835
0.390789
0.00617982
0.389948
0.0150111
0.387937
0.0249768
0.384453
0.0386948
0.378736
0.0593327
0.369781
0.109634
0.354727
0.197703
-0.187451
0.221006
-0.31074
0.254798
-0.316052
0.293443
-0.34836
0.326881
-0.309239
0.359605
-0.301307
0.391519
-0.289194
0.4201
-0.259639
0.44637
-0.23738
0.470419
-0.213498
0.49187
-0.188212
0.511298
-0.166242
0.528782
-0.144477
0.544253
-0.12356
0.558036
-0.103681
0.570111
-0.0836566
0.580401
-0.0638695
0.588821
-0.043334
0.595353
-0.0228568
0.599929
-0.00136109
0.602545
0.0198873
0.60313
0.0419042
0.601745
0.0621556
0.59852
0.0805334
0.593687
0.0939673
0.587434
0.101143
0.579942
0.106741
0.571283
0.113578
0.561576
0.120215
0.550858
0.127172
0.539198
0.134538
0.526595
0.142355
0.513036
0.150869
0.498487
0.160716
0.482741
0.173095
0.465547
0.190006
0.446337
0.217421
0.424248
0.260364
0.399111
0.363465
0.363769
0.495383
-0.154402
-0.312169
-0.120512
-0.325969
-0.0776797
-0.403346
-0.0354833
-0.407989
0.00742157
-0.420945
0.051363
-0.434141
0.0932371
-0.42026
0.129815
-0.379802
0.161406
-0.33833
0.188711
-0.299948
0.211464
-0.258438
0.230524
-0.223158
0.247025
-0.19605
0.261524
-0.173021
0.274614
-0.155248
0.286804
-0.14154
0.298342
-0.130665
0.309462
-0.122194
0.320293
-0.115762
0.330886
-0.110586
0.341282
-0.106432
0.351454
-0.102471
0.36137
-0.0978255
0.370803
-0.0897358
0.379439
-0.0783502
0.387094
-0.0668557
0.39372
-0.0555624
0.399316
-0.0446254
0.403822
-0.0339012
0.407283
-0.0235408
0.409679
-0.0134919
0.411029
-0.00376869
0.411346
0.00586186
0.410555
0.0158014
0.408559
0.0269717
0.405013
0.0422403
0.399186
0.0651587
0.390345
0.118472
0.375927
0.21212
-0.189017
0.224285
-0.346008
0.259937
-0.351703
0.30074
-0.389163
0.336029
-0.344529
0.370504
-0.335781
0.404056
-0.322746
0.434053
-0.289637
0.461653
-0.26498
0.48676
-0.238605
0.509192
-0.210644
0.529448
-0.186498
0.547661
-0.16269
0.56394
-0.139839
0.578416
-0.118157
0.591094
-0.0963346
0.601967
-0.0747424
0.611043
-0.0524094
0.618247
-0.0300612
0.62347
-0.00658389
0.626643
0.0167143
0.627845
0.0407025
0.627031
0.0629696
0.624362
0.0832031
0.620068
0.0982608
0.614302
0.106908
0.607105
0.113938
0.598651
0.122032
0.589001
0.129865
0.578242
0.13793
0.566449
0.14633
0.553625
0.15518
0.539743
0.164751
0.524756
0.175703
0.508507
0.189343
0.490731
0.207783
0.470878
0.237273
0.447989
0.283253
0.422248
0.389205
0.387653
0.529984
-0.154053
-0.347133
-0.118496
-0.361526
-0.0732959
-0.448546
-0.0289046
-0.452381
0.0162494
-0.466099
0.0624622
-0.480354
0.106311
-0.464109
0.1446
-0.418091
0.177501
-0.371231
0.205823
-0.32827
0.229262
-0.281877
0.248737
-0.242632
0.265478
-0.212791
0.280054
-0.187596
0.29312
-0.168314
0.305243
-0.153664
0.316708
-0.14213
0.327772
-0.133258
0.338581
-0.126572
0.349227
-0.121231
0.359722
-0.116926
0.370072
-0.112822
0.380204
-0.107958
0.389936
-0.0994676
0.398891
-0.0873048
0.406886
-0.0748516
0.413857
-0.0625334
0.419762
-0.0505298
0.424592
-0.0387316
0.42833
-0.0272782
0.43097
-0.0161322
0.432524
-0.0053226
0.432969
0.00541637
0.432266
0.0165041
0.430273
0.028965
0.426704
0.0458094
0.420795
0.0710681
0.41203
0.127237
0.398298
0.225853
-0.190815
0.228029
-0.383222
0.265645
-0.389318
0.308746
-0.432264
0.345924
-0.381707
0.382181
-0.372037
0.41749
-0.358055
0.449032
-0.321179
0.477943
-0.293891
0.504279
-0.264941
0.527702
-0.234067
0.548918
-0.207714
0.567909
-0.181682
0.584891
-0.15682
0.600031
-0.133298
0.613243
-0.109546
0.624784
-0.0862832
0.634467
-0.0620924
0.64225
-0.037844
0.648109
-0.0124422
0.651932
0.0128916
0.653702
0.0389324
0.653488
0.0631844
0.651383
0.0853075
0.647588
0.102056
0.642236
0.11226
0.635364
0.12081
0.627145
0.130252
0.617618
0.139392
0.606852
0.148696
0.594939
0.158244
0.581885
0.168235
0.567698
0.178938
0.552283
0.191118
0.535553
0.206074
0.517192
0.226146
0.496707
0.257759
0.473071
0.306892
0.446773
0.415508
0.412741
0.564027
-0.154066
-0.383882
-0.11647
-0.399122
-0.0688847
-0.496131
-0.0221161
-0.499149
0.0253585
-0.513573
0.0739108
-0.528906
0.120028
-0.510226
0.160112
-0.458174
0.194491
-0.40561
0.223931
-0.35771
0.248164
-0.30611
0.268125
-0.262593
0.28516
-0.229826
0.299856
-0.202292
0.312927
-0.181384
0.325011
-0.165748
0.336408
-0.153527
0.347384
-0.144234
0.358156
-0.137343
0.368817
-0.131892
0.379382
-0.127491
0.389855
-0.123295
0.400199
-0.118302
0.410191
-0.109459
0.419446
-0.0965603
0.427766
-0.0831716
0.435071
-0.0698385
0.441317
-0.0567764
0.44646
-0.0438746
0.45048
-0.0312988
0.453361
-0.0190142
0.455105
-0.00706657
0.455706
0.00481479
0.455091
0.0171176
0.453126
0.0309292
0.449528
0.0494062
0.443571
0.0770246
0.434968
0.135839
0.421906
0.238913
-0.192917
0.232236
-0.422542
0.271875
-0.428958
0.317388
-0.477776
0.356522
-0.420841
0.39471
-0.410225
0.431969
-0.395314
0.465038
-0.354248
0.495391
-0.324245
0.52308
-0.29263
0.547602
-0.258589
0.569701
-0.229813
0.589536
-0.201516
0.607144
-0.174428
0.622953
-0.149106
0.636906
-0.123499
0.649003
-0.0983804
0.659276
-0.0723653
0.667618
-0.0461851
0.673952
-0.0187766
0.678332
0.00851172
0.680703
0.0365616
0.680999
0.062888
0.67944
0.0868668
0.67616
0.105337
0.67127
0.11715
0.6648
0.127281
0.65679
0.138262
0.647402
0.14878
0.636696
0.159401
0.624694
0.170245
0.611455
0.181474
0.596954
0.193439
0.581176
0.206896
0.563942
0.223308
0.544974
0.245114
0.523853
0.278879
0.49958
0.331165
0.472735
0.442353
0.439265
0.597501
-0.154164
-0.422634
-0.114684
-0.438602
-0.0644378
-0.546377
-0.0151816
-0.548405
0.0347879
-0.563543
0.0859128
-0.580031
0.134329
-0.558642
0.176399
-0.500245
0.212311
-0.441522
0.243023
-0.388421
0.268124
-0.33121
0.288697
-0.283167
0.306098
-0.247226
0.320981
-0.217175
0.334114
-0.194517
0.346159
-0.177792
0.357477
-0.164846
0.368393
-0.155149
0.379101
-0.14805
0.38973
-0.142522
0.400329
-0.13809
0.410918
-0.133883
0.421435
-0.12882
0.431659
-0.119683
0.441214
-0.106115
0.449839
-0.0917969
0.457466
-0.0774647
0.464022
-0.0633328
0.469476
-0.0493291
0.473771
-0.0355932
0.476913
-0.0221566
0.478883
-0.0090367
0.479625
0.00407248
0.479127
0.0176163
0.477208
0.0328482
0.473599
0.0530156
0.467621
0.0830029
0.459149
0.144311
0.446813
0.251249
-0.195374
0.236852
-0.46402
0.278622
-0.470727
0.326649
-0.525803
0.36785
-0.462042
0.408154
-0.450528
0.447367
-0.434527
0.482139
-0.38902
0.514048
-0.356154
0.54303
-0.321611
0.568646
-0.284206
0.591736
-0.252902
0.612442
-0.222222
0.630915
-0.192901
0.647348
-0.165539
0.661881
-0.138032
0.674551
-0.111051
0.685363
-0.0831774
0.694249
-0.0550709
0.701217
-0.0257442
0.706104
0.00362515
0.708959
0.033707
0.709829
0.0620182
0.708758
0.087938
0.705966
0.108129
0.701508
0.121608
0.695404
0.133386
0.687698
0.145967
0.678478
0.158
0.667814
0.170066
0.655757
0.182303
0.642363
0.194868
0.627607
0.208196
0.611426
0.223077
0.593709
0.241025
0.57418
0.264645
0.552445
0.300614
0.527521
0.356092
0.500196
0.469681
0.467294
0.63041
-0.154457
-0.463551
-0.11283
-0.480229
-0.059878
-0.599329
-0.00798974
-0.600293
0.0446293
-0.616162
0.0984466
-0.633848
0.149367
-0.609562
0.193517
-0.544395
0.231138
-0.479142
0.263181
-0.420464
0.289283
-0.357312
0.310511
-0.304394
0.328338
-0.265053
0.343468
-0.232305
0.356695
-0.207745
0.368749
-0.189846
0.380007
-0.176104
0.390838
-0.16598
0.401472
-0.158685
0.412064
-0.153114
0.422664
-0.14869
0.433311
-0.14453
0.443978
-0.139487
0.454442
-0.130146
0.464248
-0.115921
0.473156
-0.100705
0.481087
-0.0853961
0.487957
-0.0702023
0.493718
-0.0550912
0.498313
-0.0401885
0.501712
-0.0255558
0.503879
-0.0112045
0.504814
0.00313675
0.504419
0.0180103
0.502562
0.0347044
0.498966
0.0566106
0.492986
0.0889824
0.484707
0.152587
0.473126
0.262829
-0.198037
0.241738
-0.507721
0.285836
-0.514825
0.336544
-0.576511
0.379979
-0.505477
0.422442
-0.492991
0.463689
-0.475774
0.500315
-0.425646
0.533832
-0.389671
0.564194
-0.351973
0.591039
-0.311051
0.615257
-0.277121
0.636816
-0.243781
0.656049
-0.212134
0.673205
-0.182695
0.688329
-0.153156
0.70159
-0.124312
0.712931
-0.0945188
0.722369
-0.0645087
0.729792
-0.0331669
0.735224
-0.00180659
0.738572
0.0303593
0.739899
0.0606911
0.739349
0.0884885
0.737023
0.110455
0.733037
0.125594
0.727298
0.139125
0.719878
0.153387
0.710854
0.167024
0.700264
0.180656
0.6882
0.194366
0.674667
0.208401
0.65967
0.223193
0.643143
0.239604
0.624964
0.259203
0.604897
0.284712
0.58251
0.323
0.557001
0.3816
0.529243
0.497439
0.496876
0.66278
-0.154897
-0.506691
-0.111058
-0.524068
-0.055235
-0.655152
-0.000510953
-0.655018
0.0548873
-0.67156
0.111518
-0.690479
0.165148
-0.663193
0.211492
-0.590739
0.250951
-0.518601
0.284443
-0.453956
0.311601
-0.38447
0.333574
-0.326368
0.351924
-0.283402
0.36735
-0.247731
0.380719
-0.221115
0.392821
-0.201948
0.404047
-0.187329
0.414806
-0.176739
0.425359
-0.169237
0.43588
-0.163635
0.446471
-0.159281
0.457158
-0.155217
0.467944
-0.150274
0.478585
-0.140787
0.488624
-0.125961
0.497815
-0.109897
0.506032
-0.0936131
0.513214
-0.077384
0.519263
-0.0611409
0.524146
-0.0450711
0.527804
-0.0292139
0.530216
-0.0136166
0.531317
0.00203613
0.531041
0.0182859
0.529268
0.0364779
0.525696
0.0601833
0.519776
0.0949033
0.511682
0.160681
0.500835
0.273677
-0.201018
0.24712
-0.553823
0.293658
-0.561363
0.347055
-0.629907
0.392951
-0.551373
0.437585
-0.537624
0.481099
-0.519289
0.519573
-0.46412
0.554804
-0.424901
0.586703
-0.383873
0.614853
-0.339201
0.640054
-0.302322
0.662644
-0.26637
0.682638
-0.232128
0.700504
-0.200562
0.716352
-0.169004
0.730145
-0.138104
0.742053
-0.106427
0.751983
-0.0744383
0.759944
-0.0411282
0.765818
-0.00768077
0.769626
0.0265519
0.771464
0.0588537
0.77132
0.0886323
0.769449
0.112326
0.765868
0.129175
0.760505
0.144489
0.753405
0.160487
0.744601
0.175828
0.734165
0.191092
0.722095
0.206436
0.708455
0.222041
0.693232
0.238417
0.676374
0.256461
0.657776
0.277802
0.63714
0.305349
0.614188
0.345953
0.588096
0.407694
0.559888
0.52565
0.52808
0.694592
-0.155535
-0.552174
-0.109313
-0.57029
-0.0504055
-0.714059
0.00722853
-0.712652
0.0656199
-0.729951
0.125267
-0.750126
0.181645
-0.71957
0.230419
-0.639513
0.271793
-0.559975
0.306882
-0.489045
0.335207
-0.412795
0.358013
-0.349174
0.376929
-0.302318
0.392709
-0.263511
0.406277
-0.234683
0.418435
-0.214106
0.429667
-0.198562
0.440351
-0.187423
0.450821
-0.179707
0.461269
-0.174083
0.471819
-0.169831
0.482525
-0.165923
0.493411
-0.16116
0.504221
-0.151597
0.51448
-0.136219
0.523905
-0.119322
0.532386
-0.102094
0.539839
-0.0848372
0.546192
-0.0674943
0.551346
-0.0502257
0.555279
-0.0331471
0.557905
-0.0162428
0.559209
0.000731106
0.559094
0.0184004
0.557383
0.038188
0.5539
0.0636654
0.548033
0.10077
0.5402
0.168512
0.530103
0.283772
-0.204227
0.252858
-0.602454
0.301868
-0.610373
0.358328
-0.686367
0.406539
-0.599585
0.45369
-0.584775
0.49947
-0.565069
0.540048
-0.504698
0.577009
-0.461862
0.610488
-0.417353
0.639968
-0.368681
0.666443
-0.328797
0.689959
-0.289886
0.710887
-0.253056
0.729502
-0.219177
0.745974
-0.185475
0.760378
-0.152508
0.772795
-0.118844
0.783197
-0.084841
0.791581
-0.0495116
0.797927
-0.0140266
0.802217
0.0222621
0.804416
0.0566542
0.80471
0.0883382
0.803283
0.113754
0.800111
0.132347
0.795161
0.149439
0.788374
0.167275
0.77979
0.184412
0.769468
0.201413
0.757458
0.218446
0.743747
0.235752
0.728333
0.253831
0.711177
0.273617
0.692163
0.296815
0.671046
0.326465
0.64752
0.369477
0.620887
0.434327
0.592279
0.554258
0.560991
0.725881
-0.156274
-0.600127
-0.107548
-0.619016
-0.0454227
-0.776185
0.0152828
-0.773357
0.0768166
-0.791485
0.139656
-0.812965
0.199043
-0.778957
0.250299
-0.69077
0.29375
-0.603426
0.3305
-0.525794
0.360097
-0.442393
0.383821
-0.372897
0.403373
-0.32187
0.419582
-0.27972
0.433391
-0.248492
0.445667
-0.226382
0.456904
-0.209799
0.467549
-0.198068
0.477938
-0.190096
0.48833
-0.184475
0.498812
-0.180312
0.509528
-0.17664
0.520477
-0.172108
0.531431
-0.162551
0.541882
-0.146671
0.551514
-0.128953
0.56026
-0.110841
0.567979
-0.092556
0.574586
-0.0741011
0.580042
-0.0556822
0.584224
-0.0373289
0.587095
-0.0191135
0.588574
-0.00074775
0.58861
0.0183643
0.587036
0.0397622
0.583617
0.067085
0.577882
0.106505
0.570285
0.176109
0.560955
0.293104
-0.207721
0.258971
-0.653704
0.310654
-0.662056
0.370166
-0.745879
0.421096
-0.650514
0.470691
-0.634369
0.518997
-0.613375
0.561592
-0.547293
0.600502
-0.500772
0.635676
-0.452527
0.666636
-0.399641
0.694284
-0.356445
0.718947
-0.314549
0.740752
-0.274861
0.760157
-0.238581
0.777265
-0.202584
0.792302
-0.167544
0.805221
-0.131763
0.816101
-0.0957206
0.824979
-0.0583898
0.831723
-0.0207708
0.836389
0.0175967
0.839006
0.0540377
0.839691
0.0876536
0.838652
0.114793
0.835887
0.135112
0.831282
0.154044
0.824808
0.173749
0.816512
0.192708
0.806362
0.211564
0.794392
0.230416
0.780628
0.249516
0.765074
0.269386
0.747657
0.291034
0.72826
0.316211
0.706674
0.348052
0.682615
0.393536
0.655476
0.461467
0.626487