/*--------------------------------*- C++ -*----------------------------------*\
  =========                 |
  \\      /  F ield         | OpenFOAM: The Open Source CFD Toolbox
   \\    /   O peration     | Website:  https://openfoam.org
    \\  /    A nd           | Version:  13
     \\/     M anipulation  |
\*---------------------------------------------------------------------------*/
FoamFile
{
    format      ascii;
    class       volVectorField;
    location    "100";
    object      U;
}
// * * * * * * * * * * * * * * * * * * * * * * * * * * * * * * * * * * * * * //

dimensions      [0 1 -1 0 0 0 0];

internalField   nonuniform List<vector> 
10720
(
(0.583147 26.9554 1.1242e-17)
(2.30292 29.2294 -1.0381e-17)
(4.46156 31.4266 0)
(6.94711 33.1416 -3.65272e-16)
(9.70052 34.4601 4.09459e-16)
(12.6573 35.3358 3.0325e-16)
(15.6643 35.6654 4.23655e-16)
(18.629 35.4864 0)
(21.4738 34.8576 0)
(24.12 33.8155 0)
(26.5383 32.4415 1.13001e-16)
(28.7133 30.8126 0)
(30.6337 28.9841 2.28347e-15)
(32.2742 26.9705 0)
(33.6187 24.7964 0)
(34.6768 22.5058 0)
(35.4353 20.1153 -3.86991e-15)
(35.8971 17.675 -5.79659e-15)
(36.0433 15.2093 5.16514e-15)
(35.885 12.7788 0)
(35.406 10.4217 4.26048e-15)
(34.6436 8.21299 -8.36296e-15)
(33.646 6.20652 4.1722e-15)
(32.523 4.46743 -1.25259e-16)
(31.471 3.04486 0)
(30.5751 1.88829 1.66167e-15)
(29.7415 0.911336 2.57365e-17)
(28.8728 0.0730827 -7.29538e-16)
(27.9319 -0.649182 -2.66537e-15)
(26.9141 -1.27029 -9.6824e-15)
(25.822 -1.79708 4.31745e-15)
(24.6582 -2.2331 7.87379e-15)
(23.4202 -2.57944 6.79128e-15)
(22.0987 -2.83663 2.31964e-14)
(20.6464 -3.00015 -9.36761e-15)
(19.0263 -3.06804 -6.62645e-17)
(16.9393 -2.98762 2.08807e-17)
(14.5017 -2.75155 3.33922e-15)
(9.09166 -2.19813 1.4216e-14)
(-0.771274 24.5297 -2.00991e-18)
(-1.85483 21.7998 -1.54989e-17)
(-2.59835 18.7292 6.15387e-17)
(-2.87205 15.181 -1.71085e-16)
(-2.52233 11.5154 -5.75103e-16)
(-1.5184 7.88609 1.00613e-15)
(0.0320895 4.59603 5.22655e-15)
(1.87982 1.86418 2.61924e-15)
(3.89407 -0.506731 0)
(6.13571 -2.49595 0)
(8.38347 -3.92811 1.82845e-15)
(10.4535 -4.83348 6.77124e-16)
(12.294 -5.33977 -1.14131e-15)
(13.905 -5.56422 9.44166e-16)
(15.3077 -5.60469 1.56317e-15)
(16.5368 -5.52555 1.00958e-15)
(17.6246 -5.3741 1.28433e-15)
(18.6031 -5.17834 8.50902e-16)
(19.5029 -4.95754 0)
(20.3463 -4.714 0)
(21.1512 -4.44869 -1.15471e-15)
(21.9285 -4.15058 -5.19277e-17)
(22.6798 -3.80363 7.55658e-16)
(23.374 -3.37611 -5.0632e-16)
(23.9437 -2.86247 2.41255e-17)
(24.3703 -2.30082 0)
(24.6803 -1.71773 6.26853e-17)
(24.8899 -1.12911 0)
(25.0068 -0.546548 0)
(25.0227 0.0191443 -1.33538e-17)
(24.9222 0.559973 0)
(24.7207 1.06874 1.22789e-16)
(24.437 1.53926 1.66343e-16)
(24.0853 1.96621 4.3788e-16)
(23.6603 2.3462 1.52335e-16)
(23.1524 2.68065 -1.25444e-18)
(22.4371 2.96262 0)
(21.4586 3.15787 4.39955e-15)
(18.6695 3.30376 8.32552e-15)
(6.9268 23.4153 -8.69331e-18)
(8.75251 25.1561 1.01693e-18)
(10.9866 26.7457 0)
(13.5641 28.0791 0)
(16.347 29.0937 -1.20121e-16)
(19.338 29.7295 -2.90225e-16)
(22.4224 29.9405 0)
(25.4694 29.7454 0)
(28.4223 29.1538 6.33669e-16)
(31.194 28.2139 0)
(33.7284 26.9826 2.3626e-15)
(35.9996 25.5108 0)
(37.981 23.8466 8.54804e-16)
(39.69 22.0747 -8.41907e-16)
(41.1395 20.2214 1.70356e-15)
(42.304 18.3124 -3.41808e-15)
(43.1778 16.3612 3.66467e-15)
(43.7485 14.3925 3.35673e-15)
(44.015 12.4133 3.29001e-15)
(43.957 10.453 2.00136e-16)
(43.5728 8.53578 -3.43825e-15)
(42.8507 6.71448 3.26569e-15)
(41.8135 5.02911 -1.84114e-16)
(40.4941 3.53614 0)
(38.9983 2.28667 0)
(37.4715 1.22921 0)
(35.9721 0.28881 1.38958e-16)
(34.493 -0.543584 -3.10537e-17)
(33.037 -1.26981 1.95395e-15)
(31.6003 -1.89574 3.69129e-17)
(30.168 -2.42365 -2.919e-17)
(28.7229 -2.85568 -8.54064e-17)
(27.2463 -3.19381 4.66732e-15)
(25.7226 -3.44007 -7.82092e-15)
(24.1112 -3.59397 -4.22567e-17)
(22.3924 -3.65606 -8.97876e-15)
(20.3077 -3.58547 0)
(18.0777 -3.38261 -9.57936e-16)
(12.7328 -2.6308 7.55821e-15)
(5.39438 21.5661 1.15242e-17)
(4.07503 19.5159 -4.88414e-17)
(2.93651 17.1208 -5.79814e-16)
(2.09451 14.4093 7.16767e-16)
(1.72598 11.4791 0)
(1.91582 8.46964 -1.47772e-15)
(2.67028 5.58512 -1.06584e-15)
(3.88033 3.00304 -7.47111e-15)
(5.41278 0.750216 2.11663e-15)
(7.19166 -1.06768 -1.61501e-15)
(9.07095 -2.37307 2.05753e-15)
(10.9047 -3.23164 -5.89117e-16)
(12.6188 -3.7523 0)
(14.1812 -4.02662 -3.91927e-16)
(15.5827 -4.13759 5.47891e-17)
(16.837 -4.13768 -8.70464e-16)
(17.9623 -4.06991 0)
(18.9824 -3.95771 0)
(19.9213 -3.81786 -8.93645e-17)
(20.802 -3.64659 8.59995e-17)
(21.64 -3.44119 -1.00606e-15)
(22.4475 -3.18413 -1.07173e-16)
(23.2261 -2.85474 4.66992e-17)
(23.9519 -2.41545 5.00202e-16)
(24.5697 -1.87946 -3.31614e-16)
(25.0547 -1.31479 -2.33871e-16)
(25.4233 -0.750424 0)
(25.6887 -0.197246 0)
(25.8535 0.338279 0)
(25.9291 0.847376 8.69655e-18)
(25.9386 1.32293 0)
(25.8771 1.76227 0)
(25.7351 2.16446 -2.41483e-16)
(25.5074 2.52867 -1.2124e-16)
(25.1868 2.85678 -1.22533e-16)
(24.7835 3.15443 5.1008e-16)
(24.1951 3.42013 -1.91642e-15)
(23.6195 3.64946 -3.39388e-15)
(21.5176 3.70374 -5.65085e-15)
(8.38947 21.5843 -1.92636e-18)
(9.71756 23.1081 2.69364e-18)
(11.3368 24.5937 -3.41548e-18)
(13.2039 25.9638 -3.23022e-17)
(15.2681 27.104 -1.54273e-16)
(17.5299 27.99 5.46019e-16)
(19.9167 28.5797 -3.84961e-16)
(22.3546 28.8357 -4.62308e-16)
(24.7894 28.7553 6.15493e-18)
(27.1632 28.3488 -6.10789e-16)
(29.4239 27.6356 5.73486e-16)
(31.5393 26.6458 -1.49556e-15)
(33.4807 25.4115 -7.19417e-16)
(35.2324 23.9586 0)
(36.7757 22.3203 -1.73069e-15)
(38.1176 20.524 3.49921e-15)
(39.2697 18.5856 0)
(40.2144 16.5482 -6.65565e-15)
(40.943 14.4415 -3.33389e-15)
(41.4297 12.3179 3.89656e-16)
(41.6632 10.2157 -3.86057e-16)
(41.6233 8.20262 -1.75407e-16)
(41.3116 6.32784 -2.49363e-15)
(40.7352 4.65329 1.25351e-15)
(39.9428 3.22343 0)
(39.0082 1.98333 1.09609e-15)
(37.9505 0.865504 -1.29477e-16)
(36.7625 -0.129942 0)
(35.4601 -0.999468 1.72181e-15)
(34.0695 -1.74684 3.19532e-15)
(32.6107 -2.37446 -5.63171e-15)
(31.0972 -2.88593 -4.84427e-15)
(29.5316 -3.28593 -1.03659e-16)
(27.9098 -3.57878 -6.86377e-15)
(26.1973 -3.76631 -5.48598e-15)
(24.3756 -3.84771 7.82068e-15)
(22.2046 -3.78964 0)
(19.9073 -3.55009 -7.41491e-16)
(15.013 -2.88805 -1.14395e-14)
(7.30751 19.9817 -1.60495e-17)
(6.36368 18.2337 -5.77292e-17)
(5.58262 16.1805 2.3237e-16)
(4.96779 13.8826 0)
(4.6637 11.4211 4.23236e-16)
(4.7197 8.86721 0)
(5.16087 6.35605 3.01157e-15)
(5.96025 4.02831 1.66893e-15)
(7.07999 1.96187 1.43363e-15)
(8.4503 0.224263 0)
(9.94696 -1.14546 -2.10432e-15)
(11.4631 -2.16852 -4.49474e-16)
(12.9328 -2.89778 2.03977e-15)
(14.3174 -3.38889 0)
(15.5975 -3.69508 -9.44398e-16)
(16.7725 -3.86077 -2.85334e-16)
(17.8504 -3.92384 1.17175e-15)
(18.845 -3.91024 6.05306e-16)
(19.7734 -3.83846 1.6508e-16)
(20.6526 -3.71364 -9.02223e-17)
(21.4953 -3.53806 9.18454e-16)
(22.3102 -3.30287 0)
(23.0971 -2.99422 0)
(23.836 -2.58971 2.41892e-17)
(24.4825 -2.10282 0)
(25.0127 -1.5827 4.90987e-16)
(25.4374 -1.04881 -6.21808e-18)
(25.7682 -0.508823 -2.44851e-17)
(26.0086 0.0295802 0)
(26.1606 0.556485 2.86946e-18)
(26.2296 1.06472 -1.36946e-17)
(26.2209 1.54748 0)
(26.1368 1.99877 1.0077e-16)
(25.9773 2.41352 0)
(25.7309 2.79025 0)
(25.3977 3.13011 3.94973e-17)
(24.8658 3.43345 -5.61385e-17)
(24.265 3.65995 3.3922e-15)
(22.3899 3.71822 1.09559e-14)
(10.8538 19.8033 -1.28189e-17)
(12.0758 21.1041 -1.13507e-17)
(13.5465 22.3766 2.45956e-18)
(15.2421 23.545 -4.17676e-18)
(17.1174 24.5204 0)
(19.179 25.2851 0)
(21.3714 25.7946 -6.47763e-16)
(23.6345 26.0137 7.84219e-16)
(25.9223 25.9349 0)
(28.1797 25.5597 -9.71606e-16)
(30.3556 24.9013 -1.24035e-15)
(32.4115 23.9822 -1.17744e-15)
(34.3135 22.8303 1.41e-15)
(36.0341 21.4763 1.33405e-15)
(37.5518 19.954 0)
(38.8541 18.2957 2.1325e-15)
(39.9129 16.5444 7.4102e-16)
(40.7148 14.7349 5.99192e-15)
(41.2554 12.8935 3.63784e-16)
(41.539 11.0487 -3.60563e-16)
(41.5723 9.23131 3.05426e-15)
(41.3705 7.4852 -5.00522e-16)
(40.9615 5.85072 2.72852e-15)
(40.382 4.37199 1.14028e-15)
(39.6885 3.08045 -6.7566e-17)
(38.9379 1.93988 -9.91016e-16)
(38.1338 0.897017 7.32172e-18)
(37.2437 -0.0525455 -7.34807e-18)
(36.2483 -0.905313 -1.6504e-15)
(35.1403 -1.66167 -4.36792e-17)
(33.9158 -2.31773 2.75437e-15)
(32.5763 -2.86898 -4.68387e-15)
(31.1247 -3.31233 -3.77703e-15)
(29.5648 -3.64586 -2.76854e-18)
(27.8741 -3.86725 4.98862e-15)
(26.0429 -3.97045 0)
(23.8538 -3.92565 4.00746e-15)
(21.4917 -3.64591 6.39316e-16)
(16.8746 -3.02888 4.75273e-15)
(9.83194 18.4441 -2.79791e-17)
(8.92125 16.9733 7.78905e-17)
(8.13268 15.2425 3.31779e-16)
(7.48378 13.2906 0)
(7.09742 11.1927 -3.74497e-16)
(7.00978 8.99597 0)
(7.24387 6.8005 -2.28795e-15)
(7.77851 4.72032 -9.55932e-17)
(8.59011 2.82892 1.06682e-15)
(9.63391 1.18578 9.42317e-16)
(10.8236 -0.167294 3.21355e-17)
(12.0801 -1.22647 1.59333e-15)
(13.3466 -2.02082 -1.02574e-15)
(14.5812 -2.58949 3.26487e-16)
(15.757 -2.97274 1.10883e-15)
(16.8626 -3.21024 1.2164e-15)
(17.8964 -3.33594 -1.08576e-15)
(18.8631 -3.37629 6.74518e-18)
(19.773 -3.35044 0)
(20.6378 -3.26706 1.11459e-15)
(21.4674 -3.12878 5.37965e-17)
(22.2679 -2.92939 -8.22572e-16)
(23.0387 -2.6573 0)
(23.7629 -2.29507 2.29948e-17)
(24.4037 -1.84989 0)
(24.9378 -1.36089 -2.33696e-16)
(25.3713 -0.850997 0)
(25.7144 -0.331936 2.2983e-17)
(25.9713 0.186266 -5.62525e-19)
(26.1444 0.693189 2.62855e-19)
(26.2382 1.17976 1.25228e-17)
(26.258 1.63867 3.20103e-19)
(26.2072 2.06617 0)
(26.0877 2.45995 2.8644e-17)
(25.8902 2.82036 1.02052e-18)
(25.6145 3.14763 -5.28496e-16)
(25.1546 3.44372 3.94361e-15)
(24.6064 3.64042 1.00091e-17)
(22.9206 3.69288 0)
(12.4473 18.4385 -1.77619e-17)
(13.4866 19.5896 -4.58018e-18)
(14.7428 20.736 4.44108e-18)
(16.1834 21.8124 1.00899e-16)
(17.7694 22.7379 -4.04311e-17)
(19.5224 23.5074 -1.66689e-16)
(21.3965 24.0797 2.76467e-16)
(23.3455 24.4189 0)
(25.3398 24.5138 1.11272e-15)
(27.3338 24.3562 5.25189e-16)
(29.2866 23.9461 0)
(31.1648 23.2928 1.12929e-15)
(32.9348 22.4119 -5.98538e-16)
(34.5679 21.3221 1.66565e-15)
(36.041 20.0459 0)
(37.3331 18.607 -2.78646e-15)
(38.4295 17.025 2.66627e-15)
(39.3218 15.3169 -1.63793e-16)
(39.9948 13.5135 0)
(40.4328 11.6582 2.8959e-15)
(40.6256 9.79631 -2.92518e-15)
(40.5714 7.9856 -1.49472e-16)
(40.2871 6.27903 -2.27742e-15)
(39.8071 4.7284 -2.09209e-15)
(39.1912 3.36968 0)
(38.5056 2.17688 0)
(37.7757 1.0997 -2.2669e-16)
(36.9909 0.125285 -2.53974e-17)
(36.1427 -0.747895 1.56703e-15)
(35.2252 -1.52425 -4.15915e-17)
(34.2256 -2.20415 4.15438e-17)
(33.1269 -2.7853 4.37999e-15)
(31.9098 -3.26433 0)
(30.5579 -3.63677 1.21576e-14)
(29.0366 -3.89638 -4.18071e-17)
(27.3313 -4.0306 0)
(25.2408 -4.00966 -2.97242e-17)
(22.9216 -3.71056 0)
(18.5322 -3.10857 -4.04193e-15)
(11.5717 17.2421 2.83874e-17)
(10.788 15.9597 -1.76095e-16)
(10.0887 14.4493 1.91285e-16)
(9.48597 12.747 2.97385e-16)
(9.08833 10.9222 -1.19015e-15)
(8.92342 9.00219 -1.5245e-15)
(9.01831 7.06008 1.78029e-15)
(9.36789 5.19383 -1.8475e-15)
(9.95821 3.4729 -8.28146e-16)
(10.7577 1.94422 -7.34705e-16)
(11.705 0.643573 1.41754e-15)
(12.7403 -0.417073 -1.35712e-15)
(13.8177 -1.2537 -5.92315e-16)
(14.8994 -1.89167 5.77149e-16)
(15.9574 -2.35696 -1.24647e-15)
(16.9759 -2.67968 2.29797e-16)
(17.9473 -2.88619 0)
(18.8704 -2.99855 -8.5906e-16)
(19.7495 -3.03346 3.0298e-16)
(20.5915 -3.00063 -1.1686e-15)
(21.4029 -2.90356 0)
(22.1874 -2.73889 7.13466e-16)
(22.9431 -2.4984 5.5564e-16)
(23.6547 -2.17059 -4.10004e-16)
(24.2911 -1.76135 0)
(24.8294 -1.30318 -2.56992e-16)
(25.2713 -0.81996 0)
(25.6247 -0.323575 0)
(25.8933 0.176407 0)
(26.0793 0.669742 1.67921e-17)
(26.1866 1.14752 0)
(26.2205 1.60313 0)
(26.1844 2.03146 -7.32346e-18)
(26.0811 2.42835 -2.76846e-17)
(25.9028 2.7924 0)
(25.651 3.12157 -5.78677e-16)
(25.2287 3.41739 6.46903e-17)
(24.7277 3.59736 0)
(23.2378 3.63916 -4.77302e-15)
(13.9203 17.2471 2.19683e-17)
(14.8599 18.267 -1.57071e-17)
(15.9918 19.2895 0)
(17.2846 20.2536 8.96603e-18)
(18.7007 21.0877 -9.70423e-17)
(20.2698 21.7928 1.56844e-16)
(21.952 22.33 4.40546e-17)
(23.7101 22.6671 -6.9598e-16)
(25.5235 22.791 -8.72035e-17)
(27.3545 22.69 1.07047e-15)
(29.168 22.3595 -3.82723e-16)
(30.9343 21.8023 8.70566e-16)
(32.6202 21.0273 4.36424e-16)
(34.1963 20.0476 3.17267e-16)
(35.6369 18.8811 0)
(36.9176 17.5488 -6.0502e-16)
(38.0181 16.0744 -1.33935e-15)
(38.9139 14.4945 -4.97324e-15)
(39.5867 12.8437 1.46887e-15)
(40.0262 11.1534 -1.86599e-15)
(40.2272 9.45789 -2.92303e-16)
(40.193 7.79827 0)
(39.9388 6.21732 2.03672e-15)
(39.4951 4.75734 1.29761e-16)
(38.9119 3.45085 -5.80018e-17)
(38.246 2.28571 -8.08402e-16)
(37.5254 1.22539 1.86504e-16)
(36.7499 0.259766 3.90443e-16)
(35.9205 -0.609816 -1.46152e-15)
(35.0424 -1.38597 -7.80757e-17)
(34.1152 -2.07006 2.48951e-15)
(33.1313 -2.66127 4.04246e-15)
(32.0737 -3.15771 0)
(30.9185 -3.55542 -1.736e-17)
(29.6159 -3.84692 -4.52218e-15)
(28.1321 -4.01463 0)
(26.2572 -4.0263 -7.06161e-15)
(24.1235 -3.72912 0)
(20.0214 -3.15094 3.65254e-15)
(13.1206 16.1905 -2.83695e-17)
(12.4011 15.0652 7.15185e-17)
(11.7452 13.7364 0)
(11.1654 12.2354 0)
(10.7572 10.6278 5.09137e-16)
(10.5407 8.92986 2.51676e-15)
(10.5405 7.19603 0)
(10.759 5.51305 -1.36268e-15)
(11.1873 3.94664 -1.30447e-15)
(11.8011 2.5319 1.3077e-15)
(12.5564 1.29889 -5.20029e-17)
(13.4076 0.263722 5.68172e-16)
(14.3195 -0.581736 3.03321e-17)
(15.2606 -1.25341 1.49015e-15)
(16.2046 -1.76733 1.33106e-15)
(17.1344 -2.14521 -1.24583e-15)
(18.0394 -2.40724 1.74447e-16)
(18.9139 -2.57164 -3.23839e-16)
(19.7572 -2.65302 1.49606e-16)
(20.5721 -2.66107 8.63887e-16)
(21.3614 -2.60012 1.11317e-16)
(22.1267 -2.46888 -7.91923e-17)
(22.8644 -2.26136 -4.72923e-16)
(23.561 -1.96971 0)
(24.1895 -1.59866 1.86171e-17)
(24.728 -1.17453 4.81949e-16)
(25.1745 -0.720159 -2.34714e-18)
(25.5347 -0.247888 2.32844e-18)
(25.8116 0.232215 0)
(26.0069 0.709292 -1.57784e-17)
(26.124 1.17378 0)
(26.1677 1.6179 0)
(26.1413 2.03592 6.18035e-18)
(26.0475 2.42358 8.01028e-17)
(25.8789 2.77929 0)
(25.6373 3.09942 5.39158e-16)
(25.2321 3.38516 -3.72954e-15)
(24.7505 3.54234 1.82194e-17)
(23.4167 3.56201 4.37153e-15)
(15.13 16.2329 5.9623e-19)
(15.9764 17.1478 -1.48428e-17)
(16.9953 18.0722 8.24096e-18)
(18.1538 18.9489 -8.02472e-18)
(19.4147 19.714 6.73207e-17)
(20.8129 20.3741 0)
(22.3122 20.8946 -3.0812e-16)
(23.8814 21.2463 4.64795e-18)
(25.5082 21.4174 -3.19793e-16)
(27.1605 21.3953 -6.4905e-16)
(28.8106 21.1718 0)
(30.4342 20.7452 -1.58163e-15)
(32.0012 20.1184 -1.36293e-15)
(33.4845 19.2983 -3.32167e-15)
(34.8585 18.2967 0)
(36.0981 17.1295 -2.05281e-15)
(37.1798 15.8167 -2.15528e-15)
(38.0844 14.3784 2.34665e-15)
(38.7951 12.8375 -2.30966e-15)
(39.2958 11.2271 2.14034e-15)
(39.5756 9.58595 2.63021e-16)
(39.6309 7.96128 -2.26436e-15)
(39.4703 6.40085 0)
(39.1174 4.94927 -1.94252e-15)
(38.6132 3.63888 1.13901e-16)
(38.0067 2.46391 8.45566e-16)
(37.3268 1.39492 0)
(36.5785 0.421417 -2.8932e-17)
(35.7657 -0.455525 6.20792e-17)
(34.8973 -1.23806 2.38652e-15)
(33.9801 -1.92783 -2.21144e-15)
(33.0168 -2.52481 -3.83982e-15)
(32.0041 -3.02843 3.25087e-15)
(30.9328 -3.43684 -5.902e-17)
(29.7648 -3.74463 4.32246e-15)
(28.4717 -3.93447 5.99892e-15)
(26.8439 -3.97473 3.41901e-15)
(25.0035 -3.69065 -9.77181e-18)
(21.3039 -3.15292 -4.14545e-18)
(14.404 15.2871 1.14421e-17)
(13.7475 14.2857 1.3766e-16)
(13.137 13.1011 1.8412e-16)
(12.5845 11.7613 -3.50666e-16)
(12.1761 10.329 -1.37627e-15)
(11.9274 8.81154 4.49334e-16)
(11.8614 7.25062 1.11872e-15)
(11.9854 5.72548 2.81451e-15)
(12.2931 4.29737 1.13055e-15)
(12.7653 2.99156 -1.05939e-15)
(13.3689 1.83343 -3.36259e-17)
(14.0689 0.839616 -5.08301e-16)
(14.8385 0.00543923 0)
(15.6522 -0.67916 -2.36678e-17)
(16.4872 -1.22358 -8.22989e-16)
(17.3277 -1.64298 3.58041e-16)
(18.1618 -1.95186 -3.51259e-16)
(18.9812 -2.16383 0)
(19.7822 -2.2904 5.27945e-16)
(20.5639 -2.34 -9.15021e-16)
(21.3265 -2.31661 0)
(22.0689 -2.21999 6.6254e-16)
(22.7868 -2.04604 0)
(23.4671 -1.78975 -2.42117e-17)
(24.0863 -1.45538 2.39707e-17)
(24.6232 -1.06448 -2.3781e-16)
(25.0732 -0.638429 -4.39153e-18)
(25.4396 -0.190163 -2.44031e-18)
(25.7244 0.269785 5.14406e-19)
(25.9287 0.730311 -2.75953e-17)
(26.0554 1.1814 -3.13423e-17)
(26.1087 1.61508 3.75148e-17)
(26.0915 2.02515 8.63295e-19)
(26.0064 2.40656 2.64733e-17)
(25.8459 2.7568 0)
(25.6116 3.07015 1.14179e-17)
(25.2184 3.3467 1.73107e-15)
(24.7474 3.4827 -1.04178e-17)
(23.5304 3.47612 4.00442e-15)
(16.1845 15.3413 4.35385e-18)
(16.96 16.1666 2.24732e-17)
(17.892 17.0043 0)
(18.9478 17.8005 -2.4135e-17)
(20.0898 18.4975 2.02641e-17)
(21.3556 19.1057 0)
(22.7124 19.5934 -1.14967e-16)
(24.1328 19.9346 9.06111e-16)
(25.6102 20.1189 -1.26703e-15)
(27.118 20.1333 4.0373e-16)
(28.6331 19.9685 5.5434e-16)
(30.1364 19.6199 2.01292e-15)
(31.6014 19.0864 1.44468e-15)
(33.0032 18.3704 1.7247e-15)
(34.3173 17.4792 4.5673e-16)
(35.5181 16.4242 1.50923e-15)
(36.5817 15.2211 2.06895e-15)
(37.4859 13.8905 2.00791e-15)
(38.2084 12.4614 -1.47849e-15)
(38.7323 10.9644 -4.52494e-15)
(39.0466 9.43367 0)
(39.1481 7.90812 8.30393e-17)
(39.0442 6.42938 1.76336e-15)
(38.7552 5.0371 1.84806e-15)
(38.3152 3.76144 -1.04922e-16)
(37.765 2.60364 -7.6289e-16)
(37.1315 1.54367 5.46748e-18)
(36.422 0.573576 -3.87277e-16)
(35.6404 -0.304272 4.07447e-17)
(34.7945 -1.09009 -4.47019e-15)
(33.8913 -1.78439 -7.61417e-18)
(32.9356 -2.38626 -6.02784e-17)
(31.9291 -2.89455 -3.11942e-15)
(30.8724 -3.30738 -5.87096e-17)
(29.7437 -3.62055 -4.03084e-15)
(28.5384 -3.81791 -1.1447e-14)
(27.0779 -3.87287 3.23293e-15)
(25.5266 -3.59883 5.46194e-16)
(22.3218 -3.10933 2.92828e-15)
(15.5145 14.4895 -5.0466e-17)
(14.9067 13.5913 -1.87032e-16)
(14.3326 12.5268 -1.34156e-16)
(13.804 11.3205 -3.40603e-16)
(13.3991 10.0335 7.68647e-16)
(13.1298 8.66557 -5.48648e-17)
(13.0181 7.25044 -2.78805e-15)
(13.0728 5.86205 -9.69494e-16)
(13.2894 4.55628 1.62734e-17)
(13.6526 3.35124 0)
(14.1362 2.26884 -9.06624e-16)
(14.7125 1.32476 8.44923e-16)
(15.361 0.51552 -8.12889e-16)
(16.0618 -0.165642 -4.15774e-16)
(16.7961 -0.723805 3.46407e-16)
(17.5501 -1.16939 3.44351e-16)
(18.3124 -1.51201 1.23162e-15)
(19.0738 -1.76109 -2.91153e-16)
(19.8284 -1.92518 -4.93817e-16)
(20.5731 -2.01102 0)
(21.3053 -2.02198 -7.45514e-16)
(22.0221 -1.9583 -5.50708e-16)
(22.718 -1.81709 -1.16871e-17)
(23.3805 -1.59536 -5.85772e-17)
(23.9884 -1.29707 -1.8547e-17)
(24.5215 -0.939639 2.80828e-16)
(24.9729 -0.542777 -5.11478e-18)
(25.3438 -0.119708 4.04256e-17)
(25.6351 0.318777 6.64458e-18)
(25.8476 0.761465 2.51973e-17)
(25.9832 1.198 -1.04886e-17)
(26.0456 1.61991 -9.31595e-17)
(26.0373 2.02036 -9.40158e-17)
(25.9606 2.39366 -9.57401e-17)
(25.8081 2.73655 -5.75878e-18)
(25.5811 3.0415 3.48846e-18)
(25.1997 3.30722 -1.76276e-15)
(24.7399 3.42299 -2.64453e-15)
(23.6199 3.39034 -3.68379e-15)
(17.0978 14.5522 -1.33777e-17)
(17.8129 15.3013 -8.57923e-18)
(18.6709 16.0643 -2.34038e-17)
(19.6391 16.791 1.93802e-17)
(20.6801 17.4283 4.10186e-17)
(21.8325 17.9896 -1.27617e-16)
(23.066 18.4462 4.29089e-16)
(24.3561 18.7747 0)
(25.7 18.9672 3.86185e-16)
(27.075 19.0111 1.2388e-17)
(28.4626 18.8967 -4.75522e-16)
(29.8479 18.6184 -1.85614e-15)
(31.2082 18.1724 -7.56029e-16)
(32.5214 17.5582 0)
(33.7652 16.779 0)
(34.915 15.8424 0)
(35.9467 14.7606 0)
(36.8378 13.5508 -1.93881e-15)
(37.5674 12.233 1.93463e-15)
(38.1171 10.834 1.89414e-15)
(38.4731 9.38665 -1.52449e-15)
(38.6291 7.92965 1.33709e-15)
(38.5884 6.50453 -1.3784e-15)
(38.367 5.15077 -1.00829e-16)
(37.9929 3.8979 -4.59236e-17)
(37.5008 2.75111 7.71987e-16)
(36.9166 1.69682 1.6612e-16)
(36.2502 0.72885 0)
(35.5065 -0.150094 0)
(34.693 -0.939016 3.72741e-17)
(33.8159 -1.63775 0)
(32.8794 -2.24473 3.32147e-15)
(31.8847 -2.75804 -2.94718e-15)
(30.8339 -3.17488 -4.7454e-15)
(29.7108 -3.49061 7.5125e-15)
(28.5252 -3.68803 5.44629e-15)
(27.1311 -3.7454 -3.08366e-15)
(25.761 -3.46858 -1.0605e-15)
(23.0504 -3.01896 -2.79821e-15)
(16.4763 13.7799 0)
(15.9106 12.9683 5.25149e-17)
(15.369 12.0044 2.56192e-16)
(14.8632 10.9106 -1.10071e-15)
(14.4652 9.74559 9.6374e-16)
(14.1832 8.50384 -7.60792e-16)
(14.0392 7.21309 9.82735e-18)
(14.0428 5.94356 7.44207e-16)
(14.19 4.74594 7.86235e-16)
(14.4685 3.6334 0)
(14.8566 2.62461 3.76486e-16)
(15.3319 1.73398 -1.14964e-15)
(15.8783 0.958121 1.81762e-15)
(16.4804 0.291887 3.30208e-16)
(17.1232 -0.267598 -6.70925e-16)
(17.7955 -0.727265 -6.23292e-16)
(18.487 -1.09316 -5.71429e-16)
(19.1888 -1.37124 0)
(19.8942 -1.56713 0)
(20.5983 -1.68551 0)
(21.2968 -1.72876 7.01384e-16)
(21.9853 -1.697 0)
(22.6572 -1.58806 -4.46864e-16)
(23.3003 -1.40021 -5.67264e-17)
(23.8951 -1.13704 -3.34746e-16)
(24.4223 -0.812814 -2.49031e-16)
(24.8734 -0.445334 0)
(25.2475 -0.0478606 -3.36488e-17)
(25.5445 0.368668 -7.07897e-18)
(25.7643 0.792956 1.29844e-18)
(25.9083 1.21436 8.72843e-17)
(25.9795 1.62397 -1.79536e-17)
(25.98 2.01448 9.09432e-17)
(25.9117 2.37949 -1.40694e-16)
(25.7674 2.7149 0)
(25.5479 3.01137 -1.11919e-17)
(25.1788 3.26603 -3.88637e-17)
(24.732 3.36341 2.51637e-15)
(23.701 3.30643 -2.17498e-17)
(17.9004 13.8451 1.54395e-17)
(18.5647 14.5279 0)
(19.3606 15.2252 6.21411e-17)
(20.2553 15.8898 -2.93478e-17)
(21.2121 16.4727 -2.65973e-17)
(22.2696 16.989 1.19673e-16)
(23.3993 17.4126 -1.89228e-16)
(24.5788 17.7233 -2.32376e-16)
(25.8082 17.9141 0)
(27.0678 17.9737 -4.11345e-16)
(28.3426 17.8928 -4.42547e-16)
(29.6215 17.6652 4.38915e-16)
(30.8849 17.2858 1.64515e-15)
(32.1142 16.7514 6.61367e-16)
(33.2892 16.0625 -2.00238e-15)
(34.3865 15.2235 -1.4445e-15)
(35.3834 14.2431 1.13794e-15)
(36.257 13.1348 8.40466e-16)
(36.986 11.9174 -4.22932e-16)
(37.5501 10.6165 4.22396e-16)
(37.9344 9.2617 1.07194e-15)
(38.1311 7.88752 1.99415e-16)
(38.1414 6.53161 -1.87548e-16)
(37.9776 5.23059 -1.24752e-15)
(37.6624 4.01253 0)
(37.2244 2.88574 -6.54028e-16)
(36.6874 1.84307 -3.12207e-16)
(36.0631 0.881307 -2.8795e-16)
(35.3576 0.00412319 -1.06475e-15)
(34.5784 -0.786034 3.98391e-15)
(33.7318 -1.48798 1.63929e-15)
(32.8217 -2.09949 4.13807e-18)
(31.8485 -2.61779 3.75991e-17)
(30.8132 -3.03904 0)
(29.6996 -3.35765 -3.54294e-15)
(28.5197 -3.55411 0)
(27.1437 -3.60972 0)
(25.8365 -3.32095 5.11999e-16)
(23.5268 -2.89132 5.34254e-18)
(17.3199 13.1413 -5.17946e-17)
(16.7901 12.4037 1.74662e-16)
(16.2771 11.5261 1.19741e-17)
(15.7923 10.5285 2.45813e-16)
(15.403 9.46744 -8.78158e-16)
(15.1142 8.33359 6.369e-16)
(14.9471 7.15041 3.12651e-17)
(14.9126 5.98501 -6.22388e-16)
(15.0067 4.88318 -6.09866e-16)
(15.2188 3.85465 -6.49463e-16)
(15.5306 2.9157 -1.28617e-15)
(15.9233 2.07929 0)
(16.384 1.34149 -6.5845e-16)
(16.9008 0.697744 -2.31051e-17)
(17.4616 0.146524 0)
(18.058 -0.317205 -5.52123e-16)
(18.6814 -0.69679 -2.6298e-16)
(19.3238 -0.995622 -2.47053e-16)
(19.9784 -1.21685 8.50345e-16)
(20.6396 -1.36308 7.57328e-16)
(21.3019 -1.43537 -7.81389e-17)
(21.9597 -1.43345 5.81946e-16)
(22.6057 -1.35545 1.13595e-16)
(23.2278 -1.20024 -5.47917e-17)
(23.8079 -0.971089 2.99095e-16)
(24.3273 -0.679686 1.81546e-17)
(24.7763 -0.341793 0)
(25.152 0.0295917 0)
(25.4534 0.423449 -1.41902e-18)
(25.6798 0.82851 3.40005e-18)
(25.8317 1.23393 -1.05128e-16)
(25.9113 1.63039 -1.75357e-17)
(25.9204 2.01014 1.50608e-16)
(25.8605 2.36606 1.34574e-16)
(25.7244 2.69323 7.69741e-18)
(25.5128 2.98067 3.6827e-18)
(25.1567 3.2238 3.30844e-15)
(24.7244 3.30416 -2.41231e-15)
(23.778 3.22528 2.03119e-17)
(18.6095 13.2061 5.93925e-18)
(19.2298 13.8311 0)
(19.972 14.4703 -3.62223e-17)
(20.8034 15.0796 0)
(21.6877 15.6137 -6.55825e-17)
(22.6634 16.0886 6.34994e-17)
(23.7032 16.4807 1.43889e-16)
(24.7866 16.7719 2.19048e-16)
(25.9153 16.957 0)
(27.0721 17.0256 -2.71671e-16)
(28.245 16.9697 4.53079e-16)
(29.4257 16.7825 -9.30945e-16)
(30.5976 16.4584 -5.21507e-16)
(31.7449 15.9931 -5.3121e-16)
(32.8499 15.3849 1.27644e-15)
(33.8916 14.6354 1.38081e-15)
(34.8481 13.7506 -1.47893e-15)
(35.6975 12.741 -1.47001e-15)
(36.4186 11.6219 0)
(36.9914 10.4145 3.87922e-16)
(37.3994 9.14534 -7.50995e-16)
(37.6329 7.84687 1.8482e-16)
(37.6905 6.55457 3.96156e-18)
(37.5807 5.30338 2.94994e-15)
(37.3215 4.12019 -1.61313e-16)
(36.9362 3.01517 9.77523e-17)
(36.4461 1.98607 2.89799e-16)
(35.8637 1.03239 3.06746e-16)
(35.1962 0.158681 9.1984e-16)
(34.4513 -0.631274 -1.84116e-15)
(33.6357 -1.33527 -1.50875e-15)
(32.7535 -1.95039 -5.91204e-15)
(31.8056 -2.47314 5.08471e-15)
(30.7924 -2.8987 -7.19457e-17)
(29.6973 -3.22057 3.30958e-15)
(28.5303 -3.41674 -1.02733e-16)
(27.1709 -3.47084 5.70224e-17)
(25.8654 -3.16965 4.87505e-18)
(23.8315 -2.73946 -2.16619e-15)
(18.0648 12.5622 2.56314e-17)
(17.5667 11.8884 -9.00588e-17)
(17.0793 11.0855 1.76887e-16)
(16.6142 10.1714 0)
(16.2346 9.20015 5.12855e-16)
(15.9431 8.15955 0)
(15.7599 7.07062 0)
(15.6967 5.99696 0)
(15.7497 4.98029 1.13544e-15)
(15.9094 4.02793 -5.5964e-16)
(16.16 3.15429 6.32101e-16)
(16.4849 2.37108 0)
(16.8739 1.67361 0)
(17.3172 1.05726 -5.68221e-16)
(17.8055 0.521086 0)
(18.3325 0.0612463 5.15002e-16)
(18.8916 -0.324239 1.1589e-17)
(19.476 -0.636661 0)
(20.0795 -0.877117 -6.08776e-16)
(20.6963 -1.0465 -8.99286e-16)
(21.3205 -1.1446 -6.24172e-16)
(21.9455 -1.1704 -5.39949e-16)
(22.5638 -1.12184 9.19963e-16)
(23.1636 -0.997994 0)
(23.7272 -0.801714 3.0342e-16)
(24.237 -0.542454 2.77424e-16)
(24.6819 -0.234071 1.02288e-16)
(25.0579 0.11095 0)
(25.3627 0.481642 -7.34841e-18)
(25.5947 0.866824 -4.31563e-17)
(25.7538 1.25557 1.17758e-16)
(25.8416 1.63821 -1.70614e-17)
(25.8591 2.00657 -1.37693e-16)
(25.8075 2.35284 1.69059e-16)
(25.6799 2.67129 -2.13577e-18)
(25.4765 2.94934 7.6912e-18)
(25.134 3.18061 -3.24217e-15)
(24.7172 3.24561 2.26065e-15)
(23.8519 3.14756 5.75074e-15)
(19.2405 12.6245 2.83352e-18)
(19.8221 13.1983 -1.75529e-17)
(20.5174 13.7858 0)
(21.2937 14.3454 -1.74154e-17)
(22.1153 14.8352 0)
(23.02 15.2716 0)
(23.9818 15.6335 1.91226e-17)
(24.9813 15.9044 1.91487e-16)
(26.0218 16.0803 4.44311e-16)
(27.0876 16.1524 1.14095e-15)
(28.1692 16.1133 6.48245e-16)
(29.2605 15.9568 7.50438e-16)
(30.3476 15.6771 0)
(31.4174 15.2687 1.46634e-15)
(32.4546 14.7286 -5.19331e-16)
(33.4401 14.0568 0)
(34.3541 13.2564 1.23442e-15)
(35.1754 12.3352 1.40777e-15)
(35.8837 11.306 0)
(36.4588 10.1869 1.37819e-15)
(36.8832 9.00219 -1.34737e-15)
(37.1461 7.78079 0)
(37.2438 6.55511 -1.59707e-16)
(37.1819 5.35768 3.08218e-17)
(36.9741 4.21397 7.60526e-17)
(36.6389 3.13537 1.13971e-15)
(36.1947 2.12353 -3.89375e-18)
(35.6539 1.18077 -3.0341e-17)
(35.0245 0.312864 -2.55222e-17)
(34.314 -0.475185 5.58352e-17)
(33.5295 -1.17991 1.51986e-15)
(32.6756 -1.79761 5.3487e-15)
(31.7535 -2.32404 4.22231e-17)
(30.7641 -2.7534 -3.86892e-15)
(29.6919 -3.07845 -3.00593e-15)
(28.5451 -3.27488 -4.42118e-15)
(27.2136 -3.32808 -2.5449e-15)
(25.9025 -3.02002 1.89258e-17)
(24.0456 -2.57687 2.01655e-15)
(18.7272 12.0332 -5.82201e-17)
(18.2571 11.4155 -2.15436e-16)
(17.7931 10.678 4.26462e-16)
(17.3465 9.83704 0)
(16.977 8.94399 8.20646e-16)
(16.6858 7.98511 0)
(16.4917 6.97944 -4.47198e-16)
(16.4068 5.98712 1.79493e-15)
(16.4278 5.04643 -1.38702e-15)
(16.5459 4.16326 0)
(16.747 3.35023 1.02558e-15)
(17.0164 2.61797 9.90373e-16)
(17.3452 1.96121 0)
(17.7257 1.37518 -9.74522e-16)
(18.1502 0.858915 2.35444e-16)
(18.6146 0.408868 -2.35552e-16)
(19.1139 0.0240099 2.28962e-16)
(19.6426 -0.295662 4.01595e-16)
(20.1956 -0.549749 -1.50649e-17)
(20.7675 -0.737636 4.84498e-16)
(21.3521 -0.857881 1.4231e-16)
(21.9429 -0.908675 -1.36615e-16)
(22.5321 -0.887617 -4.37617e-16)
(23.108 -0.793562 3.74477e-16)
(23.6537 -0.628734 -2.69587e-16)
(24.1519 -0.400802 -2.81753e-16)
(24.5912 -0.121716 -9.73452e-17)
(24.9659 0.196752 -1.07171e-18)
(25.2728 0.543818 8.0914e-18)
(25.5096 0.908511 4.12865e-17)
(25.6753 1.27988 9.1248e-18)
(25.7707 1.64798 -1.65495e-17)
(25.7965 2.00426 1.94606e-16)
(25.7532 2.34024 -1.73305e-16)
(25.6342 2.64934 8.20367e-18)
(25.4395 2.91759 -6.1294e-16)
(25.1115 3.13683 1.58012e-15)
(24.711 3.18794 0)
(23.9229 3.07308 -5.51599e-15)
(19.8046 12.0919 9.77529e-18)
(20.3522 12.6201 0)
(21.0058 13.1612 0)
(21.7335 13.6761 1.18495e-17)
(22.5 14.1257 -1.97411e-17)
(23.3423 14.5268 0)
(24.2355 14.8599 0)
(25.1612 15.1105 -6.24892e-16)
(26.1234 15.2756 -3.15631e-17)
(27.1083 15.3476 -3.86676e-17)
(28.1076 15.32 -1.50074e-15)
(29.1175 15.1871 -3.939e-16)
(30.1261 14.9432 7.51471e-16)
(31.1226 14.5827 -6.4308e-17)
(32.094 14.1016 0)
(33.0236 13.4983 0)
(33.8933 12.7742 -3.38632e-15)
(34.6833 11.9345 -6.22538e-16)
(35.3739 10.9896 6.36807e-16)
(35.9459 9.95426 -1.33678e-15)
(36.3813 8.84987 2.53909e-15)
(36.668 7.70261 1.20249e-15)
(36.8004 6.54211 -1.16357e-15)
(36.7814 5.39876 -1.31267e-15)
(36.6209 4.29655 2.079e-16)
(36.3332 3.24729 -1.12267e-15)
(35.9338 2.25551 -1.2662e-16)
(35.4345 1.32615 2.82159e-17)
(34.8433 0.466129 -2.81691e-17)
(34.1678 -0.318241 9.45602e-17)
(33.4148 -1.02232 -3.90664e-17)
(32.5895 -1.64153 -2.64135e-15)
(31.6936 -2.17076 -9.96719e-17)
(30.7284 -2.60333 1.17985e-16)
(29.6802 -2.93113 0)
(28.5564 -3.12809 4.10825e-15)
(27.2599 -3.18023 2.38129e-15)
(25.9584 -2.87153 0)
(24.2239 -2.41194 0)
(19.3196 11.5474 0)
(18.8745 10.9791 1.92733e-16)
(18.4321 10.2993 -6.37846e-16)
(18.0031 9.52318 -3.07583e-16)
(17.6439 8.69917 -7.45353e-16)
(17.355 7.81244 0)
(17.1538 6.88084 0)
(17.0526 5.96111 -8.0423e-16)
(17.0487 5.08867 8.39583e-16)
(17.1336 4.26823 0)
(17.2944 3.51109 -4.34669e-16)
(17.518 2.82707 -4.67998e-16)
(17.7965 2.21053 4.42249e-16)
(18.1231 1.65615 4.57891e-16)
(18.4921 1.16272 -8.49876e-16)
(18.9004 0.726867 0)
(19.3446 0.347838 -1.91526e-16)
(19.8207 0.0263638 1.20914e-17)
(20.3247 -0.236227 8.47823e-16)
(20.8519 -0.438166 -1.56147e-16)
(21.3965 -0.576896 1.49641e-16)
(21.952 -0.649834 -1.1407e-16)
(22.5108 -0.654083 1.61222e-16)
(23.0615 -0.588086 -7.62666e-16)
(23.5878 -0.453245 -2.69344e-16)
(24.0727 -0.255596 2.31248e-16)
(24.5045 -0.00537736 -1.40716e-17)
(24.8765 0.286537 0)
(25.1843 0.609701 -7.91592e-18)
(25.4249 0.953402 4.62492e-17)
(25.5965 1.30677 -6.45576e-17)
(25.6992 1.65966 1.07242e-16)
(25.7329 2.00318 -4.03127e-16)
(25.698 2.32826 4.34006e-16)
(25.5878 2.62747 -6.68069e-18)
(25.4022 2.88558 5.81067e-16)
(25.0892 3.09256 2.99205e-17)
(24.7061 3.13138 -6.60125e-17)
(23.9912 3.00234 -4.94616e-15)
(20.3115 11.6017 -9.2702e-18)
(20.8286 12.089 0)
(21.4449 12.5882 0)
(22.1293 13.0624 3.54009e-18)