/*--------------------------------*- C++ -*----------------------------------*\
  =========                 |
  \\      /  F ield         | OpenFOAM: The Open Source CFD Toolbox
   \\    /   O peration     | Website:  https://openfoam.org
    \\  /    A nd           | Version:  13
     \\/     M anipulation  |
\*---------------------------------------------------------------------------*/
FoamFile
{
    format      ascii;
    class       volScalarField;
    location    "2.3";
    object      alpha.air;
}
// * * * * * * * * * * * * * * * * * * * * * * * * * * * * * * * * * * * * * //

dimensions      [];

internalField   nonuniform List<scalar> 
2268
(
4.79807e-13
4.19601e-13
3.98709e-13
3.28611e-13
2.21783e-13
1.20404e-13
5.6305e-14
2.3035e-14
1.01146e-14
8.47184e-15
9.84541e-15
1.71619e-14
4.62779e-14
1.38877e-13
2.73338e-13
3.41461e-13
4.85484e-13
1.5409e-12
2.80711e-12
3.33397e-12
2.32302e-12
3.49666e-13
3.49552e-13
1.7705e-12
1.71273e-12
1.48955e-12
1.18683e-12
9.23271e-13
5.61058e-13
2.95772e-13
1.52615e-13
8.34649e-14
8.32854e-14
1.38265e-13
4.87478e-13
1.37768e-12
3.56244e-12
6.41183e-12
7.90859e-12
1.38219e-11
3.97441e-11
5.46834e-11
9.46433e-11
1.77691e-10
3.90248e-10
2.2025e-11
4.87006e-12
5.1707e-12
4.39809e-12
2.87035e-12
2.78261e-12
1.45135e-12
6.34116e-13
4.24658e-13
3.69485e-13
5.03452e-13
1.21817e-12
3.38749e-12
9.23961e-12
2.2645e-11
5.23729e-11
1.18359e-10
2.17976e-10
3.47229e-10
5.88436e-10
1.17991e-09
2.59435e-09
4.48208e-09
1.07532e-09
1.32556e-11
1.31992e-11
1.23593e-11
1.18692e-11
9.37031e-12
5.80846e-12
2.84215e-12
1.45759e-12
1.33381e-12
1.6732e-12
3.49248e-12
9.47048e-12
2.39929e-11
6.11599e-11
1.42201e-10
2.68058e-10
4.40312e-10
6.25171e-10
8.78816e-10
1.09913e-09
1.38467e-09
2.19482e-09
1.04023e-09
3.25304e-11
2.46186e-11
2.39116e-11
2.05819e-11
1.79181e-11
1.73387e-11
1.45841e-11
9.43745e-12
7.14657e-12
6.5912e-12
8.24074e-12
1.5102e-11
3.46879e-11
7.63098e-11
1.41253e-10
1.50117e-10
1.70721e-10
1.94166e-10
5.26022e-11
-4.54912e-12
6.56549e-11
1.26622e-10
1.61976e-10
9.46503e-11
3.92089e-11
1.96844e-11
1.90286e-11
1.85518e-11
1.72824e-11
3.80044e-11
3.82188e-11
3.22311e-11
2.90373e-11
2.89202e-11
3.72959e-11
5.42423e-11
7.37293e-11
8.62897e-11
8.58385e-11
9.60486e-11
8.51224e-11
4.289e-07
3.45907e-05
0.000170286
0.000398153
0.000529114
1.51672e-09
1.54811e-09
1.08962e-08
1.76594e-07
7.18453e-08
2.56085e-09
1.12603e-10
1.27247e-10
1.15347e-10
1.17836e-10
1.41831e-10
2.07745e-10
3.76392e-10
1.57655e-10
8.52994e-11
1.70609e-10
2.50144e-07
8.78165e-11
1.08106e-05
0.000131335
0.000552967
0.00121652
0.00121879
4.38089e-09
1.08798e-08
3.39428e-08
2.25569e-06
7.45453e-07
2.78021e-08
2.71152e-09
8.44172e-10
4.48322e-10
4.40358e-10
5.53038e-10
8.34549e-10
1.48658e-09
1.05842e-09
6.75845e-09
1.16881e-07
1.38142e-07
3.44885e-06
3.05857e-05
6.10183e-05
0.000132165
0.000258886
0.000581965
0.000339209
0.000342533
0.00388191
0.0163724
0.02615
0.0327611
0.0586206
0.0662045
0.063552
0.0458486
0.0441967
0.0499158
0.073823
0.0860922
0.0689322
0.0334956
0.0139764
0.0139562
0.0139354
0.00523453
0.00575053
0.00498674
0.0039901
0.00168274
0.00143084
0.00205102
0.00972841
0.00776333
0.0254593
0.0652279
0.0544487
0.0550037
0.0703887
0.0771099
0.0489235
0.0174353
0.0139338
0.0138983
0.0165962
0.0173041
0.0198146
0.0239087
0.0241722
0.0108735
0.00125134
0.00037982
7.42203e-06
0.00779764
0.155921
0.210332
0.105913
0.0904759
0.143563
0.136726
0.0432891
0.0138818
0.0138947
0.0154576
0.015406
0.0187642
0.0265176
0.0265704
0.0224506
0.00330199
6.5594e-05
6.12005e-06
0.000581414
0.249588
0.566436
0.459742
0.416105
0.408694
0.381973
0.230131
0.0994198
0.0494844
0.0152535
0.0149191
0.0148252
0.0146094
0.0163932
0.0230991
0.0311548
0.0178674
0.00278051
4.63345e-06
0.113705
0.572287
0.572325
0.572282
0.572296
0.562068
0.51696
0.392754
0.389419
0.0420879
0.0377152
0.0187373
0.0125849
0.0128846
0.0492191
0.0714466
0.0464223
0.00213875
2.5042e-06
0.000253217
0.49894
0.572293
0.572336
0.567902
0.395221
0.255104
0.390729
0.412359
0.0680222
0.0793485
0.0651015
0.0151376
0.0644982
0.0991082
0.107343
0.0211007
0.000181472
0.000128128
4.50562e-05
0.0749092
0.530686
0.572278
0.428126
0.0267202
1.69809e-05
0.00318407
0.159627
0.0679863
0.077796
0.0687596
0.0886212
0.171846
0.177692
0.103752
0.000874954
0.000169191
0.000139365
4.61949e-05
4.30069e-05
0.0970114
0.186708
0.0620117
9.86812e-06
1.85386e-05
3.68152e-06
5.11809e-06
5.37386e-09
2.24203e-08
1.73584e-07
4.52155e-06
1.60863e-06
1.77037e-07
1.91494e-08
3.60803e-09
2.30326e-09
2.20308e-09
2.6693e-09
3.29267e-09
4.19741e-09
8.41964e-09
2.39569e-08
6.38788e-08
1.29637e-07
2.2218e-06
2.60046e-06
1.25042e-06
4.5283e-07
1.05413e-06
2.07836e-07
2.13731e-08
4.37219e-08
2.79009e-08
5.91312e-05
1.39662e-05
1.14915e-07
6.26865e-09
3.83483e-09
3.92228e-09
4.31077e-09
5.78128e-09
6.76084e-09
7.12432e-09
7.12256e-09
7.4399e-09
7.64673e-09
9.52694e-09
4.77053e-08
4.50268e-08
0.000646254
0.00605289
0.0228285
0.0120825
9.28155e-08
3.3179e-07
0.00169515
0.00079332
7.16755e-05
1.04161e-05
8.78334e-09
6.42036e-09
5.14693e-09
4.66925e-09
1.24821e-10
1.11883e-09
4.87049e-09
5.80418e-09
0.00107286
0.0107586
0.0177905
0.0376689
0.100523
0.136703
0.138195
0.0625354
0.0526841
0.019307
0.0201587
0.00595858
0.000150969
8.03184e-05
0.000883208
0.0104233
0.027288
0.0333224
0.0370998
0.0445766
0.0574649
0.0926737
0.137021
0.15698
0.159762
0.165162
0.167715
0.168116
0.124263
0.0500075
0.0701873
0.145374
0.155005
0.0483115
7.04538e-05
7.56486e-05
5.51805e-05
0.00490609
0.123448
0.201344
0.202196
0.202142
0.202196
0.202136
0.202138
0.184793
0.136614
0.13788
0.158003
0.0615824
0.00821784
0.00731544
0.00954765
0.0755873
0.0862477
0.154025
0.0160577
6.70183e-05
0.000533823
0.00127599
0.0313748
0.127265
0.117191
0.0583448
0.0604946
0.0931
0.0831099
0.016763
0.00606671
0.0144126
0.0233976
0.0214328
0.00314884
4.4151e-05
0.000499498
0.00390092
0.00649547
0.00110422
0.0475873
9.19681e-05
7.07867e-05
0.000108023
0.000197371
0.000151647
0.00010643
2.37951e-05
4.18903e-08
2.92059e-10
5.25839e-11
1.09899e-12
1.83391e-23
1.44445e-36
-1.1526e-20
-1.8651e-37
4.81483e-37
-2.93331e-22
4.60275e-05
8.83256e-05
3.43913e-05
3.27842e-12
3.15266e-09
0.059474
0.140542
0.263079
0.246818
0.135381
0.0792579
0.0621276
0.0384725
0.00854728
1.57585e-08
8.67934e-08
6.66806e-08
8.00237e-09
1.16863e-19
-2.48542e-19
1.27653e-19
9.42197e-20
-1.46094e-19
-2.83505e-19
2.38761e-20
-8.34467e-20
5.64833e-08
-1.41337e-19
0.466489
0.832793
0.942151
0.938797
0.926488
0.909494
0.845085
0.697204
0.509635
0.402147
0.352952
0.304843
0.250628
0.205934
0.175569
0.158659
0.149549
0.147916
0.154806
0.151326
0.145258
0.146934
0.164715
0.996044
0.999995
0.99999
0.99999
0.999997
0.999999
1
1
1
1
1
0.999999
0.975799
0.939732
0.921427
0.911241
0.906196
0.914878
0.928271
0.929951
0.934012
0.973135
1
0.999995
0.999994
0.999994
0.999986
0.99996
0.999994
1
0.999999
1
1
1
1
1
1
1
1
1
1
1
1
1
1
1
0.999997
0.999998
0.999998
0.999928
0.999925
0.999965
1
1
0.999999
0.999996
0.999999
1
1
1
1
1
1
1
1
1
1
1
1
0.999999
0.999998
0.999996
0.999949
0.999942
0.999982
1
0.999989
0.999937
0.999864
0.99996
0.999996
1
1
1
1
1
1
1
1
1
1
1
0.999999
0.999998
0.999996
0.999999
0.999999
1
1
0.999999
0.99984
0.999835
0.999833
0.999909
0.999998
1
1
0.999999
0.999999
1
1
1
1
1
1
0.999999
0.999999
0.999998
1
1
1
1
1
0.999879
0.999836
0.999834
0.999882
0.999996
0.999997
0.999998
0.999998
0.999999
1
1
1
1
1
1
1
0.999999
0.999999
1
1
1
1
1
0.999987
0.999894
0.999885
0.999964
0.999997
0.999997
0.999997
0.999997
0.999998
1
1
1
1
1
1
1
1
1
1
1
1
1
1
1
0.999996
0.999997
0.999999
0.999998
0.999997
0.999997
0.999999
0.999999
1
1
1
1
1
1
1
1
1
1
1
1
1
1
1
1
1
1
0.999999
0.999998
0.999999
1
1
1
1
1
1
1
1
1
1
1
1
1
1
1
1
1
1
1
0.999999
0.999999
0.999999
1
1
1
1
1
1
1
1
1
1
1
1
1
1
1
1
1
1
1
1
1
0.999999
1
1
1
1
1
1
1
1
1
1
1
1
1
1
1
1
1
1
1
1
1
1
1
1
1
1
1
1
1
1
1
1
1
1
1
1
1
1
1
1
1
1
1
1
1
1
1
1
1
1
1
1
1
1
1
1
1
1
1
1
1
1
1
1
1
1
1
1
1
1
1
1
1
1
1
1
1
1
1
1
1
1
1
1
1
1
1
1
1
1
1
1
1
1
1
1
1
1
1
1
1
1
1
1
1
1
1
1
1
1
1
1
1
1
1
1
1
1
1
1
1
1
1
1
1
1
1
1
1
1
1
1
1
1
1
1
1
1
1
1
1
1
1
1
1
1
1
1
1
1
1
1
1
1
1
1
1
1
1
1
1
1
1
1
1
1
1
1
1
1
1
1
1
1
1
1
1
1
1
1
1
1
1
1
1
1
1
1
1
1
1
1
1
1
1
1
1
1
1
1
1
1
1
1
1
1
1
1
1
1
1
1
1
1
1
1
1
1
1
1
1
1
1
1
1
1
1
1
1
1
1
1
1
1
1
1
1
1
1
1
1
1
1
1
1
1
1
1
1
1
1
1
1
1
1
1
1
1
1
1
1
1
1
1
1
1
1
1
1
1
1
1
1
1
1
1
1
1
1
1
1
1
1
1
1
1
1
1
1
1
1
1
1
1
1
1
1
1
1
1
1
1
1
1
1
1
1
1
1
1
1
1
1
1
1
1
1
1
1
1
1
1
1
1
1
1
1
1
1
1
1
1
1
1
1
1
1
1
1
1
1
1
1
1
1
1
1
1
1
1
1
1
1
1
1
1
1
1
1
1
1
1
1
1
1
1
1
1
1
1
1
1
1
1
1
1
1
1
1
1
1
1
1
1
1
1
1
1
1
1
1
1
1
1
1
1
1
1
1
1
1
1
1
1
1
1
1
1
1
1
1
1
1
1
1
1
1
1
1
1
1
1
1
1
1
1
1
1
1
1
1
1
1
1
1
1
1
1
1
1
1
1
1
1
1
1
1
1
1
1
1
1
1
1
1
1
1
1
1
1
1
1
1
1
1
1
1
1
1
1
1
1
1
1
1
1
1
1
1
1
1
1
1
1
1
1
1
1
1
1
1
1
1
1
1
1
1
1
1
1
1
1
1
1
1
1
1
1
1
1
1
1
1
1
1
1
0.00045649
0.00183991
0.00400058
0.0332188
0.0015442
0.00801731
0.180391
0.18649
0.159992
0.186327
0.18649
0.18649
0.145939
0.0575629
0.0608631
0.0570467
0.00839734
9.12849e-20
2.03298e-15
-3.27975e-09
1.79285e-06
2.80375e-06
1.1674e-05
1.62689e-05
1.91077e-06
3.53183e-06
3.12919e-06
6.94365e-07
2.90696e-16
-3.19049e-20
2.59318e-15
3.03863e-07
0.177386
0.209605
0.248401
0.288018
1
1
1
1
1
1
1
1
1
1
1
1
1
1
1
1
1
1
1
1
1
1
1
1
1
1
1
1
1
1
1
1
1
1
1
1
1
1
1
1
1
1
1
1
1
1
1
1
1
1
1
1
1
1
1
1
1
1
1
1
1
1
1
1
1
1
1
1
1
1
1
1
1
1
1
1
1
1
1
1
1
1
1
1
1
1
1
1
1
1
1
1
1
1
1
1
1
1
1
1
1
1
1
1
1
1
1
1
1
1
1
1
1
1
1
1
1
1
1
1
1
1
1
1
1
1
1
1
1
1
1
1
0.158022
0.0960705
0.115473
0.177617
0.177695
0.177696
0.0584863
0.00434909
0.00343979
0.00109705
0.000563986
6.92862e-05
7.1379e-06
9.72873e-06
1.08334e-05
3.13557e-05
7.72229e-05
5.38514e-06
0.00039585
0.186489
0.178111
0.177826
0.177654
0.144211
0.177695
0.165389
0.0305273
0.00016291
0.00114247
0.00120738
0.00116375
0.000319577
0.000182723
0.000256647
0.000127103
0.00174162
0.0226679
0.0317107
0.182117
0.066127
0.0155768
0.0315726
0.132729
0.177686
0.118733
0.00305041
2.0953e-05
0.000122764
0.000521264
0.000687791
0.000391138
0.000274192
0.000260856
0.000125642
0.00413647
0.0622407
0.0665132
0.0115944
0.000452821
0.000458003
0.0252467
0.0723341
0.0517601
0.00391911
1.28385e-05
1.26017e-05
1.17186e-05
9.7411e-08
1.16661e-05
8.54566e-05
0.000195722
0.000239298
0.000150524
0.000466484
0.0299977
0.0576948
6.37806e-05
0.000444426
0.000994247
0.00346379
0.000278333
4.20085e-07
4.30348e-07
4.69788e-06
9.75724e-06
1.62684e-06
3.3278e-08
4.46859e-10
6.34101e-05
0.000206827
0.000236275
0.000168529
0.000129187
4.75973e-12
-2.1684e-21
1.62863e-05
3.24993e-05
7.46495e-05
3.92572e-09
4.01304e-09
3.56479e-07
5.23253e-07
6.96131e-07
3.14644e-07
2.66252e-08
4.09689e-08
1.17665e-09
-4.75758e-08
-5.84832e-08
-4.2869e-07
-2.59597e-09
-2.35475e-07
1.27796e-13
4.41408e-12
1.46046e-07
4.54128e-08
4.40714e-11
3.82236e-09
3.92572e-09
2.11941e-08
3.33676e-08
3.26196e-08
3.1943e-08
3.88389e-10
1.57042e-10
1.66627e-10
0.0057957
0.0396129
0.0944302
0.1676
0.248813
0.320695
0.352197
2.1117e-12
1.81732e-06
1.4605e-12
4.41586e-09
5.54729e-08
0.0169128
0.0518946
0.09477
0.144079
0.200033
0.277961
0.414009
0.616319
0.7655
0.855182
0.923577
0.971626
0.993011
0.981991
0.347415
0.414566
0.481135
0.543726
0.617708
0.69411
0.762168
0.826769
0.886482
0.941251
0.984017
0.997862
0.995661
0.995805
0.998851
0.999978
1
0.999937
0.999764
0.999999
1
0.99636
0.999254
0.999993
0.999993
0.999976
0.999931
0.999667
0.999396
0.999397
0.999563
0.999678
0.999824
0.999991
1
1
1
1
1
1
1
0.999999
0.99999
0.999977
0.999951
0.999944
0.999929
0.999924
0.999435
0.998966
0.998966
0.999731
1
0.999999
0.999999
0.999999
0.999999
1
1
1
0.999999
0.999833
0.999023
0.999019
0.999404
0.999989
0.999992
0.999577
0.998993
0.99947
1
1
0.999999
0.999999
1
0.999999
1
1
1
1
0.999901
0.999125
0.999023
0.999019
0.999675
1
1
1
1
1
1
1
1
1
0.999999
1
1
1
1
0.999999
0.999987
0.999888
0.999857
0.999929
1
1
1
1
1
1
1
1
1
1
1
1
1
1
1
1
1
1
1
1
1
0.999999
0.999999
0.999999
1
1
1
1
1
1
1
1
1
1
1
1
1
1
1
1
1
1
1
1
1
1
1
1
1
1
1
1
1
1
1
1
1
1
1
1
1
1
1
1
1
1
1
1
1
1
1
1
1
1
1
1
1
1
1
1
1
1
1
1
1
1
1
1
1
1
1
1
1
1
1
1
1
1
1
1
1
1
1
1
1
1
1
1
1
1
1
1
1
1
1
1
1
1
1
1
1
1
1
1
1
1
1
1
1
1
1
1
1
1
1
1
1
1
1
1
1
1
1
1
1
1
1
1
1
1
1
1
1
1
1
1
1
1
1
1
1
1
1
1
1
1
1
1
1
1
1
1
1
1
1
1
1
1
1
1
1
1
1
1
1
1
1
1
1
1
1
1
1
1
1
1
1
1
1
1
1
1
1
1
1
1
1
1
1
1
1
1
1
1
1
1
1
1
1
1
1
1
1
1
1
1
1
1
1
1
1
1
1
1
1
1
1
1
1
1
1
1
1
1
1
1
1
1
1
1
1
1
1
1
1
1
1
1
1
1
1
1
1
1
1
1
1
1
1
1
1
1
1
1
1
1
1
1
1
1
1
1
1
1
1
1
1
1
1
1
1
1
1
1
1
1
1
1
1
1
1
1
1
1
1
1
1
1
1
1
1
1
1
1
1
1
1
1
1
1
1
1
1
1
1
1
1
1
1
1
1
1
1
1
1
1
1
1
1
1
1
1
1
1
1
1
1
1
1
1
1
1
1
1
1
1
1
1
1
1
1
1
1
1
1
1
1
1
1
1
1
1
1
1
1
1
1
1
1
1
1
1
1
1
1
1
1
1
1
1
1
1
1
1
1
1
1
1
1
1
1
1
1
1
1
1
1
1
1
1
1
1
1
1
1
1
1
1
1
1
1
1
1
1
1
1
1
1
1
1
1
1
1
1
1
1
1
1
1
1
1
1
1
1
1
1
1
1
1
1
1
1
1
1
1
1
1
1
1
1
1
1
1
1
1
1
1
1
1
1
1
1
1
1
1
1
1
1
1
1
1
1
1
1
1
1
1
1
1
1
1
1
1
1
1
1
1
1
1
1
1
1
1
1
1
1
1
1
1
1
1
1
1
1
1
1
1
1
1
1
1
1
1
1
1
1
1
1
1
1
1
1
1
1
1
1
1
1
1
1
1
1
)
;

boundaryField
{
    leftWall
    {
        type            alphaContactAngle;
        contactAngleProperties 
        {
            mercury         
            {
                theta0          90;
            }
            water           
            {
                theta0          90;
            }
            oil             
            {
                theta0          90;
            }
        }
        value           nonuniform List<scalar> 
50
(
4.79807e-13
1.7705e-12
4.87006e-12
1.32556e-11
3.25304e-11
9.46503e-11
1.51672e-09
4.38089e-09
5.37386e-09
2.13731e-08
9.28155e-08
0.019307
0.155005
0.154025
0.0475873
0.059474
0.466489
0.996044
0.999995
0.999997
0.999999
0.999999
0.999999
1
1
1
1
1
1
1
1
1
1
1
1
1
1
1
1
1
1
1
1
1
1
1
1
1
1
1
)
;
    }
    rightWall
    {
        type            alphaContactAngle;
        contactAngleProperties 
        {
            mercury         
            {
                theta0          90;
            }
            water           
            {
                theta0          90;
            }
            oil             
            {
                theta0          90;
            }
        }
        value           nonuniform List<scalar> 
50
(
0.0139354
0.0138983
0.0138947
0.0494844
0.389419
0.412359
0.159627
5.11809e-06
0.00039585
0.0317107
0.0665132
0.0576948
-2.1684e-21
4.41408e-12
0.352197
0.981991
0.999764
1
0.999999
0.999999
0.999999
1
1
1
1
1
1
1
1
1
1
1
1
1
1
1
1
1
1
1
1
1
1
1
1
1
1
1
1
1
)
;
    }
    lowerWall
    {
        type            alphaContactAngle;
        contactAngleProperties 
        {
            mercury         
            {
                theta0          90;
            }
            water           
            {
                theta0          90;
            }
            oil             
            {
                theta0          90;
            }
        }
        value           nonuniform List<scalar> 
62
(
4.79807e-13
4.19601e-13
3.98709e-13
3.28611e-13
2.21783e-13
1.20404e-13
5.6305e-14
2.3035e-14
1.01146e-14
8.47184e-15
9.84541e-15
1.71619e-14
4.62779e-14
1.38877e-13
2.73338e-13
3.41461e-13
4.85484e-13
1.5409e-12
2.80711e-12
3.33397e-12
2.32302e-12
3.49666e-13
3.49552e-13
3.49552e-13
2.2025e-11
1.07532e-09
1.04023e-09
1.61976e-10
0.000529114
0.00121879
0.000581965
0.00045649
0.00183991
0.00400058
0.0332188
0.000339209
0.00523453
0.0165962
0.0154576
0.0152535
0.0420879
0.0680222
0.0679863
0.000339209
0.000342533
0.00388191
0.0163724
0.02615
0.0327611
0.0586206
0.0662045
0.063552
0.0458486
0.0441967
0.0499158
0.073823
0.0860922
0.0689322
0.0334956
0.0139764
0.0139562
0.0139354
)
;
    }
    atmosphere
    {
        type            inletOutlet;
        inletValue      uniform 1;
        value           nonuniform List<scalar> 
46
(
1
1
1
1
1
1
1
1
1
1
1
1
1
1
1
1
1
1
1
1
1
1
1
1
1
1
1
1
1
1
1
1
1
1
1
1
1
1
1
1
1
1
1
1
1
1
)
;
    }
    defaultFaces
    {
        type            empty;
    }
}


// ************************************************************************* //
