/*--------------------------------*- C++ -*----------------------------------*\
  =========                 |
  \\      /  F ield         | OpenFOAM: The Open Source CFD Toolbox
   \\    /   O peration     | Website:  https://openfoam.org
    \\  /    A nd           | Version:  13
     \\/     M anipulation  |
\*---------------------------------------------------------------------------*/
FoamFile
{
    format      ascii;
    class       volScalarField;
    location    "2.3";
    object      alpha.mercury;
}
// * * * * * * * * * * * * * * * * * * * * * * * * * * * * * * * * * * * * * //

dimensions      [];

internalField   nonuniform List<scalar> 
2268
(
1
1
1
1
1
1
1
1
1
1
1
1
1
1
1
1
1
1
1
0.999908
0.999584
0.999433
0.999433
1
1
1
1
1
1
1
1
1
1
1
1
1
1
1
1
1
1
1
0.999995
0.999989
0.999943
0.999698
1
1
1
1
1
1
1
1
1
1
1
1
1
1
1
1
1
1
1
1
1
1
1
1
1
1
1
1
1
1
1
1
1
1
1
1
1
1
1
1
1
1
1
1
1
1
1
1
1
1
1
1
1
1
1
1
1
1
1
1
1
1
1
1
1
1
1
1
1
0.998852
0.999743
1
1
1
1
1
1
1
1
1
1
1
1
0.992744
0.95759
0.917712
0.878769
0.843499
0.813962
0.793625
0.797112
0.827605
0.497461
0.522652
0.567605
0.623171
0.66397
0.698436
0.726773
0.746705
0.751739
0.731836
0.679248
0.604721
0.516567
0.41709
0.319466
0.249829
0.19417
0.150762
0.118787
0.0969022
0.0845664
0.0879169
0.115933
2.69476e-10
2.93199e-10
1.70294e-08
-1.64666e-08
0.0165672
0.0336517
0.044439
0.0467655
0.0413407
0.0323894
0.0230009
0.0115647
0.00277681
4.84649e-08
5.80358e-08
-1.18248e-08
7.09856e-08
6.29818e-15
-1.36929e-19
2.13808e-20
3.70394e-19
3.78764e-19
4.36453e-20
0.864731
0.871217
0.877575
0.877581
0.877578
0.877571
0.873693
0.70039
0.636391
0.636438
0.637715
0.622309
0.599672
0.60807
0.739459
0.751503
0.751493
0.751491
0.751491
0.526878
0.527563
0.548704
0.553318
0.565403
0.660995
0.727403
0.780629
0.829647
0.830443
0.83067
0.805443
0.7177
0.738065
0.751493
0.751505
0.751505
0.751486
0.751491
0.156528
0.14035
0.125141
0.125519
0.179789
0.191158
0.222368
0.315897
0.433758
0.629908
0.741841
0.767476
0.760993
0.748171
0.751468
0.751539
0.751508
0.72109
0.598231
0.160374
0.164917
0.141587
0.140013
0.106905
0.0600767
0.0364549
0.0434372
0.0348428
0.0528277
0.168341
0.367032
0.398542
0.400449
0.446764
0.469542
0.435401
0.428302
0.478531
0.0937586
0.107617
0.119002
0.138092
0.11482
0.0548378
0.0503065
0.048192
0.0337352
0.00504728
0.000245113
0.0718845
0.24929
0.251427
0.226038
0.175839
0.185491
0.136158
0.127179
0.0505189
0.0573676
0.082607
0.0582182
0.107271
0.105872
0.0860557
0.0877582
0.0752784
0.00587233
0.000203789
7.82058e-06
0.0333958
0.122355
0.116752
0.103668
0.0361788
0.0185927
1.36946e-15
0.00246304
0.00250275
0.00682837
0.0243078
0.0784049
0.105117
0.0990336
0.0330036
0.0106698
0.00271396
0.000286351
9.43798e-06
2.02888e-08
0.00221943
0.00758359
-1.44682e-24
1.27411e-15
1.448e-23
1.27411e-15
0.0128904
0.00298035
0.00685005
0.0134635
0.0424159
0.0676256
0.0111113
5.28607e-06
3.98001e-05
6.72313e-05
0.00016736
4.42418e-05
5.05107e-08
4.31519e-12
7.21245e-12
2.89629e-15
4.33881e-06
4.29231e-07
1.3696e-15
2.93199e-10
2.82716e-10
2.93199e-10
2.96888e-10
2.93199e-10
2.97271e-10
2.93199e-10
2.97271e-10
4.3124e-10
1.34958e-09
1.06424e-08
2.15803e-08
3.59396e-08
1.61353e-08
1.14578e-08
6.81698e-09
1.25245e-09
2.51788e-09
1.79566e-09
6.12062e-10
6.53421e-11
9.28275e-11
2.05753e-11
2.95075e-10
2.9781e-10
2.96925e-10
3.87893e-10
4.956e-10
5.49108e-10
5.08879e-10
4.77893e-10
6.91398e-10
1.43594e-09
2.27155e-09
7.82282e-10
8.94408e-10
8.70898e-10
9.29259e-10
1.52939e-09
4.54273e-09
5.83033e-09
3.79785e-09
1.34536e-09
4.40888e-10
1.17648e-10
1.67722e-11
3.30543e-10
3.94386e-10
6.16875e-10
8.84219e-10
1.18542e-09
1.34917e-09
1.35908e-09
1.33811e-09
1.24502e-09
1.05179e-09
8.35198e-10
6.51031e-10
5.0191e-10
5.01476e-10
5.38237e-10
7.33839e-10
1.67886e-09
2.16242e-09
1.89181e-09
1.58532e-09
7.27736e-10
1.14071e-10
0.000174243
3.83217e-10
4.57926e-10
6.16528e-10
7.37184e-10
8.01931e-10
8.3444e-10
8.53166e-10
8.37434e-10
8.27368e-10
8.35896e-10
8.64716e-10
9.07655e-10
9.62586e-10
1.04674e-09
1.27501e-09
1.6046e-09
2.16946e-09
3.3744e-09
3.88191e-09
1.57472e-09
7.0284e-10
1.02638e-05
0.000131187
3.79093e-10
4.27285e-10
5.12646e-10
5.67021e-10
6.13329e-10
6.78577e-10
7.72161e-10
8.76239e-10
1.04982e-09
1.26304e-09
1.49975e-09
1.71716e-09
1.87101e-09
1.95609e-09
1.9683e-09
1.96493e-09
2.50907e-09
4.57777e-09
4.52524e-09
1.5754e-09
3.88092e-07
2.75847e-06
6.76242e-06
4.31348e-10
5.05903e-10
5.49925e-10
5.97208e-10
6.51005e-10
7.73299e-10
9.78727e-10
1.15556e-09
1.27516e-09
1.35703e-09
1.4693e-09
1.59049e-09
1.65708e-09
1.66101e-09
1.52365e-09
1.46774e-09
2.89847e-09
6.08583e-09
6.49979e-09
4.80934e-09
5.28267e-09
5.1086e-07
1.36433e-05
4.65763e-10
4.82807e-10
4.71181e-10
4.62376e-10
4.87e-10
6.06005e-10
7.79961e-10
8.56968e-10
8.67664e-10
8.72058e-10
8.78346e-10
9.03215e-10
9.6366e-10
1.04695e-09
1.13792e-09
1.23648e-09
1.36215e-09
1.38083e-09
1.21592e-09
1.18889e-09
2.11779e-07
6.24112e-07
8.11242e-07
4.68344e-10
4.77159e-10
3.94559e-10
2.88631e-10
2.6151e-10
2.73211e-10
3.33297e-10
3.40091e-10
3.16586e-10
2.89589e-10
2.85571e-10
3.48826e-10
4.81259e-10
7.38104e-10
1.13491e-09
1.73161e-09
2.42567e-09
3.5601e-09
9.21352e-09
1.80759e-08
1.7711e-08
1.06569e-08
4.77968e-09
4.63197e-10
4.61603e-10
3.99417e-10
2.59059e-10
1.598e-10
1.27198e-10
1.11124e-10
8.62089e-11
6.14862e-11
5.14048e-11
5.03167e-11
7.1427e-11
1.77433e-10
2.97972e-10
3.73556e-10
4.40615e-10
5.83807e-10
9.80126e-10
1.43864e-09
1.50441e-09
1.05322e-09
1.18973e-09
1.35828e-09
3.87096e-10
3.84865e-10
3.97974e-10
3.12612e-10
1.89143e-10
1.29207e-10
1.00451e-10
5.20152e-11
2.79286e-11
1.89577e-11
1.72476e-11
2.14594e-11
4.24544e-11
5.5577e-11
5.86849e-11
5.93344e-11
6.06172e-11
8.63898e-11
1.72115e-10
2.61438e-10
3.6183e-10
6.06274e-10
1.5973e-09
3.02864e-10
2.80171e-10
3.53786e-10
3.74444e-10
2.98942e-10
2.15839e-10
1.77174e-10
1.13741e-10
5.90201e-11
3.04549e-11
1.67249e-11
1.39781e-11
1.32038e-11
1.53601e-11
1.71007e-11
1.83744e-11
2.02962e-11
2.23251e-11
2.50395e-11
3.51942e-11
1.17465e-10
4.02794e-10
1.36542e-09
1.90939e-10
1.99876e-10
3.38587e-10
4.02182e-10
3.4195e-10
3.03657e-10
2.32099e-10
1.77353e-10
1.18818e-10
6.85176e-11
3.73989e-11
1.73174e-11
1.10461e-11
9.04101e-12
7.884e-12
7.24927e-12
8.23993e-12
9.33208e-12
1.04967e-11
1.168e-11
1.55114e-11
4.61971e-11
1.51293e-10
1.38777e-10
2.05598e-10
3.65545e-10
4.07275e-10
3.82273e-10
3.41754e-10
2.84569e-10
2.28362e-10
1.7724e-10
1.23228e-10
7.08522e-11
3.55117e-11
1.74593e-11
1.03133e-11
7.56039e-12
5.54222e-12
4.55175e-12
4.22041e-12
4.39684e-12
4.84543e-12
5.41584e-12
5.90404e-12
6.14363e-12
1.27303e-10
2.66377e-10
3.89001e-10
4.07723e-10
3.86126e-10
3.45635e-10
2.90341e-10
2.49289e-10
2.03827e-10
1.56645e-10
1.06446e-10
6.62907e-11
3.05791e-11
1.61475e-11
1.07002e-11
6.61992e-12
4.15012e-12
3.04134e-12
2.26089e-12
1.90681e-12
1.80391e-12
2.28103e-12
3.01046e-12
1.12647e-10
2.73987e-10
3.69546e-10
3.86843e-10
3.61625e-10
3.25395e-10
2.73652e-10
2.36625e-10
2.01618e-10
1.65819e-10
1.15928e-10
8.1134e-11
4.25668e-11
2.16681e-11
1.35238e-11
8.48695e-12
5.11065e-12
3.26618e-12
2.08698e-12
1.38021e-12
1.00185e-12
8.29911e-13
1.00959e-12
1.03676e-10
2.45671e-10
3.20036e-10
3.15836e-10
2.86978e-10
2.46808e-10
2.2367e-10
1.94336e-10
1.725e-10
1.45595e-10
1.12622e-10
7.63348e-11
4.44423e-11
2.57311e-11
1.59813e-11
1.01406e-11
6.11546e-12
3.7551e-12
2.36398e-12
1.45227e-12
9.99652e-13
7.04552e-13
5.59668e-13
9.16506e-11
2.04237e-10
2.55389e-10
2.43549e-10
2.16065e-10
1.82889e-10
1.54949e-10
1.52298e-10
1.29707e-10
1.08325e-10
8.59536e-11
6.15279e-11
3.87023e-11
2.39771e-11
1.68333e-11
1.05964e-11
6.48447e-12
4.04487e-12
2.54656e-12
1.4601e-12
1.05329e-12
7.31781e-13
5.05616e-13
7.51359e-11
1.56782e-10
1.92784e-10
1.86392e-10
1.68285e-10
1.42592e-10
1.17154e-10
9.79474e-11
8.93064e-11
7.45602e-11
5.99545e-11
4.33997e-11
3.14716e-11
2.09118e-11
1.44125e-11
9.5159e-12
5.9539e-12
3.78486e-12
2.37999e-12
1.43917e-12
1.04974e-12
6.87871e-13
4.8704e-13
5.69502e-11
1.11758e-10
1.34975e-10
1.30669e-10
1.17391e-10
1.01144e-10
8.33562e-11
6.91428e-11
5.53532e-11
4.45878e-11
3.65241e-11
2.66663e-11
2.2215e-11
1.53539e-11
1.02717e-11
7.2235e-12
5.01513e-12
3.0802e-12
1.94934e-12
1.27316e-12
8.98647e-13
6.23263e-13
4.30044e-13
4.08906e-11
7.58952e-11
8.94903e-11
8.63998e-11
7.80409e-11
6.69459e-11
5.60083e-11
4.38608e-11
3.28373e-11
2.39727e-11
1.7622e-11
1.53726e-11
1.26052e-11
9.05122e-12
6.4251e-12
4.87035e-12
3.45717e-12
2.39033e-12
1.55146e-12
1.02308e-12
7.54823e-13
5.24327e-13
3.59381e-13
2.74894e-11
5.11769e-11
5.80481e-11
5.58161e-11
4.99246e-11
4.2891e-11
3.57977e-11
2.81546e-11
1.90482e-11
1.34552e-11
1.00696e-11
8.23945e-12
6.65072e-12
5.02599e-12
3.92856e-12
3.03983e-12
2.22181e-12
1.62645e-12
1.17684e-12
8.18689e-13
6.06247e-13
4.30472e-13
2.95059e-13
1.94976e-11
3.48449e-11
3.75731e-11
3.58893e-11
3.17561e-11
2.72799e-11
2.25475e-11
1.7699e-11
1.17232e-11
8.21017e-12
6.05042e-12
4.55656e-12
3.65779e-12
2.93616e-12
2.31961e-12
1.82864e-12
1.37319e-12
1.05696e-12
8.26737e-13
6.06966e-13
4.43021e-13
3.1533e-13
2.29185e-13
1.32311e-11
2.25408e-11
2.483e-11
2.34244e-11
2.04064e-11
1.7493e-11
1.44726e-11
1.11773e-11
8.02779e-12
5.4441e-12
3.67534e-12
2.74261e-12
2.10121e-12
1.66999e-12
1.35059e-12
1.05963e-12
8.19699e-13
6.65405e-13
5.29474e-13
3.9884e-13
2.93569e-13
2.17737e-13
1.58355e-13
9.18306e-12
1.54682e-11
1.58896e-11
1.47225e-11
1.33213e-11
1.12792e-11
9.418e-12
7.1904e-12
5.25521e-12
3.58618e-12
2.45378e-12
1.71745e-12
1.25634e-12
9.56839e-13
7.28743e-13
5.68084e-13
4.57804e-13
3.86784e-13
3.10506e-13
2.37623e-13
1.78679e-13
1.29124e-13
9.8226e-14
5.91745e-12
9.33502e-12
9.45661e-12
8.50909e-12
7.52174e-12
6.70054e-12
5.51961e-12
4.45807e-12
3.42338e-12
2.44132e-12
1.6498e-12
1.09722e-12
7.47311e-13
5.29973e-13
3.77881e-13
2.95832e-13
2.42891e-13
1.97531e-13
1.61383e-13
1.25416e-13
9.20882e-14
7.16852e-14
5.26563e-14
3.90225e-12
5.93878e-12
5.76909e-12
5.01954e-12
4.29768e-12
3.61974e-12
3.10046e-12
2.57288e-12
2.06952e-12
1.5595e-12
1.07026e-12
6.9676e-13
4.45926e-13
2.80373e-13
1.9409e-13
1.4474e-13
1.11863e-13
9.15736e-14
7.31863e-14
5.64853e-14
4.32686e-14
3.19045e-14
2.47158e-14
2.2781e-12
3.54601e-12
3.27859e-12
2.7192e-12
2.22925e-12
1.88552e-12
1.59373e-12
1.32085e-12
1.11271e-12
8.95743e-13
6.38199e-13
4.20135e-13
2.63385e-13
1.55262e-13
9.81637e-14
6.65537e-14
4.81506e-14
3.63893e-14
2.89606e-14
2.22826e-14
1.68301e-14
1.30816e-14
9.58847e-15
1.3976e-12
1.97654e-12
1.73011e-12
1.35714e-12
1.05838e-12
8.80991e-13
6.99357e-13
6.12651e-13
5.28907e-13
4.47584e-13
3.35275e-13
2.29816e-13
1.41132e-13
8.50748e-14
4.9616e-14
3.01408e-14
1.97986e-14
1.38789e-14
1.03769e-14
7.75829e-15
5.90348e-15
4.26765e-15
3.25217e-15
7.42922e-13
1.02304e-12
8.47944e-13
6.26012e-13
4.61894e-13
3.66891e-13
2.98581e-13
2.51187e-13
2.18855e-13
1.93293e-13
1.53407e-13
1.09817e-13
6.86585e-14
4.16886e-14
2.39803e-14
1.33858e-14
7.77053e-15
4.82475e-15
3.33461e-15
2.44139e-15
1.74678e-15
1.26984e-15
9.07942e-16
3.96226e-13
4.89022e-13
3.76952e-13
2.60164e-13
1.8044e-13
1.37659e-13
1.09695e-13
8.69421e-14
8.09904e-14
7.27049e-14
5.80978e-14
4.36354e-14
2.91116e-14
1.7905e-14
9.99209e-15
5.37327e-15
2.8442e-15
1.60725e-15
9.97662e-16
6.76893e-16
4.80956e-16
3.17478e-16
2.29312e-16
1.89918e-13
2.09903e-13
1.51339e-13
9.79125e-14
6.42157e-14
4.73196e-14
3.58699e-14
2.97509e-14
2.54073e-14
2.32316e-14
2.06025e-14
1.50079e-14
1.05759e-14
6.548e-15
3.6167e-15
1.93431e-15
9.71986e-16
4.77171e-16
2.77678e-16
1.74855e-16
1.10866e-16
7.35933e-17
4.91131e-17
8.28671e-14
8.10581e-14
5.53341e-14
3.37477e-14
2.04794e-14
1.45312e-14
1.10025e-14
9.12145e-15
7.39224e-15
6.77047e-15
5.94445e-15
4.76036e-15
3.19803e-15
1.9765e-15
1.16485e-15
5.96825e-16
2.80628e-16
1.32225e-16
6.86095e-17
3.90153e-17
2.39182e-17
1.45102e-17
9.36968e-18
2.77839e-14
2.8008e-14
1.80276e-14
1.03676e-14
5.91649e-15
3.67364e-15
2.85651e-15
2.3321e-15
2.04403e-15
1.8614e-15
1.65164e-15
1.30378e-15
8.83288e-16
5.42849e-16
3.03188e-16
1.50764e-16
6.85252e-17
3.10661e-17
1.47445e-17
7.52897e-18
4.31648e-18
2.53848e-18
1.4891e-18
9.72638e-15
7.37766e-15
4.54809e-15
2.50745e-15
1.38381e-15
9.90947e-16
7.48204e-16
5.95602e-16
4.89306e-16
4.4867e-16
4.05306e-16
3.04184e-16
2.03971e-16
1.21398e-16
6.57022e-17
3.39082e-17
1.4219e-17
5.85749e-18
2.67561e-18
1.26866e-18
6.67176e-19
3.63463e-19
2.02383e-19
2.57258e-15
2.04842e-15
1.16594e-15
6.07663e-16
3.25015e-16
2.08781e-16
1.55031e-16
1.2423e-16
1.03549e-16
9.55684e-17
8.17343e-17
6.28422e-17
4.07172e-17
2.49082e-17
1.31552e-17
5.97373e-18
2.53465e-18
9.7104e-19
4.07238e-19
1.84421e-19
9.24884e-20
4.70356e-20
2.38408e-20
6.08577e-16
4.52454e-16
2.40632e-16
1.21175e-16
6.41887e-17
4.05678e-17
3.0238e-17
2.35125e-17
1.98204e-17
1.7465e-17
1.55931e-17
1.20342e-17
8.08904e-18
4.82263e-18
2.40499e-18
1.05181e-18
3.8917e-19
1.40421e-19
5.67093e-20
2.36948e-20
1.10579e-20
5.08381e-21
2.33175e-21
1.17035e-16
7.77879e-17
3.96216e-17
1.97912e-17
1.05365e-17
6.67084e-18
5.05745e-18
4.35827e-18
3.74712e-18
3.2957e-18
2.94617e-18
2.23133e-18
1.46366e-18
7.85749e-19
3.86279e-19
1.56257e-19
5.33682e-20
1.82165e-20
6.84523e-21
2.74263e-21
1.15287e-21
4.59833e-22
1.84265e-22
1.85914e-17
1.1179e-17
5.76144e-18
3.01096e-18
1.64807e-18
1.06217e-18
8.28848e-19
7.44312e-19
6.48952e-19
5.87084e-19
4.87612e-19
3.60548e-19
2.26695e-19
1.21802e-19
5.48486e-20
2.02065e-20
6.53604e-21
2.1404e-21
7.58591e-22
2.76631e-22
9.98755e-23
3.51267e-23
1.41278e-23
2.11669e-18
1.25312e-18
7.06837e-19
3.62214e-19
2.09076e-19
1.40238e-19
1.13764e-19
1.04239e-19
9.49705e-20
8.85924e-20
7.7511e-20
5.63873e-20
3.36556e-20
1.69297e-20
7.02601e-21
2.42068e-21
7.49016e-22
2.31644e-22
7.50943e-23
2.46773e-23
7.90424e-24
2.41393e-24
5.62342e-25
1.32427e-19
9.15174e-20
6.79343e-20
4.29992e-20
2.75785e-20
1.95937e-20
1.66053e-20
1.54842e-20
1.45152e-20
1.33e-20
1.08589e-20
7.74861e-21
4.52923e-21
2.14393e-21
8.45059e-22
2.79079e-22
8.35404e-23
2.27343e-23
6.6428e-24
1.87081e-24
5.03894e-25
1.18371e-25
7.32295e-27
1.73946e-21
3.59328e-21
4.99655e-21
4.2845e-21
2.8374e-21
2.01773e-21
1.7993e-21
1.74605e-21
1.74299e-21
1.86518e-21
1.48709e-21
1.01192e-21
5.77914e-22
2.59059e-22
9.81331e-23
3.10319e-23
8.16008e-24
2.35517e-24
6.21508e-25
1.46041e-25
3.38507e-26
1.92981e-27
1.74454e-28
7.63672e-28
5.0736e-23
3.05642e-22
3.61117e-22
2.91106e-22
2.28112e-22
2.23328e-22
2.22179e-22
2.33334e-22
2.43508e-22
1.77604e-22
1.13838e-22
6.27023e-23
2.97562e-23
1.09615e-23
3.33047e-24
9.26778e-25
2.39508e-25
5.84069e-26
1.25612e-26
1.43467e-27
4.15291e-29
6.23503e-29
5.27077e-12
0.0148657
0.0546902
0.0547359
3.30969e-10
0.0103339
0.0188978
0.0138348
0.0012605
0.000917116
0.000471312
0.000454826
0.000229263
0.000257214
0.000762855
0.000796531
0.000172156
0.000231575
0.000143263
9.0227e-05
1.94953e-05
4.26694e-06
3.42137e-10
3.801e-08
3.44391e-10
3.43315e-10
3.43698e-10
8.02961e-10
3.73051e-10
4.20283e-10
3.70953e-10
1.66549e-09
1.49848e-09
1.61521e-09
4.18239e-09
8.48412e-09
2.48966e-09
2.74429e-09
2.94528e-09
2.97219e-09
4.38677e-09
5.67987e-09
7.21826e-09
7.87421e-09
3.90959e-10
3.93455e-10
1.52321e-10
1.31398e-10
4.49619e-12
4.02701e-12
3.86261e-12
3.90385e-12
3.37449e-12
2.93304e-12
2.11209e-12
1.67178e-12
1.62515e-12
1.70814e-12
1.70571e-12
1.55554e-12
5.57744e-13
7.43417e-13
8.70746e-13
9.06438e-13
4.06165e-13
3.60489e-13
3.43582e-13
3.27751e-13
3.81082e-13
3.0631e-13
2.66889e-13
2.19929e-13
3.48332e-13
2.82055e-13
2.41683e-13
2.09389e-13
2.98489e-13
2.5123e-13
2.10397e-13
1.81762e-13
2.48577e-13
2.08143e-13
1.76006e-13
1.51877e-13
1.88538e-13
1.60915e-13
1.3733e-13
1.18724e-13
1.35253e-13
1.15244e-13
9.80595e-14
8.63895e-14
8.46592e-14
7.26611e-14
6.31573e-14
5.50043e-14
4.64916e-14
4.04994e-14
3.46314e-14
3.06019e-14
2.17112e-14
1.85269e-14
1.62174e-14
1.39473e-14
8.58239e-15
7.39765e-15
6.26985e-15
5.34651e-15
2.8709e-15
2.4309e-15
2.10059e-15
1.72432e-15
8.13362e-16
6.8538e-16
5.69912e-16
4.62849e-16
1.94276e-16
1.62083e-16
1.39843e-16
1.09142e-16
4.16882e-17
3.45751e-17
2.84425e-17
2.1594e-17
7.84646e-18
6.35479e-18
5.02588e-18
3.67723e-18
1.19993e-18
9.04315e-19
7.06302e-19
4.88349e-19
1.58147e-19
1.20725e-19
8.57758e-20
5.58882e-20
1.75869e-20
1.23156e-20
8.07331e-21
4.89863e-21
1.5658e-21
1.02681e-21
6.55354e-22
3.72941e-22
1.16464e-22
7.16027e-23
2.5756e-23
3.64691e-24
3.4908e-24
9.65736e-25
1.95365e-25
1.60661e-26
1.28677e-26
4.31377e-27
2.31888e-27
4.68378e-27
2.32224e-28
6.4432e-28
1.96113e-27
6.22478e-27
2.29864e-28
6.43301e-28
2.28828e-27
7.30092e-27
1.7544e-28
6.04579e-28
1.98971e-27
5.64202e-27
0.0344693
0.00023376
0.000194156
0.0180721
0.0424281
0.00676807
6.13905e-05
5.84656e-05
5.05387e-06
5.43952e-05
0.000102549
0.000100429
7.13402e-05
2.31687e-05
7.08527e-06
1.52359e-05
1.08702e-05
5.52561e-07
9.8284e-06
0.00265703
0.000196727
0.00367709
0.0107157
0.00503831
0.000230562
0.000223661
0.000215604
2.59075e-06
1.83048e-05
3.89733e-05
4.87516e-05
4.72615e-05
2.01054e-05
1.87083e-05
7.11277e-05
0.000125709
0.00110503
0.00207421
0.000449017
0.000618952
0.000480795
4.92517e-05
1.99353e-06
0.000239612
0.000258374
0.000102624
2.75358e-06
2.06632e-06
1.0429e-06
1.05813e-06
2.21593e-06
1.32638e-05
0.000125241
0.000166967
0.0004378
0.00555095
0.00690531
0.000282104
5.80651e-07
6.7804e-07
8.24664e-07
1.88249e-06
3.81701e-05
3.91503e-05
5.85016e-06
1.15765e-05
5.13307e-06
1.13512e-06
6.38116e-06
1.17731e-05
4.79921e-05
0.000101834
4.93088e-05
0.000274102
0.00485733
0.00690451
8.48396e-06
1.48914e-06
3.31816e-06
3.89874e-06
2.77983e-06
3.81079e-10
5.50887e-10
3.43536e-07
2.21941e-06
6.32851e-07
2.10391e-07
1.13841e-06
2.52949e-06
9.3185e-06
1.85991e-05
3.52909e-05
4.50908e-05
0.000336267
0.00293578
1.91208e-08
1.62972e-07
5.16063e-07
1.05662e-06
4.33229e-07
5.06826e-09
1.03626e-11
9.65758e-12
1.02893e-11
2.70711e-08
3.93636e-08
4.28655e-08
4.48178e-08
5.84262e-08
8.48458e-06
4.79227e-05
0.000122178
0.000203889
0.000207742
1.95663e-08
1.11576e-07
1.48036e-07
1.23274e-07
1.05436e-07
2.4766e-08
2.45122e-11
1.05342e-11
4.62671e-11
3.14504e-09
8.32869e-08
2.96934e-06
0.000231843
0.00106176
0.00166775
0.00191808
0.00175875
0.00112806
0.000605186
5.04911e-08
1.58113e-07
1.52464e-07
1.05202e-07
6.81118e-09
3.36909e-09
1.90595e-08
3.0141e-07
2.32714e-11
2.67626e-11
2.35421e-11
0.000120219
0.00199722
0.00273081
0.00273013
0.00232176
0.0016596
0.00109125
0.000877421
1.55932e-08
2.48631e-08
3.0636e-08
3.06929e-08
5.07276e-08
6.5096e-08
1.22581e-08
1.78286e-07
2.03841e-05
4.55792e-05
0.000114217
0.000346049
0.000818085
0.000825639
0.000283164
5.9267e-06
1.0595e-07
2.95299e-05
0.000117234
2.71243e-09
2.65234e-09
2.35125e-08
1.06002e-07
3.0461e-07
1.63846e-06
6.09035e-06
1.69075e-05
7.27813e-05
0.000120388
0.000120301
4.79325e-05
7.05896e-14
8.96985e-19
7.15532e-19
-3.30872e-26
8.5849e-09
6.13873e-09
-1.98155e-09
9.58942e-09
2.07732e-08
3.68011e-08
5.60747e-08
3.08116e-08
1.13092e-06
5.11148e-06
1.01672e-05
1.33623e-05
1.27201e-05
8.76566e-07
1.43742e-08
2.648e-08
1.95117e-08
9.62407e-09
1.73591e-08
2.18828e-08
1.24864e-08
2.95722e-09
1.84343e-10
1.21756e-09
4.33386e-09
7.76197e-09
7.21149e-09
7.13725e-09
3.49252e-10
1.4314e-08
1.60705e-07
1.02466e-08
2.44414e-08
6.79033e-08
8.1649e-08
6.53762e-08
6.26975e-09
7.82076e-09
1.34696e-08
6.37308e-09
1.46955e-10
2.1656e-12
1.26693e-12
1.27157e-12
3.40157e-11
8.89368e-12
8.22918e-12
5.11609e-11
4.71463e-10
1.50691e-09
1.3233e-08
4.50091e-08
7.9326e-08
7.37549e-08
3.85296e-08
5.289e-10
6.24499e-10
5.02683e-10
5.1518e-11
1.21901e-10
1.42685e-12
1.38858e-12
1.86719e-12
3.77216e-12
9.90926e-12
9.39164e-11
5.61897e-10
1.35551e-09
2.49318e-09
8.26951e-09
2.10302e-08
3.59859e-08
1.77809e-08
2.09586e-09
1.38293e-09
4.67068e-10
5.59159e-11
4.8186e-11
6.38758e-11
1.36138e-12
1.33345e-12
1.96049e-12
3.81213e-12
4.29216e-11
2.72945e-10
7.23957e-10
1.50356e-09
2.90268e-09
4.72443e-09
5.04433e-09
2.05208e-09
1.20247e-09
1.01839e-09
8.0746e-10
3.86697e-10
7.34387e-11
3.28121e-11
3.90235e-11
1.24076e-12
2.14035e-12
5.69501e-12
1.8136e-11
5.63768e-11
1.56545e-10
3.01136e-10
5.41182e-10
1.26675e-09
2.22787e-09
3.96159e-09
5.28652e-09
3.27782e-09
2.29863e-09
1.16957e-09
3.13809e-10
4.73149e-11
1.61486e-11
1.47792e-11
9.0472e-13
3.08053e-12
7.09282e-12
2.00321e-11
6.35713e-11
1.47332e-10
2.90884e-10
4.99752e-10
6.78514e-10
9.01573e-10
1.55772e-09
2.38914e-09
2.60925e-09
1.76691e-09
7.80362e-10
1.8801e-10
2.74488e-11
6.5902e-12
5.82953e-12
6.55018e-13
4.23308e-12
1.16023e-11
2.31854e-11
5.71951e-11
1.21742e-10
2.01834e-10
3.73577e-10
5.2638e-10
7.08214e-10
8.10074e-10
6.92545e-10
6.4851e-10
4.52977e-10
2.08997e-10
6.81188e-11
9.18191e-12
2.88667e-12
2.23077e-12
3.26336e-13
2.27943e-12
1.03575e-11
2.50861e-11
5.06878e-11
7.5246e-11
1.27802e-10
2.28218e-10
3.34469e-10
4.084e-10
4.38715e-10
3.45214e-10
2.00478e-10
1.00216e-10
4.34624e-11
5.68223e-12
1.14603e-12
1.01033e-12
6.91981e-13
1.99373e-13
9.49565e-13
4.63526e-12
1.40878e-11
2.87141e-11
5.16398e-11
8.06126e-11
1.15237e-10
1.48351e-10
1.78818e-10
1.84087e-10
1.58363e-10
1.06741e-10
6.08912e-11
2.23012e-11
2.17105e-12
5.47404e-13
2.84216e-13
1.5446e-13
1.43746e-13
3.77946e-13
1.68864e-12
5.38913e-12
1.21123e-11
2.12829e-11
3.26912e-11
4.37651e-11
5.45417e-11
6.21326e-11
6.16762e-11
5.35557e-11
3.83522e-11
2.35269e-11
6.97321e-12
7.74707e-13
1.67231e-13
5.29422e-14
2.3161e-14
1.03106e-13
1.6218e-13
4.97176e-13
1.46775e-12
3.28953e-12
6.06926e-12
9.16411e-12
1.2565e-11
1.52319e-11
1.68922e-11
1.59995e-11
1.38869e-11
9.45961e-12
4.01959e-12
6.98279e-13
1.00972e-13
2.96573e-14
9.98629e-15
2.16515e-15
7.05207e-14
7.90374e-14
1.45159e-13
3.14292e-13
6.73255e-13
1.30977e-12
2.17505e-12
2.93366e-12
3.50231e-12
3.64011e-12
3.59226e-12
3.16542e-12
2.23593e-12
9.28779e-13
1.45225e-13
3.25698e-14
4.90561e-15
1.11994e-15
2.882e-16
4.32163e-14
3.99723e-14
4.65305e-14
6.83578e-14
1.06723e-13
1.79635e-13
3.02746e-13
4.70862e-13
5.65928e-13
5.98106e-13
5.82064e-13
5.18717e-13
3.68715e-13
1.51305e-13
2.76537e-14
2.3116e-15
5.59972e-16
1.92897e-16
5.59692e-17
2.24068e-14
1.84825e-14
1.66456e-14
1.61432e-14
1.79942e-14
2.42103e-14
3.79894e-14
5.95611e-14
7.18862e-14
7.54617e-14
7.71242e-14
7.16636e-14
5.39941e-14
2.35048e-14
4.99983e-15
4.03725e-16
9.23052e-17
6.09151e-17
3.09809e-17
9.90531e-15
7.49094e-15
5.82016e-15
4.5778e-15
3.91299e-15
3.66625e-15
4.12994e-15
5.34847e-15
6.23619e-15
7.21518e-15
7.80901e-15
7.68791e-15
6.31049e-15
2.9855e-15
4.79397e-16
4.42607e-17
2.67978e-17
3.85388e-17
2.13261e-17
3.6154e-15
2.59135e-15
1.88619e-15
1.33567e-15
9.39025e-16
6.76496e-16
5.06167e-16
4.49485e-16
4.69386e-16
5.36058e-16
6.44464e-16
6.77723e-16
6.03105e-16
3.17176e-16
4.22102e-17
9.35202e-18
1.42046e-17
2.50565e-17
1.61517e-17
1.10253e-15
7.52837e-16
5.19454e-16
3.47787e-16
2.35428e-16
1.5752e-16
7.96288e-17
4.45839e-17
4.0085e-17
4.25605e-17
4.91145e-17
5.33242e-17
3.16051e-17
1.33651e-17
4.15083e-18
4.29576e-18
7.67671e-18
1.55175e-17
1.12691e-17
2.84244e-16
1.81922e-16
1.14573e-16
7.12831e-17
4.90599e-17
2.43522e-17
1.17983e-17
7.32252e-18
4.71048e-18
3.54055e-18
3.49485e-18
2.18399e-18
1.2535e-18
6.87303e-19
9.90765e-19
1.88197e-18
4.18906e-18
9.80145e-18
8.36016e-18
6.26398e-17
3.7489e-17
2.0996e-17
1.41508e-17
6.36829e-18
2.10492e-18
9.97096e-19
7.44685e-19
5.49248e-19
3.61113e-19
1.69953e-19
1.15342e-19
1.12676e-19
1.84122e-19
4.20368e-19
1.01154e-18
2.48431e-18
7.19093e-18
5.15933e-18
1.19008e-17
5.99016e-18
3.63116e-18
1.83572e-18
4.86197e-19
9.02022e-20
4.64049e-20
4.25752e-20
4.05975e-20
3.0549e-20
2.52243e-20
3.92213e-20
7.60517e-20
1.53654e-19
3.12741e-19
7.19422e-19
1.80086e-18
4.47929e-18
3.53428e-18
1.81501e-18
8.95409e-19
4.96438e-19
1.39981e-19
1.81034e-20
1.80749e-21
1.74472e-21
2.61008e-21
4.43546e-21
8.32691e-21
1.77191e-20
3.73306e-20
7.68905e-20
1.49428e-19
2.76098e-19
6.08574e-19
1.44428e-18
3.08385e-18
1.89805e-18
2.28021e-19
1.20326e-19
3.45585e-20
4.31825e-21
2.62082e-22
2.442e-22
5.10921e-22
1.30709e-21
3.23198e-21
7.83082e-21
1.79409e-20
3.88182e-20
7.79723e-20
1.44539e-19
2.51235e-19
5.3178e-19
1.14906e-18
1.71485e-18
1.20385e-18
2.59923e-20
8.9758e-21
9.62246e-22
6.4682e-23
7.03838e-23
1.68519e-22
4.67956e-22
1.2538e-21
3.18985e-21
7.85712e-21
1.81838e-20
3.92168e-20
7.68403e-20
1.33614e-19
2.31774e-19
4.67869e-19
8.11475e-19
1.14416e-18
5.9082e-19
2.20225e-21
3.36927e-22
1.89581e-23
1.89268e-23
5.10541e-23
1.55432e-22
4.42964e-22
1.21103e-21
3.09408e-21
7.48473e-21
1.72001e-20
3.6543e-20
6.9676e-20
1.23468e-19
2.18377e-19
3.76054e-19
5.90183e-19
5.86867e-19
3.51065e-19
6.71864e-23
3.29555e-24
4.16069e-24
1.39056e-23
4.56844e-23
1.43888e-22
4.14975e-22
1.11721e-21
2.90456e-21
7.05131e-21
1.61602e-20
3.40428e-20
6.45627e-20
1.12534e-19
1.81988e-19
2.79961e-19
3.78825e-19
3.69847e-19
1.45477e-19
3.5031e-25
7.48089e-25
3.14246e-24
1.22016e-23
4.01544e-23
1.26216e-22
3.61864e-22
9.73573e-22
2.47982e-21
5.99167e-21
1.3585e-20
2.83118e-20
5.29361e-20
9.19393e-20
1.42004e-19
2.04042e-19
2.40906e-19
1.67019e-19
7.74787e-20
1.0491e-25
6.30346e-25
2.70929e-24
1.01166e-23
3.31429e-23
1.0029e-22
2.87487e-22
7.61624e-22
1.92429e-21
4.61578e-21
1.03882e-20
2.14323e-20
3.98479e-20
6.66519e-20
1.01248e-19
1.2858e-19
1.21934e-19
9.24897e-20
2.7978e-20
9.86855e-26
5.16727e-25
2.11951e-24
7.44714e-24
2.3864e-23
7.09781e-23
1.97574e-22
5.20819e-22
1.30199e-21
3.09881e-21
6.94059e-21
1.41723e-20
2.6184e-20
4.37243e-20
5.9267e-20
7.73723e-20
6.55942e-20
3.25608e-20
1.53943e-20
8.28312e-26
3.76219e-25
1.38609e-24
4.46249e-24
1.36516e-23
3.85797e-23
1.0694e-22
2.85136e-22
7.18003e-22
1.73931e-21
3.93555e-21
8.0972e-21
1.49614e-20
2.493e-20
3.22587e-20
4.02035e-20
2.61556e-20
1.5389e-20
8.18151e-21
5.37646e-26
2.05371e-25
6.73366e-25
2.02166e-24
5.94439e-24
1.70981e-23
4.73157e-23
1.27027e-22
3.2829e-22
8.07553e-22
1.84888e-21
3.80164e-21
6.99552e-21
1.17306e-20
1.55061e-20
1.78942e-20
9.73624e-21
6.5464e-21
3.33631e-21
1.96995e-26
6.01083e-26
1.7298e-25
4.74252e-25
1.45019e-24
4.47295e-24
1.30214e-23
3.52517e-23
9.08093e-23
2.25187e-22
5.17102e-22
1.08488e-21
2.01087e-21
3.26827e-21
4.26444e-21
4.65722e-21
2.71928e-21
1.58423e-21
5.35705e-22
)
;

boundaryField
{
    leftWall
    {
        type            alphaContactAngle;
        contactAngleProperties 
        {
            air             
            {
                theta0          90;
            }
            water           
            {
                theta0          90;
            }
            oil             
            {
                theta0          90;
            }
        }
        value           nonuniform List<scalar> 
50
(
1
1
1
1
1
0.998852
0.497461
2.69476e-10
2.93199e-10
2.95075e-10
3.30543e-10
3.83217e-10
3.79093e-10
4.31348e-10
4.65763e-10
4.68344e-10
4.63197e-10
3.87096e-10
3.02864e-10
1.90939e-10
1.38777e-10
1.27303e-10
1.12647e-10
1.03676e-10
9.16506e-11
7.51359e-11
5.69502e-11
4.08906e-11
2.74894e-11
1.94976e-11
1.32311e-11
9.18306e-12
5.91745e-12
3.90225e-12
2.2781e-12
1.3976e-12
7.42922e-13
3.96226e-13
1.89918e-13
8.28671e-14
2.77839e-14
9.72638e-15
2.57258e-15
6.08577e-16
1.17035e-16
1.85914e-17
2.11669e-18
1.32427e-19
1.73946e-21
7.63672e-28
)
;
    }
    rightWall
    {
        type            alphaContactAngle;
        contactAngleProperties 
        {
            air             
            {
                theta0          90;
            }
            water           
            {
                theta0          90;
            }
            oil             
            {
                theta0          90;
            }
        }
        value           nonuniform List<scalar> 
50
(
0.751491
0.751491
0.598231
0.478531
0.127179
1.36946e-15
1.27411e-15
1.3696e-15
9.8284e-06
0.00207421
0.00690531
0.00690451
0.00293578
0.000207742
0.000605186
0.000877421
0.000117234
-1.98155e-09
2.95722e-09
1.46955e-10
1.21901e-10
6.38758e-11
3.90235e-11
1.47792e-11
5.82953e-12
2.23077e-12
6.91981e-13
1.5446e-13
2.3161e-14
2.16515e-15
2.882e-16
5.59692e-17
3.09809e-17
2.13261e-17
1.61517e-17
1.12691e-17
8.36016e-18
5.15933e-18
3.53428e-18
1.89805e-18
1.20385e-18
5.9082e-19
3.51065e-19
1.45477e-19
7.74787e-20
2.7978e-20
1.53943e-20
8.18151e-21
3.33631e-21
5.35705e-22
)
;
    }
    lowerWall
    {
        type            alphaContactAngle;
        contactAngleProperties 
        {
            air             
            {
                theta0          90;
            }
            water           
            {
                theta0          90;
            }
            oil             
            {
                theta0          90;
            }
        }
        value           nonuniform List<scalar> 
62
(
1
1
1
1
1
1
1
1
1
1
1
1
1
1
1
1
1
1
1
0.999908
0.999584
0.999433
0.999433
0.999433
0.999698
1
1
1
0.827605
0.115933
4.36453e-20
5.27077e-12
0.0148657
0.0546902
0.0547359
0.864731
0.526878
0.156528
0.160374
0.0937586
0.0505189
0.00246304
0.0128904
0.864731
0.871217
0.877575
0.877581
0.877578
0.877571
0.873693
0.70039
0.636391
0.636438
0.637715
0.622309
0.599672
0.60807
0.739459
0.751503
0.751493
0.751491
0.751491
)
;
    }
    atmosphere
    {
        type            inletOutlet;
        inletValue      uniform 0;
        value           nonuniform List<scalar> 
46
(
0
0
3.05642e-22
3.61118e-22
2.91106e-22
2.28112e-22
2.23328e-22
2.22179e-22
2.33334e-22
2.43508e-22
1.77604e-22
1.13838e-22
6.27023e-23
2.97562e-23
1.09615e-23
3.33047e-24
9.26778e-25
0
0
0
0
0
0
0
0
0
0
0
0
0
0
0
0
0
0
0
0
0
0
0
0
0
0
0
0
0
)
;
    }
    defaultFaces
    {
        type            empty;
    }
}


// ************************************************************************* //
