/*--------------------------------*- C++ -*----------------------------------*\
  =========                 |
  \\      /  F ield         | OpenFOAM: The Open Source CFD Toolbox
   \\    /   O peration     | Website:  https://openfoam.org
    \\  /    A nd           | Version:  13
     \\/     M anipulation  |
\*---------------------------------------------------------------------------*/
FoamFile
{
    format      ascii;
    class       volScalarField;
    location    "2.3";
    object      alphas;
}
// * * * * * * * * * * * * * * * * * * * * * * * * * * * * * * * * * * * * * //

dimensions      [];

internalField   nonuniform List<scalar> 
2268
(
2
2
2
2
2
2
2
2
2
2
2
2
2
2
2
2
2
2
2
1.99991
1.99958
1.99943
1.99943
2
2
2
2
2
2
2
2
2
2
2
2
2
2
2
2
2
2
2
2
1.99999
1.99994
1.9997
2
2
2
2
2
2
2
2
2
2
2
2
2
2
2
2
2
2
2
2
2
2
2
2
2
2
2
2
2
2
2
2
2
2
2
2
2
2
2
2
2
2
2
2
2
2
2
2
2
2
2
2
2
2
2
2
2
2
2
2
2
2
2
2
2
2
2
2
2
1.9977
1.99949
2
2
2
2
2
2
2
2
2
2
2
2
1.98549
1.91518
1.83542
1.75754
1.687
1.62803
1.58776
1.59544
1.65684
0.994922
1.0453
1.13521
1.24634
1.32794
1.39687
1.45355
1.49341
1.50348
1.46367
1.3585
1.20944
1.03313
0.83418
0.638932
0.499659
0.38834
0.301525
0.237608
0.1942
0.170804
0.179531
0.23557
1.7046e-08
3.61084e-08
1.38075e-07
6.7358e-06
0.0331367
0.0673036
0.088878
0.093531
0.0826814
0.0647788
0.0460019
0.0231295
0.00555363
1.00875e-07
1.37874e-07
3.36769e-07
6.46892e-07
1.04826e-05
9.19783e-05
0.00018322
0.000407065
0.000797001
0.00179112
1.85467
1.86117
1.86221
1.85525
1.86519
1.88431
1.95412
1.81644
1.76273
1.72746
1.72543
1.72141
1.74635
1.70546
1.75273
1.69374
1.69774
1.77453
1.76583
1.47222
1.46636
1.4927
1.50709
1.4885
1.45907
1.49179
1.63012
1.76061
1.8054
1.93053
1.91317
1.82659
1.82994
1.80128
1.72464
1.72747
1.77488
1.76641
0.761609
0.61751
0.722379
0.889028
1.02423
0.977213
0.650283
0.655818
0.867577
1.28325
1.95185
2.18648
1.96989
1.9228
2.0145
1.99767
1.83165
1.74471
1.62468
0.442663
0.379778
0.353185
0.408641
0.708814
0.928312
0.73396
0.36626
0.080377
0.107709
1.08545
2.45477
2.31703
2.23164
2.26314
2.23248
1.89465
1.62612
1.57646
0.239943
0.26375
0.286205
0.32377
0.676212
0.920723
0.935829
0.824053
0.196104
0.0106842
0.341607
1.9029
2.38862
2.39497
2.36961
2.29896
2.21636
1.91007
1.89387
0.250372
0.248475
0.235759
0.203736
0.833849
1.10115
1.12789
0.717418
0.187914
0.0117522
0.00116723
1.55345
2.05641
2.25771
2.24232
1.69962
1.14326
1.32355
1.65296
0.254184
0.276877
0.252708
0.253573
1.07527
1.20368
0.791377
0.136984
0.021884
0.0058123
0.000707871
0.287291
1.8791
2.02027
1.60181
0.358823
0.0742694
0.00975634
0.900836
0.29088
0.274249
0.260046
0.481849
1.32994
1.18088
0.33424
0.00263543
0.000587247
0.00055256
0.000473301
0.0212164
0.462851
0.828939
0.422451
0.0309798
0.000149608
0.00160479
0.391462
2.07093e-08
7.15063e-08
5.24246e-07
1.35676e-05
4.82864e-06
5.33312e-07
5.94392e-08
1.22453e-08
8.25241e-09
9.62768e-09
2.95318e-08
5.33201e-08
8.49511e-08
5.84198e-08
9.70031e-08
2.11408e-07
3.92341e-07
6.67044e-06
7.80503e-06
3.78019e-06
2.0494e-06
3.43932e-06
1.88671e-06
6.86289e-08
1.3548e-07
8.72436e-08
0.000177397
4.19023e-05
3.47278e-07
2.31842e-08
1.46914e-08
1.44141e-08
1.65538e-08
2.22204e-08
2.21356e-08
2.3602e-08
2.36563e-08
2.48447e-08
2.7211e-08
3.78109e-08
1.54793e-07
1.42676e-07
0.00193876
0.0181587
0.0684855
0.0362475
2.8038e-07
9.96775e-07
0.00508546
0.00237996
0.00021503
3.12521e-05
3.10583e-08
2.32973e-08
1.90406e-08
1.66087e-08
2.04499e-09
4.72962e-09
1.6132e-08
1.8415e-08
0.00321857
0.0322757
0.0533715
0.113007
0.301569
0.410108
0.539127
0.534086
0.60489
0.0579211
0.0604761
0.0201024
0.00857286
0.0110236
0.00796444
0.0312698
0.0818641
0.0999673
0.111299
0.134733
0.178576
0.291148
0.433966
0.549679
0.679345
0.829156
0.981423
1.10114
1.10355
1.04485
1.12869
1.28087
0.501389
0.389315
0.457364
0.546305
0.571261
0.481686
0.633655
0.795326
0.866536
0.973086
1.05107
1.15626
1.27773
1.31721
1.24927
1.26063
1.31018
1.12316
1.01644
1.01463
1.0191
1.15118
1.1725
0.90999
0.978245
0.995849
1.00096
1.00251
1.06175
1.24773
1.23438
1.11669
1.12099
1.1862
1.16622
1.03353
1.01213
1.02883
1.0468
1.04287
1.0063
1.00009
1.001
1.0078
1.01299
1.00221
1.08899
0.995107
0.999111
1.00005
1.00039
1.0003
1.00021
1.00005
1
1
1
1
1
1
1
1
1
1
1.00009
1.00018
1.00007
1
1
1.11893
1.28019
1.52598
1.49363
1.27076
1.15852
1.12425
1.07695
1.01709
1
1
1
1
1
1
1
1
1
1
1
1
1
0.999999
1.93298
2.66558
2.88427
2.87759
2.85298
2.81899
2.69017
2.39441
2.01927
1.80429
1.7059
1.60969
1.50126
1.41187
1.35114
1.31732
1.2991
1.29583
1.30961
1.30265
1.29052
1.29387
1.32943
2.99209
2.99999
2.99997
2.99997
2.99999
3
3
3
3
3
3
3
2.9516
2.87946
2.84285
2.82248
2.81239
2.82976
2.85654
2.8599
2.86802
2.94627
3
2.99999
2.99999
2.99998
2.99996
2.99991
2.99999
3
3
3
3
3
3
3
3
3
3
3
3
3
3
3
3
3
2.99999
3
2.99999
2.99985
2.99984
2.99993
3
3
3
2.99999
3
3
3
3
3
3
3
3
3
3
3
3
3
3
3
2.99999
2.9999
2.99988
2.99996
3
2.99998
2.99987
2.99973
2.99992
2.99999
3
3
3
3
3
3
3
3
3
3
3
3
3
2.99999
3
3
3
3
3
2.99968
2.99967
2.99966
2.99981
2.99999
3
3
3
3
3
3
3
3
3
3
3
3
3
3
3
3
3
3
2.99976
2.99967
2.99967
2.99976
2.99999
2.99999
2.99999
2.99999
3
3
3
3
3
3
3
3
3
3
3
3
3
3
3
2.99997
2.99979
2.99977
2.99993
2.99999
2.99999
2.99999
2.99999
3
3
3
3
3
3
3
3
3
3
3
3
3
3
3
3
2.99999
2.99999
3
2.99999
2.99999
2.99999
3
3
3
3
3
3
3
3
3
3
3
3
3
3
3
3
3
3
3
3
3
3
3
3
3
3
3
3
3
3
3
3
3
3
3
3
3
3
3
3
3
3
3
3
3
3
3
3
3
3
3
3
3
3
3
3
3
3
3
3
3
3
3
3
3
3
3
3
3
3
3
3
3
3
3
3
3
3
3
3
3
3
3
3
3
3
3
3
3
3
3
3
3
3
3
3
3
3
3
3
3
3
3
3
3
3
3
3
3
3
3
3
3
3
3
3
3
3
3
3
3
3
3
3
3
3
3
3
3
3
3
3
3
3
3
3
3
3
3
3
3
3
3
3
3
3
3
3
3
3
3
3
3
3
3
3
3
3
3
3
3
3
3
3
3
3
3
3
3
3
3
3
3
3
3
3
3
3
3
3
3
3
3
3
3
3
3
3
3
3
3
3
3
3
3
3
3
3
3
3
3
3
3
3
3
3
3
3
3
3
3
3
3
3
3
3
3
3
3
3
3
3
3
3
3
3
3
3
3
3
3
3
3
3
3
3
3
3
3
3
3
3
3
3
3
3
3
3
3
3
3
3
3
3
3
3
3
3
3
3
3
3
3
3
3
3
3
3
3
3
3
3
3
3
3
3
3
3
3
3
3
3
3
3
3
3
3
3
3
3
3
3
3
3
3
3
3
3
3
3
3
3
3
3
3
3
3
3
3
3
3
3
3
3
3
3
3
3
3
3
3
3
3
3
3
3
3
3
3
3
3
3
3
3
3
3
3
3
3
3
3
3
3
3
3
3
3
3
3
3
3
3
3
3
3
3
3
3
3
3
3
3
3
3
3
3
3
3
3
3
3
3
3
3
3
3
3
3
3
3
3
3
3
3
3
3
3
3
3
3
3
3
3
3
3
3
3
3
3
3
3
3
3
3
3
3
3
3
3
3
3
3
3
3
3
3
3
3
3
3
3
3
3
3
3
3
3
3
3
3
3
3
3
3
3
3
3
3
3
3
3
3
3
3
3
3
3
3
3
3
3
3
3
3
3
3
3
3
3
3
3
3
3
3
3
3
3
3
3
3
3
3
3
3
3
3
3
3
3
3
3
3
3
3
3
3
3
3
3
3
3
3
3
3
3
3
3
3
3
3
3
3
3
3
3
3
3
3
3
3
3
3
3
3
3
3
3
3
3
3
3
3
3
3
3
3
3
3
3
3
3
3
3
3
3
3
3
3
3
3
3
3
3
3
3
3
3
3
3
3
3
3
3
3
3
3
3
3
3
3
3
3
3
3
3
3
3
3
3
3
3
3
3
3
3
3
3
3
3
3
3
3
3
0.00137011
0.0352518
0.150991
0.478418
0.00463261
0.351661
1.29989
1.22413
1.0593
1.34249
1.33526
1.14143
1.29157
1.10803
1.10249
1.10889
1.01644
0.999097
1.00013
1.00009
0.999979
1.00001
1.00001
1.00001
1
1.00001
0.999992
0.999981
0.999995
0.999996
0.999997
1
1.35477
1.41921
1.4968
1.57604
3
3
3
3
3
3
3
3
3
3
3
3
3
3
3
3
3
3
3
3
3
3
3
3
3
3
3
3
3
3
3
3
3
3
3
3
3
3
3
3
3
3
3
3
3
3
3
3
3
3
3
3
3
3
3
3
3
3
3
3
3
3
3
3
3
3
3
3
3
3
3
3
3
3
3
3
3
3
3
3
3
3
3
3
3
3
3
3
3
3
3
3
3
3
3
3
3
3
3
3
3
3
3
3
3
3
3
3
3
3
3
3
3
3
3
3
3
3
3
3
3
3
3
3
3
3
3
3
3
3
3
3
0.687189
0.319885
0.378074
0.754695
1.34594
0.825351
0.175582
0.0131642
0.0103295
0.00339994
0.00189706
0.000888223
0.00138227
0.0125421
0.00511683
0.000222732
0.000328813
0.00633144
0.249766
0.695393
0.610665
0.811637
1.26012
1.23512
0.772458
0.62566
0.406773
0.276762
0.145421
0.0683461
0.0203386
0.0014735
0.000976366
0.00117836
0.00584696
0.00866753
0.0735652
0.118954
1.21618
1.0922
1.01804
1.06197
1.20681
1.23045
1.19882
0.988707
0.967547
0.913604
0.834156
0.741866
0.658634
0.608692
0.571828
0.53867
0.513882
0.681405
0.716372
1.02345
1.00089
1.00072
1.04935
1.13604
1.10356
1.00788
1.00003
1.00004
1.00003
1
1.00003
1.00018
1.00044
1.00035
1.00024
1.00116
1.0648
1.12225
1.00012
1.00087
1.00199
1.00688
1.00056
1
1
1.00001
1.00002
1
1
1
1.00013
1.00042
1.00048
1.00034
1.00024
1.00027
1.00273
1.00001
1.00006
1.00015
1
1
1
1
1
1
1
1
1
1
1
0.999999
0.999973
0.999331
0.998388
0.998085
0.999996
1
1
1
1
1
1
1
1
1
0.999998
0.999976
1.01066
1.07641
1.18509
1.33105
1.49386
1.63749
1.70025
0.999999
1
1
1
1
1.03383
1.10379
1.18954
1.28816
1.40007
1.55592
1.82719
2.22627
2.52386
2.70322
2.84114
2.93946
2.98369
2.96151
1.69483
1.82913
1.96227
2.08745
2.23541
2.38822
2.52434
2.65354
2.77291
2.88242
2.96769
2.99433
2.98862
2.98907
2.99712
2.99994
3
2.99987
2.99953
3
3
2.99272
2.99851
2.99998
2.99998
2.99994
2.99983
2.99915
2.99843
2.99843
2.99899
2.99936
2.99965
2.99998
3
3
3
3
3
3
3
3
2.99998
2.99995
2.99989
2.99986
2.99982
2.99981
2.99887
2.99793
2.99793
2.99946
3
3
3
3
3
3
3
3
3
2.99967
2.99805
2.99804
2.99881
2.99998
2.99998
2.99916
2.99799
2.99894
3
3
3
3
3
3
3
3
3
3
2.9998
2.99825
2.99805
2.99804
2.99935
3
3
3
3
3
3
3
3
3
3
3
3
3
3
3
2.99997
2.99978
2.99971
2.99986
3
3
3
3
3
3
3
3
3
3
3
3
3
3
3
3
3
3
3
3
3
3
3
3
3
3
3
3
3
3
3
3
3
3
3
3
3
3
3
3
3
3
3
3
3
3
3
3
3
3
3
3
3
3
3
3
3
3
3
3
3
3
3
3
3
3
3
3
3
3
3
3
3
3
3
3
3
3
3
3
3
3
3
3
3
3
3
3
3
3
3
3
3
3
3
3
3
3
3
3
3
3
3
3
3
3
3
3
3
3
3
3
3
3
3
3
3
3
3
3
3
3
3
3
3
3
3
3
3
3
3
3
3
3
3
3
3
3
3
3
3
3
3
3
3
3
3
3
3
3
3
3
3
3
3
3
3
3
3
3
3
3
3
3
3
3
3
3
3
3
3
3
3
3
3
3
3
3
3
3
3
3
3
3
3
3
3
3
3
3
3
3
3
3
3
3
3
3
3
3
3
3
3
3
3
3
3
3
3
3
3
3
3
3
3
3
3
3
3
3
3
3
3
3
3
3
3
3
3
3
3
3
3
3
3
3
3
3
3
3
3
3
3
3
3
3
3
3
3
3
3
3
3
3
3
3
3
3
3
3
3
3
3
3
3
3
3
3
3
3
3
3
3
3
3
3
3
3
3
3
3
3
3
3
3
3
3
3
3
3
3
3
3
3
3
3
3
3
3
3
3
3
3
3
3
3
3
3
3
3
3
3
3
3
3
3
3
3
3
3
3
3
3
3
3
3
3
3
3
3
3
3
3
3
3
3
3
3
3
3
3
3
3
3
3
3
3
3
3
3
3
3
3
3
3
3
3
3
3
3
3
3
3
3
3
3
3
3
3
3
3
3
3
3
3
3
3
3
3
3
3
3
3
3
3
3
3
3
3
3
3
3
3
3
3
3
3
3
3
3
3
3
3
3
3
3
3
3
3
3
3
3
3
3
3
3
3
3
3
3
3
3
3
3
3
3
3
3
3
3
3
3
3
3
3
3
3
3
3
3
3
3
3
3
3
3
3
3
3
3
3
3
3
3
3
3
3
3
3
3
3
3
3
3
3
3
3
3
3
3
3
3
3
3
3
3
3
3
3
3
3
3
3
3
3
3
3
3
3
3
3
3
3
3
3
3
3
3
3
3
3
3
3
3
3
3
3
3
3
3
3
3
3
3
3
3
3
3
3
3
3
3
3
3
3
3
3
3
3
3
3
3
3
3
3
3
3
3
3
3
3
3
)
;

boundaryField
{
    leftWall
    {
        type            calculated;
        value           nonuniform List<scalar> 
50
(
2
2
2
2
2
1.9977
0.994922
1.7046e-08
2.07093e-08
6.86289e-08
2.8038e-07
0.0579211
0.501389
0.90999
1.08899
1.11893
1.93298
2.99209
2.99999
2.99999
3
3
3
3
3
3
3
3
3
3
3
3
3
3
3
3
3
3
3
3
3
3
3
3
3
3
3
3
3
3
)
;
    }
    rightWall
    {
        type            calculated;
        value           nonuniform List<scalar> 
50
(
1.76583
1.76641
1.62468
1.57646
1.89387
1.65296
0.900836
0.391462
0.249766
0.118954
0.716372
1.12225
1.00273
0.998085
1.70025
2.96151
2.99953
3
3
3
3
3
3
3
3
3
3
3
3
3
3
3
3
3
3
3
3
3
3
3
3
3
3
3
3
3
3
3
3
3
)
;
    }
    lowerWall
    {
        type            calculated;
        value           nonuniform List<scalar> 
62
(
2
2
2
2
2
2
2
2
2
2
2
2
2
2
2
2
2
2
2
1.99991
1.99958
1.99943
1.99943
1.99943
1.9997
2
2
2
1.65684
0.23557
0.00179112
0.00137011
0.0352518
0.150991
0.478418
1.85467
1.47222
0.761609
0.442663
0.239943
0.250372
0.254184
0.29088
1.85467
1.86117
1.86221
1.85525
1.86519
1.88431
1.95412
1.81644
1.76273
1.72746
1.72543
1.72141
1.74635
1.70546
1.75273
1.69374
1.69774
1.77453
1.76583
)
;
    }
    atmosphere
    {
        type            calculated;
        value           nonuniform List<scalar> 
46
(
3
3
3
3
3
3
3
3
3
3
3
3
3
3
3
3
3
3
3
3
3
3
3
3
3
3
3
3
3
3
3
3
3
3
3
3
3
3
3
3
3
3
3
3
3
3
)
;
    }
    defaultFaces
    {
        type            empty;
    }
}


// ************************************************************************* //
