/*--------------------------------*- C++ -*----------------------------------*\
  =========                 |
  \\      /  F ield         | OpenFOAM: The Open Source CFD Toolbox
   \\    /   O peration     | Website:  https://openfoam.org
    \\  /    A nd           | Version:  13
     \\/     M anipulation  |
\*---------------------------------------------------------------------------*/
FoamFile
{
    format      ascii;
    class       volScalarField;
    location    "2.3";
    object      alpha.water;
}
// * * * * * * * * * * * * * * * * * * * * * * * * * * * * * * * * * * * * * //

dimensions      [];

internalField   nonuniform List<scalar> 
2268
(
9.16381e-11
1.03941e-10
1.17237e-10
1.23808e-10
1.30143e-10
1.36639e-10
1.42215e-10
1.46502e-10
1.5076e-10
1.61466e-10
1.79789e-10
2.0504e-10
2.40971e-10
2.93335e-10
3.64285e-10
4.59374e-10
5.81846e-10
8.08425e-10
1.32341e-09
2.10464e-09
2.67769e-09
2.77882e-09
2.77882e-09
2.2221e-10
2.73096e-10
2.53829e-10
2.49003e-10
2.65955e-10
2.97292e-10
3.36487e-10
3.83811e-10
4.24924e-10
4.62441e-10
4.96609e-10
5.40001e-10
5.76198e-10
6.08442e-10
6.31576e-10
6.88523e-10
7.90598e-10
1.01853e-09
1.36155e-09
1.78528e-09
2.35068e-09
2.5668e-09
2.49761e-09
3.20017e-10
4.25516e-10
3.64451e-10
3.2592e-10
3.52091e-10
3.98238e-10
4.70597e-10
5.754e-10
6.98557e-10
8.27031e-10
9.66448e-10
1.06867e-09
1.10906e-09
1.04862e-09
9.1309e-10
8.05888e-10
1.11683e-09
1.41808e-09
1.60112e-09
1.85308e-09
2.18959e-09
2.60501e-09
1.47156e-09
3.07022e-10
5.321e-10
3.90247e-10
2.94472e-10
3.55505e-10
3.65379e-10
4.03142e-10
5.30654e-10
6.84312e-10
8.95598e-10
1.22086e-09
1.37435e-09
1.38801e-09
1.10709e-09
7.89078e-10
6.46269e-10
6.6647e-10
7.07506e-10
7.2444e-10
7.8312e-10
8.07842e-10
1.3543e-09
1.254e-09
2.0791e-10
2.9899e-10
1.85973e-10
1.52561e-10
2.32742e-10
2.34146e-10
2.3373e-10
4.76668e-10
5.32281e-10
3.92543e-10
3.73238e-10
2.71116e-10
2.1433e-10
1.812e-11
4.87862e-11
1.75129e-11
2.4125e-11
-2.67093e-13
2.55961e-11
2.06795e-26
2.55961e-11
4.17421e-11
9.31462e-11
0.00114756
0.000257032
4.8753e-08
2.50401e-08
3.58136e-09
7.5897e-12
-7.81416e-13
2.44954e-12
-1.10338e-13
3.0008e-12
-5.19902e-14
1.60252e-11
-6.52019e-11
1.17903e-10
0.00725611
0.0424104
0.0822879
0.121229
0.156499
0.186001
0.206203
0.202471
0.171825
0.502539
0.477348
0.432395
0.376829
0.33603
0.301564
0.273227
0.253295
0.248261
0.268164
0.320752
0.395279
0.483433
0.58291
0.680534
0.750171
0.80583
0.849237
0.8812
0.902965
0.914868
0.910819
0.8828
1
1
1
0.999998
0.983432
0.966348
0.955561
0.953234
0.958659
0.967611
0.976999
0.988435
0.997223
1
1
1
1
0.999996
0.999969
0.999939
0.999857
0.999721
0.999373
0.0107401
0.0107279
0.0231243
0.0550711
0.0646855
0.058782
0.0368138
0.0163587
0.000767465
0.000673527
0.000675491
0.000730109
0.000970068
0.0747965
0.124595
0.124759
0.0817059
0.00487009
0.0135331
0.0651281
0.0727007
0.0659749
0.0542084
0.0802664
0.204786
0.239717
0.169967
0.0845649
0.0759658
0.0305978
0.00116858
0.00111791
0.0489058
0.104436
0.124714
0.0589032
0.00447624
0.0128779
0.428112
0.557447
0.442392
0.284309
0.203903
0.235691
0.574587
0.660838
0.566196
0.362253
0.101828
0.00166243
0.00292437
0.00632574
0.0240931
0.0273193
0.00643829
0.00414633
0.00134526
0.748626
0.815952
0.825931
0.784407
0.451232
0.176666
0.309099
0.677308
0.954478
0.946281
0.582069
0.0451314
0.00099345
0.00102249
0.00100969
0.0010124
0.00101377
0.00102643
0.00104398
0.884323
0.873705
0.862448
0.84354
0.471394
0.180313
0.176787
0.259874
0.843192
0.994372
0.886049
0.313557
0.00531606
0.00101645
0.00101652
0.00101381
0.0030517
0.0115958
0.0121504
0.884323
0.884323
0.884323
0.879652
0.299192
0.103157
0.101056
0.463185
0.891641
0.994125
0.999543
0.444436
0.121572
0.00931546
0.0102301
0.194492
0.403127
0.476498
0.171759
0.884323
0.884323
0.884323
0.80101
0.132136
0.0996504
0.522341
0.938221
0.989149
0.997158
0.999669
0.862537
0.18227
0.126505
0.262021
0.694618
0.925765
0.996612
0.418418
0.857983
0.884323
0.884323
0.708857
0.0561694
0.242129
0.884376
0.99912
0.999791
0.999793
0.999786
0.978914
0.731172
0.544477
0.701572
0.96904
0.999892
0.998403
0.608549
1
1
1
0.999995
0.999998
1
1
1
1
1
1
1
1
1
1
1
1
0.999998
0.999997
0.999999
0.999999
0.999999
0.999999
1
1
1
0.999941
0.999986
1
1
1
1
1
1
1
1
1
1
1
1
1
1
0.999354
0.993947
0.977171
0.987918
1
1
0.998305
0.999207
0.999928
0.99999
1
1
1
1
1
1
1
1
0.998927
0.989241
0.982209
0.962331
0.899477
0.863297
0.737262
0.590985
0.500652
0.980693
0.979841
0.991815
0.991729
0.989137
0.993802
0.989577
0.972712
0.966678
0.9629
0.95442
0.936354
0.8942
0.840077
0.764282
0.640178
0.501168
0.354008
0.23509
0.144981
0.0551696
0.0116919
0.0100051
0.80862
0.707308
0.542777
0.453846
0.42885
0.528127
0.613242
0.607362
0.537857
0.431198
0.353325
0.248013
0.126543
0.052378
0.0239619
0.0151284
0.00583124
-4.33615e-19
1.57389e-19
6.8315e-20
4.22033e-20
4.74636e-21
1.27705e-20
0.39806
0.0538706
0.00428518
0.000105946
4.47149e-05
0.000994842
0.00679551
2.22045e-18
-7.83213e-12
1.39995e-18
6.72727e-19
4.75535e-27
5.31401e-19
1.69734e-17
1.08369e-16
3.13476e-16
2.39569e-11
1.01488e-12
8.79414e-11
1.97169e-07
2.00754e-06
3.21399e-06
1.47211e-05
0.00618406
0.00507681
0.00103071
0.000163507
-7.87516e-14
7.87516e-14
-2.43091e-25
1.00057e-24
2.1296e-09
1.23539e-08
3.81155e-09
1.14858e-09
3.05431e-09
7.34426e-09
1.08135e-08
1.11645e-08
1.0263e-08
9.323e-09
6.27127e-08
4.20448e-07
5.95587e-07
5.63448e-07
7.6544e-07
1.66085e-05
0.000888511
0.000173942
2.12033e-06
5.07451e-08
8.0912e-07
3.64609e-07
2.08675e-10
1.08506e-07
9.20578e-08
1.13738e-08
7.04604e-10
7.87937e-09
3.74685e-08
6.83151e-08
7.702e-08
7.98169e-08
1.88667e-07
3.57278e-07
3.68171e-07
2.9138e-07
2.90772e-07
5.26019e-07
1.03391e-07
1.72064e-07
3.59274e-05
6.6108e-09
6.11762e-09
9.74666e-09
1.10401e-07
2.49759e-07
2.52452e-07
2.49759e-07
1.20692e-07
2.64602e-10
3.57159e-10
4.08469e-08
1.98741e-07
1.99672e-07
1.98741e-07
1.76485e-07
2.50276e-08
3.49222e-08
1.71867e-07
3.8404e-07
5.36819e-07
7.51996e-08
3.20329e-06
8.70885e-06
7.23665e-06
2.32339e-07
7.31875e-09
3.77346e-08
8.83223e-08
1.61628e-07
2.06154e-07
1.73462e-07
3.1106e-09
1.14166e-09
1.76116e-08
1.23989e-07
1.85622e-07
1.36577e-07
1.53063e-08
3.24917e-09
2.87653e-09
3.90593e-09
1.4093e-08
1.16319e-08
4.04347e-08
1.37471e-06
3.99713e-06
7.90702e-06
6.07252e-06
8.38257e-07
1.16024e-08
1.18775e-08
1.95541e-08
4.37572e-08
5.72473e-08
4.71725e-08
2.42824e-08
9.08035e-09
4.77181e-09
4.68364e-09
9.39371e-09
1.19551e-08
7.28139e-09
2.69012e-09
3.66647e-10
4.78223e-10
1.65444e-09
2.2277e-08
2.06294e-07
4.92503e-07
2.57842e-06
5.85444e-06
1.35172e-06
1.01191e-08
1.52754e-08
2.93647e-08
1.22559e-07
1.23056e-07
4.12019e-08
2.32592e-08
2.67214e-09
1.26947e-09
2.63015e-09
6.6263e-09
8.93839e-09
3.20762e-09
2.17743e-09
1.06375e-09
6.05521e-10
5.86096e-10
4.04637e-09
4.75725e-09
4.50329e-08
2.57723e-08
3.0048e-06
4.66059e-07
1.15933e-08
3.81636e-09
1.57627e-07
1.54815e-06
2.22677e-06
6.89325e-07
1.52567e-07
1.32825e-08
1.4451e-08
1.8135e-08
3.00535e-08
3.35282e-08
3.16114e-09
3.71461e-09
3.2743e-09
1.21257e-09
6.33898e-10
1.47174e-08
1.1784e-08
1.13904e-07
1.9143e-08
8.67657e-10
2.88681e-10
2.52455e-09
2.10898e-10
6.36348e-08
1.40343e-06
3.16565e-06
3.18015e-06
2.20274e-06
4.6639e-07
4.12061e-07
4.97533e-07
3.52829e-07
7.52571e-08
4.70092e-09
8.43046e-09
5.81708e-09
4.05692e-09
1.93298e-09
2.22875e-08
1.83315e-08
7.85289e-08
1.28968e-08
1.90781e-09
7.28951e-10
3.81966e-10
2.09657e-10
2.0261e-10
6.4924e-07
2.54137e-06
3.18069e-06
3.18129e-06
2.65888e-06
2.16258e-06
2.23959e-06
9.64545e-07
1.37086e-07
4.42629e-08
1.71511e-08
1.14206e-08
8.57896e-09
6.35571e-09
2.2247e-08
1.52596e-08
2.6732e-08
7.24743e-09
2.96337e-09
1.18263e-09
4.50748e-10
2.08283e-10
2.03097e-10
2.62947e-08
4.80393e-07
2.96572e-06
3.1802e-06
3.1809e-06
3.18074e-06
3.18e-06
1.46813e-06
1.86838e-07
6.13096e-08
2.25744e-08
2.51619e-08
2.51884e-08
1.69535e-08
1.99151e-08
1.09529e-08
9.14811e-09
6.1184e-09
3.22419e-09
1.0123e-09
3.85006e-10
3.12936e-10
4.63115e-10
4.92634e-10
5.14751e-10
3.58311e-07
1.52128e-06
3.04785e-06
2.53864e-06
1.24682e-06
5.37399e-07
2.7478e-07
6.78959e-08
1.70336e-08
2.5569e-08
2.55975e-08
2.20788e-08
1.72851e-08
7.36326e-09
5.78813e-09
4.93025e-09
3.08319e-09
1.25668e-09
6.992e-10
6.86348e-10
1.0197e-09
8.98558e-10
5.69473e-10
5.02136e-09
5.59812e-07
8.39867e-07
5.41297e-07
2.57524e-07
1.38298e-07
1.26141e-07
7.04428e-08
1.68559e-08
2.11844e-08
1.94402e-08
1.76406e-08
1.55598e-08
4.996e-09
4.18498e-09
3.6897e-09
2.61804e-09
1.85e-09
1.35519e-09
1.27265e-09
1.43864e-09
1.62575e-09
1.0703e-09
1.33634e-08
1.02815e-07
8.2073e-08
5.88887e-08
5.3245e-08
5.03572e-08
4.4474e-08
3.5531e-08
1.69236e-08
1.41399e-08
1.386e-08
1.23512e-08
1.70442e-08
3.87175e-09
3.1064e-09
2.91404e-09
2.35635e-09
1.86851e-09
1.52988e-09
1.29818e-09
1.36714e-09
1.67925e-09
2.11686e-09
6.07833e-09
1.33626e-09
1.74423e-09
6.29875e-09
1.59214e-08
2.02694e-08
2.04887e-08
1.73611e-08
1.01625e-08
8.46631e-09
7.95818e-09
7.51645e-09
1.79335e-08
3.52128e-09
2.53862e-09
2.51518e-09
2.16549e-09
1.7935e-09
1.48096e-09
1.22527e-09
1.11564e-09
1.28996e-09
1.61295e-09
1.98565e-09
1.34869e-09
1.30817e-09
2.77344e-09
6.27521e-09
9.03867e-09
9.25592e-09
7.81388e-09
5.56394e-09
4.59485e-09
4.20386e-09
4.00907e-09
1.79334e-08
3.5661e-09
2.20944e-09
2.2808e-09
2.00678e-09
1.67999e-09
1.38108e-09
1.13975e-09
8.93654e-10
8.5981e-10
9.1456e-10
9.25989e-10
8.49532e-10
9.04601e-10
1.49398e-09
2.66253e-09
3.90407e-09
3.856e-09
3.42266e-09
2.6629e-09
2.06849e-09
1.80867e-09
1.80277e-09
1.79332e-08
4.14794e-09
2.09983e-09
2.11859e-09
1.83884e-09
1.5225e-09
1.24826e-09
1.00055e-09
7.94096e-10
6.2857e-10
5.22455e-10
4.58563e-10
4.28239e-10
4.87789e-10
7.56307e-10
1.12279e-09
1.52873e-09
1.52464e-09
1.28957e-09
1.00573e-09
7.94779e-10
7.02801e-10
6.94993e-10
1.76461e-08
5.97559e-09
2.08971e-09
1.98417e-09
1.67778e-09
1.33833e-09
1.08514e-09
8.52247e-10
6.63864e-10
4.97634e-10
3.73992e-10
2.8471e-10
2.3612e-10
2.49291e-10
3.14696e-10
4.09403e-10
5.25643e-10
5.21118e-10
4.30014e-10
3.34412e-10
2.61734e-10
2.289e-10
2.32609e-10
1.63604e-08
7.25635e-09
2.43171e-09
1.90716e-09
1.46364e-09
1.11903e-09
8.62015e-10
6.77722e-10
5.32438e-10
4.06272e-10
2.99972e-10
2.15305e-10
1.56944e-10
1.30613e-10
1.29188e-10
1.3779e-10
1.61886e-10
1.46514e-10
1.22986e-10
9.68282e-11
7.5603e-11
6.88035e-11
6.9023e-11
1.52434e-08
6.99663e-09
3.11404e-09
1.85392e-09
1.29285e-09
9.04691e-10
6.62201e-10
5.03112e-10
3.90362e-10
3.04109e-10
2.29721e-10
1.6664e-10
1.15827e-10
7.87595e-11
6.07516e-11
5.13607e-11
4.5925e-11
4.07987e-11
3.34262e-11
2.67433e-11
2.17373e-11
1.95724e-11
1.96258e-11
1.29051e-08
6.56026e-09
3.20406e-09
1.75242e-09
1.1139e-09
7.22089e-10
4.89709e-10
3.47786e-10
2.61876e-10
2.03887e-10
1.56113e-10
1.1631e-10
8.24309e-11
5.39416e-11
3.56776e-11
2.41169e-11
1.70583e-11
1.24028e-11
9.89144e-12
8.07012e-12
6.82925e-12
6.19855e-12
5.82693e-12
1.15352e-08
5.93167e-09
3.02775e-09
1.58871e-09
9.30244e-10
5.59882e-10
3.3836e-10
2.30396e-10
1.63349e-10
1.22084e-10
9.31495e-11
7.07943e-11
5.05162e-11
3.48432e-11
2.23329e-11
1.37137e-11
8.34858e-12
5.19928e-12
3.62841e-12
2.80136e-12
2.35615e-12
2.03673e-12
1.86325e-12
9.3546e-09
5.05938e-09
2.64829e-09
1.35636e-09
7.43922e-10
4.12778e-10
2.32634e-10
1.4189e-10
9.36912e-11
6.66742e-11
4.96047e-11
3.75432e-11
2.68601e-11
1.89935e-11
1.26173e-11
7.62827e-12
4.32061e-12
2.38649e-12
1.4596e-12
1.03709e-12
8.04471e-13
6.74441e-13
5.80739e-13
7.63078e-09
4.03652e-09
2.08571e-09
1.04929e-09
5.4577e-10
2.85765e-10
1.48065e-10
8.01476e-11
5.03084e-11
3.32195e-11
2.27846e-11
1.70081e-11
1.23978e-11
8.81045e-12
5.8287e-12
3.58814e-12
1.98587e-12
1.04647e-12
5.65026e-13
3.58674e-13
2.67183e-13
2.04746e-13
1.72695e-13
5.61757e-09
2.88001e-09
1.46583e-09
7.23343e-10
3.61522e-10
1.80356e-10
8.61924e-11
4.3863e-11
2.43931e-11
1.45487e-11
1.00587e-11
6.80939e-12
4.99972e-12
3.48636e-12
2.28372e-12
1.4401e-12
7.98032e-13
3.86585e-13
2.01021e-13
1.16305e-13
7.65259e-14
5.78674e-14
4.56294e-14
3.79931e-09
1.8557e-09
9.17005e-10
4.40365e-10
2.07844e-10
9.84214e-11
4.56372e-11
2.18794e-11
1.0592e-11
5.96529e-12
3.72297e-12
2.55143e-12
1.716e-12
1.16074e-12
7.92299e-13
4.85584e-13
2.60709e-13
1.25997e-13
6.04945e-14
3.19389e-14
2.04593e-14
1.42588e-14
1.08132e-14
2.08952e-09
1.04125e-09
4.92993e-10
2.28851e-10
1.04519e-10
4.48835e-11
2.05076e-11
9.12997e-12
4.29952e-12
2.20561e-12
1.29081e-12
8.29732e-13
5.37786e-13
3.52557e-13
2.25405e-13
1.34599e-13
7.06893e-14
3.36393e-14
1.51892e-14
7.46918e-15
4.60623e-15
3.13698e-15
2.18503e-15
1.07639e-09
4.70463e-10
2.1446e-10
9.57196e-11
4.20378e-11
1.89451e-11
8.12376e-12
3.41582e-12
1.47526e-12
7.13309e-13
3.97262e-13
2.29947e-13
1.42751e-13
8.87239e-14
5.4395e-14
3.3089e-14
1.61708e-14
7.11994e-15
3.18737e-15
1.5257e-15
8.97272e-16
5.78936e-16
3.82274e-16
4.34416e-10
1.91585e-10
8.14917e-11
3.44519e-11
1.46109e-11
6.16157e-12
2.55313e-12
1.0419e-12
4.32472e-13
1.99966e-13
9.89727e-14
5.61741e-14
3.27573e-14
2.04467e-14
1.20745e-14
6.46632e-15
3.18003e-15
1.30995e-15
5.57826e-16
2.71238e-16
1.58438e-16
9.65566e-17
5.78856e-17
1.533e-10
6.30591e-11
2.53848e-11
1.03688e-11
4.29888e-12
1.77176e-12
7.21094e-13
2.72792e-13
1.09583e-13
4.6176e-14
2.2574e-14
1.24216e-14
7.33332e-15
4.41078e-15
2.4492e-15
1.25814e-15
5.39937e-16
2.11844e-16
9.03341e-17
4.30592e-17
2.41415e-17
1.34357e-17
7.30706e-18
4.11825e-11
1.56177e-11
6.10199e-12
2.46786e-12
1.01096e-12
4.10791e-13
1.64068e-13
6.49192e-14
2.56873e-14
1.03505e-14
4.91891e-15
2.60356e-15
1.48185e-15
8.03695e-16
4.38988e-16
2.08807e-16
8.26465e-17
3.10488e-17
1.29612e-17
6.20904e-18
3.21251e-18
1.55949e-18
7.48417e-19
8.90704e-12
3.21586e-12
1.26574e-12
5.27354e-13
2.17707e-13
8.83326e-14
3.49743e-14
1.37128e-14
5.28364e-15
2.10278e-15
9.10591e-16
4.69739e-16
2.56521e-16
1.39542e-16
7.01019e-17
3.03514e-17
1.13977e-17
4.20601e-18
1.75037e-18
7.93416e-19
3.57407e-19
1.53993e-19
7.26847e-20
1.32863e-12
4.96451e-13
2.10355e-13
8.4887e-14
3.64986e-14
1.52513e-14
5.94983e-15
2.34171e-15
8.98662e-16
3.55706e-16
1.60463e-16
8.07304e-17
4.23536e-17
2.17766e-17
1.01417e-17
4.1187e-18
1.48658e-18
5.3683e-19
2.15859e-19
9.08044e-20
3.64744e-20
1.34696e-20
3.72471e-21
1.0781e-13
4.80829e-14
2.60554e-14
1.26947e-14
5.99873e-15
2.60742e-15
1.05556e-15
4.07092e-16
1.53959e-16
5.88061e-17
2.47466e-17
1.22078e-17
6.35637e-18
3.10615e-18
1.38493e-18
5.39446e-19
1.90871e-19
6.39648e-20
2.42781e-20
8.82182e-21
2.97732e-21
8.29329e-22
6.61625e-23
1.806e-15
2.37001e-15
2.30967e-15
1.50212e-15
7.38635e-16
3.20905e-16
1.34209e-16
5.26271e-17
2.03958e-17
8.75238e-18
3.67849e-18
1.76923e-18
9.07205e-19
4.23944e-19
1.82109e-19
6.79601e-20
2.1891e-20
8.05427e-21
2.82962e-21
8.76324e-22
2.49492e-22
1.93257e-23
4.8303e-25
6.61809e-21
4.09089e-17
1.65563e-16
1.48306e-16
8.80363e-17
4.19066e-17
1.87664e-17
7.41491e-18
2.92536e-18
1.19993e-18
4.76491e-19
2.21296e-19
1.1052e-19
5.4828e-20
2.29067e-20
8.30161e-21
2.90414e-21
1.0091e-21
3.35814e-22
9.46754e-23
1.33603e-23
4.29666e-25
5.14818e-27
0.999543
0.983294
0.9117
0.642755
0.998456
0.674707
0.0797908
0.16269
0.261944
0.0310857
0.0381881
0.232007
0.000532677
0.00735171
0.0199983
0.00600254
0.000527644
0.00113431
1.10892e-05
5.19683e-08
4.41669e-05
1.62572e-06
1.17507e-05
2.06742e-05
6.80362e-07
1.7526e-06
1.4249e-05
2.07276e-05
4.55603e-06
4.47837e-06
3.36219e-06
7.40222e-07
2.10666e-06
1.98274e-06
1.73376e-09
1.84415e-09
1.37737e-09
1.84583e-09
2.99042e-09
4.86063e-09
1.02494e-08
1.3223e-08
1.73548e-08
1.79963e-08
1.03956e-09
1.04163e-09
3.10856e-10
2.59137e-10
3.56599e-10
3.39887e-10
2.8945e-10
2.40243e-10
9.678e-10
6.63769e-10
6.2402e-10
5.5105e-10
4.01249e-09
2.31291e-09
2.10613e-09
2.0563e-09
1.1677e-08
7.15222e-09
7.33747e-09
4.46724e-09
1.79266e-08
1.14579e-08
1.14582e-08
8.85064e-09
1.63251e-08
1.15331e-08
1.09359e-08
9.4168e-09
1.18546e-08
9.75131e-09
8.88851e-09
7.88835e-09
6.93535e-09
6.42971e-09
5.88834e-09
5.3694e-09
3.97421e-09
3.75648e-09
3.48326e-09
3.28925e-09
1.84159e-09
1.80002e-09
1.81065e-09
1.73541e-09
7.44876e-10
7.92641e-10
7.86565e-10
7.82911e-10
2.50955e-10
2.68926e-10
2.97254e-10
2.90328e-10
7.52992e-11
8.10694e-11
8.57154e-11
8.53384e-11
2.09168e-11
2.14734e-11
2.29726e-11
2.1933e-11
5.93465e-12
5.804e-12
5.68862e-12
5.40694e-12
1.82873e-12
1.69652e-12
1.64966e-12
1.49899e-12
5.60481e-13
5.16474e-13
4.72474e-13
4.25919e-13
1.59982e-13
1.44088e-13
1.35281e-13
1.17559e-13
4.20933e-14
3.78965e-14
3.368e-14
2.83977e-14
9.7943e-15
8.56669e-15
7.39468e-15
6.00905e-15
1.90271e-15
1.57079e-15
1.31634e-15
1.0104e-15
3.22014e-16
2.64158e-16
2.04045e-16
1.46848e-16
4.60839e-17
3.49284e-17
2.49261e-17
1.6914e-17
5.35037e-18
3.80647e-18
2.6585e-18
1.6972e-18
5.17062e-19
3.44436e-19
1.43842e-19
2.74924e-20
2.31557e-20
6.94177e-21
1.49049e-21
1.06951e-22
1.56606e-22
3.28771e-23
5.15942e-24
1.66641e-25
3.55252e-27
4.67871e-26
1.4913e-27
1.36326e-27
4.01373e-41
1.17919e-28
4.75108e-28
1.52766e-27
-4.83385e-46
1.1864e-28
4.12468e-28
1.17307e-27
0.663324
0.87249
0.853066
0.618612
0.051876
0.53681
0.941452
0.995592
0.996555
0.998849
0.999333
0.999351
0.998703
0.987501
0.994912
0.999855
0.999837
0.99368
0.751036
0.680243
0.745753
0.547692
0.105903
0.0583367
0.583163
0.705342
0.654497
0.723567
0.856882
0.934108
0.982038
0.999213
0.999409
0.999354
0.994478
0.994941
0.972876
0.946542
0.148502
0.0406702
0.0135972
0.00122623
0.0586526
0.125163
0.0389057
0.0174963
0.0324972
0.0866431
0.166888
0.259511
0.342151
0.391869
0.428819
0.461748
0.494828
0.448628
0.42356
1.88395e-05
1.87737e-05
0.000196533
0.0011422
0.00862574
1.21861e-19
-1.28953e-13
-1.13172e-20
1.54391e-20
8.34191e-20
-4.29157e-19
1.68393e-19
-4.05532e-19
2.56126e-18
0.000232358
0.000110132
4.80703e-05
4.81284e-05
4.83371e-05
2.01092e-05
1.87325e-05
4.74831e-06
5.46918e-05
6.06985e-08
5.87676e-08
1.51868e-08
1.66098e-08
1.83752e-07
3.32328e-07
3.22068e-07
1.58056e-07
6.84361e-09
4.69645e-17
1.54822e-05
3.71333e-05
6.80371e-05
6.20915e-05
0.000200819
2.07292e-05
3.34016e-06
1.17893e-09
1.0606e-09
8.45062e-08
1.54423e-08
4.02601e-08
5.72749e-08
7.54308e-08
1.01509e-07
1.62395e-07
6.36143e-12
-3.84661e-12
1.67135e-14
8.71929e-06
7.47355e-05
0.000790269
0.00181631
0.00212313
4.34562e-06
2.66029e-09
8.17307e-10
7.67302e-09
2.19743e-08
1.97724e-10
5.63383e-09
4.4731e-09
9.80093e-09
8.2266e-08
1.6066e-06
2.68551e-05
0.00116208
0.00387294
0.00544108
0.0060674
0.00552861
0.00502986
0.00474503
9.47529e-07
3.4119e-07
9.36441e-11
8.30252e-10
1.26153e-10
1.10936e-10
5.78765e-08
2.66044e-07
2.58508e-10
3.16051e-10
2.58508e-10
0.000953527
0.00836371
0.00987566
0.00987591
0.00833903
0.00545256
0.00342327
0.00334768
1.74485e-09
1.62623e-08
1.14718e-10
1.55732e-08
1.7507e-07
1.77832e-07
5.96447e-08
2.54887e-06
7.09537e-05
0.00012715
0.00046206
0.00174571
0.0035207
0.00336947
0.000866137
1.71458e-05
2.85315e-07
3.33195e-05
0.000118999
4.77876e-09
4.64552e-09
4.90165e-08
2.99304e-07
8.27839e-07
4.61025e-06
1.79888e-05
5.21643e-05
0.000260282
0.000483203
0.000482898
0.000180795
2.94017e-14
1.3138e-21
3.69186e-21
8.27181e-27
3.0922e-09
3.46599e-10
-7.63339e-10
2.09591e-08
4.37588e-08
8.22997e-08
1.47617e-07
2.96789e-07
2.368e-06
1.25903e-05
3.43918e-05
5.2699e-05
5.38016e-05
3.57071e-06
6.34677e-09
6.87228e-09
4.03823e-09
3.9322e-09
4.51319e-09
3.68077e-09
8.93746e-10
3.12876e-09
3.00552e-10
2.93346e-09
1.30251e-08
2.73925e-08
2.32188e-08
6.77417e-09
4.89941e-10
7.32583e-08
6.30553e-07
9.61874e-09
1.72361e-08
3.78966e-08
4.43596e-08
7.33012e-09
3.4011e-09
4.38132e-09
3.39362e-09
9.04797e-10
1.05007e-09
1.56274e-10
8.12394e-11
7.8606e-11
1.38076e-10
4.01115e-11
3.9745e-11
4.01152e-11
4.00062e-11
5.06621e-10
1.20866e-08
3.73051e-08
5.30888e-08
4.45716e-08
1.28148e-08
8.23716e-10
1.08523e-09
9.31669e-10
1.91371e-10
6.10009e-10
3.60078e-10
1.71313e-10
9.7279e-11
7.7234e-11
7.47949e-11
1.00519e-10
2.28894e-10
3.66147e-10
5.58431e-10
5.94372e-09
2.13024e-08
3.90759e-08
1.67355e-08
2.14975e-09
7.43066e-10
1.68916e-10
7.70213e-11
6.78582e-11
3.58017e-10
1.30023e-09
3.80864e-10
1.30739e-10
8.58977e-11
8.26553e-11
1.29293e-10
2.42099e-10
4.49844e-10
8.75353e-10
1.70744e-09
2.10932e-09
7.29693e-10
6.12922e-10
3.8211e-10
3.5485e-10
1.20672e-10
2.8367e-11
3.74642e-11
2.23013e-10
4.25235e-09
1.10353e-09
1.87671e-10
1.10064e-10
8.7886e-11
9.44403e-11
1.24736e-10
1.83514e-10
3.61414e-10
7.08677e-10
1.4812e-09
1.90383e-09
4.77472e-10
4.27252e-10
2.50324e-10
8.94983e-11
1.83522e-11
1.94932e-11
1.08856e-10
6.90273e-09
3.06334e-09
2.88603e-10
1.5023e-10
1.16224e-10
9.67818e-11
1.16264e-10
1.61979e-10
2.1281e-10
3.28688e-10
4.67659e-10
3.3462e-10
4.00839e-10
3.40648e-10
1.81633e-10
4.95294e-11
9.14945e-12
8.93124e-12
5.47274e-11
7.75912e-09
4.8952e-09
9.93124e-10
2.51628e-10
1.34098e-10
1.09048e-10
1.0938e-10
1.31755e-10
1.62109e-10
2.13239e-10
2.59155e-10
1.86964e-10
1.33846e-10
1.01422e-10
5.41131e-11
1.87503e-11
3.4151e-12
4.69511e-12
2.36599e-11
6.6014e-09
5.19262e-09
2.41856e-09
9.02399e-10
3.54407e-10
1.70124e-10
1.28219e-10
1.24605e-10
1.28622e-10
1.34253e-10
1.32626e-10
1.05626e-10
6.32667e-11
3.16144e-11
1.25391e-11
1.552e-12
7.95984e-13
1.87261e-12
7.84595e-12
4.5454e-09
3.88697e-09
2.8268e-09
1.58511e-09
8.79229e-10
4.81219e-10
2.60957e-10
1.51346e-10
1.08954e-10
8.28731e-11
6.64288e-11
5.14539e-11
3.29145e-11
1.85292e-11
6.90884e-12
9.01362e-13
4.35899e-13
5.29901e-13
1.90005e-12
2.81466e-09
2.43455e-09
2.04886e-09
1.57487e-09
1.05105e-09
6.57735e-10
3.93366e-10
2.21655e-10
1.15952e-10
5.70269e-11
3.83537e-11
2.51582e-11
1.41247e-11
7.48304e-12
2.07759e-12
3.4101e-13
1.37065e-13
9.84746e-14
3.19757e-13
1.53551e-09
1.37029e-09
1.19252e-09
1.02554e-09
8.22775e-10
5.9342e-10
3.91742e-10
2.35433e-10
1.25541e-10
5.23078e-11
2.78465e-11
1.47036e-11
5.49143e-12
1.66746e-12
3.70647e-13
1.09831e-13
3.04628e-14
1.85721e-14
3.32988e-14
7.23354e-10
6.67721e-10
6.01315e-10
5.12068e-10
4.399e-10
3.61612e-10
2.81718e-10
1.84639e-10
1.06586e-10
5.31522e-11
2.1768e-11
7.39299e-12
2.23487e-12
6.16489e-13
1.50403e-13
5.07954e-14
6.80074e-15
3.04163e-15
4.30336e-15
2.74997e-10
2.62644e-10
2.45797e-10
2.19482e-10
1.85723e-10
1.54897e-10
1.28092e-10
1.03789e-10
6.7904e-11
3.7137e-11
1.61753e-11
5.19683e-12
1.23522e-12
2.57833e-13
6.50088e-14
8.98675e-15
1.42697e-15
9.54935e-16
5.53882e-16
7.86819e-11
7.93555e-11
7.70106e-11
6.99794e-11
6.28964e-11
5.468e-11
4.68176e-11
4.03421e-11
2.999e-11
1.88771e-11
9.53046e-12
3.24403e-12
6.98619e-13
1.1521e-13
2.44768e-14
2.51724e-15
5.41959e-16
4.97624e-16
2.53457e-16
1.97647e-11
1.96323e-11
1.89765e-11
1.76808e-11
1.62474e-11
1.46384e-11
1.33793e-11
1.19384e-11
9.82878e-12
7.27749e-12
4.22697e-12
1.60319e-12
3.42859e-13
4.72271e-14
4.85737e-15
4.02193e-16
2.52467e-16
3.30118e-16
1.61302e-16
4.73588e-12
4.45625e-12
4.14775e-12
3.78921e-12
3.44139e-12
3.19256e-12
3.00306e-12
2.81102e-12
2.50806e-12
2.05458e-12
1.36082e-12
5.81666e-13
1.36392e-13
1.66752e-14
8.42132e-16
1.00677e-16
1.24724e-16
1.96444e-16
1.21406e-16
1.23447e-12
1.07536e-12
9.29023e-13
7.88823e-13
6.81897e-13
6.12072e-13
5.60874e-13
5.30448e-13
5.20162e-13
4.65052e-13
3.33469e-13
1.60025e-13
2.80368e-14
2.12348e-15
1.3277e-16
4.17607e-17
5.88939e-17
1.16634e-16
8.26382e-17
3.31477e-13
2.65269e-13
2.06486e-13
1.58471e-13
1.30077e-13
9.6749e-14
8.66792e-14
8.61758e-14
8.45718e-14
7.75727e-14
5.9061e-14
1.98247e-14
2.78659e-15
1.61277e-16
1.69476e-17
1.50822e-17
2.82109e-17
7.02202e-17
5.95994e-17
8.46316e-14
6.22078e-14
4.34505e-14
3.41505e-14
2.0676e-14
1.10085e-14
8.96717e-15
9.1152e-15
8.9909e-15
8.72578e-15
4.92603e-15
1.55099e-15
1.84538e-16
5.55515e-18
2.37747e-18
5.00601e-18
1.42967e-17
4.95393e-17
3.51676e-17
1.91976e-14
1.21807e-14
8.83452e-15
5.64648e-15
2.42821e-15
7.73763e-16
5.21049e-16
5.64702e-16
6.37763e-16
5.50027e-16
3.20492e-16
7.89614e-17
5.41481e-18
2.33073e-19
5.54089e-19
2.44253e-18
9.17192e-18
2.8807e-17
2.3128e-17
3.62912e-15
2.20832e-15
1.46527e-15
6.20989e-16
1.59038e-16
2.31684e-17
1.47925e-17
1.9149e-17
2.4169e-17
1.68201e-17
8.71203e-18
2.18959e-18
1.46249e-19
8.7948e-20
3.19711e-19
1.72706e-18
6.74386e-18
1.85859e-17
1.14446e-17
5.6891e-16
3.56353e-16
1.44347e-16
3.32966e-17
3.39232e-18
2.00234e-19
2.12841e-19
4.26493e-19
4.29524e-19
3.48658e-19
1.47077e-19
2.66745e-20
2.36396e-20
5.41992e-20
2.23145e-19
1.33075e-18
4.86388e-18
9.08616e-18
6.77629e-18
8.17458e-17
3.55526e-17
6.68071e-18
5.9116e-19
2.06426e-20
1.8557e-21
3.12511e-21
5.784e-21
6.88833e-21
6.66248e-21
6.39935e-21
1.03353e-20
1.91797e-20
4.52832e-20
1.89104e-19
1.05408e-18
2.88448e-18
5.5056e-18
2.89651e-18
8.96883e-18
1.88306e-18
1.19069e-19
1.98538e-21
9.49626e-23
9.62633e-23
1.69341e-22
3.77307e-22
8.26016e-22
1.8652e-21
4.28293e-21
9.26073e-21
1.77037e-20
4.15959e-20
1.75892e-19
7.24544e-19
1.7847e-18
2.32047e-18
1.54469e-18
3.90968e-19
1.94561e-20
2.52221e-22
1.0458e-23
1.48663e-23
3.54948e-23
9.74344e-23
2.6253e-22
6.93382e-22
1.72002e-21
4.04067e-21
8.66127e-21
1.64631e-20
3.80597e-20
1.34168e-19
4.42853e-19
9.54421e-19
1.26043e-18
5.00021e-19
2.56516e-21
5.95215e-23
1.65088e-24
2.99276e-24
9.00346e-24
2.83983e-23
8.24957e-23
2.25676e-22
5.86595e-22
1.45074e-21
3.37098e-21
7.16197e-21
1.34745e-20
3.0573e-20
9.6222e-20
2.84056e-19
5.34241e-19
4.17064e-19
2.22556e-19
4.35054e-24
2.77486e-25
6.22888e-25
2.214e-24
7.30844e-24
2.23788e-23
6.50812e-23
1.75321e-22
4.51927e-22
1.10915e-21
2.55668e-21
5.38115e-21
1.01084e-20
2.16476e-20
6.27096e-20
1.604e-19
2.17492e-19
1.91304e-19
5.28153e-20
2.69605e-26
1.11385e-25
4.56499e-25
1.61634e-24
5.2298e-24
1.5739e-23
4.44264e-23
1.19043e-22
3.03395e-22
7.38323e-22
1.69232e-21
3.52506e-21
6.59758e-21
1.39672e-20
3.22847e-20
9.05008e-20
9.52625e-20
4.80889e-20
2.19026e-20
1.7501e-26
7.99781e-26
2.9654e-25
9.61521e-25
2.96859e-24
8.48524e-24
2.38536e-23
6.46553e-23
1.6588e-22
4.10649e-22
9.50295e-22
1.9942e-21
3.74468e-21
7.88197e-21
1.61253e-20
4.20704e-20
2.99857e-20
1.76291e-20
8.90655e-21
1.12986e-26
4.33683e-26
1.42971e-25
4.32129e-25
1.28247e-24
3.73246e-24
1.04772e-23
2.85959e-23
7.52886e-23
1.89164e-22
4.42687e-22
9.28137e-22
1.73858e-21
3.6517e-21
7.25511e-21
1.64044e-20
9.06035e-21
6.12312e-21
2.7153e-21
4.1105e-27
1.25899e-26
3.64038e-26
1.00443e-25
3.10482e-25
9.70128e-25
2.86677e-24
7.8922e-24
2.07073e-23
5.24189e-23
1.22968e-22
2.6304e-22
4.96758e-22
1.00074e-21
1.89513e-21
3.74081e-21
2.21534e-21
1.22909e-21
3.20519e-22
)
;

boundaryField
{
    leftWall
    {
        type            alphaContactAngle;
        contactAngleProperties 
        {
            mercury         
            {
                theta0          90;
            }
            air             
            {
                theta0          90;
            }
            oil             
            {
                theta0          90;
            }
        }
        value           nonuniform List<scalar> 
50
(
9.16381e-11
2.2221e-10
3.20017e-10
3.07022e-10
2.0791e-10
0.00114756
0.502539
1
1
1
1
0.980693
0.80862
0.39806
0.00618406
1.66085e-05
1.03391e-07
7.51996e-08
4.04347e-08
2.2277e-08
4.04637e-09
1.47174e-08
2.22875e-08
2.2247e-08
1.99151e-08
1.72851e-08
1.55598e-08
1.70442e-08
1.79335e-08
1.79334e-08
1.79332e-08
1.76461e-08
1.63604e-08
1.52434e-08
1.29051e-08
1.15352e-08
9.3546e-09
7.63078e-09
5.61757e-09
3.79931e-09
2.08952e-09
1.07639e-09
4.34416e-10
1.533e-10
4.11825e-11
8.90704e-12
1.32863e-12
1.0781e-13
1.806e-15
6.61809e-21
)
;
    }
    rightWall
    {
        type            alphaContactAngle;
        contactAngleProperties 
        {
            mercury         
            {
                theta0          90;
            }
            air             
            {
                theta0          90;
            }
            oil             
            {
                theta0          90;
            }
        }
        value           nonuniform List<scalar> 
50
(
0.0135331
0.0128779
0.00134526
0.00104398
0.0121504
0.171759
0.418418
0.608549
0.751036
0.946542
0.42356
4.83371e-05
0.000200819
0.00212313
0.00474503
0.00334768
0.000118999
-7.63339e-10
3.12876e-09
1.05007e-09
6.10009e-10
3.58017e-10
2.23013e-10
1.08856e-10
5.47274e-11
2.36599e-11
7.84595e-12
1.90005e-12
3.19757e-13
3.32988e-14
4.30336e-15
5.53882e-16
2.53457e-16
1.61302e-16
1.21406e-16
8.26382e-17
5.95994e-17
3.51676e-17
2.3128e-17
1.14446e-17
6.77629e-18
2.89651e-18
1.54469e-18
5.00021e-19
2.22556e-19
5.28153e-20
2.19026e-20
8.90655e-21
2.7153e-21
3.20519e-22
)
;
    }
    lowerWall
    {
        type            alphaContactAngle;
        contactAngleProperties 
        {
            mercury         
            {
                theta0          90;
            }
            air             
            {
                theta0          90;
            }
            oil             
            {
                theta0          90;
            }
        }
        value           nonuniform List<scalar> 
62
(
9.16381e-11
1.03941e-10
1.17237e-10
1.23808e-10
1.30143e-10
1.36639e-10
1.42215e-10
1.46502e-10
1.5076e-10
1.61466e-10
1.79789e-10
2.0504e-10
2.40971e-10
2.93335e-10
3.64285e-10
4.59374e-10
5.81846e-10
8.08425e-10
1.32341e-09
2.10464e-09
2.67769e-09
2.77882e-09
2.77882e-09
2.77882e-09
2.49761e-09
1.47156e-09
1.254e-09
9.31462e-11
0.171825
0.8828
0.999373
0.999543
0.983294
0.9117
0.642755
0.0107401
0.0651281
0.428112
0.748626
0.884323
0.884323
0.884323
0.857983
0.0107401
0.0107279
0.0231243
0.0550711
0.0646855
0.058782
0.0368138
0.0163587
0.000767465
0.000673527
0.000675491
0.000730109
0.000970068
0.0747965
0.124595
0.124759
0.0817059
0.00487009
0.0135331
)
;
    }
    atmosphere
    {
        type            inletOutlet;
        inletValue      uniform 0;
        value           nonuniform List<scalar> 
46
(
0
0
1.65563e-16
1.48306e-16
8.80363e-17
4.19066e-17
1.87664e-17
7.41491e-18
2.92536e-18
1.19993e-18
4.76491e-19
2.21296e-19
1.1052e-19
5.4828e-20
2.29067e-20
8.30161e-21
2.90414e-21
0
0
0
0
0
0
0
0
0
0
0
0
0
0
0
0
0
0
0
0
0
0
0
0
0
0
0
0
0
)
;
    }
    defaultFaces
    {
        type            empty;
    }
}


// ************************************************************************* //
