/*--------------------------------*- C++ -*----------------------------------*\
  =========                 |
  \\      /  F ield         | OpenFOAM: The Open Source CFD Toolbox
   \\    /   O peration     | Website:  https://openfoam.org
    \\  /    A nd           | Version:  13
     \\/     M anipulation  |
\*---------------------------------------------------------------------------*/
FoamFile
{
    format      ascii;
    class       volScalarField;
    location    "2.3";
    object      epsilon;
}
// * * * * * * * * * * * * * * * * * * * * * * * * * * * * * * * * * * * * * //

dimensions      [0 2 -3 0 0 0 0];

internalField   nonuniform List<scalar> 
2268
(
0.00459005
0.0173652
0.0315973
0.0450759
0.0574024
0.0687037
0.0792694
0.0894183
0.0994425
0.109539
0.120156
0.131499
0.142493
0.152471
0.16068
0.166218
0.168113
0.165258
0.156156
0.13861
0.109488
0.0657402
0.0107307
0.00778861
0.0118395
0.016998
0.0220978
0.0269778
0.0317001
0.0363747
0.0411159
0.0460267
0.0511876
0.0566971
0.0625667
0.0683996
0.0738469
0.0785151
0.0819374
0.0836182
0.0830296
0.0795407
0.0723019
0.0601964
0.0425471
0.0231665
0.012512
0.0132623
0.0164365
0.0198659
0.0233091
0.0267696
0.0303017
0.0339684
0.037825
0.041912
0.0462549
0.0508071
0.0553362
0.0595944
0.0632938
0.0661003
0.0676647
0.0676368
0.065642
0.0612472
0.0540039
0.044178
0.0422376
0.0168956
0.0153326
0.0174865
0.0201878
0.0230683
0.0260656
0.0291849
0.0324521
0.0358921
0.0395222
0.0433431
0.0473034
0.05123
0.0549235
0.0581557
0.0606693
0.0622067
0.0625312
0.0614343
0.0587615
0.0545524
0.0500048
0.0633379
0.0209168
0.0173988
0.0188733
0.0211868
0.023831
0.0266696
0.0296586
0.0327884
0.0360585
0.0394671
0.0430037
0.0466228
0.0501864
0.0535272
0.0564623
0.058794
0.0603391
0.0609538
0.0605664
0.0592681
0.0576003
0.0579888
0.0871576
0.0247703
0.0194073
0.020372
0.022488
0.0250838
0.02794
0.0309615
0.0341046
0.0373447
0.0406633
0.0440413
0.0474418
0.0507552
0.0538402
0.0565516
0.0587443
0.0603006
0.0611609
0.0613776
0.0612807
0.0620052
0.0678971
0.117373
0.0288441
0.02146
0.0219746
0.0240249
0.0267103
0.0297105
0.0328764
0.0361338
0.0394363
0.0427497
0.0460476
0.0493011
0.052427
0.055305
0.0578249
0.0598866
0.0614343
0.0624843
0.0632023
0.0641435
0.0671203
0.0796311
0.163724
0.0336976
0.0236543
0.0237388
0.0258309
0.0287116
0.0319435
0.0353313
0.0387734
0.0422034
0.0455696
0.0488398
0.0519936
0.054972
0.0576666
0.0599984
0.0619127
0.0634053
0.0645563
0.0656162
0.0672975
0.0719243
0.0909009
0.266413
0.0102917
0.0686035
0.116103
0.148491
0.168714
0.180419
0.18153
0.174536
0.168221
0.159962
0.147962
0.129601
0.10356
0.0875322
0.0792557
0.0675543
0.0531384
0.0348833
0.00997648
0.022317
0.0422918
0.0604254
0.0749695
0.0859278
0.092626
0.0947133
0.093443
0.0897356
0.0839423
0.0759102
0.0667629
0.0572534
0.0486843
0.0415244
0.0351864
0.0289031
0.022227
0.0147785
0.0402551
0.0454599
0.054934
0.0635382
0.0704734
0.0756369
0.077906
0.0769624
0.0747374
0.0710464
0.0649524
0.057457
0.0496228
0.0426724
0.0367757
0.0318851
0.0276414
0.023825
0.0228875
0.0597906
0.0535156
0.0568825
0.06141
0.0656817
0.0690635
0.0707695
0.0701956
0.0688976
0.0672277
0.0626249
0.0558868
0.0480852
0.0415227
0.0361994
0.0321668
0.0292226
0.0273427
0.0310591
0.0847614
0.065026
0.0615507
0.0623475
0.0644628
0.0663575
0.0671129
0.0663856
0.065043
0.0640272
0.0614342
0.0569279
0.0488477
0.0419564
0.0367874
0.0333569
0.0314027
0.0311626
0.0397368
0.124986
0.0808639
0.0677891
0.0646908
0.0647511
0.0653844
0.0654802
0.0643996
0.0626791
0.0610026
0.0586573
0.0561119
0.0504432
0.0431052
0.0377984
0.0346881
0.0333722
0.0346435
0.0506359
0.196288
0.100649
0.074605
0.0676216
0.065883
0.0653102
0.0648015
0.0634719
0.0614609
0.059323
0.0567528
0.053935
0.0501678
0.0443148
0.0389997
0.0358875
0.0346924
0.0361217
0.0547331
0.320326
0.117801
0.080092
0.0703595
0.0673439
0.065779
0.0646425
0.0630411
0.0608377
0.0584687
0.0557871
0.0528081
0.0492181
0.0446817
0.0400563
0.0370411
0.0356521
0.0365873
0.0552458
0.0403785
0.0264713
0.026351
0.0287546
0.0320702
0.0357375
0.0395244
0.0433128
0.0470139
0.0505527
0.0538826
0.0569659
0.0597902
0.0622946
0.0644243
0.0661692
0.0675867
0.0688098
0.0701558
0.072399
0.0776586
0.0929618
0.149944
0.0531821
0.0304693
0.0305983
0.0337374
0.0376337
0.0417028
0.0457946
0.0498786
0.0538888
0.0577322
0.0613306
0.0646048
0.0675241
0.0700933
0.0722515
0.0739777
0.0753574
0.076557
0.0778869
0.0799669
0.0841494
0.0935887
0.115087
0.0685227
0.0362873
0.0360909
0.0395365
0.0437735
0.0481522
0.0525618
0.0570133
0.0614081
0.0656135
0.0695406
0.0730973
0.076213
0.0788841
0.0810675
0.0827063
0.0839447
0.0849631
0.0860066
0.087489
0.0902042
0.0954842
0.104408
0.0871821
0.0446841
0.043841
0.0472115
0.0514567
0.0559148
0.0604956
0.0651934
0.0698178
0.0741905
0.0782519
0.0819238
0.0851354
0.0877788
0.0897452
0.0910746
0.0919684
0.0925677
0.0930148
0.0935774
0.0947341
0.0970677
0.100462
0.120112
0.0582228
0.0549555
0.0572833
0.0608549
0.0648657
0.0692178
0.0738138
0.0782991
0.0824832
0.0863424
0.089829
0.0928414
0.0951898
0.0967203
0.097547
0.0979197
0.0979036
0.09764
0.0973722
0.0973729
0.0978773
0.0985289
0.182067
0.077558
0.0687268
0.068557
0.0705209
0.0735062
0.0771819
0.0812222
0.0851484
0.0888134
0.0922246
0.0953008
0.0978993
0.0998582
0.101061
0.101599
0.10163
0.101196
0.100488
0.0997271
0.0990648
0.0985411
0.0977913
0.237564
0.0941583
0.0812101
0.0784841
0.0783972
0.0800962
0.082993
0.0864743
0.0899302
0.093142
0.0961151
0.0987923
0.101052
0.102766
0.103836
0.104283
0.104172
0.103568
0.102663
0.101641
0.100568
0.0993968
0.0978792
0.266616
0.110495
0.0970996
0.0901633
0.0866801
0.0864692
0.088281
0.0910974
0.0941537
0.0970204
0.0995463
0.101704
0.103516
0.104939
0.105863
0.106238
0.106064
0.105406
0.10442
0.103252
0.101936
0.100425
0.0986064
0.269506
0.130375
0.124748
0.109333
0.0997676
0.095934
0.095133
0.0965951
0.0991557
0.101706
0.10366
0.104973
0.106019
0.10699
0.107716
0.108012
0.107808
0.107132
0.106091
0.104813
0.10336
0.101774
0.100087
0.312283
0.137365
0.134955
0.12441
0.115979
0.108763
0.104121
0.103444
0.105505
0.108083
0.109536
0.109484
0.109004
0.109214
0.10972
0.109988
0.109758
0.109048
0.107925
0.106465
0.104915
0.103568
0.102545
0.229515
0.127738
0.120698
0.114579
0.110015
0.105726
0.10367
0.104501
0.107153
0.110311
0.112368
0.11265
0.111349
0.1108
0.111454
0.11188
0.111611
0.110766
0.109419
0.107543
0.105405
0.103991
0.102969
0.161422
0.11888
0.104021
0.0987348
0.0950241
0.0937657
0.095079
0.0984805
0.102746
0.106794
0.10953
0.110057
0.109397
0.109136
0.109625
0.10996
0.109593
0.108692
0.107424
0.105914
0.104284
0.102904
0.101619
0.169621
0.0983693
0.0911296
0.08661
0.0837403
0.0839071
0.0866317
0.0909334
0.0955732
0.0995556
0.102291
0.103734
0.104712
0.105826
0.107126
0.107657
0.107415
0.10671
0.105752
0.104631
0.103287
0.101725
0.100062
0.151803
0.0876968
0.0799663
0.0761421
0.0745637
0.0755447
0.0785577
0.0827384
0.08714
0.0911098
0.0941681
0.0964041
0.0983917
0.100534
0.102392
0.103518
0.103928
0.103847
0.103472
0.102829
0.10177
0.100333
0.0986274
0.135788
0.0781951
0.0712632
0.0684836
0.0677046
0.0688599
0.0715478
0.0751599
0.0790323
0.0827618
0.0860562
0.0889501
0.0916843
0.0943706
0.0967185
0.0984382
0.0995257
0.100107
0.100298
0.100109
0.0994253
0.0982099
0.0966782
0.128543
0.0732246
0.0657189
0.063258
0.0627467
0.0637586
0.0659511
0.0689165
0.0722353
0.0755877
0.0788595
0.0819775
0.0850122
0.0879585
0.0905865
0.0927053
0.0942814
0.0953683
0.0960207
0.0962288
0.0959139
0.0950616
0.0938852
0.124873
0.0706005
0.0620612
0.0595092
0.0590245
0.0598369
0.0615928
0.0639979
0.066783
0.0697313
0.072733
0.075753
0.078742
0.0816495
0.084322
0.0865981
0.0884284
0.0898204
0.0907862
0.0913047
0.0913277
0.0908573
0.0900878
0.122042
0.0682464
0.0590667
0.0564104
0.0559185
0.0565902
0.0580382
0.0600214
0.0623525
0.0648886
0.0675382
0.0702512
0.0729997
0.0756862
0.0781958
0.0804294
0.0823155
0.0838331
0.0849701
0.0857017
0.0859971
0.0858668
0.0854773
0.119018
0.0655274
0.0561575
0.0534975
0.0530297
0.0536335
0.0548917
0.0565861
0.0585728
0.0607518
0.0630541
0.0654304
0.0678369
0.0702214
0.072476
0.0745278
0.0763267
0.0778358
0.0790254
0.0798716
0.0803541
0.080485
0.0803994
0.115334
0.0624472
0.053186
0.0505999
0.0501794
0.0507616
0.0519123
0.0534221
0.0551691
0.0570756
0.0590875
0.0611597
0.0632478
0.0653049
0.0672838
0.0691103
0.0707437
0.0721529
0.0733112
0.0741916
0.0747791
0.0750843
0.075213
0.110883
0.0591504
0.0501755
0.0477011
0.0473304
0.0479077
0.0489958
0.0503892
0.0519758
0.0536879
0.0554784
0.0573073
0.0591348
0.0609222
0.0626342
0.0642398
0.065693
0.0669683
0.0680446
0.0689027
0.0695317
0.0699384
0.0702007
0.105743
0.0557643
0.047183
0.0448358
0.0445064
0.0450774
0.0461206
0.0474346
0.0489115
0.0504869
0.0521166
0.053764
0.0553945
0.0569762
0.0584818
0.0598892
0.061179
0.062323
0.0633057
0.0641153
0.0647457
0.0652027
0.0655408
0.100061
0.0523678
0.0442509
0.0420403
0.0417439
0.0423017
0.0433035
0.0445545
0.0459495
0.0474251
0.0489381
0.0504538
0.0519415
0.0533743
0.0547297
0.0559908
0.0571445
0.0581792
0.0590783
0.0598363
0.0604516
0.0609308
0.0613104
0.0940028
0.0490059
0.0414025
0.0393392
0.0390739
0.0396143
0.0405743
0.0417684
0.0430951
0.0444922
0.0459167
0.0473355
0.0487204
0.0500477
0.0512981
0.0524575
0.0535158
0.0544661
0.0553032
0.0560203
0.0566202
0.0571104
0.0575143
0.0877284
0.045709
0.0386521
0.0367491
0.0365199
0.0370445
0.037964
0.0391049
0.0403705
0.0417008
0.0430539
0.044398
0.0457068
0.0469587
0.0481365
0.0492277
0.0502238
0.0511205
0.0519155
0.0526072
0.0531995
0.0537004
0.0541238
0.0813971
0.0425055
0.0360141
0.0342848
0.034102
0.0346181
0.0355027
0.0365953
0.0378057
0.0390769
0.0403692
0.0416522
0.0429016
0.0440974
0.045224
0.0462697
0.0472272
0.0480925
0.048865
0.0495468
0.0501417
0.0506581
0.0511027
0.075164
0.0394302
0.033509
0.0319651
0.0318413
0.0323603
0.0332194
0.0342714
0.0354334
0.0366523
0.0378913
0.0391222
0.0403225
0.0414741
0.0425626
0.0435772
0.044511
0.0453604
0.0461256
0.046809
0.0474157
0.0479532
0.0484234
0.0691889
0.0365275
0.0311667
0.0298161
0.029764
0.0302985
0.0311435
0.0321647
0.0332861
0.0344598
0.0356519
0.0368371
0.0379952
0.0391098
0.040168
0.04116
0.0420793
0.0429227
0.0436901
0.0443842
0.04501
0.0455742
0.0460749
0.0636347
0.0338533
0.0290282
0.0278733
0.0279025
0.0284641
0.0293058
0.0303055
0.0313945
0.0325294
0.0336804
0.0348249
0.0359455
0.0370277
0.0380605
0.0390352
0.0399458
0.0407896
0.0415663
0.0422779
0.042929
0.0435251
0.0440616
0.0586705
0.0314763
0.027146
0.0261812
0.026296
0.0268918
0.0277379
0.028723
0.0297853
0.0308866
0.0320005
0.033108
0.0341943
0.0352475
0.0362583
0.0372194
0.038126
0.0389758
0.0397681
0.0405043
0.0411878
0.0418224
0.0424015
0.0544559
0.0294753
0.0255816
0.0247913
0.024988
0.0256185
0.0264706
0.0274431
0.0284806
0.0295497
0.0306282
0.0317003
0.0327542
0.0337807
0.0347726
0.0357244
0.0366326
0.0374952
0.0383114
0.0390815
0.0398073
0.0404904
0.041122
0.0511204
0.0279313
0.0243999
0.0237574
0.0240228
0.0246798
0.0255318
0.0264868
0.0274956
0.0285295
0.0295706
0.0306064
0.0316282
0.0326296
0.0336061
0.0345543
0.035472
0.0363581
0.0372111
0.0380299
0.0388137
0.0395609
0.0402595
0.048735
0.026915
0.0236623
0.0231309
0.0234418
0.0241072
0.0249437
0.0258679
0.026837
0.0278272
0.0288245
0.0298201
0.0308086
0.0317865
0.0327524
0.0337055
0.0346457
0.0355723
0.0364829
0.0373739
0.0382402
0.0390751
0.0398624
0.0472994
0.0264775
0.0234214
0.0229583
0.0232819
0.0239264
0.0247213
0.025592
0.0265024
0.0274339
0.0283766
0.0293253
0.0302778
0.0312344
0.0321969
0.0331685
0.0341516
0.0351462
0.0361477
0.0371477
0.0381338
0.0390915
0.0399982
0.0467368
0.0266512
0.0237278
0.0232879
0.02358
0.0241601
0.024873
0.0256553
0.0264787
0.0273301
0.028203
0.0290956
0.0300089
0.0309475
0.0319184
0.0329298
0.0339884
0.0350948
0.0362399
0.0374056
0.0385669
0.0396972
0.0407642
0.0469209
0.0274768
0.0246605
0.0241947
0.0243886
0.0248346
0.0254026
0.026045
0.0267422
0.0274848
0.0282689
0.0290945
0.029966
0.030893
0.0318904
0.032975
0.034161
0.0354495
0.0368213
0.0382391
0.0396561
0.0410266
0.0423054
0.0477552
0.0291099
0.0264272
0.025845
0.0258081
0.0259923
0.0263121
0.0267385
0.0272563
0.0278551
0.0285286
0.0292762
0.0301049
0.0310315
0.0320832
0.0332931
0.0346894
0.0362744
0.0380056
0.0398064
0.0415915
0.0432883
0.0448363
0.0495239
0.0322548
0.0296734
0.028652
0.0280447
0.027705
0.0275994
0.0276979
0.0279687
0.028384
0.0289253
0.0295858
0.0303741
0.0313175
0.0324643
0.0338793
0.0356219
0.0376969
0.0400033
0.0423815
0.0446815
0.0468005
0.0486675
0.0547435
0.0400664
0.0364044
0.0335849
0.0314716
0.0300633
0.0292384
0.0288569
0.0288039
0.0289986
0.0293913
0.0299609
0.0307157
0.031699
0.0329968
0.0347377
0.0370565
0.0399719
0.0432113
0.0464465
0.0494225
0.0520347
0.0542271
0.0818568
0.0652941
0.0519751
0.0424455
0.036535
0.0330716
0.0311188
0.0300932
0.0296544
0.0296085
0.0298501
0.0303337
0.0310662
0.0321148
0.0336301
0.0358713
0.0391694
0.0436274
0.0483917
0.0528818
0.0566216
0.0596713
0.0620733
0.286668
0.137746
0.0836607
0.0564201
0.0430134
0.0363459
0.0329392
0.0311975
0.0303752
0.0301092
0.0302206
0.0306348
0.0313572
0.0324865
0.0342712
0.0372177
0.0421731
0.0497325
0.0568823
0.0634242
0.0676937
0.0707556
0.0729737
1.57221
0.211304
0.117003
0.0697835
0.0483994
0.0387394
0.034146
0.0318815
0.0308022
0.0303973
0.0304302
0.0308044
0.0315247
0.0327181
0.0347355
0.0384241
0.0456775
0.0592424
0.0692513
0.0819265
0.0854718
0.0872859
0.0884368
0.400403
0.31235
0.294248
0.34217
0.143399
0.145358
0.144317
0.141779
0.111361
0.113638
0.113642
0.111181
0.102236
0.102558
0.101801
0.0998836
0.0982423
0.0975876
0.0963963
0.0946947
0.0965384
0.0954492
0.0940894
0.0925094
0.0962303
0.0950042
0.0936348
0.0921672
0.0968767
0.0956703
0.0943942
0.0930763
0.0985935
0.0975405
0.096414
0.095225
0.101438
0.100542
0.0996439
0.0986138
0.101941
0.101346
0.100552
0.0995341
0.1003
0.0993784
0.0983887
0.0972653
0.0986217
0.0976114
0.0965698
0.0954958
0.097118
0.0960875
0.0950639
0.0940535
0.0952914
0.0943284
0.0933743
0.0924318
0.0927278
0.0918944
0.0910563
0.0902049
0.0892255
0.0885635
0.0878777
0.0871495
0.084906
0.0844202
0.0838954
0.0833076
0.0800736
0.0797429
0.0793654
0.0789156
0.0750718
0.074864
0.0746085
0.074281
0.0701906
0.0700761
0.0699147
0.0696859
0.065615
0.0655673
0.0654761
0.0653249
0.0614382
0.0614369
0.0613976
0.0613077
0.0576792
0.0577133
0.057714
0.0576725
0.0543187
0.054382
0.054416
0.0544144
0.0513251
0.0514146
0.0514779
0.0515112
0.0486741
0.0487887
0.0488797
0.0489447
0.0463552
0.0464946
0.0466125
0.0467074
0.0443743
0.0445392
0.0446841
0.0448082
0.0427503
0.0429423
0.0431155
0.0432695
0.0415133
0.0417356
0.0419402
0.0421262
0.0407024
0.0409605
0.041201
0.0414232
0.0403705
0.0406721
0.0409555
0.0412195
0.0405895
0.0409451
0.0412802
0.0415939
0.0414619
0.041884
0.0422816
0.0426535
0.0431352
0.0436374
0.0441078
0.0445459
0.0458222
0.0464153
0.0469654
0.0474735
0.049821
0.0505068
0.0511344
0.0517078
0.0555268
0.0562878
0.0569741
0.0575942
0.0634293
0.0642127
0.0649132
0.065546
0.0741721
0.0748636
0.075492
0.076084
0.0890303
0.089381
0.0897324
0.090121
0.175981
0.109338
0.0835115
0.0736201
0.0695682
0.0669509
0.0649189
0.062857
0.0604858
0.0579428
0.0551536
0.0521015
0.0487065
0.0449911
0.0414406
0.0387218
0.0369586
0.0370004
0.0523691
0.121144
0.0967668
0.0826568
0.0753084
0.0713484
0.0684653
0.066056
0.063668
0.0611713
0.0585329
0.0557311
0.0527639
0.0495753
0.0462799
0.0432163
0.0405778
0.0382364
0.0367457
0.0460369
0.10322
0.0906776
0.0817506
0.0761472
0.0725539
0.0698238
0.0673244
0.0648204
0.0622846
0.0596932
0.0570231
0.0542446
0.0512759
0.0481445
0.0450563
0.0421446
0.0392356
0.0366967
0.0463764
0.0951446
0.0874431
0.0813158
0.0769665
0.0738119
0.0711564
0.0686086
0.0660442
0.0634921
0.0609873
0.058501
0.0559686
0.0532895
0.0503733
0.0472237
0.0439165
0.0405295
0.0377811
0.0526187
0.0912033
0.0858755
0.0813572
0.0778324
0.0750036
0.0724432
0.0699155
0.0673562
0.064829
0.0624054
0.0600781
0.0577778
0.0553991
0.0527716
0.0497057
0.0461084
0.0421408
0.0394683
0.0616236
0.0896396
0.0855372
0.0819298
0.0788982
0.0762626
0.0737695
0.0712758
0.0687543
0.0662703
0.0639113
0.0616963
0.0595701
0.0574302
0.0550617
0.0521771
0.0485242
0.0440824
0.0403235
0.0606587
0.0896633
0.0862141
0.0831009
0.0803503
0.077829
0.0753697
0.072883
0.0703655
0.0678915
0.0655573
0.0634084
0.061417
0.0594727
0.0573035
0.0546065
0.0511108
0.0466241
0.0423548
0.0591846
0.090876
0.0878
0.0849481
0.0823749
0.0799568
0.0775324
0.0750129
0.0724254
0.0698918
0.0675422
0.0654541
0.0636472
0.0620534
0.0602911
0.0579516
0.0549964
0.0510987
0.0484012
0.0726904
0.0931903
0.0902743
0.0875497
0.0851727
0.0829487
0.0806211
0.0780232
0.0752551
0.0725803
0.0702164
0.0682404
0.066647
0.0653095
0.0639724
0.0622935
0.0606023
0.0578342
0.0535629
0.0664088
0.0965293
0.0936115
0.0909301
0.0889559
0.0871833
0.0851198
0.0823132
0.0790895
0.0760487
0.0736549
0.0719737
0.0708532
0.0691133
0.0669745
0.0655811
0.0633885
0.0601532
0.0605072
0.0758744
0.0976419
0.0950875
0.0927101
0.0908945
0.0894879
0.0877576
0.0850166
0.0815764
0.0783035
0.0759362
0.0741184
0.072266
0.0694667
0.0666679
0.0641435
0.0616738
0.0620178
0.0686885
0.0928307
0.0954343
0.0929062
0.0906153
0.0885841
0.0868511
0.0849922
0.0826724
0.0799408
0.0771373
0.0747189
0.0724434
0.0696513
0.0664874
0.0637673
0.0619254
0.0615049
0.063851
0.0723642
0.106968
0.0937921
0.0913962
0.0890351
0.0867843
0.0846097
0.0824126
0.0801049
0.0777093
0.075248
0.0727449
0.0700839
0.067132
0.064345
0.0623369
0.0613433
0.0616272
0.0644117
0.0738267
0.116913
0.0924913
0.0902779
0.0879273
0.0854828
0.0829869
0.0805434
0.0782247
0.0759719
0.0736529
0.0710917
0.06826
0.0654238
0.0630482
0.0614119
0.060572
0.0608867
0.0636892
0.0738123
0.124154
0.0909727
0.0888854
0.08656
0.0840438
0.0814325
0.0789186
0.0766223
0.0744327
0.0721503
0.069575
0.0667564
0.0640456
0.0617806
0.0601211
0.0591573
0.0593576
0.0622047
0.0729602
0.129144
0.0888507
0.0868617
0.084599
0.0821255
0.0795496
0.0770628
0.074769
0.0725823
0.0703025
0.0677752
0.0650682
0.0624546
0.0601948
0.0584319
0.0573524
0.0575115
0.0604587
0.0717015
0.132195
0.0859409
0.0840819
0.0819309
0.0795833
0.0771375
0.0747374
0.0724676
0.0702699
0.0680036
0.0655659
0.0630098
0.0605252
0.0583083
0.0565243
0.0554276
0.0556184
0.0586682
0.0702005
0.133584
0.0822811
0.080606
0.0786258
0.0764637
0.0742033
0.0719453
0.0697501
0.0675896
0.0653806
0.0630657
0.0606851
0.058366
0.056263
0.0545503
0.0535148
0.0537711
0.0568818
0.0685051
0.133565
0.0780823
0.07663
0.0748687
0.0729347
0.0708976
0.0688264
0.0667652
0.0647065
0.06261
0.0604508
0.0582613
0.0561314
0.0541866
0.0525979
0.0516587
0.0519758
0.0550813
0.0665891
0.132202
0.0736297
0.0724104
0.0708922
0.0692082
0.0674155
0.0655623
0.0636817
0.0617782
0.0598384
0.0578577
0.0558653
0.0539293
0.0521552
0.0507038
0.0498605
0.0502121
0.0532481
0.0644896
0.12978
0.0691894
0.0681892
0.0669147
0.0654811
0.0639357
0.0623128
0.0606373
0.0589194
0.0571599
0.0553657
0.0535644
0.0518116
0.0501982
0.0488727
0.0481052
0.0484566
0.0513634
0.0622012
0.126333
0.0649581
0.0641496
0.0630979
0.0618987
0.0605881
0.0591898
0.0577222
0.0561968
0.054621
0.0530071
0.0513811
0.0497909
0.0483166
0.0470949
0.0463792
0.0467033
0.0494458
0.0598082
0.12219
0.0610447
0.0603967
0.0595394
0.0585491
0.0574499
0.0562572
0.0549841
0.0536409
0.0522373
0.0507871
0.0493148
0.0478628
0.0465033
0.0453627
0.0446795
0.0449611
0.0475295
0.0573964
0.117624
0.057492
0.0569764
0.0562848
0.0554736
0.0545571
0.053544
0.0524429
0.0512621
0.0500109
0.0487028
0.0473608
0.0460235
0.0447572
0.0436801
0.0430176
0.0432534
0.0456546
0.0550403
0.112927
0.0543022
0.0538965
0.053344
0.0526834
0.0519211
0.0510605
0.0501065
0.0490649
0.0479439
0.0467562
0.0455231
0.0442806
0.0430911
0.0420661
0.0414205
0.0416174
0.0438729
0.0528175
0.108412
0.0514592
0.0511476
0.0507124
0.0501782
0.049545
0.0488124
0.0479821
0.0470579
0.0460467
0.0449602
0.0438186
0.0426559
0.0415318
0.0405532
0.0399264
0.040097
0.0422365
0.0508011
0.104234
0.0489476
0.0487197
0.0483857
0.0479589
0.0474349
0.0468102
0.0460844
0.0452595
0.0443415
0.0433412
0.0422779
0.0411847
0.0401192
0.0391848
0.0385816
0.0387411
0.0407963
0.0490517
0.100622
0.0467629
0.0466133
0.0463694
0.0460365
0.0456068
0.0450751
0.0444391
0.0437
0.0428628
0.041938
0.0409442
0.0399139
0.0389033
0.0380134
0.0374393
0.0376012
0.0396018
0.0476213
0.0976339
0.0449157
0.0448421
0.0446817
0.0444338
0.0440886
0.0436394
0.0430832
0.0424206
0.041656
0.0407998
0.0398704
0.0388996
0.0379427
0.0370987
0.0365587
0.0367346
0.0387061
0.0465607
0.0954421
0.0434305
0.0434339
0.0433538
0.0431861
0.0429193
0.0425462
0.0420636
0.0414717
0.0407752
0.0399842
0.0391172
0.0382055
0.0373035
0.0365084
0.0360077
0.036207
0.0381711
0.0459302
0.094072
0.0423441
0.0424279
0.0424285
0.0423391
0.0421479
0.0418477
0.0414354
0.0409117
0.0402816
0.0395555
0.0387521
0.0379023
0.0370596
0.0363192
0.0358656
0.0360995
0.0380784
0.0458132
0.0937259
0.0417043
0.0418752
0.0419595
0.0419493
0.0418332
0.0416047
0.0412618
0.0408061
0.0402434
0.0395849
0.0388495
0.0380686
0.0372944
0.0366207
0.0362284
0.0365148
0.0385375
0.0463285
0.0944918
0.041573
0.0418402
0.0420132
0.0420846
0.0420445
0.0418882
0.0416153
0.041229
0.0407368
0.0401512
0.0394924
0.0387922
0.0381032
0.0375177
0.0372141
0.037587
0.039701
0.047653
0.0967121
0.0420312
0.0424051
0.0426725
0.0428284
0.0428654
0.0427819
0.0425801
0.0422659
0.0418489
0.0413442
0.040774
0.0401727
0.039595
0.039134
0.0389677
0.0394899
0.0417787
0.0500406
0.100674
0.0431867
0.0436769
0.0440431
0.0442844
0.0443982
0.0443871
0.044257
0.0440174
0.0436812
0.0432669
0.0428009
0.0423228
0.0418932
0.0416122
0.0416633
0.0424465
0.0450618
0.053877
0.107085
0.0451848
0.0457963
0.0462607
0.0465843
0.046771
0.046829
0.0467693
0.0466056
0.046355
0.0460407
0.0456956
0.0453684
0.0451333
0.0451081
0.045499
0.0467311
0.0499495
0.0597452
0.116843
0.0482209
0.0489484
0.0495014
0.0498964
0.0501458
0.050265
0.0502707
0.0501811
0.050018
0.0498102
0.0495995
0.0494487
0.0494557
0.0497761
0.050673
0.0526524
0.0569788
0.0685997
0.131917
0.0525525
0.0533742
0.053992
0.0544358
0.054729
0.0548947
0.0549553
0.054933
0.0548536
0.0547516
0.0546786
0.0547158
0.0549957
0.0557393
0.0573286
0.0604771
0.0668034
0.0820328
0.15597
0.0585074
0.0593811
0.0600215
0.0604769
0.060784
0.0609735
0.0610716
0.0611027
0.0610949
0.061086
0.0611353
0.0613418
0.0618777
0.0630533
0.0654505
0.0702249
0.0799739
0.102768
0.198031
0.0664871
0.0673523
0.0679529
0.068367
0.0686471
0.0688293
0.0689403
0.0690033
0.0690444
0.0691003
0.0692309
0.0695416
0.0702298
0.0716857
0.0747286
0.0812236
0.0959568
0.13428
0.282417
0.0770055
0.077771
0.0782443
0.0785496
0.0787535
0.0788913
0.0789843
0.0790498
0.0791071
0.0791842
0.0793285
0.0796275
0.0802562
0.0815918
0.084532
0.0915044
0.110383
0.175044
0.494004
0.0908206
0.0912703
0.0914829
0.0916016
0.0916784
0.0917323
0.0917723
0.0918051
0.091838
0.0918823
0.0919575
0.0921005
0.0923874
0.0929944
0.0943933
0.098149
0.111284
0.185797
1.31408
)
;

boundaryField
{
    leftWall
    {
        type            epsilonWallFunction;
        value           nonuniform List<scalar> 
50
(
0.00459005
0.00778861
0.012512
0.0168956
0.0209168
0.0247703
0.0288441
0.0336976
0.0403785
0.0531821
0.0685227
0.0871821
0.120112
0.182067
0.237564
0.266616
0.269506
0.312283
0.229515
0.161422
0.169621
0.151803
0.135788
0.128543
0.124873
0.122042
0.119018
0.115334
0.110883
0.105743
0.100061
0.0940028
0.0877284
0.0813971
0.075164
0.0691889
0.0636347
0.0586705
0.0544559
0.0511204
0.048735
0.0472994
0.0467368
0.0469209
0.0477552
0.0495239
0.0547435
0.0818568
0.286668
1.57221
)
;
    }
    rightWall
    {
        type            epsilonWallFunction;
        value           nonuniform List<scalar> 
50
(
0.00997648
0.0147785
0.0228875
0.0310591
0.0397368
0.0506359
0.0547331
0.0552458
0.0523691
0.0460369
0.0463764
0.0526187
0.0616236
0.0606587
0.0591846
0.0726904
0.0664088
0.0758744
0.0928307
0.106968
0.116913
0.124154
0.129144
0.132195
0.133584
0.133565
0.132202
0.12978
0.126333
0.12219
0.117624
0.112927
0.108412
0.104234
0.100622
0.0976339
0.0954421
0.094072
0.0937259
0.0944918
0.0967121
0.100674
0.107085
0.116843
0.131917
0.15597
0.198031
0.282417
0.494004
1.31408
)
;
    }
    lowerWall
    {
        type            epsilonWallFunction;
        value           nonuniform List<scalar> 
62
(
0.00459005
0.0173652
0.0315973
0.0450759
0.0574024
0.0687037
0.0792694
0.0894183
0.0994425
0.109539
0.120156
0.131499
0.142493
0.152471
0.16068
0.166218
0.168113
0.165258
0.156156
0.13861
0.109488
0.0657402
0.0107307
0.0107307
0.0231665
0.0422376
0.0633379
0.0871576
0.117373
0.163724
0.266413
0.400403
0.31235
0.294248
0.34217
0.0102917
0.022317
0.0402551
0.0597906
0.0847614
0.124986
0.196288
0.320326
0.0102917
0.0686035
0.116103
0.148491
0.168714
0.180419
0.18153
0.174536
0.168221
0.159962
0.147962
0.129601
0.10356
0.0875322
0.0792557
0.0675543
0.0531384
0.0348833
0.00997648
)
;
    }
    atmosphere
    {
        type            inletOutlet;
        inletValue      uniform 0.1;
        value           nonuniform List<scalar> 
46
(
0.1
0.1
0.117003
0.0697835
0.0483994
0.0387394
0.034146
0.0318815
0.0308022
0.0303973
0.0304302
0.0308044
0.0315247
0.0327181
0.0347355
0.0384241
0.0456775
0.0592424
0.0692513
0.1
0.1
0.1
0.1
0.1
0.1
0.1
0.1
0.1
0.1
0.1
0.1
0.1
0.1
0.1
0.1
0.1
0.1
0.1
0.1
0.1
0.1
0.1
0.1
0.1
0.1
0.1
)
;
    }
    defaultFaces
    {
        type            empty;
    }
}


// ************************************************************************* //
