/*--------------------------------*- C++ -*----------------------------------*\
  =========                 |
  \\      /  F ield         | OpenFOAM: The Open Source CFD Toolbox
   \\    /   O peration     | Website:  https://openfoam.org
    \\  /    A nd           | Version:  13
     \\/     M anipulation  |
\*---------------------------------------------------------------------------*/
FoamFile
{
    format      ascii;
    class       volScalarField;
    location    "2.3";
    object      nut;
}
// * * * * * * * * * * * * * * * * * * * * * * * * * * * * * * * * * * * * * //

dimensions      [0 2 -1 0 0 0 0];

internalField   nonuniform List<scalar> 
2268
(
2.13685e-05
3.38192e-05
4.15524e-05
4.69047e-05
5.08931e-05
5.40328e-05
5.66246e-05
5.8856e-05
6.08394e-05
6.26318e-05
6.42341e-05
6.59466e-05
6.75747e-05
6.89776e-05
7.00791e-05
7.07986e-05
7.10335e-05
7.06386e-05
6.93697e-05
6.67696e-05
6.18963e-05
5.25198e-05
2.87709e-05
6.95838e-05
0.000264652
0.000374835
0.000445166
0.000494594
0.00053178
0.000561493
0.000586533
0.00060836
0.000627495
0.000643397
0.000655609
0.000665842
0.000674038
0.000679795
0.000682617
0.000681559
0.000674847
0.000659089
0.000627844
0.000567796
0.000444334
0.00010194
8.14817e-05
0.00042112
0.000661254
0.00082885
0.000952321
0.00104749
0.00112377
0.00118692
0.00124018
0.00128513
0.00132216
0.00135174
0.00137529
0.0013924
0.00140248
0.00140465
0.00139689
0.00137499
0.00133052
0.00124692
0.0010898
0.00077838
0.000124782
9.01017e-05
0.000524652
0.000872076
0.0011309
0.0013301
0.00148845
0.00161775
0.00172534
0.00181548
0.00189051
0.00195177
0.00200065
0.00203845
0.00206441
0.00207774
0.00207711
0.00205935
0.00201758
0.00193788
0.00179274
0.00152666
0.00102406
0.000142769
9.68953e-05
0.000603299
0.00104303
0.00138455
0.00165524
0.00187523
0.00205752
0.00221018
0.00233796
0.00244361
0.00252914
0.00259653
0.00264739
0.00268078
0.00269566
0.00269027
0.0026603
0.00259632
0.00247929
0.00227152
0.00189832
0.00121813
0.00015842
0.000102812
0.000669453
0.00119465
0.00161274
0.00194986
0.00222745
0.00245946
0.00265447
0.00281754
0.00295175
0.00305956
0.00314346
0.00320548
0.00324458
0.0032595
0.00324802
0.00320482
0.00311837
0.00296549
0.00270001
0.00223002
0.00138821
0.000174084
0.000108674
0.000730043
0.001339
0.00182943
0.00222797
0.00255812
0.00283496
0.00306774
0.00326194
0.00342107
0.003548
0.00364575
0.00371682
0.00376003
0.0037739
0.00375579
0.00369957
0.00359228
0.00340804
0.00309503
0.00254706
0.00156222
0.000193072
0.000115226
0.000796291
0.00148731
0.00204507
0.00249921
0.00287593
0.00319179
0.00345679
0.00367708
0.00385667
0.00399889
0.00410744
0.00418545
0.00423138
0.00424354
0.00421899
0.00415101
0.00402598
0.00381713
0.00347114
0.00287597
0.00178719
0.000225442
2.85835e-05
5.29318e-05
6.26346e-05
6.75065e-05
7.0075e-05
7.13868e-05
7.14596e-05
7.0482e-05
6.99454e-05
6.9087e-05
6.74018e-05
6.44531e-05
5.97155e-05
5.68998e-05
5.59153e-05
5.30323e-05
4.89593e-05
4.22126e-05
2.70582e-05
0.000114821
0.000448982
0.000587957
0.000650918
0.000665896
0.000672479
0.000666474
0.00064052
0.000637002
0.000638646
0.000634635
0.000603395
0.000536153
0.000504665
0.000499873
0.000467257
0.000410299
0.000298751
9.74224e-05
0.000138907
0.000743349
0.0010887
0.0012618
0.00131962
0.00132395
0.00131047
0.00128401
0.00126513
0.0012465
0.00121973
0.00116266
0.00106304
0.000990351
0.000941448
0.000860273
0.000723716
0.000470895
0.000113097
0.000158177
0.000923078
0.00146942
0.00176852
0.00188966
0.00190292
0.00188684
0.00186059
0.00182107
0.0017692
0.00171474
0.001638
0.00152247
0.00141159
0.0013096
0.00117532
0.000968863
0.00061291
0.000125622
0.00017793
0.00102746
0.00176008
0.00218583
0.00237907
0.00241668
0.00240263
0.00237005
0.00230761
0.00221483
0.00213156
0.00203793
0.00191317
0.00177023
0.00161817
0.00143389
0.00116961
0.000754785
0.000137501
0.000202773
0.00109249
0.00199285
0.00254104
0.00280172
0.00287204
0.00286483
0.00282282
0.00273915
0.00260788
0.00249057
0.00237205
0.00224129
0.00207268
0.00187771
0.00164606
0.00132643
0.000848676
0.000150255
0.000235174
0.0011624
0.00220687
0.00285851
0.00317303
0.00327439
0.00327494
0.00322329
0.00312131
0.00296541
0.00281736
0.00266489
0.00251343
0.00232821
0.00209774
0.00181936
0.00144314
0.000900218
0.000149622
0.000274802
0.00131302
0.00245494
0.00316014
0.00350718
0.00363106
0.00363743
0.00357681
0.00345919
0.0032877
0.00311451
0.00293378
0.00274943
0.00254303
0.00228438
0.00196311
0.00152947
0.000917487
0.000148154
0.000123247
0.000923186
0.00172603
0.00237447
0.00290365
0.00334341
0.00371194
0.00402055
0.00427654
0.00448479
0.00464906
0.00477222
0.00485847
0.00490749
0.00491724
0.00488423
0.00480139
0.00465505
0.00441975
0.00404784
0.00345071
0.00248647
0.00110324
0.000136411
0.00117513
0.00213009
0.00287219
0.00347044
0.00396339
0.00437263
0.0047126
0.00499293
0.00521995
0.00539797
0.00552991
0.00561846
0.0056667
0.00567246
0.00563191
0.00553868
0.00538145
0.00514119
0.00478655
0.00426888
0.00353244
0.00258884
0.000152357
0.001415
0.00253448
0.00336424
0.00401527
0.00454132
0.00497185
0.00532618
0.00561652
0.0058509
0.00603509
0.00617253
0.00626471
0.00631345
0.00631831
0.00627602
0.00618209
0.00602882
0.00580444
0.00549353
0.00507803
0.00455568
0.00398522
0.000169953
0.0016663
0.00294465
0.00384955
0.00453581
0.0050778
0.00551528
0.0058727
0.0061642
0.00639903
0.00658425
0.00672389
0.00681982
0.00687201
0.00687934
0.00684068
0.0067539
0.00661497
0.00641805
0.00615886
0.00583743
0.00547133
0.00511656
0.000191085
0.00192196
0.00335653
0.00432347
0.0050294
0.00557373
0.00600783
0.00636072
0.00664752
0.00687854
0.00706177
0.00720187
0.00730072
0.00735782
0.00737178
0.00734153
0.00726742
0.00714931
0.00698608
0.00678008
0.00653925
0.0062838
0.00605472
0.000220092
0.00214831
0.00373905
0.0047568
0.00547188
0.00601194
0.0064381
0.00678306
0.00706321
0.00729
0.00747179
0.00761314
0.00771589
0.00777997
0.00780453
0.00778955
0.00773574
0.00764357
0.00751597
0.00735872
0.00718227
0.00700318
0.00684681
0.000239608
0.00231781
0.00402741
0.00508742
0.0058166
0.00635855
0.00678254
0.00712539
0.00740534
0.00763379
0.00781867
0.00796452
0.00807381
0.00814767
0.00818606
0.00818915
0.00815781
0.00809383
0.00800153
0.00788726
0.00775913
0.00762943
0.00751276
0.00024654
0.00242524
0.00418472
0.00527346
0.00603544
0.00659972
0.0070349
0.00738582
0.00767551
0.00791471
0.00810906
0.00826269
0.00837995
0.00846457
0.00851759
0.00853907
0.00852947
0.00849095
0.00842802
0.00834678
0.00825405
0.00815741
0.00806382
0.000245284
0.0024512
0.00421923
0.00532849
0.00613918
0.00674083
0.00719583
0.00756349
0.00787365
0.00813373
0.00834479
0.0085095
0.00863494
0.00873025
0.00879816
0.00883769
0.00884823
0.0088314
0.00879131
0.0087337
0.00866446
0.00858884
0.00850993
0.000261235
0.00228087
0.00407717
0.005261
0.00614144
0.00677672
0.00725678
0.00765396
0.00799783
0.00829097
0.00852689
0.00870574
0.0088371
0.00894223
0.00902576
0.00908397
0.00911337
0.00911485
0.00909196
0.00904989
0.00899564
0.00893432
0.00886606
0.000243788
0.00163533
0.00354635
0.00489029
0.00588694
0.00660059
0.00715285
0.00761161
0.00800234
0.00833533
0.00860684
0.00881985
0.0089721
0.00909119
0.00919579
0.00927538
0.00932311
0.00934012
0.00932988
0.00929652
0.00924702
0.00919121
0.0091235
0.00021247
0.00139189
0.00318211
0.00452672
0.00554259
0.0063323
0.0069627
0.00748711
0.00792914
0.00829897
0.00860131
0.00883807
0.00901888
0.00916587
0.00929172
0.00939157
0.00945725
0.00948994
0.00949409
0.00947435
0.00943533
0.00938348
0.00931871
0.000208871
0.00154841
0.00310258
0.00430366
0.00527541
0.00608281
0.00675896
0.00733276
0.007815
0.0082157
0.00854018
0.00879878
0.00901042
0.00918792
0.00934217
0.00946375
0.00954804
0.00959774
0.00961751
0.00961112
0.0095817
0.00953397
0.00947257
0.000201423
0.00157889
0.00297878
0.00409067
0.00504074
0.00586002
0.00656278
0.00716447
0.00767483
0.00810141
0.00844962
0.00873249
0.00896797
0.00917264
0.00934916
0.00949117
0.00959539
0.00966397
0.00970089
0.00970906
0.00969073
0.00965166
0.00959715
0.000189255
0.00152126
0.00282135
0.00390432
0.00484883
0.00567457
0.00638983
0.00700532
0.00753049
0.00797261
0.00834073
0.00864662
0.00890542
0.00913061
0.00932501
0.00948456
0.00960709
0.00969388
0.00974774
0.00977113
0.00976648
0.00973881
0.00969484
0.000180992
0.00142688
0.00268683
0.00376654
0.00471023
0.00553551
0.00625155
0.00686893
0.00739832
0.00784864
0.00822898
0.0085509
0.00882747
0.0090685
0.00927667
0.00945029
0.00958818
0.00969113
0.00976104
0.00979998
0.00981042
0.00979701
0.00976618
0.000176517
0.00135665
0.00260357
0.00368557
0.00462583
0.00544324
0.00615073
0.00676086
0.00728586
0.00773637
0.00812221
0.00845331
0.0087402
0.00899111
0.00920913
0.00939328
0.00954339
0.00966005
0.00974459
0.00979867
0.00982466
0.0098266
0.00981016
0.000173865
0.00132707
0.0025705
0.00365212
0.0045842
0.00538814
0.00608108
0.00667816
0.00719308
0.00763771
0.00802233
0.00835631
0.00864789
0.0089036
0.00912677
0.0093183
0.00947776
0.00960572
0.00970312
0.00977134
0.00981238
0.00982958
0.00982778
0.000171985
0.0013242
0.00256884
0.0036466
0.00456717
0.00535504
0.00603105
0.0066127
0.00711492
0.00755032
0.00792948
0.00826134
0.00855319
0.00881013
0.00903556
0.00923103
0.00939716
0.00953416
0.0096425
0.00972328
0.00977812
0.00980966
0.00982181
0.000170229
0.00133133
0.00257777
0.0036491
0.00455693
0.00532879
0.00598837
0.006555
0.00704451
0.00746993
0.00784189
0.00816903
0.00845816
0.00871413
0.00893988
0.00913743
0.00930775
0.00945133
0.00956863
0.00966014
0.00972707
0.00977144
0.00979627
0.000168246
0.00133724
0.00258248
0.00364524
0.00454033
0.00529774
0.00594308
0.00649685
0.00697542
0.00739196
0.00775703
0.00807903
0.00836451
0.00861824
0.0088434
0.00904186
0.00921492
0.00936325
0.00948727
0.00958745
0.00966457
0.00971997
0.0097558
0.000165902
0.00133642
0.00257529
0.00362721
0.0045099
0.00525487
0.00588876
0.00643259
0.00690292
0.00731282
0.00767265
0.00799061
0.00827303
0.00852469
0.0087489
0.00894783
0.00912275
0.00927455
0.00940372
0.00951068
0.00959596
0.00966041
0.00970546
0.000163173
0.00132713
0.00255378
0.0035925
0.004463
0.00519739
0.00582253
0.00635943
0.00682446
0.00723041
0.00758735
0.00790318
0.00818407
0.00843473
0.00865858
0.008858
0.00903448
0.00918899
0.00932216
0.00943441
0.00952615
0.00959789
0.00965041
0.000160092
0.00130976
0.0025188
0.00354211
0.00440047
0.00512578
0.00574448
0.00627712
0.00673961
0.00714427
0.00750075
0.00781665
0.0080979
0.0083491
0.00857371
0.00877425
0.00895244
0.00910941
0.00924588
0.00936238
0.00945927
0.00953682
0.00959532
0.000156704
0.00128564
0.00247289
0.00347914
0.00432542
0.00504282
0.00565692
0.00618749
0.00664973
0.00705537
0.00741358
0.00773158
0.00801502
0.00826837
0.00849505
0.00869767
0.00887809
0.00903762
0.00917715
0.0092973
0.00939843
0.00948071
0.009544
0.000153075
0.0012566
0.00241943
0.00340784
0.00424232
0.00495281
0.00556371
0.00609382
0.00655751
0.00696585
0.00732747
0.00764916
0.0079363
0.00819316
0.00842311
0.00862876
0.00881209
0.00897456
0.0091172
0.00924072
0.00934556
0.00943181
0.00949908
0.000149275
0.00122465
0.00236218
0.00333296
0.00415633
0.00486079
0.00546951
0.00600021
0.00646642
0.00687852
0.00724459
0.00757101
0.00786285
0.00812418
0.00835827
0.00856772
0.00875457
0.00892037
0.00906629
0.00919312
0.00930137
0.00939112
0.00946181
0.000145398
0.00119192
0.00230502
0.00325934
0.00407262
0.00477189
0.00537908
0.00591091
0.0063801
0.00679637
0.00716729
0.00749883
0.00779578
0.00806203
0.00830071
0.0085144
0.00870515
0.00887457
0.00902389
0.00915401
0.00926549
0.0093584
0.00943211
0.000141557
0.00116055
0.00225161
0.00319135
0.00399575
0.00469051
0.00529648
0.00582951
0.00630159
0.00672187
0.00709745
0.00743397
0.00773593
0.00800704
0.00825034
0.00846833
0.00866305
0.00883615
0.00898887
0.00912217
0.00923664
0.00933237
0.00940872
0.000137893
0.00113253
0.00220488
0.00313216
0.00392881
0.00461951
0.00522427
0.00575821
0.00623273
0.00665647
0.00703614
0.00737705
0.00768351
0.00795906
0.00820662
0.00842865
0.00862715
0.00880371
0.00895961
0.00909579
0.00921287
0.00931096
0.00938945
0.000134565
0.00110917
0.00216626
0.00308292
0.00387264
0.00455947
0.00516284
0.00569729
0.00617367
0.00660019
0.00698321
0.00732778
0.00763802
0.00791736
0.00816862
0.0083942
0.00859602
0.00877561
0.00893421
0.00907271
0.00919174
0.00929146
0.00937136
0.000131735
0.00109068
0.00213505
0.00304212
0.00382525
0.00450829
0.00511018
0.00564491
0.0061228
0.00655161
0.00693738
0.00728495
0.0075983
0.00788076
0.00813511
0.00836365
0.00856819
0.00875017
0.00891071
0.00905064
0.00917062
0.00927088
0.0093511
0.000129531
0.00107594
0.00210819
0.00300556
0.00378207
0.00446149
0.00506222
0.00559754
0.00607712
0.00650822
0.00689655
0.00724678
0.0075628
0.00784792
0.00810485
0.00833578
0.00854238
0.00872591
0.00888731
0.00902738
0.00914682
0.00924608
0.00932515
0.00012802
0.00106275
0.00208089
0.00296718
0.00373678
0.00441317
0.00501378
0.00555081
0.00603303
0.0064671
0.00685839
0.00721142
0.00753007
0.00781767
0.00807688
0.00830975
0.0085177
0.00870169
0.0088625
0.00900089
0.00911779
0.00921405
0.00929014
0.000127189
0.00104847
0.00204784
0.00292038
0.00368271
0.00435728
0.00495974
0.00550057
0.00598726
0.00642571
0.00682094
0.00717741
0.00749908
0.00778932
0.00805078
0.00828526
0.00849377
0.00867685
0.00883504
0.00896933
0.00908117
0.00917208
0.00924326
0.000126961
0.00103077
0.0020043
0.00285923
0.00361399
0.00428877
0.00489609
0.00544378
0.00593758
0.00638245
0.0067831
0.00714405
0.00746946
0.00776283
0.00802674
0.00826259
0.00847069
0.00865096
0.00880383
0.00893093
0.00903481
0.00911806
0.00918272
0.000127293
0.0010088
0.00194692
0.002779
0.00352615
0.00420426
0.00482063
0.00537917
0.0058833
0.00633701
0.00674482
0.0071115
0.00744157
0.00773875
0.00800547
0.00824241
0.0084488
0.0086236
0.00876755
0.00888396
0.00897718
0.00905116
0.00910873
0.000128557
0.000986237
0.00187514
0.00267699
0.00341693
0.00410278
0.00473352
0.00530753
0.00582548
0.00629045
0.00670707
0.00708064
0.00741626
0.00771797
0.00798786
0.0082255
0.00842829
0.00859394
0.00872464
0.00882737
0.00890871
0.00897352
0.0090251
0.00013335
0.000984163
0.00180071
0.00255862
0.00328958
0.00398753
0.0046382
0.00523219
0.00576701
0.00624509
0.00667164
0.00705284
0.00739461
0.00770135
0.00797467
0.00821226
0.00840867
0.00856026
0.00867407
0.00876364
0.00883553
0.00889375
0.00894197
0.000156737
0.00109761
0.00179033
0.00245814
0.00316176
0.00386979
0.00454312
0.00515965
0.00571271
0.00620443
0.00664096
0.00702972
0.00737759
0.00768939
0.00796589
0.00820192
0.00838751
0.00851882
0.0086184
0.00870572
0.00877675
0.00883243
0.00887927
0.00024386
0.0016039
0.00201674
0.00245718
0.00307241
0.00377191
0.00446295
0.00509985
0.00566925
0.0061728
0.00661778
0.00701283
0.00736579
0.00768178
0.00796024
0.00819126
0.00835762
0.00846067
0.0085703
0.00869069
0.00877358
0.00882666
0.00886846
0.000416981
0.00328332
0.00261339
0.00259824
0.00305261
0.00371901
0.00441583
0.00506475
0.00564421
0.00615496
0.00660496
0.0070037
0.00735962
0.00767789
0.00795611
0.00817709
0.00831003
0.00837159
0.00854846
0.00880615
0.0088912
0.00892329
0.00894402
0.00026378
0.000243673
0.000236125
0.000244114
0.00195838
0.00190394
0.00194731
0.00204185
0.00368005
0.00359127
0.00359442
0.00367342
0.00494604
0.00488624
0.00487877
0.00491623
0.00594849
0.00590609
0.00589002
0.00589714
0.00676779
0.00672995
0.00670488
0.00669106
0.00744409
0.00740562
0.00737233
0.00734341
0.00799862
0.00795809
0.00791865
0.0078799
0.00844704
0.00840528
0.00836213
0.00831746
0.00880384
0.00876127
0.00871693
0.00866986
0.00906277
0.0090221
0.00897858
0.00893198
0.0092593
0.00921813
0.00917409
0.00912616
0.00941668
0.00937708
0.00933381
0.00928654
0.00954592
0.0095091
0.00946844
0.00942375
0.00965025
0.00961732
0.00958043
0.00953957
0.00972968
0.00970153
0.00966928
0.00963308
0.00978299
0.00976044
0.00973356
0.00970265
0.0098105
0.00979399
0.00977293
0.00974766
0.00981429
0.00980385
0.00978865
0.00976909
0.00979785
0.00979317
0.00978359
0.00976948
0.00976557
0.00976616
0.00976172
0.00975259
0.00972226
0.00972749
0.00972763
0.00972296
0.00967302
0.00968217
0.00968626
0.00968549
0.00962267
0.00963509
0.00964251
0.00964506
0.00957523
0.00959035
0.00960054
0.00960587
0.00953351
0.00955088
0.00956338
0.00957103
0.00949896
0.00951821
0.00953265
0.00954226
0.0094716
0.00949245
0.00950853
0.00951981
0.00945021
0.0094724
0.00948986
0.00950253
0.00943254
0.00945579
0.00947433
0.00948811
0.00941551
0.00943945
0.00945872
0.00947328
0.00939555
0.0094197
0.00943925
0.00945417
0.00936892
0.00939268
0.00941197
0.00942676
0.0093321
0.00935483
0.00937328
0.00938746
0.00928232
0.00930342
0.00932057
0.00933377
0.0092182
0.00923739
0.00925304
0.0092652
0.00914075
0.00915822
0.00917269
0.00918416
0.00905482
0.00907138
0.00908545
0.009097
0.00897115
0.00898783
0.00900239
0.00901475
0.0089086
0.00892562
0.00894064
0.00895355
0.00889457
0.00890968
0.00892281
0.00893374
0.00895658
0.00896368
0.00896941
0.0089733
0.000950963
0.00202327
0.00298883
0.00364178
0.00399405
0.00413457
0.0041455
0.00407263
0.00393447
0.00374397
0.00353697
0.00331642
0.00308438
0.00283258
0.00252855
0.00213975
0.00162034
0.00090749
0.000146226
0.00252437
0.00323781
0.00387025
0.00432111
0.00458272
0.00469085
0.00468508
0.004591
0.00442713
0.00421069
0.00396586
0.00370069
0.00341739
0.00310941
0.00275081
0.00229493
0.00168615
0.000877343
0.000142822
0.00391152
0.00433147
0.0047111
0.00497946
0.00513041
0.00517996
0.00513641
0.00501295
0.00482163
0.00457802
0.00429901
0.00399377
0.003665
0.00330752
0.00290263
0.0024137
0.00178191
0.000952682
0.000146163
0.00503368
0.00525843
0.00545724
0.0055876
0.00564136
0.0056224
0.00553026
0.00536898
0.00514516
0.00487055
0.00455741
0.004214
0.00384352
0.00344277
0.00299992
0.00249232
0.00188197
0.00110738
0.000156286
0.00593971
0.00603265
0.00610728
0.00613587
0.00610993
0.00602752
0.00588528
0.00568278
0.00542367
0.00511575
0.00476793
0.00438706
0.00397643
0.00353431
0.00305331
0.00252032
0.00191211
0.00116217
0.000166594
0.00668259
0.00668586
0.00667341
0.00662683
0.00653764
0.00640118
0.00621321
0.00597193
0.00567907
0.00533979
0.00496042
0.00454628
0.00410009
0.00362031
0.00310136
0.00253494
0.00190651
0.00116035
0.000169017
0.00730038
0.007242
0.00716816
0.00706645
0.00692883
0.00674945
0.00652397
0.00625037
0.00592965
0.0055654
0.00516214
0.00472388
0.00425222
0.00374418
0.00319273
0.00258921
0.00192202
0.00115252
0.00017057
0.00781535
0.0077162
0.0076002
0.00745968
0.00728754
0.00707722
0.0068245
0.00652758
0.00618776
0.00580806
0.00539164
0.00494078
0.00445603
0.00392992
0.00335008
0.00270683
0.00198555
0.00116506
0.00017473
0.00824005
0.00811708
0.00797453
0.0078093
0.00761556
0.00738636
0.0071168
0.00680607
0.00645661
0.00607156
0.0056525
0.00519825
0.00470397
0.00415626
0.00353384
0.00282694
0.00200225
0.00104564
0.000165414
0.00858558
0.00845021
0.0082933
0.00811518
0.00791123
0.00767406
0.00739578
0.00707749
0.00672392
0.00633892
0.00592232
0.00547157
0.0049654
0.00437582
0.00366778
0.0028336
0.00187734
0.000908249
0.000164809
0.00884812
0.00870827
0.00854304
0.00835543
0.00814613
0.0079082
0.00762996
0.00731131
0.00695898
0.00657891
0.00616532
0.00570774
0.00517637
0.00454608
0.00380103
0.00293609
0.00197835
0.00100524
0.000173815
0.0090412
0.00889625
0.00872638
0.00853337
0.00832025
0.00808297
0.00781127
0.00750285
0.00715955
0.0067872
0.00637892
0.00591575
0.0053744
0.00473968
0.00400256
0.00315815
0.00220343
0.00115857
0.000184077
0.00920266
0.00905927
0.0088906
0.00869976
0.00848851
0.0082543
0.00799011
0.00769303
0.00736255
0.00699946
0.00659857
0.00614069
0.00560828
0.0049889
0.00426889
0.00342868
0.00244123
0.00129432
0.000191449
0.0093442
0.00920771
0.00904581
0.00886178
0.00865728
0.00843089
0.00817796
0.00789443
0.0075782
0.00722729
0.00683546
0.00638894
0.00587141
0.00526595
0.0045503
0.00369397
0.00265444
0.00140635
0.000196546
0.00946649
0.00934029
0.0091887
0.00901508
0.00882124
0.00860661
0.00836744
0.00809876
0.00779685
0.00745805
0.00707632
0.00663997
0.00613182
0.00553063
0.00480789
0.00392458
0.00283123
0.00149785
0.000200039
0.00956778
0.00945367
0.00931453
0.00915354
0.00897244
0.0087708
0.00854513
0.00829029
0.00800128
0.00767343
0.00730024
0.00687011
0.00636516
0.00576112
0.00502545
0.00411438
0.00297408
0.00157097
0.00020228
0.00964606
0.00954485
0.00941888
0.00927116
0.00910306
0.00891384
0.00870013
0.00845679
0.00817839
0.00785937
0.00749232
0.0070652
0.00655955
0.00594957
0.00520028
0.00426487
0.00308634
0.00162799
0.000203521
0.00970024
0.00961202
0.00949902
0.00936406
0.00920807
0.0090299
0.00882622
0.00859211
0.00832193
0.00800947
0.00764649
0.0072204
0.00671241
0.00609602
0.00533484
0.00438012
0.00317221
0.00167101
0.000203916
0.00973084
0.00965512
0.00955433
0.00943109
0.00928587
0.00911719
0.00892179
0.00869495
0.00843102
0.00812332
0.00776295
0.00733693
0.00682634
0.00620434
0.00543393
0.00446506
0.00323608
0.00170318
0.000203615
0.00973997
0.00967587
0.00958625
0.00947349
0.00933767
0.00917709
0.00898854
0.0087675
0.00850836
0.00820412
0.00784549
0.00741923
0.0069064
0.00628008
0.00550306
0.00452451
0.00328094
0.00172516
0.000202695
0.00973103
0.00967743
0.00959786
0.00949434
0.0093667
0.00921307
0.0090303
0.00881403
0.00855866
0.00825706
0.00789967
0.00747316
0.00695865
0.00632944
0.00554817
0.00456358
0.00331081
0.00173963
0.000201277
0.00970848
0.00966405
0.00959334
0.00949795
0.00937745
0.00922989
0.00905214
0.00883992
0.00858768
0.00828819
0.00793178
0.00750508
0.00698932
0.006358
0.0055739
0.00458568
0.00332761
0.00174703
0.000199474
0.00967717
0.00964063
0.0095776
0.00948933
0.00937513
0.00923294
0.00905962
0.00885095
0.00860139
0.00830366
0.007948
0.00752103
0.0070041
0.00637094
0.0055846
0.00459391
0.00333288
0.00174789
0.000197552
0.00964195
0.00961209
0.00955571
0.00947366
0.00936502
0.0092276
0.00905823
0.0088527
0.00860542
0.00830908
0.00795385
0.00752634
0.007008
0.00637281
0.00558424
0.00459162
0.00332933
0.00174376
0.000195486
0.00960714
0.00958289
0.00953221
0.00945558
0.00935182
0.00921862
0.00905276
0.00884996
0.0086046
0.00830926
0.00795407
0.0075256
0.0070054
0.00636773
0.00557656
0.00458201
0.00331943
0.00173611
0.000193398
0.00957597
0.00955644
0.00951064
0.00943869
0.00933919
0.00920972
0.00904695
0.00884653
0.00860275
0.00830808
0.00795255
0.00752271
0.00700018
0.00635949
0.0055652
0.00456837
0.00330581
0.00172648
0.000191374
0.0095503
0.00953479
0.00949318
0.00942528
0.00932952
0.00920335
0.00904335
0.00884505
0.00860262
0.00830841
0.00795233
0.00752085
0.00699565
0.00635151
0.00555358
0.004554
0.00329122
0.00171636
0.000189586
0.00953048
0.00951845
0.00948046
0.00941613
0.0093237
0.00920054
0.00904311
0.00884684
0.00860575
0.00831204
0.00795546
0.00752237
0.00699445
0.0063467
0.00554482
0.00454201
0.00327848
0.00170753
0.000188093
0.00951544
0.00950643
0.00947163
0.00941047
0.00932112
0.00920085
0.00904603
0.00885195
0.00861249
0.00831966
0.00796301
0.00752874
0.00699846
0.00634732
0.00554149
0.00453516
0.00327008
0.00170142
0.000187052
0.00950283
0.00949643
0.00946443
0.0094062
0.00931983
0.00920253
0.00905061
0.00885921
0.00862205
0.00833091
0.0079751
0.00754056
0.00700875
0.00635487
0.00554546
0.00453553
0.00326808
0.0016995
0.000186507
0.00948932
0.00948505
0.00945553
0.00940007
0.00931677
0.00920279
0.00905437
0.00886652
0.00863277
0.00834464
0.0079911
0.00755776
0.00702576
0.00637021
0.00555788
0.00454444
0.00327377
0.00170261
0.000186625
0.00947092
0.00946827
0.00944095
0.00938826
0.00930832
0.00919829
0.00905433
0.00887134
0.00864262
0.00835939
0.00801017
0.00758008
0.00704974
0.00639393
0.00557947
0.00456259
0.00328784
0.00171155
0.000187468
0.00944355
0.009442
0.00941669
0.00936696
0.00929095
0.00918582
0.00904768
0.00887132
0.00864983
0.00837403
0.00803191
0.00760783
0.0070816
0.00642728
0.00561146
0.00459081
0.00331069
0.0017266
0.000189254
0.00940364
0.00940279
0.00937953
0.00933322
0.00926202
0.00916312
0.0090326
0.00886517
0.0086537
0.00838863
0.00805724
0.00764287
0.00712404
0.00647347
0.00565692
0.00463135
0.00334348
0.00174858
0.00019212
0.00934893
0.00934872
0.00932789
0.0092858
0.00922065
0.00912965
0.00900895
0.00885324
0.00865524
0.00840502
0.00808908
0.00768943
0.00718264
0.00653914
0.00572269
0.00468987
0.00338952
0.00177873
0.000196434
0.00927937
0.00928027
0.00926268
0.00922594
0.00916834
0.00908719
0.00897878
0.00883794
0.00865743
0.00842704
0.00813254
0.00775438
0.00726651
0.00663561
0.00582132
0.00477784
0.00345644
0.00182014
0.000202584
0.00919803
0.00920106
0.00918786
0.0091578
0.0091093
0.00903995
0.00894634
0.00882366
0.00866495
0.00846006
0.00819428
0.0078466
0.0073878
0.00677907
0.00597245
0.00491515
0.0035585
0.00187782
0.000211448
0.00911174
0.00911824
0.00911059
0.00908833
0.00905022
0.00899428
0.00891764
0.00881611
0.00868337
0.00850986
0.00828106
0.00797512
0.00755981
0.00698937
0.00620348
0.00513324
0.0037208
0.00196001
0.000224352
0.00903135
0.00904222
0.0090407
0.0090267
0.00899954
0.00895788
0.00889959
0.00882138
0.00871802
0.00858119
0.00839767
0.00814628
0.00779342
0.00728673
0.00654898
0.00548017
0.00398818
0.00208079
0.000244717
0.00897127
0.00898567
0.00898948
0.008983
0.00896625
0.00893869
0.00889902
0.00884502
0.00877292
0.0086764
0.0085449
0.00836044
0.00809197
0.00768536
0.0070475
0.00603064
0.00445465
0.00229074
0.000279874
0.00894814
0.00896187
0.00896803
0.00896682
0.00895878
0.00894398
0.00892192
0.00889142
0.00885035
0.00879494
0.00871859
0.00860945
0.00844525
0.00818214
0.00772975
0.00689963
0.00534331
0.00277021
0.000352813
0.0089763
0.00898191
0.00898531
0.00898585
0.00898389
0.00897963
0.008973
0.00896369
0.0089511
0.00893406
0.00891054
0.00887669
0.00882488
0.00873836
0.00857499
0.00820868
0.00719893
0.00425018
0.000497976
)
;

boundaryField
{
    leftWall
    {
        type            nutkWallFunction;
        Cmu             0.09;
        kappa           0.41;
        E               9.8;
        value           nonuniform List<scalar> 
50
(
2.46675e-06
7.23103e-06
8.34872e-06
9.14582e-06
9.76097e-06
1.0282e-05
1.12121e-05
1.35807e-05
1.43934e-05
1.57172e-05
1.71059e-05
1.85531e-05
2.05321e-05
2.33474e-05
2.53051e-05
2.61558e-05
2.62372e-05
2.9926e-05
2.33962e-05
1.97117e-05
1.99343e-05
1.88924e-05
1.77045e-05
1.70443e-05
1.66915e-05
1.64453e-05
1.62147e-05
1.59498e-05
1.56285e-05
1.52465e-05
1.48066e-05
1.43155e-05
1.37805e-05
1.32105e-05
1.26163e-05
1.20114e-05
1.14136e-05
1.08454e-05
1.03335e-05
9.90518e-06
9.58247e-06
9.37703e-06
9.28642e-06
9.29688e-06
9.39616e-06
9.62469e-06
1.0314e-05
1.33787e-05
2.51861e-05
4.91602e-05
)
;
    }
    rightWall
    {
        type            nutkWallFunction;
        Cmu             0.09;
        kappa           0.41;
        E               9.8;
        value           nonuniform List<scalar> 
50
(
3.13629e-06
1.00201e-05
1.15326e-05
1.27478e-05
1.43407e-05
1.75456e-05
1.78332e-05
1.78265e-05
1.75531e-05
1.69127e-05
1.6924e-05
1.76363e-05
1.8692e-05
1.87744e-05
1.87043e-05
1.99149e-05
1.97593e-05
1.57619e-05
1.74096e-05
1.87594e-05
1.96597e-05
2.02794e-05
2.06946e-05
2.09488e-05
2.10716e-05
2.10849e-05
2.09979e-05
2.08277e-05
2.05783e-05
2.02698e-05
1.99251e-05
1.95592e-05
1.91953e-05
1.88473e-05
1.85386e-05
1.82777e-05
1.80855e-05
1.79678e-05
1.79472e-05
1.80326e-05
1.82548e-05
1.86334e-05
1.92179e-05
2.0058e-05
2.12626e-05
2.29981e-05
2.56444e-05
2.99877e-05
3.80609e-05
5.51038e-05
)
;
    }
    lowerWall
    {
        type            nutkWallFunction;
        Cmu             0.09;
        kappa           0.41;
        E               9.8;
        value           nonuniform List<scalar> 
62
(
2.46675e-06
3.71903e-06
4.46894e-06
4.9817e-06
5.36253e-06
5.66323e-06
5.91344e-06
6.13155e-06
6.3292e-06
6.51291e-06
6.6898e-06
6.86953e-06
7.03508e-06
7.17773e-06
7.29009e-06
7.3636e-06
7.38817e-06
7.35011e-06
7.22614e-06
6.97199e-06
6.49481e-06
5.5706e-06
3.21019e-06
3.21019e-06
1.01065e-05
1.21315e-05
1.37174e-05
1.51049e-05
1.66817e-05
2.05816e-05
2.56161e-05
2.92951e-05
2.6806e-05
2.54962e-05
2.64344e-05
3.1874e-06
1.15896e-05
1.48469e-05
1.68845e-05
1.93104e-05
2.2226e-05
2.64939e-05
3.03853e-05
3.1874e-06
5.65765e-06
6.62696e-06
7.13304e-06
7.40597e-06
7.54904e-06
7.55219e-06
7.5045e-06
7.44854e-06
7.34737e-06
7.1776e-06
6.89812e-06
6.4445e-06
6.14501e-06
5.95786e-06
5.67895e-06
5.2758e-06
4.62285e-06
3.13629e-06
)
;
    }
    atmosphere
    {
        type            calculated;
        value           nonuniform List<scalar> 
46
(
0.009
0.009
0.00261339
0.00259824
0.00305261
0.00371901
0.00441583
0.00506475
0.00564421
0.00615496
0.00660496
0.0070037
0.00735962
0.00767789
0.00795611
0.00817709
0.00831003
0.00837159
0.00854846
0.009
0.009
0.009
0.009
0.009
0.009
0.009
0.009
0.009
0.009
0.009
0.009
0.009
0.009
0.009
0.009
0.009
0.009
0.009
0.009
0.009
0.009
0.009
0.009
0.009
0.009
0.009
)
;
    }
    defaultFaces
    {
        type            empty;
    }
}


// ************************************************************************* //
