/*--------------------------------*- C++ -*----------------------------------*\
  =========                 |
  \\      /  F ield         | OpenFOAM: The Open Source CFD Toolbox
   \\    /   O peration     | Website:  https://openfoam.org
    \\  /    A nd           | Version:  13
     \\/     M anipulation  |
\*---------------------------------------------------------------------------*/
FoamFile
{
    format      ascii;
    class       volScalarField;
    location    "2.3";
    object      p_rgh;
}
// * * * * * * * * * * * * * * * * * * * * * * * * * * * * * * * * * * * * * //

dimensions      [1 -1 -2 0 0 0 0];

internalField   nonuniform List<scalar> 
2268
(
6093.1
6110.84
6133.34
6158.35
6181.28
6197.98
6205.68
6202.84
6188.69
6163.15
6126.45
6081.18
6028.23
5969.59
5907.18
5843.61
5782.14
5726.12
5678.8
5643.26
5622.01
5617.34
5626.51
6087.54
6102.68
6122.42
6145.11
6167.24
6184.69
6194.37
6194.36
6183.56
6161.62
6129.24
6086.73
6036.63
5980.37
5919.61
5856.89
5795.52
5738.87
5690.23
5652.77
5628.79
5621.89
5629.06
6082.01
6094.08
6110.78
6131.1
6152.36
6170.57
6182.39
6185.54
6178.54
6160.68
6131.97
6093.08
6046.07
5992.29
5933.36
5871.32
5809.71
5751.99
5701.46
5661.29
5633.7
5624.58
5629.33
6076.14
6085.78
6100.08
6119.48
6140.49
6159.65
6173.49
6179.5
6175.83
6161.46
6135.71
6099.5
6054.82
6003.03
5944.97
5882.81
5820.2
5760.77
5707.74
5664.2
5632.64
5621.38
5624.83
6070.41
6077.58
6089.34
6108.31
6129.9
6150.46
6166.54
6175.48
6175.1
6163.91
6140.42
6105.77
6062.41
6011.28
5952.05
5886.94
5821.07
5758.12
5701.28
5653.51
5617.81
5605.34
5612.95
6063.57
6075.68
6089.3
6109.56
6132
6153.82
6171.39
6182.31
6183.88
6173.31
6147.95
6109.63
6061.43
6004.45
5912.95
5710.4
5491.34
5280.35
5090.22
4930.91
4818.24
4820.06
4954.36
3848.59
3972.71
4189.81
4463.05
4669.7
4846.66
4991.19
5090.66
5113
5009.79
4742.28
4362.27
3912.43
3404.73
2903.07
2541.51
2249.25
2017.52
1842.71
1718.88
1643.6
1649.55
1788.28
1282.41
1281.51
1273.86
1264.82
1350.83
1441.36
1496.83
1504.95
1470.31
1417.53
1364.22
1300.27
1251.68
1236.93
1236.22
1233.18
1228.18
1221.18
1212.4
1202.49
1191.81
1182.25
1180.86
2431.14
2440.53
2448.84
2451.69
2465.55
2503.85
2558.84
2537.62
2594.95
2698.98
2802.24
2873.9
2906.58
2964.6
3080.39
3104.74
3087.22
3042.47
2981.27
2170.88
2174.92
2195.32
2200.16
2224.3
2345.57
2461.67
2607.67
2751.81
2859.59
2962.28
3025.05
2999.88
3063.69
3092.83
3100.71
3078.45
3032.64
2972.16
1624.88
1609.73
1568.2
1554.48
1635.59
1621.43
1700.09
1918.06
2169.59
2573.78
2834.92
2974.47
3066.06
3078.04
3092.61
3092.51
3071.61
2981.99
2721.31
1660.61
1689.54
1637.87
1631.27
1489.45
1304.9
1238.76
1283.84
1276.8
1287.41
1540.22
2029.76
2206.28
2253.61
2379.19
2431.59
2332.7
2298.02
2426.8
1471.19
1522.57
1572.81
1637.45
1520.19
1280.87
1254.94
1245.2
1254.26
1135.61
1065.99
1149.93
1745.44
1785.68
1695
1519.8
1541.54
1364.59
1301.84
1300.47
1329.35
1438.47
1337.26
1469.66
1455.85
1368.54
1416.07
1421.08
1130.53
1092.35
895.379
937.406
1300.01
1285.16
1303.81
1071.83
982.133
832.059
1073.62
1069.56
1084.39
1165.32
1301.14
1440.74
1491.16
1248.47
1142.5
1110.71
1090.69
1038.68
797.466
771.794
854.797
987.189
1046.57
1060.74
915.919
1125.65
1071.18
1084.51
1072.55
1071.36
1253.45
1094.68
1086.16
1087.17
1093.61
1089.23
1079.12
996.614
924.546
982.024
1054.14
1064.64
1065.18
983.707
1284.27
1284.47
1281.07
1274.16
1265.51
1257.1
1249.75
1243.8
1239.32
1236.01
1233.61
1231.71
1229.81
1227.65
1225.23
1221.77
1217.04
1210.7
1202.7
1193.31
1182.65
1172.15
1162.66
1286.19
1282.99
1278.35
1271.89
1264.73
1257.72
1251.11
1245.38
1240.69
1236.95
1234
1231.52
1229.15
1226.72
1223.76
1219.77
1214.62
1208.02
1199.79
1190.47
1176.76
1155.59
1152.26
1290.54
1284.81
1277.04
1270.92
1264.92
1258.63
1252.38
1246.73
1242.13
1238.26
1234.99
1231.96
1228.95
1226.11
1222.32
1210.82
1200.74
1180.3
1125.91
1092.39
1036.63
1002.5
966.817
1280.55
1271.44
1273.67
1268.28
1261.1
1258
1246.44
1226.44
1217.11
1210.12
1200.21
1184.14
1147.7
1102.83
1059.82
1002.21
936.641
869.565
815.857
793.956
785.543
754.558
720.29
1137.42
1127.72
1057.25
1004.95
987.695
1032.75
1012.84
969.058
932.788
877.638
838.052
785.754
726.239
700.166
713.577
711.541
699.718
749.451
778.857
779.696
778.26
744.04
738.035
918.371
786.646
759.738
753.529
750.898
731.991
680.265
684.354
721.395
723.237
707.616
717.571
760.479
770.262
768.126
765.514
768.68
780.077
782.4
782.412
780.502
779.023
781.195
747.123
764.843
754.491
751.823
751.745
752.21
754.349
757.139
759.617
762.069
764.845
767.812
770.682
773.74
776.458
778.724
780.246
780.978
781.438
781.646
781.579
781.034
779.795
733.81
659.74
564.664
574.669
654.347
694.906
709.55
731.235
756.776
764.904
766.455
768.847
771.616
774.461
776.802
778.531
779.703
780.377
780.797
781.054
780.807
779.994
778.577
431.837
140.374
53.357
55.6989
65.1981
78.5177
129.672
246.735
394.159
477.734
515.592
553.2
596.408
632.227
656.394
669.887
677.239
678.583
673.257
676.14
680.773
678.554
663.949
8.52427
5.25919
5.33082
5.28461
5.18833
5.07764
4.95539
4.83884
4.72278
4.60283
4.46977
4.42141
24.7774
55.1569
70.4787
78.9578
83.1097
75.7052
64.3843
62.932
59.4145
26.2743
3.51439
5.09252
5.04802
5.02824
5.02142
5.00957
4.92434
4.86548
4.81466
4.76449
4.71374
4.66208
4.60301
4.50662
4.34394
4.22999
4.1463
4.06186
3.98024
3.89994
3.80906
3.73211
3.74346
3.70815
5.04157
5.01547
5.02309
5.07769
5.05525
4.96951
4.88418
4.82976
4.77604
4.72413
4.66759
4.60961
4.54575
4.46996
4.40155
4.33176
4.25396
4.16826
4.07728
3.98258
3.88948
3.81418
3.73337
5.00173
5.00943
5.02268
5.06214
5.04484
4.96147
4.89507
4.85439
4.85312
4.86883
4.71155
4.61624
4.53952
4.47041
4.39622
4.32242
4.24571
4.16445
4.08013
3.99523
3.91564
3.83883
3.76969
5.03708
5.03321
5.0278
5.0082
4.98118
4.94352
4.9006
4.85392
4.9735
4.92177
4.8638
4.71809
4.55407
4.47684
4.40292
4.32981
4.25509
4.17784
4.09847
4.01943
3.94534
3.87994
3.81075
5.03828
5.03261
5.02262
5.00359
4.97875
4.94663
4.90813
4.86381
4.95109
4.94676
4.89202
4.77535
4.58035
4.51056
4.43959
4.36929
4.2947
4.21905
4.14312
4.06744
3.99539
3.93103
3.86576
5.03142
5.02813
5.02007
5.00499
4.98324
4.95463
4.91952
4.87826
4.84585
4.90609
4.86247
4.71307
4.61497
4.5521
4.48663
4.41946
4.34645
4.27263
4.19947
4.12643
4.056
3.99242
3.92803
5.03316
5.03113
5.02477
5.0121
4.99276
4.96691
4.93486
4.8969
4.85335
4.80861
4.75672
4.7018
4.64919
4.59387
4.53102
4.46416
4.39675
4.3282
4.25789
4.18736
4.11887
4.05653
3.99316
5.04238
5.04073
5.03516
5.02383
5.00635
4.98285
4.95353
4.9186
4.8783
4.83395
4.78644
4.7368
4.6865
4.63168
4.57226
4.51123
4.44868
4.38395
4.31689
4.2491
4.18285
4.12206
4.06024
5.05628
5.05474
5.04963
5.03932
5.02342
5.00196
4.97506
4.94294
4.906
4.86501
4.8208
4.77463
4.72558
4.67332
4.61783
4.56081
4.50175
4.44025
4.37641
4.31153
4.24781
4.18904
4.12883
5.07371
5.07218
5.06746
5.05804
5.04352
5.02387
4.99916
4.96961
4.93561
4.89771
4.85653
4.81289
4.76653
4.71704
4.66534
4.6117
4.55576
4.49733
4.43657
4.37473
4.31376
4.25733
4.19906
5.09403
5.09253
5.08816
5.07955
5.06627
5.04824
5.02554
4.99834
4.96697
4.93187
4.89354
4.85236
4.80855
4.76235
4.71403
4.66361
4.61085
4.55554
4.49787
4.43899
4.38087
4.32719
4.27045
5.11675
5.11531
5.11129
5.10342
5.09127
5.07474
5.05387
5.02883
4.99988
4.9674
4.93176
4.89331
4.85235
4.80913
4.76384
4.71652
4.66697
4.6149
4.56043
4.50469
4.44942
4.39789
4.34452
5.14142
5.14007
5.13642
5.12926
5.11817
5.10302
5.08386
5.06083
5.03415
5.00414
4.97111
4.93539
4.89726
4.85696
4.81467
4.77042
4.72407
4.6753
4.6242
4.57175
4.51965
4.47089
4.42046
5.16767
5.16646
5.16318
5.15671
5.14661
5.13277
5.11522
5.09408
5.06955
5.0419
5.01141
4.97836
4.94303
4.90564
4.86634
4.82517
4.78202
4.73662
4.68898
4.64003
4.5913
4.54562
4.49853
5.19519
5.19415
5.19124
5.18542
5.17627
5.16368
5.14765
5.12831
5.10584
5.08046
5.05244
5.02202
4.98945
4.95494
4.91864
4.88058
4.84066
4.79866
4.75457
4.7092
4.664
4.62159
4.57778
5.22372
5.22286
5.22034
5.21514
5.20689
5.19546
5.1809
5.16328
5.14279
5.11962
5.09399
5.06615
5.03631
5.00467
4.97136
4.93641
4.89976
4.86117
4.82065
4.77894
4.73732
4.69819
4.65786
5.25302
5.25236
5.25021
5.2456
5.2382
5.2279
5.21473
5.19878
5.1802
5.15916
5.13588
5.11056
5.08341
5.0546
5.02427
4.99244
4.95904
4.92387
4.88693
4.84886
4.81089
4.77515
4.73816
5.28292
5.28246
5.28065
5.27661
5.27001
5.26079
5.24896
5.23461
5.21788
5.19892
5.17792
5.15507
5.13056
5.10455
5.07716
5.04842
5.01825
4.98647
4.95308
4.91869
4.88434
4.852
4.81864
5.31324
5.31299
5.3115
5.30799
5.30217
5.29398
5.28345
5.27064
5.2557
5.23875
5.21997
5.19953
5.1776
5.15433
5.12983
5.10413
5.07715
5.04873
5.01886
4.98807
4.95733
4.9284
4.89839
5.34387
5.34381
5.34263
5.33963
5.33455
5.32736
5.31807
5.30676
5.29354
5.27853
5.26189
5.24379
5.22437
5.20377
5.18209
5.15937
5.13551
5.11039
5.08398
5.05677
5.02957
5.00392
4.97735
5.37468
5.37481
5.37394
5.37143
5.36708
5.36085
5.35276
5.34288
5.3313
5.31816
5.30359
5.28773
5.27073
5.25271
5.23377
5.21394
5.19314
5.17125
5.14824
5.12452
5.10085
5.07851
5.05519
5.40559
5.40591
5.40534
5.40333
5.39968
5.39438
5.38744
5.37893
5.36893
5.35756
5.34495
5.33123
5.31654
5.301
5.2847
5.26765
5.24981
5.23105
5.21135
5.1911
5.17089
5.15182
5.13202
5.43647
5.437
5.43675
5.43524
5.43229
5.4279
5.42206
5.41485
5.40634
5.39664
5.38588
5.37419
5.36169
5.3485
5.33469
5.32031
5.30529
5.28954
5.27306
5.25611
5.23927
5.22343
5.20688
5.46724
5.46798
5.46809
5.46709
5.46484
5.46132
5.45655
5.45056
5.44345
5.43532
5.4263
5.4165
5.40605
5.39505
5.3836
5.37171
5.35936
5.34646
5.33298
5.31919
5.3055
5.29265
5.2793
5.49776
5.49874
5.49923
5.49878
5.49724
5.49459
5.49083
5.486
5.48019
5.47352
5.4661
5.45805
5.4495
5.44054
5.43126
5.42169
5.4118
5.40152
5.39083
5.37991
5.36915
5.35908
5.34854
5.5279
5.52915
5.53007
5.53021
5.52941
5.52761
5.52482
5.52107
5.51648
5.51115
5.50521
5.49877
5.49196
5.48486
5.47755
5.47008
5.46243
5.45451
5.44629
5.43796
5.42978
5.42219
5.41434
5.55748
5.55906
5.56048
5.56128
5.56126
5.56032
5.55846
5.55573
5.55224
5.54814
5.54355
5.53858
5.53335
5.52793
5.5224
5.51679
5.51109
5.50521
5.49912
5.49297
5.48701
5.48156
5.4759
5.5863
5.58829
5.59034
5.59192
5.59276
5.59269
5.59171
5.5899
5.58744
5.58445
5.58108
5.57745
5.57364
5.56973
5.56577
5.56178
5.55775
5.55355
5.54914
5.54475
5.54059
5.53686
5.53309
5.61415
5.6167
5.61965
5.62222
5.62399
5.62476
5.62457
5.6236
5.62204
5.62006
5.6178
5.61537
5.61284
5.61029
5.60772
5.60515
5.60251
5.59957
5.59633
5.59324
5.59051
5.58825
5.58607
5.64088
5.64441
5.64875
5.65249
5.65514
5.65658
5.65703
5.65676
5.656
5.65492
5.65364
5.65228
5.6509
5.64957
5.64831
5.64711
5.64592
5.64399
5.64131
5.63912
5.63758
5.63664
5.63624
5.66664
5.67141
5.67872
5.68334
5.68642
5.68821
5.68908
5.68938
5.68931
5.68903
5.68863
5.68822
5.68785
5.68762
5.68762
5.68801
5.68919
5.68666
5.6838
5.68219
5.68161
5.6817
5.68315
5.70315
5.70216
5.70971
5.71296
5.71491
5.71602
5.71666
5.717
5.71718
5.71727
5.71733
5.71741
5.71755
5.71783
5.71834
5.71929
5.72151
5.72112
5.71796
5.71677
5.71655
5.71676
5.71797
1143.51
1236.26
1488.9
1400.42
1145.12
1113.96
928.356
904.973
837.97
731.944
728.18
799.372
717.888
761.233
769.178
761.426
778.988
782.859
779.292
776.622
779.683
777.999
776.558
775.028
778.479
777.466
776.259
774.859
776.268
774.916
773.952
773.388
654.22
629.12
598.48
567.52
3.37685
3.33263
3.22658
3.17102
3.60812
3.50208
3.39379
3.30949
3.6166
3.50396
3.39109
3.31015
3.65574
3.54485
3.42587
3.33983
3.70271
3.59081
3.46911
3.38053
3.75919
3.64618
3.52223
3.43167
3.82208
3.70882
3.58412
3.49208
3.88881
3.77666
3.65226
3.55983
3.95809
3.84817
3.72583
3.63401
4.02994
3.92326
3.80378
3.71357
4.10381
4.00118
3.8861
3.79815
4.17904
4.08122
3.97168
3.88717
4.25776
4.16439
4.05911
3.97769
4.3387
4.25043
4.15026
4.07273
4.42196
4.33918
4.245
4.17135
4.50686
4.42978
4.34136
4.27198
4.59222
4.52087
4.43897
4.37402
4.67816
4.61261
4.53679
4.47653
4.76413
4.70443
4.63522
4.57945
4.84955
4.79568
4.73256
4.68153
4.93364
4.88542
4.82893
4.78263
5.01685
4.97421
4.9237
4.88212
5.09888
5.06172
5.01739
4.98004
5.17903
5.14717
5.10825
5.07502
5.2561
5.22914
5.1958
5.16644
5.32983
5.30742
5.27887
5.25326
5.39959
5.38134
5.3575
5.33523
5.46477
5.45023
5.43038
5.41136
5.52479
5.51346
5.49755
5.48168
5.58038
5.57193
5.55943
5.54663
5.63306
5.62742
5.61823
5.60814
5.68479
5.68249
5.6764
5.66818
5.72119
5.72144
5.71951
5.71564
1209.66
1043.56
1024.15
1057.85
1069.2
949.096
1050.67
1082.9
1083.69
1089.41
1088.13
1085.59
1083.2
1074.1
1069.76
1067.49
1068.9
1069.7
1010.86
969.774
975.531
935.841
843.232
784.736
906.527
947.538
972.78
1001.69
1044.65
1067.74
1080.85
1083.66
1079.04
1074.29
1070.55
1071.83
1069.75
1071.2
760.416
763.941
770.573
753.672
733.019
737.415
721
750.893
751.143
766.112
790.869
820.735
847.11
860.56
870.621
880.215
893.519
907.214
910.992
768.92
768.192
766.092
753.361
732.482
732.689
748.353
742.77
735.937
728.303
719.916
711.332
702.908
695.344
688.941
682.591
681.475
721.449
734.683
771.96
768.691
765.728
762.069
760.469
755.197
748.655
741.857
734.883
727.397
719.369
711.061
702.774
694.814
687.513
681.311
676.336
677.183
712.437
772.246
769.075
766.049
763.029
759.181
753.992
747.933
741.379
734.468
727.103
719.218
710.915
702.589
694.499
686.931
680.227
675.464
673.35
672.486
772.295
769.154
766.063
762.722
758.725
753.646
747.769
741.392
734.61
727.431
719.681
711.234
703.519
689.465
658.408
609.688
548.751
487.562
457.283
772.48
769.862
766.848
763.432
759.393
742.895
713.399
678.214
638.444
594.044
534.332
436.814
330.077
235.815
169.314
110.063
60.2051
32.3171
36.3389
521.156
468.291
415.672
365.935
307.24
246.564
192.484
141.156
94.176
51.2319
18.9558
13.6778
26.435
26.3154
10.7745
3.54486
3.44477
4.16404
6.17562
3.17873
3.15761
6.2448
3.78333
3.1728
3.2413
3.38482
3.70781
5.36569
6.87836
6.89886
4.90002
3.56361
3.44679
3.35953
3.38441
3.40581
3.42115
3.42642
3.23688
3.20774
3.19599
3.20378
3.21806
3.27174
3.3993
3.53468
3.63229
3.63831
3.78438
4.21158
4.22355
3.54941
3.33809
3.37004
3.39347
3.40888
3.41471
3.24692
3.22526
3.21347
3.20771
3.36491
4.14478
4.14866
3.77655
3.21962
3.22016
3.63271
4.21336
3.77855
3.30218
3.33277
3.362
3.38498
3.39991
3.40601
3.27351
3.25287
3.23806
3.22479
3.31192
4.09245
4.19493
4.20548
3.54411
3.22373
3.23346
3.24827
3.27495
3.30652
3.33539
3.36196
3.38331
3.39817
3.40504
3.31184
3.29177
3.2736
3.25617
3.2398
3.23525
3.33519
3.37141
3.30774
3.24499
3.25731
3.2732
3.2949
3.32092
3.34723
3.37118
3.39137
3.40589
3.41299
3.36112
3.33972
3.3197
3.29915
3.28106
3.26628
3.25837
3.25819
3.26571
3.27637
3.28837
3.30338
3.32282
3.34569
3.36857
3.39031
3.40937
3.42347
3.43073
3.41968
3.39697
3.3753
3.35276
3.33327
3.31838
3.30974
3.30775
3.31111
3.3184
3.3283
3.34171
3.35904
3.3788
3.39923
3.41921
3.43719
3.45087
3.45833
3.48644
3.46234
3.43938
3.41538
3.39459
3.37857
3.36857
3.36428
3.36499
3.36941
3.37713
3.3885
3.40333
3.4206
3.43899
3.45744
3.47441
3.48768
3.49515
3.56015
3.53498
3.51097
3.48585
3.46388
3.4466
3.43472
3.42823
3.42645
3.4286
3.43441
3.44367
3.45611
3.47107
3.48756
3.50451
3.52039
3.53312
3.54051
3.64019
3.61399
3.58921
3.56321
3.54019
3.52168
3.50823
3.49968
3.49566
3.49569
3.49941
3.50657
3.51684
3.52966
3.54426
3.55962
3.57441
3.58645
3.59369
3.72548
3.69841
3.67321
3.64659
3.62268
3.60301
3.5881
3.57781
3.57181
3.56977
3.5714
3.57648
3.58467
3.59551
3.60828
3.62213
3.63574
3.64715
3.65401
3.81569
3.78721
3.76218
3.73526
3.71061
3.68993
3.6737
3.66182
3.65404
3.6501
3.64979
3.65289
3.65912
3.66805
3.6791
3.69141
3.70381
3.71443
3.72083
3.90912
3.88174
3.8561
3.82879
3.80362
3.78207
3.76467
3.75136
3.74196
3.73627
3.73412
3.73534
3.73968
3.74675
3.75602
3.76676
3.77783
3.7875
3.79339
4.007
3.98006
3.95428
3.92681
3.90123
3.87894
3.8605
3.84589
3.83496
3.8276
3.82367
3.82304
3.82549
3.8307
3.83819
3.84725
3.85693
3.86558
3.87091
4.10814
4.0816
4.05589
4.02842
4.00255
3.97966
3.9603
3.94449
3.93215
3.92319
3.91754
3.91509
3.91567
3.91901
3.92469
3.9321
3.94032
3.94787
3.95258
4.21187
4.18561
4.16011
4.13276
4.10674
4.08338
4.06322
4.04633
4.03267
4.02219
4.01487
4.01064
4.00938
4.01087
4.01475
4.02045
4.02719
4.03365
4.03776
4.31696
4.29131
4.26612
4.23903
4.213
4.18929
4.16846
4.1506
4.13572
4.12381
4.11488
4.10892
4.10585
4.10551
4.10758
4.11162
4.11689
4.12221
4.12571
4.42307
4.39796
4.37321
4.3465
4.32059
4.29667
4.27529
4.25658
4.24057
4.22731
4.21685
4.20921
4.20438
4.20223
4.20254
4.20489
4.20872
4.21294
4.21585
4.52919
4.5049
4.4807
4.45451
4.42884
4.40483
4.38303
4.36359
4.34657
4.33206
4.32014
4.31089
4.30434
4.30043
4.29899
4.29974
4.30214
4.30529
4.3076
4.63504
4.6115
4.58797
4.5624
4.5371
4.51314
4.49105
4.471
4.45309
4.43744
4.42416
4.41338
4.40518
4.39956
4.39644
4.39558
4.39663
4.39876
4.40055
4.73969
4.71718
4.6944
4.66956
4.64475
4.62096
4.59872
4.57821
4.55954
4.54288
4.52836
4.51615
4.50638
4.49913
4.49438
4.49201
4.49175
4.49288
4.49418
4.84297
4.82133
4.79937
4.77534
4.75113
4.72766
4.70542
4.68461
4.66535
4.64782
4.6322
4.61868
4.60746
4.59868
4.5924
4.58857
4.58705
4.58727
4.58812
4.94396
4.92329
4.90217
4.87905
4.85557
4.83257
4.81052
4.7896
4.76994
4.75174
4.73518
4.72051
4.70797
4.69778
4.69006
4.6849
4.6822
4.6815
4.68197
5.04216
5.0223
5.0021
4.97998
4.95738
4.93505
4.9134
4.89259
4.87277
4.85411
4.83682
4.82118
4.80748
4.79601
4.787
4.78059
4.77682
4.77529
4.77548
5.13643
5.11761
5.09842
5.07745
5.05592
5.03448
5.01347
4.99305
4.97333
4.95448
4.93671
4.92032
4.90564
4.89304
4.88286
4.87538
4.87066
4.86847
4.86837
5.22632
5.2085
5.19048
5.17084
5.1506
5.13032
5.11026
5.09053
5.07124
5.05251
5.03456
5.01767
5.00222
4.98865
4.97745
4.96898
4.96348
4.96077
4.96046
5.31092
5.2944
5.27773
5.25965
5.24099
5.22216
5.20338
5.18473
5.16624
5.14802
5.13024
5.11316
5.09719
5.08283
5.07068
5.06137
5.05522
5.05208
5.0517
5.39001
5.37491
5.35985
5.3436
5.3268
5.30978
5.29268
5.27551
5.25827
5.241
5.22383
5.20697
5.19078
5.17583
5.16286
5.15268
5.14591
5.14242
5.14212
5.46326
5.44996
5.43676
5.42263
5.40804
5.3932
5.37819
5.36296
5.34747
5.3317
5.31568
5.29955
5.2836
5.26835
5.25462
5.24353
5.236
5.23209
5.23174
5.53134
5.51992
5.50883
5.49712
5.48507
5.47281
5.46033
5.44755
5.43437
5.42071
5.40653
5.39183
5.37678
5.36173
5.34747
5.33521
5.32647
5.32177
5.32097
5.59551
5.586
5.5773
5.56833
5.55923
5.54997
5.54049
5.53068
5.52042
5.50959
5.49805
5.48572
5.47255
5.45864
5.44442
5.43097
5.42
5.41266
5.41076
5.65561
5.64782
5.64194
5.63612
5.63031
5.6244
5.61831
5.61193
5.60515
5.59783
5.58983
5.58099
5.57113
5.56005
5.54772
5.53445
5.52099
5.50717
5.50123
5.70762
5.70366
5.70133
5.69922
5.69715
5.69505
5.69288
5.69057
5.68808
5.68535
5.6823
5.67883
5.67482
5.67008
5.66437
5.65744
5.64884
5.63216
5.62991
)
;

boundaryField
{
    leftWall
    {
        type            fixedFluxPressure;
        gradient        uniform 0;
        value           nonuniform List<scalar> 
50
(
6093.1
6087.54
6082.01
6076.14
6070.41
6063.57
3848.59
1282.41
1284.27
1286.19
1290.54
1280.55
1137.42
918.371
747.123
733.81
431.837
8.52427
5.09252
5.04157
5.00173
5.03708
5.03828
5.03142
5.03316
5.04238
5.05628
5.07371
5.09403
5.11675
5.14142
5.16767
5.19519
5.22372
5.25302
5.28292
5.31324
5.34387
5.37468
5.40559
5.43647
5.46724
5.49776
5.5279
5.55748
5.5863
5.61415
5.64088
5.66664
5.70315
)
;
    }
    rightWall
    {
        type            fixedFluxPressure;
        gradient        uniform 0;
        value           nonuniform List<scalar> 
50
(
2981.27
2972.16
2721.31
2426.8
1301.84
832.059
915.919
983.707
1010.86
1071.2
910.992
734.683
712.437
672.486
457.283
36.3389
6.17562
3.42642
3.41471
3.40601
3.40504
3.41299
3.43073
3.45833
3.49515
3.54051
3.59369
3.65401
3.72083
3.79339
3.87091
3.95258
4.03776
4.12571
4.21585
4.3076
4.40055
4.49418
4.58812
4.68197
4.77548
4.86837
4.96046
5.0517
5.14212
5.23174
5.32097
5.41076
5.50123
5.62991
)
;
    }
    lowerWall
    {
        type            fixedFluxPressure;
        gradient        uniform 0;
        value           nonuniform List<scalar> 
62
(
6093.1
6110.84
6133.34
6158.35
6181.28
6197.98
6205.68
6202.84
6188.69
6163.15
6126.45
6081.18
6028.23
5969.59
5907.18
5843.61
5782.14
5726.12
5678.8
5643.26
5622.01
5617.34
5626.51
5626.51
5629.06
5629.33
5624.83
5612.95
4954.36
1788.28
1180.86
1143.51
1236.26
1488.9
1400.42
2431.14
2170.88
1624.88
1660.61
1471.19
1300.47
1073.62
1125.65
2431.14
2440.53
2448.84
2451.69
2465.55
2503.85
2558.84
2537.62
2594.95
2698.98
2802.24
2873.9
2906.58
2964.6
3080.39
3104.74
3087.22
3042.47
2981.27
)
;
    }
    atmosphere
    {
        type            prghTotalPressure;
        rho             rho;
        psi             none;
        gamma           1;
        p0              uniform 0;
        value           nonuniform List<scalar> 
46
(
5.72904
5.72904
5.72904
5.72904
5.72904
5.72904
5.72904
5.72904
5.72904
5.72904
5.72904
5.72904
5.72904
5.72904
5.72904
5.72904
5.72904
5.72904
5.72904
5.72904
5.72904
5.72904
5.72904
5.72904
5.72904
5.72904
5.72904
5.72904
5.72904
5.72904
5.72904
5.72904
5.72904
5.72904
5.72904
5.72904
5.72904
5.72904
5.72904
5.72904
5.72904
5.72904
5.72904
5.72904
5.72904
5.72845
)
;
        rho             rho;
    }
    defaultFaces
    {
        type            empty;
    }
}


// ************************************************************************* //
