/*--------------------------------*- C++ -*----------------------------------*\
  =========                 |
  \\      /  F ield         | OpenFOAM: The Open Source CFD Toolbox
   \\    /   O peration     | Website:  https://openfoam.org
    \\  /    A nd           | Version:  13
     \\/     M anipulation  |
\*---------------------------------------------------------------------------*/
FoamFile
{
    format      ascii;
    class       surfaceScalarField;
    location    "2.3";
    object      phi;
}
// * * * * * * * * * * * * * * * * * * * * * * * * * * * * * * * * * * * * * //

dimensions      [0 3 -1 0 0 0 0];

internalField   nonuniform List<scalar> 
4432
(
8.6575e-07
-8.65762e-07
1.82764e-06
-9.61903e-07
3.12081e-06
-1.29318e-06
4.58618e-06
-1.46538e-06
6.06524e-06
-1.47908e-06
7.43619e-06
-1.37096e-06
8.61522e-06
-1.17904e-06
9.54905e-06
-9.33838e-07
1.02053e-05
-6.56213e-07
1.05629e-05
-3.57682e-07
1.06074e-05
-4.44463e-08
1.03675e-05
2.39869e-07
9.86814e-06
4.99362e-07
9.1441e-06
7.24044e-07
8.23131e-06
9.12792e-07
7.17409e-06
1.05723e-06
6.02294e-06
1.15116e-06
4.82729e-06
1.19566e-06
3.62903e-06
1.19827e-06
2.4678e-06
1.16124e-06
1.41186e-06
1.05595e-06
6.5417e-07
7.57688e-07
6.54174e-07
9.17077e-07
-1.78289e-06
2.07185e-06
-2.11671e-06
3.40906e-06
-2.63042e-06
4.85019e-06
-2.90654e-06
6.28088e-06
-2.9098e-06
7.60347e-06
-2.69358e-06
8.74564e-06
-2.32123e-06
9.65776e-06
-1.84597e-06
1.03039e-05
-1.30239e-06
1.0659e-05
-7.12714e-07
1.07198e-05
-1.05279e-07
1.04963e-05
4.6335e-07
1.00261e-05
9.69608e-07
9.34056e-06
1.40956e-06
8.47263e-06
1.78072e-06
7.46605e-06
2.06382e-06
6.37073e-06
2.24648e-06
5.23083e-06
2.33556e-06
4.07627e-06
2.35282e-06
2.92513e-06
2.31238e-06
1.80907e-06
2.172e-06
7.83657e-07
1.7831e-06
1.4378e-06
1.03677e-06
-2.81967e-06
2.25319e-06
-3.33314e-06
3.55272e-06
-3.92996e-06
4.91488e-06
-4.26871e-06
6.26015e-06
-4.25507e-06
7.50976e-06
-3.94319e-06
8.6004e-06
-3.41188e-06
9.4852e-06
-2.73079e-06
1.01275e-05
-1.94465e-06
1.04984e-05
-1.08362e-06
1.05862e-05
-1.93157e-07
1.04029e-05
6.46724e-07
9.98207e-06
1.39041e-06
9.35399e-06
2.03764e-06
8.55003e-06
2.58468e-06
7.60936e-06
3.0045e-06
6.58113e-06
3.2747e-06
5.50739e-06
3.40931e-06
4.41408e-06
3.44612e-06
3.30966e-06
3.41681e-06
2.19141e-06
3.29026e-06
1.03678e-06
2.93772e-06
2.47458e-06
1.15812e-06
-3.97782e-06
2.37749e-06
-4.55253e-06
3.60702e-06
-5.1595e-06
4.8784e-06
-5.5401e-06
6.13378e-06
-5.51045e-06
7.30902e-06
-5.11843e-06
8.34818e-06
-4.45104e-06
9.20769e-06
-3.5903e-06
9.8506e-06
-2.58755e-06
1.02449e-05
-1.47789e-06
1.03702e-05
-3.1848e-07
1.0236e-05
7.80934e-07
9.87481e-06
1.75159e-06
9.31508e-06
2.59737e-06
8.58053e-06
3.31923e-06
7.7104e-06
3.87462e-06
6.75263e-06
4.23246e-06
5.74739e-06
4.41455e-06
4.71902e-06
4.47448e-06
3.67005e-06
4.46577e-06
2.57222e-06
4.38807e-06
1.33795e-06
4.17198e-06
3.81252e-06
1.29745e-06
-5.27526e-06
2.46945e-06
-5.72452e-06
3.61002e-06
-6.30007e-06
4.78343e-06
-6.71351e-06
5.94674e-06
-6.67376e-06
7.0462e-06
-6.21789e-06
8.03219e-06
-5.43703e-06
8.86512e-06
-4.42323e-06
9.50898e-06
-3.23141e-06
9.92878e-06
-1.89769e-06
1.00969e-05
-4.86648e-07
1.00175e-05
8.60419e-07
9.71647e-06
2.05257e-06
9.2224e-06
3.09144e-06
8.56231e-06
3.97931e-06
7.76898e-06
4.66794e-06
6.8863e-06
5.11513e-06
5.95272e-06
5.34812e-06
4.99105e-06
5.43613e-06
4.00139e-06
5.45542e-06
2.93568e-06
5.45376e-06
1.63362e-06
5.47403e-06
5.44615e-06
1.44124e-06
-6.71649e-06
2.53026e-06
-6.81349e-06
3.57958e-06
-7.34933e-06
4.65949e-06
-7.79337e-06
5.73196e-06
-7.74619e-06
6.7499e-06
-7.23578e-06
7.6752e-06
-6.36229e-06
8.47109e-06
-5.2191e-06
9.10437e-06
-3.86467e-06
9.54204e-06
-2.33536e-06
9.75042e-06
-6.95023e-07
9.72592e-06
8.84911e-07
9.49592e-06
2.28254e-06
9.07602e-06
3.51131e-06
8.48548e-06
4.56981e-06
7.77602e-06
5.37735e-06
6.98345e-06
5.90766e-06
6.13395e-06
6.19757e-06
5.24838e-06
6.32165e-06
4.32824e-06
6.37552e-06
3.3219e-06
6.46006e-06
2.05847e-06
6.73743e-06
7.50459e-06
1.72085e-06
-8.43731e-06
2.74172e-06
-7.83431e-06
3.69342e-06
-8.30095e-06
4.61455e-06
-8.71442e-06
5.53726e-06
-8.66883e-06
6.43974e-06
-8.13819e-06
7.2748e-06
-7.1973e-06
8.007e-06
-5.95124e-06
8.60149e-06
-4.45913e-06
9.03286e-06
-2.76671e-06
9.27714e-06
-9.39301e-07
9.31805e-06
8.43987e-07
9.15965e-06
2.4409e-06
8.82251e-06
3.8484e-06
8.32672e-06
5.06553e-06
7.74234e-06
5.96165e-06
7.07928e-06
6.57064e-06
6.36e-06
6.91676e-06
5.59838e-06
7.08319e-06
4.79852e-06
7.1753e-06
3.90894e-06
7.34957e-06
2.7279e-06
7.9184e-06
1.02325e-05
2.11756e-06
-1.05549e-05
3.05593e-06
-8.77265e-06
3.8219e-06
-9.06689e-06
4.51917e-06
-9.41164e-06
5.25677e-06
-9.40636e-06
5.99177e-06
-8.87312e-06
6.69807e-06
-7.90354e-06
7.333e-06
-6.58613e-06
7.85578e-06
-4.98189e-06
8.24135e-06
-3.15227e-06
8.47724e-06
-1.17519e-06
8.52574e-06
7.95475e-07
8.39166e-06
2.57495e-06
8.13568e-06
4.10435e-06
7.79912e-06
5.40205e-06
7.42314e-06
6.3376e-06
7.04194e-06
6.9518e-06
6.65933e-06
7.29933e-06
6.27473e-06
7.46775e-06
5.89075e-06
7.55925e-06
5.44239e-06
7.79792e-06
4.65332e-06
8.70746e-06
1.48857e-05
6.80935e-07
-6.80933e-07
1.57205e-06
-8.91116e-07
2.12155e-06
-5.49494e-07
1.94013e-06
1.81413e-07
1.01047e-06
9.29658e-07
1.94731e-08
9.90995e-07
-1.17514e-06
1.19461e-06
-3.45122e-06
2.27607e-06
-5.31239e-06
1.86117e-06
-6.31989e-06
1.0075e-06
-6.41602e-06
9.61273e-08
-6.15794e-06
-2.58076e-07
-7.55135e-06
1.39341e-06
-8.49992e-06
9.48565e-07
-7.1767e-06
-1.32322e-06
-5.38696e-06
-1.78975e-06
-3.12835e-06
-2.25862e-06
-6.47321e-07
-2.48104e-06
-6.47323e-07
1.31557e-06
-1.99648e-06
2.35326e-06
-1.92879e-06
2.7415e-06
-9.37732e-07
2.75392e-06
1.68997e-07
2.44243e-06
1.24114e-06
8.96089e-07
2.53732e-06
-1.15134e-06
3.24203e-06
-2.48807e-06
3.61278e-06
-3.87002e-06
3.24311e-06
-5.17363e-06
2.31108e-06
-6.22043e-06
1.14291e-06
-6.89044e-06
4.11932e-07
-6.96654e-06
1.4695e-06
-6.70797e-06
6.89999e-07
-6.28658e-06
-1.74461e-06
-5.10899e-06
-2.96735e-06
-3.40766e-06
-3.95994e-06
-1.3386e-06
-4.55009e-06
-1.98592e-06
1.24655e-06
-3.24303e-06
2.49342e-06
-3.17566e-06
2.93891e-06
-1.38322e-06
3.53565e-06
-4.27753e-07
3.67183e-06
1.10496e-06
1.90736e-06
4.30179e-06
-1.51452e-07
5.30083e-06
-1.33455e-06
4.79586e-06
-2.57722e-06
4.48576e-06
-4.37035e-06
4.1042e-06
-6.10876e-06
2.8813e-06
-7.09193e-06
1.39509e-06
-6.78888e-06
1.16646e-06
-6.31924e-06
2.20354e-07
-5.73774e-06
-2.3261e-06
-4.66402e-06
-4.04107e-06
-3.36534e-06
-5.25862e-06
-2.27347e-06
-5.64195e-06
-4.25939e-06
1.15925e-06
-4.40225e-06
2.06311e-06
-4.07952e-06
2.70359e-06
-2.02368e-06
3.29377e-06
-1.01793e-06
3.68337e-06
7.15366e-07
2.80504e-06
5.18011e-06
1.48035e-06
6.62553e-06
5.43813e-07
5.7324e-06
-3.42424e-07
5.37198e-06
-3.06954e-06
6.83129e-06
-5.46965e-06
5.28138e-06
-7.03265e-06
2.95805e-06
-6.68505e-06
8.18831e-07
-5.90615e-06
-5.58536e-07
-5.18133e-06
-3.05091e-06
-4.12821e-06
-5.09416e-06
-2.671e-06
-6.7158e-06
-1.97912e-06
-6.3338e-06
-6.23848e-06
1.78455e-06
-6.18679e-06
1.98046e-06
-4.27542e-06
2.47183e-06
-2.51505e-06
2.12757e-06
-6.73673e-07
2.18473e-06
6.58206e-07
2.53681e-06
4.82805e-06
2.56337e-06
6.59898e-06
2.3889e-06
5.90688e-06
2.39902e-06
5.36188e-06
1.74466e-07
9.05584e-06
-2.4582e-06
7.91402e-06
-5.63827e-06
6.1381e-06
-6.07673e-06
1.25727e-06
-5.32837e-06
-1.30691e-06
-4.77983e-06
-3.59943e-06
-3.47542e-06
-6.39854e-06
-1.67463e-06
-8.51655e-06
4.08711e-07
-8.4171e-06
-5.82976e-06
2.84576e-06
-9.03255e-06
2.59829e-06
-4.02793e-06
2.35714e-06
-2.27389e-06
1.5474e-06
1.36074e-07
1.17557e-06
1.03004e-06
1.81919e-06
4.18444e-06
2.55148e-06
5.86671e-06
2.61847e-06
5.8399e-06
2.40779e-06
5.57258e-06
1.7187e-06
9.74496e-06
7.21245e-07
8.91149e-06
-1.25219e-06
8.11152e-06
-4.46727e-06
4.47234e-06
-4.68497e-06
-1.0892e-06
-4.67679e-06
-3.60759e-06
-3.24326e-06
-7.83205e-06
-1.34916e-06
-1.04106e-05
3.11479e-06
-1.28811e-05
-2.71497e-06
4.06557e-06
-1.30981e-05
3.66968e-06
-3.63204e-06
2.64617e-06
-1.25037e-06
1.76552e-06
1.01672e-06
9.25899e-07
1.86967e-06
1.29422e-06
3.81612e-06
1.91889e-06
5.24204e-06
2.04865e-06
5.71016e-06
1.55564e-06
6.06559e-06
1.74998e-06
9.55065e-06
1.53819e-06
9.12332e-06
1.4636e-06
8.18615e-06
-6.30454e-07
6.56641e-06
-3.32309e-06
1.60344e-06
-3.85951e-06
-3.07117e-06
-3.26643e-06
-8.42513e-06
-1.63351e-06
-1.20436e-05
9.12225e-07
-1.54268e-05
-1.80279e-06
5.15421e-06
-1.82523e-05
4.61828e-06
-3.09611e-06
3.37165e-06
-3.73903e-09
2.29746e-06
2.09092e-06
1.19914e-06
2.96799e-06
7.89868e-07
4.22539e-06
9.92322e-07
5.03959e-06
1.18635e-06
5.51613e-06
9.09275e-07
6.34268e-06
1.29141e-06
9.16853e-06
1.40293e-06
9.01182e-06
1.3008e-06
8.28832e-06
5.74219e-07
7.29301e-06
-1.14516e-06
3.32283e-06
-2.16187e-06
-2.05449e-06
-2.37567e-06
-8.21135e-06
-1.67811e-06
-1.27412e-05
-5.08904e-07
-1.65961e-05
-2.31172e-06
3.22283e-06
-1.37777e-05
5.51373e-06
-1.10636e-05
6.67713e-06
-1.02303e-05
7.27546e-06
-1.001e-05
7.70613e-06
-9.83701e-06
8.20122e-06
-9.36818e-06
8.76679e-06
-8.46909e-06
9.34948e-06
-7.1688e-06
9.93407e-06
-5.56647e-06
1.05005e-05
-3.71873e-06
1.1046e-05
-1.72068e-06
1.15547e-05
2.86813e-07
1.20023e-05
2.12734e-06
1.24235e-05
3.68306e-06
1.2918e-05
4.90758e-06
1.34248e-05
5.83087e-06
1.39349e-05
6.44172e-06
1.44189e-05
6.81537e-06
1.48494e-05
7.03735e-06
1.52902e-05
7.11848e-06
1.57074e-05
7.38075e-06
1.63432e-05
8.07175e-06
9.18369e-06
2.20453e-05
-1.20883e-07
-1.36568e-05
1.63574e-07
-1.13481e-05
-9.34397e-08
-9.97338e-06
-5.86132e-07
-9.51735e-06
-9.93818e-07
-9.42943e-06
-1.09167e-06
-9.27043e-06
-8.93562e-07
-8.66729e-06
-4.2682e-07
-7.63562e-06
3.0074e-07
-6.29408e-06
1.26258e-06
-4.68059e-06
2.42387e-06
-2.88198e-06
3.71698e-06
-1.00629e-06
5.05003e-06
7.94313e-07
6.42592e-06
2.30721e-06
7.8478e-06
3.48573e-06
9.23972e-06
4.439e-06
1.05715e-05
5.10998e-06
1.18263e-05
5.56061e-06
1.28662e-05
5.99754e-06
1.3901e-05
6.08365e-06
1.47994e-05
6.48239e-06
1.59962e-05
6.875e-06
6.61421e-06
1.85657e-05
-2.50717e-06
-1.11497e-05
-4.67531e-06
-9.17997e-06
-6.5678e-06
-8.08092e-06
-8.12775e-06
-7.95746e-06
-9.13408e-06
-8.42316e-06
-9.50979e-06
-8.89478e-06
-9.39217e-06
-8.78497e-06
-8.88275e-06
-8.14508e-06
-7.97317e-06
-7.2037e-06
-6.75135e-06
-5.90243e-06
-5.26451e-06
-4.36882e-06
-3.57946e-06
-2.69134e-06
-1.81747e-06
-9.67683e-07
-1.35116e-08
5.03257e-07
1.85774e-06
1.61449e-06
3.63642e-06
2.66032e-06
5.23811e-06
3.50828e-06
6.6861e-06
4.11262e-06
7.94381e-06
4.73982e-06
9.08145e-06
4.946e-06
1.00824e-05
5.4814e-06
1.08833e-05
6.07415e-06
6.15155e-06
1.13459e-05
-4.52369e-06
-6.62594e-06
-8.69182e-06
-5.01182e-06
-1.21765e-05
-4.59627e-06
-1.47922e-05
-5.34169e-06
-1.64726e-05
-6.74283e-06
-1.71658e-05
-8.20163e-06
-1.72496e-05
-8.70118e-06
-1.68042e-05
-8.59046e-06
-1.5836e-05
-8.1719e-06
-1.45667e-05
-7.17177e-06
-1.30357e-05
-5.89975e-06
-1.13303e-05
-4.39676e-06
-9.52987e-06
-2.76813e-06
-7.65271e-06
-1.37392e-06
-5.71629e-06
-3.21948e-07
-3.88574e-06
8.29744e-07
-2.33124e-06
1.95376e-06
-7.95575e-07
2.57692e-06
7.43063e-07
3.20116e-06
1.94046e-06
3.74858e-06
3.04952e-06
4.37232e-06
3.69363e-06
5.43002e-06
5.87536e-06
3.96981e-06
-6.84556e-06
2.19646e-07
-1.33344e-05
1.47704e-06
-1.8212e-05
2.81413e-07
-2.16004e-05
-1.95332e-06
-2.37649e-05
-4.57826e-06
-2.49956e-05
-6.97093e-06
-2.56486e-05
-8.04818e-06
-2.55493e-05
-8.68978e-06
-2.47601e-05
-8.96109e-06
-2.36204e-05
-8.31146e-06
-2.23232e-05
-7.19699e-06
-2.08285e-05
-5.89143e-06
-1.8973e-05
-4.62372e-06
-1.6954e-05
-3.39292e-06
-1.49504e-05
-2.32555e-06
-1.30188e-05
-1.10192e-06
-1.11134e-05
4.83373e-08
-9.19216e-06
6.55713e-07
-7.31081e-06
1.31979e-06
-5.61012e-06
2.04788e-06
-4.08335e-06
2.84554e-06
-2.46552e-06
3.81219e-06
4.03642e-06
-6.26581e-07
-1.16759e-05
1.18956e-05
-2.02181e-05
1.00193e-05
-2.62254e-05
6.28881e-06
-3.01831e-05
2.00441e-06
-3.26605e-05
-2.10086e-06
-3.44803e-05
-5.1511e-06
-3.55938e-05
-6.93471e-06
-3.57123e-05
-8.57128e-06
-3.50129e-05
-9.66045e-06
-3.37965e-05
-9.52788e-06
-3.23245e-05
-8.66905e-06
-3.05206e-05
-7.69539e-06
-2.82812e-05
-6.86314e-06
-2.57904e-05
-5.8837e-06
-2.32799e-05
-4.83606e-06
-2.07002e-05
-3.68168e-06
-1.80351e-05
-2.6168e-06
-1.55866e-05
-1.79279e-06
-1.33099e-05
-9.56894e-07
-1.11389e-05
-1.23106e-07
-9.01863e-06
7.25271e-07
-6.68631e-06
1.47987e-06
1.64975e-06
-4.29963e-06
-1.55629e-05
2.74586e-05
-2.57235e-05
2.01799e-05
-3.3192e-05
1.37572e-05
-3.80788e-05
6.89115e-06
-4.10567e-05
8.77017e-07
-4.3107e-05
-3.10074e-06
-4.40199e-05
-6.0218e-06
-4.37822e-05
-8.80901e-06
-4.26899e-05
-1.07528e-05
-4.10721e-05
-1.11457e-05
-3.91064e-05
-1.06348e-05
-3.68215e-05
-9.98026e-06
-3.43271e-05
-9.35756e-06
-3.15839e-05
-8.627e-06
-2.87051e-05
-7.71484e-06
-2.57374e-05
-6.6493e-06
-2.27931e-05
-5.56116e-06
-2.00408e-05
-4.54505e-06
-1.7419e-05
-3.57873e-06
-1.48524e-05
-2.68973e-06
-1.22756e-05
-1.85144e-06
-9.66827e-06
-1.1275e-06
-8.09904e-07
-7.20862e-06
-1.17327e-05
3.9191e-05
-2.44094e-05
3.28559e-05
-3.46808e-05
2.40282e-05
-4.10937e-05
1.33038e-05
-4.47181e-05
4.50128e-06
-4.7188e-05
-6.30878e-07
-4.85905e-05
-4.61937e-06
-4.84437e-05
-8.95584e-06
-4.70592e-05
-1.21374e-05
-4.51428e-05
-1.3062e-05
-4.30227e-05
-1.27547e-05
-4.06465e-05
-1.23564e-05
-3.79946e-05
-1.20094e-05
-3.50778e-05
-1.15437e-05
-3.2025e-05
-1.07676e-05
-2.8907e-05
-9.76729e-06
-2.58106e-05
-8.65751e-06
-2.28377e-05
-7.51788e-06
-1.99962e-05
-6.42018e-06
-1.71703e-05
-5.51557e-06
-1.43156e-05
-4.70612e-06
-1.15315e-05
-3.91161e-06
-3.42791e-06
-8.91345e-06
-3.49134e-06
4.26813e-05
-1.46692e-05
4.4032e-05
-2.83307e-05
3.76879e-05
-3.67693e-05
2.17414e-05
-4.2699e-05
1.04304e-05
-4.7504e-05
4.17395e-06
-5.01609e-05
-1.96249e-06
-5.03455e-05
-8.77127e-06
-4.89443e-05
-1.35385e-05
-4.69885e-05
-1.50178e-05
-4.47452e-05
-1.4998e-05
-4.23558e-05
-1.47458e-05
-3.97372e-05
-1.46278e-05
-3.68475e-05
-1.44331e-05
-3.38004e-05
-1.38145e-05
-3.06778e-05
-1.28897e-05
-2.75202e-05
-1.18149e-05
-2.44389e-05
-1.05989e-05
-2.15008e-05
-9.35816e-06
-1.85409e-05
-8.47532e-06
-1.55627e-05
-7.68411e-06
-1.28051e-05
-6.66904e-06
-5.94119e-06
-1.02919e-05
-1.82067e-05
6.08767e-05
-1.16029e-05
3.74239e-05
-1.70734e-05
4.31561e-05
-2.55942e-05
3.02607e-05
-3.4517e-05
1.93524e-05
-4.11287e-05
1.07853e-05
-4.50279e-05
1.93648e-06
-4.71788e-05
-6.62056e-06
-4.81624e-05
-1.25548e-05
-4.72881e-05
-1.58918e-05
-4.50285e-05
-1.7257e-05
-4.27578e-05
-1.70154e-05
-4.03055e-05
-1.70794e-05
-3.75827e-05
-1.71553e-05
-3.48114e-05
-1.65853e-05
-3.17864e-05
-1.59141e-05
-2.85924e-05
-1.50084e-05
-2.54178e-05
-1.37731e-05
-2.24247e-05
-1.23508e-05
-1.95683e-05
-1.13312e-05
-1.63432e-05
-1.09088e-05
-1.32811e-05
-9.73067e-06
-8.68074e-06
-1.05406e-05
1.51012e-05
4.57717e-05
1.01509e-05
4.2373e-05
4.42536e-06
4.88814e-05
-2.83074e-06
3.75167e-05
-1.01944e-05
2.67158e-05
-1.60653e-05
1.66558e-05
-2.05725e-05
6.44347e-06
-2.40672e-05
-3.12596e-06
-2.61268e-05
-1.04952e-05
-2.72474e-05
-1.47708e-05
-2.93539e-05
-1.515e-05
-3.27618e-05
-1.3607e-05
-3.60106e-05
-1.38297e-05
-3.69305e-05
-1.62345e-05
-3.49523e-05
-1.85627e-05
-3.20229e-05
-1.88429e-05
-2.89586e-05
-1.80719e-05
-2.5809e-05
-1.6922e-05
-2.25185e-05
-1.56406e-05
-1.99159e-05
-1.39331e-05
-1.99537e-05
-1.08702e-05
-2.12997e-05
-8.38336e-06
-6.71447e-06
-2.32662e-05
2.31614e-05
2.26174e-05
1.14144e-05
5.41224e-05
7.76818e-06
5.25293e-05
4.04789e-06
4.12378e-05
2.87562e-07
3.04764e-05
-3.25747e-06
2.02009e-05
-6.77356e-06
9.95951e-06
-1.04966e-05
5.97032e-07
-1.42136e-05
-6.77843e-06
-1.76969e-05
-1.12878e-05
-2.06905e-05
-1.21568e-05
-2.39257e-05
-1.03728e-05
-2.61638e-05
-1.1592e-05
-2.76513e-05
-1.47473e-05
-2.80656e-05
-1.81485e-05
-2.76655e-05
-1.92429e-05
-2.68351e-05
-1.89023e-05
-2.58863e-05
-1.78709e-05
-2.51136e-05
-1.64133e-05
-2.47774e-05
-1.42692e-05
-2.52728e-05
-1.03747e-05
-2.59335e-05
-7.72322e-06
-5.76982e-06
-2.68793e-05
-7.8947e-06
3.05146e-05
-2.14887e-06
4.83779e-05
3.10698e-06
4.72743e-05
5.03093e-06
3.93144e-05
5.09876e-06
3.04088e-05
3.78113e-06
2.15186e-05
1.05262e-06
1.2688e-05
-2.83903e-06
4.48858e-06
-7.12081e-06
-2.49688e-06
-1.1429e-05
-6.97995e-06
-1.49243e-05
-8.6619e-06
-1.65175e-05
-8.78013e-06
-1.83855e-05
-9.72496e-06
-1.98829e-05
-1.32508e-05
-2.18262e-05
-1.6206e-05
-2.34623e-05
-1.76075e-05
-2.46332e-05
-1.77322e-05
-2.55648e-05
-1.694e-05
-2.63694e-05
-1.56094e-05
-2.70604e-05
-1.35786e-05
-2.69891e-05
-1.04468e-05
-2.73395e-05
-7.37364e-06
-6.34307e-06
-2.67675e-05
-5.12045e-06
3.56365e-05
-2.81521e-07
4.35401e-05
5.05229e-06
4.19412e-05
8.13481e-06
3.62323e-05
9.23591e-06
2.93079e-05
8.68265e-06
2.20719e-05
6.585e-06
1.47856e-05
3.23326e-06
7.84019e-06
-6.55026e-07
1.3912e-06
-4.59826e-06
-3.03702e-06
-7.79561e-06
-5.46494e-06
-9.91577e-06
-6.66043e-06
-1.14159e-05
-8.22533e-06
-1.35693e-05
-1.10979e-05
-1.61343e-05
-1.36415e-05
-1.86259e-05
-1.51164e-05
-2.08208e-05
-1.55379e-05
-2.26611e-05
-1.51002e-05
-2.42625e-05
-1.40084e-05
-2.55848e-05
-1.22566e-05
-2.6178e-05
-9.85387e-06
-2.59346e-05
-7.61778e-06
-6.33001e-06
-2.59489e-05
-9.40046e-07
3.65774e-05
3.24152e-06
3.93592e-05
7.70118e-06
3.7482e-05
1.07022e-05
3.32315e-05
1.20892e-05
2.7921e-05
1.20065e-05
2.21547e-05
1.05782e-05
1.62138e-05
8.06809e-06
1.03502e-05
4.75035e-06
4.70877e-06
1.41196e-06
3.01137e-07
-1.50546e-06
-2.54779e-06
-3.80627e-06
-4.35991e-06
-5.86901e-06
-6.16291e-06
-8.33364e-06
-8.63357e-06
-1.1125e-05
-1.08505e-05
-1.39257e-05
-1.23161e-05
-1.65298e-05
-1.29341e-05
-1.88364e-05
-1.2794e-05
-2.08193e-05
-1.20257e-05
-2.23863e-05
-1.06897e-05
-2.33086e-05
-8.93188e-06
-2.36282e-05
-7.29859e-06
-6.22463e-06
-2.37348e-05
1.43127e-06
3.51463e-05
5.35896e-06
3.54316e-05
9.21446e-06
3.36266e-05
1.19939e-05
3.04521e-05
1.3516e-05
2.6399e-05
1.38414e-05
2.18292e-05
1.30736e-05
1.69816e-05
1.13664e-05
1.20573e-05
8.7928e-06
7.28224e-06
5.93348e-06
3.16031e-06
3.21168e-06
1.7385e-07
7.95219e-07
-1.94362e-06
-1.43973e-06
-3.92813e-06
-3.94998e-06
-6.12351e-06
-6.70408e-06
-8.09662e-06
-9.50736e-06
-9.51306e-06
-1.21781e-05
-1.02636e-05
-1.45932e-05
-1.03791e-05
-1.6678e-05
-9.94109e-06
-1.83375e-05
-9.03025e-06
-1.94491e-05
-7.82044e-06
-2.00374e-05
-6.71064e-06
-5.92715e-06
-2.0336e-05
2.49615e-06
3.26502e-05
6.06363e-06
3.18642e-05
9.42739e-06
3.02628e-05
1.20028e-05
2.78767e-05
1.36262e-05
2.47754e-05
1.42993e-05
2.11561e-05
1.40748e-05
1.72061e-05
1.30234e-05
1.31085e-05
1.12333e-05
9.0723e-06
8.92594e-06
5.46754e-06
6.51423e-06
2.58545e-06
4.25472e-06
3.15783e-07
2.06418e-06
-1.73769e-06
-3.05564e-07
-3.75386e-06
-2.86665e-06
-5.53564e-06
-5.48709e-06
-6.89274e-06
-8.01433e-06
-7.73654e-06
-1.03296e-05
-8.064e-06
-1.23455e-05
-7.92527e-06
-1.39734e-05
-7.40227e-06
-1.51434e-05
-6.65052e-06
-1.58827e-05
-5.97167e-06
-5.49838e-06
-1.63125e-05
2.69351e-06
2.99564e-05
5.81715e-06
2.87404e-05
8.73329e-06
2.73466e-05
1.11029e-05
2.5507e-05
1.27754e-05
2.31029e-05
1.37059e-05
2.02255e-05
1.38972e-05
1.70147e-05
1.33765e-05
1.36291e-05
1.21942e-05
1.02546e-05
1.05197e-05
7.14193e-06
8.62164e-06
4.48343e-06
6.69526e-06
2.2421e-06
4.72705e-06
2.30468e-07
2.61141e-06
-1.63827e-06
3.48973e-07
-3.27327e-06
-1.97122e-06
-4.57262e-06
-4.23189e-06
-5.47596e-06
-6.32558e-06
-5.97041e-06
-8.16656e-06
-6.08433e-06
-9.68307e-06
-5.88561e-06
-1.08269e-05
-5.50669e-06
-1.16143e-05
-5.18452e-06
-4.98243e-06
-1.21312e-05
2.41638e-06
2.754e-05
5.0568e-06
2.60998e-05
7.55948e-06
2.48438e-05
9.70978e-06
2.33566e-05
1.1369e-05
2.14436e-05
1.24637e-05
1.91307e-05
1.2963e-05
1.65153e-05
1.28669e-05
1.3725e-05
1.22104e-05
1.0911e-05
1.11065e-05
8.24582e-06
9.73121e-06
5.85862e-06
8.21805e-06
3.75522e-06
6.5873e-06
1.86117e-06
4.81143e-06
1.37567e-07
2.91252e-06
-1.3744e-06
9.58352e-07
-2.61849e-06
-9.64759e-07
-3.55292e-06
-2.77027e-06
-4.16497e-06
-4.37989e-06
-4.47473e-06
-5.72944e-06
-4.5359e-06
-6.78543e-06
-4.45066e-06
-7.5575e-06
-4.41268e-06
-4.44408e-06
-8.09676e-06
1.96832e-06
2.55713e-05
4.13134e-06
2.39366e-05
6.24915e-06
2.27259e-05
8.16552e-06
2.14402e-05
9.75365e-06
1.98554e-05
1.09274e-05
1.79569e-05
1.16369e-05
1.58058e-05
1.18648e-05
1.34971e-05
1.16306e-05
1.11452e-05
1.10055e-05
8.87082e-06
1.00992e-05
6.76488e-06
9.0028e-06
4.85156e-06
7.75278e-06
3.11116e-06
6.35734e-06
1.53297e-06
4.84669e-06
1.36228e-07
3.27479e-06
-1.04664e-06
1.71016e-06
-1.98834e-06
2.24221e-07
-2.6791e-06
-1.11866e-06
-3.13185e-06
-2.27106e-06
-3.38334e-06
-3.20408e-06
-3.51761e-06
-3.91312e-06
-3.70379e-06
-3.92198e-06
-4.43612e-06
1.52203e-06
2.40492e-05
3.25387e-06
2.22046e-05
5.02016e-06
2.09595e-05
6.69758e-06
1.97627e-05
8.17203e-06
1.83809e-05
9.35551e-06
1.67734e-05
1.01897e-05
1.49716e-05
1.06463e-05
1.30404e-05
1.07302e-05
1.10613e-05
1.04824e-05
9.11855e-06
9.96976e-06
7.27749e-06
9.25362e-06
5.56766e-06
8.37192e-06
3.99283e-06
7.34891e-06
2.55595e-06
6.21506e-06
1.27005e-06
5.01411e-06
1.54267e-07
3.79903e-06
-7.73306e-07
2.6256e-06
-1.50573e-06
1.54512e-06
-2.05138e-06
6.0298e-07
-2.44102e-06
-1.79687e-07
-2.73489e-06
-8.13319e-07
-3.07032e-06
-3.46252e-06
-1.2736e-06
1.1486e-06
2.29003e-05
2.52095e-06
2.08322e-05
3.98222e-06
1.94981e-05
5.43159e-06
1.83132e-05
6.7695e-06
1.70429e-05
7.91319e-06
1.56296e-05
8.80315e-06
1.40816e-05
9.40549e-06
1.2438e-05
9.71352e-06
1.07532e-05
9.74756e-06
9.08447e-06
9.54652e-06
7.4785e-06
9.15148e-06
5.96267e-06
8.59506e-06
4.54922e-06
7.90429e-06
3.2467e-06
7.10808e-06
2.06623e-06
6.24208e-06
1.02023e-06
5.34734e-06
1.21391e-07
4.46595e-06
-6.2439e-07
3.63982e-06
-1.22523e-06
2.90211e-06
-1.70314e-06
2.27837e-06
-2.11109e-06
1.78191e-06
-2.57396e-06
-3.0497e-06
1.36831e-06
8.70997e-07
2.20294e-05
1.96407e-06
1.97391e-05
3.17478e-06
1.82874e-05
4.42082e-06
1.70672e-05
5.61766e-06
1.5846e-05
6.69168e-06
1.45556e-05
7.58692e-06
1.31863e-05
8.26798e-06
1.17569e-05
8.72108e-06
1.03001e-05
8.95284e-06
8.85267e-06
8.98455e-06
7.44675e-06
8.84283e-06
6.10436e-06
8.55312e-06
4.8389e-06
8.13955e-06
3.66024e-06
7.62765e-06
2.5781e-06
7.04594e-06
1.60192e-06
6.42735e-06
7.39939e-07
5.80287e-06
5.08099e-11
5.20355e-06
-6.25902e-07
4.65772e-06
-1.15714e-06
4.18406e-06
-1.63736e-06
3.7898e-06
-2.17981e-06
-2.72487e-06
3.46424e-06
6.85995e-07
2.13432e-05
1.57935e-06
1.88456e-05
2.59767e-06
1.7269e-05
3.67398e-06
1.59908e-05
4.73865e-06
1.47813e-05
5.72918e-06
1.3565e-05
6.59601e-06
1.23194e-05
7.30545e-06
1.10474e-05
7.84049e-06
9.76501e-06
8.19971e-06
8.49343e-06
8.39345e-06
7.25299e-06
8.43829e-06
6.0595e-06
8.35287e-06
4.9243e-06
8.15677e-06
3.85632e-06
7.87106e-06
2.8638e-06
7.51867e-06
1.95428e-06
7.12453e-06
1.13405e-06
6.71304e-06
4.11512e-07
6.30718e-06
-2.20031e-07
5.92658e-06
-7.7637e-07
5.58751e-06
-1.29823e-06
5.29812e-06
-1.89053e-06
-2.46787e-06
5.04042e-06
5.8478e-07
2.07586e-05
1.34955e-06
1.80809e-05
2.23066e-06
1.63879e-05
3.17398e-06
1.50475e-05
4.12357e-06
1.38317e-05
5.0284e-06
1.26602e-05
5.84685e-06
1.15009e-05
6.54918e-06
1.03451e-05
7.11825e-06
9.19593e-06
7.5487e-06
8.06295e-06
7.84458e-06
6.95709e-06
8.01589e-06
5.88818e-06
8.07581e-06
4.86436e-06
8.03945e-06
3.89267e-06
7.92345e-06
2.97978e-06
7.7458e-06
2.13191e-06
7.52544e-06
1.35438e-06
7.28108e-06
6.55844e-07
7.02862e-06
3.24358e-08
6.78476e-06
-5.32355e-07
6.55898e-06
-1.07241e-06
6.35635e-06
-1.68799e-06
-2.28465e-06
6.17246e-06
5.52072e-07
2.02064e-05
1.25041e-06
1.73825e-05
2.04421e-06
1.55941e-05
2.89033e-06
1.42014e-05
3.74541e-06
1.29766e-05
4.56962e-06
1.1836e-05
5.32986e-06
1.07407e-05
6.00173e-06
9.67318e-06
6.57012e-06
8.62752e-06
7.02874e-06
7.60433e-06
7.37852e-06
6.60729e-06
7.62558e-06
5.64111e-06
7.77926e-06
4.71067e-06
7.85099e-06
3.82093e-06
7.85368e-06
2.97709e-06
7.8012e-06
2.18438e-06
7.70774e-06
1.44783e-06
7.58695e-06
7.76601e-07
7.45173e-06
1.67667e-07
7.3119e-06
-3.92386e-07
7.17623e-06
-9.3668e-07
7.04854e-06
-1.56041e-06
-2.15331e-06
6.9166e-06
5.75537e-07
1.96311e-05
1.25769e-06
1.67005e-05
2.00537e-06
1.48465e-05
2.78598e-06
1.34208e-05
3.56726e-06
1.21954e-05
4.31972e-06
1.10835e-05
5.0188e-06
1.00416e-05
5.64612e-06
9.04585e-06
6.19002e-06
8.08361e-06
6.64523e-06
7.14911e-06
7.01187e-06
6.24064e-06
7.29415e-06
5.35883e-06
7.49907e-06
4.50575e-06
7.63546e-06
3.68454e-06
7.71334e-06
2.89921e-06
7.74336e-06
2.15435e-06
7.73626e-06
1.4549e-06
7.70141e-06
8.11432e-07
7.64818e-06
2.20915e-07
7.58547e-06
-3.29548e-07
7.51702e-06
-8.6819e-07
7.4433e-06
-1.48675e-06
-2.07334e-06
7.36277e-06
6.41973e-07
1.89891e-05
1.34608e-06
1.59964e-05
2.08048e-06
1.41121e-05
2.82179e-06
1.26795e-05
3.54782e-06
1.14693e-05
4.23863e-06
1.03927e-05
4.87777e-06
9.40247e-06
5.45312e-06
8.4705e-06
5.95722e-06
7.57951e-06
6.38707e-06
6.71926e-06
6.74348e-06
5.88423e-06
7.03023e-06
5.07208e-06
7.25318e-06
4.2828e-06
7.41957e-06
3.51814e-06
7.53746e-06
2.78132e-06
7.61518e-06
2.07663e-06
7.66068e-06
1.40939e-06
7.68033e-06
7.91759e-07
7.68239e-06
2.18876e-07
7.67097e-06
-3.18004e-07
7.64973e-06
-8.46899e-07
7.61766e-06
-1.45481e-06
-2.01771e-06
7.56153e-06
7.39828e-07
1.82494e-05
1.49244e-06
1.52439e-05
2.23707e-06
1.33675e-05
2.95907e-06
1.19575e-05
3.64517e-06
1.07833e-05
4.28398e-06
9.7539e-06
4.86659e-06
8.81987e-06
5.38703e-06
7.95006e-06
5.84238e-06
7.12416e-06
6.23258e-06
6.32906e-06
6.56007e-06
5.55675e-06
6.82917e-06
4.80299e-06
7.04556e-06
4.06641e-06
7.21576e-06
3.34795e-06
7.34663e-06
2.65045e-06
7.44489e-06
1.97837e-06
7.51669e-06
1.33759e-06
7.56635e-06
7.42084e-07
7.59973e-06
1.85518e-07
7.62136e-06
-3.39517e-07
7.63066e-06
-8.56178e-07
7.62384e-06
-1.44801e-06
-1.9899e-06
7.59554e-06
8.56214e-07
1.73932e-05
1.67477e-06
1.44254e-05
2.44572e-06
1.25966e-05
3.16254e-06
1.12407e-05
3.82019e-06
1.01256e-05
4.41505e-06
9.15905e-06
4.94521e-06
8.28972e-06
5.41051e-06
7.48476e-06
5.81257e-06
6.7221e-06
6.15461e-06
5.98702e-06
6.44115e-06
5.27022e-06
6.67769e-06
4.56645e-06
6.87038e-06
3.87374e-06
7.02561e-06
3.19274e-06
7.14976e-06
2.52631e-06
7.24883e-06
1.87931e-06
7.32632e-06
1.2601e-06
7.3877e-06
6.80703e-07
7.43698e-06
1.36271e-07
7.47481e-06
-3.77232e-07
7.50199e-06
-8.83284e-07
7.51417e-06
-1.46028e-06
-1.97165e-06
7.49556e-06
9.82619e-07
1.64109e-05
1.87627e-06
1.35319e-05
2.6823e-06
1.17907e-05
3.4025e-06
1.05206e-05
4.03924e-06
9.48892e-06
4.596e-06
8.60232e-06
5.07728e-06
7.80846e-06
5.48842e-06
7.07363e-06
5.83544e-06
6.3751e-06
6.12481e-06
5.69766e-06
6.36337e-06
5.03167e-06
6.55806e-06
4.37178e-06
6.71584e-06
3.71598e-06
6.84345e-06
3.06514e-06
6.94721e-06
2.42256e-06
7.03268e-06
1.79385e-06
7.10308e-06
1.18971e-06
7.16309e-06
6.20698e-07
7.2146e-06
8.48016e-08
7.25908e-06
-4.21597e-07
7.29375e-06
-9.17917e-07
7.31213e-06
-1.47862e-06
-1.96705e-06
7.30718e-06
1.11242e-06
1.52985e-05
2.08475e-06
1.25596e-05
2.92983e-06
1.09457e-05
3.6573e-06
9.79316e-06
4.27671e-06
8.86955e-06
4.79834e-06
8.08071e-06
5.23284e-06
7.37397e-06
5.59078e-06
6.71571e-06
5.88231e-06
6.08358e-06
6.11705e-06
5.46293e-06
6.30401e-06
4.84473e-06
6.45163e-06
4.22417e-06
6.5678e-06
3.59984e-06
6.65984e-06
2.97313e-06
6.73438e-06
2.34803e-06
6.79711e-06
1.73114e-06
6.85132e-06
1.13552e-06
6.90118e-06
5.70846e-07
6.94825e-06
3.77755e-08
6.99054e-06
-4.63782e-07
7.02541e-06
-9.52717e-07
7.04509e-06
-1.4984e-06
-1.95659e-06
7.03433e-06
1.24411e-06
1.40546e-05
2.2958e-06
1.15081e-05
3.18003e-06
1.00615e-05
3.91453e-06
9.05873e-06
4.51613e-06
8.26799e-06
5.00224e-06
7.59463e-06
5.3898e-06
6.98644e-06
5.69446e-06
6.41106e-06
5.9303e-06
5.84776e-06
6.10971e-06
5.28354e-06
6.24361e-06
4.71085e-06
6.34168e-06
4.12613e-06
6.41264e-06
3.5289e-06
6.46446e-06
2.92134e-06
6.50433e-06
2.30818e-06
6.53847e-06
1.69703e-06
6.57099e-06
1.10301e-06
6.60559e-06
5.36267e-07
6.64209e-06
1.3089e-09
6.67886e-06
-5.00463e-07
6.70912e-06
-9.82979e-07
6.7222e-06
-1.51147e-06
-1.94723e-06
6.71253e-06
1.3798e-06
1.26749e-05
2.51268e-06
1.03753e-05
3.43455e-06
9.13974e-06
4.17182e-06
8.32153e-06
4.7505e-06
7.68935e-06
5.19659e-06
7.14856e-06
5.53403e-06
6.64903e-06
5.78368e-06
6.16144e-06
5.96313e-06
5.66833e-06
6.08704e-06
5.15965e-06
6.16764e-06
4.63027e-06
6.21539e-06
4.07841e-06
6.2395e-06
3.50481e-06
6.24846e-06
2.9124e-06
6.25022e-06
2.30645e-06
6.25201e-06
1.69527e-06
6.2592e-06
1.09584e-06
6.27537e-06
5.20113e-07
6.30012e-06
-2.34035e-08
6.32803e-06
-5.28307e-07
6.35173e-06
-1.00664e-06
6.35865e-06
-1.51848e-06
-1.92912e-06
6.3403e-06
1.52934e-06
1.11458e-05
2.74945e-06
9.15533e-06
3.70524e-06
8.18405e-06
4.43573e-06
7.5911e-06
4.98057e-06
7.14456e-06
5.37733e-06
6.75184e-06
5.65819e-06
6.3682e-06
5.84923e-06
5.97043e-06
5.971e-06
5.54659e-06
6.0395e-06
5.09117e-06
6.06743e-06
4.60238e-06
6.06516e-06
4.0807e-06
6.04189e-06
3.52812e-06
6.00633e-06
2.94799e-06
5.96732e-06
2.3455e-06
5.93361e-06
1.72901e-06
5.91295e-06
1.11651e-06
5.90928e-06
5.23809e-07
5.92034e-06
-3.44404e-08
5.9396e-06
-5.47518e-07
5.9557e-06
-1.02274e-06
5.95317e-06
-1.51598e-06
-1.90889e-06
5.93272e-06
1.71019e-06
9.43572e-06
3.03061e-06
7.83501e-06
4.01285e-06
7.2019e-06
4.71892e-06
6.8851e-06
5.21143e-06
6.6521e-06
5.54428e-06
6.41904e-06
5.75917e-06
6.15334e-06
5.8869e-06
5.84273e-06
5.94971e-06
5.48381e-06
5.96361e-06
5.07731e-06
5.94038e-06
4.62564e-06
5.88933e-06
4.13178e-06
5.81875e-06
3.59873e-06
5.73716e-06
3.02962e-06
5.6543e-06
2.4284e-06
5.58137e-06
1.80197e-06
5.52975e-06
1.16815e-06
5.50479e-06
5.48784e-07
5.50276e-06
-3.23868e-08
5.51269e-06
-5.57398e-07
5.52014e-06
-1.03021e-06
5.50812e-06
-1.50401e-06
-1.877e-06
5.47601e-06
1.95058e-06
7.48535e-06
3.39063e-06
6.39508e-06
4.38153e-06
6.21108e-06
5.03288e-06
6.2338e-06
5.44588e-06
6.23914e-06
5.6961e-06
6.16886e-06
5.8347e-06
6.01477e-06
5.89526e-06
5.78219e-06
5.89945e-06
5.47965e-06
5.86126e-06
5.11552e-06
5.78996e-06
4.69697e-06
5.69246e-06
4.22931e-06
5.5751e-06
3.71612e-06
5.44553e-06
3.15922e-06
5.31435e-06
2.5596e-06
5.19633e-06
1.92002e-06
5.10904e-06
1.25546e-06
5.06115e-06
5.96694e-07
5.04437e-06
-1.55813e-08
5.0432e-06
-5.56221e-07
5.03973e-06
-1.02675e-06
5.01524e-06
-1.47962e-06
-1.83626e-06
4.97432e-06
2.2861e-06
5.19929e-06
3.86466e-06
4.81661e-06
4.82519e-06
5.25061e-06
5.3746e-06
5.68444e-06
5.67451e-06
5.93926e-06
5.82405e-06
6.01934e-06
5.87984e-06
5.95901e-06
5.87382e-06
5.78823e-06
5.82378e-06
5.52971e-06
5.73928e-06
5.20005e-06
5.62546e-06
4.81081e-06
5.48544e-06
4.36935e-06
5.3225e-06
3.87908e-06
5.14232e-06
3.33943e-06
4.956e-06
2.74594e-06
4.78326e-06
2.09277e-06
4.65252e-06