/*--------------------------------*- C++ -*----------------------------------*\
  =========                 |
  \\      /  F ield         | OpenFOAM: The Open Source CFD Toolbox
   \\    /   O peration     | Website:  https://openfoam.org
    \\  /    A nd           | Version:  13
     \\/     M anipulation  |
\*---------------------------------------------------------------------------*/
FoamFile
{
    format      ascii;
    class       volScalarField;
    location    "2.3";
    object      rho;
}
// * * * * * * * * * * * * * * * * * * * * * * * * * * * * * * * * * * * * * //

dimensions      [1 -3 0 0 0 0 0];

internalField   nonuniform List<scalar> 
2268
(
13529
13529
13529
13529
13529
13529
13529
13529
13529
13529
13529
13529
13529
13529
13529
13529
13529
13529
13529
13527.8
13523.6
13521.6
13521.6
13529
13529
13529
13529
13529
13529
13529
13529
13529
13529
13529
13529
13529
13529
13529
13529
13529
13529
13529
13528.9
13528.9
13528.3
13525.1
13529
13529
13529
13529
13529
13529
13529
13529
13529
13529
13529
13529
13529
13529
13529
13529
13529
13529
13529
13529
13529
13529
13529
13529
13529
13529
13529
13529
13529
13529
13529
13529
13529
13529
13529
13529
13529
13529
13529
13529
13529
13529
13529
13529
13529
13529
13529
13529
13529
13529
13529
13529
13529
13529
13529
13529
13529
13529
13529
13529
13529
13529
13529
13529
13529
13529
13529
13529
13529
13514.6
13525.8
13529
13529
13529
13529
13529
13529
13529
13529
13529
13529
13529
13529
13438.1
12997.6
12498
12010.1
11568.2
11198.1
10943.2
10986.6
11368.5
7232.69
7548.3
8111.52
8807.7
9318.88
9750.71
10105.7
10355.5
10418.5
10169.2
9510.3
8576.54
7472.07
6225.72
5002.59
4130.11
3432.75
2888.89
2488.27
2213.96
2058.97
2100.27
2451.28
1000
1000
1000
999.998
1207.57
1421.62
1556.78
1585.93
1517.96
1405.81
1288.18
1144.89
1034.79
1000
1000
1000
1000
999.996
999.969
999.939
999.863
999.731
999.396
11771.8
11856.3
11943.6
11953.4
11953.3
11946.9
11872.5
9600.53
8760.21
8769.62
8787.07
8583.52
8276.78
8416.99
10162.3
10337
10325.1
10286.7
10291
7394.65
7407.1
7679.56
7734.29
7905.93
9213.78
10096.2
10750.9
11347.9
11345.1
11305.6
10967.5
9824.03
10105.6
10304.9
10329.3
10312.1
10286.4
10290.7
2745.18
2598.7
2341.77
2265.61
2932.37
3103.01
3683.9
4946.05
6434.52
8884.3
10138.6
10395.3
10363.6
10205.9
10231.3
10237.2
10273
9890.23
8288.09
2956.11
3049
2748.34
2703.2
2105.23
1359.87
1127.87
1404.56
1431.2
1661.14
2859.8
5021.97
5463.68
5510.33
6117.45
6427.57
6058.51
6031.26
6710.6
2156.13
2331.55
2474.31
2713.68
2223.51
1293.11
1228.29
1248.91
1359.74
1062.94
889.479
1307.79
3465.06
3490.78
3159.98
2511.04
2660.32
2083.81
1968.77
1579.37
1670.78
2009.1
1692.07
2040.8
1906.43
1636.1
1851.83
1925.56
1073.57
1002.3
473.349
710.326
1813.22
1742.89
1750.72
1045.64
785.519
380.113
940.309
935.175
998.643
1209.66
1555.42
1869.94
1997.92
1388.58
1133.5
1033.88
1003.54
894.012
326.323
306.602
516.182
833.975
962.874
996.717
629.555
1063.02
942.172
997.1
985.622
994.971
1413.49
1035.18
999.192
1000.33
1000.7
1002.05
990.012
817.178
679.071
819.842
984.515
999.993
999.205
804.272
1000
1000
1000
999.995
999.998
1000
1000
1000
1000
1000
1000
1000
1000
1000
1000
1000
1000
999.998
999.997
999.999
999.999
999.999
999.999
1000
1000
1000
999.941
999.986
1000
1000
1000
1000
1000
1000
1000
1000
1000
1000
1000
1000
1000
1000
999.354
993.953
977.194
987.93
1000
1000
998.307
999.207
999.928
999.99
1000
1000
1000
1000
1000
1000
1000
1000
998.928
989.252
982.227
962.369
899.578
863.434
799.672
764.287
726.307
980.712
979.861
992.934
995.789
994.528
996.46
989.587
972.739
966.711
962.937
954.967
939.502
900.856
851.665
803.808
740.368
668.168
593.314
533.655
510.483
502.631
470.956
434.17
826.963
829.547
771.353
726.885
714.397
761.615
745.02
703.21
668.033
614.73
575.766
523.141
462.405
433.978
443.81
438.762
424.072
469.27
495.899
496.35
495.241
462.318
457.05
622.171
518.923
502.109
499.787
499.386
484.841
439.893
441.522
470.886
469.813
453.543
458.528
491.635
496.973
492.808
488.325
489.305
498.429
499.978
499.751
498.055
496.767
499.634
479.346
502.493
500.48
500.028
499.902
499.924
499.947
499.988
500
500
500
500
500
500
500
500
500
500
499.977
499.956
499.986
500.008
500.011
470.331
430.314
368.811
376.839
432.445
460.451
468.999
480.802
495.735
500
500
500
500
500
500
500
500
500
500
500
500
500
500
267.222
84.4366
29.8845
31.5405
37.6825
46.1627
78.3025
152.096
245.692
299.329
323.877
347.883
374.937
397.239
412.391
420.829
425.375
426.19
422.752
424.488
427.516
426.68
417.808
2.97424
1.00426
1.00922
1.0087
1.00144
1.00031
1.00004
1.00009
1.00016
1.00021
1.00017
1.00039
13.0763
31.0738
40.2078
45.2909
47.8081
43.476
36.7927
35.9543
33.9278
14.4054
1.00003
1.0023
1.00375
1.00476
1.01089
1.02321
1.00335
1.0001
1.00032
1.00024
1.00005
1.00006
1.00005
1.00003
1.00002
1.00002
1.00001
1.00001
1.00002
1.00001
1
1
1.00001
1.00002
1.00176
1.00106
1.00138
1.03707
1.04046
1.01837
1.0002
1.00004
1.00038
1.0021
1.00051
1.00006
1.00009
1.00009
1.00006
1.00003
1.00002
1.00003
1.00003
1.00003
1.00003
1.00004
1.00004
1.00059
1.00114
1.00181
1.02564
1.03052
1.00943
1.00023
1.00555
1.0316
1.06846
1.0212
1.00254
1.00015
1.00001
1.00002
1.00003
1.00007
1.0001
1.00007
1.00007
1.00006
1.00004
1.00004
1.00047
1.0012
1.0019
1.00055
1.00071
1.00007
1.00003
1.0005
1.07988
1.08303
1.08479
1.0471
1.0022
1.00047
1.00042
1.00051
1.00044
1.00022
1.00014
1.00011
1.00009
1.00007
1.00004
1.00031
1.00073
1.00099
1.00008
1.00003
1.00003
1.00003
1.00003
1.06026
1.08228
1.08416
1.06034
1.00334
1.00266
1.00216
1.00224
1.00106
1.00028
1.00019
1.00014
1.00012
1.00008
1.00004
1.00021
1.00031
1.00029
1.00006
1.00005
1.00006
1.00004
1.00004
1.00637
1.05283
1.05763
1.01943
1.00319
1.00319
1.00318
1.00318
1.00148
1.00031
1.0002
1.00016
1.00013
1.0001
1.00006
1.00013
1.00014
1.00009
1.00006
1.00006
1.00006
1.00006
1.00011
1.00024
1.00175
1.00147
1.00064
1.00172
1.00311
1.00256
1.00125
1.00054
1.0003
1.00017
1.00012
1.0001
1.00009
1.00006
1.00008
1.00008
1.00006
1.00005
1.00005
1.00005
1.00006
1.00007
1.00003
1.00007
1.00007
1.00017
1.00099
1.0012
1.00064
1.00026
1.00014
1.00013
1.0001
1.00008
1.00007
1.00005
1.00005
1.00006
1.00006
1.00005
1.00004
1.00003
1.00003
1.00004
1.00003
1.00002
1.00002
1.00004
1.00033
1.00053
1.00049
1.00015
1.00007
1.00005
1.00005
1.00005
1.00004
1.00004
1.00003
1.00003
1.00005
1.00005
1.00004
1.00003
1.00003
1.00002
1.00002
1.00002
1.00002
1.00002
1.00004
1.0002
1.00032
1.00018
1.00005
1.00003
1.00003
1.00003
1.00002
1.00002
1.00002
1.00002
1.00001
1.00004
1.00004
1.00004
1.00003
1.00002
1.00002
1.00001
1.00001
1.00001
1.00002
1.00003
1.00005
1.00006
1.00004
1.00002
1.00002
1.00001
1.00001
1.00001
1.00001
1.00001
1.00001
1.00001
1.00004
1.00004
1.00004
1.00003
1.00002
1.00001
1.00001
1.00001
1.00001
1.00001
1.00002
1.00002
1.00001
1.00001
1.00001
1.00001
1.00001
1.00001
1.00001
1.00001
1.00001
1
1
1.00003
1.00003
1.00003
1.00002
1.00002
1.00001
1.00001
1.00001
1.00001
1.00001
1.00001
1.00001
1.00001
1
1
1
1
1
1
1
1
1
1
1.00003
1.00003
1.00003
1.00002
1.00002
1.00001
1.00001
1
1
1
1
1
1
1
1
1
1
1
1
1
1
1
1
1.00003
1.00002
1.00002
1.00001
1.00001
1.00001
1.00001
1
1
1
1
1
1
1
1
1
1
1
1
1
1
1
1
1.00002
1.00002
1.00001
1.00001
1.00001
1.00001
1
1
1
1
1
1
1
1
1
1
1
1
1
1
1
1
1
1.00002
1.00001
1.00001
1.00001
1.00001
1
1
1
1
1
1
1
1
1
1
1
1
1
1
1
1
1
1
1.00001
1.00001
1.00001
1
1
1
1
1
1
1
1
1
1
1
1
1
1
1
1
1
1
1
1
1.00001
1.00001
1.00001
1
1
1
1
1
1
1
1
1
1
1
1
1
1
1
1
1
1
1
1
1.00001
1.00001
1
1
1
1
1
1
1
1
1
1
1
1
1
1
1
1
1
1
1
1
1
1.00001
1
1
1
1
1
1
1
1
1
1
1
1
1
1
1
1
1
1
1
1
1
1
1
1
1
1
1
1
1
1
1
1
1
1
1
1
1
1
1
1
1
1
1
1
1
1
1
1
1
1
1
1
1
1
1
1
1
1
1
1
1
1
1
1
1
1
1
1
1
1
1
1
1
1
1
1
1
1
1
1
1
1
1
1
1
1
1
1
1
1
1
1
1
1
1
1
1
1
1
1
1
1
1
1
1
1
1
1
1
1
1
1
1
1
1
1
1
1
1
1
1
1
1
1
1
1
1
1
1
1
1
1
1
1
1
1
1
1
1
1
1
1
1
1
1
1
1
1
1
1
1
1
1
1
1
1
1
1
1
1
1
1
1
1
1
1
1
1
1
1
1
1
1
1
1
1
1
1
1
1
1
1
1
1
1
1
1
1
1
1
1
1
1
1
1
1
1
1
1
1
1
1
1
1
1
1
1
1
1
1
1
1
1
1
1
1
1
1
1
1
1
1
1
1
1
1
1
1
1
1
1
1
1
1
1
1
1
1
1
1
1
1
1
1
1
1
1
1
1
1
1
1
1
1
1
1
1
1
1
1
1
1
1
1
1
1
1
1
1
1
1
1
1
1
1
999.544
1184.41
1666.41
1517.96
998.457
967.993
696.1
668.54
567.559
434.515
432.176
528.871
430.43
478.303
489.568
484.913
498.317
503.584
501.872
501.176
500.275
500.055
500
500.003
499.999
499.999
500.006
500.01
500.002
500.002
500.002
500
411.485
395.408
376.048
356.279
1.00004
1.00004
1.00004
1.00005
1.00007
1.0001
1.00013
1.00015
1.00004
1.00012
1.00014
1.00017
1.00004
1.00009
1.0001
1.0001
1.00004
1.00005
1.00005
1.00006
1.00004
1.00004
1.00004
1.00004
1.00005
1.00003
1.00003
1.00003
1.00005
1.00003
1.00003
1.00003
1.00004
1.00003
1.00002
1.00002
1.00003
1.00002
1.00002
1.00001
1.00001
1.00001
1.00001
1.00001
1.00001
1.00001
1.00001
1.00001
1
1
1
1
1
1
1
1
1
1
1
1
1
1
1
1
1
1
1
1
1
1
1
1
1
1
1
1
1
1
1
1
1
1
1
1
1
1
1
1
1
1
1
1
1
1
1
1
1
1
1
1
1
1
1
1
1
1
1
1
1
1
1
1
1
1
1
1
1
1
1
1
1
1
1
1
1
1
1
1
1
1
1
1
1201.91
891.351
871.442
956.136
990.064
767.916
942.341
996.388
996.627
999.586
1000.72
1000.95
1000.28
994.047
997.543
1000.11
1000.02
996.844
875.448
781.682
786.562
733.02
603.916
522.851
705.916
773.056
814.825
861.736
928.11
966.959
991.073
1000.06
999.875
999.793
998.102
998.24
989.524
984.472
489.225
495.402
505.29
485.5
463.12
477.038
463.571
508.563
516.274
543.287
583.197
629.426
670.909
695.971
715.911
732.987
751.054
765.579
768.559
497.899
499.791
499.879
487.984
468.243
474.669
498.554
500.07
500.145
500.061
500.015
500.077
500.111
500.528
501.324
500.622
503.363
548.341
561.193
500.089
499.807
499.549
498.35
499.897
500
500
500.002
500.024
500.008
500.003
500.015
500.001
500.018
500.132
500.394
500.557
504.412
538.351
500.002
499.988
499.969
500.014
500.006
500
500
500
500
500
500.001
500.001
500.001
500.001
500.115
500.662
501.987
503.565
503.768
500.002
500.001
500.002
500.002
500.001
500
500
500
500
500
500.002
500.052
500.71
496.003
477.329
444.392
401.521
357.185
334.511
500.001
500.001
500.002
500.001
500
491.561
474.105
452.714
428.105
400.183
361.297
295.452
222.66
158.533
113.773
73.5548
39.5079
20.417
23.0923
326.64
293.132
259.914
228.681
191.765
153.64
119.678
87.446
57.9467
30.9734
10.6946
7.44817
15.5842
15.5353
5.69591
1.09695
1.00168
1.43277
2.70482
1.00037
1.00019
2.81677
1.37382
1.0081
1.02733
1.10036
1.28084
2.24461
3.11133
3.10984
1.93275
1.16089
1.08783
1.00473
1.00007
1.00033
1.00027
1.00015
1.00017
1.00034
1.00059
1.0011
1.00559
1.02752
1.09756
1.17778
1.23611
1.23054
1.29511
1.51613
1.51656
1.13451
1.00033
1.00058
1.00067
1.00042
1.00034
1.00018
1.00019
1.00016
1.00038
1.08346
1.48745
1.48954
1.29767
1.00785
1.0041
1.21116
1.50331
1.26563
1.00101
1.0003
1.00044
1.00047
1.00025
1.0003
1.00012
1.00015
1.0001
1.00025
1.04924
1.43671
1.48736
1.48955
1.16214
1.00029
1.00072
1.0012
1.00113
1.00066
1.00022
1.00022
1.00008
1.00012
1.0003
1.00007
1.00008
1.00009
1.0002
1.00055
1.0064
1.05568
1.07118
1.03561
1.00028
1.00039
1.00066
1.00045
1.00019
1.0001
1.00006
1.00004
1.00011
1.00015
1.00004
1.00006
1.00008
1.0001
1.0001
1.00006
1.00007
1.00008
1.0001
1.00013
1.00018
1.00028
1.00027
1.00026
1.00013
1.00004
1.00003
1.00005
1.00003
1.00003
1.00003
1.00004
1.00006
1.00007
1.00012
1.00018
1.00022
1.00018
1.00011
1.0001
1.00015
1.00023
1.00023
1.00011
1.00003
1.00002
1.00001
1.00001
1.00002
1.00002
1.00002
1.00002
1.00002
1.00005
1.00014
1.00023
1.00023
1.00014
1.00005
1.00005
1.00009
1.00009
1.00004
1.00002
1.00002
1.00001
1.00001
1.00002
1.00001
1.00001
1.00001
1.00001
1.00001
1.00002
1.00007
1.00009
1.00005
1.00004
1.00003
1.00002
1.00001
1.00001
1.00001
1.00001
1.00001
1.00001
1.00001
1.00001
1.00001
1.00001
1.00001
1.00001
1.00001
1.00001
1.00001
1.00001
1.00002
1.00002
1.00001
1.00001
1.00001
1.00001
1.00001
1.00001
1.00001
1.00001
1.00001
1
1
1
1.00001
1.00001
1.00001
1.00001
1.00001
1.00001
1.00001
1.00001
1
1
1.00001
1.00001
1.00001
1.00001
1
1
1
1
1
1
1
1
1
1
1
1
1
1
1
1
1.00001
1.00001
1.00001
1
1
1
1
1
1
1
1
1
1
1
1
1
1
1
1
1.00001
1.00001
1.00001
1
1
1
1
1
1
1
1
1
1
1
1
1
1
1
1
1.00001
1.00002
1.00002
1
1
1
1
1
1
1
1
1
1
1
1
1
1
1
1
1.00001
1.00003
1.00002
1
1
1
1
1
1
1
1
1
1
1
1
1
1
1
1
1.00001
1.00003
1.00004
1
1
1
1
1
1
1
1
1
1
1
1
1
1
1
1
1.00001
1.00004
1.00004
1
1
1
1
1
1
1
1
1
1
1
1
1
1
1
1
1.00002
1.00004
1.00004
1
1
1
1
1
1
1
1
1
1
1
1
1
1
1
1
1.00002
1.00005
1.00003
1
1
1
1
1
1
1
1
1
1
1
1
1
1
1
1.00001
1.00002
1.00005
1.00003
1
1
1
1
1
1
1
1
1
1
1
1
1
1
1
1.00001
1.00002
1.00005
1.00002
1
1
1
1
1
1
1
1
1
1
1
1
1
1
1
1.00001
1.00002
1.00005
1.00002
1
1
1
1
1
1
1
1
1
1
1
1
1
1
1
1.00001
1.00002
1.00003
1.00001
1
1
1
1
1
1
1
1
1
1
1
1
1
1
1
1.00001
1.00002
1.00001
1.00001
1
1
1
1
1
1
1
1
1
1
1
1
1
1
1
1.00001
1.00001
1.00001
1
1
1
1
1
1
1
1
1
1
1
1
1
1
1
1
1
1.00001
1
1
1
1
1
1
1
1
1
1
1
1
1
1
1
1
1
1
1
1
1
1
1
1
1
1
1
1
1
1
1
1
1
1
1
1
1
1
1
1
1
1
1
1
1
1
1
1
1
1
1
1
1
1
1
1
1
1
1
1
1
1
1
1
1
1
1
1
1
1
1
1
1
1
1
1
1
1
1
1
1
1
1
1
1
1
1
1
1
1
1
1
1
1
1
1
1
1
1
1
1
1
1
1
1
1
1
1
1
1
1
1
1
1
1
1
1
1
1
1
1
1
1
1
1
1
1
1
1
1
1
1
1
1
1
)
;

boundaryField
{
    leftWall
    {
        type            calculated;
        value           nonuniform List<scalar> 
50
(
13529
13529
13529
13529
13529
13514.6
7232.69
1000
1000
1000
1000
980.712
826.963
622.171
479.346
470.331
267.222
2.97424
1.0023
1.00176
1.00059
1.00047
1.00031
1.00021
1.00013
1.00008
1.00006
1.00005
1.00004
1.00004
1.00003
1.00003
1.00003
1.00002
1.00002
1.00001
1.00001
1.00001
1.00001
1
1
1
1
1
1
1
1
1
1
1
)
;
    }
    rightWall
    {
        type            calculated;
        value           nonuniform List<scalar> 
50
(
10291
10290.7
8288.09
6710.6
1968.77
380.113
629.555
804.272
875.448
984.472
768.559
561.193
538.351
503.768
334.511
23.0923
2.70482
1.00015
1.00034
1.0003
1.0003
1.00015
1.00003
1.00001
1.00001
1.00001
1.00001
1.00001
1.00001
1.00001
1.00002
1.00002
1.00004
1.00004
1.00004
1.00003
1.00003
1.00002
1.00002
1.00001
1.00001
1
1
1
1
1
1
1
1
1
)
;
    }
    lowerWall
    {
        type            calculated;
        value           nonuniform List<scalar> 
62
(
13529
13529
13529
13529
13529
13529
13529
13529
13529
13529
13529
13529
13529
13529
13529
13529
13529
13529
13529
13527.8
13523.6
13521.6
13521.6
13521.6
13525.1
13529
13529
13529
11368.5
2451.28
999.396
999.544
1184.41
1666.41
1517.96
11771.8
7394.65
2745.18
2956.11
2156.13
1579.37
940.309
1063.02
11771.8
11856.3
11943.6
11953.4
11953.3
11946.9
11872.5
9600.53
8760.21
8769.62
8787.07
8583.52
8276.78
8416.99
10162.3
10337
10325.1
10286.7
10291
)
;
    }
    atmosphere
    {
        type            calculated;
        value           nonuniform List<scalar> 
46
(
1
1
1
1
1
1
1
1
1
1
1
1
1
1
1
1
1
1
1
1
1
1
1
1
1
1
1
1
1
1
1
1
1
1
1
1
1
1
1
1
1
1
1
1
1
1
)
;
    }
    defaultFaces
    {
        type            empty;
    }
}


// ************************************************************************* //
