/*--------------------------------*- C++ -*----------------------------------*\
  =========                 |
  \\      /  F ield         | OpenFOAM: The Open Source CFD Toolbox
   \\    /   O peration     | Website:  https://openfoam.org
    \\  /    A nd           | Version:  13
     \\/     M anipulation  |
\*---------------------------------------------------------------------------*/
FoamFile
{
    format      ascii;
    class       volVectorField;
    location    "2.3";
    object      U;
}
// * * * * * * * * * * * * * * * * * * * * * * * * * * * * * * * * * * * * * //

dimensions      [0 1 -1 0 0 0 0];

internalField   nonuniform List<vector> 
2268
(
(0.0073049 -0.00401956 0)
(0.0153863 -0.00349121 0)
(0.0279006 -0.00476073 0)
(0.0439774 -0.00549411 0)
(0.0609985 -0.00555708 0)
(0.0774418 -0.00510248 0)
(0.0921355 -0.00430172 0)
(0.104287 -0.00329464 0)
(0.113412 -0.00218978 0)
(0.119209 -0.00104336 0)
(0.121482 6.89634e-05 0)
(0.120306 0.00121713 0)
(0.116001 0.00221331 0)
(0.108919 0.00305734 0)
(0.0994669 0.0037447 0)
(0.0881095 0.00425844 0)
(0.0753926 0.00457776 0)
(0.0618981 0.00468815 0)
(0.0481443 0.00458867 0)
(0.0346068 0.00425783 0)
(0.0215052 0.0035456 0)
(0.0112562 0.0020371 0)
(0.00618118 0.00255345 0)
(0.00599338 -0.00710582 0)
(0.017052 -0.00861066 0)
(0.0309327 -0.0111341 0)
(0.0471646 -0.0124475 0)
(0.0638071 -0.0124825 0)
(0.0797139 -0.0115295 0)
(0.0939249 -0.00989267 0)
(0.105749 -0.00781861 0)
(0.11471 -0.00546673 0)
(0.120457 -0.0029423 0)
(0.122804 -0.000402815 0)
(0.121794 0.00204201 0)
(0.117743 0.00420204 0)
(0.111049 0.00606982 0)
(0.102063 0.00761783 0)
(0.0912252 0.00879734 0)
(0.0790932 0.00955336 0)
(0.0662292 0.00990865 0)
(0.0530697 0.00994571 0)
(0.0398944 0.00970667 0)
(0.0266505 0.00895902 0)
(0.0148159 0.00697415 0)
(0.00484743 0.00573051 0)
(0.00629203 -0.0120989 0)
(0.0189297 -0.0144503 0)
(0.0328896 -0.0175455 0)
(0.0483478 -0.0192921 0)
(0.0640168 -0.0193031 0)
(0.0790066 -0.0178907 0)
(0.0925021 -0.0154479 0)
(0.103881 -0.0123146 0)
(0.112681 -0.00871215 0)
(0.118518 -0.00479278 0)
(0.121126 -0.000758042 0)
(0.1205 0.00303562 0)
(0.116961 0.00639592 0)
(0.110891 0.00932227 0)
(0.102607 0.0118476 0)
(0.09251 0.0137586 0)
(0.0811377 0.0149977 0)
(0.0690391 0.0156149 0)
(0.0566211 0.0157684 0)
(0.0440909 0.0155774 0)
(0.0312461 0.0148247 0)
(0.0189298 0.012754 0)
(0.00583872 0.0104229 0)
(0.00714853 -0.018109 0)
(0.02052 -0.0213376 0)
(0.034018 -0.0246565 0)
(0.0484434 -0.0265573 0)
(0.0630437 -0.026432 0)
(0.0770764 -0.0245113 0)
(0.0898442 -0.0212552 0)
(0.100784 -0.017074 0)
(0.109453 -0.0122261 0)
(0.115448 -0.00687593 0)
(0.118421 -0.00131421 0)
(0.118295 0.00395153 0)
(0.115376 0.00862386 0)
(0.110058 0.0127163 0)
(0.102571 0.0161439 0)
(0.0932678 0.018844 0)
(0.0827084 0.0205827 0)
(0.0714075 0.0214699 0)
(0.0597548 0.0217523 0)
(0.0479291 0.0216609 0)
(0.035634 0.0211077 0)
(0.0232071 0.0195403 0)
(0.00808871 0.017149 0)
(0.00864117 -0.025488 0)
(0.0219034 -0.0285328 0)
(0.0346424 -0.0317379 0)
(0.0479151 -0.0338514 0)
(0.0613901 -0.0335446 0)
(0.0744473 -0.0311535 0)
(0.0864678 -0.0271391 0)
(0.0969471 -0.0219751 0)
(0.105475 -0.0159414 0)
(0.111638 -0.0092293 0)
(0.115019 -0.00215544 0)
(0.115464 0.00458446 0)
(0.113233 0.0105489 0)
(0.108609 0.0157238 0)
(0.10191 0.020145 0)
(0.0935088 0.0234845 0)
(0.0838155 0.025616 0)
(0.0733623 0.0266663 0)
(0.0624998 0.0269833 0)
(0.0513931 0.0269257 0)
(0.0397089 0.0266175 0)
(0.0273069 0.0259332 0)
(0.0111504 0.0243127 0)
(0.0108506 -0.03276 0)
(0.022986 -0.0337468 0)
(0.0349035 -0.0367027 0)
(0.0469965 -0.0390772 0)
(0.0594566 -0.0389637 0)
(0.0714704 -0.0364216 0)
(0.0826733 -0.0319742 0)
(0.0925983 -0.0261269 0)
(0.100846 -0.0192044 0)
(0.107045 -0.0114264 0)
(0.110778 -0.00316977 0)
(0.11179 0.00470163 0)
(0.110243 0.0116039 0)
(0.106495 0.0175986 0)
(0.100642 0.022748 0)
(0.0930809 0.0266598 0)
(0.0844317 0.0291851 0)
(0.0749818 0.0304981 0)
(0.0650318 0.0309771 0)
(0.0547487 0.0310564 0)
(0.0438326 0.0310538 0)
(0.0317196 0.0312293 0)
(0.0170924 0.029989 0)
(0.0147453 -0.0398808 0)
(0.0254353 -0.0392466 0)
(0.036982 -0.0418797 0)
(0.0474878 -0.0440319 0)
(0.0579811 -0.043664 0)
(0.0685224 -0.0407604 0)
(0.0785297 -0.0358443 0)
(0.0875711 -0.0294207 0)
(0.0952401 -0.0218031 0)
(0.101167 -0.0132021 0)
(0.105057 -0.00401922 0)
(0.106707 0.00484299 0)
(0.106027 0.0126916 0)
(0.103056 0.019561 0)
(0.0981894 0.0252293 0)
(0.0920011 0.0295893 0)
(0.0847756 0.032431 0)
(0.0768372 0.0339656 0)
(0.068338 0.0346169 0)
(0.0594514 0.0349228 0)
(0.0498673 0.0354703 0)
(0.0384476 0.037432 0)
(0.0268774 0.045551 0)
(0.0215316 -0.0500272 0)
(0.0288352 -0.0419681 0)
(0.0393594 -0.044079 0)
(0.0474743 -0.0468337 0)
(0.0559122 -0.0469653 0)
(0.0642508 -0.0443341 0)
(0.0725635 -0.0393224 0)
(0.0803226 -0.0325681 0)
(0.0870281 -0.0244469 0)
(0.0923013 -0.0153275 0)
(0.0959198 -0.00548471 0)
(0.0976227 0.00418919 0)
(0.097043 0.0129281 0)
(0.0946958 0.0207713 0)
(0.0911369 0.028188 0)
(0.0869171 0.0336196 0)
(0.0825794 0.0374938 0)
(0.0781873 0.0398774 0)
(0.073792 0.0411994 0)
(0.0694252 0.0420235 0)
(0.0647114 0.0435059 0)
(0.0576475 0.048297 0)
(0.0512968 0.0756147 0)
(0.00391318 -0.00157924 0)
(0.0133653 -0.00276932 0)
(0.0219323 -0.00206263 0)
(0.0236466 0.000523208 0)
(0.0178466 0.00322827 0)
(0.00693746 0.00276276 0)
(-0.00466377 0.00402699 0)
(-0.025977 0.00990123 0)
(-0.050924 0.00833899 0)
(-0.0672532 0.00371059 0)
(-0.0731748 -0.00145032 0)
(-0.0704218 -0.00245312 0)
(-0.0778145 0.00755645 0)
(-0.0950686 0.00518502 0)
(-0.0902153 -0.00492284 0)
(-0.0727459 -0.00667671 0)
(-0.0501301 -0.00845846 0)
(-0.0224966 -0.00983454 0)
(0.000680484 -0.00147744 0)
(0.00975289 -0.00525901 0)
(0.0220483 -0.00643644 0)
(0.0297941 -0.00318983 0)
(0.0321498 0.00124227 0)
(0.0318032 0.00541555 0)
(0.0208245 0.00870945 0)
(-0.00175743 0.0107979 0)
(-0.0218073 0.0140789 0)
(-0.0359368 0.0126015 0)
(-0.051311 0.00878633 0)
(-0.0660133 0.00367483 0)
(-0.0756886 0.00106477 0)
(-0.0799369 0.00733918 0)
(-0.0795603 0.00439504 0)
(-0.0755143 -0.00731257 0)
(-0.0663929 -0.0120702 0)
(-0.0496222 -0.0161004 0)
(-0.0285077 -0.0181456 0)
(-0.00974072 -0.00625704 0)
(0.00992109 -0.0130971 0)
(0.0227921 -0.012591 0)
(0.0316768 -0.00525372 0)
(0.0377111 -0.000318763 0)
(0.0434023 0.00586014 0)
(0.0345499 0.0160504 0)
(0.00859663 0.0196175 0)
(-0.0101126 0.0197916 0)
(-0.0210374 0.0181794 0)
(-0.0387739 0.0146469 0)
(-0.0605421 0.00910997 0)
(-0.0774925 0.00447744 0)
(-0.0813547 0.00649892 0)
(-0.075509 0.0026074 0)
(-0.0694421 -0.0093926 0)
(-0.0607279 -0.0166909 0)
(-0.0463342 -0.0223473 0)
(-0.0319898 -0.0246389 0)
(-0.0224164 -0.0151902 0)
(0.0093729 -0.0192095 0)
(0.0199362 -0.0183674 0)
(0.0284281 -0.00896523 0)
(0.0344442 -0.00396753 0)
(0.0402598 0.00435423 0)
(0.0402671 0.0243212 0)
(0.0245864 0.0304624 0)
(0.0104352 0.0261325 0)
(0.00504764 0.0235698 0)
(-0.0181977 0.0237819 0)
(-0.0500422 0.0170323 0)
(-0.0741532 0.00930659 0)
(-0.0805845 0.00449244 0)
(-0.0726328 -0.000672719 0)
(-0.0638038 -0.0127088 0)
(-0.0545765 -0.0213866 0)
(-0.0394926 -0.028271 0)
(-0.0244179 -0.0290665 0)
(-0.0188769 -0.0292432 0)
(0.0189412 -0.0242026 0)
(0.0213188 -0.0203992 0)
(0.0267381 -0.0114215 0)
(0.0267881 -0.00444151 0)
(0.0242678 0.00317882 0)
(0.0269035 0.0254695 0)
(0.0295995 0.0338952 0)
(0.0282256 0.0293281 0)
(0.029808 0.0273616 0)
(0.0183998 0.0411608 0)
(-0.0111132 0.032416 0)
(-0.0526051 0.019294 0)
(-0.0687229 0.00520965 0)
(-0.0658743 -0.00485014 0)
(-0.0587415 -0.0160558 0)
(-0.0488845 -0.0276396 0)
(-0.0311373 -0.0358499 0)
(-0.00645152 -0.0344746 0)
(0.0103644 -0.034146 0)
(0.033915 -0.0346761 0)
(0.0300604 -0.0204051 0)
(0.0291963 -0.0120089 0)
(0.0225455 -0.00206136 0)
(0.0142292 0.00380078 0)
(0.0158773 0.0214881 0)
(0.0252024 0.0300743 0)
(0.030323 0.0285367 0)
(0.0297853 0.0268446 0)
(0.025596 0.0471869 0)
(0.0154982 0.0440067 0)
(0.00215588 0.0363162 0)
(-0.0402529 0.0096105 0)
(-0.0529695 -0.00629421 0)
(-0.0547603 -0.018366 0)
(-0.0476118 -0.0346207 0)
(-0.0290637 -0.0458465 0)
(0.00206664 -0.0502498 0)
(0.0452926 -0.0165113 0)
(0.0505796 -0.058683 0)
(0.0436733 -0.0185062 0)
(0.036056 -0.00922911 0)
(0.0256353 0.00262479 0)
(0.013349 0.00646565 0)
(0.0107844 0.0191217 0)
(0.0184372 0.0267457 0)
(0.0240482 0.0281984 0)
(0.0210075 0.0282133 0)
(0.0186647 0.0475126 0)
(0.0191296 0.0442749 0)
(0.0190385 0.0427279 0)
(0.0087931 0.0284547 0)
(-0.0273959 -0.00241595 0)
(-0.0433225 -0.017623 0)
(-0.0421995 -0.0406421 0)
(-0.0299937 -0.0561144 0)
(-0.00855614 -0.070734 0)
(0.0243897 -0.00897199 0)
(0.0664663 -0.0804905 0)
(0.0551542 -0.0168787 0)
(0.0455184 -0.00289164 0)
(0.0329054 0.00766646 0)
(0.0181913 0.01142 0)
(0.00904606 0.0192137 0)
(0.0101198 0.0249755 0)
(0.0134894 0.0271839 0)
(0.0116401 0.0302293 0)
(0.0119123 0.0457245 0)
(0.0155227 0.0446035 0)
(0.0170442 0.0399421 0)
(0.0136162 0.0364682 0)
(-0.00386653 0.0142644 0)
(-0.0212259 -0.0123282 0)
(-0.0278009 -0.0417314 0)
(-0.0244311 -0.0616743 0)
(-0.0162054 -0.0793001 0)
(0.00805777 -0.0110797 0)
(0.0136042 -0.0724446 0)
(0.024717 -0.0624641 0)
(0.0329596 -0.0616544 0)
(0.0373384 -0.0609311 0)
(0.0399508 -0.0598433 0)
(0.0425123 -0.0561844 0)
(0.0454844 -0.0503036 0)
(0.048677 -0.042379 0)
(0.0518288 -0.0326382 0)
(0.054913 -0.0211404 0)
(0.0579222 -0.00849396 0)
(0.0607599 0.00438767 0)
(0.0632978 0.0161167 0)
(0.0655612 0.0258058 0)
(0.0679929 0.0327006 0)
(0.0707328 0.0376902 0)
(0.0734405 0.0405973 0)
(0.0761354 0.0420554 0)
(0.078557 0.0426575 0)
(0.080787 0.0428443 0)
(0.0827538 0.0442637 0)
(0.0853812 0.0493867 0)
(0.100895 0.0660258 0)
(-0.0038981 -0.0784616 0)
(0.00119919 -0.0643134 0)
(0.000363174 -0.0572344 0)
(-0.00201179 -0.0547449 0)
(-0.00465296 -0.0533873 0)
(-0.00608578 -0.0513294 0)
(-0.0057285 -0.0469685 0)
(-0.00386899 -0.0402857 0)
(-0.000638967 -0.0319579 0)
(0.00394445 -0.0223107 0)
(0.00970574 -0.0117991 0)
(0.0164145 -0.00116533 0)
(0.0235223 0.00870216 0)
(0.0307951 0.0169395 0)
(0.0383137 0.0234855 0)
(0.0459415 0.0283997 0)
(0.0533026 0.0317203 0)
(0.0602028 0.0338394 0)
(0.0664662 0.035599 0)
(0.0718628 0.0360632 0)
(0.0768364 0.0379696 0)
(0.0821896 0.0406732 0)
(0.0936528 0.0416283 0)
(-0.0122705 -0.0666713 0)
(-0.0200768 -0.0567199 0)
(-0.0306393 -0.0498608 0)
(-0.0400959 -0.0477532 0)
(-0.047124 -0.0484394 0)
(-0.0508297 -0.0492295 0)
(-0.0513658 -0.0471842 0)
(-0.0495455 -0.0426167 0)
(-0.0456819 -0.0363941 0)
(-0.0398549 -0.0285689 0)
(-0.0325159 -0.0197062 0)
(-0.0239334 -0.0102192 0)
(-0.0145364 -0.000733575 0)
(-0.00491637 0.00732607 0)
(0.00497279 0.0134805 0)
(0.0148872 0.0188534 0)
(0.0240314 0.0230324 0)
(0.0321787 0.0261369 0)
(0.0395124 0.0291795 0)
(0.0459369 0.0301687 0)
(0.0515937 0.0325541 0)
(0.0561746 0.0350348 0)
(0.0607308 0.034916 0)
(-0.0185007 -0.0480655 0)
(-0.0378921 -0.0392401 0)
(-0.0572434 -0.0353824 0)
(-0.0734586 -0.0368111 0)
(-0.0849728 -0.0414888 0)
(-0.0913108 -0.0463866 0)
(-0.0931764 -0.0474509 0)
(-0.0920615 -0.0453151 0)
(-0.0881388 -0.0415852 0)
(-0.0819786 -0.0352874 0)
(-0.0743273 -0.0276124 0)
(-0.0656116 -0.0188344 0)
(-0.0561444 -0.00951268 0)
(-0.0460609 -0.00145725 0)
(-0.0357782 0.00448985 0)
(-0.0256677 0.0105501 0)
(-0.016377 0.0160672 0)
(-0.00819811 0.0193873 0)
(7.32264e-05 0.0223989 0)
(0.00756282 0.0240786 0)
(0.0134445 0.0270113 0)
(0.0183088 0.0317991 0)
(0.0205861 0.0330264 0)
(-0.0296928 -0.0239084 0)
(-0.0585285 -0.0138011 0)
(-0.0861221 -0.0147251 0)
(-0.108182 -0.0217128 0)
(-0.123005 -0.0321372 0)
(-0.132013 -0.0420618 0)
(-0.136783 -0.0456819 0)
(-0.138129 -0.0464077 0)
(-0.135757 -0.045537 0)
(-0.130262 -0.0409827 0)
(-0.123539 -0.0344039 0)
(-0.116037 -0.0266134 0)
(-0.107132 -0.0188854 0)
(-0.0964648 -0.0121817 0)
(-0.0855434 -0.00680834 0)
(-0.0750341 -0.000252427 0)
(-0.0645307 0.00579811 0)
(-0.0543145 0.00862178 0)
(-0.044295 0.0122634 0)
(-0.0345463 0.0158711 0)
(-0.0260028 0.0201841 0)
(-0.0176079 0.0256932 0)
(-0.00818488 0.0272395 0)
(-0.0564286 0.0313059 0)
(-0.0900925 0.0293202 0)
(-0.126465 0.0177554 0)
(-0.153031 0.000321632 0)
(-0.170192 -0.0178481 0)
(-0.1812 -0.0327477 0)
(-0.189013 -0.0405256 0)
(-0.192463 -0.0469073 0)
(-0.190523 -0.0503868 0)
(-0.185277 -0.0479592 0)
(-0.177834 -0.0425797 0)
(-0.168925 -0.036716 0)
(-0.15815 -0.0311051 0)
(-0.145422 -0.0249632 0)
(-0.131736 -0.0190376 0)
(-0.118 -0.0125316 0)
(-0.103926 -0.00634261 0)
(-0.0900177 -0.00235905 0)
(-0.0773425 0.00177284 0)
(-0.0655355 0.00607138 0)
(-0.0541017 0.0104473 0)
(-0.0422099 0.0150082 0)
(-0.0292496 0.0159651 0)
(-0.0772236 0.104571 0)
(-0.115879 0.0839984 0)
(-0.160053 0.0559031 0)
(-0.19339 0.0262612 0)
(-0.214197 -0.00108131 0)
(-0.227136 -0.020736 0)
(-0.235166 -0.0340516 0)
(-0.236969 -0.0462475 0)
(-0.233023 -0.0551826 0)
(-0.225306 -0.056495 0)
(-0.215531 -0.0530651 0)
(-0.204143 -0.0484612 0)
(-0.1912 -0.0441989 0)
(-0.177082 -0.0392863 0)
(-0.161903 -0.0339114 0)
(-0.146113 -0.0278557 0)
(-0.130129 -0.0219605 0)
(-0.114741 -0.0169879 0)
(-0.100383 -0.0121759 0)
(-0.08656 -0.00750568 0)
(-0.072809 -0.00298119 0)
(-0.0588756 0.000835366 0)
(-0.0449682 0.00222749 0)
(-0.0644711 0.165272 0)
(-0.0973172 0.125552 0)
(-0.160938 0.0845063 0)
(-0.206355 0.0419726 0)
(-0.232484 0.00832668 0)
(-0.248407 -0.0140642 0)
(-0.258618 -0.0312348 0)
(-0.261732 -0.0486491 0)
(-0.257432 -0.0615811 0)
(-0.248262 -0.0653614 0)
(-0.236875 -0.0636096 0)
(-0.224842 -0.0611842 0)
(-0.211339 -0.0591925 0)
(-0.196269 -0.0563363 0)
(-0.180226 -0.0518689 0)
(-0.163549 -0.0463501 0)
(-0.146756 -0.040429 0)
(-0.130382 -0.0345263 0)
(-0.114806 -0.0287755 0)
(-0.0997053 -0.0238502 0)
(-0.0845647 -0.0194719 0)
(-0.0691021 -0.0153056 0)
(-0.0542943 -0.0131829 0)
(-0.0375557 0.212065 0)
(-0.0331726 0.171879 0)
(-0.110937 0.112987 0)
(-0.178265 0.0627061 0)
(-0.215996 0.0209078 0)
(-0.245177 -0.00369358 0)
(-0.264464 -0.0256029 0)
(-0.270608 -0.0487417 0)
(-0.267748 -0.0655266 0)
(-0.258645 -0.0706971 0)
(-0.246797 -0.0695864 0)
(-0.233738 -0.0681777 0)
(-0.220369 -0.0667152 0)
(-0.205892 -0.0651549 0)
(-0.18976 -0.0618354 0)
(-0.173154 -0.0570073 0)
(-0.156092 -0.051214 0)
(-0.139351 -0.044923 0)
(-0.123186 -0.038927 0)
(-0.107386 -0.0339418 0)
(-0.0913087 -0.0291563 0)
(-0.0761094 -0.0242223 0)
(-0.0618789 -0.0208607 0)
(-0.165139 0.191654 0)
(-0.036594 0.228917 0)
(-0.0767077 0.215941 0)
(-0.11198 0.121597 0)
(-0.163762 0.0542466 0)
(-0.207467 0.0203352 0)
(-0.234583 -0.0147489 0)
(-0.248635 -0.0517735 0)
(-0.257748 -0.0713987 0)
(-0.259186 -0.073023 0)
(-0.248858 -0.0700052 0)
(-0.235531 -0.0689841 0)
(-0.222374 -0.073318 0)
(-0.209031 -0.0743581 0)
(-0.194928 -0.0717926 0)
(-0.178857 -0.0670368 0)
(-0.162123 -0.0614676 0)
(-0.145077 -0.0548683 0)
(-0.128158 -0.0476709 0)
(-0.112018 -0.0429755 0)
(-0.0969278 -0.0385265 0)
(-0.0802614 -0.030956 0)
(-0.0629675 -0.0237042 0)
(0.0289259 0.540829 0)
(0.0781389 0.232057 0)
(0.0472289 0.326316 0)
(0.00752363 0.243355 0)
(-0.0382632 0.173088 0)
(-0.0741097 0.110644 0)
(-0.0994277 0.0446132 0)
(-0.121032 -0.0194996 0)
(-0.136624 -0.0710857 0)
(-0.143703 -0.10416 0)
(-0.148018 -0.114406 0)
(-0.161785 -0.113771 0)
(-0.191091 -0.09612 0)
(-0.2014 -0.092874 0)
(-0.194128 -0.0862026 0)
(-0.180149 -0.0813499 0)
(-0.163675 -0.0759001 0)
(-0.147136 -0.0701211 0)
(-0.129529 -0.0654961 0)
(-0.112974 -0.0610977 0)
(-0.103275 -0.0612456 0)
(-0.105089 -0.059155 0)
(-0.114774 -0.0680357 0)
(0.100929 -0.0707912 0)
(0.0989423 0.279242 0)
(0.0474053 0.283786 0)
(0.0322939 0.226914 0)
(0.0104743 0.166126 0)
(-0.00873602 0.106074 0)
(-0.0270477 0.0460106 0)
(-0.0462888 -0.00684566 0)
(-0.066345 -0.0480476 0)
(-0.0862461 -0.0734802 0)
(-0.103237 -0.0774943 0)
(-0.118096 -0.0590207 0)
(-0.138233 -0.081009 0)
(-0.145292 -0.0996901 0)
(-0.150159 -0.126986 0)
(-0.150039 -0.134493 0)
(-0.146946 -0.131871 0)
(-0.141494 -0.125313 0)
(-0.136522 -0.114641 0)
(-0.133774 -0.100428 0)
(-0.134149 -0.0716056 0)
(-0.133856 -0.057037 0)
(-0.137825 -0.0263368 0)
(-0.049351 0.257514 0)
(-0.0237223 0.310337 0)
(0.00725172 0.280518 0)
(0.0240494 0.221278 0)
(0.0283307 0.165302 0)
(0.0250962 0.11248 0)
(0.01462 0.0609512 0)
(-0.00351916 0.0135629 0)
(-0.0265972 -0.0250199 0)
(-0.0505076 -0.0489493 0)
(-0.0724534 -0.0564344 0)
(-0.0855212 -0.0556752 0)
(-0.0940231 -0.0546065 0)
(-0.102362 -0.0800945 0)
(-0.111713 -0.0971807 0)
(-0.122037 -0.104247 0)
(-0.129574 -0.10389 0)
(-0.135039 -0.098093 0)
(-0.139619 -0.0903912 0)
(-0.144186 -0.0790748 0)
(-0.145438 -0.0605105 0)
(-0.145181 -0.0362738 0)
(-0.139492 -0.0357113 0)
(-0.0365257 0.165781 0)
(-0.0169474 0.239067 0)
(0.0157057 0.236111 0)
(0.0380172 0.201749 0)
(0.0485822 0.160211 0)
(0.0499099 0.117454 0)
(0.0428689 0.0744979 0)
(0.0277258 0.0339421 0)
(0.0072087 -0.00188666 0)
(-0.014745 -0.025827 0)
(-0.0346192 -0.0367371 0)
(-0.0487995 -0.0407749 0)
(-0.0572379 -0.0502351 0)
(-0.0662769 -0.0657689 0)
(-0.0793974 -0.0801395 0)
(-0.0934869 -0.0878212 0)
(-0.106309 -0.089408 0)
(-0.117112 -0.0864017 0)
(-0.126383 -0.0797414 0)
(-0.134591 -0.0693714 0)
(-0.140153 -0.0548497 0)
(-0.139396 -0.0424845 0)
(-0.132925 -0.0336967 0)
(-0.014607 0.183514 0)
(0.00411917 0.216975 0)
(0.0310304 0.21136 0)
(0.0514667 0.186478 0)
(0.0630137 0.154389 0)
(0.0663934 0.119816 0)
(0.0623118 0.0844884 0)
(0.0512868 0.0500871 0)
(0.0348091 0.0174267 0)
(0.01619 -0.00645848 0)
(-0.00117274 -0.0209603 0)
(-0.0149306 -0.0292239 0)
(-0.0257704 -0.0380425 0)
(-0.0375979 -0.0520759 0)
(-0.0519561 -0.0647329 0)
(-0.067324 -0.0727528 0)
(-0.0820616 -0.0757131 0)
(-0.0953502 -0.0742555 0)
(-0.107003 -0.0692957 0)
(-0.116804 -0.0609936 0)
(-0.123649 -0.0499866 0)
(-0.125732 -0.0396728 0)
(-0.121268 -0.03368 0)
(-0.00111552 0.195155 0)
(0.017988 0.200833 0)
(0.040248 0.190936 0)
(0.0583938 0.171508 0)
(0.0699646 0.146753 0)
(0.0748725 0.119218 0)
(0.0735944 0.0904008 0)
(0.066742 0.0614689 0)
(0.0547496 0.0332232 0)
(0.0394418 0.0100594 0)
(0.0241083 -0.00599045 0)
(0.0104445 -0.016907 0)
(-0.00156394 -0.027114 0)
(-0.0141363 -0.0395678 0)
(-0.0283887 -0.0507546 0)
(-0.0435537 -0.0585338 0)
(-0.0584449 -0.0622925 0)
(-0.0722622 -0.0622986 0)
(-0.0845273 -0.0590808 0)
(-0.0947163 -0.0530715 0)
(-0.102286 -0.0451855 0)
(-0.1058 -0.03794 0)
(-0.102657 -0.0328805 0)
(0.00511783 0.185499 0)
(0.0235727 0.181748 0)
(0.0423856 0.17197 0)
(0.0585646 0.157176 0)
(0.0699512 0.138204 0)
(0.0761153 0.116396 0)
(0.0772639 0.092895 0)
(0.0737248 0.0687602 0)
(0.0658176 0.0450305 0)
(0.054353 0.024003 0)
(0.0413572 0.00790314 0)
(0.0287896 -0.00406104 0)
(0.0170352 -0.0150396 0)
(0.00497314 -0.0263667 0)
(-0.00833979 -0.036453 0)
(-0.0224343 -0.0439168 0)
(-0.0364284 -0.0482396 0)
(-0.0495987 -0.0494888 0)
(-0.061404 -0.0479929 0)
(-0.0713004 -0.0442113 0)
(-0.0788504 -0.0390461 0)
(-0.0830832 -0.0343082 0)
(-0.0808464 -0.0309451 0)
(0.00691334 0.169472 0)
(0.0236127 0.163173 0)
(0.0396032 0.154957 0)
(0.0539725 0.143774 0)
(0.0649701 0.129204 0)
(0.0720003 0.111927 0)
(0.0750005 0.0928147 0)
(0.0740577 0.0727931 0)
(0.0693168 0.0529414 0)
(0.0613563 0.0348128 0)
(0.0514784 0.0197722 0)
(0.0411419 0.00742468 0)
(0.0307898 -0.00366551 0)
(0.0198831 -0.0141407 0)
(0.00808559 -0.0233218 0)
(-0.00433631 -0.0304944 0)
(-0.0167893 -0.0352385 0)
(-0.0286401 -0.0374999 0)
(-0.0393724 -0.037505 0)
(-0.0484567 -0.0356502 0)
(-0.0556427 -0.0327097 0)
(-0.0599945 -0.0301091 0)
(-0.0582061 -0.0283362 0)
(0.00643983 0.154907 0)
(0.0207345 0.147425 0)
(0.0342025 0.140326 0)
(0.0468372 0.13155 0)
(0.0572197 0.120132 0)
(0.0646876 0.106342 0)
(0.0689875 0.0908073 0)
(0.070044 0.0742997 0)
(0.06792 0.0577326 0)
(0.0630001 0.0422075 0)
(0.0561475 0.0285539 0)
(0.0483113 0.0167453 0)
(0.0399085 0.00613724 0)
(0.0307738 -0.0035624 0)
(0.020845 -0.0120281 0)
(0.0104087 -0.0188944 0)
(-9.86798e-05 -0.0239014 0)
(-0.0102547 -0.0269554 0)
(-0.0195788 -0.0281601 0)
(-0.0276001 -0.0278685 0)
(-0.0340534 -0.0267093 0)
(-0.0382127 -0.0258247 0)
(-0.036622 -0.0254221 0)
(0.00513566 0.142961 0)
(0.0168744 0.134489 0)
(0.0280383 0.127895 0)
(0.0389847 0.120563 0)
(0.0485438 0.111304 0)
(0.0560508 0.100118 0)
(0.0611488 0.0874206 0)
(0.0636621 0.0738086 0)
(0.0635826 0.0599917 0)
(0.0611551 0.0467384 0)
(0.0569151 0.0346269 0)
(0.0514647 0.0237562 0)
(0.0451498 0.0139265 0)
(0.038047 0.00501537 0)
(0.0301906 -0.00282798 0)
(0.0218356 -0.00937721 0)
(0.0133289 -0.0144674 0)
(0.0050211 -0.0180405 0)
(-0.00270431 -0.0201853 0)
(-0.00946157 -0.0211173 0)
(-0.0150826 -0.021335 0)
(-0.0187329 -0.0218008 0)
(-0.0170396 -0.0225234 0)
(0.00377753 0.133564 0)
(0.0131601 0.12405 0)
(0.0222624 0.117464 0)
(0.0316031 0.110869 0)
(0.0402029 0.102998 0)
(0.0474357 0.0936791 0)
(0.0529065 0.083152 0)
(0.0563852 0.0718413 0)
(0.0578045 0.0602659 0)
(0.0572925 0.0489654 0)
(0.0551684 0.0383507 0)
(0.0518103 0.0285804 0)
(0.0474886 0.0196361 0)
(0.0423506 0.0115098 0)
(0.0365295 0.00427422 0)
(0.0301996 -0.0019317 0)
(0.0236393 -0.00699444 0)
(0.0171297 -0.0108749 0)
(0.0109688 -0.0136244 0)
(0.00547002 -0.0154267 0)
(0.000848935 -0.0166645 0)
(-0.00217692 -0.0181499 0)
(-0.000253293 -0.0198609 0)
(0.00266063 0.126427 0)
(0.0100688 0.115762 0)
(0.0174294 0.108818 0)
(0.0253192 0.102457 0)
(0.0329224 0.095393 0)
(0.0396779 0.0873492 0)
(0.0451962 0.078422 0)
(0.0492269 0.0688843 0)
(0.0516604 0.0590946 0)
(0.0525388 0.0494242 0)
(0.0520389 0.0401707 0)
(0.050394 0.0314929 0)
(0.0478063 0.0234463 0)
(0.0444284 0.016069 0)
(0.0404065 0.00942332 0)
(0.0359087 0.00358603 0)
(0.0311222 -0.00135237 0)
(0.0262702 -0.00536951 0)
(0.0215845 -0.00850714 0)
(0.0173534 -0.0109036 0)
(0.0136788 -0.0128503 0)
(0.0112558 -0.0150647 0)
(0.0133618 -0.0174643 0)
(0.00186997 0.121063 0)
(0.00775622 0.109202 0)
(0.0137217 0.10168 0)
(0.020375 0.0952226 0)
(0.0270343 0.0885585 0)
(0.0332146 0.0813386 0)
(0.0385588 0.0735511 0)
(0.0428207 0.065345 0)
(0.0458686 0.0569478 0)
(0.0476879 0.0486061 0)
(0.0483642 0.0405286 0)
(0.048037 0.0328506 0)
(0.0468502 0.0256467 0)
(0.0449352 0.0189705 0)
(0.0424234 0.0128781 0)
(0.0394619 0.00742422 0)
(0.0362013 0.00266434 0)
(0.0327918 -0.00136047 0)
(0.0294216 -0.0047001 0)
(0.0263034 -0.00746241 0)
(0.0235912 -0.00990528 0)
(0.0217721 -0.012655 0)
(0.0240754 -0.0154533 0)
(0.00139278 0.116948 0)
(0.00619461 0.103931 0)
(0.0111239 0.0957366 0)
(0.0167874 0.0890028 0)
(0.0226169 0.0824749 0)
(0.028206 0.0757591 0)
(0.0332445 0.0687626 0)
(0.0375075 0.0615376 0)
(0.040859 0.0542092 0)
(0.043253 0.0469286 0)
(0.0447198 0.0398337 0)
(0.0453385 0.0330268 0)
(0.0452074 0.0265766 0)
(0.0444297 0.0205356 0)
(0.0431142 0.0149525 0)
(0.0413792 0.00987219 0)
(0.039354 0.0053295 0)
(0.0371307 0.00137449 0)
(0.0348586 -0.00203701 0)
(0.0327252 -0.00499641 0)
(0.0307964 -0.00773246 0)
(0.0295949 -0.0108277 0)
(0.0321412 -0.013878 0)
(0.00119524 0.113594 0)
(0.0053083 0.0995363 0)
(0.00952632 0.0906778 0)
(0.014449 0.0836006 0)
(0.019595 0.0770653 0)
(0.024632 0.0706477 0)
(0.0293028 0.0641965 0)
(0.0334145 0.0576902 0)
(0.036841 0.0511761 0)
(0.0395243 0.0447325 0)
(0.0414648 0.0384408 0)
(0.0427046 0.0323693 0)
(0.0433089 0.0265707 0)
(0.0433553 0.0210887 0)
(0.0429297 0.0159636 0)
(0.0421249 0.011232 0)
(0.0410409 0.0069238 0)
(0.039748 0.00308454 0)
(0.0383509 -0.000312263 0)
(0.0369841 -0.00335376 0)
(0.0357601 -0.00624039 0)
(0.0350343 -0.00952401 0)
(0.037701 -0.0127148 0)
(0.00123332 0.110594 0)
(0.00498039 0.0956551 0)
(0.00878012 0.0862157 0)
(0.0131931 0.0788155 0)
(0.0178092 0.0722226 0)
(0.022363 0.0659916 0)
(0.0266522 0.0599285 0)
(0.0305211 0.0539577 0)
(0.0338635 0.0480685 0)
(0.0366231 0.0422842 0)
(0.0387884 0.0366419 0)
(0.040381 0.0311793 0)
(0.0414448 0.0259309 0)
(0.0420375 0.020929 0)
(0.0422252 0.0162054 0)
(0.0420799 0.0117903 0)
(0.0416779 0.00771143 0)
(0.0410674 0.00401487 0)
(0.0403207 0.000684935 0)
(0.03957 -0.00236005 0)
(0.0388446 -0.00529871 0)
(0.0385368 -0.00866063 0)
(0.0413198 -0.0118888 0)
(0.00147493 0.107606 0)
(0.00510614 0.0919835 0)
(0.00872518 0.0821025 0)
(0.0128266 0.0744627 0)
(0.0170559 0.0678322 0)
(0.0212069 0.0617492 0)
(0.0251297 0.0559893 0)
(0.0287088 0.0504377 0)
(0.031863 0.0450411 0)
(0.0345476 0.0397829 0)
(0.0367507 0.0346659 0)
(0.0384857 0.0297031 0)
(0.0397846 0.0249123 0)
(0.0406915 0.0203148 0)
(0.0412582 0.0159348 0)
(0.0415404 0.0117984 0)
(0.0415954 0.00793196 0)
(0.0414541 0.00438768 0)
(0.041171 0.00115113 0)
(0.0408354 -0.00184849 0)
(0.0405294 -0.00477722 0)
(0.0404881 -0.00813744 0)
(0.0432407 -0.0113301 0)
(0.00187676 0.104361 0)
(0.00556731 0.0882828 0)
(0.00920101 0.0781383 0)
(0.0131502 0.0703849 0)
(0.0171149 0.0637861 0)
(0.020941 0.057867 0)
(0.0245282 0.0523809 0)
(0.0278 0.0471852 0)
(0.0307036 0.042197 0)
(0.0332115 0.0373705 0)
(0.0353188 0.0326843 0)
(0.0370392 0.0281323 0)
(0.0384001 0.023719 0)
(0.039438 0.0194568 0)
(0.040195 0.0153646 0)
(0.0407153 0.0114657 0)
(0.0410441 0.00778753 0)
(0.0411933 0.0043905 0)
(0.0412084 0.00125469 0)
(0.0411788 -0.0016781 0)
(0.0411138 -0.00456034 0)
(0.0412912 -0.00787244 0)
(0.0439891 -0.0109779 0)
(0.00239573 0.100657 0)
(0.00626687 0.0843789 0)
(0.0100538 0.0741716 0)
(0.0139696 0.0664574 0)
(0.0177663 0.0599923 0)
(0.0213356 0.0542902 0)
(0.0246226 0.0490886 0)
(0.0275884 0.044226 0)
(0.0302089 0.039599 0)
(0.0324765 0.0351426 0)
(0.0343983 0.0308186 0)
(0.0359934 0.0266079 0)
(0.0372897 0.0225058 0)
(0.0383212 0.0185186 0)
(0.0391248 0.0146621 0)
(0.0397372 0.0109593 0)
(0.0401937 0.00744075 0)
(0.040497 0.00417428 0)
(0.0406886 0.00113247 0)
(0.0408179 -0.00173004 0)
(0.0409537 -0.00455069 0)
(0.0412271 -0.00778875 0)
(0.0437494 -0.0107765 0)
(0.00298272 0.0963645 0)
(0.00710738 0.080154 0)
(0.0111449 0.0700965 0)
(0.015109 0.0625887 0)
(0.0188075 0.0563782 0)
(0.0221736 0.0509702 0)
(0.0251936 0.046091 0)
(0.0278637 0.0415668 0)
(0.0301881 0.0372815 0)
(0.0321799 0.0331585 0)
(0.0338603 0.0291495 0)
(0.035257 0.0252278 0)
(0.036402 0.0213834 0)
(0.0373299 0.0176199 0)
(0.0380759 0.013952 0)
(0.0386735 0.0104044 0)
(0.0391488 0.00701591 0)
(0.0395019 0.00385399 0)
(0.0397685 0.000890226 0)
(0.0400032 -0.00190755 0)
(0.0402061 -0.00466369 0)
(0.0405601 -0.00781936 0)
(0.0429302 -0.010665 0)
(0.00360269 0.0914033 0)
(0.00802438 0.0755384 0)
(0.0123617 0.0658479 0)
(0.016422 0.0587186 0)
(0.0200666 0.0528928 0)
(0.0232662 0.0478688 0)
(0.026045 0.0433661 0)
(0.0284321 0.0392038 0)
(0.0304583 0.0352594 0)
(0.0321573 0.031451 0)
(0.0335652 0.0277261 0)
(0.0347192 0.0240551 0)
(0.0356574 0.0204264 0)
(0.036417 0.0168435 0)
(0.0370341 0.0133225 0)
(0.0375415 0.00989143 0)
(0.0379595 0.0066016 0)
(0.0382942 0.00351289 0)
(0.0385725 0.000606476 0)
(0.0388184 -0.00213826 0)
(0.0390867 -0.00483882 0)
(0.039426 -0.00790347 0)
(0.041544 -0.0106014 0)
(0.00422943 0.0857404 0)
(0.00896724 0.0705014 0)
(0.0136267 0.0613939 0)
(0.0178044 0.0548147 0)
(0.0214156 0.0495061 0)
(0.0244664 0.0449617 0)
(0.027018 0.0408973 0)
(0.0291306 0.0371301 0)
(0.0308603 0.0335369 0)
(0.0322603 0.0300358 0)
(0.0333806 0.0265752 0)
(0.0342683 0.0231268 0)
(0.0349673 0.0196807 0)
(0.0355191 0.0162427 0)
(0.0359615 0.0128321 0)
(0.0363293 0.00948184 0)
(0.0366424 0.00625604 0)
(0.0369089 0.00320811 0)
(0.037149 0.000333732 0)
(0.0373944 -0.00237723 0)
(0.0376364 -0.00502845 0)
(0.0379613 -0.00801123 0)
(0.039843 -0.0105547 0)
(0.00485588 0.0793667 0)
(0.00992651 0.0650361 0)
(0.0149053 0.0567259 0)
(0.0192009 0.0508678 0)
(0.0227763 0.0462091 0)
(0.0256757 0.0422406 0)
(0.0279985 0.0386781 0)
(0.0298361 0.0353419 0)
(0.0312691 0.032114 0)
(0.0323681 0.0289182 0)
(0.0331956 0.0257086 0)
(0.0338065 0.0224618 0)
(0.0342502 0.0191722 0)
(0.0345716 0.0158495 0)
(0.034812 0.0125172 0)
(0.0350092 0.00921382 0)
(0.0351853 0.00601572 0)
(0.035356 0.00297466 0)
(0.0355354 0.000104175 0)
(0.0357271 -0.00259418 0)
(0.0359667 -0.00521027 0)
(0.0362146 -0.00810227 0)
(0.0377955 -0.0105122 0)
(0.0054906 0.0722787 0)
(0.0109205 0.0591407 0)
(0.0162145 0.0518486 0)
(0.0206111 0.0468889 0)
(0.0241236 0.0430153 0)
(0.0268442 0.0397172 0)
(0.028917 0.0367162 0)
(0.0304667 0.0338431 0)
(0.031597 0.0309924 0)
(0.0323936 0.0280998 0)
(0.0329279 0.0251299 0)
(0.03326 0.0220676 0)
(0.0334422 0.0189136 0)
(0.0335219 0.0156818 0)
(0.0335434 0.0123998 0)
(0.0335495 0.00911129 0)
(0.0335698 0.00590334 0)
(0.0336249 0.00283356 0)
(0.0337244 -6.46379e-05 0)
(0.0338769 -0.00277172 0)
(0.0340591 -0.00535712 0)
(0.0342531 -0.00816743 0)
(0.035591 -0.0104414 0)
(0.00617771 0.0644372 0)
(0.0120241 0.0527984 0)
(0.0176273 0.0467756 0)
(0.0220865 0.0429125 0)
(0.0254766 0.0399656 0)
(0.0279612 0.0374276 0)
(0.0297407 0.0350374 0)
(0.0309761 0.0326484 0)
(0.0317918 0.0301777 0)
(0.0322841 0.0275809 0)
(0.0325283 0.0248382 0)
(0.0325851 0.0219454 0)
(0.0325058 0.0189104 0)
(0.032338 0.0157505 0)
(0.0321286 0.0124956 0)
(0.031927 0.00919168 0)
(0.0317745 0.00593469 0)
(0.0317033 0.0027966 0)
(0.031721 -0.000162546 0)
(0.0318084 -0.00289965 0)
(0.0319641 -0.00546953 0)
(0.0320776 -0.00817405 0)
(0.0331393 -0.0103439 0)
(0.00700747 0.0557344 0)
(0.0133613 0.0459609 0)
(0.019272 0.041533 0)
(0.0237175 0.0390077 0)
(0.0268807 0.037137 0)
(0.0290365 0.0354362 0)
(0.030458 0.0336855 0)
(0.0313427 0.0317816 0)
(0.0318297 0.0296782 0)
(0.0320183 0.0273601 0)
(0.0319804 0.0248279 0)
(0.0317706 0.022091 0)
(0.0314343 0.0191631 0)
(0.0310155 0.0160634 0)
(0.0305622 0.0128179 0)
(0.0301328 0.00947163 0)
(0.0297885 0.00612317 0)
(0.029577 0.00287087 0)
(0.0295059 -0.000188241 0)
(0.0295466 -0.00297927 0)
(0.0296471 -0.00553123 0)
(0.0296925 -0.00814596 0)
(0.0305215 -0.0101995 0)
(0.00814656 0.045945 0)
(0.0151177 0.0385363 0)
(0.0213083 0.0361756 0)
(0.0255968 0.0352946 0)
(0.0283681 0.0346503 0)
(0.0300686 0.0338343 0)
(0.0310559 0.0327167 0)
(0.031555 0.0312683 0)
(0.031707 0.0294981 0)
(0.031602 0.0274291 0)
(0.0312991 0.0250869 0)
(0.0308388 0.0224942 0)
(0.0302547 0.0196696 0)
(0.0295815 0.0166276 0)
(0.0288668 0.0133851 0)
(0.0281794 0.00997319 0)
(0.0276101 0.00648561 0)
(0.0272404 0.00306088 0)
(0.0270788 -0.000141377 0)
(0.0270545 -0.00300958 0)
(0.0271001 -0.00555725 0)
(0.0270657 -0.00805128 0)
(0.0276338 -0.0100292 0)
(0.00985277 0.0347177 0)
(0.017501 0.0304229 0)
(0.0238583 0.0308459 0)
(0.02774 0.0319798 0)