/*--------------------------------*- C++ -*----------------------------------*\
  =========                 |
  \\      /  F ield         | OpenFOAM: The Open Source CFD Toolbox
   \\    /   O peration     | Website:  https://openfoam.org
    \\  /    A nd           | Version:  13
     \\/     M anipulation  |
\*---------------------------------------------------------------------------*/
FoamFile
{
    format      ascii;
    class       surfaceScalarField;
    location    "0.0008";
    object      meshPhi;
}
// * * * * * * * * * * * * * * * * * * * * * * * * * * * * * * * * * * * * * //

dimensions      [0 3 -1 0 0 0 0];

internalField   nonuniform List<scalar> 
3252
(
1.40694e-11
-3.81437e-25
2.81388e-11
-3.81437e-25
4.22082e-11
0
5.62777e-11
0
7.03482e-11
-3.80152e-25
8.43649e-11
3.79737e-25
9.77325e-11
0
1.21488e-24
4.22082e-11
-5.0847e-27
8.44164e-11
0
1.26625e-10
-1.52066e-24
1.68833e-10
0
2.11045e-10
-1.5257e-24
2.53096e-10
4.56196e-24
2.93198e-10
1.51571e-24
0
7.03471e-11
1.52541e-26
1.40694e-10
9.13924e-24
2.11041e-10
0
2.81389e-10
4.57725e-24
3.51741e-10
-9.13893e-24
4.21831e-10
-9.12915e-24
4.88666e-10
0
0
9.8486e-11
-6.08266e-24
1.96972e-10
1.82886e-23
2.95458e-10
-6.10299e-24
3.93944e-10
6.103e-24
4.92437e-10
1.21853e-23
5.90572e-10
-6.07612e-24
6.84138e-10
-1.21398e-23
0
1.26625e-10
-1.52066e-23
2.5325e-10
-1.52066e-23
3.79874e-10
-1.52575e-23
5.065e-10
0
6.33133e-10
0
7.59321e-10
-3.04322e-23
8.79614e-10
-1.5194e-23
-1.62373e-23
1.54764e-10
-5.48049e-23
3.09527e-10
0
4.64291e-10
-1.8309e-23
6.19055e-10
3.6496e-23
7.73829e-10
1.83084e-23
9.28082e-10
-1.82905e-23
1.0751e-09
-3.6393e-23
0
1.82903e-10
-4.2721e-23
3.65805e-10
-7.11857e-26
5.48707e-10
-2.13605e-23
7.31611e-10
0
9.14524e-10
-7.11898e-26
1.09686e-09
0
1.27058e-09
0
2.26917e-23
2.11041e-10
-2.44933e-23
4.22083e-10
0
6.33124e-10
8.13551e-26
8.44166e-10
2.4412e-23
1.05522e-09
-2.433e-23
1.26565e-09
-2.4309e-23
1.46608e-09
0
0
2.3918e-10
-2.7372e-23
4.7836e-10
9.15245e-26
7.1754e-10
9.15244e-26
9.56721e-10
-2.7372e-23
1.19591e-09
0
1.43446e-09
-2.74409e-23
1.66159e-09
-8.6908e-26
7.3555e-26
2.67319e-10
0
5.34638e-10
-6.103e-23
8.01957e-10
0
1.06928e-09
0
1.3366e-09
0
1.60329e-09
0
1.8571e-09
0
-1.63427e-25
2.95458e-10
6.69093e-23
5.90916e-10
-6.7133e-23
8.86373e-10
-2.23726e-25
1.18183e-09
-6.73568e-23
1.47729e-09
-2.23728e-25
1.77215e-09
-6.70902e-23
2.05263e-09
-6.68251e-23
0
3.23597e-10
1.46228e-22
6.47193e-10
7.3236e-23
9.7079e-10
7.32359e-23
1.29439e-09
0
1.61798e-09
1.46224e-22
1.94103e-09
0
2.24817e-09
0
0
3.51736e-10
0
7.03471e-10
-7.93389e-23
1.05521e-09
7.90745e-23
1.40694e-09
-7.90746e-23
1.75867e-09
0
2.10995e-09
0
2.44373e-09
-1.56898e-22
0
3.79875e-10
8.51572e-23
7.59749e-10
8.51572e-23
1.13962e-09
-8.54419e-23
1.5195e-09
-1.70599e-22
1.89936e-09
0
2.27883e-09
2.55666e-22
2.63915e-09
-2.70002e-25
-2.28825e-25
4.08014e-10
9.1545e-23
8.16026e-10
9.12399e-23
1.22404e-09
0
1.63205e-09
-9.15451e-23
2.04005e-09
0
2.44749e-09
-9.12043e-23
2.83749e-09
-9.0788e-23
-9.72035e-23
1.41568e-09
3.21122e-24
1.36309e-09
3.35709e-24
1.30847e-09
5.38324e-27
1.25185e-09
-7.22874e-24
1.19315e-09
5.78641e-27
1.13226e-09
6.001e-27
1.06911e-09
-4.0328e-24
1.00362e-09
0
9.35697e-10
6.69459e-27
8.65251e-10
6.94319e-27
7.92189e-10
7.20104e-27
7.16413e-10
-4.83989e-24
6.37823e-10
0
5.56314e-10
8.03362e-27
4.71777e-10
8.33202e-27
3.84099e-10
8.64152e-27
2.93165e-10
8.96251e-27
1.98855e-10
1.85907e-26
1.01046e-10
-6.24819e-24
9.95974e-27
3.85563e-09
-1.23356e-23
3.7124e-09
1.29565e-23
3.56365e-09
1.34852e-23
3.40945e-09
-1.39274e-23
3.24956e-09
1.44906e-23
3.08373e-09
1.50524e-23
2.91176e-09
-1.55637e-23
2.73339e-09
2.49108e-26
2.5484e-09
2.58358e-26
2.35655e-09
1.73909e-23
2.15757e-09
2.77903e-26
1.95119e-09
1.87362e-23
1.73716e-09
-1.93427e-23
1.51517e-09
-2.00924e-23
1.28493e-09
3.21551e-26
1.04615e-09
2.16467e-23
7.98493e-10
3.45883e-26
5.4164e-10
2.33212e-23
2.75262e-10
2.41879e-23
3.84495e-26
5.77914e-09
0
5.56443e-09
5.7938e-26
5.34148e-09
0
5.11036e-09
-4.04552e-23
4.87071e-09
6.4663e-26
4.62217e-09
6.70613e-26
4.3644e-09
4.51382e-23
4.09706e-09
4.68156e-23
3.8198e-09
7.48124e-26
3.53224e-09
7.75906e-26
3.23399e-09
5.22309e-23
2.92468e-09
1.08343e-22
2.60387e-09
5.61846e-23
2.27114e-09
8.97767e-26
1.92606e-09
-1.20782e-22
1.56815e-09
9.65703e-26
1.19695e-09
6.50124e-23
8.1197e-10
0
4.12707e-10
-1.39653e-22
1.11375e-25
7.26938e-09
7.15299e-26
6.99926e-09
7.46146e-26
6.71882e-09
1.50536e-22
6.42812e-09
-5.19287e-23
6.12668e-09
5.40281e-23
5.81407e-09
-5.58635e-23
5.48984e-09
8.955e-26
5.15358e-09
9.28753e-26
4.80482e-09
9.63242e-26
4.44312e-09
6.49413e-23
4.06798e-09
0
3.67891e-09
-6.96423e-23
3.27539e-09
0
2.85688e-09
7.50294e-23
2.42282e-09
0
1.97264e-09
-8.05845e-23
1.50574e-09
8.35788e-23
1.02149e-09
1.33748e-25
5.1928e-10
0
0
8.39728e-09
1.1133e-22
8.08518e-09
5.82631e-23
7.76124e-09
6.05372e-23
7.42546e-09
0
7.07727e-09
6.51455e-23
6.71615e-09
-6.75667e-23
6.34164e-09
7.00775e-23
5.95321e-09
0
5.55036e-09
0
5.13255e-09
0
4.69922e-09
8.10888e-23
4.2498e-09
-8.41019e-23
3.78368e-09
-1.74723e-22
3.30025e-09
0
2.79886e-09
1.87804e-22
2.27884e-09
-9.74661e-23
1.7395e-09
-1.00932e-22
1.18014e-09
1.04682e-22
6.00016e-10
1.08572e-22
1.12684e-22
9.2233e-09
6.46068e-23
8.88041e-09
0
8.52463e-09
7.02159e-23
8.15583e-09
-7.28475e-23
7.7734e-09
0
7.37679e-09
-7.84871e-23
6.96544e-09
8.14037e-23
6.53882e-09
-8.45587e-23
6.09636e-09
8.7566e-23
5.63747e-09
9.08198e-23
5.16153e-09
-1.88244e-22
4.66791e-09
9.75441e-23
4.15596e-09
-1.56101e-25
3.62499e-09
1.05089e-22
3.07429e-09
2.17821e-22
2.50314e-09
0
1.91076e-09
2.34308e-22
1.29639e-09
-1.21601e-22
6.59212e-10
0
0
9.79888e-09
-1.45527e-22
9.43449e-09
1.5274e-22
9.05653e-09
1.58674e-22
8.66474e-09
-1.64362e-22
8.25847e-09
1.70476e-22
7.83711e-09
1.77085e-22
7.40011e-09
0
6.94689e-09
-1.9049e-22
6.47683e-09
0
5.98931e-09
0
5.48369e-09
3.27417e-25
4.95928e-09
2.2042e-22
4.4154e-09
2.2861e-22
3.8513e-09
0
3.26626e-09
2.45915e-22
2.65948e-09
2.55052e-22
2.03015e-09
2.64529e-22
1.37745e-09
0
7.00524e-10
2.84553e-22
2.95286e-22
1.01678e-08
0
9.78954e-09
2.61011e-25
9.39738e-09
0
8.99086e-09
0
8.56931e-09
0
8.13211e-09
3.01647e-25
7.67868e-09
2.02742e-22
7.2084e-09
0
6.72066e-09
-3.36518e-25
6.21481e-09
2.26193e-22
5.69017e-09
0
5.14604e-09
2.43315e-22
4.58169e-09
0
3.99638e-09
2.61732e-22
3.38933e-09
0
2.75972e-09
-5.63956e-22
2.10672e-09
-4.50541e-25
1.42946e-09
3.02855e-22
7.27063e-10
0
0
1.03671e-08
0
9.98128e-09
0
9.58146e-09
1.90721e-22
9.16701e-09
3.96002e-22
8.73721e-09
0
8.29146e-09
-2.12831e-22
7.82915e-09
0
7.34967e-09
-2.28942e-22
6.85239e-09
0
6.33664e-09
2.46652e-22
5.80173e-09
0
5.24695e-09
0
4.67156e-09
5.49938e-22
4.07479e-09
2.85406e-22
3.45585e-09
2.9601e-22
2.81392e-09
0
2.14814e-09
3.17926e-22
1.45763e-09
3.30248e-22
7.4147e-10
0
-3.54849e-22
1.04282e-08
-3.77063e-22
1.004e-08
1.9788e-22
9.63784e-09
3.16883e-25
9.22097e-09
2.13175e-22
8.78866e-09
0
8.34029e-09
3.5331e-25
7.87527e-09
2.37837e-22
7.39298e-09
2.46675e-22
6.89278e-09
2.55841e-22
6.374e-09
-2.64939e-22
5.83596e-09
8.25622e-22
5.27792e-09
4.39731e-25
4.69915e-09
-2.95126e-22
4.09888e-09
0
3.47631e-09
3.18937e-22
2.83061e-09
-3.2977e-22
2.16092e-09
0
1.46636e-09
3.55279e-22
7.45986e-10
-3.67344e-22
-3.81725e-22
1.03777e-08
-2.00389e-22
9.99125e-09
-2.10549e-22
9.59108e-09
-2.18297e-22
9.17625e-09
2.27489e-22
8.74605e-09
-2.35219e-22
8.29987e-09
-2.4396e-22
7.83711e-09
2.53415e-22
7.35717e-09
4.04932e-25
6.85941e-09
4.19971e-25
6.34315e-09
-2.81856e-22
5.80772e-09
-2.92329e-22
5.2524e-09
-3.03191e-22
4.67645e-09
4.85939e-25
4.0791e-09
5.03992e-25
3.45956e-09
3.39827e-22
2.817e-09
3.52453e-22
2.15057e-09
3.64987e-22
1.45938e-09
3.79131e-22
7.42506e-10
0
-4.06707e-22
1.02381e-08
0
9.85665e-09
2.22617e-22
9.4619e-09
0
9.05268e-09
0
8.62828e-09
-3.83708e-25
8.18811e-09
-2.58299e-22
7.7316e-09
-4.12741e-25
7.25813e-09
-2.77852e-22
6.76708e-09
0
6.25778e-09
-4.60461e-25
5.72957e-09
0
5.18174e-09
-4.95307e-25
4.61355e-09
-3.33454e-22
4.02426e-09
3.45843e-22
3.41307e-09
-3.58693e-22
2.77917e-09
7.44042e-22
2.12172e-09
0
1.43984e-09
-4.0018e-22
7.3263e-10
4.14409e-22
0
1.00281e-08
0
9.65435e-09
0
9.26773e-09
0
8.86692e-09
3.88564e-25
8.45124e-09
2.61158e-22
8.02012e-09
-2.70444e-22
7.57298e-09
2.80926e-22
7.10923e-09
-2.91365e-22
6.62826e-09
-3.02191e-22
6.12943e-09
0
5.61206e-09
3.25567e-22
5.07548e-09
-3.37144e-22
4.51896e-09
-3.49131e-22
3.94176e-09
0
3.34312e-09
0
2.72223e-09
3.90716e-22
2.07828e-09
4.05233e-22
1.41041e-09
4.2029e-22
7.17706e-10
0
6.9584e-25
9.76368e-09
0
9.39958e-09
-4.89328e-22
9.02321e-09
3.91432e-25
8.63298e-09
2.63409e-22
8.22828e-09
0
7.80853e-09
5.6713e-22
7.3732e-09
2.93422e-22
6.92169e-09
-3.03856e-22
6.45342e-09
-3.15633e-22
5.96775e-09
5.05112e-25
5.46404e-09
-3.39525e-22
4.94162e-09
-7.04825e-22
4.39979e-09
5.63524e-25
3.83783e-09
3.78795e-22
3.25499e-09
3.93475e-22
2.65049e-09
-4.07467e-22
2.02354e-09
4.23259e-22
1.37329e-09
-4.38309e-22
6.98865e-10
-4.54593e-22
-4.71586e-22
9.45797e-09
-2.4145e-22
9.10511e-09
-2.53998e-22
8.74055e-09
2.6403e-22
8.36257e-09
4.21895e-25
7.97054e-09
5.68024e-22
7.56395e-09
-2.93657e-22
7.14226e-09
6.11019e-22
6.70491e-09
-3.16373e-22
6.2513e-09
1.01261e-24
5.78086e-09
-3.39797e-22
5.29293e-09
-3.52967e-22
4.78688e-09
7.33293e-22
4.26202e-09
5.85836e-25
3.71767e-09
-7.87583e-22
3.15309e-09
4.09053e-22
2.56754e-09
1.30718e-24
1.96023e-09
-8.78675e-22
1.33035e-09
-4.56364e-22
6.77056e-10
9.46638e-22
1.51154e-24
9.12202e-09
5.01083e-22
8.78153e-09
0
8.42996e-09
4.21262e-25
8.06542e-09
5.67071e-22
7.68733e-09
4.53061e-25
7.2952e-09
6.09986e-22
6.88849e-09
3.16813e-22
6.46668e-09
0
6.0292e-09
3.4027e-22
5.57547e-09
-1.05765e-21
5.10489e-09
-1.09695e-21
4.61683e-09
0
4.11063e-09
0
3.58562e-09
-1.22446e-21
3.04111e-09
6.52488e-25
2.47636e-09
4.39272e-22
1.89064e-09
-4.54891e-22
1.28315e-09
0
6.53069e-10
-9.78641e-22
0
8.76499e-09
0
8.43767e-09
4.21295e-25
8.0999e-09
5.64174e-22
7.74964e-09
2.93e-22
7.38636e-09
3.03415e-22
7.00958e-09
6.2986e-22
6.6188e-09
3.26883e-22
6.21351e-09
5.21523e-25
5.79317e-09
0
5.35721e-09
3.64131e-22
4.90505e-09
5.81824e-25
4.4361e-09
3.92297e-22
3.94972e-09
0
3.44527e-09
0
2.92208e-09
0
2.37946e-09
0
1.81667e-09
-9.38701e-22
1.23297e-09
-4.8754e-22
6.2756e-10
7.79029e-25
5.2532e-22
8.39442e-09
4.09329e-25
8.08079e-09
5.5938e-22
7.75734e-09
-2.89728e-22
7.42191e-09
4.63597e-25
7.07399e-09
4.80849e-25
6.71315e-09
-3.237e-22
6.3389e-09
5.17247e-25
5.95075e-09
-3.47666e-22
5.54819e-09
-3.60028e-22
5.13067e-09
0
4.69764e-09
3.88477e-22
4.24852e-09
8.05202e-22
3.78271e-09
4.17882e-22
3.2996e-09
4.34076e-22
2.79855e-09
8.98332e-22
2.27887e-09
-4.65496e-22
1.73988e-09
0
1.18087e-09
5.02276e-22
6.0107e-10
0
0
8.01651e-09
-5.44923e-22
7.71686e-09
-5.73059e-22
7.40801e-09
0
7.08769e-09
0
6.75545e-09
0
6.41086e-09
-6.63133e-22
6.05347e-09
0
5.6828e-09
7.14429e-22
5.29836e-09
7.40976e-22
4.89965e-09
0
4.48612e-09
-7.95836e-22
4.05723e-09
1.27359e-24
3.6124e-09
0
3.15105e-09
8.87883e-22
2.67256e-09
0
2.17629e-09
9.56562e-22
1.66158e-09
-1.52842e-24
1.12774e-09
0
5.74047e-10
1.64419e-24
1.70469e-24
7.63585e-09
0
7.35077e-09
0
7.05662e-09
-6.08439e-22
6.7515e-09
0
6.43502e-09
0
6.10678e-09
1.35842e-21
5.76634e-09
-7.03903e-22
5.41326e-09
-7.30058e-22
5.04706e-09
7.58354e-22
4.66726e-09
7.86532e-22
4.27335e-09
0
3.86481e-09
8.46068e-22
3.44109e-09
0
3.00162e-09
-9.10108e-22
2.54583e-09
0
2.0731e-09
0
1.58281e-09
1.01537e-21
1.0743e-09
0
5.46874e-10
0
1.74493e-24
1.06146e-09
2.10866e-22
2.12292e-09
-1.06138e-22
3.18438e-09
-3.52539e-25
4.24584e-09
-2.11571e-22
5.30726e-09
-1.06138e-22
6.36659e-09
-1.06097e-22
7.3975e-09
-2.11397e-22
9.08332e-23
8.13638e-09
1.21466e-09
-2.40051e-22
2.42932e-09
2.39251e-22
3.64398e-09
2.39251e-22
4.85863e-09
2.40052e-22
6.07326e-09
0
7.28542e-09
0
8.47742e-09
2.38874e-22
-2.04331e-22
9.20789e-09
1.36786e-09
-8.94908e-25
2.73572e-09
-8.94906e-25
4.10358e-09
-2.68532e-22
5.47143e-09
-2.68532e-22
6.83926e-09
2.67639e-22
8.20503e-09
0
9.54806e-09
0
0
1.03601e-08
1.52106e-09
-2.97013e-22
3.04212e-09
-9.89821e-25
4.56318e-09
-5.94025e-22
6.08423e-09
-9.89816e-25
7.60526e-09
-9.89798e-25
9.12508e-09
0
1.06137e-08
0
-5.82652e-25
1.15113e-08
1.67426e-09
-3.24409e-22
3.34852e-09
0
5.02278e-09
-3.24408e-22
6.69703e-09
-3.24409e-22
8.37126e-09
3.24413e-22
1.00452e-08
0
1.16807e-08
3.21247e-22
0
1.26645e-08
1.82746e-09
-1.17965e-24
3.65492e-09
-3.53974e-22
5.48238e-09
0
7.30983e-09
3.52794e-22
9.13726e-09
-3.53978e-22
1.09651e-08
-3.55166e-22
1.2749e-08
-3.50208e-22
2.95501e-22
1.38201e-08
1.98066e-09
-1.27457e-24
3.96132e-09
-1.27456e-24
5.94198e-09
0
7.92263e-09
3.8118e-22
9.90327e-09
0
1.18849e-08
-3.82477e-22
1.38191e-08
1.24523e-24
3.19114e-22
1.49785e-08
2.13386e-09
4.10935e-22
4.26773e-09
-8.20501e-22
6.40158e-09
4.10935e-22
8.53543e-09
0
1.06693e-08
4.10938e-22
1.28044e-08
8.21928e-22
1.48912e-08
-4.06832e-22
8.019e-25
1.61403e-08
2.28706e-09
4.39416e-22
4.57413e-09
4.37951e-22
6.86119e-09
-4.37951e-22
9.14824e-09
0
1.14353e-08
8.77367e-22
1.37237e-08
-4.3798e-22
1.59656e-08
-4.34198e-22
0
1.7306e-08
2.44027e-09
9.34234e-22
4.88053e-09
4.67896e-22
7.32079e-09
4.66337e-22
9.76104e-09
-4.66336e-22
1.22013e-08
1.55928e-24
1.46427e-08
0
1.70426e-08
4.64814e-22
7.85082e-22
1.84761e-08
2.59347e-09
0
5.18693e-09
-9.92754e-22
7.78039e-09
0
1.03738e-08
-9.92751e-22
1.29673e-08
0
1.55613e-08
0
1.81224e-08
0
8.35881e-22
1.96511e-08
2.74667e-09
1.04972e-21
5.49333e-09
0
8.23999e-09
-1.04622e-21
1.09866e-08
0
1.37333e-08
-1.04969e-21
1.64795e-08
0
1.92051e-08
0
-2.07667e-24
2.08315e-08
2.89987e-09
1.10299e-21
5.79973e-09
0
8.69959e-09
-1.10299e-21
1.15994e-08
-3.6881e-24
1.44993e-08
1.10296e-21
1.73976e-08
-2.20934e-21
2.02914e-08
0
-9.46566e-22
2.20178e-08
3.05307e-09
1.15588e-21
6.10613e-09
-3.87793e-24
9.15919e-09
-3.87793e-24
1.22123e-08
-7.75585e-24
1.52653e-08
1.15973e-21
1.83159e-08
-1.1595e-21
2.13651e-08
-3.86477e-24
-2.36232e-24
2.32065e-08
3.20627e-09
6.41253e-09
9.61879e-09
1.28251e-08
1.60313e-08
1.92348e-08
2.24197e-08
2.46189e-08
8.34192e-09
-1.76662e-09
8.4688e-09
-1.83301e-09
8.58058e-09
-1.88262e-09
8.68458e-09
-1.93035e-09
8.78142e-09
-1.97789e-09
8.87121e-09
-2.02539e-09
8.95397e-09
-2.07289e-09
9.0297e-09
-2.12039e-09
9.0984e-09
-2.16788e-09
9.16007e-09
-2.21538e-09
9.21471e-09
-2.26288e-09
9.26233e-09
-2.31037e-09
9.30292e-09
-2.35787e-09
9.33649e-09
-2.40537e-09
9.36302e-09
-2.45286e-09
9.38253e-09
-2.50036e-09
9.39501e-09
-2.54786e-09
9.40046e-09
-2.59535e-09
9.39889e-09
-2.64285e-09
9.39028e-09
-2.69035e-09
9.37465e-09
-2.73784e-09
9.35199e-09
-2.78534e-09
9.32231e-09
-2.83284e-09
9.2856e-09
-2.88033e-09
9.24186e-09
-2.92783e-09
9.19109e-09
-2.97533e-09
9.13329e-09
-3.02282e-09
9.06847e-09
-3.07032e-09
8.99662e-09
-3.11782e-09
8.91774e-09
-3.16531e-09
8.83183e-09
-3.21281e-09
8.7389e-09
-3.26031e-09
8.63894e-09
-3.3078e-09
8.53195e-09
-3.3553e-09
8.41793e-09
-3.4028e-09
8.29689e-09
-3.45029e-09
8.16882e-09
-3.49779e-09
8.03372e-09
-3.54529e-09
7.89159e-09
-3.59278e-09
7.74244e-09
-3.64028e-09
7.58626e-09
-3.68778e-09
7.42305e-09
-3.73527e-09
7.25281e-09
-3.78277e-09
7.07555e-09
-3.83027e-09
6.89126e-09
-3.87776e-09
6.69994e-09
-3.92526e-09
6.50159e-09
-3.97276e-09
6.29621e-09
-4.02025e-09
6.08354e-09
-4.06756e-09
-4.10071e-09
5.84391e-09
9.48011e-09
-1.85538e-09
9.58708e-09
-1.91679e-09
9.66799e-09
-1.96054e-09
9.74009e-09
-2.00191e-09
9.80525e-09
-2.04294e-09
9.86379e-09
-2.08391e-09
9.91577e-09
-2.12487e-09
9.96121e-09
-2.16582e-09
1.00001e-08
-2.20678e-09
1.00325e-08
-2.24773e-09
1.00583e-08
-2.28868e-09
1.00775e-08
-2.32964e-09
1.00903e-08
-2.37059e-09
1.00964e-08
-2.41155e-09
1.00961e-08
-2.4525e-09
1.00892e-08
-2.49345e-09
1.00757e-08
-2.53441e-09
1.00557e-08
-2.57536e-09
1.00292e-08
-2.61631e-09
9.99611e-09
-2.65727e-09
9.95649e-09
-2.69822e-09
9.91032e-09
-2.73918e-09
9.85762e-09
-2.78013e-09
9.79837e-09
-2.82108e-09
9.73257e-09
-2.86204e-09
9.66024e-09
-2.90299e-09
9.58136e-09
-2.94394e-09
9.49594e-09
-2.9849e-09
9.40397e-09
-3.02585e-09
9.30547e-09
-3.06681e-09
9.20042e-09
-3.10776e-09
9.08882e-09
-3.14871e-09
8.97069e-09
-3.18967e-09
8.84601e-09
-3.23062e-09
8.71479e-09
-3.27157e-09
8.57702e-09
-3.31253e-09
8.43272e-09
-3.35348e-09
8.28187e-09
-3.39444e-09
8.12447e-09
-3.43539e-09
7.96054e-09
-3.47634e-09
7.79006e-09
-3.5173e-09
7.61304e-09
-3.55825e-09
7.42947e-09
-3.5992e-09
7.23936e-09
-3.64016e-09
7.04271e-09
-3.68111e-09
6.83952e-09
-3.72207e-09
6.62978e-09
-3.76302e-09
6.41349e-09
-3.80397e-09
6.18994e-09
-3.84463e-09
-3.87171e-09
5.91931e-09
1.06246e-08
-1.91082e-09
1.07055e-08
-1.96756e-09
1.07554e-08
-2.0058e-09
1.07956e-08
-2.04126e-09
1.08291e-08
-2.07626e-09
1.08564e-08
-2.11117e-09
1.08776e-08
-2.14607e-09
1.08927e-08
-2.18097e-09
1.09018e-08
-2.21586e-09
1.09048e-08
-2.25076e-09
1.09018e-08
-2.28566e-09
1.08927e-08
-2.32055e-09
1.08776e-08
-2.35545e-09
1.08564e-08
-2.39034e-09
1.08291e-08
-2.42524e-09
1.07958e-08
-2.46013e-09
1.07564e-08
-2.49503e-09
1.0711e-08
-2.52992e-09
1.06595e-08
-2.56482e-09
1.06019e-08
-2.59971e-09
1.05383e-08
-2.63461e-09
1.04687e-08
-2.66951e-09
1.03929e-08
-2.7044e-09
1.03111e-08
-2.7393e-09
1.02233e-08
-2.77419e-09
1.01294e-08
-2.80909e-09
1.00294e-08
-2.84398e-09
9.92341e-09
-2.87888e-09
9.81133e-09
-2.91377e-09
9.6932e-09
-2.94867e-09
9.569e-09
-2.98357e-09
9.43875e-09
-3.01846e-09
9.30244e-09
-3.05336e-09
9.16007e-09
-3.08825e-09
9.01164e-09
-3.12315e-09
8.85716e-09
-3.15804e-09
8.69661e-09
-3.19294e-09
8.53001e-09
-3.22783e-09
8.35735e-09
-3.26273e-09
8.17863e-09
-3.29763e-09
7.99386e-09
-3.33252e-09
7.80302e-09
-3.36742e-09
7.60613e-09
-3.40231e-09
7.40318e-09
-3.43721e-09
7.19417e-09
-3.4721e-09
6.9791e-09
-3.507e-09
6.75797e-09
-3.54189e-09
6.53076e-09
-3.57678e-09
6.29645e-09
-3.61132e-09
-3.6331e-09
6.01489e-09
1.17695e-08
-1.93341e-09
1.18241e-08
-1.98537e-09
1.18428e-08
-2.0184e-09
1.18511e-08
-2.04838e-09
1.18529e-08
-2.07783e-09
1.1849e-08
-2.10717e-09
1.18394e-08
-2.1365e-09
1.18242e-08
-2.16582e-09
1.18035e-08
-2.19515e-09
1.17772e-08
-2.22447e-09
1.17454e-08
-2.25379e-09
1.17079e-08
-2.28311e-09
1.16649e-08
-2.31243e-09
1.16163e-08
-2.34175e-09
1.15622e-08
-2.37108e-09
1.15024e-08
-2.4004e-09
1.14371e-08
-2.42972e-09
1.13662e-08
-2.45904e-09
1.12898e-08
-2.48836e-09
1.12078e-08
-2.51769e-09
1.11202e-08
-2.54701e-09
1.1027e-08
-2.57633e-09
1.09282e-08
-2.60565e-09
1.08239e-08
-2.63497e-09
1.0714e-08
-2.6643e-09
1.05985e-08
-2.69362e-09
1.04775e-08
-2.72294e-09
1.03509e-08
-2.75226e-09
1.02187e-08
-2.78158e-09
1.00809e-08
-2.81091e-09
9.93759e-09
-2.84023e-09
9.78867e-09
-2.86955e-09
9.63419e-09
-2.89887e-09
9.47413e-09
-2.92819e-09
9.3085e-09
-2.95752e-09
9.13729e-09
-2.98684e-09
8.96051e-09
-3.01616e-09
8.77816e-09
-3.04548e-09
8.59023e-09
-3.0748e-09
8.39673e-09
-3.10412e-09
8.19766e-09
-3.13345e-09
7.99301e-09
-3.16277e-09
7.78279e-09
-3.19209e-09
7.56699e-09
-3.22141e-09
7.34562e-09
-3.25073e-09
7.11868e-09
-3.28006e-09
6.88617e-09
-3.30938e-09
6.64804e-09
-3.33869e-09
6.40303e-09
-3.36761e-09
-3.38466e-09
6.11085e-09
1.29153e-08
-1.92317e-09
1.29428e-08
-1.97022e-09
1.29303e-08
-1.99833e-09
1.29066e-08
-2.02328e-09
1.28767e-08
-2.04765e-09
1.28415e-08
-2.07191e-09
1.28012e-08
-2.09615e-09
1.27558e-08
-2.12039e-09
1.27052e-08
-2.14462e-09
1.26496e-08
-2.16885e-09
1.25889e-08
-2.19309e-09
1.25231e-08
-2.21732e-09
1.24522e-08
-2.24155e-09
1.23763e-08
-2.26578e-09
1.22952e-08
-2.29002e-09
1.22091e-08
-2.31425e-09
1.21178e-08
-2.33848e-09
1.20215e-08
-2.36272e-09
1.19201e-08
-2.38695e-09
1.18136e-08
-2.41118e-09
1.1702e-08
-2.43542e-09
1.15853e-08
-2.45965e-09
1.14635e-08
-2.48388e-09
1.13367e-08
-2.50811e-09
1.12047e-08
-2.53235e-09
1.10677e-08
-2.55658e-09
1.09256e-08
-2.58081e-09
1.07783e-08
-2.60505e-09
1.0626e-08
-2.62928e-09
1.04687e-08
-2.65351e-09
1.03062e-08
-2.67775e-09
1.01386e-08
-2.70198e-09
9.96594e-09
-2.72621e-09
9.78819e-09
-2.75044e-09
9.60535e-09
-2.77468e-09
9.41742e-09
-2.79891e-09
9.22441e-09
-2.82314e-09
9.0263e-09
-2.84738e-09
8.82311e-09
-2.87161e-09
8.61483e-09
-2.89584e-09
8.40146e-09
-2.92008e-09
8.183e-09
-2.94431e-09
7.95945e-09
-2.96854e-09
7.73081e-09
-2.99277e-09
7.49708e-09
-3.01701e-09
7.25826e-09
-3.04124e-09
7.01436e-09
-3.06547e-09
6.76532e-09
-3.08969e-09
6.50966e-09
-3.11352e-09
-3.12637e-09
6.20688e-09
1.40622e-08
-1.88007e-09
1.40619e-08
-1.92211e-09
1.40178e-08
-1.94561e-09
1.39622e-08
-1.96597e-09
1.39006e-08
-1.98574e-09
1.38341e-08
-2.00539e-09
1.3763e-08
-2.02503e-09
1.36873e-08
-2.04466e-09
1.36069e-08
-2.06429e-09
1.3522e-08
-2.08392e-09
1.34325e-08
-2.10354e-09
1.33383e-08
-2.12317e-09
1.32396e-08
-2.1428e-09
1.31362e-08
-2.16243e-09
1.30283e-08
-2.18206e-09
1.29157e-08
-2.20169e-09
1.27985e-08
-2.22132e-09
1.26768e-08
-2.24095e-09
1.25504e-08
-2.26057e-09
1.24194e-08
-2.2802e-09
1.22838e-08
-2.29983e-09
1.21436e-08
-2.31946e-09
1.19988e-08
-2.33909e-09
1.18494e-08
-2.35872e-09
1.16954e-08
-2.37835e-09
1.15368e-08
-2.39798e-09
1.13736e-08
-2.4176e-09
1.12058e-08
-2.43723e-09
1.10334e-08
-2.45686e-09
1.08564e-08
-2.47649e-09
1.06748e-08
-2.49612e-09
1.04885e-08
-2.51575e-09
1.02977e-08
-2.53538e-09
1.01022e-08
-2.55501e-09
9.9022e-09
-2.57463e-09
9.69756e-09
-2.59426e-09
9.48831e-09
-2.61389e-09
9.27445e-09
-2.63352e-09
9.05599e-09
-2.65315e-09
8.83292e-09
-2.67278e-09
8.60526e-09
-2.69241e-09
8.37298e-09
-2.71203e-09
8.1361e-09
-2.73166e-09
7.89462e-09
-2.75129e-09
7.64854e-09
-2.77092e-09
7.39785e-09
-2.79055e-09
7.14255e-09
-2.81018e-09
6.8826e-09
-2.8298e-09
6.61635e-09
-2.84902e-09
-2.85824e-09
6.30298e-09
1.52105e-08
-1.80408e-09
1.51813e-08
-1.84101e-09
1.51054e-08
-1.86023e-09
1.50177e-08
-1.87643e-09
1.49244e-08
-1.89208e-09
1.48267e-08
-1.90761e-09
1.47248e-08
-1.92313e-09
1.46188e-08
-1.93864e-09
1.45087e-08
-1.95415e-09
1.43944e-08
-1.96966e-09
1.4276e-08
-1.98517e-09
1.41535e-08
-2.00068e-09
1.40269e-08
-2.01618e-09
1.38962e-08
-2.03169e-09
1.37613e-08
-2.0472e-09
1.36223e-08
-2.06271e-09
1.34792e-08
-2.07822e-09
1.3332e-08
-2.09373e-09
1.31807e-08
-2.10924e-09
1.30252e-08
-2.12475e-09
1.28657e-08
-2.14026e-09
1.2702e-08
-2.15577e-09
1.25341e-08
-2.17128e-09
1.23622e-08
-2.18678e-09
1.21862e-08
-2.20229e-09
1.2006e-08
-2.2178e-09
1.18217e-08
-2.23331e-09
1.16333e-08
-2.24882e-09
1.14408e-08
-2.26433e-09
1.12441e-08
-2.27984e-09
1.10433e-08
-2.29535e-09
1.08384e-08
-2.31086e-09
1.06294e-08
-2.32637e-09
1.04163e-08
-2.34188e-09
1.01991e-08
-2.35739e-09
9.97769e-09
-2.37289e-09
9.7522e-09
-2.3884e-09
9.5226e-09
-2.40391e-09
9.28887e-09
-2.41942e-09
9.05102e-09
-2.43493e-09
8.80905e-09
-2.45044e-09
8.56297e-09
-2.46595e-09
8.31276e-09
-2.48146e-09
8.05844e-09
-2.49697e-09
7.79999e-09
-2.51248e-09
7.53743e-09
-2.52799e-09
7.27074e-09
-2.54349e-09
6.99988e-09
-2.55899e-09
6.72311e-09
-2.57413e-09
-2.58024e-09
6.39917e-09
1.63603e-08
-1.69513e-09
1.63011e-08
-1.7269e-09
1.61931e-08
-1.74217e-09
1.60733e-08
-1.75468e-09
1.59482e-08
-1.76668e-09
1.58193e-08
-1.77857e-09
1.56866e-08
-1.79045e-09
1.55503e-08
-1.80233e-09
1.54104e-08
-1.8142e-09
1.52668e-08
-1.82608e-09
1.51196e-08
-1.83795e-09
1.49687e-08
-1.84983e-09
1.48142e-08
-1.8617e-09
1.46561e-08
-1.87357e-09
1.44944e-08
-1.88545e-09
1.4329e-08
-1.89732e-09
1.41599e-08
-1.9092e-09
1.39873e-08
-1.92107e-09
1.3811e-08
-1.93294e-09
1.36311e-08
-1.94482e-09
1.34475e-08
-1.95669e-09
1.32603e-08
-1.96857e-09
1.30695e-08
-1.98044e-09
1.2875e-08
-1.99232e-09
1.26769e-08
-2.00419e-09
1.24751e-08
-2.01606e-09
1.22698e-08
-2.02794e-09
1.20608e-08
-2.03981e-09
1.18481e-08
-2.05169e-09
1.16318e-08
-2.06356e-09
1.14119e-08
-2.07543e-09
1.11884e-08
-2.08731e-09
1.09612e-08
-2.09918e-09
1.07304e-08
-2.11106e-09
1.04959e-08
-2.12293e-09
1.02578e-08
-2.13481e-09
1.00161e-08
-2.14668e-09
9.77074e-09
-2.15855e-09
9.52175e-09
-2.17043e-09
9.26912e-09
-2.1823e-09
9.01285e-09
-2.19418e-09
8.75296e-09
-2.20605e-09
8.48942e-09
-2.21792e-09
8.22225e-09
-2.2298e-09
7.95145e-09
-2.24167e-09
7.67701e-09
-2.25355e-09
7.39894e-09
-2.26542e-09
7.11717e-09
-2.27729e-09
6.82992e-09
-2.28883e-09
-2.29237e-09
6.49543e-09
1.75119e-08
-1.55313e-09
1.74214e-08
-1.57975e-09
1.72809e-08
-1.59144e-09
1.71289e-08
-1.6007e-09
1.69721e-08
-1.60953e-09
1.68119e-08
-1.61827e-09
1.66484e-08
-1.627e-09
1.64818e-08
-1.63573e-09
1.63121e-08
-1.64445e-09
1.61392e-08
-1.65317e-09
1.59631e-08
-1.6619e-09
1.57839e-08
-1.67062e-09
1.56016e-08
-1.67935e-09
1.54161e-08
-1.68807e-09
1.52274e-08
-1.69679e-09
1.50356e-08
-1.70552e-09
1.48406e-08
-1.71424e-09
1.46425e-08
-1.72297e-09
1.44413e-08
-1.73169e-09
1.42369e-08
-1.74041e-09
1.40293e-08
-1.74914e-09
1.38186e-08
-1.75786e-09
1.36048e-08
-1.76658e-09
1.33878e-08
-1.77531e-09
1.31676e-08
-1.78403e-09
1.29443e-08
-1.79276e-09
1.27178e-08
-1.80148e-09
1.24882e-08
-1.8102e-09
1.22555e-08
-1.81893e-09
1.20196e-08
-1.82765e-09
1.17805e-08
-1.83638e-09
1.15383e-08
-1.8451e-09
1.12929e-08
-1.85382e-09
1.10444e-08
-1.86255e-09
1.07928e-08
-1.87127e-09
1.0538e-08
-1.88e-09
1.028e-08
-1.88872e-09
1.00189e-08
-1.89744e-09
9.75463e-09
-1.90617e-09
9.48722e-09
-1.91489e-09
9.21665e-09
-1.92361e-09
8.94294e-09
-1.93234e-09
8.66608e-09
-1.94106e-09
8.38607e-09
-1.94979e-09
8.10291e-09
-1.95851e-09
7.81659e-09
-1.96723e-09
7.52713e-09
-1.97596e-09
7.23446e-09
-1.98467e-09
6.9368e-09
-1.99312e-09
-1.99461e-09
6.59178e-09
1.86656e-08
-1.37799e-09
1.85423e-08
-1.39952e-09
1.83688e-08
-1.40801e-09
1.81845e-08
-1.4145e-09
1.79959e-08
-1.42064e-09
1.78044e-08
-1.42671e-09
1.76102e-08
-1.43277e-09
1.74133e-08
-1.43883e-09
1.72138e-08
-1.44489e-09
1.70116e-08
-1.45095e-09
1.68067e-08
-1.45701e-09
1.65991e-08
-1.46307e-09
1.63889e-08
-1.46912e-09
1.6176e-08
-1.47518e-09
1.59605e-08
-1.48124e-09
1.57422e-08
-1.4873e-09
1.55214e-08
-1.49336e-09
1.52978e-08
-1.49942e-09
1.50716e-08
-1.50547e-09
1.48427e-08
-1.51153e-09
1.46112e-08
-1.51759e-09
1.43769e-08
-1.52365e-09
1.41401e-08
-1.52971e-09
1.39005e-08
-1.53577e-09
1.36583e-08
-1.54182e-09
1.34134e-08
-1.54788e-09
1.31659e-08
-1.55394e-09
1.29157e-08
-1.56e-09
1.26628e-08
-1.56606e-09
1.24073e-08
-1.57212e-09
1.21491e-08
-1.57817e-09
1.18882e-08
-1.58423e-09
1.16247e-08
-1.59029e-09
1.13585e-08
-1.59635e-09
1.10896e-08
-1.60241e-09
1.08181e-08
-1.60846e-09
1.05439e-08
-1.61452e-09
1.0267e-08
-1.62058e-09
9.98751e-09
-1.62664e-09
9.70531e-09
-1.6327e-09
9.42045e-09
-1.63876e-09
9.13293e-09
-1.64481e-09
8.84274e-09
-1.65087e-09
8.54988e-09
-1.65693e-09
8.25436e-09
-1.66299e-09
7.95617e-09
-1.66905e-09
7.65532e-09
-1.67511e-09
7.35175e-09
-1.68116e-09
7.04374e-09
-1.687e-09
-1.68697e-09
6.68822e-09
1.98214e-08
-1.16958e-09
1.96637e-08
-1.18614e-09
1.94568e-08
-1.19188e-09
1.92401e-08
-1.19607e-09
1.90198e-08
-1.2e-09
1.8797e-08
-1.20389e-09
1.8572e-08
-1.20777e-09
1.83449e-08
-1.21165e-09
1.81155e-08
-1.21553e-09
1.78839e-08
-1.2194e-09
1.76502e-08
-1.22328e-09
1.74143e-08
-1.22716e-09
1.71762e-08
-1.23104e-09
1.6936e-08
-1.23491e-09
1.66935e-08
-1.23879e-09
1.64489e-08
-1.24267e-09
1.62021e-08
-1.24654e-09
1.59531e-08
-1.25042e-09
1.57019e-08
-1.2543e-09
1.54485e-08
-1.25818e-09
1.5193e-08
-1.26205e-09
1.49353e-08
-1.26593e-09
1.46754e-08
-1.26981e-09
1.44133e-08
-1.27369e-09
1.4149e-08
-1.27756e-09
1.38826e-08
-1.28144e-09
1.3614e-08
-1.28532e-09
1.33432e-08
-1.2892e-09
1.30702e-08
-1.29307e-09
1.2795e-08
-1.29695e-09
1.25177e-08
-1.30083e-09
1.22381e-08
-1.3047e-09
1.19564e-08
-1.30858e-09
1.16725e-08
-1.31246e-09
1.13865e-08
-1.31634e-09
1.10982e-08
-1.32021e-09
1.08078e-08
-1.32409e-09
1.05152e-08
-1.32797e-09
1.02204e-08
-1.33184e-09
9.92341e-09
-1.33572e-09
9.62425e-09
-1.3396e-09
9.32292e-09
-1.34348e-09
9.0194e-09
-1.34735e-09
8.7137e-09
-1.35123e-09
8.40582e-09
-1.35511e-09
8.09576e-09
-1.35899e-09
7.78351e-09
-1.36286e-09
7.46904e-09
-1.36674e-09
7.15075e-09
-1.37046e-09
-1.36943e-09
6.78474e-09
2.09797e-08
-9.27751e-10
2.07857e-08
-9.39574e-10
2.05449e-08
-9.4303e-10
2.02958e-08
-9.45406e-10
2.00436e-08
-9.47623e-10
1.97896e-08
-9.4981e-10
1.95338e-08
-9.51993e-10
1.92764e-08
-9.54174e-10
1.90172e-08
-9.56355e-10
1.87563e-08
-9.58536e-10
1.84938e-08
-9.60717e-10
1.82295e-08
-9.62898e-10
1.79636e-08
-9.65079e-10
1.76959e-08
-9.6726e-10
1.74265e-08
-9.69441e-10
1.71555e-08
-9.71622e-10
1.68828e-08
-9.73803e-10
1.66083e-08
-9.75984e-10
1.63322e-08
-9.78165e-10
1.60544e-08
-9.80346e-10
1.57748e-08
-9.82527e-10
1.54936e-08
-9.84707e-10
1.52107e-08
-9.86888e-10
1.49261e-08
-9.89069e-10
1.46398e-08
-9.9125e-10
1.43517e-08
-9.93431e-10
1.4062e-08
-9.95612e-10
1.37706e-08
-9.97793e-10
1.34775e-08
-9.99974e-10
1.31827e-08
-1.00216e-09
1.28863e-08
-1.00434e-09
1.25881e-08
-1.00652e-09
1.22882e-08
-1.0087e-09
1.19866e-08
-1.01088e-09
1.16833e-08
-1.01306e-09
1.13784e-08
-1.01524e-09
1.10717e-08
-1.01742e-09
1.07633e-08
-1.0196e-09
1.04533e-08
-1.02178e-09
1.01415e-08
-1.02396e-09
9.82805e-09
-1.02615e-09
9.5129e-09
-1.02833e-09
9.19606e-09
-1.03051e-09
8.87751e-09
-1.03269e-09
8.55727e-09
-1.03487e-09
8.23534e-09
-1.03705e-09
7.91171e-09
-1.03923e-09
7.58634e-09
-1.04141e-09
7.25784e-09
-1.04349e-09
-1.04197e-09
6.88136e-09
2.21408e-08
-6.52342e-10
2.19083e-08
-6.59744e-10
2.16332e-08
-6.61444e-10
2.13514e-08
-6.62509e-10
2.10675e-08
-6.63495e-10
2.07822e-08
-6.64468e-10
2.04957e-08
-6.65438e-10
2.02079e-08
-6.66407e-10
1.99189e-08
-6.67377e-10
1.96287e-08
-6.68346e-10
1.93373e-08
-6.69315e-10
1.90447e-08
-6.70285e-10
1.87509e-08
-6.71254e-10
1.84558e-08
-6.72223e-10
1.81596e-08
-6.73193e-10
1.78621e-08
-6.74162e-10
1.75635e-08
-6.75131e-10
1.72636e-08
-6.76101e-10
1.69625e-08
-6.7707e-10
1.66602e-08
-6.78039e-10
1.63567e-08
-6.79008e-10
1.60519e-08
-6.79978e-10
1.5746e-08
-6.80947e-10
1.54388e-08
-6.81916e-10
1.51305e-08
-6.82886e-10
1.48209e-08
-6.83855e-10
1.45101e-08
-6.84824e-10
1.41981e-08
-6.85794e-10
1.38849e-08
-6.86763e-10
1.35705e-08
-6.87732e-10
1.32548e-08
-6.88701e-10
1.2938e-08
-6.89671e-10
1.26199e-08
-6.9064e-10
1.23007e-08
-6.91609e-10
1.19802e-08
-6.92579e-10
1.16585e-08
-6.93548e-10
1.13356e-08
-6.94517e-10
1.10115e-08
-6.95487e-10
1.06861e-08
-6.96456e-10
1.03596e-08
-6.97425e-10
1.00319e-08
-6.98395e-10
9.70289e-09
-6.99364e-10
9.37271e-09
-7.00333e-10
9.04133e-09
-7.01303e-10
8.70873e-09
-7.02272e-10
8.37492e-09
-7.03241e-10