/*--------------------------------*- C++ -*----------------------------------*\
  =========                 |
  \\      /  F ield         | OpenFOAM: The Open Source CFD Toolbox
   \\    /   O peration     | Website:  https://openfoam.org
    \\  /    A nd           | Version:  13
     \\/     M anipulation  |
\*---------------------------------------------------------------------------*/
FoamFile
{
    format      ascii;
    class       volScalarField;
    location    "0.0008";
    object      p;
}
// * * * * * * * * * * * * * * * * * * * * * * * * * * * * * * * * * * * * * //

dimensions      [0 2 -2 0 0 0 0];

internalField   nonuniform List<scalar> 
1690
(
-0.0131401
0.038375
0.084911
0.123827
0.143506
0.123966
0.0739881
0.02459
-0.0127378
0.0388931
0.085627
0.124818
0.144497
0.124718
0.073589
0.0234791
-0.0121848
0.038945
0.0852949
0.124268
0.143704
0.123224
0.070776
0.0204439
-0.0113456
0.0390356
0.0848339
0.123513
0.142661
0.121066
0.0665018
0.0156398
-0.0102565
0.039138
0.0842077
0.122488
0.141214
0.118034
0.0605668
0.00900427
-0.0089656
0.0391889
0.0833211
0.121046
0.139118
0.113782
0.0526567
0.000329548
-0.00752249
0.0391346
0.0820985
0.11906
0.13612
0.107939
0.0424452
-0.010651
-0.00598142
0.0389221
0.0804643
0.116402
0.131956
0.100142
0.0297266
-0.0241255
-0.00440065
0.0384955
0.0783339
0.112901
0.126474
0.0902597
0.0147108
-0.0399016
-0.00283934
0.0377989
0.075639
0.108381
0.119651
0.0787359
-0.00180304
-0.057109
-0.00135352
0.0367916
0.072342
0.102739
0.111472
0.066768
-0.0184629
-0.0741201
7.36603e-06
0.0354658
0.0684502
0.0960202
0.102101
0.0556843
-0.0329971
-0.089322
0.00120383
0.0338421
0.0640191
0.0883919
0.0919208
0.0460027
-0.0425517
-0.10172
0.00221072
0.0319448
0.0591066
0.080029
0.081129
0.0370359
-0.0488188
-0.124704
0.00301536
0.0297974
0.0537721
0.0711458
0.069884
0.0271918
-0.0573808
-0.156207
4.51353
4.50789
4.49755
4.48157
4.46005
4.43325
4.40201
4.36741
4.33067
4.29308
4.25591
4.22027
4.18713
4.15723
4.13109
4.10908
4.0914
4.07817
4.0696
4.06614
4.50732
4.50167
4.49097
4.4749
4.45316
4.42619
4.39485
4.36023
4.3236
4.28626
4.24944
4.21426
4.18165
4.1523
4.12671
4.10521
4.08798
4.07511
4.06678
4.06346
4.49728
4.49149
4.48069
4.46429
4.44217
4.4148
4.38314
4.34837
4.3118
4.27474
4.23845
4.20398
4.17222
4.14379
4.11914
4.09852
4.08205
4.06978
4.06187
4.05872
4.482
4.476
4.46503
4.44816
4.42557
4.39771
4.36573
4.33091
4.2946
4.25816
4.22278
4.18949
4.15906
4.13204
4.10877
4.08942
4.07405
4.06265
4.05532
4.05242
4.46166
4.45544
4.44427
4.42692
4.40384
4.37554
4.34338
4.30871
4.27299
4.23755
4.20353
4.17187
4.14323
4.11804
4.09652
4.07876
4.06474
4.0544
4.04777
4.04518
4.43594
4.42956
4.41825
4.40048
4.37701
4.34844
4.31636
4.28223
4.24754
4.21358
4.18144
4.15189
4.12548
4.1025
4.08307
4.06716
4.05469
4.04555
4.03972
4.03746
4.40413
4.39769
4.38637
4.36836
4.34477
4.31628
4.28476
4.25172
4.21866
4.18681
4.1571
4.13019
4.10645
4.08604
4.06897
4.05512
4.04436
4.03651
4.03153
4.02963
4.3652
4.35891
4.34783
4.32997
4.30672
4.27893
4.24867
4.21748
4.18681
4.15776
4.13112
4.10736
4.0867
4.06918
4.05469
4.04305
4.03409
4.02759
4.0235
4.02196
4.31774
4.31196
4.30163
4.28458
4.26246
4.23627
4.20825
4.17987
4.15248
4.12702
4.10407
4.08396
4.06674
4.05235
4.04059
4.03127
4.02414
4.01903
4.01583
4.01464
4.25986
4.25522
4.24649
4.23133
4.21155
4.18825
4.16373
4.13931
4.1162
4.09513
4.07651
4.06048
4.047
4.03591
4.02698
4.02
4.01472
4.01097
4.00865
4.0078
4.18895
4.18652
4.18085
4.16931
4.15362
4.13495
4.11547
4.09634
4.07857
4.06268
4.04894
4.03736
4.02782
4.02014
4.01408
4.00941
4.00595
4.00352
4.00204
4.00152
4.10136
4.10305
4.10289
4.09758
4.08846
4.07661
4.064
4.05158
4.04021
4.03024
4.02184
4.01498
4.00951
4.00526
4.00202
3.99962
3.9979
3.99673
3.99604
3.99583
3.99186
4.0012
4.01054
4.01533
4.01605
4.01371
4.00998
4.00575
4.00176
3.99834
3.99564
3.99365
3.99229
3.99142
3.99092
3.99068
3.9906
3.99061
3.99067
3.99073
3.85267
3.87648
3.90159
3.92203
3.93675
3.94699
3.95426
3.95962
3.96386
3.96747
3.97069
3.97362
3.97629
3.9787
3.98081
3.98261
3.98405
3.98516
3.9859
3.98621
3.67172
3.72361
3.77382
3.81762
3.85127
3.87747
3.89779
3.91397
3.9271
3.93804
3.94724
3.95504
3.96163
3.96715
3.97171
3.97539
3.97824
3.98034
3.9817
3.98223
3.42944
3.53715
3.62522
3.70279
3.76082
3.8064
3.84157
3.86954
3.89202
3.91039
3.92552
3.93802
3.94834
3.95678
3.9636
3.969
3.97313
3.97611
3.97803
3.97876
3.09258
3.31259
3.45431
3.57917
3.66705
3.73519
3.78669
3.82704
3.85902
3.88476
3.90563
3.92261
3.9364
3.94754
3.95643
3.96339
3.96866
3.97244
3.97486
3.97576
2.60622
3.04776
3.26105
3.449
3.57244
3.66542
3.73407
3.78705
3.82842
3.8613
3.88762
3.90879
3.9258
3.93939
3.95014
3.95849
3.96478
3.96927
3.97212
3.97317
1.87207
2.7368
3.0496
3.31633
3.47917
3.59854
3.68455
3.74998
3.80043
3.84007
3.87149
3.89652
3.91645
3.93225
3.94467
3.95426
3.96144
3.96654
3.96978
3.97096
0.784003
2.37497
2.83285
3.18637
3.39004
3.53583
3.63879
3.71614
3.77514
3.82109
3.85719
3.88572
3.90828
3.92605
3.93994
3.95061
3.95858
3.96421
3.96778
3.96907
0.00405011
0.0259023
0.0445942
0.0565151
0.0519447
0.0112754
-0.0666077
-0.127633
0.00461562
0.0201831
0.0326552
0.0388707
0.0322216
0.000332164
-0.0561961
-0.0905772
0.00449966
0.0144376
0.0217259
0.0234509
0.0151855
-0.00969609
-0.0498996
-0.0758478
0.00402721
0.00899788
0.0121617
0.0105385
0.00133267
-0.0192309
-0.0477987
-0.0704173
0.00361625
0.00404808
0.00396943
-0.000190274
-0.0101524
-0.0277714
-0.0500318
-0.0702132
0.00211837
-0.000375139
-0.00305462
-0.00914023
-0.0196459
-0.0353683
-0.0542945
-0.072608
-0.0003095
-0.00419927
-0.00909909
-0.0166554
-0.0276193
-0.0423128
-0.0595466
-0.0767419
-0.00195874
-0.00745589
-0.0141463
-0.0229111
-0.0343249
-0.0485633
-0.0649898
-0.0816152
-0.00322461
-0.0102031
-0.0183263
-0.0281154
-0.0400091
-0.0541675
-0.0703234
-0.086792
-0.00421279
-0.0124608
-0.021759
-0.0324236
-0.0448133
-0.0591131
-0.075314
-0.0918993
-0.00497624
-0.0142868
-0.0245477
-0.0359604
-0.0488426
-0.0634056
-0.0798309
-0.0967181
-0.00555584
-0.0157363
-0.0267752
-0.0388172
-0.0521699
-0.0670611
-0.0837917
-0.101067
-0.00597998
-0.016853
-0.0285063
-0.0410665
-0.054865
-0.0701452
-0.0871823
-0.104762
-0.00626777
-0.0176518
-0.0297519
-0.0426753
-0.0567891
-0.0724036
-0.0895781
-0.107019
-0.00644457
-0.0181412
-0.0305658
-0.0437402
-0.0581312
-0.074371
-0.0921843
-0.109161
-0.160774
-0.150924
-0.144531
-0.142993
-0.144175
-0.147378
-0.152227
-0.158473
-0.165943
-0.174519
-0.184121
-0.194693
-0.206199
-0.218611
-0.231908
-0.246073
-0.261083
-0.276905
-0.293486
-0.310725
-0.328446
-0.346354
-0.364013
-0.380876
-0.396436
-0.410563
-0.424049
-0.439365
-0.461614
-0.499286
-0.56503
-0.678851
-0.865735
-1.15333
-1.56566
-2.11341
-2.77769
-3.4965
-4.16888
-4.6945
-5.01238
-5.11653
-5.0614
-4.94112
-4.84155
-4.81768
-4.90109
-5.11668
-5.40879
-8.14231
-0.120489
-0.126544
-0.129324
-0.132838
-0.13746
-0.143152
-0.149853
-0.157519
-0.166115
-0.175614
-0.185995
-0.197242
-0.209347
-0.222298
-0.236086
-0.250702
-0.266128
-0.282336
-0.299272
-0.316823
-0.33477
-0.352737
-0.370164
-0.386386
-0.400883
-0.413762
-0.426427
-0.442302
-0.467759
-0.512777
-0.589962
-0.723777
-0.940829
-1.27187
-1.74112
-2.35167
-3.07127
-3.82016
-4.48262
-4.94923
-5.16643
-5.16332
-5.03213
-4.88257
-4.79399
-4.80059
-4.91442
-5.1141
-5.50189
-6.93338
-0.0995726
-0.110168
-0.117634
-0.124464
-0.131442
-0.138863
-0.146881
-0.155576
-0.164995
-0.175164
-0.186106
-0.197835
-0.21036
-0.223684
-0.23781
-0.252742
-0.268474
-0.284981
-0.302199
-0.319988
-0.33808
-0.356047
-0.373324
-0.389341
-0.403792
-0.41707
-0.430837
-0.448787
-0.478259
-0.531729
-0.618052
-0.776374
-1.0292
-1.41052
-1.94314
-2.62155
-3.39797
-4.17318
-4.81602
-5.21665
-5.33642
-5.2275
-5.00242
-4.80768
-4.72392
-4.76516
-4.90914
-5.10886
-5.45
-5.65313
-0.0900449
-0.101654
-0.110698
-0.119158
-0.127646
-0.136389
-0.145527
-0.155159
-0.165356
-0.176174
-0.187654
-0.199829
-0.21273
-0.226387
-0.24082
-0.256039
-0.272041
-0.288805
-0.306265
-0.32429
-0.342648
-0.360991
-0.378886
-0.39592
-0.411897
-0.427287
-0.443934
-0.466042
-0.501533
-0.563219
-0.670057
-0.853418
-1.14322
-1.57553
-2.16962
-2.91277
-3.7405
-4.53339
-5.14857
-5.47978
-5.50792
-5.28756
-4.97307
-4.7323
-4.65415
-4.72731
-4.8812
-5.06103
-5.20228
-4.49781
-0.0877102
-0.0995548
-0.109215
-0.118416
-0.127648
-0.137096
-0.146884
-0.157104
-0.167828
-0.179118
-0.191025
-0.203595
-0.216867
-0.230875
-0.245645
-0.261198
-0.277544
-0.294679
-0.312571
-0.331141
-0.350231
-0.369595
-0.38893
-0.407977
-0.426746
-0.445929
-0.467651
-0.496607
-0.541455
-0.616303
-0.742775
-0.950764
-1.27373
-1.74532
-2.38174
-3.1648
-4.017
-4.80555
-5.38057
-5.64343
-5.59213
-5.30108
-4.93784
-4.67936
-4.60789
-4.69148
-4.82261
-4.88238
-4.69937
-3.44045
-0.0887579
-0.100506
-0.110388
-0.119966
-0.129657
-0.139603
-0.149898
-0.16062
-0.171834
-0.183601
-0.195975
-0.209007
-0.222744
-0.237229
-0.252503
-0.268601
-0.285558
-0.303399
-0.322129
-0.341717
-0.362076
-0.383067
-0.404559
-0.426565
-0.449446
-0.474337
-0.503813
-0.542936
-0.600585
-0.691025
-0.835442
-1.06194
-1.40321
-1.88981
-2.53537
-3.31708
-4.15439
-4.91309
-5.44576
-5.66166
-5.57226
-5.26389
-4.90065
-4.65334
-4.58846
-4.63081
-4.64745
-4.51954
-4.00276
-2.50826
-0.0921176
-0.103789
-0.113771
-0.123562
-0.133544
-0.143842
-0.154531
-0.165677
-0.177341
-0.189583
-0.202461
-0.216031
-0.23035
-0.245474
-0.26146
-0.278368
-0.296256
-0.315183
-0.33519
-0.356299
-0.378512
-0.401853
-0.426499
-0.453009
-0.48229
-0.516018
-0.557101
-0.610482
-0.684191
-0.790781
-0.948735
-1.18265
-1.5212
-1.9907
-2.60264
-3.33507
-4.11514
-4.82104
-5.31789
-5.52106
-5.44131
-5.16696
-4.84721
-4.62125
-4.52176
-4.46218
-4.32179
-4.00143
-3.26353
-1.78467
-0.0965386
-0.108151
-0.118202
-0.128164
-0.138398
-0.149012
-0.160073
-0.171643
-0.183779
-0.196544
-0.210001
-0.224216
-0.23926
-0.255205
-0.272133
-0.290133
-0.309298
-0.329729
-0.351526
-0.374804
-0.399737
-0.42662
-0.456016
-0.489465
-0.528306
-0.574819
-0.632055
-0.703847
-0.796053
-0.917846
-1.08306
-1.311
-1.62489
-2.04643
-2.58547
-3.22487
-3.90672
-4.53262
-4.99089
-5.20528
-5.17398
-4.96936
-4.70975
-4.49604
-4.33883
-4.16505
-3.89012
-3.43702
-2.61131
-1.2818
-0.101519
-0.113135
-0.123265
-0.133394
-0.143867
-0.154785
-0.166213
-0.17821
-0.190837
-0.204162
-0.218257
-0.233201
-0.249083
-0.265999
-0.284062
-0.303399
-0.324159
-0.346508
-0.370649
-0.396849
-0.425532
-0.457336
-0.493017
-0.536549
-0.588174
-0.651148
-0.728621
-0.822098
-0.934088
-1.06901
-1.23478
-1.44463
-1.71657
-2.06888
-2.51116
-3.0324
-3.59068
-4.11349
-4.51674
-4.73763
-4.76318
-4.64069
-4.44741
-4.25068
-4.05212
-3.80215
-3.44805
-2.92771
-2.09747
-0.946221
-0.106609
-0.118276
-0.1285
-0.138808
-0.149525
-0.16075
-0.172547
-0.184977
-0.198108
-0.212015
-0.226783
-0.242507
-0.259296
-0.277277
-0.296595
-0.317434
-0.340025
-0.36462
-0.391567
-0.421357
-0.454758
-0.493065
-0.538607
-0.591831
-0.658059
-0.740183
-0.839224
-0.955126
-1.08662
-1.23209
-1.39315
-1.57718
-1.79832
-2.07365
-2.41499
-2.81838
-3.25596
-3.6766
-4.01937
-4.2347
-4.30376
-4.25033
-4.12112
-3.95224
-3.74039
-3.4553
-3.06462
-2.51724
-1.71624
-0.71836
-0.111533
-0.123283
-0.133615
-0.144111
-0.155076
-0.166604
-0.178762
-0.191616
-0.205239
-0.219718
-0.23515
-0.251649
-0.269345
-0.288393
-0.308974
-0.331312
-0.355804
-0.382726
-0.412566
-0.446052
-0.484266
-0.528847
-0.5822
-0.647205
-0.727891
-0.827328
-0.946526
-1.08301
-1.23076
-1.38366
-1.53761
-1.69497
-1.86701
-2.07083
-2.32179
-2.62378
-2.96138
-3.29942
-3.59236
-3.7995
-3.89907
-3.89604
-3.81795
-3.67595
-3.46495
-3.1665
-2.75974
-2.20433
-1.44097
-0.558228
-0.116026
-0.12787
-0.138317
-0.149006
-0.160216
-0.172036
-0.184534
-0.19778
-0.211858
-0.226861
-0.242903
-0.260108
-0.278626
-0.298632
-0.320321
-0.343846
-0.370183
-0.399167
-0.431528
-0.468198
-0.510495
-0.560353
-0.620483
-0.694387
-0.78596
-0.897967
-1.03045
-1.17946
-1.33694
-1.49317
-1.64053
-1.77811
-1.91474
-2.06624
-2.24902
-2.47242
-2.73176
-3.00564
-3.26036
-3.46064
-3.58187
-3.61708
-3.57312
-3.45145
-3.24506
-2.94165
-2.52702
-1.9722
-1.24534
-0.443665
-0.119881
-0.131878
-0.142477
-0.153368
-0.164805
-0.176878
-0.18966
-0.203226
-0.217668
-0.23309
-0.249616
-0.26738
-0.286568
-0.307359
-0.330046
-0.35506
-0.382179
-0.412505
-0.446644
-0.485559
-0.530655
-0.583974
-0.648301
-0.727085
-0.823902
-0.941111
-1.07806
-1.22999
-1.38859
-1.54335
-1.6863
-1.81563
-1.93816
-2.06644
-2.2134
-2.38801
-2.59135
-2.81326
-3.03202
-3.21969
-3.35107
-3.41032
-3.38941
-3.28286
-3.08146
-2.77645
-2.35761
-1.8071
-1.11244
-0.365854
-0.122607
-0.134979
-0.145775
-0.156842
-0.168453
-0.180707
-0.193697
-0.207481
-0.222168
-0.237863
-0.254689
-0.272797
-0.292346
-0.313577
-0.336747
-0.362177
-0.390197
-0.421436
-0.456639
-0.496844
-0.543488
-0.59855
-0.664618
-0.744766
-0.842023
-0.95824
-1.09266
-1.24116
-1.39591
-1.54751
-1.68997
-1.82203
-1.94852
-2.07795
-2.21894
-2.37794
-2.55607
-2.74693
-2.93618
-3.10369
-3.2283
-3.29203
-3.28049
-3.18078
-2.98162
-2.67535
-2.25324
-1.70674
-1.03715
-0.32213
-0.126028
-0.138033
-0.148285
-0.159222
-0.170766
-0.183006
-0.195984
-0.209808
-0.224548
-0.240305
-0.257204
-0.275394
-0.295056
-0.316411
-0.339724
-0.365318
-0.393612
-0.42518
-0.460776
-0.501455
-0.548615
-0.604116
-0.670317
-0.749951
-0.845648
-0.959002
-1.0895
-1.23374
-1.38537
-1.53775
-1.68344
-1.82235
-1.95825
-2.09818
-2.24946
-2.41563
-2.595
-2.77949
-2.95592
-3.1078
-3.21797
-3.27052
-3.25119
-3.1469
-2.94581
-2.63557
-2.20837
-1.66007
-0.99879
-0.280518
-0.568464
1.95285
2.6455
3.07736
3.31678
3.48458
3.60169
3.68892
3.75496
3.80606
3.84595
3.87729
3.90194
3.92127
3.93631
3.94782
3.9564
3.96244
3.96627
3.96765
-0.857347
1.63561
2.50339
2.98719
3.25706
3.44246
3.57134
3.66674
3.73861
3.79394
3.83693
3.87056
3.8969
3.91749
3.93344
3.94563
3.95469
3.96106
3.96509
3.96653
-0.576905
1.45074
2.38892
2.90199
3.19991
3.4017
3.54207
3.64542
3.72298
3.78242
3.82841
3.86423
3.89219
3.91396
3.93078
3.9436
3.95311
3.95978
3.96401
3.96551
-0.255247
1.35655
2.30061
2.82526
3.14644
3.36294
3.51421
3.62517
3.70821
3.77158
3.82043
3.85834
3.88782
3.9107
3.92834
3.94175
3.95167
3.95862
3.96302
3.96458
-0.0475397
1.30287
2.23005
2.75797
3.0973
3.32668
3.48805
3.60616
3.69439
3.7615
3.81305
3.85291
3.88381
3.90772
3.92611
3.94006
3.95036
3.95757
3.96213
3.96374
0.0915803
1.27406
2.17117
2.69955
3.05271
3.29325
3.46381
3.58856
3.68164
3.75224
3.8063
3.84798
3.88018
3.90504
3.92411
3.93855
3.9492
3.95664
3.96134
3.963
0.192329
1.26423
2.12191
2.64931
3.01271
3.26287
3.44166
3.5725
3.67005
3.74386
3.80023
3.84356
3.87696
3.90267
3.92235
3.93723
3.94818
3.95583
3.96065
3.96235
0.262545
1.26539
2.08136
2.60658
2.97734
3.23574
3.42178
3.5581
3.6597
3.73642
3.79487
3.83969
3.87414
3.90061
3.92083
3.93609
3.94731
3.95513
3.96006
3.9618
0.313405
1.27101
2.04832
2.57071
2.94664
3.212
3.40432
3.54549
3.65069
3.72999
3.79027
3.83639
3.87176
3.89887
3.91956
3.93514
3.94658
3.95456
3.95957
3.96134
0.355357
1.27802
2.02164
2.54107
2.92062
3.19178
3.38944
3.5348
3.64311
3.72462
3.78647
3.83368
3.86982
3.89747
3.91853
3.93438
3.94601
3.9541
3.95919
3.96099
0.392219
1.28505
2.00052
2.51727
2.89937
3.17525
3.37733
3.52617
3.63705
3.72038
3.7835
3.83159
3.86834
3.89642
3.91777
3.93382
3.94559
3.95377
3.95892
3.96073
0.423264
1.29123
1.9846
2.49917
2.88308
3.16268
3.36822
3.51978
3.63264
3.71735
3.78142
3.83015
3.86734
3.89571
3.91727
3.93346
3.94532
3.95356
3.95874
3.96057
0.447014
1.29678
1.97441
2.4874
2.87249
3.15468
3.36258
3.51595
3.63009
3.71567
3.78031
3.82942
3.86685
3.89538
3.91704
3.9333
3.94521
3.95348
3.95867
3.96052
0.467968
1.30472
1.9723
2.48377
2.86899
3.15218
3.36101
3.51506
3.62964
3.71547
3.78026
3.82944
3.8669
3.89545
3.91711
3.93336
3.94526
3.95353
3.95872
3.96057
0.503282
1.31412
1.97723
2.48704
2.87142
3.15419
3.36269
3.51645
3.63076
3.71637
3.78097
3.82999
3.86733
3.89578
3.91737
3.93357
3.94543
3.95367
3.95884
3.9607
)
;

boundaryField
{
    internal
    {
        type            internal;
    }
    movingWall
    {
        type            zeroGradient;
    }
    farFieldMoving
    {
        type            zeroGradient;
    }
    fixedWall
    {
        type            zeroGradient;
    }
    axis
    {
        type            empty;
    }
    left
    {
        type            totalPressure;
        rho             rho;
        psi             none;
        gamma           1;
        p0              uniform 0;
        value           nonuniform List<scalar> 
30
(
-0.0426597
-0.042173
-0.0412703
-0.0399405
-0.0382113
-0.0361246
-0.033733
-0.0310983
-0.0282906
-0.0253854
-0.0224603
-0.0195881
-0.0168323
-0.0142434
-0.0118572
-0.00833655
-0.0046538
-0.00217944
-0.00073866
-0.000112727
0
0
0
0
0
0
0
0
0
0
)
;
    }
    farField
    {
        type            zeroGradient;
    }
    back
    {
        type            wedge;
    }
    front
    {
        type            wedge;
    }
}


// ************************************************************************* //
