/*--------------------------------*- C++ -*----------------------------------*\
  =========                 |
  \\      /  F ield         | OpenFOAM: The Open Source CFD Toolbox
   \\    /   O peration     | Website:  https://openfoam.org
    \\  /    A nd           | Version:  13
     \\/     M anipulation  |
\*---------------------------------------------------------------------------*/
FoamFile
{
    format      ascii;
    class       surfaceScalarField;
    location    "0.0008";
    object      phi;
}
// * * * * * * * * * * * * * * * * * * * * * * * * * * * * * * * * * * * * * //

dimensions      [0 3 -1 0 0 0 0];

internalField   nonuniform List<scalar> 
3252
(
1.94532e-11
-1.67834e-12
1.06958e-11
-5.31193e-12
6.11818e-12
-9.49178e-12
6.14311e-12
-1.40944e-11
9.83781e-12
-1.77652e-11
1.38816e-11
-1.80605e-11
1.19188e-11
-1.14048e-11
6.03013e-13
5.78195e-11
-6.72064e-12
3.14105e-11
-2.11112e-11
1.75139e-11
-3.78033e-11
1.76279e-11
-5.64169e-11
2.96478e-11
-7.19966e-11
4.26242e-11
-7.30883e-11
3.72625e-11
-4.61455e-11
3.91899e-12
9.45853e-11
-1.50469e-11
5.03413e-11
-4.72142e-11
2.70268e-11
-8.48357e-11
2.76569e-11
-1.27395e-10
4.93699e-11
-1.64062e-10
7.29686e-11
-1.66777e-10
6.43101e-11
-1.04322e-10
1.16536e-11
1.28677e-10
-2.6522e-11
6.62786e-11
-8.33012e-11
3.33415e-11
-1.50384e-10
3.51673e-11
-2.27707e-10
6.88384e-11
-2.96226e-10
1.06075e-10
-3.02148e-10
9.41855e-11
-1.85999e-10
2.6638e-11
1.5904e-10
-4.0941e-11
7.79658e-11
-1.28852e-10
3.49691e-11
-2.34012e-10
3.88097e-11
-3.58173e-10
8.76916e-11
-4.71742e-10
1.43005e-10
-4.8365e-10
1.28232e-10
-2.91518e-10
5.30485e-11
1.84657e-10
-5.80169e-11
8.41326e-11
-1.83091e-10
3.02615e-11
-3.34905e-10
3.68105e-11
-5.19487e-10
1.04619e-10
-6.94324e-10
1.83514e-10
-7.16798e-10
1.67033e-10
-4.22051e-10
9.56446e-11
2.04578e-10
-7.73676e-11
8.34907e-11
-2.44905e-10
1.73104e-11
-4.51626e-10
2.64777e-11
-7.11557e-10
1.15713e-10
-9.66472e-10
2.23362e-10
-1.00678e-09
2.08614e-10
-5.81031e-10
1.57213e-10
2.17939e-10
-9.85034e-11
7.47408e-11
-3.12749e-10
-6.14827e-12
-5.81778e-10
3.46282e-12
-9.32211e-10
1.12188e-10
-1.28625e-09
2.50463e-10
-1.35548e-09
2.45535e-10
-7.76537e-10
2.33103e-10
2.24005e-10
-1.20822e-10
5.66175e-11
-3.84541e-10
-4.26684e-11
-7.21672e-10
-3.87335e-11
-1.17533e-09
7.94785e-11
-1.64365e-09
2.43073e-10
-1.75762e-09
2.62712e-10
-1.02331e-09
3.0358e-10
2.22232e-10
-1.43619e-10
2.80916e-11
-4.57719e-10
-9.47857e-11
-8.66113e-10
-1.08027e-10
-1.42941e-09
2.8572e-13
-2.01929e-09
1.74325e-10
-2.19835e-09
2.3907e-10
-1.34187e-09
3.27834e-10
2.12314e-10
-1.66135e-10
-1.13425e-11
-5.2952e-10
-1.64272e-10
-1.00864e-09
-2.10738e-10
-1.6784e-09
-1.38679e-10
-2.38681e-09
2.30358e-11
-2.65492e-09
1.53446e-10
-1.75276e-09
2.43896e-10
1.9423e-10
-1.87633e-10
-6.14082e-11
-5.97479e-10
-2.51132e-10
-1.14251e-09
-3.48022e-10
-1.90511e-09
-3.39545e-10
-2.71888e-09
-2.16868e-10
-3.10064e-09
-1.11184e-11
-2.26565e-09
-2.71646e-11
1.68307e-10
-2.07575e-10
-1.21023e-10
-6.59885e-10
-3.5309e-10
-1.26218e-09
-5.13707e-10
-2.09623e-09
-5.90966e-10
-2.99335e-09
-5.35796e-10
-3.5071e-09
-2.74615e-10
-2.86061e-09
-5.84261e-10
1.35144e-10
-2.25754e-10
-1.88628e-10
-7.15987e-10
-4.66259e-10
-1.36442e-09
-6.96621e-10
-2.24574e-09
-8.70959e-10
-3.19887e-09
-9.193e-10
-3.83823e-09
-6.59464e-10
-3.48077e-09
-1.54888e-09
9.53921e-11
-2.4227e-10
-2.63004e-10
-7.65604e-10
-5.87363e-10
-1.44808e-09
-8.86724e-10
-2.35439e-09
-1.15621e-09
-3.33738e-09
-1.33192e-09
-4.06995e-09
-1.15065e-09
-4.05204e-09
-3.02445e-09
-1.255e-12
5.17606e-11
-4.67561e-11
9.80871e-11
-1.04022e-10
1.11885e-10
-1.61179e-10
1.13776e-10
-2.15296e-10
1.12826e-10
-2.64471e-10
1.10062e-10
-3.07167e-10
1.05843e-10
-3.42007e-10
1.00331e-10
-3.67836e-10
9.3753e-11
-3.83769e-10
8.63789e-11
-3.89216e-10
7.8509e-11
-3.83891e-10
7.04507e-11
-3.67802e-10
6.25006e-11
-3.41224e-10
5.49321e-11
-3.04679e-10
4.79921e-11
-2.58916e-10
4.19142e-11
-2.04948e-10
3.69658e-11
-1.44091e-10
3.34537e-11
-7.73066e-11
3.10238e-11
2.37396e-11
-5.19046e-12
1.94467e-10
-1.35876e-10
3.72001e-10
-2.96505e-10
4.21265e-10
-4.57244e-10
4.28713e-10
-6.08305e-10
4.23779e-10
-7.44962e-10
4.12541e-10
-8.62924e-10
3.95783e-10
-9.58453e-10
3.74224e-10
-1.02848e-09
3.48764e-10
-1.07072e-09
3.20473e-10
-1.08373e-09
2.90502e-10
-1.06691e-09
2.60004e-10
-1.02045e-09
2.30078e-10
-9.45253e-10
2.01726e-10
-8.42864e-10
1.75837e-10
-7.15408e-10
1.53244e-10
-5.65687e-10
1.34901e-10
-3.97307e-10
1.21927e-10
-2.12936e-10
1.13032e-10
8.60656e-11
-2.07658e-11
4.21268e-10
-2.32458e-10
7.98402e-10
-4.8776e-10
8.99523e-10
-7.40891e-10
9.1296e-10
-9.77084e-10
8.99623e-10
-1.18891e-09
8.72903e-10
-1.36971e-09
8.34354e-10
-1.51396e-09
7.85811e-10
-1.6173e-09
7.29376e-10
-1.67674e-09
6.67468e-10
-1.69059e-09
6.02595e-10
-1.65847e-09
5.37206e-10
-1.58116e-09
4.73573e-10
-1.46043e-09
4.13722e-10
-1.29892e-09
3.59412e-10
-1.10004e-09
3.12266e-10
-8.68079e-10
2.7414e-10
-6.08394e-10
2.47226e-10
-3.24882e-10
2.28783e-10
1.73891e-10
-4.93759e-11
7.29685e-10
-3.45572e-10
1.36472e-09
-6.93544e-10
1.52793e-09
-1.03416e-09
1.54428e-09
-1.34864e-09
1.51553e-09
-1.62707e-09
1.46395e-09
-1.86083e-09
1.39234e-09
-2.04321e-09
1.30445e-09
-2.16932e-09
1.20424e-09
-2.23622e-09
1.09607e-09
-2.24278e-09
9.84292e-10
-2.1895e-09
8.72999e-10
-2.07825e-09
7.65851e-10
-1.91203e-09
6.66008e-10
-1.69469e-09
5.76133e-10
-1.43088e-09
4.98635e-10
-1.12612e-09
4.36291e-10
-7.87051e-10
3.92399e-10
-4.18412e-10
3.62354e-10
2.74758e-10
-9.36671e-11
1.12242e-09
-4.81961e-10
2.06511e-09
-9.24446e-10
2.29435e-09
-1.35069e-09
2.30631e-09
-1.73869e-09
2.25172e-09
-2.07631e-09
2.16269e-09
-2.35354e-09
2.04409e-09
-2.56331e-09
1.90264e-09
-2.70114e-09
1.74492e-09
-2.76511e-09
1.57785e-09
-2.75549e-09
1.408e-09
-2.67434e-09
1.24128e-09
-2.52513e-09
1.08276e-09
-2.31233e-09
9.36637e-10
-2.04112e-09
8.06319e-10
-1.71728e-09
6.94813e-10
-1.34731e-09
6.05649e-10
-9.38611e-10
5.43071e-10
-4.96422e-10
5.00286e-10
3.78353e-10
-1.56205e-10
1.60693e-09
-6.46911e-10
2.8987e-09
-1.18748e-09
3.1907e-09
-1.69847e-09
3.1861e-09
-2.1554e-09
3.09107e-09
-2.54435e-09
2.94825e-09
-2.85479e-09
2.76588e-09
-3.0804e-09
2.55487e-09
-3.21826e-09
2.32524e-09
-3.26852e-09
2.087e-09
-3.23367e-09
1.84909e-09
-3.11798e-09
1.6192e-09
-2.92686e-09
1.40359e-09
-2.66643e-09
1.20718e-09
-2.34319e-09
1.03377e-09
-1.96385e-09
8.8663e-10
-1.53557e-09
7.69736e-10
-1.0661e-09
6.87976e-10
-5.60789e-10
6.32153e-10
4.76775e-10
-2.39287e-10
2.19478e-09
-8.44716e-10
3.86852e-09
-1.48775e-09
4.2117e-09
-2.08242e-09
4.17255e-09
-2.60265e-09
4.01758e-09
-3.03358e-09
3.80053e-09
-3.3655e-09
3.5348e-09
-3.59426e-09
3.23686e-09
-3.71982e-09
2.92086e-09
-3.74545e-09
2.60015e-09
-3.67666e-09
2.28593e-09
-3.52036e-09
1.9873e-09
-3.28414e-09
1.71125e-09
-2.97575e-09
1.46289e-09
-2.60282e-09
1.24589e-09
-2.17277e-09
1.06336e-09
-1.69305e-09
9.19338e-10
-1.17134e-09
8.18964e-10
-6.12792e-10
7.50534e-10
5.64507e-10
-3.4567e-10
2.9019e-09
-1.07965e-09
4.98074e-09
-1.82953e-09
5.35374e-09
-2.50553e-09
5.25507e-09
-3.08135e-09
5.01496e-09
-3.54262e-09
4.69901e-09
-3.88239e-09
4.32801e-09
-4.10041e-09
3.92515e-09
-4.20091e-09
3.5091e-09
-4.19132e-09
3.09641e-09
-4.08073e-09
2.69998e-09
-3.87891e-09
2.32962e-09
-3.59561e-09
1.99229e-09
-3.24002e-09
1.69261e-09
-2.82062e-09
1.43355e-09
-2.34519e-09
1.21755e-09
-1.82113e-09
1.04827e-09
-1.25564e-09
9.30729e-10
-6.53424e-10
8.50723e-10
6.38145e-10
-4.78912e-10
3.74909e-09
-1.35646e-09
6.24407e-09
-2.21661e-09
6.61371e-09
-2.96924e-09
6.42215e-09
-3.58989e-09
6.06541e-09
-4.06708e-09
5.62194e-09
-4.39908e-09
5.12231e-09
-4.59152e-09
4.59706e-09
-4.65433e-09
4.06919e-09
-4.59981e-09
3.55765e-09
-4.44092e-09
3.076e-09
-4.19025e-09
2.63374e-09
-3.85941e-09
2.23683e-09
-3.45867e-09
1.88864e-09
-2.99699e-09
1.5908e-09
-2.48213e-09
1.34462e-09
-1.92105e-09
1.15297e-09
-1.32019e-09
1.02038e-09
-6.83584e-10
9.30278e-10
6.96031e-10
-6.43637e-10
4.76291e-09
-1.68065e-09
7.66929e-09
-2.6525e-09
7.9877e-09
-3.47352e-09
7.66004e-09
-4.12441e-09
7.14863e-09
-4.60003e-09
6.54592e-09
-4.90693e-09
5.89424e-09
-5.05864e-09
5.23106e-09
-5.07188e-09
4.58264e-09
-4.96423e-09
3.96877e-09
-4.75238e-09
3.4022e-09
-4.45137e-09
2.89077e-09
-4.07417e-09
2.4384e-09
-3.63165e-09
2.04638e-09
-3.13277e-09
1.71449e-09
-2.58489e-09
1.44244e-09
-1.99425e-09
1.23202e-09
-1.36628e-09
1.08698e-09
-7.04173e-10
9.88544e-10
7.37844e-10
-8.46051e-10
5.97708e-09
-2.05874e-09
9.26846e-09
-3.14036e-09
9.46949e-09
-4.01671e-09
8.95122e-09
-4.67881e-09
8.24093e-09
-5.13247e-09
7.44576e-09
-5.39588e-09
6.6204e-09
-5.49217e-09
5.80729e-09
-5.4455e-09
5.03373e-09
-5.27855e-09
4.31807e-09
-5.01123e-09
3.67031e-09
-4.66034e-09
3.09519e-09
-4.23955e-09
2.59356e-09
-3.75976e-09
2.16394e-09
-3.22947e-09
1.80374e-09
-2.65531e-09
1.51083e-09
-2.04253e-09
1.28568e-09
-1.39537e-09
1.13101e-09
-7.16124e-10
1.02617e-09
7.64227e-10
-1.09478e-09
7.43476e-09
-2.49854e-09
1.10537e-08
-3.68282e-09
1.10485e-08
-4.59521e-09
1.02728e-08
-5.24474e-09
9.31487e-09
-5.6537e-09
8.29488e-09
-5.85507e-09
7.27829e-09
-5.88267e-09
6.30836e-09
-5.768e-09
5.41011e-09
-5.53805e-09
4.59742e-09
-5.21504e-09
3.87551e-09
-4.81662e-09
3.24461e-09
-4.35644e-09
2.70156e-09
-3.8448e-09
2.24161e-09
-3.28937e-09
1.8595e-09
-2.69573e-09
1.55109e-09
-2.06798e-09
1.31538e-09
-1.40908e-09
1.15399e-09
-7.20402e-10
1.04471e-09
7.76455e-10
-1.4021e-09
9.19205e-09
-3.00915e-09
1.30345e-08
-4.28145e-09
1.27074e-08
-5.20297e-09
1.15952e-08
-5.81165e-09
1.03392e-08
-6.15177e-09
9.06612e-09
-6.27364e-09
7.8473e-09
-6.22167e-09
6.72013e-09
-6.03374e-09
5.70314e-09
-5.7398e-09
4.80232e-09
-5.36313e-09
4.0162e-09
-4.92123e-09
3.3393e-09
-4.42696e-09
2.7638e-09
-3.88953e-09
2.28138e-09
-3.3154e-09
1.88401e-09
-2.70892e-09
1.56549e-09
-2.07295e-09
1.32336e-09
-1.40913e-09
1.15804e-09
-7.17982e-10
1.04626e-09
7.76179e-10
-1.78622e-09
1.13238e-08
-3.60064e-09
1.5213e-08
-4.93611e-09
1.44193e-08
-5.83102e-09
1.28803e-08
-6.36693e-09
1.12799e-08
-6.61414e-09
9.73308e-09
-6.64146e-09
8.30996e-09
-6.50228e-09
7.03245e-09
-6.23904e-09
5.90818e-09
-5.88281e-09
4.93175e-09
-5.45656e-09
4.09366e-09
-4.97657e-09
3.38173e-09
-4.45431e-09
2.78337e-09
-3.89746e-09
2.2865e-09
-3.31102e-09
1.88041e-09
-2.698e-09
1.55696e-09
-2.05998e-09
1.31229e-09
-1.39741e-09
1.14572e-09
-7.09852e-10
1.03313e-09
7.65192e-10
-2.27409e-09
1.39324e-08
-4.28293e-09
1.75747e-08
-5.64399e-09
1.61449e-08
-6.46704e-09
1.40813e-08
-6.89635e-09
1.21012e-08
-7.02847e-09
1.02718e-08
-6.94997e-09
8.65316e-09
-6.72004e-09
7.23988e-09
-6.38245e-09
6.02419e-09
-5.96803e-09
4.98778e-09
-5.49786e-09
4.11141e-09
-4.9862e-09
3.37612e-09
-4.44247e-09
2.76449e-09
-3.87256e-09
2.26095e-09
-3.27991e-09
1.85233e-09
-2.66613e-09
1.52874e-09
-2.03158e-09
1.28506e-09
-1.37558e-09
1.11961e-09
-6.96916e-10
1.00775e-09
7.45332e-10
-2.90402e-09
1.71588e-08
-5.06385e-09
2.0075e-08
-6.39836e-09
1.7831e-08
-7.09552e-09
1.5143e-08
-7.38472e-09
1.27685e-08
-7.38397e-09
1.06632e-08
-7.19226e-09
8.86815e-09
-6.87157e-09
7.341e-09
-6.46444e-09
6.05453e-09
-5.99816e-09
4.97523e-09
-5.49102e-09
4.07486e-09
-4.9546e-09
3.32777e-09
-4.396e-09
2.71208e-09
-3.81916e-09
2.20912e-09
-3.22591e-09
1.8036e-09
-2.61655e-09
1.48412e-09
-1.99027e-09
1.24451e-09
-1.34541e-09
1.08224e-09
-6.80058e-10
9.72476e-10
7.18343e-10
-3.72799e-09
2.11964e-08
-5.95189e-09
2.26263e-08
-7.18628e-09
1.94031e-08
-7.70517e-09
1.60122e-08
-7.81645e-09
1.3243e-08
-7.66951e-09
1.0893e-08
-7.36426e-09
8.95369e-09
-6.9577e-09
7.33973e-09
-6.48777e-09
6.00495e-09
-5.97735e-09
4.90078e-09
-5.44088e-09
3.99054e-09
-4.88679e-09
3.24264e-09
-4.31971e-09
2.63137e-09
-3.74163e-09
2.13549e-09
-3.15283e-09
1.73798e-09
-2.55236e-09
1.42628e-09
-1.93843e-09
1.19337e-09
-1.3085e-09
1.036e-09
-6.60078e-10
9.29462e-10
6.85825e-10
-4.79374e-09
2.62864e-08
-6.96882e-09
2.5115e-08
-7.98295e-09
2.07407e-08
-8.25691e-09
1.66216e-08
-8.17578e-09
1.35098e-08
-7.87959e-09
1.09577e-08
-7.46488e-09
8.91322e-09
-6.98047e-09
7.24347e-09
-6.45673e-09
5.88378e-09
-5.91086e-09
4.77242e-09
-5.3529e-09
3.86561e-09
-4.78805e-09
3.12691e-09
-4.21845e-09
2.52757e-09
-3.64423e-09
2.04439e-09
-3.06425e-09
1.65906e-09
-2.47649e-09
1.3582e-09
-1.87825e-09
1.13411e-09
-1.2663e-09
9.83063e-10
-6.37695e-10
8.80658e-10
6.492e-10
-6.18753e-09
3.27566e-08
-8.16677e-09
2.73939e-08
-8.76852e-09
2.16513e-08
-8.74555e-09
1.69189e-08
-8.45178e-09
1.35483e-08
-8.01011e-09
1.08606e-08
-7.49556e-09
8.75607e-09
-6.94421e-09
7.06279e-09
-6.37688e-09
5.70088e-09
-5.80457e-09
4.59882e-09
-5.23282e-09
3.70739e-09
-4.66366e-09
2.98663e-09
-4.0969e-09
2.40564e-09
-3.53099e-09
1.93983e-09
-2.96354e-09
1.5701e-09
-2.39159e-09
1.28251e-09
-1.81172e-09
1.06896e-09
-1.22013e-09
9.25313e-10
-6.13545e-10
8.27764e-10
6.09702e-10
-7.42223e-09
4.04485e-08
-9.42072e-09
2.96774e-08
-9.48046e-09
2.20052e-08
-9.14394e-09
1.68875e-08
-8.6361e-09
1.33569e-08
-8.06178e-09
1.06145e-08
-7.46089e-09
8.49561e-09
-6.85517e-09
6.81016e-09
-6.25488e-09
5.46679e-09
-5.66492e-09
4.38866e-09
-5.08654e-09
3.52291e-09
-4.51883e-09
2.82747e-09
-3.95956e-09
2.27009e-09
-3.4057e-09
1.82543e-09
-2.85378e-09
1.47398e-09
-2.30009e-09
1.20155e-09
-1.74064e-09
9.99794e-10
-1.17118e-09
8.64362e-10
-5.8823e-10
7.72244e-10
5.68346e-10
3.323e-11
-2.74921e-10
-9.40114e-10
-8.53718e-10
-1.87856e-09
-1.57109e-09
-2.82791e-09
-2.4665e-09
-3.77753e-09
-3.44919e-09
-4.58423e-09
-4.32259e-09
-4.91586e-09
-4.75133e-09
-3.77064e-09
-4.90854e-09
-2.8195e-10
-2.99693e-10
-1.44652e-09
-9.03809e-10
-2.62494e-09
-1.60733e-09
-3.87931e-09
-2.42679e-09
-5.22811e-09
-3.31501e-09
-6.60903e-09
-4.15384e-09
-7.85061e-09
-4.70174e-09
-4.06913e-09
-8.28258e-09
-6.47557e-10
-3.20483e-10
-2.00023e-09
-9.18995e-10
-3.38777e-09
-1.58765e-09
-4.85888e-09
-2.32353e-09
-6.44046e-09
-3.10125e-09
-8.12145e-09
-3.83862e-09
-9.78398e-09
-4.38224e-09
-3.94928e-09
-1.07158e-08
-1.04482e-09
-3.44264e-10
-2.58116e-09
-9.03717e-10
-4.16355e-09
-1.52631e-09
-5.82143e-09
-2.1867e-09
-7.57655e-09
-2.86715e-09
-9.4192e-09
-3.5158e-09
-1.1279e-08
-4.01112e-09
-3.68837e-09
-1.24375e-08
-1.45644e-09
-3.6839e-10
-3.16939e-09
-8.65022e-10
-4.93439e-09
-1.43557e-09
-6.76703e-09
-2.02832e-09
-8.68199e-09
-2.62641e-09
-1.0675e-08
-3.19669e-09
-1.26759e-08
-3.64571e-09
-3.38683e-09
-1.39613e-08
-1.89547e-09
-3.83805e-10
-3.77062e-09
-8.17335e-10
-5.70807e-09
-1.32558e-09
-7.70926e-09
-1.85457e-09
-9.7825e-09
-2.3806e-09
-1.19253e-08
-2.88175e-09
-1.40652e-08
-3.28967e-09
-3.07486e-09
-1.54482e-08
-2.33408e-09
-3.90229e-10
-4.37297e-09
-7.59098e-10
-6.47226e-09
-1.20695e-09
-8.63874e-09
-1.66874e-09
-1.08735e-08
-2.12642e-09
-1.31723e-08
-2.56467e-09
-1.54637e-08
-2.93243e-09
-2.75291e-09
-1.6945e-08
-2.75248e-09
-3.75531e-10
-4.95597e-09
-6.89463e-10
-7.22199e-09
-1.07479e-09
-9.55445e-09
-1.47013e-09
-1.19527e-08
-1.862e-09
-1.44127e-08
-2.23991e-09
-1.68659e-08
-2.56597e-09
-2.4172e-09
-1.84507e-08
-3.15018e-09
-3.42704e-10
-5.52024e-09
-6.06463e-10
-7.95359e-09
-9.28501e-10
-1.04526e-08
-1.25813e-09
-1.30163e-08
-1.5854e-09
-1.56414e-08
-1.90322e-09
-1.82647e-08
-2.18464e-09
-2.06382e-09
-1.99584e-08
-3.52621e-09
-2.96057e-10
-6.06341e-09
-5.09524e-10
-8.66409e-09
-7.68081e-10
-1.13302e-08
-1.03222e-09
-1.40609e-08
-1.29502e-09
-1.68538e-08
-1.55174e-09
-1.96536e-08
-1.78478e-09
-1.6899e-09
-2.1461e-08
-3.87869e-09
-2.38373e-10
-6.58223e-09
-3.99451e-10
-9.34984e-09
-5.93932e-10
-1.21833e-08
-7.9226e-10
-1.50818e-08
-9.89872e-10
-1.80436e-08
-1.18405e-09
-2.10247e-08
-1.36474e-09
-1.2938e-09
-2.29495e-08
-4.19719e-09
-1.71943e-10
-7.06538e-09
-2.7793e-10
-9.99812e-09
-4.07853e-10
-1.2997e-08
-5.40071e-10
-1.6062e-08
-6.71476e-10
-1.91907e-08
-8.01612e-10
-2.23544e-08
-9.26526e-10
-8.77098e-10
-2.43975e-08
-4.42746e-09
-1.00724e-10
-7.45362e-09
-1.51637e-10
-1.05423e-08
-2.19084e-10
-1.3695e-08
-2.87156e-10
-1.69131e-08
-3.53179e-10
-2.01938e-08
-4.19237e-10
-2.35262e-08
-4.87888e-10
-4.58434e-10
-2.56713e-08
-4.35512e-09
-3.51897e-11
-7.51695e-09
-4.28714e-11
-1.07299e-08
-5.91928e-11
-1.39953e-08
-7.4785e-11
-1.73135e-08
-8.80085e-11
-2.06816e-08
-1.01761e-10
-2.40939e-08
-1.24768e-10
-1.25899e-10
-2.62679e-08
-3.57754e-09
-6.82668e-09
-1.00921e-08
-1.33732e-08
-1.66674e-08
-1.99727e-08
-2.32824e-08
-2.56075e-08
-4.00533e-09
-1.00512e-09
-3.77015e-09
-2.46565e-10
-3.63559e-09
-1.35752e-10
-3.53655e-09
-9.92545e-11
-3.4581e-09
-7.84912e-11
-3.39309e-09
-6.50126e-11
-3.33696e-09
-5.61314e-11
-3.28656e-09
-5.04035e-11
-3.23968e-09
-4.68843e-11
-3.19474e-09
-4.49346e-11
-3.15063e-09
-4.41114e-11
-3.10655e-09
-4.40834e-11
-3.06195e-09
-4.46017e-11
-3.01647e-09
-4.54766e-11
-2.96991e-09
-4.65588e-11
-2.92219e-09
-4.77183e-11
-2.87337e-09
-4.88246e-11
-2.82364e-09
-4.97249e-11
-2.77344e-09
-5.02047e-11
-2.7235e-09
-4.99335e-11
-2.67508e-09
-4.84255e-11
-2.62999e-09
-4.50892e-11
-2.59051e-09
-3.9484e-11
-2.5586e-09
-3.19068e-11
-2.53427e-09
-2.43254e-11
-2.5128e-09
-2.1476e-11
-2.4809e-09
-3.18973e-11
-2.41241e-09
-6.8491e-11
-2.26512e-09
-1.4729e-10
-1.98082e-09
-2.84296e-10
-1.48824e-09
-4.9258e-10
-7.22326e-10
-7.65917e-10
3.55185e-10
-1.07751e-09
1.72203e-09
-1.36685e-09
3.27761e-09
-1.55557e-09
4.83803e-09
-1.56043e-09
6.14545e-09
-1.30741e-09
6.92034e-09
-7.74887e-10
6.94136e-09
-2.1026e-11
6.17216e-09
7.69198e-10
4.8144e-09
1.35776e-09
3.25033e-09
1.56407e-09
1.92685e-09
1.32348e-09
1.12859e-09
7.98261e-10
8.98247e-10
2.30343e-10
1.11641e-09
-2.18165e-10
1.61472e-09
-4.98311e-10
2.45622e-09
-8.41497e-10
2.57265e-09
-1.1635e-10
8.29309e-09
-5.71478e-09
-8.3656e-09
-1.10557e-09
-8.36435e-09
-2.71007e-10
-8.37123e-09
-1.31847e-10
-8.38441e-09
-8.66231e-11
-8.39879e-09
-6.42059e-11
-8.41234e-09
-5.14905e-11
-8.42391e-09
-4.45573e-11
-8.43264e-09
-4.16809e-11
-8.4377e-09
-4.18197e-11
-8.43839e-09
-4.42435e-11
-8.4341e-09
-4.84074e-11
-8.4243e-09
-5.38811e-11
-8.40859e-09
-6.03069e-11
-8.38668e-09
-6.73893e-11
-8.35836e-09
-7.48781e-11
-8.32355e-09
-8.25319e-11
-8.28229e-09
-9.00853e-11
-8.23486e-09
-9.7152e-11
-8.18203e-09
-1.03039e-10
-8.12543e-09
-1.0653e-10
-8.06801e-09
-1.05843e-10
-8.01398e-09
-9.91184e-11
-7.96768e-09
-8.57885e-11
-7.93058e-09
-6.90011e-11
-7.89617e-09
-5.87389e-11
-7.84307e-09
-7.45777e-11
-7.72849e-09
-1.46477e-10
-7.48547e-09
-3.1151e-10
-7.02859e-09
-6.04171e-10
-6.27053e-09
-1.04235e-09
-5.13346e-09
-1.62965e-09
-3.58596e-09
-2.31342e-09
-1.64161e-09
-3.02186e-09
6.22266e-10
-3.63073e-09
3.05312e-09
-3.98643e-09
5.42228e-09
-3.92958e-09
7.45815e-09
-3.34329e-09
8.88955e-09
-2.20628e-09
9.51373e-09
-6.45212e-10
9.2279e-09
1.05503e-09
8.0761e-09
2.50956e-09
6.33163e-09
3.30854e-09
4.49993e-09
3.15518e-09
3.11068e-09
2.18752e-09
2.44698e-09
8.94036e-10
2.41929e-09
-1.90471e-10
2.55252e-09
-6.31544e-10
1.6269e-09
8.41391e-11
-3.54947e-09
5.06064e-09
1.73197e-08
-1.25344e-08
-1.10574e-08
-9.73118e-10
-1.1187e-08
-1.7152e-10
-1.12981e-08
-2.53836e-11
-1.13998e-08
1.42107e-11
-1.14941e-08
2.99348e-11
-1.15827e-08
3.70789e-11
-1.16665e-08
3.92568e-11
-1.1746e-08
3.77578e-11
-1.18211e-08
3.33045e-11
-1.18918e-08
2.64214e-11
-1.19577e-08
1.75232e-11
-1.20185e-08
6.95343e-12
-1.20739e-08
-4.96321e-12
-1.21234e-08
-1.78745e-11
-1.21668e-08
-3.14416e-11
-1.2204e-08
-4.53389e-11
-1.2235e-08
-5.90693e-11
-1.22605e-08
-7.16389e-11
-1.22824e-08
-8.12191e-11
-1.23037e-08
-8.51606e-11
-1.23287e-08
-8.08932e-11
-1.23597e-08
-6.8115e-11
-1.23933e-08
-5.21586e-11
-1.24146e-08
-4.77135e-11
-1.23919e-08
-8.14577e-11
-1.22749e-08
-1.91522e-10
-1.19989e-08
-4.22489e-10
-1.14941e-08
-8.16394e-10
-1.06965e-08
-1.40175e-09
-9.55639e-09
-2.18243e-09
-8.06668e-09
-3.11935e-09
-6.22602e-09
-4.15408e-09
-4.06601e-09
-5.18187e-09
-1.67846e-09
-6.01828e-09
7.99978e-10
-6.46487e-09
3.16591e-09
-6.29552e-09
5.18046e-09
-5.35783e-09
6.62986e-09
-3.65568e-09
7.38096e-09
-1.39631e-09
7.40997e-09
1.02602e-09
6.79315e-09
3.12638e-09
5.63229e-09
4.46941e-09
4.27518e-09
4.51228e-09
3.12873e-09
3.33397e-09
2.43145e-09
1.59131e-09
1.93131e-09
3.09668e-10
7.30593e-10
5.69174e-10
-2.95774e-09
3.7725e-09
-1.00678e-08
1.21716e-08
2.37334e-08
-1.64385e-08
-1.28855e-08
-7.60668e-10
-1.30685e-08
-2.52306e-11
-1.32186e-08
1.18542e-10
-1.33579e-08
1.52276e-10
-1.34902e-08
1.62036e-10
-1.36176e-08
1.64413e-10
-1.37413e-08
1.62978e-10
-1.38623e-08
1.5874e-10
-1.39811e-08
1.52163e-10
-1.40983e-08
1.43587e-10
-1.42141e-08
1.33315e-10
-1.43288e-08
1.21631e-10
-1.44425e-08
1.08799e-10
-1.45555e-08
9.50586e-11
-1.46676e-08
8.06989e-11
-1.47792e-08
6.62256e-11
-1.48909e-08
5.26701e-11
-1.50044e-08
4.18944e-11
-1.51221e-08
3.64493e-11
-1.52457e-08
3.84164e-11
-1.53736e-08
4.69842e-11
-1.54969e-08
5.52564e-11
-1.55966e-08
4.7459e-11
-1.5642e-08
-2.27971e-12
-1.55944e-08
-1.2906e-10
-1.54114e-08
-3.74535e-10
-1.50517e-08
-7.82179e-10
-1.44778e-08
-1.39031e-09
-1.36571e-08
-2.22243e-09
-1.25649e-08
-3.27462e-09
-1.11785e-08
-4.50578e-09
-9.50034e-09
-5.83221e-09
-7.58547e-09
-7.09674e-09
-5.48442e-09
-8.11933e-09
-3.31368e-09
-8.63561e-09
-1.24822e-09
-8.36098e-09
5.23736e-10
-7.12979e-09
1.82185e-09
-4.9538e-09
2.55716e-09
-2.13161e-09
2.75987e-09
8.23306e-10
2.5524e-09
3.33385e-09
2.07076e-09
4.95105e-09
1.48198e-09
5.10106e-09
9.25311e-10
3.89064e-09
2.54151e-10
2.26247e-09
-1.2437e-09
1.80752e-09
-4.55728e-09
3.88275e-09
-1.01412e-08
9.35648e-09
-1.62064e-08
1.82382e-08
2.68588e-08
-1.92881e-08
-1.44447e-08
-5.38361e-10
-1.46407e-08
1.28176e-10
-1.47932e-08
2.63443e-10
-1.49341e-08
2.91763e-10
-1.50698e-08
2.97516e-10
-1.52028e-08
2.97302e-10
-1.53343e-08
2.94515e-10
-1.54656e-08
2.89956e-10
-1.55973e-08
2.83931e-10
-1.57304e-08
2.76677e-10
-1.58655e-08
2.68438e-10
-1.60034e-08
2.59472e-10
-1.61446e-08
2.50038e-10
-1.629e-08
2.40428e-10
-1.64404e-08
2.3111e-10
-1.65971e-08
2.22958e-10
-1.67619e-08
2.17458e-10
-1.69365e-08
2.16524e-10
-1.71216e-08
2.21476e-10
-1.73142e-08
2.31049e-10
-1.75063e-08
2.39039e-10
-1.76836e-08
2.32606e-10
-1.78279e-08
1.91769e-10
-1.79197e-08
8.94535e-11
-1.79397e-08
-1.0902e-10
-1.78678e-08
-4.46472e-10
-1.76784e-08
-9.71527e-10
-1.73391e-08
-1.72966e-09
-1.68134e-08
-2.74804e-09
-1.60686e-08
-4.01946e-09
-1.50833e-08
-5.49112e-09
-1.38603e-08
-7.05517e-09
-1.24158e-08
-8.54127e-09
-1.0816e-08
-9.71908e-09
-9.15826e-09
-1.02934e-08
-7.53835e-09
-9.98088e-09
-6.10229e-09
-8.56585e-09
-4.95883e-09
-6.09726e-09
-4.16242e-09
-2.92803e-09
-3.68023e-09
3.41112e-10
-3.41285e-09
3.06647e-09
-3.19886e-09
4.73707e-09
-3.09229e-09
4.99449e-09
-3.41531e-09
4.21365e-09
-4.80909e-09
3.65626e-09
-7.81066e-09
4.80908e-09
-1.22949e-08
8.36704e-09
-1.7281e-08
1.43426e-08
-2.08295e-08
2.17882e-08
2.70107e-08
-2.09368e-08
-1.59402e-08
-3.31724e-10
-1.61286e-08
2.68865e-10
-1.62665e-08
3.92681e-10
-1.63932e-08
4.16749e-10
-1.65163e-08
4.20378e-10
-1.66385e-08
4.19399e-10
-1.6761e-08
4.17006e-10
-1.68849e-08
4.13899e-10
-1.70113e-08
4.10324e-10
-1.71412e-08
4.06493e-10
-1.72754e-08
4.02655e-10
-1.7415e-08
3.99107e-10
-1.75612e-08
3.96208e-10
-1.77152e-08
3.94448e-10
-1.78787e-08
3.94592e-10
-1.80535e-08
3.97821e-10
-1.82417e-08
4.05615e-10
-1.84442e-08
4.19075e-10
-1.86604e-08
4.37593e-10
-1.88867e-08
4.57366e-10
-1.91182e-08
4.7054e-10
-1.93506e-08
4.65011e-10
-1.95824e-08
4.23552e-10
-1.98134e-08
3.2049e-10
-2.00387e-08
1.16267e-10
-2.02404e-08
-2.4479e-10
-2.03846e-08
-8.27301e-10
-2.04274e-08
-1.68682e-09
-2.0326e-08
-2.84949e-09
-2.0048e-08
-4.29746e-09
-1.95777e-08
-5.96146e-09
-1.89176e-08
-7.71525e-09
-1.80875e-08
-9.37137e-09
-1.71264e-08
-1.06802e-08
-1.60771e-08
-1.13427e-08
-1.49967e-08
-1.10613e-08
-1.39271e-08
-9.63541e-09
-1.29128e-08
-7.11154e-09
-1.19829e-08
-3.85793e-09
-1.11373e-08
-5.04521e-10
-1.03617e-08
2.29092e-09
-9.72452e-09
4.09984e-09
-9.58785e-09
4.85782e-09
-1.05015e-08
5.12733e-09
-1.28077e-08
5.96242e-09
-1.62053e-08
8.2067e-09
-1.99165e-08
1.20783e-08
-2.27688e-08
1.71949e-08
-2.35073e-08
2.25285e-08
2.50215e-08
-2.1473e-08
-1.74384e-08
-1.46321e-10
-1.76117e-08
3.90208e-10
-1.77285e-08
5.00049e-10
-1.78341e-08
5.20475e-10
-1.79374e-08
5.23301e-10
-1.80409e-08
5.22881e-10
-1.81461e-08
5.22107e-10
-1.82538e-08
5.21618e-10
-1.83651e-08
5.21666e-10
-1.84811e-08
5.22498e-10
-1.86029e-08
5.24432e-10
-1.87317e-08
5.2788e-10
-1.88688e-08
5.33383e-10
-1.90161e-08
5.417e-10
-1.91754e-08
5.53903e-10
-1.9349e-08
5.71364e-10
-1.95387e-08
5.95411e-10
-1.97463e-08
6.26604e-10
-1.99727e-08
6.6397e-10
-2.02201e-08
7.04777e-10
-2.04943e-08
7.44786e-10
-2.08065e-08
7.77188e-10
-2.11706e-08
7.87673e-10
-2.15959e-08
7.45754e-10
-2.20761e-08
5.96453e-10
-2.25842e-08
2.6338e-10
-2.30771e-08
-3.34394e-10
-2.35071e-08
-1.25686e-09
-2.38343e-08
-2.52231e-09
-2.40327e-08
-4.09901e-09
-2.40932e-08
-5.90099e-09
-2.40235e-08
-7.78494e-09
-2.38442e-08
-9.55063e-09
-2.35766e-08
-1.09479e-08
-2.32243e-08
-1.16949e-08
-2.27656e-08
-1.152e-08
-2.21565e-08
-1.02445e-08
-2.13685e-08
-7.89953e-09
-2.04239e-08
-4.80247e-09
-1.94202e-08
-1.50823e-09
-1.85404e-08
1.41107e-09
-1.80488e-08
3.60829e-09
-1.82932e-08
5.10224e-09
-1.95197e-08
6.35377e-09
-2.15545e-08
7.99725e-09
-2.38247e-08
1.04769e-08
-2.55639e-08
1.38175e-08
-2.59733e-08
1.76043e-08
-2.45057e-08
2.10628e-08
2.18589e-08
-2.12972e-08
-1.8942e-08
1.60389e-11
-1.90952e-08
4.88471e-10
-1.91878e-08
5.82623e-10
-1.92693e-08
6.00011e-10
-1.93495e-08
6.03129e-10
-1.9431e-08
6.04308e-10
-1.95149e-08
6.06058e-10
-1.96023e-08
6.08974e-10
-1.9694e-08
6.1335e-10
-1.9791e-08
6.19512e-10
-1.98944e-08
6.27887e-10
-2.00056e-08
6.39049e-10
-2.0126e-08
6.53773e-10
-2.02574e-08
6.73116e-10
-2.0402e-08
6.98471e-10
-2.05621e-08
7.31473e-10
-2.07404e-08
7.73696e-10
-2.09401e-08
8.26354e-10
-2.11667e-08
8.90514e-10
-2.14297e-08
9.67828e-10
-2.17454e-08
1.06046e-09
-2.21352e-08
1.16698e-09
-2.26192e-08
1.27175e-09
-2.32072e-08
1.33367e-09
-2.38883e-08
1.27756e-09
-2.46312e-08
1.00634e-09
-2.5395e-08
4.29415e-10
-2.61378e-08
-5.14057e-10
-2.68261e-08
-1.83408e-09
-2.74383e-08
-3.48679e-09
-2.79688e-08
-5.37048e-09
-2.84288e-08
-7.32496e-09
-2.88397e-08
-9.13977e-09
-2.92158e-08
-1.05717e-08
-2.95419e-08
-1.13688e-08
-2.97571e-08
-1.13049e-08
-2.97651e-08
-1.02365e-08
-2.94825e-08
-8.18208e-09
-2.8904e-08
-5.38095e-09
-2.81468e-08
-2.26551e-09
-2.74366e-08
7.00934e-10
-2.70361e-08
3.20779e-09
-2.71152e-08
5.18128e-09
-2.76692e-08
6.90782e-09
-2.84215e-08
8.74953e-09
-2.89081e-08
1.09635e-08
-2.86185e-08
1.35279e-08
-2.71625e-08
1.61484e-08
-2.44391e-08
1.83413e-08
1.83626e-08
-2.08962e-08
-2.04447e-08
1.54428e-10
-2.0574e-08
5.61106e-10
-2.06402e-08
6.38594e-10
-2.06957e-08
6.53598e-10
-2.07509e-08
6.57937e-10
-2.08082e-08
6.61553e-10
-2.08687e-08
6.66501e-10
-2.0933e-08
6.7334e-10
-2.10021e-08
6.82421e-10
-2.10768e-08
6.9416e-10
-2.1158e-08
7.09111e-10
-2.12469e-08
7.2802e-10
-2.13451e-08
7.51896e-10
-2.1454e-08
7.82094e-10
-2.15759e-08
8.20353e-10
-2.17132e-08
8.68768e-10
-2.18693e-08
9.29759e-10
-2.20493e-08
1.00635e-09
-2.2262e-08
1.1032e-09
-2.25216e-08
1.22747e-09
-2.28483e-08
1.38711e-09
-2.32653e-08
1.58399e-09
-2.379e-08
1.7965e-09
-2.44326e-08
1.97624e-09
-2.51848e-08
2.02977e-09
-2.60219e-08
1.84341e-09
-2.69185e-08
1.32602e-09
-2.7841e-08
4.08402e-10
-2.87673e-08
-9.07743e-10
-2.96818e-08
-2.57226e-09
-3.05795e-08
-4.47279e-09
-3.14662e-08
-6.43829e-09
-3.23519e-08
-8.254e-09
-3.32387e-08
-9.68491e-09
-3.41031e-08
-1.05045e-08
-3.48797e-08
-1.05283e-08
-3.54617e-08
-9.65452e-09
-3.57342e-08
-7.90957e-09
-3.56347e-08
-5.48039e-09
-3.52043e-08
-2.69599e-09
-3.45758e-08
7.2501e-11
-3.39297e-08
2.5617e-09
-3.33674e-08
4.61895e-09
-3.2864e-08
6.40437e-09
-3.22401e-08
8.12564e-09
-3.12231e-08
9.94648e-09
-2.95558e-08
1.18607e-08
-2.71183e-08
1.37109e-08
-2.3987e-08
1.5212e-08
1.5034e-08
-2.0611e-08
-2.19389e-08
2.67791e-10
-2.20404e-08
6.05676e-10
-2.20782e-08
6.66396e-10
-2.21062e-08
6.7978e-10
-2.21348e-08
6.86104e-10
-2.2166e-08
6.92755e-10
-2.22009e-08
7.01304e-10
-2.22398e-08
7.12266e-10
-2.22834e-08
7.26039e-10
-2.23324e-08
7.43114e-10
-2.23874e-08
7.64148e-10
-2.24494e-08
7.90013e-10
-2.25194e-08
8.21888e-10
-2.25986e-08
8.61346e-10
-2.26887e-08
9.10419e-10
-2.27917e-08
9.71741e-10
-2.29108e-08
1.04889e-09
-2.30514e-08
1.14693e-09
-2.32219e-08
1.27369e-09
-2.34349e-08
1.4405e-09
-2.3706e-08
1.65823e-09
-2.40526e-08
1.93054e-09
-2.44909e-08
2.23487e-09
-2.50276e-08
2.5129e-09
-2.56649e-08
2.66705e-09
-2.64024e-08
2.58095e-09
-2.72306e-08
2.15425e-09
-2.81373e-08
1.31507e-09
-2.91283e-08
8.32115e-11
-3.0199e-08
-1.50155e-09
-3.13515e-08
-3.32028e-09
-3.25806e-08
-5.20913e-09
-3.38654e-08
-6.96924e-09
-3.51651e-08
-8.38517e-09
-3.64207e-08
-9.24887e-09
-3.75544e-08
-9.39466e-09
-3.84676e-08
-8.74126e-09
-3.90519e-08
-7.32528e-09
-3.92214e-08
-5.31094e-09
-3.8955e-08
-2.96235e-09
-3.83086e-08
-5.73932e-10
-3.73734e-08
1.62653e-09
-3.62607e-08
3.50622e-09
-3.49871e-08
5.13077e-09
-3.34895e-08
6.62803e-09
-3.16521e-08
8.10916e-09
-2.93822e-08
9.59075e-09
-2.66743e-08
1.10031e-08
-2.36141e-08
1.21537e-08
1.20049e-08
-2.05372e-08
-2.34148e-08
3.54377e-10
-2.3484e-08
6.19243e-10
-2.34909e-08
6.63994e-10
-2.34893e-08
6.76504e-10
-2.34888e-08
6.85227e-10
-2.34911e-08
6.95046e-10
-2.34969e-08
7.07056e-10
-2.35063e-08
7.21706e-10
-2.35197e-08
7.39398e-10
-2.35372e-08
7.60642e-10
-2.35592e-08
7.8611e-10
-2.35858e-08
8.16686e-10
-2.36175e-08
8.53576e-10
-2.36546e-08
8.98388e-10
-2.36974e-08
9.53221e-10
-2.37465e-08
1.02087e-09
-2.38034e-08
1.10579e-09
-2.38704e-08
1.21397e-09
-2.39511e-08
1.35437e-09
-2.40512e-08
1.5406e-09
-2.41765e-08
1.7835e-09
-2.4332e-08
2.08604e-09
-2.45249e-08
2.42777e-09
-2.47654e-08
2.75344e-09
-2.50704e-08
2.97204e-09
-2.54635e-08
2.97398e-09
-2.5969e-08
2.65982e-09
-2.66239e-08
1.96998e-09
-2.74411e-08
9.00319e-10
-2.84708e-08
-4.71821e-10
-2.97335e-08
-2.05758e-09
-3.12293e-08
-3.71329e-09
-3.29077e-08
-5.29082e-09
-3.46646e-08
-6.62828e-09
-3.63623e-08
-7.55121e-09
-3.78599e-08
-7.89702e-09
-3.90355e-08
-7.56574e-09
-3.97946e-08
-6.56614e-09
-4.00781e-08
-5.02746e-09
-3.98729e-08
-3.16749e-09
-3.92161e-08
-1.23079e-09
-3.81703e-08
5.80794e-10
-3.68315e-08
2.16737e-09
-3.52515e-08
3.55079e-09
-3.34346e-08
4.81109e-09
-3.13495e-08
6.02414e-09
-2.8974e-08
7.21525e-09
-2.63219e-08
8.35099e-09
-2.34402e-08
9.27377e-09
9.19056e-09
-2.05774e-08
-2.4842e-08
4.08726e-10