/*--------------------------------*- C++ -*----------------------------------*\
  =========                 |
  \\      /  F ield         | OpenFOAM: The Open Source CFD Toolbox
   \\    /   O peration     | Website:  https://openfoam.org
    \\  /    A nd           | Version:  13
     \\/     M anipulation  |
\*---------------------------------------------------------------------------*/
FoamFile
{
    format      ascii;
    class       volVectorField;
    location    "0.0008";
    object      U;
}
// * * * * * * * * * * * * * * * * * * * * * * * * * * * * * * * * * * * * * //

dimensions      [0 1 -1 0 0 0 0];

internalField   nonuniform List<vector> 
1690
(
(0.292105 -0.00146281 3.35169e-18)
(0.322488 -0.00460385 8.15248e-18)
(0.39002 -0.00822349 -1.63207e-17)
(0.497434 -0.0122118 -3.40012e-17)
(0.649331 -0.0153792 -2.03856e-17)
(0.820344 -0.0156438 -8.15622e-18)
(0.978513 -0.00986333 5.588e-17)
(1.02957 0.000454893 3.40179e-17)
(0.290434 -0.00379991 -2.98577e-19)
(0.320658 -0.011997 4.60229e-18)
(0.388027 -0.0214492 1.52714e-17)
(0.495628 -0.0318909 7.89951e-17)
(0.648371 -0.0404067 -6.09941e-17)
(0.821169 -0.0410766 4.74441e-17)
(0.980634 -0.0260594 7.52778e-18)
(1.03057 0.00155815 -5.61672e-18)
(0.287309 -0.00603376 -2.16792e-18)
(0.317211 -0.0189583 1.55299e-17)
(0.384176 -0.0339931 4.10347e-18)
(0.491911 -0.0508416 5.06628e-17)
(0.646355 -0.0651132 -2.68975e-17)
(0.822842 -0.0661645 -9.35523e-18)
(0.985031 -0.0417369 -8.43907e-17)
(1.03272 0.00379495 -4.82061e-17)
(0.282642 -0.00832864 6.72629e-19)
(0.312062 -0.0261578 -6.02847e-18)
(0.378332 -0.0470989 4.40274e-18)
(0.486096 -0.0709594 3.97769e-18)
(0.643121 -0.0917534 -6.87226e-17)
(0.825412 -0.0934425 -3.55015e-17)
(0.992022 -0.0582061 -1.19533e-16)
(1.03633 0.00685889 -8.15043e-17)
(0.276456 -0.0105741 -1.02739e-18)
(0.305198 -0.0332662 2.03975e-19)
(0.370415 -0.0602203 -9.62176e-18)
(0.477995 -0.0915879 -2.60395e-17)
(0.63839 -0.119743 -5.16026e-17)
(0.82862 -0.122452 -6.30912e-17)
(1.00153 -0.0748762 -1.09266e-16)
(1.04149 0.0112858 -9.08883e-17)
(0.268801 -0.0127286 -1.31964e-18)
(0.296642 -0.0401459 -5.10755e-18)
(0.360349 -0.0731555 -2.40101e-17)
(0.467339 -0.112608 -4.52303e-17)
(0.631575 -0.149227 -7.78006e-17)
(0.8313 -0.153511 -4.17131e-17)
(1.01251 -0.0917599 -7.5926e-17)
(1.0481 0.0174932 -8.6519e-17)
(0.259751 -0.0147621 -1.63421e-18)
(0.28644 -0.0466995 -6.52513e-18)
(0.348045 -0.0857569 -2.52153e-17)
(0.45372 -0.133951 -7.82581e-17)
(0.621441 -0.180334 -9.30128e-17)
(0.830323 -0.186983 -4.98544e-17)
(1.02163 -0.109256 -4.72124e-17)
(1.05552 0.0255426 -7.02542e-17)
(0.249401 -0.0166419 -1.18716e-18)
(0.274661 -0.0528125 -7.41767e-18)
(0.333401 -0.0978114 -3.04421e-17)
(0.436584 -0.155332 -9.67467e-17)
(0.605734 -0.212684 -7.60943e-17)
(0.819912 -0.222819 -3.19873e-17)
(1.02212 -0.128235 -2.75003e-17)
(1.06215 0.0346559 -5.2377e-17)
(0.237875 -0.0183315 -7.16677e-19)
(0.26141 -0.0583403 -6.32912e-18)
(0.31633 -0.109024 -2.67957e-17)
(0.415317 -0.176132 -7.99678e-17)
(0.58124 -0.244899 -8.03691e-17)
(0.792757 -0.260121 -3.27551e-17)
(1.00432 -0.150078 -1.12415e-17)
(1.06508 0.0427303 -3.41954e-17)
(0.225331 -0.0197932 -5.74702e-19)
(0.246845 -0.0631194 -6.20458e-18)
(0.296927 -0.119002 -3.3624e-17)
(0.38938 -0.195262 -7.24743e-17)
(0.544915 -0.274711 -5.8139e-17)
(0.74327 -0.296845 -1.13229e-17)
(0.958986 -0.176631 1.73338e-18)
(1.06055 0.046088 -2.37866e-17)
(0.211951 -0.0209921 -8.71693e-19)
(0.231181 -0.0669973 -6.59327e-18)
(0.275604 -0.127288 -3.71871e-17)
(0.358743 -0.211252 -5.50078e-17)
(0.495785 -0.299735 -3.88502e-17)
(0.670987 -0.330028 -6.51595e-18)
(0.88232 -0.209855 1.42154e-17)
(1.04423 0.0397308 -1.35579e-17)
(0.197935 -0.0219014 -9.78926e-19)
(0.214707 -0.0698609 -6.78482e-18)
(0.253097 -0.133455 -3.2807e-17)
(0.324338 -0.222684 -4.88769e-17)
(0.43637 -0.317511 -3.38107e-17)
(0.581345 -0.357388 2.24543e-18)
(0.778712 -0.249589 2.3231e-17)
(1.00899 0.0179528 7.15347e-18)
(0.183484 -0.0225129 -1.21169e-18)
(0.197818 -0.0716947 -7.94442e-18)
(0.230279 -0.137248 -2.80542e-17)
(0.288121 -0.228756 -4.08529e-17)
(0.372605 -0.326793 -3.37888e-17)
(0.483053 -0.377409 6.17289e-18)
(0.658186 -0.291562 2.44036e-17)
(0.939212 -0.0227684 1.73539e-17)
(0.168785 -0.0228507 -1.37335e-18)
(0.180938 -0.0726156 -5.96849e-18)
(0.207922 -0.138788 -2.32299e-17)
(0.252442 -0.229759 -3.4631e-17)
(0.311217 -0.32787 -2.61446e-17)
(0.387066 -0.388964 4.69482e-18)
(0.526942 -0.337373 2.88487e-17)
(0.819666 -0.0985333 3.29137e-17)
(0.153999 -0.0229817 -9.90237e-19)
(0.16439 -0.0728669 -4.14167e-18)
(0.186472 -0.138553 -1.81186e-17)
(0.219079 -0.226793 -2.77258e-17)
(0.256808 -0.322311 -2.57216e-17)
(0.302634 -0.39134 1.97311e-19)
(0.397588 -0.380805 2.45315e-17)
(0.649293 -0.217585 2.42193e-17)
(0.983906 0.0223359 -3.27262e-15)
(0.940687 0.0404499 2.24457e-16)
(0.856337 0.0444967 1.69451e-15)
(0.782592 0.0436243 3.22797e-15)
(0.703751 0.041732 2.3838e-16)
(0.627594 0.0392625 -5.63345e-15)
(0.55375 0.036414 -8.5154e-15)
(0.483332 0.0332883 -6.50588e-15)
(0.417105 0.0299973 -2.08364e-15)
(0.355711 0.0266527 -1.07428e-15)
(0.29958 0.0233608 -2.87628e-15)
(0.248932 0.0202156 -5.27131e-15)
(0.20378 0.0172951 -6.99406e-15)
(0.16394 0.0146589 -5.32613e-15)
(0.129059 0.0123506 -2.54507e-15)
(0.0986301 0.0104022 -1.31128e-15)
(0.0719882 0.00884688 4.97684e-15)
(0.0481955 0.00771909 1.04602e-14)
(0.0262035 0.00690185 1.01881e-14)
(0.00646208 0.00510048 -3.00336e-17)
(0.98368 0.0536302 -1.97589e-15)
(0.93929 0.097778 -2.47446e-16)
(0.853681 0.106891 2.94591e-15)
(0.778379 0.104899 4.03384e-15)
(0.69863 0.100175 1.7003e-15)
(0.621604 0.094195 -2.98223e-15)
(0.547225 0.0873075 -6.49883e-15)
(0.47654 0.0797627 -3.67682e-15)
(0.410304 0.0718269 1.8521e-15)
(0.349131 0.0637704 3.87885e-15)
(0.29341 0.0558483 2.29039e-15)
(0.243314 0.0482861 -7.74246e-16)
(0.198809 0.04127 -3.9932e-15)
(0.15967 0.034943 -2.34183e-15)
(0.125508 0.029408 1.46306e-15)
(0.0957932 0.0247403 2.44123e-15)
(0.0698414 0.0210183 6.35345e-15)
(0.0467048 0.0183273 8.93691e-15)
(0.0253448 0.0163826 1.07068e-14)
(0.00621573 0.0120204 2.01879e-15)
(0.983195 0.0856942 -1.50416e-16)
(0.935544 0.155942 1.32097e-15)
(0.847627 0.169565 2.80134e-15)
(0.770062 0.166147 2.45176e-15)
(0.688393 0.158138 2.5652e-15)
(0.61 0.148238 -2.10635e-16)
(0.534713 0.136918 -3.15048e-15)
(0.463623 0.124622 -2.95457e-15)
(0.397456 0.111791 2.37298e-17)
(0.336766 0.0988659 2.50821e-15)
(0.281863 0.0862506 2.48848e-15)
(0.232836 0.0742926 9.91759e-16)
(0.189565 0.0632699 -1.10522e-15)
(0.151748 0.0533893 -2.87988e-17)
(0.118935 0.0447916 1.00659e-15)
(0.0905491 0.0375751 1.17926e-15)
(0.0658809 0.0318433 2.92072e-15)
(0.0439812 0.0277135 7.16673e-15)
(0.0238313 0.0247435 1.15391e-14)
(0.00584962 0.0181206 3.9175e-15)
(0.98272 0.11984 1.04709e-15)
(0.930041 0.215485 1.58419e-15)
(0.838697 0.232984 6.62174e-16)
(0.75788 0.227535 2.16378e-16)
(0.673427 0.215818 1.20452e-15)
(0.593164 0.201551 9.39017e-16)
(0.516667 0.185376 1.01285e-16)
(0.445124 0.16797 -7.13168e-16)
(0.379185 0.149974 6.90561e-16)
(0.31931 0.13201 1.56401e-15)
(0.265682 0.11463 1.27449e-15)
(0.218258 0.0982908 -3.37716e-17)
(0.17679 0.083345 -4.07091e-16)
(0.140869 0.0700417 1.93106e-18)
(0.109959 0.0585386 2.63056e-16)
(0.0834239 0.048937 5.88805e-16)
(0.0605214 0.0413463 2.9808e-16)
(0.0403059 0.0358957 8.18933e-16)
(0.0217843 0.0319863 2.88456e-15)
(0.00532502 0.0233757 -1.72199e-16)
(0.981933 0.156004 5.65044e-16)
(0.922617 0.276356 7.05963e-16)
(0.826724 0.296765 -5.20352e-16)
(0.741646 0.28844 -9.56048e-16)
(0.653738 0.272336 -2.71856e-16)
(0.571243 0.25304 4.77241e-16)
(0.493423 0.231426 7.56945e-16)
(0.421566 0.208459 4.05928e-16)
(0.356179 0.185004 4.81043e-16)
(0.297568 0.161868 8.60575e-16)
(0.245735 0.139734 4.24113e-16)
(0.200458 0.119143 -6.61098e-16)
(0.16133 0.100491 -9.13376e-16)
(0.127809 0.0840327 -2.86184e-16)
(0.099259 0.0699116 6.26563e-16)
(0.0749802 0.0582038 2.53494e-15)
(0.0542015 0.0490008 3.09502e-15)
(0.03599 0.0424199 2.13185e-15)
(0.0193911 0.0377149 1.03914e-15)
(0.00472021 0.0274964 -4.74176e-17)
(0.980662 0.195057 1.41723e-16)
(0.912959 0.339312 -2.86077e-16)
(0.811378 0.361342 -1.05114e-15)
(0.72109 0.349104 -1.2394e-15)
(0.629224 0.327732 -6.19912e-16)
(0.544299 0.302587 4.26091e-16)
(0.465241 0.274847 4.34961e-16)
(0.393395 0.245818 -1.18556e-16)
(0.329032 0.216604 -5.58808e-16)
(0.272238 0.188189 -7.07446e-16)
(0.222773 0.16136 -6.88529e-16)
(0.180194 0.136704 -1.58387e-16)
(0.143905 0.114614 -2.42864e-16)
(0.11322 0.0953144 -1.55883e-16)
(0.0873995 0.0788977 5.02563e-16)
(0.0656836 0.0653883 2.06797e-15)
(0.047281 0.0548357 3.06e-15)
(0.0312854 0.0473239 2.44563e-15)
(0.0167956 0.0419717 -1.17701e-15)
(0.00406847 0.0305221 -2.79728e-15)
(0.978732 0.238083 -2.25372e-16)
(0.900685 0.405309 -1.03545e-15)
(0.792206 0.427335 -1.20301e-15)
(0.695805 0.4099 -8.82301e-16)
(0.599633 0.382155 -7.52037e-17)
(0.512266 0.350167 3.86767e-16)
(0.432275 0.315513 -5.94401e-17)
(0.360962 0.279886 -9.14837e-16)
(0.298251 0.244626 -1.05204e-15)
(0.243929 0.210869 -1.08331e-15)
(0.197452 0.17946 -8.94685e-16)
(0.158121 0.150977 -7.01085e-16)
(0.125135 0.125764 -4.41565e-16)
(0.0976583 0.103968 -3.93581e-16)
(0.0748567 0.0855999 1.60384e-16)
(0.0559217 0.0706047 7.77684e-16)
(0.0400566 0.0589689 1.36433e-15)
(0.0263979 0.0507255 1.25874e-15)
(0.0141132 0.0448731 -8.45371e-16)
(0.00339904 0.0325469 -1.78841e-15)
(0.975897 0.28623 -3.68844e-16)
(0.885283 0.475234 -1.23754e-15)
(0.768594 0.495221 -1.07238e-15)
(0.665249 0.470994 -2.98415e-16)
(0.564613 0.435524 4.66974e-16)
(0.475027 0.395542 4.52285e-16)
(0.394663 0.35313 -3.32046e-16)
(0.324621 0.310384 -9.99852e-16)
(0.264343 0.268858 -7.38209e-16)
(0.213237 0.229784 -6.37407e-16)
(0.170399 0.193996 -6.97388e-16)
(0.134849 0.162001 -1.33379e-15)
(0.105578 0.134035 -1.65872e-15)
(0.0816117 0.110127 -1.50727e-15)
(0.0620378 0.0901714 -5.01484e-16)
(0.0460194 0.0740134 1.42534e-16)
(0.0327727 0.0615601 3.2978e-16)
(0.0214947 0.0527802 1.7114e-16)
(0.0114364 0.0465692 -5.2898e-16)
(0.00273532 0.0336897 9.47364e-17)
(0.971823 0.340796 -2.78455e-16)
(0.866068 0.549928 -8.34872e-16)
(0.739755 0.565333 -6.10376e-16)
(0.628767 0.532354 -6.52236e-17)
(0.523766 0.487552 5.65359e-16)
(0.432488 0.438302 4.05336e-16)
(0.3526 0.387288 -1.15253e-16)
(0.284782 0.336984 -3.84561e-16)
(0.227856 0.289091 -1.78769e-16)
(0.180771 0.244848 -1.84074e-16)
(0.142222 0.20499 -5.33099e-16)
(0.110944 0.169879 -1.36004e-15)
(0.0857335 0.139585 -2.08887e-15)
(0.0655013 0.113977 -2.03245e-15)
(0.0492844 0.0928096 -1.23836e-15)
(0.0362418 0.0758102 -9.47557e-16)
(0.0256244 0.0627965 -4.86116e-16)
(0.0167065 0.0536653 -6.59622e-16)
(0.00883623 0.0472283 -4.0944e-16)
(0.00209479 0.034081 9.4111e-16)
(0.966058 0.403303 -2.65966e-16)
(0.842145 0.630226 -5.22601e-16)
(0.704718 0.63786 -3.24531e-16)
(0.585619 0.593747 1.13805e-16)
(0.476701 0.537756 3.89505e-16)
(0.384625 0.477901 3.58448e-16)
(0.306375 0.417513 4.23665e-17)
(0.241938 0.359354 -2.68452e-18)
(0.189389 0.305154 7.22113e-17)
(0.14715 0.256036 -1.0548e-16)
(0.113506 0.212532 -5.16104e-16)
(0.0869243 0.174777 -1.09899e-15)
(0.0660381 0.142622 -1.58581e-15)
(0.0496814 0.115745 -1.64859e-15)
(0.0368734 0.0937399 -1.18042e-15)
(0.0267975 0.076209 -7.20878e-16)
(0.0187611 0.0628765 -6.02535e-16)
(0.0121315 0.0535647 -2.57767e-16)
(0.00636446 0.0470221 5.15182e-16)
(0.00148984 0.0338518 1.01081e-15)
(0.957982 0.475574 -1.81028e-16)
(0.81234 0.716936 -6.17782e-17)
(0.662304 0.712797 4.6807e-17)
(0.534997 0.654694 1.34318e-16)
(0.42308 0.585446 8.31517e-17)
(0.331539 0.513667 2.81519e-16)
(0.256405 0.443293 2.03984e-16)
(0.196676 0.377187 1.80283e-16)
(0.149584 0.316939 4.2226e-17)
(0.112995 0.263398 -2.87874e-16)
(0.0848026 0.216778 -6.34103e-16)
(0.0632515 0.176915 -8.2608e-16)
(0.0468629 0.143396 -1.02642e-15)
(0.0344393 0.115683 -8.81728e-16)
(0.0250201 0.0932008 -2.24041e-16)
(0.0178426 0.0754284 1.35439e-16)
(0.0122911 0.061997 -2.77361e-16)
(0.00783852 0.0526574 -1.92269e-17)
(0.00405633 0.0461151 8.29564e-16)
(0.000928601 0.0331256 5.94943e-16)
(0.946721 0.559855 9.15694e-17)
(0.775097 0.810806 3.46525e-16)
(0.611109 0.789879 3.13001e-16)
(0.476077 0.714421 1.0196e-16)
(0.362688 0.629723 -8.93445e-17)
(0.273501 0.54484 6.94627e-18)
(0.203253 0.464123 2.0756e-16)
(0.149677 0.390243 1.42141e-16)
(0.109119 0.324424 -1.96668e-16)
(0.0789109 0.267064 -5.59784e-16)
(0.0566147 0.217952 -5.85158e-16)
(0.0403237 0.17656 -5.09489e-16)
(0.0285097 0.14218 -6.46608e-16)
(0.0199963 0.114051 -3.98415e-16)
(0.0138822 0.0914321 2.48581e-16)
(0.0094859 0.0736811 3.80905e-16)
(0.00628635 0.0603453 -2.23116e-16)
(0.00387146 0.0511105 -2.33298e-16)
(0.00193323 0.0446592 5.89342e-16)
(0.000415716 0.0320148 4.13169e-16)
(0.930998 0.658993 8.25549e-17)
(0.728327 0.912415 4.73058e-16)
(0.549505 0.868475 3.87008e-16)
(0.408082 0.771808 -1.36219e-17)
(0.295504 0.669504 -1.45225e-16)
(0.210993 0.570618 -8.53737e-17)
(0.147636 0.479557 9.9017e-17)
(0.101696 0.398381 2.34981e-17)
(0.0686825 0.32769 -2.70113e-16)
(0.0454659 0.26725 -4.41104e-16)
(0.0293839 0.216335 -3.79144e-16)
(0.0184672 0.174012 -1.7984e-16)
(0.0112105 0.139266 -2.07751e-16)
(0.00651161 0.111116 -2.55226e-16)
(0.0035652 0.0886655 1.95403e-16)
(0.00179496 0.0711669 2.13747e-16)
(0.000788439 0.058093 -6.21148e-16)
(0.000253739 0.0490742 -9.24748e-16)
(5.40519e-06 0.0427898 -1.96707e-16)
(-4.69721e-05 0.0306182 1.66897e-16)
(0.908892 0.776736 8.88967e-17)
(0.669205 1.02198 5.52302e-16)
(0.475687 0.947485 3.8468e-16)
(0.330383 0.825352 -3.0231e-17)
(0.221789 0.703562 -1.03088e-16)
(0.144736 0.590223 -6.01059e-17)
(0.0904147 0.489259 -3.47003e-17)
(0.0535376 0.401587 -5.87643e-17)
(0.0289414 0.326926 -2.17788e-16)
(0.0131698 0.264247 -2.12396e-16)
(0.00347776 0.212255 -2.22947e-16)
(-0.00206647 0.169591 -1.5106e-16)
(-0.00487062 0.134945 -2.69547e-16)
(-0.00591267 0.107131 -2.08322e-16)
(-0.00587082 0.0851176 1.00048e-16)
(-0.00519719 0.0680673 1.10707e-16)
(-0.00418623 0.0553931 -6.1247e-16)
(-0.00300746 0.0466809 -8.99773e-16)
(-0.00172537 0.040623 -4.17904e-16)
(-0.000459821 0.0290197 1.89262e-16)
(0.877438 0.918109 1.24242e-16)
(0.593864 1.13893 5.30015e-16)
(0.387807 1.02522 3.06018e-16)
(0.242615 0.873137 -2.50864e-17)
(0.142167 0.730608 -1.10873e-16)
(0.0756901 0.602978 -9.60711e-17)
(0.0325632 0.493057 -7.00307e-17)
(0.00601596 0.399997 -7.37247e-17)
(-0.00948768 0.322422 -1.18668e-16)
(-0.0175448 0.258409 5.53186e-17)
(-0.0208182 0.206068 5.77418e-17)
(-0.0211004 0.163623 -2.24702e-17)
(-0.0196313 0.129501 -1.80123e-16)
(-0.0172241 0.102335 -2.08159e-16)
(-0.0144038 0.0809846 3.12565e-17)
(-0.0114854 0.0645429 8.19285e-17)
(-0.00864038 0.0523781 -3.90317e-16)
(-0.00591786 0.0440437 -5.2095e-16)
(-0.00326432 0.0382567 -3.43982e-16)
(-0.000824412 0.0272896 -3.5687e-17)
(0.832026 1.09026 1.57844e-16)
(0.497022 1.26145 4.71745e-16)
(0.284259 1.0993 2.82383e-16)
(0.144813 0.912903 -1.73245e-17)
(0.0576957 0.749422 -1.19285e-16)
(0.00503856 0.608388 -1.14543e-16)
(-0.0248798 0.490948 -6.55358e-17)
(-0.0400956 0.39389 4.43247e-17)
(-0.0460697 0.314569 1.34224e-16)
(-0.0463322 0.25014 1.67766e-16)
(-0.0433007 0.198142 2.75543e-16)
(-0.0385269 0.15643 1.07732e-16)
(-0.0330253 0.123198 -3.62163e-17)
(-0.0274118 0.0969438 -1.13333e-16)
(-0.0220418 0.0764395 5.29424e-18)
(-0.0170859 0.0607321 3.36818e-18)
(-0.0125914 0.0491599 -2.29098e-17)
(-0.008492 0.0412557 -1.08793e-16)
(-0.00462085 0.0357727 -1.52778e-16)
(-0.00114346 0.0254852 -1.43196e-16)
(0.765478 1.3018 2.04661e-16)
(0.371227 1.38553 4.02002e-16)
(0.164079 1.16654 1.70435e-16)
(0.0375522 0.942219 -6.45578e-17)
(-0.0301372 0.758683 -1.4004e-16)
(-0.0658869 0.606205 -8.94521e-17)
(-0.0808764 0.483167 5.5153e-17)
(-0.0840846 0.383685 2.54353e-16)
(-0.0803663 0.303833 2.9581e-16)
(-0.0729497 0.239868 3.82627e-16)
(-0.063849 0.188845 4.8256e-16)
(-0.0543017 0.14831 5.51091e-16)
(-0.0450523 0.116279 2.67123e-16)
(-0.0364982 0.0911461 -1.64533e-17)
(-0.0288161 0.0716305 -7.7062e-17)
(-0.0220306 0.0567511 4.82002e-17)
(-0.016067 0.045831 8.85573e-17)
(-0.0107505 0.0383934 1.43216e-16)
(-0.00580729 0.0332366 -3.00724e-17)
(-0.00142037 0.0236521 -2.17506e-16)
(0.668986 1.56781 2.42295e-16)
(0.206578 1.50643 3.68779e-16)
(0.0275761 1.22223 7.19252e-17)
(-0.0779444 0.958618 -1.59646e-16)
(-0.119444 0.757656 -1.49321e-16)
(-0.135535 0.596526 1.0504e-18)
(-0.134441 0.470172 1.84391e-16)
(-0.125368 0.369925 3.90886e-16)
(-0.11206 0.290711 5.15454e-16)
(-0.0972484 0.228019 6.32837e-16)
(-0.0824153 0.178524 7.78748e-16)
(-0.0684334 0.139537 7.75262e-16)
(-0.0557487 0.108954 5.98052e-16)
(-0.0445304 0.085105 2.07493e-16)
(-0.0347743 0.0666818 -1.01173e-16)
(-0.0263617 0.0526953 -2.60121e-17)
(-0.0191012 0.0424661 1.46097e-16)
(-0.0127176 0.0355174 3.48183e-16)
(-0.00683763 0.0306999 9.90772e-17)
(-0.00165888 0.0218259 -2.15661e-16)
(0.517157 1.88729 2.45862e-16)
(-0.0118779 1.61383 2.94021e-16)
(-0.124409 1.25843 -3.19144e-17)
(-0.199212 0.959651 -2.00335e-16)
(-0.207921 0.746111 -1.00866e-16)
(-0.20248 0.579825 5.93553e-17)
(-0.184734 0.452592 2.17488e-16)
(-0.163505 0.35322 4.02074e-16)
(-0.140956 0.275715 5.58826e-16)
(-0.119169 0.215004 7.45572e-16)
(-0.0990147 0.167495 9.02976e-16)
(-0.0809726 0.130354 9.30206e-16)
(-0.0651786 0.101406 6.94212e-16)
(-0.0515729 0.0789567 2.16603e-16)
(-0.0399748 0.0616954 5.27286e-17)
(-0.030128 0.0486415 1.10134e-16)
(-0.0217316 0.0391241 2.75121e-16)
(-0.0144196 0.0326752 5.23946e-16)
(-0.00772654 0.0282022 2.19271e-16)
(-0.00186275 0.0200338 -1.48079e-16)
(0.381763 2.29318 2.20654e-16)
(-0.299569 1.71423 1.75713e-16)
(-0.287975 1.26624 -1.33881e-16)
(-0.321847 0.943888 -1.97918e-16)
(-0.293096 0.723984 -4.51279e-17)
(-0.265393 0.556831 1.35846e-16)
(-0.231113 0.431162 2.41349e-16)
(-0.198215 0.334205 3.56531e-16)
(-0.166972 0.259343 5.35929e-16)
(-0.138729 0.201202 7.20701e-16)
(-0.113712 0.156043 9.54215e-16)
(-0.092001 0.120968 1.01354e-15)
(-0.0734246 0.0937882 7.75128e-16)
(-0.0577009 0.0728131 3.38553e-16)
(-0.0444812 0.0567531 1.25096e-16)
(-0.0333805 0.0446501 2.32972e-16)
(-0.0239969 0.0358508 3.90434e-16)
(-0.0158826 0.0299022 6.12734e-16)
(-0.00848852 0.0257741 3.38237e-16)
(-0.00203551 0.0182952 -8.34034e-17)
(0.129127 -0.0229643 -4.9603e-19)
(0.137345 -0.0721732 -4.28653e-18)
(0.152248 -0.134778 -1.32536e-17)
(0.169114 -0.214901 -2.44151e-17)
(0.181623 -0.302235 -1.89523e-17)
(0.191495 -0.375129 -5.17641e-18)
(0.230345 -0.399687 1.46275e-17)
(0.364167 -0.342541 2.81207e-17)
(0.0964781 -0.0222803 -2.5315e-19)
(0.101985 -0.0682694 -3.72108e-19)
(0.108527 -0.123065 -9.12919e-18)
(0.110603 -0.188814 -1.59219e-17)
(0.101173 -0.261088 -1.56547e-17)
(0.0784571 -0.328399 -7.53558e-18)
(0.0583648 -0.369647 -4.91245e-18)
(0.0777088 -0.369072 -1.12951e-17)
(0.0660234 -0.0213167 -1.68692e-19)
(0.0696101 -0.0627303 -5.05044e-19)
(0.0705316 -0.109368 -4.59262e-18)
(0.0662123 -0.161623 -9.32155e-18)
(0.0512902 -0.217461 -7.03622e-18)
(0.0235368 -0.27079 -3.74234e-18)
(-0.00995756 -0.309761 -1.12937e-17)
(-0.0279079 -0.325502 -2.54726e-17)
(0.0384371 -0.0204703 -1.97138e-19)
(0.0411989 -0.0561777 -1.35486e-18)
(0.0381728 -0.0955956 -4.08006e-18)
(0.0306247 -0.138 -3.62409e-18)
(0.014903 -0.182215 1.76135e-18)
(-0.0104628 -0.224618 6.02347e-18)
(-0.0413818 -0.258771 -6.57927e-19)
(-0.0665794 -0.279172 -1.86007e-17)
(0.015016 -0.0190369 -5.58139e-19)
(0.0170463 -0.0493056 -1.31763e-18)
(0.0114981 -0.0823692 -2.1371e-18)
(0.00255294 -0.116889 -1.23159e-18)
(-0.0130007 -0.152015 2.77008e-18)
(-0.0356494 -0.185618 1.10261e-17)
(-0.0626065 -0.214003 1.22416e-17)
(-0.0874565 -0.234305 1.03082e-18)
(-0.00580344 -0.0204199 -8.8072e-19)
(-0.00465759 -0.0430046 -4.99556e-19)
(-0.0109779 -0.0703506 1.36777e-18)
(-0.0205508 -0.0988073 8.17535e-19)
(-0.035635 -0.12728 -6.7622e-19)
(-0.0560941 -0.154472 2.0534e-18)
(-0.0800538 -0.178294 9.12273e-18)
(-0.103335 -0.196976 6.93048e-18)
(-0.0233978 -0.0181355 -9.42247e-19)
(-0.0235433 -0.0370961 1.76951e-18)
(-0.029468 -0.059499 6.91223e-18)
(-0.0393329 -0.082677 4.04548e-18)
(-0.0539039 -0.105671 -6.62716e-18)
(-0.0728982 -0.127687 -1.00145e-17)
(-0.0950562 -0.147579 -5.99546e-18)
(-0.117253 -0.163991 -5.58033e-18)
(-0.0364943 -0.0168361 2.69365e-19)
(-0.0383823 -0.0316767 3.9047e-18)
(-0.0444794 -0.049778 9.90098e-18)
(-0.0545185 -0.0684051 5.77013e-18)
(-0.0686886 -0.0868724 -7.52821e-18)
(-0.0867282 -0.104656 -1.48491e-17)
(-0.107815 -0.121112 -1.68373e-17)
(-0.12936 -0.135103 -1.72973e-17)
(-0.046832 -0.0147148 1.52279e-18)
(-0.0500573 -0.0264392 2.77005e-18)
(-0.056467 -0.0407807 2.51828e-18)
(-0.0666262 -0.0554822 -3.79902e-18)
(-0.0805175 -0.0700784 -1.01495e-17)
(-0.0979479 -0.0842284 -1.03918e-17)
(-0.118404 -0.0975493 -8.77508e-18)
(-0.13959 -0.109095 -1.4303e-17)
(-0.0549513 -0.0122476 1.84085e-18)
(-0.0591147 -0.0213359 9.17331e-19)
(-0.065828 -0.0323707 -6.60189e-18)
(-0.0760877 -0.0436597 -1.64965e-17)
(-0.089798 -0.0548906 -1.51977e-17)
(-0.106839 -0.0658425 -4.1818e-18)
(-0.126917 -0.0762683 1.41671e-19)
(-0.147907 -0.0854072 -6.13945e-18)
(-0.0610763 -0.00963245 1.08844e-18)
(-0.0658843 -0.0163477 3.54106e-19)
(-0.0728499 -0.0244482 -9.26203e-18)
(-0.0831891 -0.0327209 -2.01293e-17)
(-0.0967767 -0.0409652 -1.44087e-17)
(-0.113547 -0.0490459 2.90634e-18)
(-0.133362 -0.0567921 8.02556e-18)
(-0.154216 -0.0636126 1.97283e-18)
(-0.0650275 -0.00697471 7.2098e-19)
(-0.0702509 -0.0114878 2.85391e-18)
(-0.0773665 -0.0169501 -3.18868e-18)
(-0.0876896 -0.0225178 -1.3712e-17)
(-0.1011 -0.0280673 -1.06936e-17)
(-0.11757 -0.033537 2.88594e-18)
(-0.137061 -0.0388076 2.98643e-18)
(-0.157669 -0.043391 -9.89526e-18)
(-0.0648106 -0.00435202 1.44626e-18)
(-0.0701019 -0.0068212 1.30903e-18)
(-0.076999 -0.00993202 -6.66882e-18)
(-0.0868381 -0.0131145 -1.70613e-17)
(-0.0995529 -0.0162854 -1.47735e-17)
(-0.115153 -0.0194418 -2.77734e-18)
(-0.133604 -0.0225124 -2.98945e-18)
(-0.153127 -0.0249842 -2.231e-17)
(-0.0522689 -0.00194103 2.31092e-18)
(-0.0568022 -0.00265689 -8.90249e-19)
(-0.0623718 -0.00373431 -6.30939e-18)
(-0.0702284 -0.00477917 -7.48588e-18)
(-0.080359 -0.00567971 -2.60983e-19)
(-0.0927657 -0.00650658 8.28831e-18)
(-0.107195 -0.00743873 2.4427e-18)
(-0.122099 -0.00807798 -2.00114e-17)
(-0.0135393 -0.000179698 1.50736e-18)
(-0.0156629 4.05289e-05 -3.57656e-21)
(-0.0176301 0.000101461 -2.68102e-18)
(-0.0202724 0.000189391 -2.21578e-18)
(-0.0235992 0.000259339 2.42503e-18)
(-0.0277698 0.000132006 7.21406e-18)
(-0.0322621 -0.000436801 6.54006e-18)
(-0.0356775 -0.000872344 -3.58928e-18)
(0.515473 -0.22518 3.36569e-17)
(0.545168 -0.184089 2.85287e-17)
(0.566394 -0.16634 3.09299e-17)
(0.58518 -0.156477 2.05267e-17)
(0.599952 -0.14954 1.96538e-17)
(0.612193 -0.144197 1.63804e-17)
(0.622664 -0.139919 1.0103e-17)
(0.631859 -0.136375 3.37583e-18)
(0.640121 -0.133342 1.47789e-17)
(0.647692 -0.130669 2.70034e-17)
(0.65475 -0.128248 2.30595e-17)
(0.661421 -0.126007 1.58045e-17)
(0.667798 -0.123891 9.93669e-18)
(0.673947 -0.121863 1.78834e-17)
(0.679914 -0.119897 5.04808e-18)
(0.68573 -0.117974 1.33244e-17)
(0.691408 -0.11608 1.82882e-17)
(0.69695 -0.114207 1.63362e-17)
(0.702336 -0.112347 2.07251e-17)
(0.707516 -0.110499 3.52887e-17)
(0.712399 -0.108672 6.72764e-17)
(0.716832 -0.106893 4.75408e-17)
(0.720603 -0.105222 1.04661e-17)
(0.723476 -0.10375 -3.74296e-17)
(0.725318 -0.102577 -3.98815e-17)
(0.726332 -0.101756 -6.68023e-17)
(0.72742 -0.101191 -8.78231e-17)
(0.730667 -0.100558 -6.12138e-17)
(0.739853 -0.0992297 -2.63146e-17)
(0.760772 -0.0962204 -1.16699e-16)
(0.801367 -0.090267 -8.78677e-17)
(0.870515 -0.0793523 -7.98105e-17)
(0.975514 -0.0609732 -4.34483e-18)
(1.11863 -0.0319281 -4.07628e-17)
(1.29385 0.010631 -5.55182e-18)
(1.48584 0.0669806 -2.94129e-17)
(1.66984 0.133551 2.72555e-17)
(1.81374 0.202059 -1.36898e-16)
(1.88525 0.259581 1.77735e-17)
(1.85699 0.289156 1.35689e-16)
(1.733 0.278707 8.94228e-17)
(1.54622 0.229715 -2.84326e-17)
(1.35162 0.159957 5.76035e-17)
(1.20411 0.0946558 7.86957e-17)
(1.13291 0.0522145 2.60773e-17)
(1.13877 0.0371569 4.64688e-17)
(1.20184 0.0408701 -9.81453e-19)
(1.28229 0.0523761 1.15541e-17)
(1.781 0.0625455 6.92561e-17)
(0.311461 0.095954 8.44545e-17)
(0.119708 -0.341777 -1.62037e-17)
(0.126126 -0.318814 -1.89269e-17)
(0.131777 -0.307058 -1.39764e-17)
(0.136962 -0.299045 -9.00828e-18)
(0.141469 -0.29337 -1.33436e-18)
(0.145405 -0.289305 1.25186e-17)
(0.148882 -0.286366 2.02187e-17)
(0.152009 -0.284223 2.85153e-17)
(0.15488 -0.282641 3.34587e-17)
(0.157581 -0.281451 2.40253e-17)
(0.160184 -0.280526 1.05625e-17)
(0.162752 -0.279773 -1.02532e-17)
(0.165334 -0.279122 -2.46136e-17)
(0.167971 -0.278522 -2.72032e-17)
(0.170693 -0.277931 -2.30527e-17)
(0.173519 -0.277317 -1.83613e-17)
(0.176457 -0.27665 -1.5615e-17)
(0.1795 -0.275903 -1.73909e-17)
(0.182609 -0.275052 -2.93574e-17)
(0.185679 -0.274075 -4.74695e-17)
(0.188494 -0.272952 -6.99439e-17)
(0.19069 -0.271681 -1.04567e-16)
(0.191798 -0.270295 -1.25245e-16)
(0.191431 -0.26891 -1.8018e-16)
(0.189699 -0.267789 -1.66327e-16)
(0.18785 -0.267409 -1.38116e-16)
(0.189061 -0.268479 -1.08481e-16)
(0.199161 -0.271796 -1.36252e-16)
(0.226728 -0.27772 -1.13926e-16)
(0.282034 -0.28549 -1.16495e-16)
(0.375762 -0.293023 -8.15922e-17)
(0.515674 -0.294707 3.32707e-18)
(0.70484 -0.284255 8.33204e-17)
(0.93927 -0.253145 1.90755e-16)
(1.20728 -0.192948 2.45446e-16)
(1.4888 -0.0979359 3.19566e-16)
(1.75778 0.031756 4.9924e-16)
(1.98337 0.187029 4.85106e-16)
(2.13408 0.347978 5.58138e-16)
(2.18921 0.483028 4.58582e-16)
(2.12966 0.554168 3.6278e-16)
(1.96129 0.53845 2.13731e-16)
(1.72845 0.438919 1.20439e-16)
(1.50704 0.296399 1.51975e-16)
(1.36723 0.166382 1.02116e-16)
(1.33464 0.0856645 1.21749e-16)
(1.36799 0.0529304 5.64784e-17)
(1.42701 0.044925 6.38951e-17)
(1.22741 0.191584 9.07443e-17)
(-0.636048 0.633156 1.77733e-16)
(-0.031293 -0.329588 -3.28344e-17)
(-0.0406518 -0.323736 -2.84631e-17)
(-0.0472328 -0.320614 -1.7477e-17)
(-0.0531237 -0.318932 -3.43993e-19)
(-0.0586437 -0.318468 2.59692e-17)
(-0.0641113 -0.318954 4.24628e-17)
(-0.0696646 -0.320186 5.14326e-17)
(-0.0753759 -0.322004 4.99251e-17)
(-0.0812739 -0.324284 3.52567e-17)
(-0.0873629 -0.326924 1.37762e-17)
(-0.0936327 -0.329845 -1.25559e-17)
(-0.100065 -0.332977 -2.68874e-17)
(-0.106634 -0.336259 -3.30258e-17)
(-0.113314 -0.339631 -3.5144e-17)
(-0.120091 -0.343049 -4.84023e-17)
(-0.126959 -0.346475 -6.86661e-17)
(-0.13392 -0.349875 -9.65968e-17)
(-0.141009 -0.353201 -1.31564e-16)
(-0.148347 -0.35637 -1.65251e-16)
(-0.156187 -0.359236 -1.87247e-16)
(-0.164923 -0.361606 -1.9107e-16)
(-0.174969 -0.363318 -1.99962e-16)
(-0.186435 -0.364433 -1.71631e-16)
(-0.198613 -0.365506 -1.48535e-16)
(-0.209356 -0.367846 -1.40709e-16)
(-0.214606 -0.373556 -1.30779e-16)
(-0.208325 -0.385178 -1.34796e-16)
(-0.183049 -0.404864 -1.16747e-16)
(-0.131142 -0.433329 -7.79032e-17)
(-0.0463506 -0.468931 -1.24968e-17)
(0.0771133 -0.50715 8.02293e-17)
(0.241781 -0.541111 1.86082e-16)
(0.446607 -0.562215 3.37862e-16)
(0.686395 -0.557569 4.42927e-16)
(0.94961 -0.515044 5.53594e-16)
(1.21927 -0.422651 4.83123e-16)
(1.47274 -0.275236 5.95056e-16)
(1.68567 -0.080644 3.37522e-16)
(1.83584 0.138538 3.6456e-16)
(1.91109 0.349614 3.83075e-16)
(1.90567 0.513511 4.67295e-16)
(1.81641 0.583334 4.63508e-16)
(1.66015 0.532817 3.67669e-16)
(1.48948 0.388779 2.10284e-16)
(1.3667 0.221113 1.61899e-16)
(1.30719 0.0911662 1.65693e-16)
(1.23227 0.0290445 1.27483e-16)
(1.00402 0.0859756 1.0918e-16)
(0.0547938 0.391761 1.34099e-16)
(-1.41727 1.05703 1.96613e-16)
(-0.0834598 -0.291526 -2.75791e-17)
(-0.098524 -0.292975 -2.31025e-17)
(-0.110331 -0.294202 -9.31474e-18)
(-0.121568 -0.295789 1.31448e-17)
(-0.132572 -0.297968 3.9581e-17)
(-0.14362 -0.300726 6.35204e-17)
(-0.154856 -0.304015 7.1862e-17)
(-0.166389 -0.307782 6.60442e-17)
(-0.1783 -0.311973 4.49541e-17)
(-0.190649 -0.316546 2.0517e-17)
(-0.203489 -0.321463 -4.0204e-18)
(-0.216863 -0.326692 -2.26934e-17)
(-0.230818 -0.332208 -3.45785e-17)
(-0.245394 -0.337984 -5.17144e-17)
(-0.26062 -0.34399 -7.75698e-17)
(-0.276532 -0.350194 -1.16191e-16)
(-0.293196 -0.356534 -1.61357e-16)
(-0.31075 -0.362882 -1.86938e-16)
(-0.329422 -0.369022 -1.89278e-16)
(-0.34949 -0.374693 -1.70564e-16)
(-0.371101 -0.37974 -1.43815e-16)
(-0.39394 -0.384381 -1.13908e-16)
(-0.416846 -0.389493 -1.06753e-16)
(-0.437544 -0.396799 -1.16283e-16)
(-0.452652 -0.408813 -1.35309e-16)
(-0.458075 -0.428512 -1.33691e-16)
(-0.449421 -0.458706 -9.00087e-17)
(-0.422347 -0.501346 -2.13948e-17)
(-0.372721 -0.55684 8.42079e-17)
(-0.296673 -0.62324 2.07118e-16)
(-0.190876 -0.695299 2.91828e-16)
(-0.053649 -0.765669 3.59454e-16)
(0.115684 -0.822052 3.90431e-16)
(0.313211 -0.849308 4.31433e-16)
(0.528799 -0.829759 4.58114e-16)
(0.748094 -0.745416 4.18994e-16)
(0.953061 -0.588626 2.51483e-16)
(1.12539 -0.366043 3.60338e-16)
(1.24986 -0.105249 4.05576e-16)
(1.32149 0.152672 4.88622e-16)
(1.34112 0.366776 7.32342e-16)
(1.3139 0.48742 6.5171e-16)
(1.24735 0.480383 3.3497e-16)
(1.16547 0.355134 2.59098e-16)
(1.08698 0.179446 2.09939e-16)
(0.966101 0.0411763 1.82596e-16)
(0.669009 0.0323336 1.80355e-16)
(-0.001924 0.222791 1.87761e-16)
(-1.11236 0.654113 1.57694e-16)
(-2.0246 1.31469 1.43999e-16)
(-0.107226 -0.247846 -1.17551e-17)
(-0.123774 -0.25218 -1.5946e-17)
(-0.137348 -0.255439 -7.48513e-18)
(-0.150469 -0.258619 1.02479e-17)
(-0.163598 -0.262084 3.0984e-17)
(-0.176974 -0.265891 5.06982e-17)
(-0.190735 -0.270058 5.59993e-17)
(-0.204994 -0.274579 5.1561e-17)
(-0.219846 -0.279446 3.50296e-17)
(-0.235381 -0.284644 1.32985e-17)
(-0.251684 -0.290161 -3.15464e-18)
(-0.268841 -0.295985 -1.96121e-17)
(-0.28694 -0.302107 -3.7598e-17)
(-0.306074 -0.308525 -6.43675e-17)
(-0.326348 -0.315231 -1.07619e-16)
(-0.347895 -0.322186 -1.488e-16)
(-0.370892 -0.329294 -1.76264e-16)
(-0.395563 -0.33639 -1.77112e-16)
(-0.422115 -0.343295 -1.4591e-16)
(-0.450588 -0.349972 -9.81715e-17)
(-0.48064 -0.35676 -8.45124e-17)
(-0.51138 -0.36459 -8.52863e-17)
(-0.541391 -0.375081 -1.04804e-16)
(-0.56895 -0.390485 -1.43596e-16)
(-0.592278 -0.41355 -1.40886e-16)
(-0.609527 -0.447335 -1.19508e-16)
(-0.618503 -0.494919 -3.90606e-17)
(-0.616196 -0.558773 8.50297e-17)