/*--------------------------------*- C++ -*----------------------------------*\
  =========                 |
  \\      /  F ield         | OpenFOAM: The Open Source CFD Toolbox
   \\    /   O peration     | Website:  https://openfoam.org
    \\  /    A nd           | Version:  13
     \\/     M anipulation  |
\*---------------------------------------------------------------------------*/
FoamFile
{
    format      ascii;
    class       surfaceVectorField;
    location    "0.0008";
    object      Uf;
}
// * * * * * * * * * * * * * * * * * * * * * * * * * * * * * * * * * * * * * //

dimensions      [0 1 -1 0 0 0 0];

internalField   nonuniform List<vector> 
3252
(
(0.307411 -0.00303333 5.75209e-18)
(0.291479 -0.00238527 1.98284e-18)
(0.356123 -0.00641367 -4.0841e-18)
(0.321802 -0.00754936 6.82116e-18)
(0.443165 -0.0102176 -2.51609e-17)
(0.389273 -0.0134898 -4.47366e-18)
(0.572414 -0.0137955 -2.71933e-17)
(0.496757 -0.0200311 8.37244e-18)
(0.735326 -0.0155116 -1.42675e-17)
(0.648971 -0.0252489 -3.56138e-17)
(0.900945 -0.0127504 2.38967e-17)
(0.820653 -0.0256969 1.26939e-17)
(1.00553 -0.00487117 4.53031e-17)
(0.979308 -0.0162625 3.77477e-17)
(1.02995 0.000805869 1.91551e-17)
(0.30576 -0.00789843 2.15186e-18)
(0.289014 -0.00477571 -1.14828e-18)
(0.354054 -0.0167231 9.93682e-18)
(0.319091 -0.0150017 9.56938e-18)
(0.440595 -0.02667 4.71332e-17)
(0.386277 -0.0268632 1.0195e-17)
(0.569964 -0.0361489 8.99926e-18)
(0.493939 -0.04009 6.61168e-17)
(0.735736 -0.0407418 -6.74526e-18)
(0.647455 -0.0511628 -4.54957e-17)
(0.903941 -0.0335597 2.74636e-17)
(0.821929 -0.0519953 2.16263e-17)
(1.01014 -0.0126973 1.16888e-18)
(0.982633 -0.0329035 -3.42544e-17)
(1.03155 0.00261845 -2.49751e-17)
(0.302494 -0.012496 6.68098e-18)
(0.28511 -0.00712825 -8.29587e-19)
(0.350368 -0.0264757 9.81668e-18)
(0.314785 -0.022367 5.37258e-18)
(0.436628 -0.0424173 2.73831e-17)
(0.381423 -0.0401897 4.24447e-18)
(0.566805 -0.0579775 1.1882e-17)
(0.489171 -0.0603513 2.86669e-17)
(0.735657 -0.0656392 -1.81216e-17)
(0.644832 -0.0777246 -4.66036e-17)
(0.907483 -0.0539362 -4.69179e-17)
(0.824053 -0.0790958 -2.16741e-17)
(1.0142 -0.0197098 -6.68875e-17)
(0.988325 -0.0495993 -1.00949e-16)
(1.03442 0.00519008 -6.38942e-17)
(0.297592 -0.0172432 -2.67792e-18)
(0.279681 -0.00942332 -1.41208e-19)
(0.344867 -0.0366284 -8.12867e-19)
(0.308776 -0.0295971 -3.04485e-18)
(0.430738 -0.0590291 4.19022e-18)
(0.374542 -0.0534318 -2.31112e-18)
(0.562151 -0.0813566 -3.23731e-17)
(0.482218 -0.0809045 -1.03922e-17)
(0.73529 -0.0925984 -5.21032e-17)
(0.640857 -0.105253 -6.05269e-17)
(0.912625 -0.0758014 -7.75726e-17)
(0.826948 -0.10747 -4.87093e-17)
(1.01965 -0.0267358 -1.01143e-16)
(0.996576 -0.0663404 -1.14618e-16)
(1.0388 0.00889582 -8.59965e-17)
(0.291068 -0.0219202 -4.11705e-19)
(0.272758 -0.0116371 -1.16857e-18)
(0.33748 -0.0467432 -4.70889e-18)
(0.301064 -0.0366251 -2.36207e-18)
(0.42269 -0.075904 -1.78306e-17)
(0.365552 -0.066516 -1.65729e-17)
(0.555624 -0.105665 -3.88213e-17)
(0.472847 -0.101807 -3.53107e-17)
(0.734459 -0.121098 -5.73499e-17)
(0.635098 -0.134093 -6.42591e-17)
(0.919384 -0.0986297 -8.62126e-17)
(0.829914 -0.137618 -5.27633e-17)
(1.02694 -0.0332134 -1.00381e-16)
(1.00684 -0.0832079 -9.31581e-17)
(1.04468 0.0141687 -8.87776e-17)
(0.282961 -0.0264373 -3.21359e-18)
(0.264403 -0.0137423 -1.47251e-18)
(0.328178 -0.0566507 -1.45588e-17)
(0.291684 -0.0433683 -5.79647e-18)
(0.412287 -0.0928819 -3.46202e-17)
(0.35437 -0.0793281 -2.45958e-17)
(0.546768 -0.130918 -6.15157e-17)
(0.46072 -0.123049 -6.12812e-17)
(0.732324 -0.15137 -5.97479e-17)
(0.62665 -0.164468 -8.51935e-17)
(0.926674 -0.122585 -5.88482e-17)
(0.830825 -0.169958 -4.56696e-17)
(1.03556 -0.0389502 -8.10451e-17)
(1.01694 -0.100428 -6.19707e-17)
(1.05171 0.0212809 -7.86151e-17)
(0.27333 -0.0307308 -4.07967e-18)
(0.2547 -0.0157079 -1.41604e-18)
(0.316934 -0.0662282 -1.58702e-17)
(0.280692 -0.049723 -6.9607e-18)
(0.39927 -0.109854 -5.17367e-17)
(0.340899 -0.0916935 -2.77661e-17)
(0.534758 -0.157143 -8.56356e-17)
(0.445358 -0.144467 -8.72808e-17)
(0.726731 -0.18366 -7.14233e-17)
(0.613776 -0.196228 -8.47563e-17)
(0.931261 -0.148046 -4.85309e-17)
(0.825243 -0.204602 -4.11351e-17)
(1.04349 -0.0441264 -5.83441e-17)
(1.02187 -0.118563 -3.75918e-17)
(1.05876 0.0299708 -6.15305e-17)
(0.262257 -0.0347272 -4.30241e-18)
(0.243759 -0.0174992 -9.56844e-19)
(0.303733 -0.0753119 -1.89299e-17)
(0.268174 -0.0555601 -6.88479e-18)
(0.383301 -0.126572 -6.35944e-17)
(0.325044 -0.103353 -2.86571e-17)
(0.518197 -0.184009 -8.64204e-17)
(0.426173 -0.165608 -8.85329e-17)
(0.713692 -0.217754 -5.40309e-17)
(0.593743 -0.228509 -7.81869e-17)
(0.926838 -0.175424 -2.97389e-17)
(0.806619 -0.241019 -3.23632e-17)
(1.04647 -0.0495719 -3.95126e-17)
(1.01341 -0.138728 -1.95403e-17)
(1.06359 0.0388657 -4.34773e-17)
(0.249854 -0.0383359 -3.5229e-18)
(0.23172 -0.0190792 -6.4701e-19)
(0.288581 -0.0836819 -1.65624e-17)
(0.254263 -0.0607235 -6.26801e-18)
(0.364043 -0.142578 -5.33817e-17)
(0.306809 -0.113961 -3.01463e-17)
(0.495186 -0.210516 -8.01685e-17)
(0.402589 -0.185598 -7.62907e-17)
(0.687977 -0.252513 -5.65522e-17)
(0.563415 -0.259559 -6.94607e-17)
(0.904854 -0.204961 -2.1971e-17)
(0.768474 -0.277779 -2.22384e-17)
(1.03812 -0.0570208 -2.2319e-17)
(0.98207 -0.162604 -4.87395e-18)
(1.06286 0.0449686 -2.90882e-17)
(0.236279 -0.0414563 -3.38964e-18)
(0.218753 -0.0204112 -7.20714e-19)
(0.271598 -0.0910607 -1.99143e-17)
(0.239144 -0.0650513 -6.39568e-18)
(0.341312 -0.157132 -5.30491e-17)
(0.286444 -0.123093 -3.53757e-17)
(0.463941 -0.234987 -6.53065e-17)
(0.374317 -0.203148 -6.38871e-17)
(0.645241 -0.285782 -3.47221e-17)
(0.520761 -0.28699 -4.86559e-17)
(0.857889 -0.236564 -4.77572e-18)
(0.707733 -0.312662 -8.95965e-18)
(1.01185 -0.0692082 -1.0575e-17)
(0.921289 -0.19204 7.87083e-18)
(1.05253 0.0436793 -1.87583e-17)
(0.221733 -0.0439947 -3.73248e-18)
(0.205049 -0.0214647 -9.24495e-19)
(0.253087 -0.0971427 -2.18902e-17)
(0.223069 -0.0684143 -6.68759e-18)
(0.315326 -0.16927 -4.60974e-17)
(0.264522 -0.130317 -3.50303e-17)
(0.424056 -0.255494 -4.69289e-17)
(0.341802 -0.21685 -5.19889e-17)
(0.584544 -0.314886 -2.26777e-17)
(0.466529 -0.308385 -3.63688e-17)
(0.783829 -0.269742 3.88435e-18)
(0.626848 -0.343236 -2.20189e-18)
(0.96355 -0.0895621 8.30357e-19)
(0.831296 -0.228227 1.86554e-17)
(1.02688 0.029522 -3.36073e-18)
(0.206461 -0.0458811 -3.88187e-18)
(0.19081 -0.0222221 -1.09369e-18)
(0.233556 -0.101658 -1.97959e-17)
(0.20638 -0.0707617 -7.35655e-18)
(0.286932 -0.17807 -4.08419e-17)
(0.241847 -0.135312 -3.04636e-17)
(0.377321 -0.270098 -4.13437e-17)
(0.306482 -0.225629 -4.49207e-17)
(0.509722 -0.337455 -1.57777e-17)
(0.404931 -0.322017 -3.37999e-17)
(0.687321 -0.303285 1.27784e-17)
(0.532884 -0.367412 4.18178e-18)
(0.892231 -0.120747 1.5489e-17)
(0.719279 -0.27067 2.38092e-17)
(0.974591 -0.0030119 1.2182e-17)
(0.190756 -0.0471038 -4.57806e-18)
(0.176229 -0.0226928 -1.29148e-18)
(0.213647 -0.104471 -1.79993e-17)
(0.189486 -0.0721409 -6.96915e-18)
(0.257543 -0.183002 -3.44535e-17)
(0.219244 -0.137986 -2.5673e-17)
(0.327648 -0.277775 -3.73208e-17)
(0.270511 -0.229167 -3.77819e-17)
(0.428325 -0.352107 -1.38037e-17)
(0.342305 -0.327253 -3.00158e-17)
(0.577266 -0.334301 1.53281e-17)
(0.435677 -0.383555 5.44336e-18)
(0.796097 -0.162231 2.10118e-17)
(0.593395 -0.315774 2.6598e-17)
(0.880217 -0.0597496 2.50327e-17)
(0.17492 -0.0477332 -3.67092e-18)
(0.16148 -0.0229174 -1.18408e-18)
(0.193975 -0.105702 -1.45992e-17)
(0.172763 -0.0726832 -5.06597e-18)
(0.2287 -0.184274 -2.89304e-17)
(0.197325 -0.138509 -2.07047e-17)
(0.279481 -0.278815 -3.03878e-17)
(0.235959 -0.227976 -3.12196e-17)
(0.349285 -0.358422 -1.07223e-17)
(0.284337 -0.324742 -2.59357e-17)
(0.461719 -0.363041 1.68317e-17)
(0.345354 -0.389775 2.47288e-18)
(0.673208 -0.222562 3.08032e-17)
(0.46306 -0.357213 2.67167e-17)
(0.735465 -0.146924 2.86168e-17)
(0.159184 -0.0479243 -2.56596e-18)
(0.146721 -0.0229543 -8.45615e-19)
(0.174874 -0.10571 -1.11301e-17)
(0.156476 -0.0725387 -4.18407e-18)
(0.201326 -0.182673 -2.29222e-17)
(0.176457 -0.137201 -1.6695e-17)
(0.235682 -0.274552 -2.67237e-17)
(0.204457 -0.223071 -2.6757e-17)
(0.279466 -0.356832 -1.27599e-17)
(0.234806 -0.316212 -2.37407e-17)
(0.352788 -0.386053 1.24104e-17)
(0.270111 -0.385768 -1.37522e-18)
(0.527812 -0.30234 2.43765e-17)
(0.348704 -0.385872 2.16367e-17)
(0.563739 -0.269209 2.53899e-17)
(0.964697 0.0311847 -1.56428e-15)
(0.983817 0.0350604 -2.76249e-15)
(0.897798 0.0424344 9.45341e-16)
(0.940137 0.0634542 3.88121e-17)
(0.821488 0.0440685 2.44709e-15)
(0.855292 0.0696478 2.18681e-15)
(0.743888 0.0426955 1.7605e-15)
(0.780935 0.0682586 3.545e-15)
(0.666936 0.0405198 -2.64397e-15)
(0.701736 0.0652588 8.13497e-16)
(0.59187 0.0378642 -7.04814e-15)
(0.625238 0.0613786 -4.59047e-15)
(0.51968 0.0348796 -7.52897e-15)
(0.551183 0.056911 -7.72208e-15)
(0.45125 0.0316728 -4.33509e-15)
(0.48066 0.0520145 -5.39293e-15)
(0.387306 0.0283555 -1.58816e-15)
(0.414429 0.0468626 -5.35326e-16)
(0.328392 0.0250368 -1.95884e-15)
(0.353123 0.0416297 8.74274e-16)
(0.274845 0.0218169 -4.05195e-15)
(0.297153 0.0364812 -8.43718e-16)
(0.226795 0.018782 -6.11697e-15)
(0.246722 0.0315638 -3.50217e-15)
(0.184167 0.016001 -6.17531e-15)
(0.201824 0.0269988 -5.81353e-15)
(0.146701 0.0135258 -3.96096e-15)
(0.162261 0.0228792 -4.15211e-15)
(0.113968 0.0113941 -1.93943e-15)
(0.127662 0.0192726 -9.68275e-16)
(0.0853805 0.00963871 1.77543e-15)
(0.0975141 0.0162288 1.64953e-16)
(0.0601682 0.00829328 7.66851e-15)
(0.0711436 0.0138 5.5184e-15)
(0.0373513 0.00731793 1.03266e-14)
(0.0476091 0.0120415 9.86094e-15)
(0.0161917 0.00601808 5.17489e-15)
(0.0258657 0.0107667 1.03922e-14)
(0.00636516 0.00793539 7.75981e-16)
(0.964263 0.0751965 -1.13154e-15)
(0.983449 0.0682619 -1.10786e-15)
(0.89567 0.102247 1.31852e-15)
(0.937508 0.124709 4.98346e-16)
(0.818193 0.105913 3.47984e-15)
(0.850802 0.135897 2.87716e-15)
(0.739324 0.10258 2.8884e-15)
(0.774424 0.133289 3.28154e-15)
(0.661452 0.0972395 -5.98245e-16)
(0.693762 0.127026 2.11157e-15)
(0.585703 0.090814 -4.70846e-15)
(0.616087 0.119226 -1.66431e-15)
(0.513093 0.0836039 -5.11356e-15)
(0.541276 0.110284 -4.90665e-15)
(0.444502 0.0758671 -9.62787e-16)
(0.470398 0.100541 -3.33338e-15)
(0.380639 0.0678721 2.84699e-15)
(0.404194 0.0903434 9.82689e-16)
(0.322015 0.0598816 3.09911e-15)
(0.343251 0.0800406 3.22709e-15)
(0.268925 0.0521362 7.86022e-16)
(0.287919 0.0699554 2.38459e-15)
(0.221455 0.044842 -2.35437e-15)
(0.238332 0.0603681 6.55084e-17)
(0.179488 0.0381642 -3.18258e-15)
(0.194413 0.0515061 -2.61993e-15)
(0.142727 0.032226 -4.74084e-16)
(0.155903 0.0435411 -1.24196e-15)
(0.11071 0.0271167 1.94322e-15)
(0.122382 0.0365934 1.246e-15)
(0.0828295 0.0229133 4.36166e-15)
(0.0932996 0.0307491 1.84115e-15)
(0.0583035 0.0196974 7.62162e-15)
(0.0679581 0.0260986 4.72115e-15)
(0.0361471 0.0173727 9.80572e-15)
(0.0454097 0.0227435 8.09517e-15)
(0.0156097 0.0142424 6.44417e-15)
(0.0246251 0.0203287 1.11026e-14)
(0.00604164 0.0149104 2.92166e-15)
(0.962105 0.120009 5.68341e-16)
(0.982961 0.102134 4.39057e-16)
(0.890869 0.162623 2.04693e-15)
(0.932835 0.184849 1.45054e-15)
(0.810965 0.167888 2.62977e-15)
(0.843231 0.200412 1.74835e-15)
(0.730058 0.162216 2.50744e-15)
(0.764066 0.196041 1.3514e-15)
(0.650555 0.153278 1.20261e-15)
(0.681026 0.186244 1.89541e-15)
(0.573638 0.142681 -1.65374e-15)
(0.601713 0.174236 3.55278e-16)
(0.500361 0.130882 -3.05431e-15)
(0.52583 0.160574 -1.54981e-15)
(0.431593 0.118324 -1.49259e-15)
(0.454517 0.145813 -1.85125e-15)
(0.368 0.105446 1.24331e-15)
(0.388462 0.130492 3.51976e-16)
(0.310023 0.0926733 2.49853e-15)
(0.328173 0.115138 2.04343e-15)
(0.257878 0.0803806 1.75377e-15)
(0.273898 0.100223 1.8909e-15)
(0.211563 0.0688818 -3.76068e-17)
(0.22566 0.0861467 4.86944e-16)
(0.170879 0.0584197 -5.76827e-16)
(0.183276 0.0732217 -7.61568e-16)
(0.135458 0.0491689 4.79451e-16)
(0.146393 0.0616761 -1.36721e-17)
(0.104786 0.0412492 1.09135e-15)
(0.114517 0.0516602 6.40586e-16)
(0.0782158 0.0347615 2.03411e-15)
(0.0870417 0.0432756 8.88611e-16)
(0.0549513 0.0298161 5.005e-15)
(0.0632427 0.0366308 1.62973e-15)
(0.0340161 0.0262556 9.31302e-15)
(0.042172 0.031851 4.04204e-15)
(0.014676 0.021494 7.79949e-15)
(0.0228237 0.0284187 7.27891e-15)
(0.00559139 0.0208087 1.90433e-15)
(0.959029 0.166559 1.30945e-15)
(0.982327 0.137402 8.06151e-16)
(0.883817 0.224067 1.13203e-15)
(0.92633 0.245374 1.14524e-15)
(0.800351 0.230309 4.43384e-16)
(0.832712 0.264382 7.11247e-17)
(0.716494 0.221783 7.01421e-16)
(0.749766 0.257542 -3.69625e-16)
(0.634683 0.208814 1.07419e-15)
(0.663586 0.243678 4.66595e-16)
(0.556173 0.193611 5.27792e-16)
(0.582207 0.226949 7.08211e-16)
(0.482055 0.176831 -2.98513e-16)
(0.505049 0.208114 4.28998e-16)
(0.413163 0.159136 -2.4106e-17)
(0.433349 0.187991 -1.53819e-16)
(0.350086 0.141156 1.11932e-15)
(0.367686 0.167331 5.8584e-16)
(0.293154 0.123479 1.42189e-15)
(0.308443 0.146844 1.21242e-15)
(0.242452 0.106609 6.32291e-16)
(0.255712 0.127144 8.49453e-16)
(0.197847 0.0909542 -2.17026e-16)
(0.209361 0.108728 -3.47323e-16)
(0.159023 0.0768147 -2.0631e-16)
(0.169063 0.0919659 -6.60143e-16)
(0.125511 0.0643951 1.30112e-16)
(0.134341 0.0771112 -1.42075e-16)
(0.0967232 0.0538254 4.2296e-16)
(0.104611 0.0643156 4.44745e-16)
(0.071967 0.0452109 4.46094e-16)
(0.0792036 0.05367 1.56153e-15)
(0.0504278 0.0386708 5.53756e-16)
(0.0573626 0.0452773 1.69605e-15)
(0.0311441 0.0339767 1.8329e-15)
(0.0381487 0.0392633 1.47516e-15)
(0.0134011 0.0277612 1.38467e-15)
(0.0205881 0.0349579 1.96218e-15)
(0.00502272 0.0255379 -1.0983e-16)
(0.954829 0.214787 6.33872e-16)
(0.981292 0.17503 3.51609e-16)
(0.87431 0.286365 1.04553e-16)
(0.917748 0.307433 2.058e-16)
(0.786188 0.292679 -7.34188e-16)
(0.818987 0.328729 -7.87967e-16)
(0.698563 0.280535 -6.20202e-16)
(0.731282 0.318495 -1.09891e-15)
(0.613908 0.262864 9.58588e-17)
(0.641378 0.299799 -4.47341e-16)
(0.533559 0.24243 6.14542e-16)
(0.557658 0.277627 4.51452e-16)
(0.458613 0.220152 5.84638e-16)
(0.479214 0.253001 5.94605e-16)
(0.389825 0.196945 4.42801e-16)
(0.407363 0.227056 1.41491e-16)
(0.32765 0.173647 6.67348e-16)
(0.342492 0.200773 -4.32349e-17)
(0.272248 0.151002 6.46325e-16)
(0.284797 0.175045 7.00014e-17)
(0.223524 0.129626 -1.08595e-16)
(0.234158 0.150606 -1.36865e-16)
(0.181174 0.109987 -7.84937e-16)
(0.190241 0.128016 -4.07639e-16)
(0.144731 0.092412 -6.055e-16)
(0.152544 0.107667 -5.75313e-16)
(0.11361 0.077101 1.61865e-16)
(0.120453 0.0898001 -2.20488e-16)
(0.0871391 0.0641645 1.56335e-15)
(0.0932796 0.0745363 5.64044e-16)
(0.0645795 0.0536863 2.80987e-15)
(0.070293 0.0619276 2.2995e-15)
(0.0451041 0.0457704 2.62222e-15)
(0.0507123 0.0520467 3.07736e-15)
(0.0277777 0.0401103 1.59546e-15)
(0.033618 0.044997 2.29005e-15)
(0.011916 0.0327007 5.05966e-16)
(0.0180825 0.0399668 -7.82106e-17)
(0.0043916 0.0291229 -1.43388e-15)
(0.94926 0.265508 -6.7205e-17)
(0.979684 0.216069 -4.44078e-17)
(0.862015 0.350116 -6.61295e-16)
(0.906736 0.372016 -6.66022e-16)
(0.768185 0.355336 -1.14354e-15)
(0.801657 0.39414 -1.12814e-15)
(0.676077 0.338614 -9.35314e-16)
(0.70827 0.379354 -1.05834e-15)
(0.588201 0.315389 -1.06452e-16)
(0.614221 0.354837 -3.43729e-16)
(0.505955 0.28897 4.30445e-16)
(0.528057 0.326314 4.06152e-16)
(0.430387 0.260597 1.63251e-16)
(0.448526 0.295161 1.84285e-16)
(0.3621 0.231477 -3.34667e-16)
(0.376951 0.262875 -5.22294e-16)
(0.301341 0.202655 -6.31772e-16)
(0.313425 0.230676 -8.08891e-16)
(0.248033 0.175019 -6.9816e-16)
(0.257884 0.199624 -8.9802e-16)
(0.201851 0.149257 -4.28293e-16)
(0.209935 0.170531 -7.93056e-16)
(0.162282 0.125861 -1.99855e-16)
(0.169002 0.143979 -4.33551e-16)
(0.128691 0.10514 -2.00167e-16)
(0.134388 0.120336 -3.43611e-16)
(0.100365 0.0872558 1.67335e-16)
(0.10533 0.0997893 -2.76403e-16)
(0.0765498 0.0722663 1.27099e-15)
(0.0810399 0.0823932 3.29068e-16)
(0.0564663 0.0602083 2.55494e-15)
(0.060734 0.0681341 1.41376e-15)
(0.0392864 0.0511483 2.75841e-15)
(0.043618 0.0570321 2.20025e-15)
(0.0241149 0.0446966 6.67352e-16)
(0.0288073 0.049148 1.84384e-15)
(0.0103083 0.0363532 -1.9721e-15)
(0.0154355 0.043542 -1.00886e-15)
(0.00372905 0.0316439 -2.28575e-15)
(0.942045 0.319743 -6.20951e-16)
(0.977289 0.261624 -2.98405e-16)
(0.846511 0.416112 -1.11763e-15)
(0.892845 0.440042 -1.13831e-15)
(0.745911 0.418778 -1.0456e-15)
(0.780187 0.46116 -1.13652e-15)
(0.648702 0.396281 -4.86122e-16)
(0.680251 0.440384 -5.85087e-16)
(0.557396 0.366453 1.51568e-16)
(0.581807 0.408819 2.0078e-16)
(0.473405 0.333156 1.67733e-16)
(0.49331 0.372875 4.20117e-16)
(0.397627 0.298025 -4.79337e-16)
(0.413129 0.334379 -1.98204e-16)
(0.330417 0.262577 -9.82187e-16)
(0.342464 0.295225 -9.58112e-16)
(0.271718 0.228055 -1.06739e-15)
(0.280991 0.256858 -8.92291e-16)
(0.221146 0.195451 -9.90718e-16)
(0.228305 0.220463 -8.56333e-16)
(0.178094 0.165478 -7.9965e-16)
(0.183682 0.186877 -7.94255e-16)
(0.141816 0.1386 -5.73692e-16)
(0.146275 0.156643 -1.02315e-15)
(0.111494 0.115065 -4.18011e-16)
(0.11518 0.130052 -1.06113e-15)
(0.0862938 0.0949515 -1.21651e-16)
(0.0894901 0.107194 -9.60478e-16)
(0.0653884 0.0782391 4.63404e-16)
(0.0683315 0.0880229 -1.76526e-16)
(0.0479703 0.0648929 1.06566e-15)
(0.0508811 0.0724357 4.54375e-16)
(0.0332264 0.0549224 1.3125e-15)
(0.0363489 0.0603812 8.37717e-16)
(0.0203171 0.0478527 2.25877e-16)
(0.023902 0.0518617 7.05122e-16)
(0.0086499 0.0388242 -1.30815e-15)
(0.0127506 0.0458255 -6.84319e-16)
(0.00306119 0.0332142 -8.29823e-16)
(0.932809 0.378514 -7.92995e-16)
(0.973818 0.312916 -3.22699e-16)
(0.82723 0.485037 -1.15653e-15)
(0.875474 0.512381 -1.03198e-15)
(0.718786 0.48333 -6.92508e-16)
(0.753872 0.530207 -8.36526e-16)
(0.615979 0.453583 7.72916e-17)
(0.646625 0.501669 -1.79369e-16)
(0.521252 0.415897 4.59763e-16)
(0.54376 0.461579 5.172e-16)
(0.435918 0.374722 6.72728e-17)
(0.453311 0.417002 4.28317e-16)
(0.360581 0.332147 -6.59858e-16)
(0.373189 0.370318 -2.21371e-16)
(0.295208 0.29 -8.71417e-16)
(0.304283 0.323815 -6.85741e-16)
(0.239336 0.249678 -6.88728e-16)
(0.245716 0.279121 -4.5261e-16)
(0.192201 0.212216 -6.6685e-16)
(0.196662 0.23747 -4.05976e-16)
(0.152874 0.17829 -1.00978e-15)
(0.156015 0.199649 -6.13517e-16)
(0.120359 0.148273 -1.49329e-15)
(0.122646 0.166091 -1.34719e-15)
(0.0936655 0.122299 -1.58438e-15)
(0.0954473 0.136952 -1.87832e-15)
(0.0718459 0.100331 -1.01355e-15)
(0.0733872 0.112183 -1.77537e-15)
(0.0540214 0.0822397 -1.85348e-16)
(0.0555271 0.0916097 -8.77665e-16)
(0.0393764 0.0679003 2.34449e-16)
(0.0410278 0.075019 -4.13967e-16)
(0.0271301 0.0572502 2.51907e-16)
(0.0291234 0.0622749 -8.67425e-17)
(0.0165145 0.0497313 -1.72534e-16)
(0.0190503 0.0533113 -2.52971e-16)
(0.00699809 0.0402486 -2.2289e-16)
(0.010109 0.0469828 -4.67954e-16)
(0.00240832 0.0339638 5.26822e-16)
(0.921039 0.442895 -5.50097e-16)
(0.968873 0.371351 -2.72065e-16)
(0.803427 0.557485 -7.24754e-16)
(0.853828 0.589883 -6.75103e-16)
(0.686085 0.549146 -3.42802e-16)
(0.721828 0.601557 -4.64125e-16)
(0.577373 0.510362 2.44312e-16)
(0.60669 0.563091 2.63757e-17)
(0.47952 0.463376 4.86807e-16)
(0.499686 0.512746 4.75384e-16)
(0.393544 0.41326 1.49789e-16)
(0.407999 0.458228 3.81346e-16)
(0.31955 0.362595 -2.47451e-16)
(0.328949 0.402546 -3.46074e-17)
(0.256956 0.313474 -2.83542e-16)
(0.262861 0.348326 -1.89175e-16)
(0.204779 0.267373 -1.81373e-16)
(0.208174 0.297282 -5.03556e-17)
(0.161811 0.225283 -3.55403e-16)
(0.163569 0.250598 -1.43861e-16)
(0.12678 0.187755 -9.3903e-16)
(0.12753 0.208908 -5.24403e-16)
(0.0984483 0.155008 -1.71781e-15)
(0.0986545 0.172464 -1.22647e-15)
(0.0756659 0.127014 -2.06117e-15)
(0.0756564 0.141226 -1.83148e-15)
(0.0574029 0.103586 -1.64264e-15)
(0.0574071 0.11497 -1.83605e-15)
(0.0427525 0.0844649 -1.09561e-15)
(0.0429344 0.0933704 -1.20872e-15)
(0.0309146 0.069422 -7.21045e-16)
(0.0314096 0.0760933 -8.31577e-16)
(0.0211606 0.0583142 -5.71287e-16)
(0.0221128 0.0629103 -5.45682e-16)
(0.0128082 0.0505055 -5.36813e-16)
(0.0143657 0.0536814 -4.54014e-16)
(0.00539644 0.0407761 2.53365e-16)
(0.00757156 0.0471876 6.36404e-17)
(0.00178527 0.0340263 9.76771e-16)
(0.906053 0.514071 -3.91237e-16)
(0.961918 0.438586 -2.2243e-16)
(0.774156 0.63397 -4.25441e-16)
(0.826869 0.673372 -2.86413e-16)
(0.646944 0.616208 -1.09381e-16)
(0.682979 0.675312 -1.34204e-16)
(0.532309 0.566263 2.49139e-16)
(0.559673 0.624303 1.24319e-16)
(0.431992 0.508374 3.7426e-16)
(0.449218 0.561737 2.32484e-16)
(0.34642 0.448257 2.0329e-16)
(0.357416 0.495947 3.19018e-16)
(0.274929 0.388964 2.02519e-17)
(0.280763 0.430574 1.25203e-16)
(0.216211 0.332748 3.40803e-17)
(0.218739 0.368438 9.10953e-17)
(0.168658 0.281043 -1.50138e-17)
(0.168987 0.311204 5.68424e-17)
(0.13058 0.234681 -3.07047e-16)
(0.129644 0.259861 -1.98966e-16)
(0.100368 0.193999 -8.02229e-16)
(0.0987942 0.214783 -5.76584e-16)
(0.0765613 0.158993 -1.33796e-15)
(0.0747909 0.175958 -9.59108e-16)
(0.0578919 0.129429 -1.61663e-15)
(0.0562099 0.143105 -1.2991e-15)
(0.0432807 0.104943 -1.41878e-15)
(0.0418691 0.115796 -1.25554e-15)
(0.0318242 0.0851344 -9.54841e-16)
(0.030798 0.0935402 -6.90231e-16)
(0.0227636 0.0696643 -6.62786e-16)
(0.0222077 0.075878 -2.81974e-16)
(0.0154412 0.0583055 -4.33295e-16)
(0.0154449 0.0624877 -4.35868e-16)
(0.00927341 0.050353 1.21658e-16)
(0.00993116 0.0531558 -1.35504e-16)
(0.00387643 0.0405583 7.58425e-16)
(0.00518144 0.0466104 6.76318e-16)
(0.00120218 0.0335308 7.97655e-16)
(0.886931 0.593373 -1.22827e-16)
(0.952202 0.516623 -4.11071e-17)
(0.738224 0.714906 -8.51005e-18)
(0.793224 0.763634 1.47789e-16)
(0.600363 0.684278 8.97613e-17)
(0.636027 0.751342 1.83437e-16)
(0.480207 0.620702 1.09202e-16)
(0.504755 0.684684 1.1771e-16)
(0.378553 0.550211 1.80526e-16)
(0.392082 0.607762 -5.38655e-18)
(0.294807 0.479122 2.43458e-16)
(0.30175 0.529445 1.40587e-16)
(0.227224 0.410843 1.9235e-16)
(0.229123 0.453891 2.0582e-16)
(0.173594 0.347612 1.12514e-16)
(0.172553 0.38388 1.60706e-16)
(0.131609 0.290657 -1.19813e-16)
(0.128814 0.320824 -8.03928e-17)
(0.0990981 0.240513 -4.57831e-16)
(0.0955004 0.265352 -4.27439e-16)
(0.0741432 0.19721 -7.2834e-16)
(0.0703344 0.217465 -6.0898e-16)
(0.0551152 0.160461 -9.24421e-16)
(0.0514832 0.17682 -6.63581e-16)
(0.0406724 0.129792 -9.55392e-16)
(0.0374427 0.142855 -8.3147e-16)
(0.0297298 0.104647 -5.58882e-16)
(0.027026 0.114921 -6.33655e-16)
(0.0214217 0.0844767 -4.75793e-17)
(0.0193033 0.0923604 1.85451e-17)
(0.0150549 0.0688352 -6.71964e-17)
(0.0135533 0.0745905 2.61431e-16)
(0.0100603 0.0574123 -1.50648e-16)
(0.00920898 0.0612007 -2.49518e-16)
(0.00596205 0.0494459 3.97428e-16)
(0.00580232 0.0519091 -1.29104e-16)
(0.00245919 0.03974 7.14414e-16)
(0.00296659 0.0454104 7.06263e-16)
(0.000665347 0.0325965 5.01642e-16)
(0.862395 0.682316 2.15985e-16)
(0.938641 0.607959 8.69369e-17)
(0.694132 0.800539 3.30079e-16)
(0.751064 0.861346 4.11546e-16)
(0.545219 0.75284 2.09412e-16)
(0.579452 0.829204 3.51031e-16)
(0.420548 0.672845 8.05319e-18)
(0.441136 0.743293 4.25654e-17)
(0.319236 0.588056 -4.20773e-17)
(0.328164 0.649828 -1.1806e-16)
(0.239129 0.505218 1.05424e-16)
(0.24138 0.557939 -4.04949e-17)
(0.177062 0.427857 1.75447e-16)
(0.174672 0.472021 1.51782e-16)
(0.129788 0.357934 -2.41736e-17)
(0.12502 0.39446 8.11731e-17)
(0.094277 0.296267 -3.74914e-16)
(0.0883397 0.326173 -2.3441e-16)
(0.0679199 0.242956 -5.72239e-16)
(0.0617243 0.267246 -4.98797e-16)
(0.0485582 0.197634 -5.48013e-16)
(0.0426214 0.217211 -4.79292e-16)
(0.0344594 0.159684 -5.76798e-16)
(0.0290921 0.175336 -3.4009e-16)
(0.0242682 0.128372 -5.24775e-16)
(0.01962 0.14076 -4.21089e-16)
(0.0169392 0.102948 -8.08171e-17)
(0.0130668 0.112611 -3.24834e-16)
(0.0116774 0.0827185 3.13536e-16)
(0.00858054 0.0900685 2.21254e-16)
(0.00787841 0.0671348 8.44027e-17)
(0.0055337 0.0724384 2.95006e-16)
(0.00507539 0.0558121 -2.28114e-16)
(0.0034611 0.0592298 -4.27656e-16)
(0.0029068 0.0479437 1.7052e-16)
(0.0020124 0.0501008 -5.88618e-16)
(0.00115732 0.0384533 5.02875e-16)
(0.000942565 0.0437316 1.85409e-16)
(0.000177949 0.0313291 2.86614e-16)
(0.830629 0.782641 2.73086e-16)
(0.919627 0.715789 8.5817e-17)
(0.640027 0.890857 4.30839e-16)
(0.697917 0.966942 5.13818e-16)
(0.480302 0.821025 1.90355e-16)
(0.511535 0.908035 3.8581e-16)
(0.352947 0.721589 -7.82233e-17)
(0.368115 0.798821 -2.21652e-17)
(0.254283 0.620963 -1.15845e-16)
(0.257587 0.686776 -1.23551e-16)
(0.179996 0.525918 5.14e-18)
(0.176912 0.580636 -7.23765e-17)
(0.125185 0.439709 6.19463e-17)
(0.118202 0.484572 3.02356e-17)
(0.0855196 0.36368 -1.2063e-16)
(0.0769242 0.400102 -1.8816e-17)
(0.0572907 0.298021 -3.54049e-16)
(0.0482405 0.327388 -2.43198e-16)
(0.0375507 0.242257 -4.10689e-16)
(0.0288535 0.2658 -3.23462e-16)
(0.0239958 0.19556 -2.81309e-16)
(0.0160583 0.214326 -2.98799e-16)
(0.0148721 0.156956 -1.93541e-16)
(0.00790508 0.171818 -1.65036e-16)
(0.00887393 0.125448 -2.31056e-16)
(0.00293869 0.137113 -2.39538e-16)
(0.00504046 0.100096 -3.4021e-17)
(0.000120816 0.109125 -2.311e-16)
(0.00267769 0.0800758 2.04408e-16)
(-0.0012885 0.0868893 1.46354e-16)
(0.00128891 0.0647492 -1.96086e-16)
(-0.00180166 0.0696128 1.60746e-16)
(0.000519513 0.0536658 -7.70179e-16)
(-0.00177043 0.0567378 -6.16684e-16)
(0.000127914 0.0459893 -5.67366e-16)
(-0.00142376 0.0478713 -9.11901e-16)
(-2.30885e-05 0.0368158 -1.82453e-17)
(-0.000884872 0.0417012 -3.10486e-16)
(-0.000259334 0.0298206 1.78401e-16)
(0.788963 0.896372 3.14963e-16)
(0.892699 0.844357 1.07093e-16)
(0.573671 0.985426 4.70057e-16)
(0.63042 1.08031 5.40829e-16)
(0.404382 0.887533 1.81013e-16)
(0.430446 0.986439 3.44185e-16)
(0.277253 0.765567 -6.59953e-17)
(0.2852 0.849562 -2.75825e-17)
(0.184195 0.647926 -8.19892e-17)
(0.180799 0.717347 -1.07096e-16)
(0.118208 0.540662 -4.76348e-17)
(0.109191 0.596804 -7.8621e-17)
(0.0724322 0.446223 -4.65128e-17)
(0.0606325 0.491288 -5.28885e-17)
(0.0415282 0.364937 -1.36826e-16)
(0.0290732 0.400866 -6.6466e-17)
(0.0212384 0.296158 -2.15142e-16)
(0.00915793 0.324714 -1.66761e-16)
(0.00842844 0.238725 -2.17576e-16)
(-0.00264223 0.261339 -7.45755e-17)
(0.000760506 0.191312 -1.87659e-16)
(-0.00902989 0.209156 -7.84473e-17)
(-0.00344088 0.152584 -2.09223e-16)
(-0.0118652 0.166591 -8.48615e-17)
(-0.00537993 0.121292 -2.39493e-16)
(-0.0124695 0.132203 -2.23511e-16)
(-0.00588886 0.0963252 -5.69495e-17)
(-0.0117358 0.104712 -2.08238e-16)
(-0.00553508 0.0767479 1.0528e-16)
(-0.0102636 0.0830301 6.46336e-17)
(-0.00469319 0.0618458 -2.44287e-16)
(-0.00843438 0.0662852 9.58917e-17)
(-0.0035996 0.0511165 -7.53501e-16)
(-0.00647924 0.0538672 -4.98105e-16)
(-0.00238198 0.0437072 -6.63232e-16)
(-0.00450575 0.0453451 -7.04753e-16)
(-0.00108362 0.0349278 -1.19893e-16)
(-0.00251763 0.0394241 -3.79848e-16)
(-0.000647515 0.0281475 7.34566e-17)
(0.733409 1.02581 3.22162e-16)
(0.854043 0.999444 1.41553e-16)
(0.492484 1.08313 4.20103e-16)
(0.543975 1.2003 4.99997e-16)
(0.316314 0.950565 1.43487e-16)
(0.334463 1.06239 2.93842e-16)
(0.193658 0.803172 -6.71974e-17)
(0.192231 0.893403 -2.10877e-17)
(0.10977 0.667957 -1.03607e-16)
(0.0986499 0.740271 -1.15206e-16)
(0.0547437 0.54902 -8.32884e-17)
(0.0392927 0.605851 -1.05587e-16)
(0.0196851 0.447375 -7.1844e-17)
(0.0029704 0.492096 -6.77151e-17)
(-0.00150667 0.361917 -9.57865e-17)
(-0.0177392 0.396974 -1.29095e-17)
(-0.0133616 0.290999 -3.32615e-17)
(-0.0283336 0.318481 1.16136e-17)
(-0.01909 0.232716 5.65081e-17)
(-0.0323752 0.254243 1.13248e-16)
(-0.0209078 0.185233 1.83673e-17)
(-0.0324005 0.202063 1.69946e-16)
(-0.0203398 0.146873 -9.9859e-17)
(-0.030078 0.159982 4.46057e-17)
(-0.0184148 0.116166 -1.93885e-16)
(-0.0265315 0.126306 -1.05987e-16)
(-0.0158084 0.0918547 -9.06344e-17)
(-0.0224725 0.0995989 -1.59307e-16)
(-0.012943 0.0729137 5.61304e-17)
(-0.0183386 0.0786755 1.78816e-17)
(-0.0100624 0.0585714 -1.49888e-16)
(-0.0143706 0.0626051 4.14567e-17)
(-0.00728207 0.0482869 -4.54442e-16)
(-0.0106758 0.0507404 -2.01041e-16)
(-0.00461555 0.0412029 -4.34079e-16)
(-0.00724397 0.0426239 -3.0862e-16)
(-0.00202517 0.0328737 -1.92661e-16)
(-0.00396316 0.0369914 -2.4548e-16)
(-0.000988773 0.0263737 -9.10722e-17)
(0.658125 1.17374 3.10928e-16)
(0.797721 1.18898 1.81978e-16)
(0.393686 1.18188 3.78821e-16)
(0.432178 1.32396 4.35795e-16)
(0.215213 1.0078 1.35261e-16)
(0.222309 1.13318 2.24676e-16)
(0.102786 0.832653 -6.7375e-17)
(0.0895222 0.927909 -4.16724e-17)
(0.0321154 0.680191 -1.16957e-16)
(0.0124194 0.754384 -1.29983e-16)
(-0.00933929 0.550739 -9.04862e-17)
(-0.0315222 0.60743 -1.01609e-16)
(-0.032116 0.443304 -1.16075e-17)
(-0.053745 0.487078 -3.32295e-18)
(-0.042833 0.354953 8.84542e-17)
(-0.0627711 0.388755 1.5259e-16)
(-0.046054 0.282942 1.50689e-16)
(-0.063749 0.309141 2.17518e-16)
(-0.0447316 0.224616 2.20671e-16)
(-0.060053 0.244932 2.78523e-16)
(-0.0408663 0.177666 1.93168e-16)
(-0.053893 0.193419 3.82256e-16)
(-0.035751 0.140117 3.70705e-17)
(-0.0466586 0.152299 3.36275e-16)
(-0.0302051 0.11031 -7.40712e-17)
(-0.039225 0.119674 1.2015e-16)
(-0.02472 0.0868786 -5.5101e-17)
(-0.0320957 0.0939884 -6.33931e-17)
(-0.0195613 0.068729 4.34877e-18)
(-0.0255338 0.0739861 -3.71589e-17)
(-0.0148379 0.0550515 -9.53118e-18)
(-0.0196348 0.0586996 2.64782e-17)
(-0.0105457 0.0452799 -6.50682e-17)
(-0.014383 0.0474593 3.45495e-17)
(-0.00658962 0.0385642 -1.30384e-16)
(-0.00965621 0.0397925 2.11131e-17)
(-0.00285508 0.0307232 -1.48075e-16)
(-0.00523244 0.0344759 -8.95255e-17)
(-0.0012862 0.0245502 -1.81501e-16)
(0.554754 1.34262 3.00886e-16)
(0.71571 1.4237 2.24071e-16)
(0.273978 1.27806 2.8836e-16)
(0.28631 1.44601 3.84868e-16)
(0.100784 1.05642 5.5079e-17)
(0.0936775 1.19506 1.19629e-16)
(0.00499256 0.852124 -1.01611e-16)
(-0.0220156 0.950935 -1.136e-16)
(-0.0473219 0.683835 -1.15207e-16)
(-0.0761975 0.758318 -1.44826e-16)
(-0.0726648 0.545808 -1.84683e-17)
(-0.101808 0.601406 -4.2775e-17)
(-0.0821028 0.434333 1.52936e-16)
(-0.108503 0.476626 1.21808e-16)
(-0.0819727 0.344487 2.74703e-16)
(-0.105377 0.376714 3.2477e-16)
(-0.0765167 0.272434 3.38427e-16)
(-0.0967127 0.297164 4.09092e-16)
(-0.068318 0.214822 4.31682e-16)
(-0.0854818 0.233833 5.11674e-16)
(-0.0590308 0.168947 5.162e-16)
(-0.0734246 0.183581 6.3532e-16)
(-0.0496532 0.132586 4.11696e-16)
(-0.0615902 0.143831 6.66708e-16)
(-0.0407624 0.103942 1.27921e-16)
(-0.050569 0.112536 4.37801e-16)