/*--------------------------------*- C++ -*----------------------------------*\
  =========                 |
  \\      /  F ield         | OpenFOAM: The Open Source CFD Toolbox
   \\    /   O peration     | Website:  https://openfoam.org
    \\  /    A nd           | Version:  13
     \\/     M anipulation  |
\*---------------------------------------------------------------------------*/
FoamFile
{
    format      ascii;
    class       volScalarField;
    location    "2.5";
    object      alpha.oil;
}
// * * * * * * * * * * * * * * * * * * * * * * * * * * * * * * * * * * * * * //

dimensions      [];

internalField   nonuniform List<scalar> 
2268
(
1.42997e-14
9.38608e-14
4.77457e-13
1.55424e-12
3.93458e-12
8.3116e-12
1.63523e-11
2.99936e-11
5.42238e-11
9.71987e-11
1.73938e-10
3.10775e-10
5.64246e-10
9.50152e-10
2.00863e-09
3.95867e-09
7.57001e-09
9.44065e-09
9.79562e-09
1.00234e-08
0.000331353
0.000567048
0.0005671
1.62549e-14
1.14235e-13
3.25077e-13
1.68793e-12
4.20483e-12
9.20655e-12
1.83741e-11
3.59765e-11
6.37238e-11
1.20791e-10
2.1304e-10
3.85583e-10
7.03073e-10
1.21672e-09
2.47676e-09
4.88259e-09
9.6916e-09
1.15385e-08
1.03755e-08
1.58141e-06
5.33499e-05
0.000158057
0.000336229
6.93112e-14
5.29589e-13
3.62092e-13
1.47099e-12
3.84031e-12
8.07449e-12
1.64916e-11
3.46826e-11
6.73893e-11
1.25329e-10
2.20936e-10
4.17373e-10
7.33309e-10
1.26168e-09
2.2857e-09
4.06763e-09
6.90334e-09
9.30269e-09
1.23007e-08
6.44038e-07
6.14354e-08
1.02603e-07
7.29188e-07
5.56105e-12
4.78723e-12
4.83307e-12
3.71924e-12
4.21787e-12
7.10168e-12
1.44012e-11
2.96782e-11
6.02771e-11
1.30377e-10
2.6087e-10
5.09149e-10
8.53093e-10
1.38022e-09
2.83847e-09
4.61323e-09
6.90019e-09
7.95971e-09
8.63461e-09
9.23237e-08
1.77607e-08
2.02283e-08
1.61951e-07
1.16133e-10
9.70531e-11
6.69015e-11
4.64634e-11
3.03554e-11
2.25452e-11
1.78464e-11
2.37871e-11
4.16934e-11
8.12926e-11
1.79512e-10
3.94472e-10
8.95094e-10
1.83466e-09
2.97855e-09
5.63838e-09
1.24683e-08
9.03006e-09
8.26471e-09
1.44511e-08
9.39122e-09
1.18555e-08
1.70077e-08
1.77548e-09
1.51884e-09
1.11672e-09
7.89387e-10
5.64824e-10
4.15803e-10
2.73505e-10
1.41932e-10
7.0937e-11
6.64914e-11
9.99221e-11
2.11052e-10
5.6509e-10
1.5408e-09
2.71849e-09
3.70276e-09
6.66887e-09
1.03085e-07
2.85212e-07
1.33155e-07
1.88091e-07
3.46228e-08
1.45321e-08
3.43028e-09
3.22131e-09
2.62544e-09
2.03222e-09
1.66757e-09
1.32803e-09
1.10228e-09
7.77129e-10
4.12352e-10
1.9773e-10
1.3417e-10
1.48257e-10
2.56385e-10
7.54232e-10
1.4092e-09
9.76065e-10
6.29623e-10
3.18146e-07
1.39292e-06
1.31538e-06
3.24815e-07
3.17868e-06
2.9651e-05
3.6668e-09
3.66615e-09
3.11628e-09
2.47657e-09
2.03591e-09
1.6707e-09
1.58384e-09
1.26606e-09
8.31267e-10
5.06118e-10
3.02557e-10
2.22594e-10
2.40087e-10
4.29445e-10
6.17717e-10
6.22147e-10
6.26206e-10
3.07446e-07
1.49851e-06
1.18391e-06
2.71772e-07
2.94063e-05
4.17717e-05
0.135801
0.120443
0.0996977
0.0485684
0.032026
0.0340969
0.184949
0.30539
0.313503
0.30739
0.310332
0.308436
0.206836
0.0649563
0.069328
0.108255
0.177536
0.231654
0.222055
0.398105
0.397483
0.368691
0.312287
0.180973
0.0334365
0.0701541
0.154392
0.118105
0.0830777
0.123187
0.208551
0.183305
0.0660074
0.0657506
0.109361
0.223147
0.2318
0.222193
0.38061
0.251286
0.398617
0.548149
0.541358
0.107023
0.00666035
0.00760237
0.000963173
3.44053e-19
0.017457
0.0786348
0.182723
0.109112
0.0656331
0.132743
0.285616
0.384139
0.417142
0.0368866
0.0061009
0.0316581
0.113328
0.363789
0.621087
0.132615
0.000198199
0.000836642
5.60752e-20
0.0399233
0.121435
0.187273
0.149899
0.183134
0.278368
0.470926
0.470953
0.470708
0.00738215
0.00372387
0.00391774
0.00377356
0.24921
0.741986
0.663698
0.379081
0.0920068
1.00407e-20
0.0117942
0.151675
0.226021
0.310356
0.325786
0.325342
0.200822
0.153298
0.430646
0.0389502
0.0285435
0.0130386
0.022564
0.410048
0.742014
0.742019
0.741996
0.201555
2.69442e-20
-3.59579e-21
0.0933908
0.327518
0.325928
0.32561
0.10946
0.00196723
0.0042845
0.149345
0.0379737
0.0350119
0.0358069
0.0742763
0.609938
0.742034
0.742029
0.547554
0.0593013
2.92646e-13
9.92988e-25
0.0356985
0.267403
0.325781
0.151635
0.000207541
0.000211967
0.00338295
0.29631
0.042849
0.0342596
0.0407498
0.0661449
0.577338
0.686272
0.514253
0.0470293
1.68871e-19
1.30644e-06
7.80389e-24
0.0135508
0.228607
0.247589
0.000262616
0.000173942
0.000172759
0.0366199
0.363191
3.34069e-09
3.25477e-09
2.94155e-09
2.47238e-09
2.22632e-09
1.65322e-09
2.1555e-09
1.77565e-09
1.28133e-09
9.04082e-10
5.41519e-10
3.33401e-10
3.2439e-10
4.648e-10
6.57648e-10
1.53357e-09
5.15078e-09
1.96775e-08
2.0328e-07
2.78231e-08
1.62553e-07
4.89142e-06
2.68535e-05
8.96092e-10
7.20354e-10
6.73576e-10
7.37149e-10
7.73007e-10
6.69424e-09
4.86396e-09
2.28741e-09
2.00942e-09
1.91446e-09
1.15777e-09
3.60684e-10
3.11778e-10
3.99217e-10
6.51649e-10
1.39915e-09
2.38032e-09
2.71899e-09
7.56509e-12
7.02657e-10
1.29602e-07
6.61538e-08
-1.70596e-09
3.55925e-10
3.42273e-19
3.5593e-10
-6.34269e-19
3.55942e-10
4.43265e-08
-7.67218e-13
-1.6046e-13
-1.1895e-13
-1.04523e-13
-4.79864e-14
-5.89266e-15
-1.8304e-15
-1.29479e-15
-1.151e-15
4.06251e-28
7.66198e-20
4.4227e-19
1.75991e-20
4.15556e-20
1.16468e-17
4.32274e-06
0.0478539
0.00529834
0.106008
0.170614
0.188925
0.176108
0.0794053
0.0293577
0.0555574
0.0921245
0.113528
0.138064
0.174077
0.185626
0.168707
0.17226
0.208037
0.259723
0.314384
0.344556
0.379954
0.514066
0.731277
0.756567
0.510568
0.823161
0.891633
0.901951
0.852332
0.650548
0.613447
0.683549
0.736505
0.760052
0.794853
0.856903
0.88515
0.892446
0.872559
0.843734
0.887613
0.969207
0.972919
0.972815
0.9866
0.937438
0.897194
0.920532
0.999463
0.999475
0.998306
0.954419
0.913196
0.972074
0.999952
0.99024
0.985803
1
1
1
1
0.996304
0.995366
0.999478
1
1
0.999385
0.993645
0.98867
0.996637
0.999172
0.999185
0.999973
0.999999
1
1
1
1
1
1
1
1
1
1
1
1
1
1
1
0.999999
0.999999
0.999998
0.999998
0.999164
0.998888
0.9999
0.998718
0.989231
0.955616
0.942729
0.940743
0.929014
0.920665
0.918482
0.920916
0.924555
0.930219
0.93747
0.944045
0.94984
0.956376
0.963759
0.970016
0.974204
0.977059
0.979706
0.736557
0.760326
0.636152
0.511869
0.401781
0.346965
0.311734
0.258242
0.219219
0.202511
0.202004
0.201684
0.202984
0.209765
0.220767
0.232576
0.245226
0.262069
0.283
0.301867
0.315469
0.325906
0.339045
0.00350947
0.0743561
0.0911364
0.0223105
2.22429e-06
8.58168e-07
3.21715e-07
1.171e-07
1.09285e-07
3.60498e-08
1.25896e-10
1.00529e-19
4.03222e-18
4.4945e-19
2.31638e-17
1.16765e-17
8.01393e-17
1.58432e-16
1.19998e-16
6.27589e-17
6.72243e-27
8.64036e-25
3.97047e-25
9.90394e-07
1.0364e-06
9.84484e-07
4.04668e-07
9.41416e-07
3.54819e-07
8.70963e-08
1.85037e-10
1.87245e-10
1.85038e-10
4.41045e-09
2.18277e-08
2.89509e-08
2.40016e-08
1.96986e-08
1.6211e-08
2.14394e-08
3.38199e-08
2.2755e-08
2.66816e-08
3.41025e-08
6.00716e-08
1.31889e-07
1.05238e-06
1.19412e-06
9.29621e-07
1.57688e-07
1.18197e-07
1.57341e-07
5.92707e-07
6.13784e-06
2.14072e-05
1.96669e-05
3.58478e-09
2.29959e-07
4.00792e-08
4.46198e-08
6.47335e-08
1.05246e-07
1.94663e-07
1.65223e-07
1.46754e-07
1.28369e-07
1.08816e-07
1.33248e-07
2.04546e-07
1.07329e-06
2.03379e-06
1.4939e-05
4.2159e-05
2.33881e-05
1.78279e-07
6.09874e-07
5.87957e-05
0.000162184
0.000149696
1.03842e-05
-1.05951e-11
4.76724e-18
-3.9189e-16
2.61674e-08
1.78816e-07
2.75794e-07
2.22296e-07
1.92458e-07
1.36653e-07
1.20184e-07
9.52265e-08
1.25965e-07
1.09276e-06
4.69913e-06
3.91131e-05
5.30648e-05
5.31801e-05
2.03419e-06
8.30461e-07
8.92992e-05
0.000163777
0.000162479
0.000150445
1.21067e-06
3.74548e-28
1.38064e-10
2.26658e-08
2.43583e-07
2.74753e-07
2.72404e-07
2.4467e-07
1.65294e-07
1.171e-07
7.51535e-08
8.01993e-08
1.04414e-06
2.82523e-06
2.72974e-05
5.36203e-05
3.06491e-05
7.72918e-07
3.83878e-07
2.29439e-05
0.00014957
0.00016326
0.000158288
1.04342e-05
1.80008e-13
7.76295e-09
7.42477e-09
5.94481e-08
2.66117e-07
2.71706e-07
2.59873e-07
1.71074e-07
1.28399e-07
6.54822e-08
5.78088e-08
1.04547e-06
2.01098e-06
4.34667e-06
9.25205e-06
1.8278e-06
2.75456e-07
8.94616e-08
7.90312e-07
2.05577e-05
8.87516e-05
5.07987e-05
-7.26579e-10
8.90032e-09
4.41559e-08
1.11061e-08
6.22863e-09
5.98849e-08
2.27635e-07
2.31956e-07
1.63732e-07
1.16909e-07
7.68397e-08
4.80557e-08
7.30218e-07
1.36414e-06
9.6322e-07
2.62539e-07
1.53284e-07
7.0215e-08
7.20399e-08
1.22561e-07
4.59411e-07
5.70455e-07
1.57758e-07
1.91298e-07
4.97869e-07
1.83973e-07
5.76072e-08
6.22755e-09
6.1741e-09
6.045e-08
1.51056e-07
1.33846e-07
8.86976e-08
6.00315e-08
4.39096e-08
4.74522e-07
7.96808e-07
3.61106e-07
9.28644e-08
8.08084e-08
8.44565e-08
9.11346e-08
1.26466e-07
9.38236e-08
1.66264e-07
1.537e-07
3.48756e-07
8.40914e-07
8.21586e-07
1.16658e-07
6.22863e-09
6.78166e-09
2.10476e-08
7.08717e-08
7.53152e-08
4.81774e-08
4.42661e-08
3.29589e-08
3.40757e-07
4.83382e-07
2.83044e-07
1.12364e-07
8.3367e-08
8.2685e-08
8.59632e-08
9.93955e-08
5.66076e-08
3.80335e-08
3.87956e-08
4.84628e-07
8.38268e-07
7.51565e-07
1.69701e-07
2.17253e-08
8.32218e-09
1.07328e-08
2.76789e-08
3.24444e-08
2.8502e-08
2.22859e-08
1.81975e-08
1.74261e-07
2.63951e-07
1.73151e-07
9.52792e-08
7.36455e-08
6.70717e-08
6.41389e-08
5.99386e-08
3.84618e-08
3.08022e-08
4.26275e-08
2.48972e-07
5.82745e-07
3.50164e-07
9.09769e-08
2.91171e-08
1.11997e-08
9.48255e-09
1.28367e-08
1.50981e-08
1.34767e-08
1.1702e-08
9.24519e-09
1.07104e-07
1.47848e-07
1.11267e-07
7.56153e-08
5.92775e-08
4.77801e-08
4.24638e-08
3.5595e-08
2.77093e-08
2.95578e-08
4.54181e-08
9.69427e-08
1.29695e-07
8.66756e-08
4.54864e-08
2.13826e-08
1.10436e-08
9.02797e-09
8.72107e-09
8.98455e-09
8.54134e-09
6.66178e-09
5.47963e-09
6.59932e-08
9.89661e-08
8.37027e-08
6.27609e-08
4.82101e-08
3.46928e-08
2.83848e-08
2.29432e-08
1.97848e-08
2.23625e-08
3.0658e-08
3.78665e-08
3.06049e-08
2.61127e-08
1.87132e-08
1.27173e-08
8.89665e-09
7.41508e-09
6.57553e-09
6.0454e-09
5.29009e-09
4.51162e-09
3.6912e-09
5.02587e-08
7.89302e-08
7.2495e-08
5.53775e-08
4.00182e-08
2.75854e-08
2.07308e-08
1.61015e-08
1.36817e-08
1.43387e-08
1.65195e-08
1.62172e-08
1.30656e-08
1.05535e-08
8.83011e-09
7.39521e-09
6.07286e-09
5.20451e-09
4.46266e-09
3.94931e-09
3.47247e-09
3.00162e-09
2.55891e-09
3.85053e-08
6.56762e-08
6.23131e-08
4.92834e-08
3.55051e-08
2.33788e-08
1.65554e-08
1.18693e-08
9.28347e-09
8.35662e-09
8.07897e-09
7.13136e-09
5.85362e-09
4.99387e-09
4.48347e-09
4.08713e-09
3.55761e-09
3.1175e-09
2.65656e-09
2.3698e-09
2.12729e-09
1.84169e-09
1.56339e-09
3.06917e-08
5.00333e-08
4.98463e-08
3.92238e-08
2.7971e-08
1.96415e-08
1.29658e-08
8.8965e-09
6.3256e-09
4.95788e-09
4.1797e-09
3.53499e-09
2.99551e-09
2.65244e-09
2.41603e-09
2.18521e-09
1.93316e-09
1.66146e-09
1.44187e-09
1.27631e-09
1.10977e-09
9.80533e-10
8.62539e-10
2.12212e-08
3.48074e-08
3.44102e-08
2.87922e-08
2.22715e-08
1.54353e-08
1.01369e-08
6.49358e-09
4.28452e-09
3.01747e-09
2.29807e-09
1.82312e-09
1.53377e-09
1.35307e-09
1.22535e-09
1.10598e-09
9.58006e-10
8.30376e-10
7.0567e-10
6.21953e-10
5.40686e-10
4.72166e-10
3.97436e-10
1.52637e-08
2.30274e-08
2.3473e-08
1.81665e-08
1.42052e-08
1.07702e-08
7.49689e-09
4.64846e-09
2.903e-09
1.86864e-09
1.30323e-09
9.71872e-10
7.89007e-10
6.75124e-10
5.92381e-10
5.17699e-10
4.47505e-10
3.82946e-10
3.2458e-10
2.79973e-10
2.37297e-10
1.99785e-10
1.67722e-10
1.06966e-08
1.63965e-08
1.516e-08
1.22022e-08
9.09038e-09
6.81499e-09
4.66743e-09
2.94289e-09
1.84698e-09
1.15004e-09
7.41879e-10
5.04426e-10
3.72155e-10
2.99241e-10
2.5722e-10
2.23997e-10
1.92659e-10
1.66079e-10
1.3796e-10
1.15409e-10
9.62075e-11
7.78008e-11
6.36039e-11
6.92838e-09
1.05434e-08
9.54695e-09
7.33298e-09
5.23265e-09
3.69772e-09
2.66715e-09
1.71479e-09
1.03692e-09
6.32496e-10
3.87231e-10
2.479e-10
1.67723e-10
1.25591e-10
1.01732e-10
8.64805e-11
7.42606e-11
6.24498e-11
5.1733e-11
4.3151e-11
3.45502e-11
2.65328e-11
2.11411e-11
4.65595e-09
6.30262e-09
5.46212e-09
3.95387e-09
2.669e-09
1.87729e-09
1.29725e-09
8.49266e-10
5.28094e-10
3.14558e-10
1.86844e-10
1.13469e-10
7.15139e-11
4.91979e-11
3.69287e-11
2.98353e-11
2.49723e-11
2.12706e-11
1.74817e-11
1.42995e-11
1.12651e-11
8.37105e-12
6.48403e-12
2.80292e-09
3.52013e-09
2.80066e-09
1.90995e-09
1.21662e-09
8.21793e-10
5.56768e-10
3.66193e-10
2.29011e-10
1.37439e-10
7.9541e-11
4.55304e-11
2.74744e-11
1.77032e-11
1.22518e-11
9.37244e-12
7.66488e-12
6.35919e-12
5.26048e-12
4.21445e-12
3.10315e-12
2.29382e-12
1.72634e-12
1.5536e-09
1.77194e-09
1.28947e-09
8.28659e-10
4.99054e-10
3.19876e-10
2.08722e-10
1.35513e-10
8.46622e-11
5.01872e-11
2.89942e-11
1.67403e-11
9.47504e-12
5.65713e-12
3.73376e-12
2.72091e-12
2.14696e-12
1.76368e-12
1.39103e-12
1.08928e-12
8.22684e-13
5.66749e-13
3.99585e-13
8.07735e-10
7.75624e-10
5.36422e-10
3.26728e-10
1.82209e-10
1.08059e-10
6.87509e-11
4.42213e-11
2.7835e-11
1.62858e-11
9.2196e-12
5.26794e-12
2.89287e-12
1.65882e-12
1.02152e-12
7.04133e-13
5.33761e-13
4.26964e-13
3.33755e-13
2.51436e-13
1.74203e-13
1.21578e-13
8.09442e-14
3.4588e-10
2.95966e-10
1.86571e-10
1.06816e-10
5.68163e-11
3.21563e-11
1.97171e-11
1.29216e-11
7.87973e-12
4.73686e-12
2.67698e-12
1.46683e-12
7.68521e-13
4.17667e-13
2.44505e-13
1.65775e-13
1.20072e-13
9.09757e-14
6.86401e-14
4.99299e-14
3.39699e-14
2.20737e-14
1.3751e-14
1.25517e-10
9.81973e-11
5.72718e-11
3.12392e-11
1.63269e-11
8.50737e-12
5.2633e-12
3.23719e-12
2.0574e-12
1.189e-12
6.53195e-13
3.48587e-13
1.75552e-13
9.32788e-14
5.34021e-14
3.39882e-14
2.45506e-14
1.79747e-14
1.30236e-14
8.82774e-15
5.78172e-15
3.55803e-15
2.06842e-15
4.07461e-11
2.83092e-11
1.57685e-11
8.30749e-12
3.97786e-12
2.03401e-12
1.20776e-12
7.39521e-13
4.45659e-13
2.6065e-13
1.39561e-13
7.29397e-14
3.57496e-14
1.90588e-14
1.08466e-14
6.8575e-15
4.70122e-15
3.2619e-15
2.25944e-15
1.44003e-15
8.71259e-16
4.92867e-16
2.6498e-16
9.87429e-12
6.68722e-12
3.30406e-12
1.60483e-12
8.47083e-13
4.55151e-13
2.45799e-13
1.47007e-13
8.92029e-14
5.17876e-14
2.75966e-14
1.42614e-14
7.2395e-15
3.69046e-15
2.03961e-15
1.26261e-15
8.381e-16
5.58744e-16
3.56893e-16
2.10331e-16
1.1622e-16
5.92688e-17
3.31949e-17
1.7427e-12
9.93511e-13
5.3429e-13
3.09711e-13
1.59803e-13
7.87524e-14
4.44302e-14
2.77632e-14
1.74549e-14
1.01848e-14
5.40812e-15
2.67287e-15
1.2938e-15
6.42702e-16
3.50038e-16
2.12008e-16
1.37604e-16
8.71397e-17
5.15598e-17
2.77775e-17
1.36999e-17
6.90689e-18
6.40527e-18
2.41358e-13
1.33656e-13
8.11071e-14
4.55026e-14
2.56388e-14
1.36013e-14
7.65379e-15
4.67511e-15
2.96884e-15
1.73488e-15
9.13859e-16
4.53557e-16
2.20445e-16
1.07428e-16
5.6896e-17
3.39853e-17
2.14377e-17
1.27199e-17
6.78831e-18
3.30259e-18
1.57338e-18
1.08648e-18
2.99222e-18
1.47665e-14
1.04693e-14
8.49509e-15
5.9132e-15
3.49976e-15
1.99434e-15
1.21617e-15
7.92382e-16
5.16878e-16
3.03946e-16
1.57151e-16
7.67551e-17
3.5923e-17
1.69759e-17
8.91585e-18
5.32771e-18
3.25638e-18
1.73544e-18
8.17546e-19
3.65134e-19
2.15265e-19
4.05838e-19
2.25316e-18
1.04566e-16
2.61335e-16
5.80185e-16
5.94088e-16
4.0817e-16
2.50572e-16
1.59451e-16
1.08917e-16
7.33871e-17
4.42794e-17
2.51796e-17
1.18209e-17
5.59355e-18
2.63487e-18
1.38597e-18
8.14724e-19
4.48342e-19
2.26674e-19
1.00472e-19
4.9597e-20
6.3986e-20
2.57594e-19
1.65816e-18
8.8058e-24
1.33604e-18
2.90841e-17
6.26915e-17
5.08777e-17
3.39314e-17
2.2575e-17
1.60472e-17
1.15015e-17
7.25305e-18
3.92798e-18
1.86379e-18
8.55733e-19
4.14348e-19
2.21655e-19
1.27316e-19
6.69322e-20
3.07356e-20
1.37021e-20
1.02038e-20
2.75766e-20
1.29771e-19
8.88452e-19
2.61621e-05
1.56545e-05
3.0431e-06
3.90087e-06
-1.31194e-08
-1.0579e-19
-4.81845e-08
2.985e-06
0.117213
0.120299
0.192782
0.604858
0.78442
0.82967
0.872809
0.895543
0.936551
0.98732
0.999374
0.999665
0.999948
0.999973
0.999984
0.999975
0.999997
0.999997
0.999986
0.999982
0.984054
0.984045
0.984346
0.984287
0.361265
0.362279
0.364257
0.363329
-1.05879e-24
7.95733e-09
-1.1364e-09
6.22299e-09
1.74516e-07
1.79759e-07
1.81425e-07
1.64206e-07
2.6055e-07
2.68216e-07
2.64262e-07
2.57714e-07
1.61246e-07
1.99229e-07
1.98456e-07
1.93301e-07
8.9053e-08
1.14424e-07
1.21413e-07
1.38174e-07
5.35124e-08
6.3282e-08
7.54984e-08
8.8701e-08
3.57529e-08
3.7674e-08
4.50318e-08
4.70991e-08
2.62022e-08
1.86644e-08
2.24173e-08
2.44735e-08
2.14828e-08
1.32521e-08
1.24409e-08
1.24726e-08
1.23634e-08
8.31634e-09
7.7946e-09
6.76018e-09
7.58381e-09
5.6806e-09
4.48138e-09
3.77507e-09
4.65115e-09
3.50085e-09
3.20763e-09
2.6053e-09
3.25012e-09
2.72352e-09
2.37364e-09
2.05373e-09
2.27361e-09
1.9794e-09
1.77082e-09
1.59022e-09
1.44457e-09
1.27876e-09
1.1653e-09
1.069e-09
7.90163e-10
6.97202e-10
6.29655e-10
5.99884e-10
3.71511e-10
3.33251e-10
2.98779e-10
2.88517e-10
1.54494e-10
1.38218e-10
1.25055e-10
1.12071e-10
5.62913e-11
4.86405e-11
4.47714e-11
4.15867e-11
1.93206e-11
1.64723e-11
1.4677e-11
1.28644e-11
5.54203e-12
4.66896e-12
4.112e-12
3.69077e-12
1.44586e-12
1.24806e-12
1.08601e-12
9.10852e-13
3.26535e-13
2.69634e-13
2.35379e-13
1.90586e-13
6.58749e-14
5.28535e-14
4.19879e-14
3.29145e-14
1.05337e-14
8.42564e-15
6.68692e-15
4.96903e-15
1.55798e-15
1.1749e-15
8.71686e-16
6.56022e-16
1.93673e-16
1.49607e-16
1.22386e-16
1.12653e-16
2.70444e-17
2.62677e-17
3.23354e-17
5.21647e-17
7.79431e-18
1.13336e-17
2.12422e-17
5.09269e-17
4.83273e-18
9.05817e-18
2.34143e-17
6.97753e-17
4.02305e-18
9.63345e-18
3.13665e-17
1.01921e-16
3.36846e-18
1.06964e-17
3.84038e-17
1.24991e-16
2.64128e-18
9.29731e-18
3.16256e-17
9.59083e-17
0.11977
0.144446
0.0391331
0.038822
0.41811
0.518978
0.0678126
-2.38659e-19
-3.20353e-21
-9.56028e-25
-1.0957e-09
0.000618283
0.0126931
0.0111939
0.000265427
0.000172963
0.000173987
0.0477827
0.308499
0.264179
0.228758
0.0414314
0.046849
0.624519
0.412709
0.0403629
0.0324303
0.0576405
0.0214206
-1.20999e-19
8.32657e-05
0.00049926
0.001962
0.0117893
0.0548616
0.121298
0.200443
0.183066
0.690272
0.650383
0.652035
0.756278
0.828587
0.592901
0.414291
0.595821
0.782404
0.755023
0.669539
0.578208
0.485218
0.491011
0.561848
0.676254
0.76495
0.825854
0.861941
0.922098
0.972843
0.997386
0.998326
0.953873
0.828982
0.851358
0.960171
0.999818
0.999991
0.999984
0.999542
0.997423
0.996997
0.999734
0.99972
0.999788
0.989639
0.972934
0.999865
0.999968
0.999968
0.99788
0.994577
0.987245
0.993541
0.999833
0.999996
0.999993
0.999996
1
1
0.999997
0.999817
0.999772
0.999804
0.999873
0.999791
0.99997
0.999977
0.999867
0.999687
0.999998
1
1
1
1
0.999999
0.999999
1
1
0.999999
0.999988
0.999972
0.999979
0.999984
0.999975
0.999993
0.999995
0.999993
1
1
1
1
1
1
1
1
0.999996
0.999947
0.999891
0.999537
0.997651
0.996982
0.998357
0.998651
0.982817
0.98476
0.986702
0.98841
0.988941
0.987424
0.979514
0.958554
0.924853
0.885072
0.848166
0.817029
0.768954
0.683086
0.601222
0.609471
0.672406
0.808155
0.935693
0.352606
0.356641
0.357059
0.351112
0.334564
0.300953
0.253707
0.202959
0.154021
0.107931
0.0665598
0.0297213
0.0304878
0.0261802
0.0141864
0.0140023
0.0287818
0.0983317
0.233577
4.17591e-09
7.68134e-16
1.44337e-27
-2.34026e-24
-1.61772e-22
-1.01591e-21
2.39084e-21
4.43782e-23
1.89913e-22
-2.93842e-24
-2.32956e-15
2.32957e-15
-3.55457e-06
-1.48753e-06
-5.45541e-08
7.02785e-08
-5.11447e-10
-8.78242e-10
-1.51389e-19
1.19011e-07
1.17041e-07
3.23656e-11
7.2745e-05
0.000357878
0.000495504
0.000375984
8.57977e-05
2.05123e-10
6.08613e-06
0.000437032
0.000940424
0.000941513
0.000228299
1.08348e-06
2.79525e-07
1.1779e-07
4.20774e-08
3.24346e-10
2.85051e-07
4.67593e-07
5.88666e-07
0.00032336
0.000977634
0.000977197
0.000977634
0.000108598
4.82538e-07
9.66513e-05
0.00081334
0.000848362
0.000165102
4.40676e-05
5.91687e-07
4.35008e-07
3.7599e-07
2.8267e-07
1.34837e-07
2.21373e-07
3.41941e-07
8.37846e-07
1.90565e-05
0.000380028
0.000688593
0.000267685
2.68843e-07
2.24999e-07
1.51007e-07
1.50954e-07
1.62045e-05
2.36561e-07
2.32563e-07
3.26345e-07
4.47089e-07
4.40375e-07
4.58157e-07
4.38335e-07
1.67874e-07
2.28125e-07
2.25982e-07
1.25501e-07
1.25021e-07
1.29848e-07
3.64231e-07
3.38449e-06
3.91538e-06
2.24851e-07
1.90763e-07
2.00796e-07
2.34902e-07
2.22337e-07
2.80109e-07
3.25462e-07
3.45215e-07
4.17056e-07
4.73524e-07
9.45468e-08
1.21261e-07
1.23146e-07
1.23518e-07
1.3417e-07
1.51852e-07
1.59237e-07
1.63361e-07
2.44875e-07
3.4334e-07
4.12349e-07
3.74743e-07
3.05387e-07
2.1497e-07
1.70717e-07
1.70623e-07
1.91985e-07
2.40496e-07
2.59092e-07
5.2096e-08
6.74914e-08
9.39441e-08
1.29999e-07
2.09542e-07
2.96923e-07
2.89518e-07
2.28491e-07
1.68868e-07
1.74406e-07
2.59219e-07
3.35472e-07
3.05544e-07
2.0586e-07
9.14101e-08
7.31491e-08
7.30955e-08
8.42362e-08
6.93818e-08
2.72454e-08
3.2401e-08
4.23395e-08
5.77564e-08
1.11228e-07
2.00494e-07
2.78401e-07
2.54813e-07
1.76151e-07
9.70905e-08
8.42212e-08
1.40824e-07
1.61199e-07
1.02097e-07
5.4089e-08
3.25698e-08
3.1064e-08
2.44373e-08
1.8353e-08
1.29503e-08
1.66741e-08
1.95841e-08
2.18332e-08
2.75042e-08
4.26498e-08
6.59826e-08
8.99536e-08
7.05883e-08
4.14324e-08
3.23919e-08
3.0364e-08
3.81948e-08
3.26477e-08
2.2495e-08
1.95342e-08
1.74838e-08
1.45226e-08
1.40403e-08
6.15753e-09
6.44173e-09
9.56419e-09
1.16429e-08
1.30617e-08
1.25826e-08
1.05791e-08
9.93403e-09
1.15673e-08
1.54104e-08
1.8025e-08
1.56325e-08
1.20207e-08
1.15771e-08
1.20564e-08
1.31613e-08
1.31963e-08
1.45549e-08
1.5683e-08
3.15834e-09
2.87763e-09
3.84655e-09
5.20869e-09
6.6018e-09
7.96149e-09
8.64142e-09
8.73214e-09
9.05147e-09
1.00606e-08
1.06125e-08
1.00481e-08
8.49608e-09
7.98461e-09
8.73193e-09
1.06115e-08
1.28426e-08
1.75281e-08
1.79839e-08
2.09176e-09
1.74739e-09
1.68061e-09
2.10162e-09
2.73007e-09
3.34431e-09
3.91469e-09
4.38832e-09
4.93525e-09
5.15368e-09
5.07198e-09
4.91121e-09
4.82581e-09
5.18492e-09
6.35533e-09
8.76478e-09
1.36873e-08
2.06426e-08
2.90332e-08
1.60536e-09
1.29849e-09
1.12661e-09
1.07224e-09
1.07367e-09
1.27236e-09
1.50001e-09
1.77488e-09
1.99897e-09
2.11816e-09
2.16209e-09
2.2361e-09
2.56609e-09
3.37268e-09
4.74227e-09
7.82298e-09
1.58887e-08
3.65793e-08
3.29659e-08
1.26206e-09
1.00255e-09
8.19908e-10
6.7516e-10
6.0438e-10
5.74417e-10
6.08759e-10
7.02887e-10
8.13456e-10
9.30598e-10
1.09673e-09
1.35585e-09
1.79621e-09
2.56617e-09
4.04913e-09
7.47332e-09
1.90067e-08
4.40189e-08
6.68729e-08
8.67819e-10
6.925e-10
5.65586e-10
4.50095e-10
3.56408e-10
2.97967e-10
2.69858e-10
2.82932e-10
3.40895e-10
4.46483e-10
6.10413e-10
8.65307e-10
1.31947e-09
2.11549e-09
3.65998e-09
7.74915e-09
2.13426e-08
7.49125e-08
7.64775e-08
4.9409e-10
4.04496e-10
3.3035e-10
2.57177e-10
2.0063e-10
1.56392e-10
1.39211e-10
1.43113e-10
1.79612e-10
2.58718e-10
4.05453e-10
6.52816e-10
1.0976e-09
1.87786e-09
3.47503e-09
7.74883e-09
2.47551e-08
7.69224e-08
8.41482e-08
2.31429e-10
1.91683e-10
1.55648e-10
1.21798e-10
9.46642e-11
7.47842e-11
6.90145e-11
7.9319e-11
1.1135e-10
1.80959e-10
3.11043e-10
5.54981e-10
9.91095e-10
1.77034e-09
3.35249e-09
8.03933e-09
2.79534e-08
8.94815e-08
7.97698e-08
9.2458e-11
7.47363e-11
5.95831e-11
4.63083e-11
3.61652e-11
3.10926e-11
3.35123e-11
4.67478e-11
7.76775e-11
1.42075e-10
2.67702e-10
5.08611e-10
9.47893e-10
1.72207e-09
3.32661e-09
8.44102e-09
3.2527e-08
8.95842e-08
6.43729e-08
3.17774e-11
2.45009e-11
1.90468e-11
1.45963e-11
1.21054e-11
1.24935e-11
1.7611e-11
3.05698e-11
6.15378e-11
1.22638e-10
2.4702e-10
4.93161e-10
9.46853e-10
1.75496e-09
3.32897e-09
9.19118e-09
3.68193e-08
9.59657e-08
4.64403e-08
9.53067e-12
7.06796e-12
5.11613e-12
3.97314e-12
3.94933e-12
5.85166e-12
1.12899e-11
2.37401e-11
5.26836e-11
1.13318e-10
2.39803e-10
5.00526e-10
9.89628e-10
1.84755e-09
3.43937e-09
9.63032e-09
4.26313e-08
9.60475e-08
4.58906e-08
2.5656e-12
1.78122e-12
1.26532e-12
1.16813e-12
1.73736e-12
3.72474e-12
8.66788e-12
2.06932e-11
4.75324e-11
1.09419e-10
2.43228e-10
5.24765e-10
1.06315e-09
1.97446e-09
3.64918e-09
1.04479e-08
4.51297e-08
9.59289e-08
2.61881e-08
5.93655e-13
3.76094e-13
3.02795e-13
4.59505e-13
1.10722e-12
2.9123e-12
7.5506e-12
1.88711e-11
4.58349e-11
1.10334e-10
2.55824e-10
5.6014e-10
1.15448e-09
2.19218e-09
3.9597e-09
1.05053e-08
4.45552e-08
6.86446e-08
2.23724e-08
1.16056e-13
7.8414e-14
1.04016e-13
2.85974e-13
8.86811e-13
2.53147e-12
6.96137e-12
1.80314e-11
4.52958e-11
1.15115e-10
2.7403e-10
6.12414e-10
1.2812e-09
2.45149e-09
4.31382e-09
1.19497e-08
3.43757e-08
5.10602e-08
7.75958e-09
1.9536e-14
2.00699e-14
6.10472e-14
2.33114e-13
7.73013e-13
2.32197e-12
6.5751e-12
1.79982e-11
4.7443e-11
1.21212e-10
2.96952e-10
6.71546e-10
1.39724e-09
2.67525e-09
4.6089e-09
1.1873e-08
2.70385e-08
7.39964e-09
6.58915e-09
3.77177e-15
1.13596e-14
5.3167e-14
2.15195e-13
7.20078e-13
2.26114e-12
6.66577e-12
1.86403e-11
4.98182e-11
1.28668e-10
3.17708e-10
7.17437e-10
1.5021e-09
2.78434e-09
4.79016e-09
1.13533e-08
1.43719e-08
1.19505e-08
2.3757e-09
1.59323e-15
1.0541e-14
5.18029e-14
2.05378e-13
7.09828e-13
2.26581e-12
6.7785e-12
1.93447e-11
5.23739e-11
1.3523e-10
3.31494e-10
7.45876e-10
1.52808e-09
2.81135e-09
4.81289e-09
9.06808e-09
1.00979e-08
3.93956e-09
2.10244e-09
1.40311e-15
1.03677e-14
4.96752e-14
2.01919e-13
6.98719e-13
2.28421e-12
6.86351e-12
1.93144e-11
5.26701e-11
1.35485e-10
3.30764e-10
7.30926e-10
1.48457e-09
2.67536e-09
4.23908e-09
6.85727e-09
5.30278e-09
3.50088e-09
7.92094e-10
1.47135e-15
1.0234e-14
4.80647e-14
1.94727e-13
6.71789e-13
2.19087e-12
6.526e-12
1.84664e-11
4.94663e-11
1.2644e-10
3.04974e-10
6.65067e-10
1.32347e-09
2.35551e-09
3.48739e-09
4.91409e-09
3.69025e-09
1.20977e-09
5.47065e-10
1.53812e-15
1.00225e-14
4.52083e-14
1.76795e-13
6.07131e-13
1.9197e-12
5.73694e-12
1.59462e-11
4.23764e-11
1.07736e-10
2.56203e-10
5.55235e-10
1.08857e-09
1.85083e-09
2.66181e-09
2.9433e-09
1.84411e-09
8.01391e-10
2.31854e-10
1.60787e-15
8.92271e-15
3.85739e-14
1.42667e-13
4.79383e-13
1.49107e-12
4.35075e-12
1.20608e-11
3.18301e-11
8.04691e-11
1.9108e-10
4.07936e-10
7.831e-10
1.32724e-09
1.70279e-09
1.82666e-09
1.05828e-09
2.999e-10
1.46603e-10
1.43943e-15
6.99168e-15
2.73137e-14
9.35511e-14
3.01033e-13
8.95319e-13
2.60805e-12
7.33786e-12
1.95987e-11
5.04212e-11
1.21136e-10
2.61091e-10
5.02503e-10
8.32361e-10
1.02655e-09
1.00813e-09
4.59339e-10
1.64014e-10
7.66065e-11
9.81928e-16
4.04792e-15
1.4249e-14
4.52808e-14
1.40857e-13
4.27791e-13
1.25711e-12
3.59507e-12
9.90173e-12
2.60487e-11
6.36648e-11
1.39296e-10
2.63408e-10
4.43638e-10
5.49204e-10
4.71559e-10
1.84864e-10
7.37392e-11
2.86676e-11
3.61473e-16
1.22567e-15
3.79865e-15
1.11544e-14
3.66829e-14
1.21979e-13
3.79747e-13
1.1097e-12
3.1799e-12
8.64116e-12
2.1904e-11
5.03252e-11
9.62593e-11
1.59453e-10
1.89175e-10
1.43217e-10
5.69754e-11
1.71932e-11
1.74229e-12
)
;

boundaryField
{
    leftWall
    {
        type            alphaContactAngle;
        contactAngleProperties 
        {
            mercury         
            {
                theta0          90;
            }
            air             
            {
                theta0          90;
            }
            water           
            {
                theta0          90;
            }
        }
        value           nonuniform List<scalar> 
50
(
1.42997e-14
1.62549e-14
6.93112e-14
5.56105e-12
1.16133e-10
1.77548e-09
3.43028e-09
3.6668e-09
3.34069e-09
8.96092e-10
3.55925e-10
0.00529834
0.510568
0.920532
0.999172
0.999164
0.736557
0.00350947
9.90394e-07
1.05238e-06
1.07329e-06
1.09276e-06
1.04414e-06
1.04547e-06
7.30218e-07
4.74522e-07
3.40757e-07
1.74261e-07
1.07104e-07
6.59932e-08
5.02587e-08
3.85053e-08
3.06917e-08
2.12212e-08
1.52637e-08
1.06966e-08
6.92838e-09
4.65595e-09
2.80292e-09
1.5536e-09
8.07735e-10
3.4588e-10
1.25517e-10
4.07461e-11
9.87429e-12
1.7427e-12
2.41358e-13
1.47665e-14
1.04566e-16
8.8058e-24
)
;
    }
    rightWall
    {
        type            alphaContactAngle;
        contactAngleProperties 
        {
            mercury         
            {
                theta0          90;
            }
            air             
            {
                theta0          90;
            }
            water           
            {
                theta0          90;
            }
        }
        value           nonuniform List<scalar> 
50
(
0.222055
0.222193
0.417142
0.470708
0.430646
0.149345
0.29631
0.363191
0.308499
0.183066
0.861941
0.972934
0.999791
0.999975
0.998651
0.935693
0.233577
-1.51389e-19
3.24346e-10
1.34837e-07
4.38335e-07
4.73524e-07
2.59092e-07
6.93818e-08
1.8353e-08
1.40403e-08
1.5683e-08
1.79839e-08
2.90332e-08
3.29659e-08
6.68729e-08
7.64775e-08
8.41482e-08
7.97698e-08
6.43729e-08
4.64403e-08
4.58906e-08
2.61881e-08
2.23724e-08
7.75958e-09
6.58915e-09
2.3757e-09
2.10244e-09
7.92094e-10
5.47065e-10
2.31854e-10
1.46603e-10
7.66065e-11
2.86676e-11
1.74229e-12
)
;
    }
    lowerWall
    {
        type            alphaContactAngle;
        contactAngleProperties 
        {
            mercury         
            {
                theta0          90;
            }
            air             
            {
                theta0          90;
            }
            water           
            {
                theta0          90;
            }
        }
        value           nonuniform List<scalar> 
62
(
1.42997e-14
9.38608e-14
4.77457e-13
1.55424e-12
3.93458e-12
8.3116e-12
1.63523e-11
2.99936e-11
5.42238e-11
9.71987e-11
1.73938e-10
3.10775e-10
5.64246e-10
9.50152e-10
2.00863e-09
3.95867e-09
7.57001e-09
9.44065e-09
9.79562e-09
1.00234e-08
0.000331353
0.000567048
0.0005671
0.0005671
0.000336229
7.29188e-07
1.61951e-07
1.70077e-08
1.45321e-08
2.9651e-05
4.17717e-05
2.61621e-05
1.56545e-05
3.0431e-06
3.90087e-06
0.135801
0.398105
0.38061
0.0368866
0.00738215
0.0389502
0.0379737
0.042849
0.135801
0.120443
0.0996977
0.0485684
0.032026
0.0340969
0.184949
0.30539
0.313503
0.30739
0.310332
0.308436
0.206836
0.0649563
0.069328
0.108255
0.177536
0.231654
0.222055
)
;
    }
    atmosphere
    {
        type            inletOutlet;
        inletValue      uniform 0;
        value           nonuniform List<scalar> 
46
(
0
0
0
6.26915e-17
5.08777e-17
3.39314e-17
2.2575e-17
1.60472e-17
1.15015e-17
7.25305e-18
3.92798e-18
1.86379e-18
0
0
0
0
0
0
0
0
0
0
0
0
0
0
0
0
0
0
0
0
1.21979e-13
3.79747e-13
1.1097e-12
3.1799e-12
8.64116e-12
2.1904e-11
5.03252e-11
9.62592e-11
1.59453e-10
1.89175e-10
1.43217e-10
5.69753e-11
0
1.74229e-12
)
;
    }
    defaultFaces
    {
        type            empty;
    }
}


// ************************************************************************* //
