/*--------------------------------*- C++ -*----------------------------------*\
  =========                 |
  \\      /  F ield         | OpenFOAM: The Open Source CFD Toolbox
   \\    /   O peration     | Website:  https://openfoam.org
    \\  /    A nd           | Version:  13
     \\/     M anipulation  |
\*---------------------------------------------------------------------------*/
FoamFile
{
    format      ascii;
    class       volScalarField;
    location    "2.5";
    object      alphas;
}
// * * * * * * * * * * * * * * * * * * * * * * * * * * * * * * * * * * * * * //

dimensions      [];

internalField   nonuniform List<scalar> 
2268
(
2
2
2
2
2
2
2
2
2
2
2
2
2
2
2
2
2
2
2
2
1.99967
1.99943
1.99943
2
2
2
2
2
2
2
2
2
2
2
2
2
2
2
2
2
2
2
2
1.99995
1.99984
1.99966
2
2
2
2
2
2
2
2
2
2
2
2
2
2
2
2
2
2
2
2
2
2
2
2
2
2
2
2
2
2
2
2
2
2
2
2
2
2
2
2
2
2
2
2
2
2
1.99493
1.99724
1.9995
2
2
2
2
2
2
2
2
2
2
2
2
2
2
2
2
2
2
2
2
0.95731
1.01804
1.10175
1.18979
1.28648
1.38298
1.47453
1.57227
1.67231
1.76954
1.85711
1.92755
1.97475
1.99686
2
2
2
2
2
2
2
2
2
2.80292e-08
4.71061e-08
1.10554e-07
3.37765e-06
6.9967e-06
0.0143554
0.0526987
0.105026
0.176876
0.274542
0.404908
0.573855
0.783351
1.02949
1.26963
1.47952
1.65923
1.80432
1.91627
1.99975
2.00001
2.00018
2.00054
6.90688e-08
1.06614e-07
7.51078e-07
4.56273e-06
1.19324e-05
5.02291e-06
1.52996e-06
3.89001e-07
9.52295e-08
3.1051e-08
1.7364e-08
1.12697e-08
6.27377e-09
4.36163e-09
0.0288138
0.104715
0.21138
0.348527
0.513385
0.696726
0.931473
1.18388
1.56017
1.84307
1.85842
1.86279
1.8605
1.8862
1.93267
1.8698
1.75226
1.73155
1.73675
1.73745
1.7536
1.67917
1.75518
1.73592
1.65793
1.72309
1.77675
1.76711
1.44428
1.4475
1.52431
1.58981
1.71476
1.74284
1.83193
1.87961
1.87297
1.91624
1.93351
1.84288
1.80137
1.86211
1.86117
1.83666
1.77547
1.77709
1.76689
0.723347
0.595507
0.770503
1.06766
1.25177
1.18855
1.20672
1.41204
1.527
2.007
2.2095
2.10689
1.94875
2.1046
2.21041
2.04031
1.75704
1.62869
1.59455
0.340253
0.322536
0.36816
0.476177
0.667621
0.812348
0.517254
0.408491
0.390573
1.13231
2.36411
2.44999
2.34959
2.42157
2.38773
2.25326
1.80784
1.661
1.7089
0.238496
0.239933
0.239715
0.282154
0.506329
0.833033
0.729589
0.483578
0.208892
0.171594
1.38371
2.17505
2.34328
2.24871
2.07422
1.22771
1.10877
1.0321
1.69318
0.250001
0.258433
0.240922
0.220457
0.673022
0.932228
0.941615
0.930796
0.347595
0.023092
0.139672
1.76466
2.04751
2.01375
0.707883
0.10947
0.00197728
0.00429471
1.23176
0.252207
0.26879
0.266508
0.172944
0.823688
1.08254
1.08854
0.897942
0.200364
0.0177673
0.0012482
0.348983
1.96014
1.34519
0.151644
0.000255458
0.000260408
0.00339314
0.991296
0.234807
0.276455
0.25753
0.208594
0.922997
1.20249
1.07181
0.29687
0.00585438
0.00360885
0.000936764
0.0137734
0.792198
0.555939
0.000272983
0.000337724
0.00047532
0.036631
0.587593
2.36071e-07
2.87235e-07
1.26367e-06
0.000112435
4.34587e-05
5.92726e-06
9.81315e-07
4.10045e-07
1.82128e-07
1.27582e-07
1.06483e-07
7.74247e-08
3.44773e-08
1.60644e-08
1.15354e-07
2.49194e-07
3.51866e-07
4.39145e-07
1.10895e-06
1.33513e-05
0.0016467
0.0121307
0.0675425
1.02676e-06
2.49026e-05
0.00278842
0.00143973
9.16775e-05
2.29356e-06
1.74542e-06
9.59569e-07
7.36023e-07
6.50889e-07
5.84437e-07
4.79097e-07
3.52946e-07
2.27501e-07
7.33141e-08
8.53775e-09
3.12237e-08
7.14357e-08
1.26732e-08
-2.31855e-07
6.40699e-07
0.000122382
0.000918184
0.13627
0.0450884
0.00700096
0.00102835
1.85745e-05
2.20048e-06
0.00254546
0.00528056
0.00590598
0.00590333
0.00668034
0.013591
0.0298329
0.0359571
0.0219325
0.00712302
0.00361505
0.00442978
0.034608
0.136698
0.231521
0.242964
0.218772
0.376302
0.206943
0.171418
0.188991
0.176129
0.218712
0.370651
0.426195
0.453061
0.479715
0.507501
0.546373
0.60791
0.634532
0.638089
0.673862
0.714647
0.764189
0.803942
0.840882
0.84971
0.926071
1.14885
0.883074
0.865014
0.891813
0.902287
0.904908
1.12862
1.18694
1.25343
1.29507
1.32405
1.35351
1.28619
1.2297
1.21511
1.25488
1.29869
1.2041
1.05318
1.04857
1.05186
1.02679
1.12512
1.2056
1.15882
0.999684
1.00105
1.00339
1.09116
1.17361
1.05585
1.0001
1.01952
1.02839
1
1
1
1
1.00739
1.00927
1.00104
1
1
1.00123
1.01271
1.02265
1.00666
1.00151
0.999185
0.999972
0.999999
1
1
1
1
1
1
1
1
1
1
1
1
1
1
1
1
1
1
0.999999
1.00158
0.998889
0.999901
1.00256
1.02154
1.08877
1.11454
1.11851
1.14197
1.15867
1.16304
1.15817
1.15089
1.13956
1.12506
1.11191
1.10032
1.08725
1.07248
1.05997
1.05159
1.04588
1.04058
1.52689
1.47801
1.7273
1.97626
2.19644
2.30607
2.37653
2.48352
2.56156
2.59498
2.59599
2.59663
2.59403
2.58047
2.55847
2.53485
2.50955
2.47586
2.434
2.39627
2.36906
2.34819
2.32191
2.99298
2.85129
2.8177
2.95537
3
3
3
3
3
3
3
3
3
3
3
3
3
3
3
3
3
3
3
3
3
2.99999
3
3
3
3
3
3
3
3
3
3
3
3
3
3
3
3
3
3
3
3
3
2.99999
2.99999
2.99999
3
3
3
2.99999
2.99996
2.99996
3
3
3
3
3
3
3
3
3
3
3
3
3
3
2.99999
2.99996
2.9999
2.99995
3
3
2.99988
2.99967
2.99969
2.99997
3
3
3
3
3
3
3
3
3
3
3
3
3
2.99999
2.99991
2.99988
2.99988
3
3
2.99982
2.99967
2.99967
2.99969
2.99999
2.99999
3
3
3
3
3
3
3
3
3
3
3
2.99999
2.99994
2.99989
2.99993
3
3
2.99995
2.9997
2.99967
2.99968
2.99997
2.99999
2.99999
2.99999
3
3
3
3
3
3
3
3
3
3
2.99999
2.99998
3
3
3
3
2.99996
2.99982
2.9999
2.99999
2.99999
2.99999
2.99999
3
3
3
3
3
3
3
3
3
3
3
3
3
3
3
3
3
3
3
3
3
2.99999
3
3
3
3
3
3
3
3
3
3
3
3
3
3
3
3
3
3
3
3
3
3
3
3
3
3
3
3
3
3
3
3
3
3
3
3
3
3
3
3
3
3
3
3
3
3
3
3
3
3
3
3
3
3
3
3
3
3
3
3
3
3
3
3
3
3
3
3
3
3
3
3
3
3
3
3
3
3
3
3
3
3
3
3
3
3
3
3
3
3
3
3
3
3
3
3
3
3
3
3
3
3
3
3
3
3
3
3
3
3
3
3
3
3
3
3
3
3
3
3
3
3
3
3
3
3
3
3
3
3
3
3
3
3
3
3
3
3
3
3
3
3
3
3
3
3
3
3
3
3
3
3
3
3
3
3
3
3
3
3
3
3
3
3
3
3
3
3
3
3
3
3
3
3
3
3
3
3
3
3
3
3
3
3
3
3
3
3
3
3
3
3
3
3
3
3
3
3
3
3
3
3
3
3
3
3
3
3
3
3
3
3
3
3
3
3
3
3
3
3
3
3
3
3
3
3
3
3
3
3
3
3
3
3
3
3
3
3
3
3
3
3
3
3
3
3
3
3
3
3
3
3
3
3
3
3
3
3
3
3
3
3
3
3
3
3
3
3
3
3
3
3
3
3
3
3
3
3
3
3
3
3
3
3
3
3
3
3
3
3
3
3
3
3
3
3
3
3
3
3
3
3
3
3
3
3
3
3
3
3
3
3
3
3
3
3
3
3
3
3
3
3
3
3
3
3
3
3
3
3
3
3
3
3
3
3
3
3
3
3
3
3
3
3
3
3
3
3
3
3
3
3
3
3
3
3
3
3
3
3
3
3
3
3
3
3
3
3
3
3
3
3
3
3
3
3
3
3
3
3
3
3
3
3
3
3
3
3
3
3
3
3
3
3
3
3
3
3
3
3
3
3
3
3
3
3
3
3
3
3
3
3
3
3
3
3
3
3
3
3
3
3
3
3
3
3
3
3
3
3
3
3
3
3
3
3
3
3
3
3
3
3
3
3
3
3
3
3
3
3
3
3
3
3
3
3
3
3
3
3
3
3
3
3
3
3
3
3
3
3
3
3
3
3
3
3
3
3
3
3
3
3
3
3
3
3
3
3
3
3
3
3
3
3
3
3
3
3
3
3
3
3
3
3
3
3
3
3
3
3
3
3
3
3
3
3
3
3
3
3
3
3
3
3
3
3
3
3
3
3
3
3
3
3
3
3
3
3
3
3
3
3
3
3
3
3
3
3
3
3
3
3
3
3
3
3
3
3
3
3
3
3
3
3
3
3
3
3
3
3
3
3
3
3
3
3
3
3
3
3
3
3
3
3
0.0197546
3.58282e-05
2.28518e-05
2.24428e-05
0.00616418
0.0113907
0.0116782
0.000122743
0.1379
0.172366
0.694093
1.14049
1.20318
1.24807
1.22384
1.17537
1.12684
1.02436
1.00042
1.00041
0.999986
1.00001
1
1
0.999999
0.999997
0.999986
0.999982
1.03188
1.0319
1.0313
1.03142
2.27747
2.27544
2.27149
2.27334
3
3
3
3
3
3
3
3
3
3
3
3
3
3
3
3
3
3
3
3
3
3
3
3
3
3
3
3
3
3
3
3
3
3
3
3
3
3
3
3
3
3
3
3
3
3
3
3
3
3
3
3
3
3
3
3
3
3
3
3
3
3
3
3
3
3
3
3
3
3
3
3
3
3
3
3
3
3
3
3
3
3
3
3
3
3
3
3
3
3
3
3
3
3
3
3
3
3
3
3
3
3
3
3
3
3
3
3
3
3
3
3
3
3
3
3
3
3
3
3
3
3
3
3
3
3
3
3
3
3
3
3
0.209669
0.555774
0.261172
0.407362
1.02688
1.15812
0.420342
0.0106974
0.0056263
0.00237532
0.00112789
0.00101627
0.0128199
0.0112359
0.000337725
0.00043064
0.0104475
0.0828217
0.339628
0.449299
0.776995
0.575045
0.597153
1.21372
0.973462
0.566519
0.210366
0.0704946
0.0239972
0.00250609
0.00306598
0.00227772
0.00262666
0.0123073
0.055207
0.142254
0.383826
0.323818
1.22787
1.17953
0.988501
1.05058
1.30128
1.13545
0.957036
0.948216
0.798661
0.755353
0.670606
0.581063
0.48771
0.492263
0.562344
0.676637
0.772626
1.02285
1.0596
1.14155
1.05427
1.00512
1.00327
1.05996
1.28952
1.28133
1.07953
1.00031
1.00001
1.00003
0.999734
0.997643
0.99736
1.00047
1.00049
1.00037
1.0187
1.04814
1.00012
1.00002
1.00006
1.00414
1.00518
1.0255
1.01291
1.00033
1.00001
1.00001
1.00001
1
1
0.999999
1.00035
1.00044
1.00034
1.00004
0.999837
1.00001
1.00001
1.00027
1.00058
1
1
1
1
1
1
1
1
1
1
1.00002
1.00006
1.00004
1
1.00002
0.999993
1.00001
1.00001
1
1
1
1
1
1
1
1
0.999997
0.999959
0.999924
0.999664
0.99873
0.998821
0.999225
0.99879
1.03436
1.03048
1.0266
1.02318
1.02212
1.02515
1.04097
1.08289
1.15029
1.22986
1.30367
1.36594
1.46209
1.62716
1.76711
1.7487
1.62283
1.35288
1.10421
2.29479
2.28672
2.28588
2.29778
2.33087
2.39809
2.49258
2.59408
2.69192
2.78389
2.86677
2.94056
2.93802
2.93674
2.95196
2.94889
2.91794
2.77955
2.50856
3
3
3
3
3
2.99999
2.99997
2.99994
2.9998
2.99936
2.9987
2.99869
2.999
2.99903
2.99978
2.9995
2.99919
2.99901
2.99589
3
3
3
2.99985
2.99928
2.999
2.99923
2.99975
2.99989
2.99989
2.9991
2.99805
2.9981
2.99954
3
3
3
2.99999
3
3
3
3
2.99935
2.99804
2.99805
2.99804
2.99978
3
2.99981
2.99837
2.9983
2.99967
2.99991
3
3
3
3
3
3
3
3
2.99996
2.99924
2.99862
2.99946
3
3
3
3
2.99997
3
3
3
3
3
3
3
3
3
3
3
3
3
3
2.99999
2.99999
3
3
3
3
3
3
3
3
3
3
3
3
3
3
3
3
3
3
3
3
3
3
3
3
3
3
3
3
3
3
3
3
3
3
3
3
3
3
3
3
3
3
3
3
3
3
3
3
3
3
3
3
3
3
3
3
3
3
3
3
3
3
3
3
3
3
3
3
3
3
3
3
3
3
3
3
3
3
3
3
3
3
3
3
3
3
3
3
3
3
3
3
3
3
3
3
3
3
3
3
3
3
3
3
3
3
3
3
3
3
3
3
3
3
3
3
3
3
3
3
3
3
3
3
3
3
3
3
3
3
3
3
3
3
3
3
3
3
3
3
3
3
3
3
3
3
3
3
3
3
3
3
3
3
3
3
3
3
3
3
3
3
3
3
3
3
3
3
3
3
3
3
3
3
3
3
3
3
3
3
3
3
3
3
3
3
3
3
3
3
3
3
3
3
3
3
3
3
3
3
3
3
3
3
3
3
3
3
3
3
3
3
3
3
3
3
3
3
3
3
3
3
3
3
3
3
3
3
3
3
3
3
3
3
3
3
3
3
3
3
3
3
3
3
3
3
3
3
3
3
3
3
3
3
3
3
3
3
3
3
3
3
3
3
3
3
3
3
3
3
3
3
3
3
3
3
3
3
3
3
3
3
3
3
3
3
3
3
3
3
3
3
3
3
3
3
3
3
3
3
3
3
3
3
3
3
3
3
3
3
3
3
3
3
3
3
3
3
3
3
3
3
3
3
3
3
3
3
3
3
3
3
3
3
3
3
3
3
3
3
3
3
3
3
3
3
3
3
3
3
3
3
3
3
3
3
3
3
3
3
3
3
3
3
3
3
3
3
3
3
3
3
3
3
3
3
3
3
3
3
3
3
3
3
3
3
3
3
3
3
3
3
3
3
3
3
3
3
3
3
3
3
3
3
3
3
3
3
3
3
3
3
3
3
3
3
3
3
3
3
3
3
3
3
3
3
3
3
3
3
3
3
3
3
3
3
3
3
3
3
3
3
3
3
3
3
3
3
3
3
3
3
3
3
3
3
3
3
3
3
3
3
3
3
3
3
3
3
3
3
3
3
3
3
3
3
3
3
3
3
3
3
3
3
3
3
3
3
3
3
3
3
3
3
3
3
3
3
3
3
3
3
3
3
3
3
3
3
3
3
3
3
3
3
3
3
3
3
3
3
3
3
3
3
3
3
3
3
3
3
3
3
3
3
3
3
3
3
3
3
3
3
)
;

boundaryField
{
    leftWall
    {
        type            calculated;
        value           nonuniform List<scalar> 
50
(
2
2
2
2
1.99493
0.95731
2.80292e-08
6.90688e-08
2.36071e-07
1.02676e-06
0.13627
0.376302
0.883074
1.15882
1.00151
1.00158
1.52689
2.99298
3
3
3
3
3
3
3
3
3
3
3
3
3
3
3
3
3
3
3
3
3
3
3
3
3
3
3
3
3
3
3
3
)
;
    }
    rightWall
    {
        type            calculated;
        value           nonuniform List<scalar> 
50
(
1.76711
1.76689
1.59455
1.7089
1.69318
1.23176
0.991296
0.587593
0.339628
0.323818
1.0596
1.04814
0.999837
1.00002
0.99879
1.10421
2.50856
2.99589
3
3
3
3
3
3
3
3
3
3
3
3
3
3
3
3
3
3
3
3
3
3
3
3
3
3
3
3
3
3
3
3
)
;
    }
    lowerWall
    {
        type            calculated;
        value           nonuniform List<scalar> 
62
(
2
2
2
2
2
2
2
2
2
2
2
2
2
2
2
2
2
2
2
2
1.99967
1.99943
1.99943
1.99943
1.99966
2
2
2
2
2.00054
1.56017
0.0197546
3.58282e-05
2.28518e-05
2.24428e-05
1.84307
1.44428
0.723347
0.340253
0.238496
0.250001
0.252207
0.234807
1.84307
1.85842
1.86279
1.8605
1.8862
1.93267
1.8698
1.75226
1.73155
1.73675
1.73745
1.7536
1.67917
1.75518
1.73592
1.65793
1.72309
1.77675
1.76711
)
;
    }
    atmosphere
    {
        type            calculated;
        value           nonuniform List<scalar> 
46
(
3
3
3
3
3
3
3
3
3
3
3
3
3
3
3
3
3
3
3
3
3
3
3
3
3
3
3
3
3
3
3
3
3
3
3
3
3
3
3
3
3
3
3
3
3
3
)
;
    }
    defaultFaces
    {
        type            empty;
    }
}


// ************************************************************************* //
