/*--------------------------------*- C++ -*----------------------------------*\
  =========                 |
  \\      /  F ield         | OpenFOAM: The Open Source CFD Toolbox
   \\    /   O peration     | Website:  https://openfoam.org
    \\  /    A nd           | Version:  13
     \\/     M anipulation  |
\*---------------------------------------------------------------------------*/
FoamFile
{
    format      ascii;
    class       volScalarField;
    location    "2.5";
    object      alpha.air;
}
// * * * * * * * * * * * * * * * * * * * * * * * * * * * * * * * * * * * * * //

dimensions      [];

internalField   nonuniform List<scalar> 
2268
(
5.65773e-13
6.22262e-13
6.83554e-13
6.31206e-13
5.18543e-13
3.64786e-13
2.20722e-13
1.15067e-13
5.35235e-14
2.47642e-14
2.29256e-14
2.4826e-14
3.30548e-14
5.06597e-14
1.06857e-13
1.94076e-13
3.03111e-13
5.6897e-13
1.45648e-12
2.56538e-12
1.72811e-12
3.92104e-13
4.01249e-13
2.26431e-12
2.93143e-12
2.90964e-12
2.70376e-12
2.35869e-12
1.81082e-12
1.07595e-12
5.01651e-13
2.41154e-13
1.74166e-13
1.90275e-13
2.94709e-13
5.85893e-13
1.22026e-12
2.44333e-12
3.65958e-12
4.81087e-12
9.88343e-12
1.96489e-11
2.37817e-11
1.9771e-11
2.232e-10
6.67793e-11
6.17998e-12
8.57408e-12
7.23818e-12
7.34953e-12
6.81095e-12
5.72059e-12
3.76881e-12
1.75428e-12
7.25062e-13
5.68465e-13
7.26375e-13
1.47675e-12
3.44309e-12
7.6547e-12
1.68418e-11
3.6533e-11
7.08996e-11
9.76934e-11
1.57293e-10
3.08275e-10
1.02648e-09
2.30827e-09
1.37977e-09
2.16544e-11
1.64028e-11
3.17849e-11
1.33501e-11
1.15889e-11
1.11952e-11
1.13851e-11
9.89295e-12
6.28095e-12
4.02823e-12
3.57527e-12
4.77458e-12
8.21406e-12
1.75994e-11
4.81715e-11
9.78131e-11
1.79163e-10
3.06096e-10
4.59841e-10
4.95015e-10
1.15837e-09
2.33102e-09
1.29559e-09
7.80818e-11
1.67931e-11
9.00907e-11
1.0441e-11
1.06909e-11
1.0484e-11
1.21041e-11
1.51375e-11
1.64488e-11
1.5073e-11
1.16473e-11
1.13075e-11
1.4797e-11
3.01836e-11
6.20373e-11
1.07321e-10
1.60891e-10
2.53337e-10
3.49646e-10
6.56895e-10
6.49554e-10
9.74451e-10
7.44782e-10
2.52778e-09
2.97814e-09
1.10422e-09
2.73743e-07
1.25471e-07
4.41655e-08
7.09851e-11
1.2687e-11
4.6324e-11
8.51879e-11
7.33228e-11
5.53137e-11
5.12163e-11
5.26698e-11
6.68404e-11
8.67887e-11
1.22437e-10
1.06249e-10
1.29485e-10
3.56454e-07
6.82978e-08
4.56786e-09
8.36128e-10
8.19964e-09
1.46282e-08
3.5976e-08
1.12531e-06
2.33168e-06
1.13894e-06
1.30371e-07
1.80694e-08
4.91317e-09
1.63441e-09
9.34428e-10
6.31883e-10
4.77661e-10
3.35622e-10
1.52343e-10
8.76075e-11
2.18821e-08
3.03723e-08
7.51233e-09
5.08848e-09
1.01721e-05
0.00018373
0.000569732
2.17298e-08
3.42747e-08
2.49297e-07
1.52136e-06
3.97783e-06
1.67411e-06
5.09488e-07
1.29245e-07
3.14661e-08
1.01816e-08
5.68713e-09
3.68238e-09
2.01123e-09
1.31073e-09
1.58837e-10
4.74073e-09
3.87021e-08
3.91386e-08
4.69987e-09
4.49011e-09
3.07117e-05
0.000753688
0.000815764
0.000341962
0.000341962
0.00258389
0.0188651
0.0329455
0.0477436
0.0637133
0.0589758
0.0465627
0.04556
0.0503442
0.0717344
0.0736226
0.0680696
0.054067
0.0151389
0.0137928
0.0137626
0.0137456
0.00630353
0.00644859
0.00490455
0.00484096
0.00507126
0.00896953
0.0289922
0.0353416
0.0346501
0.060665
0.0625747
0.0593827
0.0600161
0.0974882
0.0972734
0.0742496
0.016057
0.0137011
0.0137268
0.0168889
0.0175751
0.0198579
0.0207965
0.017678
0.00211509
0.000282118
0.0017287
0.0157307
0.15544
0.230275
0.187127
0.13587
0.215142
0.277451
0.174501
0.0440965
0.0149013
0.0137363
0.0135604
0.0135268
0.0168383
0.0264306
0.0264414
0.00586042
2.30011e-05
2.37172e-05
0.000329783
0.215728
0.572633
0.572897
0.538334
0.572909
0.572356
0.537913
0.324528
0.216969
0.18165
0.0157395
0.0135602
0.0135454
0.0147923
0.0189648
0.00771693
2.29104e-05
2.2817e-05
0.0032345
0.0497322
0.433981
0.572999
0.573261
0.573004
0.548287
0.295387
0.302649
0.292933
0.398941
0.0588343
0.0569102
0.0238694
0.0129335
0.0128603
0.0147122
0.0311192
0.0273324
0.00804593
1.51003e-05
0.046548
0.557084
0.57333
0.558299
0.127424
3.36622e-06
3.34832e-06
3.40143e-06
0.360806
0.0600435
0.0737406
0.0722445
0.0171058
0.0128534
0.0512702
0.0583989
0.0591996
0.011313
1.42583e-05
1.50637e-05
0.104413
0.564246
0.339804
2.81474e-06
1.47281e-05
1.60693e-05
3.39043e-06
0.231662
0.0474091
0.0682809
0.0681326
0.0446445
0.0894601
0.110527
0.124063
0.0496734
1.46726e-05
1.42779e-05
1.59688e-05
1.60684e-05
0.187864
0.102783
3.0791e-06
4.87462e-05
0.000100877
3.67878e-06
0.0748008
7.73855e-08
9.44642e-08
4.2004e-07
3.74775e-05
1.44852e-05
1.97494e-06
3.26108e-07
1.35814e-07
6.00058e-08
4.19067e-08
3.49214e-08
2.5377e-08
1.11635e-08
4.96779e-09
8.53617e-09
2.1268e-08
1.52523e-08
-2.92026e-12
3.01889e-07
4.44115e-06
1.85639e-05
0.000117286
0.000200012
3.41733e-07
8.3004e-06
0.000929472
0.000479908
3.05583e-05
7.61665e-07
5.79592e-07
3.18552e-07
2.44127e-07
2.15602e-07
1.93436e-07
1.58774e-07
1.17138e-07
7.5375e-08
2.37255e-08
8.47578e-16
9.27844e-16
-2.65664e-10
-1.58136e-09
-7.9375e-08
6.30597e-11
7.39242e-06
0.000306043
0.0454234
0.0150295
0.00233365
0.000342782
6.19069e-06
7.17975e-07
0.000848486
0.00176019
0.00196866
0.00196778
0.00222678
0.00453032
0.00994428
0.0119857
0.00731082
0.00237434
0.00120501
0.00147659
0.011536
0.0455659
0.0771737
0.0809866
0.0569725
0.123668
0.0336452
0.000268099
2.20148e-05
7.02896e-06
0.0464355
0.113764
0.123546
0.120312
0.122062
0.123146
0.124099
0.140761
0.155275
0.155276
0.155275
0.151641
0.149935
0.153129
0.153643
0.111881
0.0649316
0.130762
0.124169
0.0139508
5.99088e-05
0.000112133
0.0175252
0.159357
0.191165
0.18996
0.186188
0.187998
0.186219
0.143097
0.11485
0.107554
0.127441
0.151651
0.105497
0.0279893
0.025218
0.026349
0.0133976
0.0625605
0.102799
0.0794292
7.3576e-05
0.000525425
0.00169366
0.0455818
0.086804
0.0279256
4.75943e-05
0.0097603
0.0141968
2.04509e-07
1.33997e-07
2.04728e-07
2.41469e-07
0.00369555
0.00463385
0.000521585
2.36042e-07
3.22721e-07
0.000614525
0.0063536
0.0113263
0.00333054
0.000780337
-1.9689e-08
-6.99904e-08
1.19937e-10
1.94394e-07
2.11719e-07
2.32774e-07
2.26185e-07
2.06307e-07
2.25534e-07
1.8747e-07
1.40981e-07
1.48145e-07
1.22441e-07
1.25518e-07
1.22413e-07
1.2555e-07
1.27516e-07
1.35978e-07
1.62206e-07
1.35976e-07
1.62183e-07
1.43409e-07
0.000804562
1.05261e-08
2.76845e-07
0.00128238
0.0107683
0.0443837
0.0572704
0.0592567
0.0709865
0.0793345
0.0815179
0.0790841
0.0754453
0.0697812
0.0625294
0.055955
0.0501595
0.0436233
0.0362405
0.0299839
0.0257956
0.0229407
0.0202918
0.263443
0.239228
0.363717
0.488131
0.598219
0.653035
0.688266
0.741758
0.780781
0.797489
0.797996
0.798316
0.797016
0.790234
0.779233
0.767424
0.754774
0.737931
0.717
0.698133
0.684531
0.674094
0.660954
0.99649
0.925644
0.908856
0.977687
0.999998
0.999999
1
1
1
1
1
1
1
1
1
1
1
1
1
1
1
1
1
0.999999
0.999998
0.999997
0.999999
0.999999
1
1
1
1
1
1
1
1
1
1
1
1
1
1
1
1
1
1
0.999999
0.999997
0.999995
0.999996
1
1
0.999999
0.999994
0.999978
0.999979
0.999999
1
1
1
1
1
1
1
1
1
1
1
1
0.999999
0.999997
0.99998
0.999953
0.999975
1
0.999999
0.999941
0.999836
0.999847
0.999987
0.999999
1
1
1
1
1
1
1
1
1
1
1
0.999999
0.999995
0.999958
0.999943
0.999944
0.999998
0.999999
0.999911
0.999835
0.999835
0.999846
0.999996
0.999998
0.999998
0.999999
0.999999
1
1
1
1
1
1
1
0.999999
0.999997
0.999972
0.999944
0.999968
0.999999
1
0.999977
0.99985
0.999836
0.999839
0.999986
0.999997
0.999997
0.999997
0.999999
1
1
1
1
1
1
1
0.999999
0.999998
0.999996
0.999991
0.999998
1
1
0.999999
0.999979
0.999911
0.999949
0.999997
0.999997
0.999997
0.999997
0.999999
1
1
1
1
1
1
1
0.999999
0.999999
0.999999
1
1
1
1
1
1
0.999999
1
1
0.999998
0.999997
0.999999
1
1
1
1
1
1
1
1
1
0.999999
1
1
1
1
1
1
1
1
1
1
0.999999
0.999999
1
1
1
1
1
1
1
1
1
1
1
1
1
1
1
1
1
1
1
1
1
0.999999
0.999999
1
1
1
1
1
1
1
1
1
1
1
1
1
1
1
1
1
1
1
1
1
0.999999
1
1
1
1
1
1
1
1
1
1
1
1
1
1
1
1
1
1
1
1
1
1
1
1
1
1
1
1
1
1
1
1
1
1
1
1
1
1
1
1
1
1
1
1
1
1
1
1
1
1
1
1
1
1
1
1
1
1
1
1
1
1
1
1
1
1
1
1
1
1
1
1
1
1
1
1
1
1
1
1
1
1
1
1
1
1
1
1
1
1
1
1
1
1
1
1
1
1
1
1
1
1
1
1
1
1
1
1
1
1
1
1
1
1
1
1
1
1
1
1
1
1
1
1
1
1
1
1
1
1
1
1
1
1
1
1
1
1
1
1
1
1
1
1
1
1
1
1
1
1
1
1
1
1
1
1
1
1
1
1
1
1
1
1
1
1
1
1
1
1
1
1
1
1
1
1
1
1
1
1
1
1
1
1
1
1
1
1
1
1
1
1
1
1
1
1
1
1
1
1
1
1
1
1
1
1
1
1
1
1
1
1
1
1
1
1
1
1
1
1
1
1
1
1
1
1
1
1
1
1
1
1
1
1
1
1
1
1
1
1
1
1
1
1
1
1
1
1
1
1
1
1
1
1
1
1
1
1
1
1
1
1
1
1
1
1
1
1
1
1
1
1
1
1
1
1
1
1
1
1
1
1
1
1
1
1
1
1
1
1
1
1
1
1
1
1
1
1
1
1
1
1
1
1
1
1
1
1
1
1
1
1
1
1
1
1
1
1
1
1
1
1
1
1
1
1
1
1
1
1
1
1
1
1
1
1
1
1
1
1
1
1
1
1
1
1
1
1
1
1
1
1
1
1
1
1
1
1
1
1
1
1
1
1
1
1
1
1
1
1
1
1
1
1
1
1
1
1
1
1
1
1
1
1
1
1
1
1
1
1
1
1
1
1
1
1
1
1
1
1
1
1
1
1
1
1
1
1
1
1
1
1
1
1
1
1
1
1
1
1
1
1
1
1
1
1
1
1
1
1
1
1
1
1
1
1
1
1
1
1
1
1
1
1
1
1
1
1
1
1
1
1
1
1
1
1
1
1
1
1
1
1
1
1
1
1
1
1
1
1
1
1
1
1
1
1
1
1
1
1
1
1
1
1
1
1
1
1
1
1
1
1
1
1
1
1
1
1
1
1
1
1
1
1
1
1
1
1
1
1
1
1
1
1
1
1
9.18332e-05
4.67221e-06
4.4529e-06
3.4015e-06
0.00205282
0.00379302
0.00388614
3.87528e-05
0.00689551
0.0173555
0.166497
0.177895
0.13949
0.139315
0.116826
0.0927303
0.0633876
0.0122041
0.000181645
0.00010013
2.20341e-07
2.27691e-07
4.96275e-06
8.57604e-06
3.92942e-07
7.40007e-09
-8.17963e-11
8.17964e-11
0.0159419
0.0159515
0.0156528
0.0157124
0.638734
0.637721
0.635743
0.636671
1
1
1
1
1
1
1
1
1
1
1
1
1
1
1
1
1
1
1
1
1
1
1
1
1
1
1
1
1
1
1
1
1
1
1
1
1
1
1
1
1
1
1
1
1
1
1
1
1
1
1
1
1
1
1
1
1
1
1
1
1
1
1
1
1
1
1
1
1
1
1
1
1
1
1
1
1
1
1
1
1
1
1
1
1
1
1
1
1
1
1
1
1
1
1
1
1
1
1
1
1
1
1
1
1
1
1
1
1
1
1
1
1
1
1
1
1
1
1
1
1
1
1
1
1
1
1
1
1
1
1
1
0.0165324
0.118269
0.0689748
0.120008
0.180814
0.180838
0.104628
0.00334129
0.00183387
0.000724768
0.000286238
4.88393e-05
-2.51417e-08
7.68729e-14
1.92594e-05
6.57791e-05
0.00329399
0.011399
0.0103764
0.0583121
0.177567
0.176957
0.180787
0.180838
0.180836
0.175046
0.0592104
0.00424488
0.000842103
0.000807483
0.000949332
0.000547924
0.00020316
0.000163564
6.93275e-05
0.00660982
0.0578512
0.0442559
0.178848
0.176209
0.111754
0.096177
0.156313
0.180838
0.180814
0.117338
0.00534212
0.000104429
0.000354257
0.000947414
0.000826902
0.000415063
0.00014671
7.17774e-05
0.00229769
0.0613476
0.061362
0.072726
0.027118
0.00250164
0.00161791
0.035361
0.153514
0.143258
0.0397041
0.000127856
4.31588e-06
1.416e-05
6.31655e-05
7.32709e-05
0.000121275
0.000208118
0.0002069
0.000155497
0.00834053
0.0210776
9.42114e-06
8.96269e-06
2.94962e-05
0.00208563
0.00353332
0.0127527
0.00645496
0.000165429
2.96783e-06
4.13731e-06
1.93964e-06
3.28178e-08
2.56943e-08
2.62276e-08
0.000171516
0.000213685
0.000161727
-9.02449e-09
-8.35231e-11
1.28166e-05
1.20736e-05
0.000132776
0.000295995
6.52867e-09
1.02154e-13
1.96404e-20
2.73183e-10
1.43823e-07
4.19705e-07
2.84841e-07
4.37613e-08
3.09647e-08
7.42467e-07
1.16571e-05
2.83731e-05
2.10447e-05
1.76576e-06
-2.10888e-24
-1.41349e-08
4.50232e-06
6.63364e-06
8.81292e-08
1.10113e-13
4.29292e-24
8.96154e-15
1.15379e-11
3.65658e-12
4.8652e-09
3.18435e-15
-1.91928e-12
-1.58545e-10
1.85211e-22
7.6459e-12
3.7387e-11
2.10395e-11
-2.4923e-08
-2.22135e-09
0.0171825
0.0152391
0.0132982
0.0115898
0.0110593
0.0125759
0.0204858
0.0414463
0.0751473
0.114928
0.151834
0.182971
0.231046
0.314519
0.387047
0.377923
0.314989
0.179755
0.0553221
0.647394
0.643359
0.642941
0.648888
0.665436
0.699047
0.746291
0.79704
0.845964
0.891972
0.933396
0.970278
0.969143
0.969723
0.978262
0.976997
0.961537
0.892268
0.757353
1
1
1
1
0.999999
0.999997
0.99999
0.999974
0.999919
0.99975
0.9995
0.999495
0.999619
0.999623
0.999919
0.999803
0.999647
0.999586
0.99839
1
1
1
0.999927
0.999642
0.999502
0.999618
0.999884
0.999957
0.999956
0.999554
0.999034
0.999051
0.999769
0.999999
1
0.999999
0.999995
0.999999
1
1
0.999999
0.999677
0.999022
0.999023
0.999022
0.999891
1
0.999903
0.999187
0.999151
0.999835
0.999956
0.999999
0.999999
1
1
1
1
1
0.999999
0.999981
0.99962
0.999311
0.999732
1
1
1
1
0.999984
1
1
1
0.999999
0.999999
0.999999
1
1
1
1
1
1
1
1
0.999997
0.999996
1
1
1
1
1
1
1
1
1
1
1
1
1
1
1
1
1
1
1
1
1
1
1
1
1
1
1
1
1
1
1
1
1
1
1
1
1
1
1
1
1
1
1
1
1
1
1
1
1
1
1
1
1
1
1
1
1
1
1
1
1
1
1
1
1
1
1
1
1
1
1
1
1
1
1
1
1
1
1
1
1
1
1
1
1
1
1
1
1
1
1
1
1
1
1
1
1
1
1
1
1
1
1
1
1
1
1
1
1
1
1
1
1
1
1
1
1
1
1
1
1
1
1
1
1
1
1
1
1
1
1
1
1
1
1
1
1
1
1
1
1
1
1
1
1
1
1
1
1
1
1
1
1
1
1
1
1
1
1
1
1
1
1
1
1
1
1
1
1
1
1
1
1
1
1
1
1
1
1
1
1
1
1
1
1
1
1
1
1
1
1
1
1
1
1
1
1
1
1
1
1
1
1
1
1
1
1
1
1
1
1
1
1
1
1
1
1
1
1
1
1
1
1
1
1
1
1
1
1
1
1
1
1
1
1
1
1
1
1
1
1
1
1
1
1
1
1
1
1
1
1
1
1
1
1
1
1
1
1
1
1
1
1
1
1
1
1
1
1
1
1
1
1
1
1
1
1
1
1
1
1
1
1
1
1
1
1
1
1
1
1
1
1
1
1
1
1
1
1
1
1
1
1
1
1
1
1
1
1
1
1
1
1
1
1
1
1
1
1
1
1
1
1
1
1
1
1
1
1
1
1
1
1
1
1
1
1
1
1
1
1
1
1
1
1
1
1
1
1
1
1
1
1
1
1
1
1
1
1
1
1
1
1
1
1
1
1
1
1
1
1
1
1
1
1
1
1
1
1
1
1
1
1
1
1
1
1
1
1
1
1
1
1
1
1
1
1
1
1
1
1
1
1
1
1
1
1
1
1
1
1
1
1
1
1
1
1
1
1
1
1
1
1
1
1
1
1
1
1
1
1
1
1
1
1
1
1
1
1
1
1
1
1
1
1
1
1
1
1
1
1
1
1
1
1
1
1
1
1
1
1
1
1
1
1
1
1
1
1
1
1
1
1
1
1
1
1
1
1
1
1
1
1
1
1
1
1
1
1
1
1
1
1
1
1
1
1
1
1
1
1
1
1
1
1
1
1
1
1
1
1
1
1
1
1
1
1
1
1
1
1
1
1
1
1
1
1
1
1
1
1
1
1
1
1
1
1
1
1
1
1
1
)
;

boundaryField
{
    leftWall
    {
        type            alphaContactAngle;
        contactAngleProperties 
        {
            mercury         
            {
                theta0          90;
            }
            water           
            {
                theta0          90;
            }
            oil             
            {
                theta0          90;
            }
        }
        value           nonuniform List<scalar> 
50
(
5.65773e-13
2.26431e-12
6.17998e-12
2.16544e-11
7.80818e-11
2.52778e-09
8.19964e-09
2.17298e-08
7.73855e-08
3.41733e-07
0.0454234
0.123668
0.124169
0.0794292
0.000780337
0.000804562
0.263443
0.99649
0.999999
0.999999
0.999999
0.999999
0.999999
0.999999
0.999999
1
1
1
1
1
1
1
1
1
1
1
1
1
1
1
1
1
1
1
1
1
1
1
1
1
)
;
    }
    rightWall
    {
        type            alphaContactAngle;
        contactAngleProperties 
        {
            mercury         
            {
                theta0          90;
            }
            water           
            {
                theta0          90;
            }
            oil             
            {
                theta0          90;
            }
        }
        value           nonuniform List<scalar> 
50
(
0.0137456
0.0137268
0.0137363
0.18165
0.398941
0.360806
0.231662
0.0748008
0.0103764
0.0442559
0.061362
0.0210776
-8.35231e-11
-2.10888e-24
-2.22135e-09
0.0553221
0.757353
0.99839
0.999999
1
1
1
1
1
1
1
1
1
1
1
1
1
1
1
1
1
1
1
1
1
1
1
1
1
1
1
1
1
1
1
)
;
    }
    lowerWall
    {
        type            alphaContactAngle;
        contactAngleProperties 
        {
            mercury         
            {
                theta0          90;
            }
            water           
            {
                theta0          90;
            }
            oil             
            {
                theta0          90;
            }
        }
        value           nonuniform List<scalar> 
62
(
5.65773e-13
6.22262e-13
6.83554e-13
6.31206e-13
5.18543e-13
3.64786e-13
2.20722e-13
1.15067e-13
5.35235e-14
2.47642e-14
2.29256e-14
2.4826e-14
3.30548e-14
5.06597e-14
1.06857e-13
1.94076e-13
3.03111e-13
5.6897e-13
1.45648e-12
2.56538e-12
1.72811e-12
3.92104e-13
4.01249e-13
4.01249e-13
6.67793e-11
1.37977e-09
1.29559e-09
7.44782e-10
8.36128e-10
0.000569732
0.000815764
9.18332e-05
4.67221e-06
4.4529e-06
3.4015e-06
0.000341962
0.00630353
0.0168889
0.0135604
0.0157395
0.0588343
0.0600435
0.0474091
0.000341962
0.000341962
0.00258389
0.0188651
0.0329455
0.0477436
0.0637133
0.0589758
0.0465627
0.04556
0.0503442
0.0717344
0.0736226
0.0680696
0.054067
0.0151389
0.0137928
0.0137626
0.0137456
)
;
    }
    atmosphere
    {
        type            inletOutlet;
        inletValue      uniform 1;
        value           nonuniform List<scalar> 
46
(
1
1
1
1
1
1
1
1
1
1
1
1
1
1
1
1
1
1
1
1
1
1
1
1
1
1
1
1
1
1
1
1
1
1
1
1
1
1
1
1
1
1
1
1
1
1
)
;
    }
    defaultFaces
    {
        type            empty;
    }
}


// ************************************************************************* //
