/*--------------------------------*- C++ -*----------------------------------*\
  =========                 |
  \\      /  F ield         | OpenFOAM: The Open Source CFD Toolbox
   \\    /   O peration     | Website:  https://openfoam.org
    \\  /    A nd           | Version:  13
     \\/     M anipulation  |
\*---------------------------------------------------------------------------*/
FoamFile
{
    format      ascii;
    class       volScalarField;
    location    "2.5";
    object      epsilon;
}
// * * * * * * * * * * * * * * * * * * * * * * * * * * * * * * * * * * * * * //

dimensions      [0 2 -3 0 0 0 0];

internalField   nonuniform List<scalar> 
2268
(
0.00292223
0.014597
0.0292294
0.0441824
0.0591214
0.0737767
0.0878193
0.100854
0.112459
0.122233
0.129838
0.13505
0.137767
0.138004
0.136307
0.133438
0.12875
0.121845
0.112038
0.0981181
0.0781207
0.0484519
0.00874415
0.00560202
0.00987996
0.0153295
0.0209638
0.0266509
0.0322987
0.0377841
0.0429622
0.0476868
0.0518286
0.0552893
0.0580157
0.0600044
0.0613107
0.0621628
0.0627172
0.0626866
0.061794
0.0595788
0.0552178
0.0473781
0.0346653
0.0204361
0.00939449
0.0108386
0.0144118
0.0182643
0.0222149
0.0261736
0.030046
0.0337332
0.0371422
0.0401962
0.0428421
0.0450574
0.0468523
0.0482726
0.0494213
0.0503556
0.0509247
0.0509348
0.0500616
0.0477541
0.0432553
0.0365027
0.0383322
0.0132172
0.0126986
0.015383
0.0185071
0.0217906
0.0251151
0.0283828
0.0315062
0.0344107
0.0370381
0.0393509
0.0413358
0.0430048
0.0443929
0.0455558
0.046526
0.0472139
0.0474885
0.0471381
0.0458514
0.0433918
0.0408719
0.0573751
0.017322
0.01506
0.0171219
0.0198156
0.0227457
0.0257512
0.0287188
0.031561
0.0342097
0.0366142
0.0387427
0.0405848
0.042151
0.043469
0.0445754
0.0454948
0.0461779
0.0465475
0.0464978
0.0459464
0.0451542
0.0464475
0.0769059
0.0222432
0.0179547
0.019388
0.021736
0.0244287
0.0272413
0.0300339
0.0327124
0.0352102
0.0374785
0.0394863
0.0412223
0.0426952
0.0439288
0.0449535
0.0457957
0.0464354
0.0468458
0.0470216
0.047099
0.0478443
0.0530606
0.0988462
0.0286917
0.021544
0.0221273
0.0241094
0.0266017
0.0292735
0.0319466
0.0345163
0.0369137
0.0390882
0.0410062
0.0426538
0.0440378
0.0451808
0.0461153
0.046875
0.0474651
0.0479068
0.0482899
0.0489522
0.0511792
0.0608597
0.130065
0.0372283
0.0257792
0.0252304
0.0267812
0.0290717
0.0316254
0.0342147
0.0367167
0.0390523
0.041165
0.0430163
0.0445893
0.0458901
0.0469435
0.0477883
0.0484707
0.0490197
0.0495021
0.0500894
0.0512834
0.0547946
0.0692176
0.206358
0.00794627
0.0431895
0.0712105
0.0889375
0.0989182
0.104991
0.103701
0.103381
0.112808
0.118066
0.111686
0.0958811
0.0829303
0.0800754
0.0699539
0.0567845
0.0427801
0.024406
0.00561597
0.0157588
0.0301493
0.042891
0.0515467
0.0568164
0.0586664
0.0582074
0.0577946
0.0574094
0.0562084
0.0520712
0.0464844
0.0414239
0.0373991
0.03304
0.0280691
0.0227135
0.0160097
0.00835025
0.0273015
0.0318954
0.0400341
0.0456905
0.0500058
0.0525669
0.0518401
0.0507813
0.04985
0.0479084
0.0439631
0.0396419
0.0353881
0.0313303
0.0277942
0.0244348
0.0211371
0.0174816
0.0146098
0.0366834
0.0369805
0.042015
0.045051
0.0476273
0.0507657
0.0502701
0.0491042
0.0482912
0.0465648
0.0427083
0.0385849
0.03436
0.0302037
0.0269938
0.0244687
0.0226313
0.0216703
0.0227635
0.048091
0.045309
0.0466632
0.0467213
0.0471134
0.0487827
0.0489554
0.0481351
0.047299
0.0461366
0.0429064
0.0390568
0.0348024
0.0305751
0.0275237
0.0257523
0.0251763
0.0265537
0.0382613
0.0695048
0.058193
0.0535046
0.0500387
0.0480649
0.0478113
0.0474215
0.0466743
0.0457651
0.0446452
0.042161
0.0392832
0.0360467
0.0314457
0.0284468
0.0270075
0.0265263
0.0280279
0.0492493
0.112706
0.0753488
0.0611573
0.0539936
0.0498922
0.0478821
0.046657
0.0455815
0.0446158
0.0433337
0.0412236
0.0389302
0.036553
0.0325013
0.0294583
0.0275664
0.0263954
0.0265047
0.0433398
0.183298
0.0921021
0.0665963
0.0568945
0.0517983
0.0484606
0.0465303
0.0451777
0.0440883
0.0426672
0.0407428
0.0386873
0.0363487
0.0330572
0.0302027
0.0280896
0.0265117
0.0257632
0.0359206
0.0498367
0.0322026
0.0302043
0.0311623
0.0331751
0.0355834
0.038084
0.0405244
0.0428068
0.0448597
0.0466352
0.0481129
0.0493006
0.050229
0.0509462
0.051516
0.0520134
0.0525674
0.0534485
0.0552905
0.059836
0.0727419
0.119123
0.0730126
0.0427332
0.0382168
0.0382541
0.0398479
0.0420226
0.0443722
0.0467088
0.0489081
0.0508739
0.0525426
0.0538895
0.0549279
0.0556971
0.0562487
0.0566699
0.0570906
0.0576706
0.0586746
0.0606144
0.0645248
0.0725005
0.0876306
0.100183
0.0548602
0.0471843
0.0460411
0.0470594
0.0488828
0.0509874
0.0531424
0.0551991
0.0570396
0.058585
0.0598067
0.060725
0.0613898
0.0618648
0.0622455
0.0626795
0.0632965
0.0642937
0.0660006
0.068853
0.0732874
0.0791738
0.130997
0.0686054
0.0570027
0.0543452
0.0545269
0.0557943
0.0574995
0.0593414
0.0611603
0.0628154
0.064204
0.06529
0.0660968
0.0666776
0.0671063
0.0674983
0.0679535
0.068537
0.0693598
0.0705813
0.0722553
0.0743339
0.0763909
0.166372
0.0824299
0.0673135
0.0630128
0.0620993
0.0625423
0.0635855
0.0648925
0.0663181
0.0676866
0.0688564
0.0697684
0.0704412
0.0709301
0.071309
0.0716805
0.0720737
0.0724775
0.0729567
0.0735352
0.0741062
0.0745528
0.0745833
0.206827
0.0973653
0.0782919
0.0721197
0.0697661
0.0689455
0.0689123
0.069348
0.0701236
0.0710426
0.0719146
0.0726441
0.0732114
0.0736447
0.0739999
0.0743323
0.0746207
0.0748332
0.0749956
0.0750793
0.0749952
0.0746858
0.0740096
0.224495
0.110202
0.089866
0.0821518
0.0779324
0.0752314
0.0736487
0.0729124
0.072827
0.0731635
0.0736805
0.0742183
0.0747018
0.0751145
0.0754728
0.0757831
0.0760104
0.076127
0.0761351
0.0760043
0.0756821
0.0751336
0.0742902
0.217426
0.120313
0.10182
0.0933404
0.0870458
0.0818973
0.0782385
0.0760346
0.0749639
0.0746533
0.0747729
0.075094
0.0754838
0.0758725
0.0762285
0.0765254
0.0767304
0.0768259
0.0768055
0.0766432
0.076301
0.0757364
0.0748906
0.209569
0.128525
0.111949
0.104423
0.0968081
0.0887728
0.0826517
0.0787913
0.0766717
0.0757066
0.0754268
0.0755255
0.0758082
0.0761605
0.076515
0.0768225
0.0770449
0.0771666
0.077183
0.0770756
0.076806
0.0763207
0.0755887
0.223431
0.135751
0.117888
0.112367
0.106573
0.0955528
0.0867514
0.0810651
0.0778365
0.0762685
0.0756339
0.075509
0.0756757
0.0759937
0.0763653
0.0767209
0.0770059
0.0771947
0.077288
0.0772865
0.0771598
0.0768217
0.0762315
0.264473
0.146494
0.118096
0.110278
0.103468
0.0952685
0.0866972
0.0806447
0.0772618
0.075642
0.0749685
0.0748089
0.0749343
0.0751846
0.0754583
0.075696
0.0758636
0.0759484
0.075951
0.0758672
0.0756756
0.0753106
0.0747199
0.311455
0.139249
0.111414
0.10058
0.0942517
0.0874664
0.0813913
0.0770895
0.0747131
0.0736151
0.0731959
0.0731578
0.0733353
0.0735855
0.073815
0.0739744
0.0740428
0.0740186
0.0739063
0.0737032
0.0733953
0.0729614
0.0724223
0.293858
0.126932
0.100214
0.0905513
0.0846349
0.079605
0.0755318
0.0727717
0.071305
0.0707589
0.0707147
0.0709049
0.0712112
0.0715269
0.0717802
0.0719346
0.0719769
0.0719081
0.0717338
0.0714566
0.0710745
0.0705893
0.0700298
0.254504
0.111449
0.0894744
0.0812415
0.0763614
0.0727184
0.07003
0.0683524
0.0675904
0.0675058
0.0677962
0.0682332
0.0686981
0.0691249
0.0694631
0.0696846
0.0697778
0.0697429
0.0695849
0.0693098
0.0689216
0.0684324
0.0678747
0.207984
0.0957434
0.0786032
0.0724587
0.0689848
0.0665354
0.0648664
0.0639588
0.0637347
0.0640281
0.0646077
0.0652681
0.0658979
0.0664589
0.0669164
0.0672478
0.0674411
0.0674942
0.0674111
0.0671985
0.0668629
0.0664206
0.0659071
0.171281
0.0818109
0.0687493
0.0644429
0.0622278
0.0608018
0.0599472
0.0596488
0.059863
0.0604692
0.0612816
0.0621185
0.0628958
0.0635889
0.0641732
0.064628
0.0649412
0.0651089
0.0651331
0.0650203
0.0647773
0.064423
0.0639972
0.140929
0.0702474
0.0603446
0.0574447
0.0562015
0.0555619
0.0553373
0.0555162
0.0560718
0.0569117
0.0578902
0.0588566
0.0597544
0.0605627
0.0612617
0.0618329
0.0622645
0.0625512
0.0626932
0.0626961
0.0625674
0.0623278
0.0620212
0.117135
0.0612485
0.0536328
0.0516642
0.051057
0.050947
0.0511569
0.0516639
0.0524423
0.053421
0.0544934
0.0555455
0.0565309
0.0574288
0.0582208
0.0588906
0.0594268
0.0598229
0.060078
0.0601973
0.0601884
0.0600742
0.0599028
0.100089
0.0547224
0.0485455
0.0470838
0.0468183
0.0470059
0.0474656
0.0481535
0.0490391
0.0500679
0.0511661
0.0522583
0.0532933
0.0542489
0.0551069
0.0558517
0.0564718
0.0569599
0.0573144
0.0575397
0.0576446
0.0576529
0.0576152
0.089568
0.0503079
0.0447878
0.0435065
0.0433663
0.043677
0.0442413
0.0449943
0.0458988
0.0469128
0.0479865
0.049072
0.0501171
0.0510967
0.0519912
0.0527845
0.0534644
0.0540231
0.0544581
0.0547736
0.0549784
0.0550974
0.0551818
0.0830371
0.0471583
0.0418913
0.0406266
0.0404947
0.0408253
0.0414051
0.0421531
0.0430266
0.0439907
0.0450095
0.0460481
0.047071
0.0480444
0.0489475
0.0497633
0.050479
0.051086
0.0515813
0.0519683
0.0522558
0.0524686
0.0526562
0.0786162
0.0446145
0.0394574
0.038163
0.0379993
0.0383071
0.0388631
0.0395757
0.040399
0.0413013
0.0422547
0.0432326
0.044209
0.0451517
0.0460395
0.0468555
0.0475859
0.0482214
0.0487581
0.0491986
0.0495511
0.0498397
0.0501114
0.075206
0.0423256
0.0372415
0.0359234
0.035729
0.0360084
0.0365336
0.0372075
0.0379818
0.0388263
0.0397176
0.040634
0.0415546
0.0424566
0.0433154
0.0441154
0.0448437
0.0454913
0.046054
0.0465326
0.0469346
0.0472819
0.0476182
0.0721022
0.0401173
0.0351232
0.0338054
0.0335966
0.0338581
0.0343611
0.035006
0.035743
0.0365426
0.0373834
0.0382472
0.0391169
0.0399747
0.0407996
0.0415768
0.0422943
0.0429437
0.0435206
0.0440258
0.044465
0.0448569
0.0452416
0.0689302
0.0379248
0.0330616
0.0317709
0.0315658
0.0318234
0.0323169
0.0329462
0.0336605
0.0344302
0.0352353
0.0360595
0.0368883
0.0377073
0.0385015
0.0392561
0.039961
0.0406085
0.0411945
0.0417193
0.0421874
0.0426147
0.0430362
0.0655534
0.0357423
0.0310575
0.0298181
0.0296326
0.0298984
0.0303939
0.0310196
0.0317243
0.0324782
0.0332618
0.0340601
0.0348605
0.0356516
0.0364222
0.0371595
0.0378551
0.0385023
0.0390973
0.03964
0.0401339
0.0405925
0.0410458
0.0619843
0.0335931
0.0291298
0.0279623
0.0278092
0.028093
0.0285994
0.0292306
0.0299356
0.0306847
0.0314587
0.0322434
0.0330279
0.033803
0.0345598
0.0352885
0.0359819
0.0366344
0.0372425
0.0378056
0.0383262
0.0388155
0.0392982
0.0583128
0.031513
0.0273049
0.0262261
0.0261161
0.0264255
0.026949
0.0275919
0.028304
0.029056
0.0298292
0.0306103
0.0313896
0.0321599
0.0329138
0.0336443
0.0343451
0.0350116
0.0356403
0.0362299
0.0367819
0.0373048
0.037819
0.0546636
0.0295439
0.0256128
0.0246356
0.0245771
0.024918
0.0254629
0.0261211
0.0268441
0.0276036
0.0283818
0.0291666
0.0299498
0.0307254
0.0314877
0.0322315
0.0329514
0.033643
0.0343027
0.0349281
0.0355193
0.0360819
0.0366321
0.0511678
0.0277316
0.0240861
0.0232189
0.023218
0.0235941
0.0241625
0.0248373
0.0255724
0.0263414
0.027128
0.0279219
0.0287163
0.029507
0.0302895
0.0310596
0.0318125
0.0325434
0.0332476
0.0339213
0.0345624
0.0351739
0.0357676
0.0479456
0.0261229
0.0227597
0.0220057
0.0220653
0.0224777
0.0230692
0.0237591
0.024505
0.0252831
0.0260796
0.0268867
0.0277
0.0285164
0.0293329
0.0301455
0.030949
0.031737
0.0325031
0.0332409
0.0339456
0.0346172
0.0352632
0.0450908
0.0247626
0.0216691
0.0210267
0.0211459
0.0215923
0.022203
0.0229033
0.0236557
0.0244405
0.0252475
0.0260723
0.0269135
0.0277699
0.0286388
0.0295158
0.0303934
0.0312624
0.0321127
0.0329344
0.0337194
0.0344641
0.0351723
0.0426602
0.0236896
0.0208494
0.0203141
0.0204881
0.0209616
0.0215826
0.0222843
0.0230355
0.0238224
0.0246404
0.0254899
0.0263731
0.0272906
0.0282396
0.0292125
0.0301972
0.031179
0.0321422
0.0330721
0.0339565
0.0347881
0.0355674
0.0406701
0.0229363
0.0203396
0.0199071
0.0201268
0.0206129
0.0212275
0.0219145
0.0226521
0.0234347
0.0242655
0.025152
0.026101
0.0271143
0.0281862
0.0293022
0.030441
0.0315785
0.0326908
0.033757
0.0347608
0.0356923
0.0365491
0.0391069
0.0225419
0.0202014
0.0198701
0.0201163
0.0205855
0.0211619
0.0218063
0.0225104
0.0232801
0.0241298
0.0250763
0.0261323
0.027299
0.0285618
0.0298917
0.0312508
0.0326
0.0339044
0.0351367
0.0362779
0.0373172
0.0382519
0.0379773
0.0226067
0.0205809
0.0203419
0.0205611
0.0209456
0.0214206
0.0219732
0.0226124
0.0233589
0.0242414
0.0252905
0.0265258
0.0279417
0.0295031
0.0311522
0.0328226
0.0344528
0.0359954
0.037419
0.0387064
0.0398509
0.0408529
0.0374776
0.0234989
0.0219045
0.021663
0.0216807
0.0218122
0.022056
0.0224294
0.0229552
0.0236671
0.0246123
0.0258415
0.0273825
0.0292081
0.031236
0.033356
0.0354564
0.0374447
0.0392636
0.040887
0.0423092
0.043536
0.0445771
0.0386938
0.0266676
0.0254869
0.0246845
0.0239253
0.023386
0.0231368
0.023182
0.0235236
0.0241929
0.0252594
0.0268089
0.0288799
0.0313828
0.0341311
0.0369277
0.039599
0.0420121
0.0441142
0.045907
0.047416
0.0486718
0.0497
0.047314
0.0376556
0.0350637
0.0313118
0.0280967
0.0259397
0.0247174
0.024208
0.0242759
0.0249075
0.0262037
0.0283271
0.0313419
0.034962
0.0387814
0.0424968
0.0458831
0.0487378
0.0510572
0.0529196
0.0544119
0.0556037
0.0565416
0.0975637
0.0725109
0.0572701
0.0441672
0.0350379
0.029624
0.0267386
0.0254082
0.0251218
0.0257483
0.0274568
0.0306158
0.0353963
0.0408082
0.0460643
0.0508841
0.0551269
0.0583263
0.0606654
0.0623965
0.0637036
0.064702
0.0654552
0.343965
0.146773
0.090328
0.0617585
0.0439248
0.0338966
0.0288429
0.0265517
0.0258996
0.0265861
0.0289548
0.0339447
0.0422838
0.0502302
0.0569082
0.0627304
0.0682612
0.0715108
0.0734766
0.0747678
0.075675
0.076337
0.076819
1.58027
0.207399
0.108913
0.0742299
0.0506195
0.0370325
0.0302858
0.0272852
0.0263896
0.0271817
0.0303149
0.0379433
0.0531314
0.0632108
0.0701514
0.0764207
0.0864075
0.0889305
0.0898767
0.090371
0.0906861
0.0909057
0.0910604
0.355008
0.291467
0.252351
0.23917
0.105733
0.109143
0.108372
0.105853
0.0828412
0.0839483
0.0838537
0.082895
0.0768077
0.0764983
0.0757831
0.0748477
0.0739409
0.0733267
0.0726004
0.0718087
0.0731551
0.072528
0.0718573
0.0711539
0.0734472
0.0728643
0.0722543
0.0716246
0.0740648
0.0735171
0.0729803
0.0724671
0.0749012
0.0744437
0.0739997
0.0735947
0.0757072
0.075353
0.0750339
0.0747891
0.0743098
0.0741103
0.0740094
0.0739713
0.0720569
0.0718229
0.071654
0.0715214
0.0695898
0.0692889
0.0690116
0.0687552
0.0673903
0.067033
0.0666792
0.0663356
0.0654208
0.0650386
0.0646448
0.0642513
0.0635533
0.0631807
0.0627859
0.0623832
0.061656
0.0613215
0.0609573
0.0605806
0.0596346
0.0593551
0.0590428
0.0587156
0.0574493
0.057232
0.0569805
0.0567143
0.0551103
0.0549544
0.0547658
0.0545622
0.0526679
0.0525685
0.0524376
0.0522931
0.0501908
0.0501397
0.0500608
0.0499689
0.0477533
0.0477433
0.0477085
0.0476625
0.0454223
0.0454473
0.0454505
0.0454436
0.0432527
0.0433083
0.043344
0.0433708
0.041289
0.0413701
0.0414348
0.0414915
0.0395668
0.0396713
0.0397619
0.0398456
0.0381128
0.0382398
0.0383552
0.0384641
0.0369538
0.037104
0.0372436
0.0373772
0.0361204
0.0362951
0.0364598
0.0366179
0.0356522
0.0358533
0.0360441
0.0362273
0.0356013
0.0358305
0.0360486
0.0362574
0.0360401
0.0362987
0.0365441
0.0367776
0.0370661
0.0373534
0.0376245
0.0378805
0.0388096
0.0391221
0.0394146
0.0396879
0.0414399
0.0417696
0.0420747
0.0423561
0.0451718
0.0455045
0.0458079
0.0460832
0.050268
0.0505831
0.0508652
0.0511159
0.0570379
0.0573095
0.0575476
0.0577532
0.0658316
0.0660355
0.0662088
0.0663526
0.0770449
0.0771679
0.0772679
0.0773465
0.0911306
0.0911687
0.0911974
0.0912205
0.139418
0.0927469
0.069661
0.0590512
0.0537356
0.0496829
0.0470042
0.0452889
0.0439615
0.0424154
0.0406128
0.0387584
0.0365225
0.0337645
0.0313345
0.0293161
0.0276061
0.0265911
0.0311215
0.0960846
0.080368
0.0672921
0.0592618
0.0545427
0.0510775
0.0484289
0.0465694
0.0450793
0.0434907
0.0417306
0.0399216
0.0377716
0.0353594
0.0333818
0.0318685
0.0303933
0.0285845
0.0327739
0.079765
0.0723281
0.0650079
0.0593907
0.0553324
0.0522684
0.0499222
0.0481396
0.0466554
0.045118
0.0434376
0.0416679
0.0396385
0.0375156
0.0358492
0.0346126
0.0332211
0.0315296
0.042204
0.0728588
0.0686254
0.0640497
0.0600873
0.0568648
0.0540575
0.0517042
0.049823
0.0482366
0.0466897
0.0450759
0.0434204
0.0416679
0.0399391
0.0385174
0.0372464
0.0357094
0.0350979
0.0577341
0.0703162
0.0674652
0.0643095
0.0614265
0.0589036
0.0564362
0.0540532
0.0519416
0.0500931
0.0483664
0.0466742
0.045034
0.043459
0.0419908
0.0406589
0.0392752
0.0379224
0.0396341
0.080085
0.0698925
0.0677682
0.0654853
0.0633341
0.0613027
0.0591565
0.0568575
0.0545921
0.0524895
0.0505239
0.0486477
0.0468736
0.0452355
0.0437544
0.0423787
0.0410314
0.0401752
0.0436927
0.0939201
0.0705349
0.0689031
0.0672422
0.0656447
0.0640119
0.0621316
0.0599538
0.0576499
0.0553911
0.0532217
0.0511348
0.0491528
0.047304
0.0456199
0.0441084
0.0428515
0.0424682
0.0468553
0.10002
0.0716359
0.0705058
0.0694247
0.0683669
0.0671437
0.0655069
0.0634263
0.0611003
0.0587467
0.0564266
0.0541391
0.0519569
0.0498737
0.0479222
0.0462224
0.0449582
0.0447786
0.0491578
0.101235
0.0729989
0.0724251
0.0720216
0.0716541
0.0709695
0.0695546
0.0674214
0.0649454
0.0625139
0.0601222
0.057635
0.0553203
0.0531306
0.0508915
0.0489628
0.0473897
0.0469778
0.05087
0.101533
0.0745187
0.0746857
0.0751721
0.075796
0.0758907
0.0745519
0.0719746
0.0690335
0.0665934
0.0643037
0.0614565
0.0584557
0.0558918
0.0537078
0.0519696
0.0496792
0.0482954
0.0518042
0.104547
0.0739068
0.0742236
0.0750014
0.0761403
0.076689
0.0754916
0.0728547
0.0701713
0.0683612
0.0667066
0.0639641
0.0605483
0.057378
0.0545756
0.0520378
0.0492093
0.046855
0.0486742
0.0939098
0.0712959
0.0711784
0.0713506
0.0716861
0.0715316
0.0704494
0.0686822
0.0671267
0.0659421
0.0645853
0.0622864
0.0591481
0.0561203
0.0535347
0.0510392
0.0483134
0.0461103
0.0467095
0.0730291
0.0683337
0.0678501
0.0675573
0.0673183
0.0666773
0.0654302
0.0638877
0.0625428
0.0614274
0.0601527
0.0581411
0.0554985
0.0530537
0.0510168
0.0491557
0.0472483
0.0455531
0.045874
0.0636028
0.0657692
0.0650108
0.0643483
0.0637014
0.0628111
0.0614981
0.0599458
0.0584644
0.0571477
0.0557485
0.0539943
0.0519795
0.0501907
0.0487998
0.0476947
0.0467515
0.0462447
0.0474076
0.0613832
0.0635988
0.0626619
0.0617499
0.0608568
0.0598592
0.0586086
0.0571204
0.0555799
0.0541029
0.052643
0.0511473
0.0497004
0.0484931
0.0476187
0.0470768
0.0469175
0.0474132
0.0495652
0.0638673
0.0617105
0.060706
0.0596779
0.0586769
0.0576511
0.05649
0.0551442
0.0536834
0.0522208
0.0508173
0.0495261
0.0484098
0.0475315
0.0469415
0.0467123
0.0469921
0.0481353
0.0513787
0.0682492
0.0599452
0.0589672
0.0579291
0.0569117
0.0559015
0.054823
0.0536138
0.052288
0.0509248
0.049615
0.0484356
0.0474365
0.0466468
0.0461114
0.0459375
0.0463425
0.0478132
0.052035
0.0725006
0.0581556
0.0572653
0.0562825
0.0552995
0.0543228
0.0533057
0.0521956
0.0509851
0.0497235
0.0484856
0.04734
0.0463311
0.0454894
0.0448722
0.0446124
0.044982
0.0466089
0.0516508
0.0760971
0.0562476
0.0554728
0.0545781
0.053654
0.0527176
0.0517437
0.0506965
0.0495639
0.0483727
0.0471747
0.0460232
0.0449593
0.0440243
0.0432937
0.0429242
0.0432343
0.0449706
0.0506816
0.078893
0.0541913
0.0535374
0.0527416
0.0518876
0.0509966
0.0500586
0.0490533
0.0479708
0.0468253
0.0456507
0.044488
0.0433765
0.0423682
0.041555
0.0411139
0.0413985
0.0432399
0.049449
0.0807991
0.0520114
0.0514699
0.0507733
0.0499942
0.0491553
0.0482559
0.0472875
0.0462451
0.0451372
0.0439875
0.042829
0.0417005
0.0406618
0.0398162
0.0393548
0.0396536
0.0415914
0.0481746
0.0819529
0.0497655
0.0493235
0.0487205
0.0480188
0.0472393
0.0463871
0.0454616
0.0444625
0.0433971
0.042284
0.0411521
0.0400404
0.0390127
0.0381792
0.037738
0.0380754
0.0400975
0.0469323
0.082444
0.0475258
0.0471684
0.0466525
0.0460289
0.0453157
0.0445206
0.0436479
0.0427013
0.0416887
0.0406264
0.0395414
0.0384729
0.0374863
0.036694
0.0362953
0.0366779
0.0387665
0.0457439
0.0824152
0.045363
0.0450772
0.044642
0.0440955
0.0434531
0.0427231
0.0419126
0.0410278
0.0400775
0.0390773
0.0380533
0.0370442
0.0361156
0.0353785
0.0350305
0.0354579
0.0375852
0.0446285
0.0820102
0.0433396
0.0431139
0.0427536
0.0422821
0.0417121
0.041052
0.0403097
0.0394928
0.0386109
0.0376793
0.0367229
0.0357803
0.0349153
0.0342365
0.0339375
0.034402
0.0365473
0.0436044
0.0814015
0.0415048
0.0413335
0.0410404
0.0406403
0.0401423
0.0395535
0.0388818
0.0381351
0.0373233
0.0364615
0.0355738
0.0346975
0.0338946
0.0332707
0.0330154
0.0335074
0.0356585
0.0427067
0.0807251
0.0398983
0.0397771
0.0395458
0.0392132
0.0387846
0.0382656
0.0376633
0.0369856
0.0362422
0.0354478
0.0346255
0.0338112
0.0330651
0.0324898
0.0322715
0.0327843
0.0349368
0.0419693
0.0801465
0.0385542
0.0384806
0.038307
0.0380373
0.037674
0.0372212
0.0366851
0.0360727
0.0353935
0.034662
0.0338998
0.0331416
0.0324457
0.0319122
0.0317249
0.0322553
0.0344134
0.0414495
0.0798193
0.0375046
0.0374775
0.0373584
0.037147
0.036844
0.0364524
0.0359773
0.0354255
0.0348058
0.0341319
0.0334242
0.0327163
0.0320648
0.0315678
0.0314072
0.0319548
0.0341257
0.04119
0.0798482
0.0367835
0.0368032
0.0367356
0.0365779
0.0363299
0.0359939
0.0355744
0.0350777
0.0345124
0.0338911
0.0332334
0.0325718
0.0319615
0.0314989
0.0313647
0.0319331
0.034128
0.0412535
0.0802951
0.0364321
0.0364984
0.0364791
0.0363703
0.0361716
0.0358851
0.0355153
0.0350685
0.0345528
0.0339804
0.0333703
0.0327542
0.0321858
0.0317603
0.0316576
0.0322563
0.034495
0.0417267
0.0814096
0.036502
0.0366143
0.036639
0.036573
0.0364164
0.036172
0.0358451
0.0354423
0.0349719
0.0344462
0.0338841
0.0333171
0.0327977
0.0324197
0.0323623
0.0330091
0.03532
0.0427287
0.0833152
0.0370613
0.0372161
0.0372781
0.0372459
0.0371212
0.0369086
0.0366151
0.0362482
0.0358178
0.0353374
0.0348272
0.0343187
0.0338643
0.0335563
0.0335729
0.0343016
0.0367301
0.0444063
0.0863709
0.0381993
0.0383887
0.0384762
0.0384634
0.0383545
0.0381569
0.0378805
0.0375362
0.0371372
0.0367003
0.0362485
0.0358154
0.0354543
0.0352571
0.0354008
0.0362755
0.0388998
0.0469747
0.0908814
0.0400327
0.0402412
0.0403351
0.0403185
0.0401982
0.0399863
0.0396976
0.039351
0.0389667
0.0385678
0.0381825
0.0378496
0.0376269
0.0376092
0.0379739
0.0391127
0.0420775
0.0507701
0.0975454
0.0427112
0.0429147
0.0429852
0.0429272
0.0427489
0.0424695
0.0421154
0.0417205
0.0413188
0.0409435
0.0406318
0.0404319
0.0404133
0.0406828
0.0414266
0.0430431
0.0466193
0.0563156
0.107228
0.0464257
0.0465902
0.0465948
0.0464371
0.0461223
0.0456802
0.0451638
0.0446383
0.0441612
0.0437798
0.0435427
0.0435143
0.0437878
0.0445019
0.0458773
0.0483456
0.0530541
0.0645149
0.121797
0.0514164
0.0515017
0.0513863
0.0510421
0.050457
0.0496848
0.0488348
0.0480384
0.0473904
0.0469513
0.0467795
0.0469606
0.047631
0.0489975
0.0513747
0.0553124
0.0621371
0.0769885
0.144648
0.0579828
0.0579532
0.0576616
0.057012
0.055927
0.0545279
0.0530499
0.051761
0.0508034
0.0502331
0.0501032
0.0505218
0.0516913
0.0539434
0.0577949
0.0641061
0.0747812
0.0967215
0.18409
0.0664936
0.0663405
0.0658465
0.064754
0.0627476
0.0601777
0.0575935
0.0555055
0.0540743
0.0532932
0.0531722
0.0538319
0.055562
0.0588853
0.0646695
0.0743815
0.0913308
0.128456
0.262299
0.0774034
0.0771763
0.0765588
0.0749531
0.0710778
0.0663017
0.0619542
0.058766
0.0567492
0.0557143
0.0555725
0.0564377
0.0586913
0.0630868
0.070975
0.084678
0.108716
0.17347
0.459575
0.0912285
0.0910935
0.0906767
0.0889754
0.080075
0.071469
0.0650256
0.060799
0.0583049
0.0570771
0.0569092
0.0578965
0.0604833
0.0656213
0.0751839
0.0928583
0.114165
0.183708
1.16128
)
;

boundaryField
{
    leftWall
    {
        type            epsilonWallFunction;
        value           nonuniform List<scalar> 
50
(
0.00292223
0.00560202
0.00939449
0.0132172
0.017322
0.0222432
0.0286917
0.0372283
0.0498367
0.0730126
0.100183
0.130997
0.166372
0.206827
0.224495
0.217426
0.209569
0.223431
0.264473
0.311455
0.293858
0.254504
0.207984
0.171281
0.140929
0.117135
0.100089
0.089568
0.0830371
0.0786162
0.075206
0.0721022
0.0689302
0.0655534
0.0619843
0.0583128
0.0546636
0.0511678
0.0479456
0.0450908
0.0426602
0.0406701
0.0391069
0.0379773
0.0374776
0.0386938
0.047314
0.0975637
0.343965
1.58027
)
;
    }
    rightWall
    {
        type            epsilonWallFunction;
        value           nonuniform List<scalar> 
50
(
0.00561597
0.00835025
0.0146098
0.0227635
0.0382613
0.0492493
0.0433398
0.0359206
0.0311215
0.0327739
0.042204
0.0577341
0.080085
0.0939201
0.10002
0.101235
0.101533
0.104547
0.0939098
0.0730291
0.0636028
0.0613832
0.0638673
0.0682492
0.0725006
0.0760971
0.078893
0.0807991
0.0819529
0.082444
0.0824152
0.0820102
0.0814015
0.0807251
0.0801465
0.0798193
0.0798482
0.0802951
0.0814096
0.0833152
0.0863709
0.0908814
0.0975454
0.107228
0.121797
0.144648
0.18409
0.262299
0.459575
1.16128
)
;
    }
    lowerWall
    {
        type            epsilonWallFunction;
        value           nonuniform List<scalar> 
62
(
0.00292223
0.014597
0.0292294
0.0441824
0.0591214
0.0737767
0.0878193
0.100854
0.112459
0.122233
0.129838
0.13505
0.137767
0.138004
0.136307
0.133438
0.12875
0.121845
0.112038
0.0981181
0.0781207
0.0484519
0.00874415
0.00874415
0.0204361
0.0383322
0.0573751
0.0769059
0.0988462
0.130065
0.206358
0.355008
0.291467
0.252351
0.23917
0.00794627
0.0157588
0.0273015
0.0366834
0.048091
0.0695048
0.112706
0.183298
0.00794627
0.0431895
0.0712105
0.0889375
0.0989182
0.104991
0.103701
0.103381
0.112808
0.118066
0.111686
0.0958811
0.0829303
0.0800754
0.0699539
0.0567845
0.0427801
0.024406
0.00561597
)
;
    }
    atmosphere
    {
        type            inletOutlet;
        inletValue      uniform 0.1;
        value           nonuniform List<scalar> 
46
(
0.1
0.1
0.1
0.0742299
0.0506195
0.0370325
0.0302858
0.0272852
0.0263896
0.0271817
0.0303149
0.0379433
0.0531314
0.0632108
0.0701514
0.0764207
0.1
0.1
0.1
0.1
0.1
0.1
0.1
0.1
0.1
0.1
0.1
0.1
0.1
0.1
0.1
0.080075
0.071469
0.0650256
0.060799
0.0583049
0.0570771
0.0569092
0.0578965
0.0604833
0.0656213
0.0751839
0.1
0.1
0.1
0.1
)
;
    }
    defaultFaces
    {
        type            empty;
    }
}


// ************************************************************************* //
