/*--------------------------------*- C++ -*----------------------------------*\
  =========                 |
  \\      /  F ield         | OpenFOAM: The Open Source CFD Toolbox
   \\    /   O peration     | Website:  https://openfoam.org
    \\  /    A nd           | Version:  13
     \\/     M anipulation  |
\*---------------------------------------------------------------------------*/
FoamFile
{
    format      ascii;
    class       volScalarField;
    location    "2.5";
    object      k;
}
// * * * * * * * * * * * * * * * * * * * * * * * * * * * * * * * * * * * * * //

dimensions      [0 2 -2 0 0 0 0];

internalField   nonuniform List<scalar> 
2268
(
0.000774229
0.0022751
0.00362982
0.00478964
0.00582013
0.00674658
0.00757593
0.00830548
0.00892805
0.00943547
0.00982061
0.0100795
0.0102112
0.0102175
0.0101181
0.00995756
0.00970258
0.00933144
0.00880384
0.00804192
0.00689629
0.00499852
0.00162948
0.00196603
0.00533538
0.00807103
0.010486
0.012644
0.014578
0.0162996
0.0178067
0.0190915
0.0201459
0.0209647
0.0215479
0.0219014
0.0220344
0.0219542
0.0216901
0.0212304
0.020538
0.0195293
0.0180362
0.0157418
0.0120579
0.00466971
0.00278313
0.00717037
0.0106525
0.0137021
0.0164125
0.0188276
0.0209662
0.0228322
0.0244223
0.025732
0.0267591
0.0275067
0.0279839
0.0282033
0.0281767
0.0279252
0.0274357
0.0266618
0.0254984
0.023733
0.0209658
0.0164232
0.00708748
0.00350549
0.00875463
0.0128391
0.0163469
0.0194346
0.0221679
0.0245765
0.0266715
0.0284553
0.0299272
0.0310882
0.0319435
0.0325043
0.0327851
0.0327998
0.0325621
0.0320601
0.0312434
0.029999
0.0280979
0.0251006
0.0200717
0.00927298
0.00420925
0.0103157
0.0149598
0.0188495
0.0222338
0.025209
0.0278178
0.0300797
0.0320031
0.0335911
0.034847
0.0357778
0.0363958
0.0367171
0.0367565
0.036525
0.0360108
0.0351648
0.0338761
0.0319176
0.0288308
0.0235082
0.0112851
0.00498569
0.0119572
0.0171273
0.0213473
0.0249766
0.028146
0.0309115
0.0333016
0.0353308
0.0370057
0.038331
0.0393147
0.0399701
0.0403147
0.0403655
0.0401343
0.0396097
0.0387479
0.0374485
0.0355004
0.032447
0.0270155
0.0133478
0.00591987
0.0137819
0.0194003
0.0238981
0.0277314
0.0310589
0.0339488
0.0364385
0.0385491
0.0402897
0.0416657
0.0426852
0.0433625
0.0437168
0.0437693
0.0435361
0.0430071
0.0421487
0.040878
0.0390147
0.0361394
0.0309053
0.0160603
0.00704877
0.0158443
0.0217787
0.0264877
0.0304844
0.0339414
0.0369358
0.0395116
0.0416922
0.0434877
0.0449035
0.0459479
0.0466367
0.0469923
0.0470414
0.0468073
0.0462845
0.0454525
0.0442523
0.0425479
0.0400089
0.0355082
0.0219786
0.00151854
0.00464794
0.00647327
0.00750939
0.00808537
0.00842629
0.00835901
0.00837925
0.008929
0.0091711
0.00881891
0.00796473
0.00724078
0.00707772
0.00642662
0.00558705
0.00462262
0.0031788
0.0011889
0.00421691
0.0106616
0.0144011
0.0165936
0.017978
0.0188449
0.0186485
0.0185192
0.0193129
0.0192702
0.0184841
0.0173502
0.0159827
0.014868
0.0134444
0.0118296
0.00989279
0.00710678
0.0027473
0.00607741
0.0140599
0.0187873
0.0216787
0.0235053
0.0245638
0.0244881
0.0244503
0.0249294
0.0246243
0.0235602
0.0222492
0.0205968
0.0188344
0.0170249
0.0150785
0.0127744
0.00948356
0.00401196
0.00735636
0.0167063
0.0222113
0.0254768
0.027356
0.0286517
0.0287962
0.0287867
0.0290775
0.0286287
0.0273636
0.0258619
0.0239261
0.0217372
0.0196988
0.0176283
0.015299
0.0120844
0.00542417
0.00871333
0.0190638
0.0253054
0.0287721
0.030529
0.0315161
0.0319812
0.0320698
0.0321587
0.0316799
0.0304278
0.0288302
0.0266642
0.0241843
0.0219804
0.0199488
0.0177228
0.0146167
0.00772456
0.0110474
0.0214287
0.0282647
0.0318964
0.0334955
0.0340932
0.0343917
0.0344614
0.0343457
0.0337101
0.0325347
0.0311089
0.0291578
0.0263382
0.0239982
0.0218829
0.0193241
0.0156982
0.00909842
0.0152353
0.0242306
0.0311074
0.0348696
0.0363308
0.0366198
0.0366466
0.0365218
0.0362287
0.0354068
0.0342006
0.0328142
0.0310435
0.0283134
0.0258067
0.0232704
0.0200965
0.0155259
0.00839007
0.021231
0.0280995
0.0338805
0.0374577
0.0389499
0.0390145
0.0388251
0.0385297
0.0380629
0.0370856
0.035809
0.0343469
0.0324245
0.0298965
0.0273246
0.0244789
0.0208045
0.0153302
0.00740419
0.00856595
0.0190235
0.0254994
0.0305109
0.0347292
0.0383621
0.0414994
0.0441943
0.0464726
0.0483435
0.049812
0.0508882
0.0515924
0.0519529
0.0520029
0.0517703
0.051272
0.0505125
0.0494753
0.0481008
0.0462528
0.0435173
0.0382677
0.011028
0.0238104
0.0310008
0.036366
0.0408078
0.0445873
0.0478253
0.0505963
0.0529325
0.0548413
0.0563259
0.0573998
0.05809
0.0584323
0.05846
0.058215
0.0577495
0.0570935
0.056263
0.0552659
0.0541033
0.0527767
0.051153
0.0135718
0.0286315
0.0365444
0.0422427
0.0468536
0.05071
0.0539749
0.0567495
0.0590792
0.0609746
0.0624405
0.0634943
0.0641708
0.0645147
0.064568
0.0643772
0.0640133
0.0635053
0.0628766
0.0621599
0.0613685
0.0604845
0.0594229
0.0161669
0.0333564
0.0420196
0.0479805
0.0526641
0.0565069
0.0597204
0.0624201
0.0646791
0.0665157
0.0679341
0.0689553
0.0696201
0.0699772
0.0700771
0.0699829
0.069741
0.0693625
0.0688606
0.068257
0.0675185
0.0666024
0.0654132
0.0188795
0.0383208
0.0474002
0.0534809
0.0581244
0.0618439
0.0648812
0.0673912
0.0694929
0.0712114
0.072546
0.0735139
0.0741577
0.0745295
0.074682
0.074677
0.0745278
0.0742139
0.0737449
0.0731157
0.0722656
0.0711668
0.0697893
0.0216836
0.0427923
0.0524087
0.0586257
0.0631474
0.0665723
0.0692517
0.0714121
0.073226
0.0747412
0.0759514
0.0768653
0.0775095
0.0779226
0.0781495
0.078228
0.0781469
0.0778828
0.0774423
0.0768087
0.0759477
0.0748706
0.0735869
0.0227481
0.0461365
0.0568598
0.063445
0.067791
0.0707346
0.0728875
0.0745819
0.0760164
0.0772665
0.0783268
0.0791873
0.0798495
0.0803293
0.0806499
0.0808222
0.0808288
0.0806539
0.0802995
0.0797553
0.0790109
0.0780829
0.0769886
0.022311
0.0479039
0.0603958
0.0678412
0.0721546
0.0745274
0.0760007
0.0771359
0.0781582
0.0791278
0.0800278
0.0808277
0.0815075
0.0820553
0.082467
0.0827343
0.0828415
0.0827808
0.0825526
0.0821514
0.0815728
0.0808205
0.0798968
0.0219262
0.0482033
0.0624725
0.0713291
0.0761452
0.0779242
0.0786206
0.0791483
0.0797526
0.0804552
0.0812053
0.0819498
0.0826435
0.0832526
0.0837527
0.0841216
0.0843402
0.0844023
0.0843102
0.0840623
0.0836511
0.0830666
0.0823149
0.0231746
0.0498432
0.0642141
0.0739383
0.080013
0.0810512
0.0808355
0.0806506
0.0807953
0.0812589
0.0818879
0.0825804
0.0832841
0.0839537
0.0845476
0.0850311
0.0853745
0.0855657
0.0856099
0.0855155
0.0852775
0.0848608
0.0842577
0.025601
0.0515368
0.0656942
0.074226
0.0791926
0.0811256
0.0809457
0.0805853
0.0806923
0.0811884
0.081865
0.082613
0.0833713
0.08408
0.0846941
0.0851841
0.0855327
0.0857354
0.0857973
0.0857234
0.0855118
0.0851339
0.0845662
0.0286251
0.0542984
0.0653585
0.0715444
0.0756595
0.0775432
0.0782159
0.0786238
0.0792656
0.0801026
0.080997
0.081895
0.0827625
0.0835461
0.0842041
0.0847131
0.0850642
0.0852605
0.0853098
0.0852174
0.0849834
0.0846034
0.0840983
0.0278531
0.0527953
0.0623261
0.0678638
0.0714252
0.0735658
0.0749124
0.0760059
0.0771427
0.0783489
0.0795398
0.0806537
0.0816745
0.0825671
0.0833017
0.0838637
0.0842504
0.0844677
0.0845248
0.0844297
0.0841882
0.0838082
0.0833144
0.0253916
0.0488542
0.0582812
0.0636815
0.067221
0.0696699
0.0715148
0.0731179
0.074668
0.0762063
0.0776763
0.0790178
0.0802071
0.0812311
0.0820733
0.0827258
0.0831887
0.0834688
0.0835758
0.0835194
0.0833079
0.0829549
0.082487
0.0221977
0.0441373
0.0534922
0.0591208
0.0629742
0.0658012
0.0680687
0.0700723
0.0719685
0.0738
0.0755239
0.0770783
0.078437
0.0796027
0.0805701
0.0813362
0.0819029
0.0822771
0.0824681
0.0824863
0.0823409
0.0820475
0.0816345
0.0195071
0.0394412
0.0486647
0.0545232
0.0587218
0.0619417
0.0645969
0.0669518
0.0691526
0.0712414
0.0731826
0.0749172
0.0764308
0.0777338
0.0788286
0.0797154
0.0803977
0.0808822
0.0811777
0.0812946
0.0812418
0.0810362
0.0807094
0.0171292
0.0352437
0.0442185
0.050209
0.0546811
0.0582286
0.0612108
0.0638618
0.0663135
0.0686068
0.0707162
0.0725945
0.0742404
0.0756664
0.0768789
0.0778811
0.0786778
0.0792759
0.0796837
0.0799109
0.0799667
0.0798693
0.0796531
0.015127
0.031758
0.040429
0.046437
0.0510646
0.0548317
0.0580458
0.0609073
0.0635313
0.0659585
0.068179
0.070163
0.0719129
0.0734408
0.0747544
0.0758594
0.0767617
0.077468
0.0779861
0.0783257
0.0784961
0.0785168
0.0784255
0.0135827
0.0290431
0.0373893
0.043318
0.0479843
0.0518528
0.0551889
0.0581614
0.0608707
0.0633594
0.0656328
0.067681
0.0695017
0.071105
0.0724988
0.0736896
0.0746834
0.0754868
0.0761069
0.0765534
0.076836
0.0769754
0.0770109
0.0125682
0.02704
0.0350525
0.0408279
0.0454375
0.0493048
0.0526627
0.0556565
0.058375
0.0608638
0.0631407
0.0652101
0.0670659
0.0687158
0.0701663
0.071423
0.0724913
0.0733771
0.0740869
0.07463
0.0750165
0.0752679
0.0754242
0.0119184
0.0256134
0.0332883
0.038861
0.0433458
0.0471369
0.0504434
0.0533939
0.0560687
0.0585146
0.0607559
0.0628041
0.0646628
0.0663322
0.0678159
0.0691179
0.0702425
0.0711944
0.0719795
0.0726062
0.0730848
0.0734369
0.0737014
0.0114721
0.024592
0.0319318
0.0372748
0.0415951
0.0452643
0.0484749
0.0513432
0.0539431
0.0563214
0.0585055
0.060511
0.0623458
0.0640092
0.0655035
0.0668315
0.0679953
0.0689976
0.0698434
0.0705401
0.0710975
0.071537
0.0718959
0.011129
0.0237964
0.0308146
0.0359228
0.0400646
0.043594
0.0466905
0.0494612
0.051975
0.054277
0.0563957
0.0583486
0.0601452
0.0617891
0.0632789
0.0646165
0.0658034
0.0668417
0.0677351
0.068489
0.0691126
0.0696257
0.0700636
0.0108196
0.0230874
0.0298051
0.0346894
0.0386578
0.0420491
0.0450323
0.047707
0.0501376
0.0523668
0.0544228
0.0563236
0.0580799
0.059697
0.0611742
0.0625125
0.0637126
0.064776
0.0657051
0.0665053
0.0671841
0.0677583
0.0682611
0.0105033
0.0223807
0.028822
0.033502
0.0373126
0.0405788
0.0434605
0.0460507
0.0484094
0.0505765
0.0525792
0.0544351
0.0561556
0.0577467
0.0592102
0.060546
0.0617548
0.0628373
0.0637958
0.0646342
0.065359
0.0659849
0.0665413
0.010163
0.0216397
0.0278285
0.0323272
0.0360001
0.039159
0.0419556
0.0444768
0.0467784
0.0488975
0.0508596
0.0526817
0.0543752
0.0559469
0.0574003
0.0587353
0.0599526
0.061053
0.062038
0.0629107
0.0636766
0.0643484
0.0649517
0.00979701
0.02086
0.0268194
0.03116
0.0347161
0.0377867
0.0405154
0.0429837
0.0452434
0.0473289
0.0492638
0.0510644
0.0527419
0.0543036
0.0557538
0.0570933
0.0583231
0.0594437
0.0604561
0.0613626
0.0621676
0.0628819
0.063527
0.00941232
0.0200561
0.0258089
0.030014
0.0334736
0.0364737
0.0391505
0.0415808
0.0438124
0.0458772
0.0477974
0.0495883
0.051261
0.0528232
0.0542794
0.0556316
0.0568805
0.0580266
0.0590703
0.0600131
0.0608583
0.0616145
0.0622998
0.00902086
0.0192527
0.024822
0.028913
0.0322947
0.0352405
0.0378796
0.0402842
0.0424992
0.0445544
0.0464706
0.0482627
0.0499414
0.0515149
0.0529877
0.0543623
0.0556393
0.0568188
0.0579005
0.0588846
0.0597732
0.0605729
0.0612984
0.00863649
0.018478
0.0238877
0.027885
0.0312058
0.0341112
0.0367244
0.0391135
0.0413211
0.0433754
0.0452967
0.0470995
0.0487949
0.0503908
0.0518919
0.0533007
0.0546171
0.0558403
0.0569688
0.0580016
0.058939
0.0597858
0.0605535
0.00827315
0.0177596
0.0230349
0.0269577
0.0302328
0.03311
0.0357066
0.038088
0.040295
0.0423555
0.0442897
0.0461124
0.0478355
0.0494664
0.0510098
0.0524671
0.053837
0.0551169
0.0563037
0.0573942
0.0583872
0.0592853
0.0600976
0.00794298
0.0171208
0.0222881
0.0261553
0.0293987
0.0322577
0.0348452
0.0372244
0.0394361
0.0415086
0.0434632
0.0453162
0.0470798
0.0487616
0.0503648
0.0518891
0.0533306
0.0546838
0.0559426
0.0571018
0.0581582
0.0591124
0.0599713
0.00765475
0.0165781
0.0216664
0.0254977
0.0287226
0.0315719
0.0341553
0.0365359
0.0387558
0.0408457
0.0428296
0.0447258
0.0465477
0.0483019
0.0499895
0.0516059
0.0531426
0.0545898
0.0559374
0.0571775
0.0583049
0.0593187
0.0602242
0.00741283
0.016142
0.0211852
0.0250029
0.0282222
0.0310678
0.0336491
0.0360319
0.0382621
0.0403753
0.0424
0.0443583
0.0462645
0.0481232
0.0499302
0.0516736
0.0533372
0.0549042
0.0563597
0.0576929
0.0588973
0.0599717
0.0609208
0.00721831
0.0158236
0.0208675
0.0246981
0.0279223
0.0307643
0.0333389
0.0357194
0.0379595
0.0401029
0.0421856
0.0442349
0.0462657
0.0482776
0.0502557
0.052175
0.0540067
0.0557245
0.0573079
0.058744
0.060027
0.0611576
0.0621416
0.00707499
0.0156607
0.0207774
0.0246493
0.0278748
0.0306946
0.0332419
0.0356048
0.0378498
0.0400322
0.0421989
0.0443849
0.0466043
0.0488445
0.0510699
0.0532327
0.0552851
0.0571879
0.0589159
0.0604574
0.0618116
0.0629845
0.0639863
0.00701238
0.0158062
0.0211257
0.0250393
0.0282021
0.0309259
0.0333871
0.0356956
0.0379316
0.0401642
0.0424556
0.0448519
0.0473631
0.0499487
0.0525323
0.055029
0.0573641
0.0594833
0.0613608
0.0629944
0.0643957
0.0655824
0.0665725
0.0071785
0.0168508
0.0225997
0.0263663
0.029185
0.0315886
0.0338208
0.0359976
0.0381964
0.0404946
0.0429746
0.0457021
0.0486765
0.05179
0.0548872
0.0578297
0.0605116
0.0628614
0.0648658
0.0665485
0.067947
0.0690984
0.0700328
0.00829648
0.0208657
0.0272216
0.029844
0.0313877
0.0328941
0.0345974
0.0365042
0.0386198
0.0410058
0.0437749
0.0470377
0.0507744
0.0546955
0.0585005
0.0620016
0.0650805
0.067633
0.0696888
0.0713305
0.0726406
0.0736839
0.0745042
0.0137297
0.0329554
0.0389363
0.0374793
0.0355814
0.035048
0.0357236
0.0371673
0.0391446
0.0416516
0.04486
0.0490081
0.0540749
0.0591946
0.0638675
0.0679763
0.0714907
0.074139
0.076085
0.0775329
0.0786312
0.0794738
0.0801145
0.0315236
0.057491
0.0597595
0.0497283
0.0417401
0.0378653
0.0370219
0.0378515
0.0396589
0.0423235
0.046151
0.0517489
0.0593151
0.0659827
0.0713918
0.0759707
0.0801691
0.0826846
0.0842394
0.0852784
0.0860183
0.0865646
0.0869687
0.0856475
0.0910254
0.0860362
0.0620313
0.0473357
0.0402012
0.0379922
0.0383168
0.0399968
0.0428107
0.0472869
0.054816
0.0667996
0.0745834
0.0799331
0.0846579
0.0916304
0.09347
0.0941914
0.0945826
0.0948385
0.0950204
0.095152
0.0316529
0.0277763
0.0252524
0.0242631
0.0494617
0.048003
0.0467262
0.04595
0.058205
0.0571604
0.0560866
0.0551515
0.0641131
0.0631027
0.0620802
0.0611465
0.0685432
0.0676972
0.066875
0.0661149
0.0725273
0.0718395
0.0711711
0.0705318
0.0761023
0.0755304
0.074967
0.0744184
0.079117
0.0786165
0.0781341
0.0776783
0.081673
0.0812539
0.0808467
0.0804671
0.0837441
0.0834009
0.0830767
0.0827965
0.0841364
0.083893
0.0837043
0.0835471
0.0837074
0.083446
0.0832151
0.0829961
0.0828857
0.0825859
0.0822883
0.0819908
0.0820419
0.0817105
0.0813663
0.081014
0.0812022
0.0808607
0.0804947
0.0801132
0.0803216
0.0799943
0.0796342
0.0792525
0.0793371
0.0790453
0.0787145
0.0783588
0.0781969
0.0779542
0.0776696
0.0773581
0.0768761
0.0766893
0.076459
0.076202
0.0753796
0.0752495
0.0750766
0.0748768
0.0737403
0.0736643
0.0735461
0.073402
0.0720071
0.0719799
0.0719128
0.0718201
0.0702381
0.0702542
0.0702326
0.0701867
0.0684906
0.0685453
0.0685644
0.0685599
0.0668169
0.0669063
0.0669615
0.0669939
0.0652641
0.0653833
0.0654715
0.0655373
0.0638733
0.0640197
0.0641372
0.0642334
0.0626774
0.062849
0.062994
0.063118
0.0617072
0.0619032
0.0620738
0.0622238
0.0609931
0.061213
0.0614084
0.0615828
0.060569
0.0608123
0.0610315
0.0612292
0.0604737
0.0607397
0.0609814
0.0612006
0.0607562
0.0610434
0.0613052
0.061543
0.061478
0.0617831
0.0620613
0.0623135
0.0627164
0.0630338
0.0633224
0.0635826
0.064565
0.0648861
0.065176
0.0654352
0.0671351
0.0674471
0.067726
0.0679722
0.0705517
0.0708382
0.0710907
0.0713097
0.0749466
0.0751886
0.0753984
0.0755759
0.0804474
0.0806283
0.0807812
0.080906
0.0871714
0.0872818
0.0873721
0.0874424
0.0952173
0.0952529
0.0952808
0.0953024
0.0297017
0.0353545
0.0386581
0.0411056
0.042512
0.0425275
0.0421137
0.0415925
0.0408751
0.0397231
0.0382978
0.0366811
0.034611
0.0321059
0.029453
0.0263379
0.0220988
0.0153564
0.00666166
0.0457723
0.0454065
0.0454879
0.0461275
0.046696
0.0466685
0.0461837
0.0455027
0.0445895
0.0432974
0.0417092
0.0398916
0.0376564
0.0350579
0.0323359
0.0291678
0.0246263
0.0168262
0.00687847
0.0538189
0.0524352
0.0516771
0.0513243
0.0510267
0.050593
0.0499676
0.0491529
0.0481111
0.0467297
0.0450361
0.043072
0.0407271
0.0380713
0.0352855
0.0320414
0.0273826
0.0193663
0.00816597
0.0597761
0.0583443
0.0572621
0.0564251
0.0556538
0.054757
0.0537461
0.0526364
0.0513699
0.0498468
0.0480514
0.0460083
0.0436695
0.0410642
0.038232
0.0348075
0.0299872
0.0225926
0.0100562
0.0649463
0.0635629
0.0623518
0.0613013
0.0602922
0.0590999
0.0577088
0.0562075
0.0545967
0.0528129
0.050826
0.0486493
0.0462715
0.0436672
0.0407332
0.0371017
0.0321929
0.0251765
0.0125421
0.0695093
0.0682161
0.067018
0.0659053
0.0647612
0.063397
0.0617549
0.0599211
0.0579648
0.0558735
0.0536235
0.0512182
0.0486551
0.0458938
0.0427856
0.0390221
0.0341455
0.0272722
0.0139698
0.0735242
0.0723596
0.071259
0.0701821
0.0689962
0.067531
0.065726
0.0636624
0.0614312
0.0590525
0.056518
0.0538305
0.0509809
0.0479348
0.0445793
0.0406831
0.0357971
0.0287767
0.0145625
0.0769529
0.0760147
0.0751167
0.0741824
0.0730525
0.0715441
0.0696146
0.0673655
0.0649138
0.0622849
0.0594686
0.0564937
0.0533238
0.049927
0.0462612
0.0421361
0.0370821
0.0296887
0.0146647
0.0798866
0.0792336
0.07865
0.0780115
0.0770696
0.075552
0.0734484
0.0709678
0.0683243
0.0654981
0.0623958
0.0591586
0.0557161
0.051921
0.0478868
0.0433349
0.0379007
0.0300909
0.0146178
0.0824083
0.0821615
0.0820415
0.0819015
0.081314
0.0797292
0.077249
0.0743696
0.0715772
0.0686418
0.0651364
0.0612916
0.0574184
0.0534109
0.0492149
0.0440042
0.0378799
0.0299499
0.0149997
0.0832696
0.0830745
0.083077
0.0831847
0.0827974
0.0812098
0.0785901
0.0757304
0.0731469
0.0703966
0.0667587
0.0624635
0.0580073
0.0533918
0.0484789
0.0427355
0.0359993
0.0277567
0.0142748
0.082612
0.0821247
0.0817317
0.0813347
0.0805002
0.0789202
0.0767146
0.0744022
0.0720664
0.069368
0.0658395
0.0615046
0.0568693
0.0520893
0.04689
0.0408299
0.0337371
0.0249494
0.0119994
0.0814792
0.0807484
0.0800512
0.0792791
0.0781095
0.0763711
0.0742279
0.0719756
0.0696231
0.0669062
0.0634329
0.0592178
0.054722
0.0500249
0.0448757
0.0388839
0.0316926
0.0227394
0.0108041
0.080409
0.0794971
0.0785536
0.0775049
0.076149
0.0743304
0.0721423
0.0697738
0.0672705
0.0644415
0.0610637
0.0571371
0.0529177
0.048441
0.043495
0.0377363
0.0308367
0.0221976
0.0104107
0.0794563
0.0784307
0.0773208
0.0761034
0.0746667
0.0728791
0.0707277
0.068322
0.065719
0.0628517
0.0596319
0.0560505
0.0521679
0.0479504
0.043234
0.0377631
0.0311776
0.0227123
0.010597
0.0785915
0.0775324
0.0763515
0.0750675
0.07362
0.0719069
0.069873
0.0675492
0.0649894
0.0621983
0.0591598
0.0558516
0.052242
0.048257
0.0437651
0.0385478
0.0322122
0.0238486
0.01105
0.077737
0.076715
0.0755436
0.0742662
0.0728529
0.0712284
0.0693293
0.0671474
0.0647137
0.0620564
0.0591795
0.0560558
0.0526272
0.0488097
0.0444853
0.039452
0.0332986
0.0250163
0.0115123
0.0768059
0.0758694
0.0747598
0.0735327
0.0721758
0.0706362
0.0688584
0.0668183
0.0645277
0.0620066
0.0592576
0.0562537
0.0529373
0.0492296
0.045022
0.0401218
0.0341153
0.025932
0.0119091
0.075735
0.0749077
0.0738877
0.0727329
0.0714414
0.0699778
0.0682993
0.0663786
0.0642127
0.0618077
0.059159
0.0562404
0.0530024
0.0493764
0.0452629
0.0404791
0.0346168
0.0265715
0.0122321
0.0744989
0.0737871
0.0728665
0.0717931
0.0705706
0.0691762
0.0675791
0.0657542
0.06369
0.0613815
0.0588177
0.0559731
0.0528061
0.0492579
0.0452379
0.0405718
0.0348601
0.026973
0.0124585
0.0731097
0.0725077
0.0716866
0.0706971
0.0695457
0.0682181
0.0666927
0.0649486
0.0629706
0.0607473
0.0582635
0.0554945
0.0524043
0.0489416
0.0450222
0.0404788
0.0349173
0.027184
0.0126006
0.0716058
0.0711035
0.0703769
0.0694709
0.0683924
0.0671324
0.0656761
0.0640065
0.0621079
0.0599658
0.0575632
0.0548758
0.0518711
0.0485023
0.0446892
0.0402684
0.0348483
0.0272603
0.0126703
0.0700415
0.0696263
0.0689879
0.0681637
0.0671597
0.0659698
0.0645839
0.062988
0.0611673
0.0591065
0.0567876
0.0541868
0.0512734
0.0480025
0.0442955
0.0399911
0.0347002
0.0272476
0.0126845
0.068475
0.0681355
0.0675789
0.0668339
0.0659051
0.0647878
0.0634744
0.0619535
0.0602113
0.0582322
0.0559982
0.0534856
0.0506641
0.0474891
0.0438824
0.0396834
0.0345057
0.0271745
0.0126586
0.0669634
0.0666889
0.0662085
0.0655394
0.0646852
0.0636416
0.0624023
0.0609572
0.0592933
0.0573953
0.0552447
0.0528179
0.050084
0.0469978
0.0434807
0.0393735
0.0342927
0.0270699
0.0126104
0.0655561
0.0653403
0.0649288
0.0643321
0.0635509
0.0625808
0.0614154
0.0600454
0.0584583
0.0566385
0.0545672
0.0522204
0.0495663
0.0465586
0.0431182
0.0390871
0.0340861
0.0269558
0.0125539
0.064296
0.0641339
0.0637861
0.0632579
0.062547
0.0616483
0.0605551
0.059258
0.0577442
0.0559982
0.0540003
0.0517255
0.0491412
0.0462
0.0428223
0.0388515
0.0339141
0.0268608
0.0125063
0.0632212
0.0631092
0.0628205
0.0623564
0.0617125
0.0608821
0.059858
0.0586301
0.0571852
0.0555076
0.0535763
0.0513651
0.0488403
0.0459532
0.0426238
0.0386968
0.0338042
0.0268062
0.0124824
0.0623659
0.0623014
0.0620684
0.0616641
0.0610826
0.0603162
0.0593569
0.0581941
0.056814
0.0551994
0.0533282
0.0511728
0.0486979
0.0458532
0.0425579
0.0386582
0.0337905
0.0268197
0.0124935
0.0617624
0.061744
0.0615631
0.0612143
0.0606905
0.0599835
0.0590845
0.0579824
0.0566626
0.0551063
0.0532898
0.051184
0.0487512
0.045939
0.0426654
0.038777
0.0339119
0.0269344
0.0125485
0.0614446
0.0614705
0.0613379
0.0610398
0.0605686
0.0599159
0.0590727
0.0580272
0.0567639
0.0552625
0.0534978
0.0514381
0.0490427
0.046256
0.0429928
0.0390983
0.0342113
0.0271903
0.0126715
0.0614499
0.0615177
0.0614285
0.0611751
0.0607503
0.0601457
0.0593528
0.0583595
0.0571496
0.0557017
0.0539885
0.0519755
0.0496178
0.0468547
0.043595
0.0396791
0.0347413
0.0276269
0.0128789
0.0618228
0.0619278
0.0618751
0.0616582
0.0612707
0.0607057
0.0599555
0.0590085
0.0578487
0.0564541
0.0547955
0.052835
0.0505223
0.0477887
0.0445333
0.0405853
0.0355683
0.0283032
0.0132019
0.0626176
0.0627517
0.0627246
0.0625317
0.0621681
0.061629
0.0609088
0.0599985
0.0588834
0.0575423
0.0559448
0.0540492
0.0517984
0.0491128
0.0458756
0.0418955
0.0367735
0.0292904
0.0136674
0.0639012
0.0640505
0.064033
0.0638452
0.0634838
0.0629478
0.0622356
0.0613441
0.0602633
0.0589744
0.057447
0.0556364
0.053478
0.0508781
0.0476962
0.0437063
0.0384657
0.0306881
0.0143364
0.0657538
0.0658989
0.0658679
0.0656567
0.0652628
0.0646907
0.0639482
0.0630437
0.0619766
0.0607337
0.0592867
0.0575895
0.0555716
0.0531239
0.0500739
0.0461398
0.0407973
0.0326443
0.0152798
0.0682722
0.0683877
0.0683127
0.0680367
0.0675552
0.0668809
0.066042
0.0650695
0.0639796
0.0627676
0.0614096
0.059862
0.0580536
0.0558642
0.0530858
0.0493535
0.0439973
0.0354026
0.0166463
0.0715693
0.0716277
0.0714724
0.0710746
0.0704173
0.0695312
0.0684854
0.0673554
0.0661836
0.0649749
0.0637097
0.0623521
0.0608421
0.0590657
0.0567909
0.0535489
0.0484157
0.0393855
0.0186902
0.0757749
0.0757539
0.0754851
0.074893
0.0739174
0.0726344
0.0712026
0.0697809
0.0684439
0.0671975
0.0660207
0.0648897
0.0637761
0.0626112
0.0611913
0.058958
0.0545657
0.0453375
0.0219919
0.0810331
0.0809306
0.0805396
0.0796783
0.0781319
0.0761267
0.0740366
0.0721488
0.0705519
0.0692219
0.0681185
0.0672321
0.0665932
0.0662476
0.066151
0.0657954
0.0630853
0.0545116
0.0279203
0.0875008
0.0873531
0.0869033
0.0857528
0.0830749
0.0797561
0.076662
0.0741534
0.0722357
0.0707932
0.0697396
0.0690757
0.0689152
0.0695102
0.0712507
0.0742895
0.0744577
0.0690271
0.0403564
0.0953151
0.0952292
0.0949416
0.0938069
0.0881481
0.0826712
0.0784429
0.0753721
0.0731976
0.071666
0.070636
0.0701122
0.0702849
0.0716576
0.075505
0.0858464
0.0886042
0.0915175
0.0695143
)
;

boundaryField
{
    leftWall
    {
        type            kqRWallFunction;
        value           nonuniform List<scalar> 
50
(
0.000774229
0.00196603
0.00278313
0.00350549
0.00420925
0.00498569
0.00591987
0.00704877
0.00856595
0.011028
0.0135718
0.0161669
0.0188795
0.0216836
0.0227481
0.022311
0.0219262
0.0231746
0.025601
0.0286251
0.0278531
0.0253916
0.0221977
0.0195071
0.0171292
0.015127
0.0135827
0.0125682
0.0119184
0.0114721
0.011129
0.0108196
0.0105033
0.010163
0.00979701
0.00941232
0.00902086
0.00863649
0.00827315
0.00794298
0.00765475
0.00741283
0.00721831
0.00707499
0.00701238
0.0071785
0.00829648
0.0137297
0.0315236
0.0856475
)
;
    }
    rightWall
    {
        type            kqRWallFunction;
        value           nonuniform List<scalar> 
50
(
0.0011889
0.0027473
0.00401196
0.00542417
0.00772456
0.00909842
0.00839007
0.00740419
0.00666166
0.00687847
0.00816597
0.0100562
0.0125421
0.0139698
0.0145625
0.0146647
0.0146178
0.0149997
0.0142748
0.0119994
0.0108041
0.0104107
0.010597
0.01105
0.0115123
0.0119091
0.0122321
0.0124585
0.0126006
0.0126703
0.0126845
0.0126586
0.0126104
0.0125539
0.0125063
0.0124824
0.0124935
0.0125485
0.0126715
0.0128789
0.0132019
0.0136674
0.0143364
0.0152798
0.0166463
0.0186902
0.0219919
0.0279203
0.0403564
0.0695143
)
;
    }
    lowerWall
    {
        type            kqRWallFunction;
        value           nonuniform List<scalar> 
62
(
0.000774229
0.0022751
0.00362982
0.00478964
0.00582013
0.00674658
0.00757593
0.00830548
0.00892805
0.00943547
0.00982061
0.0100795
0.0102112
0.0102175
0.0101181
0.00995756
0.00970258
0.00933144
0.00880384
0.00804192
0.00689629
0.00499852
0.00162948
0.00162948
0.00466971
0.00708748
0.00927298
0.0112851
0.0133478
0.0160603
0.0219786
0.0316529
0.0277763
0.0252524
0.0242631
0.00151854
0.00421691
0.00607741
0.00735636
0.00871333
0.0110474
0.0152353
0.021231
0.00151854
0.00464794
0.00647327
0.00750939
0.00808537
0.00842629
0.00835901
0.00837925
0.008929
0.0091711
0.00881891
0.00796473
0.00724078
0.00707772
0.00642662
0.00558705
0.00462262
0.0031788
0.0011889
)
;
    }
    atmosphere
    {
        type            inletOutlet;
        inletValue      uniform 0.1;
        value           nonuniform List<scalar> 
46
(
0.1
0.1
0.1
0.0620313
0.0473357
0.0402012
0.0379922
0.0383168
0.0399968
0.0428107
0.0472869
0.054816
0.0667996
0.0745834
0.0799331
0.0846579
0.1
0.1
0.1
0.1
0.1
0.1
0.1
0.1
0.1
0.1
0.1
0.1
0.1
0.1
0.1
0.0881481
0.0826712
0.0784429
0.0753721
0.0731976
0.071666
0.070636
0.0701122
0.0702849
0.0716576
0.075505
0.1
0.1
0.1
0.1
)
;
    }
    defaultFaces
    {
        type            empty;
    }
}


// ************************************************************************* //
