/*--------------------------------*- C++ -*----------------------------------*\
  =========                 |
  \\      /  F ield         | OpenFOAM: The Open Source CFD Toolbox
   \\    /   O peration     | Website:  https://openfoam.org
    \\  /    A nd           | Version:  13
     \\/     M anipulation  |
\*---------------------------------------------------------------------------*/
FoamFile
{
    format      ascii;
    class       volScalarField;
    location    "2.5";
    object      nut;
}
// * * * * * * * * * * * * * * * * * * * * * * * * * * * * * * * * * * * * * //

dimensions      [0 2 -1 0 0 0 0];

internalField   nonuniform List<scalar> 
2268
(
1.84615e-05
3.19139e-05
4.05688e-05
4.67302e-05
5.1566e-05
5.55253e-05
5.88199e-05
6.15572e-05
6.37913e-05
6.55513e-05
6.68525e-05
6.77053e-05
6.81164e-05
6.80831e-05
6.75965e-05
6.68756e-05
6.58065e-05
6.43179e-05
6.2262e-05
5.93216e-05
5.47908e-05
4.64103e-05
2.73288e-05
6.20979e-05
0.000259309
0.000382447
0.000472052
0.000539879
0.000592183
0.000632832
0.000664235
0.000687895
0.000704769
0.000715449
0.00072029
0.000719453
0.000712703
0.000697823
0.000675116
0.000647122
0.000614348
0.000576136
0.000530217
0.000470733
0.000377478
9.6034e-05
7.42056e-05
0.000426928
0.000708642
0.000925148
0.00109131
0.0012189
0.00131672
0.00139085
0.00144527
0.00148254
0.00150423
0.00151131
0.00150428
0.001483
0.00144581
0.00139376
0.00133029
0.00125605
0.00116886
0.00106154
0.000914587
0.000665016
0.00011794
8.3676e-05
0.000543205
0.00096443
0.00129949
0.00156
0.001761
0.00191526
0.00203208
0.00211775
0.00217634
0.00221044
0.00222168
0.00221109
0.00217912
0.00212541
0.00205102
0.0019593
0.00184999
0.00171824
0.00154966
0.00130678
0.000887128
0.000134883
9.2056e-05
0.000635946
0.00117637
0.00161375
0.00195601
0.00222105
0.00242505
0.00258011
0.00269449
0.00277359
0.00282088
0.00283861
0.00282838
0.00279126
0.00272783
0.00263914
0.00252741
0.00239091
0.00222125
0.0019955
0.00165676
0.00107083
0.000149038
0.000100576
0.000716675
0.00136171
0.00188691
0.0022983
0.00261726
0.00286333
0.00305112
0.00319066
0.0032885
0.00334887
0.00337459
0.00336771
0.00332982
0.00326212
0.00316555
0.00304085
0.00288449
0.00268419
0.00240823
0.00198043
0.00123793
0.000162219
0.000109929
0.000793478
0.00153085
0.00213198
0.00260182
0.0029658
0.00324688
0.0034621
0.00362313
0.00373754
0.00381022
0.00384449
0.00384277
0.00380702
0.00373885
0.00363916
0.00350711
0.00333743
0.00311434
0.00279851
0.00229673
0.00141246
0.000178479
0.000120115
0.000876441
0.00169194
0.00235777
0.00287693
0.00327842
0.00358859
0.00382674
0.00400595
0.00413473
0.00421861
0.00426131
0.0042656
0.0042337
0.00416756
0.00406809
0.00393316
0.00375608
0.00351858
0.00317703
0.00262916
0.0016394
0.000210678
2.61174e-05
4.5018e-05
5.29597e-05
5.70646e-05
5.94794e-05
6.08642e-05
6.06411e-05
6.11241e-05
6.36074e-05
6.4115e-05
6.26723e-05
5.95458e-05
5.68983e-05
5.63029e-05
5.31368e-05
4.94741e-05
4.49548e-05
3.72626e-05
2.26519e-05
0.000101556
0.000339318
0.000435181
0.000480756
0.000511977
0.000544808
0.000537714
0.000534071
0.000584731
0.000594587
0.000590527
0.000582834
0.000555
0.000531972
0.000492366
0.000448699
0.00038779
0.000283925
8.13496e-05
0.000121757
0.000557797
0.000793491
0.000925728
0.000994381
0.00103305
0.00104109
0.00105952
0.00112202
0.0011391
0.00113635
0.00112387
0.00107891
0.00101902
0.000938545
0.000837435
0.000694833
0.000463024
9.91543e-05
0.00013277
0.000679248
0.00105678
0.00129667
0.00141414
0.00145536
0.00148458
0.00151882
0.00157576
0.00158412
0.00157789
0.00156008
0.00149946
0.00140795
0.00129377
0.00114302
0.000930804
0.000606499
0.000116324
0.000142084
0.000721897
0.00123508
0.00159467
0.00178042
0.00183249
0.00188032
0.00192297
0.00196784
0.00195778
0.00194205
0.00191532
0.00183861
0.00172164
0.00157981
0.00139078
0.00112283
0.000724129
0.000140356
0.000158032
0.000710172
0.00134382
0.00182987
0.00210082
0.002188
0.00224479
0.00228997
0.00231981
0.00229081
0.00225957
0.0022172
0.00212268
0.00198542
0.00182208
0.00159576
0.00126696
0.000791321
0.000151277
0.000185353
0.000701284
0.00142404
0.00202673
0.002381
0.00252059
0.00259056
0.00263365
0.00264765
0.0026037
0.00255367
0.00248931
0.0023728
0.00221985
0.0020347
0.00176794
0.00137707
0.000818522
0.000146179
0.000221323
0.000771558
0.00155128
0.0022195
0.00263597
0.00282687
0.00291563
0.00295739
0.00295749
0.00290107
0.00283254
0.00274442
0.00260315
0.00243341
0.00222487
0.00191991
0.00146933
0.000820992
0.000137358
0.000132509
0.00101142
0.00193747
0.00268858
0.00327206
0.00372221
0.00406989
0.00433769
0.00454071
0.00468882
0.00478846
0.00484413
0.00485916
0.00483624
0.00477733
0.00468233
0.00454871
0.00436841
0.00412176
0.00376615
0.00321777
0.00234306
0.0011064
0.000149913
0.00119402
0.00226325
0.0031114
0.00376117
0.00425777
0.00463923
0.00493266
0.00515594
0.00532062
0.00543435
0.00550249
0.00552906
0.00551716
0.00546824
0.0053822
0.00525743
0.005087
0.00485555
0.00453504
0.00408284
0.00345769
0.00268738
0.000165473
0.00134484
0.00254733
0.00348818
0.00419837
0.00473448
0.00514236
0.00545413
0.00569088
0.00586629
0.00598948
0.00606683
0.00610309
0.00610188
0.00606505
0.00599237
0.00588379
0.00573433
0.00553418
0.00526884
0.00492278
0.00449263
0.00401392
0.00017957
0.00145963
0.00278773
0.00381252
0.00457785
0.00515058
0.00558243
0.00590927
0.00615603
0.00633905
0.00646928
0.00655438
0.00659981
0.00660961
0.00658615
0.0065303
0.00644179
0.00631781
0.00615284
0.00594084
0.00567831
0.00537075
0.00504117
0.000192816
0.00160335
0.003004
0.00408518
0.00489636
0.00550379
0.0059583
0.00629875
0.00655377
0.00674279
0.006879
0.00697144
0.00702633
0.00704804
0.00703932
0.00700189
0.00693589
0.00683927
0.00670874
0.00654287
0.00634235
0.00611411
0.00587732
0.000204597
0.00169266
0.00315743
0.00428909
0.0051441
0.00578528
0.00626335
0.00661839
0.00688192
0.0070769
0.00721933
0.00731986
0.00738538
0.00742041
0.00742786
0.00740951
0.00736558
0.0072951
0.0071972
0.00707201
0.00692211
0.00675502
0.006585
0.000207455
0.00173837
0.00323786
0.00440982
0.00530724
0.0059856
0.00649208
0.00686606
0.0071411
0.00734395
0.00749395
0.007604
0.00768168
0.00773156
0.00775639
0.00775767
0.00773574
0.0076905
0.00762225
0.00753224
0.00742375
0.00730332
0.00718064
0.000206049
0.00171661
0.0032242
0.00443773
0.00538298
0.00610386
0.00664442
0.00704278
0.00733398
0.00754834
0.00770868
0.00782992
0.00792108
0.00798678
0.00802945
0.00805023
0.00804954
0.00802775
0.00798568
0.00792498
0.00784879
0.00776214
0.00767138
0.000206464
0.00162707
0.00313763
0.00438509
0.00539035
0.00615613
0.00673075
0.00715563
0.00746615
0.00769514
0.00786839
0.00800285
0.00810857
0.00819046
0.00825076
0.00829029
0.00830937
0.00830848
0.00828861
0.00825141
0.00819957
0.0081368
0.00806757
0.000216333
0.00164707
0.00314799
0.00437868
0.00540649
0.00618755
0.00677908
0.00722145
0.007548
0.00779183
0.0079793
0.00812825
0.00824916
0.00834727
0.0084246
0.00848172
0.00851874
0.00853601
0.0085345
0.00851586
0.00848243
0.00843672
0.0083816
0.000223035
0.00163177
0.00328898
0.00449642
0.00545511
0.0062174
0.00680182
0.00724733
0.00758477
0.00784274
0.00804564
0.0082108
0.00834824
0.00846251
0.00855543
0.00862754
0.00867908
0.00871052
0.0087228
0.0087174
0.00869639
0.00866146
0.0086139
0.000236778
0.00190557
0.00345068
0.00458017
0.00546613
0.00618712
0.0067648
0.00721698
0.00756859
0.00784456
0.00806665
0.00825082
0.00840615
0.00853695
0.00864498
0.00873095
0.00879535
0.00883888
0.00886256
0.00886774
0.00885611
0.00882929
0.00878911
0.000237603
0.00197633
0.00348864
0.00457746
0.00542496
0.00611863
0.00668683
0.00714455
0.00751125
0.00780778
0.00805197
0.00825686
0.00843078
0.00857801
0.00870053
0.0087994
0.00887552
0.00892989
0.00896368
0.00897822
0.00897493
0.00895524
0.00892071
0.000227997
0.00192739
0.00341665
0.00449253
0.00532572
0.00600743
0.00657279
0.00703941
0.0074238
0.00774254
0.00800967
0.00823562
0.00842798
0.00859117
0.00872754
0.00883868
0.00892594
0.00899066
0.00903417
0.00905779
0.00906275
0.00905035
0.00902206
0.00021322
0.00183124
0.00327629
0.00434143
0.00517386
0.00585676
0.00642861
0.00690931
0.00731394
0.00765569
0.00794561
0.00819229
0.00840259
0.00858115
0.00873086
0.00885385
0.00895194
0.0090268
0.00907995
0.0091127
0.00912618
0.00912157
0.00910034
0.000199948
0.00171132
0.00310029
0.00415174
0.0049872
0.00567926
0.00626465
0.00676342
0.00718954
0.00755393
0.00786553
0.00813176
0.00835906
0.00855226
0.00871478
0.00884925
0.00895796
0.00904289
0.00910572
0.0091478
0.00917019
0.00917401
0.00916072
0.000187377
0.00159138
0.00291617
0.00394962
0.00478817
0.00549209
0.00609371
0.00661158
0.00705833
0.00744346
0.00777456
0.0080585
0.00830143
0.00850831
0.00868296
0.00882849
0.0089476
0.00904252
0.00911509
0.00916672
0.00919842
0.0092113
0.00920677
0.000175816
0.00148202
0.00274283
0.00375648
0.00459651
0.00531114
0.00592761
0.00646241
0.00692685
0.00732946
0.00767716
0.00797645
0.00823325
0.00845255
0.0086385
0.00879459
0.0089238
0.00902858
0.0091109
0.0091722
0.00921352
0.00923591
0.0092408
0.000165894
0.00138727
0.00259172
0.0035868
0.00442614
0.00514796
0.0057752
0.00632243
0.00680013
0.00721616
0.00757708
0.00788899
0.00815758
0.00838786
0.00858417
0.0087502
0.00888914
0.00900357
0.00909552
0.0091665
0.00921751
0.00924965
0.00926424
0.000158721
0.00130804
0.00246899
0.00344828
0.00428469
0.0050092
0.00564183
0.00619608
0.00668183
0.00710674
0.00747725
0.00779898
0.00807719
0.00831692
0.00852254
0.00869785
0.00884606
0.00896981
0.00907116
0.00915162
0.00921223
0.00925403
0.00927829
0.000153959
0.00125204
0.00238068
0.00334549
0.00417579
0.00489818
0.00553092
0.00608692
0.00657577
0.00700503
0.007381
0.00770916
0.00799463
0.00824231
0.00845619
0.00864001
0.00879695
0.00892961
0.00903999
0.0091296
0.00919947
0.00925063
0.00928421
0.000150668
0.00121998
0.00232574
0.00327666
0.0040978
0.00481365
0.00544176
0.00599486
0.00648253
0.00691235
0.00729057
0.00762254
0.0079131
0.00816681
0.00838766
0.00857916
0.00874423
0.00888527
0.00900422
0.00910252
0.00918117
0.00924118
0.00928355
0.000148219
0.0012041
0.00229471
0.003233
0.00404338
0.00474999
0.00537041
0.00591754
0.00640113
0.00682885
0.00720696
0.00754073
0.00783475
0.00809322
0.0083199
0.00851804
0.00869036
0.00883912
0.00896608
0.00907249
0.00915934
0.00922755
0.009278
0.000146121
0.00119581
0.0022763
0.00320368
0.00400333
0.00469995
0.00531158
0.00585147
0.00632963
0.00675391
0.00713059
0.00746489
0.00776122
0.00802348
0.00825512
0.00845913
0.00863797
0.00879367
0.00892783
0.00904165
0.00913601
0.00921166
0.00926939
0.00014404
0.00118869
0.00226135
0.00317947
0.0039695
0.00465689
0.0052602
0.00579308
0.00626586
0.00668652
0.00706142
0.00739574
0.00769379
0.00795922
0.00819518
0.00840439
0.00858909
0.00875107
0.00889174
0.00901219
0.00911318
0.00919544
0.00925958
0.000141806
0.00117914
0.00224417
0.00315426
0.00393622
0.00461593
0.00521236
0.00573949
0.00620785
0.00662558
0.0069991
0.0073336
0.00763327
0.0079016
0.0081415
0.00835545
0.00854544
0.00871305
0.00885953
0.00898583
0.00909265
0.00918063
0.00925027
0.000139363
0.00116579
0.0022223
0.0031251
0.00390047
0.00457428
0.00516565
0.0056887
0.00615412
0.00657012
0.00694317
0.00727844
0.00758005
0.00785134
0.00809506
0.00831343
0.00850825
0.00868091
0.0088325
0.00896384
0.00907559
0.00916832
0.00924245
0.000136733
0.00114881
0.00219554
0.0030914
0.00386135
0.00453084
0.00511888
0.00563957
0.00610363
0.00651929
0.00689302
0.00722993
0.00753409
0.00780868
0.00805628
0.00827892
0.0084782
0.00865535
0.00881129
0.0089468
0.00906248
0.0091589
0.00923645
0.00013398
0.00112916
0.002165
0.00305397
0.00381922
0.00448553
0.0050716
0.00559141
0.00605558
0.00647229
0.00684793
0.00718752
0.00749499
0.0077734
0.00802512
0.00825197
0.00845537
0.00863638
0.00879586
0.00893451
0.00905298
0.00915187
0.00923165
0.000131196
0.00110809
0.00213219
0.00301398
0.00377474
0.00443848
0.00502353
0.00554361
0.00600917
0.00642823
0.00680702
0.0071504
0.00746211
0.00774497
0.00800111
0.00823212
0.00843921
0.00862334
0.00878531
0.00892586
0.00904574
0.00914572
0.00922638
0.00012848
0.00108664
0.0020982
0.00297215
0.00372811
0.00438942
0.004974
0.00549527
0.00596336
0.00638606
0.00676933
0.00711774
0.00743469
0.0077227
0.00798354
0.00821851
0.00842865
0.00861482
0.0087779
0.00891878
0.00903845
0.00913789
0.00921797
0.000125928
0.00106535
0.00206323
0.00292814
0.00367852
0.00433721
0.00492171
0.00544503
0.0059169
0.00634467
0.00673392
0.00708875
0.00741209
0.00770592
0.00797155
0.00820995
0.00842202
0.0086087
0.00877105
0.00891031
0.00902784
0.009125
0.00920297
0.000123618
0.00104413
0.00202638
0.00288037
0.00362399
0.00427975
0.00486469
0.00539119
0.00586838
0.00630304
0.00670012
0.00706304
0.00739396
0.00769411
0.0079642
0.00820489
0.0084171
0.00860207
0.00876136
0.00889674
0.00901008
0.00910319
0.00917766
0.000121601
0.00102243
0.00198594
0.00282628
0.00356163
0.00421429
0.00480056
0.00533193
0.00581663
0.00626057
0.00666782
0.00704076
0.00738041
0.00768693
0.00796036
0.00820125
0.00841093
0.00859136
0.0087449
0.00887408
0.00898136
0.00906902
0.00913896
0.000119911
0.00099968
0.00194
0.00276292
0.00348818
0.00413787
0.00472708
0.00526583
0.00576103
0.00621739
0.00663769
0.00702277
0.00737195
0.007684
0.00795843
0.00819627
0.00839995
0.00857269
0.00871797
0.00883911
0.00893912
0.00902058
0.00908562
0.000118623
0.000976394
0.00188783
0.0026882
0.00340111
0.00404831
0.00464282
0.00519237
0.00570195
0.00617461
0.00661131
0.0070106
0.0073693
0.00768459
0.00795619
0.00818674
0.0083808
0.00854331
0.00867881
0.00879122
0.00888381
0.00895927
0.00901973
0.000118087
0.000956864
0.00183372
0.00260477
0.00330167
0.00394628
0.00454854
0.00511273
0.0056411
0.00613446
0.00659115
0.00700625
0.00737309
0.00768753
0.00795132
0.00817057
0.00835275
0.00850437
0.00863046
0.00873497
0.00882108
0.00889136
0.00894789
0.000119858
0.00095829
0.00180357
0.00253464
0.0032041
0.00384014
0.00444947
0.00503081
0.00558193
0.00610024
0.00658026
0.00701191
0.00738388
0.00769205
0.00794392
0.00815065
0.00832213
0.00846518
0.00858412
0.00868241
0.0087631
0.00882879
0.00888155
0.00013093
0.00104059
0.00190201
0.00256005
0.00315578
0.00375417
0.00435839
0.00495414
0.00552951
0.00607578
0.00658161
0.00702963
0.007403
0.00770103
0.00794215
0.00814126
0.00830791
0.00844683
0.00856075
0.0086532
0.00872787
0.00878786
0.00883559
0.00017389
0.00134801
0.00238245
0.00286236
0.00325199
0.00373185
0.00429551
0.00489319
0.00548955
0.00606397
0.00659645
0.00706046
0.0074349
0.00772785
0.00796962
0.00817288
0.00834407
0.00848147
0.00858816
0.00867071
0.0087351
0.00878563
0.00882511
0.000260016
0.00202673
0.00355823
0.00360373
0.00356976
0.00380688
0.00427681
0.00485642
0.00546552
0.0060639
0.0066204
0.00710024
0.00748856
0.00780078
0.00806054
0.00828051
0.00847388
0.0086044
0.00869208
0.008754
0.00879979
0.00883463
0.00886135
0.000417772
0.00359552
0.00611678
0.00466536
0.00398384
0.00392769
0.00428936
0.00484275
0.00545581
0.00606836
0.00663846
0.00712726
0.00755856
0.00792018
0.00819709
0.00844046
0.00874521
0.00884172
0.0088842
0.00890915
0.00892629
0.00893893
0.00894846
0.000253998
0.000238233
0.000227428
0.000221528
0.00208243
0.00190013
0.0018132
0.00179519
0.00368059
0.00350285
0.00337628
0.0033024
0.0048165
0.00468474
0.00457695
0.0044958
0.00571856
0.005625
0.00554411
0.00547854
0.00647143
0.00640418
0.00634422
0.00629236
0.00709682
0.00704646
0.00700034
0.0069589
0.00760625
0.00756626
0.00752866
0.00749378
0.00801512
0.00798184
0.00794945
0.00791831
0.00833707
0.00830775
0.00827835
0.0082495
0.00857361
0.00854703
0.00852024
0.00849263
0.00875174
0.0087255
0.00869774
0.00866807
0.00888498
0.00885912
0.00883074
0.00879969
0.0089891
0.00896416
0.00893597
0.00890462
0.00907115
0.00904786
0.00902077
0.00899018
0.00913627
0.00911541
0.00909033
0.00906151
0.00918798
0.00917027
0.00914801
0.00912187
0.00922833
0.00921432
0.00919554
0.00917278
0.00925849
0.00924853
0.00923365
0.00921474
0.00927934
0.00927358
0.0092628
0.00924794
0.00929192
0.00929034
0.00928366
0.00927286
0.00929756
0.0093
0.00929731
0.00929042
0.00929789
0.00930411
0.00930517
0.00930196
0.00929469
0.00930441
0.00930895
0.00930914
0.0092897
0.0093026
0.00931032
0.00931357
0.00928446
0.00930014
0.00931068
0.00931666
0.00928005
0.00929807
0.00931099
0.00931931
0.0092767
0.00929659
0.00931144
0.00932165
0.00927374
0.00929497
0.00931125
0.00932287
0.0092694
0.00929142
0.00930858
0.00932113
0.00926099
0.00928319
0.00930071
0.00931371
0.00924505
0.0092669
0.00928427
0.0092973
0.00921802
0.00923908
0.00925594
0.00926865
0.00917711
0.00919714
0.00921327
0.00922552
0.00912147
0.00914045
0.00915588
0.00916771
0.00905354
0.00907163
0.00908651
0.00909808
0.00897997
0.00899735
0.00901182
0.00902323
0.00891182
0.00892836
0.00894225
0.00895332
0.00886304
0.0088781
0.00889078
0.00890088
0.00884772
0.00886012
0.00887048
0.00887864
0.00887659
0.00888491
0.00889178
0.00889704
0.00895386
0.00895681
0.00895922
0.00896103
0.000569493
0.00121292
0.00193079
0.00257523
0.00302693
0.00327624
0.00339588
0.00343781
0.00342049
0.00334816
0.00325034
0.00312436
0.00295196
0.00274758
0.00249161
0.00212959
0.00159211
0.000798145
0.000128336
0.00196243
0.00230884
0.00276739
0.00323138
0.00359804
0.0038376
0.00396383
0.00400144
0.00396945
0.00387944
0.0037519
0.00358755
0.00337874
0.00312832
0.00281905
0.00240264
0.00179582
0.000891427
0.000129927
0.00326814
0.00342123
0.0036972
0.00399182
0.00423504
0.00440742
0.00450118
0.00451687
0.0044651
0.0043559
0.00420242
0.00400711
0.00376609
0.00347717
0.00312576
0.00266951
0.00203132
0.00107057
0.000142202
0.00441383
0.00446431
0.00460745
0.00476875
0.00490217
0.0049919
0.00502817
0.00500478
0.00492361
0.00478957
0.0046101
0.00438753
0.00411906
0.00379989
0.00341539
0.00292755
0.00226637
0.00130886
0.000157645
0.00539878
0.00538977
0.00544083
0.00550587
0.00555421
0.00557004
0.00554504
0.00547414
0.00535546
0.00519014
0.00498124
0.00472994
0.00443395
0.00408694
0.00367269
0.00315437
0.00245961
0.00143934
0.000176779
0.00622154
0.00618003
0.0061728
0.00617227
0.00615733
0.00611474
0.00603668
0.00591933
0.00576101
0.00556104
0.00531974
0.00503689
0.00471
0.0043324
0.00388767
0.00334002
0.00261187
0.00153205
0.00018701
0.00689762
0.00683905
0.00679641
0.00675298
0.00669317
0.00660597
0.00648485
0.00632719
0.0061317
0.00589699
0.00562211
0.0053058
0.00494492
0.00453304
0.00405497
0.0034762
0.00271565
0.00159062
0.00019082
0.00743981
0.00737587
0.00731478
0.00724434
0.00715332
0.00703239
0.0068766
0.00668457
0.00645555
0.00618762
0.00587905
0.0055284
0.00513113
0.00468142
0.004167
0.0035542
0.00276377
0.00161373
0.000191187
0.00786816
0.0078014
0.00772996
0.00764397
0.00753246
0.00738598
0.00720129
0.00697939
0.00672074
0.00642193
0.00607949
0.00569368
0.00525847
0.00476741
0.00421511
0.00356644
0.00275197
0.00160196
0.000189408
0.00820198
0.0081347
0.00805847
0.0079649
0.00784125
0.00767395
0.00746189
0.00721063
0.00692406
0.00659454
0.00621329
0.00578385
0.00530881
0.00478042
0.00419456
0.00350798
0.00267395
0.00155836
0.000193686
0.00844367
0.00836828
0.00828199
0.00817928
0.00804531
0.00786249
0.00762993
0.00735569
0.00704408
0.00668617
0.00627078
0.00579954
0.00527791
0.00470102
0.00406471
0.00334019
0.00248929
0.00142456
0.000195287
0.00861518
0.00852789
0.00842608
0.00830537
0.00815339
0.00795686
0.00771178
0.00742196
0.00708836
0.00670543
0.00626358
0.00575596
0.00518655
0.00456147
0.00387703
0.0031055
0.00222156
0.00119938
0.000177447
0.00874381
0.00864889
0.008537
0.00840286
0.00823516
0.00802273
0.00776175
0.00745479
0.00710211
0.00669761
0.00622856
0.00568676
0.00507984
0.0044147
0.00368715
0.00288002
0.00198445
0.00101446
0.000165174
0.00884768
0.00874903
0.00863052
0.00848696
0.00830874
0.00808564
0.00781382
0.00749438
0.00712678
0.0067041
0.00621528
0.00565259
0.00502137
0.00432763
0.00356986
0.00274136
0.00185062
0.000935416
0.000158909
0.00893409
0.0088351
0.00871362
0.00856528
0.00838235
0.0081562
0.00788191
0.00755868
0.00718462
0.0067536
0.00625715
0.00568909
0.00505091
0.00434561
0.00357344
0.00273553
0.00184514
0.000936675
0.000158245
0.00900814
0.00891204
0.00879151
0.00864328
0.00846111
0.00823781
0.00796823
0.00764967
0.0072792
0.00685153
0.00636007
0.00579937
0.00516774
0.00446485
0.00369035
0.00284588
0.00194008
0.000996288
0.000161016
0.00907285
0.0089824
0.00886626
0.00872215
0.00854502
0.00832886
0.00806864
0.00776066
0.00740126
0.00698559
0.00650759
0.00596171
0.00534368
0.00464994
0.00387712
0.00302274
0.00208711
0.00108241
0.000164523
0.00912935
0.00904657
0.00893728
0.00880001
0.00863066
0.00842411
0.00817565
0.00788117
0.00753656
0.00713684
0.00667579
0.00614712
0.00554442
0.00486092
0.00408917
0.0032208
0.00224736
0.00117175
0.00016774
0.00917766
0.00910366
0.00900262
0.00887366
0.00871339
0.00851739
0.00828126
0.0080008
0.00767155
0.00728817
0.00684396
0.00633169
0.00574302
0.00506823
0.00429562
0.00341095
0.00239821
0.00125378
0.000170689
0.0092175
0.00915264
0.00906033
0.00894013
0.00878918
0.00860354
0.00837914
0.00811172
0.00779659
0.00742798
0.00699868
0.00650049
0.00592338
0.00525498
0.0044798
0.00357853
0.00252938
0.00132417
0.00017289
0.00924899
0.00919301
0.00910928
0.00899759
0.0088555
0.00867943
0.00846551
0.0082095
0.00790648
0.00755036
0.00713343
0.00664661
0.00607842
0.00541426
0.0046355
0.0037189
0.00263828
0.00138054
0.000174364
0.00927279
0.00922509
0.00914937
0.0090456
0.00891158
0.00874399
0.00853912
0.00829272
0.00799972
0.00765375
0.0072467
0.0067687
0.00620709
0.00554549
0.00476287
0.00383289
0.00272577
0.00142506
0.000175248
0.00929015
0.00924993
0.00918149
0.00908485
0.008958
0.00879777
0.00860056
0.00836212
0.00807725
0.00773936
0.00734001
0.0068687
0.00631181
0.00565163
0.00486532
0.00392432
0.00279544
0.00146072
0.000175704
0.00930261
0.00926901
0.00920708
0.00911678
0.0089962
0.00884232
0.00865157
0.00841969
0.00814138
0.00780988
0.00741649
0.00695018
0.0063966
0.00573707
0.00494738
0.00399712
0.00285107
0.0014892
0.000175852
0.00931178
0.00928394
0.00922777
0.00914306
0.00902796
0.00887955
0.00869428
0.00846786
0.00819491
0.00786851
0.00747973
0.00701714
0.00646585
0.00580642
0.00501367
0.00405571
0.00289595
0.00151247
0.000175821
0.00931902
0.00929614
0.00924498
0.00916518
0.0090549
0.00891126
0.00873073
0.00850898
0.00824051
0.00791828
0.00753314
0.00707333
0.00652356
0.00586381
0.00506813
0.00410363
0.00293248
0.00153126
0.000175709
0.00932516
0.00930648
0.00925963
0.00918415
0.00907813
0.00893875
0.00876245
0.00854482
0.00828028
0.00796161
0.00757948
0.00712183
0.00657302
0.00591261
0.00511404
0.00414373
0.00296292
0.00154721
0.000175638
0.00933032
0.00931507
0.00927187
0.00920017
0.00909803
0.00896256
0.00879018
0.00857639
0.00831548
0.00800008
0.00762064
0.00716484
0.00661673
0.00595548
0.00515403
0.00417822
0.00298852
0.00156025
0.000175683
0.00933367
0.0093211
0.009281
0.00921263
0.00911402
0.00898223
0.00881365
0.00860367
0.00834644
0.00803436
0.00765765
0.00720373
0.00665633
0.0059943
0.00519007
0.00420912
0.00301127
0.00157166
0.000175933
0.00933335
0.00932281
0.00928531
0.00921997
0.00912471
0.00899657
0.00883186
0.00862589
0.00837259
0.00806416
0.00769054
0.00723884
0.00669246
0.0060299
0.00522339
0.0042379
0.00303275
0.00158269
0.000176498
0.00932666
0.00931757
0.00928231
0.00921979
0.00912788
0.00900354
0.00884302
0.00864149
0.00839272
0.00808864
0.00771889
0.00727018
0.00672554
0.0060631
0.00525479
0.00426525
0.0030537
0.00159462
0.00017751
0.0093104
0.00930235
0.00926912
0.00920941
0.00912098
0.00900077
0.00884494
0.00864856
0.00840523
0.0081066
0.00774193
0.00729747
0.00675576
0.00609452
0.00528537
0.00429272
0.00307549
0.00160764
0.000179174
0.00928153
0.00927436
0.00924316
0.00918642
0.00910178
0.00898616
0.00883569
0.00864541
0.00840874
0.00811706
0.00775916
0.00732075
0.0067837
0.00612518
0.00531647
0.0043218
0.00309989
0.00162356
0.000181612
0.00923805
0.00923188
0.00920293
0.00914946
0.00906904
0.00895858
0.00881428
0.00863121
0.00840271
0.00811984
0.00777092
0.00734095
0.00681094
0.00615723
0.00535047
0.00435476
0.0031287
0.00164373
0.000184987
0.00918005
0.00917521
0.00914885
0.00909902
0.00902324
0.0089185
0.00878125
0.0086066
0.00838792
0.00811604
0.0077788
0.00736035
0.0068406
0.00619455
0.0053917
0.00439556
0.00316476
0.00166945
0.000189635
0.00911051
0.00910737
0.00908388
0.00903792
0.00896705
0.00886847
0.00873893
0.00857385
0.00836663
0.00810806
0.00778558
0.00738252
0.00687739
0.00624325
0.00544736
0.00445134
0.00321321
0.00170305
0.000195959
0.00903591
0.00903451
0.00901379
0.00897148
0.0089053
0.00881289
0.00869146
0.00853669
0.00834227
0.00809917
0.00779471
0.00741162
0.00692702
0.00631149
0.00552841
0.00453443
0.00328379
0.00174845
0.000204758
0.0089659
0.00896566
0.00894689
0.00890723
0.00884465
0.00875747
0.00864388
0.0084996
0.00831864
0.00809255
0.00780906
0.00745094
0.00699456
0.00640824
0.00565003
0.00466575
0.00339519
0.00181339
0.000217348
0.00891239
0.00891199
0.00889361
0.0088544
0.00879254
0.00870779
0.00860102
0.00846668
0.00829889
0.00809019
0.00782954
0.00750092
0.00708175
0.00654045
0.00583086
0.00488009
0.00358335
0.00191265
0.000236449
0.00888766
0.00888565
0.00886601
0.00882381
0.00875593
0.00866724
0.00856567
0.00844045
0.00828456
0.00809203
0.00785395
0.00755712
0.00718331
0.00670774
0.00608998
0.00523804
0.00392177
0.00208192
0.000267477
0.0089024
0.00889846
0.0088781
0.00882977
0.00873873
0.00863467
0.00853752
0.00842128
0.00827535
0.00809579
0.00787666
0.00760894
0.00728281
0.00689288
0.00643748
0.00586579
0.00458953
0.00247205
0.000318941
0.00896264
0.00895973
0.00894664
0.00890106
0.00873317
0.00860664
0.0085166
0.00840944
0.00827047
0.00809856
0.00789063
0.00764148
0.00735075
0.00704241
0.00682448
0.00714276
0.00618898
0.0041032
0.000374503
)
;

boundaryField
{
    leftWall
    {
        type            nutkWallFunction;
        Cmu             0.09;
        kappa           0.41;
        E               9.8;
        value           nonuniform List<scalar> 
50
(
2.14876e-06
6.53722e-06
7.65725e-06
8.50473e-06
9.24405e-06
1.04075e-05
1.29337e-05
1.40376e-05
1.53766e-05
1.72948e-05
1.90421e-05
2.06481e-05
2.21806e-05
2.364e-05
2.41622e-05
2.39477e-05
2.37755e-05
2.60919e-05
2.38046e-05
2.56386e-05
2.5181e-05
2.36722e-05
2.15855e-05
1.96912e-05
1.78878e-05
1.62553e-05
1.49104e-05
1.39783e-05
1.33588e-05
1.29222e-05
1.25799e-05
1.22659e-05
1.19398e-05
1.15826e-05
1.11906e-05
1.07695e-05
1.03308e-05
9.88932e-06
9.46155e-06
9.0634e-06
8.70801e-06
8.40377e-06
8.15498e-06
7.96922e-06
7.88739e-06
8.10359e-06
9.48924e-06
1.50403e-05
2.72908e-05
4.92551e-05
)
;
    }
    rightWall
    {
        type            nutkWallFunction;
        Cmu             0.09;
        kappa           0.41;
        E               9.8;
        value           nonuniform List<scalar> 
50
(
2.63768e-06
8.44621e-06
1.01246e-05
1.17549e-05
1.53443e-05
1.74528e-05
1.68035e-05
1.58498e-05
1.50864e-05
1.52582e-05
1.6413e-05
1.80864e-05
2.02355e-05
2.12679e-05
2.16773e-05
2.16991e-05
2.16325e-05
2.32056e-05
1.83194e-05
1.59865e-05
1.46886e-05
1.42435e-05
1.44544e-05
1.49604e-05
1.54655e-05
1.58901e-05
1.62297e-05
1.64648e-05
1.66111e-05
1.66825e-05
1.66972e-05
1.66708e-05
1.66215e-05
1.65634e-05
1.65143e-05
1.64895e-05
1.6501e-05
1.65576e-05
1.66837e-05
1.68948e-05
1.72199e-05
1.76805e-05
1.83271e-05
1.92103e-05
2.04364e-05
2.21679e-05
2.47512e-05
2.88865e-05
3.61723e-05
4.93059e-05
)
;
    }
    lowerWall
    {
        type            nutkWallFunction;
        Cmu             0.09;
        kappa           0.41;
        E               9.8;
        value           nonuniform List<scalar> 
62
(
2.14876e-06
3.52716e-06
4.36631e-06
4.95481e-06
5.41486e-06
5.79165e-06
6.10557e-06
6.3665e-06
6.57942e-06
6.74703e-06
6.87098e-06
6.9528e-06
6.99401e-06
6.99597e-06
6.96492e-06
6.91441e-06
6.83328e-06
6.71307e-06
6.5376e-06
6.27374e-06
5.84987e-06
5.05222e-06
3.02713e-06
3.02713e-06
9.68986e-06
1.17153e-05
1.32398e-05
1.4478e-05
1.56282e-05
1.70023e-05
1.98774e-05
2.79926e-05
2.661e-05
2.54715e-05
2.50082e-05
2.94317e-06
1.04291e-05
1.32452e-05
1.46798e-05
1.61305e-05
1.8791e-05
2.17859e-05
2.51998e-05
2.94317e-06
4.90744e-06
5.70654e-06
6.10898e-06
6.31605e-06
6.43027e-06
6.42708e-06
6.4672e-06
6.6584e-06
6.73775e-06
6.62057e-06
6.32434e-06
6.0703e-06
5.98037e-06
5.72327e-06
5.37543e-06
4.92075e-06
4.14078e-06
2.63768e-06
)
;
    }
    atmosphere
    {
        type            calculated;
        value           nonuniform List<scalar> 
46
(
0.009
0.009
0.009
0.00466536
0.00398384
0.00392769
0.00428936
0.00484275
0.00545581
0.00606836
0.00663846
0.00712726
0.00755856
0.00792018
0.00819709
0.00844046
0.009
0.009
0.009
0.009
0.009
0.009
0.009
0.009
0.009
0.009
0.009
0.009
0.009
0.009
0.009
0.00873317
0.00860664
0.0085166
0.00840944
0.00827047
0.00809856
0.00789063
0.00764148
0.00735075
0.00704241
0.00682448
0.009
0.009
0.009
0.009
)
;
    }
    defaultFaces
    {
        type            empty;
    }
}


// ************************************************************************* //
