/*--------------------------------*- C++ -*----------------------------------*\
  =========                 |
  \\      /  F ield         | OpenFOAM: The Open Source CFD Toolbox
   \\    /   O peration     | Website:  https://openfoam.org
    \\  /    A nd           | Version:  13
     \\/     M anipulation  |
\*---------------------------------------------------------------------------*/
FoamFile
{
    format      ascii;
    class       volScalarField;
    location    "2.5";
    object      p;
}
// * * * * * * * * * * * * * * * * * * * * * * * * * * * * * * * * * * * * * //

dimensions      [1 -1 -2 0 0 0 0];

internalField   nonuniform List<scalar> 
2268
(
4931.66
4948.47
4974.43
5006.95
5043.73
5084.67
5130.46
5182.06
5240.02
5304.4
5374.82
5450.54
5530.52
5613.58
5698.57
5784.63
5871.28
5958.24
6044.93
6129.63
6207.93
6271.56
6318.59
4132.02
4147.9
4171.14
4202
4237.84
4278.31
4323.89
4375.45
4433.56
4498.41
4569.74
4646.91
4728.96
4814.67
4902.84
4992.43
5082.79
5173.36
5263.24
5350.11
5428.35
5486.15
5530.68
3330.54
3345.71
3367.07
3396.01
3430.35
3470.05
3515.07
3566.43
3624.69
3690.14
3762.63
3841.61
3926.17
4015.04
4106.84
4200.4
4294.74
4388.91
4481.56
4569.89
4647.63
4703.71
4749.98
2526.28
2541.86
2562.25
2589.56
2622.29
2660.65
2704.99
2756.15
2814.71
2880.98
2954.9
3035.97
3123.32
3215.58
3311.06
3408.35
3506.11
3602.92
3697.19
3786.05
3863.46
3922.55
3978.27
1720.7
1739.23
1760.75
1787.67
1818.82
1854.98
1897.83
1948.28
2006.58
2073.17
2148.05
2230.87
2320.88
2416.63
2515.71
2616.81
2717.97
2817.25
2912.93
3002.32
3080.82
3146.24
3214.96
1111.44
1122.5
1132.19
1143.72
1156.42
1173.8
1197.99
1229.15
1268.16
1316.39
1375.22
1445.72
1528.4
1622.02
1721.95
1825.51
1929.75
2031.94
2130.04
2221.9
2303.02
2376.6
2459.99
875.343
877.625
875.704
872.638
868.617
865.579
866.152
869.51
876.414
888.153
906.07
931.522
965.709
1009.16
1063.44
1128.43
1200.32
1276.63
1355.14
1433.53
1513.62
1599.42
1710.24
815.38
817.983
817.601
815.125
811.387
806.291
800.417
794.413
788.393
782.472
776.733
771.31
766.618
763.527
766.086
776.954
794.681
818.023
845.198
874.254
910.171
949.489
1022.35
2084.21
2109.71
2173.92
2271.32
2404.29
2531.94
2589.8
2616.91
2648.49
2653.25
2624.15
2569.1
2531.39
2529.53
2504.85
2487.75
2474.93
2468.23
2471.5
1523.22
1541.5
1584.26
1660.82
1754.74
1869.04
1968.27
2036.92
2058.51
2055.54
2034.77
2014.03
1971.3
1919.91
1885.82
1870.41
1861.38
1859.74
1866.35
1230.27
1243.95
1264.62
1293.55
1308.01
1323.61
1393.58
1435.06
1437.47
1423.44
1413.15
1421.36
1393.46
1343.46
1311.89
1285.74
1285.43
1312.7
1332.87
1070.84
1080.96
1096.83
1106.5
1097.79
1042.47
1049.51
1052.65
1045.79
1009.89
994.289
1011.95
1008.95
965.057
948.37
930.842
932.391
950.561
957.284
926.494
933.623
948.736
956.261
970.148
949.037
922.478
911.264
902.693
864.77
841.915
832.349
821.504
805.867
821.552
833.573
832.236
814.777
789.349
826.521
829.06
827.094
827.052
846.751
865.71
852.456
838.834
815.425
795.596
782.84
757.002
732.476
745.337
772.849
785.581
783.967
767.575
747.653
755.205
760.328
741.661
732.083
737.113
768.095
767.368
752.11
727.362
727.533
724.928
720.082
713.208
718.476
726.059
727.668
724.606
711.722
706.587
680.284
694.472
680.704
665.141
656.65
670.693
668.671
659.853
653.639
664.145
666.656
668.121
679.371
678.786
671.955
669.661
667.499
658.299
661.903
720.61
722.561
722.658
720.515
716.871
712.303
706.981
701.472
695.935
690.54
685.334
680.359
675.742
671.708
668.142
664.894
662.092
659.166
655.183
648.913
638.171
620.402
599.786
592.144
593.753
593.857
591.708
588.155
583.564
578.31
572.776
567.342
562.14
557.185
552.516
548.233
544.476
541.1
537.771
534.318
530.299
524.899
517.357
506.918
492.716
476.037
467.145
467.823
466.788
464.005
460.382
455.755
449.984
444.181
438.762
433.782
429.189
424.981
421.187
417.989
414.951
411.802
408.726
405.296
401.009
395.311
387.674
377.753
367.835
351.692
349.527
346.718
343.502
339.77
335.105
330.476
325.385
320.774
316.895
313.637
311.305
309.361
307.366
305.217
303.47
302.614
301.808
300.286
298.3
295.071
290.674
287.247
258.37
256.946
255.193
252.601
248.797
245.45
243.412
241.146
238.729
236.62
235.023
233.776
232.693
231.477
230.397
229.963
229.949
230.035
229.79
229.426
229.101
228.915
229.161
191.792
191.051
190.341
188.484
185.893
183.851
181.913
180.439
178.839
177.258
175.786
174.079
172.557
171.429
170.739
170.168
169.229
168.392
168.147
168.046
168.043
168.613
169.175
133.88
132.336
131.323
129.423
127.09
124.37
121.021
118.065
115.619
113.448
111.418
109.606
108.093
106.94
106.14
105.486
104.857
104.447
104.401
104.537
104.847
105.42
106.068
75.0612
75.6551
74.0759
70.7783
66.435
62.2417
58.5192
54.8155
51.6074
49.3165
47.8177
46.3897
45.2566
44.4702
43.9643
43.6177
43.437
43.5482
43.8439
44.1461
44.42
44.7745
44.907
25.5607
28.8132
27.3418
23.1326
18.9566
16.5251
14.6875
12.6847
11.1434
10.3028
9.90107
9.55534
9.25084
9.08742
9.02853
9.01245
9.06127
9.23475
9.49642
9.71326
9.84032
9.97438
10.2016
3.34883
5.08308
5.53974
4.02246
3.24475
3.14256
3.09253
3.07978
3.05202
3.00847
2.94766
2.88045
2.80572
2.72491
2.63823
2.54908
2.46052
2.37156
2.2804
2.18903
2.10137
2.02389
1.92383
3.05756
2.99429
2.9275
2.97319
2.96521
2.92979
2.90362
2.8847
2.86013
2.82593
2.78234
2.73226
2.67662
2.61529
2.54877
2.47786
2.40325
2.32527
2.24459
2.16329
2.08379
2.00996
1.92886
2.93108
2.89957
2.87121
2.85855
2.85189
2.83046
2.80777
2.78265
2.75218
2.71278
2.66476
2.611
2.55205
2.4882
2.41978
2.3474
2.27148
2.19227
2.11064
2.02902
1.95006
1.87835
1.8051
2.8198
2.7943
2.77214
2.75972
2.74808
2.7298
2.70488
2.67642
2.64235
2.59985
2.55007
2.49402
2.4339
2.36933
2.30049
2.22793
2.15202
2.07294
1.99165
1.91079
1.83356
1.76524
1.69719
2.7126
2.69247
2.67261
2.65821
2.64461
2.62409
2.59776
2.56642
2.52968
2.4865
2.43755
2.38201
2.3231
2.25979
2.19225
2.121
2.04638
1.96859
1.88863
1.8093
1.73388
1.6681
1.60308
2.60748
2.59218
2.57548
2.56004
2.54261
2.52074
2.49334
2.45993
2.42145
2.37785
2.32887
2.27583
2.21893
2.15732
2.09147
2.02195
1.94904
1.87293
1.79464
1.717
1.64348
1.57986
1.5167
2.50297
2.49211
2.47842
2.4626
2.44397
2.42108
2.39288
2.35895
2.31922
2.27522
2.22698
2.17605
2.12048
2.06028
1.99605
1.92831
1.85725
1.78295
1.70649
1.63076
1.55915
1.49747
1.43633
2.39904
2.39151
2.38065
2.36595
2.34725
2.32385
2.29536
2.26165
2.22267
2.17909
2.13218
2.08176
2.027
1.96808
1.90548
1.83961
1.77049
1.69818
1.62374
1.54999
1.48036
1.42059
1.36112
2.29647
2.29137
2.2826
2.2692
2.25102
2.2279
2.19974
2.16662
2.12874
2.0866
2.0407
1.99102
1.93736
1.87994
1.81919
1.7553
1.68824
1.61808
1.54581
1.47423
1.40661
1.3486
1.29103
2.19548
2.19201
2.18469
2.17242
2.15506
2.13265
2.10528
2.0731
2.03641
1.99559
1.95102
1.90273
1.85065
1.7951
1.73639
1.67465
1.60986
1.54204
1.47214
1.4028
1.33736
1.28128
1.22541
2.09591
2.09342
2.08712
2.07586
2.05948
2.03805
2.01173
1.98076
1.94541
1.90605
1.86302
1.81643
1.7663
1.71287
1.65643
1.59707
1.53474
1.46944
1.40206
1.33523
1.27209
1.21798
1.16432
1.99756
1.99565
1.99008
1.97975
1.96441
1.94413
1.91909
1.88953
1.85574
1.81802
1.77671
1.73201
1.68398
1.63285
1.57885
1.52204
1.46235
1.39977
1.33513
1.2709
1.21024
1.15832
1.10642
1.9003
1.8987
1.8937
1.88422
1.86994
1.8509
1.82727
1.79928
1.76721
1.73134
1.69196
1.64934
1.6036
1.55487
1.50338
1.44922
1.39229
1.33258
1.27084
1.20948
1.15147
1.10176
1.05184
1.804
1.80257
1.79805
1.78936
1.77613
1.75837
1.73622
1.70991
1.67968
1.6458
1.60854
1.56816
1.52485
1.4787
1.42989
1.37849
1.32442
1.26767
1.20898
1.15057
1.09559
1.04861
1.00005
1.70856
1.70725
1.70315
1.6952
1.68301
1.66653
1.64591
1.62133
1.59303
1.56124
1.52622
1.48823
1.44746
1.40402
1.35804
1.30957
1.25855
1.20493
1.14944
1.09428
1.04228
0.998256
0.951943
1.61387
1.61268
1.60898
1.60175
1.59056
1.57537
1.55627
1.53346
1.50712
1.47749
1.4448
1.40928
1.37116
1.33053
1.28749
1.24211
1.19429
1.14401
1.09195
1.04013
0.991216
0.949574
0.907182
1.51982
1.51876
1.51546
1.50892
1.49871
1.48479
1.46722
1.44617
1.42183
1.39439
1.36407
1.33111
1.29569
1.25793
1.21794
1.17574
1.13127
1.08447
1.03596
0.987704
0.942081
0.903131
0.864342
1.42626
1.42535
1.42245
1.41659
1.40736
1.39468
1.37864
1.35935
1.337
1.31177
1.28386
1.25347
1.22079
1.18597
1.14907
1.11014
1.06909
1.02587
0.981067
0.936421
0.894299
0.858435
0.822683
1.33307
1.33234
1.32984
1.32465
1.31637
1.30493
1.29039
1.27286
1.2525
1.22947
1.20396
1.17616
1.14625
1.11437
1.0806
1.04498
1.00741
0.967828
0.926762
0.885925
0.847371
0.814656
0.782486
1.24011
1.23956
1.23747
1.23294
1.22561
1.21539
1.20234
1.18655
1.16816
1.14732
1.1242
1.09899
1.07183
1.0429
1.01226
0.97995
0.945875
0.909975
0.872744
0.835678
0.800788
0.77136
0.742243
1.14724
1.1469
1.14522
1.14135
1.13495
1.12595
1.11437
1.1003
1.08386
1.06518
1.04441
1.02175
0.997331
0.971313
0.943792
0.914787
0.884215
0.852011
0.818602
0.785426
0.754204
0.727894
0.702106
1.05436
1.05424
1.05296
1.04975
1.04429
1.0365
1.02638
1.014
0.999467
0.982898
0.964446
0.944272
0.922549
0.899411
0.874968
0.849243
0.822159
0.793658
0.76414
0.734837
0.707411
0.684447
0.661691
0.96134
0.961446
0.960586
0.958047
0.953528
0.946937
0.938263
0.92755
0.914882
0.900373
0.884168
0.866423
0.84732
0.826999
0.805576
0.783084
0.759461
0.734654
0.709012
0.683721
0.660134
0.640571
0.621515
0.868073
0.868417
0.86799
0.866137
0.862573
0.85719
0.849951
0.840873
0.830023
0.817508
0.803474
0.788075
0.771502
0.753909
0.735422
0.716089
0.695862
0.674703
0.652944
0.631556
0.611815
0.595738
0.579972
0.774434
0.77503
0.775059
0.77392
0.771342
0.76719
0.761388
0.75392
0.744837
0.734243
0.722288
0.709136
0.694983
0.680002
0.664335
0.648043
0.631099
0.613472
0.595431
0.577874
0.5618
0.548896
0.536548
0.680296
0.681156
0.681664
0.681288
0.679755
0.676885
0.672542
0.666671
0.659306
0.650553
0.640574
0.629552
0.617688
0.605173
0.592166
0.578745
0.564899
0.550601
0.536091
0.522074
0.509469
0.499636
0.490143
0.585531
0.586655
0.587664
0.58812
0.587739
0.586247
0.583416
0.579142
0.573449
0.566453
0.558338
0.54931
0.539577
0.529341
0.518781
0.508
0.496998
0.48575
0.474444
0.463725
0.454257
0.447159
0.440643
0.490027
0.491378
0.492889
0.494296
0.495253
0.495299
0.494064
0.491396
0.487326
0.481997
0.47562
0.468427
0.46063
0.45243
0.444048
0.435615
0.427145
0.418613
0.410187
0.402332
0.395617
0.390938
0.386625
0.393745
0.395235
0.397228
0.399808
0.402406
0.404203
0.404645
0.403567
0.401051
0.397289
0.392512
0.386971
0.380867
0.374391
0.367865
0.36146
0.355193
0.34903
0.343086
0.337741
0.333366
0.330553
0.328155
0.296878
0.298446
0.30099
0.305127
0.309729
0.313408
0.315476
0.315862
0.314776
0.312473
0.309186
0.305136
0.300397
0.295258
0.290261
0.285593
0.281244
0.27714
0.273379
0.270189
0.267837
0.266716
0.265809
0.200066
0.202216
0.205812
0.211836
0.218446
0.223672
0.226923
0.228407
0.228517
0.227579
0.225823
0.223421
0.219988
0.215793
0.21212
0.209021
0.20648
0.204171
0.202308
0.201021
0.200487
0.20097
0.202169
0.104735
0.108961
0.114171
0.123242
0.130546
0.135922
0.139321
0.14127
0.142244
0.142608
0.142658
0.142912
0.139339
0.135775
0.133396
0.13187
0.130866
0.130052
0.129697
0.129852
0.130651
0.132277
0.135687
0.025626
0.0268139
0.0306248
0.0383675
0.0427701
0.045656
0.0474439
0.0486328
0.0494865
0.0502317
0.0510848
0.0528979
0.0519083
0.0489007
0.0478082
0.0475903
0.0474556
0.0470227
0.0470283
0.047326
0.0479306
0.0489399
0.0513189
584.552
582.646
584.1
584.318
467.981
463.606
461.191
458.736
363.528
362.201
362.439
362.969
287.703
289.064
291.646
294.856
229.213
229.71
230.929
232.348
169.25
169.3
169.66
170.174
106.712
107.039
107.225
107.291
43.8234
43.4631
43.6859
44.4116
10.4103
10.4022
10.3897
10.3624
1.75656
1.64037
1.54011
1.47402
1.82164
1.71355
1.59277
1.50039
1.68727
1.56703
1.43782
1.34589
1.5837
1.46312
1.32979
1.23385
1.49153
1.37056
1.23585
1.13837
1.4064
1.28562
1.15029
1.05245
1.32753
1.20762
1.07286
0.974896
1.25455
1.13616
1.00211
0.90473
1.18658
1.07016
0.938205
0.841813
1.12399
1.01019
0.880269
0.78549
1.06609
0.955442
0.828901
0.735781
1.01204
0.905112
0.781807
0.691231
0.960954
0.858017
0.73955
0.65191
0.913663
0.815343
0.701362
0.617258
0.86957
0.776629
0.668661
0.588076
0.830242
0.741797
0.638157
0.561
0.792005
0.708557
0.6108
0.537216
0.755692
0.677658
0.58527
0.51599
0.720776
0.648472
0.562754
0.497525
0.686331
0.620044
0.540335
0.479921
0.651229
0.590894
0.518655
0.463212
0.616538
0.56237
0.496672
0.446558
0.582075
0.534204
0.475905
0.430377
0.546698
0.505166
0.453169
0.412452
0.50854
0.472965
0.42817
0.392041
0.467525
0.437701
0.398933
0.367518
0.422854
0.398438
0.366113
0.33875
0.373418
0.354022
0.326992
0.30385
0.318271
0.30318
0.281904
0.262857
0.259016
0.247833
0.231265
0.216342
0.19869
0.191436
0.179658
0.167849
0.138833
0.136278
0.128536
0.118454
0.0558678
0.0562968
0.053663
0.0484022
579.969
584.489
582.103
574.15
562.164
555.934
555.32
558.571
563.918
571.702
576.06
580.441
590.585
590.206
583.333
580.328
579.316
577.097
581.844
453.053
455.398
459.308
456.487
445.347
438.784
440.964
442.598
445.074
449.173
452.932
457.194
462.869
463.536
460.665
459.16
460.06
462.994
467.172
364.484
367.044
367.53
365.224
361.292
356.534
352.729
350.317
349.726
349.9
350.363
351.589
353.599
354.477
354.949
357.05
360.998
365.894
369.288
298.852
300.302
299.298
298.441
297.638
292.936
287.38
284.288
282.007
280.191
278.305
276.878
276.354
276.98
279.191
283.193
288.011
292.196
295.98
234.819
235.801
235.34
234.736
233.961
231.97
228.002
223.7
220.42
218.08
216.128
214.729
214.183
214.683
216.579
219.824
223.586
226.733
230.026
171.052
171.578
171.378
170.862
169.949
168.064
164.932
161.464
158.405
155.9
153.905
152.557
151.954
152.234
153.904
156.926
160.66
164.566
169.423
107.389
107.552
107.435
106.905
105.978
104.33
101.851
98.9793
96.105
93.4934
91.4079
89.9603
88.9943
88.5092
89.8473
92.7881
97.355
103.275
109.56
46.0205
46.4268
46.272
45.8784
45.0374
43.6279
41.7437
39.5698
37.2414
34.9081
32.8316
31.2262
30.6769
30.5527
31.6167
33.832
37.6576
43.5705
50.5579
10.1808
10.1147
10.0452
9.85057
9.43964
8.74106
7.80339
6.78906
5.78299
4.81312
3.8759
3.03241
3.11435
3.77821
4.29572
4.95184
6.01366
7.90398
11.2688
1.41947
1.37461
1.35291
1.34936
1.3532
1.33915
1.30927
1.28813
1.31598
1.40246
1.51331
1.55755
1.52415
1.48761
1.44769
1.48499
1.55673
1.54127
1.70367
1.41428
1.38036
1.36075
1.35067
1.34347
1.31456
1.27004
1.22228
1.20054
1.20313
1.22142
1.2323
1.21715
1.2
1.19792
1.19561
1.19717
1.20057
1.20691
1.2771
1.25256
1.22835
1.20279
1.1799
1.15039
1.11462
1.08453
1.07039
1.06442
1.06704
1.06791
1.06737
1.07302
1.08006
1.08255
1.0844
1.0876
1.09374
1.16105
1.13725
1.10961
1.07325
1.03606
1.00566
0.98067
0.969327
0.958582
0.949107
0.942139
0.945337
0.956766
0.967781
0.978202
0.985594
0.990084
0.991318
0.992844
1.06369
1.04017
1.01197
0.975582
0.936599
0.904079
0.883718
0.870025
0.858236
0.849578
0.844614
0.846564
0.854484
0.864468
0.875692
0.885589
0.89346
0.898201
0.89901
0.977677
0.954229
0.926095
0.890766
0.854748
0.82328
0.799241
0.781273
0.767191
0.75705
0.751295
0.751384
0.756915
0.765527
0.776062
0.78683
0.796811
0.804363
0.806987
0.899964
0.876609
0.848449
0.813598
0.778536
0.747047
0.721083
0.70051
0.684184
0.67238
0.665229
0.663462
0.666743
0.673728
0.683336
0.694209
0.705041
0.713797
0.71745
0.830299
0.806862
0.778688
0.743899
0.708983
0.676992
0.649603
0.626962
0.60884
0.595358
0.586631
0.58299
0.584255
0.589637
0.598264
0.608913
0.620074
0.629368
0.633653
0.767913
0.74466
0.716477
0.681628
0.646518
0.613837
0.585129
0.560835
0.541019
0.525866
0.515473
0.51001
0.50941
0.513226
0.520753
0.530883
0.541947
0.551393
0.556156
0.712775
0.689494
0.661361
0.626415
0.590996
0.557605
0.527728
0.501958
0.480559
0.463772
0.451725
0.444517
0.442177
0.444451
0.450774
0.46008
0.470715
0.480032
0.484961
0.66393
0.640878
0.612814
0.577811
0.542077
0.508021
0.477117
0.450055
0.42721
0.40889
0.395241
0.386379
0.382393
0.383148
0.388168
0.396494
0.406428
0.415329
0.42012
0.621285
0.598244
0.570365
0.535366
0.499373
0.464744
0.432962
0.404775
0.380625
0.360862
0.345729
0.335312
0.329762
0.329025
0.33271
0.339885
0.348957
0.357329
0.361774
0.583829
0.561098
0.533456
0.498568
0.462421
0.427347
0.394839
0.365689
0.34039
0.319333
0.302797
0.29092
0.283885
0.281692
0.284002
0.290003
0.298114
0.305857
0.310075
0.551711
0.528801
0.501538
0.466874
0.430699
0.395327
0.362254
0.332304
0.306006
0.283788
0.265965
0.252728
0.244287
0.240685
0.241653
0.246393
0.253519
0.26065
0.264729
0.523939
0.500627
0.473972
0.439702
0.403654
0.368146
0.334675
0.304088
0.276947
0.253705
0.234715
0.220221
0.210457
0.205504
0.20513
0.208678
0.214784
0.22122
0.225203
0.500234
0.476379
0.450292
0.416515
0.380734
0.345255
0.311553
0.280494
0.252667
0.228545
0.20851
0.192863
0.181861
0.175619
0.173973
0.176286
0.181405
0.187218
0.190968
0.478689
0.456419
0.430323
0.396916
0.361476
0.326139
0.292353
0.260981
0.232622
0.207765
0.186815
0.170121
0.157968
0.150504
0.147602
0.148778
0.152906
0.158045
0.161533
0.460668
0.439299
0.413509
0.380616
0.3456
0.310494
0.276727
0.245159
0.216389
0.190913
0.169166
0.151527
0.138307
0.129684
0.1256
0.125582
0.128733
0.133212
0.136343
0.444848
0.424432
0.399212
0.367052
0.332648
0.297948
0.264353
0.232722
0.203664
0.177684
0.155253
0.136764
0.122549
0.112816
0.107534
0.106379
0.108456
0.112155
0.114918
0.431003
0.41125
0.386803
0.35554
0.321928
0.287834
0.254611
0.223111
0.193947
0.167623
0.144644
0.125408
0.110268
0.0994589
0.0930147
0.0906049
0.0915652
0.0944342
0.0967276
0.417796
0.399122
0.375538
0.345332
0.312696
0.279407
0.246767
0.215608
0.186534
0.160057
0.136684
0.116823
0.100844
0.089009
0.0813768
0.077774
0.0775299
0.0794006
0.0812619
0.405287
0.387292
0.364645
0.335619
0.304134
0.271859
0.240031
0.209444
0.180679
0.154269
0.130682
0.110341
0.093628
0.0808316
0.0720774
0.0671816
0.0657247
0.066619
0.0679623
0.392046
0.374897
0.353188
0.325482
0.295342
0.264313
0.23355
0.203798
0.175608
0.149501
0.125913
0.105264
0.0879471
0.0742781
0.0644093
0.058334
0.0556354
0.0554794
0.0563494
0.377592
0.360894
0.340204
0.313952
0.285361
0.255835
0.226423
0.197803
0.170497
0.144968
0.121621
0.100865
0.0830978
0.0686654
0.057802
0.0505022
0.0466384
0.0455596
0.0458935
0.360097
0.344214
0.32463
0.300016
0.273222
0.245491
0.217756
0.19061
0.164531
0.139896
0.117072
0.0964434
0.078409
0.0633457
0.0515428
0.0432175
0.0382546
0.0362595
0.0361896
0.339061
0.323792
0.305481
0.282728
0.258016
0.232415
0.206724
0.181451
0.156977
0.133597
0.11162
0.0913941
0.0733026
0.0577588
0.0451775
0.035833
0.0299497
0.0272902
0.0268505
0.312931
0.298682
0.281848
0.26125
0.238965
0.215879
0.192654
0.169698
0.147257
0.125541
0.10479
0.0852951
0.0674089
0.0515649
0.0382726
0.0281423
0.0214541
0.0182517
0.0176917
0.281388
0.268168
0.253098
0.234981
0.215507
0.195382
0.175113
0.154954
0.135019
0.11543
0.0963508
0.0779956
0.0606506
0.0447359
0.0309007
0.0199279
0.0125914
0.00916407
0.00864102
0.243638
0.232008
0.218959
0.203656
0.18744
0.170807
0.154061
0.137207
0.120275
0.103321
0.0864394
0.0697493
0.0534192
0.0377727
0.0234472
0.0117823
0.00364075
-7.36059e-06
-3.41179e-05
0.200852
0.190614
0.179706
0.167501
0.155014
0.142618
0.129919
0.116838
0.103373
0.089586
0.0755199
0.0611847
0.0465727
0.0318128
0.0173905
0.00473311
-0.00467603
-0.00878365
-0.00784276
0.154383
0.145038
0.136226
0.127241
0.11876
0.111655
0.103455
0.0944962
0.0849122
0.0748459
0.0643269
0.053277
0.0414679
0.0287978
0.0151969
0.00220527
-0.00940719
-0.0174033
-0.0135759
0.103125
0.0936893
0.0871083
0.0812604
0.0763811
0.0773679
0.0744498
0.0698936
0.0645352
0.0587277
0.0525139
0.0457948
0.038314
0.0297336
0.0195491
0.00805024
-0.00567654
-0.0221913
-0.0118331
0.0382938
0.0331906
0.030359
0.0280166
0.0257247
0.0286851
0.0284916
0.0273344
0.0257567
0.0240196
0.0221344
0.0200754
0.0177123
0.014912
0.0113094
0.00674426
1.37523e-05
-0.0146001
-0.00228716
)
;

boundaryField
{
    leftWall
    {
        type            calculated;
        value           nonuniform List<scalar> 
50
(
4931.66
4132.02
3330.54
2526.28
1720.7
1111.44
875.343
815.38
720.61
592.144
467.145
351.692
258.37
191.792
133.88
75.0612
25.5607
3.34883
3.05756
2.93108
2.8198
2.7126
2.60748
2.50297
2.39904
2.29647
2.19548
2.09591
1.99756
1.9003
1.804
1.70856
1.61387
1.51982
1.42626
1.33307
1.24011
1.14724
1.05436
0.96134
0.868073
0.774434
0.680296
0.585531
0.490027
0.393745
0.296878
0.200066
0.104735
0.025626
)
;
    }
    rightWall
    {
        type            calculated;
        value           nonuniform List<scalar> 
50
(
2471.5
1866.35
1332.87
957.284
789.349
747.653
706.587
661.903
581.844
467.172
369.288
295.98
230.026
169.423
109.56
50.5579
11.2688
1.70367
1.20691
1.09374
0.992844
0.89901
0.806987
0.71745
0.633653
0.556156
0.484961
0.42012
0.361774
0.310075
0.264729
0.225203
0.190968
0.161533
0.136343
0.114918
0.0967276
0.0812619
0.0679623
0.0563494
0.0458935
0.0361896
0.0268505
0.0176917
0.00864102
-3.41179e-05
-0.00784276
-0.0135759
-0.0118331
-0.00228716
)
;
    }
    lowerWall
    {
        type            calculated;
        value           nonuniform List<scalar> 
62
(
5329.81
5346.62
5372.58
5405.1
5441.88
5482.82
5528.61
5580.21
5638.17
5702.55
5772.97
5848.69
5928.67
6011.73
6096.72
6182.78
6269.43
6356.39
6443.08
6527.78
6605.95
6669.5
6716.52
6318.59
5530.68
4749.98
3978.27
3214.96
2459.99
1710.24
1022.35
654.771
645.245
646.7
646.918
2084.21
1523.22
1230.27
1070.84
926.494
826.521
755.205
680.284
2426.19
2457.58
2525.42
2623.1
2755.9
2883.08
2890.01
2874.24
2907.62
2915.14
2882.8
2818.64
2786.33
2829.96
2809.02
2792.47
2778.66
2771.09
2774.5
)
;
    }
    atmosphere
    {
        type            calculated;
        value           nonuniform List<scalar> 
46
(
0
0
0
0
0
0
0
0
0
0
0
0
0
0
0
0
0
0
0
0
0
0
0
0
0
0
0
0
0
0
0
0
0
0
0
0
0
0
0
0
0
0
0
0
0
-5.15469e-05
)
;
    }
    defaultFaces
    {
        type            empty;
    }
}


// ************************************************************************* //
