/*--------------------------------*- C++ -*----------------------------------*\
  =========                 |
  \\      /  F ield         | OpenFOAM: The Open Source CFD Toolbox
   \\    /   O peration     | Website:  https://openfoam.org
    \\  /    A nd           | Version:  13
     \\/     M anipulation  |
\*---------------------------------------------------------------------------*/
FoamFile
{
    format      ascii;
    class       volScalarField;
    location    "2.5";
    object      p_rgh;
}
// * * * * * * * * * * * * * * * * * * * * * * * * * * * * * * * * * * * * * //

dimensions      [1 -1 -2 0 0 0 0];

internalField   nonuniform List<scalar> 
2268
(
5329.81
5346.62
5372.58
5405.1
5441.88
5482.82
5528.61
5580.21
5638.17
5702.55
5772.97
5848.69
5928.67
6011.73
6096.72
6182.78
6269.43
6356.39
6443.08
6527.78
6605.95
6669.5
6716.52
5326.47
5342.35
5365.59
5396.45
5432.29
5472.76
5518.34
5569.9
5628.01
5692.86
5764.19
5841.36
5923.41
6009.12
6097.29
6186.88
6277.24
6367.81
6457.69
6544.56
6622.74
6680.42
6724.74
5321.29
5336.46
5357.82
5386.76
5421.1
5460.8
5505.82
5557.18
5615.44
5680.89
5753.37
5832.36
5916.92
6005.79
6097.59
6191.15
6285.49
6379.66
6472.31
6560.64
6638.38
6694.46
6740.73
5313.33
5328.9
5349.3
5376.61
5409.33
5447.7
5492.04
5543.2
5601.75
5668.03
5741.95
5823.02
5910.37
6002.63
6098.1
6195.4
6293.16
6389.97
6484.24
6573.1
6650.5
6709.6
6765.32
5295.63
5318.01
5343.28
5371.02
5402.17
5438.33
5481.17
5531.63
5589.93
5656.52
5731.4
5814.22
5904.23
5999.98
6099.06
6200.16
6301.32
6400.6
6496.28
6585.67
6664.17
6729.59
6798.3
3376.55
3510.77
3690.23
3880.3
4089.08
4302.16
4512.01
4741.37
4983.27
5228.68
5465.1
5678.45
5856.84
5995.3
6101.59
6205.16
6309.4
6411.58
6509.69
6601.54
6682.67
6756.25
6839.64
1257.92
1260.21
1258.29
1255.22
1251.2
1282.56
1375.04
1503.81
1682.91
1928.72
2259.09
2689.45
3225.73
3859.1
4488.91
5056.95
5559.56
5983.6
6330.4
6608.87
6689.51
6774.4
6883.09
1256.82
1259.42
1259.04
1256.56
1252.83
1247.73
1241.86
1235.85
1229.83
1223.91
1218.17
1212.75
1208.06
1204.97
1287.21
1507.97
1820.67
2223.28
2706.35
3242.42
3927.24
4658.17
5771.04
2426.19
2457.58
2525.42
2623.1
2755.9
2883.08
2890.01
2874.24
2907.62
2915.14
2882.8
2818.64
2786.33
2829.96
2809.02
2792.47
2778.66
2771.09
2774.5
2161.54
2181.72
2286.85
2433.43
2674.49
2885.62
2977.21
3010.81
3051.61
3048.04
3009.53
2893.26
2841.55
2828.32
2794.23
2779.46
2770.32
2768.52
2775.18
1616.16
1638.72
1667.4
1818.69
2018.7
2453.68
2645.63
2871.22
2945.44
2967.95
2908.99
2887.38
2759.38
2695.44
2623.22
2673.3
2639.49
2535.41
2494.66
1609.26
1639.55
1665.19
1661.33
1550.62
1407.43
1738.15
1785.45
1753.33
1797.55
1860.76
1874.59
1791.19
1751.3
1646.88
1463.54
1491.99
1759.17
1972.06
1491.34
1518.84
1533.32
1604.98
1529.21
1226.25
1208.66
1299.19
1332.36
1153.64
1106.49
1430.56
1564.26
1241.96
1070.05
1004.09
990.424
981.83
1000.64
1194.97
1249.73
1457.91
1465.57
1555
1360.81
1261.46
1250.21
1351.14
1166.05
1091.57
885.486
817.774
861.969
1002.66
1091.59
1107.37
1090.6
930.519
1189.31
1138.12
1123.26
1207.4
1417.98
1436.58
1396.28
1421.45
1351.02
1152.59
1110.39
1056.03
828.984
908.866
1079.63
1110.21
1107.14
1093.66
943.946
1228.88
1201.53
1117.35
1095.84
1144.91
1422.5
1454.52
1347.82
1111.14
1115.44
1110.55
1107.05
987.506
1020.26
1113.34
1111.09
1108.86
1091.65
990.193
1254.08
1256.03
1256.12
1253.96
1250.33
1245.77
1240.45
1234.94
1229.4
1224.01
1218.8
1213.83
1209.21
1205.17
1201.61
1198.36
1195.56
1192.63
1188.65
1182.38
1176.94
1193.15
1356.77
1250.81
1252.41
1251.91
1250.05
1246.8
1242.22
1236.97
1231.44
1226
1220.8
1215.85
1211.18
1206.89
1203.14
1199.76
1196.43
1192.98
1188.96
1183.56
1176.02
1165.58
1151.79
1134.5
1215.43
1239.91
1248.82
1247.59
1244.23
1239.61
1233.18
1226.66
1221.08
1216.1
1211.3
1205.29
1197.26
1192.46
1193.08
1193.8
1191.64
1188
1175.83
1143.49
1111.1
1098.19
1088.32
1146.03
1179.84
1177.98
1166.66
1168.77
1165.89
1122.87
1096.99
1078.69
1063.49
1048.1
1028.53
1006.21
998.724
994.958
976.951
955.902
931.8
913.665
895.123
868.861
808.374
733.668
900.297
851.102
828.292
820.311
824.175
778.633
762.916
725.644
699.739
683.584
665.829
677.047
690.543
693.092
681.749
671.208
696.189
734.162
734.862
733.382
739.313
713.768
693.322
725.58
770.997
769.757
767.224
739.24
713.35
745.476
760.132
752.912
748.764
755.505
753.799
752.277
751.149
748.32
747.207
748.647
748.112
747.867
747.41
744.088
741.807
747.209
775.728
775.177
773.657
771.74
769.407
766.687
763.338
760.382
757.936
755.765
753.735
751.923
750.41
749.257
748.457
747.803
747.175
746.764
746.718
746.855
747.172
747.75
748.395
779.432
781.353
779.06
774.791
763.774
735.932
723.144
718.043
706.582
698.419
695.384
695.668
697.095
700.293
704.889
709.168
713.064
717.774
723.263
727.967
731.187
733.55
735.547
591.281
613.424
516.355
416.747
328.247
283.827
255.004
212.027
180.595
166.957
166.167
165.576
166.267
171.298
179.666
188.696
198.434
211.509
227.803
242.472
253.018
261.146
271.439
7.9167
68.3438
82.7142
24.1693
4.90689
4.80371
4.75328
4.74025
4.7124
4.66875
4.60791
4.5407
4.46597
4.38518
4.29848
4.2093
4.12074
4.03178
3.94063
3.84926
3.76161
3.68414
3.5841
4.84421
4.7823
4.71664
4.7605
4.75147
4.71556
4.68916
4.67014
4.64555
4.61135
4.56776
4.5177
4.46207
4.40073
4.33421
4.26329
4.1887
4.11072
4.03003
3.94874
3.86925
3.79547
3.71446
4.84302
4.81405
4.78972
4.77572
4.76262
4.74123
4.71896
4.69923
4.68453
4.64392
4.5764
4.52215
4.46293
4.39901
4.33064
4.2583
4.1823
4.10304
4.0214
3.93976
3.86077
3.78909
3.7159
4.85694
4.83495
4.83295
4.84825
4.81169
4.76579
4.74131
4.77205
4.84604
4.79381
4.60216
4.53133
4.47066
4.40583
4.33709
4.26444
4.18818
4.10899
4.02766
3.94674
3.86949
3.80114
3.73312
4.87482
4.85934
4.88209
4.88585
4.86989
4.78729
4.75966
4.82382
4.86926
4.8282
4.76761
4.55116
4.48913
4.42418
4.35608
4.28361
4.20795
4.12992
4.04991
3.9705
3.89502
3.82919
3.76417
4.8949
4.8817
4.89406
4.91304
4.86771
4.80782
4.77998
4.7723
4.87831
4.85285
4.80138
4.58116
4.51236
4.45073
4.38429
4.31066
4.23575
4.15948
4.08116
4.00342
3.92985
3.86615
3.80298
4.91566
4.90596
4.89508
4.88516
4.85768
4.83285
4.80438
4.77129
4.75534
4.7934
4.7004
4.59397
4.53945
4.47933
4.41454
4.34263
4.26919
4.19465
4.11819
4.04239
3.97073
3.90899
3.8478
4.9366
4.92987
4.91853
4.9029
4.88405
4.86054
4.83205
4.79839
4.75984
4.7164
4.66896
4.6187
4.56687
4.51126
4.44483
4.37659
4.30747
4.2351
4.16055
4.08677
4.01711
3.9573
3.8978
4.95894
4.95426
4.94494
4.93113
4.91292
4.8898
4.86165
4.82857
4.79065
4.7486
4.70268
4.65334
4.60121
4.54336
4.48121
4.41726
4.35021
4.28008
4.20775
4.13613
4.06849
4.01047
3.95288
4.98298
4.97969
4.97211
4.95957
4.94217
4.91975
4.89237
4.86021
4.82346
4.78262
4.73805
4.69039
4.63893
4.58311
4.52363
4.46173
4.39694
4.32912
4.2592
4.18984
4.1244
4.06831
4.01243
5.00838
5.006
4.99957
4.98819
4.97177
4.95032
4.924
4.89301
4.85763
4.81827
4.77525
4.72897
4.67931
4.62555
4.56874
4.50931
4.44697
4.38167
4.31428
4.24744
4.18429
4.13018
4.07651
5.03514
5.03325
5.02763
5.01724
5.00187
4.98157
4.95652
4.92695
4.89314
4.85543
4.81414
4.76952
4.72154
4.67035
4.61628
4.55944
4.49975
4.43716
4.37252
4.30828
4.24762
4.1957
4.1438
5.06301
5.06143
5.0564
5.04689
5.03258
5.01352
4.98987
4.96188
4.92979
4.89393
4.85457
4.81196
4.7662
4.71747
4.66597
4.61179
4.55487
4.49516
4.43341
4.37204
4.31404
4.26432
4.2144
5.09189
5.09047
5.08593
5.07721
5.06395
5.04617
5.02401
4.99769
4.96745
4.93357
4.89631
4.85594
4.81262
4.76647
4.71765
4.66625
4.61218
4.55543
4.49674
4.43832
4.38335
4.33636
4.2878
5.12163
5.12032
5.11621
5.10824
5.09602
5.07952
5.05889
5.0343
5.00599
4.97419
4.93917
4.90118
4.86042
4.81697
4.77099
4.72252
4.6715
4.61788
4.56238
4.50723
4.45523
4.4112
4.36489
5.15213
5.15093
5.14721
5.13996
5.12875
5.11354
5.09444
5.07161
5.04527
5.01564
4.98294
4.94743
4.9093
4.86867
4.82563
4.78025
4.73243
4.68214
4.63009
4.57827
4.52935
4.48771
4.44532
5.18325
5.18218
5.17886
5.17231
5.16209
5.14815
5.13057
5.10952
5.08517
5.05773
5.02741
4.99444
4.95902
4.92127
4.88127
4.83908
4.7946
4.7478
4.69929
4.65104
4.60541
4.56646
4.52767
5.21488
5.21395
5.21104
5.20516
5.19592
5.18323
5.16718
5.14789
5.12554
5.1003
5.07239
5.042
5.00932
4.97449
4.9376
4.89867
4.85762
4.8144
4.76959
4.72495
4.68282
4.64696
4.61121
5.24687
5.24611
5.2436
5.2384
5.23011
5.21867
5.20412
5.18659
5.16622
5.14319
5.11768
5.08988
5.05997
5.02809
4.99432
4.9587
4.92113
4.88155
4.84048
4.79964
4.76109
4.72838
4.69621
5.27908
5.27852
5.27642
5.27188
5.26454
5.25432
5.24126
5.22547
5.20708
5.18624
5.16312
5.1379
5.11075
5.08181
5.05117
5.01886
4.98479
4.94889
4.91166
4.87459
4.8397
4.81027
4.78116
5.3114
5.31105
5.30935
5.30547
5.29907
5.29007
5.27849
5.26442
5.24797
5.22929
5.20852
5.18585
5.16144
5.13542
5.1079
5.0789
5.04832
5.01612
4.98271
4.94953
4.91831
4.892
4.86621
5.3437
5.34356
5.34228
5.33906
5.3336
5.3258
5.31568
5.30331
5.28877
5.2722
5.25375
5.23358
5.21185
5.18871
5.16427
5.13855
5.11146
5.08296
5.05344
5.02414
4.99671
4.97375
4.95099
5.37587
5.37596
5.37509
5.37255
5.36803
5.36144
5.35276
5.34205
5.32938
5.31487
5.29867
5.28092
5.26182
5.2415
5.22007
5.19758
5.17396
5.14915
5.12351
5.09822
5.07463
5.05507
5.03601
5.40779
5.40812
5.40769
5.40583
5.40227
5.39688
5.38964
5.38057
5.36971
5.3572
5.34317
5.32777
5.31119
5.2936
5.27511
5.25578
5.23555
5.21439
5.19264
5.17125
5.15151
5.13543
5.11966
5.43933
5.43992
5.43995
5.43881
5.43623
5.43208
5.42627
5.41881
5.40972
5.39913
5.38717
5.37402
5.35987
5.34489
5.32922
5.31293
5.29599
5.27836
5.26032
5.24276
5.22669
5.21378
5.20144
5.47038
5.47124
5.47175
5.47137
5.46984
5.46697
5.46262
5.45675
5.44939
5.44063
5.43066
5.41963
5.40777
5.39525
5.38225
5.36883
5.35498
5.34068
5.32617
5.31215
5.29955
5.28972
5.28022
5.50081
5.50193
5.50294
5.5034
5.50301
5.50152
5.49869
5.49442
5.48872
5.48173
5.47361
5.46459
5.45485
5.44462
5.43406
5.42328
5.41227
5.40103
5.38972
5.379
5.36953
5.36243
5.35592
5.5305
5.53185
5.53336
5.53477
5.53572
5.53577
5.53453
5.53187
5.5278
5.52247
5.51609
5.5089
5.5011
5.4929
5.48452
5.47609
5.46762
5.45908
5.45066
5.4428
5.43609
5.43141
5.4271
5.55941
5.5609
5.56289
5.56547
5.56807
5.56987
5.57031
5.56923
5.56672
5.56295
5.55818
5.55264
5.54653
5.54006
5.53353
5.52712
5.52086
5.51469
5.50875
5.50341
5.49903
5.49622
5.49382
5.58774
5.5893
5.59185
5.59599
5.60059
5.60427
5.60633
5.60672
5.60564
5.60333
5.60004
5.596
5.59126
5.58612
5.58112
5.57645
5.5721
5.568
5.56424
5.56105
5.5587
5.55758
5.55667
5.61612
5.61827
5.62187
5.62789
5.6345
5.63973
5.64298
5.64446
5.64457
5.64363
5.64188
5.63947
5.63604
5.63185
5.62817
5.62507
5.62253
5.62022
5.61836
5.61707
5.61654
5.61702
5.61822
5.64598
5.65021
5.65542
5.66449
5.67179
5.67717
5.68057
5.68252
5.68349
5.68386
5.68391
5.68416
5.68059
5.67702
5.67464
5.67312
5.67211
5.6713
5.67095
5.6711
5.6719
5.67353
5.67693
5.69207
5.69326
5.69707
5.70481
5.70921
5.7121
5.71389
5.71508
5.71593
5.71667
5.71753
5.71934
5.71835
5.71534
5.71425
5.71403
5.7139
5.71347
5.71347
5.71377
5.71437
5.71538
5.71776
1182.97
1116.13
1117.59
1117.81
1125.32
1119.82
1117.38
1117.39
1096.05
1085.32
949.29
780.028
715.182
697.066
701.051
721.962
714.447
743.568
751.43
752.435
749.277
749.306
749.418
749.898
749.03
749.358
749.552
749.62
737.525
737.158
737.589
738.273
288.667
289.434
290.937
290.199
3.41686
3.30069
3.20042
3.13434
3.60729
3.49921
3.37842
3.28608
3.59812
3.47789
3.34868
3.25674
3.61966
3.49912
3.3658
3.26985
3.65262
3.53168
3.39698
3.29952
3.69266
3.57189
3.43657
3.33875
3.73898
3.61907
3.48431
3.38635
3.79118
3.67279
3.53874
3.44136
3.84841
3.73197
3.60001
3.50362
3.911
3.79718
3.66726
3.57248
3.97828
3.86763
3.74108
3.64796
4.04942
3.94248
3.81918
3.7286
4.12352
4.02058
3.90211
3.81447
4.20142
4.10309
3.98911
3.90501
4.28251
4.18957
4.08161
4.00102
4.36838
4.27993
4.17629
4.09914
4.45534
4.37189
4.27413
4.20055
4.54422
4.46618
4.3738
4.30451
4.6345
4.56219
4.47647
4.41124
4.72524
4.65896
4.57925
4.51884
4.81534
4.755
4.68276
4.62732
4.90584
4.85167
4.78597
4.73586
4.99657
4.9487
4.8904
4.84487
5.08639
5.04486
4.99286
4.95214
5.17343
5.13785
5.09306
5.05693
5.25761
5.22778
5.18901
5.1576
5.33813
5.31371
5.28139
5.25403
5.41389
5.39449
5.36746
5.34432
5.48394
5.46884
5.44757
5.42852
5.54987
5.53869
5.52212
5.5072
5.61474
5.60749
5.59571
5.5839
5.68008
5.67753
5.66978
5.6597
5.72231
5.72274
5.72011
5.71484
1207.36
1205.28
1118.89
1061.77
1109.39
1177.52
1144.09
1092.51
1096.82
1105.45
1110.27
1114.56
1121.09
1120.83
1116.77
1113.92
1112.29
1094.56
1027.49
1028.36
985.994
999.204
1013.54
971.997
917.823
975.352
1052.87
1082.45
1100.43
1111.41
1115.76
1121.56
1121.65
1115.45
1100.27
1079.07
1058.13
1069.37
742.906
760.565
814.243
805.674
716.408
766.56
834.104
810.646
823.889
837.842
871.553
908.151
946.692
945.604
918.761
876.63
847.094
841.661
833.908
729.989
742.985
754.017
752.761
741.022
685.786
680.471
722.279
737.112
734.752
732.843
731.566
731.985
732.761
734.303
738.494
743.128
766.87
811.868
753.479
753.09
752.476
750.82
750.261
742.522
741.846
740.756
737.553
735.237
733.275
731.855
731.306
731.82
733.771
737.034
740.957
744.986
747.559
750.775
751.299
751.023
750.442
749.693
747.789
744.652
741.184
738.125
735.621
733.625
732.277
731.674
731.954
733.618
736.63
740.369
744.395
749.458
749.711
749.868
749.75
749.226
748.3
746.649
744.169
741.297
738.422
735.811
733.725
732.284
731.442
731.158
733.478
745.293
756.408
753.641
753.86
738.848
740.623
741.834
742.642
742.172
739.695
732.246
715.328
689.29
658.97
630.93
607.42
573.05
520.502
514.402
529.996
578.082
678.774
745.437
281.804
284.829
285.08
280.33
267.244
240.803
203.684
163.792
125.375
89.5712
56.654
27.3344
29.5387
45.0583
56.9587
68.5001
88.2221
141.673
233.741
3.07987
3.03508
3.01371
3.01119
3.01735
3.02234
3.04432
3.12472
3.51528
4.61679
6.11345
6.1735
5.3102
5.42554
3.5174
4.39637
6.39841
6.49946
13.5246
3.2002
3.16652
3.1469
3.20143
3.44802
3.56158
3.4493
3.30571
3.24272
3.22495
3.45013
4.01356
3.89659
3.21054
2.98444
2.98143
2.99474
3.03112
3.00272
3.18799
3.16364
3.13962
3.42169
4.02257
3.99265
3.95729
3.09867
2.98145
3.06717
3.75396
3.78976
3.13655
3.02582
2.99138
2.99414
2.99618
2.99872
3.00457
3.19708
3.1734
3.14626
3.12841
3.45793
3.74099
3.28843
3.00561
2.99525
2.98649
2.98026
2.99969
2.99329
3.00391
3.0145
3.02242
3.02705
3.02795
3.02915
3.22487
3.20142
3.17321
3.13672
3.09774
3.06525
3.04518
3.03492
3.02393
3.01156
3.00669
3.00823
3.01588
3.02577
3.03708
3.04719
3.05514
3.05974
3.06059
3.26398
3.24056
3.21243
3.1771
3.14111
3.10968
3.08567
3.06775
3.05379
3.04372
3.03804
3.03806
3.04349
3.052
3.06248
3.07328
3.0833
3.09085
3.09349
3.31142
3.28808
3.25995
3.22514
3.19018
3.1588
3.13284
3.11222
3.09588
3.08411
3.07706
3.07533
3.07854
3.08539
3.09485
3.1057
3.11653
3.12529
3.12892
3.36692
3.34348
3.31532
3.28056
3.24571
3.21384
3.18655
3.16389
3.14568
3.13213
3.1234
3.11983
3.12108
3.12637
3.13492
3.14554
3.15669
3.16598
3.17026
3.42972
3.40646
3.37828
3.34343
3.30833
3.27568
3.247
3.22275
3.20291
3.18772
3.17732
3.17185
3.17126
3.17506
3.18256
3.19268
3.20374
3.21319
3.21795
3.49977
3.47648
3.44835
3.4134
3.37799
3.3446
3.31472
3.28895
3.26756
3.25078
3.23873
3.23152
3.22917
3.23144
3.23776
3.24707
3.2577
3.26702
3.27195
3.57611
3.55305
3.52499
3.48999
3.45425
3.4202
3.3893
3.36224
3.33939
3.32107
3.30743
3.29856
3.29457
3.29532
3.30034
3.30867
3.31861
3.32752
3.33231
3.65865
3.63561
3.60773
3.57273
3.53674
3.50211
3.47033
3.44214
3.41799
3.39823
3.3831
3.37268
3.36713
3.36639
3.37008
3.37726
3.38634
3.39472
3.39918
3.74639
3.72366
3.69601
3.66112
3.62498
3.5899
3.5574
3.52825
3.50295
3.48189
3.46535
3.45348
3.44644
3.44425
3.44656
3.45257
3.46069
3.46847
3.47268
3.83946
3.81655
3.78929
3.75462
3.71845
3.68308
3.65
3.62005
3.59375
3.57154
3.55371
3.54048
3.53204
3.52844
3.52941
3.53415
3.5413
3.54847
3.55259
3.93688
3.91357
3.88691
3.85264
3.8166
3.78109
3.74762
3.71703
3.68989
3.66665
3.64766
3.63316
3.6234
3.61845
3.61808
3.62163
3.62776
3.63429
3.63827
4.03837
4.01452
3.98843
3.95465
3.91887
3.88339
3.84969
3.81863
3.7908
3.76668
3.74665
3.731
3.72
3.71376
3.71211
3.71444
3.71958
3.72549
3.72925
4.14202
4.11975
4.09365
4.06025
4.02481
3.98947
3.95568
3.92431
3.89595
3.8711
3.85015
3.83345
3.8213
3.81384
3.81094
3.81212
3.81629
3.82154
3.82501
4.24919
4.22782
4.20203
4.16914
4.13413
4.09902
4.06525
4.03368
4.00491
3.97944
3.95769
3.94005
3.92683
3.91821
3.91413
3.91412
3.91732
3.92191
3.92499
4.35857
4.33815
4.31293
4.28077
4.24637
4.21167
4.17807
4.14644
4.11738
4.0914
4.06897
4.05048
4.03627
4.02654
4.02126
4.02012
4.02225
4.02606
4.02873
4.46992
4.45016
4.42572
4.39445
4.36084
4.32675
4.29353
4.26203
4.23286
4.20654
4.18356
4.16432
4.14918
4.13838
4.13194
4.12954
4.13056
4.13354
4.13573
4.5819
4.56323
4.53965
4.50944
4.4768
4.44352
4.41088
4.37972
4.35064
4.32417
4.30079
4.28093
4.26495
4.25312
4.24549
4.2419
4.24173
4.24371
4.24542
4.69459
4.67659
4.65395
4.62492
4.59344
4.56116
4.52933
4.49875
4.46998
4.44357
4.41999
4.39965
4.38293
4.37014
4.36139
4.35651
4.35512
4.35607
4.35731
4.80654
4.78939
4.76769
4.73998
4.70984
4.67881
4.64805
4.61829
4.59011
4.564
4.54041
4.51976
4.50245
4.48878
4.47892
4.47286
4.47021
4.47009
4.47086
4.91728
4.90059
4.8799
4.85364
4.82505
4.79553
4.76612
4.73749
4.71019
4.68466
4.66131
4.64056
4.62279
4.60836
4.5975
4.59022
4.58639
4.58527
4.5856
5.02498
5.0091
4.98952
4.9649
4.93811
4.91038
4.88264
4.8555
4.82942
4.80478
4.78196
4.76133
4.7433
4.72824
4.71644
4.70813
4.70317
4.70117
4.70108
5.12914
5.11387
5.09556
5.07281
5.0481
5.0225
4.99681
4.97153
4.94706
4.92368
4.9017
4.88148
4.86339
4.84785
4.83527
4.82594
4.82005
4.81738
4.81694
5.22821
5.21396
5.19712
5.17653
5.15424
5.13115
5.10793
5.08497
5.06253
5.04082
5.02007
5.00057
4.98269
4.96685
4.95356
4.94343
4.93674
4.93354
4.93297
5.32186
5.30864
5.29357
5.27545
5.25598
5.23585
5.21558
5.19542
5.17549
5.1559
5.13682
5.11847
5.10112
5.08521
5.07138
5.06041
5.05307
5.04964
5.04911
5.4093
5.39767
5.38462
5.36932
5.3531
5.33647
5.31973
5.30287
5.28594
5.26899
5.2521
5.23542
5.21909
5.20344
5.18912
5.17745
5.16931
5.16566
5.16563
5.49171
5.48147
5.47057
5.45836
5.44587
5.43348
5.42078
5.4077
5.39423
5.38045
5.36638
5.35204
5.33743
5.32268
5.30825
5.2956
5.28619
5.28208
5.28302
5.57044
5.56109
5.55228
5.54329
5.53481
5.52771
5.51951
5.51055
5.50097
5.4909
5.48038
5.46933
5.45752
5.44485
5.43125
5.41826
5.40665
5.39865
5.40248
5.64437
5.63494
5.62836
5.62251
5.61763
5.61862
5.6157
5.61114
5.60578
5.59998
5.59376
5.58704
5.57956
5.57098
5.5608
5.5493
5.53557
5.51906
5.52942
5.70474
5.69963
5.6968
5.69446
5.69217
5.69513
5.69493
5.69378
5.6922
5.69046
5.68858
5.68652
5.68416
5.68136
5.67775
5.67319
5.66646
5.65184
5.66416
)
;

boundaryField
{
    leftWall
    {
        type            fixedFluxPressure;
        gradient        uniform 0;
        value           nonuniform List<scalar> 
50
(
5329.81
5326.47
5321.29
5313.33
5295.63
3376.55
1257.92
1256.82
1254.08
1250.81
1215.43
1146.03
900.297
725.58
775.728
779.432
591.281
7.9167
4.84421
4.84302
4.85694
4.87482
4.8949
4.91566
4.9366
4.95894
4.98298
5.00838
5.03514
5.06301
5.09189
5.12163
5.15213
5.18325
5.21488
5.24687
5.27908
5.3114
5.3437
5.37587
5.40779
5.43933
5.47038
5.50081
5.5305
5.55941
5.58774
5.61612
5.64598
5.69207
)
;
    }
    rightWall
    {
        type            fixedFluxPressure;
        gradient        uniform 0;
        value           nonuniform List<scalar> 
50
(
2774.5
2775.18
2494.66
1972.06
1000.64
930.519
943.946
990.193
1027.49
1069.37
833.908
811.868
747.559
749.458
753.86
745.437
233.741
13.5246
3.00272
3.00457
3.02915
3.06059
3.09349
3.12892
3.17026
3.21795
3.27195
3.33231
3.39918
3.47268
3.55259
3.63827
3.72925
3.82501
3.92499
4.02873
4.13573
4.24542
4.35731
4.47086
4.5856
4.70108
4.81694
4.93297
5.04911
5.16563
5.28302
5.40248
5.52942
5.66416
)
;
    }
    lowerWall
    {
        type            fixedFluxPressure;
        gradient        uniform 0;
        value           nonuniform List<scalar> 
62
(
5329.81
5346.62
5372.58
5405.1
5441.88
5482.82
5528.61
5580.21
5638.17
5702.55
5772.97
5848.69
5928.67
6011.73
6096.72
6182.78
6269.43
6356.39
6443.08
6527.78
6605.95
6669.5
6716.52
6716.52
6724.74
6740.73
6765.32
6798.3
6839.64
6883.09
5771.04
1182.97
1116.13
1117.59
1117.81
2426.19
2161.54
1616.16
1609.26
1491.34
1194.97
1189.31
1228.88
2426.19
2457.58
2525.42
2623.1
2755.9
2883.08
2890.01
2874.24
2907.62
2915.14
2882.8
2818.64
2786.33
2829.96
2809.02
2792.47
2778.66
2771.09
2774.5
)
;
    }
    atmosphere
    {
        type            prghTotalPressure;
        rho             rho;
        psi             none;
        gamma           1;
        p0              uniform 0;
        value           nonuniform List<scalar> 
46
(
5.72904
5.72904
5.72904
5.72904
5.72904
5.72904
5.72904
5.72904
5.72904
5.72904
5.72904
5.72904
5.72904
5.72904
5.72904
5.72904
5.72904
5.72904
5.72904
5.72904
5.72904
5.72904
5.72904
5.72904
5.72904
5.72904
5.72904
5.72904
5.72904
5.72904
5.72904
5.72904
5.72904
5.72904
5.72904
5.72904
5.72904
5.72904
5.72904
5.72904
5.72904
5.72904
5.72904
5.72904
5.72904
5.72899
)
;
        rho             rho;
    }
    defaultFaces
    {
        type            empty;
    }
}


// ************************************************************************* //
