/*--------------------------------*- C++ -*----------------------------------*\
  =========                 |
  \\      /  F ield         | OpenFOAM: The Open Source CFD Toolbox
   \\    /   O peration     | Website:  https://openfoam.org
    \\  /    A nd           | Version:  13
     \\/     M anipulation  |
\*---------------------------------------------------------------------------*/
FoamFile
{
    format      ascii;
    class       volScalarField;
    location    "2.5";
    object      rho;
}
// * * * * * * * * * * * * * * * * * * * * * * * * * * * * * * * * * * * * * //

dimensions      [1 -3 0 0 0 0 0];

internalField   nonuniform List<scalar> 
2268
(
13529
13529
13529
13529
13529
13529
13529
13529
13529
13529
13529
13529
13529
13529
13529
13529
13529
13529
13529
13529
13524.7
13521.6
13521.6
13529
13529
13529
13529
13529
13529
13529
13529
13529
13529
13529
13529
13529
13529
13529
13529
13529
13529
13529
13529
13528.3
13526.9
13524.6
13529
13529
13529
13529
13529
13529
13529
13529
13529
13529
13529
13529
13529
13529
13529
13529
13529
13529
13529
13529
13529
13529
13529
13529
13529
13529
13529
13529
13529
13529
13529
13529
13529
13529
13529
13529
13529
13529
13529
13529
13529
13529
13529
13529
13529
13529
13497.2
13511.7
13525.9
13529
13529
13529
13529
13529
13529
13529
13529
13529
13529
13529
13529
13529
13529
13529
13529
13529
13529
13529
13529
6997.07
7377.52
7901.93
8453.44
9059.16
9663.7
10237.2
10849.5
11476.2
12085.3
12633.9
13075.2
13370.8
13509.3
13529
13529
13529
13529
13529
13529
13529
13529
13529
1000
1000
1000
999.999
999.998
1089.91
1330.13
1657.93
2108.04
2719.87
3536.55
4594.92
5907.3
7449.23
8953.57
10268.5
11394.3
12303.2
13004.4
13527.4
13528.9
13526.5
13520.9
1000
1000
1000
999.998
999.996
999.998
999.999
1000
1000
1000
1000
1000
1000
1000
1180.5
1655.99
2324.19
3183.34
4216.09
5364.63
6834.6
8401.32
10757.3
11620.5
11820.6
11943.9
11953.2
11947.4
11931.6
10201.2
8743.93
8804.99
8898.78
8788.58
8479.18
8662.82
10208.7
10335.6
10354.2
10320.4
10291
10295.9
7229.92
7251.46
7957.96
8751.08
10417.6
11514.3
11427.8
11030.9
11248.5
11241.6
11040.6
9958.63
9856.84
10289.1
10289.2
10296.4
10295.1
10293.4
10294
2622.5
2682.87
2737.33
3568.82
4829.8
7679.84
8508.85
9760.1
10248
10496.3
10165.6
9962.97
9282.72
9187.97
8911.67
9429.76
9202.12
8309.48
7895.42
2613.6
2711.53
2758.91
2693.27
2198.12
1771.62
3342.81
3557.18
3434.56
3823.53
4206.05
4187.44
3797.2
3816.6
3390.76
2585.85
2716.45
3925.2
4925.96
2132.6
2209.48
2207.1
2449.25
2110.75
1046.63
1080.47
1464.63
1622.21
1090.63
998.9
2258.55
2804.27
1646.47
938.207
643.794
597.242
630.71
797.753
1138.18
1299.48
1948.62
1972.43
2187.84
1529.4
1263.44
1270.76
1654.84
1144.36
953.673
396.894
263.491
360.283
709.898
945.267
999.013
997.854
564.882
1134.67
987.487
997.426
1242.4
1779.67
1747.3
1643.87
1749.52
1630.13
1111.02
1007.52
878.122
302.617
497.645
924.18
999.905
999.879
998.305
620.415
1242.75
1148.66
989.128
975.671
1106.07
1703.08
1780.2
1558.45
1036.38
1022.32
1005.55
994.301
698.021
773.541
999.873
999.974
999.812
981.686
743.679
1000
1000
1000
999.963
999.986
999.998
1000
1000
1000
1000
1000
1000
1000
1000
1000
1000
1000
1000
1000
999.996
1009.95
1073.64
1418.98
1000
999.992
999.071
999.521
999.969
999.999
999.999
1000
1000
1000
1000
1000
1000
1000
1000
1000
1000
1000
1000
1000
1000
1000.62
999.695
954.622
984.986
997.669
999.658
999.994
999.999
999.152
998.242
998.033
998.034
997.775
995.474
990.066
988.026
992.696
997.628
998.796
998.525
988.476
954.48
922.904
919.093
919.158
873.807
913.385
914.425
905.516
911.939
913.908
871.671
848.799
833.746
821.296
807.945
788.987
766.567
760.527
758.749
740.862
718.649
693.023
674.746
656.534
631.197
569.495
491.085
620.672
574.483
554.124
548.913
556.326
515.528
502.302
468.456
445.745
432.164
416.541
428.595
442.69
446.331
436.407
426.634
450.802
487.435
488.348
487.27
493.318
468.799
448.793
460.384
500.195
499.738
499.155
477.254
456.685
486.065
499.976
495.13
492.916
500
500
500
500
498.156
497.688
499.74
500
500
499.693
496.83
494.371
498.546
499.634
500.408
500.014
500.001
500
500
500
500
500
500
500
500
500
500
500
500
500
500
500
500.001
500.006
500.01
500.008
499.614
500.556
500.05
499.36
494.627
477.853
471.422
470.431
464.578
460.412
459.323
460.537
462.353
465.179
468.798
472.079
474.971
478.232
481.916
485.038
487.128
488.553
489.875
368.542
380.848
318.571
256.422
201.489
174.136
156.555
129.863
110.39
102.053
101.8
101.64
102.289
105.673
111.163
117.056
123.368
131.773
142.217
151.632
158.419
163.627
170.184
2.75137
38.1039
46.4846
12.135
1.00115
1.00056
1.00032
1.00015
1.0001
1.00004
1.00002
1.00002
1.00003
1.00003
1.00002
1
1
1
1
1.00001
1.00001
1.00002
1.00004
1.0007
1.00145
1.00209
1.00106
1.00048
1.0002
1.00007
1.00001
1
1
1.00001
1.00002
1.00002
1.00002
1.00002
1.00001
1.00002
1.00002
1.00002
1.00002
1.00003
1.00005
1.0001
1.0007
1.00202
1.00414
1.00343
1.00006
1.00008
1.0003
1.00312
1.01138
1.01074
1.00054
1.00028
1.00014
1.0001
1.00013
1.00015
1.00011
1.00009
1.00008
1.00007
1.00006
1.00007
1.0001
1.00066
1.00238
1.01228
1.0259
1.01366
1.00009
1.00031
1.02939
1.08247
1.07769
1.008
1.00074
1.00047
1.00034
1.00039
1.00035
1.00018
1.00012
1.0001
1.00007
1.00006
1.00005
1.00006
1.00057
1.00272
1.02243
1.03084
1.02975
1.00102
1.00042
1.04461
1.08264
1.08362
1.07824
1.00377
1.00233
1.00157
1.00131
1.00075
1.00026
1.00016
1.00013
1.00009
1.00007
1.00004
1.00004
1.00054
1.00146
1.01417
1.02922
1.01702
1.00039
1.0002
1.01145
1.07465
1.08259
1.0815
1.00837
1.00317
1.00316
1.0029
1.0011
1.00023
1.00016
1.00015
1.0001
1.00008
1.00004
1.00004
1.00054
1.00102
1.00219
1.00463
1.00097
1.00016
1.00005
1.0004
1.01026
1.04429
1.02573
1.00271
1.00314
1.00318
1.00295
1.00122
1.00023
1.00013
1.00013
1.0001
1.00008
1.00006
1.00004
1.00039
1.0007
1.00051
1.00014
1.00009
1.00004
1.00004
1.00006
1.00023
1.00029
1.00008
1.00014
1.0013
1.0026
1.00109
1.00016
1.00016
1.00013
1.00009
1.00008
1.00007
1.00005
1.00004
1.00026
1.00042
1.00021
1.00006
1.00005
1.00005
1.00005
1.00007
1.00005
1.00008
1.00008
1.00021
1.00078
1.00062
1.00009
1.00007
1.00007
1.00008
1.00006
1.00005
1.00004
1.00004
1.00003
1.00019
1.00026
1.00016
1.00007
1.00005
1.00005
1.00005
1.00005
1.00003
1.00002
1.00002
1.00025
1.00047
1.00038
1.0001
1.00004
1.00004
1.00004
1.00003
1.00003
1.00002
1.00002
1.00002
1.00011
1.00014
1.0001
1.00006
1.00004
1.00004
1.00003
1.00003
1.00002
1.00002
1.00002
1.00013
1.00029
1.00018
1.00005
1.00003
1.00002
1.00002
1.00002
1.00001
1.00001
1.00001
1.00001
1.00007
1.00008
1.00006
1.00004
1.00003
1.00003
1.00002
1.00002
1.00002
1.00002
1.00002
1.00005
1.00007
1.00004
1.00002
1.00002
1.00001
1.00001
1.00001
1.00001
1.00001
1.00001
1.00001
1.00005
1.00006
1.00005
1.00004
1.00003
1.00002
1.00002
1.00001
1.00001
1.00001
1.00002
1.00002
1.00002
1.00001
1.00001
1.00001
1.00001
1.00001
1.00001
1.00001
1
1
1
1.00004
1.00004
1.00004
1.00003
1.00002
1.00002
1.00001
1.00001
1.00001
1.00001
1.00001
1.00001
1.00001
1.00001
1.00001
1
1
1
1
1
1
1
1
1.00004
1.00004
1.00003
1.00003
1.00002
1.00001
1.00001
1.00001
1.00001
1
1
1
1
1
1
1
1
1
1
1
1
1
1
1.00003
1.00003
1.00003
1.00002
1.00002
1.00001
1.00001
1.00001
1
1
1
1
1
1
1
1
1
1
1
1
1
1
1
1.00003
1.00003
1.00002
1.00002
1.00001
1.00001
1.00001
1
1
1
1
1
1
1
1
1
1
1
1
1
1
1
1
1.00002
1.00002
1.00002
1.00001
1.00001
1.00001
1
1
1
1
1
1
1
1
1
1
1
1
1
1
1
1
1
1.00002
1.00002
1.00001
1.00001
1.00001
1
1
1
1
1
1
1
1
1
1
1
1
1
1
1
1
1
1
1.00002
1.00001
1.00001
1.00001
1
1
1
1
1
1
1
1
1
1
1
1
1
1
1
1
1
1
1
1.00001
1.00001
1.00001
1
1
1
1
1
1
1
1
1
1
1
1
1
1
1
1
1
1
1
1
1.00001
1.00001
1
1
1
1
1
1
1
1
1
1
1
1
1
1
1
1
1
1
1
1
1
1.00001
1
1
1
1
1
1
1
1
1
1
1
1
1
1
1
1
1
1
1
1
1
1
1
1
1
1
1
1
1
1
1
1
1
1
1
1
1
1
1
1
1
1
1
1
1
1
1
1
1
1
1
1
1
1
1
1
1
1
1
1
1
1
1
1
1
1
1
1
1
1
1
1
1
1
1
1
1
1
1
1
1
1
1
1
1
1
1
1
1
1
1
1
1
1
1
1
1
1
1
1
1
1
1
1
1
1
1
1
1
1
1
1
1
1
1
1
1
1
1
1
1
1
1
1
1
1
1
1
1
1
1
1
1
1
1
1
1
1
1
1
1
1
1
1
1
1
1
1
1
1
1
1
1
1
1
1
1
1
1
1
1
1
1
1
1
1
1
1
1
1
1
1
1
1
1
1
1
1
1
1
1
1
1
1
1
1
1
1
1
1
1
1
1
1
1
1
1
1
1
1
1
1
1
1
1
1
1
1
1
1
1
1
1
1
1
1
1
1
1
1
1
1
1
1
1
1
1
1
1
1
1
1
1
1
1
1
1
1
1
1
1
1
1
1
1
1
1
1
1
1
1
1
1121.76
1000.03
1000.03
1000.05
997.985
996.283
996.242
999.982
934.505
922.513
748.672
532.06
470.248
448.822
450.364
469.837
469.167
496.843
503.267
502.867
500.265
500.247
500.033
500.004
500.001
500.001
500.007
500.009
492.047
492.042
492.19
492.16
181.272
181.777
182.764
182.301
1.00005
1.00006
1.00006
1.00007
1.00013
1.00014
1.00013
1.00016
1.00013
1.00013
1.00013
1.00013
1.00008
1.0001
1.0001
1.0001
1.00005
1.00006
1.00006
1.00007
1.00003
1.00003
1.00004
1.00005
1.00003
1.00003
1.00003
1.00003
1.00002
1.00002
1.00002
1.00002
1.00002
1.00001
1.00001
1.00001
1.00001
1.00001
1.00001
1.00001
1.00001
1.00001
1.00001
1.00001
1.00001
1
1
1
1
1
1
1
1
1
1
1
1
1
1
1
1
1
1
1
1
1
1
1
1
1
1
1
1
1
1
1
1
1
1
1
1
1
1
1
1
1
1
1
1
1
1
1
1
1
1
1
1
1
1
1
1
1
1
1
1
1
1
1
1
1
1
1
1
1
1
1
1
1
1
1
1
1
1
1
1
1
1
1
1
1
1
1
1176.07
1163.7
1006.21
914.058
1025.8
1165.19
1103.67
1000.88
998.949
1000.54
1001.4
1001.22
994.449
994.666
999.939
1000.23
999.075
969.995
835.384
873.451
805.567
819.686
845.728
799.577
727.292
811.325
926.539
967.687
988.764
999.717
999.854
1000.05
999.162
994.113
973.361
939.801
903.561
914.273
482.77
502.032
569.892
561.901
453.037
523.089
614.111
587.262
604.91
622.49
664.905
710.031
756.635
754.126
719.28
662.851
620.134
606.956
592.737
474.272
486.973
500.213
499.774
487.744
432.155
432.42
481.811
500.638
500.039
500.013
500.179
501.217
501.381
500.646
500.854
500.651
522.165
567.502
501.486
500.161
500.013
498.996
499.205
493.647
496.83
499.936
500.009
500.034
500.024
500.003
500.001
500.013
500.067
500.084
500.24
501.093
500.397
500.002
500.001
499.936
499.88
500.021
500.005
500
500
500
500
500
500.001
500.001
500
499.995
499.987
499.99
500.095
500.272
500.003
499.999
499.998
500.003
500.004
500.002
500.001
500
500
500
500
500.006
500.102
500.258
501.023
507.931
513.028
506.266
501.544
491.427
492.398
493.366
494.218
494.482
493.725
489.778
479.32
462.502
442.651
424.235
408.698
384.708
347.524
342.442
351.932
383.326
450.553
492.882
176.951
178.964
179.173
176.205
167.948
151.178
127.608
102.28
77.9087
55.2161
34.3826
15.8317
17.2143
26.8921
34.3076
41.3989
53.5552
87.1445
144.931
1.00011
1.00016
1.00035
1.00098
1.00237
1.01383
1.04508
1.10623
1.32471
1.93609
2.77081
2.78033
2.28045
2.37194
1.24665
1.75361
2.91629
2.98647
7.12012
1.00028
1.00042
1.00041
1.0366
1.17875
1.25854
1.22059
1.16692
1.14381
1.13241
1.24829
1.55777
1.50074
1.12609
1.00062
1.00023
1.00681
1.02528
1.00582
1.00015
1.00025
1.00034
1.16136
1.48784
1.48762
1.48784
1.05419
1.00024
1.04823
1.40632
1.4246
1.083
1.02209
1.00037
1.00052
1.00061
1.00027
1.00012
1.00011
1.00017
1.00042
1.00951
1.18964
1.34361
1.13359
1.00023
1.00043
1.00078
1.00114
1.00911
1.00036
1.00016
1.00025
1.0005
1.00057
1.00041
1.00025
1.00008
1.00011
1.00011
1.00006
1.00007
1.00008
1.00021
1.0018
1.00217
1.00046
1.0005
1.00031
1.00018
1.00014
1.00018
1.00028
1.00032
1.00025
1.00027
1.00005
1.00006
1.00006
1.00006
1.00007
1.00009
1.00011
1.00013
1.00018
1.00021
1.00024
1.00021
1.00017
1.00012
1.0001
1.00012
1.00013
1.00013
1.00014
1.00003
1.00003
1.00005
1.00007
1.00011
1.00015
1.00015
1.00013
1.00013
1.00014
1.00018
1.0002
1.00017
1.00012
1.00005
1.00004
1.00004
1.00004
1.00004
1.00002
1.00002
1.00002
1.00003
1.00006
1.0001
1.00015
1.00014
1.0001
1.00008
1.00008
1.0001
1.0001
1.00006
1.00003
1.00002
1.00002
1.00001
1.00001
1.00001
1.00001
1.00001
1.00001
1.00002
1.00002
1.00004
1.00005
1.00004
1.00003
1.00003
1.00003
1.00003
1.00002
1.00001
1.00001
1.00001
1.00001
1.00001
1.00001
1.00001
1.00001
1.00001
1.00001
1.00001
1.00001
1.00001
1.00001
1.00001
1.00001
1.00001
1.00001
1.00001
1.00001
1.00001
1.00001
1.00001
1.00001
1
1
1
1
1
1.00001
1.00001
1.00001
1.00001
1.00001
1.00001
1.00001
1.00001
1
1
1.00001
1.00001
1.00001
1.00001
1
1
1
1
1
1
1
1
1
1
1
1
1
1
1
1
1.00001
1.00001
1.00001
1
1
1
1
1
1
1
1
1
1
1
1
1
1
1
1
1.00001
1.00002
1.00002
1
1
1
1
1
1
1
1
1
1
1
1
1
1
1
1
1.00001
1.00002
1.00003
1
1
1
1
1
1
1
1
1
1
1
1
1
1
1
1
1.00001
1.00004
1.00004
1
1
1
1
1
1
1
1
1
1
1
1
1
1
1
1
1.00001
1.00004
1.00004
1
1
1
1
1
1
1
1
1
1
1
1
1
1
1
1
1.00001
1.00004
1.00004
1
1
1
1
1
1
1
1
1
1
1
1
1
1
1
1
1.00002
1.00004
1.00003
1
1
1
1
1
1
1
1
1
1
1
1
1
1
1
1
1.00002
1.00005
1.00002
1
1
1
1
1
1
1
1
1
1
1
1
1
1
1
1
1.00002
1.00005
1.00002
1
1
1
1
1
1
1
1
1
1
1
1
1
1
1
1.00001
1.00002
1.00005
1.00001
1
1
1
1
1
1
1
1
1
1
1
1
1
1
1
1.00001
1.00002
1.00003
1.00001
1
1
1
1
1
1
1
1
1
1
1
1
1
1
1
1.00001
1.00002
1.00003
1
1
1
1
1
1
1
1
1
1
1
1
1
1
1
1
1.00001
1.00001
1
1
1
1
1
1
1
1
1
1
1
1
1
1
1
1
1
1.00001
1.00001
1.00001
1
1
1
1
1
1
1
1
1
1
1
1
1
1
1
1
1
1.00001
1
1
1
1
1
1
1
1
1
1
1
1
1
1
1
1
1
1
1
1
1
1
1
1
1
1
1
1
1
1
1
1
1
1
1
1
1
1
1
1
1
1
1
1
1
1
1
1
1
1
1
1
1
1
1
1
1
1
1
1
1
1
1
1
1
1
1
1
1
1
1
1
1
1
1
1
1
1
1
1
1
1
1
1
1
1
1
1
1
1
1
1
1
1
1
1
1
1
1
1
1
1
1
1
1
1
1
1
1
1
1
1
1
1
1
1
1
1
1
1
1
1
1
1
1
1
1
1
1
1
1
1
1
1
1
)
;

boundaryField
{
    leftWall
    {
        type            calculated;
        value           nonuniform List<scalar> 
50
(
13529
13529
13529
13529
13497.2
6997.07
1000
1000
1000
1000
954.622
873.807
620.672
460.384
499.634
499.614
368.542
2.75137
1.0007
1.0007
1.00066
1.00057
1.00054
1.00054
1.00039
1.00026
1.00019
1.00011
1.00007
1.00005
1.00004
1.00004
1.00003
1.00003
1.00002
1.00002
1.00002
1.00001
1.00001
1.00001
1
1
1
1
1
1
1
1
1
1
)
;
    }
    rightWall
    {
        type            calculated;
        value           nonuniform List<scalar> 
50
(
10295.9
10294
7895.42
4925.96
797.753
564.882
620.415
743.679
835.384
914.273
592.737
567.502
500.397
500.272
501.544
492.882
144.931
7.12012
1.00582
1.00012
1.00025
1.00027
1.00014
1.00004
1.00001
1.00001
1.00001
1.00001
1.00001
1.00002
1.00003
1.00004
1.00004
1.00004
1.00003
1.00002
1.00002
1.00001
1.00001
1
1
1
1
1
1
1
1
1
1
1
)
;
    }
    lowerWall
    {
        type            calculated;
        value           nonuniform List<scalar> 
62
(
13529
13529
13529
13529
13529
13529
13529
13529
13529
13529
13529
13529
13529
13529
13529
13529
13529
13529
13529
13529
13524.7
13521.6
13521.6
13521.6
13524.6
13529
13529
13529
13529
13520.9
10757.3
1121.76
1000.03
1000.03
1000.05
11620.5
7229.92
2622.5
2613.6
2132.6
1138.18
1134.67
1242.75
11620.5
11820.6
11943.9
11953.2
11947.4
11931.6
10201.2
8743.93
8804.99
8898.78
8788.58
8479.18
8662.82
10208.7
10335.6
10354.2
10320.4
10291
10295.9
)
;
    }
    atmosphere
    {
        type            calculated;
        value           nonuniform List<scalar> 
46
(
1
1
1
1
1
1
1
1
1
1
1
1
1
1
1
1
1
1
1
1
1
1
1
1
1
1
1
1
1
1
1
1
1
1
1
1
1
1
1
1
1
1
1
1
1
1
)
;
    }
    defaultFaces
    {
        type            empty;
    }
}


// ************************************************************************* //
