/*--------------------------------*- C++ -*----------------------------------*\
  =========                 |
  \\      /  F ield         | OpenFOAM: The Open Source CFD Toolbox
   \\    /   O peration     | Website:  https://openfoam.org
    \\  /    A nd           | Version:  13
     \\/     M anipulation  |
\*---------------------------------------------------------------------------*/
FoamFile
{
    format      ascii;
    class       volVectorField;
    location    "2.5";
    object      U;
}
// * * * * * * * * * * * * * * * * * * * * * * * * * * * * * * * * * * * * * //

dimensions      [0 1 -1 0 0 0 0];

internalField   nonuniform List<vector> 
2268
(
(-0.00307321 0.000940172 0)
(-0.00427721 -0.00121049 0)
(0.0035881 -0.00335245 0)
(0.0125244 -0.0038232 0)
(0.0214561 -0.00368713 0)
(0.0297361 -0.00340588 0)
(0.0373158 -0.0031498 0)
(0.0443682 -0.00295122 0)
(0.0510557 -0.00277777 0)
(0.0574215 -0.00257563 0)
(0.06336 -0.00228663 0)
(0.0686244 -0.00186586 0)
(0.0728547 -0.00128413 0)
(0.0756115 -0.000527778 0)
(0.0763463 0.000418794 0)
(0.0744567 0.0015643 0)
(0.0693673 0.00289096 0)
(0.0605136 0.00439642 0)
(0.0474677 0.00602077 0)
(0.0302835 0.00753343 0)
(0.00995585 0.00816855 0)
(-0.0109961 0.00449246 0)
(-0.0113962 -0.00420379 0)
(-0.000486827 0.00256131 0)
(0.00346607 -0.00302304 0)
(0.0113533 -0.00582083 0)
(0.0191189 -0.00634545 0)
(0.0264513 -0.00600035 0)
(0.0331232 -0.00549595 0)
(0.03923 -0.00508301 0)
(0.0449569 -0.00480956 0)
(0.0504436 -0.00460847 0)
(0.0557263 -0.00438197 0)
(0.0607297 -0.00402789 0)
(0.0652729 -0.0034594 0)
(0.0690855 -0.00260537 0)
(0.071818 -0.00139781 0)
(0.0730093 0.00023549 0)
(0.0720719 0.00231457 0)
(0.0684208 0.00481659 0)
(0.0615265 0.00768834 0)
(0.0510375 0.0107402 0)
(0.0370332 0.0134415 0)
(0.0204134 0.0143013 0)
(0.00276781 0.00902772 0)
(-0.00390123 -0.0075391 0)
(0.00340147 0.000666149 0)
(0.0094612 -0.00647972 0)
(0.0169017 -0.00933525 0)
(0.023627 -0.00964502 0)
(0.0298027 -0.00897266 0)
(0.0354104 -0.00815276 0)
(0.0405704 -0.00752701 0)
(0.0454278 -0.00710699 0)
(0.0500892 -0.0067929 0)
(0.0545791 -0.00644718 0)
(0.0588403 -0.0059288 0)
(0.0627369 -0.00511825 0)
(0.0660659 -0.00391725 0)
(0.0685566 -0.00222008 0)
(0.0698345 0.000109659 0)
(0.0693852 0.00313372 0)
(0.0666647 0.00682791 0)
(0.0612009 0.0110866 0)
(0.0527074 0.0155925 0)
(0.0412655 0.0195644 0)
(0.0275242 0.0210128 0)
(0.0121275 0.0148982 0)
(0.00383766 -0.00577734 0)
(0.00730208 -0.00347546 0)
(0.0142174 -0.0105447 0)
(0.0212289 -0.0128271 0)
(0.0271707 -0.0127489 0)
(0.0325386 -0.0117642 0)
(0.0374071 -0.0107221 0)
(0.0419006 -0.00988147 0)
(0.0461369 -0.00932847 0)
(0.0501786 -0.00890963 0)
(0.054039 -0.00845737 0)
(0.0576744 -0.00779727 0)
(0.0609822 -0.00677733 0)
(0.0638103 -0.00526881 0)
(0.0659563 -0.00312543 0)
(0.0671453 -0.000135362 0)
(0.0669598 0.00375613 0)
(0.064907 0.00852919 0)
(0.0605736 0.0140223 0)
(0.0537294 0.0198016 0)
(0.0444241 0.0249186 0)
(0.0329381 0.0270723 0)
(0.0190822 0.0212265 0)
(0.00989918 -0.00102803 0)
(0.0109244 -0.0101482 0)
(0.0176735 -0.0139952 0)
(0.0244653 -0.0153381 0)
(0.0298704 -0.0149156 0)
(0.0346745 -0.0137707 0)
(0.0391211 -0.012614 0)
(0.0432618 -0.0117227 0)
(0.0470701 -0.0111087 0)
(0.0506511 -0.0106428 0)
(0.0540025 -0.0101291 0)
(0.0570983 -0.00936816 0)
(0.0598675 -0.00817926 0)
(0.0622011 -0.00641008 0)
(0.0639469 -0.0038927 0)
(0.0649101 -0.000393826 0)
(0.0647897 0.00423207 0)
(0.0631741 0.00993616 0)
(0.0597154 0.0165014 0)
(0.0542391 0.0234082 0)
(0.0467144 0.029564 0)
(0.0371492 0.0329224 0)
(0.0245474 0.0282379 0)
(0.0144591 0.00614711 0)
(0.0152132 -0.016506 0)
(0.0209253 -0.0175066 0)
(0.0276516 -0.0180268 0)
(0.0326517 -0.017192 0)
(0.0371059 -0.0157729 0)
(0.0411449 -0.014421 0)
(0.044925 -0.0133742 0)
(0.0484627 -0.012616 0)
(0.0516826 -0.0120034 0)
(0.0546013 -0.0113344 0)
(0.0572017 -0.0104005 0)
(0.0594385 -0.00901606 0)
(0.0612327 -0.00702211 0)
(0.0624303 -0.00426951 0)
(0.0629972 -0.000463696 0)
(0.0627875 0.00462441 0)
(0.0614126 0.0110218 0)
(0.0586234 0.0184539 0)
(0.0542978 0.0263052 0)
(0.0484864 0.033534 0)
(0.0406833 0.0381931 0)
(0.029293 0.0356552 0)
(0.0185868 0.0159393 0)
(0.0205317 -0.020571 0)
(0.0249615 -0.0182842 0)
(0.0319802 -0.0186235 0)
(0.0364862 -0.0176566 0)
(0.0401783 -0.0161355 0)
(0.0437778 -0.0149667 0)
(0.047318 -0.0139454 0)
(0.0503655 -0.0132028 0)
(0.0530909 -0.012612 0)
(0.0554977 -0.0119812 0)
(0.0576182 -0.011081 0)
(0.0594353 -0.00968784 0)
(0.0608465 -0.0075972 0)
(0.061608 -0.0046253 0)
(0.061581 -0.000469568 0)
(0.0608925 0.00501948 0)
(0.0594235 0.0118648 0)
(0.0569933 0.0197246 0)
(0.0536378 0.027956 0)
(0.0491468 0.0355885 0)
(0.0433479 0.0410297 0)
(0.0340966 0.0413512 0)
(0.0240905 0.0291073 0)
(0.0186138 -0.0383266 0)
(0.030114 -0.0279755 0)
(0.0396502 -0.0255116 0)
(0.04588 -0.0231128 0)
(0.050582 -0.0208549 0)
(0.0540647 -0.01878 0)
(0.0565102 -0.0172849 0)
(0.0583004 -0.0158613 0)
(0.0595948 -0.0146835 0)
(0.0606251 -0.0135053 0)
(0.0614776 -0.0120881 0)
(0.0621136 -0.0102104 0)
(0.0623729 -0.00768663 0)
(0.061723 -0.00433406 0)
(0.0604515 -0.000135026 0)
(0.0590649 0.00539315 0)
(0.0573633 0.0124799 0)
(0.0553629 0.0207348 0)
(0.0531226 0.029501 0)
(0.0507615 0.037749 0)
(0.0479076 0.0444732 0)
(0.0420957 0.0464107 0)
(0.0390559 0.0387653 0)
(-0.00403617 0.00166557 0)
(-0.0151947 0.00282122 0)
(-0.0313683 0.00499248 0)
(-0.0546392 0.00834524 0)
(-0.0775885 0.00765886 0)
(-0.0863592 0.000120155 0)
(-0.0923209 0.00387508 0)
(-0.110321 0.00811459 0)
(-0.111214 -0.00324149 0)
(-0.0943046 -0.00836973 0)
(-0.0741096 -0.00850651 0)
(-0.0599202 -0.000565068 0)
(-0.0604427 0.00349483 0)
(-0.0527305 -0.0073866 0)
(-0.0346479 -0.00719846 0)
(-0.0202126 -0.00588169 0)
(-0.00817031 -0.0056415 0)
(0.00326071 -0.00415563 0)
(0.0102421 0.00208266 0)
(-0.00469478 0.00484576 0)
(-0.0190246 0.00857453 0)
(-0.0337235 0.0116801 0)
(-0.0499811 0.0139274 0)
(-0.0631754 0.0116231 0)
(-0.0777128 0.0042524 0)
(-0.0919688 0.0062748 0)
(-0.0968594 0.00666572 0)
(-0.091068 -0.00521575 0)
(-0.0832748 -0.0106451 0)
(-0.0762298 -0.0113545 0)
(-0.0636113 -0.00671238 0)
(-0.0489089 -0.00195922 0)
(-0.0376119 -0.0109591 0)
(-0.0287298 -0.00923973 0)
(-0.0212251 -0.00779379 0)
(-0.0154831 -0.00669276 0)
(-0.00987067 -0.00411119 0)
(-0.00307645 0.00254085 0)
(-0.0129992 0.0137356 0)
(-0.0220112 0.0141252 0)
(-0.0298219 0.0178598 0)
(-0.0357683 0.0179265 0)
(-0.0392034 0.0168975 0)
(-0.0604117 0.0121564 0)
(-0.0783265 0.00929508 0)
(-0.0794339 0.00576177 0)
(-0.0729067 -0.00661878 0)
(-0.0710907 -0.0114937 0)
(-0.0720496 -0.012914 0)
(-0.063069 -0.0120353 0)
(-0.0455605 -0.00800514 0)
(-0.0334291 -0.0137849 0)
(-0.0271327 -0.0116512 0)
(-0.022322 -0.00926007 0)
(-0.0214888 -0.00745416 0)
(-0.0198493 -0.00546782 0)
(-0.0181988 -0.00398983 0)
(-0.0066315 0.0192822 0)
(-0.0144976 0.0159716 0)
(-0.0161842 0.0192001 0)
(-0.0166055 0.0173431 0)
(-0.0101809 0.0189448 0)
(-0.0341375 0.0224174 0)
(-0.0559962 0.0120401 0)
(-0.0577401 0.00373719 0)
(-0.0493992 -0.00917449 0)
(-0.052562 -0.0108455 0)
(-0.0612939 -0.0132348 0)
(-0.05681 -0.0170501 0)
(-0.0409376 -0.0137729 0)
(-0.0319432 -0.0152242 0)
(-0.0298242 -0.0135345 0)
(-0.0241051 -0.00910461 0)
(-0.0210047 -0.00645738 0)
(-0.0129297 -0.00741734 0)
(-0.00671454 -0.0142304 0)
(0.00902297 0.0223374 0)
(-0.00131172 0.0177545 0)
(-0.00151304 0.0192334 0)
(-0.00701284 0.017654 0)
(-0.00353939 0.0180073 0)
(-0.00224749 0.03608 0)
(-0.0188441 0.0166261 0)
(-0.0247515 0.00290079 0)
(-0.0153048 -0.0133808 0)
(-0.0202905 -0.00678449 0)
(-0.0356286 -0.00947595 0)
(-0.0391494 -0.0200881 0)
(-0.0366938 -0.0190668 0)
(-0.0405433 -0.0157809 0)
(-0.0445013 -0.0154303 0)
(-0.0310019 -0.0128576 0)
(-0.002475 -0.0119507 0)
(0.0305837 -0.01441 0)
(0.0618094 -0.00584225 0)
(0.0397976 0.0231057 0)
(0.0265602 0.0224164 0)
(0.0212618 0.0217828 0)
(0.00522946 0.020849 0)
(-0.00263194 0.0166324 0)
(0.0038597 0.033498 0)
(0.00928896 0.0207677 0)
(0.0088536 0.00251027 0)
(0.00982251 -0.0138775 0)
(0.0053629 -0.000826485 0)
(-0.00116778 -0.00648066 0)
(-0.00655407 -0.0201844 0)
(-0.0285275 -0.015866 0)
(-0.0554102 -0.00957035 0)
(-0.0521473 -0.0226158 0)
(-0.0283242 -0.0281133 0)
(0.00782469 -0.0338758 0)
(0.0470915 -0.043703 0)
(0.0988184 0.0254203 0)
(0.0740884 -0.00945821 0)
(0.0663977 0.0212268 0)
(0.0529069 0.0296798 0)
(0.0260289 0.0291077 0)
(0.00612955 0.0191287 0)
(0.00949216 0.0278376 0)
(0.0205613 0.0181956 0)
(0.0248691 0.00286615 0)
(0.0200104 -0.0112324 0)
(0.0115736 0.00143828 0)
(0.00835068 -0.00446527 0)
(0.00620568 -0.0149788 0)
(-0.00715406 0.00483704 0)
(-0.0326215 -0.00277869 0)
(-0.0300554 -0.0289687 0)
(-0.0156239 -0.037669 0)
(0.00910508 -0.0466358 0)
(0.0268122 -0.0579525 0)
(0.061868 0.0589544 0)
(0.0964105 -0.0427325 0)
(0.0842695 0.0157037 0)
(0.0783327 0.0406962 0)
(0.0525911 0.0404391 0)
(0.0249724 0.0257599 0)
(0.020495 0.0250511 0)
(0.0280111 0.0158619 0)
(0.0301972 0.00278984 0)
(0.021993 -0.0069832 0)
(0.01371 0.0024401 0)
(0.0123325 -0.00369251 0)
(0.00722988 -0.0114885 0)
(0.000379562 0.00782419 0)
(-0.00583152 -0.0012365 0)
(-0.00654211 -0.030336 0)
(-0.00344312 -0.0429195 0)
(0.00700569 -0.0535217 0)
(0.00374677 -0.0630368 0)
(0.0195222 0.0745706 0)
(0.0150281 -0.0528933 0)
(0.0304578 -0.0376463 0)
(0.0418286 -0.0308618 0)
(0.0499255 -0.0263906 0)
(0.0555462 -0.0230971 0)
(0.059593 -0.0206863 0)
(0.0622413 -0.0184819 0)
(0.0636618 -0.0169284 0)
(0.0643688 -0.0158086 0)
(0.0647171 -0.0148767 0)
(0.0649436 -0.0137164 0)
(0.0650848 -0.0118609 0)
(0.0650114 -0.00880236 0)
(0.0646634 -0.00435884 0)
(0.0639266 0.0012153 0)
(0.0626929 0.00745183 0)
(0.0613675 0.0149276 0)
(0.0604326 0.0230693 0)
(0.0603924 0.0312113 0)
(0.0616131 0.0390278 0)
(0.065448 0.044042 0)
(0.0746697 0.0463121 0)
(0.10321 0.0327062 0)
(0.0100318 -0.070871 0)
(0.024172 -0.0532375 0)
(0.0344844 -0.0414972 0)
(0.0420396 -0.033441 0)
(0.047358 -0.0279928 0)
(0.0510325 -0.0236341 0)
(0.0531445 -0.0199006 0)
(0.0538561 -0.0170334 0)
(0.0536503 -0.0151262 0)
(0.0530646 -0.0137972 0)
(0.0524561 -0.0124623 0)
(0.0519983 -0.0105353 0)
(0.0517734 -0.00761112 0)
(0.0519235 -0.00366838 0)
(0.0527545 0.00103071 0)
(0.054426 0.00681919 0)
(0.0573124 0.0132634 0)
(0.0621616 0.0199517 0)
(0.0694112 0.0264306 0)
(0.0794815 0.0310701 0)
(0.0926651 0.0306708 0)
(0.108253 0.0190143 0)
(0.125663 -0.0099983 0)
(0.00825958 -0.0838584 0)
(0.0187011 -0.0640495 0)
(0.0253113 -0.0487718 0)
(0.0301774 -0.038363 0)
(0.0335929 -0.0316305 0)
(0.035987 -0.0260446 0)
(0.0370339 -0.0206751 0)
(0.036664 -0.0166321 0)
(0.0354122 -0.014123 0)
(0.0338693 -0.0127015 0)
(0.0324912 -0.0115478 0)
(0.0315695 -0.0100562 0)
(0.0313446 -0.00768891 0)
(0.0320985 -0.00482012 0)
(0.0340358 -0.00120376 0)
(0.0372308 0.00329894 0)
(0.0419894 0.00785623 0)
(0.0489502 0.012153 0)
(0.0583357 0.0159562 0)
(0.0700987 0.0181327 0)
(0.0837192 0.0152984 0)
(0.0964795 0.00551133 0)
(0.103647 -0.0106701 0)
(0.010436 -0.0966786 0)
(0.0143764 -0.0697211 0)
(0.0161266 -0.0523454 0)
(0.0176533 -0.0410037 0)
(0.0187013 -0.0337203 0)
(0.0186117 -0.0269502 0)
(0.0176382 -0.0206177 0)
(0.016129 -0.0156091 0)
(0.0138671 -0.0125591 0)
(0.0113171 -0.0110506 0)
(0.00895379 -0.0100732 0)
(0.00728884 -0.00921604 0)
(0.00693188 -0.00784698 0)
(0.00795096 -0.00620892 0)
(0.0101428 -0.00373183 0)
(0.0133879 -0.000335366 0)
(0.0182702 0.00221722 0)
(0.0254192 0.00393381 0)
(0.0347099 0.00560155 0)
(0.045529 0.00601115 0)
(0.0566245 0.00364197 0)
(0.0650416 -0.000835737 0)
(0.0658943 -0.00873905 0)
(-7.4831e-05 -0.105893 0)
(0.00283826 -0.0720703 0)
(0.00366265 -0.0534198 0)
(0.00442459 -0.0415858 0)
(0.00287032 -0.0330859 0)
(-0.00106848 -0.0242977 0)
(-0.00596841 -0.0181185 0)
(-0.009754 -0.0125267 0)
(-0.0133967 -0.00892147 0)
(-0.01721 -0.00744306 0)
(-0.0204835 -0.00713162 0)
(-0.0226291 -0.00782088 0)
(-0.0232357 -0.00809399 0)
(-0.0222491 -0.00774116 0)
(-0.0201346 -0.00629403 0)
(-0.0166978 -0.00448049 0)
(-0.0115645 -0.00450204 0)
(-0.00482759 -0.00501211 0)
(0.00332566 -0.00452651 0)
(0.0121678 -0.00473796 0)
(0.0202638 -0.00582201 0)
(0.0261733 -0.00546176 0)
(0.0287958 -0.00520365 0)
(-0.0171446 -0.101312 0)
(-0.0105932 -0.0743515 0)
(-0.00906371 -0.0545437 0)
(-0.0102695 -0.040493 0)
(-0.0149669 -0.0283977 0)
(-0.022614 -0.0172945 0)
(-0.0308987 -0.012118 0)
(-0.0378836 -0.00761302 0)
(-0.0437692 -0.00433322 0)
(-0.0487492 -0.00354506 0)
(-0.0522941 -0.00461263 0)
(-0.0540544 -0.00662741 0)
(-0.0543896 -0.00854727 0)
(-0.053304 -0.00974471 0)
(-0.0505561 -0.00987281 0)
(-0.0459206 -0.00976047 0)
(-0.0396666 -0.0108186 0)
(-0.032611 -0.0120862 0)
(-0.0249148 -0.0124917 0)
(-0.0165733 -0.012532 0)
(-0.00851548 -0.0122257 0)
(-0.00120983 -0.0106252 0)
(0.00560233 -0.00917952 0)
(-0.0126134 -0.0886933 0)
(-0.00679316 -0.0739197 0)
(-0.00941086 -0.0528004 0)
(-0.0148132 -0.0346086 0)
(-0.023594 -0.0190386 0)
(-0.0336418 -0.00721991 0)
(-0.0436692 -0.00219322 0)
(-0.0531041 0.000782304 0)
(-0.0612044 0.00244656 0)
(-0.0675424 0.00153085 0)
(-0.0718733 -0.00168694 0)
(-0.0742535 -0.0055362 0)
(-0.0748516 -0.00921352 0)
(-0.0736892 -0.0121768 0)
(-0.0706366 -0.014306 0)
(-0.0656978 -0.0161527 0)
(-0.0593892 -0.0183401 0)
(-0.0522368 -0.0203658 0)
(-0.0442333 -0.0216942 0)
(-0.0354477 -0.0221954 0)
(-0.0263496 -0.0216775 0)
(-0.0171748 -0.0201863 0)
(-0.00788065 -0.0185675 0)
(0.00577515 -0.0824163 0)
(0.00836264 -0.0718965 0)
(0.00502824 -0.0459866 0)
(-0.0050202 -0.0235617 0)
(-0.0198925 -0.00730385 0)
(-0.0344033 0.00317381 0)
(-0.0473625 0.00744569 0)
(-0.0585478 0.00903012 0)
(-0.0683648 0.00881344 0)
(-0.0763802 0.00591837 0)
(-0.0818767 0.000923584 0)
(-0.0849281 -0.00456632 0)
(-0.0859458 -0.00968442 0)
(-0.0849932 -0.0141538 0)
(-0.0820134 -0.0178617 0)
(-0.077175 -0.0210568 0)
(-0.0709485 -0.0241125 0)
(-0.0636414 -0.026831 0)
(-0.0552425 -0.0289574 0)
(-0.045844 -0.0300361 0)
(-0.0357107 -0.0298991 0)
(-0.0248475 -0.0290214 0)
(-0.0133956 -0.0284616 0)
(0.0281448 -0.0783818 0)
(0.025495 -0.0637562 0)
(0.0272032 -0.0389573 0)
(0.0157273 -0.0139894 0)
(-0.00674407 0.0048573 0)
(-0.0290434 0.0138421 0)
(-0.0437642 0.0158317 0)
(-0.055616 0.0165943 0)
(-0.0663107 0.0157162 0)
(-0.0753301 0.0116065 0)
(-0.0817885 0.00486369 0)
(-0.0856332 -0.00214674 0)
(-0.0874746 -0.00850623 0)
(-0.0873446 -0.0142699 0)
(-0.0850583 -0.0193017 0)
(-0.0807249 -0.0235847 0)
(-0.0748654 -0.0274306 0)
(-0.067841 -0.0309374 0)
(-0.0596334 -0.0338981 0)
(-0.0502527 -0.0356528 0)
(-0.0398847 -0.0359791 0)
(-0.0287078 -0.0354334 0)
(-0.0170546 -0.0338929 0)
(0.00569305 -0.115867 0)
(0.0096744 -0.0853666 0)
(0.0282263 -0.0388976 0)
(0.0253322 -0.00230314 0)
(-0.00401786 0.0102609 0)
(-0.0299872 0.0180411 0)
(-0.0442974 0.0187877 0)
(-0.0566446 0.0216005 0)
(-0.0644372 0.0218279 0)
(-0.0698589 0.0167199 0)
(-0.0749763 0.00819658 0)
(-0.0795133 0.000645369 0)
(-0.0818213 -0.0062136 0)
(-0.082143 -0.0129176 0)
(-0.080608 -0.0188838 0)
(-0.0770408 -0.0237508 0)
(-0.0716553 -0.0279318 0)
(-0.0649843 -0.0318095 0)
(-0.0575146 -0.0351997 0)
(-0.0493248 -0.0372275 0)
(-0.0399717 -0.0377031 0)
(-0.0288788 -0.0375847 0)
(-0.0171564 -0.0376955 0)
(0.0711032 -0.129227 0)
(0.000452456 -0.105415 0)
(-0.0206233 -0.0513072 0)
(-0.0302154 0.0346984 0)
(-0.051332 0.111473 0)
(-0.0686958 0.0871608 0)
(-0.0833758 0.0684565 0)
(-0.0933527 0.0574947 0)
(-0.0949824 0.0466936 0)
(-0.0924524 0.0346892 0)
(-0.0893822 0.0206816 0)
(-0.0869045 0.0064248 0)
(-0.0846518 -0.00810778 0)
(-0.0821937 -0.022209 0)
(-0.0793189 -0.0353789 0)
(-0.0758193 -0.0468963 0)
(-0.0717052 -0.0564423 0)
(-0.0671631 -0.064529 0)
(-0.0622321 -0.0716312 0)
(-0.0567958 -0.0774938 0)
(-0.0509683 -0.0818373 0)
(-0.0425839 -0.0841508 0)
(-0.033769 -0.0837005 0)
(-0.0448989 -0.147082 0)
(-0.0493398 -0.0634484 0)
(-0.0705572 -0.0192648 0)
(-0.0953977 0.0537117 0)
(-0.0993107 0.0736471 0)
(-0.0969876 0.0739663 0)
(-0.103645 0.0584619 0)
(-0.107315 0.0437663 0)
(-0.105399 0.0297975 0)
(-0.099312 0.0182116 0)
(-0.0926739 0.0088936 0)
(-0.0878593 -0.000614989 0)
(-0.0845304 -0.0108057 0)
(-0.0819595 -0.0210243 0)
(-0.0797071 -0.0307377 0)
(-0.0776556 -0.0393771 0)
(-0.0756554 -0.0467577 0)
(-0.073666 -0.0530619 0)
(-0.0717136 -0.0584669 0)
(-0.0696417 -0.0627899 0)
(-0.0678282 -0.065764 0)
(-0.0642699 -0.0672505 0)
(-0.0567232 -0.0647185 0)
(-0.0527085 -0.0821601 0)
(-0.0770129 -0.0198841 0)
(-0.0998358 0.0103563 0)
(-0.110428 0.0407406 0)
(-0.110221 0.0698314 0)
(-0.107915 0.070261 0)
(-0.106395 0.0581789 0)
(-0.104951 0.0410654 0)
(-0.100987 0.0234166 0)
(-0.0948251 0.010422 0)
(-0.087894 0.00189791 0)
(-0.0825932 -0.00498971 0)
(-0.0794994 -0.0135645 0)
(-0.0774334 -0.0226545 0)
(-0.0761581 -0.031465 0)
(-0.0754693 -0.0394639 0)
(-0.0752336 -0.0464568 0)
(-0.0753447 -0.0524755 0)
(-0.0757408 -0.0575371 0)
(-0.0763168 -0.0615363 0)
(-0.0773654 -0.0643432 0)
(-0.077065 -0.0657425 0)
(-0.0731082 -0.0637264 0)
(-0.048157 -0.0242497 0)
(-0.0696626 0.0083032 0)
(-0.0891694 0.0315429 0)
(-0.10178 0.0525988 0)
(-0.103683 0.0660512 0)
(-0.0991703 0.0669724 0)
(-0.0945801 0.0558532 0)
(-0.0909733 0.0379465 0)
(-0.0871415 0.0188577 0)
(-0.0826991 0.0047973 0)
(-0.0778155 -0.00361255 0)
(-0.0735907 -0.00852901 0)
(-0.0712293 -0.0156548 0)
(-0.070048 -0.0238001 0)
(-0.069779 -0.0318081 0)
(-0.07032 -0.0391934 0)
(-0.0715194 -0.0457549 0)
(-0.0732485 -0.0514579 0)
(-0.0753811 -0.056232 0)
(-0.0776984 -0.0599587 0)
(-0.0806472 -0.0624989 0)
(-0.0818669 -0.0637489 0)
(-0.0794387 -0.0621008 0)
(-0.0348489 0.0157185 0)
(-0.0538657 0.0374561 0)
(-0.0718912 0.0482292 0)
(-0.0823231 0.0577687 0)
(-0.0841387 0.0645196 0)
(-0.0803012 0.0626556 0)
(-0.0752222 0.0514529 0)
(-0.0711225 0.03443 0)
(-0.0687199 0.0158154 0)
(-0.0668582 0.00159314 0)
(-0.0650741 -0.00697178 0)
(-0.0631557 -0.0109715 0)
(-0.0618079 -0.0171918 0)
(-0.0615062 -0.024293 0)
(-0.0621148 -0.0314402 0)
(-0.0636107 -0.0380727 0)
(-0.0658217 -0.0440703 0)
(-0.0686299 -0.0493363 0)
(-0.0718613 -0.0537586 0)
(-0.075291 -0.0572099 0)
(-0.079153 -0.0595971 0)
(-0.0812292 -0.0608844 0)
(-0.0795493 -0.0595832 0)
(-0.0242222 0.0463456 0)
(-0.0372805 0.0574425 0)
(-0.0508457 0.0609644 0)
(-0.0587925 0.0632686 0)
(-0.0604773 0.0636332 0)
(-0.0575887 0.0583729 0)
(-0.0533472 0.0469486 0)
(-0.0500506 0.031486 0)
(-0.0489129 0.0146446 0)
(-0.049595 0.00108181 0)
(-0.0506658 -0.00732415 0)
(-0.0510172 -0.0118322 0)
(-0.0511496 -0.0174576 0)
(-0.0517758 -0.0236974 0)
(-0.0532795 -0.0299366 0)
(-0.0555261 -0.0357984 0)
(-0.0584396 -0.0411878 0)
(-0.0619088 -0.0459837 0)
(-0.0657783 -0.0500541 0)
(-0.0697497 -0.0532808 0)
(-0.0742041 -0.0556221 0)
(-0.0766249 -0.0570817 0)
(-0.0753645 -0.056133 0)
(-0.0149337 0.0691592 0)
(-0.0226785 0.0717609 0)
(-0.0314688 0.0701055 0)
(-0.0364159 0.0673167 0)
(-0.0373457 0.0630281 0)
(-0.0354305 0.0552899 0)
(-0.0326267 0.0437913 0)
(-0.0307579 0.0298143 0)
(-0.0308808 0.0153329 0)
(-0.032898 0.00290932 0)
(-0.0356953 -0.00533545 0)
(-0.0377752 -0.0109242 0)
(-0.0393078 -0.0164076 0)
(-0.0411197 -0.0221019 0)
(-0.0434296 -0.0276234 0)
(-0.0463138 -0.0328698 0)
(-0.0497037 -0.0377418 0)
(-0.0535579 -0.0421283 0)
(-0.0577386 -0.0459033 0)
(-0.0620181 -0.0489722 0)
(-0.0665895 -0.0513077 0)
(-0.0692924 -0.0529778 0)
(-0.0683982 -0.0522624 0)
(-0.00745349 0.0819482 0)
(-0.0109277 0.0797564 0)
(-0.0154331 0.0751223 0)
(-0.0177026 0.0694493 0)
(-0.0178168 0.0624593 0)
(-0.0164694 0.0533982 0)
(-0.0149511 0.0421634 0)
(-0.0143985 0.0295558 0)
(-0.0155148 0.0169776 0)
(-0.0182253 0.00603034 0)
(-0.0216079 -0.00227893 0)
(-0.0246703 -0.00850962 0)
(-0.0273533 -0.0141795 0)
(-0.0300675 -0.0195508 0)
(-0.0330665 -0.0246568 0)
(-0.0364034 -0.0294813 0)
(-0.0400934 -0.0339767 0)
(-0.0441371 -0.0380484 0)
(-0.0484352 -0.0415993 0)
(-0.052723 -0.0445542 0)
(-0.0574032 -0.0469113 0)
(-0.0600921 -0.0487328 0)
(-0.0592838 -0.0481714 0)
(-0.00203387 0.0864116 0)
(-0.00232797 0.0825888 0)
(-0.00350852 0.076845 0)
(-0.00365968 0.0698215 0)
(-0.00297852 0.061708 0)
(-0.00189409 0.052257 0)
(-0.00113164 0.0415765 0)
(-0.00137748 0.0302475 0)
(-0.00300366 0.0191564 0)
(-0.0058663 0.00930438 0)
(-0.00936233 0.00124415 0)
(-0.0128368 -0.00532385 0)
(-0.016107 -0.0110745 0)
(-0.019375 -0.0163467 0)
(-0.0227681 -0.0212388 0)
(-0.0263521 -0.0258153 0)
(-0.0301655 -0.0300569 0)
(-0.0342352 -0.0339096 0)
(-0.0384818 -0.0373039 0)
(-0.0427283 -0.040181 0)
(-0.0471857 -0.042551 0)
(-0.0499002 -0.0444986 0)
(-0.0491984 -0.0440069 0)
(0.00126955 0.0856613 0)
(0.00305224 0.081939 0)
(0.0042451 0.0761786 0)
(0.00561536 0.0689406 0)
(0.00698608 0.0606712 0)
(0.00811409 0.051483 0)
(0.00861382 0.0415701 0)
(0.00813033 0.0313635 0)
(0.00649957 0.0214694 0)
(0.00386814 0.0124869 0)
(0.000661391 0.00473991 0)
(-0.00275571 -0.00184236 0)
(-0.0061564 -0.00763506 0)
(-0.00957734 -0.0128536 0)
(-0.0130717 -0.0176384 0)
(-0.0166799 -0.0220641 0)
(-0.0204426 -0.0261443 0)
(-0.0243963 -0.0298524 0)
(-0.0284792 -0.0331435 0)
(-0.0324728 -0.0359716 0)
(-0.0368105 -0.0383719 0)
(-0.039276 -0.0403939 0)
(-0.0384723 -0.0399412 0)
(0.00272617 0.0823418 0)
(0.00568513 0.0792379 0)
(0.00834973 0.0739611 0)
(0.0107634 0.0670854 0)
(0.0127573 0.0592114 0)
(0.0141735 0.050619 0)
(0.0148155 0.0415563 0)
(0.0145145 0.0323664 0)
(0.0132232 0.023466 0)
(0.0110756 0.0152464 0)
(0.0083611 0.0079245 0)
(0.00534462 0.00148093 0)
(0.00219083 -0.00424 0)
(-0.00104063 -0.00940471 0)
(-0.00436592 -0.0141135 0)
(-0.00779719 -0.0184324 0)
(-0.0113535 -0.0223962 0)
(-0.015063 -0.0260035 0)
(-0.0188659 -0.0292223 0)
(-0.0226343 -0.0320279 0)
(-0.0265622 -0.0344494 0)
(-0.0288602 -0.0365468 0)
(-0.0280363 -0.0360792 0)
(0.00289666 0.0781627 0)
(0.00634581 0.0754982 0)
(0.0097765 0.0707907 0)
(0.0128427 0.0645072 0)
(0.0153553 0.0572672 0)
(0.0171755 0.0494188 0)
(0.0181914 0.041222 0)
(0.0183253 0.032958 0)
(0.0175813 0.0249279 0)
(0.0160723 0.0173999 0)
(0.0139996 0.0105329 0)
(0.0115685 0.00434322 0)
(0.00887971 -0.00120417 0)
(0.00604491 -0.0062407 0)
(0.00308085 -0.0108426 0)
(-2.17084e-07 -0.0150675 0)
(-0.00320402 -0.0189476 0)
(-0.00656431 -0.0224765 0)
(-0.0100289 -0.0256302 0)
(-0.0134015 -0.028406 0)
(-0.0170852 -0.0308482 0)
(-0.0189672 -0.0330029 0)
(-0.0178771 -0.0324773 0)
(0.00241593 0.0741557 0)
(0.00588805 0.0714664 0)
(0.00955934 0.0671685 0)
(0.01296 0.0614563 0)
(0.0158517 0.0548796 0)
(0.018076 0.0477824 0)
(0.0195436 0.0404072 0)
(0.0202094 0.0329832 0)
(0.0200902 0.025735 0)
(0.0192732 0.0188561 0)
(0.0178998 0.0124703 0)
(0.0161264 0.00661343 0)
(0.0140324 0.00130053 0)
(0.0117188 -0.00355055 0)
(0.00922957 -0.00800632 0)
(0.00658793 -0.0121036 0)
(0.00380154 -0.0158678 0)
(0.000860113 -0.0193042 0)
(-0.00217731 -0.0224074 0)
(-0.00521805 -0.0251568 0)
(-0.0084148 -0.0275848 0)
(-0.00997084 -0.0297611 0)
(-0.00876193 -0.0292426 0)
(0.00173987 0.0708295 0)
(0.00496724 0.0675878 0)
(0.00856625 0.0634352 0)
(0.012067 0.0581485 0)
(0.0151873 0.0521476 0)
(0.0177389 0.0457273 0)
(0.0196257 0.0390908 0)
(0.0208049 0.0324177 0)
(0.0212857 0.0258758 0)
(0.0211287 0.0196079 0)
(0.0204325 0.0137126 0)
(0.0193126 0.00823523 0)
(0.0178451 0.00320634 0)
(0.0160966 -0.00140356 0)
(0.0141339 -0.00567047 0)
(0.0119822 -0.00961397 0)
(0.00966046 -0.013249 0)
(0.00716259 -0.0165793 0)
(0.00454662 -0.019595 0)
(0.00196692 -0.0222733 0)
(-0.000954155 -0.0246289 0)
(-0.00205605 -0.0267665 0)
(-0.000534278 -0.0264753 0)
(0.00114414 0.0682618 0)
(0.00403448 0.0640601 0)
(0.00740696 0.0597959 0)
(0.0108581 0.0547541 0)
(0.014075 0.0491952 0)
(0.0168452 0.0433403 0)
(0.0190589 0.0373405 0)
(0.0206634 0.0313261 0)
(0.0216537 0.0254176 0)
(0.0220662 0.0197189 0)
(0.021968 0.0143072 0)
(0.0214431 0.00922776 0)
(0.0205591 0.00451863 0)
(0.0193591 0.0001849 0)
(0.0179166 -0.00385546 0)
(0.0162578 -0.00761419 0)
(0.0144042 -0.0110968 0)
(0.0123583 -0.0143028 0)
(0.0101834 -0.0172171 0)
(0.00796831 -0.0198253 0)
(0.00556977 -0.0221214 0)
(0.00450933 -0.0242063 0)
(0.00593176 -0.0239729 0)
(0.000746693 0.0663119 0)
(0.00332717 0.0609113 0)
(0.00644572 0.0563429 0)
(0.00977462 0.0513875 0)
(0.0129911 0.0461384 0)
(0.0158731 0.0407334 0)
(0.018301 0.0352669 0)
(0.0202127 0.0298208 0)
(0.0215896 0.0244737 0)
(0.0224493 0.0192969 0)
(0.0228353 0.0143478 0)
(0.0228087 0.00966623 0)
(0.0224235 0.00529425 0)
(0.0217112 0.00125284 0)
(0.0207405 -0.00253715 0)
(0.0195388 -0.00608902 0)
(0.0181268 -0.00939857 0)
(0.0165061 -0.0124601 0)
(0.0147278 -0.0152562 0)
(0.0129586 -0.0177717 0)
(0.0108276 -0.0200175 0)
(0.0100281 -0.022079 0)
(0.0116116 -0.0216926 0)
(0.000584093 0.064731 0)
(0.00295342 0.0580635 0)
(0.00586327 0.0530861 0)
(0.00905489 0.0481096 0)
(0.0122125 0.0430669 0)
(0.0151187 0.0380144 0)
(0.0176535 0.0329898 0)
(0.019751 0.0280301 0)
(0.0213844 0.0231764 0)
(0.0225585 0.0184712 0)
(0.0233012 0.0139532 0)
(0.0236571 0.0096549 0)
(0.023665 0.00562164 0)
(0.0233528 0.00187489 0)
(0.0227805 -0.00165749 0)
(0.021975 -0.00499125 0)
(0.0209506 -0.0081145 0)
(0.0197111 -0.0110159 0)
(0.0183091 -0.0136766 0)
(0.0168267 -0.016072 0)
(0.015144 -0.0182245 0)
(0.0144611 -0.0202156 0)
(0.0159901 -0.019708 0)
(0.000641522 0.0632572 0)
(0.00292698 0.055389 0)
(0.00571583 0.0499832 0)
(0.00879425 0.0449375 0)
(0.0118671 0.04004 0)
(0.0147347 0.0352719 0)
(0.0172865 0.0306192 0)
(0.0194603 0.0260782 0)
(0.0212282 0.0216573 0)
(0.0225892 0.0173738 0)
(0.0235621 0.01325 0)
(0.0241814 0.00931007 0)
(0.0244715 0.00560388 0)
(0.0244617 0.0021412 0)
(0.0242024 -0.00113947 0)
(0.0237175 -0.0042543 0)
(0.0230169 -0.00718626 0)
(0.0220975 -0.00991919 0)
(0.0210033 -0.0124314 0)
(0.0198804 -0.0146934 0)
(0.0183804 -0.016732 0)
(0.0179701 -0.0186183 0)
(0.0195711 -0.0180102 0)
(0.000888233 0.0616402 0)
(0.00321739 0.0527426 0)
(0.00598708 0.0469652 0)
(0.00899681 0.0418599 0)
(0.0119824 0.0370903 0)
(0.0147706 0.032572 0)
(0.0172695 0.028246 0)
(0.0194285 0.0240737 0)
(0.0212252 0.0200355 0)
(0.0226594 0.0161278 0)
(0.0237471 0.0123591 0)
(0.0245175 0.00874659 0)
(0.0249839 0.00534566 0)
(0.0251806 0.00214627 0)
(0.0251475 -0.000898282 0)
(0.0249043 -0.00380298 0)
(0.024454 -0.00654583 0)
(0.023793 -0.00910976 0)
(0.0229665 -0.0114666 0)
(0.0220281 -0.0135945 0)
(0.0208879 -0.015506 0)
(0.0205437 -0.0172744 0)
(0.0219794 -0.0165747 0)
(0.00128552 0.0596722 0)
(0.00377241 0.0499874 0)
(0.00662218 0.0439547 0)
(0.00961512 0.0388491 0)
(0.0125241 0.034231 0)
(0.0152086 0.0299607 0)
(0.0176027 0.0259417 0)
(0.0196739 0.0221062 0)
(0.0214118 0.0184125 0)
(0.0228231 0.0148405 0)
(0.0239261 0.011388 0)
(0.0247485 0.00806851 0)
(0.025297 0.00494347 0)
(0.0256132 0.00197997 0)
(0.0257255 -0.000851572 0)
(0.0256488 -0.00356073 0)
(0.0253809 -0.00612381 0)
(0.0249121 -0.00852064 0)
(0.0242705 -0.0107232 0)
(0.023581 -0.0127074 0)
(0.0225317 -0.014479 0)
(0.022364 -0.0161287 0)
(0.0238439 -0.0153272 0)
(0.00179931 0.0571829 0)
(0.00453654 0.0470038 0)
(0.00755546 0.0408781 0)
(0.010581 0.0358724 0)
(0.0134281 0.0314645 0)
(0.0159936 0.0274697 0)
(0.0182432 0.0237608 0)
(0.0201685 0.0202476 0)
(0.0217764 0.0168717 0)
(0.0230852 0.0136013 0)
(0.0241212 0.0104279 0)
(0.0249104 0.00736927 0)
(0.0254642 0.00448054 0)
(0.0258259 0.00172069 0)
(0.0260147 -0.000924868 0)
(0.0260389 -0.00345822 0)
(0.0258899 -0.00585406 0)
(0.0255553 -0.00808962 0)
(0.0250634 -0.0101384 0)
(0.0244542 -0.0119688 0)
(0.0236574 -0.0136012 0)
(0.0234615 -0.0151022 0)
(0.0247232 -0.0142287 0)
(0.0024025 0.0540437 0)
(0.00546751 0.0436944 0)
(0.0087273 0.0376718 0)
(0.0118268 0.0328992 0)
(0.0146236 0.0287901 0)
(0.0170558 0.0251231 0)
(0.0191269 0.0217471 0)
(0.0208575 0.0185561 0)
(0.0222762 0.015481 0)
(0.0234173 0.0124839 0)
(0.0243183 0.00955401 0)
(0.0250063 0.00672259 0)
(0.0255052 0.00402474 0)
(0.0258535 0.00143285 0)
(0.0260632 -0.0010567 0)
(0.0261351 -0.00343702 0)
(0.0260551 -0.00568023 0)
(0.0258019 -0.00776411 0)
(0.0253925 -0.00966154 0)
(0.0249261 -0.011343 0)
(0.0241318 -0.0128273 0)
(0.0240132 -0.0142005 0)
(0.0251636 -0.0132446 0)
(0.00307952 0.0501496 0)
(0.00653771 0.039979 0)
(0.0100997 0.0342849 0)
(0.0133021 0.029908 0)
(0.0160489 0.0262121 0)
(0.0183266 0.0229453 0)
(0.0201833 0.0199398 0)
(0.0216736 0.0170814 0)
(0.0228517 0.0142971 0)
(0.02377 0.0115485 0)
(0.0244803 0.00882709 0)
(0.0250155 0.00618107 0)
(0.0254127 0.0036291 0)
(0.0257036 0.00116594 0)
(0.025894 -0.00120007 0)
(0.0259742 -0.0034507 0)
(0.0259202 -0.00555687 0)
(0.025707 -0.0074985 0)
(0.025352 -0.00924996 0)
(0.0248721 -0.0107912 0)
(0.0242247 -0.0121384 0)
(0.023999 -0.0133651 0)
(0.0248045 -0.0123697 0)
(0.00383021 0.0454107 0)
(0.00774997 0.0357878 0)
(0.0116624 0.0306793 0)
(0.0149806 0.0268922 0)
(0.017659 0.0237477 0)
(0.0197456 0.0209689 0)
(0.0213432 0.0183809 0)
(0.022546 0.0158708 0)
(0.0234352 0.0133701 0)
(0.0240827 0.0108456 0)
(0.0245555 0.00829607 0)
(0.0248979 0.00578769 0)
(0.0251587 0.00333276 0)
(0.0253636 0.000954523 0)
(0.0255089 -0.00132131 0)
(0.0255708 -0.00346475 0)
(0.0255129 -0.00544576 0)
(0.0253007 -0.0072501 0)
(0.0249366 -0.00886065 0)
(0.0245024 -0.0102622 0)
(0.0237789 -0.0114616 0)
(0.0235277 -0.012563 0)
(0.0242018 -0.011521 0)
(0.00467508 0.0397263 0)
(0.00913086 0.0310496 0)
(0.0134392 0.0268305 0)
(0.0168619 0.0238676 0)
(0.0194234 0.0214361 0)
(0.0212583 0.0192421 0)
(0.0225389 0.0171199 0)
(0.0234025 0.0149726 0)
(0.0239561 0.0127466 0)
(0.0242892 0.01042 0)
(0.0244841 0.0080012 0)
(0.0246008 0.00557551 0)
(0.024701 0.00316169 0)
(0.0248048 0.000820004 0)
(0.0248938 -0.00139995 0)
(0.0249226 -0.00345422 0)
(0.0248358 -0.00531473 0)
(0.0245905 -0.00697965 0)
(0.0241954 -0.00844709 0)
(0.0236694 -0.00970336 0)
(0.0229978 -0.0107698 0)
(0.0225827 -0.0117118 0)
(0.02292 -0.0106851 0)
(0.00566846 0.0329637 0)
(0.0107432 0.0256816 0)
(0.0154792 0.0227313 0)
(0.0189567 0.0208829 0)
(0.0213084 0.0193463 0)
(0.0228016 0.0178323 0)
(0.023695 0.0162145 0)
(0.024167 0.0144363 0)
(0.024343 0.0124706 0)
(0.024323 0.0103114 0)
(0.0242027 0.00797779 0)
(0.0240645 0.0055696 0)
(0.0239873 0.00312985 0)
(0.0239867 0.000769339 0)
(0.0240193 -0.00142859 0)
(0.0240088 -0.00340483 0)
(0.0238735 -0.00513813 0)
(0.0235582 -0.00665245 0)
(0.0230733 -0.00797147 0)
(0.0225048 -0.00909044 0)
(0.0217012 -0.0100238 0)