/*--------------------------------*- C++ -*----------------------------------*\
  =========                 |
  \\      /  F ield         | OpenFOAM: The Open Source CFD Toolbox
   \\    /   O peration     | Website:  https://openfoam.org
    \\  /    A nd           | Version:  13
     \\/     M anipulation  |
\*---------------------------------------------------------------------------*/
FoamFile
{
    format      ascii;
    class       volScalarField;
    location    "2.15";
    object      alpha.air;
}
// * * * * * * * * * * * * * * * * * * * * * * * * * * * * * * * * * * * * * //

dimensions      [];

internalField   nonuniform List<scalar> 
2268
(
3.02931e-13
2.87539e-13
2.75905e-13
1.77825e-13
9.20663e-14
4.16269e-14
1.86576e-14
9.1886e-15
6.85555e-15
7.83427e-15
1.36354e-14
2.75162e-14
8.50259e-14
2.48773e-13
3.73717e-13
3.64227e-13
6.34805e-13
2.32712e-12
3.07214e-12
3.75883e-12
2.94963e-12
3.48991e-13
3.49006e-13
1.08585e-12
1.04856e-12
9.18864e-13
6.79372e-13
4.40445e-13
2.50376e-13
1.30989e-13
7.44552e-14
6.45582e-14
1.02542e-13
2.77325e-13
1.17167e-12
3.1586e-12
7.0092e-12
1.03933e-11
1.25053e-11
2.59491e-11
7.04001e-11
8.11035e-11
1.55914e-10
2.65446e-10
4.14771e-10
7.27194e-12
2.70547e-12
2.64333e-12
1.92553e-12
1.59401e-12
9.97425e-13
5.62592e-13
3.43166e-13
2.72677e-13
3.58422e-13
8.73473e-13
2.69884e-12
7.74627e-12
2.04326e-11
4.96738e-11
1.08426e-10
2.06919e-10
3.4135e-10
4.85253e-10
8.14098e-10
1.58315e-09
3.15065e-09
5.156e-09
9.9456e-10
5.93228e-12
4.70443e-12
4.09056e-12
3.52442e-12
2.47108e-12
1.71459e-12
1.18464e-12
1.12947e-12
1.46842e-12
3.15729e-12
8.11219e-12
2.07958e-11
5.26508e-11
1.26075e-10
2.54739e-10
4.39878e-10
6.41806e-10
7.66988e-10
1.06273e-09
1.06972e-09
1.08265e-09
1.84223e-09
9.96983e-10
1.93339e-11
1.54746e-11
1.33671e-11
1.13104e-11
9.24535e-12
6.88315e-12
5.40558e-12
5.0046e-12
5.67841e-12
8.01344e-12
1.34324e-11
2.91974e-11
6.66453e-11
1.36103e-10
1.95639e-10
2.0108e-10
1.96276e-10
1.95255e-10
1.98217e-10
1.74326e-07
2.07752e-06
2.27856e-09
1.01248e-09
3.46842e-11
3.60557e-11
3.52627e-11
3.36322e-11
3.20004e-11
3.22173e-11
3.03312e-11
2.74868e-11
2.89038e-11
3.35338e-11
4.76343e-11
8.99979e-11
1.35868e-10
1.38397e-10
2.57053e-09
5.39645e-08
3.44141e-07
3.51019e-06
3.7622e-05
0.000156989
0.000384081
0.000632596
0.000752546
1.13579e-10
7.9821e-11
7.38184e-11
6.82851e-11
7.14904e-11
7.57127e-11
8.63835e-11
1.00684e-10
1.24499e-10
1.98313e-10
3.75671e-10
8.08735e-10
2.13888e-09
1.05991e-08
9.42896e-08
6.16013e-07
3.44387e-06
1.93073e-05
9.25094e-05
0.000280784
0.000653128
0.00123431
0.00132834
6.86412e-10
2.75974e-10
9.90201e-11
6.97897e-11
1.36022e-10
1.97232e-10
2.12211e-10
2.74091e-10
4.20669e-10
7.54966e-10
1.38375e-09
2.87848e-09
8.37148e-09
3.54721e-08
1.53125e-07
6.34696e-07
2.97416e-06
1.77644e-05
2.85936e-05
4.32747e-05
6.42295e-05
0.000114776
0.000366402
0.000329998
0.000346422
0.00589971
0.0187434
0.026183
0.0357997
0.0591991
0.0672334
0.0660603
0.0446399
0.043509
0.0435226
0.0715807
0.0926184
0.0939799
0.0541624
0.0140187
0.0140054
0.0140004
0.00346944
0.00416977
0.00368481
0.00325467
0.000892413
0.000361913
0.00036068
0.00163611
0.000276583
0.0206474
0.0701031
0.0670881
0.06249
0.0730798
0.0976302
0.0602052
0.0250658
0.0140616
0.0140002
0.0161268
0.0179124
0.0200778
0.0237816
0.020835
0.0114961
0.00193626
1.41538e-05
4.61925e-06
1.17582e-07
0.154547
0.292566
0.204356
0.111566
0.151896
0.156754
0.0845813
0.0156734
0.0140001
0.0155326
0.0155558
0.0217157
0.0268597
0.0268593
0.0227374
0.0054007
0.000521893
5.7896e-05
1.32104e-07
0.190056
0.568243
0.567685
0.540304
0.470918
0.446914
0.285744
0.0637517
0.014
0.0154629
0.015458
0.0154588
0.017867
0.0175887
0.023544
0.0309613
0.0163599
0.00124585
1.18556e-07
0.0520864
0.511232
0.570555
0.5707
0.570637
0.5188
0.503336
0.402562
0.0387682
0.0156209
0.0187198
0.0154726
0.0117165
0.0143758
0.0550152
0.0731117
0.0276867
0.000761968
9.33756e-07
0.00220289
0.208486
0.570601
0.570836
0.570899
0.43516
0.436165
0.433446
0.359608
0.0616885
0.0717048
0.0552051
0.0158276
0.0818672
0.104975
0.114892
0.00151965
0.000314295
0.000542774
4.15231e-05
4.15035e-05
0.135581
0.371806
0.393061
0.125288
0.0888294
0.357959
0.363087
0.0705799
0.0787732
0.0632055
0.112659
0.177702
0.177706
0.104026
0.000469084
0.000420601
0.000181783
4.30223e-05
4.13642e-05
4.15057e-05
0.00932775
0.012812
-1.83501e-09
-9.24056e-10
0.0271901
0.208728
1.66e-09
1.27495e-09
3.28174e-09
1.26649e-07
3.81656e-09
1.1919e-09
1.74418e-09
1.90195e-09
2.07429e-09
2.35655e-09
3.27636e-09
4.28671e-09
5.08383e-09
1.2277e-08
2.61021e-08
5.60211e-08
2.00952e-07
6.47831e-07
5.88128e-07
5.967e-07
6.04812e-07
3.45741e-06
0.00119163
7.30444e-09
1.02821e-08
1.1679e-07
5.9794e-06
4.22241e-07
1.38464e-09
2.29413e-09
3.9614e-09
4.63533e-09
5.0376e-09
6.41228e-09
7.37687e-09
8.02297e-09
8.08249e-09
8.35465e-09
8.5371e-09
8.32076e-09
8.31657e-09
0.00331946
0.0209939
0.0362139
0.0499469
0.0322479
-1.4153e-09
1.27806e-07
1.99175e-07
0.000159194
4.2927e-05
9.65581e-07
3.29366e-10
3.04198e-10
3.1604e-10
4.29384e-10
4.36279e-10
4.51481e-10
4.10202e-08
2.73488e-06
0.00915575
0.0238695
0.0361748
0.0679158
0.140137
0.162829
0.145111
0.043272
0.083713
0.0028942
0.0039204
0.00556434
0.00343048
0.0023147
0.000313549
0.000284791
5.89171e-08
1.90593e-05
0.00704717
0.0176167
0.032847
0.0608876
0.114538
0.157218
0.156221
0.158059
0.168542
0.168545
0.143443
0.0225215
0.0280357
0.174294
0.139845
0.103645
0.0271131
0.000429
0.000407411
0.000204202
0.000336741
0.0779978
0.169132
0.177975
0.18847
0.202174
0.202142
0.202196
0.200972
0.130995
0.133429
0.167265
0.0502942
0.000666551
0.000770801
0.0286073
0.0609387
0.239202
0.155806
0.025661
0.00649776
0.00325974
0.00145397
0.00470125
0.0849064
0.1428
0.0950961
0.0910105
0.101015
0.103674
0.0962186
0.0389893
0.0177248
0.0272451
0.0325488
0.00392627
5.5251e-05
0.00119219
0.00224109
2.58891e-19
0.341344
0.280975
0.193129
0.106032
0.0483277
0.0136534
0.00281411
0.00163598
0.000751082
0.000183777
7.35295e-05
1.58336e-05
3.34319e-05
1.91996e-05
9.95533e-07
7.66109e-07
6.74823e-07
7.62961e-07
8.84741e-07
6.15849e-05
8.63258e-05
-1.7812e-20
1.11098e-13
0.969483
0.969056
0.924216
0.836811
0.713034
0.560935
0.395026
0.25274
0.133278
0.030797
3.42751e-06
1.9192e-06
1.37871e-06
1.26204e-06
9.55823e-07
6.74788e-07
6.85884e-07
6.74835e-07
7.4011e-07
1.62245e-06
3.35543e-08
1.11139e-13
1.22567e-09
0.999993
1
0.999999
0.999995
0.999987
0.999415
0.980822
0.928234
0.848081
0.738181
0.571944
0.378236
0.184802
0.0289938
1.92576e-06
1.27534e-06
0.000633334
0.000643755
0.000603489
0.00100923
0.00199106
0.00298686
0.00369237
0.999999
0.999997
0.999997
0.999952
0.999794
0.999856
0.999994
0.999997
0.999997
0.999996
0.999993
0.989529
0.94924
0.877943
0.77177
0.641624
0.520159
0.464719
0.460805
0.524101
0.645263
0.681511
0.718953
0.999998
0.999992
0.999986
0.999947
0.999919
0.999901
0.999997
1
1
0.999999
0.999999
0.999998
0.999995
0.999995
0.999996
0.999997
0.999999
1
1
1
1
1
1
0.999999
0.999998
0.999997
0.999987
0.999999
0.999999
0.999997
1
1
0.999979
1
1
1
1
0.999999
0.999999
1
1
1
1
1
1
1
0.999999
1
1
0.999999
1
1
1
0.999968
0.999851
0.999833
0.99988
0.999978
1
1
1
1
1
1
1
1
1
1
1
1
1
1
1
1
1
1
0.999967
0.999834
0.999833
0.999832
0.999883
0.999997
0.999999
1
1
1
1
1
1
1
1
1
1
1
1
1
1
1
1
0.999991
0.999905
0.999833
0.999841
0.999942
0.999997
0.999998
0.999998
0.999998
0.999998
0.999999
1
1
1
1
1
1
1
1
1
1
1
1
0.999999
0.999999
0.999982
0.999985
0.999997
0.999997
0.999997
0.999997
0.999997
0.999998
0.999999
1
1
1
1
1
1
1
1
1
1
1
1
1
1
1
1
0.999999
0.999998
0.999997
0.999998
0.999999
0.999999
1
1
1
1
1
1
1
1
1
1
1
1
1
1
1
1
1
0.999999
0.999999
0.999999
1
1
1
1
1
1
1
1
1
1
1
1
1
1
1
1
1
1
1
1
0.999999
0.999999
1
1
1
1
1
1
1
1
1
1
1
1
1
1
1
1
1
1
1
1
1
1
1
1
1
1
1
1
1
1
1
1
1
1
1
1
1
1
1
1
1
1
1
1
1
1
1
1
1
1
1
1
1
1
1
1
1
1
1
1
1
1
1
1
1
1
1
1
1
1
1
1
1
1
1
1
1
1
1
1
1
1
1
1
1
1
1
1
1
1
1
1
1
1
1
1
1
1
1
1
1
1
1
1
1
1
1
1
1
1
1
1
1
1
1
1
1
1
1
1
1
1
1
1
1
1
1
1
1
1
1
1
1
1
1
1
1
1
1
1
1
1
1
1
1
1
1
1
1
1
1
1
1
1
1
1
1
1
1
1
1
1
1
1
1
1
1
1
1
1
1
1
1
1
1
1
1
1
1
1
1
1
1
1
1
1
1
1
1
1
1
1
1
1
1
1
1
1
1
1
1
1
1
1
1
1
1
1
1
1
1
1
1
1
1
1
1
1
1
1
1
1
1
1
1
1
1
1
1
1
1
1
1
1
1
1
1
1
1
1
1
1
1
1
1
1
1
1
1
1
1
1
1
1
1
1
1
1
1
1
1
1
1
1
1
1
1
1
1
1
1
1
1
1
1
1
1
1
1
1
1
1
1
1
1
1
1
1
1
1
1
1
1
1
1
1
1
1
1
1
1
1
1
1
1
1
1
1
1
1
1
1
1
1
1
1
1
1
1
1
1
1
1
1
1
1
1
1
1
1
1
1
1
1
1
1
1
1
1
1
1
1
1
1
1
1
1
1
1
1
1
1
1
1
1
1
1
1
1
1
1
1
1
1
1
1
1
1
1
1
1
1
1
1
1
1
1
1
1
1
1
1
1
1
1
1
1
1
1
1
1
1
1
1
1
1
1
1
1
1
1
1
1
1
1
1
1
1
1
1
1
1
1
1
1
1
1
1
1
1
1
1
1
1
1
1
1
1
1
1
1
1
1
1
1
1
1
1
1
1
1
1
1
1
1
1
1
1
1
1
1
1
1
1
1
1
1
1
1
1
1
1
1
1
1
1
1
1
1
1
1
1
1
1
1
1
1
1
1
1
1
1
1
1
1
1
1
1
1
1
1
1
1
1
1
1
1
1
1
1
1
1
1
1
1
1
1
1
1
1
1
1
1
1
1
1
1
1
1
1
1
1
1
1
1
1
1
1
1
1
1
1
1
1
1
1
1
1
1
0.0107645
0.0111466
0.0324531
0.0687343
0.0343672
0.176669
0.186177
0.186188
0.186152
0.186161
0.186163
0.186177
0.167544
0.0381429
0.0273731
0.0486935
0.0120998
1.77938e-19
-1.49893e-10
-4.54663e-09
-1.51422e-10
1.01985e-06
9.09899e-06
1.45136e-05
1.68254e-07
9.76852e-07
2.67934e-06
2.30461e-06
-2.01309e-13
1.83522e-08
1.22021e-11
8.50517e-12
0.00129971
3.89212e-06
0.0138987
0.0693665
0.92234
0.956588
0.953224
0.963722
1
0.999999
0.999998
1
1
1
1
1
1
1
1
1
1
1
1
1
1
1
1
1
1
1
1
1
1
1
1
1
1
1
1
1
1
1
1
1
1
1
1
1
1
1
1
1
1
1
1
1
1
1
1
1
1
1
1
1
1
1
1
1
1
1
1
1
1
1
1
1
1
1
1
1
1
1
1
1
1
1
1
1
1
1
1
1
1
1
1
1
1
1
1
1
1
1
1
1
1
1
1
1
1
1
1
1
1
1
1
1
1
1
1
1
1
1
1
1
1
1
1
1
1
1
1
1
1
1
1
1
0.108478
0.0841692
0.131315
0.177699
0.177706
0.177706
0.0771825
0.00827209
0.00489913
0.00200642
0.000932724
0.000497441
0.000217551
3.10708e-05
2.40706e-05
2.09304e-05
4.82997e-06
0.000849373
0.000384838
0.186215
0.175793
0.176137
0.154347
0.103397
0.177706
0.177706
0.0620967
0.00368941
0.000814903
0.00151282
0.0013182
0.000609491
0.000363371
0.000358293
0.000135757
2.5795e-05
0.000287793
0.000184456
0.18615
0.0984485
0.00206299
0.00800852
0.10352
0.177706
0.13309
0.0176305
2.64107e-06
2.9162e-06
5.46691e-05
0.000216793
0.00024277
0.000194016
0.000244908
0.000195322
0.000554951
0.0318359
0.0555237
0.0296505
0.0011429
0.000676116
0.0113859
0.051641
0.0328573
4.01276e-07
1.32854e-06
1.0726e-05
1.99412e-05
7.92131e-06
1.27656e-05
7.04742e-05
0.00021478
0.000257406
0.000164597
0.00076124
0.0494608
0.0792039
-1.65109e-08
0.000445644
0.000678958
0.000371775
1.10442e-05
3.80164e-08
4.42249e-07
2.43455e-06
9.04978e-06
5.38804e-06
4.02048e-08
3.30001e-08
5.49051e-05
0.000233298
0.000255725
0.000186728
0.000186392
0.0140098
0.0477512
1.51132e-05
6.42014e-06
8.20701e-06
6.19567e-09
2.57055e-08
2.20438e-07
7.11651e-07
8.10514e-07
5.72747e-08
1.68907e-08
4.79411e-08
3.10911e-08
1.31078e-22
-8.35713e-23
5.72778e-05
0.000909425
0.00118246
0.00129428
0.00153068
9.59604e-07
1.57449e-08
7.83885e-08
5.71586e-09
6.02481e-09
5.65695e-08
3.8502e-08
2.24465e-08
-3.90485e-10
-3.63828e-11
4.54181e-19
2.59064e-07
2.59148e-15
0.00056427
0.0032553
0.00609515
0.0133459
0.0298111
0.0495236
4.87215e-12
5.25203e-17
4.75874e-12
0.00520692
0.0325561
0.0737327
0.120357
0.166431
0.206187
0.236158
0.259301
0.285688
0.357577
0.47256
0.537345
0.576435
0.627653
0.705152
0.778764
0.177502
0.326953
0.47262
0.608182
0.723844
0.805346
0.862018
0.904371
0.933555
0.952976
0.969627
0.990088
0.995809
0.991373
0.99125
0.994519
0.997357
0.99862
0.999829
0.984316
0.997314
0.999521
0.99995
0.999999
0.999994
0.999976
0.999933
0.999853
0.999671
0.999313
0.999352
0.999716
0.999905
0.999965
1
1
1
1
1
1
1
1
0.999999
0.999987
0.999963
0.99993
0.999938
0.999948
0.999947
0.999419
0.99906
0.999367
0.999907
0.999999
0.999999
0.999999
0.999999
1
1
0.999999
0.999999
0.999999
0.999994
0.999369
0.999009
0.99932
0.999934
0.999967
0.999207
0.998779
0.998885
0.999887
0.999999
0.999999
1
0.999999
1
1
1
1
0.999999
0.999998
0.999424
0.999022
0.999011
0.999382
0.999986
0.999992
0.999882
1
1
0.999999
1
1
0.999999
1
1
1
1
1
1
1
0.999851
0.999624
0.999855
0.999983
1
1
1
1
1
1
1
0.999999
1
1
1
1
1
1
1
1
1
1
1
0.999999
0.999999
0.999999
1
1
1
1
0.999999
1
1
1
1
1
1
1
0.999999
1
1
1
1
0.999999
0.999999
1
1
1
1
1
1
1
1
1
1
1
1
0.999999
0.999999
1
1
1
1
1
1
1
1
1
1
1
1
1
1
1
1
1
1
1
1
1
1
1
1
1
1
1
1
1
1
1
1
1
1
1
1
1
1
1
1
1
1
1
1
1
1
1
1
1
1
1
1
1
1
1
1
1
1
1
1
1
1
1
1
1
1
1
1
1
1
1
1
1
1
1
1
1
1
1
1
1
1
1
1
1
1
1
1
1
1
1
1
1
1
1
1
1
1
1
1
1
1
1
1
1
1
1
1
1
1
1
1
1
1
1
1
1
1
1
1
1
1
1
1
1
1
1
1
1
1
1
1
1
1
1
1
1
1
1
1
1
1
1
1
1
1
1
1
1
1
1
1
1
1
1
1
1
1
1
1
1
1
1
1
1
1
1
1
1
1
1
1
1
1
1
1
1
1
1
1
1
1
1
1
1
1
1
1
1
1
1
1
1
1
1
1
1
1
1
1
1
1
1
1
1
1
1
1
1
1
1
1
1
1
1
1
1
1
1
1
1
1
1
1
1
1
1
1
1
1
1
1
1
1
1
1
1
1
1
1
1
1
1
1
1
1
1
1
1
1
1
1
1
1
1
1
1
1
1
1
1
1
1
1
1
1
1
1
1
1
1
1
1
1
1
1
1
1
1
1
1
1
1
1
1
1
1
1
1
1
1
1
1
1
1
1
1
1
1
1
1
1
1
1
1
1
1
1
1
1
1
1
1
1
1
1
1
1
1
1
1
1
1
1
1
1
1
1
1
1
1
1
1
1
1
1
1
1
1
1
1
1
1
1
1
1
1
1
1
1
1
1
1
1
1
1
1
1
1
1
1
1
1
1
1
1
1
1
1
1
1
1
1
1
1
1
1
1
1
1
1
1
1
1
1
1
1
1
1
1
1
1
1
1
1
1
1
1
1
1
1
1
1
1
1
1
1
1
1
1
1
1
1
1
1
1
1
1
1
1
1
1
1
1
1
1
1
1
1
1
1
1
1
1
1
1
1
1
1
1
1
1
1
1
1
1
1
1
1
1
1
1
1
1
1
1
1
1
1
1
1
1
1
1
1
1
1
1
1
1
1
1
1
1
1
1
1
1
1
1
1
1
1
1
1
)
;

boundaryField
{
    leftWall
    {
        type            alphaContactAngle;
        contactAngleProperties 
        {
            mercury         
            {
                theta0          90;
            }
            water           
            {
                theta0          90;
            }
            oil             
            {
                theta0          90;
            }
        }
        value           nonuniform List<scalar> 
50
(
3.02931e-13
1.08585e-12
2.70547e-12
5.93228e-12
1.93339e-11
3.46842e-11
1.13579e-10
6.86412e-10
1.66e-09
7.30444e-09
-1.4153e-09
0.0028942
0.139845
0.239202
0.341344
0.969483
0.999993
0.999999
0.999998
0.999999
0.999999
1
1
1
1
1
1
1
1
1
1
1
1
1
1
1
1
1
1
1
1
1
1
1
1
1
1
1
1
1
)
;
    }
    rightWall
    {
        type            alphaContactAngle;
        contactAngleProperties 
        {
            mercury         
            {
                theta0          90;
            }
            water           
            {
                theta0          90;
            }
            oil             
            {
                theta0          90;
            }
        }
        value           nonuniform List<scalar> 
50
(
0.0140004
0.0140002
0.0140001
0.014
0.0387682
0.359608
0.363087
0.208728
0.000384838
0.000184456
0.0555237
0.0792039
0.0477512
0.00153068
0.0495236
0.778764
0.999829
1
0.999999
0.999999
0.999999
0.999999
0.999999
1
1
1
1
1
1
1
1
1
1
1
1
1
1
1
1
1
1
1
1
1
1
1
1
1
1
1
)
;
    }
    lowerWall
    {
        type            alphaContactAngle;
        contactAngleProperties 
        {
            mercury         
            {
                theta0          90;
            }
            water           
            {
                theta0          90;
            }
            oil             
            {
                theta0          90;
            }
        }
        value           nonuniform List<scalar> 
62
(
3.02931e-13
2.87539e-13
2.75905e-13
1.77825e-13
9.20663e-14
4.16269e-14
1.86576e-14
9.1886e-15
6.85555e-15
7.83427e-15
1.36354e-14
2.75162e-14
8.50259e-14
2.48773e-13
3.73717e-13
3.64227e-13
6.34805e-13
2.32712e-12
3.07214e-12
3.75883e-12
2.94963e-12
3.48991e-13
3.49006e-13
3.49006e-13
7.27194e-12
9.9456e-10
9.96983e-10
1.01248e-09
0.000752546
0.00132834
0.000366402
0.0107645
0.0111466
0.0324531
0.0687343
0.000329998
0.00346944
0.0161268
0.0155326
0.0154629
0.0156209
0.0616885
0.0705799
0.000329998
0.000346422
0.00589971
0.0187434
0.026183
0.0357997
0.0591991
0.0672334
0.0660603
0.0446399
0.043509
0.0435226
0.0715807
0.0926184
0.0939799
0.0541624
0.0140187
0.0140054
0.0140004
)
;
    }
    atmosphere
    {
        type            inletOutlet;
        inletValue      uniform 1;
        value           nonuniform List<scalar> 
46
(
1
1
1
1
1
1
1
1
1
1
1
1
1
1
1
1
1
1
1
1
1
1
1
1
1
1
1
1
1
1
1
1
1
1
1
1
1
1
1
1
1
1
1
1
1
1
)
;
    }
    defaultFaces
    {
        type            empty;
    }
}


// ************************************************************************* //
