/*--------------------------------*- C++ -*----------------------------------*\
  =========                 |
  \\      /  F ield         | OpenFOAM: The Open Source CFD Toolbox
   \\    /   O peration     | Website:  https://openfoam.org
    \\  /    A nd           | Version:  13
     \\/     M anipulation  |
\*---------------------------------------------------------------------------*/
FoamFile
{
    format      ascii;
    class       volScalarField;
    location    "2.15";
    object      alphas;
}
// * * * * * * * * * * * * * * * * * * * * * * * * * * * * * * * * * * * * * //

dimensions      [];

internalField   nonuniform List<scalar> 
2268
(
2
2
2
2
2
2
2
2
2
2
2
2
2
2
2
2
2
2
2
1.99983
1.99957
1.99943
1.99943
2
2
2
2
2
2
2
2
2
2
2
2
2
2
2
2
2
2
2
2
2
1.99995
1.99976
2
2
2
2
2
2
2
2
2
2
2
2
2
2
2
2
2
2
2
2
2
2
2
2
2
2
2
2
2
2
2
2
2
2
2
2
2
2
2
2
2
2
2
2
2
2
2
2
2
2
2
2
2
2
2
2
2
2
2
2
2
2
2
1.99973
1.99475
1.99106
1.98944
1.99142
1.99707
2
2
2
2
2
2
2
2
2
2
1.94707
1.81704
1.65715
1.49039
1.32008
1.15945
1.03896
0.956859
0.912959
0.897767
0.910184
0.946634
0.941769
2
2
2
2
1.99692
1.99601
1.90987
1.70055
1.37927
0.973241
0.606078
0.35267
0.180759
0.0700915
0.0180729
0.0084273
0.00432265
0.00246668
0.0017964
0.00201835
0.00308458
0.00487369
0.00478566
1.30113
1.43695
1.49652
1.44039
1.23694
0.87445
0.521686
0.240813
0.0662433
0.00349854
8.04145e-08
4.48242e-08
7.13496e-08
1.09006e-07
4.68099e-07
1.92719e-06
8.92381e-06
5.32933e-05
8.57809e-05
0.000131414
0.000204627
0.000349816
0.00113759
1.86764
1.86743
1.86035
1.85673
1.8657
1.89335
1.94501
1.8005
1.76519
1.72375
1.72522
1.71296
1.74045
1.77164
1.74021
1.73488
1.66625
1.76336
1.76414
1.53292
1.53951
1.54128
1.50967
1.44555
1.43098
1.40013
1.59633
1.70496
1.76907
1.92926
1.95272
1.86993
1.88743
1.8675
1.747
1.69458
1.76305
1.76425
0.781833
0.689729
0.802033
0.916309
1.04733
0.892598
0.546713
0.485397
0.663652
0.97687
1.71669
2.24342
2.09579
1.92258
2.03288
2.02671
1.88932
1.77006
1.76819
0.598772
0.411508
0.360018
0.517619
0.835903
0.916521
0.681912
0.214401
0.00556339
0.00484635
0.622652
2.06675
2.39588
2.34571
2.24705
2.28764
2.04567
1.7312
1.55632
0.356252
0.368269
0.349471
0.35222
0.779549
0.939188
0.955866
0.662314
0.0904103
0.00418968
0.157415
1.56369
2.1615
2.35904
2.35222
2.24055
2.26397
2.05215
1.56465
0.232797
0.238385
0.237971
0.235879
0.87282
1.12107
1.13411
0.456167
0.11277
0.00308486
0.00770207
0.731347
1.98685
2.09873
2.21342
1.85257
1.92804
2.09251
1.88542
0.25963
0.269962
0.244247
0.311605
1.14226
1.21582
0.730558
0.0359205
0.0050008
0.00182341
0.000382028
0.0425459
0.603291
1.40093
1.47143
0.674541
0.528664
1.37989
1.82634
0.266804
0.275823
0.251907
0.631913
1.37125
1.17961
0.335687
0.00141941
0.00127389
0.000728073
0.00036388
0.000374288
0.0108358
0.12187
0.184248
0.0913423
0.03651
0.0816963
1.09808
0.0727367
0.100993
0.0938884
0.0520357
0.0109883
4.56524e-08
1.56558e-07
1.59049e-07
2.22264e-08
7.35451e-09
1.04064e-08
1.31692e-08
1.61534e-08
3.91681e-08
8.13786e-08
1.73664e-07
6.125e-07
1.95108e-06
1.76609e-06
1.79348e-06
2.56545e-06
1.15317e-05
0.00357607
2.75329e-08
3.63081e-08
3.5515e-07
1.79429e-05
1.27155e-06
8.9955e-09
1.1382e-08
1.59358e-08
1.82238e-08
1.87602e-08
2.15075e-08
2.37332e-08
2.5353e-08
2.70141e-08
2.80442e-08
2.9535e-08
3.91274e-08
3.86774e-08
0.00995837
0.0629817
0.108642
0.149841
0.195008
3.1189e-10
3.87084e-07
6.01573e-07
0.000477586
0.000128787
2.90314e-06
7.52676e-09
6.85314e-09
5.82904e-09
4.9256e-09
3.40351e-09
2.82584e-09
1.24102e-07
8.20551e-06
0.0274672
0.0716086
0.110292
0.217879
0.438389
0.556246
0.820037
0.860795
1.02844
0.00868259
0.0117612
0.016693
0.0102914
0.00694411
0.000940649
0.000854373
1.78602e-07
5.71796e-05
0.0211415
0.0528501
0.0985411
0.182663
0.356918
0.527001
0.654529
0.832694
1.02469
1.19506
1.23554
1.03622
1.05607
1.34675
0.468149
0.412495
0.315288
0.303398
0.336918
0.371651
0.324367
0.421366
0.598692
0.655519
0.781908
0.912698
1.02728
1.17475
1.3103
1.23609
1.26096
1.33453
1.10059
1.00133
1.00154
1.05721
1.12182
1.28149
1.1799
1.0221
0.995919
0.986239
0.976514
0.975216
1.10421
1.19822
1.1228
1.15482
1.19718
1.20734
1.19244
1.07798
1.03545
1.05449
1.0651
1.00785
1.00011
1.00238
1.00448
1
1.68269
1.56195
1.38626
1.21206
1.09665
1.02691
1.00553
1.00327
1.0015
1.00037
1.00015
1.00003
1.00007
1.00004
1
1
1
1
1
1.00012
1.00017
1
1
2.93897
2.9381
2.84833
2.67352
2.42604
2.12187
1.79005
1.50548
1.26656
1.06159
1.00001
1
1
1
1
1
1
1
1
1
1
1
1
2.99999
3
3
2.99999
2.99996
2.99882
2.96164
2.85647
2.69616
2.47636
2.14389
1.75647
1.3696
1.05799
1
1
1.00127
1.00129
1.00121
1.00202
1.00398
1.00597
1.00738
3
2.99999
2.99999
2.9999
2.99958
2.9997
2.99999
2.99999
2.99999
2.99999
2.99999
2.97906
2.89848
2.75589
2.54354
2.28325
2.04032
1.92944
1.92161
2.0482
2.29053
2.36302
2.43791
3
2.99998
2.99997
2.99989
2.99983
2.9998
2.99999
3
3
3
3
3
2.99999
2.99999
2.99999
2.99999
3
3
3
3
3
3
3
3
3
2.99999
2.99997
3
3
2.99999
3
3
2.99996
3
3
3
3
3
3
3
3
3
3
3
3
3
3
3
3
3
3
3
3
2.99994
2.9997
2.99966
2.99976
2.99996
3
3
3
3
3
3
3
3
3
3
3
3
3
3
3
3
3
3
2.99993
2.99967
2.99966
2.99966
2.99976
2.99999
3
3
3
3
3
3
3
3
3
3
3
3
3
3
3
3
3
2.99998
2.99981
2.99967
2.99968
2.99988
2.99999
2.99999
2.99999
2.99999
3
3
3
3
3
3
3
3
3
3
3
3
3
3
3
3
2.99996
2.99997
2.99999
2.99999
2.99999
2.99999
2.99999
2.99999
3
3
3
3
3
3
3
3
3
3
3
3
3
3
3
3
3
3
2.99999
2.99999
2.99999
3
3
3
3
3
3
3
3
3
3
3
3
3
3
3
3
3
3
3
3
3
3
3
3
3
3
3
3
3
3
3
3
3
3
3
3
3
3
3
3
3
3
3
3
3
3
3
3
3
3
3
3
3
3
3
3
3
3
3
3
3
3
3
3
3
3
3
3
3
3
3
3
3
3
3
3
3
3
3
3
3
3
3
3
3
3
3
3
3
3
3
3
3
3
3
3
3
3
3
3
3
3
3
3
3
3
3
3
3
3
3
3
3
3
3
3
3
3
3
3
3
3
3
3
3
3
3
3
3
3
3
3
3
3
3
3
3
3
3
3
3
3
3
3
3
3
3
3
3
3
3
3
3
3
3
3
3
3
3
3
3
3
3
3
3
3
3
3
3
3
3
3
3
3
3
3
3
3
3
3
3
3
3
3
3
3
3
3
3
3
3
3
3
3
3
3
3
3
3
3
3
3
3
3
3
3
3
3
3
3
3
3
3
3
3
3
3
3
3
3
3
3
3
3
3
3
3
3
3
3
3
3
3
3
3
3
3
3
3
3
3
3
3
3
3
3
3
3
3
3
3
3
3
3
3
3
3
3
3
3
3
3
3
3
3
3
3
3
3
3
3
3
3
3
3
3
3
3
3
3
3
3
3
3
3
3
3
3
3
3
3
3
3
3
3
3
3
3
3
3
3
3
3
3
3
3
3
3
3
3
3
3
3
3
3
3
3
3
3
3
3
3
3
3
3
3
3
3
3
3
3
3
3
3
3
3
3
3
3
3
3
3
3
3
3
3
3
3
3
3
3
3
3
3
3
3
3
3
3
3
3
3
3
3
3
3
3
3
3
3
3
3
3
3
3
3
3
3
3
3
3
3
3
3
3
3
3
3
3
3
3
3
3
3
3
3
3
3
3
3
3
3
3
3
3
3
3
3
3
3
3
3
3
3
3
3
3
3
3
3
3
3
3
3
3
3
3
3
3
3
3
3
3
3
3
3
3
3
3
3
3
3
3
3
3
3
3
3
3
3
3
3
3
3
3
3
3
3
3
3
3
3
3
3
3
3
3
3
3
3
3
3
3
3
3
3
3
3
3
3
3
3
3
3
3
3
3
3
3
3
3
3
3
3
3
3
3
3
3
3
3
3
3
3
3
3
3
3
3
3
3
3
3
3
3
3
3
3
3
3
3
3
3
3
3
3
3
3
3
3
3
3
3
3
3
3
3
3
3
3
3
3
3
3
3
3
3
3
3
3
3
3
3
3
3
3
3
3
3
3
3
3
3
3
3
3
3
3
3
3
3
3
3
3
3
3
3
3
3
3
3
3
3
0.092585
0.248867
0.39033
0.487859
0.808564
1.31484
1.28525
0.853232
1.34233
1.36723
1.27622
1.10512
1.33492
1.07032
1.04627
1.09599
1.02407
0.999875
1.00014
1.00007
1
1.00001
1.00001
1.00001
1
1
1
0.999995
1
0.999997
0.999996
0.999997
1.0026
1.00001
1.0278
1.13873
2.84468
2.91318
2.90645
2.92744
3
3
3
3
3
3
3
3
3
3
3
3
3
3
3
3
3
3
3
3
3
3
3
3
3
3
3
3
3
3
3
3
3
3
3
3
3
3
3
3
3
3
3
3
3
3
3
3
3
3
3
3
3
3
3
3
3
3
3
3
3
3
3
3
3
3
3
3
3
3
3
3
3
3
3
3
3
3
3
3
3
3
3
3
3
3
3
3
3
3
3
3
3
3
3
3
3
3
3
3
3
3
3
3
3
3
3
3
3
3
3
3
3
3
3
3
3
3
3
3
3
3
3
3
3
3
3
3
0.422154
0.284923
0.427146
0.879314
1.36357
0.914961
0.231669
0.024993
0.0147096
0.00615428
0.00301044
0.00170466
0.000827971
0.00020477
0.000164537
0.000156339
0.000124574
0.002643
0.432824
0.609206
0.562757
0.895415
1.2997
1.17254
0.857861
0.660378
0.486283
0.37563
0.32237
0.261931
0.199739
0.145994
0.0952313
0.0239836
0.000605997
0.000171637
0.003038
0.0935957
1.11096
1.1006
1.00008
1.01472
1.16638
1.28477
1.25094
1.03542
0.999989
0.999991
0.98744
0.957684
0.923332
0.875214
0.767012
0.542902
0.278772
0.175921
0.216435
1.05981
1.00226
1.00079
1.02202
1.10285
1.06572
1.00001
1
1.00004
1.00005
1.00002
1.00003
1.00016
1.00048
1.00062
0.999298
0.965536
0.917809
0.769203
1
1.00086
1.00136
1.00075
1.00003
1
1
1.00001
1.00002
1.00001
1
1
1.00011
1.00047
1.00052
1.00037
1.00043
1.03114
1.10298
1.00001
1
1.00002
1
1
1
1
1
1
1
1
1
1
0.999999
1.00011
1.00182
1.0013
1.00091
1.00142
0.999991
0.999999
1
1
1
1
1
1
1
1
1
1
0.999919
1.00009
1.00471
1.01044
1.02513
1.0574
1.09631
0.999998
0.999999
1
1.01041
1.06511
1.14747
1.24071
1.33286
1.41237
1.47231
1.5186
1.57138
1.71331
1.93768
2.06735
2.1456
2.24918
2.40595
2.55386
1.355
1.65391
1.94524
2.21636
2.44769
2.61069
2.72403
2.80874
2.86708
2.90582
2.93914
2.97993
2.98883
2.97761
2.97756
2.986
2.99314
2.99642
2.99955
2.96863
2.99463
2.99904
2.9999
3
2.99999
2.99994
2.99983
2.99963
2.99915
2.99821
2.99831
2.9993
2.99981
2.99993
3
3
3
3
3
3
3
3
3
2.99997
2.99993
2.99986
2.99986
2.99987
2.99989
2.99884
2.99812
2.99873
2.99981
3
3
3
3
3
3
3
3
3
2.99999
2.99874
2.99802
2.99864
2.99987
2.99993
2.99841
2.99756
2.99777
2.99977
3
3
3
3
3
3
3
3
3
3
2.99885
2.99804
2.99802
2.99876
2.99997
2.99998
2.99976
3
3
3
3
3
3
3
3
3
3
3
3
3
2.9997
2.99925
2.99971
2.99997
3
3
3
3
3
3
3
3
3
3
3
3
3
3
3
3
3
3
3
3
3
3
3
3
3
3
3
3
3
3
3
3
3
3
3
3
3
3
3
3
3
3
3
3
3
3
3
3
3
3
3
3
3
3
3
3
3
3
3
3
3
3
3
3
3
3
3
3
3
3
3
3
3
3
3
3
3
3
3
3
3
3
3
3
3
3
3
3
3
3
3
3
3
3
3
3
3
3
3
3
3
3
3
3
3
3
3
3
3
3
3
3
3
3
3
3
3
3
3
3
3
3
3
3
3
3
3
3
3
3
3
3
3
3
3
3
3
3
3
3
3
3
3
3
3
3
3
3
3
3
3
3
3
3
3
3
3
3
3
3
3
3
3
3
3
3
3
3
3
3
3
3
3
3
3
3
3
3
3
3
3
3
3
3
3
3
3
3
3
3
3
3
3
3
3
3
3
3
3
3
3
3
3
3
3
3
3
3
3
3
3
3
3
3
3
3
3
3
3
3
3
3
3
3
3
3
3
3
3
3
3
3
3
3
3
3
3
3
3
3
3
3
3
3
3
3
3
3
3
3
3
3
3
3
3
3
3
3
3
3
3
3
3
3
3
3
3
3
3
3
3
3
3
3
3
3
3
3
3
3
3
3
3
3
3
3
3
3
3
3
3
3
3
3
3
3
3
3
3
3
3
3
3
3
3
3
3
3
3
3
3
3
3
3
3
3
3
3
3
3
3
3
3
3
3
3
3
3
3
3
3
3
3
3
3
3
3
3
3
3
3
3
3
3
3
3
3
3
3
3
3
3
3
3
3
3
3
3
3
3
3
3
3
3
3
3
3
3
3
3
3
3
3
3
3
3
3
3
3
3
3
3
3
3
3
3
3
3
3
3
3
3
3
3
3
3
3
3
3
3
3
3
3
3
3
3
3
3
3
3
3
3
3
3
3
3
3
3
3
3
3
3
3
3
3
3
3
3
3
3
3
3
3
3
3
3
3
3
3
3
3
3
3
3
3
3
3
3
3
3
3
3
3
3
3
3
3
3
3
3
3
3
3
3
3
3
3
3
3
3
3
3
3
3
3
3
3
3
3
3
3
3
3
3
3
3
3
3
3
3
3
3
3
3
3
3
3
3
3
3
3
3
3
3
3
3
3
3
3
3
3
3
3
3
3
3
3
3
3
3
3
3
3
3
3
3
3
3
3
3
3
3
3
3
3
3
3
3
3
3
)
;

boundaryField
{
    leftWall
    {
        type            calculated;
        value           nonuniform List<scalar> 
50
(
2
2
2
2
2
2
2
1.30113
0.0727367
2.75329e-08
3.1189e-10
0.00868259
0.468149
1.28149
1.68269
2.93897
2.99999
3
3
3
3
3
3
3
3
3
3
3
3
3
3
3
3
3
3
3
3
3
3
3
3
3
3
3
3
3
3
3
3
3
)
;
    }
    rightWall
    {
        type            calculated;
        value           nonuniform List<scalar> 
50
(
1.76414
1.76425
1.76819
1.55632
1.56465
1.88542
1.82634
1.09808
0.432824
0.0935957
0.216435
0.769203
1.10298
1.00142
1.09631
2.55386
2.99955
3
3
3
3
3
3
3
3
3
3
3
3
3
3
3
3
3
3
3
3
3
3
3
3
3
3
3
3
3
3
3
3
3
)
;
    }
    lowerWall
    {
        type            calculated;
        value           nonuniform List<scalar> 
62
(
2
2
2
2
2
2
2
2
2
2
2
2
2
2
2
2
2
2
2
1.99983
1.99957
1.99943
1.99943
1.99943
1.99976
2
2
1.99707
0.941769
0.00478566
0.00113759
0.092585
0.248867
0.39033
0.487859
1.86764
1.53292
0.781833
0.598772
0.356252
0.232797
0.25963
0.266804
1.86764
1.86743
1.86035
1.85673
1.8657
1.89335
1.94501
1.8005
1.76519
1.72375
1.72522
1.71296
1.74045
1.77164
1.74021
1.73488
1.66625
1.76336
1.76414
)
;
    }
    atmosphere
    {
        type            calculated;
        value           nonuniform List<scalar> 
46
(
3
3
3
3
3
3
3
3
3
3
3
3
3
3
3
3
3
3
3
3
3
3
3
3
3
3
3
3
3
3
3
3
3
3
3
3
3
3
3
3
3
3
3
3
3
3
)
;
    }
    defaultFaces
    {
        type            empty;
    }
}


// ************************************************************************* //
