/*--------------------------------*- C++ -*----------------------------------*\
  =========                 |
  \\      /  F ield         | OpenFOAM: The Open Source CFD Toolbox
   \\    /   O peration     | Website:  https://openfoam.org
    \\  /    A nd           | Version:  13
     \\/     M anipulation  |
\*---------------------------------------------------------------------------*/
FoamFile
{
    format      ascii;
    class       volScalarField;
    location    "2.15";
    object      alpha.water;
}
// * * * * * * * * * * * * * * * * * * * * * * * * * * * * * * * * * * * * * //

dimensions      [];

internalField   nonuniform List<scalar> 
2268
(
6.69485e-11
8.70098e-11
1.04757e-10
1.10643e-10
1.17203e-10
1.24593e-10
1.32275e-10
1.41046e-10
1.54926e-10
1.78127e-10
2.03357e-10
2.32375e-10
2.79774e-10
3.46644e-10
4.24763e-10
5.24181e-10
6.7132e-10
9.74616e-10
1.52905e-09
2.27537e-09
2.69891e-09
2.77801e-09
2.77885e-09
1.77076e-10
2.39617e-10
2.11532e-10
2.21264e-10
2.53794e-10
3.00946e-10
3.58399e-10
4.13852e-10
4.66158e-10
5.14189e-10
5.66326e-10
6.24523e-10
6.53527e-10
6.59974e-10
6.91118e-10
7.67486e-10
9.13178e-10
1.18044e-09
1.47849e-09
1.93034e-09
2.37347e-09
2.54772e-09
2.37843e-09
3.21741e-10
3.81636e-10
3.22402e-10
3.23506e-10
3.75058e-10
4.61909e-10
5.73399e-10
7.05283e-10
8.51965e-10
1.01294e-09
1.15794e-09
1.22675e-09
1.16173e-09
9.34276e-10
8.54255e-10
7.70743e-10
1.42865e-09
1.55731e-09
1.66409e-09
1.96539e-09
2.27666e-09
2.68502e-09
1.3028e-09
3.17857e-10
3.62165e-10
3.04504e-10
3.02112e-10
3.39226e-10
4.16106e-10
5.27609e-10
6.71664e-10
9.39024e-10
1.31224e-09
1.55011e-09
1.57386e-09
1.28622e-09
6.67078e-10
8.76508e-10
4.89226e-10
4.83961e-10
4.81422e-10
4.7929e-10
4.82439e-10
4.79723e-10
1.24458e-09
1.24948e-09
2.58491e-10
2.57161e-10
2.43861e-10
2.49174e-10
4.0562e-10
2.97832e-10
4.90996e-10
1.05662e-09
2.24645e-10
1.33342e-10
1.28266e-10
1.03453e-10
6.05286e-11
1.78559e-11
3.00574e-11
1.08725e-11
5.46422e-12
0.000137096
0.00262644
0.00446845
0.00527981
0.00428737
0.00146466
2.1123e-10
2.06702e-10
2.01952e-10
2.47395e-10
2.17719e-08
4.24914e-11
2.97678e-10
4.96742e-09
2.22591e-09
1.13151e-07
0.0264628
0.0914811
0.171425
0.254804
0.33996
0.420274
0.480521
0.521571
0.543538
0.551193
0.545096
0.526982
0.529467
1.48256e-10
1.98884e-10
1.48256e-10
2.02677e-10
0.00154098
0.00199496
0.0450645
0.149726
0.310367
0.51338
0.696961
0.823665
0.909621
0.964954
0.990964
0.995787
0.99784
0.998776
0.999147
0.999129
0.998774
0.998157
0.998247
0.349436
0.281523
0.251739
0.279805
0.381531
0.562775
0.739157
0.879594
0.966878
0.998251
1
1
1
1
1
0.999999
0.999997
0.999982
0.999971
0.999955
0.999924
0.99988
0.999606
0.0105798
0.0108234
0.0290079
0.0583161
0.0642238
0.0558107
0.0416908
0.0244034
0.00233236
0.00148668
0.0006598
0.00066695
0.00067085
0.00982713
0.121562
0.124793
0.11313
0.0159928
0.0152064
0.0332596
0.0392716
0.0474069
0.0579703
0.117297
0.232152
0.28323
0.187097
0.125729
0.104019
0.0426903
0.00344477
0.000670469
0.00704589
0.0791034
0.124756
0.10691
0.0164174
0.0150893
0.410496
0.480438
0.360796
0.253839
0.178415
0.277037
0.624617
0.750799
0.668176
0.511565
0.218929
0.0245748
0.00721451
0.0015774
0.00919531
0.033439
0.031251
0.0126545
0.011157
0.609539
0.797027
0.808089
0.671777
0.307987
0.185175
0.358618
0.79401
0.996225
0.997127
0.783695
0.25003
0.0270759
0.00101929
0.0010192
0.00103432
0.00101793
0.00170599
0.00158989
0.82756
0.821543
0.830941
0.830769
0.358708
0.171302
0.166672
0.429697
0.942957
0.997905
0.947336
0.458874
0.0990523
0.00102693
0.00101833
0.0010179
0.00101609
0.00101675
0.00106383
0.884322
0.884322
0.884322
0.849936
0.26381
0.0962392
0.103071
0.690115
0.943558
0.998458
0.99725
0.685631
0.154356
0.0924081
0.0348163
0.142419
0.104851
0.00212433
0.00112205
0.884321
0.884322
0.884321
0.748039
0.0967504
0.0970091
0.595719
0.9828
0.997657
0.99936
0.999768
0.957547
0.667872
0.342678
0.314984
0.577035
0.651784
0.379772
0.0393996
0.884322
0.884321
0.884322
0.609952
0.0283324
0.241539
0.884169
0.999525
0.999573
0.999727
0.999814
0.99981
0.989298
0.896789
0.841376
0.908658
0.96349
0.972684
0.340347
0.963632
0.949504
0.953056
0.973982
0.994506
1
1
1
1
1
1
1
1
1
1
1
1
0.999999
0.999999
0.999999
0.999999
0.999995
0.998807
1
1
1
0.999994
1
1
1
1
1
1
1
1
1
1
1
1
1
1
0.996681
0.979006
0.963786
0.950053
0.869663
1
1
1
0.999841
0.999957
0.999999
1
1
1
1
1
1
1
0.999997
0.990844
0.97613
0.962057
0.917953
0.841886
0.769412
0.470185
0.225749
0.139231
0.997106
0.99608
0.994436
0.99657
0.997685
0.999686
0.999715
1
0.999981
0.992953
0.982383
0.967153
0.939112
0.872158
0.787435
0.657912
0.483424
0.312395
0.142027
0.0513474
0.00882724
6.07086e-07
0.00185881
0.811541
0.794796
0.738938
0.69746
0.663897
0.628758
0.676306
0.73463
0.739572
0.70043
0.595031
0.491649
0.377004
0.229639
0.0916444
0.0259018
0.00589609
-5.43679e-19
-9.55227e-20
7.25424e-20
2.46612e-09
1.63229e-06
5.24406e-05
0.196916
0.131713
0.0292267
0.0170767
0.0202806
0.0263943
0.0341867
0.065604
0.0873822
0.0673885
0.0272039
0.00484906
5.67518e-06
-1.56521e-19
1.56695e-20
1.00954e-21
6.04246e-21
-8.80657e-19
-3.31842e-21
3.1574e-24
9.52854e-07
5.07311e-06
3.82088e-06
2.30616e-11
-1.02536e-25
1.78649e-27
-1.35652e-23
2.54719e-06
0.000400879
9.85593e-05
1.20468e-08
1.93372e-11
1.45893e-10
-2.1613e-09
7.79758e-14
1.443e-14
2.36428e-21
6.16018e-32
2.96711e-13
2.24454e-11
1.12372e-11
2.53531e-09
3.55678e-08
1.66304e-07
3.46546e-07
1.03901e-08
-2.30616e-11
1.12961e-05
0.000103215
9.99633e-05
2.91361e-05
5.09939e-08
1.32369e-07
6.78394e-08
2.19973e-07
1.07566e-07
1.20569e-07
1.02325e-07
1.53538e-09
3.822e-09
1.18005e-08
3.6136e-08
4.06267e-08
4.15473e-08
6.51154e-08
2.66384e-07
4.28918e-07
3.65181e-07
1.8276e-07
-1.61873e-08
1.60753e-07
5.1585e-07
4.5463e-06
1.28855e-05
9.56547e-06
7.06356e-07
4.34708e-08
9.95574e-08
1.04673e-07
2.23756e-07
2.5815e-07
2.22027e-07
3.62428e-08
1.2063e-08
7.06395e-08
1.07664e-07
1.59424e-07
1.85447e-07
1.75183e-07
2.19057e-07
3.31184e-07
6.63667e-07
-1.45701e-08
3.78913e-09
4.42119e-08
4.19156e-06
8.82493e-06
8.1629e-06
1.09982e-06
2.33084e-08
9.93743e-09
1.53197e-08
5.52671e-08
2.38018e-07
2.44269e-07
1.01089e-07
2.1561e-10
1.30382e-08
1.48611e-07
2.00152e-07
1.98664e-07
9.05987e-08
2.95182e-10
2.29212e-08
7.92915e-08
-1.08555e-09
2.19179e-08
5.15148e-07
2.36683e-06
5.39689e-06
1.67056e-06
2.01296e-07
6.92549e-08
7.40577e-09
9.09724e-09
1.33442e-08
1.32808e-07
2.41664e-07
9.53415e-08
1.02314e-10
7.6313e-09
2.86665e-08
6.11123e-08
6.0752e-08
2.48902e-08
4.46411e-10
7.65759e-11
5.98262e-12
1.70202e-08
4.96704e-08
2.41551e-07
5.18042e-07
4.56935e-08
1.4808e-10
1.7945e-11
1.8551e-09
4.56751e-08
1.62407e-07
1.14554e-08
2.57476e-08
4.96883e-08
4.61551e-08
8.33753e-09
1.4957e-09
2.55782e-09
3.84745e-09
7.4524e-09
8.89546e-09
5.20854e-09
1.13147e-09
4.09848e-10
2.50137e-08
1.69294e-08
3.4328e-08
5.13372e-08
3.10463e-09
1.72927e-10
3.01065e-10
1.73603e-10
1.90201e-07
1.5863e-06
2.83652e-06
1.78795e-06
7.66535e-09
1.26396e-09
1.52252e-09
1.26268e-09
1.00253e-08
3.20017e-08
1.99976e-08
4.59556e-09
3.22777e-09
3.10763e-09
2.13049e-09
2.49853e-08
1.10713e-08
7.70754e-09
3.28539e-09
2.08423e-09
2.94052e-10
1.83712e-10
1.04396e-09
1.94816e-07
1.5399e-06
3.14765e-06
3.17649e-06
2.59552e-06
5.50186e-07
4.1634e-08
2.99436e-08
6.89985e-08
1.25374e-07
3.66323e-08
1.19576e-08
5.5687e-09
3.25081e-09
2.97144e-09
2.0771e-08
9.83953e-09
8.55104e-09
5.32452e-09
7.49865e-10
3.37393e-10
2.43162e-10
2.54276e-10
6.60725e-08
7.34655e-07
2.76336e-06
3.17636e-06
3.17649e-06
2.35408e-06
1.67083e-06
1.71168e-06
1.49665e-06
4.07979e-07
7.75941e-08
2.89211e-08
1.27802e-08
6.10235e-09
5.83816e-09
1.61807e-08
6.28801e-09
6.32733e-09
4.64339e-09
1.46346e-09
5.80996e-10
4.08289e-10
3.16287e-10
1.41307e-09
1.4214e-08
3.03084e-07
2.59483e-06
3.1763e-06
3.11279e-06
2.96633e-06
2.89698e-06
2.04046e-06
5.31191e-07
1.41379e-07
3.75503e-08
2.83644e-08
2.62415e-08
2.28387e-08
1.51587e-08
3.92918e-09
4.08127e-09
3.44832e-09
2.19263e-09
1.24163e-09
8.54911e-10
8.15138e-10
9.11425e-10
1.00263e-09
1.10977e-08
4.62749e-07
1.69701e-06
2.50852e-06
1.97805e-06
1.3458e-06
8.39836e-07
3.56216e-07
1.30714e-07
2.3608e-08
2.63531e-08
2.6895e-08
2.39232e-08
1.59151e-08
3.02925e-09
2.88697e-09
2.81886e-09
2.17345e-09
1.63432e-09
1.33278e-09
1.42276e-09
1.87589e-09
2.51379e-09
3.70908e-09
1.19674e-07
4.48146e-07
4.83003e-07
3.34192e-07
1.92306e-07
1.38167e-07
1.31717e-07
7.67673e-08
2.3438e-08
2.31692e-08
2.17815e-08
1.87473e-08
1.71921e-08
2.9114e-09
2.43933e-09
2.57681e-09
2.13865e-09
1.69931e-09
1.36128e-09
1.30072e-09
1.69917e-09
2.67601e-09
4.08413e-09
9.43006e-09
1.84112e-09
3.52635e-08
2.81575e-08
3.73794e-08
4.31527e-08
4.64546e-08
3.30742e-08
1.75926e-08
1.53202e-08
1.44855e-08
1.294e-08
1.79983e-08
3.11693e-09
2.2073e-09
2.38137e-09
2.05138e-09
1.67586e-09
1.32417e-09
1.08032e-09
1.17243e-09
1.65573e-09
2.25551e-09
3.35543e-09
1.76496e-09
1.43691e-09
1.06974e-08
1.56634e-08
1.59881e-08
1.70277e-08
1.42059e-08
9.50292e-09
8.52834e-09
8.34945e-09
7.73621e-09
1.80241e-08
3.6319e-09
2.10346e-09
2.24839e-09
1.94808e-09
1.60754e-09
1.27652e-09
9.61295e-10
7.75296e-10
8.71724e-10
1.0427e-09
1.22411e-09
1.09223e-09
1.58299e-09
3.3708e-09
5.41411e-09
6.99936e-09
7.36551e-09
6.31005e-09
4.73269e-09
4.18431e-09
4.11876e-09
4.11451e-09
1.77648e-08
4.53368e-09
2.05913e-09
2.07111e-09
1.78346e-09
1.4685e-09
1.19317e-09
9.08319e-10
6.63723e-10
5.1084e-10
4.62477e-10
5.15043e-10
5.56353e-10
9.01191e-10
1.41782e-09
2.18773e-09
2.94304e-09
3.04487e-09
2.60403e-09
2.03008e-09
1.77441e-09
1.75695e-09
1.87135e-09
1.73292e-08
6.21065e-09
2.12176e-09
1.93091e-09
1.60942e-09
1.28587e-09
1.04435e-09
8.24653e-10
6.14114e-10
4.33546e-10
3.06409e-10
2.48358e-10
2.62933e-10
3.99232e-10
5.96439e-10
8.26919e-10
1.10232e-09
1.08764e-09
9.22679e-10
7.31437e-10
6.46033e-10
6.55005e-10
7.35764e-10
1.60631e-08
6.97203e-09
2.55277e-09
1.83961e-09
1.43002e-09
1.06918e-09
8.47053e-10
6.73569e-10
5.26944e-10
3.90256e-10
2.68985e-10
1.79458e-10
1.38496e-10
1.55955e-10
2.04797e-10
2.62749e-10
3.40837e-10
3.28199e-10
2.79292e-10
2.26786e-10
2.04954e-10
2.14191e-10
2.50677e-10
1.40087e-08
6.82341e-09
3.08214e-09
1.75595e-09
1.23149e-09
8.62862e-10
6.41297e-10
5.00856e-10
4.00922e-10
3.14465e-10
2.28904e-10
1.54968e-10
9.95692e-11
7.29153e-11
7.21923e-11
7.73454e-11
9.0687e-11
8.73514e-11
7.63401e-11
6.48722e-11
6.04268e-11
6.3835e-11
7.41494e-11
1.24591e-08
6.39779e-09
3.11511e-09
1.63527e-09
1.04559e-09
6.7187e-10
4.63618e-10
3.48359e-10
2.72538e-10
2.19161e-10
1.71097e-10
1.23731e-10
7.909e-11
4.92723e-11
3.41416e-11
2.75061e-11
2.53665e-11
2.35498e-11
2.12763e-11
1.90526e-11
1.80262e-11
1.86566e-11
2.03898e-11
1.02592e-08
5.69519e-09
2.91006e-09
1.46196e-09
8.57668e-10
5.08367e-10
3.16819e-10
2.25645e-10
1.69995e-10
1.33778e-10
1.06152e-10
8.17369e-11
5.71318e-11
3.61711e-11
2.165e-11
1.38557e-11
9.5319e-12
7.74905e-12
6.75254e-12
6.18847e-12
5.90433e-12
5.75643e-12
5.8513e-12
8.82365e-09
4.80709e-09
2.49083e-09
1.2288e-09
6.69246e-10
3.70618e-10
2.09305e-10
1.36497e-10
9.72611e-11
7.40198e-11
5.81847e-11
4.58335e-11
3.41296e-11
2.32237e-11
1.41791e-11
8.13001e-12
4.67365e-12
3.23926e-12
2.52289e-12
2.21766e-12
2.06034e-12
1.95075e-12
1.83114e-12
6.84057e-09
3.63958e-09
1.92034e-09
9.42822e-10
4.8524e-10
2.55853e-10
1.28838e-10
7.63704e-11
5.06613e-11
3.66145e-11
2.80527e-11
2.1959e-11
1.65835e-11
1.1997e-11
8.17967e-12
4.45472e-12
2.37864e-12
1.36531e-12
9.40628e-13
8.07267e-13
7.02974e-13
6.11728e-13
5.72276e-13
4.83168e-09
2.56466e-09
1.33279e-09
6.48107e-10
3.20028e-10
1.55003e-10
7.48027e-11
3.96666e-11
2.40276e-11
1.63511e-11
1.20527e-11
9.18709e-12
6.95851e-12
5.16764e-12
3.44908e-12
2.09807e-12
1.03984e-12
5.67177e-13
3.52611e-13
2.6902e-13
2.23036e-13
1.90998e-13
1.65456e-13
3.02815e-09
1.54602e-09
7.76316e-10
3.70658e-10
1.76172e-10
8.34598e-11
3.87802e-11
1.86785e-11
1.02843e-11
6.55288e-12
4.61986e-12
3.41332e-12
2.57814e-12
1.81468e-12
1.29735e-12
8.40736e-13
4.04199e-13
2.01087e-13
1.16469e-13
8.10922e-14
6.52814e-14
5.13427e-14
4.34945e-14
1.71574e-09
8.20918e-10
3.95074e-10
1.83927e-10
8.44449e-11
3.85884e-11
1.72026e-11
7.78495e-12
3.94396e-12
2.34676e-12
1.57754e-12
1.13011e-12
8.17547e-13
5.88418e-13
4.17696e-13
2.59538e-13
1.33041e-13
6.23711e-14
3.29794e-14
2.19598e-14
1.63914e-14
1.27118e-14
1.00854e-14
7.20959e-10
3.67403e-10
1.6998e-10
7.7233e-11
3.42466e-11
1.50349e-11
6.49807e-12
2.67914e-12
1.25987e-12
7.0227e-13
4.4949e-13
3.19184e-13
2.06213e-13
1.53384e-13
1.06362e-13
6.84467e-14
3.37528e-14
1.56739e-14
7.69379e-15
5.02675e-15
3.79377e-15
2.69025e-15
1.98354e-15
2.97912e-10
1.41963e-10
6.03703e-11
2.58577e-11
1.10276e-11
4.63183e-12
1.93676e-12
7.99712e-13
3.64713e-13
1.93009e-13
1.20498e-13
7.13791e-14
5.24927e-14
3.70949e-14
2.47486e-14
1.52268e-14
7.29094e-15
3.13147e-15
1.63444e-15
1.03266e-15
6.99727e-16
4.90328e-16
3.37307e-16
8.00019e-11
3.45923e-11
1.45331e-11
6.25317e-12
2.79107e-12
1.23216e-12
5.08162e-13
2.0601e-13
8.74282e-14
4.45215e-14
2.41903e-14
1.63739e-14
1.13817e-14
7.60188e-15
4.9029e-15
2.71613e-15
1.24225e-15
5.47911e-16
2.96748e-16
1.8368e-16
1.26494e-16
7.97526e-17
4.81594e-17
1.94075e-11
8.09706e-12
3.4535e-12
1.4736e-12
5.92253e-13
2.46342e-13
9.93256e-14
4.44877e-14
1.70893e-14
8.40857e-15
4.97752e-15
3.22179e-15
2.0943e-15
1.34755e-15
8.36177e-16
4.44956e-16
1.94601e-16
8.80275e-17
4.86752e-17
2.95543e-17
1.86309e-17
1.06672e-17
5.7591e-18
3.95775e-12
1.56458e-12
6.56071e-13
2.78244e-13
1.13864e-13
4.68717e-14
1.92874e-14
7.48033e-15
3.25361e-15
1.57348e-15
8.83685e-16
5.39471e-16
3.41262e-16
2.1447e-16
1.26998e-16
6.3427e-17
2.72997e-17
1.2528e-17
7.14946e-18
4.21236e-18
2.38019e-18
1.16029e-18
5.66625e-19
5.74422e-13
2.20855e-13
9.24978e-14
4.07205e-14
1.75129e-14
7.42371e-15
3.10499e-15
1.22126e-15
5.30678e-16
2.50108e-16
1.35195e-16
8.07889e-17
5.06893e-17
3.16693e-17
1.73501e-17
8.09975e-18
3.49649e-18
1.75057e-18
9.75915e-19
5.19692e-19
2.48955e-19
1.09207e-19
4.52392e-20
5.47395e-14
2.2141e-14
9.97658e-15
4.83622e-15
2.22505e-15
9.86793e-16
4.23361e-16
1.73122e-16
7.43079e-17
3.49606e-17
1.87301e-17
1.11424e-17
6.94738e-18
3.69104e-18
2.16017e-18
9.6236e-19
4.35392e-19
2.08094e-19
1.15612e-19
5.79103e-20
2.41536e-20
8.365e-21
1.46252e-21
2.99817e-15
1.47172e-15
8.44435e-16
4.93675e-16
2.46492e-16
1.15523e-16
5.12071e-17
2.15881e-17
9.41626e-18
4.48431e-18
2.40569e-18
1.43665e-18
8.80827e-19
5.09878e-19
2.48924e-19
1.09572e-19
5.24331e-20
2.61963e-20
1.28689e-20
5.06199e-21
1.83608e-21
3.43031e-22
3.33351e-23
4.94485e-17
4.43255e-17
4.19809e-17
3.31907e-17
2.44631e-17
1.24443e-17
5.62905e-18
2.44604e-18
1.09434e-18
5.28453e-19
2.83995e-19
1.68207e-19
1.00892e-19
5.61012e-20
2.5489e-20
1.12302e-20
5.68911e-21
2.90662e-21
1.32815e-21
4.86265e-22
1.20784e-22
9.76733e-24
2.75088e-25
9.23658e-21
5.13938e-19
2.56445e-18
2.93079e-18
1.94718e-18
1.03001e-18
5.61569e-19
2.52152e-19
1.1677e-19
5.71064e-20
3.08e-20
1.78493e-20
1.045e-20
5.64845e-21
2.49714e-21
1.17292e-21
6.39505e-22
3.26599e-22
1.4208e-22
4.50351e-23
5.62178e-24
2.35838e-25
3.55943e-27
0.959089
0.828323
0.729474
0.703342
0.268363
0.0521502
0.100604
0.528092
0.0312082
0.00551691
0.0967201
0.268061
0.000179544
0.0061042
0.00927918
0.00222133
0.00019854
0.000262041
7.36264e-08
-3.60922e-09
4.82514e-06
1.23723e-07
1.19208e-05
2.01324e-05
2.6291e-08
1.09491e-08
4.08714e-06
9.65131e-06
5.03362e-07
2.67909e-06
3.68005e-06
3.13665e-06
6.24449e-07
7.39214e-07
1.47992e-06
1.71131e-06
6.66725e-08
1.49543e-08
6.21602e-09
5.38398e-09
1.61703e-11
5.92187e-10
3.06984e-09
7.39337e-09
2.31706e-10
2.19561e-10
2.68509e-10
3.53129e-10
5.28652e-10
4.14354e-10
4.14147e-10
4.03447e-10
2.33657e-09
1.6611e-09
1.1265e-09
9.43089e-10
5.19249e-09
4.10114e-09
3.23137e-09
2.67057e-09
2.09281e-08
1.602e-08
1.16172e-08
9.19738e-09
2.25337e-08
1.84107e-08
1.56224e-08
1.3423e-08
1.77167e-08
1.67198e-08
1.26218e-08
1.14211e-08
1.24245e-08
1.05599e-08
9.61008e-09
8.79614e-09
7.31645e-09
7.04193e-09
5.97435e-09
5.52763e-09
4.06586e-09
3.75578e-09
3.50244e-09
3.32821e-09
1.97023e-09
1.93027e-09
1.83716e-09
1.73714e-09
8.39053e-10
8.40268e-10
8.29853e-10
8.07912e-10
2.976e-10
3.11128e-10
3.0746e-10
3.00694e-10
8.64982e-11
8.94986e-11
8.90381e-11
8.64541e-11
2.31827e-11
2.31093e-11
2.2228e-11
2.13771e-11
5.95907e-12
5.79222e-12
5.4702e-12
5.12535e-12
1.79177e-12
1.66337e-12
1.51039e-12
1.40403e-12
5.41717e-13
4.88459e-13
4.39829e-13
3.93019e-13
1.55697e-13
1.40461e-13
1.22522e-13
1.06506e-13
3.99735e-14
3.50874e-14
2.9849e-14
2.48653e-14
8.99386e-15
7.63814e-15
6.31294e-15
5.05337e-15
1.69985e-15
1.36957e-15
1.07569e-15
8.16869e-16
2.69072e-16
2.07956e-16
1.52567e-16
1.0882e-16
3.58802e-17
2.54644e-17
1.7819e-17
1.24162e-17
3.9499e-18
2.59125e-18
1.85207e-18
8.10299e-19
3.52044e-19
1.36375e-19
3.94909e-20
6.70231e-21
7.95091e-21
1.01089e-21
1.50139e-22
1.37512e-23
8.54919e-31
2.56682e-26
2.73123e-26
1.3996e-26
9.73664e-33
1.51605e-28
5.30015e-28
1.7439e-27
3.99263e-35
1.69211e-28
6.30443e-28
1.97351e-27
3.73981e-38
1.50519e-28
4.9386e-28
1.39097e-27
0.810494
0.883571
0.836052
0.499347
0.0308996
0.449735
0.922757
0.99164
0.995095
0.997926
0.998961
0.999396
0.999695
0.999897
0.999898
0.999897
0.999898
0.999061
0.567946
0.766203
0.788994
0.461417
0.0160894
0.0352258
0.497703
0.695274
0.638203
0.631754
0.67926
0.741097
0.802904
0.855236
0.905508
0.97675
0.999735
0.999896
0.997538
0.906774
0.262248
0.0970317
0.00424654
0.00129801
0.0407174
0.0709063
0.0155057
1.25123e-10
2.06238e-05
1.90881e-05
0.0126697
0.0427518
0.0771562
0.125187
0.233616
0.457669
0.722527
0.889453
0.898154
1.79167e-05
2.33252e-05
0.000564078
0.000748861
0.000432775
1.10236e-19
-1.29459e-10
2.30919e-10
-5.52664e-19
5.61972e-19
-5.81783e-25
3.35233e-14
3.31875e-12
1.03346e-11
1.97217e-06
0.00109955
0.0363536
0.186496
0.39717
2.01314e-05
2.68086e-05
6.31167e-06
3.37625e-06
8.21945e-08
8.27876e-08
5.17255e-08
3.29769e-08
1.27204e-07
3.13816e-07
4.18162e-07
3.96962e-07
4.3976e-08
1.9583e-07
1.76756e-05
5.36212e-05
5.1363e-05
5.03408e-05
4.75709e-05
2.04704e-05
1.16964e-05
-3.66743e-17
3.29149e-07
2.05889e-07
3.58836e-10
1.48263e-08
6.62269e-08
6.31628e-08
5.10374e-08
7.33045e-08
1.30359e-07
4.52678e-07
1.03673e-06
8.93163e-07
8.13605e-07
0.00110199
0.00220792
0.00215356
1.04208e-05
1.55222e-06
-6.65685e-11
3.89106e-09
9.47885e-10
1.06825e-20
7.76535e-33
2.27957e-11
-1.59051e-10
-3.91039e-10
1.282e-08
5.44043e-09
9.54775e-05
0.00138251
0.00265875
0.00275028
0.00243678
0.0028028
0.00327294
1.89734e-06
8.78275e-07
-2.27119e-12
4.56317e-19
6.09712e-15
-2.16227e-34
-6.18475e-26
2.28404e-08
1.16976e-06
3.41972e-06
5.44043e-09
-4.92576e-15
0.00225557
0.010012
0.0101287
0.0100286
0.00885465
0.00623599
0.00520647
1.86217e-07
1.95677e-09
6.69164e-10
5.28128e-09
5.82239e-08
3.72462e-07
9.22105e-07
7.19626e-07
4.66489e-05
0.000187134
0.000171182
0.000318501
0.00348972
0.00687929
0.00684714
0.00426149
0.00210873
0.00109893
0.000141251
5.35099e-09
3.52755e-09
5.03098e-08
3.41685e-07
9.29759e-07
4.41578e-06
1.8119e-05
5.06503e-05
0.000112936
0.000260754
0.00055242
0.000520495
0.000198263
1.17352e-17
1.23479e-17
1.15224e-17
9.00333e-11
4.16325e-17
1.62542e-10
1.26841e-08
2.18993e-08
2.47915e-08
1.0745e-07
3.65534e-07
5.00682e-07
6.87429e-07
2.72961e-06
2.04721e-05
3.29697e-05
8.30346e-07
9.91596e-19
1.67881e-10
4.23232e-10
2.16733e-09
4.54053e-09
5.4907e-09
3.2292e-09
1.49407e-09
4.6466e-10
4.79325e-10
7.92648e-11
6.56168e-11
7.91827e-12
3.86588e-09
1.12165e-13
2.25992e-15
5.30028e-19
4.21627e-23
4.0219e-23
1.10176e-08
3.21137e-08
1.74389e-08
5.49442e-09
7.79298e-09
7.80058e-09
2.22505e-09
1.94968e-09
3.48584e-10
2.50727e-10
1.47304e-10
8.35427e-11
4.04453e-11
2.92138e-11
3.22767e-11
9.87866e-11
1.8182e-10
1.65967e-10
4.15615e-09
5.19857e-08
6.7651e-08
3.55977e-08
4.6053e-09
3.29439e-09
3.96122e-09
7.45059e-10
1.20218e-09
7.53296e-10
4.87541e-10
2.40132e-10
1.26869e-10
8.54854e-11
7.37612e-11
7.78936e-11
1.90428e-10
4.40924e-10
6.77339e-10
5.37108e-09
4.03573e-08
6.01394e-08
2.08491e-08
3.38972e-09
2.78562e-10
5.39653e-10
6.32727e-11
8.01893e-10
2.05239e-09
1.46454e-09
4.58149e-10
1.59138e-10
8.35585e-11
7.41084e-11
8.00296e-11
1.97642e-10
4.70437e-10
9.54243e-10
2.82271e-09
8.28494e-09
1.61324e-08
1.57061e-09
1.18752e-09
2.39148e-10
4.81272e-11
4.697e-11
5.59588e-10
5.6637e-09
3.22146e-09
7.0712e-10
2.25428e-10
9.28688e-11
7.56536e-11
9.0525e-11
1.51518e-10
3.11935e-10
5.36016e-10
1.31861e-09
4.70646e-09
3.70101e-10
4.19467e-10
2.93635e-10
1.40399e-10
3.17375e-11
3.60679e-11
3.5466e-10
9.02209e-09
4.80368e-09
9.78307e-10
2.1272e-10
1.41314e-10
8.89921e-11
9.93531e-11
1.43992e-10
2.32914e-10
3.25141e-10
7.29107e-10
5.68896e-10
7.45633e-10
6.86866e-10
3.69348e-10
1.08532e-10
1.66235e-11
2.07735e-11
1.93856e-10
8.93843e-09
5.73541e-09
1.60311e-09
3.13947e-10
1.32237e-10
1.0512e-10
1.03217e-10
1.31971e-10
1.77568e-10
2.52792e-10
4.13335e-10
2.66046e-10
2.42897e-10
2.6906e-10
1.64344e-10
4.92615e-11
6.40045e-12
1.13727e-11
8.28755e-11
7.02743e-09
5.35495e-09
2.52115e-09
8.05627e-10
2.57939e-10
1.17949e-10
1.08956e-10
1.23164e-10
1.48492e-10
1.83731e-10
1.99578e-10
1.60606e-10
9.03882e-11
4.03245e-11
1.27461e-11
1.92879e-12
1.66835e-12
5.69352e-12
4.256e-11
4.67691e-09
3.93565e-09
2.67697e-09
1.40638e-09
7.10023e-10
3.24372e-10
1.6228e-10
1.21635e-10
1.1102e-10
1.06649e-10
9.58233e-11
7.62144e-11
4.85268e-11
2.75152e-11
7.2583e-12
1.07179e-12
9.06503e-13
3.21989e-12
1.3874e-11
2.85334e-09
2.49066e-09
2.04609e-09
1.44274e-09
9.33363e-10
5.58116e-10
3.03957e-10
1.55658e-10
8.89056e-11
5.97614e-11
4.30834e-11
3.25156e-11
2.02675e-11
1.13563e-11
2.87057e-12
5.21573e-13
4.21221e-13
7.68109e-13
5.57882e-12
1.56052e-09
1.40853e-09
1.22499e-09
1.05049e-09
7.93052e-10
5.48665e-10
3.47516e-10
1.9274e-10
9.28622e-11
4.02016e-11
2.42275e-11
1.40099e-11
6.10958e-12
1.92187e-12
4.21326e-13
1.61698e-13
1.56908e-13
1.64068e-13
5.36375e-13
7.62895e-10
7.13972e-10
6.35651e-10
5.55004e-10
4.69981e-10
3.84878e-10
2.69761e-10
1.67841e-10
9.06546e-11
4.07653e-11
1.57818e-11
5.95732e-12
2.16763e-12
6.71753e-13
1.714e-13
8.64187e-14
2.37042e-14
1.85688e-14
7.59255e-14
2.96397e-10
2.91425e-10
2.71946e-10
2.40436e-10
2.06709e-10
1.74704e-10
1.4685e-10
1.05494e-10
6.39037e-11
3.18251e-11
1.2157e-11
3.66297e-12
9.77669e-13
2.56756e-13
7.86767e-14
1.80801e-14
4.03718e-15
3.48953e-15
3.7588e-15
8.66964e-11
9.27321e-11
8.8432e-11
8.11021e-11
7.30832e-11
6.45363e-11
5.7134e-11
4.68333e-11
3.29025e-11
1.90119e-11
7.96141e-12
2.29208e-12
5.02301e-13
1.07793e-13
3.21135e-14
4.57706e-15
1.16395e-15
8.71721e-16
7.33926e-16
2.15522e-11
2.31447e-11
2.1953e-11
2.08146e-11
1.95083e-11
1.84447e-11
1.70974e-11
1.49595e-11
1.21945e-11
8.33211e-12
4.01264e-12
1.20573e-12
2.33543e-13
3.99309e-14
6.63808e-15
9.04454e-16
4.77282e-16
5.45648e-16
2.83414e-16
5.07733e-12
5.05702e-12
4.71046e-12
4.43933e-12
4.25513e-12
4.12087e-12
3.98854e-12
3.81657e-12
3.45075e-12
2.60099e-12
1.43258e-12
4.79476e-13
8.82719e-14
1.26611e-14
1.04192e-15
1.92068e-16
2.43471e-16
3.34286e-16
1.73722e-16
1.27652e-12
1.1535e-12
1.00106e-12
8.8346e-13
7.96679e-13
7.66434e-13
7.72379e-13
7.72115e-13
7.40453e-13
6.20699e-13
3.80715e-13
1.39182e-13
2.47823e-14
2.55814e-15
2.19769e-16
7.80795e-17
1.13111e-16
2.14138e-16
1.19983e-16
3.26216e-13
2.68468e-13
2.12899e-13
1.65577e-13
1.3762e-13
1.1736e-13
1.18873e-13
1.23368e-13
1.21489e-13
1.06671e-13
6.82096e-14
2.08378e-14
2.68899e-15
1.97875e-16
3.86008e-17
2.96448e-17
5.29267e-17
1.09835e-16
8.78283e-17
8.02331e-14
5.83151e-14
4.29494e-14
3.25531e-14
1.87559e-14
1.25601e-14
1.2564e-14
1.35232e-14
1.37384e-14
1.25216e-14
7.02203e-15
1.8541e-15
1.39932e-16
5.34384e-18
5.42986e-18
9.85048e-18
2.48992e-17
7.28128e-17
5.34242e-17
1.70098e-14
1.13258e-14
8.22566e-15
4.54519e-15
1.82682e-15
7.12763e-16
7.10425e-16
8.71587e-16
9.72079e-16
9.28702e-16
4.21052e-16
7.42479e-17
3.20227e-18
3.16109e-19
9.92338e-19
3.89359e-18
1.3589e-17
4.24618e-17
3.63482e-17
3.07075e-15
1.96131e-15
1.15177e-15
4.21122e-16
8.93676e-17
1.78455e-17
2.0289e-17
3.0317e-17
3.73158e-17
2.81099e-17
1.33987e-17
2.09286e-18
8.71323e-20
1.18396e-19
5.00963e-19
2.38704e-18
9.21688e-18
2.8007e-17
1.8073e-17
4.64301e-16
2.74937e-16
9.67759e-17
1.71353e-17
1.32796e-18
1.84174e-19
3.35519e-19
7.25984e-19
8.86036e-19
5.74189e-19
1.63861e-19
2.40555e-20
2.68236e-20
7.16512e-20
2.98487e-19
1.85106e-18
6.9192e-18
1.29396e-17
1.11048e-17
6.49953e-17
2.07898e-17
3.32086e-18
2.17521e-19
7.88687e-21
2.24136e-21
5.06626e-21
1.21985e-20
1.28884e-20
1.04124e-20
7.75325e-21
1.22728e-20
2.24806e-20
5.55596e-20
2.44e-19
1.3815e-18
3.97156e-18
8.02375e-18
4.51794e-18
6.00151e-18
8.10159e-19
3.08416e-20
6.9754e-22
1.08167e-22
1.16327e-22
2.25687e-22
5.55799e-22
1.09451e-21
2.31909e-21
5.20084e-21
1.1028e-20
2.05252e-20
4.97208e-20
2.16712e-19
9.65311e-19
2.41963e-18
3.23241e-18
2.51008e-18
1.45207e-19
5.61503e-21
7.72131e-23
1.14751e-23
1.81809e-23
4.48083e-23
1.23493e-22
3.31878e-22
8.55219e-22
2.09988e-21
4.87376e-21
1.02648e-20
1.91168e-20
4.49575e-20
1.71018e-19
5.83537e-19
1.22456e-18
1.77371e-18
7.94881e-19
8.23513e-22
1.68941e-23
1.59768e-24
3.65356e-24
1.15573e-23
3.57016e-23
1.03219e-22
2.80098e-22
7.23367e-22
1.77202e-21
4.07141e-21
8.52793e-21
1.5796e-20
3.62213e-20
1.18075e-19
3.63739e-19
6.95044e-19
5.76829e-19
3.70536e-19
1.18631e-24
2.61687e-25
7.63051e-25
2.79499e-24
9.21811e-24
2.79521e-23
8.05843e-23
2.15954e-22
5.53716e-22
1.34954e-21
3.08225e-21
6.41609e-21
1.18786e-20
2.56543e-20
7.73939e-20
2.01769e-19
2.80483e-19
2.65581e-19
8.66499e-20
2.93243e-26
1.40175e-25
5.66073e-25
2.01398e-24
6.46613e-24
1.93479e-23
5.46677e-23
1.45661e-22
3.70588e-22
8.98638e-22
2.04181e-21
4.20362e-21
7.77384e-21
1.65482e-20
3.94077e-20
1.11328e-19
1.21759e-19
6.82518e-20
3.31051e-20
2.18406e-26
9.73377e-26
3.59134e-25
1.16312e-24
3.61574e-24
1.04628e-23
2.91612e-23
7.94553e-23
2.02147e-22
4.96168e-22
1.14165e-21
2.37991e-21
4.43505e-21
9.33923e-21
1.93499e-20
5.1587e-20
3.90076e-20
2.36273e-20
1.3464e-20
1.3527e-26
5.10338e-26
1.68493e-25
5.15226e-25
1.54161e-24
4.5163e-24
1.28597e-23
3.53607e-23
9.22865e-23
2.32306e-22
5.42765e-22
1.13116e-21
2.10558e-21
4.4297e-21
8.86127e-21
2.03778e-20
1.18669e-20
8.47552e-21
4.45138e-21
4.71079e-27
1.44887e-26
4.26256e-26
1.18441e-25
3.74203e-25
1.19015e-24
3.57671e-24
9.98523e-24
2.70888e-23
6.91985e-23
1.63203e-22
3.49747e-22
6.60455e-22
1.33374e-21
2.54576e-21
5.14921e-21
3.05975e-21
1.95066e-21
5.73715e-22
)
;

boundaryField
{
    leftWall
    {
        type            alphaContactAngle;
        contactAngleProperties 
        {
            mercury         
            {
                theta0          90;
            }
            air             
            {
                theta0          90;
            }
            oil             
            {
                theta0          90;
            }
        }
        value           nonuniform List<scalar> 
50
(
6.69485e-11
1.77076e-10
3.21741e-10
3.17857e-10
2.58491e-10
2.1123e-10
1.48256e-10
0.349436
0.963632
1
1
0.997106
0.811541
0.196916
2.30616e-11
-2.30616e-11
-1.61873e-08
-1.45701e-08
-1.08555e-09
1.70202e-08
2.50137e-08
2.49853e-08
2.0771e-08
1.61807e-08
1.51587e-08
1.59151e-08
1.71921e-08
1.79983e-08
1.80241e-08
1.77648e-08
1.73292e-08
1.60631e-08
1.40087e-08
1.24591e-08
1.02592e-08
8.82365e-09
6.84057e-09
4.83168e-09
3.02815e-09
1.71574e-09
7.20959e-10
2.97912e-10
8.00019e-11
1.94075e-11
3.95775e-12
5.74422e-13
5.47395e-14
2.99817e-15
4.94485e-17
9.23658e-21
)
;
    }
    rightWall
    {
        type            alphaContactAngle;
        contactAngleProperties 
        {
            mercury         
            {
                theta0          90;
            }
            air             
            {
                theta0          90;
            }
            oil             
            {
                theta0          90;
            }
        }
        value           nonuniform List<scalar> 
50
(
0.0152064
0.0150893
0.011157
0.00158989
0.00106383
0.00112205
0.0393996
0.340347
0.567946
0.906774
0.898154
0.39717
4.75709e-05
0.00215356
0.00327294
0.00520647
0.000141251
1.62542e-10
1.49407e-09
1.94968e-09
1.20218e-09
8.01893e-10
5.59588e-10
3.5466e-10
1.93856e-10
8.28755e-11
4.256e-11
1.3874e-11
5.57882e-12
5.36375e-13
7.59255e-14
3.7588e-15
7.33926e-16
2.83414e-16
1.73722e-16
1.19983e-16
8.78283e-17
5.34242e-17
3.63482e-17
1.8073e-17
1.11048e-17
4.51794e-18
2.51008e-18
7.94881e-19
3.70536e-19
8.66499e-20
3.31051e-20
1.3464e-20
4.45138e-21
5.73715e-22
)
;
    }
    lowerWall
    {
        type            alphaContactAngle;
        contactAngleProperties 
        {
            mercury         
            {
                theta0          90;
            }
            air             
            {
                theta0          90;
            }
            oil             
            {
                theta0          90;
            }
        }
        value           nonuniform List<scalar> 
62
(
6.69485e-11
8.70098e-11
1.04757e-10
1.10643e-10
1.17203e-10
1.24593e-10
1.32275e-10
1.41046e-10
1.54926e-10
1.78127e-10
2.03357e-10
2.32375e-10
2.79774e-10
3.46644e-10
4.24763e-10
5.24181e-10
6.7132e-10
9.74616e-10
1.52905e-09
2.27537e-09
2.69891e-09
2.77801e-09
2.77885e-09
2.77885e-09
2.37843e-09
1.3028e-09
1.24948e-09
0.00146466
0.529467
0.998247
0.999606
0.959089
0.828323
0.729474
0.703342
0.0105798
0.0332596
0.410496
0.609539
0.82756
0.884322
0.884321
0.884322
0.0105798
0.0108234
0.0290079
0.0583161
0.0642238
0.0558107
0.0416908
0.0244034
0.00233236
0.00148668
0.0006598
0.00066695
0.00067085
0.00982713
0.121562
0.124793
0.11313
0.0159928
0.0152064
)
;
    }
    atmosphere
    {
        type            inletOutlet;
        inletValue      uniform 0;
        value           nonuniform List<scalar> 
46
(
0
0
2.56445e-18
2.93079e-18
1.94718e-18
1.03001e-18
5.61569e-19
2.52152e-19
1.1677e-19
5.71064e-20
3.08e-20
1.78493e-20
1.045e-20
5.64845e-21
2.49714e-21
1.17292e-21
6.39505e-22
3.26599e-22
1.4208e-22
4.50351e-23
5.62178e-24
2.35838e-25
3.55943e-27
3.73981e-38
0
0
0
0
0
0
0
0
0
0
0
0
0
0
0
0
0
0
0
0
0
0
)
;
    }
    defaultFaces
    {
        type            empty;
    }
}

