/*--------------------------------*- C++ -*----------------------------------*\
  =========                 |
  \\      /  F ield         | OpenFOAM: The Open Source CFD Toolbox
   \\    /   O peration     | Website:  https://openfoam.org
    \\  /    A nd           | Version:  13
     \\/     M anipulation  |
\*---------------------------------------------------------------------------*/
FoamFile
{
    format      ascii;
    class       volScalarField;
    location    "2.15";
    object      alpha.mercury;
}
// * * * * * * * * * * * * * * * * * * * * * * * * * * * * * * * * * * * * * //

dimensions      [];

internalField   nonuniform List<scalar> 
2268
(
1
1
1
1
1
1
1
1
1
1
1
1
1
1
1
1
1
1
1
0.999834
0.999573
0.999433
0.999433
1
1
1
1
1
1
1
1
1
1
1
1
1
1
1
1
1
1
1
1
1
0.999951
0.99976
1
1
1
1
1
1
1
1
1
1
1
1
1
1
1
1
1
1
1
1
1
1
1
1
1
1
1
1
1
1
1
1
1
1
1
1
1
1
1
1
1
1
1
1
1
1
1
1
1
1
1
1
1
1
1
1
1
1
1
1
1
1
1
0.999862
0.997373
0.995531
0.994718
0.995711
0.998532
1
1
1
1
1
1
1
1
1
1
0.973537
0.908519
0.828575
0.745196
0.66004
0.579726
0.519478
0.478423
0.456421
0.448646
0.454512
0.472351
0.469731
1
1
1
1
0.998459
0.998005
0.954935
0.850274
0.689633
0.48662
0.303039
0.176335
0.0903793
0.0350457
0.00903632
0.0042127
0.00215588
0.00120372
0.000758331
0.0005858
0.000552714
0.000561703
0.000375881
0.650564
0.718477
0.748261
0.720195
0.618469
0.437225
0.260843
0.120406
0.0331217
0.00174927
3.8009e-08
1.78832e-08
2.26616e-08
1.6504e-14
4.8242e-17
1.6504e-14
1.59449e-16
3.18046e-14
4.75902e-22
4.0836e-14
-5.09878e-14
8.50309e-11
1.06823e-05
0.877558
0.877558
0.877558
0.877558
0.877558
0.877558
0.8683
0.69044
0.6354
0.635955
0.638858
0.626582
0.597959
0.596229
0.673808
0.751347
0.751345
0.751342
0.751343
0.559241
0.570443
0.58132
0.561136
0.561064
0.66241
0.682634
0.780153
0.83014
0.8318
0.831747
0.821992
0.745618
0.748317
0.751344
0.751349
0.751358
0.751347
0.751342
0.160076
0.134342
0.122673
0.122585
0.184071
0.146643
0.167457
0.236168
0.331819
0.488435
0.626525
0.68286
0.694288
0.70102
0.73828
0.746642
0.751408
0.751368
0.75135
0.177246
0.177424
0.124675
0.135677
0.0901715
0.0562207
0.0297285
0.00736788
0.00167244
0.00197264
0.0262343
0.180289
0.287585
0.266123
0.306237
0.394851
0.475201
0.605399
0.52991
0.152886
0.158896
0.149495
0.147255
0.10308
0.0634022
0.0606153
0.0592917
0.030876
0.00209466
0.000577699
9.54054e-05
0.11944
0.21867
0.211961
0.20397
0.258313
0.248048
0.488175
0.0858767
0.0852673
0.0913476
0.0623822
0.107878
0.107282
0.0909543
0.0909081
0.0548039
0.00154103
0.000546697
4.82185e-06
4.07657e-08
0.0494674
0.106435
0.12467
0.160565
0.227744
0.16733
0.0205742
0.0108739
0.0181582
0.0279887
0.0752806
0.102879
0.0964926
0.0156808
0.00202896
9.75417e-05
6.65551e-05
1.01522e-05
4.23313e-08
4.0729e-08
0.000293689
0.00099889
0.00278902
0.0437462
0.13957
0.00996588
0.00259759
0.00981773
0.0165477
0.0441802
0.0657338
0.0118051
5.98077e-06
5.96256e-06
9.13569e-05
9.23102e-05
0.000101666
5.04861e-05
4.06294e-06
-2.69532e-09
-1.03617e-09
-2.307e-09
-3.78454e-08
0.0209675
0.0363683
0.0504965
0.0469442
0.0260177
0.00549416
2.05638e-08
7.54171e-08
7.64797e-08
7.8324e-09
4.84691e-16
1.71068e-10
4.06528e-15
1.69435e-10
7.07565e-10
6.65964e-10
1.00782e-09
4.61986e-09
3.79058e-09
8.54465e-10
2.17208e-10
2.64108e-11
2.74155e-10
3.03178e-10
2.99837e-10
3.13633e-10
2.99837e-10
3.13692e-10
2.99837e-10
3.08462e-10
3.06193e-10
7.50231e-10
1.44691e-09
1.37903e-09
9.54046e-10
6.57469e-10
4.25362e-10
1.13075e-09
1.23747e-09
1.85449e-09
7.08255e-09
6.86383e-09
1.55695e-09
9.38859e-10
5.07127e-10
1.39313e-11
0.000175508
3.13633e-10
3.53434e-10
5.82123e-10
8.30524e-10
1.04916e-09
1.40184e-09
1.50486e-09
1.51481e-09
1.44896e-09
1.24767e-09
9.79275e-10
7.29621e-10
5.1769e-10
4.33572e-10
4.31696e-10
5.43391e-10
8.74821e-10
1.19109e-09
1.61702e-09
1.65972e-09
7.77645e-10
9.69624e-12
0.000249321
3.82931e-10
4.21348e-10
5.43517e-10
7.15821e-10
8.03134e-10
9.28747e-10
9.43338e-10
9.25325e-10
8.47476e-10
7.96732e-10
7.83485e-10
7.98828e-10
8.8618e-10
9.89452e-10
1.19859e-09
1.56868e-09
1.9308e-09
2.69878e-09
5.48907e-09
5.83336e-09
2.8789e-09
1.59885e-06
1.7372e-05
3.63135e-10
3.84326e-10
4.53252e-10
5.13063e-10
5.56572e-10
5.93273e-10
6.32344e-10
6.87924e-10
7.72414e-10
8.95093e-10
1.09181e-09
1.38058e-09
1.62775e-09
1.79323e-09
1.94362e-09
2.04986e-09
2.03878e-09
2.23189e-09
6.65562e-09
1.31992e-08
1.54265e-08
4.74296e-08
2.7441e-08
4.3174e-10
4.70271e-10
5.09214e-10
5.35159e-10
5.66089e-10
6.17749e-10
6.91075e-10
7.94166e-10
9.74314e-10
1.13952e-09
1.28337e-09
1.42022e-09
1.51993e-09
1.61382e-09
1.76338e-09
1.81001e-09
1.5176e-09
1.50877e-09
5.19652e-09
8.47034e-09
8.50656e-09
2.37549e-08
3.47966e-06
4.62588e-10
4.81511e-10
4.88826e-10
4.75642e-10
4.38429e-10
4.19315e-10
4.74771e-10
5.8888e-10
7.45717e-10
8.85184e-10
9.79659e-10
1.0137e-09
1.01183e-09
1.00483e-09
1.08812e-09
1.1436e-09
1.10697e-09
1.10486e-09
1.45211e-09
4.02722e-09
1.44788e-08
1.92209e-07
3.39885e-07
3.23972e-10
3.53784e-10
4.27351e-10
4.49304e-10
4.16725e-10
3.08428e-10
2.32477e-10
2.31488e-10
2.86717e-10
3.59019e-10
4.26811e-10
4.28312e-10
4.07692e-10
4.16358e-10
5.0349e-10
8.35738e-10
1.1337e-09
1.96795e-09
3.74916e-09
6.86584e-09
1.27719e-08
1.61415e-08
1.8445e-08
1.60992e-10
2.24657e-10
3.62941e-10
4.10068e-10
4.02527e-10
3.17996e-10
2.14186e-10
1.55306e-10
1.22395e-10
1.0425e-10
9.66346e-11
9.2402e-11
8.55478e-11
8.15113e-11
1.58042e-10
4.13864e-10
6.27044e-10
8.58114e-10
1.15909e-09
1.65595e-09
2.53322e-09
3.11445e-09
2.87092e-09
1.06011e-10
2.255e-10
3.92136e-10
4.14173e-10
3.60091e-10
3.13039e-10
2.30393e-10
1.69245e-10
1.2058e-10
8.45761e-11
5.23292e-11
2.82867e-11
1.80163e-11
1.5893e-11
2.31362e-11
1.00651e-10
1.67102e-10
1.66824e-10
1.46015e-10
1.9497e-10
5.64466e-10
8.04791e-10
8.5094e-10
1.0497e-10
2.95087e-10
4.19796e-10
4.14642e-10
3.5614e-10
3.2179e-10
2.62787e-10
2.0279e-10
1.5154e-10
1.01998e-10
6.08517e-11
2.91745e-11
1.45485e-11
1.08655e-11
1.12971e-11
2.0788e-11
3.34963e-11
3.75586e-11
3.66501e-11
3.7064e-11
5.15443e-11
6.93011e-11
8.47876e-11
1.09834e-10
3.25705e-10
4.19751e-10
4.14906e-10
3.72789e-10
3.31569e-10
2.83003e-10
2.30561e-10
1.84984e-10
1.28477e-10
7.25876e-11
3.50326e-11
1.8605e-11
1.13571e-11
8.9781e-12
9.00975e-12
1.15926e-11
1.41078e-11
1.68833e-11
1.95209e-11
1.9911e-11
1.87954e-11
1.57938e-11
1.11725e-10
3.18583e-10
3.84638e-10
3.89433e-10
3.58657e-10
3.12491e-10
2.73538e-10
2.37621e-10
1.9822e-10
1.50316e-10
1.01093e-10
5.39626e-11
2.45834e-11
1.35021e-11
9.37804e-12
7.02752e-12
5.6577e-12
5.43596e-12
6.76813e-12
8.92255e-12
1.00333e-11
1.01761e-11
1.00706e-11
1.08414e-10
2.79531e-10
3.24855e-10
3.20028e-10
2.89757e-10
2.67035e-10
2.43412e-10
2.21534e-10
1.91073e-10
1.51576e-10
1.07435e-10
7.19427e-11
3.54246e-11
1.79075e-11
1.14787e-11
8.06229e-12
5.65323e-12
3.99531e-12
3.24393e-12
3.31888e-12
3.33229e-12
3.26595e-12
2.98086e-12
9.70527e-11
2.35822e-10
2.69337e-10
2.58487e-10
2.10391e-10
1.87438e-10
1.82384e-10
1.7444e-10
1.6228e-10
1.38349e-10
1.02653e-10
6.9764e-11
4.02184e-11
2.16943e-11
1.44207e-11
9.71793e-12
6.44674e-12
4.32919e-12
2.88553e-12
1.94141e-12
1.39042e-12
1.04605e-12
8.36151e-13
8.09596e-11
1.78274e-10
2.05548e-10
1.98485e-10
1.70012e-10
1.47569e-10
1.36989e-10
1.27886e-10
1.1371e-10
1.02006e-10
8.13774e-11
5.56113e-11
3.65457e-11
2.28625e-11
1.56655e-11
1.06594e-11
7.09682e-12
4.57577e-12
3.06532e-12
1.97484e-12
1.35421e-12
9.31199e-13
6.70219e-13
5.99547e-11
1.24451e-10
1.45102e-10
1.39702e-10
1.24583e-10
1.09266e-10
9.84665e-11
9.0347e-11
8.64456e-11
6.84545e-11
5.88005e-11
3.97957e-11
2.88964e-11
2.06428e-11
1.50234e-11
1.01031e-11
6.70749e-12
4.40506e-12
2.99534e-12
1.83403e-12
1.31817e-12
8.97697e-13
6.10913e-13
4.09391e-11
8.18184e-11
9.5165e-11
9.2928e-11
8.44983e-11
7.50439e-11
6.65363e-11
5.54898e-11
4.68152e-11
4.22702e-11
3.55433e-11
2.86361e-11
2.23624e-11
1.59263e-11
1.1699e-11
8.15809e-12
5.38687e-12
3.61687e-12
2.48247e-12
1.57964e-12
1.17346e-12
7.97702e-13
5.33502e-13
2.91577e-11
5.58896e-11
6.42623e-11
6.38013e-11
5.92138e-11
4.98698e-11
4.06536e-11
3.03295e-11
2.30733e-11
2.19426e-11
1.86249e-11
1.71326e-11
1.3833e-11
1.01382e-11
7.5547e-12
5.77154e-12
4.03678e-12
2.63512e-12
1.82699e-12
1.27326e-12
9.10632e-13
6.36147e-13
4.37215e-13
1.97458e-11
3.77117e-11
4.2436e-11
4.1159e-11
3.65317e-11
3.22421e-11
2.71878e-11
1.95651e-11
1.4092e-11
1.15456e-11
9.82456e-12
9.43036e-12
7.6203e-12
5.57207e-12
4.69842e-12
3.66646e-12
2.63182e-12
1.84123e-12
1.33849e-12
9.47031e-13
7.0506e-13
4.8927e-13
3.36961e-13
1.47121e-11
2.68299e-11
2.97425e-11
2.94056e-11
2.56151e-11
2.21292e-11
1.77603e-11
1.28958e-11
8.95087e-12
7.10855e-12
5.66511e-12
4.86984e-12
3.91576e-12
3.32479e-12
2.69701e-12
2.15603e-12
1.62951e-12
1.24933e-12
9.68879e-13
7.0085e-13
5.26634e-13
3.73155e-13
2.58087e-13
9.54658e-12
1.78223e-11
1.98642e-11
1.90602e-11
1.7399e-11
1.50715e-11
1.24459e-11
9.25031e-12
6.34858e-12
4.48561e-12
3.36203e-12
2.78911e-12
2.22418e-12
1.89512e-12
1.55139e-12
1.25912e-12
1.01309e-12
8.33315e-13
6.63787e-13
4.85707e-13
3.65188e-13
2.67864e-13
1.93346e-13
6.74428e-12
1.20734e-11
1.27616e-11
1.22355e-11
1.14736e-11
1.02258e-11
8.54752e-12
6.62821e-12
4.67821e-12
3.1221e-12
2.16007e-12
1.63163e-12
1.25296e-12
1.05564e-12
8.8204e-13
7.32626e-13
6.15853e-13
5.23008e-13
4.22937e-13
3.10973e-13
2.35782e-13
1.77769e-13
1.33426e-13
4.30174e-12
7.38649e-12
7.99605e-12
7.49069e-12
6.9536e-12
6.20021e-12
5.41226e-12
4.42887e-12
3.33033e-12
2.27244e-12
1.48145e-12
9.81556e-13
7.1298e-13
5.65093e-13
4.71922e-13
3.91048e-13
3.42963e-13
2.97007e-13
2.44204e-13
1.80631e-13
1.38896e-13
1.07175e-13
8.26956e-14
2.57063e-12
4.52627e-12
4.62141e-12
4.21585e-12
3.70558e-12
3.41762e-12
3.01963e-12
2.63867e-12
2.17514e-12
1.57948e-12
1.0052e-12
6.31958e-13
4.07869e-13
2.8993e-13
2.36649e-13
1.96597e-13
1.70028e-13
1.4854e-13
1.24057e-13
9.38622e-14
7.35639e-14
5.75876e-14
4.49104e-14
1.54991e-12
2.57196e-12
2.51443e-12
2.18535e-12
1.87293e-12
1.71025e-12
1.51822e-12
1.38593e-12
1.2368e-12
9.88879e-13
6.68243e-13
4.15681e-13
2.43012e-13
1.52418e-13
1.11236e-13
8.93995e-14
7.47697e-14
6.48534e-14
5.48471e-14
4.26641e-14
3.38473e-14
2.68355e-14
2.10461e-14
8.08307e-13
1.35802e-12
1.26954e-12
1.04275e-12
8.60252e-13
7.75255e-13
6.86919e-13
6.32482e-13
6.03191e-13
5.30532e-13
3.80725e-13
2.48193e-13
1.47242e-13
8.41768e-14
5.26103e-14
3.83336e-14
2.99959e-14
2.52724e-14
2.10141e-14
1.6689e-14
1.34607e-14
1.05413e-14
8.33302e-15
4.48467e-13
6.71959e-13
5.87947e-13
4.53914e-13
3.55634e-13
3.15405e-13
2.82693e-13
2.55702e-13
2.5104e-13
2.42754e-13
1.88023e-13
1.30383e-13
8.0824e-14
4.61669e-14
2.59564e-14
1.6103e-14
1.14321e-14
9.18365e-15
7.36535e-15
5.80952e-15
4.64222e-15
3.61658e-15
2.79536e-15
2.16719e-13
2.93078e-13
2.47576e-13
1.79607e-13
1.32923e-13
1.16403e-13
9.99247e-14
9.21083e-14
9.06089e-14
9.3269e-14
7.80488e-14
5.73943e-14
3.70785e-14
2.21211e-14
1.28217e-14
6.60743e-15
4.09544e-15
2.91276e-15
2.22726e-15
1.82882e-15
1.39929e-15
1.00377e-15
7.97073e-16
9.22823e-14
1.17909e-13
9.53927e-14
6.52516e-14
4.5669e-14
3.70659e-14
3.25136e-14
3.00214e-14
2.91315e-14
3.08805e-14
2.76482e-14
2.12847e-14
1.44826e-14
9.03022e-15
4.91751e-15
2.57629e-15
1.36572e-15
9.04342e-16
6.63263e-16
5.01642e-16
3.7021e-16
2.65568e-16
1.94177e-16
3.52733e-14
4.16254e-14
3.13231e-14
2.02556e-14
1.34588e-14
1.08674e-14
9.73017e-15
8.87875e-15
8.48329e-15
9.06132e-15
8.55215e-15
6.81797e-15
4.86839e-15
2.94626e-15
1.73742e-15
9.34975e-16
4.30433e-16
2.50184e-16
1.7441e-16
1.22443e-16
8.81872e-17
5.78215e-17
4.15523e-17
1.19264e-14
1.30507e-14
9.18337e-15
5.69342e-15
3.63892e-15
2.92844e-15
2.60468e-15
2.38902e-15
2.26304e-15
2.40439e-15
2.35573e-15
1.92303e-15
1.36817e-15
8.75646e-16
5.21234e-16
2.63817e-16
1.22888e-16
6.4804e-17
4.04488e-17
2.69089e-17
1.77134e-17
1.14851e-17
7.74947e-18
3.20591e-15
3.62781e-15
2.43511e-15
1.45651e-15
9.02288e-16
7.0372e-16
6.22297e-16
5.49908e-16
5.16612e-16
5.43317e-16
5.4484e-16
4.60104e-16
2.99262e-16
2.04704e-16
1.20771e-16
6.34841e-17
2.76595e-17
1.40341e-17
7.8699e-18
4.94556e-18
3.24432e-18
1.91181e-18
1.20073e-18
8.46578e-16
9.02824e-16
5.48589e-16
3.12447e-16
1.86286e-16
1.39697e-16
1.23939e-16
1.157e-16
1.11578e-16
1.1722e-16
1.20336e-16
8.75871e-17
6.70273e-17
4.4192e-17
2.53448e-17
1.27833e-17
5.38357e-18
2.45895e-18
1.39264e-18
8.08849e-19
4.60098e-19
2.67615e-19
1.58982e-19
1.57146e-16
1.41704e-16
8.33996e-17
4.73161e-17
3.14027e-17
2.51513e-17
2.28377e-17
2.21669e-17
2.10667e-17
2.2218e-17
2.04042e-17
1.74992e-17
1.28435e-17
8.04202e-18
4.48163e-18
2.0235e-18
8.24712e-19
3.81106e-19
2.09413e-19
1.12309e-19
6.43228e-20
3.38055e-20
1.75881e-20
2.61852e-17
2.1541e-17
1.33744e-17
7.71467e-18
4.53712e-18
3.49337e-18
3.33573e-18
3.76333e-18
3.33761e-18
3.55002e-18
3.67318e-18
3.0378e-18
2.0788e-18
1.25191e-18
6.71094e-19
2.9363e-19
1.16679e-19
5.38166e-20
2.79594e-20
1.40161e-20
7.31135e-21
3.49685e-21
1.61891e-21
4.04088e-18
3.08533e-18
1.90962e-18
1.108e-18
6.58833e-19
5.05649e-19
5.00862e-19
5.01253e-19
5.40544e-19
5.91397e-19
5.78954e-19
4.48696e-19
2.96085e-19
1.7319e-19
8.87462e-20
3.69388e-20
1.46519e-20
6.52498e-21
3.25681e-21
1.55783e-21
7.24847e-22
2.9437e-22
1.2198e-22
4.66735e-19
3.33616e-19
2.05262e-19
1.24813e-19
8.00126e-20
6.43504e-20
6.55371e-20
6.88462e-20
7.71566e-20
8.50537e-20
7.89524e-20
5.90316e-20
3.82405e-20
2.21373e-20
1.05105e-20
4.13922e-21
1.64385e-21
7.52234e-22
3.47258e-22
1.48312e-22
5.82531e-23
2.12947e-23
7.60401e-24
3.55763e-20
2.57377e-20
1.69315e-20
1.15472e-20
8.04957e-21
6.91094e-21
7.35333e-21
8.46293e-21
9.55765e-21
1.08227e-20
9.76063e-21
7.13186e-21
4.55188e-21
2.18538e-21
1.12964e-21
4.28026e-22
1.74594e-22
7.00439e-23
3.14811e-23
1.27899e-23
4.36954e-24
1.28441e-24
1.7841e-25
1.52624e-21
1.33523e-21
1.12532e-21
9.41031e-22
7.16092e-22
6.59083e-22
7.39868e-22
9.09031e-22
1.07823e-21
1.27319e-21
1.1204e-21
8.05116e-22
5.02099e-22
2.67392e-22
1.11882e-22
4.18517e-23
1.73533e-23
7.00967e-24
2.72815e-24
8.59766e-25
2.58582e-25
4.02047e-26
3.60347e-27
1.91334e-23
3.15864e-23
4.5207e-23
5.11161e-23
5.85787e-23
5.8305e-23
6.82129e-23
8.84587e-23
1.12527e-22
1.3856e-22
1.18756e-22
8.32098e-23
5.03527e-23
2.55446e-23
9.86434e-24
3.62391e-24
1.5075e-24
6.04714e-25
2.17288e-25
6.42397e-26
1.37923e-26
9.22522e-28
1.73507e-28
1.06576e-27
2.85533e-25
2.20118e-24
3.62748e-24
3.72735e-24
3.89092e-24
5.76156e-24
7.86374e-24
1.08672e-23
1.38534e-23
1.15616e-23
7.79256e-24
4.54859e-24
2.20602e-24
8.06504e-25
3.01268e-25
1.29254e-25
5.15875e-26
1.81534e-26
4.90658e-27
5.17195e-28
2.82848e-29
6.78983e-29
0.0301451
0.0548975
0.0548971
0.0537328
0.00819264
0.013652
0.013505
0.00894764
0.00123124
0.000428891
0.000617081
0.000827073
1.05715e-05
0.000138611
0.000799435
0.000821962
6.60174e-05
0.000137532
0.000141073
7.11545e-05
9.48878e-06
8.09918e-06
3.84714e-10
5.05305e-08
7.82645e-08
3.79901e-10
3.96064e-10
3.59569e-10
4.0176e-09
1.32247e-09
9.43458e-10
4.30639e-10
1.89584e-09
1.74004e-09
1.65563e-09
2.40124e-09
1.17694e-09
2.04757e-09
2.23415e-09
2.2273e-09
1.72957e-10
4.78018e-10
1.48606e-09
3.07147e-09
1.44513e-11
1.68966e-11
4.71082e-11
8.56357e-11
9.55406e-12
7.48191e-12
5.96288e-12
5.36672e-12
3.04282e-12
3.48033e-12
3.59947e-12
3.60943e-12
7.67695e-13
8.37052e-13
1.3614e-12
1.8394e-12
5.6747e-13
5.12969e-13
5.21132e-13
7.17805e-13
5.07967e-13
4.25744e-13
3.77307e-13
3.59553e-13
4.42516e-13
3.73897e-13
3.04934e-13
2.66563e-13
3.64311e-13
2.98097e-13
2.54329e-13
2.17883e-13
2.8642e-13
2.4904e-13
2.03799e-13
1.74552e-13
2.24752e-13
1.87935e-13
1.61646e-13
1.40457e-13
1.63317e-13
1.42282e-13
1.21817e-13
1.04847e-13
1.13831e-13
9.81849e-14
8.62672e-14
7.57319e-14
7.15024e-14
6.38752e-14
5.49429e-14
4.79993e-14
3.97383e-14
3.44753e-14
3.00004e-14
2.61343e-14
1.84735e-14
1.62621e-14
1.36118e-14
1.17292e-14
7.28629e-15
6.20697e-15
5.20389e-15
4.30604e-15
2.4679e-15
2.0852e-15
1.65881e-15
1.35923e-15
6.98691e-16
5.65685e-16
4.53068e-16
3.55135e-16
1.68585e-16
1.38418e-16
1.07234e-16
8.24714e-17
3.51726e-17
2.81632e-17
2.15176e-17
1.59288e-17
6.36836e-18
4.91378e-18
3.6568e-18
2.61886e-18
9.47085e-19
6.94106e-19
4.94161e-19
3.38068e-19
1.16502e-19
8.25092e-20
5.48668e-20
3.53301e-20
1.19646e-20
7.70653e-21
4.87252e-21
3.05182e-21
1.00235e-21
5.91726e-22
3.87285e-22
1.40166e-22
6.81511e-23
2.13267e-23
4.9197e-24
5.70453e-25
8.95981e-25
7.73623e-26
1.08468e-26
8.37786e-27
3.93471e-28
9.21893e-28
2.31399e-27
6.39475e-27
3.69645e-28
8.79707e-28
2.63737e-27
8.40665e-27
2.67389e-28
8.16782e-28
2.9936e-27
9.42972e-27
2.06459e-28
7.25206e-28
2.37837e-27
6.6894e-27
0.0156918
0.000155571
0.000567896
0.0232622
0.0390602
0.00928439
6.08556e-05
8.83615e-05
6.10311e-06
6.75075e-05
0.000106159
0.000106167
8.76582e-05
3.99301e-05
1.40147e-05
1.18298e-05
1.24315e-05
4.97969e-06
6.43321e-09
0.00297978
0.000164699
0.00455868
0.00709287
0.000971432
0.000152676
0.000240584
0.000293026
5.35751e-06
3.07099e-07
1.75206e-06
6.46199e-06
1.09423e-05
1.22736e-05
1.69809e-05
6.96986e-05
1.6457e-05
6.53805e-09
1.2312e-06
0.000913007
0.000733728
0.000204221
7.85507e-07
5.44574e-05
0.000269004
0.000268926
0.000158647
4.79024e-06
4.65235e-06
3.50312e-07
1.70654e-06
2.88199e-06
1.29147e-05
0.000137363
0.000180092
0.000188596
0.00170175
0.00354095
0.000526014
1.70402e-07
1.27318e-07
9.70606e-07
3.41814e-06
3.34241e-06
7.90631e-06
1.28898e-06
1.815e-05
5.60382e-06
3.55591e-06
9.31882e-06
1.7519e-05
5.50866e-05
0.000105453
6.86468e-05
0.000366979
0.00538321
0.00796531
2.16516e-05
2.57752e-07
3.58346e-06
5.74916e-06
3.93166e-06
1.20639e-06
1.9305e-07
5.01311e-07
8.20577e-07
1.3913e-09
1.46413e-11
1.54787e-09
1.57885e-09
2.67026e-06
2.16803e-05
5.48879e-05
0.000106915
0.00317411
0.00752572
1.3685e-07
7.22404e-09
5.21905e-08
9.68674e-08
6.27095e-08
4.16529e-08
3.87676e-10
4.01514e-11
2.10847e-09
5.20766e-08
4.25958e-08
4.25208e-08
1.44167e-07
3.34561e-07
3.05193e-07
5.96949e-08
4.19907e-05
0.000525993
0.00051043
4.28384e-10
5.03378e-08
1.60046e-07
1.85972e-07
1.74418e-07
6.53246e-08
-2.03869e-16
5.91148e-11
1.73994e-17
-3.44546e-10
7.94093e-25
6.23528e-10
1.41562e-05
0.000347811
0.000855022
0.000997604
0.00087418
0.000577751
0.000533745
3.61824e-10
7.97994e-08
1.73627e-07
1.69846e-07
5.31218e-09
-3.53795e-12
5.70167e-27
7.97088e-09
6.13555e-07
1.98676e-06
7.74983e-07
8.92053e-10
0.000408475
0.00257475
0.00278752
0.00275738
0.00272491
0.00188483
0.00153349
8.4504e-09
1.45149e-08
1.49328e-08
1.42571e-08
1.61724e-08
1.15652e-07
3.42973e-07
4.53587e-07
1.21413e-05
5.74876e-05
6.06373e-05
7.13829e-05
0.00070163
0.00174724
0.00190255
0.00122208
0.000534055
0.000280643
2.94675e-05
2.23423e-09
4.67556e-09
1.97165e-08
1.23592e-07
3.35989e-07
1.54756e-06
6.0682e-06
1.61677e-05
3.40892e-05
6.85278e-05
0.000134387
0.000127132
6.14812e-05
2.98212e-16
1.58194e-11
2.26154e-16
8.49387e-11
9.78362e-15
8.49375e-11
5.09878e-09
8.84685e-09
1.08572e-08
4.57471e-08
1.23067e-07
1.53468e-07
2.78552e-07
1.88675e-06
6.68944e-06
6.91782e-06
1.67574e-21
1.30146e-09
1.01015e-09
3.11917e-09
4.94346e-09
7.1591e-09
3.53187e-08
4.06757e-08
2.14545e-09
1.36247e-10
1.66695e-10
3.97666e-11
2.98124e-11
7.38176e-13
1.19522e-09
2.04722e-13
4.46413e-15
2.39562e-17
5.46507e-21
2.6775e-12
1.78261e-08
6.59127e-08
7.43001e-08
2.91249e-08
1.08305e-08
3.4239e-08
2.73443e-08
1.10734e-09
3.82721e-12
3.27084e-12
3.03418e-12
1.27001e-12
7.28683e-13
7.38177e-13
1.81733e-11
2.09073e-10
5.82986e-10
6.85181e-10
1.72157e-09
6.34252e-08
1.02784e-07
1.03162e-07
2.97449e-08
2.48243e-09
5.38902e-09
2.28541e-09
4.65068e-10
2.93454e-12
1.52335e-12
1.00004e-12
1.08691e-12
2.87827e-12
8.29718e-12
3.71353e-11
4.1346e-10
1.68786e-09
3.15429e-09
6.52764e-09
3.84118e-08
7.19794e-08
3.34915e-08
7.32563e-09
8.77907e-10
1.04354e-10
7.19087e-11
1.21276e-10
1.92842e-12
1.39697e-12
9.14189e-13
1.00835e-12
2.2562e-12
1.09614e-11
8.06147e-11
5.03579e-10
1.71385e-09
3.81381e-09
6.63205e-09
9.4983e-09
8.7996e-09
8.30838e-10
9.11838e-10
6.9279e-10
1.10621e-10
6.20512e-11
1.07066e-10
9.8911e-13
1.02716e-12
1.12833e-12
2.28737e-12
8.46228e-12
4.39834e-11
1.66144e-10
3.73877e-10
1.01708e-09
2.23244e-09
3.84957e-09
9.49646e-09
3.51125e-09
2.66159e-09
1.4238e-09
4.22805e-10
7.01333e-11
4.2591e-11
6.72778e-11
4.72963e-13
1.07292e-12
2.66605e-12
6.74501e-12
2.5367e-11
8.7081e-11
2.21249e-10
4.21152e-10
7.68329e-10
1.04529e-09
1.80289e-09
4.1561e-09
4.9544e-09
3.72297e-09
1.64476e-09
4.06113e-10
4.69982e-11
1.95029e-11
2.61693e-11
3.36067e-13
1.90569e-12
7.68332e-12
1.90274e-11
4.5693e-11
1.03114e-10
2.00112e-10
4.0153e-10
6.08573e-10
8.6391e-10
1.20731e-09
1.12225e-09
1.60362e-09
1.35018e-09
6.23039e-10
1.64568e-10
1.60656e-11
7.72123e-12
8.42134e-12
2.7705e-13
1.91543e-12
8.99251e-12
2.44381e-11
5.52327e-11
8.6039e-11
1.47235e-10
2.99936e-10
4.59139e-10
6.23831e-10
6.89347e-10
5.18803e-10
2.82911e-10
1.34861e-10
5.43222e-11
1.14609e-11
2.75897e-12
3.06582e-12
3.88779e-12
2.08196e-13
1.21453e-12
5.89839e-12
1.70736e-11
3.67074e-11
6.8113e-11
1.12455e-10
1.69405e-10
2.44239e-10
3.02942e-10
3.15233e-10
2.62214e-10
1.6367e-10
8.85199e-11
2.11245e-11
1.91427e-12
1.15791e-12
1.62858e-12
1.16782e-12
1.50968e-13
6.10214e-13
2.83977e-12
8.34763e-12
1.79811e-11
3.19293e-11
5.04873e-11
7.10529e-11
9.27348e-11
1.07258e-10
1.08566e-10
9.55614e-11
6.71606e-11
4.00066e-11
1.01489e-11
1.04087e-12
5.17629e-13
3.65264e-13
4.18782e-13
1.04349e-13
2.63477e-13
9.37973e-13
2.70285e-12
5.80562e-12
9.85502e-12
1.51142e-11
2.11142e-11
2.61869e-11
2.94287e-11
2.76992e-11
2.2715e-11
1.43415e-11
4.98315e-12
6.60039e-13
1.59768e-13
1.74262e-13
8.00744e-14
3.26792e-14
6.91517e-14
1.10058e-13
2.64248e-13
6.00092e-13
1.28671e-12
2.50258e-12
3.82345e-12
4.99619e-12
6.15121e-12
6.59817e-12
6.34129e-12
5.51542e-12
3.44076e-12
1.05709e-12
1.21384e-13
6.62623e-14
2.3797e-14
8.1592e-15
4.15418e-15
4.04442e-14
4.52139e-14
6.87817e-14
1.12183e-13
1.92049e-13
3.46395e-13
5.91278e-13
8.45026e-13
9.69195e-13
1.05398e-12
1.02904e-12
8.81125e-13
5.44305e-13
1.60456e-13
2.65753e-14
7.23446e-15
2.79676e-15
1.05906e-15
2.7151e-16
2.04059e-14
1.87594e-14
1.86268e-14
2.07062e-14
2.77214e-14
4.39412e-14
7.52132e-14
1.06733e-13
1.25627e-13
1.38282e-13
1.37442e-13
1.23084e-13
8.05705e-14
2.49214e-14
5.49734e-15
1.00808e-15
3.51956e-16
1.34262e-16
6.68675e-17
8.79583e-15
7.09159e-15
5.71219e-15
4.81018e-15
4.61218e-15
5.16648e-15
7.10934e-15
8.93034e-15
1.09834e-14
1.3216e-14
1.42151e-14
1.35576e-14
9.56075e-15
3.10939e-15
5.34006e-16
1.20322e-16
5.46995e-17
6.18092e-17
3.58766e-17
3.12077e-15
2.38752e-15
1.75911e-15
1.28185e-15
9.2747e-16
7.10171e-16
6.26867e-16
6.69614e-16
8.06399e-16
9.78824e-16
1.19516e-15
1.2071e-15
9.05647e-16
3.3744e-16
4.42605e-17
1.78129e-17
2.63618e-17
4.07691e-17
2.29664e-17
9.30109e-16
6.75058e-16
4.68204e-16
3.25763e-16
2.18846e-16
1.29378e-16
7.78385e-17
5.95303e-17
6.02222e-17
7.12408e-17
8.78096e-17
9.23587e-17
7.30276e-17
2.79803e-17
7.687e-18
7.63628e-18
1.3983e-17
2.7316e-17
1.59442e-17
2.31463e-16
1.55926e-16
1.01367e-16
6.26988e-17
4.12918e-17
2.01238e-17
1.23845e-17
8.59784e-18
5.7209e-18
5.25416e-18
5.54487e-18
4.56157e-18
2.82641e-18
1.48219e-18
2.14381e-18
3.44878e-18
7.28967e-18
1.47556e-17
1.19748e-17
5.02242e-17
2.94356e-17
1.789e-17
1.13318e-17
4.48942e-18
1.75304e-18
1.20438e-18
9.77356e-19
6.95698e-19
4.18562e-19
3.0157e-19
2.16666e-19
1.65169e-19
2.68073e-19
6.81087e-19
1.61865e-18
3.90332e-18
1.01769e-17
7.57547e-18
8.81399e-18
4.70895e-18
2.8891e-18
1.12662e-18
2.7706e-19
7.09448e-20
6.12628e-20
6.01149e-20
5.44694e-20
4.03615e-20
3.09207e-20
4.76014e-20
9.08384e-20
1.8534e-19
4.0305e-19
9.5296e-19
2.44571e-18
6.30024e-18
5.32134e-18
1.30072e-18
6.73425e-19
3.11224e-19
6.74197e-20
7.27193e-21
1.73574e-21
2.32032e-21
3.64208e-21
5.88196e-21
1.04294e-20
2.1546e-20
4.45111e-20
8.98722e-20
1.74034e-19
3.3248e-19
7.37516e-19
1.82824e-18
4.38366e-18
2.84365e-18
1.58268e-19
7.69344e-20
1.81578e-20
1.50597e-21
1.92751e-22
2.8815e-22
6.70379e-22
1.70695e-21
4.14471e-21
9.67156e-21
2.1681e-20
4.587e-20
9.02041e-20
1.67309e-19
2.88815e-19
6.48222e-19
1.48289e-18
2.29248e-18
1.84891e-18
1.79153e-20
4.02121e-21
3.56883e-22
4.95952e-23
8.32982e-23
2.21113e-22
6.05711e-22
1.59622e-21
4.02921e-21
9.60268e-21
2.21035e-20
4.64389e-20
8.9139e-20
1.54602e-19
2.67085e-19
5.49339e-19
1.00824e-18
1.55062e-18
8.58553e-19
1.26844e-21
1.18915e-22
1.17402e-23
2.24313e-23
6.77685e-23
2.00315e-22
5.71594e-22
1.53208e-21
3.85411e-21
9.16643e-21
2.07476e-20
4.33879e-20
8.10464e-20
1.41701e-19
2.4693e-19
4.46967e-19
7.24173e-19
7.58522e-19
5.24769e-19
1.96571e-23
2.19378e-24
5.03706e-24
1.81993e-23
6.00895e-23
1.83024e-22
5.24389e-22
1.40515e-21
3.56859e-21
8.57252e-21
1.94022e-20
4.02163e-20
7.49448e-20
1.28713e-19
2.11282e-19
3.29656e-19
4.49247e-19
4.81329e-19
2.10173e-19
2.38483e-25
9.49583e-25
4.14235e-24
1.5667e-23
5.16979e-23
1.58323e-22
4.51583e-22
1.2047e-21
3.04711e-21
7.28966e-21
1.63387e-20
3.3594e-20
6.19434e-20
1.05974e-19
1.6289e-19
2.3932e-19
2.9408e-19
2.12275e-19
1.16435e-19
1.42078e-25
8.13254e-25
3.44265e-24
1.2782e-23
4.17361e-23
1.2502e-22
3.55181e-22
9.35762e-22
2.3507e-21
5.59747e-21
1.2479e-20
2.54711e-20
4.67326e-20
7.74075e-20
1.17721e-19
1.51256e-19
1.47918e-19
1.20409e-19
4.01826e-20
1.27169e-25
6.53607e-25
2.626e-24
9.2679e-24
2.94628e-23
8.71105e-23
2.42675e-22
6.35968e-22
1.58658e-21
3.76159e-21
8.35017e-21
1.68549e-20
3.07982e-20
5.10179e-20
6.93658e-20
9.09104e-20
8.00281e-20
4.29763e-20
2.10479e-20
1.03305e-25
4.57558e-25
1.67733e-24
5.39321e-24
1.66099e-23
4.75063e-23
1.30547e-22
3.4984e-22
8.7347e-22
2.09764e-21
4.71871e-21
9.64501e-21
1.76928e-20
2.92479e-20
3.78093e-20
4.76577e-20
3.26982e-20
1.97609e-20
1.14676e-20
6.43461e-26
2.41567e-25
7.93191e-25
2.40914e-24
7.14127e-24
2.06752e-23
5.80289e-23
1.5694e-22
4.02047e-22
9.90733e-22
2.26443e-21
4.62843e-21
8.46452e-21
1.41591e-20
1.86927e-20
2.18331e-20
1.25274e-20
8.87217e-21
5.3037e-21
2.25742e-26
6.91665e-26
2.0252e-25
5.59187e-25
1.74763e-24
5.48681e-24
1.6244e-23
4.45944e-23
1.18767e-22
2.97194e-22
6.86108e-22
1.44211e-21
2.67286e-21
4.34942e-21
5.71046e-21
6.38003e-21
3.75477e-21
2.5175e-21
9.81611e-22
)
;

boundaryField
{
    leftWall
    {
        type            alphaContactAngle;
        contactAngleProperties 
        {
            air             
            {
                theta0          90;
            }
            water           
            {
                theta0          90;
            }
            oil             
            {
                theta0          90;
            }
        }
        value           nonuniform List<scalar> 
50
(
1
1
1
1
1
1
1
0.650564
0.0363683
2.99837e-10
3.13633e-10
3.82931e-10
3.63135e-10
4.3174e-10
4.62588e-10
3.23972e-10
1.60992e-10
1.06011e-10
1.0497e-10
1.09834e-10
1.11725e-10
1.08414e-10
9.70527e-11
8.09596e-11
5.99547e-11
4.09391e-11
2.91577e-11
1.97458e-11
1.47121e-11
9.54658e-12
6.74428e-12
4.30174e-12
2.57063e-12
1.54991e-12
8.08307e-13
4.48467e-13
2.16719e-13
9.22823e-14
3.52733e-14
1.19264e-14
3.20591e-15
8.46578e-16
1.57146e-16
2.61852e-17
4.04088e-18
4.66735e-19
3.55763e-20
1.52624e-21
1.91334e-23
1.06576e-27
)
;
    }
    rightWall
    {
        type            alphaContactAngle;
        contactAngleProperties 
        {
            air             
            {
                theta0          90;
            }
            water           
            {
                theta0          90;
            }
            oil             
            {
                theta0          90;
            }
        }
        value           nonuniform List<scalar> 
50
(
0.751343
0.751342
0.75135
0.52991
0.488175
0.16733
0.13957
0.0209675
6.43321e-09
1.2312e-06
0.00354095
0.00796531
0.00752572
0.00051043
0.000533745
0.00153349
2.94675e-05
8.49375e-11
2.14545e-09
1.10734e-09
4.65068e-10
1.21276e-10
1.07066e-10
6.72778e-11
2.61693e-11
8.42134e-12
3.88779e-12
1.16782e-12
4.18782e-13
3.26792e-14
4.15418e-15
2.7151e-16
6.68675e-17
3.58766e-17
2.29664e-17
1.59442e-17
1.19748e-17
7.57547e-18
5.32134e-18
2.84365e-18
1.84891e-18
8.58553e-19
5.24769e-19
2.10173e-19
1.16435e-19
4.01826e-20
2.10479e-20
1.14676e-20
5.3037e-21
9.81611e-22
)
;
    }
    lowerWall
    {
        type            alphaContactAngle;
        contactAngleProperties 
        {
            air             
            {
                theta0          90;
            }
            water           
            {
                theta0          90;
            }
            oil             
            {
                theta0          90;
            }
        }
        value           nonuniform List<scalar> 
62
(
1
1
1
1
1
1
1
1
1
1
1
1
1
1
1
1
1
1
1
0.999834
0.999573
0.999433
0.999433
0.999433
0.99976
1
1
0.998532
0.469731
0.000375881
1.06823e-05
0.0301451
0.0548975
0.0548971
0.0537328
0.877558
0.559241
0.160076
0.177246
0.152886
0.0858767
0.0205742
0.00996588
0.877558
0.877558
0.877558
0.877558
0.877558
0.877558
0.8683
0.69044
0.6354
0.635955
0.638858
0.626582
0.597959
0.596229
0.673808
0.751347
0.751345
0.751342
0.751343
)
;
    }
    atmosphere
    {
        type            inletOutlet;
        inletValue      uniform 0;
        value           nonuniform List<scalar> 
46
(
0
0
2.20118e-24
3.62748e-24
3.72735e-24
3.89092e-24
5.76156e-24
7.86374e-24
1.08672e-23
1.38534e-23
1.15616e-23
7.79256e-24
4.5486e-24
2.20602e-24
8.06505e-25
3.01268e-25
1.29254e-25
5.15875e-26
1.81534e-26
4.90658e-27
5.17195e-28
2.82848e-29
6.78983e-29
2.06459e-28
0
0
0
0
0
0
0
0
0
0
0
0
0
0
0
0
0
0
0
0
0
0
)
;
    }
    defaultFaces
    {
        type            empty;
    }
}


// ************************************************************************* //
