/*--------------------------------*- C++ -*----------------------------------*\
  =========                 |
  \\      /  F ield         | OpenFOAM: The Open Source CFD Toolbox
   \\    /   O peration     | Website:  https://openfoam.org
    \\  /    A nd           | Version:  13
     \\/     M anipulation  |
\*---------------------------------------------------------------------------*/
FoamFile
{
    format      ascii;
    class       volScalarField;
    location    "2.15";
    object      alpha.oil;
}
// * * * * * * * * * * * * * * * * * * * * * * * * * * * * * * * * * * * * * //

dimensions      [];

internalField   nonuniform List<scalar> 
2268
(
1.46272e-14
1.28992e-13
7.40706e-13
2.83268e-12
7.88297e-12
1.93222e-11
4.20869e-11
8.34099e-11
1.63104e-10
3.20615e-10
5.81826e-10
1.04989e-09
2.00029e-09
3.74379e-09
6.82355e-09
1.19608e-08
1.82671e-08
1.85039e-08
1.83952e-08
0.00016635
0.000426787
0.000567127
0.000567145
9.29513e-15
1.29476e-13
9.03395e-13
3.32416e-12
9.49287e-12
2.39668e-11
5.60377e-11
1.12936e-10
2.12766e-10
3.9337e-10
7.2572e-10
1.50293e-09
2.70936e-09
4.76707e-09
8.12837e-09
1.5293e-08
3.14502e-08
4.06157e-08
3.63199e-08
8.10879e-09
8.2154e-09
4.91183e-05
0.000239954
7.33748e-15
9.61153e-14
8.59639e-13
3.97873e-12
1.04806e-11
2.46581e-11
5.29939e-11
1.0888e-10
2.13409e-10
4.20734e-10
7.92525e-10
1.41081e-09
2.40628e-09
3.90908e-09
5.91077e-09
7.62468e-09
8.13578e-09
8.99781e-09
8.11965e-09
8.06113e-09
9.1438e-09
7.80686e-09
7.81588e-09
1.78855e-14
2.67384e-14
5.80201e-13
3.5098e-12
9.2927e-12
2.42878e-11
5.98479e-11
1.31635e-10
2.78067e-10
5.57582e-10
1.06099e-09
1.87932e-09
3.19166e-09
5.22061e-09
7.85357e-09
1.16279e-08
7.67064e-09
7.65438e-09
7.67094e-09
7.65888e-09
7.8074e-09
7.80694e-09
7.80686e-09
3.3911e-13
4.03661e-13
6.75035e-13
2.28393e-12
6.84635e-12
1.80142e-11
4.08631e-11
9.814e-11
2.31641e-10
5.16517e-10
1.02139e-09
2.03425e-09
3.57807e-09
5.05211e-09
5.8051e-09
2.57584e-08
2.96948e-07
7.30815e-07
9.33687e-07
2.48518e-07
7.82751e-09
1.25018e-06
3.15042e-06
1.26335e-12
2.59301e-12
3.65128e-12
4.28505e-12
6.57615e-12
1.54269e-11
3.65219e-11
7.39594e-11
1.68917e-10
3.64231e-10
7.72935e-10
1.52144e-09
2.17985e-09
2.30312e-09
2.24744e-09
2.19817e-09
1.1539e-06
3.00198e-06
3.0941e-06
3.06544e-06
8.18262e-06
3.38279e-05
4.88627e-05
9.1614e-12
7.42752e-12
1.05768e-11
1.14053e-11
1.12917e-11
1.36937e-11
2.18274e-11
3.09247e-11
6.21814e-11
1.58187e-10
3.03055e-10
4.39527e-10
6.51249e-10
1.49252e-09
5.27915e-09
5.88519e-08
5.57559e-07
1.32678e-06
2.20617e-06
4.39367e-06
1.9762e-05
4.73503e-05
4.88649e-05
4.76311e-10
1.13329e-10
2.26868e-11
6.81073e-12
5.60112e-12
6.11666e-12
2.11178e-11
3.91715e-11
7.91564e-11
1.5578e-10
2.45328e-10
4.22386e-10
9.11917e-10
2.59012e-09
8.72541e-09
2.31075e-08
1.33913e-09
-2.01308e-25
1.07279e-24
1.58946e-06
1.19382e-05
5.48676e-06
1.70174e-05
0.111532
0.111272
0.0875343
0.0453824
0.0320351
0.0308315
0.0308104
0.217923
0.296207
0.317919
0.316973
0.329229
0.32979
0.301325
0.11065
0.0696978
0.121506
0.21866
0.21945
0.40403
0.386116
0.367588
0.377639
0.320746
0.105077
0.0337747
0.0311137
0.0438546
0.0435335
0.0554592
0.107475
0.191221
0.171558
0.0719224
0.0636897
0.116666
0.218174
0.219568
0.413302
0.367308
0.496454
0.599793
0.616679
0.564824
0.20599
0.0130194
4.0821e-07
-2.51097e-07
-3.70708e-07
8.09668e-12
0.0941417
0.185836
0.100629
0.0631644
0.13276
0.220304
0.223493
0.197682
0.00999316
0.0455202
0.165687
0.574982
0.735867
0.606252
0.1981
0.00204483
0.00090068
1.48073e-05
0.00143797
0.117654
0.192554
0.221826
0.157201
0.238038
0.329143
0.4545
0.00409125
0.0041027
0.00410517
0.00410826
0.520623
0.741751
0.741751
0.494651
0.0249207
-1.83661e-17
1.85892e-15
0.0297979
0.210952
0.209603
0.216383
0.276213
0.237335
0.348374
0.471993
0.0141806
0.0116914
0.00885807
0.0759656
0.613937
0.741464
0.732863
0.19129
0.000875863
-3.22371e-21
-1.14865e-13
0.105878
0.275044
0.287288
0.287849
0.297751
0.298419
0.336686
0.47194
0.0334161
0.0330994
0.0423155
0.208145
0.746102
0.695137
0.192896
-6.618e-21
-2.8083e-25
-7.30555e-14
0.000124349
0.0424011
0.196547
0.285516
0.291661
0.296678
0.256597
0.218523
0.457943
0.0351325
0.0343081
0.0426551
0.260841
0.749785
0.515021
-2.43536e-10
1.94342e-07
1.62569e-07
1.05154e-08
5.01929e-05
4.68635e-05
0.0106103
0.093879
0.145812
0.0913423
0.03651
0.000126028
0.429957
3.07686e-09
2.17208e-09
1.42266e-09
1.05383e-09
9.42244e-10
9.4919e-10
4.91389e-10
3.8379e-10
3.38766e-10
2.84861e-10
2.35201e-10
3.09052e-10
5.63019e-10
9.21851e-10
1.7404e-09
3.58484e-09
4.05718e-10
6.20019e-13
3.92783e-18
2.94565e-09
7.50956e-07
1.15893e-06
1.18629e-06
5.01991e-09
4.83445e-09
4.1785e-09
4.03219e-09
4.22919e-09
4.22466e-09
3.88725e-09
2.5511e-09
1.42398e-09
8.89373e-10
3.62513e-10
2.8764e-10
4.33308e-10
5.05092e-10
5.05288e-10
2.14759e-10
1.9937e-18
-3.78803e-16
-6.44763e-19
6.4403e-20
6.91859e-15
2.71237e-14
0.0979134
3.93051e-09
2.9578e-09
2.88326e-09
2.99989e-09
3.38791e-09
3.59567e-09
3.52893e-09
2.91093e-09
1.983e-09
1.1421e-09
1.36127e-10
1.21565e-11
5.7138e-12
4.39576e-21
1.49104e-21
5.35126e-21
0.0017678
0.0141316
0.0179763
0.0677592
0.384703
0.730979
0.776806
3.6974e-20
-6.30349e-14
-4.37393e-14
2.31941e-19
2.28845e-19
-1.3541e-20
9.38225e-28
-4.09314e-27
3.35625e-28
-4.90763e-12
1.84484e-29
1.57798e-22
1.7542e-20
0.0133045
0.0553471
0.185867
0.358517
0.519063
0.689429
0.80521
0.968651
0.971962
0.82383
0.048614
0.101558
0.233949
0.302111
0.335696
0.371038
0.323357
0.187372
0.0912955
0.121595
0.216499
0.306177
0.420854
0.568164
0.707384
0.843103
0.860675
0.832735
0.949706
0.999333
0.999229
0.971391
0.939009
0.563882
0.712481
0.945112
0.976426
0.97646
0.972152
0.961112
0.84949
0.769818
0.837515
0.881786
0.894136
0.89632
0.903781
0.961011
0.982275
0.972755
0.967451
0.996074
0.999945
0.998807
0.997754
0.999993
0.658656
0.719025
0.806871
0.893968
0.95167
0.985946
0.997087
0.998364
0.999249
0.999816
0.999926
0.999984
0.999967
0.999981
0.999999
0.999999
0.999999
0.999999
0.999999
0.999938
0.999913
0.999999
1
0.0305174
0.0309326
0.0756808
0.163089
0.286937
0.439065
0.604973
0.74726
0.866722
0.969203
0.999996
0.999998
0.999999
0.999999
0.999999
0.999999
0.999999
0.999999
0.999999
0.999998
1
1
1
7.2326e-06
-3.78116e-18
-1.29104e-18
-4.53481e-15
-6.90019e-08
0.000575571
0.0191774
0.071766
0.151919
0.261819
0.428056
0.621764
0.815198
0.971006
0.999998
0.999999
0.999367
0.999356
0.999396
0.998991
0.998009
0.997013
0.996307
1.00857e-06
2.65136e-06
2.97155e-06
4.42346e-05
0.000197148
0.00013554
5.10093e-06
3.17938e-06
3.25546e-06
3.75543e-06
6.77038e-06
0.0104711
0.0507595
0.122057
0.22823
0.358376
0.479841
0.535281
0.539195
0.475899
0.354737
0.318489
0.281047
1.78304e-06
7.51493e-06
1.33948e-05
5.04777e-05
7.53317e-05
9.7214e-05
2.71867e-06
1.84702e-07
4.87058e-07
5.43197e-07
1.23239e-06
1.52972e-06
4.72046e-06
5.27408e-06
4.35219e-06
2.98008e-06
1.00345e-06
3.02563e-08
3.76257e-08
3.74626e-08
-1.27932e-09
2.72509e-09
-8.60988e-10
1.0011e-06
2.37966e-06
2.57054e-06
1.19953e-05
5.21655e-07
7.18344e-07
3.34256e-06
4.85451e-07
1.83118e-07
2.12946e-05
1.86367e-18
2.26072e-16
1.86335e-18
2.26106e-16
5.43752e-07
9.37509e-07
4.46369e-07
2.88306e-08
3.42801e-08
3.96066e-08
4.52196e-08
6.06211e-08
7.23031e-08
4.80502e-07
3.7851e-07
3.0432e-07
1.05969e-06
8.31555e-08
8.08724e-08
3.70555e-07
3.15468e-05
0.000148434
0.00016519
0.000117228
1.97354e-05
2.26107e-16
1.57359e-10
1.53451e-10
-1.53915e-10
1.98242e-08
3.21159e-08
4.27611e-08
4.32698e-08
4.9591e-08
5.76932e-08
5.64602e-08
3.39822e-07
1.9582e-07
1.48285e-07
1.11926e-07
1.3069e-07
1.21864e-07
9.78288e-08
3.29784e-05
0.00016591
0.000165765
0.000164561
0.000113796
4.87063e-07
1.82668e-10
5.19026e-09
7.89662e-09
4.27528e-08
1.01664e-07
1.63846e-07
1.68204e-07
1.71632e-07
1.59813e-07
1.17952e-07
1.98809e-07
1.92128e-07
1.22523e-07
1.18403e-07
1.73829e-07
2.11574e-07
3.65388e-07
8.64613e-06
9.46844e-05
0.00016591
0.000156245
5.52345e-05
6.74063e-10
5.60983e-10
1.13631e-08
6.22292e-09
4.50869e-08
2.87706e-07
2.93431e-07
2.63611e-07
2.52449e-07
2.22288e-07
1.62755e-07
1.02486e-07
1.23911e-07
9.08931e-08
8.43167e-08
1.12434e-07
1.56069e-07
2.52101e-07
8.43311e-07
9.20094e-07
1.77509e-05
1.46099e-05
3.7608e-07
4.21383e-10
-4.37713e-11
1.19683e-08
6.17773e-09
1.64826e-08
2.29743e-07
2.94158e-07
2.93313e-07
2.59122e-07
2.00568e-07
1.47988e-07
6.72662e-08
9.48349e-08
7.61426e-08
5.79009e-08
5.71116e-08
7.40295e-08
1.05976e-07
8.53787e-08
5.05619e-08
4.6044e-07
4.02885e-07
2.56708e-07
5.86249e-07
1.45666e-07
3.29001e-08
6.18801e-09
6.22692e-09
6.05063e-08
2.02348e-07
2.47058e-07
1.99026e-07
1.55369e-07
1.13569e-07
5.55878e-08
8.60733e-08
7.09611e-08
4.85491e-08
3.54101e-08
3.37933e-08
4.60283e-08
3.84379e-08
4.88976e-08
1.3079e-07
3.63169e-07
9.05576e-07
9.20512e-07
5.46079e-07
8.89296e-08
9.55662e-09
6.33e-09
1.8666e-08
7.48341e-08
1.36958e-07
1.19513e-07
9.33727e-08
6.76979e-08
5.29262e-08
8.45321e-08
7.09664e-08
4.70032e-08
2.97566e-08
2.29982e-08
2.16251e-08
2.81015e-08
4.47257e-08
1.18015e-07
3.31109e-07
7.66389e-07
8.03005e-07
3.69861e-07
5.88933e-08
1.38238e-08
7.08887e-09
1.20637e-08
3.18157e-08
5.5335e-08
5.28887e-08
4.29038e-08
3.23516e-08
4.31787e-08
7.63857e-08
6.97499e-08
4.66694e-08
2.90223e-08
1.93064e-08
1.78284e-08
2.14992e-08
3.25076e-08
5.90766e-08
1.17431e-07
2.44243e-07
2.26935e-07
9.95054e-08
3.45257e-08
1.27738e-08
9.95735e-09
1.06265e-08
1.46968e-08
2.15868e-08
2.08342e-08
1.7533e-08
1.35913e-08
3.92257e-08
6.91851e-08
6.59803e-08
4.67239e-08
2.94935e-08
1.79928e-08
1.33529e-08
1.27804e-08
1.60429e-08
2.7832e-08
4.01487e-08
5.05474e-08
4.01526e-08
3.5976e-08
1.64173e-08
1.15814e-08
9.72021e-09
9.16606e-09
9.55592e-09
1.0344e-08
9.69841e-09
8.30584e-09
6.421e-09
2.68865e-08
5.23312e-08
5.54525e-08
4.20097e-08
2.82789e-08
1.67932e-08
1.11319e-08
8.94131e-09
8.40075e-09
9.96003e-09
1.12087e-08
1.47358e-08
1.32462e-08
1.19692e-08
9.58178e-09
9.04901e-09
7.72031e-09
6.99926e-09
6.68645e-09
6.32406e-09
5.80904e-09
5.02522e-09
3.98631e-09
2.21541e-08
4.22093e-08
4.15355e-08
3.47552e-08
2.59418e-08
1.57412e-08
9.44779e-09
6.50302e-09
5.43539e-09
4.95519e-09
4.94463e-09
4.91093e-09
5.01847e-09
5.47256e-09
5.77494e-09
5.82604e-09
5.05606e-09
4.5742e-09
4.3035e-09
4.02299e-09
3.72431e-09
3.29188e-09
2.73284e-09
1.53529e-08
2.75781e-08
3.09634e-08
2.64462e-08
2.11399e-08
1.38883e-08
8.16231e-09
4.82642e-09
3.55636e-09
3.06311e-09
2.91617e-09
2.76783e-09
2.80908e-09
2.98657e-09
3.17663e-09
3.08965e-09
2.80598e-09
2.60649e-09
2.48014e-09
2.36051e-09
2.22313e-09
2.01457e-09
1.74091e-09
9.8931e-09
1.92912e-08
2.03409e-08
1.76679e-08
1.39042e-08
1.08346e-08
6.65562e-09
3.67462e-09
2.39348e-09
1.83964e-09
1.58582e-09
1.57517e-09
1.59262e-09
1.64044e-09
1.65021e-09
1.55419e-09
1.43225e-09
1.34821e-09
1.29176e-09
1.2477e-09
1.18962e-09
1.0927e-09
9.63396e-10
6.73071e-09
1.21912e-08
1.25347e-08
1.06353e-08
8.44481e-09
7.12032e-09
4.83138e-09
2.71802e-09
1.64127e-09
1.10964e-09
8.78184e-10
8.13758e-10
8.13655e-10
8.17517e-10
7.97898e-10
7.57965e-10
6.97883e-10
6.53741e-10
6.24228e-10
5.93092e-10
5.57582e-10
5.15145e-10
4.58532e-10
3.85479e-09
7.12946e-09
7.12167e-09
5.83552e-09
4.48682e-09
3.95056e-09
2.96156e-09
1.77314e-09
1.07195e-09
6.6751e-10
4.59162e-10
3.81711e-10
3.72346e-10
3.66323e-10
3.65616e-10
3.49339e-10
3.22399e-10
2.99064e-10
2.77847e-10
2.57017e-10
2.37922e-10
2.1352e-10
1.90011e-10
2.43e-09
3.91952e-09
3.68811e-09
2.90153e-09
2.10509e-09
1.86084e-09
1.53576e-09
9.85082e-10
6.13918e-10
3.79437e-10
2.41806e-10
1.77169e-10
1.55455e-10
1.51269e-10
1.51156e-10
1.46428e-10
1.38676e-10
1.28567e-10
1.16337e-10
1.04154e-10
9.31259e-11
8.17409e-11
7.03241e-11
1.3109e-09
1.88152e-09
1.73003e-09
1.30582e-09
8.90081e-10
7.70007e-10
6.39703e-10
4.54065e-10
2.96427e-10
1.86258e-10
1.17014e-10
7.9141e-11
6.08544e-11
5.5885e-11
5.64052e-11
5.63717e-11
5.19008e-11
4.71094e-11
4.22305e-11
3.88566e-11
3.30953e-11
2.68145e-11
2.3161e-11
6.24168e-10
8.36188e-10
7.4052e-10
5.37218e-10
3.46833e-10
2.70361e-10
2.34556e-10
1.77499e-10
1.20886e-10
7.79133e-11
4.93658e-11
3.2153e-11
2.28721e-11
1.92322e-11
1.7375e-11
1.71306e-11
1.73701e-11
1.61647e-11
1.46005e-11
1.27054e-11
1.05244e-11
8.42187e-12
6.71432e-12
2.65861e-10
3.24434e-10
2.68236e-10
1.87072e-10
1.15574e-10
8.70007e-11
7.63096e-11
5.96456e-11
4.20445e-11
2.78019e-11
1.78619e-11
1.15228e-11
7.96879e-12
5.88376e-12
5.39458e-12
5.2768e-12
5.11642e-12
4.7878e-12
4.36856e-12
3.66802e-12
3.01559e-12
2.22775e-12
1.72437e-12
1.00683e-10
1.11571e-10
8.66221e-11
5.86432e-11
3.51801e-11
2.55091e-11
2.17196e-11
1.75072e-11
1.26962e-11
8.56589e-12
5.56882e-12
3.60411e-12
2.39422e-12
1.77201e-12
1.54369e-12
1.40451e-12
1.4194e-12
1.31584e-12
1.15548e-12
9.49489e-13
7.2695e-13
5.30257e-13
3.84865e-13
2.95706e-11
3.3742e-11
2.50514e-11
1.64797e-11
9.65066e-12
6.61618e-12
5.44657e-12
4.27524e-12
3.14736e-12
2.15424e-12
1.41242e-12
9.41459e-13
5.66735e-13
4.36403e-13
3.6827e-13
3.48755e-13
3.27772e-13
3.10944e-13
2.62247e-13
2.07645e-13
1.59248e-13
1.06078e-13
7.17504e-14
8.51743e-12
9.06698e-12
6.09365e-12
3.84305e-12
2.17326e-12
1.40664e-12
1.12689e-12
9.35829e-13
7.15856e-13
4.97377e-13
3.34712e-13
1.91519e-13
1.36125e-13
1.01382e-13
8.36417e-14
7.7402e-14
7.21522e-14
6.26824e-14
5.32869e-14
4.02403e-14
2.7348e-14
1.79843e-14
1.15044e-14
1.68947e-12
1.53122e-12
1.00358e-12
6.31988e-13
3.96155e-13
2.69006e-13
2.14189e-13
1.83902e-13
1.38749e-13
9.72472e-14
5.90662e-14
4.02509e-14
2.79336e-14
2.02516e-14
1.66721e-14
1.47064e-14
1.35784e-14
1.17055e-14
9.54672e-15
6.73571e-15
4.59988e-15
2.7339e-15
1.56957e-15
3.01304e-13
2.51706e-13
1.73177e-13
1.10407e-13
6.1403e-14
3.94136e-14
3.19714e-14
3.1668e-14
2.2184e-14
1.56056e-14
1.08309e-14
7.3084e-15
4.87792e-15
3.56169e-15
2.98716e-15
2.69517e-15
2.4472e-15
2.03652e-15
1.54765e-15
1.02891e-15
6.33314e-16
3.47231e-16
1.94874e-16
4.89172e-14
3.80032e-14
2.59885e-14
1.66319e-14
9.35913e-15
5.91052e-15
4.88247e-15
4.25454e-15
3.57193e-15
2.55237e-15
1.73349e-15
1.1293e-15
7.61704e-16
5.76995e-16
4.96382e-16
4.51571e-16
4.00522e-16
3.17297e-16
2.2381e-16
1.38239e-16
7.67713e-17
3.89323e-17
2.88788e-17
5.87935e-15
4.29717e-15
2.92419e-15
1.95888e-15
1.17799e-15
7.6877e-16
6.45153e-16
5.84914e-16
5.01087e-16
3.57993e-16
2.38663e-16
1.56698e-16
1.10413e-16
8.95187e-17
7.74535e-17
7.04795e-17
6.03897e-17
4.58274e-17
2.97572e-17
1.63847e-17
8.22458e-18
5.19816e-18
8.92024e-18
4.64798e-16
3.46359e-16
2.52378e-16
1.89037e-16
1.22391e-16
8.39904e-17
7.27302e-17
7.15012e-17
6.05469e-17
4.40295e-17
2.98257e-17
2.027e-17
1.51581e-17
1.14751e-17
1.14895e-17
1.0355e-17
8.50529e-18
5.63605e-18
3.44844e-18
1.86762e-18
1.04758e-18
1.18409e-18
4.96174e-18
2.07042e-17
1.87102e-17
1.75144e-17
1.60137e-17
1.11828e-17
8.10849e-18
7.30953e-18
7.60185e-18
6.61052e-18
4.98532e-18
3.48841e-18
2.49905e-18
1.99114e-18
1.76984e-18
1.62421e-18
1.42886e-18
1.12371e-18
7.15497e-19
3.94366e-19
2.09848e-19
2.04211e-19
6.07668e-19
3.64614e-18
2.70188e-19
4.59979e-19
7.29888e-19
9.03402e-19
9.32144e-19
7.22591e-19
6.68035e-19
7.28353e-19
6.63829e-19
5.24262e-19
3.8165e-19
2.87817e-19
2.42717e-19
2.27328e-19
2.02289e-19
1.70926e-19
1.3128e-19
8.24282e-20
4.8447e-20
3.92184e-20
8.48607e-20
3.85945e-19
2.53862e-18
1.76043e-23
4.34294e-21
3.71946e-20
6.63477e-20
6.03651e-20
4.83739e-20
5.54362e-20
6.33915e-20
6.14893e-20
5.11871e-20
3.9101e-20
3.09467e-20
2.76979e-20
2.77319e-20
2.45667e-20
2.0704e-20
1.60459e-20
1.06743e-20
7.81894e-21
1.06224e-20
3.68173e-20
1.91558e-19
1.3493e-18
1.20922e-06
0.105632
0.183176
0.174191
0.689077
0.757528
0.699714
0.276772
0.781408
0.807893
0.7165
0.544935
0.832265
0.955614
0.962548
0.948263
0.987636
0.9996
0.999859
0.999929
0.999986
0.999991
0.999979
0.999965
1
0.999999
0.999993
0.999988
0.999999
0.999997
0.999996
0.999997
0.9987
0.999995
0.9861
0.930632
0.0776599
0.0434122
0.0467761
0.0362778
-9.60223e-10
5.24903e-07
1.7378e-06
1.7606e-07
7.81938e-08
7.58182e-08
9.46259e-08
8.76215e-08
7.34295e-08
8.23408e-08
7.85685e-08
8.21562e-08
9.81821e-08
7.87854e-08
7.79758e-08
8.01673e-08
1.38901e-07
7.78107e-08
8.29621e-08
8.43565e-08
1.32753e-07
1.00919e-07
7.39586e-08
6.87602e-08
1.03188e-07
7.88831e-08
6.64623e-08
5.39497e-08
6.08127e-08
5.53722e-08
3.61737e-08
2.98934e-08
2.93239e-08
2.1949e-08
1.88019e-08
1.54579e-08
1.18669e-08
1.08181e-08
7.74237e-09
6.29984e-09
5.95029e-09
4.7218e-09
3.96173e-09
3.41797e-09
3.48005e-09
3.07994e-09
2.60137e-09
2.23271e-09
2.42383e-09
2.13334e-09
1.91406e-09
1.72607e-09
1.58261e-09
1.47166e-09
1.30326e-09
1.17728e-09
8.97484e-10
8.1954e-10
7.46276e-10
6.79194e-10
4.27764e-10
3.96087e-10
3.53378e-10
3.21775e-10
1.76149e-10
1.59669e-10
1.42468e-10
1.2593e-10
6.53652e-11
5.82907e-11
4.98651e-11
4.36136e-11
2.11853e-11
1.8186e-11
1.5458e-11
1.29231e-11
6.05222e-12
5.20101e-12
4.26503e-12
3.47833e-12
1.51141e-12
1.2592e-12
1.00951e-12
7.89283e-13
3.26755e-13
2.62411e-13
2.04452e-13
1.54287e-13
5.86371e-14
4.48147e-14
3.34428e-14
2.42385e-14
8.79794e-15
6.5476e-15
4.67104e-15
3.33909e-15
1.14743e-15
8.25117e-16
6.20673e-16
5.19337e-16
1.4698e-16
1.21654e-16
1.23153e-16
1.56381e-16
2.93907e-17
3.55378e-17
5.37591e-17
9.82546e-17
1.2469e-17
1.91768e-17
3.90154e-17
9.79256e-17
8.116e-18
1.53062e-17
4.18378e-17
1.24527e-16
6.56685e-18
1.63596e-17
5.31414e-17
1.73803e-16
5.17748e-18
1.68415e-17
6.29543e-17
2.01384e-16
4.27912e-18
1.52965e-17
5.08826e-17
1.45526e-16
0.0653365
0.0321037
0.0320648
0.299692
0.752335
0.363275
7.30038e-15
-6.95296e-10
-6.63955e-19
-1.04715e-20
-5.30496e-08
3.1258e-11
-9.67852e-21
3.16975e-05
6.42961e-05
6.98879e-05
8.52214e-05
8.4925e-05
0.431669
0.0446023
0.0350475
0.357888
0.822471
0.860406
0.324439
0.12678
0.299407
0.364551
0.319925
0.257389
0.195772
0.144143
0.0941166
0.0228747
5.93292e-05
6.13382e-05
0.00217461
0.0930399
0.550689
0.803786
0.993486
0.990693
0.855708
0.751119
0.851136
0.982211
0.999972
0.999973
0.987275
0.95703
0.922598
0.874607
0.766002
0.541956
0.27673
0.0770095
0.0427819
0.969806
0.998834
0.99876
0.987864
0.947923
0.967139
0.999992
0.999997
0.999971
0.999974
0.999989
0.999978
0.999912
0.99973
0.999635
0.998667
0.962518
0.75866
0.515661
0.999958
0.999527
0.999311
0.999619
0.999985
0.999999
0.999999
0.999997
0.99999
0.999994
1
1
0.999945
0.999764
0.999705
0.999705
0.999655
0.982766
0.944676
0.999964
0.999982
0.999992
1
1
1
0.999999
0.999999
1
1
1
1
0.999999
0.999999
0.999942
0.99909
0.997674
0.995972
0.995805
0.999989
0.999998
1
1
1
1
1
1
1
1
1
1
0.99989
0.997705
0.993231
0.990157
0.983343
0.966808
0.94667
0.999998
0.999999
1
0.994793
0.967444
0.926267
0.879643
0.833569
0.793811
0.763836
0.740698
0.714312
0.639759
0.514853
0.449738
0.410779
0.360768
0.286727
0.214496
0.822498
0.673047
0.52738
0.391818
0.276156
0.194654
0.137981
0.0956275
0.066386
0.0467792
0.0301415
0.00952183
-3.26742e-07
7.82543e-10
9.87962e-11
-3.02402e-06
-2.25496e-08
6.12853e-15
7.30102e-15
0.0156843
0.00268616
0.000478532
4.98623e-05
3.65643e-19
4.16812e-13
-1.5679e-19
4.16813e-13
-2.63121e-24
1.27631e-23
4.03016e-16
5.72862e-11
2.41152e-05
9.52789e-05
3.52271e-05
2.14208e-07
3.86577e-07
3.39526e-07
4.06016e-07
-4.78391e-10
-3.92678e-10
-7.39436e-11
-2.95877e-10
3.03616e-07
1.2007e-05
3.58492e-05
6.57187e-05
3.44196e-05
1.18509e-05
5.26462e-05
0.000581172
0.000939581
0.000632833
9.26173e-05
9.93925e-07
1.1257e-06
7.05368e-07
6.10966e-07
1.19858e-07
3.10176e-07
6.11211e-07
6.97232e-07
1.10334e-06
6.32595e-06
0.000631414
0.000991018
0.000679742
6.57648e-05
3.30361e-05
0.000793141
0.00122121
0.00111444
0.000113349
9.95854e-07
1.21432e-06
3.95936e-07
5.62933e-07
1.01746e-07
2.14631e-07
3.50632e-07
4.87489e-07
6.49785e-07
2.49136e-06
0.000575794
0.000978254
0.000989442
0.000618192
1.38393e-05
8.36802e-06
0.000118277
3.41336e-07
2.63872e-07
1.0512e-06
4.81474e-07
2.33427e-07
5.47768e-07
8.12278e-08
1.11714e-07
1.76484e-07
2.47487e-07
3.44918e-07
4.63143e-07
4.59301e-07
0.000149324
0.000375655
0.000145106
1.67888e-05
4.07415e-07
3.40905e-07
2.63872e-07
2.7119e-07
3.90565e-07
1.31157e-07
2.20457e-07
6.16831e-07
6.73274e-08
6.75631e-08
1.00018e-07
1.63353e-07
2.31094e-07
2.16926e-07
2.43284e-07
1.74032e-07
1.17834e-07
1.27187e-07
8.26772e-08
8.21924e-07
5.79963e-07
5.45813e-07
3.22571e-07
8.91655e-08
6.94117e-08
2.31089e-07
5.33982e-07
5.51976e-08
5.12696e-08
5.08999e-08
8.50537e-08
1.35057e-07
1.418e-07
3.47961e-07
5.16904e-07
4.52509e-07
1.74924e-07
8.40604e-08
1.25396e-07
6.02013e-07
6.61801e-07
3.98154e-07
9.55275e-08
6.57007e-08
1.49579e-07
3.1011e-07
3.54788e-08
3.41565e-08
3.6313e-08
5.13256e-08
4.84743e-08
2.99173e-08
2.39049e-07
5.80615e-07
6.27205e-07
3.6871e-07
1.05821e-07
4.54955e-08
2.58459e-07
3.63995e-07
1.91357e-07
7.01968e-08
5.95331e-08
6.48737e-08
3.17184e-08
1.90194e-08
1.81022e-08
2.15565e-08
2.86951e-08
2.79709e-08
2.54015e-08
2.05972e-08
1.87116e-07
2.86891e-07
1.82258e-07
9.40563e-08
4.61401e-08
6.32633e-08
8.74574e-08
4.66858e-08
2.50534e-08
3.82125e-08
2.25987e-08
1.43133e-08
9.1043e-09
8.13933e-09
1.04066e-08
1.38209e-08
1.81524e-08
2.14998e-08
1.95711e-08
1.42932e-08
1.37724e-08
2.08959e-08
3.03287e-08
2.99375e-08
2.08173e-08
1.39746e-08
1.28189e-08
1.7699e-08
2.03852e-08
1.43011e-08
1.43547e-08
4.07324e-09
3.58344e-09
4.37466e-09
6.46634e-09
8.47982e-09
1.15744e-08
1.4035e-08
1.365e-08
1.45821e-08
1.6275e-08
1.86793e-08
1.88809e-08
1.47812e-08
1.11466e-08
1.09108e-08
1.45945e-08
1.41845e-08
1.4505e-08
1.43127e-08
2.31794e-09
1.98277e-09
2.09068e-09
2.77248e-09
3.9549e-09
5.15961e-09
6.32613e-09
7.40994e-09
8.60448e-09
9.17767e-09
9.01909e-09
8.62046e-09
7.87379e-09
7.45002e-09
8.02224e-09
1.06475e-08
1.24114e-08
1.50169e-08
1.51244e-08
1.63005e-09
1.38658e-09
1.28452e-09
1.33588e-09
1.59618e-09
1.96625e-09
2.41998e-09
2.9347e-09
3.40966e-09
3.56116e-09
3.36154e-09
2.91464e-09
3.13266e-09
3.95172e-09
5.38621e-09
7.56316e-09
1.26336e-08
1.96699e-08
1.73845e-08
1.28907e-09
1.05327e-09
8.89025e-10
7.96865e-10
7.6566e-10
8.33111e-10
1.00402e-09
1.16867e-09
1.38444e-09
1.56424e-09
1.69531e-09
1.95589e-09
2.37242e-09
3.17084e-09
4.45515e-09
7.53466e-09
1.48536e-08
2.30763e-08
2.76681e-08
9.16865e-10
7.42571e-10
6.089e-10
4.86952e-10
4.05742e-10
3.67118e-10
3.73107e-10
4.44504e-10
5.35622e-10
6.89657e-10
8.87743e-10
1.17927e-09
1.66777e-09
2.5398e-09
4.12847e-09
7.55315e-09
1.71492e-08
4.57242e-08
3.23599e-08
5.44907e-10
4.44324e-10
3.60207e-10
2.77802e-10
2.18108e-10
1.85858e-10
1.80926e-10
2.0797e-10
2.72633e-10
3.91998e-10
5.7864e-10
8.80769e-10
1.39065e-09
2.29697e-09
4.00634e-09
8.0983e-09
2.24965e-08
5.54486e-08
5.42452e-08
2.616e-10
2.15475e-10
1.70208e-10
1.32283e-10
1.01241e-10
8.95556e-11
9.23328e-11
1.16395e-10
1.6907e-10
2.71926e-10
4.4878e-10
7.48111e-10
1.26442e-09
2.18399e-09
4.02877e-09
9.09317e-09
2.63241e-08
8.38318e-08
5.65999e-08
1.01422e-10
8.29605e-11
6.46354e-11
5.00719e-11
4.04907e-11
3.98213e-11
4.90714e-11
7.3526e-11
1.23151e-10
2.13171e-10
3.88088e-10
6.89249e-10
1.21637e-09
2.14476e-09
4.07104e-09
9.51081e-09
3.41803e-08
8.19422e-08
8.15323e-08
3.34403e-11
2.63126e-11
1.99027e-11
1.55767e-11
1.45566e-11
1.8069e-11
2.87274e-11
5.19275e-11
9.81336e-11
1.85692e-10
3.57116e-10
6.6872e-10
1.217e-09
2.16311e-09
4.08961e-09
1.13745e-08
3.85083e-08
9.70094e-08
6.84975e-08
9.39611e-12
6.98304e-12
5.20726e-12
4.44717e-12
5.61803e-12
9.82395e-12
1.97574e-11
4.07485e-11
8.43166e-11
1.71927e-10
3.41875e-10
6.75008e-10
1.26072e-09
2.24276e-09
4.07698e-09
1.19905e-08
4.74604e-08
9.67271e-08
6.30914e-08
2.34539e-12
1.583e-12
1.28556e-12
1.55746e-12
2.96421e-12
6.72228e-12
1.54974e-11
3.42363e-11
7.68233e-11
1.64503e-10
3.475e-10
6.98966e-10
1.3483e-09
2.38972e-09
4.28296e-09
1.36469e-08
5.21369e-08
9.90629e-08
5.16992e-08
4.88503e-13
3.30883e-13
3.87065e-13
8.07833e-13
2.09935e-12
5.23877e-12
1.31694e-11
3.11735e-11
7.22857e-11
1.62719e-10
3.59783e-10
7.52023e-10
1.45652e-09
2.58286e-09
4.63543e-09
1.38401e-08
5.93468e-08
9.94013e-08
4.6796e-08
8.84591e-14
7.68915e-14
1.79129e-13
5.57038e-13
1.65247e-12
4.5872e-12
1.16323e-11
2.89381e-11
7.06315e-11
1.66102e-10
3.80105e-10
8.12437e-10
1.60559e-09
2.87724e-09
5.14993e-09
1.52566e-08
5.15712e-08
9.14379e-08
2.73007e-08
1.51178e-14
2.89561e-14
1.1816e-13
4.43142e-13
1.40702e-12
4.01012e-12
1.05755e-11
2.80812e-11
7.10539e-11
1.73705e-10
4.06404e-10
8.82276e-10
1.74692e-09
3.23784e-09
5.27815e-09
1.53899e-08
4.0959e-08
3.56473e-08
2.13347e-08
4.32953e-15
2.11367e-14
1.02703e-13
3.89198e-13
1.24127e-12
3.69087e-12
1.03551e-11
2.7904e-11
7.27453e-11
1.79886e-10
4.32669e-10
9.35345e-10
1.87751e-09
3.34876e-09
5.89804e-09
1.4389e-08
2.11674e-08
2.40733e-08
6.62779e-09
2.98708e-15
2.01135e-14
9.42764e-14
3.54648e-13
1.17341e-12
3.53637e-12
1.02807e-11
2.82642e-11
7.42643e-11
1.87239e-10
4.43587e-10
9.59265e-10
1.90222e-09
3.43981e-09
5.63745e-09
1.1658e-08
1.46539e-08
6.43024e-09
5.68368e-09
2.74583e-15
1.88602e-14
8.4628e-14
3.29239e-13
1.10665e-12
3.43208e-12
1.00487e-11
2.76997e-11
7.29647e-11
1.83888e-10
4.34355e-10
9.2811e-10
1.83129e-09
3.18994e-09
5.06946e-09
8.20446e-09
6.03362e-09
5.86637e-09
1.98521e-09
2.68079e-15
1.74242e-14
7.85816e-14
3.02566e-13
1.0197e-12
3.19221e-12
9.33436e-12
2.56063e-11
6.72336e-11
1.68407e-10
3.93207e-10
8.31758e-10
1.61287e-09
2.78251e-09
3.97563e-09
5.94782e-09
4.63998e-09
1.77487e-09
1.48918e-09
2.75703e-15
1.6059e-14
6.93558e-14
2.63895e-13
8.83771e-13
2.71789e-12
7.93781e-12
2.15788e-11
5.61882e-11
1.39764e-10
3.24094e-10
6.78626e-10
1.29548e-09
2.13455e-09
3.03694e-09
3.35408e-09
2.13171e-09
1.21465e-09
5.23612e-10
2.60227e-15
1.3632e-14
5.62304e-14
2.04431e-13
6.69208e-13
2.0367e-12
5.85383e-12
1.58714e-11
4.10881e-11
1.01626e-10
2.34585e-10
4.8508e-10
9.07413e-10
1.4925e-09
1.87527e-09
2.09884e-09
1.27806e-09
4.12561e-10
3.18667e-10
2.20442e-15
1.00281e-14
3.80158e-14
1.26596e-13
4.03404e-13
1.19287e-12
3.39068e-12
9.41943e-12
2.44486e-11
6.11509e-11
1.4302e-10
2.99644e-10
5.55675e-10
9.12664e-10
1.12628e-09
1.16143e-09
5.53384e-10
2.21955e-10
1.82879e-10
1.42028e-15
5.50704e-15
1.87617e-14
5.92423e-14
1.82315e-13
5.47986e-13
1.59418e-12
4.48641e-12
1.19701e-11
3.07553e-11
7.31569e-11
1.53825e-10
2.82707e-10
4.73499e-10
6.1656e-10
5.74385e-10
2.46947e-10
1.12901e-10
8.58275e-11
5.05389e-16
1.60353e-15
4.88666e-15
1.40915e-14
4.59319e-14
1.50393e-13
4.63086e-13
1.32677e-12
3.69325e-12
9.66262e-12
2.32755e-11
5.04926e-11
9.39856e-11
1.54058e-10
2.02972e-10
1.81428e-10
8.23397e-11
3.56903e-11
1.55648e-11
)
;

boundaryField
{
    leftWall
    {
        type            alphaContactAngle;
        contactAngleProperties 
        {
            mercury         
            {
                theta0          90;
            }
            air             
            {
                theta0          90;
            }
            water           
            {
                theta0          90;
            }
        }
        value           nonuniform List<scalar> 
50
(
1.46272e-14
9.29513e-15
7.33748e-15
1.78855e-14
3.3911e-13
1.26335e-12
9.1614e-12
4.76311e-10
3.07686e-09
5.01991e-09
3.93051e-09
3.6974e-20
0.048614
0.563882
0.658656
0.0305174
7.2326e-06
1.00857e-06
1.78304e-06
1.0011e-06
4.80502e-07
3.39822e-07
1.98809e-07
1.02486e-07
6.72662e-08
5.55878e-08
5.29262e-08
4.31787e-08
3.92257e-08
2.68865e-08
2.21541e-08
1.53529e-08
9.8931e-09
6.73071e-09
3.85479e-09
2.43e-09
1.3109e-09
6.24168e-10
2.65861e-10
1.00683e-10
2.95706e-11
8.51743e-12
1.68947e-12
3.01304e-13
4.89172e-14
5.87935e-15
4.64798e-16
2.07042e-17
2.70188e-19
1.76043e-23
)
;
    }
    rightWall
    {
        type            alphaContactAngle;
        contactAngleProperties 
        {
            mercury         
            {
                theta0          90;
            }
            air             
            {
                theta0          90;
            }
            water           
            {
                theta0          90;
            }
        }
        value           nonuniform List<scalar> 
50
(
0.21945
0.219568
0.223493
0.4545
0.471993
0.47194
0.457943
0.429957
0.431669
0.0930399
0.0427819
0.515661
0.944676
0.995805
0.94667
0.214496
7.30102e-15
4.06016e-07
6.10966e-07
5.62933e-07
5.47768e-07
6.16831e-07
5.33982e-07
3.1011e-07
3.17184e-08
1.43133e-08
1.43547e-08
1.43127e-08
1.51244e-08
1.73845e-08
2.76681e-08
3.23599e-08
5.42452e-08
5.65999e-08
8.15323e-08
6.84975e-08
6.30914e-08
5.16992e-08
4.6796e-08
2.73007e-08
2.13347e-08
6.62779e-09
5.68368e-09
1.98521e-09
1.48918e-09
5.23612e-10
3.18667e-10
1.82879e-10
8.58275e-11
1.55648e-11
)
;
    }
    lowerWall
    {
        type            alphaContactAngle;
        contactAngleProperties 
        {
            mercury         
            {
                theta0          90;
            }
            air             
            {
                theta0          90;
            }
            water           
            {
                theta0          90;
            }
        }
        value           nonuniform List<scalar> 
62
(
1.46272e-14
1.28992e-13
7.40706e-13
2.83268e-12
7.88297e-12
1.93222e-11
4.20869e-11
8.34099e-11
1.63104e-10
3.20615e-10
5.81826e-10
1.04989e-09
2.00029e-09
3.74379e-09
6.82355e-09
1.19608e-08
1.82671e-08
1.85039e-08
1.83952e-08
0.00016635
0.000426787
0.000567127
0.000567145
0.000567145
0.000239954
7.81588e-09
7.80686e-09
3.15042e-06
4.88627e-05
4.88649e-05
1.70174e-05
1.20922e-06
0.105632
0.183176
0.174191
0.111532
0.40403
0.413302
0.197682
0.00409125
0.0141806
0.0334161
0.0351325
0.111532
0.111272
0.0875343
0.0453824
0.0320351
0.0308315
0.0308104
0.217923
0.296207
0.317919
0.316973
0.329229
0.32979
0.301325
0.11065
0.0696978
0.121506
0.21866
0.21945
)
;
    }
    atmosphere
    {
        type            inletOutlet;
        inletValue      uniform 0;
        value           nonuniform List<scalar> 
46
(
0
0
3.71947e-20
6.63477e-20
6.03651e-20
4.83739e-20
5.54362e-20
6.33915e-20
6.14893e-20
5.11871e-20
3.9101e-20
3.09467e-20
2.76979e-20
2.77319e-20
2.45667e-20
2.0704e-20
1.60459e-20
1.06743e-20
7.81894e-21
1.06224e-20
3.68173e-20
1.91558e-19
1.3493e-18
4.27912e-18
0
0
0
0
0
0
0
0
0
0
0
0
0
0
0
0
0
0
0
0
0
0
)
;
    }
    defaultFaces
    {
        type            empty;
    }
}

