/*--------------------------------*- C++ -*----------------------------------*\
  =========                 |
  \\      /  F ield         | OpenFOAM: The Open Source CFD Toolbox
   \\    /   O peration     | Website:  https://openfoam.org
    \\  /    A nd           | Version:  13
     \\/     M anipulation  |
\*---------------------------------------------------------------------------*/
FoamFile
{
    format      ascii;
    class       volScalarField;
    location    "2.15";
    object      epsilon;
}
// * * * * * * * * * * * * * * * * * * * * * * * * * * * * * * * * * * * * * //

dimensions      [0 2 -3 0 0 0 0];

internalField   nonuniform List<scalar> 
2268
(
0.00509348
0.0184534
0.0322312
0.0467629
0.0620887
0.0781963
0.0949141
0.111792
0.128512
0.144615
0.160028
0.174622
0.188065
0.199797
0.208993
0.214631
0.215548
0.210239
0.196654
0.172032
0.13303
0.0761503
0.0123244
0.00908097
0.0138067
0.0200683
0.0267765
0.0337994
0.0411234
0.0486839
0.0563192
0.0638071
0.0710071
0.0778088
0.0841005
0.0897545
0.0946111
0.0984418
0.100902
0.101521
0.0996634
0.0944903
0.0849301
0.069819
0.048265
0.0248286
0.0152
0.0156017
0.0197727
0.0246431
0.0298084
0.035192
0.0407329
0.0463244
0.0518197
0.0571153
0.0621226
0.0667581
0.0709424
0.0745843
0.077549
0.0796251
0.0805148
0.0798252
0.0770626
0.0716453
0.0629915
0.0509977
0.0448597
0.0209556
0.0178978
0.0207526
0.0246498
0.0289377
0.0334608
0.0381334
0.0428587
0.0475181
0.0520258
0.0563147
0.060326
0.0640052
0.0672869
0.0700696
0.0721982
0.0734619
0.073603
0.07234
0.0694249
0.0647828
0.0591715
0.0677434
0.0259992
0.0201342
0.0219961
0.0252423
0.0290094
0.0330586
0.0372686
0.0415379
0.045762
0.04987
0.0538155
0.0575622
0.061073
0.0642941
0.0671386
0.0694831
0.071176
0.072059
0.0720212
0.0711212
0.0698816
0.070427
0.0945914
0.0303261
0.0221569
0.0232613
0.0260621
0.0295139
0.0332956
0.0372478
0.0412626
0.0452508
0.0491553
0.0529478
0.0566134
0.0601274
0.0634415
0.0664746
0.0691232
0.0712808
0.0728694
0.0739262
0.0748104
0.0767908
0.0843679
0.130306
0.0341253
0.0239755
0.024515
0.0270295
0.0303092
0.0339564
0.0377763
0.0416582
0.0455327
0.0493548
0.0531136
0.0568127
0.0604364
0.0639367
0.0672348
0.0702394
0.0728759
0.0751304
0.0771647
0.0796109
0.0845876
0.100775
0.193045
0.037888
0.0257031
0.0258004
0.0281532
0.0313642
0.0349693
0.0387412
0.0425778
0.046428
0.0502431
0.0540378
0.0578517
0.0616695
0.0654334
0.0690557
0.0724422
0.075532
0.0783623
0.0811919
0.0848452
0.092092
0.116869
0.339668
0.0115345
0.0703767
0.13861
0.201671
0.242573
0.268134
0.277673
0.266693
0.250127
0.235895
0.218038
0.195555
0.165572
0.139512
0.119694
0.0979767
0.0735684
0.0468431
0.0144179
0.0234443
0.0458664
0.0719667
0.0950499
0.110712
0.120747
0.125744
0.123701
0.118156
0.11136
0.103475
0.0946892
0.0853634
0.0755524
0.0653124
0.0545503
0.0433581
0.0324886
0.0210258
0.0442078
0.0507112
0.0655758
0.0792088
0.0889579
0.0955459
0.098917
0.0979311
0.0941058
0.0890751
0.0832993
0.0769938
0.0700706
0.062959
0.0555504
0.0477841
0.0400514
0.0335384
0.0316076
0.068271
0.0601847
0.068283
0.0768669
0.0836168
0.0883569
0.0905443
0.0893299
0.0857983
0.0815782
0.0767552
0.0713707
0.0649546
0.0585959
0.0523347
0.0460118
0.0401812
0.0363154
0.0410719
0.0906543
0.0717282
0.0737863
0.0785519
0.0830697
0.086535
0.0878914
0.0861321
0.0825956
0.0785805
0.0740576
0.0692789
0.0633376
0.0571313
0.0513594
0.0459303
0.0414099
0.0395056
0.0510255
0.120411
0.0858961
0.0805597
0.0817682
0.084162
0.0863946
0.0870705
0.0849776
0.0815445
0.0776703
0.073108
0.0682124
0.0629494
0.0570961
0.0515388
0.0467131
0.0431004
0.042645
0.0619211
0.185146
0.103094
0.0877954
0.0856207
0.0862064
0.0871999
0.0870692
0.0847394
0.0812786
0.0774966
0.0730621
0.0681838
0.063006
0.0575811
0.052328
0.0479509
0.0449539
0.0458492
0.073984
0.356274
0.119458
0.0943415
0.0895912
0.0887858
0.0886353
0.0875473
0.0848117
0.0813029
0.0776392
0.0733954
0.0686649
0.0636388
0.0584241
0.0534667
0.0494135
0.0468506
0.0486134
0.0894444
0.0431424
0.0278274
0.0276744
0.0300266
0.0332722
0.0368801
0.0405813
0.044322
0.0481516
0.0520895
0.0561608
0.0603904
0.06474
0.0691014
0.0733488
0.0773641
0.0811065
0.0846883
0.0884761
0.0933898
0.10194
0.121772
0.181634
0.0533268
0.0303656
0.030276
0.0327138
0.0358155
0.0392031
0.0427841
0.0466332
0.0508678
0.0555376
0.0606259
0.0660566
0.0716603
0.0772155
0.0825414
0.0874744
0.0919791
0.0962439
0.100655
0.105859
0.113362
0.126394
0.151442
0.0534896
0.0325835
0.0330486
0.0355283
0.0384748
0.0417666
0.0455251
0.0499017
0.055025
0.0609182
0.0674622
0.0744255
0.0814673
0.0882589
0.0945318
0.100041
0.104762
0.108987
0.113039
0.117211
0.122286
0.129503
0.139837
0.0500817
0.0347063
0.0359234
0.0385222
0.0415021
0.0450144
0.0493456
0.0546964
0.0611835
0.0686955
0.0769453
0.0855142
0.0938413
0.101468
0.108053
0.113277
0.11721
0.120273
0.122741
0.124739
0.126754
0.129502
0.133065
0.0513998
0.0379375
0.0393967
0.0420547
0.0452763
0.0493834
0.0546889
0.0613634
0.0694413
0.0785949
0.0883297
0.0980243
0.106883
0.114357
0.120137
0.123957
0.126115
0.127263
0.127692
0.127688
0.127663
0.127974
0.128474
0.0599924
0.0423873
0.0437588
0.0464535
0.0500178
0.0548376
0.0611729
0.0690429
0.0783287
0.0885135
0.0988569
0.108617
0.116933
0.123313
0.127646
0.129987
0.130763
0.130614
0.12986
0.128793
0.127729
0.126801
0.125757
0.075316
0.0482453
0.0487609
0.0513482
0.0552339
0.0606467
0.0676199
0.0760446
0.0857762
0.0962238
0.106455
0.115703
0.123242
0.128663
0.132004
0.133512
0.133645
0.132911
0.131611
0.130025
0.128396
0.126763
0.124859
0.112928
0.0572113
0.0549069
0.0570711
0.0612076
0.0670333
0.0741055
0.0824246
0.0920513
0.102305
0.112193
0.120856
0.127674
0.132424
0.135216
0.136352
0.13625
0.135304
0.133793
0.131971
0.130035
0.127995
0.125595
0.0989081
0.0667779
0.065174
0.0661232
0.0700064
0.0757373
0.081478
0.0888061
0.098184
0.10829
0.11775
0.125601
0.131493
0.135551
0.137979
0.138997
0.138874
0.137924
0.136431
0.134624
0.132616
0.130428
0.127794
0.10771
0.0715327
0.0697304
0.0733815
0.0783693
0.0823012
0.0873776
0.0951884
0.105553
0.115903
0.124688
0.130715
0.135054
0.138523
0.140799
0.141745
0.14159
0.140689
0.139387
0.137832
0.136019
0.133856
0.131176
0.126189
0.0749665
0.068097
0.0706202
0.0758446
0.0809745
0.0879551
0.0976557
0.109157
0.119675
0.127032
0.132342
0.137151
0.141501
0.144176
0.14489
0.144457
0.143539
0.142536
0.14144
0.140016
0.137927
0.134749
0.142525
0.0778874
0.068058
0.0682014
0.071901
0.0769065
0.0835211
0.0926479
0.10327
0.11334
0.121813
0.128852
0.134809
0.140029
0.143146
0.14436
0.144478
0.143792
0.142755
0.141555
0.14003
0.13823
0.136332
0.155948
0.0805636
0.0684935
0.0668171
0.0688989
0.0728979
0.0787275
0.0865041
0.0955609
0.104663
0.112506
0.11921
0.12526
0.130374
0.134155
0.136942
0.139026
0.140325
0.140792
0.140491
0.139557
0.138614
0.137509
0.166079
0.0821816
0.0686043
0.0658594
0.0669162
0.0699499
0.0745914
0.0808263
0.0882413
0.0959834
0.103142
0.109598
0.115509
0.120553
0.124582
0.127796
0.130436
0.132558
0.134071
0.134948
0.135282
0.135445
0.135037
0.17074
0.0824181
0.0680267
0.0647337
0.0652195
0.0676122
0.0713724
0.0763855
0.0824165
0.0889305
0.0952758
0.101169
0.106583
0.111349
0.115336
0.118636
0.121399
0.123732
0.125698
0.12726
0.128413
0.129245
0.129378
0.170497
0.0812063
0.0666946
0.0631834
0.0633737
0.0653888
0.0685973
0.0727938
0.0778052
0.0833082
0.0888455
0.0940883
0.0988981
0.103181
0.106869
0.109987
0.112629
0.114893
0.116859
0.118552
0.119951
0.121017
0.121425
0.166733
0.0789254
0.0647186
0.0611959
0.0612304
0.0630047
0.0658619
0.0695334
0.0738514
0.0785919
0.0834336
0.0880754
0.0923355
0.0961313
0.0994286
0.10224
0.104623
0.106653
0.108402
0.10991
0.111181
0.112184
0.112667
0.160567
0.0759373
0.0622878
0.0588595
0.0588056
0.0603974
0.0629919
0.0662952
0.0701319
0.0743162
0.0786087
0.0827564
0.0865744
0.0899709
0.0929152
0.0954172
0.0975172
0.0992743
0.10075
0.101988
0.103009
0.103808
0.104236
0.152883
0.07251
0.059563
0.0562836
0.0561744
0.0576061
0.0599679
0.06297
0.066432
0.0701897
0.0740479
0.0777991
0.0812733
0.0843695
0.0870478
0.0893088
0.0911817
0.0927132
0.0939564
0.0949581
0.0957493
0.0963466
0.0966707
0.144315
0.0688175
0.0566576
0.0535592
0.0534153
0.054698
0.0568374
0.0595609
0.0626937
0.0660878
0.0695805
0.0729999
0.0761957
0.0790652
0.0815567
0.0836579
0.0853855
0.0867751
0.0878718
0.0887204
0.0893582
0.0898129
0.090051
0.135226
0.0649637
0.0536452
0.0507513
0.0505911
0.0517386
0.0536661
0.0561217
0.0589444
0.0620043
0.0651648
0.0682846
0.0712342
0.0739154
0.0762684
0.0782689
0.0799203
0.0812461
0.0822817
0.0830667
0.0836384
0.0840273
0.0842294
0.125863
0.0610154
0.0505734
0.0479051
0.0477484
0.0487809
0.0505139
0.0527167
0.055246
0.0579899
0.0608363
0.0636705
0.0663839
0.0688874
0.0711194
0.0730468
0.0746612
0.0759739
0.0770094
0.0777993
0.0783759
0.0787673
0.0789867
0.116381
0.0570177
0.0474756
0.0450525
0.0449217
0.0458643
0.0474284
0.0494029
0.0516624
0.0541122
0.0566619
0.0592206
0.0616999
0.0640231
0.0661316
0.0679881
0.0695758
0.0708952
0.0719602
0.0727927
0.0734175
0.0738571
0.0741331
0.106919
0.0530074
0.0443784
0.0422198
0.042139
0.0430191
0.0444452
0.0462242
0.0482463
0.050432
0.0527097
0.0550086
0.0572592
0.0593981
0.0613736
0.0631483
0.0647006
0.0660232
0.0671207
0.0680056
0.0686945
0.069203
0.0695551
0.0975779
0.0490221
0.0413108
0.0394348
0.0394266
0.0402718
0.0415924
0.043213
0.0450364
0.0469956
0.0490342
0.0510979
0.0531335
0.055091
0.0569266
0.0586065
0.0601074
0.0614174
0.0625341
0.0634622
0.0642105
0.0647881
0.0652175
0.0885161
0.0451281
0.0383213
0.0367341
0.0368145
0.0376496
0.0388965
0.040396
0.0420612
0.0438352
0.0456731
0.0475337
0.0493769
0.0511643
0.0528612
0.0544382
0.0558735
0.0571528
0.0582694
0.0592223
0.0600141
0.0606484
0.0611443
0.0801702
0.0414695
0.0354731
0.0341617
0.0343403
0.0351856
0.036387
0.0377996
0.0393452
0.0409746
0.0426514
0.0443442
0.0460233
0.0476598
0.049227
0.050701
0.0520625
0.0532972
0.0543962
0.0553547
0.0561709
0.0568444
0.0573898
0.0726343
0.038087
0.032822
0.0317696
0.0320509
0.032922
0.0341006
0.0354549
0.0369139
0.0384345
0.0399867
0.0415462
0.0430908
0.0445995
0.0460521
0.0474299
0.0487168
0.0498997
0.050969
0.0519181
0.0527424
0.0534389
0.0540187
0.0659901
0.0350515
0.0304345
0.0296209
0.030005
0.0309114
0.0320831
0.0333998
0.0347971
0.0362371
0.0376945
0.0391501
0.0405876
0.0419916
0.0433472
0.0446401
0.0458574
0.0469879
0.0480223
0.0489533
0.0497749
0.0504826
0.0510866
0.0604003
0.0324527
0.0283931
0.0277923
0.0282722
0.0292156
0.0303873
0.0316776
0.0330284
0.0344062
0.0357896
0.0371635
0.0385157
0.0398349
0.0411104
0.0423314
0.0434879
0.0445705
0.0455709
0.0464819
0.0472972
0.0480116
0.0486334
0.056059
0.0304098
0.0267968
0.0263708
0.0269291
0.0279005
0.0290685
0.0303327
0.0316412
0.0329647
0.0342852
0.0355909
0.0368725
0.0381219
0.0393314
0.040493
0.0415989
0.0426417
0.0436141
0.0445094
0.0453212
0.0460452
0.0466852
0.0531386
0.0290492
0.0257498
0.0254452
0.0260512
0.0270292
0.0281774
0.0294042
0.0306634
0.0319299
0.033189
0.0344312
0.0356498
0.0368389
0.0379928
0.0391058
0.0401719
0.0411852
0.0421397
0.0430294
0.043848
0.0445912
0.0452588
0.0517298
0.0284822
0.0253479
0.0250966
0.025705
0.0266542
0.0277536
0.0289196
0.0301117
0.0313087
0.032499
0.0336751
0.0348319
0.0359651
0.0370704
0.0381437
0.0391807
0.040177
0.041128
0.0420284
0.0428723
0.0436532
0.0443678
0.0518366
0.0287894
0.0256709
0.025393
0.0259438
0.0268135
0.0278209
0.0288902
0.0299867
0.0310931
0.0321998
0.033301
0.0343922
0.0354699
0.0365309
0.0375723
0.0385916
0.0395863
0.0405536
0.0414892
0.0423868
0.0432369
0.0440312
0.053381
0.0300316
0.0267903
0.0263952
0.02681
0.0275301
0.028385
0.029308
0.0302702
0.031257
0.0322599
0.0332729
0.0342914
0.0353118
0.0363314
0.0373487
0.0383634
0.0393762
0.0403873
0.0413946
0.0423905
0.0433598
0.0442846
0.0562584
0.0322836
0.028799
0.0281758
0.0283448
0.0288152
0.0294337
0.0301445
0.030923
0.0317549
0.0326297
0.033539
0.0344763
0.0354365
0.0364174
0.0374193
0.0384458
0.0395033
0.0405984
0.0417332
0.0428974
0.0440642
0.0451976
0.0603942
0.0357258
0.031881
0.0308596
0.0306052
0.0306722
0.0309351
0.0313475
0.0318828
0.03252
0.0332413
0.0340316
0.0348795
0.0357776
0.0367235
0.0377207
0.0387798
0.0399185
0.0411571
0.042507
0.0439533
0.0454421
0.0469015
0.0659369
0.0408871
0.0364754
0.0346965
0.0336837
0.0330943
0.0328305
0.0328355
0.0330609
0.0334639
0.0340089
0.034668
0.0354214
0.0362575
0.0371737
0.038179
0.0392971
0.0405673
0.042039
0.0437473
0.0456674
0.0476781
0.0496363
0.0741029
0.0495689
0.0437196
0.040188
0.0377105
0.0360399
0.0350136
0.0344866
0.0343387
0.0344766
0.0348317
0.035355
0.0360141
0.0367914
0.0376849
0.0387126
0.03992
0.0413877
0.0432276
0.0455375
0.048279
0.0511292
0.0538235
0.0941985
0.0693799
0.0567177
0.0482324
0.0427698
0.0393542
0.0372895
0.0361224
0.0355641
0.0354295
0.0355986
0.0359938
0.0365669
0.037293
0.0381718
0.0392341
0.0405595
0.0423008
0.0447031
0.0480456
0.0523253
0.0564805
0.0601651
0.246155
0.128744
0.0822606
0.0596872
0.0485107
0.0425958
0.0393159
0.0374958
0.0365562
0.0361841
0.0361983
0.03649
0.0369952
0.0376826
0.0385536
0.0396547
0.041109
0.0431801
0.0463743
0.0515146
0.0592408
0.0651357
0.0697699
1.57018
0.211952
0.115499
0.0713771
0.0531361
0.0448257
0.0405861
0.0383116
0.0371268
0.0366095
0.036532
0.0367639
0.0372303
0.037896
0.0387638
0.0398919
0.0414412
0.0437916
0.0478314
0.0557814
0.0743607
0.0808479
0.0848131
0.42094
0.352594
0.380743
0.49733
0.18241
0.185208
0.184051
0.177664
0.147427
0.148976
0.146795
0.141213
0.13473
0.134401
0.132382
0.128961
0.127889
0.1268
0.124955
0.122517
0.124188
0.12282
0.12111
0.119151
0.122843
0.121378
0.119761
0.11804
0.123313
0.121786
0.120213
0.118614
0.12525
0.123623
0.122043
0.120494
0.128447
0.12667
0.124994
0.123398
0.131976
0.130126
0.128397
0.126781
0.134798
0.132902
0.130646
0.12873
0.135672
0.133925
0.131989
0.130135
0.133821
0.132599
0.131089
0.12952
0.12871
0.12798
0.127014
0.125892
0.121171
0.120815
0.120273
0.119568
0.112655
0.112524
0.112252
0.111838
0.104313
0.104274
0.10413
0.103878
0.0967359
0.0967099
0.0966064
0.0964221
0.0900782
0.0900381
0.089939
0.0897793
0.0842377
0.0841875
0.0840903
0.0839455
0.0790069
0.0789643
0.0788821
0.0787594
0.0741924
0.0741762
0.074124
0.0740346
0.0696695
0.0696913
0.0696793
0.0696316
0.0653924
0.0654562
0.0654878
0.0654845
0.0613753
0.0614791
0.0615523
0.0615915
0.0576687
0.0578074
0.0579168
0.0579932
0.0543346
0.0545013
0.0546404
0.0547478
0.0514304
0.0516191
0.0517816
0.0519145
0.0489997
0.0492066
0.0493891
0.0495436
0.0470741
0.0472989
0.0475006
0.0476761
0.0456761
0.045922
0.0461463
0.0463454
0.0448268
0.0451019
0.0453562
0.0455862
0.0445544
0.0448727
0.0451701
0.0454428
0.0449071
0.0452897
0.0456498
0.0459829
0.0459701
0.0464471
0.0468968
0.0473139
0.0478949
0.0485062
0.0490794
0.0496082
0.0509429
0.0517365
0.0524699
0.0531368
0.0555495
0.0565731
0.0574951
0.0583115
0.0623953
0.0636756
0.0647839
0.0657212
0.0724548
0.0739669
0.0751897
0.076135
0.0872341
0.0887799
0.0898119
0.0904463
0.182511
0.120116
0.101614
0.0954039
0.0930468
0.0913211
0.0886983
0.085216
0.0816742
0.0781988
0.0742744
0.0698588
0.0651056
0.0602098
0.0556445
0.0519287
0.0497911
0.0514052
0.0904564
0.142751
0.118209
0.106559
0.100861
0.0977305
0.0947688
0.0909039
0.0867329
0.0829857
0.0795987
0.0760234
0.0720049
0.0675254
0.0627753
0.0581982
0.0543353
0.0519182
0.0527167
0.0759834
0.129006
0.11609
0.108406
0.10379
0.100608
0.0973025
0.093109
0.0886024
0.0846443
0.0812957
0.0780368
0.0744408
0.0703032
0.0656369
0.0606973
0.0560682
0.0528096
0.0531115
0.0693522
0.122378
0.114173
0.108543
0.104717
0.101733
0.0984974
0.0944596
0.0901136
0.0861849
0.0828823
0.0798882
0.0767744
0.0732351
0.0690657
0.0641523
0.0588636
0.0543532
0.0524262
0.0648131
0.118214
0.112503
0.10807
0.10466
0.101737
0.0986404
0.0950039
0.0910859
0.0873805
0.0841569
0.0813085
0.0785634
0.0756636
0.0723423
0.068257
0.0633269
0.0580134
0.0528758
0.0611542
0.115918
0.111541
0.107805
0.104621
0.101718
0.0987453
0.0954634
0.09196
0.0885344
0.0854142
0.0826183
0.0800162
0.0774493
0.0746942
0.0713563
0.0671542
0.0618298
0.0545204
0.056306
0.115307
0.111609
0.108259
0.10521
0.102332
0.0994513
0.0964187
0.0932405
0.090064
0.0870451
0.0842511
0.0816654
0.0791956
0.0765946
0.0733989
0.069277
0.0638278
0.0563546
0.0565631
0.116139
0.112791
0.10965
0.106689
0.10385
0.101052
0.0981979
0.0952516
0.0922656
0.0893371
0.0865611
0.083989
0.081633
0.0793378
0.076529
0.0729891
0.0686808
0.0635568
0.0699201
0.118138
0.11498
0.111963
0.109055
0.106257
0.103547
0.100831
0.0980503
0.0952065
0.09235
0.0896135
0.0871876
0.0852153
0.0835609
0.081665
0.0794933
0.0778217
0.0775261
0.0970068
0.121019
0.117984
0.115054
0.112162
0.109393
0.106775
0.104089
0.101272
0.0984166
0.0955582
0.0927821
0.0904712
0.0891682
0.0879867
0.0859867
0.0841454
0.0845606
0.0914398
0.130821
0.124118
0.120771
0.117603
0.114548
0.111658
0.109046
0.106719
0.104523
0.101834
0.0985874
0.0952719
0.0924023
0.0905805
0.0886274
0.0858975
0.0837238
0.0841939
0.0920691
0.155308
0.126017
0.12259
0.119397
0.116319
0.11332
0.110469
0.108042
0.105967
0.103755
0.100824
0.0969227
0.0927331
0.0891851
0.0859031
0.0830024
0.0809708
0.0816346
0.0912962
0.16949
0.127481
0.124134
0.121031
0.117947
0.114748
0.111334
0.108037
0.105298
0.102999
0.100417
0.096679
0.0918084
0.0869963
0.0830384
0.0800646
0.0783555
0.0797004
0.0913583
0.177772
0.127099
0.123853
0.120726
0.117552
0.114117
0.110302
0.106437
0.103162
0.100532
0.097891
0.0942313
0.089329
0.0842924
0.0800908
0.0770675
0.0755546
0.0775102
0.0908736
0.183881
0.123902
0.120867
0.117788
0.114562
0.110999
0.107081
0.103112
0.0996175
0.0966906
0.0938275
0.0902269
0.0856846
0.081013
0.0770364
0.0741466
0.0729439
0.075505
0.090074
0.188675
0.118111
0.115502
0.11262
0.109489
0.106049
0.102321
0.0985657
0.095117
0.0920631
0.0890535
0.0855861
0.0815764
0.0775492
0.0740477
0.0714946
0.0706372
0.0736311
0.0888785
0.19079
0.110819
0.108682
0.106139
0.103293
0.10017
0.0968372
0.0934656
0.090275
0.0872973
0.0843291
0.0811172
0.0776548
0.0742369
0.0712295
0.0690442
0.0684765
0.07168
0.0870552
0.189704
0.103151
0.101432
0.0992866
0.0968291
0.09413
0.0912703
0.088366
0.085531
0.0827814
0.0800141
0.077117
0.0741143
0.0711846
0.0685867
0.0666998
0.0663069
0.0695033
0.0845262
0.185609
0.0958673
0.0944892
0.0927245
0.0906764
0.0884199
0.0860264
0.0835699
0.0811096
0.0786522
0.0761512
0.0735662
0.0709301
0.0683629
0.0660623
0.0643713
0.0640313
0.0670431
0.0813509
0.179024
0.0893222
0.088211
0.0867761
0.0850993
0.0832415
0.0812563
0.0791886
0.0770686
0.0748994
0.0726624
0.0703486
0.0679915
0.0656803
0.063576
0.0619873
0.0616049
0.0643149
0.0776744
0.170588
0.083559
0.0826589
0.0814954
0.0801289
0.0786011
0.0769476
0.0751946
0.073357
0.071436
0.0694256
0.067329
0.0651771
0.0630411
0.0610584
0.0595083
0.0590297
0.0613871
0.0736979
0.161079
0.0784428
0.0777207
0.0767793
0.0756633
0.0743973
0.0730027
0.071494
0.0698783
0.0681562
0.0663264
0.0643967
0.0623945
0.0603801
0.0584749
0.0569338
0.0563482
0.0583634
0.0696392
0.151192
0.0737954
0.073232
0.0724763
0.0715623
0.0705024
0.0693079
0.0679868
0.0665426
0.0649758
0.0632876
0.0614868
0.0595986
0.0576769
0.0558323
0.0543004
0.0536314
0.0553611
0.0657064
0.141614
0.0694758
0.0690573
0.0684603
0.067712
0.0668167
0.0657798
0.0646058
0.063297
0.0618543
0.0602805
0.0585854
0.0567933
0.0549547
0.0531735
0.0516713
0.0509647
0.0524925
0.0620644
0.132772
0.0654117
0.0651237
0.0646637
0.064054
0.063294
0.0623858
0.0613324
0.0601358
0.058798
0.0573233
0.055723
0.0540217
0.052269
0.0505655
0.049123
0.0484315
0.0498481
0.0588245
0.125012
0.0615954
0.0614216
0.0610794
0.0605871
0.0599415
0.0591428
0.0581933
0.0570953
0.0558519
0.0544694
0.0529608
0.0513521
0.0496939
0.0480852
0.0467319
0.0461036
0.0474896
0.0560362
0.11839
0.0580634
0.0579864
0.0577444
0.0573524
0.0568057
0.0561033
0.0552469
0.0542396
0.0530855
0.0517927
0.0503761
0.0488638
0.0473079
0.0458078
0.0445652
0.044034
0.0454491
0.0537035
0.112954
0.054873
0.0548765
0.0547195
0.054414
0.0539542
0.0533383
0.0525678
0.051646
0.0505781
0.0493737
0.0480495
0.0466357
0.045186
0.0438005
0.042678
0.0422605
0.0437382
0.0517978
0.108544
0.0520848
0.0521557
0.0520717
0.0518419
0.0514599
0.0509233
0.0502332
0.049393
0.0484086
0.0472907
0.0460576
0.044741
0.0433958
0.0421223
0.0411171
0.0408116
0.0423608
0.0502897
0.105126
0.0497528
0.0498829
0.0498641
0.0497028
0.0493925
0.0489299
0.048316
0.0475539
0.0466502
0.0456163
0.0444712
0.0432474
0.0420004
0.0408297
0.0399289
0.0397205
0.0413315
0.0491651
0.102565
0.0479224
0.0481094
0.048153
0.0480572
0.0478152
0.0474237
0.0468831
0.0461967
0.0453713
0.0444184
0.0433578
0.0422216
0.0410648
0.0399851
0.0391719
0.0390393
0.0406933
0.0484588
0.100962
0.0466331
0.0468817
0.0469904
0.0469613
0.0467879
0.0464667
0.0459984
0.0453867
0.0446383
0.0437652
0.042787
0.0417353
0.0406636
0.0396667
0.0389287
0.0388551
0.0405381
0.0482676
0.100398
0.045926
0.0462483
0.0464306
0.0464739
0.0463722
0.0461233
0.0457285
0.0451922
0.044522
0.0437303
0.0428365
0.0418719
0.0408884
0.0399774
0.0393172
0.0393049
0.0410259
0.0487896
0.101282
0.0458533
0.0462691
0.046539
0.0466637
0.0466397
0.0464668
0.0461485
0.045691
0.0451031
0.0443983
0.0435969
0.0427308
0.0418517
0.0410494
0.0404978
0.040588
0.0424067
0.0503413
0.104076
0.0464905
0.0470267
0.0474018
0.0476192
0.0476797
0.0475875
0.0473499
0.046976
0.0464773
0.0458693
0.045175
0.0444292
0.0436874
0.0430435
0.0426743
0.0429722
0.0450398
0.0534169
0.109696
0.0479525
0.0486398
0.0491382
0.0494578
0.0496078
0.0495996
0.0494463
0.0491615
0.0487603
0.048262
0.0476943
0.0470995
0.0465444
0.046139
0.0460813
0.0467898
0.0494139
0.0587362
0.119309
0.0504149
0.0512804
0.0519127
0.0523367
0.0525749
0.0526496
0.0525812
0.0523889
0.0520924
0.0517161
0.0512951
0.0508846
0.0505735
0.0505096
0.0509505
0.0524032
0.056155
0.0673984
0.135127
0.0541405
0.0551916
0.0559489
0.0564632
0.0567765
0.056924
0.0569347
0.0568333
0.0566438
0.056396
0.0561342
0.0559307
0.0559091
0.056284
0.0574393
0.0601093
0.0659792
0.0811146
0.161206
0.0595085
0.0607056
0.0615411
0.0621048
0.0624616
0.0626594
0.0627338
0.0627128
0.0626233
0.0624985
0.0623901
0.062388
0.0626554
0.0634993
0.065514
0.0699093
0.0794349
0.102682
0.207668
0.0670332
0.0682512
0.0690613
0.0695987
0.0699458
0.0701562
0.0702667
0.0703043
0.0702944
0.0702694
0.0702819
0.0704286
0.0708986
0.0720805
0.0748171
0.0810732
0.0959663
0.136071
0.303563
0.0773434
0.0783383
0.078958
0.0793612
0.079626
0.0797972
0.0799031
0.0799638
0.0799977
0.0800296
0.080101
0.0802924
0.0807715
0.0819155
0.0846536
0.0915711
0.111223
0.181079
0.553572
0.0910928
0.0915143
0.0917524
0.0919048
0.092007
0.0920769
0.0921251
0.0921589
0.0921856
0.0922149
0.0922639
0.0923665
0.0925962
0.0931307
0.0944682
0.0983209
0.112496
0.195671
1.46782
)
;

boundaryField
{
    leftWall
    {
        type            epsilonWallFunction;
        value           nonuniform List<scalar> 
50
(
0.00509348
0.00908097
0.0152
0.0209556
0.0259992
0.0303261
0.0341253
0.037888
0.0431424
0.0533268
0.0534896
0.0500817
0.0513998
0.0599924
0.075316
0.112928
0.0989081
0.10771
0.126189
0.142525
0.155948
0.166079
0.17074
0.170497
0.166733
0.160567
0.152883
0.144315
0.135226
0.125863
0.116381
0.106919
0.0975779
0.0885161
0.0801702
0.0726343
0.0659901
0.0604003
0.056059
0.0531386
0.0517298
0.0518366
0.053381
0.0562584
0.0603942
0.0659369
0.0741029
0.0941985
0.246155
1.57018
)
;
    }
    rightWall
    {
        type            epsilonWallFunction;
        value           nonuniform List<scalar> 
50
(
0.0144179
0.0210258
0.0316076
0.0410719
0.0510255
0.0619211
0.073984
0.0894444
0.0904564
0.0759834
0.0693522
0.0648131
0.0611542
0.056306
0.0565631
0.0699201
0.0970068
0.130821
0.155308
0.16949
0.177772
0.183881
0.188675
0.19079
0.189704
0.185609
0.179024
0.170588
0.161079
0.151192
0.141614
0.132772
0.125012
0.11839
0.112954
0.108544
0.105126
0.102565
0.100962
0.100398
0.101282
0.104076
0.109696
0.119309
0.135127
0.161206
0.207668
0.303563
0.553572
1.46782
)
;
    }
    lowerWall
    {
        type            epsilonWallFunction;
        value           nonuniform List<scalar> 
62
(
0.00509348
0.0184534
0.0322312
0.0467629
0.0620887
0.0781963
0.0949141
0.111792
0.128512
0.144615
0.160028
0.174622
0.188065
0.199797
0.208993
0.214631
0.215548
0.210239
0.196654
0.172032
0.13303
0.0761503
0.0123244
0.0123244
0.0248286
0.0448597
0.0677434
0.0945914
0.130306
0.193045
0.339668
0.42094
0.352594
0.380743
0.49733
0.0115345
0.0234443
0.0442078
0.068271
0.0906543
0.120411
0.185146
0.356274
0.0115345
0.0703767
0.13861
0.201671
0.242573
0.268134
0.277673
0.266693
0.250127
0.235895
0.218038
0.195555
0.165572
0.139512
0.119694
0.0979767
0.0735684
0.0468431
0.0144179
)
;
    }
    atmosphere
    {
        type            inletOutlet;
        inletValue      uniform 0.1;
        value           nonuniform List<scalar> 
46
(
0.1
0.1
0.115499
0.0713771
0.0531361
0.0448257
0.0405861
0.0383116
0.0371268
0.0366095
0.036532
0.0367639
0.0372303
0.037896
0.0387638
0.0398919
0.0414412
0.0437916
0.0478314
0.0557814
0.1
0.1
0.1
0.1
0.1
0.1
0.1
0.1
0.1
0.1
0.1
0.1
0.1
0.1
0.1
0.1
0.1
0.1
0.1
0.1
0.1
0.1
0.1
0.1
0.1
0.1
)
;
    }
    defaultFaces
    {
        type            empty;
    }
}


// ************************************************************************* //
