/*--------------------------------*- C++ -*----------------------------------*\
  =========                 |
  \\      /  F ield         | OpenFOAM: The Open Source CFD Toolbox
   \\    /   O peration     | Website:  https://openfoam.org
    \\  /    A nd           | Version:  13
     \\/     M anipulation  |
\*---------------------------------------------------------------------------*/
FoamFile
{
    format      ascii;
    class       volScalarField;
    location    "2.15";
    object      k;
}
// * * * * * * * * * * * * * * * * * * * * * * * * * * * * * * * * * * * * * //

dimensions      [0 2 -2 0 0 0 0];

internalField   nonuniform List<scalar> 
2268
(
0.00113612
0.00266065
0.00385347
0.00492822
0.00593946
0.00690892
0.00784429
0.00874266
0.00959244
0.0103806
0.0111118
0.0117869
0.0123965
0.01292
0.0133255
0.0135739
0.0136194
0.0133991
0.0128174
0.0117226
0.00987695
0.006821
0.00202697
0.00273424
0.0064481
0.00900699
0.0112501
0.0133551
0.0153757
0.017324
0.0192025
0.0210006
0.0226948
0.0242835
0.0257615
0.0271033
0.028262
0.0291694
0.0297439
0.0298883
0.0294705
0.0282913
0.0260325
0.0221734
0.0159386
0.00533559
0.00384145
0.00877518
0.0119644
0.0147059
0.0172634
0.0197236
0.0221107
0.0244282
0.0266609
0.0287869
0.0307953
0.032672
0.034382
0.0358657
0.0370408
0.0378076
0.0380463
0.0375972
0.0362267
0.0335662
0.0290035
0.0214814
0.00790469
0.00474929
0.0106039
0.0142174
0.0172706
0.0201077
0.0228444
0.0255146
0.0281223
0.0306512
0.033079
0.035389
0.0375596
0.0395475
0.0412835
0.0426753
0.0436131
0.043967
0.0435679
0.0421745
0.0394061
0.0345973
0.026383
0.0104015
0.00547885
0.0121026
0.0160735
0.0193758
0.0224354
0.025393
0.0282902
0.0311326
0.0339057
0.0365868
0.0391551
0.0415831
0.0438195
0.0457863
0.0473832
0.0484944
0.048987
0.048693
0.0473789
0.0446749
0.0398914
0.0313688
0.012984
0.00607082
0.0133497
0.0176526
0.0211878
0.0244568
0.0276197
0.0307247
0.0337801
0.0367771
0.0396931
0.0425033
0.0451746
0.0476482
0.0498384
0.0516386
0.0529297
0.0535804
0.053431
0.0522665
0.049747
0.0452012
0.0367616
0.0160852
0.00657423
0.0144311
0.0190517
0.0228182
0.0262987
0.0296674
0.0329769
0.0362407
0.0394576
0.0426038
0.0456507
0.0485597
0.051265
0.0536737
0.0556754
0.0571501
0.0579696
0.0579867
0.057013
0.0547561
0.0506239
0.042755
0.0209027
0.00706585
0.0154289
0.0203575
0.0243539
0.0280503
0.0316304
0.0351481
0.0386269
0.0420702
0.0454448
0.0487214
0.0518658
0.0548032
0.0574318
0.0596357
0.0612911
0.0622711
0.0624457
0.06166
0.0596833
0.0560678
0.0493798
0.030414
0.00192301
0.00655398
0.0102268
0.0130556
0.0147364
0.0157358
0.0160551
0.0156461
0.0149894
0.0143865
0.0136559
0.0126879
0.0113252
0.0100686
0.00908898
0.00795803
0.00657756
0.00488708
0.00221003
0.00551315
0.0159981
0.0232377
0.0285446
0.031795
0.0335818
0.0343302
0.0339508
0.0326442
0.0311429
0.029382
0.02737
0.0247109
0.0221806
0.0201342
0.0177025
0.0147951
0.0111474
0.00504741
0.00841514
0.0222854
0.0306516
0.0365945
0.0402954
0.0423943
0.0433024
0.0428669
0.0412823
0.0393225
0.0371121
0.0346237
0.0315738
0.0285412
0.0257401
0.0226315
0.0190394
0.0144549
0.00663687
0.011199
0.0277952
0.0367598
0.0427846
0.0465997
0.0488081
0.0496703
0.0490333
0.047197
0.044966
0.0424878
0.0396943
0.036356
0.0329459
0.0296579
0.0261318
0.0221337
0.0168383
0.00793514
0.0135892
0.032909
0.0422991
0.0481528
0.0518723
0.0540661
0.0548205
0.0539113
0.0518543
0.0493465
0.0466131
0.0436506
0.0401775
0.036446
0.0327858
0.0289822
0.0247451
0.0191165
0.00918055
0.016564
0.0380851
0.0475733
0.0530379
0.0564147
0.0584181
0.059012
0.0578904
0.0557056
0.0530199
0.0500224
0.0467405
0.043271
0.0394035
0.035453
0.0314525
0.0270523
0.0213703
0.010446
0.0222254
0.0439492
0.0527691
0.0576109
0.0605425
0.0622077
0.0625135
0.061209
0.0588792
0.0560708
0.052924
0.0494494
0.04578
0.0418628
0.0377578
0.0336052
0.0290415
0.0232289
0.0118025
0.0342048
0.0507921
0.0579007
0.0619416
0.0643912
0.0656347
0.0655285
0.0639672
0.0615008
0.0586162
0.0553806
0.0518004
0.0479982
0.0439579
0.0397446
0.035433
0.0306757
0.024592
0.0133899
0.00772156
0.0167696
0.0221846
0.0265702
0.0306301
0.034553
0.0383815
0.0421546
0.0459253
0.0496808
0.0533768
0.0569544
0.0603177
0.0633369
0.0658786
0.0678095
0.0690144
0.069401
0.0688748
0.0673032
0.0644731
0.059838
0.0514074
0.00890007
0.0187964
0.0245544
0.0292729
0.0336004
0.0377801
0.0419315
0.0461638
0.0505393
0.0550285
0.0595351
0.0639282
0.0680387
0.0716854
0.0747231
0.077014
0.0784661
0.0790539
0.0787605
0.0775225
0.0753101
0.0721196
0.0681359
0.00899156
0.0198617
0.0261966
0.0313493
0.0360411
0.0406256
0.0453242
0.0502619
0.0554722
0.060881
0.0663226
0.0715852
0.0764256
0.0806329
0.0840441
0.0865116
0.0879826
0.0885259
0.0881888
0.0869568
0.0849628
0.0825587
0.0804845
0.00863087
0.0202767
0.0273656
0.0331254
0.0383859
0.0436151
0.0490997
0.0549542
0.0611751
0.0676012
0.0739841
0.0800372
0.0854393
0.0899534
0.0934184
0.0956904
0.0967992
0.0969264
0.0961905
0.0946603
0.0926059
0.0905446
0.0891135
0.00878542
0.0210352
0.0288291
0.0352242
0.0411806
0.0472365
0.0536597
0.0605128
0.0677331
0.0750539
0.0821478
0.0886676
0.0942239
0.098581
0.101632
0.103289
0.103715
0.103233
0.102024
0.100294
0.098358
0.0966103
0.095398
0.00985182
0.0229048
0.0312193
0.0381528
0.0447677
0.0515931
0.0588349
0.0664626
0.074343
0.0821424
0.0894521
0.0959137
0.10115
0.104984
0.10742
0.108525
0.108532
0.107776
0.106467
0.104826
0.103123
0.101599
0.100367
0.0116446
0.0255972
0.0343501
0.0417324
0.0488766
0.0562479
0.063936
0.07187
0.0799343
0.0877913
0.0949701
0.101133
0.105991
0.109422
0.111504
0.112394
0.112339
0.111615
0.110422
0.108965
0.107457
0.106029
0.104673
0.0149698
0.0291651
0.0382958
0.0460608
0.0535883
0.0612506
0.068961
0.0767703
0.0846958
0.0923682
0.0993068
0.105147
0.109672
0.112856
0.114804
0.115693
0.115748
0.115186
0.114184
0.112919
0.111553
0.11016
0.108669
0.0139673
0.0311199
0.0431572
0.0516899
0.0595654
0.0672762
0.0742649
0.0814932
0.0891956
0.0966834
0.10331
0.108698
0.112792
0.115726
0.117624
0.118611
0.118837
0.118481
0.117711
0.116675
0.115469
0.114137
0.112569
0.0141291
0.0310017
0.044928
0.0558803
0.0647699
0.0717985
0.078539
0.0859941
0.0940944
0.101547
0.107699
0.112136
0.115521
0.118259
0.120187
0.121257
0.121611
0.121443
0.120938
0.120188
0.119212
0.11798
0.116412
0.0154742
0.0330725
0.0451382
0.0554199
0.0643991
0.0719972
0.0797232
0.0881571
0.0967896
0.104251
0.109645
0.113741
0.117374
0.120566
0.122724
0.123762
0.124103
0.124069
0.12385
0.123449
0.122766
0.12164
0.119862
0.0168272
0.0354494
0.046181
0.0550079
0.0630614
0.0705175
0.0780152
0.0861557
0.0943747
0.101668
0.107677
0.112665
0.116893
0.120541
0.122954
0.124303
0.124997
0.125177
0.125048
0.124697
0.124051
0.123132
0.122012
0.0178756
0.037233
0.0472841
0.0550994
0.0621515
0.0689176
0.0758962
0.0832883
0.0907213
0.0975979
0.10339
0.108321
0.112702
0.116389
0.11922
0.121413
0.123125
0.124317
0.124969
0.125114
0.12482
0.12438
0.12369
0.0186445
0.0383163
0.0480474
0.0553059
0.0617084
0.0678164
0.0740179
0.0805
0.0870702
0.0933067
0.0988379
0.103732
0.108126
0.111864
0.114902
0.117387
0.119453
0.121124
0.122357
0.123143
0.123529
0.123693
0.123404
0.0190552
0.0387404
0.0483132
0.0552782
0.0613003
0.0669539
0.0725568
0.0782865
0.0840887
0.0897113
0.0948784
0.0995356
0.103727
0.107385
0.110467
0.113056
0.115246
0.117094
0.118625
0.119823
0.120688
0.121254
0.121304
0.0190974
0.0386328
0.048072
0.054864
0.0606588
0.0660268
0.0712384
0.0764452
0.081657
0.0867456
0.091517
0.0958639
0.0997686
0.103212
0.106181
0.108716
0.110884
0.112743
0.114334
0.115664
0.11672
0.117473
0.117733
0.0188641
0.0380927
0.0473981
0.054045
0.0596822
0.0648511
0.0698057
0.0746676
0.0794666
0.0841382
0.0885529
0.0925998
0.0962302
0.0994348
0.102221
0.104617
0.10667
0.108431
0.109941
0.111218
0.112259
0.113037
0.113399
0.0184341
0.0372268
0.0463692
0.0528785
0.0583679
0.0633749
0.0681356
0.072755
0.0772657
0.08163
0.0857596
0.0895581
0.0929666
0.0959702
0.0985789
0.100819
0.10273
0.104355
0.105732
0.106885
0.107822
0.108531
0.108914
0.0178701
0.0361246
0.0450668
0.0514284
0.0567673
0.0616202
0.066207
0.0706306
0.0749195
0.0790505
0.0829572
0.0865608
0.0898027
0.0926593
0.0951354
0.0972528
0.0990443
0.100548
0.101801
0.102832
0.103655
0.104275
0.104634
0.0172181
0.0348543
0.043561
0.0497595
0.0549437
0.0596372
0.0640538
0.068296
0.0723916
0.0763259
0.0800485
0.0834947
0.0866102
0.0893657
0.0917572
0.093799
0.0955176
0.096946
0.0981185
0.0990647
0.0998063
0.100356
0.100685
0.0165047
0.033465
0.0419079
0.0479297
0.0529554
0.0574855
0.0617318
0.0657951
0.069706
0.0734584
0.0770141
0.0803212
0.0833313
0.0860126
0.0883537
0.0903603
0.0920512
0.0934531
0.0945961
0.0955089
0.0962151
0.0967313
0.0970505
0.0157478
0.0319932
0.0401523
0.0459888
0.0508544
0.0552242
0.0593022
0.0631884
0.0669185
0.0704939
0.0738883
0.0770612
0.0799715
0.0825881
0.0848944
0.0868891
0.0885829
0.0899956
0.0911514
0.0920756
0.0927905
0.0933135
0.0936509
0.0149588
0.0304668
0.038331
0.0439794
0.048689
0.0529056
0.0568229
0.0605389
0.0640946
0.0674984
0.0707342
0.0737727
0.0765808
0.0791303
0.0814031
0.0833924
0.0851022
0.0865452
0.0877393
0.0887046
0.0894602
0.0900214
0.0904024
0.0141474
0.0289093
0.0364763
0.0419405
0.0465042
0.0505768
0.0543467
0.0579061
0.0612997
0.0645415
0.0676247
0.0705298
0.0732321
0.0757082
0.0779403
0.0799192
0.0816438
0.0831208
0.0843618
0.0853814
0.0861941
0.0868121
0.0872531
0.0133215
0.0273434
0.0346212
0.0399115
0.0443374
0.0482825
0.051922
0.055344
0.0585936
0.0616889
0.0646308
0.0674082
0.0700043
0.0724013
0.0745839
0.0765422
0.0782721
0.0797758
0.0810596
0.082133
0.0830058
0.0836865
0.0841933
0.0124986
0.0257988
0.0327972
0.0379257
0.0422295
0.046066
0.0495964
0.0529031
0.0560302
0.0589989
0.0618154
0.0644759
0.0669703
0.0692866
0.0714128
0.07334
0.075063
0.0765809
0.0778964
0.0790143
0.0799405
0.0806802
0.08125
0.0117128
0.0242915
0.0310383
0.0360255
0.0402273
0.0439754
0.0474181
0.050632
0.0536593
0.0565227
0.0592325
0.0617901
0.0641915
0.0664296
0.0684964
0.0703847
0.0720896
0.0736087
0.074942
0.0760916
0.0770597
0.0778488
0.0784729
0.0109751
0.0228714
0.029395
0.0342637
0.0383838
0.042063
0.0454378
0.0485792
0.0515273
0.0543056
0.0569268
0.0593966
0.0617157
0.0638812
0.0658889
0.0677339
0.0694124
0.0709217
0.0722604
0.0734284
0.0744259
0.0752533
0.0759219
0.0103005
0.0215881
0.027925
0.0326998
0.0367574
0.0403845
0.0437074
0.0467923
0.0496774
0.0523866
0.0549345
0.0573299
0.0595769
0.0616766
0.0636277
0.0654281
0.0670751
0.0685667
0.0699011
0.071077
0.0720931
0.0729484
0.0736532
0.00971262
0.0205001
0.0266914
0.0313963
0.035408
0.0389951
0.0422766
0.045315
0.0481473
0.0507978
0.0532828
0.0556133
0.0577964
0.059836
0.0617337
0.0634897
0.0651031
0.0665725
0.0678964
0.0690732
0.0701008
0.0709775
0.0717117
0.00924005
0.0196628
0.0257538
0.0304112
0.0343889
0.0379431
0.0411874
0.0441825
0.0469655
0.0495614
0.051988
0.0542585
0.0563822
0.0583655
0.0602125
0.0619253
0.0635046
0.0649503
0.0662615
0.0674365
0.0684729
0.069369
0.0701297
0.00891019
0.0191208
0.0251584
0.0297883
0.0337402
0.0372628
0.0404681
0.0434169
0.0461475
0.0486866
0.0510539
0.0532644
0.0553296
0.057258
0.0590557
0.0607266
0.0622732
0.0636965
0.0649965
0.0661717
0.0672194
0.0681378
0.0689284
0.00874095
0.0188973
0.0249303
0.0295515
0.033482
0.03697
0.0401292
0.0430231
0.0456929
0.0481679
0.0504701
0.0526168
0.0546212
0.0564939
0.0582426
0.0598731
0.0613897
0.0627949
0.0640895
0.0652724
0.0663408
0.0672909
0.0681214
0.00873724
0.0189941
0.025072
0.0297025
0.0336138
0.0370603
0.0401618
0.0429878
0.0455842
0.0479839
0.050212
0.0522881
0.0542273
0.0560419
0.0577415
0.059334
0.0608254
0.06222
0.0635203
0.0647254
0.0658317
0.0668322
0.0677218
0.00889017
0.0193929
0.0255678
0.0302256
0.0341171
0.0375111
0.0405393
0.0432805
0.0457873
0.048098
0.050241
0.0522382
0.0541068
0.0558607
0.0575116
0.0590695
0.0605432
0.0619399
0.0632641
0.0645155
0.0656884
0.0667707
0.06775
0.00918333
0.0200685
0.026394
0.0310954
0.0349611
0.0382855
0.0412191
0.0438543
0.0462532
0.0484597
0.0505059
0.052416
0.0542089
0.0559002
0.0575039
0.0590331
0.0605007
0.0619184
0.0632949
0.0646311
0.0659168
0.0671299
0.0682452
0.00960037
0.0210043
0.0275367
0.0322889
0.0361096
0.039335
0.0421444
0.044648
0.0469187
0.049006
0.0509449
0.0527612
0.054475
0.0561036
0.0576637
0.0591728
0.0606506
0.0621171
0.0635891
0.0650706
0.0665431
0.0679633
0.0692819
0.0101461
0.0222488
0.0290345
0.0338076
0.0375284
0.0406015
0.0432441
0.0455858
0.0477079
0.0496632
0.0514876
0.0532067
0.0548411
0.0564095
0.057932
0.0594328
0.0609422
0.0624962
0.0641283
0.065852
0.0676328
0.0693769
0.0709926
0.0109337
0.0241787
0.0311251
0.0357281
0.0391941
0.0420134
0.0444293
0.046576
0.048533
0.0503495
0.0520581
0.0536822
0.0552413
0.0567551
0.0582483
0.0597543
0.0613209
0.0630123
0.0648995
0.0670249
0.0693261
0.07157
0.0736009
0.0128934
0.0290848
0.0347976
0.0383167
0.0410939
0.0434717
0.0455843
0.047509
0.0492958
0.0509781
0.0525795
0.0541182
0.0556116
0.0570801
0.0585533
0.0600771
0.061725
0.0636096
0.0658828
0.0686828
0.0719325
0.0749149
0.077463
0.025376
0.0470198
0.0430526
0.0420932
0.0431531
0.044808
0.0465544
0.0482578
0.0498931
0.0514638
0.0529796
0.054452
0.0558956
0.0573311
0.058793
0.0603408
0.06208
0.0641961
0.0670013
0.0709459
0.0762797
0.0801786
0.0831343
0.0852775
0.0874218
0.057295
0.0466051
0.0448788
0.0457053
0.0471393
0.0486874
0.0502275
0.051732
0.0531986
0.0546338
0.0560497
0.0574674
0.0589244
0.06049
0.0622965
0.064605
0.0679625
0.0736498
0.0854401
0.0894436
0.0917678
0.0353773
0.0311346
0.0326982
0.0391282
0.0660874
0.0662535
0.0672429
0.0684887
0.0801263
0.0803645
0.080712
0.0808237
0.0888393
0.0887681
0.0886305
0.0883439
0.0948461
0.09448
0.0940428
0.093524
0.0995145
0.0989352
0.0983087
0.0976391
0.103588
0.102865
0.10211
0.101328
0.107394
0.10656
0.10571
0.104843
0.111107
0.110165
0.109234
0.108301
0.114822
0.113773
0.11275
0.111743
0.118248
0.117149
0.116077
0.115032
0.121002
0.119879
0.118551
0.117354
0.122562
0.12153
0.120369
0.119213
0.122618
0.121864
0.120933
0.119937
0.120838
0.120357
0.119723
0.118978
0.11753
0.117271
0.116885
0.116383
0.113372
0.113262
0.113049
0.112731
0.108976
0.108944
0.108828
0.108626
0.104722
0.104718
0.104646
0.104504
0.100771
0.100773
0.100718
0.100605
0.0971371
0.0971405
0.0970954
0.0970006
0.0937515
0.093764
0.0937327
0.0936567
0.0905331
0.0905651
0.0905556
0.0905039
0.0874259
0.0874856
0.0875053
0.0874836
0.0844146
0.0845068
0.0845594
0.0845711
0.0815201
0.0816454
0.0817319
0.0817776
0.0787886
0.0789454
0.0790637
0.0791417
0.076277
0.0764615
0.0766085
0.0767157
0.0740414
0.0742498
0.0744216
0.0745547
0.0721282
0.0723576
0.0725515
0.0727078
0.070573
0.0708221
0.071037
0.0712155
0.0694004
0.0696704
0.0699076
0.0701094
0.0686292
0.0689245
0.0691877
0.0694164
0.0682782
0.0686063
0.0689028
0.069165
0.0683751
0.0687479
0.0690882
0.0693932
0.0689674
0.069401
0.0697995
0.0701592
0.0701389
0.0706539
0.0711267
0.0715537
0.0720304
0.0726488
0.0732116
0.0737155
0.0748658
0.0756061
0.0762663
0.0768454
0.0789778
0.0798407
0.0805853
0.0812133
0.0848271
0.0857745
0.0865454
0.0871465
0.0931603
0.0940223
0.0946149
0.0949922
0.0552678
0.0614413
0.0655873
0.068335
0.0699853
0.0704625
0.0695892
0.0675658
0.0649421
0.0619874
0.0586656
0.0549867
0.0510302
0.0468209
0.0424342
0.037825
0.0326619
0.0257299
0.0134627
0.070618
0.0725803
0.0743467
0.0756323
0.0762589
0.0757993
0.0740624
0.0714617
0.0685074
0.0653631
0.0619138
0.0581086
0.0539367
0.0494125
0.0445758
0.0393326
0.0332294
0.024886
0.0118201
0.0807302
0.0808231
0.0811867
0.0813984
0.0811631
0.0800232
0.0777303
0.0746469
0.0713106
0.0679103
0.0643163
0.0603886
0.0560316
0.0511817
0.0457871
0.0397442
0.0326987
0.0236207
0.0111079
0.0876889
0.0868524
0.0862865
0.0857078
0.0847989
0.0831313
0.0804719
0.0771033
0.0734658
0.0697793
0.0659844
0.0619234
0.0574575
0.0524446
0.0467145
0.0401631
0.032679
0.0235253
0.0106632
0.092612
0.0913364
0.090178
0.0889653
0.0874584
0.0853535
0.0824711
0.0789597
0.0751183
0.0711582
0.0670918
0.0628172
0.0582071
0.0531031
0.0472842
0.040603
0.0330025
0.0237901
0.0103406
0.0965416
0.0949741
0.0933986
0.0916979
0.0897138
0.0872601
0.0842039
0.0805996
0.0766267
0.072445
0.0681006
0.0635407
0.058673
0.0533583
0.0473704
0.0405384
0.0326724
0.0229793
0.00976575
0.100068
0.0982543
0.0963652
0.0943076
0.0919786
0.0892671
0.0860804
0.0824226
0.0783829
0.0740628
0.0695117
0.064717
0.0596097
0.054042
0.0477433
0.040517
0.032123
0.0219189
0.00985609
0.103459
0.101452
0.0993344
0.097034
0.094484
0.0916181
0.0883688
0.0847106
0.0806754
0.0763231
0.0717031
0.0668243
0.0616661
0.0561171
0.0497839
0.0424199
0.0337607
0.0231436
0.0114245
0.106821
0.104678
0.102415
0.0999652
0.0972977
0.0943792
0.0911459
0.0875576
0.0836094
0.0793288
0.0747835
0.0700354
0.0651306
0.0599319
0.0539325
0.0467913
0.0381981
0.0271765
0.0142221
0.110163
0.107953
0.105614
0.103082
0.100373
0.097483
0.0942958
0.0907703
0.0869321
0.0827793
0.0783608
0.0738902
0.06956
0.0647488
0.0587439
0.0515272
0.0430097
0.0322879
0.017269
0.113267
0.110839
0.108335
0.105696
0.102929
0.100087
0.0971789
0.0941171
0.0905547
0.0864264
0.0819755
0.0775233
0.0732776
0.0684785
0.0624901
0.0555421
0.0476079
0.0375109
0.0193085
0.115549
0.113069
0.110561
0.107944
0.105183
0.102319
0.0995048
0.0966816
0.0935547
0.0898105
0.0853342
0.0805054
0.0757042
0.0705173
0.0647107
0.0580968
0.0503598
0.0400939
0.0204493
0.117455
0.115048
0.112634
0.110081
0.107313
0.104283
0.101171
0.0981696
0.0951799
0.0918089
0.0876231
0.0826416
0.077359
0.0719627
0.0662351
0.0597898
0.0520899
0.0414774
0.0211171
0.118327
0.116019
0.113655
0.111133
0.108337
0.105208
0.101912
0.0987553
0.0957351
0.0924829
0.0884768
0.0835794
0.0782511
0.0727916
0.0670718
0.0606578
0.0529494
0.0422611
0.0216178
0.117625
0.115477
0.113193
0.110711
0.107923
0.104813
0.101535
0.0983466
0.0952654
0.0919997
0.0881077
0.0834417
0.0783243
0.0729962
0.0673365
0.0610019
0.0533955
0.042785
0.0219991
0.115349
0.113474
0.111343
0.108962
0.106287
0.103325
0.100207
0.0970926
0.0940036
0.0907218
0.0869468
0.0825788
0.0778061
0.072731
0.0672431
0.0610557
0.053581
0.043051
0.0221656
0.111975
0.110402
0.108496
0.106305
0.103836
0.101118
0.0982357
0.0952928
0.0922811
0.0890583
0.0854495
0.0813952
0.0769567
0.0721509
0.0668648
0.0608361
0.0534786
0.0430154
0.0220869
0.108072
0.106775
0.105125
0.103178
0.100968
0.0985355
0.0959339
0.0932107
0.0903507
0.0872654
0.0838528
0.0800672
0.0759069
0.0713362
0.0662323
0.0603383
0.0530701
0.0426636
0.0217803
0.104081
0.103017
0.101613
0.0999247
0.0979895
0.095842
0.0935139
0.0910225
0.0883485
0.0854347
0.082217
0.0786529
0.0747093
0.0703222
0.0653596
0.0595643
0.0523585
0.0420114
0.0212796
0.100264
0.0993867
0.0982013
0.0967524
0.0950707
0.0931805
0.0910968
0.0888208
0.0863315
0.0835878
0.0805427
0.0771535
0.0733713
0.0691178
0.0642552
0.058527
0.0513679
0.0410963
0.0206273
0.0967184
0.0959897
0.0949875
0.0937441
0.0922788
0.0906045
0.0887251
0.0866328
0.084306
0.0817107
0.078807
0.0755509
0.0718859
0.0677268
0.0629339
0.0572547
0.0501419
0.0399748
0.0198755
0.0934272
0.0928236
0.0919734
0.0908998
0.0896109
0.0881103
0.0863941
0.0844501
0.0822561
0.0797813
0.0769885
0.0738324
0.0702534
0.066164
0.0614256
0.0557932
0.0487411
0.0387156
0.0190745
0.0903296
0.0898373
0.0891157
0.0881816
0.0870347
0.0856715
0.0840838
0.0822567
0.0801681
0.0777887
0.0750825
0.0720041
0.068493
0.0644623
0.0597775
0.0542026
0.0472363
0.0373928
0.0182766
0.0873689
0.0869794
0.0863694
0.085552
0.0845207
0.0832678
0.0817824
0.0800487
0.0780449
0.075743
0.0731079
0.0700951
0.0666451
0.0626737
0.0580514
0.0525536
0.0457025
0.0360772
0.0175195
0.0845178
0.084224
0.0837133
0.0829957
0.0820615
0.0809002
0.0794998
0.0778443
0.0759127
0.0736781
0.0711068
0.0681559
0.0647682
0.0608632
0.0563181
0.050919
0.0442106
0.0348304
0.0168361
0.0817845
0.0815787
0.0811568
0.0805268
0.0796771
0.0785956
0.0772699
0.0756844
0.0738188
0.0716476
0.0691389
0.0662517
0.0629319
0.0591033
0.0546496
0.0493677
0.0428218
0.0336992
0.0162384
0.0792045
0.079078
0.078736
0.0781844
0.0774107
0.0764019
0.0751457
0.0736267
0.0718256
0.0697182
0.0672742
0.064455
0.0612096
0.057466
0.0531141
0.0479602
0.0415847
0.0327156
0.0157363
0.0768288
0.076773
0.0765031
0.076023
0.0753196
0.0743797
0.0731907
0.0717378
0.0700023
0.0679612
0.0655856
0.062839
0.0596729
0.056019
0.0517723
0.046747
0.0405359
0.0318984
0.0153226
0.0747123
0.07472
0.074516
0.0741025
0.0734658
0.072593
0.0714712
0.0700857
0.0684183
0.0664469
0.0641436
0.061473
0.0583885
0.0548241
0.0506786
0.0457712
0.0397042
0.0312597
0.0149981
0.0729058
0.0729721
0.0728302
0.0724804
0.0719091
0.0711032
0.0700497
0.0687341
0.0671384
0.0652405
0.0630132
0.0604211
0.057418
0.0539388
0.0498833
0.0450739
0.0391179
0.0308122
0.0147553
0.0714521
0.0715755
0.0714948
0.0712083
0.0707028
0.0699652
0.0689825
0.0677403
0.0662206
0.0644012
0.0622541
0.0597432
0.0568209
0.0534203
0.0494398
0.044701
0.0388129
0.0305787
0.0146058
0.0703864
0.0705695
0.070552
0.070331
0.0698936
0.0692273
0.0683194
0.0671556
0.0657179
0.0639833
0.0619227
0.0594978
0.0566575
0.0533304
0.0494098
0.0447118
0.0388415
0.0305987
0.0145596
0.0697395
0.0699892
0.0700404
0.0698892
0.0695241
0.0689335
0.0681057
0.0670269
0.0656792
0.0640389
0.0620749
0.0597454
0.0569938
0.053741
0.04987
0.0451855
0.0392804
0.030938
0.0146553
0.0695441
0.0698713
0.069999
0.0699238
0.0696362
0.0691268
0.0683857
0.0674004
0.0661534
0.0646206
0.0627685
0.0605511
0.0579041
0.0547371
0.0509172
0.0462281
0.0402379
0.0316926
0.0149346
0.0698423
0.0702606
0.0704738
0.0704808
0.0702759
0.0698533
0.0692063
0.0683246
0.0671919
0.065784
0.0640656
0.061986
0.0594723
0.0564194
0.0526711
0.0479777
0.0418621
0.0330001
0.0154751
0.0706947
0.0712178
0.0715238
0.0716169
0.0714978
0.0711664
0.0706205
0.0698532
0.0688504
0.0675888
0.0660323
0.0641265
0.0617902
0.0589015
0.0552743
0.0506092
0.0443514
0.0350492
0.0163667
0.0721911
0.0728274
0.0732266
0.0734036
0.0733689
0.0731299
0.0726903
0.0720475
0.0711908
0.0700992
0.0687375
0.0670504
0.0649509
0.0623025
0.0588859
0.0543348
0.0479698
0.038114
0.0177703
0.0744621
0.0752046
0.0756835
0.0759313
0.0759714
0.0758204
0.0754884
0.0749777
0.0742814
0.0733825
0.0722494
0.07083
0.0690383
0.0667313
0.0636634
0.0593943
0.0530654
0.0426064
0.0199564
0.0776865
0.0784982
0.07902
0.0793092
0.0794037
0.0793289
0.0791001
0.0787238
0.0781973
0.0775084
0.0766321
0.0755251
0.0741123
0.0722611
0.0697253
0.0660167
0.0600758
0.0492045
0.0235567
0.0820902
0.0828854
0.0833818
0.0836641
0.083781
0.0837622
0.0836253
0.0833787
0.0830228
0.0825508
0.0819463
0.0811799
0.0801982
0.0789023
0.0770933
0.0743257
0.0694618
0.0590568
0.0301883
0.0879211
0.088551
0.0889232
0.0891354
0.089234
0.0892443
0.0891807
0.0890502
0.0888547
0.0885918
0.0882539
0.0878272
0.0872863
0.0865838
0.0856196
0.0841417
0.0813554
0.0739384
0.0447564
0.0953901
0.0956517
0.0957927
0.0958722
0.0959114
0.0959206
0.0959053
0.0958683
0.0958109
0.0957331
0.0956338
0.0955111
0.0953622
0.0951842
0.0949758
0.0947432
0.0945015
0.0940502
0.0872242
)
;

boundaryField
{
    leftWall
    {
        type            kqRWallFunction;
        value           nonuniform List<scalar> 
50
(
0.00113612
0.00273424
0.00384145
0.00474929
0.00547885
0.00607082
0.00657423
0.00706585
0.00772156
0.00890007
0.00899156
0.00863087
0.00878542
0.00985182
0.0116446
0.0149698
0.0139673
0.0141291
0.0154742
0.0168272
0.0178756
0.0186445
0.0190552
0.0190974
0.0188641
0.0184341
0.0178701
0.0172181
0.0165047
0.0157478
0.0149588
0.0141474
0.0133215
0.0124986
0.0117128
0.0109751
0.0103005
0.00971262
0.00924005
0.00891019
0.00874095
0.00873724
0.00889017
0.00918333
0.00960037
0.0101461
0.0109337
0.0128934
0.025376
0.0852775
)
;
    }
    rightWall
    {
        type            kqRWallFunction;
        value           nonuniform List<scalar> 
50
(
0.00221003
0.00504741
0.00663687
0.00793514
0.00918055
0.010446
0.0118025
0.0133899
0.0134627
0.0118201
0.0111079
0.0106632
0.0103406
0.00976575
0.00985609
0.0114245
0.0142221
0.017269
0.0193085
0.0204493
0.0211171
0.0216178
0.0219991
0.0221656
0.0220869
0.0217803
0.0212796
0.0206273
0.0198755
0.0190745
0.0182766
0.0175195
0.0168361
0.0162384
0.0157363
0.0153226
0.0149981
0.0147553
0.0146058
0.0145596
0.0146553
0.0149346
0.0154751
0.0163667
0.0177703
0.0199564
0.0235567
0.0301883
0.0447564
0.0872242
)
;
    }
    lowerWall
    {
        type            kqRWallFunction;
        value           nonuniform List<scalar> 
62
(
0.00113612
0.00266065
0.00385347
0.00492822
0.00593946
0.00690892
0.00784429
0.00874266
0.00959244
0.0103806
0.0111118
0.0117869
0.0123965
0.01292
0.0133255
0.0135739
0.0136194
0.0133991
0.0128174
0.0117226
0.00987695
0.006821
0.00202697
0.00202697
0.00533559
0.00790469
0.0104015
0.012984
0.0160852
0.0209027
0.030414
0.0353773
0.0311346
0.0326982
0.0391282
0.00192301
0.00551315
0.00841514
0.011199
0.0135892
0.016564
0.0222254
0.0342048
0.00192301
0.00655398
0.0102268
0.0130556
0.0147364
0.0157358
0.0160551
0.0156461
0.0149894
0.0143865
0.0136559
0.0126879
0.0113252
0.0100686
0.00908898
0.00795803
0.00657756
0.00488708
0.00221003
)
;
    }
    atmosphere
    {
        type            inletOutlet;
        inletValue      uniform 0.1;
        value           nonuniform List<scalar> 
46
(
0.1
0.1
0.057295
0.0466051
0.0448788
0.0457053
0.0471393
0.0486874
0.0502275
0.051732
0.0531986
0.0546338
0.0560497
0.0574674
0.0589244
0.06049
0.0622965
0.064605
0.0679625
0.0736498
0.1
0.1
0.1
0.1
0.1
0.1
0.1
0.1
0.1
0.1
0.1
0.1
0.1
0.1
0.1
0.1
0.1
0.1
0.1
0.1
0.1
0.1
0.1
0.1
0.1
0.1
)
;
    }
    defaultFaces
    {
        type            empty;
    }
}


// ************************************************************************* //
