/*--------------------------------*- C++ -*----------------------------------*\
  =========                 |
  \\      /  F ield         | OpenFOAM: The Open Source CFD Toolbox
   \\    /   O peration     | Website:  https://openfoam.org
    \\  /    A nd           | Version:  13
     \\/     M anipulation  |
\*---------------------------------------------------------------------------*/
FoamFile
{
    format      ascii;
    class       volScalarField;
    location    "2.15";
    object      nut;
}
// * * * * * * * * * * * * * * * * * * * * * * * * * * * * * * * * * * * * * //

dimensions      [0 2 -1 0 0 0 0];

internalField   nonuniform List<scalar> 
2268
(
2.28074e-05
3.45257e-05
4.14639e-05
4.67436e-05
5.11356e-05
5.49385e-05
5.83471e-05
6.15344e-05
6.44402e-05
6.70622e-05
6.94408e-05
7.16052e-05
7.35411e-05
7.51926e-05
7.64677e-05
7.72613e-05
7.74493e-05
7.68565e-05
7.51866e-05
7.18921e-05
6.5999e-05
5.49879e-05
3.00036e-05
7.4094e-05
0.000271029
0.000363825
0.000425401
0.00047493
0.000517396
0.000554823
0.000589253
0.000622066
0.00065282
0.000682082
0.000710209
0.000736598
0.000759812
0.000777888
0.000789113
0.000791938
0.000784301
0.00076236
0.000718148
0.000633772
0.000473707
0.000103194
8.73755e-05
0.000444203
0.000651566
0.000789829
0.000899825
0.000994881
0.00108019
0.00115935
0.00123452
0.00130581
0.00137392
0.00143909
0.00149968
0.00155223
0.00159231
0.00161566
0.00161805
0.00159373
0.0015327
0.00141534
0.00120188
0.000814361
0.000125359
9.68723e-05
0.00056542
0.000876623
0.00108904
0.00125748
0.00140368
0.00153643
0.00166075
0.00177942
0.00189291
0.0020015
0.00210465
0.0021992
0.00227964
0.00233919
0.0023711
0.00236828
0.00232103
0.00221291
0.00201305
0.0016629
0.00105871
0.000143737
0.000103911
0.000654734
0.0010571
0.00133855
0.00156161
0.00175544
0.00193273
0.00210005
0.0022609
0.00241575
0.00256397
0.00270358
0.00282962
0.00293456
0.00300967
0.00304612
0.00303438
0.00296134
0.00280513
0.00252564
0.00204945
0.00125747
0.000160401
0.000109375
0.0007239
0.00120566
0.00155027
0.00182396
0.00206202
0.00228095
0.0024889
0.00269011
0.00288471
0.00307072
0.00324423
0.00339832
0.00352369
0.00361023
0.00364769
0.00362478
0.00352602
0.00332576
0.00297725
0.0023946
0.00144163
0.000178703
0.000113987
0.000781756
0.00133253
0.00173367
0.00205371
0.00233281
0.00259086
0.00283749
0.00307737
0.00330987
0.00353127
0.00373551
0.00391368
0.00405522
0.0041493
0.00418501
0.0041501
0.00402795
0.00379115
0.00338949
0.00272676
0.00163254
0.000203699
0.000118596
0.000833543
0.00144565
0.00189606
0.00225778
0.00257493
0.00286994
0.00315383
0.00343093
0.00369943
0.00395353
0.00418493
0.00438313
0.00453679
0.00463506
0.00466709
0.00462046
0.00447859
0.00421441
0.00377851
0.00307219
0.00187776
0.000245096
2.8854e-05
5.49319e-05
6.79089e-05
7.60667e-05
8.05717e-05
8.31128e-05
8.35482e-05
8.26117e-05
8.08449e-05
7.89649e-05
7.69754e-05
7.4089e-05
6.97184e-05
6.53993e-05
6.21158e-05
5.81743e-05
5.29273e-05
4.58876e-05
3.04886e-05
0.000116682
0.000502206
0.0006753
0.000771505
0.0008218
0.000840567
0.000843549
0.000838627
0.000811706
0.000783847
0.000750876
0.000712016
0.000643794
0.00058606
0.000558622
0.000517031
0.00045437
0.000344237
0.00010905
0.000144167
0.000881414
0.00128945
0.0015216
0.00164274
0.00169296
0.00170607
0.00168875
0.00162987
0.00156232
0.0014881
0.00140131
0.00128045
0.00116447
0.00107343
0.000964689
0.000814579
0.000560699
0.000125423
0.000165336
0.0011553
0.00178105
0.00214327
0.0023373
0.00242653
0.00245231
0.0024223
0.00233664
0.00223068
0.00211671
0.00198692
0.00183141
0.00166716
0.00151263
0.00133571
0.0010973
0.000702667
0.000137977
0.000183333
0.00135888
0.00218238
0.00265662
0.00291522
0.0030402
0.00307738
0.00303695
0.00292991
0.00278895
0.00264052
0.00247527
0.00229376
0.00209252
0.00188363
0.00164591
0.00133081
0.000832533
0.00014866
0.00020507
0.00151978
0.00252843
0.00309621
0.00340339
0.00355509
0.00359958
0.00354937
0.00342489
0.00325736
0.0030804
0.00288247
0.00267698
0.00244741
0.00219489
0.00190597
0.00152816
0.000963821
0.000158599
0.00024012
0.0016862
0.0028545
0.00348877
0.00382669
0.00399406
0.00403948
0.00397913
0.00383876
0.00365118
0.0034503
0.00322763
0.00299373
0.00273916
0.00245201
0.00211962
0.00168855
0.00105918
0.000169454
0.000295551
0.00194366
0.00319821
0.00385427
0.00420293
0.00437424
0.00441429
0.00434212
0.00418695
0.00398288
0.00376087
0.00351701
0.00325815
0.00297663
0.00265898
0.00228672
0.00180766
0.00111963
0.000180403
0.00012438
0.000909529
0.00160053
0.00211605
0.0025378
0.00291355
0.00326708
0.00360839
0.00394218
0.0042645
0.00456577
0.00483424
0.00505777
0.00522479
0.00532522
0.00534915
0.00528526
0.00511859
0.00482545
0.00436531
0.00366991
0.00264637
0.00130948
0.000133685
0.00104716
0.00179227
0.00235746
0.00283702
0.00327679
0.00369863
0.00411292
0.00451917
0.00490716
0.00526175
0.00556815
0.00581401
0.00598962
0.00608809
0.00610241
0.00602445
0.00584408
0.00554658
0.00510939
0.0045028
0.00370358
0.00275897
0.000136033
0.00108963
0.00186887
0.00248957
0.00303852
0.00355643
0.00406117
0.00455623
0.00503307
0.00547594
0.0058682
0.0061968
0.00645264
0.00662992
0.0067248
0.00673309
0.00665016
0.00647157
0.00619214
0.00580607
0.00531278
0.00473684
0.00416913
0.000133867
0.00106617
0.00187618
0.00256362
0.00319532
0.00380334
0.00439695
0.0049692
0.00550501
0.00598719
0.00640231
0.00674199
0.00700105
0.00717706
0.00726892
0.00727505
0.00719482
0.00703006
0.00678449
0.0064651
0.00608915
0.00569761
0.00537114
0.000135147
0.00104971
0.00189864
0.00265528
0.00337098
0.00406646
0.00473849
0.00537067
0.00594602
0.00645053
0.00687587
0.00721836
0.00747574
0.00764833
0.00773799
0.00774606
0.00767641
0.00753667
0.00733648
0.00708997
0.00682019
0.00656398
0.00637538
0.000145606
0.00111393
0.00200458
0.00282019
0.00360618
0.00436865
0.00509277
0.00575809
0.00635041
0.0068607
0.00728478
0.00762267
0.00787476
0.00804416
0.00813584
0.00815465
0.00810729
0.00800375
0.00785584
0.00767864
0.00749321
0.00732652
0.00720928
0.000162033
0.00122228
0.00217785
0.00305255
0.00389259
0.00469513
0.00544075
0.0061132
0.00670412
0.00720879
0.00762518
0.00795571
0.00820391
0.00837528
0.00847694
0.00851551
0.00849863
0.00843579
0.00833792
0.00821843
0.00809387
0.00798181
0.00789751
0.000178596
0.0013381
0.00240391
0.00334572
0.00422257
0.005037
0.00577563
0.00643535
0.00701353
0.00750569
0.00791103
0.0082331
0.00847879
0.00865619
0.00877264
0.00883475
0.00884977
0.00882534
0.00877039
0.00869554
0.00861276
0.00853295
0.00846215
0.000177515
0.00130523
0.00257202
0.00363664
0.00456134
0.00537843
0.00609213
0.00673043
0.00729271
0.00776885
0.00815772
0.00846632
0.00870761
0.00889199
0.00902442
0.00910932
0.00915217
0.00916001
0.00914032
0.00910075
0.00904845
0.00898934
0.0089242
0.000166806
0.00120923
0.00260528
0.00382977
0.00481774
0.00563724
0.0063535
0.0069919
0.00754919
0.00800728
0.00837229
0.00865783
0.00889317
0.0090864
0.00923332
0.00933579
0.00940062
0.0094347
0.00944385
0.00943227
0.00940328
0.00935882
0.00929786
0.000170781
0.00131313
0.00269279
0.00391422
0.00492127
0.00576137
0.00650356
0.00716241
0.0077241
0.00817326
0.00851749
0.00879792
0.00904033
0.00924549
0.00940168
0.00951425
0.00959556
0.00965157
0.00968522
0.00969717
0.00968774
0.0096549
0.00959582
0.000178803
0.00145209
0.00282027
0.00399301
0.00497776
0.00581934
0.0065585
0.00721067
0.00776209
0.00820783
0.00856635
0.00886604
0.00912222
0.00933882
0.00950501
0.0096329
0.00973284
0.00980741
0.00985831
0.00988616
0.00989049
0.0098715
0.00982762
0.00018441
0.00154867
0.00293781
0.00408929
0.00504584
0.00586392
0.00658501
0.00721729
0.00775142
0.00819089
0.00855104
0.00885833
0.00912617
0.00935141
0.00953525
0.00968812
0.00981391
0.00991221
0.00998324
0.0100279
0.0100475
0.0100447
0.0100133
0.000188378
0.00160781
0.00302853
0.00417992
0.00512153
0.00591733
0.00661039
0.00721575
0.00773232
0.00816342
0.00852418
0.00883621
0.00910938
0.00934206
0.00953771
0.00970425
0.00984559
0.00996092
0.01005
0.0101133
0.0101518
0.0101664
0.0101496
0.000191396
0.00163888
0.00308812
0.00424834
0.00518549
0.00596718
0.00663847
0.00722112
0.00772154
0.00814491
0.00850344
0.00881358
0.00908529
0.00932053
0.00952233
0.0096965
0.00984651
0.00997304
0.0100756
0.0101539
0.0102085
0.0102381
0.0102361
0.000192519
0.00165412
0.00311843
0.00428761
0.00522542
0.00600039
0.00665829
0.00722517
0.00771295
0.00812924
0.00848419
0.00879058
0.00905821
0.00929179
0.00949481
0.00967144
0.00982499
0.009957
0.0100678
0.0101562
0.0102218
0.010263
0.0102739
0.000192085
0.00165466
0.00312417
0.00429567
0.00523558
0.00600765
0.00665871
0.00721628
0.00769579
0.00810684
0.00845878
0.0087621
0.00902602
0.00925665
0.0094582
0.00963434
0.00978812
0.00992147
0.0100351
0.0101288
0.0102014
0.0102508
0.0102723
0.000190473
0.00164248
0.00310669
0.00427547
0.00521401
0.00598493
0.00663293
0.00718597
0.00766125
0.00806971
0.00842048
0.00872269
0.00898477
0.00921325
0.00941291
0.00958749
0.00974
0.00987259
0.00998641
0.0100816
0.0101574
0.0102122
0.0102421
0.000187993
0.00161976
0.00306887
0.00422928
0.00516299
0.00593227
0.00657858
0.00713008
0.00760422
0.00801269
0.00836446
0.00866783
0.00893044
0.00915873
0.0093577
0.0095313
0.00968264
0.00981409
0.00992711
0.0100223
0.0100993
0.0101571
0.0101927
0.000184884
0.00158875
0.00301425
0.00416064
0.00508642
0.00585202
0.00649677
0.0070481
0.00752306
0.0079335
0.00828822
0.00859485
0.00886033
0.00909072
0.00929101
0.00946525
0.00961668
0.00974782
0.0098604
0.00995536
0.0100328
0.0100922
0.0101317
0.000181299
0.0015515
0.00294647
0.00407385
0.00498871
0.00574836
0.00639088
0.00694223
0.00741892
0.00783256
0.00819162
0.00850315
0.00877344
0.00900808
0.00921186
0.00938877
0.0095421
0.00967448
0.00978783
0.00988333
0.00996147
0.010022
0.0100641
0.000177331
0.00150979
0.00286907
0.00397342
0.00487462
0.00562667
0.00626575
0.00681661
0.00729514
0.00771247
0.00807665
0.00839414
0.00867064
0.00891122
0.00912036
0.0093019
0.00945905
0.00959446
0.00971014
0.00980743
0.00988706
0.00994914
0.00999339
0.000173042
0.00146516
0.00278531
0.00386387
0.00474949
0.00549253
0.00612705
0.00667665
0.00715667
0.00757765
0.00794713
0.00827106
0.00855457
0.00880222
0.0090181
0.00920581
0.00936841
0.00950849
0.00962805
0.00972852
0.00981075
0.0098751
0.00992179
0.000168477
0.00141899
0.00269831
0.00374967
0.00461894
0.00535161
0.00598086
0.00652862
0.00700964
0.00743388
0.00780842
0.00813875
0.00842948
0.0086847
0.0089081
0.00910296
0.00927216
0.00941814
0.00954284
0.00964771
0.00973365
0.00980119
0.00985089
0.00016368
0.00137264
0.00261134
0.00363546
0.00448738
0.00520979
0.00583353
0.00637925
0.00686087
0.00728786
0.00766695
0.00800322
0.00830087
0.00856357
0.00879463
0.00899701
0.00917337
0.00932595
0.0094566
0.00956672
0.00965724
0.00972879
0.00978212
0.000158834
0.00132737
0.00252625
0.00352404
0.00435969
0.00507275
0.00569157
0.00623543
0.00671746
0.00714673
0.00752966
0.00787109
0.00817492
0.00844449
0.00868277
0.00889244
0.00907589
0.0092352
0.00937208
0.00948787
0.00958348
0.00965956
0.00971701
0.000154009
0.00128063
0.00244422
0.00341919
0.00424112
0.00494649
0.00556142
0.00610388
0.00658629
0.00701737
0.00740336
0.00774896
0.00805788
0.00833324
0.00857778
0.00879392
0.00898385
0.00914947
0.00929234
0.00941372
0.00951449
0.00959531
0.0096571
0.00014925
0.0012361
0.00236932
0.00332582
0.00413712
0.00483678
0.00544898
0.00599056
0.00647333
0.00690573
0.00729391
0.0076425
0.00795516
0.00823491
0.00848432
0.00870568
0.00890098
0.00907198
0.00922013
0.00934658
0.00945217
0.00953754
0.00960357
0.000144703
0.00119665
0.00230602
0.00324888
0.00405266
0.00474846
0.00535891
0.00589994
0.00638289
0.00681599
0.00720536
0.00755565
0.00787055
0.00815306
0.00840571
0.00863069
0.0088299
0.00900498
0.00915729
0.00928792
0.00939765
0.00948708
0.00955694
0.000140565
0.00116548
0.00225826
0.0031921
0.00399103
0.00468434
0.0052936
0.00583409
0.00631682
0.00674988
0.00713937
0.00749002
0.0078056
0.00808916
0.00834327
0.00857012
0.00877156
0.0089492
0.00910434
0.009238
0.0093509
0.00944361
0.00951674
0.000137071
0.00114424
0.00222762
0.00315636
0.00395238
0.00464404
0.0052523
0.00579205
0.00627404
0.00670626
0.00709483
0.00744456
0.00775933
0.00804231
0.00829616
0.00852312
0.00872511
0.00890371
0.00906022
0.00919563
0.00931061
0.00940564
0.00948129
0.000134464
0.00113271
0.00221224
0.00313854
0.00393287
0.0046234
0.0052308
0.00576967
0.00625055
0.00668134
0.00706815
0.0074159
0.00772859
0.00800956
0.0082616
0.00848709
0.00868804
0.0088661
0.00902258
0.00915845
0.00927433
0.00937064
0.0094479
0.000132929
0.00112842
0.00220675
0.00313174
0.00392507
0.00461504
0.00522208
0.00576041
0.00624029
0.00666948
0.0070541
0.00739915
0.00770883
0.00798665
0.00823562
0.00845832
0.00865689
0.00883311
0.00898831
0.00912344
0.00923906
0.00933553
0.0094133
0.000132542
0.00112784
0.00220385
0.00312691
0.00391962
0.00461005
0.00521794
0.00575684
0.00623652
0.00666453
0.007047
0.00738908
0.00769517
0.00796908
0.00821407
0.00843298
0.00862817
0.00880152
0.00895444
0.00908778
0.00920198
0.00929736
0.00937431
0.000133252
0.00112706
0.00219609
0.00311508
0.00390742
0.00459996
0.00521083
0.00575227
0.0062333
0.00666115
0.007042
0.00738121
0.00768352
0.00795308
0.00819354
0.00840802
0.00859917
0.00876901
0.00891891
0.00904956
0.00916117
0.00925395
0.00932841
0.000134913
0.00112277
0.00217709
0.00308858
0.00388097
0.00457814
0.0051951
0.00574193
0.0062265
0.0066557
0.00703581
0.00737258
0.00767119
0.0079363
0.00817199
0.00838181
0.00856867
0.00873473
0.00888118
0.00900832
0.00911598
0.00920426
0.00927409
0.000137348
0.00111142
0.0021406
0.00304059
0.00383435
0.00454
0.00516737
0.00572327
0.0062141
0.00664645
0.00702694
0.00736189
0.00765714
0.00791795
0.00814898
0.00835426
0.00853703
0.00869943
0.00884225
0.00896501
0.00906688
0.00914814
0.00921074
0.000140512
0.00108961
0.00208003
0.00296473
0.00376308
0.00448305
0.00512648
0.00569585
0.00619596
0.00663339
0.00701544
0.00734931
0.00764168
0.00789859
0.00812538
0.00832664
0.00850588
0.0086651
0.0088042
0.00892134
0.00901469
0.0090856
0.00913839
0.000145193
0.00106145
0.00199428
0.00285868
0.00366624
0.00440793
0.00507392
0.0056613
0.00617352
0.00661772
0.00700237
0.00733589
0.00762601
0.00787965
0.00810291
0.00830095
0.00847754
0.00863419
0.00876928
0.00887861
0.00895938
0.00901645
0.0090581
0.000158831
0.00109734
0.00192142
0.00273956
0.00355353
0.0043218
0.00501519
0.00562365
0.00614965
0.00660154
0.00698944
0.00732321
0.00761176
0.00786293
0.00808355
0.00827934
0.00845419
0.00860872
0.00873873
0.00883658
0.00889982
0.00894293
0.00897606
0.00023544
0.00154554
0.00202791
0.00267169
0.00345485
0.00424215
0.00496131
0.00558978
0.00612861
0.00658761
0.00697865
0.00731302
0.00760067
0.00785024
0.00806917
0.00826362
0.0084374
0.00858967
0.00871228
0.0087936
0.00883975
0.0088826
0.00891529
0.000416834
0.00324521
0.00255797
0.00273874
0.00341142
0.0041942
0.00492756
0.00556861
0.00611558
0.0065791
0.00697219
0.00730709
0.00759438
0.00784319
0.00806133
0.00825516
0.00842825
0.00857797
0.00869097
0.00875178
0.00883532
0.00890579
0.00893635
0.000267591
0.00024743
0.000252731
0.000277063
0.00215492
0.00213304
0.00221105
0.00237619
0.00391937
0.00390171
0.003994
0.00416337
0.00527216
0.00527657
0.0053405
0.00544676
0.00633067
0.0063358
0.00637003
0.00642528
0.00717688
0.00717259
0.007182
0.00720097
0.00786159
0.0078458
0.00783548
0.00782834
0.00841779
0.00839141
0.00836604
0.00834034
0.00887051
0.00883543
0.00879925
0.00876082
0.00923789
0.00919694
0.00915348
0.00910699
0.00953531
0.00949191
0.00944456
0.00939347
0.00977563
0.00973188
0.00968171
0.00962847
0.00996464
0.00992543
0.0098795
0.00982879
0.0101118
0.0100798
0.0100407
0.00999574
0.0102103
0.0101869
0.0101566
0.0101199
0.0102599
0.0102448
0.0102233
0.0101954
0.0102684
0.0102604
0.0102467
0.0102268
0.0102463
0.0102441
0.0102365
0.0102232
0.010203
0.0102049
0.0102019
0.0101937
0.010146
0.0101508
0.010151
0.0101463
0.0100811
0.0100878
0.0100901
0.0100877
0.0100123
0.0100204
0.0100241
0.0100235
0.00994255
0.00995175
0.00995667
0.00995732
0.00987369
0.00988412
0.00989024
0.00989213
0.00980732
0.00981917
0.00982666
0.00982989
0.00974492
0.0097584
0.00976744
0.00977216
0.00968789
0.00970313
0.00971386
0.00972021
0.00963725
0.00965431
0.00966681
0.00967485
0.00959338
0.00961221
0.00962643
0.00963616
0.00955564
0.00957606
0.0095919
0.00960322
0.00952221
0.00954399
0.00956121
0.00957396
0.00949025
0.00951304
0.00953136
0.00954526
0.00945635
0.0094797
0.00949867
0.00951336
0.00941709
0.00944036
0.00945943
0.00947436
0.00936965
0.00939207
0.00941048
0.00942498
0.00931224
0.00933288
0.00934982
0.00936317
0.00924424
0.00926226
0.00927702
0.00928868
0.00916622
0.00918127
0.00919374
0.00920375
0.00908091
0.0090938
0.00910494
0.00911432
0.00899705
0.00900987
0.00902168
0.00903217
0.00893809
0.00895203
0.00896545
0.00897756
0.00895402
0.00896168
0.00897073
0.00897898
0.00150626
0.00282853
0.00381004
0.00440517
0.00473756
0.00489313
0.00491372
0.00482143
0.0046474
0.00442232
0.00417033
0.00389527
0.0035998
0.00327684
0.00291241
0.00247966
0.0019283
0.00115908
0.00018033
0.00314409
0.00401078
0.00466849
0.0051043
0.00535541
0.00545641
0.0054307
0.00529914
0.00508996
0.0048306
0.00453806
0.00422047
0.00387743
0.00350047
0.00307278
0.00256251
0.00191411
0.00105732
0.000165488
0.00454679
0.0050643
0.00547218
0.0057454
0.00589289
0.00592311
0.00584025
0.00566005
0.00540696
0.00510559
0.00477073
0.00440901
0.00401914
0.0035919
0.00310856
0.00253556
0.00182217
0.000945452
0.000160119
0.00565495
0.00594625
0.00617343
0.00631343
0.00636154
0.00631462
0.00616999
0.00593743
0.00563614
0.0052873
0.00490503
0.00449506
0.0040571
0.00358411
0.0030615
0.00246633
0.0017683
0.00095009
0.000157891
0.00652993
0.00667367
0.00677234
0.00680614
0.00676652
0.00664707
0.00644324
0.00616031
0.00581192
0.00541505
0.00498248
0.00452043
0.00403002
0.00350825
0.002948
0.00234299
0.00168969
0.000963336
0.000157365
0.00723638
0.00727808
0.00728257
0.00723337
0.0071214
0.00693997
0.00668451
0.00635783
0.00596885
0.00553005
0.00505206
0.00454117
0.00400038
0.00343052
0.00283024
0.00220244
0.00155384
0.000871679
0.00015244
0.00781585
0.00778477
0.00772004
0.00760813
0.00744055
0.00721132
0.00691655
0.00655739
0.00613952
0.0056715
0.00516158
0.00461573
0.00403809
0.00343169
0.00279497
0.00213269
0.00145501
0.000767276
0.000154567
0.00829472
0.00821272
0.008099
0.00794275
0.00773665
0.00747582
0.00715712
0.00678025
0.00634869
0.00586845
0.00534559
0.00478508
0.00419247
0.00357234
0.00291471
0.00221883
0.00149359
0.000758477
0.000168002
0.00869293
0.00857702
0.00843123
0.00824696
0.00801844
0.00774206
0.00741518
0.0070369
0.00660824
0.00613293
0.00561669
0.00506317
0.00448017
0.00386862
0.00320559
0.0024788
0.00168743
0.000857396
0.000187658
0.00902531
0.00888967
0.00872543
0.0085264
0.00828861
0.00800999
0.00768817
0.00732219
0.0069109
0.00645384
0.00595629
0.00543133
0.00488373
0.00428834
0.00361191
0.00283979
0.00196882
0.00102609
0.000205162
0.00930289
0.00915513
0.00898181
0.00877756
0.00853949
0.00826786
0.00796422
0.00762725
0.00724721
0.00681889
0.00634813
0.00585362
0.0053352
0.00476193
0.00409152
0.00331618
0.00242281
0.00137544
0.000216045
0.00953558
0.00938588
0.00921419
0.00901538
0.00878677
0.00852941
0.00824782
0.00793886
0.00759218
0.00719999
0.00676181
0.0062901
0.0057835
0.00520985
0.0045405
0.00375161
0.00279599
0.0015847
0.000222052
0.00973962
0.00959639
0.00943374
0.0092466
0.00903233
0.00879103
0.00852678
0.00823711
0.00791586
0.00755447
0.00714739
0.0066951
0.00619103
0.00561279
0.00493149
0.00410607
0.003064
0.0016948
0.000225759
0.00991443
0.00978134
0.00962978
0.00945586
0.00925649
0.00903142
0.00878209
0.00850835
0.008205
0.00786363
0.00747664
0.00703799
0.00653785
0.00595419
0.00525353
0.00438283
0.00325541
0.00176883
0.000228734
0.0100499
0.00992935
0.00978995
0.00962908
0.00944392
0.00923345
0.00899846
0.00873827
0.00844751
0.00811868
0.00774344
0.00731318
0.00681524
0.00622511
0.00550367
0.00459135
0.00339841
0.00182905
0.000230854
0.0101386
0.0100333
0.00990718
0.00975932
0.00958738
0.00939055
0.00916874
0.00891983
0.00863865
0.00831793
0.00794962
0.00752342
0.00702574
0.00642939
0.00569201
0.00474965
0.00350915
0.00187678
0.000231763
0.0101829
0.0100935
0.00998157
0.00984648
0.00968723
0.00950298
0.00929242
0.00905305
0.00877945
0.00846474
0.00810119
0.00767841
0.00717985
0.00657757
0.00582788
0.00486433
0.00359092
0.00191291
0.000231438
0.0101905
0.0101161
0.0100175
0.00989479
0.00974729
0.00957411
0.00937348
0.00914219
0.0088751
0.00856565
0.00820591
0.00778483
0.00728483
0.00667763
0.00591913
0.00494163
0.00364701
0.00193806
0.000230023
0.0101699
0.0101083
0.0100219
0.00991047
0.00977353
0.00960998
0.0094177
0.00919323
0.00893162
0.00862649
0.00826965
0.00784949
0.00734804
0.00673711
0.00597268
0.0049868
0.00368012
0.00195261
0.000227645
0.0101292
0.010078
0.0100018
0.00990011
0.00977229
0.00961691
0.00943161
0.00921285
0.00895577
0.00865404
0.00829927
0.0078795
0.00737667
0.00676285
0.00599455
0.00500426
0.00369244
0.0019569
0.000224482
0.0100755
0.0100323
0.00996419
0.00987056
0.00975029
0.00960168
0.00942212
0.00920801
0.00895451
0.00865527
0.00830176
0.00788183
0.00737745
0.00676112
0.00599011
0.00499799
0.0036861
0.00195147
0.000220719
0.0100147
0.00997751
0.00991568
0.00982841
0.00971419
0.00957098
0.00939597
0.00918546
0.00893457
0.00863691
0.00828381
0.00786304
0.00735671
0.00673777
0.00596446
0.00497192
0.00366346
0.00193714
0.00021658
0.00995116
0.0099187
0.00986176
0.00977944
0.00966993
0.00953088
0.00935928
0.00915135
0.00890212
0.00860512
0.00825158
0.00782925
0.00732036
0.00669838
0.00592264
0.00493019
0.00362735
0.00191519
0.000212288
0.00988832
0.00985974
0.00980672
0.0097283
0.00962241
0.00948646
0.0093173
0.00911103
0.00886261
0.00856546
0.00821072
0.00778611
0.00727401
0.0066484
0.00586975
0.00487729
0.00358118
0.00188741
0.000208056
0.00982843
0.00980337
0.00975373
0.00967849
0.00957545
0.00944182
0.00927437
0.00906908
0.00882082
0.00852291
0.00816639
0.00773893
0.00722307
0.00659323
0.00581103
0.00481808
0.00352896
0.0018561
0.000204067
0.00977319
0.00975157
0.00970505
0.00963261
0.00953195
0.0094002
0.00923402
0.00902933
0.00878089
0.00848191
0.0081233
0.00769268
0.00717268
0.00653814
0.00575178
0.00475767
0.00347515
0.00182395
0.000200453
0.00972389
0.00970571
0.00966227
0.00959249
0.00949405
0.00936404
0.00919904
0.00899491
0.00874631
0.00844629
0.00808565
0.00765189
0.00712767
0.00648821
0.00569725
0.00470127
0.00342439
0.0017937
0.000197309
0.00968126
0.00966659
0.00962628
0.00955922
0.00946309
0.00933495
0.00917138
0.00896813
0.00871976
0.00841917
0.00805696
0.0076205
0.00709239
0.00644814
0.00565241
0.00465388
0.00338112
0.00176794
0.00019467
0.0096453
0.00963417
0.0095971
0.00953295
0.0094394
0.00931356
0.00915195
0.00895026
0.00870293
0.00840266
0.00803984
0.00760163
0.00707048
0.00642205
0.00562172
0.00462001
0.00334928
0.00174877
0.000192579
0.00961499
0.00960736
0.00957366
0.00951267
0.00942215
0.00929921
0.00914039
0.00894129
0.00869621
0.00839766
0.00803575
0.00759731
0.00706457
0.00641311
0.00560876
0.00460338
0.00333206
0.00173793
0.000191049
0.00958814
0.00958389
0.00955362
0.0094961
0.00940913
0.0092899
0.00913493
0.00893977
0.00869858
0.00840364
0.00804473
0.00760825
0.00707601
0.00642327
0.00561593
0.00460655
0.00333174
0.00173663
0.000190166
0.00956149
0.00956034
0.0095335
0.00947972
0.0093969
0.0092823
0.00913246
0.00894291
0.00870766
0.00841874
0.0080655
0.00763381
0.00710478
0.00645306
0.00564414
0.00463062
0.00334944
0.00174579
0.000190027
0.00953107
0.00953255
0.00950899
0.00945919
0.00938115
0.00927221
0.009129
0.00894701
0.00872013
0.00844011
0.00809582
0.00767236
0.00714986
0.00650188
0.00569297
0.00467512
0.00338482
0.00176563
0.000190853
0.00949278
0.00949619
0.00947565
0.00943003
0.00935744
0.00925534
0.00912044
0.00894824
0.00873255
0.00846483
0.00813337
0.00772226
0.00721021
0.00656902
0.00576155
0.00473867
0.00343621
0.00179571
0.000192876
0.00944312
0.00944762
0.00942982
0.00938863
0.00932228
0.00922835
0.00910364
0.00894376
0.00874249
0.00849103
0.00817701
0.00778325
0.00728645
0.00665567
0.00585086
0.00482095
0.00350178
0.00183482
0.000196479
0.00938003
0.00938487
0.00936966
0.00933337
0.00927423
0.00918998
0.00907758
0.00893284
0.00874961
0.00851897
0.0082279
0.00785781
0.00738268
0.00676747
0.00596711
0.00492664
0.00358268
0.00188232
0.000202066
0.00930361
0.00930853
0.00929622
0.00926556
0.00921483
0.00914192
0.00904409
0.00891745
0.00875621
0.00855151
0.00829
0.00795168
0.00750741
0.00691639
0.00612516
0.00507038
0.00368799
0.00193982
0.000210324
0.00921703
0.00922269
0.00921411
0.00919007
0.009149
0.00908906
0.00900795
0.00890233
0.008767
0.00859368
0.0083692
0.00807285
0.00767256
0.00712059
0.00635058
0.0052819
0.00384112
0.00201415
0.000222343
0.00912755
0.0091355
0.0091317
0.00911517
0.00908471
0.00903897
0.00897626
0.00889403
0.00878801
0.00865108
0.00847127
0.00822857
0.00788978
0.00740087
0.00667867
0.00561068
0.00408913
0.00212206
0.000240493
0.00904762
0.00905916
0.00906046
0.00905149
0.00903176
0.00900063
0.00895713
0.00889961
0.00882504
0.00872808
0.0085992
0.00842151
0.00816458
0.00777328
0.00714949
0.00613258
0.00452497
0.00230684
0.000270191
0.00899508
0.00900856
0.00901314
0.0090102
0.00900012
0.00898289
0.00895819
0.00892522
0.00888231
0.0088263
0.00875131
0.00864622
0.00848939
0.00823663
0.00779369
0.00695835
0.00535574
0.00271716
0.000325671
0.00899011
0.00899785
0.00900098
0.00900097
0.00899834
0.00899323
0.00898566
0.00897544
0.0089621
0.0089447
0.00892141
0.00888864
0.00883897
0.00875546
0.00859375
0.0082166
0.0071447
0.0040685
0.000466491
)
;

boundaryField
{
    leftWall
    {
        type            nutkWallFunction;
        Cmu             0.09;
        kappa           0.41;
        E               9.8;
        value           nonuniform List<scalar> 
50
(
2.5648e-06
7.59575e-06
8.86628e-06
9.76455e-06
1.04204e-05
1.09184e-05
1.13214e-05
1.19799e-05
1.42817e-05
1.56533e-05
1.57281e-05
1.54308e-05
1.55615e-05
1.64195e-05
1.77551e-05
2.07265e-05
1.52829e-05
1.53981e-05
1.65522e-05
1.76501e-05
1.8467e-05
1.90499e-05
1.93554e-05
1.93861e-05
1.92128e-05
1.88904e-05
1.8461e-05
1.79547e-05
1.73882e-05
1.67717e-05
1.61108e-05
1.54101e-05
1.4673e-05
1.39121e-05
1.31583e-05
1.2424e-05
1.17275e-05
1.10989e-05
1.05776e-05
1.02047e-05
1.00103e-05
1.0006e-05
1.01818e-05
1.0514e-05
1.09764e-05
1.15644e-05
1.2382e-05
1.42805e-05
2.3658e-05
4.91379e-05
)
;
    }
    rightWall
    {
        type            nutkWallFunction;
        Cmu             0.09;
        kappa           0.41;
        E               9.8;
        value           nonuniform List<scalar> 
50
(
3.50759e-06
1.11396e-05
1.26157e-05
1.3843e-05
1.4824e-05
1.61907e-05
1.73109e-05
2.02733e-05
2.0909e-05
1.96895e-05
1.90682e-05
1.85859e-05
1.8271e-05
1.80081e-05
1.80853e-05
1.92956e-05
2.10318e-05
2.09777e-05
2.26729e-05
2.35761e-05
2.40916e-05
2.44725e-05
2.47586e-05
2.4882e-05
2.48222e-05
2.45925e-05
2.42136e-05
2.37123e-05
2.31231e-05
2.24813e-05
2.18266e-05
2.11902e-05
2.06023e-05
2.00768e-05
1.96269e-05
1.92499e-05
1.89502e-05
1.87235e-05
1.85827e-05
1.8539e-05
1.86293e-05
1.88909e-05
1.93893e-05
2.01904e-05
2.14026e-05
2.3187e-05
2.58986e-05
3.03352e-05
3.84378e-05
5.57796e-05
)
;
    }
    lowerWall
    {
        type            nutkWallFunction;
        Cmu             0.09;
        kappa           0.41;
        E               9.8;
        value           nonuniform List<scalar> 
62
(
2.5648e-06
3.78891e-06
4.48705e-06
5.01964e-06
5.46515e-06
5.85469e-06
6.20308e-06
6.51689e-06
6.79787e-06
7.04657e-06
7.26821e-06
7.46589e-06
7.63913e-06
7.78423e-06
7.89444e-06
7.96106e-06
7.97319e-06
7.91425e-06
7.75606e-06
7.44736e-06
6.88896e-06
5.82074e-06
3.34562e-06
3.34562e-06
1.02956e-05
1.23118e-05
1.39504e-05
1.54339e-05
1.77517e-05
2.32317e-05
2.76082e-05
2.89539e-05
2.68074e-05
2.73489e-05
2.96637e-05
3.27759e-06
1.17242e-05
1.52697e-05
1.74193e-05
1.92835e-05
2.16855e-05
2.58209e-05
3.17495e-05
3.27759e-06
5.73772e-06
7.02851e-06
7.85825e-06
8.30303e-06
8.55034e-06
8.62241e-06
8.57424e-06
8.42527e-06
8.27486e-06
8.0798e-06
7.81902e-06
7.42952e-06
7.0401e-06
6.71752e-06
6.30882e-06
5.78903e-06
5.0412e-06
3.50759e-06
)
;
    }
    atmosphere
    {
        type            calculated;
        value           nonuniform List<scalar> 
46
(
0.009
0.009
0.00255797
0.00273874
0.00341142
0.0041942
0.00492756
0.00556861
0.00611558
0.0065791
0.00697219
0.00730709
0.00759438
0.00784319
0.00806133
0.00825516
0.00842825
0.00857797
0.00869097
0.00875178
0.009
0.009
0.009
0.009
0.009
0.009
0.009
0.009
0.009
0.009
0.009
0.009
0.009
0.009
0.009
0.009
0.009
0.009
0.009
0.009
0.009
0.009
0.009
0.009
0.009
0.009
)
;
    }
    defaultFaces
    {
        type            empty;
    }
}


// ************************************************************************* //
