/*--------------------------------*- C++ -*----------------------------------*\
  =========                 |
  \\      /  F ield         | OpenFOAM: The Open Source CFD Toolbox
   \\    /   O peration     | Website:  https://openfoam.org
    \\  /    A nd           | Version:  13
     \\/     M anipulation  |
\*---------------------------------------------------------------------------*/
FoamFile
{
    format      ascii;
    class       volScalarField;
    location    "2.15";
    object      p;
}
// * * * * * * * * * * * * * * * * * * * * * * * * * * * * * * * * * * * * * //

dimensions      [1 -1 -2 0 0 0 0];

internalField   nonuniform List<scalar> 
2268
(
6457.32
6452.15
6427.31
6376.31
6300.55
6202.51
6087.93
5960.89
5826.62
5690.29
5556.01
5427.93
5309.76
5204.08
5112.26
5034.81
4971.63
4921.99
4884.75
4858.56
4840.42
4830.33
4826.67
5658.16
5654.47
5632.45
5582.23
5507.16
5410.76
5296.24
5169.11
5034.67
4898.07
4763.32
4634.56
4515.63
4409.26
4316.93
4239.22
4175.92
4126.13
4088.38
4060.77
4042.08
4033.48
4030.87
4861.45
4858.97
4839.69
4790.47
4716.09
4620
4506.06
4379.03
4244.28
4107.06
3971.49
3841.59
3721.56
3614.26
3521.25
3443.08
3379.61
3329.72
3291.87
3264.38
3245.75
3238.82
3233.5
4067.91
4068.43
4051.98
4003.86
3929.63
3832.88
3718.29
3590.17
3454.26
3315.83
3178.48
3046.69
2925.09
2816.67
2722.73
2643.82
2579.99
2530.05
2492.43
2465.72
2448.25
2443.7
2433.56
3276.48
3281.74
3268.61
3222.05
3147.71
3049.63
2933.09
2802.4
2663.95
2522.78
2381.37
2245.1
2120.22
2009.72
1914.4
1834.57
1770.69
1721.48
1685.49
1660.79
1646.05
1642.84
1630.41
2486.69
2498.27
2489
2444.76
2370.43
2270.67
2150.3
2013.06
1866.66
1717.49
1578.98
1460.49
1361.9
1281.52
1218.47
1169.86
1130.45
1098.23
1072.89
1052.92
1037.9
1029.66
1020.77
1701.35
1725.27
1721.86
1680.16
1603.7
1497.99
1384.1
1272.59
1173.44
1089.88
1023.67
975.402
939.714
913.075
894.333
880.53
866.631
851.773
835.827
819.253
802.577
789.337
785.45
1043.59
1063.23
1057.69
1026.98
981.926
931.108
886.366
853.999
838.012
836.787
839.868
840.286
837.72
832.365
824.346
813.949
801.809
788.022
772.76
756.595
740.427
728.081
725.005
2190.43
2177.89
2149.35
2119.03
2105.5
2120.85
2138.61
2169.87
2225.9
2302.86
2386.49
2460.83
2519.24
2601.26
2721.86
2850.94
2970.92
3070.73
3130.79
1611.49
1595.06
1560.01
1528.51
1508.56
1488.87
1499.6
1562.06
1626.16
1704.18
1792.67
1880.41
1977.26
2063.17
2153.82
2253.69
2369.54
2470.41
2535.16
1302.75
1290.86
1257.37
1229.98
1187.66
1139.99
1126.2
1128.92
1136.21
1157.19
1204.16
1282.98
1397.88
1477.77
1558.49
1656.16
1770.68
1880.7
1950.99
1132.16
1125.76
1113.06
1089.32
1048.4
1023.13
1004.06
982.424
952.848
914.318
906.235
921.651
998.366
1077.71
1130.03
1193.27
1278.79
1357.69
1460.29
960.196
950.531
952.985
935.14
936.993
938.681
928.758
909.447
880.286
848.985
838.262
819.018
823.305
873.449
909.806
940.414
981.067
1017.19
1077.7
820.732
809.631
807.708
800.158
817.315
836.454
831.209
802.136
790.656
784.429
779.622
776.047
756.572
753.754
770.183
791.699
803.702
821.822
827.38
730.176
720.903
712.771
709.002
711.46
723.782
720.005
708.896
711.888
721.016
719.882
723.264
720.001
709.873
706.849
710.74
708.166
700.24
706.754
669.184
661.35
648.612
641.692
635.692
629.724
635.575
645.859
651.557
658.453
659.071
663.369
665.951
665.1
663.691
660.724
655.836
643.334
626.566
686.518
688.166
682.778
676.306
677.293
689.237
703.977
717.513
727.463
733.834
737.815
739.57
738.492
734.328
727.302
717.8
706.228
692.86
678.151
662.616
647.463
635.723
629.834
536.135
533.881
535.686
542.518
552.654
563.844
576.694
588.965
598.96
606.055
610.267
611.755
610.308
605.969
599.055
589.944
578.874
566.142
552.568
539.046
524.982
513.619
504.96
414.866
414.461
417.255
423.709
432.759
443.393
454.717
465.533
474.665
481.304
485.117
486.135
484.222
479.524
473.181
465.429
456.098
446.585
438.185
431.28
424.776
418.81
413.873
292.679
294.428
298.462
305.013
313.468
323.367
334.283
344.241
352.498
359.012
362.831
364.63
364.656
363.146
361.412
359.853
357.423
355.785
355.692
354.944
354.473
352.805
352.035
177.147
180.244
185.524
193.054
202.282
212.604
223.425
233.72
243.577
252.646
260.006
266.589
272.816
278.7
283.822
287.742
290.787
293.511
295.212
294.764
293.076
291.857
290.742
90.8198
93.9196
100.017
108.654
119.298
130.955
142.501
154.091
165.959
177.513
189.072
199.845
209.848
218.793
225.487
229.725
232.971
234.778
234.174
232.844
231.178
229.484
226.785
29.0503
31.288
37.4571
46.1549
56.8279
68.9102
81.9524
95.5643
108.779
121.123
133.241
144.243
153.618
160.758
165.758
169.652
172.559
173.74
173.01
171.331
169.176
166.683
163.196
5.54253
5.66335
7.07991
9.94954
14.3956
20.4982
28.4795
38.1743
49.3102
61.611
74.0947
86.4693
96.7138
103.969
108.337
111.39
113.248
113.521
111.958
109.32
106.442
103.567
99.7915
4.34525
4.36302
4.3485
4.29859
4.29507
4.41564
5.23996
7.36195
10.7405
15.491
22.4114
30.1643
38.6229
45.865
51.0199
55.2035
57.3526
56.7083
53.9976
50.2191
46.0685
43.3347
40.1886
4.17833
4.16854
4.14748
4.12019
4.10357
4.11552
4.13897
4.1502
4.14545
4.14996
4.2106
4.79185
6.40954
8.95082
12.3573
15.8032
18.0689
18.1684
16.9744
14.3783
11.8517
11.2079
9.47528
4.01489
4.00616
3.99615
3.98066
3.96435
3.95033
3.92776
3.90557
3.88466
3.87474
3.90332
3.96233
4.0206
4.03377
3.99507
3.98555
4.02209
4.07615
4.13531
4.20079
4.31522
4.44697
4.46818
3.84982
3.84821
3.84245
3.83245
3.82202
3.81179
3.80246
3.79242
3.78649
3.78042
3.78058
3.77948
3.79091
3.81057
3.83937
3.8927
3.97005
4.06146
4.15787
4.25762
4.36427
4.46461
4.55152
3.69537
3.69222
3.68746
3.68133
3.67654
3.67302
3.66996
3.67089
3.67539
3.67945
3.68062
3.68996
3.70241
3.72706
3.76102
3.80674
3.86834
3.942
4.02538
4.11516
4.20798
4.29482
4.38454
3.54219
3.53798
3.53423
3.53047
3.5282
3.52771
3.52918
3.53387
3.5424
3.5545
3.56972
3.58638
3.61093
3.6402
3.67188
3.71178
3.76343
3.82689
3.8999
3.98093
4.06545
4.14416
4.22494
3.39333
3.38889
3.3856
3.38323
3.38233
3.38322
3.38638
3.3927
3.40275
3.41844
3.43883
3.46348
3.49358
3.52629
3.56135
3.60225
3.6521
3.71171
3.78043
3.85579
3.93416
4.00831
4.08577
3.24905
3.24467
3.24174
3.24035
3.24069
3.24299
3.24788
3.25607
3.26767
3.28432
3.30622
3.33334
3.36522
3.40047
3.43907
3.48263
3.53308
3.59145
3.6574
3.72894
3.80284
3.87329
3.94752
3.10886
3.10478
3.10226
3.10164
3.1031
3.10684
3.11332
3.12323
3.13696
3.15495
3.17765
3.20504
3.23706
3.27328
3.31352
3.35834
3.40891
3.46607
3.52969
3.59811
3.66826
3.73517
3.8063
2.97223
2.96861
2.96656
2.96661
2.96901
2.97393
2.98175
2.99294
3.00786
3.02683
3.05006
3.07768
3.10971
3.14601
3.18641
3.23121
3.28108
3.33667
3.39795
3.46337
3.53029
3.59408
3.66131
2.8387
2.83561
2.83405
2.83469
2.83783
2.84365
2.85243
2.86453
2.8802
2.8997
2.92318
2.95076
2.98248
3.01824
3.05801
3.10194
3.15049
3.20416
3.2629
3.32534
3.38901
3.4496
3.51309
2.70784
2.70528
2.70423
2.70537
2.70907
2.7155
2.72489
2.73751
2.75356
2.77323
2.79664
2.82386
2.85491
2.88977
2.92842
2.97098
3.01778
3.06923
3.12528
3.18462
3.24502
3.30237
3.36213
2.57926
2.57724
2.57666
2.57823
2.58232
2.58912
2.59882
2.61162
2.62771
2.64722
2.67024
2.69682
2.72696
2.76063
2.79784
2.83868
2.88344
2.93245
2.98565
3.04186
3.09894
3.15305
3.20937
2.45265
2.45112
2.45099
2.45289
2.45723
2.4642
2.47397
2.48671
2.50256
2.52164
2.54401
2.56968
2.59867
2.63093
2.66646
2.70536
2.74786
2.79427
2.84453
2.89751
2.95125
3.00219
3.05508
2.32772
2.32664
2.3269
2.32907
2.33353
2.34051
2.35016
2.36263
2.37804
2.39647
2.41797
2.44254
2.47017
2.50083
2.53451
2.57129
2.61138
2.65506
2.70227
2.75197
2.80232
2.85002
2.8996
2.20422
2.20354
2.20414
2.20649
2.21099
2.21786
2.22725
2.2393
2.25409
2.27171
2.29217
2.31548
2.34161
2.37052
2.40221
2.43674
2.47431
2.51517
2.55926
2.60559
2.6525
2.69691
2.74296
2.08192
2.0816
2.08249
2.08495
2.0894
2.09606
2.1051
2.1166
2.13067
2.14735
2.16665
2.18858
2.21309
2.24016
2.26976
2.30196
2.33692
2.37489
2.41579
2.45874
2.50218
2.54327
2.58594
1.96063
1.96063
1.96175
1.96427
1.96861
1.97501
1.9836
1.99448
2.00773
2.02338
2.04145
2.06191
2.08474
2.10989
2.13734
2.16715
2.19947
2.23452
2.27222
2.31178
2.35176
2.38962
2.42886
1.84019
1.8405
1.84177
1.84431
1.8485
1.85456
1.86265
1.87285
1.88522
1.89979
1.91657
1.93553
1.95663
1.97983
2.0051
2.0325
2.06217
2.09429
2.12881
2.16501
2.20157
2.23619
2.27218
1.72047
1.72101
1.72242
1.72494
1.72893
1.73463
1.74218
1.75165
1.76311
1.77657
1.79203
1.80946
1.82881
1.85005
1.87315
1.89815
1.92517
1.95439
1.98578
2.01866
2.05186
2.0833
2.11592
1.6013
1.60206
1.60357
1.60604
1.60981
1.61511
1.62209
1.63082
1.64134
1.65368
1.66781
1.6837
1.70132
1.72061
1.74155
1.76418
1.7886
1.81498
1.84329
1.87292
1.90284
1.93115
1.96062
1.48257
1.48352
1.48509
1.48749
1.49102
1.49592
1.50232
1.51029
1.51987
1.53107
1.54388
1.55826
1.57416
1.59153
1.61035
1.63065
1.65252
1.67613
1.70143
1.7279
1.75462
1.77995
1.8063
1.36417
1.36527
1.36689
1.36919
1.37247
1.37695
1.38277
1.38998
1.39863
1.40871
1.42022
1.4331
1.44732
1.46281
1.47956
1.49759
1.51699
1.53789
1.56026
1.58366
1.60726
1.62964
1.65303
1.24598
1.24721
1.24886
1.25105
1.25407
1.25813
1.26335
1.26981
1.27754
1.28652
1.29675
1.30818
1.32076
1.33443
1.34917
1.365
1.382
1.40028
1.41983
1.44023
1.46079
1.48028
1.50062
1.12792
1.12925
1.1309
1.13297
1.13572
1.13935
1.14399
1.14971
1.15652
1.16444
1.17342
1.18344
1.19443
1.20635
1.21916
1.23288
1.24757
1.26333
1.28015
1.29767
1.31531
1.332
1.34947
1.00989
1.0113
1.01295
1.01488
1.01733
1.02052
1.02458
1.02956
1.03549
1.04236
1.05015
1.05881
1.06828
1.07852
1.08949
1.1012
1.1137
1.12707
1.1413
1.1561
1.17096
1.18503
1.19972
0.891836
0.893318
0.894933
0.89668
0.898812
0.901551
0.905019
0.909276
0.914344
0.920214
0.926854
0.934218
0.942252
0.950905
0.960141
0.969958
0.980399
0.991532
1.00335
1.0156
1.02787
1.03947
1.05163
0.773715
0.775253
0.776798
0.778317
0.780087
0.78235
0.785228
0.788777
0.793014
0.797923
0.803472
0.809611
0.816289
0.823455
0.831074
0.839137
0.847677
0.856749
0.866343
0.876254
0.886148
0.895483
0.90522
0.655504
0.657104
0.658525
0.659734
0.661088
0.662851
0.66514
0.668001
0.671441
0.675438
0.679956
0.684946
0.690357
0.696144
0.702271
0.708729
0.715538
0.722738
0.730316
0.738116
0.745871
0.753156
0.760784
0.537208
0.538902
0.540107
0.540894
0.541766
0.54301
0.54472
0.546922
0.549606
0.552743
0.556292
0.560208
0.564445
0.56896
0.573723
0.578722
0.58397
0.58949
0.595267
0.601177
0.607029
0.612531
0.61829
0.418801
0.420701
0.421546
0.421753
0.422084
0.422811
0.423973
0.425558
0.427534
0.429863
0.432505
0.43542
0.438568
0.441914
0.445433
0.449113
0.452959
0.456976
0.46113
0.465349
0.469501
0.473413
0.477551
0.30006
0.302237
0.302625
0.302188
0.302033
0.302321
0.303007
0.304035
0.305357
0.30693
0.308722
0.310701
0.312841
0.315116
0.317509
0.320013
0.322621
0.325315
0.328057
0.330814
0.333385
0.335829
0.338402
0.180508
0.181958
0.181803
0.181598
0.181483
0.1816
0.181941
0.182482
0.183192
0.184045
0.185027
0.186125
0.187327
0.188624
0.190014
0.191496
0.193063
0.194685
0.196316
0.197806
0.199055
0.200145
0.201472
0.062242
0.0564594
0.0582769
0.0597468
0.0604486
0.0607446
0.0609023
0.061056
0.0612463
0.0614862
0.0617808
0.0621313
0.0625387
0.0630064
0.0635416
0.064155
0.0648462
0.0656018
0.0664011
0.0670374
0.0673611
0.0677498
0.0686643
623.581
618.386
612.077
604.699
492.228
486.643
480.869
474.391
413.001
411.029
404.871
398.666
350.318
347.254
341.792
336.057
286.665
282.97
279.095
275.196
222.477
219.434
216.294
213.044
159.543
156.933
154.103
151.013
96.2736
94.1511
91.7415
88.7434
35.2925
34.4326
35.2046
33.8181
6.16386
5.86367
6.12885
6.15775
4.68025
4.81861
4.97788
5.11371
4.67722
4.78879
4.9172
5.01921
4.50083
4.6321
4.77498
4.88764
4.35024
4.48237
4.62965
4.74298
4.20998
4.34096
4.48646
4.59715
4.0668
4.19364
4.33573
4.44427
3.91989
4.04175
4.17947
4.28525
3.76972
3.88656
4.01903
4.12154
3.61579
3.72736
3.85513
3.95412
3.4592
3.56514
3.68702
3.78218
3.30071
3.40082
3.5167
3.6074
3.14104
3.23527
3.34441
3.43036
2.97994
3.06821
3.17083
3.25175
2.81772
2.89992
2.99562
3.07167
2.65495
2.7311
2.82025
2.89125
2.4925
2.56271
2.6449
2.71086
2.33035
2.39468
2.47036
2.53117
2.1688
2.22734
2.29627
2.35217
2.00821
2.06108
2.12372
2.17463
1.84902
1.89644
1.95256
1.99857
1.69086
1.73296
1.78309
1.82426
1.53372
1.57067
1.61479
1.65151
1.37789
1.40989
1.44856
1.48096
1.2239
1.25127
1.28451
1.31282
1.07175
1.0948
1.12316
1.14756
0.921637
0.940667
0.964336
0.98514
0.773783
0.789142
0.808648
0.826016
0.628402
0.640491
0.655978
0.670084
0.485071
0.494206
0.506122
0.517103
0.343349
0.349614
0.358021
0.366096
0.204265
0.207249
0.211527
0.216574
0.0716226
0.072434
0.0714061
0.0719062
581.189
575.132
562.491
550.308
544.031
542.135
550.544
554.593
557.531
561.418
563.466
567.073
569.873
571.352
571.999
570.953
567.963
561.82
558.87
470.377
467.155
460.224
452.529
447.898
447.073
444.15
442.479
442.1
442.129
442.101
442.792
443.485
444.28
446.158
449.332
452.798
454.842
457.321
390.183
386.724
385.229
384.107
379.62
371.895
365.61
361.566
358.537
355.897
353.231
350.749
348.254
345.634
343.198
342.045
343.183
347.1
351.483
329.064
325.096
322.178
319.45
315.718
309.978
303.956
298.358
294.425
291.152
287.8
284.219
280.263
275.537
269.664
262.979
257.191
254.384
253.839
269.091
263.589
259.194
255.319
251.08
245.35
239.32
234.079
229.787
226.051
222.454
218.795
214.866
210.422
204.914
198.304
191.057
183.673
177.816
207.659
201.488
195.998
190.892
185.669
179.959
174.269
169.062
164.501
160.416
156.542
152.7
148.799
144.662
139.782
133.92
127.179
120.133
113.764
145.593
138.72
132.353
126.275
120.23
114.21
108.406
102.993
98.1369
93.8055
89.7564
85.8869
82.0174
78.0788
73.6344
68.966
63.7928
58.0995
52.6219
83.5379
75.9589
68.667
61.7296
55.2918
49.7534
45.0522
40.8922
37.2673
34.3498
31.833
29.4677
27.7927
26.7684
24.7437
22.324
19.7952
17.0711
14.2643
29.8944
25.1423
21.1157
17.4385
14.3701
12.1425
10.4973
9.21064
8.29151
7.66233
7.12837
6.5676
6.87422
7.46622
7.43273
6.82499
6.28118
6.14043
5.9333
5.758
5.49214
5.50174
5.54718
5.6143
5.6965
5.78621
5.85142
5.87747
5.8809
5.9094
5.94546
5.89186
5.78368
5.70166
5.68749
5.70708
5.72971
5.74378
5.24285
5.33036
5.38751
5.43597
5.48428
5.53858
5.60104
5.64931
5.66651
5.6555
5.63895
5.65735
5.67465
5.65909
5.61613
5.59288
5.58381
5.5814
5.58436
5.122
5.18853
5.24299
5.29304
5.34006
5.38552
5.43538
5.47496
5.4896
5.48935
5.47971
5.46757
5.4664
5.44848
5.43683
5.43081
5.42845
5.42952
5.43316
4.98902
5.04452
5.09504
5.143
5.18681
5.2237
5.25093
5.27457
5.29523
5.30338
5.30375
5.29002
5.27422
5.26936
5.27515
5.2779
5.27966
5.28143
5.28424
4.84386
4.89407
4.94168
4.98815
5.02911
5.06188
5.0801
5.09442
5.10877
5.12439
5.13807
5.13839
5.13275
5.13075
5.1325
5.13362
5.13368
5.13344
5.13417
4.69295
4.73964
4.78458
4.82922
4.8684
4.90048
4.92353
4.93964
4.95318
4.9696
4.98259
4.987
4.98591
4.98536
4.98586
4.98533
4.98366
4.98157
4.98115
4.53731
4.58083
4.62307
4.66615
4.70471
4.7368
4.76218
4.7818
4.79859
4.81358
4.82526
4.83076
4.83202
4.83228
4.83194
4.83043
4.82782
4.82512
4.82451
4.37584
4.41743
4.45745
4.49921
4.53733
4.5699
4.5964
4.61803
4.63586
4.65095
4.66226
4.66883
4.67167
4.67249
4.67194
4.66998
4.66705
4.66438
4.66398
4.20963
4.24948
4.28778
4.32834
4.36598
4.39877
4.42615
4.44872
4.46739
4.48264
4.49416
4.50166
4.50568
4.5072
4.50679
4.50479
4.50196
4.49964
4.49951
4.03899
4.077
4.11401
4.15351
4.19059
4.22337
4.25124
4.27455
4.29385
4.30953
4.32153
4.32984
4.33481
4.33705
4.33706
4.33539
4.33293
4.33107
4.33125
3.86415
3.90069
3.93652
3.97505
4.01153
4.04417
4.07231
4.09613
4.11601
4.1322
4.14479
4.15386
4.15969
4.16268
4.16332
4.16219
4.16031
4.15902
4.15942
3.68587
3.72124
3.75598
3.79353
3.82938
3.86178
3.89002
3.91419
3.93453
3.95126
3.96447
3.97429
3.98093
3.98473
3.9861
3.9857
3.98448
3.98375
3.98438
3.50523
3.53935
3.57303
3.60959
3.64474
3.67678
3.70499
3.72938
3.7501
3.76733
3.78115
3.7917
3.79915
3.80377
3.80596
3.80632
3.80584
3.80569
3.80649
3.32262
3.35565
3.38831
3.42384
3.45821
3.48979
3.51785
3.54234
3.56336
3.58103
3.59545
3.60669
3.61492
3.62037
3.62339
3.62459
3.62483
3.62519
3.62621
3.13891
3.17077
3.20241
3.23686
3.27037
3.30139
3.32919
3.35367
3.37491
3.39297
3.40792
3.41982
3.4288
3.43506
3.43892
3.4409
3.44187
3.44276
3.44394
2.9545
2.98529
3.01586
3.04919
3.08176
3.11211
3.13954
3.16393
3.18529
3.20367
3.21909
3.23161
3.2413
3.24834
3.253
3.25578
3.25741
3.25873
3.26012
2.77024
2.79974
2.8292
2.86132
2.89286
2.92245
2.94941
2.97359
2.99499
3.01361
3.02945
3.04252
3.05288
3.06065
3.06608
3.06958
3.07184
3.0736
3.07513
2.58635
2.6146
2.64287
2.6737
2.70411
2.73284
2.75922
2.78311
2.80445
2.82322
2.8394
2.85296
2.86393
2.87238
2.87852
2.88272
2.88555
2.88765
2.88937
2.40347
2.43026
2.45726
2.4867
2.5159
2.54365
2.56936
2.59284
2.61402
2.63286
2.6493
2.66328
2.67479
2.68388
2.69069
2.6955
2.69885
2.7013
2.70313
2.22172
2.24709
2.2727
2.30067
2.32855
2.35523
2.38015
2.40311
2.42404
2.44284
2.45945
2.47377
2.48576
2.49541
2.50282
2.50823
2.51204
2.51475
2.51673
2.04162
2.06534
2.08949
2.1159
2.14237
2.16788
2.1919
2.21423
2.23478
2.25344
2.27011
2.28469
2.29707
2.30722
2.31518
2.32109
2.32533
2.32833
2.33037
1.86314
1.8853
1.90792
1.9327
1.95766
1.98189
2.00489
2.02646
2.04651
2.06491
2.08153
2.09625
2.10894
2.11952
2.12795
2.13434
2.13895
2.14215
2.1443
1.68671
1.70721
1.72827
1.75135
1.77472
1.79756
1.81941
1.84009
1.85949
1.87749
1.89394
1.90869
1.92158
1.93248
1.94133
1.94811
1.95306
1.95648
1.95866
1.51244
1.5314
1.55084
1.57216
1.59385
1.61518
1.63575
1.65539
1.67399
1.69143
1.70756
1.7222
1.73518
1.74631
1.75546
1.76261
1.76783
1.77139
1.77362
1.34087
1.35816
1.37594
1.39543
1.41534
1.43504
1.45418
1.47262
1.49026
1.50697
1.52261
1.537
1.54993
1.56118
1.57056
1.57794
1.58338
1.58708
1.58928
1.17212
1.18778
1.20383
1.22142
1.23944
1.25738
1.27495
1.29202
1.3085
1.3243
1.33928
1.35324
1.36598
1.37722
1.38672
1.39429
1.39986
1.40357
1.40574
1.00655
1.02047
1.03473
1.05032
1.06636
1.0824
1.09823
1.11374
1.12888
1.14356
1.15766
1.17102
1.18341
1.19453
1.20407
1.21171
1.21733
1.22101
1.22305
0.844201
0.856357
0.868733
0.882237
0.896167
0.910179
0.924097
0.937861
0.951436
0.964768
0.977771
0.990306
1.00216
1.01304
1.02254
1.03024
1.03585
1.03936
1.04124
0.68516
0.695382
0.705783
0.717109
0.728818
0.740653
0.75249
0.764298
0.776074
0.787798
0.799429
0.810875
0.821973
0.832443
0.841859
0.849628
0.855278
0.858631
0.860273
0.528994
0.537257
0.545609
0.554665
0.564038
0.573548
0.583121
0.592755
0.602472
0.612291
0.622217
0.632225
0.642233
0.652045
0.661263
0.669262
0.675212
0.678523
0.680122
0.375082
0.381342
0.387563
0.394258
0.40117
0.408201
0.415318
0.422546
0.429923
0.437498
0.445317
0.453426
0.461845
0.470529
0.479292
0.487603
0.494467
0.49852
0.500733
0.223267
0.227584
0.231557
0.235804
0.240167
0.244609
0.24913
0.253763
0.258554
0.263559
0.268846
0.274497
0.280614
0.287315
0.29472
0.302881
0.311085
0.316395
0.322499
0.0741723
0.0755916
0.0769165
0.078368
0.0798803
0.0814234
0.0830008
0.0846314
0.086341
0.08816
0.0901264
0.0922906
0.0947248
0.0975415
0.100949
0.105337
0.110703
0.111829
0.125639
)
;

boundaryField
{
    leftWall
    {
        type            calculated;
        value           nonuniform List<scalar> 
50
(
6457.32
5658.16
4861.45
4067.91
3276.48
2486.69
1701.35
1043.59
686.518
536.135
414.866
292.679
177.147
90.8198
29.0503
5.54253
4.34525
4.17833
4.01489
3.84982
3.69537
3.54219
3.39333
3.24905
3.10886
2.97223
2.8387
2.70784
2.57926
2.45265
2.32772
2.20422
2.08192
1.96063
1.84019
1.72047
1.6013
1.48257
1.36417
1.24598
1.12792
1.00989
0.891836
0.773715
0.655504
0.537208
0.418801
0.30006
0.180508
0.062242
)
;
    }
    rightWall
    {
        type            calculated;
        value           nonuniform List<scalar> 
50
(
3130.79
2535.16
1950.99
1460.29
1077.7
827.38
706.754
626.566
558.87
457.321
351.483
253.839
177.816
113.764
52.6219
14.2643
5.9333
5.74378
5.58436
5.43316
5.28424
5.13417
4.98115
4.82451
4.66398
4.49951
4.33125
4.15942
3.98438
3.80649
3.62621
3.44394
3.26012
3.07513
2.88937
2.70313
2.51673
2.33037
2.1443
1.95866
1.77362
1.58928
1.40574
1.22305
1.04124
0.860273
0.680122
0.500733
0.322499
0.125639
)
;
    }
    lowerWall
    {
        type            calculated;
        value           nonuniform List<scalar> 
62
(
6855.47
6850.3
6825.46
6774.46
6698.7
6600.66
6486.08
6359.04
6224.77
6088.44
5954.16
5826.08
5707.91
5602.23
5510.41
5432.96
5369.78
5320.14
5282.9
5256.65
5238.4
5228.27
5224.6
4826.67
4030.87
3233.5
2433.56
1630.41
1020.77
785.45
725.005
709.147
720.035
709.967
699.687
2190.43
1611.49
1302.75
1132.16
960.196
820.732
730.176
669.184
2541.78
2529.24
2500.89
2470.82
2457.26
2472.34
2486.01
2448.7
2483.32
2560.79
2645.54
2715.17
2762.19
2843.37
2995.34
3154.78
3275.19
3373.56
3433.62
)
;
    }
    atmosphere
    {
        type            calculated;
        value           nonuniform List<scalar> 
46
(
-0.00050141
-2.61505e-05
0
0
0
0
0
0
0
0
0
0
0
0
0
0
0
0
0
-3.68669e-06
-3.10805e-05
-6.71792e-05
-9.25891e-05
-5.69959e-05
-4.2966e-05
-4.72537e-05
-6.362e-05
-0.000110282
-0.000160498
-0.000219555
-0.000292703
-0.000376871
-0.000468339
-0.000563068
-0.000656681
-0.000744574
-0.000822246
-0.000885816
-0.000932804
-0.000963303
-0.00098202
-0.00100265
-0.00105896
-0.00122783
-0.00194946
-0.00262085
)
;
    }
    defaultFaces
    {
        type            empty;
    }
}


// ************************************************************************* //
