/*--------------------------------*- C++ -*----------------------------------*\
  =========                 |
  \\      /  F ield         | OpenFOAM: The Open Source CFD Toolbox
   \\    /   O peration     | Website:  https://openfoam.org
    \\  /    A nd           | Version:  13
     \\/     M anipulation  |
\*---------------------------------------------------------------------------*/
FoamFile
{
    format      ascii;
    class       volScalarField;
    location    "2.15";
    object      p_rgh;
}
// * * * * * * * * * * * * * * * * * * * * * * * * * * * * * * * * * * * * * //

dimensions      [1 -1 -2 0 0 0 0];

internalField   nonuniform List<scalar> 
2268
(
6855.47
6850.3
6825.46
6774.46
6698.7
6600.66
6486.08
6359.04
6224.77
6088.44
5954.16
5826.08
5707.91
5602.23
5510.41
5432.96
5369.78
5320.14
5282.9
5256.65
5238.4
5228.27
5224.6
6852.61
6848.92
6826.9
6776.68
6701.61
6605.21
6490.69
6363.56
6229.12
6092.52
5957.77
5829.01
5710.08
5603.71
5511.38
5433.66
5370.37
5320.58
5282.83
5255.22
5236.53
5227.88
5225.04
6852.2
6849.72
6830.44
6781.22
6706.84
6610.75
6496.81
6369.78
6235.03
6097.81
5962.24
5832.34
5712.31
5605.01
5512
5433.83
5370.36
5320.47
5282.62
5255.13
5236.5
5229.57
5224.25
6854.96
6855.48
6839.03
6790.91
6716.68
6619.93
6505.33
6377.22
6241.31
6102.88
5965.53
5833.74
5712.14
5603.72
5509.78
5430.86
5367.04
5317.1
5279.48
5252.76
5235.3
5230.75
5220.61
6859.82
6865.09
6851.96
6805.39
6731.06
6632.98
6516.44
6385.75
6247.29
6106.12
5964.72
5828.45
5703.57
5593.07
5497.74
5417.92
5354.04
5304.37
5260.12
5229.31
5211.87
5211.96
5208.89
6866.34
6877.92
6868.65
6824.41
6750.08
6650.32
6529.95
6392.71
6246.31
6097.14
5851.3
5469.1
5046.26
4627.7
4219.27
3844.9
3561.14
3362.4
3247.81
3196.27
3204.96
3269
3249.44
6877.3
6901.22
6897.81
6856.1
6772.26
6664.38
6344.04
5730.85
4861.69
3805.01
2858.83
2203.22
1755.52
1463.64
1320.23
1283.3
1259.54
1240.12
1222.01
1204.53
1187.55
1174.13
1169.32
5083.17
5478.43
5637.62
5451.68
4844
3790.76
2770.48
1961.38
1462.64
1287.9
1281.31
1281.73
1279.16
1273.81
1265.79
1255.39
1243.25
1229.45
1214.19
1198.02
1181.84
1169.47
1166.34
2541.78
2529.24
2500.89
2470.82
2457.26
2472.34
2486.01
2448.7
2483.32
2560.79
2645.54
2715.17
2762.19
2843.37
2995.34
3154.78
3275.19
3373.56
3433.62
2300.25
2296.94
2274.78
2220.54
2203.24
2305.22
2341.47
2511.81
2630.76
2708.83
2792.38
2867.3
2876.37
2965.2
3061.43
3164.97
3281.59
3378.94
3443.63
1712.24
1656.03
1591.2
1555.5
1625.73
1514.24
1566.63
1710.51
1895.1
2204.82
2483.65
2646.04
2788.05
2887.24
3037
3152.13
3280.92
3394.56
3464.82
1772.08
1785.48
1631.7
1622.92
1422.39
1293.77
1223.24
1186.93
1162.95
1125.32
1140.84
1475.9
1817.69
1839.56
2006.68
2310.24
2627.98
3079.24
2984.32
1727.78
1738.06
1709.31
1683.4
1470.32
1309.48
1288.35
1301.23
1243.98
1120.8
1091.26
944.981
1305.62
1685.2
1698.41
1708.3
1938.53
1952.54
2889.8
1485.42
1471.25
1495.49
1360.81
1474.56
1457.5
1381.57
1454.66
1336.27
1114.4
1104.85
1015.23
851.244
1047
1294.38
1432.15
1589.31
1874.58
1637.09
1181.41
1121.87
1153.2
1179.88
1280.88
1426.4
1484.3
1166.06
1104.07
1103.86
1102.74
1097.77
1013.17
895.734
884.818
993.473
1021.08
1113.9
1531.97
1126.86
1074.85
1107.06
1067.4
1077.63
1242.68
1096.43
1087.13
1092.84
1100.32
1100.99
1105.34
1105.31
1081.73
1067.3
1082
1089.22
1072.76
997.025
1463.06
1559.14
1530.01
1383.67
1247.48
1222.7
1237.44
1250.98
1260.93
1267.3
1271.28
1273.04
1271.96
1267.79
1260.77
1251.27
1239.7
1226.33
1211.62
1196.08
1180.93
1169.19
1162.67
1194.8
1192.54
1194.35
1201.18
1211.32
1222.51
1235.36
1247.63
1257.62
1264.72
1268.93
1270.42
1268.97
1264.63
1257.72
1248.61
1237.54
1224.8
1209.05
1183.89
1159.82
1139.42
1111.61
1198.72
1198.32
1201.11
1207.44
1216.58
1227.25
1238.57
1249.39
1258.52
1265.16
1268.97
1269.99
1268.08
1263.38
1249.87
1230.59
1210.93
1171.72
1105.26
1061.07
944.224
882.29
830.172
1199.1
1199.92
1202.46
1210.95
1220.42
1232.13
1243.07
1253.29
1261.53
1261.66
1255.88
1243.85
1218.41
1162.13
1102.53
1042.55
959.978
875.848
798.317
767.74
802.794
794.633
728.548
1041.76
1054.88
1070.78
1070.63
1062.51
1054.77
1090.11
1090.48
1055.86
1040.13
987.565
933.615
880.573
810.223
744.617
750.654
742.097
724.31
786.379
811.542
809.801
794.217
776.443
646.303
659.853
681.833
694.515
708.889
725.135
739.32
722.72
713.718
741.28
731.908
723.933
729.589
742.844
782.649
799.19
796.928
795.667
811.623
812.532
810.209
807.911
806.56
452.555
493.491
555.972
620.502
668.167
702.733
722.529
736.833
750.615
763.322
775.511
786.55
795.914
803.063
808.074
811.969
814.876
816.057
815.327
813.608
811.438
809.003
805.519
28.4215
28.8503
61.8769
126.234
217.708
330.793
455.491
565.285
660.463
744.86
779.007
791.382
801.627
808.883
813.251
816.304
818.162
818.435
816.871
814.234
811.357
808.482
804.706
5.88579
5.8983
5.88433
5.84059
5.84981
6.40621
21.4655
63.8681
128.642
217.573
351.827
507.956
664.581
791.168
818.53
822.714
824.379
823.727
821.047
816.958
812.055
808.559
804.873
5.83936
5.83096
5.81025
5.82402
5.94176
5.90157
5.80525
5.8131
5.80838
5.81331
5.87652
15.1272
50.1218
111.729
203.094
314.36
417.253
463.282
465.33
410.296
307.393
276.72
243.968
5.8019
5.79832
5.79443
5.81528
5.82651
5.82534
5.71596
5.69128
5.67052
5.66066
5.68986
5.74934
5.81065
5.82405
5.78436
5.77363
5.80845
5.8617
5.92086
5.98628
6.10064
6.23239
6.25359
5.76142
5.76119
5.75598
5.75549
5.73322
5.72309
5.71626
5.7035
5.69736
5.71164
5.69121
5.69014
5.70162
5.72126
5.75051
5.8042
5.88109
5.9721
6.06853
6.16828
6.27493
6.37528
6.46219
5.73171
5.72845
5.72365
5.71833
5.71244
5.70891
5.70615
5.73874
5.86237
5.88629
5.84128
5.74944
5.73823
5.76286
5.79682
5.84254
5.90418
5.9779
6.06126
6.15101
6.24384
6.33069
6.4204
5.70361
5.69922
5.69541
5.69161
5.68935
5.68884
5.69029
5.73044
5.88273
5.89757
5.91497
5.87695
5.77806
5.80238
5.83297
5.87285
5.92462
5.98827
6.06115
6.14214
6.22664
6.30534
6.38607
5.6798
5.67532
5.67195
5.66958
5.66873
5.66966
5.673
5.68876
5.79712
5.89559
5.90958
5.81994
5.78703
5.81785
5.85137
5.89235
5.94177
5.99916
6.06713
6.14234
6.22067
6.29477
6.37216
5.6606
5.65623
5.65326
5.65185
5.65221
5.65457
5.65957
5.66848
5.68017
5.7171
5.73591
5.75143
5.78426
5.81936
5.85762
5.901
5.9494
6.00439
6.06948
6.14077
6.2146
6.28498
6.35914
5.64557
5.64149
5.63895
5.63831
5.63976
5.64352
5.65004
5.65993
5.67361
5.69212
5.71477
5.74312
5.77868
5.8164
5.85515
5.89834
5.94762
6.00363
6.06686
6.13506
6.20516
6.27201
6.34308
5.63413
5.63051
5.62844
5.62846
5.63084
5.63576
5.6436
5.65477
5.66971
5.68878
5.71233
5.74098
5.77389
5.80979
5.84919
5.89351
5.94323
5.99882
6.06003
6.12539
6.19228
6.25604
6.32322
5.62579
5.6227
5.62113
5.62174
5.62485
5.63066
5.63944
5.65154
5.66723
5.68684
5.71063
5.73882
5.77057
5.80582
5.84514
5.88903
5.93759
5.99127
6.05
6.11243
6.17609
6.23667
6.30014
5.62012
5.61757
5.6165
5.61761
5.62128
5.6277
5.63709
5.64971
5.66578
5.68549
5.70898
5.73639
5.76741
5.80209
5.84067
5.88321
5.93
5.98146
6.03751
6.09685
6.15723
6.21459
6.27434
5.61673
5.61471
5.61413
5.61566
5.61973
5.62651
5.6362
5.649
5.6651
5.68463
5.70767
5.73426
5.76438
5.79805
5.83523
5.87608
5.92083
5.96985
6.02305
6.07925
6.13632
6.19043
6.24675
5.6153
5.61377
5.61364
5.61552
5.61984
5.62679
5.63654
5.64927
5.66513
5.68421
5.70658
5.73226
5.76124
5.7935
5.82903
5.86793
5.91043
5.95684
6.0071
6.06008
6.11382
6.16476
6.21764
5.61556
5.61448
5.61473
5.61688
5.62133
5.62829
5.63793
5.65039
5.6658
5.68423
5.70572
5.7303
5.75793
5.78859
5.82227
5.85905
5.89914
5.94282
5.99003
6.03973
6.09008
6.13777
6.18735
5.61724
5.61655
5.61714
5.61948
5.62397
5.63082
5.64021
5.65225
5.66704
5.68466
5.70512
5.72842
5.75455
5.78347
5.81515
5.84969
5.88726
5.92812
5.9722
6.01854
6.06544
6.10985
6.1559
5.62012
5.61979
5.62067
5.62313
5.62756
5.63422
5.64325
5.65475
5.66881
5.68549
5.70479
5.72672
5.75123
5.7783
5.8079
5.8401
5.87506
5.91303
5.95393
5.99688
6.04031
6.08141
6.12408
5.62402
5.62401
5.62511
5.62763
5.63196
5.63835
5.64694
5.65782
5.67106
5.68671
5.70478
5.72524
5.74807
5.77322
5.80067
5.83048
5.86281
5.89785
5.93556
5.97511
6.01509
6.05295
6.09219
5.62876
5.62906
5.63032
5.63285
5.63704
5.6431
5.65118
5.66138
5.67375
5.68832
5.7051
5.72405
5.74515
5.76835
5.79363
5.82103
5.85069
5.88281
5.91733
5.95353
5.9901
6.02472
6.0607
5.63422
5.63476
5.63616
5.63867
5.64266
5.64836
5.6559
5.66538
5.67683
5.69029
5.70575
5.72318
5.74253
5.76377
5.78687
5.81187
5.83889
5.86811
5.8995
5.93237
5.96558
5.99702
6.02964
5.64024
5.64099
5.64249
5.64496
5.64872
5.65403
5.66101
5.66974
5.68026
5.69259
5.70672
5.72262
5.74023
5.75953
5.78047
5.80309
5.82751
5.85389
5.8822
5.91183
5.94175
5.97007
5.99953
5.6467
5.64764
5.64921
5.6516
5.65513
5.66003
5.66643
5.6744
5.68398
5.69518
5.70799
5.72237
5.73827
5.75564
5.77446
5.79476
5.81663
5.84024
5.86554
5.89201
5.91873
5.94406
5.97041
5.65349
5.65458
5.6562
5.6585
5.66177
5.66626
5.67207
5.67928
5.68793
5.69802
5.70952
5.72241
5.73662
5.75212
5.76887
5.78689
5.80629
5.82719
5.84957
5.87297
5.89656
5.91894
5.94233
5.66049
5.66171
5.66336
5.66555
5.66856
5.67262
5.67785
5.68431
5.69204
5.70102
5.71125
5.72268
5.73526
5.74893
5.76367
5.7795
5.7965
5.81478
5.83432
5.85472
5.87528
5.89478
5.91512
5.66761
5.66894
5.6706
5.67266
5.67541
5.67904
5.68368
5.6894
5.69621
5.70413
5.71311
5.72313
5.73412
5.74604
5.75885
5.77257
5.78726
5.80302
5.81984
5.83737
5.855
5.87169
5.88916
5.67478
5.67619
5.67784
5.67976
5.68221
5.68541
5.68946
5.69444
5.70037
5.70725
5.71504
5.72369
5.73317
5.74341
5.75438
5.76609
5.77858
5.79196
5.80619
5.82099
5.83585
5.84992
5.86461
5.68192
5.6834
5.68501
5.68676
5.68889
5.69163
5.6951
5.69936
5.70442
5.71029
5.71694
5.7243
5.73233
5.74099
5.75022
5.76004
5.77048
5.78161
5.79343
5.80568
5.81795
5.82956
5.84171
5.68899
5.69053
5.69207
5.69359
5.69536
5.69763
5.7005
5.70405
5.70829
5.7132
5.71875
5.72489
5.73156
5.73873
5.74635
5.75441
5.76295
5.77202
5.78162
5.79153
5.80142
5.81076
5.8205
5.69597
5.69757
5.69899
5.7002
5.70156
5.70332
5.70561
5.70847
5.71191
5.71591
5.72043
5.72542
5.73083
5.73661
5.74274
5.7492
5.75601
5.76321
5.77079
5.77859
5.78634
5.79363
5.80125
5.70287
5.70457
5.70577
5.70656
5.70743
5.70867
5.71038
5.71259
5.71527
5.71841
5.72196
5.72587
5.73011
5.73462
5.73939
5.74439
5.74963
5.75515
5.76093
5.76684
5.77269
5.7782
5.78395
5.70966
5.71156
5.71241
5.71261
5.71294
5.71367
5.71483
5.71642
5.71839
5.72072
5.72336
5.72628
5.72943
5.73277
5.73629
5.73997
5.74382
5.74784
5.75199
5.75621
5.76036
5.76427
5.76841
5.71611
5.71829
5.71868
5.71824
5.71809
5.71837
5.71906
5.72009
5.72141
5.72298
5.72478
5.72675
5.72889
5.73117
5.73356
5.73607
5.73867
5.74137
5.74411
5.74687
5.74944
5.75188
5.75446
5.72176
5.72321
5.72305
5.72285
5.72273
5.72285
5.72319
5.72373
5.72444
5.72529
5.72628
5.72737
5.72857
5.72987
5.73126
5.73274
5.73431
5.73593
5.73756
5.73905
5.7403
5.74139
5.74272
5.72868
5.7229
5.72472
5.72619
5.72689
5.72719
5.72735
5.7275
5.72769
5.72793
5.72822
5.72857
5.72898
5.72945
5.72998
5.7306
5.73129
5.73204
5.73284
5.73348
5.7338
5.73419
5.73511
1352.8
1484.66
1446.31
1414.21
968.95
892.24
898.037
993.23
756.922
736.683
768.193
831.28
729.049
788.893
797.587
779.239
798.535
802.081
798.118
793.277
802.343
799.275
796.015
792.768
801.861
799.25
796.421
793.335
801.188
799.067
796.659
793.66
801.809
801.942
792.071
748.198
72.1615
43.4887
46.5408
37.8723
6.46567
6.6045
6.76488
6.89936
6.5879
6.69947
6.8279
6.9299
6.5367
6.66799
6.81087
6.92352
6.51135
6.64345
6.79073
6.90407
6.49634
6.62725
6.77275
6.88345
6.47839
6.60519
6.74724
6.85576
6.45666
6.57847
6.71618
6.82193
6.43163
6.54845
6.68089
6.78338
6.40283
6.51439
6.64215
6.74114
6.3714
6.47734
6.59922
6.69437
6.33809
6.43819
6.55408
6.64478
6.3036
6.39784
6.50698
6.59293
6.2677
6.35596
6.45859
6.5395
6.23066
6.31287
6.40857
6.48462
6.19309
6.26923
6.35838
6.42939
6.15583
6.22604
6.30823
6.37419
6.11887
6.18321
6.25888
6.3197
6.08252
6.14106
6.20999
6.26589
6.04713
6.1
6.16264
6.21355
6.01313
6.06054
6.11667
6.16268
5.98016
6.02227
6.07239
6.11356
5.94822
5.98517
6.02928
6.066
5.91758
5.94958
5.98825
6.02065
5.88879
5.91616
5.94939
5.97771
5.86184
5.88488
5.91324
5.93764
5.83691
5.85594
5.87961
5.90042
5.81425
5.82961
5.84912
5.86649
5.79407
5.80616
5.82164
5.83575
5.77593
5.78507
5.79698
5.80796
5.7594
5.76567
5.77407
5.78215
5.74551
5.7485
5.75277
5.75782
5.73807
5.73888
5.73785
5.73835
1144.3
1056.22
1021.22
1064.61
1043.19
946.054
1043.28
1084.24
1088.43
1094.27
1097.15
1100.98
1103.81
1105.06
1105.53
1104.47
1101.49
1094.84
976.992
1016.41
999.961
922.743
797.298
763.183
883.216
946.113
964.095
978.32
994.896
1015.02
1036.17
1054.36
1071.81
1097.19
1108.46
1111.56
1112.6
1085.23
821.406
785.667
780.1
773.419
747.572
724.852
714.304
748.218
750.521
747.879
750.107
759.366
770.356
786.682
827.994
915.109
1020
1092.56
1109.87
776.377
779.116
776.655
769.162
747.056
749.638
758.575
752.898
749.16
745.735
742.364
738.849
734.964
730.617
725.322
718.742
732.241
834.999
947.301
786.516
780.499
776.017
772.329
768.25
762.489
756.445
751.207
746.916
743.171
739.576
735.917
731.96
727.46
722.206
716.098
709.551
736.363
771.729
787.385
781.211
775.714
770.614
765.39
759.679
753.988
748.782
744.221
740.136
736.263
732.42
728.522
724.387
719.474
713.115
707.487
708.329
701.557
787.916
781.039
774.673
768.595
762.55
756.529
750.723
745.31
740.454
736.123
732.074
728.204
724.633
726.744
729.883
725.84
713.752
692.777
674.229
788.454
780.875
773.585
762.984
737.303
702.796
665.295
628.722
597.14
573.165
554.342
533.399
490.243
453.587
409.976
379.433
339.448
264.926
203.153
661.444
542.216
426.612
319.097
227.434
162.781
117.731
84.0046
61.0003
46.5099
33.2728
17.3669
28.3303
55.8334
58.9757
40.2701
22.14
15.1884
8.29685
20.4119
9.37782
7.55893
7.25205
7.28361
7.3988
7.61276
7.95877
8.49062
9.51269
11.5041
11.3243
9.28172
7.52284
7.39106
7.34789
7.36762
7.3902
7.40433
7.0284
7.11603
7.17323
7.22268
7.27358
7.33929
7.42635
7.54371
7.68067
7.67736
7.47275
7.96057
8.29717
8.00838
7.48418
7.37936
7.37108
7.36843
7.37038
7.03272
7.09944
7.15418
7.20432
7.25172
7.3022
7.94797
8.33039
8.04827
7.46265
7.42182
8.13484
8.54307
8.42355
7.45627
7.34266
7.34111
7.34121
7.34434
7.02493
7.08054
7.13119
7.1793
7.22327
7.26203
7.87166
8.30415
8.33619
7.9672
7.35367
7.33617
7.43314
7.30842
7.31205
7.31484
7.31611
7.31753
7.32061
7.00495
7.05519
7.10286
7.14941
7.19048
7.22338
7.24159
7.41645
7.6749
7.44196
7.31738
7.30104
7.29635
7.29305
7.29401
7.29506
7.29482
7.29468
7.29583
6.97922
7.02592
7.07088
7.1156
7.15486
7.18692
7.21
7.22605
7.23956
7.25606
7.26909
7.27444
7.27308
7.2722
7.27244
7.27165
7.26993
7.26803
7.26796
6.94878
6.99229
7.03451
7.07764
7.11626
7.14836
7.17399
7.19382
7.21056
7.22525
7.23687
7.24262
7.24424
7.24455
7.24385
7.24194
7.23929
7.23669
7.23627
6.91249
6.95406
6.99408
7.03585
7.07397
7.10652
7.13329
7.15536
7.17326
7.18803
7.19904
7.20561
7.20875
7.20966
7.20882
7.20666
7.20371
7.20104
7.2006
6.87145
6.91129
6.94959
6.99015
7.02779
7.06058
7.08796
7.11076
7.12957
7.14469
7.15611
7.16353
7.1676
7.16914
7.16864
7.1666
7.16378
7.16144
7.1613
6.826
6.86399
6.901
6.9405
6.97759
7.01037
7.03824
7.06155
7.08086
7.09655
7.10857
7.11687
7.12182
7.12404
7.12404
7.12238
7.11992
7.11806
7.11824
6.77633
6.81287
6.8487
6.88722
6.92371
6.95636
6.9845
7.00832
7.0282
7.0444
7.05699
7.06606
7.07188
7.07487
7.0755
7.07437
7.07249
7.07121
7.0716
6.72324
6.75861
6.79334
6.8309
6.86675
6.89915
6.92739
6.95156
6.97191
6.98863
7.00184
7.01166
7.0183
7.0221
7.02347
7.02307
7.02186
7.02113
7.02176
6.66779
6.7019
6.73559
6.77215
6.8073
6.83934
6.86755
6.89193
6.91266
6.92988
6.94371
6.95426
6.96171
6.96633
6.96852
6.96889
6.96842
6.96827
6.96907
6.61038
6.64341
6.67606
6.71159
6.74596
6.77754
6.8056
6.83009
6.85111
6.86878
6.8832
6.89444
6.90267
6.90812
6.91115
6.91234
6.9126
6.91298
6.91401
6.55186
6.58371
6.61535
6.64981
6.68331
6.71433
6.74213
6.76661
6.78785
6.80591
6.82086
6.83277
6.84175
6.84801
6.85187
6.85386
6.85484
6.85578
6.85693
6.49264
6.52342
6.554
6.58733
6.61989
6.65025
6.67768
6.70206
6.72342
6.7418
6.75723
6.76975
6.77944
6.78648
6.79114
6.79393
6.79559
6.79696
6.79835
6.43357
6.46307
6.49253
6.52465
6.55619
6.58578
6.61274
6.63692
6.65832
6.67694
6.69278
6.70585
6.71621
6.72398
6.72942
6.73292
6.73522
6.73708
6.73857
6.37488
6.40312
6.43139
6.46222
6.49264
6.52136
6.54775
6.57163
6.59297
6.61175
6.62793
6.64149
6.65245
6.66091
6.66706
6.67127
6.67414
6.67633
6.67805
6.31719
6.34398
6.37098
6.40042
6.42962
6.45737
6.48308
6.50656
6.52774
6.54658
6.56302
6.577
6.58851
6.5976
6.60442
6.60924
6.61265
6.61521
6.61699
6.26064
6.286
6.31161
6.33958
6.36746
6.39415
6.41906
6.44203
6.46295
6.48176
6.49836
6.51269
6.52467
6.53433
6.54174
6.54717
6.55105
6.55386
6.55577
6.20573
6.22945
6.2536
6.28001
6.30648
6.33199
6.356
6.37834
6.39889
6.41755
6.43422
6.4488
6.46118
6.47134
6.4793
6.48523
6.48955
6.49264
6.49459
6.15245
6.1746
6.19722
6.222
6.24697
6.2712
6.29419
6.31577
6.33581
6.35421
6.37084
6.38556
6.39825
6.40882
6.41726
6.42368
6.42838
6.43167
6.4337
6.1012
6.12171
6.14276
6.16585
6.18922
6.21206
6.23391
6.25459
6.27399
6.29199
6.30844
6.32319
6.33608
6.34699
6.35583
6.36264
6.36767
6.37118
6.37321
6.05213
6.07109
6.09053
6.11186
6.13354
6.15487
6.17544
6.19508
6.21369
6.23113
6.24725
6.2619
6.27487
6.28601
6.29517
6.30233
6.30762
6.31116
6.31336
6.00576
6.02305
6.04083
6.06032
6.08023
6.09993
6.11907
6.13751
6.15514
6.17186
6.1875
6.20189
6.21482
6.22607
6.23546
6.24286
6.24832
6.25202
6.25418
5.9622
5.97786
5.99391
6.0115
6.02952
6.04746
6.06503
6.0821
6.09858
6.11438
6.12936
6.14333
6.15606
6.16731
6.17682
6.1844
6.18997
6.19367
6.19584
5.92183
5.93575
5.95001
5.9656
5.98163
5.99768
6.0135
6.02902
6.04416
6.05884
6.07294
6.0863
6.09869
6.10982
6.11936
6.127
6.13262
6.1363
6.13834
5.88467
5.89683
5.9092
5.92271
5.93664
5.95065
5.96457
5.97833
5.99191
6.00524
6.01824
6.03078
6.04264
6.05352
6.06302
6.07073
6.07633
6.07983
6.08172
5.85082
5.86105
5.87145
5.88277
5.89448
5.90632
5.91815
5.92996
5.94174
5.95346
5.96509
5.97654
5.98764
5.99811
6.00753
6.0153
6.02095
6.0243
6.02594
5.81985
5.82812
5.83647
5.84552
5.8549
5.86441
5.87398
5.88361
5.89333
5.90315
5.91308
5.92309
5.93309
5.94291
5.95213
5.96013
5.96607
5.96938
5.97098
5.79114
5.7974
5.80362
5.81031
5.81722
5.82425
5.83137
5.8386
5.84598
5.85355
5.86137
5.86948
5.8779
5.88659
5.89535
5.90366
5.91052
5.91457
5.91679
5.76452
5.76883
5.7728
5.77705
5.78142
5.78586
5.79038
5.79501
5.7998
5.80481
5.81009
5.81575
5.82186
5.82856
5.83597
5.84413
5.85233
5.85764
5.86375
5.74062
5.74203
5.74336
5.74481
5.74632
5.74787
5.74944
5.75107
5.75278
5.7546
5.75657
5.75873
5.76117
5.76398
5.76739
5.77178
5.77715
5.77827
5.79208
)
;

boundaryField
{
    leftWall
    {
        type            fixedFluxPressure;
        gradient        uniform 0;
        value           nonuniform List<scalar> 
50
(
6855.47
6852.61
6852.2
6854.96
6859.82
6866.34
6877.3
5083.17
1463.06
1194.8
1198.72
1199.1
1041.76
646.303
452.555
28.4215
5.88579
5.83936
5.8019
5.76142
5.73171
5.70361
5.6798
5.6606
5.64557
5.63413
5.62579
5.62012
5.61673
5.6153
5.61556
5.61724
5.62012
5.62402
5.62876
5.63422
5.64024
5.6467
5.65349
5.66049
5.66761
5.67478
5.68192
5.68899
5.69597
5.70287
5.70966
5.71611
5.72176
5.72868
)
;
    }
    rightWall
    {
        type            fixedFluxPressure;
        gradient        uniform 0;
        value           nonuniform List<scalar> 
50
(
3433.62
3443.63
3464.82
2984.32
2889.8
1637.09
1531.97
997.025
976.992
1085.23
1109.87
947.301
771.729
701.557
674.229
203.153
8.29685
7.40433
7.37038
7.34434
7.32061
7.29583
7.26796
7.23627
7.2006
7.1613
7.11824
7.0716
7.02176
6.96907
6.91401
6.85693
6.79835
6.73857
6.67805
6.61699
6.55577
6.49459
6.4337
6.37321
6.31336
6.25418
6.19584
6.13834
6.08172
6.02594
5.97098
5.91679
5.86375
5.79208
)
;
    }
    lowerWall
    {
        type            fixedFluxPressure;
        gradient        uniform 0;
        value           nonuniform List<scalar> 
62
(
6855.47
6850.3
6825.46
6774.46
6698.7
6600.66
6486.08
6359.04
6224.77
6088.44
5954.16
5826.08
5707.91
5602.23
5510.41
5432.96
5369.78
5320.14
5282.9
5256.65
5238.4
5228.27
5224.6
5224.6
5225.04
5224.25
5220.61
5208.89
3249.44
1169.32
1166.34
1352.8
1484.66
1446.31
1414.21
2541.78
2300.25
1712.24
1772.08
1727.78
1485.42
1181.41
1126.86
2541.78
2529.24
2500.89
2470.82
2457.26
2472.34
2486.01
2448.7
2483.32
2560.79
2645.54
2715.17
2762.19
2843.37
2995.34
3154.78
3275.19
3373.56
3433.62
)
;
    }
    atmosphere
    {
        type            prghTotalPressure;
        rho             rho;
        psi             none;
        gamma           1;
        p0              uniform 0;
        value           nonuniform List<scalar> 
46
(
5.72854
5.72901
5.72904
5.72904
5.72904
5.72904
5.72904
5.72904
5.72904
5.72904
5.72904
5.72904
5.72904
5.72904
5.72904
5.72904
5.72904
5.72904
5.72904
5.72904
5.72901
5.72897
5.72895
5.72899
5.729
5.72899
5.72898
5.72893
5.72888
5.72882
5.72875
5.72866
5.72857
5.72848
5.72838
5.7283
5.72822
5.72815
5.72811
5.72808
5.72806
5.72804
5.72798
5.72781
5.72709
5.72642
)
;
        rho             rho;
    }
    defaultFaces
    {
        type            empty;
    }
}


// ************************************************************************* //
