/*--------------------------------*- C++ -*----------------------------------*\
  =========                 |
  \\      /  F ield         | OpenFOAM: The Open Source CFD Toolbox
   \\    /   O peration     | Website:  https://openfoam.org
    \\  /    A nd           | Version:  13
     \\/     M anipulation  |
\*---------------------------------------------------------------------------*/
FoamFile
{
    format      ascii;
    class       surfaceScalarField;
    location    "2.15";
    object      phi;
}
// * * * * * * * * * * * * * * * * * * * * * * * * * * * * * * * * * * * * * //

dimensions      [0 3 -1 0 0 0 0];

internalField   nonuniform List<scalar> 
4432
(
1.96397e-06
-1.96396e-06
2.8204e-06
-8.56431e-07
3.35478e-06
-5.34378e-07
3.75413e-06
-3.99359e-07
4.02265e-06
-2.68516e-07
4.13883e-06
-1.16181e-07
4.10195e-06
3.68807e-08
3.92194e-06
1.80015e-07
3.65631e-06
2.65632e-07
3.32549e-06
3.30822e-07
2.9518e-06
3.73696e-07
2.56844e-06
3.83356e-07
2.20609e-06
3.62358e-07
1.8803e-06
3.25798e-07
1.58428e-06
2.96026e-07
1.30388e-06
2.80408e-07
1.03696e-06
2.66923e-07
7.99397e-07
2.37567e-07
6.24947e-07
1.74453e-07
5.69145e-07
5.58052e-08
6.54771e-07
-8.56248e-08
7.37567e-07
-8.27971e-08
7.37566e-07
1.44193e-06
-3.40589e-06
2.49675e-06
-1.91125e-06
3.3817e-06
-1.41933e-06
4.07226e-06
-1.08992e-06
4.54382e-06
-7.40074e-07
4.78162e-06
-3.53984e-07
4.78364e-06
3.48642e-08
4.5976e-06
3.66066e-07
4.28205e-06
5.81196e-07
3.89071e-06
7.22162e-07
3.45129e-06
8.13128e-07
2.99824e-06
8.36409e-07
2.56397e-06
7.96624e-07
2.16485e-06
7.2491e-07
1.79946e-06
6.61407e-07
1.45825e-06
6.21618e-07
1.1381e-06
5.87061e-07
8.41487e-07
5.34171e-07
5.82474e-07
4.33459e-07
3.82372e-07
2.55901e-07
2.78712e-07
1.8031e-08
2.55661e-07
-5.97505e-08
9.93221e-07
1.22875e-06
-4.63464e-06
2.44127e-06
-3.12376e-06
3.51157e-06
-2.48964e-06
4.34937e-06
-1.92772e-06
4.90862e-06
-1.29933e-06
5.18322e-06
-6.28586e-07
5.19004e-06
2.8041e-08
4.98221e-06
5.73898e-07
4.63249e-06
9.30918e-07
4.20121e-06
1.15345e-06
3.72264e-06
1.2917e-06
3.23027e-06
1.32878e-06
2.75749e-06
1.2694e-06
2.3221e-06
1.1603e-06
1.92547e-06
1.05804e-06
1.56069e-06
9.86394e-07
1.22218e-06
9.25571e-07
9.05532e-07
8.50815e-07
6.10679e-07
7.28311e-07
3.45573e-07
5.21005e-07
1.29556e-07
2.34048e-07
-3.45219e-09
7.32556e-08
9.89766e-07
1.16922e-06
-5.80383e-06
2.50497e-06
-4.4595e-06
3.68426e-06
-3.66891e-06
4.5946e-06
-2.83806e-06
5.18896e-06
-1.89367e-06
5.46831e-06
-9.07939e-07
5.46432e-06
3.20372e-08
5.23345e-06
8.04757e-07
4.85783e-06
1.30654e-06
4.40277e-06
1.6085e-06
3.90004e-06
1.79442e-06
3.38517e-06
1.84365e-06
2.89161e-06
1.76295e-06
2.43763e-06
1.61426e-06
2.02725e-06
1.46841e-06
1.65545e-06
1.35818e-06
1.31595e-06
1.26506e-06
9.99578e-07
1.16717e-06
6.96048e-07
1.03183e-06
3.98867e-07
8.18178e-07
1.1782e-07
5.1509e-07
-1.12216e-07
3.03288e-07
8.7755e-07
1.1986e-06
-7.00243e-06
2.60651e-06
-5.86741e-06
3.83193e-06
-4.89433e-06
4.76077e-06
-3.7669e-06
5.35453e-06
-2.48744e-06
5.6238e-06
-1.17721e-06
5.60836e-06
4.74746e-08
5.36435e-06
1.04876e-06
4.97318e-06
1.69771e-06
4.50503e-06
2.07664e-06
3.99675e-06
2.3027e-06
3.48103e-06
2.35936e-06
2.98606e-06
2.25791e-06
2.52976e-06
2.07056e-06
2.12054e-06
1.87763e-06
1.75775e-06
1.72096e-06
1.43359e-06
1.58922e-06
1.13352e-06
1.46724e-06
8.43961e-07
1.32139e-06
5.45408e-07
1.11673e-06
2.2437e-07
8.36125e-07
-8.38195e-08
6.11475e-07
7.93726e-07
1.23648e-06
-8.23888e-06
2.6747e-06
-7.30562e-06
3.89353e-06
-6.11315e-06
4.79654e-06
-4.6699e-06
5.35543e-06
-3.04632e-06
5.59726e-06
-1.41904e-06
5.57503e-06
6.97015e-08
5.33873e-06
1.28505e-06
4.96824e-06
2.06818e-06
4.50955e-06
2.5353e-06
4.01437e-06
2.79784e-06
3.52507e-06
2.84863e-06
3.05899e-06
2.72397e-06
2.61971e-06
2.50983e-06
2.22904e-06
2.26828e-06
1.90471e-06
2.04529e-06
1.62681e-06
1.8671e-06
1.37502e-06
1.71902e-06
1.13275e-06
1.56365e-06
8.70178e-07
1.3793e-06
5.57544e-07
1.14875e-06
1.97781e-07
9.71232e-07
9.9151e-07
1.20343e-06
-9.44227e-06
2.62663e-06
-8.72878e-06
3.78298e-06
-7.26947e-06
4.60953e-06
-5.49643e-06
5.11607e-06
-3.55285e-06
5.30874e-06
-1.61172e-06
5.29266e-06
8.57708e-08
5.10207e-06
1.47561e-06
4.78152e-06
2.38869e-06
4.37319e-06
2.9436e-06
3.94339e-06
3.22759e-06
3.53382e-06
3.25816e-06
3.13631e-06
3.12144e-06
2.74418e-06
2.90193e-06
2.40344e-06
2.609e-06
2.1745e-06
2.27421e-06
2.01438e-06
2.02721e-06
1.88759e-06
1.84579e-06
1.76434e-06
1.68689e-06
1.61073e-06
1.5329e-06
1.37049e-06
1.389e-06
9.79114e-07
1.3626e-06
1.97064e-06
1.26193e-06
-1.07042e-05
2.47586e-06
-9.94268e-06
3.43778e-06
-8.23135e-06
4.07949e-06
-6.13811e-06
4.45807e-06
-3.93143e-06
4.61374e-06
-1.76739e-06
4.62507e-06
7.44317e-08
4.45315e-06
1.6475e-06
4.06007e-06
2.78174e-06
3.59538e-06
3.40826e-06
3.1944e-06
3.62855e-06
2.88436e-06
3.56818e-06
2.68386e-06
3.32193e-06
2.58808e-06
2.99771e-06
2.57806e-06
2.61902e-06
2.62467e-06
2.2276e-06
2.7158e-06
1.93609e-06
2.8162e-06
1.7454e-06
2.88545e-06
1.61765e-06
2.87529e-06
1.54306e-06
2.67399e-06
1.59031e-06
2.04415e-06
1.99244e-06
4.01478e-06
3.6108e-09
-3.61033e-09
-2.34244e-07
2.37853e-07
-3.48586e-07
1.14338e-07
7.72309e-08
-4.25817e-07
7.01655e-07
-6.24425e-07
1.68372e-06
-9.8206e-07
2.29387e-06
-6.10153e-07
2.16366e-06
1.30206e-07
1.92547e-06
2.38195e-07
2.11261e-06
-1.87148e-07
2.60776e-06
-4.95152e-07
2.92555e-06
-3.17803e-07
1.61451e-06
1.31103e-06
-3.45589e-07
1.9601e-06
-1.42698e-06
1.08139e-06
-1.93679e-06
5.09805e-07
-1.88679e-06
-5.00023e-08
-9.92587e-07
-8.94213e-07
-9.92587e-07
3.84218e-07
-3.87821e-07
7.91811e-07
-1.69741e-07
9.36228e-07
-3.00826e-08
1.30039e-06
-7.8998e-07
1.9713e-06
-1.29534e-06
2.14212e-06
-1.15288e-06
2.15174e-06
-6.19771e-07
2.74811e-06
-4.6617e-07
2.86849e-06
1.17805e-07
2.76587e-06
-8.45325e-08
2.4812e-06
-2.10499e-07
1.86133e-06
3.02058e-07
1.26506e-06
1.90728e-06
3.16432e-07
2.9087e-06
-9.72606e-07
2.37039e-06
-2.17342e-06
1.71059e-06
-2.46132e-06
2.37871e-07
-1.38786e-06
-1.96769e-06
-2.38048e-06
5.97414e-07
-9.85229e-07
1.60814e-06
-1.18047e-06
1.71656e-06
-1.38512e-07
2.33221e-06
-1.40563e-06
2.80614e-06
-1.76928e-06
2.61213e-06
-9.58874e-07
2.92983e-06
-9.3747e-07
3.52892e-06
-1.06526e-06
3.67748e-06
-3.07575e-08
3.19201e-06
4.00934e-07
2.23323e-06
7.48278e-07
1.09576e-06
1.43953e-06
6.6038e-07
2.34265e-06
-6.30756e-08
3.63214e-06
-1.24069e-06
3.548e-06
-2.39923e-06
2.86911e-06
-2.92351e-06
7.62152e-07
-2.01492e-06
-2.87629e-06
-4.39538e-06
1.25492e-07
-1.11071e-06
9.91269e-07
-2.04624e-06
1.43384e-06
-5.81081e-07
1.89197e-06
-1.86376e-06
2.05265e-06
-1.92997e-06
2.54457e-06
-1.45081e-06
3.48807e-06
-1.88099e-06
4.53141e-06
-2.10863e-06
4.94948e-06
-4.48868e-07
3.71503e-06
1.63535e-06
2.20963e-06
2.25362e-06
3.79832e-07
3.26926e-06
-3.70223e-07
3.09265e-06
-7.80382e-07
4.04223e-06
-1.69046e-06
4.45801e-06
-2.67216e-06
3.85076e-06
-3.03067e-06
1.12061e-06
-3.36189e-06
-2.5451e-06
-7.7573e-06
3.97395e-07
-1.5081e-06
5.3645e-07
-2.18529e-06
8.49361e-07
-8.93991e-07
3.59403e-07
-1.37381e-06
3.93144e-07
-1.96371e-06
1.31943e-06
-2.37711e-06
2.69742e-06
-3.259e-06
4.06584e-06
-3.47706e-06
4.84529e-06
-1.22832e-06
4.01883e-06
2.4618e-06
3.22819e-06
3.04426e-06
9.9593e-07
5.50151e-06
-6.17716e-07
4.70628e-06
-1.08093e-06
4.50544e-06
-1.64105e-06
5.01813e-06
-2.2492e-06
4.45891e-06
-2.55779e-06
1.42921e-06
-2.6552e-06
-2.44766e-06
-1.04124e-05
1.33203e-06
-2.84012e-06
5.65731e-07
-1.41898e-06
2.97675e-07
-6.25926e-07
-5.64384e-07
-5.11741e-07
-7.83614e-07
-1.74449e-06
1.69466e-07
-3.3302e-06
1.74267e-06
-4.83221e-06
2.60065e-06
-4.33506e-06
3.04911e-06
-1.67681e-06
3.01801e-06
2.49286e-06
2.51289e-06
3.54935e-06
2.20144e-06
5.81291e-06
2.44694e-07
6.66297e-06
-9.76253e-07
5.72633e-06
-1.3557e-06
5.39752e-06
-1.20704e-06
4.3102e-06
-1.38254e-06
1.60466e-06
-5.24183e-07
-3.30604e-06
-1.09367e-05
2.07783e-06
-4.91794e-06
8.02609e-07
-1.43751e-07
6.54816e-09
1.70141e-07
-8.02442e-07
2.97251e-07
-1.3064e-06
-1.24054e-06
-7.08451e-07
-3.92815e-06
3.16682e-07
-5.85735e-06
8.597e-07
-4.8781e-06
1.10236e-06
-1.9195e-06
1.48901e-06
2.10617e-06
1.34259e-06
3.69573e-06
1.22254e-06
5.93293e-06
8.81332e-07
7.00415e-06
-8.30014e-08
6.69061e-06
-5.30133e-07
5.84459e-06
5.56112e-08
3.7244e-06
7.32395e-07
9.27824e-07
9.06385e-07
-3.48011e-06
-1.00303e-05
1.45605e-06
-6.37401e-06
7.67941e-07
5.4436e-07
-1.97197e-07
1.13528e-06
-9.18524e-07
1.01858e-06
-1.54765e-06
-6.11419e-07
-1.61525e-06
-3.86055e-06
-1.32402e-06
-6.14859e-06
-9.10801e-07
-5.29133e-06
-5.7068e-07
-2.25964e-06
-4.46274e-08
1.58009e-06
1.07042e-07
3.54404e-06
2.2388e-07
5.81606e-06
2.18751e-07
7.00927e-06
3.29468e-08
6.8764e-06
2.2904e-07
5.64848e-06
9.90789e-07
2.96262e-06
2.37422e-06
-4.55652e-07
4.41055e-06
-5.51643e-06
-5.61993e-06
2.45042e-06
-1.31546e-05
4.11623e-06
-1.16085e-05
5.3482e-06
-9.46328e-06
5.61544e-06
-6.40534e-06
4.98249e-06
-3.29846e-06
4.17452e-06
-9.59422e-07
3.25061e-06
9.98322e-07
2.50592e-06
2.39217e-06
2.12331e-06
3.16434e-06
2.15149e-06
3.38008e-06
2.51582e-06
3.26424e-06
3.07719e-06
3.00684e-06
3.72505e-06
2.67412e-06
4.39707e-06
2.32573e-06
5.06701e-06
1.94913e-06
5.72784e-06
1.56681e-06
6.36344e-06
1.30054e-06
6.89842e-06
1.21044e-06
7.26276e-06
1.25335e-06
7.29837e-06
1.50747e-06
6.63637e-06
2.25232e-06
4.89048e-06
3.73833e-06
6.92501e-06
1.98029e-06
-2.32225e-06
-1.08323e-05
-3.43638e-06
-1.04943e-05
-4.27924e-06
-8.62043e-06
-4.74258e-06
-5.942e-06
-4.82819e-06
-3.21286e-06
-4.75971e-06
-1.0279e-06
-4.25618e-06
4.94817e-07
-3.47344e-06
1.60946e-06
-2.5705e-06
2.26144e-06
-1.64792e-06
2.45754e-06
-7.69299e-07
2.38567e-06
8.85526e-08
2.14904e-06
9.03067e-07
1.85965e-06
1.64235e-06
1.58649e-06
2.30744e-06
1.28409e-06
2.9171e-06
9.57193e-07
3.42967e-06
7.87988e-07
3.7368e-06
9.03344e-07
3.75473e-06
1.23542e-06
3.60243e-06
1.65977e-06
2.75664e-06
3.0981e-06
1.64907e-06
4.84589e-06
7.22893e-06
1.34515e-06
-3.35622e-06
-7.47615e-06
-5.45897e-06
-8.39165e-06
-6.74716e-06
-7.3323e-06
-7.38489e-06
-5.3043e-06
-7.54548e-06
-3.0523e-06
-7.34693e-06
-1.22644e-06
-6.82855e-06
-2.35492e-08
-6.12984e-06
9.10774e-07
-5.40279e-06
1.53443e-06
-4.72659e-06
1.78136e-06
-4.14779e-06
1.80692e-06
-3.63938e-06
1.64067e-06
-3.18518e-06
1.40551e-06
-2.85973e-06
1.26109e-06
-2.60059e-06
1.025e-06
-2.36568e-06
7.22327e-07
-2.33454e-06
7.56882e-07
-2.60288e-06
1.1717e-06
-3.20672e-06
1.83927e-06
-3.96032e-06
2.41336e-06
-4.79337e-06
3.93112e-06
-5.93893e-06
5.99141e-06
8.60749e-06
-7.31748e-06
-2.36158e-06
-5.11459e-06
-4.74427e-06
-6.00899e-06
-6.43135e-06
-5.64525e-06
-7.53511e-06
-4.20057e-06
-8.25611e-06
-2.33132e-06
-8.69104e-06
-7.91535e-07
-8.76229e-06
4.77048e-08
-8.74644e-06
8.94936e-07
-8.7987e-06
1.58672e-06
-8.81051e-06
1.79321e-06
-8.94894e-06
1.94539e-06
-9.16028e-06
1.85207e-06
-9.38051e-06
1.62579e-06
-9.69545e-06
1.57608e-06
-1.01033e-05
1.43289e-06
-1.0436e-05
1.05513e-06
-1.10085e-05
1.32939e-06
-1.19455e-05
2.10873e-06
-1.2834e-05
2.72777e-06
-1.39413e-05
3.52056e-06
-1.46471e-05
4.63696e-06
-1.50409e-05
6.38519e-06
8.18598e-06
-1.46194e-05
-2.22143e-06
-2.89318e-06
-5.25096e-06
-2.97949e-06
-7.54407e-06
-3.35217e-06
-9.36305e-06
-2.38163e-06
-1.075e-05
-9.44385e-07
-1.1825e-05
2.83353e-07
-1.26594e-05
8.82074e-07
-1.3608e-05
1.8436e-06
-1.46584e-05
2.63714e-06
-1.56168e-05
2.75158e-06
-1.67038e-05
3.03243e-06
-1.78622e-05
3.01059e-06
-1.89943e-05
2.75789e-06
-1.99884e-05
2.57021e-06
-2.0775e-05
2.21953e-06
-2.14654e-05
1.7456e-06
-2.20723e-05
1.93632e-06
-2.25092e-05
2.54557e-06
-2.25663e-05
2.78493e-06
-2.24844e-05
3.43862e-06
-2.23177e-05
4.47024e-06
-2.16644e-05
5.73193e-06
6.50288e-06
-1.99813e-05
-5.28907e-06
2.39585e-06
-9.17284e-06
9.0424e-07
-1.22982e-05
-2.26895e-07
-1.46188e-05
-6.10858e-08
-1.64179e-05
8.54602e-07
-1.79082e-05
1.77359e-06
-1.96538e-05
2.62763e-06
-2.15655e-05
3.75538e-06
-2.34959e-05
4.5675e-06
-2.54726e-05
4.72831e-06
-2.73644e-05
4.92425e-06
-2.91106e-05
4.75687e-06
-3.0499e-05
4.14631e-06
-3.12591e-05
3.33034e-06
-3.14426e-05
2.40295e-06
-3.13689e-05
1.67189e-06
-3.09266e-05
1.49403e-06
-3.00593e-05
1.67827e-06
-2.92062e-05
1.93188e-06
-2.83473e-05
2.57973e-06
-2.73291e-05
3.45202e-06
-2.58671e-05
4.27e-06
4.54698e-06
-2.39112e-05
-9.84355e-06
1.22393e-05
-1.40085e-05
5.06904e-06
-1.66652e-05
2.42966e-06
-1.88954e-05
2.16893e-06
-2.11054e-05
3.06448e-06
-2.34632e-05
4.13128e-06
-2.60473e-05
5.2116e-06
-2.86389e-05
6.34692e-06
-3.11083e-05
7.03694e-06
-3.35739e-05
7.19386e-06
-3.57152e-05
7.06556e-06
-3.73867e-05
6.42835e-06
-3.84088e-05
5.16836e-06
-3.8729e-05
3.65053e-06
-3.85198e-05
2.19368e-06
-3.78645e-05
1.01661e-06
-3.66987e-05
3.28224e-07
-3.51761e-05
1.55651e-07
-3.36409e-05
3.96682e-07
-3.21151e-05
1.05393e-06
-3.0499e-05
1.83598e-06
-2.8624e-05
2.39513e-06
2.56963e-06
-2.66467e-05
-1.45738e-05
2.6812e-05
-2.15378e-05
1.20321e-05
-2.3386e-05
4.27744e-06
-2.44642e-05
3.247e-06
-2.59659e-05
4.56599e-06
-2.82484e-05
6.41369e-06
-3.07795e-05
7.74247e-06
-3.33449e-05
8.91201e-06
-3.59923e-05
9.68406e-06
-3.85175e-05
9.71885e-06
-4.08044e-05
9.35215e-06
-4.25684e-05
8.19224e-06
-4.35451e-05
6.14492e-06
-4.36501e-05
3.75538e-06
-4.31842e-05
1.72772e-06
-4.21231e-05
-4.45096e-08
-4.05073e-05
-1.28755e-06
-3.85247e-05
-1.82693e-06
-3.64593e-05
-1.66865e-06
-3.44399e-05
-9.6547e-07
-3.2436e-05
-1.67784e-07
-3.02713e-05
2.30445e-07
4.64203e-07
-2.81658e-05
-4.74169e-06
3.15509e-05
-1.0572e-05
1.78618e-05
-1.86587e-05
1.23639e-05
-2.38362e-05
8.42434e-06
-2.745e-05
8.17932e-06
-3.22271e-05
1.11899e-05
-3.55983e-05
1.11126e-05
-3.7358e-05
1.06709e-05
-3.92282e-05
1.15536e-05
-4.16131e-05
1.21034e-05
-4.37841e-05
1.15229e-05
-4.54496e-05
9.8574e-06
-4.62907e-05
6.98561e-06
-4.63945e-05
3.85885e-06
-4.59434e-05
1.27652e-06
-4.47801e-05
-1.20797e-06
-4.29701e-05
-3.09751e-06
-4.07364e-05
-4.06064e-06
-3.8298e-05
-4.10693e-06
-3.58383e-05
-3.42508e-06
-3.35527e-05
-2.45331e-06
-3.09613e-05
-2.36087e-06
-2.19269e-06
-2.83042e-05
7.38663e-06
2.41646e-05
4.42059e-06
2.08283e-05
-2.67629e-06
1.9461e-05
-1.16203e-05
1.73682e-05
-2.0278e-05
1.68366e-05
-2.67225e-05
1.76336e-05
-3.11212e-05
1.55101e-05
-3.42055e-05
1.37539e-05
-3.74128e-05
1.47597e-05
-4.04025e-05
1.50917e-05
-4.36331e-05
1.47515e-05
-4.60376e-05
1.22602e-05
-4.67133e-05
7.66015e-06
-4.69679e-05
4.11293e-06
-4.67759e-05
1.08435e-06
-4.59173e-05
-2.0666e-06
-4.43651e-05
-4.64974e-06
-4.236e-05
-6.06567e-06
-3.98148e-05
-6.65207e-06
-3.68444e-05
-6.39543e-06
-3.40534e-05
-5.24425e-06
-3.10931e-05
-5.32112e-06
-6.3235e-06
-2.6962e-05
5.79621e-06
1.83702e-05
4.73787e-06
2.18872e-05
1.47829e-06
2.27208e-05
-3.71827e-06
2.2565e-05
-9.61961e-06
2.27382e-05
-1.32476e-05
2.12621e-05
-1.65281e-05
1.87907e-05
-2.07968e-05
1.80222e-05
-2.61245e-05
2.00863e-05
-3.21289e-05
2.10946e-05
-3.69738e-05
1.95947e-05
-3.94301e-05
1.47149e-05
-4.09542e-05
9.18303e-06
-4.27407e-05
5.89855e-06
-4.40733e-05
2.41627e-06
-4.4494e-05
-1.64628e-06
-4.41737e-05
-4.97022e-06
-4.2911e-05
-7.32834e-06
-4.06834e-05
-8.87954e-06
-3.78946e-05
-9.18402e-06
-3.42824e-05
-8.85636e-06
-3.07138e-05
-8.88956e-06
-7.34118e-06
-2.96953e-05
2.1531e-06
1.62174e-05
3.36567e-06
2.06748e-05
3.23036e-06
2.28562e-05
1.70251e-06
2.40931e-05
-5.16906e-07
2.4958e-05
-3.60237e-06
2.43481e-05
-7.16643e-06
2.23557e-05
-1.12317e-05
2.20883e-05
-1.46032e-05
2.34586e-05
-1.76835e-05
2.41755e-05
-1.90207e-05
2.09329e-05
-1.95118e-05
1.52067e-05
-2.04287e-05
1.01002e-05
-2.237e-05
7.83956e-06
-2.53768e-05
5.42273e-06
-2.86148e-05
1.59134e-06
-3.13928e-05
-2.19239e-06
-3.32935e-05
-5.42769e-06
-3.43265e-05
-7.84656e-06
-3.44499e-05
-9.06072e-06
-3.40961e-05
-9.2101e-06
-3.35159e-05
-9.46943e-06
-6.87047e-06
-3.39853e-05
8.96908e-07
1.53202e-05
2.08713e-06
1.94844e-05
2.87765e-06
2.20656e-05
3.09227e-06
2.38785e-05
2.90373e-06
2.51467e-05
1.92535e-06
2.53268e-05
-3.25453e-07
2.4607e-05
-2.57181e-06
2.43353e-05
-3.60118e-06
2.44887e-05
-3.82051e-06
2.43956e-05
-4.86394e-06
2.19771e-05
-6.53175e-06
1.68756e-05
-8.96683e-06
1.25363e-05
-1.11421e-05
1.00155e-05
-1.31965e-05
7.47744e-06
-1.58627e-05
4.25759e-06
-1.88954e-05
8.40402e-07
-2.1988e-05
-2.33519e-06
-2.48226e-05
-5.01208e-06
-2.70859e-05
-6.79788e-06
-2.87384e-05
-7.55784e-06
-3.05436e-05
-7.66424e-06
-5.99117e-06
-3.1422e-05
-7.92985e-08
1.53991e-05
7.28845e-07
1.86759e-05
1.76787e-06
2.10263e-05
2.74492e-06
2.29012e-05
3.55855e-06
2.4333e-05
3.84545e-06
2.50399e-05
3.38881e-06
2.50638e-05
2.7851e-06
2.49393e-05
2.73368e-06
2.45406e-05
3.22822e-06
2.39018e-05
3.24212e-06
2.1964e-05
1.55173e-06
1.85667e-05
-1.03131e-06
1.51199e-05
-3.32166e-06
1.23063e-05
-5.47935e-06
9.63539e-06
-7.89329e-06
6.67165e-06
-1.06425e-05
3.58959e-06
-1.36332e-05
6.55572e-07
-1.66899e-05
-1.95559e-06
-1.95435e-05
-3.94469e-06
-2.20173e-05
-5.08425e-06
-2.43523e-05
-5.32923e-06
-4.33995e-06
-2.60026e-05
-7.44983e-07
1.61434e-05
-3.30348e-07
1.82608e-05
6.47517e-07
2.00481e-05
1.88701e-06
2.16615e-05
3.198e-06
2.30219e-05
4.30632e-06
2.39316e-05
5.04063e-06
2.43296e-05
5.5915e-06
2.43886e-05
6.1214e-06
2.4011e-05
6.77322e-06
2.32503e-05
6.97949e-06
2.17581e-05
6.11763e-06
1.9429e-05
4.51276e-06
1.67251e-05
2.70934e-06
1.41099e-05
8.23015e-07
1.15219e-05
-1.28698e-06
8.78172e-06
-3.67428e-06
5.97692e-06
-6.2933e-06
3.27459e-06
-9.06923e-06
8.20234e-07
-1.18412e-05
-1.17308e-06
-1.44108e-05
-2.5148e-06
-1.66877e-05
-3.05237e-06
-2.71478e-06
-1.83118e-05
-1.12149e-06
1.72643e-05
-1.02903e-06
1.81678e-05
-2.47982e-07
1.92667e-05
9.62342e-07
2.04509e-05
2.41817e-06
2.15658e-05
3.90948e-06
2.24401e-05
5.26476e-06
2.29742e-05
6.49127e-06
2.31621e-05
7.53984e-06
2.29625e-05
8.42112e-06
2.23691e-05
8.90535e-06
2.1274e-05
8.755e-06
1.95794e-05
7.99547e-06
1.74847e-05
6.87146e-06
1.5234e-05
5.5107e-06
1.28827e-05
3.8862e-06
1.04062e-05
1.99066e-06
7.87247e-06
-1.38274e-07
5.40353e-06
-2.43417e-06
3.11607e-06
-4.7816e-06
1.17404e-06
-7.02974e-06
-2.66831e-07
-8.99564e-06
-1.08619e-06
-1.32761e-06
-1.03817e-05
-1.27336e-06
1.8537e-05
-1.4216e-06
1.83156e-05
-8.71178e-07
1.87159e-05
1.71101e-07
1.94083e-05
1.55214e-06
2.01846e-05
3.10879e-06
2.08833e-05
4.69373e-06
2.13891e-05
6.21818e-06
2.16375e-05
7.59797e-06
2.15827e-05
8.77537e-06
2.11917e-05
9.63947e-06
2.04099e-05
1.00392e-05
1.91796e-05
9.96263e-06
1.75613e-05
9.50193e-06
1.56947e-05
8.73461e-06
1.36499e-05
7.67879e-06
1.1462e-05
6.35019e-06
9.20106e-06
4.78777e-06
6.96595e-06
3.04415e-06
4.85963e-06
1.21622e-06
3.0017e-06
-5.51431e-07
1.50078e-06
-2.09502e-06
4.57521e-07
-1.76405e-07
-3.24502e-06
-1.27224e-06
1.98088e-05
-1.58108e-06
1.86241e-05
-1.24312e-06
1.83777e-05
-4.11808e-07
1.85768e-05
7.93033e-07
1.89796e-05
2.24811e-06
1.9428e-05
3.82998e-06
1.98071e-05
5.43334e-06
2.00341e-05
6.97118e-06
2.00448e-05
8.35904e-06
1.98038e-05
9.51557e-06
1.92533e-05
1.03476e-05
1.83475e-05
1.08052e-05
1.71037e-05
1.09159e-05
1.55838e-05
1.0715e-05
1.38508e-05
1.02219e-05
1.1955e-05
9.45829e-06
9.96466e-06
8.4602e-06
7.96404e-06
7.27965e-06
6.04013e-06
5.99983e-06
4.28128e-06
4.72929e-06
2.77121e-06
3.59577e-06
1.59134e-06
6.96993e-07
2.72348e-06
-1.18375e-06
2.09921e-05
-1.57957e-06
1.90196e-05
-1.40661e-06
1.82045e-05
-7.73871e-07
1.79439e-05
2.29649e-07
1.79759e-05
1.51228e-06
1.81453e-05
2.97814e-06
1.83412e-05
4.5345e-06
1.84776e-05
6.09252e-06
1.84867e-05
7.58083e-06
1.83154e-05
8.92281e-06
1.79112e-05
1.00414e-05
1.72288e-05
1.0887e-05
1.62579e-05
1.14444e-05
1.50264e-05
1.17188e-05
1.35762e-05
1.17195e-05
1.19542e-05
1.14631e-05
1.0221e-05
1.09807e-05
8.44647e-06
1.0319e-05
6.70179e-06
9.5442e-06
5.05583e-06
8.74324e-06
3.57213e-06
8.01133e-06
2.32338e-06
1.28186e-06
7.4276e-06
-1.05194e-06
2.20438e-05
-1.47047e-06
1.94379e-05
-1.40461e-06
1.81385e-05
-9.30718e-07
1.74699e-05
-1.12421e-07
1.71575e-05
9.84068e-07
1.70487e-05
2.28794e-06
1.70372e-05
3.72559e-06
1.70399e-05
5.22431e-06
1.69879e-05
6.71655e-06
1.68231e-05
8.13665e-06
1.6491e-05
9.41912e-06
1.59462e-05
1.05105e-05
1.51665e-05
1.13792e-05
1.41575e-05
1.20114e-05
1.29438e-05
1.24038e-05
1.15617e-05
1.25651e-05
1.00597e-05
1.25175e-05
8.49409e-06
1.22974e-05
6.92179e-06
1.1958e-05
5.39507e-06
1.15636e-05
3.96633e-06
1.1183e-05
2.70431e-06
1.59174e-06
1.08742e-05
-8.9426e-07
2.29379e-05
-1.28382e-06
1.98273e-05
-1.2703e-06
1.81248e-05
-9.07231e-07
1.71067e-05
-2.39025e-07
1.64892e-05
6.88053e-07
1.61216e-05
1.8238e-06
1.59015e-05
3.11375e-06
1.57499e-05
4.50108e-06
1.56005e-05
5.92979e-06
1.53943e-05
7.3432e-06
1.50776e-05
8.68435e-06
1.4605e-05
9.90239e-06
1.39484e-05
1.09593e-05
1.31005e-05
1.18308e-05
1.20722e-05
1.25044e-05
1.08881e-05
1.29798e-05
9.5843e-06
1.327e-05
8.20384e-06
1.34014e-05
6.79034e-06
1.34105e-05
5.3857e-06
1.33455e-05
4.03131e-06
1.32556e-05
2.79435e-06
1.67548e-06
1.31729e-05
-7.19577e-07
2.36574e-05
-1.03859e-06
2.01463e-05
-1.02956e-06
1.81157e-05
-7.30332e-07
1.68074e-05
-1.71414e-07
1.59303e-05
6.15994e-07
1.53341e-05
1.59768e-06
1.49197e-05
2.73521e-06
1.46124e-05
3.98677e-06
1.43489e-05
5.30846e-06
1.40726e-05
6.65384e-06
1.37321e-05
7.97484e-06
1.32839e-05
9.22578e-06
1.26973e-05
1.03683e-05
1.19579e-05
1.13738e-05
1.10667e-05
1.22239e-05
1.0038e-05
1.29116e-05
8.89656e-06
1.34415e-05
7.67392e-06
1.38287e-05
6.4031e-06
1.40991e-05
5.11505e-06
1.42839e-05
3.84641e-06
1.44151e-05
2.66334e-06
1.57023e-06
1.45213e-05
-5.28914e-07
2.41862e-05
-7.46243e-07
2.03635e-05
-7.02698e-07
1.80721e-05
-4.26098e-07
1.65308e-05
6.26642e-08
1.54415e-05
7.43396e-07
1.46534e-05
1.59377e-06
1.40693e-05
2.58812e-06
1.3618e-05
3.6976e-06
1.32394e-05
4.88971e-06
1.28804e-05
6.12834e-06
1.24934e-05
7.37461e-06
1.20376e-05
8.58962e-06
1.14823e-05
9.73811e-06
1.08093e-05
1.07913e-05
1.00135e-05
1.17282e-05
9.10094e-06
1.25373e-05
8.08744e-06
1.32165e-05
6.9947e-06
1.37732e-05
5.84632e-06
1.42212e-05
4.66681e-06
1.45809e-05
3.48665e-06
1.48738e-05
2.37053e-06
1.33325e-06
1.51117e-05
-3.26531e-07
2.45128e-05
-4.16813e-07
2.04539e-05
-3.07246e-07
1.79626e-05
-1.90517e-08
1.62426e-05
4.33763e-07
1.49887e-05
1.03887e-06
1.40483e-05
1.78273e-06
1.33255e-05
2.65004e-06
1.27507e-05
3.62241e-06
1.2267e-05
4.67748e-06
1.18253e-05
5.7888e-06
1.13821e-05
6.92641e-06
1.08999e-05
8.05886e-06
1.03498e-05
9.15592e-06
9.7122e-06
1.01911e-05
8.97823e-06
1.11435e-05
8.14849e-06
1.19992e-05
7.23171e-06
1.27517e-05
6.24218e-06
1.34013e-05
5.19664e-06
1.39553e-05
4.1126e-06
1.44241e-05
3.01764e-06
1.48196e-05
1.97524e-06
9.97589e-07
1.51562e-05
-1.12883e-07
2.46257e-05
-5.73367e-08
2.03984e-05
1.41561e-07
1.77637e-05
4.67233e-07
1.5917e-05
9.11671e-07
1.45442e-05
1.46738e-06
1.34926e-05
2.12824e-06
1.26646e-05
2.88702e-06
1.19919e-05
3.73362e-06
1.14204e-05
4.65426e-06
1.09047e-05
5.63106e-06
1.04053e-05
6.64235e-06
9.88861e-06
7.66408e-06
9.32798e-06
8.67183e-06
8.70439e-06
9.64292e-06
8.00709e-06
1.05581e-05
7.23323e-06
1.1403e-05
6.38678e-06
1.21686e-05
5.47659e-06
1.28516e-05
4.51355e-06
1.3452e-05
3.51197e-06
1.39749e-05
2.49466e-06
1.44273e-05
1.52288e-06
6.14687e-07
1.48111e-05
9.9969e-08
2.45259e-05
3.25431e-07
2.0173e-05
6.29208e-07
1.746e-05
1.01091e-06
1.55353e-05
1.46593e-06
1.40893e-05
1.99293e-06
1.29656e-05
2.59116e-06
1.20664e-05
3.2594e-06
1.13237e-05
3.99426e-06
1.06855e-05
4.78907e-06
1.01098e-05
5.63326e-06
9.56104e-06
6.51252e-06
9.00932e-06
7.4097e-06
8.43075e-06
8.30629e-06
7.80775e-06
9.18404e-06
7.12929e-06
1.00265e-05
6.39077e-06
1.082e-05
5.59318e-06
1.15549e-05
4.74167e-06
1.22245e-05
3.84389e-06
1.28265e-05
2.90979e-06
1.33601e-05
1.96087e-06
1.38264e-05
1.05673e-06
2.11424e-07
1.42305e-05
3.5361e-07
2.41724e-05
7.23901e-07
1.98028e-05
1.13783e-06
1.70462e-05
1.58569e-06
1.50875e-05
2.06535e-06
1.36096e-05
2.57911e-06
1.24519e-05
3.13091e-06
1.15146e-05
3.72456e-06
1.073e-05
4.36211e-06
1.0048e-05
5.04267e-06
9.42927e-06
5.76184e-06
8.84185e-06
6.51161e-06
8.25952e-06
7.28099e-06
7.66133e-06
8.05699e-06
7.0317e-06
8.82585e-06
6.36037e-06
9.57431e-06
5.64227e-06
1.02905e-05
4.87694e-06
1.09648e-05
4.06736e-06
1.15901e-05
3.21857e-06
1.21603e-05
2.33935e-06
1.26723e-05
1.44876e-06
1.31251e-05
6.039e-07
-1.76289e-07
1.35136e-05
5.73756e-07
2.35989e-05
1.11677e-06
1.926e-05
1.64749e-06
1.65156e-05
2.16696e-06
1.45681e-05
2.67873e-06
1.30979e-05
3.18926e-06
1.19414e-05
3.7066e-06
1.09973e-05
4.23883e-06
1.01978e-05
4.79246e-06
9.49438e-06
5.37141e-06
8.85033e-06
5.97632e-06
8.23693e-06
6.60448e-06
7.63132e-06
7.25015e-06
7.01563e-06
7.90522e-06
6.37659e-06
8.56015e-06
5.70539e-06
9.20493e-06
4.99745e-06
9.82991e-06
4.25193e-06
1.04263e-05
3.47091e-06
1.09863e-05
2.65859e-06
1.15034e-05
1.82196e-06
1.19721e-05
9.79911e-07
1.23881e-05
1.88068e-07
-5.39973e-07
1.27525e-05
7.90344e-07
2.28087e-05
1.49374e-06
1.85567e-05
2.13712e-06
1.58723e-05
2.72799e-06
1.39773e-05
3.27453e-06
1.25515e-05
3.78732e-06
1.14287e-05
4.27834e-06
1.05063e-05
4.75943e-06
9.71675e-06
5.24094e-06
9.01288e-06
5.73073e-06
8.36054e-06
6.2336e-06
7.73405e-06
6.75112e-06
7.11377e-06
7.28189e-06
6.48483e-06
7.82194e-06
5.8365e-06
8.36545e-06
5.16183e-06
8.90549e-06
4.45737e-06
9.4346e-06
3.72278e-06
9.94531e-06
2.96017e-06
1.04306e-05
2.17319e-06
1.08826e-05
1.36974e-06
1.1295e-05
5.67537e-07
1.1663e-05
-1.80066e-07
-8.58145e-07
1.19819e-05
9.85219e-07
2.18237e-05
1.83768e-06
1.77044e-05
2.58634e-06
1.51238e-05
3.24404e-06
1.33197e-05
3.82379e-06
1.19718e-05
4.34046e-06
1.09121e-05
4.80987e-06
1.0037e-05
5.24738e-06
9.27926e-06
5.66666e-06
8.59362e-06
6.07883e-06
7.94838e-06
6.49204e-06
7.32084e-06
6.91129e-06
6.6945e-06
7.33859e-06
6.05749e-06
7.77339e-06
5.40167e-06
8.21298e-06
4.7222e-06
8.65314e-06
4.01717e-06
9.08863e-06
3.28726e-06
9.51353e-06
2.53524e-06
9.92087e-06
1.76578e-06
1.03038e-05
9.86619e-07
1.06543e-05
2.16886e-07
1.09657e-05
-4.91395e-07
-1.13083e-06
1.12389e-05
1.15667e-06
2.06671e-05
2.14055e-06
1.67206e-05
2.98146e-06
1.42829e-05
3.69682e-06
1.26044e-05
4.3042e-06
1.13644e-05
4.82274e-06
1.03936e-05
5.27204e-06
9.58769e-06
5.67076e-06
8.88057e-06
6.03549e-06
8.22891e-06
6.38005e-06
7.60381e-06
6.71522e-06
6.98567e-06
7.0486e-06
6.3611e-06
7.38488e-06
5.72118e-06
7.72608e-06
5.06043e-06
8.07206e-06
4.37618e-06
8.42088e-06
3.6683e-06
8.76924e-06
2.93887e-06
9.11262e-06
2.19184e-06
9.44553e-06
1.43279e-06
9.76048e-06
6.71457e-07
1.00494e-05
-7.21209e-08
1.03062e-05
-7.48323e-07
-1.34973e-06
1.05257e-05
1.30189e-06
1.93653e-05
2.39901e-06
1.56236e-05
3.31676e-06
1.33652e-05
4.07731e-06
1.18439e-05
4.70314e-06
1.07387e-05
5.21799e-06
9.87875e-06
5.64537e-06
9.16034e-06
6.00715e-06
8.51881e-06
6.32251e-06
7.91356e-06
6.60746e-06
7.31886e-06
6.87471e-06
6.7184e-06
7.13376e-06
6.10203e-06
7.39115e-06
5.46376e-06
7.65082e-06
4.80071e-06
7.91455e-06
4.11242e-06
8.18225e-06
3.40056e-06
8.45234e-06
2.66875e-06
8.72174e-06
1.92239e-06
8.98556e-06
1.1689e-06
9.2375e-06
4.19323e-07
9.46943e-06
-3.04206e-07
9.67427e-06
-9.53036e-07
-1.52621e-06
9.8512e-06
1.43034e-06
1.7935e-05
2.621e-06
1.44329e-05
3.59785e-06
1.23884e-05
4.38791e-06
1.10539e-05
5.01926e-06
1.01073e-05
5.52103e-06
9.37701e-06
5.92113e-06
8.76025e-06
6.24467e-06
8.19529e-06
6.51312e-06
7.64512e-06
6.74415e-06
7.08783e-06
6.95173e-06
6.51081e-06
7.14646e-06
5.90727e-06
7.33601e-06
5.27418e-06
7.52555e-06
4.61113e-06
7.71816e-06
3.91977e-06
7.91519e-06
3.20349e-06
8.11647e-06
2.46743e-06
8.32029e-06
1.71855e-06
8.52332e-06
9.65793e-07
8.71931e-06
2.23154e-07
8.90076e-06
-4.85682e-07
9.06134e-06
-1.1137e-06
-1.65762e-06
9.19324e-06
1.54832e-06
1.63866e-05
2.82062e-06
1.31606e-05
3.84039e-06
1.13686e-05
4.64185e-06
1.02524e-05
5.26176e-06
9.48745e-06
5.73685e-06
8.90194e-06
6.10052e-06
8.39659e-06
6.38132e-06
7.91449e-06
6.60268e-06
7.42376e-06
6.78323e-06
6.90727e-06
6.93742e-06
6.35661e-06
7.07615e-06
5.76852e-06
7.20742e-06
5.14287e-06
7.3369e-06
4.48161e-06
7.46843e-06
3.78821e-06
7.60437e-06
3.06752e-06
7.74579e-06
2.32597e-06
7.89245e-06
1.57187e-06
8.04187e-06
8.1632e-07
8.18938e-06
7.55065e-08
8.3276e-06
-6.24023e-07
8.44874e-06
-1.2347e-06
-1.75334e-06
8.54483e-06
1.67894e-06
1.47076e-05
3.02716e-06
1.18123e-05
4.07269e-06
1.03231e-05
4.86266e-06
9.46245e-06
5.44845e-06
8.90165e-06
5.87822e-06
8.47217e-06
6.1924e-06
8.08241e-06
6.42309e-06
7.6838e-06
6.59499e-06
7.25186e-06
6.72675e-06
6.7755e-06
6.83227e-06
6.25108e-06
6.9218e-06
5.67896e-06
7.00284e-06
5.06181e-06
7.08084e-06
4.40359e-06
7.15977e-06
3.70924e-06
7.2426e-06
2.98467e-06
7.33145e-06
2.2371e-06
7.42745e-06
1.47585e-06
7.53025e-06
7.1348e-07
7.63614e-06
-3.05131e-08
7.73787e-06
-7.25766e-07
7.82673e-06
-1.32363e-06
-1.81312e-06
7.8869e-06
1.84724e-06
1.28602e-05
3.28059e-06
1.03789e-05
4.33313e-06
9.27046e-06
5.08071e-06
8.71483e-06
5.60179e-06
8.38055e-06
5.96193e-06
8.11202e-06
6.21013e-06
7.83421e-06
6.38143e-06
7.5125e-06
6.50041e-06
7.13287e-06
6.58426e-06
6.69164e-06
6.64503e-06
6.19029e-06
6.69124e-06
5.63274e-06
6.72893e-06
5.02409e-06
6.76258e-06
4.36991e-06
6.7957e-06
3.6761e-06
6.83138e-06
2.94897e-06
6.87264e-06
2.19583e-06
6.92234e-06
1.42613e-06
6.98218e-06
6.53616e-07
7.05083e-06
-9.92679e-08
7.12168e-06
-7.96676e-07
7.18251e-06
-1.3843e-06
-1.84609e-06
7.2158e-06
2.10362e-06
1.07564e-05
3.64161e-06
8.84075e-06
4.67023e-06
8.24176e-06
5.32871e-06
8.05629e-06
5.74344e-06
7.96578e-06
6.00408e-06
7.85135e-06
6.16802e-06
7.67025e-06
6.27073e-06
7.40978e-06
6.33405e-06
7.06955e-06
6.37153e-06
6.65415e-06
6.39177e-06
6.17003e-06
6.40033e-06
5.62416e-06
6.40096e-06
5.02344e-06
6.39636e-06
4.37449e-06
6.38891e-06
3.68353e-06
6.38129e-06
2.95657e-06
6.37712e-06
2.2e-06
6.38112e-06
1.42212e-06
6.3987e-06
6.36018e-07
6.43232e-06
-1.32955e-07
6.47503e-06
-8.39345e-07
6.51077e-06
-1.42008e-06
-1.84965e-06
6.51469e-06
2.50678e-06
8.24934e-06
4.18322e-06
7.16416e-06
5.13188e-06
7.29299e-06
5.63035e-06
7.55774e-06
5.88541e-06
7.71068e-06
6.01446e-06
7.72227e-06
6.07812e-06
7.60658e-06
6.10661e-06
7.38127e-06
6.11474e-06
7.0614e-06
6.10971e-06
6.65917e-06
6.09501e-06
6.18473e-06
6.07223e-06
5.64692e-06
6.04204e-06
5.05361e-06
6.00473e-06
4.41179e-06
5.9608e-06
3.72744e-06
5.91179e-06
3.00557e-06
5.8613e-06
2.25048e-06
5.8162e-06
1.46722e-06
5.78642e-06
6.65781e-07
5.78087e-06
-1.27443e-07
5.79487e-06
-8.5338e-07
5.80413e-06
-1.42918e-06
-1.82263e-06
5.77733e-06
3.12435e-06
5.12493e-06
4.9796e-06
5.30877e-06
5.74117e-06
6.5313e-06
5.97911e-06
7.3197e-06
6.01786e-06