/*--------------------------------*- C++ -*----------------------------------*\
  =========                 |
  \\      /  F ield         | OpenFOAM: The Open Source CFD Toolbox
   \\    /   O peration     | Website:  https://openfoam.org
    \\  /    A nd           | Version:  13
     \\/     M anipulation  |
\*---------------------------------------------------------------------------*/
FoamFile
{
    format      ascii;
    class       volScalarField;
    location    "2.15";
    object      rho;
}
// * * * * * * * * * * * * * * * * * * * * * * * * * * * * * * * * * * * * * //

dimensions      [1 -3 0 0 0 0 0];

internalField   nonuniform List<scalar> 
2268
(
13529
13529
13529
13529
13529
13529
13529
13529
13529
13529
13529
13529
13529
13529
13529
13529
13529
13529
13529
13526.8
13523.4
13521.6
13521.6
13529
13529
13529
13529
13529
13529
13529
13529
13529
13529
13529
13529
13529
13529
13529
13529
13529
13529
13529
13529
13529
13528.4
13525.9
13529
13529
13529
13529
13529
13529
13529
13529
13529
13529
13529
13529
13529
13529
13529
13529
13529
13529
13529
13529
13529
13529
13529
13529
13529
13529
13529
13529
13529
13529
13529
13529
13529
13529
13529
13529
13529
13529
13529
13529
13529
13529
13529
13529
13529
13529
13529
13529
13529
13529
13529
13529
13529
13529
13529
13529
13529
13529
13529
13529
13529
13529
13529
13527.3
13496.1
13473
13462.8
13475.3
13510.6
13529
13529
13529
13529
13529
13529
13529
13529
13529
13529
13197.4
12382.8
11381.2
10336.6
9269.64
8263.39
7508.54
6994.15
6718.46
6620.93
6694.19
6917.44
6884.49
13529
13529
13529
13529
13509.7
13504
12964.4
11653.1
9640.41
7096.87
4796.77
3209.3
2132.36
1439.09
1113.22
1052.78
1027.01
1015.06
1009.41
1007.06
1006.26
1005.78
1003.36
9150.92
10001.8
10375
10023.3
8748.8
6477.99
4268.1
2508.57
1414.98
1021.92
1000
1000
1000
1000
1000
999.999
999.997
999.982
999.971
999.956
999.93
999.883
999.759
11938.8
11938.9
11945.3
11953.5
11952.8
11943.7
11804.4
9474.4
8746.83
8764.32
8802.3
8642.35
8255.42
8226.97
9292.93
10324.7
10338.8
10290.2
10289.9
7801.25
7949.85
8095.88
7838.4
7868.31
9246.43
9535.48
10757.3
11378.6
11379.2
11323.2
11178
10183.8
10216.9
10280.1
10321.7
10330.4
10290.5
10289.8
2782.82
2481.62
2268.69
2212.22
2977.08
2543.39
2993.14
3952.42
5157.35
7119.6
8695.34
9263.27
9447.51
9578.71
10047.9
10166.5
10263.5
10288.1
10287.9
3106.36
3202.41
2517.6
2590.22
1815.44
1313.74
1063.95
992.741
1019.87
1024.26
1138.82
2690.45
3977.21
3698.21
4255.48
5422.02
6549.31
8356.78
7398
2898.02
2973.32
2855.52
2825.06
2013.6
1399.97
1357.64
1479.2
1373.14
1026.24
955.204
475.575
1821.01
3064.79
2977.4
2899.15
3614.9
3531.44
6841.61
2053.25
2043.77
2124.61
1731.9
2030.27
1918.44
1700.1
2015.68
1685.44
1019.31
1004.65
738.844
292.449
905.867
1619.28
1978.39
2426.78
3252.05
2501.26
1179.44
1048.06
1151.2
1230.79
1488.35
1836.53
1997.73
1194.95
1025.11
1000.68
1000.73
978.885
766.281
485.808
465.181
739.013
817.904
1081.23
2156.97
1036.79
936.697
1038.54
964.359
1001.12
1388.54
1043.98
999.606
999.654
1000.96
1001.09
1001.21
995.286
943.793
914.295
954.329
981.745
972.774
839.204
1455.66
1632.67
1588.16
1325.98
1068.84
1000
1000
1000
1000
1000
1000
1000
1000
1000
1000
1000
1000
999.999
999.999
999.999
999.999
999.996
998.809
1000
1000
1000
999.994
1000
1000
1000
1000
1000
1000
1000
1000
1000
1000
1000
1000
1000
1000
996.684
979.027
963.822
950.103
921.027
1000
1000
1000
999.841
999.957
999.999
1000
1000
1000
1000
1000
1000
1000
999.997
990.853
976.154
962.977
925.086
851.015
803.454
662.682
591.282
531.091
997.109
996.084
994.441
996.573
997.688
999.687
999.716
1000
999.981
992.96
982.401
967.186
939.173
878.924
815.266
751.002
662.841
572.095
486.909
454.096
493.175
486.031
414.183
835.988
845.679
855.94
848.516
831.745
814.277
837.985
828.394
785.389
761.406
703.469
644.94
587.633
513.924
445.537
447.584
436.367
416.535
474.903
499.668
499.616
485.726
469.618
479.096
488.109
501.809
505.296
508.514
512.472
514.747
490.434
472.434
486.241
468.188
452.018
448.269
451.987
480.544
491.155
486.405
483.758
498.041
499.973
499.406
498.885
500.047
329.669
359.793
403.628
447.09
475.886
493.387
498.645
499.184
499.625
499.908
499.963
499.992
499.983
499.99
500
500
500
500
500
499.969
499.957
500.003
500.004
16.2282
16.4467
38.8678
82.4813
144.211
220.094
302.882
373.883
433.494
484.632
499.998
499.999
499.999
499.999
500
500
500
500
500
499.999
500
500
500
1.0036
1.00016
1.00052
1.00455
1.01284
1.29677
10.5702
36.8113
76.8077
131.648
214.6
311.261
407.784
485.532
499.999
499.999
499.684
499.679
499.699
499.497
499.007
498.51
498.158
1.00049
1.00133
1.00153
1.02627
1.1072
1.07579
1.00365
1.00161
1.00164
1.00189
1.00343
6.22531
26.3292
61.9064
114.887
179.83
240.441
268.105
270.058
238.474
178.014
159.926
141.242
1.00089
1.00378
1.0072
1.02756
1.04299
1.05018
1.00156
1.00016
1.00025
1.00028
1.00063
1.0009
1.0026
1.00273
1.00217
1.00149
1.00053
1.00008
1.00008
1.00004
1
1
1
1.00052
1.00124
1.00153
1.00651
1.00031
1.00036
1.00167
1.00025
1.00014
1.01079
1.00001
1.00003
1.00005
1.00005
1.00028
1.00047
1.00023
1.00002
1.00002
1.00003
1.00003
1.00003
1.00004
1.00027
1.00021
1.00019
1.00059
1.00005
1.00004
1.00019
1.01575
1.07426
1.08402
1.06133
1.01163
1.00001
1
1
1
1.00002
1.00005
1.00004
1.00003
1.00003
1.00003
1.00003
1.0002
1.00011
1.00009
1.00006
1.00007
1.00006
1.00005
1.01646
1.08299
1.08426
1.08526
1.05996
1.00284
1.00055
1.00004
1.00003
1.00009
1.00018
1.00012
1.0001
1.00009
1.00008
1.00006
1.00012
1.00011
1.00007
1.00007
1.00009
1.00011
1.00019
1.00432
1.04732
1.08352
1.08073
1.03074
1.00317
1.00235
1.00168
1.00171
1.00152
1.00055
1.00022
1.00016
1.00014
1.00012
1.00009
1.00007
1.00007
1.00005
1.00005
1.00006
1.00008
1.00013
1.00042
1.00046
1.00887
1.00759
1.00278
1.00317
1.00311
1.00297
1.0029
1.00205
1.00065
1.00029
1.00018
1.00016
1.00013
1.0001
1.00005
1.00005
1.00004
1.00003
1.00003
1.00004
1.00006
1.00004
1.00003
1.00023
1.00021
1.00059
1.00199
1.00258
1.00199
1.00135
1.00084
1.00039
1.00023
1.00015
1.00013
1.0001
1.00008
1.00004
1.00005
1.00004
1.00003
1.00002
1.00002
1.00003
1.00002
1.00003
1.00007
1.00019
1.00057
1.00091
1.00076
1.00038
1.0002
1.00014
1.00014
1.00011
1.00009
1.00008
1.00007
1.00005
1.00004
1.00005
1.00004
1.00003
1.00002
1.00001
1.00001
1.00002
1.00002
1.00006
1.00017
1.00039
1.0004
1.00022
1.00006
1.00004
1.00005
1.00005
1.00005
1.00005
1.00004
1.00004
1.00003
1.00004
1.00004
1.00004
1.00003
1.00002
1.00001
1.00001
1.00001
1.00002
1.00003
1.00006
1.00013
1.00012
1.00005
1.00003
1.00002
1.00002
1.00002
1.00002
1.00002
1.00002
1.00002
1.00001
1.00004
1.00004
1.00004
1.00003
1.00002
1.00001
1.00001
1.00001
1.00001
1.00001
1.00002
1.00003
1.00002
1.00002
1.00001
1.00001
1.00001
1.00001
1.00001
1.00001
1.00001
1.00001
1.00001
1.00003
1.00003
1.00003
1.00002
1.00002
1.00001
1.00001
1.00001
1
1.00001
1.00001
1.00001
1.00001
1.00001
1.00001
1.00001
1.00001
1.00001
1.00001
1.00001
1
1
1
1.00003
1.00003
1.00002
1.00002
1.00001
1.00001
1.00001
1
1
1
1
1
1
1
1
1
1
1
1
1
1
1
1
1.00002
1.00002
1.00002
1.00002
1.00001
1.00001
1
1
1
1
1
1
1
1
1
1
1
1
1
1
1
1
1
1.00002
1.00002
1.00001
1.00001
1.00001
1.00001
1
1
1
1
1
1
1
1
1
1
1
1
1
1
1
1
1
1.00002
1.00001
1.00001
1.00001
1.00001
1
1
1
1
1
1
1
1
1
1
1
1
1
1
1
1
1
1
1.00001
1.00001
1.00001
1
1
1
1
1
1
1
1
1
1
1
1
1
1
1
1
1
1
1
1
1.00001
1.00001
1
1
1
1
1
1
1
1
1
1
1
1
1
1
1
1
1
1
1
1
1
1.00001
1
1
1
1
1
1
1
1
1
1
1
1
1
1
1
1
1
1
1
1
1
1
1.00001
1
1
1
1
1
1
1
1
1
1
1
1
1
1
1
1
1
1
1
1
1
1
1
1
1
1
1
1
1
1
1
1
1
1
1
1
1
1
1
1
1
1
1
1
1
1
1
1
1
1
1
1
1
1
1
1
1
1
1
1
1
1
1
1
1
1
1
1
1
1
1
1
1
1
1
1
1
1
1
1
1
1
1
1
1
1
1
1
1
1
1
1
1
1
1
1
1
1
1
1
1
1
1
1
1
1
1
1
1
1
1
1
1
1
1
1
1
1
1
1
1
1
1
1
1
1
1
1
1
1
1
1
1
1
1
1
1
1
1
1
1
1
1
1
1
1
1
1
1
1
1
1
1
1
1
1
1
1
1
1
1
1
1
1
1
1
1
1
1
1
1
1
1
1
1
1
1
1
1
1
1
1
1
1
1
1
1
1
1
1
1
1
1
1
1
1
1
1
1
1
1
1
1
1
1
1
1
1
1
1
1
1
1
1
1
1
1
1
1
1
1
1
1
1
1
1
1
1
1
1
1
1
1
1
1
1
1
1
1
1
1
1
1
1
1
1
1
1
1
1
1
1
1
1
1
1
1
1
1
1
1
1
1
1
1
1
1
1
1
1
1
1
1
1
1
1
1
1
1
1
1
1
1
1
1
1
1
1
1
1
1
1
1
1
1
1
1
1
1366.93
1623.86
1563.8
1517.46
723.774
615.789
633.357
787.717
438.756
415.452
463.505
551.904
416.623
485.825
501.396
487.522
494.922
501.923
501.838
500.927
500.126
500.105
500.001
500.003
500.001
500
500.001
500.004
500
500.001
500.002
500.002
499.352
499.998
493.065
465.387
39.7524
22.6627
24.3413
19.1027
1
1.00027
1.00089
1.00014
1.00004
1.00004
1.00005
1.00005
1.00004
1.00004
1.00004
1.00004
1.00005
1.00004
1.00004
1.00004
1.00007
1.00004
1.00004
1.00004
1.00009
1.00007
1.00005
1.00004
1.00007
1.00006
1.00005
1.00004
1.00005
1.00004
1.00003
1.00003
1.00003
1.00002
1.00002
1.00002
1.00001
1.00001
1.00001
1.00001
1.00001
1.00001
1.00001
1.00001
1
1
1
1
1
1
1
1
1
1
1
1
1
1
1
1
1
1
1
1
1
1
1
1
1
1
1
1
1
1
1
1
1
1
1
1
1
1
1
1
1
1
1
1
1
1
1
1
1
1
1
1
1
1
1
1
1
1
1
1
1
1
1
1
1
1
1
1
1
1
1
1
1
1
1
1
1
1
1
1
1
1
1
1
1055.56
901.812
859.899
964.084
935.69
757.159
923.657
992.843
995.182
998.841
1000.4
1000.83
1000.88
1000.45
1000.12
1000.09
1000.11
999.171
783.781
829.004
808.922
702.211
523.439
478.675
662.166
762.097
791.933
814.106
839.227
869.816
900.878
927.457
952.732
988.417
1000.71
1000.15
998.625
953.311
550.131
508.95
503.755
496.663
469.412
450.283
444.845
493.269
500.071
500.069
506.312
521.29
538.494
562.665
618.475
731.083
863.444
951.012
967.506
492.067
499.444
499.946
494.706
474.492
483.648
500.103
500.016
500.231
500.063
500.042
500.115
500.193
500.611
501.246
501.362
522.578
638.705
762.842
500.292
499.794
499.711
499.891
500.046
500.016
500.002
500.005
500.006
499.997
500
500
499.973
499.918
500.164
500.649
501.326
534.39
574.249
500.004
500.003
499.997
500.001
500.001
500
500
500
500
500.001
500.001
500.001
500.002
500.005
499.976
499.547
500.508
507.311
506.963
500.005
500.001
500.002
500.002
500.002
500.001
500
500
500
500
500
500
500.232
504.941
510.845
511.331
505.948
494.053
483.878
500.001
500.001
500.002
497.404
483.755
463.207
439.942
416.951
397.121
382.185
370.619
357.442
328.019
302.745
273.248
253.299
226.731
175.805
133.98
411.427
336.85
264.163
196.517
138.802
98.1342
69.8582
48.725
34.3375
25.3075
17.0319
7.03524
13.9777
31.5091
33.5779
21.788
10.3313
5.89437
1.53975
8.82652
2.34046
1.2391
1.02689
1.00547
1.02535
1.10019
1.26932
1.57398
2.18754
3.36986
3.23981
2.04182
1.04754
1.01758
1.00011
1.00019
1.00017
1.0002
1.00008
1.00014
1.00017
1.00073
1.00218
1.00857
1.02234
1.06104
1.12812
1.13243
1.0271
1.29002
1.46886
1.31583
1.04629
1.0006
1.00105
1.00091
1.00034
1.00006
1.00016
1.00031
1.00035
1.00055
1.00318
1.31508
1.49452
1.33919
1.03282
1.01649
1.39603
1.61031
1.55713
1.05696
1.00065
1.00108
1.00057
1.0003
1.00005
1.00011
1.00018
1.00024
1.00032
1.00124
1.28732
1.48815
1.49374
1.30849
1.00693
1.00509
1.06048
1.0016
1.00054
1.00056
1.00032
1.00015
1.00028
1.00004
1.00006
1.00009
1.00012
1.00017
1.00023
1.00023
1.07452
1.18748
1.07245
1.00847
1.00076
1.0012
1.00061
1.00024
1.00021
1.00007
1.00011
1.00031
1.00004
1.00004
1.00005
1.00008
1.00012
1.00011
1.00012
1.00009
1.00008
1.00012
1.00013
1.00055
1.00042
1.00029
1.00017
1.00005
1.00004
1.00012
1.00027
1.00003
1.00003
1.00003
1.00004
1.00007
1.00007
1.00018
1.00026
1.00024
1.00012
1.0001
1.0002
1.00035
1.00037
1.00022
1.00005
1.00003
1.00008
1.00016
1.00003
1.00002
1.00002
1.00003
1.00002
1.00002
1.00012
1.0003
1.00032
1.0002
1.00008
1.00008
1.0002
1.00023
1.00012
1.00004
1.00003
1.00003
1.00002
1.00002
1.00001
1.00001
1.00001
1.00001
1.00001
1.00001
1.0001
1.00015
1.0001
1.00006
1.00004
1.00005
1.00006
1.00003
1.00001
1.00002
1.00001
1.00001
1.00001
1.00001
1.00001
1.00001
1.00001
1.00001
1.00001
1.00001
1.00001
1.00002
1.00002
1.00002
1.00001
1.00001
1.00001
1.00001
1.00001
1.00001
1.00001
1.00001
1.00001
1
1
1.00001
1.00001
1.00001
1.00001
1.00001
1.00001
1.00001
1.00001
1.00001
1.00001
1.00001
1.00001
1.00001
1.00001
1.00001
1
1
1
1
1
1
1
1
1.00001
1.00001
1.00001
1.00001
1
1
1
1.00001
1.00001
1.00001
1.00001
1
1
1
1
1
1
1
1
1
1
1
1
1
1
1
1
1.00001
1.00001
1.00001
1
1
1
1
1
1
1
1
1
1
1
1
1
1
1
1
1.00001
1.00001
1.00001
1
1
1
1
1
1
1
1
1
1
1
1
1
1
1
1
1.00001
1.00002
1.00002
1
1
1
1
1
1
1
1
1
1
1
1
1
1
1
1
1.00001
1.00003
1.00003
1
1
1
1
1
1
1
1
1
1
1
1
1
1
1
1
1.00001
1.00004
1.00003
1
1
1
1
1
1
1
1
1
1
1
1
1
1
1
1
1.00002
1.00004
1.00004
1
1
1
1
1
1
1
1
1
1
1
1
1
1
1
1.00001
1.00002
1.00005
1.00003
1
1
1
1
1
1
1
1
1
1
1
1
1
1
1
1.00001
1.00002
1.00005
1.00003
1
1
1
1
1
1
1
1
1
1
1
1
1
1
1
1.00001
1.00003
1.00005
1.00003
1
1
1
1
1
1
1
1
1
1
1
1
1
1
1
1.00001
1.00003
1.00005
1.00002
1
1
1
1
1
1
1
1
1
1
1
1
1
1
1
1.00001
1.00003
1.00005
1.00001
1
1
1
1
1
1
1
1
1
1
1
1
1
1
1
1.00001
1.00002
1.00002
1.00001
1
1
1
1
1
1
1
1
1
1
1
1
1
1
1
1.00001
1.00001
1.00001
1
1
1
1
1
1
1
1
1
1
1
1
1
1
1
1
1.00001
1.00001
1
1
1
1
1
1
1
1
1
1
1
1
1
1
1
1
1
1
1
1
1
1
1
1
1
1
1
1
1
1
1
1
1
1
1
1
1
1
1
1
1
1
1
1
1
1
1
1
1
1
1
1
1
1
1
1
1
1
1
1
1
1
1
1
1
1
1
1
1
1
1
1
1
1
1
1
1
1
1
1
1
1
1
1
1
1
1
1
1
1
1
1
1
1
1
1
1
1
1
1
1
1
1
1
1
1
1
1
1
1
1
1
1
1
1
1
1
1
1
1
1
1
1
1
1
1
1
1
1
1
1
1
1
1
1
)
;

boundaryField
{
    leftWall
    {
        type            calculated;
        value           nonuniform List<scalar> 
50
(
13529
13529
13529
13529
13529
13529
13529
9150.92
1455.66
1000
1000
997.109
835.988
479.096
329.669
16.2282
1.0036
1.00049
1.00089
1.00052
1.00027
1.0002
1.00012
1.00007
1.00005
1.00004
1.00004
1.00004
1.00004
1.00003
1.00003
1.00002
1.00002
1.00002
1.00001
1.00001
1.00001
1.00001
1
1
1
1
1
1
1
1
1
1
1
1
)
;
    }
    rightWall
    {
        type            calculated;
        value           nonuniform List<scalar> 
50
(
10289.9
10289.8
10287.9
7398
6841.61
2501.26
2156.97
839.204
783.781
953.311
967.506
762.842
574.249
506.963
483.878
133.98
1.53975
1.0002
1.00034
1.0003
1.00028
1.00031
1.00027
1.00016
1.00002
1.00001
1.00001
1.00001
1.00001
1.00001
1.00001
1.00002
1.00003
1.00003
1.00004
1.00003
1.00003
1.00003
1.00002
1.00001
1.00001
1
1
1
1
1
1
1
1
1
)
;
    }
    lowerWall
    {
        type            calculated;
        value           nonuniform List<scalar> 
62
(
13529
13529
13529
13529
13529
13529
13529
13529
13529
13529
13529
13529
13529
13529
13529
13529
13529
13529
13529
13526.8
13523.4
13521.6
13521.6
13521.6
13525.9
13529
13529
13510.6
6884.49
1003.36
999.759
1366.93
1623.86
1563.8
1517.46
11938.8
7801.25
2782.82
3106.36
2898.02
2053.25
1179.44
1036.79
11938.8
11938.9
11945.3
11953.5
11952.8
11943.7
11804.4
9474.4
8746.83
8764.32
8802.3
8642.35
8255.42
8226.97
9292.93
10324.7
10338.8
10290.2
10289.9
)
;
    }
    atmosphere
    {
        type            calculated;
        value           nonuniform List<scalar> 
46
(
1
1
1
1
1
1
1
1
1
1
1
1
1
1
1
1
1
1
1
1
1
1
1
1
1
1
1
1
1
1
1
1
1
1
1
1
1
1
1
1
1
1
1
1
1
1
)
;
    }
    defaultFaces
    {
        type            empty;
    }
}


// ************************************************************************* //
