/*--------------------------------*- C++ -*----------------------------------*\
  =========                 |
  \\      /  F ield         | OpenFOAM: The Open Source CFD Toolbox
   \\    /   O peration     | Website:  https://openfoam.org
    \\  /    A nd           | Version:  13
     \\/     M anipulation  |
\*---------------------------------------------------------------------------*/
FoamFile
{
    format      ascii;
    class       volVectorField;
    location    "2.15";
    object      U;
}
// * * * * * * * * * * * * * * * * * * * * * * * * * * * * * * * * * * * * * //

dimensions      [0 1 -1 0 0 0 0];

internalField   nonuniform List<vector> 
2268
(
(0.0151734 -0.00725167 0)
(0.0299639 -0.00187483 0)
(0.0351961 -0.000194592 0)
(0.0404982 1.87134e-05 0)
(0.0441986 0.000118451 0)
(0.0465259 0.000292238 0)
(0.0469983 0.000605412 0)
(0.0457504 0.000885941 0)
(0.0431967 0.000939967 0)
(0.0397375 0.00102302 0)
(0.0356987 0.00105923 0)
(0.0313677 0.00100026 0)
(0.0271206 0.000865128 0)
(0.0232258 0.000706831 0)
(0.0197293 0.000591169 0)
(0.0164749 0.000553035 0)
(0.0133609 0.000522781 0)
(0.0104603 0.000412688 0)
(0.0080077 0.000109757 0)
(0.00659515 -0.000417074 0)
(0.00642438 -0.0011854 0)
(0.00874096 -0.000933459 0)
(0.00807049 0.00293771 0)
(0.00948301 -0.0153762 0)
(0.0242219 -0.00770856 0)
(0.0335832 -0.00535316 0)
(0.0429306 -0.0040629 0)
(0.0496093 -0.00277184 0)
(0.0537043 -0.00134075 0)
(0.0550162 0.000215024 0)
(0.053818 0.00154098 0)
(0.0508273 0.00237063 0)
(0.0467167 0.00292714 0)
(0.0419009 0.00327069 0)
(0.0367318 0.00334089 0)
(0.0316259 0.00315682 0)
(0.026874 0.00285212 0)
(0.0225506 0.0025985 0)
(0.018553 0.00245894 0)
(0.0147897 0.00234018 0)
(0.0112593 0.00212799 0)
(0.00802942 0.00167462 0)
(0.00533436 0.000873877 0)
(0.00331853 -0.000231918 0)
(0.00326276 -0.000342801 0)
(0.0027429 0.00540464 0)
(0.00634605 -0.0217469 0)
(0.0222674 -0.0134175 0)
(0.0341797 -0.010402 0)
(0.0455107 -0.00803452 0)
(0.053532 -0.00543396 0)
(0.0582965 -0.00262218 0)
(0.0598096 0.000164673 0)
(0.0584666 0.00249667 0)
(0.055101 0.00401422 0)
(0.0505407 0.00497952 0)
(0.0452617 0.00564091 0)
(0.0396281 0.00582541 0)
(0.034063 0.00557685 0)
(0.0288691 0.00510296 0)
(0.024144 0.00467072 0)
(0.0198269 0.00438497 0)
(0.0158345 0.00413794 0)
(0.012107 0.00378971 0)
(0.00860285 0.00318572 0)
(0.00537696 0.00212569 0)
(0.00240275 0.000666173 0)
(0.000830241 7.35752e-06 0)
(-0.00120729 0.00569542 0)
(0.0052914 -0.0279348 0)
(0.0220953 -0.0201571 0)
(0.0356843 -0.0163905 0)
(0.0480376 -0.0127144 0)
(0.0566619 -0.00855222 0)
(0.061618 -0.00415311 0)
(0.0630728 0.000143285 0)
(0.0615166 0.00371241 0)
(0.0578417 0.00606873 0)
(0.0529924 0.0075425 0)
(0.0474362 0.0084207 0)
(0.0415274 0.00869509 0)
(0.0357165 0.00833646 0)
(0.0302894 0.00764652 0)
(0.0253627 0.00697174 0)
(0.020925 0.00647077 0)
(0.0168918 0.00604109 0)
(0.0131781 0.00556728 0)
(0.00966275 0.00486088 0)
(0.00624871 0.0037168 0)
(0.00277029 0.00210646 0)
(0.000192757 0.00107405 0)
(-0.00362502 0.00522594 0)
(0.00567507 -0.0344921 0)
(0.0227381 -0.027875 0)
(0.0372382 -0.0231403 0)
(0.0499033 -0.0178717 0)
(0.0586084 -0.0118628 0)
(0.0634744 -0.00564431 0)
(0.0647961 0.000238659 0)
(0.0631014 0.00510995 0)
(0.059277 0.0083061 0)
(0.0542259 0.0101859 0)
(0.0485371 0.0112936 0)
(0.0426275 0.011489 0)
(0.0368117 0.010901 0)
(0.0313589 0.00990503 0)
(0.0263971 0.00892165 0)
(0.0220099 0.00815428 0)
(0.0181378 0.00752396 0)
(0.0146154 0.00692496 0)
(0.0112853 0.00615893 0)
(0.00799325 0.00502298 0)
(0.00440537 0.00344505 0)
(0.00120307 0.0022208 0)
(-0.00420236 0.00403482 0)
(0.00650065 -0.0418113 0)
(0.0232964 -0.0360648 0)
(0.038104 -0.0301655 0)
(0.0504893 -0.0231331 0)
(0.0588401 -0.0151526 0)
(0.0632993 -0.00704827 0)
(0.0643877 0.000411289 0)
(0.0627431 0.00639249 0)
(0.0590364 0.0101161 0)
(0.054164 0.0121895 0)
(0.0486674 0.0133726 0)
(0.0429793 0.0135717 0)
(0.0375188 0.0129215 0)
(0.0323199 0.0118338 0)
(0.0275265 0.0107043 0)
(0.023452 0.00975772 0)
(0.0200605 0.00898713 0)
(0.0170881 0.00826927 0)
(0.014327 0.00746377 0)
(0.011534 0.00635448 0)
(0.00824787 0.00482699 0)
(0.00480157 0.0034127 0)
(-0.00100516 0.00279426 0)
(0.00731607 -0.0463841 0)
(0.0227932 -0.0424888 0)
(0.037325 -0.0356222 0)
(0.0487782 -0.0270031 0)
(0.0562618 -0.0174456 0)
(0.0600632 -0.00795941 0)
(0.0609307 0.000490466 0)
(0.0596957 0.0073309 0)
(0.0567005 0.0117768 0)
(0.0523319 0.0144319 0)
(0.0474162 0.015691 0)
(0.0426778 0.0158734 0)
(0.0380547 0.0151402 0)
(0.0335332 0.0139795 0)
(0.0292286 0.0126888 0)
(0.0259194 0.0114549 0)
(0.0237831 0.0104783 0)
(0.02222 0.00972108 0)
(0.0208496 0.00886914 0)
(0.0193951 0.00788901 0)
(0.0170221 0.0066827 0)
(0.0131789 0.00579179 0)
(0.00885122 0.00703651 0)
(0.0099629 -0.0503837 0)
(0.0218543 -0.048479 0)
(0.0343428 -0.0404334 0)
(0.0436278 -0.0303566 0)
(0.0492347 -0.0193929 0)
(0.0520746 -0.00855212 0)
(0.0529531 0.000713299 0)
(0.0522705 0.00823495 0)
(0.0492521 0.0131579 0)
(0.0440392 0.01629 0)
(0.0386133 0.0185158 0)
(0.0343863 0.0191059 0)
(0.031476 0.0185781 0)
(0.0298111 0.0173891 0)
(0.0292534 0.015543 0)
(0.0295203 0.0133166 0)
(0.0304013 0.011656 0)
(0.031582 0.010462 0)
(0.0326414 0.00959509 0)
(0.0330953 0.00892178 0)
(0.0317573 0.00860137 0)
(0.0273374 0.00954774 0)
(0.0206001 0.017175 0)
(0.00192615 0.000228327 0)
(-0.0021289 0.00231439 0)
(-0.00521251 0.000769863 0)
(-0.00344304 -0.0031165 0)
(0.00465251 -0.00436201 0)
(0.0139118 -0.00651087 0)
(0.0232453 -0.00496156 0)
(0.0261484 0.000722146 0)
(0.0238282 0.0010201 0)
(0.023149 -0.00181493 0)
(0.027167 -0.00355355 0)
(0.0322827 -0.00281861 0)
(0.0279471 0.00533239 0)
(0.00651014 0.00874743 0)
(-0.0113752 0.00353273 0)
(-0.0196549 0.000992482 0)
(-0.022905 -0.000396401 0)
(-0.0184576 -0.00143631 0)
(-0.00174593 -0.000555168 0)
(0.00134258 0.000131224 0)
(0.00712906 0.00125873 0)
(0.0091468 0.000708612 0)
(0.0115502 -0.00267364 0)
(0.0193992 -0.00463187 0)
(0.0233245 -0.0053171 0)
(0.024028 -0.00310268 0)
(0.0287436 -0.000902859 0)
(0.0329709 0.000555962 0)
(0.0330301 -0.000872586 0)
(0.0306407 -0.00160735 0)
(0.0253247 0.000262239 0)
(0.0183153 0.00814228 0)
(0.00965695 0.0124896 0)
(-0.00344654 0.00940619 0)
(-0.0191695 0.0060373 0)
(-0.0285147 0.000394356 0)
(-0.0257525 -0.00765988 0)
(-0.00274954 -0.00880862 0)
(0.000943484 -0.00456815 0)
(0.0136709 -0.00352135 0)
(0.0190061 -0.000185126 0)
(0.0226704 -0.00520375 0)
(0.0292864 -0.00715516 0)
(0.0309611 -0.00459857 0)
(0.0307276 -0.0027228 0)
(0.0371975 -0.00249289 0)
(0.0428375 0.000500062 0)
(0.040767 0.000294518 0)
(0.0319784 0.000489495 0)
(0.0189163 0.00362592 0)
(0.00930998 0.00998723 0)
(0.00403872 0.0154931 0)
(-0.00647642 0.0142551 0)
(-0.0219013 0.0112097 0)
(-0.0316731 0.00265727 0)
(-0.0325168 -0.0113358 0)
(-0.00932575 -0.013577 0)
(-0.0058128 -0.00553356 0)
(0.00829113 -0.00859013 0)
(0.0148717 -0.0021466 0)
(0.0182374 -0.00845073 0)
(0.0219516 -0.0091453 0)
(0.0255548 -0.00479883 0)
(0.0338044 -0.00513926 0)
(0.0466819 -0.00674539 0)
(0.0567172 -0.000397217 0)
(0.0514886 0.00403939 0)
(0.0344646 0.00546232 0)
(0.0139984 0.0090605 0)
(-0.00047535 0.0125093 0)
(-0.00635134 0.0184083 0)
(-0.0133364 0.0190956 0)
(-0.0257992 0.015935 0)
(-0.033385 0.00437073 0)
(-0.0378591 -0.0127441 0)
(-0.0259192 -0.0308371 0)
(0.000416074 -0.00505966 0)
(0.00615291 -0.0102948 0)
(0.00867334 -0.00399759 0)
(0.00743835 -0.0081159 0)
(0.00266361 -0.00950925 0)
(0.00698419 -0.00939374 0)
(0.0224728 -0.0131848 0)
(0.0397399 -0.0149259 0)
(0.052583 -0.0047278 0)
(0.0535943 0.0111033 0)
(0.0435916 0.0147646 0)
(0.0232908 0.0216122 0)
(-8.16765e-05 0.017812 0)
(-0.00970648 0.0208205 0)
(-0.0155523 0.023263 0)
(-0.0232158 0.0203298 0)
(-0.0269089 0.00620032 0)
(-0.0348897 -0.0129021 0)
(-0.0154028 -0.037348 0)
(0.0158005 -0.00779115 0)
(0.00912274 -0.00897587 0)
(0.00549151 -0.00405533 0)
(-0.00073446 -0.00521635 0)
(-0.00968935 -0.00941143 0)
(-0.00646863 -0.014431 0)
(0.0102752 -0.020575 0)
(0.0264806 -0.0193352 0)
(0.0338163 -0.00678498 0)
(0.0360226 0.0128884 0)
(0.0329821 0.0170999 0)
(0.0283015 0.0301922 0)
(0.0135012 0.0279061 0)
(-0.0059794 0.0237563 0)
(-0.0137307 0.0255006 0)
(-0.0154589 0.0223567 0)
(-0.0141137 0.00811307 0)
(-0.014868 -0.0127914 0)
(0.00310007 -0.0596802 0)
(0.027949 -0.0200709 0)
(0.0135988 -0.00432253 0)
(0.00452602 -0.00155459 0)
(-0.00460194 -0.000737373 0)
(-0.0139809 -0.00774085 0)
(-0.0137779 -0.018022 0)
(-0.00281312 -0.0260084 0)
(0.00821802 -0.0219371 0)
(0.0121612 -0.00864283 0)
(0.0150898 0.0113652 0)
(0.0168263 0.0178715 0)
(0.0156184 0.0292679 0)
(0.0126187 0.0354078 0)
(0.00411333 0.031519 0)
(-0.00581474 0.0278489 0)
(-0.00371025 0.0199311 0)
(0.00463122 0.0065751 0)
(0.00696542 -0.016458 0)
(0.0204237 -0.0471094 0)
(0.0176722 -0.0303218 0)
(0.0122036 0.0014284 0)
(0.00309895 0.00338478 0)
(-0.00621026 0.00352604 0)
(-0.0156298 -0.00463722 0)
(-0.0200578 -0.0192147 0)
(-0.0165234 -0.0292775 0)
(-0.0126337 -0.0250885 0)
(-0.00878868 -0.0103598 0)
(-0.00317234 0.00902274 0)
(0.00104784 0.0177208 0)
(0.00222858 0.0286041 0)
(0.00322324 0.0342669 0)
(0.00124522 0.033668 0)
(-0.000198856 0.0284105 0)
(0.00557131 0.0165508 0)
(0.0190368 0.00140076 0)
(0.0332846 -0.0222295 0)
(0.0542826 -0.0439842 0)
(0.0128931 -0.0743371 0)
(0.0166797 -0.0617409 0)
(0.0254211 -0.0499604 0)
(0.0299218 -0.0365894 0)
(0.0295081 -0.0230541 0)
(0.0255652 -0.0102972 0)
(0.0203692 0.000979368 0)
(0.015249 0.011458 0)
(0.0116163 0.0194611 0)
(0.0108018 0.0230585 0)
(0.0122532 0.022297 0)
(0.0149003 0.0204112 0)
(0.0181646 0.0179839 0)
(0.0217393 0.0155874 0)
(0.0253524 0.0131579 0)
(0.0289382 0.010783 0)
(0.0324835 0.00905589 0)
(0.0357122 0.00811986 0)
(0.0381993 0.00772738 0)
(0.039391 0.00807471 0)
(0.0378203 0.0103885 0)
(0.0319865 0.0161326 0)
(0.0245308 0.0315816 0)
(-0.0144503 -0.0741496 0)
(-0.0161546 -0.0681594 0)
(-0.0203788 -0.055056 0)
(-0.0239731 -0.0364111 0)
(-0.0257926 -0.017507 0)
(-0.0259582 -0.00346211 0)
(-0.024295 0.0056946 0)
(-0.0208377 0.0120325 0)
(-0.0163194 0.0154095 0)
(-0.0113309 0.0160645 0)
(-0.00643385 0.0154059 0)
(-0.00179344 0.0138579 0)
(0.00270939 0.0120336 0)
(0.00688936 0.0102529 0)
(0.0106361 0.00834568 0)
(0.0140801 0.00638326 0)
(0.0171687 0.00507754 0)
(0.0194346 0.00500235 0)
(0.0204324 0.00609273 0)
(0.0200501 0.00802736 0)
(0.0175313 0.0141386 0)
(0.011846 0.0235523 0)
(0.00959831 0.0387913 0)
(-0.0141881 -0.0447386 0)
(-0.0250599 -0.0497238 0)
(-0.0331359 -0.042649 0)
(-0.0382613 -0.0300457 0)
(-0.0403541 -0.0167166 0)
(-0.0402044 -0.00620307 0)
(-0.0381762 0.00110233 0)
(-0.0347462 0.00643371 0)
(-0.0308596 0.00971625 0)
(-0.0270847 0.0108179 0)
(-0.0236946 0.010586 0)
(-0.02082 0.00944805 0)
(-0.0182883 0.00796049 0)
(-0.016178 0.00679924 0)
(-0.0145825 0.00540234 0)
(-0.0132741 0.00362356 0)
(-0.0124539 0.00326707 0)
(-0.0129482 0.00489361 0)
(-0.0151755 0.00772739 0)
(-0.0189623 0.0112859 0)
(-0.0232592 0.019621 0)
(-0.0291401 0.0300898 0)
(-0.0356284 0.0447199 0)
(-0.0046735 -0.0310297 0)
(-0.0201385 -0.0375229 0)
(-0.0305129 -0.0345778 0)
(-0.03789 -0.025688 0)
(-0.0427132 -0.0148971 0)
(-0.0456999 -0.00605641 0)
(-0.0468733 -0.00059891 0)
(-0.046931 0.00410004 0)
(-0.0470095 0.00755291 0)
(-0.047191 0.00869433 0)
(-0.0475804 0.0091431 0)
(-0.0485612 0.00847597 0)
(-0.0498057 0.00738688 0)
(-0.0511861 0.00699462 0)
(-0.0530159 0.00621806 0)
(-0.055123 0.00487747 0)
(-0.0573581 0.00587159 0)
(-0.0611423 0.00933612 0)
(-0.066317 0.0129626 0)
(-0.0717152 0.01599 0)
(-0.0773965 0.0235164 0)
(-0.0804452 0.0346963 0)
(-0.0803805 0.046734 0)
(-0.000891871 -0.0230836 0)
(-0.0213081 -0.0254979 0)
(-0.0346911 -0.0252401 0)
(-0.0457562 -0.0188281 0)
(-0.0542886 -0.0100257 0)
(-0.0608195 -0.00278962 0)
(-0.065598 0.00104208 0)
(-0.0703299 0.00574807 0)
(-0.0757901 0.00972751 0)
(-0.0811878 0.0108385 0)
(-0.0866956 0.0120568 0)
(-0.0927634 0.0119989 0)
(-0.0989605 0.0111359 0)
(-0.104738 0.0110986 0)
(-0.109608 0.00987872 0)
(-0.113539 0.00741352 0)
(-0.117046 0.00908423 0)
(-0.119677 0.0130348 0)
(-0.121313 0.0155706 0)
(-0.121398 0.019944 0)
(-0.120678 0.0258815 0)
(-0.118675 0.0338149 0)
(-0.112098 0.0398747 0)
(-0.0140624 0.00265422 0)
(-0.0403834 -0.00368129 0)
(-0.0579151 -0.00930983 0)
(-0.0725204 -0.00651812 0)
(-0.083401 -0.000231874 0)
(-0.0919845 0.00539276 0)
(-0.100461 0.00874118 0)
(-0.110365 0.0138902 0)
(-0.121011 0.0177847 0)
(-0.131298 0.0181812 0)
(-0.141835 0.0197671 0)
(-0.151885 0.0194918 0)
(-0.160509 0.0176608 0)
(-0.166389 0.0154235 0)
(-0.169039 0.0125985 0)
(-0.169056 0.0100121 0)
(-0.167496 0.0103979 0)
(-0.164092 0.0126895 0)
(-0.159142 0.0139991 0)
(-0.154572 0.0175092 0)
(-0.149816 0.022398 0)
(-0.143171 0.0276797 0)
(-0.133683 0.0302325 0)
(-0.0352861 0.00799999 0)
(-0.0657586 0.00375201 0)
(-0.0822546 0.000867165 0)
(-0.0951429 0.0040855 0)
(-0.107017 0.010287 0)
(-0.119082 0.0164556 0)
(-0.132463 0.02258 0)
(-0.146615 0.0295065 0)
(-0.160531 0.0338672 0)
(-0.173709 0.0347888 0)
(-0.186331 0.0346688 0)
(-0.19687 0.0322272 0)
(-0.204228 0.0265061 0)
(-0.208036 0.0195609 0)
(-0.208033 0.0129092 0)
(-0.205533 0.0077073 0)
(-0.200643 0.00551834 0)
(-0.193184 0.00573338 0)
(-0.184728 0.00726483 0)
(-0.176544 0.0106374 0)
(-0.168249 0.0150451 0)
(-0.158885 0.018592 0)
(-0.148201 0.0195501 0)
(-0.0596347 0.0721666 0)
(-0.0986382 0.0318308 0)
(-0.118948 0.0150268 0)
(-0.126768 0.0114443 0)
(-0.13344 0.0158092 0)
(-0.144364 0.022991 0)
(-0.157957 0.0301798 0)
(-0.171891 0.0375102 0)
(-0.185746 0.0433133 0)
(-0.200133 0.0456739 0)
(-0.213105 0.0452601 0)
(-0.224246 0.0413961 0)
(-0.232309 0.0330008 0)
(-0.235076 0.02228 0)
(-0.233954 0.0121704 0)
(-0.229717 0.00358308 0)
(-0.222296 -0.00230047 0)
(-0.21242 -0.00448255 0)
(-0.201334 -0.00385086 0)
(-0.190307 -0.000357423 0)
(-0.179487 0.00376516 0)
(-0.168358 0.00626937 0)
(-0.156539 0.00712142 0)
(-0.00871916 0.242705 0)
(-0.0302152 0.0941969 0)
(-0.0881199 0.0277659 0)
(-0.118292 0.0130377 0)
(-0.138148 0.015088 0)
(-0.161633 0.021432 0)
(-0.183496 0.0320172 0)
(-0.194535 0.0421059 0)
(-0.20489 0.0477739 0)
(-0.216028 0.0487663 0)
(-0.229004 0.0488937 0)
(-0.240294 0.0426036 0)
(-0.246736 0.0317849 0)
(-0.249728 0.0194365 0)
(-0.248648 0.008285 0)
(-0.244182 -0.00225156 0)
(-0.236227 -0.0109169 0)
(-0.225218 -0.0152242 0)
(-0.212399 -0.0151856 0)
(-0.198939 -0.0112643 0)
(-0.186368 -0.00670564 0)
(-0.173215 -0.00520091 0)
(-0.158055 -0.00323836 0)
(0.0348062 0.16105 0)
(0.0393736 0.114116 0)
(0.00561818 0.108187 0)
(-0.0396318 0.0874625 0)
(-0.0894061 0.0858501 0)
(-0.124973 0.105764 0)
(-0.158332 0.077182 0)
(-0.176022 0.0527745 0)
(-0.191979 0.0485142 0)
(-0.210112 0.0478168 0)
(-0.226483 0.0409352 0)
(-0.242477 0.0391454 0)
(-0.249462 0.0295263 0)
(-0.250858 0.0165084 0)
(-0.251787 0.0042129 0)
(-0.249141 -0.00937885 0)
(-0.24322 -0.0189185 0)
(-0.233639 -0.0237629 0)
(-0.221106 -0.0232952 0)
(-0.20693 -0.0201833 0)
(-0.190199 -0.0148435 0)
(-0.173094 -0.013619 0)
(-0.15821 -0.0135309 0)
(0.0210837 0.0964248 0)
(0.0342122 0.122369 0)
(0.018553 0.119976 0)
(-0.00461205 0.112825 0)
(-0.0365086 0.111498 0)
(-0.0641827 0.105939 0)
(-0.079569 0.109312 0)
(-0.0982723 0.108909 0)
(-0.126198 0.123712 0)
(-0.158731 0.12851 0)
(-0.186204 0.129343 0)
(-0.206209 0.0869875 0)
(-0.214671 0.0389237 0)
(-0.22562 0.0109002 0)
(-0.234539 -0.00671557 0)
(-0.238572 -0.0186237 0)
(-0.238786 -0.0283125 0)
(-0.235304 -0.0300266 0)
(-0.225304 -0.0298234 0)
(-0.211631 -0.0239343 0)
(-0.194985 -0.0179614 0)
(-0.171956 -0.0201154 0)
(-0.161055 -0.0224882 0)
(0.00558232 0.0989227 0)
(0.016909 0.115639 0)
(0.0189947 0.124355 0)
(0.0141157 0.128633 0)
(0.00417855 0.132436 0)
(-0.0099253 0.128607 0)
(-0.0282417 0.112243 0)
(-0.0496619 0.1123 0)
(-0.0701421 0.124075 0)
(-0.0876 0.131096 0)
(-0.101371 0.109606 0)
(-0.104549 0.0930762 0)
(-0.104748 0.0682294 0)
(-0.11411 0.0542169 0)
(-0.128261 0.0362227 0)
(-0.144584 0.00397767 0)
(-0.161293 -0.0257317 0)
(-0.174162 -0.0512018 0)
(-0.182841 -0.0694888 0)
(-0.18621 -0.0795907 0)
(-0.181896 -0.0807369 0)
(-0.181534 -0.0822445 0)
(-0.189173 -0.0653581 0)
(-0.000402609 0.0827418 0)
(0.00887879 0.107193 0)
(0.01356 0.121235 0)
(0.0163985 0.130126 0)
(0.0168841 0.136046 0)
(0.0146106 0.13492 0)
(0.00541737 0.1294 0)
(-0.00877891 0.127518 0)
(-0.0181525 0.130736 0)
(-0.0202295 0.132621 0)
(-0.0222313 0.121248 0)
(-0.0296719 0.0864817 0)
(-0.041538 0.0632115 0)
(-0.0545294 0.052605 0)
(-0.0652134 0.0371814 0)
(-0.0771687 0.017566 0)
(-0.0926992 -0.00287039 0)
(-0.109688 -0.0211676 0)
(-0.125931 -0.0362391 0)
(-0.14 -0.0454138 0)
(-0.149759 -0.0475168 0)
(-0.159737 -0.0477027 0)
(-0.172566 -0.0407586 0)
(-0.00565334 0.0821629 0)
(0.0016063 0.102479 0)
(0.00646576 0.116243 0)
(0.0120999 0.12662 0)
(0.0173538 0.134016 0)
(0.0208882 0.136591 0)
(0.0202008 0.134723 0)
(0.0161966 0.133254 0)
(0.0136278 0.131984 0)
(0.0158281 0.129136 0)
(0.0189738 0.117413 0)
(0.0149525 0.0969061 0)
(0.00191385 0.0754038 0)
(-0.0124734 0.0596467 0)
(-0.0239344 0.0457388 0)
(-0.0355592 0.0295294 0)
(-0.0492309 0.012587 0)
(-0.0647817 -0.00340784 0)
(-0.0812954 -0.0175598 0)
(-0.0973599 -0.0280388 0)
(-0.111467 -0.0335114 0)
(-0.125559 -0.0338514 0)
(-0.143218 -0.0260078 0)
(-0.0088072 0.0849388 0)
(-0.00364196 0.099354 0)
(0.00034807 0.110647 0)
(0.00653813 0.12029 0)
(0.0136919 0.128097 0)
(0.0206004 0.132807 0)
(0.0254956 0.134345 0)
(0.0285767 0.134122 0)
(0.0311246 0.131459 0)
(0.0346657 0.127305 0)
(0.0380598 0.117654 0)
(0.0367332 0.10216 0)
(0.0292663 0.0854915 0)
(0.019284 0.0706099 0)
(0.00933918 0.0564608 0)
(-0.00103975 0.041492 0)
(-0.0129675 0.026044 0)
(-0.0263838 0.0111159 0)
(-0.0409208 -0.00233744 0)
(-0.056029 -0.0130308 0)
(-0.0704741 -0.0197813 0)
(-0.0848835 -0.0217585 0)
(-0.101629 -0.0182737 0)
(-0.00997753 0.090081 0)
(-0.00676401 0.0980773 0)
(-0.00407059 0.105846 0)
(0.00148002 0.11348 0)
(0.00885328 0.120326 0)
(0.0170162 0.125413 0)
(0.0248391 0.128198 0)
(0.031681 0.128974 0)
(0.0377254 0.127191 0)
(0.0431591 0.123293 0)
(0.0472227 0.116378 0)
(0.0484467 0.105832 0)
(0.0456866 0.0931563 0)
(0.0401568 0.0798755 0)
(0.0333934 0.0664125 0)
(0.025448 0.0523199 0)
(0.0160743 0.0379775 0)
(0.00529847 0.0240965 0)
(-0.00659483 0.0113119 0)
(-0.0192226 0.00068317 0)
(-0.0317744 -0.00688019 0)
(-0.044327 -0.0106255 0)
(-0.0592022 -0.0105709 0)
(-0.00992173 0.0967381 0)
(-0.00826608 0.0983163 0)
(-0.00684806 0.102253 0)
(-0.00240771 0.107314 0)
(0.00425353 0.112485 0)
(0.0123398 0.116871 0)
(0.0209199 0.119859 0)
(0.0294113 0.121104 0)
(0.0372638 0.120483 0)
(0.0442243 0.117758 0)
(0.0499727 0.112807 0)
(0.0534982 0.105238 0)
(0.05429 0.0953882 0)
(0.0526744 0.084323 0)
(0.0492458 0.0723654 0)
(0.044338 0.0597131 0)
(0.0379466 0.0467637 0)
(0.0302007 0.034076 0)
(0.0213281 0.0222449 0)
(0.0116211 0.011992 0)
(0.00171555 0.00402476 0)
(-0.00833502 -0.00110359 0)
(-0.0210872 -0.00371637 0)
(-0.00912375 0.103736 0)
(-0.00862855 0.0996232 0)
(-0.00827015 0.0998941 0)
(-0.00499652 0.102246 0)
(0.000586578 0.105432 0)
(0.00787428 0.108585 0)
(0.0161891 0.111071 0)
(0.024866 0.112474 0)
(0.0334138 0.112409 0)
(0.041379 0.110823 0)
(0.0483314 0.107352 0)
(0.0537924 0.10174 0)
(0.0572759 0.0941859 0)
(0.0587229 0.0850902 0)
(0.058408 0.0748887 0)
(0.0565096 0.0638565 0)
(0.0531158 0.0523811 0)
(0.0483878 0.0409612 0)
(0.0425426 0.0300943 0)
(0.0358228 0.0203297 0)
(0.0288023 0.0121673 0)
(0.0213525 0.00607505 0)
(0.0106558 0.0017734 0)
(-0.00802052 0.110282 0)
(-0.00827268 0.101573 0)
(-0.00866153 0.0985711 0)
(-0.00638809 0.0983283 0)
(-0.00190998 0.0994675 0)
(0.00433743 0.10114 0)
(0.0118474 0.102735 0)
(0.020086 0.103784 0)
(0.0285503 0.103942 0)
(0.0368254 0.102913 0)
(0.0445282 0.100449 0)
(0.0512308 0.0962957 0)
(0.0565519 0.0904243 0)
(0.0603079 0.0830809 0)
(0.0625093 0.0745381 0)
(0.06322 0.0650716 0)
(0.0625083 0.0550459 0)
(0.0605201 0.0448754 0)
(0.0574502 0.0349865 0)
(0.053515 0.025791 0)
(0.0491277 0.0176737 0)
(0.0441637 0.0110361 0)
(0.0356467 0.00568446 0)
(-0.00687428 0.116295 0)
(-0.00748963 0.103822 0)
(-0.00829554 0.09799 0)
(-0.00675779 0.0953958 0)
(-0.00322764 0.0945841 0)
(0.00199365 0.0947231 0)
(0.00853375 0.0952261 0)
(0.0159982 0.0956349 0)
(0.023971 0.0955738 0)
(0.032087 0.094744 0)
(0.0399932 0.0928447 0)
(0.0473334 0.08963 0)
(0.0537646 0.0850088 0)
(0.0590488 0.0790507 0)
(0.0630759 0.071928 0)
(0.0658116 0.0638703 0)
(0.0672783 0.055177 0)
(0.0675829 0.0461911 0)
(0.0668772 0.037256 0)
(0.0653042 0.0286908 0)
(0.0632312 0.0208021 0)
(0.0603784 0.013964 0)
(0.0537738 0.00805998 0)
(-0.0057472 0.121588 0)
(-0.00642455 0.106053 0)
(-0.00735733 0.0978358 0)
(-0.00627545 0.0931958 0)
(-0.0034634 0.0906213 0)
(0.000876813 0.0892936 0)
(0.00648129 0.0886511 0)
(0.0130736 0.0882558 0)
(0.0203332 0.0877405 0)
(0.027967 0.0867851 0)
(0.0356724 0.085096 0)
(0.0431411 0.0824256 0)
(0.0500714 0.0786309 0)
(0.0562149 0.0736986 0)
(0.0614063 0.0677157 0)
(0.0655519 0.060847 0)
(0.0686266 0.0533212 0)
(0.07069 0.0454065 0)
(0.0718397 0.0373714 0)
(0.0721805 0.0294669 0)
(0.0719318 0.0219401 0)
(0.0708254 0.0151555 0)
(0.0659079 0.00908027 0)
(-0.00466548 0.125978 0)
(-0.00515965 0.108005 0)
(-0.00597476 0.0978257 0)
(-0.00509085 0.0914628 0)
(-0.002756 0.0873609 0)
(0.000897502 0.0847087 0)
(0.00569261 0.0829638 0)
(0.0114387 0.0817122 0)
(0.0179077 0.080604 0)
(0.0248754 0.0793247 0)
(0.0320982 0.0775888 0)
(0.0393196 0.0751549 0)
(0.0462795 0.07186 0)
(0.0527454 0.0676395 0)
(0.0585346 0.0625204 0)
(0.0635229 0.056604 0)
(0.0676508 0.0500535 0)
(0.0709359 0.0430678 0)
(0.0734308 0.0358514 0)
(0.0751625 0.028598 0)
(0.0763242 0.0215144 0)
(0.0765387 0.014964 0)
(0.072931 0.00896265 0)
(-0.00360045 0.12937 0)
(-0.00373327 0.109482 0)
(-0.00423794 0.0977248 0)
(-0.00333331 0.0899553 0)
(-0.00125548 0.0845808 0)
(0.00190944 0.0807899 0)
(0.00605154 0.0780529 0)
(0.0110409 0.0759787 0)
(0.0167287 0.0742353 0)
(0.022953 0.0725249 0)
(0.0295285 0.07058 0)
(0.0362514 0.0681711 0)
(0.0429072 0.0651308 0)
(0.0492908 0.0613672 0)
(0.0552267 0.0568645 0)
(0.0605816 0.0516749 0)
(0.0652758 0.0459048 0)
(0.0692953 0.0396949 0)
(0.0726495 0.0331955 0)
(0.0753392 0.0265533 0)
(0.0774427 0.0199488 0)
(0.0786269 0.0137325 0)
(0.0760994 0.00796689 0)
(-0.0025567 0.131691 0)
(-0.00218303 0.110335 0)
(-0.0022214 0.0973438 0)
(-0.00111744 0.0884691 0)
(0.000889519 0.0820802 0)
(0.00374656 0.0773574 0)
(0.00738789 0.0737835 0)
(0.0117351 0.0709801 0)
(0.0167008 0.0686311 0)
(0.022176 0.066461 0)
(0.0280294 0.0642236 0)
(0.0341076 0.0617075 0)
(0.0402415 0.0587499 0)
(0.0462608 0.0552471 0)
(0.0520095 0.0511575 0)
(0.0573598 0.0464963 0)
(0.0622248 0.0413264 0)
(0.0665711 0.0357422 0)
(0.070381 0.0298499 0)
(0.0736026 0.0237601 0)
(0.0763108 0.0176289 0)
(0.0781097 0.0118031 0)
(0.0763386 0.00635497 0)
(-0.00149592 0.132895 0)
(-0.000528271 0.110447 0)
(1.34415e-05 0.0965362 0)
(0.00145253 0.0868396 0)
(0.0035361 0.0796859 0)
(0.00622979 0.0742551 0)
(0.00950515 0.0700231 0)
(0.0133278 0.0666181 0)
(0.0176534 0.063742 0)
(0.0224187 0.0611401 0)
(0.0275389 0.0585889 0)
(0.0329063 0.0558971 0)
(0.038395 0.0529129 0)
(0.043871 0.0495315 0)
(0.0492047 0.0456972 0)
(0.0542828 0.0414012 0)
(0.0590213 0.0366753 0)
(0.0633766 0.0315792 0)
(0.0673095 0.0261848 0)
(0.0707648 0.020577 0)
(0.0737338 0.0148907 0)
(0.0758855 0.0094605 0)
(0.0746944 0.00437463 0)
(-0.000433539 0.132967 0)
(0.00119692 0.109701 0)
(0.00240772 0.0951906 0)
(0.00427509 0.0849471 0)
(0.00653564 0.0772824 0)
(0.009177 0.0713587 0)
(0.0121999 0.0666508 0)
(0.015603 0.0627914 0)
(0.0193765 0.0594955 0)
(0.0234946 0.0565272 0)
(0.0279112 0.0536847 0)
(0.0325586 0.0507971 0)
(0.0373499 0.0477274 0)
(0.0421865 0.044376 0)
(0.0469669 0.0406824 0)
(0.0515972 0.0366245 0)
(0.0560024 0.0322136 0)
(0.0601373 0.027485 0)
(0.0639571 0.022487 0)
(0.0673739 0.0172838 0)
(0.0703955 0.0119922 0)
(0.0726586 0.00694296 0)
(0.0717706 0.0022179 0)
(0.000567481 0.13176 0)
(0.00294889 0.108105 0)
(0.00490436 0.0932637 0)
(0.0072374 0.0827209 0)
(0.00973887 0.0747743 0)
(0.0124061 0.0685673 0)
(0.0152628 0.0635669 0)
(0.0183344 0.0594068 0)
(0.0216391 0.0558125 0)
(0.0251814 0.0525645 0)
(0.0289475 0.0494812 0)
(0.0329033 0.0464116 0)
(0.0369962 0.0432346 0)
(0.0411594 0.0398601 0)
(0.045319 0.0362295 0)
(0.0494021 0.0323153 0)
(0.0533464 0.0281173 0)
(0.0571102 0.0236554 0)
(0.0606431 0.0189625 0)
(0.0638687 0.0140867 0)
(0.0667377 0.00913799 0)
(0.0689544 0.00442766 0)
(0.0682809 5.13157e-05 0)
(0.00158986 0.129242 0)
(0.00469444 0.105631 0)
(0.00739 0.0907152 0)
(0.0102155 0.0801143 0)
(0.0129931 0.0721059 0)
(0.0157339 0.0658139 0)
(0.0184843 0.0606958 0)
(0.021293 0.0563854 0)
(0.0242016 0.0526164 0)
(0.0272393 0.0491845 0)
(0.030419 0.045926 0)
(0.0337346 0.0427088 0)
(0.0371622 0.0394281 0)
(0.0406628 0.0360058 0)
(0.0441874 0.0323897 0)
(0.0476832 0.0285527 0)
(0.0511021 0.0244902 0)
(0.0544096 0.0202142 0)
(0.0575594 0.0157483 0)
(0.0604591 0.0111332 0)
(0.063085 0.00647037 0)
(0.0651225 0.00206448 0)
(0.0645043 -0.00199745 0)
(0.00259997 0.125534 0)
(0.00635675 0.102261 0)
(0.00977196 0.0875409 0)
(0.0130824 0.0771145 0)
(0.0161425 0.0692506 0)
(0.0189784 0.0630574 0)
(0.0216594 0.0579839 0)
(0.0242554 0.0536637 0)
(0.0268281 0.0498389 0)
(0.0294276 0.0463184 0)
(0.0320884 0.0429553 0)
(0.0348274 0.0396353 0)
(0.0376439 0.03627 0)
(0.0405223 0.0327945 0)
(0.0434348 0.0291659 0)
(0.0463472 0.0253619 0)
(0.0492256 0.0213782 0)
(0.0520432 0.0172255 0)
(0.0547555 0.0129232 0)
(0.05729 0.00851112 0)
(0.0595811 0.00408712 0)
(0.061377 -5.72317e-05 0)
(0.0607995 -0.00383768 0)
(0.00350104 0.120715 0)
(0.00785262 0.0980426 0)
(0.011954 0.0837686 0)
(0.0157173 0.0737347 0)
(0.0190423 0.0662059 0)
(0.0219732 0.0602791 0)
(0.0246021 0.0553967 0)
(0.0270187 0.0511939 0)
(0.0293031 0.0474211 0)
(0.0315229 0.0439004 0)
(0.0337302 0.0405012 0)
(0.0359601 0.0371261 0)
(0.0382306 0.033703 0)
(0.0405445 0.0301808 0)
(0.042892 0.0265277 0)
(0.0452547 0.0227288 0)
(0.0476112 0.0187843 0)
(0.0499433 0.0147068 0)
(0.0522159 0.0105178 0)
(0.0543471 0.00625912 0)
(0.0562984 0.00202755 0)
(0.0578124 -0.00188801 0)
(0.0571699 -0.00543161 0)
(0.00429595 0.114894 0)
(0.00916297 0.0930573 0)
(0.0138759 0.0794567 0)
(0.0180333 0.0700133 0)
(0.0215832 0.0629918 0)
(0.0245884 0.0574804 0)
(0.0271639 0.0529177 0)
(0.0294184 0.0489425 0)
(0.0314486 0.0453151 0)
(0.033337 0.0418716 0)
(0.0351499 0.0384977 0)
(0.0369363 0.0351128 0)
(0.0387285 0.0316607 0)
(0.0405436 0.0281047 0)
(0.0423857 0.0244245 0)
(0.0442495 0.0206145 0)
(0.0461249 0.0166817 0)
(0.0480014 0.0126437 0)
(0.0498482 0.00852768 0)
(0.0516041 0.00437945 0)
(0.0531996 0.000305363 0)
(0.0544377 -0.00342376 0)
(0.0537789 -0.0067622 0)
(0.00495669 0.108202 0)
(0.0102819 0.0874058 0)
(0.015515 0.0746848 0)
(0.0199911 0.0660102 0)
(0.0237069 0.0596488 0)
(0.0267465 0.054682 0)
(0.0292487 0.0505475 0)
(0.0313414 0.0468912 0)
(0.0331369 0.0434857 0)
(0.03473 0.0401829 0)
(0.0361981 0.0368854 0)
(0.0376003 0.0335297 0)
(0.0389788 0.0300755 0)
(0.0403609 0.0265003 0)
(0.0417613 0.0227958 0)
(0.0431846 0.0189661 0)
(0.0446299 0.0150265 0)
(0.0460943 0.0110019 0)
(0.0475558 0.00692684 0)
(0.0489496 0.00285668 0)
(0.0502309 -0.00109588 0)
(0.0512104 -0.00466423 0)
(0.0505042 -0.00783239 0)
(0.00554385 0.100777 0)
(0.0112611 0.0812005 0)
(0.0169073 0.0695461 0)
(0.0216127 0.0618024 0)
(0.0254165 0.0562364 0)
(0.0284298 0.0519236 0)
(0.0308186 0.0483052 0)
(0.032732 0.0450383 0)
(0.0342964 0.0419121 0)
(0.0356171 0.038797 0)
(0.0367787 0.0356143 0)
(0.0378466 0.032318 0)
(0.0388689 0.0288839 0)
(0.0398792 0.0253033 0)
(0.0408989 0.0215795 0)
(0.0419402 0.0177264 0)
(0.0430094 0.0137677 0)
(0.0441101 0.00973694 0)
(0.0452252 0.00567768 0)
(0.0463107 0.00165746 0)
(0.0473005 -0.00220008 0)
(0.0480575 -0.00564066 0)
(0.0473707 -0.0086515 0)
(0.00606775 0.0927099 0)
(0.0121668 0.0745324 0)
(0.0181382 0.0641337 0)
(0.0229785 0.0574806 0)
(0.0267731 0.052834 0)
(0.0296758 0.0492663 0)
(0.0318896 0.0462293 0)
(0.0335871 0.0433994 0)
(0.0349086 0.0405884 0)
(0.0359665 0.0376895 0)
(0.0368489 0.0346452 0)
(0.0376228 0.0314282 0)
(0.038338 0.02803 0)
(0.03903 0.0244551 0)
(0.0397238 0.0207175 0)
(0.0404361 0.0168402 0)
(0.0411789 0.0128545 0)
(0.0419615 0.00880208 0)
(0.0427778 0.00473727 0)
(0.0435823 0.000741126 0)
(0.044332 -0.00305294 0)
(0.0449029 -0.00638693 0)
(0.0441992 -0.00925507 0)
(0.0066483 0.0839978 0)
(0.0131498 0.0674527 0)
(0.0193665 0.0585356 0)
(0.0242297 0.0531516 0)
(0.0278874 0.0495458 0)
(0.0305655 0.0467959 0)
(0.0325181 0.0443797 0)
(0.0339455 0.042007 0)
(0.0349991 0.0395222 0)
(0.0357938 0.0368475 0)
(0.0364155 0.0339493 0)
(0.0369276 0.03082 0)
(0.0373765 0.0274666 0)
(0.0377958 0.0239054 0)
(0.03821 0.0201598 0)
(0.0386379 0.0162594 0)
(0.0390955 0.0122419 0)
(0.0395979 0.0081555 0)
(0.0401458 0.00406478 0)
(0.0407157 6.53456e-05 0)
(0.0412546 -0.0036901 0)
(0.0416701 -0.00694915 0)
(0.0410069 -0.00966837 0)
(0.00738212 0.0744998 0)
(0.0144081 0.0599513 0)
(0.0208127 0.0528428 0)
(0.0255527 0.0489542 0)
(0.0288989 0.0465119 0)
(0.0312007 0.0446274 0)
(0.0327827 0.0428372 0)
(0.0338722 0.040908 0)
(0.0346258 0.0387314 0)
(0.0351523 0.0362656 0)
(0.0355277 0.0335046 0)
(0.0358055 0.0304602 0)
(0.0360235 0.027154 0)
(0.0362086 0.0236123 0)
(0.0363816 0.0198651 0)
(0.0365598 0.0159462 0)
(0.0367614 0.0118962 0)
(0.0370073 0.00776677 0)
(0.0373118 0.00363056 0)
(0.0376608 -0.000399925 0)
(0.0380218 -0.00414964 0)
(0.0383137 -0.00734282 0)
(0.0376667 -0.00991672 0)
(0.00853748 0.0639074 0)
(0.0162679 0.0519546 0)
(0.022775 0.0471767 0)
(0.0271616 0.0450874 0)
(0.0299464 0.0439239 0)
(0.031677 0.0429089 0)
(0.0327613 0.0416995 0)
(0.033443 0.0401561 0)
(0.0338677 0.0382356 0)
(0.0341251 0.0359399 0)
(0.0342714 0.0332909 0)
(0.0343429 0.0303191 0)
(0.0343631 0.0270579 0)
(0.0343483 0.0235409 0)
(0.0343111 0.0198018 0)
(0.0342647 0.0158747 0)
(0.0342269 0.0117981 0)
(0.034224 0.00762219 0)
(0.0342825 0.0034219 0)
(0.0344222 -0.000671687 0)
(0.03462 -0.00444632 0)
(0.0347915 -0.0075965 0)
(0.0341917 -0.0100029 0)
(0.0104286 0.0517049 0)
(0.0191264 0.0433236 0)
(0.0255799 0.0417464 0)
(0.0292346 0.0418538 0)
(0.0311118 0.0420377 0)