/*--------------------------------*- C++ -*----------------------------------*\
  =========                 |
  \\      /  F ield         | OpenFOAM: The Open Source CFD Toolbox
   \\    /   O peration     | Website:  https://openfoam.org
    \\  /    A nd           | Version:  13
     \\/     M anipulation  |
\*---------------------------------------------------------------------------*/
FoamFile
{
    format      ascii;
    class       volScalarField;
    location    "2.75";
    object      alphas;
}
// * * * * * * * * * * * * * * * * * * * * * * * * * * * * * * * * * * * * * //

dimensions      [];

internalField   nonuniform List<scalar> 
2268
(
2
2
2
2
2
2
2
2
2
2
2
2
2
2
2
2
2
2
2
1.99991
1.99947
1.99944
1.99944
2
2
2
2
2
2
2
2
2
2
2
2
2
2
2
2
2
2
2
1.99998
1.99991
1.99987
1.99996
2
2
2
2
2
2
2
2
2
2
2
2
2
2
2
2
2
2
2
2
2
2
2
2
2
2
2
2
2
2
2
2
2
2
2
2
2
2
2
2
2
2
2
2
2
2
2
2
2
2
2
2
2
2
2
2
2
2
2
2
2
2
2
2
2
2
2
2
2
1.02984
1.01993
1.03158
1.09124
1.18961
1.32229
1.48137
1.64085
1.76975
1.87949
1.96624
2
2
2
2
2
2
2
2
2
2
2
2.00015
0.00638941
0.00601508
0.00710701
0.0130698
0.0265121
0.0482015
0.0831094
0.150428
0.274043
0.431708
0.621503
0.860946
1.12405
1.35988
1.55375
1.69458
1.79212
1.84576
1.86632
1.8817
1.87787
1.83014
1.76498
8.67002e-08
1.92923e-07
1.13976e-07
9.76032e-07
5.64232e-06
8.85041e-06
1.8915e-06
1.12022e-06
9.60262e-07
8.17532e-07
8.01848e-07
0.000267117
0.0149846
0.0575228
0.123315
0.215286
0.315582
0.420916
0.522366
0.565594
0.547215
0.458384
0.381036
1.87016
1.86576
1.89321
1.9131
1.93995
1.76803
1.76545
1.76098
1.77211
1.77577
1.77159
1.72453
1.69453
1.75246
1.72429
1.65716
1.73951
1.7773
1.76767
1.8702
1.87039
1.83624
1.75964
1.74801
1.78464
1.82759
1.81535
1.92216
2.0131
1.90499
1.80018
1.84572
1.94077
1.91181
1.86222
1.77696
1.77654
1.76755
1.57333
1.57766
1.49229
1.33888
1.09394
1.05888
1.03134
1.02099
1.32412
2.21348
2.34484
2.09917
2.07401
2.24339
2.25396
1.97973
1.69522
1.60396
1.58742
1.45405
1.09468
0.832531
0.70659
0.669432
0.562761
0.318478
0.221729
0.333088
1.3032
2.21908
2.40377
2.398
2.35572
2.30141
2.03153
1.54049
1.36179
1.70347
0.626762
0.279214
0.261759
0.29585
0.55949
0.820923
0.823882
0.76911
0.296555
0.0364927
1.06741
1.97378
2.24341
2.14749
1.09188
0.469675
0.420203
0.190135
1.05531
0.189617
0.190718
0.191812
0.207246
0.691378
0.924545
1.01468
1.03315
0.424244
0.0237734
0.00217877
0.957845
2.00997
1.08246
0.122971
0.000193175
0.00020539
0.000211046
0.893717
0.177373
0.233562
0.219061
0.162664
0.709916
1.07137
1.08196
0.644025
0.116173
0.0154037
0.00111171
0.00564359
1.9738
0.859515
0.000252837
0.000253489
0.000290579
0.00167148
0.762696
0.250034
0.254656
0.235454
0.16379
0.454285
1.1741
1.12682
0.239719
0.00201154
0.00149834
0.00106133
0.100712
1.95018
0.608572
0.00603836
0.000248315
0.00380277
0.00169605
0.552421
8.65823e-08
8.63595e-08
5.76069e-05
0.000233924
0.000172828
5.06684e-06
7.04962e-07
4.89645e-07
3.25844e-07
1.80947e-07
1.21127e-07
9.20154e-08
5.95994e-08
1.27611e-07
6.46395e-08
4.77244e-08
9.13421e-08
1.69429e-07
7.39531e-07
9.894e-06
7.50418e-05
0.00730078
0.0163889
0.000914294
0.00963541
0.00499668
0.00199287
5.44681e-05
1.02488e-08
6.67743e-09
4.41742e-09
6.55148e-09
1.1708e-08
1.344e-08
1.11108e-08
4.46394e-09
4.04021e-09
1.51634e-07
7.65163e-07
1.50076e-06
2.23345e-06
2.99569e-06
4.71483e-06
0.00156596
0.0382993
0.119756
0.321386
0.122379
0.0103623
0.00240985
3.96536e-06
1.92462e-09
0.00156486
4.12055e-09
4.59167e-09
2.07598e-09
1.97129e-09
1.78308e-09
1.42243e-09
0.00217419
0.0103954
0.0196693
0.0366193
0.0507882
0.0968758
0.177958
0.302415
0.446184
0.74648
0.676863
0.691925
0.60874
0.562477
0.460986
0.347962
0.416523
0.455068
0.420616
0.390932
0.383176
0.394593
0.458076
0.540046
0.58747
0.61646
0.701248
0.845575
0.973096
1.0731
1.12382
1.11599
1.16061
1.20415
1.01342
1.00087
0.99989
0.999022
1.19835
1.26025
1.25219
1.26255
1.26875
1.28507
1.2895
1.20385
1.16793
1.21
1.29614
1.26166
1.07811
1.00299
1.00001
1.00002
1.00015
1.05436
1.00616
0.99976
1.00032
1
1.05438
1.09624
1.03334
1.00119
1.02141
1.04971
1.04202
1.02332
1.00964
1.00246
1.00312
1
1
1
1
1
1.0011
1.00131
0.999999
1.00051
0.999291
0.999954
1
1
1
1
1
1
1
1
1
1
1
1
1
1
1
1
1
1
1
0.999999
1.20892
1.24057
1.24612
1.23367
1.21252
1.20451
1.1829
1.15017
1.13313
1.12681
1.13004
1.14229
1.16498
1.19645
1.23593
1.28697
1.34999
1.42401
1.49463
1.54664
1.56936
1.55331
1.51104
2.5939
2.66464
2.70236
2.68778
2.65443
2.6134
2.59086
2.58329
2.57356
2.56832
2.5766
2.6017
2.64012
2.68513
2.7328
2.78073
2.82553
2.86596
2.89753
2.91797
2.92655
2.92257
2.90693
2.99999
2.99999
3
3
3
3
3
3
3
3
3
3
3
3
3
3
3
3
3
3
3
3
3
3
3
3
3
3
3
3
3
3
3
3
3
3
3
3
3
3
3
3
3
3
3
3
3
2.99999
2.99999
3
3
3
2.99998
2.9999
2.99995
3
3
3
3
3
3
3
3
3
3
3
3
3
3
2.99999
2.99998
2.99994
2.99997
3
2.99999
2.99978
2.99967
2.99971
2.99999
3
3
3
3
3
3
3
3
3
3
3
3
3
2.99999
2.99994
2.99989
2.9999
3
2.99998
2.99971
2.99967
2.99967
2.99979
2.99999
2.99999
3
3
3
3
3
3
3
3
3
3
3
2.99999
2.99994
2.99989
2.99989
3
3
2.99991
2.99967
2.99967
2.99979
2.99999
2.99999
2.99999
2.99999
3
3
3
3
3
3
3
3
3
3
2.99998
2.99993
2.99996
3
3
3
2.99996
2.99989
2.99997
2.99999
2.99999
2.99999
2.99999
3
3
3
3
3
3
3
3
3
3
3
3
3
3
3
3
3
3
3
3
3
2.99999
3
3
3
3
3
3
3
3
3
3
3
3
3
3
3
3
3
3
3
3
3
3
3
3
3
3
3
3
3
3
3
3
3
3
3
3
3
3
3
3
3
3
3
3
3
3
3
3
3
3
3
3
3
3
3
3
3
3
3
3
3
3
3
3
3
3
3
3
3
3
3
3
3
3
3
3
3
3
3
3
3
3
3
3
3
3
3
3
3
3
3
3
3
3
3
3
3
3
3
3
3
3
3
3
3
3
3
3
3
3
3
3
3
3
3
3
3
3
3
3
3
3
3
3
3
3
3
3
3
3
3
3
3
3
3
3
3
3
3
3
3
3
3
3
3
3
3
3
3
3
3
3
3
3
3
3
3
3
3
3
3
3
3
3
3
3
3
3
3
3
3
3
3
3
3
3
3
3
3
3
3
3
3
3
3
3
3
3
3
3
3
3
3
3
3
3
3
3
3
3
3
3
3
3
3
3
3
3
3
3
3
3
3
3
3
3
3
3
3
3
3
3
3
3
3
3
3
3
3
3
3
3
3
3
3
3
3
3
3
3
3
3
3
3
3
3
3
3
3
3
3
3
3
3
3
3
3
3
3
3
3
3
3
3
3
3
3
3
3
3
3
3
3
3
3
3
3
3
3
3
3
3
3
3
3
3
3
3
3
3
3
3
3
3
3
3
3
3
3
3
3
3
3
3
3
3
3
3
3
3
3
3
3
3
3
3
3
3
3
3
3
3
3
3
3
3
3
3
3
3
3
3
3
3
3
3
3
3
3
3
3
3
3
3
3
3
3
3
3
3
3
3
3
3
3
3
3
3
3
3
3
3
3
3
3
3
3
3
3
3
3
3
3
3
3
3
3
3
3
3
3
3
3
3
3
3
3
3
3
3
3
3
3
3
3
3
3
3
3
3
3
3
3
3
3
3
3
3
3
3
3
3
3
3
3
3
3
3
3
3
3
3
3
3
3
3
3
3
3
3
3
3
3
3
3
3
3
3
3
3
3
3
3
3
3
3
3
3
3
3
3
3
3
3
3
3
3
3
3
3
3
3
3
3
3
3
3
3
3
3
3
3
3
3
3
3
3
3
3
3
3
3
3
3
3
3
3
3
3
3
3
3
3
3
3
3
3
3
3
3
3
3
3
3
3
3
3
3
3
3
3
3
3
3
3
3
3
3
3
3
3
3
3
3
3
3
3
3
3
3
3
3
3
3
3
3
3
3
3
3
3
3
3
3
3
3
3
3
3
3
3
3
3
3
3
3
3
3
3
3
3
3
3
3
3
3
3
3
3
3
3
3
3
3
3
3
3
3
3
3
3
3
3
3
3
0.0925463
0.114194
0.103094
0.0868545
0.185212
0.144104
0.0410294
0.0148038
0.875664
0.964701
0.842011
0.53009
1.25962
1.27429
1.27413
1.20191
1.05536
1.02464
1.00014
1.00018
0.999996
0.999993
0.999993
0.999991
0.999997
1
0.999995
0.999987
1.44711
1.40598
1.36861
1.33077
2.87599
2.85448
2.8352
2.81783
3
3
3
3
3
3
3
3
3
3
3
3
3
3
3
3
3
3
3
3
3
3
3
3
3
3
3
3
3
3
3
3
3
3
3
3
3
3
3
3
3
3
3
3
3
3
3
3
3
3
3
3
3
3
3
3
3
3
3
3
3
3
3
3
3
3
3
3
3
3
3
3
3
3
3
3
3
3
3
3
3
3
3
3
3
3
3
3
3
3
3
3
3
3
3
3
3
3
3
3
3
3
3
3
3
3
3
3
3
3
3
3
3
3
3
3
3
3
3
3
3
3
3
3
3
3
3
3
3
3
3
3
0.0307326
0.0506124
0.109407
0.13487
0.337891
1.08047
0.87058
0.0925591
0.00259028
0.00198946
0.00130824
0.0153884
0.303563
0.0349145
0.000297543
0.00027642
0.0222525
0.213283
0.297087
0.0101923
0.0204862
0.184405
0.265695
0.575559
0.944754
0.796393
0.457106
0.100785
0.0331312
0.0116043
0.0103272
0.0117754
0.0183779
0.0800203
0.215632
0.418128
0.552563
0.379694
0.57287
0.782434
0.813137
0.666229
0.74457
1.12817
0.977197
0.853669
0.83425
0.749795
0.724862
0.650451
0.531307
0.615715
0.76241
0.865792
0.929308
0.983934
0.867074
1.18449
1.24102
1.22739
1.08477
1.06796
1.24743
1.31336
1.3223
1.13343
1.00007
1
1.00005
1.00012
1.00011
1.00035
1.00069
1.00718
1.03731
1.02879
1.00316
1.01075
1.00844
1.0008
1.00014
1.02558
1.15408
1.14204
1.02596
1.00001
1
1
1
0.999999
1.00015
1.00047
1.00032
1.00002
0.999899
0.999985
0.999986
0.999997
1.00019
1.00012
0.999991
0.999998
1
1
1
1
1
1
1
1.00001
1.00011
1.00007
1.00001
1
0.999991
0.999997
1
0.999999
0.999998
0.999998
1
1
1
1
1
1
0.999993
0.999987
1
1.00002
1.00001
0.999999
0.999999
1.27885
1.19226
1.1297
1.08512
1.04734
1.01443
1
1
1
1
1
1
0.999997
0.999997
0.999647
0.997086
0.996017
0.99606
0.995545
2.79453
2.73358
2.66792
2.60128
2.52838
2.44867
2.36349
2.28248
2.21027
2.12844
2.02992
1.91575
1.79159
1.6713
1.66345
1.7232
1.74281
1.74764
1.71384
3
3
3
3
3
3
2.99999
2.99999
2.99997
2.99961
2.99632
2.98641
2.96756
2.93888
2.9321
2.94254
2.95091
2.96371
2.94597
3
3
3
2.99961
2.99906
2.99868
2.99869
2.99947
2.99994
2.9999
2.99982
2.99958
2.99935
2.99853
2.99888
2.99931
2.99997
3
2.99963
3
3
3
2.9994
2.99831
2.99829
2.99839
2.9997
2.99998
2.99996
2.99904
2.99861
2.99859
2.99927
3
3
3
3
3
3
3
3
3
3
2.99988
3
2.99999
3
2.99999
2.99948
2.99899
2.99923
2.99968
3
3
3
3
3
3
3
3
3
3
3
3
3
3
2.99999
3
2.99997
3
3
3
3
3
3
3
3
3
3
3
3
3
3
3
3
3
3
3
3
3
3
3
3
3
3
3
3
3
3
3
3
3
3
3
3
3
3
3
3
3
3
3
3
3
3
3
3
3
3
3
3
3
3
3
3
3
3
3
3
3
3
3
3
3
3
3
3
3
3
3
3
3
3
3
3
3
3
3
3
3
3
3
3
3
3
3
3
3
3
3
3
3
3
3
3
3
3
3
3
3
3
3
3
3
3
3
3
3
3
3
3
3
3
3
3
3
3
3
3
3
3
3
3
3
3
3
3
3
3
3
3
3
3
3
3
3
3
3
3
3
3
3
3
3
3
3
3
3
3
3
3
3
3
3
3
3
3
3
3
3
3
3
3
3
3
3
3
3
3
3
3
3
3
3
3
3
3
3
3
3
3
3
3
3
3
3
3
3
3
3
3
3
3
3
3
3
3
3
3
3
3
3
3
3
3
3
3
3
3
3
3
3
3
3
3
3
3
3
3
3
3
3
3
3
3
3
3
3
3
3
3
3
3
3
3
3
3
3
3
3
3
3
3
3
3
3
3
3
3
3
3
3
3
3
3
3
3
3
3
3
3
3
3
3
3
3
3
3
3
3
3
3
3
3
3
3
3
3
3
3
3
3
3
3
3
3
3
3
3
3
3
3
3
3
3
3
3
3
3
3
3
3
3
3
3
3
3
3
3
3
3
3
3
3
3
3
3
3
3
3
3
3
3
3
3
3
3
3
3
3
3
3
3
3
3
3
3
3
3
3
3
3
3
3
3
3
3
3
3
3
3
3
3
3
3
3
3
3
3
3
3
3
3
3
3
3
3
3
3
3
3
3
3
3
3
3
3
3
3
3
3
3
3
3
3
3
3
3
3
3
3
3
3
3
3
3
3
3
3
3
3
3
3
3
3
3
3
3
3
3
3
3
3
3
3
3
3
3
3
3
3
3
3
3
3
3
3
3
3
3
3
3
3
3
3
3
3
3
3
3
3
3
3
3
3
3
3
3
3
3
3
3
3
3
3
3
3
3
3
3
3
3
3
3
3
3
3
3
3
3
3
3
3
3
3
3
3
3
3
3
3
3
3
3
3
3
3
3
3
3
3
3
3
3
3
3
3
3
3
3
3
3
3
3
3
3
3
3
3
3
3
3
3
3
3
3
3
3
3
3
3
3
3
3
3
3
3
3
3
3
3
3
3
3
3
3
3
3
)
;

boundaryField
{
    leftWall
    {
        type            calculated;
        value           nonuniform List<scalar> 
50
(
2
2
2
2
2
1.02984
0.00638941
8.67002e-08
8.65823e-08
0.000914294
0.321386
0.676863
1.20415
1.00616
1.00051
1.20892
2.5939
2.99999
3
3
2.99999
2.99999
2.99999
3
3
3
3
3
3
3
3
3
3
3
3
3
3
3
3
3
3
3
3
3
3
3
3
3
3
3
)
;
    }
    rightWall
    {
        type            calculated;
        value           nonuniform List<scalar> 
50
(
1.76767
1.76755
1.58742
1.70347
1.05531
0.893717
0.762696
0.552421
0.297087
0.379694
0.867074
1.02879
0.999899
1
0.999999
0.995545
1.71384
2.94597
2.99963
3
3
3
3
3
3
3
3
3
3
3
3
3
3
3
3
3
3
3
3
3
3
3
3
3
3
3
3
3
3
3
)
;
    }
    lowerWall
    {
        type            calculated;
        value           nonuniform List<scalar> 
62
(
2
2
2
2
2
2
2
2
2
2
2
2
2
2
2
2
2
2
2
1.99991
1.99947
1.99944
1.99944
1.99944
1.99996
2
2
2
2.00015
1.76498
0.381036
0.0925463
0.114194
0.103094
0.0868545
1.87016
1.8702
1.57333
1.45405
0.626762
0.189617
0.177373
0.250034
1.87016
1.86576
1.89321
1.9131
1.93995
1.76803
1.76545
1.76098
1.77211
1.77577
1.77159
1.72453
1.69453
1.75246
1.72429
1.65716
1.73951
1.7773
1.76767
)
;
    }
    atmosphere
    {
        type            calculated;
        value           nonuniform List<scalar> 
46
(
3
3
3
3
3
3
3
3
3
3
3
3
3
3
3
3
3
3
3
3
3
3
3
3
3
3
3
3
3
3
3
3
3
3
3
3
3
3
3
3
3
3
3
3
3
3
)
;
    }
    defaultFaces
    {
        type            empty;
    }
}


// ************************************************************************* //
