/*--------------------------------*- C++ -*----------------------------------*\
  =========                 |
  \\      /  F ield         | OpenFOAM: The Open Source CFD Toolbox
   \\    /   O peration     | Website:  https://openfoam.org
    \\  /    A nd           | Version:  13
     \\/     M anipulation  |
\*---------------------------------------------------------------------------*/
FoamFile
{
    format      ascii;
    class       volScalarField;
    location    "2.75";
    object      alpha.mercury;
}
// * * * * * * * * * * * * * * * * * * * * * * * * * * * * * * * * * * * * * //

dimensions      [];

internalField   nonuniform List<scalar> 
2268
(
1
1
1
1
1
1
1
1
1
1
1
1
1
1
1
1
1
1
1
0.999907
0.999473
0.999442
0.999444
1
1
1
1
1
1
1
1
1
1
1
1
1
1
1
1
1
1
1
0.999983
0.999909
0.999868
0.999959
1
1
1
1
1
1
1
1
1
1
1
1
1
1
1
1
1
1
1
1
1
1
1
1
1
1
1
1
1
1
1
1
1
1
1
1
1
1
1
1
1
1
1
1
1
1
1
1
1
1
1
1
1
1
1
1
1
1
1
1
1
1
1
1
1
1
1
1
0.999999
0.514918
0.509964
0.515788
0.545619
0.594804
0.661147
0.740687
0.820423
0.884874
0.939747
0.98312
1
1
1
1
1
1
1
1
1
0.999999
0.999999
0.999811
0.00319468
0.00300751
0.00355345
0.00653385
0.0132534
0.0240988
0.0415542
0.0752138
0.137021
0.215854
0.310751
0.430473
0.562025
0.679941
0.776875
0.847288
0.896061
0.922881
0.933158
0.94085
0.93893
0.914932
0.881878
2.95455e-10
4.04826e-10
-8.28983e-10
4.26057e-07
3.44193e-14
1.66209e-19
-4.30541e-20
1.99647e-07
3.88579e-07
3.8756e-07
3.93339e-07
0.000133554
0.00749229
0.0287614
0.0616573
0.107643
0.157791
0.210458
0.261183
0.282795
0.273594
0.22732
0.186429
0.877962
0.877966
0.877802
0.877345
0.840224
0.655693
0.655495
0.661561
0.682287
0.685729
0.650292
0.635458
0.681216
0.752622
0.75265
0.752622
0.752595
0.752571
0.752575
0.877966
0.877961
0.847069
0.829258
0.826926
0.829461
0.824642
0.825275
0.825056
0.825231
0.776362
0.687729
0.752554
0.752491
0.752648
0.752627
0.752591
0.752593
0.752448
0.576687
0.571224
0.500798
0.426416
0.459242
0.520549
0.515121
0.510331
0.486435
0.587486
0.588318
0.607289
0.577206
0.592808
0.617885
0.627232
0.587591
0.544112
0.509804
0.482315
0.301691
0.183408
0.136263
0.0898778
0.0617369
0.0569883
0.0491444
0.0849991
0.0765872
0.205844
0.256757
0.250627
0.208735
0.165644
0.102789
0.107969
0.141193
0.220541
0.105002
0.0757076
0.0964501
0.112289
0.0604311
0.0355855
0.0345555
0.0319514
0.0313476
0.00595143
0.000639373
0.0467709
0.107169
0.0594703
0.00152264
3.26888e-24
-2.05968e-24
-6.52623e-25
-4.96759e-21
0.0520154
0.0760847
0.0778848
0.0820789
0.101875
0.0658456
0.0626043
0.0677462
0.0495554
0.0118664
0.001069
3.45161e-05
0.000117757
0.0011951
1.145e-07
1.27532e-06
3.17818e-07
8.19956e-08
2.32449e-12
0.0587852
0.042918
0.0413856
0.0491858
0.0913439
0.0886254
0.0798116
0.0802376
0.0246295
0.00768148
0.000535507
0.000109305
8.42539e-07
7.18982e-08
5.03161e-07
9.79664e-06
5.62556e-07
1.06853e-07
1.66115e-08
0.0254846
0.0272707
0.0223044
0.0138691
0.0221214
0.0878652
0.0880069
0.0352276
8.03351e-05
0.000516768
0.000489975
0.000109633
7.76975e-08
7.10925e-08
7.92426e-07
1.14065e-05
2.94752e-05
1.09925e-05
8.47449e-09
2.95462e-10
2.95455e-10
2.75144e-09
2.08947e-08
3.41604e-10
3.55931e-10
3.84645e-10
3.83641e-10
3.69119e-10
3.67212e-10
3.77248e-10
3.75199e-10
3.84807e-10
5.02793e-08
2.27074e-08
6.6697e-27
1.33394e-26
6.24477e-26
-4.50836e-27
-5.34025e-27
1.45065e-15
-1.03775e-06
-6.79462e-08
3.44679e-10
3.8014e-10
4.60613e-10
4.66631e-10
7.81025e-10
9.18452e-10
8.94498e-10
8.17466e-10
7.34295e-10
7.92925e-10
1.03113e-09
1.08035e-09
8.3248e-10
1.84045e-09
4.75837e-09
4.85704e-09
6.17031e-09
1.01502e-08
2.9379e-09
1.497e-09
1.38375e-07
2.97604e-07
1.00222e-07
3.93557e-10
4.46224e-10
5.62037e-10
6.88013e-10
8.69671e-10
9.86889e-10
1.07486e-09
1.08928e-09
1.08713e-09
1.04396e-09
9.89779e-10
8.93654e-10
7.12053e-10
6.40433e-10
6.59202e-10
7.15901e-10
1.29327e-09
2.34447e-09
1.21668e-09
1.15387e-09
8.34931e-07
1.16919e-06
6.26648e-07
4.40425e-10
4.85337e-10
5.66993e-10
6.31364e-10
7.07162e-10
7.89036e-10
8.65004e-10
9.23696e-10
9.78976e-10
1.05734e-09
1.13066e-09
1.18139e-09
1.17216e-09
1.17226e-09
1.22177e-09
1.35408e-09
1.72825e-09
2.75515e-09
3.29103e-09
2.45521e-09
2.43885e-09
1.1983e-07
5.79099e-08
4.64677e-10
5.05439e-10
5.56467e-10
6.23591e-10
7.17368e-10
8.86577e-10
1.03536e-09
1.15066e-09
1.28011e-09
1.47328e-09
1.65248e-09
1.75066e-09
1.81106e-09
1.82049e-09
1.82035e-09
2.11438e-09
3.16123e-09
4.52497e-09
4.09097e-09
4.07413e-09
2.58173e-09
3.27713e-07
4.43258e-06
4.67329e-10
4.8786e-10
5.15096e-10
6.1921e-10
7.92678e-10
9.99799e-10
1.09078e-09
1.16072e-09
1.23136e-09
1.32318e-09
1.40902e-09
1.45034e-09
1.42996e-09
1.34761e-09
1.48835e-09
2.67762e-09
4.52019e-09
4.69499e-09
4.39082e-09
1.41196e-08
2.35555e-09
7.16102e-07
8.37076e-06
4.64642e-10
4.41135e-10
3.83641e-10
4.37166e-10
5.22241e-10
5.52239e-10
5.21159e-10
5.20506e-10
5.71837e-10
6.8712e-10
8.13665e-10
9.34905e-10
1.07164e-09
1.2063e-09
1.41189e-09
1.69525e-09
2.69973e-09
3.84013e-09
3.66098e-09
2.56775e-09
2.49923e-07
3.04235e-07
5.84684e-10
4.62162e-10
4.33792e-10
3.28008e-10
2.40537e-10
2.2352e-10
1.80413e-10
1.39952e-10
1.39938e-10
1.62215e-10
2.47575e-10
3.79691e-10
5.48479e-10
7.56374e-10
9.34638e-10
1.02176e-09
1.38665e-09
3.96886e-09
6.63871e-09
6.70502e-09
2.68292e-09
4.14387e-10
4.16628e-10
6.25729e-10
4.40797e-10
4.35127e-10
3.21666e-10
1.71813e-10
9.73157e-11
5.69067e-11
3.68275e-11
3.49234e-11
4.3833e-11
7.85672e-11
1.09011e-10
1.24593e-10
1.30525e-10
1.32068e-10
1.50275e-10
1.8871e-10
1.75079e-10
2.13989e-10
2.06503e-10
2.47414e-10
4.62306e-10
9.76763e-10
2.11769e-09
3.41953e-10
3.90923e-10
3.10572e-10
1.77961e-10
7.87929e-11
4.66603e-11
2.76845e-11
2.49652e-11
2.28394e-11
2.25048e-11
2.18429e-11
1.98416e-11
1.73172e-11
1.61033e-11
1.53265e-11
1.52522e-11
1.5267e-11
2.70467e-11
1.12709e-10
3.80378e-10
7.3996e-10
1.31109e-09
2.29792e-09
2.6516e-10
3.20727e-10
2.91477e-10
1.58321e-10
9.46962e-11
7.21706e-11
5.22148e-11
3.35555e-11
2.32202e-11
1.71535e-11
1.34702e-11
1.08951e-11
9.34848e-12
8.373e-12
7.71381e-12
7.6357e-12
1.09499e-11
4.91012e-11
1.47118e-10
2.65523e-10
5.85377e-10
9.59992e-10
1.44026e-09
2.36963e-10
3.09512e-10
2.51496e-10
1.64388e-10
1.36592e-10
1.19746e-10
9.14031e-11
6.46318e-11
4.07522e-11
2.55412e-11
1.62644e-11
1.13313e-11
8.32203e-12
5.92979e-12
4.39918e-12
3.85073e-12
3.78128e-12
4.60368e-12
6.20937e-12
8.81803e-12
1.84481e-11
2.43328e-11
2.30839e-11
2.42139e-10
3.12789e-10
2.8142e-10
2.05457e-10
1.9275e-10
1.82305e-10
1.53704e-10
1.20144e-10
7.88975e-11
4.32625e-11
2.35647e-11
1.44657e-11
9.29582e-12
6.01243e-12
3.8112e-12
2.97445e-12
2.23837e-12
1.80252e-12
1.58827e-12
1.58586e-12
1.94291e-12
2.01669e-12
1.84237e-12
2.4662e-10
3.30757e-10
3.25448e-10
2.79382e-10
2.58381e-10
2.3233e-10
1.92765e-10
1.61531e-10
1.11068e-10
7.29121e-11
3.59836e-11
1.86025e-11
1.117e-11
7.15156e-12
4.46669e-12
2.98227e-12
2.05922e-12
1.44532e-12
1.14497e-12
1.07832e-12
1.2199e-12
1.35376e-12
1.66383e-12
2.39415e-10
3.51765e-10
3.76343e-10
3.45289e-10
3.03964e-10
2.68097e-10
2.15176e-10
1.71601e-10
1.33589e-10
7.95489e-11
4.45299e-11
2.62526e-11
1.52271e-11
9.69643e-12
6.17977e-12
3.57264e-12
1.96312e-12
1.32534e-12
9.77471e-13
7.7014e-13
6.95827e-13
7.65703e-13
1.74244e-12
2.23413e-10
3.49526e-10
3.83966e-10
3.7169e-10
3.23168e-10
2.83095e-10
2.21833e-10
1.71059e-10
1.25846e-10
8.4221e-11
4.98899e-11
2.86523e-11
1.87333e-11
1.14831e-11
7.07022e-12
4.59058e-12
2.45054e-12
1.34328e-12
9.60176e-13
7.12994e-13
5.57394e-13
4.8751e-13
1.03927e-12
1.98918e-10
3.32621e-10
3.79677e-10
3.63141e-10
3.1544e-10
2.65952e-10
2.06333e-10
1.53689e-10
1.1078e-10
7.73698e-11
5.13167e-11
3.11086e-11
1.86234e-11
1.15259e-11
7.73559e-12
4.74413e-12
2.73534e-12
1.56834e-12
9.3208e-13
7.15022e-13
5.10999e-13
3.80868e-13
3.66988e-13
1.71231e-10
2.99444e-10
3.46867e-10
3.27188e-10
2.78581e-10
2.24239e-10
1.6309e-10
1.25611e-10
9.03945e-11
6.375e-11
4.15072e-11
2.69906e-11
1.97055e-11
1.1187e-11
7.77734e-12
4.26883e-12
2.62382e-12
1.62417e-12
9.58856e-13
7.05849e-13
5.17999e-13
3.37837e-13
2.54411e-13
1.41442e-10
2.5388e-10
2.95789e-10
2.73316e-10
2.30142e-10
1.84355e-10
1.23157e-10
9.54e-11
7.29831e-11
4.92214e-11
3.10689e-11
2.06152e-11
1.40443e-11
9.20894e-12
6.2109e-12
4.14301e-12
2.48309e-12
1.58477e-12
9.62968e-13
6.64137e-13
4.77786e-13
3.36578e-13
2.30687e-13
1.14674e-10
2.08598e-10
2.47529e-10
2.21695e-10
1.8337e-10
1.45633e-10
1.02488e-10
7.41168e-11
5.33335e-11
3.25143e-11
1.97939e-11
1.36591e-11
9.3928e-12
6.70668e-12
4.53645e-12
3.17557e-12
2.11938e-12
1.43829e-12
8.84881e-13
6.0921e-13
4.44598e-13
2.90832e-13
2.17511e-13
8.99872e-11
1.62485e-10
1.93931e-10
1.72727e-10
1.40617e-10
1.10334e-10
7.8475e-11
5.56868e-11
3.89792e-11
2.132e-11
1.21064e-11
8.44086e-12
6.08399e-12
4.40697e-12
3.16709e-12
2.27991e-12
1.57099e-12
1.10952e-12
7.72992e-13
5.34162e-13
3.68014e-13
2.60538e-13
1.82429e-13
7.1664e-11
1.21428e-10
1.43743e-10
1.27083e-10
1.02085e-10
7.834e-11
5.60561e-11
3.95329e-11
2.70429e-11
1.45955e-11
8.41191e-12
5.21455e-12
3.91834e-12
2.87272e-12
2.11488e-12
1.52853e-12
1.09078e-12
8.02569e-13
5.82589e-13
4.14571e-13
2.93163e-13
1.95068e-13
1.46705e-13
5.11508e-11
8.44311e-11
9.86272e-11
8.70386e-11
7.028e-11
5.28626e-11
3.79132e-11
2.66756e-11
1.81346e-11
1.04396e-11
5.42496e-12
3.77856e-12
2.61577e-12
1.86004e-12
1.34212e-12
9.63315e-13
6.99923e-13
5.32804e-13
3.96518e-13
2.88797e-13
2.01785e-13
1.44982e-13
1.03058e-13
3.70382e-11
5.85197e-11
6.40803e-11
5.53194e-11
4.44641e-11
3.37496e-11
2.48397e-11
1.7439e-11
1.17363e-11
7.11438e-12
4.22977e-12
2.69497e-12
1.75346e-12
1.18218e-12
8.14955e-13
5.70902e-13
4.14408e-13
3.20353e-13
2.40907e-13
1.79399e-13
1.29088e-13
8.6423e-14
6.5705e-14
2.38635e-11
3.82216e-11
4.01133e-11
3.42351e-11
2.70839e-11
2.04648e-11
1.51613e-11
1.08575e-11
7.38869e-12
4.76578e-12
3.00141e-12
1.86826e-12
1.17221e-12
7.44622e-13
4.79113e-13
3.24037e-13
2.33016e-13
1.74513e-13
1.30816e-13
9.75324e-14
6.79374e-14
4.97893e-14
3.58261e-14
1.69513e-11
2.48734e-11
2.46216e-11
2.06324e-11
1.60728e-11
1.21805e-11
8.94815e-12
6.42201e-12
4.45602e-12
2.98463e-12
1.95183e-12
1.2355e-12
7.58108e-13
4.60794e-13
2.75085e-13
1.75847e-13
1.1912e-13
8.50814e-14
6.16705e-14
4.51363e-14
3.31378e-14
2.26793e-14
1.68756e-14
1.03124e-11
1.50845e-11
1.42849e-11
1.17016e-11
9.18824e-12
6.9372e-12
5.10892e-12
3.65828e-12
2.56716e-12
1.78222e-12
1.20125e-12
7.65807e-13
4.74133e-13
2.82591e-13
1.61965e-13
9.52774e-14
5.83964e-14
3.90981e-14
2.62923e-14
1.88024e-14
1.33976e-14
9.49237e-15
6.79499e-15
6.71575e-12
9.22712e-12
8.2901e-12
6.44506e-12
4.85216e-12
3.61702e-12
2.63395e-12
1.88439e-12
1.35544e-12
9.59317e-13
6.61215e-13
4.29373e-13
2.66758e-13
1.57846e-13
8.87392e-14
4.94526e-14
2.82897e-14
1.72707e-14
1.05804e-14
7.02843e-15
5.01368e-15
3.16786e-15
2.36733e-15
4.11639e-12
5.31026e-12
4.49958e-12
3.38399e-12
2.49367e-12
1.78389e-12
1.26417e-12
8.80332e-13
6.25875e-13
4.46932e-13
3.11357e-13
2.07478e-13
1.30542e-13
7.85624e-14
4.4773e-14
2.41104e-14
1.30813e-14
7.26724e-15
3.99426e-15
2.45334e-15
1.54435e-15
9.83453e-16
6.86176e-16
2.71232e-12
3.04545e-12
2.41755e-12
1.72129e-12
1.1846e-12
8.05332e-13
5.47658e-13
3.75115e-13
2.62714e-13
1.86751e-13
1.30349e-13
8.66018e-14
5.53972e-14
3.35196e-14
1.93561e-14
1.05547e-14
5.44434e-15
2.82932e-15
1.41341e-15
7.76015e-16
4.69752e-16
2.62855e-16
1.83531e-16
1.43808e-12
1.6389e-12
1.21144e-12
8.05531e-13
5.17515e-13
3.33797e-13
2.16206e-13
1.43098e-13
9.67292e-14
6.77265e-14
4.70957e-14
3.13233e-14
1.99046e-14
1.23025e-14
7.18114e-15
3.85417e-15
1.96755e-15
9.80193e-16
4.58505e-16
2.35525e-16
1.19791e-16
6.82671e-17
4.34518e-17
8.45973e-13
8.4852e-13
5.68369e-13
3.50025e-13
2.09178e-13
1.26157e-13
7.70994e-14
4.85518e-14
3.18906e-14
2.13369e-14
1.44107e-14
9.77951e-15
6.34261e-15
3.88716e-15
2.21909e-15
1.22365e-15
6.0495e-16
3.00741e-16
1.29653e-16
6.01909e-17
3.09454e-17
1.53223e-17
9.11338e-18
3.99123e-13
3.62169e-13
2.39066e-13
1.35926e-13
7.489e-14
4.16976e-14
2.39484e-14
1.43969e-14
9.03185e-15
6.00439e-15
4.08321e-15
2.7303e-15
1.76435e-15
1.0775e-15
6.08483e-16
3.2464e-16
1.54178e-16
7.45482e-17
3.07602e-17
1.35038e-17
5.86403e-18
3.02583e-18
1.66121e-18
1.99064e-13
1.55545e-13
8.25819e-14
4.38129e-14
2.25185e-14
1.19823e-14
6.59491e-15
3.8847e-15
2.39778e-15
1.56917e-15
1.03654e-15
6.973e-16
4.37717e-16
2.60359e-16
1.39823e-16
7.27993e-17
3.47803e-17
1.5567e-17
6.42112e-18
2.55409e-18
1.12515e-18
5.0276e-19
2.53486e-19
7.38589e-14
4.75464e-14
2.71886e-14
1.3492e-14
6.52327e-15
3.15667e-15
1.67929e-15
9.49694e-16
5.73154e-16
3.64554e-16
2.39798e-16
1.53847e-16
9.415e-17
5.43104e-17
2.92664e-17
1.45166e-17
6.63993e-18
2.81722e-18
1.08549e-18
4.06502e-19
1.67069e-19
7.32302e-20
3.34782e-20
2.6108e-14
1.60327e-14
8.09198e-15
3.81879e-15
1.73715e-15
8.08067e-16
4.11789e-16
2.25939e-16
1.3116e-16
7.96819e-17
4.95483e-17
3.11799e-17
1.85022e-17
1.05201e-17
5.55033e-18
2.67061e-18
1.16217e-18
4.56225e-19
1.66279e-19
5.72399e-20
2.16656e-20
8.73743e-21
3.70366e-21
6.14507e-15
4.052e-15
1.96003e-15
8.90889e-16
3.96686e-16
1.81875e-16
9.01174e-17
4.79518e-17
2.68757e-17
1.58123e-17
9.52081e-18
5.89087e-18
3.52526e-18
1.9386e-18
9.77916e-19
4.38323e-19
1.77721e-19
6.4793e-20
2.21268e-20
7.15274e-21
2.47443e-21
9.08828e-22
3.37161e-22
1.42747e-15
7.48458e-16
3.56026e-16
1.66397e-16
7.72869e-17
3.63277e-17
1.75138e-17
9.20034e-18
5.17543e-18
3.05086e-18
1.83505e-18
1.09787e-18
6.20136e-19
3.22281e-19
1.52035e-19
6.3958e-20
2.3826e-20
7.92727e-21
2.45805e-21
7.58484e-22
2.34819e-22
7.7799e-23
2.72551e-23
1.87584e-16
9.20264e-17
4.88774e-17
2.52828e-17
1.31881e-17
6.51386e-18
3.16348e-18
1.65844e-18
9.3473e-19
5.53634e-19
3.24425e-19
1.87342e-19
1.02273e-19
5.00838e-20
2.19527e-20
8.41251e-21
2.83262e-21
8.56819e-22
2.42654e-22
6.77705e-23
1.9291e-23
5.58753e-24
1.84968e-24
9.54804e-18
5.77468e-18
4.5687e-18
3.22842e-18
1.8804e-18
9.87411e-19
5.16268e-19
2.91997e-19
1.7103e-19
1.01333e-19
5.85764e-20
3.21375e-20
1.62039e-20
7.33682e-21
2.90158e-21
9.981e-22
3.01731e-22
8.16238e-23
2.04867e-23
5.01902e-24
1.23172e-24
3.24988e-25
2.63503e-26
1.9013e-20
8.19883e-20
2.68362e-19
3.4316e-19
2.48938e-19
1.47431e-19
8.30122e-20
4.92198e-20
3.03099e-20
1.81831e-20
1.03104e-20
5.19569e-21
2.4217e-21
9.96579e-22
3.52279e-22
1.06249e-22
2.70163e-23
6.38878e-24
1.44874e-24
3.10359e-25
7.31144e-26
4.76514e-27
1.79764e-28
9.53552e-27
8.44536e-23
8.52352e-21
3.07358e-20
2.8432e-20
1.92787e-20
1.20228e-20
7.7493e-21
5.0212e-21
3.13557e-21
1.77203e-21
8.57116e-22
3.72701e-22
1.3502e-22
3.9318e-23
9.86964e-24
2.12764e-24
4.29429e-25
8.52327e-26
1.58347e-26
2.39073e-27
4.73672e-29
3.93812e-29
0.0294712
0.0429005
0.0461916
0.0413823
-2.26215e-10
-8.65719e-23
1.15573e-08
1.59632e-08
5.85342e-08
6.7216e-06
-1.74138e-07
4.1004e-05
5.04704e-08
2.59914e-05
1.99459e-06
0.000366246
7.08327e-08
1.61116e-05
0.000167098
0.000203669
1.10042e-05
6.20977e-06
2.08471e-10
2.11419e-10
5.8948e-10
4.10846e-10
4.122e-10
5.14476e-10
1.09826e-09
1.38507e-09
2.38759e-09
2.66572e-09
3.03954e-09
3.37118e-09
4.67618e-09
6.12545e-09
3.00273e-09
3.1207e-09
2.81086e-09
4.17925e-09
1.54086e-09
1.46258e-09
1.87263e-09
5.1246e-09
1.50667e-11
1.09355e-11
1.12319e-11
1.95716e-11
1.71681e-12
1.81886e-12
2.34477e-12
2.94747e-12
2.67923e-12
4.32346e-12
6.6761e-12
8.92154e-12
3.60606e-12
6.93263e-12
1.18493e-11
2.12034e-11
3.33345e-12
6.2358e-12
1.28002e-11
2.00769e-11
1.10713e-12
3.91912e-12
8.02629e-12
1.49903e-11
2.19364e-13
5.77237e-13
2.12286e-12
6.29817e-12
1.68198e-13
1.47962e-13
1.56563e-13
8.67334e-13
1.59782e-13
1.35607e-13
1.15697e-13
9.87822e-14
1.42199e-13
1.22458e-13
1.09129e-13
9.73237e-14
1.13736e-13
9.52579e-14
8.44832e-14
7.95735e-14
8.31538e-14
7.01936e-14
6.00779e-14
5.31735e-14
5.37605e-14
4.40322e-14
3.86575e-14
3.33298e-14
3.03396e-14
2.48331e-14
2.12622e-14
1.86877e-14
1.42445e-14
1.14479e-14
1.00386e-14
8.88865e-15
5.79753e-15
4.74484e-15
4.11573e-15
3.49431e-15
1.96372e-15
1.50573e-15
1.31203e-15
1.18709e-15
6.0111e-16
4.73349e-16
4.05825e-16
3.35808e-16
1.49114e-16
1.18006e-16
9.71613e-17
8.51362e-17
3.44524e-17
2.72454e-17
2.28982e-17
1.87257e-17
6.89127e-18
5.12486e-18
4.27036e-18
3.47376e-18
1.22624e-18
9.25695e-19
6.9941e-19
5.35148e-19
1.75239e-19
1.28612e-19
9.81732e-20
7.05148e-20
2.25089e-20
1.57151e-20
1.10248e-20
7.32354e-21
2.31582e-21
1.51794e-21
1.04694e-21
6.08768e-22
1.99224e-22
1.21132e-22
8.50816e-23
3.44566e-23
1.44807e-23
5.1168e-24
2.01527e-24
3.68984e-25
1.97586e-25
5.00938e-26
1.75277e-26
5.53993e-27
2.88278e-28
5.50452e-28
1.29765e-27
4.04146e-27
1.82669e-28
4.38473e-28
1.52718e-27
4.87821e-27
1.0145e-28
3.46968e-28
1.18318e-27
3.5815e-27
0.00348665
0.0060592
0.0169287
0.00818906
0.00629959
0.0353578
0.0347813
7.26263e-05
3.08612e-05
2.68454e-05
8.89298e-05
0.000119001
4.54613e-05
2.5044e-05
2.41811e-06
2.3817e-06
0.000683179
0.00179715
3.66279e-09
0.000258901
0.00228187
0.0155284
0.00376406
0.00408625
0.0272574
0.013026
0.000127789
3.98844e-05
2.68358e-05
2.68794e-05
6.51691e-05
6.49563e-05
4.86791e-05
5.40173e-06
2.09296e-05
0.00173078
0.00493763
3.65872e-09
0.000166008
0.00181851
0.00364039
0.00102485
0.00565089
0.00600283
0.00134851
0.00015103
0.000151045
7.07027e-05
6.39755e-07
2.60006e-06
5.85088e-06
1.3297e-07
1.45706e-05
8.80981e-05
0.00216316
0.00624724
0.00608796
0.000588835
0.000269191
1.43736e-05
0.000405982
0.000999223
1.31914e-06
8.63267e-07
9.62416e-05
0.000148465
5.53622e-05
6.36262e-07
6.34016e-07
2.28585e-07
4.87004e-07
3.20179e-05
7.17446e-05
0.000388438
0.00348773
0.00443396
0.000274235
7.00046e-05
6.22359e-06
2.11669e-05
8.5933e-07
7.94417e-07
7.53924e-07
1.05641e-05
1.58826e-05
6.50378e-06
3.21329e-06
1.42349e-06
1.21651e-07
4.22172e-08
5.48812e-06
2.31698e-05
2.27331e-05
4.45198e-05
1.10156e-05
1.50558e-10
1.59429e-10
2.94272e-07
1.90707e-07
9.28326e-07
9.61093e-07
4.63317e-07
-6.78355e-12
1.13145e-24
-1.8666e-24
2.64247e-07
2.24119e-07
4.2923e-08
4.22303e-08
4.17965e-08
4.1809e-08
4.17965e-08
1.87302e-06
1.11808e-05
1.63475e-09
1.69141e-08
9.34748e-08
1.93339e-07
4.32655e-07
5.08154e-07
2.84246e-07
9.08057e-08
3.43336e-08
1.06629e-08
1.43926e-08
3.5699e-09
1.03908e-06
3.26724e-06
4.45512e-07
4.17955e-08
2.19277e-06
1.59807e-05
1.10628e-05
8.91982e-09
7.76931e-08
1.34568e-07
1.58594e-07
1.36223e-07
1.27943e-07
5.21032e-08
3.71048e-08
3.53446e-08
1.45274e-08
4.56466e-09
3.58252e-09
3.79677e-07
9.49628e-07
7.74955e-05
0.00081531
0.00187683
0.00189587
0.000707138
9.74701e-09
1.24398e-08
2.14843e-08
2.75257e-08
2.61251e-08
2.61584e-08
3.28915e-07
2.68737e-07
4.19256e-08
3.17035e-06
1.4393e-06
2.65241e-09
2.94828e-09
1.91649e-06
0.000988793
0.00272934
0.00272955
0.00272934
0.00197313
8.05937e-09
1.06263e-08
1.52291e-08
2.44143e-08
3.83198e-08
2.00316e-07
4.98971e-07
1.48561e-06
2.79942e-06
3.01278e-06
2.38142e-05
5.30173e-05
5.43051e-05
8.14433e-05
0.000936441
0.00185169
0.00222654
0.00190183
0.00129788
8.21455e-09
1.11438e-08
1.15113e-08
4.73796e-09
1.724e-10
4.85084e-08
1.04498e-10
8.2666e-07
6.40694e-06
8.27384e-06
1.80167e-05
3.42215e-05
4.6675e-05
8.89608e-05
0.000113119
4.10158e-05
3.20741e-05
6.55191e-15
4.65644e-05
4.99937e-12
1.35058e-12
1.35107e-12
1.97026e-12
1.79536e-10
1.70557e-10
1.04855e-10
1.84462e-07
1.47977e-06
3.0374e-06
6.6286e-06
8.74489e-06
9.38126e-06
1.44177e-05
4.8015e-07
2.04374e-09
6.55189e-15
5.66053e-12
5.18042e-07
4.25441e-12
1.51825e-11
8.80788e-11
2.9147e-10
7.84997e-10
1.74777e-09
3.20872e-09
7.21535e-09
1.36144e-07
3.08437e-07
7.99589e-08
1.34838e-06
6.6995e-07
8.35747e-10
1.52876e-09
2.80682e-09
3.72392e-09
2.27036e-09
4.98739e-08
1.73865e-11
7.02512e-11
2.4104e-10
5.35472e-10
1.15817e-09
2.79854e-09
7.58331e-09
1.14202e-08
1.3281e-08
1.97904e-08
2.46434e-08
1.43732e-09
1.43635e-09
1.69345e-09
3.7091e-09
8.56756e-09
9.13055e-09
4.19248e-09
8.9906e-10
3.61829e-11
9.40664e-11
2.26519e-10
4.7043e-10
8.57859e-10
1.4215e-09
2.54741e-09
4.01911e-09
3.84929e-09
3.5564e-09
5.94923e-09
1.44414e-09
1.66916e-09
2.52259e-09
4.67301e-09
8.04848e-09
8.00237e-09
2.84958e-09
8.74552e-10
3.19299e-11
7.01567e-11
1.40235e-10
2.60708e-10
4.39384e-10
8.2176e-10
1.52448e-09
3.38518e-09
3.66903e-09
3.20748e-09
2.37213e-09
1.36938e-09
1.36409e-09
1.82506e-09
3.08954e-09
4.70083e-09
3.98451e-09
1.45859e-09
7.38494e-10
2.59963e-11
5.53712e-11
1.08409e-10
1.96734e-10
3.14647e-10
4.60782e-10
6.64924e-10
1.61702e-09
2.45634e-09
2.61716e-09
1.90631e-09
1.08017e-09
9.29061e-10
9.30542e-10
1.34329e-09
1.67527e-09
1.41721e-09
4.78851e-10
3.30534e-10
1.68503e-11
3.58471e-11
6.88336e-11
1.23049e-10
2.11629e-10
3.38723e-10
4.7569e-10
6.11456e-10
9.60406e-10
1.14735e-09
1.13574e-09
7.44795e-10
5.33996e-10
4.35436e-10
4.107e-10
4.43218e-10
3.30428e-10
1.05439e-10
6.16538e-11
6.78003e-12
1.74504e-11
3.18468e-11
5.31918e-11
9.96696e-11
2.02277e-10
2.7291e-10
3.28464e-10
3.83757e-10
4.32275e-10
4.46965e-10
3.58847e-10
2.37893e-10
1.80319e-10
1.12083e-10
7.69252e-11
4.6375e-11
1.19206e-11
2.61101e-12
1.35204e-12
6.79597e-12
1.63157e-11
2.98596e-11
4.96065e-11
7.59101e-11
1.05555e-10
1.35078e-10
1.61042e-10
1.79181e-10
1.72697e-10
1.47139e-10
1.03076e-10
6.28276e-11
2.32092e-11
1.07872e-11
4.22649e-12
4.19324e-13
3.90128e-14
2.11304e-13
1.16916e-12
4.53188e-12
9.71501e-12
1.68712e-11
2.58527e-11
3.585e-11
4.62122e-11
5.74216e-11
6.69756e-11
6.92462e-11
5.82995e-11
3.77385e-11
1.74301e-11
4.66523e-12
1.14121e-12
7.22759e-14
1.10006e-14
1.51209e-15
8.28077e-14
2.07278e-13
6.89611e-13
1.92961e-12
4.18006e-12
6.71307e-12
9.57792e-12
1.25175e-11
1.5906e-11
1.98092e-11
2.20129e-11
1.9084e-11
1.16257e-11
4.57356e-12
9.52228e-13
1.38505e-13
8.58386e-15
1.46637e-15
1.15973e-16
4.89792e-14
6.10172e-14
1.2458e-13
2.94676e-13
6.82893e-13
1.36185e-12
2.08734e-12
2.75061e-12
3.58582e-12
4.6779e-12
5.45401e-12
5.06952e-12
2.99018e-12
1.04836e-12
1.79485e-13
2.02396e-14
1.31488e-15
1.77577e-16
3.03943e-17
2.84307e-14
2.62924e-14
3.18178e-14
4.84409e-14
8.50215e-14
1.6181e-13
2.96193e-13
4.32059e-13
6.08988e-13
8.48227e-13
1.04326e-12
1.05689e-12
6.40622e-13
2.11259e-13
2.97782e-14
1.94342e-15
1.81406e-16
5.39275e-17
2.10905e-17
1.45265e-14
1.219e-14
1.10947e-14
1.08989e-14
1.26892e-14
1.87941e-14
3.41617e-14
5.23863e-14
8.02514e-14
1.19937e-13
1.58847e-13
1.72316e-13
1.13959e-13
3.83034e-14
5.26017e-15
2.19342e-16
4.3529e-17
3.20034e-17
1.51288e-17
6.67651e-15
5.08698e-15
4.03039e-15
3.31989e-15
2.85985e-15
2.75305e-15
3.32218e-15
4.57699e-15
7.53375e-15
1.26633e-14
1.81905e-14
2.10969e-14
1.56736e-14
5.66988e-15
7.29076e-16
3.57378e-17
1.78834e-17
2.15263e-17
1.03428e-17
2.53739e-15
1.89546e-15
1.40744e-15
1.04354e-15
7.69396e-16
5.75395e-16
4.39336e-16
3.98946e-16
6.34687e-16
1.14543e-15
1.804e-15
2.23607e-15
1.87851e-15
7.6993e-16
8.42536e-17
7.70791e-18
9.67765e-18
1.33018e-17
7.41458e-18
8.46732e-16
5.83878e-16
4.23177e-16
2.96704e-16
2.11373e-16
1.52057e-16
8.1078e-17
4.52732e-17
5.47415e-17
9.38379e-17
1.55623e-16
2.06281e-16
1.7779e-16
5.74651e-17
7.75883e-18
3.42095e-18
5.2066e-18
9.7491e-18
4.83446e-18
2.30075e-16
1.57144e-16
1.03482e-16
6.78868e-17
4.81148e-17
2.78446e-17
1.28776e-17
7.7634e-18
6.50528e-18
7.98336e-18
1.25563e-17
1.50111e-17
3.00966e-18
8.0909e-19
8.64362e-19
1.48826e-18
2.88876e-18
6.30323e-18
3.20307e-18
5.68779e-17
3.61682e-17
2.18641e-17
1.42239e-17
8.92505e-18
3.22209e-18
1.10837e-18
8.43914e-19
8.21194e-19
8.23376e-19
8.96629e-19
1.87207e-19
1.15824e-19
1.67965e-19
3.63563e-19
8.34714e-19
1.85903e-18
4.54955e-18
1.96308e-18
1.16654e-17
6.76981e-18
3.8795e-18
2.50412e-18
9.49674e-19
1.85928e-19
5.09046e-20
5.91533e-20
7.51805e-20
8.07266e-20
3.12097e-20
3.56649e-20
6.57761e-20
1.33459e-19
2.75037e-19
6.15583e-19
1.49736e-18
2.78478e-18
1.18187e-18
2.04585e-18
1.12128e-18
6.88027e-19
2.66568e-19
5.55171e-20
4.58732e-21
2.08195e-21
3.96547e-21
7.59335e-21
7.48344e-21
1.44878e-20
3.09516e-20
6.48116e-20
1.29484e-19
2.45287e-19
5.29105e-19
1.18313e-18
1.92952e-18
6.70553e-19
2.90915e-19
1.62481e-19
7.25391e-20
1.44165e-20
1.04375e-21
2.42299e-22
4.19066e-22
1.0799e-21
2.48123e-21
6.07229e-21
1.43804e-20
3.17713e-20
6.56115e-20
1.26675e-19
2.25689e-19
4.61825e-19
9.33375e-19
1.11535e-18
3.76996e-19
3.5589e-20
1.86545e-20
4.42254e-21
3.08641e-22
6.78603e-23
1.25946e-22
3.39479e-22
9.28875e-22
2.43901e-21
6.11728e-21
1.46222e-20
3.24141e-20
6.57355e-20
1.20063e-19
2.09288e-19
4.14286e-19
6.91554e-19
7.4022e-19
1.95297e-19
3.86871e-21
9.60127e-22
9.33049e-23
1.84909e-23
3.70166e-23
1.0879e-22
3.24974e-22
9.09976e-22
2.40349e-21
5.98875e-21
1.4211e-20
3.11657e-20
6.16476e-20
1.11602e-19
1.98019e-19
3.4731e-19
5.09117e-19
3.89621e-19
1.01344e-19
2.55593e-22
2.68295e-23
4.0345e-24
9.69225e-24
3.19855e-23
1.04147e-22
3.09077e-22
8.67713e-22
2.30923e-21
5.75453e-21
1.36294e-20
2.97103e-20
5.82893e-20
1.04202e-19
1.73969e-19
2.65462e-19
3.44404e-19
2.45343e-19
4.73509e-20
3.77937e-24
6.74837e-25
2.12859e-24
8.44678e-24
2.91978e-23
9.44388e-23
2.80859e-22
7.84822e-22
2.06305e-21
5.14668e-21
1.21559e-20
2.61424e-20
5.07603e-20
8.97822e-20
1.42123e-19
1.98169e-19
2.14073e-19
1.12982e-19
2.3758e-20
9.42241e-26
4.16633e-25
1.88021e-24
7.31459e-24
2.51995e-23
7.90124e-23
2.34863e-22
6.47812e-22
1.6978e-21
4.22473e-21
9.8548e-21
2.11997e-20
4.06912e-20
7.0185e-20
1.06277e-19
1.32822e-19
1.13816e-19
5.94498e-20
1.15064e-20
6.35065e-26
3.58917e-25
1.54163e-24
5.7108e-24
1.90839e-23
5.9042e-23
1.72453e-22
4.73686e-22
1.24195e-21
3.10108e-21
7.25843e-21
1.53917e-20
2.91515e-20
4.99249e-20
6.8256e-20
7.99281e-20
5.65577e-20
2.23586e-20
5.76852e-21
5.65079e-26
2.74563e-25
1.06494e-24
3.62149e-24
1.16187e-23
3.48653e-23
1.02115e-22
2.88793e-22
7.66417e-22
1.93188e-21
4.5381e-21
9.83659e-21
1.9202e-20
3.0946e-20
3.86855e-20
4.12602e-20
2.30164e-20
9.73757e-21
3.01755e-21
3.75288e-26
1.54237e-25
5.38975e-25
1.71224e-24
5.3882e-24
1.66321e-23
4.95308e-23
1.42501e-22
3.91306e-22
1.03227e-21
2.50458e-21
5.44744e-21
1.0294e-20
1.69581e-20
1.97243e-20
1.75397e-20
7.59277e-21
3.66678e-21
9.59187e-22
1.37002e-26
4.64872e-26
1.42587e-25
4.26247e-25
1.50523e-24
5.0664e-24
1.67577e-23
5.15139e-23
1.51181e-22
4.15059e-22
1.05006e-21
2.387e-21
4.54154e-21
7.13608e-21
7.42174e-21
5.05915e-21
2.08114e-21
6.73009e-22
5.18628e-23
)
;

boundaryField
{
    leftWall
    {
        type            alphaContactAngle;
        contactAngleProperties 
        {
            air             
            {
                theta0          90;
            }
            water           
            {
                theta0          90;
            }
            oil             
            {
                theta0          90;
            }
        }
        value           nonuniform List<scalar> 
50
(
1
1
1
1
1
0.514918
0.00319468
2.95455e-10
2.95462e-10
3.44679e-10
3.93557e-10
4.40425e-10
4.64677e-10
4.67329e-10
4.64642e-10
4.62162e-10
4.40797e-10
3.41953e-10
2.6516e-10
2.36963e-10
2.42139e-10
2.4662e-10
2.39415e-10
2.23413e-10
1.98918e-10
1.71231e-10
1.41442e-10
1.14674e-10
8.99872e-11
7.1664e-11
5.11508e-11
3.70382e-11
2.38635e-11
1.69513e-11
1.03124e-11
6.71575e-12
4.11639e-12
2.71232e-12
1.43808e-12
8.45973e-13
3.99123e-13
1.99064e-13
7.38589e-14
2.6108e-14
6.14507e-15
1.42747e-15
1.87584e-16
9.54804e-18
1.9013e-20
9.53552e-27
)
;
    }
    rightWall
    {
        type            alphaContactAngle;
        contactAngleProperties 
        {
            air             
            {
                theta0          90;
            }
            water           
            {
                theta0          90;
            }
            oil             
            {
                theta0          90;
            }
        }
        value           nonuniform List<scalar> 
50
(
0.752575
0.752448
0.509804
0.220541
-4.96759e-21
2.32449e-12
1.66115e-08
8.47449e-09
3.66279e-09
3.65872e-09
0.00608796
0.00443396
1.10156e-05
1.11808e-05
1.10628e-05
0.000707138
0.00197313
0.00129788
4.65644e-05
5.18042e-07
4.98739e-08
8.9906e-10
8.74552e-10
7.38494e-10
3.30534e-10
6.16538e-11
2.61101e-12
3.90128e-14
1.51209e-15
1.15973e-16
3.03943e-17
2.10905e-17
1.51288e-17
1.03428e-17
7.41458e-18
4.83446e-18
3.20307e-18
1.96308e-18
1.18187e-18
6.70553e-19
3.76996e-19
1.95297e-19
1.01344e-19
4.73509e-20
2.3758e-20
1.15064e-20
5.76852e-21
3.01755e-21
9.59187e-22
5.18628e-23
)
;
    }
    lowerWall
    {
        type            alphaContactAngle;
        contactAngleProperties 
        {
            air             
            {
                theta0          90;
            }
            water           
            {
                theta0          90;
            }
            oil             
            {
                theta0          90;
            }
        }
        value           nonuniform List<scalar> 
62
(
1
1
1
1
1
1
1
1
1
1
1
1
1
1
1
1
1
1
1
0.999907
0.999473
0.999442
0.999444
0.999444
0.999959
1
1
0.999999
0.999811
0.881878
0.186429
0.0294712
0.0429005
0.0461916
0.0413823
0.877962
0.877966
0.576687
0.482315
0.105002
0.0520154
0.0587852
0.0254846
0.877962
0.877966
0.877802
0.877345
0.840224
0.655693
0.655495
0.661561
0.682287
0.685729
0.650292
0.635458
0.681216
0.752622
0.75265
0.752622
0.752595
0.752571
0.752575
)
;
    }
    atmosphere
    {
        type            inletOutlet;
        inletValue      uniform 0;
        value           nonuniform List<scalar> 
46
(
0
0
0
3.07358e-20
2.84321e-20
1.92787e-20
1.20228e-20
7.74931e-21
5.0212e-21
3.13557e-21
1.77203e-21
8.57116e-22
3.72701e-22
1.3502e-22
3.93181e-23
9.86964e-24
0
0
0
0
0
0
0
0
0
0
0
0
0
0
0
1.50523e-24
5.0664e-24
1.67577e-23
5.15139e-23
1.51181e-22
4.1506e-22
1.05006e-21
2.387e-21
4.54154e-21
0
0
0
0
0
0
)
;
    }
    defaultFaces
    {
        type            empty;
    }
}


// ************************************************************************* //
