/*--------------------------------*- C++ -*----------------------------------*\
  =========                 |
  \\      /  F ield         | OpenFOAM: The Open Source CFD Toolbox
   \\    /   O peration     | Website:  https://openfoam.org
    \\  /    A nd           | Version:  13
     \\/     M anipulation  |
\*---------------------------------------------------------------------------*/
FoamFile
{
    format      ascii;
    class       volScalarField;
    location    "2.75";
    object      alpha.oil;
}
// * * * * * * * * * * * * * * * * * * * * * * * * * * * * * * * * * * * * * //

dimensions      [];

internalField   nonuniform List<scalar> 
2268
(
3.49239e-14
1.89171e-13
7.04964e-13
1.92828e-12
4.77238e-12
9.88816e-12
1.85455e-11
3.49017e-11
6.27378e-11
1.13565e-10
2.05553e-10
3.72726e-10
6.80706e-10
1.2896e-09
2.54683e-09
4.63828e-09
6.95633e-09
6.89141e-09
6.90671e-09
9.26862e-05
0.000527263
0.000558475
0.000555838
2.73868e-14
1.58167e-13
4.86988e-13
1.99874e-12
4.66388e-12
1.05983e-11
2.0856e-11
4.00109e-11
7.34268e-11
1.36992e-10
2.42449e-10
4.73103e-10
8.69172e-10
1.65569e-09
3.34818e-09
7.21424e-09
2.22031e-08
9.60369e-08
3.53195e-07
1.72599e-05
9.05986e-05
0.000132163
4.13121e-05
6.45801e-14
5.39328e-13
6.38142e-13
1.61648e-12
4.00779e-12
8.535e-12
1.96796e-11
3.84025e-11
7.65118e-11
1.46538e-10
2.6942e-10
5.01279e-10
8.98418e-10
1.59958e-09
2.83269e-09
4.51511e-09
5.1796e-09
2.68969e-08
1.73731e-07
5.02578e-08
6.89054e-09
8.07346e-09
7.35947e-09
1.69112e-12
3.9577e-12
5.06052e-12
4.60113e-12
5.47873e-12
8.65393e-12
1.62169e-11
3.02044e-11
7.66668e-11
1.53422e-10
3.06808e-10
5.65821e-10
9.50336e-10
1.71107e-09
3.36456e-09
5.20729e-09
8.49737e-09
1.79747e-08
5.40197e-08
1.10065e-07
2.66863e-08
2.26126e-08
8.31769e-08
1.38877e-10
1.68466e-10
1.43466e-10
1.05293e-10
6.83632e-11
4.42533e-11
2.89152e-11
3.06083e-11
5.14023e-11
1.05622e-10
2.36843e-10
5.13974e-10
1.08815e-09
1.99208e-09
3.89116e-09
7.0262e-09
1.00511e-08
9.72143e-09
9.68483e-09
1.00291e-08
2.41302e-08
6.50844e-08
7.0042e-07
1.71523e-09
1.58817e-09
1.27954e-09
9.3758e-10
6.83649e-10
4.87604e-10
3.07532e-10
1.52181e-10
8.16265e-11
8.14178e-11
1.03044e-10
2.83243e-10
8.83753e-10
1.8283e-09
3.20571e-09
6.57214e-09
2.15492e-08
8.72462e-08
1.7695e-07
1.02206e-07
1.05053e-07
6.91913e-07
2.00204e-05
3.41188e-09
3.22787e-09
2.67638e-09
2.07049e-09
1.59513e-09
1.33089e-09
1.07516e-09
7.405e-10
3.78049e-10
1.8086e-10
1.34716e-10
1.6386e-10
3.69871e-10
1.05215e-09
1.43372e-09
7.40052e-10
1.49565e-09
4.76929e-07
1.15721e-06
8.93763e-07
3.9608e-07
7.63281e-06
2.4048e-05
3.65628e-09
3.65484e-09
3.35079e-09
2.70255e-09
2.13221e-09
1.72733e-09
1.60347e-09
1.38606e-09
9.30866e-10
5.41048e-10
3.08684e-10
2.28113e-10
2.58394e-10
4.63703e-10
6.30496e-10
6.31384e-10
2.12423e-09
4.62123e-07
1.14944e-06
1.10501e-06
2.036e-06
1.07978e-05
1.87963e-05
0.113272
0.0745202
0.03972
0.0397203
0.088074
0.28555
0.288156
0.287383
0.271513
0.267903
0.276076
0.260496
0.125527
0.0608562
0.0749132
0.110151
0.193177
0.231169
0.222348
0.11331
0.112342
0.125615
0.0738201
0.0573607
0.0585008
0.105192
0.0763199
0.037716
0.0609207
0.158249
0.231526
0.123233
0.0608099
0.0620305
0.149509
0.231616
0.231521
0.222819
0.41243
0.413221
0.450738
0.446759
0.170469
0.0177153
0.00103171
0.000244668
0.000119218
0.000285209
0.0324054
0.145732
0.173433
0.0809448
0.0631154
0.195563
0.357631
0.424994
0.450421
0.446946
0.435993
0.392142
0.360525
0.43348
0.439217
0.204432
0.115966
0.037498
0.00216747
0.0853631
0.167959
0.174722
0.216404
0.2485
0.337573
0.409217
0.401788
0.450273
0.376358
0.0983589
0.0320186
0.0136529
0.393252
0.742484
0.742483
0.645382
0.198848
3.71105e-09
0.00435212
0.158713
0.307238
0.323194
0.323302
0.196377
0.0890228
0.0002095
0.310541
0.0561497
0.00907597
0.00667558
0.0136154
0.458104
0.742482
0.742483
0.72745
0.271202
9.46635e-19
-1.29224e-12
0.0122632
0.304275
0.32343
0.122961
0.000171454
0.0001705
0.000199306
0.140544
0.0301186
0.00671775
0.00667131
0.0163349
0.497711
0.742483
0.742365
0.305337
0.0109648
4.12264e-12
2.92791e-18
0.00538415
0.263259
0.287387
0.00024253
0.00016377
0.00016343
0.00165996
0.00176494
0.0277315
0.025662
0.0159151
0.0187295
0.308484
0.683682
0.479374
4.2492e-06
6.21217e-09
2.41148e-06
1.97229e-06
0.0267019
0.277185
0.262936
0.00602733
0.000164701
0.000163508
0.00124848
0.00152894
2.44078e-09
2.49877e-09
2.44789e-09
2.10799e-09
2.03285e-09
1.90271e-09
2.16975e-09
1.98002e-09
1.58386e-09
1.13782e-09
7.36714e-10
4.62227e-10
3.49422e-10
3.90703e-10
5.16677e-10
7.79293e-10
1.40193e-09
1.68927e-08
2.19909e-07
3.36465e-07
3.72703e-06
2.10923e-07
-4.41449e-25
4.49466e-10
2.55592e-10
2.55586e-10
2.55573e-10
2.55599e-10
8.41192e-09
4.88843e-09
3.20883e-09
2.14141e-09
1.81537e-09
1.3723e-09
8.48347e-10
4.75767e-10
3.59309e-10
4.48257e-10
7.61214e-10
1.0174e-09
2.12526e-09
3.50039e-07
5.90075e-07
-7.48827e-08
-3.69893e-09
-3.84241e-19
2.93113e-10
4.02145e-05
0.00774933
0.00208576
4.03398e-07
-4.91566e-11
2.46595e-26
1.31373e-26
-5.89781e-14
-1.19319e-11
-8.26472e-12
-4.22594e-12
-1.67724e-12
9.37389e-29
-3.61053e-15
-2.00534e-14
-2.5629e-14
0.000229081
0.0152349
0.0469543
0.0981324
0.204688
0.33517
0.317009
0.539904
0.608722
0.562469
0.460986
0.266648
0.0934287
0.0555513
0.0566446
0.0611546
0.0670314
0.086707
0.116399
0.124988
0.136638
0.165472
0.250416
0.407834
0.575199
0.687037
0.777681
0.907131
0.919695
0.882926
0.992859
0.999544
0.999751
0.999022
0.835909
0.70687
0.697444
0.70438
0.71069
0.72689
0.764038
0.828222
0.863608
0.862689
0.846818
0.869167
0.960944
0.998503
0.999997
0.999992
0.999924
0.972815
0.996822
0.999692
0.999815
1
0.97281
0.951878
0.983331
0.999405
0.989295
0.975143
0.978991
0.988338
0.995181
0.998768
0.998439
1
1
1
1
1
0.99945
0.999342
0.999983
0.999644
0.999291
0.999954
1
1
0.999999
1
1
1
1
1
1
1
1
1
1
1
1
1
1
0.999999
0.999999
0.999999
0.895408
0.878649
0.876856
0.883165
0.893741
0.897742
0.908551
0.924913
0.933437
0.936594
0.934981
0.928853
0.917509
0.901776
0.882033
0.856516
0.825003
0.787995
0.752684
0.726681
0.715322
0.723347
0.744476
0.202999
0.167366
0.148765
0.156112
0.172782
0.193298
0.204569
0.208354
0.213219
0.21584
0.211699
0.199152
0.179938
0.157437
0.1336
0.109635
0.0872346
0.0670206
0.051235
0.0410169
0.0367247
0.0387156
0.0465358
4.26723e-06
3.20251e-06
8.50047e-07
9.9199e-18
-9.93585e-18
2.98219e-18
1.37249e-17
5.79313e-10
1.64001e-09
3.32593e-10
4.41372e-10
1.94898e-10
-1.21541e-10
-2.12952e-11
9.31797e-17
5.15014e-16
2.44797e-16
4.90673e-17
-4.54747e-11
-2.12214e-10
-3.75735e-10
-5.94179e-10
-7.85961e-10
1.6375e-06
5.2621e-07
1.26815e-07
1.72492e-07
3.6763e-07
3.43117e-07
5.17131e-07
3.89288e-08
1.5767e-07
1.70332e-07
1.34944e-08
3.08975e-08
2.75324e-08
2.73222e-08
3.27883e-08
5.37335e-08
6.55149e-08
6.00707e-08
5.41513e-08
5.61362e-08
6.6029e-08
1.02361e-07
1.64241e-07
1.47001e-06
9.51835e-07
1.19246e-07
3.06623e-07
4.49995e-07
1.8898e-06
1.19949e-05
4.95125e-05
2.18735e-05
9.92385e-07
1.21988e-08
5.54821e-08
3.84516e-08
5.07597e-08
1.29218e-07
2.43828e-07
2.3449e-07
1.95538e-07
1.64689e-07
1.24944e-07
1.33803e-07
1.63484e-07
2.01592e-07
1.97337e-06
6.06585e-06
2.35614e-05
1.08524e-05
4.54768e-07
3.57346e-06
0.000107543
0.000163429
0.000141977
2.38099e-06
0
1.50069e-09
-1.26251e-25
2.19604e-08
2.42134e-07
2.6781e-07
2.54133e-07
2.05905e-07
1.61093e-07
1.11881e-07
1.06194e-07
9.74908e-08
1.22121e-07
3.71521e-06
2.65275e-05
5.06424e-05
4.32023e-05
1.78263e-06
1.24652e-05
0.000146879
0.000163477
0.000162634
0.000102408
-8.86714e-12
4.54932e-11
1.82985e-10
3.31601e-08
2.42734e-07
2.67978e-07
2.63019e-07
2.41616e-07
1.63475e-07
9.33452e-08
8.88066e-08
6.01161e-08
6.94292e-08
2.89854e-06
2.73735e-05
5.12026e-05
5.01444e-05
1.18885e-06
7.75624e-07
4.56779e-05
0.000163436
0.000163691
0.000101203
1.45322e-15
2.63245e-09
1.0551e-08
9.81124e-09
6.45926e-08
1.96157e-07
2.43334e-07
2.22982e-07
1.63125e-07
1.02061e-07
7.3984e-08
4.85697e-08
4.09701e-08
1.80923e-06
1.08381e-05
3.51866e-05
2.02677e-05
3.82325e-07
2.49433e-07
8.10102e-07
2.11886e-05
5.25033e-05
1.51494e-05
4.21163e-12
2.45136e-08
6.5643e-08
1.71689e-08
8.27543e-09
3.99485e-08
1.60025e-07
1.72663e-07
1.42622e-07
9.35267e-08
7.14173e-08
2.97409e-08
2.82687e-08
1.1527e-06
2.13576e-06
2.32587e-06
1.07004e-06
2.71087e-07
1.09428e-07
1.63781e-07
1.20593e-07
1.29423e-07
1.27301e-07
2.31488e-07
4.51903e-07
4.87028e-07
5.35531e-08
8.42181e-09
1.16287e-08
3.74136e-08
9.34401e-08
9.7069e-08
7.15976e-08
4.40726e-08
3.62491e-08
1.86152e-08
9.23537e-07
9.71281e-07
5.0392e-07
2.45496e-07
1.12303e-07
9.18525e-08
1.06096e-07
1.19659e-07
1.3029e-07
1.87455e-07
3.72962e-07
6.94772e-07
7.43274e-07
3.831e-07
9.0497e-09
7.22092e-09
1.09418e-08
4.40225e-08
5.04731e-08
4.18929e-08
3.29503e-08
1.91883e-08
1.46435e-08
6.21915e-07
5.95102e-07
2.41659e-07
1.00493e-07
8.56061e-08
8.53089e-08
8.99837e-08
8.47852e-08
5.41343e-08
8.2676e-08
2.60958e-07
6.07449e-07
7.24945e-07
3.45126e-07
5.46257e-08
8.54056e-09
8.95999e-09
1.56324e-08
2.31413e-08
2.13757e-08
1.63624e-08
1.3728e-08
8.82136e-09
4.37586e-07
4.79837e-07
2.34146e-07
9.69792e-08
7.76048e-08
7.42226e-08
7.12288e-08
6.18061e-08
3.87024e-08
4.33099e-08
1.16659e-07
3.10829e-07
4.01949e-07
1.60892e-07
4.6766e-08
1.76218e-08
9.69004e-09
9.3445e-09
1.11529e-08
1.13174e-08
9.75842e-09
6.77322e-09
5.88136e-09
2.4539e-07
3.40207e-07
1.88003e-07
9.08779e-08
6.89484e-08
5.90681e-08
5.15759e-08
4.16696e-08
2.9967e-08
3.34928e-08
5.41456e-08
8.93678e-08
8.51306e-08
5.31475e-08
2.91245e-08
1.50437e-08
9.23495e-09
8.02727e-09
7.52223e-09
7.12727e-09
5.95339e-09
5.00785e-09
3.85076e-09
1.76393e-07
2.27185e-07
1.41596e-07
8.16117e-08
5.94775e-08
4.53702e-08
3.64467e-08
2.80648e-08
2.18955e-08
2.35594e-08
3.09674e-08
3.37462e-08
2.42987e-08
1.9428e-08
1.49747e-08
1.01637e-08
7.46867e-09
6.25144e-09
5.41111e-09
4.81895e-09
4.18831e-09
3.27918e-09
2.84747e-09
7.89268e-08
1.30769e-07
1.0148e-07
7.00131e-08
5.14226e-08
3.62767e-08
2.67676e-08
1.98709e-08
1.56411e-08
1.53744e-08
1.694e-08
1.5841e-08
1.21258e-08
9.61675e-09
7.69719e-09
6.27358e-09
5.14372e-09
4.32206e-09
3.62496e-09
3.16118e-09
2.70674e-09
2.3743e-09
1.95687e-09
5.996e-08
9.58019e-08
7.79388e-08
5.84053e-08
4.30407e-08
2.95379e-08
2.12609e-08
1.50311e-08
1.12541e-08
9.59308e-09
8.74037e-09
7.39073e-09
5.7953e-09
4.73539e-09
4.08958e-09
3.60861e-09
3.07218e-09
2.61364e-09
2.17358e-09
1.90951e-09
1.68005e-09
1.36056e-09
1.22431e-09
3.82791e-08
6.77772e-08
6.29109e-08
4.93682e-08
3.57271e-08
2.43009e-08
1.67108e-08
1.1366e-08
7.95855e-09
6.05143e-09
4.83249e-09
3.78107e-09
3.03911e-09
2.55479e-09
2.23711e-09
1.97389e-09
1.69815e-09
1.42873e-09
1.19824e-09
1.03659e-09
8.71114e-10
7.71538e-10
6.60452e-10
3.49626e-08
5.32418e-08
5.04444e-08
3.96705e-08
2.86402e-08
1.98161e-08
1.31652e-08
8.57527e-09
5.58878e-09
3.78692e-09
2.70667e-09
2.02026e-09
1.59832e-09
1.33818e-09
1.14616e-09
1.00242e-09
8.55631e-10
7.15757e-10
5.98299e-10
5.07268e-10
4.3682e-10
3.56246e-10
3.11838e-10
2.26918e-08
3.64019e-08
3.54237e-08
2.81428e-08
2.12378e-08
1.49686e-08
1.0063e-08
6.37329e-09
3.95221e-09
2.5039e-09
1.65278e-09
1.13392e-09
8.50627e-10
6.84965e-10
5.71486e-10
4.8389e-10
4.0315e-10
3.40108e-10
2.78701e-10
2.33653e-10
1.9409e-10
1.59461e-10
1.32305e-10
1.69551e-08
2.62839e-08
2.49114e-08
1.89844e-08
1.38646e-08
9.98136e-09
6.78819e-09
4.27673e-09
2.63179e-09
1.59728e-09
9.8855e-10
6.25339e-10
4.27288e-10
3.17386e-10
2.52877e-10
2.09256e-10
1.7526e-10
1.47337e-10
1.19938e-10
9.83116e-11
8.17012e-11
6.07909e-11
5.12151e-11
1.14075e-08
1.70611e-08
1.55934e-08
1.19507e-08
8.75146e-09
6.12632e-09
4.14602e-09
2.59216e-09
1.56283e-09
9.235e-10
5.43903e-10
3.26213e-10
2.04686e-10
1.40169e-10
1.04247e-10
8.25662e-11
6.82761e-11
5.65661e-11
4.54427e-11
3.70337e-11
2.88892e-11
2.17522e-11
1.72924e-11
8.79895e-09
1.13167e-08
9.80648e-09
7.21912e-09
4.95187e-09
3.34199e-09
2.2176e-09
1.39069e-09
8.33951e-10
4.83296e-10
2.75563e-10
1.55722e-10
9.18075e-11
5.76548e-11
3.97376e-11
2.97302e-11
2.34815e-11
1.92163e-11
1.546e-11
1.23831e-11
9.64449e-12
6.791e-12
5.3969e-12
5.00768e-09
6.87671e-09
5.59657e-09
3.89485e-09
2.51456e-09
1.62734e-09
1.0452e-09
6.47686e-10
3.81599e-10
2.18452e-10
1.21392e-10
6.6306e-11
3.65655e-11
2.17657e-11
1.39832e-11
9.66942e-12
7.32553e-12
5.84295e-12
4.64305e-12
3.73365e-12
2.72099e-12
1.96902e-12
1.48545e-12
3.35254e-09
3.99092e-09
2.94062e-09
1.91519e-09
1.16095e-09
7.05999e-10
4.32175e-10
2.60149e-10
1.52363e-10
8.42794e-11
4.48841e-11
2.42954e-11
1.3193e-11
7.39376e-12
4.38846e-12
2.92779e-12
2.09818e-12
1.65278e-12
1.26465e-12
9.76709e-13
7.42683e-13
4.96594e-13
3.59264e-13
1.75663e-09
1.84853e-09
1.3605e-09
8.27688e-10
4.68175e-10
2.64066e-10
1.52721e-10
8.907e-11
5.07363e-11
2.80412e-11
1.49556e-11
7.79722e-12
4.10893e-12
2.22659e-12
1.25551e-12
7.83932e-13
5.30927e-13
4.04701e-13
3.02496e-13
2.26161e-13
1.54241e-13
1.10739e-13
7.59277e-14
9.77734e-10
8.68446e-10
5.13576e-10
2.95324e-10
1.5815e-10
8.53481e-11
4.72365e-11
2.70782e-11
1.52903e-11
8.40009e-12
4.30396e-12
2.23641e-12
1.12545e-12
5.83158e-13
3.07565e-13
1.85637e-13
1.23831e-13
8.91146e-14
6.49425e-14
4.67347e-14
3.27177e-14
2.10156e-14
1.34856e-14
4.03507e-10
2.90354e-10
1.83081e-10
9.89921e-11
5.04025e-11
2.49724e-11
1.32927e-11
7.2792e-12
4.02558e-12
2.15591e-12
1.1054e-12
5.39184e-13
2.62354e-13
1.30791e-13
6.90234e-14
3.9673e-14
2.56324e-14
1.78525e-14
1.25674e-14
8.52449e-15
5.62338e-15
3.55349e-15
2.11794e-15
1.57144e-10
1.05796e-10
5.86758e-11
3.02545e-11
1.46055e-11
6.97005e-12
3.53258e-12
1.863e-12
9.88757e-13
5.0631e-13
2.44996e-13
1.17012e-13
5.46194e-14
2.67491e-14
1.39926e-14
8.00453e-15
5.03584e-15
3.35014e-15
2.25391e-15
1.44556e-15
8.90284e-16
5.15573e-16
2.85812e-16
4.11233e-11
2.88642e-11
1.52293e-11
7.55587e-12
3.59403e-12
1.69653e-12
8.3129e-13
4.20982e-13
2.14301e-13
1.06e-13
4.90995e-14
2.2841e-14
1.07808e-14
5.16864e-15
2.64585e-15
1.47113e-15
9.04979e-16
5.81508e-16
3.71047e-16
2.20185e-16
1.2448e-16
6.58338e-17
3.54131e-17
1.03497e-11
5.75657e-12
2.96007e-12
1.50737e-12
7.50219e-13
3.62864e-13
1.71944e-13
8.50668e-14
4.29845e-14
2.10571e-14
9.68454e-15
4.34349e-15
1.9463e-15
9.00635e-16
4.48465e-16
2.46811e-16
1.48852e-16
9.20412e-17
5.4779e-17
3.0325e-17
1.52588e-17
7.65336e-18
5.92119e-18
1.47702e-12
7.65355e-13
4.35648e-13
2.44498e-13
1.3627e-13
6.90869e-14
3.28165e-14
1.59767e-14
7.98445e-15
3.86179e-15
1.70502e-15
7.365e-16
3.23201e-16
1.45831e-16
7.15922e-17
3.89616e-17
2.30802e-17
1.35833e-17
7.39575e-18
3.674e-18
1.74451e-18
1.07956e-18
2.46375e-18
8.20872e-14
5.1949e-14
4.36628e-14
3.32608e-14
2.06006e-14
1.10725e-14
5.60274e-15
2.89712e-15
1.48084e-15
7.03487e-16
3.04249e-16
1.24594e-16
5.15805e-17
2.25865e-17
1.08477e-17
5.912e-18
3.44791e-18
1.87175e-18
9.01589e-19
4.03018e-19
2.1719e-19
3.43361e-19
1.85697e-18
1.82736e-16
8.04047e-16
2.75145e-15
3.75922e-15
2.88643e-15
1.73633e-15
9.31814e-16
4.9722e-16
2.62739e-16
1.24667e-16
5.20442e-17
1.9783e-17
7.7891e-18
3.31037e-18
1.59157e-18
8.68224e-19
4.68125e-19
2.33902e-19
1.04823e-19
4.88547e-20
5.55744e-20
2.14121e-19
1.37499e-18
1.18401e-22
1.03624e-18
9.50485e-17
3.59005e-16
3.4798e-16
2.36706e-16
1.38314e-16
7.89165e-17
4.33055e-17
2.10066e-17
8.68558e-18
3.2006e-18
1.21683e-18
5.01106e-19
2.32929e-19
1.25357e-19
6.42734e-20
2.90723e-20
1.25837e-20
8.6928e-21
2.22453e-20
1.01925e-19
7.06017e-19
0.000101969
0.0016396
0.00285429
0.00101078
0.00528593
0.0162699
0.0222604
0.00581727
0.464255
0.553374
0.569768
0.440637
0.870191
0.862844
0.862936
0.89886
0.972318
0.987668
0.999802
0.999773
0.999974
0.999981
0.999992
0.999982
0.999997
0.999996
0.999995
0.999987
0.776442
0.797006
0.815695
0.834616
0.0620022
0.0727579
0.0824014
0.0910845
4.14474e-07
-5.72774e-10
-2.844e-12
-7.43021e-14
1.97387e-07
1.95471e-07
1.96843e-07
1.94841e-07
2.22229e-07
2.51375e-07
2.5749e-07
2.62759e-07
1.6809e-07
1.90558e-07
1.66874e-07
1.93049e-07
8.71442e-08
1.03104e-07
1.25421e-07
1.22006e-07
6.12392e-08
7.2044e-08
6.65313e-08
7.67796e-08
2.562e-08
3.00883e-08
4.26103e-08
4.21461e-08
1.35117e-08
1.54811e-08
1.88836e-08
2.17055e-08
8.78884e-09
7.83468e-09
8.45774e-09
9.13021e-09
5.97866e-09
4.9977e-09
4.61107e-09
4.57851e-09
3.98339e-09
3.11101e-09
2.76995e-09
2.566e-09
3.06525e-09
2.45505e-09
2.08752e-09
1.85937e-09
2.35443e-09
1.97303e-09
1.69658e-09
1.46496e-09
1.70364e-09
1.49937e-09
1.32038e-09
1.16133e-09
1.08833e-09
9.36758e-10
8.77014e-10
7.84753e-10
6.05411e-10
5.25892e-10
4.82433e-10
4.52065e-10
2.85091e-10
2.42589e-10
2.29531e-10
2.176e-10
1.21161e-10
1.06339e-10
9.80615e-11
8.87433e-11
4.54779e-11
3.71157e-11
3.4244e-11
3.27044e-11
1.5974e-11
1.33952e-11
1.20874e-11
1.05144e-11
4.67349e-12
3.92552e-12
3.38863e-12
3.09661e-12
1.27116e-12
1.0706e-12
9.41165e-13
8.01224e-13
2.9639e-13
2.3583e-13
2.06625e-13
1.75211e-13
6.19269e-14
5.03631e-14
4.02319e-14
3.22623e-14
1.04441e-14
8.33209e-15
6.74943e-15
5.13663e-15
1.60857e-15
1.23621e-15
9.37125e-16
6.90992e-16
2.08341e-16
1.58131e-16
1.28656e-16
1.07448e-16
2.75384e-17
2.48393e-17
2.7995e-17
4.15179e-17
6.61526e-18
9.18218e-18
1.70725e-17
3.98209e-17
3.89692e-18
7.45833e-18
1.90154e-17
5.66491e-17
3.34497e-18
8.07347e-18
2.59784e-17
8.4116e-17
2.84375e-18
8.94006e-18
3.21538e-17
1.04386e-16
2.08063e-18
7.31748e-18
2.52766e-17
7.77764e-17
0.00308712
0.0129942
0.0300067
0.031264
0.0709087
0.467202
0.258469
0.00267824
3.65851e-10
5.37191e-08
7.85577e-05
0.00741851
0.113
0.0259528
0.000210289
0.00021021
0.000171737
0.106988
0.0795676
0.00163938
0.00847259
0.0250789
0.0275684
0.0293281
0.347691
0.227793
0.0158717
0.0468548
0.0324928
0.00972612
0.0075747
0.0105882
0.0172098
0.079591
0.215518
0.364729
0.364586
0.22179
0.255331
0.298479
0.264272
0.12164
0.190721
0.573615
0.431952
0.310819
0.569229
0.749206
0.724703
0.648246
0.528858
0.613662
0.761836
0.863983
0.864915
0.793359
0.683204
0.891022
0.859665
0.834933
0.811153
0.88345
0.852953
0.770807
0.779559
0.92912
0.999939
0.999996
0.999974
0.999941
0.999947
0.99981
0.999618
0.996214
0.979603
0.983387
0.99828
0.994586
0.995776
0.999585
0.999925
0.987211
0.922961
0.928974
0.987013
0.999993
0.999996
0.999998
1
0.999999
0.999922
0.999753
0.999825
0.999928
0.999877
0.999985
0.999986
0.999996
0.9999
0.999925
0.999989
0.999998
1
1
1
0.999999
0.999999
1
1
0.999997
0.999946
0.999964
0.999978
0.999981
0.999991
0.999997
0.999998
0.999998
0.999997
0.999997
0.999999
1
1
1
1
1
0.999991
0.999981
0.999997
0.999992
0.999986
0.999962
0.999977
0.860576
0.903871
0.935149
0.957441
0.976332
0.992787
0.999998
0.999999
0.999999
0.999999
0.999999
0.999999
0.999996
0.999995
0.999492
0.995455
0.992264
0.992268
0.994131
0.102737
0.133208
0.166042
0.199359
0.235808
0.275667
0.318251
0.35876
0.394867
0.435765
0.485022
0.542126
0.604206
0.664324
0.659661
0.62253
0.61272
0.610308
0.627581
2.18376e-23
8.46568e-26
2.23232e-22
9.16067e-09
2.45455e-07
4.1476e-07
7.5846e-07
2.17057e-15
-6.12457e-19
0.000176979
0.0017675
0.00648142
0.0158881
0.0298026
0.0267725
0.0170933
0.0127639
0.00893529
0.0171897
2.00187e-07
3.50858e-07
2.04895e-06
0.000193587
0.000470523
0.000660742
0.000654773
0.000264147
4.30754e-20
6.8258e-08
2.92531e-08
4.02059e-06
-2.45888e-07
3.49156e-10
7.59112e-21
-6.61745e-26
3.55713e-10
8.53461e-17
1.32872e-10
3.07954e-07
7.79856e-07
2.03286e-06
0.000301913
0.000846177
0.000856751
0.000805683
0.000151517
3.81529e-19
1.35303e-16
0.000441876
0.000642576
0.000631004
0.000290013
-5.75574e-10
9.97795e-08
1.69554e-07
1.22632e-07
5.47046e-08
2.02579e-07
3.15331e-07
4.36973e-07
1.02652e-07
1.01302e-07
5.80171e-05
1.14671e-06
5.29933e-06
2.91517e-07
5.08955e-06
0.000257839
0.00049945
0.000380605
0.000160028
1.98923e-06
1.53448e-07
2.79185e-07
2.49691e-07
1.02756e-07
1.26445e-07
1.1253e-07
1.02054e-07
1.08643e-07
1.13271e-07
1.14033e-07
9.63881e-07
2.04436e-06
1.86487e-06
5.57923e-06
2.01517e-06
1.32315e-05
1.51297e-06
7.13093e-07
8.39727e-07
4.01939e-07
3.77387e-07
3.6587e-07
2.17302e-07
8.1174e-08
9.38719e-08
1.03812e-07
1.43277e-07
1.63796e-07
1.70847e-07
2.08102e-07
3.53161e-07
5.20293e-07
2.80031e-07
2.47641e-07
1.67496e-07
1.61918e-07
1.42426e-07
3.32501e-07
3.27908e-07
3.64317e-07
3.74018e-07
3.5094e-07
4.85756e-08
6.71097e-08
1.01535e-07
1.61281e-07
2.06859e-07
2.24423e-07
1.96403e-07
1.82053e-07
1.98982e-07
2.46618e-07
2.82908e-07
2.25922e-07
1.94233e-07
1.43757e-07
2.03704e-07
2.29427e-07
2.40345e-07
3.05504e-07
3.1403e-07
2.50356e-08
3.35031e-08
5.13699e-08
8.73963e-08
1.31323e-07
1.66318e-07
1.70949e-07
1.47412e-07
1.30311e-07
1.50471e-07
1.94127e-07
1.94353e-07
1.51723e-07
1.07818e-07
1.07847e-07
1.10568e-07
1.27667e-07
1.33898e-07
1.43677e-07
1.15296e-08
1.44147e-08
1.84876e-08
2.47696e-08
3.49863e-08
4.7603e-08
5.72817e-08
5.70079e-08
5.21822e-08
5.65553e-08
7.39826e-08
8.85903e-08
8.14698e-08
5.85403e-08
4.83537e-08
4.98748e-08
4.73985e-08
4.1964e-08
3.27605e-08
4.73413e-09
6.54107e-09
8.33186e-09
9.51136e-09
1.00022e-08
9.89478e-09
1.0509e-08
1.32773e-08
1.77356e-08
2.19192e-08
2.57397e-08
2.95276e-08
3.04872e-08
2.76355e-08
2.32056e-08
2.01015e-08
1.84707e-08
1.68634e-08
1.61554e-08
2.48217e-09
2.78554e-09
3.92125e-09
5.06435e-09
6.2625e-09
7.35227e-09
8.23524e-09
9.2417e-09
1.04749e-08
1.1774e-08
1.25955e-08
1.29178e-08
1.30589e-08
1.28011e-08
1.30247e-08
1.39267e-08
1.45825e-08
1.70637e-08
1.90718e-08
1.62727e-09
1.4922e-09
1.62896e-09
2.13669e-09
2.71279e-09
3.37543e-09
4.07154e-09
4.75364e-09
5.44246e-09
6.00853e-09
6.37624e-09
6.62343e-09
6.99839e-09
7.80034e-09
9.33883e-09
1.21472e-08
1.56443e-08
2.37197e-08
3.34585e-08
1.27526e-09
1.0698e-09
9.56776e-10
9.2922e-10
1.0613e-09
1.31578e-09
1.61807e-09
1.94037e-09
2.27608e-09
2.65729e-09
3.02324e-09
3.44553e-09
4.08669e-09
5.19178e-09
7.38948e-09
1.2141e-08
2.09752e-08
4.00713e-08
5.34246e-08
9.74413e-10
7.97743e-10
6.62584e-10
5.66694e-10
5.2633e-10
5.39381e-10
6.40789e-10
7.83479e-10
9.75972e-10
1.23648e-09
1.54858e-09
1.97591e-09
2.63687e-09
3.75708e-09
5.94956e-09
1.13545e-08
2.45279e-08
5.75213e-08
8.3127e-08
6.69926e-10
5.43395e-10
4.48951e-10
3.61753e-10
2.99842e-10
2.6555e-10
2.64878e-10
3.18064e-10
4.30857e-10
6.07912e-10
8.59835e-10
1.23745e-09
1.8538e-09
2.92221e-09
5.1398e-09
1.15655e-08
2.91877e-08
8.05522e-08
8.30513e-08
3.76438e-10
3.17836e-10
2.63147e-10
2.0946e-10
1.69068e-10
1.40875e-10
1.36387e-10
1.58715e-10
2.21855e-10
3.42377e-10
5.42687e-10
8.67343e-10
1.41549e-09
2.35316e-09
4.36177e-09
1.0765e-08
3.12388e-08
8.3862e-08
8.3298e-08
1.81445e-10
1.50427e-10
1.24264e-10
1.0124e-10
8.07717e-11
6.84402e-11
6.91866e-11
8.74806e-11
1.32385e-10
2.22603e-10
3.85374e-10
6.73779e-10
1.1748e-09
2.05841e-09
3.90821e-09
9.99404e-09
3.28975e-08
9.12545e-08
6.39872e-08
7.23266e-11
6.02024e-11
4.88167e-11
3.9107e-11
3.20073e-11
2.93929e-11
3.41891e-11
5.06451e-11
8.77236e-11
1.62678e-10
3.05119e-10
5.69574e-10
1.04021e-09
1.87064e-09
3.61842e-09
9.66507e-09
3.6161e-08
9.34505e-08
4.37576e-08
2.60154e-11
2.01267e-11
1.61771e-11
1.27465e-11
1.10549e-11
1.19471e-11
1.75952e-11
3.15306e-11
6.44963e-11
1.29483e-10
2.59819e-10
5.13163e-10
9.73264e-10
1.799e-09
3.41581e-09
9.621e-09
3.9088e-08
9.57681e-08
3.58773e-08
7.9447e-12
6.04035e-12
4.50386e-12
3.59406e-12
3.65922e-12
5.51975e-12
1.08231e-11
2.31008e-11
5.18574e-11
1.12168e-10
2.37479e-10
4.93612e-10
9.73469e-10
1.81357e-09
3.41484e-09
9.58444e-09
4.30921e-08
9.54087e-08
2.81792e-08
2.25447e-12
1.59272e-12
1.14621e-12
1.0686e-12
1.57202e-12
3.3918e-12
8.0137e-12
1.93963e-11
4.51293e-11
1.04371e-10
2.32301e-10
5.00506e-10
1.01581e-09
1.90173e-09
3.5319e-09
9.90959e-09
4.37861e-08
8.76378e-08
1.76914e-08
5.40518e-13
3.53748e-13
2.80762e-13
4.04257e-13
9.65003e-13
2.57358e-12
6.80931e-12
1.72006e-11
4.23493e-11
1.02306e-10
2.37812e-10
5.23372e-10
1.08442e-09
2.07373e-09
3.77744e-09
9.98039e-09
4.14346e-08
5.24644e-08
1.03473e-08
1.12208e-13
7.51577e-14
9.09619e-14
2.37688e-13
7.49989e-13
2.19751e-12
6.13677e-12
1.62003e-11
4.10535e-11
1.04489e-10
2.50243e-10
5.62648e-10
1.18573e-09
2.29017e-09
4.10864e-09
1.1038e-08
3.1481e-08
2.9519e-08
5.30673e-09
1.96519e-14
1.82642e-14
4.96075e-14
1.91375e-13
6.47852e-13
1.99236e-12
5.7424e-12
1.59517e-11
4.23159e-11
1.09005e-10
2.68537e-10
6.1284e-10
1.28738e-09
2.50394e-09
4.35157e-09
1.1231e-08
2.34535e-08
6.87991e-09
3.09363e-09
3.66782e-15
9.25111e-15
4.26545e-14
1.76054e-13
6.07312e-13
1.93028e-12
5.78451e-12
1.63763e-11
4.43244e-11
1.15319e-10
2.87194e-10
6.56567e-10
1.38683e-09
2.62751e-09
4.5605e-09
1.06508e-08
1.35915e-08
8.86274e-09
1.76418e-09
1.31393e-15
8.26852e-15
4.16634e-14
1.70016e-13
6.00413e-13
1.93358e-12
5.92587e-12
1.70546e-11
4.66458e-11
1.21729e-10
3.01964e-10
6.87272e-10
1.43177e-09
2.67958e-09
4.60752e-09
8.81384e-09
9.04325e-09
3.7134e-09
1.0802e-09
1.09476e-15
8.22683e-15
4.06194e-14
1.68845e-13
5.95632e-13
1.98161e-12
6.00119e-12
1.72654e-11
4.74889e-11
1.23754e-10
3.06035e-10
6.86873e-10
1.41864e-09
2.59132e-09
4.18035e-09
6.77547e-09
5.22662e-09
2.68368e-09
5.47556e-10
1.16166e-15
8.30914e-15
4.00291e-14
1.6536e-13
5.82937e-13
1.92303e-12
5.84309e-12
1.67442e-11
4.54711e-11
1.18154e-10
2.9029e-10
6.42121e-10
1.30425e-09
2.34403e-09
3.52646e-09
4.89693e-09
3.45374e-09
1.07221e-09
3.05796e-10
1.25234e-15
8.29515e-15
3.83883e-14
1.52609e-13
5.37722e-13
1.72539e-12
5.25291e-12
1.48762e-11
4.02382e-11
1.04121e-10
2.52132e-10
5.56561e-10
1.10898e-09
1.92295e-09
2.75542e-09
3.04041e-09
1.78877e-09
6.3601e-10
1.59564e-10
1.33182e-15
7.57171e-15
3.32763e-14
1.26633e-13
4.34844e-13
1.37958e-12
4.13481e-12
1.16863e-11
3.16202e-11
8.19752e-11
1.98904e-10
4.32426e-10
8.41709e-10
1.43985e-09
1.84466e-09
1.85752e-09
9.47393e-10
2.53682e-10
8.5834e-11
1.21498e-15
6.04632e-15
2.41945e-14
8.5081e-14
2.81812e-13
8.70216e-13
2.61969e-12
7.62872e-12
2.09177e-11
5.47471e-11
1.33365e-10
2.95681e-10
5.86175e-10
9.413e-10
1.11648e-09
1.00748e-09
4.12467e-10
1.25382e-10
4.54813e-11
8.2915e-16
3.51432e-15
1.27329e-14
4.20218e-14
1.36983e-13
4.36992e-13
1.34092e-12
3.98689e-12
1.13305e-11
3.09739e-11
7.78456e-11
1.73754e-10
3.31603e-10
5.45004e-10
6.15008e-10
4.57342e-10
1.5369e-10
5.20043e-11
1.4461e-11
3.06451e-16
1.07665e-15
3.43673e-15
1.07217e-14
3.93608e-14
1.37469e-13
4.6933e-13
1.4934e-12
4.54346e-12
1.29501e-11
3.39731e-11
7.93412e-11
1.52003e-10
2.39461e-10
2.46446e-10
1.41074e-10
4.56197e-11
1.00587e-11
7.2749e-13
)
;

boundaryField
{
    leftWall
    {
        type            alphaContactAngle;
        contactAngleProperties 
        {
            mercury         
            {
                theta0          90;
            }
            air             
            {
                theta0          90;
            }
            water           
            {
                theta0          90;
            }
        }
        value           nonuniform List<scalar> 
50
(
3.49239e-14
2.73868e-14
6.45801e-14
1.69112e-12
1.38877e-10
1.71523e-09
3.41188e-09
3.65628e-09
2.44078e-09
4.49466e-10
2.93113e-10
0.317009
0.882926
0.996822
0.999644
0.895408
0.202999
4.26723e-06
1.6375e-06
1.47001e-06
1.97337e-06
3.71521e-06
2.89854e-06
1.80923e-06
1.1527e-06
9.23537e-07
6.21915e-07
4.37586e-07
2.4539e-07
1.76393e-07
7.89268e-08
5.996e-08
3.82791e-08
3.49626e-08
2.26918e-08
1.69551e-08
1.14075e-08
8.79895e-09
5.00768e-09
3.35254e-09
1.75663e-09
9.77734e-10
4.03507e-10
1.57144e-10
4.11233e-11
1.03497e-11
1.47702e-12
8.20872e-14
1.82736e-16
1.18401e-22
)
;
    }
    rightWall
    {
        type            alphaContactAngle;
        contactAngleProperties 
        {
            mercury         
            {
                theta0          90;
            }
            air             
            {
                theta0          90;
            }
            water           
            {
                theta0          90;
            }
        }
        value           nonuniform List<scalar> 
50
(
0.222348
0.222819
0.450421
0.450273
0.310541
0.140544
0.00176494
0.00152894
0.0795676
0.22179
0.683204
0.983387
0.999877
0.999981
0.999977
0.994131
0.627581
0.0171897
1.32872e-10
5.47046e-08
1.02756e-07
2.17302e-07
3.5094e-07
3.1403e-07
1.43677e-07
3.27605e-08
1.61554e-08
1.90718e-08
3.34585e-08
5.34246e-08
8.3127e-08
8.30513e-08
8.3298e-08
6.39872e-08
4.37576e-08
3.58773e-08
2.81792e-08
1.76914e-08
1.03473e-08
5.30673e-09
3.09363e-09
1.76418e-09
1.0802e-09
5.47556e-10
3.05796e-10
1.59564e-10
8.5834e-11
4.54813e-11
1.4461e-11
7.2749e-13
)
;
    }
    lowerWall
    {
        type            alphaContactAngle;
        contactAngleProperties 
        {
            mercury         
            {
                theta0          90;
            }
            air             
            {
                theta0          90;
            }
            water           
            {
                theta0          90;
            }
        }
        value           nonuniform List<scalar> 
62
(
3.49239e-14
1.89171e-13
7.04964e-13
1.92828e-12
4.77238e-12
9.88816e-12
1.85455e-11
3.49017e-11
6.27378e-11
1.13565e-10
2.05553e-10
3.72726e-10
6.80706e-10
1.2896e-09
2.54683e-09
4.63828e-09
6.95633e-09
6.89141e-09
6.90671e-09
9.26862e-05
0.000527263
0.000558475
0.000555838
0.000555838
4.13121e-05
7.35947e-09
8.31769e-08
7.0042e-07
2.00204e-05
2.4048e-05
1.87963e-05
0.000101969
0.0016396
0.00285429
0.00101078
0.113272
0.11331
0.41243
0.446946
0.376358
0.0561497
0.0301186
0.0277315
0.113272
0.0745202
0.03972
0.0397203
0.088074
0.28555
0.288156
0.287383
0.271513
0.267903
0.276076
0.260496
0.125527
0.0608562
0.0749132
0.110151
0.193177
0.231169
0.222348
)
;
    }
    atmosphere
    {
        type            inletOutlet;
        inletValue      uniform 0;
        value           nonuniform List<scalar> 
46
(
0
0
0
3.59005e-16
3.4798e-16
2.36706e-16
1.38314e-16
7.89165e-17
4.33055e-17
2.10066e-17
8.68558e-18
3.2006e-18
1.21683e-18
5.01106e-19
2.32929e-19
1.25357e-19
0
0
0
0
0
0
0
0
0
0
0
0
0
0
0
3.93608e-14
1.37469e-13
4.6933e-13
1.49341e-12
4.54346e-12
1.29501e-11
3.39731e-11
7.93413e-11
1.52003e-10
0
0
0
0
0
0
)
;
    }
    defaultFaces
    {
        type            empty;
    }
}


// ************************************************************************* //
