/*--------------------------------*- C++ -*----------------------------------*\
  =========                 |
  \\      /  F ield         | OpenFOAM: The Open Source CFD Toolbox
   \\    /   O peration     | Website:  https://openfoam.org
    \\  /    A nd           | Version:  13
     \\/     M anipulation  |
\*---------------------------------------------------------------------------*/
FoamFile
{
    format      ascii;
    class       volScalarField;
    location    "2.75";
    object      alpha.air;
}
// * * * * * * * * * * * * * * * * * * * * * * * * * * * * * * * * * * * * * //

dimensions      [];

internalField   nonuniform List<scalar> 
2268
(
5.83712e-13
6.88806e-13
8.18386e-13
7.53796e-13
6.05696e-13
4.13025e-13
2.42772e-13
1.22869e-13
5.52917e-14
3.01305e-14
2.9194e-14
3.40858e-14
4.70689e-14
7.37342e-14
1.29619e-13
2.32749e-13
4.16256e-13
8.17993e-13
1.79147e-12
2.32177e-12
3.17663e-12
1.76806e-11
3.72131e-11
2.04622e-12
3.04446e-12
3.17018e-12
3.08335e-12
2.72364e-12
2.07842e-12
1.20071e-12
5.41261e-13
2.52533e-13
1.90964e-13
2.36482e-13
4.22004e-13
8.21546e-13
1.53724e-12
2.58177e-12
3.93929e-12
6.34128e-12
1.14813e-11
1.86343e-11
4.62323e-11
1.86981e-10
7.06437e-10
1.93751e-09
4.81164e-12
8.22519e-12
8.69711e-12
7.80616e-12
7.08442e-12
6.01452e-12
4.3558e-12
2.0625e-12
8.37788e-13
6.52652e-13
9.79732e-13
2.11401e-12
4.82949e-12
1.05441e-11
2.19013e-11
4.12334e-11
6.42662e-11
9.63822e-11
1.52957e-10
4.24027e-10
8.92639e-10
2.12698e-09
1.36858e-08
1.52912e-11
1.61679e-11
2.69477e-11
8.18832e-12
9.78346e-12
9.70508e-12
1.03943e-11
9.71454e-12
6.52878e-12
3.99644e-12
3.81864e-12
5.58673e-12
1.05518e-11
2.5045e-11
6.24914e-11
1.14577e-10
1.9694e-10
2.98091e-10
4.34157e-10
1.13377e-09
5.02208e-09
8.41358e-09
4.79005e-08
1.69035e-11
1.65062e-11
2.68803e-11
8.13558e-12
8.58207e-12
1.03694e-11
1.09533e-11
1.34453e-11
1.45478e-11
1.37887e-11
1.1762e-11
1.24014e-11
1.88976e-11
3.55461e-11
7.20219e-11
1.20187e-10
1.96454e-10
4.89996e-10
8.0486e-09
5.47111e-08
5.81316e-08
2.29516e-08
1.94828e-08
2.56567e-09
2.08317e-09
1.45411e-08
3.44812e-07
2.52089e-07
7.81332e-08
1.02801e-11
1.2538e-11
1.25653e-11
1.2645e-11
3.85174e-11
4.04771e-11
4.65125e-11
5.55601e-11
6.95829e-11
9.53793e-11
2.15959e-10
1.57396e-10
2.83615e-08
2.85121e-07
1.24709e-06
3.6829e-08
0.000169028
1.29165e-08
2.31364e-08
3.46755e-08
6.91155e-07
1.75026e-06
1.28403e-06
3.07499e-07
7.12554e-09
1.26515e-11
3.72651e-10
4.26333e-10
3.47774e-10
2.97358e-10
2.1469e-10
1.49561e-10
3.19795e-09
1.8139e-08
2.17878e-08
2.1482e-08
2.37456e-08
4.34912e-06
9.11999e-05
0.000398857
2.74843e-08
6.28193e-08
3.74277e-08
4.0405e-08
1.88006e-06
2.94956e-06
6.29965e-07
2.39848e-07
6.0724e-08
1.3957e-08
4.95407e-09
2.77413e-09
1.50412e-09
6.99913e-10
2.2414e-10
1.09283e-08
3.23044e-08
2.86145e-08
2.85128e-08
1.20827e-06
8.05903e-06
0.00124456
0.00271968
0.000321424
0.0117696
0.0326303
0.0395628
0.0571435
0.0570303
0.055436
0.0501591
0.0453415
0.0454708
0.0649756
0.0643716
0.0688566
0.0621218
0.0480266
0.0139212
0.0137152
0.0136624
0.013392
0.000319918
0.000710117
0.00549586
0.00910036
0.0122644
0.0224068
0.0243708
0.0294925
0.0781093
0.100573
0.064674
0.0643972
0.0724579
0.124992
0.114829
0.0691524
0.0133866
0.013278
0.0132791
0.00250901
0.00733091
0.0133187
0.0130958
0.00166342
2.309e-05
2.3148e-05
2.72582e-05
0.117042
0.346073
0.3786
0.246285
0.248723
0.32561
0.318359
0.176567
0.0541365
0.0302485
0.0391301
0.0141565
0.0184341
0.0245244
0.0245126
0.0187321
2.3148e-05
2.309e-05
0.00249137
0.0418638
0.382619
0.574011
0.574099
0.57401
0.57395
0.573875
0.496127
0.305111
0.225873
0.270706
0.0134667
0.0098134
0.01228
0.0192064
0.0151254
0.0024229
0.00409595
0.0199416
0.0116705
0.00819661
0.353925
0.573842
0.573945
0.568451
0.255178
0.0910995
0.110393
0.0633086
0.248256
0.00981214
0.00982428
0.00978907
0.00982426
0.00984152
0.0167904
0.0489968
0.0567363
0.017977
1.35481e-05
1.35876e-05
0.315171
0.568485
0.252212
3.10389e-06
6.39011e-06
1.1418e-05
3.85866e-06
0.251058
0.00989475
0.0470027
0.0432061
0.0159858
0.0098392
0.0505469
0.0599913
0.0594044
0.0186498
1.35928e-05
1.3565e-05
1.36108e-05
0.57018
0.190709
3.10025e-06
2.33753e-05
4.20079e-05
3.76777e-06
0.253644
0.0571111
0.058151
0.0583102
0.0391075
0.0338528
0.104896
0.157145
0.0564199
0.000616953
0.000154129
2.64683e-05
0.0245969
0.557665
0.115212
3.14722e-06
2.0267e-05
0.00119344
0.000141863
0.183631
2.78502e-08
2.77566e-08
1.91997e-05
7.79601e-05
5.76083e-05
1.68808e-06
2.34007e-07
1.62299e-07
1.07841e-07
5.96916e-08
3.98785e-08
3.02676e-08
1.94935e-08
8.88719e-09
6.236e-09
1.56484e-08
2.99801e-08
5.08455e-08
1.73207e-07
3.18584e-06
2.37716e-05
0.00243421
0.00546301
0.000304764
0.0032118
0.00166556
0.000664288
1.81554e-05
5.83023e-18
1.53473e-20
-1.42114e-10
9.80493e-10
2.76892e-09
3.33515e-09
2.70059e-09
7.74404e-10
3.74454e-16
4.7223e-08
2.51563e-07
4.95801e-07
7.37009e-07
8.79925e-07
1.37392e-06
0.000521919
0.0127662
0.0399186
0.107129
0.0407795
0.00087099
0.00010803
1.18674e-06
1.94064e-16
0.000521619
6.47327e-10
8.05825e-10
9.19219e-26
4.15302e-21
1.90174e-27
4.15326e-21
0.00072473
0.00346514
0.00655644
0.0122064
0.016853
0.0272136
0.043668
0.0680937
0.0804977
0.137103
0.119951
0.0506738
5.88685e-06
2.45985e-06
9.86354e-08
0.0271047
0.107698
0.133172
0.121324
0.109926
0.105382
0.102629
0.113892
0.138353
0.150277
0.150329
0.150277
0.145914
0.132633
0.128687
0.115378
0.0696199
0.0803054
0.107075
0.00685348
0.000440247
4.63249e-05
8.79407e-08
0.120813
0.18446
0.184917
0.186058
0.186019
0.186061
0.175153
0.125209
0.10144
0.11577
0.149773
0.130833
0.0390563
0.0014974
3.3259e-06
7.68858e-06
7.5363e-05
0.0271798
0.00311118
2.23394e-05
0.000168509
2.13277e-07
0.0271892
0.0481223
0.0166687
0.000595408
0.0107045
0.0248565
0.0210093
0.0116623
0.00481903
0.00123206
0.00156103
1.73713e-07
2.24977e-07
9.1202e-08
8.23626e-08
1.8902e-08
0.000549306
0.000655887
1.04743e-21
0.000287311
5.39648e-18
-3.93433e-23
3.88346e-07
3.15151e-07
1.35516e-06
2.89245e-07
5.16501e-08
2.11839e-08
5.56778e-09
2.1196e-08
3.97883e-09
5.16476e-10
1.86245e-11
7.1094e-12
-4.56773e-19
-5.0297e-11
-2.12686e-13
-2.88783e-12
-3.54791e-13
1.35235e-20
3.12717e-19
3.55033e-20
0.104503
0.12064
0.123088
0.116835
0.106259
0.102257
0.0914484
0.0750867
0.0665628
0.063406
0.0650186
0.0711474
0.0824909
0.0982233
0.117967
0.143484
0.174997
0.212005
0.247316
0.273318
0.284678
0.276653
0.255523
0.796966
0.832424
0.851199
0.843888
0.827217
0.806702
0.79543
0.791646
0.786781
0.78416
0.788301
0.800848
0.820062
0.842563
0.8664
0.890365
0.912765
0.932979
0.948765
0.958983
0.963275
0.961284
0.953464
0.999995
0.999996
0.999998
0.999999
1
1
1
1
1
1
1
1
1
1
1
1
1
1
1
1
1
1
1
0.999998
0.999999
0.999999
0.999999
1
1
0.999999
1
1
1
1
1
1
1
1
1
1
1
1
1
1
1
1
0.999998
0.999997
0.999997
0.999999
1
0.999998
0.999988
0.99995
0.999977
0.999998
1
1
1
1
1
1
1
1
1
1
1
1
1
0.999997
0.999991
0.999972
0.999988
1
0.999996
0.999892
0.999834
0.999855
0.999995
0.999999
0.999999
0.999999
0.999999
1
1
1
1
1
1
1
1
1
0.999996
0.999971
0.999945
0.999954
0.999998
0.999988
0.999853
0.999835
0.999835
0.999894
0.999997
0.999997
0.999999
0.999999
0.999999
1
1
1
1
1
1
1
1
0.999997
0.999972
0.999945
0.999947
0.999999
0.999999
0.999954
0.999837
0.999835
0.999896
0.999997
0.999997
0.999997
0.999997
0.999999
1
1
1
1
1
1
1
1
0.999998
0.999989
0.999964
0.999979
1
1
0.999999
0.999979
0.999947
0.999984
0.999998
0.999997
0.999997
0.999997
1
1
1
1
1
1
1
1
1
0.999999
0.999998
0.999998
0.999999
1
1
1
1
1
1
1
0.999999
0.999998
0.999999
1
1
1
1
1
1
1
1
1
0.999999
0.999999
0.999999
1
1
1
1
1
1
1
1
0.999999
0.999999
1
1
1
1
1
1
1
1
1
1
0.999999
0.999999
1
1
1
1
1
1
1
1
1
0.999999
0.999999
1
1
1
1
1
1
1
1
1
1
1
1
1
1
1
1
1
1
1
1
1
1
1
1
1
1
1
1
1
1
1
1
1
1
1
1
1
1
1
1
1
1
1
1
1
1
1
1
1
1
1
1
1
1
1
1
1
1
1
1
1
1
1
1
1
1
1
1
1
1
1
1
1
1
1
1
1
1
1
1
1
1
1
1
1
1
1
1
1
1
1
1
1
1
1
1
1
1
1
1
1
1
1
1
1
1
1
1
1
1
1
1
1
1
1
1
1
1
1
1
1
1
1
1
1
1
1
1
1
1
1
1
1
1
1
1
1
1
1
1
1
1
1
1
1
1
1
1
1
1
1
1
1
1
1
1
1
1
1
1
1
1
1
1
1
1
1
1
1
1
1
1
1
1
1
1
1
1
1
1
1
1
1
1
1
1
1
1
1
1
1
1
1
1
1
1
1
1
1
1
1
1
1
1
1
1
1
1
1
1
1
1
1
1
1
1
1
1
1
1
1
1
1
1
1
1
1
1
1
1
1
1
1
1
1
1
1
1
1
1
1
1
1
1
1
1
1
1
1
1
1
1
1
1
1
1
1
1
1
1
1
1
1
1
1
1
1
1
1
1
1
1
1
1
1
1
1
1
1
1
1
1
1
1
1
1
1
1
1
1
1
1
1
1
1
1
1
1
1
1
1
1
1
1
1
1
1
1
1
1
1
1
1
1
1
1
1
1
1
1
1
1
1
1
1
1
1
1
1
1
1
1
1
1
1
1
1
1
1
1
1
1
1
1
1
1
1
1
1
1
1
1
1
1
1
1
1
1
1
1
1
1
1
1
1
1
1
1
1
1
1
1
1
1
1
1
1
1
1
1
1
1
1
1
1
1
1
1
1
1
1
1
1
1
1
1
1
1
1
1
1
1
1
1
1
1
1
1
1
1
1
1
1
1
1
1
1
1
1
1
1
1
1
1
1
1
1
1
1
1
1
1
1
1
1
1
1
1
1
1
1
1
1
1
1
1
1
1
1
1
1
1
1
1
1
1
1
1
1
1
1
1
1
1
1
1
1
1
1
1
1
1
1
1
1
1
1
1
1
1
1
1
1
1
1
1
1
1
1
1
1
1
1
1
1
1
1
1
1
1
1
1
1
1
1
1
1
1
1
1
1
1
1
1
1
1
1
1
1
1
1
1
1
1
1
1
1
1
1
1
1
1
1
1
1
1
1
1
1
0.0111673
0.00891778
0.00261881
0.00102636
0.0599755
0.0426114
0.00625632
0.00299551
0.137136
0.137105
0.0907475
0.0297903
0.129809
0.13713
0.137062
0.100774
0.0276802
0.0123135
5.82406e-07
6.08281e-07
3.73902e-21
2.61808e-16
5.60569e-07
3.01724e-06
1.27062e-19
1.97395e-06
-1.11455e-19
-3.78801e-20
0.223556
0.202993
0.184305
0.165384
0.937997
0.927242
0.917599
0.908916
1
1
1
1
1
1
1
1
1
1
1
1
1
1
1
1
1
1
1
1
1
1
1
1
1
1
1
1
1
1
1
1
1
1
1
1
1
1
1
1
1
1
1
1
1
1
1
1
1
1
1
1
1
1
1
1
1
1
1
1
1
1
1
1
1
1
1
1
1
1
1
1
1
1
1
1
1
1
1
1
1
1
1
1
1
1
1
1
1
1
1
1
1
1
1
1
1
1
1
1
1
1
1
1
1
1
1
1
1
1
1
1
1
1
1
1
1
1
1
1
1
1
1
1
1
1
1
1
1
1
1
1
0.00689073
0.00849992
0.015181
0.0290759
0.0847944
0.180849
0.180849
0.0299119
0.000842853
0.000645238
0.000350606
0.00257729
0.0634906
0.00297054
2.74725e-05
2.04821e-05
0.00690481
0.0342337
0.0725065
0.00267836
0.00248329
0.0427566
0.0768661
0.179353
0.180849
0.180849
0.146993
0.0179501
0.000194915
0.000608149
0.000874062
0.000352426
0.000356909
0.000139484
2.38476e-05
0.0166459
0.0593671
0.0526347
0.105736
0.160106
0.180528
0.180846
0.180849
0.180849
0.180849
0.180849
0.0882396
0.000149299
5.27089e-05
0.000733288
0.000812341
0.000684093
0.000181631
0.000544115
0.0200223
0.0593601
0.0572313
0.0974285
0.126939
0.13081
0.0909343
0.0608372
0.131491
0.180849
0.180849
0.0680041
5.88053e-06
2.48895e-06
2.53175e-05
5.89234e-05
5.23324e-05
0.000158027
0.000309829
0.00339768
0.0169092
0.0121791
0.00144332
0.00534231
0.00421605
0.000391895
7.23903e-05
0.0127878
0.0770387
0.0710152
0.0129716
9.37404e-08
8.74322e-07
4.59757e-07
-4.76098e-11
-1.59209e-16
7.1582e-05
0.000223611
0.000150781
3.54017e-18
-9.51837e-10
5.07253e-12
4.95395e-21
6.39838e-21
9.51536e-05
6.3775e-05
4.05836e-08
-1.8646e-20
-5.65933e-21
2.82055e-21
8.99454e-08
2.63386e-07
2.23129e-07
7.17101e-08
2.62573e-11
3.43811e-06
5.36352e-05
3.59891e-05
9.22706e-06
1.10077e-07
-4.44331e-32
-5.38041e-11
4.37156e-07
1.24527e-07
2.57897e-22
-8.38082e-09
-1.34977e-09
-8.30996e-11
-2.69635e-12
-5.11528e-10
6.73211e-23
3.77015e-16
2.30349e-09
6.84521e-10
5.42749e-07
8.15829e-06
7.85031e-06
1.55636e-06
6.12934e-08
0.139424
0.0961287
0.0648507
0.042559
0.0236676
0.00721299
1.66727e-06
9.8149e-07
6.13626e-07
6.62787e-07
7.17226e-07
6.56028e-07
1.85984e-09
-1.68561e-10
6.44187e-13
4.956e-13
-2.97555e-19
2.37973e-19
-2.50291e-19
0.897263
0.866792
0.833958
0.800641
0.764192
0.724333
0.681748
0.641239
0.605133
0.564223
0.514964
0.457874
0.395794
0.335657
0.333938
0.36507
0.374877
0.377293
0.360772
1
1
1
1
1
0.999999
0.999998
0.999995
0.999989
0.99981
0.998168
0.993275
0.983854
0.969637
0.967818
0.973915
0.977899
0.983658
0.975394
1
1
0.999998
0.999806
0.999529
0.999339
0.999345
0.999735
0.999974
0.99996
0.999929
0.999834
0.999752
0.999452
0.999552
0.999742
0.999968
1
0.999844
1
0.999999
0.999998
0.999698
0.999154
0.999143
0.999194
0.999848
0.999993
0.999985
0.999529
0.999318
0.999312
0.99965
0.999998
1
1
1
0.999998
1
1
1
1
1
0.999942
0.999999
0.999995
0.999999
0.999993
0.999742
0.999495
0.999616
0.99984
0.999998
1
1
1
1
1
1
1
1
1
1
0.999999
0.999998
0.999998
0.999994
0.999998
0.999987
0.999998
0.999999
0.999999
1
1
1
1
1
1
1
1
1
1
1
1
0.999999
1
1
1
1
1
1
1
1
1
1
1
1
1
1
1
1
1
1
1
1
1
1
1
1
1
1
1
1
1
1
1
1
1
1
1
1
1
1
1
1
1
1
1
1
1
1
1
1
1
1
1
1
1
1
1
1
1
1
1
1
1
1
1
1
1
1
1
1
1
1
1
1
1
1
1
1
1
1
1
1
1
1
1
1
1
1
1
1
1
1
1
1
1
1
1
1
1
1
1
1
1
1
1
1
1
1
1
1
1
1
1
1
1
1
1
1
1
1
1
1
1
1
1
1
1
1
1
1
1
1
1
1
1
1
1
1
1
1
1
1
1
1
1
1
1
1
1
1
1
1
1
1
1
1
1
1
1
1
1
1
1
1
1
1
1
1
1
1
1
1
1
1
1
1
1
1
1
1
1
1
1
1
1
1
1
1
1
1
1
1
1
1
1
1
1
1
1
1
1
1
1
1
1
1
1
1
1
1
1
1
1
1
1
1
1
1
1
1
1
1
1
1
1
1
1
1
1
1
1
1
1
1
1
1
1
1
1
1
1
1
1
1
1
1
1
1
1
1
1
1
1
1
1
1
1
1
1
1
1
1
1
1
1
1
1
1
1
1
1
1
1
1
1
1
1
1
1
1
1
1
1
1
1
1
1
1
1
1
1
1
1
1
1
1
1
1
1
1
1
1
1
1
1
1
1
1
1
1
1
1
1
1
1
1
1
1
1
1
1
1
1
1
1
1
1
1
1
1
1
1
1
1
1
1
1
1
1
1
1
1
1
1
1
1
1
1
1
1
1
1
1
1
1
1
1
1
1
1
1
1
1
1
1
1
1
1
1
1
1
1
1
1
1
1
1
1
1
1
1
1
1
1
1
1
1
1
1
1
1
1
1
1
1
1
1
1
1
1
1
1
1
1
1
1
1
1
1
1
1
1
1
1
1
1
1
1
1
1
1
1
1
1
1
1
1
1
1
1
1
1
1
1
1
1
1
1
1
1
1
1
1
1
1
1
1
1
1
1
1
1
1
1
1
1
1
1
1
1
1
1
1
1
1
1
1
1
1
1
1
1
1
1
1
1
1
1
1
1
1
1
1
1
1
1
1
1
1
1
1
1
1
1
1
1
1
1
1
1
1
1
1
1
1
1
1
1
1
1
1
1
1
1
1
1
1
1
1
1
1
1
1
1
1
)
;

boundaryField
{
    leftWall
    {
        type            alphaContactAngle;
        contactAngleProperties 
        {
            mercury         
            {
                theta0          90;
            }
            water           
            {
                theta0          90;
            }
            oil             
            {
                theta0          90;
            }
        }
        value           nonuniform List<scalar> 
50
(
5.83712e-13
2.04622e-12
4.81164e-12
1.52912e-11
1.69035e-11
2.56567e-09
1.29165e-08
2.74843e-08
2.78502e-08
0.000304764
0.107129
0.119951
0.107075
0.00311118
0.000287311
0.104503
0.796966
0.999995
0.999998
0.999998
0.999997
0.999996
0.999997
0.999998
0.999999
0.999999
0.999999
1
1
1
1
1
1
1
1
1
1
1
1
1
1
1
1
1
1
1
1
1
1
1
)
;
    }
    rightWall
    {
        type            alphaContactAngle;
        contactAngleProperties 
        {
            mercury         
            {
                theta0          90;
            }
            water           
            {
                theta0          90;
            }
            oil             
            {
                theta0          90;
            }
        }
        value           nonuniform List<scalar> 
50
(
0.013392
0.0132791
0.0391301
0.270706
0.248256
0.251058
0.253644
0.183631
0.0725065
0.0526347
0.0572313
0.0121791
-9.51837e-10
1.10077e-07
6.12934e-08
-2.50291e-19
0.360772
0.975394
0.999844
0.999998
1
1
1
1
1
1
1
1
1
1
1
1
1
1
1
1
1
1
1
1
1
1
1
1
1
1
1
1
1
1
)
;
    }
    lowerWall
    {
        type            alphaContactAngle;
        contactAngleProperties 
        {
            mercury         
            {
                theta0          90;
            }
            water           
            {
                theta0          90;
            }
            oil             
            {
                theta0          90;
            }
        }
        value           nonuniform List<scalar> 
62
(
5.83712e-13
6.88806e-13
8.18386e-13
7.53796e-13
6.05696e-13
4.13025e-13
2.42772e-13
1.22869e-13
5.52917e-14
3.01305e-14
2.9194e-14
3.40858e-14
4.70689e-14
7.37342e-14
1.29619e-13
2.32749e-13
4.16256e-13
8.17993e-13
1.79147e-12
2.32177e-12
3.17663e-12
1.76806e-11
3.72131e-11
3.72131e-11
1.93751e-09
1.36858e-08
4.79005e-08
1.94828e-08
0.000169028
0.000398857
0.00271968
0.0111673
0.00891778
0.00261881
0.00102636
0.000321424
0.000319918
0.00250901
0.0141565
0.0134667
0.00981214
0.00989475
0.0571111
0.000321424
0.0117696
0.0326303
0.0395628
0.0571435
0.0570303
0.055436
0.0501591
0.0453415
0.0454708
0.0649756
0.0643716
0.0688566
0.0621218
0.0480266
0.0139212
0.0137152
0.0136624
0.013392
)
;
    }
    atmosphere
    {
        type            inletOutlet;
        inletValue      uniform 1;
        value           nonuniform List<scalar> 
46
(
1
1
1
1
1
1
1
1
1
1
1
1
1
1
1
1
1
1
1
1
1
1
1
1
1
1
1
1
1
1
1
1
1
1
1
1
1
1
1
1
1
1
1
1
1
1
)
;
    }
    defaultFaces
    {
        type            empty;
    }
}


// ************************************************************************* //
