/*--------------------------------*- C++ -*----------------------------------*\
  =========                 |
  \\      /  F ield         | OpenFOAM: The Open Source CFD Toolbox
   \\    /   O peration     | Website:  https://openfoam.org
    \\  /    A nd           | Version:  13
     \\/     M anipulation  |
\*---------------------------------------------------------------------------*/
FoamFile
{
    format      ascii;
    class       volScalarField;
    location    "2.75";
    object      alpha.water;
}
// * * * * * * * * * * * * * * * * * * * * * * * * * * * * * * * * * * * * * //

dimensions      [];

internalField   nonuniform List<scalar> 
2268
(
1.04635e-10
1.3077e-10
1.50751e-10
1.55608e-10
1.61925e-10
1.68639e-10
1.76172e-10
1.83394e-10
1.89075e-10
1.9417e-10
1.99494e-10
2.05531e-10
2.16185e-10
2.38325e-10
2.82139e-10
3.50701e-10
4.42119e-10
5.50308e-10
9.98462e-10
1.97327e-09
2.70234e-09
2.77666e-09
2.77623e-09
2.16538e-10
2.9248e-10
2.98311e-10
2.85784e-10
2.90819e-10
3.10076e-10
3.36391e-10
3.77097e-10
4.2176e-10
4.69579e-10
5.04986e-10
5.35349e-10
5.47339e-10
5.53184e-10
5.60564e-10
5.79251e-10
6.29028e-10
7.54503e-10
9.76807e-10
1.6572e-09
2.47451e-09
2.63046e-09
2.09278e-09
2.2152e-10
1.09442e-09
2.20419e-09
2.04204e-09
1.6189e-09
1.10715e-09
3.65324e-10
4.19622e-10
5.20795e-10
6.34362e-10
7.5115e-10
8.72951e-10
9.70133e-10
1.01095e-09
9.81334e-10
9.09043e-10
8.97026e-10
9.77861e-10
1.20477e-09
1.66596e-09
2.01044e-09
2.16328e-09
1.23111e-09
1.76677e-10
1.75513e-10
2.58649e-10
3.06511e-10
3.88932e-10
2.59939e-09
8.39484e-09
2.54989e-10
2.89555e-10
3.93173e-10
5.08403e-10
6.34403e-10
8.57695e-10
1.07051e-09
1.10434e-09
9.56856e-10
8.16904e-10
9.03153e-10
1.0403e-09
1.27213e-09
1.58617e-09
1.37883e-09
7.90108e-10
1.12785e-07
2.54283e-07
2.56787e-07
2.77328e-07
2.12288e-07
1.15575e-08
3.13615e-09
6.60481e-09
4.57035e-11
1.46461e-10
6.49623e-10
5.33166e-10
5.0114e-10
4.95447e-10
4.90773e-10
4.82596e-10
4.73121e-10
4.30395e-10
4.02372e-10
5.69463e-10
3.61995e-10
1.43136e-10
1.38827e-10
0.485082
0.490036
0.484212
0.454381
0.405196
0.338853
0.259313
0.179577
0.115126
0.0602528
0.0168802
4.7107e-07
2.10544e-07
4.89148e-08
9.13326e-08
5.37001e-10
1.08148e-10
1.59501e-10
9.95769e-11
1.5873e-10
9.95769e-11
1.47703e-10
9.95769e-11
0.996805
0.996992
0.996447
0.993465
0.986745
0.9759
0.958445
0.924786
0.862979
0.784146
0.689249
0.569527
0.437975
0.320059
0.223125
0.152712
0.103939
0.0771185
0.0668407
0.059149
0.0610649
0.0849695
0.117699
1
1
1
1
0.999998
0.999997
0.999999
1
1
1
1
0.999866
0.992508
0.971239
0.938343
0.892357
0.842209
0.789542
0.738816
0.717203
0.726396
0.771425
0.810833
0.00844495
0.0357437
0.0498481
0.043372
0.0145586
0.00172645
0.000912947
0.00089673
0.000858418
0.000896704
0.00865651
0.0396744
0.124401
0.1244
0.12441
0.123305
0.0405126
0.00259836
0.011685
0.0084039
0.00898696
0.021821
0.0878215
0.103449
0.0896312
0.0457954
0.0689123
0.0591189
0.0132754
0.000715272
0.0163474
0.0517549
0.0617068
0.0704933
0.0287115
0.00240687
0.00260866
0.0114535
0.00837342
0.00822375
0.035146
0.113729
0.368626
0.461712
0.483824
0.489397
0.396404
0.0661561
0.000676741
0.000693912
0.000638021
0.000637168
0.00064124
0.000637476
0.000641195
0.000645023
0.000644142
0.0565819
0.243883
0.399926
0.478699
0.45791
0.499023
0.738556
0.832398
0.835639
0.538627
0.134781
0.00118552
0.000641359
0.000910948
0.0119818
0.0635108
0.177703
0.231147
0.0584799
0.505174
0.81612
0.859251
0.854852
0.531192
0.219508
0.218866
0.302725
0.758134
0.985852
0.641083
0.220674
0.0116489
0.0488849
0.419998
0.712524
0.800584
0.936482
0.441204
0.882023
0.905015
0.905651
0.894481
0.43018
0.174882
0.145916
0.148068
0.661266
0.98812
0.998917
0.672531
0.127122
0.423163
0.877035
0.999821
0.999818
0.999797
0.608398
0.901201
0.903362
0.908737
0.918494
0.401106
0.118345
0.117832
0.555021
0.945756
0.992305
0.999451
0.994493
0.16656
0.521904
0.999754
0.999803
0.999794
0.998336
0.744592
0.889673
0.888916
0.90347
0.928294
0.635542
0.123557
0.275474
0.908348
0.999303
0.999327
0.999482
0.948592
0.16515
0.621852
0.993969
0.999804
0.998614
0.998599
0.81484
1
1
0.999981
0.999922
0.999942
0.999998
1
1
1
1
1
1
1
1
1
1
1
1
1
0.999996
0.999973
0.997567
0.994537
0.999695
0.996788
0.998334
0.999336
0.999982
1
1
1
1
1
1
1
1
1
1
1
0.999999
0.999999
0.999999
0.999998
0.999478
0.987233
0.960081
0.892871
0.95918
0.99138
0.997806
0.999998
1
0.999478
1
1
1
1
1
1
0.999275
0.996535
0.993444
0.987794
0.982918
0.957551
0.909378
0.833773
0.714813
0.527726
0.56304
0.409422
0.391272
0.437528
0.539014
0.706247
0.798873
0.811276
0.822032
0.82892
0.827587
0.810664
0.769709
0.736659
0.713084
0.684199
0.599306
0.446252
0.292169
0.184276
0.106941
0.0232493
1.36247e-19
0.00999895
0.000287084
1.53362e-05
0.000202615
0.000977795
0.0432784
0.10867
0.117639
0.109562
0.103291
0.0870488
0.0608092
0.0465682
0.0349526
0.0215412
0.00340933
1.91991e-07
-6.64285e-24
-1.71809e-25
2.33079e-26
-9.33717e-15
-3.12421e-11
1.04906e-06
6.72499e-05
0.000285171
1.6641e-05
2.69411e-07
4.0797e-07
-2.46574e-20
4.41204e-16
2.40995e-16
2.92246e-17
7.7327e-21
8.39382e-21
5.50927e-21
4.14777e-19
3.85427e-20
4.15041e-19
6.97181e-14
2.22778e-10
2.01615e-08
8.47703e-08
1.55766e-07
3.61503e-07
1.19694e-06
9.0335e-06
6.82132e-05
0.000708964
4.57534e-05
5.56934e-11
3.4093e-08
5.17421e-08
8.27781e-09
4.08759e-09
4.14724e-09
2.6965e-09
5.24478e-09
1.13771e-08
2.1372e-08
2.76841e-08
2.24301e-08
2.67934e-08
4.87363e-08
7.54535e-08
3.0187e-07
3.75014e-07
2.94737e-07
5.00496e-07
1.09495e-06
8.9138e-05
0.000711037
5.55639e-05
-4.30315e-16
2.21958e-07
2.68172e-07
1.50621e-07
6.82537e-08
9.65347e-09
1.37668e-09
1.3501e-09
5.52809e-08
1.82582e-07
1.92813e-07
1.23015e-07
9.28757e-08
2.18812e-07
2.23279e-07
1.65906e-07
3.72228e-08
2.91221e-10
5.33089e-08
9.90599e-07
3.41008e-05
0.000209785
3.53496e-05
3.38766e-13
1.45408e-07
2.6813e-07
2.68173e-07
1.82688e-07
5.87218e-09
2.51319e-09
2.41577e-09
1.10635e-07
1.95358e-07
1.96587e-07
1.901e-07
7.05025e-08
5.3103e-10
5.61576e-10
3.16044e-10
2.91183e-10
2.82331e-10
1.38546e-07
3.08509e-07
4.99828e-07
4.58321e-07
6.7284e-07
1.3021e-06
3.96169e-08
9.67602e-08
1.06347e-07
6.11306e-08
3.01492e-08
1.8731e-08
1.42322e-08
2.04524e-08
2.27585e-08
2.12904e-08
8.39263e-09
4.86952e-09
3.88699e-09
2.66406e-09
1.73268e-09
9.42575e-10
3.0516e-10
1.17837e-09
-1.30072e-11
2.39723e-07
5.8472e-07
9.71486e-07
5.79779e-07
3.7349e-10
2.39206e-08
3.5597e-08
4.75915e-08
5.84289e-08
5.83141e-08
2.21225e-08
2.13002e-08
2.01143e-08
2.24324e-08
2.63313e-08
1.42854e-08
5.12743e-09
2.83241e-09
2.33913e-09
2.00594e-09
1.90851e-09
2.11212e-09
3.06931e-09
4.03037e-07
1.72742e-06
3.29843e-06
1.01848e-06
5.66161e-11
7.37642e-09
9.42837e-08
9.83846e-07
1.47221e-06
8.56351e-07
2.659e-07
1.83776e-07
1.84342e-07
1.87851e-07
1.51626e-07
3.65743e-08
5.07489e-09
5.7361e-09
4.7538e-09
3.39964e-09
1.612e-09
2.6378e-10
1.92103e-10
6.53726e-07
3.3365e-06
4.49141e-06
1.56138e-06
4.89938e-11
4.92403e-11
1.75214e-07
2.40637e-06
3.02721e-06
2.78918e-06
9.34315e-07
7.01355e-07
5.57545e-07
5.00847e-07
2.19569e-07
9.08598e-08
1.17048e-08
8.91303e-09
7.01262e-09
4.73069e-09
2.75376e-09
1.26262e-09
3.40808e-10
3.17846e-07
2.66392e-06
4.4777e-06
3.1384e-06
4.91883e-11
4.89938e-11
1.95605e-07
1.68812e-06
2.66936e-06
3.24914e-06
3.2538e-06
3.00377e-06
1.39445e-06
1.09494e-06
4.40561e-07
6.81509e-08
2.82808e-08
1.19753e-08
1.14917e-08
1.12368e-08
8.99516e-09
5.74093e-09
1.9579e-09
8.83947e-08
1.12598e-06
3.71055e-06
2.7732e-06
4.89938e-11
4.90508e-11
4.90458e-11
4.92403e-11
1.07562e-06
2.90887e-06
3.2492e-06
3.26162e-06
3.25736e-06
2.91794e-06
5.81827e-07
1.17397e-08
1.17644e-08
1.17373e-08
1.67175e-08
1.90949e-08
1.67623e-08
1.30072e-08
6.68788e-09
2.66232e-08
5.49532e-08
6.28684e-07
6.0197e-07
5.3858e-08
4.90458e-11
8.4704e-11
9.6661e-11
9.27115e-11
6.02895e-07
1.72083e-06
3.06904e-06
3.20594e-06
2.56968e-06
2.78787e-07
5.30576e-08
1.92535e-08
1.17644e-08
1.56796e-08
2.07208e-08
2.04577e-08
1.44644e-08
1.04851e-08
1.77835e-08
1.51885e-08
6.33377e-09
6.52181e-09
1.79849e-08
2.09696e-09
2.25564e-10
6.45775e-10
2.66193e-09
1.81825e-08
1.50017e-07
5.9549e-07
1.35966e-06
5.64011e-07
7.13211e-08
8.80372e-08
8.52211e-08
2.51585e-08
9.43865e-09
1.40912e-08
1.78569e-08
1.39384e-08
9.36991e-09
1.96667e-08
1.69595e-08
1.59497e-08
6.31618e-09
4.2841e-09
1.81253e-09
4.66614e-10
7.16691e-10
2.53668e-09
1.15755e-08
3.79327e-08
7.80774e-08
8.81165e-08
2.08829e-09
3.13666e-08
5.50224e-08
5.59924e-08
2.27439e-08
9.32053e-09
1.01752e-08
1.16055e-08
9.30667e-09
7.68657e-09
2.01648e-08
1.5836e-08
1.83311e-08
6.44263e-09
3.27104e-09
1.84529e-09
6.75258e-10
8.1894e-10
1.3969e-09
2.28592e-09
5.5613e-09
1.0422e-08
6.86289e-09
2.23363e-09
1.70155e-08
3.02396e-08
2.76958e-08
1.92913e-08
9.14678e-09
7.26638e-09
7.20297e-09
6.8622e-09
5.5783e-09
1.99449e-08
1.31358e-08
1.63746e-08
6.31171e-09
3.37845e-09
2.11481e-09
1.23744e-09
1.25924e-09
1.42841e-09
1.72882e-09
2.45731e-09
3.09978e-09
1.25198e-09
1.35233e-09
5.50445e-09
1.14546e-08
1.26771e-08
1.04897e-08
6.50974e-09
4.8458e-09
4.42245e-09
3.76477e-09
3.63335e-09
1.8923e-08
1.03579e-08
1.13647e-08
5.44401e-09
3.27285e-09
2.22771e-09
1.66808e-09
1.42203e-09
1.30595e-09
1.38413e-09
1.60836e-09
1.84897e-09
1.35124e-09
1.20407e-09
2.43698e-09
4.86388e-09
5.82244e-09
5.18728e-09
4.01288e-09
2.89867e-09
2.26125e-09
2.0817e-09
1.95104e-09
1.83521e-08
8.24562e-09
7.37164e-09
4.37684e-09
2.95637e-09
2.15329e-09
1.68392e-09
1.39769e-09
1.18605e-09
1.05698e-09
1.06588e-09
1.01271e-09
8.60543e-10
8.00268e-10
1.14349e-09
2.00735e-09
2.61099e-09
2.39169e-09
1.90796e-09
1.42483e-09
1.06919e-09
8.74261e-10
8.93255e-10
1.80112e-08
6.71298e-09
4.81227e-09
3.38753e-09
2.58757e-09
2.01507e-09
1.6144e-09
1.32194e-09
1.09106e-09
8.7053e-10
6.93084e-10
5.95397e-10
4.89904e-10
4.54412e-10
5.52982e-10
8.00788e-10
1.03171e-09
9.80169e-10
7.86182e-10
5.85676e-10
4.22034e-10
3.59189e-10
3.48062e-10
1.79793e-08
6.02212e-09
3.37697e-09
2.68056e-09
2.24356e-09
1.83282e-09
1.49328e-09
1.20061e-09
9.53211e-10
7.24373e-10
5.42442e-10
4.05839e-10
3.03966e-10
2.57577e-10
2.58459e-10
3.01366e-10
3.63222e-10
3.46332e-10
2.78261e-10
2.1102e-10
1.54535e-10
1.16339e-10
1.17723e-10
1.79819e-08
5.89518e-09
2.57169e-09
2.29711e-09
1.98489e-09
1.6278e-09
1.30874e-09
1.03255e-09
7.98444e-10
6.00732e-10
4.40896e-10
3.13092e-10
2.20395e-10
1.61926e-10
1.32474e-10
1.19939e-10
1.19068e-10
1.07821e-10
8.73029e-11
6.63302e-11
4.67634e-11
3.84503e-11
3.62944e-11
1.79782e-08
6.75835e-09
2.39521e-09
2.13518e-09
1.79285e-09
1.42276e-09
1.09648e-09
8.36217e-10
6.30097e-10
4.6719e-10
3.42023e-10
2.43728e-10
1.68276e-10
1.14552e-10
7.76911e-11
5.65396e-11
4.35394e-11
3.41592e-11
2.60891e-11
1.96612e-11
1.50825e-11
1.15861e-11
1.0868e-11
1.7461e-08
7.69277e-09
2.75772e-09
2.12666e-09
1.63079e-09
1.21495e-09
8.91261e-10
6.46695e-10
4.68765e-10
3.4109e-10
2.47709e-10
1.75639e-10
1.22618e-10
8.2547e-11
5.3011e-11
3.37554e-11
2.14287e-11
1.42242e-11
9.28713e-12
6.65711e-12
5.03432e-12
4.00233e-12
3.49761e-12
1.61543e-08
7.41826e-09
3.55646e-09
2.14024e-09
1.45696e-09
1.00688e-09
6.88824e-10
4.69026e-10
3.26727e-10
2.29303e-10
1.62343e-10
1.13399e-10
7.8452e-11
5.28259e-11
3.39142e-11
2.09349e-11
1.25266e-11
7.50849e-12
4.27555e-12
2.68715e-12
1.93942e-12
1.37234e-12
1.19575e-12
1.40719e-08
6.90728e-09
3.56831e-09
2.05219e-09
1.28749e-09
8.16914e-10
5.17811e-10
3.27162e-10
2.11224e-10
1.3974e-10
9.41312e-11
6.41905e-11
4.35116e-11
2.92827e-11
1.90839e-11
1.17266e-11
6.95613e-12
3.97791e-12
2.09189e-12
1.18703e-12
7.25115e-13
4.90255e-13
3.90628e-13
1.30109e-08
6.25348e-09
3.31751e-09
1.8532e-09
1.08686e-09
6.41342e-10
3.74748e-10
2.18882e-10
1.30772e-10
8.01189e-11
5.04804e-11
3.23104e-11
2.11982e-11
1.39003e-11
9.03e-12
5.63756e-12
3.28968e-12
1.84874e-12
9.27643e-13
4.80122e-13
2.77061e-13
1.60222e-13
1.23431e-13
1.02532e-08
5.37367e-09
2.86862e-09
1.55382e-09
8.60187e-10
4.77432e-10
2.58085e-10
1.39157e-10
7.56106e-11
4.25006e-11
2.46323e-11
1.469e-11
9.00723e-12
5.76415e-12
3.67975e-12
2.2481e-12
1.31238e-12
7.26486e-13
3.5699e-13
1.79796e-13
8.80645e-14
5.10133e-14
3.54105e-14
8.69913e-09
4.44351e-09
2.29656e-09
1.19961e-09
6.30896e-10
3.281e-10
1.65024e-10
8.21664e-11
4.12874e-11
2.06999e-11
1.06932e-11
5.97821e-12
3.49022e-12
2.10325e-12
1.27299e-12
7.81073e-13
4.41365e-13
2.45927e-13
1.14651e-13
5.41015e-14
2.74335e-14
1.39422e-14
9.07634e-15
6.1126e-09
3.16231e-09
1.63607e-09
8.26464e-10
4.11672e-10
2.00064e-10
9.38083e-11
4.34646e-11
1.98734e-11
9.17651e-12
4.3781e-12
2.20471e-12
1.19405e-12
6.81075e-13
3.92745e-13
2.28426e-13
1.23279e-13
6.68232e-14
3.03183e-14
1.3849e-14
6.14451e-15
3.32867e-15
2.03401e-15
4.46257e-09
2.1669e-09
9.85942e-10
4.81659e-10
2.28192e-10
1.05256e-10
4.68505e-11
2.0551e-11
8.77103e-12
3.76001e-12
1.5924e-12
7.46065e-13
3.66377e-13
1.93659e-13
1.02809e-13
5.72816e-14
3.05374e-14
1.53387e-14
6.9593e-15
2.95678e-15
1.37061e-15
6.69334e-16
3.85313e-16
2.47966e-09
1.11875e-09
5.32927e-10
2.45265e-10
1.10905e-10
4.81121e-11
2.05355e-11
8.36648e-12
3.33882e-12
1.31607e-12
5.24989e-13
2.15836e-13
9.71017e-14
4.76034e-14
2.46049e-14
1.27785e-14
6.44186e-15
3.04934e-15
1.30104e-15
5.31312e-16
2.38244e-16
1.18359e-16
6.37074e-17
1.29086e-09
5.71659e-10
2.53596e-10
1.11675e-10
4.74186e-11
1.95379e-11
7.91057e-12
3.06627e-12
1.14226e-12
4.12584e-13
1.47829e-13
5.63647e-14
2.31199e-14
1.06759e-14
5.27876e-15
2.62602e-15
1.24688e-15
5.43877e-16
2.20618e-16
8.498e-17
3.65732e-17
1.73647e-17
8.82325e-18
4.71467e-10
2.23292e-10
9.58016e-11
4.02082e-11
1.66674e-11
6.72455e-12
2.61786e-12
9.62127e-13
3.34699e-13
1.12381e-13
3.65857e-14
1.29412e-14
5.14447e-15
2.23861e-15
1.04248e-15
4.80135e-16
2.11758e-16
8.586e-17
3.29081e-17
1.21988e-17
5.0044e-18
2.22968e-18
1.01688e-18
1.55438e-10
6.45689e-11
2.70247e-11
1.1496e-11
4.82435e-12
1.95558e-12
7.28299e-13
2.57925e-13
8.65312e-14
2.76516e-14
8.63001e-15
2.83451e-15
1.03068e-15
4.1774e-16
1.81015e-16
7.81342e-17
3.17188e-17
1.18227e-17
4.19903e-18
1.53375e-18
5.85726e-19
2.40467e-19
1.04572e-19
2.96229e-11
1.23736e-11
5.69638e-12
2.58542e-12
1.17426e-12
4.8778e-13
1.81139e-13
6.14311e-14
1.98052e-14
5.95718e-15
1.71244e-15
5.29073e-16
1.84111e-16
7.05571e-17
2.88259e-17
1.14665e-17
4.25151e-18
1.46375e-18
4.88166e-19
1.67986e-19
6.07646e-20
2.22688e-20
8.92593e-21
2.23185e-12
1.17127e-12
7.61777e-13
4.5429e-13
2.2737e-13
9.79501e-14
3.80268e-14
1.33925e-14
4.2675e-15
1.21811e-15
3.3765e-16
9.64938e-17
3.09994e-17
1.12069e-17
4.20643e-18
1.52892e-18
5.18812e-19
1.63801e-19
5.03555e-20
1.58527e-20
5.06146e-21
1.67789e-21
1.96349e-22
7.86452e-15
2.41121e-14
5.81849e-14
6.08904e-14
3.78251e-14
1.81847e-14
7.35444e-15
2.61845e-15
8.33417e-16
2.34549e-16
6.11519e-17
1.60467e-17
4.82556e-18
1.6287e-18
5.63525e-19
1.84928e-19
5.44749e-20
1.5762e-20
4.64322e-21
1.32486e-21
4.07972e-22
3.9688e-23
1.08553e-24
8.83104e-21
5.57041e-17
2.41347e-15
6.60447e-15
5.17904e-15
2.80629e-15
1.21892e-15
4.53106e-16
1.46762e-16
4.14301e-17
1.06042e-17
2.67086e-18
7.5626e-19
2.3323e-19
6.96575e-20
1.99732e-20
5.28782e-21
1.42035e-21
3.93691e-22
9.97146e-23
1.87573e-23
5.21181e-25
4.58674e-27
0.95926
0.946542
0.948335
0.956581
0.934739
0.941119
0.971483
0.991187
0.398609
0.309514
0.339484
0.529531
8.25621e-19
5.97144e-14
1.81119e-14
2.51082e-14
2.02798e-06
2.35648e-06
2.98881e-05
2.27429e-05
1.47378e-05
1.29241e-05
7.92117e-06
1.47031e-05
2.85966e-06
1.62933e-06
5.49366e-06
1.25666e-05
2.31132e-06
1.59008e-06
4.36901e-10
4.26176e-10
4.0102e-07
1.8167e-09
1.04385e-09
1.40866e-09
-7.55203e-12
2.36394e-09
4.40303e-09
7.45922e-09
3.19711e-09
2.7444e-09
3.07679e-09
1.13973e-08
1.60765e-10
8.90905e-11
5.8088e-11
6.12859e-11
1.74015e-10
1.25419e-10
9.34255e-11
7.88918e-11
5.71829e-10
5.04483e-10
3.70057e-10
2.3339e-10
1.92007e-09
1.37474e-09
1.0772e-09
5.49913e-10
7.72605e-09
3.03794e-09
2.16441e-09
1.29598e-09
8.6435e-09
6.85468e-09
3.86599e-09
2.96161e-09
6.05417e-09
5.85974e-09
5.79995e-09
4.84925e-09
4.67569e-09
4.28398e-09
3.93418e-09
3.78444e-09
3.11455e-09
2.80981e-09
2.70305e-09
2.54956e-09
1.8269e-09
1.73715e-09
1.6603e-09
1.59006e-09
8.8242e-10
8.53491e-10
8.87171e-10
8.55041e-10
3.50793e-10
3.72964e-10
3.92799e-10
3.93205e-10
1.18529e-10
1.14424e-10
1.40913e-10
1.44695e-10
3.61969e-11
3.45785e-11
3.9031e-11
4.24416e-11
1.06187e-11
9.53192e-12
1.05999e-11
1.14027e-11
3.33682e-12
3.05267e-12
3.03562e-12
2.97497e-12
1.09669e-12
9.20712e-13
8.95338e-13
9.03966e-13
3.67797e-13
3.18257e-13
2.98889e-13
2.72033e-13
1.08057e-13
9.33363e-14
8.36052e-14
7.9953e-14
3.024e-14
2.6069e-14
2.37432e-14
2.11002e-14
7.38783e-15
5.96966e-15
5.40765e-15
4.78056e-15
1.62793e-15
1.34097e-15
1.10501e-15
9.22101e-16
2.92739e-16
2.35546e-16
1.95279e-16
1.53103e-16
4.74917e-17
3.65311e-17
2.78191e-17
2.03602e-17
6.21324e-18
4.51623e-18
3.39767e-18
2.19225e-18
6.80343e-19
4.62669e-19
3.49961e-19
1.64117e-19
6.33464e-20
2.719e-20
1.13001e-20
2.36664e-21
1.53838e-21
3.84777e-22
1.12588e-22
1.28069e-23
8.73944e-25
1.1194e-24
1.82541e-25
6.92835e-27
3.05353e-39
7.00861e-29
2.95708e-28
9.68164e-28
-3.71584e-46
6.50666e-29
2.44366e-28
7.44428e-28
0.986535
0.972447
0.937884
0.931471
0.837997
0.316591
0.5259
0.967337
0.999126
0.999328
0.999482
0.989885
0.823464
0.971052
0.99976
0.999767
0.99224
0.856982
0.847926
0.995423
0.986762
0.916636
0.891801
0.787233
0.444202
0.578332
0.837008
0.935155
0.967285
0.989639
0.991486
0.988994
0.982385
0.920264
0.784437
0.616894
0.571109
0.725575
0.638768
0.539597
0.55156
0.696489
0.622779
0.239533
0.38585
0.508181
0.34238
0.250574
0.275244
0.351018
0.470324
0.385653
0.237968
0.135384
0.1129
0.141033
0.253477
0.0109607
0.013127
0.0342429
0.097507
0.0547131
0.0155547
0.0483424
0.0394954
0.00272721
1.83257e-07
1.02013e-06
-7.24307e-26
5.92314e-27
-1.65612e-25
3.0483e-25
-5.41847e-10
1.46157e-21
1.26886e-20
2.74832e-23
1.96643e-06
1.87132e-06
1.92312e-06
1.87176e-06
2.12121e-06
5.87016e-21
2.31525e-20
2.09819e-20
9.87872e-22
8.90347e-22
6.57222e-08
3.49854e-08
1.27595e-08
6.1055e-07
5.1367e-07
5.07472e-08
1.90841e-06
2.79206e-05
0.000112116
1.48818e-05
1.4023e-05
3.56284e-06
4.64718e-06
9.86803e-06
9.67643e-06
2.01014e-06
-6.61343e-12
3.08558e-09
2.27009e-12
4.93011e-08
9.13056e-08
1.26386e-08
9.60243e-08
6.52422e-09
6.25441e-09
1.29983e-07
1.13262e-05
7.41011e-06
8.63153e-06
3.25905e-06
1.12631e-06
1.32306e-06
2.07615e-06
2.82829e-06
7.49438e-07
6.72062e-08
1.21282e-08
9.72739e-09
4.23896e-08
4.38807e-08
8.25972e-06
1.5988e-05
1.86759e-06
6.52461e-09
3.65666e-06
2.01358e-05
1.18982e-05
5.00433e-09
3.19945e-07
1.28804e-07
3.24481e-08
5.4699e-08
2.70856e-07
5.63503e-08
1.39309e-08
1.13429e-08
2.39534e-09
4.29677e-09
5.47779e-08
3.31365e-06
4.10614e-06
0.000430164
0.00372948
0.00585938
0.00583571
0.00516203
2.34786e-09
2.34814e-09
1.18887e-08
3.22189e-08
3.06863e-08
3.0507e-08
9.25293e-07
8.15255e-07
1.11079e-08
9.40355e-06
1.25739e-05
4.2738e-08
5.1486e-08
1.70739e-05
0.00541187
0.00967012
0.00967344
0.00967013
0.00967344
1.95202e-08
2.97562e-08
4.99294e-08
9.11433e-08
1.23472e-07
5.14752e-07
1.19406e-06
3.69661e-06
8.02813e-06
9.59456e-06
4.01966e-05
0.000190197
0.000203534
0.000478618
0.00447307
0.0071398
0.00711051
0.00550534
0.00611856
2.10346e-08
3.26166e-08
3.66014e-08
1.47737e-08
8.77082e-11
1.14767e-07
1.3617e-08
1.87914e-07
1.91792e-05
3.17486e-05
5.27997e-05
0.000127413
0.000201415
0.000459365
0.000335096
0.000216975
1.28556e-07
1.40207e-16
0.000109102
3.09389e-11
2.25853e-11
2.29067e-11
2.26014e-11
7.3924e-11
6.81625e-11
5.91878e-11
5.361e-08
5.63667e-06
1.21799e-05
2.26972e-05
3.04049e-05
4.71823e-05
4.53007e-05
1.06922e-06
3.24604e-10
1.40207e-16
2.23584e-11
1.21688e-06
7.05307e-11
6.67768e-11
8.08906e-11
1.39871e-10
3.32839e-10
9.16277e-10
1.92676e-09
1.17193e-08
4.939e-07
1.16648e-06
2.50026e-07
4.4075e-06
2.56988e-06
1.03201e-09
2.08026e-09
3.73698e-09
1.16117e-08
9.10071e-09
1.17213e-07
1.59601e-10
1.04995e-10
1.36011e-10
2.28739e-10
5.007e-10
1.58074e-09
5.8489e-09
1.0523e-08
6.37785e-09
2.97826e-09
1.53722e-08
7.09635e-10
7.12951e-10
2.11548e-09
5.76843e-09
2.093e-08
2.39491e-08
1.65899e-08
1.04874e-08
2.5686e-10
1.17349e-10
1.37424e-10
1.8921e-10
2.92109e-10
4.67947e-10
8.67109e-10
1.99229e-09
2.45482e-09
2.85475e-09
4.12588e-09
7.27072e-10
7.67358e-10
3.64671e-09
8.78394e-09
1.87054e-08
2.11699e-08
1.29861e-08
1.02287e-08
5.60099e-10
1.32016e-10
1.31333e-10
1.41532e-10
1.87416e-10
3.04198e-10
5.2855e-10
1.09146e-09
1.25865e-09
1.27433e-09
1.20492e-09
5.68622e-10
6.30602e-10
2.50939e-09
5.71757e-09
1.0265e-08
1.04517e-08
7.57427e-09
8.40509e-09
1.47195e-09
3.56375e-10
1.5957e-10
1.45302e-10
1.53245e-10
1.82555e-10
2.30517e-10
3.87096e-10
5.2108e-10
5.71554e-10
4.86754e-10
3.53738e-10
3.57858e-10
9.28069e-10
2.31553e-09
3.40878e-09
3.59421e-09
2.49488e-09
3.35912e-09
2.65622e-09
1.09033e-09
4.15026e-10
2.19557e-10
1.59599e-10
1.5666e-10
1.64617e-10
1.86704e-10
2.26805e-10
2.44871e-10
2.36821e-10
1.86441e-10
1.7448e-10
2.65324e-10
5.69487e-10
8.14816e-10
7.79068e-10
5.06575e-10
5.82635e-10
3.40273e-09
1.79438e-09
8.7669e-10
4.6493e-10
2.46034e-10
1.59106e-10
1.25278e-10
1.17535e-10
1.16394e-10
1.12454e-10
1.02798e-10
8.42423e-11
6.98282e-11
7.13625e-11
9.70059e-11
1.15619e-10
9.82482e-11
5.10395e-11
2.42689e-11
2.4483e-09
1.95439e-09
1.14972e-09
7.09085e-10
4.19666e-10
2.24838e-10
1.22431e-10
7.95991e-11
6.26823e-11
5.46469e-11
4.75777e-11
3.95469e-11
2.84158e-11
1.90892e-11
1.32226e-11
1.21742e-11
7.88644e-12
1.70196e-12
4.56696e-13
1.47658e-09
1.36154e-09
1.13295e-09
7.56839e-10
4.99894e-10
2.97581e-10
1.62143e-10
7.97023e-11
4.42531e-11
3.22353e-11
2.56279e-11
1.84975e-11
1.09434e-11
5.11447e-12
1.8641e-12
8.46254e-13
9.54559e-14
3.85361e-14
2.1789e-14
8.26192e-10
7.68393e-10
6.87461e-10
6.15486e-10
4.69708e-10
3.11508e-10
1.92065e-10
1.00401e-10
4.76073e-11
2.49681e-11
1.48661e-11
8.0034e-12
3.85017e-12
1.46821e-12
3.76585e-13
9.21522e-14
1.15498e-14
4.28344e-15
1.56766e-15
3.8406e-10
3.7513e-10
3.4787e-10
3.10287e-10
2.76656e-10
2.41777e-10
1.68548e-10
1.03479e-10
5.41744e-11
2.42568e-11
9.98559e-12
3.88628e-12
1.43154e-12
4.59396e-13
1.12508e-13
2.47192e-14
2.47694e-15
8.34647e-16
2.78667e-16
1.4501e-10
1.45687e-10
1.45245e-10
1.35154e-10
1.22104e-10
1.07642e-10
9.60761e-11
7.21625e-11
4.4366e-11
2.22037e-11
8.81464e-12
2.77103e-12
7.36572e-13
1.83206e-13
4.09424e-14
5.31074e-15
7.25795e-16
4.13242e-16
1.64827e-16
4.17344e-11
4.51768e-11
4.64179e-11
4.5136e-11
4.28519e-11
3.91147e-11
3.6792e-11
3.167e-11
2.39803e-11
1.46701e-11
6.87699e-12
2.21021e-12
4.90517e-13
9.03237e-14
1.70099e-14
1.33708e-15
3.33743e-16
2.72769e-16
1.13775e-16
1.10484e-11
1.13278e-11
1.1622e-11
1.17859e-11
1.13761e-11
1.09317e-11
1.06131e-11
1.0017e-11
8.78728e-12
6.77218e-12
3.87407e-12
1.42937e-12
3.11099e-13
4.40486e-14
4.7807e-15
3.06625e-16
1.64227e-16
1.70338e-16
7.54216e-17
2.80164e-12
2.7825e-12
2.71346e-12
2.62286e-12
2.53982e-12
2.48716e-12
2.46077e-12
2.40486e-12
2.44457e-12
2.21646e-12
1.53467e-12
6.75211e-13
1.63654e-13
2.0561e-14
1.05922e-15
7.97781e-17
7.93053e-17
9.86702e-17
5.27338e-17
8.06461e-13
7.1501e-13
6.60865e-13
5.91021e-13
5.3924e-13
5.00448e-13
4.66484e-13
4.72868e-13
5.33421e-13
5.53458e-13
4.45903e-13
2.35897e-13
5.4481e-14
4.35137e-15
1.84515e-16
3.25016e-17
3.75511e-17
7.02215e-17
3.30031e-17
2.28269e-13
1.9495e-13
1.60481e-13
1.30893e-13
1.11384e-13
8.70911e-14
7.39079e-14
7.96185e-14
9.46458e-14
1.05822e-13
9.73149e-14
4.88642e-14
6.38062e-15
3.2075e-16
1.73765e-17
1.1597e-17
1.80076e-17
4.28984e-17
2.09656e-17
6.42186e-14
5.02014e-14
3.77478e-14
3e-14
2.27075e-14
1.23178e-14
7.99782e-15
9.276e-15
1.22664e-14
1.52178e-14
1.33596e-14
3.30834e-15
4.38591e-16
1.77293e-17
2.24083e-18
3.86947e-18
9.83689e-18
2.95567e-17
1.20661e-17
1.56328e-14
1.10475e-14
7.88459e-15
6.07736e-15
3.32869e-15
1.17104e-15
5.20742e-16
7.12011e-16
1.11088e-15
1.50495e-15
5.65128e-16
1.69935e-16
2.12307e-17
6.09324e-19
5.06737e-19
1.9228e-18
7.20748e-18
1.65349e-17
6.76586e-18
3.32869e-15
2.21208e-15
1.61224e-15
8.62994e-16
3.09698e-16
5.58615e-17
1.90975e-17
3.88888e-17
8.2255e-17
3.23125e-17
1.50556e-17
5.55841e-18
6.24829e-19
9.55926e-20
2.66488e-19
1.38333e-18
5.14285e-18
1.0636e-17
3.46306e-18
5.87748e-16
3.88409e-16
2.18296e-16
7.10791e-17
1.1558e-17
7.09484e-19
4.72209e-19
1.72038e-18
8.03547e-19
4.70601e-19
2.96798e-19
8.58881e-20
2.74402e-20
4.81436e-20
1.86528e-19
1.05446e-18
3.60391e-18
5.33645e-18
1.74914e-18
9.02621e-17
5.52401e-17
1.83538e-17
2.46499e-18
1.11374e-19
4.96974e-21
1.1995e-20
7.67427e-21
7.05584e-21
7.95517e-21
7.60141e-21
9.5664e-21
1.68726e-20
3.92279e-20
1.57314e-19
8.64426e-19
2.26365e-18
3.1814e-18
7.72286e-19
1.24235e-17
4.12036e-18
6.11525e-19
2.39409e-20
2.22909e-22
1.10638e-22
1.45484e-22
2.95598e-22
6.71322e-22
1.5238e-21
3.52626e-21
7.79219e-21
1.54051e-20
3.62337e-20
1.47691e-19
6.32853e-19
1.434e-18
1.33709e-18
3.44944e-19
1.0635e-18
1.5172e-19
4.40248e-21
2.47472e-23
1.34825e-23
2.7189e-23
7.31685e-23
2.05103e-22
5.48066e-22
1.3942e-21
3.38334e-21
7.52152e-21
1.48124e-20
3.41556e-20
1.22563e-19
3.97645e-19
8.32683e-19
7.27836e-19
1.23073e-19
2.21639e-20
4.7678e-22
3.0973e-24
2.56958e-24
6.71621e-24
2.13584e-23
6.41144e-23
1.81892e-22
4.86964e-22
1.24371e-21
3.01233e-21
6.60738e-21
1.29132e-20
2.93002e-20
9.40038e-20
2.61724e-19
4.53865e-19
2.50439e-19
4.80672e-20
1.71682e-22
1.38282e-24
5.50922e-25
1.62564e-24
5.55553e-24
1.76158e-23
5.31229e-23
1.49029e-22
3.98502e-22
1.0149e-21
2.42606e-21
5.32747e-21
1.03254e-20
2.27033e-20
6.59588e-20
1.61918e-19
1.99644e-19
1.10995e-19
1.65403e-20
5.50259e-25
9.34361e-26
3.33469e-25
1.23824e-24
4.17819e-24
1.30824e-23
3.87639e-23
1.08273e-22
2.89569e-22
7.39795e-22
1.77369e-21
3.83935e-21
7.37696e-21
1.61579e-20
3.93054e-20
9.2908e-20
8.01405e-20
3.03759e-20
6.55199e-21
1.22833e-26
5.83194e-26
2.27602e-25
7.79677e-25
2.52517e-24
7.66857e-24
2.27914e-23
6.55657e-23
1.77417e-22
4.57316e-22
1.09961e-21
2.43348e-21
4.86364e-21
1.0158e-20
2.12991e-20
4.38038e-20
2.67369e-20
1.05387e-20
2.9173e-21
7.87506e-27
3.25447e-26
1.14364e-25
3.65804e-25
1.16236e-24
3.63271e-24
1.09812e-23
3.21401e-23
8.99765e-23
2.42696e-22
6.02591e-22
1.33832e-21
2.62288e-21
5.64035e-21
1.04736e-20
1.64793e-20
7.11744e-21
3.35351e-21
7.75906e-22
2.85824e-27
9.73586e-27
3.00041e-26
9.02726e-26
3.22483e-25
1.10026e-24
3.69687e-24
1.15649e-23
3.46016e-23
9.70939e-23
2.5129e-22
5.83447e-22
1.15441e-21
2.34738e-21
3.70173e-21
4.18427e-21
1.71055e-21
5.26819e-22
3.65846e-23
)
;

boundaryField
{
    leftWall
    {
        type            alphaContactAngle;
        contactAngleProperties 
        {
            mercury         
            {
                theta0          90;
            }
            air             
            {
                theta0          90;
            }
            oil             
            {
                theta0          90;
            }
        }
        value           nonuniform List<scalar> 
50
(
1.04635e-10
2.16538e-10
2.2152e-10
1.76677e-10
1.12785e-07
0.485082
0.996805
1
1
0.999695
0.892871
0.56304
0.00999895
6.72499e-05
6.82132e-05
8.9138e-05
3.41008e-05
4.99828e-07
2.39723e-07
4.03037e-07
6.53726e-07
3.17846e-07
8.83947e-08
2.66232e-08
1.77835e-08
1.96667e-08
2.01648e-08
1.99449e-08
1.8923e-08
1.83521e-08
1.80112e-08
1.79793e-08
1.79819e-08
1.79782e-08
1.7461e-08
1.61543e-08
1.40719e-08
1.30109e-08
1.02532e-08
8.69913e-09
6.1126e-09
4.46257e-09
2.47966e-09
1.29086e-09
4.71467e-10
1.55438e-10
2.96229e-11
2.23185e-12
7.86452e-15
8.83104e-21
)
;
    }
    rightWall
    {
        type            alphaContactAngle;
        contactAngleProperties 
        {
            mercury         
            {
                theta0          90;
            }
            air             
            {
                theta0          90;
            }
            oil             
            {
                theta0          90;
            }
        }
        value           nonuniform List<scalar> 
50
(
0.011685
0.0114535
0.000644142
0.0584799
0.441204
0.608398
0.744592
0.81484
0.847926
0.725575
0.253477
2.74832e-23
0.000112116
7.41011e-06
1.18982e-05
0.00516203
0.00967344
0.00611856
0.000109102
1.21688e-06
1.17213e-07
1.04874e-08
1.02287e-08
8.40509e-09
3.35912e-09
5.82635e-10
2.42689e-11
4.56696e-13
2.1789e-14
1.56766e-15
2.78667e-16
1.64827e-16
1.13775e-16
7.54216e-17
5.27338e-17
3.30031e-17
2.09656e-17
1.20661e-17
6.76586e-18
3.46306e-18
1.74914e-18
7.72286e-19
3.44944e-19
1.23073e-19
4.80672e-20
1.65403e-20
6.55199e-21
2.9173e-21
7.75906e-22
3.65846e-23
)
;
    }
    lowerWall
    {
        type            alphaContactAngle;
        contactAngleProperties 
        {
            mercury         
            {
                theta0          90;
            }
            air             
            {
                theta0          90;
            }
            oil             
            {
                theta0          90;
            }
        }
        value           nonuniform List<scalar> 
62
(
1.04635e-10
1.3077e-10
1.50751e-10
1.55608e-10
1.61925e-10
1.68639e-10
1.76172e-10
1.83394e-10
1.89075e-10
1.9417e-10
1.99494e-10
2.05531e-10
2.16185e-10
2.38325e-10
2.82139e-10
3.50701e-10
4.42119e-10
5.50308e-10
9.98462e-10
1.97327e-09
2.70234e-09
2.77666e-09
2.77623e-09
2.77623e-09
2.09278e-09
1.23111e-09
7.90108e-10
1.38827e-10
9.95769e-11
0.117699
0.810833
0.95926
0.946542
0.948335
0.956581
0.00844495
0.0084039
0.00837342
0.0565819
0.505174
0.882023
0.901201
0.889673
0.00844495
0.0357437
0.0498481
0.043372
0.0145586
0.00172645
0.000912947
0.00089673
0.000858418
0.000896704
0.00865651
0.0396744
0.124401
0.1244
0.12441
0.123305
0.0405126
0.00259836
0.011685
)
;
    }
    atmosphere
    {
        type            inletOutlet;
        inletValue      uniform 0;
        value           nonuniform List<scalar> 
46
(
0
0
0
6.60448e-15
5.17905e-15
2.80629e-15
1.21892e-15
4.53106e-16
1.46762e-16
4.14301e-17
1.06042e-17
2.67086e-18
7.5626e-19
2.3323e-19
6.96575e-20
1.99732e-20
0
0
0
0
0
0
0
0
0
0
0
0
0
0
0
3.22483e-25
1.10026e-24
3.69687e-24
1.1565e-23
3.46016e-23
9.70939e-23
2.5129e-22
5.83447e-22
1.15441e-21
0
0
0
0
0
0
)
;
    }
    defaultFaces
    {