/*--------------------------------*- C++ -*----------------------------------*\
  =========                 |
  \\      /  F ield         | OpenFOAM: The Open Source CFD Toolbox
   \\    /   O peration     | Website:  https://openfoam.org
    \\  /    A nd           | Version:  13
     \\/     M anipulation  |
\*---------------------------------------------------------------------------*/
FoamFile
{
    format      ascii;
    class       volScalarField;
    location    "2.75";
    object      epsilon;
}
// * * * * * * * * * * * * * * * * * * * * * * * * * * * * * * * * * * * * * //

dimensions      [0 2 -3 0 0 0 0];

internalField   nonuniform List<scalar> 
2268
(
0.00281381
0.0149203
0.0298955
0.0447549
0.0585444
0.0709358
0.081786
0.0910123
0.0986366
0.104796
0.109578
0.11299
0.11496
0.115392
0.114256
0.111822
0.107918
0.101787
0.0925813
0.0792465
0.0603784
0.0353927
0.0102139
0.00490038
0.00970795
0.0160993
0.022504
0.0284947
0.0339106
0.0386861
0.042801
0.0462478
0.0490151
0.051094
0.0524836
0.0531808
0.0531689
0.0524593
0.0511424
0.0492005
0.0464924
0.0428139
0.0379038
0.0314595
0.0235652
0.0172202
0.0082922
0.0100608
0.0145137
0.0190503
0.0233348
0.0272563
0.0307633
0.033829
0.0364315
0.0385466
0.0401561
0.0412547
0.0418446
0.0419317
0.0415444
0.0407495
0.0395739
0.0379956
0.0359644
0.0334299
0.0303968
0.0273202
0.0293813
0.0118616
0.0113935
0.0148536
0.0185119
0.0220158
0.0252673
0.0282158
0.0308244
0.0330626
0.0349065
0.0363379
0.0373492
0.037944
0.0381394
0.0379777
0.0375278
0.0368411
0.0359526
0.0349081
0.0338229
0.0330165
0.0335744
0.0438686
0.0158115
0.0132036
0.0159275
0.0190115
0.0220302
0.0248795
0.0275022
0.0298484
0.0318798
0.0335762
0.0349209
0.0359038
0.0365282
0.0368186
0.0368286
0.0366338
0.0363052
0.0359193
0.0356038
0.0356448
0.0367854
0.0413097
0.0630146
0.0204694
0.0153657
0.0174257
0.0200592
0.0227235
0.0252955
0.0277051
0.0298847
0.0317865
0.033396
0.0346973
0.0356771
0.0363361
0.0367044
0.0368452
0.0368413
0.03678
0.0367713
0.0370131
0.0379597
0.0408907
0.0502646
0.0919828
0.0257762
0.0178084
0.0192237
0.0214641
0.0238426
0.026208
0.0284737
0.0305486
0.0323699
0.0339308
0.0352158
0.0362065
0.0368987
0.0373255
0.0375593
0.0376915
0.0378241
0.0380918
0.0387435
0.0403662
0.0447723
0.0597182
0.142495
0.0307236
0.0204628
0.0212391
0.0230873
0.0251794
0.0273381
0.0294679
0.031471
0.033273
0.0348501
0.0361741
0.0372176
0.0379614
0.038436
0.0387294
0.0389473
0.0392084
0.039661
0.0405767
0.042601
0.0477937
0.066934
0.245528
0.0108338
0.0310343
0.0504792
0.069715
0.0884494
0.0919676
0.09608
0.0993864
0.0970748
0.0917563
0.0792779
0.0671915
0.0641452
0.0582122
0.0485109
0.0414126
0.0311419
0.0182677
0.00330544
0.013209
0.0226149
0.030675
0.0372815
0.0425538
0.044472
0.0455572
0.0463274
0.0453627
0.0426419
0.0386763
0.0353448
0.0318489
0.028532
0.0246195
0.0213184
0.0173654
0.0123717
0.00629305
0.0190761
0.0219951
0.0278902
0.0327517
0.0361357
0.0372996
0.0376185
0.0378589
0.0370329
0.0349613
0.0321923
0.0297355
0.0269968
0.024173
0.0214422
0.0191702
0.0169727
0.014624
0.0126449
0.0237528
0.0227366
0.0279464
0.0319702
0.0343572
0.0353275
0.0354108
0.0354865
0.0345514
0.0328431
0.0305394
0.0284102
0.0262081
0.0234727
0.0212354
0.0196256
0.0186952
0.0188464
0.0231406
0.0270305
0.0242609
0.0293831
0.0326188
0.0339456
0.0344181
0.0344204
0.0342472
0.033116
0.0315103
0.029729
0.0281932
0.0270024
0.0238309
0.0218859
0.0209171
0.0206528
0.0224748
0.0420626
0.0270337
0.0268647
0.0317697
0.0342132
0.0345518
0.0343297
0.0339743
0.0333859
0.0321939
0.0306772
0.0291436
0.0278814
0.0282619
0.0241555
0.0227075
0.0219086
0.021399
0.022823
0.0460877
0.0306445
0.0312913
0.0347659
0.0363828
0.0358578
0.0348674
0.0341152
0.0332401
0.0319777
0.0304949
0.0291109
0.0278172
0.0278458
0.0245312
0.0232369
0.022295
0.0215592
0.0224584
0.0450585
0.0486352
0.0388844
0.0383756
0.0384956
0.037376
0.0357666
0.0347002
0.0336364
0.032171
0.0306171
0.029264
0.0279507
0.0274128
0.0250511
0.0236733
0.022636
0.0218431
0.0223563
0.0418205
0.0392113
0.0250318
0.0247544
0.0259227
0.0274739
0.0291841
0.0309536
0.0327052
0.0343893
0.0359598
0.0373591
0.0385239
0.0394148
0.0400535
0.0405059
0.0408849
0.0413273
0.0419857
0.0431264
0.0453403
0.0501455
0.062386
0.100757
0.0516107
0.0316895
0.0300606
0.0303448
0.0311666
0.0322265
0.033397
0.0346112
0.0358339
0.0370325
0.0381635
0.0391858
0.0400719
0.0408257
0.0414824
0.0421044
0.0427767
0.0436073
0.0447813
0.0466506
0.0499234
0.0560446
0.0677084
0.0616647
0.0385807
0.0356238
0.0350589
0.0352241
0.03572
0.036389
0.0371571
0.0379885
0.0388508
0.0397089
0.0405319
0.0412996
0.0420073
0.0426732
0.0433363
0.0440519
0.0448839
0.0459265
0.0473439
0.0493935
0.05244
0.0567448
0.0731547
0.045643
0.041156
0.0397435
0.0393075
0.0393199
0.0395978
0.0400354
0.0405704
0.0411697
0.0418074
0.0424608
0.0431117
0.0437425
0.0443571
0.0449958
0.0457028
0.0464994
0.0474124
0.0485024
0.0498142
0.0513552
0.0530239
0.0855638
0.0522812
0.0463444
0.0441878
0.0432372
0.0428491
0.042803
0.0429667
0.0432579
0.0436372
0.0440845
0.0445789
0.0450939
0.0456061
0.0461252
0.046685
0.0473172
0.0480159
0.0487685
0.0495738
0.0503809
0.0510981
0.0516249
0.096679
0.0583132
0.0509247
0.048187
0.0468421
0.0461377
0.0458069
0.0457076
0.0457738
0.0459599
0.0462322
0.0465577
0.0469088
0.0472787
0.0476745
0.0481132
0.0486156
0.0491814
0.049777
0.0503516
0.0508239
0.0511
0.051143
0.110398
0.0631032
0.0547639
0.0515768
0.049915
0.0489492
0.0483566
0.0480172
0.0478872
0.0479096
0.0480303
0.0482101
0.0484244
0.0486684
0.0489443
0.0492579
0.0496243
0.0500526
0.0505083
0.0509176
0.0511837
0.0512301
0.0510712
0.124547
0.0675821
0.0579871
0.0543351
0.0523924
0.0511842
0.0503668
0.0498377
0.0495527
0.0494509
0.0494669
0.0495522
0.049679
0.049835
0.0500138
0.0502173
0.0504612
0.0507627
0.0510998
0.0513908
0.0515247
0.0514363
0.0511779
0.127826
0.0711294
0.0606888
0.0565589
0.0543015
0.0528693
0.0518739
0.051203
0.0508143
0.0506421
0.0506123
0.0506639
0.050756
0.0508638
0.0509722
0.0510827
0.0512204
0.0514216
0.0516814
0.0519066
0.0519485
0.0517302
0.0513521
0.132572
0.0728149
0.0627142
0.0583105
0.0557232
0.0540713
0.0529369
0.0521801
0.0517369
0.0515428
0.051524
0.0516001
0.0517099
0.0518109
0.051878
0.051911
0.0519461
0.0520287
0.0521394
0.0521812
0.0520533
0.0517312
0.0513375
0.122616
0.0741405
0.0640686
0.0594863
0.0565482
0.0544769
0.0530242
0.0520814
0.0515262
0.0512875
0.0513024
0.051466
0.0516836
0.0518765
0.0519879
0.051996
0.0519296
0.0518405
0.051741
0.0516123
0.0514242
0.0511548
0.0508616
0.12827
0.0752967
0.0643139
0.0593092
0.0562527
0.054049
0.0523615
0.0511852
0.0504977
0.0502315
0.0502564
0.0504119
0.0505954
0.0507451
0.0508202
0.0508075
0.0507312
0.0506384
0.0505552
0.0504684
0.0503402
0.050145
0.0499164
0.1429
0.0758696
0.0631348
0.0577461
0.0546526
0.0525185
0.0508774
0.0496867
0.0489601
0.04865
0.0486312
0.0487402
0.0488756
0.0489905
0.0490604
0.0490795
0.0490643
0.0490424
0.0490297
0.0490088
0.0489469
0.0488262
0.0486684
0.147469
0.0741989
0.0604904
0.0550212
0.0520912
0.0502192
0.0488307
0.0478029
0.0471583
0.0468702
0.0468378
0.0469243
0.0470429
0.0471578
0.0472513
0.0473186
0.0473672
0.0474088
0.0474476
0.0474675
0.0474438
0.047366
0.047249
0.142489
0.0704084
0.0569311
0.051715
0.0490708
0.0475151
0.0464653
0.0457096
0.0452363
0.045029
0.0450171
0.045113
0.0452503
0.0453949
0.0455285
0.0456438
0.0457409
0.0458214
0.0458824
0.0459142
0.0459002
0.0458344
0.0457268
0.132876
0.0654419
0.0529375
0.0482153
0.0459285
0.0446887
0.0439666
0.0435108
0.0432518
0.0431649
0.0432109
0.0433455
0.0435222
0.0437084
0.0438848
0.0440414
0.0441735
0.0442778
0.0443494
0.0443815
0.0443659
0.0443012
0.0441946
0.121128
0.0599057
0.0487785
0.0447051
0.0428265
0.0418977
0.0414529
0.0412565
0.0412084
0.0412654
0.0414037
0.0416013
0.0418288
0.0420607
0.042279
0.0424727
0.0426353
0.0427614
0.0428464
0.042886
0.0428765
0.0428182
0.0427167
0.108398
0.0542063
0.044641
0.0412863
0.0398357
0.0392029
0.0389883
0.0390021
0.0391321
0.0393302
0.0395733
0.0398468
0.0401329
0.0404136
0.0406748
0.0409064
0.0411017
0.0412556
0.041364
0.0414244
0.0414351
0.0413969
0.0413137
0.0956464
0.0487016
0.0407033
0.0380503
0.0370057
0.0366403
0.0366198
0.0367939
0.0370632
0.0373797
0.0377195
0.0380689
0.0384158
0.0387477
0.0390542
0.0393271
0.0395607
0.0397506
0.0398936
0.0399884
0.0400337
0.0400302
0.0399794
0.0838479
0.043709
0.0371247
0.0350822
0.0343825
0.0342388
0.0343728
0.0346614
0.035036
0.0354437
0.0358624
0.0362789
0.036683
0.0370655
0.0374184
0.0377355
0.0380121
0.0382448
0.0384312
0.0385704
0.0386613
0.0387034
0.0386959
0.0741538
0.0395343
0.0340249
0.0324447
0.0320035
0.0320239
0.0322702
0.0326405
0.0330817
0.0335545
0.0340324
0.0345028
0.0349563
0.035385
0.0357827
0.0361442
0.0364658
0.0367448
0.0369793
0.0371684
0.0373107
0.0374045
0.0374463
0.0667378
0.0361773
0.0314289
0.0301567
0.0298837
0.0300098
0.0303274
0.0307491
0.03123
0.0317426
0.0322608
0.0327709
0.0332638
0.0337321
0.0341703
0.0345738
0.0349395
0.0352648
0.0355482
0.0357883
0.0359835
0.0361305
0.0362234
0.0611129
0.0334935
0.0292658
0.0281869
0.028011
0.0281941
0.0285493
0.0289978
0.0294995
0.0300307
0.030574
0.0311112
0.0316336
0.0321342
0.0326074
0.0330489
0.0334555
0.0338249
0.0341551
0.0344446
0.0346908
0.0348893
0.0350321
0.0568897
0.0313328
0.027448
0.0264807
0.0263531
0.026561
0.0269304
0.0273879
0.0278973
0.0284371
0.0289919
0.0295466
0.0300907
0.030617
0.03112
0.0315952
0.0320393
0.0324495
0.0328236
0.0331591
0.0334531
0.0336996
0.0338893
0.0536513
0.0295436
0.0258826
0.0249768
0.0248698
0.025085
0.0254569
0.0259154
0.0264258
0.0269679
0.0275277
0.0280943
0.0286553
0.0292034
0.0297328
0.0302388
0.0307176
0.0311659
0.0315809
0.0319593
0.0322972
0.0325879
0.0328211
0.0510146
0.0279937
0.0244896
0.0236213
0.0235238
0.0237408
0.0241126
0.024571
0.0250823
0.025627
0.0261923
0.0267683
0.0273446
0.0279134
0.0284685
0.0290046
0.0295175
0.0300029
0.0304571
0.0308761
0.0312551
0.0315866
0.0318599
0.0486839
0.0265869
0.0232124
0.0223761
0.0222885
0.0225099
0.022885
0.0233473
0.0238636
0.0244154
0.0249905
0.0255798
0.0261746
0.026767
0.0273503
0.0279189
0.0284674
0.0289909
0.0294845
0.0299435
0.0303619
0.0307319
0.0310425
0.0464766
0.0252672
0.0220204
0.0212211
0.0211502
0.021383
0.0217686
0.0222418
0.0227705
0.0233368
0.0239294
0.0245397
0.0251604
0.0257834
0.0264017
0.0270086
0.0275977
0.0281631
0.0286988
0.0291988
0.0296566
0.0300637
0.0304092
0.0443027
0.024012
0.0209041
0.0201525
0.0201079
0.020361
0.0207656
0.0212585
0.0218087
0.0223995
0.0230202
0.0236631
0.024321
0.0249859
0.0256497
0.0263045
0.0269425
0.0275564
0.028139
0.0286831
0.0291815
0.0296253
0.030004
0.0421435
0.0228223
0.0198696
0.0191783
0.0191707
0.0194536
0.0198863
0.0204083
0.0209906
0.0216179
0.0222806
0.0229711
0.023682
0.0244044
0.0251286
0.0258447
0.0265432
0.0272148
0.0278511
0.0284439
0.0289849
0.0294655
0.0298758
0.0400177
0.0217131
0.0189337
0.0183163
0.0183569
0.018679
0.0191487
0.0197096
0.0203358
0.0210142
0.0217362
0.0224941
0.023279
0.0240798
0.024884
0.0256788
0.0264522
0.0271931
0.0278913
0.0285378
0.0291239
0.0296412
0.0300809
0.0379683
0.0207089
0.0181224
0.0175947
0.0176949
0.018065
0.0185797
0.0191891
0.0198724
0.0206198
0.0214235
0.0222748
0.0231614
0.024068
0.0249773
0.0258725
0.0267383
0.0275613
0.0283302
0.0290352
0.029668
0.0302207
0.0306858
0.0360478
0.0198441
0.0174764
0.0170583
0.01723
0.0176541
0.0182185
0.0188843
0.0196391
0.0204774
0.0213924
0.0223718
0.0233973
0.0244457
0.0254923
0.0265142
0.0274922
0.0284108
0.0292582
0.030025
0.0307039
0.0312881
0.0317724
0.0343374
0.0191784
0.0170717
0.0167894
0.0170396
0.0175135
0.0181225
0.0188466
0.0196865
0.0206432
0.0217089
0.0228642
0.0240792
0.0253173
0.0265421
0.0277221
0.0288336
0.0298602
0.0307912
0.0316195
0.0323399
0.0329485
0.0334422
0.0329956
0.0188476
0.0170735
0.016951
0.0172626
0.0177519
0.0183745
0.0191432
0.0200779
0.0211863
0.0224562
0.0238541
0.0253294
0.0268225
0.0282779
0.0296528
0.0309192
0.0320626
0.0330767
0.0339599
0.0347119
0.0353324
0.0358217
0.0324236
0.0192129
0.0178675
0.0178762
0.0181478
0.018539
0.0190875
0.0198544
0.0208826
0.0221829
0.023731
0.0254671
0.027304
0.0291428
0.0308974
0.0325094
0.0339498
0.0352113
0.0362989
0.0372215
0.0379872
0.0386016
0.0390687
0.0337076
0.0212589
0.0203394
0.0202171
0.0201121
0.0201166
0.0203942
0.0210571
0.0221588
0.0236998
0.0256292
0.0278425
0.0301903
0.0325047
0.0346493
0.036547
0.0381746
0.0395437
0.0406816
0.0416161
0.0423687
0.0429529
0.043377
0.0399504
0.0275316
0.0263548
0.0251053
0.0237518
0.0227609
0.0224038
0.0227851
0.0239177
0.0257596
0.0282133
0.0311067
0.0341888
0.0371713
0.0398294
0.0420691
0.04389
0.0453406
0.0464888
0.047394
0.0480973
0.0486228
0.048983
0.060411
0.0438422
0.0390958
0.0340203
0.0296467
0.026632
0.0251031
0.0249628
0.0260687
0.0282845
0.0314491
0.0353083
0.0394622
0.0434156
0.0467585
0.0494097
0.0514302
0.052921
0.0540219
0.0548437
0.0554551
0.0558922
0.0561715
0.124631
0.0807046
0.0617634
0.0476801
0.0377381
0.031472
0.0282155
0.0273322
0.0283636
0.0310257
0.0351025
0.0402841
0.0460159
0.0514964
0.055753
0.0588977
0.0611586
0.0626418
0.0636221
0.0642973
0.0647724
0.0650954
0.0652853
0.342952
0.148346
0.0925739
0.0638075
0.0464492
0.0362958
0.0311106
0.0294318
0.0303779
0.0335058
0.0385981
0.0454076
0.0534355
0.0618913
0.0672432
0.0708642
0.0735149
0.0749227
0.0756845
0.0761441
0.0764435
0.076636
0.0767399
1.57587
0.209244
0.116042
0.0757584
0.0525147
0.0394699
0.0329193
0.030697
0.0315888
0.0350499
0.0409229
0.0491994
0.0602106
0.0776696
0.0831778
0.086333
0.0893332
0.0903282
0.0906875
0.0908553
0.090952
0.0910104
0.0910396
0.293286
0.242405
0.215257
0.18773
0.0832425
0.085374
0.0831954
0.0780727
0.0600546
0.0611614
0.0609474
0.0596399
0.053937
0.0542241
0.054121
0.0536252
0.0517785
0.0517709
0.0516337
0.0513589
0.0510407
0.0509377
0.0507931
0.0506017
0.050884
0.0507561
0.0506232
0.0504836
0.0509567
0.0508238
0.0507051
0.0506005
0.0510767
0.0509268
0.0508081
0.0507184
0.051078
0.0509176
0.0507808
0.0506765
0.0506488
0.0505144
0.0503956
0.050287
0.049735
0.0496157
0.0494992
0.0493879
0.0485329
0.0484322
0.0483226
0.0482079
0.0471331
0.0470381
0.0469284
0.0468115
0.0456125
0.0455185
0.0454091
0.0452921
0.0440798
0.0439863
0.0438784
0.0437627
0.0426054
0.0425163
0.0424139
0.0423036
0.0412155
0.0411366
0.0410457
0.0409462
0.0399041
0.0398413
0.0397672
0.0396837
0.0386507
0.0386081
0.0385547
0.0384908
0.0374355
0.0374152
0.0373844
0.0373419
0.036248
0.0362506
0.0362423
0.0362214
0.0350913
0.0351159
0.0351293
0.0351292
0.0339811
0.034026
0.0340595
0.0340785
0.0329429
0.0330064
0.0330581
0.0330945
0.0320093
0.0320898
0.0321577
0.0322099
0.0312173
0.0313133
0.031396
0.0314622
0.0306074
0.0307175
0.0308133
0.030892
0.0302238
0.0303465
0.0304537
0.0305429
0.0301149
0.0302486
0.0303651
0.0304624
0.0303362
0.0304785
0.0306017
0.0307038
0.0309531
0.0311006
0.0312265
0.0313291
0.0320453
0.0321934
0.0323167
0.0324139
0.0337119
0.0338543
0.033968
0.034052
0.036077
0.0362058
0.0363015
0.0363627
0.0392963
0.0394027
0.0394707
0.0394988
0.0435636
0.043639
0.0436708
0.043656
0.0491183
0.0491572
0.0491476
0.0490852
0.0562523
0.0562554
0.0562078
0.0561028
0.0653188
0.0652961
0.0652259
0.0650993
0.0767436
0.0767138
0.0766492
0.0765407
0.0910358
0.0910215
0.0909944
0.0909505
0.0836443
0.0540285
0.0445239
0.0411761
0.0392156
0.0374244
0.0361165
0.0346971
0.032793
0.0310925
0.0296972
0.0284881
0.0280057
0.0261915
0.0246229
0.0235031
0.0227475
0.0226532
0.034023
0.0653116
0.0538146
0.047026
0.0429634
0.0406318
0.0394059
0.0382268
0.0363293
0.0342021
0.0324126
0.0309575
0.0297806
0.029059
0.0277465
0.0264122
0.0254709
0.0247188
0.0238053
0.0296841
0.0563237
0.0514578
0.0473728
0.0441409
0.0419036
0.0405789
0.0393195
0.037514
0.0356379
0.0339671
0.0325317
0.0312657
0.0302164
0.0290778
0.0280029
0.0270637
0.0261066
0.0255328
0.0313105
0.0523023
0.0499447
0.0474331
0.0450458
0.043017
0.0414456
0.0400689
0.038546
0.0369804
0.0355317
0.0341918
0.0329104
0.0317055
0.0305761
0.0294833
0.0284174
0.027637
0.0286224
0.0426121
0.0506893
0.0493732
0.0477456
0.0459629
0.0442249
0.0426503
0.0411853
0.0397518
0.0383801
0.0370927
0.0358514
0.0346294
0.033417
0.032222
0.0310201
0.0299378
0.0295205
0.0318147
0.0539108
0.0502017
0.0494191
0.0483494
0.0470246
0.0455882
0.0441318
0.042657
0.0412111
0.0398709
0.0386389
0.0374543
0.0362705
0.0350492
0.0337678
0.0324703
0.0314215
0.0313833
0.0348425
0.0626638
0.0502327
0.0497799
0.0490999
0.0481433
0.0469743
0.045647
0.044196
0.0427248
0.0413583
0.0401211
0.0389475
0.0377621
0.0364968
0.0351253
0.0337602
0.0327575
0.032946
0.0369526
0.0672731
0.0504426
0.0502087
0.0498081
0.0491387
0.0481913
0.0469845
0.0455747
0.0441047
0.0427285
0.0414835
0.0402965
0.0390795
0.037751
0.036288
0.0348615
0.0338684
0.0340929
0.0380547
0.0676429
0.0506081
0.050509
0.050298
0.0498482
0.0490953
0.0480065
0.046646
0.0452058
0.0438807
0.0426821
0.0414864
0.0402191
0.0388159
0.0372592
0.0357658
0.0347572
0.0350002
0.039055
0.0685093
0.0505597
0.0505059
0.0503924
0.0501173
0.04957
0.048616
0.0472943
0.045906
0.0447533
0.0437349
0.0425409
0.0411846
0.0396856
0.0380036
0.0364656
0.0354939
0.0359518
0.0411275
0.0813183
0.0501406
0.0500097
0.0498727
0.0496793
0.0493089
0.0485022
0.0472715
0.0460436
0.0450868
0.0440418
0.0427053
0.0413927
0.0400119
0.0384397
0.0369518
0.0359543
0.0364629
0.0421701
0.0815948
0.0492164
0.049013
0.0488116
0.0485341
0.0480609
0.047302
0.0463263
0.0453452
0.044452
0.04353
0.0425366
0.0415285
0.0402286
0.0385613
0.0370517
0.0361003
0.0365162
0.0421218
0.0878367
0.0480163
0.0477571
0.0474838
0.0471051
0.0465351
0.0458031
0.0450334
0.0443487
0.0436846
0.0429186
0.0419546
0.0408346
0.0395576
0.0380911
0.0367079
0.0356946
0.0356041
0.0393122
0.0774169
0.046613
0.0463138
0.0459734
0.0455247
0.0449175
0.0442129
0.0435523
0.0430446
0.04259
0.0420078
0.0410989
0.0399284
0.0386457
0.0372986
0.0359498
0.0346722
0.0337912
0.0354428
0.0629966
0.045091
0.0447653
0.0443779
0.0438923
0.0432876
0.0426166
0.0419898
0.0414953
0.0410654
0.0405379
0.039724
0.0386288
0.0373911
0.0360866
0.0347205
0.0332622
0.0318237
0.0319744
0.0501079
0.0435616
0.043225
0.0428198
0.0423288
0.0417444
0.0411012
0.0404693
0.0399072
0.0393804
0.0387819
0.0379852
0.0369735
0.0358311
0.0346075
0.0332842
0.0318043
0.0302697
0.029924
0.042608
0.0421087
0.0417767
0.0413777
0.0409025
0.0403468
0.0397272
0.0390802
0.0384397
0.0377947
0.0370916
0.0362675
0.035311
0.034263
0.0331502
0.0319604
0.0306762
0.0294364
0.0292433
0.0393886
0.0407658
0.0404522
0.0400755
0.0396289
0.0391063
0.0385115
0.0378595
0.0371683
0.0364421
0.0356634
0.0348139
0.0338963
0.0329354
0.0319528
0.0309608
0.0299964
0.0292448
0.0296037
0.0394843
0.0395255
0.0392409
0.0388964
0.0384847
0.0379975
0.0374315
0.0367908
0.0360852
0.0353257
0.0345163
0.0336638
0.0327839
0.0319012
0.0310442
0.0302519
0.029607
0.0293477
0.0304398
0.0417952
0.0383605
0.0381116
0.0378039
0.037429
0.0369775
0.0364433
0.035826
0.0351324
0.0343753
0.0335693
0.0327331
0.0318903
0.0310707
0.0303126
0.0296765
0.0292815
0.0294313
0.0312991
0.0453533
0.0372425
0.0370321
0.0367623
0.0364233
0.0360058
0.0355036
0.0349152
0.0342464
0.0335104
0.0327252
0.0319136
0.0311035
0.0303293
0.0296381
0.0291068
0.0288844
0.0293422
0.0318956
0.048948
0.0361538
0.0359821
0.0357486
0.0354431
0.0350568
0.0345844
0.0340254
0.0333853
0.0326767
0.031918
0.0311327
0.0303502
0.0296083
0.0289613
0.0284988
0.0283942
0.0290803
0.032193
0.0519914
0.0350922
0.0349576
0.0347579
0.0344828
0.0341245
0.0336794
0.0331479
0.032536
0.0318557
0.0311245
0.0303654
0.0296081
0.0288933
0.0282807
0.0278701
0.0278562
0.0287232
0.0322897
0.0544197
0.0340707
0.0339706
0.0338018
0.0335542
0.0332212
0.0328008
0.0322949
0.0317098
0.0310573
0.0303539
0.0296219
0.0288913
0.0282046
0.0276261
0.0272639
0.0273305
0.0283487
0.032283
0.0563334
0.0331135
0.0330455
0.0329046
0.0326819
0.0323719
0.0319745
0.0314927
0.0309335
0.0303086
0.029634
0.0289312
0.0282307
0.0275763
0.0270356
0.0267238
0.0268654
0.028013
0.0322454
0.0578705
0.0322535
0.0322146
0.032099
0.0318986
0.0316097
0.0312336
0.0307747
0.0302409
0.0296437
0.028999
0.028328
0.0276611
0.0270432
0.0265444
0.0262845
0.0264963
0.027755
0.0322314
0.0591527
0.0315281
0.0315152
0.0314217
0.0312408
0.0309706
0.0306138
0.0301764
0.029667
0.0290974
0.0284833
0.0278458
0.0272153
0.0266371
0.0261826
0.0259742
0.0262509
0.0276064
0.0322897
0.0603082
0.0309777
0.0309871
0.0309117
0.0307464
0.0304912
0.0301507
0.029732
0.029245
0.0287018
0.0281182
0.027515
0.0269224
0.0263855
0.0259762
0.0258184
0.0261561
0.0276005
0.0324769
0.0615171
0.0306451
0.0306719
0.0306089
0.0304535
0.0302077
0.0298779
0.0294733
0.0290048
0.0284854
0.0279309
0.0273619
0.026808
0.0263136
0.0259502
0.0258421
0.0262378
0.0277664
0.0328345
0.0629088
0.0305767
0.030614
0.0305556
0.0304013
0.0301557
0.0298281
0.0294298
0.0289734
0.0284731
0.0279449
0.0274094
0.0268951
0.0264452
0.0261297
0.0260723
0.0265253
0.0281348
0.0333876
0.0644522
0.0308242
0.0308622
0.0307969
0.0306306
0.0303717
0.0300328
0.0296285
0.0291743
0.0286858
0.02818
0.0276772
0.0272051
0.0268047
0.0265433
0.026543
0.0270577
0.028749
0.0341801
0.0662143
0.0314477
0.0314725
0.0313836
0.0311864
0.0308937
0.0305232
0.0300946
0.0296275
0.0291403
0.0286515
0.028182
0.0277581
0.0274181
0.0272255
0.0272984
0.0278894
0.0296722
0.0352859
0.06833
0.0325194
0.0325121
0.0323759
0.0321201
0.0317634
0.0313312
0.030851
0.0303489
0.029848
0.0293696
0.0289357
0.0285718
0.0283132
0.0282181
0.0283974
0.0290978
0.0309999
0.0368198
0.0710143
0.0341302
0.0340649
0.0338488
0.0334945
0.0330292
0.0324902
0.0319178
0.0313485
0.0308127
0.0303364
0.0299436
0.0296602
0.0295194
0.0295731
0.0299213
0.0307975
0.0328784
0.0389598
0.0745544
0.0363959
0.0362398
0.0358993
0.0353896
0.0347495
0.034036
0.0333112
0.0326278
0.0320273
0.0315421
0.0312
0.0310298
0.0310654
0.0313549
0.0319844
0.0331635
0.0355471
0.0420068
0.0794537
0.039467
0.039181
0.0386583
0.0379127
0.0369986
0.036008
0.0350405
0.0341755
0.0334691
0.0329606
0.0326836
0.0326748
0.0329774
0.0336438
0.0347492
0.0364687
0.0394092
0.0465039
0.0865968
0.0435411
0.0430844
0.0423093
0.0412155
0.0398771
0.0384496
0.0371041
0.0359618
0.0350936
0.034543
0.0343507
0.0345704
0.0352727
0.0365369
0.0384425
0.0411287
0.0451443
0.0534793
0.0977933
0.0488771
0.0482198
0.0471191
0.0455278
0.0435312
0.04141
0.0394816
0.0379295
0.036828
0.0362122
0.0361287
0.0366642
0.0379529
0.0401493
0.0433641
0.0477178
0.0538066
0.064865
0.116842
0.0558119
0.054961
0.0534894
0.0512235
0.0481983
0.0449416
0.042118
0.0399812
0.0385638
0.0378584
0.0379109
0.0388691
0.0410033
0.0446363
0.0498906
0.0568469
0.0666759
0.0840568
0.152534
0.0647712
0.0638154
0.062035
0.0589666
0.0543284
0.0490876
0.044889
0.0419615
0.0401521
0.0393388
0.039554
0.0410579
0.0444106
0.0503108
0.0585271
0.0687128
0.0841898
0.116
0.228879
0.0762642
0.0754254
0.0736698
0.0700287
0.0630266
0.0537957
0.0475211
0.0436312
0.041405
0.0404856
0.040878
0.0430406
0.0481587
0.0579277
0.0701675
0.0822624
0.102867
0.163235
0.443771
0.0908383
0.0904729
0.0895512
0.0868796
0.0782549
0.0584227
0.0494141
0.0446512
0.0421146
0.0411251
0.04166
0.0444398
0.05175
0.0680319
0.0867288
0.0948067
0.110169
0.193079
1.45525
)
;

boundaryField
{
    leftWall
    {
        type            epsilonWallFunction;
        value           nonuniform List<scalar> 
50
(
0.00281381
0.00490038
0.0082922
0.0118616
0.0158115
0.0204694
0.0257762
0.0307236
0.0392113
0.0516107
0.0616647
0.0731547
0.0855638
0.096679
0.110398
0.124547
0.127826
0.132572
0.122616
0.12827
0.1429
0.147469
0.142489
0.132876
0.121128
0.108398
0.0956464
0.0838479
0.0741538
0.0667378
0.0611129
0.0568897
0.0536513
0.0510146
0.0486839
0.0464766
0.0443027
0.0421435
0.0400177
0.0379683
0.0360478
0.0343374
0.0329956
0.0324236
0.0337076
0.0399504
0.060411
0.124631
0.342952
1.57587
)
;
    }
    rightWall
    {
        type            epsilonWallFunction;
        value           nonuniform List<scalar> 
50
(
0.00330544
0.00629305
0.0126449
0.0231406
0.0420626
0.0460877
0.0450585
0.0418205
0.034023
0.0296841
0.0313105
0.0426121
0.0539108
0.0626638
0.0672731
0.0676429
0.0685093
0.0813183
0.0815948
0.0878367
0.0774169
0.0629966
0.0501079
0.042608
0.0393886
0.0394843
0.0417952
0.0453533
0.048948
0.0519914
0.0544197
0.0563334
0.0578705
0.0591527
0.0603082
0.0615171
0.0629088
0.0644522
0.0662143
0.06833
0.0710143
0.0745544
0.0794537
0.0865968
0.0977933
0.116842
0.152534
0.228879
0.443771
1.45525
)
;
    }
    lowerWall
    {
        type            epsilonWallFunction;
        value           nonuniform List<scalar> 
62
(
0.00281381
0.0149203
0.0298955
0.0447549
0.0585444
0.0709358
0.081786
0.0910123
0.0986366
0.104796
0.109578
0.11299
0.11496
0.115392
0.114256
0.111822
0.107918
0.101787
0.0925813
0.0792465
0.0603784
0.0353927
0.0102139
0.0102139
0.0172202
0.0293813
0.0438686
0.0630146
0.0919828
0.142495
0.245528
0.293286
0.242405
0.215257
0.18773
0.0108338
0.013209
0.0190761
0.0237528
0.0270305
0.0270337
0.0306445
0.0486352
0.0108338
0.0310343
0.0504792
0.069715
0.0884494
0.0919676
0.09608
0.0993864
0.0970748
0.0917563
0.0792779
0.0671915
0.0641452
0.0582122
0.0485109
0.0414126
0.0311419
0.0182677
0.00330544
)
;
    }
    atmosphere
    {
        type            inletOutlet;
        inletValue      uniform 0.1;
        value           nonuniform List<scalar> 
46
(
0.1
0.1
0.116042
0.0757584
0.0525147
0.0394699
0.0329193
0.030697
0.0315888
0.0350499
0.0409229
0.0491994
0.0602106
0.1
0.1
0.1
0.1
0.1
0.1
0.1
0.1
0.1
0.1
0.1
0.1
0.1
0.1
0.1
0.1
0.1
0.1
0.1
0.0584227
0.0494141
0.0446512
0.0421146
0.0411251
0.04166
0.0444398
0.05175
0.0680319
0.1
0.1
0.1
0.1
0.1
)
;
    }
    defaultFaces
    {
        type            empty;
    }
}


// ************************************************************************* //
