/*--------------------------------*- C++ -*----------------------------------*\
  =========                 |
  \\      /  F ield         | OpenFOAM: The Open Source CFD Toolbox
   \\    /   O peration     | Website:  https://openfoam.org
    \\  /    A nd           | Version:  13
     \\/     M anipulation  |
\*---------------------------------------------------------------------------*/
FoamFile
{
    format      ascii;
    class       volScalarField;
    location    "2.75";
    object      k;
}
// * * * * * * * * * * * * * * * * * * * * * * * * * * * * * * * * * * * * * //

dimensions      [0 2 -2 0 0 0 0];

internalField   nonuniform List<scalar> 
2268
(
0.000766167
0.00232808
0.00368915
0.00481847
0.00575615
0.00653674
0.0071831
0.00771003
0.00813188
0.00846495
0.00871962
0.00889982
0.0090043
0.00903078
0.00898186
0.00887365
0.00868477
0.00837186
0.0078773
0.00711358
0.0059334
0.00413922
0.00179078
0.00182879
0.00539897
0.0082271
0.0105746
0.0125347
0.0141759
0.0155429
0.0166641
0.0175661
0.0182793
0.0188252
0.0192135
0.0194459
0.0195244
0.0194556
0.019245
0.0188684
0.0182621
0.0173141
0.0158347
0.0135026
0.00983993
0.00418794
0.00260003
0.00730862
0.0107871
0.0136659
0.0160828
0.0181186
0.0198244
0.0212336
0.0223758
0.023283
0.023979
0.0244766
0.024782
0.0249034
0.0248538
0.0246396
0.0242366
0.0235755
0.022526
0.020858
0.0181649
0.0137417
0.00598884
0.00329978
0.0089037
0.0128104
0.0160142
0.0187128
0.0209993
0.0229278
0.0245313
0.0258395
0.0268851
0.0276929
0.0282776
0.0286488
0.0288206
0.028813
0.0286351
0.028266
0.0276381
0.026619
0.0249649
0.0222165
0.017434
0.00783769
0.00399095
0.0103841
0.0146235
0.0180622
0.0209641
0.0234368
0.0255362
0.0272924
0.0287334
0.0298934
0.030798
0.0314622
0.0318984
0.0321262
0.0321719
0.032049
0.0317419
0.0311896
0.030268
0.0287378
0.0261188
0.0212572
0.00999127
0.00473501
0.0118152
0.0163313
0.019957
0.0230209
0.0256466
0.0278911
0.0297796
0.0313367
0.0325995
0.0335937
0.0343341
0.0348345
0.0351191
0.0352212
0.0351589
0.0349237
0.0344647
0.0336734
0.0323315
0.0299824
0.0253574
0.012853
0.0055141
0.0132069
0.0179712
0.0217585
0.0249622
0.0277237
0.0301019
0.0321142
0.0337802
0.0351406
0.0362217
0.0370371
0.0376
0.0379383
0.0380927
0.0380885
0.0379251
0.0375637
0.0369153
0.0357951
0.0338191
0.0298012
0.0171697
0.00617791
0.0145501
0.0195491
0.0234705
0.0267793
0.0296417
0.0321266
0.0342547
0.0360419
0.0375197
0.0387074
0.0396153
0.0402505
0.0406418
0.0408423
0.0408882
0.0407898
0.04052
0.0400089
0.0391127
0.0375529
0.0344982
0.0246014
0.00185094
0.00372102
0.00516508
0.00642244
0.00753062
0.00771592
0.00797593
0.00814945
0.00801045
0.00772622
0.00700194
0.00627543
0.00610863
0.00571509
0.00506996
0.00456237
0.00377319
0.00264521
0.000841839
0.00372609
0.00783125
0.0109727
0.0136777
0.0156002
0.0164805
0.0170604
0.017334
0.0170332
0.0163137
0.015312
0.0140852
0.0135053
0.0124142
0.0112872
0.0101602
0.00862167
0.0063106
0.00229374
0.00473865
0.0101541
0.0140593
0.0173531
0.0196985
0.0208927
0.0216142
0.0219511
0.0216134
0.020705
0.0196059
0.0184362
0.017393
0.015971
0.0146508
0.01329
0.0115539
0.00892765
0.00366
0.00549803
0.0117394
0.0162479
0.0199269
0.0224575
0.0239423
0.0248197
0.0252379
0.0248461
0.0238878
0.0227601
0.0215918
0.0203904
0.0187076
0.0172796
0.0158392
0.0141236
0.0116253
0.00548732
0.00605288
0.0129301
0.0180813
0.0220518
0.0246288
0.026224
0.0272323
0.0276468
0.0271664
0.02618
0.0251319
0.024093
0.0231216
0.0210455
0.0195613
0.0181541
0.0163359
0.0138146
0.00815129
0.00605199
0.0139266
0.0197563
0.0240061
0.0266415
0.0282483
0.029226
0.0295172
0.0290093
0.0280399
0.0270131
0.025978
0.0255709
0.0229097
0.0215443
0.0199834
0.0177568
0.0146459
0.00865823
0.00653634
0.0150629
0.0213796
0.0259173
0.0286218
0.0301862
0.031101
0.0313001
0.0307676
0.0298075
0.0287859
0.0276226
0.0268764
0.0245426
0.0231206
0.0212763
0.0186726
0.0149586
0.00853359
0.00891043
0.0171236
0.0233075
0.0278108
0.0305706
0.0320743
0.0329438
0.0330845
0.032462
0.0314564
0.0303944
0.0291309
0.0279984
0.0260843
0.0244589
0.0223609
0.0194359
0.0151438
0.00812212
0.00724571
0.0166497
0.0219989
0.0260755
0.0294612
0.0323693
0.0348967
0.0370909
0.0389897
0.0406139
0.0419659
0.0430363
0.0438239
0.0443556
0.0446701
0.0448199
0.0448333
0.0446986
0.0443726
0.0437662
0.0427283
0.0409311
0.0370378
0.00866894
0.0193925
0.025232
0.0295004
0.0329284
0.035799
0.0382395
0.0403301
0.0421319
0.043684
0.0450033
0.0460978
0.0469757
0.0476557
0.0481635
0.04852
0.0487427
0.0488254
0.0487457
0.0484615
0.0479021
0.0469185
0.045148
0.00970495
0.0219102
0.0283033
0.0327989
0.03631
0.0391731
0.0415557
0.0435641
0.0452773
0.046746
0.0480005
0.0490603
0.0499416
0.0506613
0.0512353
0.05168
0.0520089
0.0522158
0.0522766
0.0521554
0.05179
0.0510881
0.0499368
0.010846
0.0242498
0.0311624
0.0359076
0.0395188
0.0424035
0.0447771
0.0467545
0.0484176
0.0498295
0.0510345
0.052063
0.0529361
0.0536633
0.0542546
0.0547384
0.0551325
0.0554227
0.0555751
0.0555538
0.0552888
0.054691
0.0537149
0.0120281
0.0266497
0.0339351
0.0388719
0.0425649
0.0454762
0.0478496
0.0498083
0.0514362
0.0528038
0.0539659
0.0549589
0.0558005
0.0564975
0.0570717
0.0575535
0.0579617
0.0582784
0.058465
0.0584806
0.0582509
0.0576981
0.0568136
0.0130398
0.0287467
0.0365615
0.0416718
0.0454212
0.0483414
0.0506909
0.0526097
0.0541977
0.0555259
0.056645
0.0575855
0.0583679
0.0590151
0.0595512
0.0600001
0.0603801
0.0606868
0.0608815
0.0609098
0.0607022
0.0602014
0.05943
0.0142407
0.0310447
0.03897
0.0441218
0.0478903
0.0508119
0.0531294
0.0550052
0.0565586
0.0578566
0.0589399
0.0598384
0.0605771
0.0611835
0.0616816
0.0620917
0.0624329
0.0627137
0.0629042
0.0629445
0.0627644
0.062323
0.0616633
0.0154077
0.0327759
0.040842
0.0460594
0.0498639
0.05279
0.0550993
0.0569573
0.0584937
0.0597799
0.0608529
0.0617394
0.0624644
0.0630529
0.0635257
0.0639026
0.0642072
0.0644578
0.0646385
0.0646897
0.0645352
0.0641405
0.0635642
0.0156863
0.0336626
0.0421474
0.0474938
0.0513607
0.0543179
0.0566392
0.0585027
0.0600459
0.0613466
0.0624411
0.0633504
0.0640927
0.0646859
0.0651468
0.065497
0.0657688
0.0659966
0.06618
0.0662546
0.0661199
0.06573
0.0651679
0.0161884
0.034045
0.0428788
0.0484796
0.052451
0.0554663
0.0578214
0.0597098
0.0612775
0.0626123
0.0637565
0.0647202
0.0655088
0.0661291
0.0665919
0.066919
0.0671518
0.0673331
0.0674557
0.0674542
0.0672601
0.0668644
0.06636
0.0153476
0.0338225
0.043273
0.0491679
0.053203
0.0561306
0.0583689
0.0601798
0.061701
0.0630257
0.0642115
0.0652551
0.0661389
0.0668443
0.0673596
0.0676913
0.0678761
0.0679627
0.0679687
0.0678842
0.067693
0.0673847
0.0670027
0.0157385
0.0343421
0.0435605
0.0493756
0.0534082
0.0562915
0.0583989
0.0600595
0.0614843
0.0627853
0.0639796
0.0650258
0.065899
0.0665907
0.0670989
0.0674355
0.0676343
0.0677419
0.067786
0.0677638
0.0676527
0.0674368
0.0671405
0.0168994
0.0349658
0.0435835
0.0490816
0.0529671
0.0557875
0.0578485
0.0594464
0.0608075
0.0620543
0.063207
0.06422
0.0650673
0.0657486
0.0662719
0.0666533
0.0669204
0.0671058
0.0672293
0.0672853
0.067254
0.0671235
0.0669092
0.017278
0.0348383
0.0429686
0.0481683
0.0519142
0.0547166
0.0568164
0.0584422
0.0598094
0.0610425
0.0621722
0.0631681
0.0640118
0.0647089
0.0652705
0.0657118
0.0660529
0.0663139
0.066505
0.0666205
0.0666455
0.0665731
0.0664137
0.0169294
0.0340065
0.0417922
0.0467746
0.0504176
0.0532247
0.055413
0.0571399
0.0585785
0.0598454
0.0609819
0.0619881
0.0628579
0.0635958
0.0642108
0.0647145
0.0651203
0.0654394
0.0656767
0.065829
0.0658866
0.0658464
0.0657155
0.0162019
0.0326696
0.0402019
0.0450464
0.0486333
0.0514604
0.0537466
0.0556078
0.0571607
0.0585002
0.0596796
0.060725
0.0616417
0.0624335
0.0631068
0.0636697
0.0641306
0.0644961
0.0647687
0.0649474
0.0650277
0.0650093
0.0648975
0.0152756
0.0310079
0.0383271
0.0430945
0.0466709
0.0495371
0.0519108
0.0538958
0.055574
0.0570141
0.058271
0.0593808
0.0603584
0.0612108
0.0619439
0.0625639
0.0630767
0.0634865
0.0637955
0.0640041
0.0641112
0.0641176
0.0640272
0.0142263
0.0291622
0.0362861
0.0410136
0.0446094
0.0475264
0.0499757
0.0520664
0.0538583
0.0554062
0.056757
0.0579464
0.0589947
0.0599129
0.0607083
0.0613869
0.0619537
0.0624123
0.0627652
0.0630137
0.0631584
0.0632002
0.0631419
0.0131212
0.0272584
0.034197
0.0388967
0.0425203
0.0454889
0.0480047
0.0501787
0.0520655
0.0537107
0.0551538
0.0564263
0.0575496
0.0585371
0.0593978
0.0601384
0.060764
0.0612785
0.0616846
0.0619843
0.0621788
0.0622686
0.0622547
0.0120421
0.0254114
0.0321666
0.0368308
0.0404719
0.0434806
0.0460477
0.0482808
0.0502429
0.0519686
0.0534927
0.0548427
0.0560392
0.0570962
0.0580238
0.0588292
0.0595181
0.0600945
0.0605616
0.0609218
0.0611761
0.0613243
0.0613653
0.0111023
0.0237037
0.0302793
0.0348888
0.0385252
0.0415527
0.0441511
0.046424
0.0484352
0.0502222
0.0518118
0.0532289
0.0544921
0.0556151
0.0566081
0.0574788
0.0582329
0.0588748
0.0594077
0.0598339
0.0601541
0.0603671
0.0604697
0.0103497
0.022238
0.028598
0.033121
0.0367253
0.0397462
0.0423528
0.0446448
0.0466841
0.0485114
0.05015
0.0516212
0.0529417
0.0541244
0.0551788
0.0561125
0.056931
0.0576386
0.0582385
0.0587325
0.0591208
0.0594011
0.0595681
0.0097549
0.0210336
0.0271634
0.0315673
0.0351027
0.0380866
0.0406788
0.042971
0.045021
0.0468691
0.0485416
0.050054
0.0514217
0.0526562
0.0537663
0.0547587
0.0556386
0.0564098
0.057075
0.0576355
0.0580908
0.0584375
0.0586686
0.00929328
0.0200646
0.0259577
0.0302213
0.0336661
0.0365912
0.0391464
0.0414191
0.0434654
0.0453224
0.0470142
0.0485567
0.0499624
0.0512412
0.0524008
0.053447
0.0543842
0.0552155
0.0559427
0.0565664
0.0570855
0.0574955
0.057788
0.00893108
0.0192784
0.0249393
0.0290536
0.0323959
0.0352501
0.0377575
0.0400006
0.042032
0.0438867
0.0455882
0.0471531
0.0485902
0.0499076
0.0511117
0.0522074
0.0531978
0.0540853
0.0548706
0.0555535
0.0561321
0.0566009
0.0569511
0.00863211
0.0186149
0.0240577
0.0280253
0.0312637
0.0340443
0.0365009
0.0387113
0.040725
0.0425747
0.0442828
0.0458644
0.0473283
0.0486807
0.0499265
0.0510689
0.0521099
0.0530505
0.0538904
0.0546285
0.0552621
0.055785
0.0561881
0.00836571
0.0180225
0.0232671
0.0270993
0.0302412
0.0329534
0.0353633
0.0375444
0.0395433
0.0413908
0.0431075
0.0447074
0.0461988
0.0475865
0.0488738
0.0500622
0.0511524
0.052144
0.0530358
0.0538256
0.0545098
0.0550822
0.0555334
0.00811138
0.0174653
0.0225342
0.026248
0.0293067
0.0319615
0.0343343
0.0364949
0.0384871
0.0403398
0.0420722
0.0436968
0.0452212
0.0466487
0.0479809
0.0492177
0.0503583
0.0514008
0.0523431
0.0531818
0.053913
0.0545302
0.0550241
0.00785821
0.0169239
0.0218405
0.0254556
0.0284482
0.0310607
0.03341
0.0355627
0.0375604
0.0394302
0.0411898
0.0428501
0.0444173
0.0458931
0.0472773
0.0485679
0.0497624
0.0508576
0.0518502
0.0527362
0.0535111
0.0541684
0.0546998
0.0076031
0.0163929
0.0211807
0.0247185
0.0276641
0.0302517
0.0325939
0.0347546
0.0367734
0.038676
0.0404784
0.0421896
0.0438137
0.0453504
0.0467971
0.0481496
0.0494037
0.0505548
0.0515985
0.0525305
0.0533459
0.0540389
0.054602
0.00734769
0.0158767
0.0205601
0.0240437
0.0269635
0.0295456
0.031899
0.0340856
0.0361441
0.0380986
0.0399633
0.0417449
0.0434444
0.0450586
0.0465815
0.0480067
0.0493276
0.0505387
0.0516347
0.0526112
0.0534637
0.054187
0.0547753
0.00709687
0.0153871
0.0199944
0.02345
0.0263669
0.028964
0.0313478
0.03358
0.035699
0.0377279
0.0396789
0.0415551
0.0433534
0.0450657
0.046682
0.0481926
0.0495889
0.0508641
0.0520131
0.0530317
0.0539165
0.0546636
0.0552687
0.00685757
0.0149443
0.0195125
0.0229714
0.0259104
0.0285428
0.0309754
0.0332724
0.035474
0.0376033
0.0396693
0.0416703
0.0435964
0.0454328
0.0471633
0.0487741
0.0502544
0.0515971
0.0527979
0.0538542
0.0547643
0.0555262
0.0561382
0.0066412
0.0145856
0.0191689
0.02267
0.0256554
0.0283378
0.0308315
0.0332087
0.0355146
0.0377729
0.0399888
0.0421524
0.0442436
0.0462366
0.0481067
0.0498343
0.0514069
0.0528182
0.0540664
0.0551523
0.0560773
0.0568425
0.0574485
0.00647068
0.0143907
0.0190737
0.0226607
0.0257045
0.0284334
0.0309838
0.0334452
0.0358727
0.0382911
0.0406993
0.0430746
0.0453799
0.0475722
0.0496131
0.051476
0.0531472
0.054624
0.0559101
0.0570124
0.0579375
0.0586905
0.0592753
0.00640253
0.0145433
0.0194551
0.023156
0.0262264
0.0289513
0.0315163
0.0340426
0.0365988
0.0392101
0.041864
0.0445171
0.0471042
0.0495535
0.0518053
0.0538236
0.0555963
0.0571287
0.0584357
0.0595341
0.0604386
0.0611602
0.0617057
0.0065825
0.0154647
0.020774
0.0245329
0.0274802
0.0300492
0.032518
0.03505
0.0377257
0.040564
0.0435332
0.0465561
0.049522
0.0523101
0.0548255
0.0570213
0.0588926
0.0604616
0.0617621
0.0628276
0.0636848
0.0643518
0.0648392
0.00738633
0.0180511
0.0238903
0.0273927
0.0298106
0.0318923
0.0340488
0.0364744
0.0392399
0.0423421
0.0457177
0.0492405
0.0527279
0.0559761
0.0588271
0.0612251
0.063186
0.0647606
0.0660152
0.0670095
0.0677866
0.0683737
0.068785
0.00972333
0.0239694
0.0301321
0.0324806
0.0335377
0.0345615
0.0360759
0.0382352
0.0410442
0.0444492
0.0483448
0.0525454
0.0567678
0.0606711
0.0639577
0.0665867
0.068625
0.0701629
0.0713199
0.0721958
0.0728562
0.0733381
0.0736593
0.0156373
0.0357993
0.0408557
0.040211
0.0386435
0.0378825
0.0383879
0.0401189
0.042923
0.0466624
0.0511927
0.0562858
0.0615651
0.0665005
0.0703533
0.0732348
0.0753505
0.0767989
0.0777932
0.0784967
0.0790031
0.0793585
0.0795824
0.0305753
0.056921
0.0563038
0.0497655
0.0442984
0.0412329
0.0405355
0.0417693
0.0445388
0.0486047
0.053813
0.0599728
0.0667831
0.0737893
0.0782762
0.0813156
0.0835325
0.0848033
0.0855444
0.0860153
0.0863339
0.0865483
0.0866765
0.0853433
0.0893833
0.0729064
0.0580894
0.0485424
0.0435077
0.0418876
0.0427583
0.0454953
0.0497838
0.0554981
0.0626067
0.0714485
0.0848338
0.0891189
0.0914897
0.0935708
0.094352
0.0946783
0.0948491
0.0949549
0.0950232
0.0950626
0.0275372
0.0242293
0.0224474
0.0206083
0.0428997
0.0412337
0.0395512
0.0377877
0.0487289
0.0477823
0.0466874
0.0454964
0.0527485
0.0520415
0.0512755
0.0504608
0.0560004
0.055443
0.0548663
0.054277
0.0587599
0.0583162
0.0578694
0.0574236
0.0611105
0.0607521
0.0603984
0.0600527
0.0630928
0.0627928
0.0625025
0.0622241
0.0647249
0.0644519
0.064195
0.0639543
0.0659734
0.0657194
0.0654729
0.0652414
0.0666822
0.0664662
0.0662502
0.0660311
0.0668688
0.0666791
0.066479
0.0662711
0.0666915
0.0665276
0.0663436
0.0661432
0.0662276
0.066078
0.0659028
0.0657079
0.0655449
0.0654038
0.0652355
0.0650461
0.0647383
0.0646048
0.0644441
0.0642613
0.0638827
0.0637597
0.06361
0.0634375
0.0630198
0.0629126
0.0627794
0.0626225
0.062164
0.0620781
0.0619667
0.0618308
0.0613133
0.061253
0.0611677
0.0610569
0.0604611
0.0604291
0.0603724
0.0602892
0.0596049
0.0596021
0.0595747
0.05952
0.0587504
0.0587765
0.0587778
0.0587512
0.0579131
0.0579666
0.057995
0.0579949
0.0571164
0.0571952
0.0572487
0.0572731
0.0563904
0.0564922
0.0565682
0.0566146
0.055769
0.0558913
0.0559873
0.0560531
0.055289
0.0554293
0.0555423
0.0556248
0.0549897
0.0551449
0.055272
0.0553678
0.054912
0.0550791
0.0552166
0.0553221
0.0550999
0.0552748
0.0554188
0.0555296
0.0556011
0.0557794
0.0559248
0.0560357
0.0564702
0.0566462
0.0567873
0.056892
0.0577703
0.0579374
0.0580671
0.0581584
0.0595754
0.0597261
0.0598368
0.0599064
0.0619721
0.0620987
0.0621826
0.0622222
0.0650604
0.0651561
0.0652065
0.0652094
0.0689527
0.0690136
0.0690274
0.0689911
0.0737716
0.0737987
0.0737795
0.0737093
0.0796451
0.0796465
0.0796066
0.0795195
0.0867027
0.0866924
0.0866527
0.0865778
0.0950679
0.0950616
0.0950446
0.0950144
0.0199213
0.0231965
0.0273581
0.0308986
0.0334506
0.0349606
0.0357921
0.0357924
0.0349686
0.0338748
0.032711
0.0314143
0.0302949
0.0284763
0.0264363
0.0239454
0.020533
0.0152396
0.00709825
0.0347862
0.0339122
0.034887
0.0361749
0.0375835
0.0389036
0.0395769
0.0392252
0.0382224
0.0370274
0.035749
0.0343973
0.0330848
0.0312822
0.028982
0.0260748
0.0217548
0.0147555
0.00646718
0.0434964
0.0418158
0.0414334
0.041512
0.0419222
0.0425046
0.0427328
0.0422014
0.0412201
0.0400154
0.0386728
0.0371826
0.0355749
0.033605
0.0311161
0.0277841
0.0229281
0.0156239
0.00666131
0.0490832
0.0475888
0.0467594
0.0462845
0.0460088
0.045828
0.0455587
0.0449257
0.0439677
0.0427933
0.0414182
0.0398159
0.0379718
0.0357965
0.0330764
0.0295237
0.0247639
0.0181394
0.00816497
0.0532885
0.0520871
0.051173
0.0504331
0.0497709
0.0491308
0.0484404
0.0475982
0.0465833
0.0453832
0.0439628
0.0422888
0.0403074
0.0379362
0.0350133
0.0313745
0.026806
0.0206824
0.00953521
0.0566861
0.0557398
0.0548873
0.0540574
0.0532106
0.052316
0.0513332
0.050251
0.0490769
0.0477729
0.0462704
0.044506
0.0424016
0.0398527
0.0367577
0.0330318
0.0285094
0.0224035
0.0105236
0.0594886
0.0587467
0.0580024
0.0571836
0.0562607
0.0552113
0.0540229
0.0527276
0.0513684
0.0499203
0.0483009
0.0464181
0.0441705
0.0414544
0.038211
0.0343905
0.029796
0.0234984
0.0110385
0.0617767
0.0611861
0.0605477
0.059777
0.0588305
0.0576855
0.0563512
0.0548919
0.0533751
0.0517855
0.0500323
0.0480102
0.0456084
0.0427313
0.0393569
0.0354357
0.030702
0.0241584
0.0110971
0.063575
0.0630817
0.0625219
0.0618047
0.060869
0.0596717
0.0582328
0.0566545
0.0550361
0.0533475
0.0514644
0.0492918
0.0467318
0.043707
0.0402202
0.0362118
0.0313668
0.0246732
0.0112297
0.0648826
0.064425
0.0639
0.0632366
0.0623529
0.0611445
0.0596187
0.0579554
0.0563288
0.0546359
0.0526331
0.0502923
0.0475775
0.0444079
0.040851
0.0368103
0.0319505
0.0253739
0.0125329
0.0656742
0.0651734
0.0646157
0.063968
0.0631407
0.0619447
0.0603766
0.0587115
0.0571031
0.0552758
0.0530735
0.0506818
0.0479908
0.0448541
0.0413023
0.0372296
0.0323698
0.0258029
0.0124875
0.0659154
0.0653749
0.0647649
0.0640302
0.0630798
0.0618401
0.0603477
0.0587408
0.0570721
0.0552383
0.0531891
0.0509265
0.0482245
0.0449793
0.0413854
0.037349
0.0325291
0.0259883
0.0132501
0.0657875
0.0652159
0.0645494
0.0637182
0.0626539
0.0613686
0.0599413
0.0584521
0.0568532
0.0550431
0.0529334
0.0505089
0.0477244
0.0445022
0.0408935
0.0367966
0.0318303
0.0250002
0.0122489
0.0653569
0.0647621
0.0640413
0.0631393
0.0620118
0.060696
0.0592885
0.0578614
0.0563361
0.0545718
0.0524054
0.049838
0.0469204
0.0436285
0.0399014
0.0355669
0.0302534
0.0230983
0.0107223
0.0647013
0.0640918
0.0633329
0.0623895
0.0612384
0.0599121
0.0584871
0.0570214
0.0554588
0.0536587
0.051462
0.0488298
0.0458066
0.04239
0.0384958
0.0339214
0.0282791
0.0208435
0.00918958
0.0639246
0.0633132
0.0625412
0.0615871
0.060437
0.0591101
0.0576533
0.0561026
0.0544227
0.0525124
0.0502467
0.0475696
0.0444912
0.0409906
0.0369702
0.0322219
0.0264038
0.0189223
0.00822268
0.0631148
0.0625161
0.0617546
0.0608141
0.0596825
0.058365
0.0568824
0.0552508
0.0534494
0.0514157
0.0490691
0.0463575
0.0432604
0.0397366
0.0356868
0.0309294
0.0251788
0.0179101
0.0077687
0.0623219
0.0617507
0.0610182
0.0601094
0.0590104
0.0577158
0.0562284
0.0545513
0.0526726
0.0505574
0.0481598
0.0454398
0.0423651
0.0388861
0.0349118
0.0302893
0.0247639
0.0177872
0.00775403
0.0615607
0.0610297
0.0603397
0.0594754
0.0584205
0.0571634
0.0556971
0.0540178
0.0521181
0.0499802
0.0475798
0.0448895
0.0418775
0.0384955
0.0346634
0.0302454
0.0249883
0.0182709
0.00804381
0.0608242
0.0603425
0.059704
0.0588922
0.0578897
0.0566822
0.0552586
0.0536123
0.0517377
0.0496265
0.0472658
0.0446373
0.0417139
0.0384524
0.0347803
0.0305689
0.0255553
0.0190471
0.00849784
0.0600981
0.0596712
0.0590888
0.0583336
0.0573881
0.0562375
0.0548702
0.0532785
0.0514579
0.0494038
0.0471087
0.0445597
0.0417338
0.0385921
0.0350668
0.0310305
0.0262087
0.019841
0.0089481
0.0593723
0.0590023
0.0584772
0.0577793
0.0568918
0.055801
0.0544956
0.0529685
0.0512151
0.049232
0.0470135
0.044549
0.041818
0.0387844
0.0353824
0.0314833
0.0267986
0.020512
0.00932361
0.0586466
0.0583329
0.0578635
0.0572213
0.0563903
0.0553584
0.0541155
0.0526548
0.050972
0.0490632
0.046923
0.044541
0.0418981
0.0389593
0.0356592
0.0318662
0.02728
0.0210456
0.00961993
0.0579318
0.0576718
0.0572552
0.0566654
0.0558878
0.0549117
0.0537287
0.0523323
0.0507182
0.0488818
0.046817
0.044513
0.0419508
0.0390955
0.0358811
0.0321728
0.0276629
0.0214671
0.00985175
0.0572486
0.0570388
0.0566709
0.0561293
0.0554009
0.0544766
0.0533493
0.0520132
0.0504636
0.0486955
0.0467016
0.0444704
0.0419821
0.0392012
0.0360606
0.0324227
0.0279739
0.0218086
0.0100368
0.0566255
0.0564613
0.0561373
0.0556389
0.0549549
0.0540777
0.0530012
0.0517205
0.0502306
0.0485258
0.0465977
0.0444338
0.042013
0.0392988
0.0362219
0.0326426
0.0282423
0.0220981
0.0101902
0.0560955
0.0559716
0.0556858
0.0552252
0.0545801
0.0537444
0.0527134
0.0514825
0.0500468
0.0483999
0.0465323
0.04443
0.0420704
0.039415
0.0363925
0.0328603
0.0284954
0.0223608
0.0103274
0.0556942
0.0556044
0.0553503
0.0549209
0.0543082
0.0535077
0.0525157
0.0513284
0.049941
0.0483462
0.0465334
0.0444867
0.0421817
0.0395773
0.0365994
0.0331025
0.0287595
0.0226225
0.0104735
0.055459
0.0553959
0.0551656
0.0547591
0.0541706
0.0533972
0.0524367
0.0512859
0.0499401
0.0483913
0.0466275
0.044631
0.0423746
0.0398139
0.0368715
0.033398
0.0290619
0.0229035
0.0106343
0.0554288
0.0553834
0.0551671
0.0547733
0.0541985
0.053442
0.0525031
0.05138
0.0500681
0.0485589
0.0468388
0.0448877
0.0426748
0.0401518
0.0372364
0.0337743
0.0294283
0.0232256
0.0108086
0.0556442
0.0556054
0.0553908
0.0549964
0.0544217
0.0536685
0.0527388
0.0516324
0.0503454
0.0488688
0.0471876
0.0452787
0.0431068
0.040618
0.0377236
0.034262
0.0298882
0.0236133
0.0110045
0.0561494
0.0561031
0.0558744
0.0554621
0.0548692
0.0541013
0.0531641
0.0520603
0.0507873
0.0493363
0.0476906
0.0458237
0.0436946
0.0412418
0.0383672
0.0348985
0.0304786
0.0240988
0.0112363
0.0569936
0.0569225
0.0566594
0.0562062
0.0555702
0.054763
0.0537959
0.052676
0.0514038
0.0499711
0.0483601
0.0465399
0.0444631
0.0420573
0.0392106
0.035734
0.0312512
0.0247257
0.0115263
0.058235
0.0581176
0.0577941
0.0572691
0.0565562
0.0556753
0.0546471
0.0534864
0.0521981
0.0507766
0.0492028
0.0474422
0.0454391
0.0431073
0.0403137
0.036842
0.0322834
0.0255608
0.0119031
0.0599434
0.0597543
0.0593378
0.0586999
0.0578623
0.0568591
0.0557263
0.0544906
0.053165
0.0517472
0.0502186
0.0485417
0.0466527
0.0444482
0.041764
0.0383377
0.0337031
0.0267145
0.0124164
0.0622046
0.0619162
0.0613669
0.0605614
0.0595318
0.0583354
0.0570354
0.055678
0.0542873
0.0528657
0.0513971
0.0498443
0.048139
0.0461592
0.0436964
0.0404105
0.0357296
0.0283849
0.013149
0.0651248
0.0647112
0.0639851
0.0629406
0.0616212
0.0601259
0.0585676
0.0570242
0.0555324
0.0540993
0.0527139
0.0513475
0.0499389
0.048354
0.0463226
0.0433732
0.0387448
0.0309337
0.0142634
0.0688349
0.068282
0.067339
0.065967
0.0642131
0.0622536
0.0603024
0.0584851
0.0568472
0.0553947
0.0541249
0.053035
0.0521002
0.0511996
0.0499747
0.0477264
0.043383
0.0350097
0.016071
0.0734929
0.0728163
0.0716434
0.0698505
0.0674434
0.0647414
0.0621945
0.0599891
0.058153
0.0566736
0.05556
0.0548678
0.0546781
0.0549526
0.055167
0.054196
0.0505789
0.0416953
0.0192112
0.0792795
0.0785533
0.0772176
0.0749624
0.0715779
0.0676034
0.0641523
0.0614241
0.0593416
0.0578307
0.0569145
0.0567672
0.0577278
0.0600266
0.062666
0.0636188
0.0613722
0.0526071
0.0251797
0.086379
0.0857654
0.0845149
0.0820091
0.0772868
0.070787
0.0659838
0.0626214
0.0602757
0.0587349
0.058037
0.0585634
0.0612133
0.0670147
0.073506
0.0764607
0.0761442
0.0697288
0.0390701
0.0949349
0.0946752
0.0940493
0.09233
0.086972
0.0738466
0.0672812
0.063346
0.060803
0.0592433
0.0587158
0.0598549
0.0644746
0.0756499
0.0888646
0.0919842
0.0930283
0.0932429
0.0867998
)
;

boundaryField
{
    leftWall
    {
        type            kqRWallFunction;
        value           nonuniform List<scalar> 
50
(
0.000766167
0.00182879
0.00260003
0.00329978
0.00399095
0.00473501
0.0055141
0.00617791
0.00724571
0.00866894
0.00970495
0.010846
0.0120281
0.0130398
0.0142407
0.0154077
0.0156863
0.0161884
0.0153476
0.0157385
0.0168994
0.017278
0.0169294
0.0162019
0.0152756
0.0142263
0.0131212
0.0120421
0.0111023
0.0103497
0.0097549
0.00929328
0.00893108
0.00863211
0.00836571
0.00811138
0.00785821
0.0076031
0.00734769
0.00709687
0.00685757
0.0066412
0.00647068
0.00640253
0.0065825
0.00738633
0.00972333
0.0156373
0.0305753
0.0853433
)
;
    }
    rightWall
    {
        type            kqRWallFunction;
        value           nonuniform List<scalar> 
50
(
0.000841839
0.00229374
0.00366
0.00548732
0.00815129
0.00865823
0.00853359
0.00812212
0.00709825
0.00646718
0.00666131
0.00816497
0.00953521
0.0105236
0.0110385
0.0110971
0.0112297
0.0125329
0.0124875
0.0132501
0.0122489
0.0107223
0.00918958
0.00822268
0.0077687
0.00775403
0.00804381
0.00849784
0.0089481
0.00932361
0.00961993
0.00985175
0.0100368
0.0101902
0.0103274
0.0104735
0.0106343
0.0108086
0.0110045
0.0112363
0.0115263
0.0119031
0.0124164
0.013149
0.0142634
0.016071
0.0192112
0.0251797
0.0390701
0.0867998
)
;
    }
    lowerWall
    {
        type            kqRWallFunction;
        value           nonuniform List<scalar> 
62
(
0.000766167
0.00232808
0.00368915
0.00481847
0.00575615
0.00653674
0.0071831
0.00771003
0.00813188
0.00846495
0.00871962
0.00889982
0.0090043
0.00903078
0.00898186
0.00887365
0.00868477
0.00837186
0.0078773
0.00711358
0.0059334
0.00413922
0.00179078
0.00179078
0.00418794
0.00598884
0.00783769
0.00999127
0.012853
0.0171697
0.0246014
0.0275372
0.0242293
0.0224474
0.0206083
0.00185094
0.00372609
0.00473865
0.00549803
0.00605288
0.00605199
0.00653634
0.00891043
0.00185094
0.00372102
0.00516508
0.00642244
0.00753062
0.00771592
0.00797593
0.00814945
0.00801045
0.00772622
0.00700194
0.00627543
0.00610863
0.00571509
0.00506996
0.00456237
0.00377319
0.00264521
0.000841839
)
;
    }
    atmosphere
    {
        type            inletOutlet;
        inletValue      uniform 0.1;
        value           nonuniform List<scalar> 
46
(
0.1
0.1
0.0729064
0.0580894
0.0485424
0.0435077
0.0418876
0.0427583
0.0454953
0.0497838
0.0554981
0.0626067
0.0714485
0.1
0.1
0.1
0.1
0.1
0.1
0.1
0.1
0.1
0.1
0.1
0.1
0.1
0.1
0.1
0.1
0.1
0.1
0.1
0.0738466
0.0672812
0.063346
0.060803
0.0592433
0.0587158
0.0598549
0.0644746
0.0756499
0.1
0.1
0.1
0.1
0.1
)
;
    }
    defaultFaces
    {
        type            empty;
    }
}


// ************************************************************************* //
