/*--------------------------------*- C++ -*----------------------------------*\
  =========                 |
  \\      /  F ield         | OpenFOAM: The Open Source CFD Toolbox
   \\    /   O peration     | Website:  https://openfoam.org
    \\  /    A nd           | Version:  13
     \\/     M anipulation  |
\*---------------------------------------------------------------------------*/
FoamFile
{
    format      ascii;
    class       volScalarField;
    location    "2.75";
    object      nut;
}
// * * * * * * * * * * * * * * * * * * * * * * * * * * * * * * * * * * * * * //

dimensions      [0 2 -1 0 0 0 0];

internalField   nonuniform List<scalar> 
2268
(
1.87756e-05
3.26933e-05
4.09723e-05
4.66897e-05
5.09355e-05
5.42125e-05
5.6779e-05
5.87833e-05
6.03374e-05
6.15386e-05
6.24476e-05
6.30906e-05
6.3474e-05
6.36089e-05
6.35471e-05
6.33755e-05
6.29021e-05
6.19717e-05
6.03217e-05
5.74696e-05
5.2477e-05
4.35679e-05
2.82576e-05
6.14243e-05
0.000270232
0.000378381
0.000447209
0.000496256
0.000533344
0.00056202
0.00058392
0.000600483
0.000613522
0.000624238
0.000633041
0.000639944
0.000645267
0.000649396
0.000651774
0.000651241
0.000645596
0.000630169
0.000595361
0.000521588
0.000369789
9.16652e-05
7.33717e-05
0.000477836
0.000721567
0.000882299
0.000997607
0.00108399
0.00114977
0.0011995
0.00123686
0.00126571
0.0012887
0.00130699
0.00132092
0.00133112
0.00133819
0.00134087
0.00133591
0.00131653
0.0012698
0.00117125
0.000976973
0.000622066
0.000109865
8.2617e-05
0.00062622
0.000994338
0.00124682
0.00143148
0.00157071
0.00167677
0.00175707
0.0018175
0.00186363
0.00189942
0.00192684
0.00194676
0.00196009
0.00196739
0.00196646
0.00195181
0.00191217
0.00182684
0.00165841
0.00134544
0.000814758
0.000126027
9.06614e-05
0.000734996
0.00120836
0.00154443
0.00179546
0.001987
0.00213396
0.00224597
0.00233078
0.00239531
0.00244457
0.00248131
0.00250699
0.00252286
0.00252937
0.00252343
0.0024977
0.00243744
0.00231587
0.00208524
0.00166907
0.000984466
0.000142575
9.85776e-05
0.000817657
0.0013775
0.00178698
0.00209899
0.00234023
0.00252706
0.00267074
0.0027804
0.00286397
0.00292726
0.00297376
0.00300555
0.00302421
0.00303019
0.00301981
0.0029845
0.00290726
0.00275715
0.0024784
0.00197857
0.0011513
0.000161638
0.000106163
0.000881492
0.00151203
0.00198513
0.0023521
0.00263943
0.00286408
0.00303841
0.00317267
0.00327541
0.00335307
0.00340981
0.00344831
0.0034705
0.00347703
0.00346407
0.00342237
0.00333386
0.0031656
0.00285675
0.0022991
0.00133845
0.000186195
0.000111803
0.000931121
0.00161942
0.00214741
0.00256328
0.00289255
0.00315227
0.00335561
0.00351371
0.00363544
0.00372763
0.00379507
0.00384099
0.00386768
0.00387634
0.00386333
0.00381916
0.00372578
0.00355042
0.00323191
0.00265557
0.00160026
0.00022185
2.84608e-05
4.01537e-05
4.75647e-05
5.32495e-05
5.77045e-05
5.82617e-05
5.95898e-05
6.01412e-05
5.94908e-05
5.85518e-05
5.5658e-05
5.27491e-05
5.2356e-05
5.0498e-05
4.76884e-05
4.52368e-05
4.11447e-05
3.44729e-05
1.92962e-05
9.45973e-05
0.000244068
0.000353252
0.000451619
0.000514712
0.000549662
0.000574995
0.000583718
0.000575619
0.000561708
0.000545584
0.000505174
0.000515413
0.00048612
0.00046573
0.000435804
0.000385247
0.000289704
7.52436e-05
0.00010594
0.000421891
0.000637849
0.000827489
0.000966431
0.00105324
0.00111769
0.00114548
0.00113528
0.00110358
0.00107465
0.00102875
0.00100851
0.000949673
0.000900937
0.000829212
0.000707861
0.000490513
9.53432e-05
0.000114536
0.000545516
0.000850184
0.00111783
0.00132113
0.00146036
0.00156567
0.00161542
0.00160802
0.00156368
0.00152662
0.00147687
0.00142777
0.00134189
0.00126546
0.0011505
0.000960286
0.000645387
0.000117108
0.000121987
0.000620208
0.0010014
0.00134172
0.00160821
0.00179827
0.00193908
0.00200866
0.00200572
0.00195762
0.00191212
0.00185302
0.00178188
0.0016727
0.00157352
0.00141805
0.00116292
0.000764233
0.000142167
0.000121936
0.000649758
0.00110571
0.00151597
0.0018488
0.00209199
0.00226272
0.00234871
0.00235258
0.00230664
0.00225346
0.0021784
0.00208225
0.00195553
0.00183967
0.00164046
0.0013261
0.000845871
0.000146391
0.000125476
0.000652581
0.00118328
0.0016616
0.00205614
0.00235201
0.00255178
0.0026526
0.0026643
0.00262221
0.0025618
0.00246864
0.00233466
0.00220987
0.00207044
0.00182738
0.00145553
0.000896696
0.000145455
0.000146923
0.000678669
0.00127402
0.00180825
0.00225039
0.00258868
0.00281486
0.00292876
0.00294801
0.00290867
0.00284116
0.00273249
0.00257367
0.0024444
0.00227435
0.00198803
0.00155646
0.000923241
0.000141969
0.000120502
0.000996694
0.00175951
0.00236062
0.0028433
0.00323119
0.0035408
0.00378583
0.00397849
0.00412834
0.00424267
0.00432696
0.00438536
0.00442078
0.00443361
0.00442202
0.00437729
0.00428281
0.00410894
0.00380221
0.00327674
0.00241692
0.00122534
0.000131049
0.00106806
0.00190612
0.00258115
0.00313109
0.00357908
0.00394059
0.00422946
0.00445831
0.00463772
0.00477622
0.00488061
0.00495619
0.00500655
0.00503285
0.00503219
0.00499867
0.00492011
0.00477549
0.00453084
0.00413663
0.00353506
0.00270942
0.000137465
0.00111986
0.00202384
0.00276162
0.00336864
0.00386641
0.00427103
0.00459683
0.0048568
0.00506211
0.00522212
0.0053445
0.00543528
0.00549883
0.00553638
0.00554672
0.00552628
0.00546708
0.00535543
0.00517102
0.00488725
0.00447939
0.0039551
0.000144724
0.00115954
0.00212359
0.00291977
0.0035758
0.00411561
0.00455704
0.00491412
0.00520043
0.00542798
0.00560684
0.0057453
0.00584993
0.00592506
0.00597244
0.00599313
0.00598569
0.00594524
0.00586289
0.00572674
0.00552286
0.00524191
0.00489734
0.000152176
0.00122259
0.00223638
0.0030776
0.00377127
0.00434379
0.00481421
0.00519652
0.00550446
0.00575064
0.00594559
0.00609801
0.00621444
0.00629909
0.00635544
0.00638569
0.00639007
0.0063661
0.00630805
0.00620888
0.00606151
0.00586356
0.00562714
0.000158289
0.00127542
0.00236245
0.00324337
0.00396391
0.00455853
0.00504861
0.00544987
0.00577547
0.00603746
0.00624626
0.00641028
0.00653636
0.00662984
0.0066948
0.00673414
0.00674925
0.00673953
0.0067017
0.00663139
0.00652503
0.00638314
0.00621539
0.000165328
0.00137457
0.0024958
0.00339699
0.00413528
0.00474709
0.0052536
0.00567092
0.00601201
0.0062882
0.00650948
0.00668444
0.00682016
0.0069225
0.00699604
0.00704423
0.00706927
0.00707197
0.00705081
0.00700309
0.00692688
0.00682361
0.00670069
0.000171547
0.00143061
0.00258896
0.00351397
0.00427117
0.00490016
0.00542488
0.00585846
0.00621431
0.00650397
0.00673738
0.00692316
0.00706863
0.0071799
0.00726191
0.00731858
0.0073528
0.00736628
0.00735879
0.00732871
0.00727478
0.00719841
0.00710534
0.000173247
0.0014338
0.00263437
0.00358935
0.00437213
0.00502256
0.0055658
0.00601587
0.00638592
0.00668824
0.00693311
0.00712924
0.00728404
0.00740378
0.00749368
0.00755808
0.00760045
0.00762325
0.00762714
0.00761119
0.00757415
0.00751668
0.00744306
0.00017791
0.00143261
0.00263853
0.00362756
0.00444338
0.00512076
0.00568408
0.00614934
0.00653197
0.00684533
0.0071004
0.00730588
0.0074691
0.00759637
0.00769311
0.00776395
0.00781278
0.00784255
0.00785442
0.00784778
0.00782184
0.00777823
0.00772005
0.000172893
0.00138867
0.00263046
0.00365755
0.00450502
0.00520511
0.00578271
0.00625838
0.00664965
0.00697053
0.0072332
0.00744648
0.00761735
0.00775177
0.00785488
0.00793118
0.00798475
0.00801889
0.00803572
0.00803576
0.00801977
0.00798876
0.00794395
0.000173799
0.00140968
0.00265536
0.00369952
0.00456368
0.00527644
0.00586192
0.00634251
0.00673752
0.00706288
0.00733051
0.00754884
0.00772483
0.00786457
0.00797328
0.00805548
0.00811525
0.00815601
0.00818007
0.00818878
0.00818272
0.00816224
0.00812772
0.000179868
0.00145032
0.00270781
0.00375454
0.00462001
0.00533339
0.00591973
0.00640109
0.00679695
0.00712366
0.00739364
0.00761547
0.00779608
0.00794153
0.00805695
0.00814676
0.00821475
0.00826403
0.00829659
0.00831398
0.00831673
0.00830499
0.00827878
0.000182192
0.00147218
0.002747
0.0037952
0.0046564
0.0053655
0.00594971
0.00643046
0.00682689
0.00715502
0.00742744
0.00765316
0.00783914
0.00799129
0.00811451
0.0082129
0.00828989
0.00834818
0.00838952
0.00841515
0.00842567
0.00842118
0.00840167
0.000181028
0.00147823
0.0027611
0.00380755
0.00466213
0.00536584
0.00594753
0.00642856
0.00682705
0.00715833
0.00743475
0.0076658
0.00785851
0.0080185
0.00815035
0.00825781
0.00834394
0.00841111
0.00846095
0.00849433
0.00851182
0.00851363
0.00849977
0.000177799
0.00146782
0.00274772
0.00378772
0.00463476
0.00533325
0.00591319
0.00639612
0.00679881
0.00713553
0.00741825
0.00765655
0.00785743
0.00802627
0.00816735
0.00828412
0.00837936
0.00845518
0.00851305
0.00855388
0.00857807
0.00858575
0.00857687
0.000173377
0.00144451
0.00271035
0.00373877
0.00457743
0.00527125
0.00585063
0.00633667
0.00674529
0.0070896
0.00738089
0.00762829
0.00783866
0.0080172
0.008168
0.00829431
0.00839869
0.00848308
0.00854886
0.00859691
0.00862763
0.00864109
0.00863723
0.000168037
0.001412
0.00265454
0.00366685
0.00449596
0.00518554
0.00576536
0.00625561
0.00667136
0.00702479
0.0073262
0.00758405
0.00780491
0.00799385
0.00815481
0.00829092
0.0084046
0.00849769
0.00857152
0.00862694
0.00866435
0.00868384
0.00868528
0.000162002
0.00137309
0.00258577
0.00357858
0.0043971
0.00508271
0.00566362
0.00615894
0.00658262
0.0069459
0.00725819
0.00752722
0.0077592
0.007959
0.00813047
0.00827664
0.00839985
0.00850189
0.00858404
0.00864714
0.00869161
0.00871752
0.00872471
0.000155652
0.00132963
0.00250836
0.00347998
0.00428758
0.00496952
0.00555193
0.00605264
0.00648452
0.00685781
0.0071811
0.0074615
0.0077048
0.00791568
0.00809785
0.00825427
0.00838722
0.00849845
0.00858921
0.00866033
0.00871223
0.00874497
0.00875838
0.000149602
0.00127908
0.00242514
0.00337654
0.00417383
0.00485251
0.00543657
0.00594252
0.0063823
0.00676523
0.00709916
0.00739065
0.00764511
0.00786699
0.00805986
0.00822658
0.00836937
0.00848994
0.00858951
0.00866889
0.00872849
0.00876838
0.00878839
0.000144454
0.00123026
0.00234199
0.0032739
0.00406199
0.00473773
0.00532318
0.00583381
0.0062807
0.00667249
0.00701633
0.0073183
0.00758347
0.00781601
0.00801935
0.00819622
0.00834879
0.00847869
0.00858709
0.00867478
0.00874219
0.00878938
0.00881619
0.000140138
0.00118881
0.00226908
0.00318178
0.00395909
0.00463052
0.00521655
0.00573098
0.00618385
0.0065834
0.00693615
0.00724775
0.00752292
0.00776559
0.00797897
0.00816567
0.00832773
0.00846673
0.00858377
0.00867964
0.00875474
0.00880914
0.00884274
0.00013663
0.00115639
0.00220934
0.00310413
0.00387076
0.00453682
0.00512133
0.00563748
0.00609491
0.00650103
0.00686157
0.00718181
0.00746617
0.00771826
0.00794108
0.00813707
0.00830816
0.00845581
0.0085811
0.00868474
0.00876716
0.00882847
0.0088686
0.000133805
0.00113219
0.00216273
0.00304163
0.00379796
0.0044581
0.00504016
0.00555671
0.00601692
0.00642778
0.00679481
0.00712271
0.00741542
0.00767613
0.00790766
0.00811226
0.0082917
0.00844735
0.0085802
0.00869098
0.00878012
0.00884776
0.00889392
0.000131456
0.00111405
0.00212701
0.00299253
0.00373951
0.00439375
0.00497285
0.00548903
0.00595111
0.00636574
0.00673813
0.00707251
0.00737245
0.00764088
0.00788025
0.00809259
0.00827951
0.00844226
0.00858178
0.00869879
0.00879378
0.00886695
0.0089184
0.000129379
0.00109953
0.00209897
0.00295376
0.00369283
0.0043418
0.00491809
0.00543372
0.00589729
0.00631518
0.00669227
0.00703242
0.00733878
0.00761397
0.00786015
0.00807911
0.0082723
0.00844093
0.00858591
0.00870799
0.0088077
0.00888537
0.00894117
0.000127408
0.00108651
0.0020754
0.00292191
0.00365478
0.00429961
0.00487382
0.00538936
0.00585464
0.00627579
0.00665736
0.00700281
0.00731491
0.00759594
0.00784778
0.00807204
0.0082701
0.00844311
0.00859206
0.00871775
0.00882083
0.00890173
0.00896075
0.000125447
0.00107352
0.0020537
0.00289389
0.0036223
0.00426446
0.00483782
0.00535425
0.005822
0.00624687
0.00663303
0.00698352
0.0073007
0.00758653
0.0078427
0.00807071
0.00827193
0.00844757
0.00859873
0.00872636
0.00883126
0.008914
0.00897502
0.000123451
0.00105973
0.00203204
0.00286732
0.00359284
0.00423392
0.00480796
0.00532671
0.00579809
0.00622748
0.00661853
0.00697381
0.00729529
0.00758467
0.00784353
0.00807341
0.00827578
0.00845204
0.00860348
0.00873126
0.00883635
0.00891953
0.00898131
0.000121421
0.00104482
0.00200936
0.00284059
0.00356448
0.00420605
0.00478251
0.00530526
0.0057817
0.00621653
0.00661274
0.00697237
0.00729703
0.0075883
0.00784784
0.00807739
0.00827868
0.00845342
0.00860316
0.00872931
0.00883306
0.00891534
0.00897679
0.000119387
0.00102896
0.00198539
0.00281285
0.00353599
0.00417947
0.00476013
0.0052887
0.00577168
0.00621277
0.0066141
0.00697716
0.00730338
0.00759443
0.0078523
0.00807913
0.00827708
0.00844823
0.00859445
0.00871743
0.00881854
0.00889885
0.00895908
0.00011741
0.00101289
0.00196072
0.00278407
0.00350676
0.00415326
0.00473983
0.00527605
0.0057669
0.00621469
0.00662052
0.00698546
0.00731103
0.00759938
0.00785313
0.00807499
0.00826765
0.00843356
0.0085749
0.00869357
0.00879111
0.0088687
0.00892708
0.000115603
0.000998346
0.00193714
0.00275494
0.00347649
0.00412667
0.00472078
0.00526639
0.00576618
0.00622052
0.00662951
0.0069941
0.00731646
0.00759969
0.00784726
0.00806256
0.00824871
0.00840846
0.00854419
0.00865794
0.00875139
0.00882579
0.00888191
0.000114205
0.000988889
0.00191774
0.00272643
0.00344473
0.0040988
0.00470213
0.00525891
0.00576837
0.0062285
0.00663865
0.00700038
0.00731721
0.00759363
0.00783408
0.00804243
0.00822196
0.0083755
0.00850553
0.00861419
0.00870328
0.00877415
0.0088276
0.000113785
0.000990773
0.00190654
0.00269956
0.00341111
0.00406902
0.00468345
0.00525328
0.00577288
0.00623762
0.00664674
0.00700352
0.00731367
0.00758332
0.00781752
0.00802008
0.00819401
0.00834199
0.00846653
0.00856998
0.00865435
0.00872117
0.00877132
0.00011569
0.00101248
0.00190962
0.0026793
0.00337929
0.00403975
0.00466643
0.00525073
0.00578056
0.00624855
0.00665501
0.00700626
0.00731089
0.00757646
0.00780752
0.0080069
0.00817692
0.00832001
0.00843894
0.00853654
0.00861528
0.00867703
0.00872285
0.000122908
0.00106517
0.00194907
0.00268996
0.00336734
0.00402185
0.0046572
0.00525495
0.005794
0.00626395
0.00666743
0.00701509
0.00731879
0.00758648
0.00781976
0.00801935
0.00818686
0.00832485
0.0084369
0.00852692
0.00859825
0.00865327
0.00869328
0.00014085
0.00117941
0.00209013
0.00279095
0.00341454
0.00403666
0.00466606
0.00527081
0.00581602
0.00628668
0.00668858
0.00703776
0.00734963
0.00763063
0.0078735
0.00807617
0.00824117
0.008372
0.00847412
0.00855341
0.00861457
0.00866066
0.00869323
0.000176578
0.0014292
0.0024323
0.00305207
0.00356135
0.0041039
0.0047005
0.00529988
0.00584604
0.00631621
0.00671926
0.00707794
0.00741317
0.00772886
0.00798993
0.00819558
0.00835521
0.008474
0.00856086
0.00862487
0.00867242
0.00870721
0.00873095
0.00024533
0.00196568
0.00308198
0.00349324
0.00380225
0.00421574
0.00475341
0.00533507
0.00587708
0.0063457
0.0067523
0.00712889
0.00751184
0.00791771
0.00820076
0.00839777
0.00854237
0.00863882
0.00870199
0.00874497
0.00877535
0.00879685
0.00881099
0.000415969
0.00343639
0.0041225
0.00400872
0.00403836
0.00431627
0.00479693
0.00536029
0.00589715
0.00636402
0.0067738
0.00717008
0.00763054
0.0083393
0.00859358
0.0087259
0.00882085
0.00886995
0.00889603
0.00891166
0.00892205
0.00892917
0.00893371
0.000232697
0.000217964
0.000210677
0.000203608
0.00198979
0.00179234
0.00169224
0.00164605
0.00355852
0.00335969
0.00321875
0.00312363
0.00464275
0.00449521
0.00437218
0.00427349
0.00545098
0.00534379
0.00524711
0.00516249
0.00608819
0.0060087
0.00593383
0.00586486
0.00660531
0.00654451
0.00648551
0.00642919
0.00703073
0.00698225
0.00693402
0.00688659
0.00738181
0.0073412
0.00729981
0.007258
0.00766915
0.00763417
0.00759742
0.00755931
0.00790122
0.007871
0.00783834
0.00780341
0.00809147
0.00806496
0.00803551
0.00800331
0.00824797
0.00822454
0.00819769
0.0081676
0.00837519
0.00835422
0.00832942
0.00830089
0.00847688
0.00845787
0.00843467
0.00840744
0.00855709
0.00853994
0.0085184
0.00849255
0.00862072
0.00860557
0.00858588
0.00856166
0.00867234
0.00865943
0.00864189
0.00861966
0.00871573
0.00870535
0.00869029
0.00867043
0.00875376
0.00874618
0.00873391
0.00871676
0.00878844
0.00878388
0.00877462
0.00876043
0.00882108
0.00881965
0.00881352
0.00880243
0.00885247
0.00885415
0.00885115
0.00884316
0.00888298
0.00888764
0.00888762
0.00888262
0.00891258
0.00891998
0.00892271
0.00892046
0.00894082
0.00895062
0.00895575
0.00895592
0.00896669
0.00897848
0.0089856
0.0089878
0.00898862
0.00900191
0.00901056
0.00901433
0.00900443
0.00901873
0.00902843
0.00903333
0.00901148
0.00902632
0.00903663
0.00904224
0.00900703
0.00902201
0.00903257
0.00903857
0.00898887
0.00900369
0.00901422
0.00902037
0.00895606
0.00897051
0.00898084
0.00898699
0.00890981
0.00892373
0.00893372
0.00893974
0.00885411
0.00886731
0.00887677
0.00888244
0.00879595
0.00880811
0.00881667
0.00882164
0.00874483
0.00875544
0.0087626
0.00876634
0.00871168
0.00872017
0.00872535
0.00872725
0.00870724
0.00871316
0.00871599
0.0087157
0.00874022
0.00874357
0.00874421
0.00874205
0.00881588
0.0088172
0.00881656
0.00881379
0.00893508
0.00893529
0.00893476
0.00893339
0.000427013
0.000896322
0.00151293
0.00208677
0.00256798
0.00293931
0.00319235
0.003323
0.00335598
0.00332155
0.00324276
0.00311771
0.00294941
0.00278643
0.00255449
0.00219564
0.00166807
0.000922693
0.000133282
0.0016675
0.00192333
0.00232933
0.00274131
0.00312875
0.00345669
0.00368772
0.00381168
0.00384437
0.00380694
0.0037154
0.00357568
0.00339014
0.00317417
0.00286217
0.00240236
0.00172316
0.000823144
0.000126809
0.00302314
0.00305824
0.00326148
0.00351356
0.00377467
0.00400695
0.00417982
0.00427271
0.0042909
0.00424267
0.00413759
0.00397973
0.00376952
0.00349534
0.00311179
0.00256714
0.00181229
0.000860442
0.000127548
0.0041456
0.00408097
0.00414857
0.00428015
0.00442879
0.00456065
0.00466206
0.00471252
0.00470478
0.0046385
0.00451547
0.00433533
0.00409288
0.00377174
0.00333968
0.00276059
0.00199706
0.00103462
0.000140805
0.00504189
0.00494552
0.00493617
0.00498043
0.00504112
0.00509363
0.00512762
0.00512939
0.00508859
0.00499739
0.00485186
0.00464782
0.00437566
0.00401972
0.00355685
0.00295921
0.0021907
0.00121009
0.000151784
0.00576072
0.00565821
0.00560783
0.00559277
0.00558968
0.00558162
0.00555967
0.00551465
0.00543676
0.00531596
0.00514454
0.00491504
0.00461668
0.00423307
0.00374501
0.00312523
0.00233088
0.00129648
0.000159057
0.00634049
0.00623959
0.00616672
0.00611295
0.00606445
0.00601017
0.00594313
0.00585651
0.00574213
0.00559016
0.00539105
0.00513524
0.0048112
0.00440316
0.00389237
0.00324944
0.00242524
0.00134485
0.000163013
0.00680917
0.00671072
0.00662428
0.00654466
0.00646366
0.00637414
0.00627082
0.00614858
0.0060007
0.00581814
0.00559082
0.00530837
0.0049591
0.00452868
0.00399888
0.0033368
0.00248835
0.00138029
0.000163848
0.0071878
0.00709055
0.00699449
0.00689661
0.00679196
0.00667542
0.00654279
0.00639025
0.00621247
0.00600101
0.0057458
0.005437
0.00506358
0.00461435
0.00407064
0.00339545
0.00252995
0.00140286
0.000165664
0.00749366
0.00739621
0.00729254
0.00718112
0.00705888
0.00692115
0.00676392
0.00658506
0.00638085
0.00614285
0.00586077
0.00552726
0.00513348
0.00467024
0.00411875
0.0034358
0.00255551
0.00140891
0.000173843
0.00774181
0.00764414
0.00753452
0.00741298
0.00727672
0.00712015
0.00694034
0.00673783
0.00650896
0.00624378
0.00593629
0.005585
0.00518047
0.00471049
0.00415485
0.00346951
0.00258625
0.00142094
0.000172001
0.00794522
0.00784789
0.0077339
0.00760266
0.00745129
0.00727618
0.00707518
0.00684842
0.00659476
0.00630862
0.00598583
0.00562062
0.00520287
0.0047219
0.00416034
0.00347767
0.00260796
0.00144308
0.000179889
0.00811224
0.00801517
0.00789735
0.00775714
0.00759204
0.00740012
0.00718058
0.00693366
0.00665922
0.00635336
0.00601066
0.00562277
0.00518195
0.00467932
0.00410008
0.00341394
0.00256107
0.00143088
0.000174422
0.00824742
0.00815029
0.00802891
0.00788124
0.00770505
0.00749919
0.00726394
0.00700008
0.00670669
0.00638041
0.00601401
0.00559864
0.00512702
0.00459295
0.00398587
0.00328362
0.00243775
0.0013548
0.000164249
0.00835563
0.00825859
0.00813455
0.00798137
0.00779699
0.00758041
0.00733193
0.00705212
0.00674073
0.00639237
0.00600016
0.00555522
0.00505046
0.00448151
0.00384134
0.00311344
0.00226164
0.00122287
0.00015168
0.00844257
0.00834633
0.0082211
0.00806467
0.007875
0.00765089
0.00739206
0.00709834
0.00676896
0.00639938
0.00598196
0.00550821
0.004972
0.00436959
0.0036958
0.00293806
0.00207285
0.00107689
0.000142816
0.00851398
0.00841962
0.00829497
0.00813768
0.00794562
0.00771721
0.00745146
0.00714726
0.00680295
0.00641443
0.00597503
0.00547737
0.00491585
0.00428685
0.0035863
0.00280662
0.00193833
0.000987219
0.000137901
0.00857489
0.0084837
0.00836145
0.00820568
0.00801408
0.0077847
0.00751587
0.00720576
0.00685186
0.00645045
0.00599595
0.0054823
0.00490453
0.00425914
0.00354302
0.00275265
0.00188727
0.000961862
0.000137048
0.00862925
0.00854252
0.00842441
0.00827235
0.00808387
0.00785671
0.00758873
0.00727759
0.00692035
0.0065135
0.00605235
0.00553186
0.00494763
0.00429618
0.00357463
0.00278077
0.00191488
0.000987009
0.000139328
0.00867981
0.00859868
0.00848617
0.00833967
0.00815658
0.00793446
0.00767086
0.00736315
0.00700827
0.00660279
0.00614255
0.00562314
0.00504028
0.00439002
0.00366857
0.00287216
0.00199707
0.0010432
0.000143302
0.0087282
0.00865353
0.00854773
0.00840815
0.00823216
0.00801721
0.00776071
0.00745988
0.00711161
0.00671245
0.00625848
0.00574535
0.0051684
0.0045226
0.00380223
0.00300024
0.00210689
0.00111081
0.000147221
0.00877519
0.00870752
0.00860907
0.00847725
0.00830942
0.00810299
0.0078553
0.00756349
0.00722438
0.00683442
0.00638956
0.00588513
0.00531565
0.00467455
0.00395358
0.00314177
0.00222263
0.00117624
0.00015048
0.00882098
0.00876047
0.00866959
0.00854584
0.0083866
0.00818926
0.00795114
0.00766928
0.00734039
0.0069607
0.00652583
0.00603048
0.00546808
0.0048303
0.00410626
0.00328081
0.00233183
0.00123453
0.000153049
0.00886534
0.00881183
0.00872838
0.00861255
0.00846178
0.00827348
0.0080449
0.007773
0.0074543
0.00708472
0.00665942
0.00617233
0.00561568
0.00497938
0.00424997
0.00340858
0.00242943
0.00128474
0.000155061
0.00890773
0.00886078
0.00878428
0.0086759
0.00853311
0.00835332
0.00813373
0.00787118
0.00756195
0.00720164
0.00678484
0.00630468
0.00575221
0.0051157
0.00437935
0.00352166
0.00251415
0.00132749
0.000156665
0.00894725
0.00890619
0.00883596
0.00873431
0.00859876
0.00842669
0.00821524
0.00796109
0.00766031
0.0073081
0.00689853
0.00642391
0.00587424
0.00523633
0.00449247
0.00361932
0.00258643
0.00136355
0.000157991
0.00898256
0.00894659
0.00888182
0.00878607
0.00865689
0.00849164
0.00828736
0.00804059
0.00774714
0.00740186
0.00699828
0.00652801
0.00598011
0.00534014
0.00458907
0.00370204
0.00264717
0.00139365
0.000159166
0.00901185
0.00898009
0.00891992
0.00882924
0.00870559
0.00854628
0.00834826
0.00810789
0.00782076
0.00748136
0.00708274
0.00661591
0.00606911
0.00542698
0.00466942
0.00377043
0.00269706
0.00141823
0.000160484
0.00903288
0.00900448
0.0089481
0.00886172
0.00874286
0.00858875
0.00839622
0.00816147
0.00787986
0.00754556
0.00715123
0.00668732
0.00614147
0.00549758
0.00473476
0.0038261
0.00273761
0.00143786
0.00016179
0.00904322
0.00901741
0.0089642
0.00888155
0.00876693
0.00861751
0.00842997
0.00820034
0.00792375
0.00759411
0.00720368
0.00674253
0.00619781
0.00555288
0.00478629
0.0038704
0.00277032
0.00145409
0.000163134
0.00904047
0.00901673
0.00896625
0.00888701
0.00877641
0.00863149
0.00844877
0.00822408
0.00795234
0.00762721
0.00724063
0.00678233
0.00623911
0.00559401
0.00482522
0.00390461
0.00279653
0.00146819
0.000164602
0.00902286
0.00900086
0.00895295
0.00887709
0.0087706
0.00863033
0.00845261
0.00823304
0.00796633
0.00764588
0.00726335
0.00680821
0.00626702
0.00562266
0.00485316
0.00393023
0.00281762
0.00148126
0.000166294
0.00898985
0.00896944
0.00892412
0.00885185
0.00874983
0.0086147
0.00844251
0.00822859
0.00796742
0.00765212
0.00727414
0.0068227
0.00628423
0.00564154
0.00487272
0.00394953
0.00283541
0.00149437
0.000168376
0.00894278
0.00892381
0.00888111
0.00881272
0.00871573
0.00858648
0.00842062
0.00821319
0.00795835
0.00764901
0.00727642
0.00682964
0.00629498
0.00565518
0.0048884
0.00396655
0.00285293
0.00150929
0.000171038
0.00888533
0.00886739
0.00882713
0.00876276
0.00867133
0.00854876
0.00839019
0.00819026
0.0079428
0.00764056
0.00727471
0.00683429
0.00630548
0.00567081
0.00490804
0.00398873
0.00287592
0.00152903
0.00017463
0.00882375
0.00880593
0.00876734
0.00870663
0.00862093
0.00850566
0.00835526
0.00816383
0.00792492
0.00763126
0.00727427
0.00684322
0.0063244
0.00569973
0.00494526
0.00403005
0.00291541
0.00155929
0.000179691
0.00876669
0.00874746
0.00870893
0.00865055
0.00856997
0.00846202
0.00832024
0.00813801
0.00790872
0.00762546
0.00728042
0.006864
0.0063633
0.00575938
0.00502363
0.00411662
0.00299272
0.00161035
0.000187233
0.00872477
0.00870221
0.00866122
0.0086024
0.0085249
0.008423
0.00828926
0.00811628
0.00789736
0.00762646
0.00729767
0.00690438
0.00643688
0.00587622
0.00518338
0.00429615
0.00314808
0.00170063
0.000198944
0.00870977
0.00868251
0.00863629
0.00857259
0.00849357
0.00839378
0.00826569
0.00810087
0.00789237
0.00763559
0.0073283
0.00697063
0.00656221
0.00608879
0.00549013
0.00465019
0.00345313
0.00186142
0.000217764
0.00873337
0.00870254
0.00865044
0.00857677
0.00848738
0.0083793
0.00825138
0.00809225
0.0078932
0.00765134
0.00737051
0.00706383
0.00675346
0.00644568
0.00603879
0.00530122
0.00402649
0.0021472
0.000249309
0.00880518
0.00877705
0.00872608
0.00864351
0.00852963
0.00838306
0.00824576
0.00808893
0.0078972
0.00766892
0.00741589
0.00717162
0.0070026
0.00697743
0.00693031
0.00639613
0.00507269
0.00268074
0.00030958
0.00892947
0.00891655
0.0088896
0.00883102
0.00869941
0.00840082
0.00824477
0.00808812
0.00790058
0.00768094
0.00744789
0.00725554
0.00722951
0.00757089
0.00819476
0.00803211
0.00706992
0.00405264
0.000465955
)
;

boundaryField
{
    leftWall
    {
        type            nutkWallFunction;
        Cmu             0.09;
        kappa           0.41;
        E               9.8;
        value           nonuniform List<scalar> 
50
(
2.13838e-06
6.32543e-06
7.42381e-06
8.27397e-06
9.0216e-06
1.01224e-05
1.2481e-05
1.31956e-05
1.42199e-05
1.54625e-05
1.62992e-05
1.71644e-05
1.80097e-05
1.86921e-05
1.94697e-05
2.01964e-05
2.05159e-05
1.71548e-05
1.64478e-05
1.67736e-05
1.7717e-05
1.80197e-05
1.77399e-05
1.71513e-05
1.63834e-05
1.54833e-05
1.44931e-05
1.34797e-05
1.25539e-05
1.17801e-05
1.11453e-05
1.06375e-05
1.02289e-05
9.88445e-06
9.57171e-06
9.26779e-06
8.95979e-06
8.64365e-06
8.32098e-06
7.99782e-06
7.68333e-06
7.39353e-06
7.1613e-06
7.0675e-06
7.31395e-06
8.37007e-06
1.11105e-05
1.668e-05
2.67584e-05
4.91587e-05
)
;
    }
    rightWall
    {
        type            nutkWallFunction;
        Cmu             0.09;
        kappa           0.41;
        E               9.8;
        value           nonuniform List<scalar> 
50
(
2.24862e-06
7.78023e-06
9.73986e-06
1.20357e-05
1.65801e-05
1.7051e-05
1.6936e-05
1.65495e-05
1.55409e-05
1.48798e-05
1.49698e-05
1.64667e-05
1.78251e-05
1.86587e-05
1.90759e-05
1.90991e-05
1.91489e-05
2.01269e-05
1.99476e-05
1.73416e-05
1.62549e-05
1.45958e-05
1.2796e-05
1.15702e-05
1.09654e-05
1.09449e-05
1.1333e-05
1.19254e-05
1.24954e-05
1.29584e-05
1.33163e-05
1.35919e-05
1.38092e-05
1.39876e-05
1.41458e-05
1.4313e-05
1.44955e-05
1.46916e-05
1.49098e-05
1.51652e-05
1.54806e-05
1.58837e-05
1.64212e-05
1.7167e-05
1.82574e-05
1.99275e-05
2.25918e-05
2.70439e-05
3.54839e-05
5.56336e-05
)
;
    }
    lowerWall
    {
        type            nutkWallFunction;
        Cmu             0.09;
        kappa           0.41;
        E               9.8;
        value           nonuniform List<scalar> 
62
(
2.13838e-06
3.5645e-06
4.39873e-06
4.96838e-06
5.38766e-06
5.70892e-06
5.95936e-06
6.15453e-06
6.30558e-06
6.42185e-06
6.50907e-06
6.56994e-06
6.60493e-06
6.61376e-06
6.59744e-06
6.56115e-06
6.49721e-06
6.38961e-06
6.21495e-06
5.93304e-06
5.46269e-06
4.63593e-06
3.16103e-06
3.16103e-06
9.22152e-06
1.0851e-05
1.22642e-05
1.36971e-05
1.53616e-05
1.76437e-05
2.27285e-05
2.58377e-05
2.41411e-05
2.3267e-05
2.2448e-05
3.22048e-06
9.6598e-06
1.09224e-05
1.17814e-05
1.34488e-05
1.39213e-05
1.43745e-05
1.69126e-05
3.22048e-06
4.43426e-06
5.14881e-06
5.68416e-06
6.11091e-06
6.22294e-06
6.3178e-06
6.37923e-06
6.32419e-06
6.21998e-06
5.95514e-06
5.67552e-06
5.60801e-06
5.42389e-06
5.13767e-06
4.9008e-06
4.483e-06
3.80695e-06
2.24862e-06
)
;
    }
    atmosphere
    {
        type            calculated;
        value           nonuniform List<scalar> 
46
(
0.009
0.009
0.0041225
0.00400872
0.00403836
0.00431627
0.00479693
0.00536029
0.00589715
0.00636402
0.0067738
0.00717008
0.00763054
0.009
0.009
0.009
0.009
0.009
0.009
0.009
0.009
0.009
0.009
0.009
0.009
0.009
0.009
0.009
0.009
0.009
0.009
0.009
0.00840082
0.00824477
0.00808812
0.00790058
0.00768094
0.00744789
0.00725554
0.00722951
0.00757089
0.009
0.009
0.009
0.009
0.009
)
;
    }
    defaultFaces
    {
        type            empty;
    }
}


// ************************************************************************* //
