/*--------------------------------*- C++ -*----------------------------------*\
  =========                 |
  \\      /  F ield         | OpenFOAM: The Open Source CFD Toolbox
   \\    /   O peration     | Website:  https://openfoam.org
    \\  /    A nd           | Version:  13
     \\/     M anipulation  |
\*---------------------------------------------------------------------------*/
FoamFile
{
    format      ascii;
    class       volScalarField;
    location    "2.75";
    object      p;
}
// * * * * * * * * * * * * * * * * * * * * * * * * * * * * * * * * * * * * * //

dimensions      [1 -1 -2 0 0 0 0];

internalField   nonuniform List<scalar> 
2268
(
4918.5
4919.45
4932.56
4959.72
5000.08
5052.88
5116.74
5189.68
5269.47
5353.86
5440.55
5527.26
5612.23
5694.03
5770.9
5841.77
5904.25
5956.89
5997.9
6025.02
6035.88
6029.15
6011.55
4122.09
4124.07
4137.59
4165.49
4206.4
4259.65
4323.92
4397.27
4477.45
4562.05
4648.68
4734.99
4819.31
4900.28
4976.3
5045.13
5105.78
5156.59
5195.85
5221.41
5231.3
5222.94
5205.3
3323.27
3327.67
3342.05
3370.96
3412.64
3466.64
3531.65
3605.68
3686.4
3771.37
3858.07
3943.96
4027.56
4107.48
4181.89
4248.79
4307.05
4355.39
4392.46
4416.36
4425.53
4415.8
4398.79
2521
2528.23
2543.19
2573.1
2615.92
2671.24
2737.77
2813.13
2894.81
2980.53
3067.75
3153.6
3236.51
3315.45
3388.38
3453.5
3509.72
3556.03
3591.46
3614.08
3622.13
3609.54
3591.78
1714.12
1720.97
1734.77
1764.9
1809.13
1866.84
1936.59
2015.19
2099.49
2187.57
2276.99
2363.77
2446.3
2524.36
2595.87
2659.16
2713.33
2757.49
2791.1
2812.09
2818.11
2801.97
2783.75
1084.77
1088.77
1097.23
1114.88
1140.99
1175.51
1218.56
1271.29
1335.49
1407.6
1485.69
1569.03
1653.96
1734.11
1806.25
1868.85
1921.25
1962.71
1993.44
2011.77
2014.77
1994.98
1975.34
831.355
832.498
835.407
838.944
843.129
848.16
854.812
866.097
885.582
910.809
941.242
978.857
1020.87
1064.02
1106.28
1147.08
1183.91
1215.83
1242.09
1255.1
1252.66
1230.9
1211.6
769.306
769.509
771.036
772.836
774.211
774.94
774.826
773.612
770.851
767.034
762.413
756.796
751.545
749.512
751.101
756.125
762.4
769.211
775.206
775.137
769.445
760.121
754.828
2910.74
2815.98
2705.64
2619.2
2559.33
2498.41
2470.73
2454.85
2447.11
2444.84
2424.31
2397.49
2420.74
2427.99
2421.29
2410.25
2394.97
2384.49
2380.93
2223.19
2124.87
2015.6
1928.81
1887.23
1884.65
1862.47
1842.8
1829.08
1833.11
1845.18
1855.41
1840.48
1820.88
1812.8
1799.97
1786.42
1777.58
1774.03
1651.91
1548.22
1466.43
1409.53
1357.87
1327.75
1308.61
1291.12
1286.77
1269.91
1298.89
1326.7
1306.32
1282.3
1264.73
1245.76
1243.11
1250.44
1259.8
1234.95
1182.4
1165
1151.82
1104.44
1059.79
1041.84
1029.3
1022.64
986.522
979.506
980.966
975.274
958.427
948.232
944.762
948.699
954.149
952.225
983.058
992.45
1007.68
1010.33
1000.37
979.726
964.755
954.504
929.969
904.697
874.615
851.473
828.122
840.993
859.71
870.562
868.215
855.951
837.307
878.812
882.388
887.439
885.332
895.098
900.674
892.173
882.578
851.642
837.095
823.653
803.587
768.319
791.42
813.232
816.295
812.985
801.162
795.718
786.518
786.314
789.093
782.459
782.561
805.489
804.031
786.419
769.424
769.361
764.203
757.285
743.793
752.841
757.586
757.069
753.902
744.946
748.871
705.081
708.961
713.347
704.041
694.914
707.898
708.762
696.903
700.847
706.345
706.018
705.519
718.034
710.572
701.788
699.096
696.204
688.928
698.237
674.354
675.038
676.687
678.532
679.904
680.486
679.999
678.272
675.275
671.314
666.783
661.982
656.97
651.331
644.82
636.713
627.594
617.804
607.623
598.433
591.623
589.243
591.75
543.867
545.634
548.238
550.502
552.306
553.373
553.278
551.989
549.656
546.444
542.449
537.803
532.486
526.474
519.749
512.742
505.192
497.239
488.839
480.224
471.862
464.677
459.009
419.064
419.047
420.453
422.332
424.519
426.392
426.618
425.543
423.837
421.408
418.123
413.964
408.919
403.164
397.046
390.662
383.687
376.215
368.831
362.279
357.046
353.586
351.939
312.467
312.324
312.146
312.054
311.787
310.981
310.597
309.566
307.843
305.704
303.061
300.075
297.03
293.402
289.108
284.674
280.946
278.118
275.695
274.011
273.677
275.153
278.456
235.02
235.518
235.026
233.69
231.418
229.19
228.248
227.402
225.938
224.103
222.262
220.489
218.825
216.886
214.469
212.335
210.923
210.745
211.172
211.858
213.119
215.326
218.476
172.258
171.34
170.325
169.301
168.319
167.962
167.312
166.683
165.864
164.772
163.536
162.076
160.173
158.305
156.736
155.266
153.643
151.815
150.991
151.154
152.013
153.628
156.026
107.321
105.935
105.004
104.404
104.209
104.237
103.764
103.305
102.906
102.304
101.295
99.9437
98.357
96.7118
95.0932
93.6201
91.8899
90.3986
89.4418
89.1257
89.445
90.4279
92.0242
45.8051
43.9904
43.054
42.8761
43.0769
43.2911
43.3779
43.3461
43.2134
42.9001
42.3323
41.494
40.434
39.2752
38.1062
36.8106
35.6461
34.4544
33.469
32.8373
32.6819
33.0427
33.8268
10.8869
9.94631
9.46152
9.51447
9.78987
10.1341
10.2948
10.2974
10.3058
10.2705
10.1157
9.81182
9.38535
8.89493
8.37834
7.85648
7.37094
6.93703
6.58843
6.35218
6.24824
6.30199
6.52381
4.40519
4.41536
4.44616
4.44034
4.42376
4.40902
4.40767
4.41128
4.40926
4.40569
4.40848
4.4201
4.43906
4.4631
4.49151
4.52323
4.55865
4.59672
4.63004
4.65604
4.67494
4.68665
4.69579
4.28229
4.28623
4.29368
4.29985
4.30618
4.3137
4.32305
4.33232
4.33908
4.34474
4.35176
4.36098
4.37224
4.38522
4.39967
4.41525
4.43218
4.45011
4.46853
4.48642
4.50314
4.51667
4.52919
4.15712
4.16011
4.16518
4.16885
4.17245
4.17761
4.18528
4.19325
4.1998
4.20545
4.21311
4.22311
4.23523
4.24923
4.26484
4.28182
4.30004
4.31926
4.33881
4.3573
4.37377
4.38592
4.3955
4.02869
4.03008
4.03398
4.03664
4.03865
4.04219
4.04851
4.05536
4.06245
4.06933
4.07713
4.08753
4.09992
4.114
4.12959
4.14652
4.16462
4.18357
4.20274
4.22105
4.23731
4.24908
4.2579
3.89801
3.89773
3.90015
3.90252
3.90467
3.90757
3.91204
3.91875
3.92685
3.93596
3.94509
3.95616
3.96872
3.98256
3.99757
4.01371
4.03082
4.04864
4.06667
4.08399
4.09954
4.11082
4.11943
3.7657
3.76413
3.76527
3.76742
3.77035
3.7734
3.77648
3.78261
3.79109
3.80114
3.81274
3.82483
3.83767
3.8514
3.86602
3.88151
3.89775
3.91455
3.93148
3.94774
3.96231
3.9728
3.98097
3.63263
3.63072
3.63095
3.63293
3.63646
3.64009
3.64369
3.64855
3.6565
3.66729
3.67983
3.69231
3.70522
3.71879
3.7331
3.74806
3.76356
3.7795
3.79551
3.81083
3.82458
3.83436
3.84197
3.49917
3.49766
3.49776
3.49975
3.5032
3.50724
3.5118
3.51745
3.52513
3.53541
3.54703
3.55913
3.57175
3.58499
3.59886
3.61323
3.62803
3.64318
3.65837
3.67291
3.68595
3.69513
3.70232
3.36539
3.36448
3.36493
3.36685
3.3701
3.3743
3.37937
3.38557
3.39338
3.40291
3.41371
3.42523
3.43738
3.45015
3.46344
3.47717
3.49127
3.50569
3.52014
3.53397
3.54639
3.55509
3.56183
3.23127
3.23089
3.23163
3.23356
3.23673
3.24096
3.24621
3.25257
3.26026
3.26931
3.27946
3.29042
3.30205
3.31425
3.32693
3.33999
3.35341
3.36712
3.38087
3.39407
3.40591
3.41413
3.42052
3.0968
3.09688
3.09785
3.09983
3.10293
3.10711
3.11235
3.11868
3.12614
3.13475
3.14435
3.15474
3.1658
3.17739
3.18942
3.20182
3.21456
3.22758
3.24067
3.25322
3.26453
3.2723
3.27823
2.96199
2.96243
2.96358
2.96559
2.96863
2.97272
2.97786
2.98402
2.99121
2.99938
3.00845
3.01827
3.02871
3.03967
3.05104
3.06276
3.07481
3.08715
3.09957
3.11152
3.12227
3.1296
3.1352
2.82683
2.8275
2.82879
2.83084
2.83382
2.8378
2.84276
2.84869
2.85556
2.8633
2.87183
2.88107
2.89089
2.90119
2.91188
2.92291
2.93425
2.9459
2.95765
2.96896
2.97916
2.98607
2.99125
2.69129
2.6921
2.69348
2.69556
2.69849
2.70233
2.70709
2.71275
2.71926
2.72656
2.73456
2.7432
2.75238
2.76201
2.772
2.78232
2.79296
2.80389
2.81493
2.82559
2.83516
2.84158
2.84641
2.5554
2.55626
2.55768
2.55976
2.56262
2.56632
2.57087
2.57624
2.58237
2.58922
2.5967
2.60473
2.61326
2.62221
2.6315
2.64109
2.65099
2.66117
2.67148
2.6814
2.69032
2.69621
2.70049
2.41916
2.42
2.42144
2.42348
2.42625
2.42979
2.43411
2.43917
2.44493
2.45132
2.45828
2.46572
2.4736
2.48185
2.49042
2.49928
2.50841
2.51782
2.52734
2.53653
2.54474
2.55003
2.5539
2.28259
2.2834
2.2848
2.28679
2.28944
2.2928
2.29686
2.30159
2.30695
2.31288
2.31931
2.32618
2.33342
2.34098
2.34883
2.35694
2.3653
2.37392
2.38265
2.39105
2.39854
2.40326
2.40671
2.14573
2.14648
2.14783
2.14973
2.15225
2.15539
2.15918
2.16356
2.1685
2.17395
2.17985
2.18613
2.19273
2.19961
2.20674
2.2141
2.22169
2.22952
2.23744
2.24508
2.25181
2.2558
2.25918
2.00861
2.0093
2.01057
2.01237
2.01472
2.01764
2.02112
2.02514
2.02965
2.03461
2.03996
2.04564
2.0516
2.0578
2.06421
2.07082
2.07763
2.08467
2.0918
2.09865
2.10469
2.10826
2.11063
1.87126
1.8719
1.87309
1.87476
1.87691
1.87958
1.88275
1.88638
1.89045
1.89491
1.89971
1.90479
1.9101
1.91561
1.9213
1.92716
1.93321
1.93945
1.94578
1.95185
1.95717
1.96018
1.96201
1.73373
1.73434
1.73543
1.73695
1.73889
1.74128
1.74411
1.74735
1.75097
1.75492
1.75916
1.76364
1.76831
1.77314
1.77811
1.78323
1.7885
1.79396
1.79949
1.80477
1.80937
1.81187
1.81315
1.59607
1.59665
1.59765
1.599
1.6007
1.60279
1.60527
1.6081
1.61125
1.61469
1.61837
1.62225
1.62628
1.63044
1.63472
1.6391
1.64362
1.64829
1.65301
1.65751
1.66136
1.66329
1.66415
1.45833
1.4589
1.4598
1.46096
1.4624
1.46417
1.46627
1.46867
1.47136
1.47428
1.47741
1.4807
1.48411
1.48762
1.49121
1.49488
1.49866
1.50255
1.50648
1.51016
1.51326
1.51461
1.51485
1.32057
1.32115
1.32194
1.32289
1.32404
1.32546
1.32716
1.32912
1.33133
1.33375
1.33633
1.33905
1.34187
1.34475
1.34769
1.35068
1.35375
1.35689
1.36003
1.36294
1.36528
1.36602
1.36581
1.18285
1.18345
1.18413
1.18484
1.18567
1.1867
1.18798
1.18949
1.19122
1.19314
1.1952
1.19738
1.19963
1.20193
1.20427
1.20663
1.20903
1.21146
1.21387
1.21603
1.21768
1.21792
1.2172
1.04523
1.04586
1.04641
1.04684
1.0473
1.04791
1.04874
1.0498
1.05106
1.05249
1.05406
1.05574
1.05749
1.05927
1.06107
1.06286
1.06466
1.06645
1.06818
1.06968
1.07068
1.07044
1.06939
0.907736
0.908428
0.908833
0.908936
0.908959
0.9091
0.909455
0.910044
0.910848
0.911831
0.912959
0.914195
0.915503
0.916845
0.918186
0.919497
0.920765
0.921997
0.923144
0.924033
0.924482
0.92385
0.922406
0.770401
0.771185
0.771416
0.771104
0.770605
0.770216
0.770074
0.770206
0.770584
0.771166
0.771909
0.772775
0.773724
0.774711
0.775688
0.776608
0.777441
0.7782
0.778845
0.779253
0.779243
0.778294
0.776707
0.633207
0.634125
0.634119
0.633251
0.632114
0.631136
0.630493
0.6302
0.630207
0.630452
0.630883
0.631454
0.632125
0.632843
0.633551
0.634181
0.63467
0.635049
0.635299
0.635301
0.634946
0.633834
0.632139
0.496097
0.497148
0.496744
0.495061
0.493164
0.491601
0.490525
0.489898
0.489625
0.489618
0.489811
0.490152
0.490606
0.491114
0.491633
0.492074
0.492313
0.492391
0.492314
0.492002
0.491346
0.490071
0.488404
0.358843
0.35979
0.35866
0.355739
0.353142
0.351228
0.349967
0.349212
0.348819
0.34868
0.348719
0.348887
0.349157
0.349441
0.349797
0.350118
0.350077
0.349846
0.349484
0.34888
0.34796
0.346536
0.344545
0.221229
0.221029
0.218528
0.213664
0.211184
0.209659
0.208732
0.2082
0.207927
0.207822
0.207821
0.207881
0.207948
0.208035
0.20817
0.208393
0.208473
0.207679
0.207047
0.206294
0.205279
0.203836
0.201469
0.0781868
0.0752594
0.0727283
0.0697943
0.0694261
0.069225
0.0691351
0.0691265
0.0691729
0.0692483
0.0693279
0.0693923
0.0693843
0.0692817
0.0693341
0.0696885
0.0698715
0.0685034
0.0678956
0.0674564
0.0669488
0.0662408
0.0648547
604.029
607.681
610.008
610.89
452.773
450.602
451.831
457.418
351.75
352.184
352.588
354.638
281.063
282.495
282.961
282.956
221
222.21
222.958
223.546
157.732
158.663
159.459
160.297
93.686
94.7555
95.7671
96.7392
35.0699
35.9763
36.8538
37.6284
6.93204
7.24543
7.54122
7.7893
4.70644
4.71829
4.73179
4.74238
4.54554
4.56436
4.58765
4.60386
4.41338
4.43478
4.4599
4.4766
4.2758
4.29838
4.32534
4.34314
4.13797
4.16143
4.18937
4.20777
3.99961
4.02341
4.05193
4.07067
3.86046
3.88435
3.91309
3.93208
3.72048
3.74428
3.77317
3.7922
3.57972
3.60332
3.63199
3.65096
3.43793
3.46117
3.48965
3.5084
3.29514
3.3179
3.34585
3.3644
3.15145
3.1736
3.20108
3.21919
3.00696
3.02844
3.05502
3.07263
2.86131
2.88197
2.90781
2.92478
2.71453
2.73426
2.75901
2.77548
2.5669
2.58557
2.60939
2.62516
2.41882
2.43639
2.45883
2.47385
2.27021
2.28647
2.30767
2.32177
2.12069
2.13588
2.15561
2.16891
1.97094
1.98486
2.00334
2.01567
1.82117
1.83382
1.85055
1.86187
1.67105
1.68234
1.6976
1.70779
1.52064
1.53053
1.54403
1.55332
1.37034
1.3788
1.39088
1.39919
1.22076
1.2279
1.23824
1.24564
1.07192
1.07779
1.08675
1.09317
0.924067
0.928747
0.93616
0.941825
0.777549
0.78115
0.78739
0.792195
0.632587
0.635322
0.640174
0.644164
0.488448
0.490423
0.494276
0.497421
0.344002
0.345155
0.347895
0.350618
0.199045
0.198958
0.200891
0.203727
0.0626431
0.0620594
0.0627072
0.0644556
608.903
608.83
610.06
606.076
600.672
597.882
594.405
597.234
607.14
612.932
615.767
621.02
636.342
625.117
614.537
609.62
607.11
604.77
612.569
471.046
474.351
474.908
479.753
481.157
474.246
472.594
478.87
483.525
487.984
492.009
497.657
507.392
501.658
495.876
493.825
495.505
499.244
504.209
359.665
362.368
363.842
371.81
376.037
373.251
375.467
379.734
382.635
386.599
389.899
393.686
398.474
398.579
399.454
402.494
406.797
410.312
411.163
284.615
288.062
290.168
293.481
297.625
302.907
305.575
308.234
312.094
315.655
318.482
320.785
323.222
326.01
329.753
333.508
335.865
336.17
335.473
224.917
228
230.169
232.285
236.376
242.186
246.305
249.248
251.279
253.523
256.206
258.86
261.623
264.335
267.304
269.969
271.237
270.476
269.967
161.847
164.759
167.39
170.255
174.166
179.11
183.761
186.931
189.017
191.439
194.217
197.031
199.844
202.558
205.187
207.371
208.452
208.172
208.076
98.3902
101.325
104.33
107.547
111.334
115.702
119.909
123.462
126.514
129.562
132.66
135.679
138.552
141.178
143.505
145.461
146.597
146.548
146.355
38.8192
41.1248
43.6375
46.3289
49.3588
52.7972
56.4167
60.0296
63.4569
66.8981
70.3992
73.868
77.1693
80.0338
82.1256
83.4433
84.0374
83.9943
83.9098
8.12938
8.89657
9.81568
10.8352
11.9874
13.2846
14.8402
16.4524
18.0733
19.8189
21.7772
23.9615
26.2737
28.5078
30.2727
31.1493
31.2256
30.8103
30.7523
4.75149
4.74531
4.74954
4.77461
4.80645
4.81625
4.80415
4.77677
4.7782
4.81714
4.96039
5.22124
5.56314
6.06202
6.76692
7.2026
7.29638
6.89064
6.80128
4.61736
4.62281
4.63062
4.64633
4.66463
4.66809
4.65479
4.63057
4.62072
4.62796
4.656
4.68931
4.71157
4.7211
4.67448
4.60023
4.56685
4.56583
4.59268
4.48634
4.48594
4.48785
4.49164
4.49687
4.4965
4.49175
4.48653
4.48608
4.48758
4.49206
4.49635
4.48903
4.46725
4.44413
4.43583
4.43421
4.43468
4.43493
4.35293
4.35067
4.34965
4.34675
4.34218
4.34176
4.34428
4.35153
4.35475
4.35332
4.34686
4.3411
4.33306
4.32421
4.3187
4.31354
4.31089
4.31032
4.31111
4.2178
4.21512
4.21422
4.21394
4.21333
4.21409
4.21729
4.22179
4.22424
4.22269
4.21555
4.20801
4.20374
4.19997
4.19593
4.19096
4.18715
4.18573
4.18516
4.08094
4.07835
4.07797
4.07921
4.08056
4.0827
4.08583
4.08943
4.0916
4.0912
4.08761
4.08319
4.07927
4.07501
4.07031
4.06548
4.06162
4.05902
4.05743
3.94259
3.94018
3.94032
3.94262
3.94529
3.94839
3.95185
3.95524
3.95752
3.95792
3.95611
3.95314
3.94992
3.9462
3.94204
3.93767
3.93377
3.9306
3.92803
3.80274
3.8006
3.80121
3.80432
3.80794
3.81182
3.81571
3.81925
3.82182
3.82292
3.82234
3.8206
3.81818
3.81512
3.81148
3.80749
3.80359
3.79997
3.79679
3.66152
3.65956
3.6606
3.66432
3.66865
3.67315
3.67749
3.68134
3.68431
3.68607
3.68647
3.68572
3.68408
3.68161
3.67841
3.67471
3.67082
3.66698
3.66356
3.5188
3.51706
3.51842
3.52262
3.52749
3.53249
3.53725
3.54148
3.54489
3.54724
3.54842
3.54846
3.54749
3.54555
3.54274
3.53929
3.53546
3.53154
3.52813
3.37472
3.37309
3.37471
3.37925
3.38451
3.38992
3.39507
3.39968
3.40352
3.4064
3.4082
3.40888
3.40846
3.40699
3.40454
3.40132
3.3976
3.39369
3.39042
3.22918
3.22767
3.22946
3.23425
3.23982
3.24555
3.25103
3.256
3.26023
3.26356
3.26587
3.26707
3.26714
3.26608
3.26397
3.26102
3.25745
3.25365
3.25065
3.08232
3.08084
3.08276
3.08773
3.09351
3.09949
3.10525
3.11051
3.11509
3.11881
3.12154
3.12318
3.12367
3.12299
3.12124
3.11857
3.11523
3.11169
3.10899
2.93403
2.93266
2.93467
2.93976
2.9457
2.95186
2.95783
2.96334
2.96821
2.97225
2.97534
2.97736
2.97822
2.97793
2.97652
2.97419
2.97115
2.96793
2.96559
2.78454
2.78323
2.78531
2.79046
2.79649
2.80277
2.8089
2.81461
2.81971
2.82403
2.82742
2.82977
2.83099
2.83106
2.83003
2.82804
2.82538
2.82257
2.82055
2.6338
2.63268
2.6348
2.63996
2.64602
2.65238
2.65861
2.66446
2.66975
2.67429
2.67795
2.6806
2.68215
2.68259
2.68193
2.68034
2.67809
2.67569
2.67403
2.48215
2.48113
2.48326
2.48839
2.49444
2.50082
2.50711
2.51305
2.51847
2.5232
2.52709
2.53001
2.53189
2.53268
2.53241
2.53123
2.52943
2.52747
2.52613
2.32949
2.32878
2.33083
2.33589
2.34189
2.34824
2.35454
2.36054
2.36606
2.37093
2.37502
2.3782
2.38039
2.38153
2.38166
2.38092
2.37956
2.37803
2.37703
2.17622
2.17565
2.17767
2.1826
2.18852
2.19481
2.20108
2.20709
2.21268
2.21767
2.22193
2.22535
2.22782
2.22932
2.22986
2.22955
2.22864
2.22755
2.22685
2.0224
2.02173
2.02381
2.02867
2.03448
2.04067
2.04688
2.05288
2.0585
2.06358
2.06799
2.07162
2.07438
2.07622
2.07715
2.0773
2.07685
2.07616
2.07574
1.8681
1.86739
1.86948
1.87423
1.87991
1.88598
1.8921
1.89806
1.90368
1.90882
1.91335
1.91718
1.9202
1.92238
1.92373
1.92431
1.92432
1.92406
1.9239
1.71334
1.71281
1.71491
1.71953
1.72505
1.73097
1.73697
1.74284
1.74843
1.7536
1.75824
1.76224
1.76552
1.76803
1.76976
1.7708
1.77127
1.77139
1.77151
1.5586
1.55824
1.56038
1.56486
1.57018
1.57591
1.58175
1.5875
1.59301
1.59818
1.6029
1.60705
1.61057
1.6134
1.61552
1.61698
1.61788
1.61841
1.61875
1.40403
1.40401
1.40618
1.4105
1.41561
1.42111
1.42674
1.43232
1.43772
1.44285
1.44761
1.4519
1.45563
1.45875
1.46124
1.46311
1.4644
1.46525
1.46583
1.25022
1.25044
1.25264
1.25677
1.26162
1.26685
1.27221
1.27757
1.28282
1.28786
1.29263
1.29702
1.30095
1.30434
1.30717
1.30939
1.31103
1.31215
1.31289
1.09731
1.09786
1.10007
1.10397
1.10851
1.1134
1.11844
1.12351
1.12854
1.13345
1.13818
1.14264
1.14675
1.1504
1.15353
1.15607
1.15795
1.15922
1.16008
0.945799
0.946549
0.94872
0.95233
0.956491
0.960973
0.96561
0.970321
0.975059
0.979779
0.984424
0.988922
0.993182
0.997086
1.00051
1.00328
1.00529
1.0066
1.00749
0.795727
0.796696
0.798755
0.802001
0.8057
0.809686
0.813827
0.818088
0.822453
0.8269
0.831398
0.835893
0.840298
0.844465
0.848166
0.851141
0.853151
0.85429
0.855141
0.647299
0.6483
0.650193
0.652994
0.656125
0.659505
0.663046
0.666754
0.670639
0.674708
0.678964
0.683385
0.687917
0.692397
0.696423
0.699536
0.701443
0.702277
0.702973
0.5
0.501157
0.502859
0.50514
0.507589
0.510261
0.513088
0.516134
0.519414
0.522955
0.526799
0.531
0.535604
0.540437
0.544796
0.548133
0.549903
0.550303
0.550915
0.353451
0.355025
0.356573
0.358232
0.359607
0.361524
0.363584
0.365871
0.368401
0.371207
0.374376
0.378085
0.382563
0.388053
0.392672
0.396234
0.398124
0.398447
0.398998
0.208185
0.210679
0.211978
0.212624
0.212324
0.213259
0.214659
0.216171
0.217828
0.219681
0.221848
0.224581
0.22876
0.235429
0.239649
0.243195
0.245596
0.246191
0.247175
0.0678623
0.0694699
0.0699549
0.0695599
0.0692918
0.0697887
0.0705061
0.0711904
0.0718673
0.0725803
0.0734016
0.0744548
0.0762982
0.0801278
0.0818283
0.0835847
0.0849507
0.0835644
0.0869834
)
;

boundaryField
{
    leftWall
    {
        type            calculated;
        value           nonuniform List<scalar> 
50
(
4918.5
4122.09
3323.27
2521
1714.12
1084.77
831.355
769.306
674.354
543.867
419.064
312.467
235.02
172.258
107.321
45.8051
10.8869
4.40519
4.28229
4.15712
4.02869
3.89801
3.7657
3.63263
3.49917
3.36539
3.23127
3.0968
2.96199
2.82683
2.69129
2.5554
2.41916
2.28259
2.14573
2.00861
1.87126
1.73373
1.59607
1.45833
1.32057
1.18285
1.04523
0.907736
0.770401
0.633207
0.496097
0.358843
0.221229
0.0781868
)
;
    }
    rightWall
    {
        type            calculated;
        value           nonuniform List<scalar> 
50
(
2380.93
1774.03
1259.8
952.225
837.307
795.718
748.871
698.237
612.569
504.209
411.163
335.473
269.967
208.076
146.355
83.9098
30.7523
6.80128
4.59268
4.43493
4.31111
4.18516
4.05743
3.92803
3.79679
3.66356
3.52813
3.39042
3.25065
3.10899
2.96559
2.82055
2.67403
2.52613
2.37703
2.22685
2.07574
1.9239
1.77151
1.61875
1.46583
1.31289
1.16008
1.00749
0.855141
0.702973
0.550915
0.398998
0.247175
0.0869834
)
;
    }
    lowerWall
    {
        type            calculated;
        value           nonuniform List<scalar> 
62
(
5316.65
5317.6
5330.71
5357.87
5398.23
5451.03
5514.89
5587.83
5667.62
5752.01
5838.7
5925.41
6010.38
6092.18
6169.05
6239.92
6302.4
6355.04
6396.05
6423.14
6433.83
6427.09
6409.49
6011.55
5205.3
4398.79
3591.78
2783.75
1975.34
1211.6
754.828
689.039
703.316
708.579
705.847
2910.74
2223.19
1651.91
1234.95
983.058
878.812
786.518
705.081
3262.22
3167.69
3057.19
2970.38
2895.59
2763.73
2735.99
2722.5
2722.78
2721.83
2687.54
2655.5
2697.47
2732.21
2725.72
2715.16
2698.65
2687.61
2684.19
)
;
    }
    atmosphere
    {
        type            calculated;
        value           nonuniform List<scalar> 
46
(
-0.00020631
-0.00011069
-2.82246e-05
-2.03316e-06
0
0
0
0
0
0
-3.26298e-06
-1.44011e-05
-3.52773e-05
-5.4292e-05
-7.10635e-05
-8.57719e-05
-5.47952e-05
-6.51003e-05
-7.96865e-05
-9.23003e-05
-0.000100996
-0.000106014
-0.000103449
-7.30678e-05
-6.81063e-05
-6.68512e-05
-6.85956e-05
-6.63022e-05
-5.80095e-05
-4.82751e-05
-4.26093e-05
-3.32141e-05
-3.47482e-05
-2.07072e-05
-1.09662e-05
-5.4367e-06
-2.8275e-06
-2.07724e-06
-2.74015e-06
-2.98794e-06
-2.76027e-05
-4.94197e-05
-0.000111663
-0.000223352
-0.000407681
-0.000272444
)
;
    }
    defaultFaces
    {
        type            empty;
    }
}


// ************************************************************************* //
