/*--------------------------------*- C++ -*----------------------------------*\
  =========                 |
  \\      /  F ield         | OpenFOAM: The Open Source CFD Toolbox
   \\    /   O peration     | Website:  https://openfoam.org
    \\  /    A nd           | Version:  13
     \\/     M anipulation  |
\*---------------------------------------------------------------------------*/
FoamFile
{
    format      ascii;
    class       volScalarField;
    location    "2.75";
    object      p_rgh;
}
// * * * * * * * * * * * * * * * * * * * * * * * * * * * * * * * * * * * * * //

dimensions      [1 -1 -2 0 0 0 0];

internalField   nonuniform List<scalar> 
2268
(
5316.65
5317.6
5330.71
5357.87
5398.23
5451.03
5514.89
5587.83
5667.62
5752.01
5838.7
5925.41
6010.38
6092.18
6169.05
6239.92
6302.4
6355.04
6396.05
6423.14
6433.83
6427.09
6409.49
5316.54
5318.51
5332.04
5359.94
5400.85
5454.1
5518.37
5591.72
5671.9
5756.5
5843.13
5929.44
6013.76
6094.73
6170.75
6239.58
6300.23
6351.04
6390.3
6415.84
6425.64
6417.23
6399.7
5314.01
5318.42
5332.8
5361.71
5403.39
5457.38
5522.4
5596.43
5677.15
5762.12
5848.82
5934.71
6018.31
6098.23
6172.64
6239.54
6297.8
6346.14
6383.21
6407.1
6416.27
6406.55
6389.54
5308.05
5315.28
5330.24
5360.15
5402.97
5458.29
5524.82
5600.18
5681.86
5767.58
5854.8
5940.64
6023.56
6102.5
6175.43
6240.55
6296.77
6343.07
6378.51
6401.13
6409.18
6396.59
6378.83
5297.47
5304.32
5318.12
5348.25
5392.48
5450.19
5519.93
5598.54
5682.84
5770.92
5860.34
5947.12
6029.65
6107.71
6179.22
6242.51
6296.67
6340.84
6374.45
6395.44
6401.46
6385.32
6367.09
3496.96
3480.87
3512.95
3651.6
3877.19
4180.79
4546.46
4922.59
5248.2
5542.87
5796.88
5948.67
6033.61
6113.76
6185.9
6248.49
6300.9
6342.35
6373.09
6391.42
6394.41
6374.62
6354.17
1229.25
1229.5
1235.02
1252.84
1289.24
1346.26
1436.58
1609.21
1924.96
2328.06
2813.37
3424.85
4097.44
4705.81
5212.71
5591.02
5861.64
6022.12
6097.64
6147.52
6135.88
5999.05
5821.19
1210.75
1210.95
1212.48
1214.28
1215.65
1216.38
1216.27
1215.05
1212.29
1208.48
1203.86
1198.98
1234.42
1350.03
1533.56
1792.92
2076.55
2374.65
2661.2
2780.66
2724.08
2458.27
2226.17
3262.22
3167.69
3057.19
2970.38
2895.59
2763.73
2735.99
2722.5
2722.78
2721.83
2687.54
2655.5
2697.47
2732.21
2725.72
2715.16
2698.65
2687.61
2684.19
3277.62
3179.3
3034.85
2930.33
2886.62
2885.9
2856.15
2838.01
2821.46
2822.68
2779.56
2688.54
2749.38
2727.83
2720.77
2708.09
2695.79
2686.97
2683.64
2831.53
2717
2501.73
2308.02
2338.89
2433.28
2405.35
2379.1
2313.5
2449.26
2472.62
2546.52
2468.28
2468.53
2499.57
2508.93
2439.27
2365
2307.93
2636.88
2118.38
1798.95
1667.35
1493.92
1379.89
1373.87
1349.69
1435.56
1311.24
1589.88
1714.22
1692.03
1562.78
1438.07
1279.2
1328.44
1436.71
1625.37
1542.97
1492.93
1585.12
1640.94
1409.69
1263.71
1244.88
1234.65
1269.44
1187.14
1047.38
1098.69
1256.07
1110
1019.29
1085.32
1092.08
1104.04
995.358
1401.24
1510.06
1522.81
1536.58
1554.68
1365.85
1333.79
1344.98
1326.65
1208.94
1151.71
1023.54
859.421
986.074
1117.05
1139.99
1136.68
1124.85
1015.5
1441.34
1355.37
1352.26
1391.57
1504.02
1451.54
1404.24
1472.5
1260.84
1188.76
1149.35
1139.36
858.097
1007.56
1140.12
1139.66
1136.44
1127.21
1034.17
1256.17
1269.92
1248.92
1200.81
1175.69
1438.14
1461.84
1308.3
1142.46
1150.58
1150.16
1130.82
852.365
1043.17
1141.9
1140.55
1137.24
1130.09
1058.36
1207.82
1208.5
1210.14
1211.96
1213.34
1213.95
1213.47
1211.74
1208.74
1204.78
1200.25
1195.45
1190.44
1184.8
1178.29
1170.18
1161.06
1151.27
1141.09
1131.9
1125.08
1121.41
1122.31
1202.33
1202.18
1205.8
1208.73
1210.96
1212.03
1211.94
1210.65
1208.32
1205.11
1201.11
1196.46
1191.15
1185.14
1178.41
1171.4
1163.85
1155.9
1147.5
1138.88
1130.18
1114.94
1091.41
1119.03
1170.95
1200.59
1205.29
1208.37
1210.25
1210.07
1209.4
1207.69
1205.26
1201.98
1197.82
1192.78
1186.45
1178.19
1169.38
1157.98
1146.78
1125.41
1093.54
1049.13
994.195
897.077
968.496
929.956
944.512
965.445
1011.31
1074.22
1079.38
1072.43
1080.97
1087.13
1085.94
1076.51
1049.74
1020
999.58
981.993
939.704
869.287
802.854
753.92
724.472
708.666
696.554
702.053
749.252
751.929
750.893
749.046
706.343
706.369
709.925
703.696
698.638
688.376
678.663
695.41
699.732
682.984
653.924
660.525
707.711
727.522
728.979
730.238
732.414
721.632
750.217
751.213
749.957
749.02
732.308
719.84
737.388
746.058
739.39
730.11
731.101
735.049
737.105
737.312
735.553
734.986
733.363
731.535
730.711
730.874
731.415
732.98
735.877
749.498
748.708
747.351
746.721
746.526
746.554
746.081
745.622
745.223
744.621
743.612
742.261
740.674
739.029
737.41
735.937
734.207
732.716
731.759
731.443
731.766
732.75
734.342
677.264
664.535
661.414
665.596
673.238
676.267
683.958
695.437
701.301
703.208
701.506
696.356
687.316
675.089
660.03
640.783
617.449
590.223
564.395
545.471
537.324
543.33
558.98
167.967
140.002
125.002
130.628
143.672
159.731
168.526
171.427
175.161
177.134
173.807
163.893
148.749
131.023
112.248
93.3698
75.7256
59.8083
47.3683
39.3052
35.9135
37.4925
43.7047
6.06978
6.079
6.10821
6.10272
6.08404
6.0694
6.06807
6.0716
6.06953
6.06594
6.06872
6.08035
6.09931
6.12335
6.15175
6.18346
6.21888
6.25694
6.29026
6.31627
6.33518
6.3469
6.35606
6.0696
6.07316
6.08095
6.08645
6.09192
6.09947
6.10899
6.11786
6.12474
6.1304
6.13722
6.14646
6.15771
6.1707
6.18516
6.20074
6.21766
6.23558
6.254
6.27189
6.28863
6.3022
6.31478
6.0699
6.07493
6.0822
6.0817
6.08349
6.09003
6.10751
6.15294
6.13407
6.11864
6.12424
6.13412
6.14623
6.16025
6.17586
6.19273
6.21088
6.23006
6.24959
6.26803
6.2845
6.29669
6.3063
6.06783
6.07884
6.10286
6.08665
6.07492
6.08162
6.19393
6.26208
6.24864
6.11323
6.11484
6.12476
6.13685
6.15084
6.16608
6.18278
6.2007
6.2196
6.23872
6.25698
6.27323
6.28498
6.29383
6.06371
6.09309
6.12543
6.11689
6.06759
6.08201
6.23185
6.25967
6.26898
6.2144
6.11311
6.12364
6.13273
6.14596
6.15978
6.17514
6.19216
6.20993
6.22786
6.24511
6.26066
6.2719
6.2805
6.05541
6.08413
6.11836
6.11716
6.05791
6.06049
6.11479
6.25526
6.26648
6.20943
6.10636
6.11847
6.13131
6.14427
6.15361
6.16796
6.18425
6.20102
6.2179
6.23409
6.24862
6.25908
6.26722
6.04626
6.05529
6.0862
6.07016
6.04844
6.05178
6.05605
6.08543
6.13107
6.09836
6.09536
6.11112
6.12441
6.13639
6.14517
6.15962
6.17518
6.19112
6.2071
6.22238
6.2361
6.24582
6.25342
6.03726
6.037
6.03731
6.03771
6.04018
6.04398
6.04859
6.05418
6.06189
6.0722
6.08428
6.09779
6.11239
6.12307
6.13564
6.15005
6.16487
6.17994
6.1951
6.20962
6.22263
6.23179
6.23894
6.02845
6.0276
6.02743
6.02898
6.03204
6.03621
6.04129
6.04751
6.05533
6.06496
6.07608
6.08814
6.10038
6.11244
6.12531
6.1391
6.15321
6.16758
6.182
6.19582
6.20824
6.21691
6.22364
6.01917
6.01874
6.019
6.0207
6.02383
6.02806
6.03331
6.03967
6.04731
6.0564
6.06681
6.07827
6.09005
6.10171
6.11402
6.12706
6.14047
6.15416
6.1679
6.18108
6.19292
6.20113
6.20752
6.00967
6.00979
6.01041
6.01216
6.01522
6.01939
6.02463
6.03094
6.03837
6.04698
6.05669
6.06737
6.07855
6.08979
6.10167
6.11405
6.12677
6.13979
6.15287
6.16542
6.17672
6.18449
6.19042
5.99978
6.00035
6.00126
6.00311
6.00611
6.01018
6.0153
6.02145
6.02862
6.0368
6.04589
6.05577
6.06621
6.07711
6.08845
6.10016
6.1122
6.12453
6.13695
6.1489
6.15965
6.16697
6.17257
5.98972
5.99045
5.9916
5.99354
5.99648
6.00043
6.00538
6.01129
6.01815
6.02589
6.03444
6.04368
6.05348
6.06377
6.07446
6.08548
6.09683
6.10847
6.12022
6.13153
6.14172
6.14863
6.15381
5.97923
5.98009
5.98142
5.98343
5.98633
5.99015
5.99489
6.00053
6.00703
6.01433
6.02234
6.03097
6.04015
6.04977
6.05977
6.07008
6.08072
6.09164
6.10268
6.11334
6.12291
6.12933
6.13416
5.9685
5.96938
5.97077
5.97281
5.97564
5.97932
5.98385
5.98921
5.99534
6.00218
6.00966
6.01769
6.02622
6.03516
6.04445
6.05404
6.06393
6.07412
6.08442
6.09435
6.10327
6.10915
6.11343
5.95743
5.95828
5.95969
5.96172
5.96446
5.96798
5.97228
5.97733
5.98308
5.98947
5.99642
6.00387
6.01174
6.02
6.02856
6.03742
6.04655
6.05596
6.06548
6.07467
6.08288
6.08817
6.09204
5.94606
5.94685
5.94823
5.9502
5.95283
5.95617
5.96022
5.96494
5.97029
5.97622
5.98265
5.98951
5.99675
6.00432
6.01217
6.02027
6.02863
6.03725
6.04598
6.05438
6.06188
6.06659
6.07004
5.93437
5.9351
5.93643
5.93832
5.94082
5.94395
5.94772
5.9521
5.95704
5.96248
5.96838
5.97466
5.98125
5.98814
5.99527
6.00263
6.01022
6.01804
6.02597
6.03361
6.04034
6.04433
6.0477
5.92243
5.9231
5.92436
5.92614
5.92847
5.93138
5.93485
5.93887
5.94338
5.94833
5.95368
5.95936
5.96532
5.97152
5.97793
5.98454
5.99135
5.99839
6.00552
6.01236
6.01841
6.02198
6.02435
5.91025
5.91088
5.91205
5.9137
5.91585
5.91851
5.92167
5.9253
5.92937
5.93383
5.93862
5.9437
5.94902
5.95453
5.96022
5.96608
5.97212
5.97836
5.98469
5.99077
5.99608
5.9991
6.00092
5.89791
5.89849
5.89957
5.90108
5.90301
5.9054
5.90822
5.91146
5.91508
5.91903
5.92327
5.92774
5.93241
5.93724
5.94222
5.94734
5.95261
5.95806
5.9636
5.96887
5.97347
5.97598
5.97725
5.88543
5.88599
5.88698
5.88831
5.89001
5.8921
5.89457
5.8974
5.90055
5.90399
5.90767
5.91155
5.91559
5.91975
5.92402
5.9284
5.93292
5.93759
5.94231
5.94681
5.95066
5.95259
5.95345
5.87287
5.87343
5.87432
5.87547
5.87691
5.87867
5.88077
5.88317
5.88585
5.88878
5.89191
5.8952
5.89861
5.90212
5.90571
5.90938
5.91316
5.91705
5.92098
5.92466
5.92775
5.9291
5.92934
5.8603
5.86086
5.86164
5.86259
5.86374
5.86516
5.86685
5.86882
5.87102
5.87344
5.87602
5.87874
5.88156
5.88444
5.88738
5.89038
5.89344
5.89658
5.89972
5.90263
5.90497
5.90572
5.9055
5.84776
5.84835
5.84902
5.84973
5.85055
5.85159
5.85286
5.85438
5.85611
5.85802
5.86009
5.86226
5.86452
5.86682
5.86916
5.87152
5.87392
5.87635
5.87876
5.88092
5.88256
5.88281
5.88208
5.83532
5.83595
5.83649
5.83693
5.83738
5.838
5.83882
5.83988
5.84114
5.84257
5.84414
5.84582
5.84757
5.84935
5.85115
5.85294
5.85474
5.85653
5.85826
5.85976
5.86076
5.86052
5.85947
5.82302
5.82371
5.82411
5.82421
5.82423
5.82438
5.82473
5.82532
5.82612
5.82711
5.82823
5.82947
5.83078
5.83212
5.83346
5.83477
5.83604
5.83727
5.83842
5.83931
5.83976
5.83913
5.83768
5.81087
5.81166
5.81189
5.81157
5.81108
5.81069
5.81054
5.81068
5.81105
5.81164
5.81238
5.81324
5.81419
5.81518
5.81616
5.81708
5.81791
5.81867
5.81931
5.81972
5.81971
5.81876
5.81718
5.79887
5.79979
5.79978
5.79892
5.79778
5.7968
5.79616
5.79586
5.79587
5.79612
5.79655
5.79712
5.79779
5.79851
5.79922
5.79985
5.80033
5.80071
5.80096
5.80097
5.80061
5.7995
5.7978
5.78696
5.78801
5.7876
5.78592
5.78402
5.78246
5.78138
5.78076
5.78048
5.78048
5.78067
5.78101
5.78146
5.78197
5.78249
5.78293
5.78317
5.78325
5.78317
5.78286
5.7822
5.78093
5.77926
5.7749
5.77584
5.77471
5.77179
5.7692
5.76728
5.76602
5.76527
5.76487
5.76473
5.76477
5.76494
5.76521
5.76549
5.76585
5.76617
5.76613
5.7659
5.76554
5.76493
5.76401
5.76259
5.7606
5.76248
5.76228
5.75978
5.75491
5.75243
5.75091
5.74998
5.74945
5.74918
5.74907
5.74907
5.74913
5.7492
5.74928
5.74942
5.74964
5.74972
5.74893
5.74829
5.74754
5.74653
5.74508
5.74272
5.74463
5.7417
5.73917
5.73624
5.73587
5.73567
5.73558
5.73557
5.73562
5.73569
5.73577
5.73584
5.73583
5.73572
5.73578
5.73613
5.73631
5.73495
5.73434
5.7339
5.73339
5.73268
5.7313
1328.5
1422.7
1450.05
1420.13
1070.23
1075.87
1099.05
1112.19
846.265
811.86
842.073
942.871
676.706
675.124
675.337
696.106
723.839
733.196
742.347
743.425
737.627
738.484
739.183
740.024
736.005
737.072
738.088
739.064
582.713
598.086
612.108
626.194
55.96
64.5113
72.1939
79.093
6.36706
6.37858
6.39208
6.4027
6.33117
6.34999
6.37329
6.38959
6.3242
6.34562
6.37075
6.38746
6.31177
6.33437
6.36131
6.37914
6.29906
6.32254
6.3505
6.3689
6.28587
6.30969
6.3382
6.35695
6.2719
6.29578
6.32453
6.34352
6.2571
6.2809
6.30978
6.32881
6.24152
6.26512
6.29379
6.31276
6.22492
6.24816
6.27663
6.29539
6.20732
6.23008
6.25803
6.27657
6.18882
6.21097
6.23844
6.25655
6.16951
6.19099
6.21758
6.23519
6.14906
6.16972
6.19556
6.21253
6.12748
6.1472
6.17195
6.18842
6.10503
6.12371
6.14753
6.1633
6.08215
6.09972
6.12216
6.13718
6.05874
6.075
6.0962
6.1103
6.03441
6.0496
6.06933
6.08263
6.00985
6.02378
6.04225
6.05459
5.98528
5.99793
6.01466
6.02598
5.96035
5.97165
5.98691
5.99709
5.93514
5.94502
5.95852
5.96782
5.91003
5.91849
5.93057
5.93888
5.88565
5.89279
5.90312
5.91052
5.862
5.86787
5.87683
5.88325
5.83934
5.84402
5.85144
5.8571
5.81802
5.82162
5.82786
5.83267
5.79825
5.80099
5.80584
5.80983
5.77931
5.78128
5.78514
5.78828
5.76006
5.76121
5.76395
5.76667
5.74029
5.74021
5.74214
5.74497
5.72909
5.7285
5.72915
5.7309
1161.18
1174.8
1240.58
1170.44
1112.14
1146.67
1195.02
1114.53
1140.36
1146.23
1149.62
1151.93
1106.14
1150.25
1147.95
1143.04
1141.42
1103.47
1086.17
1129.54
1147.42
1225.32
1109.82
1045.87
1124.34
1044.73
1036.64
1115.27
1136.04
1147.29
1153.79
1162.87
1154.82
1128.28
1081.67
1037.38
1039.52
1055.19
962.282
921.727
938.508
976.441
999.023
849.626
861.654
901.637
875.78
877.398
889.689
922.928
974.478
941.389
884.727
848.17
857.234
898.098
942.225
706.901
694.16
701.09
755.885
761.257
704.872
700.047
699.814
738.77
770.833
773.014
775.306
777.723
780.517
784.586
788.742
793.45
824.334
836.989
744.992
743.31
745.2
749.491
753.474
752.72
723.679
729.863
761.921
770.733
773.372
776.001
778.747
781.458
784.464
787.288
788.589
788.213
787.296
741.575
744.487
747.116
749.926
753.869
758.85
763.489
766.651
768.737
771.159
773.941
776.754
779.565
782.279
784.906
787.061
788.151
787.921
787.969
740.713
743.645
746.65
749.868
753.66
758.03
762.231
765.78
768.832
771.879
774.977
777.996
780.892
783.56
785.83
787.774
788.948
789.145
788.865
645.648
678.414
702.932
721.306
737.625
752.64
761.331
764.944
768.372
771.812
775.313
778.782
782.093
784.969
788.767
805.963
827.557
827.847
805.452
88.3588
112.466
138.536
165.075
194.146
225.974
260.156
292.796
322.068
355.22
394.877
440.752
490.616
538.966
565.925
581.034
573.605
571.333
568.807
6.41192
6.40581
6.41018
6.43554
6.46794
6.48217
6.47818
6.47648
6.51461
6.70756
8.68642
13.7572
21.943
35.0352
59.0576
76.4534
81.3307
67.7983
61.9999
6.40318
6.40886
6.4182
6.60435
6.86925
7.04355
7.02358
6.67161
6.59509
6.66989
6.97077
7.53211
7.98335
9.47452
9.78976
7.7633
7.12718
6.35124
7.69736
6.39724
6.39729
6.4004
6.69009
7.21422
7.22394
7.17049
6.54646
6.4457
6.49995
7.0386
7.30364
7.33376
7.11346
6.36919
6.34658
6.34497
6.3454
6.3613
6.38894
6.38679
6.3859
6.38266
6.3781
6.43655
6.38134
6.39294
6.3956
6.40515
6.6473
6.93037
6.77918
6.5226
6.35657
6.34958
6.3471
6.34646
6.34862
6.37894
6.37624
6.37533
6.37507
6.37448
6.37529
6.37956
6.38535
6.38765
6.39028
6.37947
6.38332
6.36642
6.36179
6.35795
6.35268
6.34887
6.34727
6.34644
6.36723
6.36465
6.36429
6.36558
6.36696
6.36913
6.37234
6.37615
6.3785
6.37783
6.37428
6.36962
6.3657
6.36145
6.35704
6.35234
6.34852
6.34576
6.34407
6.35403
6.35165
6.35183
6.3542
6.35694
6.36007
6.36352
6.36696
6.36927
6.36971
6.36791
6.36485
6.36158
6.35782
6.35378
6.34951
6.3456
6.34242
6.33984
6.33936
6.33722
6.33786
6.34101
6.3447
6.34862
6.35253
6.35607
6.35865
6.35978
6.35923
6.35746
6.35499
6.35187
6.34824
6.34428
6.34038
6.33674
6.33357
6.32331
6.32136
6.3224
6.32613
6.33048
6.335
6.33936
6.34321
6.34618
6.34796
6.34838
6.34764
6.34598
6.34348
6.34027
6.33656
6.33267
6.32882
6.32538
6.30579
6.30405
6.30541
6.3096
6.31447
6.31948
6.32425
6.32848
6.3319
6.33426
6.33544
6.33549
6.33451
6.33256
6.32975
6.32629
6.32246
6.31853
6.31513
6.28689
6.28526
6.28688
6.29142
6.29669
6.3021
6.30725
6.31187
6.31571
6.31859
6.32038
6.32106
6.32065
6.31917
6.31673
6.31351
6.30978
6.30588
6.30261
6.26654
6.26504
6.26683
6.27162
6.27719
6.28292
6.2884
6.29336
6.2976
6.30093
6.30324
6.30444
6.30451
6.30345
6.30134
6.29839
6.29483
6.29104
6.28806
6.24488
6.2434
6.24531
6.25028
6.25607
6.26205
6.2678
6.27307
6.27765
6.28137
6.2841
6.28574
6.28622
6.28555
6.2838
6.28114
6.27782
6.2743
6.27163
6.22178
6.22041
6.22242
6.2275
6.23344
6.23961
6.24557
6.25109
6.25595
6.26
6.26309
6.26511
6.26598
6.26568
6.26428
6.26195
6.25894
6.25578
6.25347
6.19748
6.19617
6.19826
6.2034
6.20943
6.21572
6.22184
6.22755
6.23265
6.23697
6.24036
6.24271
6.24394
6.24401
6.24298
6.241
6.23837
6.23565
6.23364
6.17194
6.17081
6.17293
6.17809
6.18416
6.19052
6.19675
6.2026
6.20788
6.21242
6.21608
6.21874
6.22029
6.22073
6.22007
6.21849
6.21628
6.21397
6.21231
6.14548
6.14446
6.14659
6.15172
6.15777
6.16415
6.17044
6.17638
6.1818
6.18653
6.19042
6.19335
6.19522
6.19601
6.19575
6.19458
6.19282
6.19097
6.18958
6.11802
6.1173
6.11936
6.12441
6.13042
6.13676
6.14306
6.14906
6.15458
6.15946
6.16355
6.16673
6.16891
6.17006
6.17019
6.16946
6.16815
6.16673
6.16564
6.08994
6.08937
6.09139
6.09632
6.10224
6.10853
6.1148
6.12081
6.1264
6.13139
6.13565
6.13907
6.14155
6.14304
6.14358
6.14328
6.14244
6.14145
6.14064
6.06131
6.06064
6.06272
6.06758
6.07339
6.07958
6.08579
6.09179
6.09741
6.10249
6.1069
6.11053
6.11329
6.11513
6.11607
6.11624
6.11585
6.11527
6.11471
6.03221
6.0315
6.03359
6.03834
6.04401
6.05009
6.05621
6.06217
6.06778
6.07292
6.07746
6.08129
6.08431
6.08649
6.08784
6.08844
6.08852
6.08835
6.08804
6.00264
6.00211
6.00421
6.00884
6.01435
6.02027
6.02627
6.03214
6.03773
6.0429
6.04754
6.05154
6.05482
6.05733
6.05907
6.06013
6.06066
6.06081
6.06084
5.9731
5.97274
5.97488
5.97935
5.98468
5.99041
5.99625
6.00199
6.00751
6.01268
6.0174
6.02155
6.02507
6.0279
6.03003
6.0315
6.03245
6.03297
6.03326
5.94372
5.9437
5.94587
5.95019
5.9553
5.9608
5.96643
5.97201
5.97741
5.98254
5.9873
5.99159
5.99532
5.99845
6.00094
6.00283
6.00415
6.00495
6.00553
5.91511
5.91533
5.91753
5.92166
5.92651
5.93173
5.9371
5.94246
5.9477
5.95275
5.95751
5.96191
5.96584
5.96924
5.97207
5.9743
5.97594
5.97706
5.97778
5.88739
5.88794
5.89015
5.89405
5.89859
5.90348
5.90852
5.91359
5.91862
5.92353
5.92826
5.93272
5.93683
5.94049
5.94362
5.94617
5.94805
5.94931
5.95017
5.86107
5.86182
5.864
5.86761
5.87177
5.87625
5.88089
5.8856
5.89034
5.89505
5.8997
5.9042
5.90846
5.91237
5.9158
5.91857
5.92058
5.92189
5.92276
5.8362
5.83717
5.83922
5.84247
5.84617
5.85016
5.8543
5.85856
5.86292
5.86737
5.87187
5.87637
5.88077
5.88494
5.88864
5.89162
5.89363
5.89476
5.89561
5.81296
5.81397
5.81586
5.81866
5.82179
5.82517
5.82871
5.83242
5.8363
5.84037
5.84463
5.84905
5.85358
5.85807
5.86209
5.86521
5.86711
5.86794
5.86864
5.79086
5.79202
5.79372
5.796
5.79845
5.80112
5.80395
5.80699
5.81027
5.81381
5.81766
5.82186
5.82647
5.8313
5.83566
5.839
5.84077
5.84116
5.84177
5.7695
5.77108
5.77263
5.77429
5.77566
5.77758
5.77964
5.78192
5.78446
5.78726
5.79043
5.79414
5.79862
5.80411
5.80873
5.81229
5.81418
5.8145
5.81505
5.74943
5.75193
5.75323
5.75387
5.75357
5.75451
5.75591
5.75742
5.75908
5.76093
5.7631
5.76583
5.77001
5.77668
5.7809
5.78444
5.78685
5.78744
5.78842
5.7343
5.73591
5.7364
5.736
5.73573
5.73623
5.73695
5.73763
5.73831
5.73902
5.73984
5.7409
5.74274
5.74657
5.74827
5.75003
5.75139
5.75001
5.75343
)
;

boundaryField
{
    leftWall
    {
        type            fixedFluxPressure;
        gradient        uniform 0;
        value           nonuniform List<scalar> 
50
(
5316.65
5316.54
5314.01
5308.05
5297.47
3496.96
1229.25
1210.75
1207.82
1202.33
1119.03
968.496
702.053
750.217
749.498
677.264
167.967
6.06978
6.0696
6.0699
6.06783
6.06371
6.05541
6.04626
6.03726
6.02845
6.01917
6.00967
5.99978
5.98972
5.97923
5.9685
5.95743
5.94606
5.93437
5.92243
5.91025
5.89791
5.88543
5.87287
5.8603
5.84776
5.83532
5.82302
5.81087
5.79887
5.78696
5.7749
5.76248
5.74463
)
;
    }
    rightWall
    {
        type            fixedFluxPressure;
        gradient        uniform 0;
        value           nonuniform List<scalar> 
50
(
2684.19
2683.64
2307.93
1625.37
995.358
1015.5
1034.17
1058.36
1086.17
1055.19
942.225
836.989
787.296
787.969
788.865
805.452
568.807
61.9999
7.69736
6.3613
6.34862
6.34644
6.34407
6.33984
6.33357
6.32538
6.31513
6.30261
6.28806
6.27163
6.25347
6.23364
6.21231
6.18958
6.16564
6.14064
6.11471
6.08804
6.06084
6.03326
6.00553
5.97778
5.95017
5.92276
5.89561
5.86864
5.84177
5.81505
5.78842
5.75343
)
;
    }
    lowerWall
    {
        type            fixedFluxPressure;
        gradient        uniform 0;
        value           nonuniform List<scalar> 
62
(
5316.65
5317.6
5330.71
5357.87
5398.23
5451.03
5514.89
5587.83
5667.62
5752.01
5838.7
5925.41
6010.38
6092.18
6169.05
6239.92
6302.4
6355.04
6396.05
6423.14
6433.83
6427.09
6409.49
6409.49
6399.7
6389.54
6378.83
6367.09
6354.17
5821.19
2226.17
1328.5
1422.7
1450.05
1420.13
3262.22
3277.62
2831.53
2636.88
1542.97
1401.24
1441.34
1256.17
3262.22
3167.69
3057.19
2970.38
2895.59
2763.73
2735.99
2722.5
2722.78
2721.83
2687.54
2655.5
2697.47
2732.21
2725.72
2715.16
2698.65
2687.61
2684.19
)
;
    }
    atmosphere
    {
        type            prghTotalPressure;
        rho             rho;
        psi             none;
        gamma           1;
        p0              uniform 0;
        value           nonuniform List<scalar> 
46
(
5.72883
5.72893
5.72901
5.72904
5.72904
5.72904
5.72904
5.72904
5.72904
5.72904
5.72904
5.72903
5.72901
5.72899
5.72897
5.72896
5.72899
5.72897
5.72896
5.72895
5.72894
5.72893
5.72894
5.72897
5.72897
5.72897
5.72897
5.72897
5.72898
5.72899
5.729
5.72901
5.72901
5.72902
5.72903
5.72904
5.72904
5.72904
5.72904
5.72904
5.72901
5.72899
5.72893
5.72882
5.72863
5.72877
)
;
        rho             rho;
    }
    defaultFaces
    {
        type            empty;
    }
}


// ************************************************************************* //
