/*--------------------------------*- C++ -*----------------------------------*\
  =========                 |
  \\      /  F ield         | OpenFOAM: The Open Source CFD Toolbox
   \\    /   O peration     | Website:  https://openfoam.org
    \\  /    A nd           | Version:  13
     \\/     M anipulation  |
\*---------------------------------------------------------------------------*/
FoamFile
{
    format      ascii;
    class       surfaceScalarField;
    location    "2.75";
    object      phi;
}
// * * * * * * * * * * * * * * * * * * * * * * * * * * * * * * * * * * * * * //

dimensions      [0 3 -1 0 0 0 0];

internalField   nonuniform List<scalar> 
4432
(
-1.18336e-06
1.18339e-06
-1.94091e-06
7.5757e-07
-2.57842e-06
6.37518e-07
-3.19541e-06
6.16991e-07
-3.79901e-06
6.03603e-07
-4.37275e-06
5.73743e-07
-4.9036e-06
5.30846e-07
-5.39705e-06
4.93438e-07
-5.86104e-06
4.63992e-07
-6.28282e-06
4.21772e-07
-6.64017e-06
3.57349e-07
-6.9176e-06
2.77422e-07
-7.10855e-06
1.90952e-07
-7.1994e-06
9.0843e-08
-7.17464e-06
-2.47613e-08
-7.00024e-06
-1.74393e-07
-6.65498e-06
-3.45266e-07
-6.13046e-06
-5.24516e-07
-5.41751e-06
-7.1295e-07
-4.49325e-06
-9.2425e-07
-3.33293e-06
-1.16032e-06
-1.96289e-06
-1.37004e-06
-1.96287e-06
-9.14876e-07
2.09833e-06
-1.59591e-06
1.43864e-06
-2.29445e-06
1.33609e-06
-2.9851e-06
1.30766e-06
-3.64344e-06
1.26195e-06
-4.25658e-06
1.18689e-06
-4.82035e-06
1.09462e-06
-5.34078e-06
1.01388e-06
-5.82183e-06
9.45048e-07
-6.25404e-06
8.53987e-07
-6.61945e-06
7.22755e-07
-6.90493e-06
5.6291e-07
-7.10065e-06
3.86669e-07
-7.18576e-06
1.75947e-07
-7.12957e-06
-8.09529e-08
-6.90605e-06
-3.97931e-07
-6.49295e-06
-7.58384e-07
-5.88227e-06
-1.13521e-06
-5.07295e-06
-1.5223e-06
-4.07562e-06
-1.9216e-06
-2.92446e-06
-2.3115e-06
-1.6476e-06
-2.64692e-06
-3.61053e-06
-7.39772e-07
2.83812e-06
-1.43302e-06
2.1319e-06
-2.1596e-06
2.06267e-06
-2.86987e-06
2.01794e-06
-3.53924e-06
1.93132e-06
-4.15915e-06
1.8068e-06
-4.72815e-06
1.66362e-06
-5.25113e-06
1.53686e-06
-5.72917e-06
1.4231e-06
-6.15328e-06
1.27809e-06
-6.5077e-06
1.07717e-06
-6.7823e-06
8.37512e-07
-6.96391e-06
5.68282e-07
-7.02748e-06
2.39517e-07
-6.9423e-06
-1.6614e-07
-6.68278e-06
-6.57442e-07
-6.2322e-06
-1.20896e-06
-5.58821e-06
-1.7792e-06
-4.75637e-06
-2.35414e-06
-3.75878e-06
-2.91919e-06
-2.64044e-06
-3.42983e-06
-1.42424e-06
-3.86312e-06
-5.03473e-06
-5.896e-07
3.42774e-06
-1.33711e-06
2.87943e-06
-2.0821e-06
2.80767e-06
-2.79221e-06
2.72806e-06
-3.45511e-06
2.59422e-06
-4.06804e-06
2.41973e-06
-4.63129e-06
2.22687e-06
-5.14732e-06
2.05288e-06
-5.614e-06
1.88978e-06
-6.02241e-06
1.6865e-06
-6.35864e-06
1.41341e-06
-6.61245e-06
1.09132e-06
-6.77103e-06
7.26861e-07
-6.80607e-06
2.74554e-07
-6.68814e-06
-2.84073e-07
-6.39469e-06
-9.50897e-07
-5.91503e-06
-1.68862e-06
-5.25227e-06
-2.44197e-06
-4.4155e-06
-3.19091e-06
-3.43083e-06
-3.90387e-06
-2.33972e-06
-4.52095e-06
-1.17268e-06
-5.03017e-06
-6.20746e-06
-4.99046e-07
3.92677e-06
-1.29015e-06
3.6705e-06
-2.0338e-06
3.55129e-06
-2.72438e-06
3.41861e-06
-3.36396e-06
3.23377e-06
-3.95715e-06
3.0129e-06
-4.50668e-06
2.77639e-06
-5.01028e-06
2.55646e-06
-5.45997e-06
2.33947e-06
-5.84594e-06
2.07246e-06
-6.15928e-06
1.72674e-06
-6.39187e-06
1.32391e-06
-6.52406e-06
8.59052e-07
-6.5238e-06
2.74296e-07
-6.36782e-06
-4.40056e-07
-6.03892e-06
-1.27979e-06
-5.5324e-06
-2.19514e-06
-4.8558e-06
-3.11857e-06
-4.02101e-06
-4.0257e-06
-3.05719e-06
-4.86769e-06
-2.00318e-06
-5.57495e-06
-9.04688e-07
-6.12867e-06
-7.11213e-06
-6.20523e-07
4.54733e-06
-1.338e-06
4.38796e-06
-2.01689e-06
4.23015e-06
-2.65017e-06
4.05187e-06
-3.23715e-06
3.82073e-06
-3.79077e-06
3.56648e-06
-4.32186e-06
3.30745e-06
-4.81897e-06
3.05355e-06
-5.2444e-06
2.76487e-06
-5.60509e-06
2.43312e-06
-5.90156e-06
2.02318e-06
-6.11311e-06
1.53543e-06
-6.20722e-06
9.5315e-07
-6.16603e-06
2.33095e-07
-5.96915e-06
-6.36935e-07
-5.6065e-06
-1.64244e-06
-5.07934e-06
-2.7223e-06
-4.39661e-06
-3.80129e-06
-3.56896e-06
-4.85335e-06
-2.62992e-06
-5.80672e-06
-1.6219e-06
-6.58296e-06
-6.07127e-07
-7.14343e-06
-7.71925e-06
-8.3455e-07
5.38186e-06
-1.36806e-06
4.92146e-06
-1.89873e-06
4.76081e-06
-2.41885e-06
4.57197e-06
-2.92423e-06
4.32608e-06
-3.43341e-06
4.07563e-06
-3.96384e-06
3.83784e-06
-4.47176e-06
3.56142e-06
-4.87505e-06
3.16813e-06
-5.20559e-06
2.76362e-06
-5.48495e-06
2.30251e-06
-5.67872e-06
1.72918e-06
-5.74433e-06
1.01874e-06
-5.6653e-06
1.54051e-07
-5.43597e-06
-8.6626e-07
-5.04876e-06
-2.02964e-06
-4.51476e-06
-3.25629e-06
-3.84141e-06
-4.4746e-06
-3.03035e-06
-5.66437e-06
-2.14007e-06
-6.69694e-06
-1.2159e-06
-7.50706e-06
-3.5131e-07
-8.00796e-06
-8.07052e-06
-6.12431e-07
5.99436e-06
-1.09089e-06
5.39996e-06
-1.3388e-06
5.00874e-06
-1.54099e-06
4.77418e-06
-1.7594e-06
4.54449e-06
-2.03301e-06
4.34925e-06
-2.40073e-06
4.20555e-06
-2.85936e-06
4.02004e-06
-3.36968e-06
3.67843e-06
-3.85858e-06
3.25251e-06
-4.28855e-06
2.73246e-06
-4.62532e-06
2.06593e-06
-4.81496e-06
1.20838e-06
-4.7971e-06
1.36184e-07
-4.58584e-06
-1.07752e-06
-4.20294e-06
-2.41252e-06
-3.68864e-06
-3.77056e-06
-3.05087e-06
-5.11232e-06
-2.29273e-06
-6.42244e-06
-1.48599e-06
-7.50361e-06
-6.90057e-07
-8.30291e-06
-1.32626e-07
-8.5653e-06
-8.2031e-06
-2.90213e-06
2.90213e-06
-5.3194e-06
2.41727e-06
-6.81526e-06
1.49585e-06
-6.97948e-06
1.64223e-07
-5.43252e-06
-1.54696e-06
-5.08169e-06
-3.50826e-07
-4.46925e-06
-6.12443e-07
-3.59782e-06
-8.71435e-07
-2.68377e-06
-9.14044e-07
-1.2595e-06
-1.42427e-06
-8.33288e-07
-4.26213e-07
-2.16651e-06
1.33322e-06
-1.80009e-06
-3.66416e-07
-1.01636e-06
-7.83738e-07
-6.7866e-07
-3.37697e-07
-2.48609e-07
-4.30052e-07
-3.25197e-08
-2.1609e-07
2.31942e-07
-2.64463e-07
2.31941e-07
-2.50862e-06
5.41073e-06
-4.29247e-06
4.20111e-06
-5.31429e-06
2.51767e-06
-5.68191e-06
5.31831e-07
-5.5565e-06
-1.67237e-06
-4.63096e-06
-1.27636e-06
-3.75485e-06
-1.48855e-06
-2.87076e-06
-1.75552e-06
-2.38085e-06
-1.40395e-06
-2.05636e-06
-1.74875e-06
-1.6971e-06
-7.85473e-07
-9.56874e-07
5.92989e-07
-6.29904e-07
-6.93387e-07
-7.46275e-07
-6.67367e-07
-6.21643e-07
-4.62329e-07
-4.51099e-07
-6.00594e-07
-3.99657e-07
-2.67531e-07
-4.38832e-07
-2.25289e-07
-2.06892e-07
-1.49345e-06
6.90417e-06
-3.13008e-06
5.83773e-06
-3.83236e-06
3.21995e-06
-3.74745e-06
4.46923e-07
-3.87729e-06
-1.54253e-06
-3.69199e-06
-1.46165e-06
-2.94765e-06
-2.23288e-06
-2.20403e-06
-2.49913e-06
-1.52069e-06
-2.08728e-06
-1.90783e-06
-1.36161e-06
-1.60556e-06
-1.08774e-06
-5.64445e-07
-4.48125e-07
-3.48388e-07
-9.09443e-07
-5.71006e-07
-4.44746e-07
-5.42205e-07
-4.91127e-07
-6.15292e-07
-5.27505e-07
-5.76997e-07
-3.05825e-07
-6.95113e-07
-1.07172e-07
-9.02006e-07
-1.46234e-06
8.36648e-06
-2.68634e-06
7.06171e-06
-2.69803e-06
3.23161e-06
-1.52557e-06
-7.25539e-07
-1.55283e-06
-1.51528e-06
-2.11346e-06
-9.01025e-07
-1.61711e-06
-2.72923e-06
-8.71293e-07
-3.24494e-06
6.85047e-08
-3.02707e-06
-6.45727e-07
-6.47381e-07
-6.25923e-07
-1.10754e-06
-1.79543e-07
-8.94503e-07
-3.32046e-07
-7.5694e-07
-8.14332e-07
3.75416e-08
-7.57054e-07
-5.48404e-07
-4.93353e-07
-7.91206e-07
1.92858e-07
-9.92036e-07
1.2105e-06
-1.12481e-06
3.08491e-07
-2.50942e-06
1.08759e-05
-2.23474e-06
6.78702e-06
-1.4454e-06
2.44227e-06
-6.89191e-07
-1.48174e-06
-1.82643e-08
-2.1862e-06
1.13423e-07
-1.03271e-06
5.54803e-07
-3.17061e-06
1.56732e-06
-4.25746e-06
2.00534e-06
-3.4651e-06
2.00642e-06
-6.48457e-07
1.49688e-06
-5.97999e-07
1.13326e-06
-5.30893e-07
-1.25013e-06
1.62645e-06
-2.42775e-06
1.21516e-06
-1.43967e-06
-1.53649e-06
6.66766e-07
-2.89764e-06
2.99232e-06
-3.31759e-06
6.66584e-06
-4.79834e-06
6.97432e-06
-6.12474e-07
1.14883e-05
-7.97379e-08
6.25427e-06
3.38956e-07
2.02358e-06
2.1822e-08
-1.16461e-06
1.95914e-07
-2.3603e-06
1.01886e-06
-1.85567e-06
1.6767e-06
-3.82848e-06
2.41823e-06
-4.99901e-06
2.21682e-06
-3.2637e-06
2.22219e-06
-6.53846e-07
2.69324e-06
-1.06906e-06
3.21216e-06
-1.04982e-06
-2.47927e-06
7.31785e-06
-2.98327e-06
1.71916e-06
-6.9688e-07
-3.82289e-06
1.52076e-06
-5.11528e-06
4.04874e-06
-5.84557e-06
5.8375e-06
-6.58709e-06
1.28118e-05
1.59206e-06
9.89625e-06
2.15216e-06
5.69416e-06
2.4454e-06
1.73032e-06
1.49963e-06
-2.18848e-07
6.03188e-07
-1.46387e-06
1.4129e-06
-2.6654e-06
2.14469e-06
-4.56029e-06
2.14044e-06
-4.99477e-06
1.45135e-06
-2.57462e-06
1.47344e-06
-6.7595e-07
1.69967e-06
-1.29529e-06
2.03405e-06
-1.38421e-06
-1.34654e-06
1.06984e-05
-1.15543e-06
1.52804e-06
2.80668e-07
-5.259e-06
1.92806e-06
-6.76269e-06
3.55384e-06
-7.47136e-06
3.92067e-06
-6.95393e-06
1.67325e-05
3.66185e-06
6.2344e-06
4.22636e-06
5.12963e-06
4.55888e-06
1.39778e-06
3.31171e-06
1.02831e-06
1.71059e-06
1.37244e-07
1.87391e-06
-2.82873e-06
2.1116e-06
-4.79798e-06
1.21508e-06
-4.09825e-06
5.50512e-07
-1.91006e-06
4.7633e-07
-6.01775e-07
4.57846e-07
-1.27681e-06
-2.41038e-07
-6.85333e-07
1.85554e-07
1.02718e-05
5.90547e-07
1.12304e-06
1.14438e-06
-5.81284e-06
1.96046e-06
-7.57876e-06
2.60608e-06
-8.11698e-06
1.97034e-06
-6.31819e-06
1.87028e-05
-1.05018e-06
7.0446e-06
-1.35499e-06
5.70488e-06
-1.1259e-06
4.77974e-06
-7.61522e-07
4.4099e-06
-3.78619e-07
4.16167e-06
-4.37654e-08
4.01447e-06
1.57861e-07
4.00399e-06
1.83397e-07
3.99456e-06
3.61468e-08
3.82572e-06
-2.15888e-07
3.50458e-06
-5.32026e-07
3.04862e-06
-9.16733e-07
2.45064e-06
-1.34992e-06
1.64156e-06
-1.7916e-06
5.77873e-07
-2.04142e-06
-8.27695e-07
-2.07681e-06
-2.37713e-06
-1.77549e-06
-4.07186e-06
-1.11009e-06
-5.77769e-06
-1.58225e-07
-7.37427e-06
1.0122e-06
-8.67399e-06
2.11155e-06
-9.4022e-06
2.63483e-06
-9.08854e-06
-6.74526e-06
1.17703e-06
-1.34971e-06
8.39434e-06
-7.79829e-07
5.13502e-06
1.24976e-07
3.87496e-06
9.91416e-07
3.54349e-06
1.89607e-06
3.25705e-06
2.81866e-06
3.09191e-06
3.63211e-06
3.19057e-06
4.2845e-06
3.34221e-06
4.79495e-06
3.31531e-06
5.21258e-06
3.08698e-06
5.57151e-06
2.68972e-06
5.90789e-06
2.1143e-06
6.22575e-06
1.32372e-06
6.55202e-06
2.51609e-07
6.86495e-06
-1.14063e-06
7.2815e-06
-2.79371e-06
7.79511e-06
-4.58551e-06
8.42473e-06
-6.40737e-06
9.1291e-06
-8.0787e-06
9.87482e-06
-9.41979e-06
1.0577e-05
-1.01045e-05
1.10964e-05
-9.60797e-06
-7.48921e-06
1.18402e-05
2.59844e-07
8.13449e-06
5.48235e-07
4.84664e-06
1.26086e-06
3.16235e-06
2.06257e-06
2.74178e-06
3.01832e-06
2.30131e-06
4.14755e-06
1.96269e-06
5.18015e-06
2.15799e-06
6.07246e-06
2.44991e-06
6.90283e-06
2.48494e-06
7.68877e-06
2.30106e-06
8.43905e-06
1.93945e-06
9.17353e-06
1.37983e-06
9.88284e-06
6.14416e-07
1.05341e-05
-3.99616e-07
1.11151e-05
-1.72166e-06
1.16542e-05
-3.3328e-06
1.21197e-05
-5.0511e-06
1.2454e-05
-6.74168e-06
1.25871e-05
-8.21185e-06
1.24873e-05
-9.32e-06
1.21371e-05
-9.75443e-06
1.15425e-05
-9.01343e-06
-6.44326e-06
1.04965e-05
1.18213e-06
6.95237e-06
2.01313e-06
4.01562e-06
2.59428e-06
2.5812e-06
3.31257e-06
2.02348e-06
4.11353e-06
1.50035e-06
4.78243e-06
1.29378e-06
5.66395e-06
1.27646e-06
6.64088e-06
1.47298e-06
7.60317e-06
1.52265e-06
8.5458e-06
1.35843e-06
9.44951e-06
1.03573e-06
1.03144e-05
5.14977e-07
1.12273e-05
-2.98547e-07
1.2079e-05
-1.2513e-06
1.27084e-05
-2.35103e-06
1.30071e-05
-3.63149e-06
1.30421e-05
-5.08614e-06
1.29069e-05
-6.60652e-06
1.2407e-05
-7.71192e-06
1.1418e-05
-8.33102e-06
9.99271e-06
-8.3292e-06
8.30672e-06
-7.32741e-06
-5.07594e-06
6.93935e-06
9.42427e-07
6.00993e-06
2.42992e-06
2.52812e-06
3.17802e-06
1.83309e-06
3.88258e-06
1.31892e-06
4.3847e-06
9.9822e-07
4.60713e-06
1.07134e-06
5.25323e-06
6.30351e-07
6.29763e-06
4.28571e-07
7.38816e-06
4.32106e-07
8.42457e-06
3.22009e-07
9.43075e-06
2.95447e-08
1.04023e-05
-4.56623e-07
1.13613e-05
-1.25751e-06
1.219e-05
-2.07998e-06
1.26834e-05
-2.84446e-06
1.27314e-05
-3.67953e-06
1.22849e-05
-4.63963e-06
1.16012e-05
-5.92282e-06
1.05951e-05
-6.70581e-06
9.19435e-06
-6.93028e-06
7.46762e-06
-6.60248e-06
5.71142e-06
-5.57126e-06
-3.76228e-06
4.39774e-06
1.9088e-06
4.10113e-06
1.71428e-06
2.72265e-06
1.76382e-06
1.78356e-06
2.02365e-06
1.05908e-06
2.34417e-06
6.77699e-07
3.02004e-06
3.95459e-07
3.86775e-06
-2.17377e-07
4.93694e-06
-6.40625e-07
6.14673e-06
-7.77695e-07
7.36431e-06
-8.95588e-07
8.57343e-06
-1.17958e-06
9.73902e-06
-1.62221e-06
1.06845e-05
-2.20298e-06
1.13926e-05
-2.78813e-06
1.1851e-05
-3.30287e-06
1.1997e-05
-3.82558e-06
1.17407e-05
-4.38334e-06
1.08374e-05
-5.01947e-06
9.50279e-06
-5.37125e-06
7.85516e-06
-5.28267e-06
6.00736e-06
-4.75471e-06
4.2224e-06
-3.78628e-06
-2.51794e-06
2.97804e-06
3.14593e-07
3.78655e-06
-1.16587e-07
3.15383e-06
-3.27399e-07
1.99437e-06
-1.7114e-07
9.02822e-07
4.01636e-07
1.04922e-07
1.3732e-06
-5.76107e-07
2.42522e-06
-1.26939e-06
3.60462e-06
-1.82002e-06
4.93545e-06
-2.10852e-06
6.35172e-06
-2.31186e-06
7.7337e-06
-2.56156e-06
8.99458e-06
-2.88309e-06
1.00404e-05
-3.24876e-06
1.08328e-05
-3.58054e-06
1.13386e-05
-3.80865e-06
1.15514e-05
-4.03844e-06
1.12404e-05
-4.0723e-06
1.03588e-05
-4.13782e-06
8.96406e-06
-3.97654e-06
7.20275e-06
-3.52136e-06
5.26682e-06
-2.81878e-06
3.44663e-06
-1.9661e-06
-1.106e-06
2.03468e-06
-5.19813e-07
4.3063e-06
-1.39333e-06
4.02722e-06
-1.87998e-06
2.48096e-06
-1.71734e-06
7.40171e-07
-9.79685e-07
-6.32704e-07
1.15283e-07
-1.67102e-06
1.36546e-06
-2.5195e-06
2.69593e-06
-3.15042e-06
4.13439e-06
-3.54689e-06
5.64871e-06
-3.82611e-06
7.14444e-06
-4.05721e-06
8.5118e-06
-4.25037e-06
9.6585e-06
-4.39538e-06
1.05369e-05
-4.45886e-06
1.11303e-05
-4.40198e-06
1.13209e-05
-4.22896e-06
1.1075e-05
-3.82637e-06
1.0224e-05
-3.2867e-06
8.79147e-06
-2.54399e-06
6.91587e-06
-1.64572e-06
4.85108e-06
-7.53951e-07
2.94984e-06
-6.48449e-08
4.13251e-07
1.43059e-06
1.34694e-06
2.95921e-06
-4.78998e-07
5.85294e-06
-1.9428e-06
3.94464e-06
-2.13157e-06
9.2894e-07
-1.55033e-06
-1.21389e-06
-3.30022e-07
-2.89124e-06
1.03629e-06
-3.88572e-06
2.38683e-06
-4.50085e-06
3.87362e-06
-5.03357e-06
5.48036e-06
-5.43275e-06
7.09253e-06
-5.66927e-06
8.57762e-06
-5.73535e-06
9.82857e-06
-5.64622e-06
1.07887e-05
-5.41882e-06
1.14054e-05
-5.01854e-06
1.16026e-05
-4.42602e-06
1.13036e-05
-3.52717e-06
1.0345e-05
-2.32796e-06
8.70228e-06
-9.01075e-07
6.56301e-06
4.93727e-07
4.23707e-06
1.57212e-06
2.16317e-06
2.00912e-06
2.01081e-06
5.65632e-07
-2.22778e-06
5.18695e-06
-4.01706e-07
4.02674e-06
-3.59869e-07
3.90279e-06
-8.49678e-07
1.41888e-06
-6.54641e-07
-1.40875e-06
9.62587e-08
-3.64194e-06
1.21691e-06
-5.00615e-06
2.56164e-06
-5.84535e-06
4.0176e-06
-6.4893e-06
5.53601e-06
-6.95091e-06
7.03608e-06
-7.1691e-06
8.40469e-06
-7.10371e-06
9.52948e-06
-6.77075e-06
1.03081e-05
-6.1972e-06
1.06523e-05
-5.36247e-06
1.04851e-05
-4.25856e-06
9.74296e-06
-2.78471e-06
8.4496e-06
-1.03432e-06
6.73166e-06
8.17124e-07
4.91144e-06
2.31414e-06
3.23128e-06
3.25242e-06
1.79016e-06
3.45028e-06
3.08329e-06
7.17671e-07
7.69387e-07
4.41806e-06
-4.5119e-07
5.24785e-06
-7.07409e-07
4.15938e-06
-1.03313e-06
1.74486e-06
-1.41284e-06
-1.02882e-06
-1.5762e-06
-3.47839e-06
-1.18586e-06
-5.39631e-06
-3.14435e-07
-6.7166e-06
5.18181e-07
-7.32174e-06
1.06396e-06
-7.49651e-06
1.40249e-06
-7.50745e-06
1.61932e-06
-7.32036e-06
1.73763e-06
-6.88888e-06
1.73482e-06
-6.19422e-06
1.58003e-06
-5.20753e-06
1.22345e-06
-3.90184e-06
7.00427e-07
-2.26159e-06
5.89396e-08
-3.92778e-07
-5.95855e-07
1.47192e-06
-1.14868e-06
2.86697e-06
-1.50174e-06
3.60545e-06
-1.67827e-06
3.6268e-06
3.20564e-06
-1.80061e-06
2.71054e-07
4.14795e-06
-1.89771e-07
5.70936e-06
-4.7167e-07
4.44172e-06
-1.07972e-06
2.35314e-06
-2.06098e-06
-4.74602e-08
-2.94747e-06
-2.59187e-06
-3.21009e-06
-5.13373e-06
-3.00591e-06
-6.92084e-06
-2.75157e-06
-7.57616e-06
-2.88094e-06
-7.36722e-06
-3.25171e-06
-7.13675e-06
-3.7183e-06
-6.85384e-06
-4.1935e-06
-6.41376e-06
-4.65021e-06
-5.7376e-06
-5.07636e-06
-4.78147e-06
-5.44469e-06
-3.53361e-06
-5.68809e-06
-2.0183e-06
-5.73228e-06
-3.48713e-07
-5.49627e-06
1.2358e-06
-5.06401e-06
2.43461e-06
-4.50034e-06
3.04173e-06
-3.92115e-06
3.04755e-06
2.61085e-06
-3.3263e-06
-1.5225e-06
5.67083e-06
-1.76158e-06
5.94878e-06
-1.84432e-06
4.52473e-06
-2.38404e-06
2.89305e-06
-3.41811e-06
9.8673e-07
-4.49078e-06
-1.51912e-06
-5.10333e-06
-4.52115e-06
-5.4667e-06
-6.55743e-06
-5.70326e-06
-7.33957e-06
-6.10038e-06
-6.97006e-06
-6.7951e-06
-6.442e-06
-7.52201e-06
-6.1269e-06
-8.20537e-06
-5.73037e-06
-8.79548e-06
-5.14745e-06
-9.2563e-06
-4.32063e-06
-9.53367e-06
-3.25622e-06
-9.55623e-06
-1.99572e-06
-9.25995e-06
-6.44995e-07
-8.63619e-06
6.12034e-07
-7.76832e-06
1.56674e-06
-6.79481e-06
2.0682e-06
-5.84516e-06
2.09795e-06
1.69999e-06
-4.93428e-06
-2.14321e-06
7.81454e-06
-2.74237e-06
6.54825e-06
-3.08812e-06
4.8707e-06
-3.60294e-06
3.40803e-06
-4.48596e-06
1.86987e-06
-5.45607e-06
-5.48917e-07
-6.45809e-06
-3.51905e-06
-7.2762e-06
-5.73925e-06
-7.97474e-06
-6.64095e-06
-8.55213e-06
-6.39259e-06
-9.30309e-06
-5.69095e-06
-1.00309e-05
-5.39899e-06
-1.06875e-05
-5.07366e-06
-1.12295e-05
-4.60538e-06
-1.16148e-05
-3.93526e-06
-1.17821e-05
-3.08889e-06
-1.16716e-05
-2.10612e-06
-1.12444e-05
-1.07211e-06
-1.05123e-05
-1.20078e-07
-9.54985e-06
6.04327e-07
-8.47933e-06
9.97731e-07
-7.41501e-06
1.03359e-06
6.77362e-07
-6.39228e-06
-2.03691e-06
9.85162e-06
-3.08969e-06
7.60122e-06
-3.78869e-06
5.56986e-06
-4.44251e-06
4.06198e-06
-5.10279e-06
2.53026e-06
-5.91448e-06
2.62861e-07
-7.07669e-06
-2.35674e-06
-8.23697e-06
-4.57889e-06
-9.25223e-06
-5.62559e-06
-1.01032e-05
-5.54151e-06
-1.07659e-05
-5.02813e-06
-1.13839e-05
-4.78092e-06
-1.19209e-05
-4.53648e-06
-1.2351e-05
-4.17523e-06
-1.26288e-05
-3.6573e-06
-1.26991e-05
-3.01856e-06
-1.25175e-05
-2.28763e-06
-1.20618e-05
-1.52768e-06
-1.13482e-05
-8.33627e-07
-1.04389e-05
-3.0488e-07
-9.42738e-06
-1.37816e-08
-8.40908e-06
1.53875e-08
-3.00457e-07
-7.43123e-06
-1.72218e-06
1.15741e-05
-2.93498e-06
8.81422e-06
-3.91296e-06
6.54798e-06
-4.67842e-06
4.82756e-06
-5.25522e-06
3.10715e-06
-5.97578e-06
9.83517e-07
-7.02879e-06
-1.30362e-06
-8.35192e-06
-3.25566e-06
-9.59158e-06
-4.38581e-06
-1.05582e-05
-4.57481e-06
-1.11864e-05
-4.39979e-06
-1.17079e-05
-4.25924e-06
-1.21457e-05
-4.09863e-06
-1.24809e-05
-3.83992e-06
-1.26704e-05
-3.46759e-06
-1.26787e-05
-3.01022e-06
-1.24763e-05
-2.4899e-06
-1.20508e-05
-1.95304e-06
-1.14191e-05
-1.46532e-06
-1.06287e-05
-1.09515e-06
-9.7531e-06
-8.89335e-07
-8.86909e-06
-8.68682e-07
-1.15111e-06
-8.01833e-06
-1.41967e-06
1.29939e-05
-2.5526e-06
9.94727e-06
-3.56142e-06
7.5569e-06
-4.3305e-06
5.59673e-06
-4.94354e-06
3.72028e-06
-5.66617e-06
1.70623e-06
-6.65043e-06
-3.19278e-07
-7.86062e-06
-2.04537e-06
-9.08634e-06
-3.16e-06
-1.00296e-05
-3.6314e-06
-1.06887e-05
-3.74057e-06
-1.1191e-05
-3.7569e-06
-1.15857e-05
-3.70374e-06
-1.18686e-05
-3.55693e-06
-1.2014e-05
-3.32202e-06
-1.20038e-05
-3.02029e-06
-1.18213e-05
-2.67236e-06
-1.1462e-05
-2.31227e-06
-1.09414e-05
-1.98584e-06
-1.02991e-05
-1.73734e-06
-9.5896e-06
-1.59882e-06
-8.87424e-06
-1.58394e-06
-1.82736e-06
-8.19798e-06
-1.07366e-06
1.40678e-05
-2.01954e-06
1.08933e-05
-2.87338e-06
8.41084e-06
-3.59267e-06
6.3161e-06
-4.23776e-06
4.36543e-06
-4.96543e-06
2.43398e-06
-5.87889e-06
5.94261e-07
-6.95141e-06
-9.72761e-07
-8.01911e-06
-2.0922e-06
-8.91057e-06
-2.73984e-06
-9.57878e-06
-3.07225e-06
-1.00871e-05
-3.24848e-06
-1.04739e-05
-3.31679e-06
-1.07422e-05
-3.28853e-06
-1.08836e-05
-3.18054e-06
-1.08903e-05
-3.01345e-06
-1.07558e-05
-2.80669e-06
-1.04818e-05
-2.58626e-06
-1.0084e-05
-2.38357e-06
-9.5923e-06
-2.22897e-06
-9.05218e-06
-2.13887e-06
-8.51405e-06
-2.12215e-06
-2.33286e-06
-8.00844e-06
-6.58127e-07
1.47259e-05
-1.34656e-06
1.15818e-05
-2.0229e-06
9.08724e-06
-2.65776e-06
6.95101e-06
-3.28275e-06
4.99049e-06
-3.98263e-06
3.13392e-06
-4.81083e-06
1.42253e-06
-5.74124e-06
-4.2268e-08
-6.66917e-06
-1.16418e-06
-7.47948e-06
-1.92944e-06
-8.12941e-06
-2.42222e-06
-8.63961e-06
-2.73817e-06
-9.02936e-06
-2.92694e-06
-9.30447e-06
-3.01331e-06
-9.4643e-06
-3.0206e-06
-9.50774e-06
-2.96991e-06
-9.43492e-06
-2.87942e-06
-9.25131e-06
-2.76979e-06
-8.9717e-06
-2.66312e-06
-8.62296e-06
-2.57766e-06
-8.23866e-06
-2.52314e-06
-7.85847e-06
-2.50222e-06
-2.67656e-06
-7.51479e-06
-2.37959e-07
1.49641e-05
-6.54006e-07
1.19979e-05
-1.14592e-06
9.57922e-06
-1.66872e-06
7.47387e-06
-2.22957e-06
5.55139e-06
-2.86534e-06
3.76974e-06
-3.59577e-06
2.15302e-06
-4.39676e-06
7.58794e-07
-5.19823e-06
-3.62633e-07
-5.92384e-06
-1.20375e-06
-6.53673e-06
-1.80924e-06
-7.03568e-06
-2.23912e-06
-7.42736e-06
-2.53516e-06
-7.71505e-06
-2.72553e-06
-7.90061e-06
-2.83494e-06
-7.98664e-06
-2.88378e-06
-7.97669e-06
-2.88928e-06
-7.87845e-06
-2.86796e-06
-7.70627e-06
-2.83524e-06
-7.48013e-06
-2.80374e-06
-7.22975e-06
-2.77345e-06
-6.98733e-06
-2.74475e-06
-2.89601e-06
-6.76779e-06
1.33179e-07
1.48309e-05
-4.28975e-08
1.2174e-05
-3.52043e-07
9.8884e-06
-7.43619e-07
7.86548e-06
-1.20757e-06
6.01538e-06
-1.75103e-06
4.31324e-06
-2.37372e-06
2.77575e-06
-3.05102e-06
1.43615e-06
-3.73579e-06
3.22213e-07
-4.37544e-06
-5.64018e-07
-4.93735e-06
-1.24724e-06
-5.41152e-06
-1.76486e-06
-5.79644e-06
-2.15015e-06
-6.09219e-06
-2.42968e-06
-6.30073e-06
-2.6263e-06
-6.42542e-06
-2.759e-06
-6.47123e-06
-2.8434e-06
-6.44618e-06
-2.89294e-06
-6.36244e-06
-2.91892e-06
-6.23942e-06
-2.92672e-06
-6.09747e-06
-2.91538e-06
-5.96101e-06
-2.88105e-06
-3.00726e-06
-5.84982e-06
3.73043e-07
1.4458e-05
4.16475e-07
1.21306e-05
2.84962e-07
1.00199e-05
3.5672e-08
8.11479e-06
-3.09026e-07
6.3601e-06
-7.40306e-07
4.74455e-06
-1.2463e-06
3.28178e-06
-1.80269e-06
1.9926e-06
-2.37435e-06
8.93939e-07
-2.92414e-06
-1.41627e-08
-3.42436e-06
-7.4694e-07
-3.86067e-06
-1.32847e-06
-4.22701e-06
-1.78372e-06
-4.52108e-06
-2.13553e-06
-4.74342e-06
-2.40387e-06
-4.89681e-06
-2.60553e-06
-4.98603e-06
-2.7541e-06
-5.01859e-06
-2.86032e-06
-5.00577e-06
-2.93169e-06
-4.96032e-06
-2.97211e-06
-4.90194e-06
-2.97367e-06
-4.85089e-06
-2.9322e-06
-3.04638e-06
-4.81167e-06
5.00866e-07
1.3957e-05
7.07187e-07
1.19243e-05
7.34128e-07
9.99298e-06
6.28635e-07
8.22029e-06
4.14926e-07
6.57383e-06
1.08239e-07
5.05125e-06
-2.74443e-07
3.6645e-06
-7.10023e-07
2.42822e-06
-1.17008e-06
1.35405e-06
-1.62623e-06
4.42046e-07
-2.05553e-06
-3.17575e-07
-2.44246e-06
-9.41472e-07
-2.77835e-06
-1.44775e-06
-3.05892e-06
-1.85488e-06
-3.28314e-06
-2.17958e-06
-3.45259e-06
-2.43601e-06
-3.5711e-06
-2.63551e-06
-3.64479e-06
-2.78658e-06
-3.6821e-06
-2.89433e-06
-3.69598e-06
-2.95816e-06
-3.69848e-06
-2.97114e-06
-3.70411e-06
-2.92639e-06
-3.02464e-06
-3.7259e-06
5.3209e-07
1.3425e-05
8.49889e-07
1.16065e-05
1.00848e-06
9.83439e-06
1.03646e-06
8.1923e-06
9.53003e-07
6.65728e-06
7.73962e-07
5.23031e-06
5.16642e-07
3.92184e-06
2.01372e-07
2.74352e-06
-1.48119e-07
1.70358e-06
-5.08488e-07
8.02463e-07
-8.60247e-07
3.42389e-08
-1.18905e-06
-6.12611e-07
-1.48427e-06
-1.15247e-06
-1.74023e-06
-1.59887e-06
-1.95451e-06
-1.96523e-06
-2.12734e-06
-2.26312e-06
-2.26114e-06
-2.50165e-06
-2.36064e-06
-2.68702e-06
-2.43296e-06
-2.82196e-06
-2.48514e-06
-2.90591e-06
-2.52965e-06
-2.92655e-06
-2.57824e-06
-2.87793e-06
-2.97576e-06
-2.62705e-06
5.01662e-07
1.29232e-05
8.85707e-07
1.12224e-05
1.14611e-06
9.57395e-06
1.28965e-06
8.04875e-06
1.32648e-06
6.62044e-06
1.26881e-06
5.28797e-06
1.13146e-06
4.0592e-06
9.31965e-07
2.94303e-06
6.89994e-07
1.94558e-06
4.24658e-07
1.06784e-06
1.52967e-07
3.05972e-07
-1.11806e-07
-3.47792e-07
-3.58979e-07
-9.05246e-07
-5.81636e-07
-1.37616e-06
-7.76164e-07
-1.77065e-06
-9.41484e-07
-2.09775e-06
-1.07868e-06
-2.36442e-06
-1.19062e-06
-2.57504e-06
-1.28161e-06
-2.73093e-06
-1.35992e-06
-2.82756e-06
-1.4312e-06
-2.85528e-06
-1.50261e-06
-2.80635e-06
-2.89938e-06
-1.57911e-06
4.45393e-07
1.24778e-05
8.62163e-07
1.08056e-05
1.1956e-06
9.24048e-06
1.43269e-06
7.81162e-06
1.5733e-06
6.47982e-06
1.6239e-06
5.23737e-06
1.59543e-06
4.08767e-06
1.50205e-06
3.03642e-06
1.3598e-06
2.08784e-06
1.18476e-06
1.2429e-06
9.91687e-07
4.99079e-07
7.92854e-07
-1.48927e-07
5.97517e-07
-7.09874e-07
4.13549e-07
-1.19215e-06
2.45575e-07
-1.60264e-06
9.58676e-08
-1.948e-06
-3.52818e-08
-2.23323e-06
-1.4943e-07
-2.46087e-06
-2.50015e-07
-2.63032e-06
-3.39364e-07
-2.73816e-06
-4.25532e-07
-2.76903e-06
-5.18393e-07
-2.71363e-06
-2.81917e-06
-5.9856e-07
3.90568e-07
1.2087e-05
8.20444e-07
1.03756e-05
1.2037e-06
8.85716e-06
1.51219e-06
7.50309e-06
1.73675e-06
6.25523e-06
1.87802e-06
5.09607e-06
1.94275e-06
4.02293e-06
1.94161e-06
3.03756e-06
1.88749e-06
2.14196e-06
1.79386e-06
1.33655e-06
1.67342e-06
6.19529e-07
1.53735e-06
-1.28364e-08
1.39383e-06
-5.66337e-07
1.2508e-06
-1.0491e-06
1.11333e-06
-1.46514e-06
9.84459e-07
-1.81909e-06
8.65363e-07
-2.11411e-06
7.55931e-07
-2.35142e-06
6.55221e-07
-2.5296e-06
5.59429e-07
-2.64235e-06
4.70694e-07
-2.68031e-06
3.93638e-07
-2.6364e-06
-2.70384e-06
2.78178e-07
3.5525e-07
1.17318e-05
7.91254e-07
9.93954e-06
1.20794e-06
8.44041e-06
1.56833e-06
7.14265e-06
1.85675e-06
5.96677e-06
2.06914e-06
4.88365e-06
2.20863e-06
3.88342e-06
2.2829e-06
2.96328e-06
2.3022e-06
2.12265e-06
2.27775e-06
1.36099e-06
2.22051e-06
6.76773e-07
2.14031e-06
6.73636e-08
2.04477e-06
-4.70784e-07
1.9411e-06
-9.45422e-07
1.83445e-06
-1.35848e-06
1.72819e-06
-1.71283e-06
1.62431e-06
-2.01022e-06
1.5234e-06
-2.2505e-06
1.42486e-06
-2.43106e-06
1.32975e-06
-2.54719e-06
1.23374e-06
-2.58423e-06
1.13086e-06
-2.5337e-06
-2.61643e-06
1.04344e-06
3.48174e-07
1.13834e-05
7.93276e-07
9.49431e-06
1.23446e-06
7.99915e-06
1.63142e-06
6.74562e-06
1.96527e-06
5.63287e-06
2.22919e-06
4.6197e-06
2.42395e-06
3.68862e-06
2.55516e-06
2.83204e-06
2.63116e-06
2.04663e-06
2.66144e-06
1.33069e-06
2.65545e-06
6.82752e-07
2.62175e-06
1.01059e-07
2.56741e-06
-4.16456e-07
2.49855e-06
-8.76568e-07
2.42012e-06
-1.28005e-06
2.33554e-06
-1.62825e-06
2.2471e-06
-1.92178e-06
2.15629e-06
-2.1597e-06
2.06445e-06
-2.33922e-06
1.96975e-06
-2.45248e-06
1.87404e-06
-2.48855e-06
1.77811e-06
-2.43761e-06
-2.51814e-06
1.67966e-06
3.72641e-07
1.10107e-05
8.36319e-07
9.03051e-06
1.29872e-06
7.53665e-06
1.72116e-06
6.3231e-06
2.08457e-06
5.26939e-06
2.38159e-06
4.32262e-06
2.61234e-06
3.45782e-06
2.7816e-06
2.66275e-06
2.89671e-06
1.93149e-06
2.96606e-06
1.2613e-06
2.99795e-06
6.50837e-07
2.99982e-06
9.91647e-08
2.97799e-06
-3.94642e-07
2.9375e-06
-8.36092e-07
2.88267e-06
-1.22524e-06
2.81673e-06
-1.56231e-06
2.74215e-06
-1.84721e-06
2.66081e-06
-2.07838e-06
2.57365e-06
-2.25206e-06
2.48381e-06
-2.3626e-06
2.38995e-06
-2.39463e-06
2.29219e-06
-2.33999e-06
-2.42415e-06
2.19821e-06
4.27853e-07
1.05825e-05
9.23319e-07
8.53483e-06
1.4081e-06
7.05172e-06
1.84837e-06
5.88272e-06
2.22784e-06
4.88984e-06
2.54103e-06
4.00937e-06
2.78928e-06
3.20951e-06
2.97801e-06
2.47397e-06
3.11464e-06
1.79481e-06
3.20718e-06
1.16873e-06
3.26315e-06
5.94827e-07
3.28903e-06
7.32539e-08
3.29017e-06
-3.95805e-07
3.27052e-06
-8.16474e-07
3.23349e-06
-1.18823e-06
3.18176e-06
-1.5106e-06
3.11769e-06
-1.78315e-06
3.04356e-06
-2.00427e-06
2.96191e-06
-2.17041e-06
2.87303e-06
-2.2737e-06
2.78069e-06
-2.30229e-06
2.68737e-06
-2.24651e-06
-2.32067e-06
2.58377e-06
5.11842e-07
1.00704e-05
1.05395e-06
7.99249e-06
1.56444e-06
6.54106e-06
2.01699e-06
5.43005e-06
2.4006e-06
4.50614e-06
2.71413e-06
3.69576e-06
2.96226e-06
2.96132e-06
3.15259e-06
2.28358e-06
3.29374e-06
1.65361e-06
3.39403e-06
1.06839e-06
3.46065e-06
5.28166e-07
3.49917e-06
3.46905e-08
3.51385e-06
-4.10515e-07
3.50735e-06
-8.10005e-07
3.48182e-06
-1.16272e-06
3.43919e-06
-1.468e-06
3.38164e-06
-1.72561e-06
3.31143e-06
-1.93408e-06
3.23074e-06
-2.08973e-06
3.14399e-06
-2.1869e-06
3.05206e-06
-2.21031e-06
2.95687e-06
-2.15145e-06
-2.22554e-06
2.86171e-06
6.21688e-07
9.4483e-06
1.22592e-06
7.38797e-06
1.76653e-06
6.00025e-06
2.22624e-06
4.97019e-06
2.60228e-06
4.13e-06
2.90065e-06
3.3973e-06
3.13155e-06
2.73035e-06
3.30638e-06
2.1087e-06
3.43596e-06
1.52397e-06
3.52959e-06
9.74712e-07
3.59441e-06
4.63302e-07
3.63518e-06
-6.11421e-09
3.65477e-06
-4.30148e-07
3.65425e-06
-8.09515e-07
3.63421e-06
-1.14271e-06
3.5956e-06
-1.42941e-06
3.54012e-06
-1.67016e-06
3.47042e-06
-1.8644e-06
3.39018e-06
-2.00949e-06
3.30089e-06
-2.0976e-06
3.20823e-06
-2.11769e-06
3.11664e-06
-2.05975e-06
-2.12326e-06
3.01422e-06
7.55136e-07
8.69274e-06
1.4369e-06
6.70591e-06
2.01109e-06
5.42584e-06
2.47149e-06
4.50964e-06
2.82702e-06
3.77436e-06
3.09415e-06
3.13009e-06
3.29095e-06
2.53348e-06
3.43403e-06
1.96556e-06
3.53722e-06
1.42072e-06
3.61121e-06
9.00682e-07
3.66327e-06
4.11201e-07
3.69732e-06
-4.02007e-08
3.71456e-06
-4.47431e-07
3.71399e-06
-8.08971e-07
3.69426e-06
-1.12301e-06
3.65504e-06
-1.39022e-06
3.59772e-06
-1.61285e-06
3.52518e-06
-1.79189e-06
3.44073e-06
-1.92505e-06
3.35021e-06
-2.00706e-06
3.25591e-06
-2.02336e-06
3.16087e-06
-1.96483e-06
-2.02647e-06
3.06401e-06
9.10604e-07
7.78181e-06
1.6842e-06
5.93202e-06
2.29303e-06
4.81681e-06
2.74427e-06
4.05825e-06
3.06374e-06
3.45479e-06
3.28241e-06
2.91134e-06
3.42855e-06
2.38727e-06
3.52492e-06
1.86915e-06
3.58864e-06
1.35695e-06
3.63182e-06
8.57462e-07
3.66194e-06
3.81046e-07
3.68204e-06
-6.0332e-08
3.69132e-06
-4.56746e-07
3.68617e-06
-8.03842e-07
3.66278e-06
-1.09964e-06
3.61924e-06
-1.34669e-06
3.5564e-06
-1.55004e-06
3.47795e-06
-1.71345e-06
3.3891e-06
-1.83621e-06
3.29326e-06
-1.91122e-06
3.19673e-06
-1.92687e-06
3.10438e-06
-1.87244e-06
-1.92252e-06
3.00032e-06
1.08891e-06
6.69236e-06
1.96446e-06
5.05613e-06
2.60308e-06
4.17796e-06
3.0299e-06
3.63129e-06
3.29457e-06
3.19002e-06
3.44708e-06
2.75875e-06
3.52753e-06
2.30676e-06
3.56475e-06
1.83188e-06
3.57853e-06
1.34313e-06
3.58201e-06
8.53942e-07
3.58287e-06
3.80165e-07
3.58342e-06
-6.09075e-08
3.58076e-06
-4.54118e-07
3.56809e-06
-7.9119e-07
3.53844e-06
-1.07001e-06
3.48791e-06
-1.29617e-06
3.41685e-06
-1.479e-06
3.33001e-06
-1.62663e-06
3.23333e-06
-1.73954e-06
3.1341e-06
-1.81199e-06
3.03575e-06
-1.82852e-06
2.9416e-06
-1.77838e-06
-1.82934e-06
2.84829e-06
1.29362e-06
5.39847e-06
2.26985e-06
4.07962e-06
2.9234e-06
3.5242e-06
3.30337e-06
3.25115e-06
3.49248e-06
3.00079e-06
3.56348e-06
2.68766e-06
3.56783e-06
2.30235e-06
3.53836e-06
1.8613e-06
3.49574e-06
1.38571e-06
3.45333e-06
8.96322e-07
3.41913e-06
4.14341e-07
3.39551e-06
-3.73217e-08
3.378e-06
-4.36624e-07
3.35612e-06
-7.6933e-07
3.31898e-06
-1.0329e-06
3.2601e-06
-1.23732e-06
3.1788e-06
-1.39771e-06
3.08218e-06
-1.53004e-06
2.9794e-06
-1.63678e-06
2.87555e-06
-1.70815e-06
2.77725e-06
-1.73028e-06
2.6887e-06
-1.68987e-06
-1.73484e-06
2.59409e-06
1.52649e-06
3.87143e-06