/*--------------------------------*- C++ -*----------------------------------*\
  =========                 |
  \\      /  F ield         | OpenFOAM: The Open Source CFD Toolbox
   \\    /   O peration     | Website:  https://openfoam.org
    \\  /    A nd           | Version:  13
     \\/     M anipulation  |
\*---------------------------------------------------------------------------*/
FoamFile
{
    format      ascii;
    class       volScalarField;
    location    "2.75";
    object      rho;
}
// * * * * * * * * * * * * * * * * * * * * * * * * * * * * * * * * * * * * * //

dimensions      [1 -3 0 0 0 0 0];

internalField   nonuniform List<scalar> 
2268
(
13529
13529
13529
13529
13529
13529
13529
13529
13529
13529
13529
13529
13529
13529
13529
13529
13529
13529
13529
13527.8
13522.1
13521.7
13521.8
13529
13529
13529
13529
13529
13529
13529
13529
13529
13529
13529
13529
13529
13529
13529
13529
13529
13529
13529
13528.8
13527.8
13527.3
13528.5
13529
13529
13529
13529
13529
13529
13529
13529
13529
13529
13529
13529
13529
13529
13529
13529
13529
13529
13529
13529
13529
13529
13529
13529
13529
13529
13529
13529
13529
13529
13529
13529
13529
13529
13529
13529
13529
13529
13529
13529
13529
13529
13529
13529
13529
13529
13529
13529
13529
13529
13529
13529
13529
13529
13529
13529
13529
13529
13529
13529
13529
13529
13529
13529
13529
13529
13529
13529
13529
7451.4
7389.34
7462.3
7836.05
8452.3
9283.51
10280.1
11279.1
12086.6
12774.1
13317.5
13529
13529
13529
13529
13529
13529
13529
13529
13529
13529
13529
13526.5
1040.03
1037.68
1044.52
1081.86
1166.05
1301.93
1520.63
1942.35
2716.74
3704.43
4893.4
6393.4
8041.61
9518.98
10733.5
11615.7
12226.8
12562.8
12691.5
12787.9
12763.9
12463.1
12048.6
1000
1000
1000
1000.01
999.998
999.997
999.999
1000
1000
1000
1000
1001.67
1093.87
1360.35
1772.5
2348.66
2976.96
3636.83
4272.36
4543.13
4427.85
3846.84
3333.04
11943
11951
11945.5
11932.9
11426
9015.43
9013.24
9094.9
9367.32
9412.12
8944.55
8767.1
9403.4
10337.1
10344.5
10360.6
10319
10299.7
10304.5
11943.1
11943.1
11544.6
11343.8
11319.6
11340.7
11255
11272.3
11240.2
11208.4
10583.3
9436.46
10294.8
10272.7
10284.2
10285.8
10300
10300.2
10302.7
8016.59
7942.94
7035.82
6106.1
6666.95
7513.08
7453.42
7393.79
6977.56
8014.74
7976.61
8289.82
7896.62
8061.54
8391.88
8584.41
8129.03
7574.46
7123.04
6805.31
4543.47
3077.35
2502.49
1890.63
1553.87
1611.77
1555.26
2004.38
1576.24
2962.91
3559.4
3479.31
2933.66
2377.8
1623.43
1843.33
2342.46
3267.58
2113.94
1889.56
2180.15
2380.86
1545.4
1072.19
1057.61
1057.71
1281.67
1066.38
652.263
933.368
1615.73
1015.62
602.504
810.803
845.206
936.65
596.722
1613.82
1938.91
1962.7
2011.74
2037.5
1436.96
1364.18
1428.39
1467.32
1148.66
1013.38
679.445
281.421
601.299
938.518
999.924
999.907
999.898
678.921
1711.58
1487.4
1472.02
1592.11
1885.76
1688.65
1568.85
1793.28
1284.47
1096.23
1006.7
998.664
298.771
665.789
999.882
1000.02
999.883
999.168
745.728
1248.38
1270.75
1213.24
1125.33
1089.1
1654.23
1705.96
1385
1000.39
1006.32
1006.11
963.45
304.302
753.436
996.993
1000.04
999.095
999.372
815.789
1000
1000
999.981
999.922
999.942
999.998
1000
1000
1000
1000
1000
1000
1000
1000
1000
1000
1000
1000
1000
999.997
999.974
997.555
994.542
999.696
996.791
998.336
999.336
999.982
1000
1000
1000
1000
1000
1000
1000
1000
1000
1000
1000
1000
999.999
999.999
999.998
999.48
987.25
960.123
892.978
959.241
995.255
998.849
999.999
1000
999.479
1000
1000
1000
1000
1000
1000
999.276
996.538
993.45
987.806
983.049
965.196
932.899
882.919
817.253
695.457
721.664
679.425
695.633
718.763
769.507
839.598
845.695
839.185
850.475
859.607
861.208
854.12
828.022
799.292
781.554
767.085
724.665
650.315
579.901
527.923
495.897
476.886
459.928
451.569
496.724
499.788
500.078
500.489
461.354
462.29
466.546
461.938
458.822
450.68
443.003
460.805
466.858
453.001
426.968
434.715
480.511
499.253
499.998
499.996
499.967
486.496
498.481
500.131
499.924
500
486.433
475.987
491.682
499.703
494.658
487.597
489.516
494.181
497.595
499.385
499.221
500
500
500
500
500
499.726
499.683
500.114
499.891
500.354
500.023
500
500
499.999
500
500
500
500
500
500
500
500
500
500
500
500
500
500
500.003
500.004
500.001
447.897
440.156
438.607
441.699
446.977
448.974
454.367
462.532
466.785
468.36
467.556
464.497
458.837
450.987
441.135
428.402
412.677
394.21
376.589
363.614
357.946
361.95
372.495
102.331
84.7254
75.2692
78.9001
87.2186
97.4558
103.08
104.969
107.396
108.704
106.638
100.377
90.7893
79.5612
67.6666
55.7081
44.5301
34.4433
26.5663
21.4674
19.3256
20.3192
24.2217
1.00263
1.00206
1.0011
1.0013
1.00004
1.0001
1.00011
1.00006
1.00003
1.00002
1.00001
1.00002
1.00002
1.00002
1.00001
1.00001
1
1
1
1.00001
1.00001
1.00002
1.00003
1.00106
1.00085
1.00104
1.00067
1.00019
1.0002
1.00029
1.00007
1.00014
1.00014
1.00003
1.00004
1.00003
1.00004
1.00004
1.00004
1.00004
1.00003
1.00003
1.00003
1.00004
1.00007
1.0001
1.00114
1.0022
1.00336
1.00117
1.00023
1.00095
1.00608
1.02569
1.01239
1.00135
1.00027
1.00021
1.0002
1.00021
1.00022
1.00016
1.00012
1.0001
1.00009
1.00007
1.00007
1.00008
1.0001
1.00164
1.00636
1.01625
1.00698
1.00023
1.00179
1.05384
1.08396
1.07387
1.00398
1.00093
1.0007
1.00056
1.00051
1.00034
1.00022
1.00014
1.00011
1.00009
1.00006
1.00006
1.00005
1.00006
1.00217
1.0159
1.02975
1.0247
1.00089
1.00622
1.07349
1.08326
1.08382
1.05435
1.00325
1.003
1.00139
1.00111
1.00056
1.0002
1.00016
1.00013
1.00009
1.00006
1.00005
1.00004
1.00004
1.00154
1.01479
1.02926
1.0278
1.0006
1.00039
1.0228
1.08156
1.08276
1.05341
1.00325
1.00326
1.00326
1.00292
1.00061
1.00011
1.00013
1.00012
1.0001
1.00007
1.00005
1.00004
1.00003
1.00093
1.00547
1.01819
1.01072
1.00025
1.00013
1.00041
1.01058
1.0262
1.00816
1.00172
1.00308
1.00324
1.00258
1.00028
1.00007
1.0001
1.0001
1.00009
1.00007
1.00006
1.00003
1.00002
1.0006
1.00109
1.00117
1.00055
1.00016
1.00006
1.00008
1.00006
1.00007
1.00008
1.00027
1.00082
1.0016
1.00059
1.00008
1.00009
1.0001
1.00007
1.00006
1.00005
1.00004
1.00003
1.00002
1.00048
1.00051
1.00027
1.00013
1.00006
1.00005
1.00006
1.00006
1.00007
1.00011
1.00022
1.00043
1.00046
1.00019
1.00004
1.00006
1.00006
1.00004
1.00003
1.00003
1.00003
1.00002
1.00001
1.00033
1.00032
1.00014
1.00006
1.00005
1.00005
1.00005
1.00004
1.00003
1.00004
1.00014
1.00031
1.00037
1.00017
1.00004
1.00003
1.00003
1.00003
1.00002
1.00002
1.00002
1.00001
1.00001
1.00024
1.00026
1.00014
1.00006
1.00004
1.00004
1.00004
1.00003
1.00002
1.00002
1.00006
1.00016
1.0002
1.00008
1.00003
1.00002
1.00002
1.00002
1.00001
1.00001
1.00001
1.00001
1.00001
1.00014
1.00018
1.00011
1.00005
1.00004
1.00003
1.00003
1.00002
1.00002
1.00002
1.00003
1.00005
1.00004
1.00003
1.00002
1.00001
1.00001
1.00001
1.00001
1.00001
1.00001
1
1
1.00011
1.00012
1.00008
1.00005
1.00003
1.00003
1.00002
1.00002
1.00001
1.00001
1.00002
1.00002
1.00001
1.00001
1.00001
1.00001
1.00001
1.00001
1
1
1
1
1
1.00006
1.00007
1.00006
1.00004
1.00003
1.00002
1.00002
1.00001
1.00001
1.00001
1.00001
1.00001
1.00001
1.00001
1
1
1
1
1
1
1
1
1
1.00005
1.00005
1.00004
1.00003
1.00002
1.00002
1.00001
1.00001
1.00001
1.00001
1
1
1
1
1
1
1
1
1
1
1
1
1
1.00004
1.00004
1.00003
1.00003
1.00002
1.00001
1.00001
1.00001
1
1
1
1
1
1
1
1
1
1
1
1
1
1
1
1.00004
1.00003
1.00003
1.00002
1.00002
1.00001
1.00001
1.00001
1
1
1
1
1
1
1
1
1
1
1
1
1
1
1
1.00003
1.00003
1.00002
1.00002
1.00001
1.00001
1.00001
1
1
1
1
1
1
1
1
1
1
1
1
1
1
1
1
1.00002
1.00002
1.00002
1.00001
1.00001
1.00001
1
1
1
1
1
1
1
1
1
1
1
1
1
1
1
1
1
1.00002
1.00002
1.00001
1.00001
1.00001
1
1
1
1
1
1
1
1
1
1
1
1
1
1
1
1
1
1
1.00002
1.00001
1.00001
1.00001
1
1
1
1
1
1
1
1
1
1
1
1
1
1
1
1
1
1
1
1.00001
1.00001
1.00001
1
1
1
1
1
1
1
1
1
1
1
1
1
1
1
1
1
1
1
1
1.00001
1.00001
1
1
1
1
1
1
1
1
1
1
1
1
1
1
1
1
1
1
1
1
1
1.00001
1
1
1
1
1
1
1
1
1
1
1
1
1
1
1
1
1
1
1
1
1
1
1
1
1
1
1
1
1
1
1
1
1
1
1
1
1
1
1
1
1
1
1
1
1
1
1
1
1
1
1
1
1
1
1
1
1
1
1
1
1
1
1
1
1
1
1
1
1
1
1
1
1
1
1
1
1
1
1
1
1
1
1
1
1
1
1
1
1
1
1
1
1
1
1
1
1
1
1
1
1
1
1
1
1
1
1
1
1
1
1
1
1
1
1
1
1
1
1
1
1
1
1
1
1
1
1
1
1
1
1
1
1
1
1
1
1
1
1
1
1
1
1
1
1
1
1
1
1
1
1
1
1
1
1
1
1
1
1
1
1
1
1
1
1
1
1
1
1
1
1
1
1
1
1
1
1
1
1
1
1
1
1
1
1
1
1
1
1
1
1
1
1
1
1
1
1
1
1
1
1
1
1
1
1
1
1
1
1
1
1
1
1
1
1
1
1
1
1
1
1
1
1
1
1
1
1
1
1
1358.04
1527.77
1574.69
1516.95
937.442
949.296
982.62
994.099
630.874
586.43
624.457
750.435
435.226
431.911
431.632
454.486
486.19
494.067
502.192
502.665
500.151
500.087
500.004
500.006
500.001
500
500.003
500.006
388.447
398.708
408.032
417.473
31.9396
37.3062
42.1183
46.4512
1.00025
1.00004
1.00004
1.00006
1.00012
1.00012
1.00013
1.00018
1.00011
1.00013
1.00013
1.00013
1.00008
1.0001
1.00008
1.0001
1.00004
1.00005
1.00006
1.00006
1.00003
1.00004
1.00003
1.00004
1.00002
1.00002
1.00002
1.00002
1.00002
1.00001
1.00001
1.00001
1.00001
1.00001
1.00001
1.00001
1.00001
1.00001
1.00001
1.00001
1.00001
1
1
1
1
1
1
1
1
1
1
1
1
1
1
1
1
1
1
1
1
1
1
1
1
1
1
1
1
1
1
1
1
1
1
1
1
1
1
1
1
1
1
1
1
1
1
1
1
1
1
1
1
1
1
1
1
1
1
1
1
1
1
1
1
1
1
1
1
1
1
1
1
1
1
1
1
1
1
1
1
1
1
1
1
1
1
1
1
1
1
1
1035.26
1060.93
1181.93
1057.92
958.764
1028.73
1125.87
969.689
999.545
999.692
1000.72
995.207
880.642
984.37
999.898
999.904
1001.58
934.823
887.782
999.748
1021.87
1139.3
956.586
857.359
986.993
868.638
846.819
959.14
983.895
994.866
996.156
995.168
991.648
960.133
892.479
822.691
820.263
836.523
768.785
713.599
733.127
771.355
794.771
607.734
620.251
665.815
629.126
626.134
637.604
675.177
734.833
692.487
619.083
568.569
574.643
622.291
677.5
464.535
446.728
452.035
508.667
510.018
442.181
433.939
430.758
469.364
500.718
500.008
499.996
499.974
499.98
500.338
500.78
503.366
537.004
551.693
502.854
498.247
497.978
500.081
499.976
493.629
461.568
464.701
493.734
500.085
500.041
500.018
500.002
500.001
500.036
500.19
500.222
500.594
500.2
500.007
500.007
500.006
499.957
499.985
500.017
500.007
500
500
500
500.003
500.003
500.001
500.001
499.999
499.974
499.983
500.025
500.149
500.004
500.002
500.002
500.003
500.007
500.008
500.004
500.001
500
500
500
500
500.018
500.051
500.006
499.996
500.026
500.218
500.15
430.428
452.033
467.641
478.765
488.192
496.403
500
500
500
500
500
500
500.007
500.014
501.225
512.487
527.383
527.619
511.794
52.2659
67.4711
83.8553
100.481
118.668
138.558
159.813
180.025
198.039
218.499
243.058
271.521
302.499
332.541
348.954
358.226
353.336
352.127
350.519
1.00013
1.00017
1.00026
1.00043
1.00076
1.00343
1.00832
1.02379
1.04589
1.13865
2.2443
5.14145
9.86612
17.4514
31.4963
41.7119
44.5932
36.6866
33.2478
1.00023
1.00036
1.00121
1.09668
1.23479
1.33048
1.32675
1.14318
1.10583
1.14368
1.29649
1.59224
1.83251
2.66237
2.86504
1.77162
1.43403
1
1.73892
1.00015
1.00039
1.00101
1.15065
1.42224
1.42752
1.40204
1.07816
1.02565
1.05326
1.33284
1.46932
1.48892
1.38501
1.00756
1.00008
1.00008
1.00006
1.00825
1.0001
1.00016
1.00022
1.00006
1.00006
1.02898
1.00062
1.00275
1.00248
1.00788
1.12999
1.27187
1.20155
1.07987
1.00102
1.00012
1.0002
1.00016
1.00084
1.00006
1.00006
1.00005
1.00006
1.00007
1.0001
1.00059
1.00119
1.00112
1.00305
1.00135
1.00662
1.00078
1.00038
1.00047
1.00034
1.00034
1.00026
1.00013
1.00004
1.00005
1.00006
1.00008
1.00009
1.0001
1.00014
1.00023
1.00031
1.00019
1.00021
1.0001
1.0001
1.00011
1.00024
1.00029
1.00031
1.00024
1.0002
1.00003
1.00003
1.00005
1.00008
1.00011
1.00012
1.00012
1.00014
1.00015
1.00017
1.00017
1.00013
1.00012
1.0001
1.00015
1.00019
1.00018
1.00018
1.00018
1.00001
1.00002
1.00003
1.00005
1.00007
1.00009
1.00009
1.0001
1.0001
1.00011
1.00012
1.00011
1.00009
1.00007
1.00007
1.00008
1.00009
1.00008
1.00008
1.00001
1.00001
1.00001
1.00001
1.00002
1.00003
1.00004
1.00004
1.00004
1.00004
1.00005
1.00005
1.00005
1.00004
1.00003
1.00003
1.00003
1.00002
1.00002
1.00001
1.00001
1.00001
1.00001
1.00001
1.00001
1.00001
1.00001
1.00001
1.00002
1.00002
1.00002
1.00002
1.00002
1.00001
1.00001
1.00001
1.00001
1.00001
1
1
1
1
1
1
1.00001
1.00001
1.00001
1.00001
1.00001
1.00001
1.00001
1.00001
1.00001
1.00001
1.00001
1.00001
1.00001
1
1
1
1
1
1
1
1
1
1
1
1
1
1
1
1.00001
1.00001
1.00001
1.00002
1
1
1
1
1
1
1
1
1
1
1
1
1
1
1
1.00001
1.00001
1.00002
1.00003
1
1
1
1
1
1
1
1
1
1
1
1
1
1
1
1.00001
1.00001
1.00003
1.00004
1
1
1
1
1
1
1
1
1
1
1
1
1
1
1
1.00001
1.00001
1.00004
1.00004
1
1
1
1
1
1
1
1
1
1
1
1
1
1
1
1.00001
1.00002
1.00004
1.00004
1
1
1
1
1
1
1
1
1
1
1
1
1
1
1
1
1.00002
1.00005
1.00003
1
1
1
1
1
1
1
1
1
1
1
1
1
1
1
1
1.00002
1.00005
1.00002
1
1
1
1
1
1
1
1
1
1
1
1
1
1
1
1
1.00002
1.00005
1.00002
1
1
1
1
1
1
1
1
1
1
1
1
1
1
1
1
1.00002
1.00005
1.00001
1
1
1
1
1
1
1
1
1
1
1
1
1
1
1
1
1.00002
1.00004
1.00001
1
1
1
1
1
1
1
1
1
1
1
1
1
1
1
1
1.00002
1.00003
1.00001
1
1
1
1
1
1
1
1
1
1
1
1
1
1
1
1.00001
1.00002
1.00001
1
1
1
1
1
1
1
1
1
1
1
1
1
1
1
1
1.00001
1.00001
1
1
1
1
1
1
1
1
1
1
1
1
1
1
1
1
1
1.00001
1.00001
1
1
1
1
1
1
1
1
1
1
1
1
1
1
1
1
1
1
1
1
1
1
1
1
1
1
1
1
1
1
1
1
1
1
1
1
1
1
1
1
1
1
1
1
1
1
1
1
1
1
1
1
1
1
1
1
1
1
1
1
1
1
1
1
1
1
1
1
1
1
1
1
1
1
1
1
1
1
1
1
1
1
1
1
1
1
1
1
1
1
1
1
1
1
1
1
1
1
1
1
1
1
1
1
1
1
1
1
1
1
1
1
1
1
1
1
1
1
1
1
1
1
1
1
1
1
1
1
1
1
1
1
1
1
1
1
1
1
1
1
1
1
1
1
1
1
1
1
1
1
1
1
1
1
)
;

boundaryField
{
    leftWall
    {
        type            calculated;
        value           nonuniform List<scalar> 
50
(
13529
13529
13529
13529
13529
7451.4
1040.03
1000
1000
999.696
892.978
721.664
451.569
498.481
499.891
447.897
102.331
1.00263
1.00106
1.00114
1.00164
1.00217
1.00154
1.00093
1.0006
1.00048
1.00033
1.00024
1.00014
1.00011
1.00006
1.00005
1.00004
1.00004
1.00003
1.00002
1.00002
1.00002
1.00001
1.00001
1.00001
1
1
1
1
1
1
1
1
1
)
;
    }
    rightWall
    {
        type            calculated;
        value           nonuniform List<scalar> 
50
(
10304.5
10302.7
7123.04
3267.58
596.722
678.921
745.728
815.789
887.782
836.523
677.5
551.693
500.2
500.149
500.15
511.794
350.519
33.2478
1.73892
1.00825
1.00084
1.00013
1.0002
1.00018
1.00008
1.00002
1.00001
1.00001
1.00002
1.00003
1.00004
1.00004
1.00004
1.00003
1.00002
1.00002
1.00001
1.00001
1.00001
1
1
1
1
1
1
1
1
1
1
1
)
;
    }
    lowerWall
    {
        type            calculated;
        value           nonuniform List<scalar> 
62
(
13529
13529
13529
13529
13529
13529
13529
13529
13529
13529
13529
13529
13529
13529
13529
13529
13529
13529
13529
13527.8
13522.1
13521.7
13521.8
13521.8
13528.5
13529
13529
13529
13526.5
12048.6
3333.04
1358.04
1527.77
1574.69
1516.95
11943
11943.1
8016.59
6805.31
2113.94
1613.82
1711.58
1248.38
11943
11951
11945.5
11932.9
11426
9015.43
9013.24
9094.9
9367.32
9412.12
8944.55
8767.1
9403.4
10337.1
10344.5
10360.6
10319
10299.7
10304.5
)
;
    }
    atmosphere
    {
        type            calculated;
        value           nonuniform List<scalar> 
46
(
1
1
1
1
1
1
1
1
1
1
1
1
1
1
1
1
1
1
1
1
1
1
1
1
1
1
1
1
1
1
1
1
1
1
1
1
1
1
1
1
1
1
1
1
1
1
)
;
    }
    defaultFaces
    {
        type            empty;
    }
}


// ************************************************************************* //
