/*--------------------------------*- C++ -*----------------------------------*\
  =========                 |
  \\      /  F ield         | OpenFOAM: The Open Source CFD Toolbox
   \\    /   O peration     | Website:  https://openfoam.org
    \\  /    A nd           | Version:  13
     \\/     M anipulation  |
\*---------------------------------------------------------------------------*/
FoamFile
{
    format      ascii;
    class       volVectorField;
    location    "2.75";
    object      U;
}
// * * * * * * * * * * * * * * * * * * * * * * * * * * * * * * * * * * * * * //

dimensions      [0 1 -1 0 0 0 0];

internalField   nonuniform List<vector> 
2268
(
(-0.00975618 0.00403714 0)
(-0.0188815 0.00231876 0)
(-0.0255926 0.00160047 0)
(-0.0328523 0.0016045 0)
(-0.0398522 0.00169529 0)
(-0.046615 0.00170899 0)
(-0.0529195 0.0016497 0)
(-0.0587483 0.0016037 0)
(-0.0642292 0.00158876 0)
(-0.0693366 0.00150666 0)
(-0.073837 0.00131987 0)
(-0.0774998 0.00105612 0)
(-0.0802011 0.00076516 0)
(-0.0818344 0.000446461 0)
(-0.0822523 7.26102e-05 0)
(-0.0811571 -0.000335365 0)
(-0.0782008 -0.000825911 0)
(-0.0732063 -0.00133333 0)
(-0.0661185 -0.00187961 0)
(-0.0568061 -0.00262884 0)
(-0.0449892 -0.00375842 0)
(-0.0317316 -0.00528265 0)
(-0.0168339 -0.00883583 0)
(-0.00720263 0.00936423 0)
(-0.0146631 0.00610395 0)
(-0.02202 0.00545051 0)
(-0.0301594 0.00530978 0)
(-0.0378941 0.00514573 0)
(-0.045172 0.00485885 0)
(-0.0518773 0.00449175 0)
(-0.0580401 0.0041806 0)
(-0.0637654 0.00393121 0)
(-0.0690287 0.00358301 0)
(-0.0736393 0.00305436 0)
(-0.0773965 0.00240067 0)
(-0.080186 0.00167127 0)
(-0.0818509 0.000807048 0)
(-0.0820994 -0.000257177 0)
(-0.08058 -0.00153682 0)
(-0.0769768 -0.00303213 0)
(-0.0711205 -0.00461775 0)
(-0.0629879 -0.0062708 0)
(-0.0526137 -0.00803335 0)
(-0.0401073 -0.00982105 0)
(-0.0273485 -0.0113505 0)
(-0.0129591 -0.0155258 0)
(-0.00458425 0.0137014 0)
(-0.0125685 0.00976548 0)
(-0.0203741 0.00930397 0)
(-0.0287841 0.00910721 0)
(-0.0366845 0.00873408 0)
(-0.0440525 0.00817137 0)
(-0.0508249 0.0075087 0)
(-0.0570427 0.00692377 0)
(-0.0627688 0.00641837 0)
(-0.0679602 0.00577199 0)
(-0.0724528 0.00486794 0)
(-0.0760803 0.00376631 0)
(-0.0787349 0.0025809 0)
(-0.080212 0.00114678 0)
(-0.0801783 -0.000623994 0)
(-0.0782805 -0.00279232 0)
(-0.0742479 -0.00525246 0)
(-0.0679819 -0.00781749 0)
(-0.0595147 -0.0104307 0)
(-0.0489785 -0.013045 0)
(-0.0365909 -0.0154584 0)
(-0.0242373 -0.0175085 0)
(-0.0102023 -0.0235004 0)
(-0.00189522 0.0173804 0)
(-0.0113396 0.0138344 0)
(-0.0194771 0.0134641 0)
(-0.0279306 0.0131281 0)
(-0.0357772 0.0125151 0)
(-0.0430554 0.0116809 0)
(-0.0497551 0.0107393 0)
(-0.0559198 0.00989038 0)
(-0.0615485 0.00910656 0)
(-0.0665727 0.00813136 0)
(-0.0708681 0.00681137 0)
(-0.0742733 0.00529603 0)
(-0.0766821 0.00355996 0)
(-0.0778725 0.00144037 0)
(-0.0774835 -0.00116544 0)
(-0.0751901 -0.00428886 0)
(-0.0707821 -0.0077606 0)
(-0.0642352 -0.0113184 0)
(-0.0556196 -0.0148617 0)
(-0.0451158 -0.0182855 0)
(-0.032974 -0.0213099 0)
(-0.0209697 -0.0238933 0)
(-0.00740832 -0.0305816 0)
(-0.000357053 0.0179634 0)
(-0.0108024 0.0168621 0)
(-0.0190213 0.0166099 0)
(-0.0272833 0.0161834 0)
(-0.0348672 0.0154519 0)
(-0.0418824 0.0145066 0)
(-0.0483863 0.0134643 0)
(-0.0544392 0.0125008 0)
(-0.0599162 0.011549 0)
(-0.0647003 0.0103233 0)
(-0.068707 0.00867633 0)
(-0.0718853 0.00668973 0)
(-0.0740524 0.00441104 0)
(-0.0748705 0.00154686 0)
(-0.0740512 -0.00195129 0)
(-0.0713186 -0.00607096 0)
(-0.0665396 -0.0105757 0)
(-0.0597556 -0.0151327 0)
(-0.0510599 -0.0196405 0)
(-0.0406727 -0.0238839 0)
(-0.0289026 -0.0275197 0)
(-0.0173895 -0.0304942 0)
(-0.00457234 -0.0365577 0)
(-0.00219836 0.020304 0)
(-0.0116316 0.0206037 0)
(-0.0191788 0.0201852 0)
(-0.0267543 0.0194751 0)
(-0.0336976 0.0184363 0)
(-0.0401747 0.017208 0)
(-0.0463731 0.0159128 0)
(-0.0523206 0.0146881 0)
(-0.0576112 0.0134169 0)
(-0.0620797 0.0118984 0)
(-0.0658704 0.0099448 0)
(-0.0688243 0.00759865 0)
(-0.0706414 0.00485047 0)
(-0.0710308 0.00137391 0)
(-0.069728 -0.00291916 0)
(-0.066547 -0.00796899 0)
(-0.0614435 -0.0134602 0)
(-0.0545227 -0.0189936 0)
(-0.045824 -0.0244128 0)
(-0.035591 -0.0293792 0)
(-0.0242566 -0.0334714 0)
(-0.013327 -0.0365041 0)
(-0.0016101 -0.0405642 0)
(-0.00629704 0.0297145 0)
(-0.0122784 0.0245923 0)
(-0.0186191 0.0234454 0)
(-0.0247089 0.0223511 0)
(-0.0305243 0.0210059 0)
(-0.0362899 0.0195693 0)
(-0.0422816 0.0181659 0)
(-0.0483643 0.0168585 0)
(-0.0535288 0.0153256 0)
(-0.0577022 0.0135673 0)
(-0.0611667 0.0113787 0)
(-0.0639736 0.00876883 0)
(-0.0655759 0.00541685 0)
(-0.0655339 0.00126689 0)
(-0.0638056 -0.00372766 0)
(-0.0602639 -0.00948195 0)
(-0.054991 -0.0156263 0)
(-0.0480762 -0.0217579 0)
(-0.039497 -0.027709 0)
(-0.0296285 -0.0330022 0)
(-0.0190989 -0.0372968 0)
(-0.0092259 -0.0404095 0)
(0.000169348 -0.0427812 0)
(-0.00369519 0.0318962 0)
(-0.0104353 0.0305734 0)
(-0.0139056 0.0290088 0)
(-0.0164136 0.0277007 0)
(-0.0187295 0.0261815 0)
(-0.0214139 0.024738 0)
(-0.024969 0.0233983 0)
(-0.02978 0.0215878 0)
(-0.0356012 0.0188458 0)
(-0.04138 0.0160199 0)
(-0.0467149 0.0129915 0)
(-0.0513148 0.00933345 0)
(-0.0544898 0.00534564 0)
(-0.055434 0.000618807 0)
(-0.0540479 -0.00490371 0)
(-0.0505353 -0.0112724 0)
(-0.0453888 -0.0180633 0)
(-0.0387813 -0.0248958 0)
(-0.0307011 -0.0316993 0)
(-0.0216501 -0.0375491 0)
(-0.0123141 -0.0420636 0)
(-0.00386971 -0.0444757 0)
(0.000444991 -0.0437448 0)
(-0.0241998 0.0116361 0)
(-0.0517053 0.0102218 0)
(-0.0738473 0.00561858 0)
(-0.0810348 -0.000605082 0)
(-0.0717386 -0.00776812 0)
(-0.0591372 -0.00143718 0)
(-0.054832 -0.00232884 0)
(-0.0460136 -0.00425554 0)
(-0.0351446 -0.0051134 0)
(-0.0223603 -0.00794684 0)
(-0.00871043 -0.00221729 0)
(-0.0160836 0.00734664 0)
(-0.0244353 -0.0011985 0)
(-0.0157062 -0.00442367 0)
(-0.00956448 -0.00167144 0)
(-0.00545632 -0.00248321 0)
(-0.00136845 -0.00152439 0)
(0.000235629 -0.00202326 0)
(0.00564561 0.00135651 0)
(-0.0239667 0.0206209 0)
(-0.0421426 0.017089 0)
(-0.0581381 0.0102883 0)
(-0.0649517 0.0017405 0)
(-0.0642345 -0.00805113 0)
(-0.0584055 -0.00463588 0)
(-0.0485153 -0.00593691 0)
(-0.0378096 -0.00709842 0)
(-0.0287822 -0.00622849 0)
(-0.0248317 -0.00794794 0)
(-0.0216325 -0.00317401 0)
(-0.0148955 0.00406519 0)
(-0.00859657 -0.00274709 0)
(-0.00743092 -0.00341677 0)
(-0.00801317 -0.00212277 0)
(-0.00618171 -0.00260433 0)
(-0.00495597 -0.00116795 0)
(-0.00439739 -0.000761338 0)
(-0.00499386 0.00113294 0)
(-0.0173648 0.0290177 0)
(-0.0285381 0.0242367 0)
(-0.0423824 0.013935 0)
(-0.0434788 0.00304163 0)
(-0.0433548 -0.0073491 0)
(-0.0445761 -0.00656256 0)
(-0.0387145 -0.00896163 0)
(-0.0294828 -0.0100189 0)
(-0.0192157 -0.00835556 0)
(-0.0190973 -0.00765216 0)
(-0.0215288 -0.00468171 0)
(-0.0119924 0.000125604 0)
(-0.00346278 -0.0040784 0)
(-0.00534219 -0.00275134 0)
(-0.00699621 -0.00221261 0)
(-0.00667302 -0.00253717 0)
(-0.00695451 -0.00126022 0)
(-0.00527519 -0.000801347 0)
(-0.00870871 -0.0032404 0)
(-0.0196369 0.039262 0)
(-0.0245188 0.0308296 0)
(-0.0326512 0.0159302 0)
(-0.0231862 -1.11182e-05 0)
(-0.0165123 -0.00716324 0)
(-0.0225719 -0.00566347 0)
(-0.0225645 -0.0112009 0)
(-0.0143984 -0.0126332 0)
(-0.00133459 -0.0116431 0)
(-0.00198463 -0.00489889 0)
(-0.00951832 -0.00490029 0)
(-0.00313105 -0.00316403 0)
(-0.000743162 -0.00446451 0)
(-0.0084902 -0.00152149 0)
(-0.010316 -0.00179807 0)
(-0.00740327 -0.00173379 0)
(-0.00268278 -0.00121024 0)
(0.00839567 -0.0012354 0)
(0.0158353 -0.00660157 0)
(-0.0282649 0.0442205 0)
(-0.0262044 0.034117 0)
(-0.0214886 0.0142175 0)
(-0.0115648 -0.00591433 0)
(-0.00355459 -0.00939497 0)
(0.000308365 -0.00381065 0)
(0.00250718 -0.0144305 0)
(0.0129501 -0.019138 0)
(0.0212587 -0.0166531 0)
(0.0249199 -0.00288667 0)
(0.0179497 -0.00424004 0)
(0.0182806 -0.00381166 0)
(0.00193938 -0.000343794 0)
(-0.0258206 0.00239512 0)
(-0.0256197 -0.0033747 0)
(-0.00560142 -0.00755892 0)
(0.019882 -0.00918701 0)
(0.0465592 -0.0131365 0)
(0.0815171 0.0127576 0)
(-0.0100726 0.0573076 0)
(-0.00336448 0.0335204 0)
(0.00246991 0.0109171 0)
(0.00246369 -0.00712238 0)
(-0.000336688 -0.0114149 0)
(0.0056505 -0.00741238 0)
(0.0155406 -0.0175359 0)
(0.0248145 -0.0234525 0)
(0.0266735 -0.0168548 0)
(0.0255889 -0.00301756 0)
(0.0266853 -0.0041028 0)
(0.0379446 -0.00449389 0)
(0.0078973 0.0176341 0)
(-0.0402061 0.00764066 0)
(-0.022976 -0.0139768 0)
(0.0036758 -0.0202528 0)
(0.032071 -0.023615 0)
(0.0533912 -0.0292299 0)
(0.0791041 0.0477163 0)
(0.0121369 0.0553806 0)
(0.0232085 0.0293897 0)
(0.0290909 0.0090953 0)
(0.0234999 -0.00383074 0)
(0.00858865 -0.00990301 0)
(0.00996141 -0.011553 0)
(0.021434 -0.0209964 0)
(0.0256321 -0.0246447 0)
(0.0206243 -0.01468 0)
(0.0158727 -0.0032277 0)
(0.0171658 -0.00568382 0)
(0.0232412 -0.00562334 0)
(0.00712461 0.0505647 0)
(-0.022098 0.00911814 0)
(-0.00594382 -0.0223732 0)
(0.012049 -0.0296759 0)
(0.0330879 -0.0333714 0)
(0.0406161 -0.0339307 0)
(0.0595059 0.0714172 0)
(0.0402943 0.0419627 0)
(0.0475174 0.0266271 0)
(0.0533266 0.0070912 0)
(0.0465808 0.00152138 0)
(0.0247241 -0.00383942 0)
(0.0194583 -0.0136379 0)
(0.0239095 -0.022961 0)
(0.0202942 -0.022598 0)
(0.00928797 -0.0110755 0)
(0.00476708 -0.00325023 0)
(0.00497128 -0.00649776 0)
(0.00318314 -0.00474104 0)
(-0.00136699 0.0540296 0)
(0.000794463 0.0068801 0)
(0.0100434 -0.0274386 0)
(0.0177136 -0.0356781 0)
(0.0285404 -0.0387267 0)
(0.0221459 -0.0330379 0)
(0.0365013 0.0870848 0)
(-0.00357725 0.0349946 0)
(-0.0072111 0.0305298 0)
(-0.00666186 0.0274234 0)
(-0.00505237 0.0259817 0)
(-0.00299834 0.0248711 0)
(-0.000975955 0.0241822 0)
(0.000556752 0.0240772 0)
(0.00115124 0.0239419 0)
(0.000710084 0.0228903 0)
(-0.000455908 0.0211467 0)
(-0.00197238 0.0185677 0)
(-0.00377242 0.0150087 0)
(-0.00595012 0.00915495 0)
(-0.0084614 0.00152145 0)
(-0.0105373 -0.00695696 0)
(-0.0115428 -0.0158272 0)
(-0.0108658 -0.0242683 0)
(-0.00826771 -0.0321867 0)
(-0.00395758 -0.0394072 0)
(0.00194868 -0.0452451 0)
(0.00832835 -0.0492693 0)
(0.0137799 -0.0493625 0)
(0.00846312 -0.0394352 0)
(-0.00691779 0.0411322 0)
(-0.00590507 0.0294641 0)
(-0.00163208 0.0235803 0)
(0.00300645 0.0217321 0)
(0.00775938 0.0203602 0)
(0.0127478 0.0195774 0)
(0.0174911 0.0199143 0)
(0.0214311 0.0203725 0)
(0.0244987 0.0199115 0)
(0.0269349 0.0184801 0)
(0.0289704 0.0162345 0)
(0.0308317 0.0130071 0)
(0.0325931 0.00874974 0)
(0.0342552 0.00292731 0)
(0.0359362 -0.00456965 0)
(0.0378254 -0.0137915 0)
(0.0402908 -0.0239155 0)
(0.0433831 -0.0342909 0)
(0.0469765 -0.0440881 0)
(0.0508772 -0.0518386 0)
(0.0547984 -0.0555529 0)
(0.0585195 -0.052163 0)
(0.0626581 -0.0409627 0)
(0.000723982 0.0446292 0)
(0.0018603 0.0262069 0)
(0.00482341 0.0182831 0)
(0.00881757 0.0162825 0)
(0.0136431 0.0144554 0)
(0.0192833 0.0132353 0)
(0.0250697 0.0141593 0)
(0.0302915 0.0155021 0)
(0.0349126 0.0156447 0)
(0.039218 0.0146034 0)
(0.0433173 0.0126085 0)
(0.0472673 0.00965915 0)
(0.0511476 0.00553632 0)
(0.0548482 -3.98413e-05 0)
(0.0581977 -0.00738598 0)
(0.0611927 -0.0162834 0)
(0.0638758 -0.025927 0)
(0.0660565 -0.0356072 0)
(0.0673959 -0.0443273 0)
(0.0675425 -0.0512086 0)
(0.0663036 -0.0544335 0)
(0.0638694 -0.0510339 0)
(0.0600112 -0.0377257 0)
(0.00505744 0.0389946 0)
(0.00882318 0.0241471 0)
(0.012266 0.0157346 0)
(0.0158122 0.0128605 0)
(0.0199549 0.0100257 0)
(0.0237825 0.00852707 0)
(0.0278887 0.00917914 0)
(0.0329335 0.0107231 0)
(0.0382624 0.0111229 0)
(0.0433754 0.0102722 0)
(0.0482952 0.00848186 0)
(0.0530497 0.00561239 0)
(0.0578497 0.00136777 0)
(0.0626886 -0.00401387 0)
(0.0667938 -0.0107001 0)
(0.069323 -0.018719 0)
(0.0702248 -0.0274851 0)
(0.0699684 -0.0364761 0)
(0.0683785 -0.0437648 0)
(0.0644739 -0.0487409 0)
(0.0578424 -0.0500672 0)
(0.0492426 -0.0451036 0)
(0.0408342 -0.0309554 0)
(0.00295558 0.0398795 0)
(0.0102145 0.0180485 0)
(0.0151234 0.0119514 0)
(0.0189633 0.0090207 0)
(0.0220817 0.00679558 0)
(0.0239012 0.00659313 0)
(0.0261757 0.00544013 0)
(0.0308035 0.00554363 0)
(0.0366511 0.00574915 0)
(0.0424572 0.00500391 0)
(0.0479321 0.00328581 0)
(0.0532941 0.000428783 0)
(0.0585621 -0.00417348 0)
(0.0634449 -0.00910674 0)
(0.0671044 -0.0142501 0)
(0.0687333 -0.0201392 0)
(0.0676947 -0.0268976 0)
(0.0645734 -0.0345306 0)
(0.060039 -0.0394738 0)
(0.0535407 -0.0414786 0)
(0.0449498 -0.0402853 0)
(0.0352053 -0.034555 0)
(0.0264688 -0.0235526 0)
(0.00856507 0.024364 0)
(0.00943877 0.0125713 0)
(0.00897634 0.0089428 0)
(0.0099121 0.00602277 0)
(0.0115024 0.00454617 0)
(0.0141504 0.00415221 0)
(0.0181889 0.00112506 0)
(0.0234013 -0.000699536 0)
(0.0296514 -0.00108403 0)
(0.0362516 -0.00166915 0)
(0.0428445 -0.00325478 0)
(0.0492835 -0.00580694 0)
(0.0550206 -0.00958462 0)
(0.0595534 -0.0134082 0)
(0.0628078 -0.0168097 0)
(0.0645283 -0.0203254 0)
(0.0642729 -0.0243203 0)
(0.0611922 -0.0294793 0)
(0.0551429 -0.0325707 0)
(0.0469782 -0.0328656 0)
(0.0373035 -0.0304551 0)
(0.0271605 -0.025004 0)
(0.0185902 -0.0168045 0)
(0.0011866 0.0210749 0)
(0.000915095 0.0154415 0)
(-0.00170615 0.0100676 0)
(-0.00180809 0.00517434 0)
(0.000166392 0.00183341 0)
(0.00441527 -0.000757856 0)
(0.00998932 -0.00453303 0)
(0.0160264 -0.00726496 0)
(0.0228085 -0.0084824 0)
(0.0302665 -0.00937057 0)
(0.0378756 -0.0107833 0)
(0.0450853 -0.0128101 0)
(0.0513762 -0.0153272 0)
(0.0563559 -0.0177142 0)
(0.0599023 -0.0196102 0)
(0.061946 -0.021495 0)
(0.061833 -0.0229185 0)
(0.0586888 -0.0246701 0)
(0.0524531 -0.0250421 0)
(0.0437659 -0.0235064 0)
(0.0335269 -0.0201531 0)
(0.0230245 -0.0152881 0)
(0.0139752 -0.00970044 0)
(-0.00478026 0.015261 0)
(-0.0046925 0.0148228 0)
(-0.00926348 0.00916382 0)
(-0.0102514 0.00314293 0)
(-0.0077876 -0.0017578 0)
(-0.00263371 -0.00582073 0)
(0.00385981 -0.00965827 0)
(0.0107787 -0.0126262 0)
(0.0182019 -0.0143167 0)
(0.0262151 -0.0154722 0)
(0.0344248 -0.0166617 0)
(0.0422333 -0.0179596 0)
(0.0490684 -0.0192767 0)
(0.0545631 -0.0203454 0)
(0.0585739 -0.0209051 0)
(0.0607881 -0.0212204 0)
(0.0608021 -0.0206875 0)
(0.0579436 -0.0200285 0)
(0.0517116 -0.0184128 0)
(0.0425753 -0.0155451 0)
(0.0316175 -0.0117059 0)
(0.0204986 -0.00751947 0)
(0.0109319 -0.00371473 0)
(0.00508279 0.0271884 0)
(0.00304733 0.0226672 0)
(-0.00731897 0.0133716 0)
(-0.0117193 0.00389762 0)
(-0.0106116 -0.00350071 0)
(-0.00539134 -0.00931575 0)
(0.00175278 -0.013812 0)
(0.00905208 -0.0170565 0)
(0.0166534 -0.0191992 0)
(0.0250489 -0.0207099 0)
(0.0338236 -0.0218887 0)
(0.0422664 -0.0227769 0)
(0.0497162 -0.0233548 0)
(0.0557238 -0.0234971 0)
(0.0600431 -0.0230309 0)
(0.0622927 -0.022044 0)
(0.0621974 -0.0199441 0)
(0.0590204 -0.0174262 0)
(0.0519008 -0.0140289 0)
(0.0413965 -0.00974874 0)
(0.0289327 -0.00505343 0)
(0.0165186 -0.000876868 0)
(0.00624829 0.00230467 0)
(-0.0232643 0.0142814 0)
(0.000499929 0.0264431 0)
(-0.00111174 0.0186594 0)
(-0.00437188 0.00523361 0)
(-0.00524892 -0.00443232 0)
(-0.00204699 -0.0117507 0)
(0.00329781 -0.0162514 0)
(0.00997224 -0.0193331 0)
(0.0174453 -0.0220051 0)
(0.0255483 -0.0241083 0)
(0.0338372 -0.0255958 0)
(0.0417085 -0.0264569 0)
(0.0485386 -0.0266462 0)
(0.0537548 -0.0261548 0)
(0.0569038 -0.0247086 0)
(0.0574147 -0.0221417 0)
(0.0551463 -0.017441 0)
(0.0497057 -0.0103835 0)
(0.0411537 -0.00100853 0)
(0.0311497 0.00885657 0)
(0.0216128 0.0156887 0)
(0.012838 0.0173647 0)
(0.00608057 0.0153737 0)
(0.0103309 0.03577 0)
(9.39586e-05 0.0336104 0)
(-0.00345795 0.0316596 0)
(-0.00469627 0.0105767 0)
(-0.00685959 -0.0125186 0)
(-0.00853833 -0.0309145 0)
(-0.00790323 -0.0419981 0)
(-0.00428602 -0.0485076 0)
(0.000583995 -0.05289 0)
(0.00443032 -0.0555263 0)
(0.00681209 -0.0562421 0)
(0.00827058 -0.0544834 0)
(0.00916845 -0.0504039 0)
(0.00952049 -0.0443097 0)
(0.00914365 -0.0361761 0)
(0.00778104 -0.0258806 0)
(0.00540897 -0.0131926 0)
(0.00221036 0.00109556 0)
(-0.00144075 0.0144145 0)
(-0.00483657 0.024336 0)
(-0.00719129 0.0291878 0)
(-0.00910098 0.0287186 0)
(-0.00971501 0.0247095 0)
(0.00304564 0.0164114 0)
(0.00105862 0.0285477 0)
(-0.00158301 0.0237866 0)
(-0.00378717 0.0111883 0)
(-0.0084665 -0.00328825 0)
(-0.0139245 -0.0172172 0)
(-0.0171267 -0.0295414 0)
(-0.0169996 -0.0380872 0)
(-0.0154011 -0.0415494 0)
(-0.0147716 -0.0415417 0)
(-0.0162222 -0.04095 0)
(-0.0186423 -0.0396552 0)
(-0.0212282 -0.0371999 0)
(-0.0237448 -0.0333619 0)
(-0.0261364 -0.0279147 0)
(-0.0283328 -0.0207528 0)
(-0.0300659 -0.0119166 0)
(-0.0308945 -0.0020494 0)
(-0.0303676 0.00734883 0)
(-0.0285061 0.0145104 0)
(-0.0255536 0.0181354 0)
(-0.0229344 0.0181691 0)
(-0.0205749 0.0157905 0)
(-0.0102751 0.0256135 0)
(-0.00761999 0.0308134 0)
(-0.00922595 0.0235699 0)
(-0.0109692 0.0139625 0)
(-0.0154793 0.0027686 0)
(-0.0214537 -0.0108117 0)
(-0.0261986 -0.0259134 0)
(-0.0286498 -0.0363699 0)
(-0.0299413 -0.0401454 0)
(-0.031451 -0.038415 0)
(-0.034417 -0.036256 0)
(-0.0383968 -0.0346144 0)
(-0.0422936 -0.0323878 0)
(-0.0457564 -0.0290343 0)
(-0.0486329 -0.0242786 0)
(-0.0506941 -0.0181039 0)
(-0.0515839 -0.0107011 0)
(-0.0508903 -0.00267041 0)
(-0.0483443 0.0048791 0)
(-0.0441822 0.0105971 0)
(-0.0389112 0.0136049 0)
(-0.0341564 0.0138114 0)
(-0.0300687 0.0117142 0)
(-0.0137712 0.0359723 0)
(-0.0125564 0.0329514 0)
(-0.0153337 0.0248058 0)
(-0.0176621 0.0169746 0)
(-0.0214901 0.00800752 0)
(-0.0267058 -0.00530679 0)
(-0.0321224 -0.0215895 0)
(-0.0370509 -0.03325 0)
(-0.0410304 -0.0377684 0)
(-0.0443154 -0.0359253 0)
(-0.0478682 -0.0323938 0)
(-0.0519209 -0.0306711 0)
(-0.0557202 -0.0286951 0)
(-0.0589904 -0.0258571 0)
(-0.0615441 -0.0218135 0)
(-0.0631033 -0.0166679 0)
(-0.0633196 -0.0106497 0)
(-0.0618849 -0.00428046 0)
(-0.0586916 0.00159834 0)
(-0.0540045 0.00604523 0)
(-0.0482214 0.00839948 0)
(-0.042925 0.00854744 0)
(-0.0382158 0.0064961 0)
(-0.0121424 0.0479189 0)
(-0.0137599 0.0379863 0)
(-0.0184834 0.0279285 0)
(-0.021988 0.0200982 0)
(-0.0254321 0.0119876 0)
(-0.0293519 -0.00064598 0)
(-0.0347674 -0.0159901 0)
(-0.0411731 -0.0281132 0)
(-0.0471344 -0.0333985 0)
(-0.0521169 -0.0323475 0)
(-0.0560894 -0.0289269 0)
(-0.0595693 -0.0273359 0)
(-0.0626616 -0.0257692 0)
(-0.0653093 -0.0235251 0)
(-0.0672667 -0.020327 0)
(-0.0682692 -0.0163383 0)
(-0.0680106 -0.011754 0)
(-0.0662903 -0.00697198 0)
(-0.0630782 -0.00259375 0)
(-0.0586119 0.000737565 0)
(-0.0531754 0.00256089 0)
(-0.0481656 0.00274471 0)
(-0.0436441 0.000913378 0)
(-0.00958348 0.0580427 0)
(-0.0126308 0.0442918 0)
(-0.0186194 0.0326116 0)
(-0.0231521 0.0239296 0)
(-0.0265402 0.0152502 0)
(-0.0298518 0.00347723 0)
(-0.0346132 -0.00982741 0)
(-0.041273 -0.0212053 0)
(-0.0483729 -0.0271585 0)
(-0.0543529 -0.0273792 0)
(-0.0586034 -0.025436 0)
(-0.061581 -0.0243214 0)
(-0.0641486 -0.0232127 0)
(-0.0662485 -0.0215349 0)
(-0.0677061 -0.0191488 0)
(-0.0682831 -0.0162239 0)
(-0.0677888 -0.0129002 0)
(-0.0660835 -0.00946535 0)
(-0.0631793 -0.00634038 0)
(-0.059291 -0.0039622 0)
(-0.0545435 -0.00264113 0)
(-0.0502934 -0.00251269 0)
(-0.0464564 -0.00412574 0)
(-0.00743912 0.0666488 0)
(-0.0107504 0.0508406 0)
(-0.0166563 0.0381341 0)
(-0.0213133 0.028156 0)
(-0.0248441 0.0184401 0)
(-0.0282027 0.00729659 0)
(-0.0327652 -0.00424469 0)
(-0.0388551 -0.0141799 0)
(-0.0456628 -0.0202368 0)
(-0.0516225 -0.0221106 0)
(-0.0558583 -0.0219262 0)
(-0.0588879 -0.0216174 0)
(-0.061272 -0.0210205 0)
(-0.0630972 -0.0199242 0)
(-0.0642784 -0.0182965 0)
(-0.0646709 -0.0162822 0)
(-0.0641634 -0.0139868 0)
(-0.0626863 -0.0116225 0)
(-0.0602688 -0.00947961 0)
(-0.0570823 -0.0078514 0)
(-0.0532212 -0.00694588 0)
(-0.0498673 -0.00685115 0)
(-0.0469083 -0.00827205 0)
(-0.00535038 0.0735811 0)
(-0.00829215 0.0565792 0)
(-0.0132848 0.0432958 0)
(-0.0174452 0.0322473 0)
(-0.0209646 0.021855 0)
(-0.0244974 0.0112146 0)
(-0.028873 0.00085412 0)
(-0.0343485 -0.00795905 0)
(-0.0403073 -0.0140236 0)
(-0.0456845 -0.0170888 0)
(-0.0498547 -0.0183644 0)
(-0.0529562 -0.0189077 0)
(-0.055328 -0.0189453 0)
(-0.0570891 -0.0184731 0)
(-0.0582031 -0.0175635 0)
(-0.0586124 -0.0163249 0)
(-0.0582715 -0.0148663 0)
(-0.0571483 -0.0133429 0)
(-0.0552918 -0.0119571 0)
(-0.052867 -0.0109018 0)
(-0.0498529 -0.0103028 0)
(-0.0474601 -0.0102253 0)
(-0.045447 -0.0114419 0)
(-0.00307729 0.0783609 0)
(-0.0052704 0.0610402 0)
(-0.00910305 0.0474716 0)
(-0.0125785 0.0359496 0)
(-0.0158758 0.0253235 0)
(-0.0193443 0.0150991 0)
(-0.0234357 0.00556427 0)
(-0.0282554 -0.00257751 0)
(-0.0333895 -0.00862569 0)
(-0.0381514 -0.0124995 0)
(-0.0420794 -0.0147905 0)
(-0.0451657 -0.0161462 0)
(-0.0475638 -0.0168548 0)
(-0.0493454 -0.0170236 0)
(-0.0505165 -0.0167677 0)
(-0.0510655 -0.0162045 0)
(-0.0509805 -0.0154317 0)
(-0.0502643 -0.014574 0)
(-0.0489756 -0.0137703 0)
(-0.0472451 -0.0131476 0)
(-0.045076 -0.012774 0)
(-0.0435081 -0.0126726 0)
(-0.0423194 -0.0137093 0)
(-0.000904938 0.0807592 0)
(-0.00216627 0.0640057 0)
(-0.0048109 0.0506277 0)
(-0.00750909 0.0390951 0)
(-0.0103751 0.0285647 0)
(-0.0135472 0.0187416 0)
(-0.01722 0.00978509 0)
(-0.0213967 0.00209685 0)
(-0.0258026 -0.00396844 0)
(-0.0299708 -0.00834512 0)
(-0.0335844 -0.0113564 0)
(-0.036563 -0.0134053 0)
(-0.0389458 -0.0147368 0)
(-0.0407664 -0.0155018 0)
(-0.042036 -0.0158362 0)
(-0.0427628 -0.0158526 0)
(-0.0429576 -0.0156473 0)
(-0.0426381 -0.0153193 0)
(-0.041867 -0.0149666 0)
(-0.0407788 -0.0146698 0)
(-0.0392766 -0.0144494 0)
(-0.0384667 -0.0143196 0)
(-0.0379956 -0.0151883 0)
(0.000788026 0.0808853 0)
(0.000509289 0.0655565 0)
(-0.00097465 0.0527773 0)
(-0.00284786 0.0415761 0)
(-0.00513066 0.0313591 0)
(-0.00782578 0.0219504 0)
(-0.0109721 0.0134487 0)
(-0.0145111 0.00608064 0)
(-0.0182354 4.08634e-05 0)
(-0.0218488 -0.00465383 0)
(-0.0250974 -0.00817117 0)
(-0.027884 -0.0107613 0)
(-0.0301901 -0.0126258 0)
(-0.0320162 -0.0139156 0)
(-0.0333681 -0.0147615 0)
(-0.0342586 -0.0152715 0)
(-0.0347051 -0.0155346 0)
(-0.0347331 -0.0156306 0)
(-0.0344042 -0.0156299 0)
(-0.0338158 -0.0155781 0)
(-0.0329276 -0.015472 0)
(-0.0326656 -0.0152966 0)
(-0.0327198 -0.0160379 0)
(0.00187211 0.0793178 0)
(0.00245071 0.065826 0)
(0.00201296 0.0539376 0)
(0.000983812 0.0433114 0)
(-0.000611748 0.0335631 0)
(-0.00270364 0.024599 0)
(-0.00524176 0.0165024 0)
(-0.00813306 0.00940864 0)
(-0.0112093 0.00342689 0)
(-0.0142643 -0.00143933 0)
(-0.0171096 -0.00529237 0)
(-0.0196339 -0.00828806 0)
(-0.0217936 -0.0105817 0)
(-0.023568 -0.0123077 0)
(-0.0249533 -0.0135828 0)
(-0.0259581 -0.014504 0)
(-0.0265989 -0.0151505 0)
(-0.0268997 -0.0155871 0)
(-0.0269144 -0.0158633 0)
(-0.02675 -0.0160018 0)
(-0.0262689 -0.0159781 0)
(-0.0264778 -0.0157706 0)
(-0.0269734 -0.0164076 0)
(0.00231323 0.076782 0)
(0.00358136 0.0650695 0)
(0.00402411 0.0541781 0)
(0.00379745 0.0442516 0)
(0.00293253 0.0350685 0)
(0.00151982 0.0265992 0)
(-0.000354839 0.0189092 0)
(-0.00258593 0.012087 0)
(-0.00502733 0.00621019 0)
(-0.00751971 0.00127905 0)
(-0.00992485 -0.00277331 0)
(-0.0121289 -0.00605277 0)
(-0.014077 -0.00867128 0)
(-0.015736 -0.0107409 0)
(-0.0170918 -0.0123608 0)
(-0.018146 -0.0136148 0)
(-0.0189096 -0.0145701 0)
(-0.0194024 -0.0152786 0)
(-0.0196704 -0.0157731 0)
(-0.0197833 -0.0160627 0)
(-0.0196742 -0.0161065 0)
(-0.0201572 -0.0158707 0)
(-0.0209132 -0.0164397 0)
(0.00225741 0.073871 0)
(0.00402456 0.063581 0)
(0.00514727 0.053633 0)
(0.0056315 0.0444365 0)
(0.0054746 0.0358581 0)
(0.00475318 0.0279014 0)
(0.00355838 0.0206284 0)
(0.00199237 0.0141101 0)
(0.000177449 0.00839589 0)
(-0.0017564 0.00348552 0)
(-0.00369072 -0.000658289 0)
(-0.00553508 -0.00411126 0)
(-0.00721899 -0.00695609 0)
(-0.00870446 -0.00927928 0)
(-0.00996942 -0.0111625 0)
(-0.0110076 -0.0126749 0)
(-0.0118238 -0.0138718 0)
(-0.0124288 -0.0147925 0)
(-0.0128593 -0.0154579 0)
(-0.0131944 -0.0158648 0)
(-0.0132707 -0.0159585 0)
(-0.0140003 -0.0157087 0)
(-0.014951 -0.0162327 0)
(0.0019237 0.0710145 0)
(0.00399417 0.0616321 0)
(0.00560052 0.0524604 0)
(0.00667252 0.0439439 0)
(0.00715317 0.0359632 0)
(0.0070835 0.0285246 0)
(0.00653973 0.0216804 0)
(0.00561127 0.0154863 0)
(0.00440049 0.0099806 0)
(0.00301502 0.00516869 0)
(0.00155397 0.0010247 0)
(9.55697e-05 -0.00250111 0)
(-0.00128902 -0.0054819 0)
(-0.00255714 -0.00797621 0)
(-0.00368128 -0.0100468 0)
(-0.00464817 -0.0117492 0)
(-0.00545486 -0.0131264 0)
(-0.00610586 -0.0142066 0)
(-0.00662907 -0.0150009 0)
(-0.00706375 -0.0154941 0)
(-0.00733259 -0.0156277 0)
(-0.00815473 -0.0153593 0)
(-0.00916504 -0.0158761 0)
(0.00151036 0.0684414 0)
(0.00372834 0.0594378 0)
(0.00564705 0.0508232 0)
(0.0071738 0.0428861 0)
(0.00819091 0.0354585 0)
(0.00869566 0.0285217 0)
(0.00873911 0.0221087 0)
(0.00839211 0.0162599 0)
(0.00773819 0.0110037 0)
(0.00686611 0.00634606 0)
(0.00586057 0.00227092 0)
(0.00479263 -0.00125503 0)
(0.0037225 -0.00428793 0)
(0.00269674 -0.00687426 0)
(0.0017464 -0.00906001 0)
(0.000891049 -0.0108872 0)
(0.000139989 -0.0123884 0)
(-0.000502982 -0.013582 0)
(-0.00105536 -0.014469 0)
(-0.00157123 -0.0150259 0)
(-0.00187647 -0.0151851 0)
(-0.00282097 -0.0149074 0)
(-0.00390973 -0.0154359 0)
(0.0011572 0.0661997 0)
(0.00341975 0.057139 0)
(0.00553115 0.0488645 0)
(0.0073905 0.0413863 0)
(0.00883133 0.0344459 0)
(0.00981053 0.0279784 0)
(0.0103521 0.0219873 0)
(0.010507 0.0164938 0)
(0.0103409 0.0115154 0)
(0.00992672 0.00705644 0)
(0.00933657 0.00310605 0)
(0.00863433 -0.000359389 0)
(0.00787139 -0.00337798 0)
(0.00709432 -0.00599415 0)
(0.0063351 -0.00823651 0)
(0.00561632 -0.0101349 0)
(0.00495233 -0.0117107 0)
(0.00435099 -0.0129736 0)
(0.00380242 -0.0139177 0)
(0.00329389 -0.0145176 0)
(0.00290313 -0.0147067 0)
(0.00194077 -0.0144388 0)
(0.000871639 -0.0149055 0)
(0.000940346 0.0642187 0)
(0.00320966 0.0548031 0)
(0.00544096 0.0466911 0)
(0.00753523 0.0395591 0)
(0.00929225 0.0330362 0)
(0.0106386 0.0269977 0)
(0.0115757 0.0214105 0)
(0.0121372 0.0162725 0)
(0.0123736 0.0115879 0)
(0.0123447 0.0073568 0)
(0.0121116 0.00357077 0)
(0.0117309 0.000213055 0)
(0.011247 -0.00274032 0)
(0.0107046 -0.00533302 0)
(0.0101336 -0.00757975 0)
(0.00955761 -0.00950038 0)
(0.00899341 -0.0111075 0)
(0.00845474 -0.0124039 0)
(0.00793777 -0.0133782 0)
(0.00740706 -0.0140018 0)
(0.00704078 -0.014208 0)
(0.00609025 -0.0139522 0)
(0.00503905 -0.0143622 0)
(0.000889868 0.0623587 0)
(0.00317424 0.0524357 0)
(0.00550214 0.0443698 0)
(0.00776302 0.0374989 0)
(0.00974325 0.0313347 0)
(0.0113528 0.0256873 0)
(0.0125793 0.0204826 0)
(0.0134444 0.0156929 0)
(0.0139882 0.0113075 0)
(0.0142605 0.00732054 0)
(0.0143135 0.00372406 0)
(0.0141966 0.000506435 0)
(0.0139492 -0.00234679 0)
(0.0136113 -0.00487532 0)
(0.0132097 -0.00708562 0)
(0.0127674 -0.00898837 0)
(0.0123026 -0.0105898 0)
(0.0118301 -0.0118862 0)
(0.0113497 -0.0128631 0)
(0.0108613 -0.013485 0)
(0.0104415 -0.0136836 0)
(0.00958174 -0.0134117 0)
(0.00861873 -0.0138477 0)
(0.00100527 0.0604535 0)
(0.00335212 0.0499995 0)
(0.00578402 0.0419315 0)
(0.0081702 0.0352766 0)
(0.0102989 0.0294346 0)
(0.0120774 0.0241506 0)
(0.0134903 0.0193095 0)
(0.0145553 0.0148571 0)
(0.0153075 0.0107682 0)
(0.015791 0.00703026 0)
(0.016052 0.00363558 0)
(0.0161336 0.000576724 0)
(0.0160704 -0.00215425 0)
(0.0158967 -0.00459039 0)
(0.0156353 -0.00673377 0)
(0.0153065 -0.00858802 0)
(0.014928 -0.010154 0)
(0.0145168 -0.0114244 0)
(0.0140787 -0.012381 0)
(0.013589 -0.0129865 0)
(0.0132195 -0.0131712 0)
(0.0123649 -0.012883 0)
(0.0114096 -0.0133285 0)
(0.00127394 0.058331 0)
(0.00374649 0.0474301 0)
(0.00631616 0.0393796 0)
(0.00880708 0.032941 0)
(0.0110249 0.0274141 0)
(0.0128881 0.0224829 0)
(0.0143903 0.0179933 0)
(0.0155541 0.013867 0)
(0.0164165 0.0100657 0)
(0.0170208 0.00657225 0)
(0.0174098 0.00337984 0)
(0.0176217 0.000485882 0)
(0.0176863 -0.00211181 0)
(0.0176315 -0.00443921 0)
(0.0174747 -0.00649505 0)
(0.0172324 -0.00827809 0)
(0.0169204 -0.0097861 0)
(0.016555 -0.0110103 0)
(0.0161433 -0.01193 0)
(0.0156934 -0.0125097 0)
(0.015277 -0.0126746 0)
(0.0145018 -0.0123787 0)
(0.0136256 -0.0128074 0)
(0.00167746 0.0558303 0)
(0.00435161 0.04465 0)
(0.00710212 0.0366997 0)
(0.00968962 0.0305258 0)
(0.0119471 0.0253404 0)
(0.013818 0.0207719 0)
(0.0153174 0.0166314 0)
(0.0164831 0.0128212 0)
(0.0173611 0.00929414 0)
(0.0179983 0.00603185 0)
(0.0184375 0.00303137 0)
(0.0187133 0.000296961 0)
(0.0188502 -0.00216729 0)
(0.0188687 -0.00437959 0)
(0.0187795 -0.00633567 0)
(0.0185933 -0.00803169 0)
(0.0183227 -0.00946526 0)
(0.0179849 -0.0106274 0)
(0.0175896 -0.0114984 0)
(0.0171233 -0.0120423 0)
(0.0167454 -0.0121846 0)
(0.0159656 -0.0118765 0)
(0.0151191 -0.0122824 0)
(0.00220093 0.0528043 0)
(0.00515041 0.0415768 0)
(0.00813373 0.0338692 0)
(0.010813 0.0280577 0)
(0.0130621 0.0232756 0)
(0.0148646 0.0191009 0)
(0.0162714 0.015317 0)
(0.0173456 0.0118141 0)
(0.0181489 0.00854319 0)
(0.0187368 0.00549025 0)
(0.019154 0.00266083 0)
(0.0194324 6.96235e-05 0)
(0.0195909 -0.00227103 0)
(0.0196408 -0.00437035 0)
(0.0195842 -0.00622122 0)
(0.0194245 -0.0078202 0)
(0.0191707 -0.00916726 0)
(0.018838 -0.0102561 0)
(0.0184372 -0.0110696 0)
(0.0179881 -0.0115701 0)
(0.0175507 -0.011687 0)
(0.0168354 -0.0113719 0)
(0.0160815 -0.0117424 0)
(0.0028329 0.049123 0)
(0.00613201 0.0381273 0)
(0.00939586 0.0308653 0)
(0.0121557 0.0255659 0)
(0.0143408 0.0212845 0)
(0.015994 0.0175543 0)
(0.0172175 0.0141416 0)
(0.0181099 0.0109362 0)
(0.0187546 0.00789684 0)
(0.0192179 0.00502206 0)
(0.0195487 0.00233204 0)
(0.0197766 -0.000143137 0)
(0.0199138 -0.00237927 0)
(0.0199602 -0.00437475 0)
(0.0199066 -0.00612045 0)
(0.0197472 -0.00761618 0)
(0.0194862 -0.00886838 0)
(0.0191394 -0.00987696 0)
(0.0187236 -0.0106281 0)
(0.0182359 -0.0110859 0)
(0.0178194 -0.0111832 0)
(0.0170971 -0.0108638 0)
(0.0163499 -0.0112016 0)
(0.00357556 0.0446664 0)
(0.00728392 0.0342199 0)
(0.0108687 0.0276736 0)
(0.0136806 0.0230926 0)
(0.0157288 0.0194431 0)
(0.0171413 0.0162222 0)
(0.0180894 0.0131967 0)
(0.0187149 0.0102728 0)
(0.0191254 0.00743149 0)
(0.0193991 0.00469319 0)
(0.0195889 0.00209997 0)
(0.0197225 -0.000297093 0)
(0.0198045 -0.00245648 0)
(0.019821 -0.00436338 0)
(0.0197481 -0.00600745 0)
(0.0195684 -0.00739615 0)
(0.0192807 -0.00854717 0)
(0.0189009 -0.00947185 0)
(0.0184497 -0.0101614 0)
(0.0179566 -0.0105836 0)
(0.017472 -0.0106676 0)
(0.0168075 -0.0103628 0)
(0.0161356 -0.010662 0)
(0.00445308 0.0393164 0)
(0.00860245 0.0297818 0)
(0.0125149 0.0243008 0)
(0.0153202 0.0207045 0)
(0.0171352 0.0178453 0)