/*--------------------------------*- C++ -*----------------------------------*\
  =========                 |
  \\      /  F ield         | OpenFOAM: The Open Source CFD Toolbox
   \\    /   O peration     | Website:  https://openfoam.org
    \\  /    A nd           | Version:  13
     \\/     M anipulation  |
\*---------------------------------------------------------------------------*/
FoamFile
{
    format      ascii;
    class       volScalarField;
    location    "0.8";
    object      alphas;
}
// * * * * * * * * * * * * * * * * * * * * * * * * * * * * * * * * * * * * * //

dimensions      [];

internalField   nonuniform List<scalar> 
2268
(
2
2
2
2
2
2
2
2
2
2
2
2
2
2
2
2
2
2
2
2
1.99986
1.99943
1.99943
2
2
2
2
2
2
2
2
2
2
2
2
2
2
2
2
2
2
2
2
1.99998
1.99976
1.99949
2
2
2
2
2
2
2
2
2
2
2
2
2
2
2
2
2
2
2
2
2
2
2
1.89288
1.9074
2
2
2
2
2
2
2
2
2
2
2
2
2
2
2
2
2
2
2
2
2
0.420673
0.571828
0.917327
1.47752
1.90157
2
2
2
2
2
2
2
2
2
2
2
2
2
2
2
2
2
1.99999
5.91439e-07
3.89005e-07
0.00200137
0.104079
0.501875
1.26232
1.85088
2
2
2
2
2
2
2
2
2
2
2
2
2
2
2
1.99997
1.96532e-07
1.48925e-07
2.4923e-07
2.86615e-07
2.68273e-07
0.0332253
0.337039
0.954484
1.56586
1.88423
1.96536
1.97862
1.99194
1.99395
1.98331
1.96662
1.94894
1.92485
1.88256
1.80539
1.65503
1.43618
1.26381
3.22381e-08
3.05533e-08
4.00407e-08
9.06364e-08
1.00401e-07
6.92426e-08
5.8723e-08
0.0034253
0.101392
0.308273
0.605178
0.94133
1.11902
1.16542
1.08907
1.01223
0.945626
0.86005
0.740678
0.582701
0.344598
0.163857
0.0979767
1.05231
1.05489
1.05289
1.05088
1.05758
1.05997
1.09138
1.23406
1.48333
1.5345
1.50159
1.36661
1.29232
1.30784
1.37899
2.12035
2.71928
2.71865
2.65206
1.06892
1.0875
1.13077
1.3071
1.30415
1.26772
1.41866
1.70136
1.79749
1.79414
1.79892
1.81006
1.82129
1.83252
1.49443
1.99794
2.71865
2.62591
2.18613
1.28191
1.26623
1.20115
1.07457
0.92034
0.895585
0.765171
0.58972
0.590507
0.694573
0.934141
1.22426
1.54467
1.69895
1.75951
2.22913
2.67578
2.52856
2.01502
1.30147
1.3379
0.683782
0.235965
0.125384
0.107629
0.0185359
0.000610434
0.000608191
0.000548606
0.00507674
0.0409172
0.092065
0.679966
1.57054
2.45644
2.58658
2.20766
2.02172
0.878092
0.494561
0.330184
0.0104483
0.000501222
0.000414216
0.000396258
0.000396985
0.000327926
0.000296442
0.000300023
0.00375809
0.00339562
0.173786
1.26395
2.45558
2.53788
2.01539
2.13716
0.423555
0.279922
0.000672856
0.000805843
0.000609897
0.000428941
0.000359884
0.000345655
0.000311679
0.000317404
0.000308583
0.000678962
0.000815382
0.00168666
1.01673
1.98289
2.50068
1.74963
1.89579
0.0948033
0.00232717
0.000884589
0.00630609
0.0105568
0.00809361
0.0117322
0.0163994
0.0196666
0.0176351
0.000629753
0.000429196
0.00041261
0.00062496
0.780202
1.8815
1.94653
1.69295
1.65644
0.0253201
0.053357
0.384947
0.27737
0.347571
0.42112
0.463353
0.496374
0.518195
0.523067
0.400756
0.108979
0.000607908
0.000766798
0.185998
1.68723
1.73628
1.49907
1.6684
2.78568e-09
3.67872e-09
5.0963e-09
1.855e-08
1.26281e-08
8.59812e-09
1.22701e-08
9.49943e-09
1.23691e-08
1.2344e-08
3.68994e-09
6.93962e-10
7.43499e-09
9.6843e-09
0.0528465
0.0778128
0.0773291
0.0565698
0.0286296
0.00147154
2.97332e-06
8.25339e-06
1.56157e-05
1.87439e-09
1.90333e-09
1.95471e-09
2.12864e-09
2.34115e-09
2.55325e-09
2.61832e-09
2.60201e-09
2.58593e-09
2.05841e-09
1.54467e-09
1.28271e-09
1.20576e-09
1.59844e-09
3.26629e-09
6.61133e-09
7.92994e-09
1.37825e-08
8.89465e-08
7.09013e-07
3.22121e-06
6.37952e-06
8.01307e-06
1.84664e-09
1.84766e-09
1.84671e-09
1.84377e-09
1.84512e-09
1.84804e-09
2.13834e-09
3.08456e-09
4.82234e-09
5.9408e-09
5.65628e-09
3.20142e-09
2.17868e-09
1.76387e-09
1.92317e-09
1.51069e-09
3.28516e-09
4.28412e-09
1.40629e-08
1.92229e-08
3.56164e-06
0.00308926
0.233709
1.84343e-09
1.84351e-09
1.84346e-09
1.84361e-09
1.84362e-09
1.8447e-09
1.84468e-09
1.84449e-09
1.84528e-09
1.84834e-09
1.85661e-09
1.91273e-09
2.26062e-09
0.000374538
0.0109694
0.0349455
0.0709107
0.123915
0.174665
0.193143
0.449683
2.16978
2.83917
1.84351e-09
1.84343e-09
3.61442e-08
0.0196152
0.0683583
0.113706
0.150093
0.172029
0.196509
0.253921
0.445408
0.682912
0.955918
1.24696
1.46102
1.59562
1.6494
1.64945
1.73933
2.01833
2.20655
1.51273
1.00453
0.892603
1.23435
1.62651
1.8962
2.06175
2.19269
2.30987
2.44188
2.61358
2.78921
2.88352
2.95084
3
3
2.99691
2.99322
2.99505
2.99068
2.96338
1.79809
1.00001
1.00834
1
2.88842
2.96643
2.99842
3
3
3
3
3
3
3
3
3
3
3
3
3
3
2.99999
2.83598
1.25382
0.999865
1
1
3
3
3
3
3
3
3
3
3
3
3
3
3
3
3
3
3
3
3
2.7142
1.29347
1
1
3
3
3
3
3
3
3
3
3
3
3
3
3
3
3
3
3
3
3
3
2.98948
2.60392
1.4048
3
3
3
3
3
3
3
3
3
3
3
3
3
3
3
3
2.99999
3
3
3
3
3
3
3
3
3
3
3
3
3
3
3
3
3
3
3
3
3
3
3
2.99997
3
3
3
3
3
3
3
3
3
3
3
3
3
3
3
3
3
3
3
3
3
3
2.99998
2.99973
2.99962
2.99983
3
3
3
3
3
3
3
3
3
3
3
3
3
3
3
3
3
3
3
3
2.99979
2.99952
2.99951
2.99971
3
3
3
3
3
3
3
3
3
3
3
3
3
3
3
3
3
3
3
2.99998
2.99972
2.99953
2.99971
2.99999
3
3
3
3
3
3
3
3
3
3
3
3
3
3
3
3
3
3
3
3
2.99994
2.99998
2.99998
3
3
3
3
3
3
3
3
3
3
3
3
3
3
3
3
3
3
3
3
3
3
2.99999
3
3
3
3
3
3
3
3
3
3
3
3
3
3
3
3
3
3
3
3
3
3
3
3
3
3
3
3
3
3
3
3
3
3
3
3
3
3
3
3
3
3
3
3
3
3
3
3
3
3
3
3
3
3
3
3
3
3
3
3
3
3
3
3
3
3
3
3
3
3
3
3
3
3
3
3
3
3
3
3
3
3
3
3
3
3
3
3
3
3
3
3
3
3
3
3
3
3
3
3
3
3
3
3
3
3
3
3
3
3
3
3
3
3
3
3
3
3
3
3
3
3
3
3
3
3
3
3
3
3
3
3
3
3
3
3
3
3
3
3
3
3
3
3
3
3
3
3
3
3
3
3
3
3
3
3
3
3
3
3
3
3
3
3
3
3
3
3
3
3
3
3
3
3
3
3
3
3
3
3
3
3
3
3
3
3
3
3
3
3
3
3
3
3
3
3
3
3
3
3
3
3
3
3
3
3
3
3
3
3
3
3
3
3
3
3
3
3
3
3
3
3
3
3
3
3
3
3
3
3
3
3
3
3
3
3
3
3
3
3
3
3
3
3
3
3
3
3
3
3
3
3
3
3
3
3
3
3
3
3
3
3
3
3
3
3
3
3
3
3
3
3
3
3
3
3
3
3
3
3
3
3
3
3
3
3
3
3
3
3
3
3
3
3
3
3
3
3
3
3
3
3
3
3
3
3
3
3
3
3
3
3
3
3
3
3
3
3
3
3
3
3
3
3
3
3
3
3
3
3
3
3
3
3
3
3
3
3
3
3
3
3
3
3
3
3
3
3
3
3
3
3
3
3
3
3
3
3
3
3
3
3
3
3
3
3
3
3
3
3
3
3
3
3
3
3
3
3
3
3
3
3
3
3
3
3
3
3
3
3
3
3
3
3
3
3
3
3
3
3
3
3
3
3
3
3
3
3
3
3
3
3
3
3
3
3
3
3
3
3
3
3
3
3
3
3
3
3
3
3
3
3
3
3
3
3
3
3
3
3
3
3
3
3
3
3
3
3
3
3
3
3
3
3
3
3
3
3
3
3
3
3
3
3
3
3
3
3
3
3
3
3
3
3
3
3
3
3
3
3
3
3
3
3
3
3
3
3
3
3
3
3
3
3
3
3
3
3
3
3
3
3
3
3
3
3
3
3
3
3
3
3
3
3
3
3
3
3
3
3
3
3
3
3
3
3
3
3
3
3
3
3
3
3
3
3
3
3
3
3
3
3
3
3
3
3
3
3
3
3
3
3
3
3
3
3
3
3
3
3
3
3
3
3
3
3
3
3
3
3
3
3
3
3
3
3
3
3
3
3
3
3
3
3
3
3
3
3
3
3
3
3
3
3
3
3
3
3
0.196639
0.355339
0.434795
0.514093
0.0178911
0.225653
0.846962
1.79188
2.00043
2.50577
2.59408
2.41143
2.4386
1.00369
1
1
1.00097
1
1
1
1
1
1
1
1
1
1
1
1
1
1
1
1.39184
1.53566
1.16249
1
3
3
2.59761
2.15971
3
3
3
3
3
3
3
3
3
3
2.99999
2.99999
3
2.99999
2.99998
2.99998
2.99999
2.99998
2.99998
2.99998
2.99998
2.99998
2.99998
2.99998
3
2.99999
2.99999
2.99999
3
3
3
3
3
3
3
3
3
3
3
3
3
3
3
3
3
3
3
3
3
3
3
3
3
3
3
3
3
3
3
3
3
3
3
3
3
3
3
3
3
3
3
3
3
3
3
3
3
3
3
3
3
3
3
3
3
3
3
3
3
3
3
3
3
3
3
3
3
3
3
3
3
3
3
3
3
3
3
3
3
3
3
3
3
3
3
3
3
3
3
3
3
3
3
3
3
3
3
3
0.744535
1.0574
1.22246
0.974976
0.96339
0.983652
0.975559
0.980638
0.986368
0.979726
0.952728
0.827538
0.380538
0.000639077
0.0307217
0.900871
1.11776
0.862141
1.80172
1.98542
2.0519
1.40647
1.0039
1.00134
1.00244
1
1
1.00011
1.00012
1.00007
1.00034
0.980896
0.508812
0.0359133
0.181154
0.234049
0.870221
1.79733
1.5919
1
1
1
1
1
1
1
1
1
1
1
1
0.991049
0.556155
0.106947
0.187782
1.13594
1.67043
1
1
1
1
1
1
1
1
1
1
1
1
1.00077
1.00348
0.990496
0.748823
0.803342
1.07779
1.36755
1
1
1
1
1
1
1
1
1
1
1
1
1.00008
1.03142
1.04687
0.987164
0.99084
1.03393
1.81931
1
1
1
1.00003
1.00005
1.00001
1
1
1
1
1
1
1
1.00281
1.14406
1.21068
1.00835
1.16071
2.45546
1
1
1.00005
1.00029
1.00027
1.00008
1
1
1
1
1
1
1
1.00002
1.01555
1.42853
1.81546
2.03676
2.72406
1
1
1.00009
1.00027
1.00028
1.00006
1
1
1
1
1
1
1
1
1
1.06133
1.54867
1.93973
2.77711
1.00101
1
1
1
1.00001
1
1
1
1
1
1
1
1
1
1
1.00002
1.61293
2.56039
2.77848
1.83767
1.44318
1.11834
1.00467
1
1
1
1
1
1
1
1
1
1
1
1.01488
1.47046
1.7979
1.93215
3
2.99708
2.49022
1.93087
1.42462
1.12145
1.01105
1
1
1
1
1
1
1
1
1
1.00201
1.07568
1.23503
3
3
3
3
2.95429
2.51981
2.03644
1.55056
1.25361
1.08842
1.02132
1.0054
1.0034
1.02415
1.14835
1.42566
2.02437
2.62072
2.8959
3
3
3
3
3
3
3
3
2.7449
2.45354
2.20042
2.06559
2.03678
2.28156
2.71656
2.9771
2.99651
2.99696
2.99651
2.99999
3
3
3
3
3
3
3
3
3
3
3
3
3
3
3
2.98244
2.96948
2.98724
2.99999
3
3
3
3
3
2.99999
3
3
3
3
3
3
3
3
2.99209
2.9552
2.95616
2.97729
2.99998
2.99999
3
3
3
3
2.99999
2.99999
2.99999
3
3
3
2.99999
3
3
2.99741
2.99643
2.99542
2.99999
2.99998
2.99999
3
3
3
3
3
2.99999
2.99999
2.99999
3
2.99999
2.99998
2.99998
2.99998
2.99999
2.99999
2.99999
2.99999
3
3
3
3
3
3
3
3
3
2.99999
2.99999
3
3
3
3
2.99998
2.99979
2.99969
2.99999
3
3
3
3
3
3
3
3
3
3
3
3
3
3
3
3
3
2.99967
2.99999
3
3
3
3
3
3
3
3
3
3
3
3
3
3
3
3
3
2.99988
3
3
3
3
3
3
3
3
3
3
3
3
3
3
3
3
3
3
3
3
3
3
3
3
3
3
3
3
3
3
3
3
3
3
3
3
3
3
3
3
3
3
3
3
3
3
3
3
3
3
3
3
3
3
3
3
3
3
3
3
3
3
3
3
3
3
3
3
3
3
3
3
3
3
3
3
3
3
3
3
3
3
3
3
3
3
3
3
3
3
3
3
3
3
3
3
3
3
3
3
3
3
3
3
3
3
3
3
3
3
3
3
3
3
3
3
3
3
3
3
3
3
3
3
3
3
3
3
3
3
3
3
3
3
3
3
3
3
3
3
3
3
3
3
3
3
3
3
3
3
3
3
3
3
3
3
3
3
3
3
3
3
3
3
3
3
3
3
3
3
3
3
3
3
3
3
3
3
3
3
3
3
3
3
3
3
3
3
3
3
3
3
3
3
3
3
3
3
3
3
3
3
3
3
3
3
3
3
3
3
3
3
3
3
3
3
3
3
3
3
3
3
3
3
3
3
3
3
3
3
3
3
3
3
3
3
3
3
3
3
3
3
3
3
3
3
3
3
3
3
3
3
3
3
3
3
3
3
3
3
3
3
3
3
3
3
3
3
3
3
3
3
3
3
3
3
3
3
3
3
3
3
3
3
3
3
3
3
3
3
3
3
3
3
3
3
3
3
3
3
3
3
3
3
3
3
3
3
3
3
3
3
3
3
3
3
3
3
3
3
3
3
3
3
3
3
3
3
3
3
3
3
3
3
3
3
3
3
3
3
3
3
3
3
3
3
3
3
3
3
3
3
3
3
3
3
3
3
3
3
3
3
3
3
3
3
3
3
3
3
3
3
3
3
3
3
3
3
3
3
3
3
3
3
3
3
3
3
3
3
3
3
3
3
3
3
3
3
3
3
3
3
3
3
3
3
3
3
3
3
3
3
3
3
3
3
3
3
3
)
;

boundaryField
{
    leftWall
    {
        type            calculated;
        value           nonuniform List<scalar> 
50
(
2
2
2
1.89288
0.420673
5.91439e-07
1.96532e-07
3.22381e-08
2.78568e-09
1.87439e-09
1.84664e-09
1.84343e-09
1.84351e-09
0.892603
2.88842
3
3
3
3
3
3
3
3
3
3
3
3
3
3
3
3
3
3
3
3
3
3
3
3
3
3
3
3
3
3
3
3
3
3
3
)
;
    }
    rightWall
    {
        type            calculated;
        value           nonuniform List<scalar> 
50
(
2.65206
2.18613
2.01502
2.02172
2.13716
1.89579
1.65644
1.6684
1.80172
1.79733
1.67043
1.36755
1.81931
2.45546
2.72406
2.77711
2.77848
1.93215
1.23503
2.8959
2.99651
2.98724
2.97729
2.99999
2.99999
2.99999
2.99999
3
3
3
3
3
3
3
3
3
3
3
3
3
3
3
3
3
3
3
3
3
3
3
)
;
    }
    lowerWall
    {
        type            calculated;
        value           nonuniform List<scalar> 
62
(
2
2
2
2
2
2
2
2
2
2
2
2
2
2
2
2
2
2
2
2
1.99986
1.99943
1.99943
1.99943
1.99949
2
2
1.99999
1.99997
1.26381
0.0979767
0.196639
0.355339
0.434795
0.514093
1.05231
1.06892
1.28191
1.30147
0.878092
0.423555
0.0948033
0.0253201
1.05231
1.05489
1.05289
1.05088
1.05758
1.05997
1.09138
1.23406
1.48333
1.5345
1.50159
1.36661
1.29232
1.30784
1.37899
2.12035
2.71928
2.71865
2.65206
)
;
    }
    atmosphere
    {
        type            calculated;
        value           nonuniform List<scalar> 
46
(
3
3
3
3
3
3
3
3
3
3
3
3
3
3
3
3
3
3
3
3
3
3
3
3
3
3
3
3
3
3
3
3
3
3
3
3
3
3
3
3
3
3
3
3
3
3
)
;
    }
    defaultFaces
    {
        type            empty;
    }
}


// ************************************************************************* //
