/*--------------------------------*- C++ -*----------------------------------*\
  =========                 |
  \\      /  F ield         | OpenFOAM: The Open Source CFD Toolbox
   \\    /   O peration     | Website:  https://openfoam.org
    \\  /    A nd           | Version:  13
     \\/     M anipulation  |
\*---------------------------------------------------------------------------*/
FoamFile
{
    format      ascii;
    class       volScalarField;
    location    "0.8";
    object      alpha.air;
}
// * * * * * * * * * * * * * * * * * * * * * * * * * * * * * * * * * * * * * //

dimensions      [];

internalField   nonuniform List<scalar> 
2268
(
7.29098e-15
2.90451e-14
2.3156e-14
1.01113e-14
4.74764e-15
2.63458e-15
1.28471e-15
5.60493e-16
1.54599e-16
4.49621e-17
1.0293e-17
2.21627e-18
1.30602e-18
1.47052e-18
2.33434e-18
4.13242e-18
7.02053e-18
1.11504e-17
1.55925e-17
8.87318e-18
9.20915e-18
6.90435e-17
6.09148e-16
3.48223e-14
3.59435e-13
2.36852e-13
9.49456e-14
4.01167e-14
2.06327e-14
1.31294e-14
7.38875e-15
2.98329e-15
1.10478e-15
3.29005e-16
7.0944e-17
2.93114e-17
2.15126e-17
2.98833e-17
5.2154e-17
8.60281e-17
1.45911e-16
2.74802e-16
5.13081e-16
1.91676e-15
4.21729e-15
2.86594e-14
8.08277e-13
3.54656e-12
2.43023e-12
1.17075e-12
5.47694e-13
2.35964e-13
9.36265e-14
3.33742e-14
1.65271e-14
8.51452e-15
3.11149e-15
1.39663e-15
6.13965e-16
2.88209e-16
2.94554e-16
4.44968e-16
5.80879e-16
8.12708e-16
1.48157e-15
8.89363e-15
7.01395e-14
2.14889e-13
6.16348e-13
4.79831e-11
4.6933e-11
2.97218e-11
1.92534e-11
9.9771e-12
4.43974e-12
1.60927e-12
4.09843e-13
1.09638e-13
3.41314e-14
1.34833e-14
1.26269e-14
1.03886e-14
5.90855e-15
5.23045e-15
4.76032e-15
4.2475e-15
4.5825e-15
9.06997e-15
5.49153e-14
3.81198e-13
3.9502e-12
1.93195e-11
2.46108e-10
1.84778e-10
1.32047e-10
8.48731e-11
4.71099e-11
2.5209e-11
1.25174e-11
6.76927e-12
3.29182e-12
1.21088e-12
4.75797e-13
2.61153e-13
1.62038e-13
9.06677e-14
5.40132e-14
2.87503e-14
1.92613e-14
2.32728e-14
7.2087e-14
4.57301e-13
5.53165e-12
1.2858e-11
7.50369e-11
4.19155e-10
3.1856e-10
2.6072e-10
2.04775e-10
1.41463e-10
8.23802e-11
4.24862e-11
2.29554e-11
1.50915e-11
9.38595e-12
4.35193e-12
2.13861e-12
1.09691e-12
5.68397e-13
2.65183e-13
9.84059e-14
6.81762e-14
2.73717e-13
1.15388e-12
9.00697e-12
5.4174e-11
1.19387e-11
1.20303e-11
5.26081e-10
4.24478e-10
3.73384e-10
3.29969e-10
2.64762e-10
1.8544e-10
1.18948e-10
7.03638e-11
4.11562e-11
2.5477e-11
1.61933e-11
1.03127e-11
5.68177e-12
2.34758e-12
8.91116e-13
6.12666e-13
5.53012e-12
2.65309e-11
4.59413e-11
3.01112e-11
1.19411e-11
1.20303e-11
9.26598e-08
5.97797e-10
5.24586e-10
4.91597e-10
4.67523e-10
4.00747e-10
3.21972e-10
2.62222e-10
1.93117e-10
1.32562e-10
8.39706e-11
5.62612e-11
4.10415e-11
2.10767e-11
9.56314e-12
4.49289e-12
2.48978e-11
1.44213e-10
2.8896e-10
2.96768e-10
2.91832e-11
2.65765e-08
4.78948e-07
4.04166e-06
0.00376802
0.00635899
0.00435841
0.000489282
2.4088e-05
2.4126e-05
2.4088e-05
0.00329429
0.021672
0.0224674
0.0224488
0.00840931
0.000111457
0.0159929
0.087
0.461313
0.757029
0.756416
0.689794
0.020372
0.0379421
0.0270865
0.00339822
5.39638e-05
2.78789e-05
5.77702e-05
6.09673e-05
6.14002e-05
6.27949e-05
0.000232026
0.000203001
7.52995e-05
5.11219e-05
2.03429e-05
0.393979
0.756365
0.698042
0.321941
0.13915
0.116521
0.0618515
0.00477566
1.50966e-11
1.1407e-07
0.000101687
0.00029683
0.000306231
0.000302125
0.000229073
0.000139814
4.53083e-05
2.67271e-05
2.39984e-05
0.455433
0.759806
0.723737
0.238663
0.148438
0.141233
0.0533997
0.000121689
3.59247e-10
2.01488e-11
4.14388e-06
7.07245e-05
0.00012505
0.000122561
5.16926e-05
3.67036e-05
5.54314e-05
3.21631e-05
2.31709e-05
0.543391
0.759775
0.590064
0.237752
0.0310773
0.00370308
1.83408e-10
1.07512e-09
2.24471e-05
1.28484e-05
4.6046e-06
5.29553e-07
1.01857e-07
9.92615e-08
1.79141e-07
9.78185e-08
5.30593e-05
3.50828e-05
2.23876e-05
0.579034
0.759808
0.47897
0.23719
6.99958e-08
1.46308e-06
8.24457e-05
0.000253901
0.000157352
6.72134e-05
3.23459e-05
2.55676e-05
8.15004e-07
1.22762e-07
8.57233e-07
1.01974e-07
1.21029e-05
2.10551e-05
2.16716e-05
0.451414
0.744674
0.213857
0.152282
7.11947e-08
0.000774678
0.000294249
0.00210221
0.00351926
0.0021549
0.00149465
0.00110986
0.000708716
0.000286339
0.00011243
3.11338e-05
2.31336e-05
2.56052e-05
0.00366984
0.443253
0.467706
0.0672332
0.0922837
0.00179076
0.0176215
0.128315
0.0734526
0.0359767
0.0226877
0.011003
0.00649428
0.00339607
0.00107211
0.000648402
0.000529657
0.000120547
0.0001588
0.00365287
0.245193
0.257632
0.0131775
0.101179
6.21497e-10
6.13062e-10
6.37081e-10
6.68274e-10
6.35942e-10
5.84479e-10
5.31354e-10
4.03103e-10
3.091e-10
2.48432e-10
2.08855e-10
1.68203e-10
1.41051e-10
1.49243e-10
2.94442e-10
7.3548e-10
1.12788e-09
1.43968e-09
2.63734e-09
1.17461e-08
3.71707e-07
2.17587e-06
2.98039e-06
6.19277e-10
6.23717e-10
6.51571e-10
7.09548e-10
7.80383e-10
8.51082e-10
8.72773e-10
8.67301e-10
7.95687e-10
6.82206e-10
4.92854e-10
4.25952e-10
3.97064e-10
5.22231e-10
1.07014e-09
2.19446e-09
2.62364e-09
4.59278e-09
2.96474e-08
2.35543e-07
9.82318e-07
9.67032e-07
9.87987e-07
6.15514e-10
6.15884e-10
6.15538e-10
6.14476e-10
6.14809e-10
6.15223e-10
7.11957e-10
1.0274e-09
1.60617e-09
1.97628e-09
1.87822e-09
1.03862e-09
6.48593e-10
4.52738e-10
4.85994e-10
4.36949e-10
1.01486e-09
1.36741e-09
7.43329e-10
2.99728e-10
1.45885e-08
0.00102568
0.0779013
6.14476e-10
6.14503e-10
6.14476e-10
6.14503e-10
6.14476e-10
6.14719e-10
6.14724e-10
6.14642e-10
6.1465e-10
6.14568e-10
6.1458e-10
6.14501e-10
6.1458e-10
0.000124846
0.00365647
0.0116485
0.0236368
0.0413042
0.0582209
0.0643809
0.149894
0.723259
0.932671
6.14503e-10
6.14476e-10
1.20481e-08
0.00653839
0.0227861
0.037902
0.0500309
0.0573429
0.0655031
0.0846402
0.148469
0.227637
0.318639
0.415654
0.487007
0.531874
0.549801
0.549814
0.579777
0.671092
0.667812
0.259591
0.00226633
0.297534
0.411448
0.542171
0.632066
0.68725
0.730898
0.769956
0.813961
0.871195
0.929737
0.961173
0.983613
1
1
0.99897
0.997738
0.998351
0.996893
0.986333
0.407971
0.000322126
0.0041718
8.56544e-12
0.962807
0.988811
0.999475
1
1
1
1
1
1
1
1
1
1
1
1
1
0.999999
0.999997
0.918102
0.126911
8.63061e-07
1.10926e-06
1.01326e-10
1
1
1
1
1
1
1
1
1
1
1
1
1
1
1
1
1
1
1
0.857101
0.146734
3.06296e-07
8.92453e-12
1
1
1
1
1
1
1
1
1
1
1
1
1
1
1
0.999999
0.999999
1
1
0.999999
0.994739
0.801962
0.202401
1
1
1
1
1
1
1
1
1
1
1
1
1
1
1
1
0.999997
1
1
1
1
1
1
1
1
1
1
1
1
1
1
1
1
1
1
1
1
1
1
0.999999
0.999986
0.999999
1
1
1
1
1
1
1
1
1
1
1
1
1
1
1
1
1
1
1
1
0.999999
0.999991
0.999866
0.999812
0.999915
1
1
1
1
1
1
1
1
1
1
1
1
1
1
1
1
1
1
1
0.999999
0.999894
0.999759
0.999755
0.999857
1
1
1
1
1
1
1
1
1
1
1
1
1
1
1
1
1
1
1
0.999991
0.999858
0.999763
0.999856
0.999996
1
1
1
1
1
1
1
1
1
1
1
1
1
1
1
1
1
1
1
0.999999
0.999969
0.999989
0.999992
1
1
1
1
1
1
1
1
1
1
1
1
1
1
1
1
1
1
1
1
1
1
0.999996
1
1
1
1
1
1
1
1
1
1
1
1
1
1
1
1
1
1
1
1
1
1
1
1
1
1
1
1
1
1
1
1
1
1
1
1
1
1
1
1
1
1
1
1
1
1
1
1
1
1
1
1
1
1
1
1
1
1
1
1
1
1
1
1
1
1
1
1
1
1
1
1
1
1
1
1
1
1
1
1
1
1
1
1
1
1
1
1
1
1
1
1
1
1
1
1
1
1
1
1
1
1
1
1
1
1
1
1
1
1
1
1
1
1
1
1
1
1
1
1
1
1
1
1
1
1
1
1
1
1
1
1
1
1
1
1
1
1
1
1
1
1
1
1
1
1
1
1
1
1
1
1
1
1
1
1
1
1
1
1
1
1
1
1
1
1
1
1
1
1
1
1
1
1
1
1
1
1
1
1
1
1
1
1
1
1
1
1
1
1
1
1
1
1
1
1
1
1
1
1
1
1
1
1
1
1
1
1
1
1
1
1
1
1
1
1
1
1
1
1
1
1
1
1
1
1
1
1
1
1
1
1
1
1
1
1
1
1
1
1
1
1
1
1
1
1
1
1
1
1
1
1
1
1
1
1
1
1
1
1
1
1
1
1
1
1
1
1
1
1
1
1
1
1
1
1
1
1
1
1
1
1
1
1
1
1
1
1
1
1
1
1
1
1
1
1
1
1
1
1
1
1
1
1
1
1
1
1
1
1
1
1
1
1
1
1
1
1
1
1
1
1
1
1
1
1
1
1
1
1
1
1
1
1
1
1
1
1
1
1
1
1
1
1
1
1
1
1
1
1
1
1
1
1
1
1
1
1
1
1
1
1
1
1
1
1
1
1
1
1
1
1
1
1
1
1
1
1
1
1
1
1
1
1
1
1
1
1
1
1
1
1
1
1
1
1
1
1
1
1
1
1
1
1
1
1
1
1
1
1
1
1
1
1
1
1
1
1
1
1
1
1
1
1
1
1
1
1
1
1
1
1
1
1
1
1
1
1
1
1
1
1
1
1
1
1
1
1
1
1
1
1
1
1
1
1
1
1
1
1
1
1
1
1
1
1
1
1
1
1
1
1
1
1
1
1
1
1
1
1
1
1
1
1
1
1
1
1
1
1
1
1
1
1
1
1
1
1
1
1
1
1
1
1
1
1
1
1
1
1
1
1
1
1
1
1
1
1
1
1
1
1
1
1
1
1
1
1
1
1
1
1
1
1
1
1
1
1
1
1
1
1
1
1
1
1
1
1
1
1
1
1
1
1
1
1
1
1
1
1
1
1
1
1
1
1
1
1
1
1
1
1
1
1
1
1
1
1
1
1
1
1
1
1
1
1
1
1
1
1
1
1
1
1
1
1
1
1
0.000154292
0.00364538
0.0272906
0.0562935
0.00596299
0.0752173
0.27928
0.584366
0.665249
0.795779
0.797038
0.705715
0.7193
0.00184535
5.11562e-08
3.36544e-21
0.000486882
1.13141e-10
1.1309e-10
1.3188e-09
1.01238e-10
1.49473e-09
2.55293e-09
2.3735e-09
2.78479e-10
5.00117e-10
5.00353e-10
5.5325e-10
1.10386e-10
8.92453e-12
5.0705e-10
4.38316e-10
0.19592
0.267831
0.0812439
1.41439e-08
1
1
0.798803
0.579857
1
1
1
1
1
1
1
1
1
0.999999
0.999997
0.999997
1
0.999998
0.999995
0.999995
0.999995
0.999995
0.999995
0.999995
0.999994
0.999994
0.999994
0.999995
0.999999
0.999998
0.999997
0.999996
1
1
1
0.999999
1
1
1
1
1
1
1
1
1
1
1
1
1
1
1
1
1
1
1
1
1
1
1
1
1
1
1
1
1
1
1
1
1
1
1
1
1
1
1
1
1
1
1
1
1
1
1
1
1
1
1
1
1
1
1
1
1
1
1
1
1
1
1
1
1
1
1
1
1
1
1
1
1
1
1
1
1
1
1
1
1
1
1
1
1
1
1
1
1
1
1
1
1
1
1
1
0.225768
0.340912
0.322789
0.117909
0.0425441
0.0292549
0.0114749
0.0064037
0.00278819
0.000514212
0.000462837
0.000596159
0.000418548
0.000133559
0.000903151
3.7421e-05
0.0240141
0.000858974
0.127035
0.588051
0.527944
0.203233
0.00194982
0.000671921
0.00121824
2.87501e-11
1.64783e-10
5.35829e-05
6.15325e-05
3.40284e-05
0.000167116
0.000145286
5.69013e-06
3.54756e-05
3.52639e-05
3.41746e-05
0.00437694
0.0571342
0.295948
2.42936e-06
-3.95423e-12
2.30674e-27
-7.23695e-34
1.49743e-16
2.67952e-09
2.32283e-09
4.07061e-13
2.99932e-13
7.77797e-12
7.93021e-12
3.77205e-08
4.1501e-09
5.81564e-09
3.92975e-05
0.000147985
0.0014092
2.20378e-20
4.77932e-11
1.76747e-15
4.64851e-10
2.92736e-09
6.04452e-09
3.01091e-08
4.46164e-08
4.19374e-08
2.61759e-08
2.61094e-08
2.29827e-08
-1.49135e-10
0.000382832
0.0019718
4.1501e-09
2.23419e-05
5.18211e-05
1.36264e-21
3.1791e-19
2.16015e-09
2.17693e-09
3.42022e-10
1.26245e-09
1.56574e-09
1.73804e-09
3.95101e-08
3.47907e-08
1.60484e-07
7.90362e-07
9.00557e-07
3.24753e-07
4.04344e-05
0.0156644
0.0241776
8.33183e-10
1.47432e-09
5.89288e-05
0.22467
1.811e-09
6.07183e-10
7.89811e-07
1.3496e-05
2.50863e-05
3.69334e-06
4.11973e-09
1.56257e-08
3.21699e-07
1.3134e-06
1.32828e-06
9.07134e-07
1.04636e-07
0.00132125
0.0718948
0.10657
0.00619195
0.0727494
0.562573
5.49251e-10
6.17117e-10
2.37821e-05
0.00014328
0.00013549
3.75423e-05
5.66335e-09
2.5894e-08
3.70659e-08
4.03383e-08
7.00253e-08
8.06569e-08
7.55375e-08
8.0545e-08
0.00772243
0.214188
0.407657
0.511899
0.831605
6.14123e-10
6.14471e-10
4.59775e-05
0.000135497
0.000138604
3.15217e-05
8.68664e-09
1.42354e-08
1.66235e-08
7.77625e-08
8.68244e-07
1.24526e-06
5.11704e-07
1.39154e-07
1.94628e-07
0.0306672
0.274232
0.467101
0.888539
0.000503062
6.15607e-10
2.07786e-09
1.0156e-08
7.41979e-06
3.44588e-09
8.67165e-09
1.41725e-08
1.29259e-08
2.28909e-07
1.99815e-06
2.02372e-06
2.00964e-06
2.39535e-07
1.00785e-07
9.83615e-08
0.30644
0.780175
0.889224
0.418837
0.221591
0.0591695
0.0023359
1.87927e-08
1.47788e-08
1.56874e-08
1.01756e-08
9.68957e-09
1.46325e-08
5.73632e-07
1.90984e-06
1.63898e-06
2.49729e-07
2.45581e-07
0.00743843
0.235228
0.398938
0.466061
1
0.998539
0.745111
0.465437
0.21231
0.0607252
0.00552589
6.81557e-09
2.97229e-09
2.05576e-08
4.37452e-08
9.19477e-08
2.02668e-07
2.32042e-07
2.3449e-07
2.08048e-07
0.00100606
0.0378392
0.117513
1
1
1
1
0.977145
0.759905
0.518218
0.275279
0.126804
0.0442118
0.0106612
0.00269893
0.00169976
0.0120772
0.0741769
0.212828
0.512183
0.81036
0.947952
1
1
1
1
1
1
1
1
0.872452
0.726768
0.600208
0.532793
0.518391
0.640781
0.858282
0.98855
0.998255
0.998478
0.998255
0.999998
1
1
1
1
0.999999
0.999999
0.999999
1
1
1
0.999999
1
1
1
0.999999
0.991221
0.984741
0.993619
0.999995
1
1
1
1
0.999999
0.999997
0.999998
0.999999
1
1
0.999999
0.999999
0.999999
0.999999
0.996046
0.977602
0.978082
0.988643
0.999995
0.999998
1
1
1
0.999999
0.999996
0.999996
0.999997
0.999999
0.999999
0.999998
0.999997
0.999998
0.999999
0.998704
0.998216
0.997711
0.999994
0.999995
0.999998
1
1
1
1
1
0.999997
0.999996
0.999996
0.999998
0.999996
0.999992
0.99999
0.999988
0.999994
0.999994
0.999994
0.999994
0.999999
1
1
1
1
1
1
1
0.999998
0.999996
0.999996
0.999999
1
1
1
0.999988
0.999896
0.999847
0.999994
1
1
1
1
1
1
1
1
1
0.999999
0.999998
0.999999
1
1
1
1
1
0.999836
0.999994
1
1
1
1
1
1
1
1
1
1
1
1
1
1
1
1
1
0.999939
0.999998
1
1
1
1
1
1
1
1
1
1
1
1
1
1
1
1
1
1
1
1
1
1
1
1
1
1
1
1
1
1
1
1
1
1
1
1
1
1
1
1
1
1
1
1
1
1
1
1
1
1
1
1
1
1
1
1
1
1
1
1
1
1
1
1
1
1
1
1
1
1
1
1
1
1
1
0.999999
1
1
1
1
1
1
1
1
1
1
1
1
1
1
1
1
1
1
0.999998
1
1
1
1
1
1
1
1
1
1
1
1
1
1
1
1
1
1
0.999998
1
1
1
1
1
1
1
1
1
1
1
1
1
1
1
1
1
1
0.999998
1
1
1
1
1
1
1
1
1
1
1
1
1
1
1
1
1
0.999999
0.999998
1
1
1
1
1
1
1
1
1
1
1
1
1
1
1
1
1
0.999998
0.999998
1
1
1
1
1
1
1
1
1
1
1
1
1
1
1
1
1
0.999999
0.999999
1
1
1
1
1
1
1
1
1
1
1
1
1
1
1
1
1
1
1
1
1
1
1
1
1
1
1
1
1
1
1
1
1
1
1
1
1
1
1
1
1
1
1
1
1
1
1
1
1
1
1
1
1
1
1
1
1
1
1
1
1
1
1
1
1
1
1
1
1
1
1
1
1
1
1
1
1
1
1
1
1
1
1
1
1
1
1
1
1
1
1
1
1
1
1
1
1
1
1
1
1
1
1
1
1
1
1
1
1
1
1
1
1
1
1
1
1
1
1
1
1
1
1
1
1
1
1
1
1
1
1
1
1
1
1
1
1
1
1
1
1
1
1
1
1
1
1
1
1
1
1
1
1
1
1
1
1
1
1
1
1
1
1
1
1
1
1
1
1
1
1
1
1
1
1
1
1
1
1
1
1
1
1
1
1
1
1
1
1
1
1
1
1
1
1
1
1
1
1
1
1
1
1
1
1
1
1
1
1
1
1
1
1
1
1
1
1
1
1
1
1
1
1
1
1
1
1
1
)
;

boundaryField
{
    leftWall
    {
        type            alphaContactAngle;
        contactAngleProperties 
        {
            mercury         
            {
                theta0          90;
            }
            water           
            {
                theta0          90;
            }
            oil             
            {
                theta0          90;
            }
        }
        value           nonuniform List<scalar> 
50
(
7.29098e-15
3.48223e-14
8.08277e-13
4.79831e-11
2.46108e-10
4.19155e-10
5.26081e-10
5.97797e-10
6.21497e-10
6.19277e-10
6.15514e-10
6.14476e-10
6.14503e-10
0.297534
0.962807
1
1
1
1
1
1
1
1
1
1
1
1
1
1
1
1
1
1
1
1
1
1
1
1
1
1
1
1
1
1
1
1
1
1
1
)
;
    }
    rightWall
    {
        type            alphaContactAngle;
        contactAngleProperties 
        {
            mercury         
            {
                theta0          90;
            }
            water           
            {
                theta0          90;
            }
            oil             
            {
                theta0          90;
            }
        }
        value           nonuniform List<scalar> 
50
(
0.689794
0.321941
0.238663
0.237752
0.23719
0.152282
0.0922837
0.101179
0.127035
0.0571342
2.20378e-20
3.1791e-19
0.22467
0.562573
0.831605
0.888539
0.889224
0.466061
0.117513
0.947952
0.998255
0.993619
0.988643
0.999994
0.999994
0.999994
0.999994
0.999998
1
1
1
0.999999
0.999998
0.999998
0.999998
0.999998
0.999998
0.999999
1
1
1
1
1
1
1
1
1
1
1
1
)
;
    }
    lowerWall
    {
        type            alphaContactAngle;
        contactAngleProperties 
        {
            mercury         
            {
                theta0          90;
            }
            water           
            {
                theta0          90;
            }
            oil             
            {
                theta0          90;
            }
        }
        value           nonuniform List<scalar> 
62
(
7.29098e-15
2.90451e-14
2.3156e-14
1.01113e-14
4.74764e-15
2.63458e-15
1.28471e-15
5.60493e-16
1.54599e-16
4.49621e-17
1.0293e-17
2.21627e-18
1.30602e-18
1.47052e-18
2.33434e-18
4.13242e-18
7.02053e-18
1.11504e-17
1.55925e-17
8.87318e-18
9.20915e-18
6.90435e-17
6.09148e-16
6.09148e-16
2.86594e-14
6.16348e-13
1.93195e-11
7.50369e-11
1.20303e-11
9.26598e-08
4.04166e-06
0.000154292
0.00364538
0.0272906
0.0562935
0.00376802
0.020372
0.13915
0.148438
0.0310773
6.99958e-08
7.11947e-08
0.00179076
0.00376802
0.00635899
0.00435841
0.000489282
2.4088e-05
2.4126e-05
2.4088e-05
0.00329429
0.021672
0.0224674
0.0224488
0.00840931
0.000111457
0.0159929
0.087
0.461313
0.757029
0.756416
0.689794
)
;
    }
    atmosphere
    {
        type            inletOutlet;
        inletValue      uniform 1;
        value           nonuniform List<scalar> 
46
(
1
1
1
1
1
1
1
1
1
1
1
1
1
1
1
1
1
1
1
1
1
1
1
1
1
1
1
1
1
1
1
1
1
1
1
1
1
1
1
1
1
1
1
1
1
1
)
;
    }
    defaultFaces
    {
        type            empty;
    }
}


// ************************************************************************* //
