/*--------------------------------*- C++ -*----------------------------------*\
  =========                 |
  \\      /  F ield         | OpenFOAM: The Open Source CFD Toolbox
   \\    /   O peration     | Website:  https://openfoam.org
    \\  /    A nd           | Version:  13
     \\/     M anipulation  |
\*---------------------------------------------------------------------------*/
FoamFile
{
    format      ascii;
    class       volScalarField;
    location    "0.8";
    object      alpha.mercury;
}
// * * * * * * * * * * * * * * * * * * * * * * * * * * * * * * * * * * * * * //

dimensions      [];

internalField   nonuniform List<scalar> 
2268
(
1
1
1
1
1
1
1
1
1
1
1
1
1
1
1
1
1
1
1
1
0.999864
0.999431
0.999431
1
1
1
1
1
1
1
1
1
1
1
1
1
1
1
1
1
1
1
1
0.999983
0.999763
0.999486
1
1
1
1
1
1
1
1
1
1
1
1
1
1
1
1
1
1
1
1
0.999999
1
1
0.94644
0.9537
1
1
1
1
1
1
1
1
1
1
1
1
1
1
1
1
1
1
1
1
1
0.210337
0.285914
0.458664
0.738759
0.950785
1
1
1
1
1
1
1
1
1
1
1
1
1
1
1
1
0.999997
0.999985
2.95091e-07
1.94024e-07
0.00100069
0.0520394
0.250938
0.631158
0.925439
1
1
1
1
1
1
1
1
1
1
1
0.999999
0.999999
1
0.999995
0.999974
9.7477e-08
7.38257e-08
1.24055e-07
1.42813e-07
1.33739e-07
0.0166126
0.168519
0.477242
0.782928
0.942115
0.982678
0.98931
0.995971
0.996973
0.991656
0.98331
0.974471
0.962422
0.941276
0.90269
0.827512
0.718088
0.631894
1.52224e-08
1.44898e-08
1.9283e-08
4.46169e-08
4.95993e-08
3.41383e-08
2.89682e-08
0.00171265
0.0506962
0.154136
0.302589
0.470665
0.559511
0.582708
0.544534
0.506115
0.472813
0.430024
0.370335
0.291347
0.172296
0.0819262
0.0489727
0.0447745
0.0421686
0.0441709
0.049897
0.0575351
0.0599179
0.0913277
0.227473
0.439994
0.489573
0.456689
0.349788
0.292094
0.276032
0.205096
0.197734
0.205254
0.205856
0.272495
0.0281765
0.0116177
0.0765954
0.316172
0.383752
0.386127
0.515595
0.78044
0.876915
0.878681
0.878596
0.874318
0.873838
0.861811
0.494632
0.209992
0.205929
0.229835
0.542251
0.00361195
0.0331896
0.21305
0.460821
0.460168
0.44779
0.382431
0.294413
0.294792
0.346831
0.466725
0.61192
0.772265
0.848363
0.8128
0.32528
0.156614
0.081084
0.537695
0.00458941
0.202866
0.223743
0.117798
0.0626902
0.0538106
0.00925777
0.000172824
6.18725e-05
7.32852e-06
0.0020748
0.0184526
0.0446523
0.339879
0.773427
0.399488
0.0682118
0.0275321
0.546217
0.212077
0.211777
0.165092
0.0052194
0.000161827
9.37027e-05
9.25384e-05
9.96769e-05
3.15543e-05
1.01161e-08
3.4697e-06
-2.80245e-20
-7.31681e-20
0.0867873
0.602009
0.344158
0.0193741
0.057447
0.66278
0.211777
0.139959
0.000212759
3.51647e-06
1.83928e-10
2.88633e-11
2.97581e-11
2.88488e-11
1.36554e-05
1.82284e-05
9.2998e-06
-2.913e-24
-9.72438e-15
0.000756382
0.402384
0.107157
0.011356
0.321912
0.668269
0.0474008
1.48317e-06
1.39042e-07
1.44827e-07
1.57046e-07
3.18453e-08
2.93329e-09
1.92761e-10
1.95141e-10
1.42835e-06
3.20117e-06
1.25928e-06
5.92846e-08
0.000206965
0.278279
0.0148372
0.0111191
0.55848
0.668542
0.00997296
0.000246269
1.48264e-06
1.58944e-06
4.83123e-07
6.86142e-08
1.26453e-07
4.68761e-08
2.23426e-10
2.26433e-10
1.34777e-07
2.59692e-07
6.67232e-08
8.18658e-05
0.060898
0.214793
0.221012
0.657336
0.670701
4.60595e-10
9.19768e-10
1.59253e-09
8.27257e-09
5.36016e-09
3.42234e-09
5.33804e-09
4.14506e-09
5.72089e-09
5.79933e-09
1.53168e-09
9.43049e-11
3.5029e-09
4.60795e-09
0.0264232
0.0389064
0.0386645
0.0282847
0.0143131
0.000733191
-9.37058e-13
1.11361e-13
1.61823e-06
8.27775e-12
1.60903e-11
1.73558e-16
3.36801e-16
1.92842e-16
3.36801e-16
1.13443e-15
5.44655e-14
9.94347e-11
5.89626e-12
3.30433e-11
2.00897e-12
4.20077e-12
5.66828e-12
4.42992e-12
3.04408e-12
8.71761e-13
-2.47578e-28
0
-4.48901e-29
-2.97147e-11
-2.99333e-11
-1.92675e-23
4.7782e-14
4.24351e-15
4.63441e-14
1.71996e-13
3.44965e-13
1.18474e-12
1.23175e-12
1.17609e-12
1.91154e-12
5.95033e-12
1.06893e-11
3.86189e-11
8.47504e-11
1.16231e-10
1.10054e-10
7.41267e-11
4.93869e-11
5.78405e-11
6.47677e-11
1.09053e-10
2.73906e-10
4.75501e-10
1.01601e-09
2.59437e-15
1.13548e-15
1.3032e-14
5.31145e-14
9.53009e-14
2.66517e-13
2.24026e-13
1.6272e-13
1.89864e-13
5.23252e-13
8.97184e-14
1.65585e-13
2.3524e-13
2.495e-13
2.23843e-13
1.28694e-12
5.2101e-12
3.37568e-11
5.83662e-11
8.10341e-11
3.20135e-10
2.23321e-09
4.24316e-09
5.13721e-17
1.71488e-16
2.26886e-15
9.80966e-15
1.52286e-14
3.2147e-14
1.94848e-14
1.07173e-14
1.43779e-14
1.45101e-14
4.36099e-16
6.47956e-16
1.11223e-15
1.26128e-15
4.79723e-16
3.07597e-15
3.85e-14
1.25374e-12
2.63156e-11
1.15366e-09
5.06797e-09
7.49268e-09
7.68217e-09
9.42971e-19
6.70435e-18
4.26161e-17
1.84353e-16
1.99781e-16
2.29074e-16
6.33377e-17
2.12084e-17
2.15929e-17
2.42036e-18
1.1906e-21
2.46068e-21
6.37924e-20
2.1922e-18
8.88076e-18
1.365e-16
2.78226e-14
4.69806e-11
1.13482e-09
3.3117e-09
3.89686e-09
3.37358e-09
1.67921e-09
2.50533e-21
2.89916e-21
5.48335e-20
1.98084e-19
1.15233e-19
5.01968e-20
4.02175e-21
7.77123e-22
2.3418e-22
1.26695e-22
3.87449e-22
2.06504e-18
3.49576e-16
8.69361e-15
1.25209e-13
1.37495e-12
3.28251e-11
4.18002e-10
1.99267e-09
2.73221e-09
1.97124e-09
6.61871e-10
3.77585e-10
1.15108e-25
2.43449e-23
2.61083e-21
7.49746e-21
3.26488e-21
9.68345e-22
5.84331e-23
8.93838e-24
8.18787e-23
2.34928e-20
2.58793e-18
1.22739e-16
2.6581e-15
3.32397e-14
3.25412e-13
1.56761e-12
2.79462e-11
4.143e-10
1.43676e-09
1.58818e-09
6.47855e-10
1.39292e-10
5.70567e-11
-3.46205e-24
-3.76438e-25
7.16574e-23
1.92685e-22
6.12444e-23
1.11735e-23
7.29187e-25
1.58472e-24
6.00452e-21
5.95099e-19
2.99603e-17
6.80283e-16
7.97188e-15
7.52939e-14
8.77399e-13
7.05299e-12
1.0182e-10
3.17258e-10
9.63933e-10
1.13945e-09
4.45334e-10
4.90516e-11
2.66235e-11
-2.25523e-24
-2.18209e-24
9.57468e-25
4.95407e-24
1.27527e-24
1.34055e-25
1.24855e-26
9.83804e-24
8.50461e-21
5.63285e-19
2.50587e-17
5.96177e-16
7.84491e-15
6.80658e-14
6.91604e-13
8.78946e-12
8.18667e-11
3.31922e-10
7.50648e-10
9.8102e-10
6.2819e-10
1.67947e-10
1.68541e-11
-8.84883e-25
-9.1967e-25
-4.06638e-25
1.05224e-26
1.38866e-26
7.79586e-28
1.06738e-27
3.93887e-23
5.00339e-21
3.17143e-19
1.14378e-17
2.45552e-16
3.24892e-15
2.81192e-14
2.65709e-13
3.43719e-12
3.03937e-11
2.62122e-10
7.09349e-10
9.74001e-10
7.97757e-10
2.21195e-10
3.00422e-11
-2.50219e-25
-2.62553e-25
-1.50238e-25
-4.27293e-26
-7.05778e-27
-7.70941e-28
4.90246e-29
4.39492e-24
7.5024e-22
6.28082e-20
2.84988e-18
7.41672e-17
1.15915e-15
1.12592e-14
8.03183e-14
8.86159e-13
1.07524e-11
9.29348e-11
5.20974e-10
8.42966e-10
7.67613e-10
3.03981e-10
6.00397e-11
-5.37328e-26
-5.79317e-26
-3.47334e-26
-1.06666e-26
-1.90998e-27
-2.17727e-28
1.15274e-30
3.91079e-25
8.93684e-23
9.29133e-21
5.19105e-19
1.66476e-17
3.18928e-16
3.78285e-15
2.97187e-14
2.13727e-13
2.28438e-12
1.2028e-11
1.85943e-10
4.87072e-10
5.26393e-10
2.72289e-10
9.36079e-11
-9.03294e-27
-1.02192e-26
-6.21365e-27
-1.94521e-27
-3.61841e-28
-4.35828e-29
7.62241e-33
2.34612e-26
7.53629e-24
9.78059e-22
6.8148e-20
2.76979e-18
6.79442e-17
1.02299e-15
9.83872e-15
6.94226e-14
5.65523e-13
3.51081e-12
1.74184e-11
1.343e-10
1.70087e-10
1.49898e-10
9.80482e-11
-1.21713e-27
-1.46894e-27
-9.03741e-28
-2.87273e-28
-5.51523e-29
-6.9755e-30
-5.93252e-31
7.28545e-28
3.82891e-25
7.19345e-23
6.18401e-21
3.17743e-19
1.01437e-17
2.02405e-16
2.54387e-15
2.10821e-14
1.53149e-13
9.3765e-13
3.30872e-12
1.04685e-11
1.94588e-11
4.11849e-11
6.35438e-11
-1.34214e-28
-1.74872e-28
-1.09251e-28
-3.53383e-29
-6.99862e-30
-9.27402e-31
-8.62639e-32
1.17299e-29
1.43812e-26
3.88594e-24
4.05224e-22
2.54558e-20
1.03332e-18
2.72142e-17
4.62402e-16
5.34546e-15
4.17283e-14
2.4546e-13
1.2237e-12
3.05796e-12
3.81907e-12
6.40131e-12
3.1368e-11
-1.23492e-29
-1.75e-29
-1.11458e-29
-3.67971e-30
-7.52877e-31
-1.04558e-31
-1.04105e-32
1.59137e-31
4.08184e-28
1.55434e-25
2.04352e-23
1.5208e-21
7.6514e-20
2.72077e-18
6.48867e-17
1.03301e-15
1.00279e-14
6.42561e-14
3.18764e-13
1.01959e-12
1.82857e-12
2.62321e-12
5.19374e-12
-9.65391e-31
-1.49244e-30
-9.71502e-31
-3.28188e-31
-6.94948e-32
-1.01234e-32
-1.07793e-33
1.2321e-33
1.14838e-29
6.37048e-27
1.05245e-24
9.08588e-23
5.24847e-21
2.26947e-19
7.09814e-18
1.51686e-16
1.92704e-15
1.58112e-14
5.92451e-14
2.76241e-13
5.93282e-13
4.99072e-13
9.46738e-13
-6.51814e-32
-1.09817e-31
-7.31128e-32
-2.53068e-32
-5.55224e-33
-8.486e-34
-9.64689e-35
-6.16325e-36
2.91146e-31
2.50933e-28
5.38136e-26
5.48388e-24
3.56138e-22
1.71071e-20
6.38848e-19
1.7469e-17
3.07508e-16
3.10766e-15
1.02138e-14
5.7412e-14
1.27078e-13
1.59909e-13
1.34835e-13
-3.85657e-33
-7.04934e-33
-4.79452e-33
-1.70027e-33
-3.86484e-34
-6.19247e-35
-7.49451e-36
-6.58285e-37
6.20773e-33
8.96255e-30
2.58088e-27
3.22161e-25
2.40849e-23
1.25429e-21
5.11966e-20
1.6598e-18
3.90522e-17
4.4917e-16
1.99018e-15
9.81362e-15
2.39789e-14
2.38927e-14
2.80173e-14
-2.02472e-34
-3.98661e-34
-2.76202e-34
-1.00199e-34
-2.35638e-35
-3.94969e-36
-5.06872e-37
-5.04395e-38
1.0772e-34
2.81603e-31
1.11103e-28
1.74351e-26
1.5587e-24
9.12385e-23
3.96809e-21
1.39847e-19
3.83165e-18
4.98096e-17
3.16083e-16
1.48262e-15
4.30515e-15
6.47306e-15
7.32473e-15
-9.53303e-36
-2.00371e-35
-1.40803e-35
-5.21009e-36
-1.26417e-36
-2.20923e-37
-2.9905e-38
-3.11033e-39
1.4926e-36
7.68268e-33
4.19347e-30
8.36729e-28
9.16177e-26
6.31044e-24
3.04654e-22
1.12195e-20
3.2099e-19
4.87982e-18
3.72206e-17
1.89033e-16
5.81146e-16
8.31837e-16
1.80671e-15
-4.06193e-37
-9.02004e-37
-6.39418e-37
-2.40349e-37
-5.99313e-38
-1.08653e-38
-1.45171e-39
2.03152e-39
5.93129e-38
1.81582e-34
1.37061e-31
3.48755e-29
4.71495e-27
3.92101e-25
2.20205e-23
8.74956e-22
2.57466e-20
4.63893e-19
3.64269e-18
1.85197e-17
5.77922e-17
1.19755e-16
4.06915e-16
-1.57853e-38
-3.66204e-38
-2.60261e-38
-9.88799e-39
-2.51898e-39
-4.27075e-40
1.07415e-39
2.24651e-38
3.71452e-37
9.52223e-36
3.93312e-33
1.24955e-30
2.08298e-28
2.10575e-26
1.40235e-24
6.35534e-23
2.0112e-21
4.17809e-20
3.37522e-19
1.80354e-18
5.20563e-18
7.54333e-18
7.77609e-17
-5.63272e-40
-1.34919e-39
-9.54932e-40
-3.64233e-40
-8.38497e-41
2.65596e-40
6.16656e-39
1.13835e-37
1.85982e-36
2.67179e-35
4.39392e-34
4.2271e-32
7.86377e-30
9.59042e-28
7.50997e-26
4.04135e-24
1.44925e-22
3.42243e-21
3.14165e-20
1.91794e-19
5.16578e-19
1.50631e-18
9.70066e-18
-1.85637e-41
-4.53632e-41
-3.1729e-41
-1.1017e-41
3.14142e-41
8.61917e-40
1.80672e-38
3.32637e-37
5.42449e-36
7.70342e-35
9.63363e-34
1.18013e-32
3.59058e-31
3.76931e-29
3.30565e-27
2.14227e-25
8.98626e-24
2.4353e-22
2.72623e-21
1.76205e-20
5.50972e-20
7.42001e-20
1.40105e-18
-5.67894e-43
-1.3984e-42
-9.09152e-43
1.86009e-42
6.80648e-41
1.68262e-39
3.55471e-38
6.52288e-37
1.05052e-35
1.50543e-34
1.89911e-33
2.15369e-32
2.19864e-31
3.06855e-30
1.33561e-28
9.29623e-27
4.55866e-25
1.42597e-23
2.0139e-22
1.37483e-21
5.32856e-21
1.17416e-20
1.30198e-19
-1.61886e-44
-3.88885e-44
2.8108e-44
2.22745e-42
6.92604e-41
1.75253e-39
3.74716e-38
6.94013e-37
1.12692e-35
1.62005e-34
2.10848e-33
2.45225e-32
2.50789e-31
2.2868e-30
2.13964e-29
4.40588e-28
1.90555e-26
6.68994e-25
1.21242e-23
9.69488e-23
4.32367e-22
3.96301e-22
1.30909e-20
-4.27194e-46
-4.26839e-46
3.79458e-44
1.62191e-42
5.1841e-41
1.34551e-39
2.9122e-38
5.46096e-37
8.97635e-36
1.31674e-34
1.72837e-33
2.01489e-32
2.10394e-31
1.92984e-30
1.55961e-29
1.16649e-28
1.22894e-27
2.84063e-26
5.94907e-25
6.04172e-24
9.56358e-24
4.17992e-23
4.99463e-22
-8.39771e-48
2.85617e-46
2.0007e-44
8.71011e-43
2.87496e-41
7.6061e-40
1.71245e-38
3.31088e-37
5.5826e-36
8.39902e-35
1.11807e-33
1.31651e-32
1.39346e-31
1.28924e-30
1.05214e-29
7.55759e-29
4.81634e-28
3.38253e-27
3.57316e-26
3.75989e-25
1.16154e-24
2.83479e-24
5.83327e-23
6.40918e-49
1.17602e-46
7.87818e-45
3.55452e-43
1.21547e-41
3.34378e-40
7.82177e-39
1.55493e-37
2.69988e-36
4.1721e-35
5.66279e-34
6.78075e-33
7.26858e-32
6.84457e-31
5.75605e-30
4.29373e-29
2.79067e-28
1.66782e-27
1.02737e-26
7.20925e-26
2.76262e-25
1.50949e-24
6.25895e-24
2.5328e-49
3.51493e-47
2.44643e-45
1.13347e-43
4.0138e-42
1.14536e-40
2.69746e-39
5.69288e-38
1.01881e-36
1.61865e-35
2.25651e-34
2.78808e-33
3.058e-32
2.9771e-31
2.60442e-30
2.01721e-29
1.3583e-28
8.49515e-28
5.28922e-27
3.51772e-26
1.75887e-25
8.51738e-25
3.99741e-24
6.01907e-50
8.4084e-48
5.83301e-46
2.95488e-44
1.06e-42
3.1234e-41
7.66114e-40
1.6587e-38
3.03502e-37
4.95815e-36
7.13572e-35
9.03219e-34
1.03251e-32
1.07195e-31
9.69548e-31
7.82852e-30
5.56237e-29
3.75483e-28
2.44717e-27
1.62692e-26
7.43585e-26
4.35957e-25
2.11841e-24
1.16244e-50
1.68317e-48
1.18674e-46
5.49596e-45
2.302e-43
6.96745e-42
1.76555e-40
3.66714e-39
7.34425e-38
1.22454e-36
1.845e-35
2.39178e-34
2.88876e-33
2.8676e-32
2.84864e-31
2.46761e-30
1.91609e-29
1.31206e-28
9.01518e-28
5.91782e-27
3.00856e-26
1.65163e-25
8.78796e-25
1.90019e-51
2.53831e-49
1.85636e-47
9.97597e-46
3.60583e-44
1.1228e-42
2.92887e-41
7.10878e-40
1.39981e-38
2.51112e-37
3.68784e-36
5.31014e-35
6.52981e-34
7.45984e-33
7.45122e-32
6.42666e-31
5.49496e-30
3.99331e-29
2.84365e-28
1.89424e-27
9.69734e-27
5.74957e-26
3.31514e-25
2.66809e-52
3.91494e-50
2.93037e-48
1.51365e-46
5.77752e-45
1.83649e-43
4.88992e-42
1.13579e-40
2.29518e-39
4.11434e-38
6.59459e-37
1.00345e-35
1.29018e-34
1.53833e-33
1.61035e-32
1.50433e-31
1.32815e-30
1.0387e-29
7.65619e-29
5.33403e-28
3.10203e-27
1.91914e-26
1.04203e-25
3.2924e-53
5.04645e-51
3.83645e-49
1.99747e-47
7.86756e-46
2.54439e-44
6.90174e-43
1.60283e-41
3.36474e-40
6.20795e-39
1.04621e-37
1.64418e-36
2.22325e-35
2.74059e-34
3.02072e-33
3.02747e-32
2.79483e-31
2.34296e-30
1.83577e-29
1.35804e-28
8.87312e-28
5.76611e-27
3.80152e-26
3.69464e-54
5.79713e-52
4.43359e-50
2.34935e-48
9.44906e-47
3.10436e-45
8.56622e-44
2.05107e-42
4.42785e-41
8.44292e-40
1.48544e-38
2.40144e-37
3.40674e-36
4.39176e-35
5.13454e-34
5.49955e-33
5.42812e-32
4.96821e-31
4.23413e-30
3.44783e-29
2.57171e-28
1.89226e-27
1.2922e-26
3.92025e-55
6.09291e-53
4.62106e-51
2.47271e-49
1.00966e-47
3.38545e-46
9.58588e-45
2.39244e-43
5.32682e-42
1.0564e-40
1.95052e-39
3.28591e-38
4.92329e-37
6.75241e-36
8.51255e-35
9.94046e-34
1.08412e-32
1.08936e-31
1.07976e-30
9.74952e-30
8.53184e-29
6.79523e-28
5.00235e-27
3.38305e-56
5.92624e-54
4.38998e-52
2.34698e-50
9.66081e-49
3.30003e-47
9.61334e-46
2.50587e-44
5.83619e-43
1.22571e-41
2.4083e-40
4.32246e-39
7.02509e-38
1.06111e-36
1.50105e-35
2.00414e-34
2.53848e-33
3.02921e-32
3.44777e-31
3.59381e-30
3.52764e-29
2.97748e-28
2.23801e-27
3.35988e-57
5.35829e-55
3.82052e-53
2.02086e-51
8.35127e-50
2.89615e-48
8.67618e-47
2.36038e-45
5.80228e-44
1.30212e-42
2.74645e-41
5.35338e-40
9.70769e-39
1.67937e-37
2.79087e-36
4.44461e-35
6.69897e-34
9.37274e-33
1.19487e-31
1.34648e-30
1.29092e-29
1.0299e-28
9.18441e-28
3.35809e-58
4.45036e-56
3.02963e-54
1.57637e-52
6.52758e-51
2.29392e-49
7.06495e-48
2.00734e-46
5.23256e-45
1.26099e-43
2.88834e-42
6.27337e-41
1.31756e-39
2.72193e-38
5.46165e-37
1.03221e-35
1.7695e-34
2.64209e-33
3.6164e-32
4.12668e-31
3.91487e-30
3.37147e-29
2.72046e-28
0.0980706
0.17218
0.176388
0.172515
-1.9343e-12
-2.86655e-12
1.96159e-18
5.93191e-18
3.62445e-09
5.21879e-09
5.75162e-09
6.33535e-09
4.20856e-09
1.12482e-08
1.72826e-08
1.69105e-08
7.24079e-09
6.77459e-09
2.92891e-09
1.5666e-09
1.23901e-09
9.92723e-10
8.83141e-10
9.61003e-10
2.67129e-10
2.5003e-10
2.32688e-10
2.34307e-10
5.27856e-11
5.24656e-11
5.29431e-11
5.43922e-11
2.62751e-11
2.86763e-11
3.17346e-11
3.33498e-11
1.44061e-11
1.35959e-11
1.3149e-11
1.3003e-11
1.12433e-11
1.03725e-11
9.74579e-12
9.51921e-12
1.66575e-11
1.15044e-11
9.36275e-12
8.58836e-12
3.98723e-11
2.07605e-11
1.28448e-11
9.42765e-12
6.76195e-11
4.52089e-11
2.97543e-11
1.85741e-11
6.53368e-11
5.66281e-11
4.71164e-11
3.32035e-11
3.81809e-11
4.32362e-11
4.17643e-11
3.50842e-11
8.73053e-12
1.44986e-11
1.7965e-11
1.76433e-11
1.78554e-12
2.16429e-12
3.71111e-12
3.97189e-12
2.88479e-13
7.42837e-13
1.06185e-12
1.24584e-12
4.77082e-14
7.21217e-14
2.62862e-13
3.36806e-13
1.03973e-14
2.23541e-14
5.45128e-14
7.21211e-14
2.66171e-15
3.12949e-15
8.8101e-15
1.25141e-14
6.05235e-16
7.44988e-16
1.35479e-15
1.92332e-15
1.16769e-16
7.95899e-17
1.92689e-16
2.60777e-16
1.86418e-17
1.79522e-17
1.55446e-17
3.21047e-17
2.48334e-18
1.30457e-18
2.53698e-18
3.77973e-18
2.64748e-19
2.11576e-19
1.3976e-19
3.8191e-19
2.41278e-20
1.0464e-20
1.84347e-20
3.25987e-20
1.66327e-21
1.1056e-21
7.62816e-22
2.36488e-21
9.54108e-23
8.55002e-23
9.55863e-23
9.11763e-23
1.40514e-23
2.29531e-23
3.80394e-23
8.93707e-23
7.67883e-24
1.38348e-23
3.83607e-23
8.16681e-23
4.03803e-24
1.08e-23
2.54358e-23
7.0572e-23
2.2512e-24
5.66154e-24
1.8376e-23
4.57785e-23
1.05157e-24
3.1813e-24
9.00092e-24
2.74742e-23
4.75915e-25
1.43909e-24
4.64127e-24
1.27996e-23
1.84539e-25
6.3788e-25
2.08563e-24
6.25068e-24
8.21179e-26
2.91473e-25
9.24106e-25
2.79509e-24
3.21726e-26
1.27991e-25
4.32935e-25
1.28707e-24
1.59245e-26
5.61059e-26
1.76848e-25
5.98264e-25
6.11825e-27
2.20416e-26
7.40353e-26
2.2099e-25
1.87909e-27
6.10176e-27
1.83947e-26
4.87792e-26
0.033615
4.74417e-08
3.44066e-06
2.70627e-06
7.61364e-08
2.35519e-07
3.57844e-07
2.06652e-07
2.45185e-07
3.95472e-07
4.90801e-07
3.84578e-07
6.6692e-08
8.59384e-13
0.00949577
0.334218
0.415632
0.417954
0.684473
1.78858e-09
2.29332e-08
3.11788e-08
2.91977e-08
1.03555e-07
3.94114e-07
4.51498e-07
4.82117e-07
7.99038e-07
1.0576e-06
1.05672e-06
8.11331e-07
9.44965e-08
-4.51562e-24
0.00124123
0.0826954
0.108314
0.307821
0.687981
6.95281e-09
1.82821e-08
5.1958e-08
9.92266e-08
1.68908e-07
1.93915e-07
2.23966e-07
4.09394e-07
4.15286e-07
3.12151e-07
9.00331e-08
7.99134e-08
3.49406e-08
-1.13395e-13
9.33791e-05
0.0149523
0.0233834
0.177567
0.670433
1.78902e-08
1.89376e-08
1.61707e-08
5.54088e-09
1.46001e-09
1.5143e-09
1.57282e-09
1.54727e-09
1.66655e-09
1.78948e-09
9.1171e-09
2.97309e-08
3.17944e-07
6.20472e-09
-5.0818e-22
-2.40956e-06
0.00259315
0.0777923
0.367547
1.36859e-09
1.26131e-09
1.21926e-09
1.24801e-09
1.4043e-09
1.47287e-09
1.50438e-09
1.43555e-09
4.67836e-09
2.3804e-08
3.26917e-08
1.32092e-08
1.28808e-08
0.000136805
0.000356755
0.000322443
0.00115926
0.0338154
0.369975
1.00126e-09
1.13283e-09
1.18826e-09
1.14361e-09
1.06192e-09
1.19228e-09
1.36295e-09
1.40534e-09
1.29238e-08
5.56704e-08
5.7269e-08
3.8431e-08
1.86668e-08
0.000167463
0.000553166
0.000587111
0.000631248
0.0152299
0.33031
2.17513e-10
1.50513e-10
9.22555e-11
1.08145e-10
2.49821e-10
8.16712e-10
1.17462e-09
2.71115e-09
6.06874e-09
1.233e-08
5.61029e-08
5.49687e-08
1.52733e-08
1.55619e-05
0.000104874
0.00015584
0.000150894
0.0129684
0.0608477
5.77768e-11
6.21987e-11
7.28607e-11
1.43802e-10
3.22915e-10
5.37839e-10
6.49089e-10
5.68377e-10
2.22671e-10
2.63318e-10
1.68056e-08
4.39717e-08
4.15782e-08
2.17299e-08
2.03722e-08
2.23828e-08
0.000209475
0.00553082
2.83897e-05
3.76968e-11
4.60144e-11
6.66042e-11
9.84171e-11
1.37658e-10
1.75669e-10
2.01931e-10
1.8774e-10
1.51867e-10
1.35279e-10
1.38572e-10
1.49745e-10
5.52943e-09
5.80646e-08
1.46199e-07
1.84512e-05
4.56698e-05
3.60056e-05
2.83935e-05
1.35654e-11
1.78253e-11
2.72027e-11
4.21587e-11
6.35533e-11
8.84472e-11
1.01181e-10
1.23122e-10
1.42569e-10
1.64294e-10
1.67353e-10
1.63389e-10
1.4742e-10
1.45234e-10
1.51161e-10
1.16636e-10
3.55959e-06
2.73632e-05
3.2719e-05
9.33142e-12
9.61663e-12
1.27233e-11
1.79224e-11
2.33223e-11
2.73402e-11
3.25655e-11
4.61399e-11
7.22632e-11
1.20961e-10
1.78602e-10
2.22706e-10
2.42969e-10
2.3887e-10
2.22007e-10
9.7581e-11
2.82157e-12
2.21433e-12
8.03876e-11
8.18044e-12
7.48776e-12
6.90901e-12
6.20488e-12
5.90547e-12
6.24321e-12
7.88097e-12
1.14033e-11
1.77146e-11
2.82489e-11
4.27826e-11
5.89272e-11
7.5084e-11
8.43891e-11
8.25463e-11
4.66698e-11
1.59155e-11
1.74588e-12
1.23848e-13
7.79839e-12
6.25463e-12
5.5831e-12
4.65297e-12
3.6995e-12
2.99867e-12
2.56869e-12
2.61377e-12
3.17428e-12
4.19141e-12
5.24483e-12
5.94099e-12
6.12245e-12
5.30618e-12
2.78603e-12
9.78006e-13
3.10244e-13
9.65713e-14
1.10331e-13
8.63763e-12
4.80325e-12
4.39699e-12
4.57374e-12
3.52464e-12
2.63079e-12
1.92496e-12
1.5622e-12
1.22111e-12
9.17502e-13
7.96607e-13
6.75688e-13
5.5618e-13
3.82719e-13
1.6357e-13
2.7766e-14
7.54002e-15
1.75557e-15
5.94233e-17
1.3607e-11
3.36129e-12
2.94499e-12
3.49962e-12
3.62526e-12
2.90626e-12
2.14763e-12
1.53368e-12
1.09673e-12
7.16473e-13
4.16565e-13
1.97511e-13
1.16366e-13
6.08486e-14
2.40426e-14
1.99431e-14
2.33522e-14
3.18808e-15
6.00476e-17
1.78675e-11
3.16647e-12
9.73038e-13
1.59637e-12
2.13563e-12
2.38575e-12
2.31507e-12
1.95391e-12
1.44579e-12
9.87366e-13
5.86913e-13
2.80261e-13
1.60201e-13
9.90198e-14
9.97473e-14
8.7069e-14
6.03063e-14
6.55491e-15
1.12141e-16
1.11096e-11
2.40521e-12
5.35002e-13
4.6648e-13
7.85026e-13
9.78743e-13
1.19745e-12
1.82832e-12
1.61654e-12
1.35644e-12
9.94582e-13
6.9969e-13
4.68222e-13
3.36555e-13
2.67113e-13
1.83196e-13
9.01588e-14
1.51472e-14
3.24097e-16
2.85455e-12
7.38935e-13
2.6825e-13
2.02967e-13
2.80788e-13
3.51888e-13
4.6433e-13
8.58952e-13
8.57439e-13
1.11632e-12
1.08568e-12
8.70466e-13
6.22896e-13
4.83086e-13
3.73699e-13
2.38999e-13
1.15041e-13
2.4432e-14
6.41783e-16
7.20275e-13
3.01836e-13
1.23192e-13
8.88343e-14
1.09622e-13
1.50671e-13
1.91131e-13
2.28942e-13
3.16389e-13
5.41658e-13
6.94026e-13
6.9792e-13
5.79277e-13
4.87741e-13
3.89583e-13
2.60922e-13
1.31987e-13
3.06438e-14
1.5254e-15
2.30815e-13
9.66502e-14
4.61012e-14
3.5834e-14
4.67975e-14
6.53016e-14
9.47805e-14
1.21956e-13
1.40121e-13
1.61505e-13
2.27474e-13
2.35157e-13
2.9934e-13
3.59815e-13
3.40309e-13
2.56594e-13
1.40535e-13
3.87415e-14
2.54115e-15
5.42721e-14
2.52819e-14
1.48346e-14
1.36932e-14
1.9225e-14
2.95377e-14
4.38532e-14
6.14236e-14
7.66487e-14
8.31854e-14
9.20649e-14
1.00603e-13
1.23898e-13
1.6913e-13
2.44322e-13
2.00304e-13
1.37937e-13
4.67299e-14
3.14962e-15
1.06259e-14
5.90767e-15
4.68574e-15
5.18424e-15
7.356e-15
1.17738e-14
1.82763e-14
2.74221e-14
3.70181e-14
4.22031e-14
4.20844e-14
4.65126e-14
6.31435e-14
1.06051e-13
1.47688e-13
1.43105e-13
1.2113e-13
4.82935e-14
3.13522e-15
1.80985e-15
1.42961e-15
1.48277e-15
1.86473e-15
2.86146e-15
4.91983e-15
7.81899e-15
1.14526e-14
1.54231e-14
1.84192e-14
1.98677e-14
2.2309e-14
3.32096e-14
6.7563e-14
1.16499e-13
1.264e-13
1.07703e-13
4.43143e-14
2.97218e-15
3.09514e-16
3.59493e-16
4.48484e-16
6.69451e-16
1.08711e-15
1.91646e-15
3.18694e-15
4.75618e-15
6.20138e-15
7.40945e-15
8.67036e-15
1.20994e-14
2.26146e-14
4.86375e-14
8.44614e-14
1.03117e-13
9.28771e-14
3.81735e-14
2.551e-15
5.61025e-17
8.50641e-17
1.32785e-16
2.13977e-16
3.91504e-16
7.20789e-16
1.24626e-15
1.84411e-15
2.41108e-15
2.90443e-15
3.83145e-15
6.66507e-15
1.47467e-14
3.53087e-14
6.20595e-14
8.42909e-14
7.73798e-14
3.27447e-14
2.43994e-15
9.51172e-18
1.98526e-17
3.83003e-17
6.93936e-17
1.36846e-16
2.46055e-16
4.30537e-16
6.37156e-16
8.49581e-16
1.11958e-15
1.80087e-15
3.88376e-15
1.08988e-14
2.6243e-14
5.16717e-14
6.78984e-14
6.36378e-14
2.61774e-14
2.54864e-15
1.49379e-18
4.3958e-18
9.8898e-18
2.0404e-17
4.15756e-17
8.14968e-17
1.37976e-16
2.07727e-16
2.9712e-16
4.71505e-16
8.93795e-16
2.46629e-15
7.86039e-15
2.21803e-14
4.33554e-14
5.79152e-14
5.12179e-14
1.98449e-14
1.72658e-15
2.65449e-19
9.23369e-19
2.29522e-18
5.0033e-18
1.13355e-17
2.11658e-17
3.58973e-17
5.45303e-17
9.32318e-17
1.93912e-16
4.8632e-16
1.69586e-15
6.70407e-15
1.85689e-14
3.66578e-14
4.78178e-14
3.99558e-14
1.29547e-14
1.35482e-15
1.85494e-20
8.83922e-20
2.16945e-19
3.66442e-19
4.84801e-19
7.99881e-19
1.42301e-18
3.16879e-18
1.20225e-17
4.93747e-17
2.08775e-16
1.17629e-15
5.22616e-15
1.44206e-14
2.55959e-14
3.38846e-14
2.51516e-14
7.49361e-15
3.83915e-16
4.87553e-22
1.50922e-21
3.31296e-21
5.89194e-21
1.03845e-20
1.79223e-20
3.37344e-20
9.78958e-20
1.3268e-18
1.03006e-17
8.01464e-17
8.1772e-16
3.84092e-15
1.00102e-14
1.60786e-14
1.67053e-14
1.33634e-14
3.2917e-15
1.12548e-16
4.89883e-22
1.32504e-21
2.91388e-21
6.03881e-21
1.13674e-20
2.02865e-20
3.48533e-20
5.64425e-20
1.32441e-19
1.12038e-18
2.28919e-17
4.78599e-16
2.38277e-15
5.65455e-15
8.04783e-15
7.6378e-15
4.66132e-15
1.02919e-15
4.0236e-17
4.56696e-22
1.25991e-21
2.97732e-21
6.11454e-21
1.29675e-20
2.55126e-20
4.48071e-20
7.22109e-20
1.14109e-19
1.97725e-19
3.54376e-18
1.82824e-16
9.01316e-16
2.15391e-15
2.86321e-15
2.48292e-15
1.18362e-15
1.85559e-16
1.42686e-17
3.2843e-22
9.52895e-22
2.49092e-21
5.81785e-21
1.29673e-20
2.67746e-20
4.97596e-20
8.76341e-20
1.3842e-19
2.12563e-19
4.40621e-19
2.90851e-17
1.75358e-16
5.04648e-16
6.78629e-16
5.23778e-16
1.79347e-16
4.95619e-17
3.49696e-18
1.98198e-22
6.1319e-22
1.79226e-21
4.60035e-21
1.13038e-20
2.50368e-20
5.09205e-20
9.38704e-20
1.58912e-19
2.51365e-19
3.74638e-19
1.82557e-18
2.35778e-17
8.84636e-17
9.91384e-17
6.46868e-17
2.89393e-17
7.44014e-18
1.24122e-18
9.95892e-23
3.3751e-22
1.0645e-21
3.08033e-21
8.06256e-21
1.98167e-20
4.32966e-20
8.70603e-20
1.59281e-19
2.66765e-19
4.07118e-19
5.70234e-19
2.6368e-18
7.8158e-18
8.47389e-18
8.05474e-18
3.76694e-18
1.26109e-18
3.50035e-19
4.50734e-23
1.65994e-22
5.68426e-22
1.79413e-21
5.15994e-21
1.3539e-20
3.25983e-20
7.10925e-20
1.42409e-19
2.50322e-19
3.97328e-19
6.0461e-19
8.77283e-19
1.75823e-18
2.75897e-18
2.57527e-18
1.56838e-18
5.4145e-19
1.58696e-19
1.91239e-23
7.64358e-23
2.86255e-22
9.57966e-22
2.95092e-21
8.20727e-21
2.08778e-20
4.88953e-20
1.06734e-19
2.00655e-19
3.33519e-19
5.50181e-19
7.33438e-19
1.15701e-18
1.48331e-18
1.31938e-18
6.01166e-19
2.19309e-19
6.23093e-20
8.52094e-24
3.62975e-23
1.42171e-22
5.06533e-22
1.59231e-21
4.52293e-21
1.203e-20
2.89545e-20
6.60517e-20
1.33283e-19
2.30541e-19
3.6919e-19
5.3091e-19
6.66985e-19
5.82316e-19
4.11992e-19
1.90961e-19
8.30108e-20
2.90176e-20
3.79756e-24
1.73555e-23
6.96129e-23
2.50902e-22
7.93592e-22
2.34358e-21
6.11375e-21
1.44489e-20
3.22579e-20
6.84564e-20
1.20564e-19
1.78913e-19
2.48874e-19
2.77694e-19
1.76809e-19
9.75431e-20
5.63685e-20
3.57094e-20
1.16313e-20
1.60567e-24
7.16932e-24
2.90926e-23
1.03655e-22
3.29059e-22
9.66107e-22
2.55186e-21
6.1329e-21
1.35788e-20
2.75263e-20
4.84363e-20
7.18808e-20
8.97056e-20
9.17993e-20
5.39014e-20
2.70467e-20
2.14054e-20
1.14399e-20
5.86783e-21
5.73632e-25
2.45284e-24
9.5038e-24
3.33258e-23
1.05428e-22
3.08086e-22
8.2191e-22
2.00314e-21
4.41237e-21
8.62741e-21
1.49667e-20
2.18095e-20
2.52609e-20
2.31851e-20
1.27378e-20
8.92906e-21
5.1037e-21
4.37491e-21
1.75569e-21
1.16823e-25
4.91744e-25
1.93313e-24
6.72858e-24
2.12744e-23
6.32514e-23
1.69793e-22
4.12217e-22
9.05165e-22
1.77982e-21
2.98194e-21
4.17441e-21
4.58737e-21
3.79184e-21
2.32192e-21
1.8263e-21
1.43337e-21
5.82976e-22
2.30159e-22
)
;

boundaryField
{
    leftWall
    {
        type            alphaContactAngle;
        contactAngleProperties 
        {
            air             
            {
                theta0          90;
            }
            water           
            {
                theta0          90;
            }
            oil             
            {
                theta0          90;
            }
        }
        value           nonuniform List<scalar> 
50
(
1
1
1
0.94644
0.210337
2.95091e-07
9.7477e-08
1.52224e-08
4.60595e-10
8.27775e-12
4.7782e-14
2.59437e-15
5.13721e-17
9.42971e-19
2.50533e-21
1.15108e-25
-3.46205e-24
-2.25523e-24
-8.84883e-25
-2.50219e-25
-5.37328e-26
-9.03294e-27
-1.21713e-27
-1.34214e-28
-1.23492e-29
-9.65391e-31
-6.51814e-32
-3.85657e-33
-2.02472e-34
-9.53303e-36
-4.06193e-37
-1.57853e-38
-5.63272e-40
-1.85637e-41
-5.67894e-43
-1.61886e-44
-4.27194e-46
-8.39771e-48
6.40918e-49
2.5328e-49
6.01907e-50
1.16244e-50
1.90019e-51
2.66809e-52
3.2924e-53
3.69464e-54
3.92025e-55
3.38305e-56
3.35988e-57
3.35809e-58
)
;
    }
    rightWall
    {
        type            alphaContactAngle;
        contactAngleProperties 
        {
            air             
            {
                theta0          90;
            }
            water           
            {
                theta0          90;
            }
            oil             
            {
                theta0          90;
            }
        }
        value           nonuniform List<scalar> 
50
(
0.272495
0.542251
0.537695
0.546217
0.66278
0.668269
0.668542
0.670701
0.684473
0.687981
0.670433
0.367547
0.369975
0.33031
0.0608477
2.83897e-05
2.83935e-05
3.2719e-05
8.03876e-11
1.23848e-13
1.10331e-13
5.94233e-17
6.00476e-17
1.12141e-16
3.24097e-16
6.41783e-16
1.5254e-15
2.54115e-15
3.14962e-15
3.13522e-15
2.97218e-15
2.551e-15
2.43994e-15
2.54864e-15
1.72658e-15
1.35482e-15
3.83915e-16
1.12548e-16
4.0236e-17
1.42686e-17
3.49696e-18
1.24122e-18
3.50035e-19
1.58696e-19
6.23093e-20
2.90176e-20
1.16313e-20
5.86783e-21
1.75569e-21
2.30159e-22
)
;
    }
    lowerWall
    {
        type            alphaContactAngle;
        contactAngleProperties 
        {
            air             
            {
                theta0          90;
            }
            water           
            {
                theta0          90;
            }
            oil             
            {
                theta0          90;
            }
        }
        value           nonuniform List<scalar> 
62
(
1
1
1
1
1
1
1
1
1
1
1
1
1
1
1
1
1
1
1
1
0.999864
0.999431
0.999431
0.999431
0.999486
1
1
0.999985
0.999974
0.631894
0.0489727
0.0980706
0.17218
0.176388
0.172515
0.0447745
0.0281765
0.00361195
0.00458941
0.212077
0.211777
0.0474008
0.00997296
0.0447745
0.0421686
0.0441709
0.049897
0.0575351
0.0599179
0.0913277
0.227473
0.439994
0.489573
0.456689
0.349788
0.292094
0.276032
0.205096
0.197734
0.205254
0.205856
0.272495
)
;
    }
    atmosphere
    {
        type            inletOutlet;
        inletValue      uniform 0;
        value           nonuniform List<scalar> 
46
(
3.35809e-58
4.45036e-56
3.02963e-54
1.57637e-52
6.52758e-51
2.29392e-49
7.06495e-48
2.00734e-46
5.23255e-45
1.26099e-43
2.88834e-42
6.27337e-41
1.31756e-39
2.72193e-38
5.46165e-37
1.03221e-35
1.7695e-34
2.64209e-33
3.6164e-32
4.12668e-31
3.91487e-30
3.37147e-29
2.72046e-28
1.87909e-27
6.10176e-27
1.83947e-26
0
0
0
0
0
0
0
0
0
0
0
0
0
0
0
0
0
0
0
0
)
;
    }
    defaultFaces
    {
        type            empty;
    }
}


// ************************************************************************* //
