/*--------------------------------*- C++ -*----------------------------------*\
  =========                 |
  \\      /  F ield         | OpenFOAM: The Open Source CFD Toolbox
   \\    /   O peration     | Website:  https://openfoam.org
    \\  /    A nd           | Version:  13
     \\/     M anipulation  |
\*---------------------------------------------------------------------------*/
FoamFile
{
    format      ascii;
    class       volScalarField;
    location    "0.8";
    object      alpha.oil;
}
// * * * * * * * * * * * * * * * * * * * * * * * * * * * * * * * * * * * * * //

dimensions      [];

internalField   nonuniform List<scalar> 
2268
(
1.46463e-33
2.84797e-31
2.91989e-29
1.73895e-27
1.40618e-25
7.69284e-21
1.51757e-17
1.41695e-15
1.09365e-14
6.75788e-14
3.28537e-13
1.33692e-12
4.70965e-12
1.45018e-11
3.84206e-11
8.94202e-11
2.35816e-10
9.66301e-10
4.22328e-09
7.31373e-09
0.000135506
0.000568663
0.000568602
1.01621e-29
2.89746e-27
3.35933e-25
2.00594e-23
7.06983e-22
1.62294e-20
2.69544e-19
1.7778e-17
2.17634e-16
1.59827e-14
2.76509e-13
9.70622e-13
3.18755e-12
1.00359e-11
3.22736e-11
1.16923e-10
4.94649e-10
2.25314e-09
9.5249e-09
1.93201e-08
1.71447e-05
0.00023727
0.000513773
1.01538e-31
1.64846e-29
4.44468e-27
5.9983e-24
1.96924e-22
4.49391e-21
4.84507e-20
2.05648e-19
1.95519e-18
5.44158e-17
6.91401e-15
3.37177e-13
3.58101e-12
1.37044e-11
5.25122e-11
2.86218e-10
1.52479e-09
6.05037e-09
2.30197e-08
4.37337e-07
6.19797e-07
3.59734e-08
3.48341e-08
4.74336e-33
5.49983e-33
6.37067e-31
1.21717e-25
2.48372e-21
1.24392e-18
1.79492e-17
1.7468e-16
1.0707e-15
1.32259e-14
7.93376e-14
4.66913e-13
2.4453e-12
3.92345e-11
1.81129e-10
8.31604e-10
4.54317e-09
2.04144e-08
9.94037e-08
1.107e-07
1.00352e-08
1.18614e-07
1.00948e-07
6.81838e-32
6.81061e-32
5.88604e-31
8.50028e-27
1.13971e-22
4.56055e-20
2.22085e-18
6.00483e-16
8.10205e-15
5.28623e-14
8.48341e-13
5.72913e-12
3.45364e-11
1.5221e-10
4.80449e-10
1.75122e-09
6.17185e-09
1.0933e-08
1.53525e-08
1.62837e-08
1.3462e-08
3.08966e-06
1.47285e-05
2.56276e-31
3.25396e-31
2.98313e-30
4.2579e-28
1.55404e-24
2.7912e-22
7.51692e-20
2.78037e-17
7.79215e-15
4.82488e-13
3.69262e-12
1.51143e-11
4.94916e-11
1.07813e-10
3.98155e-10
2.83829e-09
2.34469e-08
1.76702e-07
5.85141e-07
1.46539e-06
1.38713e-07
4.91542e-06
2.58624e-05
7.83936e-31
3.67612e-30
2.52814e-29
1.2202e-28
2.33624e-27
2.71329e-25
1.31256e-21
3.9384e-18
2.00851e-15
1.40926e-13
2.09378e-12
1.21758e-11
4.27521e-11
8.48249e-11
9.3053e-11
2.80556e-11
2.30282e-11
1.69196e-06
6.35738e-06
7.17639e-06
3.72706e-06
3.86832e-06
2.5942e-05
2.72111e-30
4.51638e-29
3.71757e-28
3.29901e-27
4.3273e-26
3.35935e-25
3.83821e-23
1.68284e-19
9.6664e-17
7.52342e-15
2.09354e-13
3.45644e-12
2.08997e-11
4.31e-11
4.5616e-11
2.39063e-11
2.25132e-11
2.22183e-06
7.17639e-06
7.15167e-06
5.48178e-06
3.05128e-06
1.92577e-05
0.951457
0.951472
0.951471
0.949614
0.942441
0.940058
0.908648
0.769233
0.538322
0.487953
0.520862
0.641803
0.707794
0.707794
0.707794
0.340939
0.037689
0.0376876
0.037687
0.951451
0.950438
0.896318
0.66456
0.53648
0.495379
0.387295
0.140294
0.0434758
0.0365915
0.0410312
0.060818
0.0733848
0.108743
0.505106
0.396015
0.037693
0.0721095
0.135809
0.857237
0.850283
0.589498
0.138597
3.72187e-06
4.50247e-06
4.43205e-06
4.50251e-06
4.39726e-06
4.49245e-06
4.39726e-06
4.60251e-06
4.43222e-06
0.00214698
0.133836
0.212277
0.083133
0.195179
0.223642
0.846972
0.508473
0.0760973
3.72152e-06
3.6609e-06
8.12082e-06
7.96277e-06
5.26114e-05
0.000109295
0.000166265
0.000772054
0.00390189
0.00259398
0.000110665
0.0236138
0.0272876
0.17083
0.382403
0.21603
0.360706
0.0598971
1.13489e-09
9.4983e-06
0.000110227
0.000188265
0.000197368
0.000196042
0.000264512
0.000296124
0.000292546
0.0037578
0.00323645
0.000105997
0.0598665
0.0301611
0.219709
0.463583
0.10003
1.0306e-24
1.2676e-24
9.73032e-10
3.71084e-05
0.00013784
0.000227301
0.000262846
0.000268952
0.000281923
0.000280579
0.000287412
0.000678657
0.000779073
0.000110732
0.211894
0.414331
0.243948
0.464231
0.102402
1.38641e-06
1.6945e-07
1.56481e-06
-8.38067e-07
-1.25878e-06
0.00162884
0.00724824
0.0130698
0.0175405
0.0167732
0.00028606
0.000333276
0.00034309
0.000134215
0.212633
0.522067
0.521175
0.374286
0.0425004
1.88963e-06
4.15893e-08
4.8164e-08
0.0570093
0.23964
0.353057
0.430344
0.476891
0.508006
0.519851
0.39881
0.10739
0.000246132
0.000126665
0.0532434
0.522066
0.521356
0.144863
0.0234583
9.522e-29
9.11633e-28
4.81883e-27
1.64888e-26
5.92732e-26
1.18552e-24
8.75059e-23
9.62139e-21
1.60091e-18
8.5998e-17
5.70457e-15
7.42574e-13
6.04349e-12
2.06725e-11
2.832e-11
2.1124e-11
2.19592e-11
3.3018e-07
3.34783e-06
5.12353e-06
1.8582e-06
1.72576e-06
3.43807e-06
3.99924e-27
6.15167e-26
6.91697e-25
7.75347e-24
6.44694e-23
4.13093e-22
1.75571e-21
6.35181e-20
4.14244e-17
1.27867e-15
2.10122e-14
8.37796e-13
6.16175e-12
2.04063e-11
4.70067e-11
2.18792e-11
5.72831e-11
4.17321e-12
4.29071e-12
2.38431e-09
2.74317e-07
3.47848e-06
5.04911e-06
5.17085e-22
1.41624e-20
1.37126e-19
9.88885e-19
6.26765e-18
3.84661e-17
2.44518e-16
1.64167e-15
1.05323e-14
5.48789e-14
2.29685e-13
8.32473e-12
6.33949e-11
1.73198e-10
2.4508e-10
5.15884e-11
1.41806e-10
6.62183e-11
1.17033e-08
1.81056e-08
3.51733e-06
1.22321e-05
5.30448e-06
1.25375e-19
3.37835e-18
4.89206e-17
4.18751e-16
2.53781e-15
1.18571e-14
5.97426e-14
2.42179e-13
9.51788e-13
3.59046e-12
1.26874e-11
6.88958e-11
4.16414e-10
7.34567e-10
5.22021e-09
4.54033e-11
1.99817e-07
1.79175e-06
2.25644e-06
1.62659e-08
1.74572e-08
1.62659e-08
0.0411574
3.44908e-20
1.14522e-18
1.91493e-17
1.9491e-16
1.334e-15
6.85331e-15
2.89668e-14
9.95958e-14
2.79032e-13
6.58542e-13
2.89794e-12
8.97421e-11
7.41267e-10
9.0603e-10
2.47283e-08
7.22786e-09
1.34546e-06
4.06435e-06
2.27462e-06
0.00505134
0.203118
0.733952
0.997732
3.73872e-21
8.34722e-20
1.4954e-18
2.12287e-17
1.66855e-16
8.47566e-16
2.64416e-15
5.63112e-15
6.9728e-15
3.15581e-15
2.10721e-15
1.37636e-13
1.22819e-10
8.10863e-10
3.26903e-08
1.88531e-07
1.46252e-06
3.03072e-06
0.00438183
0.574181
0.999045
0.995828
1
2.17034e-23
3.45799e-22
1.36235e-20
2.78144e-19
2.41258e-18
1.0355e-17
1.93635e-17
1.80573e-17
1.52437e-17
1.57152e-16
6.17159e-14
2.44876e-11
1.847e-09
2.51203e-08
1.877e-07
4.99125e-07
7.31907e-07
2.90375e-06
0.0816743
0.873089
0.999863
0.999999
1
5.31683e-25
1.87555e-23
1.15046e-21
1.92954e-20
1.43518e-19
5.00202e-19
7.3266e-19
2.70392e-18
4.98962e-15
2.75866e-13
1.15871e-11
2.68049e-10
3.70841e-09
2.89374e-08
1.44212e-07
4.43106e-07
1.50417e-07
1.96003e-09
9.04371e-11
0.142899
0.853264
1
1
3.22385e-25
4.77436e-24
1.13536e-22
1.43947e-21
9.04385e-21
3.33477e-20
9.02906e-20
2.11097e-16
1.70284e-13
3.72439e-12
6.25972e-11
5.15939e-10
2.74812e-09
1.18982e-08
9.71527e-08
5.33032e-07
1.02228e-06
4.65172e-11
1.68054e-12
4.96331e-07
0.00526071
0.198038
0.797599
3.02225e-25
2.7277e-24
3.85506e-23
3.74146e-22
2.29564e-21
1.31152e-20
8.25334e-20
9.59678e-16
4.06684e-13
8.59007e-12
1.24032e-10
9.61972e-10
3.87424e-09
9.41315e-09
3.7812e-08
4.80635e-07
2.5702e-06
5.51039e-08
-1.46294e-16
1.49202e-16
3.24429e-21
2.37686e-07
1.36201e-08
5.13676e-25
3.80685e-24
3.8259e-23
3.25183e-22
2.29397e-21
1.71268e-20
1.08322e-18
8.96293e-15
4.64854e-13
1.09881e-11
1.38224e-10
9.81022e-10
3.98538e-09
9.25771e-09
1.48423e-08
1.15719e-07
1.35788e-06
1.40478e-05
9.72181e-07
-1.52829e-11
-1.6069e-10
6.66033e-10
1.40055e-08
1.08485e-24
8.73571e-24
7.54493e-23
5.87893e-22
4.5096e-21
3.45972e-20
4.08234e-19
2.86225e-15
1.84063e-13
5.13533e-12
7.41992e-11
6.01818e-10
2.82668e-09
7.77628e-09
1.18892e-08
2.84938e-08
5.29692e-07
8.61155e-06
0.000133521
0.00018835
8.51888e-05
1.66264e-10
2.66546e-09
1.82545e-24
1.81713e-23
1.68809e-22
1.31885e-21
9.66447e-21
6.66729e-20
4.35714e-19
4.7993e-16
4.28896e-14
1.5043e-12
2.6477e-11
2.59487e-10
1.47692e-09
5.03782e-09
9.84016e-09
1.16646e-08
7.40293e-08
7.18565e-07
0.000105995
0.000241293
0.000244673
0.000143229
1.51686e-09
2.28645e-24
3.03758e-23
3.04692e-22
2.39739e-21
1.68155e-20
1.06764e-19
6.14981e-19
5.25417e-17
6.91243e-15
3.11279e-13
6.80646e-12
8.23352e-11
5.84726e-10
2.52908e-09
6.40632e-09
9.11764e-09
1.67663e-08
1.41127e-07
9.21716e-06
0.000141509
0.000236991
0.000144042
3.99822e-06
2.24786e-24
3.66849e-23
4.10899e-22
3.37724e-21
2.33152e-20
1.39049e-19
7.3197e-19
5.71795e-18
6.16896e-16
4.75316e-14
1.32891e-12
2.00411e-11
1.78831e-10
9.87064e-10
3.25343e-09
6.11551e-09
7.71565e-09
2.98167e-08
2.24491e-07
7.36587e-07
3.05697e-05
1.07941e-05
5.21342e-06
1.97392e-24
3.53589e-23
4.11826e-22
3.48583e-21
2.4126e-20
1.41286e-19
7.16869e-19
3.36038e-18
5.24268e-17
5.29637e-15
1.98122e-13
3.79676e-12
4.26442e-11
2.99395e-10
1.283e-09
3.2648e-09
4.64661e-09
7.41056e-09
4.335e-08
9.41359e-08
1.93164e-07
4.88953e-08
1.79392e-06
1.53975e-24
2.99005e-23
3.60313e-22
3.11311e-21
2.16648e-20
1.25829e-19
6.3125e-19
2.84547e-18
1.33947e-17
4.41694e-16
2.21598e-14
5.5704e-13
8.00739e-12
7.26521e-11
4.07986e-10
1.37827e-09
2.48743e-09
3.06612e-09
5.94725e-09
4.64705e-08
5.58841e-08
1.10985e-08
1.42182e-09
1.06362e-24
2.1814e-23
2.70252e-22
2.37965e-21
1.66805e-20
9.65066e-20
4.8142e-19
2.16703e-18
8.86068e-18
5.97004e-17
2.25035e-15
7.18336e-14
1.31192e-12
1.48272e-11
1.06051e-10
4.69739e-10
1.124e-09
1.70674e-09
2.44613e-09
1.6306e-08
1.72038e-08
6.02466e-09
1.57419e-09
6.55298e-25
1.37678e-23
1.73742e-22
1.55074e-21
1.09554e-20
6.32174e-20
3.21169e-19
1.43375e-18
5.83581e-18
2.34883e-17
2.59652e-16
8.27397e-15
1.87583e-13
2.59605e-12
2.304e-11
1.31125e-10
4.20481e-10
7.99099e-10
1.21604e-09
5.20666e-09
5.06179e-09
2.46179e-09
1.42471e-09
3.62829e-25
7.60506e-24
9.64473e-23
8.68076e-22
6.12549e-21
3.58844e-20
1.77307e-19
8.25757e-19
3.39572e-18
1.29926e-17
5.99282e-17
9.45237e-16
2.36708e-14
3.93664e-13
4.23941e-12
3.03439e-11
1.27358e-10
3.07495e-10
5.5071e-10
1.70303e-09
1.67843e-09
8.83358e-10
9.30129e-10
1.83922e-25
3.77435e-24
4.7136e-23
4.21849e-22
2.97988e-21
1.76906e-20
9.0188e-20
4.1629e-19
1.74033e-18
6.77076e-18
2.57248e-17
1.55963e-16
2.80046e-15
5.22689e-14
6.64807e-13
5.87295e-12
3.15701e-11
9.82002e-11
1.96453e-10
5.52112e-10
5.8348e-10
4.4006e-10
5.12618e-10
8.53539e-26
1.70601e-24
2.07458e-23
1.83238e-22
1.29168e-21
7.7187e-21
4.00616e-20
1.88133e-19
8.0976e-19
3.27596e-18
1.26528e-17
5.25876e-17
4.05472e-16
6.38171e-15
8.97427e-14
9.56461e-13
6.4755e-12
2.57031e-11
5.75591e-11
1.47586e-10
1.71128e-10
1.52169e-10
2.29554e-10
3.47499e-26
6.84849e-25
8.18279e-24
7.20356e-23
5.10154e-22
3.1e-21
1.66114e-20
8.19579e-20
3.75134e-19
1.63317e-18
6.83557e-18
2.823e-17
1.25748e-16
9.47542e-16
1.112e-14
1.33107e-13
1.10548e-12
5.47468e-12
1.41036e-11
3.48786e-11
4.55179e-11
5.52138e-11
8.50994e-11
1.20154e-26
2.38104e-25
2.86989e-24
2.58743e-23
1.90437e-22
1.22588e-21
7.13709e-21
3.8843e-20
1.97915e-19
9.58079e-19
4.42907e-18
1.93196e-17
7.85481e-17
3.33351e-16
1.88537e-15
1.7566e-14
1.61328e-13
9.57322e-13
2.86063e-12
7.73294e-12
1.09422e-11
1.02336e-11
2.55501e-11
3.53882e-27
7.22931e-26
9.15997e-25
8.94279e-24
7.20937e-23
5.20297e-22
3.45079e-21
2.12313e-20
1.21108e-19
6.44869e-19
3.17294e-18
1.44194e-17
5.90868e-17
2.24562e-16
8.2343e-16
3.66025e-15
2.39227e-14
1.45358e-13
4.96535e-13
1.44743e-12
2.31646e-12
2.943e-12
5.69249e-12
9.18717e-28
2.01744e-26
2.83024e-25
3.04932e-24
2.93139e-23
2.40377e-22
1.79979e-21
1.22092e-20
7.55399e-20
4.22321e-19
2.16578e-18
1.00576e-17
4.17514e-17
1.5774e-16
5.44118e-16
1.77317e-15
6.28506e-15
2.57728e-14
8.86708e-14
2.5227e-13
4.75088e-13
4.885e-13
1.53515e-12
2.2055e-28
5.48215e-27
8.86588e-26
1.11439e-24
1.18123e-23
1.10313e-22
8.97528e-22
6.51586e-21
4.18639e-20
2.44088e-19
1.2821e-18
6.05586e-18
2.55085e-17
9.72678e-17
3.36605e-16
1.06119e-15
3.10764e-15
8.70403e-15
2.47675e-14
6.39604e-14
1.28983e-13
2.19181e-13
4.46106e-13
5.11142e-29
1.48023e-27
2.75658e-26
3.92215e-25
4.58129e-24
4.56387e-23
3.92632e-22
2.95319e-21
1.9845e-20
1.19071e-19
6.38613e-19
3.07259e-18
1.31756e-17
5.10159e-17
1.78957e-16
5.70227e-16
1.65397e-15
4.28963e-15
1.07599e-14
2.72205e-14
5.84874e-14
1.05713e-13
2.60046e-13
1.15546e-29
3.85369e-28
7.99978e-27
1.23743e-25
1.54582e-24
1.62821e-23
1.44964e-22
1.12981e-21
7.85989e-21
4.8414e-20
2.66003e-19
1.30698e-18
5.73605e-18
2.26683e-17
8.10509e-17
2.63609e-16
7.7667e-16
2.05173e-15
5.18046e-15
1.39119e-14
2.78829e-14
8.2075e-14
1.96582e-13
2.49645e-30
9.24026e-29
2.06477e-27
3.38174e-26
4.42496e-25
4.6942e-24
4.47768e-23
3.62309e-22
2.59443e-21
1.64518e-20
9.28855e-20
4.67583e-19
2.11042e-18
8.54945e-18
3.13032e-17
1.04296e-16
3.15826e-16
8.72243e-16
2.32621e-15
6.77851e-15
1.78357e-14
5.06231e-14
1.66967e-13
5.0038e-31
1.9785e-29
4.64266e-28
7.92842e-27
1.07573e-25
1.19505e-24
1.17407e-23
9.76396e-23
7.1891e-22
4.70825e-21
2.73696e-20
1.4165e-19
6.59046e-19
2.74603e-18
1.03641e-17
3.5663e-17
1.12592e-16
3.28371e-16
9.47013e-16
3.14365e-15
8.82601e-15
3.69556e-14
1.13165e-13
9.09829e-32
3.73805e-30
9.13042e-29
1.60047e-27
2.23947e-26
2.59176e-25
2.49284e-24
2.23414e-23
1.69096e-22
1.14465e-21
6.85762e-21
3.66976e-20
1.76232e-19
7.58436e-19
2.97521e-18
1.06802e-17
3.50764e-17
1.0909e-16
3.46893e-16
1.33207e-15
4.77414e-15
1.86115e-14
7.79726e-14
1.48463e-32
6.22456e-31
1.50284e-29
2.86088e-28
4.03838e-27
4.81955e-26
4.81287e-25
4.42131e-24
3.41638e-23
2.38611e-22
1.47355e-21
8.06286e-21
4.01908e-20
1.83686e-19
7.43817e-19
2.8021e-18
9.70951e-18
3.33996e-17
1.18524e-16
5.09958e-16
1.7731e-15
8.84486e-15
3.96501e-14
2.17004e-33
9.31252e-32
2.23497e-30
3.80762e-29
6.43493e-28
7.87439e-27
8.19085e-26
7.09384e-25
6.03176e-24
4.30378e-23
2.77064e-22
1.5314e-21
8.01201e-21
3.29986e-20
1.5169e-19
6.16432e-19
2.41079e-18
8.54549e-18
3.52317e-17
1.62359e-16
6.66829e-16
3.22148e-15
1.60577e-14
2.85171e-34
1.08215e-32
2.65769e-31
5.43694e-30
7.61966e-29
9.57535e-28
1.02828e-26
1.05435e-25
8.83409e-25
6.80934e-24
4.1517e-23
2.57214e-22
1.36301e-21
6.77402e-21
3.04483e-20
1.22005e-19
5.35125e-19
2.13062e-18
9.71173e-18
4.79524e-17
2.06093e-16
1.10763e-15
6.02494e-15
3.36883e-35
1.39783e-33
3.49652e-32
6.72298e-31
9.94159e-30
1.27468e-28
1.39538e-27
1.36223e-26
1.16457e-25
8.91677e-25
5.9811e-24
3.86094e-23
2.12961e-22
1.11516e-21
5.25818e-21
2.31117e-20
1.06652e-19
4.79969e-19
2.38296e-18
1.28633e-17
6.47125e-17
3.68488e-16
1.90772e-15
3.59333e-36
1.5401e-34
3.89517e-33
7.44641e-32
1.1358e-30
1.48169e-29
1.64687e-28
1.59198e-27
1.41851e-26
1.10251e-25
7.77497e-25
5.21441e-24
3.03741e-23
1.64373e-22
8.1875e-22
3.94063e-21
1.93158e-20
9.69856e-20
5.32723e-19
3.16041e-18
1.82757e-17
1.10903e-16
7.03326e-16
3.48663e-37
1.51871e-35
3.85473e-34
7.49611e-33
1.16893e-31
1.54702e-30
1.74189e-29
1.72924e-28
1.58291e-27
1.25853e-26
9.24729e-26
6.40311e-25
3.92412e-24
2.21623e-23
1.17537e-22
6.12862e-22
3.27126e-21
1.85551e-20
1.14957e-19
7.75103e-19
5.22738e-18
3.64978e-17
2.42666e-16
3.15042e-38
1.381e-36
3.48043e-35
6.86664e-34
1.08995e-32
1.46315e-31
1.67428e-30
1.7269e-29
1.61216e-28
1.31209e-27
1.00974e-26
7.29035e-26
4.69595e-25
2.8054e-24
1.60272e-23
9.16514e-23
5.5119e-22
3.56284e-21
2.69989e-20
2.10427e-19
1.71358e-18
1.31933e-17
9.57487e-17
2.22365e-39
1.16534e-37
2.88698e-36
5.74889e-35
9.22095e-34
1.25429e-32
1.46218e-31
1.56353e-30
1.49828e-29
1.26509e-28
1.02682e-27
7.79446e-27
5.32475e-26
3.42347e-25
2.15626e-24
1.40845e-23
1.01963e-22
8.4184e-22
7.8807e-21
7.4841e-20
7.05607e-19
5.86457e-18
4.39856e-17
1.76216e-40
9.16685e-39
2.21234e-37
4.41713e-36
7.12948e-35
9.81336e-34
1.16623e-32
1.28703e-31
1.27673e-30
1.13106e-29
9.70054e-29
7.76895e-28
5.68426e-27
4.0022e-26
2.87048e-25
2.27353e-24
2.12521e-23
2.28825e-22
2.58565e-21
2.76896e-20
2.60337e-19
2.06797e-18
1.85689e-17
1.48609e-41
6.71488e-40
1.56857e-38
3.12018e-37
5.05889e-36
7.03992e-35
8.53196e-34
9.70206e-33
1.00236e-31
9.36478e-31
8.48577e-30
7.19953e-29
5.70393e-28
4.5014e-27
3.85605e-26
3.93356e-25
4.7638e-24
6.04495e-23
7.68785e-22
8.51358e-21
7.99634e-20
6.89684e-19
5.61129e-18
3.5124e-05
4.33596e-05
0.000147174
0.000182226
2.16772e-06
6.68271e-07
0.00912289
0.0387803
0.00468205
0.118431
0.202962
0.294285
0.2807
0.998155
1
1
0.999513
1
1
1
1
1
1
1
1
1
1
1
1
1
1
1
0.80408
0.732169
0.918756
1
1.3857e-08
2.55608e-07
0.201197
0.420143
2.26407e-08
6.40444e-08
8.75893e-08
1.30739e-07
9.85052e-09
1.13609e-08
1.16949e-08
1.14832e-08
2.62482e-09
2.98618e-09
1.41599e-08
2.60456e-08
2.79895e-09
2.9817e-09
2.25007e-08
7.96656e-08
9.17926e-07
3.65573e-07
2.91735e-07
2.5682e-07
8.75153e-07
6.14977e-07
4.51701e-07
2.04792e-07
8.2025e-08
1.58033e-07
1.5224e-07
5.17156e-08
1.03625e-08
3.95199e-09
2.13151e-09
2.31215e-09
1.89575e-09
2.12421e-09
2.30885e-09
1.97076e-09
9.78742e-10
1.07891e-09
1.31021e-09
1.3086e-09
5.66847e-10
6.86523e-10
7.66128e-10
8.16059e-10
2.75873e-10
2.91293e-10
3.53046e-10
3.96978e-10
1.04813e-10
1.31279e-10
1.45345e-10
1.6439e-10
3.30305e-11
3.10866e-11
4.46447e-11
5.3866e-11
8.69392e-12
1.06174e-11
1.03343e-11
1.52759e-11
2.17482e-12
1.88311e-12
2.92746e-12
3.96465e-12
6.61206e-13
8.03936e-13
8.5894e-13
1.37705e-12
3.64939e-13
4.16821e-13
6.58361e-13
1.01063e-12
2.87939e-13
4.06999e-13
5.99561e-13
1.18558e-12
2.60485e-13
3.64981e-13
7.42125e-13
1.41356e-12
2.14495e-13
3.73029e-13
6.83517e-13
1.67951e-12
1.44642e-13
2.56327e-13
6.88954e-13
1.44265e-12
7.35254e-14
1.89445e-13
4.34389e-13
1.18749e-12
3.98255e-14
9.74166e-14
3.08538e-13
7.56891e-13
1.85295e-14
5.48787e-14
1.52349e-13
4.57048e-13
8.46463e-15
2.52131e-14
8.00956e-14
2.18088e-13
3.34123e-15
1.14482e-14
3.70797e-14
1.1013e-13
1.52256e-15
5.38216e-15
1.70625e-14
5.14324e-14
6.14203e-16
2.45053e-15
8.34118e-15
2.49864e-14
3.14957e-16
1.11953e-15
3.57632e-15
1.23036e-14
1.25215e-16
4.58691e-16
1.5706e-15
4.78372e-15
3.93e-17
1.29488e-16
3.96523e-16
1.07247e-15
1.92011e-06
0.034668
0.254084
0.621244
0.835758
0.895887
0.941134
0.961427
0.978003
0.978183
0.951339
0.825749
0.379282
0.000238401
0.00902074
0.232323
0.21445
0.0236568
0.0516731
0.22127
0.468067
0.796767
0.99805
0.999328
0.998781
1
1
0.999946
0.999937
0.999965
0.999832
0.98046
0.508795
0.0333244
0.0156573
0.017319
0.241449
0.249967
0.704052
0.999998
1
1
1
1
1
1
1
1
1
1
1
0.991049
0.555968
0.0769248
0.140571
0.776579
0.329565
1
1
1
1
1
1
1
1
1
1
1
1
0.999617
0.997566
0.990496
0.748761
0.798001
0.922206
0.632451
1
1
1
1
1
1
1
1
1
0.999999
0.999999
1
0.99996
0.984149
0.973619
0.98652
0.988521
0.966124
0.405354
1
1
0.999999
0.999987
0.999975
0.999996
1
1
1
0.999999
0.999999
0.999999
1
0.998511
0.927264
0.889796
0.988512
0.912007
0.107116
1
1
0.999976
0.999857
0.999865
0.999962
1
1
1
1
1
1
1
0.999984
0.992171
0.785656
0.592192
0.475131
0.107548
1
1
0.999954
0.999865
0.999861
0.999968
1
1
1
1
0.999999
0.999999
0.999999
1
1
0.969333
0.725559
0.527368
0.111433
0.999497
1
1
1
0.999993
1
1
1
1
1
0.999998
0.999998
0.999998
1
1
0.999981
0.693515
0.219789
0.110748
0.581163
0.778409
0.940831
0.997664
1
1
1
1
1
1
0.999999
0.999998
0.999998
1
1
0.992562
0.764768
0.601034
0.533906
1.40381e-07
0.00146096
0.254889
0.534563
0.78769
0.939275
0.994474
1
1
1
1
1
1
1
1
1
0.998994
0.962161
0.882487
1.20269e-08
2.04923e-08
2.4135e-08
1.99535e-08
0.0228545
0.240095
0.481782
0.724721
0.873196
0.955788
0.989339
0.997301
0.9983
0.987923
0.925823
0.787172
0.487817
0.18964
0.0520477
2.64948e-08
1.98404e-08
2.52792e-08
2.68587e-08
4.06491e-08
6.17823e-08
4.36926e-08
-9.41414e-08
0.127548
0.273232
0.399792
0.467207
0.481609
0.359219
0.141718
0.0114497
0.00174499
0.00152157
0.00174513
4.8689e-08
2.31121e-08
4.44924e-08
1.13155e-07
2.72671e-07
5.03676e-07
5.16585e-07
5.24292e-07
3.73312e-07
2.76018e-07
3.76289e-07
5.06693e-07
3.75716e-07
2.22043e-07
2.95301e-07
5.20455e-07
0.00877935
0.0152589
0.00638101
6.41819e-08
8.32228e-09
1.74726e-08
5.75828e-08
3.19766e-07
1.19823e-06
2.83979e-06
1.63194e-06
8.15875e-07
4.51213e-07
3.70421e-07
7.61647e-07
7.8474e-07
5.22472e-07
8.14286e-07
0.00395377
0.0223977
0.0219175
0.0113565
4.83528e-08
8.21054e-09
3.5489e-09
9.63283e-09
3.85215e-08
7.62908e-07
3.89617e-06
3.97235e-06
2.73006e-06
8.92774e-07
5.39026e-07
2.38888e-06
3.28167e-06
1.71044e-06
1.14602e-06
0.00129601
0.00178433
0.00228865
6.10826e-06
8.51094e-09
2.57278e-09
3.09056e-09
8.35672e-09
1.45506e-08
2.63707e-08
4.00695e-07
3.21789e-06
3.62049e-06
3.68182e-06
1.74447e-06
3.56042e-06
7.70448e-06
9.55303e-06
1.24518e-05
6.18985e-06
6.15291e-06
6.11029e-06
6.09753e-06
1.67624e-09
1.86364e-09
2.36598e-09
5.06725e-09
1.13317e-08
1.20672e-08
1.18937e-08
1.69005e-08
2.27383e-06
3.62049e-06
3.57222e-06
7.21625e-07
3.67201e-08
1.03661e-08
2.72606e-07
1.19955e-05
0.000104434
0.00015291
6.12377e-06
1.66857e-09
1.93342e-09
2.13913e-09
3.00921e-09
7.80439e-09
1.1381e-08
1.10284e-08
9.88595e-09
9.81653e-09
1.21668e-06
2.4654e-06
6.94094e-07
2.32872e-08
1.173e-08
5.12958e-08
7.60533e-08
3.2338e-07
0.000163752
5.90059e-06
1.37342e-09
1.65268e-09
1.74142e-09
2.13779e-09
5.01058e-09
8.37965e-09
1.0251e-08
1.06432e-08
9.54449e-09
9.33501e-09
8.68644e-09
1.98899e-07
7.62334e-08
2.23421e-08
1.1121e-08
9.46063e-09
1.01774e-08
6.05775e-05
2.12632e-06
9.35946e-10
1.14526e-09
1.25564e-09
1.6258e-09
3.2124e-09
5.31354e-09
7.08053e-09
8.81906e-09
9.32684e-09
9.81464e-09
1.18693e-08
1.1801e-08
3.87537e-08
3.511e-08
2.13687e-08
1.63768e-08
1.93145e-08
1.33279e-08
1.36186e-07
5.41496e-10
6.77106e-10
8.29393e-10
1.1573e-09
1.95186e-09
3.11573e-09
4.27571e-09
5.49116e-09
6.49598e-09
7.78866e-09
1.11643e-08
1.46445e-08
1.96011e-08
2.11979e-08
1.91308e-08
1.58892e-08
1.31073e-08
1.50511e-08
3.13488e-08
2.5379e-10
3.632e-10
4.90754e-10
7.02391e-10
1.15385e-09
1.85452e-09
2.56461e-09
3.23477e-09
3.69232e-09
4.65815e-09
7.84169e-09
1.19699e-08
1.33776e-08
1.47072e-08
1.47935e-08
1.41794e-08
1.29403e-08
1.87918e-08
4.17038e-08
9.9374e-11
1.65162e-10
2.46181e-10
4.05364e-10
6.41683e-10
9.99157e-10
1.41519e-09
1.84891e-09
2.24459e-09
2.86562e-09
4.03412e-09
6.2761e-09
8.24767e-09
9.89809e-09
1.1851e-08
1.23524e-08
1.19015e-08
2.49557e-08
5.19342e-07
3.5065e-11
6.66458e-11
1.1927e-10
1.9569e-10
3.26731e-10
5.15162e-10
7.58994e-10
1.0241e-09
1.36433e-09
1.90136e-09
2.79359e-09
3.97351e-09
5.26984e-09
7.27383e-09
8.9231e-09
1.08841e-08
9.92866e-09
3.30454e-08
2.34348e-06
1.17085e-11
2.77793e-11
5.59438e-11
9.70026e-11
1.66689e-10
2.57939e-10
3.93377e-10
5.67915e-10
8.42681e-10
1.27697e-09
2.0638e-09
3.14325e-09
4.62014e-09
6.08805e-09
8.40388e-09
9.40073e-09
9.06455e-09
4.77198e-08
2.31883e-06
5.14486e-12
1.43834e-11
3.0893e-11
5.69492e-11
9.79062e-11
1.6131e-10
2.50324e-10
3.8688e-10
6.27857e-10
1.03607e-09
1.63541e-09
2.5391e-09
3.76722e-09
5.66148e-09
7.82326e-09
9.01386e-09
8.9979e-09
3.34899e-07
2.32366e-06
4.7774e-12
1.33251e-11
2.87931e-11
5.32523e-11
9.45449e-11
1.54962e-10
2.52968e-10
4.01575e-10
6.28785e-10
1.01311e-09
1.56653e-09
2.40772e-09
3.73155e-09
5.49532e-09
7.96459e-09
8.36289e-09
8.64212e-09
1.47015e-06
2.3423e-06
6.42185e-12
1.78049e-11
3.81545e-11
7.20897e-11
1.25403e-10
2.14744e-10
3.45194e-10
5.45773e-10
8.41582e-10
1.27735e-09
1.90193e-09
2.83778e-09
4.25172e-09
6.24914e-09
8.55065e-09
8.72041e-09
8.76704e-09
2.32356e-06
2.33503e-06
8.43629e-12
2.30067e-11
4.96513e-11
9.42733e-11
1.75345e-10
3.07659e-10
5.13426e-10
8.08233e-10
1.22728e-09
1.80851e-09
2.61742e-09
3.7507e-09
5.32396e-09
7.52693e-09
9.82219e-09
9.33063e-09
9.29473e-09
1.13456e-06
7.43499e-07
9.12842e-12
2.48337e-11
5.52382e-11
1.16342e-10
2.22781e-10
4.05746e-10
7.05808e-10
1.145e-09
1.75726e-09
2.55823e-09
3.66687e-09
5.13481e-09
7.0957e-09
9.62983e-09
1.15145e-08
1.08918e-08
1.20921e-08
5.83051e-08
4.76981e-09
8.05298e-12
2.24329e-11
5.35702e-11
1.11054e-10
2.40924e-10
4.9029e-10
8.89879e-10
1.47131e-09
2.33284e-09
3.3881e-09
5.05841e-09
7.03792e-09
9.45131e-09
1.25051e-08
1.34364e-08
1.81479e-08
7.27865e-08
4.92347e-09
4.96771e-09
5.4971e-12
1.59829e-11
4.20784e-11
9.8876e-11
2.2358e-10
4.73468e-10
9.04137e-10
1.67767e-09
2.71183e-09
4.36832e-09
6.59549e-09
9.16439e-09
1.18177e-08
1.51171e-08
2.85681e-08
4.16323e-08
8.98363e-08
2.84304e-08
5.36141e-09
3.23924e-12
9.95319e-12
2.90073e-11
7.43943e-11
1.83977e-10
4.11307e-10
8.6629e-10
1.66693e-09
2.95778e-09
5.02683e-09
7.91503e-09
1.03661e-08
1.15177e-08
2.12397e-08
8.72819e-08
1.51029e-07
1.18512e-07
3.20303e-08
5.30126e-09
1.63098e-12
5.4554e-12
1.70068e-11
4.87372e-11
1.26651e-10
3.12278e-10
6.90568e-10
1.43945e-09
2.77393e-09
4.98703e-09
7.7955e-09
8.84587e-09
9.05888e-09
6.76643e-08
1.46775e-07
1.60966e-07
1.2807e-07
3.20035e-08
3.26619e-09
7.55775e-13
2.75022e-12
9.30588e-12
2.89986e-11
8.23736e-11
2.1468e-10
5.221e-10
1.17698e-09
2.52912e-09
4.6071e-09
6.59216e-09
7.61391e-09
1.37783e-08
8.22697e-08
1.36844e-07
1.54293e-07
1.35199e-07
3.35799e-08
3.30071e-09
3.34267e-13
1.3305e-12
4.9517e-12
1.64441e-11
5.02757e-11
1.39238e-10
3.56976e-10
8.61646e-10
2.02562e-09
3.94697e-09
5.76293e-09
1.138e-08
2.47425e-08
2.59607e-08
4.53877e-08
1.10072e-07
4.32607e-08
1.56756e-08
2.08513e-09
1.57173e-13
6.73079e-13
2.64964e-12
9.48785e-12
2.99598e-11
8.58603e-11
2.32076e-10
5.76e-10
1.39918e-09
3.00396e-09
5.11849e-09
9.00118e-09
1.76634e-08
1.33123e-08
8.12864e-09
9.02997e-10
9.16017e-10
8.68342e-10
6.90613e-10
7.44889e-14
3.45841e-13
1.41229e-12
5.19021e-12
1.67863e-11
5.08622e-11
1.36765e-10
3.36227e-10
7.90553e-10
1.80469e-09
3.33398e-09
4.79746e-09
6.29622e-09
7.57288e-09
6.15569e-09
1.24478e-09
8.61859e-10
4.77531e-10
1.84109e-10
3.35956e-14
1.54209e-13
6.44733e-13
2.37097e-12
7.80535e-12
2.38746e-11
6.60636e-11
1.67327e-10
3.92524e-10
8.50345e-10
1.59749e-09
2.45353e-09
3.03292e-09
3.85752e-09
3.42576e-09
1.45404e-09
7.08035e-10
2.11335e-10
1.04045e-10
1.27303e-14
5.63264e-14
2.264e-13
8.26724e-13
2.73814e-12
8.42736e-12
2.38205e-11
6.1893e-11
1.45955e-10
3.08105e-10
5.83865e-10
9.38853e-10
1.22343e-09
1.3206e-09
9.84092e-10
4.04446e-10
1.4496e-10
9.27002e-11
3.01471e-11
2.63075e-15
1.14651e-14
4.69306e-14
1.7095e-13
5.70034e-13
1.80021e-12
5.16055e-12
1.34621e-11
3.19617e-11
6.86978e-11
1.26743e-10
1.99193e-10
2.52717e-10
2.45767e-10
1.76497e-10
6.33461e-11
4.31857e-11
1.13591e-11
3.73439e-12
)
;

boundaryField
{
    leftWall
    {
        type            alphaContactAngle;
        contactAngleProperties 
        {
            mercury         
            {
                theta0          90;
            }
            air             
            {
                theta0          90;
            }
            water           
            {
                theta0          90;
            }
        }
        value           nonuniform List<scalar> 
50
(
1.46463e-33
1.01621e-29
1.01538e-31
4.74336e-33
6.81838e-32
2.56276e-31
7.83936e-31
2.72111e-30
9.522e-29
3.99924e-27
5.17085e-22
1.25375e-19
3.44908e-20
3.73872e-21
2.17034e-23
5.31683e-25
3.22385e-25
3.02225e-25
5.13676e-25
1.08485e-24
1.82545e-24
2.28645e-24
2.24786e-24
1.97392e-24
1.53975e-24
1.06362e-24
6.55298e-25
3.62829e-25
1.83922e-25
8.53539e-26
3.47499e-26
1.20154e-26
3.53882e-27
9.18717e-28
2.2055e-28
5.11142e-29
1.15546e-29
2.49645e-30
5.0038e-31
9.09829e-32
1.48463e-32
2.17004e-33
2.85171e-34
3.36883e-35
3.59333e-36
3.48663e-37
3.15042e-38
2.22365e-39
1.76216e-40
1.48609e-41
)
;
    }
    rightWall
    {
        type            alphaContactAngle;
        contactAngleProperties 
        {
            mercury         
            {
                theta0          90;
            }
            air             
            {
                theta0          90;
            }
            water           
            {
                theta0          90;
            }
        }
        value           nonuniform List<scalar> 
50
(
0.037687
0.135809
0.223642
0.21603
0.10003
0.102402
0.0425004
0.0234583
0.0516731
0.249967
0.329565
0.632451
0.405354
0.107116
0.107548
0.111433
0.110748
0.533906
0.882487
0.0520477
0.00174513
0.00638101
0.0113565
6.10826e-06
6.09753e-06
6.12377e-06
5.90059e-06
2.12632e-06
1.36186e-07
3.13488e-08
4.17038e-08
5.19342e-07
2.34348e-06
2.31883e-06
2.32366e-06
2.3423e-06
2.33503e-06
7.43499e-07
4.76981e-09
4.96771e-09
5.36141e-09
5.30126e-09
3.26619e-09
3.30071e-09
2.08513e-09
6.90613e-10
1.84109e-10
1.04045e-10
3.01471e-11
3.73439e-12
)
;
    }
    lowerWall
    {
        type            alphaContactAngle;
        contactAngleProperties 
        {
            mercury         
            {
                theta0          90;
            }
            air             
            {
                theta0          90;
            }
            water           
            {
                theta0          90;
            }
        }
        value           nonuniform List<scalar> 
62
(
1.46463e-33
2.84797e-31
2.91989e-29
1.73895e-27
1.40618e-25
7.69284e-21
1.51757e-17
1.41695e-15
1.09365e-14
6.75788e-14
3.28537e-13
1.33692e-12
4.70965e-12
1.45018e-11
3.84206e-11
8.94202e-11
2.35816e-10
9.66301e-10
4.22328e-09
7.31373e-09
0.000135506
0.000568663
0.000568602
0.000568602
0.000513773
3.48341e-08
1.00948e-07
1.47285e-05
2.58624e-05
2.5942e-05
1.92577e-05
3.5124e-05
4.33596e-05
0.000147174
0.000182226
0.951457
0.951451
0.857237
0.846972
0.360706
1.0306e-24
1.38641e-06
1.88963e-06
0.951457
0.951472
0.951471
0.949614
0.942441
0.940058
0.908648
0.769233
0.538322
0.487953
0.520862
0.641803
0.707794
0.707794
0.707794
0.340939
0.037689
0.0376876
0.037687
)
;
    }
    atmosphere
    {
        type            inletOutlet;
        inletValue      uniform 0;
        value           nonuniform List<scalar> 
46
(
1.48609e-41
6.71488e-40
1.56857e-38
3.12018e-37
5.05889e-36
7.03992e-35
8.53196e-34
9.70206e-33
1.00236e-31
9.36478e-31
8.48577e-30
7.19953e-29
5.70393e-28
4.5014e-27
3.85605e-26
3.93356e-25
4.7638e-24
6.04495e-23
7.68785e-22
8.51358e-21
7.99634e-20
6.89684e-19
5.61129e-18
3.93e-17
1.29488e-16
3.96523e-16
0
0
0
0
0
0
0
0
0
0
0
0
0
0
0
0
0
0
0
0
)
;
    }
    defaultFaces
    {
        type            empty;
    }
}


// ************************************************************************* //
