/*--------------------------------*- C++ -*----------------------------------*\
  =========                 |
  \\      /  F ield         | OpenFOAM: The Open Source CFD Toolbox
   \\    /   O peration     | Website:  https://openfoam.org
    \\  /    A nd           | Version:  13
     \\/     M anipulation  |
\*---------------------------------------------------------------------------*/
FoamFile
{
    format      ascii;
    class       volScalarField;
    location    "0.8";
    object      alpha.water;
}
// * * * * * * * * * * * * * * * * * * * * * * * * * * * * * * * * * * * * * //

dimensions      [];

internalField   nonuniform List<scalar> 
2268
(
4.76146e-12
1.65023e-11
2.87945e-11
3.13015e-11
3.21794e-11
3.13327e-11
2.7247e-11
2.38578e-11
2.29358e-11
2.42464e-11
2.74491e-11
3.19668e-11
3.82016e-11
4.75754e-11
6.31578e-11
9.08561e-11
1.47296e-10
2.75506e-10
5.56774e-10
1.07289e-09
2.11692e-09
2.58955e-09
2.62596e-09
4.94715e-12
4.57011e-11
6.50169e-11
9.0701e-11
1.31528e-10
1.70684e-10
1.78434e-10
1.61272e-10
1.29294e-10
1.02887e-10
8.5359e-11
8.97322e-11
1.10071e-10
1.38268e-10
1.7302e-10
2.23799e-10
3.14594e-10
4.93115e-10
8.43852e-10
1.39499e-09
2.25043e-09
2.61646e-09
2.70229e-09
8.97185e-13
4.47544e-12
6.72951e-12
5.94845e-12
4.55732e-11
1.27308e-10
2.88865e-10
4.73321e-10
5.95544e-10
5.66488e-10
4.5088e-10
3.26366e-10
2.90485e-10
2.92757e-10
2.99911e-10
3.46746e-10
4.55267e-10
6.6069e-10
1.122e-09
2.38549e-09
3.91661e-09
4.67931e-09
4.26362e-09
0.0535595
0.0462997
1.84641e-08
8.86599e-09
1.17627e-11
3.55803e-11
1.3026e-10
3.04969e-10
5.28646e-10
8.16351e-10
1.05358e-09
1.18564e-09
1.02704e-09
6.62357e-10
4.58168e-10
4.89262e-10
5.28973e-10
7.63387e-10
1.5136e-09
3.3381e-09
5.29032e-09
5.51743e-09
4.92107e-09
0.789663
0.714086
0.541336
0.261241
0.0492151
3.15643e-10
4.64781e-11
4.82831e-11
2.02321e-10
4.40128e-10
8.29175e-10
1.18154e-09
1.36592e-09
1.11266e-09
1.36971e-09
1.54692e-09
3.86513e-10
4.31342e-10
7.34499e-10
1.402e-09
2.4355e-09
2.43182e-09
1.10286e-09
1
1
0.998999
0.947961
0.749062
0.368842
0.0745614
7.76719e-09
1.22177e-10
8.07597e-10
3.56412e-09
7.4632e-09
1.041e-08
1.18143e-08
1.25231e-08
1.22501e-08
8.90074e-11
7.15467e-11
9.09684e-11
7.00861e-11
9.11133e-11
7.20317e-11
9.80915e-11
1
1
1
1
1
0.983387
0.831481
0.522758
0.217072
0.0578853
0.0173215
0.01069
0.00402856
0.00302697
0.00834433
0.0166904
0.025529
0.0375759
0.0587181
0.0973028
0.172484
0.281908
0.36808
1
1
1
1
1
1
1
0.998287
0.949304
0.845864
0.697411
0.529335
0.440489
0.417292
0.455466
0.493885
0.527187
0.569974
0.629657
0.708646
0.827698
0.91807
0.951004
2.34468e-07
4.36223e-07
3.34696e-08
3.20318e-19
2.8222e-19
3.66599e-20
5.58872e-20
4.43155e-20
1.18267e-05
6.26125e-06
-3.69652e-32
-2.97234e-23
1.44638e-12
0.000181608
0.000110171
1.33493e-05
2.83869e-05
4.1303e-05
2.42114e-05
8.30401e-07
2.01598e-06
6.09456e-08
0.0158699
0.0797143
0.118466
0.0970519
0.0792049
0.0795481
0.0846645
0.0801406
0.0646612
0.0527023
0.0293941
0.000240995
1.33358e-05
1.2854e-05
1.38107e-05
6.59937e-08
6.37318e-07
5.85341e-06
0.1356
0.395806
0.539828
0.552205
0.617463
0.705286
0.704898
0.652862
0.533042
0.387935
0.227686
0.149464
0.0533401
0.00701054
0.000446841
2.5736e-07
5.92007e-08
6.52093e-07
0.147428
0.64676
0.882076
0.937306
0.946181
0.99073
0.999704
0.999704
0.999704
0.997101
0.977609
0.952698
0.659978
0.202936
0.029833
0.00118334
4.08553e-09
4.81722e-08
0.39614
0.724622
0.834908
0.994771
0.999705
0.999705
0.999705
0.999704
0.999704
0.999704
0.999704
0.996242
0.99671
0.913072
0.338102
0.0466471
0.00110874
1.68526e-09
2.7952e-09
0.788223
0.86004
0.999705
0.999705
0.999705
0.999705
0.999705
0.999705
0.999704
0.999701
0.999702
0.999321
0.999209
0.999112
0.3857
0.0270984
2.22659e-05
1.71098e-09
0.0770465
0.952598
0.999224
0.999704
0.997898
0.996482
0.996216
0.991257
0.98582
0.981751
0.982939
0.999598
0.999634
0.999634
0.999633
0.505418
0.0198428
3.96449e-10
6.78829e-11
0.196673
0.988234
0.982132
0.871684
0.869536
0.724383
0.624255
0.558653
0.516615
0.488598
0.479077
0.600541
0.89208
0.999633
0.999633
0.882206
0.0179477
7.292e-09
0.184623
0.204663
1
1
1
1
1
1
1
1
1
1
1
1
1
1
0.973577
0.961094
0.961335
0.971715
0.985684
0.999262
0.999998
0.999996
0.999992
1
1
1
1
1
1
1
1
1
1
1
1
1
1
1
1
1
1
1
1
0.999999
0.999996
0.999994
1
1
1
1
1
1
1
1
1
1
1
1
1
1
1
1
1
1
1
1
0.999996
0.998962
0.922093
1
1
1
1
1
1
1
1
1
1
1
1
1
0.999875
0.996344
0.988351
0.976363
0.958694
0.941777
0.935619
0.850106
0.276741
0.0261719
1
1
1
0.993462
0.977214
0.962098
0.949969
0.942657
0.934497
0.91536
0.851531
0.772363
0.681361
0.584346
0.512993
0.468126
0.450198
0.450182
0.42022
0.323857
0.12907
0.00645653
1.56854e-06
0.702466
0.588552
0.457829
0.367934
0.31275
0.269102
0.230044
0.186039
0.128805
0.0702629
0.0388266
0.0163869
7.9652e-08
1.80266e-08
0.00103003
0.00226135
0.00164755
0.00310391
0.00928521
0.017848
0.000632765
-1.9876e-13
-2.22141e-17
0.0371927
0.011189
0.000525129
9.82958e-08
9.19509e-08
9.20672e-08
8.90244e-08
9.16286e-08
1.14851e-07
1.57832e-07
1.10709e-09
1.53756e-12
2.23846e-10
1.92123e-09
-4.74961e-22
1.06196e-14
-1.11013e-20
1.06207e-14
0.000224088
5.00005e-08
0.000136317
2.00293e-13
4.67394e-18
3.37032e-07
2.51634e-07
7.59012e-09
5.24449e-09
3.84914e-09
2.72212e-09
1.66558e-09
8.93408e-10
5.01522e-10
3.97897e-10
3.02334e-12
2.16283e-12
1.0204e-11
9.18655e-11
2.29941e-11
2.89696e-11
5.92643e-12
-5.25956e-16
7.31767e-09
1.06589e-07
1.68487e-06
1.73982e-08
-5.61241e-27
3.61476e-08
1.37872e-08
8.85922e-10
5.70787e-10
4.49302e-10
5.18442e-10
1.4282e-10
2.38223e-11
1.8606e-12
7.44071e-14
1.07973e-12
5.93302e-12
2.39784e-11
6.62127e-11
2.03646e-10
5.47254e-10
5.29432e-10
1.31155e-11
6.29715e-09
1.54141e-08
1.01227e-09
2.59211e-10
2.24051e-10
7.60873e-09
3.08295e-09
8.33359e-10
3.99012e-10
2.64186e-10
2.57798e-10
6.3344e-11
7.38556e-12
3.4255e-13
1.21064e-13
1.52173e-12
8.48322e-12
3.0693e-11
8.05725e-11
1.85443e-10
7.13332e-10
2.60898e-09
3.66307e-09
4.53103e-09
2.7803e-09
1.18107e-09
1.28532e-09
2.85769e-09
4.78265e-09
1.80591e-09
5.43995e-10
2.28453e-10
1.20295e-10
8.57001e-11
2.04206e-11
2.17206e-12
6.07258e-14
1.88401e-13
1.6481e-12
8.24377e-12
2.92594e-11
7.50639e-11
1.44896e-10
3.9982e-10
1.65892e-09
1.76781e-08
4.20577e-08
4.27356e-08
3.89628e-09
1.4233e-09
7.02599e-09
2.07815e-09
7.31101e-10
2.37583e-10
9.33797e-11
4.1695e-11
2.26294e-11
5.27744e-12
5.31952e-13
6.35455e-15
1.7111e-13
1.31776e-12
6.49039e-12
2.31252e-11
6.27171e-11
1.27045e-10
2.52903e-10
1.49577e-09
1.58899e-08
5.94756e-08
5.82677e-08
1.49822e-08
8.3047e-10
6.21278e-09
6.2694e-10
2.17655e-10
7.47719e-11
2.84595e-11
1.14648e-11
5.07149e-12
1.15434e-12
1.0564e-13
2.85793e-15
1.30633e-13
8.9953e-13
4.41439e-12
1.59888e-11
4.60687e-11
1.047e-10
1.95568e-10
5.35123e-10
3.7254e-09
3.86162e-08
5.95597e-08
4.09298e-08
6.35581e-10
3.88858e-08
1.40541e-10
4.94708e-11
1.794e-11
6.76152e-12
2.47923e-12
9.45425e-13
2.05996e-13
1.53126e-14
5.41824e-15
8.69793e-14
5.47347e-13
2.62561e-12
9.70142e-12
2.9542e-11
7.48427e-11
1.57966e-10
3.25511e-10
9.34604e-10
1.91438e-09
2.73571e-08
6.80926e-08
2.6363e-07
4.21258e-07
2.35598e-11
8.5771e-12
3.30004e-12
1.25019e-12
4.40762e-13
1.50527e-13
3.00749e-14
1.21324e-15
6.07367e-15
5.1934e-14
2.99636e-13
1.40579e-12
5.25022e-12
1.64543e-11
4.50296e-11
1.07606e-10
2.35634e-10
4.33107e-10
4.20515e-10
3.55185e-10
3.56744e-08
4.11604e-07
2.92524e-06
3.06978e-12
1.18468e-12
4.88935e-13
1.88332e-13
6.61221e-14
2.04077e-14
3.32847e-15
1.45368e-16
4.51226e-15
2.82074e-14
1.48811e-13
6.80499e-13
2.5658e-12
8.11375e-12
2.30271e-11
6.13117e-11
1.51336e-10
2.97263e-10
4.02649e-10
3.56014e-10
1.36896e-08
1.0257e-07
2.61806e-06
3.26886e-13
1.37086e-13
6.10638e-14
2.39623e-14
8.23821e-15
2.19672e-15
1.85944e-16
2.61542e-16
2.76722e-15
1.38105e-14
6.69654e-14
2.97284e-13
1.13684e-12
3.65998e-12
1.06846e-11
3.01359e-11
7.9632e-11
1.8256e-10
2.92597e-10
2.24931e-10
7.12049e-09
7.70489e-08
2.42642e-07
2.93656e-14
1.35755e-14
6.50753e-15
2.56246e-15
8.07923e-16
1.48699e-16
-1.51457e-17
2.03112e-16
1.39656e-15
6.34693e-15
2.83464e-14
1.21465e-13
4.69422e-13
1.53463e-12
4.54295e-12
1.31353e-11
3.71371e-11
9.61705e-11
1.63785e-10
2.11547e-10
3.61023e-09
8.83851e-09
2.46741e-08
2.26285e-15
1.1529e-15
5.89016e-16
2.21546e-16
5.30133e-17
-3.6689e-18
-1.16823e-18
9.74113e-17
5.72025e-16
2.54971e-15
1.09787e-14
4.56342e-14
1.76578e-13
5.88056e-13
1.77206e-12
5.15775e-12
1.53335e-11
4.29785e-11
8.54134e-11
1.48546e-10
1.1432e-09
2.40983e-09
1.40524e-09
1.51584e-16
8.42072e-17
4.50328e-17
1.39674e-17
1.21614e-19
-3.0285e-18
2.05966e-18
3.39448e-17
1.90677e-16
8.65399e-16
3.73727e-15
1.53612e-14
5.94651e-14
2.01738e-13
6.23887e-13
1.83144e-12
5.54247e-12
1.65443e-11
3.84989e-11
8.10323e-11
3.64607e-10
4.24285e-10
3.40254e-10
8.93681e-18
5.33041e-18
2.87511e-18
3.54636e-19
-6.07602e-19
-5.44066e-19
9.23217e-19
9.12174e-18
5.17817e-17
2.44184e-16
1.08521e-15
4.5103e-15
1.75966e-14
6.08932e-14
1.94371e-13
5.82336e-13
1.77285e-12
5.55397e-12
1.40052e-11
3.71709e-11
1.15499e-10
1.90442e-10
2.17875e-10
4.67894e-19
2.94486e-19
1.46971e-19
-5.9178e-20
-1.13045e-19
-6.33261e-20
2.34452e-19
1.94348e-18
1.14689e-17
5.6842e-17
2.64134e-16
1.13119e-15
4.4951e-15
1.59402e-14
5.28196e-14
1.63005e-13
5.02599e-13
1.61964e-12
4.29887e-12
1.26448e-11
3.33792e-11
5.77275e-11
1.14396e-10
2.18855e-20
1.42025e-20
5.08189e-21
-1.20081e-20
-1.39578e-20
-5.13015e-21
4.28732e-20
3.33773e-19
2.07701e-18
1.0886e-17
5.34054e-17
2.39105e-16
9.77614e-16
3.57407e-15
1.21716e-14
3.95231e-14
1.24679e-13
4.0816e-13
1.13403e-12
3.56366e-12
8.82719e-12
2.09318e-11
4.6759e-11
9.19227e-22
5.89847e-22
-1.03769e-23
-1.39335e-21
-1.36071e-21
-2.46537e-22
6.0886e-21
4.67671e-20
3.0881e-19
1.71582e-18
8.93954e-18
4.20382e-17
1.78348e-16
6.76215e-16
2.34046e-15
8.0586e-15
2.6524e-14
8.83607e-14
2.5435e-13
8.66056e-13
2.07359e-12
3.42682e-12
1.51193e-11
3.48278e-23
2.01324e-23
-2.05611e-23
-1.24968e-22
-1.10534e-22
2.82447e-24
6.96263e-22
5.40102e-21
3.78932e-20
2.23184e-19
1.23359e-18
6.08398e-18
2.69331e-17
1.06361e-16
3.78004e-16
1.35242e-15
4.71006e-15
1.61004e-14
4.85094e-14
1.66962e-13
4.18093e-13
9.15688e-13
3.25433e-12
1.19182e-24
4.74768e-25
-2.19998e-24
-9.33684e-24
-7.67077e-24
1.99108e-24
6.55478e-23
5.18954e-22
3.86171e-21
2.39967e-20
1.39749e-19
7.24922e-19
3.35587e-18
1.38237e-17
5.15102e-17
1.88614e-16
6.89469e-16
2.43321e-15
7.88957e-15
2.5664e-14
7.02791e-14
8.68517e-14
7.36024e-13
3.65097e-26
-8.474e-28
-1.63837e-25
-5.99566e-25
-4.61621e-25
2.40468e-25
5.16209e-24
4.18669e-23
3.28605e-22
2.13322e-21
1.30364e-20
7.18135e-20
3.47436e-19
1.49141e-18
5.88201e-18
2.226e-17
8.45047e-17
3.09381e-16
1.08436e-15
3.45968e-15
9.70996e-15
1.73861e-14
1.02415e-13
9.6685e-28
-9.78417e-28
-9.99254e-27
-3.36712e-26
-2.43532e-26
1.96366e-26
3.44552e-25
2.8591e-24
2.34268e-23
1.57433e-22
1.01393e-21
5.97738e-21
3.0148e-20
1.34536e-19
5.58667e-19
2.21824e-18
8.79356e-18
3.35837e-17
1.22398e-16
4.17073e-16
1.13711e-15
1.05218e-15
1.4662e-14
1.96177e-29
-7.64992e-29
-5.26049e-28
-1.67342e-27
-1.13647e-27
1.26487e-27
1.97179e-26
1.66262e-25
1.40565e-24
9.7653e-24
6.68063e-23
4.20006e-22
2.19954e-21
1.01678e-20
4.39815e-20
1.834e-19
7.65083e-19
3.05621e-18
1.10202e-17
4.20329e-17
4.90917e-17
1.40523e-16
8.76656e-16
1.24408e-31
-4.26944e-30
-2.45014e-29
-7.42885e-29
-4.72908e-29
6.52223e-29
9.7784e-28
8.27529e-27
7.17445e-26
5.18543e-25
3.77153e-24
2.49227e-23
1.34772e-22
6.4216e-22
2.86444e-21
1.24043e-20
5.41902e-20
2.25703e-19
7.92355e-19
3.35174e-18
5.56937e-18
7.31234e-18
1.07321e-16
-1.54463e-32
-1.99678e-31
-1.02442e-30
-2.96935e-30
-1.7678e-30
2.78958e-30
4.24975e-29
3.55491e-28
3.17081e-27
2.39739e-26
1.83284e-25
1.25085e-24
6.93773e-24
3.38529e-23
1.54319e-22
6.83732e-22
3.08588e-21
1.3288e-20
4.65967e-20
2.06464e-19
2.30609e-19
4.80521e-19
3.51518e-18
-1.15927e-33
-8.23644e-33
-3.88343e-32
-1.07626e-31
-5.97783e-32
1.09101e-31
1.58771e-30
1.33785e-29
1.23787e-28
9.74353e-28
7.6847e-27
5.34262e-26
3.01703e-25
1.49634e-24
6.90781e-24
3.08672e-23
1.41865e-22
6.23732e-22
2.26489e-21
9.89301e-21
1.32879e-20
1.71864e-20
2.51912e-19
-5.71549e-35
-3.06673e-34
-1.34491e-33
-3.56036e-33
-1.84052e-33
4.0635e-33
5.0597e-32
4.5035e-31
4.33065e-30
3.49292e-29
2.7938e-28
1.96238e-27
1.12e-26
5.71121e-26
2.61331e-25
1.16246e-24
5.33153e-24
2.37752e-23
9.0126e-23
3.81746e-22
4.04291e-22
5.93554e-22
4.56979e-21
-2.34495e-36
-1.04403e-35
-4.28152e-35
-1.08134e-34
-5.19115e-35
1.38224e-34
1.48875e-33
1.34924e-32
1.36629e-31
1.10755e-30
8.94811e-30
6.2784e-29
3.59691e-28
7.15617e-28
6.45111e-27
2.83287e-26
1.66244e-25
5.3203e-25
2.72899e-24
9.43413e-24
1.28557e-23
1.19364e-23
1.87562e-22
-8.53041e-38
-3.27639e-37
-1.25953e-36
-3.03143e-36
-1.34882e-36
3.12164e-36
3.29325e-35
3.54082e-34
3.80874e-33
3.12721e-32
1.92984e-31
1.77265e-30
1.0094e-29
4.25495e-29
1.94003e-28
7.84137e-28
4.38045e-27
1.31328e-26
6.56316e-26
2.47633e-25
2.78389e-25
2.10353e-25
3.02887e-24
-2.82387e-39
-9.53429e-39
-3.43968e-38
-7.88221e-38
-3.24521e-38
8.45905e-38
9.30252e-37
8.54333e-36
9.12581e-35
7.79105e-34
5.03511e-33
4.47281e-32
2.47744e-31
1.24837e-30
5.54749e-30
1.93515e-29
9.94758e-29
3.17504e-28
1.44969e-27
5.39342e-27
6.65085e-27
6.64793e-27
6.78566e-26
-8.62116e-41
-2.58485e-40
-8.75536e-40
-1.90898e-39
-7.26305e-40
2.51484e-39
2.72126e-38
2.03561e-37
1.9479e-36
1.68234e-35
1.33762e-34
1.0195e-33
5.33808e-33
2.77335e-32
1.20293e-31
3.78258e-31
2.03528e-30
6.73947e-30
3.23161e-29
1.22449e-28
2.98568e-28
1.22592e-27
8.45936e-27
-2.44797e-42
-6.55574e-42
-2.08463e-41
-4.32161e-41
-1.51763e-41
5.38077e-41
5.66702e-40
4.61423e-39
4.03834e-38
3.2936e-37
2.61806e-36
2.1233e-35
1.04453e-34
5.6633e-34
2.44241e-33
8.35771e-33
4.67138e-32
2.21142e-31
1.35184e-30
8.68615e-30
5.4611e-29
3.9122e-28
2.69125e-27
-6.50725e-44
-1.5609e-43
-4.65658e-43
-9.17355e-43
-2.96969e-43
1.09363e-42
1.11095e-41
9.27845e-41
8.25283e-40
6.52832e-39
5.21404e-38
4.12837e-37
2.02726e-36
1.17294e-35
5.94157e-35
3.36579e-34
2.80003e-33
2.41805e-32
2.27052e-31
2.01421e-30
1.75173e-29
1.40103e-28
1.03763e-27
-1.62969e-45
-3.49992e-45
-9.7817e-45
-1.83051e-44
-5.45884e-45
2.18953e-44
2.15067e-43
1.69471e-42
1.59995e-41
1.33824e-40
1.08873e-39
8.1883e-39
4.98795e-38
3.97976e-37
3.7667e-36
4.29679e-35
5.23553e-34
6.16944e-33
7.01722e-32
7.33437e-31
7.22962e-30
6.13249e-29
4.63419e-28
-3.87188e-47
-7.40997e-47
-1.93562e-46
-3.44006e-46
-9.45108e-47
4.25625e-46
4.06831e-45
3.05441e-44
3.04145e-43
2.75138e-42
2.52227e-41
2.36283e-40
2.63356e-39
3.72605e-38
5.76862e-37
9.01678e-36
1.35489e-34
1.89794e-33
2.42686e-32
2.74452e-31
2.64119e-30
2.11628e-29
1.89655e-28
-8.79506e-49
-1.48349e-48
-3.6113e-48
-6.09631e-48
-1.54381e-48
7.73056e-48
7.30546e-47
5.75224e-46
6.38889e-45
6.99073e-44
9.45786e-43
1.51089e-41
2.80538e-40
5.56421e-39
1.1031e-37
2.07975e-36
3.56854e-35
5.34022e-34
7.33131e-33
8.39222e-32
7.98626e-31
6.90106e-30
5.59033e-29
0.90174
0.824131
0.796174
0.771009
0.994035
0.924782
0.711598
0.376854
0.330069
0.0857905
-2.29739e-09
-4.95757e-26
-3.8484e-11
-4.60634e-26
9.48409e-09
2.77052e-08
-3.70554e-09
2.95119e-08
3.01968e-08
1.56672e-08
8.63471e-12
5.9338e-12
4.80274e-12
2.7314e-11
2.11569e-10
2.44511e-10
2.30044e-10
2.25708e-10
1.05227e-10
1.12203e-10
1.04428e-10
1.0001e-10
3.08665e-10
7.3479e-11
6.94636e-11
6.56761e-11
6.35148e-09
8.82226e-09
2.38581e-09
6.94636e-11
7.7786e-09
9.53099e-08
1.34233e-07
7.64751e-08
2.9262e-08
7.02832e-08
2.63429e-07
2.9242e-07
1.72461e-07
5.02995e-07
3.33741e-06
3.1353e-06
4.52435e-07
2.32489e-06
5.13148e-06
5.13148e-06
4.23883e-06
5.13148e-06
5.13148e-06
5.13148e-06
5.10798e-06
5.13148e-06
5.13148e-06
5.13148e-06
7.4536e-07
1.80108e-06
2.71583e-06
3.85247e-06
7.85494e-08
4.7758e-08
2.22603e-07
5.05962e-07
3.59862e-09
2.46758e-08
7.5258e-08
1.91786e-07
2.87473e-10
2.23643e-10
3.0506e-08
5.82022e-08
2.34093e-10
6.28033e-10
6.46209e-09
1.27222e-08
1.52788e-10
2.09082e-10
1.14496e-09
2.27611e-09
6.58402e-11
9.77341e-11
2.21776e-10
4.06131e-10
2.22931e-11
2.4141e-11
5.04795e-11
8.24181e-11
5.83634e-12
8.03654e-12
8.69871e-12
1.85246e-11
1.22293e-12
1.02234e-12
2.10742e-12
3.64696e-12
2.01514e-13
2.3224e-13
2.1947e-13
5.77743e-13
2.67742e-14
1.72375e-14
3.56257e-14
6.68234e-14
2.52606e-15
2.25735e-15
2.01421e-15
5.98452e-15
1.75556e-16
1.89178e-16
2.02052e-16
6.49488e-17
1.11083e-17
1.52539e-17
1.25309e-17
1.6861e-18
5.12485e-19
6.10237e-19
4.95602e-19
9.94322e-20
7.41289e-21
1.98642e-20
1.13636e-20
2.39622e-21
3.19269e-22
2.46971e-22
2.04574e-22
3.5531e-23
6.79214e-24
4.82221e-24
3.15604e-24
6.39297e-24
1.93962e-25
3.45666e-25
1.01177e-24
2.77581e-24
3.976e-26
1.35251e-25
4.45313e-25
1.34758e-24
1.72118e-26
6.1488e-26
1.96324e-25
5.98769e-25
6.71599e-27
2.69021e-26
9.16391e-26
2.74229e-25
3.31702e-27
1.17507e-26
3.72438e-26
1.26844e-25
1.26958e-27
4.59535e-27
1.55085e-26
4.65089e-26
3.87592e-28
1.26286e-27
3.82009e-27
1.01609e-26
0.740615
0.62442
0.423124
0.260845
0.121698
0.0748581
0.0473909
0.0321691
0.0192083
0.0213027
0.0481978
0.173655
0.620299
0.999628
0.98058
0.433422
0.345904
0.557531
0.136819
0.190679
0.00398928
7.81499e-26
7.08274e-26
-2.15347e-26
1.63413e-25
-2.34745e-11
-1.17925e-10
-3.0668e-26
-2.40942e-27
3.52843e-20
-3.27551e-19
0.0193944
0.491199
0.965399
0.901612
0.874333
0.446353
0.00491803
1.09456e-18
7.8255e-15
2.21422e-08
2.77407e-08
2.37486e-08
2.99939e-08
4.19268e-08
7.00363e-08
7.01491e-08
6.2577e-08
3.46552e-08
4.18965e-08
3.72076e-08
0.00895123
0.443938
0.908084
0.835897
0.0444449
1.75275e-06
3.48227e-08
4.09722e-08
3.80786e-08
1.36071e-08
2.94262e-10
7.01964e-09
2.31507e-08
2.23597e-08
6.80878e-09
1.06987e-09
1.83169e-09
1.76008e-09
2.21911e-10
0.000461973
0.00950385
0.251219
0.199354
1.38799e-06
1.74544e-06
1.1057e-09
5.7381e-11
6.31794e-11
5.7124e-11
3.11842e-10
7.57076e-11
6.55999e-11
6.8946e-11
6.55934e-11
6.50591e-10
1.48444e-09
1.30249e-09
1.837e-10
4.96332e-05
0.00184642
0.013158
0.0103194
1.37988e-06
2.06764e-06
4.6734e-11
2.81972e-10
5.72317e-10
8.87698e-10
1.04105e-09
1.04158e-09
9.76643e-10
9.54816e-10
8.86067e-10
7.37085e-10
6.32931e-10
4.61465e-10
2.22401e-10
8.22387e-09
0.0002876
0.00304687
0.00466486
1.36773e-05
1.06358e-06
2.22844e-10
2.4511e-10
3.16763e-10
4.08511e-10
5.54645e-10
6.60623e-10
6.88261e-10
6.32684e-10
4.66384e-10
3.41528e-10
2.39432e-10
1.92265e-10
1.82543e-10
3.18723e-07
1.71538e-06
3.1342e-10
4.18084e-10
2.05535e-06
5.09348e-08
8.28741e-11
6.53245e-11
5.73686e-11
8.39419e-11
1.57189e-10
2.38843e-10
3.15645e-10
3.4391e-10
3.55843e-10
3.06458e-10
2.31271e-10
1.89985e-10
1.81987e-10
1.86436e-10
1.81179e-10
2.20766e-10
1.17806e-08
3.73513e-07
5.70376e-08
5.3502e-11
4.389e-11
3.95854e-11
4.26996e-11
8.23977e-11
1.28975e-10
1.64157e-10
1.85604e-10
1.97566e-10
2.01765e-10
1.68094e-10
1.58394e-10
1.68899e-10
2.47539e-10
4.02131e-10
1.47497e-09
2.85449e-09
1.64532e-09
2.20764e-09
4.89689e-10
5.14035e-11
4.60655e-11
4.09226e-11
4.34386e-11
5.62298e-11
6.68982e-11
7.6657e-11
7.73632e-11
9.01599e-11
1.05138e-10
1.11599e-10
1.11298e-10
1.54068e-10
3.24551e-10
7.15544e-10
1.16907e-09
1.39621e-09
1.68469e-09
4.18881e-08
5.36844e-11
2.0386e-10
1.08231e-10
4.39062e-11
2.33687e-11
1.72035e-11
1.65853e-11
2.32187e-11
3.70866e-11
4.9867e-11
5.67358e-11
5.8871e-11
6.09974e-11
6.29123e-11
5.86746e-11
5.2638e-11
4.83073e-11
4.68205e-11
1.00234e-07
3.69062e-09
6.87125e-10
6.22777e-10
2.30953e-10
5.99011e-11
1.29397e-11
8.07013e-12
6.5254e-12
8.23804e-12
1.11524e-11
1.3919e-11
1.50578e-11
1.48078e-11
9.31661e-12
4.28602e-12
1.13396e-12
5.39811e-14
4.79196e-14
1.61683e-07
1.45485e-08
1.10761e-09
1.65438e-09
8.79725e-10
2.2075e-10
5.28148e-11
1.18121e-11
4.4481e-12
2.72478e-12
1.91309e-12
1.8338e-12
1.86827e-12
1.70653e-12
9.28903e-13
3.13372e-13
1.02074e-13
5.25917e-14
4.27135e-14
2.08739e-06
1.95989e-08
1.04547e-09
3.37392e-09
2.73138e-09
3.51608e-10
1.63868e-10
6.23647e-11
2.33654e-11
4.73334e-12
1.34892e-12
3.65712e-13
2.26124e-13
1.4369e-13
6.15809e-14
2.69442e-14
2.13896e-14
8.86253e-15
2.06113e-16
4.94968e-06
3.01639e-07
2.77899e-09
7.79891e-09
4.52065e-09
1.77498e-09
6.2138e-10
2.13265e-10
1.03482e-10
2.71024e-11
5.68018e-12
6.74889e-13
3.68401e-13
1.58712e-13
6.26867e-14
8.11162e-14
1.36032e-13
1.5632e-14
2.10104e-16
5.13147e-06
2.09258e-06
2.15525e-08
1.29195e-08
5.84205e-09
3.98197e-09
2.18741e-09
7.14579e-10
2.19397e-10
5.50208e-11
1.58739e-11
2.74876e-12
1.42195e-12
5.88073e-13
5.66942e-13
5.40955e-13
3.78012e-13
3.50574e-14
5.82675e-16
5.13123e-06
1.97851e-06
1.3543e-07
2.02566e-08
4.41754e-09
4.24153e-09
3.30405e-09
1.27447e-09
5.37142e-10
1.72624e-10
5.22568e-11
1.73158e-11
8.07793e-12
3.85314e-12
2.65622e-12
1.65177e-12
7.06305e-13
1.05063e-13
2.01446e-15
1.22982e-06
4.83392e-07
1.13629e-07
2.95952e-08
5.33516e-09
2.52238e-09
2.39273e-09
1.75437e-09
8.43263e-10
3.18243e-10
1.15181e-10
4.67888e-11
1.97842e-11
1.04278e-11
6.19875e-12
2.92767e-12
1.1165e-12
1.96735e-13
4.25004e-15
1.60495e-07
1.36813e-07
4.88072e-08
1.76608e-08
5.12858e-09
1.19589e-09
1.03392e-09
1.11145e-09
9.50648e-10
4.84233e-10
1.99129e-10
7.56133e-11
2.97722e-11
1.5084e-11
9.72007e-12
4.19895e-12
1.55091e-12
2.63101e-13
1.04862e-14
7.01431e-08
4.07112e-08
1.83644e-08
9.06405e-09
3.91088e-09
9.48076e-10
7.1857e-10
6.55646e-10
5.69921e-10
4.4241e-10
2.3729e-10
9.21241e-11
3.65761e-11
1.79358e-11
1.07023e-11
5.26194e-12
2.01061e-12
3.5291e-13
1.64261e-14
1.72977e-08
1.11885e-08
6.59518e-09
4.31754e-09
2.37509e-09
7.92821e-10
4.19441e-10
4.03978e-10
3.79386e-10
3.129e-10
1.97939e-10
8.52854e-11
3.38028e-11
1.66436e-11
1.04504e-11
5.37102e-12
2.24354e-12
4.23248e-13
1.95491e-14
3.57458e-09
3.09931e-09
2.44163e-09
1.8966e-09
1.14453e-09
4.82695e-10
2.33421e-10
2.12817e-10
2.06231e-10
1.89445e-10
1.34268e-10
6.19673e-11
2.43152e-11
1.24897e-11
7.79679e-12
4.31582e-12
2.12531e-12
4.24567e-13
1.63862e-14
8.11066e-10
9.08384e-10
8.59655e-10
7.26965e-10
4.72179e-10
2.24315e-10
1.15096e-10
1.0126e-10
9.82517e-11
9.26244e-11
7.2956e-11
3.81255e-11
1.53832e-11
9.181e-12
6.15594e-12
3.73512e-12
1.75548e-12
3.02373e-13
1.11852e-14
2.11238e-10
2.78419e-10
2.77463e-10
2.33873e-10
1.60236e-10
8.35245e-11
4.7164e-11
4.36988e-11
4.25493e-11
4.03263e-11
3.29357e-11
1.92057e-11
8.92452e-12
5.86106e-12
4.47732e-12
2.93518e-12
1.29706e-12
2.19872e-13
8.9054e-15
5.47792e-11
7.43841e-11
7.64382e-11
6.67344e-11
4.54591e-11
2.3904e-11
1.70948e-11
1.6934e-11
1.67692e-11
1.56863e-11
1.26367e-11
7.5729e-12
4.34093e-12
3.5969e-12
3.05345e-12
2.28618e-12
1.057e-12
1.96848e-13
9.40494e-15
1.17122e-11
1.78205e-11
1.92509e-11
1.70452e-11
1.12226e-11
6.15171e-12
5.46643e-12
5.65629e-12
5.70478e-12
5.41219e-12
4.36227e-12
2.90847e-12
2.42934e-12
2.26394e-12
2.14944e-12
1.67483e-12
8.43866e-13
1.7999e-13
1.29145e-14
2.03088e-12
3.6457e-12
4.05378e-12
3.52172e-12
2.19862e-12
1.51424e-12
1.59302e-12
1.78031e-12
1.8303e-12
1.74329e-12
1.40603e-12
1.27997e-12
1.36798e-12
1.50355e-12
1.51232e-12
1.26701e-12
6.41867e-13
1.52264e-13
9.7226e-15
3.58479e-13
6.67442e-13
7.16389e-13
5.87829e-13
3.72285e-13
3.27172e-13
3.71194e-13
4.13463e-13
4.54255e-13
4.62324e-13
5.0574e-13
6.35316e-13
8.42806e-13
9.91118e-13
9.88616e-13
8.93465e-13
4.6666e-13
1.00492e-13
8.93214e-15
2.37063e-14
5.44448e-14
5.28245e-14
3.17074e-14
1.02033e-14
9.72965e-15
1.24875e-14
1.63839e-14
2.58908e-14
5.53027e-14
1.22087e-13
2.34446e-13
3.60646e-13
4.47564e-13
4.67906e-13
4.7412e-13
2.65973e-13
6.06844e-14
2.55234e-15
3.8581e-17
1.23637e-16
9.92049e-17
3.70839e-17
1.3889e-17
1.8503e-17
4.04826e-17
1.42697e-16
2.53524e-15
1.38007e-14
4.06927e-14
8.41159e-14
1.38378e-13
1.88546e-13
2.03851e-13
1.76711e-13
1.15361e-13
2.41099e-14
7.05094e-16
1.38776e-19
8.73145e-20
4.39021e-20
7.12161e-21
4.39384e-21
7.07956e-21
2.28684e-20
7.25071e-19
3.80189e-16
2.56043e-15
8.36503e-15
2.13084e-14
4.50221e-14
7.14976e-14
8.10511e-14
6.88577e-14
3.59348e-14
7.06243e-15
2.58828e-16
1.22865e-20
9.08623e-21
4.1399e-21
1.98329e-21
3.36442e-21
6.8251e-21
1.27775e-20
2.30439e-20
2.28096e-17
1.4594e-16
6.84964e-16
3.47832e-15
1.11797e-14
2.14632e-14
2.50914e-14
2.02983e-14
8.65461e-15
1.22253e-15
8.74336e-17
3.63834e-22
4.40872e-22
6.54509e-22
1.41882e-21
3.21957e-21
6.86129e-21
1.32755e-20
2.44951e-20
2.31636e-19
1.48458e-18
1.48765e-17
3.60235e-16
1.82228e-15
4.42914e-15
5.32424e-15
3.94577e-15
1.26277e-15
3.35465e-16
1.94336e-17
5.16838e-23
1.45052e-22
4.19986e-22
1.09609e-21
2.75264e-21
6.25224e-21
1.3182e-20
2.53809e-20
4.52465e-20
7.74366e-20
2.06189e-19
1.69784e-17
1.7965e-16
6.2275e-16
6.81092e-16
4.4573e-16
1.9889e-16
4.48848e-17
4.98104e-18
2.22576e-23
7.64145e-23
2.44614e-22
7.20142e-22
1.92301e-21
4.84732e-21
1.09171e-20
2.28089e-20
4.36087e-20
7.6783e-20
1.21238e-19
3.686e-19
7.64275e-18
3.85527e-17
4.92208e-17
5.07335e-17
1.93444e-17
3.50379e-18
3.43354e-19
9.92392e-24
3.70026e-23
1.28415e-22
4.11825e-22
1.20762e-21
3.24482e-21
8.04295e-21
1.81613e-20
3.78434e-20
6.92243e-20
1.14795e-19
1.73509e-19
3.03682e-19
5.74428e-18
1.32868e-17
1.1267e-17
4.48118e-18
6.85906e-19
7.78708e-20
4.16446e-24
1.68237e-23
6.37856e-23
2.16539e-22
6.79138e-22
1.93025e-21
5.03913e-21
1.21823e-20
2.75744e-20
5.3606e-20
9.23273e-20
1.50313e-19
2.079e-19
2.24765e-18
3.71043e-18
2.79345e-18
6.90712e-19
1.22048e-19
1.71758e-20
1.84037e-24
7.91496e-24
3.13497e-23
1.1319e-22
3.61569e-22
1.04658e-21
2.84782e-21
7.04003e-21
1.65711e-20
3.44614e-20
6.1158e-20
9.85528e-20
1.48309e-19
6.70372e-19
6.29836e-19
3.42895e-19
7.74859e-20
1.88556e-20
5.9246e-21
8.15425e-25
3.75932e-24
1.52356e-23
5.55678e-23
1.78238e-22
5.35125e-22
1.42217e-21
3.43167e-21
7.84265e-21
1.70807e-20
3.06839e-20
4.58752e-20
6.65451e-20
1.45322e-19
7.92712e-20
3.17705e-20
1.31806e-20
7.76314e-21
2.4268e-21
3.42384e-25
1.5406e-24
6.30691e-24
2.26889e-23
7.28632e-23
2.16876e-22
5.81666e-22
1.4219e-21
3.20658e-21
6.62318e-21
1.18365e-20
1.77375e-20
2.26219e-20
2.85221e-20
1.35126e-20
5.75119e-21
4.54343e-21
2.4332e-21
1.21025e-21
1.21241e-25
5.21457e-25
2.03421e-24
7.18987e-24
2.29568e-23
6.78196e-23
1.83211e-22
4.52876e-22
1.01211e-21
2.00641e-21
3.52513e-21
5.18823e-21
6.0583e-21
5.67339e-21
2.63125e-21
1.84907e-21
1.08312e-21
9.25132e-22
3.57972e-22
2.43964e-26
1.0307e-25
4.07253e-25
1.4262e-24
4.54263e-24
1.36218e-23
3.69189e-23
9.05993e-23
2.0127e-22
4.00423e-22
6.77923e-22
9.55341e-22
1.05045e-21
8.55989e-22
4.68359e-22
3.79833e-22
3.0324e-22
1.22354e-22
4.69457e-23
)
;

boundaryField
{
    leftWall
    {
        type            alphaContactAngle;
        contactAngleProperties 
        {
            mercury         
            {
                theta0          90;
            }
            air             
            {
                theta0          90;
            }
            oil             
            {
                theta0          90;
            }
        }
        value           nonuniform List<scalar> 
50
(
4.76146e-12
4.94715e-12
8.97185e-13
0.0535595
0.789663
1
1
1
1
1
1
1
1
0.702466
0.0371927
3.37032e-07
3.61476e-08
7.60873e-09
4.78265e-09
2.07815e-09
6.2694e-10
1.40541e-10
2.35598e-11
3.06978e-12
3.26886e-13
2.93656e-14
2.26285e-15
1.51584e-16
8.93681e-18
4.67894e-19
2.18855e-20
9.19227e-22
3.48278e-23
1.19182e-24
3.65097e-26
9.6685e-28
1.96177e-29
1.24408e-31
-1.54463e-32
-1.15927e-33
-5.71549e-35
-2.34495e-36
-8.53041e-38
-2.82387e-39
-8.62116e-41
-2.44797e-42
-6.50725e-44
-1.62969e-45
-3.87188e-47
-8.79506e-49
)
;
    }
    rightWall
    {
        type            alphaContactAngle;
        contactAngleProperties 
        {
            mercury         
            {
                theta0          90;
            }
            air             
            {
                theta0          90;
            }
            oil             
            {
                theta0          90;
            }
        }
        value           nonuniform List<scalar> 
50
(
2.42114e-05
6.59937e-08
5.92007e-08
4.81722e-08
2.7952e-09
0.0770465
0.196673
0.204663
0.136819
0.00491803
1.75275e-06
1.74544e-06
2.06764e-06
1.06358e-06
5.09348e-08
5.70376e-08
2.20764e-09
1.68469e-09
4.68205e-11
4.79196e-14
4.27135e-14
2.06113e-16
2.10104e-16
5.82675e-16
2.01446e-15
4.25004e-15
1.04862e-14
1.64261e-14
1.95491e-14
1.63862e-14
1.11852e-14
8.9054e-15
9.40494e-15
1.29145e-14
9.7226e-15
8.93214e-15
2.55234e-15
7.05094e-16
2.58828e-16
8.74336e-17
1.94336e-17
4.98104e-18
3.43354e-19
7.78708e-20
1.71758e-20
5.9246e-21
2.4268e-21
1.21025e-21
3.57972e-22
4.69457e-23
)
;
    }
    lowerWall
    {
        type            alphaContactAngle;
        contactAngleProperties 
        {
            mercury         
            {
                theta0          90;
            }
            air             
            {
                theta0          90;
            }
            oil             
            {
                theta0          90;
            }
        }
        value           nonuniform List<scalar> 
62
(
4.76146e-12
1.65023e-11
2.87945e-11
3.13015e-11
3.21794e-11
3.13327e-11
2.7247e-11
2.38578e-11
2.29358e-11
2.42464e-11
2.74491e-11
3.19668e-11
3.82016e-11
4.75754e-11
6.31578e-11
9.08561e-11
1.47296e-10
2.75506e-10
5.56774e-10
1.07289e-09
2.11692e-09
2.58955e-09
2.62596e-09
2.62596e-09
2.70229e-09
4.26362e-09
4.92107e-09
1.10286e-09
9.80915e-11
0.36808
0.951004
0.90174
0.824131
0.796174
0.771009
2.34468e-07
8.30401e-07
6.37318e-07
6.52093e-07
0.39614
0.788223
0.952598
0.988234
2.34468e-07
4.36223e-07
3.34696e-08
3.20318e-19
2.8222e-19
3.66599e-20
5.58872e-20
4.43155e-20
1.18267e-05
6.26125e-06
-3.69652e-32
-2.97234e-23
1.44638e-12
0.000181608
0.000110171
1.33493e-05
2.83869e-05
4.1303e-05
2.42114e-05
)
;
    }
    atmosphere
    {
        type            inletOutlet;
        inletValue      uniform 0;
        value           nonuniform List<scalar> 
46
(
-8.79506e-49
-1.48349e-48
-3.6113e-48
-6.09631e-48
-1.54381e-48
7.73056e-48
7.30545e-47
5.75224e-46
6.38889e-45
6.99073e-44
9.45786e-43
1.51089e-41
2.80538e-40
5.56421e-39
1.1031e-37
2.07975e-36
3.56853e-35
5.34022e-34
7.33131e-33
8.39222e-32
7.98626e-31
6.90106e-30
5.59033e-29
3.87592e-28
1.26286e-27
3.82009e-27
0
0
0
0
0
0
0
0
0
0
0
0
0
0
0
0
0
0
0
0
)
;
    }
    defaultFaces
    {
        type            empty;
    }
}

