/*--------------------------------*- C++ -*----------------------------------*\
  =========                 |
  \\      /  F ield         | OpenFOAM: The Open Source CFD Toolbox
   \\    /   O peration     | Website:  https://openfoam.org
    \\  /    A nd           | Version:  13
     \\/     M anipulation  |
\*---------------------------------------------------------------------------*/
FoamFile
{
    format      ascii;
    class       volScalarField;
    location    "0.8";
    object      epsilon;
}
// * * * * * * * * * * * * * * * * * * * * * * * * * * * * * * * * * * * * * //

dimensions      [0 2 -3 0 0 0 0];

internalField   nonuniform List<scalar> 
2268
(
0.00773656
0.0256531
0.0473623
0.0688828
0.0892253
0.107972
0.125516
0.142894
0.161616
0.183617
0.21124
0.247353
0.295838
0.356115
0.426088
0.502222
0.577081
0.637572
0.66289
0.622458
0.481631
0.23844
0.0333331
0.00909653
0.0189518
0.0304527
0.0418838
0.0527562
0.0624339
0.0706459
0.0776905
0.084286
0.0913696
0.0999494
0.111105
0.126393
0.146253
0.170464
0.198336
0.228102
0.25617
0.27595
0.276309
0.242079
0.164337
0.0814594
0.0141037
0.0202824
0.0296809
0.0389844
0.0477045
0.055263
0.0614457
0.0665496
0.07123
0.0762994
0.082572
0.0908858
0.102152
0.117018
0.136101
0.160016
0.189048
0.222473
0.257115
0.284733
0.289186
0.248557
0.182911
0.0206035
0.0232573
0.0314079
0.0395735
0.0470756
0.0534753
0.058695
0.0630893
0.0673202
0.0721456
0.0782918
0.0865308
0.0976764
0.112712
0.133058
0.160652
0.197817
0.246659
0.307223
0.373436
0.426648
0.42883
0.36512
0.0294749
0.0269064
0.0341916
0.0415351
0.0480119
0.0534377
0.0580084
0.0621026
0.0663557
0.0714678
0.0781329
0.0871527
0.099525
0.116767
0.141346
0.176983
0.228883
0.303327
0.405297
0.532712
0.667464
0.761525
0.741788
0.0353028
0.0300728
0.0372326
0.0445251
0.0501096
0.0545879
0.058558
0.0624212
0.066838
0.0724197
0.079867
0.0901182
0.104547
0.12546
0.156799
0.204896
0.279344
0.392829
0.55764
0.777959
1.0443
1.33702
1.6237
0.0428806
0.0322959
0.0382529
0.045754
0.0521342
0.0568027
0.060154
0.0636613
0.068228
0.0743284
0.0827076
0.0945363
0.111747
0.137763
0.178644
0.244621
0.351934
0.522522
0.777605
1.12748
1.58217
2.2498
3.80971
0.053665
0.0350514
0.0386402
0.0448148
0.0514055
0.0572424
0.0615177
0.0653934
0.0702158
0.0768638
0.0862997
0.100047
0.1208
0.153504
0.207288
0.2982
0.452288
0.703638
1.08093
1.59366
2.27258
3.47797
9.34377
1.05529
3.01121
5.12911
5.92425
5.63081
5.08288
4.63086
4.31519
3.94564
3.51596
3.07708
2.65169
2.25214
1.80933
1.23937
0.710989
0.692183
0.620729
0.705129
0.748746
2.00845
2.50714
2.56399
2.47501
2.31063
2.13411
1.96667
1.7951
1.61888
1.44861
1.2888
1.12864
0.955986
0.78728
0.722668
0.924921
0.51591
0.564674
0.857271
1.85871
2.15181
2.15645
2.04227
1.89013
1.73476
1.58328
1.43451
1.29092
1.15766
1.03807
0.926929
0.806336
0.690368
0.668725
0.917818
0.569998
0.7065
1.41271
2.20876
2.32804
2.19417
2.00048
1.8126
1.64255
1.48285
1.33061
1.18939
1.06313
0.955792
0.864479
0.760202
0.657375
0.640888
0.869343
0.60938
0.835396
3.46789
3.11409
2.73153
2.37795
2.07869
1.83775
1.63844
1.46088
1.29718
1.14932
1.02014
0.913525
0.828326
0.739467
0.643609
0.633055
0.816873
0.645439
0.961365
6.40822
4.16314
3.17481
2.59507
2.19253
1.89569
1.66233
1.4635
1.28556
1.12776
0.99168
0.880296
0.794662
0.719264
0.634606
0.623893
0.743024
0.685684
1.05038
10.6107
5.04121
3.5267
2.78586
2.30584
1.96165
1.69746
1.47768
1.28505
1.11648
0.972409
0.85507
0.767017
0.696466
0.625229
0.597489
0.693081
0.712645
1.09856
17.3446
5.50466
3.74807
2.93475
2.40414
2.02346
1.73321
1.49487
1.28878
1.11011
0.958293
0.835102
0.742868
0.67496
0.611125
0.584725
0.652291
0.740733
1.09168
0.0744915
0.0408657
0.0406798
0.0444019
0.0493531
0.0548414
0.0605792
0.0664503
0.0728743
0.0810287
0.0925003
0.10978
0.137131
0.182584
0.261745
0.403224
0.653322
1.06662
1.67259
2.45545
3.42432
4.82859
7.71556
0.0977267
0.0479895
0.0444162
0.0463873
0.0501678
0.0550172
0.0607363
0.0674053
0.0755411
0.0862594
0.101613
0.125656
0.166099
0.238729
0.376666
0.643272
1.13362
1.92319
2.97405
4.13807
5.2947
6.45133
7.66913
0.117801
0.0544865
0.0483662
0.049306
0.0526441
0.0574873
0.0636083
0.0711024
0.0806048
0.093688
0.113569
0.146758
0.206777
0.323794
0.565201
1.06156
1.97988
3.35299
4.9288
6.35674
7.44596
8.16835
8.51085
0.131878
0.0596698
0.0519537
0.0523391
0.0555888
0.0607278
0.0675306
0.076165
0.0875444
0.104011
0.130594
0.1779
0.269959
0.464612
0.898268
1.83194
3.5165
5.7386
7.7711
9.11231
9.72371
9.77355
9.32184
0.139267
0.0634407
0.0550168
0.0551113
0.0583676
0.06386
0.0714423
0.0814913
0.0955061
0.117191
0.15469
0.226253
0.376797
0.721383
1.54047
3.31473
6.27083
9.45335
11.2882
11.7188
11.2888
10.3345
9.09245
0.14081
0.0659671
0.0573969
0.0573341
0.0606692
0.066635
0.0752182
0.0871695
0.105049
0.134895
0.19072
0.306675
0.575363
1.23073
2.77011
5.93448
10.9883
14.7609
13.9897
12.6984
11.3587
9.93325
8.43114
0.154293
0.0681264
0.0590921
0.0589445
0.062697
0.0696664
0.0798659
0.0945507
0.118116
0.16118
0.248805
0.44874
0.931716
2.08017
4.51361
8.6098
13.2995
15.504
14.4348
12.5573
10.9006
9.28084
7.67315
0.146669
0.0653145
0.0583072
0.0598551
0.0644087
0.0717221
0.0828934
0.100897
0.133035
0.196132
0.329837
0.626676
1.27612
2.6237
5.02569
8.43809
11.8379
13.5578
13.4135
12.0353
10.446
8.75445
7.11749
0.12059
0.0608998
0.0564806
0.0581932
0.0627681
0.0704818
0.0831806
0.105105
0.145874
0.227409
0.399478
0.766898
1.51456
2.88814
5.04827
7.81371
10.415
11.9746
12.4999
11.9163
10.4006
8.55206
6.87781
0.102397
0.057952
0.0549554
0.056996
0.0615167
0.06932
0.0828186
0.107275
0.154229
0.249092
0.44593
0.847129
1.60878
2.89736
4.77466
7.04247
9.15974
10.5685
11.2647
11.3079
10.256
8.55972
6.90945
0.0938736
0.0571179
0.0546143
0.0565941
0.0608617
0.0684662
0.0821444
0.107637
0.15718
0.256862
0.459297
0.856548
1.57486
2.72918
4.33667
6.22403
8.00278
9.27484
9.95705
10.0423
9.42637
8.3291
6.95241
0.0928576
0.0582059
0.0553341
0.0568194
0.0605802
0.0675936
0.0806739
0.105506
0.153864
0.250121
0.441575
0.807117
1.44858
2.45017
3.81332
5.39792
6.91821
8.06906
8.72859
8.87756
8.47795
7.64471
6.59471
0.096772
0.0602789
0.0564719
0.0572487
0.0603539
0.066542
0.0783799
0.101184
0.145437
0.232319
0.401857
0.719281
1.26705
2.11176
3.2537
4.58561
5.89328
6.9341
7.57017
7.76862
7.52374
6.91567
6.09985
0.103035
0.0624154
0.0574585
0.057541
0.0600039
0.0653099
0.0756003
0.0955544
0.134014
0.208346
0.350779
0.613479
1.06296
1.75492
2.6949
3.80596
4.92773
5.86526
6.47335
6.70684
6.57725
6.14127
5.5239
0.109827
0.0641631
0.0580707
0.0575705
0.0594924
0.0639789
0.0727174
0.0895174
0.121636
0.182627
0.297361
0.506163
0.861829
1.41191
2.16864
3.08218
4.03746
4.86607
5.43545
5.69398
5.65128
5.35917
4.9089
0.116194
0.0654537
0.0583395
0.0573733
0.0588691
0.0626569
0.0699895
0.083801
0.109808
0.158312
0.24779
0.408392
0.681028
1.10606
1.70205
2.44134
3.23132
3.94528
4.46856
4.74334
4.76993
4.59041
4.27581
0.121783
0.066389
0.0583877
0.0570441
0.0582079
0.0614279
0.0675676
0.078834
0.0994859
0.13719
0.205447
0.326153
0.530513
0.852095
1.30977
1.88807
2.52452
3.12371
3.59143
3.87006
3.94974
3.8595
3.65327
0.126539
0.0670948
0.0583315
0.0566703
0.0575683
0.0603363
0.0655072
0.0746966
0.091053
0.120177
0.171711
0.261321
0.411695
0.648782
0.990342
1.43037
1.92875
2.41716
2.82184
3.09037
3.2057
3.18377
3.06266
0.130511
0.0676656
0.0582497
0.0563103
0.0569849
0.0593924
0.0637962
0.0713389
0.0843135
0.10676
0.145484
0.21142
0.320518
0.491849
0.740538
1.06658
1.44603
1.83244
2.17088
2.4171
2.55081
2.57732
2.5209
0.133778
0.0681625
0.0581866
0.055995
0.0564717
0.0585853
0.0623871
0.0686498
0.0790116
0.0963551
0.125438
0.173763
0.252238
0.374313
0.551885
0.78791
1.06941
1.36655
1.64043
1.85608
1.99331
2.05026
2.04027
0.136483
0.0686313
0.0581639
0.0557362
0.0560294
0.0578949
0.0612216
0.0664994
0.0748715
0.0883705
0.1103
0.145755
0.202052
0.288371
0.413502
0.581293
0.785595
1.00837
1.22349
1.40489
1.53467
1.6071
1.62772
0.138766
0.0690919
0.0581835
0.0555323
0.0556514
0.0573002
0.0602449
0.0647642
0.0716339
0.0822675
0.0989452
0.12511
0.165622
0.226606
0.314252
0.432178
0.578064
0.741705
0.906447
1.05392
1.16957
1.24627
1.28465
0.140661
0.0695237
0.0582299
0.0553729
0.0553281
0.0567827
0.0594125
0.0633415
0.0690776
0.077588
0.0904365
0.109948
0.139344
0.182661
0.244128
0.326684
0.429907
0.548424
0.672168
0.788838
0.887419
0.960972
1.00751
0.142153
0.0698917
0.0582822
0.0552458
0.0550505
0.0563295
0.0586926
0.0621533
0.0670273
0.0739645
0.0840291
0.0987916
0.120393
0.151495
0.194937
0.252934
0.325855
0.411103
0.502895
0.593388
0.674722
0.740978
0.789118
0.143243
0.0701745
0.0583261
0.0551427
0.0548136
0.0559334
0.0580654
0.0611452
0.0653534
0.0711167
0.0791526
0.0905215
0.106656
0.129321
0.160423
0.201566
0.253362
0.3147
0.382423
0.451748
0.517347
0.5746
0.620373
0.143959
0.0703707
0.0583594
0.0550625
0.0546176
0.0555933
0.0575213
0.0602831
0.0639654
0.0688403
0.0753858
0.0843163
0.0965961
0.113409
0.136045
0.165652
0.202846
0.247265
0.297281
0.350093
0.40225
0.450375
0.491726
0.144345
0.0704947
0.0583912
0.0550127
0.0544692
0.0553142
0.0570589
0.0595483
0.0628047
0.0669934
0.0724283
0.0795887
0.0891258
0.101843
0.118623
0.140292
0.167388
0.1999
0.237054
0.277281
0.318432
0.35817
0.394319
0.144469
0.0705758
0.0584413
0.0550088
0.0543814
0.0551068
0.0566841
0.0589342
0.0618359
0.0654815
0.0700728
0.0759285
0.083489
0.0933027
0.105984
0.122128
0.142184
0.166289
0.19413
0.224875
0.257243
0.289689
0.320608
0.144413
0.0706546
0.0585397
0.0550748
0.0543743
0.0549876
0.0564085
0.0584431
0.0610411
0.0642453
0.0681807
0.0730565
0.0791688
0.0868935
0.0966609
0.108905
0.123987
0.142098
0.163163
0.18678
0.212224
0.238525
0.264566
0.144286
0.0707854
0.0587266
0.0552431
0.0544748
0.0549789
0.0562496
0.0580846
0.060415
0.0632501
0.0666623
0.0707857
0.0758172
0.0820131
0.089675
0.09912
0.110634
0.124412
0.140499
0.158734
0.17874
0.199943
0.221614
0.144226
0.0710365
0.0590534
0.0555556
0.0547175
0.0551097
0.0562304
0.0578747
0.0599617
0.0624786
0.0654619
0.0689936
0.0732016
0.0782585
0.0843739
0.0917777
0.100692
0.111295
0.12368
0.137821
0.153549
0.170556
0.188398
0.144409
0.0714943
0.0595846
0.0560644
0.0551455
0.0554152
0.0563798
0.0578348
0.059693
0.0619266
0.0645473
0.0676012
0.0711678
0.07536
0.080321
0.0862145
0.0932088
0.101455
0.11106
0.122064
0.134419
0.147984
0.16252
0.145058
0.0722671
0.0604006
0.0568334
0.0558103
0.0559376
0.0567317
0.0579914
0.0596262
0.0615983
0.0639023
0.0665589
0.0696133
0.0731359
0.0772209
0.0819818
0.0875419
0.0940219
0.101523
0.110111
0.119804
0.130561
0.142277
0.146468
0.0734933
0.0616012
0.0579395
0.0567721
0.0567241
0.0573235
0.0583734
0.0597817
0.0615035
0.0635208
0.0658359
0.0684696
0.0714617
0.0748702
0.0787703
0.0832484
0.0883956
0.0942972
0.101023
0.108619
0.117098
0.12644
0.149024
0.0753522
0.06331
0.0594724
0.0580962
0.0578228
0.058191
0.0590077
0.0601785
0.0616521
0.0634004
0.0654118
0.067689
0.0702492
0.0731243
0.0763601
0.0800134
0.0841483
0.0888304
0.094121
0.100072
0.106722
0.114093
0.153235
0.0780768
0.0656762
0.0615291
0.0598451
0.0592738
0.0593603
0.059911
0.0608264
0.0620472
0.0635354
0.0652675
0.0672325
0.0694308
0.071875
0.0745885
0.0776048
0.0809648
0.0847139
0.0888991
0.0935663
0.0987596
0.10452
0.159765
0.0819667
0.0688676
0.0641993
0.0620611
0.0610927
0.0608328
0.0610776
0.0617155
0.0626751
0.0639069
0.0653761
0.0670601
0.0689466
0.0710335
0.0733276
0.0758442
0.0786048
0.0816365
0.0849701
0.0886402
0.0926862
0.0971535
0.169416
0.0873718
0.0730372
0.0675291
0.0647357
0.0632458
0.0625656
0.0624631
0.0628028
0.0634944
0.0644735
0.0656933
0.0671207
0.0687334
0.0705181
0.0724693
0.0745879
0.0768802
0.0793576
0.0820358
0.0849373
0.0880942
0.0915521
0.182861
0.0945773
0.0782351
0.0714563
0.0677636
0.0656194
0.0644507
0.0639696
0.0640007
0.0644261
0.0651624
0.0661498
0.0673452
0.068718
0.0702463
0.0719155
0.0737158
0.0756419
0.0776927
0.0798722
0.0821934
0.0846849
0.0873988
0.200226
0.103551
0.0842412
0.0757103
0.0708887
0.0679908
0.0662994
0.0654368
0.0651715
0.0653504
0.065868
0.0666507
0.0676461
0.0688165
0.0701341
0.0715773
0.0731291
0.074776
0.0765083
0.0783227
0.0802285
0.0822601
0.0844963
0.22037
0.113434
0.0902867
0.0796869
0.073657
0.070017
0.0678446
0.0666495
0.0661365
0.0661154
0.0664593
0.067082
0.0679233
0.0689404
0.0701011
0.0713796
0.0727543
0.0742068
0.075723
0.0772969
0.0789406
0.0807068
0.0827342
0.239071
0.121549
0.0946971
0.082358
0.0754162
0.0712587
0.0687703
0.0673661
0.0667022
0.066562
0.0668041
0.067334
0.0680868
0.0690167
0.0700893
0.0712769
0.0725557
0.0739053
0.0753102
0.0767645
0.0782864
0.0799522
0.0819839
16.5368
15.9827
16.9159
20.0346
8.63921
8.79431
8.71053
8.35442
8.39586
8.15207
7.71928
7.10659
8.40691
7.72585
7.03661
6.34849
7.84092
7.06312
6.32048
5.62479
7.08002
6.28142
5.55613
4.90641
6.33747
5.57737
4.90765
4.32169
5.82798
5.10905
4.48662
3.94977
5.61379
4.91435
4.3147
3.80237
5.6586
4.95458
4.35774
3.85114
5.79571
5.12229
4.55595
4.06106
5.71723
5.19512
4.72346
4.27361
5.42718
5.01352
4.62536
4.26546
5.01762
4.69957
4.39709
4.1143
4.53126
4.28743
4.0538
3.8359
4.00287
3.81932
3.64145
3.47392
3.46193
3.32672
3.1928
3.0641
2.9352
2.83981
2.74222
2.64576
2.44314
2.38042
2.31316
2.24403
2.00013
1.96349
1.9211
1.875
1.61472
1.59794
1.57515
1.54783
1.28993
1.28732
1.27915
1.26641
1.02396
1.03067
1.03267
1.03058
0.811452
0.823637
0.832106
0.837221
0.644913
0.659749
0.671842
0.681378
0.516128
0.531702
0.545381
0.557236
0.417225
0.432345
0.446247
0.458942
0.341327
0.355316
0.368598
0.381154
0.28283
0.295354
0.307536
0.319344
0.237397
0.248335
0.259176
0.269891
0.201808
0.211163
0.220577
0.230027
0.173733
0.181583
0.18958
0.19771
0.151506
0.157971
0.164624
0.171458
0.133917
0.139145
0.144567
0.150181
0.120056
0.124208
0.128538
0.133048
0.109205
0.112446
0.115838
0.119384
0.100789
0.103284
0.105899
0.108636
0.0943609
0.0962742
0.0982793
0.100377
0.0896145
0.0911193
0.0926998
0.0943505
0.0863899
0.0876964
0.08909
0.0905434
0.0846354
0.0860373
0.0876289
0.0893307
0.0841866
0.0860419
0.0885691
0.0921134
8.43179
5.29162
3.92516
3.09301
2.51621
2.09558
1.77374
1.51294
1.29066
1.09994
0.938904
0.808712
0.710357
0.641304
0.587468
0.568084
0.639471
0.773833
1.00526
6.84268
5.07597
3.92601
3.10576
2.51478
2.07987
1.74667
1.47868
1.25512
1.06659
0.908948
0.780449
0.682006
0.611801
0.567139
0.560633
0.641722
0.763906
0.858799
6.08263
4.69499
3.672
2.91292
2.35502
1.94285
1.62865
1.37972
1.17666
1.00901
0.871092
0.75845
0.668496
0.601026
0.560154
0.557168
0.625139
0.719887
0.778299
5.41736
4.22123
3.29585
2.60995
2.10925
1.74128
1.4633
1.24672
1.07414
0.935415
0.82434
0.735816
0.66379
0.606753
0.5677
0.557024
0.598364
0.697174
0.755493
4.75791
3.70062
2.88355
2.28278
1.84735
1.52883
1.29033
1.1076
0.965831
0.856156
0.772784
0.710711
0.663426
0.625162
0.594853
0.57592
0.582874
0.671468
0.764748
4.13207
3.21569
2.51208
1.99559
1.6207
1.34587
1.14056
0.985041
0.867449
0.780777
0.720491
0.682588
0.661578
0.649025
0.63911
0.626018
0.596152
0.652526
0.791584
3.63766
2.84347
2.23661
1.78931
1.46145
1.21828
1.03494
0.895751
0.791586
0.717429
0.670432
0.648293
0.647647
0.661771
0.680307
0.693876
0.646695
0.636151
0.813139
3.32819
2.61992
2.08149
1.68177
1.38422
1.15912
0.985778
0.851483
0.749093
0.675038
0.627844
0.606923
0.611387
0.638494
0.681266
0.726467
0.72994
0.690052
0.958889
3.20932
2.54661
2.04681
1.67331
1.39053
1.17167
0.998487
0.860105
0.750423
0.666324
0.606552
0.570893
0.559383
0.571185
0.602767
0.646174
0.688017
0.626213
0.570489
3.25752
2.6048
2.11926
1.75462
1.47402
1.25229
1.07246
0.924782
0.803715
0.706026
0.629906
0.57424
0.538145
0.520223
0.517313
0.522324
0.517944
0.459803
0.376134
3.44176
2.76932
2.28112
1.91272
1.62479
1.39367
1.20254
1.04266
0.909616
0.800571
0.713928
0.648749
0.604301
0.580286
0.577386
0.596356
0.626644
0.627725
0.607473
3.67289
3.00802
2.51385
2.13447
1.83198
1.58692
1.38148
1.20696
1.06153
0.943124
0.851516
0.788504
0.75623
0.757951
0.798642
0.884513
1.00209
1.05449
1.04132
3.77107
3.20527
2.76088
2.39259
2.08226
1.82108
1.60143
1.40957
1.24965
1.12153
1.02463
0.965008
0.950061
0.987448
1.08728
1.26714
1.52731
1.60896
1.51155
3.70779
3.24542
2.87682
2.56857
2.29624
2.04931
1.83228
1.63284
1.45897
1.32193
1.21606
1.15209
1.14434
1.20189
1.33501
1.55913
1.77266
1.71168
1.84751
3.50978
3.14742
2.85051
2.59749
2.37654
2.17733
1.98646
1.79688
1.62758
1.48323
1.36594
1.28487
1.25956
1.30562
1.42197
1.53027
1.50144
1.48596
1.98706
3.21616
2.93661
2.70792
2.51069
2.33526
2.17303
2.0123
1.85616
1.70928
1.57671
1.45512
1.35876
1.3038
1.29906
1.33449
1.35234
1.3308
1.4171
2.1474
2.86198
2.64691
2.47794
2.33091
2.19815
2.0726
1.9443
1.81529
1.69095
1.56756
1.44801
1.34272
1.26237
1.21726
1.20908
1.2172
1.22866
1.38922
2.31103
2.4902
2.32369
2.19512
2.08856
1.99345
1.90183
1.80632
1.70627
1.60312
1.49476
1.38323
1.27766
1.18872
1.12769
1.10344
1.11492
1.16271
1.35939
2.47018
2.12861
2.00105
1.89955
1.8218
1.75412
1.68982
1.62277
1.54992
1.46988
1.38096
1.28506
1.19081
1.10888
1.05211
1.03225
1.05404
1.12411
1.33992
2.6103
1.79429
1.70002
1.62168
1.56189
1.5128
1.46809
1.4223
1.37158
1.31329
1.24604
1.1718
1.09733
1.03302
0.991869
0.985702
1.02039
1.10459
1.3311
2.73139
1.49646
1.43097
1.373
1.32636
1.29064
1.2594
1.22869
1.19492
1.15537
1.10881
1.05696
1.00537
0.963243
0.942043
0.951972
0.998672
1.09326
1.33282
2.84332
1.23878
1.19772
1.15806
1.12403
1.09787
1.07608
1.05597
1.03478
1.01029
0.981593
0.950117
0.920384
0.899958
0.898059
0.922642
0.978617
1.07906
1.3259
2.89887
1.02108
0.999942
0.976257
0.954043
0.936062
0.921722
0.909477
0.897617
0.884732
0.870361
0.85579
0.844628
0.842724
0.856935
0.892938
0.954734
1.05663
1.30248
2.88465
0.840648
0.834937
0.824533
0.812838
0.802455
0.794595
0.788612
0.78384
0.779716
0.776284
0.774791
0.778086
0.790467
0.816663
0.860315
0.924494
1.02399
1.26139
2.80602
0.693292
0.698818
0.698863
0.696068
0.692649
0.690512
0.689758
0.690541
0.692996
0.69762
0.705672
0.719397
0.741809
0.775873
0.823555
0.887065
0.981011
1.20404
2.67407
0.574113
0.587256
0.595032
0.599336
0.601981
0.604753
0.608431
0.613651
0.621033
0.63141
0.646051
0.666719
0.695414
0.733722
0.782307
0.842642
0.928682
1.13316
2.5017
0.478169
0.49599
0.509092
0.518704
0.526207
0.533102
0.540482
0.549234
0.560267
0.574613
0.593503
0.618308
0.650242
0.689854
0.736851
0.792113
0.868654
1.05204
2.30167
0.400909
0.421153
0.437578
0.45088
0.462025
0.4722
0.482555
0.494057
0.507732
0.52468
0.546038
0.572835
0.60568
0.644363
0.687925
0.736802
0.802932
0.96401
2.08519
0.338427
0.35944
0.377608
0.393224
0.406896
0.419521
0.432153
0.445717
0.461228
0.479742
0.502247
0.529464
0.561527
0.597688
0.636553
0.678254
0.733609
0.872176
1.86171
0.28756
0.308174
0.32688
0.343687
0.35889
0.37324
0.387517
0.402546
0.419248
0.438552
0.461255
0.487783
0.517895
0.550473
0.583868
0.61802
0.662644
0.779184
1.63848
0.245861
0.265283
0.283629
0.300736
0.316688
0.332084
0.347443
0.363431
0.380811
0.400332
0.422563
0.447652
0.475054
0.503402
0.530933
0.557489
0.591715
0.687146
1.42094
0.211511
0.229221
0.246548
0.263229
0.279324
0.295174
0.31111
0.327616
0.345259
0.364569
0.385867
0.409029
0.433261
0.457043
0.478603
0.497766
0.522159
0.597741
1.21302
0.183183
0.198863
0.214687
0.230393
0.246102
0.26188
0.277923
0.294539
0.312083
0.330845
0.350879
0.371803
0.392617
0.411724
0.427434
0.439637
0.455017
0.512396
1.01791
0.159897
0.173383
0.187348
0.201753
0.216547
0.231736
0.247409
0.263714
0.280796
0.298697
0.317203
0.335684
0.352979
0.367482
0.377682
0.383623
0.391181
0.432586
0.83892
0.140901
0.152155
0.164159
0.176889
0.1903
0.204389
0.219181
0.234699
0.2509
0.267591
0.284304
0.300189
0.313973
0.324125
0.329409
0.330156
0.331633
0.360222
0.680711
0.125584
0.134719
0.144694
0.155492
0.167127
0.179625
0.192992
0.207173
0.221984
0.237033
0.251645
0.264803
0.275195
0.281458
0.28276
0.279877
0.277775
0.298063
0.550331
0.113426
0.120655
0.128623
0.137367
0.146955
0.157452
0.168876
0.18114
0.193979
0.206881
0.219043
0.229376
0.236636
0.239746
0.238399
0.233997
0.231636
0.249802
0.457491
0.104046
0.109621
0.115738
0.122471
0.129919
0.138178
0.147282
0.157143
0.16748
0.17776
0.187174
0.194698
0.199286
0.200254
0.197898
0.194384
0.195519
0.219307
0.413282
0.0972169
0.101469
0.106003
0.110917
0.116333
0.122354
0.129018
0.136252
0.143811
0.151231
0.15783
0.162789
0.16537
0.165316
0.163471
0.162772
0.170517
0.208635
0.429386
0.0930004
0.096298
0.099546
0.102911
0.106539
0.110526
0.114908
0.119631
0.124514
0.129227
0.133296
0.136186
0.137488
0.137268
0.136676
0.139195
0.154362
0.215087
0.526039
0.0918857
0.0944705
0.0966122
0.0986412
0.100731
0.102969
0.105384
0.107944
0.110547
0.113009
0.115079
0.116485
0.117064
0.116999
0.117335
0.121395
0.140322
0.225938
0.774139
0.0950769
0.0965935
0.0974822
0.09821
0.0989122
0.099636
0.100396
0.101183
0.101968
0.102698
0.1033
0.103701
0.103864
0.10388
0.104207
0.106548
0.11857
0.198137
1.49476
)
;

boundaryField
{
    leftWall
    {
        type            epsilonWallFunction;
        value           nonuniform List<scalar> 
50
(
0.00773656
0.00909653
0.0141037
0.0206035
0.0294749
0.0353028
0.0428806
0.053665
0.0744915
0.0977267
0.117801
0.131878
0.139267
0.14081
0.154293
0.146669
0.12059
0.102397
0.0938736
0.0928576
0.096772
0.103035
0.109827
0.116194
0.121783
0.126539
0.130511
0.133778
0.136483
0.138766
0.140661
0.142153
0.143243
0.143959
0.144345
0.144469
0.144413
0.144286
0.144226
0.144409
0.145058
0.146468
0.149024
0.153235
0.159765
0.169416
0.182861
0.200226
0.22037
0.239071
)
;
    }
    rightWall
    {
        type            epsilonWallFunction;
        value           nonuniform List<scalar> 
50
(
0.705129
0.564674
0.7065
0.835396
0.961365
1.05038
1.09856
1.09168
1.00526
0.858799
0.778299
0.755493
0.764748
0.791584
0.813139
0.958889
0.570489
0.376134
0.607473
1.04132
1.51155
1.84751
1.98706
2.1474
2.31103
2.47018
2.6103
2.73139
2.84332
2.89887
2.88465
2.80602
2.67407
2.5017
2.30167
2.08519
1.86171
1.63848
1.42094
1.21302
1.01791
0.83892
0.680711
0.550331
0.457491
0.413282
0.429386
0.526039
0.774139
1.49476
)
;
    }
    lowerWall
    {
        type            epsilonWallFunction;
        value           nonuniform List<scalar> 
62
(
0.00773656
0.0256531
0.0473623
0.0688828
0.0892253
0.107972
0.125516
0.142894
0.161616
0.183617
0.21124
0.247353
0.295838
0.356115
0.426088
0.502222
0.577081
0.637572
0.66289
0.622458
0.481631
0.23844
0.0333331
0.0333331
0.0814594
0.182911
0.36512
0.741788
1.6237
3.80971
9.34377
16.5368
15.9827
16.9159
20.0346
1.05529
0.748746
0.857271
1.41271
3.46789
6.40822
10.6107
17.3446
1.05529
3.01121
5.12911
5.92425
5.63081
5.08288
4.63086
4.31519
3.94564
3.51596
3.07708
2.65169
2.25214
1.80933
1.23937
0.710989
0.692183
0.620729
0.705129
)
;
    }
    atmosphere
    {
        type            inletOutlet;
        inletValue      uniform 0.1;
        value           nonuniform List<scalar> 
46
(
0.239071
0.121549
0.0946971
0.082358
0.0754162
0.0712587
0.0687703
0.0673661
0.0667022
0.066562
0.0668041
0.067334
0.0680868
0.0690167
0.0700893
0.0712769
0.0725557
0.0739053
0.0753102
0.0767645
0.0782864
0.0799522
0.0819839
0.0841866
0.0860419
0.0885691
0.1
0.1
0.1
0.1
0.1
0.1
0.1
0.1
0.1
0.1
0.1
0.1
0.1
0.1
0.1
0.1
0.1
0.1
0.1
0.1
)
;
    }
    defaultFaces
    {
        type            empty;
    }
}


// ************************************************************************* //
