/*--------------------------------*- C++ -*----------------------------------*\
  =========                 |
  \\      /  F ield         | OpenFOAM: The Open Source CFD Toolbox
   \\    /   O peration     | Website:  https://openfoam.org
    \\  /    A nd           | Version:  13
     \\/     M anipulation  |
\*---------------------------------------------------------------------------*/
FoamFile
{
    format      ascii;
    class       volScalarField;
    location    "0.8";
    object      k;
}
// * * * * * * * * * * * * * * * * * * * * * * * * * * * * * * * * * * * * * //

dimensions      [0 2 -2 0 0 0 0];

internalField   nonuniform List<scalar> 
2268
(
0.00149979
0.00333605
0.00502225
0.00644595
0.00765663
0.00869224
0.00961072
0.0104848
0.0113955
0.0124301
0.0136797
0.0152411
0.0172159
0.0195028
0.0219868
0.0245294
0.026902
0.0287462
0.0295064
0.0283058
0.0238723
0.0149444
0.00395503
0.00276089
0.00752133
0.0113998
0.0145197
0.0170897
0.0192253
0.0210805
0.0228466
0.0247314
0.0269445
0.0296843
0.0331286
0.0372586
0.0419551
0.0470902
0.0524587
0.0576992
0.0621857
0.0648229
0.063722
0.056015
0.0386412
0.0119357
0.00370253
0.010355
0.0154446
0.0194969
0.0227859
0.0254839
0.0278234
0.0300798
0.0325383
0.0354649
0.0390829
0.043556
0.0488249
0.0548068
0.061411
0.0684943
0.0757587
0.0825852
0.0877032
0.088649
0.0812775
0.0601578
0.0205141
0.00476745
0.0129583
0.0188306
0.0234606
0.0271784
0.0302332
0.032926
0.0355855
0.038545
0.0420921
0.0464529
0.0517482
0.0579449
0.0650067
0.0729406
0.0817455
0.091306
0.101175
0.110095
0.115145
0.110709
0.0878593
0.0325616
0.00604913
0.0154635
0.0219908
0.0270441
0.0310162
0.0342887
0.0372646
0.0402961
0.0437361
0.0478702
0.0529189
0.0589857
0.0660876
0.0742696
0.08369
0.0945755
0.107127
0.121247
0.13585
0.147578
0.149048
0.126627
0.0522358
0.00680997
0.0175159
0.024864
0.0305103
0.034668
0.0380669
0.0412471
0.0445882
0.0484709
0.053154
0.0588525
0.0656862
0.0737378
0.0831769
0.0943768
0.107897
0.124425
0.144408
0.167039
0.18844
0.199325
0.181042
0.0877839
0.00771
0.019011
0.0266568
0.0329114
0.0378609
0.0417728
0.0450917
0.0486456
0.0529128
0.0581015
0.0644275
0.0720484
0.0811338
0.0920261
0.105396
0.122279
0.144055
0.171898
0.205223
0.239335
0.26327
0.255277
0.153968
0.00892935
0.0206167
0.0280368
0.0341639
0.0395933
0.0443658
0.0484257
0.0524611
0.0571202
0.0627842
0.069734
0.0781861
0.088423
0.10101
0.117031
0.138187
0.166802
0.204854
0.251585
0.300874
0.340617
0.351056
0.277839
0.0394406
0.0795752
0.113097
0.12476
0.120735
0.112863
0.106015
0.101201
0.0954129
0.0883305
0.0807869
0.0731135
0.0655439
0.0567007
0.0441434
0.0303383
0.0293229
0.0274256
0.0300112
0.0555532
0.169604
0.221114
0.238941
0.240836
0.233641
0.223257
0.212104
0.199086
0.184345
0.168588
0.152498
0.137007
0.11889
0.09198
0.0669246
0.0721678
0.0543533
0.0456313
0.0612288
0.195855
0.265626
0.297056
0.303061
0.296116
0.283747
0.268822
0.251489
0.232477
0.21273
0.193136
0.174289
0.15204
0.121289
0.0887085
0.0904095
0.0729764
0.0529124
0.0861299
0.229462
0.313972
0.347282
0.351793
0.342783
0.327854
0.309482
0.288398
0.265846
0.242982
0.220923
0.200098
0.175129
0.141921
0.106813
0.102256
0.0872974
0.0590797
0.154917
0.295113
0.372055
0.397379
0.395778
0.382368
0.363673
0.341572
0.316859
0.290946
0.265099
0.240531
0.217744
0.192062
0.157408
0.122109
0.111455
0.0997393
0.0649148
0.231426
0.376272
0.435095
0.446615
0.436174
0.416784
0.393411
0.367324
0.339031
0.309865
0.281103
0.253947
0.2292
0.203609
0.16918
0.133661
0.118763
0.112195
0.068892
0.322445
0.461699
0.496176
0.492242
0.472547
0.446877
0.418756
0.388694
0.356945
0.324707
0.293237
0.263742
0.237255
0.211118
0.178127
0.14192
0.128757
0.122773
0.0709552
0.44624
0.542595
0.550611
0.532733
0.504439
0.472828
0.440162
0.406357
0.371411
0.336378
0.302488
0.270964
0.242793
0.216309
0.184655
0.151764
0.137975
0.132223
0.0706044
0.0111162
0.0236125
0.0306933
0.0363514
0.0415535
0.0466462
0.0518166
0.0571536
0.0628963
0.0695362
0.0775207
0.0873343
0.0995123
0.115051
0.135863
0.165018
0.206614
0.263648
0.333881
0.407734
0.47166
0.511761
0.50245
0.0133287
0.0271237
0.034298
0.0398682
0.0450414
0.0502934
0.0558818
0.0620112
0.0689634
0.0771087
0.0868843
0.0990075
0.114568
0.13562
0.166106
0.212398
0.28184
0.376426
0.485959
0.592094
0.67976
0.742126
0.775996
0.0151087
0.0301904
0.0377274
0.0435079
0.0489502
0.0546064
0.0607525
0.0676011
0.0754567
0.0847866
0.0962636
0.110972
0.130863
0.159783
0.205121
0.278407
0.38965
0.532553
0.679952
0.804096
0.892319
0.943965
0.961885
0.0162997
0.0325318
0.0405915
0.0467405
0.0525958
0.0587913
0.0656313
0.0733409
0.0822657
0.0930037
0.106543
0.124582
0.15051
0.191224
0.260049
0.376473
0.549506
0.749127
0.920423
1.03458
1.09299
1.10851
1.0872
0.0169063
0.0340681
0.0427126
0.0492782
0.0555821
0.0623622
0.0699748
0.0786904
0.0889567
0.101593
0.118076
0.141174
0.176771
0.23707
0.345537
0.530193
0.785976
1.03387
1.18255
1.23766
1.23284
1.18765
1.11714
0.0170324
0.0347859
0.0439666
0.050951
0.0577539
0.0652291
0.0737777
0.0837329
0.095732
0.110967
0.13184
0.163215
0.21614
0.31121
0.481277
0.758468
1.12604
1.38156
1.37748
1.33253
1.27132
1.19399
1.10292
0.0180241
0.0348947
0.0444604
0.0518474
0.0593399
0.0678488
0.0776819
0.089179
0.103356
0.122323
0.150029
0.195039
0.273618
0.413271
0.645278
0.968648
1.29741
1.45987
1.43485
1.35276
1.269
1.17548
1.07249
0.0176129
0.0337943
0.0437723
0.0521808
0.0604918
0.0696555
0.0803885
0.0935254
0.110597
0.134496
0.1707
0.229245
0.325625
0.482377
0.709818
0.984963
1.23418
1.37129
1.39952
1.34369
1.26136
1.15983
1.05077
0.0155122
0.0314807
0.0420551
0.0506779
0.0593722
0.0692218
0.0811528
0.0962093
0.116147
0.144408
0.187524
0.256291
0.364701
0.524516
0.733226
0.964258
1.16404
1.29137
1.35888
1.35221
1.2751
1.16259
1.04969
0.0138758
0.0292635
0.0402084
0.0491904
0.0582301
0.0685781
0.0813197
0.0977258
0.119893
0.15172
0.200018
0.274732
0.386409
0.5402
0.728497
0.926843
1.09752
1.21508
1.2901
1.32309
1.27701
1.1774
1.06795
0.0130614
0.0279995
0.0390179
0.0482192
0.0574531
0.0680644
0.0812549
0.0984315
0.121855
0.155549
0.206073
0.28207
0.391241
0.535179
0.704791
0.879219
1.03049
1.13974
1.21066
1.24309
1.22619
1.17138
1.08521
0.0129316
0.0279001
0.0387779
0.0479756
0.0571622
0.0676513
0.0807876
0.0980148
0.121592
0.15538
0.205374
0.278979
0.382046
0.514568
0.66766
0.823797
0.961159
1.064
1.1316
1.16533
1.16115
1.12407
1.06405
0.0132686
0.028651
0.0393434
0.0483474
0.057261
0.0673317
0.0799179
0.0965385
0.119293
0.151697
0.199034
0.267635
0.362275
0.482554
0.620633
0.761847
0.888405
0.986329
1.05197
1.08678
1.09076
1.06779
1.02488
0.0138255
0.0298145
0.0403484
0.0490823
0.0576014
0.0670862
0.0788127
0.0943341
0.115548
0.14552
0.188772
0.250702
0.335464
0.442926
0.566714
0.694713
0.812056
0.906008
0.970526
1.0063
1.01575
1.00255
0.97303
0.0144267
0.0310588
0.0414786
0.0499467
0.0580502
0.0668957
0.0776548
0.0917728
0.111026
0.137965
0.176364
0.230782
0.304958
0.399303
0.509079
0.624579
0.733492
0.823018
0.886478
0.923638
0.937312
0.931687
0.912281
0.0149836
0.0322063
0.0425497
0.050791
0.0585165
0.0667522
0.0765554
0.0891969
0.106305
0.130001
0.163342
0.210112
0.273692
0.355075
0.451229
0.554594
0.653759
0.738011
0.800385
0.839296
0.856925
0.857359
0.845673
0.0154659
0.0331902
0.0434824
0.0515415
0.0589484
0.0666468
0.0755751
0.0868432
0.101832
0.122341
0.150848
0.190407
0.244072
0.313255
0.395967
0.48629
0.575195
0.653343
0.713931
0.754361
0.775745
0.781481
0.776041
0.015871
0.0340017
0.044257
0.0521716
0.059319
0.0665654
0.0747329
0.08478
0.0978795
0.115519
0.139664
0.172773
0.217404
0.275077
0.344799
0.422286
0.500523
0.571684
0.629449
0.670606
0.695197
0.705614
0.705497
0.0162054
0.0346556
0.0448807
0.0526787
0.059616
0.0664907
0.0740172
0.0830128
0.0944664
0.109597
0.129954
0.157457
0.194167
0.241533
0.299264
0.364508
0.432034
0.495525
0.549385
0.590169
0.617055
0.631398
0.635878
0.0164776
0.0351726
0.0453703
0.0530708
0.0598354
0.0664055
0.073401
0.0815113
0.0915621
0.10455
0.121691
0.144459
0.174458
0.212956
0.260083
0.3141
0.3713
0.4268
0.475864
0.515128
0.543196
0.560523
0.568852
0.0167004
0.0355743
0.0457447
0.05336
0.0599786
0.0662966
0.0728542
0.080229
0.0891044
0.100292
0.114752
0.133605
0.158071
0.189188
0.227289
0.271413
0.319077
0.366675
0.410384
0.447143
0.475266
0.494534
0.505871
0.0168862
0.0358808
0.0460221
0.0535597
0.0600507
0.0661558
0.0723503
0.0791175
0.0870185
0.0967129
0.108961
0.124623
0.144613
0.169746
0.200407
0.236132
0.275346
0.315509
0.353676
0.387227
0.414421
0.434602
0.448054
0.0170388
0.0361094
0.0462185
0.0536832
0.0600596
0.0659808
0.0718706
0.078135
0.0852324
0.0936972
0.104136
0.117215
0.133623
0.153986
0.178664
0.207476
0.239474
0.272946
0.305725
0.335687
0.361203
0.381392
0.396089
0.0171581
0.0362737
0.0463479
0.0537434
0.060015
0.0657741
0.0714045
0.0772498
0.0836847
0.0911407
0.100104
0.111097
0.12465
0.14124
0.161176
0.184426
0.210442
0.238116
0.265916
0.292199
0.315556
0.335037
0.350207
0.017245
0.0363838
0.0464219
0.0537525
0.0599277
0.0655422
0.0709484
0.0764411
0.0823278
0.0889563
0.0967163
0.106024
0.117296
0.130903
0.147102
0.16593
0.187088
0.209876
0.233251
0.255994
0.27695
0.295221
0.310237
0.0173017
0.0364481
0.0464515
0.0537226
0.0598096
0.0652942
0.0705044
0.0756974
0.0811277
0.0870758
0.0938545
0.101798
0.111239
0.122475
0.13572
0.151043
0.168291
0.187037
0.206585
0.226064
0.244571
0.261319
0.275711
0.0173322
0.0364754
0.0464478
0.053666
0.0596736
0.0650413
0.0700788
0.0750146
0.080062
0.0854485
0.0914249
0.0982604
0.106224
0.115561
0.126453
0.138985
0.153091
0.168515
0.184808
0.201361
0.217497
0.232565
0.246007
0.0173418
0.0364761
0.0464237
0.0535971
0.0595341
0.0647969
0.0696812
0.0743941
0.0791176
0.0840378
0.0893564
0.0952898
0.102057
0.109862
0.118865
0.129155
0.140719
0.153414
0.166955
0.180929
0.194842
0.208183
0.220466
0.0173371
0.0364637
0.0463948
0.0535325
0.0594081
0.0645767
0.0693241
0.0738416
0.0782882
0.0828185
0.0875955
0.092793
0.0985893
0.105154
0.112627
0.1211
0.130594
0.141036
0.152252
0.16397
0.175841
0.187478
0.198484
0.0173267
0.0364549
0.046381
0.0534932
0.0593161
0.0643998
0.0690233
0.073367
0.0775736
0.0817743
0.0861024
0.0906977
0.0957044
0.101263
0.107495
0.114489
0.122285
0.130858
0.140107
0.14986
0.159878
0.16988
0.179556
0.0173214
0.0364714
0.0464074
0.0535049
0.0592832
0.064289
0.0687978
0.0729836
0.076978
0.0808958
0.0848481
0.0889481
0.0933121
0.0980545
0.103279
0.109069
0.115472
0.122491
0.130078
0.138126
0.14648
0.154944
0.163288
0.0173352
0.0365409
0.046506
0.0536001
0.0593398
0.0642717
0.0686707
0.0727084
0.0765099
0.0801793
0.0838117
0.0875006
0.0913396
0.095421
0.0998314
0.104643
0.109907
0.115641
0.121828
0.12841
0.135289
0.142333
0.149384
0.0173857
0.0366985
0.0467165
0.0538183
0.0595226
0.0643799
0.0686686
0.0725612
0.0761808
0.0796252
0.0829791
0.0863214
0.0897282
0.0932737
0.0970276
0.101051
0.105391
0.110072
0.115094
0.120429
0.12602
0.131783
0.137612
0.017496
0.0369889
0.0470878
0.054206
0.0598731
0.0646488
0.0688196
0.0725629
0.0760034
0.0792364
0.0823404
0.085384
0.0884304
0.0915391
0.0947651
0.0981575
0.101755
0.105584
0.109651
0.113945
0.118433
0.123066
0.127778
0.0176956
0.037467
0.0476769
0.0548145
0.0604339
0.0651125
0.0691498
0.0727321
0.0759886
0.0790152
0.0818871
0.0846664
0.0874067
0.0901559
0.0929567
0.0958467
0.0988557
0.102004
0.105301
0.108742
0.112308
0.115971
0.119691
0.0180223
0.0381976
0.0485436
0.0556919
0.0612411
0.0657964
0.0696762
0.0730791
0.0761407
0.0789594
0.0816092
0.0841481
0.0866227
0.089072
0.0915286
0.0940194
0.0965648
0.0991783
0.101865
0.104621
0.107433
0.110285
0.113154
0.0185228
0.0392453
0.0497371
0.0568688
0.0623101
0.0667054
0.0703972
0.0735978
0.0764507
0.079057
0.0814907
0.0838066
0.0860464
0.088242
0.0904177
0.0925911
0.0947737
0.0969707
0.099181
0.101398
0.103609
0.105801
0.107962
0.0192494
0.0406526
0.0512714
0.058336
0.0636172
0.0678092
0.0712807
0.0742579
0.0768904
0.0792818
0.0815055
0.083614
0.0856448
0.0876243
0.0895696
0.0914906
0.0933904
0.0952665
0.0971107
0.0989111
0.100654
0.102326
0.10392
0.0202372
0.0424025
0.0530915
0.0600181
0.0650811
0.0690295
0.0722565
0.0749982
0.0774081
0.0795898
0.0816155
0.0835351
0.0853827
0.0871795
0.0889373
0.090659
0.0923409
0.0939732
0.0955416
0.0970289
0.0984181
0.0996972
0.100863
0.0214745
0.0443728
0.0550378
0.0617497
0.0665482
0.0702323
0.0732116
0.0757261
0.0779286
0.0799206
0.0817718
0.0835293
0.0852236
0.0868724
0.0884825
0.0900517
0.0915706
0.093024
0.0943925
0.0956552
0.0967933
0.0977962
0.0986686
0.0228617
0.046288
0.0568185
0.0632674
0.0677962
0.0712357
0.0739997
0.0763251
0.07836
0.0802024
0.0819185
0.0835528
0.0851331
0.0866738
0.0881784
0.0896411
0.0910487
0.0923821
0.0936191
0.0947369
0.0957168
0.0965518
0.0972592
0.0241099
0.0476615
0.0579957
0.0642213
0.0685553
0.0718332
0.0744626
0.076674
0.0786105
0.0803665
0.0820058
0.0835707
0.0850874
0.0865687
0.0880162
0.0894222
0.0907715
0.0920435
0.0932146
0.0942617
0.0951675
0.0959302
0.0965829
0.404274
0.394651
0.409329
0.458036
0.781447
0.783431
0.785344
0.787212
0.951516
0.938459
0.917806
0.889273
1.03407
0.993199
0.951034
0.907786
1.04072
0.990341
0.939535
0.889247
1.01476
0.958833
0.904581
0.852703
0.979747
0.922885
0.869046
0.818407
0.957242
0.900904
0.84825
0.799144
0.956145
0.900112
0.848092
0.799817
0.975686
0.919309
0.867551
0.819705
1.00189
0.949156
0.90149
0.855949
1.00494
0.966731
0.929267
0.889625
0.982528
0.954126
0.924928
0.895189
0.943487
0.923252
0.902207
0.880576
0.891806
0.87745
0.862475
0.847198
0.831843
0.821746
0.811121
0.800258
0.767136
0.76016
0.752585
0.744685
0.700528
0.696066
0.690864
0.685186
0.634261
0.631984
0.628816
0.624999
0.570144
0.56983
0.568506
0.566382
0.509623
0.511044
0.511394
0.510849
0.453772
0.456648
0.458462
0.459352
0.403251
0.40726
0.410276
0.412399
0.358306
0.363111
0.367034
0.370143
0.318814
0.324095
0.328628
0.332455
0.284382
0.289858
0.294727
0.29901
0.254467
0.259909
0.264876
0.269377
0.228486
0.233713
0.238585
0.243101
0.205897
0.210775
0.2154
0.219764
0.186249
0.190682
0.194945
0.199026
0.169191
0.173117
0.176936
0.180637
0.154463
0.157849
0.161173
0.164426
0.141872
0.144709
0.147515
0.150283
0.131251
0.133558
0.13585
0.138122
0.122439
0.124253
0.126059
0.127852
0.115259
0.116634
0.118001
0.119355
0.109519
0.110523
0.111513
0.112486
0.105035
0.105739
0.106425
0.10709
0.101645
0.102127
0.102589
0.103028
0.0992332
0.0995777
0.0999053
0.100212
0.0977299
0.0980315
0.0983378
0.0986382
0.0970667
0.0974243
0.0978789
0.0985036
0.632567
0.64148
0.619384
0.584149
0.544709
0.505201
0.466309
0.427499
0.388437
0.349939
0.31305
0.279063
0.248757
0.221435
0.19251
0.16512
0.153478
0.143421
0.0669595
0.781565
0.729337
0.676581
0.622498
0.571441
0.524214
0.479799
0.437036
0.395489
0.355554
0.317823
0.283036
0.251949
0.224128
0.197989
0.175179
0.1631
0.142228
0.060448
0.840306
0.761085
0.690927
0.626987
0.569756
0.5187
0.472138
0.428741
0.387956
0.349861
0.31472
0.282479
0.253011
0.226035
0.201518
0.180108
0.164108
0.135753
0.056742
0.844928
0.755969
0.677026
0.608336
0.548892
0.49698
0.450635
0.408557
0.370184
0.335449
0.304403
0.276726
0.251239
0.227192
0.204213
0.182539
0.162593
0.134888
0.0558052
0.820759
0.728798
0.647802
0.578409
0.519064
0.467664
0.422363
0.382044
0.346259
0.31496
0.288151
0.265465
0.245628
0.226597
0.2071
0.186053
0.162729
0.136767
0.0563823
0.784496
0.694704
0.615617
0.547635
0.489218
0.438459
0.393845
0.354547
0.32033
0.291309
0.267635
0.249124
0.234797
0.222259
0.208778
0.191561
0.165098
0.137185
0.0578206
0.752702
0.666669
0.590466
0.524202
0.466488
0.415757
0.370843
0.331194
0.296787
0.267957
0.245132
0.228501
0.217568
0.210653
0.204315
0.194488
0.168826
0.134197
0.0593738
0.735545
0.652523
0.578568
0.513408
0.455752
0.404297
0.358098
0.316755
0.280342
0.249306
0.224308
0.205959
0.194392
0.188746
0.186737
0.184071
0.1697
0.133788
0.0660393
0.737001
0.655332
0.582465
0.517625
0.459476
0.406844
0.358849
0.315102
0.275603
0.240683
0.21096
0.187208
0.170009
0.159179
0.153152
0.14876
0.141474
0.11084
0.0466013
0.756463
0.674528
0.601879
0.536847
0.477908
0.423997
0.374233
0.328185
0.285715
0.246901
0.212076
0.181802
0.156713
0.137064
0.122042
0.109233
0.0942191
0.0689643
0.0352353
0.791137
0.707534
0.634815
0.569421
0.509609
0.454551
0.403282
0.355395
0.310789
0.269418
0.231436
0.197255
0.167501
0.142899
0.123928
0.110141
0.0983021
0.0801071
0.0488424
0.82964
0.749799
0.678284
0.612856
0.552162
0.496153
0.443704
0.394339
0.348327
0.305652
0.266527
0.231654
0.201999
0.178793
0.163209
0.155511
0.150957
0.130494
0.0697768
0.84931
0.784719
0.722983
0.661908
0.602355
0.545741
0.492739
0.442009
0.394822
0.351493
0.312
0.27757
0.249847
0.23037
0.220486
0.221233
0.227854
0.202259
0.0890758
0.845784
0.796132
0.747011
0.697215
0.646073
0.594205
0.543834
0.493871
0.44605
0.402773
0.362958
0.32845
0.301862
0.284464
0.27708
0.280817
0.27842
0.223903
0.10103
0.821906
0.785942
0.748263
0.708471
0.667278
0.62513
0.581251
0.535088
0.49023
0.447667
0.407741
0.372039
0.344249
0.326966
0.319401
0.309422
0.274035
0.20858
0.105841
0.782035
0.756989
0.729797
0.699692
0.667237
0.632776
0.595604
0.556864
0.51785
0.479643
0.441514
0.405945
0.376167
0.353959
0.337261
0.31485
0.274118
0.207837
0.111628
0.731259
0.713521
0.695079
0.67359
0.649209
0.622153
0.591835
0.559273
0.525897
0.491254
0.455743
0.421293
0.390035
0.363705
0.341588
0.316785
0.277011
0.214177
0.117394
0.675224
0.662127
0.649146
0.634339
0.616989
0.596778
0.573285
0.547039
0.518798
0.488346
0.456015
0.4235
0.392742
0.365341
0.34139
0.31675
0.281571
0.223897
0.122842
0.617847
0.607937
0.59803
0.587786
0.575579
0.560957
0.543501
0.523226
0.500281
0.474526
0.446308
0.417245
0.389134
0.36364
0.341128
0.318382
0.286923
0.232993
0.127499
0.561777
0.554476
0.546837
0.539205
0.530474
0.519993
0.50726
0.491994
0.474031
0.453271
0.430131
0.405832
0.382023
0.36027
0.340833
0.320711
0.292162
0.240906
0.131454
0.508674
0.503803
0.498084
0.492095
0.485777
0.478236
0.469047
0.457835
0.44432
0.428413
0.410479
0.391483
0.372784
0.355579
0.339738
0.322186
0.295652
0.246169
0.135049
0.459471
0.456986
0.453165
0.448717
0.444047
0.438597
0.432042
0.42404
0.414318
0.402796
0.389759
0.375934
0.362309
0.349591
0.33718
0.32188
0.296822
0.248485
0.136716
0.414582
0.414403
0.412506
0.409636
0.406343
0.402527
0.397999
0.392531
0.38593
0.378148
0.369392
0.360155
0.351037
0.34224
0.332729
0.319224
0.295254
0.247837
0.136171
0.374064
0.376002
0.375986
0.374715
0.372757
0.37037
0.367489
0.364044
0.359955
0.355221
0.349985
0.344528
0.339087
0.333423
0.326151
0.313966
0.290793
0.244246
0.133607
0.337723
0.341485
0.343207
0.343491
0.342871
0.34179
0.340312
0.33851
0.336416
0.334078
0.331589
0.329053
0.326403
0.323052
0.317364
0.306074
0.2835
0.237906
0.129329
0.305215
0.310436
0.313658
0.315367
0.316045
0.316148
0.31589
0.315441
0.314917
0.314406
0.313964
0.313553
0.312876
0.311092
0.306417
0.29568
0.273596
0.229143
0.123673
0.276129
0.282411
0.286834
0.289761
0.291598
0.292766
0.293568
0.294231
0.294928
0.295773
0.296787
0.297827
0.298432
0.297596
0.293474
0.283038
0.261417
0.218355
0.116965
0.25005
0.257001
0.262298
0.266187
0.268991
0.271072
0.272771
0.274336
0.275968
0.277787
0.279784
0.281737
0.283079
0.28271
0.278796
0.268498
0.247369
0.20597
0.109495
0.226615
0.233867
0.239711
0.244288
0.247833
0.250652
0.253079
0.255357
0.257686
0.260178
0.262792
0.265249
0.266916
0.266662
0.262715
0.25246
0.231889
0.192408
0.101513
0.205537
0.212763
0.218842
0.223828
0.227867
0.231249
0.234235
0.237051
0.23988
0.242809
0.245764
0.248424
0.25012
0.249734
0.245597
0.235343
0.215406
0.178052
0.0932198
0.186618
0.193536
0.199563
0.204689
0.208996
0.212744
0.216119
0.219313
0.222475
0.225656
0.228747
0.231392
0.232913
0.232231
0.22781
0.217545
0.198313
0.163229
0.0847714
0.169739
0.176113
0.181832
0.186838
0.191212
0.195127
0.198721
0.202139
0.205485
0.20877
0.211842
0.21432
0.215526
0.214447
0.209693
0.199429
0.180956
0.148223
0.0762885
0.15484
0.160485
0.165672
0.170334
0.174573
0.178462
0.182098
0.185584
0.188977
0.192238
0.195172
0.197372
0.198177
0.196644
0.191546
0.181311
0.163646
0.133289
0.0678822
0.141884
0.146667
0.151137
0.155308
0.159198
0.162857
0.166354
0.169747
0.173047
0.176164
0.178859
0.180704
0.181057
0.179059
0.173647
0.163502
0.146705
0.118717
0.0596927
0.130827
0.134679
0.138359
0.141869
0.145222
0.148458
0.151628
0.154759
0.157819
0.160672
0.163038
0.164476
0.164368
0.161944
0.156304
0.146367
0.130543
0.104914
0.0519662
0.121599
0.124535
0.127376
0.13012
0.132793
0.135445
0.138118
0.140821
0.143492
0.145959
0.147918
0.148922
0.148392
0.145652
0.139956
0.130438
0.115773
0.0925168
0.0451521
0.114087
0.116188
0.118204
0.120156
0.122088
0.124059
0.126115
0.128256
0.130407
0.132385
0.133881
0.134466
0.133617
0.130758
0.125288
0.116518
0.103304
0.0824671
0.0399865
0.108169
0.109553
0.110841
0.112071
0.113304
0.114602
0.116012
0.117536
0.119101
0.120536
0.12156
0.121797
0.120801
0.118105
0.113239
0.105639
0.0942476
0.07592
0.0374306
0.103724
0.104558
0.105283
0.105951
0.106626
0.107369
0.108219
0.109181
0.110194
0.111121
0.111741
0.111755
0.110823
0.108591
0.1047
0.0986786
0.0895069
0.0739023
0.0384322
0.10068
0.101162
0.101524
0.101832
0.102147
0.102517
0.102971
0.103512
0.104097
0.104632
0.104967
0.104902
0.104205
0.102638
0.099947
0.0957697
0.0892017
0.0769252
0.044007
0.0990502
0.099359
0.0995365
0.0996659
0.0997972
0.0999625
0.100179
0.100447
0.100743
0.101015
0.10118
0.10113
0.100739
0.0998735
0.0983965
0.0961109
0.0924682
0.084867
0.0569514
0.0989967
0.0991945
0.0992736
0.099321
0.0993649
0.0994181
0.0994868
0.0995712
0.0996643
0.0997505
0.0998054
0.0997963
0.0996848
0.099432
0.0990057
0.0983877
0.0975637
0.0962398
0.0884354
)
;

boundaryField
{
    leftWall
    {
        type            kqRWallFunction;
        value           nonuniform List<scalar> 
50
(
0.00149979
0.00276089
0.00370253
0.00476745
0.00604913
0.00680997
0.00771
0.00892935
0.0111162
0.0133287
0.0151087
0.0162997
0.0169063
0.0170324
0.0180241
0.0176129
0.0155122
0.0138758
0.0130614
0.0129316
0.0132686
0.0138255
0.0144267
0.0149836
0.0154659
0.015871
0.0162054
0.0164776
0.0167004
0.0168862
0.0170388
0.0171581
0.017245
0.0173017
0.0173322
0.0173418
0.0173371
0.0173267
0.0173214
0.0173352
0.0173857
0.017496
0.0176956
0.0180223
0.0185228
0.0192494
0.0202372
0.0214745
0.0228617
0.0241099
)
;
    }
    rightWall
    {
        type            kqRWallFunction;
        value           nonuniform List<scalar> 
50
(
0.0300112
0.0456313
0.0529124
0.0590797
0.0649148
0.068892
0.0709552
0.0706044
0.0669595
0.060448
0.056742
0.0558052
0.0563823
0.0578206
0.0593738
0.0660393
0.0466013
0.0352353
0.0488424
0.0697768
0.0890758
0.10103
0.105841
0.111628
0.117394
0.122842
0.127499
0.131454
0.135049
0.136716
0.136171
0.133607
0.129329
0.123673
0.116965
0.109495
0.101513
0.0932198
0.0847714
0.0762885
0.0678822
0.0596927
0.0519662
0.0451521
0.0399865
0.0374306
0.0384322
0.044007
0.0569514
0.0884354
)
;
    }
    lowerWall
    {
        type            kqRWallFunction;
        value           nonuniform List<scalar> 
62
(
0.00149979
0.00333605
0.00502225
0.00644595
0.00765663
0.00869224
0.00961072
0.0104848
0.0113955
0.0124301
0.0136797
0.0152411
0.0172159
0.0195028
0.0219868
0.0245294
0.026902
0.0287462
0.0295064
0.0283058
0.0238723
0.0149444
0.00395503
0.00395503
0.0119357
0.0205141
0.0325616
0.0522358
0.0877839
0.153968
0.277839
0.404274
0.394651
0.409329
0.458036
0.0394406
0.0555532
0.0612288
0.0861299
0.154917
0.231426
0.322445
0.44624
0.0394406
0.0795752
0.113097
0.12476
0.120735
0.112863
0.106015
0.101201
0.0954129
0.0883305
0.0807869
0.0731135
0.0655439
0.0567007
0.0441434
0.0303383
0.0293229
0.0274256
0.0300112
)
;
    }
    atmosphere
    {
        type            inletOutlet;
        inletValue      uniform 0.1;
        value           nonuniform List<scalar> 
46
(
0.0241099
0.0476615
0.0579957
0.0642213
0.0685553
0.0718332
0.0744626
0.076674
0.0786105
0.0803665
0.0820058
0.0835707
0.0850874
0.0865687
0.0880162
0.0894222
0.0907715
0.0920435
0.0932146
0.0942617
0.0951675
0.0959302
0.0965829
0.0970667
0.0974243
0.0978789
0.1
0.1
0.1
0.1
0.1
0.1
0.1
0.1
0.1
0.1
0.1
0.1
0.1
0.1
0.1
0.1
0.1
0.1
0.1
0.1
)
;
    }
    defaultFaces
    {
        type            empty;
    }
}


// ************************************************************************* //
