/*--------------------------------*- C++ -*----------------------------------*\
  =========                 |
  \\      /  F ield         | OpenFOAM: The Open Source CFD Toolbox
   \\    /   O peration     | Website:  https://openfoam.org
    \\  /    A nd           | Version:  13
     \\/     M anipulation  |
\*---------------------------------------------------------------------------*/
FoamFile
{
    format      ascii;
    class       volScalarField;
    location    "0.8";
    object      nut;
}
// * * * * * * * * * * * * * * * * * * * * * * * * * * * * * * * * * * * * * //

dimensions      [0 2 -1 0 0 0 0];

internalField   nonuniform List<scalar> 
2268
(
2.61672e-05
3.90451e-05
4.79298e-05
5.42881e-05
5.91329e-05
6.29787e-05
6.62303e-05
6.92387e-05
7.2314e-05
7.57326e-05
7.97298e-05
8.452e-05
9.01668e-05
9.61269e-05
0.00010211
0.000107825
0.000112869
0.000116648
0.000118204
0.000115847
0.000106492
8.42987e-05
4.22344e-05
7.54161e-05
0.000268646
0.000384073
0.000453012
0.000498237
0.000532806
0.00056613
0.00060467
0.000653105
0.000715125
0.000793443
0.000889027
0.000988491
0.0010832
0.00117077
0.00124875
0.00131357
0.00135861
0.00137047
0.00132259
0.00116652
0.000817725
0.000157397
8.74796e-05
0.000475803
0.000723296
0.000877571
0.000979523
0.00105765
0.00113389
0.00122362
0.00133773
0.00148361
0.00166488
0.00187864
0.00210029
0.00231024
0.00249387
0.00263868
0.00273234
0.00275911
0.00269244
0.002484
0.00205592
0.00131039
0.000207065
9.92827e-05
0.000649797
0.00101609
0.00125175
0.00141219
0.00153836
0.00166234
0.00180648
0.00198625
0.00221021
0.00248057
0.00278524
0.00309373
0.00337433
0.00359866
0.00374355
0.00379295
0.00373504
0.00355078
0.00319533
0.00258548
0.00162007
0.000261347
0.000111732
0.000799839
0.00127293
0.00158479
0.00180332
0.00198014
0.00215449
0.00235321
0.00259445
0.00288577
0.00322575
0.00359298
0.00394957
0.00425151
0.0044597
0.00454849
0.0045126
0.00436189
0.00409813
0.00367953
0.00299547
0.001895
0.000331055
0.000118229
0.000918194
0.00149438
0.00188161
0.00215863
0.00238913
0.00261483
0.00286649
0.00316359
0.00351122
0.00390307
0.00430902
0.00468072
0.00496298
0.00511245
0.00511365
0.0049879
0.0047777
0.00450325
0.00410801
0.00342406
0.00220629
0.000427137
0.000124764
0.00100718
0.00167184
0.00213062
0.00247459
0.00276478
0.00304209
0.00334545
0.0036932
0.00408754
0.00451689
0.00494188
0.00530163
0.00553265
0.00559636
0.00550115
0.00530685
0.00508953
0.00487455
0.00457241
0.00394268
0.00260688
0.000560028
0.000133719
0.00109138
0.00183088
0.00234399
0.00274459
0.00309472
0.0034308
0.00378777
0.00418204
0.00461553
0.00507133
0.00549918
0.00582516
0.00598211
0.00594664
0.0057633
0.00553641
0.00536764
0.00527006
0.0051123
0.00459467
0.00318911
0.000743545
0.000132665
0.000189259
0.000224443
0.000236463
0.000232992
0.000225545
0.000218432
0.000213603
0.000207653
0.000199719
0.000190891
0.000181433
0.000171677
0.000159919
0.000141505
0.00011651
0.000111798
0.000109057
0.000114958
0.000370959
0.00128901
0.00175507
0.00200406
0.00210915
0.00212624
0.00210201
0.00205877
0.00198717
0.00188924
0.0017658
0.00162399
0.00149682
0.0013307
0.000967165
0.000557796
0.000506787
0.000515371
0.000331872
0.000393582
0.00185737
0.00295107
0.00368281
0.00404752
0.00417517
0.004177
0.00410784
0.00396805
0.00376793
0.00351818
0.00323404
0.00294943
0.00258015
0.0019178
0.00105907
0.000801519
0.000840881
0.000356652
0.000472604
0.00214544
0.00381096
0.00494694
0.00556778
0.00583417
0.00588959
0.00581323
0.00562572
0.00534785
0.00499809
0.0045958
0.00416846
0.00363101
0.00275756
0.00160216
0.00108251
0.00112553
0.000376034
0.000622841
0.00251702
0.0045609
0.00597653
0.00678198
0.00716007
0.00726497
0.00718775
0.00696583
0.00662863
0.0062001
0.00569986
0.00515148
0.00448958
0.00346477
0.0021198
0.00136863
0.00138714
0.000394495
0.000752194
0.00306074
0.00536652
0.00691767
0.00780938
0.00824703
0.00837953
0.00829753
0.00804688
0.00766248
0.00717135
0.00659327
0.0059496
0.00518736
0.00405918
0.00257715
0.00170844
0.00165221
0.000406662
0.000881882
0.00380563
0.0062827
0.00782781
0.00871572
0.00916217
0.00929748
0.00920189
0.00892329
0.00849915
0.0079585
0.00732151
0.00660491
0.00575959
0.00456733
0.0030339
0.0021528
0.00190359
0.000412466
0.00103327
0.00481353
0.00727988
0.00870345
0.0095258
0.00994386
0.0100605
0.00994154
0.00963328
0.00917343
0.00859331
0.0079127
0.00714172
0.00623897
0.00502153
0.00354509
0.00262664
0.00212421
0.000410971
0.000149295
0.00122792
0.00208425
0.00267844
0.0031488
0.00357081
0.00398894
0.00442418
0.0048856
0.00537064
0.00584702
0.00625299
0.00649921
0.00652477
0.00634697
0.006078
0.00588078
0.00586519
0.00599844
0.0060935
0.0058469
0.00488153
0.00294483
0.000163609
0.00137973
0.00238363
0.00308387
0.00363949
0.00413777
0.00462737
0.00513439
0.00566625
0.00620359
0.00668612
0.00702096
0.00711218
0.00693402
0.00659262
0.00631176
0.00630635
0.00663101
0.00714651
0.00762475
0.00785438
0.0076833
0.00706668
0.000174401
0.00150554
0.00264859
0.00345524
0.00409639
0.00466829
0.00522225
0.0057845
0.00635736
0.00690579
0.00734355
0.0075521
0.00745367
0.00709631
0.00669977
0.00657143
0.00690162
0.00761265
0.00844225
0.00915426
0.00962414
0.00981793
0.00978399
0.000181312
0.00159626
0.00285429
0.00375668
0.00447877
0.00512249
0.00574068
0.00635593
0.00695748
0.00748453
0.00782289
0.00785195
0.00755227
0.00708334
0.00677559
0.00696302
0.00772817
0.00880131
0.00981148
0.0105716
0.0110571
0.0113154
0.0114119
0.00018471
0.00164654
0.00298442
0.00396563
0.00476367
0.00548096
0.00616836
0.00683872
0.00745707
0.00792642
0.00811146
0.00792785
0.00746377
0.00701178
0.00697556
0.00763241
0.00886618
0.0101762
0.0111495
0.0117643
0.0121174
0.0122837
0.0123532
0.000185423
0.00165091
0.0030311
0.00407507
0.00494808
0.00574677
0.00651284
0.00723886
0.00785173
0.00821549
0.00820246
0.0078178
0.00730756
0.00708253
0.00752552
0.00872438
0.0103853
0.0116377
0.012207
0.0125847
0.0128062
0.0129166
0.012985
0.000189497
0.0016086
0.00301066
0.00410443
0.00505463
0.00594707
0.00680019
0.00757013
0.00813969
0.00835508
0.00814207
0.00762939
0.00723183
0.00738945
0.00830256
0.00980803
0.0113911
0.0123717
0.0128365
0.0131156
0.0132958
0.0133993
0.0134913
0.000190357
0.0015737
0.00295747
0.00409414
0.00511318
0.00608836
0.00701634
0.00780232
0.00827493
0.0083007
0.00795076
0.00754743
0.00747802
0.0079818
0.00902279
0.0103476
0.0115804
0.0124829
0.0131419
0.0135016
0.0137079
0.0138294
0.0139616
0.000179587
0.00146459
0.00281825
0.00397198
0.00505441
0.00611858
0.00712569
0.00792601
0.008323
0.00825312
0.00792255
0.00770855
0.00790366
0.00857317
0.00958462
0.0107096
0.0117089
0.0125338
0.0132954
0.0138099
0.0140693
0.014224
0.0144182
0.000169229
0.00132992
0.00264768
0.00382083
0.00496072
0.00610598
0.00718631
0.00801241
0.00838809
0.00831704
0.00807451
0.00801883
0.00835297
0.00906461
0.0100036
0.0109782
0.0118354
0.0125731
0.0132976
0.0139327
0.0143105
0.0145757
0.014856
0.00016356
0.0012353
0.00250879
0.00369753
0.00488118
0.00608984
0.00723375
0.00810119
0.00850221
0.00847767
0.00832132
0.00835997
0.00874757
0.00944515
0.0103088
0.011178
0.0119422
0.0126052
0.0132482
0.013849
0.0143553
0.0148265
0.0152453
0.00016208
0.00120361
0.00244578
0.00364574
0.00485433
0.00609382
0.00728112
0.008195
0.00864796
0.0086872
0.00859665
0.00867856
0.00906845
0.00972594
0.0105208
0.0113151
0.0120182
0.0126272
0.0132034
0.0137673
0.014313
0.0148753
0.0154516
0.000163736
0.00122563
0.00246691
0.00367471
0.0048894
0.00613177
0.00733376
0.00828958
0.00880638
0.00891481
0.0088721
0.00896254
0.00932232
0.00992408
0.0106545
0.0113915
0.0120533
0.0126269
0.0131566
0.0136831
0.014232
0.0148381
0.0154978
0.000166962
0.00128176
0.00255
0.00376804
0.00497656
0.00620197
0.00739455
0.00838165
0.00896641
0.00914755
0.00914288
0.00922057
0.00952829
0.0100612
0.0107257
0.0114127
0.0120439
0.0125956
0.0130957
0.0135888
0.014118
0.0147298
0.0154258
0.000170557
0.00135309
0.00266645
0.00389992
0.00509787
0.00629508
0.00746347
0.00846765
0.00912074
0.00938033
0.00941414
0.00947016
0.0097118
0.0101634
0.0107554
0.0113909
0.0119929
0.012528
0.013012
0.0134844
0.0139915
0.0145776
0.0152586
0.000173896
0.00142624
0.00279301
0.00404675
0.00523495
0.00640037
0.00753635
0.00854462
0.00926218
0.00960778
0.0096907
0.00972895
0.00989922
0.010259
0.0107662
0.0113387
0.0119041
0.0124248
0.0129025
0.0133656
0.0138553
0.0144117
0.0150532
0.000176768
0.00149336
0.00291439
0.00419127
0.00537284
0.00650782
0.00760785
0.00860996
0.00938099
0.00981896
0.00996829
0.0100043
0.0101061
0.0103646
0.0107737
0.0112724
0.0117949
0.0122985
0.0127728
0.0132337
0.0137123
0.0142412
0.0148364
0.000179154
0.0015508
0.00302206
0.0043227
0.00550106
0.00660939
0.00767321
0.00866022
0.0094696
0.00999378
0.0102239
0.0102807
0.0103324
0.0104967
0.0108041
0.0112203
0.01169
0.0121688
0.0126366
0.0130969
0.0135686
0.0140746
0.0146263
0.000181098
0.00159743
0.00311221
0.00443533
0.00561317
0.00669936
0.00772881
0.00869373
0.00952576
0.0101259
0.0104474
0.010554
0.0105862
0.0106749
0.0108844
0.0112115
0.0116172
0.0120599
0.012513
0.0129688
0.0134342
0.0139213
0.0144355
0.00018266
0.00163345
0.00318393
0.00452694
0.00570595
0.00677427
0.00777234
0.00871041
0.00954956
0.0102097
0.0106251
0.0108088
0.0108596
0.010904
0.0110311
0.0112694
0.0116024
0.0119968
0.0124237
0.0128669
0.0133223
0.0137918
0.0142743
0.000183915
0.00165956
0.00323796
0.00459766
0.00577855
0.00683256
0.00780273
0.0087114
0.00954386
0.010244
0.0107444
0.0110221
0.0111297
0.0111707
0.011244
0.0114053
0.0116637
0.0120001
0.0123887
0.0128084
0.0132465
0.0136959
0.0141495
0.000184936
0.00167703
0.00327624
0.00464914
0.0058318
0.00687419
0.00781993
0.00869867
0.00951365
0.0102325
0.0107993
0.0111724
0.0113642
0.0114439
0.0115025
0.0116116
0.0118039
0.0120791
0.0124197
0.0128047
0.013216
0.01364
0.0140643
0.000185758
0.00168791
0.00330163
0.00468406
0.00586762
0.00690019
0.0078247
0.00867451
0.00946488
0.0101836
0.010792
0.0112465
0.0115324
0.0116832
0.0117679
0.011859
0.0120056
0.0122258
0.0125149
0.0128565
0.0132317
0.013623
0.0140146
0.000186392
0.00169434
0.00331716
0.00470537
0.00588844
0.00691221
0.00781826
0.00864118
0.00940336
0.0101075
0.0107328
0.0112441
0.0116151
0.0118511
0.0119937
0.0121026
0.0122316
0.0124127
0.0126547
0.0129498
0.0132822
0.013634
0.0139879
0.00018685
0.00169777
0.00332526
0.00471577
0.00589671
0.00691216
0.00780207
0.00860071
0.009334
0.0100144
0.010636
0.0111764
0.0116098
0.0119254
0.0121399
0.0122935
0.0124334
0.0125972
0.012804
0.0130559
0.0133433
0.0136512
0.0139629
0.000187147
0.00169902
0.0033276
0.00471737
0.00589456
0.00690191
0.00777761
0.0085548
0.00926053
0.00991277
0.0105163
0.0110614
0.0115292
0.0119038
0.0121856
0.012395
0.0125661
0.0127331
0.0129203
0.0131378
0.0133831
0.0136462
0.0139132
0.000187305
0.00169858
0.00332526
0.00471171
0.00588377
0.0068831
0.00774626
0.00850482
0.00918552
0.00980888
0.0103864
0.0109181
0.0113943
0.0118014
0.012132
0.0123922
0.0126013
0.0127852
0.0129669
0.0131605
0.01337
0.0135907
0.013813
0.000187352
0.0016967
0.00331896
0.00469994
0.00586575
0.00685717
0.00770926
0.00845185
0.00911062
0.00970673
0.0102552
0.0107629
0.011228
0.0116425
0.011998
0.0122926
0.0125342
0.0127382
0.0129225
0.0131013
0.0132821
0.0134648
0.0136443
0.000187323
0.00169365
0.00330925
0.00468301
0.00584172
0.00682543
0.00766773
0.00839676
0.00903677
0.0096085
0.0101285
0.0106075
0.0110496
0.0114526
0.0118107
0.0121196
0.0123798
0.0125983
0.0127863
0.0129551
0.0131126
0.013262
0.0134017
0.000187262
0.0016897
0.00329676
0.00466188
0.0058129
0.00678915
0.0076228
0.00834033
0.00896449
0.00951514
0.010009
0.010459
0.0108727
0.0112527
0.0115969
0.0119017
0.0121647
0.0123873
0.0125745
0.0127334
0.0128706
0.0129903
0.0130932
0.000187225
0.00168525
0.00328225
0.0046377
0.00578068
0.00674975
0.00757565
0.00828333
0.0088941
0.00942677
0.00989777
0.0103207
0.0107053
0.0110572
0.0113779
0.0116656
0.0119179
0.0121332
0.0123125
0.0124588
0.0125763
0.0126685
0.0127373
0.000187286
0.00168085
0.00326682
0.00461198
0.00574678
0.00670892
0.0075277
0.00822663
0.00882581
0.00934308
0.00979431
0.0101932
0.0105506
0.010874
0.0111673
0.011431
0.0116636
0.011863
0.0120277
0.0121578
0.0122548
0.0123208
0.0123578
0.000187537
0.00167725
0.00325193
0.00458668
0.00571337
0.00666867
0.00748053
0.00817122
0.00875984
0.0092635
0.00969759
0.0100757
0.010409
0.0107061
0.0109723
0.0112101
0.0114191
0.0115975
0.0117431
0.0118542
0.0119302
0.0119715
0.0119791
0.000188095
0.00167547
0.00323944
0.00456418
0.00568291
0.00663126
0.00743591
0.00811814
0.00869641
0.00918739
0.00960621
0.00996627
0.0102789
0.0105532
0.0107952
0.0110085
0.0111939
0.0113503
0.0114754
0.0115667
0.0116221
0.0116404
0.0116217
0.000189111
0.00167666
0.00323137
0.00454693
0.00565791
0.00659891
0.00739551
0.00806838
0.00863572
0.00911415
0.00951877
0.00986298
0.0101581
0.0104133
0.0106351
0.0108275
0.0109922
0.0111285
0.0112343
0.011307
0.0113436
0.011342
0.0113008
0.000190768
0.00168187
0.00322922
0.00453676
0.00564027
0.00657331
0.00736064
0.00802272
0.00857796
0.00904332
0.0094342
0.00976413
0.0100445
0.0102843
0.0104901
0.0106661
0.0108141
0.010934
0.0110239
0.011081
0.011102
0.0110841
0.0110251
0.000193273
0.00169114
0.00323287
0.00453379
0.0056304
0.00655505
0.00733188
0.00798161
0.00852336
0.00897487
0.00935213
0.00966895
0.00993674
0.0101644
0.0103583
0.0105224
0.0106585
0.0107665
0.0108446
0.0108901
0.0108995
0.0108695
0.0107975
0.000196843
0.00170234
0.00323927
0.0045355
0.00562662
0.00654315
0.00730889
0.0079452
0.00847243
0.00890952
0.00927332
0.0095781
0.00983532
0.0100536
0.0102391
0.0103954
0.010524
0.0106245
0.0106952
0.0107332
0.010735
0.0106971
0.0106163
0.000201569
0.00171095
0.00324258
0.00453697
0.00562543
0.00653552
0.00729068
0.00791355
0.00842617
0.00884904
0.00920007
0.00949407
0.0097426
0.00995408
0.0101341
0.0102859
0.0104105
0.0105072
0.0105742
0.0106084
0.0106061
0.0105634
0.0104762
0.000207285
0.00171128
0.00323623
0.0045327
0.00562261
0.0065293
0.007276
0.007887
0.00838645
0.00879654
0.0091364
0.0094214
0.00966318
0.00986992
0.0100468
0.0101965
0.0103196
0.0104153
0.0104812
0.0105141
0.0105101
0.010464
0.0103696
0.000213455
0.00169994
0.00321809
0.0045208
0.00561615
0.00652281
0.00726418
0.00786647
0.00835584
0.00875618
0.00908763
0.0093661
0.00960329
0.00980717
0.00998256
0.0101317
0.0102549
0.0103508
0.010417
0.0104501
0.0104452
0.0103957
0.0102901
0.000218829
0.001682
0.00319667
0.00450707
0.00560867
0.0065171
0.00725636
0.00785413
0.00833804
0.00873306
0.00905999
0.00933504
0.00956996
0.0097726
0.00994755
0.0100968
0.0102204
0.010317
0.0103838
0.0104172
0.010412
0.0103591
0.0102403
0.000889489
0.000877041
0.000891437
0.000942456
0.00636162
0.00628119
0.00637261
0.0066759
0.00970531
0.00972311
0.00982126
0.010015
0.0114474
0.0114913
0.0115683
0.0116826
0.0124321
0.0124973
0.0125695
0.0126526
0.0130899
0.0131726
0.0132545
0.0133375
0.0136318
0.0137438
0.0138502
0.0139485
0.0141504
0.0142975
0.0144335
0.0145519
0.0146566
0.0148378
0.015003
0.0151415
0.015141
0.0153518
0.0155443
0.0157025
0.0155874
0.015829
0.0160541
0.0162367
0.0158978
0.0161904
0.0164537
0.0166672
0.0160088
0.0163422
0.0166461
0.0169085
0.0159668
0.0163239
0.0166606
0.0169621
0.0157966
0.0161618
0.0165148
0.0168401
0.015558
0.0159123
0.0162607
0.0165914
0.0152992
0.0156328
0.0159655
0.0162886
0.0150472
0.0153552
0.0156648
0.0159701
0.0148194
0.0151009
0.0153845
0.0156665
0.0146269
0.0148835
0.0151413
0.0153979
0.0144758
0.0147095
0.0149428
0.0151742
0.0143665
0.0145787
0.0147887
0.0149954
0.0142926
0.0144832
0.0146701
0.0148524
0.0142393
0.0144074
0.0145706
0.0147279
0.0141846
0.0143287
0.0144672
0.0145989
0.0141023
0.0142215
0.0143345
0.0144402
0.0139681
0.0140622
0.0141499
0.01423
0.0137655
0.0138354
0.0138987
0.0139545
0.0134902
0.0135375
0.013578
0.0136112
0.0131509
0.0131773
0.0131969
0.0132092
0.012766
0.0127733
0.0127736
0.0127667
0.0123597
0.0123495
0.012332
0.0123071
0.0119565
0.0119305
0.0118966
0.0118551
0.0115775
0.0115376
0.0114893
0.0114328
0.0112383
0.0111869
0.0111265
0.0110573
0.0109483
0.0108881
0.0108183
0.0107394
0.0107106
0.0106442
0.0105681
0.0104826
0.0105225
0.0104521
0.0103721
0.0102827
0.0103761
0.0103019
0.010218
0.0101254
0.0102587
0.0101762
0.010083
0.00998223
0.0101565
0.0100528
0.00993199
0.00980239
0.0100726
0.00992812
0.00973505
0.00948034
0.00427106
0.00699874
0.0087964
0.00992907
0.0106127
0.0109614
0.0110331
0.0108715
0.0105213
0.0100198
0.00939398
0.00866667
0.00784002
0.00688129
0.00567758
0.00431944
0.00331522
0.00239232
0.00040141
0.00803427
0.00943148
0.0104938
0.0112293
0.0116865
0.0118912
0.0118618
0.0116252
0.0112157
0.0106673
0.0100017
0.00923808
0.00837681
0.00738963
0.00622065
0.00492639
0.0037308
0.00238327
0.000382926
0.0104478
0.0111038
0.0117005
0.0121459
0.0124058
0.0124634
0.0123184
0.0119906
0.0115122
0.0109179
0.0102336
0.00946866
0.00861834
0.00765067
0.0065247
0.00523989
0.00387727
0.00230398
0.00037231
0.0118602
0.0121846
0.0125166
0.0127614
0.0128555
0.0127659
0.0124899
0.0120498
0.011482
0.0108266
0.0101166
0.00936639
0.00855825
0.00765623
0.00661135
0.00538367
0.00397634
0.0023488
0.00037099
0.0127426
0.0129176
0.0130978
0.0131901
0.0131261
0.0128752
0.0124427
0.0118601
0.0111723
0.010428
0.00966993
0.00892412
0.00818475
0.00739196
0.00648925
0.00540947
0.00408882
0.00250716
0.000374119
0.0134047
0.0135073
0.0135778
0.0135255
0.0132906
0.0128558
0.0122399
0.0114852
0.0106462
0.00978188
0.00894746
0.00818308
0.00749978
0.00685014
0.00613811
0.00527556
0.00411501
0.00259571
0.000380112
0.0140174
0.0140674
0.0140295
0.0138215
0.0134011
0.0127696
0.0119594
0.011021
0.0100146
0.00900725
0.00806658
0.00724847
0.006578
0.00603489
0.00552251
0.00490623
0.00396664
0.00254783
0.000390182
0.0146303
0.0146267
0.0144736
0.0141059
0.013505
0.0126916
0.0117076
0.010605
0.00944244
0.00828665
0.00721241
0.00629031
0.00556269
0.0050216
0.00460667
0.00419758
0.00355072
0.0023345
0.000409335
0.0152323
0.0151776
0.0149178
0.0144111
0.0136644
0.0127143
0.0116071
0.0103895
0.00910971
0.00782434
0.00660353
0.00552505
0.00465026
0.00399245
0.00350218
0.00308225
0.00261815
0.00176568
0.000342604
0.01581
0.0157205
0.0153843
0.0147829
0.0139453
0.01292
0.0117529
0.0104819
0.0091413
0.00777085
0.00642615
0.00518019
0.00410729
0.00325013
0.00259124
0.00205594
0.00154254
0.000930935
0.000297069
0.0163668
0.0162691
0.0158997
0.0152566
0.0143853
0.0133428
0.012172
0.0109025
0.00955684
0.00816009
0.00675227
0.00539785
0.00417855
0.00316707
0.00239397
0.00183077
0.00138786
0.000920059
0.000353434
0.016866
0.016821
0.0164712
0.0158369
0.014978
0.0139611
0.0128258
0.0115954
0.0102869
0.00891516
0.00750813
0.00612518
0.00485611
0.00379577
0.00300176
0.00246072
0.00204663
0.00145338
0.000420803
0.0172151
0.0172905
0.0170392
0.0164805
0.0156824
0.0147193
0.0136448
0.0124744
0.0112268
0.00991437
0.00855036
0.00718552
0.00591341
0.00483705
0.00402407
0.00347631
0.00305935
0.0022883
0.000472433
0.0173639
0.0175769
0.0174575
0.0170328
0.0163602
0.0155062
0.0145273
0.0134439
0.0122734
0.0110447
0.00974992
0.00842739
0.00716645
0.00605941
0.00517571
0.00455205
0.00393567
0.00263597
0.00049723
0.0173223
0.0176632
0.0176778
0.0173913
0.0168621
0.0161532
0.015307
0.0143408
0.0132892
0.0121603
0.0109541
0.00969533
0.00846778
0.00736942
0.00645691
0.00563087
0.0045014
0.00263501
0.000507383
0.0171142
0.0175621
0.0177015
0.0175495
0.017158
0.0165835
0.0158659
0.0150357
0.0141201
0.0131318
0.0120568
0.0109153
0.00976768
0.00868003
0.00767117
0.00659729
0.00508164
0.00274339
0.000522247
0.0168159
0.0173108
0.0175477
0.017519
0.0172565
0.0168082
0.0162136
0.0155075
0.0147202
0.0138557
0.0129096
0.0118967
0.0108458
0.00978046
0.0086855
0.00742011
0.00562089
0.00297179
0.000536694
0.016478
0.0169804
0.017277
0.0173396
0.0171867
0.0168537
0.0163752
0.0157845
0.0151103
0.0143591
0.0135303
0.0126338
0.0116782
0.0106525
0.00950594
0.00809898
0.00613688
0.00331891
0.000549807
0.0161402
0.0166228
0.0169449
0.0170679
0.0169978
0.0167595
0.0163828
0.0158969
0.0153247
0.0146751
0.0139505
0.0131577
0.0122901
0.0113116
0.0101459
0.00865531
0.00659122
0.00364628
0.00056049
0.0158299
0.0162763
0.0165956
0.0167533
0.0167413
0.0165762
0.0162821
0.0158833
0.015399
0.0148398
0.0142099
0.0135083
0.0127149
0.0117773
0.0106067
0.00907203
0.00695485
0.00392398
0.000569388
0.0155617
0.0159637
0.0162622
0.0164315
0.0164555
0.0163442
0.0161151
0.0157878
0.0153785
0.0148973
0.0143471
0.0137196
0.0129844
0.0120794
0.010912
0.00935479
0.00719585
0.00409202
0.000577293
0.0153378
0.0156925
0.0159596
0.0161216
0.016164
0.016089
0.015909
0.015639
0.015292
0.0148758
0.0143899
0.0138196
0.0131274
0.0122478
0.01109
0.00952832
0.00734829
0.00419115
0.000580296
0.0151498
0.0154566
0.0156869
0.0158297
0.0158753
0.015821
0.0156753
0.0154489
0.0151512
0.0147865
0.0143499
0.0138216
0.0131602
0.0123014
0.0111584
0.00960618
0.00742524
0.00424427
0.000578524
0.0149803
0.0152394
0.0154304
0.0155468
0.0155838
0.015537
0.0154124
0.0152168
0.0149556
0.0146291
0.0142284
0.0137298
0.0130913
0.0122516
0.0111281
0.00959628
0.00743218
0.00425647
0.000572542
0.0148063
0.0150183
0.0151692
0.0152553
0.0152753
0.0152261
0.0151112
0.0149346
0.0146982
0.0143986
0.014023
0.0135458
0.0129259
0.0121059
0.0110069
0.00950474
0.00737351
0.00423071
0.000562936
0.0146035
0.0147693
0.0148804
0.014935
0.0149334
0.0148746
0.0147606
0.0145934
0.0143721
0.0140901
0.0137321
0.0132715
0.0126691
0.011871
0.0108017
0.00933774
0.00725428
0.00417025
0.000550243
0.0143511
0.0144721
0.0145448
0.0145681
0.014543
0.0144701
0.0143509
0.014186
0.0139727
0.013702
0.013357
0.0129111
0.012327
0.0115542
0.0105197
0.00910219
0.00708047
0.00407884
0.000534948
0.0140363
0.0141147
0.0141507
0.0141435
0.0140945
0.0140051
0.0138769
0.0137098
0.0134997
0.0132364
0.0129022
0.012471
0.0119073
0.0111634
0.0101689
0.00880589
0.00685889
0.00396067
0.000517469
0.013657
0.0136948
0.0136955
0.0136586
0.0135856
0.0134782
0.0133388
0.0131668
0.0129571
0.0126992
0.0123751
0.0119595
0.0114188
0.0107076
0.00975837
0.00845738
0.00659686
0.00382018
0.000498168
0.0132219
0.0132202
0.0131861
0.0131192
0.013021
0.0128948
0.0127425
0.0125635
0.0123526
0.012099
0.0117852
0.0113868
0.0108717
0.0101968
0.00929769
0.00806568
0.00630197
0.0036618
0.000477329
0.0127485
0.0127073
0.0126372
0.0125385
0.0124133
0.0122661
0.0120989
0.0119111
0.0116975
0.0114477
0.0111445
0.0107646
0.0102775
0.00964203
0.0087973
0.00764022
0.00598178
0.00348972
0.00045516
0.0122595
0.0121779
0.0120693
0.0119354
0.0117805
0.0116092
0.011424
0.0112247
0.0110067
0.0107597
0.0104672
0.0101068
0.00964924
0.00905573
0.00826867
0.00719104
0.00564397
0.00330795
0.00043181
0.0117794
0.0116561
0.0115062
0.0113338
0.0111451
0.0109454
0.0107382
0.010524
0.0102989
0.0100531
0.00977058
0.00942979
0.0090028
0.00845273
0.00772539
0.00672975
0.00529697
0.00312051
0.000407422
0.011331
0.0111661
0.0109733
0.0107599
0.0105334
0.0103006
0.0100668
0.00983363
0.00959799
0.00935074
0.00907667
0.00875483
0.00835843
0.00785236
0.00718539
0.00627171
0.00495172
0.00293223
0.000382265
0.0109326
0.0107289
0.0104952
0.0102404
0.00997392
0.00970489
0.00944051
0.00918427
0.00893433
0.0086826
0.00841472
0.00811054
0.00774429
0.00728218
0.00667491
0.00583998
0.00462476
0.00275004
0.000357044
0.0105966
0.0103608
0.0100918
0.00979989
0.00949617
0.00919181
0.00889614
0.00861477
0.00834785
0.00808899
0.00782523
0.00753768
0.00720153
0.00678363
0.00623459
0.00547125
0.00434276
0.00258449
0.000333408
0.0103276
0.0100697
0.00977666
0.00945905
0.00912861
0.00879738
0.00847628
0.00817302
0.00789027
0.00762427
0.00736459
0.00709441
0.0067902
0.00641837
0.00592599
0.00522181
0.00414637
0.00245024
0.000314548
0.010121
0.00985362
0.00955349
0.00922993
0.0088932
0.00855437
0.00822432
0.00791203
0.00762267
0.00735594
0.00710527
0.00685728
0.0065903
0.00626903
0.00583169
0.00516689
0.00408879
0.00236538
0.000305105
0.00995996
0.00969668
0.0094111
0.00910868
0.00879565
0.00847973
0.00816966
0.00787392
0.00759915
0.00734846
0.00711993
0.00690483
0.00668412
0.00641968
0.00603521
0.00538405
0.00422851
0.00235598
0.000309588
0.00980936
0.00956439
0.00931872
0.00906884
0.00881433
0.00855797
0.00830472
0.00806079
0.00783244
0.00762466
0.00743933
0.00727238
0.00710818
0.006907
0.00657793
0.00593026
0.00463925
0.00247608
0.000331336
0.00960959
0.00940504
0.00922944
0.00906311
0.00889848
0.00873392
0.00857084
0.00841239
0.00826276
0.00812636
0.00800637
0.00790191
0.00780209
0.00767294
0.00742635
0.00684837
0.00548405
0.002869
0.000377079
0.00927703
0.0091679
0.00909882
0.00904001
0.00898377
0.00892806
0.00887276
0.00881866
0.00876712
0.0087199
0.00867862
0.00864349
0.00861063
0.00856567
0.00846577
0.00817674
0.00722512
0.00420713
0.000470895
)
;

boundaryField
{
    leftWall
    {
        type            nutkWallFunction;
        Cmu             0.09;
        kappa           0.41;
        E               9.8;
        value           nonuniform List<scalar> 
50
(
2.91405e-06
7.62935e-06
8.71895e-06
9.81009e-06
1.19201e-05
1.38127e-05
1.4639e-05
1.56773e-05
1.73588e-05
1.88826e-05
2.00095e-05
2.0723e-05
2.10754e-05
2.11574e-05
2.21933e-05
1.8265e-05
1.65764e-05
1.51704e-05
1.44353e-05
1.43158e-05
1.46247e-05
1.51256e-05
1.56536e-05
1.61316e-05
1.65375e-05
1.68729e-05
1.71461e-05
1.73661e-05
1.75447e-05
1.76926e-05
1.78133e-05
1.79073e-05
1.79755e-05
1.80199e-05
1.80438e-05
1.80513e-05
1.80476e-05
1.80395e-05
1.80353e-05
1.80461e-05
1.80856e-05
1.81715e-05
1.83262e-05
1.85772e-05
1.89568e-05
1.94977e-05
2.02149e-05
2.10855e-05
2.20284e-05
2.28494e-05
)
;
    }
    rightWall
    {
        type            nutkWallFunction;
        Cmu             0.09;
        kappa           0.41;
        E               9.8;
        value           nonuniform List<scalar> 
50
(
1.1486e-05
3.0337e-05
3.25761e-05
3.42439e-05
3.55515e-05
3.67208e-05
3.74265e-05
3.73371e-05
3.63164e-05
3.45817e-05
3.36768e-05
3.41686e-05
3.39892e-05
3.38872e-05
3.54202e-05
4.40493e-05
3.75648e-05
3.25836e-05
3.77657e-05
4.59757e-05
5.72101e-05
5.91079e-05
5.89976e-05
6.3595e-05
6.52946e-05
6.68582e-05
6.81637e-05
6.92475e-05
7.02186e-05
7.0665e-05
7.05196e-05
6.98302e-05
6.86651e-05
6.70881e-05
6.51646e-05
6.29481e-05
6.04838e-05
5.78022e-05
5.49302e-05
5.18809e-05
4.86647e-05
4.53076e-05
4.18931e-05
3.86353e-05
3.59756e-05
3.45875e-05
3.51377e-05
3.80612e-05
4.41264e-05
5.61941e-05
)
;
    }
    lowerWall
    {
        type            nutkWallFunction;
        Cmu             0.09;
        kappa           0.41;
        E               9.8;
        value           nonuniform List<scalar> 
62
(
2.91405e-06
4.20133e-06
5.06306e-06
5.67267e-06
6.13509e-06
6.49976e-06
6.80377e-06
7.07866e-06
7.35204e-06
7.64856e-06
7.98923e-06
8.39185e-06
8.87006e-06
9.38786e-06
9.91407e-06
1.04201e-05
1.08671e-05
1.12e-05
1.13338e-05
1.11216e-05
1.02922e-05
8.31725e-06
4.54068e-06
4.54068e-06
1.48525e-05
1.90087e-05
2.34677e-05
2.91203e-05
3.69211e-05
4.8901e-05
7.26772e-05
8.43595e-05
8.11775e-05
8.23369e-05
8.66426e-05
1.47743e-05
3.82874e-05
4.15196e-05
4.83929e-05
5.66578e-05
6.89566e-05
8.56879e-05
0.000102317
1.47743e-05
2.04074e-05
2.39122e-05
2.48835e-05
2.43645e-05
2.35853e-05
2.24711e-05
2.10147e-05
1.98527e-05
1.90881e-05
1.83767e-05
1.77649e-05
1.7046e-05
1.59889e-05
1.44217e-05
1.19009e-05
1.13884e-05
1.10468e-05
1.1486e-05
)
;
    }
    atmosphere
    {
        type            calculated;
        value           nonuniform List<scalar> 
46
(
0.000218829
0.001682
0.00319667
0.00450707
0.00560867
0.0065171
0.00725636
0.00785413
0.00833804
0.00873306
0.00905999
0.00933504
0.00956996
0.0097726
0.00994755
0.0100968
0.0102204
0.010317
0.0103838
0.0104172
0.010412
0.0103591
0.0102403
0.0100726
0.00992812
0.00973505
0.009
0.009
0.009
0.009
0.009
0.009
0.009
0.009
0.009
0.009
0.009
0.009
0.009
0.009
0.009
0.009
0.009
0.009
0.009
0.009
)
;
    }
    defaultFaces
    {
        type            empty;
    }
}


// ************************************************************************* //
