/*--------------------------------*- C++ -*----------------------------------*\
  =========                 |
  \\      /  F ield         | OpenFOAM: The Open Source CFD Toolbox
   \\    /   O peration     | Website:  https://openfoam.org
    \\  /    A nd           | Version:  13
     \\/     M anipulation  |
\*---------------------------------------------------------------------------*/
FoamFile
{
    format      ascii;
    class       volScalarField;
    location    "0.8";
    object      p;
}
// * * * * * * * * * * * * * * * * * * * * * * * * * * * * * * * * * * * * * //

dimensions      [1 -1 -2 0 0 0 0];

internalField   nonuniform List<scalar> 
2268
(
4170.91
4214.49
4339.6
4519.35
4730.25
4951.72
5167.62
5368.72
5551.87
5716.66
5864.79
5997.65
6113.92
6210.9
6287.07
6340.54
6368.73
6367.74
6333.12
6261.92
6159.27
6051.08
5942.44
3359.6
3412.13
3547.72
3737.07
3954.95
4180.37
4397.06
4596.1
4775.19
4934.15
5074.88
5199.08
5304.6
5390.11
5453.68
5493.57
5508.37
5496.19
5455.28
5386.11
5296.98
5214.05
5125.01
2521.58
2592.04
2744.33
2949.29
3178.76
3410.61
3628.72
3825.31
3999.68
4151.58
4283.43
4397.38
4491.33
4563.88
4614.06
4640.96
4644.78
4625.49
4583.5
4521.16
4446.19
4379.6
4299.05
1662.32
1744.25
1902.54
2133.84
2388.03
2634.54
2857.93
3053.56
3223.98
3369.1
3492.6
3598.05
3682.28
3743.87
3783.25
3800.95
3798.74
3777.26
3736.96
3679.27
3608.25
3540.63
3460.95
1115.68
1147.41
1219.04
1363.36
1575.31
1837.7
2081.46
2282.27
2450.99
2589.89
2705.61
2804.6
2881.19
2933.61
2964.47
2976.07
2971.35
2949.79
2910.03
2850.79
2772.4
2695.66
2613.26
958.894
954.156
947.559
952.843
1008.45
1138.96
1312.52
1506.88
1684.92
1821.27
1929
2022.52
2091.92
2134.66
2157.63
2165.14
2160.29
2139.67
2099.35
2035.03
1944.34
1862.58
1763.33
888.558
880.588
867.1
848.185
826.903
807.721
830.349
910.317
1005.71
1094.8
1185.4
1276.37
1338.21
1370.77
1389.32
1399.29
1400.61
1386.68
1353.79
1299.03
1223.73
1177.65
1079.8
818.593
811.328
798.776
779.265
754.184
727.341
700.733
673.629
658.609
673.035
709.322
751.356
780.018
799.302
830.55
858.695
877.135
882.337
875.951
861.151
847.81
856.676
792.108
1586.9
1576.15
1714.84
1982.67
2083.75
2015.76
1972.21
2040.91
2173.59
2286.86
2413.63
2582.35
2804.36
3057.4
3290.7
3412.37
3160
3200.38
4115.36
1520.15
1499.36
1589.03
1705.81
1762.18
1719.08
1644.38
1595.38
1623.3
1708.18
1860.74
2088.44
2363.75
2647.4
3026.94
3230.86
2965.83
2865.21
3618.1
1483.13
1453.43
1441.82
1331.4
1275.04
1237.62
1181.94
1131.18
1134.97
1181.38
1276.56
1441.01
1692.56
2048.43
2542.62
2892.44
2734.85
2645.31
3118.43
1436.73
1371.86
1241.99
1073.77
1018.36
998.994
990.875
979.204
977.076
990.799
1023.38
1095.27
1230.93
1522.14
2008.75
2477.76
2534.12
2557.59
2731.19
1255.8
1178.78
1044.6
976.47
947.854
937.836
937.631
925.197
921.216
932.226
958.14
1008.99
1091.17
1219.54
1601.74
2179.87
2427.32
2483.03
2439.6
974.632
976.867
922.071
908.749
882.863
872.605
867.988
859.045
858.966
872.356
900.243
948.729
1017.88
1072.97
1350.4
1966.24
2358.59
2275.76
2218.72
813.753
851.267
846.089
833.649
811.767
802.514
798.525
794.099
796.905
810.882
838.892
886.271
955.65
986.794
1174.13
1814.37
2259.11
1984.82
2063.21
751.361
777.344
773.038
766.449
751.879
746.021
743.919
742.008
744.915
755.98
778.057
817.531
882.017
918.24
979.529
1602.5
2030.31
1695.62
1936.2
709.59
702.396
691.641
675.255
653.526
628.629
602.75
581.338
565.641
553.965
543.22
535.394
537.272
551.191
581.246
614.285
643.133
666.603
686.466
707.641
735.368
758.71
753.459
565.904
557.715
547.844
534.585
517.911
498.781
478.509
459.724
443.979
432.428
426.712
427.498
435.581
450.59
468.939
493.395
522.776
551.979
575.852
592.79
604.516
612.75
597.961
426.684
417.385
407.356
395.207
381.017
365.378
349.23
333.93
320.676
310.861
305.669
305.953
312.871
327.172
349.325
379.447
415.631
448.458
469.741
476.777
472.234
480.599
545.463
291.718
281.424
270.627
258.109
244.506
230.533
217.011
204.78
194.423
186.486
181.208
179.637
183.025
193.3
214.293
246.107
291.286
333.505
360.717
373.764
408.837
463.568
507.5
161.094
148.565
135.47
122.101
109.966
99.0324
89.4526
81.1813
73.9481
67.9287
63.3517
59.7631
57.5545
58.6905
63.5284
76.3483
105.902
155.543
230.626
292.894
350.103
403.338
415.329
53.6872
43.9941
35.5357
28.9453
24.447
20.8281
17.8385
15.0855
12.1536
9.44907
7.96207
6.85829
5.77913
5.97961
6.46863
7.48127
11.0551
35.0451
96.7468
154.673
218.818
265.629
293.91
7.15011
5.51848
5.00804
4.90395
4.87301
4.86028
4.86793
4.90629
4.9892
5.12194
5.27053
5.4188
5.48061
5.56004
5.70427
6.03946
6.83913
7.74228
8.14925
39.5886
116.853
168.778
199.137
4.71362
4.69978
4.737
4.75129
4.77212
4.80049
4.83394
4.87221
4.91792
4.97644
5.05266
5.15014
5.27029
5.38148
5.49942
5.63125
5.68086
5.06003
4.55962
12.8723
45.8536
80.3964
111.684
4.59026
4.59179
4.60984
4.62401
4.64146
4.66219
4.68766
4.72082
4.76497
4.82099
4.88714
4.96339
5.05025
5.13459
5.21294
5.25726
5.16264
4.67244
4.14126
4.40007
5.13882
14.5706
34.5609
4.46641
4.47072
4.48356
4.49508
4.50909
4.52627
4.54811
4.57672
4.61396
4.65988
4.71201
4.76718
4.82108
4.86582
4.8876
4.85582
4.71425
4.36311
3.84198
3.4835
3.49409
3.30929
2.87795
4.3355
4.34071
4.35073
4.36092
4.37345
4.38864
4.4073
4.43055
4.45948
4.49379
4.53099
4.567
4.59597
4.60889
4.59094
4.51802
4.36141
4.09479
3.72508
3.39019
3.10803
2.84903
2.81893
4.20114
4.20594
4.21336
4.22216
4.23295
4.24572
4.26077
4.27864
4.29999
4.32431
4.34899
4.36957
4.3798
4.371
4.33097
4.2437
4.09508
3.8818
3.61959
3.35799
3.12335
2.92043
2.83245
4.06245
4.06689
4.07294
4.08025
4.08898
4.09906
4.11047
4.12338
4.13805
4.15388
4.16834
4.17701
4.17395
4.15161
4.1008
4.01145
3.87654
3.69844
3.48908
3.28022
3.08754
2.92075
2.8195
3.92131
3.92517
3.93007
3.93586
3.94256
3.95005
3.95813
3.96667
3.97559
3.98429
3.99053
3.99035
3.97842
3.94852
3.89378
3.80767
3.68676
3.53406
3.35724
3.17497
3.00616
2.86219
2.75756
3.77849
3.7816
3.78541
3.78977
3.79461
3.79974
3.80487
3.80968
3.81385
3.81675
3.81658
3.81001
3.79255
3.75911
3.70451
3.6244
3.51759
3.3861
3.2349
3.07552
2.92436
2.7924
2.6898
3.63455
3.63691
3.63972
3.64278
3.64595
3.64901
3.65161
3.65332
3.65369
3.65207
3.64704
3.63601
3.61532
3.58089
3.52894
3.4569
3.36388
3.25053
3.12098
2.98382
2.8502
2.7301
2.63047
3.49002
3.4917
3.49362
3.49553
3.49726
3.49857
3.49907
3.49828
3.49569
3.49067
3.48212
3.4681
3.44588
3.41227
3.36459
3.301
3.22022
3.12293
3.01223
2.8945
2.77778
2.66969
2.57549
3.34534
3.34643
3.34759
3.34852
3.34904
3.3489
3.34773
3.34503
3.34025
3.33281
3.32187
3.30608
3.28348
3.25175
3.20871
3.15277
3.08303
2.99998
2.90592
2.80529
2.70402
2.60781
2.52115
3.20082
3.20143
3.20196
3.20209
3.20163
3.20034
3.19788
3.19378
3.18751
3.1785
3.16613
3.14945
3.12715
3.09754
3.05894
3.01003
2.95013
2.87957
2.79999
2.71449
2.62726
2.54276
2.46477
3.05672
3.05695
3.05698
3.05648
3.05525
3.05308
3.04967
3.04459
3.03737
3.02748
3.01441
2.99751
2.9759
2.94844
2.91392
2.87131
2.82004
2.76029
2.69318
2.62088
2.54637
2.47306
2.4041
2.91323
2.91318
2.91281
2.91183
2.91003
2.90722
2.90313
2.89742
2.88967
2.87941
2.86619
2.84955
2.82892
2.80358
2.77271
2.73557
2.6917
2.64117
2.58472
2.52382
2.46062
2.39769
2.33759
2.77047
2.77023
2.76957
2.76823
2.76602
2.76277
2.75825
2.75218
2.7442
2.73393
2.72097
2.70496
2.68553
2.66225
2.63461
2.60213
2.56449
2.5217
2.47423
2.42307
2.36974
2.31619
2.26444
2.62854
2.62816
2.6273
2.62571
2.62324
2.61971
2.61495
2.60873
2.60076
2.59073
2.5783
2.56319
2.54511
2.52382
2.49905
2.47053
2.43808
2.4017
2.3617
2.31874
2.27388
2.22861
2.18447
2.4875
2.48702
2.48603
2.48429
2.48165
2.47799
2.47315
2.46694
2.45915
2.44952
2.43779
2.42372
2.4071
2.38777
2.3656
2.34047
2.31234
2.28124
2.24739
2.21125
2.17355
2.13542
2.09802
2.34735
2.34682
2.34576
2.34393
2.34123
2.33754
2.33274
2.32667
2.31916
2.31004
2.2991
2.28614
2.27101
2.25359
2.23382
2.21168
2.18719
2.16045
2.13166
2.10113
2.06941
2.03734
2.00578
2.20813
2.20756
2.20646
2.20461
2.20191
2.19828
2.1936
2.18776
2.18063
2.17208
2.16197
2.15013
2.13646
2.12087
2.10333
2.08385
2.06252
2.03946
2.01485
1.98895
1.96218
1.93518
1.90859
2.06979
2.06921
2.06811
2.06627
2.06363
2.06011
2.05563
2.05009
2.04339
2.03545
2.02616
2.01542
2.00314
1.98927
1.97379
1.95672
1.93817
1.91826
1.89717
1.87514
1.85247
1.8297
1.8073
1.93231
1.93174
1.93065
1.92887
1.92632
1.92296
1.91872
1.91352
1.90729
1.89998
1.8915
1.8818
1.87082
1.85853
1.84493
1.83004
1.81395
1.7968
1.77873
1.75996
1.74074
1.72151
1.70261
1.79564
1.79509
1.79404
1.79233
1.78991
1.78674
1.78277
1.77794
1.7722
1.76551
1.75782
1.7491
1.73932
1.72847
1.71656
1.70362
1.68973
1.67499
1.65954
1.64356
1.62727
1.61102
1.59507
1.65975
1.65922
1.65822
1.65659
1.65432
1.65137
1.64768
1.64324
1.63799
1.63191
1.62498
1.61718
1.6085
1.59895
1.58855
1.57734
1.56538
1.55276
1.5396
1.52604
1.51226
1.49854
1.48509
1.52456
1.52407
1.52312
1.5216
1.51949
1.51676
1.51338
1.50932
1.50456
1.49908
1.49287
1.48592
1.47825
1.46988
1.46082
1.45113
1.44087
1.4301
1.41893
1.40746
1.39584
1.38429
1.37298
1.39002
1.38957
1.38868
1.38727
1.38533
1.38283
1.37976
1.37609
1.37181
1.3669
1.36138
1.35523
1.34849
1.34117
1.33332
1.32497
1.31618
1.30702
1.29757
1.28791
1.27815
1.26847
1.259
1.25607
1.25566
1.25484
1.25354
1.25177
1.24951
1.24674
1.24346
1.23964
1.23529
1.23041
1.22502
1.21913
1.21277
1.20599
1.19882
1.19133
1.18356
1.17559
1.16748
1.15933
1.15126
1.14336
1.12265
1.12228
1.12152
1.12034
1.11875
1.11672
1.11426
1.11135
1.10798
1.10416
1.0999
1.09521
1.0901
1.08462
1.0788
1.07269
1.06633
1.05977
1.05308
1.04631
1.03953
1.03284
1.02631
0.98968
0.989358
0.988661
0.987601
0.98618
0.984391
0.982227
0.979682
0.976754
0.973445
0.969765
0.965728
0.961358
0.956682
0.951737
0.946563
0.941205
0.935709
0.930126
0.924505
0.918903
0.91339
0.908028
0.857107
0.856822
0.856183
0.855244
0.854002
0.85245
0.850582
0.848396
0.845891
0.843071
0.839945
0.836528
0.83284
0.828908
0.824761
0.820436
0.815971
0.81141
0.806793
0.802164
0.797571
0.793068
0.788708
0.72486
0.724604
0.724011
0.723201
0.722143
0.720829
0.719256
0.717422
0.715329
0.712981
0.710385
0.707556
0.704509
0.701267
0.697855
0.694303
0.690644
0.686913
0.683147
0.679381
0.675655
0.672016
0.668511
0.592871
0.59261
0.592094
0.59141
0.590538
0.589465
0.588185
0.5867
0.58501
0.583119
0.581035
0.578765
0.576324
0.573729
0.571
0.568159
0.565234
0.562252
0.559242
0.556234
0.55326
0.550358
0.547573
0.461073
0.460783
0.460342
0.459801
0.459124
0.458294
0.45731
0.456171
0.454879
0.453436
0.451845
0.450114
0.448251
0.446268
0.44418
0.442002
0.439754
0.437456
0.435129
0.432796
0.43048
0.428212
0.426027
0.329404
0.329052
0.328701
0.32832
0.32785
0.327274
0.326593
0.325807
0.324914
0.323915
0.322812
0.321607
0.320303
0.318908
0.317429
0.315875
0.314256
0.312585
0.310874
0.309135
0.307383
0.305638
0.303947
0.197809
0.197385
0.197154
0.196957
0.196714
0.196414
0.196059
0.195647
0.195173
0.194634
0.194028
0.193352
0.192604
0.191783
0.190889
0.189919
0.188876
0.187756
0.186561
0.185289
0.183943
0.182541
0.181176
0.0662061
0.0658478
0.0657634
0.0657318
0.0657011
0.0656646
0.0656199
0.0655617
0.0654845
0.0653826
0.0652504
0.0650814
0.0648691
0.0646064
0.0642857
0.0638985
0.0634352
0.0628846
0.062234
0.0614694
0.0605818
0.0595612
0.0582687
816.224
850.182
872.666
884.622
575.526
581.017
598.687
608.955
592.204
601.77
595.515
581.961
529.254
527.171
512.121
490.771
385.815
380.27
389.541
395.27
300.909
305.663
311.366
317.102
209
216.034
223.639
232.381
123.03
130.75
141.151
151.565
37.1312
40.4521
57.9763
73.8964
3.49944
4.29865
10.7896
20.8993
2.88719
2.98508
3.18748
3.49245
2.79539
2.76242
2.72567
2.72589
2.78134
2.76215
2.74385
2.71176
2.70381
2.67577
2.65246
2.63018
2.63136
2.59993
2.57317
2.55025
2.57111
2.53877
2.51059
2.48672
2.51786
2.48587
2.45762
2.43284
2.46616
2.43481
2.40696
2.38199
2.41324
2.38301
2.35609
2.33155
2.35658
2.32797
2.30255
2.27912
2.29443
2.26784
2.24436
2.22254
2.2258
2.20155
2.18025
2.16038
2.15034
2.12857
2.1096
2.09184
2.0682
2.04896
2.03229
2.01668
1.97998
1.96318
1.94872
1.93518
1.88645
1.87195
1.85951
1.84788
1.78841
1.776
1.76538
1.75546
1.68659
1.67605
1.66701
1.65859
1.58157
1.57268
1.56502
1.55788
1.47378
1.46633
1.45986
1.45382
1.36357
1.35738
1.35193
1.34683
1.25122
1.24612
1.24155
1.23726
1.137
1.13282
1.12904
1.12545
1.02114
1.01776
1.01465
1.01168
0.903876
0.90117
0.898635
0.896212
0.785404
0.783259
0.781226
0.779279
0.665908
0.664229
0.662631
0.661101
0.545538
0.544239
0.543006
0.54184
0.424428
0.423426
0.422502
0.42167
0.302718
0.301938
0.301231
0.30071
0.180354
0.179696
0.178951
0.178793
0.0566496
0.0554754
0.0543608
0.0547989
682.98
702.404
701.75
697.941
692.605
690.426
689.509
688.703
690.181
696.13
708.747
731.687
769.975
812.322
831.86
1091.85
1374.9
1461.9
1713.14
607.882
621.645
616.262
616.268
619.354
620.558
620.688
620.297
620.634
623.052
629.129
639.417
653.721
672.945
688.785
738.176
879.374
1101.56
1328.59
554.304
546.195
538.688
541.479
547.547
550.68
551.954
552.243
552.469
553.513
556.333
561.204
566.33
567.243
566.039
575.612
626.348
723.585
958.537
468.786
467.757
470.527
475.349
480.673
484.353
486.505
487.479
487.809
488.005
488.42
489.445
489.603
485.34
472.845
459.591
462.743
467.828
614.156
396.989
400.25
404.621
410.022
415.649
420.288
423.573
425.506
426.339
426.361
425.697
424.288
421.363
414.641
400.141
378.291
364.269
322.972
429.946
323.318
329.161
335.92
343.33
350.644
357.003
361.927
365.28
367.16
367.724
367.007
364.835
360.957
353.459
338.86
313.891
289.802
244.009
318.904
244.213
254.486
264.951
275.353
285.095
293.672
300.618
305.769
309.163
310.892
310.984
309.342
305.79
299.543
287.073
263.784
234.386
193.492
179.767
165.335
178.738
192.846
206.289
218.576
229.58
238.732
245.887
251.108
254.468
255.974
255.587
253.249
248.733
240.187
222.652
193.537
151.669
139.658
88.7147
102.786
119.914
135.906
150.207
163.617
175.054
184.39
191.778
197.212
200.633
202.023
201.405
198.974
194.577
184.201
163.216
142.876
137.698
25.6188
31.6806
49.9579
66.8762
81.1243
95.6456
108.603
119.805
129.619
137.433
142.977
146.284
147.354
146.217
143.276
137.984
130.716
121.909
110.745
2.80334
3.09808
10.7761
17.8617
24.0022
35.3016
46.0361
56.2331
66.0459
74.5843
80.9176
85.0049
86.6252
85.2071
80.9121
75.0014
68.7653
60.9194
43.5856
2.73296
2.87027
2.92827
2.73855
3.41034
7.69273
11.5065
14.282
18.584
22.4264
25.9404
28.6014
29.8067
28.5777
25.5964
22.5628
19.2498
15.306
8.37917
2.68301
2.71901
2.74891
2.81866
2.90609
2.68348
2.40643
2.37041
4.18027
5.89716
7.68509
9.19969
10.1746
9.02097
6.17669
5.21908
6.73198
7.87356
6.72659
2.60575
2.6084
2.62829
2.6721
2.71292
2.73139
2.75502
2.86523
2.82133
2.54998
2.49913
2.53175
2.61013
2.87413
3.53683
4.72259
6.11494
6.44837
5.81098
2.52511
2.51725
2.52293
2.54762
2.56605
2.60609
2.6498
2.74552
2.83512
2.88556
2.95622
3.04046
3.13119
3.23114
3.40381
3.69827
4.21045
4.47597
4.09656
2.45733
2.43698
2.43238
2.44246
2.46136
2.48545
2.53355
2.58293
2.64992
2.70183
2.76164
2.82914
2.90765
2.99971
3.09546
3.13915
3.20738
3.39276
3.3585
2.3985
2.36997
2.35938
2.36183
2.37343
2.39308
2.42751
2.47443
2.51779
2.56323
2.61561
2.67356
2.73915
2.81592
2.89397
2.9487
3.02686
3.11165
3.14357
2.34556
2.31275
2.29697
2.29381
2.30072
2.31769
2.34607
2.38159
2.41944
2.46088
2.50682
2.55605
2.61014
2.67089
2.73496
2.79494
2.85862
2.92163
2.94573
2.29478
2.25942
2.24014
2.23305
2.23569
2.24852
2.27103
2.30014
2.33251
2.36829
2.40707
2.44858
2.49359
2.54239
2.59338
2.64388
2.69452
2.7457
2.77409
2.24349
2.20761
2.18557
2.17488
2.17395
2.18233
2.19921
2.22221
2.24891
2.27874
2.31118
2.34615
2.38384
2.42414
2.46604
2.50866
2.55306
2.59452
2.63135
2.18917
2.15428
2.13043
2.11733
2.11349
2.11773
2.1295
2.14706
2.16857
2.19323
2.22049
2.25011
2.28209
2.31632
2.35241
2.39018
2.4305
2.4709
2.51031
2.13
2.09728
2.07302
2.05831
2.05203
2.0531
2.06081
2.0739
2.09105
2.11142
2.13443
2.1598
2.18747
2.21745
2.24965
2.28423
2.32236
2.3636
2.40638
2.06483
2.035
2.01141
1.99592
1.98806
1.98691
1.99161
2.00127
2.01495
2.03188
2.05153
2.07361
2.09806
2.12497
2.15438
2.18659
2.22327
2.2656
2.31217
1.99315
1.96657
1.9444
1.92901
1.92037
1.91776
1.92034
1.92749
1.93851
1.95278
1.96983
1.98939
2.01143
2.03603
2.0633
2.09364
2.12917
2.17228
2.22154
1.91499
1.89173
1.87149
1.85686
1.84807
1.84457
1.84575
1.85112
1.86017
1.87241
1.88746
1.90509
1.92525
1.94802
1.9735
2.00222
2.03659
2.07974
2.12997
1.83074
1.81066
1.79258
1.77913
1.77063
1.76673
1.76703
1.77116
1.77876
1.78946
1.80294
1.81902
1.83763
1.85882
1.8827
1.90983
1.9428
1.98504
2.03457
1.741
1.72381
1.70794
1.69586
1.68795
1.68399
1.68375
1.68702
1.69353
1.70301
1.71522
1.72998
1.74723
1.76696
1.78927
1.81473
1.84593
1.88634
1.9338
1.64642
1.63178
1.61801
1.60737
1.6002
1.59637
1.59582
1.59847
1.60413
1.6126
1.62369
1.63726
1.65321
1.6715
1.6922
1.71586
1.74491
1.78271
1.82706
1.54762
1.53516
1.52334
1.51408
1.50769
1.5041
1.50338
1.50555
1.51051
1.51809
1.52815
1.54056
1.55521
1.57203
1.59105
1.61274
1.63932
1.67391
1.71445
1.44514
1.43455
1.42447
1.41651
1.41085
1.40751
1.40672
1.40852
1.41285
1.4196
1.42866
1.43991
1.45323
1.46852
1.48578
1.50538
1.52926
1.56022
1.59654
1.33947
1.33047
1.32194
1.31513
1.31012
1.30706
1.30625
1.30773
1.31148
1.31743
1.32549
1.33556
1.34752
1.36123
1.37666
1.39407
1.41514
1.44233
1.47421
1.23103
1.22341
1.21624
1.2104
1.20598
1.20324
1.20244
1.20363
1.20682
1.21198
1.21905
1.22793
1.23849
1.25059
1.26414
1.27934
1.29756
1.32095
1.34834
1.12018
1.11378
1.1078
1.10276
1.0989
1.09651
1.09574
1.09666
1.09932
1.10371
1.1098
1.11749
1.12664
1.1371
1.14876
1.16175
1.17719
1.19689
1.21986
1.00727
1.00195
0.996924
0.992631
0.989374
0.987318
0.986581
0.987257
0.989411
0.993068
0.998198
1.00471
1.01247
1.02131
1.0311
1.04193
1.05473
1.07095
1.08971
0.892572
0.888162
0.884008
0.880489
0.877796
0.876041
0.875337
0.875788
0.877474
0.880435
0.88465
0.890033
0.896437
0.903693
0.911667
0.920444
0.930809
0.943873
0.958731
0.776318
0.772741
0.76943
0.766629
0.764441
0.762959
0.76229
0.762542
0.763802
0.76612
0.76948
0.773796
0.778919
0.78467
0.790922
0.797781
0.805953
0.816199
0.827668
0.658739
0.655952
0.653424
0.651253
0.649506
0.648266
0.647633
0.647712
0.648593
0.650325
0.652898
0.656229
0.660166
0.664528
0.669199
0.674312
0.680521
0.688257
0.697066
0.540054
0.538009
0.536153
0.534509
0.53313
0.532093
0.53149
0.531419
0.531962
0.533167
0.535023
0.537454
0.540317
0.543439
0.546715
0.550289
0.554724
0.56014
0.567187
0.420462
0.419082
0.417773
0.416544
0.415449
0.414566
0.413978
0.41377
0.414011
0.41474
0.415947
0.417563
0.419467
0.421514
0.423615
0.42588
0.428691
0.431816
0.437812
0.300148
0.299368
0.298488
0.297561
0.296669
0.295887
0.295291
0.294947
0.294911
0.295208
0.295824
0.296704
0.297761
0.298896
0.300045
0.301225
0.302402
0.302877
0.308309
0.179182
0.179106
0.178588
0.177886
0.177136
0.176417
0.175792
0.17531
0.175008
0.174896
0.174959
0.175156
0.175433
0.175747
0.176078
0.176263
0.175215
0.171071
0.179315
0.0577403
0.0587476
0.0586656
0.0582243
0.0576333
0.0569826
0.0563281
0.0557054
0.0551301
0.0545966
0.0540795
0.0535427
0.0529535
0.0522921
0.0515413
0.0504388
0.0467604
0.0330767
0.0584148
)
;

boundaryField
{
    leftWall
    {
        type            calculated;
        value           nonuniform List<scalar> 
50
(
4170.91
3359.6
2521.58
1662.32
1115.68
958.894
888.558
818.593
709.59
565.904
426.684
291.718
161.094
53.6872
7.15011
4.71362
4.59026
4.46641
4.3355
4.20114
4.06245
3.92131
3.77849
3.63455
3.49002
3.34534
3.20082
3.05672
2.91323
2.77047
2.62854
2.4875
2.34735
2.20813
2.06979
1.93231
1.79564
1.65975
1.52456
1.39002
1.25607
1.12265
0.98968
0.857107
0.72486
0.592871
0.461073
0.329404
0.197809
0.0662061
)
;
    }
    rightWall
    {
        type            calculated;
        value           nonuniform List<scalar> 
50
(
4115.36
3618.1
3118.43
2731.19
2439.6
2218.72
2063.21
1936.2
1713.14
1328.59
958.537
614.156
429.946
318.904
179.767
139.658
137.698
110.745
43.5856
8.37917
6.72659
5.81098
4.09656
3.3585
3.14357
2.94573
2.77409
2.63135
2.51031
2.40638
2.31217
2.22154
2.12997
2.03457
1.9338
1.82706
1.71445
1.59654
1.47421
1.34834
1.21986
1.08971
0.958731
0.827668
0.697066
0.567187
0.437812
0.308309
0.179315
0.0584148
)
;
    }
    lowerWall
    {
        type            calculated;
        value           nonuniform List<scalar> 
62
(
4569.06
4612.64
4737.75
4917.5
5128.4
5349.87
5565.77
5766.87
5950.02
6114.81
6262.94
6395.8
6512.07
6609.05
6685.22
6738.69
6766.88
6765.89
6731.27
6660.07
6557.37
6449.01
6340.37
5942.44
5125.01
4299.05
3460.95
2613.26
1763.33
1079.8
792.108
955.726
1047.59
1071.89
1078.99
1586.9
1520.15
1483.13
1436.73
1255.8
974.632
813.753
751.361
1618.73
1606.94
1746.42
2016.51
2120.52
2053.45
2021.95
2142.8
2356.69
2488.96
2603.13
2731.07
2931.08
3177.72
3382.78
3496.13
3242.3
3282.92
4224.43
)
;
    }
    atmosphere
    {
        type            calculated;
        value           nonuniform List<scalar> 
46
(
0
0
0
0
0
0
0
0
0
0
0
0
0
0
0
0
0
0
0
0
0
0
0
0
0
0
-7.34209e-06
-8.71165e-05
-0.000318826
-0.000682804
-0.00116231
-0.0017332
-0.00236735
-0.00303829
-0.00372902
-0.00443964
-0.00519122
-0.00602259
-0.00697871
-0.00809257
-0.00936798
-0.010777
-0.0122937
-0.0139893
-0.0165392
-0.00772118
)
;
    }
    defaultFaces
    {
        type            empty;
    }
}


// ************************************************************************* //
