/*--------------------------------*- C++ -*----------------------------------*\
  =========                 |
  \\      /  F ield         | OpenFOAM: The Open Source CFD Toolbox
   \\    /   O peration     | Website:  https://openfoam.org
    \\  /    A nd           | Version:  13
     \\/     M anipulation  |
\*---------------------------------------------------------------------------*/
FoamFile
{
    format      ascii;
    class       volScalarField;
    location    "0.8";
    object      p_rgh;
}
// * * * * * * * * * * * * * * * * * * * * * * * * * * * * * * * * * * * * * //

dimensions      [1 -1 -2 0 0 0 0];

internalField   nonuniform List<scalar> 
2268
(
4569.06
4612.64
4737.75
4917.5
5128.4
5349.87
5565.77
5766.87
5950.02
6114.81
6262.94
6395.8
6512.07
6609.05
6685.22
6738.69
6766.88
6765.89
6731.27
6660.07
6557.37
6449.01
6340.37
4554.05
4606.58
4742.17
4931.52
5149.4
5374.82
5591.51
5790.55
5969.64
6128.6
6269.33
6393.53
6499.05
6584.56
6648.13
6688.02
6702.82
6690.64
6649.73
6580.55
6491.41
6408.23
6318.87
4512.33
4582.79
4735.08
4940.04
5169.51
5401.36
5619.47
5816.05
5990.43
6142.33
6274.18
6388.13
6482.07
6554.63
6604.81
6631.71
6635.52
6616.24
6574.25
6511.9
6436.93
6370.35
6289.8
4311.13
4411.8
4689.59
4920.89
5175.08
5421.59
5644.98
5840.61
6011.03
6156.15
6279.65
6385.1
6469.33
6530.92
6570.3
6588
6585.79
6564.3
6524
6466.31
6395.3
6327.68
6248
2078.54
2361.07
3005.97
4079.78
4995.34
5421.05
5664.81
5865.62
6034.34
6173.24
6288.96
6387.94
6464.54
6516.96
6547.82
6559.41
6554.7
6533.14
6493.38
6434.14
6355.75
6279
6196.56
1282.62
1277.88
1275.34
1487.63
2349.96
4022.62
5389.75
5886.53
6064.56
6200.92
6308.65
6402.17
6471.57
6514.31
6537.28
6544.79
6539.94
6519.31
6479
6414.68
6323.99
6242.21
6142.87
1271.14
1263.17
1249.68
1230.77
1209.48
1269.93
2020.7
3580.49
5141.15
5993.28
6278.32
6401.08
6494.84
6532.2
6525.27
6495.24
6454.19
6382.5
6248.25
6008.53
5572.88
5002.29
4491.28
1260.03
1252.77
1240.22
1220.71
1195.62
1168.78
1142.17
1124.54
1380.44
1966.97
2824.32
3795.96
4316.01
4463.59
4283.7
4099.36
3933.61
3702.16
3365.64
2913.97
2242.19
1751.23
1504.4
1618.73
1606.94
1746.42
2016.51
2120.52
2053.45
2021.95
2142.8
2356.69
2488.96
2603.13
2731.07
2931.08
3177.72
3382.78
3496.13
3242.3
3282.92
4224.43
1595.8
1555.2
1720.09
2114.2
2251.27
2212.61
2285.89
2540.76
2679.68
2766.81
2919.07
3141.16
3415.4
3684.18
3640.07
3499.2
3213.53
3142.98
4271.81
1553.41
1582.08
1929.28
2317.22
2270.55
2210.31
2034.12
1821.06
1825.56
1967.9
2284.13
2716.28
3263.45
3759.45
4178.4
3556.7
3052.92
2821.19
4205.34
1536.79
2020.03
2006.66
1583.79
1386.17
1343.89
1220.77
1185.64
1183.2
1196.78
1234.65
1348.49
1551.9
2605.37
4208.56
3600.22
2742.22
2673.84
4275.82
2168.45
2137.51
1857.32
1258.65
1213.24
1202.98
1202.78
1190.37
1186.15
1197.05
1222.98
1273.35
1355.59
1772.39
3856.43
3429.62
2526.34
2750.4
4827.88
2157.31
1868.25
1246.63
1232.4
1206.51
1196.27
1191.66
1182.72
1182.7
1196.11
1223.96
1272.34
1341.47
1399.74
3271.86
2511.53
2448.06
3760.83
5187.07
1423.54
1233.56
1228.56
1215.43
1193
1183.96
1179.15
1173.76
1175.86
1190.15
1221.39
1268.78
1338.16
1370.33
2848.53
1998.8
2416.54
4947.1
5606.96
1247.17
1212.38
1157.9
1162.92
1124.56
1099.53
1085.52
1075.33
1072.73
1082.21
1131.19
1235.04
1323.35
1360.04
1744.42
3008.56
3465.44
5734.87
6037.36
1243.06
1235.86
1225.11
1208.72
1186.99
1162.1
1136.22
1114.8
1099.11
1087.43
1076.69
1068.86
1070.74
1084.66
1291.32
1407.8
1435.03
1389.12
1315.6
1246.01
1268.83
1292.18
1286.93
1224.57
1216.38
1206.51
1193.25
1176.57
1157.44
1137.17
1118.39
1102.64
1091.09
1085.37
1086.16
1094.24
1109.25
1127.6
1152.06
1181.44
1210.64
1234.51
1251.45
1263.18
1271.41
1256.62
1210.54
1201.24
1191.21
1179.06
1164.87
1149.23
1133.09
1117.79
1104.53
1094.72
1089.52
1089.81
1096.73
1111.03
1133.18
1163.3
1199.49
1232.31
1253.6
1260.63
1256.09
1263.65
1268.31
1200.77
1190.47
1179.68
1167.16
1153.56
1139.58
1126.06
1113.83
1103.47
1095.54
1090.26
1088.69
1092.08
1102.24
1120.02
1144.58
1178.87
1205.04
1216.89
1224.35
1181.76
715.796
550.847
1195.34
1182.81
1169.72
1149.59
1120.67
1094.12
1072.01
1056.18
1040.51
1014.72
944.197
858.811
762.578
663.477
594.593
561.056
572.087
621.712
665.838
631.148
589.321
789.828
931.283
868.499
726.861
566.989
456.276
387.859
333.683
285.453
231.731
162.505
91.9926
54.0936
26.9983
6.93866
7.13907
8.82115
11.2601
14.1237
39.8015
111.196
508.704
798.718
842.936
873.63
56.1659
21.1625
6.9666
6.18871
6.15776
6.14503
6.15268
6.19104
6.27398
6.40678
6.55517
6.70343
6.76525
6.84469
6.98902
7.32441
8.12423
9.02879
62.0774
600.552
759.257
811.095
841.454
6.12393
6.10996
6.14684
6.16113
6.18195
6.21032
6.24377
6.28204
6.32775
6.38627
6.46249
6.55997
6.68012
6.79133
6.90935
7.04139
7.0908
6.46986
5.96949
114.812
647.541
785.311
816.598
6.12534
6.12683
6.14487
6.15904
6.17649
6.19722
6.22269
6.25584
6.3
6.35601
6.42217
6.49841
6.58528
6.66962
6.74804
6.7927
6.69845
6.20747
5.67631
5.93552
10.7034
167.798
647.038
6.12664
6.13094
6.14378
6.1553
6.16931
6.18648
6.20833
6.23693
6.27418
6.3201
6.37222
6.4274
6.48131
6.52605
6.54785
6.51644
6.3766
6.02339
5.50222
5.14374
5.15432
4.96971
4.53819
6.12092
6.12612
6.13614
6.14633
6.15886
6.17405
6.19272
6.21596
6.24489
6.27921
6.3164
6.35241
6.38139
6.39431
6.37637
6.30354
6.14804
5.89276
5.51145
5.1757
4.89347
4.63445
4.60437
6.11175
6.11655
6.12397
6.13277
6.14355
6.15633
6.17138
6.18924
6.2106
6.23492
6.2596
6.28017
6.29041
6.28162
6.24159
6.15434
6.0062
5.80065
5.65762
5.44831
5.11523
4.83105
4.74308
6.09826
6.1027
6.10875
6.11605
6.12478
6.13486
6.14627
6.15918
6.17385
6.18968
6.20414
6.21282
6.20975
6.18742
6.13662
6.04726
5.91242
5.73498
5.63264
5.56128
5.37199
5.10206
4.85538
6.08231
6.08617
6.09106
6.09686
6.10356
6.11104
6.11912
6.12766
6.13658
6.14529
6.15153
6.15134
6.13942
6.10952
6.05479
5.96868
5.84777
5.69521
5.52818
5.48863
5.42286
5.17909
4.92378
6.06468
6.06779
6.0716
6.07596
6.0808
6.08593
6.09106
6.09587
6.10004
6.10294
6.10277
6.0962
6.07874
6.0453
5.9907
5.9106
5.80379
5.67232
5.52134
5.36255
5.24551
5.09184
4.98862
6.04593
6.0483
6.05111
6.05416
6.05733
6.0604
6.06299
6.0647
6.06508
6.06346
6.05843
6.04739
6.02671
5.99228
5.94033
5.86829
5.77527
5.66192
5.53242
5.39532
5.26185
5.14179
5.05032
6.0266
6.02828
6.0302
6.03211
6.03384
6.03515
6.03565
6.03486
6.03227
6.02725
6.0187
6.00468
5.98246
5.94885
5.90117
5.83758
5.75681
5.65951
5.54882
5.43113
5.31445
5.20648
5.11269
6.00711
6.0082
6.00936
6.0103
6.01081
6.01067
6.0095
6.0068
6.00203
5.99458
5.98365
5.96785
5.94525
5.91352
5.87048
5.81455
5.7448
5.66175
5.5677
5.46709
5.36582
5.26961
5.18299
5.98779
5.9884
5.98893
5.98906
5.9886
5.98731
5.98485
5.98075
5.97448
5.96547
5.9531
5.93642
5.91412
5.88451
5.84591
5.797
5.7371
5.66654
5.58696
5.50146
5.41424
5.32974
5.25174
5.96889
5.96912
5.96914
5.96864
5.96741
5.96525
5.96183
5.95676
5.94953
5.93965
5.92657
5.90967
5.88806
5.86061
5.82609
5.78347
5.7322
5.67245
5.60535
5.53304
5.45854
5.38523
5.31626
5.95059
5.95054
5.95017
5.94919
5.94738
5.94457
5.94049
5.93478
5.92703
5.91677
5.90355
5.88691
5.86628
5.84094
5.81007
5.77293
5.72906
5.67853
5.62208
5.56118
5.49798
5.43505
5.37495
5.93302
5.93278
5.93212
5.93078
5.92857
5.92532
5.9208
5.91473
5.90675
5.89648
5.88352
5.86752
5.84808
5.8248
5.79716
5.76468
5.72704
5.68425
5.63678
5.58562
5.53229
5.47875
5.42699
5.91629
5.9159
5.91505
5.91346
5.91098
5.90746
5.9027
5.89648
5.88851
5.87847
5.86605
5.85093
5.83286
5.81157
5.7868
5.75828
5.72582
5.68944
5.64944
5.60649
5.56163
5.51636
5.47222
5.90044
5.89996
5.89897
5.89723
5.8946
5.89093
5.88609
5.87988
5.87209
5.86246
5.85073
5.83666
5.82004
5.80071
5.77854
5.75342
5.72528
5.69418
5.66033
5.62419
5.58649
5.54836
5.51096
5.88549
5.88496
5.88389
5.88207
5.87937
5.87568
5.87087
5.8648
5.8573
5.84818
5.83724
5.82428
5.80915
5.79173
5.77195
5.74981
5.72533
5.69859
5.66979
5.63927
5.60754
5.57547
5.54392
5.87146
5.87089
5.86979
5.86794
5.86524
5.86161
5.85693
5.85109
5.84396
5.83542
5.8253
5.81346
5.79979
5.7842
5.76666
5.74718
5.72585
5.70279
5.67818
5.65228
5.62551
5.59851
5.57192
5.85831
5.85774
5.85663
5.8548
5.85216
5.84864
5.84415
5.83861
5.83192
5.82398
5.81469
5.80395
5.79167
5.7778
5.76231
5.74525
5.72669
5.70678
5.6857
5.66366
5.641
5.61823
5.59582
5.84603
5.84546
5.84437
5.84259
5.84004
5.83668
5.83244
5.82724
5.82101
5.8137
5.80522
5.79552
5.78454
5.77225
5.75865
5.74376
5.72767
5.71051
5.69245
5.67368
5.65446
5.63523
5.61633
5.83456
5.83401
5.83295
5.83124
5.82883
5.82566
5.82168
5.81685
5.81111
5.80442
5.79673
5.78801
5.77823
5.76738
5.75547
5.74253
5.72864
5.7139
5.69846
5.68248
5.66619
5.64993
5.63398
5.82385
5.82333
5.82232
5.8207
5.81843
5.81547
5.81179
5.80735
5.8021
5.79602
5.78909
5.78129
5.77261
5.76306
5.75266
5.74145
5.72949
5.71687
5.70371
5.69015
5.67637
5.66265
5.6492
5.81386
5.81337
5.81242
5.8109
5.80879
5.80606
5.80268
5.79862
5.79386
5.78838
5.78217
5.77523
5.76756
5.75918
5.75012
5.74044
5.73017
5.7194
5.70823
5.69676
5.68514
5.6736
5.66229
5.80452
5.80407
5.80318
5.80177
5.79982
5.79733
5.79425
5.79058
5.7863
5.7814
5.77587
5.76973
5.76299
5.75567
5.74781
5.73946
5.73068
5.72152
5.71206
5.7024
5.69265
5.68297
5.67349
5.79576
5.79535
5.79453
5.79323
5.79146
5.7892
5.78643
5.78315
5.77933
5.77498
5.77011
5.76471
5.75882
5.75246
5.74568
5.73851
5.73102
5.72325
5.71528
5.70718
5.69902
5.69095
5.68306
5.78753
5.78717
5.78641
5.78523
5.78363
5.78161
5.77914
5.77623
5.77287
5.76905
5.76479
5.76009
5.75499
5.74951
5.74369
5.73758
5.73122
5.72466
5.71797
5.7112
5.70442
5.69773
5.69119
5.77976
5.77944
5.77874
5.77768
5.77626
5.77447
5.77231
5.76976
5.76684
5.76353
5.75985
5.75581
5.75144
5.74676
5.74182
5.73664
5.73129
5.72579
5.72021
5.71459
5.70898
5.70347
5.69811
5.77238
5.7721
5.77146
5.77052
5.76928
5.76773
5.76586
5.76367
5.76117
5.75835
5.75522
5.7518
5.74812
5.74418
5.74004
5.73571
5.73125
5.72669
5.72207
5.71744
5.71285
5.70834
5.70398
5.76533
5.76507
5.76448
5.76367
5.76261
5.7613
5.75973
5.75789
5.7558
5.75345
5.75086
5.74803
5.74498
5.74174
5.73832
5.73477
5.73111
5.72738
5.72362
5.71985
5.71613
5.71249
5.70898
5.75854
5.75827
5.75776
5.75707
5.7562
5.75513
5.75385
5.75236
5.75067
5.74878
5.7467
5.74443
5.74199
5.73939
5.73666
5.73382
5.7309
5.72792
5.72491
5.7219
5.71892
5.71602
5.71324
5.75193
5.75164
5.7512
5.75066
5.74998
5.74915
5.74817
5.74703
5.74574
5.74429
5.7427
5.74097
5.73911
5.73713
5.73504
5.73286
5.73061
5.72832
5.72599
5.72366
5.72134
5.71907
5.71689
5.74546
5.74511
5.74475
5.74437
5.7439
5.74333
5.74265
5.74186
5.74097
5.73997
5.73887
5.73766
5.73636
5.73496
5.73348
5.73193
5.73031
5.72864
5.72693
5.72519
5.72344
5.72169
5.72
5.73906
5.73863
5.7384
5.73821
5.73796
5.73766
5.73731
5.73689
5.73642
5.73588
5.73528
5.7346
5.73385
5.73303
5.73214
5.73117
5.73012
5.729
5.72781
5.72654
5.72519
5.72379
5.72242
5.73265
5.73229
5.73221
5.73217
5.73214
5.73211
5.73206
5.732
5.73193
5.73183
5.73169
5.73152
5.73131
5.73105
5.73073
5.73034
5.72988
5.72933
5.72868
5.72791
5.72702
5.726
5.72471
2005.08
2532.51
2570.49
2541.1
1230.26
1190.18
1070.58
870.331
853.287
716.057
675.686
697.853
657.493
980.86
966.647
945.297
902.687
897.393
906.664
912.393
880.629
885.383
891.085
896.822
851.317
858.351
865.956
874.698
827.945
835.665
846.065
856.479
654.573
602.812
763.257
841.408
5.15968
5.9591
179.131
370.626
4.67263
4.77072
4.97321
5.27811
4.70606
4.67318
4.63679
4.63707
4.8175
4.79898
4.78646
4.75397
4.86579
4.84179
4.82456
4.80234
4.92828
4.89826
4.87142
4.84846
4.99585
4.96326
4.93488
4.91071
5.05643
5.02721
5.00127
4.97925
5.12816
5.09672
5.06933
5.04511
5.20023
5.17005
5.14327
5.11906
5.26875
5.24013
5.2148
5.19145
5.33179
5.3052
5.28174
5.25994
5.38836
5.3641
5.34281
5.32294
5.43808
5.41632
5.39735
5.37958
5.48114
5.4619
5.44524
5.42963
5.51812
5.50132
5.48686
5.47332
5.54978
5.53528
5.52284
5.51121
5.57694
5.56453
5.5539
5.54399
5.60031
5.58977
5.58073
5.57231
5.62048
5.61159
5.60393
5.59679
5.63789
5.63044
5.62397
5.61793
5.65287
5.64668
5.64123
5.63613
5.66572
5.66061
5.65605
5.65176
5.67669
5.67252
5.66873
5.66514
5.68603
5.68265
5.67953
5.67656
5.69396
5.69125
5.68872
5.68629
5.70068
5.69853
5.6965
5.69455
5.70638
5.7047
5.7031
5.70157
5.7112
5.7099
5.70867
5.7075
5.71529
5.71429
5.71336
5.71253
5.71877
5.71799
5.71728
5.71676
5.7216
5.72094
5.7202
5.72004
5.72309
5.72192
5.7208
5.72124
1320.8
1044.94
995.442
1002.88
980.475
969.34
965.831
962.314
961.298
968.412
988.217
1044.58
1202.05
1345.65
1425.91
3797.18
4616.37
4782.12
6740.01
806.733
778.769
878.796
944.958
948.465
949.492
950.023
949.632
949.954
952.371
958.458
968.7
989.392
1164.04
1346.69
2074.09
2426.16
4218.08
7544.8
830.474
938.122
930.617
933.408
939.476
942.61
943.884
944.176
944.401
945.444
948.262
953.133
958.258
962.679
1132.91
1476.13
1584.64
2945.85
8197.51
923.311
922.282
925.052
929.875
935.198
938.878
941.031
942.004
942.335
942.53
942.946
943.97
943.958
939.181
931.69
1028.26
1038.57
1843.73
5421.92
914.111
917.373
921.744
927.145
932.772
937.411
940.696
942.628
943.462
943.484
942.819
941.41
938.465
925.549
910.548
906.563
902.35
1295.73
5816.59
903.038
908.88
915.639
923.042
930.349
936.72
941.647
945
946.88
947.444
946.727
944.555
940.677
934.945
885.508
842.589
878.18
1011.71
5562.91
886.53
896.804
907.253
917.578
927.325
935.965
942.935
948.086
951.48
953.209
953.302
951.66
948.108
942.12
926.196
771.408
617.908
724.725
1307.44
870.249
883.652
897.728
911.108
923.393
934.472
943.647
950.802
956.022
959.382
960.888
960.502
958.164
953.648
945.101
905.993
709.375
629.57
220.002
855.841
870.298
887.425
903.418
917.713
931.129
942.566
951.902
959.29
964.723
968.143
969.533
968.915
966.487
962.091
952.082
696.916
313.512
224.652
508.743
678.213
831.048
895.05
911.233
925.755
938.712
949.914
959.728
967.542
973.086
976.392
977.461
976.325
973.385
961.931
766.027
622.11
555.454
4.58896
6.1851
239.647
495.9
727.557
873.906
933.819
948.939
958.752
967.291
973.624
977.711
979.331
977.913
973.618
967.707
960.575
919.914
831.597
4.64377
4.78091
4.8389
4.64918
27.1103
238.508
472.744
707.136
852.994
935.579
971.08
981.332
983.49
972.367
910.18
774.957
486.242
198.018
59.9117
4.71917
4.75486
4.78474
4.85449
4.94193
4.71934
4.44227
4.40611
135.788
285.5
415.855
485.854
501.46
375.975
152.179
18.8863
10.5405
11.4551
10.5352
4.77131
4.76946
4.78934
4.83323
4.87422
4.89293
4.91658
5.02679
4.98273
4.71128
4.66054
4.69329
4.77153
5.03537
5.69814
6.88415
17.743
25.0636
14.8528
4.82268
4.80414
4.80915
4.8339
4.85261
4.89365
4.93924
5.03357
5.12224
5.17226
5.24283
5.32752
5.41827
5.51792
5.69093
10.495
32.0481
31.7659
19.3384
4.88114
4.85341
4.84382
4.85389
4.8728
4.89777
4.94963
4.9991
5.06459
5.11429
5.17367
5.2434
5.32298
5.41315
5.50823
7.11
7.76582
8.55803
5.77723
4.9481
4.91157
4.8963
4.89847
4.91004
4.92971
4.9646
5.01508
5.05895
5.10447
5.1544
5.21465
5.28549
5.36459
5.44631
5.49311
5.57123
5.65596
5.68786
5.01061
4.97581
4.95905
4.95567
4.96252
4.97949
5.00786
5.04339
5.08424
5.12747
5.17334
5.21878
5.27196
5.33267
5.3971
5.47265
5.65911
5.78651
5.61564
5.08219
5.04677
5.02725
5.02007
5.02268
5.03551
5.05802
5.08713
5.11949
5.15695
5.19747
5.23651
5.28059
5.32938
5.38042
5.43095
5.48194
5.7604
5.56927
5.15586
5.1199
5.09779
5.08707
5.08613
5.09451
5.11139
5.13439
5.16109
5.19092
5.22336
5.2586
5.29612
5.33633
5.37822
5.42084
5.46524
5.59471
5.5466
5.22658
5.19167
5.16781
5.1547
5.15086
5.15509
5.16687
5.18443
5.20594
5.2306
5.25786
5.28749
5.3195
5.35373
5.3898
5.42756
5.46789
5.50828
5.54787
5.29256
5.25984
5.23558
5.22087
5.21459
5.21566
5.22337
5.23646
5.25362
5.27398
5.297
5.32238
5.35005
5.38003
5.41224
5.4468
5.48493
5.52617
5.56899
5.35258
5.32275
5.29916
5.28367
5.27581
5.27466
5.27936
5.28902
5.3027
5.31963
5.33929
5.36137
5.38583
5.41274
5.44215
5.47436
5.51103
5.55337
5.59998
5.40609
5.37951
5.35735
5.34195
5.33331
5.3307
5.33329
5.34043
5.35145
5.36572
5.38277
5.40234
5.42439
5.44899
5.47626
5.5066
5.54213
5.58527
5.63536
5.45312
5.42987
5.40963
5.39499
5.3862
5.38271
5.38389
5.38926
5.39831
5.41055
5.4256
5.44323
5.4634
5.48616
5.51165
5.54037
5.57474
5.61793
5.67225
5.49407
5.47399
5.45591
5.44246
5.43396
5.43006
5.43036
5.43449
5.44209
5.45279
5.46627
5.48235
5.50097
5.52217
5.54605
5.57318
5.60614
5.64845
5.70214
5.52952
5.51234
5.49646
5.48439
5.47647
5.47251
5.47228
5.47555
5.48206
5.49154
5.50374
5.51851
5.53576
5.55549
5.57781
5.60328
5.63447
5.6755
5.72672
5.56014
5.5455
5.53173
5.52109
5.51391
5.51009
5.50954
5.51219
5.51785
5.52632
5.53742
5.55098
5.56693
5.58523
5.60594
5.6296
5.65865
5.6993
5.74536
5.58653
5.57408
5.56225
5.55299
5.5466
5.54302
5.54229
5.54447
5.54942
5.55701
5.56707
5.57948
5.59413
5.61096
5.62998
5.65168
5.67826
5.7175
5.75807
5.60925
5.59866
5.58858
5.58062
5.57496
5.57162
5.57083
5.57263
5.57696
5.58371
5.59277
5.60402
5.61735
5.63265
5.64991
5.6695
5.69339
5.72669
5.7622
5.62877
5.61978
5.61125
5.60444
5.59943
5.59637
5.59556
5.59704
5.60078
5.60673
5.6148
5.62488
5.63684
5.65056
5.66598
5.6834
5.70447
5.73175
5.76352
5.64552
5.6379
5.63074
5.6249
5.62047
5.61774
5.61694
5.61813
5.62132
5.62649
5.63356
5.64245
5.65301
5.66511
5.67866
5.69387
5.71222
5.73546
5.76285
5.65987
5.65347
5.64749
5.64245
5.63859
5.6362
5.63543
5.63636
5.63902
5.64342
5.64951
5.6572
5.66636
5.67683
5.68852
5.70154
5.71709
5.73664
5.75957
5.67216
5.66684
5.66181
5.65752
5.65426
5.65221
5.65147
5.65215
5.6543
5.65797
5.6631
5.66962
5.67738
5.68624
5.69619
5.70717
5.71989
5.73591
5.75461
5.68265
5.67824
5.67409
5.67057
5.66788
5.66612
5.66542
5.66587
5.66756
5.67053
5.67475
5.68014
5.68654
5.69394
5.7021
5.71091
5.7212
5.73403
5.74882
5.69159
5.68802
5.68471
5.6819
5.67972
5.67823
5.67757
5.67782
5.67908
5.68141
5.68477
5.68909
5.69423
5.70015
5.70653
5.71344
5.72156
5.73156
5.74295
5.69921
5.69642
5.69389
5.69172
5.68998
5.68874
5.6881
5.68818
5.68907
5.6908
5.69338
5.69673
5.7007
5.70506
5.70978
5.71506
5.7211
5.72877
5.73754
5.70572
5.70367
5.70182
5.70017
5.69879
5.69776
5.69716
5.69709
5.69763
5.69884
5.7007
5.70314
5.70603
5.70914
5.7124
5.71596
5.72039
5.72581
5.73285
5.71132
5.70994
5.70863
5.7074
5.70631
5.70543
5.70484
5.70463
5.70487
5.7056
5.70681
5.70843
5.71034
5.71239
5.71449
5.71674
5.71955
5.72268
5.72867
5.7162
5.71542
5.71454
5.71361
5.71272
5.71194
5.71134
5.711
5.71097
5.71126
5.71188
5.71276
5.71382
5.71496
5.71611
5.71728
5.71846
5.71893
5.72436
5.72043
5.72035
5.71984
5.71913
5.71838
5.71767
5.71704
5.71656
5.71626
5.71615
5.71621
5.71641
5.71669
5.717
5.71733
5.71751
5.71646
5.71232
5.72056
5.72418
5.72519
5.72511
5.72467
5.72408
5.72343
5.72277
5.72215
5.72157
5.72104
5.72052
5.71999
5.7194
5.71874
5.71798
5.71688
5.7132
5.69952
5.72486
)
;

boundaryField
{
    leftWall
    {
        type            fixedFluxPressure;
        gradient        uniform 0;
        value           nonuniform List<scalar> 
50
(
4569.06
4554.05
4512.33
4311.13
2078.54
1282.62
1271.14
1260.03
1243.06
1224.57
1210.54
1200.77
1195.34
868.499
56.1659
6.12393
6.12534
6.12664
6.12092
6.11175
6.09826
6.08231
6.06468
6.04593
6.0266
6.00711
5.98779
5.96889
5.95059
5.93302
5.91629
5.90044
5.88549
5.87146
5.85831
5.84603
5.83456
5.82385
5.81386
5.80452
5.79576
5.78753
5.77976
5.77238
5.76533
5.75854
5.75193
5.74546
5.73906
5.73265
)
;
    }
    rightWall
    {
        type            fixedFluxPressure;
        gradient        uniform 0;
        value           nonuniform List<scalar> 
50
(
4224.43
4271.81
4205.34
4275.82
4827.88
5187.07
5606.96
6037.36
6740.01
7544.8
8197.51
5421.92
5816.59
5562.91
1307.44
220.002
224.652
555.454
831.597
59.9117
10.5352
14.8528
19.3384
5.77723
5.68786
5.61564
5.56927
5.5466
5.54787
5.56899
5.59998
5.63536
5.67225
5.70214
5.72672
5.74536
5.75807
5.7622
5.76352
5.76285
5.75957
5.75461
5.74882
5.74295
5.73754
5.73285
5.72867
5.72436
5.72056
5.72486
)
;
    }
    lowerWall
    {
        type            fixedFluxPressure;
        gradient        uniform 0;
        value           nonuniform List<scalar> 
62
(
4569.06
4612.64
4737.75
4917.5
5128.4
5349.87
5565.77
5766.87
5950.02
6114.81
6262.94
6395.8
6512.07
6609.05
6685.22
6738.69
6766.88
6765.89
6731.27
6660.07
6557.37
6449.01
6340.37
6340.37
6318.87
6289.8
6248
6196.56
6142.87
4491.28
1504.4
2005.08
2532.51
2570.49
2541.1
1618.73
1595.8
1553.41
1536.79
2168.45
2157.31
1423.54
1247.17
1618.73
1606.94
1746.42
2016.51
2120.52
2053.45
2021.95
2142.8
2356.69
2488.96
2603.13
2731.07
2931.08
3177.72
3382.78
3496.13
3242.3
3282.92
4224.43
)
;
    }
    atmosphere
    {
        type            prghTotalPressure;
        rho             rho;
        psi             none;
        gamma           1;
        p0              uniform 0;
        value           nonuniform List<scalar> 
46
(
5.72904
5.72904
5.72904
5.72904
5.72904
5.72904
5.72904
5.72904
5.72904
5.72904
5.72904
5.72904
5.72904
5.72904
5.72904
5.72904
5.72904
5.72904
5.72904
5.72904
5.72904
5.72904
5.72904
5.72904
5.72904
5.72904
5.72903
5.72895
5.72872
5.72836
5.72788
5.72731
5.72667
5.726
5.72531
5.7246
5.72385
5.72302
5.72206
5.72095
5.71967
5.71826
5.71675
5.71505
5.7125
5.72132
)
;
        rho             rho;
    }
    defaultFaces
    {
        type            empty;
    }
}


// ************************************************************************* //
