/*--------------------------------*- C++ -*----------------------------------*\
  =========                 |
  \\      /  F ield         | OpenFOAM: The Open Source CFD Toolbox
   \\    /   O peration     | Website:  https://openfoam.org
    \\  /    A nd           | Version:  13
     \\/     M anipulation  |
\*---------------------------------------------------------------------------*/
FoamFile
{
    format      ascii;
    class       volScalarField;
    location    "0.8";
    object      rho;
}
// * * * * * * * * * * * * * * * * * * * * * * * * * * * * * * * * * * * * * //

dimensions      [1 -3 0 0 0 0 0];

internalField   nonuniform List<scalar> 
2268
(
13529
13529
13529
13529
13529
13529
13529
13529
13529
13529
13529
13529
13529
13529
13529
13529
13529
13529
13529
13529
13527.2
13521.6
13521.6
13529
13529
13529
13529
13529
13529
13529
13529
13529
13529
13529
13529
13529
13529
13529
13529
13529
13529
13529
13529
13528.8
13525.9
13522.3
13529
13529
13529
13529
13529
13529
13529
13529
13529
13529
13529
13529
13529
13529
13529
13529
13529
13529
13529
13529
13529
13529
13529
12858
12948.9
13529
13529
13529
13529
13529
13529
13529
13529
13529
13529
13529
13529
13529
13529
13529
13529
13529
13529
13529
13529
13529
3635.31
4582.22
6746.6
10255.9
12912.4
13529
13529
13529
13529
13529
13529
13529
13529
13529
13529
13529
13529
13529
13529
13529
13529
13529
13528.8
1000
1000
1012.54
1652
4144
8907.78
12594.8
13529
13529
13529
13529
13529
13529
13529
13529
13529
13529
13529
13529
13529
13529
13528.9
13528.7
1000
1000
1000
1000
1000
1208.14
3111.38
6979.36
10809.3
12803.8
13312
13395.1
13478.5
13491.1
13424.5
13319.9
13209.1
13058.2
12793.2
12309.8
11367.9
9996.92
8916.98
1000
1000
1000
1000
1000
1000
1000
1021.46
1635.17
2931.17
4791.14
6896.96
8010.12
8300.74
7822.47
7341.11
6923.87
6387.77
5639.93
4650.28
3158.7
2026.45
1613.56
1081.49
1046.24
1073.33
1149.86
1249.61
1280.66
1689.9
3462.1
6221.87
6867.44
6439
5053.19
4305.64
4088.53
3128.84
2846.09
2796.5
2804.66
3706.14
856.946
632.435
1484.45
4625.65
5539.73
5590.07
7266.19
10707.9
11965.1
11990.6
11987.2
11923.7
11911.5
11743.2
6944.68
3039.4
2805.63
3146.2
7404.34
477.624
874.287
3312.76
6699.56
6765.44
6610.36
5791.37
4688.4
4693.14
5345.14
6847.36
8666.61
10675.7
11628
11116.6
4514.32
2161.61
1195.3
7386.53
485.725
3146.39
3711.88
2475.77
1785.44
1674.19
1115.98
1002.07
1000.6
999.886
1025.56
1229.2
1558.1
5258.26
10678.4
5448.7
1010.2
564.274
7498.03
3445.71
3619.71
3068.44
1065.39
1001.95
1001.07
1001.06
1001.15
1000.26
999.852
999.897
998.121
998.329
2087.27
8512.61
4718.42
373.835
1009.47
9017
3653.36
2753.54
1002.58
999.772
999.774
999.819
999.836
999.84
1000.03
1000.09
999.972
999.661
999.598
1009.4
5935.5
1684.44
276.376
4587.48
9169.42
1593.88
999.245
999.707
997.902
996.487
997.033
994.883
992.356
990.522
991.345
999.785
999.818
999.806
1002.5
4376.58
482.053
411.486
7742.89
9262.73
1123.16
985.482
871.832
898.136
844.245
800.807
773.838
755.067
742.604
739.003
799.949
945.779
999.757
1000.8
1732.72
3185.16
3251.01
9150.17
9290.4
1000
1000
1000
1000
1000
1000
1000
1000
1000
1000
1000
1000
1000
1000
1331.06
1487.46
1484.43
1354.38
1179.33
1009.18
999.999
999.997
1000.02
1000
1000
1000
1000
1000
1000
1000
1000
1000
1000
1000
1000
1000
1000
1000
1000
1000
1000
1000
1000
999.999
999.997
999.996
1000
1000
1000
1000
1000
1000
1000
1000
1000
1000
1000
1000
1000
1000
1000
1000
1000
1000
1000
1000
999.998
998.969
922.174
1000
1000
1000
1000
1000
1000
1000
1000
1000
1000
1000
1000
1000
999.875
996.347
988.363
976.387
958.736
941.836
935.683
850.256
277.464
47.6833
1000
1000
1000
993.468
977.237
962.136
950.019
942.714
934.562
915.444
851.679
772.59
681.679
584.762
513.48
468.658
450.748
450.734
420.801
327.054
231.297
373.692
498.87
702.763
588.963
458.371
368.566
313.437
269.833
230.814
186.853
129.676
71.1926
39.7878
17.3705
1.00008
1.00002
2.02901
3.25918
2.64663
4.10232
12.4625
305.347
500.156
497.918
500
38.1555
12.1778
1.5246
1.0001
1.00009
1.00009
1.00009
1.00009
1.00011
1.00016
1
1
1
1.00001
1.00009
1.00025
1.00037
1.00145
41.9794
436.672
500.068
499.999
500
1.00034
1.00025
1.00001
1.00001
1
1
1
1
1
1
1
1
1
1.00001
1.00007
1.00022
1.00008
1.00001
1.00003
72.3065
426.781
500
500
1.00004
1.00001
1
1
1
1
1
1
1
1
1
1
1
1.00001
1.00005
1.00027
1.00051
1
1.00002
1.00028
3.6251
99.8212
399.002
1.00001
1
1
1
1
1
1
1
1
1
1
1
1
1
1.00002
1.00024
1.00129
1.00004
1.00001
1.00002
1.00001
1.00012
1.00001
1
1
1
1
1
1
1
1
1
1
1
1
1
1
1.00001
1.00006
1.00068
1.00703
1.00054
1.00006
1.00001
1
1.00001
1
1
1
1
1
1
1
1
1
1
1
1
1
1
1.00001
1.00001
1.00027
1.00431
1.06669
1.09406
1.04253
1.00001
1.00001
1
1
1
1
1
1
1
1
1
1
1
1
1
1
1.00001
1.00001
1.00004
1.00036
1.05293
1.12047
1.12214
1.07148
1.00004
1
1
1
1
1
1
1
1
1
1
1
1
1
1
1
1
1.00001
1.00007
1.0046
1.07064
1.11833
1.07214
1.00242
1
1
1
1
1
1
1
1
1
1
1
1
1
1
1
1
1
1.00002
1.00011
1.00037
1.01529
1.0058
1.00552
1
1
1
1
1
1
1
1
1
1
1
1
1
1
1
1
1
1
1.00002
1.00005
1.00011
1.00013
1.00351
1
1
1
1
1
1
1
1
1
1
1
1
1
1
1
1
1
1
1
1.00002
1.00004
1.00008
1.00024
1
1
1
1
1
1
1
1
1
1
1
1
1
1
1
1
1
1
1
1.00001
1.00001
1.00001
1.00003
1
1
1
1
1
1
1
1
1
1
1
1
1
1
1
1
1
1
1
1
1
1
1
1
1
1
1
1
1
1
1
1
1
1
1
1
1
1
1
1
1
1
1
1
1
1
1
1
1
1
1
1
1
1
1
1
1
1
1
1
1
1
1
1
1
1
1
1
1
1
1
1
1
1
1
1
1
1
1
1
1
1
1
1
1
1
1
1
1
1
1
1
1
1
1
1
1
1
1
1
1
1
1
1
1
1
1
1
1
1
1
1
1
1
1
1
1
1
1
1
1
1
1
1
1
1
1
1
1
1
1
1
1
1
1
1
1
1
1
1
1
1
1
1
1
1
1
1
1
1
1
1
1
1
1
1
1
1
1
1
1
1
1
1
1
1
1
1
1
1
1
1
1
1
1
1
1
1
1
1
1
1
1
1
1
1
1
1
1
1
1
1
1
1
1
1
1
1
1
1
1
1
1
1
1
1
1
1
1
1
1
1
1
1
1
1
1
1
1
1
1
1
1
1
1
1
1
1
1
1
1
1
1
1
1
1
1
1
1
1
1
1
1
1
1
1
1
1
1
1
1
1
1
1
1
1
1
1
1
1
1
1
1
1
1
1
1
1
1
1
1
1
1
1
1
1
1
1
1
1
1
1
1
1
1
1
1
1
1
1
1
1
1
1
1
1
1
1
1
1
1
1
1
1
1
1
1
1
1
1
1
1
1
1
1
1
1
1
1
1
1
1
1
1
1
1
1
1
1
1
1
1
1
1
1
1
1
1
1
1
1
1
1
1
1
1
1
1
1
1
1
1
1
1
1
1
1
1
1
1
1
1
1
1
1
1
1
1
1
1
1
1
1
1
1
1
1
1
1
1
1
1
1
1
1
1
1
1
1
1
1
1
1
1
1
1
1
1
1
1
1
1
1
1
1
1
1
1
1
1
1
1
1
1
1
1
1
1
1
1
1
1
1
1
1
1
1
1
1
1
1
1
1
1
1
1
1
1
1
1
1
1
1
1
1
1
1
1
1
1
1
1
1
1
1
1
1
1
1
1
1
1
1
1
1
1
1
1
1
1
1
1
1
1
1
1
1
1
1
1
1
1
1
1
1
1
1
1
1
1
1
1
1
1
1
1
1
1
1
1
1
1
1
1
1
1
1
1
1
1
1
1
1
1
1
1
1
1
1
1
1
1
1
1
1
1
1
1
1
1
1
1
1
1
1
1
1
1
1
1
1
1
1
1
1
1
1
1
1
1
1
1
2228.56
3153.58
3182.62
3105.11
994.042
924.858
716.438
396.828
333.075
145.802
102.278
147.848
141.07
499.079
500
500
499.757
500
500
500
500
500
500
500
500
500
500
500
500
500
500
500
402.236
366.353
459.459
500
1.00001
1.00014
101.397
210.651
1.00002
1.00013
1.00018
1.00014
1.00003
1.00008
1.00027
1.0003
1.00017
1.0005
1.00334
1.00315
1.00045
1.00232
1.00514
1.00517
1.00469
1.00531
1.00527
1.00525
1.00554
1.00543
1.00535
1.00523
1.00079
1.00188
1.00279
1.00387
1.00008
1.00005
1.00022
1.00051
1
1.00003
1.00008
1.00019
1
1
1.00003
1.00006
1
1
1.00001
1.00001
1
1
1
1
1
1
1
1
1
1
1
1
1
1
1
1
1
1
1
1
1
1
1
1
1
1
1
1
1
1
1
1
1
1
1
1
1
1
1
1
1
1
1
1
1
1
1
1
1
1
1
1
1
1
1
1
1
1
1
1
1
1
1
1
1
1
1
1
1
1
1
1
1
1
1
1
1
1
1
1
1
1
1
1
1195.62
642.096
550.535
571.621
539.621
522.834
517.974
512.892
508.216
510.4
523.874
586.535
809.941
999.747
1113.56
5071.21
6076.23
6223.85
9423.02
301.902
238.551
398.587
499.027
499.666
499.397
500.006
500.006
499.984
499.983
499.997
499.927
509.626
745.597
998.854
2028.23
2348.37
4731.59
9437.65
352.322
499.999
500.001
500.001
500.002
500.003
500.003
500.005
500.005
500.004
500.001
500.001
500
504.476
723.186
1148.84
1222.54
2835.04
9235.08
500
500
500
500
500
500
500
500
500
500
500
500
499.813
499.247
504.752
625.567
633.438
1513.56
5288.77
500
500
500
500
500
500
500
500
500
500
500
500
499.98
493.991
493.507
510.78
520.264
940.552
5208.29
500
500
500
499.993
499.987
499.998
500
500
500
500
500
500
500
501.523
471.475
455.995
507.467
662.135
4522.88
500
500
499.988
499.929
499.932
499.981
500
500
500
500
500.001
500.001
500
500.203
497.514
395.151
298.545
413.528
877.814
500
500
499.977
499.932
499.931
499.984
500
500
500
500
500
500
500
500
500
484.697
365.888
338.978
56.9891
499.749
500
500
500
499.996
500
500
500
500
500
499.999
499.999
499.999
500.001
500.002
500.24
347.682
111.162
56.6472
291
389.426
470.474
498.834
500
500
500
500
500
500
500
499.999
499.999
500
500
496.288
382.667
301.286
267.862
1.00011
1.72902
128.19
267.747
394.057
469.698
497.243
500
500
500
500
500
500
500
500
500
499.498
481.118
441.361
1.00011
1.00001
1.00001
1.00001
12.4044
120.807
241.409
362.636
436.725
477.938
494.68
498.653
499.152
493.973
462.986
393.799
244.421
95.6304
26.9718
1.00017
1.00002
1.00001
1.00002
1.00002
1.00003
1.00002
0.999953
64.6465
137.343
200.496
234.136
241.323
180.25
71.7172
6.71342
1.87075
1.75926
1.87082
1.00211
1.00003
1.00002
1.00006
1.00014
1.00025
1.00026
1.00026
1.00019
1.00014
1.00019
1.00025
1.00019
1.00011
1.00015
1.00026
5.38089
8.61419
4.18412
1.00498
1.00031
1.00001
1.00004
1.00016
1.0006
1.00142
1.00081
1.00041
1.00023
1.00018
1.00038
1.00039
1.00026
1.00041
2.97293
12.1765
11.9368
6.6669
1.00515
1.00209
1.00002
1.00002
1.00003
1.00038
1.00195
1.00198
1.00136
1.00045
1.00027
1.00119
1.00164
1.00085
1.00057
1.64671
1.89038
2.14204
1.00305
1.00513
1.00198
1.00014
1.00002
1.00001
1.00002
1.0002
1.00161
1.00181
1.00184
1.00087
1.00178
1.00384
1.00477
1.00621
1.00309
1.00307
1.00305
1.00304
1.00123
1.00048
1.00011
1.00003
1.00001
1.00001
1.00001
1.00001
1.00114
1.00181
1.00178
1.00036
1.00002
1.00001
1.00014
1.00599
1.05211
1.0763
1.00306
1.00016
1.00014
1.00005
1.00002
1.00001
1.00001
1.00001
1.00001
1.00001
1.00061
1.00123
1.00035
1.00001
1.00001
1.00003
1.00004
1.00016
1.08171
1.00294
1.00007
1.00004
1.00002
1.00001
1.00001
1.00001
1.00001
1.00001
1.00001
1.00001
1
1.0001
1.00004
1.00001
1.00001
1
1.00001
1.03023
1.00106
1.00002
1.00001
1.00001
1.00001
1
1
1
1
1.00001
1.00001
1.00001
1.00001
1.00002
1.00002
1.00001
1.00001
1.00001
1.00001
1.00007
1
1
1
1
1
1
1
1
1
1
1.00001
1.00001
1.00001
1.00001
1.00001
1.00001
1.00001
1.00001
1.00002
1
1
1
1
1
1
1
1
1
1
1
1.00001
1.00001
1.00001
1.00001
1.00001
1.00001
1.00001
1.00002
1
1
1
1
1
1
1
1
1
1
1
1
1
1
1.00001
1.00001
1.00001
1.00001
1.00026
1
1
1
1
1
1
1
1
1
1
1
1
1
1
1
1.00001
1
1.00002
1.00117
1
1
1
1
1
1
1
1
1
1
1
1
1
1
1
1
1
1.00002
1.00116
1
1
1
1
1
1
1
1
1
1
1
1
1
1
1
1
1
1.00017
1.00116
1
1
1
1
1
1
1
1
1
1
1
1
1
1
1
1
1
1.00073
1.00117
1
1
1
1
1
1
1
1
1
1
1
1
1
1
1
1
1
1.00116
1.00117
1
1
1
1
1
1
1
1
1
1
1
1
1
1
1
1
1
1.00057
1.00037
1
1
1
1
1
1
1
1
1
1
1
1
1
1
1.00001
1.00001
1.00001
1.00003
1
1
1
1
1
1
1
1
1
1
1
1
1
1
1.00001
1.00001
1.00001
1.00004
1
1
1
1
1
1
1
1
1
1
1
1
1
1
1.00001
1.00001
1.00001
1.00002
1.00004
1.00001
1
1
1
1
1
1
1
1
1
1
1
1
1.00001
1.00001
1.00001
1.00004
1.00008
1.00006
1.00002
1
1
1
1
1
1
1
1
1
1
1
1
1
1
1.00003
1.00007
1.00008
1.00006
1.00002
1
1
1
1
1
1
1
1
1
1
1
1
1
1.00001
1.00004
1.00007
1.00008
1.00007
1.00002
1
1
1
1
1
1
1
1
1
1
1
1
1.00001
1.00001
1.00001
1.00002
1.00005
1.00002
1.00001
1
1
1
1
1
1
1
1
1
1
1
1
1
1.00001
1.00001
1
1
1
1
1
1
1
1
1
1
1
1
1
1
1
1
1
1
1
1
1
1
1
1
1
1
1
1
1
1
1
1
1
1
1
1
1
1
1
1
1
1
1
1
1
1
1
1
1
1
1
1
1
1
1
1
1
1
1
1
1
1
1
1
1
1
1
1
1
1
1
1
1
1
1
1
1
1
1
1
1
)
;

boundaryField
{
    leftWall
    {
        type            calculated;
        value           nonuniform List<scalar> 
50
(
13529
13529
13529
12858
3635.31
1000
1000
1000
1000
1000
1000
1000
1000
702.763
38.1555
1.00034
1.00004
1.00001
1
1
1
1
1
1
1
1
1
1
1
1
1
1
1
1
1
1
1
1
1
1
1
1
1
1
1
1
1
1
1
1
)
;
    }
    rightWall
    {
        type            calculated;
        value           nonuniform List<scalar> 
50
(
3706.14
7404.34
7386.53
7498.03
9017
9169.42
9262.73
9290.4
9423.02
9437.65
9235.08
5288.77
5208.29
4522.88
877.814
56.9891
56.6472
267.862
441.361
26.9718
1.87082
4.18412
6.6669
1.00305
1.00304
1.00306
1.00294
1.00106
1.00007
1.00002
1.00002
1.00026
1.00117
1.00116
1.00116
1.00117
1.00117
1.00037
1
1
1
1
1
1
1
1
1
1
1
1
)
;
    }
    lowerWall
    {
        type            calculated;
        value           nonuniform List<scalar> 
62
(
13529
13529
13529
13529
13529
13529
13529
13529
13529
13529
13529
13529
13529
13529
13529
13529
13529
13529
13529
13529
13527.2
13521.6
13521.6
13521.6
13522.3
13529
13529
13528.8
13528.7
8916.98
1613.56
2228.56
3153.58
3182.62
3105.11
1081.49
856.946
477.624
485.725
3445.71
3653.36
1593.88
1123.16
1081.49
1046.24
1073.33
1149.86
1249.61
1280.66
1689.9
3462.1
6221.87
6867.44
6439
5053.19
4305.64
4088.53
3128.84
2846.09
2796.5
2804.66
3706.14
)
;
    }
    atmosphere
    {
        type            calculated;
        value           nonuniform List<scalar> 
46
(
1
1
1
1
1
1
1
1
1
1
1
1
1
1
1
1
1
1
1
1
1
1
1
1
1
1
1
1
1
1
1
1
1
1
1
1
1
1
1
1
1
1
1
1
1
1
)
;
    }
    defaultFaces
    {
        type            empty;
    }
}


// ************************************************************************* //
