/*--------------------------------*- C++ -*----------------------------------*\
  =========                 |
  \\      /  F ield         | OpenFOAM: The Open Source CFD Toolbox
   \\    /   O peration     | Website:  https://openfoam.org
    \\  /    A nd           | Version:  13
     \\/     M anipulation  |
\*---------------------------------------------------------------------------*/
FoamFile
{
    format      ascii;
    class       volVectorField;
    location    "0.8";
    object      U;
}
// * * * * * * * * * * * * * * * * * * * * * * * * * * * * * * * * * * * * * //

dimensions      [0 1 -1 0 0 0 0];

internalField   nonuniform List<vector> 
2268
(
(-0.0357244 0.0127137 0)
(-0.0542175 0.00465896 0)
(-0.0784261 0.00516917 0)
(-0.105494 0.00654757 0)
(-0.133742 0.00732057 0)
(-0.161776 0.00751942 0)
(-0.187656 0.00711232 0)
(-0.209849 0.00625174 0)
(-0.22746 0.00513839 0)
(-0.240122 0.00390084 0)
(-0.24764 0.00250846 0)
(-0.249607 0.000831684 0)
(-0.24565 -0.000970105 0)
(-0.236043 -0.00282345 0)
(-0.221265 -0.00476894 0)
(-0.201405 -0.00685956 0)
(-0.176566 -0.0089915 0)
(-0.147268 -0.0109529 0)
(-0.114544 -0.012548 0)
(-0.0800383 -0.0135477 0)
(-0.0461587 -0.0132814 0)
(-0.0129765 -0.00918716 0)
(-0.000778517 -0.00158169 0)
(-0.0221065 0.0296844 0)
(-0.0479943 0.0190411 0)
(-0.0810164 0.0203188 0)
(-0.114552 0.0212722 0)
(-0.147292 0.0212262 0)
(-0.177797 0.0199081 0)
(-0.204221 0.0174129 0)
(-0.225312 0.0141498 0)
(-0.240371 0.0104726 0)
(-0.249163 0.00664247 0)
(-0.251779 0.00264659 0)
(-0.248206 -0.00166959 0)
(-0.238776 -0.00589713 0)
(-0.224625 -0.00968013 0)
(-0.206722 -0.0131711 0)
(-0.185513 -0.0165296 0)
(-0.16131 -0.0196525 0)
(-0.134627 -0.0222332 0)
(-0.106334 -0.0239374 0)
(-0.0777479 -0.0243435 0)
(-0.0507804 -0.0225802 0)
(-0.0256786 -0.0164695 0)
(-0.0118015 -0.0045764 0)
(-0.0110834 0.0459545 0)
(-0.0489497 0.0357478 0)
(-0.0867542 0.0372943 0)
(-0.123462 0.03784 0)
(-0.157874 0.0365193 0)
(-0.188335 0.0330988 0)
(-0.21328 0.0279377 0)
(-0.231869 0.0217361 0)
(-0.24371 0.0150323 0)
(-0.248839 0.00823845 0)
(-0.247737 0.00140567 0)
(-0.240751 -0.00559388 0)
(-0.228656 -0.0120502 0)
(-0.212857 -0.0174491 0)
(-0.19438 -0.0222077 0)
(-0.173623 -0.026643 0)
(-0.150842 -0.0306618 0)
(-0.126445 -0.0338551 0)
(-0.101141 -0.035746 0)
(-0.0760015 -0.0357519 0)
(-0.0525896 -0.0329323 0)
(-0.0309454 -0.0260494 0)
(-0.0162331 -0.0155914 0)
(-0.00806537 0.0477464 0)
(-0.0533801 0.0492286 0)
(-0.0930922 0.0524211 0)
(-0.131591 0.0538258 0)
(-0.166402 0.0519195 0)
(-0.195721 0.0461761 0)
(-0.218456 0.0377623 0)
(-0.234106 0.0282011 0)
(-0.242712 0.0181846 0)
(-0.244654 0.00836369 0)
(-0.240803 -0.00115792 0)
(-0.231703 -0.0105748 0)
(-0.218299 -0.0188523 0)
(-0.202079 -0.0254863 0)
(-0.183956 -0.0311885 0)
(-0.164167 -0.0364406 0)
(-0.14286 -0.0411623 0)
(-0.120333 -0.0448487 0)
(-0.0971673 -0.0468962 0)
(-0.0742308 -0.0465844 0)
(-0.0527783 -0.0429963 0)
(-0.0324941 -0.0359802 0)
(-0.0147099 -0.0263683 0)
(-0.0182782 0.0728097 0)
(-0.0583953 0.0687136 0)
(-0.0987519 0.0683364 0)
(-0.137322 0.0669735 0)
(-0.171351 0.0639634 0)
(-0.199177 0.0570999 0)
(-0.21962 0.0462632 0)
(-0.232447 0.0334465 0)
(-0.238243 0.0200112 0)
(-0.237664 0.00724538 0)
(-0.231991 -0.00471346 0)
(-0.22181 -0.0162623 0)
(-0.208056 -0.0260476 0)
(-0.192211 -0.0336156 0)
(-0.174969 -0.0400509 0)
(-0.156375 -0.0459826 0)
(-0.136495 -0.0513194 0)
(-0.115584 -0.0554481 0)
(-0.0941572 -0.057645 0)
(-0.0729454 -0.0570857 0)
(-0.0530076 -0.0529826 0)
(-0.0335577 -0.0465196 0)
(-0.0132285 -0.0369481 0)
(-0.00206134 0.101173 0)
(-0.0388603 0.0968134 0)
(-0.083924 0.0932514 0)
(-0.132846 0.0851375 0)
(-0.170699 0.076909 0)
(-0.197255 0.0656807 0)
(-0.215557 0.0521372 0)
(-0.226525 0.0370256 0)
(-0.230392 0.0207562 0)
(-0.228238 0.0053927 0)
(-0.221775 -0.0087457 0)
(-0.21145 -0.0221808 0)
(-0.198187 -0.0331992 0)
(-0.183372 -0.0414917 0)
(-0.167397 -0.04854 0)
(-0.150126 -0.0550735 0)
(-0.131656 -0.0609453 0)
(-0.112313 -0.0654171 0)
(-0.0926473 -0.0676666 0)
(-0.0733341 -0.0668341 0)
(-0.0552401 -0.0622708 0)
(-0.0367348 -0.0566236 0)
(-0.0182018 -0.0495134 0)
(0.00520564 0.0954712 0)
(-0.0164562 0.112886 0)
(-0.0482502 0.12085 0)
(-0.0881697 0.118076 0)
(-0.134599 0.0992271 0)
(-0.178666 0.0765566 0)
(-0.203926 0.0580092 0)
(-0.215212 0.0397712 0)
(-0.218538 0.0211591 0)
(-0.216534 0.00402203 0)
(-0.210492 -0.0118426 0)
(-0.200851 -0.0269277 0)
(-0.188944 -0.0389517 0)
(-0.175831 -0.0478656 0)
(-0.161439 -0.0554998 0)
(-0.145565 -0.0625549 0)
(-0.128547 -0.0688113 0)
(-0.110967 -0.0734097 0)
(-0.0935056 -0.0754919 0)
(-0.0768339 -0.0742656 0)
(-0.0614075 -0.069178 0)
(-0.0442576 -0.064018 0)
(-0.0352369 -0.0624298 0)
(0.000754014 0.0954158 0)
(-0.0108236 0.119017 0)
(-0.0326306 0.129241 0)
(-0.0587659 0.131448 0)
(-0.0904323 0.122789 0)
(-0.125447 0.103965 0)
(-0.161311 0.07194 0)
(-0.188491 0.0428263 0)
(-0.200429 0.0206697 0)
(-0.201473 0.00222488 0)
(-0.196811 -0.0147066 0)
(-0.189108 -0.0307974 0)
(-0.179915 -0.0434454 0)
(-0.169416 -0.0528964 0)
(-0.157069 -0.0613642 0)
(-0.14285 -0.0690645 0)
(-0.12767 -0.0756829 0)
(-0.112551 -0.0802813 0)
(-0.0984153 -0.0820009 0)
(-0.0862138 -0.0801447 0)
(-0.0754849 -0.0741331 0)
(-0.0616849 -0.0688127 0)
(-0.0790165 -0.0860033 0)
(-0.304123 0.0568554 0)
(-0.251389 -0.0230796 0)
(-0.0876141 -0.0966416 0)
(0.194135 -0.112898 0)
(0.332977 -0.0574064 0)
(0.409379 -0.0123695 0)
(0.423224 0.00368812 0)
(0.43194 -0.00429094 0)
(0.44803 -0.00574301 0)
(0.458754 -0.00227746 0)
(0.458242 0.00223084 0)
(0.440101 0.00917457 0)
(0.410906 0.00949997 0)
(0.385159 0.00771691 0)
(0.378536 0.0458398 0)
(0.141743 0.11042 0)
(-0.296204 0.0561227 0)
(-0.454536 -0.00636434 0)
(-0.146814 -0.158438 0)
(-0.211023 0.124331 0)
(0.0670091 -0.0524156 0)
(0.200294 -0.123391 0)
(0.278381 -0.120189 0)
(0.336387 -0.0726994 0)
(0.387719 -0.0308039 0)
(0.421193 -0.0108427 0)
(0.440307 -0.011718 0)
(0.452544 -0.00997691 0)
(0.459289 -0.00308674 0)
(0.457633 0.00547711 0)
(0.445046 0.0154848 0)
(0.421926 0.0191895 0)
(0.392277 0.0208081 0)
(0.376538 0.0621008 0)
(0.301914 0.172924 0)
(-0.0386992 0.180981 0)
(-0.272547 0.0205383 0)
(0.0271082 -0.211671 0)
(-0.0352447 0.169275 0)
(0.229991 -0.143459 0)
(0.276436 -0.153114 0)
(0.297991 -0.13301 0)
(0.327673 -0.0845001 0)
(0.366355 -0.0419418 0)
(0.401365 -0.0181396 0)
(0.425385 -0.015413 0)
(0.437908 -0.0124583 0)
(0.44318 -0.00371597 0)
(0.440334 0.00738796 0)
(0.426693 0.0202611 0)
(0.398863 0.0277938 0)
(0.355801 0.0339709 0)
(0.335076 0.0807742 0)
(0.311868 0.205244 0)
(0.146281 0.283504 0)
(-0.178757 0.038457 0)
(0.103219 -0.255386 0)
(0.25017 0.0197716 0)
(0.26864 -0.162778 0)
(0.28715 -0.164227 0)
(0.291693 -0.138808 0)
(0.30607 -0.0917845 0)
(0.336946 -0.051091 0)
(0.369613 -0.0268555 0)
(0.392981 -0.0225022 0)
(0.404773 -0.0161143 0)
(0.409707 -0.00353687 0)
(0.40602 0.0117652 0)
(0.389567 0.0296995 0)
(0.349678 0.0399715 0)
(0.293251 0.0455186 0)
(0.269239 0.0924803 0)
(0.249954 0.233279 0)
(0.177631 0.385157 0)
(-0.123706 0.109074 0)
(0.140396 -0.271126 0)
(0.232434 -0.110393 0)
(0.253041 -0.170481 0)
(0.266575 -0.165669 0)
(0.259377 -0.139252 0)
(0.263135 -0.103081 0)
(0.284334 -0.0681535 0)
(0.307543 -0.0440032 0)
(0.328631 -0.0325827 0)
(0.340384 -0.0208631 0)
(0.343735 -0.00382458 0)
(0.33605 0.0189709 0)
(0.315108 0.0486256 0)
(0.270855 0.0730947 0)
(0.215387 0.0633068 0)
(0.189602 0.105425 0)
(0.150289 0.262126 0)
(0.0389166 0.470984 0)
(-0.0208606 0.0723649 0)
(0.14513 -0.24791 0)
(0.175003 -0.183731 0)
(0.205536 -0.178755 0)
(0.214708 -0.16248 0)
(0.19782 -0.138745 0)
(0.205344 -0.108341 0)
(0.224098 -0.0771101 0)
(0.247813 -0.0526639 0)
(0.269423 -0.0385694 0)
(0.282326 -0.0236154 0)
(0.285964 -0.00279603 0)
(0.277232 0.0248016 0)
(0.254519 0.0603467 0)
(0.215987 0.0930834 0)
(0.133861 0.0905737 0)
(0.105714 0.125577 0)
(0.0260031 0.299903 0)
(-0.064634 0.449949 0)
(0.0517785 0.0511611 0)
(0.130009 -0.213574 0)
(0.106901 -0.245658 0)
(0.126433 -0.189483 0)
(0.130575 -0.162486 0)
(0.131162 -0.139566 0)
(0.144654 -0.113445 0)
(0.16518 -0.0853593 0)
(0.190601 -0.0619609 0)
(0.213796 -0.0455915 0)
(0.228752 -0.0271495 0)
(0.233936 -0.00192946 0)
(0.225931 0.0311685 0)
(0.203817 0.0727531 0)
(0.171191 0.112695 0)
(0.0822245 0.126578 0)
(0.0306784 0.156509 0)
(-0.0890007 0.348784 0)
(-0.0236611 0.344075 0)
(0.0840472 0.0422707 0)
(0.101516 -0.175602 0)
(0.0288087 -0.2792 0)
(0.0358441 -0.197691 0)
(0.0535272 -0.163726 0)
(0.0617482 -0.143605 0)
(0.0795628 -0.120052 0)
(0.10254 -0.0945576 0)
(0.130003 -0.0719511 0)
(0.15534 -0.0534726 0)
(0.17306 -0.0314824 0)
(0.181204 -0.00173197 0)
(0.176555 0.0366605 0)
(0.158638 0.0836881 0)
(0.132193 0.131551 0)
(0.0663821 0.159055 0)
(-0.0264209 0.193731 0)
(-0.0523594 0.340094 0)
(0.0220064 0.298342 0)
(0.0839 0.0482545 0)
(0.0615283 -0.142089 0)
(-0.00870109 0.101868 0)
(-0.0151457 0.12853 0)
(-0.0278259 0.140756 0)
(-0.0407197 0.144298 0)
(-0.0558426 0.138071 0)
(-0.0737587 0.122744 0)
(-0.0949581 0.0989545 0)
(-0.117192 0.0684033 0)
(-0.138051 0.0323678 0)
(-0.154352 0.0017846 0)
(-0.163265 -0.0201889 0)
(-0.166032 -0.0377907 0)
(-0.164688 -0.0507552 0)
(-0.159919 -0.060498 0)
(-0.151317 -0.0710612 0)
(-0.141152 -0.0802752 0)
(-0.130965 -0.0876244 0)
(-0.122582 -0.0920985 0)
(-0.117864 -0.0927205 0)
(-0.119187 -0.0888333 0)
(-0.128279 -0.0800745 0)
(-0.143174 -0.070493 0)
(-0.192044 -0.0939486 0)
(-0.0156325 0.116375 0)
(-0.023832 0.139671 0)
(-0.0346584 0.150337 0)
(-0.0427403 0.152835 0)
(-0.0498076 0.14666 0)
(-0.0570252 0.131772 0)
(-0.065362 0.108851 0)
(-0.0746774 0.0807566 0)
(-0.084144 0.050355 0)
(-0.0930409 0.0204437 0)
(-0.100624 -0.00722205 0)
(-0.10679 -0.0318932 0)
(-0.111951 -0.0515725 0)
(-0.116655 -0.0664692 0)
(-0.123054 -0.0795785 0)
(-0.131988 -0.0883454 0)
(-0.144396 -0.0932343 0)
(-0.160818 -0.0931792 0)
(-0.180656 -0.0864406 0)
(-0.202597 -0.072621 0)
(-0.224238 -0.056527 0)
(-0.241583 -0.0497161 0)
(-0.255162 -0.0698247 0)
(-0.0182767 0.137276 0)
(-0.0286778 0.153272 0)
(-0.0402591 0.159751 0)
(-0.0475371 0.159315 0)
(-0.051785 0.15128 0)
(-0.053831 0.135416 0)
(-0.0546919 0.112404 0)
(-0.0551053 0.0843844 0)
(-0.0555462 0.0541213 0)
(-0.0564981 0.0245142 0)
(-0.0583447 -0.00195829 0)
(-0.0617959 -0.0239974 0)
(-0.067688 -0.0404721 0)
(-0.0775076 -0.0513576 0)
(-0.0941389 -0.057623 0)
(-0.120633 -0.0587832 0)
(-0.158159 -0.0564296 0)
(-0.203928 -0.0525078 0)
(-0.252018 -0.0469358 0)
(-0.297211 -0.0398548 0)
(-0.336574 -0.0357627 0)
(-0.367391 -0.0405427 0)
(-0.397 -0.043215 0)
(-0.0159093 0.157645 0)
(-0.0270811 0.16837 0)
(-0.0400387 0.169976 0)
(-0.0477491 0.165135 0)
(-0.05114 0.153302 0)
(-0.0505949 0.134502 0)
(-0.0470877 0.109557 0)
(-0.0418028 0.0805342 0)
(-0.0360514 0.0503477 0)
(-0.0311263 0.0218788 0)
(-0.028135 -0.00218945 0)
(-0.0284452 -0.0205045 0)
(-0.0338608 -0.031707 0)
(-0.0477093 -0.0345507 0)
(-0.075189 -0.0280123 0)
(-0.122516 -0.013243 0)
(-0.192312 0.00194966 0)
(-0.278106 0.0107288 0)
(-0.364534 0.0131957 0)
(-0.441821 0.0145737 0)
(-0.502994 0.0268272 0)
(-0.555634 0.0467195 0)
(-0.639052 0.011474 0)
(-0.0107668 0.171664 0)
(-0.0188499 0.180177 0)
(-0.0334378 0.177476 0)
(-0.0418859 0.167959 0)
(-0.0446522 0.1519 0)
(-0.0419254 0.129942 0)
(-0.035035 0.103115 0)
(-0.0258527 0.0735668 0)
(-0.0165596 0.04415 0)
(-0.00914924 0.0172061 0)
(-0.00458512 -0.00488718 0)
(-0.00393826 -0.0204613 0)
(-0.0106533 -0.0272378 0)
(-0.0302122 -0.0210212 0)
(-0.0713545 0.00194861 0)
(-0.148968 0.0381945 0)
(-0.272588 0.0690539 0)
(-0.432014 0.0907872 0)
(-0.57947 0.108744 0)
(-0.700472 0.120162 0)
(-0.803647 0.100656 0)
(-0.872631 0.079362 0)
(-0.8786 0.0416518 0)
(-0.00745447 0.178318 0)
(-0.00611744 0.188473 0)
(-0.0205541 0.184564 0)
(-0.0284373 0.171787 0)
(-0.0292316 0.152228 0)
(-0.0234435 0.127257 0)
(-0.013151 0.0983079 0)
(-0.00103873 0.0679579 0)
(0.0100169 0.0394755 0)
(0.0166845 0.0147233 0)
(0.0169174 -0.00491672 0)
(0.0121684 -0.0176018 0)
(-0.00704446 -0.0233918 0)
(-0.0490124 -0.00952148 0)
(-0.110769 0.0252803 0)
(-0.204292 0.0729788 0)
(-0.39545 0.100884 0)
(-0.730118 0.158114 0)
(-1.03714 0.217445 0)
(-1.06789 0.177767 0)
(-1.07319 0.14441 0)
(-1.05225 0.0952444 0)
(-1.01527 0.0208929 0)
(-0.0244936 0.176144 0)
(0.00538034 0.192748 0)
(-0.00693623 0.186309 0)
(-0.0108899 0.173015 0)
(-0.00662464 0.151928 0)
(0.00353316 0.125274 0)
(0.0159689 0.0940794 0)
(0.0266305 0.061432 0)
(0.0316501 0.0317224 0)
(0.0281033 0.0101577 0)
(0.0126429 -0.00451406 0)
(-0.0241244 0.00272067 0)
(-0.101109 0.0792398 0)
(-0.195433 0.161848 0)
(-0.349119 0.291605 0)
(-0.577078 0.504379 0)
(-0.890108 0.887659 0)
(-1.27718 0.83785 0)
(-1.20125 0.31284 0)
(-1.15905 0.188376 0)
(-1.14672 0.120099 0)
(-1.12044 0.0550119 0)
(-1.08217 -0.024674 0)
(-0.0668075 0.218636 0)
(-0.020997 0.205575 0)
(-0.0374693 0.233835 0)
(-0.0361826 0.189077 0)
(-0.0381785 0.13791 0)
(-0.0385854 0.0903955 0)
(-0.0387063 0.0523518 0)
(-0.0417444 0.0275599 0)
(-0.0508452 0.0188409 0)
(-0.0684203 0.0268831 0)
(-0.0975678 0.0483598 0)
(-0.143184 0.0865327 0)
(-0.207013 0.144383 0)
(-0.294693 0.237755 0)
(-0.420777 0.398107 0)
(-0.57511 0.639283 0)
(-0.684019 0.934611 0)
(-0.839217 0.985398 0)
(-1.06864 0.349229 0)
(-1.08436 0.174128 0)
(-1.10981 0.0901604 0)
(-1.10346 0.0196259 0)
(-1.08136 -0.0607621 0)
(-0.016364 0.243274 0)
(-0.0162059 0.193169 0)
(-0.0277671 0.206073 0)
(-0.0260282 0.182621 0)
(-0.0301076 0.146808 0)
(-0.0368132 0.111809 0)
(-0.0474951 0.0827997 0)
(-0.0632102 0.0627303 0)
(-0.0843405 0.0538607 0)
(-0.111337 0.0588549 0)
(-0.146163 0.0818968 0)
(-0.191826 0.130713 0)
(-0.249417 0.211966 0)
(-0.321735 0.332993 0)
(-0.407349 0.504897 0)
(-0.486385 0.721257 0)
(-0.523521 0.929639 0)
(-0.538192 0.935635 0)
(-0.680562 0.605191 0)
(-0.834501 0.138879 0)
(-1.05202 0.0672787 0)
(-1.04241 0.0096775 0)
(-1.02904 -0.0849932 0)
(0.00399486 0.243628 0)
(-0.00324609 0.205327 0)
(-0.0103112 0.204789 0)
(-0.00798511 0.183091 0)
(-0.0127428 0.153857 0)
(-0.0232403 0.124809 0)
(-0.0397701 0.100862 0)
(-0.0618592 0.0855968 0)
(-0.0888725 0.0817473 0)
(-0.120587 0.0923167 0)
(-0.157593 0.122245 0)
(-0.200544 0.179279 0)
(-0.249225 0.270826 0)
(-0.302046 0.400725 0)
(-0.352233 0.570252 0)
(-0.384794 0.763373 0)
(-0.38021 0.92708 0)
(-0.355364 0.948349 0)
(-0.404769 0.743475 0)
(-0.542534 0.528232 0)
(-0.740245 0.318383 0)
(-0.874946 -0.0141156 0)
(-0.924419 -0.104362 0)
(0.0108024 0.239302 0)
(0.00771477 0.212494 0)
(0.00664807 0.204184 0)
(0.0083486 0.184743 0)
(0.00312113 0.161394 0)
(-0.00878459 0.138668 0)
(-0.0271664 0.120686 0)
(-0.0510271 0.110858 0)
(-0.0794413 0.111967 0)
(-0.111862 0.127334 0)
(-0.147939 0.162021 0)
(-0.186711 0.222739 0)
(-0.225941 0.315209 0)
(-0.261701 0.441412 0)
(-0.28691 0.597121 0)
(-0.291594 0.764341 0)
(-0.267534 0.900844 0)
(-0.226566 0.932318 0)
(-0.231386 0.810462 0)
(-0.314201 0.613948 0)
(-0.424883 0.440529 0)
(-0.556403 0.244659 0)
(-0.697618 0.0514528 0)
(0.0127216 0.225969 0)
(0.015387 0.211909 0)
(0.0181026 0.202689 0)
(0.0191872 0.187478 0)
(0.0141744 0.170234 0)
(0.0027561 0.15401 0)
(-0.0148756 0.141945 0)
(-0.0377024 0.137144 0)
(-0.0646874 0.142416 0)
(-0.0950154 0.161111 0)
(-0.127664 0.197937 0)
(-0.160694 0.258515 0)
(-0.190835 0.347079 0)
(-0.213501 0.463786 0)
(-0.222708 0.602319 0)
(-0.212279 0.745777 0)
(-0.179815 0.861794 0)
(-0.136276 0.901479 0)
(-0.120061 0.828282 0)
(-0.156382 0.684193 0)
(-0.231375 0.514767 0)
(-0.333715 0.321188 0)
(-0.447238 0.16199 0)
(0.0115677 0.212219 0)
(0.0178023 0.206688 0)
(0.0228281 0.19954 0)
(0.0243415 0.189269 0)
(0.0204123 0.178012 0)
(0.0107017 0.167893 0)
(-0.00457818 0.161382 0)
(-0.0246454 0.161168 0)
(-0.0483697 0.169998 0)
(-0.0747284 0.191031 0)
(-0.10229 0.228373 0)
(-0.128677 0.286578 0)
(-0.150348 0.368711 0)
(-0.162928 0.473974 0)
(-0.161716 0.595759 0)
(-0.14297 0.719517 0)
(-0.106901 0.820739 0)
(-0.0625305 0.866235 0)
(-0.0360704 0.828264 0)
(-0.0465566 0.72148 0)
(-0.0893058 0.579265 0)
(-0.16002 0.418414 0)
(-0.249659 0.259986 0)
(0.00942887 0.198856 0)
(0.0170044 0.199186 0)
(0.0230052 0.195466 0)
(0.0252873 0.189908 0)
(0.022916 0.183956 0)
(0.0155835 0.179181 0)
(0.00347986 0.177557 0)
(-0.0128002 0.181377 0)
(-0.0321691 0.193143 0)
(-0.0534605 0.215686 0)
(-0.0750634 0.252448 0)
(-0.0945115 0.307041 0)
(-0.108409 0.381706 0)
(-0.112874 0.475322 0)
(-0.104277 0.58187 0)
(-0.080382 0.689324 0)
(-0.0422098 0.778999 0)
(0.00305969 0.827202 0)
(0.0388185 0.813238 0)
(0.0469505 0.738574 0)
(0.0277929 0.624216 0)
(-0.0163245 0.485574 0)
(-0.0799832 0.34314 0)
(0.00727805 0.187486 0)
(0.0147659 0.191426 0)
(0.0208626 0.190943 0)
(0.0238327 0.189359 0)
(0.0230873 0.187793 0)
(0.0183301 0.187459 0)
(0.00967588 0.189926 0)
(-0.00237487 0.197095 0)
(-0.0169131 0.21114 0)
(-0.0326902 0.234465 0)
(-0.0480846 0.26989 0)
(-0.0607435 0.320253 0)
(-0.0675937 0.387237 0)
(-0.0653073 0.469752 0)
(-0.0510533 0.562666 0)
(-0.0234375 0.656216 0)
(0.0164585 0.736032 0)
(0.0633313 0.784013 0)
(0.105356 0.784554 0)
(0.129588 0.734688 0)
(0.130095 0.64511 0)
(0.107728 0.530366 0)
(0.0661755 0.404448 0)
(0.00541301 0.178328 0)
(0.0121452 0.184243 0)
(0.017903 0.186255 0)
(0.0213719 0.187723 0)
(0.0220938 0.189555 0)
(0.0197879 0.192701 0)
(0.0145006 0.198397 0)
(0.00663274 0.208164 0)
(-0.00304748 0.223803 0)
(-0.0133652 0.247296 0)
(-0.0227586 0.280874 0)
(-0.0290961 0.326767 0)
(-0.0296958 0.38627 0)
(-0.0217482 0.458492 0)
(-0.00299201 0.539283 0)
(0.0277392 0.620963 0)
(0.0692767 0.691506 0)
(0.117425 0.737364 0)
(0.163997 0.746489 0)
(0.198907 0.714659 0)
(0.215565 0.646677 0)
(0.212152 0.552863 0)
(0.190318 0.443376 0)
(0.00390449 0.171153 0)
(0.00968995 0.177925 0)
(0.0149506 0.181597 0)
(0.0187454 0.185196 0)
(0.0206912 0.189461 0)
(0.0205417 0.195137 0)
(0.0183087 0.203184 0)
(0.0142955 0.214792 0)
(0.00915574 0.231356 0)
(0.00390726 0.25446 0)
(-1.89987e-05 0.28589 0)
(-0.000738261 0.327301 0)
(0.0040309 0.379781 0)
(0.0167121 0.442733 0)
(0.0391987 0.512731 0)
(0.0723645 0.583374 0)
(0.115309 0.645434 0)
(0.164644 0.688243 0)
(0.214219 0.702331 0)
(0.256421 0.683028 0)
(0.285028 0.63235 0)
(0.296964 0.556655 0)
(0.29215 0.46395 0)
(0.00273753 0.165638 0)
(0.00761955 0.172489 0)
(0.0123748 0.177074 0)
(0.0163667 0.181985 0)
(0.0192819 0.187815 0)
(0.0209249 0.195141 0)
(0.0213054 0.204703 0)
(0.0206607 0.217413 0)
(0.0195212 0.234326 0)
(0.0187525 0.25664 0)
(0.0195961 0.2857 0)
(0.0236695 0.322782 0)
(0.0329199 0.368725 0)
(0.0494172 0.423076 0)
(0.0748247 0.483234 0)
(0.109863 0.544099 0)
(0.153773 0.598328 0)
(0.203848 0.637486 0)
(0.255353 0.653984 0)
(0.302325 0.643471 0)
(0.339366 0.606123 0)
(0.362996 0.545955 0)
(0.371945 0.468907 0)
(0.00186609 0.161434 0)
(0.00598498 0.167833 0)
(0.0102858 0.172724 0)
(0.0143819 0.178272 0)
(0.0180297 0.184931 0)
(0.0210918 0.193143 0)
(0.0235964 0.203474 0)
(0.0257465 0.216609 0)
(0.0279723 0.233327 0)
(0.0309849 0.254495 0)
(0.0358185 0.281074 0)
(0.0438366 0.314002 0)
(0.0566896 0.353907 0)
(0.0761375 0.400477 0)
(0.103635 0.451753 0)
(0.139827 0.503757 0)
(0.184103 0.550691 0)
(0.234292 0.585859 0)
(0.286665 0.603119 0)
(0.336484 0.598542 0)
(0.379138 0.571443 0)
(0.411158 0.524149 0)
(0.430772 0.461016 0)
(0.00123756 0.158211 0)
(0.00474497 0.163815 0)
(0.00866069 0.168555 0)
(0.0127909 0.17421 0)
(0.0169604 0.181108 0)
(0.0210896 0.189578 0)
(0.0252337 0.200046 0)
(0.0295841 0.213025 0)
(0.0345007 0.229076 0)
(0.0405587 0.248801 0)
(0.0485951 0.272844 0)
(0.0597293 0.301847 0)
(0.0753333 0.336241 0)
(0.096887 0.375798 0)
(0.125651 0.419075 0)
(0.162229 0.463039 0)
(0.206172 0.50318 0)
(0.255749 0.534197 0)
(0.307981 0.551104 0)
(0.359044 0.550442 0)
(0.405032 0.531084 0)
(0.442725 0.494277 0)
(0.470225 0.443113 0)
(0.000802546 0.155698 0)
(0.0038287 0.160308 0)
(0.0074203 0.164566 0)
(0.0115264 0.16993 0)
(0.016033 0.176616 0)
(0.0209118 0.184852 0)
(0.0262459 0.194953 0)
(0.0322267 0.207301 0)
(0.0391699 0.222296 0)
(0.047545 0.240338 0)
(0.0580173 0.261828 0)
(0.0714791 0.28715 0)
(0.0890393 0.316556 0)
(0.111916 0.349852 0)
(0.141185 0.385981 0)
(0.177414 0.422689 0)
(0.220313 0.456535 0)
(0.26853 0.483368 0)
(0.319682 0.499158 0)
(0.370654 0.500909 0)
(0.418155 0.487311 0)
(0.459306 0.458892 0)
(0.492295 0.417753 0)
(0.000507258 0.153695 0)
(0.00315602 0.157205 0)
(0.00646906 0.160756 0)
(0.0104997 0.165548 0)
(0.0151837 0.171692 0)
(0.0205347 0.179329 0)
(0.0266591 0.188686 0)
(0.0337521 0.20004 0)
(0.0421023 0.213676 0)
(0.0521043 0.229852 0)
(0.0642865 0.248789 0)
(0.0793432 0.270675 0)
(0.0981414 0.295598 0)
(0.121653 0.323361 0)
(0.150769 0.35318 0)
(0.186013 0.383408 0)
(0.227232 0.411477 0)
(0.273406 0.434195 0)
(0.322646 0.448343 0)
(0.372425 0.451374 0)
(0.419981 0.44194 0)
(0.462804 0.420094 0)
(0.499255 0.387176 0)
(0.000309316 0.152064 0)
(0.00266252 0.154423 0)
(0.00571979 0.157131 0)
(0.00962741 0.161164 0)
(0.0143514 0.16654 0)
(0.0199378 0.173328 0)
(0.0265091 0.181677 0)
(0.0342623 0.191783 0)
(0.0434673 0.203846 0)
(0.0544678 0.21803 0)
(0.0676915 0.234438 0)
(0.0836737 0.253116 0)
(0.103072 0.274025 0)
(0.126632 0.296941 0)
(0.155062 0.321256 0)
(0.188821 0.345773 0)
(0.227858 0.368614 0)
(0.271433 0.387377 0)
(0.318086 0.399543 0)
(0.365787 0.402991 0)
(0.412246 0.396429 0)
(0.455307 0.379608 0)
(0.493535 0.353293 0)
(0.00017753 0.150709 0)
(0.00228966 0.151908 0)
(0.00510311 0.153702 0)
(0.00884299 0.156866 0)
(0.0134906 0.161334 0)
(0.0191145 0.167115 0)
(0.0258464 0.174293 0)
(0.0338798 0.182997 0)
(0.043468 0.193363 0)
(0.0549182 0.205492 0)
(0.0685883 0.219418 0)
(0.0848957 0.235098 0)
(0.104331 0.252408 0)
(0.127443 0.271092 0)
(0.15477 0.290652 0)
(0.186682 0.310206 0)
(0.223191 0.328393 0)
(0.263782 0.343448 0)
(0.307353 0.353445 0)
(0.352309 0.356663 0)
(0.396779 0.351932 0)
(0.438944 0.338829 0)
(0.477567 0.317704 0)
(9.11943e-05 0.149561 0)
(0.00199746 0.149627 0)
(0.00456989 0.150487 0)
(0.00810049 0.152729 0)
(0.0125746 0.156219 0)
(0.0180753 0.160912 0)
(0.024736 0.166838 0)
(0.0327416 0.174071 0)
(0.042327 0.182697 0)
(0.0537692 0.192772 0)
(0.0673769 0.204292 0)
(0.0834863 0.217172 0)
(0.102465 0.231241 0)
(0.124708 0.246226 0)
(0.150599 0.261698 0)
(0.180418 0.276982 0)
(0.214195 0.291094 0)
(0.251577 0.302755 0)
(0.291758 0.310527 0)
(0.333509 0.313059 0)
(0.375335 0.309338 0)
(0.415729 0.298869 0)
(0.453642 0.281724 0)
(3.26927e-05 0.148576 0)
(0.00175465 0.147564 0)
(0.00408813 0.147504 0)
(0.00737312 0.148818 0)
(0.0115956 0.15131 0)
(0.0168461 0.154893 0)
(0.0232541 0.159552 0)
(0.0309915 0.165315 0)
(0.0402718 0.172224 0)
(0.0513433 0.180307 0)
(0.0644764 0.189536 0)
(0.0799517 0.199812 0)
(0.0980537 0.210955 0)
(0.119066 0.22269 0)
(0.143254 0.234639 0)
(0.170805 0.246269 0)
(0.201744 0.256856 0)
(0.235826 0.265474 0)
(0.272466 0.271075 0)
(0.310739 0.272627 0)
(0.349474 0.269296 0)
(0.387449 0.260587 0)
(0.423792 0.246406 0)
(-9.8027e-07 0.147721 0)
(0.00154779 0.14571 0)
(0.00364018 0.144772 0)
(0.00664983 0.145183 0)
(0.0105604 0.146698 0)
(0.0154643 0.149194 0)
(0.0214833 0.152619 0)
(0.0287732 0.156964 0)
(0.0375234 0.162237 0)
(0.0479527 0.168437 0)
(0.060298 0.175527 0)
(0.0747992 0.183408 0)
(0.0916863 0.191908 0)
(0.11117 0.200774 0)
(0.13343 0.209674 0)
(0.158585 0.218175 0)
(0.186638 0.225728 0)
(0.217407 0.231663 0)
(0.250469 0.235221 0)
(0.285135 0.235635 0)
(0.320506 0.232249 0)
(0.35561 0.224619 0)
(0.389739 0.212566 0)
(-1.60252e-05 0.146973 0)
(0.00136603 0.14406 0)
(0.00321866 0.142305 0)
(0.00593102 0.141864 0)
(0.00948617 0.142451 0)
(0.0139744 0.143913 0)
(0.0195075 0.146173 0)
(0.0262233 0.149189 0)
(0.0342861 0.152943 0)
(0.0438847 0.15741 0)
(0.0552234 0.162544 0)
(0.0685081 0.168252 0)
(0.0839315 0.174382 0)
(0.101659 0.180714 0)
(0.121817 0.186962 0)
(0.144476 0.192771 0)
(0.169621 0.197718 0)
(0.197107 0.201307 0)
(0.226619 0.202991 0)
(0.257648 0.202213 0)
(0.28951 0.198475 0)
(0.32145 0.191412 0)
(0.352902 0.180822 0)
(-1.15409e-05 0.146315 0)
(0.00120745 0.142609 0)
(0.00282227 0.140111 0)
(0.00522388 0.138887 0)
(0.0083953 0.138614 0)
(0.0124226 0.13912 0)
(0.0174064 0.140305 0)
(0.0234662 0.142106 0)
(0.0307416 0.144481 0)
(0.0393914 0.147387 0)
(0.049588 0.150771 0)
(0.0615059 0.154544 0)
(0.0753082 0.158576 0)
(0.091131 0.16268 0)
(0.109071 0.16662 0)
(0.129171 0.170108 0)
(0.151406 0.172812 0)
(0.175656 0.174361 0)
(0.201681 0.174358 0)
(0.2291 0.172403 0)
(0.2574 0.168133 0)
(0.285999 0.161266 0)
(0.314458 0.15162 0)
(7.22995e-06 0.145729 0)
(0.00106734 0.141348 0)
(0.00245287 0.138195 0)
(0.00453846 0.136266 0)
(0.00731133 0.135215 0)
(0.0108527 0.134855 0)
(0.0152516 0.13507 0)
(0.0206101 0.135783 0)
(0.0270442 0.136932 0)
(0.0346847 0.138462 0)
(0.0436727 0.14031 0)
(0.054153 0.142394 0)
(0.0662615 0.144597 0)
(0.0801125 0.146769 0)
(0.0957848 0.148714 0)
(0.11331 0.150204 0)
(0.132661 0.15098 0)
(0.15374 0.150762 0)
(0.176361 0.149259 0)
(0.200235 0.146189 0)
(0.224978 0.141294 0)
(0.250148 0.134371 0)
(0.275411 0.125275 0)
(4.17853e-05 0.145196 0)
(0.000947554 0.14027 0)
(0.00211292 0.136556 0)
(0.00388373 0.134009 0)
(0.00625474 0.132268 0)
(0.00930199 0.131138 0)
(0.0131034 0.130495 0)
(0.0177445 0.13025 0)
(0.02332 0.13033 0)
(0.0299347 0.130669 0)
(0.0377015 0.131198 0)
(0.0467362 0.131834 0)
(0.0571496 0.132477 0)
(0.0690358 0.132998 0)
(0.0824609 0.133244 0)
(0.0974518 0.133032 0)
(0.113987 0.132163 0)
(0.131988 0.130426 0)
(0.15131 0.127611 0)
(0.171736 0.123517 0)
(0.192975 0.117969 0)
(0.214696 0.110831 0)
(0.236651 0.101999 0)
(8.65874e-05 0.1447 0)
(0.000844164 0.139366 0)
(0.00180166 0.135188 0)
(0.00326395 0.13211 0)
(0.00523961 0.12977 0)
(0.00779852 0.127971 0)
(0.0110079 0.126583 0)
(0.0149383 0.125511 0)
(0.0196653 0.124675 0)
(0.0252711 0.124002 0)
(0.031843 0.123418 0)
(0.0394708 0.122841 0)
(0.0482411 0.122178 0)
(0.058229 0.121322 0)
(0.0694885 0.120146 0)
(0.0820434 0.11851 0)
(0.0958784 0.116259 0)
(0.110934 0.113239 0)
(0.127099 0.109296 0)
(0.144209 0.104293 0)
(0.162046 0.0981149 0)
(0.180362 0.090677 0)
(0.198977 0.0819167 0)
(0.000141711 0.144229 0)
(0.000751074 0.138629 0)
(0.00151082 0.134081 0)
(0.00267623 0.13056 0)
(0.00427099 0.127711 0)
(0.00635855 0.12534 0)
(0.00899582 0.123317 0)
(0.0122394 0.121546 0)
(0.0161484 0.119941 0)
(0.0207851 0.118425 0)
(0.0262153 0.116921 0)
(0.032506 0.115348 0)
(0.039722 0.113618 0)
(0.0479201 0.111638 0)
(0.0571422 0.109303 0)
(0.0674078 0.106502 0)
(0.0787068 0.103119 0)
(0.0909944 0.0990402 0)
(0.104187 0.0941573 0)
(0.11816 0.0883779 0)
(0.13275 0.0816311 0)
(0.147773 0.0738714 0)
(0.163097 0.0650682 0)
(0.000198351 0.143779 0)
(0.000651585 0.13805 0)
(0.00122349 0.133224 0)
(0.00210756 0.129343 0)
(0.00334261 0.12607 0)
(0.00498502 0.123221 0)
(0.00708107 0.12067 0)
(0.00967462 0.11832 0)
(0.01281 0.116083 0)
(0.0165332 0.113881 0)
(0.0208919 0.111634 0)
(0.025934 0.109261 0)
(0.0317058 0.106682 0)
(0.0382481 0.103809 0)
(0.045591 0.100555 0)
(0.0537486 0.0968313 0)
(0.0627134 0.0925487 0)
(0.0724519 0.0876248 0)
(0.082901 0.0819865 0)
(0.0939663 0.0755751 0)
(0.105525 0.0683514 0)
(0.117438 0.0602971 0)
(0.129609 0.0514045 0)
(0.000242592 0.143361 0)
(0.000524805 0.137629 0)
(0.000913655 0.132606 0)
(0.00153385 0.128437 0)
(0.00243618 0.12482 0)
(0.00366702 0.121582 0)
(0.0052611 0.118603 0)
(0.00725019 0.115786 0)
(0.00966594 0.113045 0)
(0.0125407 0.110299 0)
(0.0159076 0.107469 0)
(0.0197996 0.104475 0)
(0.0242483 0.101238 0)
(0.0292811 0.0976788 0)
(0.0349183 0.0937205 0)
(0.0411689 0.0892896 0)
(0.0480265 0.0843183 0)
(0.0554656 0.0787475 0)
(0.0634384 0.07253 0)
(0.071873 0.065633 0)
(0.080676 0.0580407 0)
(0.0897397 0.0497534 0)
(0.098991 0.0407769 0)
(0.000251277 0.143006 0)
(0.000335292 0.137377 0)
(0.000543808 0.132215 0)
(0.000920611 0.127819 0)
(0.00152266 0.123926 0)
(0.00238132 0.120381 0)
(0.00351854 0.117068 0)
(0.00495467 0.113891 0)
(0.00671051 0.110764 0)
(0.00880752 0.107605 0)
(0.0112676 0.104335 0)
(0.0141125 0.100876 0)
(0.017363 0.0971492 0)
(0.021037 0.0930821 0)
(0.0251479 0.0886046 0)
(0.0297013 0.0836541 0)
(0.0346923 0.0781774 0)
(0.0401022 0.0721331 0)
(0.0458957 0.0654936 0)
(0.0520184 0.0582465 0)
(0.0583982 0.0503947 0)
(0.064949 0.0419518 0)
(0.0716098 0.0329302 0)
(0.000184235 0.142784 0)
(4.14272e-05 0.137313 0)
(7.00783e-05 0.132038 0)
(0.00022853 0.127457 0)
(0.000567184 0.123351 0)
(0.00109694 0.119575 0)
(0.001826 0.116015 0)
(0.00276428 0.112576 0)
(0.00392366 0.109171 0)
(0.0053172 0.105718 0)
(0.00695869 0.102135 0)
(0.00886221 0.0983469 0)
(0.0110415 0.0942764 0)
(0.0135091 0.0898525 0)
(0.016275 0.0850105 0)
(0.0193447 0.0796952 0)
(0.0227167 0.0738633 0)
(0.0263806 0.0674863 0)
(0.0303133 0.0605519 0)
(0.0344766 0.0530649 0)
(0.038816 0.0450446 0)
(0.0432606 0.0365173 0)
(0.047755 0.0274988 0)
(-2.39685e-05 0.142796 0)
(-0.000405116 0.13746 0)
(-0.000548848 0.132059 0)
(-0.000575689 0.127319 0)
(-0.000461302 0.123052 0)
(-0.000215507 0.119115 0)
(0.00015595 0.115391 0)
(0.000654064 0.111781 0)
(0.00128375 0.108197 0)
(0.00205206 0.104553 0)
(0.00296747 0.100771 0)
(0.00403958 0.0967705 0)
(0.00527884 0.0924771 0)
(0.00669617 0.0878204 0)
(0.00830213 0.0827379 0)
(0.0101057 0.0771782 0)
(0.0121127 0.0711045 0)
(0.0143234 0.0644968 0)
(0.0167301 0.057355 0)
(0.0193125 0.0496988 0)
(0.0220353 0.0415649 0)
(0.024843 0.0329954 0)
(0.0276809 0.0240129 0)
(-0.000446367 0.14319 0)
(-0.0010218 0.137834 0)
(-0.00133209 0.132252 0)
(-0.00150873 0.127364 0)
(-0.00157628 0.122983 0)
(-0.00156834 0.11895 0)
(-0.00150218 0.115136 0)
(-0.00138318 0.111437 0)
(-0.00121118 0.107759 0)
(-0.000982909 0.104018 0)
(-0.000692753 0.10013 0)
(-0.000332745 0.0960153 0)
(0.000107483 0.0915975 0)
(0.00064065 0.0868049 0)
(0.00128148 0.0815749 0)
(0.00204606 0.0758571 0)
(0.00295084 0.0696169 0)
(0.004011 0.0628396 0)
(0.00523786 0.0555333 0)
(0.00663484 0.0477309 0)
(0.00819162 0.0394878 0)
(0.00987426 0.0308691 0)
(0.0116339 0.0219148 0)
(-0.00113667 0.144147 0)
(-0.00180594 0.138412 0)
(-0.00226101 0.132567 0)
(-0.00254457 0.127544 0)
(-0.00274999 0.123097 0)
(-0.0029321 0.119028 0)
(-0.00311487 0.115192 0)
(-0.00330686 0.111475 0)
(-0.00351043 0.107779 0)
(-0.00372416 0.104016 0)
(-0.00394313 0.100099 0)