/*--------------------------------*- C++ -*----------------------------------*\
  =========                 |
  \\      /  F ield         | OpenFOAM: The Open Source CFD Toolbox
   \\    /   O peration     | Website:  https://openfoam.org
    \\  /    A nd           | Version:  13
     \\/     M anipulation  |
\*---------------------------------------------------------------------------*/
FoamFile
{
    format      ascii;
    class       volScalarField;
    location    "2.85";
    object      alpha.water;
}
// * * * * * * * * * * * * * * * * * * * * * * * * * * * * * * * * * * * * * //

dimensions      [];

internalField   nonuniform List<scalar> 
2268
(
1.07469e-10
1.34333e-10
1.52178e-10
1.57637e-10
1.65461e-10
1.72712e-10
1.80186e-10
1.86921e-10
1.92623e-10
1.98347e-10
2.05438e-10
2.16914e-10
2.3893e-10
2.78029e-10
3.32906e-10
3.9641e-10
5.08187e-10
7.02768e-10
1.42847e-09
2.33973e-09
2.76897e-09
2.76841e-09
2.7659e-09
2.11719e-10
2.77859e-10
2.82482e-10
2.69854e-10
2.87295e-10
3.11163e-10
3.48408e-10
3.93977e-10
4.39623e-10
4.79619e-10
5.15739e-10
5.4073e-10
5.58179e-10
5.75464e-10
5.98807e-10
6.49765e-10
7.38841e-10
8.80632e-10
1.19533e-09
1.97338e-09
2.49153e-09
2.52398e-09
1.88972e-09
2.82699e-10
1.06808e-09
1.73795e-09
1.5561e-09
1.16729e-09
7.52811e-10
3.95344e-10
4.7708e-10
5.87574e-10
7.04633e-10
8.16846e-10
9.26196e-10
9.87498e-10
1.00017e-09
9.41804e-10
9.00569e-10
9.13633e-10
1.05845e-09
1.35845e-09
1.6732e-09
1.89646e-09
1.89216e-09
9.67884e-10
9.51323e-11
1.14422e-10
7.20798e-11
1.08796e-10
1.05156e-10
2.38821e-09
3.48979e-09
3.13464e-10
3.69613e-10
4.70921e-10
5.83472e-10
7.7437e-10
9.72054e-10
1.0281e-09
9.77375e-10
8.31045e-10
7.92034e-10
8.38093e-10
9.23898e-10
1.04968e-09
1.04741e-09
7.17998e-10
5.2215e-10
1.34404e-08
1.6423e-07
1.7116e-07
1.5851e-07
1.0412e-07
8.29575e-09
4.65758e-09
2.9902e-09
1.97135e-10
3.49476e-10
3.41031e-10
1.12832e-08
5.59311e-10
4.06262e-10
3.68421e-10
3.08782e-10
2.74406e-10
2.29538e-10
2.14598e-10
2.06837e-10
1.23856e-10
9.02969e-11
9.71384e-11
0.108934
0.125784
0.131023
0.122119
0.10535
0.0808203
0.0519292
0.0257187
0.00496342
1.88071e-07
1.27226e-07
0.000298216
8.84848e-11
1.19054e-10
7.3415e-11
1.02894e-10
6.54496e-11
9.39025e-11
6.52507e-11
1.00505e-10
7.15705e-11
0.00142006
0.00363372
0.833538
0.854024
0.859212
0.849081
0.830015
0.803603
0.768842
0.722268
0.665075
0.595634
0.524991
0.458953
0.403001
0.363376
0.342613
0.338186
0.344628
0.359997
0.380546
0.408835
0.449403
0.501223
0.535321
1
1
1
1
0.999999
0.999998
0.999999
1
1
1
0.998871
0.997754
0.998127
0.997925
0.996279
0.993982
0.993359
0.993922
0.99709
0.999985
0.999823
0.998085
0.995898
0.0089863
0.0425942
0.0473596
0.0364854
0.00998392
0.00136819
0.0014026
0.000896704
0.000858418
0.000896704
0.011318
0.0506513
0.124402
0.124403
0.124408
0.122794
0.0404855
0.0027008
0.0113806
0.00832819
0.010855
0.0280292
0.0882309
0.105169
0.0848563
0.0570446
0.0838274
0.0542866
0.0079577
0.00101473
0.0217093
0.0480602
0.0555223
0.066236
0.0246729
0.00214159
0.00270704
0.011394
0.00746444
0.00747
0.00734724
0.108928
0.402493
0.478121
0.521744
0.540617
0.431811
0.0787624
0.000719047
0.000713868
0.000618826
0.000619436
0.000622622
0.00062311
0.00062628
0.000625368
0.000630087
0.0172007
0.112228
0.27583
0.449311
0.463165
0.5166
0.700629
0.799977
0.814864
0.576708
0.169494
0.00491894
0.000623367
0.00120426
0.0217232
0.0835678
0.208091
0.261677
0.0677151
0.419362
0.701973
0.796954
0.851057
0.557711
0.23062
0.220051
0.216675
0.625869
0.980148
0.756727
0.300967
0.0135201
0.0702648
0.509674
0.786841
0.843522
0.963155
0.495826
0.828332
0.912422
0.913261
0.905725
0.449081
0.176505
0.131998
0.130227
0.529231
0.978045
0.99874
0.819695
0.199982
0.482115
0.950091
0.99983
0.999833
0.99983
0.634975
0.912465
0.912542
0.914058
0.928884
0.469794
0.12123
0.120365
0.57087
0.942295
0.991741
0.999483
0.999483
0.281783
0.565497
0.999758
0.999812
0.999823
0.999125
0.792487
0.898453
0.892161
0.899975
0.940242
0.726049
0.151855
0.248728
0.881572
0.99942
0.999424
0.999483
0.953245
0.266213
0.596782
0.98878
0.999813
0.999074
0.999065
0.811211
1
1
1
0.99999
0.999958
0.999998
1
1
1
1
1
1
1
1
1
1
1
1
1
0.999899
0.999783
0.99912
0.996511
1
1
0.998771
0.999437
0.999975
1
1
1
1
1
1
1
1
1
1
1
0.999999
0.999999
0.999995
0.997587
0.990758
0.979084
0.949865
0.943948
0.974984
0.998543
0.999749
0.999984
1
1
1
1
1
0.999933
0.999682
0.997748
0.991949
0.980965
0.966231
0.951376
0.929071
0.854616
0.750113
0.6465
0.507681
0.404386
0.808464
0.678186
0.602184
0.604341
0.649926
0.763026
0.84785
0.848952
0.849292
0.847053
0.833414
0.80461
0.747175
0.673543
0.606699
0.544825
0.442691
0.276648
0.128454
0.0431734
8.38218e-17
2.85509e-13
3.78245e-24
0.132783
0.0378497
0.0124844
0.0129404
0.0181392
0.0586604
0.131694
0.150616
0.135115
0.115212
0.0901644
0.0554962
0.0254884
0.00261568
-7.86749e-20
1.90815e-26
-2.89625e-26
-1.33224e-25
-9.13588e-24
-1.14304e-10
2.40407e-16
5.9171e-08
1.32023e-06
2.62675e-05
4.93148e-05
2.70915e-05
0.000134876
0.000518357
7.5812e-11
-2.31825e-19
1.22452e-20
-4.80251e-29
-3.81436e-17
8.83487e-21
4.82111e-23
6.17732e-17
6.26291e-11
2.2191e-09
3.61996e-09
7.44409e-09
2.09969e-08
9.31252e-08
1.59412e-07
2.7878e-07
9.78329e-07
7.88235e-06
6.19459e-05
0.000554542
7.97094e-05
1.14617e-05
2.5711e-07
4.55212e-08
1.45524e-08
4.11007e-09
4.38257e-09
2.74739e-09
3.2572e-09
8.11354e-09
2.83257e-08
5.11239e-08
3.5102e-08
2.69396e-08
4.18981e-08
5.12913e-08
2.47318e-07
2.90705e-07
2.94853e-07
4.49776e-07
1.07715e-06
8.83746e-05
0.000664551
9.85443e-05
1.47324e-07
1.75246e-07
2.68034e-07
1.84828e-07
9.51385e-08
1.40918e-08
1.36184e-09
1.35011e-09
1.60304e-08
1.69248e-07
1.9563e-07
1.85608e-07
9.45064e-08
1.74173e-07
1.97394e-07
1.9919e-07
6.23081e-08
9.35701e-10
1.60375e-08
9.48487e-07
3.70963e-05
0.000317931
6.52955e-05
7.30875e-08
1.19184e-07
2.67388e-07
2.68174e-07
2.1173e-07
2.71792e-08
5.68611e-09
1.54286e-09
3.44427e-08
1.45555e-07
1.9524e-07
1.88545e-07
1.0838e-07
5.9164e-09
5.65812e-10
3.48402e-10
2.82528e-10
2.82324e-10
1.12223e-07
4.05694e-07
6.35912e-07
1.16045e-06
4.25753e-06
1.45958e-06
5.75111e-08
7.80082e-08
8.67438e-08
5.49503e-08
4.54146e-08
3.10465e-08
1.71638e-08
1.45961e-08
7.64563e-09
4.96514e-09
4.14982e-09
3.973e-09
3.96998e-09
3.10794e-09
1.85784e-09
9.23602e-10
3.30307e-10
1.69969e-08
3.30982e-11
2.74955e-07
4.35515e-07
6.17918e-07
5.90768e-07
4.10634e-11
2.2686e-08
3.88027e-08
6.24832e-08
1.57401e-07
1.26504e-07
5.5413e-08
4.06333e-08
4.43411e-08
4.32581e-08
3.96404e-08
1.69653e-08
5.22527e-09
2.93651e-09
2.30163e-09
1.85003e-09
1.62373e-09
1.79621e-09
2.37907e-09
3.72193e-07
1.48339e-06
3.06538e-06
7.42861e-07
3.95626e-11
5.14772e-10
1.81455e-07
1.60436e-06
2.22706e-06
1.261e-06
5.17885e-07
3.80083e-07
3.11845e-07
2.73369e-07
1.46573e-07
2.29772e-08
5.14579e-09
5.41775e-09
4.3056e-09
2.94091e-09
1.3326e-09
5.78343e-10
6.51283e-10
6.92141e-07
3.61266e-06
4.3627e-06
1.15943e-06
4.00686e-11
3.9598e-11
5.00439e-07
2.57335e-06
2.99921e-06
3.04361e-06
1.24096e-06
9.53878e-07
6.32887e-07
4.69668e-07
1.69468e-07
6.58748e-08
8.91625e-09
7.71421e-09
5.57695e-09
3.42176e-09
1.94745e-09
6.93649e-10
2.86651e-10
4.50475e-07
3.36857e-06
4.35696e-06
2.64097e-06
3.93588e-11
4.09424e-11
2.49042e-07
1.78609e-06
2.74609e-06
3.28653e-06
3.27043e-06
2.94494e-06
1.46544e-06
8.91609e-07
1.78127e-07
3.72678e-08
1.73436e-08
1.16291e-08
1.05092e-08
9.41906e-09
6.7577e-09
4.00193e-09
9.86415e-10
1.56096e-07
1.78679e-06
3.93192e-06
2.39239e-06
3.98222e-11
4.83859e-11
4.84465e-11
8.89757e-09
9.82807e-07
3.29226e-06
3.26445e-06
3.23294e-06
3.12076e-06
2.19279e-06
1.17549e-08
1.17433e-08
1.17554e-08
1.24443e-08
1.85318e-08
1.82963e-08
1.51104e-08
1.06671e-08
4.79864e-09
4.21865e-08
2.17767e-07
1.21752e-06
6.63886e-07
1.34593e-08
4.84462e-11
8.74058e-11
8.83599e-11
8.97123e-11
6.83214e-07
1.83722e-06
3.06921e-06
2.87986e-06
1.28426e-06
1.17426e-08
2.07161e-08
1.30313e-08
1.20833e-08
1.88241e-08
2.02353e-08
1.9017e-08
1.32211e-08
9.87729e-09
1.57326e-08
5.3524e-09
5.29979e-09
5.18873e-09
1.81788e-08
1.18615e-09
3.45642e-10
1.04867e-09
3.22974e-09
3.24687e-09
1.15933e-07
6.8447e-07
9.18282e-07
1.47978e-07
4.78626e-08
7.62482e-08
6.79194e-08
9.1879e-09
8.99208e-09
1.57701e-08
1.71957e-08
1.24836e-08
9.17055e-09
1.67457e-08
1.20252e-08
1.0504e-08
5.08918e-09
4.2665e-09
1.52377e-09
5.57157e-10
1.27245e-09
4.00944e-09
1.6216e-08
3.60338e-08
5.53451e-08
2.35199e-09
6.13184e-09
3.84028e-08
5.44524e-08
4.495e-08
1.3527e-08
7.58216e-09
1.04702e-08
1.10374e-08
8.81985e-09
7.09905e-09
1.99926e-08
1.68898e-08
1.66277e-08
6.03885e-09
3.13693e-09
1.6257e-09
6.7158e-10
9.28527e-10
1.73603e-09
2.93932e-09
5.37877e-09
5.37017e-09
2.27198e-09
4.16341e-09
2.2868e-08
2.93925e-08
2.54213e-08
1.38031e-08
7.45649e-09
7.13922e-09
6.95902e-09
6.39381e-09
5.21764e-09
1.99892e-08
1.42398e-08
1.67091e-08
6.07886e-09
3.19092e-09
1.96219e-09
1.20561e-09
1.2736e-09
1.53235e-09
1.8607e-09
2.43729e-09
2.52445e-09
1.28775e-09
1.82011e-09
7.18774e-09
1.1609e-08
1.1557e-08
9.07046e-09
5.73187e-09
4.58823e-09
4.14381e-09
3.62537e-09
3.37113e-09
1.95073e-08
1.14152e-08
1.29129e-08
5.54569e-09
3.19379e-09
2.16693e-09
1.62541e-09
1.40616e-09
1.322e-09
1.42063e-09
1.61165e-09
1.67234e-09
1.28082e-09
1.27003e-09
2.98574e-09
5.03435e-09
5.44836e-09
4.66551e-09
3.58471e-09
2.65103e-09
2.12298e-09
1.94538e-09
1.84578e-09
1.86825e-08
9.29996e-09
8.43077e-09
4.62167e-09
2.98871e-09
2.13556e-09
1.66356e-09
1.37783e-09
1.17331e-09
1.0561e-09
1.04791e-09
9.57461e-10
8.22566e-10
7.96577e-10
1.26305e-09
2.09193e-09
2.45126e-09
2.1793e-09
1.72322e-09
1.29103e-09
9.81042e-10
8.36452e-10
8.41424e-10
1.82581e-08
7.57385e-09
5.79655e-09
3.71422e-09
2.67615e-09
2.03322e-09
1.61234e-09
1.31426e-09
1.07769e-09
8.61039e-10
6.74278e-10
5.75624e-10
4.76984e-10
4.47302e-10
5.65448e-10
8.13861e-10
9.73122e-10
9.02535e-10
7.13221e-10
5.31729e-10
3.91123e-10
3.30169e-10
3.29467e-10
1.80919e-08
6.48105e-09
3.98887e-09
2.94746e-09
2.34457e-09
1.87519e-09
1.51109e-09
1.2092e-09
9.53541e-10
7.18726e-10
5.34027e-10
3.97199e-10
2.9697e-10
2.53043e-10
2.53008e-10
2.97464e-10
3.43695e-10
3.19712e-10
2.55926e-10
1.9337e-10
1.41519e-10
1.09711e-10
1.09455e-10
1.80749e-08
6.12613e-09
2.98151e-09
2.45271e-09
2.07119e-09
1.68399e-09
1.34712e-09
1.05753e-09
8.12576e-10
6.0562e-10
4.40115e-10
3.10365e-10
2.1683e-10
1.58724e-10
1.28977e-10
1.15933e-10
1.13152e-10
1.01212e-10
8.11309e-11
6.1373e-11
4.38518e-11
3.50447e-11
3.41494e-11
1.80361e-08
6.51417e-09
2.55853e-09
2.20929e-09
1.86328e-09
1.48723e-09
1.14867e-09
8.71852e-10
6.52559e-10
4.79847e-10
3.4772e-10
2.45722e-10
1.68417e-10
1.13733e-10
7.65025e-11
5.51136e-11
4.19822e-11
3.25015e-11
2.46608e-11
1.85199e-11
1.39462e-11
1.09317e-11
1.01044e-11
1.79195e-08
7.64043e-09
2.69972e-09
2.15807e-09
1.70063e-09
1.28549e-09
9.47718e-10
6.88343e-10
4.95471e-10
3.5589e-10
2.55743e-10
1.80049e-10
1.24545e-10
8.3388e-11
5.32591e-11
3.36773e-11
2.11589e-11
1.39169e-11
9.00836e-12
6.38738e-12
4.82592e-12
3.69312e-12
3.31068e-12
1.66179e-08
7.59786e-09
3.45347e-09
2.19169e-09
1.54084e-09
1.08249e-09
7.47956e-10
5.10628e-10
3.52495e-10
2.45073e-10
1.70879e-10
1.18008e-10
8.07449e-11
5.41172e-11
3.46662e-11
2.12342e-11
1.26872e-11
7.56026e-12
4.27957e-12
2.64558e-12
1.86726e-12
1.32421e-12
1.13012e-12
1.50269e-08
7.19122e-09
3.68687e-09
2.14866e-09
1.37862e-09
8.92528e-10
5.72858e-10
3.64033e-10
2.34113e-10
1.53115e-10
1.01721e-10
6.77875e-11
4.56059e-11
3.03257e-11
1.96621e-11
1.20598e-11
7.15536e-12
4.08696e-12
2.16942e-12
1.19611e-12
7.33499e-13
4.65356e-13
3.75817e-13
1.37029e-08
6.5699e-09
3.49351e-09
1.98328e-09
1.18709e-09
7.13884e-10
4.23828e-10
2.49451e-10
1.48598e-10
9.0131e-11
5.60665e-11
3.49511e-11
2.26112e-11
1.45602e-11
9.43463e-12
5.84254e-12
3.43351e-12
1.93627e-12
9.82901e-13
4.98074e-13
2.80131e-13
1.61356e-13
1.19118e-13
1.1217e-08
5.75635e-09
3.09582e-09
1.70658e-09
9.63414e-10
5.43799e-10
2.99456e-10
1.62979e-10
8.8753e-11
4.95009e-11
2.78721e-11
1.64358e-11
9.74891e-12
6.13795e-12
3.87821e-12
2.36787e-12
1.38389e-12
7.71947e-13
3.85053e-13
1.89875e-13
9.46603e-14
5.13839e-14
3.51581e-14
9.4685e-09
4.84318e-09
2.55043e-09
1.35732e-09
7.27244e-10
3.85382e-10
1.97609e-10
9.94641e-11
4.99752e-11
2.51712e-11
1.26968e-11
6.776e-12
3.87618e-12
2.2831e-12
1.36569e-12
8.27912e-13
4.72175e-13
2.63438e-13
1.25604e-13
5.93711e-14
2.92041e-14
1.47431e-14
9.1888e-15
7.00493e-09
3.6273e-09
1.88975e-09
9.72224e-10
4.94174e-10
2.45196e-10
1.17171e-10
5.47723e-11
2.54195e-11
1.14456e-11
5.29242e-12
2.61549e-12
1.36159e-12
7.53218e-13
4.28314e-13
2.4724e-13
1.33004e-13
7.2092e-14
3.3715e-14
1.54555e-14
6.8718e-15
3.51213e-15
2.0921e-15
5.14174e-09
2.60143e-09
1.23658e-09
6.05337e-10
2.91914e-10
1.3672e-10
6.16141e-11
2.74591e-11
1.11522e-11
4.86013e-12
2.05781e-12
9.04239e-13
4.30263e-13
2.20316e-13
1.13868e-13
6.2872e-14
3.27454e-14
1.69634e-14
7.68158e-15
3.36506e-15
1.51408e-15
7.29367e-16
4.04511e-16
3.04642e-09
1.39539e-09
6.70067e-10
3.17723e-10
1.46835e-10
6.49439e-11
2.80947e-11
1.10952e-11
4.58653e-12
1.77255e-12
6.98143e-13
2.72566e-13
1.18019e-13
5.43023e-14
2.75489e-14
1.41591e-14
7.1578e-15
3.42113e-15
1.51293e-15
5.97907e-16
2.63209e-16
1.28334e-16
6.75973e-17
1.62822e-09
7.42494e-10
3.33587e-10
1.49564e-10
6.52159e-11
2.73186e-11
1.1124e-11
4.35904e-12
1.64055e-12
5.73679e-13
2.03835e-13
7.41488e-14
2.88409e-14
1.25499e-14
5.99537e-15
2.94455e-15
1.40297e-15
6.21834e-16
2.58373e-16
9.76976e-17
4.12112e-17
1.89996e-17
9.41919e-18
6.58433e-10
3.06433e-10
1.37957e-10
5.9694e-11
2.50932e-11
1.01711e-11
3.96388e-12
1.46806e-12
4.97525e-13
1.66705e-13
5.32465e-14
1.75488e-14
6.45716e-15
2.65257e-15
1.19345e-15
5.45095e-16
2.41206e-16
9.9335e-17
3.84558e-17
1.42309e-17
5.67053e-18
2.44521e-18
1.10683e-18
2.27098e-10
9.92449e-11
4.28753e-11
1.84879e-11
7.77975e-12
3.13966e-12
1.18165e-12
4.17966e-13
1.34997e-13
4.25719e-14
1.27759e-14
3.90575e-15
1.31516e-15
4.98631e-16
2.08425e-16
8.90586e-17
3.64177e-17
1.37863e-17
4.94753e-18
1.75466e-18
6.61988e-19
2.65422e-19
1.13009e-19
4.48549e-11
2.02721e-11
9.67397e-12
4.45489e-12
2.00148e-12
8.34412e-13
3.04981e-13
1.04542e-13
3.29305e-14
9.69104e-15
2.61031e-15
7.42242e-16
2.34748e-16
8.3817e-17
3.30186e-17
1.30699e-17
4.88955e-18
1.7016e-18
5.69028e-19
1.89879e-19
6.76809e-20
2.44853e-20
1.00035e-20
3.79465e-12
2.26529e-12
1.37082e-12
8.28077e-13
4.08472e-13
1.77524e-13
6.9085e-14
2.37508e-14
7.13618e-15
2.01023e-15
5.27202e-16
1.37606e-16
3.96352e-17
1.31783e-17
4.78376e-18
1.7368e-18
5.86641e-19
1.8535e-19
5.73416e-20
1.77396e-20
5.58246e-21
1.86763e-21
2.26638e-22
3.79902e-14
5.82629e-14
1.06932e-13
1.03972e-13
6.59189e-14
3.25165e-14
1.33548e-14
4.72258e-15
1.47911e-15
4.03112e-16
9.95544e-17
2.37043e-17
6.18448e-18
1.89835e-18
6.31223e-19
2.05599e-19
6.09837e-20
1.74602e-20
5.05555e-21
1.42732e-21
4.3982e-22
4.33617e-23
1.21225e-24
8.23104e-21
2.27736e-16
5.26423e-15
1.31762e-14
1.04067e-14
5.68864e-15
2.45237e-15
8.87493e-16
2.77511e-16
7.5082e-17
1.8045e-17
4.08989e-18
9.7645e-19
2.75552e-19
7.81823e-20
2.17095e-20
5.65715e-21
1.47394e-21
4.00558e-22
1.00654e-22
1.92968e-23
5.4758e-25
5.30576e-27
0.975417
0.953844
0.942143
0.949553
0.890163
0.883237
0.913487
0.961252
0.33805
0.238759
0.216715
0.331163
1.81119e-14
-1.18424e-19
1.81099e-14
1.8923e-18
1.97092e-06
2.20875e-06
2.35165e-05
2.39155e-05
1.35519e-05
1.33976e-05
7.68375e-06
1.47199e-05
2.93327e-06
2.19096e-06
5.79356e-06
1.21903e-05
2.56393e-06
1.33529e-06
2.85816e-07
6.93913e-07
5.31864e-07
6.92205e-08
1.13016e-09
1.26687e-09
3.23077e-11
1.05857e-09
4.068e-09
6.88871e-09
2.53433e-09
2.53287e-09
4.46296e-09
1.28027e-08
5.75813e-10
4.39759e-10
6.11033e-10
1.60799e-09
1.80737e-10
1.28574e-10
1.162e-10
1.60462e-10
4.29106e-10
3.89861e-10
2.70241e-10
1.85198e-10
1.17204e-09
1.07245e-09
7.63253e-10
4.00188e-10
4.43757e-09
1.8915e-09
1.50579e-09
9.29016e-10
8.84171e-09
4.4052e-09
2.86768e-09
2.26137e-09
6.03416e-09
6.02621e-09
5.41242e-09
3.82526e-09
4.44879e-09
3.92708e-09
3.8204e-09
3.69111e-09
2.90904e-09
2.7115e-09
2.52329e-09
2.43532e-09
1.71495e-09
1.60441e-09
1.57039e-09
1.48859e-09
8.32253e-10
8.19936e-10
8.25294e-10
8.06335e-10
3.30381e-10
3.50122e-10
3.7319e-10
3.69708e-10
1.10874e-10
1.10283e-10
1.30339e-10
1.36325e-10
3.34273e-11
3.16759e-11
3.73065e-11
3.94433e-11
9.95789e-12
8.91054e-12
9.74001e-12
1.07224e-11
3.09938e-12
2.78775e-12
2.86691e-12
2.76615e-12
1.04262e-12
8.79904e-13
8.26857e-13
8.5767e-13
3.50364e-13
2.96738e-13
2.8399e-13
2.55506e-13
1.04922e-13
9.05482e-14
7.99299e-14
7.63206e-14
2.92587e-14
2.53006e-14
2.28395e-14
2.04771e-14
7.34193e-15
5.96026e-15
5.24615e-15
4.66291e-15
1.63066e-15
1.33417e-15
1.10421e-15
9.16913e-16
2.96656e-16
2.37932e-16
1.95549e-16
1.55427e-16
4.87976e-17
3.7318e-17
2.87437e-17
2.11219e-17
6.54332e-18
4.72052e-18
3.53868e-18
2.33899e-18
7.16109e-19
4.9135e-19
3.7569e-19
1.93751e-19
7.07571e-20
3.28872e-20
1.35038e-20
3.23531e-21
1.90221e-21
4.7639e-22
1.46264e-22
1.95229e-23
1.72985e-36
1.33343e-24
2.94969e-25
1.10326e-26
4.78845e-44
6.48644e-29
2.77007e-28
9.06871e-28
-3.49181e-46
6.05713e-29
2.29554e-28
7.02228e-28
0.978928
0.977009
0.954387
0.949706
0.902516
0.394078
0.50165
0.941795
0.999285
0.999383
0.999483
0.966134
0.55901
0.93137
0.99973
0.999782
0.984939
0.844151
0.847981
0.99215
0.992798
0.949572
0.931374
0.8109
0.530149
0.581367
0.845906
0.954637
0.979225
0.990686
0.990255
0.977656
0.973207
0.869814
0.692864
0.529317
0.605777
0.84793
0.599382
0.61425
0.567409
0.697135
0.692764
0.346511
0.425669
0.583101
0.397831
0.279984
0.285083
0.371567
0.477647
0.325442
0.158389
0.0942411
0.109361
0.19424
0.320935
1.81099e-14
0.0216628
0.040521
0.110695
0.0856716
0.0298243
0.0719403
0.0658327
0.00346441
0.00039475
6.42375e-07
1.18454e-19
5.92313e-27
-1.65612e-25
1.66783e-26
8.7544e-20
3.61796e-20
3.2667e-20
9.91699e-20
1.34792e-06
7.872e-12
1.04746e-20
1.63634e-25
-1.72148e-09
1.02824e-19
-1.12514e-19
1.55502e-17
2.28044e-11
6.11859e-06
7.38709e-08
2.94147e-08
7.43183e-08
5.53493e-07
3.91346e-07
7.68813e-16
2.93879e-06
2.88006e-05
8.54732e-05
1.468e-05
1.29085e-05
3.3438e-06
4.20179e-06
8.30858e-06
7.57569e-06
1.17238e-06
-1.14146e-13
1.73035e-09
1.83987e-09
5.07225e-08
8.48897e-08
6.30074e-08
2.42362e-07
1.69026e-08
4.94787e-09
1.86974e-07
1.22089e-05
1.18159e-05
8.63209e-06
3.73985e-06
1.42842e-06
1.77261e-06
3.05657e-06
3.33236e-06
9.21168e-07
2.98627e-08
8.17125e-09
7.95414e-09
3.59684e-08
8.40743e-08
8.94202e-06
1.49695e-05
5.06023e-06
8.96417e-07
8.8877e-05
0.000159704
9.97009e-05
5.49608e-07
5.43315e-07
1.11495e-07
5.77188e-08
2.63594e-07
7.02954e-07
1.87213e-07
2.21301e-08
1.13923e-08
4.34545e-09
1.31448e-08
2.8892e-07
3.7885e-06
1.47445e-05
0.000670681
0.00443092
0.00663533
0.00686805
0.00641468
1.13014e-09
1.26685e-09
1.10015e-08
3.01454e-08
3.34812e-08
1.12545e-07
8.03786e-07
5.46577e-07
4.68746e-08
6.89733e-06
8.10133e-06
4.53706e-08
1.58307e-07
0.000124384
0.006009
0.0096702
0.00967351
0.0096702
0.00967351
1.69349e-08
2.59677e-08
4.8561e-08
8.50202e-08
1.1127e-07
4.54993e-07
1.15631e-06
3.34574e-06
5.68932e-06
8.45322e-06
3.96145e-05
0.000170976
0.00019676
0.000556078
0.00442731
0.00615806
0.00548669
0.00421134
0.00555129
2.18307e-08
3.43314e-08
3.69221e-08
1.58766e-08
1.13303e-08
1.31782e-07
9.08231e-08
2.54281e-07
1.76203e-05
3.037e-05
5.7377e-05
0.000138324
0.000204188
0.000451267
9.73807e-05
1.92365e-07
1.42858e-10
5.81175e-10
-3.26951e-10
2.38787e-09
2.82743e-09
2.24523e-09
7.99108e-11
7.94145e-11
9.14001e-10
6.6583e-10
7.47174e-10
7.97186e-06
1.64235e-05
2.60813e-05
3.10943e-05
4.41152e-05
2.7157e-05
1.5236e-09
6.47681e-08
7.17396e-09
4.11244e-10
1.82806e-07
1.87139e-10
1.82711e-10
1.37463e-10
1.36592e-10
3.31097e-10
9.06084e-10
1.55572e-09
4.7024e-09
5.95939e-07
1.30841e-06
1.04877e-06
2.73848e-06
3.07431e-06
1.54426e-09
1.60255e-09
3.99432e-09
1.02404e-08
7.37161e-09
1.1597e-07
1.4798e-10
1.06563e-10
1.3711e-10
2.32712e-10
4.98148e-10
1.5895e-09
5.63687e-09
1.03173e-08
1.4494e-08
1.03767e-07
3.0382e-09
6.71519e-10
6.83075e-10
1.58138e-09
4.16155e-09
1.92952e-08
2.33095e-08
1.73304e-08
1.21269e-08
2.15987e-10
1.18883e-10
1.41386e-10
1.93207e-10
2.94835e-10
4.76157e-10
9.88244e-10
2.70888e-09
2.34046e-09
3.87222e-09
3.90797e-09
1.13663e-09
7.43637e-10
3.20115e-09
8.29936e-09
1.7672e-08
2.07867e-08
1.35349e-08
8.98344e-09
4.28653e-10
1.31803e-10
1.33548e-10
1.46821e-10
1.96264e-10
3.22222e-10
5.60313e-10
1.1494e-09
1.33548e-09
1.36249e-09
1.32553e-09
6.00087e-10
6.14683e-10
2.4612e-09
5.69666e-09
1.03079e-08
1.06092e-08
7.75673e-09
8.73357e-09
1.13395e-09
3.05475e-10
1.5936e-10
1.4767e-10
1.57755e-10
1.88754e-10
2.40993e-10
4.26476e-10
5.70166e-10
6.11497e-10
5.05805e-10
3.56327e-10
3.69983e-10
1.02524e-09
2.49549e-09
3.46776e-09
3.58466e-09
2.88017e-09
3.8425e-09
2.16465e-09
9.16955e-10
3.80501e-10
2.11991e-10
1.60417e-10
1.58088e-10
1.67398e-10
1.9324e-10
2.38643e-10
2.56177e-10
2.37309e-10
1.87103e-10
1.79555e-10
3.08781e-10
6.45224e-10
8.65206e-10
8.20993e-10
5.6174e-10
6.95886e-10
3.07293e-09
1.55147e-09
7.87319e-10
4.26626e-10
2.31442e-10
1.50525e-10
1.22537e-10
1.16828e-10
1.17365e-10
1.1439e-10
1.02734e-10
8.23704e-11
7.12934e-11
7.91411e-11
1.1189e-10
1.25266e-10
9.673e-11
5.3038e-11
2.08766e-11
2.34401e-09
1.75699e-09
1.03881e-09
6.4533e-10
3.7939e-10
2.0177e-10
1.11247e-10
7.50998e-11
6.10913e-11
5.39744e-11
4.69843e-11
3.79652e-11
2.66649e-11
1.91888e-11
1.45036e-11
1.28347e-11
7.08892e-12
1.30546e-12
3.66688e-13
1.4052e-09
1.30258e-09
1.03986e-09
6.93745e-10
4.54654e-10
2.67736e-10
1.43186e-10
7.06047e-11
4.12903e-11
3.1091e-11
2.46354e-11
1.7347e-11
9.91999e-12
4.52987e-12
1.73244e-12
7.21991e-13
7.37992e-14
2.80602e-14
1.33196e-14
7.81947e-10
7.24187e-10
6.52593e-10
5.8498e-10
4.3271e-10
2.86173e-10
1.72838e-10
8.87174e-11
4.2423e-11
2.28491e-11
1.36183e-11
7.30525e-12
3.4411e-12
1.25313e-12
3.15943e-13
7.2097e-14
8.91243e-15
3.01822e-15
9.33991e-16
3.63498e-10
3.54726e-10
3.29407e-10
2.95608e-10
2.66843e-10
2.29189e-10
1.56465e-10
9.46434e-11
4.85783e-11
2.14996e-11
8.85697e-12
3.46608e-12
1.26941e-12
3.96501e-13
9.46825e-14
1.96907e-14
1.93964e-15
6.59925e-16
2.35825e-16
1.36851e-10
1.38036e-10
1.38181e-10
1.29158e-10
1.1604e-10
1.03811e-10
9.30941e-11
6.84304e-11
4.13419e-11
2.0247e-11
7.88479e-12
2.45634e-12
6.52676e-13
1.6097e-13
3.48828e-14
4.39162e-15
6.18634e-16
3.58612e-16
1.37531e-16
3.94658e-11
4.30093e-11
4.39785e-11
4.30485e-11
4.12363e-11
3.80438e-11
3.609e-11
3.0914e-11
2.32074e-11
1.39744e-11
6.40059e-12
2.01769e-12
4.44242e-13
8.14324e-14
1.48242e-14
1.15115e-15
2.94744e-16
2.38504e-16
9.8843e-17
1.04218e-11
1.07342e-11
1.11148e-11
1.13216e-11
1.10087e-11
1.06798e-11
1.04271e-11
9.90608e-12
8.71182e-12
6.67403e-12
3.75224e-12
1.35818e-12
2.91882e-13
4.08624e-14
4.30402e-15
2.75878e-16
1.45318e-16
1.4564e-16
6.40779e-17
2.65483e-12
2.6519e-12
2.60081e-12
2.53114e-12
2.46629e-12
2.43535e-12
2.42633e-12
2.39014e-12
2.44657e-12
2.22608e-12
1.53002e-12
6.64763e-13
1.59069e-13
1.96282e-14
9.88515e-16
7.45604e-17
6.97415e-17
8.66329e-17
4.50072e-17
7.6821e-13
6.86578e-13
6.36432e-13
5.70525e-13
5.2586e-13
4.90382e-13
4.60969e-13
4.70294e-13
5.34503e-13
5.5933e-13
4.51776e-13
2.38208e-13
5.50069e-14
4.37304e-15
1.78487e-16
3.04981e-17
3.29153e-17
6.30215e-17
2.72795e-17
2.19465e-13
1.88529e-13
1.56167e-13
1.28153e-13
1.09895e-13
8.63508e-14
7.32721e-14
7.90833e-14
9.4779e-14
1.07183e-13
9.90952e-14
5.09875e-14
7.05379e-15
3.30757e-16
1.7013e-17
1.06614e-17
1.5868e-17
3.8487e-17
1.78324e-17
6.1882e-14
4.91066e-14
3.7177e-14
2.96259e-14
2.28418e-14
1.26382e-14
7.9997e-15
9.20205e-15
1.22877e-14
1.54655e-14
1.39169e-14
3.80298e-15
4.73898e-16
1.94136e-17
2.07156e-18
3.50042e-18
8.97164e-18
2.61655e-17
9.70152e-18
1.53465e-14
1.09999e-14
7.86312e-15
6.12362e-15
3.46372e-15
1.25932e-15
5.28606e-16
7.05859e-16
1.12456e-15
1.56714e-15
6.4923e-16
1.83543e-16
2.38746e-17
7.21391e-19
4.83264e-19
1.7802e-18
6.72584e-18
1.46222e-17
5.81059e-18
3.29051e-15
2.22959e-15
1.64223e-15
9.02433e-16
3.38219e-16
6.47422e-17
1.94408e-17
3.87764e-17
8.5304e-17
3.8308e-17
1.61403e-17
5.99918e-18
7.47544e-19
9.66041e-20
2.50193e-19
1.29603e-18
4.68415e-18
9.50557e-18
2.68516e-18
5.93962e-16
3.94005e-16
2.34616e-16
7.99322e-17
1.38529e-17
8.90192e-19
4.82767e-19
1.77009e-18
9.52053e-19
5.02577e-19
3.14589e-19
9.80699e-20
2.82528e-20
4.65596e-20
1.76785e-19
9.82394e-19
3.32976e-18
4.663e-18
1.50568e-18
9.28041e-17
5.84929e-17
2.07109e-17
3.18011e-18
1.53941e-19
5.45631e-21
1.23963e-20
8.64839e-21
7.27062e-21
8.09514e-21
7.76645e-21
9.47334e-21
1.64248e-20
3.77959e-20
1.50076e-19
8.12773e-19
2.06367e-18
2.85334e-18
6.02069e-19
1.31613e-17
4.56206e-18
7.73395e-19
3.53394e-20
3.40469e-22
1.1306e-22
1.49299e-22
2.89967e-22
6.48818e-22
1.46947e-21
3.39923e-21
7.53265e-21
1.49642e-20
3.50048e-20
1.41434e-19
5.95004e-19
1.34409e-18
1.16185e-18
2.97337e-19
1.17805e-18
1.97008e-19
8.21822e-21
4.59496e-23
1.34561e-23
2.6093e-23
6.96867e-23
1.95607e-22
5.24721e-22
1.34001e-21
3.26414e-21
7.29197e-21
1.4436e-20
3.31848e-20
1.17788e-19
3.72386e-19
7.69753e-19
6.5807e-19
9.72541e-20
3.01216e-20
7.22735e-22
4.20373e-24
2.55807e-24
6.40333e-24
2.03188e-23
6.12578e-23
1.74598e-22
4.69596e-22
1.20414e-21
2.92768e-21
6.45016e-21
1.26506e-20
2.85939e-20
9.07827e-20
2.47221e-19
4.28227e-19
2.18709e-19
4.25771e-20
2.65705e-22
2.31018e-24
5.47248e-25
1.54823e-24
5.2919e-24
1.68694e-23
5.1129e-23
1.44254e-22
3.87563e-22
9.91316e-22
2.38212e-21
5.24599e-21
1.01811e-20
2.22839e-20
6.40045e-20
1.54574e-19
1.81993e-19
1.01362e-19
1.33192e-20
9.58924e-25
9.3607e-26
3.17619e-25
1.18261e-24
4.01508e-24
1.26476e-23
3.77105e-23
1.05963e-22
2.84845e-22
7.29696e-22
1.75778e-21
3.80743e-21
7.32796e-21
1.5955e-20
3.79877e-20
8.92617e-20
7.53459e-20
2.65391e-20
5.80745e-21
1.19524e-26
5.55968e-26
2.17931e-25
7.52265e-25
2.45342e-24
7.51533e-24
2.25074e-23
6.51344e-23
1.773e-22
4.59055e-22
1.10518e-21
2.44632e-21
4.86662e-21
1.00863e-20
2.08089e-20
4.20098e-20
2.44373e-20
9.51977e-21
2.50686e-21
7.51613e-27
3.12965e-26
1.1056e-25
3.55874e-25
1.14358e-24
3.61391e-24
1.1026e-23
3.2555e-23
9.17086e-23
2.48019e-22
6.1632e-22
1.36771e-21
2.6682e-21
5.62093e-21
1.02766e-20
1.57286e-20
6.56581e-21
2.92611e-21
6.68712e-22
2.72479e-27
9.36648e-27
2.90694e-26
8.82027e-26
3.24996e-25
1.11663e-24
3.80611e-24
1.20637e-23
3.63882e-23
1.02698e-22
2.65774e-22
6.12937e-22
1.19709e-21
2.3616e-21
3.63034e-21
3.93991e-21
1.52775e-21
4.39065e-22
2.81018e-23
)
;

boundaryField
{
    leftWall
    {
        type            alphaContactAngle;
        contactAngleProperties 
        {
            mercury         
            {
                theta0          90;
            }
            air             
            {
                theta0          90;
            }
            oil             
            {
                theta0          90;
            }
        }
        value           nonuniform List<scalar> 
50
(
1.07469e-10
2.11719e-10
2.82699e-10
9.51323e-11
1.34404e-08
0.108934
0.833538
1
1
1
0.943948
0.808464
0.132783
2.62675e-05
6.19459e-05
8.83746e-05
3.70963e-05
6.35912e-07
2.74955e-07
3.72193e-07
6.92141e-07
4.50475e-07
1.56096e-07
4.21865e-08
1.57326e-08
1.67457e-08
1.99926e-08
1.99892e-08
1.95073e-08
1.86825e-08
1.82581e-08
1.80919e-08
1.80749e-08
1.80361e-08
1.79195e-08
1.66179e-08
1.50269e-08
1.37029e-08
1.1217e-08
9.4685e-09
7.00493e-09
5.14174e-09
3.04642e-09
1.62822e-09
6.58433e-10
2.27098e-10
4.48549e-11
3.79465e-12
3.79902e-14
8.23104e-21
)
;
    }
    rightWall
    {
        type            alphaContactAngle;
        contactAngleProperties 
        {
            mercury         
            {
                theta0          90;
            }
            air             
            {
                theta0          90;
            }
            oil             
            {
                theta0          90;
            }
        }
        value           nonuniform List<scalar> 
50
(
0.0113806
0.011394
0.000630087
0.0677151
0.495826
0.634975
0.792487
0.811211
0.847981
0.84793
0.320935
9.91699e-20
8.54732e-05
1.18159e-05
9.97009e-05
0.00641468
0.00967351
0.00555129
-3.26951e-10
1.82806e-07
1.1597e-07
1.21269e-08
8.98344e-09
8.73357e-09
3.8425e-09
6.95886e-10
2.08766e-11
3.66688e-13
1.33196e-14
9.33991e-16
2.35825e-16
1.37531e-16
9.8843e-17
6.40779e-17
4.50072e-17
2.72795e-17
1.78324e-17
9.70152e-18
5.81059e-18
2.68516e-18
1.50568e-18
6.02069e-19
2.97337e-19
9.72541e-20
4.25771e-20
1.33192e-20
5.80745e-21
2.50686e-21
6.68712e-22
2.81018e-23
)
;
    }
    lowerWall
    {
        type            alphaContactAngle;
        contactAngleProperties 
        {
            mercury         
            {
                theta0          90;
            }
            air             
            {
                theta0          90;
            }
            oil             
            {
                theta0          90;
            }
        }
        value           nonuniform List<scalar> 
62
(
1.07469e-10
1.34333e-10
1.52178e-10
1.57637e-10
1.65461e-10
1.72712e-10
1.80186e-10
1.86921e-10
1.92623e-10
1.98347e-10
2.05438e-10
2.16914e-10
2.3893e-10
2.78029e-10
3.32906e-10
3.9641e-10
5.08187e-10
7.02768e-10
1.42847e-09
2.33973e-09
2.76897e-09
2.76841e-09
2.7659e-09
2.7659e-09
1.88972e-09
9.67884e-10
5.2215e-10
9.71384e-11
0.00363372
0.535321
0.995898
0.975417
0.953844
0.942143
0.949553
0.0089863
0.00832819
0.00746444
0.0172007
0.419362
0.828332
0.912465
0.898453
0.0089863
0.0425942
0.0473596
0.0364854
0.00998392
0.00136819
0.0014026
0.000896704
0.000858418
0.000896704
0.011318
0.0506513
0.124402
0.124403
0.124408
0.122794
0.0404855
0.0027008
0.0113806
)
;
    }
    atmosphere
    {
        type            inletOutlet;
        inletValue      uniform 0;
        value           nonuniform List<scalar> 
46
(
0
0
0
1.31762e-14
1.04067e-14
5.68864e-15
2.45237e-15
8.87493e-16
2.77511e-16
7.5082e-17
1.8045e-17
4.08989e-18
9.7645e-19
2.75552e-19
7.81823e-20
0
0
0
0
0
0
0
0
0
0
0
0
0
0
0
8.82027e-26
3.24996e-25
1.11663e-24
3.80611e-24
1.20637e-23
3.63882e-23
1.02698e-22
2.65774e-22
6.12937e-22
1.19709e-21
0
0
0
0
0
0
)
;
    }
    defaultFaces
    {
        type            empty;
    }