/*--------------------------------*- C++ -*----------------------------------*\
  =========                 |
  \\      /  F ield         | OpenFOAM: The Open Source CFD Toolbox
   \\    /   O peration     | Website:  https://openfoam.org
    \\  /    A nd           | Version:  13
     \\/     M anipulation  |
\*---------------------------------------------------------------------------*/
FoamFile
{
    format      ascii;
    class       volScalarField;
    location    "2.85";
    object      alpha.oil;
}
// * * * * * * * * * * * * * * * * * * * * * * * * * * * * * * * * * * * * * //

dimensions      [];

internalField   nonuniform List<scalar> 
2268
(
5.48546e-14
2.95708e-13
1.07968e-12
2.87448e-12
7.7416e-12
1.58171e-11
3.05029e-11
5.80294e-11
1.08182e-10
2.00882e-10
3.7241e-10
6.94081e-10
1.30059e-09
2.38905e-09
4.091e-09
6.25291e-09
8.75367e-09
9.76463e-09
9.28365e-09
0.000241215
0.000549266
0.000549824
0.000522795
4.35446e-14
2.48494e-13
9.3654e-13
3.14598e-12
7.93054e-12
1.72014e-11
3.46621e-11
6.72033e-11
1.25412e-10
2.13405e-10
4.18802e-10
8.83275e-10
1.82239e-09
3.83105e-09
7.87092e-09
2.44705e-08
7.08003e-08
1.10683e-07
1.67241e-06
2.19638e-05
5.78155e-05
7.14865e-05
5.54114e-09
9.29937e-14
4.88288e-13
8.25453e-13
2.12631e-12
5.60226e-12
1.41689e-11
3.77086e-11
6.89926e-11
1.35391e-10
2.56971e-10
4.53005e-10
8.59994e-10
1.51574e-09
2.39122e-09
3.72634e-09
5.29987e-09
1.66656e-08
7.06327e-08
9.84569e-08
1.28424e-08
6.91436e-09
6.89007e-09
1.55405e-08
9.0694e-14
1.46356e-12
2.705e-12
3.5936e-12
6.87878e-12
1.37218e-11
2.925e-11
6.55214e-11
1.43919e-10
2.75985e-10
4.64401e-10
8.58126e-10
1.71834e-09
2.98478e-09
4.95218e-09
8.12081e-09
1.39277e-08
2.48533e-08
4.62219e-08
5.76903e-08
2.46166e-08
6.73995e-08
2.85694e-07
8.97953e-11
1.16187e-10
9.54115e-11
6.76869e-11
4.5094e-11
3.24604e-11
3.18457e-11
5.21631e-11
1.08073e-10
2.24519e-10
4.22206e-10
7.80243e-10
1.92353e-09
3.3257e-09
5.56552e-09
8.67738e-09
1.65461e-08
3.9303e-08
7.45078e-08
3.79398e-08
4.01699e-08
2.6964e-07
7.21736e-06
7.27359e-10
7.01552e-10
5.62535e-10
4.16121e-10
3.06671e-10
2.11175e-10
1.24787e-10
8.05094e-11
8.07489e-11
1.11261e-10
2.63963e-10
5.819e-10
1.43677e-09
2.27081e-09
2.90077e-09
4.25206e-09
5.85153e-08
3.19887e-07
5.8611e-07
2.86105e-07
2.34235e-07
5.04519e-06
2.27496e-05
2.61443e-09
2.34318e-09
1.77831e-09
1.32677e-09
1.04262e-09
8.49541e-10
6.05088e-10
3.51284e-10
1.83717e-10
1.36762e-10
1.46012e-10
2.77769e-10
7.42989e-10
1.05031e-09
8.17127e-10
5.82853e-10
9.74613e-08
9.08101e-07
1.07852e-06
1.10134e-06
1.90414e-06
1.18298e-05
2.3013e-05
3.63016e-09
3.60934e-09
3.06074e-09
2.38763e-09
1.88535e-09
1.62767e-09
1.38233e-09
9.97367e-10
5.82257e-10
3.43856e-10
2.43113e-10
2.40395e-10
3.42976e-10
5.20493e-10
5.63377e-10
5.73203e-10
2.26503e-08
4.21267e-07
9.63712e-07
8.72367e-07
3.75185e-06
5.10595e-06
7.55967e-06
0.112668
0.06175
0.0397935
0.0405763
0.155479
0.285575
0.285597
0.282549
0.262767
0.259843
0.272097
0.244097
0.115411
0.0611759
0.0752277
0.110309
0.193088
0.230912
0.222673
0.113326
0.109116
0.0858064
0.0562371
0.060542
0.0703337
0.0975269
0.0589648
0.0314748
0.0544038
0.167523
0.235839
0.119845
0.0611923
0.0613949
0.153254
0.23193
0.231376
0.222804
0.354237
0.352195
0.396918
0.405899
0.127908
0.0151577
0.00402756
0.0028075
0.00141907
0.00152597
0.0386142
0.153125
0.174265
0.0791263
0.0648572
0.204556
0.363008
0.427617
0.449829
0.446182
0.44568
0.445825
0.377609
0.428772
0.424289
0.26274
0.168019
0.0667801
0.00271031
0.0800395
0.171518
0.174117
0.224333
0.257969
0.342121
0.391063
0.384185
0.449886
0.42764
0.200788
0.0961508
0.0177574
0.364109
0.735647
0.742482
0.730495
0.328861
0.00770166
2.03247e-05
0.102616
0.310162
0.319762
0.313339
0.151178
0.076258
0.000166798
0.30287
0.111576
0.00661832
0.00651005
0.00637293
0.441508
0.742482
0.742483
0.729573
0.384093
0.0065934
2.58657e-05
2.03247e-05
0.280799
0.31896
0.0499059
0.00016343
0.000163459
0.000165779
0.168469
0.0269939
0.00675383
0.00639138
0.00642688
0.431387
0.742484
0.733525
0.283699
0.00234776
5.69752e-06
6.23045e-08
0.000166473
0.199178
0.283525
0.000238495
0.000163459
0.000163439
0.000858946
0.00742675
0.0240385
0.0198281
0.015692
0.00630365
0.224002
0.665681
0.488108
0.0153144
1.27241e-05
2.14107e-06
1.48984e-06
0.0242224
0.241112
0.270937
0.0112167
0.000168907
0.000163454
0.000641556
0.000700931
2.958e-09
2.87286e-09
2.62212e-09
2.31436e-09
2.01832e-09
1.87015e-09
1.94222e-09
1.79163e-09
1.44629e-09
1.02467e-09
6.77861e-10
4.44716e-10
3.55309e-10
4.00389e-10
5.30337e-10
8.21372e-10
1.11468e-09
3.28642e-09
8.56562e-08
1.09792e-07
1.89104e-06
2.79863e-12
-1.25876e-07
1.00589e-09
7.81452e-10
6.97264e-10
5.73252e-10
5.80605e-10
6.72984e-09
4.73756e-09
3.14092e-09
2.22498e-09
1.80923e-09
1.39129e-09
9.2746e-10
5.2598e-10
3.26773e-10
3.25967e-10
4.0192e-10
2.76329e-09
1.13356e-07
-4.98271e-09
-1.28214e-09
2.30365e-19
4.08491e-05
0.00266233
8.06436e-21
7.06461e-21
8.06435e-21
2.16724e-20
2.5325e-20
-2.27753e-12
4.63497e-11
3.50346e-11
1.65166e-11
3.50032e-12
-3.50567e-13
-1.9396e-13
-2.36147e-14
-5.73046e-15
-3.02101e-15
-2.56726e-15
0.000796119
0.0191651
0.0861805
0.176382
0.26485
0.402383
0.459369
0.0743918
0.259868
0.397217
0.395631
0.350074
0.22782
0.0788826
0.031753
0.0365773
0.0483735
0.0634476
0.0910276
0.143532
0.189895
0.243006
0.304846
0.407014
0.57307
0.747518
0.858553
0.914335
0.955758
0.944541
0.750075
0.936493
0.987472
0.987018
0.981861
0.871805
0.682245
0.663365
0.678903
0.699525
0.724345
0.75883
0.831801
0.920115
0.919785
0.880805
0.881968
0.963253
0.999626
1
1
1
0.986135
0.967291
0.99863
0.999831
0.999865
0.984348
0.947272
0.969211
0.993812
0.99256
0.980835
0.981769
0.991528
0.999983
1
1
1
1
1
1
1
0.999708
0.999501
0.999985
0.999421
0.999445
0.999921
0.999989
0.999994
0.999956
0.999999
1
1
1
1
1
1
1
1
1
1
1
1
1
1
0.999999
0.999999
0.953788
0.947899
0.939128
0.926129
0.9117
0.896468
0.886035
0.880937
0.873784
0.86407
0.851196
0.834705
0.815207
0.794665
0.774753
0.755475
0.735763
0.71494
0.699244
0.699495
0.719093
0.753768
0.793865
0.267111
0.268027
0.241013
0.211946
0.192122
0.178077
0.160256
0.140024
0.124164
0.111792
0.0998801
0.0870987
0.074074
0.0620355
0.0518487
0.0438869
0.0385228
0.036192
0.0379085
0.0433145
0.0525777
0.0666606
0.0854951
1.09025e-07
1.1541e-07
1.09025e-07
7.30259e-08
3.42853e-07
3.98802e-09
6.6066e-14
6.51046e-14
6.97984e-14
9.2262e-15
3.27057e-22
8.10821e-26
2.31785e-26
4.13593e-26
1.70086e-16
3.45903e-19
-7.30306e-11
-3.06583e-10
2.47779e-18
1.15164e-07
4.30595e-07
1.16766e-06
1.13568e-06
1.42157e-06
3.41792e-07
1.10716e-07
1.47125e-07
3.61363e-07
3.65115e-07
2.62951e-07
6.88931e-07
6.02524e-07
2.81488e-07
3.11733e-08
3.15099e-08
2.76112e-08
3.02396e-08
4.20503e-08
6.38608e-08
6.84635e-08
5.75604e-08
4.20605e-08
4.17973e-08
4.21695e-08
4.62889e-08
1.29403e-07
1.29786e-06
4.42092e-07
1.10466e-07
1.14187e-07
3.75951e-07
2.16651e-06
2.68206e-05
9.18882e-05
3.8344e-05
1.24331e-06
8.42368e-09
4.00678e-08
3.13927e-08
5.23561e-08
1.74145e-07
2.64509e-07
2.28344e-07
1.86925e-07
1.48956e-07
1.08656e-07
1.18974e-07
1.44986e-07
1.83927e-07
1.84594e-06
4.80795e-06
1.84077e-05
6.4711e-06
2.26061e-07
1.1583e-05
0.000146667
0.000163527
0.000152101
7.90185e-06
-2.6721e-15
9.45936e-10
5.29269e-10
8.28939e-08
2.66548e-07
2.66349e-07
2.53473e-07
1.94608e-07
1.37406e-07
1.02819e-07
1.0847e-07
1.07531e-07
1.46459e-07
3.68993e-06
2.72225e-05
5.0148e-05
3.54494e-05
2.25082e-07
2.76406e-05
0.000164222
0.000164229
0.000162963
6.83296e-05
1.03388e-27
6.55173e-10
5.30412e-10
9.99792e-08
2.66853e-07
2.66461e-07
2.51711e-07
2.21418e-07
1.32113e-07
8.57054e-08
8.62208e-08
6.94796e-08
8.25297e-08
3.24638e-06
3.48791e-05
5.08451e-05
4.59195e-05
2.17914e-07
2.64662e-07
5.45796e-05
0.000164218
0.000156159
2.54793e-05
5.36573e-21
8.74972e-09
8.97042e-09
2.27348e-08
1.29006e-07
2.05369e-07
2.3583e-07
2.07025e-07
1.25074e-07
9.01504e-08
6.96943e-08
4.56039e-08
4.93489e-08
2.27576e-06
1.89293e-05
4.53876e-05
1.81657e-05
2.10611e-07
2.03273e-07
1.35717e-07
9.80511e-06
1.44427e-05
1.29472e-06
-5.36569e-21
5.07128e-08
5.46306e-08
1.16536e-08
1.56817e-08
9.30697e-08
1.64914e-07
1.61489e-07
1.18135e-07
8.42511e-08
5.96359e-08
2.84787e-08
2.74322e-08
1.62217e-06
2.85985e-06
4.55343e-06
8.57952e-07
2.36699e-07
9.51952e-08
1.3201e-07
1.10987e-07
1.09728e-07
1.13559e-07
3.05429e-07
6.23099e-07
3.69306e-07
7.42688e-09
7.54036e-09
2.40573e-08
4.87465e-08
1.01766e-07
8.83613e-08
6.28284e-08
4.02074e-08
3.01376e-08
1.70873e-08
8.73961e-07
9.7965e-07
3.83176e-07
2.03831e-07
1.13818e-07
9.13197e-08
1.05876e-07
1.07309e-07
1.05524e-07
2.22359e-07
5.47902e-07
7.18634e-07
7.16343e-07
1.2876e-07
7.42688e-09
7.54388e-09
1.96616e-08
4.84464e-08
4.84446e-08
3.8285e-08
2.8905e-08
1.75133e-08
1.24515e-08
7.51028e-07
4.28624e-07
2.07772e-07
9.25042e-08
8.77747e-08
8.61815e-08
8.9047e-08
7.72415e-08
5.82507e-08
1.11444e-07
3.6094e-07
6.27857e-07
5.87209e-07
2.26408e-07
9.76575e-09
7.44432e-09
9.47786e-09
1.87271e-08
2.27923e-08
1.95625e-08
1.51271e-08
1.2169e-08
7.7613e-09
4.67459e-07
4.45645e-07
2.17281e-07
9.26079e-08
7.74395e-08
7.53903e-08
7.01029e-08
5.7586e-08
4.07885e-08
5.73113e-08
1.47234e-07
3.29022e-07
3.30341e-07
9.68875e-08
2.80812e-08
1.46395e-08
9.4219e-09
9.61134e-09
1.10371e-08
1.05733e-08
8.84561e-09
6.37783e-09
5.18992e-09
3.36925e-07
3.72238e-07
2.02905e-07
9.10931e-08
6.91674e-08
6.00136e-08
5.16429e-08
4.04003e-08
3.08835e-08
3.76162e-08
5.78999e-08
7.8675e-08
6.72875e-08
4.11684e-08
2.38155e-08
1.30239e-08
8.71009e-09
7.74713e-09
7.23744e-09
6.69318e-09
5.56347e-09
4.61789e-09
3.5746e-09
2.05613e-07
2.77819e-07
1.53579e-07
8.34026e-08
6.05995e-08
4.64495e-08
3.72563e-08
2.8097e-08
2.22172e-08
2.45738e-08
3.06984e-08
3.0351e-08
2.12203e-08
1.80169e-08
1.34689e-08
9.16464e-09
7.01295e-09
5.92072e-09
5.14407e-09
4.55687e-09
3.91113e-09
3.13138e-09
2.65896e-09
1.22604e-07
1.75267e-07
1.16959e-07
7.38822e-08
5.3327e-08
3.78249e-08
2.78323e-08
2.02333e-08
1.58307e-08
1.55243e-08
1.67588e-08
1.50396e-08
1.14985e-08
9.07254e-09
7.25002e-09
5.90568e-09
4.8374e-09
4.09022e-09
3.42703e-09
2.99081e-09
2.57205e-09
2.21418e-09
1.86014e-09
6.81882e-08
1.07524e-07
8.5643e-08
6.29519e-08
4.55035e-08
3.10868e-08
2.19639e-08
1.54643e-08
1.14438e-08
9.66846e-09
8.6578e-09
7.22863e-09
5.60296e-09
4.57125e-09
3.93414e-09
3.44054e-09
2.92595e-09
2.46645e-09
2.06649e-09
1.81258e-09
1.5805e-09
1.30146e-09
1.15052e-09
4.96111e-08
7.86589e-08
6.94737e-08
5.30419e-08
3.84e-08
2.58056e-08
1.76262e-08
1.18935e-08
8.24468e-09
6.18765e-09
4.85091e-09
3.75271e-09
2.98517e-09
2.49261e-09
2.16681e-09
1.8982e-09
1.62356e-09
1.36322e-09
1.13972e-09
9.83352e-10
8.34534e-10
7.15438e-10
6.2818e-10
3.62416e-08
5.87593e-08
5.56492e-08
4.32101e-08
3.11399e-08
2.1335e-08
1.41176e-08
9.10899e-09
5.90451e-09
3.9664e-09
2.78198e-09
2.03672e-09
1.59169e-09
1.31812e-09
1.11911e-09
9.71168e-10
8.24528e-10
6.84929e-10
5.71596e-10
4.83628e-10
4.09409e-10
3.39801e-10
2.92722e-10
2.84236e-08
4.34492e-08
4.17012e-08
3.20413e-08
2.36211e-08
1.64396e-08
1.09371e-08
6.93045e-09
4.26567e-09
2.65994e-09
1.73135e-09
1.16873e-09
8.59084e-10
6.82076e-10
5.62458e-10
4.72341e-10
3.90298e-10
3.28059e-10
2.67974e-10
2.23711e-10
1.86297e-10
1.48004e-10
1.25846e-10
1.87398e-08
3.01479e-08
2.88388e-08
2.21256e-08
1.60934e-08
1.1339e-08
7.60728e-09
4.76935e-09
2.90208e-09
1.74847e-09
1.06204e-09
6.59895e-10
4.40375e-10
3.2137e-10
2.5196e-10
2.05361e-10
1.70922e-10
1.42881e-10
1.15918e-10
9.4614e-11
7.77365e-11
5.85342e-11
4.85302e-11
1.38213e-08
2.084e-08
1.84232e-08
1.42776e-08
1.03065e-08
7.15575e-09
4.77728e-09
2.96818e-09
1.77327e-09
1.03601e-09
6.02703e-10
3.5151e-10
2.17278e-10
1.44706e-10
1.05282e-10
8.19669e-11
6.69845e-11
5.513e-11
4.42823e-11
3.5777e-11
2.82613e-11
2.04339e-11
1.66284e-11
1.02781e-08
1.34231e-08
1.18009e-08
8.75987e-09
6.04914e-09
4.05372e-09
2.65049e-09
1.63864e-09
9.70008e-10
5.55318e-10
3.13448e-10
1.72505e-10
1.00007e-10
6.08253e-11
4.10719e-11
2.99133e-11
2.32891e-11
1.886e-11
1.51178e-11
1.20331e-11
9.25518e-12
6.64278e-12
5.18054e-12
6.36501e-09
8.46279e-09
6.99695e-09
4.91594e-09
3.19982e-09
2.05162e-09
1.29742e-09
7.89631e-10
4.58687e-10
2.5877e-10
1.39635e-10
7.58595e-11
4.04577e-11
2.35376e-11
1.47262e-11
9.94536e-12
7.35441e-12
5.78405e-12
4.5671e-12
3.63863e-12
2.70025e-12
1.90167e-12
1.45171e-12
4.15741e-09
5.02072e-09
3.80419e-09
2.508e-09
1.53318e-09
9.27674e-10
5.59219e-10
3.29755e-10
1.885e-10
1.03413e-10
5.37385e-11
2.78496e-11
1.49165e-11
8.16375e-12
4.73216e-12
3.05148e-12
2.13774e-12
1.64725e-12
1.25219e-12
9.63336e-13
7.24508e-13
4.93639e-13
3.55365e-13
2.33617e-09
2.55315e-09
1.84503e-09
1.13916e-09
6.51008e-10
3.66761e-10
2.08244e-10
1.18001e-10
6.61302e-11
3.48021e-11
1.78946e-11
9.21305e-12
4.71957e-12
2.49324e-12
1.37739e-12
8.34978e-13
5.45608e-13
4.04875e-13
3.01673e-13
2.24975e-13
1.55177e-13
1.095e-13
7.59914e-14
1.30267e-09
1.24498e-09
7.82091e-10
4.45988e-10
2.39061e-10
1.26882e-10
6.82454e-11
3.78776e-11
1.94402e-11
1.05756e-11
5.37955e-12
2.65091e-12
1.31228e-12
6.66035e-13
3.41143e-13
1.99687e-13
1.26728e-13
9.0419e-14
6.4747e-14
4.68514e-14
3.26201e-14
2.1384e-14
1.37567e-14
5.77787e-10
4.21244e-10
2.62267e-10
1.47096e-10
7.54081e-11
3.74675e-11
1.93561e-11
9.8016e-12
5.441e-12
2.79785e-12
1.39516e-12
6.52148e-13
3.10984e-13
1.48166e-13
7.67954e-14
4.28745e-14
2.68516e-14
1.82695e-14
1.28307e-14
8.59024e-15
5.65686e-15
3.63055e-15
2.18777e-15
2.32416e-10
1.57943e-10
8.84405e-11
4.53136e-11
2.21279e-11
1.04908e-11
5.15435e-12
2.65339e-12
1.36754e-12
6.6291e-13
3.13816e-13
1.44065e-13
6.5279e-14
3.07956e-14
1.56329e-14
8.66957e-15
5.29575e-15
3.45653e-15
2.31623e-15
1.47561e-15
9.16724e-16
5.35959e-16
2.98421e-16
6.95351e-11
4.56595e-11
2.53449e-11
1.2716e-11
6.04554e-12
2.79724e-12
1.32172e-12
6.43117e-13
3.05855e-13
1.46209e-13
6.5176e-14
2.8489e-14
1.28051e-14
5.93354e-15
2.94968e-15
1.59422e-15
9.52397e-16
6.02215e-16
3.8231e-16
2.27559e-16
1.29898e-16
6.91115e-17
3.72163e-17
1.79351e-11
1.05015e-11
5.49613e-12
2.78079e-12
1.3505e-12
6.32853e-13
2.9187e-13
1.37233e-13
6.40041e-14
2.97252e-14
1.29329e-14
5.44637e-15
2.3262e-15
1.03222e-15
4.97795e-16
2.65737e-16
1.56227e-16
9.5486e-17
5.69819e-17
3.15568e-17
1.61373e-17
8.08564e-18
5.91729e-18
2.619e-12
1.50173e-12
8.75691e-13
4.84214e-13
2.58448e-13
1.27741e-13
5.8034e-14
2.68757e-14
1.24898e-14
5.65816e-15
2.33033e-15
9.37487e-16
3.85342e-16
1.6567e-16
7.85359e-17
4.1542e-17
2.40842e-17
1.40922e-17
7.73487e-18
3.84821e-18
1.83895e-18
1.09856e-18
2.32907e-18
1.66181e-13
1.24077e-13
9.21817e-14
6.91316e-14
4.08671e-14
2.15168e-14
1.05956e-14
5.03153e-15
2.30535e-15
1.03539e-15
4.23454e-16
1.60905e-16
6.16636e-17
2.53798e-17
1.1738e-17
6.22769e-18
3.5591e-18
1.93293e-18
9.43418e-19
4.23109e-19
2.22428e-19
3.29477e-19
1.74766e-18
1.43405e-15
2.50031e-15
5.78606e-15
7.04395e-15
5.41676e-15
3.27507e-15
1.72381e-15
8.65615e-16
4.27841e-16
1.90836e-16
7.51362e-17
2.64941e-17
9.36224e-18
3.6846e-18
1.69058e-18
8.98031e-19
4.81315e-19
2.40427e-19
1.08025e-19
4.98166e-20
5.39755e-20
2.03353e-19
1.30258e-18
1.10357e-22
7.95961e-18
2.4196e-16
7.89108e-16
7.56396e-16
5.07899e-16
2.83135e-16
1.48365e-16
7.47534e-17
3.37754e-17
1.3114e-17
4.45018e-18
1.4718e-18
5.64271e-19
2.47718e-19
1.28597e-19
6.52754e-20
2.91651e-20
1.25087e-20
8.4486e-21
2.11843e-20
9.64518e-20
6.66632e-19
1.84433e-11
0.00072352
0.00802085
0.00742561
0.0114388
0.0325856
0.0529442
0.0365443
0.524758
0.624074
0.646108
0.613762
0.877886
0.862796
0.862844
0.882511
0.978004
0.98505
0.99815
0.999696
0.999976
0.99998
0.999991
0.999982
0.999997
0.999997
0.999994
0.999988
0.821771
0.840158
0.856737
0.873455
0.100202
0.110864
0.121248
0.131437
1.33574e-06
7.118e-07
3.26635e-07
6.01362e-07
1.60604e-07
1.71173e-07
1.78087e-07
1.75286e-07
2.28133e-07
2.36126e-07
2.46366e-07
2.62656e-07
1.83215e-07
1.95091e-07
1.84971e-07
2.05088e-07
1.01971e-07
1.27218e-07
1.31209e-07
1.30405e-07
6.83964e-08
6.95866e-08
7.82056e-08
8.15819e-08
3.19992e-08
3.78803e-08
4.32724e-08
4.6386e-08
1.35179e-08
1.78891e-08
2.18269e-08
2.35624e-08
8.37877e-09
7.7945e-09
8.39568e-09
1.01288e-08
5.52711e-09
4.4659e-09
4.48957e-09
4.39863e-09
3.54932e-09
2.95614e-09
2.56066e-09
2.48166e-09
2.82176e-09
2.15883e-09
1.94921e-09
1.74008e-09
2.1737e-09
1.881e-09
1.52498e-09
1.37409e-09
1.59617e-09
1.36484e-09
1.24117e-09
1.07871e-09
1.01782e-09
8.9418e-10
8.05004e-10
7.34698e-10
5.65514e-10
4.83895e-10
4.58755e-10
4.20587e-10
2.69652e-10
2.29388e-10
2.12949e-10
2.05832e-10
1.133e-10
9.8073e-11
9.32856e-11
8.32548e-11
4.34278e-11
3.56811e-11
3.18381e-11
3.12332e-11
1.52634e-11
1.25479e-11
1.15535e-11
9.94694e-12
4.5426e-12
3.82784e-12
3.2623e-12
2.98051e-12
1.22669e-12
1.04363e-12
9.12278e-13
7.85143e-13
2.92845e-13
2.36058e-13
2.0203e-13
1.72694e-13
6.15415e-14
5.0195e-14
4.05524e-14
3.24343e-14
1.05121e-14
8.42558e-15
6.80402e-15
5.26375e-15
1.64014e-15
1.26236e-15
9.70537e-16
7.17099e-16
2.16764e-16
1.63431e-16
1.31433e-16
1.08334e-16
2.80074e-17
2.47473e-17
2.69473e-17
3.87158e-17
6.3484e-18
8.63924e-18
1.57649e-17
3.65154e-17
3.64766e-18
6.91349e-18
1.76597e-17
5.23004e-17
3.13049e-18
7.58899e-18
2.42668e-17
7.86048e-17
2.69325e-18
8.35168e-18
3.03418e-17
9.86372e-17
1.94509e-18
6.86171e-18
2.3758e-17
7.33463e-17
0.00254761
0.00528206
0.0197816
0.0264968
0.0398366
0.398257
0.283236
0.0108689
5.11577e-08
2.18369e-09
7.95117e-05
0.018418
0.179787
0.0471797
0.000263699
0.00021201
0.00574435
0.114281
0.021455
0.00252711
0.00289348
0.0150385
0.0192345
0.0196076
0.26549
0.222208
0.00984111
0.031707
0.0207485
0.00866468
0.0088266
0.0219027
0.0263762
0.130018
0.306858
0.442238
0.330974
0.0929199
0.314598
0.244903
0.24845
0.121074
0.121683
0.46484
0.391121
0.235891
0.523304
0.71996
0.714806
0.62767
0.521605
0.673943
0.841439
0.904506
0.854486
0.740857
0.614784
0.909421
0.850865
0.819715
0.78649
0.836657
0.815922
0.747208
0.753201
0.928603
0.999557
0.999996
0.999972
0.999945
0.999951
0.999808
0.999636
0.991579
0.978334
0.987452
0.999161
0.992325
0.993164
0.998798
0.999858
0.975326
0.881708
0.894395
0.982363
0.999984
0.999996
0.999999
1
0.999999
0.999905
0.999751
0.99993
0.999932
0.999905
0.999985
0.999987
0.999996
0.999939
0.999938
0.999992
0.998283
0.999015
1
1
0.999999
0.999999
1
1
0.999992
0.999947
0.999967
0.999979
0.999979
0.999991
0.999996
0.999998
0.999998
0.999996
0.999996
0.999999
1
1
1
1
1
0.99999
0.999982
0.999993
0.999993
0.999866
0.999752
0.999891
0.899547
0.93564
0.963097
0.985982
1
0.999999
0.999999
1
1
1
1
1
0.999996
0.999983
0.999212
0.994072
0.988867
0.9864
0.990083
0.15039
0.181452
0.218344
0.263321
0.327014
0.408828
0.478637
0.528742
0.562776
0.590799
0.616876
0.640236
0.661274
0.673582
0.624465
0.539426
0.48914
0.4642
0.493362
6.66755e-07
7.55839e-07
9.46938e-07
1.56061e-06
2.53456e-06
2.58676e-06
0.00123309
0.0041716
0.00789057
0.0124715
0.0179063
0.0238011
0.0288255
0.0293045
0.00980573
5.2837e-18
8.80587e-24
1.23382e-20
9.00712e-15
1.88692e-07
2.4182e-07
1.48403e-06
0.000183124
0.000430658
0.000596557
0.000584118
0.000214318
2.14004e-21
4.9937e-17
-2.32599e-09
-1.03213e-07
-2.39885e-07
8.56967e-18
7.07531e-19
7.24922e-09
1.4199e-08
9.53322e-09
1.9567e-09
3.14998e-07
6.6752e-07
4.62333e-07
0.000316154
0.000830411
0.000831788
0.000831897
0.0002094
-9.4597e-23
-3.95065e-14
0.000293952
0.000573614
0.000568044
0.000405118
8.77346e-06
4.36406e-07
1.72564e-07
1.38903e-07
6.26062e-08
2.22014e-07
3.55266e-07
4.64166e-07
1.00931e-05
3.28981e-06
5.37198e-05
2.56916e-05
2.10168e-05
8.6833e-07
8.2359e-13
0.000184976
0.000521315
0.000434426
0.000176093
3.51123e-06
5.34988e-07
2.87817e-07
2.59796e-07
1.01938e-07
1.32725e-07
1.27832e-07
1.17176e-07
1.72513e-07
1.17696e-07
1.13548e-07
8.76523e-07
1.31955e-06
1.51692e-06
4.44966e-06
8.19903e-06
3.17853e-06
2.56716e-07
1.44514e-07
7.76769e-07
4.7287e-07
3.80311e-07
3.6236e-07
2.18121e-07
8.47321e-08
9.60959e-08
1.06309e-07
1.45223e-07
1.6664e-07
1.71971e-07
2.12599e-07
3.63799e-07
6.56014e-07
9.15794e-07
3.33407e-07
1.6345e-07
1.48647e-07
1.44203e-07
3.03296e-07
3.22712e-07
3.58201e-07
3.72866e-07
3.49386e-07
5.14637e-08
7.26021e-08
1.06418e-07
1.61462e-07
2.05738e-07
2.18745e-07
1.94693e-07
1.83255e-07
2.24765e-07
2.49519e-07
2.72183e-07
2.2208e-07
1.90104e-07
1.44535e-07
1.98995e-07
2.30526e-07
2.4772e-07
3.08451e-07
3.31478e-07
2.64098e-08
3.66765e-08
5.5329e-08
8.86629e-08
1.29398e-07
1.61078e-07
1.64879e-07
1.46303e-07
1.35913e-07
1.58194e-07
1.96711e-07
1.91085e-07
1.49225e-07
1.06798e-07
1.07553e-07
1.1173e-07
1.28109e-07
1.46452e-07
1.47831e-07
1.19929e-08
1.49667e-08
1.89704e-08
2.55402e-08
3.55316e-08
4.72232e-08
5.57596e-08
5.65356e-08
5.5084e-08
6.21792e-08
7.90915e-08
8.99818e-08
7.89564e-08
5.63629e-08
4.84079e-08
5.06586e-08
4.90766e-08
4.18721e-08
3.64074e-08
4.89177e-09
6.72114e-09
8.26808e-09
9.30615e-09
9.77103e-09
9.92849e-09
1.10065e-08
1.41184e-08
1.89636e-08
2.34901e-08
2.75623e-08
3.04429e-08
3.04116e-08
2.71655e-08
2.30688e-08
2.03699e-08
1.8267e-08
1.72762e-08
1.67198e-08
2.42119e-09
2.91087e-09
3.99879e-09
5.10248e-09
6.26463e-09
7.34556e-09
8.3103e-09
9.42346e-09
1.07498e-08
1.20027e-08
1.27951e-08
1.30775e-08
1.33245e-08
1.31266e-08
1.33688e-08
1.39949e-08
1.49415e-08
1.78714e-08
1.92167e-08
1.57593e-09
1.46542e-09
1.66562e-09
2.16818e-09
2.74701e-09
3.41964e-09
4.13633e-09
4.84608e-09
5.55371e-09
6.14799e-09
6.51852e-09
6.79969e-09
7.21299e-09
8.15428e-09
9.66735e-09
1.28577e-08
1.68302e-08
2.56016e-08
4.07035e-08
1.22048e-09
1.02939e-09
9.31982e-10
9.16109e-10
1.07577e-09
1.33783e-09
1.64664e-09
1.98579e-09
2.34484e-09
2.74738e-09
3.14423e-09
3.6115e-09
4.32345e-09
5.56915e-09
8.07388e-09
1.31963e-08
2.23364e-08
4.5957e-08
6.51719e-08
9.2773e-10
7.6269e-10
6.35528e-10
5.4927e-10
5.16194e-10
5.40453e-10
6.51116e-10
8.06136e-10
1.01618e-09
1.29585e-09
1.632e-09
2.09315e-09
2.80926e-09
4.04983e-09
6.5673e-09
1.26534e-08
2.70271e-08
6.31213e-08
8.40521e-08
6.35215e-10
5.17304e-10
4.29394e-10
3.4813e-10
2.88396e-10
2.59993e-10
2.67089e-10
3.2932e-10
4.52332e-10
6.42181e-10
9.1089e-10
1.31345e-09
1.96955e-09
3.13152e-09
5.64712e-09
1.26656e-08
3.12851e-08
8.34003e-08
8.3931e-08
3.57676e-10
3.03343e-10
2.50397e-10
2.00657e-10
1.63189e-10
1.38288e-10
1.36661e-10
1.63089e-10
2.31816e-10
3.60298e-10
5.71139e-10
9.11045e-10
1.48107e-09
2.47445e-09
4.6738e-09
1.12814e-08
3.33803e-08
8.49265e-08
8.10573e-08
1.72279e-10
1.43337e-10
1.19139e-10
9.74844e-11
7.83286e-11
6.73394e-11
6.93134e-11
8.92625e-11
1.36688e-10
2.30857e-10
3.99502e-10
6.9572e-10
1.20768e-09
2.11479e-09
4.05748e-09
1.04248e-08
3.391e-08
9.26246e-08
4.99844e-08
6.89682e-11
5.7705e-11
4.70047e-11
3.79055e-11
3.12273e-11
2.90144e-11
3.41627e-11
5.1107e-11
8.90084e-11
1.6532e-10
3.097e-10
5.76333e-10
1.04923e-09
1.88438e-09
3.64524e-09
9.71115e-09
3.69387e-08
9.44719e-08
4.06444e-08
2.49351e-11
1.94617e-11
1.56722e-11
1.23865e-11
1.08381e-11
1.17644e-11
1.74233e-11
3.13308e-11
6.42001e-11
1.29055e-10
2.58891e-10
5.10901e-10
9.68651e-10
1.7903e-09
3.39674e-09
9.53503e-09
3.93124e-08
9.526e-08
3.10174e-08
7.69578e-12
5.89031e-12
4.41279e-12
3.53243e-12
3.59187e-12
5.4012e-12
1.0594e-11
2.266e-11
5.09348e-11
1.10353e-10
2.33781e-10
4.86118e-10
9.60161e-10
1.79272e-09
3.37855e-09
9.35207e-09
4.2551e-08
9.4136e-08
2.52912e-08
2.19273e-12
1.57377e-12
1.13495e-12
1.04946e-12
1.52486e-12
3.2728e-12
7.7502e-12
1.87985e-11
4.38596e-11
1.01563e-10
2.26395e-10
4.88531e-10
9.94328e-10
1.87034e-09
3.48218e-09
9.68643e-09
4.2185e-08
8.19524e-08
1.41334e-08
5.36651e-13
3.55813e-13
2.78406e-13
3.89341e-13
9.18632e-13
2.45442e-12
6.51818e-12
1.65258e-11
4.07894e-11
9.87156e-11
2.29933e-10
5.0747e-10
1.0555e-09
2.02928e-09
3.69576e-09
9.62134e-09
3.9788e-08
4.20804e-08
9.31548e-09
1.12271e-13
7.59462e-14
8.80409e-14
2.22884e-13
7.06425e-13
2.07993e-12
5.83388e-12
1.54627e-11
3.93054e-11
1.00171e-10
2.40666e-10
5.41752e-10
1.15066e-09
2.22695e-09
3.98882e-09
1.07805e-08
2.89507e-08
2.51331e-08
4.02367e-09
2.00466e-14
1.80324e-14
4.64246e-14
1.78097e-13
6.07056e-13
1.87811e-12
5.43792e-12
1.51564e-11
4.03342e-11
1.04185e-10
2.57453e-10
5.9016e-10
1.24613e-09
2.42769e-09
4.25154e-09
1.07943e-08
2.22972e-08
6.28007e-09
2.76593e-09
3.70224e-15
8.66194e-15
3.92068e-14
1.63779e-13
5.68671e-13
1.81659e-12
5.46669e-12
1.55365e-11
4.21875e-11
1.0973e-10
2.75572e-10
6.32251e-10
1.34211e-09
2.55033e-09
4.45106e-09
1.02371e-08
1.22322e-08
8.2465e-09
1.4364e-09
1.24154e-15
7.54376e-15
3.85437e-14
1.58325e-13
5.62659e-13
1.82154e-12
5.60396e-12
1.61933e-11
4.44549e-11
1.16431e-10
2.89963e-10
6.63279e-10
1.38869e-09
2.60567e-09
4.50264e-09
8.47983e-09
8.70901e-09
3.39036e-09
9.73554e-10
9.94013e-16
7.53545e-15
3.77623e-14
1.57747e-13
5.6013e-13
1.87129e-12
5.69544e-12
1.64499e-11
4.54117e-11
1.18822e-10
2.95023e-10
6.65589e-10
1.38067e-09
2.53257e-09
4.08917e-09
6.55815e-09
4.92499e-09
2.5272e-09
4.49956e-10
1.06842e-15
7.70787e-15
3.74084e-14
1.55334e-13
5.51074e-13
1.82594e-12
5.57381e-12
1.60405e-11
4.37514e-11
1.14132e-10
2.81562e-10
6.25886e-10
1.2759e-09
2.29884e-09
3.45945e-09
4.73732e-09
3.38794e-09
9.73074e-10
2.79688e-10
1.1636e-15
7.75843e-15
3.61457e-14
1.44463e-13
5.11845e-13
1.65079e-12
5.04747e-12
1.43659e-11
3.90244e-11
1.0139e-10
2.46782e-10
5.46752e-10
1.09185e-09
1.89484e-09
2.70835e-09
2.96419e-09
1.67828e-09
6.07635e-10
1.32831e-10
1.24848e-15
7.15546e-15
3.16055e-14
1.20933e-13
4.1766e-13
1.33215e-12
4.01407e-12
1.14034e-11
3.09949e-11
8.05428e-11
1.96483e-10
4.27608e-10
8.34937e-10
1.42589e-09
1.81413e-09
1.80666e-09
9.19842e-10
2.2977e-10
7.6367e-11
1.1493e-15
5.76436e-15
2.3169e-14
8.20746e-14
2.73596e-13
8.51329e-13
2.57969e-12
7.55029e-12
2.08098e-11
5.46853e-11
1.33422e-10
2.9618e-10
5.85664e-10
9.3677e-10
1.10195e-09
9.76533e-10
3.84848e-10
1.16294e-10
3.91098e-11
7.9163e-16
3.37965e-15
1.23082e-14
4.08711e-14
1.34652e-13
4.33912e-13
1.34227e-12
4.02108e-12
1.14895e-11
3.14874e-11
7.92217e-11
1.76778e-10
3.3649e-10
5.43345e-10
6.06499e-10
4.39273e-10
1.43201e-10
4.60439e-11
1.23117e-11
2.92144e-16
1.03578e-15
3.32946e-15
1.04741e-14
3.96272e-14
1.39278e-13
4.81827e-13
1.55175e-12
4.7557e-12
1.36254e-11
3.57418e-11
8.29658e-11
1.57138e-10
2.40834e-10
2.41948e-10
1.32938e-10
4.07691e-11
8.43788e-12
5.4402e-13
)
;

boundaryField
{
    leftWall
    {
        type            alphaContactAngle;
        contactAngleProperties 
        {
            mercury         
            {
                theta0          90;
            }
            air             
            {
                theta0          90;
            }
            water           
            {
                theta0          90;
            }
        }
        value           nonuniform List<scalar> 
50
(
5.48546e-14
4.35446e-14
9.29937e-14
9.0694e-14
8.97953e-11
7.27359e-10
2.61443e-09
3.63016e-09
2.958e-09
1.00589e-09
8.06436e-21
0.0743918
0.750075
0.967291
0.999421
0.953788
0.267111
1.09025e-07
1.42157e-06
1.29786e-06
1.84594e-06
3.68993e-06
3.24638e-06
2.27576e-06
1.62217e-06
8.73961e-07
7.51028e-07
4.67459e-07
3.36925e-07
2.05613e-07
1.22604e-07
6.81882e-08
4.96111e-08
3.62416e-08
2.84236e-08
1.87398e-08
1.38213e-08
1.02781e-08
6.36501e-09
4.15741e-09
2.33617e-09
1.30267e-09
5.77787e-10
2.32416e-10
6.95351e-11
1.79351e-11
2.619e-12
1.66181e-13
1.43405e-15
1.10357e-22
)
;
    }
    rightWall
    {
        type            alphaContactAngle;
        contactAngleProperties 
        {
            mercury         
            {
                theta0          90;
            }
            air             
            {
                theta0          90;
            }
            water           
            {
                theta0          90;
            }
        }
        value           nonuniform List<scalar> 
50
(
0.222673
0.222804
0.449829
0.449886
0.30287
0.168469
0.00742675
0.000700931
0.021455
0.0929199
0.614784
0.987452
0.999905
0.999979
0.999891
0.990083
0.493362
9.00712e-15
1.9567e-09
6.26062e-08
1.01938e-07
2.18121e-07
3.49386e-07
3.31478e-07
1.47831e-07
3.64074e-08
1.67198e-08
1.92167e-08
4.07035e-08
6.51719e-08
8.40521e-08
8.3931e-08
8.10573e-08
4.99844e-08
4.06444e-08
3.10174e-08
2.52912e-08
1.41334e-08
9.31548e-09
4.02367e-09
2.76593e-09
1.4364e-09
9.73554e-10
4.49956e-10
2.79688e-10
1.32831e-10
7.6367e-11
3.91098e-11
1.23117e-11
5.4402e-13
)
;
    }
    lowerWall
    {
        type            alphaContactAngle;
        contactAngleProperties 
        {
            mercury         
            {
                theta0          90;
            }
            air             
            {
                theta0          90;
            }
            water           
            {
                theta0          90;
            }
        }
        value           nonuniform List<scalar> 
62
(
5.48546e-14
2.95708e-13
1.07968e-12
2.87448e-12
7.7416e-12
1.58171e-11
3.05029e-11
5.80294e-11
1.08182e-10
2.00882e-10
3.7241e-10
6.94081e-10
1.30059e-09
2.38905e-09
4.091e-09
6.25291e-09
8.75367e-09
9.76463e-09
9.28365e-09
0.000241215
0.000549266
0.000549824
0.000522795
0.000522795
5.54114e-09
1.55405e-08
2.85694e-07
7.21736e-06
2.27496e-05
2.3013e-05
7.55967e-06
1.84433e-11
0.00072352
0.00802085
0.00742561
0.112668
0.113326
0.354237
0.446182
0.42764
0.111576
0.0269939
0.0240385
0.112668
0.06175
0.0397935
0.0405763
0.155479
0.285575
0.285597
0.282549
0.262767
0.259843
0.272097
0.244097
0.115411
0.0611759
0.0752277
0.110309
0.193088
0.230912
0.222673
)
;
    }
    atmosphere
    {
        type            inletOutlet;
        inletValue      uniform 0;
        value           nonuniform List<scalar> 
46
(
0
0
0
7.89108e-16
7.56396e-16
5.07899e-16
2.83135e-16
1.48365e-16
7.47535e-17
3.37754e-17
1.3114e-17
4.45018e-18
1.4718e-18
5.64271e-19
2.47718e-19
0
0
0
0
0
0
0
0
0
0
0
0
0
0
0
1.04741e-14
3.96272e-14
1.39278e-13
4.81827e-13
1.55175e-12
4.7557e-12
1.36254e-11
3.57418e-11
8.29658e-11
1.57138e-10
0
0
0
0
0
0
)
;
    }
    defaultFaces
    {
        type            empty;
    }
}


// ************************************************************************* //
