/*--------------------------------*- C++ -*----------------------------------*\
  =========                 |
  \\      /  F ield         | OpenFOAM: The Open Source CFD Toolbox
   \\    /   O peration     | Website:  https://openfoam.org
    \\  /    A nd           | Version:  13
     \\/     M anipulation  |
\*---------------------------------------------------------------------------*/
FoamFile
{
    format      ascii;
    class       volScalarField;
    location    "2.85";
    object      alpha.mercury;
}
// * * * * * * * * * * * * * * * * * * * * * * * * * * * * * * * * * * * * * //

dimensions      [];

internalField   nonuniform List<scalar> 
2268
(
1
1
1
1
1
1
1
1
1
1
1
1
1
1
1
1
1
1
1
0.999759
0.999451
0.99945
0.999477
1
1
1
1
1
1
1
1
1
1
1
1
1
1
1
1
1
1
0.999998
0.999978
0.999942
0.999929
1
1
1
1
1
1
1
1
1
1
1
1
1
1
1
1
1
1
1
1
1
1
1
1
1
1
1
1
1
1
1
1
1
1
1
1
1
1
1
1
1
1
1
1
1
1
1
1
1
1
1
1
1
1
1
1
1
1
1
1
1
1
1
1
1
1
1
1
1
0.999993
0.891066
0.874216
0.868976
0.877881
0.89465
0.91918
0.948071
0.974281
0.995037
1
1
0.999702
1
1
1
1
1
1
0.999999
0.999999
0.999998
0.998575
0.996273
0.166462
0.145976
0.140788
0.150918
0.169984
0.196396
0.231158
0.277732
0.334925
0.404366
0.475009
0.541047
0.596999
0.636624
0.657387
0.661814
0.655372
0.640002
0.619453
0.591164
0.55057
0.497917
0.462836
1.60833e-07
1.21357e-07
1.72675e-07
4.0101e-07
5.77391e-07
4.81409e-11
3.02343e-08
2.91233e-07
2.67419e-07
2.10755e-07
0.00112909
0.00224626
0.00187348
0.00207481
0.00372099
0.00601782
0.00664053
0.00607727
0.00290863
0
0
-3.37555e-08
-5.71268e-09
0.877978
0.877977
0.877977
0.877973
0.777973
0.656509
0.656855
0.668561
0.690995
0.693778
0.650933
0.643348
0.692921
0.752719
0.752717
0.752719
0.752716
0.752718
0.752715
0.877976
0.877981
0.87798
0.845293
0.820414
0.822179
0.824298
0.824801
0.82473
0.824493
0.766013
0.680347
0.752699
0.752691
0.752708
0.752716
0.752718
0.752715
0.75261
0.637296
0.636584
0.585351
0.474038
0.468683
0.506699
0.474203
0.456494
0.430273
0.543804
0.572237
0.596723
0.542789
0.574933
0.605513
0.614487
0.582372
0.542008
0.498869
0.523249
0.42341
0.253979
0.14873
0.0902029
0.0587125
0.0366073
0.0304209
0.0812434
0.0593954
0.175754
0.248769
0.250533
0.199788
0.145704
0.0907209
0.0995103
0.134457
0.218886
0.139763
0.0873434
0.0928573
0.112076
0.0624351
0.0317308
0.0316333
0.0305435
0.0304988
0.00986215
0.00127379
0.0264611
0.102049
0.0543795
2.38941e-12
3.36129e-12
1.46959e-12
2.8399e-12
1.46959e-12
0.0503508
0.0712023
0.0705283
0.0781844
0.0996886
0.0669389
0.072395
0.0768773
0.0576228
0.0153286
0.00122017
0.000275221
0.00329332
2.4069e-05
2.40862e-12
3.52897e-06
6.42236e-07
1.50324e-06
3.86069e-07
0.0504806
0.0433242
0.0377341
0.045025
0.08895
0.0882009
0.0785238
0.0784916
0.029672
0.00823932
0.000503031
0.000189504
7.10939e-08
7.13966e-08
4.33156e-07
8.35633e-06
7.47995e-07
1.27909e-05
9.33919e-07
0.0325744
0.0304087
0.0268379
0.0143175
0.0171057
0.0818117
0.0823328
0.0355386
0.00028148
0.000414015
0.000492583
0.00012798
7.1102e-08
7.10941e-08
2.01455e-07
8.42685e-06
2.47317e-06
0.000120565
5.43993e-06
2.37546e-10
2.36767e-10
1.68392e-08
1.49681e-07
1.37685e-07
2.56494e-10
-1.35931e-11
-5.70352e-12
2.32004e-21
-5.48672e-25
3.83012e-08
8.95511e-28
1.1006e-26
2.73887e-27
1.54702e-26
6.66971e-27
-1.33394e-26
9.09016e-27
-4.50835e-27
5.54992e-30
-1.92373e-24
-5.45352e-07
-1.0129e-07
3.16325e-10
3.68415e-10
1.7979e-09
6.43708e-10
1.14322e-09
8.19119e-10
7.78536e-10
7.08418e-10
6.44499e-10
6.88819e-10
8.97802e-10
9.96605e-10
8.18656e-10
1.40452e-09
3.39622e-09
3.6219e-09
4.30883e-09
6.08838e-09
3.33279e-09
5.35706e-14
1.46975e-07
4.73236e-07
2.50066e-07
3.66617e-10
4.26857e-10
5.34758e-10
6.56664e-10
8.85219e-10
9.65163e-10
1.02938e-09
1.0395e-09
1.0381e-09
1.02268e-09
1.0031e-09
9.40732e-10
7.92722e-10
6.88309e-10
6.9028e-10
7.26817e-10
1.00314e-09
2.09041e-09
1.8667e-09
8.52079e-12
3.91984e-07
7.46785e-07
6.55426e-07
4.23624e-10
4.72498e-10
5.57138e-10
6.33979e-10
7.2303e-10
8.00415e-10
8.72466e-10
9.32111e-10
9.67246e-10
1.03288e-09
1.10817e-09
1.19184e-09
1.2395e-09
1.27292e-09
1.31859e-09
1.44406e-09
1.84808e-09
2.83297e-09
3.64655e-09
2.74746e-09
2.70811e-09
9.57979e-08
1.12256e-07
4.60304e-10
4.98476e-10
5.50418e-10
6.10906e-10
6.89238e-10
8.33746e-10
9.8711e-10
1.10912e-09
1.21647e-09
1.3863e-09
1.58532e-09
1.71093e-09
1.7798e-09
1.77465e-09
1.75158e-09
1.92495e-09
2.7178e-09
4.18317e-09
4.28017e-09
6.06607e-09
3.91239e-09
1.56206e-07
4.59819e-06
4.65678e-10
4.87875e-10
5.20301e-10
5.96245e-10
7.50123e-10
9.56361e-10
1.07147e-09
1.13721e-09
1.19255e-09
1.26468e-09
1.3416e-09
1.3928e-09
1.38827e-09
1.32206e-09
1.39651e-09
2.11023e-09
3.41166e-09
4.28857e-09
4.29174e-09
9.64379e-09
2.71007e-08
5.72093e-07
7.19206e-06
4.649e-10
4.49406e-10
4.02367e-10
4.53762e-10
5.46037e-10
5.81166e-10
5.37335e-10
4.99376e-10
5.16192e-10
5.92396e-10
6.99893e-10
8.13854e-10
9.47959e-10
1.0742e-09
1.24906e-09
1.41496e-09
2.14693e-09
3.80152e-09
3.3883e-09
3.40329e-09
1.72287e-07
2.83893e-07
7.26491e-08
4.63004e-10
4.37426e-10
3.43392e-10
2.64043e-10
2.39676e-10
1.90074e-10
1.36421e-10
1.24774e-10
1.32697e-10
1.82271e-10
2.71163e-10
3.83458e-10
5.26067e-10
6.84653e-10
7.63262e-10
8.8543e-10
2.03134e-09
5.41083e-09
6.19703e-09
3.91504e-09
9.37531e-10
1.58259e-09
1.44236e-09
4.4425e-10
4.37427e-10
3.37331e-10
1.84156e-10
1.03314e-10
5.95965e-11
3.68565e-11
3.28697e-11
3.57075e-11
5.25113e-11
7.30672e-11
8.40953e-11
8.74065e-11
8.84631e-11
9.5446e-11
1.24564e-10
1.26283e-10
1.34938e-10
1.99379e-10
2.90413e-10
3.91102e-10
8.20708e-10
1.93298e-09
3.49442e-10
3.98932e-10
3.20691e-10
1.91582e-10
8.48566e-11
5.34783e-11
3.05651e-11
2.74406e-11
2.38642e-11
2.11447e-11
1.88437e-11
1.6648e-11
1.45477e-11
1.33877e-11
1.28707e-11
1.29351e-11
1.36806e-11
2.04528e-11
7.82045e-11
3.01802e-10
6.59346e-10
1.23293e-09
2.28324e-09
2.69232e-10
3.25778e-10
2.8816e-10
1.56388e-10
9.3863e-11
7.58422e-11
5.85981e-11
3.84413e-11
2.63015e-11
1.95885e-11
1.45776e-11
1.14885e-11
9.1468e-12
7.61194e-12
6.83619e-12
7.01961e-12
1.02042e-11
4.67047e-11
1.42803e-10
2.99379e-10
6.33333e-10
1.08425e-09
1.6547e-09
2.42622e-10
3.07899e-10
2.46672e-10
1.60649e-10
1.35678e-10
1.23519e-10
1.00761e-10
7.9359e-11
4.9476e-11
2.95801e-11
1.81217e-11
1.18711e-11
8.26535e-12
5.64609e-12
4.09637e-12
3.69229e-12
3.84028e-12
8.40131e-12
2.75116e-11
6.26779e-11
1.40814e-10
1.97452e-10
2.39449e-10
2.46442e-10
3.10007e-10
2.68059e-10
1.98683e-10
1.91225e-10
1.83964e-10
1.57425e-10
1.22269e-10
8.40685e-11
4.52291e-11
2.29622e-11
1.35971e-11
8.61342e-12
5.44673e-12
3.53498e-12
2.73378e-12
2.09481e-12
1.79308e-12
1.82509e-12
2.44524e-12
5.42481e-12
2.01361e-11
2.35246e-11
2.52856e-10
3.2592e-10
3.10302e-10
2.69585e-10
2.52915e-10
2.27611e-10
1.89627e-10
1.55146e-10
1.04078e-10
6.31096e-11
3.03863e-11
1.65817e-11
9.9514e-12
6.1622e-12
3.82331e-12
2.59813e-12
1.77411e-12
1.34241e-12
1.17126e-12
1.19068e-12
1.60539e-12
2.49039e-12
2.93759e-12
2.4917e-10
3.523e-10
3.67852e-10
3.3415e-10
2.94751e-10
2.59905e-10
2.04003e-10
1.60545e-10
1.14129e-10
6.49553e-11
3.61517e-11
2.22087e-11
1.25701e-11
8.41805e-12
5.01311e-12
2.66709e-12
1.54884e-12
1.19045e-12
9.01451e-13
7.64586e-13
7.73563e-13
9.97446e-13
2.56949e-12
2.36958e-10
3.54673e-10
3.80336e-10
3.65036e-10
3.14558e-10
2.70943e-10
2.07043e-10
1.54019e-10
1.06796e-10
6.87639e-11
3.95487e-11
2.28515e-11
1.48349e-11
9.6384e-12
5.79143e-12
3.43602e-12
1.8026e-12
1.09263e-12
8.53528e-13
6.62546e-13
5.5069e-13
5.59716e-13
1.8665e-12
2.15737e-10
3.44945e-10
3.80289e-10
3.58608e-10
3.06966e-10
2.50594e-10
1.93787e-10
1.34735e-10
9.53174e-11
6.46512e-11
4.20575e-11
2.41144e-11
1.52702e-11
9.34724e-12
6.02098e-12
3.88218e-12
2.05216e-12
1.23631e-12
8.12146e-13
6.39882e-13
4.69255e-13
3.86015e-13
6.07877e-13
1.86917e-10
3.19589e-10
3.56612e-10
3.29197e-10
2.71282e-10
2.16216e-10
1.52322e-10
1.12621e-10
7.86595e-11
5.26827e-11
3.2757e-11
2.3586e-11
1.58472e-11
9.29245e-12
5.9662e-12
3.29557e-12
2.19268e-12
1.33226e-12
8.04846e-13
6.34816e-13
4.60733e-13
3.12041e-13
2.5574e-13
1.59977e-10
2.73305e-10
3.09762e-10
2.78261e-10
2.29893e-10
1.76502e-10
1.16951e-10
9.01477e-11
6.64409e-11
4.11902e-11
2.58273e-11
1.6758e-11
1.11951e-11
7.91411e-12
5.23877e-12
3.27392e-12
2.18069e-12
1.31113e-12
8.26572e-13
6.01547e-13
4.30141e-13
3.06393e-13
2.11112e-13
1.29656e-10
2.26815e-10
2.61858e-10
2.31535e-10
1.86718e-10
1.4364e-10
9.84117e-11
6.99245e-11
4.97155e-11
2.79261e-11
1.71372e-11
1.17928e-11
8.02148e-12
5.7245e-12
3.88646e-12
2.7566e-12
1.84793e-12
1.25549e-12
7.84817e-13
5.54913e-13
4.01212e-13
2.68829e-13
1.98999e-13
1.0473e-10
1.82117e-10
2.11706e-10
1.84021e-10
1.46698e-10
1.11635e-10
7.72602e-11
5.34861e-11
3.68003e-11
1.88417e-11
1.0867e-11
7.45057e-12
5.46553e-12
3.88535e-12
2.83165e-12
2.02796e-12
1.40688e-12
9.97977e-13
6.98147e-13
4.86169e-13
3.3587e-13
2.39639e-13
1.69802e-13
8.24293e-11
1.4039e-10
1.60227e-10
1.38824e-10
1.09401e-10
8.17522e-11
5.68961e-11
3.90085e-11
2.6076e-11
1.34699e-11
7.61141e-12
4.82135e-12
3.61054e-12
2.66008e-12
1.93409e-12
1.38482e-12
9.98058e-13
7.35101e-13
5.33499e-13
3.80393e-13
2.68451e-13
1.82279e-13
1.36099e-13
6.26445e-11
1.01578e-10
1.1578e-10
9.96852e-11
7.80601e-11
5.72053e-11
3.97892e-11
2.71125e-11
1.78397e-11
1.00894e-11
5.1287e-12
3.59073e-12
2.47277e-12
1.74648e-12
1.25014e-12
8.93915e-13
6.49792e-13
4.95816e-13
3.66248e-13
2.66781e-13
1.87468e-13
1.33881e-13
9.69267e-14
4.46821e-11
7.0004e-11
7.71512e-11
6.61172e-11
5.15219e-11
3.77745e-11
2.66723e-11
1.82497e-11
1.19331e-11
7.04414e-12
4.13549e-12
2.61568e-12
1.68238e-12
1.12696e-12
7.71438e-13
5.37632e-13
3.91503e-13
2.99661e-13
2.25444e-13
1.67326e-13
1.19803e-13
8.14694e-14
6.13662e-14
3.11999e-11
4.73477e-11
5.00162e-11
4.17945e-11
3.22529e-11
2.35952e-11
1.6879e-11
1.17014e-11
7.74674e-12
4.85983e-12
2.99876e-12
1.84722e-12
1.14549e-12
7.21531e-13
4.60589e-13
3.09777e-13
2.21631e-13
1.6538e-13
1.23144e-13
9.14545e-14
6.43851e-14
4.59017e-14
3.38861e-14
2.0673e-11
3.09062e-11
3.10789e-11
2.55603e-11
1.946e-11
1.42857e-11
1.01986e-11
7.09644e-12
4.7873e-12
3.12879e-12
2.00391e-12
1.25054e-12
7.59248e-13
4.56356e-13
2.69692e-13
1.70711e-13
1.14726e-13
8.11768e-14
5.85842e-14
4.27569e-14
3.09077e-14
2.15115e-14
1.57935e-14
1.37429e-11
1.95146e-11
1.85979e-11
1.48748e-11
1.13006e-11
8.28692e-12
5.92225e-12
4.13195e-12
2.81945e-12
1.9003e-12
1.25664e-12
7.92939e-13
4.85135e-13
2.87091e-13
1.63187e-13
9.49292e-14
5.73687e-14
3.8006e-14
2.53637e-14
1.79952e-14
1.28497e-14
8.79254e-15
6.45442e-15
8.40703e-12
1.17851e-11
1.06866e-11
8.30336e-12
6.15448e-12
4.45834e-12
3.15517e-12
2.19055e-12
1.52108e-12
1.04847e-12
7.05546e-13
4.51844e-13
2.77654e-13
1.63815e-13
9.18656e-14
5.04934e-14
2.86346e-14
1.72371e-14
1.04389e-14
6.84138e-15
4.80092e-15
3.06386e-15
2.2471e-15
5.3879e-12
6.99936e-12
5.86749e-12
4.43174e-12
3.20036e-12
2.2499e-12
1.5551e-12
1.05529e-12
7.2505e-13
5.00686e-13
3.40095e-13
2.20745e-13
1.38384e-13
8.25742e-14
4.69534e-14
2.52189e-14
1.35989e-14
7.46742e-15
4.09104e-15
2.43364e-15
1.5463e-15
9.30398e-16
6.652e-16
3.46086e-12
3.96246e-12
3.18525e-12
2.27675e-12
1.56295e-12
1.0487e-12
6.97292e-13
4.62313e-13
3.12118e-13
2.13822e-13
1.45344e-13
9.37906e-14
5.93981e-14
3.55436e-14
2.06356e-14
1.11817e-14
5.80785e-15
3.00278e-15
1.49395e-15
7.93653e-16
4.6759e-16
2.64252e-16
1.78266e-16
1.96135e-12
2.18315e-12
1.63744e-12
1.09686e-12
7.05578e-13
4.48755e-13
2.84462e-13
1.82181e-13
1.18789e-13
7.98237e-14
5.29039e-14
3.4631e-14
2.14163e-14
1.31671e-14
7.69296e-15
4.16604e-15
2.13455e-15
1.06606e-15
4.99498e-16
2.47191e-16
1.27227e-16
6.84679e-17
4.35748e-17
1.13518e-12
1.14699e-12
7.88052e-13
4.9081e-13
2.94201e-13
1.75633e-13
1.05149e-13
6.41106e-14
4.03017e-14
2.60347e-14
1.67725e-14
1.07714e-14
6.89027e-15
4.19309e-15
2.40647e-15
1.32676e-15
6.67853e-16
3.314e-16
1.44884e-16
6.63377e-17
3.2752e-17
1.62237e-17
9.35651e-18
5.73401e-13
5.31178e-13
3.4513e-13
1.99339e-13
1.10592e-13
6.11983e-14
3.43212e-14
1.98338e-14
1.20142e-14
7.37256e-15
4.71872e-15
3.06422e-15
1.92947e-15
1.16816e-15
6.64793e-16
3.58323e-16
1.71545e-16
8.28964e-17
3.51251e-17
1.52578e-17
6.59047e-18
3.22045e-18
1.74408e-18
2.85404e-13
2.36393e-13
1.33918e-13
7.07102e-14
3.63283e-14
1.88488e-14
9.99717e-15
5.62442e-15
3.07766e-15
1.94401e-15
1.23794e-15
7.83117e-16
4.82975e-16
2.85904e-16
1.53803e-16
8.11546e-17
3.82452e-17
1.7794e-17
7.27517e-18
2.96739e-18
1.26041e-18
5.59981e-19
2.7441e-19
1.13504e-13
7.34065e-14
4.1178e-14
2.12243e-14
1.03047e-14
4.97139e-15
2.53645e-15
1.30369e-15
7.78757e-16
4.64438e-16
2.88478e-16
1.75122e-16
1.04996e-16
5.91547e-17
3.22392e-17
1.62284e-17
7.5706e-18
3.2651e-18
1.30615e-18
4.68808e-19
1.89044e-19
8.19902e-20
3.69804e-20
4.1224e-14
2.53114e-14
1.28545e-14
6.02834e-15
2.76593e-15
1.26677e-15
6.17497e-16
3.26502e-16
1.80849e-16
1.01652e-16
6.01645e-17
3.59159e-17
2.07411e-17
1.16017e-17
6.15737e-18
3.01023e-18
1.33834e-18
5.38656e-19
2.01851e-19
6.8083e-20
2.53509e-20
9.99084e-21
4.13826e-21
1.11726e-14
6.7532e-15
3.44622e-15
1.58693e-15
7.05237e-16
3.13828e-16
1.47538e-16
7.41235e-17
3.81303e-17
2.11818e-17
1.19183e-17
6.85042e-18
3.93982e-18
2.14165e-18
1.08914e-18
4.9928e-19
2.07004e-19
7.74302e-20
2.68426e-20
8.72551e-21
2.95066e-21
1.05076e-21
3.8763e-22
2.63024e-15
1.44657e-15
7.0108e-16
3.26225e-16
1.47492e-16
6.6321e-17
3.05551e-17
1.49582e-17
7.62993e-18
4.15813e-18
2.30739e-18
1.285e-18
6.99659e-19
3.57831e-19
1.70197e-19
7.31092e-20
2.79733e-20
9.56177e-21
3.02278e-21
9.10613e-22
2.81605e-22
9.09283e-23
3.10547e-23
3.51115e-16
1.91924e-16
1.0452e-16
5.33543e-17
2.64969e-17
1.25863e-17
5.73868e-18
2.79828e-18
1.43932e-18
7.77928e-19
4.17008e-19
2.22974e-19
1.15895e-19
5.56881e-20
2.45876e-20
9.64694e-21
3.33742e-21
1.03265e-21
2.96463e-22
8.08794e-23
2.28316e-23
6.51189e-24
2.17931e-24
2.0485e-17
1.4781e-17
1.02761e-17
7.14181e-18
3.93944e-18
2.0018e-18
9.98297e-19
5.05764e-19
2.60714e-19
1.42447e-19
7.65597e-20
3.89214e-20
1.85655e-20
8.16753e-21
3.24835e-21
1.14526e-21
3.49808e-22
9.56435e-23
2.4521e-23
5.9589e-24
1.44153e-24
3.80789e-25
3.13462e-26
1.70497e-19
2.78384e-19
5.99402e-19
6.78227e-19
4.90327e-19
2.88466e-19
1.55724e-19
8.49105e-20
4.80525e-20
2.65213e-20
1.39304e-20
6.55127e-21
2.81641e-21
1.11337e-21
3.91787e-22
1.19802e-22
3.11123e-23
7.35264e-24
1.65223e-24
3.51117e-25
8.22645e-26
5.32335e-27
1.84155e-28
8.88766e-27
8.38495e-22
2.34123e-20
7.15609e-20
6.5034e-20
4.28927e-20
2.48602e-20
1.43698e-20
8.40926e-21
4.78292e-21
2.50321e-21
1.12598e-21
4.39969e-22
1.54941e-22
4.42376e-23
1.09083e-23
2.33147e-24
4.57838e-25
8.89543e-26
1.63372e-26
2.50513e-27
4.99611e-29
3.75906e-29
0.0140243
0.0310692
0.0409012
0.0408293
6.95622e-09
1.38282e-25
-7.46173e-09
2.49081e-12
1.45107e-08
4.22727e-06
3.90621e-07
2.18528e-05
9.55616e-08
1.52062e-05
3.69924e-06
0.000256814
7.63797e-07
7.32423e-07
0.00012575
0.000196976
1.0287e-05
6.70828e-06
1.60707e-06
6.21862e-07
2.12755e-07
1.84171e-07
1.58933e-08
5.44025e-09
3.91169e-09
2.2568e-09
2.30718e-09
2.26943e-09
2.8786e-09
3.24954e-09
4.67191e-09
6.16524e-09
3.01244e-09
3.15251e-09
3.09172e-09
4.6414e-09
1.76599e-09
1.72803e-09
2.44383e-09
5.52367e-09
2.32835e-10
1.68588e-10
3.05411e-10
7.03885e-10
1.82525e-11
1.19789e-11
2.08215e-11
4.35259e-11
3.82742e-12
5.28252e-12
7.39614e-12
9.10535e-12
5.23028e-12
9.03416e-12
1.65173e-11
2.67043e-11
5.77304e-12
9.89676e-12
1.70477e-11
2.59249e-11
2.682e-12
6.91545e-12
1.25153e-11
2.03844e-11
3.45005e-13
1.39869e-12
4.28018e-12
1.05426e-11
1.59777e-13
1.55592e-13
3.63125e-13
2.10985e-12
1.46866e-13
1.26552e-13
1.0414e-13
9.40924e-14
1.32492e-13
1.12771e-13
1.00912e-13
8.46488e-14
1.04838e-13
9.00886e-14
7.97407e-14
7.6614e-14
7.69925e-14
6.38107e-14
5.65202e-14
5.03942e-14
4.98164e-14
4.1537e-14
3.52704e-14
3.11627e-14
2.82029e-14
2.26837e-14
2.00403e-14
1.7254e-14
1.34134e-14
1.07742e-14
9.26797e-15
8.35623e-15
5.41157e-15
4.36739e-15
3.90874e-15
3.27306e-15
1.88076e-15
1.45064e-15
1.21896e-15
1.13492e-15
5.77935e-16
4.44636e-16
3.89535e-16
3.18698e-16
1.46526e-16
1.16232e-16
9.41412e-17
8.24071e-17
3.37937e-17
2.69488e-17
2.24044e-17
1.84966e-17
6.96854e-18
5.23186e-18
4.23043e-18
3.45854e-18
1.25549e-18
9.45096e-19
7.17992e-19
5.45152e-19
1.82218e-19
1.33891e-19
1.01013e-19
7.35815e-20
2.39042e-20
1.6608e-20
1.17465e-20
7.83821e-21
2.54689e-21
1.64885e-21
1.12739e-21
6.73487e-22
2.18251e-22
1.34098e-22
9.47839e-23
4.23416e-23
1.70705e-23
6.58081e-24
2.45832e-24
5.20198e-25
2.54931e-25
6.2278e-26
2.25332e-26
6.30399e-27
1.79246e-28
5.57284e-28
1.22658e-27
3.77714e-27
1.79112e-28
4.09723e-28
1.44087e-27
4.60932e-27
9.47631e-29
3.25416e-28
1.11219e-27
3.37757e-27
0.0139821
0.00601773
0.0145328
0.010169
0.00567313
0.0272055
0.0342643
0.00149607
2.70009e-05
2.70351e-05
8.02781e-05
0.000114904
2.70525e-05
2.42781e-05
3.25894e-06
3.11248e-06
0.000845607
0.00198455
3.66592e-09
0.000179777
0.000710229
0.013055
0.00534938
0.00475002
0.0235118
0.0155756
0.000311814
3.256e-05
2.69336e-05
2.9325e-05
6.55846e-05
6.54492e-05
4.86334e-05
5.68252e-06
5.32175e-05
0.0023943
0.00386952
3.66786e-09
6.82954e-05
0.00131572
0.00348531
0.00103715
0.00470424
0.00780013
0.00236023
0.000160323
0.000146668
5.54051e-05
5.56295e-07
3.36941e-06
7.68815e-06
5.19389e-07
1.15898e-05
0.000180578
0.00359827
0.00552449
0.00518879
0.000547062
0.000389786
7.3964e-06
0.00034688
0.00127895
6.92341e-07
9.15528e-07
0.000113842
0.000148014
4.85855e-05
5.4178e-07
5.27197e-07
2.96384e-07
4.06322e-06
3.32069e-05
4.62725e-05
0.000961455
0.0037881
0.00366771
0.000280505
7.51507e-05
7.38165e-06
1.98956e-05
6.92021e-07
6.94978e-07
8.07309e-07
1.63987e-05
2.90302e-05
9.39471e-06
3.01624e-06
1.1109e-06
8.43881e-08
6.99772e-08
7.45812e-06
2.35754e-05
1.78756e-05
3.8756e-05
9.4385e-06
9.98455e-09
4.78063e-09
4.13027e-07
2.06412e-07
8.64707e-07
8.59346e-07
5.35667e-07
1.63788e-11
8.52649e-17
3.17576e-11
4.03752e-07
2.30239e-07
4.87409e-08
7.956e-08
4.3188e-08
4.26641e-08
6.79903e-08
1.27856e-06
9.10894e-06
1.50962e-09
1.43174e-08
1.24377e-07
2.12178e-07
4.50763e-07
5.35379e-07
2.64787e-07
5.5862e-08
2.01896e-08
7.57719e-09
5.0825e-09
5.16397e-09
1.23882e-06
3.02328e-06
1.01518e-06
2.76741e-07
4.52025e-05
8.84827e-05
9.46361e-06
9.54093e-09
7.6748e-08
1.30181e-07
1.73829e-07
1.62121e-07
1.89172e-07
8.49957e-08
4.82906e-08
3.60039e-08
9.80266e-09
5.61049e-09
3.33438e-08
4.81157e-07
2.50058e-06
0.000117269
0.0010325
0.00209013
0.00217522
0.000928417
1.02299e-08
1.87348e-08
3.0953e-08
3.45477e-08
3.46289e-08
5.10718e-08
2.85677e-07
1.53292e-07
6.65853e-08
2.3987e-06
2.23461e-07
3.45062e-09
1.80869e-07
1.92749e-06
0.0011553
0.00272936
0.00272957
0.00272936
0.0021502
8.29297e-09
1.04632e-08
1.54697e-08
2.26687e-08
3.47294e-08
1.77553e-07
4.75246e-07
1.38742e-06
1.93046e-06
2.81047e-06
2.21705e-05
4.89122e-05
5.30034e-05
8.70813e-05
0.000952612
0.00157635
0.00177026
0.00152859
0.00112428
8.3569e-09
1.11003e-08
1.1033e-08
4.54646e-09
4.13344e-09
5.31756e-08
1.1404e-08
7.1674e-07
6.22365e-06
7.96771e-06
2.1102e-05
3.67053e-05
4.70245e-05
8.56837e-05
5.4165e-05
8.97348e-08
4.60033e-10
2.90096e-07
1.27686e-05
9.58086e-10
1.06046e-09
8.07858e-10
1.93914e-10
1.95447e-10
5.70064e-10
2.12204e-10
1.71231e-07
2.31639e-06
4.24674e-06
7.18072e-06
8.70612e-06
8.74823e-06
1.14769e-05
1.52584e-09
2.24153e-08
2.50249e-09
8.16461e-11
7.61561e-10
5.50137e-11
6.3823e-11
9.10832e-11
2.85657e-10
7.7958e-10
1.73322e-09
2.83625e-09
7.26145e-09
1.28385e-07
3.43614e-07
2.43001e-07
8.5271e-07
8.19004e-07
1.52874e-09
1.53869e-09
2.756e-09
3.70951e-09
2.15419e-09
4.69274e-08
2.0723e-11
8.19213e-11
2.44947e-10
5.4493e-10
1.15442e-09
2.80573e-09
7.36789e-09
1.00244e-08
1.2013e-08
3.94201e-08
1.89386e-08
1.38629e-09
1.40862e-09
1.56629e-09
3.04304e-09
8.04864e-09
8.97594e-09
4.73016e-09
2.65104e-09
4.27071e-11
1.08909e-10
2.43227e-10
4.8389e-10
8.6465e-10
1.43683e-09
2.67516e-09
4.58329e-09
3.79895e-09
4.22762e-09
5.98143e-09
1.99979e-09
1.59876e-09
2.37082e-09
4.45099e-09
7.68715e-09
7.91318e-09
3.1174e-09
7.82383e-10
3.82503e-11
8.16372e-11
1.5523e-10
2.77462e-10
4.66655e-10
8.79974e-10
1.63525e-09
3.45167e-09
3.65778e-09
3.19863e-09
2.47148e-09
1.41281e-09
1.34611e-09
1.8051e-09
3.07115e-09
4.70641e-09
3.98226e-09
1.44629e-09
7.54894e-10
3.14385e-11
6.49675e-11
1.20704e-10
2.09456e-10
3.30337e-10
4.88042e-10
7.26841e-10
1.79772e-09
2.5552e-09
2.63058e-09
1.85083e-09
1.07186e-09
9.28207e-10
9.51194e-10
1.39959e-09
1.694e-09
1.35001e-09
5.08977e-10
3.76989e-10
2.08173e-11
4.20923e-11
7.68513e-11
1.34766e-10
2.2773e-10
3.5631e-10
4.95062e-10
6.63866e-10
1.03669e-09
1.19723e-09
1.11723e-09
7.05483e-10
5.22431e-10
4.34615e-10
4.24521e-10
4.50203e-10
3.29668e-10
1.08785e-10
7.29937e-11
8.94989e-12
2.00218e-11
3.51473e-11
6.04727e-11
1.16268e-10
2.10554e-10
2.78313e-10
3.36914e-10
3.99752e-10
4.50591e-10
4.55588e-10
3.40257e-10
2.26204e-10
1.71522e-10
1.11145e-10
7.80166e-11
4.34918e-11
1.1896e-11
2.30326e-12
2.0389e-12
8.48316e-12
1.82687e-11
3.24238e-11
5.2874e-11
7.94709e-11
1.09213e-10
1.38882e-10
1.65406e-10
1.81786e-10
1.73853e-10
1.41793e-10
9.43482e-11
5.85634e-11
2.13958e-11
9.9497e-12
3.53078e-12
3.08375e-13
3.12098e-14
2.77516e-13
1.50068e-12
5.28618e-12
1.05675e-11
1.7869e-11
2.69351e-11
3.71107e-11
4.78861e-11
5.93598e-11
6.8636e-11
7.00188e-11
5.63276e-11
3.44525e-11
1.49106e-11
3.89066e-12
8.99363e-13
5.21858e-14
7.52017e-15
9.27154e-16
8.55767e-14
2.33199e-13
7.80493e-13
2.16894e-12
4.46054e-12
7.00141e-12
9.88783e-12
1.29991e-11
1.66381e-11
2.05765e-11
2.25231e-11
1.86391e-11
1.06151e-11
3.8628e-12
7.66239e-13
1.03994e-13
6.21979e-15
9.62007e-16
7.38228e-17
4.75484e-14
6.19596e-14
1.31149e-13
3.15036e-13
7.3277e-13
1.43484e-12
2.14044e-12
2.84646e-12
3.76577e-12
4.92089e-12
5.66096e-12
5.04797e-12
2.75518e-12
8.95487e-13
1.45305e-13
1.56754e-14
9.42949e-16
1.25409e-16
2.69496e-17
2.71211e-14
2.53517e-14
3.14328e-14
4.86895e-14
8.62674e-14
1.6806e-13
3.09938e-13
4.48815e-13
6.4143e-13
8.9928e-13
1.09287e-12
1.07617e-12
6.00553e-13
1.83754e-13
2.45787e-14
1.56846e-15
1.38671e-16
4.48459e-17
1.79687e-17
1.37731e-14
1.1645e-14
1.06018e-14
1.04779e-14
1.24949e-14
1.91485e-14
3.54423e-14
5.41964e-14
8.41673e-14
1.27658e-13
1.67649e-13
1.76998e-13
1.09123e-13
3.43213e-14
4.50874e-15
1.86331e-16
3.68438e-17
2.82888e-17
1.32666e-17
6.31861e-15
4.83267e-15
3.85533e-15
3.19186e-15
2.77291e-15
2.71122e-15
3.32144e-15
4.67975e-15
7.86407e-15
1.34864e-14
1.92926e-14
2.1749e-14
1.52903e-14
5.24482e-15
6.51437e-16
3.19419e-17
1.60173e-17
1.87544e-17
8.8801e-18
2.41701e-15
1.81499e-15
1.35288e-15
1.00916e-15
7.47346e-16
5.63456e-16
4.32438e-16
4.0021e-16
6.51266e-16
1.20763e-15
1.89967e-15
2.29272e-15
1.85175e-15
7.34062e-16
7.82933e-17
7.24628e-18
8.6837e-18
1.1807e-17
6.40343e-18
8.13439e-16
5.66333e-16
4.10631e-16
2.8859e-16
2.07592e-16
1.50194e-16
8.09074e-17
4.51966e-17
5.53905e-17
9.76647e-17
1.62358e-16
2.09947e-16
1.76263e-16
5.68031e-17
7.50075e-18
3.23231e-18
4.65444e-18
8.83852e-18
4.05893e-18
2.23944e-16
1.54202e-16
1.02031e-16
6.72884e-17
4.81322e-17
2.80464e-17
1.3101e-17
7.80904e-18
6.58766e-18
8.27523e-18
1.29968e-17
1.52855e-17
3.41791e-18
7.7568e-19
8.34604e-19
1.39483e-18
2.61119e-18
5.72231e-18
2.76772e-18
5.56795e-17
3.6084e-17
2.19445e-17
1.42921e-17
9.17619e-18
3.4264e-18
1.14442e-18
8.457e-19
8.3346e-19
8.54506e-19
9.47135e-19
2.24775e-19
1.14777e-19
1.63631e-19
3.47182e-19
7.85499e-19
1.73381e-18
4.09168e-18
1.61617e-18
1.1683e-17
6.9118e-18
3.96655e-18
2.59182e-18
1.02702e-18
2.10477e-19
5.21267e-20
5.92108e-20
7.67768e-20
8.50578e-20
3.46071e-20
3.54927e-20
6.41546e-20
1.29841e-19
2.65703e-19
5.88483e-19
1.42225e-18
2.51017e-18
1.03722e-18
2.0697e-18
1.16266e-18
7.23108e-19
2.89575e-19
6.41433e-20
5.63262e-21
2.08682e-21
3.93716e-21
7.7387e-21
7.57309e-21
1.40443e-20
2.98706e-20
6.28585e-20
1.25593e-19
2.37511e-19
5.09694e-19
1.10756e-18
1.76097e-18
5.39181e-19
3.01723e-19
1.69284e-19
8.20751e-20
1.74204e-20
1.35315e-21
2.46164e-22
4.05779e-22
1.04001e-21
2.38008e-21
5.81556e-21
1.38113e-20
3.06316e-20
6.3517e-20
1.22807e-19
2.19427e-19
4.43151e-19
8.86261e-19
1.0012e-18
3.34036e-19
3.76469e-20
2.04524e-20
5.25239e-21
4.47125e-22
6.92389e-23
1.20996e-22
3.22101e-22
8.82536e-22
2.3253e-21
5.83365e-21
1.40556e-20
3.12557e-20
6.36896e-20
1.16645e-19
2.03703e-19
3.99474e-19
6.51564e-19
6.81846e-19
1.58902e-19
4.23773e-21
1.1017e-21
1.24903e-22
1.90673e-23
3.53842e-23
1.0276e-22
3.07634e-22
8.65209e-22
2.29496e-21
5.74397e-21
1.36842e-20
3.01423e-20
5.98943e-20
1.08635e-19
1.9303e-19
3.34923e-19
4.87163e-19
3.51892e-19
9.07642e-20
2.93446e-22
3.68316e-23
4.42805e-24
9.208e-24
3.01214e-23
9.83941e-23
2.93569e-22
8.27802e-22
2.21215e-21
5.53662e-21
1.31637e-20
2.88264e-20
5.68209e-20
1.01858e-19
1.69871e-19
2.56071e-19
3.25095e-19
2.29452e-19
3.92104e-20
5.42407e-24
6.85282e-25
2.00627e-24
7.93613e-24
2.76085e-23
8.97361e-23
2.68274e-22
7.53315e-22
1.99004e-21
4.98528e-21
1.18205e-20
2.55308e-20
4.97364e-20
8.80666e-20
1.39113e-19
1.91885e-19
2.05425e-19
1.01798e-19
2.19135e-20
1.03672e-25
3.91812e-25
1.76958e-24
6.92362e-24
2.3997e-23
7.5673e-23
2.26076e-22
6.27146e-22
1.65155e-21
4.12755e-21
9.67829e-21
2.08795e-20
4.0128e-20
6.9162e-20
1.04239e-19
1.28935e-19
1.06243e-19
5.55087e-20
9.63933e-21
5.94875e-26
3.38904e-25
1.46376e-24
5.45446e-24
1.83415e-23
5.7087e-23
1.67782e-22
4.63609e-22
1.22174e-21
3.05899e-21
7.19378e-21
1.5265e-20
2.89661e-20
4.94405e-20
6.68768e-20
7.75337e-20
5.40073e-20
1.99252e-20
5.18445e-21
5.34231e-26
2.61684e-25
1.01983e-24
3.4946e-24
1.12895e-23
3.4169e-23
1.00838e-22
2.86866e-22
7.65798e-22
1.93885e-21
4.5602e-21
9.88678e-21
1.92213e-20
3.08018e-20
3.8103e-20
3.98375e-20
2.12856e-20
8.87064e-21
2.61202e-21
3.58288e-26
1.48337e-25
5.21092e-25
1.6659e-24
5.30124e-24
1.65447e-23
4.97242e-23
1.44304e-22
3.98715e-22
1.05456e-21
2.56075e-21
5.56531e-21
1.04715e-20
1.69133e-20
1.94386e-20
1.68071e-20
7.0324e-21
3.21217e-21
8.21392e-22
1.30609e-26
4.47248e-26
1.38149e-25
4.16482e-25
1.51679e-24
5.141e-24
1.72489e-23
5.37201e-23
1.58932e-22
4.38833e-22
1.11009e-21
2.50667e-21
4.70724e-21
7.17995e-21
7.28647e-21
4.76644e-21
1.85871e-21
5.60392e-22
3.91046e-23
)
;

boundaryField
{
    leftWall
    {
        type            alphaContactAngle;
        contactAngleProperties 
        {
            air             
            {
                theta0          90;
            }
            water           
            {
                theta0          90;
            }
            oil             
            {
                theta0          90;
            }
        }
        value           nonuniform List<scalar> 
50
(
1
1
1
1
1
0.891066
0.166462
1.60833e-07
2.37546e-10
3.16325e-10
3.66617e-10
4.23624e-10
4.60304e-10
4.65678e-10
4.649e-10
4.63004e-10
4.4425e-10
3.49442e-10
2.69232e-10
2.42622e-10
2.46442e-10
2.52856e-10
2.4917e-10
2.36958e-10
2.15737e-10
1.86917e-10
1.59977e-10
1.29656e-10
1.0473e-10
8.24293e-11
6.26445e-11
4.46821e-11
3.11999e-11
2.0673e-11
1.37429e-11
8.40703e-12
5.3879e-12
3.46086e-12
1.96135e-12
1.13518e-12
5.73401e-13
2.85404e-13
1.13504e-13
4.1224e-14
1.11726e-14
2.63024e-15
3.51115e-16
2.0485e-17
1.70497e-19
8.88766e-27
)
;
    }
    rightWall
    {
        type            alphaContactAngle;
        contactAngleProperties 
        {
            air             
            {
                theta0          90;
            }
            water           
            {
                theta0          90;
            }
            oil             
            {
                theta0          90;
            }
        }
        value           nonuniform List<scalar> 
50
(
0.752715
0.75261
0.498869
0.218886
1.46959e-12
3.86069e-07
9.33919e-07
5.43993e-06
3.66592e-09
3.66786e-09
0.00518879
0.00366771
9.4385e-06
9.10894e-06
9.46361e-06
0.000928417
0.0021502
0.00112428
1.27686e-05
7.61561e-10
4.69274e-08
2.65104e-09
7.82383e-10
7.54894e-10
3.76989e-10
7.29937e-11
2.30326e-12
3.12098e-14
9.27154e-16
7.38228e-17
2.69496e-17
1.79687e-17
1.32666e-17
8.8801e-18
6.40343e-18
4.05893e-18
2.76772e-18
1.61617e-18
1.03722e-18
5.39181e-19
3.34036e-19
1.58902e-19
9.07642e-20
3.92104e-20
2.19135e-20
9.63933e-21
5.18445e-21
2.61202e-21
8.21392e-22
3.91046e-23
)
;
    }
    lowerWall
    {
        type            alphaContactAngle;
        contactAngleProperties 
        {
            air             
            {
                theta0          90;
            }
            water           
            {
                theta0          90;
            }
            oil             
            {
                theta0          90;
            }
        }
        value           nonuniform List<scalar> 
62
(
1
1
1
1
1
1
1
1
1
1
1
1
1
1
1
1
1
1
1
0.999759
0.999451
0.99945
0.999477
0.999477
1
1
1
0.999993
0.996273
0.462836
-5.71268e-09
0.0140243
0.0310692
0.0409012
0.0408293
0.877978
0.877976
0.637296
0.523249
0.139763
0.0503508
0.0504806
0.0325744
0.877978
0.877977
0.877977
0.877973
0.777973
0.656509
0.656855
0.668561
0.690995
0.693778
0.650933
0.643348
0.692921
0.752719
0.752717
0.752719
0.752716
0.752718
0.752715
)
;
    }
    atmosphere
    {
        type            inletOutlet;
        inletValue      uniform 0;
        value           nonuniform List<scalar> 
46
(
0
0
0
7.15609e-20
6.5034e-20
4.28927e-20
2.48602e-20
1.43698e-20
8.40927e-21
4.78292e-21
2.50321e-21
1.12598e-21
4.39969e-22
1.54941e-22
4.42376e-23
0
0
0
0
0
0
0
0
0
0
0
0
0
0
0
4.16482e-25
1.51679e-24
5.141e-24
1.72489e-23
5.37201e-23
1.58932e-22
4.38833e-22
1.11009e-21
2.50667e-21
4.70724e-21
0
0
0
0
0
0
)
;
    }
    defaultFaces
    {
        type            empty;
    }
}


// ************************************************************************* //
