/*--------------------------------*- C++ -*----------------------------------*\
  =========                 |
  \\      /  F ield         | OpenFOAM: The Open Source CFD Toolbox
   \\    /   O peration     | Website:  https://openfoam.org
    \\  /    A nd           | Version:  13
     \\/     M anipulation  |
\*---------------------------------------------------------------------------*/
FoamFile
{
    format      ascii;
    class       volScalarField;
    location    "2.85";
    object      alphas;
}
// * * * * * * * * * * * * * * * * * * * * * * * * * * * * * * * * * * * * * //

dimensions      [];

internalField   nonuniform List<scalar> 
2268
(
2
2
2
2
2
2
2
2
2
2
2
2
2
2
2
2
2
2
2
1.99976
1.99945
1.99945
1.99948
2
2
2
2
2
2
2
2
2
2
2
2
2
2
2
2
2
2
2
1.99998
1.99994
1.99993
2
2
2
2
2
2
2
2
2
2
2
2
2
2
2
2
2
2
2
2
2
2
2
2
2
2
2
2
2
2
2
2
2
2
2
2
2
2
2
2
2
2
2
2
2
2
2
2
2
2
2
2
2
2
2
2
2
2
2
2
2
2
2
2
2
2
2
2
2
1.99999
1.78213
1.74843
1.73795
1.75576
1.7893
1.83836
1.89614
1.94856
1.99007
2
2
1.9994
2
2
2
2
2
2
2
2
2
1.99715
1.99278
0.332923
0.291952
0.281577
0.301838
0.33997
0.392795
0.462315
0.555464
0.66985
0.808732
0.950017
1.08209
1.194
1.27325
1.31477
1.32363
1.31074
1.28001
1.23891
1.18233
1.10122
0.99839
0.931154
3.98963e-07
3.51189e-07
4.32393e-07
8.90598e-07
3.67886e-06
5.34303e-06
1.50701e-06
7.21939e-07
5.5256e-07
4.29948e-07
0.00225818
0.00449252
0.00374697
0.00414962
0.007442
0.0120357
0.0132813
0.0121552
0.00581833
4.18569e-05
0.000524877
0.00573361
0.0122895
1.86973
1.87074
1.90036
1.93142
1.88112
1.76824
1.76774
1.76365
1.7809
1.78385
1.77092
1.7165
1.70305
1.75172
1.7236
1.65828
1.73965
1.77736
1.7678
1.87039
1.87122
1.86632
1.77754
1.74299
1.78258
1.80951
1.80579
1.94946
2.04283
1.8959
1.78285
1.86343
1.95836
1.92579
1.86676
1.777
1.77641
1.7676
1.63184
1.63662
1.59877
1.38738
1.06802
1.02862
0.952509
0.91604
1.27146
2.21686
2.34838
2.09489
2.10683
2.26496
2.2629
1.97453
1.68973
1.60088
1.59958
1.53278
1.34855
1.02688
0.748117
0.662758
0.542911
0.336024
0.23361
0.340604
1.20506
2.15568
2.39344
2.39936
2.34793
2.27319
1.97433
1.49409
1.31214
1.6782
0.746873
0.405162
0.323978
0.299239
0.536214
0.805116
0.82325
0.858442
0.434172
0.0342913
0.728506
1.86541
2.23707
2.0953
0.8443
0.337121
0.316918
0.110203
0.906782
0.241502
0.178296
0.176668
0.191896
0.670053
0.918582
1.04664
1.0733
0.586499
0.0373488
0.00250694
0.540599
1.83516
0.915711
0.0499152
0.000179773
0.000174037
0.000178081
0.758136
0.158136
0.205542
0.207309
0.155469
0.638894
1.06314
1.09333
0.6415
0.138749
0.0165251
0.00104676
0.00102945
1.7563
0.736459
0.000248636
0.000227885
0.000204343
0.000893895
0.607685
0.223989
0.253453
0.241852
0.152349
0.356741
1.13126
1.19527
0.289118
0.00143182
0.00130928
0.00105524
0.0916923
1.71914
0.66778
0.0112264
0.000216188
0.00244988
0.00140094
0.56496
6.99646e-08
7.45233e-08
1.08706e-07
2.97803e-05
0.000126157
4.5442e-06
8.29624e-07
4.6572e-07
3.07179e-07
1.61291e-07
1.87361e-07
8.46153e-08
6.12014e-08
5.71638e-08
1.06126e-07
2.26814e-07
4.0185e-07
5.72416e-07
1.0379e-06
0.000303012
0.000647562
0.00264005
0.0104665
7.27438e-08
6.97414e-08
0.00368567
0.00168753
7.4227e-05
2.22832e-08
1.93687e-08
7.23243e-08
4.67293e-08
2.87045e-08
6.43235e-08
2.90772e-07
5.10047e-07
7.36724e-07
9.71665e-07
1.27221e-06
1.60321e-06
1.67455e-06
1.57841e-05
0.0072384
0.0277249
0.0626664
0.145081
0.168155
0.0750493
0.00437014
0.000753394
4.91035e-05
1.78058e-07
3.04592e-09
3.13806e-09
2.68219e-09
2.49849e-09
0.000201323
0.000953434
0.00675506
0.0241517
0.0571037
0.101308
0.14428
0.174457
0.263791
0.396896
0.530801
0.672191
0.868104
0.425825
0.445705
0.399015
0.395716
0.350074
0.255281
0.298684
0.389639
0.378969
0.362094
0.372862
0.404115
0.471409
0.599582
0.693891
0.755834
0.857899
1.02392
1.1196
1.15337
1.17133
1.08848
1.11092
1.1015
1.01346
0.987604
0.987143
0.981861
1.08041
1.24043
1.22142
1.23685
1.25531
1.28082
1.31585
1.25993
1.15192
1.16043
1.23839
1.23606
1.07349
1.00075
1
1
1
1.02772
1.06534
1.00259
1.00026
0.999865
1.02975
1.10546
1.06158
1.01238
1.01488
1.03833
1.03646
1.01694
1.00003
1
1
1
1
1
1
1
1.00058
1.001
0.999999
1.00097
0.999445
0.999919
0.999988
1.00001
1.00009
1
1
1
1
1
1
1
1
1
1
1
1
1
1
1
1
0.999999
1.09216
1.10221
1.12145
1.14774
1.1766
1.20706
1.22793
1.23813
1.25243
1.27186
1.29761
1.33059
1.36959
1.41067
1.45049
1.48905
1.52847
1.57012
1.60151
1.60101
1.56181
1.49246
1.41227
2.46567
2.46299
2.51778
2.57611
2.61576
2.64385
2.67949
2.71995
2.75167
2.77642
2.80024
2.8258
2.85185
2.87593
2.8963
2.91223
2.92295
2.92762
2.92418
2.91337
2.89484
2.86668
2.82901
3
3
2.99999
3
3
3
3
3
3
3
3
3
3
3
3
3
3
3
3
3
3
3
3
3
3
3
3
3
3
3
3
3
3
3
3
3
3
3
3
3
3
3
3
3
3
3
3
2.99999
2.99999
3
3
3
2.99995
2.99981
2.99992
2.99999
3
3
3
3
3
3
3
3
3
3
3
3
3
2.99999
2.99998
2.99995
2.99998
3
2.99998
2.99971
2.99967
2.99969
2.99998
3
3
3
3
3
3
3
3
3
3
3
3
3
2.99999
2.99994
2.99989
2.99992
3
2.99994
2.99967
2.99967
2.99967
2.99985
2.99999
2.99999
3
3
3
3
3
3
3
3
3
3
3
2.99999
2.99992
2.99989
2.9999
3
3
2.99989
2.99967
2.99968
2.99994
2.99999
2.99999
2.99999
2.99999
3
3
3
3
3
3
3
3
3
3
2.99996
2.99991
2.99996
3
3
3
2.99998
2.99997
3
2.99999
2.99999
2.99999
3
3
3
3
3
3
3
3
3
3
3
2.99999
2.99999
3
3
3
3
3
3
3
3
3
3
3
3
3
3
3
3
3
3
3
3
3
3
3
3
3
3
3
3
3
3
3
3
3
3
3
3
3
3
3
3
3
3
3
3
3
3
3
3
3
3
3
3
3
3
3
3
3
3
3
3
3
3
3
3
3
3
3
3
3
3
3
3
3
3
3
3
3
3
3
3
3
3
3
3
3
3
3
3
3
3
3
3
3
3
3
3
3
3
3
3
3
3
3
3
3
3
3
3
3
3
3
3
3
3
3
3
3
3
3
3
3
3
3
3
3
3
3
3
3
3
3
3
3
3
3
3
3
3
3
3
3
3
3
3
3
3
3
3
3
3
3
3
3
3
3
3
3
3
3
3
3
3
3
3
3
3
3
3
3
3
3
3
3
3
3
3
3
3
3
3
3
3
3
3
3
3
3
3
3
3
3
3
3
3
3
3
3
3
3
3
3
3
3
3
3
3
3
3
3
3
3
3
3
3
3
3
3
3
3
3
3
3
3
3
3
3
3
3
3
3
3
3
3
3
3
3
3
3
3
3
3
3
3
3
3
3
3
3
3
3
3
3
3
3
3
3
3
3
3
3
3
3
3
3
3
3
3
3
3
3
3
3
3
3
3
3
3
3
3
3
3
3
3
3
3
3
3
3
3
3
3
3
3
3
3
3
3
3
3
3
3
3
3
3
3
3
3
3
3
3
3
3
3
3
3
3
3
3
3
3
3
3
3
3
3
3
3
3
3
3
3
3
3
3
3
3
3
3
3
3
3
3
3
3
3
3
3
3
3
3
3
3
3
3
3
3
3
3
3
3
3
3
3
3
3
3
3
3
3
3
3
3
3
3
3
3
3
3
3
3
3
3
3
3
3
3
3
3
3
3
3
3
3
3
3
3
3
3
3
3
3
3
3
3
3
3
3
3
3
3
3
3
3
3
3
3
3
3
3
3
3
3
3
3
3
3
3
3
3
3
3
3
3
3
3
3
3
3
3
3
3
3
3
3
3
3
3
3
3
3
3
3
3
3
3
3
3
3
3
3
3
3
3
3
3
3
3
3
3
3
3
3
3
3
3
3
3
3
3
3
3
3
3
3
3
3
3
3
3
3
3
3
3
3
3
3
3
3
3
3
3
3
3
3
3
3
3
3
3
3
3
3
3
3
3
3
3
3
3
3
3
3
3
3
3
3
3
3
3
3
3
3
3
3
3
3
3
3
3
3
3
3
3
3
3
3
3
3
3
3
3
3
3
3
3
3
3
3
3
3
3
3
3
3
3
3
3
3
3
3
3
3
3
3
3
3
3
3
3
3
3
3
3
3
3
3
3
3
3
3
3
3
3
3
3
0.0597245
0.105951
0.116629
0.0956591
0.306632
0.285117
0.15365
0.0431554
0.936334
1.03557
1.05764
0.778966
1.24423
1.27439
1.27431
1.23472
1.04399
1.02989
1.0035
1.00034
0.999997
0.999993
0.999994
0.999991
0.999997
1
0.999994
0.999988
1.35645
1.31968
1.28653
1.25309
2.79959
2.77827
2.7575
2.73713
3
3
3
3
3
3
3
3
3
3
3
3
3
3
3
3
3
3
3
3
3
3
3
3
3
3
3
3
3
3
3
3
3
3
3
3
3
3
3
3
3
3
3
3
3
3
3
3
3
3
3
3
3
3
3
3
3
3
3
3
3
3
3
3
3
3
3
3
3
3
3
3
3
3
3
3
3
3
3
3
3
3
3
3
3
3
3
3
3
3
3
3
3
3
3
3
3
3
3
3
3
3
3
3
3
3
3
3
3
3
3
3
3
3
3
3
3
3
3
3
3
3
3
3
3
3
3
3
3
3
3
3
0.0441377
0.0523913
0.0827423
0.0877204
0.207106
0.994045
0.894313
0.151381
0.00211877
0.00182473
0.00131061
0.064648
0.963371
0.111507
0.000279493
0.000227524
0.0328475
0.237
0.413149
0.0183165
0.0151087
0.108151
0.16206
0.523336
0.855062
0.795907
0.442287
0.0726429
0.0208024
0.0105844
0.011517
0.0231621
0.0275766
0.130517
0.30764
0.525178
0.51685
0.27037
0.572591
0.666128
0.797386
0.665411
0.673639
1.02299
0.93839
0.778755
0.759753
0.720071
0.71514
0.629956
0.52384
0.675788
0.841942
0.908084
0.959345
0.93004
0.802438
1.18061
1.23289
1.239
1.09459
1.06839
1.27868
1.28976
1.29599
1.13225
0.999654
1.00001
1.00005
1.00011
1.00009
1.00035
1.00068
1.01588
1.03954
1.02143
1.00139
1.01527
1.01367
1.00238
1.00028
1.04935
1.23658
1.21119
1.03525
1
1
1
1
1
1.00018
1.00047
1.00011
1.00001
0.999924
0.999985
0.999987
0.999997
1.00011
1.0001
0.999993
1.00343
1.00197
1
1
1
1
1
1
1.00002
1.00011
1.00007
1
0.999998
0.999991
0.999996
0.999999
0.999999
0.999998
0.999997
0.999999
1
1
1
1
1
0.999992
0.999988
0.999998
1.00001
0.999956
0.999929
0.99991
1.2009
1.12872
1.07381
1.02804
1
0.999999
1
1
1
1
1
1
0.999997
0.999988
0.999447
0.997532
1.00027
1.00442
0.999661
2.69922
2.6371
2.56331
2.47336
2.34597
2.18234
2.04272
1.94251
1.87445
1.81838
1.76622
1.71953
1.67745
1.65246
1.73189
1.88941
1.98997
2.03986
1.9821
3
3
3
3
2.99999
2.99999
2.99753
2.99165
2.9842
2.97503
2.96405
2.95184
2.94171
2.93964
2.96615
2.97995
2.98177
2.98584
2.98222
3
3
3
2.99963
2.99914
2.99881
2.99883
2.99957
2.99994
2.9999
2.99981
2.99955
2.99934
2.99856
2.99965
3
3
3
2.99999
3
3
3
2.99937
2.99834
2.99834
2.99834
2.99958
2.99997
2.99995
2.99933
2.99875
2.99872
2.9991
2.99998
3
3
3
3
3
3
3
2.99998
2.99999
2.99989
2.99995
2.99996
3
3
2.99963
2.99895
2.99912
2.99965
2.99999
3
3
3
3
3
3
3
3
3
3
3
3
3
2.99999
2.99998
2.99999
3
3
3
3
3
3
3
3
3
3
3
3
3
3
3
3
3
3
3
3
3
3
3
3
3
3
3
3
3
3
3
3
3
3
3
3
3
3
3
3
3
3
3
3
3
3
3
3
3
3
3
3
3
3
3
3
3
3
3
3
3
3
3
3
3
3
3
3
3
3
3
3
3
3
3
3
3
3
3
3
3
3
3
3
3
3
3
3
3
3
3
3
3
3
3
3
3
3
3
3
3
3
3
3
3
3
3
3
3
3
3
3
3
3
3
3
3
3
3
3
3
3
3
3
3
3
3
3
3
3
3
3
3
3
3
3
3
3
3
3
3
3
3
3
3
3
3
3
3
3
3
3
3
3
3
3
3
3
3
3
3
3
3
3
3
3
3
3
3
3
3
3
3
3
3
3
3
3
3
3
3
3
3
3
3
3
3
3
3
3
3
3
3
3
3
3
3
3
3
3
3
3
3
3
3
3
3
3
3
3
3
3
3
3
3
3
3
3
3
3
3
3
3
3
3
3
3
3
3
3
3
3
3
3
3
3
3
3
3
3
3
3
3
3
3
3
3
3
3
3
3
3
3
3
3
3
3
3
3
3
3
3
3
3
3
3
3
3
3
3
3
3
3
3
3
3
3
3
3
3
3
3
3
3
3
3
3
3
3
3
3
3
3
3
3
3
3
3
3
3
3
3
3
3
3
3
3
3
3
3
3
3
3
3
3
3
3
3
3
3
3
3
3
3
3
3
3
3
3
3
3
3
3
3
3
3
3
3
3
3
3
3
3
3
3
3
3
3
3
3
3
3
3
3
3
3
3
3
3
3
3
3
3
3
3
3
3
3
3
3
3
3
3
3
3
3
3
3
3
3
3
3
3
3
3
3
3
3
3
3
3
3
3
3
3
3
3
3
3
3
3
3
3
3
3
3
3
3
3
3
3
3
3
3
3
3
3
3
3
3
3
3
3
3
3
3
3
3
3
3
3
3
3
3
3
3
3
3
3
3
3
3
3
3
3
3
3
3
3
3
3
3
3
3
3
3
3
3
3
3
3
3
3
3
3
3
3
3
3
3
3
3
3
3
3
3
3
3
3
3
3
3
3
3
3
3
3
3
3
3
3
3
3
3
3
3
3
3
3
3
3
3
3
3
3
3
3
3
3
3
3
3
3
3
3
3
3
3
3
3
3
3
3
3
3
3
3
3
3
3
3
3
3
3
3
3
3
3
3
)
;

boundaryField
{
    leftWall
    {
        type            calculated;
        value           nonuniform List<scalar> 
50
(
2
2
2
2
2
1.78213
0.332923
3.98963e-07
6.99646e-08
7.27438e-08
0.168155
0.425825
1.1015
1.06534
1.00097
1.09216
2.46567
3
3
3
2.99999
2.99999
2.99999
3
3
3
3
3
3
3
3
3
3
3
3
3
3
3
3
3
3
3
3
3
3
3
3
3
3
3
)
;
    }
    rightWall
    {
        type            calculated;
        value           nonuniform List<scalar> 
50
(
1.7678
1.7676
1.59958
1.6782
0.906782
0.758136
0.607685
0.56496
0.413149
0.27037
0.802438
1.02143
0.999924
0.999998
0.99991
0.999661
1.9821
2.98222
2.99999
3
3
3
3
3
3
3
3
3
3
3
3
3
3
3
3
3
3
3
3
3
3
3
3
3
3
3
3
3
3
3
)
;
    }
    lowerWall
    {
        type            calculated;
        value           nonuniform List<scalar> 
62
(
2
2
2
2
2
2
2
2
2
2
2
2
2
2
2
2
2
2
2
1.99976
1.99945
1.99945
1.99948
1.99948
2
2
2
1.99999
1.99278
0.931154
0.0122895
0.0597245
0.105951
0.116629
0.0956591
1.86973
1.87039
1.63184
1.53278
0.746873
0.241502
0.158136
0.223989
1.86973
1.87074
1.90036
1.93142
1.88112
1.76824
1.76774
1.76365
1.7809
1.78385
1.77092
1.7165
1.70305
1.75172
1.7236
1.65828
1.73965
1.77736
1.7678
)
;
    }
    atmosphere
    {
        type            calculated;
        value           nonuniform List<scalar> 
46
(
3
3
3
3
3
3
3
3
3
3
3
3
3
3
3
3
3
3
3
3
3
3
3
3
3
3
3
3
3
3
3
3
3
3
3
3
3
3
3
3
3
3
3
3
3
3
)
;
    }
    defaultFaces
    {
        type            empty;
    }
}


// ************************************************************************* //
