/*--------------------------------*- C++ -*----------------------------------*\
  =========                 |
  \\      /  F ield         | OpenFOAM: The Open Source CFD Toolbox
   \\    /   O peration     | Website:  https://openfoam.org
    \\  /    A nd           | Version:  13
     \\/     M anipulation  |
\*---------------------------------------------------------------------------*/
FoamFile
{
    format      ascii;
    class       volScalarField;
    location    "2.85";
    object      epsilon;
}
// * * * * * * * * * * * * * * * * * * * * * * * * * * * * * * * * * * * * * //

dimensions      [0 2 -3 0 0 0 0];

internalField   nonuniform List<scalar> 
2268
(
0.00301729
0.0157532
0.0299493
0.0434801
0.0558712
0.0670061
0.0768014
0.0852115
0.0923035
0.0982019
0.102984
0.10676
0.109973
0.11247
0.114042
0.114445
0.113171
0.109358
0.101708
0.0883209
0.0670034
0.0372896
0.0087919
0.00540762
0.0105376
0.0170774
0.0232951
0.0288498
0.0336691
0.0377501
0.0411275
0.0438557
0.0459991
0.0476125
0.0487587
0.0495728
0.0500455
0.0501459
0.0498112
0.0488994
0.0471693
0.0442648
0.0396928
0.0328995
0.0238098
0.0159015
0.00938738
0.0107124
0.0152644
0.0197645
0.0238207
0.0273512
0.0303465
0.0328294
0.0348354
0.0364067
0.0375807
0.0384014
0.0389388
0.0392152
0.0392371
0.0389887
0.0384175
0.0374314
0.0359043
0.0336884
0.0306653
0.027055
0.0278042
0.0134982
0.0117824
0.0152344
0.0188911
0.0222621
0.0252417
0.0278036
0.0299531
0.0317113
0.0331071
0.0341682
0.0349311
0.0354454
0.0357398
0.0358345
0.0357384
0.0354461
0.0349455
0.0342433
0.0334161
0.032725
0.0330207
0.0420158
0.017731
0.0132048
0.0158427
0.0189465
0.0219021
0.0245738
0.0269155
0.0289132
0.0305738
0.0319152
0.0329573
0.0337326
0.0342806
0.034632
0.0348156
0.0348589
0.0347895
0.0346529
0.0345576
0.0347824
0.0360454
0.0403802
0.0601648
0.0223667
0.0148632
0.0168072
0.0194922
0.0221587
0.024637
0.0268596
0.0287911
0.0304237
0.031765
0.0328269
0.0336381
0.0342316
0.03464
0.0348999
0.035054
0.0351558
0.035294
0.0356572
0.0367072
0.0397046
0.0487506
0.086015
0.0272657
0.0167093
0.0180215
0.0203607
0.0228087
0.0251589
0.0273214
0.0292372
0.0308827
0.0322544
0.0333555
0.0342095
0.0348465
0.0353011
0.0356168
0.0358496
0.0360725
0.0364044
0.0370889
0.0387266
0.0430983
0.0574274
0.129381
0.0313044
0.0185817
0.0193404
0.0213856
0.0236567
0.0259155
0.0280552
0.0299952
0.0316912
0.0331263
0.0342892
0.0351947
0.0358757
0.0363684
0.0367216
0.037002
0.0372989
0.0377495
0.0386233
0.040573
0.0456042
0.063747
0.218672
0.00748686
0.0219791
0.0381036
0.0552382
0.0700247
0.0757518
0.0821944
0.0854065
0.0840265
0.0823303
0.0710943
0.0615494
0.0617645
0.0549202
0.0463815
0.0391098
0.0295341
0.0174629
0.00297599
0.0096539
0.0164824
0.0242617
0.0315205
0.0367439
0.0392802
0.0408319
0.0415516
0.0407158
0.0387177
0.0350173
0.0323279
0.0299644
0.0266065
0.0231212
0.0200519
0.0163862
0.0117266
0.00580234
0.0139612
0.0167945
0.0223799
0.027531
0.0312991
0.0329563
0.0337083
0.0341374
0.0335783
0.0320575
0.0295168
0.0274513
0.0254004
0.0225896
0.0199965
0.0178584
0.0157673
0.013577
0.0119062
0.018163
0.0182562
0.0227575
0.0267073
0.0293292
0.030802
0.0313843
0.0318206
0.031281
0.0302198
0.0282814
0.0265475
0.0249642
0.0220795
0.0197361
0.0181013
0.0170748
0.0171384
0.0221932
0.0229231
0.0201733
0.0240935
0.0272349
0.0289452
0.0298486
0.0302878
0.030498
0.0298257
0.0288017
0.0274642
0.0265036
0.0261803
0.0225711
0.0202714
0.0191226
0.0186802
0.0203468
0.0388952
0.0258385
0.0228396
0.0261822
0.0282808
0.0293175
0.0298207
0.0299641
0.0297713
0.0289991
0.0279907
0.0268391
0.0260975
0.0276771
0.0229011
0.0209563
0.0199656
0.019414
0.0208525
0.042532
0.0290954
0.0269297
0.0288369
0.0297908
0.0301449
0.0302054
0.0301263
0.0296992
0.0288681
0.0278642
0.0268174
0.0259054
0.0271587
0.0230942
0.0214176
0.0203535
0.0196815
0.0207084
0.0418058
0.0563811
0.0333876
0.0317475
0.0314127
0.0311926
0.0308335
0.0305717
0.0300234
0.0290303
0.0279426
0.0269063
0.0258523
0.0261251
0.0234132
0.0218184
0.0207073
0.020022
0.0206897
0.0387639
0.0371141
0.0216601
0.02155
0.0230958
0.0250149
0.0270286
0.0290181
0.0308942
0.0326035
0.0341024
0.0353567
0.0363581
0.0371227
0.0376859
0.0381003
0.0384435
0.0388173
0.0393693
0.0403591
0.0423645
0.0468315
0.057912
0.0906175
0.0451915
0.0260686
0.0250007
0.0258915
0.0272427
0.0287276
0.0302146
0.031637
0.0329692
0.0341916
0.0352751
0.036201
0.0369687
0.0375927
0.0381074
0.0385739
0.0390736
0.0397193
0.0406953
0.0423449
0.0453307
0.0508905
0.0610904
0.0506831
0.0308244
0.0289391
0.0292047
0.0300096
0.0309941
0.0320181
0.0330241
0.0339946
0.0349132
0.0357607
0.0365173
0.0371825
0.0377658
0.0382932
0.0388113
0.0393798
0.0400736
0.040999
0.0423139
0.0442407
0.0470425
0.0507998
0.0576738
0.036014
0.0331434
0.032756
0.0330395
0.0335755
0.0342276
0.0349262
0.0356225
0.0362963
0.0369294
0.0375126
0.0380499
0.0385513
0.0390424
0.0395696
0.0401759
0.0408916
0.0417585
0.0428178
0.0440782
0.0454913
0.0469035
0.0661826
0.0411525
0.037359
0.0363164
0.0361059
0.0362571
0.0366111
0.0370683
0.0375501
0.0380202
0.038466
0.0388862
0.0392867
0.0396846
0.040111
0.0406107
0.0412085
0.0418999
0.0426764
0.0435069
0.0443141
0.0449884
0.0454023
0.0736152
0.0462539
0.0412232
0.0395842
0.0389937
0.0388606
0.0389732
0.0392092
0.039495
0.0397884
0.0400739
0.0403458
0.040612
0.0408996
0.0412433
0.0416777
0.0422273
0.0428857
0.0435898
0.0442408
0.0447324
0.0449723
0.0449151
0.0826215
0.0507
0.04451
0.0423719
0.041491
0.0411468
0.0410626
0.0411091
0.0412246
0.0413768
0.0415372
0.0416939
0.0418564
0.0420546
0.0423214
0.0426865
0.0431727
0.0437698
0.044388
0.0448888
0.0451534
0.0451213
0.0448211
0.0906327
0.0543298
0.0472223
0.0446662
0.043551
0.0430369
0.0427968
0.0426934
0.0426795
0.0427241
0.0427941
0.042872
0.0429643
0.0430962
0.0432994
0.0436039
0.0440286
0.0445495
0.0450621
0.0454165
0.0454996
0.0452823
0.0448368
0.0942055
0.0572848
0.0494637
0.0465936
0.0453136
0.0446772
0.0443121
0.0440788
0.0439444
0.0438892
0.0438813
0.0438947
0.0439304
0.0440104
0.0441677
0.0444354
0.0448279
0.0452949
0.0456863
0.0458674
0.0457692
0.045391
0.0448393
0.101532
0.0588435
0.0509991
0.0482464
0.0470003
0.0463153
0.0458353
0.0454512
0.045147
0.0449513
0.0448474
0.0447888
0.044766
0.0447945
0.0448995
0.0451023
0.0453855
0.0456677
0.045834
0.0458285
0.0456395
0.0452488
0.0447028
0.104511
0.0585161
0.0512762
0.0489015
0.0478432
0.0471566
0.0465729
0.0460375
0.0455732
0.0452739
0.0451396
0.0450717
0.0450243
0.0449881
0.0449692
0.0449812
0.0450172
0.0450548
0.0450577
0.0449858
0.0448167
0.0445384
0.0441571
0.107505
0.0591051
0.0511216
0.0482588
0.0468919
0.0460864
0.045463
0.0449095
0.0444945
0.0443107
0.0442988
0.0443085
0.0442797
0.0442139
0.0441344
0.0440722
0.0440503
0.0440643
0.0440803
0.0440567
0.0439623
0.0437712
0.043474
0.114027
0.0598609
0.0506696
0.0472753
0.0456213
0.0446684
0.0439643
0.0433792
0.0429792
0.0428227
0.0428373
0.0428797
0.0428915
0.0428742
0.0428495
0.0428424
0.0428697
0.0429234
0.0429748
0.0429905
0.0429424
0.0428105
0.0425856
0.116228
0.0595499
0.0495711
0.0458487
0.0440464
0.0430313
0.0423134
0.0417438
0.0413704
0.0412212
0.0412295
0.0412871
0.0413421
0.0413903
0.0414427
0.041513
0.0416065
0.0417114
0.0418027
0.041853
0.0418392
0.0417475
0.0415753
0.113694
0.0579
0.0477799
0.0439846
0.0421763
0.0412036
0.040569
0.0400891
0.039776
0.0396419
0.0396463
0.0397211
0.0398209
0.0399306
0.0400497
0.0401817
0.0403235
0.0404619
0.0405762
0.0406457
0.0406527
0.0405893
0.0404593
0.108479
0.055223
0.0454395
0.0417827
0.0400763
0.0392109
0.0387122
0.0383799
0.0381712
0.0380871
0.0381181
0.0382246
0.038369
0.0385301
0.0386989
0.0388717
0.0390417
0.0391959
0.0393187
0.0393948
0.0394119
0.0393661
0.0392643
0.102012
0.0518778
0.0427311
0.0393687
0.0378453
0.0371242
0.0367736
0.0365966
0.0365202
0.0365295
0.0366224
0.0367772
0.0369669
0.0371712
0.0373773
0.0375775
0.0377644
0.0379259
0.0380504
0.0381278
0.0381498
0.0381155
0.0380317
0.0945963
0.048124
0.0398194
0.0368577
0.0355726
0.0350151
0.0348146
0.0347811
0.0348373
0.0349562
0.0351294
0.0353438
0.0355813
0.0358253
0.0360634
0.0362866
0.0364876
0.0366568
0.0367854
0.0368669
0.0368961
0.0368737
0.0368053
0.0863874
0.0442044
0.0368648
0.0343537
0.0333313
0.0329477
0.0328831
0.0329772
0.0331507
0.0333713
0.0336256
0.0339022
0.0341885
0.0344719
0.0347416
0.0349893
0.0352078
0.0353911
0.0355318
0.0356257
0.0356696
0.0356647
0.0356156
0.0779386
0.040355
0.0340104
0.0319455
0.031178
0.0309593
0.0310134
0.0312132
0.0314829
0.0317888
0.0321147
0.0324496
0.0327834
0.0331061
0.0334092
0.0336854
0.0339284
0.034133
0.0342952
0.0344115
0.0344796
0.0345005
0.0344782
0.069945
0.0368032
0.0313733
0.0297033
0.0291574
0.02908
0.0292335
0.0295107
0.0298551
0.030228
0.0306127
0.0309981
0.0313755
0.0317368
0.0320747
0.0323832
0.032657
0.0328917
0.0330838
0.0332309
0.0333316
0.0333865
0.0333986
0.0632186
0.0337457
0.0290345
0.0276733
0.0272995
0.027331
0.0275601
0.0278949
0.0282879
0.0287107
0.0291411
0.0295684
0.0299844
0.030382
0.0307552
0.0310985
0.0314073
0.0316776
0.0319064
0.0320915
0.0322312
0.0323258
0.0323772
0.0577845
0.0311906
0.0270125
0.0258708
0.0256172
0.0257239
0.0260047
0.0263788
0.0268049
0.0272588
0.0277234
0.0281843
0.0286336
0.0290649
0.0294725
0.0298514
0.0301974
0.0305066
0.0307758
0.0310025
0.0311848
0.0313221
0.0314154
0.0534373
0.0290562
0.0252762
0.0242851
0.0241078
0.0242606
0.024573
0.0249715
0.0254191
0.025894
0.0263815
0.0268693
0.0273475
0.0278098
0.0282507
0.0286653
0.0290492
0.0293985
0.0297095
0.0299793
0.0302054
0.0303863
0.030522
0.049999
0.0272764
0.0237808
0.0228881
0.0227566
0.022935
0.0232648
0.0236779
0.0241395
0.0246297
0.0251348
0.0256446
0.026149
0.0266409
0.0271146
0.0275649
0.0279872
0.0283769
0.0287301
0.029043
0.0293124
0.0295362
0.0297131
0.0472407
0.0257693
0.022476
0.0216472
0.0215428
0.0217361
0.0220766
0.0224994
0.0229722
0.023476
0.0239983
0.0245291
0.0250595
0.0255815
0.026089
0.0265762
0.0270378
0.0274687
0.0278641
0.0282197
0.0285315
0.0287964
0.0290126
0.0449308
0.0244545
0.0213141
0.020531
0.0204462
0.0206515
0.0210024
0.0214364
0.0219225
0.0224427
0.022985
0.02354
0.0240994
0.024655
0.0251996
0.0257267
0.02623
0.0267038
0.0271422
0.0275403
0.0278933
0.0281975
0.0284502
0.0428803
0.0232689
0.020259
0.0195169
0.0194525
0.019673
0.0200389
0.0204898
0.0209955
0.021539
0.0221087
0.0226954
0.0232908
0.0238866
0.0244745
0.0250469
0.0255964
0.026116
0.0265993
0.0270403
0.0274338
0.0277755
0.0280619
0.0409633
0.0221725
0.0192896
0.0185931
0.0185558
0.0187992
0.0191884
0.019665
0.0202001
0.0207774
0.0213856
0.0220155
0.0226583
0.023305
0.0239459
0.0245719
0.0251743
0.0257448
0.0262761
0.0267614
0.027195
0.0275724
0.0278894
0.0391138
0.021148
0.0184007
0.0177601
0.0177605
0.0180374
0.0184607
0.0189744
0.0195514
0.0201761
0.0208377
0.0215264
0.0222323
0.0229448
0.0236524
0.0243437
0.0250083
0.0256367
0.0262203
0.026752
0.0272258
0.0276369
0.0279812
0.0373139
0.0201962
0.0176005
0.0170311
0.0170829
0.0174056
0.017875
0.0184388
0.0190722
0.0197612
0.0204949
0.0212625
0.0220521
0.0228502
0.0236422
0.0244142
0.0251531
0.0258479
0.0264894
0.0270701
0.027584
0.0280265
0.0283936
0.0355821
0.0193346
0.0169131
0.0164346
0.0165536
0.0169349
0.0174622
0.018089
0.0187947
0.0195674
0.0203962
0.0212682
0.0221679
0.0230771
0.0239767
0.0248485
0.0256768
0.0264486
0.0271542
0.0277862
0.0283395
0.0288099
0.0291943
0.0339715
0.0186008
0.0163854
0.0160232
0.0162254
0.0166749
0.0172678
0.0179676
0.0187608
0.0196387
0.0205903
0.0215988
0.0226426
0.0236962
0.0247332
0.0257294
0.0266652
0.027526
0.0283021
0.0289873
0.029578
0.0300715
0.0304657
0.0325882
0.0180731
0.0161106
0.0158936
0.0161876
0.0167021
0.0173557
0.0181295
0.0190211
0.0200269
0.0211343
0.0223203
0.0235532
0.0247953
0.0260088
0.0271607
0.0282263
0.0291897
0.0300425
0.0307812
0.0314054
0.031915
0.0323096
0.0316501
0.0179267
0.0162808
0.016226
0.0165897
0.0171314
0.0178113
0.0186398
0.019631
0.0207861
0.0220892
0.0235061
0.0249888
0.02648
0.0279233
0.0292721
0.0304952
0.0315766
0.0325113
0.0333017
0.0339527
0.034469
0.0348526
0.0316391
0.0185742
0.0172985
0.0173533
0.0176747
0.0181255
0.0187387
0.019566
0.0206393
0.0219621
0.0235093
0.0252291
0.027047
0.0288741
0.0306221
0.0322236
0.0336394
0.0348559
0.0358763
0.0367132
0.0373812
0.0378921
0.0382518
0.0336826
0.0209915
0.0199896
0.0198642
0.0198108
0.0198915
0.0202435
0.0209571
0.022069
0.0235725
0.0254244
0.0275464
0.0298249
0.0321178
0.0342802
0.0362119
0.0378652
0.0392358
0.0403428
0.0412166
0.0418875
0.0423785
0.0427015
0.0406105
0.0274363
0.0259544
0.0247036
0.0234784
0.0226363
0.022389
0.0228075
0.0238857
0.0255785
0.027812
0.0304758
0.0334054
0.0363708
0.0391134
0.0414835
0.0434297
0.044973
0.0461619
0.0470559
0.0477102
0.0481645
0.0484394
0.060058
0.0428906
0.0379149
0.0330918
0.0291131
0.0264413
0.0251154
0.0250063
0.0259614
0.0278503
0.0305596
0.0339595
0.0378413
0.0418361
0.0454129
0.0483706
0.0506667
0.0523917
0.0536431
0.0545274
0.055137
0.0555352
0.0557539
0.115955
0.0772243
0.0592249
0.045841
0.0366683
0.031039
0.0281374
0.027292
0.0280488
0.0301398
0.0334222
0.0378068
0.0431298
0.0488635
0.0536496
0.0573918
0.0600545
0.0619235
0.0631773
0.0639938
0.0645163
0.0648348
0.0649923
0.316791
0.143219
0.0899367
0.0615378
0.0449011
0.035571
0.0308842
0.0292524
0.0297935
0.0320783
0.0359764
0.0415819
0.0491215
0.0584203
0.064802
0.06954
0.0723746
0.0741791
0.0752645
0.0758984
0.0762684
0.0764781
0.0765733
1.57305
0.208676
0.115337
0.074039
0.050856
0.0385753
0.0325851
0.0304113
0.0308067
0.0332263
0.0375965
0.0443524
0.0549771
0.074808
0.0817546
0.0869613
0.0889421
0.0899803
0.0905007
0.0907593
0.0908932
0.0909633
0.090993
0.235375
0.188575
0.174296
0.166186
0.0734121
0.0746208
0.0726515
0.0676805
0.0533758
0.054078
0.0536736
0.052082
0.0475632
0.047719
0.0475241
0.0469237
0.0454494
0.0453861
0.0452022
0.0448659
0.0447137
0.0445494
0.0443416
0.0440722
0.044502
0.0442861
0.044058
0.0438088
0.0444495
0.0442064
0.0439725
0.0437424
0.0444239
0.0441738
0.0439426
0.0437271
0.0443074
0.0440661
0.0438502
0.0436591
0.0438389
0.0436288
0.0434364
0.0432632
0.0431997
0.0430103
0.0428321
0.0426725
0.04236
0.042202
0.042049
0.0419072
0.0413925
0.0412622
0.0411313
0.0410044
0.0403136
0.0402041
0.0400875
0.0399679
0.0391436
0.0390479
0.0389403
0.0388248
0.0379273
0.0378411
0.0377407
0.0376305
0.0367144
0.0366373
0.0365461
0.0364447
0.0355406
0.0354754
0.0353972
0.0353091
0.0344256
0.0343765
0.0343154
0.0342441
0.0333731
0.0333427
0.033301
0.0332491
0.0323811
0.0323707
0.0323497
0.0323181
0.0314499
0.0314599
0.0314596
0.0314481
0.0305866
0.0306162
0.0306355
0.030643
0.0298064
0.0298542
0.0298914
0.0299162
0.0291323
0.0291965
0.0292497
0.0292895
0.0285938
0.0286724
0.0287393
0.028792
0.0282265
0.0283175
0.0283957
0.0284586
0.028072
0.028173
0.0282597
0.0283299
0.0281779
0.0282861
0.0283782
0.0284521
0.0286001
0.0287121
0.0288056
0.0288789
0.0294049
0.0295163
0.0296065
0.0296737
0.0306732
0.030779
0.0308597
0.0309143
0.0325054
0.0325992
0.0326635
0.0326975
0.0350269
0.0351018
0.035142
0.0351464
0.0383948
0.0384439
0.0384523
0.0384185
0.0428051
0.042823
0.0427939
0.0427154
0.0484997
0.0484851
0.0484177
0.0482934
0.0557742
0.055732
0.0556337
0.0554729
0.0649845
0.0649279
0.0648175
0.0646446
0.0765553
0.0765044
0.0764124
0.0762696
0.0909825
0.0909603
0.0909225
0.0908638
0.0681816
0.0430139
0.0361282
0.0338343
0.0327662
0.0320826
0.0316015
0.0307882
0.0294021
0.0281399
0.027034
0.0260155
0.0260518
0.0243136
0.0226671
0.0215368
0.0209023
0.0210631
0.0322769
0.0538041
0.0439991
0.0390187
0.0361984
0.0346204
0.0338025
0.0331983
0.03189
0.0302543
0.0288299
0.0276531
0.0268157
0.026843
0.0255878
0.0241352
0.0231221
0.0222898
0.0214799
0.0275827
0.0479682
0.0433077
0.0400856
0.0376742
0.0360537
0.0350264
0.0341561
0.0327682
0.0312341
0.0298219
0.0286299
0.0277324
0.0272699
0.0262538
0.0250232
0.0239372
0.0228608
0.0222831
0.0275489
0.0452931
0.0427097
0.0405439
0.0386447
0.0370998
0.0358915
0.0348283
0.0335793
0.0322237
0.0309319
0.0297791
0.0287746
0.0279067
0.0268816
0.0257674
0.0247719
0.024099
0.0248722
0.0363591
0.0440286
0.0424358
0.0408972
0.0394195
0.0380366
0.0367981
0.0356572
0.0344891
0.0332897
0.0321182
0.031009
0.0299521
0.0289254
0.0278707
0.026856
0.0260746
0.0258718
0.0277058
0.0451575
0.0435012
0.0424203
0.0412792
0.0401069
0.0389216
0.0377774
0.0366711
0.0355519
0.0344244
0.0333172
0.0322345
0.0311574
0.0300748
0.0290037
0.0280434
0.0274079
0.0275414
0.0301555
0.0517089
0.0433483
0.0425528
0.0416781
0.0407358
0.0397387
0.0387246
0.0376919
0.0366172
0.0355257
0.0344484
0.0333772
0.0322892
0.0311813
0.0300989
0.0291583
0.0285787
0.0288473
0.031897
0.0559124
0.0433541
0.0427342
0.0420433
0.0412773
0.0404424
0.0395584
0.0386092
0.037579
0.0365125
0.0354502
0.0343835
0.03329
0.0321718
0.0310845
0.030147
0.0295661
0.0298549
0.0330423
0.057417
0.0433839
0.0428759
0.0423089
0.0416701
0.0409743
0.0402257
0.0393702
0.0383825
0.0373345
0.0362803
0.035217
0.0341281
0.0330149
0.0319318
0.0309995
0.0304239
0.0308004
0.0343133
0.0603347
0.04336
0.0429415
0.042456
0.0418782
0.0412895
0.0406948
0.0399658
0.0390061
0.0379558
0.0369005
0.0358489
0.034795
0.0337098
0.0326409
0.0316988
0.0311369
0.0317376
0.0361579
0.0692017
0.0429875
0.0426286
0.0422195
0.0417279
0.0412602
0.0407725
0.0401483
0.0393199
0.0383471
0.0372935
0.0362623
0.0353032
0.0342762
0.0331898
0.0321434
0.0315314
0.0322634
0.0374941
0.0647554
0.0424225
0.0420835
0.041713
0.0412783
0.0408039
0.0402816
0.0397022
0.0390292
0.03822
0.0372891
0.0363377
0.03542
0.0343447
0.033157
0.032142
0.0315194
0.0321769
0.0371437
0.0729508
0.0416856
0.0413729
0.0410067
0.0405437
0.0400135
0.0394737
0.0389446
0.0383789
0.0376992
0.0369074
0.0360232
0.0350403
0.0339239
0.0327461
0.0316725
0.0309228
0.0312193
0.035405
0.0701463
0.0408016
0.0404964
0.0401215
0.0396412
0.0390829
0.038522
0.0380068
0.0375164
0.0369671
0.0363047
0.035488
0.034493
0.0333367
0.0321031
0.0309181
0.0299557
0.0296982
0.0324318
0.060224
0.039769
0.039454
0.0390664
0.0385868
0.0380361
0.0374778
0.0369646
0.0365011
0.03602
0.0354389
0.03468
0.0337034
0.0325323
0.0312566
0.0299746
0.028791
0.027982
0.0291463
0.0487101
0.0386264
0.0383019
0.0379093
0.0374418
0.0369151
0.0363744
0.0358609
0.0353855
0.0349024
0.0343319
0.033596
0.032648
0.0315042
0.0302371
0.0289175
0.0275976
0.0264494
0.0266688
0.0404676
0.0374369
0.0371135
0.0367279
0.0362806
0.0357835
0.0352616
0.0347423
0.0342335
0.0337061
0.0331012
0.032357
0.0314364
0.0303487
0.0291432
0.0278691
0.0265635
0.0253716
0.0252523
0.0357585
0.0362633
0.035954
0.0355869
0.0351661
0.0346964
0.0341904
0.0336627
0.0331171
0.0325365
0.0318852
0.0311248
0.0302333
0.0292197
0.0281183
0.0269695
0.0258252
0.0248547
0.0249341
0.0344799
0.0351473
0.0348625
0.0345232
0.0341312
0.0336874
0.0331965
0.0326645
0.0320927
0.0314729
0.0307882
0.0300215
0.0291661
0.0282347
0.0272583
0.026283
0.025389
0.0247972
0.0254523
0.0360596
0.0341069
0.0338535
0.0335455
0.0331834
0.0327655
0.0322919
0.031764
0.0311824
0.0305454
0.0298491
0.0290915
0.0282783
0.0274282
0.0265759
0.0257784
0.0251446
0.024954
0.0263109
0.039105
0.0331403
0.0329213
0.0326463
0.0323146
0.0319232
0.03147
0.0309547
0.0303783
0.0297433
0.0290537
0.0283173
0.0275481
0.0267703
0.026024
0.0253769
0.0249612
0.0251115
0.027121
0.0424189
0.0322393
0.0320557
0.0318137
0.0315121
0.0311473
0.0307168
0.0302199
0.0296586
0.029038
0.0283665
0.0276572
0.026929
0.0262106
0.0255469
0.0250142
0.0247639
0.0251802
0.0277409
0.0454465
0.031399
0.0312501
0.0310399
0.030767
0.0304281
0.0300209
0.0295453
0.029004
0.0284039
0.0277556
0.0270748
0.0263832
0.0257125
0.0251117
0.0246647
0.0245392
0.0251625
0.0281769
0.0480388
0.0306222
0.0305063
0.0303257
0.0300793
0.0297646
0.0293799
0.0289258
0.0284063
0.0278288
0.0272052
0.0265524
0.0258938
0.0252633
0.0247133
0.0243343
0.0243078
0.0250975
0.0284851
0.0502093
0.0299213
0.0298355
0.0296816
0.029459
0.0291659
0.0288018
0.0283683
0.02787
0.0273152
0.0267164
0.0260911
0.0254638
0.0248699
0.0243649
0.0240444
0.0241014
0.0250294
0.028725
0.0520331
0.0293177
0.0292582
0.0291274
0.028925
0.0286503
0.0283039
0.0278887
0.0274102
0.0268773
0.0263029
0.025705
0.0251086
0.0245505
0.0240881
0.0238213
0.0239523
0.024999
0.0289545
0.0536035
0.0288397
0.0288021
0.0286896
0.0285028
0.0282422
0.0279098
0.0275097
0.0270485
0.0265359
0.0259852
0.0254147
0.0248497
0.0243276
0.0239073
0.0236919
0.0238911
0.0250446
0.0292336
0.0550751
0.0285217
0.0285004
0.0284002
0.028223
0.0279706
0.0276467
0.027257
0.0268094
0.0263146
0.0257863
0.0252429
0.02471
0.0242248
0.023847
0.0236816
0.0239449
0.0251974
0.0296081
0.0565738
0.0284033
0.0283909
0.0282953
0.0281195
0.027867
0.0275439
0.0271576
0.026718
0.0262369
0.0257288
0.0252122
0.024712
0.0242652
0.0239307
0.0238147
0.0241384
0.0254817
0.030097
0.0580971
0.0285295
0.0285167
0.0284151
0.0282293
0.0279652
0.0276314
0.0272385
0.0267986
0.0263254
0.0258342
0.0253435
0.0248776
0.0244719
0.0241836
0.0241182
0.0245
0.0259253
0.0307202
0.05964
0.0289525
0.0289268
0.0288049
0.0285931
0.0283007
0.02794
0.0275257
0.0270736
0.0265998
0.0261211
0.0256561
0.025228
0.0248696
0.0246351
0.0246266
0.0250691
0.026571
0.0315262
0.0613205
0.0297338
0.0296787
0.029517
0.0292572
0.0289128
0.0285018
0.0280449
0.0275632
0.0270771
0.0266056
0.0261677
0.025785
0.025487
0.0253224
0.0253871
0.025902
0.0274839
0.0325917
0.06327
0.0309485
0.0308427
0.0306151
0.0302767
0.0298467
0.0293515
0.0288211
0.0282852
0.0277706
0.0273001
0.0268939
0.0265719
0.0263592
0.0262962
0.026468
0.0270852
0.0287665
0.034037
0.0657253
0.0326909
0.0325078
0.0321797
0.0317203
0.0311566
0.0305279
0.0298793
0.029254
0.0286886
0.0282124
0.0278483
0.0276154
0.0275326
0.0276297
0.0279739
0.0287559
0.030586
0.0360603
0.0690048
0.0350822
0.0347895
0.0343165
0.0336776
0.0329108
0.0320764
0.0312442
0.0304789
0.0298326
0.0293442
0.0290421
0.0289468
0.0290719
0.0294321
0.030068
0.0311372
0.0332269
0.0390104
0.0737296
0.0382797
0.0378415
0.037168
0.0362695
0.0351985
0.0340505
0.0329382
0.0319611
0.0311935
0.030688
0.0304828
0.0306058
0.0310694
0.0318682
0.0330041
0.0345885
0.0371732
0.0435214
0.0809763
0.0424885
0.0418705
0.0409312
0.0396633
0.038137
0.0365118
0.0349772
0.0336877
0.0327461
0.0322219
0.0321709
0.0326411
0.0336538
0.0351788
0.0371555
0.0396524
0.0432138
0.0507503
0.0929146
0.047975
0.0471556
0.0458821
0.0440947
0.0418809
0.0395233
0.0373583
0.0356197
0.0344391
0.0339009
0.0340906
0.0351025
0.0369926
0.03969
0.0430053
0.0470242
0.0524838
0.062733
0.11378
0.0550799
0.0540715
0.0524098
0.0498985
0.0466301
0.0431274
0.040032
0.0376724
0.0361807
0.0356422
0.0361883
0.0380127
0.0412648
0.0457958
0.0510374
0.0572933
0.0661905
0.0828123
0.152805
0.0642267
0.0631113
0.0610691
0.0575649
0.0526664
0.0472895
0.0428501
0.0396853
0.0378228
0.0373047
0.038331
0.0412907
0.0465798
0.0539603
0.0615232
0.0703051
0.0844897
0.115727
0.234329
0.07592
0.0749049
0.0726873
0.0679395
0.0607408
0.0517952
0.0454799
0.041393
0.0391523
0.0386733
0.040244
0.0445958
0.0527797
0.0650728
0.0744444
0.0842994
0.10357
0.163942
0.456668
0.0907151
0.0902089
0.0886641
0.0834619
0.0751747
0.0559931
0.0472976
0.0424276
0.0399173
0.0394743
0.0414653
0.0470584
0.0587826
0.082423
0.0900907
0.0958916
0.110539
0.193371
1.45652
)
;

boundaryField
{
    leftWall
    {
        type            epsilonWallFunction;
        value           nonuniform List<scalar> 
50
(
0.00301729
0.00540762
0.00938738
0.0134982
0.017731
0.0223667
0.0272657
0.0313044
0.0371141
0.0451915
0.0506831
0.0576738
0.0661826
0.0736152
0.0826215
0.0906327
0.0942055
0.101532
0.104511
0.107505
0.114027
0.116228
0.113694
0.108479
0.102012
0.0945963
0.0863874
0.0779386
0.069945
0.0632186
0.0577845
0.0534373
0.049999
0.0472407
0.0449308
0.0428803
0.0409633
0.0391138
0.0373139
0.0355821
0.0339715
0.0325882
0.0316501
0.0316391
0.0336826
0.0406105
0.060058
0.115955
0.316791
1.57305
)
;
    }
    rightWall
    {
        type            epsilonWallFunction;
        value           nonuniform List<scalar> 
50
(
0.00297599
0.00580234
0.0119062
0.0221932
0.0388952
0.042532
0.0418058
0.0387639
0.0322769
0.0275827
0.0275489
0.0363591
0.0451575
0.0517089
0.0559124
0.057417
0.0603347
0.0692017
0.0647554
0.0729508
0.0701463
0.060224
0.0487101
0.0404676
0.0357585
0.0344799
0.0360596
0.039105
0.0424189
0.0454465
0.0480388
0.0502093
0.0520331
0.0536035
0.0550751
0.0565738
0.0580971
0.05964
0.0613205
0.06327
0.0657253
0.0690048
0.0737296
0.0809763
0.0929146
0.11378
0.152805
0.234329
0.456668
1.45652
)
;
    }
    lowerWall
    {
        type            epsilonWallFunction;
        value           nonuniform List<scalar> 
62
(
0.00301729
0.0157532
0.0299493
0.0434801
0.0558712
0.0670061
0.0768014
0.0852115
0.0923035
0.0982019
0.102984
0.10676
0.109973
0.11247
0.114042
0.114445
0.113171
0.109358
0.101708
0.0883209
0.0670034
0.0372896
0.0087919
0.0087919
0.0159015
0.0278042
0.0420158
0.0601648
0.086015
0.129381
0.218672
0.235375
0.188575
0.174296
0.166186
0.00748686
0.0096539
0.0139612
0.018163
0.0229231
0.0258385
0.0290954
0.0563811
0.00748686
0.0219791
0.0381036
0.0552382
0.0700247
0.0757518
0.0821944
0.0854065
0.0840265
0.0823303
0.0710943
0.0615494
0.0617645
0.0549202
0.0463815
0.0391098
0.0295341
0.0174629
0.00297599
)
;
    }
    atmosphere
    {
        type            inletOutlet;
        inletValue      uniform 0.1;
        value           nonuniform List<scalar> 
46
(
0.1
0.1
0.115337
0.074039
0.050856
0.0385753
0.0325851
0.0304113
0.0308067
0.0332263
0.0375965
0.0443524
0.0549771
0.1
0.1
0.1
0.1
0.1
0.1
0.1
0.1
0.1
0.1
0.1
0.1
0.1
0.1
0.1
0.1
0.1
0.1
0.1
0.0559931
0.0472976
0.0424276
0.0399173
0.0394743
0.0414653
0.0470584
0.0587826
0.1
0.1
0.1
0.1
0.1
0.1
)
;
    }
    defaultFaces
    {
        type            empty;
    }
}


// ************************************************************************* //
