/*--------------------------------*- C++ -*----------------------------------*\
  =========                 |
  \\      /  F ield         | OpenFOAM: The Open Source CFD Toolbox
   \\    /   O peration     | Website:  https://openfoam.org
    \\  /    A nd           | Version:  13
     \\/     M anipulation  |
\*---------------------------------------------------------------------------*/
FoamFile
{
    format      ascii;
    class       volScalarField;
    location    "2.85";
    object      k;
}
// * * * * * * * * * * * * * * * * * * * * * * * * * * * * * * * * * * * * * //

dimensions      [0 2 -2 0 0 0 0];

internalField   nonuniform List<scalar> 
2268
(
0.000802155
0.00241127
0.00368647
0.00471727
0.00556997
0.00628457
0.00688234
0.00737733
0.00778419
0.00811648
0.00838335
0.00859825
0.00878445
0.00892809
0.00902064
0.0090497
0.00898826
0.00878943
0.00837678
0.00762451
0.00633937
0.00427969
0.00160788
0.00195761
0.00556895
0.00817726
0.0102978
0.0120569
0.0135343
0.0147755
0.0158107
0.0166689
0.0173757
0.0179491
0.0184085
0.0187679
0.0190316
0.0191936
0.0192312
0.0190953
0.018699
0.0178987
0.01646
0.014018
0.0100665
0.00396256
0.00283303
0.00754906
0.0107513
0.0133601
0.0155365
0.0173704
0.0189149
0.0202074
0.0212819
0.0221674
0.0228865
0.0234635
0.0239141
0.0242447
0.0244482
0.0244993
0.024344
0.0238872
0.0229705
0.0213326
0.0185446
0.0138898
0.00575955
0.0036114
0.00914093
0.0127155
0.015623
0.0180663
0.0201391
0.0218959
0.0233749
0.0246104
0.0256324
0.0264654
0.0271368
0.0276632
0.0280519
0.0282963
0.0283723
0.0282283
0.0277727
0.0268509
0.0252021
0.0223632
0.0174024
0.00758295
0.00432864
0.0105342
0.0143913
0.017516
0.020161
0.0224248
0.0243597
0.0260005
0.0273793
0.0285249
0.0294623
0.030221
0.0308177
0.0312608
0.0315459
0.0316531
0.0315373
0.0311163
0.0302489
0.0286899
0.0259658
0.0209382
0.00962204
0.00504302
0.0118051
0.0159007
0.0192022
0.022016
0.0244469
0.0265442
0.0283363
0.0298512
0.0311152
0.0321527
0.0329941
0.0336566
0.0341498
0.0344733
0.0346135
0.034534
0.034165
0.0333843
0.0319748
0.0294863
0.0246437
0.0121915
0.00573935
0.0129846
0.0172961
0.020755
0.0237212
0.0263077
0.0285605
0.0304998
0.0321481
0.0335285
0.0346636
0.035584
0.0363079
0.0368469
0.0372051
0.0373766
0.0373348
0.0370235
0.0363421
0.0351117
0.0329476
0.0286127
0.0159863
0.00628733
0.0140272
0.0185511
0.0221635
0.0252743
0.0280088
0.030414
0.0325032
0.0342901
0.0357935
0.0370308
0.0380319
0.0388179
0.0394016
0.039792
0.0399913
0.0399845
0.0397292
0.0391467
0.0381006
0.0363061
0.0328477
0.0226805
0.00142746
0.0029171
0.00421431
0.00542517
0.00636497
0.00674215
0.0071348
0.00732422
0.00726468
0.00719216
0.00652761
0.00594319
0.00597059
0.0055156
0.00492722
0.00439175
0.00364349
0.00256845
0.000787511
0.00301311
0.00649013
0.00927886
0.0118337
0.0137804
0.014726
0.0155188
0.0159158
0.0157902
0.0153363
0.0144893
0.0134477
0.0131148
0.0120304
0.0109429
0.00981942
0.00835248
0.00615808
0.00217326
0.00387065
0.00845522
0.0119696
0.0150392
0.0174311
0.0188035
0.0197008
0.0202161
0.0201403
0.0195777
0.01868
0.0177097
0.0169358
0.0155061
0.0141652
0.012795
0.0111039
0.00859834
0.00350942
0.00462491
0.0101613
0.0141467
0.0174639
0.0198922
0.021533
0.022599
0.0232473
0.0231726
0.0226417
0.0217804
0.0208444
0.0199681
0.0181984
0.01666
0.015162
0.0134317
0.0110175
0.00531796
0.00540745
0.0117443
0.0161477
0.0196537
0.0220463
0.0236651
0.0248269
0.0254688
0.0253182
0.024736
0.0240036
0.0232965
0.0228076
0.020502
0.0187945
0.0172713
0.0154376
0.0130263
0.00771588
0.00592438
0.0132093
0.0181251
0.0216313
0.0240367
0.0256693
0.0268016
0.0273016
0.0270917
0.0264902
0.0257474
0.0250223
0.0252872
0.0222712
0.0206172
0.0189476
0.0167719
0.0138439
0.00819104
0.00654405
0.014928
0.0202122
0.0235984
0.0259439
0.0275459
0.0286413
0.0290456
0.0288041
0.0281926
0.0274293
0.0264996
0.0264388
0.0237059
0.0220616
0.0201511
0.0176473
0.0141585
0.00809939
0.0103702
0.0174644
0.0224983
0.025609
0.0278282
0.0293382
0.0303797
0.0307288
0.0304016
0.02973
0.0289092
0.0278085
0.027127
0.025037
0.0232844
0.0211482
0.0183472
0.0142687
0.00769975
0.00699472
0.0155134
0.0203449
0.0241477
0.0274097
0.0302853
0.032835
0.0350768
0.0370253
0.0386881
0.0400728
0.0411969
0.0420758
0.0427282
0.0431703
0.0434163
0.043466
0.0432958
0.042855
0.0420655
0.0407868
0.0386239
0.0343083
0.00792078
0.0173439
0.0225881
0.0265888
0.0299358
0.0328169
0.0353198
0.0374958
0.0393886
0.0410281
0.0424281
0.0435922
0.044534
0.0452677
0.0458082
0.0461713
0.0463617
0.0463671
0.0461572
0.045687
0.0448828
0.0435839
0.0414581
0.00853128
0.0190524
0.0248058
0.0290287
0.0324515
0.0353307
0.037783
0.039886
0.0417019
0.0432711
0.0446179
0.0457482
0.0466822
0.0474367
0.0480292
0.048477
0.0487867
0.0489483
0.0489354
0.0487019
0.048174
0.0472506
0.045851
0.00927477
0.0207038
0.0269356
0.0313937
0.0349119
0.0378116
0.0402571
0.0423392
0.0441148
0.045633
0.0469207
0.0480027
0.0489061
0.0496532
0.0502666
0.0507722
0.051178
0.0514645
0.0515969
0.0515207
0.0511512
0.0504027
0.0492728
0.010151
0.0225724
0.0290885
0.0337094
0.0373052
0.040237
0.0426976
0.0447803
0.0465362
0.0480116
0.0492466
0.050278
0.0511385
0.0518595
0.0524723
0.0530082
0.0534727
0.0538364
0.0540536
0.0540597
0.0537711
0.0531256
0.0521424
0.0108824
0.0240621
0.031085
0.0359128
0.0396068
0.0425825
0.0450497
0.0471141
0.0488403
0.0502752
0.0514643
0.0524459
0.0532576
0.053942
0.0545375
0.0550735
0.0555618
0.0559816
0.056264
0.0563191
0.0560695
0.0554801
0.0545997
0.0117279
0.0256319
0.0329277
0.0378966
0.0416727
0.0446903
0.0471596
0.0492023
0.0508964
0.0523016
0.0534587
0.0544049
0.0551824
0.055839
0.0564158
0.0569426
0.0574352
0.0578763
0.058188
0.0582646
0.0580317
0.0574739
0.0566575
0.0124607
0.0269935
0.0344568
0.0395507
0.0434131
0.0464808
0.0489663
0.0509984
0.0526755
0.0540636
0.0552038
0.0561327
0.0568928
0.0575318
0.0580929
0.0586096
0.0590981
0.0595358
0.0598412
0.0599076
0.0596633
0.0591121
0.0583428
0.0128012
0.0278105
0.0356218
0.0409088
0.044897
0.0480434
0.0505598
0.0525879
0.054246
0.055614
0.0567381
0.0576523
0.0583979
0.0590228
0.059574
0.0600895
0.0605845
0.061021
0.0612877
0.061292
0.0610007
0.0604339
0.0596942
0.0134794
0.0290146
0.0368678
0.0422517
0.0463638
0.0495956
0.0521341
0.0541327
0.0557253
0.0570329
0.0581178
0.0590023
0.0597227
0.060324
0.0608499
0.0613317
0.0617646
0.0620906
0.0622291
0.0621505
0.0618608
0.0613616
0.0607024
0.0138999
0.0299632
0.0378529
0.0433214
0.0475126
0.0507609
0.0532579
0.0551733
0.0566665
0.0579083
0.0589764
0.059857
0.06056
0.0611131
0.0615476
0.0618919
0.0621524
0.0623172
0.0623677
0.0622848
0.062063
0.0617037
0.061221
0.0141815
0.0304666
0.0382257
0.0434865
0.0474896
0.0506298
0.0530702
0.0549531
0.0564648
0.0577751
0.0589212
0.0598517
0.0605641
0.0610927
0.0614819
0.0617749
0.0620013
0.0621676
0.0622573
0.0622479
0.062124
0.0618724
0.0614928
0.0146904
0.0306603
0.0382412
0.0433032
0.04713
0.0501413
0.0524912
0.0543203
0.0558162
0.0571261
0.058279
0.0592271
0.0599681
0.0605359
0.0609724
0.0613165
0.0615947
0.0618121
0.0619558
0.0620079
0.0619527
0.0617795
0.061485
0.0148478
0.0305249
0.0379063
0.0427933
0.0464807
0.0493918
0.0516803
0.0534772
0.05496
0.0562535
0.0573897
0.0583452
0.0591222
0.0597485
0.0602571
0.0606771
0.0610265
0.0613073
0.0615087
0.0616162
0.0616165
0.0615017
0.0612724
0.0146222
0.0300274
0.037231
0.0419748
0.0455558
0.0484063
0.0506819
0.0524909
0.0539825
0.0552664
0.0563901
0.0573587
0.0581776
0.0588651
0.0594438
0.0599335
0.0603449
0.0606782
0.060925
0.0610749
0.0611177
0.0610493
0.0608747
0.0141771
0.0292122
0.0362498
0.0408774
0.0443797
0.0471942
0.0494829
0.0513413
0.0528745
0.0541778
0.0553166
0.0563142
0.0571798
0.0579253
0.0585649
0.0591115
0.0595718
0.059945
0.0602258
0.0604074
0.0604827
0.0604507
0.0603182
0.0136244
0.0281469
0.0350099
0.0395457
0.0429973
0.0457939
0.0481043
0.0500197
0.051619
0.0529795
0.0541659
0.0552106
0.0561281
0.0569288
0.0576225
0.0582174
0.0587186
0.0591251
0.0594342
0.059642
0.0597447
0.0597431
0.0596437
0.0129787
0.0268933
0.0335721
0.038038
0.0414621
0.0442545
0.0465941
0.0485659
0.0502389
0.0516756
0.0529295
0.0540349
0.05501
0.0558661
0.0566113
0.057252
0.0577924
0.0582324
0.0585708
0.0588065
0.0589376
0.0589658
0.0588969
0.0122398
0.0255162
0.0320143
0.0364228
0.0398333
0.0426334
0.0450018
0.0470277
0.048771
0.0502842
0.0516112
0.0527832
0.0538197
0.0547328
0.0555306
0.0562188
0.0568012
0.0572796
0.0576536
0.0579233
0.0580885
0.0581513
0.0581161
0.0114486
0.0240919
0.0304147
0.0347682
0.0381681
0.0409786
0.0433725
0.0454451
0.0472498
0.0488318
0.0502281
0.0514662
0.0525648
0.0535362
0.0543888
0.0551283
0.0557584
0.0562813
0.0566985
0.0570107
0.0572181
0.0573227
0.0573282
0.0106655
0.0226926
0.0288435
0.0331371
0.0365207
0.0393364
0.0417499
0.0438547
0.0457094
0.0473494
0.048807
0.0501064
0.0512649
0.0522945
0.0532036
0.0539978
0.0546809
0.0552555
0.0557231
0.0560852
0.0563424
0.0564965
0.0565504
0.00997081
0.0213791
0.0273597
0.0315826
0.0349374
0.0377472
0.0401699
0.0422964
0.0441836
0.0458697
0.047379
0.0487329
0.0499473
0.0510335
0.0519993
0.0528502
0.0535899
0.054221
0.054745
0.0551633
0.0554764
0.0556857
0.0557933
0.00939242
0.0202156
0.0260073
0.0301439
0.0334542
0.0362437
0.0386631
0.0407995
0.042708
0.0444254
0.0459765
0.0473776
0.0486429
0.0497826
0.050804
0.051712
0.05251
0.0532002
0.0537837
0.0542615
0.0546339
0.0549017
0.0550661
0.00891417
0.0192324
0.0248211
0.0288466
0.0320938
0.0348488
0.0372525
0.0393881
0.0413081
0.0430475
0.0446302
0.0460717
0.0473829
0.0485729
0.0496479
0.0506122
0.0514684
0.0522181
0.0528619
0.0534002
0.0538328
0.0541597
0.0543815
0.00852482
0.0184115
0.0237973
0.0277014
0.0308699
0.0335756
0.0359529
0.0380797
0.0400042
0.0417594
0.0433675
0.0448438
0.0461971
0.0474346
0.0485613
0.0495805
0.050494
0.0513024
0.0520057
0.0526035
0.053095
0.0534796
0.053757
0.00820549
0.0177217
0.0229118
0.0266924
0.0297785
0.0324301
0.034775
0.0368867
0.0388113
0.0405793
0.0422111
0.0437196
0.0451131
0.0463968
0.0475743
0.0486475
0.0496171
0.0504829
0.0512439
0.051899
0.0524468
0.052886
0.0532159
0.00793384
0.0171263
0.022135
0.025798
0.0288047
0.0314045
0.0337189
0.0358175
0.0377435
0.0395252
0.041181
0.0427226
0.0441571
0.0454879
0.0467168
0.0478442
0.0488695
0.0497914
0.0506081
0.0513177
0.0519183
0.0524081
0.0527855
0.00768999
0.0165926
0.0214389
0.024997
0.0279342
0.0304906
0.0327821
0.0348746
0.0368087
0.0386104
0.0402962
0.0418762
0.0433559
0.0447372
0.0460201
0.0472033
0.0482848
0.0492621
0.0501326
0.0508937
0.0515431
0.0520786
0.0524982
0.00745963
0.0160969
0.020803
0.0242739
0.0271569
0.0296835
0.0319647
0.034063
0.0360164
0.0378489
0.039575
0.0412028
0.042736
0.0441747
0.045517
0.0467597
0.0478994
0.0489323
0.0498552
0.0506649
0.0513587
0.0519345
0.0523901
0.0072349
0.0156266
0.020217
0.0236224
0.0264707
0.0289853
0.0312727
0.0333924
0.0353803
0.0372582
0.0390387
0.0407278
0.0423266
0.0438332
0.0452433
0.0465515
0.0477529
0.0488428
0.0498171
0.0506724
0.0514063
0.0520165
0.0525011
0.00701329
0.0151796
0.0196819
0.0230473
0.0258839
0.0284073
0.0307202
0.0328797
0.03492
0.0368613
0.038714
0.0404814
0.0421618
0.0437502
0.0452394
0.0466217
0.0478902
0.0490392
0.0500644
0.0509625
0.0517314
0.0523694
0.0528751
0.00679712
0.0147648
0.0192119
0.0225672
0.0254181
0.0279729
0.0303315
0.0325501
0.0346623
0.0366871
0.0386326
0.0404992
0.0422812
0.0439693
0.0455525
0.0470199
0.0483626
0.0495739
0.0506496
0.0515871
0.0523854
0.0530437
0.0535615
0.00659338
0.0144044
0.0188391
0.0222198
0.0251126
0.0277202
0.0301424
0.0324375
0.0346402
0.0367695
0.0388314
0.0408221
0.0427305
0.0445413
0.0462377
0.0478045
0.0492304
0.0505079
0.0516334
0.0526063
0.0534271
0.054097
0.0546166
0.00641688
0.0141437
0.0186253
0.0220721
0.0250312
0.0277053
0.0302008
0.0325828
0.034891
0.0371454
0.0393497
0.0414946
0.0435611
0.0455245
0.0473593
0.0490443
0.0505646
0.0519128
0.0530871
0.0540898
0.0549248
0.055596
0.056106
0.00629804
0.0140736
0.0186851
0.0222376
0.025272
0.0280061
0.0305654
0.0330307
0.0354508
0.0378484
0.0402244
0.0425612
0.0448276
0.0469843
0.0489921
0.05082
0.0524492
0.053873
0.0550936
0.0561186
0.0569574
0.0576179
0.0581055
0.00630292
0.0143778
0.0192284
0.0229038
0.0259791
0.028722
0.0313
0.0338204
0.0363452
0.0389002
0.0414815
0.0440594
0.046584
0.0489923
0.0512217
0.0532264
0.0549826
0.0564868
0.057749
0.0587858
0.059615
0.0602511
0.0607031
0.00657744
0.0154238
0.0206336
0.0243681
0.0273487
0.029965
0.032458
0.0349697
0.0375736
0.0402953
0.0431225
0.0460092
0.0488774
0.0516249
0.0541473
0.0563751
0.0582802
0.0598682
0.061163
0.0621964
0.0629991
0.0635951
0.0639986
0.00744925
0.017934
0.0235576
0.0270661
0.0296124
0.0318285
0.034053
0.0364501
0.0390883
0.0419819
0.0451065
0.0483975
0.0517403
0.0549668
0.057889
0.0604027
0.06248
0.0641492
0.0654595
0.0664666
0.0672206
0.0677587
0.0681022
0.00964509
0.0233013
0.0290553
0.0315373
0.0329601
0.0343208
0.0360127
0.0381571
0.0407723
0.0438412
0.0473267
0.0511561
0.0551819
0.0591301
0.0626133
0.065494
0.067757
0.0694872
0.0707782
0.0717226
0.0723978
0.0728578
0.0731322
0.0148874
0.0341768
0.0385957
0.03822
0.0373607
0.0372587
0.0381276
0.0398878
0.0424275
0.0456726
0.0495842
0.054125
0.0591747
0.0643334
0.0686078
0.0719478
0.0743609
0.0760809
0.0772787
0.0780994
0.0786535
0.0790119
0.0792107
0.0290273
0.055091
0.0534908
0.0468697
0.0422463
0.0401451
0.0400218
0.0413461
0.0437872
0.0471955
0.0515591
0.056976
0.0635974
0.0712524
0.0765107
0.0803461
0.0826935
0.084193
0.0851399
0.085735
0.0861103
0.0863402
0.0864602
0.0852515
0.0889633
0.0709078
0.0550621
0.0460591
0.0421036
0.0411931
0.0421998
0.0445678
0.048086
0.0527935
0.0590347
0.0678541
0.0829238
0.0882125
0.0918872
0.0933577
0.0941142
0.0945212
0.0947482
0.0948805
0.0949576
0.0949961
0.0237867
0.0204495
0.019471
0.0189869
0.0389924
0.0374231
0.0361108
0.0349003
0.0445372
0.0436555
0.0427753
0.041853
0.0482778
0.0476239
0.0469864
0.046343
0.0513073
0.0507743
0.0502581
0.0497468
0.0538631
0.0533971
0.0529443
0.0524985
0.0559914
0.0555691
0.0551573
0.0547536
0.0577256
0.0573365
0.0569604
0.0565956
0.059125
0.0587686
0.0584242
0.0580912
0.0601966
0.059874
0.0595637
0.059266
0.0608073
0.0605286
0.0602539
0.0599844
0.0611367
0.0608875
0.0606359
0.0603878
0.0611844
0.0609697
0.060747
0.0605214
0.06102
0.0608352
0.0606377
0.0604312
0.0606645
0.0605037
0.0603243
0.0601297
0.0601403
0.0599974
0.0598312
0.0596452
0.0594905
0.0593619
0.0592073
0.0590304
0.0587663
0.0586518
0.0585107
0.0583462
0.0580106
0.0579132
0.0577894
0.0576421
0.0572539
0.0571776
0.0570757
0.0569497
0.0565124
0.0564606
0.0563838
0.0562824
0.055795
0.0557697
0.0557199
0.0556452
0.0551092
0.0551112
0.0550889
0.0550412
0.0544657
0.0544943
0.0544989
0.0544773
0.0538806
0.0539343
0.0539638
0.0539666
0.0533756
0.053452
0.053504
0.0535286
0.0529774
0.0530739
0.0531452
0.0531885
0.0527177
0.0528308
0.052918
0.0529764
0.052632
0.0527582
0.0528573
0.0529267
0.0527594
0.0528945
0.0530012
0.053077
0.0531432
0.0532828
0.053392
0.0534691
0.0538319
0.0539707
0.0540771
0.0541495
0.054881
0.0550133
0.0551106
0.0551718
0.0563551
0.0564747
0.0565563
0.0565991
0.0583299
0.0584303
0.0584895
0.0585066
0.0608936
0.060969
0.0609996
0.0609843
0.0641479
0.0641939
0.0641918
0.0641398
0.0682067
0.0682224
0.0681875
0.068099
0.073194
0.0731833
0.0731218
0.0730049
0.0792381
0.079211
0.0791375
0.0790115
0.0864664
0.086438
0.0863754
0.0862718
0.0949949
0.0949819
0.094956
0.0949136
0.0205588
0.0232699
0.0265742
0.0289255
0.030739
0.0320984
0.0330047
0.0332086
0.0326637
0.0318613
0.0309053
0.0297286
0.0288914
0.0271466
0.0250649
0.0225782
0.0193034
0.0141101
0.00681541
0.0332069
0.0324453
0.0331603
0.0340103
0.0348884
0.0357805
0.0363995
0.0361892
0.0354087
0.0344301
0.0333338
0.0321888
0.0313323
0.0295808
0.0272113
0.0242702
0.0200368
0.0134677
0.00613254
0.040345
0.0390821
0.0387434
0.0387167
0.0388634
0.0391238
0.0392492
0.0387809
0.0379262
0.0368548
0.0356581
0.0343955
0.0331557
0.0312743
0.0286949
0.0253636
0.0207215
0.0141229
0.00612121
0.0452194
0.043958
0.0432309
0.042746
0.0423894
0.0420906
0.0417643
0.0411522
0.0402477
0.0391354
0.0378613
0.0364274
0.0347985
0.0327024
0.0300162
0.0266484
0.0222933
0.0163988
0.00735177
0.0488682
0.047728
0.0468636
0.0461565
0.0454996
0.0448535
0.0442009
0.0434224
0.0424565
0.0412941
0.0399355
0.0383544
0.036498
0.0342503
0.0315272
0.0282429
0.0241648
0.0186706
0.00848589
0.0517525
0.0507354
0.0498467
0.0490346
0.0482269
0.0474088
0.0465659
0.0456318
0.0445546
0.0433024
0.0418461
0.0401441
0.0381466
0.0357926
0.033026
0.0297595
0.0257459
0.0201928
0.00928761
0.0540897
0.0531766
0.0523108
0.0514631
0.0505932
0.0496911
0.0487333
0.0476697
0.0464699
0.0451095
0.0435495
0.041741
0.0396377
0.0371984
0.0343728
0.0310531
0.0269525
0.0211943
0.00978674
0.0560015
0.055173
0.0543451
0.053497
0.0526076
0.0516651
0.0506325
0.0494635
0.0481485
0.0466786
0.0450167
0.043114
0.0409257
0.0384155
0.0355279
0.0321247
0.0278824
0.0219026
0.00996971
0.0575504
0.056788
0.0559952
0.0551558
0.0542691
0.0533208
0.0522447
0.0509875
0.0495663
0.0479915
0.0462359
0.0442551
0.0420005
0.0394303
0.0364834
0.0329974
0.0286331
0.0225388
0.0103186
0.0587775
0.0580788
0.0573148
0.0564644
0.0555842
0.0546654
0.0535876
0.0522467
0.0507162
0.0490403
0.0472069
0.045179
0.0428814
0.0402622
0.0372449
0.0336721
0.0292393
0.0230688
0.0113023
0.0595314
0.0588807
0.0581568
0.0573357
0.056494
0.0555877
0.0545059
0.0531671
0.0515978
0.0498352
0.0479394
0.0459133
0.0435996
0.040921
0.0377882
0.0341124
0.0295675
0.0229965
0.0107643
0.0599698
0.0593419
0.05864
0.0578409
0.0569571
0.0559669
0.0548439
0.0535384
0.0520128
0.0502666
0.0483563
0.0462896
0.043883
0.0410902
0.0379402
0.0342525
0.0297926
0.0235763
0.0116412
0.0601382
0.0595396
0.0588372
0.0579991
0.0570397
0.0559854
0.054835
0.0535394
0.0520412
0.0503322
0.0484067
0.0462218
0.0437042
0.0408348
0.0375876
0.0338376
0.0293287
0.0231898
0.0113978
0.0600738
0.059489
0.0587769
0.0579083
0.0568954
0.055781
0.0545882
0.0532923
0.0518302
0.0501526
0.0482059
0.04593
0.0432857
0.0402725
0.0368702
0.0329693
0.0282815
0.0220053
0.0103291
0.0597845
0.059198
0.0584728
0.0575894
0.0565555
0.0554077
0.0541757
0.0528552
0.051392
0.0497129
0.0477342
0.045383
0.0426263
0.0394721
0.0359005
0.0317982
0.0268653
0.020363
0.00899632
0.0593078
0.0587181
0.0579863
0.0571009
0.056066
0.0549065
0.0536457
0.0522831
0.0507763
0.0490503
0.047018
0.0446027
0.0417673
0.0385093
0.0347969
0.0305041
0.0253361
0.018619
0.00795345
0.0587037
0.0581195
0.0573926
0.056517
0.0554934
0.0543335
0.0530502
0.0516397
0.0500681
0.0482719
0.0461747
0.0437076
0.0408282
0.0375178
0.0337327
0.0293431
0.02408
0.0173428
0.00731325
0.058037
0.0574708
0.0567618
0.0559066
0.0549013
0.053748
0.0524493
0.0509977
0.0493653
0.0475037
0.0453535
0.0428589
0.0399795
0.0366833
0.0329146
0.0285536
0.0233614
0.0167837
0.00712227
0.0573581
0.0568218
0.056143
0.0553169
0.0543367
0.053198
0.0518962
0.0504208
0.0487501
0.0468494
0.0446764
0.0421888
0.0393501
0.0361235
0.0324521
0.0282276
0.0232303
0.0169027
0.00732847
0.0566976
0.056201
0.0555608
0.0547712
0.0538233
0.0527089
0.0514195
0.0499436
0.0482644
0.0463581
0.0441958
0.041747
0.0389807
0.0358612
0.0323339
0.0282971
0.023533
0.0174409
0.00772939
0.0560676
0.055617
0.0550214
0.0542742
0.0533653
0.0522848
0.0510226
0.0495678
0.0479073
0.0460247
0.0439008
0.0415132
0.0388366
0.0358376
0.0324627
0.0286097
0.0240491
0.0181205
0.00815838
0.0554705
0.0550698
0.0545224
0.0538213
0.0529562
0.051917
0.0506933
0.0492754
0.0476527
0.045814
0.0437454
0.0414302
0.0388467
0.0359629
0.0327243
0.0290236
0.0246151
0.0187811
0.00854375
0.0549077
0.0545581
0.05406
0.0534064
0.0525876
0.0515937
0.0504151
0.0490431
0.0474693
0.0456847
0.0436789
0.0414381
0.0389424
0.0361598
0.0330335
0.02945
0.0251484
0.0193656
0.00886909
0.0543842
0.0540848
0.0536349
0.0530282
0.0522554
0.0513077
0.0501765
0.048854
0.0473329
0.0456058
0.0436637
0.0414939
0.0390769
0.0363801
0.0333438
0.0298488
0.0256223
0.019865
0.00913844
0.0539113
0.0536593
0.0532548
0.0526922
0.0519631
0.0510599
0.049975
0.0487013
0.0472326
0.0455619
0.0436805
0.0415761
0.0392285
0.0366037
0.0336395
0.0302115
0.0260379
0.0202917
0.00936259
0.0535074
0.0532982
0.0529346
0.0524116
0.0517221
0.0508594
0.0498172
0.0485893
0.0471697
0.0455517
0.0437265
0.041681
0.0393942
0.0368301
0.0339237
0.0305466
0.0264093
0.0206624
0.00955405
0.0531967
0.0530242
0.0526954
0.0522059
0.05155
0.0507223
0.0497174
0.0485301
0.0471548
0.0455846
0.0438102
0.0418174
0.0395835
0.0370704
0.0342102
0.0308705
0.0267554
0.0209982
0.00973428
0.0530085
0.0528653
0.0525634
0.0520996
0.0514696
0.0506693
0.0496947
0.0485413
0.0472041
0.0456759
0.0439467
0.0420006
0.0398129
0.0373428
0.0345188
0.0312047
0.0270989
0.0213187
0.00991437
0.0529758
0.0528529
0.0525686
0.0521209
0.0515069
0.0507244
0.049771
0.0486434
0.047337
0.0458447
0.044155
0.0422504
0.0401031
0.037669
0.0348725
0.0315727
0.0274616
0.0216419
0.0100928
0.0531355
0.0530221
0.0527438
0.0522999
0.0516896
0.0509128
0.0499692
0.0488574
0.0475736
0.0461104
0.0444552
0.0425878
0.0404771
0.0380738
0.0352972
0.0320005
0.027869
0.02199
0.010271
0.0535282
0.0534111
0.0531246
0.0526691
0.0520466
0.0512599
0.0503118
0.0492034
0.0479325
0.0464917
0.0448671
0.0430352
0.04096
0.0385859
0.0358245
0.032521
0.0283519
0.0223886
0.0104628
0.054199
0.0540628
0.0537502
0.0532638
0.0526085
0.0517916
0.0508204
0.0496999
0.0484305
0.0470059
0.0454102
0.0436164
0.0415816
0.0392412
0.0364955
0.033178
0.028953
0.0228731
0.0106829
0.0552003
0.0550263
0.0546659
0.0541235
0.0534085
0.0525343
0.0515152
0.0503628
0.0490819
0.0476679
0.0461042
0.0443585
0.0423794
0.0400887
0.0373695
0.0340366
0.0297357
0.023495
0.0109572
0.0565937
0.0563603
0.0559252
0.0552946
0.0544837
0.0535154
0.0524153
0.051205
0.0498969
0.0484905
0.046969
0.0452948
0.0434041
0.0411995
0.0385368
0.0351996
0.0308028
0.0243393
0.0113196
0.0584538
0.0581368
0.0575946
0.0568341
0.055878
0.0547645
0.0535374
0.0522346
0.0508808
0.0494827
0.0480253
0.0464666
0.0447274
0.042681
0.0401397
0.0368344
0.032326
0.025549
0.0118343
0.0608718
0.0604462
0.059759
0.058814
0.0576442
0.0563126
0.0548937
0.0534519
0.0520302
0.0506468
0.0492935
0.0479268
0.0464506
0.0446948
0.0424007
0.0392112
0.0345933
0.0273749
0.0126062
0.0639588
0.0634033
0.0625293
0.0613285
0.0598466
0.0581903
0.0564877
0.0548441
0.0533276
0.0519736
0.0507884
0.0497371
0.0487095
0.047473
0.0456497
0.0427426
0.0380637
0.0302386
0.0138324
0.0678496
0.0671541
0.0660532
0.0645034
0.0625641
0.0604216
0.058304
0.0563756
0.0547326
0.0534314
0.0525068
0.0519549
0.0516668
0.0513206
0.0503249
0.0479846
0.0433957
0.0348092
0.0158535
0.0727025
0.0718836
0.0705304
0.068511
0.0658935
0.0630088
0.0602905
0.0579738
0.0561692
0.0549509
0.0544023
0.0545961
0.0554729
0.0565893
0.0569123
0.0555353
0.0513723
0.0420549
0.0193098
0.0786952
0.0778205
0.0762395
0.0736071
0.069987
0.0659031
0.0623268
0.059511
0.0575143
0.0564065
0.0563446
0.0575606
0.0601775
0.0636575
0.0658201
0.0657869
0.06265
0.0533056
0.0256381
0.0860112
0.0852386
0.083605
0.0802865
0.0753532
0.0689608
0.0641787
0.0607896
0.0585946
0.0576044
0.0580698
0.0605037
0.0655557
0.073151
0.077304
0.0785861
0.0772449
0.0703072
0.0397795
0.0948043
0.0944318
0.093371
0.0900883
0.0848353
0.0717864
0.0654367
0.0615517
0.0592112
0.0583031
0.0591591
0.0626452
0.0705858
0.0871883
0.0915719
0.0929221
0.0933867
0.0933559
0.0868357
)
;

boundaryField
{
    leftWall
    {
        type            kqRWallFunction;
        value           nonuniform List<scalar> 
50
(
0.000802155
0.00195761
0.00283303
0.0036114
0.00432864
0.00504302
0.00573935
0.00628733
0.00699472
0.00792078
0.00853128
0.00927477
0.010151
0.0108824
0.0117279
0.0124607
0.0128012
0.0134794
0.0138999
0.0141815
0.0146904
0.0148478
0.0146222
0.0141771
0.0136244
0.0129787
0.0122398
0.0114486
0.0106655
0.00997081
0.00939242
0.00891417
0.00852482
0.00820549
0.00793384
0.00768999
0.00745963
0.0072349
0.00701329
0.00679712
0.00659338
0.00641688
0.00629804
0.00630292
0.00657744
0.00744925
0.00964509
0.0148874
0.0290273
0.0852515
)
;
    }
    rightWall
    {
        type            kqRWallFunction;
        value           nonuniform List<scalar> 
50
(
0.000787511
0.00217326
0.00350942
0.00531796
0.00771588
0.00819104
0.00809939
0.00769975
0.00681541
0.00613254
0.00612121
0.00735177
0.00848589
0.00928761
0.00978674
0.00996971
0.0103186
0.0113023
0.0107643
0.0116412
0.0113978
0.0103291
0.00899632
0.00795345
0.00731325
0.00712227
0.00732847
0.00772939
0.00815838
0.00854375
0.00886909
0.00913844
0.00936259
0.00955405
0.00973428
0.00991437
0.0100928
0.010271
0.0104628
0.0106829
0.0109572
0.0113196
0.0118343
0.0126062
0.0138324
0.0158535
0.0193098
0.0256381
0.0397795
0.0868357
)
;
    }
    lowerWall
    {
        type            kqRWallFunction;
        value           nonuniform List<scalar> 
62
(
0.000802155
0.00241127
0.00368647
0.00471727
0.00556997
0.00628457
0.00688234
0.00737733
0.00778419
0.00811648
0.00838335
0.00859825
0.00878445
0.00892809
0.00902064
0.0090497
0.00898826
0.00878943
0.00837678
0.00762451
0.00633937
0.00427969
0.00160788
0.00160788
0.00396256
0.00575955
0.00758295
0.00962204
0.0121915
0.0159863
0.0226805
0.0237867
0.0204495
0.019471
0.0189869
0.00142746
0.00301311
0.00387065
0.00462491
0.00540745
0.00592438
0.00654405
0.0103702
0.00142746
0.0029171
0.00421431
0.00542517
0.00636497
0.00674215
0.0071348
0.00732422
0.00726468
0.00719216
0.00652761
0.00594319
0.00597059
0.0055156
0.00492722
0.00439175
0.00364349
0.00256845
0.000787511
)
;
    }
    atmosphere
    {
        type            inletOutlet;
        inletValue      uniform 0.1;
        value           nonuniform List<scalar> 
46
(
0.1
0.1
0.0709078
0.0550621
0.0460591
0.0421036
0.0411931
0.0421998
0.0445678
0.048086
0.0527935
0.0590347
0.0678541
0.1
0.1
0.1
0.1
0.1
0.1
0.1
0.1
0.1
0.1
0.1
0.1
0.1
0.1
0.1
0.1
0.1
0.1
0.1
0.0717864
0.0654367
0.0615517
0.0592112
0.0583031
0.0591591
0.0626452
0.0705858
0.1
0.1
0.1
0.1
0.1
0.1
)
;
    }
    defaultFaces
    {
        type            empty;
    }
}


// ************************************************************************* //
