/*--------------------------------*- C++ -*----------------------------------*\
  =========                 |
  \\      /  F ield         | OpenFOAM: The Open Source CFD Toolbox
   \\    /   O peration     | Website:  https://openfoam.org
    \\  /    A nd           | Version:  13
     \\/     M anipulation  |
\*---------------------------------------------------------------------------*/
FoamFile
{
    format      ascii;
    class       volScalarField;
    location    "2.85";
    object      nut;
}
// * * * * * * * * * * * * * * * * * * * * * * * * * * * * * * * * * * * * * //

dimensions      [0 2 -1 0 0 0 0];

internalField   nonuniform List<scalar> 
2268
(
1.91929e-05
3.32173e-05
4.08392e-05
4.6061e-05
4.99759e-05
5.30493e-05
5.55068e-05
5.74834e-05
5.90814e-05
6.0375e-05
6.14197e-05
6.2324e-05
6.31519e-05
6.37854e-05
6.42176e-05
6.4404e-05
6.42481e-05
6.35787e-05
6.2093e-05
5.92384e-05
5.39806e-05
4.42058e-05
2.64646e-05
6.37807e-05
0.00026488
0.000352399
0.000409703
0.000453491
0.000489646
0.000520485
0.000547032
0.000570205
0.000590712
0.000608982
0.0006255
0.000639483
0.000651373
0.00066118
0.000668237
0.000671107
0.000667144
0.000651369
0.000614316
0.00053756
0.000383037
8.88704e-05
7.69483e-05
0.000478785
0.000681531
0.000812781
0.000912005
0.000992854
0.00106106
0.00111944
0.00117015
0.00121477
0.0012544
0.00129027
0.0013218
0.00134903
0.00137101
0.00138552
0.00138834
0.00137194
0.00132263
0.00121577
0.00100932
0.000641785
0.000107377
8.69595e-05
0.000638247
0.000955177
0.00116282
0.00131951
0.00144612
0.00155192
0.00164172
0.00171896
0.00178607
0.00184492
0.00189736
0.00194307
0.0019816
0.00201095
0.0020272
0.00202322
0.00198649
0.0018949
0.00171064
0.00137541
0.000825422
0.00012317
9.51068e-05
0.000756337
0.00117656
0.00145742
0.00167025
0.00184173
0.00198419
0.0021043
0.00220667
0.00229452
0.00237041
0.00243674
0.00249341
0.00253959
0.00257248
0.00258679
0.00257303
0.00251465
0.00238297
0.00212981
0.00168344
0.000977126
0.000138495
0.000102335
0.000843859
0.00135388
0.00170249
0.00196867
0.00218325
0.00236093
0.00250999
0.00263605
0.00274308
0.00283432
0.00291263
0.0029782
0.00302998
0.00306467
0.00307607
0.00305308
0.00297649
0.00281307
0.00250673
0.0019708
0.00112118
0.000155518
0.00010873
0.000908116
0.00149399
0.00190413
0.00222033
0.0024758
0.00268701
0.00286353
0.00301188
0.00313676
0.00324207
0.00333123
0.00340475
0.00346143
0.00349779
0.00350718
0.00347771
0.00338879
0.00320492
0.00286508
0.00226688
0.00128304
0.000177773
0.00011365
0.000953015
0.00160145
0.00206727
0.00243022
0.0027244
0.00296739
0.00316987
0.00333919
0.0034808
0.00359925
0.00369882
0.00378012
0.00384189
0.00388072
0.00388999
0.00385771
0.00376315
0.00357094
0.0032201
0.00260134
0.00152332
0.000211717
2.44947e-05
3.48445e-05
4.19498e-05
4.79546e-05
5.20696e-05
5.40065e-05
5.57396e-05
5.65294e-05
5.65275e-05
5.65459e-05
5.39406e-05
5.16486e-05
5.19444e-05
4.98535e-05
4.71087e-05
4.43846e-05
4.04533e-05
3.39991e-05
1.87553e-05
8.4639e-05
0.000230001
0.000319383
0.000399842
0.000465135
0.000496865
0.000530836
0.000548672
0.000551134
0.000546732
0.00053958
0.000503457
0.000516609
0.000489572
0.000466119
0.000432771
0.000383173
0.000291045
7.32594e-05
9.65803e-05
0.000383111
0.000576162
0.000739387
0.000873701
0.000965561
0.00103627
0.00107747
0.00108721
0.00107606
0.00106396
0.00102826
0.00101628
0.000957942
0.000903089
0.000825051
0.000703776
0.00049008
9.30982e-05
0.000105989
0.00050902
0.000791462
0.00102777
0.00121425
0.00135479
0.00146456
0.00152854
0.00154494
0.00152676
0.00150964
0.00147299
0.00143746
0.00134995
0.0012657
0.001143
0.000950932
0.000637442
0.000114687
0.000114803
0.000615352
0.000974008
0.00127646
0.00151126
0.00168863
0.00183156
0.00191421
0.00193428
0.00191199
0.00188811
0.00184298
0.00178824
0.00167604
0.00156827
0.00140394
0.00114821
0.00075057
0.000137758
0.000122253
0.000687568
0.00112927
0.00148908
0.00177364
0.00198862
0.00215756
0.00225331
0.00227787
0.00225632
0.002223
0.00215922
0.00207932
0.00194928
0.00182552
0.00161833
0.00130405
0.000827184
0.000141973
0.000132468
0.000744756
0.00127503
0.00168239
0.00200955
0.00226085
0.00245066
0.00255657
0.00258662
0.00256723
0.00252497
0.00243967
0.00231642
0.00219003
0.00204524
0.00179556
0.0014241
0.000871227
0.000141225
0.000171666
0.000822175
0.00143494
0.00187898
0.0022344
0.00251239
0.00271699
0.00283058
0.00286539
0.00284686
0.0027955
0.00269213
0.00253506
0.0024096
0.00223641
0.00194386
0.00151312
0.000885637
0.000137647
0.000118644
0.000999984
0.00172864
0.00227229
0.00270304
0.0030541
0.00334386
0.00358431
0.0037842
0.00395014
0.00408763
0.00420117
0.00429209
0.00436007
0.00440235
0.0044129
0.00438043
0.00428525
0.00409546
0.00375917
0.003197
0.00231838
0.00116904
0.000124946
0.00103853
0.00183675
0.00245744
0.00296056
0.00337395
0.00371589
0.00399956
0.00423522
0.00443085
0.00459284
0.00472432
0.00482827
0.00490586
0.00495586
0.00497384
0.00495083
0.00487148
0.00471169
0.00443637
0.00399955
0.00335937
0.00253214
0.000129243
0.00105986
0.00191366
0.00259684
0.00315828
0.00362465
0.00401274
0.00433564
0.0046041
0.00482669
0.00501021
0.00515814
0.00527481
0.00536256
0.00542165
0.00544949
0.00543966
0.00538097
0.00525673
0.00504489
0.00472112
0.00427136
0.00372458
0.000134236
0.0010712
0.00197014
0.00270792
0.00332013
0.0038324
0.00426138
0.0046193
0.00491685
0.00516342
0.00536537
0.00552835
0.00565738
0.00575569
0.00582457
0.00586316
0.00586739
0.00582939
0.00573779
0.00557934
0.00534233
0.00502599
0.00465856
0.000140124
0.0011143
0.0020384
0.00281605
0.003469
0.00401883
0.00448164
0.00486871
0.00519053
0.00545658
0.00567439
0.00585064
0.0059909
0.00609926
0.00617787
0.00622713
0.00624481
0.0062256
0.00616174
0.00604548
0.00587216
0.00564612
0.00538947
0.000144786
0.00112658
0.00210961
0.00293238
0.00362066
0.00419949
0.00468664
0.00509515
0.00543572
0.00571732
0.0059483
0.00613575
0.00628567
0.00640291
0.00649053
0.00654974
0.00657964
0.00657689
0.0065361
0.00645254
0.00632518
0.00615988
0.00597353
0.000149828
0.00116626
0.00219233
0.00305045
0.00376696
0.00436851
0.00487456
0.00529999
0.00565535
0.00594999
0.00619216
0.00638921
0.00654759
0.00667274
0.00676836
0.00683639
0.00687684
0.00688762
0.00686505
0.00680634
0.00671246
0.00658873
0.00644577
0.000154185
0.00120704
0.00226279
0.00315189
0.00389481
0.00451803
0.00504226
0.00548271
0.00585113
0.00615715
0.0064091
0.00661455
0.00678032
0.00691224
0.00701467
0.00709015
0.00713928
0.00716071
0.00715207
0.00711201
0.00704124
0.00694491
0.00683254
0.000156556
0.00121513
0.0023088
0.00323259
0.00400358
0.00464969
0.00519197
0.00564658
0.00602663
0.00634239
0.00660257
0.00681496
0.0069867
0.00712405
0.0072319
0.00731327
0.00736915
0.00739865
0.00739949
0.00737133
0.0073171
0.00724159
0.00715233
0.000161056
0.00128759
0.00239869
0.00333017
0.00411622
0.00477973
0.00533686
0.00580252
0.0061904
0.00651255
0.00677834
0.00699538
0.00717089
0.00731137
0.00742201
0.00750609
0.00756493
0.00759776
0.00760398
0.00758571
0.00754628
0.00748908
0.00741856
0.00016638
0.00138084
0.00251493
0.00345403
0.00424659
0.00491766
0.00548122
0.00595098
0.00634141
0.00666616
0.00693492
0.00715433
0.00733108
0.00747161
0.00758138
0.0076644
0.00772287
0.00775743
0.0077695
0.00776124
0.00773514
0.00769362
0.00763912
0.000168367
0.0014134
0.00257246
0.00352675
0.00432854
0.00500591
0.00557553
0.00605185
0.006449
0.00677978
0.00705333
0.00727626
0.00745535
0.00759737
0.00770832
0.00779294
0.00785408
0.00789377
0.00791367
0.00791553
0.00790096
0.00787133
0.0078282
0.000170334
0.00141336
0.00259752
0.00356983
0.00438198
0.00506563
0.00564047
0.00612189
0.00652386
0.00685865
0.00713584
0.0073626
0.00754593
0.00769257
0.00780842
0.00789812
0.00796487
0.00801116
0.00803882
0.0080494
0.0080441
0.00802382
0.00798948
0.000170708
0.00140822
0.00260878
0.00359475
0.00441445
0.00510231
0.00568086
0.00616578
0.00657121
0.00690909
0.00718955
0.00742061
0.0076094
0.00776242
0.00788516
0.00798194
0.00805598
0.00810984
0.00814539
0.00816406
0.00816682
0.0081543
0.00812713
0.000169251
0.00140152
0.002611
0.00360511
0.00442854
0.00511813
0.00569841
0.00618563
0.00659367
0.00693442
0.00721849
0.00745453
0.00764967
0.00781003
0.00794065
0.0080455
0.00812766
0.00818958
0.00823307
0.00825948
0.00826963
0.00826404
0.00824322
0.000166752
0.00139075
0.00260267
0.00359925
0.00442306
0.00511226
0.00569254
0.00618121
0.00659174
0.00693597
0.00722474
0.00746681
0.00766915
0.00783753
0.00797662
0.00809009
0.00818078
0.00825101
0.0083025
0.00833648
0.00835368
0.00835455
0.00833954
0.000163767
0.00137443
0.00258155
0.00357511
0.00439656
0.00508394
0.00566335
0.00615295
0.0065664
0.00691535
0.00721022
0.00745948
0.00766991
0.00784695
0.00799499
0.00811746
0.00821695
0.00829566
0.00835517
0.00839664
0.00842073
0.00842783
0.00841832
0.000160262
0.00135259
0.00254745
0.00353306
0.00434942
0.00503388
0.00561234
0.00610326
0.00652046
0.00687526
0.00717741
0.00743495
0.00765429
0.00784061
0.00799802
0.00812977
0.00823831
0.00832563
0.00839324
0.00844221
0.00847318
0.00848647
0.00848236
0.000156078
0.00132559
0.00250218
0.00347548
0.00428433
0.00496497
0.00554281
0.00603581
0.00645764
0.00681918
0.00712953
0.00739614
0.00762507
0.00782118
0.00798834
0.00812963
0.00824743
0.00834351
0.00841934
0.00847592
0.00851384
0.00853342
0.00853484
0.000151353
0.00129445
0.00244792
0.00340563
0.00420529
0.00488164
0.0054591
0.00595495
0.00638215
0.00675109
0.00707021
0.00734644
0.0075854
0.00779165
0.00796885
0.0081199
0.00824708
0.00835211
0.00843631
0.00850064
0.00854569
0.00857176
0.00857897
0.000146369
0.00125929
0.00238658
0.00332712
0.00411691
0.0047889
0.00536626
0.00586538
0.00629847
0.00667516
0.00700334
0.00728941
0.00753861
0.00775519
0.00794259
0.00810354
0.0082402
0.00835424
0.00844692
0.00851916
0.00857153
0.00860429
0.00861757
0.000141533
0.001219
0.00232033
0.00324397
0.00402411
0.00469197
0.00526944
0.00577198
0.00621105
0.00659556
0.00693279
0.00722868
0.0074881
0.007715
0.00791259
0.00808344
0.0082296
0.00835266
0.00845383
0.008534
0.00859375
0.00863338
0.00865301
0.0001374
0.00117921
0.00225356
0.00316105
0.00393199
0.0045959
0.0051735
0.00567934
0.00612416
0.00651625
0.00686226
0.00716773
0.00743713
0.00767414
0.00788173
0.00806233
0.00821784
0.00834978
0.00845931
0.00854731
0.0086144
0.00866089
0.00868696
0.000133832
0.0011457
0.00219367
0.00308385
0.00384529
0.00450523
0.00508271
0.00559149
0.00604162
0.0064408
0.00679516
0.00710974
0.00738869
0.00763541
0.00785263
0.00804259
0.00820709
0.00834755
0.00846512
0.00856066
0.00863481
0.00868795
0.0087203
0.000130813
0.0011185
0.00214324
0.00301741
0.00376884
0.00442376
0.00500047
0.00551171
0.00596658
0.00637223
0.00673435
0.00705748
0.0073454
0.00760122
0.00782745
0.00802616
0.00819903
0.00834741
0.00847241
0.00857492
0.00865562
0.00871494
0.00875316
0.000128273
0.00109686
0.00210205
0.00296222
0.00370463
0.0043547
0.00492997
0.00544265
0.00590143
0.00631288
0.00668215
0.00701316
0.00730931
0.00757343
0.00780782
0.0080144
0.00819472
0.00835011
0.00848167
0.0085903
0.00867674
0.00874151
0.00878493
0.000126086
0.00107947
0.00206888
0.00291745
0.00365222
0.00429809
0.00487217
0.00538617
0.0058484
0.00626492
0.00664037
0.00697834
0.00728178
0.00755317
0.00779462
0.00800787
0.00819444
0.00835562
0.00849254
0.00860616
0.00869729
0.00876653
0.00881428
0.000124118
0.00106487
0.00204188
0.00288142
0.00361028
0.00425309
0.00482662
0.00534226
0.00580787
0.0062291
0.0066101
0.00695409
0.00726363
0.00754095
0.00778795
0.00800633
0.00819756
0.00836299
0.0085038
0.00862104
0.0087156
0.00878818
0.00883924
0.000122259
0.00105175
0.00201916
0.00285214
0.00357706
0.00421827
0.00479232
0.00531023
0.00577948
0.00620522
0.00659116
0.00694013
0.00725442
0.00753603
0.0077868
0.00800843
0.00820247
0.00837036
0.00851339
0.00863272
0.00872933
0.00880402
0.00885732
0.000120442
0.00103921
0.00199914
0.00282779
0.00355073
0.00419201
0.00476787
0.00528894
0.00576218
0.00619225
0.00658239
0.00693509
0.00725246
0.00753643
0.00778889
0.00801168
0.0082065
0.00837495
0.00851847
0.00863833
0.00873563
0.00881122
0.00886572
0.000118636
0.00102682
0.00198085
0.00280699
0.00352972
0.00417266
0.00475164
0.00527673
0.00575428
0.0061883
0.00658162
0.00693645
0.00725489
0.007539
0.0077909
0.00801266
0.00820624
0.00837343
0.00851583
0.00863483
0.00873159
0.00880704
0.00886186
0.000116859
0.00101476
0.00196408
0.00278894
0.00351267
0.00415849
0.00474167
0.00527148
0.00575338
0.00619066
0.00658571
0.00694071
0.00725793
0.00753983
0.00778893
0.00800765
0.00819825
0.0083627
0.00850271
0.00861975
0.00871505
0.00878957
0.00884401
0.000115171
0.00100393
0.00194943
0.00277317
0.0034981
0.00414736
0.00473546
0.00527043
0.00575643
0.00619592
0.00659094
0.00694389
0.00725759
0.00753511
0.00777955
0.00799376
0.00818021
0.00834099
0.00847786
0.00859231
0.00868554
0.00875858
0.00881213
0.000113718
0.000996179
0.00193794
0.00275874
0.00348357
0.00413616
0.00472974
0.00527029
0.00576014
0.00620066
0.00659383
0.00694266
0.00725089
0.00752252
0.00776129
0.00797037
0.00815234
0.00830924
0.00844277
0.00855435
0.00864521
0.00871635
0.00876858
0.000112792
0.000994387
0.00192999
0.00274289
0.00346486
0.00412055
0.00472071
0.00526789
0.00576173
0.00620247
0.00659239
0.00693569
0.0072375
0.00750291
0.00773622
0.00794069
0.00811873
0.00827217
0.00840254
0.0085112
0.00859939
0.0086682
0.00871852
0.000113006
0.00100165
0.00192362
0.00272067
0.00343668
0.00409622
0.00470536
0.00526136
0.00576025
0.00620116
0.00658736
0.00692499
0.00722098
0.00748151
0.00771111
0.00791267
0.00808805
0.00823873
0.00836611
0.00847161
0.00855659
0.00862232
0.00866987
0.000115598
0.00101996
0.00191686
0.00269038
0.00339793
0.0040626
0.00468383
0.00525163
0.00575738
0.00619933
0.00658263
0.00691619
0.00720909
0.0074682
0.00769756
0.00789889
0.00807316
0.00822151
0.00834553
0.00844697
0.00852759
0.00858902
0.00863257
0.000122979
0.00105505
0.0019244
0.00266891
0.00336139
0.00402781
0.00466141
0.00524278
0.00575701
0.00620143
0.00658399
0.00691724
0.00721247
0.00747637
0.00771096
0.00791551
0.00808981
0.00823517
0.00835418
0.00844958
0.00852386
0.00857919
0.0086172
0.000139407
0.00113931
0.00200394
0.00270502
0.00335839
0.00400934
0.00464743
0.00524016
0.00576296
0.00621125
0.0065964
0.00693547
0.00724217
0.00752156
0.00776955
0.00798113
0.00815508
0.00829447
0.0084048
0.00849062
0.00855558
0.00860254
0.00863347
0.000172025
0.00136129
0.00226369
0.00286793
0.00342596
0.00402522
0.00464983
0.0052467
0.00577596
0.00622894
0.00662056
0.00697379
0.00730697
0.00762309
0.00789629
0.00811759
0.00828678
0.00841276
0.00850748
0.00857826
0.00862996
0.00866602
0.00868857
0.000239377
0.00190723
0.00286328
0.00321281
0.00357737
0.00407767
0.00466766
0.00525957
0.00579182
0.00624931
0.00665021
0.00702623
0.00741054
0.00782128
0.00813014
0.00835482
0.00850352
0.0086003
0.00866798
0.00871618
0.00874999
0.00877267
0.00878613
0.000415818
0.00341344
0.0039234
0.00368542
0.00375432
0.00413592
0.00468676
0.00527021
0.00580282
0.00626322
0.00667201
0.00707198
0.00753726
0.00827281
0.00856625
0.00873829
0.00881932
0.00885942
0.00888483
0.00890213
0.00891384
0.00892145
0.00892578
0.000216347
0.000199583
0.000195765
0.000195234
0.00186395
0.00168912
0.00161537
0.00161971
0.0033446
0.00317176
0.00306809
0.00302698
0.00441028
0.0042776
0.00418093
0.00411926
0.00521282
0.0051122
0.00502915
0.00496428
0.00583963
0.00576017
0.00568945
0.00562822
0.00634023
0.00627539
0.00621476
0.00615896
0.00674701
0.00669297
0.00664059
0.0065903
0.0070822
0.00703668
0.00699106
0.00694564
0.00736054
0.00732175
0.00728172
0.00724066
0.00759093
0.00755773
0.00752244
0.00748516
0.00778691
0.00775758
0.00772562
0.00769117
0.00795368
0.00792751
0.00789835
0.00786634
0.00809589
0.00807235
0.00804554
0.00801557
0.00821601
0.00819476
0.00816993
0.00814159
0.00831598
0.00829679
0.00827369
0.00824676
0.0083982
0.00838097
0.00835956
0.008334
0.00846568
0.00845048
0.00843087
0.00840685
0.00852182
0.00850882
0.00849123
0.00846905
0.00856979
0.00855919
0.00854392
0.00852392
0.00861259
0.00860466
0.00859199
0.0085745
0.00865251
0.00864744
0.00863759
0.00862285
0.00869104
0.0086889
0.00868197
0.0086701
0.00872886
0.0087296
0.00872554
0.00871652
0.00876591
0.00876935
0.008768
0.00876168
0.00880142
0.00880726
0.00880833
0.00880445
0.0088339
0.00884178
0.00884491
0.00884312
0.00886132
0.0088708
0.00887559
0.00887552
0.00888114
0.0088918
0.00889785
0.00889912
0.00889063
0.00890208
0.00890901
0.0089113
0.00888731
0.00889922
0.00890675
0.00890979
0.00886957
0.00888169
0.0088896
0.00889321
0.00883747
0.00884961
0.00885771
0.00886172
0.00879335
0.00880528
0.00881336
0.00881755
0.00874225
0.00875367
0.00876138
0.0087654
0.00869187
0.00870228
0.00870912
0.00871241
0.0086519
0.0086607
0.00866601
0.00866788
0.00863293
0.00863951
0.00864267
0.00864244
0.0086449
0.00864892
0.00864964
0.00864701
0.00869562
0.00869726
0.00869592
0.00869142
0.00878947
0.00878953
0.00878737
0.0087827
0.00892658
0.00892631
0.00892516
0.00892296
0.00055792
0.00113298
0.00175921
0.0022256
0.00259535
0.00289028
0.00310232
0.00322373
0.00326583
0.00324673
0.00317979
0.00305746
0.00288364
0.00272788
0.00249448
0.0021303
0.0016044
0.000850705
0.000129519
0.00184452
0.00215328
0.00253633
0.00287591
0.00316427
0.00340867
0.00359185
0.00369613
0.00372971
0.00370064
0.00361632
0.00347747
0.00329152
0.00307773
0.00276115
0.00229277
0.00162103
0.000759972
0.000122712
0.00305399
0.00317418
0.00337016
0.00358093
0.00377028
0.00393304
0.00405917
0.00413072
0.00414468
0.00409916
0.00399704
0.00383934
0.00362808
0.00335295
0.00296149
0.00241874
0.0016904
0.000805588
0.000122409
0.00406311
0.00407186
0.00414863
0.00425544
0.00435898
0.00444244
0.00450734
0.00453896
0.00452427
0.00445631
0.00433233
0.00415039
0.00390532
0.00358052
0.0031469
0.00258004
0.00185606
0.000973095
0.000133787
0.00488159
0.00483122
0.00483304
0.00486404
0.00489842
0.00492051
0.00493126
0.00492027
0.00487329
0.00477824
0.00462885
0.00442023
0.00414478
0.00378813
0.00333097
0.00275323
0.00203133
0.00113237
0.000143518
0.0055412
0.00546124
0.0054173
0.00539545
0.00537811
0.00535463
0.00532176
0.00527126
0.00518993
0.0050652
0.00488914
0.00465506
0.00435462
0.00397535
0.00350045
0.00290816
0.00216607
0.00121694
0.000150136
0.00607434
0.00598075
0.00590905
0.00585137
0.00579713
0.00573869
0.00567084
0.00558526
0.00547069
0.00531631
0.00511397
0.00485636
0.00453487
0.00413752
0.00364677
0.00303676
0.00226639
0.00126745
0.000154174
0.00651047
0.00641093
0.00632217
0.00624009
0.00615888
0.00607294
0.005976
0.0058596
0.00571435
0.00553171
0.00530444
0.00502533
0.00468553
0.0042728
0.00376824
0.00314141
0.00234363
0.00130666
0.0001558
0.00687085
0.00676927
0.0066698
0.00657053
0.006469
0.00636111
0.00623964
0.00609589
0.00592249
0.00571347
0.00546321
0.00516483
0.00480885
0.00438207
0.00386437
0.00322097
0.00239565
0.00133243
0.000158823
0.00717093
0.00706969
0.00696364
0.00685179
0.0067345
0.00660891
0.00646672
0.00629837
0.00609899
0.00586565
0.0055947
0.00527957
0.00490935
0.00446967
0.00393854
0.00327723
0.00242439
0.00132461
0.000166133
0.00741982
0.00731961
0.00720992
0.00709031
0.00696171
0.00682075
0.0066598
0.00647018
0.00624845
0.00599352
0.00570391
0.00537409
0.00499133
0.00454077
0.00399818
0.00332143
0.00243872
0.00126942
0.000161043
0.00762976
0.007531
0.00741923
0.00729442
0.00715546
0.0069984
0.00681842
0.00660973
0.00637049
0.00609844
0.0057915
0.00544454
0.00504633
0.00458294
0.0040306
0.00335005
0.00248265
0.00134682
0.000167189
0.00780833
0.00771148
0.00759787
0.00746726
0.00731797
0.00714636
0.00694881
0.00672197
0.00646554
0.00617763
0.00585425
0.00548742
0.00506737
0.00458293
0.00401467
0.00333245
0.00247973
0.00136701
0.000166679
0.00796041
0.00786502
0.00774958
0.00761337
0.00745435
0.00726954
0.00705634
0.00681319
0.00654022
0.00623542
0.00589334
0.00550432
0.00505835
0.00454686
0.00395714
0.00326574
0.00242391
0.00134378
0.000159441
0.00808863
0.00799403
0.00787674
0.0077355
0.00756828
0.00737239
0.00714604
0.0068883
0.00659919
0.00627627
0.00591319
0.00549992
0.0050267
0.00448623
0.00386981
0.00316075
0.00232138
0.0012804
0.000149539
0.00819561
0.00810153
0.00798267
0.00783739
0.00766369
0.00745925
0.00722255
0.00695248
0.0066483
0.00630707
0.00592219
0.00548413
0.00498363
0.00441402
0.00376846
0.00303451
0.00218427
0.00116991
0.000140684
0.00828465
0.00819133
0.00807156
0.00792366
0.00774538
0.00753488
0.00729052
0.00701065
0.00669356
0.00633561
0.00593038
0.00546921
0.00494336
0.0043469
0.00367469
0.00291721
0.00205687
0.00107196
0.000134612
0.00835959
0.00826779
0.00814826
0.00799914
0.00781848
0.00760435
0.00735485
0.0070679
0.00674085
0.00636954
0.00594784
0.00546814
0.00492312
0.00430714
0.00361533
0.00284132
0.0019762
0.00101677
0.000132408
0.00842443
0.00833518
0.00821719
0.00806876
0.0078879
0.00767257
0.00742058
0.00712946
0.00679604
0.00641601
0.00598366
0.00549235
0.00493572
0.00430848
0.00360624
0.00282451
0.00195861
0.00101024
0.000134044
0.00848262
0.00839705
0.00828218
0.00813627
0.00795731
0.00774314
0.0074914
0.00719934
0.00686357
0.00647981
0.00604282
0.00554676
0.0049859
0.00435517
0.00365009
0.00286603
0.00199737
0.0010405
0.000137499
0.00853708
0.00845629
0.00834587
0.00820407
0.00802886
0.00781801
0.00756906
0.00727912
0.00694475
0.0065618
0.0061254
0.0056302
0.00507074
0.00444167
0.00373743
0.00295123
0.00207286
0.00108963
0.000141218
0.00858976
0.00851458
0.00840964
0.00827318
0.00810318
0.00789741
0.00765333
0.00736802
0.00703805
0.00665935
0.00622728
0.00573662
0.00518172
0.00455633
0.00385299
0.00306144
0.00216564
0.00114437
0.000144557
0.00864159
0.00857253
0.00847371
0.00834342
0.00817965
0.00798016
0.00774242
0.00746347
0.00713986
0.00676757
0.00634193
0.00585755
0.00530815
0.00468616
0.00398176
0.00318091
0.00226209
0.00119787
0.00014737
0.00869263
0.00862986
0.00853745
0.00841371
0.00825669
0.00806415
0.00783354
0.00756185
0.00724561
0.00688068
0.0064622
0.00598434
0.00543994
0.0048199
0.00411199
0.00329875
0.00235422
0.00124682
0.000149693
0.00874221
0.00868558
0.00859951
0.00848235
0.00833216
0.00814673
0.00792346
0.00765928
0.00735058
0.00699306
0.00658151
0.00610951
0.00556892
0.00494913
0.00423571
0.00340836
0.00243783
0.00129009
0.000151619
0.00878902
0.00873814
0.00865806
0.0085472
0.00840361
0.00822506
0.0080089
0.00775195
0.00745045
0.00709982
0.00669445
0.00622726
0.00568915
0.00506812
0.00434794
0.00350609
0.00251093
0.00132705
0.000153258
0.00883123
0.00878551
0.00871091
0.00860585
0.00846841
0.00829629
0.00808674
0.00783649
0.00754153
0.007197
0.00679685
0.00633337
0.00579657
0.00517328
0.00444583
0.00358999
0.00257249
0.00135745
0.000154844
0.0088666
0.00882538
0.00875565
0.00865584
0.00852399
0.00835775
0.00815425
0.00791003
0.00762088
0.00728164
0.00688581
0.00642512
0.00588883
0.00526285
0.00452838
0.00365992
0.00262295
0.00138151
0.000156371
0.00889261
0.00885526
0.00878985
0.00869478
0.00856806
0.00840721
0.00820924
0.0079705
0.00768655
0.00735191
0.00695973
0.00650122
0.00596507
0.00533648
0.00459583
0.0037167
0.00266359
0.00140059
0.000157801
0.00890672
0.00887272
0.00881121
0.00872056
0.00859866
0.00844294
0.0082502
0.00801661
0.00773748
0.00740705
0.00701812
0.00656153
0.00602551
0.00539478
0.00464921
0.00376175
0.00269625
0.00141668
0.000159195
0.00890677
0.00887578
0.00881794
0.00873159
0.00861451
0.00846393
0.00827645
0.00804799
0.00777364
0.00744736
0.00706165
0.00660705
0.00607147
0.00543933
0.00469026
0.00379693
0.0027227
0.00143095
0.000160669
0.0088915
0.00886329
0.0088091
0.00872717
0.00861518
0.00847011
0.00828829
0.00806536
0.00779613
0.00747435
0.00709225
0.0066401
0.00610559
0.00547297
0.00472182
0.00382481
0.00274505
0.00144473
0.000162338
0.00886107
0.00883549
0.00878495
0.00870774
0.00860134
0.00846248
0.00828712
0.00807054
0.00780728
0.00749085
0.00711327
0.0066646
0.00613227
0.00550038
0.0047485
0.00384949
0.00276638
0.00145963
0.000164403
0.00881763
0.00879431
0.00874733
0.00867503
0.00857484
0.00844312
0.00827539
0.00806645
0.00781054
0.00750096
0.00712961
0.00668634
0.00615826
0.00552904
0.00477794
0.00387785
0.00279189
0.00147852
0.000167119
0.0087656
0.00874374
0.0086997
0.00863214
0.00853857
0.00841501
0.00825633
0.00805676
0.00781016
0.00750977
0.00714751
0.00671312
0.00619322
0.00557045
0.00482265
0.00392166
0.00283046
0.00150595
0.000170956
0.00871176
0.00868986
0.00864731
0.00858345
0.00849628
0.00838164
0.00823355
0.00804541
0.00781068
0.00752279
0.00717409
0.00675453
0.00625018
0.00564156
0.00490254
0.00400066
0.00289732
0.00154969
0.000176626
0.00866508
0.00864088
0.00859717
0.0085345
0.00845232
0.00834661
0.0082104
0.00803585
0.00781604
0.00754496
0.00721618
0.00682087
0.00634505
0.00576575
0.00504771
0.00414663
0.00301747
0.00162153
0.000185334
0.00863619
0.00860706
0.0085583
0.00849223
0.00841157
0.00831331
0.00818942
0.00803035
0.00782857
0.0075792
0.00727844
0.00692081
0.00649457
0.00597236
0.00530014
0.00440682
0.00322932
0.00173834
0.000198804
0.0086367
0.0086007
0.00854246
0.00846594
0.00838035
0.00828499
0.00817211
0.00802941
0.00784805
0.0076248
0.00736052
0.00705728
0.00671158
0.0062934
0.00571171
0.00484481
0.00358844
0.00192213
0.000219615
0.00867807
0.00863621
0.00856606
0.0084708
0.00837036
0.00826588
0.00815908
0.0080317
0.00787119
0.00767605
0.00745412
0.00722171
0.00699703
0.00675877
0.00633754
0.00554032
0.00418101
0.0022098
0.000252458
0.00876993
0.00872981
0.00865462
0.00853897
0.00841328
0.00826336
0.00815088
0.0080348
0.00789223
0.00772222
0.00754124
0.00738775
0.00732818
0.00740088
0.00722462
0.0065934
0.00518501
0.00271364
0.000311861
0.008917
0.00889671
0.0088495
0.00875168
0.00861636
0.0082831
0.0081479
0.00803664
0.00790476
0.00775016
0.00759627
0.00750552
0.00762832
0.00830061
0.00837697
0.00810401
0.00710064
0.00405635
0.000465933
)
;

boundaryField
{
    leftWall
    {
        type            nutkWallFunction;
        Cmu             0.09;
        kappa           0.41;
        E               9.8;
        value           nonuniform List<scalar> 
50
(
2.18427e-06
6.52447e-06
7.7194e-06
8.62067e-06
9.36117e-06
1.00968e-05
1.17827e-05
1.33049e-05
1.39871e-05
1.48247e-05
1.53483e-05
1.59591e-05
1.66452e-05
1.71895e-05
1.77957e-05
1.83046e-05
1.86308e-05
1.48218e-05
1.52003e-05
1.54488e-05
1.58953e-05
1.6036e-05
1.58382e-05
1.54463e-05
1.49534e-05
1.43633e-05
1.36704e-05
1.29007e-05
1.21092e-05
1.13786e-05
1.0748e-05
1.02097e-05
9.75927e-06
9.38097e-06
9.05249e-06
8.75207e-06
8.46325e-06
8.17652e-06
7.88872e-06
7.60295e-06
7.32879e-06
7.08734e-06
6.92261e-06
6.9294e-06
7.30706e-06
8.4499e-06
1.10253e-05
1.60498e-05
2.58688e-05
4.91296e-05
)
;
    }
    rightWall
    {
        type            nutkWallFunction;
        Cmu             0.09;
        kappa           0.41;
        E               9.8;
        value           nonuniform List<scalar> 
50
(
2.18011e-06
7.59151e-06
9.55905e-06
1.18806e-05
1.61603e-05
1.66154e-05
1.65283e-05
1.61433e-05
1.52499e-05
1.4515e-05
1.44129e-05
1.57035e-05
1.68861e-05
1.76089e-05
1.80416e-05
1.81683e-05
1.83953e-05
1.92995e-05
1.59946e-05
1.56062e-05
1.53488e-05
1.4149e-05
1.25571e-05
1.12145e-05
1.03389e-05
1.0069e-05
1.03595e-05
1.09115e-05
1.14844e-05
1.19845e-05
1.23968e-05
1.27316e-05
1.30059e-05
1.32372e-05
1.34525e-05
1.36655e-05
1.38743e-05
1.40807e-05
1.43007e-05
1.45502e-05
1.48573e-05
1.52562e-05
1.58106e-05
1.66168e-05
1.78416e-05
1.97324e-05
2.26713e-05
2.73597e-05
3.58651e-05
5.56459e-05
)
;
    }
    lowerWall
    {
        type            nutkWallFunction;
        Cmu             0.09;
        kappa           0.41;
        E               9.8;
        value           nonuniform List<scalar> 
62
(
2.18427e-06
3.6222e-06
4.39727e-06
4.92055e-06
5.30757e-06
5.60755e-06
5.84443e-06
6.03218e-06
6.18141e-06
6.30014e-06
6.3936e-06
6.46768e-06
6.53105e-06
6.57943e-06
6.61038e-06
6.62007e-06
6.59957e-06
6.53273e-06
6.39132e-06
6.1234e-06
5.62985e-06
4.70702e-06
3.00865e-06
3.00865e-06
8.99235e-06
1.066e-05
1.20812e-05
1.34643e-05
1.49992e-05
1.77163e-05
2.41293e-05
2.44652e-05
2.25226e-05
2.18732e-05
2.16279e-05
2.85843e-06
8.77017e-06
9.92739e-06
1.08403e-05
1.25701e-05
1.37867e-05
1.44504e-05
1.80468e-05
2.85843e-06
3.96783e-06
4.69205e-06
5.26165e-06
5.67226e-06
5.85181e-06
6.00467e-06
6.07484e-06
6.04646e-06
6.01812e-06
5.76803e-06
5.53674e-06
5.54703e-06
5.33679e-06
5.07122e-06
4.81617e-06
4.41193e-06
3.75598e-06
2.18011e-06
)
;
    }
    atmosphere
    {
        type            calculated;
        value           nonuniform List<scalar> 
46
(
0.009
0.009
0.0039234
0.00368542
0.00375432
0.00413592
0.00468676
0.00527021
0.00580282
0.00626322
0.00667201
0.00707198
0.00753726
0.009
0.009
0.009
0.009
0.009
0.009
0.009
0.009
0.009
0.009
0.009
0.009
0.009
0.009
0.009
0.009
0.009
0.009
0.009
0.0082831
0.0081479
0.00803664
0.00790476
0.00775016
0.00759627
0.00750552
0.00762832
0.009
0.009
0.009
0.009
0.009
0.009
)
;
    }
    defaultFaces
    {
        type            empty;
    }
}


// ************************************************************************* //
