/*--------------------------------*- C++ -*----------------------------------*\
  =========                 |
  \\      /  F ield         | OpenFOAM: The Open Source CFD Toolbox
   \\    /   O peration     | Website:  https://openfoam.org
    \\  /    A nd           | Version:  13
     \\/     M anipulation  |
\*---------------------------------------------------------------------------*/
FoamFile
{
    format      ascii;
    class       volScalarField;
    location    "2.85";
    object      p;
}
// * * * * * * * * * * * * * * * * * * * * * * * * * * * * * * * * * * * * * //

dimensions      [1 -1 -2 0 0 0 0];

internalField   nonuniform List<scalar> 
2268
(
5326.13
5314.68
5311.3
5317.59
5333.04
5356.75
5387.24
5422.56
5460.44
5498.55
5535.1
5568.52
5597.58
5620.57
5636.87
5646.32
5649.09
5645.36
5635.12
5618.3
5596.07
5571.52
5546.89
4532.07
4522.35
4520.28
4527.93
4543.96
4567.69
4597.74
4632.29
4669.15
4705.96
4741.03
4772.97
4799.84
4820.7
4834.69
4841.72
4842.12
4836.3
4824.57
4807.45
4786.84
4764.97
4743.12
3736.15
3728.38
3727.8
3737.38
3754.56
3778.79
3808.78
3842.8
3878.71
3914.1
3947.54
3977.55
4002.26
4020.48
4031.57
4035.62
4033.21
4025.09
4012.07
3995.15
3976.6
3957.2
3938.23
2937.25
2930.74
2931.24
2943.08
2962.13
2987.72
3018.52
3052.77
3088.33
3122.73
3154.66
3182.95
3205.6
3221.24
3229.39
3230.43
3225.29
3215.01
3200.91
3183.98
3166.22
3147.84
3131.37
2134.23
2126.32
2127.05
2141.24
2163.07
2191.52
2224.97
2261.16
2297.94
2332.15
2362.95
2389.69
2410.34
2423.31
2428.28
2426
2417.85
2405.17
2389.61
2372.1
2354.34
2336.43
2322.84
1365.32
1355.79
1356.37
1368.21
1386.4
1409.78
1437.5
1469.21
1503.56
1538.96
1572.27
1600.9
1622.34
1634.83
1638.13
1633.55
1623.07
1608.24
1591.06
1572.7
1552.83
1531.5
1516.3
906.676
901.564
901.454
904.8
910.053
916.609
924.497
934.576
946.832
961.83
975.818
987.191
993.982
996.012
993.783
988.113
979.541
968.888
957.079
944.769
932.077
921.73
913.519
782.751
781.75
781.427
780.254
778.255
775.294
771.096
765.57
759.065
751.737
743.869
735.718
727.39
719.688
713.119
707.5
702.089
696.736
691.227
686.669
683.61
683.661
684.089
2993.15
2928.05
2818.88
2683.67
2567.92
2488.19
2443.36
2418.4
2408.35
2409.21
2391.18
2371.28
2395.75
2404.13
2399.01
2391.16
2381.5
2374.77
2371.59
2302.55
2237.91
2127.49
1995.14
1921.8
1887.76
1841.16
1808.16
1792.42
1797.79
1816.36
1829.82
1810.31
1796.32
1790.49
1781.51
1773.95
1768.48
1764.83
1711.19
1643.41
1543.13
1453.11
1384.72
1337.91
1300.85
1275.77
1272.13
1252.87
1280.57
1310.13
1289.17
1265.42
1247
1231.76
1233.69
1243.38
1255.08
1262.12
1220.91
1187.82
1169.61
1121.28
1070.95
1051.15
1036.61
1028.4
991.313
978.219
972.936
971.544
951.92
941.624
939.152
943.946
950.897
952.751
987.361
990.816
1008.41
1020.56
1013.72
991.119
979.654
968.53
939.905
912.685
880.336
852.295
827.169
839.525
858.268
867.394
864.862
853.71
836.845
874.223
880.205
891.587
895.244
907.315
911.735
903.541
893.304
862.292
842.602
825.475
805.71
766.459
789.97
809.141
811.581
808.6
798.063
793.188
786.657
787.269
796.074
793.362
794.876
814.727
811.377
793.77
776.947
773.801
765.73
755.004
735.744
748.631
752.395
752.461
749.767
741.807
744.416
705.51
709.459
718.693
715.047
707.255
716.467
717.971
705.305
707.368
710.828
707.629
702.545
704.477
705.009
696.718
694.562
692.313
685.923
693.598
687.397
685.709
684.405
682.937
680.867
677.991
674.14
669.392
664.131
658.616
652.955
647.201
641.595
636.179
630.873
625.551
620.126
614.533
608.874
603.303
597.849
593.64
593.278
558.72
558.083
557.74
556.813
555.3
553.095
549.849
545.6
540.725
535.495
529.961
524.24
518.408
512.534
506.662
500.78
494.82
488.647
482.049
475.451
469.348
464.393
461.112
433.925
432.462
431.505
430.445
429.37
428.089
425.402
421.393
417.05
412.383
407.331
401.95
396.317
390.514
384.918
379.583
374.145
368.532
363.575
359.94
357.816
357.449
358.209
320.213
318.98
317.706
316.192
314.217
311.577
308.62
305.467
301.721
297.748
293.665
289.631
286.23
283.428
280.663
278.108
276.408
276.009
276.597
277.978
280.161
283.396
287.156
234.417
235.234
235.015
233.427
230.507
226.723
224.028
221.724
218.963
216.007
213.364
211.212
209.646
208.998
208.535
208.431
209.422
211.642
214.342
216.996
219.702
222.406
225.786
171.845
172.23
171.557
169.893
167.539
165.248
163.075
160.858
158.72
156.673
154.868
153.37
151.976
150.656
150.203
150.548
151.071
151.522
152.777
154.776
157.097
159.625
162.487
110.418
110.029
108.819
106.946
104.898
102.987
100.643
98.2422
96.2139
94.4266
92.7113
91.0495
89.4255
88.3449
87.837
87.8385
88.1505
88.6931
89.6997
91.306
93.4453
95.9483
98.6392
50.0415
49.814
48.4916
46.6135
44.7287
42.8775
41.0369
39.3174
37.8146
36.515
35.3654
34.3422
33.5174
32.8034
32.3134
32.0534
32.0184
32.2051
32.701
33.5166
34.8967
36.7221
38.8827
12.7724
12.7273
11.9866
11.1155
10.4307
9.86557
9.26236
8.62958
8.11766
7.72011
7.38228
7.06766
6.77606
6.52497
6.32806
6.1947
6.14343
6.18556
6.32836
6.58386
6.94871
7.4196
7.98827
4.34367
4.34376
4.35884
4.37937
4.39268
4.40492
4.42276
4.44208
4.45486
4.46408
4.47767
4.49673
4.51952
4.54522
4.57278
4.60157
4.63124
4.66085
4.6869
4.71061
4.7295
4.73855
4.74706
4.23747
4.24038
4.24632
4.2576
4.27252
4.29096
4.31218
4.33295
4.34991
4.3645
4.37934
4.39462
4.41015
4.4258
4.44186
4.45861
4.47612
4.49369
4.51086
4.52669
4.54055
4.55235
4.56516
4.11536
4.11681
4.12291
4.13219
4.14425
4.15916
4.17692
4.19423
4.20956
4.22273
4.23738
4.25322
4.27006
4.28775
4.3063
4.32573
4.34546
4.3653
4.38462
4.40246
4.41851
4.43202
4.44477
3.99297
3.99414
3.99924
4.00693
4.01622
4.0277
4.04184
4.05563
4.06969
4.08249
4.09611
4.11152
4.12836
4.14654
4.16599
4.18652
4.20814
4.23006
4.25156
4.27192
4.29032
4.30543
4.31863
3.86774
3.86833
3.87234
3.87858
3.88619
3.89491
3.90538
3.91805
3.9316
3.94546
3.95997
3.9756
3.99242
4.01045
4.0297
4.05008
4.07146
4.09335
4.11508
4.13584
4.15478
4.1702
4.18327
3.74007
3.73984
3.74263
3.74765
3.75456
3.76201
3.76999
3.78122
3.79456
3.80962
3.82576
3.84203
3.85904
3.87695
3.89584
3.9156
3.93606
3.95696
3.97778
3.99782
4.01625
4.03129
4.04422
3.61082
3.61014
3.61196
3.61628
3.62291
3.63018
3.63785
3.6472
3.65989
3.67558
3.69169
3.70802
3.72495
3.74265
3.76113
3.78025
3.79987
3.81984
3.83976
3.85899
3.87679
3.89134
3.90401
3.48055
3.48
3.48135
3.48536
3.49138
3.4985
3.5066
3.51629
3.52828
3.54246
3.55765
3.57346
3.58998
3.60725
3.62519
3.64364
3.6625
3.68164
3.70076
3.71927
3.73647
3.75057
3.763
3.34944
3.34924
3.35068
3.35421
3.35961
3.36642
3.37451
3.38414
3.39559
3.40875
3.42306
3.43821
3.45415
3.47083
3.4881
3.50585
3.52398
3.54237
3.56076
3.57861
3.59527
3.60898
3.62114
3.2175
3.21758
3.21907
3.22231
3.22727
3.23373
3.24158
3.2509
3.26179
3.27415
3.28766
3.30213
3.31741
3.3334
3.34997
3.36701
3.38442
3.4021
3.4198
3.43705
3.45319
3.46651
3.47843
3.08478
3.08511
3.08663
3.08967
3.09428
3.10038
3.10788
3.11679
3.1271
3.13874
3.15152
3.16525
3.17981
3.19507
3.21091
3.22721
3.2439
3.26089
3.27794
3.29458
3.31023
3.32316
3.33477
2.95139
2.95191
2.95346
2.95633
2.96065
2.96639
2.97351
2.98195
2.99169
3.00265
3.01469
3.02768
3.04148
3.05597
3.07104
3.08659
3.10254
3.11881
3.13519
3.15124
3.16636
3.17889
3.19021
2.81738
2.81807
2.81963
2.82235
2.82641
2.8318
2.83851
2.84647
2.85564
2.86593
2.87724
2.88947
2.90249
2.91619
2.93046
2.94522
2.96041
2.97594
2.99163
3.00703
3.0216
3.03371
3.04466
2.68283
2.68362
2.68519
2.68779
2.6916
2.69666
2.70294
2.71041
2.71901
2.72865
2.73924
2.7507
2.76292
2.77581
2.78926
2.80321
2.81759
2.83234
2.84728
2.862
2.87595
2.88755
2.89811
2.54777
2.54862
2.55018
2.55268
2.55626
2.561
2.56687
2.57384
2.58186
2.59085
2.60074
2.61143
2.62284
2.63489
2.64751
2.66061
2.67415
2.68808
2.70223
2.71619
2.72945
2.74048
2.7505
2.41228
2.41312
2.41466
2.41705
2.42043
2.42486
2.43033
2.43681
2.44426
2.4526
2.46178
2.47171
2.48231
2.49352
2.50527
2.5175
2.53017
2.54323
2.55653
2.56968
2.58219
2.59259
2.60211
2.27637
2.27719
2.27868
2.28096
2.28414
2.28826
2.29335
2.29935
2.30624
2.31395
2.32242
2.33158
2.34137
2.35173
2.36261
2.37395
2.38572
2.39787
2.41028
2.42258
2.43429
2.44401
2.45301
2.14012
2.14089
2.14231
2.14447
2.14743
2.15126
2.15595
2.16147
2.1678
2.17489
2.18266
2.19108
2.20006
2.20957
2.21956
2.23
2.24084
2.25208
2.26356
2.27497
2.28584
2.29481
2.3033
2.00355
2.00427
2.00562
2.00763
2.01038
2.01389
2.01818
2.02323
2.029
2.03545
2.04254
2.0502
2.05838
2.06704
2.07615
2.08567
2.09559
2.10587
2.11641
2.1269
2.13691
2.1452
2.15278
1.86671
1.86738
1.86865
1.87051
1.87302
1.87622
1.8801
1.88467
1.88988
1.8957
1.90209
1.909
1.91638
1.92419
1.93241
1.94102
1.94999
1.95932
1.96889
1.97844
1.98756
1.99509
2.00195
1.72965
1.73028
1.73146
1.73315
1.73542
1.73828
1.74176
1.74583
1.75048
1.75567
1.76137
1.76753
1.77411
1.78108
1.78842
1.79611
1.80415
1.81251
1.82112
1.8297
1.83791
1.84469
1.85079
1.59241
1.59302
1.5941
1.59561
1.59761
1.60013
1.60318
1.60676
1.61085
1.61541
1.62042
1.62585
1.63165
1.63779
1.64427
1.65105
1.65816
1.66556
1.67318
1.6808
1.68807
1.69405
1.69944
1.45506
1.45565
1.45662
1.45794
1.45965
1.4618
1.46442
1.4675
1.47103
1.47497
1.47932
1.48402
1.48906
1.4944
1.50003
1.50594
1.51212
1.51858
1.52523
1.53185
1.53818
1.54334
1.5479
1.31763
1.31822
1.31908
1.32017
1.32157
1.32334
1.32551
1.32809
1.33106
1.3344
1.33809
1.34211
1.34641
1.35099
1.35581
1.36088
1.36618
1.37171
1.3774
1.38306
1.38844
1.39276
1.39658
1.18018
1.18078
1.18151
1.18235
1.1834
1.18476
1.18648
1.18855
1.19097
1.19373
1.19681
1.20017
1.20379
1.20765
1.21172
1.21599
1.22045
1.2251
1.22987
1.2346
1.23907
1.24262
1.24565
1.04277
1.04338
1.04396
1.04451
1.04518
1.0461
1.04734
1.04891
1.05081
1.05301
1.05551
1.05827
1.06127
1.06448
1.06785
1.07139
1.07507
1.0789
1.0828
1.08665
1.09025
1.09304
1.0954
0.905453
0.906089
0.906487
0.906683
0.906909
0.907352
0.908101
0.909177
0.910574
0.912271
0.914244
0.916469
0.918913
0.921538
0.924303
0.927177
0.930151
0.933215
0.936323
0.939348
0.942147
0.944242
0.945892
0.768268
0.768945
0.76912
0.768882
0.768588
0.768506
0.768751
0.769347
0.770277
0.77151
0.773018
0.774773
0.776742
0.778874
0.781111
0.783403
0.78574
0.788118
0.790495
0.792782
0.794847
0.796303
0.79741
0.631248
0.631994
0.631875
0.631061
0.630136
0.629475
0.629215
0.629362
0.629874
0.630701
0.631805
0.633155
0.634721
0.636448
0.638252
0.640043
0.641815
0.643576
0.645296
0.646901
0.648311
0.649231
0.649837
0.494378
0.495199
0.494643
0.493004
0.49132
0.49007
0.489358
0.48913
0.489297
0.489785
0.490541
0.491532
0.492746
0.494132
0.495599
0.496977
0.498234
0.499425
0.50053
0.501514
0.502305
0.502697
0.50287
0.357502
0.358206
0.356933
0.35406
0.351641
0.349991
0.349029
0.348593
0.348543
0.348782
0.349249
0.349915
0.350796
0.351839
0.353014
0.353939
0.354613
0.355215
0.355726
0.356113
0.356316
0.356177
0.355661
0.220377
0.220085
0.217525
0.212743
0.210323
0.208924
0.208156
0.207801
0.207726
0.207846
0.208107
0.208486
0.208963
0.20966
0.210559
0.211428
0.211139
0.211077
0.211038
0.210952
0.21071
0.210168
0.208861
0.0778454
0.0753653
0.0727294
0.0696942
0.0692362
0.0690193
0.0689369
0.0689489
0.069034
0.0691705
0.0693379
0.0695264
0.0696715
0.0699446
0.0706466
0.0712735
0.0699981
0.069539
0.0692935
0.0691098
0.0688875
0.068526
0.0676011
599.546
601.766
603.912
604.831
458.361
455.645
454.416
456.867
359.023
359.438
359.392
359.108
289.753
291.105
291.305
290.286
228.521
229.803
230.386
230.395
164.387
165.445
166.298
167.037
100.693
101.907
103.052
104.164
41.0704
42.3939
43.4439
44.2351
8.49536
8.87096
9.23942
9.58804
4.77573
4.80045
4.81839
4.82733
4.5826
4.60289
4.62589
4.64285
4.46804
4.49122
4.5156
4.53116
4.34083
4.36392
4.38916
4.40588
4.20451
4.22779
4.25389
4.27184
4.06565
4.08946
4.11632
4.13496
3.92564
3.94983
3.97724
3.99642
3.78462
3.80903
3.83686
3.85639
3.64272
3.66719
3.69515
3.71489
3.49979
3.52414
3.55213
3.57191
3.35581
3.37989
3.40764
3.42737
3.21079
3.23446
3.26191
3.28141
3.06477
3.08792
3.11476
3.13393
2.91754
2.94003
2.96628
2.98499
2.76916
2.79086
2.81625
2.83453
2.61981
2.64059
2.66514
2.68282
2.46979
2.48956
2.51294
2.52993
2.319
2.33765
2.35995
2.37611
2.16742
2.18494
2.20592
2.22133
2.01536
2.03161
2.05132
2.06578
1.86308
1.87802
1.89612
1.90957
1.71044
1.72399
1.74062
1.75296
1.5576
1.5697
1.58465
1.59599
1.40486
1.41548
1.42893
1.43919
1.25269
1.26188
1.27362
1.28282
1.10116
1.10895
1.11919
1.12727
0.950481
0.956931
0.965558
0.972627
0.800877
0.806062
0.813309
0.819298
0.652466
0.656539
0.662297
0.667225
0.504682
0.507728
0.512244
0.516116
0.356504
0.358462
0.361716
0.364861
0.207457
0.207963
0.210143
0.213067
0.0658248
0.0654953
0.0662268
0.0678819
601.525
606.91
612.673
613.557
610.587
608.304
605.481
606.551
614.29
617.876
618.128
620.367
632.989
621.947
610.165
605.013
603.646
603.004
611.69
466.123
474.06
477.565
483.637
487.814
484.947
482.441
487.799
490.842
493.329
495.644
501.04
513.016
500.981
492.717
490.651
493.35
497.64
502.903
361.184
365.051
366.781
374.515
380.576
379.392
381.654
386.081
388.15
391.222
393.745
396.876
400.954
399.381
399.161
401.557
404.839
406.718
406.207
288.898
291.139
293.594
297.13
301.399
306.246
309.289
312.168
316.253
319.718
322.057
323.681
325.818
327.81
330.41
332.526
332.854
331.517
329.819
230.336
232.612
234.819
236.981
241.027
247.042
251.136
254.01
255.95
257.833
259.863
261.717
263.696
265.326
266.983
268.073
267.628
265.747
264.722
168.303
171.01
173.617
176.417
180.305
185.436
190.273
193.077
194.423
196.09
197.951
199.694
201.355
202.752
203.937
204.582
204.213
202.943
202.309
106.008
109.092
112.128
115.322
119.079
123.32
127.273
130.254
132.424
134.395
136.242
137.858
139.245
140.3
141.034
141.424
141.153
140.219
139.657
45.3602
47.9521
50.7463
53.7838
57.3286
61.3281
65.0665
68.2004
70.7434
72.9314
74.8169
76.3612
77.5633
78.2664
78.364
77.8165
76.7704
75.861
75.8389
10.1803
11.1739
12.3131
13.6631
15.4738
17.6257
19.6062
21.3129
22.7677
24.0682
25.2411
26.2538
27.0363
27.4407
27.5143
26.9535
26.0345
25.315
25.4072
4.83088
4.83341
4.83977
4.85735
4.87187
4.86056
4.87457
4.93353
5.05093
5.21441
5.43067
5.66232
5.81295
5.91096
6.13006
6.36918
6.48588
6.27808
6.09404
4.65957
4.66562
4.67388
4.68977
4.70774
4.71595
4.71328
4.69589
4.68671
4.69062
4.71126
4.73476
4.74282
4.74633
4.68012
4.62947
4.6229
4.63449
4.64248
4.54033
4.54197
4.5449
4.54843
4.5529
4.55243
4.54932
4.54625
4.54407
4.54378
4.54817
4.55468
4.54898
4.52807
4.51571
4.51103
4.50826
4.50673
4.50689
4.41556
4.41486
4.41426
4.41069
4.40476
4.40214
4.40251
4.40728
4.40861
4.40591
4.40006
4.39558
4.38908
4.38185
4.38126
4.37938
4.37699
4.37595
4.37652
4.28327
4.28237
4.28168
4.28042
4.27834
4.27701
4.27741
4.27912
4.279
4.27516
4.26678
4.25705
4.25214
4.25069
4.25022
4.24857
4.24696
4.24652
4.24725
4.14716
4.14676
4.14687
4.14729
4.14717
4.14732
4.14799
4.14881
4.14793
4.14438
4.13822
4.13148
4.12658
4.12351
4.12171
4.11968
4.11798
4.11694
4.1164
4.00923
4.00942
4.01037
4.012
4.01321
4.01423
4.01505
4.01551
4.01454
4.01181
4.0074
4.00247
3.9983
3.99504
3.99256
3.99006
3.98789
3.98608
3.98449
3.86965
3.87042
3.87209
3.87467
3.87686
3.8786
3.8798
3.8803
3.87966
3.8777
3.87456
3.87088
3.86739
3.86425
3.86139
3.85857
3.85597
3.85359
3.85132
3.72847
3.72971
3.73198
3.73531
3.73828
3.74068
3.74236
3.74323
3.74309
3.74186
3.73967
3.7369
3.73395
3.73097
3.72797
3.72494
3.72201
3.71921
3.71656
3.58564
3.5873
3.59007
3.594
3.59762
3.60061
3.60282
3.60418
3.6046
3.60404
3.60262
3.60054
3.59805
3.59527
3.59226
3.58909
3.58589
3.58276
3.57997
3.44122
3.44318
3.44637
3.4508
3.45496
3.45849
3.46123
3.46311
3.46409
3.46415
3.46336
3.46185
3.45977
3.45722
3.45426
3.45102
3.44763
3.44429
3.44153
3.29515
3.2974
3.30092
3.30577
3.31038
3.3144
3.31764
3.32003
3.32153
3.32215
3.32192
3.32091
3.31921
3.31689
3.31404
3.3108
3.30733
3.30391
3.30128
3.14754
3.14997
3.15378
3.15896
3.16397
3.16842
3.17211
3.17498
3.17697
3.1781
3.17835
3.17779
3.17645
3.17439
3.17171
3.16855
3.16511
3.16174
3.1593
2.99834
3.00098
3.00501
3.01047
3.01581
3.02063
3.02473
3.02803
3.03048
3.03206
3.03276
3.03261
3.03162
3.02985
3.02738
3.02438
3.02107
3.01786
3.01565
2.84769
2.8505
2.85471
2.86039
2.86599
2.87113
2.87559
2.87928
2.88213
2.88413
2.88525
2.88549
2.88486
2.8834
2.8812
2.87841
2.87532
2.87236
2.87039
2.69563
2.69864
2.70299
2.70882
2.71464
2.72005
2.72481
2.72884
2.73206
2.73444
2.73595
2.73657
2.73631
2.73518
2.73328
2.73079
2.72799
2.72532
2.72362
2.54236
2.54558
2.54997
2.55591
2.56188
2.5675
2.57252
2.57685
2.5804
2.58314
2.58502
2.58601
2.58612
2.58535
2.58381
2.58165
2.57919
2.57687
2.57542
2.38799
2.39133
2.39577
2.40176
2.40785
2.41363
2.41887
2.42346
2.42731
2.43038
2.43261
2.43398
2.43446
2.43408
2.43293
2.43116
2.42907
2.4271
2.42593
2.23278
2.23596
2.24048
2.24651
2.25267
2.25857
2.26399
2.2688
2.27293
2.2763
2.27888
2.28062
2.2815
2.28153
2.28079
2.27944
2.27775
2.27616
2.27525
2.07659
2.07975
2.08428
2.0903
2.09648
2.10246
2.10801
2.11302
2.11739
2.12106
2.12397
2.12609
2.12737
2.12783
2.12754
2.12664
2.12539
2.12416
2.12353
1.91977
1.92287
1.92738
1.93334
1.93949
1.94551
1.95116
1.95632
1.96091
1.96485
1.96808
1.97057
1.97227
1.97318
1.97336
1.97293
1.97212
1.97129
1.97089
1.76241
1.76555
1.77
1.77586
1.78195
1.78795
1.79365
1.79892
1.80369
1.80789
1.81143
1.81429
1.81642
1.81779
1.81845
1.8185
1.81814
1.81768
1.81753
1.6049
1.60802
1.61242
1.61813
1.62411
1.63004
1.63573
1.64107
1.64599
1.6504
1.65426
1.65748
1.66003
1.66188
1.66303
1.66356
1.66364
1.66353
1.66358
1.44743
1.4506
1.4549
1.46043
1.46622
1.47202
1.47764
1.483
1.48801
1.49262
1.49675
1.50035
1.50333
1.50566
1.5073
1.5083
1.50878
1.50897
1.50921
1.29045
1.29358
1.29773
1.303
1.30855
1.31414
1.31962
1.32491
1.32997
1.33472
1.33912
1.34307
1.3465
1.34932
1.35147
1.35291
1.35375
1.35417
1.35453
1.13414
1.13723
1.14117
1.14611
1.15132
1.15661
1.16185
1.16701
1.17203
1.17687
1.18149
1.1858
1.18968
1.19301
1.19566
1.19754
1.19866
1.19921
1.19964
0.978871
0.981787
0.985432
0.989947
0.994709
0.99958
1.00449
1.00939
1.01429
1.01915
1.02393
1.02856
1.03291
1.03679
1.03998
1.04226
1.0436
1.04417
1.04458
0.824715
0.827413
0.830656
0.834624
0.838815
0.843146
0.847586
0.852128
0.856776
0.861533
0.866392
0.8713
0.876115
0.880588
0.884351
0.887074
0.888545
0.888982
0.889316
0.671805
0.674128
0.67686
0.680146
0.683622
0.68728
0.691122
0.695155
0.6994
0.703891
0.708672
0.713742
0.718992
0.724109
0.728526
0.731717
0.733326
0.73356
0.733728
0.519784
0.521784
0.523915
0.526372
0.529005
0.531867
0.534986
0.538357
0.542005
0.545997
0.550435
0.555426
0.560969
0.566767
0.571846
0.575644
0.577511
0.577582
0.577659
0.368193
0.370092
0.371582
0.372925
0.374684
0.376703
0.37901
0.381571
0.384403
0.387585
0.391281
0.395738
0.401195
0.407817
0.413307
0.417738
0.420238
0.420641
0.42088
0.217556
0.21978
0.220413
0.219731
0.22059
0.221895
0.223383
0.225026
0.22684
0.2289
0.231375
0.234625
0.239508
0.247322
0.252373
0.256968
0.260335
0.26178
0.263543
0.0711332
0.0723861
0.0721217
0.0714043
0.0718891
0.0725226
0.07318
0.0738426
0.0745354
0.0752915
0.0761838
0.0774154
0.0795532
0.0841679
0.0861204
0.0884246
0.0904174
0.0899676
0.0939896
)
;

boundaryField
{
    leftWall
    {
        type            calculated;
        value           nonuniform List<scalar> 
50
(
5326.13
4532.07
3736.15
2937.25
2134.23
1365.32
906.676
782.751
687.397
558.72
433.925
320.213
234.417
171.845
110.418
50.0415
12.7724
4.34367
4.23747
4.11536
3.99297
3.86774
3.74007
3.61082
3.48055
3.34944
3.2175
3.08478
2.95139
2.81738
2.68283
2.54777
2.41228
2.27637
2.14012
2.00355
1.86671
1.72965
1.59241
1.45506
1.31763
1.18018
1.04277
0.905453
0.768268
0.631248
0.494378
0.357502
0.220377
0.0778454
)
;
    }
    rightWall
    {
        type            calculated;
        value           nonuniform List<scalar> 
50
(
2371.59
1764.83
1255.08
952.751
836.845
793.188
744.416
693.598
611.69
502.903
406.207
329.819
264.722
202.309
139.657
75.8389
25.4072
6.09404
4.64248
4.50689
4.37652
4.24725
4.1164
3.98449
3.85132
3.71656
3.57997
3.44153
3.30128
3.1593
3.01565
2.87039
2.72362
2.57542
2.42593
2.27525
2.12353
1.97089
1.81753
1.66358
1.50921
1.35453
1.19964
1.04458
0.889316
0.733728
0.577659
0.42088
0.263543
0.0939896
)
;
    }
    lowerWall
    {
        type            calculated;
        value           nonuniform List<scalar> 
62
(
5724.28
5712.83
5709.45
5715.74
5731.19
5754.9
5785.39
5820.71
5858.59
5896.7
5933.25
5966.67
5995.73
6018.72
6035.02
6044.47
6047.24
6043.51
6033.27
6016.35
5994.01
5969.46
5944.84
5546.89
4743.12
3938.23
3131.37
2322.84
1516.3
913.519
684.089
672.482
687.809
697.778
699.08
2993.15
2302.55
1711.19
1262.12
987.361
874.223
786.657
705.51
3344.64
3279.78
3170.43
3034.9
2880.26
2753.82
2709.13
2688.78
2687.37
2689.29
2654.68
2632.51
2676.99
2708.39
2703.48
2696.09
2685.22
2677.95
2674.9
)
;
    }
    atmosphere
    {
        type            calculated;
        value           nonuniform List<scalar> 
46
(
-0.000146398
-6.93535e-05
-2.14463e-05
-1.08645e-06
0
0
0
0
0
0
-1.32614e-06
-9.30837e-06
-2.96931e-05
-5.29636e-05
-7.61665e-05
-5.04454e-05
-5.59064e-05
-6.63079e-05
-7.71558e-05
-8.99883e-05
-0.000103488
-0.000117017
-0.000125022
-9.21832e-05
-8.67403e-05
-8.38402e-05
-8.3257e-05
-8.5341e-05
-6.96088e-05
-6.24225e-05
-8.18329e-05
-8.08175e-05
-6.67115e-05
-5.55127e-05
-4.72245e-05
-4.23341e-05
-4.15918e-05
-4.64074e-05
-5.88668e-05
-7.38546e-05
-9.9378e-05
-0.000109986
-0.00019434
-0.000335682
-0.000603147
-0.000606945
)
;
    }
    defaultFaces
    {
        type            empty;
    }
}


// ************************************************************************* //
