/*--------------------------------*- C++ -*----------------------------------*\
  =========                 |
  \\      /  F ield         | OpenFOAM: The Open Source CFD Toolbox
   \\    /   O peration     | Website:  https://openfoam.org
    \\  /    A nd           | Version:  13
     \\/     M anipulation  |
\*---------------------------------------------------------------------------*/
FoamFile
{
    format      ascii;
    class       volScalarField;
    location    "2.85";
    object      p_rgh;
}
// * * * * * * * * * * * * * * * * * * * * * * * * * * * * * * * * * * * * * //

dimensions      [1 -1 -2 0 0 0 0];

internalField   nonuniform List<scalar> 
2268
(
5724.28
5712.83
5709.45
5715.74
5731.19
5754.9
5785.39
5820.71
5858.59
5896.7
5933.25
5966.67
5995.73
6018.72
6035.02
6044.47
6047.24
6043.51
6033.27
6016.35
5994.01
5969.46
5944.84
5726.52
5716.8
5714.73
5722.38
5738.41
5762.13
5792.18
5826.74
5863.6
5900.41
5935.48
5967.42
5994.29
6015.15
6029.14
6036.17
6036.57
6030.75
6019.01
6001.87
5981.22
5959.33
5937.57
5726.9
5719.13
5718.55
5728.13
5745.31
5769.54
5799.53
5833.55
5869.46
5904.85
5938.29
5968.3
5993.01
6011.23
6022.32
6026.36
6023.96
6015.84
6002.82
5985.9
5967.35
5947.95
5928.98
5724.29
5717.79
5718.28
5730.13
5749.18
5774.77
5805.57
5839.82
5875.38
5909.77
5941.71
5970
5992.65
6008.29
6016.44
6017.48
6012.34
6002.06
5987.96
5971.03
5953.26
5934.89
5918.42
5717.58
5709.67
5710.4
5724.59
5746.41
5774.87
5808.32
5844.5
5881.29
5915.5
5946.3
5973.04
5993.69
6006.66
6011.63
6009.35
6001.2
5988.52
5972.96
5955.45
5937.69
5919.78
5906.16
5303.14
5225.26
5204.6
5252.55
5338.76
5461.63
5606.53
5744.55
5863.08
5918.61
5951.92
5979.34
6001.99
6014.48
6017.78
6013.2
6002.72
5987.89
5970.71
5952.34
5932.48
5905.37
5880.81
2087.17
1983.86
1958.89
2010.79
2107.43
2240.59
2415.1
2648.43
2934.83
3282.69
3635.29
3963.21
4238.2
4430.17
4527.46
4543.01
4503.56
4419.24
4308.92
4161.02
3953.73
3690.69
3513.95
1224.19
1223.19
1222.87
1221.7
1219.7
1216.73
1212.54
1207.01
1200.51
1193.18
1191.55
1189.58
1179.19
1172.6
1175.14
1182.22
1180.26
1171.79
1148.75
1128.1
1124.97
1124.26
1123.72
3344.64
3279.78
3170.43
3034.9
2880.26
2753.82
2709.13
2688.78
2687.37
2689.29
2654.68
2632.51
2676.99
2708.39
2703.48
2696.09
2685.22
2677.95
2674.9
3356.98
3292.39
3182.46
3015.08
2913.7
2880.41
2835.08
2803.35
2783.71
2785.72
2738.81
2654.79
2718.91
2702.99
2698.13
2689.54
2683.46
2678.01
2674.62
3007.04
2937.7
2738.7
2442.69
2386.39
2418.09
2321.94
2264.3
2192.36
2347.2
2422.75
2509.46
2382.68
2415.93
2457.34
2470.22
2419.86
2353.94
2281.4
2769.94
2470.01
1998.42
1715.59
1512.27
1384.71
1324.57
1303.5
1429.58
1276.01
1511.33
1685.07
1687.97
1532.21
1378.87
1244.55
1304.5
1419.16
1623.14
1655.89
1516.32
1564.97
1649.94
1433.39
1263.33
1249.62
1232.11
1258.52
1208.65
1085.4
1040.57
1237.66
1095.49
1034.81
1095.84
1098.4
1108.85
1008.33
1380.95
1488.49
1497.18
1531.9
1560.76
1382.23
1383.53
1390.27
1348.16
1227.42
1154.14
1072.33
891.239
997.839
1124.79
1135.29
1132.3
1121.76
1026.08
1402.2
1361.94
1342.32
1383.02
1517.53
1459.68
1404.2
1472.74
1291.49
1195.87
1150.72
1138.4
881.849
1019.27
1134.93
1135.05
1132.32
1124.28
1049.11
1301.99
1289.31
1279.75
1217.02
1179.38
1419.08
1427.3
1310.12
1150.24
1154.49
1151.78
1129.47
875.43
1028.31
1135.68
1136.01
1133.4
1127.81
1051.97
1220.86
1219.18
1217.87
1216.4
1214.31
1211.46
1207.61
1202.86
1197.6
1192.08
1186.42
1180.67
1175.06
1169.65
1164.34
1159.02
1153.59
1148
1142.34
1136.72
1131.2
1126.63
1124.89
1217.38
1216.74
1215.59
1215.1
1213.95
1211.76
1208.51
1204.26
1199.39
1194.16
1188.62
1182.9
1177.07
1171.2
1165.32
1159.44
1153.48
1147.31
1140.71
1132.52
1121.93
1109.31
1087.66
1173.89
1196.73
1214.22
1214.1
1213.21
1211.95
1209.26
1205.25
1200.91
1196.24
1191.13
1185.56
1178.41
1168.07
1153.87
1137
1120.24
1104.34
1067.29
1017.11
968.454
913.181
855.343
1089.07
1053.66
1045.67
1045.39
1064.15
1108.77
1115.28
1091.75
1090.5
1089.84
1080.21
1062.53
1030.79
982.149
942.772
912.078
863.971
788.107
733.246
707.548
695.828
717.854
716.525
759.749
758.688
758.571
757.219
757.01
738.294
713.229
720.732
709.974
697.096
681.383
661.209
666.298
687.596
684.26
664.038
665.629
709.8
731.272
734.119
736.825
739.531
735.819
732.671
751.215
751.21
749.691
738.804
714.461
724.981
736.998
734.136
725.304
724.04
728.188
731.686
730.376
729.923
730.268
730.791
731.242
732.497
734.496
736.648
739.066
742.32
752.444
752.702
751.188
749.27
747.212
745.276
742.96
740.559
738.531
736.744
735.028
733.367
731.743
730.662
730.154
730.156
730.468
731.01
732.017
733.623
735.766
738.27
740.958
722.57
719.011
710.721
699.559
687.524
674.957
665.777
660.47
653.936
645.802
635.595
622.971
608.429
593.264
578.766
564.944
551.041
536.579
526.032
527.025
542.192
568.411
598.782
218.965
220.052
198.232
174.996
159.127
147.804
133.55
117.42
104.759
94.8854
85.4232
75.3183
65.0502
55.578
47.5783
41.3462
37.1861
35.4428
36.9004
41.2968
48.7571
60.0153
75.0112
6.00504
6.00601
6.02621
6.04207
6.05328
6.06527
6.08312
6.10239
6.11515
6.12435
6.13792
6.15698
6.17975
6.20545
6.233
6.2618
6.29146
6.32108
6.34713
6.37093
6.39009
6.39979
6.40827
6.02464
6.02688
6.03294
6.0442
6.05826
6.07674
6.09789
6.11908
6.13614
6.15039
6.16488
6.18014
6.19567
6.21131
6.22738
6.24411
6.26161
6.27916
6.29632
6.31215
6.32601
6.33783
6.35073
6.02792
6.03068
6.03948
6.04432
6.05522
6.07184
6.11345
6.1955
6.16098
6.13693
6.14898
6.16459
6.18129
6.19893
6.21736
6.23663
6.2563
6.27609
6.29538
6.31318
6.32924
6.34277
6.35556
6.03206
6.04218
6.06262
6.05167
6.05226
6.07527
6.22766
6.26279
6.26611
6.13251
6.13443
6.14927
6.16545
6.18338
6.20241
6.22273
6.24422
6.26608
6.28751
6.30783
6.32624
6.34135
6.35458
6.03369
6.06597
6.09683
6.08351
6.04743
6.08571
6.24401
6.26
6.27426
6.18723
6.12803
6.14296
6.15658
6.17348
6.19136
6.21144
6.23276
6.25461
6.27624
6.29695
6.31588
6.33128
6.34435
6.03033
6.06991
6.09582
6.0917
6.04101
6.04851
6.11845
6.25477
6.26114
6.1324
6.11941
6.13562
6.15237
6.16818
6.1822
6.20206
6.22254
6.24341
6.26416
6.28415
6.30255
6.31756
6.33048
6.02505
6.04484
6.08091
6.05113
6.03459
6.04182
6.04941
6.07039
6.08866
6.09017
6.1075
6.12686
6.14334
6.15714
6.17257
6.1918
6.21149
6.23145
6.25134
6.27053
6.28829
6.3028
6.31546
6.01923
6.02023
6.02372
6.02305
6.02832
6.03521
6.04335
6.05301
6.06501
6.0792
6.09491
6.11256
6.12935
6.14422
6.1619
6.18044
6.19931
6.21838
6.23747
6.25597
6.27314
6.28722
6.29962
6.01242
6.01236
6.01301
6.01628
6.02156
6.02833
6.03643
6.04606
6.05752
6.07086
6.08566
6.10108
6.11688
6.13279
6.14999
6.16778
6.1859
6.20425
6.22262
6.24047
6.25712
6.2708
6.28295
6.00558
6.0052
6.00638
6.00943
6.01438
6.02083
6.02867
6.03798
6.04884
6.06128
6.07515
6.08998
6.1052
6.12069
6.13701
6.15407
6.17147
6.18913
6.20683
6.22407
6.2402
6.25351
6.26543
5.99769
5.99797
5.99917
6.00199
6.00657
6.01266
6.02016
6.02904
6.03933
6.051
6.0639
6.0779
6.09246
6.10738
6.12313
6.13943
6.15612
6.17309
6.19014
6.20678
6.22241
6.23534
6.24695
5.98932
5.98988
5.99117
5.99385
5.99813
6.00385
6.01095
6.01938
6.0291
6.04007
6.05214
6.06516
6.07894
6.0934
6.10844
6.12398
6.13992
6.15619
6.17257
6.18862
6.20374
6.21626
6.22758
5.98032
5.98109
5.98246
5.98506
5.98907
5.99444
6.00113
6.00907
6.01823
6.02852
6.03985
6.05207
6.06508
6.07877
6.09304
6.1078
6.12298
6.13851
6.15419
6.1696
6.18416
6.19627
6.20721
5.97084
5.97168
5.97315
5.97567
5.97945
5.98447
5.99074
5.9982
6.00678
6.01642
6.02702
6.03847
6.05069
6.06357
6.07702
6.09096
6.10535
6.1201
6.13503
6.14976
6.1637
6.1753
6.18586
5.9609
5.96177
5.96328
5.96574
5.96929
5.974
5.97985
5.98681
5.99482
6.00381
6.01369
6.02438
6.03579
6.04784
6.06046
6.07356
6.0871
6.10103
6.11517
6.12913
6.14239
6.15343
6.16345
5.95056
5.95142
5.95293
5.95529
5.95864
5.96305
5.9685
5.97497
5.98241
5.99075
5.99993
6.00985
6.02045
6.03166
6.04341
6.05564
6.06831
6.08137
6.09466
6.10782
6.12033
6.13072
6.14025
5.93984
5.94066
5.94212
5.94438
5.94753
5.95164
5.95671
5.9627
5.96958
5.97729
5.98576
5.99492
6.00471
6.01506
6.02594
6.03728
6.04905
6.06121
6.07361
6.08591
6.09763
6.10734
6.11634
5.92876
5.92953
5.93093
5.93306
5.93601
5.93982
5.9445
5.95002
5.95634
5.96342
5.97119
5.97961
5.98859
5.9981
6.00809
6.01852
6.02937
6.0406
6.05208
6.0635
6.07436
6.08333
6.09183
5.91737
5.91808
5.91941
5.9214
5.92413
5.92764
5.93192
5.93696
5.94273
5.94918
5.95626
5.96392
5.9721
5.98076
5.98987
5.99939
6.00931
6.01959
6.03013
6.04062
6.05063
6.05892
6.0665
5.90571
5.90637
5.90761
5.90946
5.91196
5.91515
5.91903
5.92359
5.9288
5.93462
5.941
5.94791
5.95529
5.96311
5.97133
5.97993
5.98891
5.99823
6.00781
6.01736
6.02648
6.03401
6.04086
5.89383
5.89445
5.8956
5.89729
5.89954
5.9024
5.90587
5.90994
5.91459
5.91978
5.92547
5.93164
5.93822
5.94519
5.95253
5.96022
5.96826
5.97662
5.98523
5.99381
6.00202
6.0088
6.0149
5.88178
5.88237
5.88343
5.88493
5.88692
5.88944
5.89249
5.89607
5.90015
5.90472
5.90973
5.91515
5.92095
5.9271
5.93357
5.94036
5.94746
5.95486
5.96248
5.9701
5.97737
5.98335
5.98875
5.8696
5.87018
5.87114
5.87245
5.87415
5.87631
5.87892
5.882
5.88553
5.88947
5.89381
5.89852
5.90355
5.9089
5.91453
5.92043
5.92662
5.93308
5.93973
5.94635
5.95268
5.95784
5.9624
5.85736
5.85793
5.85878
5.85987
5.86127
5.86303
5.8652
5.86778
5.87075
5.87409
5.87778
5.8818
5.8861
5.89068
5.8955
5.90057
5.90587
5.9114
5.91709
5.92275
5.92813
5.93246
5.93627
5.8451
5.84568
5.8464
5.84724
5.84829
5.84965
5.85136
5.85343
5.85586
5.85862
5.86169
5.86506
5.86868
5.87254
5.8766
5.88087
5.88534
5.88999
5.89476
5.89948
5.90395
5.90751
5.91053
5.83287
5.83347
5.83405
5.83459
5.83526
5.83618
5.83742
5.83899
5.84089
5.8431
5.84559
5.84835
5.85135
5.85456
5.85794
5.86147
5.86516
5.86898
5.87288
5.87673
5.88033
5.88312
5.88548
5.82074
5.82137
5.82176
5.82196
5.82218
5.82263
5.82338
5.82445
5.82585
5.82755
5.82952
5.83174
5.83419
5.83681
5.83958
5.84245
5.84543
5.84849
5.8516
5.85462
5.85742
5.85952
5.86117
5.80874
5.80942
5.80959
5.80935
5.80906
5.80898
5.80922
5.80982
5.81075
5.81198
5.81349
5.81524
5.81721
5.81934
5.82158
5.82387
5.82621
5.82859
5.83097
5.83325
5.83532
5.83677
5.83788
5.79691
5.79766
5.79754
5.79673
5.7958
5.79514
5.79488
5.79503
5.79554
5.79637
5.79747
5.79882
5.80039
5.80211
5.80392
5.80571
5.80748
5.80924
5.81096
5.81257
5.81398
5.8149
5.8155
5.78524
5.78606
5.7855
5.78386
5.78218
5.78093
5.78022
5.77999
5.78016
5.78064
5.7814
5.78239
5.78361
5.78499
5.78646
5.78784
5.78909
5.79028
5.79139
5.79237
5.79316
5.79356
5.79373
5.77356
5.77426
5.77299
5.77011
5.7677
5.76604
5.76508
5.76465
5.7646
5.76484
5.7653
5.76597
5.76685
5.76789
5.76907
5.76999
5.77067
5.77127
5.77178
5.77217
5.77237
5.77223
5.77172
5.76162
5.76133
5.75877
5.75399
5.75157
5.75017
5.7494
5.74905
5.74897
5.74909
5.74936
5.74973
5.75021
5.75091
5.75181
5.75268
5.75239
5.75233
5.75229
5.7522
5.75196
5.75142
5.75011
5.74429
5.74181
5.73917
5.73614
5.73568
5.73546
5.73538
5.73539
5.73548
5.73561
5.73578
5.73597
5.73611
5.73639
5.73709
5.73772
5.73644
5.73598
5.73574
5.73555
5.73533
5.73497
5.73404
1221.12
1335.05
1403.85
1408.04
1048.51
1048.19
1073.55
1102.04
829.781
791.335
782.606
859.517
688.887
683.579
683.659
694.675
734.304
739.223
748.338
750.141
744.27
745.274
746.046
746.773
743.016
744.228
745.373
746.489
620.603
634.861
647.573
660.125
86.7839
95.3255
103.648
111.801
6.43712
6.46133
6.47895
6.48816
6.3682
6.38851
6.41153
6.42858
6.37887
6.40206
6.42645
6.44204
6.37682
6.39992
6.42515
6.44189
6.36561
6.38893
6.41503
6.43297
6.35192
6.37573
6.40261
6.42125
6.33707
6.36126
6.38868
6.40786
6.32124
6.34564
6.37347
6.39301
6.30452
6.32899
6.35695
6.37669
6.28678
6.31112
6.33912
6.3589
6.26798
6.29207
6.31982
6.33955
6.24816
6.27182
6.29927
6.31877
6.22732
6.25048
6.27732
6.29649
6.20529
6.22778
6.25403
6.27274
6.1821
6.2038
6.22919
6.24747
6.15795
6.17872
6.20328
6.22096
6.13312
6.15289
6.17627
6.19326
6.10752
6.12618
6.14847
6.16463
6.08114
6.09866
6.11964
6.13505
6.05427
6.07053
6.09023
6.10469
6.02719
6.04213
6.06023
6.07368
5.99975
6.0133
6.02993
6.04226
5.97209
5.98419
5.99914
6.01049
5.94455
5.95517
5.96862
5.97888
5.91758
5.92677
5.9385
5.94771
5.89124
5.89903
5.90927
5.91735
5.86576
5.87221
5.88083
5.8879
5.84135
5.84653
5.85378
5.85977
5.81813
5.8222
5.82796
5.83289
5.79554
5.79859
5.8031
5.80698
5.77256
5.77452
5.77777
5.78091
5.74871
5.74921
5.75139
5.75431
5.73227
5.73194
5.73267
5.73432
1225.35
1172.96
1231.98
1200.66
1143.65
1121.21
1196.03
1122.69
1147.57
1151.21
1151.92
1141.52
979.492
1131.57
1143.58
1138.44
1136.72
1098.16
1069.85
1122.05
1135.26
1224.31
1151.13
1070.82
1131.2
1077.46
1051.08
1130.37
1145.38
1151.29
1156.77
1164.76
1151.12
1108.5
1048.55
1008.99
1040.16
1092.04
955.105
956.581
946.025
979.561
1021.32
916.051
893.781
937.443
906.707
893.449
897.367
934.169
979.875
918.624
853.222
831.846
863.644
907.969
953.798
709.063
702.481
703.229
759.596
775.36
704.363
714.487
715.927
743.358
774.998
776.587
778.2
780.322
782.363
785.257
787.455
795.384
822.799
823.757
750.952
746.826
748.517
753.761
758.086
751.44
707.22
716.861
764.376
775.085
777.026
778.854
780.82
782.45
784.161
785.397
784.968
783.407
782.016
748.032
750.738
753.345
756.11
760.012
765.173
769.01
772.227
774.142
775.809
777.677
779.418
781.075
782.473
783.653
784.272
783.915
782.685
782.173
748.331
751.411
754.448
757.644
761.405
765.648
769.595
772.572
774.742
776.712
778.559
780.175
781.589
782.677
783.371
783.742
784.284
784.119
782.197
679.606
707.591
729.702
748.84
762.246
766.246
769.982
773.115
775.658
777.846
779.731
781.276
782.489
783.237
785.905
804.493
823.061
822.367
800.518
126.91
151.697
181.095
216.896
267.495
332.315
387.773
427.856
455.377
478.202
499.305
518.195
535.096
545.154
540.58
513.183
473.756
453.923
464.331
6.49186
6.49453
6.5012
6.51951
6.53515
6.52767
7.56893
10.0864
13.3009
17.2838
22.489
28.4226
32.8704
34.7265
44.6519
53.6469
57.005
49.2542
42.2122
6.44539
6.45158
6.46095
6.63847
6.87696
7.03437
7.01954
6.69
6.65387
6.72265
7.10869
7.65335
8.028
9.40616
7.94747
6.4174
6.40834
6.42692
6.7363
6.45126
6.45325
6.45598
6.76046
7.25522
7.25608
7.25306
6.66093
6.52976
6.59549
6.97441
7.29654
7.31147
7.17339
6.43473
6.42276
6.41911
6.41748
6.41793
6.45159
6.45102
6.45054
6.45675
6.44392
6.49256
6.46449
6.46464
6.45004
6.45384
6.6326
6.99002
6.895
6.59658
6.42067
6.41581
6.4132
6.41209
6.41395
6.44441
6.4435
6.44281
6.44162
6.4395
6.43822
6.43958
6.44185
6.44201
6.44233
6.43718
6.42151
6.41346
6.41189
6.41215
6.41035
6.40868
6.40808
6.40858
6.43345
6.43306
6.43319
6.43366
6.43358
6.43376
6.43451
6.43556
6.43499
6.43175
6.42499
6.41792
6.41299
6.40995
6.40841
6.40652
6.40487
6.40368
6.40303
6.42068
6.4209
6.42189
6.42359
6.42486
6.42591
6.42672
6.42723
6.42632
6.4236
6.4192
6.41417
6.40996
6.40666
6.4043
6.4019
6.39973
6.39791
6.39632
6.40626
6.40705
6.40874
6.41137
6.41362
6.4154
6.41661
6.41712
6.4165
6.41457
6.41146
6.40774
6.40419
6.401
6.39816
6.39536
6.39277
6.39038
6.38811
6.39027
6.39151
6.39379
6.39713
6.40011
6.40253
6.40423
6.4051
6.40497
6.40376
6.40159
6.39882
6.39585
6.39284
6.38983
6.3868
6.38386
6.38104
6.37839
6.37263
6.37428
6.37705
6.38099
6.3846
6.3876
6.38982
6.39119
6.39161
6.39106
6.38964
6.38757
6.38507
6.38228
6.37926
6.37609
6.37289
6.36976
6.36697
6.35339
6.35535
6.35854
6.36298
6.36713
6.37067
6.37341
6.3753
6.37627
6.37633
6.37555
6.37404
6.37196
6.3694
6.36644
6.3632
6.35982
6.35648
6.35372
6.33252
6.33476
6.33828
6.34313
6.34775
6.35177
6.35501
6.3574
6.3589
6.35952
6.35929
6.35828
6.35658
6.35426
6.35141
6.34818
6.34471
6.3413
6.3387
6.3101
6.31253
6.31633
6.32152
6.32652
6.33097
6.33467
6.33753
6.33953
6.34065
6.34091
6.34035
6.33901
6.33695
6.33428
6.33112
6.32769
6.32437
6.32195
6.28609
6.28873
6.29276
6.29822
6.30355
6.30838
6.31248
6.31578
6.31822
6.3198
6.32051
6.32036
6.31938
6.31761
6.31514
6.31215
6.30886
6.30571
6.30353
6.26064
6.26344
6.26765
6.27333
6.27893
6.28408
6.28853
6.29222
6.29507
6.29707
6.29819
6.29844
6.29781
6.29635
6.29415
6.29138
6.28831
6.28544
6.28347
6.23377
6.23678
6.24112
6.24696
6.25278
6.25818
6.26295
6.26697
6.2702
6.27258
6.27409
6.27471
6.27444
6.27332
6.27143
6.26895
6.26618
6.26361
6.2619
6.20569
6.20891
6.2133
6.21924
6.22521
6.23083
6.23585
6.24018
6.24373
6.24647
6.24835
6.24935
6.24945
6.24869
6.24715
6.245
6.24258
6.24037
6.23885
6.17652
6.17985
6.18429
6.19029
6.19638
6.20216
6.2074
6.21198
6.21584
6.2189
6.22114
6.2225
6.22299
6.22261
6.22146
6.2197
6.21766
6.2158
6.21453
6.1465
6.14968
6.1542
6.16023
6.16639
6.17229
6.17771
6.18252
6.18665
6.19002
6.1926
6.19434
6.19522
6.19525
6.19452
6.19318
6.19155
6.19006
6.18903
6.11551
6.11866
6.1232
6.12921
6.13539
6.14137
6.14693
6.15193
6.1563
6.15997
6.16289
6.165
6.16629
6.16675
6.16646
6.16558
6.16439
6.16327
6.16249
6.08388
6.08698
6.09149
6.09744
6.1036
6.10962
6.11526
6.12043
6.12501
6.12896
6.13219
6.13468
6.13638
6.1373
6.13748
6.13705
6.13632
6.13557
6.13503
6.05172
6.05485
6.05931
6.06516
6.07126
6.07725
6.08295
6.08823
6.093
6.09719
6.10074
6.1036
6.10572
6.1071
6.10776
6.10783
6.10753
6.10707
6.10685
6.0194
6.02252
6.02692
6.03263
6.03861
6.04453
6.05023
6.05557
6.06048
6.0649
6.06876
6.07198
6.07453
6.07638
6.07754
6.07808
6.0782
6.07808
6.07808
5.98712
5.9903
5.99459
6.00012
6.00591
6.01171
6.01734
6.02269
6.0277
6.03231
6.03645
6.04004
6.04303
6.04536
6.047
6.04802
6.04853
6.04868
6.0489
5.95534
5.95847
5.96261
5.96789
5.97344
5.97903
5.98451
5.9898
5.99485
5.99961
6.00401
6.00796
6.01139
6.01422
6.01636
6.01782
6.01866
6.01908
6.01942
5.92422
5.92731
5.93125
5.93619
5.9414
5.94669
5.95193
5.95709
5.96211
5.96695
5.97157
5.97588
5.97976
5.9831
5.98575
5.98764
5.98876
5.9893
5.98973
5.89415
5.89706
5.90071
5.90522
5.90999
5.91486
5.91976
5.92467
5.92956
5.93442
5.93921
5.94384
5.94819
5.95207
5.95526
5.95756
5.95889
5.95945
5.95986
5.86519
5.86788
5.87113
5.87509
5.87929
5.88362
5.88806
5.8926
5.89725
5.902
5.90686
5.91177
5.91659
5.92106
5.92483
5.92756
5.92902
5.92945
5.92979
5.83747
5.83979
5.84252
5.84581
5.84929
5.85295
5.85679
5.86082
5.86506
5.86956
5.87434
5.87941
5.88466
5.88978
5.8942
5.89739
5.899
5.89923
5.89939
5.81064
5.81264
5.81477
5.81723
5.81986
5.82273
5.82584
5.82922
5.83286
5.83686
5.8413
5.84629
5.85183
5.85763
5.86271
5.86651
5.86837
5.86844
5.86852
5.78425
5.78615
5.78764
5.78898
5.79074
5.79276
5.79506
5.79763
5.80046
5.80364
5.80733
5.81179
5.81725
5.82387
5.82936
5.83379
5.83629
5.8367
5.83693
5.7588
5.76103
5.76166
5.76098
5.76184
5.76314
5.76463
5.76627
5.76809
5.77015
5.77262
5.77587
5.78076
5.78857
5.79362
5.79822
5.80158
5.80303
5.80479
5.73758
5.73883
5.73856
5.73785
5.73833
5.73897
5.73962
5.74029
5.74098
5.74173
5.74263
5.74386
5.746
5.75061
5.75256
5.75487
5.75686
5.75641
5.76043
)
;

boundaryField
{
    leftWall
    {
        type            fixedFluxPressure;
        gradient        uniform 0;
        value           nonuniform List<scalar> 
50
(
5724.28
5726.52
5726.9
5724.29
5717.58
5303.14
2087.17
1224.19
1220.86
1217.38
1173.89
1089.07
759.749
732.671
752.444
722.57
218.965
6.00504
6.02464
6.02792
6.03206
6.03369
6.03033
6.02505
6.01923
6.01242
6.00558
5.99769
5.98932
5.98032
5.97084
5.9609
5.95056
5.93984
5.92876
5.91737
5.90571
5.89383
5.88178
5.8696
5.85736
5.8451
5.83287
5.82074
5.80874
5.79691
5.78524
5.77356
5.76162
5.74429
)
;
    }
    rightWall
    {
        type            fixedFluxPressure;
        gradient        uniform 0;
        value           nonuniform List<scalar> 
50
(
2674.9
2674.62
2281.4
1623.14
1008.33
1026.08
1049.11
1051.97
1069.85
1092.04
953.798
823.757
782.016
782.173
782.197
800.518
464.331
42.2122
6.7363
6.41793
6.41395
6.40858
6.40303
6.39632
6.38811
6.37839
6.36697
6.35372
6.3387
6.32195
6.30353
6.28347
6.2619
6.23885
6.21453
6.18903
6.16249
6.13503
6.10685
6.07808
6.0489
6.01942
5.98973
5.95986
5.92979
5.89939
5.86852
5.83693
5.80479
5.76043
)
;
    }
    lowerWall
    {
        type            fixedFluxPressure;
        gradient        uniform 0;
        value           nonuniform List<scalar> 
62
(
5724.28
5712.83
5709.45
5715.74
5731.19
5754.9
5785.39
5820.71
5858.59
5896.7
5933.25
5966.67
5995.73
6018.72
6035.02
6044.47
6047.24
6043.51
6033.27
6016.35
5994.01
5969.46
5944.84
5944.84
5937.57
5928.98
5918.42
5906.16
5880.81
3513.95
1123.72
1221.12
1335.05
1403.85
1408.04
3344.64
3356.98
3007.04
2769.94
1655.89
1380.95
1402.2
1301.99
3344.64
3279.78
3170.43
3034.9
2880.26
2753.82
2709.13
2688.78
2687.37
2689.29
2654.68
2632.51
2676.99
2708.39
2703.48
2696.09
2685.22
2677.95
2674.9
)
;
    }
    atmosphere
    {
        type            prghTotalPressure;
        rho             rho;
        psi             none;
        gamma           1;
        p0              uniform 0;
        value           nonuniform List<scalar> 
46
(
5.72889
5.72897
5.72902
5.72904
5.72904
5.72904
5.72904
5.72904
5.72904
5.72904
5.72904
5.72903
5.72901
5.72899
5.72896
5.72899
5.72898
5.72897
5.72896
5.72895
5.72894
5.72892
5.72891
5.72895
5.72895
5.72896
5.72896
5.72895
5.72897
5.72898
5.72896
5.72896
5.72897
5.72899
5.72899
5.729
5.729
5.72899
5.72898
5.72897
5.72894
5.72893
5.72885
5.7287
5.72844
5.72843
)
;
        rho             rho;
    }
    defaultFaces
    {
        type            empty;
    }
}


// ************************************************************************* //
