/*--------------------------------*- C++ -*----------------------------------*\
  =========                 |
  \\      /  F ield         | OpenFOAM: The Open Source CFD Toolbox
   \\    /   O peration     | Website:  https://openfoam.org
    \\  /    A nd           | Version:  13
     \\/     M anipulation  |
\*---------------------------------------------------------------------------*/
FoamFile
{
    format      ascii;
    class       surfaceScalarField;
    location    "2.85";
    object      phi;
}
// * * * * * * * * * * * * * * * * * * * * * * * * * * * * * * * * * * * * * //

dimensions      [0 3 -1 0 0 0 0];

internalField   nonuniform List<scalar> 
4432
(
-1.15443e-06
1.15443e-06
-2.39155e-06
1.23712e-06
-3.68701e-06
1.29546e-06
-4.92507e-06
1.23807e-06
-6.05672e-06
1.13165e-06
-7.03941e-06
9.827e-07
-7.8473e-06
8.07899e-07
-8.47488e-06
6.27593e-07
-8.92283e-06
4.47953e-07
-9.1972e-06
2.74376e-07
-9.30771e-06
1.10513e-07
-9.25933e-06
-4.83728e-08
-9.04341e-06
-2.15923e-07
-8.66367e-06
-3.79744e-07
-8.12356e-06
-5.40117e-07
-7.42456e-06
-6.98998e-07
-6.56866e-06
-8.55909e-07
-5.56011e-06
-1.00856e-06
-4.41129e-06
-1.14883e-06
-3.16417e-06
-1.24713e-06
-1.92064e-06
-1.24353e-06
-9.05263e-07
-1.01538e-06
-9.05268e-07
-1.20392e-06
2.35836e-06
-2.44927e-06
2.48248e-06
-3.72693e-06
2.57312e-06
-4.94677e-06
2.4579e-06
-6.05352e-06
2.23841e-06
-7.01151e-06
1.94068e-06
-7.79771e-06
1.5941e-06
-8.402e-06
1.23187e-06
-8.82177e-06
8.67725e-07
-9.06486e-06
5.17463e-07
-9.14077e-06
1.86427e-07
-9.04637e-06
-1.42778e-07
-8.78183e-06
-4.80463e-07
-8.34941e-06
-8.12167e-07
-7.76021e-06
-1.12932e-06
-7.02645e-06
-1.43277e-06
-6.16083e-06
-1.72153e-06
-5.17811e-06
-1.99128e-06
-4.10312e-06
-2.22382e-06
-2.98529e-06
-2.36496e-06
-1.90767e-06
-2.32116e-06
-9.35086e-07
-1.98796e-06
-1.84034e-06
-1.30224e-06
3.6606e-06
-2.56146e-06
3.74168e-06
-3.79373e-06
3.80537e-06
-4.95732e-06
3.62149e-06
-6.01012e-06
3.2912e-06
-6.92032e-06
2.85087e-06
-7.66496e-06
2.33874e-06
-8.23112e-06
1.79803e-06
-8.61373e-06
1.25033e-06
-8.82159e-06
7.25331e-07
-8.86122e-06
2.26053e-07
-8.72932e-06
-2.74672e-07
-8.42565e-06
-7.84136e-07
-7.95891e-06
-1.27891e-06
-7.34613e-06
-1.7421e-06
-6.60585e-06
-2.17305e-06
-5.75687e-06
-2.57052e-06
-4.81997e-06
-2.92818e-06
-3.82422e-06
-3.21958e-06
-2.81582e-06
-3.37335e-06
-1.85213e-06
-3.28485e-06
-9.39118e-07
-2.90097e-06
-2.77946e-06
-1.38169e-06
5.04227e-06
-2.66786e-06
5.02782e-06
-3.85437e-06
4.99186e-06
-4.95411e-06
4.7212e-06
-5.9454e-06
4.28247e-06
-6.8012e-06
3.70664e-06
-7.49877e-06
3.03628e-06
-8.02371e-06
2.32296e-06
-8.36855e-06
1.59515e-06
-8.54047e-06
8.97237e-07
-8.54599e-06
2.3157e-07
-8.38012e-06
-4.40541e-07
-8.04395e-06
-1.1203e-06
-7.55193e-06
-1.77093e-06
-6.92597e-06
-2.36804e-06
-6.18857e-06
-2.91043e-06
-5.36165e-06
-3.39742e-06
-4.46878e-06
-3.82102e-06
-3.53904e-06
-4.14929e-06
-2.61447e-06
-4.29789e-06
-1.73376e-06
-4.16554e-06
-8.68563e-07
-3.76615e-06
-3.648e-06
-1.43161e-06
6.47387e-06
-2.74284e-06
6.33905e-06
-3.87892e-06
6.12794e-06
-4.90937e-06
5.75165e-06
-5.834e-06
5.20711e-06
-6.63145e-06
4.50409e-06
-7.28074e-06
3.68557e-06
-7.76595e-06
2.80817e-06
-8.07684e-06
1.90604e-06
-8.22076e-06
1.04116e-06
-8.19835e-06
2.0916e-07
-8.00342e-06
-6.35471e-07
-7.64211e-06
-1.4816e-06
-7.13372e-06
-2.27932e-06
-6.50333e-06
-2.99842e-06
-5.77519e-06
-3.63856e-06
-4.97236e-06
-4.20024e-06
-4.11938e-06
-4.67399e-06
-3.24508e-06
-5.02358e-06
-2.38672e-06
-5.15625e-06
-1.5744e-06
-4.97785e-06
-7.71946e-07
-4.5686e-06
-4.41995e-06
-1.56492e-06
8.03877e-06
-2.79107e-06
7.56522e-06
-3.8479e-06
7.18478e-06
-4.79668e-06
6.70044e-06
-5.64303e-06
6.05346e-06
-6.37456e-06
5.23563e-06
-6.97624e-06
4.28726e-06
-7.42934e-06
3.26127e-06
-7.72085e-06
2.19755e-06
-7.8452e-06
1.16552e-06
-7.79936e-06
1.63323e-07
-7.58435e-06
-8.50485e-07
-7.20969e-06
-1.85626e-06
-6.6988e-06
-2.7902e-06
-6.07683e-06
-3.62038e-06
-5.36696e-06
-4.34843e-06
-4.59186e-06
-4.97533e-06
-3.77476e-06
-5.49108e-06
-2.94316e-06
-5.85518e-06
-2.14092e-06
-5.95849e-06
-1.39331e-06
-5.72548e-06
-6.76036e-07
-5.28589e-06
-5.09598e-06
-1.69018e-06
9.72893e-06
-2.76608e-06
8.64111e-06
-3.71041e-06
8.1291e-06
-4.5499e-06
7.53993e-06
-5.29225e-06
6.79581e-06
-5.9399e-06
5.88326e-06
-6.48702e-06
4.83437e-06
-6.90407e-06
3.67832e-06
-7.1828e-06
2.47627e-06
-7.29828e-06
1.28099e-06
-7.24331e-06
1.08348e-07
-7.02471e-06
-1.06908e-06
-6.66535e-06
-2.2156e-06
-6.18208e-06
-3.27346e-06
-5.59296e-06
-4.20949e-06
-4.91758e-06
-5.02379e-06
-4.18134e-06
-5.71155e-06
-3.4121e-06
-6.26029e-06
-2.64825e-06
-6.61901e-06
-1.92369e-06
-6.68304e-06
-1.25538e-06
-6.39377e-06
-6.81368e-07
-5.85987e-06
-5.7773e-06
-1.53939e-06
1.12683e-05
-2.37926e-06
9.48098e-06
-3.05299e-06
8.80281e-06
-3.65391e-06
8.14085e-06
-4.19887e-06
7.34076e-06
-4.69708e-06
6.38146e-06
-5.15558e-06
5.29287e-06
-5.56662e-06
4.08936e-06
-5.89114e-06
2.80079e-06
-6.08481e-06
1.47467e-06
-6.11909e-06
1.42633e-07
-5.98535e-06
-1.2028e-06
-5.70733e-06
-2.49361e-06
-5.29918e-06
-3.68159e-06
-4.77261e-06
-4.73604e-06
-4.14869e-06
-5.64769e-06
-3.46284e-06
-6.39738e-06
-2.73923e-06
-6.98388e-06
-2.0178e-06
-7.34042e-06
-1.35726e-06
-7.34356e-06
-8.08376e-07
-6.94263e-06
-4.6503e-07
-6.20319e-06
-6.24228e-06
7.10535e-07
-7.10539e-07
7.14548e-07
-4.01749e-09
-1.16552e-08
7.26198e-07
-8.20392e-07
8.08734e-07
-1.05635e-06
2.35956e-07
-1.865e-06
8.08648e-07
-2.12446e-06
2.59454e-07
-2.11816e-06
-6.29714e-09
-1.90435e-06
-2.1381e-07
-7.55968e-07
-1.14838e-06
-6.04098e-07
-1.51868e-07
-1.86694e-06
1.26284e-06
-1.23215e-06
-6.34785e-07
-4.19108e-07
-8.13041e-07
-2.93296e-08
-3.89777e-07
2.25671e-07
-2.55e-07
2.68293e-07
-4.26227e-08
3.32191e-07
-6.38989e-08
3.3219e-07
1.35569e-06
-2.06624e-06
1.69014e-06
-3.38474e-07
8.27637e-07
1.5887e-06
-4.69472e-07
2.10584e-06
-1.34333e-06
1.10981e-06
-1.29288e-06
7.5819e-07
-1.39946e-06
3.66025e-07
-1.33052e-06
-7.52397e-08
-1.39535e-06
-1.48979e-07
-1.42363e-06
-1.1201e-06
-1.12767e-06
-4.47827e-07
-3.36976e-07
4.72153e-07
-9.51778e-08
-8.76581e-07
-9.79944e-08
-8.10223e-07
8.10876e-09
-4.95879e-07
4.84383e-08
-2.95329e-07
-7.81484e-10
6.5972e-09
-1.60154e-07
9.54731e-08
1.72036e-07
2.2765e-06
-4.34274e-06
2.49793e-06
-5.59902e-07
1.67338e-06
2.41325e-06
9.78354e-07
2.80086e-06
1.56525e-07
1.93164e-06
-3.64838e-07
1.27956e-06
-5.29956e-07
5.31145e-07
-5.34159e-07
-7.10377e-08
-2.70988e-07
-4.12151e-07
-9.5211e-07
-4.38983e-07
-7.7473e-07
-6.25208e-07
1.64237e-07
-4.66817e-07
3.45654e-07
-1.058e-06
1.13877e-07
-5.78448e-07
2.0185e-08
-4.02189e-07
-1.25734e-07
-1.49412e-07
-2.11681e-07
9.25422e-08
-5.02277e-07
3.86068e-07
-3.30244e-07
1.42973e-06
-5.7725e-06
1.47245e-06
-6.02625e-07
1.26123e-06
2.62446e-06
2.23628e-06
1.82581e-06
2.16456e-06
2.00335e-06
9.98759e-07
2.44535e-06
8.32321e-07
6.97577e-07
1.03983e-06
-2.78552e-07
1.81115e-06
-1.18348e-06
7.80059e-07
5.92101e-07
6.12964e-07
-4.58115e-07
7.20796e-07
-5.74654e-07
4.9618e-07
-8.33388e-07
-1.40059e-07
5.77889e-08
-2.05904e-07
-3.36345e-07
-6.72142e-08
-2.88103e-07
3.57349e-07
-3.3202e-07
1.12184e-06
-3.78421e-07
7.91595e-07
-6.93329e-07
-5.07916e-06
-5.67626e-07
-7.28326e-07
2.77617e-07
1.77923e-06
1.50371e-06
5.99722e-07
2.53282e-06
9.74247e-07
2.28195e-06
2.69623e-06
2.64019e-06
3.39343e-07
3.60011e-06
-1.23846e-06
3.7686e-06
-1.35196e-06
3.76805e-06
5.92651e-07
3.2347e-06
7.52292e-08
2.47511e-06
1.84927e-07
-3.47455e-07
1.98918e-06
-1.83585e-06
1.54618e-06
-8.97552e-07
-1.27465e-06
9.38148e-07
-2.12381e-06
2.92526e-06
-2.31914e-06
6.19633e-06
-3.6495e-06
6.98791e-06
-1.55194e-06
-3.52724e-06
-7.21714e-07
-1.55855e-06
5.13506e-07
5.44003e-07
9.99772e-07
1.13448e-07
1.64886e-06
3.25152e-07
2.49754e-06
1.84755e-06
3.1767e-06
-3.39822e-07
4.00396e-06
-2.06573e-06
3.92908e-06
-1.27708e-06
4.00517e-06
5.16561e-07
4.36231e-06
-2.81915e-07
4.78876e-06
-2.4152e-07
-1.38639e-06
8.16433e-06
-2.359e-06
2.51879e-06
-3.74137e-07
-3.25951e-06
1.57968e-06
-4.07763e-06
3.80238e-06
-4.54183e-06
5.32538e-06
-5.1725e-06
1.23133e-05
2.80977e-07
-3.80822e-06
2.18983e-07
-1.49656e-06
1.4284e-06
-6.6542e-07
1.6429e-06
-1.01058e-07
1.3797e-06
5.88355e-07
2.35144e-06
8.75797e-07
3.1961e-06
-1.18448e-06
3.37404e-06
-2.24367e-06
2.8976e-06
-8.00644e-07
3.04144e-06
3.7272e-07
3.43799e-06
-6.78463e-07
3.60524e-06
-4.08773e-07
-4.86805e-07
1.22564e-05
-8.29845e-07
2.86183e-06
4.1766e-07
-4.50702e-06
1.84216e-06
-5.50213e-06
3.23168e-06
-5.93134e-06
3.58995e-06
-5.53077e-06
1.59033e-05
1.75536e-06
-5.56358e-06
1.18613e-06
-9.27327e-07
2.35405e-06
-1.83334e-06
2.5381e-06
-2.85106e-07
1.84758e-06
1.27888e-06
2.23436e-06
4.8901e-07
2.76782e-06
-1.71794e-06
2.10644e-06
-1.58229e-06
1.61419e-06
-3.08395e-07
1.71345e-06
2.73457e-07
1.9171e-06
-8.82112e-07
1.50885e-06
-5.21818e-10
3.50659e-07
1.34146e-05
7.45566e-07
2.46692e-06
1.19363e-06
-4.95509e-06
1.76184e-06
-6.07034e-06
2.19662e-06
-6.36612e-06
1.58014e-06
-4.91429e-06
1.74834e-05
-1.56199e-06
1.28303e-05
-2.73409e-06
1.0653e-05
-3.23792e-06
9.30659e-06
-3.46659e-06
8.36947e-06
-3.53641e-06
7.41053e-06
-3.50661e-06
6.35164e-06
-3.4825e-06
5.26874e-06
-3.52009e-06
4.12693e-06
-3.56871e-06
2.84941e-06
-3.56246e-06
1.46842e-06
-3.43382e-06
1.40054e-08
-3.17434e-06
-1.46226e-06
-2.7772e-06
-2.89072e-06
-2.25099e-06
-4.20778e-06
-1.58593e-06
-5.40106e-06
-7.69833e-07
-6.46376e-06
1.90922e-07
-7.35811e-06
1.23517e-06
-8.0281e-06
2.26588e-06
-8.37111e-06
3.21232e-06
-8.28997e-06
3.9048e-06
-7.63508e-06
3.78298e-06
-6.0813e-06
-3.079e-06
6.19751e-07
-1.06899e-06
1.38993e-05
-1.02733e-06
1.06114e-05
-6.13174e-07
8.89244e-06
-9.70212e-08
7.85333e-06
5.74562e-07
6.73896e-06
1.38557e-06
5.54064e-06
2.16956e-06
4.48476e-06
2.82639e-06
3.4701e-06
3.3901e-06
2.28571e-06
3.92482e-06
9.33707e-07
4.43364e-06
-4.94807e-07
4.9152e-06
-1.94381e-06
5.3683e-06
-3.34381e-06
5.8004e-06
-4.63988e-06
6.23605e-06
-5.8367e-06
6.69453e-06
-6.92222e-06
7.16573e-06
-7.82929e-06
7.61742e-06
-8.47977e-06
7.94331e-06
-8.69699e-06
8.11588e-06
-8.46252e-06
8.18145e-06
-7.70063e-06
8.10256e-06
-6.0024e-06
-3.07739e-06
8.10098e-06
7.5042e-07
1.31489e-05
1.00239e-06
1.03594e-05
1.56819e-06
8.32667e-06
2.28217e-06
7.13938e-06
3.18384e-06
5.83732e-06
4.33019e-06
4.39432e-06
5.43792e-06
3.37706e-06
6.36948e-06
2.53856e-06
7.23221e-06
1.42301e-06
8.02905e-06
1.36875e-07
8.73097e-06
-1.19672e-06
9.32197e-06
-2.53481e-06
9.80599e-06
-3.82784e-06
1.01521e-05
-4.98597e-06
1.03811e-05
-6.06574e-06
1.05144e-05
-7.05552e-06
1.05121e-05
-7.82703e-06
1.02585e-05
-8.22614e-06
9.73262e-06
-8.17117e-06
8.95549e-06
-7.68541e-06
7.95941e-06
-6.70458e-06
7.01381e-06
-5.05682e-06
-2.12521e-06
6.06162e-06
1.96866e-06
1.11803e-05
2.88475e-06
9.44338e-06
3.67282e-06
7.53863e-06
4.6079e-06
6.20432e-06
5.59266e-06
4.85259e-06
6.50906e-06
3.47795e-06
7.42526e-06
2.46089e-06
8.4366e-06
1.52724e-06
9.38263e-06
4.77002e-07
1.02119e-05
-6.92408e-07
1.08998e-05
-1.8846e-06
1.13824e-05
-3.01747e-06
1.17249e-05
-4.17032e-06
1.19644e-05
-5.22549e-06
1.19573e-05
-6.05864e-06
1.15938e-05
-6.69209e-06
1.08848e-05
-7.118e-06
9.93529e-06
-7.27668e-06
8.70562e-06
-6.94154e-06
7.19292e-06
-6.17275e-06
5.49188e-06
-5.00358e-06
3.9539e-06
-3.51886e-06
-1.14937e-06
2.97805e-06
1.2874e-06
9.89289e-06
3.69431e-06
7.03648e-06
5.30384e-06
5.92912e-06
6.60666e-06
4.90151e-06
7.60886e-06
3.85041e-06
8.10047e-06
2.98636e-06
8.68535e-06
1.87603e-06
9.6305e-06
5.82104e-07
1.0545e-05
-4.37478e-07
1.12929e-05
-1.44028e-06
1.18697e-05
-2.46142e-06
1.2257e-05
-3.40478e-06
1.24094e-05
-4.32268e-06
1.24173e-05
-5.2334e-06
1.20919e-05
-5.73326e-06
1.1277e-05
-5.87715e-06
1.00809e-05
-5.92193e-06
8.79149e-06
-5.98733e-06
7.33061e-06
-5.48069e-06
5.6481e-06
-4.49026e-06
3.89528e-06
-3.25078e-06
2.17284e-06
-1.79645e-06
3.2094e-08
9.91361e-07
2.72365e-06
7.16925e-06
4.38095e-06
5.37919e-06
5.66249e-06
4.64758e-06
6.67064e-06
3.89336e-06
7.40658e-06
3.11448e-06
8.03484e-06
2.35811e-06
8.79329e-06
1.11758e-06
9.59371e-06
-2.18307e-07
1.04405e-05
-1.28424e-06
1.12121e-05
-2.21189e-06
1.18663e-05
-3.11557e-06
1.23917e-05
-3.93022e-06
1.26599e-05
-4.59083e-06
1.25151e-05
-5.08864e-06
1.20571e-05
-5.27521e-06
1.13246e-05
-5.14471e-06
1.02563e-05
-4.85362e-06
8.69253e-06
-4.42358e-06
6.84309e-06
-3.63126e-06
4.86563e-06
-2.51283e-06
2.87874e-06
-1.26392e-06
1.05322e-06
2.90535e-08
1.30943e-06
-2.24138e-07
3.00556e-06
4.16368e-06
4.37744e-06
4.00731e-06
5.35575e-06
3.66927e-06
6.09522e-06
3.1539e-06
6.77635e-06
2.43335e-06
7.6598e-06
1.47466e-06
8.49656e-06
2.80821e-07
9.29026e-06
-1.012e-06
1.01349e-05
-2.12885e-06
1.09965e-05
-3.07356e-06
1.17744e-05
-3.89344e-06
1.2384e-05
-4.53979e-06
1.26463e-05
-4.85317e-06
1.25725e-05
-5.01488e-06
1.21571e-05
-4.85976e-06
1.14045e-05
-4.39218e-06
1.02436e-05
-3.69268e-06
8.59632e-06
-2.77632e-06
6.55936e-06
-1.59432e-06
4.32487e-06
-2.78354e-07
2.12511e-06
9.35823e-07
1.62484e-07
1.99167e-06
2.79289e-06
-1.32098e-06
2.5381e-06
1.62558e-06
4.30704e-06
2.23841e-06
5.19289e-06
2.78347e-06
5.84292e-06
2.50391e-06
6.57901e-06
1.69728e-06
7.43476e-06
6.18915e-07
8.31109e-06
-5.95522e-07
9.16143e-06
-1.86236e-06
1.00249e-05
-2.99239e-06
1.08959e-05
-3.94458e-06
1.16894e-05
-4.68701e-06
1.22828e-05
-5.13327e-06
1.2618e-05
-5.18838e-06
1.25889e-05
-4.98585e-06
1.21827e-05
-4.45365e-06
1.13668e-05
-3.57631e-06
1.00802e-05
-2.40609e-06
8.28205e-06
-9.78237e-07
6.10559e-06
5.82143e-07
3.70123e-06
2.12602e-06
1.34914e-06
3.28795e-06
-6.72099e-07
4.01295e-06
4.35859e-06
-2.23774e-06
3.32092e-06
-1.69536e-06
5.28914e-06
2.70219e-07
5.98957e-06
2.08309e-06
6.48863e-06
2.00489e-06
7.17598e-06
1.00997e-06
8.13274e-06
-3.37821e-07
9.11935e-06
-1.58214e-06
9.93475e-06
-2.67777e-06
1.07178e-05
-3.7755e-06
1.15037e-05
-4.73056e-06
1.21929e-05
-5.37621e-06
1.26607e-05
-5.60118e-06
1.2819e-05
-5.34673e-06
1.25839e-05
-4.75091e-06
1.19155e-05
-3.78541e-06
1.07811e-05
-2.44198e-06
9.12659e-06
-7.51672e-07
7.00401e-06
1.14429e-06
4.64309e-06
2.94304e-06
2.30498e-06
4.46415e-06
1.32599e-07
5.46036e-06
-1.64582e-06
5.79142e-06
5.5139e-06
-2.80101e-06
2.0849e-06
-3.78054e-06
3.62115e-06
-1.26608e-06
5.46504e-06
2.39261e-07
6.6846e-06
7.85398e-07
7.59714e-06
9.74583e-08
8.46664e-06
-1.20729e-06
9.37505e-06
-2.49052e-06
1.02857e-05
-3.58837e-06
1.10588e-05
-4.54849e-06
1.16374e-05
-5.30917e-06
1.19891e-05
-5.72781e-06
1.20656e-05
-5.67763e-06
1.18164e-05
-5.09749e-06
1.11414e-05
-4.07584e-06
9.99397e-06
-2.63794e-06
8.41633e-06
-8.64362e-07
6.51122e-06
1.1534e-06
4.59075e-06
3.06468e-06
2.79672e-06
4.737e-06
1.24313e-06
6.01761e-06
-1.22801e-07
6.82609e-06
-1.36851e-06
7.03722e-06
6.51064e-06
-2.36528e-06
-1.77787e-06
-2.00274e-06
-2.01331e-06
-1.03074e-06
-1.77702e-06
2.89612e-09
-1.14516e-06
1.53486e-07
-3.83404e-07
-6.64302e-07
5.69083e-07
-2.15974e-06
1.93058e-06
-3.85194e-06
3.54716e-06
-5.20482e-06
4.74231e-06
-5.74347e-06
5.27009e-06
-5.83675e-06
5.34034e-06
-5.79784e-06
5.07533e-06
-5.4124e-06
4.53501e-06
-4.55695e-06
3.71272e-06
-3.25336e-06
2.64286e-06
-1.56792e-06
1.41643e-06
3.62162e-07
2.29326e-07
2.34054e-06
-7.69789e-07
4.06377e-06
-1.44318e-06
5.41026e-06
-1.77666e-06
6.35077e-06
-1.8991e-06
6.94829e-06
-2.01601e-06
7.15378e-06
6.51505e-06
-2.02022e-06
-2.37851e-06
3.75861e-07
-3.71679e-06
3.07562e-07
-3.87604e-06
1.62116e-07
-3.71739e-06
-5.2104e-09
-3.50252e-06
-8.79223e-07
-3.11163e-06
-2.55067e-06
-2.16544e-06
-4.79817e-06
-1.10904e-06
-6.26125e-06
-2.91812e-07
-6.56072e-06
-1.43932e-07
-5.98465e-06
-4.32913e-07
-5.50888e-06
-9.53388e-07
-4.89195e-06
-1.56538e-06
-3.94499e-06
-2.20071e-06
-2.61806e-06
-2.79779e-06
-9.7087e-07
-3.26854e-06
8.32886e-07
-3.57538e-06
2.64734e-06
-3.69912e-06
4.18747e-06
-3.621e-06
5.33207e-06
-3.37866e-06
6.10825e-06
-2.97679e-06
6.54624e-06
-2.47239e-06
6.64941e-06
6.19192e-06
-2.14898e-06
-2.60518e-06
2.9813e-06
-3.92495e-06
1.62752e-06
-4.44284e-06
6.80109e-07
-4.69064e-06
2.42649e-07
-4.95055e-06
-6.19308e-07
-5.05104e-06
-2.45023e-06
-4.76958e-06
-5.07972e-06
-4.49254e-06
-6.53843e-06
-4.24513e-06
-6.80831e-06
-4.37764e-06
-5.85237e-06
-4.83954e-06
-5.04724e-06
-5.39133e-06
-4.34044e-06
-5.92563e-06
-3.41098e-06
-6.34863e-06
-2.19536e-06
-6.59066e-06
-7.29103e-07
-6.6181e-06
8.6009e-07
-6.39155e-06
2.42062e-06
-5.97496e-06
3.77078e-06
-5.43571e-06
4.79276e-06
-4.79682e-06
5.46927e-06
-4.06927e-06
5.81872e-06
-3.28706e-06
5.8673e-06
5.56964e-06
-2.66438e-06
-2.50988e-06
5.49139e-06
-3.74884e-06
2.86666e-06
-4.45727e-06
1.38865e-06
-4.89608e-06
6.81524e-07
-5.3512e-06
-1.64173e-07
-5.74293e-06
-2.05854e-06
-6.24866e-06
-4.57408e-06
-6.61674e-06
-6.17049e-06
-6.99187e-06
-6.43336e-06
-7.39669e-06
-5.44779e-06
-7.89985e-06
-4.54435e-06
-8.40766e-06
-3.83293e-06
-8.83917e-06
-2.97979e-06
-9.12104e-06
-1.9138e-06
-9.19131e-06
-6.59133e-07
-9.00914e-06
6.77666e-07
-8.56673e-06
1.97802e-06
-7.91469e-06
3.11862e-06
-7.12201e-06
4e-06
-6.23828e-06
4.58545e-06
-5.29768e-06
4.87813e-06
-4.3388e-06
4.90856e-06
4.69595e-06
-3.46465e-06
-1.98189e-06
7.47354e-06
-3.33589e-06
4.22083e-06
-4.27337e-06
2.32625e-06
-4.95368e-06
1.3619e-06
-5.45067e-06
3.32827e-07
-6.01885e-06
-1.49037e-06
-6.94929e-06
-3.64371e-06
-7.88254e-06
-5.23736e-06
-8.74581e-06
-5.57023e-06
-9.37724e-06
-4.81655e-06
-9.84682e-06
-4.075e-06
-1.02662e-05
-3.4138e-06
-1.0584e-05
-2.66224e-06
-1.07498e-05
-1.74822e-06
-1.07058e-05
-7.03393e-07
-1.04163e-05
3.87964e-07
-9.88637e-06
1.4479e-06
-9.15276e-06
2.38489e-06
-8.27405e-06
3.1212e-06
-7.30546e-06
3.61673e-06
-6.29193e-06
3.86458e-06
-5.27357e-06
3.89031e-06
3.71501e-06
-4.29223e-06
-1.47727e-06
8.95095e-06
-2.89136e-06
5.63505e-06
-4.05972e-06
3.49469e-06
-4.91515e-06
2.21738e-06
-5.48279e-06
9.00489e-07
-6.15631e-06
-8.16869e-07
-7.16124e-06
-2.63882e-06
-8.40863e-06
-3.99005e-06
-9.53891e-06
-4.44006e-06
-1.02516e-05
-4.10404e-06
-1.07383e-05
-3.5884e-06
-1.11053e-05
-3.04699e-06
-1.13547e-05
-2.41304e-06
-1.14466e-05
-1.65654e-06
-1.13372e-05
-8.12998e-07
-1.10095e-05
6.00817e-08
-1.04673e-05
9.05557e-07
-9.73959e-06
1.65713e-06
-8.87333e-06
2.25484e-06
-7.91814e-06
2.66139e-06
-6.9202e-06
2.86658e-06
-5.91727e-06
2.88743e-06
2.71209e-06
-4.91397e-06
-1.22475e-06
1.01759e-05
-2.52561e-06
6.93602e-06
-3.74939e-06
4.71854e-06
-4.63707e-06
3.10511e-06
-5.3265e-06
1.58994e-06
-6.10507e-06
-3.83149e-08
-7.12901e-06
-1.61492e-06
-8.32161e-06
-2.79751e-06
-9.41859e-06
-3.34316e-06
-1.01966e-05
-3.32611e-06
-1.07305e-05
-3.05461e-06
-1.11033e-05
-2.67433e-06
-1.13292e-05
-2.18726e-06
-1.13893e-05
-1.5966e-06
-1.12624e-05
-9.40115e-07
-1.09423e-05
-2.60141e-07
-1.04352e-05
3.98335e-07
-9.76403e-06
9.85896e-07
-8.96593e-06
1.45664e-06
-8.08397e-06
1.77928e-06
-7.15808e-06
1.94062e-06
-6.22016e-06
1.94954e-06
1.76105e-06
-5.26878e-06
-1.07421e-06
1.12501e-05
-2.1983e-06
8.06019e-06
-3.25602e-06
5.77631e-06
-4.128e-06
3.97713e-06
-4.89351e-06
2.35546e-06
-5.72032e-06
7.88483e-07
-6.70037e-06
-6.34899e-07
-7.77224e-06
-1.72568e-06
-8.76308e-06
-2.35239e-06
-9.53582e-06
-2.55346e-06
-1.00912e-05
-2.49933e-06
-1.04755e-05
-2.29013e-06
-1.07014e-05
-1.96147e-06
-1.07617e-05
-1.53645e-06
-1.06505e-05
-1.0514e-06
-1.03682e-05
-5.42602e-07
-9.92337e-06
-4.65731e-08
-9.33584e-06
3.98286e-07
-8.63581e-06
7.56518e-07
-7.85773e-06
1.00105e-06
-7.03685e-06
1.11965e-06
-6.20089e-06
1.11362e-06
9.0528e-07
-5.34482e-06
-8.45042e-07
1.20953e-05
-1.75657e-06
8.97178e-06
-2.64455e-06
6.66434e-06
-3.45372e-06
4.78632e-06
-4.22203e-06
3.12377e-06
-5.0369e-06
1.60334e-06
-5.94146e-06
2.69638e-07
-6.88875e-06
-7.78437e-07
-7.77049e-06
-1.4707e-06
-8.49318e-06
-1.83084e-06
-9.042e-06
-1.95059e-06
-9.42918e-06
-1.90305e-06
-9.66163e-06
-1.72912e-06
-9.73831e-06
-1.45988e-06
-9.65966e-06
-1.13016e-06
-9.43025e-06
-7.72117e-07
-9.06039e-06
-4.16529e-07
-8.56766e-06
-9.45144e-08
-7.97658e-06
1.65354e-07
-7.31665e-06
3.40971e-07
-6.61591e-06
4.18843e-07
-5.89787e-06
3.95567e-07
1.731e-07
-5.16538e-06
-5.51162e-07
1.26465e-05
-1.23996e-06
9.66059e-06
-1.96304e-06
7.38744e-06
-2.67718e-06
5.50047e-06
-3.395e-06
3.84159e-06
-4.15347e-06
2.3618e-06
-4.96573e-06
1.08187e-06
-5.79557e-06
5.13662e-08
-6.57112e-06
-6.95195e-07
-7.23082e-06
-1.17121e-06
-7.75128e-06
-1.4302e-06
-8.13031e-06
-1.5241e-06
-8.3687e-06
-1.49083e-06
-8.46624e-06
-1.36244e-06
-8.42585e-06
-1.17065e-06
-8.25405e-06
-9.44024e-07
-7.9614e-06
-7.09263e-07
-7.56386e-06
-4.9212e-07
-7.08232e-06
-3.16257e-07
-6.53974e-06
-2.01757e-07
-5.96103e-06
-1.5995e-07
-5.36688e-06
-1.98523e-07
-4.36225e-07
-4.75728e-06
-2.4523e-07
1.28917e-05
-7.16731e-07
1.01321e-05
-1.2751e-06
7.94581e-06
-1.87351e-06
6.09888e-06
-2.50504e-06
4.47312e-06
-3.17752e-06
3.03427e-06
-3.88672e-06
1.79105e-06
-4.60354e-06
7.68151e-07
-5.27914e-06
-1.96436e-08
-5.86844e-06
-5.81968e-07
-6.34794e-06
-9.50777e-07
-6.70891e-06
-1.16321e-06
-6.94788e-06
-1.25196e-06
-7.06402e-06
-1.24639e-06
-7.06051e-06
-1.17426e-06
-6.94385e-06
-1.06078e-06
-6.72406e-06
-9.29128e-07
-6.41508e-06
-8.01162e-07
-6.0342e-06
-6.97211e-07
-5.60208e-06
-6.3401e-07
-5.13759e-06
-6.24494e-07
-4.65848e-06
-6.77662e-07
-9.22873e-07
-4.17153e-06
1.82363e-08
1.28734e-05
-2.49553e-07
1.03999e-05
-6.44588e-07
8.34083e-06
-1.11291e-06
6.56719e-06
-1.63501e-06
4.99522e-06
-2.20246e-06
3.60171e-06
-2.80183e-06
2.3904e-06
-3.40733e-06
1.37362e-06
-3.98436e-06
5.57341e-07
-4.49933e-06
-6.70422e-08
-4.9297e-06
-5.20478e-07
-5.26384e-06
-8.29141e-07
-5.49608e-06
-1.01979e-06
-5.6247e-06
-1.11786e-06
-5.65187e-06
-1.14718e-06
-5.5832e-06
-1.12955e-06
-5.42743e-06
-1.08497e-06
-5.19651e-06
-1.03215e-06
-4.90532e-06
-9.88461e-07
-4.56934e-06
-9.70117e-07
-4.20647e-06
-9.8746e-07
-3.83258e-06
-1.05149e-06
-1.30632e-06
-3.44891e-06
2.05225e-07
1.26682e-05
1.1756e-07
1.04875e-05
-1.17851e-07
8.57622e-06
-4.47887e-07
6.89721e-06
-8.46738e-07
5.39405e-06
-1.29739e-06
4.05234e-06
-1.78205e-06
2.87504e-06
-2.27741e-06
1.86896e-06
-2.75623e-06
1.03612e-06
-3.19292e-06
3.69606e-07
-3.56762e-06
-1.45838e-07
-3.86738e-06
-5.2944e-07
-4.08511e-06
-8.02146e-07
-4.21803e-06
-9.85022e-07
-4.26712e-06
-1.09818e-06
-4.23663e-06
-1.16012e-06
-4.13375e-06
-1.18793e-06
-3.96825e-06
-1.19771e-06
-3.75196e-06
-1.20482e-06
-3.49921e-06
-1.22298e-06
-3.2228e-06
-1.26391e-06
-2.9358e-06
-1.33855e-06
-1.59639e-06
-2.64546e-06
3.12761e-07
1.23552e-05
3.71688e-07
1.04284e-05
2.83929e-07
8.66391e-06
9.27509e-08
7.08835e-06
-1.76592e-07
5.66337e-06
-5.04699e-07
4.38043e-06
-8.72455e-07
3.24277e-06
-1.2585e-06
2.25498e-06
-1.64015e-06
1.41774e-06
-1.99639e-06
7.258e-07
-2.31016e-06
1.67885e-07
-2.56899e-06
-2.70672e-07
-2.76468e-06
-6.06527e-07
-2.8934e-06
-8.56379e-07
-2.95488e-06
-1.03678e-06
-2.95191e-06
-1.16316e-06
-2.88994e-06
-1.24997e-06
-2.77682e-06
-1.31089e-06
-2.62238e-06
-1.35931e-06
-2.43654e-06
-1.40894e-06
-2.23174e-06
-1.46879e-06
-2.01902e-06
-1.55116e-06
-1.8181e-06
-1.79711e-06
3.554e-07
1.19997e-05
5.25566e-07
1.02582e-05
5.66378e-07
8.62301e-06
5.05736e-07
7.14894e-06
3.63759e-07
5.80531e-06
1.57807e-07
4.58635e-06
-9.42905e-08
3.49485e-06
-3.73368e-07
2.53403e-06
-6.59912e-07
1.70425e-06
-9.35864e-07
1.00172e-06
-1.18606e-06
4.18041e-07
-1.39884e-06
-5.79478e-08
-1.56624e-06
-4.39195e-07
-1.68311e-06
-7.39584e-07
-1.74801e-06
-9.71946e-07
-1.76235e-06
-1.1489e-06
-1.72994e-06
-1.28244e-06
-1.6566e-06
-1.38428e-06
-1.5495e-06
-1.46647e-06
-1.41834e-06
-1.54021e-06
-1.2708e-06
-1.61633e-06
-1.11546e-06
-1.70657e-06
-1.97745e-06
-9.55826e-07
3.56651e-07
1.16426e-05
6.06109e-07
1.00085e-05
7.53277e-07
8.47573e-06
8.08508e-07
7.09364e-06
7.83889e-07
5.82989e-06
6.92889e-07
4.67732e-06
5.50594e-07
3.63712e-06
3.7329e-07
2.71131e-06
1.77615e-07
1.8999e-06
-2.05453e-08
1.19984e-06
-2.07426e-07
6.04884e-07
-3.71956e-07
1.06534e-07
-5.06515e-07
-3.04693e-07
-6.05539e-07
-6.40624e-07
-6.66428e-07
-9.11125e-07
-6.89293e-07
-1.1261e-06
-6.76402e-07
-1.29539e-06
-6.31877e-07
-1.42884e-06
-5.61506e-07
-1.53688e-06
-4.70671e-07
-1.63113e-06
-3.67803e-07
-1.71927e-06
-2.61255e-07
-1.81298e-06
-2.09212e-06
-1.46422e-07
3.40041e-07
1.13025e-05
6.44123e-07
9.70428e-06
8.7586e-07
8.24388e-06
1.02897e-06
6.94045e-06
1.10696e-06
5.75184e-06
1.11836e-06
4.66588e-06
1.07485e-06
3.6806e-06
9.89959e-07
2.79618e-06
8.7796e-07
2.01188e-06
7.52716e-07
1.32506e-06
6.26576e-07
7.3099e-07
5.09693e-07
2.23373e-07
4.09736e-07
-2.04787e-07
3.32122e-07
-5.63069e-07
2.80499e-07
-8.59564e-07
2.55816e-07
-1.10148e-06
2.5705e-07
-1.29667e-06
2.81694e-07
-1.45353e-06
3.26154e-07
-1.58138e-06
3.84793e-07
-1.68985e-06
4.54974e-07
-1.78946e-06
5.34083e-07
-1.8922e-06
-2.15665e-06
5.98884e-07
3.25038e-07
1.0977e-05
6.68207e-07
9.36084e-06
9.65427e-07
7.9465e-06
1.19767e-06
6.70811e-06
1.36081e-06
5.58864e-06
1.45857e-06
4.56807e-06
1.4993e-06
3.63984e-06
1.49401e-06
2.80145e-06
1.45489e-06
2.05098e-06
1.39411e-06
1.38581e-06
1.3228e-06
8.02275e-07
1.25037e-06
2.95761e-07
1.18434e-06
-1.38795e-07
1.12977e-06
-5.08558e-07
1.09078e-06
-8.2063e-07
1.06906e-06
-1.07982e-06
1.06464e-06
-1.2923e-06
1.07609e-06
-1.465e-06
1.10069e-06
-1.60602e-06
1.13627e-06
-1.72552e-06
1.17736e-06
-1.83061e-06
1.21798e-06
-1.93263e-06
-2.20557e-06
1.26705e-06
3.24616e-07
1.06523e-05
7.00165e-07
8.98511e-06
1.04857e-06
7.59795e-06
1.34255e-06
6.41402e-06
1.57258e-06
5.35854e-06
1.73873e-06
4.40188e-06
1.84674e-06
3.53181e-06
1.90562e-06
2.74254e-06
1.92596e-06
2.03062e-06
1.91859e-06
1.39316e-06
1.89362e-06
8.27223e-07
1.85976e-06
3.29583e-07
1.82407e-06
-1.03141e-07
1.79142e-06
-4.75958e-07
1.76587e-06
-7.95129e-07
1.74951e-06
-1.06351e-06
1.74303e-06
-1.28587e-06
1.74606e-06
-1.46807e-06
1.75759e-06
-1.61758e-06
1.77424e-06
-1.74224e-06
1.7947e-06
-1.85104e-06
1.81608e-06
-1.95412e-06
-2.22344e-06
1.83424e-06
3.46255e-07
1.03056e-05
7.54866e-07
8.57626e-06
1.14484e-06
7.20783e-06
1.48559e-06
6.07318e-06
1.76487e-06
5.07921e-06
1.98084e-06
4.18586e-06
2.13788e-06
3.37474e-06
2.24389e-06
2.63652e-06
2.30848e-06
1.96602e-06
2.34159e-06
1.36004e-06
2.35254e-06
8.16254e-07
2.34937e-06
3.32721e-07
2.33855e-06
-9.23505e-08
2.32466e-06
-4.62112e-07
2.31134e-06
-7.81855e-07
2.30076e-06
-1.05298e-06
2.29404e-06
-1.27919e-06
2.29142e-06
-1.46547e-06
2.29207e-06
-1.61828e-06
2.29606e-06
-1.74629e-06
2.30022e-06
-1.85529e-06
2.30169e-06
-1.95541e-06
-2.22294e-06
2.3013e-06
3.92986e-07
9.91263e-06
8.40557e-07
8.1286e-06
1.26689e-06
6.78141e-06
1.64203e-06
5.69797e-06
1.95406e-06
4.76714e-06
2.20146e-06
3.93844e-06
2.38885e-06
3.18735e-06
2.52416e-06
2.5012e-06
2.61683e-06
1.87335e-06
2.67642e-06
1.30045e-06
2.71172e-06
7.80939e-07
2.73017e-06
3.14252e-07
2.73754e-06
-9.97455e-08
2.73797e-06
-4.62574e-07
2.73429e-06
-7.78214e-07
2.72847e-06
-1.0472e-06
2.72163e-06
-1.27239e-06
2.71447e-06
-1.45834e-06
2.70744e-06
-1.61128e-06
2.6992e-06
-1.73812e-06
2.69005e-06
-1.84611e-06
2.67812e-06
-1.94362e-06
-2.19869e-06
2.65409e-06
4.65364e-07
9.44695e-06
9.61212e-07
7.63263e-06
1.42145e-06
6.32111e-06
1.82052e-06
5.29887e-06
2.14984e-06
4.4378e-06
2.41073e-06
3.67754e-06
2.60989e-06
2.98819e-06
2.7566e-06
2.35449e-06
2.86098e-06
1.76898e-06
2.93275e-06
1.22868e-06
2.98048e-06
7.33208e-07
3.01107e-06
2.83654e-07
3.02952e-06
-1.18215e-07
3.03915e-06
-4.72227e-07
3.04183e-06
-7.80928e-07
3.03883e-06
-1.04424e-06
3.03109e-06
-1.26468e-06
3.01929e-06
-1.44657e-06
3.00388e-06
-1.5959e-06
2.98624e-06
-1.72054e-06
2.96506e-06
-1.825e-06
2.93868e-06
-1.91703e-06
-2.16412e-06
2.90425e-06
5.62551e-07
8.88459e-06
1.11762e-06
7.07761e-06
1.61084e-06
5.82792e-06
2.02409e-06
4.88563e-06
2.35562e-06
4.10628e-06
2.61236e-06
3.42082e-06
2.8051e-06
2.79548e-06
2.94577e-06
2.21384e-06
3.04596e-06
1.66881e-06
3.11605e-06
1.15861e-06
3.16463e-06
6.84638e-07
3.19816e-06
2.50121e-07
3.2208e-06
-1.4086e-07
3.23468e-06
-4.86121e-07
3.24036e-06
-7.86634e-07
3.23802e-06
-1.04193e-06
3.22793e-06
-1.25462e-06
3.21091e-06
-1.42957e-06
3.18834e-06
-1.57334e-06
3.16007e-06
-1.69233e-06
3.12809e-06
-1.79295e-06
3.09207e-06
-1.88108e-06
-2.11203e-06
3.04023e-06
6.83378e-07
8.20116e-06
1.30887e-06
6.45218e-06
1.83357e-06
5.30328e-06
2.25058e-06
4.46867e-06
2.56885e-06
3.78806e-06
2.80396e-06
3.18575e-06
2.97276e-06
2.62671e-06
3.09096e-06
2.09568e-06
3.1722e-06
1.5876e-06
3.22782e-06
1.10302e-06
3.26664e-06
6.45835e-07
3.2948e-06
2.21975e-07
3.31553e-06
-1.61593e-07
3.32943e-06
-5.00041e-07
3.33525e-06
-7.92464e-07
3.33154e-06
-1.03824e-06
3.31778e-06
-1.24088e-06
3.29459e-06
-1.40639e-06
3.26314e-06
-1.54193e-06
3.22621e-06
-1.65542e-06
3.1839e-06
-1.75066e-06
3.13567e-06
-1.83267e-06
-2.05185e-06
3.07567e-06
8.26537e-07
7.37502e-06
1.53185e-06
5.74708e-06
2.08453e-06
4.75074e-06
2.49289e-06
4.0604e-06
2.7814e-06
3.49962e-06
2.97761e-06
2.98959e-06
3.10619e-06
2.49818e-06
3.18726e-06
2.01467e-06
3.23666e-06
1.53824e-06
3.26671e-06
1.07301e-06
3.28658e-06
6.25992e-07
3.30225e-06
2.06316e-07
3.31615e-06
-1.75494e-07
3.32699e-06
-5.1089e-07
3.33093e-06
-7.96429e-07
3.32435e-06
-1.03168e-06
3.30552e-06
-1.22207e-06
3.27503e-06
-1.37593e-06
3.23526e-06
-1.50216e-06
3.18788e-06
-1.60809e-06
3.13596e-06
-1.69868e-06
3.08011e-06
-1.77681e-06
-1.9775e-06
3.00594e-06
9.91096e-07
6.38419e-06
1.78094e-06
4.95749e-06
2.3539e-06
4.17797e-06
2.73818e-06
3.67625e-06
2.97937e-06
3.25854e-06
3.12041e-06
2.84862e-06
3.19494e-06
2.42373e-06
3.22724e-06
1.98242e-06
3.23479e-06
1.53074e-06
3.23048e-06
1.07736e-06
3.22385e-06
6.32644e-07
3.2212e-06
2.08989e-07
3.22456e-06
-1.78857e-07
3.23047e-06
-5.16808e-07
3.23158e-06
-7.97555e-07
3.22107e-06
-1.0212e-06
3.19596e-06
-1.19699e-06
3.15691e-06
-1.33688e-06
3.10681e-06
-1.45209e-06
3.05038e-06
-1.55167e-06
2.98952e-06
-1.6378e-06
2.92444e-06
-1.7116e-06
-1.9009e-06
2.84806e-06
1.17475e-06
5.20995e-06
2.04507e-06
4.08754e-06
2.62521e-06
3.59808e-06
2.96636e-06
3.33528e-06
3.14257e-06
3.08246e-06
3.21532e-06
2.77598e-06
3.22676e-06
2.41237e-06
3.20367e-06
2.00558e-06
3.16353e-06
1.57094e-06
3.11896e-06
1.12197e-06
3.07997e-06
6.71675e-07
3.05398e-06
2.34993e-07
3.04389e-06
-1.68743e-07
3.04397e-06
-5.16883e-07
3.04205e-06
-7.95639e-07
3.02674e-06
-1.0059e-06
2.99377e-06
-1.16402e-06
2.9447e-06
-1.28782e-06
2.88463e-06
-1.39201e-06
2.81814e-06
-1.48518e-06
2.74998e-06
-1.56955e-06
2.68092e-06
-1.64241e-06
-1.8162e-06
2.5964e-06
1.36916e-06
3.84131e-06
2.30208e-06
3.15501e-06