/*--------------------------------*- C++ -*----------------------------------*\
  =========                 |
  \\      /  F ield         | OpenFOAM: The Open Source CFD Toolbox
   \\    /   O peration     | Website:  https://openfoam.org
    \\  /    A nd           | Version:  13
     \\/     M anipulation  |
\*---------------------------------------------------------------------------*/
FoamFile
{
    format      ascii;
    class       volScalarField;
    location    "2.85";
    object      rho;
}
// * * * * * * * * * * * * * * * * * * * * * * * * * * * * * * * * * * * * * //

dimensions      [1 -3 0 0 0 0 0];

internalField   nonuniform List<scalar> 
2268
(
13529
13529
13529
13529
13529
13529
13529
13529
13529
13529
13529
13529
13529
13529
13529
13529
13529
13529
13529
13525.9
13521.8
13521.8
13522.2
13529
13529
13529
13529
13529
13529
13529
13529
13529
13529
13529
13529
13529
13529
13529
13529
13529
13529
13529
13528.7
13528.2
13528.1
13529
13529
13529
13529
13529
13529
13529
13529
13529
13529
13529
13529
13529
13529
13529
13529
13529
13529
13529
13529
13529
13529
13529
13529
13529
13529
13529
13529
13529
13529
13529
13529
13529
13529
13529
13529
13529
13529
13529
13529
13529
13529
13529
13529
13529
13529
13529
13529
13529
13529
13529
13529
13529
13529
13529
13529
13529
13529
13529
13529
13529
13529
13529
13529
13529
13529
13529
13529
13529
13528.9
12164.2
11953
11887.4
11999
12209.1
12516.4
12878.4
13206.8
13466.8
13529
13529
13525.3
13529
13529
13529
13529
13529
13529
13529
13529
13529
13511.1
13482.2
3085.6
2828.93
2763.94
2890.85
3129.73
3460.65
3896.17
4479.71
5196.28
6066.3
6951.38
7778.77
8479.8
8976.26
9236.41
9291.87
9211.15
9018.59
8761.12
8406.69
7898.06
7237.55
6797.05
1000
1000
1000
1000
1000.01
999.998
1000
1000
1000
1000
1014.15
1028.14
1023.47
1026
1046.62
1075.4
1083.2
1076.14
1036.44
999.986
999.825
998.089
995.906
11943.5
11951.6
11945.4
11934.9
10613
9026.13
9030.85
9187.18
9480.75
9516.99
8953.91
8876.62
9556.7
10338.6
10345.6
10361.5
10320.5
10301.7
10306.2
11943.1
11943.6
11949.1
11552.3
11234.8
11243.3
11257.8
11272.1
11227.9
11189.8
10448.2
9344.1
10291.3
10269.4
10280.4
10284.9
10301.6
10301.9
10304.9
8806.56
8795.92
8125.03
6725.15
6807.26
7340.83
6939.25
6717.93
6253.83
7437.02
7762.2
8150.6
7431.42
7818.8
8225.36
8416.48
8061.09
7547.28
6974.8
7319.33
6063.4
3934.85
2650.31
1897.92
1523.07
1327.26
1295.55
1947.43
1381.98
2587.87
3456.85
3477.72
2816.88
2122.51
1482.47
1750.2
2273.06
3254.23
2524.04
1984.05
2101.31
2376.23
1584.47
1027.73
1019.26
995.168
1202.93
1117.43
774.212
710.837
1549.8
966.401
666.521
862.492
881.731
963.275
647.462
1565.33
1879.04
1870.7
1966.68
2018.53
1453.38
1482.73
1535.15
1500.89
1188.72
1015.26
823.609
385.453
642.12
975.044
999.959
999.923
999.933
719.411
1608.92
1502.09
1427.8
1541.26
1888.9
1685.79
1549.54
1774.7
1344.93
1103.21
1006.29
1002.13
381.892
707.411
999.883
1000.01
999.915
999.728
796.413
1351.22
1313.53
1270.97
1137.13
1069.51
1591.63
1606.84
1370.1
1003.24
1005.03
1006.15
967.11
387.263
732.384
994.391
1000.01
999.19
1001.02
811.823
1000
1000
1000
999.992
999.96
999.998
1000
1000
1000
1000
1000
1000
1000
1000
1000
1000
1000
1000
1000
999.899
999.784
999.114
996.513
1000
1000
998.773
999.438
999.975
1000
1000
1000
1000
1000
1000
1000
1000
1000
1000
1000
1000
1000
999.995
997.59
990.77
979.132
951.247
944.004
975.009
998.545
999.749
999.984
1000
1000
1000
1000
1000
999.933
999.683
997.751
991.957
980.984
966.264
951.822
938.705
897.766
838.378
779.019
708.972
634.216
845.777
808.182
800.793
802.156
824.963
876.945
887.365
864.947
867.695
871.344
865.241
850.228
819.051
768.627
728.352
697.398
646.348
563.333
502.337
472.548
457.253
477.925
472.328
507.937
506.122
506.22
506.449
509.07
494.632
473.003
482.485
474.753
465.16
452.523
435.097
441.532
462.751
459.973
440.522
441.102
481.663
499.813
500
500
500.002
493.145
483.705
499.366
499.943
500.067
492.707
473.689
484.636
496.912
496.288
490.437
490.903
495.773
499.992
500
500
500
500
500
500
500
499.855
499.759
500.098
499.773
500.277
500.04
500.006
499.997
499.978
499.999
500
500
500
500
500
500
500
500
500
500
500
500
500
500.002
500.004
500.001
477.028
474.666
469.724
463.138
455.938
448.338
443.132
440.588
437.018
432.171
425.747
417.518
407.789
397.538
387.602
377.982
368.146
357.755
349.923
350.048
359.828
377.13
397.14
134.325
135.063
121.331
106.761
96.869
89.8605
80.9682
70.8723
62.9577
56.7843
50.8402
44.4623
37.9631
31.9559
26.8727
22.8997
20.2229
19.0598
19.9164
22.614
27.2363
34.2638
43.6625
1.00069
1.00122
1.00431
1.0015
1.00023
1.00008
1.00009
1.00006
1.00005
1.00003
1.00002
1.00001
1.00001
1.00001
1
1
1
1
1
1.00006
1.00022
1.00062
1.0006
1.00099
1.00061
1.00068
1.00067
1.00018
1.00021
1.00017
1.00041
1.00046
1.00027
1.00007
1.00006
1.00006
1.00006
1.00006
1.00005
1.00004
1.00003
1.00003
1.00003
1.00003
1.00004
1.00009
1.00102
1.00171
1.00312
1.0008
1.00019
1.00108
1.01357
1.04746
1.02136
1.00188
1.00052
1.0004
1.00033
1.0003
1.00023
1.00015
1.00012
1.0001
1.00008
1.00006
1.00006
1.00008
1.0001
1.00162
1.00601
1.01355
1.00439
1.00012
1.00578
1.07369
1.08417
1.0789
1.00698
1.00124
1.00095
1.00063
1.00051
1.0003
1.0002
1.00014
1.0001
1.00007
1.00005
1.00006
1.00005
1.00007
1.00229
1.01695
1.02938
1.02033
1.00012
1.0138
1.0822
1.08374
1.08406
1.03738
1.00327
1.00294
1.00146
1.00094
1.00031
1.00017
1.00014
1.00012
1.00008
1.00005
1.00005
1.00004
1.00004
1.00178
1.01919
1.0293
1.02531
1.00011
1.00014
1.02724
1.08196
1.07891
1.016
1.00326
1.00323
1.00312
1.0022
1.00008
1.00011
1.00013
1.00012
1.00008
1.00006
1.00005
1.00003
1.00003
1.00118
1.00967
1.02387
1.00973
1.00012
1.00011
1.00007
1.00489
1.00721
1.00133
1.00184
1.00309
1.0029
1.00129
1.00002
1.00007
1.0001
1.00009
1.00008
1.00006
1.00005
1.00003
1.00002
1.00083
1.00144
1.00228
1.00044
1.00014
1.00005
1.00007
1.00006
1.00006
1.00006
1.00027
1.001
1.0011
1.00015
1.00005
1.00009
1.00009
1.00006
1.00005
1.00005
1.00004
1.00003
1.00002
1.00046
1.00051
1.00021
1.00011
1.00006
1.00005
1.00006
1.00006
1.00006
1.00013
1.00031
1.00041
1.00036
1.00007
1.00004
1.00006
1.00005
1.00004
1.00003
1.00003
1.00003
1.00002
1.00001
1.0004
1.00023
1.00012
1.00006
1.00005
1.00005
1.00005
1.00004
1.00003
1.00006
1.00019
1.00032
1.0003
1.00012
1.00003
1.00003
1.00003
1.00002
1.00002
1.00002
1.00001
1.00001
1.00001
1.00025
1.00024
1.00013
1.00006
1.00004
1.00004
1.00004
1.00003
1.00002
1.00003
1.00008
1.00017
1.00017
1.00005
1.00002
1.00002
1.00002
1.00001
1.00001
1.00001
1.00001
1.00001
1.00001
1.00019
1.0002
1.00012
1.00005
1.00004
1.00003
1.00003
1.00002
1.00002
1.00002
1.00003
1.00004
1.00003
1.00002
1.00001
1.00001
1.00001
1.00001
1.00001
1.00001
1
1
1
1.00012
1.00015
1.00009
1.00005
1.00003
1.00003
1.00002
1.00002
1.00001
1.00001
1.00002
1.00002
1.00001
1.00001
1.00001
1.00001
1.00001
1.00001
1
1
1
1
1
1.00008
1.0001
1.00007
1.00004
1.00003
1.00002
1.00002
1.00001
1.00001
1.00001
1.00001
1.00001
1.00001
1
1
1
1
1
1
1
1
1
1
1.00005
1.00006
1.00005
1.00004
1.00003
1.00002
1.00001
1.00001
1.00001
1.00001
1
1
1
1
1
1
1
1
1
1
1
1
1
1.00004
1.00005
1.00004
1.00003
1.00002
1.00001
1.00001
1.00001
1.00001
1
1
1
1
1
1
1
1
1
1
1
1
1
1
1.00004
1.00004
1.00003
1.00002
1.00002
1.00001
1.00001
1.00001
1
1
1
1
1
1
1
1
1
1
1
1
1
1
1
1.00003
1.00003
1.00002
1.00002
1.00001
1.00001
1.00001
1
1
1
1
1
1
1
1
1
1
1
1
1
1
1
1
1.00003
1.00002
1.00002
1.00001
1.00001
1.00001
1
1
1
1
1
1
1
1
1
1
1
1
1
1
1
1
1
1.00002
1.00002
1.00001
1.00001
1.00001
1
1
1
1
1
1
1
1
1
1
1
1
1
1
1
1
1
1
1.00002
1.00001
1.00001
1.00001
1
1
1
1
1
1
1
1
1
1
1
1
1
1
1
1
1
1
1
1.00001
1.00001
1.00001
1
1
1
1
1
1
1
1
1
1
1
1
1
1
1
1
1
1
1
1
1.00001
1.00001
1
1
1
1
1
1
1
1
1
1
1
1
1
1
1
1
1
1
1
1
1
1.00001
1
1
1
1
1
1
1
1
1
1
1
1
1
1
1
1
1
1
1
1
1
1
1.00001
1
1
1
1
1
1
1
1
1
1
1
1
1
1
1
1
1
1
1
1
1
1
1
1
1
1
1
1
1
1
1
1
1
1
1
1
1
1
1
1
1
1
1
1
1
1
1
1
1
1
1
1
1
1
1
1
1
1
1
1
1
1
1
1
1
1
1
1
1
1
1
1
1
1
1
1
1
1
1
1
1
1
1
1
1
1
1
1
1
1
1
1
1
1
1
1
1
1
1
1
1
1
1
1
1
1
1
1
1
1
1
1
1
1
1
1
1
1
1
1
1
1
1
1
1
1
1
1
1
1
1
1
1
1
1
1
1
1
1
1
1
1
1
1
1
1
1
1
1
1
1
1
1
1
1
1
1
1
1
1
1
1
1
1
1
1
1
1
1
1
1
1
1
1
1
1
1
1
1
1
1
1
1
1
1
1
1
1
1
1
1
1
1
1
1
1
1
1
1
1
1
1
1
1
1
1
1165.16
1374.56
1499.51
1505.65
895.981
899.614
939.993
979.526
600.566
550.99
539.912
638.394
439.066
431.741
431.609
444.847
489.036
492.552
500.802
502.537
500.141
500.094
500.025
500.014
500.004
500.003
500.003
500.006
411.066
420.24
428.512
436.855
51.0015
56.3213
61.5027
66.587
1.00071
1.0004
1.00021
1.00037
1.00011
1.00011
1.00013
1.00017
1.00012
1.00012
1.00013
1.00014
1.00009
1.0001
1.00009
1.0001
1.00005
1.00006
1.00007
1.00007
1.00004
1.00004
1.00004
1.00004
1.00002
1.00002
1.00002
1.00002
1.00002
1.00001
1.00001
1.00001
1.00001
1.00001
1.00001
1.00001
1.00001
1.00001
1.00001
1.00001
1
1
1
1
1
1
1
1
1
1
1
1
1
1
1
1
1
1
1
1
1
1
1
1
1
1
1
1
1
1
1
1
1
1
1
1
1
1
1
1
1
1
1
1
1
1
1
1
1
1
1
1
1
1
1
1
1
1
1
1
1
1
1
1
1
1
1
1
1
1
1
1
1
1
1
1
1
1
1
1
1
1
1
1
1
1
1
1
1
1
1
1
1169.37
1061.08
1160.9
1100.54
999.238
961.451
1107.01
967.516
999.651
999.749
1000.61
976.913
649.53
955.31
999.906
999.93
999.26
928.18
858.839
995.851
1003.86
1133.74
1013.41
885.131
981.166
903.374
855.189
970.944
989.963
995.415
995.556
989.493
987.054
934.9
847.013
782.855
823.675
894.449
757.691
754.641
738.968
771.884
817.429
684.64
653.342
703.396
661.546
640.714
642.493
685.448
738.555
662.421
579.266
548.938
585.318
639.469
698.585
462.202
452.496
450.618
508.735
521.379
437.949
445.737
444.154
469.836
500.83
500.006
499.993
499.976
500.031
500.353
500.444
508.805
540.434
543.355
503.377
497.187
496.689
499.67
499.938
487.697
440.983
447.525
491.592
500.125
500.039
500.014
500.001
500.001
500.054
500.195
500.21
500.519
500.166
500.007
500.007
500.007
499.976
499.989
500.015
499.152
499.508
500
500
500.005
500.003
500.001
500.001
499.996
499.974
499.985
500.019
500.125
500.004
500.002
500.002
500.004
500.007
500.009
500.004
500.001
500
500
500
500
500.021
500.047
500.015
500.001
500.633
501.233
500.173
449.875
467.886
481.587
493.007
500.002
500.003
500.001
500.001
500
500
500
500.001
500.008
500.04
501.863
515.436
529.349
529.501
514.019
76.0446
91.5448
109.954
132.397
164.181
205.006
239.845
264.845
281.826
295.848
308.832
320.478
330.978
337.268
334.24
316.757
291.671
279.219
285.939
1.00046
1.00054
1.00073
1.00117
1.00185
1.00415
1.6229
3.10374
4.96919
7.26976
10.2747
13.7092
16.2975
17.3565
23.2029
28.4768
30.4292
25.8859
21.7551
1.00023
1.00031
1.00093
1.09146
1.21497
1.29853
1.29172
1.11689
1.1018
1.13813
1.34279
1.63468
1.84001
2.60994
1.83003
1.00141
1.00001
1.00393
1.17273
1.00017
1.00035
1.00024
1.15776
1.41438
1.41507
1.41512
1.10681
1.0393
1.07386
1.26988
1.43507
1.44587
1.38454
1.0044
1.00059
1.00013
1.00007
1.00022
1.00011
1.00018
1.00023
1.00504
1.00165
1.02683
1.01286
1.01059
1.00277
1.00596
1.09664
1.27441
1.23093
1.08789
1.00177
1.00031
1.0002
1.00017
1.0008
1.00007
1.00007
1.00006
1.00009
1.00007
1.0001
1.00054
1.0008
1.00093
1.00286
1.00435
1.00161
1.00015
1.00009
1.00043
1.00036
1.00033
1.00026
1.00016
1.00004
1.00005
1.00006
1.00008
1.0001
1.00011
1.00014
1.00025
1.00038
1.00052
1.00025
1.00011
1.0001
1.00011
1.00022
1.00028
1.00031
1.00024
1.00019
1.00003
1.00004
1.00006
1.00008
1.00011
1.00012
1.00012
1.00014
1.00016
1.00017
1.00017
1.00013
1.00011
1.0001
1.00015
1.00019
1.00019
1.00018
1.00018
1.00001
1.00002
1.00003
1.00005
1.00007
1.00009
1.00009
1.0001
1.0001
1.00012
1.00012
1.00011
1.00009
1.00007
1.00008
1.00008
1.00009
1.00008
1.00008
1.00001
1.00001
1.00001
1.00001
1.00002
1.00003
1.00003
1.00004
1.00004
1.00005
1.00005
1.00005
1.00005
1.00003
1.00003
1.00003
1.00003
1.00002
1.00002
1.00001
1.00001
1.00001
1.00001
1.00001
1.00001
1.00001
1.00001
1.00001
1.00002
1.00002
1.00002
1.00002
1.00002
1.00001
1.00001
1.00001
1.00001
1.00001
1
1
1
1
1
1
1.00001
1.00001
1.00001
1.00001
1.00001
1.00001
1.00001
1.00001
1.00001
1.00001
1.00001
1.00001
1.00001
1
1
1
1
1
1
1
1
1
1
1
1
1
1
1
1.00001
1.00001
1.00001
1.00002
1
1
1
1
1
1
1
1
1
1
1
1
1
1
1
1.00001
1.00001
1.00002
1.00003
1
1
1
1
1
1
1
1
1
1
1
1
1
1
1
1.00001
1.00001
1.00003
1.00004
1
1
1
1
1
1
1
1
1
1
1
1
1
1
1
1.00001
1.00002
1.00004
1.00004
1
1
1
1
1
1
1
1
1
1
1
1
1
1
1
1.00001
1.00002
1.00004
1.00004
1
1
1
1
1
1
1
1
1
1
1
1
1
1
1
1.00001
1.00002
1.00005
1.00002
1
1
1
1
1
1
1
1
1
1
1
1
1
1
1
1
1.00002
1.00005
1.00002
1
1
1
1
1
1
1
1
1
1
1
1
1
1
1
1
1.00002
1.00005
1.00002
1
1
1
1
1
1
1
1
1
1
1
1
1
1
1
1
1.00002
1.00005
1.00001
1
1
1
1
1
1
1
1
1
1
1
1
1
1
1
1
1.00002
1.00004
1.00001
1
1
1
1
1
1
1
1
1
1
1
1
1
1
1
1
1.00002
1.00002
1
1
1
1
1
1
1
1
1
1
1
1
1
1
1
1
1.00001
1.00001
1.00001
1
1
1
1
1
1
1
1
1
1
1
1
1
1
1
1
1.00001
1.00001
1
1
1
1
1
1
1
1
1
1
1
1
1
1
1
1
1
1.00001
1.00001
1
1
1
1
1
1
1
1
1
1
1
1
1
1
1
1
1
1
1
1
1
1
1
1
1
1
1
1
1
1
1
1
1
1
1
1
1
1
1
1
1
1
1
1
1
1
1
1
1
1
1
1
1
1
1
1
1
1
1
1
1
1
1
1
1
1
1
1
1
1
1
1
1
1
1
1
1
1
1
1
1
1
1
1
1
1
1
1
1
1
1
1
1
1
1
1
1
1
1
1
1
1
1
1
1
1
1
1
1
1
1
1
1
1
1
1
1
1
1
1
1
1
1
1
1
1
1
1
1
1
1
1
1
1
1
1
1
1
1
1
1
1
1
1
1
1
1
1
1
1
1
1
1
1
)
;

boundaryField
{
    leftWall
    {
        type            calculated;
        value           nonuniform List<scalar> 
50
(
13529
13529
13529
13529
13529
12164.2
3085.6
1000
1000
1000
944.004
845.777
507.937
483.705
499.773
477.028
134.325
1.00069
1.00099
1.00102
1.00162
1.00229
1.00178
1.00118
1.00083
1.00046
1.0004
1.00025
1.00019
1.00012
1.00008
1.00005
1.00004
1.00004
1.00003
1.00003
1.00002
1.00002
1.00001
1.00001
1.00001
1.00001
1
1
1
1
1
1
1
1
)
;
    }
    rightWall
    {
        type            calculated;
        value           nonuniform List<scalar> 
50
(
10306.2
10304.9
6974.8
3254.23
647.462
719.411
796.413
811.823
858.839
894.449
698.585
543.355
500.166
500.125
500.173
514.019
285.939
21.7551
1.17273
1.00022
1.0008
1.00016
1.00019
1.00018
1.00008
1.00002
1.00001
1.00001
1.00002
1.00003
1.00004
1.00004
1.00004
1.00002
1.00002
1.00002
1.00001
1.00001
1
1
1
1
1
1
1
1
1
1
1
1
)
;
    }
    lowerWall
    {
        type            calculated;
        value           nonuniform List<scalar> 
62
(
13529
13529
13529
13529
13529
13529
13529
13529
13529
13529
13529
13529
13529
13529
13529
13529
13529
13529
13529
13525.9
13521.8
13521.8
13522.2
13522.2
13529
13529
13529
13528.9
13482.2
6797.05
995.906
1165.16
1374.56
1499.51
1505.65
11943.5
11943.1
8806.56
7319.33
2524.04
1565.33
1608.92
1351.22
11943.5
11951.6
11945.4
11934.9
10613
9026.13
9030.85
9187.18
9480.75
9516.99
8953.91
8876.62
9556.7
10338.6
10345.6
10361.5
10320.5
10301.7
10306.2
)
;
    }
    atmosphere
    {
        type            calculated;
        value           nonuniform List<scalar> 
46
(
1
1
1
1
1
1
1
1
1
1
1
1
1
1
1
1
1
1
1
1
1
1
1
1
1
1
1
1
1
1
1
1
1
1
1
1
1
1
1
1
1
1
1
1
1
1
)
;
    }
    defaultFaces
    {
        type            empty;
    }
}


// ************************************************************************* //
