/*--------------------------------*- C++ -*----------------------------------*\
  =========                 |
  \\      /  F ield         | OpenFOAM: The Open Source CFD Toolbox
   \\    /   O peration     | Website:  https://openfoam.org
    \\  /    A nd           | Version:  13
     \\/     M anipulation  |
\*---------------------------------------------------------------------------*/
FoamFile
{
    format      ascii;
    class       volVectorField;
    location    "2.85";
    object      U;
}
// * * * * * * * * * * * * * * * * * * * * * * * * * * * * * * * * * * * * * //

dimensions      [0 1 -1 0 0 0 0];

internalField   nonuniform List<vector> 
2268
(
(-0.0090538 0.00411088 0)
(-0.0203751 0.00422239 0)
(-0.0345746 0.00441233 0)
(-0.0492728 0.00431559 0)
(-0.0628934 0.00403611 0)
(-0.0750336 0.00356784 0)
(-0.0852715 0.00298639 0)
(-0.0934674 0.00238869 0)
(-0.0996198 0.00178806 0)
(-0.103753 0.00118134 0)
(-0.105959 0.000588323 0)
(-0.106333 -1.09929e-05 0)
(-0.104845 -0.000580123 0)
(-0.101458 -0.00118356 0)
(-0.0962173 -0.0018105 0)
(-0.0891422 -0.00247366 0)
(-0.080242 -0.00316618 0)
(-0.0695512 -0.00387332 0)
(-0.0571617 -0.00457296 0)
(-0.0433708 -0.00515798 0)
(-0.0289311 -0.00534193 0)
(-0.0158191 -0.00448032 0)
(-0.00867997 -0.00466267 0)
(-0.00861088 0.00971816 0)
(-0.0209391 0.0103201 0)
(-0.035169 0.010806 0)
(-0.0497372 0.0103469 0)
(-0.063109 0.00943988 0)
(-0.0749721 0.00819735 0)
(-0.0849626 0.00674946 0)
(-0.0929112 0.00524473 0)
(-0.0987605 0.00373682 0)
(-0.102533 0.00228433 0)
(-0.104347 0.000901449 0)
(-0.104259 -0.000477689 0)
(-0.102221 -0.00186836 0)
(-0.0982327 -0.0032715 0)
(-0.09238 -0.00464045 0)
(-0.0848005 -0.00597916 0)
(-0.0756322 -0.00728195 0)
(-0.065029 -0.00852854 0)
(-0.0532018 -0.00963803 0)
(-0.0405421 -0.0103537 0)
(-0.0276892 -0.0101873 0)
(-0.0161508 -0.00844218 0)
(-0.00787261 -0.00718329 0)
(-0.00862708 0.0163126 0)
(-0.0223855 0.0168557 0)
(-0.0362469 0.0173199 0)
(-0.0502003 0.0165202 0)
(-0.0629343 0.0150186 0)
(-0.0742164 0.0130016 0)
(-0.0837068 0.0106584 0)
(-0.0912116 0.00820512 0)
(-0.0966292 0.0057394 0)
(-0.0999799 0.00336265 0)
(-0.101387 0.00114123 0)
(-0.100877 -0.00108227 0)
(-0.0983897 -0.00335366 0)
(-0.0939607 -0.00557931 0)
(-0.0877543 -0.00768924 0)
(-0.0799828 -0.00968207 0)
(-0.0708575 -0.0115502 0)
(-0.0605997 -0.0132604 0)
(-0.0494745 -0.0146854 0)
(-0.0378978 -0.0154666 0)
(-0.0263945 -0.0150515 0)
(-0.0160397 -0.0130609 0)
(-0.00730159 -0.0124064 0)
(-0.00852904 0.0237684 0)
(-0.0237986 0.0240197 0)
(-0.0372856 0.0241149 0)
(-0.0505338 0.0228784 0)
(-0.062538 0.0207646 0)
(-0.0731546 0.0179681 0)
(-0.082071 0.0147182 0)
(-0.0890798 0.011278 0)
(-0.0940518 0.00777867 0)
(-0.0969799 0.00446297 0)
(-0.0979887 0.00128343 0)
(-0.0970912 -0.00189584 0)
(-0.094211 -0.00512166 0)
(-0.0894347 -0.0082298 0)
(-0.0829947 -0.0111091 0)
(-0.0751529 -0.013754 0)
(-0.066162 -0.0161588 0)
(-0.0562762 -0.0182865 0)
(-0.045775 -0.0199736 0)
(-0.0350657 -0.0208213 0)
(-0.0246054 -0.0202714 0)
(-0.0151644 -0.0181723 0)
(-0.00603709 -0.0175351 0)
(-0.00872283 0.0303711 0)
(-0.024843 0.0306932 0)
(-0.0379388 0.0301752 0)
(-0.0504158 0.0285049 0)
(-0.0616306 0.0259009 0)
(-0.0715198 0.0224774 0)
(-0.0798298 0.018459 0)
(-0.0863548 0.0141315 0)
(-0.0908945 0.00967869 0)
(-0.0934886 0.00537079 0)
(-0.0941976 0.00124656 0)
(-0.092953 -0.00294425 0)
(-0.089751 -0.00715335 0)
(-0.0847251 -0.011144 0)
(-0.0781607 -0.0147667 0)
(-0.0703409 -0.0180186 0)
(-0.0615371 -0.0209032 0)
(-0.0520141 -0.0233734 0)
(-0.042055 -0.0252581 0)
(-0.0320584 -0.0260652 0)
(-0.0224177 -0.0252539 0)
(-0.0137699 -0.0231322 0)
(-0.00476089 -0.022428 0)
(-0.0112601 0.0352781 0)
(-0.0256792 0.035943 0)
(-0.0380676 0.0348277 0)
(-0.0495902 0.0327281 0)
(-0.0598759 0.0296764 0)
(-0.0689305 0.025721 0)
(-0.0765946 0.0210945 0)
(-0.0826513 0.0160975 0)
(-0.0869303 0.0109236 0)
(-0.0893066 0.00588864 0)
(-0.0897591 0.00101849 0)
(-0.0882751 -0.00395467 0)
(-0.0848606 -0.00894089 0)
(-0.0797447 -0.013627 0)
(-0.0732191 -0.0178297 0)
(-0.0655517 -0.0215411 0)
(-0.0570076 -0.0247589 0)
(-0.0478585 -0.0274261 0)
(-0.0383411 -0.0293224 0)
(-0.0288483 -0.0299029 0)
(-0.0200164 -0.0287546 0)
(-0.0121039 -0.0265168 0)
(-0.00422309 -0.0263607 0)
(-0.0149916 0.0464303 0)
(-0.0256978 0.0416623 0)
(-0.0371674 0.0394159 0)
(-0.0473932 0.0367762 0)
(-0.0564331 0.0332829 0)
(-0.0643893 0.0288655 0)
(-0.0712606 0.0237366 0)
(-0.0768325 0.01814 0)
(-0.0807961 0.0122978 0)
(-0.0831 0.00661771 0)
(-0.0834779 0.000937695 0)
(-0.081859 -0.00479935 0)
(-0.0785259 -0.0104841 0)
(-0.0736686 -0.0157811 0)
(-0.0674967 -0.0205031 0)
(-0.0602083 -0.0246422 0)
(-0.0520838 -0.0281854 0)
(-0.0433958 -0.0310821 0)
(-0.034514 -0.033092 0)
(-0.0259549 -0.0336726 0)
(-0.0180465 -0.0324934 0)
(-0.0107528 -0.0302678 0)
(-0.00553602 -0.0304829 0)
(-0.0139763 0.0618866 0)
(-0.0225167 0.0516698 0)
(-0.031262 0.0478323 0)
(-0.0384571 0.0439684 0)
(-0.0449556 0.0393239 0)
(-0.0508809 0.0337904 0)
(-0.0563637 0.0275266 0)
(-0.0614048 0.0207066 0)
(-0.0657251 0.0137219 0)
(-0.0688058 0.00677585 0)
(-0.0701576 0.00028812 0)
(-0.0695585 -0.00618058 0)
(-0.0671496 -0.0123518 0)
(-0.0631871 -0.0179872 0)
(-0.0577875 -0.0229697 0)
(-0.051133 -0.0273283 0)
(-0.0435786 -0.0310084 0)
(-0.0354681 -0.0339387 0)
(-0.0271326 -0.0358277 0)
(-0.0190032 -0.0359468 0)
(-0.0122331 -0.0339935 0)
(-0.00592403 -0.0310426 0)
(-0.00412159 -0.0315599 0)
(0.00268192 -0.00029841 0)
(0.0119976 0.0014145 0)
(0.00287468 0.00337559 0)
(-0.00704327 0.00201438 0)
(-0.0114652 -0.00120393 0)
(-0.0154823 0.00343841 0)
(-0.0233822 0.00086374 0)
(-0.024223 -0.000357875 0)
(-0.0229762 -0.00175178 0)
(-0.0158168 -0.00682498 0)
(-0.00382453 -0.000604802 0)
(-0.0144871 0.00722722 0)
(-0.0199 -0.00296051 0)
(-0.00883611 -0.00439106 0)
(-0.00236126 -0.00197809 0)
(0.00142773 -0.00164272 0)
(0.00334116 -0.000565024 0)
(0.00259101 -0.00106841 0)
(0.00532912 0.00148338 0)
(0.00587686 -0.0055262 0)
(0.0221016 -0.000740265 0)
(0.0144507 0.006451 0)
(0.00154129 0.0074909 0)
(-0.0107136 0.00335131 0)
(-0.0155042 0.00313959 0)
(-0.0161771 0.0012887 0)
(-0.0160313 -0.000368694 0)
(-0.0149352 -0.0011173 0)
(-0.0161362 -0.00551102 0)
(-0.0149315 -0.00167334 0)
(-0.00831182 0.00352895 0)
(-0.00183623 -0.00378104 0)
(-0.000786806 -0.00398573 0)
(-0.000626549 -0.0023545 0)
(0.00058866 -0.00139731 0)
(0.000399365 -7.14e-05 0)
(-0.000464945 0.000357323 0)
(-0.00306744 0.00217135 0)
(0.0155779 -0.0161802 0)
(0.0303306 -0.00231599 0)
(0.0223566 0.00982474 0)
(0.0154927 0.0120396 0)
(0.00687926 0.00729559 0)
(-0.00230884 0.00445013 0)
(-0.00602189 0.00173644 0)
(-0.00693007 -0.000478247 0)
(-0.00256656 -0.00129204 0)
(-0.00697314 -0.00390808 0)
(-0.011671 -0.00283834 0)
(-0.00279712 -0.000261941 0)
(0.00502912 -0.00494449 0)
(0.00229145 -0.00346962 0)
(0.000422484 -0.00217788 0)
(-0.000339493 -0.00100802 0)
(-0.00194893 0.000263235 0)
(-0.00228334 0.00104834 0)
(-0.00703893 -0.000808477 0)
(0.00684599 -0.0202824 0)
(0.0192489 -0.00224683 0)
(0.0139631 0.0125676 0)
(0.0200587 0.0123627 0)
(0.0270144 0.0105304 0)
(0.017289 0.00881769 0)
(0.00905665 0.00357348 0)
(0.00965967 0.000424083 0)
(0.0186667 -0.00328923 0)
(0.0153569 0.000190636 0)
(0.00541392 -0.00225821 0)
(0.00914031 -0.0026627 0)
(0.00923616 -0.00519354 0)
(-0.00027722 -0.00198531 0)
(-0.00311626 -0.00117697 0)
(-0.00173707 0.000200745 0)
(0.00105853 0.000924863 0)
(0.00845435 0.00171954 0)
(0.0155583 -0.00286512 0)
(-0.0147944 -0.0313602 0)
(-0.00494242 -0.00403836 0)
(-0.00335014 0.0112172 0)
(0.0109467 0.00597732 0)
(0.0239839 0.00764099 0)
(0.0279057 0.0144484 0)
(0.0270163 0.00345245 0)
(0.0365329 -0.0038321 0)
(0.0425248 -0.00656135 0)
(0.0450415 0.00360159 0)
(0.0382513 -0.000945305 0)
(0.0363543 -0.00134667 0)
(0.0144666 3.78612e-05 0)
(-0.0182351 0.00296382 0)
(-0.0191287 -0.00245532 0)
(-0.000758479 -0.0045035 0)
(0.0212696 -0.00521201 0)
(0.0439997 -0.00824405 0)
(0.0762278 0.0145878 0)
(-0.0201866 -0.022611 0)
(-0.0118856 -0.00483716 0)
(-0.00146925 0.00621111 0)
(0.0103369 0.00127512 0)
(0.0153653 0.00262299 0)
(0.0229584 0.0110242 0)
(0.0323006 -0.000114605 0)
(0.0422963 -0.00876188 0)
(0.0455475 -0.00680442 0)
(0.0454758 0.00305124 0)
(0.0465815 -0.00012777 0)
(0.0579442 -0.000101775 0)
(0.0231837 0.0209014 0)
(-0.0335057 0.0104618 0)
(-0.0173844 -0.0117301 0)
(0.0061203 -0.0156193 0)
(0.0309455 -0.0176847 0)
(0.0493998 -0.0226783 0)
(0.0726569 0.0467638 0)
(0.00467124 -0.0140139 0)
(-0.000607264 -0.00771106 0)
(0.00952393 -0.000284576 0)
(0.0196403 -0.000111388 0)
(0.0160043 0.00167277 0)
(0.0202914 0.00607772 0)
(0.0324804 -0.00424815 0)
(0.038729 -0.0107999 0)
(0.0360768 -0.00532901 0)
(0.0331469 0.00218127 0)
(0.0358593 -0.00220498 0)
(0.0439799 -0.00129592 0)
(0.0212507 0.0548487 0)
(-0.0191778 0.0143248 0)
(-0.00278093 -0.0192288 0)
(0.0124604 -0.0241479 0)
(0.0305351 -0.0264794 0)
(0.0366416 -0.0270826 0)
(0.0542729 0.0682362 0)
(0.0280711 -0.0232305 0)
(0.0124676 -0.00607638 0)
(0.0207232 -0.00654385 0)
(0.0302552 -0.00113549 0)
(0.0233665 0.00420811 0)
(0.0226851 0.00295069 0)
(0.0296838 -0.00730845 0)
(0.0293128 -0.00963676 0)
(0.0205957 -0.00286801 0)
(0.0179829 0.00142389 0)
(0.020074 -0.00403341 0)
(0.0222411 -0.000738385 0)
(0.0116615 0.0661728 0)
(0.000631707 0.0135449 0)
(0.0119082 -0.0235038 0)
(0.0168897 -0.028896 0)
(0.0248233 -0.0306147 0)
(0.0174423 -0.0260674 0)
(0.0301113 0.082962 0)
(-0.00632499 0.0670179 0)
(-0.0125197 0.0580866 0)
(-0.016278 0.0530292 0)
(-0.018162 0.0488059 0)
(-0.0189362 0.0441224 0)
(-0.0189486 0.0387078 0)
(-0.0187301 0.0327606 0)
(-0.018813 0.0260695 0)
(-0.0190931 0.0184337 0)
(-0.0192714 0.0102593 0)
(-0.0189784 0.00118753 0)
(-0.0179441 -0.00801976 0)
(-0.0161457 -0.0169158 0)
(-0.0136489 -0.0250747 0)
(-0.0104771 -0.0322653 0)
(-0.006529 -0.0383577 0)
(-0.00171032 -0.0432693 0)
(0.00374005 -0.0469938 0)
(0.00941793 -0.0489979 0)
(0.0147752 -0.0488788 0)
(0.0192392 -0.0461381 0)
(0.0216086 -0.0386097 0)
(0.0144548 -0.0262509 0)
(-0.00641844 0.0717768 0)
(-0.00569202 0.058229 0)
(-0.00450463 0.0500016 0)
(-0.00209736 0.0446021 0)
(0.00110389 0.0389776 0)
(0.00521306 0.0328703 0)
(0.00962632 0.0270704 0)
(0.013505 0.0212437 0)
(0.0167241 0.0145317 0)
(0.0196401 0.00698388 0)
(0.0224494 -0.000882698 0)
(0.0251145 -0.00894966 0)
(0.0276211 -0.0167499 0)
(0.029981 -0.023964 0)
(0.0322824 -0.0306041 0)
(0.0346753 -0.0366501 0)
(0.0372221 -0.0417226 0)
(0.0397678 -0.0454141 0)
(0.041869 -0.0470609 0)
(0.0431705 -0.0462527 0)
(0.0436997 -0.0421582 0)
(0.0439282 -0.0329631 0)
(0.044407 -0.0169646 0)
(0.00159019 0.0736465 0)
(0.00469497 0.0567688 0)
(0.00670233 0.0463271 0)
(0.0100857 0.0401729 0)
(0.0145464 0.0336638 0)
(0.0201601 0.0265339 0)
(0.0262409 0.0210335 0)
(0.0317646 0.0161149 0)
(0.0365984 0.0100114 0)
(0.0410504 0.00294373 0)
(0.045111 -0.00451969 0)
(0.0485863 -0.0120195 0)
(0.0514448 -0.0192603 0)
(0.0536946 -0.0259081 0)
(0.0552717 -0.0321669 0)
(0.0562603 -0.0379158 0)
(0.0566215 -0.0426401 0)
(0.0559575 -0.0456923 0)
(0.0539312 -0.046344 0)
(0.0504222 -0.0445727 0)
(0.0455147 -0.0399498 0)
(0.0401284 -0.03059 0)
(0.0354971 -0.0139622 0)
(0.00683572 0.0653583 0)
(0.0133966 0.0536418 0)
(0.0173982 0.0432941 0)
(0.0221725 0.0363149 0)
(0.0274068 0.0288951 0)
(0.0324614 0.0212524 0)
(0.0373031 0.0157516 0)
(0.0425269 0.011093 0)
(0.047925 0.00540116 0)
(0.0527397 -0.00118236 0)
(0.0568257 -0.00798252 0)
(0.0599773 -0.0146988 0)
(0.062225 -0.0213843 0)
(0.0638086 -0.0275335 0)
(0.0645273 -0.0329149 0)
(0.0635822 -0.0375706 0)
(0.060696 -0.0410548 0)
(0.0562451 -0.0427325 0)
(0.0503962 -0.0416699 0)
(0.0429876 -0.0381574 0)
(0.0340832 -0.0321742 0)
(0.0250539 -0.0234112 0)
(0.0179884 -0.00852139 0)
(0.00275033 0.0601643 0)
(0.0147552 0.045902 0)
(0.024522 0.0370613 0)
(0.0321425 0.0303393 0)
(0.0383051 0.0236064 0)
(0.0420897 0.0174273 0)
(0.0449044 0.0116866 0)
(0.04908 0.00578538 0)
(0.0541511 0.000195464 0)
(0.0587627 -0.00569715 0)
(0.0623575 -0.0116996 0)
(0.0649929 -0.0173697 0)
(0.066488 -0.0231045 0)
(0.0670038 -0.0285179 0)
(0.0662073 -0.032155 0)
(0.0632017 -0.0342753 0)
(0.057734 -0.035522 0)
(0.0509761 -0.0360387 0)
(0.0435739 -0.0336494 0)
(0.0350716 -0.0287965 0)
(0.0255796 -0.0222451 0)
(0.0158779 -0.0144051 0)
(0.00764136 -0.00323634 0)
(0.0115554 0.045249 0)
(0.0195334 0.0328854 0)
(0.027044 0.0277648 0)
(0.0332517 0.0230887 0)
(0.0378348 0.0184192 0)
(0.0414586 0.0141035 0)
(0.0450554 0.00782685 0)
(0.0492023 0.000661143 0)
(0.053778 -0.00502179 0)
(0.0582082 -0.0101882 0)
(0.062114 -0.0153109 0)
(0.0653876 -0.0200177 0)
(0.0675855 -0.0242229 0)
(0.0679575 -0.0279695 0)
(0.0664273 -0.0297564 0)
(0.0632737 -0.02963 0)
(0.0583912 -0.0288911 0)
(0.0512841 -0.0279246 0)
(0.0420494 -0.0244925 0)
(0.0315952 -0.0187956 0)
(0.0206945 -0.0120329 0)
(0.0101391 -0.00465543 0)
(0.00145549 0.00349255 0)
(0.0117806 0.0296177 0)
(0.0202169 0.0246435 0)
(0.0261939 0.0222011 0)
(0.0307127 0.0188475 0)
(0.0345016 0.0147287 0)
(0.0386742 0.0101187 0)
(0.0432651 0.00341044 0)
(0.0476941 -0.00378296 0)
(0.0521168 -0.00982993 0)
(0.0567656 -0.0149453 0)
(0.0612774 -0.0195898 0)
(0.0651173 -0.0234543 0)
(0.0675785 -0.0260247 0)
(0.0681515 -0.0276892 0)
(0.0668348 -0.0276094 0)
(0.0637475 -0.0258647 0)
(0.0587001 -0.0230371 0)
(0.0511426 -0.0193019 0)
(0.041066 -0.0138778 0)
(0.029355 -0.00719919 0)
(0.017177 -0.000376625 0)
(0.00567734 0.00596107 0)
(-0.0038875 0.0116213 0)
(0.00818778 0.016851 0)
(0.0194026 0.0179104 0)
(0.0255546 0.0173452 0)
(0.0295945 0.0149599 0)
(0.0331633 0.0110468 0)
(0.0374772 0.00579288 0)
(0.042256 -0.000513453 0)
(0.0468971 -0.00714948 0)
(0.0514606 -0.0129372 0)
(0.0561832 -0.0177985 0)
(0.0607878 -0.0218507 0)
(0.0646443 -0.0247737 0)
(0.0672462 -0.0259844 0)
(0.0681309 -0.0261457 0)
(0.0669915 -0.024756 0)
(0.0637794 -0.0217656 0)
(0.058231 -0.0174925 0)
(0.0498951 -0.0119467 0)
(0.0389916 -0.00509057 0)
(0.0264032 0.00214753 0)
(0.0133631 0.00852484 0)
(0.00121224 0.0135462 0)
(-0.00866406 0.0172054 0)
(0.0139795 0.00749532 0)
(0.0234175 0.010681 0)
(0.0299527 0.0135487 0)
(0.0334113 0.0121515 0)
(0.036546 0.00816381 0)
(0.0409627 0.00251648 0)
(0.0463027 -0.00362175 0)
(0.0512011 -0.00985788 0)
(0.0554531 -0.0155749 0)
(0.0597226 -0.0204093 0)
(0.063845 -0.0241776 0)
(0.0670306 -0.0264467 0)
(0.0688135 -0.0266838 0)
(0.0687346 -0.0257193 0)
(0.0662974 -0.0231687 0)
(0.0615264 -0.0190092 0)
(0.0541392 -0.013457 0)
(0.043786 -0.00630007 0)
(0.0313358 0.00234479 0)
(0.0185344 0.0101128 0)
(0.00624962 0.016199 0)
(-0.00475803 0.0203115 0)
(-0.0129187 0.0221995 0)
(0.00713223 -0.0186432 0)
(0.0138597 -0.000394983 0)
(0.0258678 0.00793377 0)
(0.0332557 0.00866143 0)
(0.038277 0.00497208 0)
(0.0430778 -0.00122634 0)
(0.0479179 -0.00662155 0)
(0.0529413 -0.0118634 0)
(0.0573814 -0.0173686 0)
(0.0610798 -0.0223894 0)
(0.0637909 -0.0259897 0)
(0.0649458 -0.02748 0)
(0.0645842 -0.0263448 0)
(0.0622831 -0.0232014 0)
(0.0573264 -0.0177148 0)
(0.0499657 -0.00970157 0)
(0.0404308 0.000723162 0)
(0.0296993 0.012694 0)
(0.0195006 0.0226061 0)
(0.010642 0.0300396 0)
(0.00293441 0.0334161 0)
(-0.00469241 0.0328004 0)
(-0.0110169 0.0298287 0)
(-0.00782789 -0.0273146 0)
(-0.0112797 -0.0160193 0)
(-0.010174 -0.00288994 0)
(-0.00799227 0.000936707 0)
(-0.00422688 -0.00479442 0)
(0.000326297 -0.0149991 0)
(0.00661591 -0.0244199 0)
(0.014871 -0.0316357 0)
(0.0227534 -0.0365225 0)
(0.0275 -0.0394705 0)
(0.0289881 -0.0401744 0)
(0.0283487 -0.0374905 0)
(0.0261333 -0.0311592 0)
(0.0224597 -0.0217673 0)
(0.0173208 -0.00990956 0)
(0.0110337 0.0034374 0)
(0.00431425 0.0170116 0)
(-0.00173331 0.0292727 0)
(-0.00633036 0.0390776 0)
(-0.00902306 0.0459668 0)
(-0.0100638 0.0506584 0)
(-0.0107553 0.0517891 0)
(-0.0115725 0.0460657 0)
(-0.00779683 -0.00305597 0)
(-0.018103 -0.0013001 0)
(-0.0207608 0.000405687 0)
(-0.0204524 0.000449972 0)
(-0.0194885 -0.00441994 0)
(-0.0180679 -0.0132657 0)
(-0.0144205 -0.0243174 0)
(-0.00864158 -0.03217 0)
(-0.00323373 -0.0344989 0)
(-0.000430542 -0.0332951 0)
(-0.00109551 -0.0319763 0)
(-0.00352688 -0.029256 0)
(-0.00669722 -0.0243052 0)
(-0.0101261 -0.0169457 0)
(-0.0135068 -0.00757692 0)
(-0.016441 0.00299424 0)
(-0.0185528 0.013542 0)
(-0.0197067 0.0226869 0)
(-0.0198192 0.0294723 0)
(-0.0189876 0.0344224 0)
(-0.0172144 0.0374782 0)
(-0.0149616 0.0385111 0)
(-0.0136394 0.0356636 0)
(-0.0118502 0.00864606 0)
(-0.0181767 0.00548215 0)
(-0.0225558 0.00223668 0)
(-0.0245689 0.000312154 0)
(-0.0260531 -0.00433815 0)
(-0.0270624 -0.0138434 0)
(-0.0265403 -0.027087 0)
(-0.0248405 -0.0350295 0)
(-0.023145 -0.0363859 0)
(-0.0227788 -0.0319608 0)
(-0.0244798 -0.0283358 0)
(-0.0273959 -0.0246959 0)
(-0.0304736 -0.0196431 0)
(-0.0331344 -0.0128402 0)
(-0.0349901 -0.00450155 0)
(-0.0357443 0.00466687 0)
(-0.0351447 0.0136514 0)
(-0.0333215 0.021439 0)
(-0.0306919 0.027352 0)
(-0.0275341 0.0312379 0)
(-0.0237838 0.033288 0)
(-0.0200211 0.0335879 0)
(-0.0170599 0.0315905 0)
(-0.0124027 0.02243 0)
(-0.0171185 0.0116766 0)
(-0.0220641 0.004961 0)
(-0.0251344 0.00195789 0)
(-0.0275137 -0.00249657 0)
(-0.0298383 -0.0126086 0)
(-0.03217 -0.0265134 0)
(-0.0345362 -0.0347642 0)
(-0.0364913 -0.0359539 0)
(-0.0385311 -0.0303791 0)
(-0.0410063 -0.0253845 0)
(-0.0438186 -0.0213811 0)
(-0.0464476 -0.0164886 0)
(-0.048448 -0.0103191 0)
(-0.0494529 -0.00301655 0)
(-0.0491761 0.00478242 0)
(-0.0474384 0.0123706 0)
(-0.0443981 0.0189263 0)
(-0.0404297 0.0238874 0)
(-0.0358983 0.0271219 0)
(-0.0308395 0.0286854 0)
(-0.0260994 0.0287785 0)
(-0.0220743 0.0275174 0)
(-0.00962366 0.0350634 0)
(-0.014549 0.0190789 0)
(-0.0206221 0.00979369 0)
(-0.0248437 0.0053176 0)
(-0.027878 0.000320787 0)
(-0.030593 -0.00978611 0)
(-0.0346491 -0.0226021 0)
(-0.0398317 -0.0312636 0)
(-0.0447601 -0.032785 0)
(-0.0488175 -0.0278687 0)
(-0.0517186 -0.023239 0)
(-0.0541163 -0.0193993 0)
(-0.0561302 -0.0150261 0)
(-0.057502 -0.0096725 0)
(-0.0578787 -0.00348326 0)
(-0.0570039 0.0030273 0)
(-0.0547562 0.00936936 0)
(-0.05128 0.0149465 0)
(-0.0468625 0.0192908 0)
(-0.0418437 0.0221829 0)
(-0.0363427 0.023609 0)
(-0.0312852 0.0237319 0)
(-0.0269095 0.0227422 0)
(-0.00666139 0.0445392 0)
(-0.0119329 0.0266014 0)
(-0.0189697 0.0156207 0)
(-0.0242791 0.00952468 0)
(-0.0278395 0.00322078 0)
(-0.0309472 -0.00628254 0)
(-0.0354802 -0.0170728 0)
(-0.0418084 -0.0250609 0)
(-0.0484018 -0.0271943 0)
(-0.0534286 -0.0241584 0)
(-0.056574 -0.0206976 0)
(-0.0587784 -0.0174008 0)
(-0.0604729 -0.0136402 0)
(-0.0614256 -0.00912898 0)
(-0.0614176 -0.00405319 0)
(-0.060257 0.00121538 0)
(-0.0578857 0.00632339 0)
(-0.0544094 0.010858 0)
(-0.0500496 0.0144492 0)
(-0.0451041 0.0168821 0)
(-0.0396622 0.0181053 0)
(-0.0347266 0.0182372 0)
(-0.0303985 0.0173196 0)
(-0.0051667 0.0518729 0)
(-0.0101819 0.0340354 0)
(-0.0171454 0.0221817 0)
(-0.0226832 0.0143223 0)
(-0.026708 0.00665622 0)
(-0.0304244 -0.00236152 0)
(-0.0352678 -0.0114154 0)
(-0.0414427 -0.0182282 0)
(-0.0478703 -0.0209194 0)
(-0.0529735 -0.0200411 0)
(-0.0564056 -0.0179299 0)
(-0.0588027 -0.0154508 0)
(-0.0604036 -0.0124057 0)
(-0.0611952 -0.00877404 0)
(-0.0610363 -0.00474578 0)
(-0.0598389 -0.000587994 0)
(-0.0575915 0.00343666 0)
(-0.0543728 0.00702411 0)
(-0.0503609 0.00989341 0)
(-0.0457947 0.0118574 0)
(-0.0407593 0.0128501 0)
(-0.036196 0.0129433 0)
(-0.0321793 0.0119708 0)
(-0.00438436 0.0581423 0)
(-0.00881588 0.0406902 0)
(-0.0148207 0.0284647 0)
(-0.0199299 0.0191703 0)
(-0.0241709 0.0106344 0)
(-0.0283024 0.00202886 0)
(-0.033161 -0.00598665 0)
(-0.0388376 -0.0120566 0)
(-0.0445697 -0.015253 0)
(-0.04938 -0.0158033 0)
(-0.0529187 -0.0149944 0)
(-0.0554047 -0.0134065 0)
(-0.0570372 -0.0112068 0)
(-0.0578151 -0.0084762 0)
(-0.0576844 -0.00541803 0)
(-0.0566231 -0.00223964 0)
(-0.0546487 0.000845852 0)
(-0.0518306 0.00360573 0)
(-0.0483144 0.00582537 0)
(-0.0443066 0.00734876 0)
(-0.0398249 0.00810578 0)
(-0.0358306 0.00811873 0)
(-0.0323438 0.00705115 0)
(-0.0032679 0.0634075 0)
(-0.00696374 0.0462421 0)
(-0.0118887 0.0337724 0)
(-0.0164009 0.0237585 0)
(-0.0205492 0.0148334 0)
(-0.0247241 0.00651183 0)
(-0.0293575 -0.000874307 0)
(-0.0344418 -0.00660961 0)
(-0.0394853 -0.0101804 0)
(-0.0438596 -0.0117621 0)
(-0.0472715 -0.0119798 0)
(-0.0497706 -0.0113118 0)
(-0.0514301 -0.0099734 0)
(-0.0522614 -0.00811818 0)
(-0.0522546 -0.00594373 0)
(-0.0514181 -0.00363127 0)
(-0.0497878 -0.00136011 0)
(-0.0474331 0.000686001 0)
(-0.0444735 0.00233666 0)
(-0.0410747 0.00346051 0)
(-0.0372555 0.00398696 0)
(-0.033886 0.00391165 0)
(-0.0310128 0.00274266 0)
(-0.00185644 0.0672178 0)
(-0.00471921 0.0505735 0)
(-0.00859917 0.0381309 0)
(-0.01243 0.0278979 0)
(-0.0162362 0.0188936 0)
(-0.020169 0.0108011 0)
(-0.024407 0.00377796 0)
(-0.0288963 -0.00181397 0)
(-0.0332958 -0.00571369 0)
(-0.0372023 -0.00800972 0)
(-0.040385 -0.0090738 0)
(-0.0427993 -0.00923087 0)
(-0.0444562 -0.00869643 0)
(-0.0453569 -0.00764754 0)
(-0.0455054 -0.00626495 0)
(-0.0449249 -0.00471271 0)
(-0.0436577 -0.00314416 0)
(-0.0417696 -0.00171046 0)
(-0.0393648 -0.00055066 0)
(-0.0365911 0.000221859 0)
(-0.0334032 0.000541509 0)
(-0.0307034 0.000371187 0)
(-0.0284822 -0.000873405 0)
(-0.000434068 0.069343 0)
(-0.00242105 0.0536855 0)
(-0.0052943 0.0415856 0)
(-0.00838896 0.0314591 0)
(-0.0116809 0.0225676 0)
(-0.0151789 0.0146894 0)
(-0.0189132 0.00789242 0)
(-0.0227962 0.00235846 0)
(-0.0266011 -0.00179859 0)
(-0.0300404 -0.00463417 0)
(-0.0329287 -0.00636403 0)
(-0.0351922 -0.00722187 0)
(-0.0368053 -0.00739913 0)
(-0.0377576 -0.00706332 0)
(-0.0380546 -0.00637617 0)
(-0.0377214 -0.00548242 0)
(-0.0367994 -0.004516 0)
(-0.0353486 -0.00360392 0)
(-0.0334594 -0.00286355 0)
(-0.0312467 -0.00239324 0)
(-0.0286881 -0.00225982 0)
(-0.026582 -0.0025067 0)
(-0.0249561 -0.00381409 0)
(0.00071628 0.069844 0)
(-0.000402042 0.0556522 0)
(-0.00230883 0.0441509 0)
(-0.00462918 0.0343485 0)
(-0.00729464 0.0257004 0)
(-0.0102323 0.0180517 0)
(-0.0133916 0.0114295 0)
(-0.0166681 0.00592249 0)
(-0.0198886 0.00157988 0)
(-0.0228598 -0.00164996 0)
(-0.0254183 -0.00390017 0)
(-0.0274806 -0.0053359 0)
(-0.0290059 -0.00611708 0)
(-0.0299749 -0.00639238 0)
(-0.0303887 -0.00630113 0)
(-0.030268 -0.00596983 0)
(-0.0296491 -0.00551458 0)
(-0.0285831 -0.00504396 0)
(-0.027146 -0.00465898 0)
(-0.0254477 -0.00444752 0)
(-0.0234068 -0.00447275 0)
(-0.0218599 -0.00479104 0)
(-0.02079 -0.00613952 0)
(0.00143798 0.0691087 0)
(0.00111584 0.0565572 0)
(0.000118612 0.0458404 0)
(-0.0014131 0.0365084 0)
(-0.00338499 0.0281957 0)
(-0.00568554 0.0208076 0)
(-0.0082238 0.0143579 0)
(-0.010889 0.00889164 0)
(-0.0135399 0.0044264 0)
(-0.0160278 0.000921131 0)
(-0.0182294 -0.00172018 0)
(-0.0200517 -0.00361612 0)
(-0.0214468 -0.0048925 0)
(-0.0223899 -0.00567516 0)
(-0.0228757 -0.00608253 0)
(-0.0229182 -0.00622305 0)
(-0.0225461 -0.00619639 0)
(-0.0218014 -0.00609604 0)
(-0.0207474 -0.00600957 0)
(-0.0194655 -0.0060181 0)
(-0.0179097 -0.00618145 0)
(-0.0167996 -0.00655673 0)
(-0.0161671 -0.0079427 0)
(0.00173039 0.0675985 0)
(0.00209388 0.0565785 0)
(0.00189226 0.0466825 0)
(0.00112522 0.037905 0)
(-0.000127574 0.0300021 0)
(-0.00175411 0.0229134 0)
(-0.0036486 0.0166584 0)
(-0.00570157 0.0112676 0)
(-0.0077918 0.00674616 0)
(-0.00979787 0.00306057 0)
(-0.0116164 0.000141857 0)
(-0.0131688 -0.00210097 0)
(-0.0143954 -0.0037677 0)
(-0.0152692 -0.00495825 0)
(-0.0157788 -0.00577162 0)
(-0.0159305 -0.00629916 0)
(-0.0157449 -0.00662554 0)
(-0.0152533 -0.00683086 0)
(-0.0145071 -0.00699244 0)
(-0.0135865 -0.00718438 0)
(-0.0123867 -0.00746124 0)
(-0.011675 -0.00788915 0)
(-0.0114131 -0.00930602 0)
(0.00169963 0.0657147 0)
(0.00260772 0.0559107 0)
(0.00306427 0.0467778 0)
(0.00299273 0.0385642 0)
(0.00243479 0.0310978 0)
(0.0014802 0.0243465 0)
(0.000226506 0.0183275 0)
(-0.00122531 0.01306 0)
(-0.00276911 0.0085467 0)
(-0.004301 0.00476537 0)
(-0.005731 0.00166419 0)
(-0.00698821 -0.00082398 0)
(-0.00801802 -0.00278091 0)
(-0.00878463 -0.00428653 0)
(-0.00927316 -0.00541968 0)
(-0.00948256 -0.00625589 0)
(-0.00942496 -0.00686609 0)
(-0.00912302 -0.00731859 0)
(-0.00861732 -0.00768174 0)
(-0.00795955 -0.00802213 0)
(-0.00709155 -0.00839371 0)
(-0.00666021 -0.00885938 0)
(-0.00665731 -0.0103141 0)
(0.00149202 0.0637495 0)
(0.00280077 0.05474 0)
(0.00377221 0.0462397 0)
(0.00430131 0.0385551 0)
(0.00437478 0.0315288 0)
(0.00404787 0.0251315 0)
(0.00340099 0.0193762 0)
(0.00252084 0.0142784 0)
(0.00149761 0.00983971 0)
(0.000420526 0.00604148 0)
(-0.000629425 0.00284484 0)
(-0.00158572 0.000197035 0)
(-0.00239904 -0.00195994 0)
(-0.00303064 -0.00369611 0)
(-0.00346175 -0.00507069 0)
(-0.00368514 -0.00614442 0)
(-0.00370539 -0.0069758 0)
(-0.00353589 -0.00762275 0)
(-0.00320599 -0.00814553 0)
(-0.00277071 -0.00860504 0)
(-0.00211444 -0.00905168 0)
(-0.00194797 -0.00955212 0)
(-0.00218002 -0.0110331 0)
(0.00124208 0.0618587 0)
(0.00282471 0.0532215 0)
(0.00418765 0.04519 0)
(0.00521227 0.0379676 0)
(0.00583025 0.0313623 0)
(0.00605863 0.0253261 0)
(0.00595562 0.0198596 0)
(0.00559205 0.0149697 0)
(0.00504441 0.0106552 0)
(0.0043898 0.00690147 0)
(0.00369986 0.0036797 0)
(0.00303569 0.00095104 0)
(0.00244313 -0.00132796 0)
(0.00196033 -0.00321626 0)
(0.0016107 -0.0047606 0)
(0.00140573 -0.00600688 0)
(0.00134753 -0.0070024 0)
(0.00142945 -0.00779613 0)
(0.00163081 -0.00844091 0)
(0.00192286 -0.0089945 0)
(0.00236745 -0.00950653 0)
(0.00237335 -0.010039 0)
(0.00200195 -0.0115092 0)
(0.00104716 0.0600753 0)
(0.00281835 0.0514626 0)
(0.00447526 0.0437413 0)
(0.00589436 0.0369037 0)
(0.00695949 0.0306873 0)
(0.00765306 0.0250083 0)
(0.00801162 0.0198455 0)
(0.00809075 0.0151936 0)
(0.00795483 0.0110463 0)
(0.00767074 0.00738982 0)
(0.00730218 0.00420211 0)
(0.00690524 0.00145427 0)
(0.00652381 -0.000885754 0)
(0.00619307 -0.00286259 0)
(0.00593862 -0.00451703 0)
(0.0057744 -0.00588091 0)
(0.00570704 -0.00699155 0)
(0.00573684 -0.0078901 0)
(0.00584998 -0.00862333 0)
(0.00600937 -0.00924521 0)
(0.00633618 -0.00980191 0)
(0.00620906 -0.0103568 0)
(0.00571653 -0.0118128 0)
(0.000963875 0.0583461 0)
(0.00287977 0.0495209 0)
(0.0047703 0.0419842 0)
(0.00649695 0.0354626 0)
(0.00791205 0.0296025 0)
(0.00897253 0.0242717 0)
(0.00969809 0.0194204 0)
(0.0101324 0.015027 0)
(0.0103302 0.0110775 0)
(0.0103506 0.00755726 0)
(0.0102508 0.00444877 0)
(0.0100825 0.00173124 0)
(0.00988693 -0.000617915 0)
(0.00969622 -0.00263094 0)
(0.00953642 -0.004344 0)
(0.00942197 -0.00577704 0)
(0.00936263 -0.00695931 0)
(0.00936204 -0.00792473 0)
(0.00941156 -0.00871533 0)
(0.00949822 -0.00937879 0)
(0.00968413 -0.00995923 0)
(0.00949903 -0.0105154 0)
(0.00895518 -0.0119792 0)
(0.00101618 0.0565658 0)
(0.00307496 0.0474105 0)
(0.00516778 0.039983 0)
(0.00713384 0.0337325 0)
(0.00880939 0.028206 0)
(0.0101378 0.0232162 0)
(0.0111303 0.0186806 0)
(0.011824 0.0145587 0)
(0.0122683 0.0108271 0)
(0.0125173 0.00746942 0)
(0.0126236 0.00447139 0)
(0.0126347 0.00181916 0)
(0.0125892 -0.000501201 0)
(0.0125159 -0.00251141 0)
(0.0124395 -0.00424249 0)
(0.0123732 -0.00570567 0)
(0.0123277 -0.00692323 0)
(0.0123099 -0.0079239 0)
(0.0123167 -0.00874499 0)
(0.0123237 -0.00943039 0)
(0.0124489 -0.0100209 0)
(0.0121779 -0.0105694 0)
(0.0115576 -0.0120211 0)
(0.00120823 0.0546038 0)
(0.00343456 0.0451113 0)
(0.00572675 0.0377766 0)
(0.00788184 0.0317868 0)
(0.00973778 0.0265902 0)
(0.0112383 0.0219422 0)
(0.0123965 0.0177267 0)
(0.0132505 0.0138838 0)
(0.0138493 0.0103809 0)
(0.0142452 0.00720005 0)
(0.0144888 0.00433038 0)
(0.0146242 0.00176485 0)
(0.0146864 -0.000501897 0)
(0.0147014 -0.00248247 0)
(0.0146897 -0.0042016 0)
(0.0146623 -0.00566454 0)
(0.0146291 -0.00688826 0)
(0.0145972 -0.00789811 0)
(0.0145662 -0.00872771 0)
(0.0145325 -0.00941955 0)
(0.0145545 -0.010008 0)
(0.0142582 -0.0105445 0)
(0.013623 -0.0119581 0)
(0.00153333 0.0523215 0)
(0.0039729 0.0425801 0)
(0.00647646 0.0353836 0)
(0.00878323 0.0296858 0)
(0.0107473 0.0248405 0)
(0.0123278 0.0205479 0)
(0.0135518 0.0166597 0)
(0.0144668 0.0130994 0)
(0.0151271 0.00982767 0)
(0.0155873 0.00682657 0)
(0.0158975 0.00409021 0)
(0.0160997 0.00161947 0)
(0.0162254 -0.000581681 0)
(0.0162963 -0.00251713 0)
(0.0163274 -0.00420438 0)
(0.0163253 -0.00564458 0)
(0.0162969 -0.00685159 0)
(0.0162498 -0.00784882 0)
(0.0161852 -0.00866881 0)
(0.0160886 -0.00935162 0)
(0.0160697 -0.00992813 0)
(0.0157099 -0.0104421 0)
(0.0150444 -0.0118028 0)
(0.00198329 0.0495816 0)
(0.00468813 0.0397602 0)
(0.0074267 0.0328109 0)
(0.00985297 0.0274822 0)
(0.0118554 0.0230384 0)
(0.0134253 0.0191288 0)
(0.014617 0.0155792 0)
(0.015496 0.0123017 0)
(0.0161276 0.00925533 0)
(0.0165718 0.00642593 0)
(0.01688 0.00381532 0)
(0.0170934 0.0014344 0)
(0.0172397 -0.000701696 0)
(0.0173352 -0.00258724 0)
(0.0173874 -0.00423179 0)
(0.0173962 -0.00563372 0)
(0.0173639 -0.00680608 0)
(0.0172952 -0.00777292 0)
(0.0171922 -0.00856762 0)
(0.0170611 -0.00922761 0)
(0.0169515 -0.00978252 0)
(0.0165787 -0.0102702 0)
(0.0159323 -0.011561 0)
(0.00255192 0.0462555 0)
(0.00557601 0.0365905 0)
(0.0085704 0.0300628 0)
(0.0110808 0.0252285 0)
(0.0130488 0.0212654 0)
(0.0145169 0.0177797 0)
(0.0155805 0.0145819 0)
(0.0163315 0.011583 0)
(0.0168502 0.00874771 0)
(0.017204 0.00607109 0)
(0.0174473 0.00356647 0)
(0.017621 0.00125783 0)
(0.0177495 -0.000825961 0)
(0.0178425 -0.00266704 0)
(0.0178975 -0.00426602 0)
(0.0179046 -0.00561966 0)
(0.017859 -0.00674341 0)
(0.0177631 -0.00766542 0)
(0.0176216 -0.00842185 0)
(0.0174286 -0.00905058 0)
(0.0172826 -0.00958022 0)
(0.0168608 -0.0100373 0)
(0.0161902 -0.0112531 0)
(0.00324208 0.0422195 0)
(0.00662248 0.0330119 0)
(0.00988493 0.0271506 0)
(0.0124327 0.0229854 0)
(0.0142849 0.0196077 0)
(0.0155579 0.0165953 0)
(0.0164021 0.0137608 0)
(0.0169418 0.0110289 0)
(0.0172736 0.00838082 0)
(0.0174725 0.00582754 0)
(0.0175963 0.00339794 0)
(0.0176862 0.00113205 0)
(0.0177649 -0.000923967 0)
(0.0178346 -0.00273588 0)
(0.0178796 -0.00429307 0)
(0.0178761 -0.00559215 0)
(0.01781 -0.00665556 0)
(0.0176796 -0.00752039 0)
(0.0174911 -0.0082288 0)
(0.0172593 -0.00882199 0)
(0.0170283 -0.00932337 0)
(0.016601 -0.0097566 0)
(0.015955 -0.0108886 0)
(0.00407071 0.0373565 0)
(0.0078091 0.0289828 0)
(0.0113241 0.0241039 0)
(0.0138451 0.0208286 0)