/*--------------------------------*- C++ -*----------------------------------*\
  =========                 |
  \\      /  F ield         | OpenFOAM: The Open Source CFD Toolbox
   \\    /   O peration     | Website:  https://openfoam.org
    \\  /    A nd           | Version:  13
     \\/     M anipulation  |
\*---------------------------------------------------------------------------*/
FoamFile
{
    format      ascii;
    class       volScalarField;
    location    "0.2";
    object      alpha.mercury;
}
// * * * * * * * * * * * * * * * * * * * * * * * * * * * * * * * * * * * * * //

dimensions      [];

internalField   nonuniform List<scalar> 
2268
(
1
1
1
1
1
1
1
1
1
1
1
1
1
1
1
1
1
1
1
1
1
1
0.981578
1
1
1
1
1
1
1
1
1
1
1
1
1
1
1
1
1
1
1
1
1
1
0.981591
1
1
1
1
1
1
1
1
1
1
1
1
1
1
1
1
0.999997
0.999993
0.999996
1
1
1
0.996656
1
1
1
1
1
1
1
1
1
1
1
1
1
1
1
0.999999
0.999999
0.999958
0.999929
0.999959
0.999987
0.999998
0.999998
1
1
1
1
1
1
1
1
1
1
1
1
1
1
1
0.999999
0.999999
0.99997
0.971542
0.861356
0.669186
0.893697
0.9853
1
1
1
1
1
1
1
1
1
1
1
1
1
1
1
0.999998
0.999887
0.870011
0.426859
0.0896919
0.0209819
0.165413
0.893105
1
1
1
1
1
1
1
1
1
1
1
1
1
0.968311
0.818579
0.740347
0.72887
0.348882
0.0119281
2.85473e-09
3.38142e-09
3.61327e-09
0.89565
1
1
1
1
1
1
1
1
1
1
1
0.969118
0.852118
0.518505
0.159526
0.0748233
0.0840099
0.0676181
0.0076625
1.1228e-07
1.59868e-08
6.7012e-09
0.895886
3.63113e-15
7.24063e-15
1.86727e-14
1.02683e-13
4.65522e-13
1.11573e-12
9.43537e-13
8.85875e-13
5.2366e-13
2.12116e-13
9.68944e-14
4.88892e-14
2.43256e-14
1.10227e-14
4.92411e-15
1.26881e-15
6.12702e-17
1.2257e-18
4.10621e-19
7.7486e-15
8.04195e-14
4.10691e-13
2.01861e-12
1.0003e-11
1.92564e-11
1.72351e-11
8.15879e-12
3.71914e-12
1.74077e-12
8.06992e-13
3.83818e-13
1.77416e-13
4.37763e-14
4.54261e-15
9.67565e-17
1.21784e-18
5.47803e-19
3.32878e-19
8.12079e-15
1.42759e-13
1.06507e-12
9.1732e-12
4.73168e-11
7.2548e-11
6.47367e-11
3.11136e-11
1.52368e-11
8.10896e-12
4.02681e-12
1.41193e-12
2.23556e-13
8.53364e-15
8.00001e-17
3.84921e-19
2.44867e-19
2.87167e-19
2.16561e-19
6.46984e-15
1.0589e-13
7.33707e-12
2.13762e-11
1.23503e-10
1.60609e-10
1.0602e-10
5.64837e-11
2.91016e-11
1.62061e-11
7.78843e-12
2.94206e-12
2.82579e-13
2.27726e-14
4.1952e-17
9.38806e-19
3.2803e-19
1.98754e-19
1.13633e-19
2.86833e-15
9.03959e-15
2.41861e-11
1.21738e-10
2.82553e-10
2.79141e-10
1.79239e-10
8.80804e-11
4.58334e-11
2.32071e-11
1.00186e-11
2.56131e-12
3.43864e-13
5.20649e-15
1.62492e-17
7.14655e-18
1.53058e-18
2.80471e-19
6.70891e-20
8.14169e-16
2.10581e-12
7.4842e-11
3.61508e-10
4.81273e-10
3.93317e-10
2.275e-10
1.13896e-10
5.0804e-11
2.69107e-11
7.7763e-12
1.12665e-12
1.6382e-13
2.28406e-15
5.41849e-17
1.22102e-17
2.58212e-18
3.07604e-19
3.00827e-20
3.14291e-16
7.28438e-11
4.97636e-10
7.57733e-10
6.46892e-10
4.57112e-10
2.69036e-10
1.15069e-10
5.48421e-11
1.63011e-11
3.8764e-12
4.16393e-13
1.43177e-14
1.3816e-16
1.75308e-17
8.46285e-18
2.47445e-18
2.97401e-19
2.2737e-20
8.25863e-11
6.92375e-10
1.20364e-09
9.81729e-10
7.17278e-10
4.83263e-10
2.82709e-10
1.0836e-10
3.00204e-11
8.59644e-12
1.78359e-12
3.42353e-13
6.09507e-15
1.16336e-16
3.5968e-17
1.17817e-17
1.90664e-18
2.73009e-19
9.809e-21
0.998877
0.999946
1
1
0.999293
0.994556
0.979424
0.945028
0.881168
0.777714
0.608092
0.412969
0.214357
0.0247467
4.52921e-09
9.41179e-05
2.88884e-12
0.00130179
0.00335259
0.000283204
1.20395e-08
9.24004e-09
0.183581
0.520613
0.578592
0.603162
0.588784
0.541056
0.460896
0.359052
0.247095
0.137607
0.0344101
1.99583e-12
2.04567e-10
2.26519e-10
5.26311e-24
-1.79568e-15
-2.27605e-14
-1.6675e-14
8.23102e-16
0.000214013
0.000248378
5.25052e-05
2.12494e-08
2.38307e-08
-5.27474e-137
-1.41141e-20
-1.76438e-21
-4.5591e-22
-3.66094e-20
-2.32451e-21
-7.38905e-23
-4.30929e-24
0
0
3.0727e-28
2.56659e-14
-7.5017e-32
-3.14258e-14
-5.09455e-14
-5.32048e-14
-3.41147e-14
3.41269e-12
0.000140565
0.000176112
3.38694e-05
3.19843e-09
7.659e-09
1.26492e-115
-1.42724e-19
-5.20087e-20
-1.44757e-20
-3.56151e-21
-8.11631e-22
-1.7541e-22
-3.63936e-23
-7.30141e-24
-4.80828e-20
-2.29982e-20
-4.3236e-15
-1.41774e-14
-2.49949e-14
-3.1857e-14
-3.24584e-14
-2.71474e-14
-1.72531e-14
1.80457e-06
1.04163e-05
1.36124e-05
3.08573e-06
4.57929e-09
2.86568e-113
1.3719e-130
-1.34153e-126
0
0
1.21626e-118
-2.33724e-118
6.67918e-96
4.24779e-94
1.5768e-93
2.14066e-90
1.29575e-91
1.67903e-106
8.01719e-98
8.29326e-101
3.8058e-108
4.10089e-91
2.23172e-78
2.25886e-78
-5.16266e-25
5.4084e-07
5.08446e-07
6.24731e-08
2.5549e-111
2.33258e-109
4.16909e-109
1.79171e-106
1.10443e-103
4.14498e-99
8.29972e-98
4.51518e-94
2.87491e-92
1.11455e-91
3.89596e-88
2.16968e-87
8.04462e-89
1.04092e-91
1.19741e-92
4.21173e-88
2.19357e-80
3.46026e-75
3.661e-73
8.79586e-73
9.56237e-26
1.96643e-09
1.84014e-09
1.15729e-109
8.49385e-108
6.37107e-108
1.99056e-105
1.11399e-102
4.17211e-97
1.43051e-95
9.57983e-93
1.05265e-89
7.96162e-90
4.36564e-86
3.391e-86
3.60513e-87
5.24225e-89
1.5053e-90
4.71463e-83
1.98899e-77
2.63054e-72
5.30009e-71
3.86453e-68
1.12214e-62
4.07379e-61
3.17911e-70
2.90602e-108
1.65414e-106
7.1231e-106
2.18932e-103
5.19142e-98
3.38002e-95
8.54214e-93
5.0387e-91
6.9304e-88
2.64073e-88
2.19476e-84
1.43516e-84
1.12097e-85
7.15633e-86
2.40191e-85
1.43304e-77
2.12441e-72
1.17476e-70
2.15374e-68
2.53438e-66
1.67138e-60
8.9295e-59
1.76102e-57
4.09e-107
2.00382e-105
4.80734e-104
1.5044e-101
3.74381e-96
1.26909e-93
5.42751e-91
7.62993e-90
1.17641e-86
3.50979e-87
3.55994e-83
1.73865e-83
9.69256e-81
2.01479e-83
2.14884e-80
1.76175e-72
2.58151e-70
1.97914e-69
5.8359e-67
5.30932e-65
4.21807e-59
1.63711e-57
8.581e-56
1.01967e-103
6.01143e-104
5.20121e-101
6.19945e-98
6.95867e-95
3.64643e-92
9.66203e-90
1.06052e-88
1.94112e-85
7.2725e-86
3.20524e-82
3.40303e-81
3.3546e-75
7.50817e-78
9.86909e-76
3.1216e-69
9.70497e-69
2.26278e-66
7.20678e-65
4.5133e-63
3.15801e-58
3.20641e-56
1.03923e-53
3.55583e-102
1.7134e-100
1.3734e-97
1.43264e-94
8.15165e-93
1.3018e-90
9.10235e-88
1.49935e-86
2.35367e-83
3.33866e-81
8.60838e-80
4.64104e-77
8.21032e-73
1.15237e-72
2.94022e-71
3.9828e-67
1.35348e-65
2.67872e-64
4.80173e-62
3.24043e-61
3.43794e-57
5.80262e-54
8.02659e-50
4.74824e-100
4.59855e-99
2.88036e-96
2.48729e-93
1.55128e-91
3.53268e-89
4.18514e-85
8.72361e-84
1.65534e-79
1.00884e-77
2.71718e-76
1.19096e-73
2.03215e-70
2.26807e-68
8.02941e-67
4.92047e-65
1.19478e-63
4.13298e-63
6.68601e-61
5.5739e-60
1.59647e-54
3.66034e-50
1.82101e-47
6.64011e-96
1.51158e-94
8.38229e-92
4.96435e-89
1.78649e-86
7.8982e-84
1.46136e-80
2.3411e-79
9.05797e-77
1.58324e-75
1.11076e-73
1.7227e-71
2.72674e-68
7.09467e-66
1.41272e-63
8.66611e-62
4.39221e-60
2.84798e-59
1.56301e-58
3.83918e-56
1.21727e-50
2.43649e-47
2.98173e-46
4.67335e-93
3.33283e-91
2.28512e-88
4.36767e-86
1.71178e-83
7.62148e-81
9.50965e-79
9.36678e-76
1.46474e-74
6.8217e-74
3.00017e-72
4.34877e-70
3.71869e-67
7.23493e-64
1.02747e-61
6.937e-60
5.11317e-58
1.10918e-56
5.41364e-55
3.64187e-53
5.12982e-49
3.59921e-46
1.04181e-45
1.72609e-91
1.81602e-89
1.23683e-86
6.23233e-85
2.45535e-82
7.50433e-79
4.47949e-77
4.93103e-74
7.9914e-73
9.65568e-72
3.60241e-70
2.74462e-69
2.79774e-65
1.40252e-62
5.2165e-61
4.06346e-59
3.8667e-57
1.48521e-55
2.03222e-53
9.10997e-52
8.61884e-48
3.13807e-45
1.467e-43
6.84457e-90
1.13305e-87
7.98246e-85
2.33422e-82
1.06901e-79
4.26993e-77
1.63901e-75
1.92371e-72
5.76371e-71
5.56457e-70
5.57356e-68
3.31919e-68
4.1062e-63
5.57687e-61
2.90837e-59
1.33883e-57
6.75278e-56
6.86366e-54
3.52476e-51
7.92605e-49
7.32541e-46
6.04295e-44
6.0239e-42
2.8309e-88
8.05422e-86
5.72372e-83
2.17162e-80
8.91425e-78
7.20101e-76
5.18284e-74
3.05321e-71
1.25062e-69
1.02526e-68
1.33428e-66
1.07748e-66
2.32558e-61
4.29433e-59
8.87073e-57
1.34258e-55
4.29717e-55
6.35321e-53
5.94896e-50
4.38405e-47
6.69775e-45
7.19987e-43
2.55193e-40
1.16646e-86
5.95113e-84
3.82223e-81
1.81539e-78
6.60977e-76
1.75084e-73
3.07692e-72
1.37831e-69
3.36971e-67
1.92585e-66
1.09767e-64
2.19868e-62
1.06199e-59
3.32733e-56
1.53281e-55
5.84634e-54
5.20629e-54
5.49709e-51
1.12081e-48
2.26818e-46
2.99542e-44
2.84299e-42
5.33158e-39
4.91024e-85
3.61132e-82
1.85958e-79
8.34239e-77
2.91162e-74
1.04459e-71
1.90945e-69
8.52155e-68
3.47851e-65
7.88476e-63
1.97971e-61
3.07681e-59
4.54926e-57
1.40966e-54
1.13742e-52
4.58208e-51
1.57647e-51
5.78717e-50
3.3264e-48
1.05128e-46
2.8319e-44
6.90705e-43
6.08664e-42
1.61553e-83
1.19964e-80
5.60952e-78
2.48068e-75
1.55108e-72
1.06339e-69
3.23271e-68
5.95852e-66
2.0328e-63
4.41065e-61
6.66855e-59
7.42096e-57
6.61347e-55
4.78464e-53
2.66482e-51
9.56528e-50
2.18386e-48
3.58285e-47
5.50501e-46
4.26574e-45
1.63783e-43
3.55257e-41
1.4449e-39
3.38187e-82
2.63189e-79
1.46116e-76
1.325e-73
1.54174e-70
1.2014e-67
5.6649e-65
1.65688e-62
3.20053e-60
4.33521e-58
4.40312e-56
3.52095e-54
2.26717e-52
1.15277e-50
4.40832e-49
1.28341e-47
3.30141e-46
7.95711e-45
1.32651e-43
1.20914e-42
5.67979e-41
4.18605e-39
1.15843e-37
9.04356e-80
9.20082e-77
8.69201e-74
7.95931e-71
5.13735e-68
2.1455e-65
5.94653e-63
1.14127e-60
1.57049e-58
1.61471e-56
1.29349e-54
8.22327e-53
4.14712e-51
1.65533e-49
5.52465e-48
1.77329e-46
5.61712e-45
1.41915e-43
2.4931e-42
4.21687e-41
9.05295e-40
2.2459e-38
4.99769e-37
2.19936e-78
2.9458e-75
2.52143e-72
1.51023e-69
6.21556e-67
1.77895e-64
3.65125e-62
5.55576e-60
6.45321e-58
5.83561e-56
4.1515e-54
2.33514e-52
1.04086e-50
3.8122e-49
1.29339e-47
4.47336e-46
1.42385e-44
3.54583e-43
6.12544e-42
7.38097e-41
1.1067e-39
1.98724e-38
2.16228e-37
7.50344e-78
9.71037e-75
6.69723e-72
3.07636e-69
1.00335e-66
2.38797e-64
4.22853e-62
5.66145e-60
5.80787e-58
4.62187e-56
2.90566e-54
1.47362e-52
6.08678e-51
2.14115e-49
7.21126e-48
2.31475e-46
6.00006e-45
1.12429e-43
1.61436e-42
2.31701e-41
3.02441e-40
3.39263e-39
5.07601e-38
1.80024e-78
2.90978e-75
2.16937e-72
9.81759e-70
3.01027e-67
6.6432e-65
1.09776e-62
1.39735e-60
1.36244e-58
9.97458e-57
5.87745e-55
3.2314e-53
1.63507e-51
6.71666e-50
2.15422e-48
5.42364e-47
1.11877e-45
2.09241e-44
3.24616e-43
3.58657e-42
4.88977e-41
8.3e-40
7.45441e-39
1.23405e-79
1.66613e-76
1.09878e-73
4.61121e-71
1.3618e-68
2.99442e-66
5.09376e-64
6.87046e-62
7.44273e-60
6.52755e-58
4.66737e-56
2.72545e-54
1.30194e-52
5.17944e-51
1.76436e-49
5.19335e-48
1.29132e-46
2.58441e-45
4.08191e-44
5.63619e-43
7.48322e-42
8.58298e-41
8.38913e-40
1.13962e-81
2.3204e-78
1.79469e-75
8.8624e-73
3.07712e-70
7.86083e-68
1.51766e-65
2.25785e-63
2.63174e-61
2.4424e-59
1.83468e-57
1.13227e-55
5.78812e-54
2.44824e-52
8.41046e-51
2.26443e-49
4.89479e-48
9.61174e-47
1.71852e-45
1.96386e-44
4.44838e-43
5.94484e-42
6.17012e-41
8.05762e-84
1.61813e-80
1.54074e-77
9.00524e-75
3.5914e-72
1.03977e-69
2.27178e-67
3.83529e-65
5.07665e-63
5.32407e-61
4.46565e-59
3.02233e-57
1.6621e-55
7.42401e-54
2.66093e-52
7.54256e-51
1.70203e-49
3.15117e-48
4.8691e-47
8.5957e-46
2.04099e-44
2.87641e-43
3.36861e-42
3.19109e-87
9.72837e-83
1.05098e-79
7.02498e-77
3.17691e-74
1.02242e-71
2.4265e-69
4.36418e-67
6.07997e-65
6.68041e-63
5.79846e-61
4.13766e-59
2.40966e-57
1.14603e-55
4.38853e-54
1.3338e-52
3.19119e-51
7.27478e-50
1.50832e-48
2.55743e-47
4.41531e-46
8.86128e-45
1.05278e-43
1.57921e-88
3.88213e-85
4.39058e-82
2.99578e-79
1.37432e-76
4.50651e-74
1.0987e-71
2.04822e-69
2.94977e-67
3.43486e-65
3.3027e-63
2.59856e-61
1.70801e-59
9.29849e-58
4.08576e-56
1.41995e-54
3.95715e-53
9.35848e-52
1.94777e-50
5.02747e-49
1.56418e-47
2.68954e-46
3.93988e-45
2.54801e-91
8.26241e-88
9.88254e-85
7.21306e-82
3.57666e-79
1.28111e-76
3.45675e-74
7.16047e-72
1.20223e-69
1.60638e-67
1.7462e-65
1.55842e-63
1.15168e-61
7.10694e-60
3.58619e-58
1.42543e-56
4.82539e-55
1.62133e-53
4.98138e-52
1.23978e-50
2.57318e-49
4.6e-48
8.22683e-47
3.24808e-94
1.06879e-90
1.46577e-87
1.15377e-84
6.03624e-82
2.25191e-79
6.34338e-77
1.38138e-74
2.3466e-72
3.28866e-70
3.96492e-68
4.16447e-66
3.7469e-64
2.81818e-62
1.71566e-60
8.21332e-59
3.16693e-57
1.07643e-55
3.62573e-54
1.24442e-52
3.77773e-51
9.33338e-50
1.99736e-48
1.85302e-97
5.85039e-94
8.37239e-91
7.3529e-88
4.39451e-85
1.88887e-82
6.14685e-80
1.60532e-77
3.468e-75
6.21837e-73
9.34149e-71
1.15798e-68
1.15988e-66
9.38449e-65
6.24735e-63
3.58026e-61
1.8476e-59
8.664e-58
3.62213e-56
1.33293e-54
4.22273e-53
8.07059e-52
1.76141e-50
6.27738e-101
2.16379e-97
3.14482e-94
2.75194e-91
1.77176e-88
9.18425e-86
3.78559e-83
1.20469e-80
2.97621e-78
5.9306e-76
9.99973e-74
1.46752e-71
1.86098e-69
1.98234e-67
1.73862e-65
1.26445e-63
7.87694e-62
4.35842e-60
2.17637e-58
9.7666e-57
3.91529e-55
1.40452e-53
4.53855e-52
7.78714e-105
3.49402e-101
6.5114e-98
7.40053e-95
6.04539e-92
3.80432e-89
1.87857e-86
7.3274e-84
2.28341e-81
5.7727e-79
1.20194e-76
2.08805e-74
3.05896e-72
3.80945e-70
4.03528e-68
3.6007e-66
2.69406e-64
1.73455e-62
1.01428e-60
5.56648e-59
2.69981e-57
7.37291e-56
2.29037e-54
7.96703e-109
4.04551e-105
8.73099e-102
1.18333e-98
1.15533e-95
8.50949e-93
4.76051e-90
2.02303e-87
6.64653e-85
1.80011e-82
4.45642e-80
1.05639e-77
2.26019e-75
4.06278e-73
5.97724e-71
7.24131e-69
7.34834e-67
6.35809e-65
4.66282e-63
2.86647e-61
1.59276e-59
8.80274e-58
4.53962e-56
2.78057e-113
1.66993e-109
4.1695e-106
6.90603e-103
8.77217e-100
8.62982e-97
6.49808e-94
3.8257e-91
1.83668e-88
7.4316e-86
2.56009e-83
7.33827e-81
1.70157e-78
3.16436e-76
4.84699e-74
6.67937e-72
8.86548e-70
1.06281e-67
1.07195e-65
9.36458e-64
7.03568e-62
2.79015e-60
1.76795e-58
7.30798e-118
4.26452e-114
1.17446e-110
2.30826e-107
3.71003e-104
4.88055e-101
5.00847e-98
3.86199e-95
2.25239e-92
1.06851e-89
4.56564e-87
1.81206e-84
6.34232e-82
1.86597e-79
4.56126e-77
9.33322e-75
1.61537e-72
2.38461e-70
2.92998e-68
2.96193e-66
2.72007e-64
2.46381e-62
1.52233e-60
6.91122e-123
3.66484e-119
1.21689e-115
3.11069e-112
6.55598e-109
1.15327e-105
1.67003e-102
1.95311e-99
1.82288e-96
1.35726e-93
8.15546e-91
4.03849e-88
1.68932e-85
6.09195e-83
1.9121e-80
5.21861e-78
1.23127e-75
2.49893e-73
4.35691e-71
6.21185e-69
7.25118e-67
4.52627e-65
9.35225e-63
1.29769e-128
4.88159e-125
1.61845e-121
4.9758e-118
1.49639e-114
4.20249e-111
9.99273e-108
1.89308e-104
2.80891e-101
3.26708e-98
3.00362e-95
2.22214e-92
1.3616e-89
7.14108e-87
3.28219e-84
1.32903e-81
4.69919e-79
1.43344e-76
3.57137e-74
7.20632e-72
1.3316e-69
2.35167e-67
3.57011e-65
9.53288e-136
2.92085e-132
1.16018e-128
5.49912e-125
2.69134e-121
1.20983e-117
4.41449e-114
1.24865e-110
2.93727e-107
6.14203e-104
1.10439e-100
1.60732e-97
1.86296e-94
1.75901e-91
1.40335e-88
9.73885e-86
5.93624e-83
2.83008e-80
1.07115e-77
4.16565e-75
1.58857e-72
2.46836e-70
1.04306e-67
3.11965e-147
5.45478e-144
2.89806e-140
2.79414e-136
3.50516e-132
4.46134e-128
5.01737e-124
4.65035e-120
3.36089e-116
1.90552e-112
9.05841e-109
3.76712e-105
1.34076e-101
3.95388e-98
9.64304e-95
1.98774e-91
3.39072e-88
4.82437e-85
6.25796e-82
7.50077e-79
7.37548e-76
4.51309e-73
2.16161e-70
0.0364984
5.7502e-09
6.35992e-09
7.53886e-09
0.000746249
3.44124e-05
7.51049e-09
6.93925e-09
5.45097e-09
4.66633e-09
4.35762e-09
3.6627e-09
2.56876e-09
2.99182e-09
3.24146e-09
2.82686e-09
4.84304e-09
1.58826e-09
2.29017e-09
1.62784e-09
5.78175e-10
2.46938e-10
9.56843e-11
2.56872e-11
3.32696e-69
3.17144e-70
3.3312e-69
3.36863e-68
6.66398e-54
8.97711e-54
2.17309e-51
6.87717e-50
6.67429e-53
1.53313e-52
7.85597e-50
7.23474e-49
2.96478e-51
2.02432e-51
1.66071e-48
6.12897e-48
1.24914e-49
1.59667e-47
1.79886e-44
1.30231e-43
3.31022e-47
5.10558e-45
3.39594e-42
7.63639e-41
1.24983e-45
1.14486e-43
4.38375e-41
1.89799e-39
6.79964e-44
2.27921e-41
3.95291e-39
4.86803e-38
7.58844e-43
1.50149e-39
5.6404e-38
2.81623e-36
1.00241e-40
3.76268e-38
2.2082e-36
1.33971e-34
2.25723e-38
6.21674e-37
5.33347e-35
1.12066e-33
2.16125e-37
6.23244e-36
8.83081e-35
3.83214e-34
3.20467e-41
7.89224e-40
5.37667e-39
3.30546e-39
8.69419e-38
1.25725e-36
8.02065e-36
2.30878e-35
3.48667e-36
3.64215e-35
2.70778e-34
1.24287e-33
5.81351e-36
3.16069e-35
1.45445e-34
3.19944e-34
2.44834e-36
1.04897e-35
3.91305e-35
1.45605e-34
4.23505e-37
1.85347e-36
7.16363e-36
1.07786e-35
6.64739e-38
3.48261e-37
1.19581e-36
4.27346e-36
7.87574e-39
3.47852e-38
1.21223e-37
3.87935e-37
5.93522e-40
2.7883e-39
1.16963e-38
3.94122e-38
3.46663e-41
1.75627e-40
8.42362e-40
3.81236e-39
1.36396e-42
8.61325e-42
4.55545e-41
2.2506e-40
5.30674e-44
3.48723e-43
2.21981e-42
1.36172e-41
1.58217e-45
1.2305e-44
9.2338e-44
6.64086e-43
3.95126e-47
3.67798e-46
3.23681e-45
2.65878e-44
4.25748e-49
9.34319e-48
9.3006e-47
8.82592e-46
1.33142e-50
1.77378e-49
2.20262e-48
2.42751e-47
9.12452e-53
3.00982e-51
4.35343e-50
5.61533e-49
2.03193e-54
3.9744e-53
7.222e-52
1.09729e-50
1.32846e-56
4.59121e-55
1.02087e-53
1.85585e-52
1.44494e-58
4.4057e-57
1.22522e-55
2.71331e-54
8.9618e-61
3.59631e-59
1.2628e-57
3.46802e-56
4.57319e-63
2.50028e-61
1.13586e-59
3.94893e-58
1.96211e-65
1.55273e-63
9.32493e-62
4.15132e-60
8.19426e-68
9.70497e-66
7.65466e-64
4.30921e-62
3.87582e-09
2.07761e-09
1.68772e-09
1.04337e-09
7.11777e-10
4.77646e-10
2.73404e-10
6.5206e-11
1.23945e-11
4.13211e-12
1.14302e-12
6.54767e-14
5.77508e-16
1.15785e-17
1.06785e-17
4.35189e-18
8.05946e-19
8.84005e-20
3.89133e-21
4.51397e-09
2.26801e-09
1.4938e-09
9.42695e-10
5.84657e-10
3.53041e-10
1.2739e-10
1.87632e-11
6.39801e-12
1.24144e-12
1.22711e-13
3.91994e-15
5.31975e-17
1.01341e-17
3.57344e-18
9.30098e-19
2.0815e-19
2.92313e-20
5.23521e-22
2.39203e-09
1.51693e-09
9.11577e-10
5.31382e-10
3.05867e-10
1.3367e-10
2.31597e-11
4.45747e-12
5.4556e-13
6.39971e-14
4.50524e-15
1.40847e-16
2.69161e-17
8.2075e-18
9.94309e-19
1.79312e-19
5.55422e-20
3.29313e-21
1.45659e-22
1.43786e-09
6.8412e-10
3.38382e-10
1.72527e-10
6.91596e-11
1.22825e-11
2.63158e-12
3.19454e-13
5.26055e-14
9.48553e-15
6.64252e-16
8.12293e-17
2.4023e-17
2.85545e-18
2.486e-19
4.1144e-20
1.08788e-20
8.07975e-22
8.51264e-24
5.301e-10
1.45586e-10
3.72922e-11
3.96409e-12
1.69723e-13
3.61415e-14
4.78787e-15
4.89777e-16
2.98089e-17
4.60409e-19
3.51671e-20
3.74343e-18
3.75083e-18
6.0019e-19
4.37221e-20
1.03288e-20
3.39228e-21
8.20701e-23
2.47947e-24
1.60495e-12
-9.0389e-30
9.99428e-47
-1.10526e-32
1.62667e-50
3.47466e-39
7.2809e-42
3.47466e-39
1.73648e-34
1.50311e-23
2.96968e-21
4.76008e-19
7.01065e-19
1.05776e-19
1.02055e-20
2.4377e-21
6.89994e-22
2.08433e-23
1.52452e-25
1.08053e-65
0
1.57941e-41
1.9702e-37
1.14607e-33
2.91221e-31
1.2748e-29
5.98071e-28
6.47923e-26
1.83083e-23
1.83215e-21
1.1433e-19
1.26944e-19
1.87666e-20
2.51886e-21
7.02109e-22
1.25339e-22
1.72206e-24
3.57554e-26
2.46133e-47
1.72943e-47
2.06984e-41
4.95928e-37
8.85822e-33
2.04262e-30
8.18493e-29
2.77983e-27
1.85341e-25
1.98317e-23
1.10974e-21
2.26623e-20
2.13238e-20
3.40692e-21
6.11564e-22
1.68287e-22
1.87711e-23
3.57547e-25
1.8525e-27
5.72648e-46
7.25048e-46
3.5708e-41
2.50082e-36
4.35929e-32
9.46292e-30
3.14988e-28
7.64664e-27
3.83516e-25
2.30812e-23
5.74932e-22
4.05493e-21
3.56455e-21
6.8426e-22
1.43197e-22
3.32035e-23
2.36869e-24
2.30875e-26
3.71755e-28
4.99203e-45
1.24494e-43
1.37086e-40
1.18676e-35
2.20501e-31
4.21193e-29
1.02377e-27
1.80726e-26
7.68827e-25
2.0816e-23
2.12024e-22
7.29717e-22
6.46085e-22
1.47105e-22
3.18043e-23
5.91346e-24
3.27869e-25
4.24528e-27
2.88378e-29
7.79197e-43
1.04166e-39
3.64953e-39
2.15877e-34
1.06855e-30
1.52876e-28
2.41808e-27
4.04816e-26
9.90833e-25
1.30758e-23
6.9794e-23
1.4726e-22
1.26529e-22
3.03893e-23
6.57395e-24
9.23842e-25
4.33233e-26
2.67101e-28
4.54705e-30
1.11036e-39
1.58098e-37
8.16667e-37
5.78287e-33
5.74792e-30
4.17875e-28
3.83638e-27
5.73299e-26
8.07215e-25
5.8088e-24
1.93539e-23
3.05771e-23
2.36367e-23
5.14524e-24
1.10081e-24
1.28659e-25
4.80325e-27
4.80599e-29
3.95528e-31
4.74057e-38
1.93884e-36
6.36591e-35
1.4876e-31
3.56509e-29
6.83469e-28
4.31479e-27
5.04016e-26
4.77275e-25
2.262e-24
5.05672e-24
6.13545e-24
3.68173e-24
6.7075e-25
1.44007e-25
1.98956e-26
4.85054e-28
3.49818e-30
1.0515e-31
8.18311e-37
3.23947e-34
2.48215e-33
2.4044e-30
1.12903e-28
7.26835e-28
3.70566e-27
3.31704e-26
2.20956e-25
7.69349e-25
1.35371e-24
1.33659e-24
5.69893e-25
1.07219e-25
2.22123e-26
3.05575e-27
5.26973e-29
9.23769e-31
2.05464e-32
1.14286e-34
1.94754e-32
3.31771e-31
1.28462e-29
1.45595e-28
6.07694e-28
2.51843e-27
1.69905e-26
8.53632e-26
2.31333e-25
3.4589e-25
2.71717e-25
1.11067e-25
2.35073e-26
4.17489e-27
4.30885e-28
6.38905e-30
1.94293e-31
3.36156e-33
5.11715e-33
1.48803e-31
4.21046e-30
1.64153e-29
1.2966e-28
4.15559e-28
1.36765e-27
7.0021e-27
2.81426e-26
6.35713e-26
8.5572e-26
5.43169e-26
2.20354e-26
4.67835e-27
7.09523e-28
6.45972e-29
7.44569e-31
3.36563e-32
4.63988e-34
2.31905e-32
2.18932e-31
1.16875e-30
1.90745e-29
9.05689e-29
2.33768e-28
6.12614e-28
2.42774e-27
8.163e-27
1.53322e-26
1.77218e-26
1.15358e-26
4.0229e-27
8.20405e-28
1.0992e-28
9.55099e-30
9.50027e-32
4.60609e-33
5.62308e-35
3.05953e-33
2.45918e-32
1.26619e-30
1.3042e-29
4.95523e-29
1.10232e-28
2.36238e-28
7.20419e-28
2.03655e-27
3.38948e-27
3.49245e-27
2.21335e-27
6.81637e-28
1.31914e-28
1.59518e-29
1.27439e-30
1.37771e-32
5.37111e-34
5.94081e-36
1.4937e-34
2.74907e-32
8.52552e-31
6.96993e-30
2.28043e-29
4.493e-29
8.02337e-29
1.87318e-28
4.42231e-28
6.70996e-28
6.7205e-28
3.64817e-28
1.04637e-28
1.90666e-29
2.0942e-30
1.52307e-31
1.71704e-33
5.42497e-35
5.41476e-37
2.31596e-34
3.58651e-32
4.02962e-31
2.97937e-30
8.89813e-30
1.59816e-29
2.43401e-29
4.35177e-29
8.50058e-29
1.19227e-28
1.10928e-28
5.23671e-29
1.41786e-29
2.41951e-30
2.41176e-31
1.60082e-32
1.67986e-34
4.78406e-36
4.25335e-38
4.90265e-33
3.20862e-32
1.35395e-31
1.04868e-30
2.93644e-30
4.95215e-30
6.65686e-30
9.38148e-30
1.42684e-29
1.6839e-29
1.56385e-29
6.58545e-30
1.67492e-30
2.66521e-31
2.40438e-32
1.45441e-33
1.36204e-35
3.67399e-37
2.89165e-39
2.16554e-33
1.04925e-32
4.1466e-32
3.09222e-31
8.23452e-31
1.33471e-30
1.63874e-30
1.88432e-30
2.2968e-30
2.21695e-30
1.93322e-30
7.29457e-31
1.71852e-31
2.53869e-32
2.06919e-33
1.13764e-34
9.70374e-37
2.4704e-38
1.72409e-40
4.58857e-34
2.77215e-33
1.07125e-32
7.7324e-32
1.98038e-31
3.11869e-31
3.63316e-31
3.53159e-31
3.12742e-31
2.97466e-31
2.10608e-31
7.16258e-32
1.53305e-32
2.09176e-33
1.54148e-34
7.69213e-36
6.29334e-38
1.48205e-39
9.15252e-42
1.11747e-34
5.57917e-34
2.28246e-33
1.64593e-32
4.12381e-32
6.36133e-32
7.24202e-32
6.42294e-32
4.3379e-32
3.55791e-32
2.02822e-32
6.2568e-33
1.19443e-33
1.49591e-34
1.00075e-35
4.54204e-37
3.82661e-39
8.21765e-41
4.33063e-43
1.16523e-35
9.59909e-35
3.98276e-34
2.97972e-33
7.46511e-33
1.1395e-32
1.27162e-32
9.41483e-33
6.3168e-33
3.79505e-33
1.74502e-33
4.87489e-34
8.20519e-35
9.35547e-36
5.72975e-37
2.4353e-38
2.2478e-40
4.3936e-42
2.04456e-44
1.807e-36
1.24962e-35
5.67276e-35
4.57032e-34
1.17215e-33
1.79962e-33
2.03239e-33
1.38791e-33
8.52039e-34
3.88519e-34
1.37338e-34
3.49032e-35
5.16526e-36
5.20009e-37
3.0171e-38
6.59221e-40
1.30628e-41
2.32184e-43
1.2112e-45
1.00121e-37
1.41242e-36
6.58273e-36
5.93199e-35
1.62812e-34
2.46396e-34
2.59111e-34
2.00686e-34
8.36271e-35
2.90813e-35
1.02813e-35
1.51954e-36
1.87487e-37
2.70677e-38
8.52794e-40
5.41671e-41
7.57004e-43
1.23624e-44
7.8101e-47
1.57131e-38
1.11008e-37
6.39743e-37
6.5584e-36
1.77153e-35
2.74261e-35
2.40353e-35
1.81592e-35
1.09611e-35
3.43421e-36
7.62368e-37
1.39449e-37
1.62181e-38
8.23873e-40
6.99804e-41
2.64639e-42
4.41739e-44
6.97248e-46
4.51734e-48
9.75454e-40
8.2987e-39
6.34837e-38
4.49769e-37
1.39383e-36
2.52258e-36
3.48079e-36
2.38765e-36
9.16233e-37
2.49441e-37
5.75308e-38
8.86655e-39
9.2842e-40
6.88192e-41
3.6164e-42
1.38979e-43
2.65514e-45
4.16414e-47
2.35171e-49
7.46877e-41
7.35899e-40
5.83117e-39
3.55169e-38
1.36763e-37
2.66069e-37
3.42148e-37
2.27599e-37
8.99304e-38
2.23955e-38
3.46993e-39
5.81867e-40
5.57506e-41
3.87367e-42
2.00463e-43
7.66245e-45
1.59657e-46
2.3856e-48
1.1147e-50
4.21693e-42
4.65797e-41
3.79282e-40
2.42999e-39
1.10459e-38
2.27792e-38
2.84552e-38
1.86332e-38
7.41635e-39
1.74139e-39
2.69031e-40
2.98886e-41
2.64803e-42
1.75705e-43
8.71382e-45
3.15011e-46
8.19678e-48
1.21989e-49
4.85452e-52
1.88584e-43
2.31272e-42
2.076e-41
1.36588e-40
7.68431e-40
1.61872e-39
2.04099e-39
1.34968e-39
5.24019e-40
1.15088e-40
1.80006e-41
1.95521e-42
1.63521e-43
1.04653e-44
4.91324e-46
1.61881e-47
1.93561e-49
5.09285e-51
1.10049e-53
7.18604e-45
1.01422e-43
1.01506e-42
7.05202e-42
4.43911e-41
9.81215e-41
1.25084e-40
8.61958e-41
3.29356e-41
6.66736e-42
9.95435e-43
1.11829e-43
9.03855e-45
5.65103e-46
2.54414e-47
7.93536e-49
1.40753e-50
1.69899e-52
6.45177e-55
2.27219e-46
3.7025e-45
4.20438e-44
3.07127e-43
2.20403e-42
5.27941e-42
6.80317e-42
4.80576e-42
1.82412e-42
3.37388e-43
5.1008e-44
5.35751e-45
4.09945e-46
2.45053e-47
1.03332e-48
3.16469e-50
6.01051e-52
5.96952e-54
1.98808e-56
6.08826e-48
1.14296e-46
1.46941e-45
1.15855e-44
9.63123e-44
2.56244e-43
3.4589e-43
2.33249e-43
8.84003e-44
1.55172e-44
2.49074e-45
2.45594e-46
1.77832e-47
1.00974e-48
3.96634e-50
1.22602e-51
2.03485e-53
2.20626e-55
5.29122e-58
1.38978e-49
3.03601e-48
4.45569e-47
3.89909e-46
3.76434e-45
1.12029e-44
1.64076e-44
1.0091e-44
3.80182e-45
6.77893e-46
1.10898e-46
1.04511e-47
7.25542e-49
3.94906e-50
1.46591e-51
4.34055e-53
5.69565e-55
6.49635e-57
1.20816e-59
2.77455e-51
7.08851e-50
1.19587e-48
1.18309e-47
1.33131e-46
4.41285e-46
7.02569e-46
4.05459e-46
1.50541e-46
2.82583e-47
4.29994e-48
3.89473e-49
2.60568e-50
1.36839e-51
4.87791e-53
1.31671e-54
1.45569e-56
1.54338e-58
2.47497e-61
4.88656e-53
1.33032e-51
2.92904e-50
3.57747e-49
4.28465e-48
1.59089e-47
2.71802e-47
1.55928e-47
5.63518e-48
1.10483e-48
1.47805e-49
1.27141e-50
8.09176e-52
4.05653e-53
1.38783e-54
3.40713e-56
3.50239e-58
3.30488e-60
5.03656e-63
7.6569e-55
2.79651e-53
4.98735e-52
7.22544e-51
9.3207e-50
3.76481e-49
6.17402e-49
3.56308e-49
1.86853e-49
3.97488e-50
4.7693e-51
3.85016e-52
2.28941e-53
1.07288e-54
3.48355e-56
7.84991e-58
7.90026e-60
6.66178e-62
6.25215e-65
1.08815e-56
4.84216e-55
1.31766e-53
2.271e-52
3.39175e-51
1.52834e-50
2.45864e-50
1.45958e-50
5.19121e-51
1.29068e-51
1.45851e-52
1.12802e-53
6.25877e-55
2.71228e-56
8.32385e-58
1.7185e-59
1.64024e-61
9.56279e-64
8.12562e-67
1.43828e-58
7.82906e-57
2.52492e-55
5.06636e-54
8.38851e-53
4.24166e-52
7.06146e-52
4.09202e-52
1.37974e-52
3.75179e-53
3.95167e-54
3.12946e-55
1.64361e-56
6.63003e-58
1.94409e-59
3.69675e-61
3.1124e-63
1.55338e-65
2.8585e-68
1.85342e-60
1.21271e-58
4.59107e-57
1.05993e-55
1.92369e-54
1.08912e-53
2.09518e-53
1.20337e-53
3.89385e-54
9.83113e-55
9.2397e-56
7.87876e-57
3.95617e-58
1.49332e-59
4.22872e-61
7.47288e-63
5.39685e-65
3.63191e-67
2.16401e-70
)
;

boundaryField
{
    leftWall
    {
        type            alphaContactAngle;
        contactAngleProperties 
        {
            air             
            {
                theta0          90;
            }
            water           
            {
                theta0          90;
            }
            oil             
            {
                theta0          90;
            }
        }
        value           nonuniform List<scalar> 
50
(
1
1
1
1
1
1
1
1
0.998877
0.520613
-5.27474e-137
1.26492e-115
2.86568e-113
2.5549e-111
1.15729e-109
2.90602e-108
4.09e-107
1.01967e-103
3.55583e-102
4.74824e-100
6.64011e-96
4.67335e-93
1.72609e-91
6.84457e-90
2.8309e-88
1.16646e-86
4.91024e-85
1.61553e-83
3.38187e-82
9.04356e-80
2.19936e-78
7.50344e-78
1.80024e-78
1.23405e-79
1.13962e-81
8.05762e-84
3.19109e-87
1.57921e-88
2.54801e-91
3.24808e-94
1.85302e-97
6.27738e-101
7.78714e-105
7.96703e-109
2.78057e-113
7.30798e-118
6.91122e-123
1.29769e-128
9.53288e-136
3.11965e-147
)
;
    }
    rightWall
    {
        type            alphaContactAngle;
        contactAngleProperties 
        {
            air             
            {
                theta0          90;
            }
            water           
            {
                theta0          90;
            }
            oil             
            {
                theta0          90;
            }
        }
        value           nonuniform List<scalar> 
50
(
4.10621e-19
3.32878e-19
2.16561e-19
1.13633e-19
6.70891e-20
3.00827e-20
2.2737e-20
9.809e-21
3.89133e-21
5.23521e-22
1.45659e-22
8.51264e-24
2.47947e-24
1.52452e-25
3.57554e-26
1.8525e-27
3.71755e-28
2.88378e-29
4.54705e-30
3.95528e-31
1.0515e-31
2.05464e-32
3.36156e-33
4.63988e-34
5.62308e-35
5.94081e-36
5.41476e-37
4.25335e-38
2.89165e-39
1.72409e-40
9.15252e-42
4.33063e-43
2.04456e-44
1.2112e-45
7.8101e-47
4.51734e-48
2.35171e-49
1.1147e-50
4.85452e-52
1.10049e-53
6.45177e-55
1.98808e-56
5.29122e-58
1.20816e-59
2.47497e-61
5.03656e-63
6.25215e-65
8.12562e-67
2.8585e-68
2.16401e-70
)
;
    }
    lowerWall
    {
        type            alphaContactAngle;
        contactAngleProperties 
        {
            air             
            {
                theta0          90;
            }
            water           
            {
                theta0          90;
            }
            oil             
            {
                theta0          90;
            }
        }
        value           nonuniform List<scalar> 
62
(
1
1
1
1
1
1
1
1
1
1
1
1
1
1
1
1
1
1
1
1
1
1
0.981578
0.981578
0.981591
0.996656
0.999998
0.9853
0.893105
0.89565
0.895886
0.0364984
5.7502e-09
6.35992e-09
7.53886e-09
3.63113e-15
7.7486e-15
8.12079e-15
6.46984e-15
2.86833e-15
8.14169e-16
3.14291e-16
8.25863e-11
3.63113e-15
7.24063e-15
1.86727e-14
1.02683e-13
4.65522e-13
1.11573e-12
9.43537e-13
8.85875e-13
5.2366e-13
2.12116e-13
9.68944e-14
4.88892e-14
2.43256e-14
1.10227e-14
4.92411e-15
1.26881e-15
6.12702e-17
1.2257e-18
4.10621e-19
)
;
    }
    atmosphere
    {
        type            inletOutlet;
        inletValue      uniform 0;
        value           nonuniform List<scalar> 
46
(
0
0
0
0
0
0
0
0
0
0
0
0
0
0
0
0
0
0
0
0
0
0
0
8.19426e-68
9.70497e-66
7.65466e-64
4.30921e-62
1.85342e-60
1.21271e-58
4.59107e-57
1.05993e-55
1.92369e-54
1.08912e-53
2.09518e-53
1.20337e-53
3.89385e-54
9.83113e-55
9.2397e-56
7.87876e-57
3.95617e-58
1.49332e-59
4.22872e-61
7.47288e-63
5.39685e-65
3.63191e-67
2.16401e-70
)
;
    }
    defaultFaces
    {
        type            empty;
    }
}


// ************************************************************************* //
