/*--------------------------------*- C++ -*----------------------------------*\
  =========                 |
  \\      /  F ield         | OpenFOAM: The Open Source CFD Toolbox
   \\    /   O peration     | Website:  https://openfoam.org
    \\  /    A nd           | Version:  13
     \\/     M anipulation  |
\*---------------------------------------------------------------------------*/
FoamFile
{
    format      ascii;
    class       volScalarField;
    location    "0.2";
    object      alpha.oil;
}
// * * * * * * * * * * * * * * * * * * * * * * * * * * * * * * * * * * * * * //

dimensions      [];

internalField   nonuniform List<scalar> 
2268
(
1.14381e-76
2.26378e-73
9.28777e-70
8.15719e-67
1.25026e-64
1.26334e-61
3.15972e-58
4.96054e-56
4.67956e-56
2.59894e-47
-2.70395e-40
-3.90238e-28
8.2218e-14
4.30814e-13
2.15338e-12
1.67486e-11
9.87376e-11
3.56006e-10
5.11151e-10
5.79286e-10
5.9535e-10
5.945e-10
0.0184224
7.2793e-74
5.98148e-71
3.94339e-67
2.93913e-64
1.06694e-62
9.05095e-60
1.97144e-56
2.46897e-54
2.49007e-54
-2.80416e-44
-3.70637e-38
-4.01886e-27
2.0591e-15
7.02448e-14
-4.56854e-15
9.99699e-10
1.1538e-10
1.00379e-09
1.73326e-09
1.91955e-09
1.31661e-09
8.01052e-11
0.0184093
3.19568e-69
6.05794e-67
4.56526e-64
2.91442e-61
3.21792e-59
8.16588e-57
7.70113e-54
1.80149e-52
1.24313e-52
-1.40729e-41
-2.43733e-36
-2.72784e-26
4.51558e-15
3.02195e-13
-5.2533e-13
4.87592e-08
4.88848e-08
9.92553e-09
1.1214e-09
7.99644e-10
7.05384e-10
-1.09011e-11
0.00334425
1.56603e-66
1.30611e-64
5.47289e-62
3.09097e-59
2.19389e-57
3.85881e-55
1.98335e-52
2.84019e-51
1.7498e-51
-2.29902e-39
-1.02716e-34
-1.4759e-25
8.21472e-15
2.96902e-13
-5.29969e-12
7.03439e-07
5.52547e-07
3.49706e-08
-1.73252e-21
1.73825e-12
-5.45356e-13
-3.06791e-13
1.96005e-06
1.39398e-63
7.12923e-62
2.70783e-59
1.32705e-56
3.29973e-55
3.23422e-53
3.56881e-51
2.76916e-50
2.06541e-50
-1.95862e-37
-3.12592e-33
-5.76043e-25
7.96675e-15
1.0642e-14
-1.67168e-11
1.3739e-06
1.16866e-06
2.44908e-08
0.0283589
0.138548
0.33078
0.106303
0.0146999
9.1622e-62
4.41929e-60
1.58634e-57
7.05523e-55
1.0065e-53
5.74939e-52
2.23318e-50
1.09336e-49
1.03099e-49
-1.04264e-35
-7.33845e-32
-1.55985e-24
1.27883e-15
1.10023e-18
-1.49119e-11
-1.04623e-11
0.000112617
0.129989
0.573046
0.910233
0.979006
0.834587
0.106895
2.3755e-60
1.19077e-58
6.1194e-56
1.21774e-53
1.20073e-52
3.70753e-51
6.15023e-50
2.91132e-49
3.91117e-49
-3.84688e-34
-1.38627e-30
-3.04071e-24
-2.31269e-24
5.77548e-11
1.49395e-11
-7.63667e-30
0.0680786
0.613738
0.988072
0.999999
1
1
0.10435
2.35704e-60
1.64291e-59
-6.88468e-58
2.10399e-54
1.27233e-52
3.80133e-51
3.44237e-50
2.95282e-49
1.24697e-49
-1.05316e-32
-2.16978e-29
-4.57728e-24
-1.45113e-24
2.20923e-09
8.79806e-10
-2.88913e-27
0.0937974
0.773495
0.992338
1
1
1
0.104114
3.77493e-08
3.46251e-08
0.0141093
0.412732
0.740128
0.842055
0.920453
0.904881
0.867458
0.837131
0.834893
0.85959
0.983812
1
1
1
0.638133
0.0187683
5.19227e-08
3.7608e-08
3.84007e-08
2.27129e-08
3.15542e-08
0.112384
0.694576
1
1
1
1
1
1
1
1
1
0.77392
0.118156
8.5705e-08
4.08993e-08
3.73825e-08
2.51099e-08
1.67089e-08
2.27141e-08
0.0309976
0.801205
1
1
1
1
1
1
1
1
0.803679
0.162334
1.78795e-07
5.77741e-08
3.20672e-08
3.89742e-08
2.48888e-08
1.6352e-08
1.67087e-08
0.359843
0.956177
1
1
1
1
1
1
1
0.855489
0.190939
1.40354e-07
7.45502e-08
6.35932e-08
2.05374e-08
3.94723e-08
1.69867e-08
1.75099e-08
0.00444477
0.732404
1
1
1
1
1
1
1
1
0.522841
0.0120072
1.3411e-07
9.53699e-08
6.00632e-08
1.7274e-08
3.32738e-08
1.63418e-08
1.61218e-08
0.480732
0.988703
1
1
1
1
1
1
1
0.918466
0.225212
4.41599e-08
7.92908e-08
5.2344e-08
2.52686e-08
7.87289e-09
1.78432e-08
1.31841e-08
0.305823
0.930141
1
1
1
1
1
1
1
1
0.621645
0.0349015
1.45212e-07
1.8124e-07
7.42605e-08
2.38706e-08
6.50915e-09
0.00478338
0.329894
0.931525
1
1
1
1
1
1
1
1
0.955024
0.265048
9.34709e-08
2.50218e-07
2.02868e-07
7.01779e-08
2.78318e-08
4.07805e-09
4.19455e-54
8.28911e-53
1.3124e-50
4.4029e-48
1.84075e-45
2.39334e-43
7.41936e-41
5.60071e-39
6.74414e-39
-2.24222e-31
-2.87324e-28
-5.67421e-24
-1.92044e-28
7.95247e-09
5.47971e-09
1.93404e-25
0.0423881
0.762914
0.996647
0.999717
1
1
0.816419
3.47232e-51
1.63582e-49
4.97757e-47
1.62279e-44
3.78958e-42
4.24666e-40
8.50601e-38
5.78518e-36
7.58697e-35
-7.22676e-30
-6.05591e-27
-7.05882e-24
1.82548e-10
8.40522e-09
8.56196e-09
3.01942e-09
5.62922e-09
0.666201
0.999786
0.999752
0.999947
1
1
6.6293e-50
4.36505e-48
1.62297e-45
5.22524e-43
1.03428e-40
1.11468e-38
1.73609e-36
1.1262e-34
5.71274e-33
-1.74315e-28
-1.00381e-25
-2.01814e-23
1.36813e-10
9.26893e-11
-3.8929e-29
5.40029e-28
2.3117e-09
0.645098
0.999859
0.999824
0.999966
1
1
9.39144e-49
7.49633e-47
2.79241e-44
8.53062e-42
1.99601e-39
1.99688e-37
1.73023e-35
1.05586e-33
5.83322e-32
-3.20629e-27
-1.31951e-24
-1.89595e-22
1.0506e-12
-6.23081e-22
3.72274e-16
-4.85617e-21
0.0887623
0.805286
0.999998
0.99999
0.999986
0.999997
1
1.8664e-47
1.13668e-45
3.93968e-43
1.17854e-40
4.0988e-38
2.9888e-36
2.33455e-34
1.35782e-32
6.91999e-31
-4.62705e-26
-1.42034e-23
-1.82636e-21
4.28628e-13
5.23029e-13
3.46064e-14
1.99469e-20
0.37944
0.975571
1
1
0.999999
0.999999
1
8.44784e-46
1.95315e-44
4.59233e-42
1.41334e-39
4.82533e-37
4.05826e-35
1.7602e-33
9.81506e-32
7.07268e-30
-5.37497e-25
-1.27445e-22
-1.50158e-20
1.38929e-14
5.38841e-15
1.18125e-18
0.0734845
0.781475
1
1
1
1
1
1
3.454e-44
3.851e-43
4.25486e-41
1.28349e-38
4.2385e-36
3.81501e-34
1.2672e-32
6.64102e-31
1.07941e-28
-5.1425e-24
-9.67333e-22
-1.04147e-19
8.82257e-15
2.57675e-15
-1.48884e-19
0.426577
0.982217
1
1
1
1
1
1
8.46659e-43
6.03966e-42
2.88936e-40
7.85899e-38
2.586e-35
3.49795e-33
8.4889e-32
3.89734e-30
1.93529e-27
-4.13118e-23
-6.28521e-21
-6.10084e-19
1.79666e-20
-5.95728e-20
0.111348
0.834279
1
1
1
1
1
1
1
1.15961e-41
6.38332e-41
1.35823e-39
3.18644e-37
1.73114e-34
3.98647e-32
2.28202e-30
1.71798e-29
1.99152e-26
-2.83273e-22
-3.53025e-20
-3.03605e-18
3.67305e-11
4.4307e-20
0.542758
0.997408
1
1
1
1
1
1
1
2.37358e-40
4.88685e-40
1.12992e-38
1.13553e-36
1.69153e-33
6.04553e-31
3.70456e-29
8.22655e-29
3.10758e-25
-1.68203e-21
-1.7289e-19
-1.29533e-17
1.02216e-11
0.205753
0.907569
1
1
1
1
1
1
1
1
5.75977e-39
1.63114e-37
2.08022e-35
1.28364e-33
1.1802e-31
1.22554e-29
9.49272e-28
6.07323e-27
4.68773e-24
-8.76216e-21
-7.44589e-19
-4.78775e-17
1.11262e-05
0.575784
0.999984
1
1
1
1
1
1
1
1
3.12759e-37
3.40767e-36
4.85477e-34
3.30171e-32
2.33748e-30
1.99563e-28
1.99211e-26
4.99862e-25
7.37658e-24
-4.0511e-20
-2.84721e-18
-1.54847e-16
0.0278402
0.713632
0.999444
0.999999
1
1
1
1
0.986961
0.931041
0.804058
1.16594e-34
9.6666e-34
1.59064e-31
1.15945e-29
7.55265e-28
4.1337e-26
2.59529e-24
3.97467e-23
-1.30928e-22
-1.67734e-19
-9.77958e-18
-4.42754e-16
0.0333917
0.430339
0.782208
0.846029
0.847239
0.821073
0.748175
0.605147
0.408694
0.218348
0.0528814
4.66125e-33
4.13006e-32
5.80151e-30
3.59242e-28
2.22811e-26
9.44283e-25
2.67074e-23
5.14195e-22
-1.16256e-21
-6.24463e-19
-3.05892e-17
-1.13508e-15
0.00484189
7.15761e-06
0.0540963
0.0986875
0.101328
0.0808725
0.0334516
3.2199e-16
-6.72301e-12
-2.54638e-27
1.16411e-12
2.69099e-32
3.04443e-31
3.40114e-29
1.58244e-27
9.16467e-26
3.98155e-24
1.15888e-22
1.9708e-21
-5.10265e-21
-2.09633e-18
-8.78443e-17
-2.67669e-15
-5.12588e-14
-1.73658e-10
-4.36296e-09
-2.80957e-09
-1.14286e-09
-3.63898e-10
-7.174e-11
1.58825e-12
1.0438e-11
7.35949e-10
8.64566e-10
1.39084e-31
2.54676e-30
2.10725e-28
1.2117e-26
5.86339e-25
2.04939e-23
5.44274e-22
9.11425e-21
-9.94262e-21
-6.05379e-18
-2.17823e-16
-5.43639e-15
-1.31033e-13
-1.79982e-10
-7.27737e-09
-4.45151e-09
-1.71566e-09
-5.02297e-10
-5.19806e-11
2.09377e-10
2.32261e-10
8.49842e-09
3.09146e-08
6.76782e-31
1.74527e-29
1.20318e-27
5.9602e-26
2.71091e-24
8.38993e-23
2.0572e-21
3.37422e-20
3.09942e-20
-1.3948e-17
-4.37868e-16
-9.16128e-15
-2.40403e-13
-1.83552e-11
-5.36854e-09
-2.62687e-09
-8.23082e-10
-1.58613e-10
1.13198e-10
4.43003e-10
5.66519e-10
4.67291e-08
7.77479e-07
2.58369e-30
1.02105e-28
6.33314e-27
3.16564e-25
1.32413e-23
4.31148e-22
6.8749e-21
1.36426e-19
5.7873e-19
-2.17132e-17
-6.48819e-16
-1.27044e-14
-4.37808e-13
-2.98088e-11
-1.63572e-09
-5.25673e-10
-9.21889e-11
5.93031e-11
2.15057e-10
4.51871e-10
1.67875e-09
1.03546e-07
5.71018e-07
8.29904e-30
5.05156e-28
3.10017e-26
1.52731e-24
5.45935e-23
1.56092e-21
3.30982e-20
4.3209e-19
4.20514e-18
2.02345e-17
-7.91843e-17
-1.86093e-15
-4.97621e-15
9.17194e-14
3.45878e-13
2.35702e-12
2.70219e-11
7.91431e-11
1.72098e-10
2.70809e-10
2.23789e-10
6.36301e-11
4.67032e-11
1.95863e-29
1.6001e-27
9.39018e-26
4.03917e-24
1.30483e-22
3.23359e-21
6.28438e-20
9.79478e-19
1.25106e-17
1.33561e-16
1.20973e-15
9.36829e-15
6.20492e-14
3.46553e-13
1.58098e-12
5.92273e-12
1.73451e-11
4.03859e-11
7.39552e-11
9.31949e-11
9.31693e-11
5.52182e-11
4.2466e-11
2.99083e-29
2.74102e-27
1.50117e-25
5.76386e-24
1.65104e-22
3.64885e-21
6.3737e-20
8.9805e-19
1.03969e-17
1.00475e-16
8.17987e-16
5.60098e-15
3.19976e-14
1.52204e-13
6.04962e-13
1.97735e-12
5.13029e-12
1.03877e-11
1.55195e-11
1.6709e-11
1.34487e-11
1.0948e-11
1.28248e-11
2.26802e-29
2.1034e-27
1.06787e-25
3.69617e-24
9.42816e-23
1.84083e-21
2.81848e-20
3.43745e-19
3.38425e-18
2.72309e-17
1.80593e-16
9.84783e-16
4.35729e-15
1.56266e-14
4.71702e-14
1.19597e-13
2.60007e-13
4.72436e-13
7.16661e-13
9.05186e-13
1.10783e-12
1.40819e-12
2.79435e-12
5.84211e-30
5.45385e-28
2.661e-26
8.73351e-25
2.12693e-23
4.02109e-22
6.0329e-21
7.30827e-20
7.19073e-19
5.695e-18
3.59967e-17
1.85938e-16
8.04629e-16
2.82356e-15
7.99273e-15
1.87514e-14
3.63778e-14
5.81173e-14
8.13242e-14
1.05227e-13
1.445e-13
2.94633e-13
5.59355e-13
4.11933e-31
3.90544e-29
1.90531e-27
6.18678e-26
1.47192e-24
2.68865e-23
3.86538e-22
4.43517e-21
4.1199e-20
3.16994e-19
2.04541e-18
1.08025e-17
4.61175e-17
1.62246e-16
4.75095e-16
1.17839e-15
2.53848e-15
4.96472e-15
8.43866e-15
1.38049e-14
2.58919e-14
4.98201e-14
1.14905e-13
7.68742e-33
7.68237e-31
3.87415e-29
1.28887e-27
3.1366e-26
5.88204e-25
8.75463e-24
1.05248e-22
1.03265e-21
8.32932e-21
5.58599e-20
3.16287e-19
1.50301e-18
5.94703e-18
2.12128e-17
6.14881e-17
1.56735e-16
3.54722e-16
7.47005e-16
1.6185e-15
3.32961e-15
8.42362e-15
1.86358e-14
4.27792e-35
4.70636e-33
2.60752e-31
9.56116e-30
2.58033e-28
5.41084e-27
9.09803e-26
1.25065e-24
1.42211e-23
1.34637e-22
1.06656e-21
7.13743e-21
4.08458e-20
1.99172e-19
8.17205e-19
2.88278e-18
8.88699e-18
2.46601e-17
6.46933e-17
1.65814e-16
4.16265e-16
1.11623e-15
2.67926e-15
1.47067e-37
2.13339e-35
1.36777e-33
5.83348e-32
1.84281e-30
4.55531e-29
9.08628e-28
1.48834e-26
2.02136e-25
2.287e-24
2.15995e-23
1.70463e-22
1.12613e-21
6.25511e-21
2.94958e-20
1.20222e-19
4.34692e-19
1.428e-18
4.4137e-18
1.3147e-17
3.83735e-17
1.1875e-16
3.09902e-16
5.23307e-40
8.00962e-38
6.12655e-36
3.09296e-34
1.14865e-32
3.31467e-31
7.66474e-30
1.4462e-28
2.25099e-27
2.91015e-26
3.14106e-25
2.84124e-24
2.16492e-23
1.39939e-22
7.76321e-22
3.76457e-21
1.63746e-20
6.48238e-20
2.3045e-19
7.30714e-19
2.88038e-18
9.44778e-18
2.95427e-17
8.95036e-43
2.41838e-40
2.19866e-38
1.30849e-36
5.67354e-35
1.89453e-33
5.0297e-32
1.08254e-30
1.91298e-29
2.79937e-28
3.33645e-27
3.42255e-26
2.97538e-25
2.21733e-24
1.4389e-23
8.4625e-23
4.31916e-22
2.07277e-21
9.09503e-21
3.87631e-20
1.38781e-19
6.38955e-19
2.11562e-18
2.47243e-45
5.29927e-43
5.55113e-41
3.77107e-39
1.85875e-37
7.04952e-36
2.12993e-34
5.23995e-33
1.04005e-31
1.76022e-30
2.55466e-29
3.05665e-28
3.10695e-27
2.71428e-26
2.07526e-25
1.42147e-24
8.89409e-24
5.06727e-23
2.52897e-22
1.1194e-21
6.75001e-21
3.14403e-20
1.27922e-19
3.33672e-48
9.95709e-46
1.20435e-43
9.35907e-42
5.2335e-40
2.23686e-38
7.57997e-37
2.04126e-35
4.74721e-34
9.03723e-33
1.45345e-31
1.99222e-30
2.3521e-29
2.42828e-28
2.2358e-27
1.8704e-26
1.42617e-25
9.82385e-25
6.46878e-24
4.29092e-23
2.39127e-22
1.22906e-21
5.70778e-21
4.01311e-51
1.16639e-48
1.61834e-46
1.43642e-44
9.17424e-43
4.3982e-41
1.71664e-39
5.59066e-38
1.47938e-36
3.27965e-35
6.13546e-34
9.77355e-33
1.34493e-31
1.6303e-30
1.778e-29
1.77692e-28
1.64582e-27
1.40512e-26
1.09064e-25
7.93994e-25
5.72639e-24
3.88075e-23
2.30635e-22
2.37393e-54
8.07304e-52
1.28368e-49
1.32998e-47
9.96999e-46
5.75947e-44
2.65981e-42
1.00772e-40
3.20923e-39
8.40898e-38
1.84862e-36
3.59155e-35
5.98809e-34
8.8741e-33
1.19194e-31
1.47366e-30
1.68885e-29
1.78863e-28
1.73805e-27
1.55206e-26
1.28887e-25
9.05781e-25
6.62891e-24
1.15046e-57
4.76313e-55
9.14784e-53
1.11639e-50
9.75941e-49
6.51256e-47
3.46524e-45
1.51594e-43
5.50532e-42
1.66993e-40
4.32722e-39
9.76719e-38
1.96834e-36
3.62469e-35
6.15315e-34
9.55298e-33
1.34335e-31
1.71167e-30
1.98978e-29
2.12948e-28
2.12887e-27
2.0128e-26
1.78705e-25
3.23972e-61
1.65907e-58
3.74138e-56
5.3271e-54
5.46896e-52
4.34424e-50
2.78458e-48
1.47587e-46
6.55266e-45
2.45604e-43
7.84077e-42
2.16332e-40
5.26942e-39
1.16157e-37
2.36842e-36
4.52075e-35
8.06287e-34
1.32592e-32
1.97784e-31
2.64864e-30
3.1917e-29
3.14251e-28
3.37124e-27
8.21738e-65
5.03761e-62
1.33654e-59
2.24619e-57
2.73355e-55
2.57227e-53
1.94054e-51
1.20064e-49
6.20507e-48
2.72935e-46
1.04264e-44
3.52886e-43
1.07543e-41
2.97876e-40
7.51783e-39
1.72987e-37
3.65193e-36
7.16927e-35
1.32075e-33
2.26138e-32
3.50809e-31
4.89837e-30
6.55573e-29
5.44046e-69
3.94371e-66
1.23712e-63
2.51841e-61
3.7732e-59
4.4142e-57
4.17297e-55
3.25506e-53
2.13486e-51
1.20205e-49
5.94532e-48
2.64099e-46
1.0721e-44
4.01481e-43
1.38709e-41
4.37944e-40
1.24183e-38
3.11167e-37
6.93203e-36
1.43725e-34
2.89421e-33
4.71899e-32
8.37837e-31
5.01032e-73
3.80971e-70
1.38635e-67
3.44039e-65
6.43458e-63
9.47666e-61
1.12841e-58
1.11062e-56
9.24651e-55
6.67002e-53
4.25814e-51
2.44013e-49
1.26263e-47
5.89994e-46
2.48743e-44
9.50467e-43
3.33709e-41
1.09416e-39
3.35773e-38
9.46148e-37
2.38051e-35
5.37157e-34
1.06325e-32
1.28903e-77
8.36619e-75
3.49868e-72
1.11372e-69
2.81501e-67
5.72657e-65
9.48069e-63
1.29458e-60
1.48212e-58
1.45097e-56
1.24201e-54
9.50412e-53
6.61752e-51
4.23287e-49
2.49081e-47
1.34344e-45
6.60734e-44
2.95022e-42
1.19288e-40
4.36094e-39
1.42751e-37
3.50279e-36
1.15584e-34
8.13078e-83
3.76473e-80
1.65961e-77
6.63136e-75
2.29882e-72
6.64537e-70
1.58173e-67
3.12015e-65
5.19024e-63
7.44851e-61
9.44147e-59
1.07763e-56
1.12078e-54
1.06812e-52
9.35363e-51
7.53802e-49
5.57963e-47
3.76494e-45
2.28834e-43
1.23274e-41
5.77168e-40
2.38628e-38
9.53507e-37
1.58618e-89
5.1979e-87
2.33008e-84
1.26856e-81
7.03735e-79
3.50221e-76
1.48505e-73
5.32863e-71
1.6383e-68
4.39021e-66
1.03992e-63
2.19564e-61
4.14534e-59
7.00497e-57
1.06263e-54
1.45918e-52
1.83455e-50
2.1174e-48
2.18793e-46
1.92311e-44
1.44899e-42
8.37733e-41
6.85659e-39
2.69339e-100
4.76156e-98
2.60341e-95
2.68976e-92
3.70726e-89
5.21857e-86
6.5278e-83
6.92386e-80
6.20124e-77
4.74257e-74
3.14781e-71
1.84565e-68
9.72288e-66
4.66276e-63
2.04855e-60
8.24346e-58
3.02997e-55
1.01332e-52
3.04265e-50
7.95698e-48
1.75104e-45
3.05673e-43
3.78253e-41
0.963502
1
1
1
0.999254
0.999966
1
1
1
1
1
1
1
1
1
1
1
1
1
1
1
1
1
1
1
1
1
1
1
1
1
1
1
1
1
1
1
1
1
1
1
0.990138
0.893261
0.850691
0.673631
0.501405
0.16919
0.0703004
1.66946e-08
6.06577e-08
1.43145e-08
7.18695e-09
3.19032e-08
3.21126e-08
5.54457e-08
6.73911e-07
4.78875e-07
4.26074e-06
7.25224e-08
2.61471e-05
5.14537e-06
9.01891e-06
4.93539e-06
4.25934e-05
5.9639e-06
8.84825e-06
5.55133e-06
2.87586e-10
7.3605e-11
9.6373e-11
8.77931e-11
2.8289e-10
1.14316e-10
2.31337e-10
2.60115e-10
2.58796e-10
7.95083e-11
8.60799e-11
8.34949e-11
7.56566e-11
1.8195e-11
2.14164e-11
2.30684e-11
2.43533e-11
4.56826e-12
5.4904e-12
6.76237e-12
7.51931e-12
1.00642e-12
1.32869e-12
1.76209e-12
2.35072e-12
2.15839e-13
3.02077e-13
4.48988e-13
5.53523e-13
3.81003e-14
6.37788e-14
9.1997e-14
1.37622e-13
6.16007e-15
1.03172e-14
1.63617e-14
2.4562e-14
8.00309e-16
1.41145e-15
2.47036e-15
4.13445e-15
8.58228e-17
1.64679e-16
3.13178e-16
5.82662e-16
6.89522e-18
1.54015e-17
3.18912e-17
6.56771e-17
5.03511e-19
1.17806e-18
2.7522e-18
6.34455e-18
2.83244e-20
7.35669e-20
1.95027e-19
5.09588e-19
1.29017e-21
3.9472e-21
1.19183e-20
3.47223e-20
3.6095e-23
1.817e-22
6.01264e-22
1.9983e-21
1.47138e-24
6.23217e-24
2.60189e-23
9.88221e-23
2.69705e-26
2.09295e-25
9.76803e-25
4.25952e-24
8.62943e-28
5.27594e-27
3.18207e-26
1.60906e-25
1.16009e-29
1.25967e-28
8.97529e-28
5.34062e-27
2.5471e-31
2.42687e-30
2.19477e-29
1.56348e-28
3.33728e-33
4.17522e-32
4.69728e-31
4.07372e-30
3.70668e-35
6.29457e-34
8.9702e-33
9.61552e-32
3.66056e-37
8.83716e-36
1.60569e-34
2.13361e-33
3.80882e-39
1.31681e-37
2.96045e-36
4.73586e-35
0.993455
1
1
1
1
1
1
1
1
1
1
0.647795
0.0368903
4.5425e-08
8.47607e-08
8.76581e-08
5.75679e-08
2.16281e-08
2.83785e-09
1
1
1
1
1
1
1
1
1
1
0.772327
0.0967099
6.6512e-08
3.87551e-08
5.34236e-08
5.89112e-08
4.27193e-08
1.40577e-08
1.09202e-09
1
1
1
1
1
1
1
1
1
0.857137
0.178366
8.26647e-08
5.84611e-08
3.82311e-08
3.13762e-08
3.79595e-08
2.56756e-08
4.60767e-09
5.87673e-10
1
1
1
1
1
1
1
1
0.910141
0.260162
7.93966e-08
6.52228e-08
3.91655e-08
1.70257e-08
2.15312e-08
2.17471e-08
9.7821e-09
2.42626e-09
1.32735e-10
1
1
1
1
1
1
1
0.933554
0.320914
6.81027e-08
6.29354e-08
3.36339e-08
1.05318e-08
1.06296e-08
1.44138e-08
9.41693e-09
5.44006e-09
6.75617e-10
5.86872e-11
1
1
1
1
1
1
0.930091
0.340514
5.96747e-08
5.76708e-08
2.58965e-08
7.2821e-09
5.84285e-09
7.68941e-09
8.39675e-09
5.01202e-09
2.10072e-09
2.93642e-10
9.07432e-12
1
1
1
1
1
0.901712
0.308967
5.22074e-08
5.32192e-08
2.36475e-08
6.4955e-09
3.48267e-09
3.51447e-09
4.95504e-09
4.53751e-09
2.64898e-09
7.92296e-10
6.25074e-11
3.37767e-12
1
1
1
1
0.85168
0.235536
4.73754e-08
4.77211e-08
1.92714e-08
6.77636e-09
2.96837e-09
1.74602e-09
2.17599e-09
2.81802e-09
2.28842e-09
1.16326e-09
2.41009e-10
2.21962e-11
4.31613e-13
1
1
1
0.78771
0.150325
4.6907e-08
4.26213e-08
1.82683e-08
5.49212e-09
2.60041e-09
1.34942e-09
9.88032e-10
1.24428e-09
1.40566e-09
1.03671e-09
4.49399e-10
7.25179e-11
3.56033e-12
1.37688e-13
1
1
0.73261
0.0892315
4.67871e-08
4.02502e-08
1.75553e-08
4.60996e-09
2.13377e-09
1.19061e-09
7.01958e-10
5.52114e-10
6.35226e-10
6.17087e-10
4.13203e-10
1.60921e-10
2.10775e-11
1.01547e-12
1.8599e-14
0.931733
0.741735
0.0949031
5.83532e-08
4.19e-08
1.17505e-08
3.36039e-09
1.70407e-09
1.04412e-09
6.55471e-10
3.95529e-10
2.92954e-10
2.96176e-10
2.5355e-10
1.50671e-10
4.72923e-11
5.1588e-12
1.41985e-13
4.37051e-15
0.165291
0.0884147
0.00161723
5.93906e-08
5.09702e-08
4.34903e-09
1.357e-09
8.8073e-10
5.86799e-10
3.64662e-10
2.07694e-10
1.35313e-10
1.18965e-10
8.16496e-11
4.20307e-11
1.25488e-11
1.01098e-12
3.36569e-14
6.32274e-16
-1.00686e-23
4.75612e-08
4.18544e-05
3.02578e-05
5.84427e-09
1.27392e-09
7.79359e-10
5.28258e-10
3.51286e-10
2.06034e-10
1.08469e-10
6.00739e-11
4.01574e-11
2.25558e-11
1.01703e-11
3.1669e-12
1.75222e-13
3.78419e-15
1.77811e-16
1.67281e-05
5.72599e-06
1.00979e-08
1.56386e-09
1.55053e-09
7.97446e-10
4.79986e-10
3.11227e-10
2.02224e-10
1.10801e-10
5.50301e-11
2.69592e-11
1.38715e-11
6.89847e-12
2.69277e-12
6.6873e-13
2.76978e-14
1.04068e-15
3.67461e-17
5.69141e-05
1.81038e-05
1.78372e-08
1.46914e-09
8.88201e-10
4.94589e-10
2.8246e-10
1.75922e-10
1.08385e-10
5.60994e-11
2.61239e-11
1.0167e-11
4.74879e-12
2.0535e-12
6.67992e-13
1.28455e-13
4.12234e-15
2.28782e-16
6.31749e-18
5.07629e-05
3.83488e-10
7.21066e-10
8.17962e-10
5.23025e-10
2.91575e-10
1.59209e-10
9.23662e-11
5.38908e-11
2.6726e-11
1.17761e-11
3.7977e-12
1.48109e-12
5.27575e-13
1.4287e-13
2.41758e-14
5.61496e-16
4.24103e-17
9.59472e-19
2.99383e-10
3.82664e-10
5.19574e-10
4.76513e-10
3.01974e-10
1.64025e-10
8.36164e-11
4.54344e-11
2.48478e-11
1.17831e-11
4.32861e-12
1.38567e-12
4.30658e-13
1.23211e-13
2.78183e-14
4.20464e-15
8.90529e-17
6.78209e-18
1.39365e-19
3.08494e-10
2.56443e-10
3.04116e-10
2.57481e-10
1.6212e-10
8.54008e-11
4.13482e-11
2.08416e-11
1.05738e-11
4.75393e-12
1.56807e-12
4.55603e-13
1.18731e-13
2.73693e-14
5.14532e-15
6.77837e-16
1.69533e-17
1.05206e-18
1.99162e-20
2.1553e-10
1.40559e-10
1.61674e-10
1.34249e-10
8.22464e-11
4.16059e-11
1.91982e-11
8.7705e-12
4.12545e-12
1.7241e-12
5.30179e-13
1.34789e-13
3.07279e-14
5.82019e-15
9.17722e-16
1.05227e-16
3.06772e-18
1.62216e-19
2.80529e-21
7.18874e-11
6.92954e-11
7.83349e-11
6.4054e-11
3.88103e-11
1.88486e-11
8.23466e-12
3.3744e-12
1.46457e-12
5.7164e-13
1.57587e-13
3.60394e-14
7.33814e-15
1.17477e-15
1.58243e-16
1.59344e-17
5.16155e-19
2.45272e-20
3.83059e-22
2.59475e-11
3.09446e-11
3.44869e-11
2.79975e-11
1.67808e-11
7.83153e-12
3.22109e-12
1.19104e-12
4.68411e-13
1.4891e-13
4.18722e-14
8.66168e-15
1.59429e-15
2.2206e-16
2.61632e-17
2.3428e-18
8.31705e-20
3.51863e-21
4.93866e-23
9.22018e-12
1.21431e-11
1.36455e-11
1.1119e-11
6.58926e-12
2.96041e-12
1.14212e-12
3.84979e-13
1.3824e-13
3.8399e-14
9.8241e-15
1.86321e-15
3.12538e-16
3.8793e-17
4.08516e-18
3.29521e-19
1.25749e-20
4.66821e-22
5.9018e-24
2.89667e-12
4.21893e-12
4.79116e-12
3.94981e-12
2.32758e-12
1.01228e-12
3.66227e-13
1.13076e-13
3.22504e-14
9.38271e-15
2.03826e-15
3.59273e-16
5.51411e-17
6.20424e-18
5.93268e-19
4.35235e-20
1.72499e-21
5.63587e-23
6.14258e-25
8.47626e-13
1.26028e-12
1.47849e-12
1.24054e-12
7.3209e-13
3.10822e-13
1.05969e-13
3.0769e-14
7.66018e-15
2.00257e-15
3.80795e-16
6.25036e-17
8.76975e-18
9.04339e-19
7.92704e-20
5.31906e-21
2.10897e-22
6.09784e-24
5.3993e-26
1.88139e-13
3.29593e-13
3.98201e-13
3.42206e-13
2.03329e-13
8.50014e-14
2.75256e-14
6.61268e-15
1.73623e-15
3.81054e-16
6.50891e-17
9.88825e-18
1.26276e-18
1.20126e-19
9.69042e-21
6.11281e-22
2.28011e-23
5.77209e-25
4.55506e-27
4.02634e-14
7.24988e-14
9.30826e-14
8.25651e-14
4.96036e-14
2.05617e-14
6.48946e-15
1.46381e-15
3.52154e-16
6.73697e-17
1.02746e-17
1.46219e-18
1.69297e-19
1.45805e-20
1.10747e-21
4.64473e-23
2.15248e-24
4.71692e-26
3.87155e-28
6.16532e-15
1.40493e-14
1.8797e-14
1.7368e-14
1.07041e-14
4.41623e-15
1.22276e-15
3.08331e-16
5.52157e-17
9.1975e-18
1.5018e-18
1.58837e-19
1.61475e-20
1.65892e-21
8.52363e-23
5.75147e-24
1.77381e-25
3.46386e-27
2.91768e-29
1.01364e-15
2.15332e-15
3.30907e-15
3.25751e-15
1.91467e-15
7.87847e-16
1.85553e-16
4.51941e-17
1.00203e-17
1.55184e-18
2.02839e-19
2.3205e-20
2.19687e-21
1.30681e-22
1.03644e-23
4.96158e-25
1.33618e-26
2.47013e-28
1.88914e-30
1.17517e-16
2.70712e-16
4.52498e-16
4.36491e-16
2.71882e-16
1.10749e-16
3.69537e-17
8.15226e-18
1.29284e-18
1.81591e-19
2.55881e-20
2.60836e-21
2.24124e-22
1.57345e-23
8.95892e-25
3.94742e-26
9.75403e-28
1.73489e-29
1.10204e-31
1.30246e-17
3.4714e-17
5.83833e-17
6.46515e-17
4.07211e-17
1.77876e-17
5.40075e-18
1.14047e-18
1.83271e-19
2.42276e-20
2.52143e-21
2.74338e-22
2.14684e-23
1.39641e-24
7.27642e-26
2.93348e-27
6.88521e-29
1.13783e-30
5.96862e-33
1.15925e-18
3.51685e-18
6.94332e-18
7.57797e-18
5.47229e-18
2.34725e-18
6.85796e-19
1.40129e-19
2.19519e-20
2.77456e-21
2.86051e-22
2.18074e-23
1.54553e-24
9.23051e-26
4.38701e-27
1.5683e-28
4.12006e-30
6.82252e-32
3.09431e-34
8.76832e-20
2.98555e-19
6.1381e-19
8.3085e-19
6.27539e-19
2.64119e-19
7.45778e-20
1.53812e-20
2.31956e-21
2.76683e-22
2.70078e-23
2.04709e-24
1.3434e-25
7.4709e-27
3.3039e-28
1.05805e-29
1.37959e-31
3.43603e-33
9.61124e-36
5.70071e-21
2.25774e-20
5.4333e-20
7.88492e-20
6.12457e-20
2.62576e-20
7.09671e-21
1.49376e-21
2.18598e-22
2.42013e-23
2.26973e-24
1.66895e-25
1.01825e-26
5.29131e-28
2.21376e-29
6.79389e-31
1.20488e-32
1.52792e-34
6.61603e-37
3.20806e-22
1.47912e-21
4.13875e-21
6.41952e-21
5.25737e-21
2.3382e-21
6.26378e-22
1.27443e-22
1.81643e-23
1.90977e-24
1.82355e-25
1.24836e-26
7.01142e-28
3.34552e-29
1.30774e-30
3.94038e-32
6.73847e-34
7.74781e-36
2.7199e-38
1.58146e-23
8.50326e-23
2.72054e-22
4.62556e-22
4.02015e-22
1.86935e-22
5.14103e-23
9.79647e-24
1.34982e-24
1.42018e-25
1.35373e-26
8.81704e-28
4.64612e-29
2.06246e-30
7.61299e-32
2.20673e-33
3.23537e-35
3.87401e-37
1.01898e-39
6.88516e-25
4.33545e-24
1.58978e-23
2.98915e-23
2.75746e-23
1.34569e-23
3.80412e-24
7.0345e-25
9.29459e-26
1.0037e-26
8.94605e-28
5.6011e-29
2.80829e-30
1.17824e-31
4.15648e-33
1.11783e-34
1.44049e-36
1.64027e-38
3.63551e-41
2.66492e-26
1.97762e-25
8.36387e-25
1.74705e-24
1.70778e-24
8.77231e-25
2.5175e-25
4.7361e-26
6.02355e-27
6.64164e-28
5.36919e-29
3.21394e-30
1.53028e-31
6.07934e-33
2.04319e-34
5.05863e-36
6.20552e-38
6.33704e-40
1.31023e-42
9.23734e-28
8.00774e-27
4.03619e-26
9.3784e-26
9.69436e-26
5.26286e-26
1.52978e-26
2.97481e-27
3.63842e-28
4.0419e-29
3.04686e-30
1.73479e-31
7.81477e-33
2.93679e-34
9.28742e-36
2.12607e-37
2.55591e-39
2.3636e-41
4.85135e-44
2.89736e-29
3.06792e-28
1.52676e-27
3.91086e-27
4.16635e-27
2.35584e-27
6.06366e-28
1.19465e-28
1.8627e-29
2.23383e-30
1.64494e-31
8.93163e-33
3.83069e-34
1.37719e-35
4.07951e-37
8.6584e-39
9.91557e-41
8.55616e-43
9.67668e-46
8.3527e-31
1.06894e-29
7.15731e-29
2.07922e-28
2.36097e-28
1.429e-28
3.60276e-29
7.20464e-30
8.64563e-31
1.12247e-31
7.96709e-33
4.28989e-34
1.76627e-35
6.18292e-37
1.7251e-38
3.40755e-40
3.60055e-42
2.29234e-44
3.13436e-47
2.2671e-32
3.49961e-31
2.73812e-30
8.85218e-30
1.04705e-29
6.6506e-30
1.78627e-30
3.55575e-31
4.22415e-32
5.18286e-33
3.34917e-34
1.88758e-35
7.46081e-37
2.57188e-38
6.78247e-40
1.25047e-41
1.22334e-43
8.38116e-46
1.46137e-48
6.02009e-34
1.09855e-32
9.92802e-32
3.54305e-31
4.35412e-31
2.86261e-31
8.37768e-32
1.67755e-32
2.01593e-33
2.21941e-34
1.33693e-35
7.6328e-37
2.87669e-38
9.79261e-40
2.43503e-41
4.20233e-43
3.90502e-45
3.12722e-47
2.66972e-50
)
;

boundaryField
{
    leftWall
    {
        type            alphaContactAngle;
        contactAngleProperties 
        {
            mercury         
            {
                theta0          90;
            }
            air             
            {
                theta0          90;
            }
            water           
            {
                theta0          90;
            }
        }
        value           nonuniform List<scalar> 
50
(
1.14381e-76
7.2793e-74
3.19568e-69
1.56603e-66
1.39398e-63
9.1622e-62
2.3755e-60
2.35704e-60
4.19455e-54
3.47232e-51
6.6293e-50
9.39144e-49
1.8664e-47
8.44784e-46
3.454e-44
8.46659e-43
1.15961e-41
2.37358e-40
5.75977e-39
3.12759e-37
1.16594e-34
4.66125e-33
2.69099e-32
1.39084e-31
6.76782e-31
2.58369e-30
8.29904e-30
1.95863e-29
2.99083e-29
2.26802e-29
5.84211e-30
4.11933e-31
7.68742e-33
4.27792e-35
1.47067e-37
5.23307e-40
8.95036e-43
2.47243e-45
3.33672e-48
4.01311e-51
2.37393e-54
1.15046e-57
3.23972e-61
8.21738e-65
5.44046e-69
5.01032e-73
1.28903e-77
8.13078e-83
1.58618e-89
2.69339e-100
)
;
    }
    rightWall
    {
        type            alphaContactAngle;
        contactAngleProperties 
        {
            mercury         
            {
                theta0          90;
            }
            air             
            {
                theta0          90;
            }
            water           
            {
                theta0          90;
            }
        }
        value           nonuniform List<scalar> 
50
(
5.19227e-08
4.08993e-08
3.20672e-08
2.05374e-08
1.7274e-08
7.87289e-09
6.50915e-09
4.07805e-09
2.83785e-09
1.09202e-09
5.87673e-10
1.32735e-10
5.86872e-11
9.07432e-12
3.37767e-12
4.31613e-13
1.37688e-13
1.8599e-14
4.37051e-15
6.32274e-16
1.77811e-16
3.67461e-17
6.31749e-18
9.59472e-19
1.39365e-19
1.99162e-20
2.80529e-21
3.83059e-22
4.93866e-23
5.9018e-24
6.14258e-25
5.3993e-26
4.55506e-27
3.87155e-28
2.91768e-29
1.88914e-30
1.10204e-31
5.96862e-33
3.09431e-34
9.61124e-36
6.61603e-37
2.7199e-38
1.01898e-39
3.63551e-41
1.31023e-42
4.85135e-44
9.67668e-46
3.13436e-47
1.46137e-48
2.66972e-50
)
;
    }
    lowerWall
    {
        type            alphaContactAngle;
        contactAngleProperties 
        {
            mercury         
            {
                theta0          90;
            }
            air             
            {
                theta0          90;
            }
            water           
            {
                theta0          90;
            }
        }
        value           nonuniform List<scalar> 
62
(
1.14381e-76
2.26378e-73
9.28777e-70
8.15719e-67
1.25026e-64
1.26334e-61
3.15972e-58
4.96054e-56
4.67956e-56
2.59894e-47
-2.70395e-40
-3.90238e-28
8.2218e-14
4.30814e-13
2.15338e-12
1.67486e-11
9.87376e-11
3.56006e-10
5.11151e-10
5.79286e-10
5.9535e-10
5.945e-10
0.0184224
0.0184224
0.0184093
0.00334425
1.96005e-06
0.0146999
0.106895
0.10435
0.104114
0.963502
1
1
1
3.77493e-08
3.7608e-08
3.73825e-08
3.89742e-08
3.94723e-08
3.32738e-08
1.78432e-08
0.00478338
3.77493e-08
3.46251e-08
0.0141093
0.412732
0.740128
0.842055
0.920453
0.904881
0.867458
0.837131
0.834893
0.85959
0.983812
1
1
1
0.638133
0.0187683
5.19227e-08
)
;
    }
    atmosphere
    {
        type            inletOutlet;
        inletValue      uniform 0;
        value           nonuniform List<scalar> 
46
(
0
0
0
0
0
0
0
0
0
0
0
0
0
0
0
0
0
0
0
0
0
0
0
3.80882e-39
1.31681e-37
2.96045e-36
4.73586e-35
6.02009e-34
1.09855e-32
9.92802e-32
3.54305e-31
4.35412e-31
2.86261e-31
8.37768e-32
1.67755e-32
2.01593e-33
2.21941e-34
1.33693e-35
7.6328e-37
2.87669e-38
9.79261e-40
2.43503e-41
4.20233e-43
3.90502e-45
3.12722e-47
2.66972e-50
)
;
    }
    defaultFaces
    {
        type            empty;
    }
}


// ************************************************************************* //
