/*--------------------------------*- C++ -*----------------------------------*\
  =========                 |
  \\      /  F ield         | OpenFOAM: The Open Source CFD Toolbox
   \\    /   O peration     | Website:  https://openfoam.org
    \\  /    A nd           | Version:  13
     \\/     M anipulation  |
\*---------------------------------------------------------------------------*/
FoamFile
{
    format      ascii;
    class       volScalarField;
    location    "0.2";
    object      alpha.air;
}
// * * * * * * * * * * * * * * * * * * * * * * * * * * * * * * * * * * * * * //

dimensions      [];

internalField   nonuniform List<scalar> 
2268
(
1.1855e-33
1.73432e-30
4.11978e-30
2.06234e-29
4.88913e-29
9.69357e-29
7.69277e-28
2.49993e-27
2.26819e-27
4.7982e-28
1.09657e-27
6.2121e-27
3.50458e-24
2.84536e-21
3.97078e-21
2.27707e-21
6.41017e-22
1.76228e-22
1.08093e-23
1.45471e-25
4.70519e-28
1.00596e-28
3.84086e-29
2.04812e-29
3.30499e-28
6.25057e-28
2.3411e-27
3.39998e-27
5.98893e-27
3.80067e-26
1.24226e-25
1.24195e-25
2.4537e-26
2.08273e-26
1.77534e-25
1.08021e-21
1.1177e-19
1.4073e-19
1.39002e-19
2.89697e-20
1.96615e-21
1.22049e-22
3.3219e-23
3.11741e-24
1.27263e-25
3.81207e-27
1.64103e-26
1.01172e-25
1.53759e-25
3.37023e-25
6.6295e-25
1.69317e-24
5.74894e-24
9.93347e-24
6.37364e-24
1.12746e-24
3.54875e-25
1.54569e-24
4.0538e-20
8.91364e-19
2.08814e-18
2.02061e-18
1.39171e-18
2.17146e-19
7.01716e-21
1.21663e-22
5.06879e-23
8.11374e-24
1.07695e-24
1.70378e-24
5.05658e-24
6.1616e-24
1.09245e-23
1.89084e-23
4.48165e-23
1.32302e-22
1.67336e-22
9.33959e-23
1.4458e-23
3.1581e-24
8.96066e-24
8.75913e-19
6.39686e-18
1.67317e-17
1.03932e-17
1.33319e-17
3.57006e-18
2.90331e-19
6.12285e-20
1.09971e-20
1.27292e-21
6.38649e-23
3.3634e-22
4.55492e-22
4.40055e-22
6.68271e-22
7.66716e-22
1.13034e-21
1.92635e-21
1.87479e-21
1.00946e-21
1.3564e-22
2.6682e-23
3.10176e-23
2.80898e-17
1.79268e-16
3.61841e-16
1.56113e-16
1.77861e-16
4.72196e-17
7.04055e-18
3.36419e-19
3.08475e-21
2.00094e-22
1.00744e-23
1.60567e-20
1.72651e-20
1.54017e-20
2.0922e-20
1.51309e-20
1.59262e-20
1.14318e-20
8.41792e-21
3.75586e-21
7.03057e-22
5.19223e-23
4.32432e-23
1.50547e-15
4.04806e-15
4.00731e-15
8.08165e-15
8.93362e-15
4.1072e-15
3.66426e-16
3.84409e-18
3.53048e-21
2.82019e-24
1.19377e-24
2.57846e-19
2.94811e-19
2.93392e-19
3.29175e-19
1.66714e-19
1.17077e-19
3.60546e-20
1.50456e-20
5.18572e-21
8.93077e-22
8.23493e-23
1.85212e-23
1.77913e-14
4.52955e-13
7.0377e-13
5.8264e-13
7.89424e-13
3.10748e-13
1.98959e-14
1.39421e-16
2.22514e-18
6.75004e-20
2.88562e-22
2.58147e-19
2.66723e-18
2.02658e-18
2.42222e-18
9.59593e-22
7.46856e-23
6.38126e-23
6.01606e-23
3.74362e-23
4.07138e-23
2.28945e-23
1.67649e-23
1.2637e-12
8.17297e-12
1.68203e-11
1.27263e-11
1.32602e-11
3.75298e-12
1.41492e-13
1.92094e-15
1.60282e-16
7.96e-19
1.27565e-21
1
1
0.985891
0.587268
0.259872
0.157945
0.079547
0.0951193
0.132542
0.162869
0.165107
0.14041
0.0161883
2.30396e-08
2.4613e-08
2.4116e-08
0.361867
0.981232
1
1
1
1
1
0.887616
0.305424
1.85808e-09
2.48636e-10
1.22015e-10
1.79235e-10
1.2916e-10
1.00635e-10
1.32796e-09
2.29463e-08
2.2855e-08
0.22608
0.881844
1
1
1
1
1
1
0.969002
0.198795
5.56856e-09
1.73027e-09
1.4521e-09
1.1237e-09
8.00899e-10
8.81283e-10
8.53471e-09
1.11921e-08
0.196321
0.837666
1
1
1
1
1
1
1
0.640157
0.043823
1.80434e-09
4.36225e-09
1.03397e-09
8.2216e-10
5.42708e-10
1.86199e-09
1.38258e-09
0.144511
0.809061
1
1
1
1
1
1
1
0.995555
0.267596
1.05654e-08
2.55689e-09
2.15458e-09
1.27073e-09
7.24024e-10
5.5655e-10
3.39952e-10
4.33208e-10
0.477159
0.987993
1
1
1
1
1
1
1
0.519268
0.011297
3.30424e-09
8.99974e-10
6.50736e-10
5.12818e-10
6.45371e-10
1.85934e-09
4.22292e-10
0.0815338
0.774788
1
1
1
1
1
1
1
0.694177
0.0698589
1.30081e-09
2.59303e-09
5.42265e-10
5.36985e-10
5.34578e-10
9.24255e-10
1.80991e-09
2.71732e-10
0.378355
0.965098
1
1
1
1
1
0.995217
0.670106
0.0684754
1.24693e-09
3.99983e-10
2.27225e-10
2.80999e-10
4.99122e-10
6.82084e-10
1.04158e-09
1.16605e-09
0.0449758
0.734952
1
1
1
1
1
1
5.2776e-16
2.26346e-16
1.02761e-16
1.0355e-16
1.91236e-16
3.36404e-16
5.1729e-16
9.51996e-16
1.76588e-15
7.35315e-15
7.78103e-15
2.1969e-12
2.03077e-11
8.1579e-11
1.60595e-10
1.49935e-10
7.25397e-11
1.08195e-11
2.44969e-13
6.36588e-16
2.53998e-17
1.23901e-18
2.09355e-19
1.30977e-13
1.14225e-13
6.82957e-14
6.25976e-14
8.35433e-14
1.15313e-13
1.51821e-13
2.23697e-13
1.86071e-13
3.25687e-13
3.65075e-13
1.49057e-11
6.14086e-11
2.54988e-10
4.89215e-10
5.07596e-10
2.55202e-10
3.91448e-11
7.79475e-13
1.06206e-15
2.16724e-18
4.18984e-19
5.56902e-20
1.19475e-12
1.4688e-12
1.09174e-12
9.87086e-13
1.05702e-12
1.29708e-12
1.6009e-12
2.18408e-12
3.19256e-12
4.38753e-12
3.74346e-12
2.35928e-11
6.32972e-11
8.82559e-10
2.12925e-09
2.1983e-09
9.3696e-10
1.34592e-10
3.60965e-12
8.38775e-15
9.91152e-19
2.78862e-20
7.38052e-21
6.11316e-12
8.10894e-12
6.00455e-12
5.42738e-12
5.49386e-12
6.55031e-12
7.33454e-12
9.6342e-12
1.33514e-11
1.73943e-11
1.45184e-11
2.57553e-11
4.46088e-11
2.74609e-09
8.72431e-09
9.29373e-09
2.96173e-09
1.579e-10
3.07541e-12
8.20844e-14
1.12018e-15
6.72883e-18
5.47513e-20
2.82451e-11
3.82588e-11
2.93198e-11
2.61504e-11
2.95059e-11
3.20196e-11
3.76549e-11
4.79525e-11
5.98553e-11
7.37381e-11
5.6299e-11
3.40228e-11
3.93312e-10
6.92532e-09
2.93606e-08
3.07333e-08
7.11024e-09
8.2959e-12
1.5969e-14
1.51807e-14
8.10328e-15
1.58919e-15
1.07706e-16
1.16872e-10
1.49615e-10
1.19229e-10
1.06262e-10
1.16467e-10
1.26675e-10
1.31125e-10
1.61631e-10
2.0954e-10
2.47485e-10
1.6966e-10
4.65845e-11
2.03898e-09
1.29415e-08
2.26692e-07
1.13323e-07
2.05206e-09
2.5128e-13
3.18299e-13
5.43775e-13
8.32913e-13
1.7857e-12
5.08012e-12
4.23156e-10
4.88308e-10
4.01219e-10
3.79211e-10
3.91587e-10
4.24617e-10
4.71467e-10
5.49607e-10
6.28547e-10
6.40942e-10
3.63874e-10
3.99961e-10
3.74296e-10
4.03658e-10
4.99636e-07
1.49405e-07
4.26801e-12
5.02278e-12
1.07058e-11
3.40201e-11
5.44832e-11
7.07834e-11
1.16964e-10
1.23925e-09
1.29332e-09
1.09089e-09
1.03843e-09
1.06704e-09
1.198e-09
1.18614e-09
1.35883e-09
1.37864e-09
1.31961e-09
5.62507e-10
3.74296e-10
1.19958e-05
2.35131e-05
5.78275e-06
2.31545e-17
8.21483e-12
7.59029e-11
1.98258e-10
2.72843e-10
3.56341e-10
5.33569e-10
7.20952e-10
2.66281e-09
2.61819e-09
2.2669e-09
2.21284e-09
2.20819e-09
2.388e-09
2.31801e-09
2.41411e-09
2.22759e-09
2.15376e-09
7.77282e-10
3.93963e-10
4.68167e-05
5.17285e-05
1.18591e-05
7.64697e-18
1.33488e-10
5.06859e-10
9.69558e-10
1.10881e-09
1.2586e-09
1.60913e-09
1.7018e-09
3.85122e-09
3.60167e-09
3.17961e-09
3.16035e-09
3.04579e-09
3.16945e-09
2.86785e-09
2.43103e-09
2.24517e-09
3.6457e-09
2.23852e-09
3.74296e-10
4.00557e-05
5.09753e-05
2.02715e-05
5.2141e-11
3.69991e-10
1.0789e-09
1.70941e-09
1.7728e-09
1.44122e-09
2.07083e-09
1.60655e-09
2.98952e-09
2.6787e-09
2.45895e-09
2.27545e-09
2.36129e-09
2.19725e-09
6.3307e-09
5.25147e-09
3.9021e-09
4.70484e-09
2.95765e-09
1.97468e-08
0.000400874
4.37842e-06
4.14967e-06
6.036e-08
1.46431e-09
1.25314e-09
1.49202e-09
1.45539e-09
3.46877e-09
2.28674e-09
1.6332e-09
5.12646e-09
2.00062e-09
2.03977e-09
2.90091e-09
1.73743e-09
1.95904e-09
0.00157958
0.008676
0.0270391
0.0586898
0.097922
0.0985644
0.0793093
0.00743487
5.46357e-06
1.31657e-06
1.06043e-08
4.5405e-09
9.44097e-10
1.46858e-09
0.0130393
0.068959
0.195942
0.405957
0.359887
0.329044
0.330889
0.35394
0.408933
0.488264
0.582497
0.679504
0.768467
0.837393
0.836786
0.784313
0.480096
0.217238
0.153969
0.152761
0.178927
0.251825
0.394853
0.591306
0.781652
0.947119
1
1
0.997574
0.998026
1
1
1
1
1
1
1
1
0.995158
0.999993
0.944767
0.901199
0.898667
0.919126
0.966548
1
1
1
1
1
1
1
1
1
1
1
1
1
1
1
1
1
1
0.999908
0.999939
0.999983
0.999997
0.999999
1
1
1
1
1
1
1
1
1
1
1
1
1
1
1
1
1
1
1
1
0.999998
1
1
1
1
1
1
1
1
1
1
1
1
1
1
1
1
1
1
1
1
1
1
1
1
1
1
1
1
0.999999
1
1
1
1
1
1
1
1
1
1
1
1
1
1
1
1
1
1
1
1
1
1
0.999999
1
1
1
1
1
1
1
1
1
1
1
1
1
1
1
1
1
1
1
1
1
1
1
1
1
1
1
1
1
1
1
1
1
1
1
1
1
1
1
1
1
1
1
1
1
1
1
1
1
1
1
1
1
1
1
1
1
1
1
1
1
1
1
1
1
1
1
1
1
1
1
1
1
1
1
1
1
1
1
1
1
1
1
1
1
1
1
1
1
1
1
1
1
1
1
1
1
1
1
1
1
1
1
1
1
1
1
1
1
1
1
1
1
1
1
1
1
1
1
1
1
1
1
1
1
1
1
1
1
1
1
1
1
1
1
1
1
1
1
1
1
1
1
1
1
1
1
1
1
1
1
1
1
1
1
1
1
1
1
1
1
1
1
1
1
1
1
1
1
1
1
1
1
1
1
1
1
1
1
1
1
1
1
1
1
1
1
1
1
1
1
1
1
1
1
1
1
1
1
1
1
1
1
1
1
1
1
1
1
1
1
1
1
1
1
1
1
1
1
1
1
1
1
1
1
1
1
1
1
1
1
1
1
1
1
1
1
1
1
1
1
1
1
1
1
1
1
1
1
1
1
1
1
1
1
1
1
1
1
1
1
1
1
1
1
1
1
1
1
1
1
1
1
1
1
1
1
1
1
1
1
1
1
1
1
1
1
1
1
1
1
1
1
1
1
1
1
1
1
1
1
1
1
1
1
1
1
1
1
1
1
1
1
1
1
1
1
1
1
1
1
1
1
1
1
1
1
1
1
1
1
1
1
1
1
1
1
1
1
1
1
1
1
1
1
1
1
1
1
1
1
1
1
1
1
1
1
1
1
1
1
1
1
1
1
1
1
1
1
1
1
1
1
1
1
1
1
1
1
1
1
1
1
1
1
1
1
1
1
1
1
1
1
1
1
1
1
1
1
1
1
1
1
1
1
1
1
1
1
1
1
1
1
1
1
1
1
1
1
1
1
1
1
1
1
1
1
1
1
1
1
1
1
1
1
1
1
1
1
1
1
1
1
1
1
1
1
1
1
1
1
1
1
1
1
1
1
1
1
1
1
1
1
1
1
1
1
1
1
1
1
1
1
1
1
1
1
1
1
1
1
1
1
1
1
1
1
1
1
1
1
1
1
1
1
1
1
1
1
1
1
1
1
1
1
1
1
1
1
1
1
1
1
1
1
1
1
1
1
1
1
1
1
1
1
1
1
1
1
1
1
1
1
1
1
1
1
1
1
1
1
1
1
1
1
1
1
1
1
1
1
1
1.71954e-20
1.41733e-20
3.37354e-21
2.90208e-22
1.17869e-20
2.41729e-21
7.40359e-22
3.31896e-22
1.2386e-21
6.20293e-22
3.08782e-22
2.64358e-22
7.93328e-21
5.13389e-22
2.5683e-19
2.44538e-17
4.64426e-15
1.95211e-14
7.81692e-14
2.65813e-13
1.06066e-11
1.65966e-11
2.57575e-11
4.08155e-11
1.73763e-10
2.05039e-10
2.44178e-10
3.00152e-10
8.55744e-10
8.38178e-10
8.37587e-10
9.29749e-10
1.72381e-09
2.02988e-09
1.83247e-09
2.27436e-09
1.65099e-09
2.4572e-09
3.36076e-09
7.98195e-10
1.07209e-09
0.00986164
0.106739
0.149309
0.326369
0.498595
0.83081
0.9297
1
1
1
1
1
1
1
0.999999
1
0.999996
1
0.999974
0.999995
0.999991
0.999995
0.999957
0.999994
0.999991
0.999994
1
1
1
1
1
1
1
1
1
1
1
1
1
1
1
1
1
1
1
1
1
1
1
1
1
1
1
1
1
1
1
1
1
1
1
1
1
1
1
1
1
1
1
1
1
1
1
1
1
1
1
1
1
1
1
1
1
1
1
1
1
1
1
1
1
1
1
1
1
1
1
1
1
1
1
1
1
1
1
1
1
1
1
1
1
1
1
1
1
1
1
1
1
1
1
1
1
1
1
1
1
0.00654489
3.19181e-09
4.01127e-12
7.35044e-14
7.73063e-13
4.41793e-11
2.09918e-10
5.92194e-10
1.08717e-09
1.1599e-09
1.96711e-09
0.352205
0.96311
1
1
1
1
1
1
6.3897e-21
2.63856e-22
5.30411e-14
1.43326e-12
1.59246e-11
9.97558e-11
3.72101e-10
9.54717e-10
1.44485e-09
1.49668e-09
0.227673
0.90329
1
1
1
1
1
1
1
2.93226e-18
7.66295e-15
3.34531e-13
5.681e-12
5.65301e-11
2.52793e-10
7.45617e-10
1.11435e-09
1.69512e-09
0.142863
0.821634
1
1
1
1
1
1
1
1
1.40792e-14
5.78021e-13
5.40306e-12
6.30965e-11
2.49162e-10
5.46526e-10
9.45158e-10
1.25455e-09
0.0898592
0.739838
1
1
1
1
1
1
1
1
1
3.7799e-12
2.75782e-11
8.97762e-11
3.00577e-10
6.20646e-10
9.36218e-10
1.21342e-09
0.0664458
0.679086
1
1
1
1
1
1
1
1
1
1
8.96628e-11
1.79291e-10
3.74798e-10
7.42213e-10
1.14988e-09
1.35698e-09
0.069909
0.659486
1
1
1
1
1
1
1
1
1
1
1
3.88955e-10
5.5171e-10
1.04862e-09
1.08799e-09
1.77278e-09
0.0982881
0.691033
1
1
1
1
1
1
1
1
1
1
1
1
9.36566e-10
1.06059e-09
1.11496e-09
2.04592e-09
0.14832
0.764464
1
1
1
1
1
1
1
1
1
1
1
1
1
1.55691e-09
1.10785e-09
2.04785e-09
0.21229
0.849675
1
1
1
1
1
1
1
1
1
1
1
1
1
1
1.43349e-09
1.76664e-09
0.26739
0.910768
1
1
1
1
1
1
1
1
1
1
1
1
1
1
1
0.0682668
0.258265
0.905097
1
1
1
1
1
1
1
1
1
1
1
1
1
1
1
1
0.834709
0.911585
0.998383
1
1
1
1
1
1
1
1
1
1
1
1
1
1
1
1
1
1
0.999958
0.99997
1
1
1
1
1
1
1
1
1
1
1
1
1
1
1
0.999983
0.999994
1
1
1
1
1
1
1
1
1
1
1
1
1
1
1
1
1
0.999943
0.999982
1
1
1
1
1
1
1
1
1
1
1
1
1
1
1
1
1
0.999949
1
1
1
1
1
1
1
1
1
1
1
1
1
1
1
1
1
1
1
1
1
1
1
1
1
1
1
1
1
1
1
1
1
1
1
1
1
1
1
1
1
1
1
1
1
1
1
1
1
1
1
1
1
1
1
1
1
1
1
1
1
1
1
1
1
1
1
1
1
1
1
1
1
1
1
1
1
1
1
1
1
1
1
1
1
1
1
1
1
1
1
1
1
1
1
1
1
1
1
1
1
1
1
1
1
1
1
1
1
1
1
1
1
1
1
1
1
1
1
1
1
1
1
1
1
1
1
1
1
1
1
1
1
1
1
1
1
1
1
1
1
1
1
1
1
1
1
1
1
1
1
1
1
1
1
1
1
1
1
1
1
1
1
1
1
1
1
1
1
1
1
1
1
1
1
1
1
1
1
1
1
1
1
1
1
1
1
1
1
1
1
1
1
1
1
1
1
1
1
1
1
1
1
1
1
1
1
1
1
1
1
1
1
1
1
1
1
1
1
1
1
1
1
1
1
1
1
1
1
1
1
1
1
1
1
1
1
1
1
1
1
1
1
1
1
1
1
1
1
1
1
1
1
1
1
1
1
1
1
1
1
1
1
1
1
1
1
1
1
1
1
1
1
1
1
1
1
1
1
1
1
1
1
1
1
1
1
1
1
1
1
1
1
1
1
1
1
1
1
1
1
1
1
1
1
1
1
1
1
1
1
1
1
1
1
1
1
1
1
1
1
1
1
1
1
1
1
1
1
1
1
1
1
1
1
1
1
1
1
1
1
1
1
1
1
1
1
1
1
1
1
1
1
1
1
1
1
1
1
1
1
1
1
1
1
1
1
1
1
1
1
1
1
1
1
1
1
1
1
1
1
1
1
1
1
1
1
1
1
1
1
1
1
1
1
1
1
1
1
1
1
1
1
1
1
1
1
1
1
1
1
1
1
1
1
1
1
1
1
1
1
1
1
1
1
1
1
1
1
1
1
1
1
1
1
1
1
1
1
1
1
1
1
1
1
1
1
1
1
1
1
1
1
1
1
1
1
1
1
1
1
1
1
1
1
1
1
1
1
1
1
1
1
1
1
1
1
1
1
1
1
1
1
1
1
1
1
1
1
1
1
1
1
1
1
1
1
1
1
1
1
1
1
1
1
1
1
1
1
1
1
1
)
;

boundaryField
{
    leftWall
    {
        type            alphaContactAngle;
        contactAngleProperties 
        {
            mercury         
            {
                theta0          90;
            }
            water           
            {
                theta0          90;
            }
            oil             
            {
                theta0          90;
            }
        }
        value           nonuniform List<scalar> 
50
(
1.1855e-33
2.04812e-29
1.64103e-26
1.70378e-24
3.3634e-22
1.60567e-20
2.57846e-19
2.58147e-19
5.2776e-16
1.30977e-13
1.19475e-12
6.11316e-12
2.82451e-11
1.16872e-10
4.23156e-10
1.23925e-09
2.66281e-09
3.85122e-09
2.98952e-09
5.12646e-09
0.405957
1
1
1
1
1
1
1
1
1
1
1
1
1
1
1
1
1
1
1
1
1
1
1
1
1
1
1
1
1
)
;
    }
    rightWall
    {
        type            alphaContactAngle;
        contactAngleProperties 
        {
            mercury         
            {
                theta0          90;
            }
            water           
            {
                theta0          90;
            }
            oil             
            {
                theta0          90;
            }
        }
        value           nonuniform List<scalar> 
50
(
1
1
1
1
1
1
1
1
1
1
1
1
1
1
1
1
1
1
1
1
1
1
1
1
1
1
1
1
1
1
1
1
1
1
1
1
1
1
1
1
1
1
1
1
1
1
1
1
1
1
)
;
    }
    lowerWall
    {
        type            alphaContactAngle;
        contactAngleProperties 
        {
            mercury         
            {
                theta0          90;
            }
            water           
            {
                theta0          90;
            }
            oil             
            {
                theta0          90;
            }
        }
        value           nonuniform List<scalar> 
62
(
1.1855e-33
1.73432e-30
4.11978e-30
2.06234e-29
4.88913e-29
9.69357e-29
7.69277e-28
2.49993e-27
2.26819e-27
4.7982e-28
1.09657e-27
6.2121e-27
3.50458e-24
2.84536e-21
3.97078e-21
2.27707e-21
6.41017e-22
1.76228e-22
1.08093e-23
1.45471e-25
4.70519e-28
1.00596e-28
3.84086e-29
3.84086e-29
3.81207e-27
1.07695e-24
6.38649e-23
1.00744e-23
1.19377e-24
2.88562e-22
1.27565e-21
1.71954e-20
1.41733e-20
3.37354e-21
2.90208e-22
1
1
1
1
1
1
1
0.995217
1
1
0.985891
0.587268
0.259872
0.157945
0.079547
0.0951193
0.132542
0.162869
0.165107
0.14041
0.0161883
2.30396e-08
2.4613e-08
2.4116e-08
0.361867
0.981232
1
)
;
    }
    atmosphere
    {
        type            inletOutlet;
        inletValue      uniform 1;
        value           nonuniform List<scalar> 
46
(
1
1
1
1
1
1
1
1
1
1
1
1
1
1
1
1
1
1
1
1
1
1
1
1
1
1
1
1
1
1
1
1
1
1
1
1
1
1
1
1
1
1
1
1
1
1
)
;
    }
    defaultFaces
    {
        type            empty;
    }
}


// ************************************************************************* //
