/*--------------------------------*- C++ -*----------------------------------*\
  =========                 |
  \\      /  F ield         | OpenFOAM: The Open Source CFD Toolbox
   \\    /   O peration     | Website:  https://openfoam.org
    \\  /    A nd           | Version:  13
     \\/     M anipulation  |
\*---------------------------------------------------------------------------*/
FoamFile
{
    format      ascii;
    class       volScalarField;
    location    "0.2";
    object      epsilon;
}
// * * * * * * * * * * * * * * * * * * * * * * * * * * * * * * * * * * * * * //

dimensions      [0 2 -3 0 0 0 0];

internalField   nonuniform List<scalar> 
2268
(
0.0602967
0.173284
0.280185
0.3716
0.455098
0.536526
0.620811
0.711607
0.811069
0.919696
1.03638
1.15872
1.2836
1.4087
1.52902
1.6228
1.65645
1.61423
1.5061
1.3659
1.21886
1.00819
0.664006
0.090016
0.125205
0.159094
0.187399
0.21286
0.237903
0.264487
0.294034
0.327345
0.364549
0.405102
0.447906
0.491529
0.534503
0.574147
0.603906
0.615846
0.608641
0.589581
0.581778
0.631408
0.730489
0.641433
0.124041
0.129338
0.145359
0.15949
0.172675
0.186238
0.201275
0.218543
0.238417
0.260846
0.285379
0.311191
0.337186
0.362474
0.38597
0.404214
0.412496
0.410884
0.407413
0.423241
0.512783
0.68313
0.952322
0.147485
0.137366
0.144094
0.151244
0.158696
0.167101
0.177039
0.188884
0.202746
0.218448
0.23556
0.253391
0.270992
0.287773
0.303528
0.316463
0.323837
0.32699
0.335984
0.377523
0.519256
0.724823
1.26478
0.164442
0.14495
0.145748
0.148399
0.152207
0.157383
0.164162
0.172655
0.182793
0.194307
0.206788
0.219654
0.232056
0.24353
0.254276
0.263736
0.271263
0.280104
0.303552
0.383115
0.631204
0.879297
1.57839
0.177115
0.151403
0.14812
0.147561
0.148732
0.151557
0.156039
0.162111
0.169576
0.178104
0.187311
0.196714
0.20559
0.213534
0.220823
0.22781
0.236179
0.251756
0.292694
0.428382
0.876461
1.20632
1.86712
0.186845
0.156709
0.150495
0.147563
0.146725
0.147723
0.150409
0.154601
0.160012
0.166273
0.173027
0.179896
0.186363
0.192157
0.19736
0.202808
0.212634
0.235665
0.296638
0.484463
1.11473
1.80039
2.31352
0.194611
0.160592
0.152386
0.147775
0.145428
0.144995
0.14626
0.148972
0.152791
0.157337
0.162287
0.167355
0.17227
0.176977
0.18125
0.185917
0.197662
0.228752
0.308744
0.535078
1.23484
2.85646
3.60393
13.327
19.8337
23.2221
22.4071
18.6792
14.1362
9.90334
8.29319
7.85749
8.14867
8.86173
9.73417
10.6413
11.6256
12.7205
13.8635
14.8104
14.2767
8.54967
9.07854
17.3803
19.7168
20.1502
18.4694
10.6115
6.46473
4.91032
4.11145
3.78325
3.80119
4.08543
4.61908
5.42945
6.49984
7.87083
10.3512
14.2734
4.52226
9.67855
14.7103
20.8496
30.019
19.7019
7.66522
4.94591
3.70581
3.06757
2.79304
2.78192
2.97835
3.37817
4.02068
4.9521
6.31606
8.72746
9.87543
3.94985
8.95742
11.2145
14.7055
24.7933
10.2473
5.03707
3.33087
2.60461
2.28117
2.19117
2.26758
2.47523
2.81663
3.33438
4.20141
6.07418
8.14358
7.77943
3.28282
7.91552
8.8772
9.58569
8.1307
4.48812
2.80563
2.14149
1.86356
1.78308
1.83929
2.00098
2.24678
2.58152
3.05541
4.0023
6.06828
7.0982
6.30288
2.68415
6.90826
7.33939
5.20278
3.44308
2.3678
1.80177
1.55768
1.48049
1.52335
1.66936
1.89989
2.19629
2.5595
3.04717
4.06838
5.6887
6.21852
5.18135
2.19083
5.72275
4.33073
2.98611
2.19623
1.71044
1.4331
1.31259
1.30916
1.41445
1.62261
1.91719
2.27816
2.70109
3.26348
4.27034
5.37393
5.48536
4.29929
1.80495
4.40165
3.08162
2.33427
1.84278
1.50601
1.30094
1.21687
1.24773
1.39643
1.66053
2.0245
2.46648
2.9786
3.6782
4.57921
5.08042
4.84947
3.57975
1.51405
0.201761
0.16365
0.154073
0.148047
0.144224
0.142292
0.142041
0.143178
0.145337
0.148169
0.151393
0.154723
0.158138
0.161802
0.164562
0.168671
0.183979
0.226117
0.327313
0.592384
1.33743
3.39106
3.91741
0.211718
0.166578
0.156194
0.149495
0.144883
0.142087
0.140911
0.14105
0.142217
0.144168
0.146186
0.147178
0.14738
0.147265
0.147266
0.152496
0.172133
0.220275
0.323188
0.557769
1.13634
2.46871
3.73869
0.225517
0.169406
0.15943
0.15268
0.147871
0.144602
0.142593
0.141537
0.141149
0.141105
0.140621
0.138762
0.135834
0.133032
0.132801
0.139701
0.161229
0.208562
0.30145
0.491887
0.904196
1.74457
2.76379
0.23762
0.168662
0.157991
0.151492
0.146753
0.143269
0.140742
0.138815
0.137052
0.13503
0.132445
0.129103
0.125257
0.122143
0.122362
0.13026
0.152208
0.196751
0.279001
0.433638
0.725355
1.23632
1.86638
0.242546
0.166289
0.153192
0.146183
0.141253
0.137653
0.135046
0.133038
0.131116
0.128733
0.125504
0.121398
0.116997
0.113815
0.114572
0.123236
0.14505
0.186747
0.260136
0.38635
0.594763
0.907804
1.26902
0.244665
0.165069
0.149243
0.141032
0.13549
0.131504
0.128573
0.126259
0.124054
0.121429
0.118013
0.113842
0.109621
0.107005
0.108695
0.118259
0.139947
0.179484
0.245289
0.348157
0.499082
0.698846
0.913416
0.247524
0.163843
0.145278
0.135455
0.128908
0.124291
0.120962
0.118406
0.116106
0.113558
0.110418
0.106733
0.103255
0.1017
0.104704
0.115414
0.137385
0.175307
0.234416
0.319569
0.433518
0.572369
0.717647
0.251245
0.162545
0.141506
0.130129
0.122535
0.117217
0.113443
0.110656
0.108342
0.106035
0.103424
0.100572
0.0982388
0.0981666
0.10287
0.115035
0.137712
0.174183
0.227328
0.299098
0.389576
0.495062
0.605203
0.255247
0.161603
0.138405
0.125622
0.117047
0.11104
0.106807
0.103774
0.101455
0.0994486
0.0975152
0.0957531
0.0949325
0.0967852
0.103598
0.117619
0.141202
0.176325
0.224493
0.286474
0.361876
0.448294
0.540107
0.259303
0.161588
0.136451
0.122328
0.112827
0.106167
0.101488
0.0982042
0.0958748
0.0941965
0.0930469
0.0926034
0.0936682
0.0979284
0.107319
0.123628
0.14834
0.182643
0.227427
0.28323
0.35001
0.426668
0.510321
0.264005
0.163357
0.136085
0.120473
0.110036
0.102768
0.0976939
0.0941976
0.0918892
0.090585
0.0903242
0.0914094
0.0946929
0.101805
0.114299
0.133294
0.159653
0.194242
0.237859
0.291301
0.355223
0.429665
0.51353
0.271376
0.168431
0.137748
0.120122
0.108659
0.100863
0.0955265
0.0919611
0.0898046
0.0889895
0.0897409
0.0925233
0.0982083
0.108375
0.124306
0.146416
0.175241
0.211658
0.256769
0.312138
0.379436
0.459411
0.55353
0.286051
0.179871
0.142279
0.121538
0.108846
0.100592
0.095161
0.0917122
0.0898621
0.0896449
0.0914984
0.0960654
0.104202
0.117604
0.137316
0.163297
0.19597
0.236362
0.286335
0.349272
0.427856
0.521661
0.639139
0.317381
0.201678
0.150058
0.12459
0.110534
0.102008
0.0967311
0.0935692
0.0920666
0.0924078
0.0953837
0.101848
0.112415
0.129477
0.153842
0.185112
0.22363
0.270436
0.329098
0.408709
0.506078
0.613461
0.743653
0.366274
0.226317
0.158376
0.127191
0.111939
0.103214
0.0980197
0.0951436
0.0942065
0.0954809
0.0999496
0.108739
0.122337
0.142646
0.171956
0.210351
0.256316
0.309839
0.373871
0.45335
0.54408
0.64475
0.766719
0.403097
0.206136
0.157299
0.124499
0.109135
0.101073
0.0968177
0.0950384
0.0953197
0.0979986
0.104134
0.114839
0.130937
0.15345
0.183548
0.221817
0.268168
0.322638
0.386222
0.462753
0.558067
0.665377
0.784153
0.42671
0.198968
0.144681
0.119073
0.105874
0.0988746
0.0953824
0.0943239
0.0954852
0.0992817
0.106597
0.118309
0.134955
0.157352
0.186754
0.224034
0.270077
0.325361
0.390745
0.467271
0.554578
0.649843
0.748818
0.426664
0.185408
0.135019
0.113614
0.102385
0.096355
0.0935235
0.0930993
0.0949786
0.0995769
0.107646
0.119954
0.137121
0.159801
0.188883
0.225329
0.269916
0.322998
0.38464
0.454491
0.530711
0.608729
0.681324
0.41944
0.175709
0.128947
0.109796
0.099776
0.0943909
0.0919921
0.0919674
0.0942855
0.0993329
0.107763
0.120284
0.137525
0.160103
0.188685
0.223905
0.266176
0.315359
0.370685
0.430674
0.492345
0.550379
0.597469
0.413996
0.170848
0.125728
0.107487
0.0980138
0.0929699
0.0908248
0.0910326
0.0935739
0.0987915
0.107261
0.119639
0.136541
0.158515
0.186034
0.219405
0.258582
0.302884
0.35085
0.400174
0.447364
0.487408
0.514552
0.410508
0.16875
0.12427
0.106281
0.0969639
0.0920393
0.0900012
0.0903054
0.0929074
0.0980947
0.106372
0.118337
0.134565
0.155524
0.181503
0.212504
0.248074
0.287108
0.327732
0.367301
0.402384
0.428881
0.442896
0.407072
0.167695
0.123665
0.105743
0.0964213
0.0914905
0.0894539
0.0897485
0.0922884
0.0972998
0.105216
0.11657
0.131874
0.151507
0.175607
0.203939
0.23577
0.269745
0.303854
0.335506
0.361703
0.37935
0.386017
0.402443
0.166815
0.123369
0.105535
0.0961817
0.0911951
0.0890974
0.0893059
0.0916909
0.0964164
0.103844
0.114434
0.128628
0.146724
0.168747
0.194322
0.222572
0.252068
0.280862
0.306625
0.326893
0.339402
0.342661
0.396408
0.165797
0.12311
0.105436
0.0960738
0.091023
0.0888322
0.0889035
0.0910655
0.0954213
0.102261
0.11197
0.124922
0.141347
0.161203
0.184058
0.209016
0.2347
0.259337
0.280925
0.297475
0.307304
0.309442
0.389301
0.16459
0.122777
0.105318
0.0959765
0.0908676
0.0885687
0.0884702
0.0903613
0.0942864
0.100465
0.109211
0.120832
0.135509
0.153173
0.173402
0.195356
0.217796
0.239171
0.257789
0.272033
0.280593
0.282756
0.381547
0.163233
0.122344
0.105124
0.0958199
0.090659
0.088245
0.0879567
0.0895466
0.0930028
0.0984767
0.106212
0.116458
0.129359
0.144847
0.162549
0.181733
0.201331
0.220025
0.236394
0.2491
0.257072
0.259711
0.373513
0.161795
0.121825
0.104841
0.0955778
0.0903661
0.087833
0.0873453
0.0886203
0.0915928
0.0963491
0.103067
0.111939
0.123084
0.136448
0.151725
0.168313
0.185323
0.201661
0.216141
0.227643
0.235254
0.238432
0.365479
0.160343
0.121257
0.104488
0.0952561
0.0899903
0.0873361
0.0866481
0.08761
0.0901072
0.0941649
0.0998976
0.107447
0.116907
0.128242
0.141215
0.155352
0.169941
0.184091
0.196825
0.207202
0.214434
0.218012
0.357678
0.158947
0.120687
0.1041
0.0948824
0.0895564
0.0867819
0.0859003
0.0865647
0.0886153
0.0920218
0.0968404
0.103164
0.111061
0.12051
0.131337
0.143182
0.155492
0.167561
0.178597
0.187817
0.194543
0.198302
0.350348
0.157693
0.120171
0.103722
0.0944978
0.0891046
0.0862131
0.0851514
0.0855443
0.0871922
0.090016
0.0940198
0.0992508
0.105751
0.113506
0.122391
0.13214
0.142339
0.152439
0.161817
0.169833
0.175912
0.179626
0.343812
0.156702
0.119787
0.103412
0.0941527
0.0886839
0.0856815
0.084458
0.0846123
0.0859103
0.0882314
0.0915353
0.0958285
0.101127
0.107414
0.114601
0.122495
0.130792
0.139081
0.14688
0.153682
0.159012
0.162492
0.338591
0.15617
0.119641
0.103242
0.0939044
0.088349
0.0852435
0.0838798
0.0838315
0.0848349
0.0867358
0.0894573
0.0929721
0.0972714
0.102332
0.108087
0.114397
0.121042
0.127721
0.134074
0.13971
0.144247
0.147366
0.335579
0.156426
0.119891
0.1033
0.0938169
0.0881583
0.0849584
0.083478
0.0832636
0.0840256
0.0855833
0.087832
0.0907177
0.0942105
0.0982792
0.102866
0.107869
0.113129
0.11843
0.12351
0.128077
0.131836
0.134523
0.336321
0.158002
0.120759
0.103691
0.0939582
0.0881711
0.0848865
0.0833149
0.0829702
0.0835392
0.0848209
0.0866913
0.0890771
0.0919327
0.095218
0.0988798
0.102837
0.106971
0.111129
0.115124
0.118748
0.121781
0.124014
0.343394
0.161706
0.122536
0.104532
0.0943923
0.0884434
0.0850871
0.0834529
0.083013
0.0834317
0.0844933
0.086062
0.088053
0.0904102
0.0930867
0.0960292
0.0991675
0.102409
0.105641
0.108732
0.11154
0.113914
0.115695
0.360903
0.168642
0.125526
0.105905
0.0951583
0.0890176
0.0856134
0.0839524
0.0834535
0.0837594
0.0846458
0.085972
0.0876486
0.0896149
0.0918199
0.0942093
0.0967168
0.0992619
0.101754
0.104098
0.106203
0.107975
0.109308
0.395114
0.180082
0.129907
0.107787
0.0962359
0.0899083
0.0865066
0.0848682
0.08435
0.0845768
0.0853227
0.0864493
0.0878694
0.089523
0.091359
0.0933228
0.0953486
0.0973583
0.0992675
0.100997
0.102487
0.103694
0.104567
0.455477
0.197034
0.135424
0.109918
0.0975016
0.0910893
0.0877918
0.0862472
0.085755
0.085933
0.0865634
0.0875182
0.0887187
0.0901109
0.0916481
0.0932786
0.0949373
0.0965438
0.0980072
0.0992419
0.100193
0.100852
0.101229
0.556947
0.219261
0.140902
0.111659
0.0987012
0.0924949
0.0894818
0.0881292
0.0877132
0.0878675
0.0883969
0.0891923
0.0901894
0.0913449
0.0926214
0.093975
0.0953467
0.0966557
0.0978002
0.0986691
0.0991764
0.0993128
0.0991425
0.727454
0.243022
0.143601
0.111933
0.0994969
0.09406
0.0915983
0.0905554
0.0902624
0.0904081
0.0908373
0.0914685
0.0922562
0.0931714
0.0941894
0.0952801
0.0963991
0.0974776
0.0984137
0.0990702
0.0992971
0.0990101
0.0982694
1.03378
0.255118
0.138639
0.10948
0.0996651
0.095817
0.094211
0.0935811
0.0934375
0.0935703
0.0938822
0.0943248
0.0948729
0.0955122
0.0962318
0.0970185
0.0978502
0.0986875
0.0994605
0.100049
0.100261
0.0998521
0.0986599
1.6812
0.213773
0.119771
0.103819
0.0995014
0.098028
0.0974723
0.0972828
0.0972697
0.0973579
0.097514
0.0977224
0.0979755
0.0982698
0.0986037
0.0989764
0.0993864
0.09983
0.100298
0.100766
0.101154
0.101204
0.100342
8.51327
7.49
6.43417
5.55691
4.73966
4.82809
4.58799
4.2112
3.14547
3.28881
3.26905
3.13637
2.14009
2.28736
2.33406
2.2905
1.44721
1.55011
1.60426
1.61703
1.03329
1.11188
1.16841
1.20162
0.807957
0.870149
0.921573
0.961077
0.679316
0.732796
0.781821
0.825874
0.60671
0.65706
0.707175
0.75704
0.574981
0.625666
0.679062
0.735556
0.581488
0.635723
0.694519
0.758035
0.634432
0.698189
0.767259
0.839266
0.755956
0.834184
0.902249
0.972564
0.847152
0.910383
0.980068
1.06268
0.884478
0.97158
1.05455
1.13087
0.880001
0.943369
1.00165
1.0521
0.820217
0.86212
0.896891
0.921833
0.725599
0.747915
0.762192
0.766688
0.619672
0.627442
0.627821
0.620128
0.521633
0.520523
0.51359
0.500881
0.441459
0.436065
0.426443
0.412965
0.380875
0.374143
0.364378
0.352023
0.33668
0.330168
0.321411
0.31083
0.304049
0.298416
0.291014
0.282209
0.278526
0.273973
0.267939
0.260731
0.256775
0.253297
0.248525
0.242713
0.236697
0.23419
0.230542
0.225958
0.217274
0.215592
0.212906
0.20938
0.198316
0.197294
0.1954
0.192768
0.180147
0.179617
0.178348
0.176444
0.163303
0.163113
0.162306
0.160972
0.148293
0.148315
0.147833
0.146915
0.135441
0.135572
0.135299
0.134667
0.124836
0.125002
0.124844
0.124393
0.116367
0.116512
0.116397
0.116042
0.109785
0.109865
0.109735
0.109407
0.104802
0.10477
0.104568
0.104202
0.101154
0.100955
0.100612
0.100134
0.0986551
0.0982052
0.0976313
0.0969512
0.0972012
0.0963799
0.0954553
0.0944681
0.0966834
0.0953415
0.0939575
0.09259
0.0966543
0.0945737
0.0927084
0.0910559
3.62673
2.7268
2.13892
1.71733
1.42194
1.24226
1.18073
1.24675
1.45102
1.79571
2.26869
2.84728
3.51728
4.42342
4.85569
4.5228
3.75326
2.49577
1.17163
3.33814
2.5981
2.03954
1.63699
1.36882
1.22733
1.21943
1.3626
1.67774
2.17834
2.86087
3.70562
4.69799
5.26376
4.64582
3.74507
2.77922
1.73733
1.00313
2.70674
2.20919
1.79277
1.48552
1.29513
1.23017
1.3095
1.56409
2.0307
2.73894
3.70055
4.9203
5.90696
5.27658
4.06033
2.92186
1.9955
1.22058
0.924832
2.08079
1.77987
1.51508
1.32574
1.23565
1.26873
1.45962
1.85723
2.518
3.49292
4.8255
6.20479
5.96755
4.6913
3.26537
2.14649
1.39832
0.888037
0.883335
1.56041
1.41859
1.28542
1.20724
1.21995
1.36177
1.68466
2.25824
3.1627
4.48073
6.02799
6.31868
5.32505
3.81428
2.42669
1.51297
0.989882
0.675951
0.852245
1.21381
1.17037
1.13407
1.15078
1.26348
1.52311
2.00034
2.78763
3.99331
5.51319
6.1822
5.64431
4.32995
2.83848
1.71557
1.06328
0.718984
0.540229
0.820196
1.00503
1.02372
1.06039
1.16048
1.37339
1.76374
2.42086
3.4604
4.83085
5.66076
5.52887
4.5716
3.21135
2.00436
1.19497
0.759457
0.541726
0.451728
0.783846
0.890347
0.955068
1.05307
1.23324
1.55395
2.09077
2.94894
4.10847
4.92463
5.05096
4.45273
3.37538
2.25837
1.38184
0.837652
0.559321
0.425775
0.392118
0.743645
0.839741
0.94438
1.10065
1.3669
1.80672
2.49583
3.42587
4.12569
4.36515
4.03459
3.27153
2.36289
1.543
0.949644
0.601602
0.428506
0.349084
0.350259
0.701377
0.835521
0.979458
1.1974
1.55888
2.11375
2.83158
3.37277
3.6178
3.44972
2.94979
2.28185
1.60489
1.04472
0.663677
0.448416
0.342429
0.297313
0.319511
0.658923
0.874955
1.06037
1.3402
1.79048
2.36541
2.76321
2.94598
2.84444
2.51835
2.05609
1.54678
1.07799
0.715223
0.479601
0.349013
0.284792
0.261417
0.29593
0.617782
0.96895
1.19436
1.53072
2.01868
2.35328
2.45253
2.33975
2.093
1.7659
1.39856
1.03774
0.729954
0.504292
0.362115
0.283616
0.245262
0.235777
0.27716
0.578981
1.11476
1.37837
1.71611
1.99148
2.07909
1.95823
1.74027
1.48414
1.21198
0.94313
0.701295
0.507603
0.371209
0.286573
0.239617
0.217424
0.216911
0.261768
0.54313
1.22543
1.47653
1.63745
1.70048
1.62045
1.44777
1.24063
1.02835
0.824864
0.640659
0.486044
0.368096
0.287161
0.237102
0.209242
0.197308
0.202642
0.248867
0.510524
1.24612
1.35215
1.37166
1.30847
1.18485
1.02916
0.864128
0.706736
0.565878
0.446368
0.351172
0.280965
0.233412
0.203923
0.187732
0.182432
0.191592
0.237887
0.481222
1.1196
1.1374
1.07436
0.966491
0.847245
0.721822
0.600296
0.491328
0.399073
0.324595
0.267458
0.226187
0.198356
0.181103
0.172144
0.171207
0.182864
0.228449
0.455115
0.942122
0.902387
0.809374
0.706619
0.606077
0.51089
0.42545
0.35311
0.294711
0.24935
0.215448
0.191245
0.174955
0.165017
0.160614
0.162591
0.17586
0.220279
0.431978
0.757151
0.696026
0.608169
0.521981
0.442862
0.373125
0.314403
0.267186
0.230607
0.203054
0.182839
0.168513
0.158941
0.153411
0.151928
0.155882
0.170165
0.213172
0.411522
0.597246
0.535598
0.464928
0.397144
0.337003
0.286498
0.246039
0.214892
0.191589
0.174468
0.162083
0.153375
0.147695
0.144849
0.145277
0.150591
0.165481
0.206956
0.393429
0.475436
0.423529
0.368429
0.316179
0.270689
0.233611
0.204903
0.183498
0.1679
0.156648
0.148598
0.143015
0.139579
0.138392
0.140102
0.146364
0.161582
0.201488
0.377387
0.389708
0.348715
0.30588
0.265372
0.230315
0.202094
0.180595
0.16482
0.153469
0.145349
0.139586
0.13569
0.133546
0.13341
0.136007
0.142936
0.15829
0.196639
0.363106
0.332178
0.300093
0.266362
0.234236
0.206267
0.183669
0.166414
0.153718
0.144545
0.137962
0.133319
0.130299
0.128908
0.129464
0.132693
0.140098
0.155456
0.192297
0.350333
0.294456
0.268729
0.241513
0.215246
0.192015
0.172926
0.158087
0.146963
0.138787
0.132858
0.128706
0.126129
0.125193
0.126232
0.12993
0.137677
0.152955
0.18836
0.338851
0.268773
0.247763
0.225287
0.203183
0.183185
0.166328
0.152865
0.1425
0.134712
0.129004
0.125041
0.122699
0.122069
0.123469
0.127531
0.13553
0.150678
0.18474
0.328491
0.249719
0.232379
0.213507
0.194517
0.176875
0.161567
0.148974
0.139013
0.131376
0.125733
0.121858
0.119677
0.119288
0.120984
0.125342
0.133535
0.148532
0.181363
0.31912
0.233748
0.219399
0.203435
0.18696
0.171229
0.157184
0.145306
0.135685
0.128189
0.122626
0.118853
0.116835
0.116671
0.11863
0.123243
0.131595
0.146444
0.178173
0.310644
0.21874
0.206932
0.193455
0.179178
0.16518
0.152351
0.141236
0.132057
0.124817
0.119435
0.115839
0.114024
0.114093
0.116301
0.121146
0.129638
0.144359
0.175128
0.302996
0.203679
0.194088
0.182827
0.170579
0.158267
0.146719
0.136507
0.127937
0.121116
0.116049
0.112721
0.11116
0.111481
0.113933
0.118993
0.127618
0.142243
0.172203
0.29613
0.18837
0.180719
0.171458
0.161119
0.150483
0.140297
0.131131
0.123336
0.117087
0.112456
0.10948
0.108219
0.108806
0.111497
0.11676
0.125517
0.140082
0.169386
0.290011
0.173136
0.167155
0.159679
0.151114
0.142111
0.133327
0.125299
0.118393
0.112827
0.108719
0.10615
0.105217
0.106076
0.108996
0.11445
0.123337
0.13788
0.166674
0.284609
0.158539
0.15395
0.148018
0.141051
0.133578
0.126164
0.119292
0.113319
0.108484
0.104939
0.102802
0.102201
0.103323
0.106457
0.112085
0.121099
0.135655
0.164076
0.279892
0.145149
0.141668
0.13702
0.131431
0.125325
0.119173
0.113399
0.108334
0.10422
0.101231
0.0995156
0.099233
0.100597
0.103921
0.109703
0.118837
0.133431
0.161601
0.275832
0.133381
0.130738
0.127105
0.122649
0.117704
0.112655
0.107863
0.103625
0.100175
0.0977003
0.0963704
0.0963727
0.0979469
0.101432
0.107344
0.116587
0.131241
0.159264
0.272392
0.123427
0.121379
0.118509
0.11494
0.110935
0.106803
0.102844
0.0993195
0.0964489
0.0944228
0.0934274
0.0936719
0.09542
0.0990336
0.105051
0.114388
0.129114
0.157075
0.26954
0.115264
0.113602
0.111271
0.108366
0.10509
0.10169
0.0984116
0.0954786
0.0930923
0.0914424
0.0907252
0.0911669
0.0930516
0.0967625
0.102859
0.112275
0.127079
0.155049
0.267235
0.108703
0.107253
0.105275
0.102845
0.10012
0.097291
0.094555
0.0921011
0.0901112
0.0887697
0.0882785
0.0888765
0.0908646
0.0946449
0.100797
0.110276
0.12516
0.153192
0.265439
0.103467
0.102079
0.100304
0.0982029
0.0958898
0.0935061
0.0912039
0.0891395
0.087475
0.0863876
0.0860813
0.0868038
0.0888695
0.0926975
0.0988871
0.108414
0.123377
0.151515
0.264106
0.0992535
0.0977913
0.0961032
0.0942265
0.0922292
0.0902033
0.0882588
0.0865208
0.0851325
0.084262
0.0841134
0.0849404
0.0870679
0.0909297
0.0971436
0.106708
0.121747
0.150023
0.263187
0.0957916
0.0941326
0.0924462
0.0907262
0.0889846
0.0872617
0.0856264
0.0841752
0.0830328
0.0823583
0.0823539
0.0832769
0.0854606
0.0893509
0.0955826
0.105178
0.120291
0.148732
0.262613
0.0928932
0.0909417
0.0892053
0.0876047
0.0860828
0.0846264
0.0832668
0.0820743
0.0811578
0.0806674
0.0808021
0.081821
0.0840632
0.0879843
0.0942341
0.103858
0.119047
0.147678
0.262286
0.0905188
0.0882384
0.0864451
0.0849482
0.0836146
0.082384
0.0812577
0.0802867
0.0795673
0.0792418
0.0795057
0.080618
0.0829209
0.0868768
0.0931476
0.102801
0.11807
0.146933
0.26203
0.0887128
0.0863357
0.084573
0.0831727
0.0819693
0.0808835
0.0799039
0.0790727
0.0784795
0.0782619
0.0786121
0.0797879
0.0821317
0.0861083
0.0923853
0.102044
0.11735
0.146377
0.261425
)
;

boundaryField
{
    leftWall
    {
        type            epsilonWallFunction;
        value           nonuniform List<scalar> 
50
(
0.0602967
0.090016
0.124041
0.147485
0.164442
0.177115
0.186845
0.194611
0.201761
0.211718
0.225517
0.23762
0.242546
0.244665
0.247524
0.251245
0.255247
0.259303
0.264005
0.271376
0.286051
0.317381
0.366274
0.403097
0.42671
0.426664
0.41944
0.413996
0.410508
0.407072
0.402443
0.396408
0.389301
0.381547
0.373513
0.365479
0.357678
0.350348
0.343812
0.338591
0.335579
0.336321
0.343394
0.360903
0.395114
0.455477
0.556947
0.727454
1.03378
1.6812
)
;
    }
    rightWall
    {
        type            epsilonWallFunction;
        value           nonuniform List<scalar> 
50
(
8.54967
4.52226
3.94985
3.28282
2.68415
2.19083
1.80495
1.51405
1.17163
1.00313
0.924832
0.883335
0.852245
0.820196
0.783846
0.743645
0.701377
0.658923
0.617782
0.578981
0.54313
0.510524
0.481222
0.455115
0.431978
0.411522
0.393429
0.377387
0.363106
0.350333
0.338851
0.328491
0.31912
0.310644
0.302996
0.29613
0.290011
0.284609
0.279892
0.275832
0.272392
0.26954
0.267235
0.265439
0.264106
0.263187
0.262613
0.262286
0.26203
0.261425
)
;
    }
    lowerWall
    {
        type            epsilonWallFunction;
        value           nonuniform List<scalar> 
62
(
0.0602967
0.173284
0.280185
0.3716
0.455098
0.536526
0.620811
0.711607
0.811069
0.919696
1.03638
1.15872
1.2836
1.4087
1.52902
1.6228
1.65645
1.61423
1.5061
1.3659
1.21886
1.00819
0.664006
0.664006
0.641433
0.952322
1.26478
1.57839
1.86712
2.31352
3.60393
8.51327
7.49
6.43417
5.55691
13.327
9.07854
9.67855
8.95742
7.91552
6.90826
5.72275
4.40165
13.327
19.8337
23.2221
22.4071
18.6792
14.1362
9.90334
8.29319
7.85749
8.14867
8.86173
9.73417
10.6413
11.6256
12.7205
13.8635
14.8104
14.2767
8.54967
)
;
    }
    atmosphere
    {
        type            inletOutlet;
        inletValue      uniform 0.1;
        value           nonuniform List<scalar> 
46
(
0.1
0.1
0.1
0.1
0.1
0.1
0.1
0.1
0.1
0.1
0.1
0.1
0.1
0.1
0.1
0.1
0.1
0.1
0.1
0.1
0.1
0.1
0.1
0.0966543
0.0945737
0.0927084
0.0910559
0.0887128
0.0863357
0.084573
0.0831727
0.0819693
0.0808835
0.0799039
0.0790727
0.0784795
0.0782619
0.0786121
0.0797879
0.0821317
0.0861083
0.0923853
0.102044
0.11735
0.146377
0.261425
)
;
    }
    defaultFaces
    {
        type            empty;
    }
}


// ************************************************************************* //
