/*--------------------------------*- C++ -*----------------------------------*\
  =========                 |
  \\      /  F ield         | OpenFOAM: The Open Source CFD Toolbox
   \\    /   O peration     | Website:  https://openfoam.org
    \\  /    A nd           | Version:  13
     \\/     M anipulation  |
\*---------------------------------------------------------------------------*/
FoamFile
{
    format      ascii;
    class       volScalarField;
    location    "0.2";
    object      k;
}
// * * * * * * * * * * * * * * * * * * * * * * * * * * * * * * * * * * * * * //

dimensions      [0 2 -2 0 0 0 0];

internalField   nonuniform List<scalar> 
2268
(
0.00585737
0.0118602
0.0163508
0.0197474
0.0226134
0.0252427
0.0278244
0.0304732
0.0332431
0.0361363
0.039115
0.0421167
0.0450701
0.0479329
0.0506175
0.0526884
0.0534608
0.0525923
0.0502374
0.0470826
0.0436494
0.0384558
0.0290586
0.0126163
0.0256451
0.034353
0.0409904
0.0465161
0.0514742
0.0562003
0.060886
0.0656114
0.0703684
0.0750864
0.0796569
0.0839594
0.0879575
0.0915987
0.094252
0.0947967
0.0927829
0.0889228
0.0842614
0.0812708
0.0750691
0.046882
0.0156303
0.0321183
0.0427565
0.0508394
0.0575547
0.06353
0.0691419
0.0746032
0.0800028
0.0853331
0.090522
0.0954516
0.0999729
0.104066
0.107798
0.110624
0.11138
0.109629
0.106489
0.104063
0.106425
0.103133
0.0610439
0.0175473
0.0363272
0.0482266
0.0571945
0.064613
0.0711601
0.0772274
0.0830335
0.0886685
0.0941259
0.0993412
0.104201
0.108533
0.112321
0.115746
0.118466
0.119528
0.118672
0.117445
0.119278
0.129826
0.127988
0.0737521
0.0188712
0.0393109
0.052164
0.061767
0.0696624
0.0765676
0.0828836
0.0888314
0.0945014
0.0998896
0.104946
0.109571
0.113584
0.116951
0.11991
0.122361
0.123802
0.124363
0.126071
0.134606
0.15965
0.157307
0.0854869
0.0198314
0.041486
0.0551001
0.0651951
0.0734343
0.0805695
0.0870125
0.0929886
0.0985889
0.103814
0.10863
0.112965
0.116645
0.119621
0.12211
0.124225
0.126133
0.128584
0.134232
0.152524
0.201835
0.198289
0.0957689
0.0205533
0.0430807
0.0573221
0.0678191
0.076318
0.0836011
0.090096
0.0960353
0.101512
0.106533
0.111081
0.115116
0.118518
0.121258
0.123441
0.125284
0.12779
0.132504
0.142959
0.169786
0.238112
0.256417
0.109906
0.0211212
0.044197
0.0589822
0.069828
0.0785345
0.0859166
0.0924237
0.0982984
0.103639
0.108463
0.112772
0.116554
0.119773
0.122465
0.124573
0.126263
0.129513
0.136832
0.152002
0.184822
0.256422
0.34337
0.147162
0.212263
0.275824
0.304584
0.298781
0.265379
0.222093
0.175729
0.156253
0.150723
0.154273
0.162878
0.172989
0.182916
0.193132
0.20422
0.215718
0.225435
0.221847
0.161895
0.291406
0.474127
0.585094
0.604444
0.562841
0.398961
0.304424
0.270551
0.259134
0.262753
0.274259
0.286664
0.296375
0.304538
0.313568
0.324347
0.343638
0.351437
0.19041
0.3051
0.483903
0.668656
0.841205
0.629467
0.361069
0.304313
0.287963
0.290894
0.305517
0.325173
0.343346
0.356107
0.362853
0.365748
0.367946
0.372383
0.310895
0.175465
0.29031
0.421713
0.555551
0.752218
0.421765
0.299229
0.277616
0.283824
0.302784
0.328751
0.356619
0.380994
0.39835
0.406407
0.407832
0.42137
0.395737
0.285002
0.155896
0.267576
0.366403
0.413503
0.375214
0.277786
0.249573
0.260221
0.283495
0.313648
0.348146
0.3831
0.41374
0.43667
0.448776
0.456828
0.469693
0.389194
0.259875
0.136757
0.244661
0.312068
0.270582
0.234251
0.224825
0.236154
0.260897
0.291797
0.328123
0.368753
0.410053
0.447324
0.476673
0.494401
0.509419
0.491754
0.379401
0.237089
0.119605
0.216406
0.212222
0.200696
0.208884
0.224737
0.245959
0.273344
0.306567
0.346573
0.392344
0.440047
0.484787
0.521873
0.548218
0.561134
0.506865
0.367758
0.216917
0.105015
0.182222
0.186108
0.206184
0.22684
0.245282
0.265604
0.291638
0.325544
0.368629
0.419589
0.474327
0.527583
0.573968
0.613234
0.614508
0.515356
0.354167
0.198885
0.0930872
0.0216383
0.0451693
0.0606664
0.0719975
0.0809953
0.0885241
0.095069
0.100886
0.106089
0.110723
0.114809
0.118325
0.121345
0.12399
0.125742
0.127321
0.132073
0.143394
0.164318
0.203664
0.276876
0.401325
0.27969
0.0223532
0.0462108
0.062531
0.0743734
0.0837081
0.0914615
0.098136
0.103995
0.109201
0.113846
0.117739
0.120498
0.122332
0.123512
0.124186
0.126483
0.133552
0.14812
0.171763
0.209767
0.272182
0.362021
0.375583
0.0233242
0.0480247
0.064918
0.0770132
0.0865499
0.0943964
0.100991
0.106578
0.111309
0.115236
0.118126
0.119654
0.120075
0.12005
0.120786
0.124276
0.133061
0.149125
0.173514
0.209913
0.264756
0.339716
0.393417
0.0241495
0.0497923
0.0662804
0.0782327
0.0876663
0.0953675
0.101724
0.10692
0.111007
0.11398
0.115839
0.116615
0.11656
0.116419
0.11758
0.122074
0.13214
0.149235
0.174541
0.210947
0.26189
0.327206
0.388678
0.0244793
0.0500249
0.0659396
0.0775766
0.0867505
0.0942246
0.100388
0.105403
0.109275
0.111932
0.113338
0.113617
0.113213
0.113069
0.114737
0.120184
0.131325
0.149408
0.175886
0.212571
0.260466
0.317807
0.374244
0.0246214
0.0495703
0.0651674
0.0765054
0.085377
0.0925387
0.0983747
0.103055
0.106599
0.108947
0.11008
0.110178
0.109782
0.109973
0.112372
0.118837
0.130957
0.150031
0.177239
0.213146
0.257206
0.306815
0.354931
0.0248131
0.0491464
0.0642768
0.0751215
0.0835063
0.090215
0.0956403
0.0999622
0.103222
0.10539
0.106476
0.106686
0.106616
0.107427
0.110763
0.118305
0.131397
0.151183
0.178172
0.212036
0.251557
0.294212
0.335261
0.0250612
0.0489035
0.0635039
0.0737817
0.0816057
0.0877941
0.0927634
0.0967166
0.0997278
0.10181
0.103009
0.103555
0.104073
0.105765
0.11023
0.118894
0.132884
0.152841
0.178686
0.209708
0.244625
0.28143
0.31701
0.0253268
0.0487782
0.062906
0.0726546
0.0799424
0.0856209
0.0901377
0.0937311
0.0965233
0.0985873
0.100028
0.10111
0.102471
0.105315
0.111089
0.120922
0.135565
0.155136
0.179257
0.207179
0.237857
0.269882
0.301299
0.0255956
0.0486996
0.0624935
0.0718211
0.0786618
0.0838996
0.0880152
0.0912887
0.0939033
0.0960138
0.0978115
0.0996137
0.102074
0.106341
0.113589
0.124604
0.139643
0.158542
0.180863
0.206011
0.233277
0.261771
0.290302
0.0259088
0.0486303
0.0622845
0.0713328
0.0778513
0.0827579
0.0865651
0.0895972
0.0921056
0.094342
0.0966079
0.0992938
0.103057
0.108949
0.117815
0.129963
0.145312
0.163622
0.184546
0.20773
0.232811
0.25932
0.286615
0.0264013
0.0486117
0.0623436
0.0712468
0.0775769
0.0822921
0.0859329
0.0888634
0.091396
0.0938751
0.09672
0.100403
0.105543
0.113061
0.123525
0.136775
0.152551
0.170667
0.190975
0.213471
0.23812
0.264666
0.293255
0.0273735
0.048924
0.06295
0.0717842
0.0780348
0.0826919
0.0863217
0.0893096
0.0920028
0.0948241
0.0983166
0.10303
0.109502
0.118602
0.130641
0.145153
0.161793
0.180443
0.201304
0.224993
0.251584
0.280377
0.313596
0.0294073
0.0500337
0.0644487
0.0731336
0.0793839
0.0841315
0.087927
0.091103
0.0940039
0.0971509
0.101287
0.107046
0.114745
0.125531
0.139424
0.155698
0.173914
0.193943
0.216692
0.244642
0.275108
0.305438
0.339473
0.0323214
0.0526559
0.0668176
0.0749436
0.0810809
0.0858206
0.0896357
0.0929228
0.0961087
0.0997669
0.104725
0.111723
0.120922
0.133065
0.148866
0.167673
0.18804
0.209436
0.232663
0.25884
0.285723
0.312863
0.343464
0.0344326
0.055975
0.0696104
0.0759931
0.0815975
0.0862772
0.0902903
0.0939728
0.0977096
0.102079
0.107904
0.115851
0.126215
0.139222
0.154993
0.173214
0.19317
0.214358
0.236803
0.261414
0.289184
0.317351
0.346059
0.0357244
0.0582988
0.0693162
0.0764168
0.0820486
0.0867167
0.0907719
0.0945971
0.0986599
0.103552
0.109951
0.11835
0.128873
0.14164
0.156855
0.174389
0.194011
0.215331
0.238186
0.262448
0.287547
0.312377
0.336025
0.0356953
0.0578337
0.0691175
0.076547
0.0821854
0.0867812
0.0908215
0.0947488
0.0990473
0.10428
0.111021
0.119673
0.130384
0.143176
0.158084
0.175077
0.193974
0.214417
0.235996
0.258228
0.280269
0.300783
0.318228
0.0352925
0.057571
0.069193
0.076741
0.0823133
0.086807
0.0907849
0.0947283
0.0991308
0.104519
0.111392
0.120104
0.1308
0.143488
0.158108
0.174535
0.192526
0.211641
0.231291
0.25077
0.269065
0.284757
0.296256
0.0349929
0.0577944
0.0695337
0.0769998
0.0824425
0.0868167
0.0907135
0.0946255
0.0990365
0.104436
0.111272
0.119867
0.130368
0.142766
0.156944
0.172686
0.18964
0.207257
0.224808
0.241427
0.256046
0.26736
0.274082
0.0347999
0.0581793
0.0699481
0.0772858
0.082581
0.0868287
0.0906313
0.0944759
0.0988264
0.104138
0.110818
0.119169
0.129334
0.141294
0.15489
0.169825
0.185648
0.201726
0.217254
0.231307
0.242857
0.250823
0.254308
0.034606
0.0584852
0.0702911
0.0775369
0.0827087
0.0868385
0.0905385
0.0942868
0.098525
0.103676
0.110118
0.118132
0.127855
0.139262
0.152164
0.16621
0.180885
0.195509
0.209264
0.221251
0.230555
0.236328
0.237995
0.0343423
0.0586242
0.0704945
0.0777036
0.0827936
0.0868262
0.0904227
0.0940533
0.0981384
0.103074
0.10921
0.11681
0.126007
0.13677
0.148897
0.162015
0.175581
0.188912
0.20122
0.211681
0.219509
0.224052
0.224944
0.0339971
0.0585925
0.0705415
0.0777567
0.0828032
0.0867612
0.0902581
0.0937558
0.0976559
0.102329
0.108102
0.115222
0.123818
0.133861
0.145154
0.157323
0.169839
0.182045
0.193209
0.202593
0.209532
0.213508
0.214268
0.0335884
0.0584182
0.0704427
0.0776863
0.0827152
0.0866163
0.0900179
0.0933724
0.0970627
0.101436
0.106797
0.11338
0.121309
0.130568
0.140972
0.152177
0.163685
0.17489
0.185128
0.193746
0.200167
0.203961
0.204925
0.0331399
0.0581367
0.0702216
0.077499
0.0825225
0.086377
0.0896862
0.0928906
0.0963539
0.1004
0.105312
0.111311
0.118522
0.126939
0.136408
0.146622
0.157137
0.167408
0.176841
0.184856
0.190947
0.194736
0.196032
0.0326721
0.057782
0.069908
0.0772137
0.0822339
0.0860455
0.0892636
0.0923147
0.0955421
0.0992458
0.103688
0.109075
0.115531
0.123067
0.131562
0.140756
0.150265
0.159613
0.168278
0.175745
0.181561
0.18538
0.187011
0.032201
0.0573856
0.0695348
0.0768588
0.0818717
0.0856399
0.0887677
0.0916662
0.0946578
0.0980185
0.101987
0.106756
0.112446
0.119084
0.126582
0.134733
0.143214
0.151621
0.1595
0.166399
0.171911
0.175714
0.177613
0.0317403
0.0569781
0.0691381
0.0764697
0.0814687
0.0851911
0.0882297
0.0909802
0.0937448
0.0967753
0.100287
0.104455
0.109396
0.115148
0.121655
0.128758
0.136198
0.143637
0.150692
0.156971
0.162109
0.165809
0.167873
0.0313048
0.0565936
0.0687591
0.0760894
0.081067
0.0847399
0.0876907
0.0903011
0.0928539
0.0955781
0.0986661
0.102274
0.106509
0.11142
0.116974
0.123055
0.129463
0.135925
0.142124
0.147726
0.152413
0.155913
0.158032
0.0309145
0.056275
0.0684482
0.0757696
0.0807171
0.0843351
0.0871989
0.0896777
0.0920374
0.0944861
0.0971943
0.100299
0.103897
0.108038
0.11271
0.117831
0.12325
0.128756
0.134092
0.138981
0.143153
0.146366
0.148435
0.0306021
0.0560831
0.0682711
0.0755738
0.0804787
0.0840327
0.0868068
0.0891608
0.0913456
0.0935513
0.0959284
0.0985954
0.101638
0.105103
0.108989
0.113241
0.11775
0.122355
0.126854
0.131027
0.134648
0.13751
0.139445
0.0304235
0.0561058
0.0683156
0.0755817
0.0804225
0.0838954
0.0865712
0.0888017
0.0908256
0.0928174
0.0949102
0.0972063
0.0997788
0.102669
0.105882
0.109379
0.113083
0.116872
0.120595
0.12408
0.127146
0.129621
0.131358
0.0304739
0.0564703
0.0686975
0.0758909
0.0806302
0.0839926
0.0865513
0.0886514
0.0905209
0.0923204
0.0941686
0.0961534
0.0983362
0.100752
0.103405
0.106271
0.109289
0.11237
0.115401
0.118252
0.120786
0.122865
0.124365
0.0309081
0.0573517
0.0695634
0.0766159
0.0811918
0.0843967
0.0868063
0.0887587
0.0904705
0.0920899
0.0937226
0.0954444
0.0973064
0.0993361
0.101537
0.103888
0.106342
0.10883
0.111268
0.113557
0.115599
0.117291
0.118534
0.0319607
0.0589753
0.0710827
0.077879
0.0821977
0.0851767
0.0873908
0.0891667
0.0907077
0.092149
0.093584
0.0950777
0.096672
0.0983882
0.100227
0.102167
0.10417
0.106177
0.10812
0.109927
0.111527
0.112851
0.113827
0.0339608
0.0616069
0.0734279
0.0797905
0.0837223
0.0863872
0.0883467
0.0899084
0.0912573
0.0925135
0.0937577
0.0950446
0.0964081
0.097864
0.0994097
0.101025
0.102671
0.104297
0.105841
0.107244
0.108454
0.109433
0.110137
0.0373447
0.0655319
0.0767379
0.082418
0.0858033
0.0880534
0.0896942
0.0910005
0.0921322
0.0931903
0.0942418
0.0953308
0.096484
0.0977127
0.0990127
0.100364
0.101729
0.103058
0.10429
0.105365
0.10624
0.106897
0.107325
0.0427047
0.0710268
0.0810671
0.0857485
0.088417
0.0901578
0.0914239
0.0924396
0.093331
0.0941764
0.0950268
0.0959158
0.0968632
0.0978773
0.0989539
0.100075
0.101208
0.102304
0.1033
0.104127
0.104732
0.105101
0.105259
0.0510223
0.0783161
0.0863185
0.0896511
0.0914625
0.0926335
0.0934948
0.0942013
0.0948385
0.0954586
0.0960959
0.096773
0.0975037
0.0982943
0.0991425
0.100036
0.10095
0.101845
0.10266
0.10332
0.103745
0.103899
0.103822
0.0644843
0.0874322
0.0921395
0.0938511
0.0947641
0.0953733
0.0958425
0.096247
0.0966294
0.0970164
0.0974261
0.0978709
0.0983591
0.0988952
0.0994795
0.100107
0.100767
0.101434
0.102072
0.102617
0.102981
0.10307
0.102875
0.0891715
0.097258
0.0977231
0.097928
0.0981031
0.0982569
0.0983975
0.098534
0.0986745
0.0988253
0.0989911
0.0991755
0.0993811
0.0996099
0.0998631
0.100141
0.100443
0.100766
0.101107
0.101454
0.101781
0.102008
0.102053
0.262665
0.241455
0.218419
0.1983
0.371982
0.357782
0.343405
0.334331
0.406139
0.411668
0.41427
0.416158
0.417169
0.435122
0.446532
0.451957
0.404357
0.423445
0.436858
0.444945
0.382644
0.400698
0.414728
0.424683
0.360405
0.377149
0.391181
0.402397
0.339999
0.355732
0.36984
0.382266
0.322726
0.337885
0.352359
0.366143
0.310753
0.32567
0.340653
0.355754
0.307047
0.322246
0.338004
0.354287
0.315975
0.332767
0.350293
0.367855
0.344209
0.363332
0.379248
0.395091
0.364432
0.378706
0.394053
0.411879
0.37113
0.39038
0.408028
0.423822
0.367785
0.381551
0.393865
0.404313
0.351875
0.360886
0.368152
0.373205
0.3279
0.332529
0.335213
0.335617
0.300786
0.301986
0.301297
0.298575
0.274915
0.273854
0.27117
0.266871
0.252946
0.250691
0.247127
0.242349
0.235651
0.232977
0.229255
0.224612
0.222421
0.2198
0.216317
0.212105
0.212013
0.209684
0.20661
0.202919
0.20314
0.201199
0.198589
0.195425
0.194777
0.193244
0.191098
0.188435
0.186266
0.185122
0.183412
0.181219
0.177312
0.176515
0.1752
0.173435
0.167928
0.167425
0.166453
0.16507
0.158346
0.158076
0.157391
0.156338
0.148917
0.14882
0.148361
0.147582
0.14001
0.140031
0.139743
0.139179
0.131939
0.132027
0.131856
0.13145
0.124906
0.12502
0.12492
0.124621
0.118995
0.119101
0.11903
0.118793
0.114178
0.114248
0.114172
0.113955
0.110352
0.11036
0.110246
0.110012
0.107378
0.1073
0.107115
0.106825
0.105122
0.10493
0.104636
0.104249
0.103468
0.10313
0.10269
0.102169
0.102285
0.101799
0.101205
0.10054
0.101337
0.100728
0.100024
0.0992877
0.203702
0.228747
0.2495
0.26445
0.277841
0.294679
0.319293
0.354927
0.403091
0.462317
0.528384
0.595487
0.656956
0.714177
0.673421
0.513242
0.320635
0.168922
0.0775366
0.329467
0.328778
0.327926
0.327494
0.33095
0.342714
0.367157
0.407792
0.466074
0.540379
0.626018
0.716208
0.80311
0.817245
0.676019
0.472112
0.276336
0.145892
0.0690982
0.413376
0.400215
0.386151
0.376388
0.375596
0.38808
0.417942
0.468694
0.541924
0.636002
0.746003
0.865898
0.938322
0.828115
0.627671
0.409152
0.232236
0.12889
0.0649577
0.449042
0.433001
0.41702
0.407811
0.410738
0.430408
0.471274
0.537317
0.630488
0.749334
0.88983
1.01002
0.952487
0.770394
0.545957
0.337576
0.193834
0.117802
0.0627567
0.448616
0.439217
0.429655
0.427965
0.440425
0.472373
0.52909
0.615341
0.733525
0.882804
1.03037
1.03144
0.888108
0.672074
0.447969
0.272164
0.166864
0.110018
0.0611893
0.43394
0.433366
0.433651
0.443287
0.469139
0.517358
0.594301
0.70539
0.853331
1.01141
1.05709
0.964122
0.775416
0.550911
0.35674
0.223281
0.148222
0.103929
0.0596336
0.416139
0.424493
0.435878
0.458914
0.500903
0.568913
0.669881
0.809303
0.965741
1.03753
0.99038
0.841261
0.635108
0.437122
0.284917
0.188814
0.135094
0.0986431
0.0578702
0.400064
0.417215
0.440311
0.478351
0.539264
0.629959
0.756922
0.903331
0.985002
0.971315
0.862603
0.688365
0.502796
0.344378
0.232465
0.165126
0.125397
0.0937536
0.0558847
0.387907
0.413778
0.449296
0.50456
0.586821
0.700391
0.831571
0.911525
0.918168
0.84281
0.704966
0.544103
0.39309
0.274638
0.195942
0.148751
0.117763
0.0891166
0.0537471
0.381153
0.415996
0.465141
0.539456
0.641716
0.756337
0.82771
0.843554
0.792322
0.687999
0.556979
0.423843
0.309249
0.225167
0.171033
0.137013
0.111365
0.0847067
0.0515459
0.382966
0.427043
0.48942
0.580459
0.684503
0.746755
0.763121
0.726166
0.647522
0.544632
0.433953
0.331332
0.249001
0.1913
0.153887
0.128095
0.105737
0.0805398
0.0493593
0.398206
0.450052
0.523048
0.618693
0.680017
0.692627
0.660526
0.597365
0.515845
0.426265
0.339177
0.264314
0.20747
0.168315
0.14163
0.120879
0.100639
0.0766434
0.0472468
0.426262
0.483916
0.554499
0.609523
0.626691
0.600212
0.54708
0.48007
0.40701
0.334794
0.270062
0.217773
0.179361
0.152407
0.132365
0.114726
0.0959589
0.0730437
0.0452494
0.446168
0.498883
0.534553
0.550002
0.535074
0.495293
0.441457
0.381683
0.322067
0.267515
0.22168
0.186201
0.160213
0.140928
0.124946
0.109297
0.0916568
0.0697634
0.0433926
0.447359
0.47045
0.477621
0.466878
0.439447
0.399633
0.352682
0.304301
0.259063
0.220049
0.188719
0.164847
0.146797
0.132206
0.118726
0.104429
0.0877314
0.0668176
0.0416891
0.418182
0.422815
0.410955
0.387286
0.357162
0.32161
0.283654
0.246992
0.21449
0.187628
0.166511
0.150168
0.137
0.125251
0.113357
0.100054
0.0841947
0.0642127
0.040142
0.377103
0.36814
0.346721
0.320602
0.292241
0.262551
0.233362
0.206761
0.184149
0.165892
0.151458
0.139764
0.12952
0.119498
0.108661
0.0961471
0.0810582
0.0619436
0.0387465
0.332409
0.316659
0.293469
0.268866
0.244265
0.22052
0.198683
0.179708
0.164015
0.151368
0.141048
0.132107
0.123585
0.114632
0.104547
0.0927011
0.078323
0.059995
0.0374926
0.291481
0.273744
0.252658
0.231245
0.210819
0.192156
0.175809
0.16206
0.150801
0.141558
0.133631
0.12626
0.118738
0.110473
0.100964
0.0897059
0.0759765
0.0583419
0.0363672
0.258429
0.241783
0.223552
0.205477
0.188699
0.173859
0.161226
0.150753
0.142116
0.134791
0.128168
0.121647
0.114708
0.106913
0.0978738
0.0871402
0.073992
0.0569534
0.0353561
0.233996
0.219469
0.203956
0.188723
0.174721
0.162483
0.152149
0.143556
0.136328
0.12998
0.123999
0.117913
0.111319
0.103872
0.0952354
0.0849697
0.0723326
0.0557954
0.0344449
0.216946
0.204534
0.191299
0.178245
0.166185
0.155586
0.146556
0.138925
0.132353
0.12642
0.120704
0.114824
0.108449
0.101282
0.0929986
0.0831485
0.0709546
0.0548337
0.0336208
0.205343
0.194659
0.183201
0.171747
0.160994
0.151378
0.143023
0.135809
0.129462
0.123639
0.117995
0.11221
0.105996
0.0990703
0.0911047
0.0816236
0.0698128
0.0540365
0.0328723
0.197043
0.187778
0.177711
0.167447
0.157597
0.148578
0.140556
0.13348
0.127152
0.121308
0.115662
0.109936
0.103865
0.0971645
0.0894908
0.0803404
0.0688636
0.0533759
0.0321905
0.190363
0.182299
0.173367
0.164051
0.154888
0.14629
0.138465
0.131434
0.125075
0.119191
0.113545
0.107891
0.10197
0.0954923
0.0880944
0.0792469
0.0680685
0.0528289
0.0315682
0.184121
0.17711
0.169166
0.160678
0.152127
0.143916
0.136291
0.129333
0.12299
0.117119
0.111525
0.105982
0.100235
0.0939884
0.0868597
0.0782979
0.0673947
0.0523768
0.0310007
0.177589
0.171535
0.164502
0.156805
0.148876
0.141105
0.133763
0.126978
0.12075
0.114984
0.109517
0.104139
0.0986006
0.092599
0.0857404
0.0774565
0.0668166
0.0520057
0.0304844
0.170433
0.165269
0.159106
0.152205
0.14495
0.137711
0.130768
0.124281
0.118289
0.112732
0.107472
0.102318
0.0970236
0.0912856
0.0847029
0.0766954
0.0663148
0.0517047
0.0300176
0.162638
0.158301
0.152979
0.146887
0.140362
0.133747
0.127319
0.121253
0.11561
0.110358
0.10538
0.100501
0.0954828
0.0900253
0.0837255
0.0759966
0.0658759
0.051466
0.0295987
0.154411
0.150833
0.146314
0.141029
0.13527
0.129348
0.123523
0.117971
0.112768
0.107895
0.103258
0.0986922
0.0939744
0.0888096
0.0827977
0.0753498
0.0654912
0.0512834
0.0292266
0.146088
0.143186
0.139411
0.134904
0.129914
0.124714
0.119541
0.11456
0.10985
0.105405
0.101142
0.0969131
0.0925076
0.0876405
0.0819178
0.0747508
0.0651557
0.0511522
0.0288999
0.138037
0.135713
0.132601
0.128813
0.124557
0.120067
0.11555
0.111155
0.106957
0.102955
0.0990785
0.0951923
0.0910996
0.0865273
0.0810893
0.0741999
0.064867
0.0510685
0.0286173
0.130581
0.128727
0.126179
0.123025
0.119435
0.115605
0.111711
0.107882
0.104182
0.100614
0.0971135
0.0935601
0.0897697
0.0854816
0.0803188
0.0736993
0.064624
0.051029
0.0283768
0.123946
0.122452
0.120358
0.117736
0.114723
0.111478
0.108146
0.104834
0.101596
0.0984306
0.0952829
0.0920415
0.088535
0.0845147
0.0796129
0.0732521
0.0644264
0.0510304
0.0281767
0.11824
0.116997
0.115248
0.113051
0.110515
0.107767
0.104923
0.102066
0.0992393
0.0964377
0.0936096
0.0906529
0.0874073
0.0836349
0.0789771
0.0728606
0.0642735
0.0510696
0.0280145
0.113458
0.112365
0.110858
0.108983
0.106829
0.104493
0.10206
0.0995948
0.0971258
0.0946445
0.0921012
0.0894005
0.0863916
0.0828463
0.0784139
0.0725257
0.0641641
0.0511429
0.0278878
0.109506
0.108472
0.107114
0.105476
0.103621
0.10162
0.0995323
0.0974009
0.0952421
0.093042
0.0907517
0.0882809
0.0854863
0.082148
0.0779229
0.0722462
0.0640952
0.051246
0.0277936
0.106247
0.105187
0.103903
0.102431
0.100813
0.0990875
0.0972916
0.0954479
0.0935606
0.09161
0.0895467
0.087284
0.0846845
0.0815353
0.0775002
0.0720181
0.0640621
0.0513727
0.0277285
0.103533
0.102376
0.10111
0.0997563
0.0983278
0.0968361
0.0952921
0.0937007
0.0920547
0.0903286
0.0884717
0.0863995
0.083979
0.0810029
0.0771407
0.0718356
0.0640573
0.0515144
0.0276877
0.101259
0.0999574
0.0986761
0.0974107
0.0961409
0.0948491
0.0935236
0.0921535
0.0907215
0.0891967
0.0875269
0.0856282
0.0833703
0.0805505
0.0768426
0.0716936
0.0640714
0.0516569
0.0276645
0.0994214
0.0979644
0.096663
0.0954709
0.0943318
0.0932028
0.092055
0.090866
0.0896112
0.0882552
0.0867437
0.0849927
0.0828736
0.0801858
0.0766068
0.0715862
0.0640901
0.0517764
0.0276462
0.0980971
0.0966186
0.0953466
0.0942191
0.0931671
0.092139
0.0910992
0.0900204
0.0888744
0.0876237
0.0862122
0.0845558
0.0825258
0.0799232
0.0764274
0.07149
0.0640769
0.0518307
0.0276031
)
;

boundaryField
{
    leftWall
    {
        type            kqRWallFunction;
        value           nonuniform List<scalar> 
50
(
0.00585737
0.0126163
0.0156303
0.0175473
0.0188712
0.0198314
0.0205533
0.0211212
0.0216383
0.0223532
0.0233242
0.0241495
0.0244793
0.0246214
0.0248131
0.0250612
0.0253268
0.0255956
0.0259088
0.0264013
0.0273735
0.0294073
0.0323214
0.0344326
0.0357244
0.0356953
0.0352925
0.0349929
0.0347999
0.034606
0.0343423
0.0339971
0.0335884
0.0331399
0.0326721
0.032201
0.0317403
0.0313048
0.0309145
0.0306021
0.0304235
0.0304739
0.0309081
0.0319607
0.0339608
0.0373447
0.0427047
0.0510223
0.0644843
0.0891715
)
;
    }
    rightWall
    {
        type            kqRWallFunction;
        value           nonuniform List<scalar> 
50
(
0.161895
0.19041
0.175465
0.155896
0.136757
0.119605
0.105015
0.0930872
0.0775366
0.0690982
0.0649577
0.0627567
0.0611893
0.0596336
0.0578702
0.0558847
0.0537471
0.0515459
0.0493593
0.0472468
0.0452494
0.0433926
0.0416891
0.040142
0.0387465
0.0374926
0.0363672
0.0353561
0.0344449
0.0336208
0.0328723
0.0321905
0.0315682
0.0310007
0.0304844
0.0300176
0.0295987
0.0292266
0.0288999
0.0286173
0.0283768
0.0281767
0.0280145
0.0278878
0.0277936
0.0277285
0.0276877
0.0276645
0.0276462
0.0276031
)
;
    }
    lowerWall
    {
        type            kqRWallFunction;
        value           nonuniform List<scalar> 
62
(
0.00585737
0.0118602
0.0163508
0.0197474
0.0226134
0.0252427
0.0278244
0.0304732
0.0332431
0.0361363
0.039115
0.0421167
0.0450701
0.0479329
0.0506175
0.0526884
0.0534608
0.0525923
0.0502374
0.0470826
0.0436494
0.0384558
0.0290586
0.0290586
0.046882
0.0610439
0.0737521
0.0854869
0.0957689
0.109906
0.147162
0.262665
0.241455
0.218419
0.1983
0.212263
0.291406
0.3051
0.29031
0.267576
0.244661
0.216406
0.182222
0.212263
0.275824
0.304584
0.298781
0.265379
0.222093
0.175729
0.156253
0.150723
0.154273
0.162878
0.172989
0.182916
0.193132
0.20422
0.215718
0.225435
0.221847
0.161895
)
;
    }
    atmosphere
    {
        type            inletOutlet;
        inletValue      uniform 0.1;
        value           nonuniform List<scalar> 
46
(
0.1
0.1
0.1
0.1
0.1
0.1
0.1
0.1
0.1
0.1
0.1
0.1
0.1
0.1
0.1
0.1
0.1
0.1
0.1
0.1
0.1
0.1
0.1
0.101337
0.100728
0.100024
0.0992877
0.0980971
0.0966186
0.0953466
0.0942191
0.0931671
0.092139
0.0910992
0.0900204
0.0888744
0.0876237
0.0862122
0.0845558
0.0825258
0.0799232
0.0764274
0.07149
0.0640769
0.0518307
0.0276031
)
;
    }
    defaultFaces
    {
        type            empty;
    }
}


// ************************************************************************* //
