/*--------------------------------*- C++ -*----------------------------------*\
  =========                 |
  \\      /  F ield         | OpenFOAM: The Open Source CFD Toolbox
   \\    /   O peration     | Website:  https://openfoam.org
    \\  /    A nd           | Version:  13
     \\/     M anipulation  |
\*---------------------------------------------------------------------------*/
FoamFile
{
    format      ascii;
    class       volScalarField;
    location    "0.2";
    object      nut;
}
// * * * * * * * * * * * * * * * * * * * * * * * * * * * * * * * * * * * * * //

dimensions      [0 2 -1 0 0 0 0];

internalField   nonuniform List<scalar> 
2268
(
5.12099e-05
7.30588e-05
8.5877e-05
9.44469e-05
0.000101127
0.000106886
0.000112237
0.000117446
0.000122628
0.000127787
0.000132865
0.000137776
0.000142426
0.000146788
0.00015081
0.000153959
0.000155287
0.000154213
0.000150814
0.000146064
0.000140685
0.000132016
0.000114451
0.000159144
0.000472749
0.000667605
0.00080694
0.000914859
0.00100236
0.00107477
0.0011347
0.00118357
0.00122248
0.00125256
0.00127498
0.00129072
0.00130268
0.00131522
0.0013239
0.00131328
0.00127297
0.00120705
0.00109835
0.000941458
0.000694307
0.000308393
0.000177261
0.000717831
0.0011319
0.00145851
0.00172653
0.00195044
0.00213765
0.00229203
0.00241611
0.00251242
0.00258422
0.00263501
0.00266771
0.00268897
0.00270962
0.00272477
0.00270668
0.00263254
0.00250506
0.00230277
0.00198791
0.00140131
0.000352163
0.000187895
0.000864623
0.00145268
0.00194658
0.00236764
0.00272733
0.00303191
0.00328514
0.00349003
0.00365016
0.00377051
0.00385648
0.00391208
0.00394562
0.00397245
0.0039912
0.00397057
0.00387617
0.00369479
0.0033917
0.00292135
0.00203398
0.000387059
0.000194909
0.000959511
0.00168028
0.0023138
0.00286949
0.00335255
0.00376624
0.00411336
0.00439704
0.00462162
0.00479341
0.00491923
0.00500362
0.00505473
0.00508922
0.00510929
0.00508523
0.00496938
0.00471237
0.00425639
0.0036342
0.00253282
0.000416705
0.000199846
0.00102309
0.00184473
0.00259239
0.00326316
0.00385485
0.00436688
0.00480052
0.00515862
0.00544601
0.00566998
0.00583837
0.00595624
0.00603104
0.00607717
0.00609663
0.00606259
0.0059107
0.00554041
0.00488752
0.00418316
0.00293345
0.0004421
0.000203482
0.00106589
0.00196501
0.00280523
0.00357266
0.00425813
0.00485713
0.005369
0.00579596
0.00614307
0.00641817
0.00662966
0.00678346
0.00688666
0.00694869
0.00696547
0.00691201
0.00670512
0.00620066
0.00535534
0.00457759
0.00328677
0.000469911
0.000206305
0.00109472
0.00205466
0.00296961
0.00381694
0.00458187
0.00525634
0.00583755
0.00632688
0.00672932
0.00705281
0.00730562
0.00749461
0.00762691
0.0077057
0.0077175
0.00763746
0.0073664
0.00673508
0.00574555
0.00479228
0.00371482
0.000540826
0.00030427
0.000345226
0.000359547
0.000358561
0.000339325
0.000314035
0.000280639
0.000264959
0.000260206
0.000262867
0.00026943
0.00027668
0.000282976
0.000288759
0.000295078
0.000302092
0.000308829
0.000310256
0.000275905
0.000841831
0.00116406
0.00156263
0.00163183
0.00154369
0.00134997
0.00129018
0.00134163
0.00146993
0.00164238
0.00178093
0.0018103
0.00171148
0.00153734
0.00136145
0.00120293
0.00102672
0.000778776
0.000721553
0.000865596
0.00143264
0.00192997
0.00212153
0.00181001
0.00153073
0.00168514
0.00201388
0.00248267
0.00300771
0.0034208
0.00356231
0.0033785
0.00294717
0.00243118
0.00192915
0.00143
0.000880873
0.000701524
0.000846807
0.00142724
0.00188891
0.00205398
0.00156233
0.00159982
0.00208244
0.00278354
0.00361702
0.00443917
0.00504766
0.00527794
0.00507041
0.0044581
0.00356296
0.00263076
0.00173078
0.000939701
0.000666293
0.00081406
0.00136108
0.00160537
0.00155838
0.00154738
0.00199805
0.00284584
0.00388142
0.00496542
0.00593082
0.00660119
0.00685704
0.00664775
0.00593241
0.00469286
0.00327194
0.00192055
0.000964346
0.000627095
0.000779838
0.00119421
0.0012665
0.00143436
0.00192126
0.00278569
0.00393281
0.00517606
0.00636086
0.007331
0.00796514
0.00819968
0.00798965
0.00721944
0.0057408
0.00382583
0.00208331
0.000976384
0.000587668
0.000736504
0.00093597
0.00121398
0.00178802
0.00265756
0.0037992
0.0051231
0.00646097
0.00764267
0.00853812
0.00909026
0.00928455
0.00907471
0.00828836
0.0066361
0.00430263
0.00221903
0.000984996
0.000549897
0.000678932
0.00101156
0.00163909
0.0025131
0.0035954
0.00488037
0.00629049
0.00764439
0.00875798
0.00954209
0.0100018
0.0101565
0.00995419
0.00920152
0.00742176
0.00470498
0.0023279
0.000994472
0.00051509
0.000208858
0.00112206
0.00214987
0.00315121
0.00409378
0.00495661
0.00572672
0.00639777
0.00696957
0.00744659
0.00783587
0.00814413
0.00838017
0.00855127
0.0086472
0.00864968
0.00853305
0.00818405
0.00742417
0.00630185
0.00515874
0.00427464
0.00179721
0.000212405
0.00115375
0.00225304
0.00333005
0.00435271
0.00529865
0.00615111
0.00690071
0.00754644
0.00809109
0.00853447
0.00887896
0.00913875
0.00932309
0.00942504
0.0094417
0.00932559
0.00896408
0.00821574
0.0071001
0.00586752
0.00477794
0.00339575
0.000217109
0.00122531
0.00237905
0.00349616
0.00455925
0.00554599
0.00643743
0.00722287
0.00789994
0.00846984
0.0089307
0.00928596
0.009553
0.00975011
0.00988728
0.0099498
0.0098832
0.00959642
0.00898869
0.00806222
0.00697703
0.00595368
0.00504017
0.000220889
0.00132297
0.00250254
0.00363603
0.00471326
0.00571335
0.00661707
0.0074118
0.00809207
0.00865902
0.00911834
0.00948013
0.00976206
0.00998666
0.0101687
0.0102962
0.0103246
0.0101875
0.0098273
0.00923554
0.00851
0.00779387
0.00728486
0.000222354
0.00135442
0.00255445
0.00370517
0.00479499
0.0058048
0.0067162
0.0075157
0.00819648
0.00875909
0.00921161
0.00957019
0.00985954
0.0101094
0.0103411
0.0105487
0.0107009
0.0107582
0.010703
0.0105261
0.010266
0.0100133
0.00993305
0.000222997
0.00133974
0.002561
0.00373516
0.0048419
0.00586074
0.00677423
0.00757043
0.00824402
0.00879728
0.00924126
0.00959683
0.00989494
0.0101721
0.0104556
0.0107475
0.011029
0.0112871
0.0115261
0.0117441
0.0119298
0.0121231
0.0124125
0.000223865
0.00132678
0.00255948
0.00374954
0.00486858
0.00589332
0.00680574
0.00759524
0.00825911
0.00880283
0.00924078
0.0095974
0.00990775
0.0102129
0.0105455
0.0109142
0.0113103
0.0117341
0.0121881
0.0126618
0.0131374
0.0136109
0.014096
0.000224983
0.00132418
0.0025649
0.003765
0.00489129
0.00591812
0.00682681
0.00760796
0.00826185
0.00879775
0.0092336
0.00959642
0.00992284
0.0102557
0.0106306
0.0110595
0.0115404
0.0120703
0.0126407
0.013233
0.0138245
0.0143987
0.0149447
0.000226174
0.00132508
0.00257321
0.00378183
0.004914
0.00594185
0.00684627
0.00761941
0.00826482
0.00879601
0.00923455
0.00960891
0.00995479
0.0103138
0.0107209
0.0111886
0.0117137
0.0122843
0.0128823
0.0134849
0.0140707
0.0146227
0.0151272
0.000227388
0.00132094
0.00257595
0.00379507
0.0049358
0.00596721
0.00686975
0.00763742
0.0082775
0.00880796
0.0092538
0.00964391
0.010011
0.0103929
0.0108204
0.0113029
0.0118311
0.012386
0.0129449
0.013486
0.0139929
0.0144543
0.0148628
0.000228836
0.00130292
0.00256562
0.00380128
0.00495724
0.00599794
0.00690336
0.00766994
0.00830902
0.00884293
0.00929958
0.00970725
0.0100944
0.0104936
0.0109294
0.0114043
0.0119033
0.0124046
0.0128864
0.0133322
0.0137325
0.0140859
0.0143971
0.000231165
0.00126271
0.00253945
0.00380321
0.00498471
0.00604264
0.00695726
0.00772831
0.0083714
0.00891261
0.00938177
0.00980593
0.0102083
0.0106155
0.0110473
0.0114991
0.011952
0.0123853
0.0127837
0.0131393
0.0134492
0.0137226
0.0139827
0.000235754
0.00119764
0.00250665
0.00381582
0.00503507
0.00611792
0.00704731
0.00782728
0.0084775
0.00902723
0.00950785
0.00994491
0.0103565
0.0107648
0.0111862
0.0116123
0.0120219
0.0123978
0.0127371
0.0130442
0.0133141
0.0135624
0.013848
0.000245229
0.00111715
0.00249122
0.0038636
0.00513109
0.00624492
0.00719319
0.00798316
0.00863839
0.00919238
0.00968
0.0101258
0.0105412
0.0109535
0.0113722
0.0117862
0.0121726
0.0125178
0.0128412
0.0131793
0.0134596
0.0136868
0.0139471
0.000256694
0.00110261
0.00253709
0.00397425
0.00528565
0.00642223
0.00737719
0.00816785
0.00882444
0.00938208
0.00987553
0.010331
0.0107572
0.0111714
0.0115989
0.0120289
0.0124156
0.0127411
0.0130309
0.0133006
0.0135043
0.0136634
0.0138474
0.000264711
0.00136797
0.00277246
0.0041747
0.00549075
0.00662827
0.00757827
0.00836272
0.00901435
0.00956971
0.010063
0.0105185
0.0109497
0.0113682
0.0117793
0.0121734
0.0125232
0.0128175
0.0130672
0.0132908
0.0134867
0.0136225
0.0137449
0.000269177
0.00153737
0.00298883
0.00441374
0.00572265
0.00684485
0.00777458
0.00853841
0.00917461
0.00972051
0.010207
0.0106552
0.0110758
0.0114748
0.0118568
0.0122171
0.0125432
0.012826
0.0130672
0.0132666
0.0134183
0.0135143
0.013571
0.000268768
0.00162359
0.00318437
0.00464157
0.00593739
0.00703429
0.00793777
0.00867848
0.00929612
0.00982847
0.0103051
0.0107453
0.011158
0.0115453
0.0119076
0.0122428
0.0125459
0.0128103
0.0130316
0.0132046
0.0133209
0.013376
0.0133772
0.000267261
0.00169768
0.00334162
0.00482738
0.00611162
0.00718492
0.00806343
0.00878148
0.00938027
0.00989778
0.0103628
0.0107931
0.0111963
0.0115737
0.0119237
0.0122446
0.0125329
0.0127831
0.0129884
0.0131415
0.0132339
0.0132596
0.0132209
0.000266199
0.00175956
0.003461
0.00496438
0.00624105
0.00729636
0.00815422
0.00885242
0.00943362
0.00993627
0.0103889
0.0108086
0.0112027
0.0115723
0.0119163
0.0122324
0.0125171
0.012764
0.0129642
0.0131089
0.0131892
0.013199
0.0131394
0.000265507
0.00180524
0.00354346
0.00505807
0.00632984
0.00737218
0.00821393
0.00889551
0.00946102
0.00994975
0.0103906
0.0108006
0.0111875
0.0115529
0.0118961
0.0122146
0.0125038
0.0127562
0.0129616
0.0131098
0.0131918
0.013202
0.013142
0.000264774
0.00183575
0.0035958
0.00511691
0.00638516
0.00741808
0.00824725
0.00891491
0.00946648
0.00994238
0.0103724
0.0107743
0.0111563
0.0115206
0.0118666
0.0121915
0.0124899
0.0127532
0.0129707
0.0131314
0.0132264
0.0132506
0.0132061
0.000263753
0.00185422
0.00362531
0.00514905
0.00641422
0.00743999
0.0082591
0.00891477
0.00945354
0.00991716
0.0103368
0.0107312
0.0111095
0.0114741
0.0118244
0.0121571
0.012466
0.0127422
0.0129746
0.0131522
0.0132661
0.0133115
0.0132901
0.000262412
0.00186358
0.00363779
0.00516094
0.00642291
0.0074429
0.00825362
0.00889857
0.00942508
0.00987625
0.0102848
0.0106712
0.0110452
0.0114096
0.0117633
0.0121024
0.0124205
0.0127083
0.0129548
0.0131493
0.0132829
0.0133506
0.013353
0.000260818
0.00186611
0.00363744
0.00515737
0.00641576
0.00743075
0.00823417
0.00886917
0.00938349
0.00982141
0.0102174
0.0105937
0.010961
0.0113226
0.0116769
0.0120195
0.0123433
0.0126393
0.0128967
0.0131051
0.0132558
0.0133432
0.0133666
0.000259059
0.00186352
0.00362746
0.00514202
0.00639634
0.00740675
0.00820358
0.00882912
0.00933108
0.00975462
0.0101359
0.0104989
0.010856
0.0112108
0.0115615
0.0119031
0.0122283
0.012528
0.0127919
0.0130099
0.0131733
0.0132764
0.0133169
0.000257212
0.00185722
0.00361043
0.00511799
0.00636777
0.00737384
0.00816458
0.00878102
0.00927042
0.00967844
0.0100427
0.010389
0.0107314
0.0110745
0.0114165
0.0117522
0.0120738
0.0123723
0.0126379
0.0128609
0.0130327
0.0131471
0.0132012
0.00025534
0.00184841
0.00358872
0.00508817
0.00633311
0.00733499
0.00812004
0.00872774
0.00920453
0.0095962
0.00994135
0.0102676
0.0105909
0.0109171
0.011245
0.0115693
0.0118823
0.0121748
0.0124375
0.0126609
0.0128368
0.0129588
0.013023
0.000253497
0.00183826
0.00356467
0.0050556
0.00629562
0.00729347
0.00807314
0.00867245
0.00913684
0.00951181
0.00983656
0.0101401
0.0104403
0.0107446
0.0110531
0.0113607
0.0116598
0.0119417
0.012197
0.0124167
0.0125927
0.0127187
0.0127903
0.000251747
0.00182795
0.00354081
0.00502367
0.00625906
0.00725301
0.00802743
0.00861861
0.00907092
0.00942935
0.00973327
0.0100127
0.0102869
0.0105653
0.0108493
0.0111351
0.0114156
0.0116821
0.0119257
0.0121376
0.0123102
0.0124369
0.012513
0.000250176
0.00181886
0.00352012
0.00499643
0.00622789
0.00721796
0.00798688
0.0085698
0.00901026
0.00935263
0.00963608
0.00989106
0.010138
0.0103879
0.010644
0.0109037
0.0111609
0.0114076
0.0116353
0.0118357
0.0120011
0.0121253
0.0122035
0.000248926
0.00181262
0.00350619
0.00497884
0.00620753
0.00719344
0.00795589
0.00852968
0.00895799
0.0092847
0.00954858
0.00978002
0.01
0.0102208
0.010447
0.0106778
0.0109082
0.0111314
0.0113394
0.0115245
0.0116794
0.011798
0.0118755
0.000248237
0.00181113
0.00350344
0.00497711
0.00620464
0.00718549
0.00793932
0.00850184
0.0089167
0.00922761
0.00947282
0.00968229
0.00987704
0.0100698
0.0102665
0.0104674
0.0106694
0.0108665
0.011052
0.0112187
0.0113599
0.01147
0.0115441
0.000248511
0.00181644
0.00351726
0.00499896
0.00622734
0.0072011
0.00794238
0.00848968
0.00888829
0.00918222
0.00940918
0.00959834
0.0097702
0.00993752
0.0101067
0.0102793
0.0104531
0.0106238
0.0107854
0.0109319
0.0110573
0.0111563
0.0112245
0.000250378
0.00183067
0.0035542
0.00505397
0.00628537
0.00724817
0.00797042
0.00849616
0.00887381
0.0091482
0.00935641
0.00952647
0.00967789
0.00982288
0.00996792
0.0101151
0.0102632
0.0104089
0.0105475
0.0106737
0.0107825
0.0108691
0.0109298
0.000254733
0.00185616
0.00362272
0.00515426
0.00639021
0.00733515
0.00802846
0.00852344
0.00887333
0.0091241
0.00931195
0.0094633
0.00959619
0.00972183
0.00984629
0.00997177
0.0100977
0.0102216
0.0103396
0.0104474
0.0105406
0.0106153
0.010668
0.000262709
0.00189684
0.00373534
0.00531591
0.00655523
0.00747035
0.00812033
0.00857231
0.00888573
0.00910754
0.00927239
0.0094045
0.00951989
0.00962839
0.00973529
0.00984262
0.00995008
0.0100557
0.0101565
0.0102489
0.0103292
0.0103941
0.0104403
0.000275572
0.00196159
0.00391352
0.00556183
0.00679578
0.00766068
0.00824741
0.00864143
0.00890853
0.00909545
0.00923412
0.00934567
0.0094436
0.00953602
0.00962721
0.00971883
0.00981063
0.00990107
0.00998778
0.0100679
0.0101387
0.0101974
0.010241
0.000294699
0.00207074
0.00419775
0.00592657
0.0071284
0.00790918
0.00840674
0.00872647
0.00893778
0.00908444
0.00919387
0.00928315
0.00936278
0.00943891
0.00951474
0.00959143
0.00966875
0.00974548
0.00981985
0.00988989
0.00995385
0.0100104
0.0100577
0.000322075
0.00227142
0.00466974
0.00646241
0.00756692
0.00821058
0.00858875
0.00881946
0.00896818
0.00907121
0.0091493
0.00921466
0.00927448
0.00933291
0.00939206
0.00945266
0.00951449
0.00957668
0.00963807
0.00969763
0.00975524
0.00981254
0.00987186
0.000362011
0.00269677
0.00551124
0.00724081
0.00810937
0.00854385
0.0087752
0.00890899
0.00899373
0.00905304
0.00909934
0.00913953
0.00917761
0.00921581
0.00925532
0.00929652
0.0093393
0.00938318
0.00942762
0.00947255
0.00951966
0.00957522
0.00965425
0.000425671
0.00398236
0.00717606
0.00831342
0.00870519
0.00886377
0.00893982
0.00898211
0.00900897
0.00902834
0.00904416
0.00905851
0.00907261
0.00908715
0.00910247
0.00911874
0.00913594
0.009154
0.00917292
0.00919319
0.00921708
0.00925363
0.00934147
0.000729377
0.000700542
0.000667313
0.000636878
0.00262748
0.00238619
0.00231331
0.00238886
0.00471963
0.00463765
0.00472484
0.00496971
0.00731871
0.00744954
0.00768841
0.00802613
0.0101681
0.0104106
0.0107065
0.0110188
0.0127529
0.0129963
0.0132487
0.0135084
0.0144689
0.0147121
0.0149441
0.0151633
0.0153153
0.0155419
0.0157458
0.0159243
0.01545
0.0156377
0.0158011
0.0159377
0.0151154
0.0152565
0.01538
0.0154855
0.0145919
0.0147011
0.0148048
0.0149026
0.0141632
0.0142741
0.0143934
0.0145109
0.0141056
0.0142425
0.0143471
0.014445
0.0141096
0.0141782
0.0142592
0.0143674
0.0140155
0.0141169
0.0142087
0.0142954
0.013834
0.0138888
0.0139387
0.0139837
0.013586
0.0135961
0.0136006
0.0135983
0.0133361
0.013306
0.0132684
0.0132224
0.01314
0.013081
0.0130136
0.012938
0.0130399
0.0129671
0.0128858
0.012797
0.0130439
0.0129709
0.0128891
0.0128
0.013122
0.0130566
0.0129816
0.0128985
0.0132244
0.0131694
0.0131027
0.0130263
0.0133053
0.0132602
0.0132018
0.0131316
0.0133343
0.0132979
0.013247
0.0131829
0.0132974
0.0132686
0.0132246
0.0131665
0.0131922
0.0131701
0.0131326
0.0130804
0.0130229
0.0130069
0.0129755
0.0129295
0.0127976
0.012787
0.0127614
0.0127216
0.0125265
0.0125207
0.0125007
0.012467
0.0122218
0.0122201
0.0122053
0.0121776
0.0118971
0.0118988
0.0118885
0.0118665
0.0115674
0.0115716
0.0115651
0.011548
0.0112479
0.0112534
0.0112496
0.0112365
0.0109515
0.0109574
0.0109551
0.0109448
0.0106872
0.0106926
0.0106909
0.0106823
0.0104575
0.0104623
0.0104609
0.0104531
0.0102586
0.010264
0.0102634
0.0102567
0.0100812
0.0100903
0.0100928
0.0100887
0.0099125
0.00993176
0.00994257
0.0099447
0.00973895
0.00978237
0.00981102
0.00982546
0.00956222
0.00965539
0.00971254
0.00974373
0.00102972
0.00172703
0.00261933
0.00366501
0.004886
0.00629114
0.00777089
0.00909369
0.010078
0.0107124
0.0110756
0.0112088
0.0110435
0.0103776
0.00840554
0.00524178
0.00246521
0.00102899
0.000461811
0.0029266
0.00374448
0.0047453
0.00589664
0.00720145
0.00861278
0.00994926
0.0109837
0.0116527
0.0120646
0.0123287
0.0124583
0.0123561
0.0114196
0.00885315
0.0053564
0.00247282
0.00110261
0.00042837
0.00568182
0.00652525
0.00748573
0.00858288
0.00980331
0.0110184
0.0120052
0.0126403
0.0130159
0.0132916
0.013535
0.0137146
0.0134148
0.0116969
0.00873265
0.00515647
0.0024325
0.00122493
0.000410621
0.00872147
0.0094805
0.0103305
0.0112902
0.0122879
0.0131412
0.0136946
0.0139906
0.0142083
0.0144679
0.0147677
0.0147971
0.0136825
0.0113861
0.00821537
0.00477811
0.00241822
0.00140642
0.000401271
0.0116079
0.012239
0.0129252
0.0136541
0.0143101
0.0147472
0.0149551
0.0150905
0.0153114
0.0156539
0.0158511
0.0151533
0.0133306
0.0106577
0.0074426
0.00440628
0.00253154
0.00161159
0.000395393
0.0139621
0.014442
0.0149239
0.0153681
0.0156776
0.0158159
0.015891
0.0160645
0.0164113
0.0166993
0.0162677
0.0148216
0.0124977
0.00962319
0.00667633
0.00421988
0.00275011
0.00179944
0.000390218
0.0155074
0.0158417
0.0161252
0.0163331
0.0164421
0.0165158
0.0166828
0.0170349
0.0173756
0.0171146
0.0159665
0.0139327
0.0113044
0.00857973
0.00611393
0.00422482
0.00303206
0.00193865
0.000384522
0.0161787
0.0164032
0.0165693
0.0166989
0.0168426
0.0170828
0.0174855
0.0178754
0.0177314
0.0168108
0.0150397
0.0126345
0.0100747
0.00772429
0.00580622
0.00438743
0.00332384
0.00201745
0.000377974
0.016127
0.0163167
0.0165066
0.0167622
0.0171539
0.0176892
0.0181664
0.0181252
0.0173815
0.0158454
0.0136719
0.0112761
0.00901284
0.0071483
0.00574363
0.00464737
0.00357546
0.00204066
0.000370682
0.0156489
0.0159014
0.0162619
0.0168012
0.0175337
0.0181821
0.0182816
0.0177021
0.016378
0.014442
0.0122358
0.0100741
0.00823869
0.00687533
0.00587112
0.00493396
0.00375426
0.00202112
0.000362908
0.0150861
0.0154785
0.0160855
0.0169362
0.0178273
0.0181629
0.017791
0.0166847
0.0149843
0.0129839
0.0109572
0.00916543
0.00780194
0.00686739
0.00610667
0.00518536
0.00384916
0.00197276
0.000354932
0.0147284
0.0152628
0.0160854
0.0170658
0.0176851
0.0176047
0.0167824
0.0153445
0.0135617
0.0116928
0.00997719
0.00861362
0.00768192
0.00704108
0.00636533
0.00536182
0.00386613
0.00190749
0.000346995
0.0146694
0.0152903
0.016125
0.0167899
0.017001
0.0165572
0.0154784
0.0139757
0.0123015
0.0106961
0.00935987
0.00840867
0.00779974
0.00729486
0.00658063
0.00544824
0.00382061
0.00183439
0.000339285
0.0146202
0.0151704
0.0157056
0.0160103
0.0159013
0.0152499
0.0141376
0.0127499
0.0113175
0.0100533
0.00909956
0.00847704
0.00804472
0.0075388
0.00671486
0.00544896
0.00373115
0.00176007
0.000331938
0.0144543
0.0147314
0.0149679
0.0149929
0.0146688
0.0139663
0.0129548
0.0117921
0.0106741
0.00976314
0.00912756
0.00870468
0.00830909
0.00771396
0.00675762
0.00538006
0.00361556
0.00168909
0.000325044
0.0140575
0.0141459
0.0141476
0.0139671
0.0135508
0.0128965
0.012063
0.0111747
0.0103754
0.00976101
0.00932975
0.00897284
0.00851601
0.00779609
0.00671811
0.00526247
0.00348886
0.00162441
0.000318653
0.0135849
0.0135169
0.0133676
0.0130915
0.0126822
0.0121435
0.01152
0.0108961
0.0103559
0.00993309
0.00958265
0.00919267
0.00862963
0.00778815
0.00661616
0.00511702
0.00336255
0.0015677
0.000312784
0.0131343
0.0129659
0.0127451
0.0124641
0.0121254
0.0117297
0.0112999
0.0108784
0.0104987
0.0101554
0.00979276
0.009321
0.00864845
0.00770896
0.00647476
0.00496152
0.00324452
0.00151965
0.000307426
0.0128029
0.0125919
0.0123573
0.0121182
0.0118694
0.0115993
0.0113064
0.0109995
0.0106827
0.0103371
0.00991567
0.0093544
0.00859128
0.00758301
0.00631504
0.00480934
0.00313944
0.00148022
0.00030255
0.0126425
0.0124226
0.0122081
0.0120182
0.0118389
0.0116451
0.0114173
0.0111466
0.0108262
0.0104386
0.00994917
0.00931246
0.00848408
0.00743348
0.0061536
0.00466924
0.00304943
0.00144888
0.000298115
0.012645
0.0124313
0.0122396
0.0120792
0.0119292
0.0117573
0.0115366
0.0112531
0.0108992
0.0104613
0.00991381
0.00922191
0.00835124
0.0072787
0.00600177
0.00454601
0.0029748
0.00142485
0.000294075
0.0127519
0.0125464
0.0123651
0.0122075
0.0120503
0.0118617
0.011616
0.0113001
0.010907
0.0104259
0.00983549
0.00910679
0.00821142
0.0071311
0.00586606
0.00444141
0.00291471
0.00140723
0.000290387
0.0128878
0.0126904
0.0125071
0.0123335
0.0121487
0.0119263
0.0116455
0.0112951
0.0108687
0.0103553
0.00973575
0.00898441
0.00807676
0.00699778
0.00574929
0.00435524
0.00286779
0.00139517
0.000287008
0.0130011
0.0128084
0.0126163
0.0124197
0.0122025
0.0119449
0.0116315
0.0112527
0.0108015
0.0102664
0.00962875
0.00886515
0.00795377
0.00688177
0.00565175
0.00428622
0.00283252
0.00138795
0.000283906
0.0130605
0.012871
0.0126697
0.0124521
0.0122071
0.0119211
0.0115828
0.0111841
0.0107169
0.010169
0.00952197
0.00875396
0.00784494
0.00678348
0.0055724
0.00423265
0.00280746
0.00138495
0.000281054
0.0130527
0.0128675
0.0126603
0.0124282
0.0121641
0.0118591
0.0115052
0.0110951
0.0106202
0.0100673
0.00941838
0.00865232
0.00775038
0.00670189
0.00550954
0.00419279
0.0027914
0.00138573
0.000278433
0.0129761
0.0127974
0.0125893
0.0123503
0.0120764
0.0117621
0.0114017
0.0109885
0.0105135
0.00996286
0.00931851
0.00855995
0.00766905
0.00663545
0.00546143
0.00416511
0.00278335
0.00138991
0.000276034
0.0128352
0.0126656
0.0124616
0.0122229
0.0119477
0.011633
0.0112743
0.0108657
0.0103976
0.00985583
0.00922211
0.00847604
0.00759968
0.00658259
0.00542648
0.00414828
0.00278249
0.00139721
0.00027385
0.0126379
0.0124797
0.0122842
0.0120521
0.011783
0.0114752
0.0111257
0.0107284
0.0102736
0.0097468
0.00912909
0.00839995
0.00754119
0.00654197
0.00540335
0.00414122
0.00278813
0.00140737
0.000271878
0.0123941
0.0122494
0.0120661
0.0118455
0.0115883
0.0112939
0.0109595
0.0105796
0.0101438
0.00963702
0.00903997
0.00833149
0.00749283
0.00651254
0.00539094
0.00414298
0.00279967
0.00142013
0.000270116
0.0121153
0.0119857
0.0118173
0.0116122
0.0113716
0.0110954
0.0107812
0.0104233
0.010011
0.00952854
0.00895579
0.00827085
0.00745417
0.00649347
0.00538828
0.00415273
0.00281652
0.00143525
0.000268562
0.0118146
0.0117007
0.0115492
0.0113622
0.0111415
0.0108871
0.0105968
0.0102645
0.00987901
0.00942381
0.00887791
0.00821846
0.00742493
0.00648405
0.0053945
0.00416965
0.00283813
0.00145246
0.000267211
0.0115056
0.0114072
0.0112733
0.0111061
0.0109072
0.0106769
0.0104128
0.0101082
0.00975146
0.00932524
0.0088076
0.00817467
0.00740477
0.00648357
0.00540875
0.00419296
0.00286392
0.0014715
0.000266058
0.0112021
0.0111181
0.0110013
0.0108539
0.0106776
0.0104722
0.0102349
0.00995886
0.00963151
0.00923477
0.00874578
0.00813955
0.00739322
0.00649119
0.00543012
0.00422185
0.00289332
0.00149208
0.000265094
0.0109164
0.0108445
0.0107431
0.0106144
0.0104598
0.0102787
0.0100679
0.00981979
0.00952129
0.00915353
0.00869272
0.00811276
0.00738949
0.00650595
0.00545761
0.00425546
0.00292572
0.00151391
0.000264311
0.0106578
0.0105949
0.0105063
0.0103939
0.010259
0.0101004
0.00991448
0.00969283
0.00942177
0.00908173
0.00864804
0.00809349
0.0073925
0.00652666
0.0054901
0.00429287
0.00296047
0.00153665
0.000263697
0.0104308
0.0103739
0.0102948
0.0101959
0.0100779
0.0099394
0.00977591
0.00957851
0.00933289
0.00901881
0.0086108
0.00808049
0.00740087
0.00655192
0.00552628
0.00433299
0.00299682
0.00155994
0.00026324
0.0102359
0.0101827
0.0101102
0.0100216
0.00991752
0.0097962
0.00965241
0.00947665
0.00925408
0.00896388
0.00857978
0.00807231
0.00741297
0.00658004
0.0055646
0.0043745
0.00303381
0.00158325
0.000262924
0.0100709
0.0100207
0.00995271
0.00987167
0.00977867
0.0096715
0.0095444
0.00938739
0.00918513
0.00891631
0.00855396
0.00806753
0.00742707
0.00660914
0.00560314
0.00441567
0.00307006
0.00160581
0.000262725
0.00993403
0.00988803
0.00982371
0.00974829
0.00966369
0.0095676
0.00945395
0.00931233
0.00912709
0.00887651
0.00853302
0.00806512
0.00744148
0.00663702
0.00563947
0.00445412
0.0031035
0.00162623
0.00026261
0.00982797
0.00978863
0.00972798
0.00965674
0.00957804
0.00948981
0.00938583
0.00925554
0.00908307
0.00884645
0.00851765
0.00806444
0.00745436
0.00666091
0.00567029
0.00448646
0.00313101
0.00164205
0.000262519
0.00976267
0.00973137
0.00967435
0.00960592
0.00953051
0.00944647
0.00934767
0.00922353
0.00905816
0.00882948
0.00850924
0.00806476
0.00746296
0.00667642
0.00569033
0.00450762
0.00314892
0.00165175
0.000262308
)
;

boundaryField
{
    leftWall
    {
        type            nutkWallFunction;
        Cmu             0.09;
        kappa           0.41;
        E               9.8;
        value           nonuniform List<scalar> 
50
(
5.43061e-06
1.52321e-05
1.67934e-05
1.77024e-05
1.82991e-05
1.87177e-05
1.90253e-05
1.92631e-05
1.94779e-05
2.04961e-05
2.44416e-05
2.48353e-05
2.49906e-05
2.50571e-05
2.51465e-05
2.52617e-05
2.53844e-05
2.55077e-05
2.56505e-05
2.58733e-05
2.63266e-05
2.60899e-05
2.77317e-05
2.88695e-05
2.95463e-05
2.95312e-05
2.93216e-05
2.91648e-05
2.90634e-05
2.89612e-05
2.88217e-05
2.86381e-05
2.84194e-05
2.81777e-05
2.79236e-05
2.76655e-05
2.74112e-05
2.71687e-05
2.69499e-05
2.67736e-05
2.66723e-05
2.6701e-05
2.69463e-05
2.75331e-05
2.86187e-05
3.03759e-05
3.29837e-05
3.66872e-05
4.20187e-05
5.03579e-05
)
;
    }
    rightWall
    {
        type            nutkWallFunction;
        Cmu             0.09;
        kappa           0.41;
        E               9.8;
        value           nonuniform List<scalar> 
50
(
2.97707e-05
8.36806e-05
8.02906e-05
7.55974e-05
7.0676e-05
6.59258e-05
6.15742e-05
5.7757e-05
5.23411e-05
4.91432e-05
4.74935e-05
4.65923e-05
4.59396e-05
4.52825e-05
4.45258e-05
4.36581e-05
4.27043e-05
4.16994e-05
4.0677e-05
3.96646e-05
3.86837e-05
3.77496e-05
3.68726e-05
3.60584e-05
3.53086e-05
3.46218e-05
3.39943e-05
3.3421e-05
3.28964e-05
3.24151e-05
3.19723e-05
3.15638e-05
3.11867e-05
3.08391e-05
3.05198e-05
3.02284e-05
2.99647e-05
2.97287e-05
2.95201e-05
2.93386e-05
2.91833e-05
2.90535e-05
2.89479e-05
2.88652e-05
2.88036e-05
2.87609e-05
2.87342e-05
2.87189e-05
2.87069e-05
2.86786e-05
)
;
    }
    lowerWall
    {
        type            nutkWallFunction;
        Cmu             0.09;
        kappa           0.41;
        E               9.8;
        value           nonuniform List<scalar> 
62
(
5.43061e-06
7.48698e-06
8.66447e-06
9.44125e-06
1.00416e-05
1.05569e-05
1.10351e-05
1.15013e-05
1.19657e-05
1.24289e-05
1.28852e-05
1.33262e-05
1.37438e-05
1.41346e-05
1.44897e-05
1.47566e-05
1.48548e-05
1.47444e-05
1.444e-05
1.40198e-05
1.35448e-05
1.27859e-05
1.12607e-05
1.12607e-05
2.77298e-05
3.12722e-05
3.40937e-05
3.64893e-05
3.85331e-05
4.10363e-05
4.69052e-05
7.02725e-05
7.13594e-05
6.81774e-05
6.52452e-05
3.51233e-05
0.000103445
0.000105808
0.000103253
9.91795e-05
9.48729e-05
8.92394e-05
7.87226e-05
3.51233e-05
4.0935e-05
4.31978e-05
3.96761e-05
3.74921e-05
3.45505e-05
3.10351e-05
2.94115e-05
2.89332e-05
2.92463e-05
2.99825e-05
3.08182e-05
3.16043e-05
3.23985e-05
3.32361e-05
3.40786e-05
3.48181e-05
3.68764e-05
2.97707e-05
)
;
    }
    atmosphere
    {
        type            calculated;
        value           nonuniform List<scalar> 
46
(
0.009
0.009
0.009
0.009
0.009
0.009
0.009
0.009
0.009
0.009
0.009
0.009
0.009
0.009
0.009
0.009
0.009
0.009
0.009
0.009
0.009
0.009
0.009
0.00956222
0.00965539
0.00971254
0.00974373
0.00976267
0.00973137
0.00967435
0.00960592
0.00953051
0.00944647
0.00934767
0.00922353
0.00905816
0.00882948
0.00850924
0.00806476
0.00746296
0.00667642
0.00569033
0.00450762
0.00314892
0.00165175
0.000262308
)
;
    }
    defaultFaces
    {
        type            empty;
    }
}


// ************************************************************************* //
