/*--------------------------------*- C++ -*----------------------------------*\
  =========                 |
  \\      /  F ield         | OpenFOAM: The Open Source CFD Toolbox
   \\    /   O peration     | Website:  https://openfoam.org
    \\  /    A nd           | Version:  13
     \\/     M anipulation  |
\*---------------------------------------------------------------------------*/
FoamFile
{
    format      ascii;
    class       volScalarField;
    location    "0.2";
    object      p;
}
// * * * * * * * * * * * * * * * * * * * * * * * * * * * * * * * * * * * * * //

dimensions      [1 -1 -2 0 0 0 0];

internalField   nonuniform List<scalar> 
2268
(
10093.4
10145.4
10188.5
10216.3
10212.1
10171.2
10091.5
9971.97
9812.41
9613.19
9375.72
9102.74
8799.24
8478.33
8168.49
7886.7
7606.79
7334.98
7255.8
7722.71
9221.48
11795.1
18138.5
9288.49
9324.37
9345.05
9353.29
9332.94
9277.36
9182.86
9047.39
8870.08
8651.32
8392.94
8098.35
7772.59
7426.9
7091.52
6794.81
6523
6279.91
6234.6
6746.54
8289.96
10894.5
17608.8
8483.8
8517.68
8520.53
8507.42
8466.27
8390.58
8276.13
8120.39
7922.33
7682.5
7403.18
7088.34
6742.3
6372.62
6014.41
5711.99
5453.75
5222.34
5171.93
5633.62
7066.35
9315.9
15960.1
7677.74
7717.55
7708.1
7676.22
7614.7
7518.23
7382.73
7205.62
6985.89
6724.25
6423.5
6088.05
5719.96
5320.43
4936.48
4638.48
4400.86
4156.63
4039.76
4338.39
5406.22
6974.74
13316.4
6870.61
6919.75
6903.05
6856.97
6778.11
6662.75
6507.41
6309.68
6068.66
5785.19
5462.71
5105.92
4711.69
4269.81
3853.13
3578.89
3389.41
3131.99
2889.91
2868.01
3321.44
4051.89
9834.12
6062.97
6122.32
6101.05
6044.31
5950.97
5818.65
5644.58
5426.62
5163.87
4857.18
4511.4
4132.76
3710.27
3218.83
2780.9
2571.34
2483.29
2279.07
2044.97
2012.88
2267.5
2292.15
6443.19
5251.52
5320.44
5295.14
5229.73
5123.78
4975.84
4783.99
4546.49
4262.64
3933.39
3567.49
3179.68
2756.23
2276.48
1937.41
1846.32
1859.22
1784.91
1731.04
1794.13
1978.79
1887.68
3924.56
4419.75
4498.67
4469.98
4397.56
4281.4
4121.26
3917.15
3669.27
3378.56
3047.88
2692.99
2350.58
2024.04
1734.67
1626.84
1607.29
1609.88
1592.49
1617.52
1699.51
1858.13
1803.65
2796.73
-69.5298
-70.5497
-69.6702
-59.8011
-8.40134
328.726
651.058
736.636
739.242
698.561
628.1
525.708
395.68
255.038
142.099
77.1401
33.4712
13.1587
15.6679
-69.8264
-71.0274
-71.4644
-71.1739
-58.4536
196.489
549.726
642.966
651.819
618.831
552.642
454.968
329.623
193.081
81.2031
22.5057
11.6785
12.2607
14.8274
-70.1478
-70.9162
-70.6867
-71.2095
-60.6231
137.495
475.03
564.892
575.679
545.538
481.027
387.298
268.77
137.863
38.9478
11.253
10.1494
12.1423
13.8378
-70.5005
-71.0744
-71.3215
-69.2048
-60.2105
138.822
403.891
490.619
503.166
474.684
412.079
322.161
206.651
79.3565
13.3012
8.64154
9.80686
11.4503
12.7881
-70.7412
-71.145
-71.1508
-65.2153
-47.4698
131.504
336.79
419.502
433.564
406.919
347.477
261.284
146.013
33.2293
8.57954
8.39358
9.55289
10.7559
11.8249
-70.8469
-71.1451
-71.183
-71.745
-31.5782
117.65
279.146
354.461
368.79
344.222
288.722
204.967
90.7065
11.4992
7.43679
8.30213
9.23783
10.1459
10.9939
-70.7146
-71.2718
-75.6441
-74.4808
-15.9832
103.938
231.288
296.803
310.074
287.469
235.598
151.643
45.2574
8.39832
7.13656
8.09398
8.86647
9.59627
10.2709
-72.8732
-80.0115
-93.2405
-69.6023
-6.88822
90.0109
190.229
245.041
256.055
234.691
184.845
99.9889
16.4205
6.79416
6.93113
7.76689
8.46019
9.07685
9.62828
3108.32
3205.3
3178.18
3103.27
2984.7
2827.55
2641.73
2439.35
2232.28
2035.49
1882.88
1769.24
1667.88
1588.39
1566.68
1552.99
1525.03
1490.34
1498.92
1563.24
1655.51
1663.81
967.293
1851.31
1911.72
1895.32
1863.55
1815.07
1753.65
1687.14
1622.06
1559.91
1507.43
1484.09
1481.98
1480.42
1472.14
1437.48
1397.38
1360.02
1335.91
1337.43
1361.45
1381.42
1341.06
990.778
1341.23
1361.78
1360.75
1365.75
1373.35
1382.88
1393.8
1404.86
1413.85
1418.64
1409.38
1386.81
1354.24
1313.09
1269.75
1227.25
1186.86
1161.56
1162.59
1166.18
1152.42
1089.73
907.596
1219.22
1237.15
1249.02
1261.08
1271.63
1279.65
1284.15
1283.87
1277.44
1263.96
1244.47
1219.07
1186.94
1148.5
1106.69
1062.57
1016.7
989.692
990.164
988.637
964.755
902.077
775.059
1088.12
1099.18
1108.21
1116.91
1124.08
1128.96
1130.74
1128.39
1120.79
1107.11
1087.45
1061.81
1029.79
991.709
948.588
900.948
854.395
837.344
838.836
832.314
805.482
750.302
658.06
955.396
963.816
970.82
977.081
981.662
983.991
983.426
979.203
970.474
956.44
936.532
910.361
877.718
838.763
793.66
743.913
708.795
703.151
702.835
692.24
665.227
617.865
546.97
820.444
827.667
833.215
837.655
840.211
840.44
837.859
831.919
821.99
807.375
787.376
761.406
729.016
689.671
643.499
599.449
582.632
581.356
577.778
564.256
537.971
496.763
439.707
683.93
690.275
694.477
697.256
697.935
696.247
691.912
684.605
673.912
659.279
640.038
615.505
584.686
545.928
501.53
473.871
469.435
468.192
461.668
446.701
421.688
385.797
339.334
546.689
552.38
555.273
556.516
555.433
551.961
546.047
537.627
526.546
512.485
494.978
473.352
445.629
409.301
375.056
365.062
364.353
361.659
353.145
337.543
313.967
282.326
243.46
409.091
414.584
416.16
416.005
413.247
408.036
400.559
391.06
379.759
366.768
352.128
335.43
313.424
284.167
267.057
265.669
265.17
260.65
250.55
234.172
211.209
181.983
147.552
270.944
277.341
277.241
275.701
271.3
264.392
255.397
244.902
233.565
222.103
211.51
202.426
190.061
173.921
170.072
170.731
169.386
163.183
151.301
133.472
110.556
83.6023
53.2692
135.008
144.447
142.378
139.804
134.565
126.96
117.243
106.66
96.4207
87.4268
81.3386
80.8471
79.7834
78.0544
80.8604
81.7298
79.0425
71.9584
59.7917
43.3748
26.005
11.2151
0.838651
39.0895
43.9644
41.2136
39.744
37.6111
34.7515
30.0584
25.0575
20.3878
16.3509
13.6549
14.3921
16.1115
18.5755
20.0699
19.2367
16.4346
12.7372
8.04893
4.50723
1.79086
0.981434
0.904906
2.53962
4.30458
3.44944
3.34584
3.13024
3.04684
3.12324
3.20533
3.27305
3.34977
3.4861
3.60049
3.62994
3.15604
3.49939
3.5449
3.08592
2.6555
2.24261
1.95573
1.90121
2.09694
2.69028
3.09621
3.46742
3.39321
3.40175
3.39846
3.37576
3.36964
3.3641
3.35044
3.33452
3.32383
3.31302
3.2926
3.25601
3.08163
2.89201
2.7879
2.80549
3.00057
3.09745
3.01341
2.90457
2.77223
3.10852
3.24161
3.23037
3.24327
3.23754
3.22591
3.21885
3.21411
3.20869
3.20189
3.19343
3.17911
3.15978
3.14052
3.14475
3.13743
3.11202
3.06782
2.99437
2.85986
2.74125
2.64195
2.54227
3.0436
3.09769
3.09156
3.09757
3.09272
3.08662
3.08202
3.07929
3.07597
3.07082
3.06204
3.04593
3.01986
2.98821
2.95939
2.92466
2.88172
2.83155
2.76616
2.67475
2.58461
2.5043
2.43016
2.95135
2.96828
2.96588
2.96964
2.96489
2.96051
2.9572
2.95387
2.94933
2.94226
2.93095
2.91296
2.88683
2.85344
2.81616
2.77406
2.72812
2.67854
2.62279
2.55551
2.48434
2.41416
2.3494
2.84396
2.8464
2.8453
2.84477
2.84152
2.83788
2.83405
2.82955
2.82347
2.81471
2.80201
2.78387
2.75947
2.7292
2.69399
2.6544
2.6109
2.56346
2.51146
2.45347
2.39198
2.33083
2.27529
2.7301
2.72694
2.72443
2.72195
2.71857
2.71474
2.71037
2.70501
2.69796
2.68838
2.67534
2.65789
2.63547
2.60812
2.57624
2.5401
2.49998
2.45605
2.40836
2.35707
2.30389
2.25173
2.20598
2.61371
2.60793
2.6038
2.6
2.59606
2.59183
2.58703
2.58121
2.57377
2.56405
2.55133
2.53496
2.51449
2.48982
2.46108
2.42846
2.39225
2.35281
2.31056
2.26617
2.22101
2.17743
2.14056
2.49592
2.48889
2.48359
2.47884
2.47435
2.46975
2.46468
2.45869
2.45127
2.44187
2.42992
2.41492
2.39652
2.37456
2.34908
2.32024
2.28835
2.25384
2.21734
2.17966
2.14192
2.10603
2.07661
2.37712
2.3696
2.36358
2.35822
2.35334
2.3485
2.34333
2.33742
2.33031
2.32154
2.31064
2.29723
2.28101
2.26184
2.2397
2.21476
2.18731
2.15781
2.12691
2.09543
2.06429
2.03506
2.01166
2.25749
2.24988
2.2435
2.23783
2.23275
2.22783
2.22274
2.21709
2.2105
2.20257
2.19291
2.18121
2.16722
2.15082
2.13199
2.11088
2.08775
2.06304
2.03737
2.01147
1.98608
1.96247
1.94387
2.13708
2.12963
2.12317
2.11741
2.1123
2.10747
2.1026
2.09738
2.09146
2.08449
2.07617
2.06621
2.05443
2.04071
2.02504
2.00754
1.98846
1.96817
1.94722
1.9262
1.90574
1.88681
1.87206
2.01594
2.0088
2.00246
1.99678
1.9918
1.98719
1.98267
1.97798
1.97282
1.96689
1.95992
1.95169
1.94201
1.93081
1.91807
1.90389
1.88847
1.87214
1.85533
1.83854
1.82223
1.80719
1.79552
1.89409
1.88736
1.88127
1.87582
1.87109
1.8668
1.86273
1.85865
1.85429
1.84941
1.84377
1.83717
1.82946
1.82056
1.81047
1.79926
1.78709
1.77422
1.76098
1.74777
1.73494
1.7231
1.71392
1.77159
1.76531
1.75958
1.75445
1.75006
1.74617
1.74261
1.73917
1.73563
1.73177
1.72739
1.7223
1.71638
1.70956
1.70182
1.69321
1.68385
1.67394
1.66374
1.65354
1.6436
1.63438
1.62722
1.64846
1.64267
1.63735
1.63261
1.62862
1.62519
1.62217
1.61938
1.61664
1.61376
1.61054
1.60683
1.60251
1.59752
1.59182
1.58545
1.5785
1.5711
1.56345
1.55575
1.5482
1.54114
1.53562
1.52475
1.51947
1.51458
1.51028
1.50673
1.50378
1.50131
1.49918
1.49721
1.49522
1.49306
1.49058
1.48767
1.48427
1.48033
1.47587
1.47094
1.46565
1.46012
1.45449
1.44891
1.44361
1.43944
1.4005
1.39571
1.39129
1.38744
1.38434
1.3819
1.37999
1.37849
1.37723
1.37607
1.37486
1.37346
1.37178
1.36973
1.36729
1.36444
1.36122
1.35767
1.35389
1.34997
1.346
1.34216
1.33907
1.27576
1.27145
1.26749
1.26409
1.26146
1.25952
1.25816
1.25726
1.25668
1.25626
1.25588
1.25542
1.25479
1.25391
1.25273
1.25123
1.24941
1.24732
1.24498
1.24246
1.23981
1.23714
1.23496
1.15057
1.14669
1.14318
1.14023
1.13807
1.13663
1.13581
1.13548
1.13551
1.13576
1.13611
1.13647
1.13672
1.13682
1.1367
1.13633
1.13569
1.13478
1.13363
1.13227
1.1307
1.12902
1.12757
1.025
1.02144
1.01839
1.01586
1.01418
1.01324
1.01294
1.01314
1.01372
1.01456
1.01555
1.0166
1.01761
1.01853
1.0193
1.01986
1.02019
1.02028
1.02011
1.0197
1.01904
1.01817
1.01734
0.899103
0.895689
0.89312
0.891004
0.889788
0.889342
0.889534
0.890231
0.891312
0.892668
0.894205
0.89584
0.897499
0.899112
0.900618
0.901965
0.903109
0.904016
0.904667
0.905049
0.905149
0.904976
0.904681
0.773018
0.769361
0.76735
0.765645
0.764903
0.764943
0.765602
0.766747
0.768266
0.770069
0.772076
0.774215
0.776418
0.778619
0.780752
0.782758
0.784583
0.786183
0.787525
0.788583
0.789337
0.789766
0.789964
0.646974
0.642272
0.641056
0.639776
0.639526
0.640042
0.641133
0.642674
0.644572
0.646757
0.649166
0.651736
0.654405
0.657107
0.659775
0.662343
0.664751
0.666944
0.668881
0.67053
0.671869
0.672886
0.673564
0.521159
0.514189
0.514271
0.513407
0.51366
0.514633
0.516109
0.517986
0.520204
0.522714
0.525467
0.528409
0.531481
0.534617
0.537746
0.540801
0.543713
0.546424
0.548888
0.551074
0.552973
0.55458
0.55585
0.395098
0.384931
0.38714
0.386602
0.387312
0.388688
0.390483
0.392635
0.395119
0.397907
0.400959
0.404227
0.407652
0.411165
0.414697
0.418173
0.421524
0.424691
0.427627
0.430307
0.432744
0.435034
0.43714
0.268248
0.253057
0.259506
0.259353
0.260443
0.262128
0.26417
0.266543
0.269252
0.272282
0.2756
0.279156
0.282891
0.286733
0.29061
0.294445
0.298166
0.301717
0.305055
0.308161
0.311117
0.314327
0.318016
0.144669
0.110732
0.129447
0.13103
0.132781
0.134802
0.137085
0.139667
0.142585
0.145836
0.149391
0.153199
0.157198
0.161315
0.165471
0.169588
0.173593
0.177431
0.181077
0.184551
0.188171
0.193362
0.20128
0.0455742
-0.0501537
-0.00576146
0.000360091
0.00381273
0.00655288
0.00921633
0.012066
0.0152162
0.0186918
0.0224707
0.0265049
0.0307296
0.0350696
0.0394431
0.043768
0.0479718
0.0520154
0.0559414
0.0599715
0.0649374
0.0743781
0.0973127
-1381.93
-1238.29
-791.999
-497.313
488.725
263.267
174.121
125.789
589.145
387.833
267.129
197.496
594.757
480.009
396.17
328.313
543.898
465.117
397.978
338.562
464.552
406.802
356.124
308.961
377.358
334.192
295.926
259.337
291.111
257.87
228.298
199.972
205.064
178.753
155.596
134.185
115.162
92.738
74.0719
61.2357
23.7464
5.1346
-5.62279
-2.81288
-4.06533
-4.03875
-3.73161
-1.35371
0.190205
0.593594
1.37054
1.66101
2.87512
2.83328
2.72651
2.59319
2.56545
2.44463
2.36822
2.32977
2.44058
2.38723
2.34222
2.30239
2.37011
2.33225
2.29516
2.25924
2.30143
2.27094
2.24129
2.21138
2.23666
2.21243
2.18924
2.16511
2.17596
2.15704
2.13898
2.11977
2.11758
2.10285
2.08878
2.0736
2.05909
2.04761
2.03661
2.02473
1.99825
1.98924
1.98054
1.97125
1.93352
1.92638
1.91944
1.91217
1.86402
1.85832
1.85275
1.84705
1.78925
1.78468
1.78019
1.77572
1.70905
1.70539
1.70176
1.69823
1.62344
1.62051
1.61759
1.61479
1.53271
1.53039
1.52804
1.5258
1.43723
1.4354
1.43352
1.43173
1.33744
1.33601
1.33452
1.33308
1.23377
1.23267
1.23152
1.23036
1.12676
1.12595
1.12504
1.12411
1.01685
1.01625
1.01557
1.01482
0.904456
0.904061
0.903541
0.902931
0.789947
0.789701
0.789339
0.788834
0.673735
0.673628
0.673353
0.672907
0.55619
0.556147
0.555921
0.555458
0.43772
0.437689
0.43736
0.436764
0.318792
0.318538
0.317906
0.31702
0.200032
0.198608
0.197403
0.196669
0.103601
0.0968711
0.0898797
0.0844287
-137.018
-130.513
-105.707
-57.1279
-0.236754
68.6495
135.594
174.847
181.786
160.724
110.795
38.9993
6.8524
5.72673
6.66068
7.28714
7.86215
8.33567
8.73014
51.7971
2.45114
-10.4219
-1.76509
21.0659
54.899
89.1369
108.975
108.182
85.063
39.7912
7.25144
4.57459
5.15017
5.95177
6.58181
7.12075
7.4953
7.75939
138.518
80.9204
46.2398
30.6012
30.3887
40.4775
52.6072
57.6899
50.8787
29.5524
7.55832
3.85125
3.97743
4.65089
5.31587
5.90845
6.41048
6.73669
6.93706
227.559
144.575
87.7203
51.6238
32.6206
24.6599
21.1483
17.7809
12.7582
5.68614
3.33125
3.46891
3.8099
4.30356
4.83763
5.35645
5.7963
6.08707
6.24786
250.085
166.248
100.909
54.0535
23.0699
3.2926
-6.84693
-5.04816
2.22182
2.9029
3.22221
3.40074
3.65939
4.04046
4.48807
4.9326
5.30497
5.54964
5.67833
236.988
159.956
92.8346
39.9712
1.4508
-20.6801
-18.9461
-1.6037
2.54792
3.02496
3.12031
3.27636
3.51257
3.84338
4.22773
4.60317
4.91137
5.11154
5.21189
202.593
133.902
67.0227
10.6595
-25.2713
-26.7203
-4.28595
2.28865
2.8924
2.93983
3.01028
3.16569
3.39605
3.69426
4.02393
4.33687
4.58956
4.75118
4.82779
155.704
93.8621
27.4049
-21.9565
-28.2342
-5.15516
2.12667
2.82349
2.81591
2.8205
2.92266
3.08686
3.30882
3.57435
3.8554
4.1156
4.32173
4.45066
4.50776
100.918
46.0328
-10.1205
-24.0037
-4.42644
2.04845
2.80057
2.74249
2.6994
2.75474
2.86837
3.03234
3.23781
3.47185
3.71165
3.92781
4.09495
4.19649
4.23783
45.4408
8.65956
-14.6789
-3.48613
2.00045
2.79775
2.69966
2.6158
2.63624
2.71261
2.83193
2.98805
3.17528
3.3813
3.58558
3.76448
3.89908
3.9781
4.00713
10.0172
3.47094
-0.459983
2.129
2.77166
2.67207
2.56381
2.55488
2.6008
2.68493
2.8016
2.94799
3.11778
3.29822
3.47125
3.61854
3.72624
3.78716
3.80682
3.27147
4.12406
2.66301
2.77777
2.66502
2.53821
2.5027
2.52085
2.5757
2.66048
2.77288
2.90924
3.06193
3.21856
3.36413
3.48481
3.57054
3.61716
3.62983
1.95716
2.64656
2.69677
2.591
2.49342
2.45369
2.4547
2.4886
2.54931
2.63486
2.74288
2.86877
3.00459
3.13933
3.26109
3.35961
3.42761
3.46309
3.4706
2.42477
2.34482
2.36916
2.37359
2.36908
2.37914
2.40649
2.45337
2.52031
2.60645
2.70933
2.8242
2.94371
3.05874
3.16017
3.24041
3.29422
3.32107
3.3248
2.29851
2.24722
2.25762
2.27229
2.29352
2.32204
2.36317
2.41891
2.48967
2.57448
2.67081
2.77418
2.87828
2.9759
3.06017
3.12544
3.16796
3.18815
3.18908
2.24784
2.20943
2.20692
2.21881
2.24267
2.27861
2.32649
2.38619
2.45721
2.53817
2.6265
2.71819
2.80807
2.89055
2.96042
3.01346
3.04699
3.06199
3.06088
2.20855
2.1771
2.16985
2.1798
2.20544
2.24422
2.29401
2.35355
2.42165
2.49664
2.57599
2.65625
2.73327
2.80269
2.86051
2.90354
2.92989
2.94084
2.93819
2.16975
2.14435
2.13863
2.14903
2.17519
2.21373
2.26209
2.31853
2.38149
2.44915
2.51918
2.58867
2.65424
2.71245
2.76017
2.79497
2.81554
2.82328
2.81949
2.13183
2.11232
2.10911
2.12081
2.14628
2.18262
2.22748
2.27901
2.33555
2.39533
2.45627
2.51587
2.57136
2.61995
2.65918
2.68719
2.70308
2.70826
2.7036
2.09343
2.07955
2.07867
2.09085
2.11459
2.14759
2.18782
2.23355
2.28322
2.33518
2.38758
2.43828
2.48493
2.52528
2.55736
2.57975
2.59183
2.59492
2.58963
2.05273
2.04315
2.04422
2.05606
2.07743
2.10655
2.14172
2.18146
2.22435
2.26892
2.31351
2.35627
2.39522
2.42851
2.45457
2.47229
2.48122
2.48264
2.47686
2.00824
2.00144
2.00367
2.01462
2.03334
2.05844
2.0886
2.12255
2.15907
2.19685
2.23441
2.27016
2.30243
2.32969
2.35067
2.3645
2.37086
2.3709
2.36478
1.9584
1.95346
1.95606
1.96573
1.9817
2.00293
2.02836
2.05695
2.08765
2.1193
2.15063
2.18025
2.20675
2.22887
2.24557
2.25617
2.2604
2.25934
2.25298
1.90216
1.8985
1.90099
1.90918
1.92249
1.94012
1.96122
1.98496
2.01043
2.03665
2.0625
2.08679
2.10835
2.12611
2.13922
2.14712
2.14961
2.14764
2.14115
1.83919
1.83635
1.83845
1.84513
1.85596
1.87031
1.88753
1.90695
1.92781
1.94926
1.97034
1.99006
2.0074
2.02148
2.03158
2.03724
2.0383
2.03562
2.02907
1.76951
1.76715
1.76872
1.77394
1.7825
1.79393
1.80773
1.82336
1.84019
1.8575
1.87449
1.89029
1.90405
1.91503
1.92262
1.92644
1.92634
1.9231
1.91658
1.69327
1.69119
1.69218
1.69606
1.7026
1.71148
1.72231
1.73465
1.748
1.76176
1.77524
1.78772
1.79848
1.80687
1.81238
1.81468
1.81366
1.81002
1.80356
1.61079
1.60887
1.60931
1.612
1.6168
1.62347
1.63174
1.64127
1.65166
1.6624
1.67292
1.6826
1.69084
1.69707
1.70088
1.70196
1.70022
1.69628
1.68997
1.52253
1.52071
1.52066
1.52232
1.52563
1.53043
1.53654
1.5437
1.55158
1.55977
1.56781
1.57516
1.5813
1.58576
1.58817
1.58828
1.586
1.58189
1.57576
1.42901
1.42725
1.42678
1.42758
1.42964
1.43289
1.43719
1.44236
1.44815
1.45422
1.46019
1.46561
1.47003
1.47305
1.47434
1.4737
1.47103
1.46682
1.46093
1.3308
1.32908
1.32825
1.32834
1.32939
1.33135
1.33416
1.33769
1.34175
1.34608
1.35034
1.35418
1.3572
1.35906
1.35947
1.35826
1.35533
1.35114
1.3455
1.22844
1.22675
1.22564
1.22516
1.22537
1.22629
1.22789
1.23008
1.23274
1.23564
1.23852
1.24107
1.24297
1.24392
1.24366
1.24203
1.23897
1.23484
1.22953
1.12247
1.12082
1.11948
1.11854
1.11808
1.11817
1.11879
1.11991
1.12143
1.12318
1.12495
1.12649
1.1275
1.12774
1.12699
1.1251
1.12199
1.11802
1.11303
1.01341
1.01177
1.01025
1.00894
1.00796
1.00739
1.00724
1.00751
1.00813
1.00897
1.00987
1.01061
1.01095
1.01067
1.00957
1.00754
1.00449
1.00071
0.996084
0.901693
0.900058
0.898373
0.896772
0.895385
0.894298
0.89356
0.893175
0.893099
0.893242
0.893466
0.893598
0.893441
0.892799
0.891506
0.889441
0.886527
0.883004
0.878747
0.787718
0.786056
0.784228
0.782391
0.780689
0.779218
0.778037
0.777163
0.776569
0.77619
0.775919
0.775615
0.775115
0.774253
0.77288
0.770883
0.768183
0.764952
0.761107
0.671822
0.67009
0.668118
0.66609
0.664154
0.662411
0.66092
0.659702
0.658745
0.658001
0.657388
0.656794
0.656088
0.655128
0.653784
0.651949
0.649529
0.646659
0.643222
0.554287
0.552415
0.550294
0.548115
0.546023
0.54411
0.54243
0.541003
0.53982
0.538849
0.538028
0.537273
0.536478
0.535529
0.534312
0.532725
0.530663
0.528186
0.525205
0.435319
0.433228
0.430956
0.428672
0.426505
0.424526
0.422773
0.421259
0.419978
0.418904
0.417995
0.41719
0.41641
0.415567
0.414567
0.413311
0.411676
0.409667
0.407145
0.315335
0.312938
0.310424
0.308009
0.305788
0.303795
0.302041
0.300525
0.299235
0.298154
0.297253
0.296495
0.295829
0.295195
0.294518
0.29371
0.292629
0.291173
0.2892
0.195754
0.192627
0.189406
0.186547
0.184063
0.181919
0.180078
0.17851
0.177195
0.176117
0.175264
0.174619
0.174164
0.173868
0.173687
0.173547
0.173291
0.172704
0.17155
0.0768436
0.0709681
0.0670315
0.0640008
0.0615542
0.0595284
0.0578278
0.0564014
0.0552233
0.0542828
0.0535789
0.0531153
0.0528967
0.0529228
0.0531819
0.0536358
0.0541699
0.0545356
0.0543641
)
;

boundaryField
{
    leftWall
    {
        type            calculated;
        value           nonuniform List<scalar> 
50
(
10093.4
9288.49
8483.8
7677.74
6870.61
6062.97
5251.52
4419.75
3108.32
1851.31
1341.23
1219.22
1088.12
955.396
820.444
683.93
546.689
409.091
270.944
135.008
39.0895
2.53962
3.09621
3.10852
3.0436
2.95135
2.84396
2.7301
2.61371
2.49592
2.37712
2.25749
2.13708
2.01594
1.89409
1.77159
1.64846
1.52475
1.4005
1.27576
1.15057
1.025
0.899103
0.773018
0.646974
0.521159
0.395098
0.268248
0.144669
0.0455742
)
;
    }
    rightWall
    {
        type            calculated;
        value           nonuniform List<scalar> 
50
(
15.6679
14.8274
13.8378
12.7881
11.8249
10.9939
10.2709
9.62828
8.73014
7.75939
6.93706
6.24786
5.67833
5.21189
4.82779
4.50776
4.23783
4.00713
3.80682
3.62983
3.4706
3.3248
3.18908
3.06088
2.93819
2.81949
2.7036
2.58963
2.47686
2.36478
2.25298
2.14115
2.02907
1.91658
1.80356
1.68997
1.57576
1.46093
1.3455
1.22953
1.11303
0.996084
0.878747
0.761107
0.643222
0.525205
0.407145
0.2892
0.17155
0.0543641
)
;
    }
    lowerWall
    {
        type            calculated;
        value           nonuniform List<scalar> 
62
(
10491.5
10543.5
10586.7
10614.5
10610.2
10569.3
10489.6
10370.1
10210.6
10011.3
9773.87
9500.89
9197.39
8876.47
8566.64
8284.85
8004.94
7733.13
7653.95
8120.86
9619.63
12193.3
18529.6
18138.5
17608.8
15960.1
13316.4
9834.12
6443.19
3924.56
2796.73
-1320.86
-1206.99
-760.7
-466.014
-69.5298
-69.8264
-70.1478
-70.5005
-70.7412
-70.8469
-70.7146
-72.8732
-69.5004
-70.5203
-69.4336
-53.7106
2.49705
341.121
664.605
749.954
752.01
710.884
640.39
538.36
410.157
269.752
156.814
91.8548
42.8718
13.4638
15.6974
)
;
    }
    atmosphere
    {
        type            calculated;
        value           nonuniform List<scalar> 
46
(
-0.0352434
-0.0722433
-0.065298
-0.0625556
-0.0601302
-0.0577216
-0.0551162
-0.0522074
-0.048953
-0.0453555
-0.0414475
-0.0372825
-0.0329292
-0.0284671
-0.0239838
-0.019573
-0.0153335
-0.011369
-0.00779041
-0.00472303
-0.00231577
-0.000738227
-7.71776e-05
0
0
0
0
0
0
0
0
0
0
0
0
0
0
0
0
0
0
0
0
0
0
0
)
;
    }
    defaultFaces
    {
        type            empty;
    }
}


// ************************************************************************* //
