/*--------------------------------*- C++ -*----------------------------------*\
  =========                 |
  \\      /  F ield         | OpenFOAM: The Open Source CFD Toolbox
   \\    /   O peration     | Website:  https://openfoam.org
    \\  /    A nd           | Version:  13
     \\/     M anipulation  |
\*---------------------------------------------------------------------------*/
FoamFile
{
    format      ascii;
    class       volScalarField;
    location    "0.2";
    object      p_rgh;
}
// * * * * * * * * * * * * * * * * * * * * * * * * * * * * * * * * * * * * * //

dimensions      [1 -1 -2 0 0 0 0];

internalField   nonuniform List<scalar> 
2268
(
10491.5
10543.5
10586.7
10614.5
10610.2
10569.3
10489.6
10370.1
10210.6
10011.3
9773.87
9500.89
9197.39
8876.47
8566.64
8284.85
8004.94
7733.13
7653.95
8120.86
9619.63
12193.3
18529.6
10482.9
10518.8
10539.5
10547.7
10527.4
10471.8
10377.3
10241.8
10064.5
9845.77
9587.39
9292.8
8967.04
8621.35
8285.97
7989.26
7717.45
7474.36
7429.05
7940.99
9484.41
12089
18782.1
10474.5
10508.4
10511.3
10498.2
10457
10381.3
10266.9
10111.1
9913.08
9673.25
9393.93
9079.09
8733.05
8363.37
8005.16
7702.74
7444.49
7213.07
7162.68
7624.37
9057.1
11306.7
17944.4
10464.8
10504.6
10495.1
10463.3
10401.7
10305.3
10169.8
9992.67
9772.94
9511.3
9210.55
8875.1
8507
8107.48
7723.53
7425.53
7187.9
6943.57
6826.63
7125.33
8193.24
9761.78
16103.5
10454
10503.1
10486.4
10440.3
10361.5
10246.1
10090.8
9893.03
9652.01
9368.54
9046.06
8689.27
8295.04
7853.15
7436.48
7162.23
6972.76
6715.24
6375.06
5972.92
5763.18
7268.39
13366.7
10442.6
10502
10480.7
10424
10330.6
10198.3
10024.2
9806.27
9543.52
9236.82
8891.05
8512.41
8089.92
7598.48
7160.54
6950.98
6862.46
6110.45
4007.24
2553.05
2517.87
3151.69
10372
10427.5
10496.4
10471.1
10405.7
10299.7
10151.8
9959.93
9722.44
9438.59
9109.34
8743.44
8355.63
7932.18
7300.53
6243.74
5777.66
5722.52
3722.41
1981.79
1985.42
2170.09
2078.97
8580.36
10392
10470.9
10442.2
10369.8
10253.6
10093.5
9889.4
9641.52
9350.81
9020.13
8665.24
8152.03
7178.38
5043.86
2950.59
2462.56
2495.26
2237.19
1882.31
1920.23
2078.85
2024.37
8170.16
-69.5004
-70.5203
-69.4336
-53.7106
2.49705
341.121
664.605
749.954
752.01
710.884
640.39
538.36
410.157
269.752
156.814
91.8548
42.8718
13.4638
15.6974
-69.7381
-70.9392
-71.3761
-71.0856
-53.4142
227.178
593.87
687.11
695.963
662.975
596.786
499.112
373.767
237.225
125.347
56.6896
16.9723
12.349
14.9157
-70.0006
-70.7691
-70.5396
-71.0624
-58.2
196.472
548.603
638.466
649.253
619.111
554.6
460.872
342.343
211.437
98.1061
23.3197
10.2965
12.2894
13.985
-70.2944
-70.8684
-71.1155
-68.9988
-23.0138
237.32
506.894
593.622
606.168
577.687
515.081
425.164
309.654
167.504
33.1351
8.84756
10.0129
11.6564
12.9941
-70.4763
-70.8801
-70.8859
-64.363
49.5949
263.936
469.222
551.934
565.996
539.352
479.909
393.717
278.445
102.597
10.4314
8.65846
9.81776
11.0208
12.0898
-70.5231
-70.8214
-70.8592
6.23511
128.458
279.512
441.007
516.322
530.651
506.084
450.583
366.828
239.397
48.2032
7.76052
8.62586
9.56157
10.4696
11.3176
-70.3321
-70.8892
-16.8773
103.473
175.308
295.229
422.579
488.094
501.365
478.76
426.888
342.934
164.317
15.4439
7.51917
8.4766
9.24906
9.97886
10.6535
-71.3781
-6.90132
112.396
151.118
213.832
310.731
410.95
465.761
476.775
455.411
405.565
310.802
75.2464
7.23562
7.37263
8.20838
8.90164
9.51829
10.0697
10318.1
10422.2
10395.5
10320.5
10197.2
10008.4
9721.48
9289.21
8655.31
7767.05
6480.72
5062.91
3634.07
2287.26
2100.15
2087.08
2047.19
1829.02
1788.95
1831.94
1922.25
1930.55
2510.02
6806.27
7345.14
7531.5
7381.07
6938.73
6215.8
5308.83
4319.84
3354.15
2450.05
2142.75
2140.64
2139.08
2130.8
2096.15
2056.04
2018.68
1775.17
1668.6
1692.91
1711.2
1670.39
1320.11
2125.09
2145.63
2144.61
2149.61
2157.2
2166.74
2177.65
2188.72
2197.71
2202.5
2193.24
2170.67
2138.09
2096.94
2053.61
2011.11
1970.71
1692.59
1555.95
1559.9
1544.7
1481.65
1299.52
2128.27
2146.21
2158.07
2170.13
2180.68
2188.7
2193.2
2192.92
2186.49
2173.01
2153.52
2128.12
2095.99
2057.55
2015.75
1971.62
1885.4
1532.72
1444.71
1443.29
1419.44
1356.64
1229.58
2122.36
2133.43
2142.46
2151.16
2158.33
2163.21
2164.98
2162.64
2155.04
2141.36
2121.7
2096.05
2064.03
2025.95
1982.83
1935.19
1692.42
1367.1
1355.96
1349.44
1322.61
1267.43
1175.18
2114.84
2123.26
2130.26
2136.52
2141.1
2143.43
2142.87
2138.64
2129.91
2115.88
2095.97
2069.8
2037.16
1998.2
1953.1
1860.75
1415.2
1282.87
1282.55
1271.96
1244.95
1197.58
1126.69
2105.08
2112.3
2117.85
2122.29
2124.85
2125.07
2122.49
2116.55
2106.62
2092.01
2072.01
2046.04
2013.65
1974.31
1928.13
1610.09
1236.37
1223.67
1220.09
1206.57
1180.29
1139.08
1082.02
2093.76
2100.1
2104.31
2107.09
2107.76
2106.08
2101.74
2094.43
2083.74
2069.11
2049.87
2025.33
1994.5
1955.72
1832.86
1295.6
1174.35
1173.11
1166.58
1151.62
1126.6
1090.71
1044.25
2081.71
2087.4
2090.3
2091.54
2090.46
2086.98
2081.07
2072.65
2061.57
2047.51
2030
2008.38
1980.58
1944.24
1493.49
1134.56
1131.87
1129.17
1120.66
1105.05
1081.48
1049.84
1010.97
2069.31
2074.8
2076.38
2076.22
2073.46
2068.25
2060.78
2051.28
2039.98
2026.99
2012.35
1995.65
1973.58
1773.5
1173.86
1095.78
1095.28
1090.76
1080.66
1064.28
1041.32
1012.09
977.661
2056.36
2062.75
2062.65
2061.11
2056.71
2049.8
2040.81
2030.31
2018.98
2007.52
1996.92
1987.84
1974.75
1445.32
1062.79
1063.44
1062.09
1055.89
1044.01
1026.18
1003.26
976.308
945.975
2045.62
2055.05
2052.99
2050.41
2045.17
2037.57
2024.83
2000.71
1955.42
1886.01
1805.04
1803.32
1812.42
1292.74
1036.68
1037.03
1034.35
1027.26
1015.1
998.678
968.877
900.774
769.332
1249.27
1347.84
1407.82
1402.59
1353.58
1238.88
1072.85
876.197
674.237
489.27
346.395
348.368
422.814
639.931
817.85
880.728
879.151
848.873
770.13
621.29
419.004
224.829
56.661
4.70069
6.46558
10.8471
9.76943
5.29123
5.20784
5.28424
5.36635
5.43408
5.51077
5.6471
5.76149
11.0121
5.32474
66.4477
112.37
114.525
92.0272
40.476
4.11678
4.06222
4.25793
4.85128
5.3824
5.75361
5.6794
5.68794
5.68465
5.66195
5.65583
5.65029
5.63663
5.62071
5.61002
5.59921
5.5788
5.5422
5.57724
5.31659
5.11353
5.09903
5.28804
5.3838
5.29962
5.19076
5.05842
5.51991
5.65299
5.64175
5.65466
5.64893
5.6373
5.63024
5.62549
5.62007
5.61327
5.60482
5.5905
5.57118
5.55191
5.55612
5.54881
5.52815
5.47985
5.40582
5.27125
5.15264
5.05334
4.95369
5.58018
5.63427
5.62814
5.63415
5.6293
5.6232
5.6186
5.61587
5.61255
5.6074
5.59862
5.58251
5.55645
5.5248
5.49597
5.46123
5.4183
5.36813
5.30274
5.21133
5.12119
5.04093
4.96772
5.61312
5.63006
5.62765
5.63141
5.62666
5.62228
5.61897
5.61564
5.61111
5.60404
5.59273
5.57473
5.54861
5.51522
5.47794
5.43583
5.38989
5.34031
5.28456
5.21729
5.14611
5.07607
5.01194
5.63093
5.63337
5.63226
5.63174
5.62849
5.62485
5.62101
5.61652
5.61043
5.60168
5.58898
5.57084
5.54644
5.51617
5.48096
5.44137
5.39787
5.35043
5.29843
5.24044
5.17895
5.1178
5.06226
5.64226
5.63911
5.63659
5.63411
5.63074
5.6269
5.62253
5.61718
5.61012
5.60055
5.5875
5.57005
5.54764
5.52029
5.48841
5.45226
5.41214
5.36821
5.32052
5.26923
5.21605
5.16389
5.11814
5.65107
5.64528
5.64115
5.63736
5.63342
5.62919
5.62439
5.61856
5.61112
5.6014
5.58869
5.57231
5.55185
5.52718
5.49844
5.46582
5.42961
5.39017
5.34792
5.30353
5.25837
5.21478
5.17792
5.65847
5.65144
5.64614
5.64139
5.6369
5.6323
5.62723
5.62124
5.61383
5.60442
5.59248
5.57747
5.55907
5.53711
5.51163
5.48279
5.4509
5.41639
5.37989
5.34221
5.30447
5.26858
5.23916
5.66487
5.65734
5.65132
5.64597
5.64109
5.63625
5.63108
5.62517
5.61806
5.60928
5.59839
5.58498
5.56876
5.54958
5.52745
5.50251
5.47505
5.44555
5.41466
5.38318
5.35204
5.32281
5.29941
5.67043
5.66282
5.65644
5.65077
5.64569
5.64077
5.63568
5.63003
5.62344
5.61551
5.60585
5.59415
5.58016
5.56376
5.54494
5.52382
5.50069
5.47599
5.45032
5.42441
5.39902
5.37541
5.35681
5.67522
5.66776
5.66131
5.65554
5.65044
5.6456
5.64074
5.63551
5.62959
5.62263
5.6143
5.60435
5.59257
5.57884
5.56318
5.54568
5.52659
5.50631
5.48535
5.46434
5.44387
5.42495
5.4102
5.67927
5.67213
5.66579
5.66011
5.65513
5.65052
5.646
5.64131
5.63615
5.63022
5.62325
5.61502
5.60534
5.59414
5.5814
5.56722
5.5518
5.53547
5.51866
5.50187
5.48556
5.47052
5.45885
5.68261
5.67588
5.6698
5.66435
5.65962
5.65533
5.65126
5.64717
5.64282
5.63794
5.6323
5.62569
5.61799
5.60909
5.599
5.58779
5.57561
5.56274
5.54951
5.53629
5.52347
5.51163
5.50244
5.68531
5.67903
5.67329
5.66817
5.66378
5.65989
5.65633
5.65289
5.64935
5.64549
5.64111
5.63602
5.6301
5.62328
5.61554
5.60692
5.59757
5.58766
5.57746
5.56726
5.55732
5.5481
5.54094
5.68737
5.68159
5.67626
5.67153
5.66753
5.6641
5.66108
5.6583
5.65556
5.65267
5.64945
5.64574
5.64143
5.63643
5.63073
5.62436
5.61741
5.61001
5.60236
5.59467
5.58712
5.58006
5.57453
5.68886
5.68357
5.67869
5.67439
5.67083
5.66789
5.66542
5.66329
5.66132
5.65933
5.65717
5.65469
5.65178
5.64837
5.64443
5.63998
5.63505
5.62976
5.62423
5.6186
5.61302
5.60772
5.60355
5.6898
5.68502
5.68059
5.67674
5.67365
5.6712
5.66929
5.66779
5.66654
5.66538
5.66416
5.66276
5.66108
5.65903
5.65659
5.65374
5.65052
5.64697
5.64319
5.63927
5.6353
5.63146
5.62837
5.69026
5.68595
5.68198
5.67858
5.67596
5.67402
5.67266
5.67176
5.67117
5.67076
5.67038
5.66992
5.66929
5.6684
5.66722
5.66572
5.66391
5.66181
5.65947
5.65696
5.65431
5.65164
5.64945
5.69026
5.68638
5.68287
5.67992
5.67776
5.67633
5.6755
5.67518
5.6752
5.67545
5.67581
5.67616
5.67642
5.67651
5.67639
5.67602
5.67538
5.67447
5.67332
5.67196
5.6704
5.66871
5.66726
5.68989
5.68633
5.68328
5.68075
5.67907
5.67813
5.67782
5.67803
5.67861
5.67945
5.68044
5.68148
5.6825
5.68342
5.68418
5.68475
5.68508
5.68517
5.685
5.68458
5.68393
5.68305
5.68223
5.68918
5.68577
5.6832
5.68108
5.67987
5.67942
5.67961
5.68031
5.68139
5.68275
5.68429
5.68592
5.68758
5.68919
5.6907
5.69205
5.69319
5.6941
5.69475
5.69513
5.69523
5.69506
5.69476
5.68829
5.68464
5.68263
5.68092
5.68018
5.68022
5.68088
5.68202
5.68354
5.68534
5.68735
5.68949
5.69169
5.69389
5.69603
5.69803
5.69986
5.70146
5.7028
5.70386
5.70461
5.70504
5.70524
5.68744
5.68274
5.68153
5.68025
5.68
5.68051
5.6816
5.68314
5.68504
5.68723
5.68964
5.69221
5.69488
5.69758
5.70024
5.70281
5.70522
5.70741
5.70935
5.711
5.71234
5.71336
5.71403
5.68682
5.67985
5.67994
5.67907
5.67932
5.6803
5.68177
5.68365
5.68587
5.68838
5.69113
5.69407
5.69715
5.70028
5.70341
5.70647
5.70938
5.71209
5.71455
5.71674
5.71864
5.72024
5.72151
5.68596
5.67579
5.678
5.67746
5.67817
5.67955
5.68134
5.68349
5.68598
5.68877
5.69182
5.69509
5.69851
5.70202
5.70556
5.70903
5.71238
5.71555
5.71849
5.72117
5.7236
5.72589
5.728
5.6843
5.66911
5.67556
5.67541
5.6765
5.67818
5.68022
5.6826
5.68531
5.68834
5.69165
5.69521
5.69894
5.70279
5.70666
5.7105
5.71422
5.71777
5.72111
5.72421
5.72717
5.73038
5.73407
5.68592
5.65198
5.6707
5.67228
5.67403
5.67605
5.67833
5.68092
5.68383
5.68708
5.69064
5.69445
5.69845
5.70256
5.70672
5.71084
5.71484
5.71868
5.72232
5.7258
5.72942
5.73461
5.74253
5.71202
5.61629
5.66068
5.6668
5.67026
5.673
5.67566
5.67851
5.68166
5.68513
5.68891
5.69295
5.69717
5.70151
5.70589
5.71021
5.71441
5.71846
5.72238
5.72641
5.73138
5.74082
5.76376
-861.509
-971.556
-525.265
-230.579
824.46
592.893
503.452
455.12
981.073
779.762
659.057
589.424
1049.28
934.534
850.695
782.839
1061.02
982.24
915.101
855.684
1044.27
986.522
935.843
888.68
1019.67
976.509
938.244
901.654
996.025
962.784
933.213
904.886
972.576
946.265
923.108
901.697
945.271
922.847
904.181
891.345
916.453
889.055
791.987
756.871
640.081
475.908
159.484
67.5808
2.22602
2.62946
3.40635
3.69682
5.03615
4.99431
4.88757
4.75491
4.85218
4.73568
4.6545
4.64579
4.85816
4.80946
4.75955
4.76503
4.91423
4.88003
4.83877
4.79582
4.9632
4.93271
4.90306
4.87316
5.02363
4.9994
4.9762
4.95208
5.08812
5.0692
5.05115
5.03194
5.15494
5.14021
5.12614
5.11096
5.22164
5.21016
5.19916
5.18728
5.28599
5.27698
5.26829
5.259
5.34646
5.33932
5.33238
5.32511
5.40216
5.39646
5.39089
5.38519
5.45258
5.44801
5.44352
5.43905
5.49757
5.49391
5.49028
5.48675
5.53716
5.53423
5.53131
5.52851
5.57163
5.5693
5.56695
5.56472
5.60134
5.59951
5.59763
5.59584
5.62674
5.62531
5.62382
5.62238
5.64827
5.64717
5.64602
5.64486
5.66646
5.66564
5.66473
5.6638
5.68173
5.68114
5.68046
5.6797
5.69454
5.69414
5.69362
5.69301
5.70522
5.70498
5.70461
5.70411
5.71421
5.7141
5.71382
5.71338
5.72185
5.72181
5.72159
5.72112
5.72858
5.72855
5.72822
5.72762
5.73485
5.73459
5.73396
5.73307
5.74128
5.73986
5.73865
5.73792
5.77004
5.76331
5.75632
5.75087
127.973
136.22
161.027
209.606
266.497
335.383
402.328
441.581
448.52
427.458
377.529
211.976
17.2061
6.26021
7.19417
7.82063
8.39564
8.86914
9.2636
381.128
331.782
318.909
327.566
350.397
384.23
418.468
438.306
437.513
414.394
294.292
39.6959
5.23327
5.80885
6.61045
7.24049
7.77943
8.15397
8.41805
530.446
472.848
438.168
422.529
422.317
432.406
444.535
449.618
442.807
365.6
78.1089
4.63514
4.76131
5.43476
6.09974
6.69232
7.19435
7.52055
7.72091
682.085
599.1
542.246
506.149
487.146
479.185
475.674
472.306
426.522
124.609
4.24034
4.37799
4.71897
5.21262
5.74669
6.26551
6.70535
6.99612
7.15691
767.208
683.37
618.031
571.176
540.192
520.415
510.276
477.783
168.876
3.93718
4.25649
4.435
4.69364
5.07471
5.52232
5.96685
6.33922
6.58388
6.71257
816.707
739.675
672.554
619.691
581.171
559.04
520.327
196.564
3.7074
4.18443
4.27977
4.43581
4.67201
5.00282
5.38717
5.76261
6.07082
6.27098
6.37133
844.91
776.219
709.34
652.977
617.046
552.591
195.056
3.57332
4.17707
4.22448
4.29492
4.45033
4.68069
4.9789
5.30857
5.6215
5.87419
6.03582
6.11243
860.619
798.776
732.319
682.958
572.336
161.955
3.53653
4.23335
4.22575
4.23033
4.3325
4.49669
4.71865
4.98418
5.26523
5.52543
5.73156
5.86048
5.91759
868.429
813.544
757.391
580.899
112.254
3.58351
4.33562
4.27753
4.23443
4.28976
4.40339
4.56736
4.77284
5.00688
5.24668
5.46283
5.62997
5.73151
5.77286
875.55
838.768
593.912
72.0978
3.66071
4.458
4.3599
4.27602
4.29646
4.37283
4.49215
4.64827
4.8355
5.04152
5.24579
5.42469
5.5593
5.63832
5.66735
841.903
666.084
85.8766
3.91446
4.55711
4.45749
4.34922
4.3403
4.38621
4.47035
4.58701
4.73341
4.9032
5.08363
5.25666
5.40395
5.51165
5.57257
5.59223
162.769
90.3286
6.11547
4.68844
4.57568
4.44882
4.4133
4.43146
4.48631
4.57109
4.68349
4.81985
4.97253
5.12916
5.27473
5.39542
5.48115
5.52776
5.54044
3.99296
4.68241
4.77509
4.65754
4.52923
4.4895
4.4905
4.5244
4.58511
4.67066
4.77869
4.90458
5.0404
5.17513
5.29689
5.39541
5.46341
5.49889
5.5064
4.6038
4.51199
4.53017
4.53459
4.53008
4.54014
4.56748
4.61437
4.6813
4.76745
4.87033
4.98519
5.10471
5.21973
5.32116
5.4014
5.45522
5.48207
5.48579
4.64963
4.55406
4.54383
4.55848
4.57972
4.60823
4.64936
4.7051
4.77586
4.86067
4.957
5.06037
5.16447
5.26209
5.34636
5.41163
5.45415
5.47434
5.47527
4.72031
4.62081
4.6183
4.63019
4.65406
4.68999
4.73787
4.79758
4.86859
4.94956
5.03789
5.12958
5.21946
5.30193
5.37181
5.42484
5.45838
5.47338
5.47226
4.74513
4.71368
4.70643
4.71638
4.74202
4.7808
4.83059
4.89013
4.95823
5.03322
5.11257
5.19283
5.26985
5.33927
5.39709
5.44012
5.46647
5.47742
5.47477
4.83153
4.80612
4.8004
4.8108
4.83697
4.87551
4.92387
4.98031
5.04326
5.11092
5.18096
5.25045
5.31602
5.37423
5.42195
5.45675
5.47732
5.48505
5.48127
4.9188
4.89928
4.89608
4.90778
4.93325
4.96959
5.01445
5.06598
5.12252
5.1823
5.24324
5.30284
5.35833
5.40692
5.44615
5.47416
5.49005
5.49523
5.49057
5.00559
4.99172
4.99084
5.00302
5.02675
5.05975
5.09998
5.14572
5.19538
5.24734
5.29975
5.35044
5.3971
5.43744
5.46953
5.49192
5.50399
5.50709
5.50179
5.09008
5.08051
5.08157
5.09342
5.11479
5.14391
5.17908
5.21882
5.26171
5.30628
5.35087
5.39362
5.43258
5.46587
5.49192
5.50964
5.51858
5.52
5.51422
5.17079
5.16399
5.16622
5.17717
5.19589
5.221
5.25115
5.2851
5.32162
5.3594
5.39697
5.43271
5.46498
5.49224
5.51322
5.52705
5.53341
5.53345
5.52734
5.24615
5.24121
5.24381
5.25347
5.26945
5.29068
5.31611
5.3447
5.3754
5.40705
5.43838
5.46799
5.4945
5.51662
5.53332
5.54391
5.54815
5.54708
5.54072
5.3151
5.31144
5.31393
5.32212
5.33543
5.35306
5.37416
5.3979
5.42337
5.44959
5.47544
5.49973
5.52129
5.53905
5.55216
5.56006
5.56255
5.56058
5.55409
5.37733
5.37449
5.37659
5.38327
5.39409
5.40844
5.42567
5.44509
5.46595
5.48739
5.50848
5.52819
5.54553
5.55961
5.56971
5.57537
5.57643
5.57376
5.5672
5.43284
5.43048
5.43205
5.43727
5.44583
5.45726
5.47106
5.48669
5.50352
5.52083
5.53782
5.55362
5.56738
5.57836
5.58595
5.58977
5.58967
5.58643
5.57991
5.48179
5.47971
5.4807
5.48458
5.49113
5.5
5.51083
5.52317
5.53653
5.55028
5.56377
5.57625
5.587
5.59539
5.6009
5.60321
5.60219
5.59854
5.59209
5.52451
5.52259
5.52303
5.52572
5.53052
5.53719
5.54546
5.55499
5.56538
5.57612
5.58664
5.59632
5.60456
5.61079
5.6146
5.61568
5.61394
5.61
5.60369
5.56144
5.55962
5.55957
5.56123
5.56454
5.56935
5.57545
5.58261
5.59049
5.59869
5.60672
5.61407
5.62021
5.62468
5.62709
5.6272
5.62491
5.6208
5.61467
5.59312
5.59136
5.59089
5.59169
5.59375
5.597
5.6013
5.60647
5.61226
5.61833
5.6243
5.62972
5.63414
5.63716
5.63845
5.63781
5.63513
5.63093
5.62504
5.6201
5.61838
5.61755
5.61765
5.61869
5.62065
5.62346
5.62699
5.63105
5.63538
5.63965
5.64348
5.6465
5.64836
5.64878
5.64756
5.64463
5.64044
5.63481
5.64294
5.64125
5.64014
5.63966
5.63987
5.64079
5.64239
5.64458
5.64723
5.65013
5.65301
5.65557
5.65747
5.65841
5.65815
5.65653
5.65346
5.64934
5.64402
5.66216
5.66051
5.65917
5.65823
5.65778
5.65786
5.65849
5.65961
5.66112
5.66288
5.66465
5.66618
5.6672
5.66744
5.66668
5.66479
5.66169
5.65771
5.65272
5.6783
5.67666
5.67513
5.67382
5.67285
5.67227
5.67213
5.6724
5.67302
5.67386
5.67476
5.67549
5.67583
5.67555
5.67446
5.67243
5.66938
5.6656
5.66097
5.69177
5.69014
5.68845
5.68685
5.68547
5.68438
5.68364
5.68326
5.68318
5.68332
5.68355
5.68368
5.68352
5.68288
5.68159
5.67952
5.67661
5.67309
5.66883
5.70299
5.70133
5.6995
5.69767
5.69596
5.69449
5.69331
5.69244
5.69184
5.69147
5.69119
5.69089
5.69039
5.68953
5.68816
5.68616
5.68346
5.68023
5.67638
5.71229
5.71056
5.70859
5.70656
5.70462
5.70288
5.70139
5.70017
5.69922
5.69847
5.69786
5.69726
5.69656
5.6956
5.69425
5.69242
5.69
5.68713
5.68369
5.71995
5.71808
5.71596
5.71378
5.71169
5.70978
5.70809
5.70667
5.70549
5.70451
5.70369
5.70294
5.70214
5.70119
5.69998
5.69839
5.69633
5.69385
5.69087
5.72618
5.72409
5.72182
5.71953
5.71736
5.71538
5.71363
5.71212
5.71084
5.70976
5.70885
5.70805
5.70727
5.70643
5.70543
5.70417
5.70253
5.70053
5.698
5.73139
5.72899
5.72648
5.72406
5.72184
5.71985
5.71809
5.71658
5.71529
5.71421
5.71331
5.71255
5.71188
5.71125
5.71057
5.70976
5.70868
5.70723
5.70525
5.737
5.73388
5.73065
5.72779
5.72531
5.72317
5.72133
5.71976
5.71844
5.71737
5.71651
5.71587
5.71541
5.71512
5.71494
5.7148
5.71454
5.71395
5.7128
5.74329
5.73741
5.73347
5.73044
5.728
5.72597
5.72427
5.72284
5.72167
5.72073
5.72002
5.71956
5.71934
5.71937
5.71962
5.72008
5.72061
5.72098
5.72081
)
;

boundaryField
{
    leftWall
    {
        type            fixedFluxPressure;
        gradient        uniform 0;
        value           nonuniform List<scalar> 
50
(
10491.5
10482.9
10474.5
10464.8
10454
10442.6
10427.5
10392
10318.1
6806.27
2125.09
2128.27
2122.36
2114.84
2105.08
2093.76
2081.71
2069.31
2056.36
2045.62
1249.27
4.70069
5.3824
5.51991
5.58018
5.61312
5.63093
5.64226
5.65107
5.65847
5.66487
5.67043
5.67522
5.67927
5.68261
5.68531
5.68737
5.68886
5.6898
5.69026
5.69026
5.68989
5.68918
5.68829
5.68744
5.68682
5.68596
5.6843
5.68592
5.71202
)
;
    }
    rightWall
    {
        type            fixedFluxPressure;
        gradient        uniform 0;
        value           nonuniform List<scalar> 
50
(
15.6974
14.9157
13.985
12.9941
12.0898
11.3176
10.6535
10.0697
9.2636
8.41805
7.72091
7.15691
6.71257
6.37133
6.11243
5.91759
5.77286
5.66735
5.59223
5.54044
5.5064
5.48579
5.47527
5.47226
5.47477
5.48127
5.49057
5.50179
5.51422
5.52734
5.54072
5.55409
5.5672
5.57991
5.59209
5.60369
5.61467
5.62504
5.63481
5.64402
5.65272
5.66097
5.66883
5.67638
5.68369
5.69087
5.698
5.70525
5.7128
5.72081
)
;
    }
    lowerWall
    {
        type            fixedFluxPressure;
        gradient        uniform 0;
        value           nonuniform List<scalar> 
62
(
10491.5
10543.5
10586.7
10614.5
10610.2
10569.3
10489.6
10370.1
10210.6
10011.3
9773.87
9500.89
9197.39
8876.47
8566.64
8284.85
8004.94
7733.13
7653.95
8120.86
9619.63
12193.3
18529.6
18529.6
18782.1
17944.4
16103.5
13366.7
10372
8580.36
8170.16
-861.509
-971.556
-525.265
-230.579
-69.5004
-69.7381
-70.0006
-70.2944
-70.4763
-70.5231
-70.3321
-71.3781
-69.5004
-70.5203
-69.4336
-53.7106
2.49705
341.121
664.605
749.954
752.01
710.884
640.39
538.36
410.157
269.752
156.814
91.8548
42.8718
13.4638
15.6974
)
;
    }
    atmosphere
    {
        type            prghTotalPressure;
        rho             rho;
        psi             none;
        gamma           1;
        p0              uniform 0;
        value           nonuniform List<scalar> 
46
(
5.6938
5.6568
5.66374
5.66648
5.66891
5.67132
5.67392
5.67683
5.68009
5.68368
5.68759
5.69176
5.69611
5.70057
5.70506
5.70947
5.71371
5.71767
5.72125
5.72432
5.72672
5.7283
5.72896
5.72904
5.72904
5.72904
5.72904
5.72904
5.72904
5.72904
5.72904
5.72904
5.72904
5.72904
5.72904
5.72904
5.72904
5.72904
5.72904
5.72904
5.72904
5.72904
5.72904
5.72904
5.72904
5.72904
)
;
        rho             rho;
    }
    defaultFaces
    {
        type            empty;
    }
}


// ************************************************************************* //
