/*--------------------------------*- C++ -*----------------------------------*\
  =========                 |
  \\      /  F ield         | OpenFOAM: The Open Source CFD Toolbox
   \\    /   O peration     | Website:  https://openfoam.org
    \\  /    A nd           | Version:  13
     \\/     M anipulation  |
\*---------------------------------------------------------------------------*/
FoamFile
{
    format      ascii;
    class       surfaceScalarField;
    location    "0.2";
    object      phi;
}
// * * * * * * * * * * * * * * * * * * * * * * * * * * * * * * * * * * * * * //

dimensions      [0 3 -1 0 0 0 0];

internalField   nonuniform List<scalar> 
4432
(
-2.97507e-07
2.97511e-07
1.5181e-06
-1.81561e-06
4.36153e-06
-2.84344e-06
7.64397e-06
-3.28244e-06
1.11934e-05
-3.54942e-06
1.49677e-05
-3.7743e-06
1.89869e-05
-4.0192e-06
2.32963e-05
-4.3094e-06
2.79456e-05
-4.64934e-06
3.29752e-05
-5.0296e-06
3.8409e-05
-5.43376e-06
4.42483e-05
-5.83935e-06
5.04506e-05
-6.20233e-06
5.70002e-05
-6.54955e-06
6.40593e-05
-7.05916e-06
7.16169e-05
-7.55754e-06
7.88598e-05
-7.24291e-06
8.42541e-05
-5.39429e-06
8.61924e-05
-1.93831e-06
8.25088e-05
3.68362e-06
6.95515e-05
1.29573e-05
4.11462e-05
2.84053e-05
4.11462e-05
1.11839e-06
-8.2086e-07
3.47275e-06
-4.16997e-06
6.42967e-06
-5.80035e-06
9.76338e-06
-6.61615e-06
1.33639e-05
-7.14998e-06
1.71978e-05
-7.60814e-06
2.12663e-05
-8.08772e-06
2.5587e-05
-8.63006e-06
3.01793e-05
-9.24164e-06
3.50554e-05
-9.90575e-06
4.02173e-05
-1.05956e-05
4.56487e-05
-1.12708e-05
5.12856e-05
-1.18392e-05
5.7073e-05
-1.23369e-05
6.31472e-05
-1.31334e-05
6.96041e-05
-1.40144e-05
7.58626e-05
-1.35014e-05
8.05792e-05
-1.01109e-05
8.22579e-05
-3.61696e-06
7.90886e-05
6.85291e-06
6.73297e-05
2.47161e-05
4.10736e-05
5.46614e-05
8.22198e-05
2.22802e-06
-3.04889e-06
4.94312e-06
-6.88507e-06
8.0022e-06
-8.85945e-06
1.13546e-05
-9.96857e-06
1.4946e-05
-1.07413e-05
1.87533e-05
-1.14155e-05
2.27733e-05
-1.21077e-05
2.70114e-05
-1.28682e-05
3.14725e-05
-1.37027e-05
3.61543e-05
-1.45876e-05
4.10482e-05
-1.54895e-05
4.61283e-05
-1.63509e-05
5.13064e-05
-1.70174e-05
5.64798e-05
-1.75103e-05
6.17723e-05
-1.84258e-05
6.73837e-05
-1.96259e-05
7.29135e-05
-1.90312e-05
7.71585e-05
-1.43559e-05
7.8784e-05
-5.24245e-06
7.61656e-05
9.47126e-06
6.57641e-05
3.51177e-05
4.17708e-05
7.86548e-05
0.000123991
3.08772e-06
-6.13659e-06
6.15211e-06
-9.94945e-06
9.3429e-06
-1.20502e-05
1.27247e-05
-1.33503e-05
1.62979e-05
-1.43145e-05
2.00573e-05
-1.5175e-05
2.4002e-05
-1.60523e-05
2.81327e-05
-1.69989e-05
3.24459e-05
-1.80159e-05
3.69305e-05
-1.90722e-05
4.15735e-05
-2.01324e-05
4.63487e-05
-2.11261e-05
5.11457e-05
-2.18144e-05
5.57985e-05
-2.21631e-05
6.04118e-05
-2.30391e-05
6.52976e-05
-2.45118e-05
7.02175e-05
-2.39511e-05
7.40627e-05
-1.82011e-05
7.55228e-05
-6.70255e-06
7.29767e-05
1.20174e-05
6.27933e-05
4.53011e-05
4.07448e-05
0.000100703
0.000164735
3.73509e-06
-9.87169e-06
7.14675e-06
-1.33611e-05
1.0491e-05
-1.53945e-05
1.39166e-05
-1.67759e-05
1.74737e-05
-1.78717e-05
2.11778e-05
-1.88791e-05
2.50348e-05
-1.99093e-05
2.90455e-05
-2.10096e-05
3.32023e-05
-2.21727e-05
3.74882e-05
-2.33581e-05
4.18908e-05
-2.45351e-05
4.63937e-05
-2.5629e-05
5.0876e-05
-2.62966e-05
5.51021e-05
-2.63892e-05
5.91284e-05
-2.70654e-05
6.33343e-05
-2.87177e-05
6.76099e-05
-2.82267e-05
7.09594e-05
-2.15507e-05
7.19082e-05
-7.65132e-06
6.82015e-05
1.57241e-05
5.60312e-05
5.74714e-05
3.51994e-05
0.000121535
0.000199935
4.23912e-06
-1.41108e-05
7.96356e-06
-1.70856e-05
1.14574e-05
-1.88884e-05
1.49302e-05
-2.02487e-05
1.84716e-05
-2.14132e-05
2.21155e-05
-2.2523e-05
2.58764e-05
-2.36701e-05
2.97584e-05
-2.48916e-05
3.37529e-05
-2.61672e-05
3.78385e-05
-2.74437e-05
4.2005e-05
-2.87016e-05
4.62539e-05
-2.98779e-05
5.04781e-05
-3.05207e-05
5.44035e-05
-3.03147e-05
5.80106e-05
-3.06725e-05
6.15854e-05
-3.22925e-05
6.50316e-05
-3.1673e-05
6.75848e-05
-2.41038e-05
6.73512e-05
-7.41777e-06
5.95839e-05
2.34914e-05
4.43994e-05
7.26559e-05
2.47606e-05
0.000141174
0.000224695
4.66054e-06
-1.87713e-05
8.62781e-06
-2.10528e-05
1.22436e-05
-2.25042e-05
1.57547e-05
-2.37598e-05
1.92754e-05
-2.49338e-05
2.2852e-05
-2.60996e-05
2.65079e-05
-2.73261e-05
3.02532e-05
-2.86369e-05
3.40804e-05
-2.99943e-05
3.79642e-05
-3.13275e-05
4.18946e-05
-3.2632e-05
4.58894e-05
-3.38728e-05
4.98828e-05
-3.4514e-05
5.36406e-05
-3.40725e-05
5.71318e-05
-3.41637e-05
6.0247e-05
-3.54076e-05
6.27069e-05
-3.41329e-05
6.39846e-05
-2.53815e-05
6.11251e-05
-4.55825e-06
5.27807e-05
3.18358e-05
3.57552e-05
8.96815e-05
1.46224e-05
0.000162307
0.000239318
4.99918e-06
-2.37705e-05
9.12467e-06
-2.51783e-05
1.28295e-05
-2.6209e-05
1.63654e-05
-2.72957e-05
1.98567e-05
-2.84251e-05
2.33574e-05
-2.96003e-05
2.68997e-05
-3.08683e-05
3.05008e-05
-3.2238e-05
3.41577e-05
-3.36513e-05
3.78476e-05
-3.50174e-05
4.15541e-05
-3.63385e-05
4.52971e-05
-3.76157e-05
4.90686e-05
-3.82856e-05
5.2807e-05
-3.78109e-05
5.66176e-05
-3.79743e-05
5.96524e-05
-3.84425e-05
6.13311e-05
-3.58116e-05
6.16793e-05
-2.57297e-05
5.88367e-05
-1.71571e-06
5.26007e-05
3.80718e-05
4.25132e-05
9.97688e-05
2.80823e-05
0.000176738
0.0002674
-9.3673e-05
9.3673e-05
-0.000119437
2.57641e-05
-0.000114439
-4.99797e-06
-9.48846e-05
-1.95546e-05
-7.52794e-05
-1.96052e-05
-2.43372e-05
-5.09422e-05
2.88598e-05
-5.3197e-05
6.67817e-05
-3.79219e-05
9.64036e-05
-2.96219e-05
0.000123346
-2.69425e-05
0.000148479
-2.5133e-05
0.000170281
-2.18024e-05
0.000186816
-1.6535e-05
0.000197482
-1.06654e-05
0.000204343
-6.86103e-06
0.000210605
-6.2618e-06
0.000217791
-7.18636e-06
0.000152059
6.57325e-05
0.000152059
-6.24835e-05
0.000156156
-9.04858e-05
5.37663e-05
-9.18393e-05
-3.64442e-06
-8.73993e-05
-2.39946e-05
-4.22155e-05
-6.47891e-05
1.81704e-05
-0.000111328
5.25241e-05
-8.75508e-05
8.04958e-05
-6.58935e-05
0.000105468
-5.45938e-05
0.000128304
-4.97788e-05
0.000149407
-4.62355e-05
0.000168149
-4.05444e-05
0.000182738
-3.11246e-05
0.000191835
-1.97621e-05
0.000196914
-1.19399e-05
0.000198884
-8.23207e-06
0.000180791
1.0907e-05
0.000106993
0.00013953
0.000259053
-4.29331e-05
0.000199089
-6.76375e-05
7.84706e-05
-6.48088e-05
-6.47326e-06
-5.94942e-05
-2.93093e-05
1.44977e-05
-0.000138781
5.0967e-05
-0.000147797
7.23258e-05
-0.00010891
9.30773e-05
-8.6645e-05
0.000113351
-7.48675e-05
0.000132342
-6.87695e-05
0.000149901
-6.37943e-05
0.000165474
-5.61176e-05
0.000177788
-4.34389e-05
0.000185846
-2.78206e-05
0.000190933
-1.70266e-05
0.000188659
-5.9576e-06
0.000136029
6.3537e-05
6.87175e-05
0.000206842
0.00032777
-1.91415e-05
0.00021823
-1.50623e-05
7.43911e-05
1.97619e-05
-4.12975e-05
5.79618e-05
-6.75093e-05
7.29258e-05
-0.000153745
7.58159e-05
-0.000150688
8.81533e-05
-0.000121247
0.000103324
-0.000101815
0.000119349
-9.08925e-05
0.000134959
-8.43794e-05
0.000149557
-7.83927e-05
0.000162459
-6.90192e-05
0.000173096
-5.40762e-05
0.000181823
-3.65479e-05
0.000186761
-2.19641e-05
0.000152437
2.83666e-05
9.28582e-05
0.000123116
4.55673e-05
0.000254133
0.000373338
1.75766e-06
0.000216473
2.78346e-05
4.83142e-05
4.4193e-05
-5.7656e-05
9.85359e-05
-0.000121852
9.39643e-05
-0.000149173
9.17393e-05
-0.000148463
9.91863e-05
-0.000128694
0.00011059
-0.000113219
0.000123387
-0.000103689
0.000136279
-9.7271e-05
0.000148428
-9.0542e-05
0.000159022
-7.96137e-05
0.000168056
-6.31102e-05
0.000178239
-4.67306e-05
0.000159998
-3.72286e-06
0.000118029
7.03357e-05
6.98694e-05
0.000171275
3.12813e-05
0.000292721
0.000404619
3.11426e-05
0.00018533
8.2719e-05
-3.26204e-06
0.000108832
-8.37693e-05
0.000108417
-0.000121436
0.000103279
-0.000144035
0.000101481
-0.000146665
0.000106735
-0.000133948
0.000115619
-0.000122104
0.000125991
-0.000114061
0.000136675
-0.000107955
0.000146734
-0.000100601
0.000155335
-8.82151e-05
0.000162537
-7.03125e-05
0.000170746
-5.49392e-05
0.000144348
2.26756e-05
9.94081e-05
0.000115276
5.55603e-05
0.000215123
2.18836e-05
0.000326397
0.000426503
6.99484e-05
0.000115382
0.000107438
-4.07518e-05
0.000111806
-8.81376e-05
0.000111309
-0.000120939
0.000108884
-0.00014161
0.000108227
-0.000146008
0.000112242
-0.000137962
0.000119234
-0.000129096
0.000127652
-0.000122479
0.000136449
-0.000116752
0.000144672
-0.000108824
0.000151741
-9.52839e-05
0.000158007
-7.65783e-05
0.000154611
-5.15438e-05
0.000124846
5.24413e-05
8.36943e-05
0.000156427
4.46523e-05
0.000254166
1.51992e-05
0.000355851
0.000441702
9.63094e-05
1.90728e-05
0.000107684
-5.21264e-05
0.000112299
-9.2753e-05
0.000113988
-0.000122627
0.000113454
-0.000141076
0.000113428
-0.000145982
0.000116473
-0.000141007
0.000121903
-0.000134527
0.000128656
-0.000129231
0.000135773
-0.00012387
0.000142396
-0.000115447
0.00014852
-0.000101408
0.000155833
-8.38905e-05
0.000137726
-3.34369e-05
0.000105035
8.51325e-05
6.94545e-05
0.000192008
3.52166e-05
0.000288404
1.00395e-05
0.000381028
0.000451742
1.11797e-05
-3.49503e-05
2.03118e-05
-3.43104e-05
2.83483e-05
-3.42455e-05
3.59194e-05
-3.48668e-05
4.32513e-05
-3.5757e-05
5.04603e-05
-3.68093e-05
5.76408e-05
-3.80488e-05
6.48536e-05
-3.94508e-05
7.21143e-05
-4.09119e-05
7.93628e-05
-4.2266e-05
8.67784e-05
-4.37541e-05
9.45521e-05
-4.53893e-05
0.000102831
-4.65644e-05
0.00011155
-4.653e-05
0.000120859
-4.72832e-05
0.00012785
-4.54334e-05
0.000131268
-3.92294e-05
0.000129755
-2.42167e-05
0.000125105
2.93382e-06
0.00012346
3.97164e-05
0.000132931
9.02985e-05
0.000160109
0.000149559
0.000178269
0.00024924
1.18695e-05
-4.68198e-05
2.03083e-05
-4.27491e-05
2.80802e-05
-4.20175e-05
3.54581e-05
-4.22446e-05
4.25869e-05
-4.28859e-05
4.96303e-05
-4.38528e-05
5.67296e-05
-4.5148e-05
6.39913e-05
-4.67126e-05
7.15963e-05
-4.8517e-05
7.95177e-05
-5.01873e-05
8.78525e-05
-5.20889e-05
9.66965e-05
-5.42334e-05
0.000105882
-5.57496e-05
0.000115914
-5.65624e-05
0.000123999
-5.53682e-05
0.000129616
-5.10505e-05
0.000132429
-4.20424e-05
0.00013181
-2.35979e-05
0.000131033
3.71078e-06
0.000137358
3.3392e-05
0.000160111
6.75457e-05
0.000207656
0.000102013
0.000122775
0.000263151
9.65661e-06
-5.64765e-05
1.77749e-05
-5.08674e-05
2.58123e-05
-5.0055e-05
3.34736e-05
-4.99059e-05
4.08512e-05
-5.02635e-05
4.8165e-05
-5.11667e-05
5.5567e-05
-5.255e-05
6.32156e-05
-5.43612e-05
7.12885e-05
-5.65899e-05
8.02819e-05
-5.91808e-05
8.98892e-05
-6.16962e-05
9.93275e-05
-6.36717e-05
0.000108371
-6.47934e-05
0.000116312
-6.45029e-05
0.000122673
-6.17296e-05
0.000127005
-5.53824e-05
0.000129019
-4.40562e-05
0.000129565
-2.41443e-05
0.000132654
6.22004e-07
0.000142291
2.37552e-05
0.000163786
4.60509e-05
0.000200789
6.501e-05
7.19952e-05
0.000251569
4.75035e-06
-6.12269e-05
1.24126e-05
-5.85298e-05
2.02929e-05
-5.79353e-05
2.82848e-05
-5.78979e-05
3.64022e-05
-5.83809e-05
4.46605e-05
-5.9425e-05
5.30984e-05
-6.09879e-05
6.17547e-05
-6.30175e-05
7.06163e-05
-6.54515e-05
7.95689e-05
-6.81333e-05
8.85151e-05
-7.06425e-05
9.72668e-05
-7.24234e-05
0.000105411
-7.29379e-05
0.000112396
-7.14879e-05
0.00011782
-6.71531e-05
0.000121421
-5.89841e-05
0.000123049
-4.5684e-05
0.000124619
-2.57144e-05
0.000130541
-5.29933e-06
0.000142316
1.19795e-05
0.000162195
2.6172e-05
0.000191816
3.53895e-05
3.54428e-05
0.000228368
4.0772e-06
-6.53042e-05
1.10174e-05
-6.547e-05
1.85054e-05
-6.54234e-05
2.62513e-05
-6.56438e-05
3.4186e-05
-6.63156e-05
4.22859e-05
-6.75249e-05
5.05579e-05
-6.926e-05
5.89959e-05
-7.14555e-05
6.75388e-05
-7.39944e-05
7.60525e-05
-7.66471e-05
8.44035e-05
-7.89934e-05
9.2419e-05
-8.04389e-05
9.97631e-05
-8.0282e-05
0.00010599
-7.77151e-05
0.000110709
-7.18718e-05
0.000113745
-6.20199e-05
0.000115144
-4.70835e-05
0.000118406
-2.89763e-05
0.000126367
-1.326e-05
0.000139285
-9.38754e-07
0.000157817
7.64067e-06
0.000181943
1.12628e-05
8.13801e-06
0.000209248
4.86854e-06
-7.01728e-05
1.11993e-05
-7.18009e-05
1.80359e-05
-7.226e-05
2.51717e-05
-7.27797e-05
3.25173e-05
-7.36613e-05
4.00192e-05
-7.50268e-05
4.76522e-05
-7.68931e-05
5.53942e-05
-7.91975e-05
6.31943e-05
-8.17945e-05
7.09596e-05
-8.44124e-05
7.85629e-05
-8.65968e-05
8.58155e-05
-8.76915e-05
9.24001e-05
-8.68666e-05
9.7883e-05
-8.31979e-05
0.000101926
-7.59145e-05
0.000104333
-6.44276e-05
0.000106182
-4.89324e-05
0.000111389
-3.41834e-05
0.000120593
-2.24636e-05
0.00013376
-1.41058e-05
0.000150789
-9.38826e-06
0.000171002
-8.94981e-06
-1.355e-05
0.00019269
5.28849e-06
-7.54613e-05
1.12808e-05
-7.77932e-05
1.75683e-05
-7.85476e-05
2.40617e-05
-7.9273e-05
3.07046e-05
-8.03042e-05
3.74519e-05
-8.17741e-05
4.42721e-05
-8.37132e-05
5.11415e-05
-8.60669e-05
5.80286e-05
-8.86815e-05
6.48796e-05
-9.12635e-05
7.16039e-05
-9.3321e-05
7.80319e-05
-9.41195e-05
8.38432e-05
-9.26779e-05
8.85754e-05
-8.79302e-05
9.18917e-05
-7.92308e-05
9.37766e-05
-6.63125e-05
9.70725e-05
-5.22282e-05
0.000103727
-4.08381e-05
0.00011363
-3.23667e-05
0.000126522
-2.69972e-05
0.000142009
-2.48758e-05
0.000159351
-2.62919e-05
-3.15166e-05
0.000177318
5.3269e-06
-8.07883e-05
1.10515e-05
-8.35179e-05
1.68732e-05
-8.43693e-05
2.27678e-05
-8.51676e-05
2.87079e-05
-8.62444e-05
3.4664e-05
-8.77302e-05
4.06107e-05
-8.966e-05
4.6531e-05
-9.19872e-05
5.24126e-05
-9.45631e-05
5.82399e-05
-9.70908e-05
6.39749e-05
-9.9056e-05
6.9498e-05
-9.96427e-05
7.44905e-05
-9.76703e-05
7.84696e-05
-9.19093e-05
8.09799e-05
-8.1741e-05
8.32157e-05
-6.85482e-05
8.81101e-05
-5.71227e-05
9.57342e-05
-4.84622e-05
0.000105901
-4.25335e-05
0.000118235
-3.93314e-05
0.000132252
-3.8893e-05
0.000147287
-4.13266e-05
-4.67023e-05
0.000162473
5.22677e-06
-8.60151e-05
1.06933e-05
-8.89844e-05
1.60897e-05
-8.97658e-05
2.14328e-05
-9.05107e-05
2.67105e-05
-9.15221e-05
3.19006e-05
-9.29202e-05
3.698e-05
-9.47394e-05
4.19334e-05
-9.69406e-05
4.67589e-05
-9.93886e-05
5.14729e-05
-0.000101805
5.61021e-05
-0.000103685
6.06242e-05
-0.000104165
6.47802e-05
-0.000101826
6.79934e-05
-9.51224e-05
7.00289e-05
-8.37766e-05
7.3598e-05
-7.21173e-05
7.96388e-05
-6.31634e-05
8.7881e-05
-5.67044e-05
9.80184e-05
-5.26709e-05
0.000109648
-5.09611e-05
0.000122303
-5.15474e-05
0.000135424
-5.44481e-05
-5.96446e-05
0.000148366
5.15073e-06
-9.11658e-05
1.0385e-05
-9.42186e-05
1.54075e-05
-9.47882e-05
2.0264e-05
-9.53671e-05
2.49536e-05
-9.62117e-05
2.94545e-05
-9.74211e-05
3.37341e-05
-9.90189e-05
3.77643e-05
-0.000100971
4.15352e-05
-0.000103159
4.50751e-05
-0.000105345
4.84731e-05
-0.000107083
5.18521e-05
-0.000107544
5.5141e-05
-0.000105115
5.76227e-05
-9.76041e-05
6.02463e-05
-8.64001e-05
6.51653e-05
-7.70363e-05
7.20462e-05
-7.00443e-05
8.06425e-05
-6.53007e-05
9.05935e-05
-6.26219e-05
0.000101502
-6.18697e-05
0.000112963
-6.30082e-05
0.000124539
-6.60242e-05
-7.07898e-05
0.000135684
5.23159e-06
-9.63973e-05
1.02568e-05
-9.92438e-05
1.49583e-05
-9.94896e-05
1.94109e-05
-9.98197e-05
2.36224e-05
-0.000100423
2.75659e-05
-0.000101365
3.11902e-05
-0.000102643
3.44406e-05
-0.000104221
3.72751e-05
-0.000105994
3.96894e-05
-0.000107759
4.17895e-05
-0.000109183
4.3906e-05
-0.00010966
4.62045e-05
-0.000107414
4.83907e-05
-9.97903e-05
5.22476e-05
-9.02571e-05
5.81089e-05
-8.28976e-05
6.55751e-05
-7.75104e-05
7.43216e-05
-7.40472e-05
8.39918e-05
-7.2292e-05
9.4197e-05
-7.20749e-05
0.000104632
-7.34435e-05
0.000115056
-7.64474e-05
-8.09071e-05
0.000125173
5.64629e-06
-0.000102044
1.02813e-05
-0.000103879
1.46851e-05
-0.000103893
1.88341e-05
-0.000103969
2.27206e-05
-0.00010431
2.63144e-05
-0.000104958
2.95354e-05
-0.000105864
3.23046e-05
-0.00010699
3.45377e-05
-0.000108227
3.61333e-05
-0.000109354
3.70525e-05
-0.000110103
3.78996e-05
-0.000110507
3.90806e-05
-0.000108595
4.13878e-05
-0.000102097
4.61252e-05
-9.49945e-05
5.25708e-05
-8.93432e-05
6.02436e-05
-8.51831e-05
6.8865e-05
-8.26686e-05
7.81099e-05
-8.15369e-05
8.76352e-05
-8.16002e-05
9.71891e-05
-8.29974e-05
0.000106634
-8.58922e-05
-9.01604e-05
0.000115887
6.84356e-06
-0.000108885
1.02562e-05
-0.000107291
1.44349e-05
-0.000108072
1.83751e-05
-0.000107909
2.20527e-05
-0.000107987
2.54786e-05
-0.000108384
2.86098e-05
-0.000108995
3.1357e-05
-0.000109738
3.35534e-05
-0.000110423
3.49113e-05
-0.000110712
3.48278e-05
-0.000110019
3.42809e-05
-0.00010996
3.45923e-05
-0.000108906
3.71771e-05
-0.000104682
4.20802e-05
-9.98977e-05
4.85032e-05
-9.57663e-05
5.59117e-05
-9.25917e-05
6.39925e-05
-9.07495e-05
7.25243e-05
-9.00687e-05
8.17389e-05
-9.08148e-05
9.15497e-05
-9.28081e-05
0.000101471
-9.58139e-05
-0.000103076
0.000114387
1.97348e-05
-0.000128618
1.08476e-05
-9.84038e-05
1.45522e-05
-0.000111777
1.85154e-05
-0.000111872
2.22332e-05
-0.000111705
2.57561e-05
-0.000111907
2.92419e-05
-0.000112481
3.21092e-05
-0.000112605
3.40367e-05
-0.000112351
3.47685e-05
-0.000111444
3.42435e-05
-0.000109493
3.2091e-05
-0.000107808
3.12538e-05
-0.000108069
3.30415e-05
-0.00010647
3.87645e-05
-0.000105621
4.54121e-05
-0.000102414
5.28238e-05
-0.000100004
6.06722e-05
-9.85983e-05
6.97657e-05
-9.91625e-05
8.14529e-05
-0.000102502
9.41888e-05
-0.000105544
0.000103735
-0.00010536
-0.000101745
0.000102405
1.60407e-05
-0.000144658
1.41933e-05
-9.65565e-05
1.422e-05
-0.000111804
1.67488e-05
-0.000114402
1.89925e-05
-0.000113949
2.06217e-05
-0.000113536
2.15355e-05
-0.000113395
2.2218e-05
-0.000113287
2.26984e-05
-0.000112831
2.29601e-05
-0.000111705
2.36035e-05
-0.000110137
2.52284e-05
-0.000109432
2.73267e-05
-0.000110167
3.18693e-05
-0.000111013
3.58221e-05
-0.000109574
4.24645e-05
-0.000109057
5.03975e-05
-0.000107937
5.74862e-05
-0.000105687
6.11163e-05
-0.000102793
6.56193e-05
-0.000107005
6.94593e-05
-0.000109384
7.23547e-05
-0.000108256
-0.000103734
7.43431e-05
-2.00569e-06
-0.000142653
6.05524e-06
-0.000104618
8.16477e-06
-0.000113913
9.67311e-06
-0.00011591
1.10129e-05
-0.000115289
1.19161e-05
-0.00011444
1.22671e-05
-0.000113746
1.23131e-05
-0.000113333
1.22683e-05
-0.000112786
1.25192e-05
-0.000111956
1.34581e-05
-0.000111076
1.49034e-05
-0.000110878
1.62632e-05
-0.000111527
1.81103e-05
-0.00011286
2.1972e-05
-0.000113435
2.68129e-05
-0.000113897
3.22114e-05
-0.000113335
3.79187e-05
-0.000111394
4.38152e-05
-0.000108689
4.51904e-05
-0.00010838
4.38578e-05
-0.000108051
4.09713e-05
-0.000105369
-9.88924e-05
3.61298e-05
-6.42646e-06
-0.000136227
2.13925e-06
-0.000113184
4.00525e-06
-0.00011578
4.05832e-06
-0.000115963
3.9532e-06
-0.000115184
3.78648e-06
-0.000114273
3.62037e-06
-0.00011358
3.33997e-06
-0.000113053
3.12645e-06
-0.000112573
3.29084e-06
-0.000112121
4.08347e-06
-0.000111868
5.39386e-06
-0.000112188
7.02208e-06
-0.000113155
8.60468e-06
-0.000114442
1.07682e-05
-0.000115599
1.29868e-05
-0.000116116
1.51769e-05
-0.000115525
1.7538e-05
-0.000113755
1.9778e-05
-0.000110929
1.95454e-05
-0.000108147
1.63543e-05
-0.00010486
1.03879e-05
-9.9403e-05
-9.05193e-05
2.01452e-06
-5.3842e-06
-0.000130843
-8.65068e-07
-0.000117703
-3.25389e-08
-0.000116612
-7.50248e-07
-0.000115245
-1.69846e-06
-0.000114236
-2.60091e-06
-0.000113371
-3.44417e-06
-0.000112737
-4.18297e-06
-0.000112314
-4.69837e-06
-0.000112058
-4.83592e-06
-0.000111983
-4.50211e-06
-0.000112202
-3.81774e-06
-0.000112872
-3.01142e-06
-0.000113961
-2.25206e-06
-0.000115202
-1.68963e-06
-0.000116161
-1.45462e-06
-0.00011635
-1.52249e-06
-0.000115457
-1.90551e-06
-0.000113372
-2.80212e-06
-0.000110032
-5.30646e-06
-0.000105643
-1.02533e-05
-9.99133e-05
-1.77499e-05
-9.19065e-05
-8.08408e-05
-2.74286e-05
-4.45699e-06
-0.000126387
-3.3014e-06
-0.000118859
-3.88655e-06
-0.000116027
-5.05332e-06
-0.000114079
-6.47451e-06
-0.000112815
-7.88932e-06
-0.000111956
-9.21001e-06
-0.000111416
-1.03826e-05
-0.000111142
-1.13386e-05
-0.000111102
-1.20147e-05
-0.000111307
-1.24122e-05
-0.000111805
-1.26587e-05
-0.000112626
-1.2953e-05
-0.000113667
-1.349e-05
-0.000114664
-1.44108e-05
-0.00011524
-1.57691e-05
-0.000114992
-1.75981e-05
-0.000113628
-2.0006e-05
-0.000110964
-2.31998e-05
-0.000106839
-2.76935e-05
-0.000101149
-3.39935e-05
-9.36133e-05
-4.21942e-05
-8.37058e-05
-7.10282e-05
-5.2007e-05
-4.17453e-06
-0.000122212
-5.3639e-06
-0.00011767
-6.88488e-06
-0.000114507
-8.57781e-06
-0.000112386
-1.03603e-05
-0.000111032
-1.21343e-05
-0.000110182
-1.38444e-05
-0.000109706
-1.54533e-05
-0.000109533
-1.69294e-05
-0.000109626
-1.82638e-05
-0.000109973
-1.95019e-05
-0.000110567
-2.07648e-05
-0.000111363
-2.22145e-05
-0.000112217
-2.40043e-05
-0.000112875
-2.62422e-05
-0.000113002
-2.89825e-05
-0.000112252
-3.22798e-05
-0.000110331
-3.6238e-05
-0.000107006
-4.10131e-05
-0.000102064
-4.68517e-05
-9.53107e-05
-5.39565e-05
-8.65085e-05
-6.22865e-05
-7.53759e-05
-6.1768e-05
-7.15469e-05
-4.27929e-06
-0.000117933
-6.79245e-06
-0.000115157
-9.0375e-06
-0.000112262
-1.11957e-05
-0.000110228
-1.33302e-05
-0.000108898
-1.544e-05
-0.000108072
-1.75175e-05
-0.000107629
-1.95572e-05
-0.000107493
-2.15623e-05
-0.000107621
-2.35575e-05
-0.000107978
-2.56057e-05
-0.000108519
-2.78133e-05
-0.000109155
-3.0306e-05
-0.000109725
-3.31982e-05
-0.000109983
-3.6571e-05
-0.00010963
-4.04718e-05
-0.000108351
-4.49429e-05
-0.00010586
-5.00447e-05
-0.000101904
-5.58496e-05
-9.62586e-05
-6.24333e-05
-8.8727e-05
-6.98034e-05
-7.91383e-05
-7.78094e-05
-6.73699e-05
-5.34376e-05
-8.61399e-05
-4.44527e-06
-0.000113488
-7.67405e-06
-0.000111928
-1.04451e-05
-0.00010949
-1.30003e-05
-0.000107673
-1.54645e-05
-0.000106434
-1.78935e-05
-0.000105643
-2.03184e-05
-0.000105204
-2.27646e-05
-0.000105047
-2.52622e-05
-0.000105123
-2.78565e-05
-0.000105383
-3.06158e-05
-0.000105759
-3.36299e-05
-0.000106141
-3.69947e-05
-0.00010636
-4.07919e-05
-0.000106185
-4.50763e-05
-0.000105345
-4.98749e-05
-0.000103552
-5.52e-05
-0.000100535
-6.10574e-05
-9.6047e-05
-6.74376e-05
-8.98785e-05
-7.42998e-05
-8.18648e-05
-8.15365e-05
-7.19015e-05
-8.8937e-05
-5.99695e-05
-4.61812e-05
-9.61935e-05
-4.52956e-06
-0.000108958
-8.14036e-06
-0.000108317
-1.12673e-05
-0.000106364
-1.4136e-05
-0.000104804
-1.68853e-05
-0.000103684
-1.95981e-05
-0.000102931
-2.23317e-05
-0.00010247
-2.51338e-05
-0.000102245
-2.80534e-05
-0.000102204
-3.11472e-05
-0.000102289
-3.44828e-05
-0.000102424
-3.8135e-05
-0.000102489
-4.21746e-05
-0.00010232
-4.66558e-05
-0.000101704
-5.16065e-05
-0.000100394
-5.70272e-05
-9.81318e-05
-6.28949e-05
-9.4667e-05
-6.91644e-05
-8.97775e-05
-7.57618e-05
-8.32811e-05
-8.25735e-05
-7.50531e-05
-8.94312e-05
-6.50438e-05
-9.61032e-05
-5.32975e-05
-3.99754e-05
-0.000102309
-4.50785e-06
-0.00010445
-8.30045e-06
-0.000104524
-1.16493e-05
-0.000103015
-1.47444e-05
-0.000101709
-1.77177e-05
-0.000100711
-2.06611e-05
-9.99872e-05
-2.36454e-05
-9.94861e-05
-2.67322e-05
-9.91583e-05
-2.99813e-05
-9.89546e-05
-3.34544e-05
-9.88163e-05
-3.72155e-05
-9.86626e-05
-4.13258e-05
-9.83787e-05
-4.5836e-05
-9.781e-05
-5.07763e-05
-9.67638e-05
-5.61503e-05
-9.50204e-05
-6.19317e-05
-9.23503e-05
-6.80657e-05
-8.85331e-05
-7.44678e-05
-8.33754e-05
-8.10209e-05
-7.6728e-05
-8.75713e-05
-6.85027e-05
-9.39265e-05
-5.86886e-05
-9.98596e-05
-4.73645e-05
-3.47101e-05
-0.000105125
-4.40263e-06
-0.000100047
-8.24639e-06
-0.000100681
-1.171e-05
-9.9551e-05
-1.49477e-05
-9.84711e-05
-1.8076e-05
-9.75827e-05
-2.11852e-05
-9.6878e-05
-2.43503e-05
-9.63209e-05
-2.76387e-05
-9.58699e-05
-3.11145e-05
-9.54787e-05
-3.48401e-05
-9.50906e-05
-3.88741e-05
-9.46285e-05
-4.32663e-05
-9.39866e-05
-4.80506e-05
-9.30257e-05
-5.32382e-05
-9.15761e-05
-5.88122e-05
-8.94464e-05
-6.47246e-05
-8.64379e-05
-7.08963e-05
-8.23614e-05
-7.72171e-05
-7.70546e-05
-8.35461e-05
-7.03991e-05
-8.97129e-05
-6.23358e-05
-9.5523e-05
-5.28786e-05
-0.000100767
-4.21208e-05
-3.02398e-05
-0.000105237
-4.23775e-06
-9.58094e-05
-8.04451e-06
-9.68737e-05
-1.15391e-05
-9.60564e-05
-1.48439e-05
-9.51662e-05
-1.80581e-05
-9.43685e-05
-2.12645e-05
-9.36716e-05
-2.45359e-05
-9.30494e-05
-2.79398e-05
-9.2466e-05
-3.15397e-05
-9.18788e-05
-3.53954e-05
-9.12349e-05
-3.95593e-05
-9.04646e-05
-4.40713e-05
-8.94745e-05
-4.89527e-05
-8.81442e-05
-5.42003e-05
-8.63285e-05
-5.97821e-05
-8.38647e-05
-6.5635e-05
-8.05849e-05
-7.16651e-05
-7.63313e-05
-7.77489e-05
-7.09708e-05
-8.37364e-05
-6.44117e-05
-8.94559e-05
-5.66163e-05
-9.47229e-05
-4.76116e-05
-9.93506e-05
-3.74932e-05
-2.64257e-05
-0.000103165
-4.0351e-06
-9.17742e-05
-7.74307e-06
-9.31656e-05
-1.12022e-05
-9.25971e-05
-1.45086e-05
-9.18598e-05
-1.7744e-05
-9.1133e-05
-2.09812e-05
-9.04343e-05
-2.4287e-05
-8.97436e-05
-2.77245e-05
-8.90285e-05
-3.13536e-05
-8.82496e-05
-3.52293e-05
-8.73592e-05
-3.93974e-05
-8.62964e-05
-4.38897e-05
-8.49821e-05
-4.87181e-05
-8.33158e-05
-5.38696e-05
-8.11769e-05
-5.93029e-05
-7.84314e-05
-6.49467e-05
-7.49411e-05
-7.0701e-05
-7.0577e-05
-7.64387e-05
-6.52331e-05
-8.20115e-05
-5.8839e-05
-8.72557e-05
-5.1372e-05
-9.20024e-05
-4.2865e-05
-9.60878e-05
-3.34077e-05
-2.31463e-05
-9.93673e-05
-3.80635e-06
-8.79676e-05
-7.37208e-06
-8.95997e-05
-1.07446e-05
-8.92245e-05
-1.39977e-05
-8.86067e-05
-1.71974e-05
-8.79332e-05
-2.04053e-05
-8.72263e-05
-2.36803e-05
-8.64687e-05
-2.70789e-05
-8.56298e-05
-3.06553e-05
-8.46732e-05
-3.4458e-05
-8.35563e-05
-3.85267e-05
-8.22277e-05
-4.28862e-05
-8.06226e-05
-4.75419e-05
-7.866e-05
-5.24753e-05
-7.62436e-05
-5.76407e-05
-7.32659e-05
-6.29649e-05
-6.96168e-05
-6.83481e-05
-6.51938e-05
-7.36678e-05
-5.99135e-05
-7.87834e-05
-5.37233e-05
-8.35447e-05
-4.66108e-05
-8.78005e-05
-3.86093e-05
-9.14091e-05
-2.97993e-05
-2.03073e-05
-9.42481e-05
-3.55985e-06
-8.44077e-05
-6.95173e-06
-8.62078e-05
-1.01975e-05
-8.59786e-05
-1.33522e-05
-8.54519e-05
-1.64677e-05
-8.48176e-05
-1.95946e-05
-8.40994e-05
-2.2783e-05
-8.32803e-05
-2.60821e-05
-8.23306e-05
-2.95389e-05
-8.12163e-05
-3.31954e-05
-7.98998e-05
-3.70846e-05
-7.83385e-05
-4.1226e-05
-7.64811e-05
-4.56206e-05
-7.42653e-05
-5.02473e-05
-7.16168e-05
-5.50606e-05
-6.84527e-05
-5.99895e-05
-6.46879e-05
-6.494e-05
-6.02432e-05
-6.97982e-05
-5.50553e-05
-7.44361e-05
-4.90855e-05
-7.8719e-05
-4.23279e-05
-8.2514e-05
-3.48143e-05
-8.56988e-05
-2.66144e-05
-1.7835e-05
-8.81713e-05
-3.29797e-06
-8.11095e-05
-6.49336e-06
-8.30122e-05
-9.58175e-06
-8.28902e-05
-1.2602e-05
-8.24317e-05
-1.55932e-05
-8.18264e-05
-1.8596e-05
-8.10965e-05
-2.1652e-05
-8.02241e-05
-2.48032e-05
-7.91795e-05
-2.80892e-05
-7.79302e-05
-3.15451e-05
-7.64438e-05
-3.5198e-05
-7.46856e-05
-3.90624e-05
-7.26167e-05
-4.31366e-05
-7.0191e-05
-4.73995e-05
-6.73539e-05
-5.18078e-05
-6.40444e-05
-5.62965e-05
-6.01991e-05
-6.07803e-05
-5.57595e-05
-6.51569e-05
-5.06787e-05
-6.93127e-05
-4.49297e-05
-7.31296e-05
-3.85111e-05
-7.64924e-05
-3.14515e-05
-7.92968e-05
-2.38102e-05
-1.5676e-05
-8.14557e-05
-3.0225e-06
-7.8087e-05
-6.00524e-06
-8.00294e-05
-8.91249e-06
-7.99828e-05
-1.1769e-05
-7.95751e-05
-1.46031e-05
-7.89922e-05
-1.74468e-05
-7.82529e-05
-2.03342e-05
-7.73366e-05
-2.33005e-05
-7.62132e-05
-2.63785e-05
-7.48522e-05
-2.95969e-05
-7.32253e-05
-3.29769e-05
-7.13056e-05
-3.65287e-05
-6.90648e-05
-4.0249e-05
-6.64707e-05
-4.41174e-05
-6.34855e-05
-4.80952e-05
-6.00666e-05
-5.21246e-05
-5.61697e-05
-5.61306e-05
-5.17535e-05
-6.00241e-05
-4.67852e-05
-6.37066e-05
-4.12473e-05
-6.70761e-05
-3.51415e-05
-7.00345e-05
-2.84933e-05
-7.24928e-05
-2.13517e-05
-1.37902e-05
-7.43787e-05
-2.73256e-06
-7.53542e-05
-5.49289e-06
-7.7269e-05
-8.20125e-06
-7.72744e-05
-1.08706e-05
-7.69057e-05
-1.35206e-05
-7.63422e-05
-1.61766e-05
-7.55968e-05
-1.88672e-05
-7.4646e-05
-2.16214e-05
-7.34589e-05
-2.44662e-05
-7.20073e-05
-2.74243e-05
-7.02672e-05
-3.05114e-05
-6.82184e-05
-3.37342e-05
-6.5842e-05
-3.70876e-05
-6.31172e-05
-4.0553e-05
-6.00201e-05
-4.40963e-05
-5.65233e-05
-4.7668e-05
-5.2598e-05
-5.1204e-05
-4.82175e-05
-5.46281e-05
-4.33611e-05
-5.78566e-05
-3.80188e-05
-6.08031e-05
-3.21951e-05
-6.33843e-05
-2.5912e-05
-6.55264e-05
-1.92099e-05
-1.21482e-05
-6.71684e-05
-2.43012e-06
-7.29241e-05
-4.96404e-06
-7.47351e-05
-7.45937e-06
-7.47791e-05
-9.92121e-06
-7.44438e-05
-1.2364e-05
-7.38994e-05
-1.4809e-05
-7.31518e-05
-1.72808e-05
-7.21742e-05
-1.98037e-05
-7.0936e-05
-2.23995e-05
-6.94115e-05
-2.50853e-05
-6.75813e-05
-2.78722e-05
-6.54316e-05
-3.07632e-05
-6.2951e-05
-3.37521e-05
-6.01283e-05
-3.6822e-05
-5.69502e-05
-3.99436e-05
-5.34017e-05
-4.30752e-05
-4.94665e-05
-4.61631e-05
-4.51297e-05
-4.91436e-05
-4.03807e-05
-5.19464e-05
-3.52161e-05
-5.44991e-05
-2.96425e-05
-5.67323e-05
-2.36789e-05
-5.85844e-05
-1.73577e-05
-1.0726e-05
-6.00069e-05
-2.12057e-06
-7.08034e-05
-4.42991e-06
-7.24257e-05
-6.69995e-06
-7.2509e-05
-8.93512e-06
-7.22087e-05
-1.11496e-05
-7.1685e-05
-1.33636e-05
-7.09378e-05
-1.55994e-05
-6.99384e-05
-1.78775e-05
-6.86579e-05
-2.02152e-05
-6.70738e-05
-2.26245e-05
-6.5172e-05
-2.51119e-05
-6.29442e-05
-2.76776e-05
-6.03853e-05
-3.03144e-05
-5.74915e-05
-3.30069e-05
-5.42578e-05
-3.57302e-05
-5.06784e-05
-3.84499e-05
-4.67468e-05
-4.11219e-05
-4.24578e-05
-4.36936e-05
-3.78091e-05
-4.61065e-05
-3.28032e-05
-4.83001e-05
-2.7449e-05
-5.02162e-05
-2.17628e-05
-5.18048e-05
-1.57694e-05
-9.50367e-06
-5.30271e-05
-1.81921e-06
-6.89844e-05
-3.90968e-06
-7.03353e-05
-5.94009e-06
-7.04787e-05
-7.92737e-06
-7.02214e-05
-9.89227e-06
-6.97201e-05
-1.18573e-05
-6.89728e-05
-1.38433e-05
-6.79524e-05
-1.58677e-05
-6.66335e-05
-1.79427e-05
-6.49988e-05
-2.00758e-05
-6.3039e-05
-2.22694e-05
-6.07506e-05
-2.45209e-05
-5.81338e-05
-2.68226e-05
-5.51899e-05
-2.91606e-05
-5.19198e-05
-3.15145e-05
-4.83246e-05
-3.38563e-05
-4.44051e-05
-3.61504e-05
-4.01638e-05
-3.83541e-05
-3.56056e-05
-4.04187e-05
-3.07387e-05
-4.2293e-05
-2.55747e-05
-4.39273e-05
-2.01287e-05
-4.52792e-05
-1.44174e-05
-8.46207e-06
-4.6321e-05
-1.55157e-06
-6.74327e-05
-3.43133e-06
-6.84556e-05
-5.20069e-06
-6.87094e-05
-6.91388e-06
-6.85083e-05
-8.60673e-06
-6.80273e-05
-1.0306e-05
-6.72736e-05
-1.20314e-05
-6.62271e-05
-1.37958e-05
-6.48692e-05
-1.56065e-05
-6.31883e-05
-1.74658e-05
-6.11797e-05
-1.93725e-05
-5.8844e-05
-2.13219e-05
-5.61845e-05
-2.3306e-05
-5.32058e-05
-2.5313e-05
-4.99129e-05
-2.73266e-05
-4.63111e-05
-2.9325e-05
-4.24067e-05
-3.12808e-05
-3.82082e-05
-3.31598e-05
-3.37267e-05
-3.49217e-05
-2.89768e-05
-3.65219e-05
-2.39747e-05
-3.79148e-05
-1.87359e-05
-3.90617e-05
-1.32709e-05
-7.58183e-06
-3.99421e-05
-1.36925e-06
-6.60637e-05
-3.03262e-06
-6.67923e-05
-4.50375e-06
-6.72383e-05
-5.90921e-06
-6.71029e-05
-7.30648e-06
-6.66301e-05
-8.72549e-06
-6.58547e-05
-1.01819e-05
-6.47707e-05
-1.16825e-05
-6.33687e-05
-1.32281e-05
-6.16428e-05
-1.4816e-05
-5.95918e-05
-1.64417e-05
-5.72184e-05
-1.8099e-05