/*--------------------------------*- C++ -*----------------------------------*\
  =========                 |
  \\      /  F ield         | OpenFOAM: The Open Source CFD Toolbox
   \\    /   O peration     | Website:  https://openfoam.org
    \\  /    A nd           | Version:  13
     \\/     M anipulation  |
\*---------------------------------------------------------------------------*/
FoamFile
{
    format      ascii;
    class       volVectorField;
    location    "0.2";
    object      U;
}
// * * * * * * * * * * * * * * * * * * * * * * * * * * * * * * * * * * * * * //

dimensions      [0 1 -1 0 0 0 0];

internalField   nonuniform List<vector> 
2268
(
(-0.00840352 0.00249979 0)
(0.00259269 -0.00594993 0)
(0.0329801 -0.0102822 0)
(0.0680073 -0.0118315 0)
(0.107 -0.0126625 0)
(0.148736 -0.0133419 0)
(0.193119 -0.0141568 0)
(0.240536 -0.0152336 0)
(0.291556 -0.0166065 0)
(0.346715 -0.0182414 0)
(0.406396 -0.0200613 0)
(0.470755 -0.0219661 0)
(0.539525 -0.023802 0)
(0.612234 -0.0256735 0)
(0.689786 -0.0280778 0)
(0.773596 -0.0300909 0)
(0.859652 -0.0288422 0)
(0.934525 -0.0221973 0)
(0.979944 -0.0101668 0)
(0.975005 0.00778419 0)
(0.898028 0.0386814 0)
(0.632528 0.0953949 0)
(0.448704 0.160714 0)
(0.00347052 0.000341432 0)
(0.0236932 -0.0155101 0)
(0.0556946 -0.0233246 0)
(0.0917497 -0.0270319 0)
(0.131398 -0.0293707 0)
(0.17383 -0.0313384 0)
(0.21888 -0.0334033 0)
(0.26669 -0.0357597 0)
(0.3175 -0.0384388 0)
(0.37151 -0.0413666 0)
(0.428805 -0.0444212 0)
(0.48936 -0.047433 0)
(0.552701 -0.0500469 0)
(0.6178 -0.0524628 0)
(0.685151 -0.0561638 0)
(0.75707 -0.0599391 0)
(0.831574 -0.0573608 0)
(0.897041 -0.0424315 0)
(0.936713 -0.0143933 0)
(0.932828 0.0299863 0)
(0.868273 0.105885 0)
(0.621526 0.229331 0)
(0.443741 0.331947 0)
(0.0137676 -0.00914737 0)
(0.0393116 -0.0291159 0)
(0.0731536 -0.0392435 0)
(0.109839 -0.0446875 0)
(0.149535 -0.0483597 0)
(0.191776 -0.0515161 0)
(0.236429 -0.0547608 0)
(0.283532 -0.0583546 0)
(0.333169 -0.0623372 0)
(0.385362 -0.0666016 0)
(0.440043 -0.0709821 0)
(0.497113 -0.075213 0)
(0.555977 -0.0786419 0)
(0.615014 -0.0814478 0)
(0.674162 -0.0862283 0)
(0.736516 -0.0919435 0)
(0.802011 -0.0888919 0)
(0.86065 -0.0669674 0)
(0.897265 -0.0244552 0)
(0.896164 0.0446046 0)
(0.842818 0.164425 0)
(0.615773 0.361018 0)
(0.450726 0.549819 0)
(0.0214971 -0.0239214 0)
(0.0518368 -0.0448216 0)
(0.0879781 -0.0560695 0)
(0.125444 -0.0627334 0)
(0.165151 -0.0675171 0)
(0.207002 -0.0717232 0)
(0.250962 -0.0760098 0)
(0.297044 -0.0806633 0)
(0.345254 -0.0857076 0)
(0.395503 -0.0909966 0)
(0.447629 -0.0963418 0)
(0.501552 -0.101387 0)
(0.556642 -0.105086 0)
(0.610649 -0.10746 0)
(0.662825 -0.112495 0)
(0.716868 -0.119914 0)
(0.774466 -0.11694 0)
(0.827289 -0.089016 0)
(0.861256 -0.0333257 0)
(0.860332 0.0569437 0)
(0.806965 0.210864 0)
(0.581308 0.472035 0)
(0.449966 0.767819 0)
(0.026851 -0.0425398 0)
(0.0618261 -0.0623914 0)
(0.100551 -0.0737388 0)
(0.138987 -0.0811096 0)
(0.178782 -0.0867527 0)
(0.220199 -0.091851 0)
(0.263339 -0.0970438 0)
(0.308245 -0.102607 0)
(0.354895 -0.108529 0)
(0.40313 -0.114622 0)
(0.452736 -0.120699 0)
(0.503733 -0.126381 0)
(0.555566 -0.130131 0)
(0.605439 -0.1316 0)
(0.651915 -0.136299 0)
(0.698678 -0.145091 0)
(0.748304 -0.142455 0)
(0.794403 -0.108772 0)
(0.823893 -0.0414554 0)
(0.815709 0.0633817 0)
(0.742435 0.246695 0)
(0.471433 0.567428 0)
(0.434218 0.971831 0)
(0.0307984 -0.0635782 0)
(0.0698532 -0.0814721 0)
(0.111064 -0.092077 0)
(0.150487 -0.0996279 0)
(0.190398 -0.105826 0)
(0.231354 -0.111615 0)
(0.273587 -0.117558 0)
(0.317209 -0.123891 0)
(0.362208 -0.130551 0)
(0.408384 -0.137292 0)
(0.455475 -0.14399 0)
(0.503652 -0.150294 0)
(0.552526 -0.154142 0)
(0.599141 -0.154416 0)
(0.642016 -0.157661 0)
(0.683345 -0.16644 0)
(0.724038 -0.16306 0)
(0.759678 -0.123735 0)
(0.779462 -0.0448149 0)
(0.750714 0.0881491 0)
(0.630621 0.318037 0)
(0.261186 0.672502 0)
(0.436394 1.15799 0)
(0.0343015 -0.0868465 0)
(0.0763563 -0.101994 0)
(0.119618 -0.111156 0)
(0.159865 -0.118411 0)
(0.199831 -0.124863 0)
(0.240259 -0.131132 0)
(0.281491 -0.137671 0)
(0.323723 -0.14466 0)
(0.366991 -0.15196 0)
(0.411058 -0.159257 0)
(0.455627 -0.166474 0)
(0.500992 -0.173219 0)
(0.546821 -0.176644 0)
(0.590851 -0.17436 0)
(0.633061 -0.174602 0)
(0.672501 -0.181917 0)
(0.704297 -0.176871 0)
(0.725892 -0.134323 0)
(0.727867 -0.0364378 0)
(0.663889 0.165505 0)
(0.590908 0.49246 0)
(0.0139665 0.860953 0)
(0.472755 1.27192 0)
(0.0378007 -0.117249 0)
(0.0811212 -0.125985 0)
(0.125989 -0.132313 0)
(0.166852 -0.138546 0)
(0.206768 -0.144786 0)
(0.246573 -0.151169 0)
(0.2867 -0.157972 0)
(0.327445 -0.165261 0)
(0.368907 -0.172752 0)
(0.410859 -0.179979 0)
(0.453029 -0.186843 0)
(0.495706 -0.193096 0)
(0.53829 -0.195654 0)
(0.580413 -0.191379 0)
(0.625281 -0.189459 0)
(0.668375 -0.194584 0)
(0.694288 -0.186656 0)
(0.7039 -0.138873 0)
(0.699604 -0.013546 0)
(0.640218 0.200371 0)
(0.606549 0.530925 0)
(0.228468 0.96201 0)
(0.533916 1.33859 0)
(-1.068 0.200822 0)
(-1.43409 -0.231001 0)
(-1.26496 -0.472023 0)
(-1.15602 -0.291779 0)
(-1.02375 -0.208027 0)
(-0.512745 -0.207514 0)
(0.0361838 -0.240028 0)
(0.553286 -0.164563 0)
(0.932976 -0.123556 0)
(1.25963 -0.108248 0)
(1.55458 -0.0982073 0)
(1.82528 -0.0837797 0)
(2.03971 -0.0675054 0)
(2.19157 -0.0542056 0)
(2.27823 -0.0537682 0)
(2.32455 -0.0793294 0)
(2.35123 -0.125389 0)
(2.41018 -0.314408 0)
(1.51449 0.205037 0)
(-0.756055 0.634039 0)
(-0.885213 0.366693 0)
(-1.19392 0.29043 0)
(-1.15308 0.00539386 0)
(-0.794445 -0.0660679 0)
(0.105946 -0.395951 0)
(0.387982 -0.346257 0)
(0.753075 -0.256864 0)
(1.06604 -0.207391 0)
(1.33959 -0.18935 0)
(1.58978 -0.176724 0)
(1.8188 -0.153339 0)
(2.01099 -0.113419 0)
(2.14459 -0.0663945 0)
(2.21709 -0.0295362 0)
(2.25156 -0.00172433 0)
(2.27437 0.0356957 0)
(1.82706 0.799608 0)
(0.902174 1.06748 0)
(-0.57162 0.860287 0)
(-0.573874 0.295653 0)
(-0.841278 -0.126296 0)
(-1.20631 -0.307251 0)
(0.00707902 -0.537735 0)
(0.579766 -0.653559 0)
(0.676107 -0.489213 0)
(0.933282 -0.377335 0)
(1.18057 -0.319377 0)
(1.40585 -0.292264 0)
(1.61499 -0.271413 0)
(1.80649 -0.238658 0)
(1.96607 -0.184308 0)
(2.07627 -0.119261 0)
(2.13934 -0.0775178 0)
(2.17352 -0.0553032 0)
(2.08259 0.122894 0)
(1.12521 0.84095 0)
(0.581708 1.44064 0)
(-0.407816 1.02729 0)
(-0.112776 0.392085 0)
(-0.33973 -0.0584616 0)
(0.661715 0.0912432 0)
(0.880625 -0.733842 0)
(0.874899 -0.734982 0)
(0.909804 -0.569407 0)
(1.08134 -0.463892 0)
(1.27035 -0.40729 0)
(1.45314 -0.375833 0)
(1.62734 -0.348714 0)
(1.7871 -0.307007 0)
(1.91628 -0.240084 0)
(2.00679 -0.160673 0)
(2.08078 -0.102687 0)
(2.14363 -0.00570516 0)
(1.40799 0.459399 0)
(0.749369 1.10352 0)
(0.382012 1.71369 0)
(-0.270547 1.07993 0)
(0.278944 0.304696 0)
(0.0701149 -0.204388 0)
(1.15257 -0.625048 0)
(1.12738 -0.738817 0)
(1.05498 -0.729554 0)
(1.06839 -0.610804 0)
(1.18685 -0.526083 0)
(1.33321 -0.476087 0)
(1.48262 -0.444222 0)
(1.62829 -0.412955 0)
(1.76067 -0.363432 0)
(1.86146 -0.287211 0)
(1.93305 -0.204385 0)
(2.03624 -0.112097 0)
(1.69445 0.270744 0)
(1.06577 0.72121 0)
(0.537726 1.334 0)
(0.247266 1.9032 0)
(-0.0776496 1.10871 0)
(0.699391 0.232871 0)
(1.21624 -0.379457 0)
(1.25393 -0.591469 0)
(1.215 -0.704951 0)
(1.16034 -0.714973 0)
(1.17277 -0.638848 0)
(1.26038 -0.573753 0)
(1.37621 -0.531191 0)
(1.49932 -0.50058 0)
(1.62111 -0.46617 0)
(1.72866 -0.409431 0)
(1.80554 -0.325931 0)
(1.85995 -0.243198 0)
(1.98295 0.0656205 0)
(1.40498 0.456808 0)
(0.873803 0.944979 0)
(0.398972 1.5122 0)
(0.155042 2.03016 0)
(0.477958 1.05449 0)
(1.14382 -0.219433 0)
(1.2611 -0.433405 0)
(1.28076 -0.580726 0)
(1.26116 -0.689771 0)
(1.23328 -0.709213 0)
(1.24729 -0.660827 0)
(1.31401 -0.611521 0)
(1.40626 -0.576096 0)
(1.50753 -0.547287 0)
(1.6082 -0.510023 0)
(1.69292 -0.446934 0)
(1.75319 -0.359121 0)
(1.79917 -0.278865 0)
(1.73734 0.174756 0)
(1.18445 0.657967 0)
(0.726957 1.14278 0)
(0.295634 1.66239 0)
(0.0918226 2.11662 0)
(0.979227 0.0284868 0)
(1.17854 -0.262167 0)
(1.26357 -0.435301 0)
(1.3007 -0.588035 0)
(1.30315 -0.685997 0)
(1.29185 -0.708867 0)
(1.30439 -0.678767 0)
(1.35452 -0.642452 0)
(1.42732 -0.613804 0)
(1.50973 -0.586885 0)
(1.59072 -0.547132 0)
(1.65481 -0.48002 0)
(1.70536 -0.389765 0)
(1.79192 -0.235994 0)
(1.42188 0.331534 0)
(0.993759 0.844198 0)
(0.594675 1.31594 0)
(0.211083 1.79014 0)
(0.0484873 2.17446 0)
(0.0420627 -0.159629 0)
(0.0845949 -0.161514 0)
(0.13125 -0.164157 0)
(0.172829 -0.168768 0)
(0.212595 -0.174206 0)
(0.251458 -0.180017 0)
(0.289967 -0.18632 0)
(0.328548 -0.193042 0)
(0.367367 -0.199711 0)
(0.406188 -0.205583 0)
(0.445513 -0.211065 0)
(0.486425 -0.217159 0)
(0.527975 -0.220777 0)
(0.572931 -0.219806 0)
(0.627199 -0.232789 0)
(0.672488 -0.23469 0)
(0.698099 -0.209783 0)
(0.702316 -0.135635 0)
(0.689204 0.0114736 0)
(0.662382 0.22104 0)
(0.703003 0.536153 0)
(0.865488 0.923116 0)
(0.798034 1.36808 0)
(0.0492228 -0.21053 0)
(0.0845908 -0.202844 0)
(0.130487 -0.200757 0)
(0.17092 -0.202672 0)
(0.209539 -0.206274 0)
(0.247354 -0.21113 0)
(0.285179 -0.217258 0)
(0.323657 -0.224246 0)
(0.362941 -0.231391 0)
(0.40415 -0.237407 0)
(0.448948 -0.246434 0)
(0.495942 -0.260782 0)
(0.543024 -0.275273 0)
(0.595752 -0.286989 0)
(0.646142 -0.285369 0)
(0.683773 -0.265914 0)
(0.705079 -0.222797 0)
(0.712275 -0.129212 0)
(0.704636 0.0220106 0)
(0.710705 0.20253 0)
(0.781736 0.43126 0)
(0.974975 0.677811 0)
(1.2487 0.789722 0)
(0.0467483 -0.283983 0)
(0.0668995 -0.248459 0)
(0.118044 -0.240798 0)
(0.159577 -0.240205 0)
(0.19959 -0.242987 0)
(0.238936 -0.249044 0)
(0.278301 -0.258291 0)
(0.318482 -0.270597 0)
(0.360405 -0.286235 0)
(0.405921 -0.304279 0)
(0.45622 -0.320157 0)
(0.508013 -0.329732 0)
(0.557965 -0.333438 0)
(0.604393 -0.330359 0)
(0.643782 -0.317751 0)
(0.6727 -0.288066 0)
(0.68807 -0.232341 0)
(0.694521 -0.128634 0)
(0.700638 0.0150262 0)
(0.728546 0.157445 0)
(0.80564 0.305956 0)
(0.960493 0.43995 0)
(1.2286 0.48098 0)
(0.014159 -0.328948 0)
(0.0426641 -0.305109 0)
(0.0880286 -0.302744 0)
(0.130507 -0.302739 0)
(0.17357 -0.305001 0)
(0.217417 -0.309455 0)
(0.262171 -0.315864 0)
(0.308016 -0.324155 0)
(0.355004 -0.334371 0)
(0.402841 -0.346099 0)
(0.451151 -0.358225 0)
(0.499074 -0.368064 0)
(0.54491 -0.372327 0)
(0.586184 -0.36746 0)
(0.62015 -0.348344 0)
(0.64417 -0.309095 0)
(0.655833 -0.242099 0)
(0.663131 -0.133636 0)
(0.680464 -0.0092999 0)
(0.724383 0.0989981 0)
(0.806224 0.193867 0)
(0.93789 0.26283 0)
(1.13663 0.273294 0)
(0.00856985 -0.341371 0)
(0.0388564 -0.335705 0)
(0.0791998 -0.334119 0)
(0.119978 -0.334234 0)
(0.162034 -0.337004 0)
(0.205054 -0.342913 0)
(0.248993 -0.351779 0)
(0.293867 -0.36319 0)
(0.339518 -0.376592 0)
(0.385417 -0.390899 0)
(0.430881 -0.403994 0)
(0.47513 -0.412868 0)
(0.516833 -0.414035 0)
(0.553888 -0.403369 0)
(0.583709 -0.375966 0)
(0.603494 -0.327093 0)
(0.61309 -0.250614 0)
(0.624089 -0.144684 0)
(0.652097 -0.0473402 0)
(0.706421 0.031215 0)
(0.789938 0.0901889 0)
(0.905156 0.12081 0)
(1.05487 0.108925 0)
(0.0134112 -0.364631 0)
(0.0421139 -0.370315 0)
(0.0782572 -0.371771 0)
(0.115716 -0.373836 0)
(0.154631 -0.378039 0)
(0.194515 -0.385024 0)
(0.235158 -0.394838 0)
(0.276459 -0.407119 0)
(0.318247 -0.42112 0)
(0.360141 -0.43545 0)
(0.40156 -0.447724 0)
(0.441729 -0.454589 0)
(0.479371 -0.451945 0)
(0.512415 -0.435135 0)
(0.53794 -0.399682 0)
(0.55335 -0.341575 0)
(0.563332 -0.25842 0)
(0.580728 -0.167774 0)
(0.617867 -0.0948775 0)
(0.677545 -0.0406538 0)
(0.758841 -0.0068063 0)
(0.860191 0.00172736 0)
(0.979309 -0.021179 0)
(0.0160149 -0.392963 0)
(0.0438943 -0.40397 0)
(0.077306 -0.407476 0)
(0.111542 -0.410992 0)
(0.146842 -0.416278 0)
(0.18282 -0.424032 0)
(0.219261 -0.434392 0)
(0.256033 -0.447044 0)
(0.293003 -0.461169 0)
(0.329951 -0.475217 0)
(0.366518 -0.486624 0)
(0.402105 -0.491642 0)
(0.435535 -0.485444 0)
(0.464387 -0.46274 0)
(0.485048 -0.419343 0)
(0.49752 -0.353004 0)
(0.510023 -0.270697 0)
(0.535487 -0.200503 0)
(0.579307 -0.147173 0)
(0.640826 -0.111323 0)
(0.717563 -0.0943324 0)
(0.806923 -0.0983828 0)
(0.905899 -0.125669 0)
(0.016529 -0.421922 0)
(0.0436497 -0.435722 0)
(0.0749978 -0.440229 0)
(0.10633 -0.444488 0)
(0.138117 -0.450306 0)
(0.170072 -0.458397 0)
(0.202041 -0.468943 0)
(0.233912 -0.481669 0)
(0.26561 -0.495746 0)
(0.297058 -0.50956 0)
(0.328155 -0.520372 0)
(0.358648 -0.523996 0)
(0.387527 -0.514656 0)
(0.411677 -0.486232 0)
(0.427649 -0.434685 0)
(0.439443 -0.363211 0)
(0.457343 -0.29312 0)
(0.490119 -0.239789 0)
(0.538028 -0.201843 0)
(0.598951 -0.179664 0)
(0.670287 -0.173715 0)
(0.749276 -0.18492 0)
(0.833267 -0.214026 0)
(0.0164899 -0.450209 0)
(0.0425151 -0.465733 0)
(0.0721236 -0.470314 0)
(0.100775 -0.474634 0)
(0.129295 -0.48041 0)
(0.157408 -0.48833 0)
(0.184992 -0.498586 0)
(0.211942 -0.510949 0)
(0.238192 -0.524647 0)
(0.263764 -0.5381 0)
(0.288814 -0.548513 0)
(0.313612 -0.551277 0)
(0.337406 -0.539447 0)
(0.356505 -0.505202 0)
(0.369797 -0.446511 0)
(0.383643 -0.377569 0)
(0.408719 -0.322939 0)
(0.446864 -0.282952 0)
(0.496642 -0.256831 0)
(0.555606 -0.24432 0)
(0.62134 -0.245397 0)
(0.691324 -0.260337 0)
(0.763402 -0.289226 0)
(0.0169267 -0.477732 0)
(0.0413285 -0.494416 0)
(0.0696923 -0.498179 0)
(0.0959244 -0.501893 0)
(0.121552 -0.507047 0)
(0.146241 -0.514239 0)
(0.169845 -0.523645 0)
(0.192187 -0.535063 0)
(0.213135 -0.547808 0)
(0.232688 -0.560451 0)
(0.251196 -0.570361 0)
(0.269507 -0.572837 0)
(0.287264 -0.559559 0)
(0.30201 -0.520015 0)
(0.314943 -0.457961 0)
(0.334655 -0.400614 0)
(0.365898 -0.358085 0)
(0.407717 -0.328498 0)
(0.457985 -0.311026 0)
(0.514467 -0.305029 0)
(0.574963 -0.310335 0)
(0.6374 -0.326965 0)
(0.700143 -0.354544 0)
(0.0191458 -0.506715 0)
(0.0405079 -0.52323 0)
(0.0684092 -0.525338 0)
(0.09251 -0.527795 0)
(0.115763 -0.5318 0)
(0.13769 -0.537777 0)
(0.158064 -0.545754 0)
(0.176588 -0.555495 0)
(0.192969 -0.566354 0)
(0.207021 -0.577115 0)
(0.218982 -0.585634 0)
(0.230161 -0.587973 0)
(0.241111 -0.57475 0)
(0.252268 -0.53329 0)
(0.2681 -0.475869 0)
(0.294296 -0.430735 0)
(0.330048 -0.39794 0)
(0.373956 -0.376495 0)
(0.423828 -0.365417 0)
(0.477573 -0.363966 0)
(0.533285 -0.371951 0)
(0.589717 -0.389242 0)
(0.646538 -0.414739 0)
(0.0257016 -0.537751 0)
(0.0397316 -0.550334 0)
(0.0679279 -0.551072 0)
(0.0902497 -0.552001 0)
(0.11179 -0.554385 0)
(0.131956 -0.558383 0)
(0.150342 -0.563893 0)
(0.166496 -0.570771 0)
(0.180057 -0.578549 0)
(0.190421 -0.586228 0)
(0.197172 -0.592266 0)
(0.201471 -0.594056 0)
(0.205259 -0.582378 0)
(0.212986 -0.545937 0)
(0.232495 -0.501735 0)
(0.263177 -0.467178 0)
(0.301326 -0.44209 0)
(0.345413 -0.42658 0)
(0.393628 -0.419366 0)
(0.444231 -0.419142 0)
(0.495661 -0.425677 0)
(0.547031 -0.43894 0)
(0.598056 -0.45712 0)
(0.0390606 -0.561999 0)
(0.0393853 -0.567674 0)
(0.0673205 -0.567883 0)
(0.0882708 -0.567634 0)
(0.108789 -0.568524 0)
(0.127876 -0.570895 0)
(0.145528 -0.574659 0)
(0.161452 -0.57964 0)
(0.174975 -0.585256 0)
(0.184843 -0.590352 0)
(0.188866 -0.593715 0)
(0.186121 -0.595891 0)
(0.182239 -0.585763 0)
(0.189086 -0.554346 0)
(0.210244 -0.522515 0)
(0.241379 -0.497272 0)
(0.279091 -0.477836 0)
(0.321022 -0.465426 0)
(0.365486 -0.458397 0)
(0.412758 -0.455612 0)
(0.464344 -0.459394 0)
(0.518334 -0.46988 0)
(0.572643 -0.481297 0)
(0.249524 -0.60565 0)
(0.0302175 -0.578277 0)
(0.0694287 -0.581898 0)
(0.0885539 -0.579115 0)
(0.109634 -0.57493 0)
(0.128715 -0.57143 0)
(0.148335 -0.574249 0)
(0.165629 -0.579271 0)
(0.178962 -0.585495 0)
(0.186081 -0.590556 0)
(0.187627 -0.59075 0)
(0.180525 -0.593073 0)
(0.165168 -0.585921 0)
(0.165915 -0.556978 0)
(0.191772 -0.537498 0)
(0.224196 -0.517736 0)
(0.262741 -0.501178 0)
(0.304219 -0.489622 0)
(0.346911 -0.479184 0)
(0.401231 -0.458506 0)
(0.472698 -0.465904 0)
(0.536433 -0.492016 0)
(0.587695 -0.570723 0)
(0.204443 -0.75546 0)
(0.030261 -0.523775 0)
(0.0808654 -0.616586 0)
(0.0822954 -0.62154 0)
(0.0976444 -0.62818 0)
(0.107814 -0.639284 0)
(0.114075 -0.646722 0)
(0.117587 -0.645758 0)
(0.120156 -0.63718 0)
(0.121878 -0.620156 0)
(0.124974 -0.594287 0)
(0.130232 -0.574845 0)
(0.142595 -0.586699 0)
(0.158589 -0.598212 0)
(0.175622 -0.571585 0)
(0.2071 -0.545567 0)
(0.24823 -0.531475 0)
(0.291233 -0.528479 0)
(0.332433 -0.554151 0)
(0.33253 -0.658453 0)
(0.359638 -0.696658 0)
(0.381861 -0.680509 0)
(0.40771 -0.609233 0)
(-0.0119636 -0.820769 0)
(0.000399821 -0.502783 0)
(0.0485737 -0.631521 0)
(0.0472145 -0.650759 0)
(0.0557909 -0.644491 0)
(0.0620954 -0.634413 0)
(0.0655788 -0.623639 0)
(0.0662428 -0.617443 0)
(0.0657868 -0.611676 0)
(0.0657823 -0.604627 0)
(0.0687752 -0.596755 0)
(0.0757134 -0.594152 0)
(0.0831166 -0.59928 0)
(0.0908144 -0.618344 0)
(0.10613 -0.642241 0)
(0.130107 -0.661426 0)
(0.157855 -0.665729 0)
(0.188281 -0.65081 0)
(0.222761 -0.616913 0)
(0.241673 -0.596511 0)
(0.24186 -0.592363 0)
(0.230173 -0.58173 0)
(0.213257 -0.54826 0)
(-0.0473773 -0.754147 0)
(-0.00934658 -0.587151 0)
(0.0256256 -0.622059 0)
(0.0211745 -0.626612 0)
(0.0215139 -0.623027 0)
(0.0208827 -0.617711 0)
(0.0200821 -0.614391 0)
(0.0188433 -0.611392 0)
(0.0171467 -0.608345 0)
(0.0166156 -0.605043 0)
(0.019071 -0.602434 0)
(0.024761 -0.603064 0)
(0.0328898 -0.607918 0)
(0.0415882 -0.613731 0)
(0.0517881 -0.620459 0)
(0.0637084 -0.623852 0)
(0.0755962 -0.620684 0)
(0.0879823 -0.611092 0)
(0.101643 -0.595164 0)
(0.108656 -0.584061 0)
(0.100083 -0.573447 0)
(0.0750935 -0.551611 0)
(0.0379358 -0.511628 0)
(-0.0379825 -0.719979 0)
(-0.0136677 -0.626483 0)
(0.00231879 -0.628215 0)
(-0.00228116 -0.623404 0)
(-0.00645226 -0.618394 0)
(-0.0115303 -0.61393 0)
(-0.0161938 -0.610337 0)
(-0.0205366 -0.607868 0)
(-0.0241188 -0.606076 0)
(-0.0260706 -0.604928 0)
(-0.0255621 -0.605164 0)
(-0.0226952 -0.608011 0)
(-0.0184984 -0.61349 0)
(-0.0140416 -0.620383 0)
(-0.0102542 -0.625487 0)
(-0.0080465 -0.626778 0)
(-0.00755027 -0.622696 0)
(-0.00859782 -0.612796 0)
(-0.0112759 -0.597254 0)
(-0.0191243 -0.57835 0)
(-0.0384792 -0.553654 0)
(-0.0721921 -0.516865 0)
(-0.117773 -0.462735 0)
(-0.026539 -0.694135 0)
(-0.0194921 -0.641223 0)
(-0.0174732 -0.628746 0)
(-0.0237865 -0.618873 0)
(-0.030858 -0.612465 0)
(-0.038552 -0.607845 0)
(-0.0459372 -0.60485 0)
(-0.0527075 -0.603171 0)
(-0.0585312 -0.602589 0)
(-0.062984 -0.603199 0)
(-0.0658103 -0.60541 0)
(-0.0673681 -0.609655 0)
(-0.0685975 -0.615517 0)
(-0.0706031 -0.621518 0)
(-0.0743604 -0.625566 0)
(-0.0804068 -0.625435 0)
(-0.0888453 -0.619493 0)
(-0.0999956 -0.606887 0)
(-0.114575 -0.587005 0)
(-0.134512 -0.559856 0)
(-0.163118 -0.523563 0)
(-0.202379 -0.474371 0)
(-0.250282 -0.409325 0)
(-0.0204486 -0.67109 0)
(-0.0254862 -0.639959 0)
(-0.0324054 -0.623046 0)
(-0.0414163 -0.611597 0)
(-0.0507723 -0.604396 0)
(-0.0603604 -0.599773 0)
(-0.0697468 -0.59707 0)
(-0.0787001 -0.595936 0)
(-0.0870202 -0.596203 0)
(-0.0945595 -0.59787 0)
(-0.101376 -0.601031 0)
(-0.107919 -0.605601 0)
(-0.115003 -0.610885 0)
(-0.123526 -0.615469 0)
(-0.134229 -0.617446 0)
(-0.147519 -0.614827 0)
(-0.163603 -0.606024 0)
(-0.182889 -0.589863 0)
(-0.206069 -0.565268 0)
(-0.23425 -0.531317 0)
(-0.268931 -0.486542 0)
(-0.310815 -0.428892 0)
(-0.357606 -0.357036 0)
(-0.0180187 -0.648202 0)
(-0.030188 -0.629147 0)
(-0.0426034 -0.612533 0)
(-0.0543479 -0.601102 0)
(-0.0658178 -0.593767 0)
(-0.0771927 -0.589233 0)
(-0.0884284 -0.586788 0)
(-0.099481 -0.586032 0)
(-0.110328 -0.586741 0)
(-0.121018 -0.588791 0)
(-0.13177 -0.592019 0)
(-0.143048 -0.596038 0)
(-0.155508 -0.599997 0)
(-0.169835 -0.602539 0)
(-0.186571 -0.601963 0)
(-0.206038 -0.596488 0)
(-0.228432 -0.584541 0)
(-0.254026 -0.564776 0)
(-0.283197 -0.535962 0)
(-0.316384 -0.496992 0)
(-0.353996 -0.446753 0)
(-0.395806 -0.384238 0)
(-0.439261 -0.309218 0)
(-0.0170984 -0.624489 0)
(-0.0332094 -0.613171 0)
(-0.0489979 -0.598723 0)
(-0.0630533 -0.588249 0)
(-0.076425 -0.581269 0)
(-0.0894954 -0.576906 0)
(-0.102481 -0.574558 0)
(-0.115519 -0.573839 0)
(-0.128743 -0.574486 0)
(-0.142341 -0.576267 0)
(-0.156612 -0.578862 0)
(-0.171988 -0.581713 0)
(-0.188993 -0.583906 0)
(-0.208128 -0.584158 0)
(-0.22977 -0.580926 0)
(-0.254127 -0.572589 0)
(-0.281284 -0.557621 0)
(-0.311295 -0.534661 0)
(-0.344165 -0.502507 0)
(-0.379799 -0.46017 0)
(-0.417915 -0.406918 0)
(-0.457763 -0.34243 0)
(-0.496771 -0.267141 0)
(-0.0165602 -0.600108 0)
(-0.0347372 -0.594424 0)
(-0.0525338 -0.582617 0)
(-0.0683433 -0.5735 0)
(-0.0833019 -0.567126 0)
(-0.0978707 -0.562968 0)
(-0.112417 -0.560569 0)
(-0.127211 -0.55959 0)
(-0.1425 -0.559754 0)
(-0.158561 -0.560767 0)
(-0.175726 -0.562221 0)
(-0.194386 -0.563487 0)
(-0.214949 -0.56365 0)
(-0.237766 -0.561512 0)
(-0.263066 -0.555669 0)
(-0.29092 -0.544647 0)
(-0.321264 -0.527026 0)
(-0.353916 -0.501533 0)
(-0.388569 -0.4671 0)
(-0.424738 -0.42295 0)
(-0.461753 -0.368689 0)
(-0.498595 -0.304431 0)
(-0.532875 -0.230974 0)
(-0.0159612 -0.575606 0)
(-0.0350796 -0.574267 0)
(-0.0539854 -0.565002 0)
(-0.0710019 -0.557303 0)
(-0.0871674 -0.551604 0)
(-0.102944 -0.547631 0)
(-0.118764 -0.54506 0)
(-0.134978 -0.543601 0)
(-0.151903 -0.542982 0)
(-0.169863 -0.542886 0)
(-0.189197 -0.542872 0)
(-0.21025 -0.542307 0)
(-0.233334 -0.540316 0)
(-0.258678 -0.535802 0)
(-0.286378 -0.527504 0)
(-0.316375 -0.514101 0)
(-0.34845 -0.494321 0)
(-0.38223 -0.467037 0)
(-0.417177 -0.431357 0)
(-0.452572 -0.386717 0)
(-0.487538 -0.332978 0)
(-0.520992 -0.270502 0)
(-0.550817 -0.200248 0)
(-0.0152386 -0.551482 0)
(-0.0345911 -0.553543 0)
(-0.0539621 -0.54651 0)
(-0.0716907 -0.54012 0)
(-0.0886634 -0.535055 0)
(-0.1053 -0.531216 0)
(-0.122044 -0.528375 0)
(-0.139276 -0.52629 0)
(-0.157346 -0.524704 0)
(-0.176593 -0.5233 0)
(-0.197347 -0.521648 0)
(-0.219907 -0.519145 0)
(-0.244506 -0.514995 0)
(-0.271274 -0.508216 0)
(-0.300203 -0.497696 0)
(-0.331118 -0.482281 0)
(-0.363679 -0.460864 0)
(-0.397377 -0.432487 0)
(-0.431533 -0.396433 0)
(-0.465309 -0.352319 0)
(-0.497766 -0.300169 0)
(-0.527841 -0.24047 0)
(-0.553719 -0.174206 0)
(-0.0144139 -0.52812 0)
(-0.0335317 -0.532818 0)
(-0.0529079 -0.527647 0)
(-0.0709262 -0.52238 0)
(-0.0883222 -0.517858 0)
(-0.105455 -0.514089 0)
(-0.122747 -0.510914 0)
(-0.140574 -0.508126 0)
(-0.159287 -0.505485 0)
(-0.179222 -0.502695 0)
(-0.200683 -0.499356 0)
(-0.223927 -0.494927 0)
(-0.249126 -0.488705 0)
(-0.276336 -0.47984 0)
(-0.305465 -0.467376 0)
(-0.336261 -0.450325 0)
(-0.368301 -0.427752 0)
(-0.400998 -0.398865 0)
(-0.433609 -0.363104 0)
(-0.465264 -0.320218 0)
(-0.495031 -0.270332 0)
(-0.521937 -0.213965 0)
(-0.544439 -0.152053 0)
(-0.0135341 -0.505764 0)
(-0.0321045 -0.512483 0)
(-0.0511388 -0.508815 0)
(-0.0690937 -0.504469 0)
(-0.0865653 -0.500379 0)
(-0.103848 -0.496624 0)
(-0.12132 -0.493081 0)
(-0.139334 -0.489569 0)
(-0.158222 -0.485868 0)
(-0.178295 -0.481706 0)
(-0.19983 -0.476729 0)
(-0.223044 -0.470471 0)
(-0.24806 -0.462337 0)
(-0.274881 -0.451608 0)
(-0.303365 -0.437486 0)
(-0.333211 -0.419148 0)
(-0.363956 -0.395823 0)
(-0.394985 -0.366871 0)
(-0.425548 -0.331861 0)
(-0.454799 -0.290638 0)
(-0.481863 -0.243373 0)
(-0.505863 -0.190572 0)
(-0.525503 -0.133076 0)
(-0.0126162 -0.484585 0)
(-0.0304248 -0.492814 0)
(-0.0488639 -0.490327 0)
(-0.0664693 -0.486709 0)
(-0.0837164 -0.48295 0)
(-0.100836 -0.479163 0)
(-0.118156 -0.475249 0)
(-0.135991 -0.47104 0)
(-0.15464 -0.466333 0)
(-0.174384 -0.460884 0)
(-0.195465 -0.454391 0)
(-0.218064 -0.446465 0)
(-0.242268 -0.436618 0)
(-0.268047 -0.424269 0)
(-0.29523 -0.408766 0)
(-0.323499 -0.389445 0)
(-0.352387 -0.365684 0)
(-0.38129 -0.336978 0)
(-0.40949 -0.303 0)
(-0.436199 -0.26366 0)
(-0.460616 -0.219142 0)
(-0.481974 -0.169908 0)
(-0.499182 -0.116694 0)
(-0.0116735 -0.464691 0)
(-0.0285727 -0.47401 0)
(-0.0462228 -0.472427 0)
(-0.0632482 -0.46937 0)
(-0.080019 -0.465856 0)
(-0.0967065 -0.462012 0)
(-0.113587 -0.457747 0)
(-0.130932 -0.452901 0)
(-0.149002 -0.447284 0)
(-0.168041 -0.44068 0)
(-0.188256 -0.432836 0)
(-0.209794 -0.423441 0)
(-0.232716 -0.412111 0)
(-0.256973 -0.398388 0)
(-0.282386 -0.381764 0)
(-0.308644 -0.361714 0)
(-0.335299 -0.337753 0)
(-0.361788 -0.30949 0)
(-0.387449 -0.276682 0)
(-0.411568 -0.239283 0)
(-0.433436 -0.197472 0)
(-0.452382 -0.151654 0)
(-0.467488 -0.102454 0)
(-0.0106989 -0.446172 0)
(-0.0265832 -0.456214 0)
(-0.043304 -0.455304 0)
(-0.0595674 -0.452669 0)
(-0.0756556 -0.449335 0)
(-0.0916873 -0.445425 0)
(-0.10789 -0.440849 0)
(-0.124492 -0.435446 0)
(-0.141717 -0.429038 0)
(-0.159768 -0.421435 0)
(-0.178818 -0.412432 0)
(-0.198983 -0.401786 0)
(-0.220303 -0.389208 0)
(-0.242721 -0.374355 0)
(-0.266066 -0.356842 0)
(-0.290045 -0.336273 0)
(-0.314252 -0.31228 0)
(-0.338178 -0.284571 0)
(-0.361232 -0.25297 0)
(-0.382785 -0.217461 0)
(-0.402214 -0.178207 0)
(-0.418946 -0.135554 0)
(-0.432212 -0.0900262 0)
(-0.00968684 -0.429103 0)
(-0.0244828 -0.439529 0)
(-0.0401707 -0.439103 0)
(-0.0555261 -0.436782 0)
(-0.0707636 -0.433581 0)
(-0.0859559 -0.429612 0)
(-0.101288 -0.424773 0)
(-0.116951 -0.418903 0)
(-0.13313 -0.411831 0)
(-0.149994 -0.403393 0)
(-0.167681 -0.393426 0)
(-0.186279 -0.381749 0)
(-0.205811 -0.368155 0)
(-0.226217 -0.352399 0)
(-0.247339 -0.334205 0)
(-0.268918 -0.313288 0)
(-0.290594 -0.289381 0)
(-0.311921 -0.262275 0)
(-0.332388 -0.231849 0)
(-0.351447 -0.198107 0)
(-0.368567 -0.161195 0)
(-0.383256 -0.121403 0)
(-0.394874 -0.0791634 0)
(-0.00862502 -0.413559 0)
(-0.02228 -0.424025 0)
(-0.0368717 -0.423933 0)
(-0.0512011 -0.421846 0)
(-0.0654495 -0.418754 0)
(-0.0796517 -0.414743 0)
(-0.0939598 -0.409694 0)
(-0.108533 -0.403442 0)
(-0.123526 -0.395827 0)
(-0.139074 -0.386711 0)
(-0.155282 -0.375965 0)
(-0.172214 -0.363465 0)
(-0.189878 -0.34907 0)
(-0.208213 -0.332619 0)
(-0.227079 -0.313927 0)
(-0.246251 -0.292801 0)
(-0.265421 -0.26906 0)
(-0.284208 -0.242565 0)
(-0.302176 -0.213241 0)
(-0.318862 -0.181108 0)
(-0.33381 -0.146291 0)
(-0.346614 -0.109032 0)
(-0.356744 -0.0696833 0)
(-0.00752327 -0.399615 0)
(-0.0199956 -0.409738 0)
(-0.0334618 -0.409877 0)
(-0.0466614 -0.407978 0)
(-0.0598011 -0.404987 0)
(-0.0728859 -0.400954 0)
(-0.0860467 -0.395742 0)
(-0.0994195 -0.389185 0)
(-0.113131 -0.381135 0)
(-0.127286 -0.371476 0)
(-0.141964 -0.360117 0)
(-0.157203 -0.346977 0)
(-0.172998 -0.331974 0)
(-0.189289 -0.31501 0)
(-0.205953 -0.295975 0)
(-0.222799 -0.274752 0)
(-0.23957 -0.251231 0)
(-0.255946 -0.225331 0)
(-0.271563 -0.197016 0)
(-0.286031 -0.166317 0)
(-0.29897 -0.133344 0)
(-0.310038 -0.0982916 0)
(-0.318807 -0.0614447 0)
(-0.00642869 -0.387342 0)
(-0.0176599 -0.396672 0)
(-0.0300135 -0.397004 0)
(-0.0419789 -0.395281 0)
(-0.0538973 -0.392396 0)
(-0.0657522 -0.388361 0)
(-0.0776646 -0.383023 0)
(-0.0897538 -0.376219 0)
(-0.102122 -0.367819 0)
(-0.11485 -0.35773 0)
(-0.127987 -0.345895 0)
(-0.141552 -0.332271 0)
(-0.155529 -0.31682 0)
(-0.169857 -0.299496 0)
(-0.184431 -0.280245 0)
(-0.199092 -0.259012 0)
(-0.213627 -0.235743 0)
(-0.227774 -0.210406 0)
(-0.241232 -0.182999 0)
(-0.253674 -0.153563 0)
(-0.264781 -0.122194 0)
(-0.274272 -0.0890449 0)
(-0.281804 -0.0543352 0)
(-0.00547519 -0.376779 0)
(-0.0153357 -0.384799 0)
(-0.026632 -0.385377 0)
(-0.0372371 -0.383858 0)
(-0.0478159 -0.381092 0)
(-0.0583342 -0.377064 0)
(-0.068913 -0.371617 0)
(-0.0796574 -0.364602 0)
(-0.0906469 -0.355911 0)
(-0.101934 -0.345479 0)
(-0.113546 -0.333277 0)
(-0.125482 -0.319293 0)
(-0.137715 -0.303522 0)
(-0.150189 -0.285958 0)
(-0.162813 -0.26659 0)
(-0.175457 -0.245406 0)
(-0.187951 -0.2224 0)
(-0.200084 -0.197582 0)
(-0.211606 -0.170979 0)
(-0.222245 -0.142647 0)
(-0.231728 -0.112666 0)
(-0.239809 -0.0811514 0)
(-0.246221 -0.0482537 0)
(-0.00492243 -0.367818 0)
(-0.0131027 -0.374074 0)
(-0.0234549 -0.375087 0)
(-0.0325286 -0.373835 0)
(-0.0416343 -0.371193 0)
(-0.0507119 -0.367157 0)
(-0.0598844 -0.361592 0)
(-0.069239 -0.354375 0)
(-0.0788286 -0.345428 0)
(-0.0886776 -0.334713 0)
(-0.0987885 -0.322225 0)
(-0.109145 -0.307976 0)
(-0.119714 -0.291984 0)
(-0.130443 -0.274267 0)
(-0.141258 -0.254846 0)
(-0.152057 -0.233742 0)
(-0.16271 -0.210988 0)
(-0.173052 -0.186626 0)
(-0.182881 -0.160719 0)
(-0.191966 -0.133337 0)
(-0.200058 -0.104559 0)
(-0.20693 -0.0744565 0)
(-0.212356 -0.0430988 0)
(-0.00528009 -0.35997 0)
(-0.0110962 -0.364489 0)
(-0.0206475 -0.366296 0)
(-0.0279395 -0.365376 0)
(-0.0354224 -0.362826 0)
(-0.0429623 -0.358727 0)
(-0.0506706 -0.352999 0)
(-0.0586046 -0.345563 0)
(-0.0667823 -0.336373 0)
(-0.0751969 -0.325416 0)
(-0.0838282 -0.312703 0)
(-0.092647 -0.298258 0)
(-0.101617 -0.282113 0)
(-0.110693 -0.264301 0)
(-0.11982 -0.244862 0)
(-0.128924 -0.22384 0)
(-0.137916 -0.201295 0)
(-0.146675 -0.177304 0)
(-0.155049 -0.151963 0)
(-0.162843 -0.125376 0)
(-0.169822 -0.0976325 0)
(-0.17573 -0.0687741 0)
(-0.180331 -0.0387558 0)
(-0.00752602 -0.352413 0)
(-0.0095759 -0.356145 0)
(-0.0183527 -0.359248 0)
(-0.0235108 -0.358684 0)
(-0.0292244 -0.356118 0)
(-0.0351553 -0.351843 0)
(-0.0413659 -0.345873 0)
(-0.0478626 -0.33818 0)
(-0.0546197 -0.328748 0)
(-0.061598 -0.317577 0)
(-0.0687574 -0.304683 0)
(-0.0760604 -0.290093 0)
(-0.0834715 -0.273841 0)
(-0.090956 -0.255967 0)
(-0.0984774 -0.236517 0)
(-0.105994 -0.215549 0)
(-0.113456 -0.193141 0)
(-0.120797 -0.169399 0)
(-0.127922 -0.144458 0)
(-0.134688 -0.118476 0)
(-0.140867 -0.0915935 0)
(-0.146138 -0.0638587 0)
(-0.150145 -0.035077 0)
(-0.0131542 -0.344899 0)
(-0.00888828 -0.349187 0)
(-0.0165946 -0.354187 0)
(-0.0192063 -0.353939 0)
(-0.0230472 -0.351158 0)
(-0.0273523 -0.346539 0)
(-0.0320677 -0.340227 0)
(-0.037125 -0.332238 0)
(-0.0424506 -0.322563 0)
(-0.0479774 -0.311201 0)
(-0.0536523 -0.298161 0)
(-0.0594349 -0.283463 0)
(-0.0652949 -0.267135 0)
(-0.0712092 -0.249212 0)
(-0.0771605 -0.229739 0)
(-0.0831367 -0.208776 0)
(-0.0891303 -0.186407 0)
(-0.0951354 -0.162752 0)
(-0.101136 -0.137987 0)
(-0.107078 -0.112343 0)
(-0.112795 -0.0860889 0)
(-0.117867 -0.0593917 0)
(-0.121619 -0.0318957 0)
(-0.0235768 -0.338229 0)
(-0.00882459 -0.344472 0)
(-0.0152221 -0.351535 0)
(-0.0149501 -0.351282 0)
(-0.0168883 -0.347962 0)
(-0.0196182 -0.342803 0)
(-0.0228779 -0.33606 0)
(-0.0265019 -0.327751 0)
(-0.0303766 -0.317847 0)
(-0.0344193 -0.306324 0)
(-0.038574 -0.293172 0)
(-0.0428044 -0.278395 0)
(-0.0470877 -0.26201 0)
(-0.0514122 -0.244043 0)
(-0.0557759 -0.224529 0)
(-0.0601898 -0.203517 0)
(-0.0646832 -0.181078 0)
(-0.0693098 -0.157327 0)