/*--------------------------------*- C++ -*----------------------------------*\
  =========                 |
  \\      /  F ield         | OpenFOAM: The Open Source CFD Toolbox
   \\    /   O peration     | Website:  https://openfoam.org
    \\  /    A nd           | Version:  13
     \\/     M anipulation  |
\*---------------------------------------------------------------------------*/
FoamFile
{
    format      ascii;
    class       volScalarField;
    location    "1.7";
    object      alphas;
}
// * * * * * * * * * * * * * * * * * * * * * * * * * * * * * * * * * * * * * //

dimensions      [];

internalField   nonuniform List<scalar> 
2268
(
2
2
2
2
2
2
2
2
2
2
2
2
2
2
2
2
2
2
2
2
1.99969
1.99943
1.99943
2
2
2
2
2
2
2
2
2
2
2
2
2
2
2
2
2
2
2
2
1.99998
1.99979
1.99966
2
2
2
2
2
2
2
2
2
2
2
2
2
2
2
2
2
2
2
2
2
2
2
2
2
2
2
2
2
2
2
2
2
2
2
2
2
2
2
2
2
2
2
2
2
2
1.80428
1.7748
1.78368
1.83408
1.90234
1.97195
2
2
2
2
2
2
2
2
2
2
2
2
2
2
2
2
2
0.239612
0.272554
0.313026
0.386837
0.502404
0.667524
0.912513
1.19923
1.47093
1.71261
1.91348
2
2
2
2
2
2
2
2
2
2
2
2
8.7503e-09
6.50063e-09
5.49735e-09
3.88235e-08
8.09073e-08
1.27126e-07
0.000852714
0.0249112
0.100242
0.24011
0.44544
0.759912
1.16075
1.53382
1.82947
1.95049
1.96662
1.99608
1.99969
1.99894
1.99736
1.98803
1.97405
1.63942e-08
1.20577e-08
1.06528e-08
9.18786e-09
8.80296e-09
9.18575e-09
2.66316e-08
9.34913e-08
1.60251e-07
2.33643e-07
2.79918e-07
2.94213e-07
0.016338
0.0941017
0.221786
0.452661
0.85592
1.16877
1.28839
1.28167
1.24345
1.1143
1.00837
1.85843
1.85794
1.87811
1.90422
1.96096
1.74238
1.70466
1.68361
1.67223
1.69019
1.88325
1.81076
1.7499
1.62203
1.66818
1.71833
1.71653
1.71695
1.71531
1.84712
1.86844
1.76649
1.67472
1.71603
1.79747
1.86813
1.84358
1.81202
1.79269
1.93638
2.11148
2.09291
1.92084
1.75801
1.76698
1.8143
1.78901
1.54742
1.24479
1.34678
1.45761
1.12962
1.01828
1.32127
1.64713
1.946
2.11393
1.96935
1.88524
2.04834
2.30851
2.247
2.21933
2.0227
1.9235
1.74648
1.51269
0.936951
1.00102
1.11435
1.15124
0.498348
0.360576
0.497105
1.32581
2.44672
2.39698
2.27224
2.30597
2.17551
1.45379
1.04748
1.14592
1.19348
1.09942
1.06572
0.318594
0.439014
0.973269
1.0656
0.589565
0.0717868
0.0127971
0.245816
1.77148
2.27247
2.31248
2.26761
1.95286
0.543864
0.23312
0.247692
0.29618
0.351669
0.682727
0.351992
0.198298
0.460469
0.990614
0.977887
0.319116
0.0117896
0.0011109
0.601384
1.74999
1.92618
1.85219
1.25624
0.320144
0.0518827
0.0875777
0.106914
0.20781
0.740392
0.63028
0.274961
0.202885
0.782522
1.19268
0.900547
0.143201
0.000786703
0.00193755
0.299098
0.434273
0.388137
0.195685
0.0606585
0.00203747
0.162143
0.206822
0.357358
0.837215
0.650565
0.513932
0.203424
0.537309
1.31795
1.31368
0.478187
0.0131562
0.000178712
0.000289082
0.00366283
0.00587749
0.00131208
0.000150215
0.000357498
0.0582469
0.561533
0.601838
1.09251
2.59038e-08
1.94915e-08
1.41143e-08
1.36626e-08
1.36077e-08
1.41583e-08
1.73049e-08
1.7332e-08
2.1788e-08
2.52855e-08
2.99296e-08
4.21371e-08
1.2197e-07
9.84039e-08
6.21017e-08
8.76066e-09
1.69742e-08
2.41352e-07
0.0623254
0.129874
0.143677
0.110308
0.092483
1.0078e-08
1.11537e-08
1.25759e-08
1.3495e-08
1.55053e-08
2.17249e-08
3.22604e-08
3.55959e-08
3.34346e-08
3.35424e-08
3.36184e-08
3.51079e-08
3.4385e-08
3.26621e-08
3.35187e-08
3.91477e-08
1.27154e-07
2.28559e-07
0.000787317
0.00332181
0.00715283
0.0108544
0.0186356
0.00703726
0.00410799
0.00349544
0.000945489
1.26513e-07
1.34711e-08
2.84127e-08
2.91087e-08
7.8628e-09
6.93218e-09
5.15749e-09
5.04285e-09
3.95766e-09
4.1112e-09
3.97234e-09
7.47146e-09
1.42588e-07
0.00100679
0.0176855
0.0683281
0.101479
0.200114
0.316668
0.484945
0.245841
0.158419
0.103483
0.075421
0.0486081
0.0828987
0.114364
0.110976
0.100765
0.114381
0.153726
0.184282
0.188109
0.170622
0.189298
0.252964
0.383661
0.585814
0.744012
0.93154
1.04866
1.08024
1.12631
1.00668
0.885352
0.851926
0.839256
0.987091
1.01556
1.00981
1.02381
1.04435
1.06135
1.08368
1.11385
1.15376
1.15904
1.15378
1.23323
1.29571
1.3453
1.30357
1.15219
1.04077
1.00425
1.38155
1.03303
1.03
1.03002
1.05922
1.22185
1.22534
1.13464
1.104
1.13284
1.16163
1.15751
1.13284
1.0817
1.05436
1.04046
1.01856
1.00417
1.00115
1
1.00164
1.00959
1.01996
1.28692
1.09406
1.09336
1.05626
1.05048
1.04564
1.04049
1.03701
1.03703
1.04243
1.04992
1.06456
1.08673
1.11741
1.16129
1.22484
1.30589
1.39666
1.49198
1.62925
1.85408
2.05398
2.19834
1.85342
2.00909
2.07997
2.15161
2.20928
2.20519
2.22393
2.25884
2.29397
2.32482
2.36173
2.41088
2.47518
2.5524
2.63651
2.7199
2.79884
2.87342
2.94443
3
3
3
3
2.85076
2.76818
2.86601
2.99116
3
3
3
3
3
3
3
3
3
3
3
3
3
3
3
3
3
3
3
3
2.99281
2.97586
2.993
2.99998
3
3
3
3
3
2.99999
2.99999
3
3
3
3
3
3
3
3
3
3
3
3
3
2.99149
2.99699
2.99998
3
3
3
3
2.99998
2.99973
2.99974
2.99994
3
3
3
3
3
3
3
3
3
3
3
2.99994
3
2.99935
3
3
3
3
3
2.99975
2.99965
2.99965
2.99982
2.99999
2.99999
2.99999
2.99999
3
3
3
3
3
3
3
3
3
3
3
3
3
3
3
2.9997
2.99965
2.99965
2.99982
2.99999
2.99999
2.99999
2.99999
3
3
3
3
3
3
3
3
3
3
3
3
3
3
3
2.99998
2.99976
2.99972
2.99996
2.99999
2.99999
2.99999
3
3
3
3
3
3
3
3
3
3
3
3
3
3
3
3
3
3
3
3
3
3
3
3
3
3
3
3
3
3
3
3
3
3
3
3
3
3
3
3
3
3
3
3
3
3
3
3
3
3
3
3
3
3
3
3
3
3
3
3
3
3
3
3
3
3
3
3
3
3
3
3
3
3
3
3
3
3
3
3
3
3
3
3
3
3
3
3
3
3
3
3
3
3
3
3
3
3
3
3
3
3
3
3
3
3
3
3
3
3
3
3
3
3
3
3
3
3
3
3
3
3
3
3
3
3
3
3
3
3
3
3
3
3
3
3
3
3
3
3
3
3
3
3
3
3
3
3
3
3
3
3
3
3
3
3
3
3
3
3
3
3
3
3
3
3
3
3
3
3
3
3
3
3
3
3
3
3
3
3
3
3
3
3
3
3
3
3
3
3
3
3
3
3
3
3
3
3
3
3
3
3
3
3
3
3
3
3
3
3
3
3
3
3
3
3
3
3
3
3
3
3
3
3
3
3
3
3
3
3
3
3
3
3
3
3
3
3
3
3
3
3
3
3
3
3
3
3
3
3
3
3
3
3
3
3
3
3
3
3
3
3
3
3
3
3
3
3
3
3
3
3
3
3
3
3
3
3
3
3
3
3
3
3
3
3
3
3
3
3
3
3
3
3
3
3
3
3
3
3
3
3
3
3
3
3
3
3
3
3
3
3
3
3
3
3
3
3
3
3
3
3
3
3
3
3
3
3
3
3
3
3
3
3
3
3
3
3
3
3
3
3
3
3
3
3
3
3
3
3
3
3
3
3
3
3
3
3
3
3
3
3
3
3
3
3
3
3
3
3
3
3
3
3
3
3
3
3
3
3
3
3
3
3
3
3
3
3
3
3
3
3
3
3
3
3
3
3
3
3
3
3
3
3
3
3
3
3
3
3
3
3
3
3
3
3
3
3
3
3
3
3
3
3
3
3
3
3
3
3
3
3
3
3
3
3
3
3
3
3
3
3
3
3
3
3
3
3
3
3
3
3
3
3
3
3
3
3
3
3
3
3
3
3
3
3
3
3
3
3
3
3
3
3
3
3
3
3
3
3
3
3
3
3
3
3
3
3
3
3
3
3
3
3
3
3
3
3
3
3
3
3
3
3
3
3
3
3
3
3
3
3
3
3
3
3
3
3
3
3
3
3
3
3
3
3
3
3
3
3
3
3
3
3
3
3
3
3
3
3
3
3
3
3
3
3
3
3
3
3
3
3
3
3
3
3
3
3
3
3
3
3
3
3
3
3
3
3
3
3
3
3
3
3
3
3
3
3
3
3
3
3
3
3
3
3
3
3
3
3
3
3
3
3
3
3
3
3
3
3
3
3
3
3
3
3
3
3
3
3
3
3
3
3
3
3
3
3
3
3
3
3
3
3
3
3
3
3
3
3
3
3
3
3
3
3
3
3
3
3
3
3
3
3
3
3
3
3
3
3
3
0.34396
0.323037
0.159006
0.275909
0.0363654
0.0435492
0.0374432
0.0692478
0.419114
0.588396
0.673698
0.907547
1.02899
1.04279
1.36751
1.41335
1.0004
1.00068
1.01608
1.07578
1.02675
1.02438
1.0239
1.01757
2.25949
2.24768
2.19184
2.0999
3
3
3
3
3
3
3
3
3
3
3
3
3
3
3
3
3
3
3
3
3
3
3
3
3
3
3
3
3
3
3
3
3
3
3
3
3
3
3
3
3
3
3
3
3
3
3
3
3
3
3
3
3
3
3
3
3
3
3
3
3
3
3
3
3
3
3
3
3
3
3
3
3
3
3
3
3
3
3
3
3
3
3
3
3
3
3
3
3
3
3
3
3
3
3
3
3
3
3
3
3
3
3
3
3
3
3
3
3
3
3
3
3
3
3
3
3
3
3
3
3
3
3
3
3
3
3
3
3
3
3
3
3
3
3
3
3
3
3
3
0.589899
0.397307
0.222334
0.49674
1.0951
1.40505
0.907694
0.0680344
0.000229387
0.000202464
0.000302926
0.000199796
0.000189618
0.000252322
0.000297472
0.0440328
0.785941
0.988457
1.04728
0.455472
0.550592
0.471185
0.583917
1.15165
1.15403
1.22301
0.556976
0.0402666
0.00026887
0.000246629
0.000256277
0.00276168
0.00266935
0.14075
0.654515
0.997143
1.0002
1.00136
1.26767
1.27844
1.16091
1.16444
1.14244
1.00031
1.09534
1.13511
0.515257
0.296858
0.0803923
0.0611635
0.211051
0.677777
0.934913
1.00097
1.00136
1.0001
0.989722
1.19198
1.00054
1.02759
1.06512
1.01776
1.00008
1.00013
1.06758
1.16412
0.787083
0.730972
0.719211
0.950922
1.00003
1.00001
1.00052
1.00115
1.00003
0.995647
1
1
1
0.999998
0.999987
0.999937
0.999934
1.00004
1.07986
1.24784
1.18904
1.01692
1.00004
1.00019
1.00019
1.00004
1.00046
1
1.02712
1.00097
1
1
1
0.999999
0.999998
0.999988
0.999979
0.999978
1.01241
1.00729
1.00161
1.00004
1.00015
1.00018
1.00001
1
1.00003
1.05967
1.92417
1.57654
1.25999
1.05052
1
1
0.999997
0.999991
0.99999
0.999996
0.999999
1.00005
1.00004
1.00001
1.00002
1.00001
1
1.00039
1.05995
3
2.95219
2.74528
2.38014
1.877
1.41908
1.12416
1
0.999996
0.999997
0.999999
1
1.00001
1
1
1
1
1.00158
1.05982
3
3
3
3
2.9835
2.85114
2.52557
1.96613
1.39316
1.0508
1
1
1
1
1
1
1
1.00163
1.04224
3
3
3
3
3
3
3
2.99234
2.819
2.3047
1.47292
1.03314
1
1
1
1
1
1.0007
1.00385
3
3
3
3
3
3
3
3
3
3
2.90503
2.40653
1.53475
1.02861
0.999998
0.999997
1
0.999135
0.992153
3
3
3
3
3
3
3
3
3
3
3
3
2.94695
2.48313
1.53508
1.02937
0.999282
0.995168
1.00764
3
3
3
3
3
3
2.99992
2.99942
2.99885
2.9998
3
3
3
2.99999
2.95082
2.4597
1.84578
1.79577
2.25574
3
3
3
3
3
3
2.99957
2.99796
2.99796
2.99825
3
3
3
2.99999
2.99991
2.99992
2.9982
2.98859
2.97478
3
3
3
3
3
3
2.9997
2.99868
2.99815
2.999
3
2.99986
2.99749
2.9961
2.99685
2.99789
2.99943
2.99998
3
3
3
3
3
3
3
2.99998
2.99998
2.99986
2.99999
3
2.99996
2.99642
2.99581
2.99616
2.99771
2.9989
2.99991
3
3
3
3
3
3
3
3
3
3
3
3
2.99985
2.99936
2.99887
2.99963
2.99993
2.99991
2.99995
3
3
3
3
3
3
3
3
3
3
3
2.99999
2.99996
3
3
3
3
3
3
3
3
3
3
3
3
3
3
3
3
3
3
3
3
3
3
3
3
3
3
3
3
3
3
3
3
3
3
3
3
3
3
3
3
3
3
3
3
3
3
3
3
3
3
3
3
3
3
3
3
3
3
3
3
3
3
3
3
3
3
3
3
3
3
3
3
3
3
3
3
3
3
3
3
3
3
3
3
3
3
3
3
3
3
3
3
3
3
3
3
3
3
3
3
3
3
3
3
3
3
3
3
3
3
3
3
3
3
3
3
3
3
3
3
3
3
3
3
3
3
3
3
3
3
3
3
3
3
3
3
3
3
3
3
3
3
3
3
3
3
3
3
3
3
3
3
3
3
3
3
3
3
3
3
3
3
3
3
3
3
3
3
3
3
3
3
3
3
3
3
3
3
3
3
3
3
3
3
3
3
3
3
3
3
3
3
3
3
3
3
3
3
3
3
3
3
3
3
3
3
3
3
3
3
3
3
3
3
3
3
3
3
3
3
3
3
3
3
3
3
3
3
3
3
3
3
3
3
3
3
3
3
3
3
3
3
3
3
3
3
3
3
3
3
3
3
3
3
3
3
3
3
3
3
3
3
3
3
3
3
3
3
3
3
3
3
3
3
3
3
3
3
3
3
3
3
3
3
3
3
3
3
3
3
3
3
3
3
3
3
3
3
3
3
3
3
3
3
3
3
3
3
3
3
3
3
3
3
3
3
3
3
3
3
3
3
3
3
3
3
3
3
3
3
3
3
3
3
3
3
3
3
3
3
3
3
3
3
3
3
3
3
3
3
3
3
3
3
3
3
3
3
3
3
3
3
3
3
3
3
3
3
3
3
3
3
3
3
3
3
3
3
3
3
3
3
3
3
3
3
3
3
3
3
3
3
3
3
3
3
3
3
3
3
3
3
3
3
3
3
3
3
3
3
3
3
3
3
3
3
3
3
3
3
3
3
3
3
3
3
3
3
3
3
3
3
3
3
3
3
3
3
3
3
3
3
3
3
3
3
3
3
3
3
3
3
3
3
3
3
3
3
3
3
3
3
3
)
;

boundaryField
{
    leftWall
    {
        type            calculated;
        value           nonuniform List<scalar> 
50
(
2
2
2
2
1.80428
0.239612
8.7503e-09
1.63942e-08
2.59038e-08
1.0078e-08
0.00703726
0.484945
1.12631
1.38155
1.28692
1.85342
2.85076
3
3
3
3
3
3
3
3
3
3
3
3
3
3
3
3
3
3
3
3
3
3
3
3
3
3
3
3
3
3
3
3
3
)
;
    }
    rightWall
    {
        type            calculated;
        value           nonuniform List<scalar> 
50
(
1.71531
1.54742
1.51269
1.06572
0.682727
0.740392
0.837215
1.09251
1.04728
1.00136
0.989722
0.995647
1.02712
1.05967
1.05995
1.05982
1.04224
1.00385
0.992153
1.00764
2.25574
2.97478
3
3
3
3
3
3
3
3
3
3
3
3
3
3
3
3
3
3
3
3
3
3
3
3
3
3
3
3
)
;
    }
    lowerWall
    {
        type            calculated;
        value           nonuniform List<scalar> 
62
(
2
2
2
2
2
2
2
2
2
2
2
2
2
2
2
2
2
2
2
2
1.99969
1.99943
1.99943
1.99943
1.99966
2
2
2
2
1.97405
1.00837
0.34396
0.323037
0.159006
0.275909
1.85843
1.84712
1.24479
0.936951
0.318594
0.351992
0.63028
0.650565
1.85843
1.85794
1.87811
1.90422
1.96096
1.74238
1.70466
1.68361
1.67223
1.69019
1.88325
1.81076
1.7499
1.62203
1.66818
1.71833
1.71653
1.71695
1.71531
)
;
    }
    atmosphere
    {
        type            calculated;
        value           nonuniform List<scalar> 
46
(
3
3
3
3
3
3
3
3
3
3
3
3
3
3
3
3
3
3
3
3
3
3
3
3
3
3
3
3
3
3
3
3
3
3
3
3
3
3
3
3
3
3
3
3
3
3
)
;
    }
    defaultFaces
    {
        type            empty;
    }
}


// ************************************************************************* //
