/*--------------------------------*- C++ -*----------------------------------*\
  =========                 |
  \\      /  F ield         | OpenFOAM: The Open Source CFD Toolbox
   \\    /   O peration     | Website:  https://openfoam.org
    \\  /    A nd           | Version:  13
     \\/     M anipulation  |
\*---------------------------------------------------------------------------*/
FoamFile
{
    format      ascii;
    class       volScalarField;
    location    "1.7";
    object      alpha.air;
}
// * * * * * * * * * * * * * * * * * * * * * * * * * * * * * * * * * * * * * //

dimensions      [];

internalField   nonuniform List<scalar> 
2268
(
1.52012e-13
2.41484e-13
3.45641e-13
2.77292e-13
2.28011e-13
1.76478e-13
1.21708e-13
7.55224e-14
4.14652e-14
2.20015e-14
1.3035e-14
7.96488e-15
4.69617e-15
2.41985e-15
1.14732e-15
8.28193e-16
1.03773e-15
2.16449e-15
5.8631e-15
1.71894e-14
3.50166e-14
8.31986e-14
2.09813e-13
7.1786e-13
1.85896e-12
2.01032e-12
1.6609e-12
1.46653e-12
1.20265e-12
9.10206e-13
6.15147e-13
3.58126e-13
1.89101e-13
1.07834e-13
6.5305e-14
4.12332e-14
2.38223e-14
1.28936e-14
8.30692e-15
8.29892e-15
1.251e-14
2.52796e-14
5.51727e-14
1.77437e-13
6.17814e-13
1.69113e-12
2.75325e-12
5.38655e-12
5.02503e-12
4.2121e-12
3.60278e-12
3.2095e-12
2.61316e-12
1.87548e-12
1.15918e-12
6.41667e-13
3.81902e-13
2.40008e-13
1.67462e-13
1.23498e-13
7.64735e-14
4.82376e-14
5.63688e-14
1.6795e-13
1.23197e-13
5.3793e-13
8.51295e-13
3.035e-12
8.65785e-12
1.12559e-11
2.09379e-11
2.41038e-11
2.16368e-11
1.65456e-11
1.17547e-11
8.68734e-12
5.96922e-12
3.86571e-12
2.39346e-12
1.49435e-12
9.46588e-13
6.09084e-13
4.47988e-13
3.58838e-13
3.49436e-13
1.56795e-12
4.73538e-12
1.1894e-11
6.26049e-12
1.06504e-11
2.85655e-12
1.10295e-09
8.91536e-11
1.11411e-10
1.16413e-10
1.06387e-10
8.40102e-11
5.73809e-11
3.61876e-11
2.61256e-11
1.85116e-11
1.23525e-11
7.84686e-12
5.05555e-12
3.87003e-12
3.60427e-12
3.2927e-12
4.12233e-12
5.37822e-11
2.47659e-10
2.52702e-10
6.08104e-12
7.84627e-10
5.88914e-09
8.85241e-09
4.43052e-10
3.6542e-10
3.16056e-10
2.89602e-10
2.74991e-10
2.69207e-10
2.43501e-10
1.93998e-10
1.46656e-10
9.72858e-11
5.243e-11
2.91235e-11
2.27406e-11
2.26403e-11
3.89578e-11
1.00069e-10
5.18747e-10
1.9448e-09
6.95794e-09
1.20402e-08
8.64393e-09
1.0557e-07
1.50208e-08
1.33587e-09
8.30474e-10
5.50111e-10
4.56448e-10
4.55072e-10
5.74915e-10
6.81751e-10
6.22382e-10
5.197e-10
4.05082e-10
2.86838e-10
1.86447e-10
1.13221e-10
7.66902e-11
6.86198e-11
8.30544e-11
3.19942e-10
1.87871e-09
3.1943e-08
7.01866e-08
1.67885e-08
1.62465e-07
1.14186e-08
2.5433e-09
1.63969e-09
9.47707e-10
6.56517e-10
6.40004e-10
9.72453e-10
1.51273e-09
1.49547e-09
1.26404e-09
9.07062e-10
6.75745e-10
4.71334e-10
3.13485e-10
2.31859e-10
2.20309e-10
2.88239e-10
5.43098e-10
7.08968e-10
7.34258e-10
5.77928e-10
1.94507e-09
6.46573e-10
1.94507e-09
0.000335749
0.00108245
0.0280812
0.0404918
0.0698344
0.0750985
0.0717011
0.0608592
0.0501735
0.0604297
0.140786
0.113109
0.0827373
0.0188627
0.0151404
0.0149112
0.0149112
0.0154577
0.0151086
0.000353493
0.000329385
0.000373112
0.00039661
0.00248143
0.0146522
0.0214412
0.0197196
0.0186867
0.0190573
0.103304
0.243881
0.259629
0.203891
0.139706
0.120123
0.111501
0.099363
0.0198148
0.00359513
0.00401065
0.00611236
0.00650406
0.0011868
0.000203639
0.00675725
0.0939725
0.153349
0.107978
0.137218
0.285549
0.494432
0.494578
0.489996
0.418613
0.388908
0.283095
0.0848116
0.0194061
0.0277752
0.0154669
0.013453
0.00879954
0.000499208
5.03813e-05
0.154166
0.503078
0.528168
0.523513
0.559742
0.483625
0.274647
0.166854
0.23827
0.279438
0.195638
0.100561
0.0243435
0.0332956
0.0382348
0.012638
0.00893107
0.00130025
1.77295e-05
0.0735949
0.528976
0.561003
0.560363
0.561003
0.510078
0.0763952
0.000150607
0.00209727
0.00380401
0.00140022
0.0213744
0.00611099
0.0169036
0.0367142
0.0297861
0.0105161
0.00212407
0.000254217
6.9116e-05
0.194776
0.508567
0.53432
0.519898
0.334316
0.058457
0.000116891
9.23543e-05
0.000120872
0.00878578
0.0926888
0.0186713
0.00589519
0.0236421
0.0783781
0.0981386
0.0487912
0.00269836
8.55421e-07
6.83986e-07
0.0782872
0.0896259
0.0678859
0.0156444
0.00487277
0.000655549
5.32858e-06
1.5304e-08
0.0437967
0.117852
0.0290689
0.0060258
0.00661587
0.129964
0.193008
0.141247
0.038919
5.95369e-08
1.83201e-08
3.73339e-10
9.09859e-11
-6.36849e-12
-3.16564e-07
3.88893e-06
3.87562e-05
4.79977e-06
1.77545e-09
0.0496687
0.117571
4.91148e-09
2.78846e-09
1.10613e-09
1.11841e-09
1.26798e-09
1.69476e-09
3.48784e-09
3.88569e-09
3.48747e-09
2.93481e-09
2.34726e-09
1.46731e-09
9.72431e-10
7.06396e-10
4.55706e-10
4.30638e-10
5.10693e-10
9.0224e-10
1.3285e-05
0.000122483
0.000527048
0.00144794
0.00266212
1.10029e-09
1.10284e-09
1.09631e-09
1.09938e-09
1.10055e-09
2.97542e-09
7.3607e-09
9.62168e-09
9.50748e-09
1.00902e-08
1.05664e-08
1.08423e-08
1.08231e-08
9.41399e-09
9.00186e-09
7.63391e-09
3.69987e-09
6.39408e-08
0.000262439
0.00110727
0.0023745
0.00351861
0.00616397
0.00234575
0.00136933
0.00116515
0.000315162
4.10615e-08
3.19529e-09
7.72831e-09
8.38868e-09
1.69392e-09
1.6542e-09
1.24564e-09
1.32682e-09
1.03739e-09
1.13538e-09
1.10284e-09
2.14869e-09
4.20284e-08
0.000335597
0.00589515
0.022776
0.0325176
0.0539845
0.0617945
0.156294
0.053277
0.0212856
0.00662197
0.00804298
0.0133264
0.0276329
0.0381213
0.036992
0.0335884
0.0381269
0.051242
0.0614273
0.0627031
0.0537785
0.055018
0.0694801
0.102582
0.148948
0.154898
0.153489
0.130853
0.0819903
0.236696
0.068447
0.00689873
0.00679571
0.0351721
0.157291
0.204748
0.204996
0.201235
0.209103
0.212122
0.214037
0.215199
0.21499
0.197044
0.174161
0.188921
0.193416
0.184856
0.151783
0.0760967
0.0203834
0.00212398
0.219564
0.0170364
0.0160294
0.0160355
0.0296089
0.110925
0.112688
0.0673206
0.0519981
0.0664189
0.0808163
0.0787548
0.0664206
0.0408497
0.0271786
0.0202281
0.00928092
0.00208555
0.000577242
-1.88432e-18
0.000818446
0.00479561
0.00997846
0.159551
0.0471896
0.0466823
0.0281311
0.0252409
0.0228194
0.0202473
0.0185063
0.0185132
0.0212154
0.0249606
0.03228
0.0433645
0.0587026
0.0806468
0.112422
0.152945
0.198331
0.24599
0.314627
0.427038
0.526988
0.599171
0.427371
0.504695
0.53999
0.575807
0.604641
0.602595
0.611963
0.629419
0.646987
0.662408
0.680863
0.705441
0.737591
0.776201
0.818253
0.85995
0.899419
0.936711
0.972214
1
1
1
1
0.925378
0.884094
0.933017
0.995589
0.999999
0.999999
1
1
1
1
1
0.999999
1
1
1
1
1
1
1
1
1
1
1
0.999999
0.996406
0.987937
0.996507
0.999994
0.999999
1
1
1
0.999999
0.999994
0.999996
0.999999
1
1
1
1
1
1
1
1
1
1
0.999999
0.999999
0.995743
0.998502
0.999994
0.999999
1
1
0.999999
0.999989
0.999864
0.99987
0.999972
0.999999
1
0.999999
0.999999
0.999999
0.999999
0.999999
0.999999
0.999999
1
0.999999
0.999972
0.999999
0.999676
0.999998
1
1
1
1
0.999874
0.999825
0.999825
0.99991
0.999997
0.999998
0.999997
0.999997
0.999999
0.999999
1
1
1
1
0.999999
0.999999
0.999999
0.999999
1
1
1
1
1
0.999848
0.999827
0.999826
0.999914
0.999997
0.999997
0.999997
0.999997
0.999999
1
1
1
1
1
0.999999
0.999999
0.999999
1
1
1
1
1
0.999999
0.999989
0.99988
0.999858
0.999981
0.999997
0.999997
0.999998
1
1
1
1
1
1
1
1
0.999999
1
1
1
1
1
1
0.999998
1
1
1
1
0.999998
0.999999
1
1
1
1
1
1
1
1
1
1
1
1
1
1
1
1
1
1
1
1
1
0.999998
1
1
1
1
1
1
1
1
1
1
1
1
1
1
1
1
1
1
1
1
1
0.999999
0.999998
1
1
1
1
1
1
1
1
1
1
1
1
1
1
1
1
1
1
1
1
1
0.999999
1
1
1
1
1
1
1
1
1
1
1
1
1
1
1
1
1
1
1
1
1
1
1
1
1
1
1
1
1
1
1
1
1
1
1
1
1
1
1
1
1
1
1
1
1
1
1
1
1
1
1
1
1
1
1
1
1
1
1
1
1
1
1
1
1
1
1
1
1
1
1
1
1
1
1
1
1
1
1
1
1
1
1
1
1
1
1
1
1
1
1
1
1
1
1
1
1
1
1
1
1
1
1
1
1
1
1
1
1
1
1
1
1
1
1
1
1
1
1
1
1
1
1
1
1
1
1
1
1
1
1
1
1
1
1
1
1
1
1
1
1
1
1
1
1
1
1
1
1
1
1
1
1
1
1
1
1
1
1
1
1
1
1
1
1
1
1
1
1
1
1
1
1
1
1
1
1
1
1
1
1
1
1
1
1
1
1
1
1
1
1
1
1
1
1
1
1
1
1
1
1
1
1
1
1
1
1
1
1
1
1
1
1
1
1
1
1
1
1
1
1
1
1
1
1
1
1
1
1
1
1
1
1
1
1
1
1
1
1
1
1
1
1
1
1
1
1
1
1
1
1
1
1
1
1
1
1
1
1
1
1
1
1
1
1
1
1
1
1
1
1
1
1
1
1
1
1
1
1
1
1
1
1
1
1
1
1
1
1
1
1
1
1
1
1
1
1
1
1
1
1
1
1
1
1
1
1
1
1
1
1
1
1
1
1
1
1
1
1
1
1
1
1
1
1
1
1
1
1
1
1
1
1
1
1
1
1
1
1
1
1
1
1
1
1
1
1
1
1
1
1
1
1
1
1
1
1
1
1
1
1
1
1
1
1
1
1
1
1
1
1
1
1
1
1
1
1
1
1
1
1
1
1
1
1
1
1
1
1
1
1
1
1
1
1
1
1
1
1
1
1
1
1
1
1
1
1
1
1
1
1
1
1
1
1
1
1
1
1
1
1
1
1
1
1
1
1
1
1
1
1
1
1
1
1
1
1
1
1
1
1
1
1
1
1
1
1
1
1
1
1
1
1
1
1
1
1
1
1
1
1
1
1
1
1
1
1
1
1
1
1
1
1
1
1
1
1
1
1
1
1
1
1
1
1
1
1
1
1
1
1
1
1
1
1
1
1
1
1
1
1
1
1
1
1
1
1
1
1
1
1
1
1
1
1
1
1
1
1
1
1
1
1
1
1
1
1
1
1
1
1
1
1
1
1
1
1
1
1
1
1
1
1
1
1
1
1
1
1
1
1
1
1
1
1
1
1
1
1
1
1
1
0.0032195
0.00289402
0.00254945
0.00290411
0.0120724
0.0144425
0.0103966
0.0226247
0.0503548
0.0568084
0.102172
0.202813
0.0144866
0.0214022
0.183755
0.206675
0.000202276
0.000340171
0.00803823
0.0378892
0.0133775
0.012189
0.0119484
0.00878273
0.629743
0.623841
0.59592
0.549952
1
1
1
1
1
1
1
1
1
1
1
1
1
1
1
1
1
1
1
1
1
1
1
1
1
1
1
1
1
1
1
1
1
1
1
1
1
1
1
1
1
1
1
1
1
1
1
1
1
1
1
1
1
1
1
1
1
1
1
1
1
1
1
1
1
1
1
1
1
1
1
1
1
1
1
1
1
1
1
1
1
1
1
1
1
1
1
1
1
1
1
1
1
1
1
1
1
1
1
1
1
1
1
1
1
1
1
1
1
1
1
1
1
1
1
1
1
1
1
1
1
1
1
1
1
1
1
1
1
1
1
1
1
1
1
1
1
1
1
1
0.0590013
0.0448335
0.0351141
0.162915
0.192761
0.16265
0.0945621
0.00592194
6.14239e-06
9.07217e-13
1.87141e-22
-3.86274e-13
2.04631e-05
6.93266e-05
9.73242e-05
2.02677e-05
9.71983e-09
0.0148536
0.0361767
0.0988938
0.113978
0.145981
0.192674
0.190526
0.0725496
0.105818
0.108217
0.0129113
7.94527e-05
5.86374e-05
6.76443e-05
0.00091133
0.000886334
0.000175701
0.000259259
0.000205731
2.49718e-05
0.0109663
0.182512
0.139222
0.179441
0.19314
0.0885188
0.00011576
0.0460843
0.150005
0.149557
0.0989507
0.0267956
0.0203859
0.00472284
2.69044e-05
2.88311e-05
0.000395778
0.000509618
3.00332e-05
0.00125734
0.0959911
0.000270756
0.0137954
0.0323529
0.00862177
1.2252e-05
6.59755e-05
0.0334785
0.169486
0.169842
0.153786
0.0303714
2.07949e-05
4.35167e-05
3.13104e-05
0.000260585
0.000516465
1.32065e-05
0.00136089
3.18312e-19
-6.09784e-13
-1.67066e-13
1.18219e-20
-3.64297e-21
1.20564e-06
2.03403e-06
2.26761e-05
0.0398713
0.131967
0.102015
0.0084576
2.07757e-05
9.75426e-05
9.73748e-05
2.0615e-05
0.000230893
6.27669e-08
0.0145864
0.000484897
-1.62193e-17
5.13111e-20
9.2532e-38
-8.50605e-12
1.29916e-06
1.56972e-06
1.00561e-06
6.08914e-08
0.00620047
0.0036011
0.000795446
2.29698e-05
7.78443e-05
9.02873e-05
3.91241e-06
3.37525e-08
1.39988e-05
0.0297142
0.462086
0.288272
0.129993
0.0252622
8.82223e-08
2.82344e-23
3.01063e-24
-4.64723e-24
-3.03862e-23
-9.43507e-16
3.02334e-07
1.84027e-05
2.03388e-05
4.66495e-06
1.08318e-05
4.85966e-06
8.92359e-08
0.00019245
0.0298077
1
0.976097
0.872639
0.690068
0.438502
0.209541
0.0620821
1.58245e-06
1.13368e-21
-3.26545e-27
8.41066e-12
2.48939e-07
4.79976e-06
9.40775e-07
9.09497e-07
1.14073e-06
2.20507e-07
0.00078915
0.0298329
1
1
1
1
0.991752
0.925572
0.762786
0.483066
0.196582
0.0254015
6.1457e-07
6.14614e-07
8.15602e-07
8.82954e-07
8.41812e-07
6.68441e-07
4.37171e-08
0.000814765
0.0211204
1
1
1
1
0.999999
0.999999
0.999999
0.996168
0.909501
0.652351
0.236462
0.0165693
1.05932e-06
1.06891e-06
7.97683e-07
1.57252e-07
8.66117e-08
0.000309727
0.00178707
1
1
1
1
1
1
1
0.999999
0.999999
0.999999
0.952516
0.703267
0.267377
0.0143039
-5.68683e-08
3.69695e-14
1.62782e-08
8.34661e-05
0.000390712
1
1
1
1
0.999999
0.999999
1
1
1
0.999999
0.999998
0.999998
0.973475
0.741564
0.26754
0.0147859
1.09012e-09
3.56621e-11
0.0113324
1
1
1
1
0.999999
1
0.999961
0.999709
0.999424
0.999902
0.999999
0.999998
0.999998
0.999995
0.975409
0.72985
0.423247
0.402576
0.635514
1
1
1
1
0.999999
1
0.999787
0.998978
0.99898
0.999123
1
1
0.999998
0.999997
0.999956
0.999962
0.999243
0.995786
0.991491
1
1
1
1
0.999999
0.999999
0.999852
0.999339
0.999076
0.999502
1
0.999928
0.998743
0.998046
0.998421
0.998937
0.999698
0.999991
0.999999
1
1
1
1
1
0.999999
0.999992
0.99999
0.99993
0.999997
1
0.999978
0.99821
0.997905
0.998078
0.998852
0.999448
0.999956
0.999999
1
1
1
1
1
1
1
1
1
1
1
0.999924
0.999681
0.999434
0.999815
0.999964
0.999957
0.999977
0.999999
1
1
1
1
1
1
1
1
1
1
0.999997
0.999981
1
1
1
1
1
1
1
1
1
1
1
1
1
1
1
1
1
0.999999
1
1
1
1
1
1
1
0.999999
1
1
1
1
1
1
1
1
1
1
1
1
1
1
1
1
1
0.999999
0.999999
1
1
1
1
1
1
1
1
1
1
1
1
1
1
1
1
1
0.999999
0.999999
1
1
1
1
1
1
1
1
1
1
1
1
1
1
1
1
1
1
1
1
1
1
1
1
1
1
1
1
1
1
1
1
1
1
1
1
1
1
1
1
1
1
1
1
1
1
1
1
1
1
1
1
1
1
1
1
1
1
1
1
1
1
1
1
1
1
1
1
1
1
1
1
1
1
1
1
1
1
1
1
1
1
1
1
1
1
1
1
1
1
1
1
1
1
1
1
1
1
1
1
1
1
1
1
1
1
1
1
1
1
1
1
1
1
1
1
1
1
1
1
1
1
1
1
1
1
1
1
1
1
1
1
1
1
1
1
1
1
1
1
1
1
1
1
1
1
1
1
1
1
1
1
1
1
1
1
1
1
1
1
1
1
1
1
1
1
1
1
1
1
1
1
1
1
1
1
1
1
1
1
1
1
1
1
1
1
1
1
1
1
1
1
1
1
1
1
1
1
1
1
1
1
1
1
1
1
1
1
1
1
1
1
1
1
1
1
1
1
1
1
1
1
1
1
1
1
1
1
1
1
1
1
1
1
1
1
1
1
1
1
1
1
1
1
1
1
1
1
1
1
1
1
1
1
1
1
1
1
1
1
1
1
1
1
1
1
1
1
1
1
1
1
1
1
1
1
1
1
1
1
1
1
1
1
1
1
1
1
1
1
1
1
1
1
1
1
1
1
1
1
1
1
1
1
1
1
1
1
1
1
1
1
1
1
1
1
1
1
1
1
1
1
1
1
1
1
1
1
1
1
1
1
1
1
1
1
1
1
1
1
1
1
1
1
1
1
1
1
1
1
1
1
1
1
1
1
1
1
1
1
1
1
1
1
1
1
1
1
1
1
1
1
1
1
1
1
1
1
1
1
1
1
1
1
1
1
1
1
1
1
1
1
1
1
1
1
1
1
1
)
;

boundaryField
{
    leftWall
    {
        type            alphaContactAngle;
        contactAngleProperties 
        {
            mercury         
            {
                theta0          90;
            }
            water           
            {
                theta0          90;
            }
            oil             
            {
                theta0          90;
            }
        }
        value           nonuniform List<scalar> 
50
(
1.52012e-13
7.1786e-13
2.75325e-12
1.12559e-11
8.91536e-11
4.43052e-10
1.33587e-09
2.5433e-09
4.91148e-09
1.10029e-09
0.00234575
0.156294
0.236696
0.219564
0.159551
0.427371
0.925378
0.999999
0.999999
0.999999
0.999999
0.999999
1
1
1
1
1
1
1
1
1
1
1
1
1
1
1
1
1
1
1
1
1
1
1
1
1
1
1
1
)
;
    }
    rightWall
    {
        type            alphaContactAngle;
        contactAngleProperties 
        {
            mercury         
            {
                theta0          90;
            }
            water           
            {
                theta0          90;
            }
            oil             
            {
                theta0          90;
            }
        }
        value           nonuniform List<scalar> 
50
(
0.0151086
0.0198148
0.0848116
0.100561
0.0213744
0.0926888
0.117852
0.117571
0.0361767
0.0109663
0.00125734
0.00136089
0.0145864
0.0297142
0.0298077
0.0298329
0.0211204
0.00178707
0.000390712
0.0113324
0.635514
0.991491
0.999999
0.999999
0.999999
1
0.999999
0.999999
0.999999
1
1
1
1
1
1
1
1
1
1
1
1
1
1
1
1
1
1
1
1
1
)
;
    }
    lowerWall
    {
        type            alphaContactAngle;
        contactAngleProperties 
        {
            mercury         
            {
                theta0          90;
            }
            water           
            {
                theta0          90;
            }
            oil             
            {
                theta0          90;
            }
        }
        value           nonuniform List<scalar> 
62
(
1.52012e-13
2.41484e-13
3.45641e-13
2.77292e-13
2.28011e-13
1.76478e-13
1.21708e-13
7.55224e-14
4.14652e-14
2.20015e-14
1.3035e-14
7.96488e-15
4.69617e-15
2.41985e-15
1.14732e-15
8.28193e-16
1.03773e-15
2.16449e-15
5.8631e-15
1.71894e-14
3.50166e-14
8.31986e-14
2.09813e-13
2.09813e-13
1.69113e-12
8.65785e-12
1.10295e-09
8.85241e-09
1.50208e-08
1.14186e-08
1.94507e-09
0.0032195
0.00289402
0.00254945
0.00290411
0.000335749
0.000353493
0.00359513
0.0194061
0.0243435
0.00611099
0.0186713
0.0290689
0.000335749
0.00108245
0.0280812
0.0404918
0.0698344
0.0750985
0.0717011
0.0608592
0.0501735
0.0604297
0.140786
0.113109
0.0827373
0.0188627
0.0151404
0.0149112
0.0149112
0.0154577
0.0151086
)
;
    }
    atmosphere
    {
        type            inletOutlet;
        inletValue      uniform 1;
        value           nonuniform List<scalar> 
46
(
1
1
1
1
1
1
1
1
1
1
1
1
1
1
1
1
1
1
1
1
1
1
1
1
1
1
1
1
1
1
1
1
1
1
1
1
1
1
1
1
1
1
1
1
1
1
)
;
    }
    defaultFaces
    {
        type            empty;
    }
}


// ************************************************************************* //
