/*--------------------------------*- C++ -*----------------------------------*\
  =========                 |
  \\      /  F ield         | OpenFOAM: The Open Source CFD Toolbox
   \\    /   O peration     | Website:  https://openfoam.org
    \\  /    A nd           | Version:  13
     \\/     M anipulation  |
\*---------------------------------------------------------------------------*/
FoamFile
{
    format      ascii;
    class       volScalarField;
    location    "1.7";
    object      alpha.oil;
}
// * * * * * * * * * * * * * * * * * * * * * * * * * * * * * * * * * * * * * //

dimensions      [];

internalField   nonuniform List<scalar> 
2268
(
1.93954e-15
1.20688e-14
5.07725e-14
1.61066e-13
3.78735e-13
7.85762e-13
1.53046e-12
3.24097e-12
6.51443e-12
1.25678e-11
2.40496e-11
4.64891e-11
9.03241e-11
1.72504e-10
3.15969e-10
5.40365e-10
9.32338e-10
1.30496e-09
5.24851e-09
2.13353e-06
0.000308924
0.000567867
0.000567833
9.49101e-16
5.30423e-15
1.80735e-14
5.70739e-14
2.30982e-13
7.24248e-13
1.59008e-12
3.67646e-12
8.20357e-12
1.82995e-11
3.77306e-11
7.1615e-11
1.44437e-10
2.90995e-10
5.27509e-10
9.97181e-10
1.93496e-09
5.5814e-09
1.45328e-08
5.26822e-08
1.84939e-05
0.000213306
0.0003379
7.08848e-16
3.09563e-15
8.2028e-15
2.34888e-14
1.05595e-13
6.16485e-13
1.5659e-12
3.88863e-12
9.64662e-12
2.29832e-11
4.98463e-11
9.95509e-11
1.97749e-10
3.27618e-10
5.09072e-10
8.51763e-10
2.17982e-09
6.66867e-09
1.46837e-08
2.16674e-08
2.02613e-08
2.17728e-08
2.34291e-08
6.71865e-16
3.57094e-15
1.74173e-14
2.70437e-14
5.73421e-14
2.33756e-13
7.70819e-13
2.77831e-12
7.95168e-12
2.05838e-11
4.8363e-11
1.094e-10
2.43969e-10
5.27707e-10
1.03652e-09
1.92969e-09
3.61413e-09
7.60649e-09
1.5352e-08
1.84735e-08
1.95013e-08
2.35483e-08
2.38652e-08
1.43689e-12
2.74629e-12
5.07795e-12
4.93069e-12
3.52782e-12
2.16027e-12
1.57097e-12
1.76573e-12
2.92228e-12
9.6342e-12
2.72689e-11
6.97688e-11
1.78724e-10
5.37937e-10
1.42701e-09
3.31894e-09
5.1063e-09
5.2142e-09
5.33877e-09
8.00559e-09
1.88584e-08
5.26455e-08
4.34215e-08
2.41246e-10
1.92527e-10
1.94941e-10
1.6711e-10
1.29127e-10
7.84723e-11
3.60842e-11
1.65034e-11
9.57993e-12
8.98917e-12
1.2442e-11
3.93904e-11
2.6745e-10
1.24423e-09
5.22253e-09
1.52298e-08
3.46991e-08
3.78729e-08
3.00371e-08
8.01452e-08
7.50041e-08
8.03097e-08
7.64965e-08
2.12836e-09
1.38427e-09
1.01472e-09
8.49e-10
6.42731e-10
3.98915e-10
1.8371e-10
9.67084e-11
5.00805e-11
3.00758e-11
2.70415e-11
4.44935e-11
1.6111e-10
3.88102e-10
4.85647e-10
4.04946e-10
4.33047e-08
2.21899e-07
8.12342e-07
1.69175e-06
8.3014e-07
9.23583e-08
1.42942e-07
6.1617e-09
4.524e-09
3.41062e-09
2.63666e-09
2.10436e-09
1.50471e-09
7.15745e-10
3.74547e-10
1.92005e-10
9.4755e-11
7.043e-11
9.14015e-11
2.03822e-10
3.71184e-10
4.33788e-10
4.02267e-10
4.02945e-10
3.10433e-07
2.56876e-06
2.82444e-06
1.79816e-06
7.15467e-08
1.38934e-05
0.104411
0.101578
0.0408262
0.0296583
0.03494
0.306357
0.363146
0.374172
0.374172
0.366879
0.123652
0.0574163
0.086412
0.150403
0.207869
0.25881
0.260622
0.260747
0.262039
0.144654
0.125945
0.07603
0.0295664
0.034091
0.0772844
0.131847
0.173785
0.20444
0.222253
0.120729
0.0568101
0.0566932
0.11916
0.217795
0.247691
0.248104
0.272587
0.434635
0.728872
0.651054
0.479498
0.245908
0.0946559
0.00635425
0.0060085
0.0299869
0.0354458
0.136347
0.249685
0.233918
0.182221
0.216057
0.213249
0.251011
0.255602
0.32456
0.520283
0.846657
0.872515
0.859529
0.613981
0.0761621
1.85167e-09
-8.68611e-11
8.35629e-19
0.00210577
0.128951
0.249021
0.251523
0.26161
0.261611
0.261225
0.164087
0.116051
0.261278
0.520273
0.159688
0.289742
0.793686
0.799837
0.308968
0.00128006
1.75653e-09
3.10445e-10
0.0239196
0.192703
0.24558
0.229296
0.23163
0.202829
0.140807
0.110275
0.101699
0.20634
0.520251
0.00018521
0.00308327
0.289981
0.782252
0.719123
0.16868
4.42705e-10
5.78393e-18
0.0170027
0.212177
0.25341
0.253248
0.253292
0.144773
0.051532
0.0860776
0.0920257
0.172696
0.450877
0.00725742
-1.42737e-05
0.0113384
0.513198
0.729816
0.550358
0.0441857
7.44043e-09
0.00189005
0.064233
0.165392
0.184477
0.14875
0.0460402
3.5107e-06
0.16205
0.206628
0.22225
0.462534
0.0151773
0.000248587
1.98847e-07
0.117628
0.647509
0.686825
0.197267
4.88945e-05
5.35247e-05
8.2786e-07
0.00327969
0.00570841
0.00129418
5.65342e-05
3.51522e-06
0.0581087
0.561393
0.447564
0.716406
8.56938e-09
7.65226e-09
6.45359e-09
5.66695e-09
5.10951e-09
4.35276e-09
2.42001e-09
1.23614e-09
6.87864e-10
3.43448e-10
1.9596e-10
1.80896e-10
3.15011e-10
5.52561e-10
5.88041e-10
5.08135e-10
1.62969e-09
4.6941e-08
1.4346e-06
2.33218e-06
3.91848e-07
2.79254e-05
0.000162864
6.08803e-09
6.5159e-09
6.88591e-09
6.79549e-09
7.6666e-09
7.50391e-09
4.93696e-09
2.03871e-09
1.21078e-09
7.21745e-10
3.08539e-10
2.93639e-10
5.19237e-10
1.24257e-09
1.54169e-09
1.73825e-09
2.83112e-09
3.99343e-09
-9.90395e-28
-4.65956e-15
2.93366e-05
0.000298596
0.000143656
1.66724e-09
1.59158e-09
1.66724e-09
1.59158e-09
1.67483e-09
1.58554e-09
2.75852e-09
1.60178e-09
8.16678e-10
4.51085e-10
3.36545e-10
3.20199e-10
3.61194e-10
3.9297e-10
3.77554e-10
7.34288e-10
1.60877e-08
-1.34296e-12
-5.39072e-19
7.88618e-20
0.00392605
0.0381604
0.131284
0.0160645
0.0860096
0.0945621
0.0836174
0.051292
0.00862885
-4.79315e-21
-1.72329e-27
-1.446e-10
4.30823e-28
0
0
8.61647e-28
1.33221e-20
0.00928655
0.0242441
0.044524
0.075915
0.13897
0.279319
0.471074
0.656099
0.834268
0.416227
0.801343
0.864656
0.831538
0.73374
0.515217
0.401319
0.394825
0.420101
0.417047
0.424985
0.441571
0.468252
0.508789
0.567911
0.631302
0.666468
0.715465
0.790735
0.848217
0.923903
0.979617
0.997876
0.722854
0.981917
0.981917
0.981917
0.970391
0.889075
0.887277
0.932679
0.948002
0.933581
0.919184
0.921245
0.933579
0.95915
0.972821
0.979772
0.990719
0.997914
0.999423
1
0.999182
0.995204
0.990022
0.80827
0.95249
0.953318
0.971869
0.974759
0.977181
0.979753
0.981494
0.981487
0.978785
0.975039
0.96772
0.956635
0.941297
0.919353
0.887578
0.847055
0.801669
0.75401
0.685373
0.572962
0.473012
0.400829
0.571305
0.495005
0.459997
0.424192
0.395359
0.397405
0.388037
0.370581
0.353013
0.337592
0.319136
0.294558
0.262409
0.223799
0.181747
0.14005
0.100581
0.063289
0.0277857
2.52798e-14
2.19069e-16
8.19747e-21
-2.54958e-26
0.0746216
0.115897
0.0669624
0.00439726
1.32831e-06
7.14671e-07
6.27683e-08
4.53115e-09
1.30706e-08
2.75942e-08
3.05409e-12
5.37142e-13
1.52793e-13
6.14525e-18
7.55414e-19
1.00293e-19
-2.75727e-26
7.20652e-15
2.34394e-14
2.17718e-14
1.76496e-08
1.54127e-09
1.41801e-08
1.46752e-06
0.0035938
0.012052
0.00348005
4.60968e-08
1.35361e-08
5.90569e-09
5.86675e-08
3.16274e-07
5.72225e-07
5.42467e-06
2.83981e-06
6.74544e-07
5.68449e-08
2.8445e-09
7.43836e-10
1.11194e-09
1.1069e-07
2.71026e-07
3.50803e-07
2.98039e-07
2.98783e-07
1.46297e-07
7.49893e-07
1.39286e-06
0.00425716
0.00148662
3.9969e-12
7.16665e-11
2.56077e-08
1.94347e-07
6.6068e-07
1.08827e-05
0.000134184
0.000126587
2.51609e-05
3.49288e-07
2.9201e-08
2.0352e-09
2.21935e-09
5.09237e-07
6.33242e-07
6.24068e-07
6.2005e-07
4.95565e-07
2.01955e-07
8.97539e-07
2.79634e-05
7.19183e-07
0.000321243
-4.18383e-19
2.59892e-08
1.06734e-07
2.71439e-07
2.78069e-07
0.000125896
0.000172272
0.000172304
8.73892e-05
1.9285e-07
1.89672e-08
1.49936e-08
4.46197e-08
4.30973e-07
5.63985e-07
4.1564e-07
3.4658e-07
2.62413e-07
1.20483e-07
8.06922e-07
6.73264e-07
5.9643e-07
7.12951e-07
2.17023e-07
9.55282e-08
1.61295e-07
2.96978e-07
2.98552e-07
0.000151903
0.000172306
0.000172274
8.29703e-05
2.45536e-07
1.05063e-07
4.16985e-08
6.23997e-08
3.6044e-08
1.97562e-07
7.92309e-08
8.79417e-08
4.12508e-08
2.00371e-08
9.04588e-07
1.35258e-06
6.34227e-07
1.96461e-07
1.48832e-07
9.72871e-08
1.58658e-07
2.39865e-07
5.4947e-07
1.09257e-05
0.000120239
0.000141896
1.75383e-05
2.44886e-07
2.16427e-07
1.87309e-08
4.05744e-09
5.72017e-09
3.18116e-08
1.11988e-09
1.22325e-09
2.32439e-09
3.33428e-09
2.75843e-07
5.81776e-07
2.57034e-07
1.22172e-07
8.75772e-08
9.11039e-08
1.33647e-07
1.74691e-07
1.72493e-06
1.58317e-08
2.95128e-08
2.60013e-07
3.71979e-07
1.55993e-06
3.90006e-07
3.42497e-09
5.58956e-09
3.92941e-09
3.8037e-09
1.79591e-09
1.21245e-09
1.07067e-09
1.00453e-09
4.92447e-08
1.26569e-07
1.11534e-07
8.52556e-08
7.29205e-08
6.71105e-08
5.4059e-08
4.19973e-08
1.6611e-08
1.33231e-08
1.34541e-08
2.52204e-08
2.75757e-07
2.21889e-06
3.71184e-07
4.87026e-09
1.32382e-08
1.03542e-08
6.42437e-09
6.6039e-09
3.84375e-09
1.74999e-09
1.21851e-09
3.53523e-08
7.92117e-08
9.70794e-08
8.49764e-08
6.55715e-08
4.13436e-08
2.53555e-08
1.56644e-08
1.38669e-08
1.37862e-08
1.54703e-08
8.30657e-08
7.60798e-07
2.0988e-06
1.11953e-07
4.62022e-09
1.3681e-08
1.36749e-08
1.21157e-08
9.85033e-09
6.90792e-09
3.29566e-09
2.02316e-09
3.19854e-08
7.40467e-08
9.63105e-08
8.59412e-08
5.63756e-08
3.11735e-08
1.99661e-08
1.66911e-08
1.57489e-08
1.44919e-08
2.14029e-08
1.30915e-07
6.7901e-07
4.27567e-07
1.71014e-08
1.73486e-08
1.41043e-08
1.20063e-08
1.11078e-08
9.52921e-09
7.38482e-09
3.98811e-09
2.64361e-09
2.58705e-08
6.62607e-08
8.83574e-08
8.26403e-08
5.49115e-08
3.14535e-08
1.96626e-08
1.65284e-08
1.55565e-08
1.53877e-08
2.41254e-08
5.23485e-08
5.18172e-09
7.10172e-09
1.92886e-08
2.62727e-08
1.27922e-08
9.16234e-09
8.19678e-09
7.76955e-09
6.63275e-09
4.13706e-09
2.8112e-09
1.79766e-08
4.48888e-08
6.53073e-08
6.77453e-08
5.39655e-08
3.16022e-08
1.84401e-08
1.39155e-08
1.25024e-08
1.12311e-08
8.9165e-09
5.28179e-09
4.78952e-09
5.6838e-09
1.32277e-08
1.96165e-08
9.83425e-09
7.02729e-09
6.1233e-09
5.93523e-09
5.47598e-09
3.85259e-09
2.73811e-09
1.115e-08
3.14805e-08
4.73396e-08
5.03783e-08
4.49573e-08
3.11558e-08
1.60905e-08
1.02558e-08
8.40801e-09
7.74054e-09
6.79266e-09
5.30851e-09
4.73051e-09
4.86703e-09
5.87171e-09
6.69645e-09
6.01873e-09
4.62468e-09
4.05286e-09
4.14929e-09
4.02004e-09
3.28372e-09
2.48455e-09
7.08713e-09
1.8441e-08
2.58669e-08
3.1226e-08
3.22801e-08
2.59834e-08
1.45365e-08
7.92055e-09
5.60536e-09
4.84598e-09
4.78849e-09
4.55967e-09
4.09334e-09
3.4387e-09
3.00755e-09
2.92445e-09
3.06613e-09
2.73688e-09
2.62252e-09
2.56813e-09
2.51232e-09
2.39101e-09
1.99676e-09
3.48401e-09
8.97872e-09
1.43911e-08
1.64953e-08
1.85945e-08
1.90131e-08
1.22855e-08
6.22381e-09
3.82029e-09
2.82053e-09
2.53485e-09
2.66505e-09
2.64609e-09
2.36295e-09
2.07373e-09
1.77037e-09
1.59087e-09
1.49255e-09
1.43093e-09
1.49688e-09
1.49352e-09
1.41313e-09
1.3018e-09
1.76868e-09
4.30902e-09
6.7017e-09
7.84539e-09
7.87796e-09
1.07855e-08
8.79112e-09
4.56977e-09
2.6077e-09
1.62015e-09
1.21649e-09
1.18747e-09
1.28205e-09
1.37069e-09
1.26635e-09
1.08184e-09
9.34944e-10
8.40252e-10
8.01141e-10
7.98025e-10
7.88118e-10
7.662e-10
7.26562e-10
6.95183e-10
1.91306e-09
2.74388e-09
3.15181e-09
2.84801e-09
4.05902e-09
4.75746e-09
2.9905e-09
1.77444e-09
1.03836e-09
6.73119e-10
5.47433e-10
5.72194e-10
6.30085e-10
6.31473e-10
5.84672e-10
5.16824e-10
4.57272e-10
4.19326e-10
4.14061e-10
4.09664e-10
3.83253e-10
3.55674e-10
3.02189e-10
7.17504e-10
1.02549e-09
1.14056e-09
9.6328e-10
1.29711e-09
1.70444e-09
1.44602e-09
9.776e-10
6.10435e-10
3.5722e-10
2.62324e-10
2.38478e-10
2.5682e-10
2.75576e-10
2.68549e-10
2.50448e-10
2.27764e-10
2.10115e-10
1.97762e-10
1.85584e-10
1.78252e-10
1.63051e-10
9.32396e-11
2.18767e-10
3.18241e-10
3.67594e-10
3.08777e-10
3.93472e-10
5.50314e-10
5.26567e-10
4.12466e-10
2.82528e-10
1.82281e-10
1.18018e-10
9.50146e-11
9.52842e-11
1.07501e-10
1.12881e-10
1.09873e-10
1.0143e-10
9.55223e-11
8.88793e-11
8.33645e-11
7.67387e-11
7.09791e-11
2.16385e-11
5.47725e-11
8.19332e-11
9.64554e-11
8.2311e-11
1.02706e-10
1.4654e-10
1.56284e-10
1.32463e-10
9.96572e-11
7.05973e-11
4.83337e-11
3.64739e-11
3.32303e-11
3.68814e-11
4.09861e-11
4.22473e-11
4.06754e-11
3.80475e-11
3.60066e-11
3.23378e-11
2.89484e-11
2.67538e-11
4.25659e-12
1.10155e-11
1.67985e-11
1.98992e-11
1.73489e-11
2.1564e-11
3.22077e-11
3.75911e-11
3.43759e-11
2.80002e-11
2.11627e-11
1.54648e-11
1.18591e-11
1.09405e-11
1.14497e-11
1.31643e-11
1.4402e-11
1.3927e-11
1.35736e-11
1.30031e-11
1.15893e-11
1.00454e-11
9.05938e-12
6.06498e-13
1.69738e-12
2.59613e-12
3.07164e-12
2.70283e-12
3.43744e-12
5.68063e-12
7.31037e-12
6.94583e-12
6.05417e-12
4.95251e-12
3.9253e-12
3.22014e-12
2.95898e-12
3.26714e-12
3.70549e-12
4.09631e-12
4.34274e-12
4.28204e-12
4.18414e-12
3.69323e-12
2.95373e-12
2.5974e-12
4.30163e-14
1.58418e-13
2.80864e-13
3.26711e-13
2.85993e-13
4.00095e-13
7.81491e-13
1.14847e-12
1.15111e-12
1.06554e-12
9.2983e-13
7.83793e-13
7.02022e-13
7.01049e-13
8.0892e-13
9.65948e-13
1.10536e-12
1.16086e-12
1.1671e-12
1.14102e-12
1.06103e-12
7.92541e-13
6.11769e-13
1.6319e-15
1.07121e-14
1.61316e-14
1.85598e-14
1.89462e-14
3.25364e-14
8.1172e-14
1.32726e-13
1.55182e-13
1.49823e-13
1.38642e-13
1.25366e-13
1.24604e-13
1.4119e-13
1.67814e-13
2.08688e-13
2.38787e-13
2.63253e-13
2.7017e-13
2.66461e-13
2.39542e-13
1.54327e-13
1.28175e-13
4.55434e-17
3.56561e-16
5.06629e-16
5.9892e-16
7.61535e-16
2.00435e-15
5.87022e-15
1.11217e-14
1.43676e-14
1.5658e-14
1.57726e-14
1.70502e-14
1.95697e-14
2.43156e-14
3.15706e-14
3.93703e-14
4.81897e-14
5.24482e-14
5.41247e-14
5.22156e-14
4.42598e-14
3.17825e-14
2.10069e-14
7.73146e-19
4.64279e-18
6.81775e-18
8.9981e-18
2.46038e-17
1.04217e-16
3.6375e-16
7.42849e-16
1.1934e-15
1.48181e-15
1.7514e-15
2.09815e-15
2.70216e-15
3.73845e-15
5.15472e-15
6.81248e-15
8.03201e-15
8.78542e-15
9.34541e-15
8.83128e-15
7.18038e-15
4.66266e-15
3.03708e-15
4.59782e-21
1.91918e-20
3.39047e-20
1.17966e-19
8.48071e-19
4.37052e-18
1.73017e-17
4.23378e-17
8.69416e-17
1.27975e-16
1.716e-16
2.39319e-16
3.51034e-16
5.31523e-16
7.76445e-16
1.06343e-15
1.29852e-15
1.46608e-15
1.46419e-15
1.28255e-15
9.50456e-16
6.29982e-16
4.32823e-16
2.38894e-24
9.53912e-24
1.28234e-22
2.59172e-21
2.66348e-20
1.74321e-19
8.01103e-19
2.2838e-18
6.14209e-18
1.06201e-17
1.61131e-17
2.58913e-17
4.24635e-17
6.90505e-17
1.06074e-16
1.47081e-16
1.82948e-16
1.93967e-16
1.85994e-16
1.52736e-16
1.11594e-16
7.89962e-17
8.97433e-17
4.17621e-28
1.59116e-26
2.30859e-24
7.04022e-23
8.3906e-22
6.56939e-21
3.35031e-20
1.12238e-19
3.899e-19
8.01461e-19
1.41644e-18
2.59173e-18
4.70604e-18
8.21164e-18
1.28338e-17
1.82698e-17
2.22736e-17
2.32844e-17
2.08422e-17
1.65335e-17
1.23043e-17
1.36901e-17
3.26961e-17
1.16276e-29
3.28077e-28
4.73217e-26
1.87911e-24
2.65745e-23
2.242e-22
1.29956e-21
5.2167e-21
2.34105e-20
5.62989e-20
1.14935e-19
2.37351e-19
4.73945e-19
8.78336e-19
1.43796e-18
2.02027e-18
2.4061e-18
2.42568e-18
2.17875e-18
1.92716e-18
2.11012e-18
4.25133e-18
1.62225e-17
1.92896e-30
2.32009e-29
1.05413e-27
4.97879e-26
8.05236e-25
7.52297e-24
5.19302e-23
2.46389e-22
1.32222e-21
3.65524e-21
8.57748e-21
2.05283e-20
4.40453e-20
8.54361e-20
1.43461e-19
2.03707e-19
2.4817e-19
2.62824e-19
2.66127e-19
3.21175e-19
5.63847e-19
1.71556e-18
9.55405e-18
3.5101e-31
3.96923e-30
5.12262e-29
1.56579e-27
2.81178e-26
2.91975e-25
2.3026e-24
1.32365e-23
8.25691e-23
2.4633e-22
6.64763e-22
1.76185e-21
4.2132e-21
8.74609e-21
1.51736e-20
2.24813e-20
2.90901e-20
3.48961e-20
4.53895e-20
8.14841e-20
2.12746e-19
1.03347e-18
6.51251e-18
6.60592e-32
7.2642e-31
7.13231e-30
9.22999e-29
1.39608e-27
1.40332e-26
1.15359e-25
7.4874e-25
5.17723e-24
1.77856e-23
5.57867e-23
1.66642e-22
4.34642e-22
9.6403e-22
1.77971e-21
2.86292e-21
4.22007e-21
6.10868e-21
1.03278e-20
2.57263e-20
1.09678e-19
5.99539e-19
4.09691e-18
8.54698e-33
9.10032e-32
9.90203e-31
1.05742e-29
1.15633e-28
1.07718e-27
8.79782e-27
6.49543e-26
4.0644e-25
1.57897e-24
5.56545e-24
1.77657e-23
4.93448e-23
1.16345e-22
2.41176e-22
4.19292e-22
6.84754e-22
1.14825e-21
2.3325e-21
8.15617e-21
4.20917e-20
2.44707e-19
1.82623e-18
0.000587552
0.00117187
0.00124341
0.00101431
0.00014819
0.000221639
0.00625332
0.00137369
0.268049
0.41797
0.367182
0.299107
0.98553
0.978581
0.816245
0.793325
0.999798
0.99966
0.991962
0.962111
0.986622
0.987811
0.988052
0.991217
0.370257
0.376159
0.404079
0.450048
4.4426e-18
-1.57596e-10
-1.03706e-10
4.27588e-13
1.18462e-08
2.39141e-09
-2.62519e-10
9.65236e-11
1.13215e-07
9.87023e-08
5.31204e-08
5.09222e-08
1.81114e-07
1.4759e-07
1.30649e-07
1.19907e-07
1.14951e-07
1.18644e-07
1.07573e-07
1.0085e-07
2.48782e-08
1.41665e-08
2.76714e-08
3.46491e-08
1.69317e-09
2.27275e-09
6.67182e-09
1.35479e-08
1.00312e-09
1.48221e-09
6.00354e-09
1.17312e-08
9.93597e-10
9.9578e-10
1.86246e-09
3.79996e-09
1.22542e-09
1.08218e-09
1.07836e-09
1.15814e-09
1.59671e-09
1.27835e-09
1.13668e-09
1.13004e-09
1.85643e-09
1.45207e-09
1.25046e-09
1.15596e-09
1.92402e-09
1.57487e-09
1.29957e-09
1.13044e-09
1.81459e-09
1.48807e-09
1.28044e-09
1.11485e-09
1.59837e-09
1.36859e-09
1.1596e-09
1.01689e-09
1.10957e-09
9.97456e-10
9.11768e-10
8.20627e-10
6.59067e-10
6.17712e-10
5.6623e-10
5.22952e-10
3.11001e-10
2.95607e-10
2.83938e-10
2.67239e-10
1.40023e-10
1.29812e-10
1.24279e-10
1.15472e-10
5.75039e-11
5.11932e-11
4.81957e-11
4.3979e-11
2.08793e-11
1.79399e-11
1.67819e-11
1.46467e-11
7.08366e-12
5.79106e-12
5.17311e-12
4.24153e-12
1.98506e-12
1.60921e-12
1.3674e-12
1.04117e-12
4.73461e-13
3.62806e-13
2.98729e-13
2.23112e-13
9.89511e-14
6.888e-14
5.51675e-14
4.09222e-14
1.60605e-14
1.1713e-14
8.4588e-15
6.59082e-15
2.32264e-15
1.7117e-15
1.51526e-15
1.54435e-15
3.86652e-16
3.92063e-16
4.67798e-16
6.65464e-16
1.09699e-16
1.41794e-16
2.24329e-16
4.05101e-16
4.88313e-17
7.68048e-17
1.43321e-16
3.3207e-16
2.64499e-17
4.87101e-17
1.20836e-16
3.55263e-16
1.72608e-17
4.06699e-17
1.28128e-16
4.13301e-16
1.34649e-17
4.11801e-17
1.44021e-16
4.56791e-16
9.95077e-18
3.76648e-17
1.34475e-16
4.14444e-16
7.0156e-18
2.42698e-17
7.85383e-17
2.14956e-16
0.0556247
0.0363316
0.00330682
0.00182681
0.457777
0.757595
0.452061
0.00913305
8.12354e-06
6.62711e-07
1.00795e-07
2.57833e-07
2.22207e-05
8.45859e-06
3.51076e-06
0.0434486
0.785782
0.940434
0.919137
0.158791
0.208658
0.0324948
0.00063066
0.577466
0.918378
0.80901
0.166917
6.74824e-07
6.38588e-07
7.23188e-07
2.9159e-07
3.60123e-23
-1.41151e-06
0.140222
0.652996
0.995807
0.999822
0.962423
0.720139
0.860778
0.619912
0.579545
0.874677
0.9998
0.950738
0.662568
0.0574271
-5.72707e-10
-1.41618e-07
-2.36509e-07
0.196874
0.677693
0.934825
0.999418
0.999151
0.999925
0.98417
0.904008
0.999729
0.986205
0.967236
0.990866
0.999863
0.999925
0.965887
0.651951
0.27495
0.26883
0.628094
0.95086
0.9999
0.99991
0.999734
0.99936
0.999979
0.99104
1
1
1
0.999998
0.999985
0.999925
0.999928
0.999971
0.96
0.850467
0.882132
0.991537
0.999973
0.999897
0.999897
0.999979
0.999769
1
0.98265
0.999515
1
1
1
0.999999
0.999994
0.999983
0.999976
0.999978
0.993792
0.996315
0.999186
0.999974
0.99992
0.999909
0.999996
1
0.999985
0.969321
0.537914
0.711728
0.870007
0.974738
1
1
0.999997
0.999991
0.99999
0.999996
0.999999
0.999971
0.999977
0.999995
0.999989
0.999995
1
0.999802
0.969321
-1.9255e-09
0.0239032
0.127361
0.309932
0.561498
0.790459
0.937918
0.999996
0.999996
0.999997
0.999999
0.999999
0.999994
0.999999
0.999999
0.999999
0.999999
0.999202
0.969626
2.26395e-09
5.82388e-18
-2.61627e-13
5.38882e-19
0.00824789
0.0744282
0.237214
0.516934
0.803418
0.974598
0.999999
0.999999
0.999999
0.999999
0.999999
0.999999
0.999999
0.999184
0.978877
5.24186e-08
3.25024e-08
1.97297e-08
1.45339e-08
9.43902e-07
9.62626e-07
7.29301e-07
0.00383223
0.0904989
0.347649
0.763538
0.983431
0.999999
0.999999
0.999999
0.999999
0.999999
0.999612
0.997942
1.06824e-07
8.23742e-08
7.94568e-08
1.37407e-07
2.89254e-07
4.47693e-07
3.71665e-07
7.39256e-07
8.56051e-07
1.31248e-06
0.0474841
0.296733
0.732623
0.985695
0.999996
0.999993
0.999999
0.997493
0.979697
8.86154e-08
7.69152e-08
1.2845e-07
3.90434e-07
6.12313e-07
5.70432e-07
1.23574e-07
1.18092e-07
3.96507e-07
1.13522e-06
2.24412e-06
2.2761e-06
0.0265253
0.258436
0.73246
0.98486
0.998732
0.991391
0.96232
3.63692e-08
6.42542e-08
1.68489e-07
4.94671e-07
6.47505e-07
4.80459e-07
3.9148e-05
0.000290855
0.000576411
9.79922e-05
7.4508e-07
1.79071e-06
2.34737e-06
4.84226e-06
0.0245905
0.27015
0.575519
0.581526
0.338402
2.34895e-08
6.39091e-08
1.70717e-07
3.5528e-07
5.06087e-07
4.69895e-07
0.000212858
0.00102153
0.00101969
0.000877253
1.89161e-07
2.76039e-07
8.0203e-07
5.71699e-07
3.9194e-05
1.04367e-05
-1.42804e-07
-1.21264e-07
-1.11253e-08
1.97035e-08
4.26643e-08
1.11429e-07
2.66918e-07
5.23141e-07
7.82475e-07
0.000147588
0.000660532
0.000924116
0.000497911
3.40473e-07
7.1156e-05
0.00125153
0.00194362
0.00156726
0.00104355
0.000268714
9.14877e-06
6.08839e-07
6.03093e-09
9.74016e-09
1.74871e-08
4.71097e-08
2.22877e-07
8.43155e-07
7.73342e-06
9.93907e-06
7.00842e-05
3.25161e-06
1.18969e-07
2.12377e-05
0.00178557
0.00209041
0.00191874
0.00114207
0.000543052
4.14161e-05
9.85924e-07
2.83872e-09
5.38442e-09
9.71786e-09
2.28578e-08
5.96196e-08
1.66228e-07
7.80653e-08
8.29941e-08
7.54344e-08
1.23403e-07
1.17424e-07
7.57085e-05
0.00031865
0.000565215
0.000184487
3.64063e-05
4.28199e-05
2.3191e-05
7.97944e-07
1.82697e-09
4.35564e-09
9.19757e-09
1.81163e-08
3.46819e-08
7.02179e-08
8.50873e-08
1.03926e-07
1.20707e-07
4.6117e-07
2.97031e-06
1.88729e-05
4.53472e-09
2.37296e-08
2.33056e-07
7.14445e-09
4.80111e-08
2.01519e-07
1.91723e-07
1.13345e-09
2.05303e-09
4.86795e-09
9.40725e-09
2.12188e-08
4.24373e-08
6.69421e-08
9.15693e-08
1.21603e-07
2.87988e-07
8.23852e-07
1.6937e-07
2.97761e-08
3.20183e-08
6.91687e-08
1.33594e-07
1.95196e-07
2.42615e-07
7.9815e-07
1.01216e-09
9.02711e-10
1.80977e-09
3.79443e-09
8.09328e-09
1.87165e-08
3.25404e-08
4.92696e-08
6.43338e-08
9.27196e-08
7.5518e-08
2.5347e-08
4.27489e-08
6.52931e-08
1.22369e-07
2.06833e-07
4.2924e-07
9.48777e-07
9.99377e-07
9.60597e-10
6.85568e-10
6.66372e-10
1.28214e-09
3.08488e-09
6.37257e-09
1.19625e-08
1.94977e-08
2.63634e-08
3.0035e-08
2.25703e-08
2.56898e-08
3.98246e-08
6.56816e-08
1.13639e-07
1.94572e-07
4.00208e-07
6.92663e-07
9.96934e-07
8.78827e-10
6.11583e-10
4.60543e-10
4.87547e-10
9.83558e-10
2.06233e-09
3.90353e-09
6.6517e-09
9.69214e-09
1.18722e-08
1.26306e-08
1.634e-08
2.52955e-08
4.12783e-08
6.76926e-08
1.08163e-07
1.53116e-07
2.07969e-07
4.21842e-07
7.15812e-10
5.16628e-10
3.68482e-10
3.13738e-10
3.79036e-10
7.0693e-10
1.32347e-09
2.2745e-09
3.5173e-09
4.83094e-09
6.13866e-09
8.30184e-09
1.25334e-08
1.93878e-08
3.22091e-08
4.69029e-08
6.21428e-08
5.54823e-08
5.90279e-08
4.75735e-10
3.67581e-10
2.75628e-10
2.20003e-10
2.16938e-10
3.01634e-10
5.33819e-10
9.15984e-10
1.46088e-09
2.17295e-09
3.06668e-09
4.2952e-09
6.19245e-09
9.02363e-09
1.3304e-08
1.89672e-08
1.67693e-08
1.41292e-08
1.76618e-08
2.47933e-10
2.00985e-10
1.5969e-10
1.35285e-10
1.32507e-10
1.68835e-10
2.67816e-10
4.65346e-10
7.65604e-10
1.19408e-09
1.79174e-09
2.64221e-09
3.87211e-09
5.66881e-09
8.28416e-09
1.15247e-08
1.36553e-08
1.38188e-08
1.23759e-08
1.07938e-10
8.88096e-11
7.29863e-11
6.75461e-11
7.32318e-11
9.9724e-11
1.6121e-10
2.81515e-10
4.8389e-10
7.9758e-10
1.27283e-09
1.98691e-09
3.04909e-09
4.83794e-09
7.69514e-09
1.17112e-08
1.62767e-08
1.74739e-08
1.62932e-08
4.03689e-11
3.23264e-11
2.70979e-11
2.78888e-11
3.64103e-11
5.84119e-11
1.04506e-10
1.92454e-10
3.48372e-10
6.04318e-10
1.00982e-09
1.63374e-09
2.68624e-09
4.40686e-09
7.49926e-09
1.37557e-08
2.56495e-08
2.95699e-08
2.48957e-08
1.31706e-11
1.02168e-11
8.84728e-12
1.08942e-11
1.84738e-11
3.59085e-11
7.2418e-11
1.42972e-10
2.71771e-10
4.94909e-10
8.61173e-10
1.43698e-09
2.41009e-09
4.15069e-09
7.91313e-09
1.69143e-08
3.69361e-08
6.81081e-08
4.10397e-08
3.6325e-12
2.7666e-12
2.85082e-12
4.64475e-12
1.11528e-11
2.46755e-11
5.40775e-11
1.13312e-10
2.25984e-10
4.31333e-10
7.7791e-10
1.34708e-09
2.23026e-09
3.8502e-09
7.64364e-09
1.87453e-08
4.80462e-08
1.10327e-07
4.60905e-08
8.44709e-13
7.46967e-13
1.22965e-12
2.87627e-12
7.26693e-12
1.91449e-11
4.28949e-11
9.45209e-11
1.98781e-10
3.9571e-10
7.45723e-10
1.32204e-09
2.1939e-09
3.67207e-09
7.83068e-09
2.28733e-08
6.3498e-08
1.09977e-07
5.23051e-08
1.766e-13
2.41677e-13
7.38745e-13
2.12277e-12
5.65959e-12
1.49689e-11
3.66511e-11
8.28602e-11
1.80457e-10
3.74485e-10
7.44988e-10
1.3656e-09
2.27898e-09
3.67731e-09
7.77177e-09
2.66794e-08
7.29208e-08
1.10223e-07
5.03956e-08
3.81628e-14
1.16279e-13
5.02819e-13
1.65096e-12
4.76546e-12
1.24964e-11
3.09348e-11
7.49935e-11
1.69445e-10
3.70013e-10
7.62168e-10
1.45403e-09
2.49589e-09
3.95082e-09
8.53303e-09
2.90812e-08
9.65005e-08
1.10153e-07
4.93956e-08
1.29175e-14
7.47052e-14
3.69609e-13
1.29043e-12
3.93062e-12
1.0695e-11
2.7724e-11
6.92727e-11
1.64151e-10
3.71073e-10
7.97805e-10
1.56544e-09
2.77334e-09
4.58039e-09
9.29012e-09
3.12599e-08
9.38127e-08
1.10321e-07
3.53336e-08
9.43813e-15
6.31683e-14
3.02657e-13
1.06329e-12
3.2862e-12
9.38336e-12
2.5373e-11
6.52663e-11
1.61538e-10
3.81141e-10
8.41497e-10
1.67649e-09
3.05747e-09
5.18582e-09
1.0388e-08
2.75149e-08
8.14459e-08
6.90283e-08
2.64952e-08
8.81302e-15
5.95686e-14
2.65335e-13
9.28678e-13
2.91115e-12
8.65794e-12
2.40503e-11
6.39352e-11
1.61743e-10
3.91546e-10
8.66684e-10
1.74023e-09
3.25272e-09
5.50475e-09
1.00749e-08
2.27595e-08
3.40154e-08
3.60114e-08
1.22856e-08
8.0443e-15
5.12502e-14
2.21815e-13
7.97118e-13
2.62965e-12
7.96335e-12
2.26726e-11
6.12275e-11
1.56893e-10
3.82106e-10
8.54631e-10
1.71311e-09
3.20371e-09
5.32788e-09
8.65226e-09
1.67686e-08
1.8054e-08
1.11264e-08
7.23859e-09
7.31676e-15
4.38198e-14
1.85008e-13
6.91399e-13
2.30509e-12
7.09692e-12
2.03198e-11
5.52657e-11
1.42219e-10
3.47938e-10
7.78207e-10
1.55258e-09
2.90268e-09
4.6439e-09
6.63658e-09
1.07544e-08
6.46237e-09
5.37715e-09
2.88145e-09
6.67363e-15
3.62442e-14
1.53214e-13
5.66563e-13
1.8906e-12
5.84644e-12
1.6823e-11
4.53514e-11
1.16879e-10
2.85878e-10
6.39297e-10
1.2675e-09
2.32929e-09
3.62306e-09
4.6758e-09
6.06874e-09
3.61782e-09
1.77026e-09
1.52721e-09
5.56946e-15
2.75217e-14
1.13403e-13
4.0476e-13
1.3583e-12
4.2028e-12
1.20914e-11
3.25256e-11
8.43193e-11
2.05762e-10
4.61009e-10
9.13516e-10
1.64953e-09
2.53376e-09
3.01079e-09
3.27596e-09
1.60656e-09
8.12832e-10
5.50099e-10
4.11737e-15
1.78634e-14
6.83061e-14
2.35479e-13
7.57298e-13
2.33047e-12
6.85638e-12
1.9031e-11
4.94975e-11
1.23736e-10
2.81782e-10
5.64315e-10
9.91874e-10
1.53036e-09
1.83167e-09
1.73646e-09
8.26175e-10
2.93645e-10
2.82748e-10
2.24263e-15
8.57434e-15
3.03428e-14
1.00498e-13
3.25179e-13
1.01915e-12
3.06702e-12
8.86783e-12
2.39307e-11
6.13704e-11
1.4374e-10
2.96851e-10
5.25751e-10
8.27721e-10
9.88953e-10
8.80078e-10
3.44766e-10
1.53782e-10
1.42662e-10
6.62016e-16
2.20595e-15
7.22144e-15
2.25834e-14
8.04447e-14
2.86718e-13
9.55064e-13
2.99757e-12
8.87996e-12
2.42565e-11
6.00669e-11
1.30976e-10
2.39625e-10
3.90145e-10
4.85617e-10
4.06449e-10
1.70634e-10
7.97667e-11
6.52546e-11
)
;

boundaryField
{
    leftWall
    {
        type            alphaContactAngle;
        contactAngleProperties 
        {
            mercury         
            {
                theta0          90;
            }
            air             
            {
                theta0          90;
            }
            water           
            {
                theta0          90;
            }
        }
        value           nonuniform List<scalar> 
50
(
1.93954e-15
9.49101e-16
7.08848e-16
6.71865e-16
1.43689e-12
2.41246e-10
2.12836e-09
6.1617e-09
8.56938e-09
6.08803e-09
1.66724e-09
0.0160645
0.416227
0.722854
0.80827
0.571305
0.0746216
1.46752e-06
7.49893e-07
8.97539e-07
8.06922e-07
9.04588e-07
2.75843e-07
4.92447e-08
3.53523e-08
3.19854e-08
2.58705e-08
1.79766e-08
1.115e-08
7.08713e-09
3.48401e-09
1.76868e-09
6.95183e-10
3.02189e-10
9.32396e-11
2.16385e-11
4.25659e-12
6.06498e-13
4.30163e-14
1.6319e-15
4.55434e-17
7.73146e-19
4.59782e-21
2.38894e-24
4.17621e-28
1.16276e-29
1.92896e-30
3.5101e-31
6.60592e-32
8.54698e-33
)
;
    }
    rightWall
    {
        type            alphaContactAngle;
        contactAngleProperties 
        {
            mercury         
            {
                theta0          90;
            }
            air             
            {
                theta0          90;
            }
            water           
            {
                theta0          90;
            }
        }
        value           nonuniform List<scalar> 
50
(
0.262039
0.434635
0.520283
0.520273
0.520251
0.450877
0.462534
0.716406
0.919137
0.962423
0.98417
0.99104
0.98265
0.969321
0.969321
0.969626
0.978877
0.997942
0.979697
0.96232
0.338402
-1.11253e-08
6.08839e-07
9.85924e-07
7.97944e-07
1.91723e-07
7.9815e-07
9.99377e-07
9.96934e-07
4.21842e-07
5.90279e-08
1.76618e-08
1.23759e-08
1.62932e-08
2.48957e-08
4.10397e-08
4.60905e-08
5.23051e-08
5.03956e-08
4.93956e-08
3.53336e-08
2.64952e-08
1.22856e-08
7.23859e-09
2.88145e-09
1.52721e-09
5.50099e-10
2.82748e-10
1.42662e-10
6.52546e-11
)
;
    }
    lowerWall
    {
        type            alphaContactAngle;
        contactAngleProperties 
        {
            mercury         
            {
                theta0          90;
            }
            air             
            {
                theta0          90;
            }
            water           
            {
                theta0          90;
            }
        }
        value           nonuniform List<scalar> 
62
(
1.93954e-15
1.20688e-14
5.07725e-14
1.61066e-13
3.78735e-13
7.85762e-13
1.53046e-12
3.24097e-12
6.51443e-12
1.25678e-11
2.40496e-11
4.64891e-11
9.03241e-11
1.72504e-10
3.15969e-10
5.40365e-10
9.32338e-10
1.30496e-09
5.24851e-09
2.13353e-06
0.000308924
0.000567867
0.000567833
0.000567833
0.0003379
2.34291e-08
2.38652e-08
4.34215e-08
7.64965e-08
1.42942e-07
1.38934e-05
0.000587552
0.00117187
0.00124341
0.00101431
0.104411
0.144654
0.728872
0.846657
0.159688
0.00018521
0.00725742
0.0151773
0.104411
0.101578
0.0408262
0.0296583
0.03494
0.306357
0.363146
0.374172
0.374172
0.366879
0.123652
0.0574163
0.086412
0.150403
0.207869
0.25881
0.260622
0.260747
0.262039
)
;
    }
    atmosphere
    {
        type            inletOutlet;
        inletValue      uniform 0;
        value           nonuniform List<scalar> 
46
(
0
0
0
0
0
0
0
0
0
0
0
0
0
0
0
0
0
0
0
0
0
0
0
0
0
0
0
0
0
0
0
0
0
0
2.99757e-12
8.87996e-12
2.42565e-11
6.00669e-11
1.30976e-10
2.39625e-10
3.90145e-10
4.85617e-10
4.06448e-10
1.70634e-10
7.97667e-11
6.52546e-11
)
;
    }
    defaultFaces
    {
        type            empty;
    }
}


// ************************************************************************* //
