/*--------------------------------*- C++ -*----------------------------------*\
  =========                 |
  \\      /  F ield         | OpenFOAM: The Open Source CFD Toolbox
   \\    /   O peration     | Website:  https://openfoam.org
    \\  /    A nd           | Version:  13
     \\/     M anipulation  |
\*---------------------------------------------------------------------------*/
FoamFile
{
    format      ascii;
    class       volScalarField;
    location    "1.7";
    object      alpha.mercury;
}
// * * * * * * * * * * * * * * * * * * * * * * * * * * * * * * * * * * * * * //

dimensions      [];

internalField   nonuniform List<scalar> 
2268
(
1
1
1
1
1
1
1
1
1
1
1
1
1
1
1
1
1
1
1
0.999998
0.999691
0.999432
0.999432
1
1
1
1
1
1
1
1
1
1
1
1
1
1
1
1
1
1
1
1
0.999982
0.999787
0.999662
1
1
1
1
1
1
1
1
1
1
1
1
1
1
1
1
1
1
1
1
1
1
1
1
1
1
1
1
1
1
1
1
1
1
1
1
1
1
1
1
1
1
1
1
1
1
0.902139
0.887401
0.891841
0.917041
0.951168
0.985974
1
1
1
1
1
1
1
1
1
1
1
1
1
1
1
1
1
0.119806
0.136277
0.156513
0.193418
0.251202
0.333762
0.456257
0.599613
0.735467
0.856306
0.956741
1
1
1
1
1
1
1
1
1
1
1
1
1.30716e-09
1.31247e-09
1.41615e-09
1.83026e-08
3.94497e-08
6.25013e-08
0.000426356
0.0124556
0.0501212
0.120055
0.22272
0.379956
0.580377
0.766911
0.914736
0.975244
0.983311
0.998042
0.999842
0.99947
0.998677
0.994015
0.987024
1.30129e-09
1.30734e-09
2.19953e-09
2.29083e-09
2.38929e-09
2.38184e-09
1.06888e-08
4.43152e-08
7.81335e-08
1.15414e-07
1.3891e-07
1.46354e-07
0.008169
0.0470509
0.110893
0.226331
0.42796
0.584383
0.644194
0.640832
0.621722
0.55715
0.504177
0.876508
0.876555
0.87652
0.876544
0.858259
0.605366
0.563206
0.563432
0.573766
0.571011
0.668617
0.70701
0.707637
0.707521
0.707447
0.707396
0.705588
0.704914
0.703972
0.850704
0.870756
0.844671
0.821983
0.837246
0.838114
0.835979
0.805319
0.77576
0.756631
0.752869
0.661514
0.628664
0.595002
0.560549
0.579459
0.615846
0.609169
0.52667
0.252568
0.341848
0.479889
0.432099
0.460032
0.657151
0.810423
0.817049
0.809217
0.754536
0.611951
0.478888
0.321498
0.273603
0.268046
0.257923
0.250585
0.286318
0.368986
0.0160375
0.0225923
0.104208
0.248452
0.197894
0.179539
0.248477
0.431656
0.46769
0.341762
0.226343
0.187613
0.231511
0.184118
0.142844
0.133512
0.119555
0.125612
0.121882
0.0429377
0.0246927
0.0324395
0.113923
0.126902
0.033303
0.00637193
0.0125158
0.0803182
0.198377
0.192905
0.177652
0.0954971
0.0559247
0.0459305
0.0655626
0.0915341
0.0705644
0.0491761
0.166737
0.0722521
0.0301726
0.0595022
0.113608
0.0720318
0.00551347
0.000451776
2.62613e-05
0.00605846
0.0349056
0.0196234
6.56935e-16
9.56525e-11
-2.6101e-16
0.000611502
0.00726284
0.00437856
0.00572398
0.283504
0.128645
0.0603102
0.0170948
0.0842253
0.101908
0.04546
0.000392064
2.27245e-05
1.74984e-06
1.37265e-06
1.01865e-06
6.90511e-07
9.82378e-10
3.36577e-05
3.89096e-05
9.6934e-05
0.00185874
0.0105621
0.27409
0.247803
0.091788
0.0148942
0.0457116
0.101556
0.0820813
0.00655354
6.25664e-05
0.000144126
0.000191571
8.45443e-05
9.42341e-06
4.10072e-05
0.000118857
6.18919e-05
7.02546e-05
0.00263363
0.0116967
1.3e-09
1.73693e-09
2.17117e-09
2.32022e-09
2.34715e-09
2.36063e-09
2.21066e-09
2.21941e-09
5.31887e-09
8.06881e-09
1.13459e-08
1.87771e-08
5.93689e-08
4.78661e-08
3.00733e-08
3.4803e-09
6.90619e-09
9.58523e-08
0.031142
0.0647521
0.071048
0.0529681
0.0421669
3.44558e-10
6.64656e-10
1.20053e-09
1.70068e-09
2.26854e-09
2.64739e-09
2.62066e-09
2.34605e-09
1.8507e-09
1.27498e-09
8.05276e-10
1.14361e-09
6.98186e-10
1.5888e-09
2.48569e-09
7.25387e-09
5.66117e-08
1.63718e-08
2.67075e-10
2.70314e-10
2.67075e-10
2.69457e-10
2.58585e-10
2.47727e-10
2.79683e-10
4.15638e-10
5.6957e-10
8.26604e-10
1.14984e-09
1.23462e-09
1.17041e-09
9.82173e-10
7.59251e-10
5.42008e-10
3.71092e-10
2.4215e-10
1.56041e-10
1.43132e-10
1.45545e-10
2.07667e-10
1.80344e-10
1.37945e-09
2.13756e-09
1.67838e-09
2.67075e-10
5.42739e-08
2.73651e-10
3.19016e-10
3.52727e-10
3.70344e-10
3.45686e-10
3.51923e-10
3.92018e-10
4.50617e-10
5.32424e-10
6.19927e-10
6.32186e-10
6.34789e-10
6.78332e-10
7.81679e-10
9.85723e-10
1.22972e-09
1.52163e-09
1.68679e-09
1.76681e-09
1.81678e-09
1.34379e-09
2.72477e-10
8.91923e-08
4.15601e-10
5.15659e-10
5.40191e-10
5.68371e-10
6.50376e-10
7.61332e-10
9.14796e-10
1.10427e-09
1.33716e-09
1.57491e-09
1.71327e-09
1.82351e-09
1.94467e-09
2.15077e-09
2.42634e-09
2.89956e-09
3.09092e-09
3.05225e-09
2.8486e-09
2.53471e-09
1.86941e-09
4.23234e-10
3.82205e-11
5.05768e-10
5.81047e-10
5.97655e-10
6.53678e-10
7.51771e-10
9.85571e-10
1.14711e-09
1.29911e-09
1.46129e-09
1.58066e-09
1.59388e-09
1.53092e-09
1.41671e-09
1.32963e-09
1.32715e-09
1.38653e-09
1.3176e-09
1.09505e-09
7.7049e-10
5.79397e-10
6.88268e-10
7.56831e-10
1.32368e-10
5.05934e-10
5.006e-10
3.8244e-10
3.70186e-10
3.79363e-10
4.06888e-10
3.9115e-10
3.58492e-10
3.30798e-10
2.99782e-10
2.5957e-10
2.16799e-10
1.81198e-10
1.45102e-10
1.1161e-10
8.44266e-11
6.67431e-11
5.25372e-11
4.67876e-11
4.76243e-11
7.13103e-11
1.81887e-10
2.08954e-10
5.05092e-10
5.24515e-10
3.72587e-10
2.08638e-10
1.5172e-10
1.09395e-10
7.94107e-11
5.98306e-11
4.59776e-11
3.65329e-11
3.16877e-11
2.66408e-11
2.38007e-11
2.1502e-11
1.9048e-11
1.69789e-11
1.55504e-11
1.47649e-11
1.37109e-11
1.19399e-11
9.42808e-12
8.3522e-12
9.61564e-12
4.18585e-10
4.88638e-10
4.60201e-10
2.83161e-10
1.66506e-10
1.35227e-10
1.03733e-10
8.12469e-11
6.03517e-11
3.4769e-11
2.56817e-11
1.49939e-11
1.06637e-11
8.95704e-12
8.28842e-12
7.58257e-12
6.55878e-12
5.4745e-12
4.3645e-12
3.40756e-12
3.08161e-12
2.79463e-12
3.17773e-12
2.31976e-10
3.27214e-10
4.42641e-10
3.76046e-10
2.61856e-10
2.41278e-10
2.21587e-10
1.72295e-10
1.261e-10
1.00713e-10
5.45325e-11
2.81291e-11
1.42541e-11
1.00199e-11
8.76966e-12
7.51715e-12
5.66674e-12
4.07481e-12
2.91208e-12
1.94998e-12
1.40588e-12
1.04319e-12
8.31883e-13
1.22887e-10
2.62424e-10
4.49057e-10
4.10181e-10
3.49182e-10
3.49817e-10
3.23074e-10
2.70055e-10
2.25609e-10
1.8046e-10
1.35306e-10
8.74167e-11
4.39144e-11
2.26539e-11
1.61288e-11
1.11112e-11
6.85286e-12
4.16544e-12
2.8668e-12
1.85294e-12
1.20971e-12
7.35509e-13
4.38218e-13
7.88782e-11
2.60502e-10
4.45905e-10
4.45508e-10
4.32911e-10
4.1342e-10
3.49582e-10
2.88018e-10
2.53941e-10
2.1858e-10
1.7651e-10
1.21465e-10
7.49491e-11
3.69327e-11
2.17696e-11
1.42844e-11
8.11565e-12
4.64164e-12
3.05074e-12
1.76042e-12
1.00434e-12
5.76444e-13
3.28023e-13
5.21022e-11
2.4096e-10
4.17075e-10
4.47477e-10
4.33283e-10
3.92452e-10
3.04827e-10
2.65497e-10
2.49588e-10
2.19172e-10
1.81609e-10
1.31033e-10
8.09759e-11
4.10934e-11
2.42387e-11
1.5406e-11
8.11927e-12
4.67619e-12
2.91017e-12
1.55305e-12
8.24767e-13
4.39972e-13
2.42535e-13
4.26398e-11
1.94192e-10
3.45913e-10
4.02334e-10
3.68238e-10
2.95816e-10
2.4562e-10
2.34279e-10
2.20405e-10
1.91364e-10
1.63026e-10
1.23801e-10
7.71189e-11
4.03825e-11
2.43371e-11
1.40235e-11
7.38868e-12
4.12304e-12
2.47167e-12
1.27577e-12
6.9504e-13
3.64617e-13
1.94578e-13
3.71513e-11
1.42443e-10
2.72618e-10
3.06113e-10
2.77235e-10
2.30485e-10
2.05615e-10
1.84616e-10
1.6028e-10
1.5001e-10
1.27386e-10
9.8183e-11
6.58169e-11
3.49919e-11
2.1539e-11
1.14363e-11
6.59737e-12
3.12819e-12
1.97558e-12
1.05313e-12
6.26421e-13
3.32204e-13
1.7428e-13
2.19756e-11
1.01079e-10
1.82837e-10
2.09588e-10
1.93384e-10
1.70682e-10
1.46023e-10
1.24769e-10
1.10443e-10
1.0079e-10
8.78024e-11
7.10294e-11
4.97093e-11
2.90073e-11
1.6219e-11
9.33875e-12
5.19029e-12
2.21e-12
1.47422e-12
8.86244e-13
5.56786e-13
2.93837e-13
1.77113e-13
1.62276e-11
5.90544e-11
1.0194e-10
1.24456e-10
1.20109e-10
1.10931e-10
9.47026e-11
8.07133e-11
6.87936e-11
5.50072e-11
4.55813e-11
3.95023e-11
2.84713e-11
1.9324e-11
1.06303e-11
6.4432e-12
3.24781e-12
1.76674e-12
1.19517e-12
7.20146e-13
4.69798e-13
2.71723e-13
1.70396e-13
1.11864e-11
3.4901e-11
5.43053e-11
5.96658e-11
6.99114e-11
6.63279e-11
5.86331e-11
4.85067e-11
3.40261e-11
2.57664e-11
1.9848e-11
1.67157e-11
1.42334e-11
1.10222e-11
5.83173e-12
3.48107e-12
2.12343e-12
1.5298e-12
9.60613e-13
5.73825e-13
3.86703e-13
2.40826e-13
1.60363e-13
7.23154e-12
2.17652e-11
3.24863e-11
3.78924e-11
4.32798e-11
4.2381e-11
3.65809e-11
2.86058e-11
2.05805e-11
1.45801e-11
9.94129e-12
8.34103e-12
7.22032e-12
5.47987e-12
3.38762e-12
2.3805e-12
1.65058e-12
1.23838e-12
7.77046e-13
4.64755e-13
3.22675e-13
2.11027e-13
1.45724e-13
4.23635e-12
1.22045e-11
1.91488e-11
2.28257e-11
2.54084e-11
2.51585e-11
2.42198e-11
2.00096e-11
1.4464e-11
9.45202e-12
6.60494e-12
4.656e-12
3.34176e-12
2.55511e-12
2.12181e-12
1.55159e-12
1.20445e-12
9.01261e-13
6.03317e-13
3.63657e-13
2.61269e-13
1.80963e-13
1.28932e-13
2.2749e-12
6.94754e-12
1.10034e-11
1.31192e-11
1.4868e-11
1.59822e-11
1.53541e-11
1.31931e-11
9.89045e-12
6.54424e-12
4.14599e-12
2.55774e-12
1.79568e-12
1.47027e-12
1.22061e-12
9.46451e-13
7.56823e-13
5.96518e-13
4.26982e-13
2.7347e-13
1.9498e-13
1.45414e-13
1.07207e-13
1.21102e-12
3.4529e-12
5.27336e-12
6.68741e-12
7.69223e-12
8.57537e-12
8.90137e-12
8.21422e-12
6.77928e-12
4.79283e-12
2.8946e-12
1.63244e-12
1.06983e-12
7.9436e-13
6.38416e-13
5.13904e-13
4.20887e-13
3.59172e-13
2.8557e-13
1.861e-13
1.32245e-13
1.04279e-13
8.12272e-14
5.13034e-13
1.45406e-12
2.38945e-12
2.9563e-12
3.52684e-12
4.03812e-12
4.496e-12
4.58686e-12
4.16616e-12
3.17879e-12
2.10723e-12
1.07459e-12
6.40733e-13
4.2563e-13
3.27193e-13
2.65796e-13
2.25047e-13
1.91439e-13
1.54687e-13
1.07789e-13
8.41522e-14
6.60947e-14
5.24072e-14
2.17812e-13
5.76737e-13
9.18201e-13
1.14089e-12
1.32039e-12
1.73797e-12
1.8895e-12
2.12456e-12
2.22823e-12
1.8723e-12
1.28874e-12
7.3921e-13
3.70067e-13
2.27791e-13
1.58858e-13
1.21215e-13
1.02639e-13
8.90857e-14
7.38515e-14
5.87095e-14
4.765e-14
3.7615e-14
3.00263e-14
7.14982e-14
2.12908e-13
3.07878e-13
3.66749e-13
4.18356e-13
5.77103e-13
7.26394e-13
7.92971e-13
1.02299e-12
1.00794e-12
7.24843e-13
4.70174e-13
2.41053e-13
1.24942e-13
7.52957e-14
5.3815e-14
4.26869e-14
3.66106e-14
3.15955e-14
2.72989e-14
2.3226e-14
1.83783e-14
1.44984e-14
2.63057e-14
6.73516e-14
9.46788e-14
1.04809e-13
1.18159e-13
1.71498e-13
2.21935e-13
2.6554e-13
3.31921e-13
4.41564e-13
3.44311e-13
2.38334e-13
1.48199e-13
6.99243e-14
3.59973e-14
2.32272e-14
1.70769e-14
1.43484e-14
1.25157e-14
1.0948e-14
9.32373e-15
7.81783e-15
6.29239e-15
6.96836e-15
1.74984e-14
2.45057e-14
2.72975e-14
3.1239e-14
4.81181e-14
6.37452e-14
8.16473e-14
1.01971e-13
1.42416e-13
1.37005e-13
1.03353e-13
6.62597e-14
3.63764e-14
1.68037e-14
9.85686e-15
6.67576e-15
5.35513e-15
4.62881e-15
4.02924e-15
3.50034e-15
2.93873e-15
2.47109e-15
1.38465e-15
3.73633e-15
5.31087e-15
5.94217e-15
7.02849e-15
1.16505e-14
1.65839e-14
2.14521e-14
2.75298e-14
4.00343e-14
4.24088e-14
3.53999e-14
2.53524e-14
1.54475e-14
7.13075e-15
3.60789e-15
2.34557e-15
1.86846e-15
1.54489e-15
1.35739e-15
1.13519e-15
9.36403e-16
8.14033e-16
2.39368e-16
6.46222e-16
9.31493e-16
1.0539e-15
1.30826e-15
2.29085e-15
3.70321e-15
4.90286e-15
6.58238e-15
9.89024e-15
1.10731e-14
9.69893e-15
7.34e-15
5.05415e-15
2.63862e-15
1.2094e-15
7.35645e-16
5.52298e-16
4.63776e-16
4.07812e-16
3.38413e-16
2.74634e-16
2.34769e-16
3.0424e-17
8.6796e-17
1.25481e-16
1.45594e-16
1.89828e-16
3.53099e-16
6.53463e-16
9.40133e-16
1.3209e-15
2.01074e-15
2.419e-15
2.18724e-15
1.73765e-15
1.21586e-15
7.142e-16
3.20644e-16
1.97916e-16
1.44568e-16
1.22073e-16
1.08802e-16
9.0354e-17
6.7712e-17
5.69607e-17
1.97583e-18
7.1794e-18
1.21003e-17
1.45537e-17
1.9917e-17
4.13059e-17
9.09405e-17
1.49991e-16
2.29916e-16
3.61689e-16
4.28851e-16
3.90321e-16
3.23742e-16
2.42153e-16
1.3629e-16
6.88693e-17
4.65432e-17
3.31274e-17
2.76347e-17
2.45718e-17
2.16118e-17
1.52585e-17
1.12558e-17
6.80602e-20
4.3564e-19
6.40952e-19
8.26022e-19
1.41105e-18
3.48333e-18
9.65819e-18
1.91929e-17
3.26112e-17
5.24835e-17
6.05129e-17
5.5375e-17
4.87336e-17
3.59275e-17
1.96307e-17
1.13459e-17
8.05322e-18
6.2361e-18
5.16469e-18
4.72467e-18
4.05219e-18
2.46459e-18
1.98415e-18
1.71872e-21
1.36693e-20
1.92291e-20
2.8749e-20
6.71699e-20
2.30448e-19
6.98908e-19
1.83185e-18
3.60401e-18
5.52396e-18
6.26817e-18
6.27564e-18
5.67583e-18
4.12744e-18
2.47917e-18
1.56901e-18
1.26012e-18
9.99625e-19
8.23536e-19
7.43006e-19
6.12409e-19
4.27146e-19
2.69728e-19
2.76602e-23
1.70341e-22
2.63405e-22
5.65531e-22
2.71122e-21
1.29604e-20
4.64303e-20
1.34005e-19
3.39097e-19
5.127e-19
5.94611e-19
6.03326e-19
5.39423e-19
3.87041e-19
2.52444e-19
1.93316e-19
1.56742e-19
1.30866e-19
1.12929e-19
1.0173e-19
8.14069e-20
5.1332e-20
3.07592e-20
1.60747e-25
6.71563e-25
1.72702e-24
1.23577e-23
1.08256e-22
5.92329e-22
2.4886e-21
8.67275e-21
2.5549e-20
4.01088e-20
4.72532e-20
4.80915e-20
4.25499e-20
3.17199e-20
2.42072e-20
2.08874e-20
1.86336e-20
1.65238e-20
1.43806e-20
1.22388e-20
8.84036e-21
5.46302e-21
2.89825e-21
1.08897e-28
3.98071e-28
1.64736e-26
3.36737e-25
3.68105e-24
2.56941e-23
1.30031e-22
5.12226e-22
1.729e-21
2.79465e-21
3.27223e-21
3.28841e-21
2.91533e-21
2.40533e-21
2.15132e-21
2.02643e-21
1.91059e-21
1.6604e-21
1.48434e-21
1.17147e-21
7.99578e-22
4.4324e-22
2.51816e-22
4.93319e-31
2.2848e-30
3.56262e-28
9.32285e-27
1.19916e-25
1.0217e-24
5.8753e-24
2.54002e-23
9.58353e-23
1.6181e-22
1.90521e-22
1.93081e-22
1.82069e-22
1.76995e-22
1.75064e-22
1.75698e-22
1.70847e-22
1.54982e-22
1.29736e-22
9.3826e-23
5.44887e-23
3.24142e-23
9.79293e-24
7.92725e-33
3.76389e-32
7.19511e-30
2.33575e-28
3.63791e-27
3.40879e-26
2.25713e-25
1.07294e-24
4.53245e-24
7.92568e-24
9.53264e-24
1.02391e-23
1.10255e-23
1.21474e-23
1.30683e-23
1.35587e-23
1.33637e-23
1.19614e-23
9.49953e-24
6.33674e-24
3.84303e-24
1.17097e-24
1.3504e-25
1.08374e-34
5.20484e-34
1.22343e-31
5.21509e-30
9.17695e-29
9.6992e-28
7.82618e-27
4.00032e-26
1.80159e-25
3.2444e-25
4.1319e-25
5.16008e-25
6.26274e-25
7.44923e-25
8.5004e-25
9.19034e-25
9.31539e-25
8.39535e-25
6.18277e-25
4.01208e-25
1.41966e-25
1.69121e-26
1.87531e-27
7.12166e-37
5.44145e-36
1.82121e-33
1.10798e-31
2.11776e-30
2.60923e-29
2.58732e-28
1.51447e-27
7.26803e-27
1.30167e-26
1.81799e-26
2.55677e-26
3.50285e-26
4.52825e-26
5.40007e-26
6.02857e-26
6.14951e-26
5.52245e-26
3.67316e-26
1.49398e-26
2.74387e-27
3.10372e-28
3.95524e-28
-5.9111e-38
1.59562e-39
2.45101e-35
2.25951e-33
4.72335e-32
6.45364e-31
7.63373e-30
4.72357e-29
2.37146e-28
4.50858e-28
7.12279e-28
1.15914e-27
1.74021e-27
2.40917e-27
3.01877e-27
3.51449e-27
3.57761e-27
3.05653e-27
1.71387e-27
5.01474e-28
6.47249e-29
4.2145e-29
2.05275e-28
-4.868e-39
5.53553e-41
3.04193e-37
4.15161e-35
9.63347e-34
1.50122e-32
2.0742e-31
1.43683e-30
6.80403e-30
1.35195e-29
2.42055e-29
4.47363e-29
7.36945e-29
1.11918e-28
1.6067e-28
1.90404e-28
1.88848e-28
1.50014e-28
6.81239e-29
1.4915e-29
3.67007e-30
1.23626e-29
8.90526e-29
0.166857
0.156592
0.075057
0.133091
3.5883e-08
3.47933e-10
7.41707e-16
-1.67248e-10
1.08304e-07
6.61259e-08
6.6276e-10
1.06288e-07
1.14791e-07
1.00786e-07
3.39788e-10
1.57982e-07
2.56198e-08
3.31714e-08
2.06153e-08
7.51041e-09
2.55512e-11
2.74593e-11
1.1043e-08
7.79861e-09
1.36795e-10
3.74928e-11
2.45385e-11
2.446e-11
1.5166e-11
2.41005e-11
2.3924e-11
2.47338e-11
3.60352e-12
5.11482e-12
7.82132e-12
1.0757e-11
9.49767e-13
1.57847e-12
1.8953e-12
1.58228e-12
3.84935e-13
3.67978e-13
3.65484e-13
3.61725e-13
2.6292e-13
2.21239e-13
1.96801e-13
1.83709e-13
1.70715e-13
1.34064e-13
1.32446e-13
1.43708e-13
1.19384e-13
1.06883e-13
1.53509e-13
3.6613e-13
1.08033e-13
1.15931e-13
3.7352e-13
1.39198e-12
1.06563e-13
9.70001e-14
2.33455e-13
1.99656e-12
1.07279e-13
8.97108e-14
8.20463e-14
2.14058e-13
1.04054e-13
8.75097e-14
7.48758e-14
5.9728e-14
9.82499e-14
8.19607e-14
7.02858e-14
5.89717e-14
8.94512e-14
7.42928e-14
6.3187e-14
5.87027e-14
7.71907e-14
6.42552e-14
5.47108e-14
4.76365e-14
6.1983e-14
5.28806e-14
4.48392e-14
3.88458e-14
4.06538e-14
3.56532e-14
3.18752e-14
2.82998e-14
2.35147e-14
2.1101e-14
1.87334e-14
1.68795e-14
1.08332e-14
9.72359e-15
8.96672e-15
8.1766e-15
4.56726e-15
3.99109e-15
3.64501e-15
3.26135e-15
1.74526e-15
1.44937e-15
1.31294e-15
1.14643e-15
5.67922e-16
4.57594e-16
4.07993e-16
3.37409e-16
1.69437e-16
1.30002e-16
1.11387e-16
8.57684e-17
4.08352e-17
3.15131e-17
2.55488e-17
1.79793e-17
8.26758e-18
6.00383e-18
4.6967e-18
3.19445e-18
1.47063e-18
9.64326e-19
7.25486e-19
4.68386e-19
1.96974e-19
1.33088e-19
8.52035e-20
5.38638e-20
2.13029e-20
1.2973e-20
8.23256e-21
5.49655e-21
1.91949e-21
1.3469e-21
6.2708e-22
1.14351e-22
9.84168e-23
2.48163e-23
3.45372e-24
1.4784e-25
3.95388e-25
6.78488e-27
7.75043e-27
1.80181e-26
1.36763e-27
2.75198e-27
6.74805e-27
1.89115e-26
1.35819e-27
2.30972e-27
6.5909e-27
2.0755e-26
7.04432e-28
2.05486e-27
7.05976e-27
2.20385e-26
4.88431e-28
1.81706e-27
6.37573e-27
1.93429e-26
3.37125e-28
1.14781e-27
3.66288e-27
9.85266e-27
0.178635
0.113237
0.0568423
0.00308365
0.0295186
0.079754
0.0859734
0.0205678
0.000101418
0.000100901
0.000151413
9.97689e-05
5.30041e-05
1.79419e-05
9.9451e-07
0.000261703
7.98639e-05
0.00173117
0.00980741
6.59333e-16
-8.86898e-10
0.000374191
0.00263223
0.0013031
0.00899967
0.048271
0.032704
0.000766039
1.49367e-05
3.49967e-05
2.65263e-05
1.38439e-05
5.88096e-06
7.15103e-07
0.000370635
0.000359123
0.000151348
0.00301806
1.9371e-07
-5.93481e-10
0.00133898
0.00273681
0.00110593
8.33117e-05
0.00317666
0.0112611
0.00457905
2.7495e-06
2.82107e-06
2.94571e-06
4.29045e-06
1.40985e-06
7.04161e-07
0.000184107
0.00033966
4.46677e-05
0.000889901
4.81273e-07
3.44126e-07
1.42496e-08
0.000410674
0.000512657
8.91508e-05
1.61086e-06
0.000629737
0.00185355
0.001303
0.00039154
1.32211e-06
5.32091e-09
3.99404e-07
1.04283e-06
1.16647e-06
0.00012028
7.39404e-06
0.000262369
3.00835e-07
2.70834e-07
1.9097e-08
8.17524e-10
1.09483e-06
4.26679e-06
4.25443e-07
5.02485e-08
0.000123206
0.000737292
0.000433519
4.66015e-06
4.86788e-09
3.9736e-07
1.04673e-06
6.41046e-08
6.84704e-12
2.49863e-07
0.000355769
1.53812e-11
1.66605e-11
7.41367e-10
7.99349e-10
1.38087e-10
1.57255e-10
5.6218e-09
1.39099e-08
1.33225e-08
7.49194e-06
8.33967e-05
1.82712e-05
5.02325e-09
1.26078e-07
2.91722e-07
2.79555e-08
5.83654e-12
3.32496e-07
0.000601689
2.56464e-11
3.842e-11
2.0769e-10
5.42702e-10
3.85074e-10
1.74511e-10
1.59074e-08
2.50763e-08
1.98549e-08
-4.15583e-13
8.14217e-09
9.86262e-06
1.33196e-06
-1.43306e-12
5.89203e-13
4.16727e-10
7.07644e-10
3.92213e-06
0.000600647
2.94881e-11
7.86205e-11
1.40993e-10
2.14342e-10
2.3341e-10
1.08546e-10
5.2928e-09
1.45776e-08
1.352e-08
1.38869e-11
1.47005e-07
9.76459e-07
1.4666e-06
2.1584e-08
2.76418e-11
4.34193e-09
5.08562e-07
5.72587e-06
0.000349493
1.14591e-11
9.8501e-12
1.38907e-11
3.07296e-11
8.82013e-11
1.04752e-10
2.03384e-10
9.83796e-10
3.19095e-09
2.64863e-09
2.6714e-07
4.96776e-07
3.62939e-07
4.32506e-08
5.67311e-10
2.85867e-07
1.1254e-06
9.75593e-07
9.56756e-07
1.13592e-12
1.13826e-12
1.62186e-12
2.64585e-12
7.52533e-12
3.09042e-11
1.55574e-11
1.09418e-11
1.16815e-11
9.42108e-09
6.1809e-08
7.28356e-10
3.52693e-10
5.61213e-09
1.69308e-07
8.11156e-07
9.22686e-07
7.83246e-05
0.000271168
3.17909e-13
2.69075e-13
2.74689e-13
4.01495e-13
9.31541e-13
4.48387e-12
6.3929e-12
1.10368e-11
8.83197e-11
9.51757e-10
2.94476e-12
3.09123e-12
2.94523e-12
1.98945e-07
1.03046e-06
2.16168e-06
9.50401e-07
0.000695933
0.00564189
1.72456e-13
1.63137e-13
1.62894e-13
1.70296e-13
2.02363e-13
4.198e-13
7.3082e-13
3.99571e-12
1.92895e-11
1.6099e-10
1.71492e-11
1.34662e-10
9.06465e-10
8.9064e-09
1.82411e-10
7.66237e-05
0.000274948
0.00188829
0.00566199
1.5488e-13
1.90043e-13
2.26108e-13
2.28107e-13
2.8515e-13
4.717e-13
8.56048e-13
1.94023e-12
4.13906e-12
1.56795e-11
1.57781e-11
7.73461e-11
1.44302e-10
3.37148e-13
1.20831e-11
1.07275e-10
0.000261255
0.00325778
0.00539975
6.82648e-13
1.79819e-12
4.07997e-12
5.42361e-12
5.44036e-12
2.10183e-12
7.9906e-14
8.99425e-25
7.98612e-14
7.5684e-13
1.31099e-11
2.10228e-11
7.90186e-09
5.99592e-07
3.02567e-06
9.37609e-06
0.000235923
0.000617231
0.000153194
3.88782e-12
1.08812e-11
3.01342e-11
5.85634e-11
8.80666e-11
1.39901e-10
3.92505e-10
9.10449e-10
2.12004e-10
1.99503e-13
5.82499e-13
1.07662e-07
3.349e-06
8.08504e-06
9.03536e-06
1.72653e-05
3.34588e-05
3.04082e-08
4.41158e-08
8.68016e-12
2.89764e-11
8.6829e-11
2.61677e-10
7.09591e-10
1.62912e-09
3.60192e-09
6.90972e-09
8.83605e-09
6.7051e-09
1.13163e-08
4.6304e-07
4.07068e-06
4.2492e-06
2.49463e-06
4.73299e-06
8.40996e-06
2.92823e-06
4.54819e-08
1.02415e-11
3.68764e-11
1.06001e-10
3.10723e-10
7.94749e-10
1.91802e-09
3.99593e-09
7.51352e-09
1.51381e-08
3.08987e-08
8.28686e-08
5.4766e-07
6.59079e-07
6.14607e-07
1.46706e-08
-3.72806e-13
3.21013e-12
-2.21572e-10
4.60462e-09
3.36423e-12
1.53306e-11
4.98437e-11
1.49247e-10
4.27378e-10
1.13124e-09
2.38232e-09
4.2217e-09
8.64883e-09
2.17044e-08
5.60809e-08
4.00911e-08
1.46499e-11
4.71602e-12
1.09299e-11
2.96957e-11
3.23292e-11
6.89979e-09
1.96286e-09
4.24491e-13
4.39282e-12
1.63491e-11
4.81255e-11
1.58591e-10
4.47997e-10
1.004e-09
1.8397e-09
3.24486e-09
3.46712e-09
8.76201e-10
1.83274e-10
5.02475e-12
9.94162e-12
2.97648e-11
7.44166e-11
2.24207e-10
5.2534e-09
8.15829e-10
6.07668e-14
4.92777e-13
3.5268e-12
1.19597e-11
3.90792e-11
1.2832e-10
3.04104e-10
5.87353e-10
9.17482e-10
9.73043e-10
2.14293e-10
1.69123e-11
5.15008e-12
1.04823e-11
2.48455e-11
5.87761e-11
1.66349e-10
8.71952e-10
3.12973e-10
4.20907e-14
3.6614e-14
3.4551e-13
2.13605e-12
9.22202e-12
2.81488e-11
7.19354e-11
1.47255e-10
2.27751e-10
2.39512e-10
8.67376e-11
1.18981e-11
3.22804e-12
6.52395e-12
1.38424e-11
2.98928e-11
6.91451e-11
1.51851e-10
9.96002e-11
3.34139e-14
2.3778e-14
2.27992e-14
2.21816e-13
1.44268e-12
5.09898e-12
1.40212e-11
3.07715e-11
5.09088e-11
5.85254e-11
2.80275e-11
5.39181e-12
1.45762e-12
2.78168e-12
5.26739e-12
1.03011e-11
1.69394e-11
2.46989e-11
2.76572e-11
2.43729e-14
1.70529e-14
1.29118e-14
2.55149e-14
1.5874e-13
7.10372e-13
2.23488e-12
5.38198e-12
9.78804e-12
1.26823e-11
8.03811e-12
1.71875e-12
4.68515e-13
8.51702e-13
1.56549e-12
2.66561e-12
4.18632e-12
4.87006e-12
3.94456e-12
1.49677e-14
1.09129e-14
7.90489e-15
7.1855e-15
1.85757e-14
7.4792e-14
2.80579e-13
7.63963e-13
1.55481e-12
2.25904e-12
1.8751e-12
4.35043e-13
1.10894e-13
1.96758e-13
3.24542e-13
5.39221e-13
5.95207e-13
5.49087e-13
5.28817e-13
7.34693e-15
5.52315e-15
4.11284e-15
3.13133e-15
3.12302e-15
7.58367e-15
2.7593e-14
8.58638e-14
1.97337e-13
3.21914e-13
3.23712e-13
8.74368e-14
2.00616e-14
3.49963e-14
5.74358e-14
8.07833e-14
7.08198e-14
6.30287e-14
2.54697e-14
2.94805e-15
2.23324e-15
1.73096e-15
1.33368e-15
9.7572e-16
1.06333e-15
2.43164e-15
7.54465e-15
1.93165e-14
3.57606e-14
4.17546e-14
1.39949e-14
2.89401e-15
5.00797e-15
7.57421e-15
6.83616e-15
1.23216e-15
9.91821e-16
2.68982e-15
1.01383e-15
7.43487e-16
5.49078e-16
4.1688e-16
3.25281e-16
2.67791e-16
2.8384e-16
5.79783e-16
1.50062e-15
3.11977e-15
4.24733e-15
1.81405e-15
3.70433e-16
5.77978e-16
5.40953e-16
1.89475e-16
2.61815e-16
2.83078e-16
2.03265e-16
2.8993e-16
1.96421e-16
1.33647e-16
1.02325e-16
8.26635e-17
7.15899e-17
5.56265e-17
5.5232e-17
1.0381e-16
2.23491e-16
3.48408e-16
1.89071e-16
4.75419e-17
7.25181e-17
3.92626e-17
8.15916e-17
1.36641e-16
1.46812e-16
9.95479e-17
6.90374e-17
4.26974e-17
2.69642e-17
1.71958e-17
1.39902e-17
1.34799e-17
1.1511e-17
7.71775e-18
7.60602e-18
1.37336e-17
2.3047e-17
1.59456e-17
6.83119e-18
1.31154e-17
1.5428e-17
3.65808e-17
6.58954e-17
7.72798e-17
4.86675e-17
1.31004e-17
7.8524e-18
3.86607e-18
1.94639e-18
1.19827e-18
1.46012e-18
1.56599e-18
1.01148e-18
6.18974e-19
7.46745e-19
1.21908e-18
7.70282e-19
8.62598e-19
3.04089e-18
5.92401e-18
1.50453e-17
3.08079e-17
4.24302e-17
2.26114e-17
2.04767e-18
9.98605e-19
4.67983e-19
1.0856e-19
4.25134e-20
6.93832e-20
1.25518e-19
9.35833e-20
5.39337e-20
5.27011e-20
6.21995e-20
9.71949e-20
2.40727e-19
7.39635e-19
2.29494e-18
6.22291e-18
1.43034e-17
2.62861e-17
1.28064e-17
2.3997e-19
1.0834e-19
2.16747e-20
1.36556e-21
7.23946e-22
2.7564e-21
6.39682e-21
8.30679e-21
1.16286e-20
2.19266e-20
4.31409e-20
8.67314e-20
1.78874e-19
4.02688e-19
1.08987e-18
2.60067e-18
6.59432e-18
1.34884e-17
8.79661e-18
2.48816e-20
3.96687e-21
1.82085e-22
1.02517e-22
2.48135e-22
6.82159e-22
1.80519e-21
4.26287e-21
9.58176e-21
2.09008e-20
4.36103e-20
8.63809e-20
1.67199e-19
3.21238e-19
6.60314e-19
1.45157e-18
3.87007e-18
7.64541e-18
4.49433e-18
1.34102e-21
4.38851e-23
2.22077e-23
6.475e-23
1.99006e-22
5.66244e-22
1.52067e-21
3.85003e-21
9.23503e-21
2.09702e-20
4.45011e-20
8.75306e-20
1.62065e-19
2.81277e-19
4.844e-19
1.1156e-18
2.66531e-18
3.48661e-18
2.58858e-18
7.24243e-24
3.92604e-24
1.56319e-23
5.47203e-23
1.70917e-22
5.04651e-22
1.38477e-21
3.59957e-21
8.8038e-21
2.02393e-20
4.33109e-20
8.52346e-20
1.50132e-19
2.45769e-19
4.30234e-19
8.5749e-19
1.48982e-18
1.92676e-18
1.11225e-18
4.64836e-25
2.90361e-24
1.25408e-23
4.47651e-23
1.46417e-22
4.38601e-22
1.22986e-21
3.24459e-21
8.02355e-21
1.85521e-20
4.0094e-20
7.8437e-20
1.35171e-19
2.22279e-19
3.65667e-19
6.24559e-19
9.21403e-19
8.51595e-19
5.66577e-19
3.96511e-25
2.36435e-24
9.88162e-24
3.64616e-23
1.19811e-22
3.63063e-22
1.02089e-21
2.71114e-21
6.73429e-21
1.57071e-20
3.39266e-20
6.60623e-20
1.13807e-19
1.84362e-19
2.83231e-19
4.2468e-19
4.71506e-19
4.43158e-19
2.14621e-19
3.45133e-25
1.85245e-24
7.6891e-24
2.786e-23
9.10207e-23
2.75783e-22
7.76368e-22
2.03793e-21
5.07477e-21
1.18768e-20
2.56561e-20
4.98117e-20
8.60033e-20
1.36897e-19
1.9687e-19
2.61503e-19
2.66382e-19
1.83826e-19
1.009e-19
2.73712e-25
1.32731e-24
5.33278e-24
1.85215e-23
6.05758e-23
1.82778e-22
5.11582e-22
1.33552e-21
3.34664e-21
7.83271e-21
1.69469e-20
3.29968e-20
5.74102e-20
9.01916e-20
1.19722e-19
1.46988e-19
1.20697e-19
8.61777e-20
3.42625e-20
1.93414e-25
8.15992e-25
3.01702e-24
1.00526e-23
3.13538e-23
9.37187e-23
2.67664e-22
7.19069e-22
1.80412e-21
4.33767e-21
9.52655e-21
1.87024e-20
3.24311e-20
5.07515e-20
6.54841e-20
7.50701e-20
5.56602e-20
2.96296e-20
1.70464e-20
1.01472e-25
3.75233e-25
1.27972e-24
4.07873e-24
1.27359e-23
3.85359e-23
1.12129e-22
3.12384e-22
8.11489e-22
1.99884e-21
4.50578e-21
9.077e-21
1.6017e-20
2.52513e-20
3.11801e-20
3.47687e-20
1.88923e-20
1.30788e-20
8.5017e-21
2.95258e-26
9.49973e-26
2.98789e-25
8.94733e-25
3.0574e-24
1.04513e-23
3.34797e-23
1.00736e-22
2.85541e-22
7.45642e-22
1.76862e-21
3.73306e-21
6.78933e-21
1.09201e-20
1.35107e-20
1.4125e-20
7.71816e-21
5.59857e-21
3.86436e-21
)
;

boundaryField
{
    leftWall
    {
        type            alphaContactAngle;
        contactAngleProperties 
        {
            air             
            {
                theta0          90;
            }
            water           
            {
                theta0          90;
            }
            oil             
            {
                theta0          90;
            }
        }
        value           nonuniform List<scalar> 
50
(
1
1
1
1
0.902139
0.119806
1.30716e-09
1.30129e-09
1.3e-09
3.44558e-10
2.47727e-10
2.73651e-10
4.15601e-10
5.05768e-10
5.05934e-10
5.05092e-10
4.18585e-10
2.31976e-10
1.22887e-10
7.88782e-11
5.21022e-11
4.26398e-11
3.71513e-11
2.19756e-11
1.62276e-11
1.11864e-11
7.23154e-12
4.23635e-12
2.2749e-12
1.21102e-12
5.13034e-13
2.17812e-13
7.14982e-14
2.63057e-14
6.96836e-15
1.38465e-15
2.39368e-16
3.0424e-17
1.97583e-18
6.80602e-20
1.71872e-21
2.76602e-23
1.60747e-25
1.08897e-28
4.93319e-31
7.92725e-33
1.08374e-34
7.12166e-37
-5.9111e-38
-4.868e-39
)
;
    }
    rightWall
    {
        type            alphaContactAngle;
        contactAngleProperties 
        {
            air             
            {
                theta0          90;
            }
            water           
            {
                theta0          90;
            }
            oil             
            {
                theta0          90;
            }
        }
        value           nonuniform List<scalar> 
50
(
0.703972
0.52667
0.368986
0.121882
0.0491761
0.00572398
0.0105621
0.0116967
0.00980741
0.00301806
0.000889901
0.000262369
0.000355769
0.000601689
0.000600647
0.000349493
9.56756e-07
0.000271168
0.00564189
0.00566199
0.00539975
0.000153194
4.41158e-08
4.54819e-08
4.60462e-09
1.96286e-09
8.15829e-10
3.12973e-10
9.96002e-11
2.76572e-11
3.94456e-12
5.28817e-13
2.54697e-14
2.68982e-15
2.03265e-16
9.95479e-17
4.86675e-17
2.26114e-17
1.28064e-17
8.79661e-18
4.49433e-18
2.58858e-18
1.11225e-18
5.66577e-19
2.14621e-19
1.009e-19
3.42625e-20
1.70464e-20
8.5017e-21
3.86436e-21
)
;
    }
    lowerWall
    {
        type            alphaContactAngle;
        contactAngleProperties 
        {
            air             
            {
                theta0          90;
            }
            water           
            {
                theta0          90;
            }
            oil             
            {
                theta0          90;
            }
        }
        value           nonuniform List<scalar> 
62
(
1
1
1
1
1
1
1
1
1
1
1
1
1
1
1
1
1
1
1
0.999998
0.999691
0.999432
0.999432
0.999432
0.999662
1
1
1
1
0.987024
0.504177
0.166857
0.156592
0.075057
0.133091
0.876508
0.850704
0.252568
0.0160375
0.0429377
0.166737
0.283504
0.27409
0.876508
0.876555
0.87652
0.876544
0.858259
0.605366
0.563206
0.563432
0.573766
0.571011
0.668617
0.70701
0.707637
0.707521
0.707447
0.707396
0.705588
0.704914
0.703972
)
;
    }
    atmosphere
    {
        type            inletOutlet;
        inletValue      uniform 0;
        value           nonuniform List<scalar> 
46
(
0
0
0
0
0
0
0
0
0
0
0
0
0
0
0
0
0
0
0
0
0
0
0
0
0
0
0
0
0
0
0
0
0
0
1.00736e-22
2.85541e-22
7.45642e-22
1.76862e-21
3.73306e-21
6.78933e-21
1.09201e-20
1.35107e-20
1.4125e-20
7.71816e-21
5.59857e-21
3.86436e-21
)
;
    }
    defaultFaces
    {
        type            empty;
    }
}


// ************************************************************************* //
