/*--------------------------------*- C++ -*----------------------------------*\
  =========                 |
  \\      /  F ield         | OpenFOAM: The Open Source CFD Toolbox
   \\    /   O peration     | Website:  https://openfoam.org
    \\  /    A nd           | Version:  13
     \\/     M anipulation  |
\*---------------------------------------------------------------------------*/
FoamFile
{
    format      ascii;
    class       volScalarField;
    location    "1.7";
    object      k;
}
// * * * * * * * * * * * * * * * * * * * * * * * * * * * * * * * * * * * * * //

dimensions      [0 2 -2 0 0 0 0];

internalField   nonuniform List<scalar> 
2268
(
0.00120811
0.00323605
0.00497766
0.00650394
0.00785211
0.00902994
0.0100441
0.0109088
0.0116421
0.0122616
0.0127786
0.0131996
0.0135324
0.0137745
0.0139098
0.0139341
0.0138557
0.013544
0.012859
0.0116492
0.0097079
0.0067891
0.0033381
0.00260045
0.00738248
0.0112154
0.014551
0.0174659
0.0199894
0.022147
0.0239737
0.0255096
0.0267949
0.0278582
0.0287185
0.0293976
0.0299057
0.0302291
0.0303425
0.0302136
0.0296979
0.0285327
0.0263509
0.0225974
0.0165008
0.00737213
0.00352101
0.00985726
0.0147668
0.0190321
0.0227466
0.0259542
0.0286974
0.0310243
0.0329847
0.0346243
0.0359779
0.037073
0.0379387
0.0385972
0.0390536
0.0393024
0.0393136
0.0389275
0.0378318
0.0355547
0.0313222
0.0238456
0.0106953
0.00437359
0.0119193
0.017646
0.0225817
0.0268565
0.0305341
0.0336756
0.036343
0.0385966
0.0404885
0.0420595
0.0433426
0.0443744
0.0451899
0.045813
0.0462583
0.046506
0.0463982
0.0456088
0.0436184
0.0394962
0.0313954
0.0146154
0.00527113
0.0138651
0.0203005
0.0257989
0.0305285
0.0345789
0.0380322
0.0409653
0.0434498
0.0455471
0.0473063
0.0487651
0.0499662
0.0509575
0.0517785
0.0524614
0.0530012
0.0532526
0.0529046
0.0514362
0.0478357
0.0397542
0.0197552
0.00626572
0.0157676
0.0228818
0.0288923
0.0340205
0.0383918
0.0421125
0.0452756
0.0479602
0.0502394
0.0521733
0.0538028
0.0551762
0.0563537
0.0573879
0.0583258
0.0591789
0.0598205
0.0599828
0.0591869
0.056448
0.049162
0.0269807
0.0070979
0.0175842
0.0254126
0.0319045
0.0374021
0.0420734
0.0460572
0.0494512
0.0523305
0.0547826
0.0568855
0.0586828
0.060228
0.061591
0.0628384
0.0640293
0.0651921
0.0662212
0.0669121
0.0668609
0.0652299
0.0596402
0.0377606
0.0081386
0.019513
0.0279378
0.0348143
0.0405916
0.0454868
0.0496782
0.0532878
0.056398
0.0590906
0.0614333
0.0634614
0.0652132
0.0667645
0.0682182
0.0696468
0.0710969
0.0724889
0.0736846
0.0743639
0.0739126
0.070784
0.0552094
0.00476173
0.00926635
0.0120252
0.0135585
0.0142781
0.0147175
0.0153311
0.0155318
0.0153409
0.0153351
0.0157834
0.0168085
0.0176991
0.0179931
0.0173815
0.0157816
0.0128376
0.00861843
0.00213844
0.00974916
0.0205458
0.0264339
0.0297399
0.0316073
0.0327486
0.0338829
0.0344114
0.0344038
0.0344204
0.0354265
0.0374022
0.0391515
0.0397647
0.038542
0.0352883
0.0291456
0.0200039
0.00653929
0.013371
0.0277706
0.0350464
0.0391018
0.0415365
0.0431366
0.0443347
0.0450638
0.0453106
0.0455972
0.0467208
0.0486342
0.0502681
0.0507591
0.0493548
0.0455232
0.0384614
0.0276245
0.0100744
0.0186884
0.0345199
0.042874
0.0468765
0.0494314
0.0512465
0.0525057
0.0533579
0.0537217
0.0540404
0.0550726
0.0567814
0.0582225
0.0585957
0.0571712
0.0531918
0.0457711
0.0341596
0.0144633
0.0274538
0.0410583
0.0495652
0.0541912
0.0564739
0.0583747
0.0595684
0.0605106
0.0609029
0.0610947
0.0619342
0.0634171
0.0646959
0.0650162
0.0636177
0.0596893
0.0522308
0.0400493
0.0175467
0.0390105
0.0497355
0.0549144
0.0610588
0.0633154
0.064969
0.0659629
0.0666388
0.0670594
0.0672255
0.0678931
0.0691696
0.0702638
0.0705093
0.0690991
0.0653083
0.0581736
0.0456363
0.0190794
0.0522222
0.061001
0.0624141
0.0667908
0.0700724
0.071263
0.071948
0.0721199
0.0723446
0.0725319
0.0731644
0.0742703
0.0751699
0.0752536
0.0737743
0.0700783
0.0634101
0.0507176
0.0209297
0.066731
0.0734661
0.0715842
0.0727979
0.0763533
0.0773541
0.0775924
0.0773339
0.0772656
0.0773806
0.0779601
0.0788812
0.0795776
0.0794981
0.0779345
0.074221
0.0676921
0.0548522
0.0231076
0.0100325
0.0230957
0.0322615
0.0395047
0.0454852
0.050519
0.0548244
0.0585797
0.0619062
0.0649061
0.0676354
0.0700966
0.0722936
0.0742998
0.0762122
0.0780557
0.0799327
0.0818142
0.0836203
0.0851608
0.0860749
0.085781
0.0823585
0.0132281
0.0293974
0.0392974
0.046729
0.0527089
0.0576768
0.0619018
0.0655772
0.068852
0.0718428
0.0746327
0.0772795
0.0798335
0.0823586
0.0849009
0.0874462
0.0899463
0.0923927
0.0947555
0.0970227
0.0990639
0.100699
0.101694
0.0167811
0.0365844
0.0470349
0.0545488
0.0604664
0.0653252
0.0694523
0.0730616
0.0763053
0.0793018
0.0821442
0.0849055
0.0876449
0.0904075
0.0932131
0.095997
0.0986698
0.101225
0.103687
0.106077
0.108338
0.110394
0.112232
0.0208793
0.0434823
0.0545194
0.0622123
0.0681549
0.0729622
0.0770522
0.0806643
0.0839506
0.0870318
0.0900053
0.0929426
0.0958859
0.0988503
0.101818
0.104664
0.107354
0.109885
0.112272
0.114559
0.116772
0.118925
0.12105
0.0249622
0.0495081
0.0612678
0.0692715
0.0753397
0.0801751
0.0842872
0.0879597
0.0913519
0.0945861
0.0977564
0.100918
0.104081
0.107221
0.110225
0.113064
0.115716
0.11817
0.120446
0.122606
0.124754
0.126999
0.129365
0.0271713
0.0538284
0.0668006
0.0754636
0.0818121
0.086731
0.0908632
0.0945777
0.0980792
0.101493
0.104879
0.108258
0.111586
0.114787
0.11782
0.120657
0.12328
0.125678
0.127884
0.12999
0.132166
0.1346
0.137341
0.02587
0.0552168
0.0706734
0.0807058
0.0875626
0.0925276
0.096587
0.100269
0.103837
0.10741
0.110995
0.114534
0.117979
0.121281
0.124404
0.127308
0.129956
0.132333
0.1345
0.136619
0.138909
0.141592
0.144772
0.024065
0.0538984
0.0726722
0.0850094
0.092758
0.0976295
0.101439
0.105
0.108607
0.112323
0.116096
0.119829
0.123449
0.126915
0.130185
0.133196
0.13587
0.138183
0.140297
0.14248
0.14495
0.147841
0.151297
0.0239659
0.0556403
0.074701
0.0887346
0.0979602
0.102174
0.105434
0.10881
0.112469
0.116421
0.120495
0.124485
0.128297
0.131929
0.135342
0.138421
0.141005
0.143057
0.145026
0.147349
0.149696
0.151896
0.154943
0.0276257
0.0606029
0.0794245
0.0907472
0.0998019
0.105503
0.108338
0.111206
0.114642
0.118496
0.122472
0.126339
0.130085
0.133793
0.137399
0.140686
0.143384
0.145494
0.147609
0.149679
0.151786
0.153859
0.15622
0.0270467
0.0615665
0.0802406
0.0924314
0.100476
0.106124
0.109469
0.112282
0.115345
0.118729
0.122253
0.125824
0.129481
0.133241
0.136975
0.140471
0.14348
0.14588
0.14796
0.150102
0.152131
0.15394
0.155903
0.0283465
0.0626138
0.0802864
0.0915349
0.0995512
0.105297
0.109128
0.112203
0.11524
0.118401
0.121633
0.124947
0.128407
0.132
0.135575
0.138942
0.141941
0.144507
0.146787
0.148935
0.150869
0.152581
0.154165
0.0291106
0.0622751
0.0789241
0.0895075
0.0974332
0.103346
0.107671
0.11115
0.114348
0.11746
0.120542
0.123682
0.126964
0.130367
0.13374
0.136933
0.139831
0.142389
0.144672
0.146762
0.148625
0.150218
0.151628
0.0289834
0.0607321
0.0762884
0.0866261
0.0945066
0.100626
0.105381
0.10927
0.112718
0.11592
0.118985
0.122039
0.125185
0.12841
0.131596
0.134623
0.137398
0.139878
0.142084
0.144055
0.145788
0.147276
0.148535
0.0279461
0.0585221
0.073344
0.083437
0.0912415
0.0974907
0.102549
0.10677
0.110463
0.113811
0.11694
0.119977
0.123026
0.126103
0.129129
0.132008
0.134661
0.137045
0.139156
0.141009
0.142611
0.143963
0.14505
0.0266734
0.0561186
0.070406
0.0802368
0.0879223
0.0942
0.0994135
0.103848
0.107725
0.111206
0.114418
0.117477
0.120479
0.123452
0.12635
0.129104
0.131649
0.133942
0.135964
0.137716
0.1392
0.140417
0.141346
0.0255214
0.0537963
0.0675963
0.0771477
0.0846643
0.0908782
0.0961271
0.100652
0.104631
0.108204
0.111489
0.114586
0.117574
0.120484
0.123293
0.125953
0.128413
0.13063
0.132582
0.134257
0.135651
0.136761
0.137572
0.0244866
0.0516034
0.0649111
0.0741533
0.0814542
0.0875342
0.0927295
0.097256
0.10127
0.104894
0.108232
0.111368
0.114363
0.117244
0.120002
0.122602
0.125005
0.127174
0.129081
0.13071
0.13205
0.133097
0.133842
0.0234983
0.0494583
0.0622531
0.0711591
0.0782129
0.0841181
0.0892085
0.0936848
0.0976914
0.101339
0.104714
0.107886
0.110902
0.113782
0.116521
0.119096
0.121474
0.123623
0.125517
0.127135
0.128463
0.129495
0.130227
0.0224684
0.04724
0.0595006
0.0680564
0.0748523
0.0805697
0.0855371
0.0899436
0.0939254
0.0975818
0.100987
0.104196
0.107243
0.110143
0.112892
0.115471
0.117854
0.120014
0.121925
0.123566
0.124921
0.125983
0.126752
0.0213225
0.0448463
0.056558
0.0647645
0.07131
0.0768482
0.081698
0.0860373
0.0899944
0.0936587
0.0970935
0.100342
0.103429
0.106365
0.109145
0.111752
0.114166
0.116361
0.118315
0.120008
0.121423
0.122553
0.123397
0.0200155
0.0422204
0.0533777
0.061248
0.0675634
0.0729436
0.0776936
0.0819815
0.0859241
0.0896025
0.0930705
0.0963626
0.0994971
0.102479
0.105303
0.107955
0.110415
0.112664
0.114679
0.116443
0.117941
0.119163
0.12011
0.0185338
0.0393561
0.0499639
0.0575195
0.0636311
0.0688793
0.0735506
0.0778075
0.0817493
0.08545
0.0889559
0.0922945
0.095479
0.0985117
0.101386
0.104089
0.106605
0.108914
0.110999
0.112845
0.114435
0.115763
0.116825
0.0169228
0.0362969
0.0463704
0.0536359
0.05957
0.0647107
0.0693251
0.0735664
0.077519
0.0812483
0.084794
0.0881785
0.0914112
0.0944926
0.0974161
0.10017
0.10274
0.105109
0.107264
0.109189
0.110872
0.112303
0.113481
0.0153603
0.0331347
0.0426944
0.0496934
0.0554718
0.0605236
0.0650971
0.0693331
0.0733016
0.0770606
0.0806434
0.084068
0.0873417
0.0904636
0.0934277
0.0962236
0.0988388
0.10126
0.103474
0.105469
0.107232
0.108757
0.11004
0.0138242
0.0300332
0.0390957
0.045845
0.0514823
0.0564554
0.0609882
0.0652095
0.0691889
0.0729725
0.0765827
0.0800353
0.0833363
0.0864843
0.089474
0.0922967
0.0949418
0.0973982
0.0996548
0.101702
0.103529
0.105128
0.106496
0.0123733
0.0271578
0.0357456
0.0422565
0.0477589
0.0526549
0.0571453
0.0613447
0.0653183
0.0690995
0.072713
0.0761743
0.0794825
0.0826356
0.0856299
0.0884581
0.0911118
0.0935818
0.095859
0.0979355
0.0998017
0.101451
0.10288
0.0110965
0.0246728
0.0328197
0.0391019
0.0444701
0.0492834
0.0537202
0.0578817
0.0618269
0.0655838
0.0691728
0.0726057
0.0758869
0.0790178
0.0819903
0.0847976
0.0874339
0.0898914
0.0921631
0.0942424
0.0961212
0.0977935
0.0992554
0.0100754
0.0227114
0.0304712
0.0365405
0.0417756
0.0464976
0.0508647
0.0549661
0.0588543
0.0625575
0.06609
0.0694633
0.072683
0.0757506
0.0786637
0.0814193
0.0840087
0.0864246
0.0886622
0.0907157
0.0925785
0.0942448
0.095711
0.00936241
0.0213566
0.0288103
0.0346972
0.0398071
0.0444315
0.0487124
0.0527297
0.0565311
0.0601445
0.0635845
0.0668624
0.069985
0.0729553
0.0757736
0.0784376
0.0809432
0.0832858
0.0854599
0.0874581
0.0892757
0.0909074
0.0923492
0.0089726
0.0206415
0.0278992
0.0336531
0.0386569
0.0431829
0.0473629
0.0512718
0.0549559
0.0584443
0.0617552
0.0649009
0.0678903
0.0707285
0.0734178
0.0759581
0.0783472
0.080582
0.0826581
0.0845709
0.0863153
0.0878845
0.0892742
0.00889969
0.0205703
0.0277656
0.0334529
0.0383796
0.0428116
0.0468786
0.0506561
0.0541935
0.0575238
0.0606705
0.0636491
0.0664712
0.0691444
0.0716733
0.0740596
0.076303
0.0784015
0.080352
0.0821508
0.0837927
0.0852718
0.0865837
0.00913126
0.0211428
0.0284262
0.0341236
0.0390069
0.0433504
0.0472916
0.0509146
0.0542766
0.0574179
0.0603679
0.0631478
0.0657723
0.0682517
0.0705927
0.0727988
0.0748712
0.076809
0.0786102
0.0802716
0.0817881
0.0831542
0.0843645
0.00967147
0.0223824
0.0299144
0.0356997
0.0405689
0.044823
0.0486201
0.0520613
0.0552171
0.0581384
0.0608619
0.0634148
0.0658153
0.0680766
0.0702069
0.0722115
0.0740926
0.0758503
0.0774831
0.0789883
0.0803612
0.0815961
0.0826865
0.0105551
0.0243545
0.0323009
0.0382449
0.043115
0.047263
0.0508841
0.0541064
0.0570197
0.0596877
0.0621556
0.0644554
0.0666092
0.0686319
0.0705334
0.0723197
0.0739939
0.0755567
0.0770072
0.0783425
0.0795583
0.0806485
0.0816059
0.0118453
0.0271927
0.0357252
0.0418754
0.046728
0.0507227
0.054113
0.057065
0.0596915
0.0620696
0.064252
0.0662744
0.0681612
0.0699283
0.0715864
0.0731417
0.0745977
0.0759553
0.0772135
0.0783697
0.0794194
0.0803565
0.0811727
0.0136361
0.0311059
0.0403896
0.0467456
0.0515105
0.0552642
0.0583428
0.060958
0.0632459
0.0652948
0.0671619
0.0688844
0.0704865
0.0719843
0.0733877
0.0747028
0.0759326
0.0770779
0.0781378
0.0791095
0.0799883
0.080768
0.0814394
0.0161006
0.0364494
0.0466043
0.0530611
0.0575794
0.0609488
0.0636063
0.0658064
0.0677013
0.0693831
0.0709085
0.072312
0.0736159
0.0748341
0.0759751
0.0770438
0.0780427
0.078972
0.0798306
0.0806154
0.081322
0.081944
0.0824718
0.0195825
0.0438098
0.054774
0.0610245
0.0650177
0.0678077
0.069918
0.0716249
0.0730792
0.074365
0.07553
0.076603
0.077601
0.0785344
0.0794095
0.0802294
0.0809958
0.0817083
0.0823654
0.0829643
0.0835005
0.0839682
0.0843578
0.0250178
0.0543267
0.0654195
0.0707675
0.0738123
0.0758003
0.0772545
0.0784167
0.0794062
0.0802848
0.0810857
0.0818273
0.0825202
0.0831704
0.0837812
0.0843544
0.0848904
0.0853886
0.0858473
0.086264
0.0866349
0.0869549
0.087216
0.036527
0.0701443
0.0788663
0.0821244
0.0837725
0.084809
0.0855695
0.0861889
0.0867278
0.0872155
0.0876669
0.0880896
0.0884878
0.0888635
0.0892179
0.0895512
0.0898632
0.0901532
0.0904199
0.0906613
0.0908749
0.0910573
0.0912028
0.0845301
0.0931135
0.0939247
0.094237
0.0944667
0.0946607
0.0948331
0.0949914
0.0951399
0.0952811
0.0954159
0.0955449
0.095668
0.0957852
0.0958965
0.0960016
0.0961002
0.096192
0.0962763
0.0963524
0.0964194
0.096476
0.0965203
0.0653724
0.0602668
0.0597237
0.0640474
0.101238
0.101419
0.102677
0.105089
0.11351
0.114552
0.115938
0.11773
0.122639
0.123784
0.125039
0.126376
0.131077
0.13218
0.133206
0.134115
0.139368
0.140566
0.14147
0.142015
0.147155
0.148509
0.149439
0.149823
0.154118
0.155931
0.157323
0.157974
0.157632
0.159268
0.160361
0.160644
0.158012
0.158925
0.159449
0.159538
0.157195
0.157764
0.158066
0.158107
0.155181
0.15569
0.156019
0.156134
0.152514
0.152979
0.153303
0.153452
0.149278
0.149666
0.149942
0.150086
0.145644
0.145943
0.146152
0.146261
0.141811
0.142029
0.14217
0.14223
0.137942
0.138095
0.138177
0.138187
0.134154
0.134266
0.134304
0.134273
0.130521
0.130614
0.130631
0.130576
0.127066
0.127164
0.127182
0.127125
0.123762
0.123888
0.12393
0.123894
0.120551
0.120722
0.120806
0.120811
0.117355
0.117582
0.117721
0.117782
0.114103
0.114391
0.114592
0.114716
0.110749
0.111095
0.111357
0.111544
0.107278
0.107677
0.107995
0.108241
0.103718
0.10416
0.104524
0.10482
0.10013
0.100602
0.101002
0.101335
0.0966003
0.0970897
0.0975119
0.0978717
0.0932325
0.0937258
0.0941571
0.0945298
0.0901318
0.0906161
0.0910435
0.0914164
0.0873971
0.0878606
0.0882721
0.0886329
0.0851165
0.085548
0.0859324
0.0862698
0.0833631
0.083753
0.0841001
0.0844039
0.0821967
0.0825372
0.0828391
0.0831011
0.081671
0.0819571
0.0822081
0.0824224
0.0818425
0.0820717
0.0822693
0.0824329
0.0827809
0.0829538
0.0830983
0.0832121
0.0845783
0.0846985
0.0847944
0.0848631
0.0873575
0.0874321
0.0874873
0.0875206
0.0912784
0.0913172
0.0913431
0.0913547
0.096543
0.0965546
0.0965616
0.096564
0.0827011
0.0880571
0.0850113
0.0833346
0.085563
0.0865137
0.0859621
0.0851941
0.0847372
0.0847029
0.0850723
0.0856377
0.0860032
0.0856955
0.0839785
0.0800602
0.0730341
0.0596394
0.0270421
0.108334
0.107073
0.101708
0.0977909
0.0970871
0.0975071
0.0964543
0.0950915
0.0942452
0.0939704
0.09395
0.0939978
0.0939048
0.0932521
0.0910687
0.0861469
0.077251
0.0626315
0.0305018
0.120885
0.119632
0.114724
0.110269
0.10782
0.106905
0.105813
0.104267
0.103186
0.102632
0.102232
0.101787
0.101147
0.0998069
0.0965964
0.0903261
0.0803484
0.0651185
0.0322432
0.128404
0.127845
0.124339
0.120185
0.117161
0.115494
0.114201
0.112711
0.111483
0.110606
0.109768
0.108698
0.107158
0.10464
0.100327
0.0934242
0.08331
0.0676984
0.0335431
0.135263
0.134574
0.13175
0.128153
0.125218
0.12335
0.121929
0.120467
0.119112
0.117864
0.11637
0.114417
0.111867
0.108411
0.103472
0.0963992
0.0862908
0.0703783
0.0347147
0.142291
0.140773
0.137987
0.134878
0.132249
0.130377
0.128882
0.127386
0.125832
0.124122
0.121981
0.119289
0.116
0.111929
0.106595
0.0993484
0.0890869
0.0727412
0.0357427
0.149514
0.146764
0.143541
0.140668
0.138302
0.136453
0.134884
0.13331
0.131555
0.129452
0.126813
0.123589
0.119785
0.115252
0.109556
0.102018
0.0913936
0.0744227
0.0364076
0.157472
0.152621
0.148472
0.145597
0.143397
0.141576
0.139928
0.138232
0.136226
0.133833
0.130886
0.127308
0.123123
0.118191
0.112094
0.104116
0.0928982
0.075056
0.0365057
0.159861
0.15603
0.15246
0.149746
0.147652
0.145764
0.144107
0.142348
0.139993
0.137313
0.134129
0.130304
0.12583
0.12051
0.113948
0.105384
0.0933598
0.0744192
0.0359287
0.158962
0.156879
0.154726
0.152725
0.150883
0.149254
0.148036
0.146228
0.143015
0.140202
0.136809
0.132635
0.127773
0.121999
0.114917
0.105684
0.0927764
0.0727284
0.0347133
0.157754
0.156429
0.155011
0.153721
0.152296
0.151043
0.149754
0.147731
0.145572
0.143446
0.1393
0.134597
0.129133
0.122631
0.114913
0.105041
0.0914205
0.0707375
0.0330797
0.155949
0.15495
0.15385
0.152773
0.151532
0.15019
0.148606
0.146804
0.145589
0.144465
0.141945
0.13704
0.130057
0.122563
0.114214
0.103627
0.0893901
0.0684027
0.0314487
0.153364
0.15254
0.151503
0.150423
0.149276
0.147934
0.146242
0.144543
0.143409
0.142528
0.140892
0.137276
0.130417
0.122297
0.1131
0.102117
0.0874624
0.0662996
0.0307089
0.150054
0.149376
0.148409
0.147315
0.146124
0.144738
0.143073
0.141439
0.14032
0.139237
0.137183
0.133364
0.127756
0.121175
0.113005
0.101756
0.0876948
0.0669702
0.0325812
0.146234
0.145666
0.144796
0.143745
0.142561
0.141169
0.139479
0.137757
0.136441
0.135226
0.133051
0.129147
0.123981
0.118504
0.111426
0.100747
0.0874437
0.0693534
0.0363111
0.142164
0.141643
0.140842
0.139844
0.138689
0.137319
0.135624
0.133789
0.132277
0.130896
0.128702
0.124934
0.119764
0.113815
0.106784
0.0970717
0.0847887
0.0686694
0.037034
0.138061
0.137523
0.136729
0.135732
0.134565
0.133191
0.131526
0.129684
0.128054
0.126609
0.124556
0.121009
0.115647
0.109027
0.101323
0.0919332
0.0800937
0.0641729
0.0320205
0.134092
0.133499
0.132653
0.131592
0.13035
0.128916
0.127255
0.12545
0.12375
0.122185
0.120128
0.116681
0.111257
0.104217
0.0959511
0.0862293
0.0742795
0.0580854
0.0276745
0.13036
0.129713
0.128791
0.127629
0.126265
0.124714
0.122977
0.121118
0.119274
0.11741
0.115062
0.111425
0.105916
0.0986842
0.0900412
0.0798762
0.0675526
0.0513924
0.0235368
0.126908
0.126239
0.125261
0.124002
0.122504
0.120797
0.118901
0.116858
0.114719
0.112404
0.109527
0.105493
0.0998242
0.0924978
0.0836836
0.0733015
0.0608594
0.0450999
0.0200551
0.123714
0.123078
0.122085
0.120768
0.119166
0.117311
0.115222
0.112919
0.110401
0.107568
0.10413
0.0996486
0.093795
0.0864777
0.0777366
0.0674768
0.0553403
0.0402852
0.0175951
0.120702
0.12015
0.119202
0.117887
0.11624
0.114286
0.112037
0.109493
0.106628
0.103345
0.0994423
0.0946392
0.0886822
0.0814988
0.0730536
0.0632196
0.0516634
0.0373705
0.0162952
0.117767
0.117342
0.11649
0.115239
0.113616
0.111638
0.109307
0.106612
0.103519
0.0999487
0.0957677
0.0908054
0.0849086
0.0779897
0.0699769
0.0607157
0.0498357
0.0362667
0.0158888
0.114807
0.114534
0.113815
0.112679
0.111142
0.109215
0.106893
0.10416
0.100984
0.0973085
0.093048
0.0881028
0.082379
0.0757993
0.068269
0.0595999
0.0493636
0.0363604
0.0159986
0.111744
0.11163
0.111066
0.110075
0.108669
0.106852
0.104615
0.101944
0.09881
0.0951753
0.0909875
0.086187
0.0807113
0.0744904
0.0674143
0.0592681
0.0495762
0.0370231
0.0163719
0.108542
0.10858
0.108173
0.10734
0.106089
0.104419
0.10232
0.0997781
0.0967715
0.0932737
0.0892516
0.0846664
0.0794703
0.0735949
0.0669214
0.059218
0.0499803
0.0378037
0.0168015
0.105208
0.105381
0.105121
0.104443
0.103353
0.101847
0.099914
0.0975396
0.0947074
0.0913981
0.0875883
0.0832484
0.0783363
0.0727832
0.0664651
0.0591423
0.0502933
0.0384494
0.0171699
0.101792
0.102076
0.101944
0.101407
0.100473
0.0991309
0.0973705
0.0951785
0.0925405
0.0894407
0.0858602
0.0817724
0.0771366
0.0718827
0.065884
0.058898
0.0503932
0.0388571
0.0174374
0.0983768
0.0987437
0.0987149
0.0983002
0.0975037
0.0963141
0.0947199
0.0927082
0.0902655
0.0873773
0.0840254
0.0801834
0.0758104
0.0708341
0.0651247
0.0584437
0.0502522
0.0390079
0.0176333
0.0950619
0.0954817
0.095529
0.0952111
0.0945294
0.0934726
0.0920283
0.0901836
0.087925
0.0852376
0.0821028
0.0784914
0.0743633
0.0696459
0.0642091
0.0578084
0.0499043
0.0389393
0.017736
0.0919535
0.0923958
0.09249
0.0922406
0.091646
0.0906968
0.0893788
0.0876795
0.0855846
0.0830782
0.0801422
0.0767464
0.0728465
0.0683676
0.0631789
0.0570337
0.049392
0.0386903
0.0177417
0.0891538
0.0895885
0.0897002
0.089489
0.0889513
0.0880785
0.0868571
0.0852748
0.0833182
0.0809708
0.0782111
0.0750075
0.0713122
0.0670478
0.0620818
0.056166
0.0487608
0.038306
0.0176635
0.0867546
0.087153
0.0872522
0.0870476
0.0865342
0.0857034
0.0845449
0.0830469
0.081197
0.0789782
0.0763666
0.0733276
0.06981
0.0657334
0.0609625
0.0552482
0.0480528
0.0378262
0.0175135
0.0848355
0.0851723
0.0852298
0.0849999
0.0844753
0.0836485
0.0825125
0.0810593
0.0792783
0.0771527
0.0746563
0.0717512
0.0683819
0.0644641
0.0598599
0.0543189
0.0473058
0.0372864
0.0173147
0.0834653
0.0837192
0.0837087
0.0834214
0.0828475
0.0819809
0.0808199
0.0793641
0.0776074
0.0755344
0.0731168
0.0703124
0.0670606
0.0632723
0.058806
0.0534101
0.0465531
0.0367187
0.0170793
0.0827094
0.0828642
0.0827635
0.082388
0.0817237
0.0807662
0.0795227
0.0780054
0.0762194
0.0741525
0.0717742
0.069036
0.0658706
0.0621829
0.0578271
0.0525498
0.0458233
0.0361512
0.016829
0.082638
0.0826852
0.0824788
0.0819883
0.0811909
0.0800819
0.0786815
0.077026
0.0751429
0.0730274
0.0706451
0.0679384
0.0648296
0.0612155
0.0569448
0.0517618
0.0451424
0.0356098
0.0165778
0.0833372
0.0832794
0.0829642
0.0823428
0.0813735
0.0800432
0.0783862
0.0764817
0.074409
0.0721745
0.0697399
0.0670298
0.06395
0.0603853
0.0561771
0.051067
0.0445332
0.0351177
0.0163454
0.0849186
0.084775
0.0843706
0.0836297
0.0824743
0.0808579
0.0788129
0.0764835
0.0740791
0.0716143
0.0690647
0.066316
0.0632407
0.0597046
0.0555395
0.050483
0.044016
0.0346962
0.0161449
0.0875263
0.0873388
0.086903
0.086113
0.0848343
0.0829366
0.0803725
0.0773236
0.0743587
0.0714022
0.0686273
0.065799
0.0627075
0.0591836
0.0550453
0.0500259
0.0436079
0.034364
0.0159983
0.0913384
0.0911716
0.0908117
0.0901428
0.0889819
0.087065
0.0840731
0.0799121
0.0761087
0.0717015
0.0684417
0.0654778
0.0623538
0.0588304
0.054706
0.0497088
0.0433235
0.0341357
0.0159229
0.0965539
0.0964836
0.0963371
0.0960529
0.095508
0.0944334
0.0921909
0.0874416
0.0833802
0.0727736
0.0684887
0.0653398
0.06218
0.0586522
0.0545323
0.049544
0.0431729
0.0340139
0.0159052
)
;

boundaryField
{
    leftWall
    {
        type            kqRWallFunction;
        value           nonuniform List<scalar> 
50
(
0.00120811
0.00260045
0.00352101
0.00437359
0.00527113
0.00626572
0.0070979
0.0081386
0.0100325
0.0132281
0.0167811
0.0208793
0.0249622
0.0271713
0.02587
0.024065
0.0239659
0.0276257
0.0270467
0.0283465
0.0291106
0.0289834
0.0279461
0.0266734
0.0255214
0.0244866
0.0234983
0.0224684
0.0213225
0.0200155
0.0185338
0.0169228
0.0153603
0.0138242
0.0123733
0.0110965
0.0100754
0.00936241
0.0089726
0.00889969
0.00913126
0.00967147
0.0105551
0.0118453
0.0136361
0.0161006
0.0195825
0.0250178
0.036527
0.0845301
)
;
    }
    rightWall
    {
        type            kqRWallFunction;
        value           nonuniform List<scalar> 
50
(
0.00213844
0.00653929
0.0100744
0.0144633
0.0175467
0.0190794
0.0209297
0.0231076
0.0270421
0.0305018
0.0322432
0.0335431
0.0347147
0.0357427
0.0364076
0.0365057
0.0359287
0.0347133
0.0330797
0.0314487
0.0307089
0.0325812
0.0363111
0.037034
0.0320205
0.0276745
0.0235368
0.0200551
0.0175951
0.0162952
0.0158888
0.0159986
0.0163719
0.0168015
0.0171699
0.0174374
0.0176333
0.017736
0.0177417
0.0176635
0.0175135
0.0173147
0.0170793
0.016829
0.0165778
0.0163454
0.0161449
0.0159983
0.0159229
0.0159052
)
;
    }
    lowerWall
    {
        type            kqRWallFunction;
        value           nonuniform List<scalar> 
62
(
0.00120811
0.00323605
0.00497766
0.00650394
0.00785211
0.00902994
0.0100441
0.0109088
0.0116421
0.0122616
0.0127786
0.0131996
0.0135324
0.0137745
0.0139098
0.0139341
0.0138557
0.013544
0.012859
0.0116492
0.0097079
0.0067891
0.0033381
0.0033381
0.00737213
0.0106953
0.0146154
0.0197552
0.0269807
0.0377606
0.0552094
0.0653724
0.0602668
0.0597237
0.0640474
0.00476173
0.00974916
0.013371
0.0186884
0.0274538
0.0390105
0.0522222
0.066731
0.00476173
0.00926635
0.0120252
0.0135585
0.0142781
0.0147175
0.0153311
0.0155318
0.0153409
0.0153351
0.0157834
0.0168085
0.0176991
0.0179931
0.0173815
0.0157816
0.0128376
0.00861843
0.00213844
)
;
    }
    atmosphere
    {
        type            inletOutlet;
        inletValue      uniform 0.1;
        value           nonuniform List<scalar> 
46
(
0.1
0.1
0.1
0.1
0.1
0.1
0.1
0.1
0.1
0.1
0.1
0.1
0.1
0.1
0.1
0.1
0.1
0.1
0.1
0.1
0.1
0.1
0.1
0.1
0.1
0.1
0.1
0.1
0.1
0.1
0.1
0.1
0.1
0.1
0.1
0.1
0.0727736
0.0684887
0.0653398
0.06218
0.0586522
0.0545323
0.049544
0.0431729
0.0340139
0.0159052
)
;
    }
    defaultFaces
    {
        type            empty;
    }
}


// ************************************************************************* //
