/*--------------------------------*- C++ -*----------------------------------*\
  =========                 |
  \\      /  F ield         | OpenFOAM: The Open Source CFD Toolbox
   \\    /   O peration     | Website:  https://openfoam.org
    \\  /    A nd           | Version:  13
     \\/     M anipulation  |
\*---------------------------------------------------------------------------*/
FoamFile
{
    format      ascii;
    class       volScalarField;
    location    "1.7";
    object      nut;
}
// * * * * * * * * * * * * * * * * * * * * * * * * * * * * * * * * * * * * * //

dimensions      [0 2 -1 0 0 0 0];

internalField   nonuniform List<scalar> 
2268
(
2.33758e-05
3.81103e-05
4.72508e-05
5.40448e-05
5.93895e-05
6.36594e-05
6.70882e-05
6.98611e-05
7.2128e-05
7.40056e-05
7.55671e-05
7.68582e-05
7.79147e-05
7.87461e-05
7.9343e-05
7.9802e-05
8.0058e-05
7.96666e-05
7.81489e-05
7.47992e-05
6.83337e-05
5.6596e-05
3.86259e-05
7.26515e-05
0.000282302
0.000399991
0.000484323
0.000548343
0.000596938
0.000633645
0.000661673
0.000684044
0.000703495
0.000721721
0.00073945
0.000757482
0.000776556
0.000796461
0.000815383
0.000830339
0.000838681
0.000831473
0.000792177
0.00068992
0.000474305
0.000122601
8.45338e-05
0.000473078
0.000721143
0.000907978
0.00105416
0.00116751
0.00125452
0.00132172
0.00137546
0.00142146
0.0014636
0.00150397
0.00154423
0.00158548
0.00162695
0.00166534
0.00169431
0.00170248
0.00166596
0.00154465
0.00127551
0.000789571
0.000148933
9.38633e-05
0.000602907
0.000966927
0.00125043
0.0014772
0.00165649
0.00179667
0.0019065
0.00199477
0.00206946
0.00213634
0.00219879
0.00225907
0.00231834
0.00237517
0.00242486
0.00245766
0.00245408
0.00237786
0.00217069
0.00174793
0.00103739
0.000175372
0.000102783
0.000696071
0.0011592
0.00153016
0.00183154
0.00207332
0.00226523
0.00241761
0.00254085
0.00264451
0.00273587
0.00281931
0.00289751
0.00297167
0.00303989
0.0030965
0.00312926
0.00311301
0.00300306
0.00272668
0.00217693
0.00126654
0.000204564
0.000112122
0.000764278
0.00131376
0.00176381
0.00213308
0.00243235
0.00267277
0.00286597
0.00302327
0.00315536
0.00327059
0.00337409
0.00346889
0.00355627
0.00363426
0.00369689
0.00373067
0.00370719
0.00357688
0.00325544
0.00260828
0.00150616
0.000238565
0.000118134
0.000807801
0.00143993
0.00196275
0.00239365
0.00274496
0.00302993
0.00326131
0.00345106
0.00361059
0.00374898
0.00387191
0.00398268
0.00408273
0.00417048
0.00424033
0.00427876
0.00425607
0.0041215
0.00378373
0.00307928
0.00179459
0.000280522
0.00012576
0.000845619
0.00155022
0.00213828
0.00262329
0.00301985
0.00334403
0.00361002
0.00383035
0.00401655
0.00417775
0.00431999
0.0044467
0.00455966
0.00465804
0.00473735
0.00478485
0.00477117
0.00464813
0.00432534
0.00362576
0.00221604
0.000336731
4.47324e-05
6.41755e-05
7.33461e-05
7.76429e-05
8.00212e-05
8.10751e-05
8.31174e-05
8.39652e-05
8.251e-05
8.15186e-05
8.18076e-05
8.38462e-05
8.6237e-05
8.75113e-05
8.65589e-05
8.32373e-05
7.59426e-05
6.29998e-05
3.08151e-05
0.000153111
0.000454489
0.000611711
0.000698988
0.000749005
0.000765704
0.000785313
0.000776194
0.000738051
0.000692116
0.000685208
0.000716875
0.000765732
0.000811083
0.000825118
0.000816111
0.000749431
0.000576492
0.000128186
0.000182549
0.000646147
0.000968386
0.00121025
0.00137322
0.00145874
0.00149146
0.00147066
0.00140601
0.00134305
0.00133975
0.00140157
0.0014908
0.00157396
0.00160381
0.0015678
0.00141206
0.00102273
0.000160389
0.000223566
0.000697088
0.00112676
0.00151868
0.00182839
0.00200965
0.00207651
0.00205901
0.00198859
0.00192539
0.00193232
0.00201553
0.00212859
0.00222838
0.00225627
0.00217877
0.00192516
0.00134132
0.000194329
0.000275952
0.000703879
0.00118328
0.00170855
0.00217803
0.00247407
0.00258729
0.00258098
0.00251346
0.00245765
0.0024742
0.00256784
0.00268866
0.0027891
0.00280018
0.00267517
0.00233128
0.00158271
0.000213787
0.00032593
0.000773893
0.00126311
0.00188736
0.0024934
0.00289834
0.00306148
0.00306372
0.00300245
0.00295674
0.00298052
0.00307477
0.00318975
0.00327704
0.00326105
0.00308516
0.00265957
0.00177605
0.000223099
0.000372149
0.000954269
0.00148813
0.0021428
0.00284119
0.00331653
0.00351979
0.00352806
0.00347199
0.00343399
0.00346192
0.00354871
0.00364861
0.00371087
0.00365972
0.00342955
0.00292583
0.00192506
0.000231978
0.000417142
0.00130547
0.00192708
0.00254557
0.00325232
0.00374953
0.00397149
0.00398468
0.00393313
0.00390025
0.00392608
0.00399863
0.00407516
0.00410404
0.0040111
0.00372329
0.00313978
0.00203151
0.000241331
0.00013904
0.000930009
0.00172987
0.00240064
0.00295398
0.00340957
0.00378574
0.00409874
0.00436136
0.00458541
0.00477999
0.00495117
0.00510281
0.00523757
0.00535473
0.00544908
0.00551198
0.0055182
0.00542726
0.00516359
0.0045936
0.00351194
0.00188567
0.000159333
0.00111364
0.00202517
0.00276915
0.0033781
0.00388161
0.0043019
0.00465605
0.00495766
0.00521799
0.00544608
0.00564891
0.0058315
0.00599696
0.00614528
0.00627256
0.0063683
0.0064177
0.00639342
0.00624873
0.00590886
0.00527521
0.00429039
0.000179293
0.00133215
0.00234284
0.00314163
0.00378959
0.00432654
0.00477896
0.00516496
0.00549793
0.00578853
0.00604529
0.00627504
0.00648295
0.00667231
0.00684411
0.00699385
0.00711445
0.00719818
0.00723059
0.00718761
0.00703384
0.00673129
0.00627635
0.000199514
0.00149568
0.00260846
0.00346782
0.0041579
0.00472825
0.0052119
0.00562807
0.00599013
0.00630849
0.00659137
0.00684531
0.00707525
0.00728437
0.00747349
0.00763771
0.00777532
0.00788308
0.0079546
0.00797982
0.00794447
0.00783649
0.00766355
0.000217205
0.00159976
0.00280057
0.00371802
0.0044538
0.0050645
0.00558529
0.00603583
0.00642925
0.00677601
0.00708443
0.00736108
0.00761074
0.00783628
0.00803605
0.00821032
0.00835893
0.00848136
0.00857616
0.00864058
0.00867049
0.00866247
0.00861952
0.000225024
0.00164882
0.00290394
0.00387278
0.00465783
0.00531775
0.00588416
0.00637598
0.00680581
0.00718393
0.00751892
0.00781789
0.00808513
0.00832248
0.00853161
0.00871358
0.00886933
0.00900003
0.0091072
0.00919205
0.00925484
0.0092943
0.00930804
0.000219972
0.00160867
0.00289023
0.00391092
0.00475549
0.0054753
0.00609789
0.00663952
0.00711181
0.00752524
0.00788872
0.00820913
0.00849228
0.00874197
0.00896054
0.00914941
0.00930993
0.00944447
0.00955692
0.00965136
0.00972918
0.00978762
0.00981997
0.00021346
0.00146513
0.00276829
0.00384341
0.00475475
0.00554278
0.00622956
0.00682777
0.00734744
0.00779858
0.0081911
0.00853394
0.00883434
0.00909734
0.00932578
0.00952093
0.00968398
0.00981848
0.00993189
0.0100302
0.0101131
0.0101732
0.0102
0.000215666
0.0015199
0.00274291
0.00378739
0.00472663
0.0055601
0.00630356
0.00695696
0.00752366
0.00801279
0.00843495
0.00880035
0.009118
0.00939442
0.00963265
0.009833
0.00999546
0.0101247
0.0102351
0.0103338
0.0104101
0.0104525
0.0104629
0.000230668
0.00170492
0.00291844
0.00386147
0.00474268
0.00558538
0.00635791
0.00705088
0.00765322
0.00817
0.00861249
0.00899288
0.00932275
0.00961042
0.00985857
0.0100657
0.01023
0.0103574
0.0104641
0.0105508
0.0106162
0.0106531
0.0106567
0.000229079
0.00178854
0.00308208
0.00404176
0.0048823
0.00568911
0.00644644
0.00713679
0.00774568
0.0082711
0.00872179
0.00911056
0.00944917
0.00974536
0.0100014
0.0102161
0.0103875
0.0105182
0.0106203
0.0107024
0.0107606
0.0107902
0.0107892
0.000232846
0.00186017
0.00323516
0.00421135
0.00503666
0.00581907
0.00655265
0.00722308
0.00782037
0.00834148
0.00879224
0.0091834
0.00952493
0.00982363
0.0100819
0.0102995
0.0104759
0.0106136
0.0107201
0.0108008
0.0108544
0.0108783
0.0108694
0.000236059
0.00191252
0.00333156
0.00434642
0.00517779
0.00594075
0.00665054
0.00729885
0.00787791
0.0083871
0.00883209
0.0092211
0.0095621
0.0098607
0.0101193
0.0103386
0.0105189
0.0106622
0.0107728
0.0108545
0.0109066
0.0109272
0.0109154
0.000237063
0.00193124
0.00338507
0.00443849
0.00528758
0.00604117
0.00672964
0.00735443
0.00791314
0.00840795
0.00884419
0.00922848
0.00956703
0.00986442
0.0101231
0.010344
0.0105277
0.0106756
0.0107903
0.0108739
0.0109268
0.0109481
0.0109377
0.000234034
0.0019315
0.00340532
0.00449111
0.00535846
0.00610806
0.00677894
0.00738179
0.00792084
0.00840093
0.00882748
0.00920592
0.00954127
0.00983746
0.0100967
0.0103199
0.0105076
0.0106605
0.01078
0.0108675
0.0109235
0.0109479
0.0109408
0.000229376
0.00191263
0.00339606
0.00450454
0.00538624
0.00613361
0.00679047
0.00737467
0.00789653
0.00836315
0.00878037
0.00915317
0.00948582
0.00978158
0.0100423
0.0102688
0.0104613
0.0106201
0.0107458
0.010839
0.0109002
0.0109296
0.0109272
0.000224621
0.00187927
0.00336049
0.0044809
0.00537087
0.00611567
0.0067611
0.00733067
0.00783854
0.00829382
0.00870306
0.00907122
0.00940208
0.00969837
0.00996161
0.0101924
0.0103907
0.0105564
0.0106894
0.0107901
0.0108584
0.0108944
0.0108983
0.000220036
0.00183724
0.00330394
0.00442509
0.00531647
0.00605708
0.00669302
0.00725109
0.00774793
0.0081942
0.00859717
0.00896193
0.00929203
0.0095898
0.00985647
0.0100924
0.0102973
0.0104707
0.0106123
0.0107216
0.0107985
0.0108428
0.0108544
0.000215506
0.00179
0.0032314
0.004343
0.00522909
0.00596315
0.00659048
0.00713922
0.00762742
0.00806682
0.00846522
0.00882788
0.00915823
0.00945834
0.0097292
0.00997092
0.0101831
0.0103649
0.0105157
0.0106347
0.0107213
0.0107752
0.010796
0.000210736
0.00173869
0.00314609
0.00423956
0.0051145
0.00583952
0.00645836
0.0069992
0.00748067
0.00791504
0.00831047
0.00867229
0.00900386
0.00930708
0.00958271
0.00983073
0.0100505
0.0102411
0.0104016
0.0105309
0.0106281
0.0106926
0.0107239
0.000205395
0.00168314
0.0030495
0.00411815
0.00497737
0.00569126
0.00630154
0.00683559
0.00731196
0.007743
0.00813695
0.00849914
0.00883284
0.00913979
0.00942065
0.00967523
0.00990281
0.0101023
0.0102727
0.0104126
0.010521
0.0105969
0.0106396
0.000199214
0.00162277
0.00294225
0.00398116
0.00482158
0.00552313
0.00612505
0.00665351
0.00712635
0.00755568
0.00794959
0.00831328
0.0086499
0.0089611
0.00924742
0.00950863
0.00974394
0.00995227
0.0101324
0.010283
0.0104027
0.0104903
0.0105451
0.000192011
0.00155691
0.00282477
0.00383092
0.00465111
0.00534019
0.00593457
0.00645894
0.00692994
0.00735917
0.00775437
0.00812055
0.00846073
0.00877646
0.00906827
0.00933589
0.00957858
0.00979527
0.00998471
0.0101456
0.0102764
0.0103759
0.0104429
0.000183787
0.00148377
0.00269758
0.00367048
0.0044709
0.00514864
0.00573714
0.0062592
0.00673013
0.0071608
0.00755848
0.00792793
0.00827203
0.0085923
0.00888927
0.00916277
0.00941212
0.00963636
0.0098343
0.0100047
0.010146
0.0102568
0.010336
0.000175372
0.00139956
0.00256196
0.00350448
0.00428758
0.00495634
0.00554139
0.00606326
0.00653587
0.00696934
0.0073704
0.00774354
0.00809154
0.00841593
0.00871735
0.00899574
0.00925061
0.00948113
0.00968629
0.00986487
0.0100155
0.0101366
0.0102271
0.00016673
0.00131651
0.00243013
0.00334522
0.00411382
0.0047761
0.00535931
0.00588216
0.00635763
0.00679502
0.00719987
0.00757658
0.00792793
0.00825551
0.00856011
0.00884193
0.00910066
0.00933574
0.0095463
0.00973132
0.0098895
0.0100194
0.0101198
0.000158055
0.00124304
0.00231365
0.00320542
0.00396293
0.00462157
0.0052053
0.00573066
0.00620943
0.00664981
0.00705759
0.00743709
0.00779054
0.00811971
0.00842566
0.00870885
0.00896927
0.00920662
0.0094203
0.00960947
0.00977298
0.00990951
0.0100178
0.000149897
0.00118552
0.002223
0.00309784
0.00384882
0.004507
0.00509329
0.00562219
0.00610421
0.00654702
0.00695617
0.00733578
0.00768873
0.00801716
0.00832197
0.00860388
0.00886329
0.00910016
0.00931418
0.00950473
0.00967087
0.00981141
0.00992516
0.000142923
0.00114812
0.00216678
0.00303404
0.00378453
0.00444586
0.00503645
0.00556918
0.00605361
0.00649715
0.00690538
0.00728255
0.00763189
0.0079558
0.00825591
0.00853338
0.00878862
0.00902185
0.00923309
0.00942194
0.00958768
0.00972925
0.00984558
0.000137757
0.00113312
0.00215112
0.00302298
0.00378034
0.00444861
0.00504472
0.0055807
0.0060658
0.00650746
0.00691165
0.007283
0.0076252
0.0079411
0.0082328
0.00850183
0.00874914
0.00897532
0.00918052
0.00936443
0.0095266
0.00966613
0.00978205
0.000134799
0.00114152
0.00217938
0.00306938
0.00384128
0.00451986
0.00512195
0.00565977
0.00614299
0.00657955
0.00697605
0.00733781
0.00766908
0.00797326
0.00825294
0.00851007
0.00874598
0.00896157
0.00915726
0.00933306
0.00948863
0.00962316
0.00973576
0.000134211
0.00117318
0.00225098
0.00317168
0.00396465
0.00465595
0.00526372
0.00580142
0.00627983
0.00670787
0.00709298
0.00744143
0.00775818
0.0080472
0.00831159
0.00855372
0.00877527
0.00897741
0.0091608
0.00932569
0.00947187
0.00959873
0.00970548
0.000135957
0.00122581
0.00235971
0.00332044
0.00413918
0.00484475
0.0054576
0.00599317
0.00646389
0.00688011
0.00725052
0.0075824
0.00788154
0.00815256
0.00839906
0.00862377
0.0088287
0.00901525
0.00918429
0.00933624
0.00947104
0.00958825
0.00968718
0.000139952
0.00129405
0.0024937
0.00350047
0.00434856
0.00506985
0.00568734
0.00621889
0.00667915
0.00708048
0.00743316
0.00774564
0.00802465
0.00827547
0.00850216
0.00870779
0.00889462
0.00906423
0.00921765
0.00935542
0.00947765
0.00958402
0.00967395
0.000146171
0.00137159
0.00264109
0.00369865
0.00457994
0.00531849
0.00593979
0.00646478
0.00691122
0.00729412
0.00762577
0.00791601
0.00817257
0.00840134
0.00860679
0.00879223
0.00896008
0.00911204
0.00924922
0.00937227
0.0094814
0.00957643
0.00965688
0.000154695
0.00145667
0.00279964
0.00391422
0.00483292
0.00558903
0.00621109
0.00672461
0.00715181
0.00751117
0.00781742
0.00808194
0.00831337
0.00851814
0.00870096
0.00886525
0.00901348
0.00914736
0.00926804
0.00937619
0.00947211
0.00955571
0.00962661
0.000165772
0.00155425
0.00298147
0.00416367
0.00512349
0.00589357
0.00650844
0.00700112
0.00740015
0.00772837
0.00800318
0.0082374
0.00844035
0.0086187
0.00877718
0.00891917
0.00904701
0.00916232
0.00926619
0.00935928
0.00944189
0.00951402
0.00957538
0.000179986
0.00167629
0.00321473
0.00448165
0.00548271
0.00625514
0.00684677
0.00730298
0.00766073
0.00794767
0.00818351
0.00838195
0.00855246
0.00870154
0.00883364
0.00895183
0.00905819
0.00915415
0.00924063
0.00931821
0.00938718
0.00944757
0.00949913
0.000198234
0.00184226
0.00354658
0.00492101
0.00595239
0.00670087
0.00724173
0.00763889
0.00793878
0.00817287
0.00836178
0.00851896
0.00865319
0.00877022
0.00887386
0.00896663
0.00905024
0.00912579
0.00919401
0.00925533
0.00930999
0.009358
0.00939915
0.000223758
0.00209614
0.00406809
0.00556373
0.00658181
0.00725313
0.00770121
0.00801115
0.00823562
0.00840618
0.00854167
0.0086535
0.00874871
0.00883172
0.00890535
0.00897143
0.00903116
0.00908529
0.00913431
0.0091785
0.00921801
0.00925283
0.00928274
0.000271343
0.00256642
0.00498784
0.00654145
0.00741825
0.00791659
0.00821657
0.00841074
0.0085459
0.00864642
0.00872549
0.00879058
0.00884606
0.00889458
0.0089378
0.00897676
0.00901211
0.00904428
0.00907351
0.00909994
0.00912364
0.00914457
0.00916256
0.00042683
0.00379015
0.0068743
0.00803311
0.00846161
0.00865236
0.00875389
0.00881599
0.00885824
0.00888947
0.0089141
0.0089345
0.00895202
0.00896746
0.00898131
0.00899387
0.00900534
0.00901582
0.00902538
0.00903406
0.00904185
0.00904874
0.00905465
0.000365325
0.000352091
0.000349469
0.0003632
0.0033095
0.00310961
0.00307345
0.00316474
0.00591095
0.00575816
0.00569846
0.00572648
0.00752914
0.00745668
0.00741191
0.00739578
0.00857384
0.00854157
0.00851179
0.00848485
0.0092982
0.00928339
0.00926206
0.00923394
0.00981893
0.00980874
0.00979137
0.00976614
0.0101915
0.0101803
0.0101675
0.0101512
0.01044
0.01042
0.0104003
0.0103815
0.0106303
0.0106065
0.01058
0.0105519
0.0107594
0.0107328
0.0107018
0.0106674
0.0108367
0.0108094
0.0107774
0.0107412
0.0108828
0.0108563
0.0108246
0.0107879
0.010907
0.0108815
0.0108502
0.0108133
0.0109123
0.0108879
0.0108572
0.0108203
0.0109016
0.0108785
0.0108488
0.0108125
0.0108764
0.0108553
0.0108273
0.0107923
0.0108375
0.0108192
0.0107935
0.0107606
0.0107853
0.0107704
0.0107479
0.0107179
0.0107204
0.0107097
0.0106911
0.0106647
0.0106441
0.0106384
0.0106244
0.0106025
0.0105585
0.0105582
0.0105496
0.010533
0.0104656
0.0104713
0.0104687
0.010458
0.0103681
0.0103799
0.0103835
0.0103792
0.0102683
0.0102862
0.0102961
0.0102981
0.0101693
0.0101928
0.0102085
0.0102167
0.0100742
0.0101025
0.0101233
0.010137
0.00998668
0.0100187
0.0100437
0.0100619
0.00991027
0.00994484
0.00997278
0.00999428
0.00984778
0.00988354
0.0099131
0.00993662
0.0098005
0.00983614
0.00986606
0.00989034
0.00976746
0.00980187
0.00983101
0.00985492
0.00974501
0.00977731
0.00980481
0.0098275
0.0097268
0.00975644
0.00978174
0.00980266
0.00970438
0.00973112
0.00975401
0.00977295
0.00966872
0.00969253
0.00971297
0.00972994
0.00961211
0.00963298
0.00965099
0.009666
0.00953028
0.00954806
0.00956349
0.00957643
0.0094242
0.00943856
0.00945106
0.00946157
0.00930103
0.00931151
0.00932062
0.00932824
0.00917357
0.00917983
0.00918524
0.00918969
0.00905825
0.00906028
0.00906201
0.00906339
0.0012898
0.00235783
0.00295845
0.00343789
0.00401304
0.00446199
0.00467204
0.00469521
0.0046527
0.00462521
0.00463883
0.00467854
0.00470619
0.00467119
0.00450245
0.00411899
0.00340621
0.00213669
0.000257707
0.00379854
0.00440242
0.00469231
0.00486939
0.00516166
0.00545779
0.00559659
0.00559551
0.00554462
0.00550804
0.00549222
0.00547703
0.00542763
0.00529684
0.00501528
0.00449405
0.00360606
0.0021604
0.00026956
0.00591868
0.00612331
0.00618728
0.00619312
0.00626999
0.00639248
0.00645028
0.00641917
0.00635668
0.00630024
0.00624503
0.00616709
0.00603372
0.00580086
0.00540284
0.00474953
0.00372226
0.00216085
0.000274449
0.00740746
0.00741047
0.00734965
0.00726426
0.00722019
0.00721955
0.00720156
0.00714102
0.00706161
0.00697772
0.00687722
0.00673495
0.00651926
0.00618918
0.00568682
0.00492789
0.00380213
0.0021663
0.000277667
0.00844165
0.00835354
0.00822737
0.00809393
0.00798682
0.00791315
0.00784125
0.00775174
0.00764905
0.00753296
0.00738548
0.00718247
0.00689479
0.00648536
0.00589961
0.00505996
0.00386212
0.00218476
0.000280871
0.00917461
0.00904592
0.00888625
0.00872721
0.00858762
0.00847266
0.00836499
0.00824966
0.00812108
0.00797095
0.0077807
0.00752712
0.00718248
0.00671074
0.00605912
0.00515438
0.0039
0.00219321
0.000284827
0.00970815
0.00956118
0.0093824
0.00920801
0.00905049
0.0089111
0.00877886
0.00864135
0.0084882
0.0083074
0.00808032
0.00778429
0.00739218
0.00686803
0.00616074
0.00520118
0.00390153
0.00217694
0.000287449
0.0101076
0.00994764
0.00975565
0.00957144
0.009403
0.00924781
0.00909742
0.0089401
0.00876335
0.00855512
0.00829561
0.00796178
0.00752676
0.00695476
0.00619672
0.0051881
0.00385052
0.00212064
0.000287772
0.0103458
0.0102106
0.0100303
0.00984567
0.00967023
0.00950268
0.00933817
0.00916261
0.00896172
0.0087269
0.00843602
0.0080662
0.00758967
0.00697104
0.00616432
0.00511024
0.00374102
0.00202007
0.000285186
0.0104988
0.0103759
0.0102166
0.0100426
0.00986789
0.00969513
0.00952188
0.00932746
0.00909914
0.00884002
0.00851671
0.00810963
0.00759033
0.00692496
0.00607151
0.0049782
0.00359071
0.00189992
0.000279888
0.0106035
0.0104814
0.0103316
0.0101686
0.00999708
0.00982123
0.00963458
0.00942618
0.00919382
0.00891883
0.00855732
0.00811302
0.00754941
0.00683676
0.0059404
0.00481903
0.00343608
0.00180955
0.000273109
0.0106731
0.010549
0.0104014
0.0102388
0.0100633
0.00987646
0.00967565
0.00945971
0.00922657
0.00894729
0.00858511
0.00810877
0.0074944
0.00674133
0.00581132
0.0046702
0.00330061
0.00174035
0.000267803
0.0107177
0.0105897
0.0104383
0.0102695
0.0100865
0.0098889
0.00967583
0.00944958
0.00920497
0.00891861
0.00855964
0.0080858
0.007464
0.00669041
0.00573773
0.00459761
0.00323718
0.00169482
0.00026847
0.010742
0.0106104
0.0104541
0.0102774
0.0100837
0.00987414
0.00964902
0.00940981
0.00915108
0.00885009
0.00848016
0.00801031
0.00742266
0.00669695
0.00580575
0.00470193
0.00337499
0.00179006
0.000280764
0.010749
0.0106157
0.0104556
0.0102722
0.0100688
0.00984673
0.00960675
0.00934986
0.00907176
0.00875813
0.00838608
0.0079271
0.00736951
0.00670204
0.00589743
0.00492012
0.00370391
0.00211328
0.00029471
0.0107425
0.010609
0.0104463
0.0102574
0.0100452
0.00981133
0.00955516
0.0092784
0.0089795
0.0086499
0.00827265
0.00782447
0.00728694
0.00664594
0.00588489
0.00496799
0.0038205
0.00224315
0.000302456
0.0107245
0.0105922
0.0104279
0.0102339
0.0100131
0.0097673
0.00949627
0.00919981
0.00888024
0.00853382
0.00814842
0.00770198
0.00716973
0.00653531
0.0057862
0.00489066
0.00376678
0.00222377
0.000285559
0.0106959
0.0105663
0.0104013
0.010203
0.00997392
0.00971621
0.00943048
0.009117
0.00877651
0.00840996
0.00800783
0.00754975
0.00700804
0.00636408
0.0056053
0.00470574
0.003594
0.0021023
0.000265926
0.0106575
0.0105321
0.010368
0.0101668
0.0099308
0.0096622
0.00936226
0.00903204
0.00867226
0.00828086
0.0078527
0.0073693
0.00680478
0.00613872
0.00535741
0.00444057
0.0033347
0.00191779
0.000244784
0.0106099
0.0104908
0.0103299
0.0101283
0.00988804
0.00961111
0.00929897
0.00895284
0.00857337
0.00815769
0.00769755
0.00718062
0.00658465
0.00588904
0.00508011
0.00414264
0.00304258
0.00170869
0.000223768
0.0105547
0.0104443
0.0102894
0.0100908
0.00985023
0.00956913
0.00924874
0.00888989
0.00849258
0.00805409
0.00756594
0.00701476
0.00638603
0.00566118
0.00482777
0.00387499
0.00278606
0.00152806
0.000207291
0.0104937
0.0103944
0.0102488
0.0100573
0.00982093
0.00954093
0.00921792
0.00885204
0.00844248
0.00798623
0.00747637
0.00690155
0.00624662
0.00550072
0.004653
0.00369561
0.00262095
0.00141317
0.000197686
0.0104283
0.0103426
0.0102094
0.0100288
0.00980157
0.00952829
0.00920905
0.00884333
0.0084296
0.00796463
0.00744248
0.00685412
0.00618831
0.00543451
0.00458411
0.00363066
0.00256725
0.00137993
0.000194864
0.0103601
0.0102896
0.0101714
0.010005
0.00979109
0.00952963
0.00922026
0.00886188
0.00845254
0.00798889
0.00746576
0.00687587
0.00621034
0.00546004
0.00461641
0.00367057
0.0026095
0.00140899
0.000195505
0.0102899
0.0102355
0.0101338
0.00998409
0.00978652
0.00954081
0.00924615
0.00890105
0.00850325
0.0080494
0.00753478
0.00695311
0.00629661
0.00555639
0.00472223
0.00378064
0.00270987
0.00147274
0.000198007
0.0102189
0.0101805
0.0100957
0.00996371
0.00978417
0.00955656
0.00927972
0.00895184
0.00857039
0.00813196
0.00763195
0.00706432
0.00642134
0.00569327
0.00486727
0.00392467
0.00283517
0.00154925
0.000200915
0.0101487
0.0101252
0.0100567
0.00994211
0.00978088
0.00957212
0.00931436
0.0090055
0.00864275
0.00822244
0.00773978
0.00718842
0.00656001
0.00584331
0.00502264
0.00407456
0.00296135
0.00162355
0.000203438
0.0100816
0.010071
0.0100171
0.00991864
0.0097747
0.00958414
0.00934515
0.0090553
0.00871147
0.00830962
0.0078445
0.00730915
0.0066942
0.00598674
0.0051684
0.00421187
0.00307339
0.00168669
0.000205271
0.01002
0.0100197
0.00997805
0.00989364
0.00976511
0.00959103
0.00936927
0.00909704
0.00877083
0.00838614
0.00793711
0.00741595
0.00681223
0.00611134
0.00529233
0.00432549
0.00316255
0.00173293
0.000206904
0.0099663
0.00997339
0.00994126
0.00986823
0.00975264
0.00959264
0.00938576
0.00912886
0.00881799
0.00844811
0.00801275
0.00750304
0.0069078
0.00621117
0.00539052
0.004413
0.00322804
0.00176348
0.000207754
0.00992187
0.00993345
0.00990801
0.00984361
0.00973826
0.00958961
0.00939489
0.00915057
0.0088522
0.00849419
0.00806972
0.00756929
0.00698055
0.0062864
0.00546289
0.00447533
0.00327168
0.00178031
0.000207863
0.00988642
0.00989991
0.00987864
0.00982035
0.00972264
0.00958271
0.00939744
0.0091629
0.00887432
0.00852575
0.00810965
0.00761604
0.00703171
0.00633869
0.00551199
0.00451581
0.00329746
0.00178718
0.000207417
0.00985749
0.0098709
0.00985186
0.00979773
0.0097057
0.00957252
0.00939453
0.00916748
0.00888627
0.0085446
0.0081345
0.00764556
0.00706399
0.0063712
0.00554154
0.00453863
0.0033097
0.00178738
0.000206558
0.00983027
0.00984248
0.0098246
0.00977363
0.00968625
0.00955864
0.00938659
0.00916541
0.00888968
0.00855288
0.0081468
0.00766076
0.00708067
0.00638757
0.00555546
0.00454776
0.00331199
0.00178311
0.000205451
0.00979786
0.00980859
0.00979177
0.00974401
0.00966142
0.00953949
0.00937324
0.00915733
0.00888604
0.00855272
0.00814916
0.00766467
0.00708507
0.00639131
0.00555732
0.00454659
0.00330713
0.00177597
0.00020412
0.00975221
0.00976181
0.00974669
0.00970319
0.00962684
0.00951224
0.0093532
0.00914334
0.00887649
0.00854605
0.00814406
0.00766013
0.00708026
0.00638557
0.00555015
0.00453779
0.00329712
0.00176691
0.000202683
0.00968576
0.0096947
0.00968222
0.00964465
0.00957717
0.00947327
0.0093248
0.00912341
0.00886215
0.00853468
0.00813381
0.00764977
0.00706907
0.00637317
0.00553656
0.00452353
0.00328351
0.00175674
0.000201214
0.00959353
0.00960189
0.00959261
0.00956258
0.00950725
0.00941913
0.00928696
0.00909839
0.00884486
0.00852074
0.00812069
0.00763609
0.0070541
0.00635671
0.00551895
0.00450581
0.00326763
0.00174602
0.000199837
0.00947546
0.00948257
0.00947612
0.00945428
0.00941392
0.00934765
0.00924033
0.00907186
0.00882908
0.00850763
0.00810734
0.00762154
0.00703789
0.00633877
0.0054998
0.00448671
0.00325097
0.00173548
0.000198636
0.00933817
0.0093429
0.00933803
0.00932329
0.00929822
0.00925799
0.00918604
0.00905146
0.00882452
0.00850125
0.00809711
0.00760868
0.00702296
0.00632201
0.00548173
0.00446863
0.00323525
0.00172581
0.000197758
0.00919525
0.00919696
0.00919261
0.0091828
0.00916915
0.00915122
0.00911894
0.00904366
0.00884381
0.0085089
0.00809343
0.00759985
0.00701163
0.00630895
0.00546748
0.00445418
0.00322252
0.00171782
0.000197319
0.00906497
0.00906481
0.00906229
0.00905767
0.00905209
0.00904673
0.00904036
0.0090381
0.00888512
0.00852534
0.00809589
0.00759611
0.00700565
0.00630179
0.00545952
0.00444596
0.00321503
0.00171271
0.000197193
)
;

boundaryField
{
    leftWall
    {
        type            nutkWallFunction;
        Cmu             0.09;
        kappa           0.41;
        E               9.8;
        value           nonuniform List<scalar> 
50
(
2.63836e-06
7.42436e-06
8.52185e-06
9.40526e-06
1.02951e-05
1.24621e-05
1.40833e-05
1.50137e-05
1.65509e-05
1.88164e-05
2.10033e-05
2.32328e-05
2.52279e-05
2.62325e-05
2.56435e-05
2.48361e-05
2.53103e-05
2.50452e-05
2.46929e-05
2.54722e-05
2.59204e-05
2.58469e-05
2.52328e-05
2.44634e-05
2.37496e-05
2.30928e-05
2.24505e-05
2.17647e-05
2.09803e-05
2.00558e-05
1.89652e-05
1.77217e-05
1.64494e-05
1.51245e-05
1.37937e-05
1.25467e-05
1.14892e-05
1.0714e-05
1.02758e-05
1.01927e-05
1.04555e-05
1.1054e-05
1.19933e-05
1.32874e-05
1.49566e-05
1.70608e-05
1.97419e-05
2.34316e-05
2.99598e-05
4.89001e-05
)
;
    }
    rightWall
    {
        type            nutkWallFunction;
        Cmu             0.09;
        kappa           0.41;
        E               9.8;
        value           nonuniform List<scalar> 
50
(
3.46191e-06
1.2685e-05
1.56253e-05
1.96259e-05
2.24868e-05
2.43636e-05
2.52493e-05
2.62897e-05
2.83087e-05
3.0268e-05
3.11728e-05
3.1781e-05
3.22784e-05
3.2696e-05
3.29727e-05
3.30307e-05
3.28144e-05
3.22827e-05
3.12614e-05
3.0546e-05
2.99173e-05
3.31781e-05
3.39688e-05
3.43748e-05
3.14643e-05
2.87264e-05
2.58874e-05
2.32688e-05
2.12584e-05
2.01288e-05
1.97644e-05
1.98628e-05
2.01949e-05
2.0572e-05
2.08911e-05
2.11204e-05
2.1287e-05
2.13739e-05
2.13787e-05
2.13125e-05
2.11852e-05
2.10154e-05
2.08129e-05
2.0596e-05
2.03763e-05
2.01715e-05
1.99934e-05
1.98624e-05
1.97948e-05
1.97788e-05
)
;
    }
    lowerWall
    {
        type            nutkWallFunction;
        Cmu             0.09;
        kappa           0.41;
        E               9.8;
        value           nonuniform List<scalar> 
62
(
2.63836e-06
4.14337e-06
5.04253e-06
5.69586e-06
6.2059e-06
6.61349e-06
6.94168e-06
7.20749e-06
7.42401e-06
7.60121e-06
7.74538e-06
7.86042e-06
7.94996e-06
8.01437e-06
8.05008e-06
8.05646e-06
8.03583e-06
7.95306e-06
7.76749e-06
7.42607e-06
6.83504e-06
5.80833e-06
4.20257e-06
4.20257e-06
1.19273e-05
1.41284e-05
1.62876e-05
1.86849e-05
2.15386e-05
2.51259e-05
3.10012e-05
3.5836e-05
3.46514e-05
3.57232e-05
3.59251e-05
4.96168e-06
1.49759e-05
1.81353e-05
2.37345e-05
2.79169e-05
3.10324e-05
3.43612e-05
3.8464e-05
4.96168e-06
6.71958e-06
7.56728e-06
7.98894e-06
8.17351e-06
8.36953e-06
8.54522e-06
8.59904e-06
8.54872e-06
8.54552e-06
8.60891e-06
8.86716e-06
9.08632e-06
9.17234e-06
9.01516e-06
8.61392e-06
7.84225e-06
6.54158e-06
3.46191e-06
)
;
    }
    atmosphere
    {
        type            calculated;
        value           nonuniform List<scalar> 
46
(
0.009
0.009
0.009
0.009
0.009
0.009
0.009
0.009
0.009
0.009
0.009
0.009
0.009
0.009
0.009
0.009
0.009
0.009
0.009
0.009
0.009
0.009
0.009
0.009
0.009
0.009
0.009
0.009
0.009
0.009
0.009
0.009
0.009
0.009
0.009
0.009
0.00852534
0.00809589
0.00759611
0.00700565
0.00630179
0.00545952
0.00444596
0.00321503
0.00171271
0.000197193
)
;
    }
    defaultFaces
    {
        type            empty;
    }
}


// ************************************************************************* //
