/*--------------------------------*- C++ -*----------------------------------*\
  =========                 |
  \\      /  F ield         | OpenFOAM: The Open Source CFD Toolbox
   \\    /   O peration     | Website:  https://openfoam.org
    \\  /    A nd           | Version:  13
     \\/     M anipulation  |
\*---------------------------------------------------------------------------*/
FoamFile
{
    format      ascii;
    class       volScalarField;
    location    "1.7";
    object      p;
}
// * * * * * * * * * * * * * * * * * * * * * * * * * * * * * * * * * * * * * //

dimensions      [1 -1 -2 0 0 0 0];

internalField   nonuniform List<scalar> 
2268
(
4569.03
4574.43
4600.04
4645.77
4709.35
4789.15
4882.92
4988.32
5103.4
5225.92
5353.08
5482.08
5611.37
5740.33
5867.64
5991.93
6111.52
6221.68
6316.14
6387.77
6427.65
6428.07
6400.68
3771.59
3778.05
3804.37
3851.52
3916.67
3998.33
4094.04
4201.46
4318.34
4442.12
4569.67
4697.97
4825.36
4951.38
5074.85
5194.44
5309.29
5414.72
5505.01
5573.18
5610.84
5607.86
5580.89
2969.94
2979.88
3007.17
3056.13
3123.47
3207.77
3306.25
3416.12
3535.2
3660.62
3788.85
3916.1
4041.35
4164.05
4282.93
4396.56
4505.33
4604.47
4689.12
4753.46
4790.45
4786
4761.69
2162.97
2175.49
2202.86
2253.85
2324.31
2412.58
2514.84
2627.67
2749.3
2876.88
3006.33
3133.15
3256.04
3375.79
3490.44
3598.39
3702.57
3796.84
3876.67
3937.76
3974.11
3966.39
3942.37
1385.75
1401.4
1425.33
1467.49
1527.42
1606.44
1706.82
1823.75
1950.34
2083.33
2218.23
2347.29
2468.76
2586.42
2697.32
2799.48
2900.02
2989.89
3064.98
3121.98
3156.02
3144.16
3122.45
941.818
950.275
960.683
976.269
999.27
1032.36
1081.31
1145.3
1223.93
1317.94
1424.66
1543.14
1669.68
1792.84
1904.89
2001.67
2098.73
2183.56
2251.1
2301.22
2330.79
2317.45
2303.84
835.449
836.6
836.839
836.388
835.387
834.17
832.795
835.007
845.76
867.646
901.013
951.665
1013.33
1081.33
1149.96
1224.4
1323.66
1405.25
1461.45
1500.53
1522.02
1507.7
1498.52
774.227
775.474
775.168
773.949
771.924
769.257
765.97
762.411
758.133
752.589
745.494
736.213
725.48
721.67
726.61
747.907
786.835
813.177
842.763
873.616
888.985
884.216
882.965
2611.33
2671.8
2702.34
2709.9
2734.1
2750.87
2799.02
2823.9
2795.42
2717.92
2604.9
2448.6
2310.02
2218.03
2159.82
2145.16
2148.11
2151.58
2129.68
1889.04
1941.46
1981.84
2004.04
2047.41
2152.76
2233.61
2277.17
2268.85
2204.17
2064.83
1911.78
1775.56
1690.71
1641.92
1620.96
1612.33
1618.65
1624.68
1432.39
1450.38
1446.3
1476.58
1502.74
1539.11
1584.87
1650.67
1664.94
1623.46
1529.81
1451.2
1382.21
1331.39
1297
1272.96
1253.67
1247.83
1249.9
1298.86
1294.29
1214.38
1190.44
1201.39
1172.68
1148.37
1165.68
1178.97
1194.29
1181.81
1165.1
1139.51
1122.12
1103.53
1090.94
1079.63
1052.28
1027.57
1223.3
1238.38
1134.07
1035.39
1033.43
1032.88
995.451
954.679
949.358
975.414
999.32
1000.75
983.629
984.855
979.822
966.688
952.852
932.85
920.817
1047.09
1136.89
1051.24
926.577
908.812
936.284
928.414
891.979
880.265
877.3
892.939
902.811
912.053
911.399
904.166
884.858
861.3
855.283
855.175
745.642
980.694
930.305
832.765
800.257
829.707
852.606
832.594
828.025
835.065
845.106
857.043
864.741
856.697
845.957
828.436
802.451
801.528
806.572
483
771.343
777.208
739.142
706.045
727.23
763.056
769.825
769.866
780.59
792.091
802.102
806.505
798.925
788.433
774.188
751.855
751.079
759.907
677.964
679.661
679.983
679.16
677.408
674.763
671.255
666.67
660.681
652.914
643.819
634.181
625.192
615.827
605.316
591.745
572.265
553.425
548.644
554.025
555.813
556.575
562.224
545.278
547.425
548.706
548.808
547.829
545.759
542.579
538.334
532.828
525.921
517.655
508.433
498.485
487.839
476.456
464.519
452.054
439.857
425.258
409.689
397.238
388.866
378.846
412.232
414.485
416.567
417.652
417.427
415.833
412.879
408.878
403.925
397.859
390.498
381.873
372.4
362.287
351.777
340.742
328.914
316.554
303.909
291.674
281.021
272.33
264.969
289.2
288.394
289.776
290.671
290.125
287.86
285.244
282.006
277.696
272.408
266.203
259.166
251.414
243.109
234.769
226.027
216.568
207.248
198.713
192.398
188.324
186.774
187.364
195.754
194.26
194.228
193.417
191.143
187.619
185.035
182.767
179.522
175.255
170.521
165.581
160.324
154.649
148.545
142.432
136.546
131.441
127.749
125.608
125.491
126.905
130.3
129.92
129.129
128.092
126.407
123.948
121.099
118.4
116.091
113.277
109.71
105.854
101.781
97.5375
93.2103
88.4322
83.605
79.4661
76.0195
73.036
70.3994
67.7569
66.2338
66.166
73.3478
71.1313
68.6691
65.6878
63.1998
61.2298
58.6568
55.6908
52.7582
49.8929
46.8677
43.6203
40.1467
36.6071
33.2443
30.207
27.5701
25.4016
23.7071
22.2705
20.7838
19.4435
18.379
27.1964
27.0909
24.4834
20.6464
18.6301
17.4392
16.1917
15.0071
13.9578
12.9377
11.87
10.7622
9.62673
8.50571
7.45075
6.51014
5.69707
4.96418
4.2501
3.58893
3.76093
3.82778
3.86211
6.87599
8.04084
7.14573
5.36834
4.67875
4.5014
4.43834
4.41747
4.38671
4.34142
4.28761
4.22418
4.15609
4.09072
4.02793
3.9616
3.8887
3.8224
3.77572
3.73294
3.68909
3.6656
3.60631
4.42972
4.4849
4.68502
4.54975
4.4401
4.39428
4.37123
4.35428
4.33422
4.30998
4.27937
4.23772
4.18643
4.13015
4.06897
3.99988
3.9197
3.83119
3.74381
3.67554
3.6064
3.55679
3.49631
4.29161
4.29253
4.30469
4.29132
4.28374
4.26649
4.24361
4.21976
4.19553
4.16715
4.13101
4.08574
4.03259
3.97503
3.9135
3.84605
3.77244
3.69649
3.62358
3.5485
3.4888
3.41947
3.3581
4.15781
4.14909
4.11839
4.12773
4.13971
4.13201
4.11346
4.0908
4.0643
4.03277
3.99275
3.94596
3.89297
3.83524
3.773
3.70493
3.63166
3.55688
3.48612
3.41738
3.34394
3.28117
3.21842
4.02849
4.01882
4.0063
4.00422
4.00818
4.00074
3.98484
3.96325
3.93588
3.90206
3.86268
3.81702
3.76575
3.71072
3.64992
3.58329
3.51189
3.438
3.36475
3.29264
3.22128
3.15691
3.08922
3.90068
3.89366
3.88585
3.88293
3.88025
3.87152
3.85621
3.83508
3.80768
3.77319
3.73424
3.69064
3.64284
3.59061
3.53216
3.46834
3.40005
3.32852
3.25522
3.18109
3.1069
3.03884
2.9687
3.77316
3.76744
3.76203
3.75774
3.75248
3.74261
3.72741
3.70681
3.68032
3.64758
3.60922
3.56726
3.52206
3.47132
3.41502
3.35379
3.28805
3.21834
3.14539
3.07035
2.99497
2.92494
2.85261
3.64473
3.64007
3.6355
3.63065
3.62394
3.6134
3.5983
3.57829
3.55298
3.52219
3.48631
3.44609
3.40168
3.3524
3.2981
3.23907
3.1754
3.10719
3.03492
2.96002
2.88456
2.81396
2.74067
3.51481
3.51092
3.50684
3.50173
3.49435
3.48354
3.46866
3.4493
3.42514
3.39602
3.36208
3.32365
3.28079
3.23325
3.181
3.12408
3.06237
2.99578
2.9247
2.85068
2.77594
2.7057
2.63233
3.38325
3.37993
3.37624
3.37114
3.3636
3.35283
3.33833
3.31971
3.29666
3.26905
3.23688
3.20026
3.15922
3.11365
3.06355
3.00879
2.94916
2.88447
2.81507
2.74256
2.66915
2.59984
2.52725
3.25022
3.24737
3.24403
3.23911
3.23169
3.2212
3.20723
3.18943
3.16752
3.14137
3.1109
3.07613
3.03704
2.99358
2.94568
2.89317
2.8358
2.7733
2.70601
2.6355
2.56394
2.49616
2.42487
3.11594
3.11351
3.11053
3.10587
3.09874
3.08867
3.07535
3.05844
3.0377
3.01299
2.9842
2.95129
2.91422
2.87292
2.82729
2.77716
2.72222
2.66218
2.59735
2.52927
2.46
2.39416
2.32485
2.98062
2.97861
2.97599
2.97165
2.96489
2.95534
2.94272
2.92674
2.90719
2.8839
2.85677
2.82572
2.79068
2.75159
2.70831
2.66065
2.60829
2.55094
2.48888
2.42353
2.35689
2.29338
2.22627
2.84445
2.84288
2.84064
2.83664
2.8303
2.8213
2.80941
2.79438
2.77599
2.75411
2.7286
2.69939
2.66639
2.62952
2.58864
2.54354
2.49389
2.4394
2.38032
2.31799
2.25427
2.1933
2.12883
2.70765
2.70655
2.70469
2.70103
2.69511
2.68666
2.6755
2.6614
2.64415
2.62362
2.5997
2.57229
2.54131
2.50666
2.4682
2.4257
2.37886
2.32738
2.27147
2.21238
2.15185
2.09375
2.03211
2.57042
2.56976
2.56828
2.56495
2.55943
2.55151
2.54104
2.52784
2.51169
2.49247
2.47008
2.44443
2.41542
2.38297
2.34692
2.30706
2.26309
2.21472
2.16212
2.10647
2.04934
1.99434
1.93601
2.43282
2.43269
2.43152
2.42849
2.42335
2.41593
2.40612
2.39374
2.37863
2.36066
2.33974
2.31578
2.28871
2.25841
2.22476
2.18755
2.14648
2.10128
2.0521
1.99999
1.94641
1.8947
1.83973
2.295
2.29529
2.29442
2.29168
2.2869
2.27997
2.27076
2.25916
2.24502
2.22822
2.2087
2.18638
2.16117
2.13298
2.1017
2.06711
2.02895
1.98694
1.94122
1.89272
1.84277
1.79439
1.74299
2.15697
2.15759
2.15698
2.15453
2.1501
2.14362
2.135
2.12413
2.1109
2.09521
2.077
2.05623
2.03283
2.0067
1.97774
1.94574
1.91046
1.87163
1.82937
1.78449
1.73822
1.69328
1.64539
2.01873
2.01959
2.0192
2.01701
2.01293
2.00688
1.99882
1.98865
1.9763
1.96167
1.94473
1.92543
1.90374
1.87961
1.8529
1.82345
1.79101
1.75533
1.71649
1.67524
1.63265
1.59119
1.54702
1.88025
1.88126
1.88106
1.87913
1.87537
1.86975
1.86221
1.85273
1.84122
1.82762
1.81191
1.79406
1.77404
1.75182
1.72729
1.70031
1.67065
1.63807
1.60261
1.56494
1.52601
1.48805
1.44746
1.74153
1.7426
1.74256
1.74086
1.73741
1.7322
1.72519
1.71636
1.70567
1.69309
1.67858
1.66216
1.64379
1.62345
1.60106
1.57648
1.54951
1.51994
1.4878
1.45366
1.41837
1.38386
1.34684
1.60256
1.60363
1.60371
1.60222
1.59906
1.59424
1.58774
1.57956
1.56969
1.55811
1.5448
1.52979
1.51307
1.4946
1.47432
1.45212
1.4278
1.40117
1.37226
1.34157
1.30987
1.27886
1.24522
1.46338
1.46441
1.46456
1.46325
1.46036
1.45591
1.44992
1.44239
1.43334
1.42275
1.41066
1.39706
1.38196
1.36536
1.34719
1.32734
1.30564
1.28192
1.2562
1.22891
1.2007
1.17308
1.14322
1.32405
1.32499
1.32518
1.32401
1.32136
1.31729
1.3118
1.30494
1.29671
1.28714
1.27625
1.26406
1.2506
1.23585
1.21976
1.20224
1.18314
1.16229
1.13972
1.11578
1.09104
1.06677
1.04063
1.18464
1.18548
1.18567
1.1846
1.18219
1.17848
1.17351
1.16732
1.15993
1.15138
1.14171
1.13095
1.11911
1.10619
1.09216
1.07694
1.06038
1.04235
1.02284
1.00218
0.980826
0.959858
0.937317
1.04525
1.04598
1.04613
1.04515
1.04297
1.03964
1.0352
1.02969
1.02316
1.01566
1.00721
0.997862
0.987633
0.976526
0.964511
0.951519
0.937431
0.922121
0.905586
0.888083
0.869996
0.85224
0.833102
0.905943
0.906561
0.906669
0.905785
0.903849
0.900912
0.897021
0.892223
0.886571
0.880114
0.872894
0.864947
0.856297
0.84695
0.836884
0.826039
0.814317
0.801604
0.787891
0.773399
0.758432
0.743735
0.727929
0.766831
0.76731
0.76739
0.76663
0.764968
0.762452
0.759133
0.755065
0.750304
0.744898
0.73889
0.732314
0.725194
0.717539
0.709331
0.700522
0.691027
0.680753
0.669693
0.658015
0.645957
0.634132
0.621374
0.627986
0.628304
0.628387
0.627789
0.626437
0.624373
0.621651
0.618329
0.614462
0.610098
0.605275
0.600024
0.594369
0.588316
0.581855
0.574946
0.567522
0.559507
0.550891
0.541808
0.532438
0.523228
0.513294
0.489467
0.489627
0.489759
0.489369
0.488356
0.486763
0.484651
0.482078
0.479098
0.475752
0.472074
0.468091
0.463821
0.459272
0.454435
0.449281
0.44376
0.437813
0.431438
0.424736
0.417828
0.411046
0.403715
0.351343
0.351508
0.351847
0.351723
0.351048
0.349912
0.348397
0.346561
0.34445
0.342095
0.339522
0.33675
0.333793
0.330656
0.327333
0.323804
0.320034
0.315985
0.311661
0.307139
0.302521
0.298033
0.29328
0.213484
0.213845
0.214775
0.215023
0.214636
0.213896
0.212933
0.211799
0.210521
0.209116
0.207597
0.205973
0.204251
0.202432
0.200512
0.198479
0.196313
0.193992
0.191527
0.188977
0.186415
0.183964
0.181659
0.0735975
0.0719143
0.0736177
0.0740393
0.0738639
0.0735356
0.0731512
0.072729
0.072275
0.0717912
0.0712781
0.0707365
0.0701666
0.0695683
0.0689392
0.068275
0.0675686
0.066814
0.0660154
0.0651931
0.0643754
0.0635874
0.0629668
618.396
617.307
598.988
578.32
364.101
362.052
362.143
345.34
261.901
261.181
260.213
258.768
191.259
194.744
198.855
202.388
135.983
140.442
145.074
148.055
66.9658
69.1514
73.0315
77.9959
17.9411
18.5496
20.1137
22.5138
3.73009
3.65174
3.61435
3.58942
3.48084
3.3674
3.25543
3.17563
3.40162
3.29232
3.1678
3.06975
3.24717
3.12707
2.99204
2.89134
3.10661
2.98392
2.84373
2.73745
2.9745
2.84966
2.70683
2.59836
2.8504
2.72261
2.57839
2.46943
2.73209
2.60305
2.45818
2.3487
2.61948
2.49045
2.34611
2.23671
2.51183
2.3839
2.24079
2.13217
2.40828
2.28231
2.14162
2.03436
2.30852
2.1854
2.04761
1.94233
2.21182
2.09228
1.95844
1.85548
2.11731
2.00205
1.8725
1.77253
2.02422
1.91369
1.78948
1.69295
1.93253
1.8273
1.70854
1.61594
1.84186
1.74232
1.62976
1.54118
1.75146
1.65799
1.55161
1.46748
1.66052
1.57322
1.47374
1.39434
1.56899
1.48807
1.39533
1.32101
1.47669
1.40218
1.31663
1.24739
1.38328
1.31522
1.23659
1.17271
1.2885
1.22674
1.15539
1.09695
1.1928
1.13728
1.07282
1.01991
1.09645
1.04696
0.989525
0.942099
0.999581
0.955912
0.904723
0.86214
0.901652
0.863579
0.818824
0.781168
0.80272
0.770064
0.731298
0.698506
0.702575
0.675103
0.642269
0.614059
0.600808
0.578267
0.55091
0.527188
0.497037
0.479066
0.457115
0.437736
0.391481
0.3778
0.360823
0.345671
0.284889
0.275312
0.263149
0.25189
0.177932
0.172529
0.164895
0.15702
0.0625522
0.061033
0.058461
0.0552244
437.837
526.946
571.829
594.142
581.784
589.231
624.1
657.783
674.013
688.536
701.234
710.254
713.557
709.18
700.995
690.84
685.077
688.346
695.55
308.996
347.985
395.978
441.661
449.477
450.292
468.926
507.062
541.522
563.686
580.217
590.643
594.088
591.709
590.933
593.793
604.45
611.905
616.43
256.561
280.229
309.557
341.247
362.456
369.473
374.562
393.947
422.937
448.489
466.658
479.185
487.491
495.513
506.027
519.977
533.982
541.503
545.751
207.463
225.77
247.494
270.467
289.757
301.054
310.599
323.232
337.684
355.997
373.887
391.153
408.339
426.27
442.204
456.433
468.384
475.153
479.176
152.561
165.509
183.109
202.445
220.146
234.665
248.203
262.923
277.272
291.106
308.422
327.971
348.375
366.363
382.019
395.624
406.219
412.117
415.883
86.2674
98.7661
114.491
133.019
151.635
169.014
185.696
202.734
219.907
236.979
254.427
272.66
291.478
308.974
324.363
337.321
346.981
352.294
355.734
26.7602
34.4475
45.9759
62.0634
81.8828
102.78
123.223
143.084
162.015
180.561
199.054
217.731
236.273
253.582
268.808
281.415
290.629
295.754
298.488
3.55808
4.51354
7.79393
13.8788
24.065
38.9042
58.2764
80.5901
103.571
125.138
144.982
163.942
182.414
199.75
215.163
227.941
237.231
242.418
244.649
3.12041
3.12284
3.06162
3.02288
3.43556
6.14348
12.9006
24.9819
42.7657
65.6594
90.3506
112.205
130.989
148.206
163.792
176.965
186.744
192.37
194.296
2.97423
2.91536
2.87038
2.84572
2.84069
2.84101
2.87057
3.22335
7.06782
17.3583
34.9811
56.8627
79.8879
99.8044
115.657
128.834
138.754
144.747
146.659
2.81189
2.76737
2.73011
2.69184
2.65099
2.60621
2.58629
2.60942
2.67175
2.77419
4.95001
14.1534
29.942
48.9638
69.0337
83.6955
92.5689
97.5092
97.6699
2.65138
2.61742
2.58013
2.54268
2.50953
2.47599
2.45013
2.42071
2.38477
2.39326
2.41768
2.42451
3.63849
11.4
25.5149
39.1679
48.399
51.9127
48.7293
2.50897
2.47327
2.43787
2.40188
2.36912
2.34181
2.32124
2.30318
2.26697
2.21922
2.1443
2.13358
2.17113
2.20698
3.13828
9.60384
16.9886
20.2429
17.0493
2.37929
2.3409
2.30516
2.26782
2.23447
2.20652
2.18364
2.1622
2.13139
2.09064
2.03269
1.98509
1.96101
1.99721
2.01405
1.83979
1.68727
2.15729
2.21926
2.25732
2.21893
2.18116
2.14146
2.10507
2.07272
2.04093
2.00543
1.97355
1.94075
1.90816
1.87336
1.84813
1.81375
1.76274
1.69449
1.62921
1.58492
1.58168
2.14446
2.105
2.0656
2.02393
1.98481
1.94849
1.91174
1.87173
1.83659
1.80945
1.78665
1.75833
1.72076
1.67427
1.6252
1.57027
1.53753
1.52717
1.53399
2.03978
1.99901
1.95836
1.91523
1.87424
1.83564
1.79835
1.76161
1.72778
1.69898
1.67136
1.63852
1.58983
1.54862
1.51064
1.48412
1.4664
1.46795
1.47836
1.94222
1.90044
1.85876
1.81462
1.7725
1.73288
1.69532
1.65969
1.62707
1.59755
1.56808
1.53535
1.49689
1.46424
1.43961
1.42062
1.40817
1.40982
1.41861
1.8511
1.80845
1.76601
1.7212
1.67844
1.63843
1.60111
1.56633
1.53456
1.5053
1.47674
1.44682
1.41614
1.38928
1.36886
1.35483
1.34849
1.34978
1.35389
1.76535
1.72221
1.67924
1.63404
1.59091
1.55073
1.51368
1.47961
1.44848
1.41989
1.39284
1.36624
1.34048
1.3186
1.30243
1.29229
1.28784
1.28808
1.28999
1.68429
1.64084
1.59761
1.55222
1.5089
1.46861
1.43167
1.39797
1.36736
1.3395
1.31383
1.29001
1.2683
1.25034
1.23726
1.22919
1.22559
1.22517
1.22538
1.60687
1.56353
1.52025
1.47488
1.43151
1.39116
1.35424
1.3207
1.29042
1.26316
1.23862
1.21669
1.19769
1.18242
1.17145
1.1648
1.1619
1.1616
1.1603
1.5326
1.48949
1.4464
1.40126
1.35799
1.31766
1.28074
1.24727
1.21717
1.19032
1.16656
1.14587
1.12849
1.11488
1.10534
1.09971
1.09743
1.09722
1.09615
1.46053
1.41798
1.37532
1.33063
1.28766
1.24749
1.21064
1.17722
1.14723
1.12063
1.09736
1.07747
1.06111
1.04855
1.0399
1.035
1.03323
1.03333
1.0326
1.39013
1.34829
1.30634
1.26235
1.21992
1.1801
1.14345
1.11016
1.08029
1.05388
1.03094
1.01154
0.995815
0.9839
0.975829
0.971376
0.969957
0.970364
0.969971
1.32047
1.27976
1.23881
1.19581
1.15419
1.11496
1.07872
1.04571
1.01606
0.989851
0.967169
0.948107
0.932771
0.921244
0.913495
0.909298
0.908059
0.908661
0.908609
1.2512
1.2118
1.17213
1.13042
1.0899
1.05155
1.01596
0.983443
0.954163
0.92826
0.905857
0.88707
0.872001
0.860699
0.853111
0.84898
0.847783
0.848523
0.848696
1.18161
1.14388
1.10579
1.06567
1.02655
0.989349
0.954689
0.922897
0.894188
0.868736
0.846697
0.828204
0.813357
0.802196
0.794646
0.790484
0.789182
0.789787
0.790532
1.1115
1.07559
1.03935
1.00108
0.96364
0.927876
0.89441
0.863595
0.835675
0.810851
0.789299
0.771168
0.75656
0.745521
0.737985
0.733716
0.732264
0.732803
0.733784
1.04036
1.00659
0.972426
0.936265
0.900738
0.866667
0.83465
0.805056
0.778148
0.754141
0.733229
0.715581
0.701309
0.690454
0.682953
0.678603
0.676966
0.677338
0.678359
0.968258
0.936558
0.904697
0.870846
0.837446
0.805296
0.774961
0.746818
0.721147
0.698181
0.678117
0.661123
0.647316
0.63673
0.629302
0.624821
0.62296
0.623127
0.624034
0.894965
0.865123
0.835865
0.804506
0.773414
0.743398
0.714981
0.688533
0.66434
0.642639
0.623626
0.60745
0.594216
0.583956
0.576612
0.572029
0.56991
0.569785
0.570559
0.819821
0.792953
0.765914
0.737083
0.708447
0.680737
0.65444
0.629907
0.607408
0.587165
0.569359
0.554128
0.541567
0.531708
0.524509
0.519823
0.517463
0.517062
0.517631
0.743305
0.719143
0.694555
0.668372
0.642321
0.61706
0.593043
0.570589
0.549952
0.53133
0.514883
0.500732
0.488959
0.479593
0.472601
0.467897
0.465322
0.464618
0.465003
0.66519
0.64353
0.621489
0.598038
0.574682
0.552003
0.530412
0.510199
0.491592
0.474758
0.459826
0.446896
0.436033
0.427269
0.420587
0.415912
0.41319
0.412252
0.412411
0.58495
0.565829
0.546383
0.525746
0.505194
0.485228
0.466219
0.448416
0.432019
0.417147
0.40389
0.392324
0.382504
0.374457
0.368177
0.363653
0.360847
0.359682
0.359669
0.502366
0.485739
0.468946
0.451199
0.433559
0.416448
0.400187
0.384989
0.371007
0.358284
0.346867
0.336811
0.328166
0.320959
0.315205
0.310896
0.308091
0.306785
0.306577
0.417073
0.403055
0.388969
0.374182
0.359556
0.345444
0.332129
0.319796
0.308483
0.29811
0.288691
0.280283
0.272939
0.266691
0.261556
0.257581
0.254822
0.253363
0.253014
0.329235
0.317777
0.306428
0.294653
0.283119
0.272141
0.262004
0.252882
0.24455
0.23672
0.229434
0.222792
0.216862
0.211681
0.207275
0.203665
0.200981
0.199394
0.198826
0.239227
0.230221
0.221616
0.212884
0.20449
0.196709
0.189835
0.184447
0.179449
0.174324
0.169266
0.164486
0.160077
0.156069
0.152462
0.149288
0.146641
0.144743
0.143879
0.14676
0.139919
0.134139
0.12849
0.123193
0.118376
0.114336
0.114561
0.113267
0.110919
0.108159
0.10535
0.102596
0.0999012
0.0972363
0.0945593
0.0918961
0.0894712
0.0878894
0.050024
0.0469615
0.0447176
0.042602
0.0405702
0.038432
0.0358709
0.0380585
0.0389194
0.0386758
0.0379883
0.0371842
0.0363227
0.035402
0.0343996
0.0332828
0.0320345
0.0307569
0.0298252
)
;

boundaryField
{
    leftWall
    {
        type            calculated;
        value           nonuniform List<scalar> 
50
(
4569.03
3771.59
2969.94
2162.97
1385.75
941.818
835.449
774.227
677.964
545.278
412.232
289.2
195.754
129.92
73.3478
27.1964
6.87599
4.42972
4.29161
4.15781
4.02849
3.90068
3.77316
3.64473
3.51481
3.38325
3.25022
3.11594
2.98062
2.84445
2.70765
2.57042
2.43282
2.295
2.15697
2.01873
1.88025
1.74153
1.60256
1.46338
1.32405
1.18464
1.04525
0.905943
0.766831
0.627986
0.489467
0.351343
0.213484
0.0735975
)
;
    }
    rightWall
    {
        type            calculated;
        value           nonuniform List<scalar> 
50
(
2129.68
1624.68
1249.9
1027.57
920.817
855.175
806.572
759.907
695.55
616.43
545.751
479.176
415.883
355.734
298.488
244.649
194.296
146.659
97.6699
48.7293
17.0493
2.21926
1.58168
1.53399
1.47836
1.41861
1.35389
1.28999
1.22538
1.1603
1.09615
1.0326
0.969971
0.908609
0.848696
0.790532
0.733784
0.678359
0.624034
0.570559
0.517631
0.465003
0.412411
0.359669
0.306577
0.253014
0.198826
0.143879
0.0878894
0.0298252
)
;
    }
    lowerWall
    {
        type            calculated;
        value           nonuniform List<scalar> 
62
(
4967.18
4972.58
4998.19
5043.92
5107.5
5187.3
5281.07
5386.47
5501.55
5624.07
5751.23
5880.23
6009.52
6138.48
6265.79
6390.08
6509.67
6619.83
6714.29
6785.92
6825.69
6826
6798.62
6400.68
5580.89
4761.69
3942.37
3122.45
2303.84
1498.52
882.965
811.637
802.499
720.253
745.085
2611.33
1889.04
1432.39
1298.86
1223.3
1047.09
745.642
483
2962.4
3022.91
3053.53
3060.9
3077.42
2996.79
3028.67
3053.78
3029.43
2950.72
2874.9
2734.55
2596.67
2505.57
2446.6
2431.17
2433.43
2436.63
2414.38
)
;
    }
    atmosphere
    {
        type            calculated;
        value           nonuniform List<scalar> 
46
(
0
-6.05417e-05
-4.64592e-05
-3.0089e-05
-1.68986e-05
-8.28728e-06
-3.58454e-06
-1.40333e-06
-5.41101e-07
0
0
0
-3.99411e-07
-6.41334e-07
-9.49828e-07
-1.2693e-06
-1.52199e-06
-1.61899e-06
-1.48882e-06
-1.12262e-06
0
0
0
-3.74309e-06
-3.8073e-06
-2.52398e-06
-8.2959e-07
0
0
0
0
0
0
0
0
0
0
0
0
0
0
0
0
0
0
0
)
;
    }
    defaultFaces
    {
        type            empty;
    }
}


// ************************************************************************* //
