/*--------------------------------*- C++ -*----------------------------------*\
  =========                 |
  \\      /  F ield         | OpenFOAM: The Open Source CFD Toolbox
   \\    /   O peration     | Website:  https://openfoam.org
    \\  /    A nd           | Version:  13
     \\/     M anipulation  |
\*---------------------------------------------------------------------------*/
FoamFile
{
    format      ascii;
    class       volScalarField;
    location    "1.7";
    object      p_rgh;
}
// * * * * * * * * * * * * * * * * * * * * * * * * * * * * * * * * * * * * * //

dimensions      [1 -1 -2 0 0 0 0];

internalField   nonuniform List<scalar> 
2268
(
4967.18
4972.58
4998.19
5043.92
5107.5
5187.3
5281.07
5386.47
5501.55
5624.07
5751.23
5880.23
6009.52
6138.48
6265.79
6390.08
6509.67
6619.83
6714.29
6785.92
6825.69
6826
6798.62
4966.04
4972.5
4998.82
5045.97
5111.12
5192.78
5288.49
5395.91
5512.79
5636.57
5764.12
5892.42
6019.81
6145.83
6269.3
6388.89
6503.74
6609.17
6699.46
6767.63
6805.27
6802.06
6774.95
4960.69
4970.63
4997.92
5046.88
5114.22
5198.51
5297
5406.87
5525.95
5651.36
5779.6
5906.85
6032.1
6154.8
6273.68
6387.31
6496.08
6595.22
6679.87
6744.21
6781.2
6776.75
6752.44
4950.02
4962.54
4989.91
5040.9
5111.36
5199.63
5301.88
5414.72
5536.35
5663.93
5793.37
5920.2
6043.09
6162.84
6277.49
6385.43
6489.62
6583.89
6663.72
6724.81
6761.16
6753.43
6729.42
4644.35
4611.09
4649.75
4775.54
4948.71
5143.24
5290.17
5407.1
5533.69
5666.67
5801.58
5930.64
6052.11
6169.77
6280.67
6382.83
6483.37
6573.24
6648.33
6705.32
6739.37
6727.51
6705.79
1751.46
1826.73
1919.21
2084.48
2341.85
2709.8
3255.57
3901
4530.65
5114.77
5628.85
5922.79
6049.33
6172.48
6284.54
6381.32
6478.37
6563.21
6630.75
6680.86
6710.44
6697.09
6683.49
1218.03
1219.18
1219.42
1218.97
1217.97
1216.75
1217.42
1277.29
1468.59
1825.69
2351.17
3155.51
4177.87
5140
5917.21
6281.69
6419.61
6571.82
6636.64
6673.94
6691.62
6654.96
6612.26
1215.67
1216.91
1216.61
1215.39
1213.36
1210.7
1207.41
1203.85
1199.57
1194.03
1186.94
1177.65
1212.1
1423.34
1781.38
2441.14
3595.24
4486.73
4847.11
4859.37
4769.05
4407.15
4112.91
2962.4
3022.91
3053.53
3060.9
3077.42
2996.79
3028.67
3053.78
3029.43
2950.72
2874.9
2734.55
2596.67
2505.57
2446.6
2431.17
2433.43
2436.63
2414.38
2911.93
2987.36
3001.08
3000.24
3060.11
3163.43
3238.92
3246.86
3204.58
3117.92
2971.47
2707.79
2533.85
2413.92
2328.33
2328.69
2361.06
2359.99
2274.61
1991.02
2179.27
2442
2401.29
2490.86
2897.28
3224.68
3288.11
3278.82
3135.77
2766.61
2422.04
2035.99
1894.35
1850.6
1815.61
1786.82
1857.34
2026.56
1455.06
1463.02
1597.63
1971.7
1908.51
1841.98
1995.7
2454.08
2488.36
2160.42
1838.63
1714.24
1816.58
1719.87
1616.97
1575.6
1524.75
1515.32
1473.88
1603.06
1538.01
1391.36
1569.03
1676.13
1407.74
1281.46
1241.6
1337.62
1724.63
1723.54
1676.34
1399.76
1388.23
1378.42
1433.96
1507
1404.18
1274.32
2045.08
1747.69
1438.53
1355.39
1573.52
1524.17
1274.42
1217.51
1138.35
1026.78
1144.42
1097
1086.66
1192.78
1219.51
1197.1
1199.55
1165.97
1099.16
2478.64
1977.67
1590.77
1169.16
1409.45
1576.84
1443.61
1217.05
1210.35
1175.45
1161.8
1178.39
1212.89
1228.61
1228.45
1180.2
1145.97
1133.77
1106.26
2424.21
2580.62
1723.39
1179.68
1172.27
1516.47
1597.77
1247.5
1211.64
1222.83
1233.87
1242.75
1247.71
1240.58
1230.51
1203.14
1069.77
1086.4
1056.07
1211.43
1213.13
1213.45
1212.63
1210.88
1208.23
1204.72
1200.14
1194.15
1186.38
1177.29
1167.65
1158.66
1149.29
1138.78
1125.21
1105.73
1086.89
1290.25
1520.22
1563.87
1443.29
1376.06
1203.94
1206.09
1207.37
1207.47
1206.49
1204.42
1201.24
1197
1191.49
1184.58
1176.32
1167.09
1157.15
1146.5
1135.12
1123.18
1110.72
1098.52
1083.75
1067.62
1054.33
1045.11
1033.4
1194.25
1197.27
1199.51
1201.26
1201.28
1199.69
1196.74
1192.73
1187.78
1181.72
1174.35
1165.73
1156.26
1146.14
1135.63
1124.6
1112.77
1100.15
1083.15
1057.69
1037.87
998.956
948.982
1049.01
1109.97
1136.52
1155.7
1168.56
1180.89
1169.2
1156.44
1153.15
1150.96
1140.63
1121.68
1104.68
1095.22
1090.76
1074.09
1042.28
988.634
909.332
833.822
743.87
678.777
642.761
770.202
743.392
774.212
790.633
809.614
792.919
800.2
801.036
788.605
777.789
765.83
750.334
730.079
703.658
685.523
670.272
630.95
595.863
562.093
564.397
603.341
633.508
646.326
615.99
699.599
699.728
698.036
686.537
636.642
632.944
656.862
662.912
651.003
638.816
635.937
638.829
649.296
652.428
651.622
653.816
654.533
652.422
650.119
647.003
643.179
640.113
634.057
683.404
681.061
689.972
689.337
688.919
687.995
686.145
683.208
678.61
673.184
665.245
654.666
641.294
623.864
600.458
571.845
540.582
508.337
462.902
389.356
323.944
276.608
432.387
377.162
349.521
320.478
298.177
298.426
290.588
277.123
263.714
251.845
237.794
219.396
195.643
167.359
136.72
106.446
77.8662
50.8982
25.2074
4.99881
5.17076
5.23761
5.27193
65.5694
98.3637
60.0042
10.2928
6.21481
6.03714
5.9737
5.95283
5.92202
5.87679
5.82316
5.76013
5.69166
5.62592
5.56301
5.49665
5.42373
5.35744
5.31075
5.26797
5.22414
5.20063
5.14135
6.09109
9.12241
16.348
9.11524
6.11015
6.05585
6.03151
6.01455
5.9947
5.97072
5.94468
5.90219
5.84855
5.79065
5.72923
5.66015
5.58001
5.49166
5.40437
5.3361
5.26688
5.21727
5.15665
6.07758
6.0793
9.88303
7.42128
6.07914
6.05288
6.02908
6.00536
5.98153
5.96227
6.03926
5.98913
5.84577
5.76234
5.69967
5.63298
5.56023
5.4837
5.41005
5.33458
5.27481
5.20534
5.1437
6.06919
6.08637
6.03073
6.35069
6.05335
6.04282
6.02418
6.00167
5.97518
6.06342
6.0719
6.02645
5.89272
5.75062
5.68706
5.62135
5.54801
5.46971
5.39764
5.32847
5.25495
5.19209
5.12916
6.0651
6.05532
6.04273
6.04079
6.04464
6.03667
6.02082
5.99936
5.97199
6.09218
6.07509
6.03172
5.89205
5.753
5.69205
5.62536
5.5532
5.47494
5.40092
5.32859
5.25725
5.19283
5.12507
6.06273
6.05618
6.04757
6.04417
6.04147
6.03264
6.01738
5.99634
5.96927
5.94598
6.02489
6.00486
5.82576
5.7584
5.69999
5.63366
5.56175
5.48982
5.41632
5.34215
5.26797
5.19989
5.12972
6.05975
6.05434
6.04855
6.04411
6.0388
6.02892
6.01377
5.9932
5.96848
5.93379
5.89545
5.85375
5.80872
5.76042
5.70276
5.64026
5.57429
5.50461
5.43165
5.35659
5.28121
5.21116
5.13882
6.05622
6.05163
6.04705
6.04216
6.03543
6.02488
6.00976
5.98973
5.96439
5.93359
5.89771
5.85752
5.81341
5.76646
5.70993
5.65046
5.58682
5.51863
5.44635
5.37144
5.29598
5.22537
5.15207
6.05149
6.04762
6.04355
6.03843
6.03103
6.02018
6.00528
5.98591
5.96174
5.93262
5.89868
5.86035
5.81835
5.7725
5.71772
5.66068
5.59901
5.53242
5.46132
5.38728
5.31255
5.2423
5.16892
6.04513
6.04183
6.03815
6.03304
6.02546
6.01465
6.00014
5.98151
5.95846
5.93084
5.89869
5.86223
5.82192
5.77601
5.72535
5.6706
5.61098
5.54628
5.47686
5.40435
5.33094
5.26163
5.18904
6.03729
6.03446
6.03113
6.0262
6.01874
6.00822
5.99424
5.97642
5.95452
5.92836
5.89791
5.86318
5.82402
5.78056
5.73268
5.68018
5.6228
5.56029
5.493
5.42248
5.35093
5.28314
5.21185
6.02819
6.02577
6.02279
6.01814
6.01099
6.00089
5.98754
5.97062
5.94989
5.92517
5.89638
5.86346
5.82639
5.78509
5.73948
5.68935
5.6344
5.57436
5.50953
5.44145
5.37217
5.30633
5.23702
6.01804
6.01604
6.01343
6.00909
6.00233
5.99275
5.98011
5.96412
5.94456
5.92127
5.89414
5.86308
5.82805
5.78895
5.74568
5.69802
5.64566
5.58831
5.52624
5.4609
5.39426
5.33074
5.26363
6.00706
6.0055
6.00325
5.99925
5.99291
5.9839
5.97199
5.95695
5.93856
5.91667
5.89116
5.86195
5.82895
5.79208
5.7512
5.70609
5.65645
5.60196
5.54287
5.48055
5.41683
5.35586
5.29139
5.99544
5.99434
5.99247
5.98882
5.98289
5.97444
5.96327
5.94916
5.93191
5.91138
5.88746
5.86005
5.82906
5.79441
5.75595
5.71345
5.66661
5.61513
5.55922
5.50013
5.4396
5.3815
5.31986
5.9834
5.98273
5.98125
5.97792
5.97239
5.96447
5.954
5.94079
5.92463
5.90542
5.88303
5.85737
5.82836
5.79591
5.75986
5.72001
5.67604
5.62766
5.57506
5.51941
5.46229
5.40728
5.34896
5.97099
5.97084
5.96967
5.96664
5.96149
5.95407
5.94426
5.93189
5.91677
5.8988
5.87788
5.85392
5.82684
5.79655
5.7629
5.72569
5.68462
5.63941
5.59024
5.53813
5.48455
5.43284
5.37787
5.95835
5.95863
5.95776
5.95502
5.95024
5.9433
5.9341
5.9225
5.90835
5.89155
5.87203
5.84971
5.8245
5.79632
5.76503
5.73045
5.69228
5.65027
5.60455
5.55605
5.5061
5.45772
5.40632
5.94551
5.94613
5.94551
5.94305
5.93863
5.93215
5.92352
5.91266
5.89943
5.88374
5.86553
5.84476
5.82135
5.79523
5.76626
5.73427
5.69898
5.66016
5.61789
5.57301
5.52674
5.48181
5.43392
5.93245
5.93332
5.93293
5.93074
5.92665
5.9206
5.91254
5.90237
5.89002
5.87539
5.85845
5.83915
5.81746
5.79333
5.76662
5.73717
5.70473
5.66905
5.63021
5.58896
5.54637
5.50491
5.46074
5.91917
5.92018
5.91998
5.91804
5.91428
5.90866
5.90113
5.89164
5.88014
5.86654
5.85082
5.83297
5.81296
5.79073
5.7662
5.73923
5.70957
5.67698
5.64153
5.60385
5.56493
5.52697
5.48638
5.90564
5.90671
5.90667
5.90497
5.90152
5.8963
5.88929
5.88047
5.86978
5.85719
5.84269
5.82627
5.8079
5.78756
5.76517
5.74059
5.71362
5.68405
5.65191
5.61777
5.58248
5.54797
5.51095
5.89186
5.89294
5.89301
5.89152
5.88837
5.88354
5.87704
5.86887
5.85899
5.84741
5.83411
5.8191
5.80237
5.7839
5.76363
5.74142
5.7171
5.69047
5.66156
5.63087
5.59917
5.56817
5.53452
5.87788
5.87891
5.87906
5.87775
5.87485
5.87041
5.86442
5.85689
5.84784
5.83725
5.82515
5.81155
5.79646
5.77986
5.76168
5.74183
5.72014
5.69642
5.67069
5.64341
5.6152
5.58758
5.55772
5.86374
5.86469
5.86488
5.8637
5.86105
5.85698
5.8515
5.84463
5.8364
5.82683
5.81594
5.80375
5.79029
5.77554
5.75945
5.74193
5.72283
5.70199
5.67941
5.65547
5.63073
5.60647
5.58032
5.84953
5.85037
5.85055
5.84948
5.84707
5.84337
5.8384
5.8322
5.82482
5.81627
5.8066
5.79583
5.784
5.77108
5.75705
5.74183
5.72527
5.70724
5.68773
5.66707
5.64571
5.62474
5.6022
5.83533
5.83606
5.83621
5.83523
5.83305
5.82972
5.82528
5.81977
5.81324
5.80574
5.79729
5.78794
5.77771
5.76661
5.75459
5.7416
5.72751
5.7122
5.69567
5.67816
5.66008
5.64232
5.62318
5.82122
5.82184
5.82194
5.82106
5.81912
5.81619
5.8123
5.8075
5.80185
5.79539
5.78817
5.78022
5.77157
5.76223
5.75216
5.74132
5.72959
5.71688
5.70317
5.68868
5.67371
5.65901
5.6432
5.8073
5.80778
5.80786
5.8071
5.80544
5.80292
5.7996
5.79554
5.79077
5.78537
5.77936
5.77278
5.76566
5.75801
5.7498
5.74099
5.7315
5.72122
5.71016
5.69849
5.68643
5.6746
5.66184
5.79365
5.79397
5.79405
5.79345
5.7921
5.79004
5.78732
5.78399
5.78013
5.77576
5.77094
5.76569
5.76003
5.75398
5.74752
5.74061
5.73319
5.72517
5.71656
5.70747
5.6981
5.68889
5.67896
5.78033
5.78049
5.78062
5.78023
5.77922
5.77762
5.77551
5.77294
5.76996
5.76661
5.76293
5.75895
5.75468
5.75013
5.74529
5.74014
5.73462
5.72867
5.7223
5.71559
5.70869
5.70191
5.69457
5.7674
5.76756
5.7679
5.76778
5.7671
5.76597
5.76445
5.76261
5.7605
5.75815
5.75558
5.7528
5.74985
5.74671
5.74339
5.73986
5.73609
5.73204
5.72771
5.72319
5.71857
5.71409
5.70933
5.75473
5.75509
5.75602
5.75627
5.75588
5.75514
5.75418
5.75305
5.75177
5.75036
5.74885
5.74722
5.7455
5.74368
5.74176
5.73973
5.73756
5.73524
5.73278
5.73022
5.72766
5.72521
5.72291
5.74004
5.73836
5.74006
5.74048
5.74031
5.73998
5.73959
5.73917
5.73872
5.73823
5.73772
5.73718
5.73661
5.73601
5.73538
5.73472
5.73401
5.73326
5.73246
5.73164
5.73082
5.73003
5.72941
2265.23
2195.55
1632.43
1999.53
1014.77
1011.14
1011.9
988.662
901.27
836.738
820.152
766.579
639.207
639.569
570.026
563.165
653.002
657.389
658.049
645.624
638.946
641.819
645.839
652.635
256.573
260.964
280.427
312.294
5.13998
5.06174
5.02432
4.99932
5.01587
4.90242
4.79045
4.71065
5.06193
4.95262
4.82806
4.73001
5.03275
4.91262
4.77757
4.67686
5.01735
4.89465
4.75445
4.64816
5.01035
4.88549
4.74267
4.6342
5.01141
4.88362
4.73941
4.63045
5.0183
4.88926
4.74438
4.63491
5.03088
4.90185
4.75751
4.6481
5.04842
4.92049
4.77738
4.66876
5.07007
4.9441
4.80341
4.69614
5.0955
4.97237
4.83459
4.72931
5.12399
5.00445
4.87061
4.76765
5.15468
5.03941
4.90986
4.8099
5.18677
5.07625
4.95203
4.85551
5.22028
5.11505
4.99628
4.90368
5.2548
5.15527
5.0427
4.95412
5.28959
5.19612
5.08974
5.00561
5.32385
5.23656
5.13707
5.05767
5.35752
5.27659
5.18386
5.10953
5.39041
5.3159
5.23035
5.16111
5.42219
5.35413
5.27551
5.21163
5.45261
5.39085
5.3195
5.26106
5.4821
5.42658
5.36213
5.30921
5.51095
5.46146
5.40402
5.3566
5.53927
5.4956
5.44442
5.40183
5.56654
5.52847
5.48371
5.44605
5.5928
5.56014
5.52138
5.48859
5.61785
5.59038
5.55754
5.52933
5.64128
5.61874
5.59138
5.56766
5.6627
5.64473
5.62278
5.6034
5.68234
5.66866
5.65168
5.63653
5.70094
5.69137
5.6792
5.66794
5.71918
5.71378
5.70614
5.69827
5.72899
5.72748
5.7249
5.72167
2118.98
1783.69
1465.62
1060.91
1087.71
1367
1561.22
1323.13
1208.15
1222.68
1235.71
1244.39
1247.36
1242.73
1234.42
1214.46
1009.48
974.623
1030.12
850.291
862.931
950.971
995.057
803.348
833.034
1189.88
1309.43
1198.01
1222.42
1239.13
1249.48
1252.26
1249.84
1203.31
1040.29
937.989
942.527
975.826
615.256
617.701
723.087
773.599
745.046
762.207
780.907
911.254
1112.14
1154.89
1229.56
1247.11
1190.53
1013.76
923.483
913.631
929.18
933.875
951.638
618.451
680.176
695.762
715.181
746.444
756.646
765.117
770.032
817.6
1000.68
1025.55
987.153
885.181
880.806
896.753
910.856
924.101
929.76
939.526
669.688
682.635
700.232
719.568
737.291
751.88
765.366
780.038
775.48
758.76
786.711
840.792
865.49
883.443
899.108
912.737
923.222
929.243
931.516
665.707
678.486
694.211
712.738
731.356
748.736
765.424
782.467
799.64
813.225
833.323
852.196
871.187
888.652
904.035
917.039
926.701
932.011
927.562
372.865
491.973
604.963
688.187
724.2
745.097
765.542
785.408
804.339
822.88
841.372
860.202
878.6
895.897
911.118
923.729
932.946
938.015
931.925
4.96791
22.7394
98.8031
233.328
420.491
596.406
719.516
785.505
808.489
830.054
849.9
868.874
887.352
904.664
920.077
932.855
942.154
946.885
935.13
4.65544
4.65786
4.59665
4.55791
11.2883
64.6888
196.136
422.476
659.701
813.715
857.867
879.726
898.507
915.718
931.303
944.482
954.278
959.277
945.65
4.63449
4.57561
4.53062
4.50595
4.50169
4.50202
4.53139
8.05837
83.7017
307.028
669.195
873.245
909.996
929.913
945.769
958.961
968.883
976.293
981.153
4.5974
4.55286
4.5156
4.47738
4.43666
4.39202
4.37203
4.39549
4.45793
4.56079
49.04
280.304
684.436
928.932
961.767
976.457
985.297
1007.87
1134.01
4.56208
4.5281
4.49086
4.45366
4.42072
4.38714
4.36085
4.33143
4.29575
4.30496
4.33043
4.33729
30.8381
259.702
725.748
982.547
1011.5
1060.64
1153.94
4.54481
4.50914
4.47384
4.43819
4.40557
4.3781
4.39681
4.63445
4.88832
4.35456
4.18086
4.17125
4.20944
4.24783
30.1547
286.076
612.847
728.458
553.633
4.54031
4.50197
4.46634
4.4292
4.39601
4.36802
4.57417
5.42476
5.39196
5.19761
4.19389
4.14649
4.12504
4.18093
4.30972
4.32446
11.8698
30.1272
26.8972
4.54354
4.50517
4.46747
4.42795
4.39186
4.35981
4.4955
5.04519
5.31399
4.79497
4.19477
4.24488
5.66943
6.57173
6.12139
5.71005
5.25713
3.88249
3.86994
4.55585
4.51639
4.47701
4.43538
4.39649
4.36095
4.33255
4.29531
4.33261
4.22504
4.19877
4.2115
6.41466
6.74059
6.42762
5.51255
4.87811
4.08424
3.94805
4.57637
4.5356
4.49495
4.45185
4.41092
4.3725
4.33517
4.29856
4.26499
4.23685
4.21115
4.29013
4.55236
4.82179
4.28124
4.06679
4.05718
4.03388
4.01611
4.604
4.56222
4.52055
4.47643
4.43433
4.39479
4.3573
4.32175
4.28932
4.26073
4.23586
4.22364
4.15868
4.12605
4.10169
4.08241
4.07001
4.07211
4.08072
4.63808
4.59543
4.55299
4.50818
4.46544
4.42547
4.38821
4.35349
4.32182
4.29281
4.26489
4.23403
4.20316
4.17629
4.15592
4.14199
4.13574
4.13729
4.14201
4.67752
4.63437
4.59141
4.54621
4.50309
4.46293
4.4259
4.39186
4.36077
4.33223
4.30512
4.27844
4.2527
4.23086
4.21477
4.20476
4.20063
4.20166
4.20363
4.72165
4.6782
4.63497
4.58958
4.54626
4.50598
4.46905
4.43536
4.40477
4.37691
4.35122
4.3274
4.30572
4.2878
4.27479
4.26685
4.26356
4.26358
4.26425
4.76943
4.72608
4.68281
4.63744
4.59406
4.55372
4.51679
4.48327
4.45299
4.42574
4.4012
4.37926
4.36028
4.34504
4.3341
4.32752
4.3247
4.32448
4.32352
4.82035
4.77724
4.73415
4.689
4.64574
4.60541
4.56849
4.53502
4.50492
4.47807
4.45431
4.43363
4.41626
4.40266
4.39314
4.38754
4.38527
4.38506
4.384
4.87347
4.83093
4.78827
4.74357
4.70061
4.66044
4.62358
4.59016
4.56017
4.53357
4.51031
4.49042
4.47406
4.4615
4.45287
4.44798
4.4462
4.4463
4.44557
4.92826
4.88643
4.84448
4.80049
4.75806
4.71824
4.68159
4.6483
4.61843
4.59202
4.56908
4.54968
4.53396
4.52205
4.51398
4.50953
4.50812
4.50852
4.50813
4.9838
4.9431
4.90214
4.85914
4.81752
4.77829
4.74205
4.70904
4.67939
4.65318
4.6305
4.61144
4.59611
4.58458
4.57684
4.57265
4.57142
4.57202
4.57197
5.03972
5.00032
4.96066
4.91895
4.87843
4.84007
4.80449
4.77197
4.74269
4.71679
4.69438
4.6756
4.66053
4.64923
4.64165
4.63753
4.63636
4.6371
4.63727
5.09533
5.0576
5.01951
4.97939
4.94027
4.90307
4.86841
4.83662
4.80791
4.78246
4.76042
4.74193
4.72708
4.71592
4.70838
4.70424
4.70297
4.70364
4.70433
5.15041
5.11451
5.07826
5.04
5.00255
4.96679
4.93332
4.90251
4.87459
4.84977
4.82821
4.81008
4.79548
4.78444
4.77691
4.77267
4.77128
4.77194
4.77279
5.20447
5.1707
5.13653
5.10037
5.06485
5.03078
4.99876
4.96916
4.94226
4.91825
4.89734
4.87969
4.86542
4.85457
4.84708
4.84276
4.84121
4.84167
4.84258
5.25756
5.22586
5.194
5.16015
5.12675
5.0946
5.06426
5.03612
5.01045
4.98748
4.96742
4.95043
4.93662
4.92604
4.91862
4.91418
4.91242
4.91267
4.91344
5.30946
5.27962
5.25036
5.219
5.18791
5.1579
5.12948
5.10303
5.07884
5.05714
5.03813
5.02195
5.00872
4.99846
4.99113
4.98659
4.98462
4.98453
4.98516
5.35951
5.33264
5.30561
5.27678
5.24814
5.22043
5.19413
5.1696
5.1471
5.12686
5.10905
5.09382
5.08127
5.07141
5.06422
5.05959
5.05737
5.057
5.0574
5.40819
5.38403
5.35944
5.33326
5.30721
5.28195
5.25793
5.23548
5.21484
5.19622
5.17977
5.16562
5.15385
5.14449
5.13751
5.13285
5.1304
5.12966
5.12995
5.45527
5.43361
5.41157
5.38812
5.36476
5.34208
5.32049
5.30028
5.28167
5.26484
5.24991
5.23698
5.22612
5.21736
5.21069
5.20605
5.20335
5.20242
5.20252
5.50023
5.4811
5.46166
5.44102
5.42047
5.4005
5.38149
5.36369
5.3473
5.33242
5.31917
5.3076
5.29779
5.28975
5.28347
5.27897
5.27617
5.27498
5.27496
5.54284
5.52621
5.50942
5.49167
5.47403
5.45692
5.44066
5.42546
5.41148
5.39876
5.38734
5.37729
5.36864
5.36144
5.35569
5.35139
5.34858
5.34727
5.34705
5.58274
5.56872
5.55463
5.53985
5.52522
5.51111
5.49779
5.48546
5.47415
5.46377
5.45436
5.44595
5.43861
5.43236
5.42723
5.42326
5.4205
5.41903
5.41868
5.62009
5.60864
5.59729
5.58551
5.57398
5.563
5.55286
5.54374
5.53541
5.52758
5.52029
5.51365
5.50773
5.50255
5.49814
5.49453
5.49184
5.49025
5.48969
5.65528
5.64627
5.63767
5.62894
5.62054
5.61276
5.60589
5.6005
5.5955
5.59038
5.58532
5.58054
5.57613
5.57213
5.56852
5.56535
5.5627
5.5608
5.55993
5.68801
5.68117
5.67539
5.66974
5.66444
5.65962
5.65558
5.65581
5.65452
5.65217
5.64941
5.6466
5.64385
5.64115
5.63849
5.63581
5.63315
5.63072
5.62914
5.71647
5.7134
5.71116
5.70904
5.70701
5.70487
5.70231
5.7045
5.70536
5.70512
5.70443
5.70363
5.70277
5.70185
5.70084
5.69973
5.69848
5.6972
5.69627
)
;

boundaryField
{
    leftWall
    {
        type            fixedFluxPressure;
        gradient        uniform 0;
        value           nonuniform List<scalar> 
50
(
4967.18
4966.04
4960.69
4950.02
4644.35
1751.46
1218.03
1215.67
1211.43
1203.94
1194.25
1049.01
770.202
615.99
634.057
432.387
65.5694
6.09109
6.07758
6.06919
6.0651
6.06273
6.05975
6.05622
6.05149
6.04513
6.03729
6.02819
6.01804
6.00706
5.99544
5.9834
5.97099
5.95835
5.94551
5.93245
5.91917
5.90564
5.89186
5.87788
5.86374
5.84953
5.83533
5.82122
5.8073
5.79365
5.78033
5.7674
5.75473
5.74004
)
;
    }
    rightWall
    {
        type            fixedFluxPressure;
        gradient        uniform 0;
        value           nonuniform List<scalar> 
50
(
2414.38
2274.61
2026.56
1473.88
1274.32
1099.16
1106.26
1056.07
1030.12
975.826
951.638
939.526
931.516
927.562
931.925
935.13
945.65
981.153
1134.01
1153.94
553.633
26.8972
3.86994
3.94805
4.01611
4.08072
4.14201
4.20363
4.26425
4.32352
4.384
4.44557
4.50813
4.57197
4.63727
4.70433
4.77279
4.84258
4.91344
4.98516
5.0574
5.12995
5.20252
5.27496
5.34705
5.41868
5.48969
5.55993
5.62914
5.69627
)
;
    }
    lowerWall
    {
        type            fixedFluxPressure;
        gradient        uniform 0;
        value           nonuniform List<scalar> 
62
(
4967.18
4972.58
4998.19
5043.92
5107.5
5187.3
5281.07
5386.47
5501.55
5624.07
5751.23
5880.23
6009.52
6138.48
6265.79
6390.08
6509.67
6619.83
6714.29
6785.92
6825.69
6826
6798.62
6798.62
6774.95
6752.44
6729.42
6705.79
6683.49
6612.26
4112.91
2265.23
2195.55
1632.43
1999.53
2962.4
2911.93
1991.02
1455.06
1603.06
2045.08
2478.64
2424.21
2962.4
3022.91
3053.53
3060.9
3077.42
2996.79
3028.67
3053.78
3029.43
2950.72
2874.9
2734.55
2596.67
2505.57
2446.6
2431.17
2433.43
2436.63
2414.38
)
;
    }
    atmosphere
    {
        type            prghTotalPressure;
        rho             rho;
        psi             none;
        gamma           1;
        p0              uniform 0;
        value           nonuniform List<scalar> 
46
(
5.72904
5.72898
5.72899
5.72901
5.72902
5.72903
5.72904
5.72904
5.72904
5.72904
5.72904
5.72904
5.72904
5.72904
5.72904
5.72904
5.72904
5.72904
5.72904
5.72904
5.72904
5.72904
5.72904
5.72904
5.72904
5.72904
5.72904
5.72904
5.72904
5.72904
5.72904
5.72904
5.72904
5.72904
5.72904
5.72904
5.72904
5.72904
5.72904
5.72904
5.72904
5.72904
5.72904
5.72904
5.72904
5.72904
)
;
        rho             rho;
    }
    defaultFaces
    {
        type            empty;
    }
}


// ************************************************************************* //
