/*--------------------------------*- C++ -*----------------------------------*\
  =========                 |
  \\      /  F ield         | OpenFOAM: The Open Source CFD Toolbox
   \\    /   O peration     | Website:  https://openfoam.org
    \\  /    A nd           | Version:  13
     \\/     M anipulation  |
\*---------------------------------------------------------------------------*/
FoamFile
{
    format      ascii;
    class       surfaceScalarField;
    location    "1.7";
    object      phi;
}
// * * * * * * * * * * * * * * * * * * * * * * * * * * * * * * * * * * * * * //

dimensions      [0 3 -1 0 0 0 0];

internalField   nonuniform List<scalar> 
4432
(
-1.64563e-06
1.64563e-06
-2.39196e-06
7.4634e-07
-2.99103e-06
5.99071e-07
-3.62455e-06
6.33521e-07
-4.31781e-06
6.93259e-07
-5.0826e-06
7.64798e-07
-5.93031e-06
8.47711e-07
-6.86469e-06
9.34384e-07
-7.86238e-06
9.97698e-07
-8.86576e-06
1.00339e-06
-9.80848e-06
9.42721e-07
-1.06418e-05
8.33319e-07
-1.13166e-05
6.74831e-07
-1.1769e-05
4.52412e-07
-1.19471e-05
1.78101e-07
-1.18278e-05
-1.19306e-07
-1.13588e-05
-4.69006e-07
-1.05268e-05
-8.3204e-07
-9.35857e-06
-1.16824e-06
-7.83036e-06
-1.52822e-06
-5.86128e-06
-1.96907e-06
-3.498e-06
-2.36328e-06
-3.49801e-06
-1.08963e-06
2.73526e-06
-1.7979e-06
1.45461e-06
-2.55315e-06
1.35432e-06
-3.3251e-06
1.40547e-06
-4.11436e-06
1.48251e-06
-4.94327e-06
1.59369e-06
-5.83316e-06
1.73759e-06
-6.79384e-06
1.89504e-06
-7.80665e-06
2.01049e-06
-8.8207e-06
2.01743e-06
-9.77311e-06
1.89513e-06
-1.06112e-05
1.6714e-06
-1.12864e-05
1.34998e-06
-1.17365e-05
9.02553e-07
-1.19069e-05
3.48554e-07
-1.17567e-05
-2.69515e-07
-1.12233e-05
-1.0025e-06
-1.02949e-05
-1.76043e-06
-9.00106e-06
-2.46206e-06
-7.35784e-06
-3.17145e-06
-5.37259e-06
-3.95434e-06
-3.0313e-06
-4.70457e-06
-6.52931e-06
-6.91114e-07
3.42638e-06
-1.47322e-06
2.23671e-06
-2.32467e-06
2.20576e-06
-3.16742e-06
2.24822e-06
-4.00613e-06
2.32121e-06
-4.86685e-06
2.4544e-06
-5.77045e-06
2.64119e-06
-6.73003e-06
2.85461e-06
-7.72855e-06
3.00901e-06
-8.71834e-06
3.00721e-06
-9.63829e-06
2.81508e-06
-1.04404e-05
2.47354e-06
-1.10763e-05
1.98582e-06
-1.14854e-05
1.31171e-06
-1.16165e-05
4.79603e-07
-1.14307e-05
-4.55313e-07
-1.08623e-05
-1.57086e-06
-9.90674e-06
-2.71601e-06
-8.60479e-06
-3.76402e-06
-6.98862e-06
-4.78763e-06
-5.07551e-06
-5.86745e-06
-2.81521e-06
-6.96488e-06
-9.34453e-06
-3.54741e-07
3.78111e-06
-1.26213e-06
3.1441e-06
-2.17605e-06
3.11968e-06
-3.055e-06
3.12715e-06
-3.92181e-06
3.18801e-06
-4.80285e-06
3.33542e-06
-5.7165e-06
3.55482e-06
-6.66997e-06
3.80807e-06
-7.64389e-06
3.98291e-06
-8.5964e-06
3.9597e-06
-9.4686e-06
3.68727e-06
-1.02139e-05
3.21884e-06
-1.07912e-05
2.56311e-06
-1.11409e-05
1.6614e-06
-1.12178e-05
5.56479e-07
-1.09928e-05
-6.80309e-07
-1.03932e-05
-2.17043e-06
-9.42301e-06
-3.68624e-06
-8.1346e-06
-5.05242e-06
-6.56634e-06
-6.35589e-06
-4.72918e-06
-7.70461e-06
-2.56283e-06
-9.13124e-06
-1.19073e-05
-2.9147e-07
4.07258e-06
-1.17699e-06
4.02962e-06
-2.06543e-06
4.00811e-06
-2.94582e-06
4.00753e-06
-3.82981e-06
4.07199e-06
-4.73633e-06
4.24193e-06
-5.65901e-06
4.4775e-06
-6.58833e-06
4.73738e-06
-7.52402e-06
4.9186e-06
-8.42413e-06
4.85981e-06
-9.23581e-06
4.49895e-06
-9.92081e-06
3.90383e-06
-1.04336e-05
3.07587e-06
-1.07096e-05
1.93743e-06
-1.07185e-05
5.65338e-07
-1.04446e-05
-9.54177e-07
-9.80934e-06
-2.80568e-06
-8.82837e-06
-4.66721e-06
-7.55665e-06
-6.32413e-06
-6.0369e-06
-7.87564e-06
-4.28134e-06
-9.46017e-06
-2.24019e-06
-1.11724e-05
-1.41475e-05
-6.57876e-07
4.73047e-06
-1.17941e-06
4.55115e-06
-1.95666e-06
4.78536e-06
-2.80849e-06
4.85936e-06
-3.68658e-06
4.95008e-06
-4.60412e-06
5.15946e-06
-5.53044e-06
5.40381e-06
-6.44234e-06
5.64927e-06
-7.33482e-06
5.81105e-06
-8.17724e-06
5.70221e-06
-8.93684e-06
5.25853e-06
-9.55964e-06
4.52662e-06
-9.98079e-06
3.497e-06
-1.01685e-05
2.12516e-06
-1.01009e-05
4.97673e-07
-9.78113e-06
-1.27391e-06
-9.11402e-06
-3.47279e-06
-8.12381e-06
-5.65742e-06
-6.86891e-06
-7.57902e-06
-5.39071e-06
-9.35383e-06
-3.71779e-06
-1.11331e-05
-1.83082e-06
-1.30593e-05
-1.59783e-05
1.86456e-07
4.54402e-06
-3.46901e-07
5.08451e-06
-1.02412e-06
5.46258e-06
-1.84454e-06
5.67978e-06
-2.76752e-06
5.87305e-06
-3.75842e-06
6.15034e-06
-4.81865e-06
6.46402e-06
-5.87852e-06
6.70911e-06
-6.84142e-06
6.77392e-06
-7.67869e-06
6.53944e-06
-8.42577e-06
6.00558e-06
-9.00306e-06
5.10389e-06
-9.35143e-06
3.84534e-06
-9.46046e-06
2.23417e-06
-9.33724e-06
3.74448e-07
-8.97641e-06
-1.63474e-06
-8.27141e-06
-4.17778e-06
-7.30502e-06
-6.6238e-06
-6.08308e-06
-8.80094e-06
-4.63164e-06
-1.08053e-05
-3.01954e-06
-1.27451e-05
-1.32165e-06
-1.47572e-05
-1.72999e-05
9.46535e-07
3.5975e-06
7.33987e-07
5.29707e-06
2.74674e-07
5.9219e-06
-3.13297e-07
6.26775e-06
-9.82245e-07
6.542e-06
-1.71824e-06
6.88635e-06
-2.5619e-06
7.30768e-06
-3.51858e-06
7.66578e-06
-4.56703e-06
7.82236e-06
-5.65379e-06
7.62618e-06
-6.68262e-06
7.03438e-06
-7.53349e-06
5.95474e-06
-8.12493e-06
4.43676e-06
-8.33268e-06
2.44191e-06
-8.22647e-06
2.68231e-07
-7.82214e-06
-2.03907e-06
-7.11509e-06
-4.88483e-06
-6.25251e-06
-7.48637e-06
-5.10822e-06
-9.94522e-06
-3.69504e-06
-1.22184e-05
-2.14782e-06
-1.42923e-05
-7.46535e-07
-1.61585e-05
-1.80464e-05
3.27457e-06
-3.27456e-06
7.12387e-06
-3.84929e-06
1.00163e-05
-2.89241e-06
1.14027e-05
-1.38645e-06
1.18771e-05
-4.74406e-07
1.13205e-05
5.56689e-07
1.20071e-05
-6.86611e-07
1.2891e-05
-8.83971e-07
1.27064e-05
1.84691e-07
1.06532e-05
2.05315e-06
7.65871e-06
2.9945e-06
4.43088e-06
3.22783e-06
1.82957e-06
2.60131e-06
2.34761e-07
1.59481e-06
-9.68001e-07
1.20276e-06
-1.35166e-06
3.83662e-07
-1.09446e-06
-2.57199e-07
-8.15545e-09
-1.0863e-06
-8.15469e-09
2.66526e-06
-5.93985e-06
6.06642e-06
-7.25045e-06
8.92911e-06
-5.75509e-06
1.03815e-05
-2.83886e-06
1.07294e-05
-8.22294e-07
1.13428e-05
-5.6665e-08
1.18467e-05
-1.19055e-06
1.22506e-05
-1.2878e-06
1.19392e-05
4.96088e-07
1.08058e-05
3.18653e-06
8.6174e-06
5.18288e-06
6.11155e-06
5.73368e-06
3.62e-06
5.09285e-06
1.91817e-06
3.29663e-06
8.49053e-07
2.27188e-06
1.75626e-07
1.0571e-06
-3.44783e-07
2.63218e-07
-6.8458e-07
-7.46495e-07
-6.9272e-07
3.08609e-06
-9.02593e-06
6.84895e-06
-1.10133e-05
8.94579e-06
-7.85193e-06
1.05347e-05
-4.42781e-06
1.13701e-05
-1.65763e-06
1.18158e-05
-5.02404e-07
1.18515e-05
-1.22624e-06
1.18564e-05
-1.29272e-06
1.13882e-05
9.64286e-07
1.03474e-05
4.2274e-06
8.61857e-06
6.91166e-06
6.77157e-06
7.58067e-06
4.94949e-06
6.91494e-06
3.50308e-06
4.74304e-06
2.57213e-06
3.20283e-06
1.89444e-06
1.73478e-06
1.1134e-06
1.04426e-06
2.07827e-07
1.59079e-07
-4.84898e-07
7.38291e-06
-1.6409e-05
1.22367e-05
-1.58671e-05
1.14227e-05
-7.038e-06
1.15554e-05
-4.56046e-06
1.24665e-05
-2.56876e-06
1.27512e-05
-7.87025e-07
1.23285e-05
-8.0352e-07
1.16933e-05
-6.57577e-07
1.06471e-05
2.01052e-06
9.67887e-06
5.19563e-06
8.40166e-06
8.18886e-06
7.1064e-06
8.87593e-06
5.7584e-06
8.26294e-06
4.92525e-06
5.57619e-06
4.27191e-06
3.85619e-06
3.69247e-06
2.31425e-06
3.2696e-06
1.46715e-06
2.97795e-06
4.50747e-07
2.4931e-06
1.26578e-05
-2.90668e-05
2.07468e-05
-2.39562e-05
1.80403e-05
-4.3315e-06
1.34463e-05
3.35299e-08
1.3017e-05
-2.13947e-06
1.39715e-05
-1.74157e-06
1.37694e-05
-6.01376e-07
1.19105e-05
1.20128e-06
9.99384e-06
3.9272e-06
8.87473e-06
6.31473e-06
8.23312e-06
8.83046e-06
7.67748e-06
9.43156e-06
6.66037e-06
9.28005e-06
6.36874e-06
5.86782e-06
6.17952e-06
4.04541e-06
5.5228e-06
2.97097e-06
4.58075e-06
2.40921e-06
3.66666e-06
1.36484e-06
6.15973e-06
1.35523e-05
-4.2619e-05
2.20345e-05
-3.24384e-05
2.30844e-05
-5.38133e-06
1.58867e-05
7.23115e-06
1.31014e-05
6.45812e-07
1.37475e-05
-2.38768e-06
1.45931e-05
-1.44698e-06
1.28951e-05
2.89937e-06
1.07445e-05
6.07773e-06
8.75396e-06
8.30533e-06
8.27609e-06
9.30834e-06
8.0414e-06
9.66627e-06
8.26692e-06
9.05455e-06
8.39002e-06
5.74474e-06
8.45102e-06
3.98443e-06
7.62997e-06
3.79203e-06
5.25344e-06
4.78576e-06
2.15025e-06
4.46805e-06
8.31006e-06
1.35956e-05
-5.62146e-05
2.04869e-05
-3.93296e-05
2.32854e-05
-8.17984e-06
1.76686e-05
1.28479e-05
1.31637e-05
5.1507e-06
1.27094e-05
-1.93334e-06
1.3631e-05
-2.36863e-06
1.25681e-05
3.9623e-06
1.08108e-05
7.83503e-06
9.56634e-06
9.54979e-06
9.13249e-06
9.74221e-06
9.40027e-06
9.39852e-06
1.00313e-05
8.42357e-06
1.02169e-05
5.55916e-06
1.0245e-05
3.95633e-06
9.38938e-06
4.64767e-06
5.88165e-06
8.29351e-06
1.46125e-06
8.88849e-06
9.7713e-06
1.42534e-05
-7.0468e-05
1.80072e-05
-4.30833e-05
2.01118e-05
-1.02845e-05
1.76516e-05
1.53081e-05
1.30454e-05
9.7569e-06
1.17301e-05
-6.18071e-07
1.20623e-05
-2.70075e-06
1.16632e-05
4.36139e-06
1.05017e-05
8.99656e-06
9.87786e-06
1.01736e-05
9.86091e-06
9.75918e-06
1.03566e-05
8.90289e-06
1.1051e-05
7.72915e-06
1.1239e-05
5.37119e-06
1.10262e-05
4.1691e-06
1.00993e-05
5.5746e-06
6.26518e-06
1.21276e-05
1.17849e-06
1.39752e-05
1.09498e-05
2.86624e-06
7.31276e-07
3.35455e-06
4.80877e-06
3.02975e-06
6.24672e-06
2.42569e-06
6.87183e-06
1.69442e-06
7.27329e-06
8.89242e-07
7.69155e-06
6.86587e-08
8.12828e-06
-7.71674e-07
8.50613e-06
-1.63313e-06
8.68383e-06
-2.56488e-06
8.55793e-06
-3.61093e-06
8.08043e-06
-4.85536e-06
7.19916e-06
-6.23149e-06
5.81287e-06
-7.63461e-06
3.84502e-06
-8.75054e-06
1.38414e-06
-9.22747e-06
-1.56215e-06
-9.2467e-06
-4.86561e-06
-8.5573e-06
-8.17577e-06
-6.52879e-06
-1.19737e-05
-3.551e-06
-1.51962e-05
-3.80029e-07
-1.74633e-05
2.34615e-06
-1.88846e-05
-1.94991e-05
3.7988e-06
1.8888e-06
-1.15752e-06
2.5159e-06
4.18169e-06
2.76808e-06
5.99456e-06
2.91718e-06
6.72274e-06
3.00382e-06
7.18667e-06
3.03384e-06
7.66154e-06
3.05284e-06
8.10931e-06
3.1391e-06
8.41989e-06
3.31567e-06
8.50728e-06
3.54447e-06
8.32915e-06
3.77113e-06
7.85379e-06
3.99964e-06
6.97065e-06
4.27051e-06
5.54201e-06
4.66024e-06
3.45529e-06
5.27083e-06
7.73536e-07
6.05235e-06
-2.3437e-06
6.97555e-06
-5.78883e-06
8.22023e-06
-9.42048e-06
9.4482e-06
-1.32017e-05
1.1088e-05
-1.6836e-05
1.36238e-05
-1.99992e-05
1.73352e-05
-2.2596e-05
-2.50953e-05
2.29313e-05
-1.64907e-07
-9.92607e-07
2.78747e-07
3.73804e-06
9.84562e-07
5.28875e-06
1.78636e-06
5.92094e-06
2.53663e-06
6.43641e-06
3.20285e-06
6.99532e-06
3.84362e-06
7.46855e-06
4.57876e-06
7.68476e-06
5.46655e-06
7.6195e-06
6.49495e-06
7.30077e-06
7.62474e-06
6.72401e-06
8.82534e-06
5.77006e-06
1.01354e-05
4.23199e-06
1.15916e-05
1.99908e-06
1.32282e-05
-8.63098e-07
1.49743e-05
-4.08981e-06
1.67005e-05
-7.51503e-06
1.83183e-05
-1.10384e-05
1.97846e-05
-1.4668e-05
2.12339e-05
-1.82854e-05
2.28632e-05
-2.16285e-05
2.47403e-05
-2.44731e-05
-2.68764e-05
2.65213e-05
-1.7374e-06
7.44785e-07
-1.74483e-06
3.74546e-06
-6.86341e-07
4.23025e-06
5.20079e-07
4.71451e-06
1.68114e-06
5.27534e-06
2.58387e-06
6.09259e-06
3.57973e-06
6.47268e-06
4.79532e-06
6.46916e-06
6.18984e-06
6.22497e-06
7.75251e-06
5.73811e-06
9.48066e-06
4.99587e-06
1.13784e-05
3.87237e-06
1.34326e-05
2.17777e-06
1.55765e-05
-1.44857e-07
1.7797e-05
-3.08354e-06
2.00057e-05
-6.2985e-06
2.20404e-05
-9.54971e-06
2.38495e-05
-1.28475e-05
2.52593e-05
-1.60778e-05
2.63337e-05
-1.93597e-05
2.70702e-05
-2.23651e-05
2.73902e-05
-2.47931e-05
-2.64877e-05
2.70014e-05
-3.64312e-06
4.3879e-06
-2.72112e-06
2.82345e-06
-1.4213e-06
2.93041e-06
-1.40397e-07
3.43358e-06
1.12329e-06
4.01163e-06
2.00492e-06
5.21093e-06
3.09359e-06
5.38399e-06
4.63079e-06
4.93194e-06
6.43442e-06
4.42134e-06
8.40301e-06
3.76952e-06
1.0568e-05
2.83093e-06
1.29631e-05
1.47728e-06
1.55538e-05
-4.12893e-07
1.82243e-05
-2.81535e-06
2.07947e-05
-5.65386e-06
2.31975e-05
-8.70132e-06
2.53547e-05
-1.17068e-05
2.71823e-05
-1.46751e-05
2.85976e-05
-1.74931e-05
2.94333e-05
-2.01954e-05
2.95278e-05
-2.24596e-05
2.86905e-05
-2.39559e-05
-2.4532e-05
2.67348e-05
-3.21529e-06
7.60316e-06
-1.93141e-06
1.53956e-06
-1.13391e-06
2.13287e-06
-4.72644e-07
2.77228e-06
2.17591e-07
3.32136e-06
1.26562e-06
4.16287e-06
2.55659e-06
4.09299e-06
4.16177e-06
3.32674e-06
6.12415e-06
2.45895e-06
8.40066e-06
1.49303e-06
1.0984e-05
2.47603e-07
1.37723e-05
-1.31095e-06
1.66772e-05
-3.31779e-06
1.96079e-05
-5.74595e-06
2.24011e-05
-8.447e-06
2.49424e-05
-1.12426e-05
2.7233e-05
-1.39974e-05
2.92059e-05
-1.66479e-05
3.08206e-05
-1.91077e-05
3.17928e-05
-2.11676e-05
3.16409e-05
-2.23077e-05
3.02617e-05
-2.25767e-05
-2.19043e-05
2.76339e-05
2.12388e-06
5.47927e-06
1.94721e-06
1.71621e-06
1.17017e-06
2.90989e-06
2.65375e-07
3.67705e-06
1.69629e-08
3.56975e-06
7.99375e-07
3.38044e-06
2.13015e-06
2.76221e-06
3.80093e-06
1.65596e-06
5.83424e-06
4.25636e-07
8.29748e-06
-9.70198e-07
1.10962e-05
-2.55105e-06
1.41485e-05
-4.36331e-06
1.73084e-05
-6.47764e-06
2.04374e-05
-8.87488e-06
2.34305e-05
-1.14401e-05
2.62073e-05
-1.40193e-05
2.86903e-05
-1.64804e-05
3.07875e-05
-1.8745e-05
3.23117e-05
-2.06319e-05
3.30413e-05
-2.18971e-05
3.27049e-05
-2.19712e-05
3.095e-05
-2.08217e-05
-1.85285e-05
2.75742e-05
7.30694e-06
-1.82767e-06
8.19117e-06
8.31973e-07
6.50502e-06
4.59603e-06
3.15696e-06
7.0251e-06
1.28819e-06
5.4385e-06
1.29735e-06
3.37128e-06
2.39624e-06
1.66332e-06
4.03876e-06
1.34344e-08
6.17322e-06
-1.70882e-06
8.77071e-06
-3.56768e-06
1.17624e-05
-5.54272e-06
1.50462e-05
-7.64708e-06
1.84736e-05
-9.90503e-06
2.18926e-05
-1.22939e-05
2.51679e-05
-1.47153e-05
2.81873e-05
-1.70387e-05
3.08204e-05
-1.91133e-05
3.29221e-05
-2.08465e-05
3.45295e-05
-2.22389e-05
3.39003e-05
-2.12672e-05
3.24303e-05
-2.05004e-05
2.91204e-05
-1.75115e-05
-1.4615e-05
2.52074e-05
4.22572e-06
-6.05335e-06
1.11168e-05
-6.05915e-06
1.4409e-05
1.30387e-06
8.00003e-06
1.3434e-05
3.0247e-06
1.04138e-05
2.16481e-06
4.23117e-06
3.32043e-06
5.07699e-07
5.15386e-06
-1.81999e-06
7.38125e-06
-3.9362e-06
1.012e-05
-6.30643e-06
1.3338e-05
-8.76064e-06
1.68673e-05
-1.11763e-05
2.04934e-05
-1.35311e-05
2.40289e-05
-1.58294e-05
2.73555e-05
-1.80417e-05
3.03615e-05
-2.00445e-05
3.2715e-05
-2.14665e-05
3.30474e-05
-2.11784e-05
2.9751e-05
-1.89414e-05
2.48722e-05
-1.6387e-05
2.04911e-05
-1.61184e-05
1.95114e-05
-1.65309e-05
-1.40553e-05
1.89513e-05
-2.30763e-06
-3.74567e-06
1.40161e-06
-9.76837e-06
1.13046e-05
-8.59908e-06
1.63584e-05
8.38021e-06
1.07574e-05
1.60148e-05
5.54309e-06
9.44552e-06
2.9678e-06
3.08303e-06
2.67137e-06
-1.52351e-06
3.66929e-06
-4.93407e-06
5.74548e-06
-8.38255e-06
8.70738e-06
-1.17225e-05
1.1858e-05
-1.43268e-05
1.4687e-05
-1.63599e-05
1.72356e-05
-1.83778e-05
1.95552e-05
-2.03612e-05
2.15181e-05
-2.20072e-05
2.27872e-05
-2.27356e-05
2.2839e-05
-2.12301e-05
2.07623e-05
-1.68648e-05
1.84092e-05
-1.40339e-05
1.54207e-05
-1.31297e-05
1.38729e-05
-1.49834e-05
-1.1582e-05
1.13988e-05
1.22158e-06
-4.96713e-06
-2.11406e-06
-6.43265e-06
1.54473e-07
-1.08676e-05
3.27535e-06
5.2594e-06
4.95692e-06
1.43333e-05
3.82557e-06
1.05769e-05
2.40153e-06
4.50714e-06
1.69613e-06
-8.18058e-07
2.09546e-06
-5.33335e-06
3.47788e-06
-9.76492e-06
5.34311e-06
-1.35876e-05
7.30361e-06
-1.62872e-05
8.96357e-06
-1.80198e-05
1.0182e-05
-1.95963e-05
1.10132e-05
-2.11923e-05
1.13706e-05
-2.23648e-05
1.12307e-05
-2.25959e-05
1.1104e-05
-2.11039e-05
1.17012e-05
-1.74625e-05
1.15351e-05
-1.3868e-05
1.19415e-05
-1.35365e-05
9.91343e-06
-1.29556e-05
-9.38799e-06
7.71836e-06
6.77677e-07
-5.64485e-06
-9.96548e-07
-4.7584e-06
-6.94162e-06
-4.92243e-06
-5.49503e-06
3.8129e-06
-1.58098e-06
1.04194e-05
2.31262e-07
8.76477e-06
6.97687e-07
4.04078e-06
8.29458e-07
-9.49777e-07
1.19774e-06
-5.70159e-06
2.02468e-06
-1.05918e-05
2.90937e-06
-1.44723e-05
3.77453e-06
-1.71524e-05
4.42708e-06
-1.86724e-05
4.72618e-06
-1.98954e-05
4.69162e-06
-2.11579e-05
4.29645e-06
-2.19698e-05
3.6488e-06
-2.19486e-05
3.20987e-06
-2.06654e-05
3.80177e-06
-1.80548e-05
5.20837e-06
-1.52749e-05
5.26127e-06
-1.35897e-05
4.14731e-06
-1.18422e-05
-8.30975e-06
3.06795e-06
-1.10861e-06
-4.53616e-06
-3.67111e-06
-2.19586e-06
-7.58114e-06
-1.01233e-06
-7.76531e-06
3.99714e-06
-4.68392e-06
7.33809e-06
-2.21371e-06
6.29463e-06
-8.50696e-07
2.67782e-06
-9.94381e-08
-1.70099e-06
4.14077e-07
-6.21506e-06
6.55613e-07
-1.08333e-05
8.40789e-07
-1.46574e-05
9.26295e-07
-1.72379e-05
8.48576e-07
-1.85947e-05
6.46798e-07
-1.96937e-05
1.88027e-07
-2.06992e-05
-5.0819e-07
-2.12737e-05
-1.30939e-06
-2.11476e-05
-1.8799e-06
-2.00951e-05
-1.79582e-06
-1.81392e-05
-1.24566e-06
-1.58252e-05
-1.07242e-06
-1.37631e-05
-1.44083e-06
-1.14741e-05
-8.30188e-06
-1.44978e-06
-2.84648e-06
-1.68978e-06
-5.21589e-06
1.73549e-07
-7.77423e-06
1.54604e-06
-7.71508e-06
3.93804e-06
-5.71674e-06
5.33981e-06
-3.59787e-06
4.17582e-06
-2.10775e-06
1.18776e-06
-1.1892e-06
-2.61949e-06
-6.98539e-07
-6.70568e-06
-7.82307e-07
-1.07495e-05
-1.15365e-06
-1.42861e-05
-1.67294e-06
-1.67185e-05
-2.18938e-06
-1.80782e-05
-2.72533e-06
-1.91577e-05
-3.43163e-06
-1.99929e-05
-4.28902e-06
-2.04163e-05
-5.18289e-06
-2.02537e-05
-5.88784e-06
-1.93903e-05
-6.17352e-06
-1.78536e-05
-6.08644e-06
-1.59121e-05
-6.00157e-06
-1.3848e-05
-5.94967e-06
-1.15263e-05
-8.64286e-06
-5.60964e-06
-3.34387e-06
1.65419e-06
-5.6273e-06
2.457e-06
-7.18765e-06
3.10641e-06
-7.20487e-06
3.95529e-06
-5.92214e-06
4.05711e-06
-4.38221e-06
2.63593e-06
-3.16987e-06
-2.45439e-08
-2.42269e-06
-3.36663e-06
-2.1548e-06
-6.97354e-06
-2.38933e-06
-1.0515e-05
-3.09186e-06
-1.35835e-05
-3.97455e-06
-1.58358e-05
-4.74401e-06
-1.73087e-05
-5.52575e-06
-1.8376e-05
-6.40471e-06
-1.91139e-05
-7.36796e-06
-1.94531e-05
-8.32424e-06
-1.92975e-05
-9.12934e-06
-1.85852e-05
-9.64327e-06
-1.73396e-05
-9.86017e-06
-1.5695e-05
-9.91357e-06
-1.37946e-05
-9.81379e-06
-1.16262e-05
-9.03559e-06
-9.422e-06
-3.13331e-06
4.78733e-06
-5.1981e-06
4.52173e-06
-6.40864e-06
4.31693e-06
-6.54807e-06
4.09473e-06
-5.83375e-06
3.3428e-06
-4.86459e-06
1.66679e-06
-4.06635e-06
-8.2276e-07
-3.62445e-06
-3.80851e-06
-3.61291e-06
-6.98505e-06
-4.05761e-06
-1.00702e-05
-4.87341e-06
-1.27677e-05
-5.85228e-06
-1.48569e-05
-6.8158e-06
-1.63452e-05
-7.78286e-06
-1.74089e-05
-8.79817e-06
-1.80986e-05
-9.84661e-06
-1.84046e-05
-1.0865e-05
-1.82791e-05
-1.17568e-05
-1.76934e-05
-1.24304e-05
-1.66661e-05
-1.28573e-05
-1.52679e-05
-1.30716e-05
-1.35801e-05
-1.30736e-05
-1.16244e-05
-9.27397e-06
-1.28361e-05
-2.72766e-06
7.515e-06
-4.56065e-06
6.35469e-06
-5.62946e-06
5.38572e-06
-5.92929e-06
4.39454e-06
-5.65e-06
3.06351e-06
-5.16058e-06
1.17737e-06
-4.76423e-06
-1.2191e-06
-4.6328e-06
-3.93993e-06
-4.84872e-06
-6.76912e-06
-5.43123e-06
-9.48771e-06
-6.3131e-06
-1.18858e-05
-7.35189e-06
-1.38181e-05
-8.42812e-06
-1.52689e-05
-9.52488e-06
-1.63121e-05
-1.06443e-05
-1.69791e-05
-1.17682e-05
-1.72807e-05
-1.2849e-05
-1.71983e-05
-1.38204e-05
-1.6722e-05
-1.46194e-05
-1.58671e-05
-1.52104e-05
-1.46767e-05
-1.5593e-05
-1.31975e-05
-1.57662e-05
-1.14512e-05
-9.30791e-06
-1.57332e-05
-2.35313e-06
9.86788e-06
-3.96326e-06
7.96471e-06
-4.95289e-06
6.37529e-06
-5.38465e-06
4.82626e-06
-5.41678e-06
3.09561e-06
-5.291e-06
1.05158e-06
-5.2218e-06
-1.2883e-06
-5.34994e-06
-3.81179e-06
-5.75017e-06
-6.36889e-06
-6.43765e-06
-8.80022e-06
-7.36519e-06
-1.09582e-05
-8.44158e-06
-1.27417e-05
-9.58508e-06
-1.41253e-05
-1.07635e-05
-1.51336e-05
-1.19554e-05
-1.57872e-05
-1.31389e-05
-1.60973e-05
-1.4276e-05
-1.60611e-05
-1.53186e-05
-1.56795e-05
-1.62191e-05
-1.49666e-05
-1.69468e-05
-1.39488e-05
-1.74872e-05
-1.2657e-05
-1.78361e-05
-1.11024e-05
-9.13557e-06
-1.80093e-05
-2.03518e-06
1.1903e-05
-3.43946e-06
9.36889e-06
-4.35527e-06
7.29103e-06
-4.86745e-06
5.33838e-06
-5.10399e-06
3.33211e-06
-5.2316e-06
1.17916e-06
-5.40267e-06
-1.11725e-06
-5.72636e-06
-3.48812e-06
-6.26382e-06
-5.83144e-06
-7.02897e-06
-8.03508e-06
-7.99119e-06
-9.996e-06
-9.09071e-06
-1.16422e-05
-1.02701e-05
-1.29459e-05
-1.14916e-05
-1.3912e-05
-1.27276e-05
-1.45512e-05
-1.39523e-05
-1.48726e-05
-1.51333e-05
-1.48802e-05
-1.62328e-05
-1.458e-05
-1.72148e-05
-1.39846e-05
-1.80504e-05
-1.31131e-05
-1.87244e-05
-1.1983e-05
-1.92305e-05
-1.05964e-05
-8.79949e-06
-1.95675e-05
-1.73881e-06
1.36415e-05
-2.93995e-06
1.05698e-05
-3.76471e-06
8.11565e-06
-4.30213e-06
5.87572e-06
-4.65561e-06
3.68551e-06
-4.94419e-06
1.46769e-06
-5.27694e-06
-7.84547e-07
-5.73569e-06
-3.0294e-06
-6.36791e-06
-5.19925e-06
-7.18563e-06
-7.21738e-06
-8.16905e-06
-9.01259e-06
-9.27787e-06
-1.05333e-05
-1.04688e-05
-1.1755e-05
-1.17066e-05
-1.26742e-05
-1.29623e-05
-1.32956e-05
-1.42086e-05
-1.36262e-05
-1.54164e-05
-1.36724e-05
-1.65546e-05
-1.34419e-05
-1.7593e-05
-1.29462e-05
-1.85088e-05
-1.21972e-05
-1.92842e-05
-1.12076e-05
-1.99084e-05
-9.97232e-06
-8.32691e-06
-2.03819e-05
-1.41843e-06
1.50598e-05
-2.40035e-06
1.15516e-05
-3.10585e-06
8.821e-06
-3.6188e-06
6.38856e-06
-4.02099e-06
4.08762e-06
-4.39843e-06
1.84507e-06
-4.82889e-06
-3.54155e-07
-5.37178e-06
-2.48656e-06
-6.06225e-06
-4.50882e-06
-6.90952e-06
-6.37014e-06
-7.89981e-06
-8.02232e-06
-9.00412e-06
-9.42902e-06
-1.01888e-05
-1.05704e-05
-1.14224e-05
-1.14406e-05
-1.26766e-05
-1.20413e-05
-1.3925e-05
-1.23779e-05
-1.51407e-05
-1.24567e-05
-1.62969e-05
-1.22858e-05
-1.73689e-05
-1.18741e-05
-1.83339e-05
-1.12321e-05
-1.91766e-05
-1.03649e-05
-1.98851e-05
-9.26395e-06
-7.77242e-06
-2.04404e-05
-1.03975e-06
1.60991e-05
-1.77195e-06
1.22835e-05
-2.32795e-06
9.37682e-06
-2.77497e-06
6.83544e-06
-3.17406e-06
4.48661e-06
-3.58599e-06
2.25691e-06
-4.06463e-06
1.24413e-07
-4.65108e-06
-1.90017e-06
-5.36968e-06
-3.79027e-06
-6.22604e-06
-5.51382e-06
-7.20908e-06
-7.03931e-06
-8.29625e-06
-8.34186e-06
-9.46003e-06
-9.40662e-06
-1.06727e-05
-1.02279e-05
-1.19078e-05
-1.08062e-05
-1.31402e-05
-1.11455e-05
-1.43453e-05
-1.12517e-05
-1.54993e-05
-1.11319e-05
-1.65794e-05
-1.0794e-05
-1.75675e-05
-1.02439e-05
-1.84456e-05
-9.48662e-06
-1.91981e-05
-8.51167e-06
-7.16138e-06
-1.981e-05
-5.88812e-07
1.66878e-05
-1.03844e-06
1.27329e-05
-1.41601e-06
9.75421e-06
-1.76411e-06
7.1834e-06
-2.12134e-06
4.8437e-06
-2.52712e-06
2.66259e-06
-3.01622e-06
6.13428e-07
-3.61438e-06
-1.30209e-06
-4.33649e-06
-3.06822e-06
-5.18407e-06
-4.66629e-06
-6.14655e-06
-6.07686e-06
-7.20483e-06
-7.28361e-06
-8.33532e-06
-8.27615e-06
-9.51328e-06
-9.04998e-06
-1.07143e-05
-9.6052e-06
-1.1915e-05
-9.94491e-06
-1.30926e-05
-1.00742e-05
-1.42256e-05
-9.99906e-06
-1.52942e-05
-9.72543e-06
-1.62792e-05
-9.25881e-06
-1.71652e-05
-8.60055e-06
-1.79369e-05
-7.7401e-06
-6.53595e-06
-1.85631e-05
-8.64508e-08
1.67737e-05
-2.16588e-07
1.28628e-05
-3.94914e-07
9.9323e-06
-6.18683e-07
7.40699e-06
-9.04138e-07
5.12902e-06
-1.2722e-06
3.03053e-06
-1.74199e-06
1.08311e-06
-2.32636e-06
-7.17812e-07
-3.03133e-06
-2.36332e-06
-3.8542e-06
-3.84349e-06
-4.78358e-06
-5.14753e-06
-5.80195e-06
-6.26528e-06
-6.88814e-06
-7.18998e-06
-8.01969e-06
-7.91846e-06
-9.17414e-06
-8.45077e-06
-1.03297e-05
-8.78942e-06
-1.14654e-05
-8.93853e-06
-1.25614e-05
-8.90313e-06
-1.35988e-05
-8.68808e-06
-1.45616e-05
-8.29588e-06
-1.54333e-05
-7.72876e-06
-1.61968e-05
-6.97674e-06
-5.90281e-06
-1.68308e-05
4.53028e-07
1.63205e-05
6.3528e-07
1.26803e-05
6.72144e-07
9.89521e-06
5.92686e-07
7.48626e-06
4.03076e-07
5.31847e-06
9.92926e-08
3.33418e-06
-3.25114e-07
1.50741e-06
-8.72651e-07
-1.70373e-07
-1.54196e-06
-1.6941e-06
-2.3252e-06
-3.06031e-06
-3.20919e-06
-4.2636e-06
-4.17698e-06
-5.29753e-06
-5.2087e-06
-6.1583e-06
-6.28354e-06
-6.84364e-06
-7.38069e-06
-7.35367e-06
-8.47987e-06
-7.69029e-06
-9.56164e-06
-7.85684e-06
-1.06076e-05
-7.85722e-06
-1.16012e-05
-7.69454e-06
-1.25251e-05
-7.3719e-06
-1.33654e-05
-6.8884e-06
-1.41075e-05
-6.23477e-06
-5.2929e-06
-1.47182e-05
9.41406e-07
1.53785e-05
1.44541e-06
1.21759e-05
1.70467e-06
9.63571e-06
1.78424e-06
7.40649e-06
1.70946e-06
5.39308e-06
1.49067e-06
3.55283e-06
1.13364e-06
1.86431e-06
6.43506e-07
3.1966e-07
2.93056e-08
-1.07999e-06
-6.98229e-07
-2.33286e-06
-1.52444e-06
-3.43744e-06
-2.431e-06
-4.39101e-06
-3.39836e-06
-5.19098e-06
-4.40705e-06
-5.83499e-06
-5.43747e-06
-6.32328e-06
-6.47073e-06
-6.65708e-06
-7.48881e-06
-6.83883e-06
-8.47469e-06
-6.87142e-06
-9.41184e-06
-6.75743e-06
-1.02863e-05
-6.49737e-06
-1.10831e-05
-6.09153e-06
-1.17861e-05
-5.5319e-06
-4.70756e-06
-1.23721e-05
1.3431e-06
1.40353e-05
2.138e-06
1.13807e-05
2.61701e-06
9.15645e-06
2.86445e-06
7.15884e-06
2.91957e-06
5.3378e-06
2.80376e-06
3.66848e-06
2.53184e-06
2.13611e-06
2.11674e-06
7.34645e-07
1.57334e-06
-5.36679e-07
9.16591e-07
-1.67619e-06
1.62912e-07
-2.68383e-06
-6.69894e-07
-3.55826e-06
-1.56296e-06
-4.29796e-06
-2.49643e-06
-4.90155e-06
-3.45148e-06
-5.36827e-06
-4.4105e-06
-5.69811e-06
-5.35653e-06
-5.89288e-06
-6.27366e-06
-5.95438e-06
-7.14727e-06
-5.88386e-06
-7.96241e-06
-5.6821e-06
-8.70641e-06
-5.34753e-06
-9.36548e-06
-4.87288e-06
-4.16663e-06
-9.90709e-06
1.61932e-06
1.24154e-05
2.65564e-06
1.03441e-05
3.33705e-06
8.47476e-06
3.75214e-06
6.74353e-06
3.94573e-06
5.14403e-06
3.94607e-06
3.66799e-06
3.77462e-06
2.30743e-06
3.45009e-06
1.05906e-06
2.99159e-06
-7.82768e-08
2.41791e-06
-1.10259e-06
1.74776e-06
-2.01375e-06
1.00001e-06
-2.81056e-06
1.93125e-07
-3.49112e-06
-6.54898e-07
-4.05356e-06
-1.52637e-06
-4.49684e-06
-2.4036e-06
-4.82093e-06
-3.27044e-06
-5.0261e-06
-4.11205e-06
-5.11285e-06
-4.91397e-06
-5.08197e-06
-5.66375e-06
-4.93221e-06
-6.34853e-06
-4.66269e-06
-6.95398e-06
-4.26757e-06
-3.66134e-06
-7.45992e-06
1.75771e-06
1.06575e-05
2.97081e-06
9.1307e-06
3.82461e-06
7.62073e-06
4.39517e-06
6.17276e-06
4.72578e-06
4.81325e-06
4.84734e-06
3.54627e-06
4.78523e-06
2.36941e-06
4.5622e-06
1.28198e-06
4.20007e-06
2.83765e-07
3.72054e-06
-6.23147e-07
3.14391e-06
-1.43718e-06
2.48963e-06
-2.15632e-06
1.77635e-06
-2.77788e-06
1.02192e-06
-3.29917e-06
2.43138e-07
-3.7181e-06
-5.44395e-07
-4.03345e-06
-1.3258e-06
-4.24476e-06
-2.08622e-06
-4.35249e-06
-2.81251e-06
-4.35571e-06
-3.49152e-06
-4.25307e-06
-4.11233e-06
-4.04189e-06
-4.66289e-06
-3.71704e-06
-3.20713e-06
-5.11772e-06
1.77552e-06
8.88148e-06
3.09497e-06
7.81094e-06
4.07729e-06
6.63818e-06
4.7777e-06
5.47216e-06
5.2319e-06
4.35889e-06
5.46947e-06
3.30857e-06
5.51691e-06
2.32184e-06
5.39915e-06
1.39964e-06
5.13976e-06
5.4307e-07
4.76148e-06
-2.44935e-07
4.2855e-06
-9.61255e-07
3.73151e-06
-1.60238e-06
3.11791e-06
-2.16432e-06
2.46196e-06
-2.64324e-06
1.77983e-06
-3.036e-06
1.0867e-06
-3.34035e-06
3.96754e-07
-3.55487e-06
-2.77196e-07
-3.6786e-06
-9.228e-07
-3.71012e-06
-1.52823e-06
-3.64753e-06
-2.08297e-06
-3.48708e-06
-2.57115e-06
-3.22896e-06
-2.79703e-06
-2.98179e-06
1.70596e-06
7.17549e-06
3.06519e-06
6.45154e-06
4.12564e-06
5.57756e-06
4.9189e-06
4.67875e-06
5.47141e-06
3.80625e-06
5.80894e-06
2.97091e-06
5.95682e-06
2.17386e-06
5.94003e-06
1.41635e-06
5.78235e-06
7.00666e-07
5.50645e-06
3.09059e-08
5.13341e-06
-5.88263e-07
4.68255e-06
-1.15155e-06
4.17162e-06
-1.65341e-06
3.61707e-06
-2.08871e-06
3.03418e-06
-2.45314e-06
2.43719e-06
-2.74339e-06
1.83941e-06
-2.95713e-06
1.25306e-06
-3.0923e-06
6.89285e-07
-3.14634e-06
1.5832e-07
-3.11643e-06
-3.27715e-07
-3.00102e-06
-7.63813e-07
-2.79285e-06
-2.45282e-06
-1.10852e-06
1.58401e-06
5.59114e-06
2.92839e-06
5.10698e-06
4.01519e-06
4.49062e-06
4.8587e-06
3.83512e-06
5.47659e-06
3.18826e-06
5.88971e-06
2.55769e-06
6.12066e-06
1.94283e-06
6.19274e-06
1.3442e-06
6.12865e-06
7.64694e-07
5.94979e-06
2.09721e-07
5.67626e-06
-3.14774e-07
5.32633e-06
-8.01642e-07
4.9167e-06
-1.2438e-06
4.46272e-06
-1.63475e-06
3.97859e-06
-1.96902e-06
3.47752e-06
-2.24234e-06
2.97177e-06
-2.45141e-06
2.47283e-06
-2.59339e-06
1.99169e-06
-2.6652e-06
1.53829e-06
-2.66291e-06
1.12067e-06
-2.58332e-06
7.53117e-07
-2.4254e-06
-2.14784e-06
4.4767e-07
1.44412e-06
4.14709e-06
2.72829e-06
3.82278e-06
3.79389e-06
3.42495e-06
4.64452e-06
2.98442e-06
5.29176e-06
2.54095e-06
5.75163e-06
2.09775e-06
6.04303e-06
1.65137e-06
6.18625e-06
1.20094e-06
6.20159e-06
7.49316e-07
6.10879e-06
3.02485e-07
5.926e-06
-1.32004e-07
5.66989e-06
-5.45537e-07
5.35567e-06
-9.29585e-07
4.99733e-06
-1.27641e-06
4.60779e-06
-1.57949e-06
4.19906e-06
-1.83363e-06
3.78237e-06
-2.03473e-06
3.36817e-06
-2.17922e-06
2.96595e-06
-2.26297e-06
2.58536e-06
-2.2822e-06
2.23455e-06
-2.2325e-06
1.92285e-06
-2.11369e-06
-1.89009e-06
1.66467e-06
1.30996e-06
2.83701e-06
2.49519e-06
2.63752e-06
3.49711e-06
2.42302e-06
4.31665e-06
2.16486e-06
4.96006e-06
1.89751e-06
5.43819e-06
1.61959e-06
5.76568e-06
1.32386e-06
5.95937e-06
1.00722e-06
6.0368e-06
6.71867e-07
6.01517e-06
3.24101e-07
5.91037e-06
-2.72105e-08
5.73704e-06
-3.7221e-07
5.50861e-06
-7.01146e-07
5.23743e-06
-1.00522e-06
4.93498e-06
-1.27703e-06
4.61195e-06
-1.51059e-06
4.27832e-06
-1.70112e-06
3.94341e-06
-1.84432e-06
3.61623e-06
-1.93578e-06
3.30445e-06
-1.97032e-06
3.01583e-06
-1.94381e-06
2.75932e-06
-1.85725e-06
-1.67615e-06
2.54502e-06
1.17943e-06
1.65785e-06
2.23863e-06
1.57843e-06
3.14697e-06
1.51473e-06
3.90592e-06
1.40594e-06
4.51773e-06
1.2857e-06
4.98855e-06
1.14876e-06
5.32896e-06
9.83449e-07
5.55252e-06
7.83653e-07
5.67357e-06
5.50811e-07
5.70655e-06
2.91126e-07
5.66489e-06
1.4463e-08
5.56098e-06
-2.68287e-07
5.40625e-06
-5.46398e-07
5.21128e-06
-8.10237e-07
4.98596e-06
-1.05169e-06
4.73958e-06
-1.2642e-06
4.4809e-06
-1.44244e-06
4.21817e-06
-1.58159e-06
3.95887e-06
-1.67647e-06
3.71044e-06
-1.72178e-06
3.47955e-06
-1.71291e-06
3.27308e-06
-1.65077e-06
-1.51046e-06
3.10706e-06
1.04005e-06
6.17904e-07
1.95583e-06
6.62781e-07
2.75135e-06
7.19297e-07
3.43051e-06
7.26834e-07
3.99096e-06
7.25283e-07
4.43452e-06
7.05223e-07
4.76834e-06
6.49646e-07
5.00281e-06
5.49191e-07
5.14983e-06
4.03808e-07
5.22091e-06
2.2007e-07
5.22701e-06
8.38502e-09
5.17824e-06
-2.19496e-07
5.08396e-06
-4.52092e-07
4.95292e-06
-6.7917e-07
4.79338e-06
-8.92132e-07
4.61322e-06
-1.08402e-06
4.41989e-06
-1.24911e-06
4.22053e-06
-1.38223e-06
4.022e-06
-1.47792e-06
3.83038e-06
-1.53008e-06
3.65132e-06
-1.5338e-06
3.49176e-06
-1.49128e-06
-1.38174e-06
3.36272e-06
8.82368e-07
-2.64103e-07
1.64422e-06
-9.88492e-08
2.3191e-06
4.45599e-08
2.90787e-06
1.38163e-07
3.40328e-06
2.29934e-07
3.80397e-06
3.04583e-07
4.11473e-06
3.38915e-07
4.3438e-06
3.20162e-07
4.50053e-06
2.47102e-07
4.5941e-06
1.26534e-07
4.63303e-06
-3.05146e-08
4.62518e-06
-2.11615e-07
4.57788e-06
-4.04761e-07
4.49807e-06
-5.99325e-07
4.39241e-06
-7.8644e-07
4.26733e-06
-9.58925e-07
4.1291e-06
-1.11087e-06
3.98377e-06
-1.23689e-06
3.83686e-06
-1.33099e-06
3.69409e-06
-1.38723e-06
3.56055e-06
-1.40028e-06
3.44152e-06
-1.37227e-06
-1.29256e-06
3.35207e-06
7.05433e-07
-9.69288e-07
1.31073e-06
-7.03933e-07
1.86272e-06