/*--------------------------------*- C++ -*----------------------------------*\
  =========                 |
  \\      /  F ield         | OpenFOAM: The Open Source CFD Toolbox
   \\    /   O peration     | Website:  https://openfoam.org
    \\  /    A nd           | Version:  13
     \\/     M anipulation  |
\*---------------------------------------------------------------------------*/
FoamFile
{
    format      ascii;
    class       volScalarField;
    location    "1.7";
    object      rho;
}
// * * * * * * * * * * * * * * * * * * * * * * * * * * * * * * * * * * * * * //

dimensions      [1 -3 0 0 0 0 0];

internalField   nonuniform List<scalar> 
2268
(
13529
13529
13529
13529
13529
13529
13529
13529
13529
13529
13529
13529
13529
13529
13529
13529
13529
13529
13529
13529
13525
13521.6
13521.6
13529
13529
13529
13529
13529
13529
13529
13529
13529
13529
13529
13529
13529
13529
13529
13529
13529
13529
13529
13529
13528.8
13526.2
13524.6
13529
13529
13529
13529
13529
13529
13529
13529
13529
13529
13529
13529
13529
13529
13529
13529
13529
13529
13529
13529
13529
13529
13529
13529
13529
13529
13529
13529
13529
13529
13529
13529
13529
13529
13529
13529
13529
13529
13529
13529
13529
13529
13529
13529
13529
13529
12302.9
12118.2
12173.9
12489.6
12917.2
13353.3
13529
13529
13529
13529
13529
13529
13529
13529
13529
13529
13529
13529
13529
13529
13529
13529
13529
2501.05
2707.41
2960.95
3423.34
4147.31
5181.71
6716.44
8512.55
10214.7
11728.7
12987
13529
13529
13529
13529
13529
13529
13529
13529
13529
13529
13529
13529
1000
1000
1000
1000
1000
1000
1005.34
1156.06
1627.97
2504.17
3790.46
5760.47
8271.55
10608.6
12460.7
13218.8
13319.9
13504.5
13527
13522.4
13512.4
13454
13366.4
1000
1000
1000
1000
1000
1000
1000
1000
1000
1000
1000
1000
1102.35
1589.5
2389.38
3835.7
6361.91
8321.74
9071.1
9028.98
8789.56
7980.53
7316.83
11929.2
11930.5
11933.5
11926.9
11665.9
8356.43
7803.2
7811.35
7951.51
7910.39
9174.64
9716.43
9740.13
9770.49
9744.55
9718.66
9695.1
9686.05
9673.95
11585.8
11846.4
11544.5
11283.5
11470.3
11447.4
11386.6
10983.2
10598.6
10349.7
10269.1
9016.06
8588.82
8191.51
7774.66
8016.2
8480.49
8396.72
7361.54
3796.4
4953.47
6766.67
6284.32
6715.23
9230.07
11144
11127.9
10967.8
10277.5
8405.21
6597.77
4443
3825.86
3762.21
3687.81
3623.26
4142.19
5278.16
758.218
819.055
1860.4
3792.42
3432.54
3248.95
4113.12
6254.21
6356.06
4689.83
3188.35
2665.67
3286.66
2901.64
2492.4
2352.69
2160.71
2247.71
2166.47
1433.8
1131.24
971.396
2014.8
2426.55
1415.31
1079.82
1083.29
1465.9
2828.67
2734.32
2550.71
1571.1
1522.95
1504.91
1764.2
2092.18
1779.53
1334.65
3082.85
1886.82
1196.37
1324.62
2053.32
1816.02
1068.82
1005.59
797.246
461.76
776.841
599.859
539.372
869.215
974.117
964.53
1044.86
959.734
753.681
4529.74
2605.91
1726.34
879.283
1592.31
1952.88
1544.78
1004.91
999.339
889.696
827.785
839.956
910.005
972.112
999.765
919.457
897.901
868.41
783.331
4397.45
4098.58
2143.4
997.961
1056.15
1787.88
1890.88
1082.08
1000.76
1001.81
1000.76
998.205
999.471
1000.48
1001.45
971.716
720.184
759.595
670.892
1000
1000
1000
1000
1000
1000
1000
1000
1000
1000
1000
1000
1000
1000
1000
1000
1000
1000
1390.16
1811.16
1889.63
1662.18
1525.57
1000
1000
1000
1000
1000
1000
1000
1000
1000
1000
1000
1000
1000
1000
1000
1000
1000
1000
999.738
998.894
997.613
996.336
993.77
997.657
998.632
998.836
999.685
1000
1000
1000
1000
1000
1000
1000
1000
1000
1000
1000
1000
1000
999.665
994.111
977.247
965.552
926.989
872.626
835.83
903.771
931.455
951.576
966.319
982.372
972.395
961.917
963.045
966.445
961.911
948.809
938.634
937.36
941.632
932.915
908.327
859.563
781.716
705.598
611.128
541.228
500.959
555.427
530.95
560.78
577.442
597.993
585.257
594.797
597.797
588.916
582.583
575.598
565.392
550.891
530.83
519.197
510.363
478.034
449.045
419.962
424.26
462.028
489.829
498.94
419.229
492.022
493.028
493.022
485.225
444.648
443.787
466.407
474.053
466.857
459.673
460.701
466.856
479.616
486.438
489.906
495.369
498.959
499.712
500
499.592
497.607
495.021
436.474
476.613
476.706
485.963
487.405
488.613
489.897
490.765
490.762
489.414
487.545
483.892
478.361
470.707
459.757
443.902
423.68
401.033
377.251
343.001
286.908
237.033
201.013
287.404
248.308
230.551
212.672
198.284
199.305
194.631
185.92
177.154
169.459
160.249
147.985
131.942
112.676
91.6917
70.8851
51.19
32.5813
14.8651
1.00004
1
1
1
38.2362
58.8413
34.435
3.20805
1.00068
1.00047
1.00022
1.00022
1.00018
1.00022
1.00034
1.00061
1.00035
1.00012
1.00004
1.00001
1.00001
1.00001
1.00001
1.00001
1.00001
1
1.00001
1.00069
2.79331
7.02497
2.74993
1.00592
1.00081
1.00003
1.00003
1.00016
1.00031
1.00306
1.00256
1.00115
1.00017
1.00003
1.00003
1.00006
1.00015
1.00021
1.0002
1.00016
1.00016
1.00008
1.00031
1.00076
3.12439
1.75307
1.0056
1.00054
1.00003
1.0001
1.00033
1.00544
1.0688
1.06608
1.01555
1.00106
1.00042
1.00085
1.00133
1.001
1.00059
1.00037
1.00034
1.00026
1.00011
1.00041
1.01396
1.00091
1.16349
1.00159
1.0001
1.00006
1.00014
1.00014
1.06283
1.08821
1.08892
1.04666
1.0025
1.00181
1.00304
1.00301
1.00117
1.00048
1.00025
1.00021
1.00016
1.00007
1.0004
1.00034
1.00031
1.00038
1.00033
1.00007
1.00009
1.00015
1.00015
1.0758
1.08675
1.08787
1.04445
1.00318
1.00311
1.00308
1.00271
1.00056
1.00018
1.00007
1.00008
1.00006
1.00002
1.00049
1.0007
1.00033
1.00011
1.0001
1.00006
1.00008
1.00012
1.00028
1.00546
1.06
1.07091
1.01014
1.00314
1.00317
1.002
1.00033
1.00014
1.00005
1.00003
1.00003
1.00002
1.00001
1.00017
1.00031
1.00015
1.00008
1.00006
1.00005
1.00007
1.00009
1.00086
1.00001
1.00002
1.00013
1.0002
1.00128
1.00068
1.00013
1.00002
1.00003
1.00003
1.00002
1.00002
1.00002
1.00001
1.00004
1.00007
1.00007
1.00005
1.00004
1.00004
1.00003
1.00002
1.00001
1.00001
1.00001
1.00002
1.00014
1.00111
1.00019
1
1.00002
1.00002
1.00002
1.00002
1.00001
1.00001
1.00001
1.00004
1.00005
1.00005
1.00005
1.00004
1.00003
1.00002
1.00001
1.00001
1.00001
1.00001
1.00005
1.00039
1.00105
1.00006
1.00001
1.00002
1.00002
1.00001
1.00001
1.00001
1.00001
1.00001
1.00004
1.00005
1.00005
1.00005
1.00003
1.00002
1.00001
1.00001
1.00001
1.00001
1.00001
1.00007
1.00035
1.00022
1.00001
1.00002
1.00002
1.00001
1.00001
1.00001
1.00001
1.00001
1
1.00003
1.00004
1.00005
1.00004
1.00003
1.00002
1.00001
1.00001
1.00001
1.00001
1.00001
1.00003
1
1
1.00001
1.00002
1.00001
1.00001
1.00001
1
1
1
1
1.00003
1.00003
1.00004
1.00004
1.00003
1.00002
1.00001
1.00001
1.00001
1.00001
1
1
1
1
1.00001
1.00001
1.00001
1
1
1
1
1
1
1.00002
1.00003
1.00003
1.00003
1.00002
1.00002
1.00001
1.00001
1.00001
1
1
1
1
1
1
1
1
1
1
1
1
1
1
1.00002
1.00002
1.00002
1.00002
1.00002
1.00001
1.00001
1.00001
1
1
1
1
1
1
1
1
1
1
1
1
1
1
1
1.00001
1.00001
1.00001
1.00001
1.00001
1.00001
1.00001
1
1
1
1
1
1
1
1
1
1
1
1
1
1
1
1
1.00001
1.00001
1.00001
1.00001
1.00001
1.00001
1.00001
1
1
1
1
1
1
1
1
1
1
1
1
1
1
1
1
1.00001
1.00001
1
1
1
1
1
1
1
1
1
1
1
1
1
1
1
1
1
1
1
1
1
1.00001
1
1
1
1
1
1
1
1
1
1
1
1
1
1
1
1
1
1
1
1
1
1
1
1
1
1
1
1
1
1
1
1
1
1
1
1
1
1
1
1
1
1
1
1
1
1
1
1
1
1
1
1
1
1
1
1
1
1
1
1
1
1
1
1
1
1
1
1
1
1
1
1
1
1
1
1
1
1
1
1
1
1
1
1
1
1
1
1
1
1
1
1
1
1
1
1
1
1
1
1
1
1
1
1
1
1
1
1
1
1
1
1
1
1
1
1
1
1
1
1
1
1
1
1
1
1
1
1
1
1
1
1
1
1
1
1
1
1
1
1
1
1
1
1
1
1
1
1
1
1
1
1
1
1
1
1
1
1
1
1
1
1
1
1
1
1
1
1
1
1
1
1
1
1
1
1
1
1
1
1
1
1
1
1
1
1
1
1
1
1
1
1
1
1
1
1
1
1
1
1
1
1
1
1
1
1
1
1
1
1
1
1
1
1
1
1
1
1
1
1
1
1
1
1
1
1
1
1
1
1
1
1
1
1
1
1
1
1
1
1
1
1
1
1
1
1
1
1
1
1
1
1
1
1
1
1
1
1
1
1
1
1
1
1
1
1
1
1
1
1
1
1
1
1
1
1
1
1
1
1
1
1
1
1
1
1
1
1
1
1
1
1
1
1
1
1
1
1
1
1
1
1
1
1
1
1
1
1
1
1
1
1
1
1
1
1
1
1
1
1
1
1
1
1
1
1
1
1
1
1
1
1
1
1
1
1
1
1
1
1
1
1
1
1
1
1
1
1
1
1
1
1
1
1
1
1
1
1
1
1
1
1
1
1
1
1
1
1
1
1
1
1
1
1
1
1
1
1
1
1
1
1
1
1
1
1
1
1
1
1
3087.04
2958.46
1937.22
2664.09
987.866
985.461
986.487
976.711
815.672
734.264
714.339
647.837
492.765
489.33
408.306
396.871
499.899
499.831
495.989
481.093
493.325
493.918
494.038
495.618
185.758
188.703
202.636
225.574
1.00005
1.00012
1.00011
1.00005
1.00001
1
1
1
1.00006
1.00005
1.00003
1.00003
1.00009
1.00008
1.00007
1.00006
1.00007
1.00006
1.00006
1.00005
1.00002
1.00001
1.00002
1.00002
1.00001
1.00001
1.00001
1.00001
1.00001
1.00001
1.00001
1.00001
1.00001
1.00001
1.00001
1
1.00001
1
1
1
1
1
1
1
1
1
1
1
1
1
1
1
1
1
1
1
1
1
1
1
1
1
1
1
1
1
1
1
1
1
1
1
1
1
1
1
1
1
1
1
1
1
1
1
1
1
1
1
1
1
1
1
1
1
1
1
1
1
1
1
1
1
1
1
1
1
1
1
1
1
1
1
1
1
1
1
1
1
1
1
1
1
1
1
1
1
1
1
1
1
1
1
1
1
1
1
1
1
1
1
3151.36
2355.8
1675.45
874.969
948.382
1457.95
1756.66
1247.21
1001.26
1001.26
1001.9
1001.25
1000.63
1000.15
999.913
981.534
608.11
536.634
627.168
821.81
781.807
842.606
840.183
537.258
581.091
1094.57
1218.18
996.699
1000.11
1000.38
1000.26
999.263
999.189
929.722
677.887
506.39
501.96
545.647
457.604
430.528
527.559
551.571
488.087
501.028
518.393
659.951
879.25
901.183
973.267
979.671
896.899
661.144
532.567
502.203
504.171
500.567
517.809
452.107
499.869
493.116
489.207
502.377
501.173
499.992
491.502
527.931
709.178
716.858
655.628
524.549
500.011
500.027
499.887
501.311
500.09
506.408
500.004
500.004
500
500.001
500.021
500.09
500.04
499.993
481.712
452.169
462.453
495.841
499.993
499.959
499.967
499.991
499.885
500.003
498.56
499.758
500
500
500
500
500.002
500.007
500.011
500.011
497.004
499.29
499.841
499.99
499.964
499.959
499.998
500
499.997
493.194
269.419
356.152
435.134
487.394
500
500
500.002
500.005
500.005
500.002
500.001
500.119
500.008
499.998
499.995
499.998
500
499.956
493.087
1
12.9277
64.5533
155.656
281.188
395.439
469.021
500.001
500.002
500.001
500.002
500.013
500.017
500
500
499.999
500.007
499.682
489.763
1
1
1
1
5.1157
38.1397
119.37
258.95
401.906
487.325
500.003
500.006
500.004
500
500
500.003
500.015
499.606
489.474
1.00003
1.00002
1.00001
1.00001
1.00047
1.00048
1.00036
2.91228
46.1589
174.477
382.006
491.732
499.999
500
500.002
500.01
500.012
500.866
502.641
1.00005
1.00004
1.00004
1.00007
1.00014
1.00022
1.00019
1.00037
1.00043
1.00067
24.6946
149.07
366.579
492.865
500.015
500.031
500.012
509.889
580.448
1.00005
1.00004
1.00006
1.00019
1.00031
1.00028
1.00006
1.00006
1.0002
1.00057
1.00112
1.00114
14.2361
129.96
366.498
493.759
504.079
527.963
578.458
1.00002
1.00003
1.00008
1.00025
1.00032
1.00024
1.01953
1.14514
1.28763
1.0489
1.00037
1.00092
1.00123
1.00248
13.2707
135.805
292.69
347.88
263.574
1.00001
1.00003
1.00009
1.00018
1.00025
1.00023
1.10622
1.50975
1.50883
1.43775
1.00009
1.00019
1.0014
1.01051
1.06232
1.14978
4.71198
12.9431
11.4197
1.00001
1.00002
1.00006
1.00013
1.00026
1.00039
1.07365
1.32962
1.46114
1.24846
1.00018
1.03732
1.67147
2.08118
1.90651
1.75644
1.58689
1.00498
1.0009
1
1.00001
1.00001
1.00003
1.00012
1.00044
1.00391
1.00506
1.0351
1.00175
1.0003
1.01733
1.94656
2.101
1.99156
1.63486
1.38534
1.06042
1.00111
1
1
1.00001
1.00002
1.00004
1.00011
1.00009
1.00015
1.00025
1.00051
1.00127
1.04535
1.16792
1.29039
1.09226
1.01817
1.02137
1.01157
1.00046
1
1
1.00001
1.00001
1.00002
1.00005
1.00008
1.00011
1.00018
1.00053
1.00226
1.00996
1
1.00001
1.00012
1
1.00002
1.00019
1.00013
1
1
1
1.00001
1.00001
1.00003
1.00005
1.00007
1.00011
1.00019
1.00042
1.00009
1.00001
1.00002
1.00003
1.00007
1.0001
1.00019
1.00041
1
1
1
1
1
1.00001
1.00002
1.00003
1.00004
1.00006
1.00004
1.00001
1.00002
1.00003
1.00006
1.0001
1.00022
1.00049
1.00051
1
1
1
1
1
1
1.00001
1.00001
1.00002
1.00002
1.00001
1.00001
1.00002
1.00003
1.00006
1.0001
1.0002
1.00035
1.0005
1
1
1
1
1
1
1
1
1.00001
1.00001
1.00001
1.00001
1.00001
1.00002
1.00003
1.00005
1.00008
1.0001
1.00021
1
1
1
1
1
1
1
1
1
1
1
1
1.00001
1.00001
1.00002
1.00002
1.00003
1.00003
1.00003
1
1
1
1
1
1
1
1
1
1
1
1
1
1
1.00001
1.00001
1.00001
1.00001
1.00001
1
1
1
1
1
1
1
1
1
1
1
1
1
1
1
1.00001
1.00001
1.00001
1.00001
1
1
1
1
1
1
1
1
1
1
1
1
1
1
1
1.00001
1.00001
1.00001
1.00001
1
1
1
1
1
1
1
1
1
1
1
1
1
1
1
1.00001
1.00001
1.00001
1.00001
1
1
1
1
1
1
1
1
1
1
1
1
1
1
1
1.00001
1.00002
1.00003
1.00002
1
1
1
1
1
1
1
1
1
1
1
1
1
1
1
1.00001
1.00002
1.00006
1.00002
1
1
1
1
1
1
1
1
1
1
1
1
1
1
1
1.00001
1.00003
1.00005
1.00003
1
1
1
1
1
1
1
1
1
1
1
1
1
1
1
1.00001
1.00004
1.00006
1.00003
1
1
1
1
1
1
1
1
1
1
1
1
1
1
1
1.00001
1.00005
1.00005
1.00002
1
1
1
1
1
1
1
1
1
1
1
1
1
1
1
1.00002
1.00005
1.00006
1.00002
1
1
1
1
1
1
1
1
1
1
1
1
1
1
1.00001
1.00001
1.00004
1.00003
1.00001
1
1
1
1
1
1
1
1
1
1
1
1
1
1
1.00001
1.00001
1.00002
1.00002
1.00001
1
1
1
1
1
1
1
1
1
1
1
1
1
1
1
1.00001
1.00001
1.00001
1
1
1
1
1
1
1
1
1
1
1
1
1
1
1
1
1.00001
1
1
1
1
1
1
1
1
1
1
1
1
1
1
1
1
1
1
1
1
1
1
1
1
1
1
1
1
1
1
1
1
1
1
1
1
1
1
1
1
1
1
1
1
1
1
1
1
1
1
1
1
1
1
1
1
1
1
1
1
1
1
1
1
1
1
1
1
1
1
1
1
1
1
1
1
1
1
1
1
1
1
1
1
1
1
1
1
1
1
1
1
1
1
1
1
1
1
)
;

boundaryField
{
    leftWall
    {
        type            calculated;
        value           nonuniform List<scalar> 
50
(
13529
13529
13529
13529
12302.9
2501.05
1000
1000
1000
1000
997.657
835.83
555.427
419.229
436.474
287.404
38.2362
1.00069
1.00031
1.00041
1.0004
1.00049
1.00017
1.00004
1.00004
1.00004
1.00003
1.00003
1.00002
1.00002
1.00001
1.00001
1.00001
1.00001
1
1
1
1
1
1
1
1
1
1
1
1
1
1
1
1
)
;
    }
    rightWall
    {
        type            calculated;
        value           nonuniform List<scalar> 
50
(
9673.95
7361.54
5278.16
2166.47
1334.65
753.681
783.331
670.892
627.168
545.647
517.809
506.408
498.56
493.194
493.087
489.763
489.474
502.641
580.448
578.458
263.574
11.4197
1.0009
1.00111
1.00046
1.00013
1.00041
1.00051
1.0005
1.00021
1.00003
1.00001
1.00001
1.00001
1.00001
1.00002
1.00002
1.00003
1.00003
1.00002
1.00002
1.00001
1.00001
1
1
1
1
1
1
1
)
;
    }
    lowerWall
    {
        type            calculated;
        value           nonuniform List<scalar> 
62
(
13529
13529
13529
13529
13529
13529
13529
13529
13529
13529
13529
13529
13529
13529
13529
13529
13529
13529
13529
13529
13525
13521.6
13521.6
13521.6
13524.6
13529
13529
13529
13529
13366.4
7316.83
3087.04
2958.46
1937.22
2664.09
11929.2
11585.8
3796.4
758.218
1433.8
3082.85
4529.74
4397.45
11929.2
11930.5
11933.5
11926.9
11665.9
8356.43
7803.2
7811.35
7951.51
7910.39
9174.64
9716.43
9740.13
9770.49
9744.55
9718.66
9695.1
9686.05
9673.95
)
;
    }
    atmosphere
    {
        type            calculated;
        value           nonuniform List<scalar> 
46
(
1
1
1
1
1
1
1
1
1
1
1
1
1
1
1
1
1
1
1
1
1
1
1
1
1
1
1
1
1
1
1
1
1
1
1
1
1
1
1
1
1
1
1
1
1
1
)
;
    }
    defaultFaces
    {
        type            empty;
    }
}


// ************************************************************************* //
