/*--------------------------------*- C++ -*----------------------------------*\
  =========                 |
  \\      /  F ield         | OpenFOAM: The Open Source CFD Toolbox
   \\    /   O peration     | Website:  https://openfoam.org
    \\  /    A nd           | Version:  13
     \\/     M anipulation  |
\*---------------------------------------------------------------------------*/
FoamFile
{
    format      ascii;
    class       surfaceScalarField;
    location    "0.0001";
    object      meshPhi;
}
// * * * * * * * * * * * * * * * * * * * * * * * * * * * * * * * * * * * * * //

dimensions      [0 3 -1 0 0 0 0];

internalField   nonuniform List<scalar> 
3252
(
1.27987e-11
0
2.55975e-11
-1.82095e-25
3.83963e-11
1.80942e-25
5.11966e-11
1.80959e-25
6.40084e-11
-1.81032e-25
7.69056e-11
0
9.0521e-11
-3.69364e-25
-3.8856e-25
3.83963e-11
4.62548e-27
7.67924e-11
-1.44751e-24
1.15189e-10
-1.45217e-24
1.5359e-10
-1.45692e-24
1.92025e-10
-7.28756e-25
2.30716e-10
7.25555e-25
2.7155e-10
7.33747e-25
0
6.39938e-11
0
1.27987e-10
-2.18514e-24
1.91982e-10
2.18519e-24
2.55983e-10
2.17151e-24
3.20042e-10
0
3.84522e-10
2.17661e-24
4.5254e-10
-2.21566e-24
-4.66397e-24
8.95914e-11
-2.91351e-24
1.79183e-10
-5.80855e-24
2.68774e-10
-5.80866e-24
3.58376e-10
0
4.48057e-10
2.89647e-24
5.3832e-10
5.82271e-24
6.33462e-10
-1.96385e-26
3.13689e-24
1.15189e-10
0
2.30378e-10
0
3.45567e-10
-4.6255e-26
4.6077e-10
0
5.76073e-10
7.24113e-24
6.92109e-10
-7.25474e-24
8.1429e-10
0
-7.8447e-24
1.40786e-10
-8.68503e-24
2.81573e-10
-8.74057e-24
4.2236e-10
5.55061e-26
5.63163e-10
-8.7415e-24
7.04087e-10
-8.74483e-24
8.45886e-10
8.76108e-24
9.94994e-10
0
0
1.66384e-10
0
3.32768e-10
-6.47567e-26
4.99152e-10
-6.47571e-26
6.65556e-10
-1.01984e-23
8.32099e-10
-6.48184e-26
9.99649e-10
-6.52039e-26
1.17555e-09
1.02585e-23
-1.09919e-23
1.91982e-10
0
3.83963e-10
-1.17281e-23
5.75945e-10
-1.15803e-23
7.67949e-10
0
9.60111e-10
1.15854e-23
1.1534e-09
-2.33595e-23
1.35592e-09
2.35151e-23
0
2.17579e-10
8.32588e-26
4.35158e-10
1.31109e-23
6.52738e-10
-1.29446e-23
8.70342e-10
1.31121e-23
1.08812e-09
1.30334e-23
1.30712e-09
0
1.53608e-09
0
0
2.43177e-10
-2.91351e-23
4.86353e-10
0
7.29531e-10
0
9.72734e-10
0
1.21613e-09
2.89626e-23
1.46083e-09
0
1.71601e-09
-2.94565e-23
3.11924e-23
2.68774e-10
0
5.37548e-10
-3.20487e-23
8.06324e-10
0
1.07513e-09
-6.41034e-23
1.34413e-09
3.18584e-23
1.61453e-09
-2.04718e-25
1.89566e-09
6.43336e-23
-2.99001e-25
2.94372e-10
0
5.88743e-10
0
8.83117e-10
3.47408e-23
1.17752e-09
0
1.47214e-09
0
1.7682e-09
-3.48025e-23
2.07501e-09
0
3.74907e-23
3.1997e-10
3.76351e-23
6.39939e-10
3.76352e-23
9.59909e-10
7.55122e-23
1.27991e-09
-3.7879e-23
1.60014e-09
-3.76494e-23
1.92185e-09
-2.41804e-25
2.25402e-09
-7.61564e-23
-4.10079e-23
3.45567e-10
0
6.91134e-10
-2.59027e-25
1.0367e-09
-4.10489e-23
1.3823e-09
-2.59052e-25
1.72814e-09
-8.13485e-23
2.07549e-09
-4.11147e-23
2.43267e-09
-4.13687e-23
4.42078e-23
3.71165e-10
4.37026e-23
7.42329e-10
4.37028e-23
1.1135e-09
-8.71293e-23
1.4847e-09
-4.37061e-23
1.85614e-09
-4.37175e-23
2.22913e-09
-4.37672e-23
2.61174e-09
2.85976e-25
4.74079e-23
1.41206e-09
-4.22782e-24
1.35892e-09
0
1.30441e-09
4.56254e-24
1.24798e-09
-4.72671e-24
1.18946e-09
9.81624e-24
1.12877e-09
5.98184e-27
1.06582e-09
6.20399e-27
1.00054e-09
6.43441e-27
9.32828e-10
-5.65923e-24
8.62605e-10
0
7.89774e-10
6.10912e-24
7.14237e-10
6.34355e-24
6.35895e-10
-6.55608e-24
5.54642e-10
8.00831e-27
4.70371e-10
8.30579e-27
3.8297e-10
0
2.92322e-10
1.5199e-23
1.98306e-10
-7.86798e-24
1.00798e-10
9.61043e-27
0
3.84573e-09
2.05889e-26
3.70103e-09
2.02069e-26
3.55259e-09
-3.51955e-23
3.39889e-09
-1.82417e-23
3.23952e-09
2.22589e-26
3.07423e-09
2.30852e-26
2.9028e-09
0
2.725e-09
2.48318e-26
2.5406e-09
2.5754e-26
2.34935e-09
4.54643e-23
2.15099e-09
-2.3549e-23
1.94527e-09
2.87317e-26
1.73191e-09
2.53613e-23
1.51062e-09
-5.25145e-23
1.28111e-09
-2.72489e-23
1.04307e-09
-2.82613e-23
7.96193e-10
-2.93113e-23
5.40143e-10
3.04719e-23
2.74583e-10
-3.15299e-23
-3.27042e-23
5.76419e-09
-4.72472e-23
5.54738e-09
0
5.32492e-09
5.09886e-23
5.09455e-09
0
4.85568e-09
6.44548e-26
4.60793e-09
5.68884e-23
4.35098e-09
-5.89328e-23
4.08449e-09
7.19053e-26
3.8081e-09
-6.33935e-23
3.52144e-09
6.58263e-23
3.22414e-09
-6.81918e-23
2.9158e-09
8.31987e-26
2.596e-09
8.62893e-26
2.26432e-09
7.61683e-23
1.92031e-09
0
1.56353e-09
8.19335e-23
1.1935e-09
-8.48779e-23
8.09717e-10
-8.80316e-23
4.11679e-10
1.074e-25
9.48131e-23
7.25035e-09
0
6.97778e-09
-6.32061e-23
6.69801e-09
7.72693e-26
6.40825e-09
-2.04119e-22
6.10778e-09
1.41164e-22
5.79616e-09
7.31614e-23
5.47296e-09
8.92661e-26
5.13776e-09
-1.57398e-22
4.79011e-09
8.17192e-23
4.42955e-09
8.47555e-23
4.05559e-09
1.03286e-25
3.66774e-09
0
3.26549e-09
9.45582e-23
2.84829e-09
1.1523e-25
2.41559e-09
1.1951e-25
1.96682e-09
1.2395e-25
1.50137e-09
1.28555e-25
1.01864e-09
2.66662e-25
5.17969e-10
1.17696e-22
1.43081e-25
8.37498e-09
0
8.06034e-09
7.64217e-23
7.73721e-09
-7.92825e-23
7.40251e-09
-9.66417e-26
7.05544e-09
0
6.69547e-09
-1.03938e-25
6.32214e-09
2.74903e-22
5.93494e-09
1.9019e-22
5.53336e-09
-9.85702e-23
5.11687e-09
0
4.6849e-09
1.06031e-22
4.23688e-09
1.09971e-22
3.77223e-09
1.14057e-22
3.29031e-09
0
2.79049e-09
-1.44323e-25
2.2721e-09
1.27248e-22
1.73444e-09
-1.55246e-25
1.17682e-09
-1.61014e-25
5.98479e-10
-2.84265e-22
0
9.1984e-09
-2.5582e-22
8.85309e-09
-8.86383e-23
8.49824e-09
1.08189e-25
8.13064e-09
-9.5262e-23
7.74943e-09
1.97604e-22
7.35407e-09
-2.05187e-22
6.94403e-09
1.25027e-25
6.51876e-09
-1.10359e-22
6.07769e-09
0
5.62023e-09
1.39483e-25
5.14578e-09
0
4.65371e-09
1.27547e-22
4.14336e-09
-1.32442e-22
3.61405e-09
-1.37201e-22
3.06507e-09
1.42467e-22
2.4957e-09
4.4328e-22
1.90518e-09
3.0632e-22
1.29271e-09
-1.58757e-22
6.57494e-10
3.29505e-22
2.00501e-25
9.77196e-09
-1.92229e-22
9.40542e-09
0
9.0285e-09
2.07471e-22
8.63798e-09
-2.14932e-22
8.233e-09
0
7.81298e-09
0
7.37736e-09
0
6.92556e-09
0
6.45698e-09
-2.57941e-22
5.97099e-09
-2.67525e-22
5.46695e-09
3.26394e-25
4.94418e-09
0
4.40199e-09
0
3.83966e-09
0
3.25644e-09
-3.21435e-22
2.65155e-09
-3.32987e-22
2.02419e-09
0
1.37351e-09
0
6.98666e-10
0
0
1.01393e-08
0
9.75932e-09
2.20849e-22
9.36829e-09
0
8.96309e-09
-2.37902e-22
8.54288e-09
0
8.10706e-09
0
7.65506e-09
-2.65106e-22
7.18626e-09
2.75279e-22
6.70005e-09
-2.85507e-22
6.19578e-09
0
5.67277e-09
-9.20992e-22
5.13034e-09
3.18154e-22
4.56776e-09
0
3.98427e-09
0
3.37911e-09
-3.55369e-22
2.75146e-09
3.68573e-22
2.10049e-09
0
1.42534e-09
3.9647e-22
7.251e-10
4.11201e-22
0
1.03375e-08
2.31669e-22
9.95042e-09
0
9.55181e-09
0
9.13869e-09
-2.58716e-22
8.71025e-09
3.15662e-25
8.2659e-09
-2.78299e-22
7.80505e-09
0
7.32708e-09
0
6.83135e-09
-6.21338e-22
6.31721e-09
0
5.78397e-09
-3.33988e-22
5.23092e-09
-3.46397e-22
4.65732e-09
0
4.06241e-09
3.73054e-22
3.4454e-09
7.73376e-22
2.80546e-09
4.00819e-22
2.14175e-09
0
1.45338e-09
0
7.39433e-10
8.94881e-22
4.64355e-22
1.03978e-08
0
1.00089e-08
3.06314e-25
9.60801e-09
-2.68351e-22
9.19247e-09
2.78653e-22
8.76153e-09
-2.88667e-22
8.31457e-09
-5.98786e-22
7.85101e-09
3.65283e-25
7.37024e-09
-3.22054e-22
6.8716e-09
-3.3402e-22
6.35444e-09
4.07522e-25
5.81807e-09
-3.59725e-22
5.26177e-09
3.73091e-22
4.6848e-09
3.86953e-22
4.0864e-09
4.01802e-22
3.46576e-09
4.89061e-25
2.82207e-09
5.07231e-25
2.15446e-09
5.26077e-25
1.46204e-09
9.28766e-22
7.43901e-10
5.65896e-25
5.8624e-25
1.03469e-08
-2.64864e-22
9.96025e-09
-2.75322e-22
9.56139e-09
2.86265e-22
9.14788e-09
-5.92762e-22
8.71903e-09
-3.07212e-22
8.27425e-09
-3.18627e-22
7.81295e-09
3.31244e-22
7.33451e-09
-3.43148e-22
6.8383e-09
-3.55898e-22
6.32365e-09
4.34214e-25
5.78989e-09
4.50345e-25
5.2363e-09
-3.9706e-22
4.66213e-09
4.84429e-25
4.06664e-09
4.28118e-22
3.44902e-09
-8.85966e-22
2.80846e-09
4.59983e-22
2.1441e-09
-4.75952e-22
1.45505e-09
-1.48323e-21
7.40396e-10
-1.02516e-21
6.24728e-25
1.0207e-08
-2.80704e-22
9.82602e-09
-2.91754e-22
9.43259e-09
0
9.02467e-09
-3.68806e-25
8.60161e-09
3.24768e-22
8.16282e-09
-3.96712e-25
7.70774e-09
0
7.23575e-09
-7.25941e-22
6.74623e-09
-3.76236e-22
6.23852e-09
0
5.71195e-09
0
5.16582e-09
0
4.5994e-09
-4.35858e-22
4.01193e-09
-4.52053e-22
3.40264e-09
-4.68849e-22
2.77071e-09
0
2.1153e-09
5.03743e-22
1.43553e-09
5.2246e-22
7.30515e-10
-6.37421e-25
0
9.99707e-09
-2.94802e-22
9.6243e-09
-6.12127e-22
9.23901e-09
3.17835e-22
8.83947e-09
3.29257e-22
8.42509e-09
4.01723e-25
7.99532e-09
0
7.54958e-09
-1.10202e-21
7.08728e-09
3.81435e-22
6.60781e-09
-3.95143e-22
6.11053e-09
0
5.59477e-09
0
5.05985e-09
4.41363e-22
4.50506e-09
5.3785e-25
3.92965e-09
5.57833e-25
3.33287e-09
-4.91252e-22
2.71391e-09
0
2.07195e-09
0
1.40615e-09
5.49361e-22
7.15603e-10
-5.69772e-22
0
9.73282e-09
3.07906e-22
9.37029e-09
0
8.99523e-09
-6.63167e-22
8.60624e-09
4.04558e-25
8.2028e-09
0
7.78437e-09
4.35182e-25
7.3504e-09
3.83678e-22
6.9003e-09
3.98402e-22
6.43348e-09
0
5.94932e-09
5.03543e-25
5.44718e-09
5.2225e-25
4.92638e-09
0
4.38623e-09
-4.78123e-22
3.82601e-09
0
3.24497e-09
-5.13104e-22
2.64235e-09
5.33422e-22
2.01734e-09
0
1.36911e-09
1.14692e-21
6.9679e-10
5.94417e-22
7.24723e-25
9.42749e-09
3.20087e-22
9.0767e-09
-3.32356e-22
8.71343e-09
4.05449e-25
8.33664e-09
4.2057e-25
7.94584e-09
-3.71238e-22
7.54052e-09
3.85484e-22
7.12015e-09
-3.98399e-22
6.68415e-09
4.14175e-22
6.23196e-09
-4.29059e-22
5.76298e-09
4.46048e-22
5.27656e-09
-4.61535e-22
4.77208e-09
9.58492e-22
4.24886e-09
4.97053e-22
3.70619e-09
6.05717e-25
3.14336e-09
5.35303e-22
2.55962e-09
5.55192e-22
1.9542e-09
5.75145e-22
1.32628e-09
5.97215e-22
6.75021e-10
7.26922e-25
-6.40922e-22
9.09205e-09
-3.30987e-22
8.75411e-09
3.44538e-22
8.40379e-09
3.57337e-22
8.0404e-09
4.35455e-25
7.66349e-09
0
7.27258e-09
-3.98195e-22
6.86714e-09
-4.1299e-22
6.44664e-09
-4.28334e-22
6.01052e-09
-4.44249e-22
5.5582e-09
-9.22052e-22
5.08908e-09
-4.78437e-22
4.60253e-09
4.96213e-22
4.0979e-09
-5.14045e-22
3.57452e-09
0
3.0317e-09
5.52953e-22
2.46871e-09
-1.14767e-21
1.8848e-09
2.38063e-21
1.27919e-09
-6.16181e-22
6.51084e-10
6.40581e-22
-6.62831e-22
8.73566e-09
-6.82558e-22
8.4113e-09
-3.55083e-22
8.07474e-09
4.33055e-25
7.72558e-09
1.14718e-21
7.36343e-09
7.93199e-22
6.98783e-09
8.2267e-22
6.59827e-09
0
6.19424e-09
-4.4143e-22
5.7752e-09
4.59449e-22
5.34059e-09
5.59244e-25
4.88984e-09
4.93645e-22
4.42234e-09
0
3.93747e-09
6.23919e-25
3.43459e-09
-1.65027e-21
2.91302e-09
1.1424e-21
2.37208e-09
5.9312e-22
1.81103e-09
-6.13714e-22
1.22914e-09
-6.35768e-22
6.25633e-10
1.55317e-24
6.85509e-22
8.36583e-09
3.51716e-22
8.05552e-09
3.66121e-22
7.73323e-09
0
7.39884e-09
3.93344e-22
7.05201e-09
4.07479e-22
6.69229e-09
-8.45734e-22
6.31921e-09
1.31599e-21
5.93227e-09
4.54607e-22
5.53096e-09
4.72052e-22
5.11473e-09
4.89592e-22
4.68304e-09
-5.07186e-22
4.23532e-09
-1.05268e-21
3.77096e-09
-1.09115e-21
3.28935e-09
0
2.78984e-09
-5.8756e-22
2.27178e-09
-6.09391e-22
1.73447e-09
7.42617e-25
1.17719e-09
-1.31026e-21
5.99208e-10
-6.79073e-22
8.28188e-25
7.98875e-09
0
7.69273e-09
-7.49459e-22
7.38498e-09
-7.77234e-22
7.06565e-09
0
6.73444e-09
-8.36051e-22
6.39092e-09
0
6.03464e-09
0
5.66513e-09
-9.32747e-22
5.28189e-09
9.68541e-22
4.88441e-09
1.00453e-21
4.47216e-09
0
4.0446e-09
0
3.60116e-09
0
3.14124e-09
0
2.66423e-09
1.20554e-21
2.1695e-09
1.4691e-24
1.65638e-09
1.52368e-24
1.12421e-09
0
5.72253e-10
0
1.44678e-21
7.60942e-09
0
7.32778e-09
0
7.03465e-09
0
6.73048e-09
-8.25009e-22
6.41498e-09
0
6.08776e-09
8.88496e-22
5.74839e-09
0
5.3964e-09
0
5.03134e-09
0
4.65272e-09
-1.02809e-21
4.26003e-09
1.06629e-21
3.85276e-09
-1.10461e-21
3.43035e-09
1.3477e-24
2.99225e-09
1.39777e-24
2.53787e-09
1.4497e-24
2.06661e-09
1.27965e-21
1.57784e-09
-1.32564e-21
1.07091e-09
-1.37651e-21
5.45145e-10
0
1.48071e-21
9.65598e-10
-1.00681e-22
1.93119e-09
5.01803e-23
2.8968e-09
4.98602e-23
3.86249e-09
4.98629e-23
4.82879e-09
1.0039e-22
5.79877e-09
-5.0885e-23
6.79088e-09
-3.28597e-25
-3.1129e-25
7.97008e-09
1.10496e-09
-1.1387e-22
2.20993e-09
0
3.3149e-09
-1.13872e-22
4.41996e-09
0
5.52563e-09
0
6.6348e-09
1.14706e-22
7.76198e-09
7.39227e-25
1.13991e-22
8.81758e-09
1.24433e-09
-1.28194e-22
2.48866e-09
-1.28195e-22
3.73299e-09
-1.28196e-22
4.97741e-09
0
6.22239e-09
1.27403e-22
7.47029e-09
-8.16042e-25
8.72848e-09
-1.28388e-22
1.26303e-22
9.88583e-09
1.38369e-09
-9.0043e-25
2.76739e-09
1.3999e-22
4.15109e-09
-9.00434e-25
5.53486e-09
-9.00478e-25
6.91911e-09
0
8.30549e-09
1.40947e-22
9.69344e-09
1.4092e-22
2.79524e-22
1.09561e-08
1.52306e-09
0
3.04612e-09
1.55387e-22
4.56918e-09
0
6.09231e-09
-1.5539e-22
7.61579e-09
1.53425e-22
9.14048e-09
1.54427e-22
1.06588e-08
-1.55265e-22
-1.52475e-22
1.20306e-08
1.66242e-09
-1.07312e-24
3.32485e-09
1.6791e-22
4.98728e-09
-1.67911e-22
6.64975e-09
0
8.31243e-09
1.68988e-22
9.97534e-09
-1.07305e-24
1.16252e-08
-1.6873e-22
-1.66636e-22
1.31106e-08
1.80179e-09
-3.65159e-22
3.60358e-09
-3.64e-22
5.40537e-09
-3.64e-22
7.20718e-09
-1.15946e-24
9.00905e-09
1.81417e-22
1.08102e-08
0
1.25931e-08
-1.14601e-24
-1.78985e-22
1.41977e-08
1.94116e-09
0
3.88231e-09
-1.9493e-22
5.82346e-09
-1.9493e-22
7.76461e-09
0
9.70564e-09
0
1.1645e-08
-1.93624e-22
1.35627e-08
-1.23015e-24
0
1.5293e-08
2.08052e-09
2.0844e-22
4.16104e-09
-2.09772e-22
6.24156e-09
-2.08439e-22
8.32204e-09
0
1.04022e-08
2.09754e-22
1.248e-08
-2.08352e-22
1.45346e-08
2.07966e-22
4.13122e-22
1.6398e-08
2.21989e-09
2.23369e-22
4.43977e-09
0
6.65965e-09
0
8.87947e-09
-2.21944e-22
1.10988e-08
2.23342e-22
1.33151e-08
-2.21839e-22
1.55088e-08
6.67176e-22
-6.60319e-22
1.75142e-08
2.35925e-09
-3.00966e-24
4.7185e-09
0
7.07775e-09
0
9.4369e-09
0
1.17954e-08
-3.00864e-24
1.41503e-08
0
1.64854e-08
0
-4.69919e-22
1.86429e-08
2.49862e-09
0
4.99723e-09
0
7.49584e-09
4.97936e-22
9.99433e-09
4.97921e-22
1.2492e-08
4.97862e-22
1.49857e-08
4.97643e-22
1.74646e-08
4.97039e-22
-4.9835e-22
1.97858e-08
2.63798e-09
1.05328e-21
5.27597e-09
0
7.91393e-09
5.24955e-22
1.05518e-08
-5.28293e-22
1.31887e-08
0
1.58212e-08
0
1.8446e-08
1.05167e-21
-5.27297e-22
2.09445e-08
2.77735e-09
-5.59036e-22
5.5547e-09
-3.52772e-24
8.33203e-09
0
1.11092e-08
-3.52749e-24
1.38853e-08
-5.55409e-22
1.66567e-08
-5.58667e-22
1.94256e-08
0
-3.46788e-24
2.212e-08
2.91671e-09
5.83343e-09
8.75012e-09
1.16666e-08
1.4582e-08
1.74923e-08
2.04062e-08
2.4066e-08
8.32733e-09
-1.72842e-09
8.46557e-09
-1.8292e-09
8.57993e-09
-1.88178e-09
8.68445e-09
-1.93018e-09
8.7814e-09
-1.97785e-09
8.87121e-09
-2.02538e-09
8.95397e-09
-2.07289e-09
9.0297e-09
-2.12039e-09
9.0984e-09
-2.16788e-09
9.16007e-09
-2.21538e-09
9.21471e-09
-2.26288e-09
9.26233e-09
-2.31037e-09
9.30292e-09
-2.35787e-09
9.33649e-09
-2.40537e-09
9.36302e-09
-2.45286e-09
9.38253e-09
-2.50036e-09
9.39501e-09
-2.54786e-09
9.40046e-09
-2.59535e-09
9.39889e-09
-2.64285e-09
9.39028e-09
-2.69035e-09
9.37465e-09
-2.73784e-09
9.35199e-09
-2.78534e-09
9.32231e-09
-2.83284e-09
9.2856e-09
-2.88033e-09
9.24186e-09
-2.92783e-09
9.19109e-09
-2.97533e-09
9.13329e-09
-3.02282e-09
9.06847e-09
-3.07032e-09
8.99662e-09
-3.11782e-09
8.91774e-09
-3.16531e-09
8.83183e-09
-3.21281e-09
8.7389e-09
-3.26031e-09
8.63894e-09
-3.3078e-09
8.53195e-09
-3.3553e-09
8.41793e-09
-3.4028e-09
8.29689e-09
-3.45029e-09
8.16882e-09
-3.49779e-09
8.03372e-09
-3.54529e-09
7.89159e-09
-3.59278e-09
7.74244e-09
-3.64028e-09
7.58626e-09
-3.68778e-09
7.42305e-09
-3.73527e-09
7.25281e-09
-3.78277e-09
7.07555e-09
-3.83027e-09
6.89126e-09
-3.87776e-09
6.69994e-09
-3.92526e-09
6.50159e-09
-3.97276e-09
6.29621e-09
-4.02025e-09
6.08362e-09
-4.06762e-09
-4.09847e-09
5.84064e-09
9.43242e-09
-1.80861e-09
9.57703e-09
-1.90923e-09
9.66599e-09
-1.95898e-09
9.7397e-09
-2.0016e-09
9.80518e-09
-2.04288e-09
9.86378e-09
-2.0839e-09
9.91577e-09
-2.12487e-09
9.96121e-09
-2.16582e-09
1.00001e-08
-2.20678e-09
1.00325e-08
-2.24773e-09
1.00583e-08
-2.28868e-09
1.00775e-08
-2.32964e-09
1.00903e-08
-2.37059e-09
1.00964e-08
-2.41155e-09
1.00961e-08
-2.4525e-09
1.00892e-08
-2.49345e-09
1.00757e-08
-2.53441e-09
1.00557e-08
-2.57536e-09
1.00292e-08
-2.61631e-09
9.99611e-09
-2.65727e-09
9.95649e-09
-2.69822e-09
9.91032e-09
-2.73918e-09
9.85762e-09
-2.78013e-09
9.79837e-09
-2.82108e-09
9.73257e-09
-2.86204e-09
9.66024e-09
-2.90299e-09
9.58136e-09
-2.94394e-09
9.49594e-09
-2.9849e-09
9.40397e-09
-3.02585e-09
9.30547e-09
-3.06681e-09
9.20042e-09
-3.10776e-09
9.08882e-09
-3.14871e-09
8.97069e-09
-3.18967e-09
8.84601e-09
-3.23062e-09
8.71479e-09
-3.27157e-09
8.57702e-09
-3.31253e-09
8.43272e-09
-3.35348e-09
8.28187e-09
-3.39444e-09
8.12447e-09
-3.43539e-09
7.96054e-09
-3.47634e-09
7.79006e-09
-3.5173e-09
7.61304e-09
-3.55825e-09
7.42947e-09
-3.5992e-09
7.23936e-09
-3.64016e-09
7.04271e-09
-3.68111e-09
6.83952e-09
-3.72207e-09
6.62978e-09
-3.76302e-09
6.41349e-09
-3.80397e-09
6.19012e-09
-3.84469e-09
-3.86977e-09
5.91292e-09
1.0542e-08
-1.85771e-09
1.06886e-08
-1.95702e-09
1.0752e-08
-2.00363e-09
1.0795e-08
-2.04082e-09
1.0829e-08
-2.07617e-09
1.08563e-08
-2.11116e-09
1.08776e-08
-2.14607e-09
1.08927e-08
-2.18097e-09
1.09018e-08
-2.21586e-09
1.09048e-08
-2.25076e-09
1.09018e-08
-2.28566e-09
1.08927e-08
-2.32055e-09
1.08776e-08
-2.35545e-09
1.08564e-08
-2.39034e-09
1.08291e-08
-2.42524e-09
1.07958e-08
-2.46013e-09
1.07564e-08
-2.49503e-09
1.0711e-08
-2.52992e-09
1.06595e-08
-2.56482e-09
1.06019e-08
-2.59971e-09
1.05383e-08
-2.63461e-09
1.04687e-08
-2.66951e-09
1.03929e-08
-2.7044e-09
1.03111e-08
-2.7393e-09
1.02233e-08
-2.77419e-09
1.01294e-08
-2.80909e-09
1.00294e-08
-2.84398e-09
9.92341e-09
-2.87888e-09
9.81133e-09
-2.91377e-09
9.6932e-09
-2.94867e-09
9.569e-09
-2.98357e-09
9.43875e-09
-3.01846e-09
9.30244e-09
-3.05336e-09
9.16007e-09
-3.08825e-09
9.01164e-09
-3.12315e-09
8.85716e-09
-3.15804e-09
8.69661e-09
-3.19294e-09
8.53001e-09
-3.22783e-09
8.35735e-09
-3.26273e-09
8.17863e-09
-3.29763e-09
7.99386e-09
-3.33252e-09
7.80302e-09
-3.36742e-09
7.60613e-09
-3.40231e-09
7.40318e-09
-3.43721e-09
7.19417e-09
-3.4721e-09
6.9791e-09
-3.507e-09
6.75797e-09
-3.54189e-09
6.53077e-09
-3.57678e-09
6.29666e-09
-3.61138e-09
-3.63128e-09
6.00864e-09
1.16543e-08
-1.87597e-09
1.18004e-08
-1.9727e-09
1.18382e-08
-2.01578e-09
1.18502e-08
-2.04785e-09
1.18527e-08
-2.07773e-09
1.18489e-08
-2.10715e-09
1.18394e-08
-2.1365e-09
1.18242e-08
-2.16582e-09
1.18035e-08
-2.19515e-09
1.17772e-08
-2.22447e-09
1.17454e-08
-2.25379e-09
1.17079e-08
-2.28311e-09
1.16649e-08
-2.31243e-09
1.16163e-08
-2.34175e-09
1.15622e-08
-2.37108e-09
1.15024e-08
-2.4004e-09
1.14371e-08
-2.42972e-09
1.13662e-08
-2.45904e-09
1.12898e-08
-2.48836e-09
1.12078e-08
-2.51769e-09
1.11202e-08
-2.54701e-09
1.1027e-08
-2.57633e-09
1.09282e-08
-2.60565e-09
1.08239e-08
-2.63497e-09
1.0714e-08
-2.6643e-09
1.05985e-08
-2.69362e-09
1.04775e-08
-2.72294e-09
1.03509e-08
-2.75226e-09
1.02187e-08
-2.78158e-09
1.00809e-08
-2.81091e-09
9.93759e-09
-2.84023e-09
9.78867e-09
-2.86955e-09
9.63419e-09
-2.89887e-09
9.47413e-09
-2.92819e-09
9.3085e-09
-2.95752e-09
9.13729e-09
-2.98684e-09
8.96051e-09
-3.01616e-09
8.77816e-09
-3.04548e-09
8.59023e-09
-3.0748e-09
8.39673e-09
-3.10412e-09
8.19766e-09
-3.13345e-09
7.99301e-09
-3.16277e-09
7.78279e-09
-3.19209e-09
7.56699e-09
-3.22141e-09
7.34562e-09
-3.25073e-09
7.11868e-09
-3.28006e-09
6.88617e-09
-3.30938e-09
6.64805e-09
-3.33869e-09
6.40325e-09
-3.36767e-09
-3.38295e-09
6.10447e-09
1.27706e-08
-1.86346e-09
1.29131e-08
-1.95629e-09
1.29244e-08
-1.99545e-09
1.29055e-08
-2.02271e-09
1.28765e-08
-2.04754e-09
1.28415e-08
-2.07189e-09
1.28012e-08
-2.09615e-09
1.27558e-08
-2.12039e-09
1.27052e-08
-2.14462e-09
1.26496e-08
-2.16885e-09
1.25889e-08
-2.19309e-09
1.25231e-08
-2.21732e-09
1.24522e-08
-2.24155e-09
1.23763e-08
-2.26578e-09
1.22952e-08
-2.29002e-09
1.22091e-08
-2.31425e-09
1.21178e-08
-2.33848e-09
1.20215e-08
-2.36272e-09
1.19201e-08
-2.38695e-09
1.18136e-08
-2.41118e-09
1.1702e-08
-2.43542e-09
1.15853e-08
-2.45965e-09
1.14635e-08
-2.48388e-09
1.13367e-08
-2.50811e-09
1.12047e-08
-2.53235e-09
1.10677e-08
-2.55658e-09
1.09256e-08
-2.58081e-09
1.07783e-08
-2.60505e-09
1.0626e-08
-2.62928e-09
1.04687e-08
-2.65351e-09
1.03062e-08
-2.67775e-09
1.01386e-08
-2.70198e-09
9.96594e-09
-2.72621e-09
9.78819e-09
-2.75044e-09
9.60535e-09
-2.77468e-09
9.41742e-09
-2.79891e-09
9.22441e-09
-2.82314e-09
9.0263e-09
-2.84738e-09
8.82311e-09
-2.87161e-09
8.61483e-09
-2.89584e-09
8.40146e-09
-2.92008e-09
8.183e-09
-2.94431e-09
7.95945e-09
-2.96854e-09
7.73081e-09
-2.99277e-09
7.49708e-09
-3.01701e-09
7.25826e-09
-3.04124e-09
7.01436e-09
-3.06547e-09
6.76533e-09
-3.0897e-09
6.50989e-09
-3.11357e-09
-3.12479e-09
6.20036e-09
1.38924e-08
-1.82014e-09
1.4027e-08
-1.90779e-09
1.40109e-08
-1.94265e-09
1.39608e-08
-1.96538e-09
1.39003e-08
-1.98562e-09
1.38341e-08
-2.00537e-09
1.3763e-08
-2.02502e-09
1.36873e-08
-2.04466e-09
1.36069e-08
-2.06429e-09
1.3522e-08
-2.08392e-09
1.34325e-08
-2.10354e-09
1.33383e-08
-2.12317e-09
1.32396e-08
-2.1428e-09
1.31362e-08
-2.16243e-09
1.30283e-08
-2.18206e-09
1.29157e-08
-2.20169e-09
1.27985e-08
-2.22132e-09
1.26768e-08
-2.24095e-09
1.25504e-08
-2.26057e-09
1.24194e-08
-2.2802e-09
1.22838e-08
-2.29983e-09
1.21436e-08
-2.31946e-09
1.19988e-08
-2.33909e-09
1.18494e-08
-2.35872e-09
1.16954e-08
-2.37835e-09
1.15368e-08
-2.39798e-09
1.13736e-08
-2.4176e-09
1.12058e-08
-2.43723e-09
1.10334e-08
-2.45686e-09
1.08564e-08
-2.47649e-09
1.06748e-08
-2.49612e-09
1.04885e-08
-2.51575e-09
1.02977e-08
-2.53538e-09
1.01022e-08
-2.55501e-09
9.9022e-09
-2.57463e-09
9.69756e-09
-2.59426e-09
9.48831e-09
-2.61389e-09
9.27445e-09
-2.63352e-09
9.05599e-09
-2.65315e-09
8.83292e-09
-2.67278e-09
8.60526e-09
-2.69241e-09
8.37298e-09
-2.71203e-09
8.1361e-09
-2.73166e-09
7.89462e-09
-2.75129e-09
7.64854e-09
-2.77092e-09
7.39785e-09
-2.79055e-09
7.14255e-09
-2.81018e-09
6.88261e-09
-2.8298e-09
6.61659e-09
-2.84908e-09
-2.85677e-09
6.29632e-09
1.50209e-08
-1.7459e-09
1.51424e-08
-1.82713e-09
1.50978e-08
-1.85737e-09
1.50163e-08
-1.87587e-09
1.49241e-08
-1.89197e-09
1.48266e-08
-1.90759e-09
1.47248e-08
-1.92312e-09
1.46188e-08
-1.93864e-09
1.45087e-08
-1.95415e-09
1.43944e-08
-1.96966e-09
1.4276e-08
-1.98517e-09
1.41535e-08
-2.00068e-09
1.40269e-08
-2.01618e-09
1.38962e-08
-2.03169e-09
1.37613e-08
-2.0472e-09
1.36223e-08
-2.06271e-09
1.34792e-08
-2.07822e-09
1.3332e-08
-2.09373e-09
1.31807e-08
-2.10924e-09
1.30252e-08
-2.12475e-09
1.28657e-08
-2.14026e-09
1.2702e-08
-2.15577e-09
1.25341e-08
-2.17128e-09
1.23622e-08
-2.18678e-09
1.21862e-08
-2.20229e-09
1.2006e-08
-2.2178e-09
1.18217e-08
-2.23331e-09
1.16333e-08
-2.24882e-09
1.14408e-08
-2.26433e-09
1.12441e-08
-2.27984e-09
1.10433e-08
-2.29535e-09
1.08384e-08
-2.31086e-09
1.06294e-08
-2.32637e-09
1.04163e-08
-2.34188e-09
1.01991e-08
-2.35739e-09
9.97769e-09
-2.37289e-09
9.7522e-09
-2.3884e-09
9.5226e-09
-2.40391e-09
9.28887e-09
-2.41942e-09
9.05102e-09
-2.43493e-09
8.80905e-09
-2.45044e-09
8.56297e-09
-2.46595e-09
8.31276e-09
-2.48146e-09
8.05844e-09
-2.49697e-09
7.79999e-09
-2.51248e-09
7.53743e-09
-2.52799e-09
7.27074e-09
-2.54349e-09
6.99989e-09
-2.55899e-09
6.72334e-09
-2.57418e-09
-2.5789e-09
6.39233e-09
1.61573e-08
-1.64054e-09
1.62599e-08
-1.71418e-09
1.6185e-08
-1.73958e-09
1.60717e-08
-1.75417e-09
1.5948e-08
-1.76658e-09
1.58192e-08
-1.77856e-09
1.56866e-08
-1.79045e-09
1.55503e-08
-1.80233e-09
1.54104e-08
-1.8142e-09
1.52668e-08
-1.82608e-09
1.51196e-08
-1.83795e-09
1.49687e-08
-1.84983e-09
1.48142e-08
-1.8617e-09
1.46561e-08
-1.87357e-09
1.44944e-08
-1.88545e-09
1.4329e-08
-1.89732e-09
1.41599e-08
-1.9092e-09
1.39873e-08
-1.92107e-09
1.3811e-08
-1.93294e-09
1.36311e-08
-1.94482e-09
1.34475e-08
-1.95669e-09
1.32603e-08
-1.96857e-09
1.30695e-08
-1.98044e-09
1.2875e-08
-1.99232e-09
1.26769e-08
-2.00419e-09
1.24751e-08
-2.01606e-09
1.22698e-08
-2.02794e-09
1.20608e-08
-2.03981e-09
1.18481e-08
-2.05169e-09
1.16318e-08
-2.06356e-09
1.14119e-08
-2.07543e-09
1.11884e-08
-2.08731e-09
1.09612e-08
-2.09918e-09
1.07304e-08
-2.11106e-09
1.04959e-08
-2.12293e-09
1.02578e-08
-2.13481e-09
1.00161e-08
-2.14668e-09
9.77074e-09
-2.15855e-09
9.52175e-09
-2.17043e-09
9.26912e-09
-2.1823e-09
9.01285e-09
-2.19418e-09
8.75296e-09
-2.20605e-09
8.48942e-09
-2.21792e-09
8.22225e-09
-2.2298e-09
7.95145e-09
-2.24167e-09
7.67701e-09
-2.25355e-09
7.39894e-09
-2.26542e-09
7.11718e-09
-2.27729e-09
6.83016e-09
-2.28887e-09
-2.29116e-09
6.48842e-09
1.7303e-08
-1.50381e-09
1.73796e-08
-1.56878e-09
1.72727e-08
-1.58924e-09
1.71273e-08
-1.60027e-09
1.69718e-08
-1.60945e-09
1.68118e-08
-1.61826e-09
1.66484e-08
-1.627e-09
1.64818e-08
-1.63573e-09
1.63121e-08
-1.64445e-09
1.61392e-08
-1.65317e-09
1.59631e-08
-1.6619e-09
1.57839e-08
-1.67062e-09
1.56016e-08
-1.67935e-09
1.54161e-08
-1.68807e-09
1.52274e-08
-1.69679e-09
1.50356e-08
-1.70552e-09
1.48406e-08
-1.71424e-09
1.46425e-08
-1.72297e-09
1.44413e-08
-1.73169e-09
1.42369e-08
-1.74041e-09
1.40293e-08
-1.74914e-09
1.38186e-08
-1.75786e-09
1.36048e-08
-1.76658e-09
1.33878e-08
-1.77531e-09
1.31676e-08
-1.78403e-09
1.29443e-08
-1.79276e-09
1.27178e-08
-1.80148e-09
1.24882e-08
-1.8102e-09
1.22555e-08
-1.81893e-09
1.20196e-08
-1.82765e-09
1.17805e-08
-1.83638e-09
1.15383e-08
-1.8451e-09
1.12929e-08
-1.85382e-09
1.10444e-08
-1.86255e-09
1.07928e-08
-1.87127e-09
1.0538e-08
-1.88e-09
1.028e-08
-1.88872e-09
1.00189e-08
-1.89744e-09
9.75463e-09
-1.90617e-09
9.48722e-09
-1.91489e-09
9.21665e-09
-1.92361e-09
8.94294e-09
-1.93234e-09
8.66608e-09
-1.94106e-09
8.38607e-09
-1.94979e-09
8.10291e-09
-1.95851e-09
7.81659e-09
-1.96723e-09
7.52713e-09
-1.97596e-09
7.23447e-09
-1.98467e-09
6.93704e-09
-1.99316e-09
-1.99355e-09
6.58458e-09
1.84592e-08
-1.33536e-09
1.85018e-08
-1.39072e-09
1.8361e-08
-1.40628e-09
1.8183e-08
-1.41416e-09
1.79957e-08
-1.42057e-09
1.78044e-08
-1.4267e-09
1.76102e-08
-1.43277e-09
1.74133e-08
-1.43883e-09
1.72138e-08
-1.44489e-09
1.70116e-08
-1.45095e-09
1.68067e-08
-1.45701e-09
1.65991e-08
-1.46307e-09
1.63889e-08
-1.46912e-09
1.6176e-08
-1.47518e-09
1.59605e-08
-1.48124e-09
1.57422e-08
-1.4873e-09
1.55214e-08
-1.49336e-09
1.52978e-08
-1.49942e-09
1.50716e-08
-1.50547e-09
1.48427e-08
-1.51153e-09
1.46112e-08
-1.51759e-09
1.43769e-08
-1.52365e-09
1.41401e-08
-1.52971e-09
1.39005e-08
-1.53577e-09
1.36583e-08
-1.54182e-09
1.34134e-08
-1.54788e-09
1.31659e-08
-1.55394e-09
1.29157e-08
-1.56e-09
1.26628e-08
-1.56606e-09
1.24073e-08
-1.57212e-09
1.21491e-08
-1.57817e-09
1.18882e-08
-1.58423e-09
1.16247e-08
-1.59029e-09
1.13585e-08
-1.59635e-09
1.10896e-08
-1.60241e-09
1.08181e-08
-1.60846e-09
1.05439e-08
-1.61452e-09
1.0267e-08
-1.62058e-09
9.98751e-09
-1.62664e-09
9.70531e-09
-1.6327e-09
9.42045e-09
-1.63876e-09
9.13293e-09
-1.64481e-09
8.84274e-09
-1.65087e-09
8.54988e-09
-1.65693e-09
8.25436e-09
-1.66299e-09
7.95617e-09
-1.66905e-09
7.65532e-09
-1.67511e-09
7.35176e-09
-1.68116e-09
7.04398e-09
-1.68703e-09
-1.68606e-09
6.68081e-09
1.96274e-08
-1.13479e-09
1.96265e-08
-1.17975e-09
1.94497e-08
-1.19065e-09
1.92387e-08
-1.19583e-09
1.90195e-08
-1.19996e-09
1.8797e-08
-1.20388e-09
1.8572e-08
-1.20777e-09
1.83449e-08
-1.21165e-09
1.81155e-08
-1.21553e-09
1.78839e-08
-1.2194e-09
1.76502e-08
-1.22328e-09
1.74143e-08
-1.22716e-09
1.71762e-08
-1.23104e-09
1.6936e-08
-1.23491e-09
1.66935e-08
-1.23879e-09
1.64489e-08
-1.24267e-09
1.62021e-08
-1.24654e-09
1.59531e-08
-1.25042e-09
1.57019e-08
-1.2543e-09
1.54485e-08
-1.25818e-09
1.5193e-08
-1.26205e-09
1.49353e-08
-1.26593e-09
1.46754e-08
-1.26981e-09
1.44133e-08
-1.27369e-09
1.4149e-08
-1.27756e-09
1.38826e-08
-1.28144e-09
1.3614e-08
-1.28532e-09
1.33432e-08
-1.2892e-09
1.30702e-08
-1.29307e-09
1.2795e-08
-1.29695e-09
1.25177e-08
-1.30083e-09
1.22381e-08
-1.3047e-09
1.19564e-08
-1.30858e-09
1.16725e-08
-1.31246e-09
1.13865e-08
-1.31634e-09
1.10982e-08
-1.32021e-09
1.08078e-08
-1.32409e-09
1.05152e-08
-1.32797e-09
1.02204e-08
-1.33184e-09
9.92341e-09
-1.33572e-09
9.62425e-09
-1.3396e-09
9.32292e-09
-1.34348e-09
9.0194e-09
-1.34735e-09
8.7137e-09
-1.35123e-09
8.40582e-09
-1.35511e-09
8.09576e-09
-1.35899e-09
7.78351e-09
-1.36286e-09
7.46905e-09
-1.36674e-09
7.15099e-09
-1.37048e-09
-1.36868e-09
6.77711e-09
2.08089e-08
-9.01594e-10
2.07539e-08
-9.35553e-10
2.05389e-08
-9.42278e-10
2.02946e-08
-9.45261e-10
2.00434e-08
-9.47595e-10
1.97896e-08
-9.49805e-10
1.95338e-08
-9.51992e-10
1.92764e-08
-9.54174e-10
1.90172e-08
-9.56355e-10
1.87563e-08
-9.58536e-10
1.84938e-08
-9.60717e-10
1.82295e-08
-9.62898e-10
1.79636e-08
-9.65079e-10
1.76959e-08
-9.6726e-10
1.74265e-08
-9.69441e-10
1.71555e-08
-9.71622e-10
1.68828e-08
-9.73803e-10
1.66083e-08
-9.75984e-10
1.63322e-08
-9.78165e-10
1.60544e-08
-9.80346e-10
1.57748e-08
-9.82527e-10
1.54936e-08
-9.84707e-10
1.52107e-08
-9.86888e-10
1.49261e-08
-9.89069e-10
1.46398e-08
-9.9125e-10
1.43517e-08
-9.93431e-10
1.4062e-08
-9.95612e-10
1.37706e-08
-9.97793e-10
1.34775e-08
-9.99974e-10
1.31827e-08
-1.00216e-09
1.28863e-08
-1.00434e-09
1.25881e-08
-1.00652e-09
1.22882e-08
-1.0087e-09
1.19866e-08
-1.01088e-09
1.16833e-08
-1.01306e-09
1.13784e-08
-1.01524e-09
1.10717e-08
-1.01742e-09
1.07633e-08
-1.0196e-09
1.04533e-08
-1.02178e-09
1.01415e-08
-1.02396e-09
9.82805e-09
-1.02615e-09
9.5129e-09
-1.02833e-09
9.19606e-09
-1.03051e-09
8.87751e-09
-1.03269e-09
8.55727e-09
-1.03487e-09
8.23534e-09
-1.03705e-09
7.91171e-09
-1.03923e-09
7.58634e-09
-1.04141e-09
7.25806e-09
-1.04351e-09
-1.04139e-09
6.87349e-09
2.20055e-08
-6.35199e-10
2.18838e-08
-6.57795e-10
2.16285e-08
-6.61087e-10
2.13505e-08
-6.6244e-10
2.10673e-08
-6.63482e-10
2.07822e-08
-6.64465e-10
2.04956e-08
-6.65437e-10
2.02079e-08
-6.66407e-10
1.99189e-08
-6.67377e-10
1.96287e-08
-6.68346e-10
1.93373e-08
-6.69315e-10
1.90447e-08
-6.70285e-10
1.87509e-08
-6.71254e-10
1.84558e-08
-6.72223e-10
1.81596e-08
-6.73193e-10
1.78621e-08
-6.74162e-10
1.75635e-08
-6.75131e-10
1.72636e-08
-6.76101e-10
1.69625e-08
-6.7707e-10
1.66602e-08
-6.78039e-10
1.63567e-08
-6.79008e-10
1.60519e-08
-6.79978e-10
1.5746e-08
-6.80947e-10
1.54388e-08
-6.81916e-10
1.51305e-08
-6.82886e-10
1.48209e-08
-6.83855e-10
1.45101e-08
-6.84824e-10
1.41981e-08
-6.85794e-10
1.38849e-08
-6.86763e-10
1.35705e-08
-6.87732e-10
1.32548e-08
-6.88701e-10
1.2938e-08
-6.89671e-10
1.26199e-08
-6.9064e-10
1.23007e-08
-6.91609e-10
1.19802e-08
-6.92579e-10
1.16585e-08
-6.93548e-10
1.13356e-08
-6.94517e-10
1.10115e-08
-6.95487e-10
1.06861e-08
-6.96456e-10