/*--------------------------------*- C++ -*----------------------------------*\
  =========                 |
  \\      /  F ield         | OpenFOAM: The Open Source CFD Toolbox
   \\    /   O peration     | Website:  https://openfoam.org
    \\  /    A nd           | Version:  13
     \\/     M anipulation  |
\*---------------------------------------------------------------------------*/
FoamFile
{
    format      ascii;
    class       volScalarField;
    location    "0.0001";
    object      p;
}
// * * * * * * * * * * * * * * * * * * * * * * * * * * * * * * * * * * * * * //

dimensions      [0 2 -2 0 0 0 0];

internalField   nonuniform List<scalar> 
1690
(
-0.194077
-0.153388
-0.121512
-0.0977025
-0.0813336
-0.0802449
-0.0510768
-0.107453
-0.192273
-0.151473
-0.119498
-0.0956281
-0.0799421
-0.0756558
-0.0537036
-0.103871
-0.188706
-0.148284
-0.116763
-0.093412
-0.078496
-0.0741235
-0.0541355
-0.104301
-0.183238
-0.14337
-0.112481
-0.0898634
-0.0758864
-0.0724009
-0.0537183
-0.105309
-0.175955
-0.136833
-0.106777
-0.0851246
-0.0723553
-0.0704149
-0.0532544
-0.107047
-0.166945
-0.128781
-0.0997666
-0.0793127
-0.0680579
-0.068277
-0.0530578
-0.110055
-0.156323
-0.119339
-0.0915649
-0.0725253
-0.0630973
-0.0661015
-0.0534524
-0.115041
-0.144244
-0.108673
-0.0823213
-0.0648801
-0.0575745
-0.0640226
-0.054844
-0.123006
-0.13092
-0.097006
-0.072233
-0.0565242
-0.0515947
-0.0621827
-0.0578167
-0.135602
-0.116635
-0.084626
-0.0615566
-0.0476371
-0.0452304
-0.0605879
-0.0629911
-0.155259
-0.101747
-0.0718975
-0.0506241
-0.0384551
-0.0385532
-0.0589172
-0.0701783
-0.183688
-0.0866954
-0.0592616
-0.0398585
-0.0293552
-0.0319794
-0.0571384
-0.0800374
-0.222875
-0.0719785
-0.0472171
-0.0297621
-0.0209041
-0.0262256
-0.0561056
-0.100971
-0.288332
-0.0581213
-0.0362753
-0.0208849
-0.0137721
-0.021195
-0.0548978
-0.142767
-0.43301
-0.0456512
-0.0269303
-0.0138414
-0.00856558
-0.0161164
-0.0482276
-0.177101
-0.65258
4.97563
4.83673
4.89895
4.85933
4.81958
4.77483
4.72713
4.67842
4.63065
4.58549
4.54423
4.50769
4.4763
4.45009
4.42884
4.41215
4.39957
4.39063
4.385
4.38273
4.96969
4.83124
4.892
4.8529
4.81269
4.76772
4.72002
4.67152
4.62414
4.57954
4.53895
4.50314
4.47247
4.44694
4.4263
4.41013
4.39795
4.38932
4.38388
4.38171
4.95998
4.82083
4.88193
4.84139
4.80059
4.75524
4.70748
4.65929
4.61261
4.569
4.5296
4.49509
4.46571
4.4414
4.42184
4.40657
4.39512
4.38703
4.38194
4.37991
4.94545
4.8052
4.86713
4.82424
4.7828
4.73707
4.68942
4.64188
4.59635
4.55428
4.51667
4.48404
4.45651
4.4339
4.41584
4.40182
4.39136
4.38399
4.37936
4.37754
4.92617
4.78462
4.84757
4.80176
4.75972
4.71376
4.66655
4.62011
4.57627
4.53632
4.50107
4.47085
4.44563
4.42511
4.40885
4.39633
4.38703
4.38051
4.37643
4.37483
4.9018
4.75883
4.82297
4.77378
4.73141
4.68557
4.63929
4.59457
4.55306
4.51585
4.48351
4.45618
4.43366
4.41553
4.4013
4.39043
4.38241
4.37681
4.37333
4.37197
4.87165
4.72724
4.79281
4.73992
4.69776
4.65263
4.60802
4.56577
4.52733
4.49352
4.46464
4.44062
4.4211
4.40558
4.39353
4.3844
4.37772
4.37308
4.37021
4.3691
4.83467
4.68903
4.75637
4.69965
4.65862
4.61508
4.57309
4.53424
4.49968
4.46993
4.44501
4.42465
4.40836
4.3956
4.3858
4.37845
4.37311
4.36944
4.36717
4.36632
4.7894
4.64311
4.71271
4.65237
4.61388
4.57312
4.53495
4.50054
4.47072
4.44566
4.42514
4.4087
4.3958
4.38584
4.37831
4.37273
4.36872
4.36598
4.36431
4.36369
4.7338
4.58804
4.66068
4.59747
4.56351
4.52705
4.4941
4.46527
4.44102
4.42123
4.40545
4.39312
4.38367
4.37653
4.37122
4.36736
4.36462
4.36277
4.36165
4.36126
4.66497
4.52206
4.59886
4.53439
4.50766
4.4773
4.45114
4.42904
4.41117
4.39712
4.38633
4.3782
4.37218
4.36779
4.36463
4.36239
4.36085
4.35983
4.35923
4.35905
4.57885
4.44294
4.52565
4.4628
4.44665
4.42446
4.40675
4.39252
4.3817
4.37375
4.36808
4.36414
4.36149
4.35973
4.35859
4.35787
4.35744
4.35719
4.35706
4.35706
4.46956
4.34802
4.43924
4.38277
4.38108
4.36927
4.36169
4.35631
4.3531
4.35147
4.35093
4.3511
4.35166
4.35239
4.35313
4.35382
4.35439
4.35484
4.35514
4.35531
4.32845
4.23422
4.33782
4.2949
4.31172
4.31258
4.31672
4.32104
4.3258
4.33055
4.33506
4.33917
4.34276
4.34579
4.34826
4.35022
4.3517
4.35276
4.35345
4.35376
4.14232
4.09831
4.21976
4.20045
4.23955
4.25532
4.27263
4.28724
4.30012
4.31119
4.32057
4.32839
4.33479
4.33993
4.34396
4.34705
4.34934
4.35096
4.35198
4.35242
3.89054
3.93741
4.08395
4.10134
4.16555
4.19851
4.23013
4.25536
4.27632
4.2935
4.30749
4.31876
4.32773
4.33477
4.34019
4.34429
4.3473
4.3494
4.35071
4.35127
3.53956
3.74974
3.93022
3.99994
4.09016
4.14373
4.18988
4.22576
4.25457
4.27755
4.29582
4.31024
4.32153
4.33027
4.33693
4.34191
4.34554
4.34806
4.34963
4.35028
3.03448
3.53714
3.76052
3.89761
4.01594
4.09146
4.15234
4.19864
4.23492
4.26331
4.28551
4.30278
4.31614
4.32638
4.33412
4.33988
4.34404
4.34691
4.34871
4.34944
2.30135
3.29183
3.58213
3.79499
3.94486
4.04258
4.11788
4.17412
4.2174
4.25075
4.27649
4.29631
4.3115
4.32304
4.33172
4.33814
4.34277
4.34595
4.34793
4.34873
1.25682
3.00381
3.40464
3.69551
3.87827
3.9977
4.08673
4.15225
4.20194
4.23978
4.26868
4.29075
4.30753
4.32021
4.32969
4.33668
4.3417
4.34514
4.34728
4.34813
-0.0277471
-0.0144166
-0.00560506
-0.00264704
-0.00619785
-0.0258971
-0.108906
-0.261923
-0.0129394
-0.0067567
-0.00412883
-0.00602895
-0.0139494
-0.0351458
-0.0766272
-0.110005
-0.00516378
-0.00353071
-0.00442735
-0.00847287
-0.0165135
-0.0319205
-0.0560976
-0.0786342
-0.00154834
-0.00246934
-0.00509657
-0.00972915
-0.0166859
-0.0267757
-0.0391153
-0.0492617
0.000292689
-0.00228185
-0.00585406
-0.0105199
-0.0164425
-0.0241122
-0.032793
-0.0399292
1.74783e-06
-0.00306151
-0.00687137
-0.011299
-0.0163991
-0.022586
-0.0293034
-0.0350626
-0.00123974
-0.00433716
-0.00805365
-0.0122468
-0.0168751
-0.0222612
-0.0279638
-0.033016
-0.00170791
-0.0051806
-0.00904809
-0.0132187
-0.0176729
-0.0226682
-0.0278632
-0.0326139
-0.00198578
-0.00583241
-0.00992607
-0.0142047
-0.018669
-0.0235181
-0.0284984
-0.0331805
-0.00219875
-0.00638864
-0.0107346
-0.0151941
-0.0197759
-0.0246273
-0.0295709
-0.0343247
-0.00237986
-0.00688699
-0.0114935
-0.0161716
-0.0209312
-0.0258771
-0.030895
-0.0358058
-0.00254028
-0.00734152
-0.0122071
-0.0171201
-0.0220899
-0.0271889
-0.0323525
-0.0374744
-0.00268359
-0.00775483
-0.0128692
-0.018016
-0.0232032
-0.0284889
-0.0338487
-0.0392202
-0.00281631
-0.00814369
-0.0135042
-0.0188887
-0.0243021
-0.0298248
-0.035453
-0.0410243
-0.00294461
-0.00853122
-0.0141212
-0.0196956
-0.0252456
-0.0309964
-0.0370416
-0.0425942
-0.231694
-0.182361
-0.158255
-0.141471
-0.130502
-0.123695
-0.119843
-0.118124
-0.118168
-0.119625
-0.12206
-0.125295
-0.129363
-0.134101
-0.139466
-0.145407
-0.151886
-0.158901
-0.166429
-0.17439
-0.183066
-0.192442
-0.202486
-0.213336
-0.224918
-0.237159
-0.250537
-0.265246
-0.281348
-0.298994
-0.318446
-0.339993
-0.364006
-0.390947
-0.421395
-0.456033
-0.495704
-0.541706
-0.595846
-0.660268
-0.73687
-0.826906
-0.932068
-1.05938
-1.25092
-1.67247
-2.69064
-4.55461
-6.81371
-11.0445
-0.0921855
-0.0772386
-0.0678948
-0.0625142
-0.0597719
-0.058877
-0.059407
-0.0610723
-0.0636945
-0.0671537
-0.0713379
-0.0761638
-0.0815837
-0.0876018
-0.0941558
-0.10125
-0.108861
-0.116995
-0.125639
-0.134843
-0.144623
-0.155085
-0.166216
-0.178118
-0.190883
-0.204549
-0.2193
-0.235414
-0.252974
-0.272162
-0.293213
-0.316434
-0.342221
-0.371061
-0.403554
-0.440431
-0.482615
-0.531413
-0.58875
-0.656751
-0.736947
-0.832044
-0.949397
-1.1019
-1.34057
-1.86064
-3.02445
-4.97189
-7.34141
-9.36504
-0.0857116
-0.0873859
-0.0875689
-0.0875085
-0.0877448
-0.0885073
-0.0899252
-0.0920161
-0.0947541
-0.0980902
-0.101984
-0.106406
-0.111325
-0.116727
-0.122596
-0.128927
-0.135723
-0.14299
-0.150745
-0.159036
-0.16789
-0.177358
-0.187502
-0.198381
-0.210084
-0.222741
-0.23648
-0.251476
-0.267894
-0.285915
-0.305803
-0.327899
-0.352605
-0.380414
-0.411952
-0.447984
-0.489464
-0.537734
-0.594845
-0.663047
-0.74398
-0.842045
-0.969691
-1.14574
-1.42255
-1.98904
-3.17982
-5.04779
-7.01275
-7.11939
-0.0561139
-0.0591385
-0.0614587
-0.0635489
-0.0657791
-0.0682433
-0.0710478
-0.074235
-0.0778299
-0.0818413
-0.0862725
-0.0911247
-0.096398
-0.102096
-0.108221
-0.114784
-0.121795
-0.129276
-0.137252
-0.145764
-0.15485
-0.164562
-0.174964
-0.186125
-0.198143
-0.211137
-0.225235
-0.240593
-0.257389
-0.27583
-0.29619
-0.318791
-0.344021
-0.372364
-0.404433
-0.441002
-0.483033
-0.53189
-0.589632
-0.658422
-0.740217
-0.840972
-0.975286
-1.16248
-1.44771
-1.98879
-3.05749
-4.6368
-5.92182
-4.95195
-0.0462156
-0.0504292
-0.0541428
-0.0575082
-0.060868
-0.0643048
-0.0679239
-0.0717807
-0.0759162
-0.0803582
-0.085127
-0.0902385
-0.0957062
-0.101544
-0.107767
-0.114392
-0.121441
-0.12894
-0.136921
-0.145424
-0.154493
-0.164184
-0.174561
-0.1857
-0.197698
-0.210666
-0.224733
-0.24005
-0.256796
-0.275183
-0.295471
-0.317974
-0.343074
-0.371244
-0.403078
-0.439315
-0.480887
-0.529148
-0.586023
-0.653422
-0.733466
-0.832684
-0.964832
-1.14536
-1.40758
-1.86975
-2.7219
-3.87367
-4.50217
-3.12282
-0.0409037
-0.0455451
-0.0498797
-0.0539252
-0.0579377
-0.0619757
-0.0661233
-0.0704328
-0.0749475
-0.0797009
-0.0847209
-0.090031
-0.0956527
-0.101607
-0.107916
-0.114604
-0.121696
-0.129224
-0.137224
-0.145737
-0.154812
-0.164506
-0.174884
-0.186025
-0.198023
-0.210986
-0.225039
-0.240331
-0.257037
-0.275364
-0.295561
-0.317927
-0.342827
-0.370707
-0.402124
-0.437758
-0.478478
-0.525525
-0.580539
-0.645077
-0.721212
-0.815079
-0.937709
-1.09906
-1.32086
-1.68477
-2.30197
-3.03033
-3.18357
-1.7868
-0.0384654
-0.0432147
-0.0477938
-0.0521891
-0.0565793
-0.0609984
-0.0655058
-0.070143
-0.0749479
-0.0799532
-0.0851877
-0.090678
-0.0964495
-0.102527
-0.108937
-0.115706
-0.122865
-0.130449
-0.138494
-0.147046
-0.156155
-0.165877
-0.176281
-0.187444
-0.199457
-0.212425
-0.226472
-0.24174
-0.258396
-0.27664
-0.296705
-0.318872
-0.343477
-0.370928
-0.401723
-0.436464
-0.475914
-0.521122
-0.573372
-0.633845
-0.704378
-0.790056
-0.898578
-1.035
-1.21252
-1.48362
-1.8988
-2.30362
-2.16849
-0.925403
-0.0378418
-0.0426575
-0.0473662
-0.0519711
-0.0566
-0.0612742
-0.0660354
-0.0709156
-0.0759463
-0.0811567
-0.0865747
-0.0922272
-0.0981408
-0.104343
-0.11086
-0.117724
-0.124967
-0.132624
-0.140736
-0.149348
-0.158511
-0.168283
-0.178731
-0.189932
-0.201975
-0.214961
-0.229008
-0.244253
-0.260855
-0.278999
-0.298902
-0.320821
-0.345057
-0.37197
-0.401989
-0.435621
-0.473494
-0.516421
-0.565322
-0.621014
-0.684925
-0.760785
-0.853225
-0.963787
-1.09986
-1.29228
-1.55203
-1.73367
-1.44894
-0.395456
-0.0383126
-0.0432006
-0.0480061
-0.0527638
-0.0575681
-0.0624344
-0.0673929
-0.0724686
-0.077688
-0.0830771
-0.0886618
-0.0944684
-0.100524
-0.106855
-0.113492
-0.120466
-0.127811
-0.135563
-0.143764
-0.15246
-0.161701
-0.171548
-0.182064
-0.193327
-0.205421
-0.218445
-0.232511
-0.247748
-0.264305
-0.282354
-0.302093
-0.323749
-0.347588
-0.373917
-0.40309
-0.435514
-0.471664
-0.512113
-0.557447
-0.608144
-0.66512
-0.730717
-0.807094
-0.893486
-0.993061
-1.121
-1.26567
-1.29829
-0.942675
-0.058449
-0.0394575
-0.044442
-0.0493465
-0.0542408
-0.0591969
-0.0642279
-0.0693571
-0.0746053
-0.0799952
-0.0855503
-0.0912951
-0.0972548
-0.103456
-0.109926
-0.116696
-0.123796
-0.131262
-0.13913
-0.147444
-0.156248
-0.165595
-0.175542
-0.186154
-0.197505
-0.209678
-0.222768
-0.23688
-0.252137
-0.268677
-0.286658
-0.306256
-0.327675
-0.351141
-0.376908
-0.40526
-0.436503
-0.470969
-0.509007
-0.550917
-0.596851
-0.647189
-0.70303
-0.764658
-0.82973
-0.898057
-0.973687
-1.0331
-0.966189
-0.581731
0.167817
-0.0410125
-0.0461206
-0.0511404
-0.0561744
-0.0612789
-0.0664673
-0.0717585
-0.0771711
-0.0827256
-0.0884437
-0.0943489
-0.100466
-0.10682
-0.113441
-0.120357
-0.1276
-0.135207
-0.143214
-0.151663
-0.160602
-0.170081
-0.180157
-0.190895
-0.202366
-0.214652
-0.227841
-0.242038
-0.257355
-0.273922
-0.291882
-0.311396
-0.332641
-0.35581
-0.381111
-0.408763
-0.438985
-0.471984
-0.507921
-0.546852
-0.588631
-0.633143
-0.680476
-0.729482
-0.776551
-0.818654
-0.852179
-0.848101
-0.715076
-0.323582
0.325173
-0.0428123
-0.0480688
-0.0532237
-0.058409
-0.0636692
-0.0690182
-0.0744731
-0.0800512
-0.0857719
-0.0916563
-0.097727
-0.104008
-0.110527
-0.117309
-0.124387
-0.131791
-0.139558
-0.147725
-0.156335
-0.165434
-0.175073
-0.185309
-0.196205
-0.207831
-0.220267
-0.233599
-0.247925
-0.263355
-0.280008
-0.298019
-0.317532
-0.338704
-0.361702
-0.386696
-0.413853
-0.443326
-0.475241
-0.50959
-0.54624
-0.584805
-0.624749
-0.665349
-0.704327
-0.736951
-0.757713
-0.757713
-0.706047
-0.52929
-0.140512
0.436676
-0.0447259
-0.0501471
-0.0554526
-0.0608012
-0.0662261
-0.0717423
-0.0773655
-0.0831132
-0.0890043
-0.0950598
-0.101302
-0.107756
-0.114448
-0.121405
-0.128658
-0.13624
-0.144186
-0.152534
-0.161328
-0.170614
-0.180442
-0.19087
-0.20196
-0.213782
-0.226413
-0.23994
-0.254456
-0.270068
-0.28689
-0.305051
-0.324685
-0.345936
-0.368953
-0.393883
-0.420858
-0.449976
-0.481363
-0.514825
-0.550108
-0.586661
-0.623611
-0.659623
-0.691434
-0.71331
-0.717542
-0.691503
-0.604132
-0.398415
-0.0149915
0.514738
-0.0466812
-0.0523514
-0.0578265
-0.0633589
-0.068966
-0.0746638
-0.0804678
-0.0863958
-0.0924676
-0.0987043
-0.105129
-0.111767
-0.118643
-0.125788
-0.133231
-0.141005
-0.149146
-0.157693
-0.166689
-0.176179
-0.186216
-0.196856
-0.208161
-0.2202
-0.233049
-0.246793
-0.261525
-0.277348
-0.294374
-0.312724
-0.332528
-0.35392
-0.377036
-0.402007
-0.42894
-0.45791
-0.489338
-0.522669
-0.557603
-0.593526
-0.62936
-0.66349
-0.691601
-0.707154
-0.700575
-0.656436
-0.543721
-0.319182
0.0610327
0.563655
-0.0486404
-0.0551687
-0.0608732
-0.0666831
-0.0725357
-0.0784753
-0.0845207
-0.0906936
-0.097016
-0.103511
-0.110202
-0.117115
-0.124277
-0.131718
-0.139468
-0.147563
-0.156038
-0.164933
-0.174291
-0.18416
-0.194591
-0.205641
-0.217374
-0.229859
-0.243172
-0.257398
-0.27263
-0.288971
-0.306532
-0.325436
-0.345813
-0.3678
-0.391535
-0.417152
-0.444758
-0.474384
-0.505513
-0.538716
-0.573678
-0.609625
-0.645321
-0.678155
-0.704551
-0.717121
-0.705008
-0.651341
-0.528429
-0.287787
0.0941487
0.587132
0.0858569
2.66564
3.25835
3.61265
3.82406
3.96153
4.06193
4.13502
4.18988
4.23129
4.26269
4.2865
4.30452
4.31806
4.32816
4.33558
4.3409
4.34454
4.3468
4.34769
-0.128646
2.37416
3.14772
3.54404
3.78
3.93216
4.04191
4.12121
4.18028
4.22457
4.25797
4.28318
4.30216
4.3164
4.32698
4.33473
4.34028
4.34407
4.34642
4.34734
0.289933
2.17239
3.05577
3.4781
3.73807
3.9041
4.02291
4.10818
4.17128
4.21832
4.2536
4.28011
4.30001
4.31488
4.3259
4.33396
4.33972
4.34365
4.34609
4.34704
0.707909
2.05744
2.98216
3.41714
3.69889
3.87768
4.00508
4.09604
4.16295
4.21256
4.2496
4.27732
4.29805
4.3135
4.32493
4.33327
4.33922
4.34327
4.34579
4.34676
0.945909
1.99597
2.92124
3.36279
3.66284
3.85321
3.98859
4.08487
4.15533
4.20733
4.24599
4.27482
4.29631
4.31228
4.32407
4.33266
4.33878
4.34294
4.34552
4.34652
1.06741
1.96817
2.86795
3.31562
3.63014
3.83093
3.97358
4.07475
4.14848
4.20266
4.24279
4.27261
4.29478
4.31121
4.32332
4.33213
4.3384
4.34266
4.34529
4.34631
1.12666
1.96135
2.82135
3.27551
3.60094
3.81103
3.96017
4.06578
4.14244
4.19858
4.24001
4.2707
4.29346
4.3103
4.32269
4.33169
4.33808
4.34242
4.3451
4.34613
1.15188
1.96485
2.78192
3.242
3.57542
3.79366
3.94847
4.058
4.13725
4.1951
4.23766
4.26911
4.29237
4.30955
4.32217
4.33132
4.33782
4.34223
4.34495
4.34599
1.16485
1.97227
2.74946
3.21457
3.55372
3.77893
3.93857
4.05148
4.13295
4.19225
4.23576
4.26783
4.29151
4.30897
4.32177
4.33104
4.33762
4.34208
4.34484
4.34588
1.17766
1.98104
2.72349
3.19271
3.53591
3.76689
3.93054
4.04626
4.12956
4.19004
4.23431
4.26688
4.29088
4.30854
4.32148
4.33085
4.33748
4.34198
4.34476
4.34581
1.19292
1.99015
2.7037
3.17605
3.52204
3.75762
3.92444
4.04238
4.1271
4.18848
4.23332
4.26624
4.29047
4.30828
4.32131
4.33073
4.3374
4.34192
4.34471
4.34577
1.2092
1.9991
2.68985
3.16434
3.51214
3.75117
3.92031
4.03988
4.1256
4.1876
4.2328
4.26594
4.2903
4.30818
4.32125
4.3307
4.33739
4.34191
4.34471
4.34576
1.2247
2.00799
2.68206
3.15774
3.5065
3.74776
3.91834
4.03886
4.12513
4.18743
4.23278
4.26599
4.29037
4.30825
4.32132
4.33076
4.33744
4.34195
4.34474
4.34579
1.23962
2.01808
2.68135
3.15708
3.50573
3.74779
3.91877
4.03949
4.12578
4.18802
4.23329
4.2664
4.29069
4.30851
4.32151
4.33091
4.33755
4.34204
4.34482
4.34587
1.25458
2.02816
2.6863
3.16106
3.50881
3.75046
3.92098
4.04128
4.1272
4.18913
4.23414
4.26705
4.29118
4.30887
4.32179
4.33111
4.3377
4.34216
4.34491
4.34599
)
;

boundaryField
{
    internal
    {
        type            internal;
    }
    movingWall
    {
        type            zeroGradient;
    }
    farFieldMoving
    {
        type            zeroGradient;
    }
    fixedWall
    {
        type            zeroGradient;
    }
    axis
    {
        type            empty;
    }
    left
    {
        type            totalPressure;
        rho             rho;
        psi             none;
        gamma           1;
        p0              uniform 0;
        value           nonuniform List<scalar> 
30
(
-0.218752
-0.217139
-0.213489
-0.207793
-0.200173
-0.190714
-0.179512
-0.166702
-0.152475
-0.13709
-0.120889
-0.104301
-0.0878343
-0.0720312
-0.057389
-0.0363531
-0.0175064
-0.00709117
-0.00206507
-0.000209456
0
0
0
0
0
0
0
0
0
0
)
;
    }
    farField
    {
        type            zeroGradient;
    }
    back
    {
        type            wedge;
    }
    front
    {
        type            wedge;
    }
}


// ************************************************************************* //
