/*--------------------------------*- C++ -*----------------------------------*\
  =========                 |
  \\      /  F ield         | OpenFOAM: The Open Source CFD Toolbox
   \\    /   O peration     | Website:  https://openfoam.org
    \\  /    A nd           | Version:  13
     \\/     M anipulation  |
\*---------------------------------------------------------------------------*/
FoamFile
{
    format      ascii;
    class       surfaceScalarField;
    location    "0.0001";
    object      phi;
}
// * * * * * * * * * * * * * * * * * * * * * * * * * * * * * * * * * * * * * //

dimensions      [0 3 -1 0 0 0 0];

internalField   nonuniform List<scalar> 
3252
(
6.00287e-11
-7.07397e-13
4.9372e-11
-2.14196e-12
4.0076e-11
-3.50285e-12
3.205e-11
-4.77424e-12
2.50361e-11
-5.79794e-12
1.95765e-11
-7.43759e-12
1.15375e-11
-5.57635e-12
-6.98979e-12
1.79303e-10
-2.85049e-12
1.47374e-10
-8.60883e-12
1.19593e-10
-1.41181e-11
9.56277e-11
-1.92104e-11
7.50448e-11
-2.36503e-11
5.67011e-11
-2.77845e-11
3.81377e-11
-2.78476e-11
-2.44467e-11
2.95856e-10
-6.47759e-12
2.42767e-10
-1.95128e-11
1.96694e-10
-3.20392e-11
1.57115e-10
-4.36331e-11
1.23238e-10
-5.3832e-11
9.32524e-11
-6.22788e-11
6.34694e-11
-6.60833e-11
-5.36789e-11
4.07574e-10
-1.16336e-11
3.33489e-10
-3.5019e-11
2.69446e-10
-5.75875e-11
2.14789e-10
-7.85787e-11
1.68432e-10
-9.71556e-11
1.28012e-10
-1.12122e-10
8.77661e-11
-1.20979e-10
-9.57891e-11
5.12424e-10
-1.83775e-11
4.17554e-10
-5.53378e-11
3.35969e-10
-9.11923e-11
2.66984e-10
-1.24796e-10
2.09304e-10
-1.54779e-10
1.60022e-10
-1.78877e-10
1.10978e-10
-1.94116e-10
-1.51957e-10
6.08288e-10
-2.67704e-11
4.92851e-10
-8.06869e-11
3.9421e-10
-1.33338e-10
3.11814e-10
-1.83204e-10
2.4432e-10
-2.28209e-10
1.8827e-10
-2.64626e-10
1.32943e-10
-2.87896e-10
-2.23553e-10
6.92938e-10
-3.68519e-11
5.57099e-10
-1.11231e-10
4.4186e-10
-1.84484e-10
3.47073e-10
-2.54819e-10
2.71626e-10
-3.19306e-10
2.11612e-10
-3.72162e-10
1.53488e-10
-4.05669e-10
-3.12148e-10
7.64043e-10
-4.86086e-11
6.07827e-10
-1.46996e-10
4.76294e-10
-2.44934e-10
3.70112e-10
-3.4064e-10
2.88907e-10
-4.30263e-10
2.28697e-10
-5.05236e-10
1.72562e-10
-5.52057e-10
-4.19394e-10
8.19211e-10
-6.19317e-11
6.42373e-10
-1.87737e-10
4.94488e-10
-3.14628e-10
3.77651e-10
-4.41406e-10
2.9312e-10
-5.63511e-10
2.37933e-10
-6.69054e-10
1.90552e-10
-7.33633e-10
-5.46583e-10
8.56065e-10
-7.65609e-11
6.57914e-10
-2.32762e-10
4.92929e-10
-3.92822e-10
3.65475e-10
-5.57156e-10
2.79936e-10
-7.21367e-10
2.37382e-10
-8.71206e-10
2.0877e-10
-9.60192e-10
-6.93728e-10
8.72388e-10
-9.20189e-11
6.51563e-10
-2.80711e-10
4.67601e-10
-4.77635e-10
3.28116e-10
-6.86473e-10
2.43046e-10
-9.05304e-10
2.24387e-10
-1.12294e-09
2.30177e-10
-1.24711e-09
-8.5791e-10
8.66356e-10
-1.07547e-10
6.20589e-10
-3.29315e-10
4.14064e-10
-5.65484e-10
2.5851e-10
-8.25321e-10
1.73624e-10
-1.11504e-09
1.93043e-10
-1.43842e-09
2.56514e-10
-1.61739e-09
-1.0345e-09
8.36838e-10
-1.22054e-10
5.62658e-10
-3.75103e-10
3.27143e-10
-6.4994e-10
1.45527e-10
-9.63707e-10
5.26103e-11
-1.34235e-09
1.10227e-10
-1.81775e-09
2.48927e-10
-2.08826e-09
-1.25776e-09
7.83644e-10
-1.34052e-10
4.76048e-10
-4.13074e-10
2.00506e-10
-7.19967e-10
-2.91131e-11
-1.07969e-09
-1.68568e-10
-1.54873e-09
-1.44094e-10
-2.18958e-09
3.02779e-11
-2.61981e-09
-1.73912e-09
7.07576e-10
-1.41676e-10
3.61006e-10
-4.37668e-10
3.23881e-11
-7.62515e-10
-2.72268e-10
-1.14623e-09
-5.30792e-10
-1.66165e-09
-7.21416e-10
-2.37195e-09
-6.88507e-10
-3.03533e-09
-2.97829e-09
-6.17957e-11
1.1592e-10
-1.40656e-10
1.32001e-10
-2.20966e-10
1.34815e-10
-2.96473e-10
1.31942e-10
-3.65174e-10
1.27221e-10
-4.24656e-10
1.20173e-10
-4.72912e-10
1.11203e-10
-5.0845e-10
1.00822e-10
-5.30342e-10
8.95998e-11
-5.38217e-10
7.80984e-11
-5.32205e-10
6.68193e-11
-5.12841e-10
5.61722e-11
-4.80958e-10
4.64598e-11
-4.37585e-10
3.78792e-11
-3.8385e-10
3.05364e-11
-3.20916e-10
2.44676e-11
-2.49935e-10
1.96668e-11
-1.72047e-10
1.61276e-11
-8.84908e-11
1.39515e-11
1.23075e-11
-1.69787e-10
4.33121e-10
-3.97767e-10
5.04683e-10
-6.18336e-10
5.03816e-10
-8.28182e-10
4.95487e-10
-1.0182e-09
4.7662e-10
-1.18175e-09
4.49013e-10
-1.3134e-09
4.14283e-10
-1.40927e-09
3.74483e-10
-1.46707e-09
3.31811e-10
-1.48611e-09
2.88386e-10
-1.46701e-09
2.4607e-10
-1.41146e-09
2.06347e-10
-1.32192e-09
1.70286e-10
-1.20131e-09
1.38558e-10
-1.05277e-09
1.11502e-10
-8.79472e-10
8.92048e-11
-6.84533e-10
7.16063e-11
-4.7101e-10
5.86545e-11
-2.42204e-10
5.07058e-11
4.46861e-11
-2.7175e-10
9.25862e-10
-6.30011e-10
1.07975e-09
-9.76875e-10
1.07314e-09
-1.30374e-09
1.05272e-09
-1.59689e-09
1.00865e-09
-1.84612e-09
9.45988e-10
-2.04354e-09
8.6865e-10
-2.18394e-09
7.81375e-10
-2.26477e-09
6.89028e-10
-2.28586e-09
5.96136e-10
-2.24901e-09
5.06523e-10
-2.15745e-09
4.23129e-10
-2.01535e-09
3.47988e-10
-1.82741e-09
2.82298e-10
-1.59849e-09
2.26578e-10
-1.33336e-09
1.80858e-10
-1.03662e-09
1.44898e-10
-7.12683e-10
1.18501e-10
-3.66267e-10
1.02328e-10
9.00979e-11
-3.7288e-10
1.57682e-09
-8.55989e-10
1.83542e-09
-1.32078e-09
1.8177e-09
-1.75389e-09
1.7756e-09
-2.13673e-09
1.69195e-09
-2.45631e-09
1.5772e-09
-2.70346e-09
1.43899e-09
-2.87299e-09
1.2861e-09
-2.96337e-09
1.12706e-09
-2.97609e-09
9.69421e-10
-2.91488e-09
8.19271e-10
-2.78498e-09
6.81074e-10
-2.59246e-09
5.57721e-10
-2.3437e-09
4.50741e-10
-2.04502e-09
3.60599e-10
-1.70243e-09
2.87036e-10
-1.32151e-09
2.29424e-10
-9.07539e-10
1.87267e-10
-4.6603e-10
1.61488e-10
1.42036e-10
-4.78425e-10
2.37661e-09
-1.08695e-09
2.75858e-09
-1.6658e-09
2.71969e-09
-2.19756e-09
2.64205e-09
-2.65855e-09
2.50001e-09
-3.03415e-09
2.31276e-09
-3.31537e-09
2.09354e-09
-3.49868e-09
1.85661e-09
-3.58504e-09
1.615e-09
-3.57869e-09
1.37957e-09
-3.48606e-09
1.15861e-09
-3.31478e-09
9.57804e-10
-3.07289e-09
7.80487e-10
-2.76832e-09
6.28094e-10
-2.40855e-09
5.00648e-10
-2.0004e-09
3.97276e-10
-1.55003e-09
3.16706e-10
-1.06309e-09
2.57959e-10
-5.4538e-10
2.22114e-10
1.95135e-10
-5.92658e-10
3.32246e-09
-1.33116e-09
3.8424e-09
-2.02272e-09
3.7661e-09
-2.64662e-09
3.63355e-09
-3.17427e-09
3.40887e-09
-3.59114e-09
3.12499e-09
-3.89039e-09
2.80284e-09
-4.07205e-09
2.46355e-09
-4.14105e-09
2.12506e-09
-4.10543e-09
1.8014e-09
-3.97485e-09
1.50248e-09
-3.75952e-09
1.23454e-09
-3.46935e-09
1.00067e-09
-3.11356e-09
8.01621e-10
-2.70043e-09
6.36486e-10
-2.23719e-09
5.0341e-10
-1.73017e-09
4.00211e-10
-1.18499e-09
3.25248e-10
-6.07273e-10
2.79613e-10
2.45356e-10
-7.19698e-10
4.41765e-09
-1.59558e-09
5.08483e-09
-2.39945e-09
4.94689e-09
-3.10845e-09
4.73307e-09
-3.68988e-09
4.39527e-09
-4.13193e-09
3.98706e-09
-4.43246e-09
3.53898e-09
-4.59709e-09
3.07997e-09
-4.63611e-09
2.63267e-09
-4.5621e-09
2.21338e-09
-4.38825e-09
1.83267e-09
-4.12722e-09
1.49627e-09
-3.79053e-09
1.20618e-09
-3.38831e-09
9.61727e-10
-2.92918e-09
7.60586e-10
-2.42044e-09
5.99559e-10
-1.8682e-09
4.75327e-10
-1.2777e-09
3.85427e-10
-6.54072e-10
3.30828e-10
2.89951e-10
-8.64126e-10
5.67169e-09
-1.8867e-09
6.48739e-09
-2.80204e-09
6.25325e-09
-3.58715e-09
5.92338e-09
-4.20702e-09
5.43536e-09
-4.65643e-09
4.87229e-09
-4.94082e-09
4.27538e-09
-5.07347e-09
3.68142e-09
-5.07112e-09
3.11653e-09
-4.95126e-09
2.59779e-09
-4.73045e-09
2.13487e-09
-4.42349e-09
1.73175e-09
-4.04303e-09
1.38829e-09
-3.59958e-09
1.10177e-09
-3.10175e-09
8.67919e-10
-2.55647e-09
6.81923e-10
-1.96933e-09
5.39154e-10
-1.34497e-09
4.36227e-10
-6.87766e-10
3.73858e-10
3.27285e-10
-1.03156e-09
7.10113e-09
-2.21106e-09
8.05393e-09
-3.23519e-09
7.676e-09
-4.08418e-09
7.18548e-09
-4.72401e-09
6.50362e-09
-5.16115e-09
5.75378e-09
-5.41178e-09
4.98686e-09
-5.49853e-09
4.24614e-09
-5.44519e-09
3.55892e-09
-5.27404e-09
2.94079e-09
-5.00453e-09
2.39859e-09
-4.65295e-09
1.93322e-09
-4.23247e-09
1.54141e-09
-3.75351e-09
1.21772e-09
-3.22419e-09
9.55615e-10
-2.65079e-09
7.48457e-10
-2.03814e-09
5.90216e-10
-1.39009e-09
4.76543e-10
-7.10098e-10
4.07815e-10
3.56621e-10
-1.22929e-09
8.73098e-09
-2.57542e-09
9.78899e-09
-3.70247e-09
9.20393e-09
-4.59863e-09
8.49717e-09
-5.23639e-09
7.57233e-09
-5.64028e-09
6.60462e-09
-5.83996e-09
5.65011e-09
-5.86859e-09
4.75554e-09
-5.75694e-09
3.94591e-09
-5.53139e-09
3.23239e-09
-5.2134e-09
2.61698e-09
-4.82001e-09
2.09613e-09
-4.36422e-09
1.66259e-09
-3.85584e-09
1.30774e-09
-3.30215e-09
1.02256e-09
-2.70849e-09
7.985e-10
-2.0788e-09
6.28136e-10
-1.41601e-09
5.06167e-10
-7.22635e-10
4.32577e-10
3.77887e-10
-1.4669e-09
1.05969e-08
-2.98681e-09
1.16955e-08
-4.20621e-09
1.08222e-08
-5.1272e-09
9.83167e-09
-5.73743e-09
8.6114e-09
-6.08644e-09
7.39842e-09
-6.21937e-09
6.24434e-09
-6.18006e-09
5.19467e-09
-6.00541e-09
4.26747e-09
-5.72473e-09
3.46636e-09
-5.36042e-09
2.78643e-09
-4.92934e-09
2.21864e-09
-4.44367e-09
1.75108e-09
-3.91216e-09
1.37172e-09
-3.34096e-09
1.06898e-09
-2.73432e-09
8.32429e-10
-2.09516e-09
6.5334e-10
-1.42547e-09
5.25526e-10
-7.26803e-10
4.48558e-10
3.9148e-10
-1.75702e-09
1.27479e-08
-3.4524e-09
1.37719e-08
-4.74734e-09
1.25105e-08
-5.66405e-09
1.11563e-08
-6.21851e-09
9.58893e-09
-6.49154e-09
8.11023e-09
-6.54422e-09
6.75211e-09
-6.4301e-09
5.55254e-09
-6.19061e-09
4.5175e-09
-5.85643e-09
3.63988e-09
-5.4496e-09
2.90617e-09
-4.98598e-09
2.30115e-09
-4.47633e-09
1.80786e-09
-3.92799e-09
1.41085e-09
-3.34577e-09
1.09605e-09
-2.73275e-09
8.51338e-10
-2.09079e-09
6.66792e-10
-1.42097e-09
5.35463e-10
-7.23907e-10
4.56517e-10
3.98088e-10
-2.11611e-09
1.52502e-08
-3.97926e-09
1.60078e-08
-5.32505e-09
1.42416e-08
-6.20055e-09
1.24313e-08
-6.66968e-09
1.04724e-08
-6.84745e-09
8.71777e-09
-6.80963e-09
7.16002e-09
-6.61718e-09
5.82239e-09
-6.3138e-09
4.69359e-09
-5.9298e-09
3.75316e-09
-5.48562e-09
2.97775e-09
-4.99528e-09
2.34573e-09
-4.46776e-09
1.83514e-09
-3.90869e-09
1.42718e-09
-3.32147e-09
1.1056e-09
-2.70794e-09
8.56771e-10
-2.06898e-09
6.69785e-10
-1.40478e-09
5.37067e-10
-7.15125e-10
4.57408e-10
3.98566e-10
-2.56548e-09
1.81921e-08
-4.57407e-09
1.83789e-08
-5.93621e-09
1.59788e-08
-6.72511e-09
1.36092e-08
-7.08026e-09
1.1231e-08
-7.14668e-09
9.20262e-09
-7.01203e-09
7.45934e-09
-6.74111e-09
6.00157e-09
-6.37729e-09
4.79659e-09
-5.9485e-09
3.80853e-09
-5.4739e-09
3.0053e-09
-4.96335e-09
2.35598e-09
-4.42399e-09
1.83593e-09
-3.85982e-09
1.42323e-09
-3.27287e-09
1.09969e-09
-2.6639e-09
8.50421e-10
-2.03282e-09
6.63715e-10
-1.37902e-09
5.31502e-10
-7.01545e-10
4.52256e-10
3.93812e-10
-3.133e-09
2.16901e-08
-5.24274e-09
2.08395e-08
-6.57454e-09
1.76739e-08
-7.22296e-09
1.46344e-08
-7.43966e-09
1.18385e-08
-7.38255e-09
9.55083e-09
-7.1495e-09
7.64667e-09
-6.80549e-09
6.09356e-09
-6.38765e-09
4.83094e-09
-5.92121e-09
3.81108e-09
-5.42084e-09
2.99134e-09
-4.89547e-09
2.3351e-09
-4.34974e-09
1.81342e-09
-3.78571e-09
1.40187e-09
-3.20392e-09
1.08073e-09
-2.60398e-09
8.34217e-10
-1.98494e-09
6.50098e-10
-1.3455e-09
5.19988e-10
-6.84092e-10
4.42099e-10
3.84741e-10
-3.85639e-09
2.58988e-08
-5.98991e-09
2.33109e-08
-7.23057e-09
1.92649e-08
-7.67465e-09
1.54419e-08
-7.74349e-09
1.22843e-08
-7.5563e-09
9.75455e-09
-7.22713e-09
7.72293e-09
-6.81232e-09
6.09924e-09
-6.34644e-09
4.80118e-09
-5.84901e-09
3.76597e-09
-5.33068e-09
2.94213e-09
-4.79711e-09
2.28808e-09
-4.25054e-09
1.77147e-09
-3.69134e-09
1.36604e-09
-3.11877e-09
1.05099e-09
-2.5315e-09
8.09936e-10
-1.92784e-09
6.30344e-10
-1.30591e-09
5.03668e-10
-6.63618e-10
4.27914e-10
3.72207e-10
-4.79656e-09
3.10343e-08
-6.81816e-09
2.56569e-08
-7.89914e-09
2.06824e-08
-8.08786e-09
1.59798e-08
-7.97557e-09
1.25341e-08
-7.65993e-09
9.81452e-09
-7.24029e-09
7.69284e-09
-6.76489e-09
6.02788e-09
-6.26017e-09
4.71551e-09
-5.73977e-09
3.68018e-09
-5.21016e-09
2.86328e-09
-4.67394e-09
2.21936e-09
-4.13122e-09
1.71362e-09
-3.58083e-09
1.31853e-09
-3.0209e-09
1.01263e-09
-2.44928e-09
7.79254e-10
-1.86365e-09
6.05763e-10
-1.26169e-09
4.83591e-10
-6.40854e-10
4.10593e-10
3.56986e-10
-5.9497e-09
3.73088e-08
-7.72528e-09
2.77428e-08
-8.47166e-09
2.17511e-08
-8.43492e-09
1.62775e-08
-8.13396e-09
1.258e-08
-7.69495e-09
9.73523e-09
-7.19561e-09
7.56659e-09
-6.67002e-09
5.88923e-09
-6.13547e-09
4.58227e-09
-5.59958e-09
3.56051e-09
-5.06481e-09
2.7602e-09
-4.53095e-09
2.13322e-09
-3.99617e-09
1.6432e-09
-3.45793e-09
1.26191e-09
-2.91343e-09
9.67634e-10
-2.3598e-09
7.43688e-10
-1.79426e-09
5.77531e-10
-1.21408e-09
4.60691e-10
-6.16431e-10
3.90927e-10
3.39762e-10
-7.28823e-09
4.49076e-08
-8.74886e-09
2.94994e-08
-9.00749e-09
2.23174e-08
-8.69428e-09
1.62836e-08
-8.21343e-09
1.24304e-08
-7.66531e-09
9.53063e-09
-7.09904e-09
7.35659e-09
-6.53411e-09
5.69381e-09
-5.97854e-09
4.40995e-09
-5.4342e-09
3.41364e-09
-4.89984e-09
2.63808e-09
-4.37271e-09
2.03365e-09
-3.84931e-09
1.56324e-09
-3.32597e-09
1.19848e-09
-2.79907e-09
9.1775e-10
-2.26523e-09
7.04573e-10
-1.72126e-09
5.46672e-10
-1.16417e-09
4.35779e-10
-5.90889e-10
3.69601e-10
3.21127e-10
-8.60431e-09
5.3808e-08
-9.87403e-09
3.10508e-08
-9.4483e-09
2.21848e-08
-8.86466e-09
1.60041e-08
-8.21662e-09
1.20978e-08
-7.57646e-09
9.2177e-09
-6.95724e-09
7.07674e-09
-6.3639e-09
5.45246e-09
-5.79568e-09
4.20679e-09
-5.24926e-09
3.24585e-09
-4.72014e-09
2.50164e-09
-4.20341e-09
1.92421e-09
-3.6942e-09
1.47644e-09
-3.18788e-09
1.13027e-09
-2.68024e-09
8.64484e-10
-2.16745e-09
6.63043e-10
-1.64606e-09
5.14053e-10
-1.11288e-09
4.09535e-10
-5.64704e-10
3.47187e-10
3.01569e-10
1.2562e-09
-1.45753e-10
2.97707e-10
-4.4477e-10
-6.71139e-10
-7.59273e-10
-1.67914e-09
-1.10392e-09
-2.79832e-09
-1.50878e-09
-4.13631e-09
-2.00393e-09
-5.70712e-09
-2.45663e-09
-2.32529e-09
-7.53932e-09
6.48647e-10
-1.38346e-10
-4.82971e-10
-4.18115e-10
-1.64311e-09
-7.04102e-10
-2.85403e-09
-9.98068e-10
-4.16764e-09
-1.30084e-09
-5.6633e-09
-1.61743e-09
-7.3552e-09
-1.89191e-09
-1.94635e-09
-8.78975e-09
5.63652e-12
-1.26271e-10
-1.27904e-09
-3.77769e-10
-2.5975e-09
-6.29972e-10
-3.9587e-09
-8.81296e-10
-5.37454e-09
-1.12998e-09
-6.87072e-09
-1.36914e-09
-8.46123e-09
-1.55959e-09
-1.63617e-09
-9.92876e-09
-6.3777e-10
-1.15093e-10
-2.06315e-09
-3.36086e-10
-3.5214e-09
-5.55421e-10
-5.01565e-09
-7.7082e-10
-6.55094e-09
-9.78938e-10
-8.13283e-09
-1.17363e-09
-9.74378e-09
-1.33659e-09
-1.43577e-09
-1.12069e-08
-1.26132e-09
-1.1241e-10
-2.8253e-09
-2.95165e-10
-4.4172e-09
-4.86583e-10
-6.03748e-09
-6.73672e-10
-7.68696e-09
-8.52936e-10
-9.36458e-09
-1.0207e-09
-1.10514e-08
-1.16809e-09
-1.27119e-09
-1.25878e-08
-1.87064e-09
-1.11729e-10
-3.56895e-09
-2.5927e-10
-5.29187e-09
-4.26096e-10
-7.03865e-09
-5.89361e-10
-8.80818e-09
-7.4609e-10
-1.05972e-08
-8.94621e-10
-1.23869e-08
-1.02829e-09
-1.12885e-09
-1.40146e-08
-2.46179e-09
-1.0255e-10
-4.29272e-09
-2.30132e-10
-6.14676e-09
-3.73846e-10
-8.02248e-09
-5.15452e-10
-9.91781e-09
-6.52632e-10
-1.18293e-08
-7.84218e-10
-1.3736e-08
-9.04532e-10
-9.99482e-10
-1.54699e-08
-3.01998e-09
-9.09375e-11
-4.98934e-09
-2.01928e-10
-6.97876e-09
-3.25578e-10
-8.98752e-09
-4.47841e-10
-1.1014e-08
-5.67174e-10
-1.30549e-08
-6.82691e-10
-1.50876e-08
-7.89594e-10
-8.76998e-10
-1.69403e-08
-3.55242e-09
-7.88187e-11
-5.66076e-09
-1.74104e-10
-7.78753e-09
-2.79325e-10
-9.93225e-09
-3.83607e-10
-1.20937e-08
-4.85948e-10
-1.42685e-08
-5.85662e-10
-1.64338e-08
-6.78811e-10
-7.57252e-10
-1.8417e-08
-4.05836e-09
-6.64526e-11
-6.30609e-09
-1.46265e-10
-8.57147e-09
-2.33821e-10
-1.08542e-08
-3.20744e-10
-1.31531e-08
-4.06381e-10
-1.54648e-08
-4.90188e-10
-1.77682e-08
-5.69056e-10
-6.37305e-10
-1.98936e-08
-4.53561e-09
-5.37853e-11
-6.92311e-09
-1.18024e-10
-9.32801e-09
-1.88156e-10
-1.175e-08
-2.57864e-10
-1.41882e-08
-3.26707e-10
-1.66391e-08
-3.94241e-10
-1.90851e-08
-4.58153e-10
-5.14997e-10
-2.13649e-08
-4.98133e-09
-4.07177e-11
-7.5089e-09
-8.90674e-11
-1.0054e-08
-1.41674e-10
-1.26163e-08
-1.94005e-10
-1.5195e-08
-2.45718e-10
-1.77866e-08
-2.96397e-10
-2.0379e-08
-3.4455e-10
-3.88694e-10
-2.28265e-08
-5.39201e-09
-2.71093e-11
-8.06002e-09
-5.90379e-11
-1.07459e-08
-9.37451e-11
-1.34494e-08
-1.28347e-10
-1.61695e-08
-1.62518e-10
-1.89028e-08
-1.95663e-10
-2.1645e-08
-2.27211e-10
-2.57294e-10
-2.42748e-08
-5.74939e-09
-1.26171e-11
-8.55854e-09
-2.72362e-11
-1.13861e-08
-4.35345e-11
-1.42315e-08
-6.0067e-11
-1.70937e-08
-7.64771e-11
-1.99691e-08
-9.16044e-11
-2.28597e-08
-1.05518e-10
-1.22461e-10
-2.5689e-08
-5.64943e-09
-8.59338e-09
-1.15536e-08
-1.45302e-08
-1.75221e-08
-2.05239e-08
-2.35434e-08
-2.73256e-08
-7.56628e-09
-2.6486e-10
-7.58916e-09
-3.67384e-12
-7.64164e-09
4.78662e-11
-7.71609e-09
7.35408e-11
-7.80423e-09
8.79635e-11
-7.89976e-09
9.54958e-11
-7.99858e-09
9.88127e-11
-8.09719e-09
9.86097e-11
-8.19316e-09
9.59737e-11
-8.28537e-09
9.22079e-11
-8.37293e-09
8.75624e-11
-8.45475e-09
8.1821e-11
-8.52993e-09
7.51794e-11
-8.59886e-09
6.89295e-11
-8.6606e-09
6.17441e-11
-8.7154e-09
5.47937e-11
-8.76273e-09
4.73299e-11
-8.80258e-09
3.98518e-11
-8.83444e-09
3.18601e-11
-8.85858e-09
2.41359e-11
-8.87322e-09
1.46449e-11
-8.87982e-09
6.60196e-12
-8.87733e-09
-2.48834e-12
-8.86506e-09
-1.22697e-11
-8.84359e-09
-2.14703e-11
-8.81228e-09
-3.13174e-11
-8.76878e-09
-4.34987e-11
-8.71512e-09
-5.36622e-11
-8.65051e-09
-6.46073e-11
-8.57443e-09
-7.60823e-11
-8.48636e-09
-8.80637e-11
-8.3858e-09
-1.00565e-10
-8.27217e-09
-1.13626e-10
-8.14487e-09
-1.27299e-10
-8.00321e-09
-1.41663e-10
-7.84635e-09
-1.56861e-10
-7.67299e-09
-1.73364e-10
-7.48062e-09
-1.92364e-10
-7.26791e-09
-2.12715e-10
-7.03425e-09
-2.33651e-10
-6.78076e-09
-2.53498e-10
-6.51302e-09
-2.67736e-10
-6.21431e-09
-2.98713e-10
-5.73305e-09
-4.81258e-10
-4.6601e-09
-1.07295e-09
-2.54977e-09
-2.11033e-09
4.92236e-10
-3.04201e-09
3.15423e-09
-2.66199e-09
2.51807e-09
6.36208e-10
1.1144e-08
-8.61917e-09
-9.4735e-09
-1.15754e-10
-9.68246e-09
1.40699e-10
-9.85648e-09
2.10128e-10
-1.00249e-08
2.39661e-10
-1.01902e-08
2.52831e-10
-1.03525e-08
2.57698e-10
-1.05112e-08
2.57532e-10
-1.06665e-08
2.53897e-10
-1.08187e-08
2.48126e-10
-1.09676e-08
2.41115e-10
-1.11131e-08
2.33103e-10
-1.12555e-08
2.24194e-10
-1.13952e-08
2.14868e-10
-1.15316e-08
2.0531e-10
-1.16652e-08
1.95344e-10
-1.17956e-08
1.85241e-10
-1.19231e-08
1.74839e-10
-1.20475e-08
1.64198e-10
-1.21689e-08
1.53298e-10
-1.22868e-08
1.42002e-10
-1.24024e-08
1.30232e-10
-1.25143e-08
1.18532e-10
-1.2623e-08
1.06207e-10
-1.27288e-08
9.35112e-11
-1.28307e-08
8.05046e-11
-1.29286e-08
6.65218e-11
-1.30237e-08
5.15959e-11
-1.31139e-08
3.65401e-11
-1.3199e-08
2.05083e-11
-1.32785e-08
3.38708e-12
-1.33515e-08
-1.50264e-11
-1.34172e-08
-3.49039e-11
-1.34743e-08
-5.64645e-11
-1.35216e-08
-8.00368e-11
-1.35572e-08
-1.06085e-10
-1.35787e-08
-1.35363e-10
-1.35829e-08
-1.69143e-10
-1.35665e-08
-2.08784e-10
-1.3525e-08
-2.54157e-10
-1.34548e-08
-3.03834e-10
-1.33493e-08
-3.59062e-10
-1.31693e-08
-4.4773e-10
-1.27761e-08
-6.91925e-10
-1.18806e-08
-1.37675e-09
-1.01474e-08
-2.80611e-09
-7.50967e-09
-4.74807e-09
-4.79352e-09
-5.75816e-09
-4.14783e-09
-3.30767e-09
-8.12706e-09
4.61587e-09
1.88754e-08
-1.581e-08
-1.07996e-08
1.48039e-10
-1.11122e-08
3.54453e-10
-1.13198e-08
3.98941e-10
-1.14966e-08
4.12748e-10
-1.16597e-08
4.15214e-10
-1.1815e-08
4.12878e-10
-1.19649e-08
4.0741e-10
-1.21108e-08
3.99817e-10
-1.22535e-08
3.90799e-10
-1.23932e-08
3.80819e-10
-1.25302e-08
3.70125e-10
-1.26649e-08
3.58925e-10
-1.27975e-08
3.47445e-10
-1.2928e-08
3.3577e-10
-1.30566e-08
3.23926e-10
-1.31833e-08
3.11978e-10
-1.33084e-08
2.99892e-10
-1.34318e-08
2.87668e-10
-1.35538e-08
2.75275e-10
-1.36744e-08
2.62642e-10
-1.3794e-08
2.49791e-10
-1.39122e-08
2.36764e-10
-1.40294e-08
2.23359e-10
-1.41455e-08
2.09605e-10
-1.42604e-08
1.95387e-10
-1.43743e-08
1.80445e-10
-1.44875e-08
1.64816e-10
-1.45995e-08
1.4856e-10
-1.47103e-08
1.31322e-10
-1.48199e-08
1.12921e-10
-1.4928e-08
9.30788e-11
-1.50343e-08
7.14397e-11
-1.51383e-08
4.75637e-11
-1.52392e-08
2.08414e-11
-1.53357e-08
-9.61159e-12
-1.5426e-08
-4.50742e-11
-1.55077e-08
-8.74162e-11
-1.55777e-08
-1.38769e-10
-1.56311e-08
-2.00792e-10
-1.56585e-08
-2.76409e-10
-1.56353e-08
-3.82318e-10
-1.54949e-08
-5.88117e-10
-1.51089e-08
-1.07785e-09
-1.43371e-08
-2.14862e-09
-1.31795e-08
-3.96372e-09
-1.19695e-08
-5.95802e-09
-1.14873e-08
-6.24036e-09
-1.26806e-08
-2.11432e-09
-1.60622e-08
7.99824e-09
2.29001e-08
-2.00374e-08
-1.21082e-08
3.69543e-10
-1.24214e-08
5.37131e-10
-1.26131e-08
5.65064e-10
-1.27711e-08
5.65712e-10
-1.2915e-08
5.58169e-10
-1.30506e-08
5.48239e-10
-1.31801e-08
5.36944e-10
-1.33051e-08
5.24812e-10
-1.34265e-08
5.12134e-10
-1.35448e-08
4.99109e-10
-1.36605e-08
4.85868e-10
-1.37741e-08
4.72527e-10
-1.38859e-08
4.59181e-10
-1.39959e-08
4.45866e-10
-1.41046e-08
4.32603e-10
-1.4212e-08
4.19399e-10
-1.43184e-08
4.06232e-10
-1.44238e-08
3.93082e-10
-1.45284e-08
3.79911e-10
-1.46325e-08
3.66677e-10
-1.4736e-08
3.53366e-10
-1.48392e-08
3.39931e-10
-1.49421e-08
3.26282e-10
-1.50449e-08
3.12366e-10
-1.51476e-08
2.98067e-10
-1.52504e-08
2.83251e-10
-1.53534e-08
2.6786e-10
-1.54567e-08
2.51783e-10
-1.55601e-08
2.34777e-10
-1.56638e-08
2.166e-10
-1.57676e-08
1.96922e-10
-1.58715e-08
1.75306e-10
-1.59751e-08
1.51165e-10
-1.60779e-08
1.23685e-10
-1.61793e-08
9.17011e-11
-1.62778e-08
5.34831e-11
-1.63717e-08
6.49079e-12
-1.64579e-08
-5.26202e-11
-1.65304e-08
-1.28302e-10
-1.65768e-08
-2.29974e-10
-1.65706e-08
-3.88538e-10
-1.6465e-08
-6.93656e-10
-1.62167e-08
-1.32615e-09
-1.58676e-08
-2.4978e-09
-1.56437e-08
-4.18754e-09
-1.59451e-08
-5.65666e-09
-1.71217e-08
-5.06376e-09
-1.91976e-08
-3.84008e-11
-2.16215e-08
1.04232e-08
2.36215e-08
-2.22924e-08
-1.35212e-08
5.50415e-10
-1.383e-08
6.87106e-10
-1.39986e-08
7.01965e-10
-1.41307e-08
6.91599e-10
-1.42492e-08
6.75485e-10
-1.436e-08
6.5877e-10
-1.44652e-08
6.42151e-10
-1.45662e-08
6.258e-10
-1.46638e-08
6.09734e-10
-1.47587e-08
5.93959e-10
-1.48513e-08
5.78477e-10
-1.49421e-08
5.63297e-10
-1.50313e-08
5.48421e-10
-1.51193e-08
5.33837e-10
-1.52062e-08
5.19527e-10
-1.52923e-08
5.05464e-10
-1.53777e-08
4.91616e-10
-1.54625e-08
4.77942e-10
-1.5547e-08
4.64402e-10
-1.56313e-08
4.5095e-10
-1.57155e-08
4.37545e-10
-1.57997e-08
4.2413e-10
-1.5884e-08
4.10631e-10
-1.59686e-08
3.96974e-10
-1.60536e-08
3.83056e-10
-1.61391e-08
3.68767e-10
-1.62253e-08
3.54e-10
-1.63121e-08
3.38598e-10
-1.63996e-08
3.22334e-10
-1.6488e-08
3.04929e-10
-1.65771e-08
2.86009e-10
-1.66668e-08
2.65065e-10
-1.6757e-08
2.41398e-10
-1.68474e-08
2.1402e-10
-1.69372e-08
1.81498e-10
-1.70254e-08
1.41717e-10
-1.71105e-08
9.15468e-11
-1.71895e-08
2.64407e-11
-1.72572e-08
-6.05856e-11
-1.73035e-08
-1.83765e-10
-1.73116e-08
-3.8034e-10
-1.72685e-08
-7.36788e-10
-1.72042e-08
-1.39047e-09
-1.72635e-08
-2.43846e-09
-1.77395e-08
-3.71156e-09
-1.89426e-08
-4.45354e-09
-2.0875e-08
-3.13139e-09
-2.30131e-08
2.09978e-09
-2.42136e-08
1.1625e-08
2.21337e-08
-2.26745e-08
-1.49752e-08
6.85885e-10
-1.52705e-08
7.99366e-10
-1.54094e-08
8.04118e-10
-1.55106e-08
7.8553e-10
-1.55994e-08
7.62937e-10
-1.56819e-08
7.40971e-10
-1.57599e-08
7.20153e-10
-1.58346e-08
7.00445e-10
-1.59066e-08
6.81698e-10
-1.59764e-08
6.63788e-10
-1.60445e-08
6.46615e-10
-1.61113e-08
6.30104e-10
-1.61771e-08
6.1419e-10
-1.62421e-08
5.98814e-10
-1.63065e-08
5.83922e-10
-1.63705e-08
5.6946e-10
-1.64342e-08
5.55376e-10
-1.64979e-08
5.41618e-10
-1.65616e-08
5.28134e-10
-1.66256e-08
5.14873e-10
-1.66898e-08
5.0178e-10
-1.67545e-08
4.88793e-10
-1.68197e-08
4.75843e-10
-1.68856e-08
4.62849e-10
-1.69522e-08
4.49716e-10
-1.70198e-08
4.36334e-10
-1.70884e-08
4.22575e-10
-1.7158e-08
4.08267e-10
-1.72289e-08
3.93179e-10
-1.73009e-08
3.77007e-10
-1.73743e-08
3.59342e-10
-1.74488e-08
3.39624e-10
-1.75245e-08
3.17065e-10
-1.7601e-08
2.90547e-10
-1.7678e-08
2.58445e-10
-1.77546e-08
2.18363e-10
-1.78298e-08
1.66722e-10
-1.79015e-08
9.81849e-11
-1.79665e-08
4.40445e-12
-1.80197e-08
-1.3059e-10
-1.80573e-08
-3.42719e-10
-1.80928e-08
-7.01369e-10
-1.81938e-08
-1.28947e-09
-1.85254e-08
-2.10678e-09
-1.9337e-08
-2.89996e-09
-2.08081e-08
-2.98248e-09
-2.2757e-08
-1.18246e-09
-2.44084e-08
3.75119e-09
-2.44809e-08
1.16991e-08
1.94642e-08
-2.17591e-08
-1.64572e-08
7.75674e-10
-1.67315e-08
8.71393e-10
-1.68365e-08
8.68597e-10
-1.69036e-08
8.44626e-10
-1.69601e-08
8.17891e-10
-1.7012e-08
7.92536e-10
-1.70609e-08
7.68984e-10
-1.71075e-08
7.47099e-10
-1.71525e-08
7.26652e-10
-1.71961e-08
7.07445e-10
-1.72388e-08
6.89316e-10
-1.72809e-08
6.72134e-10
-1.73225e-08
6.55789e-10
-1.73638e-08
6.40187e-10
-1.74052e-08
6.25246e-10
-1.74466e-08
6.10893e-10
-1.74883e-08
5.97061e-10
-1.75303e-08
5.83686e-10
-1.75729e-08
5.70709e-10
-1.76161e-08
5.58072e-10
-1.76601e-08
5.45716e-10
-1.77048e-08
5.33577e-10
-1.77506e-08
5.21588e-10
-1.77974e-08
5.09669e-10
-1.78454e-08
4.97728e-10
-1.78947e-08
4.85658e-10
-1.79455e-08
4.73323e-10
-1.79978e-08
4.60547e-10
-1.80517e-08
4.47096e-10
-1.81073e-08
4.32658e-10
-1.81648e-08
4.16804e-10
-1.82241e-08
3.98944e-10
-1.82853e-08
3.78245e-10
-1.83483e-08
3.53518e-10
-1.84129e-08
3.23046e-10
-1.84788e-08
2.84302e-10
-1.85456e-08
2.33544e-10
-1.86127e-08
1.6525e-10
-1.86793e-08
7.09912e-11
-1.87456e-08
-6.43018e-11
-1.88178e-08
-2.70459e-10
-1.89239e-08
-5.95331e-10
-1.91385e-08
-1.07487e-09
-1.95976e-08
-1.64761e-09
-2.04604e-08
-2.03721e-09
-2.17802e-08
-1.66271e-09
-2.32941e-08
3.31465e-10
-2.4225e-08
4.68216e-09
-2.34832e-08
1.09589e-08
1.64703e-08
-2.04361e-08
-1.79556e-08
8.21262e-10
-1.82025e-08
9.02742e-10
-1.82712e-08
8.94459e-10
-1.83026e-08
8.67601e-10
-1.83253e-08
8.38945e-10
-1.83451e-08
8.12083e-10
-1.83636e-08
7.87366e-10
-1.83811e-08
7.64618e-10
-1.8398e-08
7.43588e-10
-1.84146e-08
7.24049e-10
-1.84311e-08
7.0581e-10
-1.84477e-08
6.88712e-10
-1.84645e-08
6.7262e-10
-1.84818e-08
6.5742e-10
-1.84996e-08
6.43015e-10
-1.8518e-08
6.29318e-10
-1.85372e-08
6.16254e-10
-1.85572e-08
6.03753e-10
-1.85783e-08
5.91752e-10
-1.86004e-08
5.80191e-10
-1.86237e-08
5.69011e-10
-1.86483e-08
5.58152e-10
-1.86742e-08
5.47547e-10
-1.87017e-08
5.37124e-10
-1.87308e-08
5.26797e-10
-1.87616e-08
5.16464e-10
-1.87942e-08
5.05993e-10
-1.88289e-08
4.95216e-10
-1.88657e-08
4.83903e-10
-1.89048e-08
4.71749e-10
-1.89463e-08
4.5833e-10
-1.89904e-08
4.43056e-10
-1.90373e-08
4.25097e-10
-1.9087e-08
4.0327e-10
-1.91399e-08
3.7587e-10
-1.9196e-08
3.40424e-10
-1.92558e-08
2.93335e-10
-1.932e-08
2.29441e-10
-1.93901e-08
1.41153e-10
-1.94703e-08
1.58642e-11
-1.95724e-08
-1.68368e-10
-1.9728e-08
-4.39671e-10
-2.00014e-08
-8.01552e-10
-2.04833e-08
-1.16572e-09
-2.12455e-08
-1.27499e-09
-2.22457e-08
-6.62505e-10
-2.31934e-08
1.27923e-09
-2.34456e-08
4.93434e-09
-2.22414e-08
9.75641e-09
1.36455e-08
-1.93626e-08
-1.94617e-08
8.24281e-10
-1.96747e-08
8.93665e-10
-1.97053e-08
8.81636e-10
-1.97003e-08
8.54071e-10
-1.96885e-08
8.25516e-10
-1.96756e-08
7.98932e-10
-1.96629e-08
7.7459e-10
-1.96506e-08
7.52316e-10
-1.96389e-08
7.31864e-10
-1.96278e-08
7.1301e-10
-1.96176e-08
6.9556e-10
-1.96082e-08
6.7935e-10
-1.95998e-08
6.64238e-10
-1.95925e-08
6.50106e-10
-1.95864e-08
6.36849e-10
-1.95814e-08
6.24378e-10
-1.95778e-08
6.12616e-10
-1.95755e-08
6.01494e-10
-1.95747e-08
5.90949e-10
-1.95755e-08
5.80926e-10
-1.95778e-08
5.7137e-10
-1.95819e-08
5.62225e-10
-1.95878e-08
5.53435e-10
-1.95956e-08
5.44936e-10
-1.96054e-08
5.36654e-10
-1.96175e-08
5.28496e-10
-1.96318e-08
5.20348e-10
-1.96487e-08
5.12054e-10
-1.96682e-08
5.03409e-10
-1.96906e-08
4.94127e-10
-1.9716e-08
4.83816e-10
-1.97449e-08
4.71924e-10
-1.97775e-08
4.57674e-10
-1.98142e-08
4.39961e-10
-1.98555e-08
4.17207e-10
-1.99022e-08
3.87154e-10
-1.99555e-08
3.46608e-10
-2.00172e-08
2.91136e-10
-2.00905e-08
2.1447e-10
-2.01816e-08
1.06977e-10
-2.03041e-08
-4.5869e-11
-2.04864e-08
-2.57412e-10
-2.07749e-08
-5.13071e-10
-2.12191e-08
-7.21476e-10
-2.18285e-08
-6.65611e-10
-2.25043e-08
1.3262e-11
-2.29622e-08
1.73715e-09
-2.27185e-08
4.69067e-09
-2.13046e-08
8.3443e-09
1.11191e-08
-1.87234e-08
-2.09691e-08
7.86304e-10
-2.11408e-08
8.44751e-10
-2.11319e-08
8.30558e-10
-2.10902e-08
8.04217e-10
-2.10438e-08
7.77577e-10
-2.0998e-08
7.52907e-10
-2.09539e-08
7.30396e-10
-2.09115e-08
7.09883e-10
-2.08708e-08
6.91152e-10
-2.08317e-08
6.73998e-10
-2.07944e-08
6.58246e-10
-2.07588e-08
6.4374e-10
-2.07249e-08
6.30348e-10
-2.06928e-08
6.17957e-10
-2.06624e-08
6.0647e-10
-2.06338e-08
5.95802e-10
-2.06071e-08
5.85882e-10
-2.05823e-08
5.76647e-10
-2.05593e-08
5.68042e-10
-2.05384e-08
5.60019e-10
-2.05196e-08
5.52533e-10
-2.05029e-08
5.45539e-10
-2.04885e-08
5.38993e-10
-2.04764e-08
5.32846e-10
-2.04668e-08
5.27039e-10
-2.04598e-08
5.21501e-10
-2.04556e-08
5.16138e-10
-2.04543e-08
5.10823e-10
-2.04563e-08
5.05384e-10
-2.04618e-08
4.9958e-10
-2.0471e-08
4.93072e-10
-2.04845e-08
4.85384e-10
-2.05026e-08
4.75842e-10
-2.05262e-08
4.63485e-10
-2.05559e-08
4.46956e-10
-2.05931e-08
4.24344e-10
-2.06395e-08
3.93025e-10
-2.06978e-08
3.49456e-10
-2.07722e-08
2.88784e-10
-2.08693e-08
2.0412e-10
-2.10018e-08
8.66651e-11
-2.11915e-08
-6.7764e-11
-2.14667e-08
-2.37831e-10
-2.18451e-08
-3.43127e-10
-2.2297e-08
-2.13651e-10
-2.26997e-08
4.15962e-10
-2.27981e-08
1.8355e-09
-2.22383e-08
4.13093e-09
-2.07447e-08
6.85234e-09
8.8427e-09
-1.84126e-08
-2.24724e-08
7.08797e-10
-2.25945e-08
7.56754e-10
-2.25447e-08
7.41976e-10
-2.24665e-08
7.18607e-10
-2.23859e-08
6.95498e-10
-2.23074e-08
6.74217e-10
-2.2232e-08
6.54873e-10
-2.21594e-08
6.37325e-10
-2.20897e-08
6.21396e-10
-2.20226e-08
6.06919e-10
-2.19581e-08
5.93743e-10
-2.18961e-08
5.81738e-10
-2.18365e-08
5.70792e-10
-2.17794e-08
5.60808e-10
-2.17246e-08
5.51702e-10
-2.16722e-08
5.43406e-10
-2.16222e-08
5.35859e-10
-2.15746e-08
5.29011e-10
-2.15293e-08
5.22821e-10
-2.14866e-08
5.17253e-10
-2.14463e-08
5.12276e-10
-2.14086e-08
5.07861e-10
-2.13736e-08
5.0398e-10
-2.13414e-08
5.00604e-10
-2.1312e-08
4.97697e-10
-2.12857e-08
4.95213e-10
-2.12627e-08
4.93089e-10
-2.12431e-08
4.91238e-10
-2.12273e-08
4.89535e-10
-2.12155e-08
4.87798e-10
-2.12082e-08
4.85773e-10
-2.12059e-08
4.83086e-10
-2.12093e-08
4.79207e-10
-2.12191e-08
4.73381e-10
-2.12367e-08
4.64533e-10
-2.12636e-08
4.51183e-10
-2.13019e-08
4.31369e-10
-2.13549e-08
4.02446e-10
-2.1427e-08
3.60845e-10
-2.15247e-08
3.0186e-10
-2.16583e-08
2.20284e-10
-2.1842e-08
1.15929e-10
-2.20885e-08
8.70899e-12
-2.23923e-08
-3.93748e-11
-2.27009e-08
9.49497e-11
-2.28849e-08
5.99982e-10
-2.2726e-08
1.67659e-09
-2.19654e-08
3.37037e-09
-2.04438e-08
5.33227e-09
6.74121e-09
-1.82858e-08
-2.39672e-08
5.93122e-10
-2.40301e-08
6.30521e-10
-2.39384e-08
6.16874e-10
-2.38242e-08
5.98093e-10