/*--------------------------------*- C++ -*----------------------------------*\
  =========                 |
  \\      /  F ield         | OpenFOAM: The Open Source CFD Toolbox
   \\    /   O peration     | Website:  https://openfoam.org
    \\  /    A nd           | Version:  13
     \\/     M anipulation  |
\*---------------------------------------------------------------------------*/
FoamFile
{
    format      ascii;
    class       pointScalarField;
    location    "0.0001";
    object      pointMotionUx;
}
// * * * * * * * * * * * * * * * * * * * * * * * * * * * * * * * * * * * * * //

dimensions      [0 1 -1 0 0 0 0];

internalField   nonuniform List<scalar> 
3608
(
0
0.117368
0.234735
0.352104
0.469485
0.586973
0.705245
0.830112
1
0
0.117368
0.234735
0.352104
0.469485
0.586973
0.705243
0.830094
1
0
0.117368
0.234735
0.352104
0.469485
0.586972
0.705237
0.830035
1
0
0.117368
0.234735
0.352104
0.469485
0.586971
0.705226
0.829933
1
0
0.117368
0.234735
0.352104
0.469485
0.58697
0.705211
0.829789
1
0
0.117368
0.234735
0.352104
0.469485
0.586969
0.705192
0.829602
1
0
0.117368
0.234735
0.352104
0.469485
0.586967
0.705169
0.829373
1
0
0.117368
0.234735
0.352104
0.469485
0.586964
0.705142
0.829101
1
0
0.117368
0.234735
0.352104
0.469485
0.586962
0.705113
0.828786
1
0
0.117368
0.234735
0.352104
0.469485
0.586959
0.705081
0.828426
1
0
0.117368
0.234735
0.352104
0.469484
0.586956
0.705046
0.828021
1
0
0.117368
0.234735
0.352104
0.469484
0.586952
0.70501
0.827571
1
0
0.117368
0.234736
0.352104
0.469484
0.586949
0.704973
0.827074
1
0
0.117368
0.234736
0.352104
0.469483
0.586945
0.704936
0.826529
1
0
0.117368
0.234736
0.352104
0.469483
0.58694
0.704898
0.825934
1
0
0.117368
0.234736
0.352104
0.469484
0.58694
0.704873
0.825813
1
0
0.117368
0.234735
0.352104
0.469485
0.586973
0.705243
0.830094
1
0
0.117368
0.234735
0.352104
0.469485
0.586972
0.705237
0.830035
1
0
0.117368
0.234735
0.352104
0.469485
0.586971
0.705226
0.829933
1
0
0.117368
0.234735
0.352104
0.469485
0.58697
0.705211
0.829789
1
0
0.117368
0.234735
0.352104
0.469485
0.586969
0.705192
0.829602
1
0
0.117368
0.234735
0.352104
0.469485
0.586967
0.705169
0.829373
1
0
0.117368
0.234735
0.352104
0.469485
0.586964
0.705142
0.829101
1
0
0.117368
0.234735
0.352104
0.469485
0.586962
0.705113
0.828786
1
0
0.117368
0.234735
0.352104
0.469485
0.586959
0.705081
0.828426
1
0
0.117368
0.234735
0.352104
0.469484
0.586956
0.705046
0.828021
1
0
0.117368
0.234735
0.352104
0.469484
0.586952
0.70501
0.827571
1
0
0.117368
0.234736
0.352104
0.469484
0.586949
0.704973
0.827074
1
0
0.117368
0.234736
0.352104
0.469483
0.586945
0.704936
0.826529
1
0
0.117368
0.234736
0.352104
0.469483
0.58694
0.704898
0.825934
1
0
0.117368
0.234736
0.352104
0.469484
0.58694
0.704873
0.825813
1
1
0.963084
0.926837
0.889662
0.85117
0.811257
0.769862
0.72693
0.682404
0.636223
0.588328
0.538654
0.487134
0.433701
0.378283
0.320807
0.261195
0.199369
0.135246
0.0687416
0
1
0.963085
0.926841
0.889668
0.851176
0.811263
0.769869
0.726937
0.682411
0.636231
0.588336
0.538662
0.487143
0.43371
0.378293
0.320816
0.261205
0.199379
0.135257
0.0687522
0
1
0.963082
0.926849
0.889679
0.851189
0.811276
0.769883
0.726952
0.682426
0.636247
0.588352
0.538679
0.48716
0.433728
0.378311
0.320835
0.261224
0.199399
0.135277
0.0687727
0
1
0.963072
0.926856
0.88969
0.851201
0.81129
0.769897
0.726966
0.682441
0.636262
0.588368
0.538696
0.487178
0.433746
0.378329
0.320854
0.261243
0.199418
0.135296
0.0687922
0
1
0.963056
0.926862
0.889702
0.851214
0.811303
0.769911
0.726981
0.682456
0.636278
0.588384
0.538712
0.487194
0.433763
0.378347
0.320871
0.261261
0.199436
0.135314
0.0688106
0
1
0.963035
0.926867
0.889713
0.851227
0.811317
0.769924
0.726995
0.682471
0.636293
0.5884
0.538728
0.48721
0.433779
0.378363
0.320888
0.261278
0.199453
0.135332
0.0688279
0
1
0.963011
0.926872
0.889725
0.85124
0.81133
0.769938
0.727009
0.682485
0.636308
0.588415
0.538743
0.487226
0.433795
0.378379
0.320904
0.261294
0.19947
0.135348
0.0688439
0
1
0.962983
0.926877
0.889736
0.851252
0.811343
0.769952
0.727023
0.682499
0.636322
0.588429
0.538758
0.487241
0.43381
0.378394
0.320919
0.261309
0.199484
0.135363
0.0688586
0
1
0.962954
0.926882
0.889748
0.851265
0.811356
0.769965
0.727036
0.682513
0.636336
0.588443
0.538772
0.487255
0.433824
0.378408
0.320933
0.261323
0.199498
0.135376
0.0688722
0
1
0.962922
0.926886
0.889759
0.851277
0.811368
0.769977
0.727049
0.682526
0.636349
0.588456
0.538785
0.487268
0.433837
0.378421
0.320946
0.261336
0.199511
0.135389
0.0688845
0
1
0.962888
0.92689
0.889769
0.851288
0.81138
0.769989
0.727061
0.682538
0.636361
0.588468
0.538797
0.48728
0.433849
0.378433
0.320958
0.261347
0.199522
0.1354
0.0688956
0
1
0.962854
0.926894
0.889779
0.851299
0.811391
0.77
0.727072
0.682549
0.636372
0.588479
0.538808
0.487291
0.43386
0.378443
0.320968
0.261358
0.199533
0.13541
0.0689056
0
1
0.962819
0.926898
0.889789
0.85131
0.811401
0.770011
0.727082
0.682559
0.636382
0.588489
0.538818
0.487301
0.43387
0.378453
0.320978
0.261368
0.199542
0.13542
0.0689145
0
1
0.962783
0.926902
0.889798
0.851319
0.811411
0.77002
0.727092
0.682569
0.636391
0.588499
0.538827
0.48731
0.433878
0.378462
0.320987
0.261376
0.19955
0.135428
0.0689225
0
1
0.962747
0.926905
0.889806
0.851328
0.81142
0.770029
0.727101
0.682577
0.6364
0.588507
0.538835
0.487318
0.433887
0.37847
0.320995
0.261384
0.199558
0.135435
0.0689296
0
1
0.96271
0.926908
0.889814
0.851336
0.811428
0.770037
0.727109
0.682585
0.636408
0.588515
0.538843
0.487325
0.433894
0.378477
0.321001
0.26139
0.199565
0.135442
0.0689358
0
1
0.962674
0.926911
0.889821
0.851344
0.811435
0.770044
0.727116
0.682592
0.636415
0.588522
0.53885
0.487332
0.4339
0.378483
0.321008
0.261396
0.19957
0.135447
0.0689413
0
1
0.962638
0.926914
0.889827
0.85135
0.811442
0.770051
0.727122
0.682599
0.636421
0.588528
0.538856
0.487338
0.433906
0.378489
0.321013
0.261402
0.199576
0.135452
0.0689462
0
1
0.962603
0.926916
0.889833
0.851357
0.811448
0.770057
0.727128
0.682604
0.636427
0.588533
0.538861
0.487343
0.433911
0.378494
0.321018
0.261406
0.19958
0.135457
0.0689505
0
1
0.962568
0.926919
0.889839
0.851362
0.811454
0.770062
0.727133
0.682609
0.636432
0.588538
0.538866
0.487348
0.433916
0.378498
0.321022
0.261411
0.199584
0.135461
0.0689542
0
1
0.962529
0.926927
0.88985
0.851373
0.811464
0.770073
0.727143
0.682619
0.636441
0.588548
0.538875
0.487356
0.433924
0.378507
0.32103
0.261418
0.199592
0.135468
0.0689614
0
1
0.963085
0.926841
0.889668
0.851176
0.811263
0.769869
0.726937
0.682411
0.636231
0.588336
0.538662
0.487143
0.43371
0.378293
0.320816
0.261205
0.199379
0.135257
0.0687522
0
1
0.963082
0.926849
0.889679
0.851189
0.811276
0.769883
0.726952
0.682426
0.636247
0.588352
0.538679
0.48716
0.433728
0.378311
0.320835
0.261224
0.199399
0.135277
0.0687727
0
1
0.963072
0.926856
0.88969
0.851201
0.81129
0.769897
0.726966
0.682441
0.636262
0.588368
0.538696
0.487178
0.433746
0.378329
0.320854
0.261243
0.199418
0.135296
0.0687922
0
1
0.963056
0.926862
0.889702
0.851214
0.811303
0.769911
0.726981
0.682456
0.636278
0.588384
0.538712
0.487194
0.433763
0.378347
0.320871
0.261261
0.199436
0.135314
0.0688106
0
1
0.963035
0.926867
0.889713
0.851227
0.811317
0.769924
0.726995
0.682471
0.636293
0.5884
0.538728
0.48721
0.433779
0.378363
0.320888
0.261278
0.199453
0.135332
0.0688279
0
1
0.963011
0.926872
0.889725
0.85124
0.81133
0.769938
0.727009
0.682485
0.636308
0.588415
0.538743
0.487226
0.433795
0.378379
0.320904
0.261294
0.19947
0.135348
0.0688439
0
1
0.962983
0.926877
0.889736
0.851252
0.811343
0.769952
0.727023
0.682499
0.636322
0.588429
0.538758
0.487241
0.43381
0.378394
0.320919
0.261309
0.199484
0.135363
0.0688586
0
1
0.962954
0.926882
0.889748
0.851265
0.811356
0.769965
0.727036
0.682513
0.636336
0.588443
0.538772
0.487255
0.433824
0.378408
0.320933
0.261323
0.199498
0.135376
0.0688722
0
1
0.962922
0.926886
0.889759
0.851277
0.811368
0.769977
0.727049
0.682526
0.636349
0.588456
0.538785
0.487268
0.433837
0.378421
0.320946
0.261336
0.199511
0.135389
0.0688845
0
1
0.962888
0.92689
0.889769
0.851288
0.81138
0.769989
0.727061
0.682538
0.636361
0.588468
0.538797
0.48728
0.433849
0.378433
0.320958
0.261347
0.199522
0.1354
0.0688956
0
1
0.962854
0.926894
0.889779
0.851299
0.811391
0.77
0.727072
0.682549
0.636372
0.588479
0.538808
0.487291
0.43386
0.378443
0.320968
0.261358
0.199533
0.13541
0.0689056
0
1
0.962819
0.926898
0.889789
0.85131
0.811401
0.770011
0.727082
0.682559
0.636382
0.588489
0.538818
0.487301
0.43387
0.378453
0.320978
0.261368
0.199542
0.13542
0.0689145
0
1
0.962783
0.926902
0.889798
0.851319
0.811411
0.77002
0.727092
0.682569
0.636391
0.588499
0.538827
0.48731
0.433878
0.378462
0.320987
0.261376
0.19955
0.135428
0.0689225
0
1
0.962747
0.926905
0.889806
0.851328
0.81142
0.770029
0.727101
0.682577
0.6364
0.588507
0.538835
0.487318
0.433887
0.37847
0.320995
0.261384
0.199558
0.135435
0.0689296
0
1
0.96271
0.926908
0.889814
0.851336
0.811428
0.770037
0.727109
0.682585
0.636408
0.588515
0.538843
0.487325
0.433894
0.378477
0.321001
0.26139
0.199565
0.135442
0.0689358
0
1
0.962674
0.926911
0.889821
0.851344
0.811435
0.770044
0.727116
0.682592
0.636415
0.588522
0.53885
0.487332
0.4339
0.378483
0.321008
0.261396
0.19957
0.135447
0.0689413
0
1
0.962638
0.926914
0.889827
0.85135
0.811442
0.770051
0.727122
0.682599
0.636421
0.588528
0.538856
0.487338
0.433906
0.378489
0.321013
0.261402
0.199576
0.135452
0.0689462
0
1
0.962603
0.926916
0.889833
0.851357
0.811448
0.770057
0.727128
0.682604
0.636427
0.588533
0.538861
0.487343
0.433911
0.378494
0.321018
0.261406
0.19958
0.135457
0.0689505
0
1
0.962568
0.926919
0.889839
0.851362
0.811454
0.770062
0.727133
0.682609
0.636432
0.588538
0.538866
0.487348
0.433916
0.378498
0.321022
0.261411
0.199584
0.135461
0.0689542
0
1
0.962529
0.926927
0.88985
0.851373
0.811464
0.770073
0.727143
0.682619
0.636441
0.588548
0.538875
0.487356
0.433924
0.378507
0.32103
0.261418
0.199592
0.135468
0.0689614
0
0
0.117368
0.234736
0.352105
0.469484
0.586935
0.704804
0.825062
0.938986
0
0.117368
0.234736
0.352105
0.469483
0.586919
0.704681
0.8239
0.934301
0
0.117368
0.234736
0.352105
0.469481
0.586903
0.704553
0.822705
0.930677
0
0.117368
0.234736
0.352105
0.469479
0.586887
0.70443
0.821751
0.92802
0
0.117368
0.234736
0.352105
0.469477
0.586871
0.704316
0.821017
0.926185
0
0.117368
0.234736
0.352105
0.469475
0.586855
0.704216
0.820485
0.92507
0
0.117368
0.234736
0.352105
0.469473
0.58684
0.704131
0.820137
0.924601
0
0.117368
0.234737
0.352105
0.469472
0.586827
0.704061
0.819955
0.924721
0
0.117368
0.234737
0.352105
0.46947
0.586814
0.704008
0.819921
0.925393
0
0.117368
0.234737
0.352105
0.469468
0.586804
0.703968
0.820016
0.926589
0
0.117368
0.234737
0.352105
0.469467
0.586795
0.703939
0.820221
0.928292
0
0.117368
0.234737
0.352104
0.469466
0.586789
0.703919
0.820515
0.930494
0
0.117368
0.234737
0.352104
0.469465
0.586784
0.703905
0.820873
0.933196
0
0.117368
0.234737
0.352104
0.469465
0.586781
0.703892
0.820945
0.936322
0
0.117368
0.234737
0.352104
0.469465
0.586779
0.703885
0.821341
1
0
0.117368
0.234736
0.352105
0.469484
0.586935
0.704804
0.825062
0.938986
0
0.117368
0.234736
0.352105
0.469483
0.586919
0.704681
0.8239
0.934301
0
0.117368
0.234736
0.352105
0.469481
0.586903
0.704553
0.822705
0.930677
0
0.117368
0.234736
0.352105
0.469479
0.586887
0.70443
0.821751
0.92802
0
0.117368
0.234736
0.352105
0.469477
0.586871
0.704316
0.821017
0.926185
0
0.117368
0.234736
0.352105
0.469475
0.586855
0.704216
0.820485
0.92507
0
0.117368
0.234736
0.352105
0.469473
0.58684
0.704131
0.820137
0.924601
0
0.117368
0.234737
0.352105
0.469472
0.586827
0.704061
0.819955
0.924721
0
0.117368
0.234737
0.352105
0.46947
0.586814
0.704008
0.819921
0.925393
0
0.117368
0.234737
0.352105
0.469468
0.586804
0.703968
0.820016
0.926589
0
0.117368
0.234737
0.352105
0.469467
0.586795
0.703939
0.820221
0.928292
0
0.117368
0.234737
0.352104
0.469466
0.586789
0.703919
0.820515
0.930494
0
0.117368
0.234737
0.352104
0.469465
0.586784
0.703905
0.820873
0.933196
0
0.117368
0.234737
0.352104
0.469465
0.586781
0.703892
0.820945
0.936322
0
0.117368
0.234737
0.352104
0.469465
0.586779
0.703885
0.821341
1
1
1
1
1
1
1
1
1
1
1
1
1
1
1
1
1
1
1
1
1
1
1
1
1
1
1
1
1
1
1
1
1
1
1
1
1
1
1
1
1
1
1
1
1
1
1
1
1
1
0.994221
0.998996
0.999807
0.999963
0.999993
0.999999
1
1
1
1
1
1
1
1
1
1
1
1
1
1
1
1
1
1
1
1
1
1
1
1
1
1
1
1
1
1
1
1
1
1
1
1
1
1
1
1
1
0.999998
0.999938
0.991923
0.990426
0.998222
0.999655
0.999934
0.999988
0.999998
1
1
1
1
1
1
1
1
1
1
1
1
1
1
1
1
1
1
1
1
1
1
1
1
1
1
1
1
1
1
1
1
1
1
1
1
1
1
1
1
1
0.999997
0.999882
0.99184
0.98758
0.997607
0.999533
0.99991
0.999983
0.999997
0.999999
1
1
1
1
1
1
1
1
1
1
1
1
1
1
1
1
1
1
1
1
1
1
1
1
1
1
1
1
1
1
1
1
1
1
1
1
1
1
1
1
0.999996
0.999836
0.991784
0.98554
0.997148
0.999441
0.999893
0.99998
0.999996
0.999999
1
1
1
1
1
1
1
1
1
1
1
1
1
1
1
1
1
1
1
1
1
1
1
1
1
1
1
1
1
1
1
1
1
1
1
1
1
1
1
1
0.999994
0.999799
0.99174
0.984198
0.996841
0.999379
0.99988
0.999977
0.999996
0.999999
1
1
1
1
1
1
1
1
1
1
1
1
1
1
1
1
1
1
1
1
1
1
1
1
1
1
1
1
1
1
1
1
1
1
1
1
1
1
1
1
0.999994
0.999772
0.991706
0.983479
0.996678
0.999346
0.999874
0.999976
0.999996
0.999999
1
1
1
1
1
1
1
1
1
1
1
1
1
1
1
1
1
1
1
1
1
1
1
1
1
1
1
1
1
1
1
1
1
1
1
1
1
1
1
1
0.999993
0.999755
0.991684
0.983326
0.996653
0.999342
0.999873
0.999976
0.999996
0.999999
1
1
1
1
1
1
1
1
1
1
1
1
1
1
1
1
1
1
1
1
1
1
1
1
1
1
1
1
1
1
1
1
1
1
1
1
1
1
1
1
0.999993
0.999747
0.991673
0.983698
0.996757
0.999364
0.999878
0.999977
0.999996
0.999999
1
1
1
1
1
1
1
1
1
1
1
1
1
1
1
1
1
1
1
1
1
1
1
1
1
1
1
1
1
1
1
1
1
1
1
1
1
1
1
1
0.999993
0.999748
0.991672
0.984566
0.996979
0.999411
0.999887
0.999979
0.999996
0.999999
1
1
1
1
1
1
1
1
1
1
1
1
1
1
1
1
1
1
1
1
1
1
1
1
1
1
1
1
1
1
1
1
1
1
1
1
1
1
1
1
0.999993
0.999758
0.991682
0.985913
0.997309
0.999478
0.9999
0.999981
0.999996
0.999999
1
1
1
1
1
1
1
1
1
1
1
1
1
1
1
1
1
1
1
1
1
1
1
1
1
1
1
1
1
1
1
1
1
1
1
1
1
1
1
1
0.999994
0.999776
0.991703
0.987725
0.997732
0.999564
0.999917
0.999984
0.999997
0.999999
1
1
1
1
1
1
1
1
1
1
1
1
1
1
1
1
1
1
1
1
1
1
1
1
1
1
1
1
1
1
1
1
1
1
1
1
1
1
1
1
0.999995
0.999804
0.991734
0.99
0.998233
0.999664
0.999936
0.999988
0.999998
1
1
1
1
1
1
1
1
1
1
1
1
1
1
1
1
1
1
1
1
1
1
1
1
1
1
1
1
1
1
1
1
1
1
1
1
1
1
1
1
1
0.999996
0.99984
0.991776
0.992737
0.998794
0.999773
0.999957
0.999992
0.999998
1
1
1
1
1
1
1
1
1
1
1
1
1
1
1
1
1
1
1
1
1
1
1
1
1
1
1
1
1
1
1
1
1
1
1
1
1
1
1
1
1
0.999997
0.999885
0.991827
0.995932
0.999392
0.999887
0.999978
0.999996
0.999999
1
1
1
1
1
1
1
1
1
1
1
1
1
1
1
1
1
1
1
1
1
1
1
1
1
1
1
1
1
1
1
1
1
1
1
1
1
1
1
1
1
0.999999
0.999938
0.991907
1
1
1
1
1
1
1
1
1
1
1
1
1
1
1
1
1
1
1
1
1
1
1
1
1
1
1
1
1
1
1
1
1
1
1
1
1
1
1
1
1
1
1
1
1
1
1
1
1
1
1
1
1
1
1
1
1
1
1
1
1
1
1
1
1
1
1
1
1
1
1
1
1
1
1
1
1
1
1
1
1
1
1
1
1
1
1
1
1
1
1
1
1
1
1
1
1
1
1
0.994221
0.998996
0.999807
0.999963
0.999993
0.999999
1
1
1
1
1
1
1
1
1
1
1
1
1
1
1
1
1
1
1
1
1
1
1
1
1
1
1
1
1
1
1
1
1
1
1
1
1
1
1
1
1
0.999998
0.999938
0.991923
0.990426
0.998222
0.999655
0.999934
0.999988
0.999998
1
1
1
1
1
1
1
1
1
1
1
1
1
1
1
1
1
1
1
1
1
1
1
1
1
1
1
1
1
1
1
1
1
1
1
1
1
1
1
1
1
0.999997
0.999882
0.99184
0.98758
0.997607
0.999533
0.99991
0.999983
0.999997
0.999999
1
1
1
1
1
1
1
1
1
1
1
1
1
1
1
1
1
1
1
1
1
1
1
1
1
1
1
1
1
1
1
1
1
1
1
1
1
1
1
1
0.999996
0.999836
0.991784
0.98554
0.997148
0.999441
0.999893
0.99998
0.999996
0.999999
1
1
1
1
1
1
1
1
1
1
1
1
1
1
1
1
1
1
1
1
1
1
1
1
1
1
1
1
1
1
1
1
1
1
1
1
1
1
1
1
0.999994
0.999799
0.99174
0.984198
0.996841
0.999379
0.99988
0.999977
0.999996
0.999999
1
1
1
1
1
1
1
1
1
1
1
1
1
1
1
1
1
1
1
1
1
1
1
1
1
1
1
1
1
1
1
1
1
1
1
1
1
1
1
1
0.999994
0.999772
0.991706
0.983479
0.996678
0.999346
0.999874
0.999976
0.999996
0.999999
1
1
1
1
1
1
1
1
1
1
1
1
1
1
1
1
1
1
1
1
1
1
1
1
1
1
1
1
1
1
1
1
1
1
1
1
1
1
1
1
0.999993
0.999755
0.991684
0.983326
0.996653
0.999342
0.999873
0.999976
0.999996
0.999999
1
1
1
1
1
1
1
1
1
1
1
1
1
1
1
1
1
1
1
1
1
1
1
1
1
1
1
1
1
1
1
1
1
1
1
1
1
1
1
1
0.999993
0.999747
0.991673
0.983698
0.996757
0.999364
0.999878
0.999977
0.999996
0.999999
1
1
1
1
1
1
1
1
1
1
1
1
1
1
1
1
1
1
1
1
1
1
1
1
1
1
1
1
1
1
1
1
1
1
1
1
1
1
1
1
0.999993
0.999748
0.991672
0.984566
0.996979
0.999411
0.999887
0.999979
0.999996
0.999999
1
1
1
1
1
1
1
1
1
1
1
1
1
1
1
1
1
1
1
1
1
1
1
1
1
1
1
1
1
1
1
1
1
1
1
1
1
1
1
1
0.999993
0.999758
0.991682
0.985913
0.997309
0.999478
0.9999
0.999981
0.999996
0.999999
1
1
1
1
1
1
1
1
1
1
1
1
1
1
1
1
1
1
1
1
1
1
1
1
1
1
1
1
1
1
1
1
1
1
1
1
1
1
1
1
0.999994
0.999776
0.991703
0.987725
0.997732
0.999564
0.999917
0.999984
0.999997
0.999999
1
1
1
1
1
1
1
1
1
1
1
1
1
1
1
1
1
1
1
1
1
1
1
1
1
1
1
1
1
1
1
1
1
1
1
1
1
1
1
1
0.999995
0.999804
0.991734
0.99
0.998233
0.999664
0.999936
0.999988
0.999998
1
1
1
1
1
1
1
1
1
1
1
1
1
1
1
1
1
1
1
1
1
1
1
1
1
1
1
1
1
1
1
1
1
1
1
1
1
1
1
1
1
0.999996
0.99984
0.991776
0.992737
0.998794
0.999773
0.999957
0.999992
0.999998
1
1
1
1
1
1
1
1
1
1
1
1
1
1
1
1
1
1
1
1
1
1
1
1
1
1
1
1
1
1
1
1
1
1
1
1
1
1
1
1
1
0.999997
0.999885
0.991827
0.995932
0.999392
0.999887
0.999978
0.999996
0.999999
1
1
1
1
1
1
1
1
1
1
1
1
1
1
1
1
1
1
1
1
1
1
1
1
1
1
1
1
1
1
1
1
1
1
1
1
1
1
1
1
1
0.999999
0.999938
0.991907
1
1
1
1
1
1
1
1
1
1
1
1
1
1
1
1
1
1
1
1
1
1
1
1
1
1
1
1
1
1
1
1
1
1
1
1
1
1
1
1
1
1
1
1
1
1
1
1
1
1
0.962483
0.926933
0.889858
0.851381
0.811472
0.770081
0.727151
0.682627
0.636448
0.588555
0.538882
0.487363
0.433931
0.378513
0.321036
0.261424
0.199597
0.135473
0.0689667
0
0.962443
0.926931
0.889858
0.851381
0.811472
0.770081
0.727151
0.682627
0.636448
0.588555
0.538882
0.487363
0.433931
0.378513
0.321036
0.261424
0.199597
0.135474
0.0689667
0
0.962418
0.926929
0.889857
0.851381
0.811472
0.770081
0.727151
0.682627
0.636448
0.588555
0.538882
0.487363
0.433931
0.378513
0.321036
0.261424
0.199597
0.135474
0.0689667
0
0.962396
0.926928
0.889857
0.851381
0.811472
0.770081
0.727151
0.682627
0.636448
0.588555
0.538882
0.487363
0.433931
0.378513
0.321036
0.261424
0.199597
0.135474
0.0689667
0
0.962376
0.926926
0.889857
0.851381
0.811472
0.770081
0.727151
0.682627
0.636448
0.588555
0.538882
0.487363
0.433931
0.378513
0.321036
0.261424
0.199597
0.135474
0.0689667
0
0.962359
0.926925
0.889857
0.851381
0.811472
0.770081
0.727151
0.682627
0.636448
0.588555
0.538882
0.487363
0.433931
0.378513
0.321036
0.261424
0.199597
0.135474
0.0689667
0
0.962343
0.926923
0.889857
0.851381
0.811472
0.770081
0.727151
0.682627
0.636448
0.588555
0.538882
0.487363
0.433931
0.378513
0.321036
0.261424
0.199597
0.135474
0.0689667
0
0.96233
0.926922
0.889857
0.851381
0.811472
0.770081
0.727151
0.682627
0.636448
0.588555
0.538882
0.487363
0.433931
0.378513
0.321036
0.261424
0.199597
0.135474
0.0689667
0
0.962318
0.926921
0.889857
0.851381
0.811472
0.770081
0.727151
0.682627
0.636448
0.588555
0.538882
0.487363
0.433931
0.378513
0.321036
0.261424
0.199597
0.135474
0.0689667
0
0.962309
0.92692
0.889857
0.851381
0.811472
0.770081
0.727151
0.682627
0.636448
0.588555
0.538882
0.487363
0.433931
0.378513
0.321036
0.261424
0.199597
0.135474
0.0689667
0
0.962302
0.92692
0.889857
0.851381
0.811472
0.770081
0.727151
0.682627
0.636448
0.588555
0.538882
0.487363
0.433931
0.378513
0.321036
0.261424
0.199597
0.135474
0.0689667
0
0.962296
0.926919
0.889857
0.851381
0.811472
0.770081
0.727151
0.682627
0.636448
0.588555
0.538882
0.487363
0.433931
0.378513
0.321036
0.261424
0.199597
0.135474
0.0689667
0
0.962293
0.926919
0.889857
0.851381
0.811472
0.770081
0.727151
0.682627
0.636448
0.588555
0.538882
0.487363
0.433931
0.378513
0.321036
0.261424
0.199597
0.135474
0.0689667
0
0.962304
0.926918
0.889856
0.851381
0.811472
0.77008
0.72715
0.682626
0.636448
0.588554
0.538881
0.487362
0.43393
0.378512
0.321036
0.261424
0.199597
0.135473
0.0689661
0
0.962247
0.926842
0.889777
0.851298
0.811386
0.769992
0.727059
0.682532
0.636351
0.588455
0.538779
0.487258
0.433823
0.378404
0.320925
0.261311
0.199483
0.135358
0.0688502
0
0.962483
0.926933
0.889858
0.851381
0.811472
0.770081
0.727151
0.682627
0.636448
0.588555
0.538882
0.487363
0.433931
0.378513
0.321036
0.261424
0.199597
0.135473
0.0689667
0
0.962443
0.926931
0.889858
0.851381
0.811472
0.770081
0.727151
0.682627
0.636448
0.588555
0.538882
0.487363
0.433931
0.378513
0.321036
0.261424
0.199597
0.135474
0.0689667
0
0.962418
0.926929
0.889857
0.851381
0.811472
0.770081
0.727151
0.682627
0.636448
0.588555
0.538882
0.487363
0.433931
0.378513
0.321036
0.261424
0.199597
0.135474
0.0689667
0
0.962396
0.926928
0.889857
0.851381
0.811472
0.770081
0.727151
0.682627
0.636448
0.588555
0.538882
0.487363
0.433931
0.378513
0.321036
0.261424
0.199597
0.135474
0.0689667
0
0.962376
0.926926
0.889857
0.851381
0.811472
0.770081
0.727151
0.682627
0.636448
0.588555
0.538882
0.487363
0.433931
0.378513
0.321036
0.261424
0.199597
0.135474
0.0689667
0
0.962359
0.926925
0.889857
0.851381
0.811472
0.770081
0.727151
0.682627
0.636448
0.588555
0.538882
0.487363
0.433931
0.378513
0.321036
0.261424
0.199597
0.135474
0.0689667
0
0.962343
0.926923
0.889857
0.851381
0.811472
0.770081
0.727151
0.682627
0.636448
0.588555
0.538882
0.487363
0.433931
0.378513
0.321036
0.261424
0.199597
0.135474
0.0689667
0
0.96233
0.926922
0.889857
0.851381
0.811472
0.770081
0.727151
0.682627
0.636448
0.588555
0.538882
0.487363
0.433931
0.378513
0.321036
0.261424
0.199597
0.135474
0.0689667
0
0.962318
0.926921
0.889857
0.851381
0.811472
0.770081
0.727151
0.682627
0.636448
0.588555
0.538882
0.487363
0.433931
0.378513
0.321036
0.261424
0.199597
0.135474
0.0689667
0
0.962309
0.92692
0.889857
0.851381
0.811472
0.770081
0.727151
0.682627
0.636448
0.588555
0.538882
0.487363
0.433931
0.378513
0.321036
0.261424
0.199597
0.135474
0.0689667
0
0.962302
0.92692
0.889857
0.851381
0.811472
0.770081
0.727151
0.682627
0.636448
0.588555
0.538882
0.487363
0.433931
0.378513
0.321036
0.261424
0.199597
0.135474
0.0689667
0
0.962296
0.926919
0.889857
0.851381
0.811472
0.770081
0.727151
0.682627
0.636448
0.588555
0.538882
0.487363
0.433931
0.378513
0.321036
0.261424
0.199597
0.135474
0.0689667
0
0.962293
0.926919
0.889857
0.851381
0.811472
0.770081
0.727151
0.682627
0.636448
0.588555
0.538882
0.487363
0.433931
0.378513
0.321036
0.261424
0.199597
0.135474
0.0689667
0
0.962304
0.926918
0.889856
0.851381
0.811472
0.77008
0.72715
0.682626
0.636448
0.588554
0.538881
0.487362
0.43393
0.378512
0.321036
0.261424
0.199597
0.135473
0.0689661
0
0.962247
0.926842
0.889777
0.851298
0.811386
0.769992
0.727059
0.682532
0.636351
0.588455
0.538779
0.487258
0.433823
0.378404
0.320925
0.261311
0.199483
0.135358
0.0688502
0
)
;

boundaryField
{
    internal
    {
        type            internal;
    }
    movingWall
    {
        type            uniformFixedValue;
        value           uniform 1;
        uniformValue    
        {
            type            square;
            amplitude       
            {
                type            constant;
                value           1;
            }
            frequency       150;
            start           0;
            level           
            {
                type            constant;
                value           0;
            }
            markSpace       1;
        }
    }
    farFieldMoving
    {
        type            uniformFixedValue;
        value           uniform 1;
        uniformValue    
        {
            type            square;
            amplitude       
            {
                type            constant;
                value           1;
            }
            frequency       150;
            start           0;
            level           
            {
                type            constant;
                value           0;
            }
            markSpace       1;
        }
    }
    fixedWall
    {
        type            uniformFixedValue;
        value           uniform 0;
        uniformValue    
        {
            type            constant;
            value           0;
        }
    }
    axis
    {
        type            empty;
    }
    left
    {
        type            uniformFixedValue;
        value           uniform 0;
        uniformValue    
        {
            type            constant;
            value           0;
        }
    }
    farField
    {
        type            slip;
    }
    back
    {
        type            wedge;
    }
    front
    {
        type            wedge;
    }
}


// ************************************************************************* //
