/*--------------------------------*- C++ -*----------------------------------*\
  =========                 |
  \\      /  F ield         | OpenFOAM: The Open Source CFD Toolbox
   \\    /   O peration     | Website:  https://openfoam.org
    \\  /    A nd           | Version:  13
     \\/     M anipulation  |
\*---------------------------------------------------------------------------*/
FoamFile
{
    format      ascii;
    class       volVectorField;
    location    "0.0001";
    object      U;
}
// * * * * * * * * * * * * * * * * * * * * * * * * * * * * * * * * * * * * * //

dimensions      [0 1 -1 0 0 0 0];

internalField   nonuniform List<vector> 
1690
(
(0.661551 -0.00137864 3.52362e-18)
(0.674383 -0.00410009 5.20334e-17)
(0.700656 -0.00667436 6.58235e-16)
(0.73859 -0.00907628 8.09331e-16)
(0.789515 -0.0109991 1.86402e-16)
(0.834987 -0.0141469 2.35561e-16)
(0.963985 -0.0101845 6.02525e-16)
(0.866148 -0.0125008 3.87085e-16)
(0.659111 -0.0034674 -1.52849e-17)
(0.672216 -0.0105235 6.31856e-17)
(0.698765 -0.017248 1.18619e-15)
(0.737105 -0.0234822 1.72156e-15)
(0.787519 -0.0287867 3.76717e-16)
(0.836809 -0.0347947 6.36416e-16)
(0.963929 -0.0307325 1.16009e-15)
(0.863065 -0.0296211 7.89e-16)
(0.653547 -0.00560092 -1.98231e-17)
(0.666859 -0.0168987 1.88722e-16)
(0.693755 -0.0277245 5.21932e-16)
(0.732638 -0.0377308 5.699e-16)
(0.783501 -0.0464779 -4.83453e-16)
(0.835052 -0.0539745 1.10398e-15)
(0.962406 -0.0552836 -1.57244e-16)
(0.860675 -0.043764 6.03203e-16)
(0.644769 -0.00786947 2.79127e-17)
(0.65829 -0.0237033 1.59175e-16)
(0.685638 -0.0389515 2.05394e-16)
(0.725305 -0.0530869 1.45248e-16)
(0.777272 -0.0655263 -9.12595e-17)
(0.830786 -0.0755023 1.24831e-15)
(0.960003 -0.0800669 -6.51938e-16)
(0.859497 -0.0602505 -1.41482e-16)
(0.632835 -0.0101976 5.96587e-18)
(0.646598 -0.0307179 -5.31206e-18)
(0.674505 -0.0505732 -2.2811e-17)
(0.71519 -0.0690936 -9.51345e-18)
(0.768758 -0.0855045 -4.97356e-17)
(0.824468 -0.0985098 -3.72792e-17)
(0.956829 -0.105481 -1.09721e-15)
(0.858669 -0.0780616 -3.45076e-16)
(0.617699 -0.0125869 9.35786e-18)
(0.631724 -0.037945 2.25948e-17)
(0.660257 -0.0626266 3.33852e-18)
(0.70215 -0.0858556 -9.21618e-18)
(0.757744 -0.106639 -8.55077e-17)
(0.816099 -0.123163 -5.06408e-16)
(0.952847 -0.132368 -8.65456e-16)
(0.857953 -0.0970368 -2.0931e-16)
(0.599282 -0.0150346 3.71317e-18)
(0.61355 -0.0453836 6.61656e-17)
(0.642707 -0.0751475 -1.97783e-17)
(0.685922 -0.103497 -6.02918e-17)
(0.74391 -0.129203 -1.2021e-16)
(0.805486 -0.149847 -1.25186e-16)
(0.948002 -0.16141 -1.88675e-16)
(0.857282 -0.117253 -6.37098e-17)
(0.577502 -0.0175245 -5.42367e-18)
(0.591945 -0.0529949 3.01883e-18)
(0.62162 -0.0881176 -1.43713e-16)
(0.666149 -0.122093 -1.39508e-16)
(0.726814 -0.153465 -1.70961e-16)
(0.792283 -0.179076 1.23539e-16)
(0.942268 -0.193319 2.84334e-17)
(0.856711 -0.138748 -6.45454e-17)
(0.552306 -0.020022 -1.06234e-17)
(0.56678 -0.0606866 -1.0443e-17)
(0.596722 -0.101438 -9.51279e-17)
(0.642368 -0.141646 -1.66866e-16)
(0.705834 -0.17969 -9.64542e-17)
(0.775962 -0.21157 2.80732e-16)
(0.935744 -0.229125 7.94089e-18)
(0.856474 -0.161647 -1.88753e-16)
(0.523697 -0.0224681 -1.43865e-17)
(0.537962 -0.0682921 1.1247e-18)
(0.567712 -0.114888 -1.31374e-16)
(0.61398 -0.162009 -2.88683e-16)
(0.680049 -0.20805 -1.70498e-16)
(0.755643 -0.248316 1.66201e-16)
(0.92878 -0.270416 -1.65259e-16)
(0.857002 -0.1865 -2.52188e-16)
(0.491775 -0.0247732 -9.52042e-18)
(0.505471 -0.0755461 3.69082e-17)
(0.534304 -0.128068 -1.08868e-16)
(0.580266 -0.182778 -2.17529e-16)
(0.648099 -0.238432 -1.21203e-16)
(0.729918 -0.290514 1.51363e-16)
(0.921952 -0.318261 -1.50335e-16)
(0.859457 -0.211297 -1.0701e-16)
(0.456787 -0.0268131 -5.79469e-18)
(0.469422 -0.0820661 2.38592e-17)
(0.496297 -0.140349 -3.20032e-17)
(0.540456 -0.203202 -5.8023e-17)
(0.607998 -0.27065 1.87513e-17)
(0.697136 -0.340523 4.34857e-17)
(0.913591 -0.374131 -8.19143e-18)
(0.86589 -0.227897 6.21533e-18)
(0.419177 -0.0284291 4.69729e-18)
(0.430119 -0.0873454 -2.16859e-18)
(0.453625 -0.150807 -4.6021e-17)
(0.493438 -0.221992 -7.05804e-17)
(0.555925 -0.304444 -1.98298e-17)
(0.653017 -0.401642 -5.58477e-18)
(0.884979 -0.448494 1.596e-17)
(0.864226 -0.24367 1.94359e-17)
(0.379596 -0.0294202 1.1105e-17)
(0.388071 -0.0907067 -1.55782e-17)
(0.406322 -0.15792 -7.23443e-17)
(0.43723 -0.236129 -1.21697e-16)
(0.485454 -0.335105 -1.08024e-16)
(0.581378 -0.465758 -3.10844e-17)
(0.779283 -0.548559 3.47667e-17)
(0.789214 -0.321179 -1.56398e-17)
(0.338821 -0.0295416 3.10435e-18)
(0.344089 -0.0912372 -6.20649e-18)
(0.355239 -0.159287 -2.99272e-17)
(0.372062 -0.23981 -7.72117e-17)
(0.397467 -0.347836 -5.90727e-17)
(0.460389 -0.498604 -3.02804e-17)
(0.547813 -0.625205 4.97616e-17)
(0.546841 -0.493123 -1.56341e-17)
(0.744172 0.0405833 -5.90998e-14)
(0.987595 0.0444864 -8.70154e-16)
(0.76085 0.0437963 -2.51913e-16)
(0.693787 0.0413283 -8.0471e-16)
(0.604504 0.038419 8.05514e-16)
(0.52005 0.034988 3.83817e-16)
(0.441025 0.0312141 -1.38743e-14)
(0.368679 0.0272847 -5.60609e-14)
(0.30376 0.023378 -4.09412e-14)
(0.246639 0.0196462 2.84067e-15)
(0.197321 0.0162059 -1.18884e-14)
(0.155502 0.0131349 -3.71355e-14)
(0.120636 0.010474 -1.77402e-14)
(0.0920084 0.00823307 -7.88316e-14)
(0.0688067 0.00639889 1.63744e-15)
(0.0501708 0.00494315 -6.72018e-15)
(0.0352342 0.00383065 -3.07603e-14)
(0.0231374 0.00302857 4.13767e-14)
(0.0129953 0.00252597 6.91242e-14)
(0.00401877 0.0021477 6.69613e-16)
(0.742855 0.0938891 -6.39189e-15)
(0.985224 0.104649 -7.25978e-15)
(0.757769 0.101317 2.26401e-14)
(0.688954 0.0959949 -1.0436e-15)
(0.599003 0.0891369 5.10988e-15)
(0.514005 0.0810741 1.90341e-14)
(0.434776 0.0722256 -7.75969e-16)
(0.362534 0.0630371 -8.96689e-15)
(0.29797 0.0539273 -1.59076e-14)
(0.241385 0.0452499 1.71869e-14)
(0.192712 0.0372719 2.60106e-15)
(0.151583 0.0301678 1.82145e-14)
(0.117399 0.0240262 1.42101e-14)
(0.0894099 0.0188644 -6.01776e-15)
(0.0667814 0.0146466 1.02623e-15)
(0.0486449 0.0113041 2.43224e-15)
(0.0341351 0.00875281 1.37391e-14)
(0.0224019 0.00691513 2.02006e-15)
(0.0125765 0.00576502 4.76834e-15)
(0.00388767 0.00489778 1.42009e-15)
(0.742824 0.149651 1.62435e-15)
(0.980654 0.167908 5.87073e-15)
(0.750076 0.161134 -4.17601e-15)
(0.679572 0.152592 5.68331e-16)
(0.587757 0.14123 4.05217e-16)
(0.501726 0.127978 3.58047e-15)
(0.422162 0.113554 5.97468e-15)
(0.35021 0.0987011 -1.92252e-16)
(0.286433 0.084097 -4.48013e-15)
(0.230982 0.0702936 -1.07432e-14)
(0.183639 0.0576927 3.57218e-16)
(0.143906 0.0465438 1.51058e-15)
(0.111087 0.0369598 6.05344e-16)
(0.0843634 0.0289443 -2.51579e-16)
(0.0628612 0.0224223 7.70005e-16)
(0.045699 0.0172717 -1.14962e-16)
(0.0320177 0.0133514 1.0216e-15)
(0.0209876 0.0105339 9.68549e-16)
(0.0117724 0.00877372 2.19988e-14)
(0.00363713 0.0074477 1.08057e-14)
(0.743051 0.206024 7.06981e-15)
(0.973905 0.23098 7.77811e-15)
(0.738592 0.220843 -1.12793e-15)
(0.665931 0.208428 -1.09684e-16)
(0.571471 0.192009 -2.60068e-15)
(0.484117 0.173085 -9.78006e-15)
(0.404251 0.152726 9.61289e-16)
(0.332885 0.132009 1.86179e-15)
(0.270368 0.111866 4.31288e-15)
(0.21662 0.0930242 -1.41327e-15)
(0.171212 0.0759863 1.88383e-15)
(0.133468 0.0610388 4.07239e-15)
(0.102559 0.0482848 -4.9545e-16)
(0.0775809 0.0376864 -2.84147e-16)
(0.0576165 0.0291097 -5.63491e-16)
(0.0417728 0.022367 2.89558e-16)
(0.0292042 0.0172536 -9.01148e-16)
(0.0191127 0.013589 -7.43548e-15)
(0.0107079 0.0113045 7.48222e-16)
(0.00330512 0.00958696 -6.66937e-15)
(0.743207 0.263124 7.28084e-16)
(0.964844 0.29428 -7.85037e-15)
(0.723438 0.280267 1.86975e-17)
(0.64804 0.263238 -2.4683e-16)
(0.550363 0.241004 -1.1585e-15)
(0.461599 0.215776 -2.13084e-15)
(0.381653 0.189048 -1.23651e-17)
(0.311309 0.162254 4.31066e-16)
(0.250606 0.136565 5.03728e-16)
(0.199153 0.112844 7.95161e-18)
(0.156253 0.0916425 1.84484e-16)
(0.121016 0.073233 5.01827e-16)
(0.0924652 0.0576657 -9.36936e-16)
(0.0696082 0.0448288 -3.38361e-15)
(0.0514867 0.0345078 3.35598e-16)
(0.0372054 0.0264372 9.89841e-16)
(0.0259434 0.020343 8.05213e-15)
(0.0169457 0.0159901 7.24184e-15)
(0.00948016 0.0132832 4.61521e-16)
(0.00292299 0.0112531 5.75151e-15)
(0.743182 0.321745 1.61221e-17)
(0.953197 0.358677 -3.99106e-15)
(0.704395 0.33986 -4.75273e-15)
(0.625736 0.31726 -4.29092e-15)
(0.524452 0.288226 -1.44013e-15)
(0.434422 0.255918 -1.12885e-15)
(0.354825 0.22232 6.56465e-15)
(0.286096 0.18923 -1.69362e-15)
(0.227847 0.158021 -3.46237e-15)
(0.179305 0.129628 1.27523e-16)
(0.139455 0.104585 -2.17466e-15)
(0.107179 0.08309 -6.43154e-15)
(0.0813507 0.0650953 8.55585e-16)
(0.0608966 0.0503827 3.30331e-15)
(0.0448318 0.0386378 1.78217e-16)
(0.0322727 0.0295074 1.12473e-16)
(0.0224362 0.0226451 1.21431e-15)
(0.0146221 0.0177611 7.12938e-15)
(0.00816676 0.014732 -1.29729e-16)
(0.0025149 0.0124664 -1.179e-14)
(0.74286 0.382812 -1.00557e-16)
(0.93853 0.424972 2.48293e-16)
(0.681042 0.400044 2.44572e-15)
(0.59872 0.370638 1.75713e-15)
(0.493649 0.33359 -6.48586e-16)
(0.402766 0.293317 -4.93233e-16)
(0.324175 0.25233 2.69971e-15)
(0.257807 0.212767 2.59988e-15)
(0.202732 0.176131 -1.02388e-15)
(0.157725 0.143341 -1.15736e-15)
(0.12143 0.114831 -2.34717e-15)
(0.0925009 0.0906655 1.44666e-15)
(0.0696752 0.0706489 -2.02251e-15)
(0.0518205 0.0544299 1.94968e-15)
(0.0379457 0.0415788 -2.47115e-15)
(0.027197 0.0316491 2.43968e-15)
(0.0188431 0.0242221 -2.89626e-15)
(0.0122493 0.0189559 9.24899e-16)
(0.00682871 0.0156987 2.0365e-16)
(0.00209987 0.0132692 -6.33666e-16)
(0.742073 0.44735 2.65551e-16)
(0.920222 0.493899 3.08924e-16)
(0.652798 0.461114 2.12031e-15)
(0.566597 0.423349 2.47495e-15)
(0.457828 0.376854 2.00484e-15)
(0.366816 0.327677 -3.20365e-16)
(0.290119 0.278826 2.39875e-16)
(0.227002 0.232709 9.5192e-16)
(0.175873 0.19084 -1.1758e-16)
(0.135011 0.154012 -1.99375e-16)
(0.102722 0.122471 -2.77749e-17)
(0.0774475 0.0960788 1.79596e-15)
(0.0578225 0.0744565 2.71827e-17)
(0.0426849 0.0570963 -9.31014e-15)
(0.0310629 0.0434446 -3.15135e-15)
(0.0221522 0.0329607 -3.08561e-16)
(0.0152875 0.0251572 3.08887e-16)
(0.00990901 0.0196445 2.35893e-15)
(0.00551216 0.0162439 -5.80579e-16)
(0.00169224 0.0137145 2.45166e-16)
(0.740549 0.516547 -2.71198e-15)
(0.897424 0.566127 -1.32619e-16)
(0.618932 0.523212 9.48389e-17)
(0.52891 0.47518 8.08185e-16)
(0.416875 0.41762 1.17983e-15)
(0.326811 0.358617 -1.26105e-15)
(0.253122 0.301541 -2.60449e-15)
(0.194254 0.248929 -9.60447e-16)
(0.147862 0.202147 -1.35384e-15)
(0.111716 0.161732 2.79344e-15)
(0.0838077 0.127646 -1.67499e-16)
(0.0624133 0.0994962 -4.3706e-17)
(0.0461057 0.0766845 -1.25168e-16)
(0.0337305 0.0585348 -1.05029e-15)
(0.0243633 0.044368 -2.20263e-15)
(0.0172691 0.0335536 -7.85766e-15)
(0.0118608 0.025542 -4.70097e-16)
(0.00766071 0.0199027 -2.56691e-15)
(0.00425036 0.016433 -5.09275e-15)
(0.00130222 0.0138591 2.79875e-15)
(0.737857 0.591833 -8.55774e-16)
(0.869006 0.642224 6.30243e-16)
(0.578591 0.586297 1.93942e-15)
(0.485181 0.525717 -1.87477e-16)
(0.370741 0.455342 2.79642e-16)
(0.283082 0.385699 4.31668e-16)
(0.213715 0.320217 1.25409e-15)
(0.160163 0.261348 -7.66995e-16)
(0.119273 0.210113 -5.44316e-16)
(0.0883404 0.166648 7.42984e-16)
(0.0650994 0.130548 2.25992e-16)
(0.0477222 0.101117 -4.95362e-16)
(0.0347711 0.0775207 -3.63068e-16)
(0.0251399 0.0589109 4.93189e-17)
(0.0179792 0.0444885 -3.0027e-16)
(0.0126408 0.033542 1.21775e-15)
(0.00862649 0.0254691 -2.28431e-15)
(0.0055451 0.019806 4.87994e-17)
(0.00306572 0.0163304 2.44047e-15)
(0.000936655 0.0137585 2.58391e-15)
(0.733307 0.674982 4.74644e-16)
(0.833483 0.7226 -4.36647e-16)
(0.530826 0.650111 2.17196e-15)
(0.43496 0.57431 1.09306e-15)
(0.319497 0.489345 2.07988e-16)
(0.236082 0.408463 1.06412e-15)
(0.172497 0.334639 2.11968e-15)
(0.125338 0.269957 -3.63036e-16)
(0.0906504 0.214865 -1.70164e-16)
(0.065328 0.168963 9.62929e-16)
(0.0469411 0.131402 1.56636e-15)
(0.0336305 0.101163 -3.47443e-15)
(0.0240039 0.0771631 -2.13681e-15)
(0.0170438 0.0583929 -8.30464e-16)
(0.0120011 0.0439442 -4.59699e-15)
(0.00832888 0.0330368 3.41594e-15)
(0.00562501 0.0250266 2.20153e-15)
(0.00358747 0.0194256 2.73799e-16)
(0.00197188 0.0159959 2.31441e-15)
(0.000599649 0.0134639 4.45784e-16)
(0.725832 0.76824 -1.46972e-15)
(0.788947 0.807407 -9.76229e-16)
(0.474646 0.714136 1.153e-15)
(0.377871 0.62006 1.55295e-15)
(0.263379 0.518859 1.1413e-15)
(0.186404 0.426475 4.71927e-16)
(0.130135 0.344667 1.147e-16)
(0.0903926 0.274827 -6.4387e-16)
(0.0624941 0.216599 9.46278e-16)
(0.0430604 0.168922 1.77605e-16)
(0.0296084 0.13046 1.21615e-16)
(0.0203304 0.0998625 -8.67033e-16)
(0.0139343 0.0758095 2.92523e-16)
(0.00952856 0.057144 2.11995e-15)
(0.00648492 0.0428657 -9.87043e-16)
(0.00436895 0.0321407 5.10806e-16)
(0.0028786 0.0242952 3.56516e-16)
(0.00180098 0.0188255 -7.13571e-16)
(0.00097565 0.0154833 1.4428e-16)
(0.000293182 0.0130212 1.09814e-16)
(0.713812 0.874473 -2.30379e-15)
(0.732964 0.896409 -6.93055e-16)
(0.409085 0.777553 2.81641e-16)
(0.313676 0.661786 9.72206e-16)
(0.202843 0.543076 9.4264e-16)
(0.134778 0.439366 -5.18123e-16)
(0.0873368 0.350262 -1.82183e-15)
(0.0559167 0.27612 -1.70362e-15)
(0.0352488 0.215568 -4.42285e-16)
(0.0218487 0.166802 -5.28239e-16)
(0.0133088 0.127984 -1.17882e-15)
(0.00795541 0.0974466 2.29025e-17)
(0.00464423 0.0736511 1.72807e-16)
(0.00264272 0.0553168 3.75824e-16)
(0.0014585 0.0413724 -5.24465e-16)
(0.000776258 0.030946 1.44822e-16)
(0.000395221 0.023346 -2.59902e-17)
(0.000189524 0.0180619 -4.87947e-15)
(7.86892e-05 0.0148391 -5.6188e-16)
(1.76601e-05 0.0124698 3.74026e-17)
(0.694857 0.997359 -1.14916e-15)
(0.662465 0.988807 -2.61226e-16)
(0.333301 0.839186 3.51989e-16)
(0.242339 0.698028 1.19233e-15)
(0.13861 0.561237 2.39563e-16)
(0.0820518 0.446879 -6.14715e-16)
(0.0448263 0.351494 -1.20228e-15)
(0.0224557 0.274078 -4.42894e-16)
(0.00928814 0.212077 -1.98848e-18)
(0.00193246 0.162906 -1.23747e-15)
(-0.00181176 0.124262 -4.30211e-16)
(-0.00341375 0.094141 -5.96478e-16)
(-0.0038248 0.070864 2.39105e-16)
(-0.00359544 0.0530469 -5.78516e-16)
(-0.00307232 0.0395677 -2.79742e-15)
(-0.00244942 0.0295315 3.60524e-16)
(-0.0018277 0.0222397 2.21875e-15)
(-0.00124976 0.017182 -1.21014e-15)
(-0.000721067 0.0141026 -2.32473e-15)
(-0.000227628 0.0118427 3.5736e-16)
(0.665534 1.14161 5.77838e-16)
(0.57356 1.08299 2.33826e-16)
(0.246708 0.897439 -1.26752e-16)
(0.164096 0.727009 -2.42442e-17)
(0.0716955 0.572714 2.84185e-17)
(0.0291453 0.448915 -3.1565e-16)
(0.0033112 0.348605 -3.9281e-16)
(-0.00950825 0.269076 4.84512e-17)
(-0.0150908 0.206472 1.24697e-16)
(-0.0165131 0.157534 1.12753e-16)
(-0.0156671 0.119521 1.67972e-15)
(-0.0137486 0.0901387 8.68671e-16)
(-0.0114668 0.0676029 1.34863e-16)
(-0.00919163 0.0504547 -3.8132e-16)
(-0.00711785 0.0375433 -1.64269e-15)
(-0.00531908 0.027966 1.45921e-16)
(-0.00379989 0.0210277 3.41104e-16)
(-0.00252422 0.0162256 -1.42993e-16)
(-0.00142816 0.0133061 -5.4316e-16)
(-0.000444203 0.0111671 2.31766e-16)
(0.621076 1.31342 1.68144e-15)
(0.461278 1.1762 6.0851e-16)
(0.149133 0.950225 -7.87896e-16)
(0.0795223 0.746811 -9.78774e-16)
(0.00345585 0.577391 -6.57111e-17)
(-0.0229896 0.445499 -5.74318e-16)
(-0.0365435 0.341897 -8.74994e-16)
(-0.0395922 0.261454 -3.09437e-16)
(-0.0376947 0.199104 -6.36295e-16)
(-0.0334003 0.150987 7.72613e-16)
(-0.0282268 0.113986 1.71234e-15)
(-0.0230421 0.0856214 4.99447e-16)
(-0.0182949 0.0640073 1.4111e-16)
(-0.0141666 0.0476458 6.68932e-16)
(-0.0106999 0.0353776 6.90766e-16)
(-0.00785198 0.0263071 -1.18377e-16)
(-0.00553644 0.0197528 -2.61856e-16)
(-0.00364446 0.0152252 2.51313e-16)
(-0.00204881 0.0124761 1.20581e-16)
(-0.000634041 0.010465 -4.79725e-16)
(0.554593 1.52056 1.86692e-15)
(0.319032 1.26375 1.07457e-15)
(0.0411199 0.994733 2.63755e-17)
(-0.0103975 0.755287 -1.02405e-17)
(-0.0645276 0.574905 -2.58336e-16)
(-0.073561 0.436945 -9.83461e-16)
(-0.0741733 0.33178 -1.27689e-15)
(-0.0675054 0.251591 4.30725e-16)
(-0.0583776 0.190317 1.33621e-16)
(-0.0486855 0.143549 -9.17293e-17)
(-0.0394964 0.107894 1.02313e-15)
(-0.0313215 0.0807605 1.15168e-15)
(-0.0243446 0.0602004 5.49863e-16)
(-0.0185548 0.0447077 1.8021e-15)
(-0.0138483 0.0331334 6.6757e-16)
(-0.0100721 0.0246006 -3.45858e-16)
(-0.0070553 0.0184487 -1.01024e-15)
(-0.00462277 0.0142063 1.19894e-15)
(-0.00259013 0.0116333 1.08327e-15)
(-0.00079938 0.00975358 -1.78714e-15)
(0.460115 1.77256 1.59002e-15)
(0.137869 1.34057 1.59178e-15)
(-0.0756008 1.0268 1.2296e-15)
(-0.104078 0.752757 8.99467e-16)
(-0.130477 0.564832 -3.3739e-16)
(-0.121683 0.423722 -4.88158e-16)
(-0.109151 0.318767 -1.35654e-16)
(-0.0930464 0.23996 1.10127e-15)
(-0.0770748 0.180472 -4.85808e-16)
(-0.0623771 0.135485 -1.53273e-15)
(-0.0495163 0.101441 3.05004e-16)
(-0.038638 0.0756943 4.44087e-16)
(-0.0296648 0.0562811 7.9568e-16)
(-0.0223989 0.0417113 2.97612e-15)
(-0.0165977 0.0308614 1.82003e-15)
(-0.0120061 0.0228829 -1.20187e-16)
(-0.0083759 0.0171419 -3.04225e-16)
(-0.00547226 0.013189 3.2079e-16)
(-0.00305961 0.0107938 3.60281e-16)
(-0.000942576 0.00904617 3.09408e-16)
(0.306303 2.07213 1.30117e-15)
(-0.0926643 1.39965 1.70958e-15)
(-0.19852 1.04006 1.44788e-15)
(-0.198883 0.739659 8.09759e-16)
(-0.193297 0.547577 -1.2768e-16)
(-0.166525 0.40645 4.56688e-16)
(-0.141147 0.303438 1.12606e-15)
(-0.116119 0.227021 6.82454e-16)
(-0.0937992 0.169894 5.50849e-17)
(-0.074529 0.127025 -6.3453e-17)
(-0.0583529 0.0947885 -5.5718e-17)
(-0.0450569 0.070538 1.28782e-16)
(-0.0343127 0.0523309 1.0331e-15)
(-0.0257456 0.038714 3.11006e-15)
(-0.0189849 0.0286021 -3.45732e-16)
(-0.0136817 0.0211829 4.10494e-17)
(-0.0095182 0.0158535 -1.15377e-17)
(-0.00620622 0.0121888 1.8674e-17)
(-0.0034648 0.00996988 3.98565e-16)
(-0.00106599 0.00835297 -2.74947e-17)
(0.215895 2.40927 1.0696e-15)
(-0.390225 1.44852 1.2367e-15)
(-0.323436 1.02631 7.87418e-16)
(-0.291389 0.71574 2.91283e-16)
(-0.251873 0.524005 -4.17412e-17)
(-0.207513 0.385952 7.37389e-16)
(-0.169998 0.286386 1.51184e-15)
(-0.136724 0.213191 2.4883e-16)
(-0.108619 0.158878 3.77802e-16)
(-0.0852276 0.118375 3.83149e-16)
(-0.066091 0.0880782 -2.2049e-17)
(-0.0506528 0.0653895 7.80241e-17)
(-0.0383499 0.0484175 5.74473e-16)
(-0.028644 0.0357628 2.40813e-15)
(-0.0210474 0.0263882 6.69967e-17)
(-0.0151267 0.0195232 2.92051e-16)
(-0.0105019 0.0145994 4.96541e-17)
(-0.00683765 0.0112175 2.3837e-16)
(-0.00381302 0.00917104 1.1317e-15)
(-0.00117183 0.00768156 -8.45497e-16)
(0.269662 -0.0280504 -1.47685e-18)
(0.270738 -0.0859178 -2.69128e-18)
(0.271512 -0.148348 -4.96758e-19)
(0.26867 -0.220369 -9.99129e-18)
(0.262713 -0.314176 -3.53791e-17)
(0.246829 -0.437681 -3.32536e-17)
(0.167431 -0.536994 6.56558e-18)
(0.0606006 -0.490792 1.29011e-18)
(0.187129 -0.0242079 -8.85202e-21)
(0.185427 -0.0729199 -1.14346e-18)
(0.181223 -0.123167 7.04693e-19)
(0.173416 -0.175678 9.58583e-18)
(0.16081 -0.230517 1.67074e-17)
(0.130418 -0.289246 -2.77907e-17)
(0.0681116 -0.347976 -7.93548e-17)
(0.0110189 -0.378379 -3.16626e-17)
(0.119096 -0.0198704 -2.26567e-18)
(0.116578 -0.0593297 -6.04662e-19)
(0.111261 -0.0989902 1.57592e-18)
(0.102509 -0.138879 2.4284e-18)
(0.0901458 -0.178823 4.87967e-19)
(0.0704492 -0.217294 -9.51631e-19)
(0.0396094 -0.246284 -6.90429e-18)
(0.00791661 -0.255963 -2.10605e-17)
(0.0642699 -0.0161838 -6.94812e-20)
(0.0620003 -0.0476233 8.9139e-19)
(0.0571292 -0.0787555 5.59198e-18)
(0.0493293 -0.10939 5.8845e-18)
(0.0385825 -0.139124 -5.74001e-18)
(0.0237531 -0.167242 -7.34159e-18)
(0.00470192 -0.190974 -8.38223e-18)
(-0.0130386 -0.206541 -1.40828e-17)
(0.0204695 -0.0130927 -3.59092e-19)
(0.0189538 -0.0381044 -1.01811e-18)
(0.0147961 -0.0627929 9.11498e-20)
(0.00840503 -0.0868663 6.72204e-19)
(4.40679e-05 -0.109915 -3.59302e-19)
(-0.0109709 -0.131429 -6.49567e-19)
(-0.0243382 -0.150252 2.15072e-19)
(-0.0365941 -0.16486 1.7281e-18)
(-0.0145701 -0.0133723 -1.45246e-19)
(-0.015714 -0.0307118 -1.93459e-19)
(-0.0190651 -0.0503817 -2.84443e-19)
(-0.02418 -0.0696482 -2.60268e-19)
(-0.0306982 -0.0881089 -6.13787e-19)
(-0.0392163 -0.105507 -3.68894e-18)
(-0.0493673 -0.121187 -9.71205e-18)
(-0.0587185 -0.134276 -7.81381e-18)
(-0.0423782 -0.0109466 -1.12099e-18)
(-0.0436738 -0.0249707 -2.28294e-18)
(-0.046361 -0.0407717 -1.84058e-18)
(-0.0504544 -0.0562715 -3.90418e-18)
(-0.0557193 -0.071221 -2.58324e-18)
(-0.0626233 -0.0854965 1.30448e-18)
(-0.0708097 -0.0986227 2.66742e-18)
(-0.0785512 -0.110046 -4.4795e-18)
(-0.0645252 -0.00918527 -1.59151e-20)
(-0.0658625 -0.0204885 1.15328e-19)
(-0.0682014 -0.0331244 2.02389e-19)
(-0.071681 -0.0455931 -6.7519e-19)
(-0.0761664 -0.0577237 -2.73807e-19)
(-0.0820317 -0.0694354 1.03349e-17)
(-0.0889758 -0.0803609 3.47852e-17)
(-0.0957795 -0.0901191 5.15895e-17)
(-0.0823537 -0.00752056 7.39369e-19)
(-0.0836305 -0.0166444 4.56647e-18)
(-0.0857374 -0.0267483 5.13468e-18)
(-0.0888296 -0.0367484 -5.16528e-18)
(-0.0928273 -0.0465408 -1.04519e-17)
(-0.0980155 -0.056071 -2.89715e-18)
(-0.104159 -0.0650526 1.81662e-17)
(-0.110406 -0.073217 3.31053e-17)
(-0.0965545 -0.00603237 2.47269e-19)
(-0.0977693 -0.0132948 4.19235e-18)
(-0.0997182 -0.0212776 5.32554e-18)
(-0.102561 -0.0291947 -5.73237e-19)
(-0.106251 -0.0369836 2.50049e-18)
(-0.110992 -0.0446064 1.15701e-17)
(-0.116614 -0.0518418 1.59436e-17)
(-0.122528 -0.0585012 -3.18718e-18)
(-0.107646 -0.00469849 -2.45243e-18)
(-0.108815 -0.0103221 -2.01522e-19)
(-0.110658 -0.0164695 3.62822e-18)
(-0.11334 -0.0225751 7.36696e-18)
(-0.116832 -0.028601 -1.15985e-18)
(-0.121276 -0.0345196 -1.53052e-17)
(-0.126555 -0.0401637 -1.57861e-17)
(-0.132276 -0.0454061 -2.7064e-17)
(-0.116015 -0.0034872 -2.55691e-18)
(-0.117151 -0.00763818 -4.66277e-18)
(-0.118923 -0.0121575 -4.28035e-18)
(-0.121501 -0.0166506 7.90586e-18)
(-0.124865 -0.021093 1.59874e-17)
(-0.12911 -0.0254614 1.07609e-17)
(-0.134168 -0.0296365 1.01479e-17)
(-0.139779 -0.0335431 3.08723e-17)
(-0.121934 -0.00237127 -2.00736e-19)
(-0.123054 -0.00517446 -2.3795e-18)
(-0.124786 -0.0082179 -6.21745e-18)
(-0.127302 -0.0112447 1.00291e-18)
(-0.130586 -0.0142345 1.53432e-17)
(-0.134698 -0.0171597 8.94662e-18)
(-0.139618 -0.0199546 -1.91463e-18)
(-0.145166 -0.0226067 -5.01221e-18)
(-0.124992 -0.00132333 -3.64769e-19)
(-0.126125 -0.00287159 6.41046e-18)
(-0.127857 -0.00456448 1.16601e-17)
(-0.130353 -0.00626459 7.30767e-18)
(-0.133584 -0.00795253 -5.86511e-18)
(-0.137614 -0.00957319 -2.65596e-17)
(-0.142463 -0.0111027 -2.27017e-17)
(-0.147905 -0.0125947 -6.33416e-18)
(-0.109465 -0.000343945 -1.79848e-19)
(-0.110398 -0.000738014 2.54988e-18)
(-0.11182 -0.00119247 1.00265e-17)
(-0.113894 -0.00165463 1.31016e-17)
(-0.116578 -0.00209316 1.76856e-18)
(-0.120014 -0.0024446 -9.15599e-18)
(-0.124236 -0.00278617 -5.78666e-18)
(-0.128189 -0.00335042 4.18752e-18)
(0.0966387 -0.252784 5.63175e-17)
(0.0962453 -0.244003 7.59332e-17)
(0.10706 -0.238011 4.41995e-17)
(0.110668 -0.235484 3.8579e-18)
(0.111478 -0.234611 2.89701e-17)
(0.110284 -0.23491 4.01804e-17)
(0.10789 -0.235918 2.34751e-17)
(0.104832 -0.237486 5.98558e-18)
(0.101182 -0.239439 1.75581e-17)
(0.0971613 -0.241556 1.92603e-17)
(0.0930963 -0.243774 1.16212e-17)
(0.0890525 -0.24613 4.23854e-18)
(0.0848569 -0.248589 1.42853e-17)
(0.0807074 -0.251006 2.72099e-17)
(0.076661 -0.253498 1.2046e-17)
(0.0726616 -0.25597 -5.29065e-17)
(0.0687983 -0.258474 -1.22895e-16)
(0.0650529 -0.260978 -1.1356e-16)
(0.0614195 -0.26351 -4.39811e-17)
(0.0580437 -0.266016 1.84015e-17)
(0.0547376 -0.268648 2.71526e-17)
(0.0515175 -0.27117 6.1073e-18)
(0.0486921 -0.273734 -1.73119e-17)
(0.046031 -0.276334 -4.36768e-17)
(0.043656 -0.278863 -2.57131e-17)
(0.041838 -0.281389 7.08666e-18)
(0.0402327 -0.284032 5.85476e-17)
(0.0388529 -0.286519 5.75468e-17)
(0.0380864 -0.288969 -7.4099e-18)
(0.0378273 -0.291374 -4.64636e-18)
(0.0381311 -0.293718 9.56742e-17)
(0.0390645 -0.295982 1.5694e-16)
(0.0407073 -0.298144 1.6935e-16)
(0.0431566 -0.300176 5.08296e-17)
(0.0465277 -0.302044 -2.56323e-17)
(0.050968 -0.303707 -3.15139e-17)
(0.0567052 -0.305124 -4.50395e-17)
(0.0639627 -0.306276 -6.57731e-17)
(0.0730269 -0.307027 -4.36993e-17)
(0.0842492 -0.307324 -1.60973e-17)
(0.0978757 -0.30702 3.43085e-17)
(0.113884 -0.305218 5.92858e-17)
(0.131505 -0.300767 1.24225e-16)
(0.157812 -0.294829 1.7451e-16)
(0.235622 -0.289548 2.16927e-16)
(0.450361 -0.277213 1.27607e-16)
(0.838379 -0.240562 1.75491e-16)
(1.29343 -0.155611 1.9696e-16)
(1.88092 -0.00226712 2.10227e-16)
(0.129985 0.317905 3.08667e-16)
(0.000923432 -0.361405 9.02196e-18)
(-0.00626529 -0.349935 1.70572e-18)
(-0.0147902 -0.344273 1.77323e-20)
(-0.0243398 -0.342738 -1.33802e-18)
(-0.0341055 -0.34363 5.10223e-18)
(-0.0442581 -0.346142 4.09485e-18)
(-0.0546584 -0.349643 5.51711e-19)
(-0.0652911 -0.353859 3.08577e-19)
(-0.0762035 -0.358546 7.40284e-18)
(-0.0874219 -0.36349 5.94396e-18)
(-0.098943 -0.368622 -1.36709e-17)
(-0.110797 -0.373948 -4.34998e-17)
(-0.123031 -0.379422 -4.5495e-17)
(-0.135684 -0.384938 -2.76759e-17)
(-0.148735 -0.390594 -4.7919e-17)
(-0.162256 -0.396311 -8.27184e-17)
(-0.176235 -0.402145 -4.54889e-17)
(-0.190724 -0.408077 5.18032e-17)
(-0.205731 -0.41414 1.37995e-16)
(-0.221301 -0.420311 1.23557e-16)
(-0.237455 -0.426721 1.04699e-17)
(-0.254282 -0.433169 -8.25226e-17)
(-0.271724 -0.439825 -1.6301e-16)
(-0.289897 -0.446685 -2.34217e-16)
(-0.308814 -0.453674 -1.8334e-16)
(-0.328467 -0.460896 -5.96975e-17)
(-0.348945 -0.468464 -8.81801e-18)
(-0.370309 -0.476116 -8.7802e-17)
(-0.392469 -0.484012 -1.05802e-16)
(-0.41547 -0.492161 2.40932e-18)
(-0.43931 -0.50056 8.45769e-17)
(-0.463972 -0.509205 7.3573e-17)
(-0.489428 -0.518097 2.89529e-17)
(-0.515626 -0.527234 -8.51913e-17)
(-0.542476 -0.536611 -1.87419e-16)
(-0.569835 -0.546216 -2.34236e-16)
(-0.597453 -0.556053 -2.281e-16)
(-0.624992 -0.566126 -1.96998e-16)
(-0.652094 -0.576252 -1.33227e-16)
(-0.678338 -0.586123 -4.70955e-17)
(-0.702997 -0.595069 6.37204e-17)
(-0.724329 -0.602761 1.82102e-16)
(-0.73438 -0.613301 3.12314e-16)
(-0.702176 -0.638926 2.9569e-16)
(-0.564702 -0.689437 1.84284e-16)
(-0.275624 -0.743423 1.35738e-16)
(0.111332 -0.728211 2.46709e-16)
(0.429232 -0.526659 3.61925e-16)
(0.204962 -0.0463245 3.12691e-16)
(-1.14504 0.673646 5.09731e-16)
(-0.0137383 -0.253019 -3.54999e-17)
(-0.0328483 -0.250607 -3.6e-17)
(-0.0463018 -0.251135 -2.54546e-17)
(-0.0592675 -0.253417 -1.52915e-17)
(-0.0711139 -0.256856 -3.56013e-18)
(-0.082761 -0.261056 1.44413e-18)
(-0.0943663 -0.265765 1.02974e-17)
(-0.106125 -0.270833 3.90267e-19)
(-0.118141 -0.276154 -2.42118e-17)
(-0.130473 -0.281664 -5.02844e-17)
(-0.143167 -0.287338 -6.5458e-17)
(-0.156279 -0.29316 -7.41205e-17)
(-0.169852 -0.299114 -6.33931e-17)
(-0.183919 -0.305197 -2.14615e-17)
(-0.198517 -0.311425 5.01367e-17)
(-0.213689 -0.317799 8.8607e-17)
(-0.229471 -0.324341 6.22776e-17)
(-0.245911 -0.331063 4.03946e-17)
(-0.263052 -0.337988 4.82726e-17)
(-0.280946 -0.345136 4.95383e-17)
(-0.299652 -0.352535 3.06245e-17)
(-0.319222 -0.360178 4.14256e-18)
(-0.3397 -0.368116 -2.16025e-17)
(-0.361158 -0.376365 -4.90002e-17)
(-0.383649 -0.384949 -6.83825e-17)
(-0.407245 -0.393925 -5.27542e-17)
(-0.43204 -0.403331 -9.26101e-18)
(-0.458109 -0.413148 3.83073e-17)
(-0.485507 -0.423445 7.44445e-17)
(-0.514327 -0.434269 7.27566e-17)
(-0.544665 -0.445678 3.59489e-17)
(-0.576615 -0.457729 -9.7468e-18)
(-0.610256 -0.470473 -9.61496e-17)
(-0.645654 -0.483968 -3.24583e-16)
(-0.682851 -0.498286 -5.26916e-16)
(-0.721844 -0.513515 -4.94927e-16)
(-0.762556 -0.529761 -2.97139e-16)
(-0.804842 -0.547115 -2.02878e-16)
(-0.848535 -0.565533 -2.78675e-16)
(-0.893138 -0.584794 -3.21294e-16)
(-0.936743 -0.605031 -1.9247e-16)
(-0.974547 -0.629457 5.75112e-17)
(-0.995445 -0.669324 2.08844e-16)
(-0.975158 -0.74413 1.31069e-16)
(-0.884832 -0.865241 -1.00466e-17)
(-0.742767 -0.998919 1.54654e-17)
(-0.659944 -1.02758 1.41559e-16)
(-0.787845 -0.774178 2.80887e-16)
(-1.28577 -0.141603 3.36239e-16)
(-2.03664 0.85169 4.23465e-16)
(-0.0282643 -0.214955 -1.02285e-17)
(-0.0461308 -0.218937 -3.05619e-18)
(-0.0589523 -0.223562 -2.6699e-18)
(-0.0717597 -0.228188 -1.5083e-19)
(-0.0837671 -0.233063 3.05036e-18)
(-0.0956113 -0.238146 9.17422e-18)
(-0.107404 -0.243418 9.36592e-18)
(-0.119309 -0.248847 -6.43431e-18)
(-0.131429 -0.254399 -2.56975e-17)
(-0.143845 -0.260053 -3.38545e-17)
(-0.156623 -0.265801 -4.18544e-17)
(-0.169821 -0.271637 -5.32774e-17)
(-0.183492 -0.27756 -5.37495e-17)
(-0.197679 -0.283573 -2.23852e-17)
(-0.21243 -0.289688 7.29782e-18)
(-0.22779 -0.295916 2.18607e-17)
(-0.243804 -0.302272 5.63942e-17)
(-0.260521 -0.308773 1.04813e-16)
(-0.277992 -0.315438 1.51534e-16)
(-0.296272 -0.322288 1.83233e-16)
(-0.315419 -0.329342 2.0177e-16)
(-0.335492 -0.336616 1.80348e-16)
(-0.356553 -0.344143 7.11754e-17)
(-0.378671 -0.351944 -8.32671e-17)
(-0.40192 -0.36005 -2.30329e-16)
(-0.426381 -0.368501 -2.06385e-16)
(-0.452149 -0.377327 1.53724e-17)
(-0.479313 -0.386552 1.54269e-16)
(-0.507964 -0.396228 2.56262e-17)
(-0.538211 -0.406405 -2.32047e-16)
(-0.570166 -0.417136 -3.69503e-16)
(-0.603945 -0.428487 -3.62986e-16)
(-0.639668 -0.440535 -3.35433e-16)
(-0.677449 -0.453372 -3.48041e-16)
(-0.717396 -0.467115 -3.82257e-16)
(-0.759593 -0.481912 -2.98285e-16)
(-0.80406 -0.49795 -8.8991e-17)
(-0.850753 -0.515442 -1.16286e-17)
(-0.899546 -0.534592 -8.53809e-17)
(-0.949719 -0.555705 -5.53689e-17)
(-0.998906 -0.58028 1.074e-16)
(-1.04279 -0.614356 2.18575e-16)
(-1.07553 -0.672314 1.05355e-16)
(-1.09034 -0.773382 -1.29466e-16)
(-1.09262 -0.922967 -2.32574e-16)
(-1.13625 -1.07745 -1.28015e-16)
(-1.3267 -1.10607 7.54705e-18)
(-1.71916 -0.815874 1.32938e-16)
(-2.22915 -0.104712 1.67331e-16)
(-2.56669 0.907665 1.31429e-16)
(-0.0490551 -0.175742 -1.89387e-19)
(-0.0648407 -0.182136 -7.65928e-18)
(-0.0769439 -0.188323 -8.61806e-18)
(-0.0891401 -0.194063 4.88088e-18)
(-0.100848 -0.199676 2.18613e-17)
(-0.112497 -0.205215 2.65708e-17)
(-0.124174 -0.210727 3.12943e-17)
(-0.136006 -0.216234 4.40994e-17)
(-0.148081 -0.221749 5.90347e-17)
(-0.160473 -0.227285 5.35101e-17)
(-0.173246 -0.232851 3.53283e-17)
(-0.186458 -0.238459 5.30896e-18)
(-0.200157 -0.244118 -2.83949e-17)
(-0.214393 -0.249841 -3.92729e-17)
(-0.229212 -0.255643 -3.99459e-17)
(-0.244659 -0.261537 -1.96477e-17)
(-0.260783 -0.267542 4.1941e-18)
(-0.277631 -0.273673 1.14338e-17)
(-0.295257 -0.27995 3.7111e-17)
(-0.313713 -0.286392 1.00835e-16)