/*--------------------------------*- C++ -*----------------------------------*\
  =========                 |
  \\      /  F ield         | OpenFOAM: The Open Source CFD Toolbox
   \\    /   O peration     | Website:  https://openfoam.org
    \\  /    A nd           | Version:  13
     \\/     M anipulation  |
\*---------------------------------------------------------------------------*/
FoamFile
{
    format      ascii;
    class       surfaceVectorField;
    location    "0.0001";
    object      Uf;
}
// * * * * * * * * * * * * * * * * * * * * * * * * * * * * * * * * * * * * * //

dimensions      [0 1 -1 0 0 0 0];

internalField   nonuniform List<vector> 
3252
(
(0.667847 -0.00273936 2.77784e-17)
(0.660636 -0.00218762 -3.52956e-18)
(0.687489 -0.00538721 3.55131e-16)
(0.67357 -0.00662395 5.62154e-17)
(0.719611 -0.00787527 7.3378e-16)
(0.699947 -0.0108323 8.56219e-16)
(0.763392 -0.0100375 4.9793e-16)
(0.738033 -0.0147626 1.15142e-15)
(0.816561 -0.0125714 2.10957e-16)
(0.788767 -0.0179207 2.5777e-16)
(0.884765 -0.0121773 4.17981e-16)
(0.83567 -0.0229424 3.85882e-16)
(0.935902 -0.0113074 4.97994e-16)
(0.963964 -0.0170032 8.11614e-16)
(0.864992 -0.020087 5.37802e-16)
(0.665452 -0.00699546 2.39503e-17)
(0.656582 -0.00440756 -1.73477e-17)
(0.68522 -0.0138857 6.24682e-16)
(0.669781 -0.0133113 1.20247e-16)
(0.717668 -0.0203649 1.45386e-15)
(0.696488 -0.0218295 8.84255e-16)
(0.761796 -0.0261339 1.04927e-15)
(0.735075 -0.0297005 1.19808e-15)
(0.816366 -0.0317877 5.06436e-16)
(0.785693 -0.0365501 -1.42696e-17)
(0.878562 -0.0327759 8.96743e-16)
(0.83601 -0.0428534 8.48946e-16)
(0.946643 -0.0301883 9.80051e-16)
(0.963236 -0.0424595 5.61289e-16)
(0.861978 -0.0351234 7.04549e-16)
(0.659983 -0.0112498 8.44491e-17)
(0.649411 -0.00667729 2.66784e-18)
(0.679981 -0.0223115 3.55325e-16)
(0.662822 -0.0201142 1.74801e-16)
(0.712849 -0.0327275 5.45915e-16)
(0.689931 -0.033026 3.72794e-16)
(0.757642 -0.0421035 4.33297e-17)
(0.729183 -0.0449731 3.69824e-16)
(0.812997 -0.0502224 3.09474e-16)
(0.780566 -0.055463 -2.98669e-16)
(0.876263 -0.0546264 4.76975e-16)
(0.833042 -0.0640389 1.17198e-15)
(0.9464 -0.0496862 2.1165e-16)
(0.961274 -0.0671819 -3.90328e-16)
(0.86012 -0.051406 2.52355e-16)
(0.651304 -0.0157863 9.35439e-17)
(0.639055 -0.00899417 1.74063e-17)
(0.671617 -0.0313273 1.82284e-16)
(0.652693 -0.0270738 8.04314e-17)
(0.705087 -0.0460189 1.75322e-16)
(0.680308 -0.044521 9.61469e-17)
(0.750867 -0.0593054 2.70175e-17)
(0.720463 -0.060744 7.11598e-17)
(0.807623 -0.0705094 5.77866e-16)
(0.773196 -0.0750749 -7.1381e-17)
(0.872924 -0.0777733 3.03547e-16)
(0.827761 -0.0864715 6.32862e-16)
(0.944862 -0.0704427 -4.04366e-16)
(0.958484 -0.0922625 -8.65109e-16)
(0.859101 -0.0687831 -2.38943e-16)
(0.639484 -0.0204577 3.26915e-19)
(0.625523 -0.0113664 7.60457e-18)
(0.660187 -0.0406454 -1.40614e-17)
(0.639412 -0.0342261 8.16999e-18)
(0.694428 -0.059833 -1.61625e-17)
(0.667621 -0.0564008 -1.0178e-17)
(0.74152 -0.0772974 -2.96206e-17)
(0.70889 -0.0771775 -9.36983e-18)
(0.800234 -0.0920009 -4.35134e-17)
(0.763437 -0.0956822 -6.70174e-17)
(0.868259 -0.101978 -5.64306e-16)
(0.820425 -0.110369 -2.63921e-16)
(0.942816 -0.0921691 -7.32519e-16)
(0.954905 -0.118464 -9.85241e-16)
(0.858323 -0.0872649 -2.7949e-16)
(0.624472 -0.0252659 1.59763e-17)
(0.608749 -0.0137979 6.61465e-18)
(0.645605 -0.0502857 1.29668e-17)
(0.622892 -0.041587 4.37694e-17)
(0.68074 -0.0742406 -2.93856e-18)
(0.651728 -0.0687227 -7.89584e-18)
(0.729432 -0.0962454 -4.73546e-17)
(0.694263 -0.0944153 -3.4038e-17)
(0.790649 -0.114893 -2.9576e-16)
(0.751021 -0.117564 -1.02372e-16)
(0.862147 -0.127743 -6.8496e-16)
(0.810941 -0.136072 -3.21139e-16)
(0.940385 -0.115222 -5.47416e-16)
(0.950492 -0.146463 -5.36532e-16)
(0.857627 -0.106942 -1.38556e-16)
(0.606169 -0.0302091 3.49393e-17)
(0.588653 -0.0162806 -7.45733e-19)
(0.627715 -0.0602654 2.31941e-17)
(0.603007 -0.04914 3.53491e-17)
(0.663793 -0.0893215 -4.00342e-17)
(0.632416 -0.0815001 -8.026e-17)
(0.714312 -0.116347 -9.02451e-17)
(0.676273 -0.112563 -9.89503e-17)
(0.778575 -0.139515 -1.22695e-16)
(0.735567 -0.140996 -1.44977e-16)
(0.854447 -0.155601 -1.56763e-16)
(0.799043 -0.164041 -3.80286e-18)
(0.937608 -0.139991 -1.28126e-16)
(0.945203 -0.176968 -8.27148e-17)
(0.857004 -0.127932 -6.41176e-17)
(0.584465 -0.0352597 -1.20243e-18)
(0.565168 -0.0187902 -7.96908e-18)
(0.60633 -0.0705561 -7.03463e-17)
(0.579626 -0.0568227 -3.5711e-18)
(0.643286 -0.105105 -1.4161e-16)
(0.609432 -0.0946796 -1.19929e-16)
(0.695753 -0.137776 -1.55232e-16)
(0.654508 -0.131664 -1.52901e-16)
(0.76359 -0.166259 -2.38411e-17)
(0.716544 -0.166245 -1.34488e-16)
(0.844967 -0.186164 7.62276e-17)
(0.784294 -0.194875 2.00491e-16)
(0.934579 -0.166863 -1.65937e-17)
(0.939074 -0.210826 1.84008e-17)
(0.856595 -0.15032 -1.25343e-16)
(0.559271 -0.0403543 -1.05332e-17)
(0.538267 -0.0212803 -1.24699e-17)
(0.581248 -0.0810622 -5.27851e-17)
(0.552639 -0.064508 -4.76668e-18)
(0.618843 -0.121541 -1.30996e-16)
(0.582486 -0.108107 -1.12914e-16)
(0.6732 -0.160664 -1.31667e-16)
(0.628438 -0.151656 -2.26642e-16)
(0.745082 -0.195616 9.19785e-17)
(0.693181 -0.19354 -1.32788e-16)
(0.833478 -0.220308 1.44999e-16)
(0.765991 -0.229407 2.24531e-16)
(0.931584 -0.196432 -8.7257e-17)
(0.932326 -0.249176 -7.70571e-17)
(0.856733 -0.174033 -2.19877e-16)
(0.530542 -0.0453801 -6.6309e-18)
(0.508003 -0.0236764 -1.19941e-17)
(0.552274 -0.0915901 -6.51242e-17)
(0.521988 -0.0719811 1.87173e-17)
(0.590013 -0.138448 -2.10026e-16)
(0.551287 -0.121477 -1.20309e-16)
(0.64588 -0.185025 -2.29601e-16)
(0.597405 -0.172283 -2.53701e-16)
(0.722074 -0.228167 -2.2851e-18)
(0.664341 -0.222984 -1.46263e-16)
(0.819678 -0.259319 1.23465e-18)
(0.742995 -0.268875 1.58906e-16)
(0.929236 -0.229788 -2.07306e-16)
(0.925423 -0.293698 -1.57921e-16)
(0.858209 -0.198658 -1.80822e-16)
(0.498321 -0.0501596 1.36939e-17)
(0.474547 -0.0258697 -7.68586e-18)
(0.519259 -0.101807 -3.59793e-17)
(0.48772 -0.0789174 3.04828e-17)
(0.556295 -0.155422 -1.63197e-16)
(0.515589 -0.134277 -7.10195e-17)
(0.612767 -0.2106 -1.69374e-16)
(0.560663 -0.192973 -1.38988e-16)
(0.693095 -0.264452 1.49747e-17)
(0.628353 -0.254406 -5.2289e-17)
(0.803068 -0.304331 1.16591e-18)
(0.713776 -0.315091 9.82431e-17)
(0.928636 -0.266515 -1.29394e-16)
(0.917835 -0.347026 -8.03341e-17)
(0.862624 -0.223167 -5.12652e-17)
(0.462789 -0.0544395 9.03223e-18)
(0.438244 -0.0277157 -6.21732e-19)
(0.482168 -0.111207 -4.07175e-18)
(0.450044 -0.0848665 1.10265e-17)
(0.517194 -0.171775 -4.50126e-17)
(0.475258 -0.145726 -3.89145e-17)
(0.572555 -0.236921 -1.96419e-17)
(0.517275 -0.212672 -6.42143e-17)
(0.656186 -0.30556 3.11095e-17)
(0.582324 -0.287238 -2.70746e-19)
(0.782027 -0.357264 1.77502e-17)
(0.675383 -0.370017 1.92916e-17)
(0.930009 -0.303453 -1.23369e-18)
(0.899482 -0.412883 3.71784e-18)
(0.86507 -0.246467 1.27326e-17)
(0.424328 -0.0578872 1.26436e-18)
(0.39964 -0.0290347 7.86001e-18)
(0.441124 -0.119076 -2.40946e-17)
(0.409365 -0.0892306 -8.78729e-18)
(0.472103 -0.186398 -5.83003e-17)
(0.430277 -0.154607 -5.90136e-17)
(0.522866 -0.263212 -4.52089e-17)
(0.465695 -0.22923 -9.58104e-17)
(0.606257 -0.35301 -1.27122e-17)
(0.521142 -0.319201 -6.33606e-17)
(0.745471 -0.424988 5.14823e-18)
(0.617657 -0.431674 -1.81711e-17)
(0.918635 -0.349597 1.76371e-17)
(0.832802 -0.49251 2.5244e-17)
(0.827208 -0.276347 2.1262e-18)
(0.383523 -0.0600634 -2.23658e-18)
(0.359452 -0.0296109 7.1524e-18)
(0.39642 -0.124313 -4.39611e-17)
(0.366342 -0.0912444 -1.09482e-17)
(0.420204 -0.197023 -9.70199e-17)
(0.381085 -0.159032 -5.13887e-17)
(0.459598 -0.28561 -1.14862e-16)
(0.405034 -0.238474 -9.97196e-17)
(0.529705 -0.40039 -6.95789e-17)
(0.441985 -0.341979 -8.38402e-17)
(0.656081 -0.50703 1.73481e-18)
(0.521603 -0.482888 -3.06872e-17)
(0.837237 -0.438865 1.04687e-17)
(0.664911 -0.574296 4.21758e-17)
(0.669492 -0.35445 -1.5637e-17)
(0.341114 -0.0603893 -1.55106e-18)
(0.318583 -0.0292088 1.76373e-18)
(0.348891 -0.125262 -1.80668e-17)
(0.322624 -0.0902319 -5.17782e-18)
(0.362346 -0.199547 -5.35687e-17)
(0.330738 -0.157202 -2.13149e-17)
(0.383391 -0.293816 -6.81434e-17)
(0.341806 -0.236295 -5.75408e-17)
(0.419113 -0.423176 -4.46851e-17)
(0.358033 -0.342459 -5.21391e-17)
(0.476887 -0.56173 9.62687e-18)
(0.397892 -0.488293 -3.11505e-17)
(0.608963 -0.561509 1.82684e-17)
(0.436466 -0.62153 3.71171e-17)
(0.403219 -0.566032 -1.06352e-17)
(0.920937 0.0424976 -3.05411e-14)
(0.743654 0.06176 -3.83646e-14)
(0.830907 0.0441478 -5.66722e-16)
(0.986662 0.0676916 -3.38382e-15)
(0.738957 0.0425848 -5.23264e-16)
(0.759638 0.0666357 8.75379e-15)
(0.648967 0.0399002 -1.42847e-17)
(0.691885 0.0628766 -8.98689e-16)
(0.562197 0.0367348 5.98511e-16)
(0.60234 0.0584545 2.49885e-15)
(0.480234 0.0331355 -6.61521e-15)
(0.517671 0.0532383 7.72084e-15)
(0.404389 0.0292853 -3.45829e-14)
(0.438566 0.0474993 -8.72143e-15)
(0.335624 0.025367 -4.86389e-14)
(0.366262 0.0415223 -3.75342e-14)
(0.274513 0.0215462 -1.94495e-14)
(0.301482 0.0355788 -3.1093e-14)
(0.221246 0.0179574 -4.38956e-15)
(0.244572 0.0299008 8.48447e-15)
(0.175673 0.0146984 -2.42817e-14)
(0.195508 0.024666 -6.18828e-15)
(0.137361 0.0118287 -2.76147e-14)
(0.15396 0.0199928 -1.53609e-14)
(0.105673 0.00937396 -4.77288e-14)
(0.119362 0.0159436 -5.17094e-15)
(0.0798381 0.00733271 -3.93309e-14)
(0.0909862 0.0125333 -5.01867e-14)
(0.059011 0.0056843 -2.46516e-15)
(0.0680099 0.00974179 1.39699e-15)
(0.0423231 0.00439705 -1.8521e-14)
(0.0495705 0.00752608 -3.11963e-15)
(0.0289095 0.00343693 4.65032e-15)
(0.0348018 0.00583266 -1.32543e-14)
(0.0179098 0.00278186 5.49974e-14)
(0.022848 0.00461168 2.58938e-14)
(0.00839423 0.00234029 3.55228e-14)
(0.0128305 0.00384652 4.38067e-14)
(0.0039672 0.00327138 9.64851e-16)
(0.920564 0.0991663 -6.81754e-15)
(0.74284 0.119587 -2.58007e-15)
(0.827234 0.103014 7.41509e-15)
(0.983051 0.134121 -1.01608e-15)
(0.734825 0.0987044 1.10145e-14)
(0.754111 0.129052 9.88877e-15)
(0.643783 0.0926284 1.97702e-15)
(0.684493 0.122366 -2.77109e-16)
(0.556283 0.085179 1.1945e-14)
(0.593655 0.11349 2.87276e-15)
(0.473932 0.0767306 9.30975e-15)
(0.508166 0.103086 1.16858e-14)
(0.398031 0.0677152 -4.79673e-15)
(0.428778 0.0917051 2.43404e-15)
(0.329498 0.0585653 -1.23739e-14)
(0.356674 0.0799254 -4.79445e-15)
(0.268842 0.0496677 3.37882e-16)
(0.292484 0.0682808 -1.04737e-14)
(0.216179 0.0413337 1.0027e-14)
(0.236438 0.0572188 3.90586e-15)
(0.17129 0.0337847 1.02654e-14)
(0.188398 0.0470739 1.53409e-15)
(0.133681 0.027153 1.62488e-14)
(0.147932 0.0380606 1.02716e-14)
(0.102672 0.0214924 4.28066e-15)
(0.114397 0.0302839 7.74091e-15)
(0.0774586 0.016794 -2.56e-15)
(0.0870103 0.0237587 -3.27588e-15)
(0.0571823 0.0130059 1.71641e-15)
(0.0649173 0.0184344 9.0439e-16)
(0.0409702 0.0100517 7.98258e-15)
(0.0472441 0.0142197 1.22102e-15)
(0.027963 0.00785073 7.98647e-15)
(0.0331283 0.0110055 7.69181e-15)
(0.017313 0.00635056 3.36913e-15)
(0.0217294 0.00869192 1.52005e-15)
(0.00810862 0.00533933 3.12482e-15)
(0.0121941 0.00724484 1.29616e-14)
(0.00376854 0.00615549 5.88305e-15)
(0.917672 0.158605 3.70696e-15)
(0.742936 0.176561 4.30487e-15)
(0.821592 0.164583 9.39776e-16)
(0.977332 0.198182 6.80963e-15)
(0.72647 0.156941 -1.84716e-15)
(0.744423 0.189853 -2.6756e-15)
(0.633368 0.147014 4.88261e-16)
(0.672858 0.179562 2.3458e-16)
(0.544476 0.134725 1.96389e-15)
(0.57974 0.16588 -1.07443e-15)
(0.461442 0.120898 4.75574e-15)
(0.493058 0.150002 -2.99622e-15)
(0.385526 0.106263 2.94745e-15)
(0.413345 0.132804 3.50685e-15)
(0.317543 0.0915322 -2.29709e-15)
(0.341682 0.115181 8.18844e-16)
(0.257859 0.0773212 -7.55453e-15)
(0.278525 0.0979301 -1.5179e-16)
(0.20644 0.0641081 -5.29421e-15)
(0.223912 0.0816924 -6.15055e-15)
(0.162924 0.0522199 9.23379e-16)
(0.177522 0.0669254 1.10869e-15)
(0.126704 0.0418392 1.06621e-15)
(0.138768 0.053904 2.77162e-15)
(0.0970137 0.0330252 1.84697e-16)
(0.106889 0.0427434 6.34809e-17)
(0.0729976 0.0257428 2.49897e-16)
(0.0810247 0.0334325 -2.67611e-16)
(0.0537708 0.019894 3.35592e-16)
(0.0602795 0.0258722 1.13595e-16)
(0.0384573 0.0153473 4.42955e-16)
(0.0437663 0.0199119 8.41617e-17)
(0.0262117 0.0119683 9.95559e-16)
(0.0306328 0.0153813 7.51327e-17)
(0.0162124 0.00966984 1.12919e-14)
(0.0200647 0.0121286 -3.16832e-15)
(0.00758748 0.00812283 1.65045e-14)
(0.0112484 0.010098 1.15382e-14)
(0.0034737 0.00857195 2.20361e-15)
(0.913532 0.218264 7.41719e-15)
(0.743129 0.233543 3.90006e-15)
(0.813159 0.226004 3.40699e-15)
(0.969376 0.261638 -3.33261e-17)
(0.714259 0.214749 -6.28104e-16)
(0.731018 0.249756 -5.54821e-16)
(0.61824 0.200368 -1.33246e-15)
(0.656989 0.235221 -1.78233e-16)
(0.527477 0.18272 -6.1249e-15)
(0.560921 0.216109 -1.87985e-15)
(0.443634 0.163091 -4.50734e-15)
(0.472862 0.194235 -5.95681e-15)
(0.367875 0.142556 1.40333e-15)
(0.392956 0.170867 4.74635e-16)
(0.300831 0.122121 3.06498e-15)
(0.322101 0.147242 1.14668e-15)
(0.242647 0.102617 1.50202e-15)
(0.26049 0.124411 2.40898e-15)
(0.193064 0.0846606 2.05214e-16)
(0.20789 0.103176 -7.02912e-16)
(0.151521 0.0686489 2.95815e-15)
(0.163735 0.0840719 1.03446e-15)
(0.117258 0.0547781 1.83013e-15)
(0.127244 0.0673866 2.28774e-15)
(0.0893993 0.0430822 -3.91725e-16)
(0.0975137 0.053205 -7.16114e-16)
(0.0670249 0.0334762 -4.21272e-16)
(0.073596 0.041459 -1.83333e-15)
(0.0492228 0.0257998 -1.44746e-16)
(0.0545527 0.0319796 -1.14106e-16)
(0.0351191 0.0198569 -2.94936e-16)
(0.0394899 0.0245438 6.39575e-16)
(0.0238915 0.0154547 -4.10873e-15)
(0.0275744 0.0189147 3.5739e-15)
(0.0147574 0.0124676 -3.41826e-15)
(0.0180295 0.014886 -9.94322e-17)
(0.00689912 0.0104614 -2.8928e-15)
(0.0100942 0.0123769 6.04922e-16)
(0.00311412 0.0104954 -4.61135e-16)
(0.908027 0.278405 -3.47904e-15)
(0.743194 0.291487 3.69122e-16)
(0.801877 0.287403 -3.98817e-15)
(0.958972 0.325619 -5.90457e-15)
(0.698159 0.271908 -1.11643e-16)
(0.713837 0.30944 -2.38699e-15)
(0.598524 0.252324 -6.94351e-16)
(0.636794 0.289828 -2.2858e-15)
(0.505604 0.22862 -1.6358e-15)
(0.537299 0.264421 -1.30049e-15)
(0.42102 0.202656 -1.09092e-15)
(0.447897 0.235853 -1.62565e-15)
(0.345753 0.175895 2.05307e-16)
(0.368127 0.205849 3.30367e-15)
(0.280149 0.149644 4.66734e-16)
(0.298597 0.176013 -6.40168e-16)
(0.224041 0.124921 2.60361e-16)
(0.239131 0.147622 -1.49592e-15)
(0.176878 0.102437 9.4608e-17)
(0.189146 0.121585 6.82379e-17)
(0.137856 0.0826057 3.40262e-16)
(0.147783 0.0984531 -1.00496e-15)
(0.106035 0.0655913 -2.04434e-16)
(0.11404 0.0784738 -2.99388e-15)
(0.0804185 0.0513643 -2.13796e-15)
(0.0868614 0.0616552 -3.31724e-17)
(0.0600244 0.0397624 -1.55792e-15)
(0.0652159 0.0478393 -1.21597e-17)
(0.0439199 0.0305461 6.56753e-16)
(0.0481314 0.0367662 2.56249e-16)
(0.0312432 0.0234457 4.45658e-15)
(0.0347184 0.0281297 5.47484e-16)
(0.0212065 0.0182063 7.65437e-15)
(0.0241751 0.0216214 4.6046e-15)
(0.0130775 0.0146613 3.91351e-15)
(0.0157742 0.0169799 7.18514e-15)
(0.00610599 0.0122867 3.05819e-15)
(0.00881796 0.0140967 1.63421e-16)
(0.00271724 0.01194 -3.09267e-15)
(0.900968 0.339858 -1.94907e-15)
(0.743018 0.351347 -4.30379e-17)
(0.787506 0.349441 -4.3649e-15)
(0.945761 0.39104 -1.84159e-15)
(0.677954 0.328766 -4.52604e-15)
(0.692554 0.369448 -1.10291e-15)
(0.574149 0.303008 -2.89153e-15)
(0.612038 0.343666 -1.22438e-15)
(0.478997 0.272366 -1.28733e-15)
(0.508834 0.310864 -1.03879e-15)
(0.393961 0.239425 2.64774e-15)
(0.418371 0.274767 -8.06573e-16)
(0.319702 0.206077 2.51083e-15)
(0.339284 0.237613 4.60502e-15)
(0.256158 0.17391 -2.56186e-15)
(0.271753 0.201367 4.83312e-16)
(0.202757 0.144084 -1.70016e-15)
(0.215113 0.167478 -2.22598e-15)
(0.158593 0.117335 -1.00258e-15)
(0.168363 0.136883 -5.23948e-16)
(0.122591 0.0940333 -4.26428e-15)
(0.130316 0.11008 -2.26213e-15)
(0.0936186 0.0742568 -2.85443e-15)
(0.0997368 0.0872083 -2.43706e-15)
(0.0705663 0.0578732 2.05713e-15)
(0.0754309 0.0681555 -6.03693e-16)
(0.0523988 0.0446174 1.76926e-15)
(0.0562948 0.0526423 2.61698e-15)
(0.0381771 0.0341559 1.45944e-16)
(0.0413403 0.0403006 -1.16509e-15)
(0.0270654 0.0261388 6.53341e-16)
(0.0296992 0.0307326 1.29243e-15)
(0.0183228 0.0202476 4.1179e-15)
(0.0206144 0.0235572 -8.69874e-16)
(0.011278 0.0162742 3.56602e-15)
(0.013419 0.0184589 3.98353e-15)
(0.0052581 0.0136199 -5.85335e-15)
(0.00748833 0.0153005 3.93038e-17)
(0.00230447 0.0129443 -6.1334e-15)
(0.892063 0.403489 7.05211e-17)
(0.742459 0.41412 8.58031e-17)
(0.769637 0.412737 1.32683e-15)
(0.929211 0.458704 2.79156e-16)
(0.653276 0.385609 2.10771e-15)
(0.666665 0.430171 2.28008e-15)
(0.544921 0.352452 5.76214e-16)
(0.582368 0.396823 2.12252e-15)
(0.447714 0.313821 -5.72326e-16)
(0.475415 0.3553 7.02086e-16)
(0.362759 0.273197 1.07412e-15)
(0.384466 0.310755 -4.05238e-16)
(0.290214 0.232909 2.65071e-15)
(0.306839 0.26595 1.44759e-15)
(0.229466 0.194783 8.21048e-16)
(0.242126 0.223164 1.76102e-15)
(0.179443 0.160035 -1.0894e-15)
(0.18906 0.18392 -5.62547e-16)
(0.138843 0.129346 -1.74141e-15)
(0.146163 0.149089 -6.69717e-16)
(0.106304 0.102969 -4.8485e-16)
(0.111907 0.119023 -1.16653e-15)
(0.0805102 0.0808398 -2.56286e-16)
(0.0848383 0.0936943 1.62447e-15)
(0.0602582 0.0626873 -7.26358e-17)
(0.0636418 0.0728231 -9.79157e-16)
(0.0444801 0.0481215 -2.20419e-16)
(0.0471702 0.0559844 -3.78189e-15)
(0.0322504 0.0367045 -6.05229e-17)
(0.0344421 0.0426893 -2.81739e-15)
(0.0227751 0.0280033 -1.79634e-16)
(0.024629 0.0324459 1.04074e-15)
(0.0153726 0.0216371 -1.02053e-15)
(0.0170332 0.0248014 -1.26475e-15)
(0.00944198 0.017357 5.70852e-16)
(0.011058 0.0193902 1.65486e-15)
(0.00439484 0.0145061 -2.07362e-16)
(0.00615855 0.0160472 -1.95545e-16)
(0.00189237 0.0135599 -1.86315e-16)
(0.880886 0.470179 2.86821e-16)
(0.741295 0.48092 -1.25451e-15)
(0.747694 0.477808 1.198e-15)
(0.908584 0.529332 8.35132e-17)
(0.623627 0.442576 2.29439e-15)
(0.635509 0.491843 1.08629e-15)
(0.510578 0.400525 2.24418e-15)
(0.547357 0.449197 1.62405e-15)
(0.411797 0.352714 8.63444e-16)
(0.436921 0.397421 1.58367e-15)
(0.327723 0.303697 -4.53539e-17)
(0.346393 0.343488 -8.00593e-16)
(0.257784 0.256189 5.89404e-16)
(0.271232 0.29061 -1.2122e-15)
(0.200662 0.212157 4.26923e-16)
(0.210284 0.241272 -2.43605e-17)
(0.154708 0.172762 -1.57732e-16)
(0.161573 0.196933 -7.48703e-16)
(0.118198 0.138529 -1.1514e-16)
(0.123119 0.158274 1.32849e-15)
(0.0894973 0.109515 8.67462e-16)
(0.093066 0.12541 -9.91052e-17)
(0.0671332 0.0854649 9.27702e-16)
(0.0697724 0.0980845 8.56795e-16)
(0.0498365 0.0659347 -4.55633e-15)
(0.051841 0.0758148 -5.05939e-17)
(0.036536 0.0503949 -6.28691e-15)
(0.0381136 0.0580122 -5.09341e-15)
(0.026342 0.0382983 -1.75588e-15)
(0.0276427 0.044062 -2.66702e-15)
(0.0185194 0.0291301 -5.46769e-18)
(0.0196593 0.0333793 -4.16244e-15)
(0.0124574 0.0224511 1.31521e-15)
(0.0135382 0.0254455 -8.87912e-17)
(0.0076327 0.0179752 9.15983e-16)
(0.00876123 0.0198503 -1.55753e-16)
(0.00354596 0.0150023 -1.75246e-16)
(0.004868 0.0164028 -2.88408e-15)
(0.00149313 0.0138444 1.54879e-15)
(0.86683 0.540862 -1.44711e-15)
(0.739172 0.553049 -1.76225e-15)
(0.720926 0.545063 -2.09761e-17)
(0.882884 0.603555 2.57695e-16)
(0.588399 0.499634 4.45003e-16)
(0.598292 0.55452 1.03862e-15)
(0.470834 0.446925 9.90618e-16)
(0.506536 0.50048 2.98757e-16)
(0.371324 0.388657 -1.83504e-17)
(0.393271 0.436759 7.19251e-16)
(0.289212 0.3306 -1.92052e-15)
(0.304437 0.37256 -3.94975e-16)
(0.222937 0.275715 -1.79746e-15)
(0.23296 0.311334 -6.30257e-16)
(0.170333 0.225964 -1.15356e-15)
(0.176811 0.255593 -8.61468e-16)
(0.129123 0.182308 6.81979e-16)
(0.133235 0.206552 -9.3965e-16)
(0.0971731 0.145 1.33997e-15)
(0.0997561 0.164563 1.74433e-15)
(0.0726067 0.113828 -1.06731e-16)
(0.0742356 0.129414 3.38296e-17)
(0.0538391 0.0882984 -8.36943e-17)
(0.0548966 0.100568 -2.74795e-16)
(0.0395759 0.0677751 -5.79292e-16)
(0.0403064 0.0773135 -2.46889e-16)
(0.0287748 0.0515805 -1.61595e-15)
(0.0293351 0.0588898 -4.87677e-16)
(0.0206057 0.0390594 -4.97858e-15)
(0.0210969 0.0445587 -1.22929e-15)
(0.014408 0.0296208 -4.23125e-15)
(0.014901 0.033649 -3.21425e-15)
(0.00965147 0.0227737 -1.49938e-15)
(0.010206 0.0255843 -1.39834e-15)
(0.00589593 0.0181995 -3.8068e-15)
(0.00657827 0.0199168 -1.22859e-15)
(0.00273278 0.0151696 -1.21905e-15)
(0.00364424 0.0164338 -1.2384e-15)
(0.00111518 0.0138555 2.68882e-15)
(0.849043 0.616545 -1.27083e-16)
(0.735524 0.632094 -1.73868e-16)
(0.68839 0.614773 1.27284e-15)
(0.850799 0.681874 8.34137e-17)
(0.546897 0.55656 8.95378e-16)
(0.554109 0.61805 2.05861e-15)
(0.425426 0.491171 4.18222e-17)
(0.45944 0.550143 4.68859e-16)
(0.326456 0.421156 3.54268e-16)
(0.344476 0.472701 2.42916e-16)
(0.247661 0.353555 8.35379e-16)
(0.258992 0.397522 7.55829e-16)
(0.18624 0.291319 2.61979e-16)
(0.192589 0.327888 1.69774e-15)
(0.139065 0.236197 -6.57686e-16)
(0.142313 0.266088 -5.59947e-16)
(0.103227 0.188777 8.7595e-17)
(0.104603 0.212877 -3.52545e-16)
(0.0762219 0.148927 4.89203e-16)
(0.0765454 0.168136 8.55717e-16)
(0.0559976 0.116101 -1.28107e-16)
(0.0557924 0.131248 9.12993e-16)
(0.0409107 0.0895343 -4.30421e-16)
(0.0404995 0.101361 -2.02228e-15)
(0.0296887 0.0683855 -1.60635e-16)
(0.0292524 0.0775161 -1.2722e-15)
(0.021352 0.0518312 -1.22287e-16)
(0.0209903 0.0587875 -4.01612e-16)
(0.0151524 0.0391151 4.44898e-16)
(0.0149151 0.0443209 -2.50255e-15)
(0.0105179 0.0295792 -5.01344e-16)
(0.0104307 0.0333696 2.34443e-15)
(0.0070062 0.0226892 -1.13903e-15)
(0.00708809 0.0253096 1.48977e-17)
(0.00426274 0.0180999 1.22282e-15)
(0.00454172 0.0196645 1.64123e-16)
(0.00196961 0.0150679 2.51088e-15)
(0.00250507 0.0162035 2.37586e-15)
(0.000763924 0.0136474 1.48802e-15)
(0.826335 0.698333 2.77927e-17)
(0.72947 0.72004 -5.23356e-16)
(0.648945 0.687019 8.43768e-16)
(0.810624 0.764574 -7.136e-16)
(0.498355 0.612902 1.64235e-15)
(0.50199 0.682042 1.64895e-15)
(0.374168 0.532603 6.58595e-16)
(0.405657 0.597415 1.32911e-15)
(0.277471 0.449642 6.28246e-16)
(0.290693 0.50452 6.87035e-16)
(0.2036 0.372224 1.58227e-15)
(0.210583 0.417926 7.6016e-16)
(0.148301 0.302888 9.0096e-16)
(0.150754 0.340097 1.09057e-15)
(0.107435 0.242913 -2.68359e-16)
(0.107401 0.272791 -5.07182e-16)
(0.0775105 0.192333 3.86049e-16)
(0.0761984 0.216073 4.0288e-16)
(0.055737 0.150525 1.25914e-15)
(0.0538985 0.169223 5.5984e-16)
(0.0399678 0.116558 -9.08069e-16)
(0.0380446 0.131156 8.24804e-16)
(0.0285664 0.0893819 -2.81782e-15)
(0.0268039 0.10069 -2.13611e-15)
(0.020331 0.0679491 -1.49555e-15)
(0.0188354 0.0766233 -8.8989e-16)
(0.0143766 0.0513003 -2.67938e-15)
(0.0131864 0.0578732 6.83913e-16)
(0.010057 0.03859 -6.63601e-16)
(0.00916977 0.0434845 -2.74409e-15)
(0.00689939 0.0291048 2.81981e-15)
(0.00629634 0.0326491 1.9248e-15)
(0.00455386 0.0222772 1.25525e-15)
(0.00421534 0.0247069 1.25453e-15)
(0.00275228 0.0177421 1.27549e-15)
(0.00267051 0.0191615 -2.32995e-16)
(0.00126509 0.014753 1.39715e-15)
(0.00146054 0.0157692 1.20053e-15)
(0.000442347 0.0132692 2.73338e-16)
(0.797061 0.787447 -1.22774e-15)
(0.719655 0.819398 -1.89833e-15)
(0.601232 0.761625 6.89045e-17)
(0.760179 0.851618 -8.30713e-16)
(0.441972 0.667956 1.34933e-15)
(0.440956 0.745822 7.05231e-16)
(0.317018 0.570382 1.35088e-15)
(0.344883 0.641259 1.25452e-15)
(0.224805 0.473509 8.12717e-16)
(0.232271 0.531422 1.03921e-15)
(0.157658 0.386317 2.96571e-16)
(0.159874 0.43337 -3.68372e-17)
(0.109759 0.310384 -2.57667e-16)
(0.108142 0.347873 -8.80439e-16)
(0.0760002 0.246244 1.36703e-16)
(0.0726762 0.275823 -1.18845e-15)
(0.0524143 0.193195 5.68951e-16)
(0.0484934 0.216368 2.32727e-16)
(0.0360448 0.150042 1.5012e-16)
(0.0321602 0.168089 -1.85112e-16)
(0.0247487 0.11544 -3.63693e-16)
(0.0212324 0.129398 -5.4665e-16)
(0.0169657 0.0880554 -2.97829e-16)
(0.0139712 0.0987888 -4.09715e-16)
(0.0116095 0.066647 1.18957e-15)
(0.00916032 0.0748315 2.31004e-16)
(0.00791862 0.0501351 5.94786e-16)
(0.00599008 0.0563062 1.22368e-15)
(0.00536452 0.037601 -2.51778e-16)
(0.00390196 0.0421757 -7.49334e-16)
(0.00358077 0.0282895 4.35068e-16)
(0.00252275 0.0315857 3.22736e-16)
(0.00231174 0.0216102 -1.68769e-16)
(0.00160245 0.0238526 1.59955e-16)
(0.00137433 0.0171849 -2.92468e-16)
(0.000972889 0.0184685 -2.85433e-15)
(0.00062349 0.0142747 1.27361e-16)
(0.000514722 0.0151815 -2.186e-16)
(0.000151598 0.0127639 7.26034e-17)
(0.75896 0.88523 -1.51402e-15)
(0.704062 0.933368 -1.70987e-15)
(0.543669 0.838068 -2.14619e-16)
(0.696701 0.942486 -4.70932e-16)
(0.376955 0.720725 6.20625e-16)
(0.370104 0.808394 3.17827e-16)
(0.254158 0.603514 9.57692e-16)
(0.276982 0.680357 1.08543e-15)
(0.169067 0.492167 2.2558e-16)
(0.169803 0.552616 5.80992e-16)
(0.110555 0.395627 -1.15809e-15)
(0.107657 0.443544 -5.67808e-16)
(0.0712677 0.313867 -1.76381e-15)
(0.0654703 0.351239 -1.50315e-15)
(0.0452774 0.246396 -1.08446e-15)
(0.0387051 0.275389 -1.05513e-15)
(0.0283177 0.19163 -4.84478e-16)
(0.0218952 0.214045 -2.15806e-16)
(0.0174074 0.147747 -8.47597e-16)
(0.0116042 0.165027 -8.93055e-16)
(0.0105133 0.112994 -5.88918e-16)
(0.00553112 0.126241 -7.93752e-16)
(0.00621932 0.0857658 9.64876e-17)
(0.00210735 0.0958843 -2.95694e-16)
(0.00359215 0.0646511 2.72464e-16)
(0.000287937 0.0723259 2.06909e-16)
(0.00201868 0.0484718 -6.61101e-17)
(-0.00056606 0.0542328 -1.15068e-16)
(0.00109837 0.0362543 -1.95925e-16)
(-0.000872061 0.0405077 -1.69363e-15)
(0.000574969 0.0272153 6.09738e-17)
(-0.000882965 0.0302663 2.55775e-16)
(0.000286649 0.0207521 -2.40847e-15)
(-0.000748204 0.0228132 1.12866e-15)
(0.00013207 0.0164799 -2.76005e-15)
(-0.000550812 0.0176375 -2.99205e-15)
(4.61861e-05 0.0136761 -2.67708e-16)
(-0.000332689 0.0144833 -1.46866e-15)
(-0.000108511 0.0121678 2.01982e-16)
(0.708939 0.993167 -7.13803e-16)
(0.679761 1.06604 -2.60089e-16)
(0.474444 0.915364 3.97793e-17)
(0.616697 1.03597 -6.37229e-18)
(0.302605 0.769894 7.64494e-16)
(0.288723 0.868373 1.05531e-16)
(0.186088 0.63088 7.24633e-16)
(0.202059 0.713102 5.6603e-16)
(0.111047 0.505101 -1.79785e-16)
(0.104162 0.567407 1.30865e-16)
(0.0630844 0.400056 -9.0314e-16)
(0.0548153 0.448273 -4.60755e-16)
(0.033475 0.313492 -8.29513e-16)
(0.0234542 0.350338 -7.85562e-16)
(0.0157498 0.243643 -2.26462e-16)
(0.00600054 0.271774 -1.89947e-16)
(0.00556086 0.18794 -6.08465e-16)
(-0.00326227 0.209427 6.32299e-17)
(8.34206e-05 0.143937 -8.41205e-16)
(-0.00756339 0.160329 -5.42372e-16)
(-0.00264211 0.109476 -5.11828e-16)
(-0.00894456 0.121983 6.55992e-16)
(-0.00365661 0.0827148 -1.86306e-16)
(-0.00873419 0.0922021 1.57787e-16)
(-0.003735 0.0621179 -1.62249e-16)
(-0.00775893 0.0692756 1.85441e-16)
(-0.0033438 0.0464302 -1.66773e-15)
(-0.00647638 0.0517793 -4.76998e-16)
(-0.00275864 0.0346412 -1.24725e-15)
(-0.00515498 0.0385751 -2.20296e-15)
(-0.0021306 0.0259521 1.27269e-15)
(-0.00392674 0.0287626 2.50045e-16)
(-0.00153029 0.019757 5.3557e-16)
(-0.00284299 0.0216437 1.25213e-15)
(-0.000979776 0.0156704 -1.75727e-15)
(-0.00190586 0.0167113 -6.6077e-16)
(-0.000470181 0.0129933 -1.00816e-15)
(-0.00108508 0.0137103 -1.40757e-15)
(-0.000339122 0.0115106 2.92703e-16)
(0.642727 1.11287 4.09173e-16)
(0.642631 1.22265 1.14638e-15)
(0.391527 0.991907 5.68289e-17)
(0.515717 1.12989 4.2685e-16)
(0.218432 0.813778 -7.64327e-17)
(0.19644 0.92391 -4.67352e-16)
(0.113736 0.651269 1.6069e-18)
(0.120527 0.737619 -5.15987e-16)
(0.0516974 0.511944 -1.40478e-16)
(0.0365406 0.575321 -2.00741e-17)
(0.0161373 0.399675 -3.53526e-16)
(0.00228707 0.447517 -4.48908e-16)
(-0.00299349 0.309566 -1.76203e-16)
(-0.0172207 0.345459 -6.41216e-16)
(-0.0123876 0.238345 8.58789e-17)
(-0.0250065 0.265431 -1.35921e-16)
(-0.0158966 0.182449 1.18834e-16)
(-0.0267356 0.202894 -2.67341e-16)
(-0.0161577 0.138874 8.81948e-16)
(-0.0252129 0.154327 4.52692e-16)
(-0.0147324 0.105098 1.28159e-15)
(-0.0221375 0.116793 1.69652e-15)
(-0.0125998 0.0790763 5.08459e-16)
(-0.0185363 0.0879045 6.78458e-16)
(-0.0103015 0.0591852 -1.18521e-16)
(-0.0149844 0.0658204 1.38082e-16)
(-0.00812026 0.0441167 -1.0005e-15)
(-0.0117546 0.0490598 1.59736e-16)
(-0.0061842 0.032842 -7.64696e-16)
(-0.00896319 0.0364663 -4.40568e-16)
(-0.00452957 0.0245601 2.41732e-16)
(-0.00662395 0.0271401 9.76313e-18)
(-0.00313908 0.0186704 1.0347e-16)
(-0.00469451 0.0203923 3.04779e-17)
(-0.00196339 0.0147925 -3.39427e-16)
(-0.00310133 0.0157267 6.01406e-17)
(-0.000926179 0.0122561 -1.62767e-16)
(-0.0017479 0.012892 -2.01222e-16)
(-0.000542001 0.0108173 -1.34772e-16)
(0.554294 1.24615 1.15542e-15)
(0.586805 1.41002 1.77705e-15)
(0.292687 1.06527 -7.69553e-17)
(0.387953 1.22064 8.48757e-16)
(0.124234 0.850372 -8.81594e-16)
(0.0934541 0.972641 -3.68154e-16)
(0.0387347 0.663646 -5.30569e-16)
(0.0331703 0.751705 -4.79513e-16)
(-0.00846484 0.512648 -3.15377e-16)
(-0.0315884 0.576571 -1.65006e-16)
(-0.0300373 0.394643 -7.21914e-16)
(-0.0490582 0.441434 -7.85224e-16)
(-0.038113 0.302409 -5.97373e-16)
(-0.055941 0.336975 -1.08216e-15)
(-0.0387159 0.230848 -4.69885e-16)
(-0.0539809 0.256595 7.21029e-17)
(-0.0355658 0.175484 5.5311e-17)
(-0.0483563 0.194749 -2.39417e-16)
(-0.03079 0.132824 1.23391e-15)
(-0.0412796 0.147286 3.27061e-16)
(-0.0255805 0.100062 1.11695e-15)
(-0.0340361 0.110944 1.35706e-15)
(-0.0206023 0.0750115 3.23546e-16)
(-0.0273099 0.0831894 8.35663e-16)
(-0.0161613 0.0559758 4.00208e-16)
(-0.0214134 0.0620995 3.51815e-16)
(-0.0123682 0.0416236 6.7965e-16)
(-0.0164286 0.0461714 1.25306e-15)
(-0.00921945 0.0309251 2.93574e-16)
(-0.0123228 0.0342502 6.78809e-16)
(-0.00664851 0.0230897 -1.88808e-16)
(-0.00899642 0.0254491 -2.35639e-16)
(-0.00455694 0.0175302 -9.95149e-18)
(-0.00631938 0.0190966 -6.47633e-16)
(-0.00282897 0.0138757 1.87139e-16)
(-0.00414876 0.0147123 7.39797e-16)
(-0.00132702 0.0114889 -1.74095e-16)
(-0.00232785 0.0120517 6.16831e-16)
(-0.00071927 0.0101071 -1.15367e-15)
(0.433995 1.39466 1.47847e-15)
(0.505865 1.6376 1.7241e-15)
(0.175567 1.13169 5.60029e-16)
(0.225597 1.30205 1.34133e-15)
(0.0193608 0.877193 8.40136e-18)
(-0.0190793 1.01204 6.46942e-16)
(-0.0399149 0.666741 -1.32026e-16)
(-0.0587139 0.753923 4.58945e-16)
(-0.0674511 0.507183 -6.14286e-16)
(-0.0985413 0.570174 -2.99108e-16)
(-0.0740606 0.385322 -1.1275e-15)
(-0.0983802 0.430465 -7.28006e-16)
(-0.0707466 0.292417 -4.38656e-16)
(-0.0922132 0.325321 -6.88293e-16)
(-0.0628831 0.221513 2.84882e-16)
(-0.0806782 0.24578 7.76562e-16)
(-0.053442 0.16736 2.3001e-17)
(-0.0680207 0.185381 -1.85852e-16)
(-0.043988 0.126047 4.55532e-16)
(-0.055747 0.139496 -8.3493e-16)
(-0.0352987 0.0945745 1.08623e-15)