/*--------------------------------*- C++ -*----------------------------------*\
  =========                 |
  \\      /  F ield         | OpenFOAM: The Open Source CFD Toolbox
   \\    /   O peration     | Website:  https://openfoam.org
    \\  /    A nd           | Version:  13
     \\/     M anipulation  |
\*---------------------------------------------------------------------------*/
FoamFile
{
    format      ascii;
    class       volScalarField;
    location    "2.1";
    object      alpha.oil;
}
// * * * * * * * * * * * * * * * * * * * * * * * * * * * * * * * * * * * * * //

dimensions      [];

internalField   nonuniform List<scalar> 
2268
(
1.502e-14
1.46262e-13
8.02129e-13
3.07769e-12
8.51221e-12
2.0767e-11
4.40269e-11
8.70297e-11
1.68687e-10
3.29677e-10
5.93389e-10
1.06926e-09
2.01992e-09
3.77985e-09
6.87661e-09
1.20527e-08
1.83664e-08
1.86022e-08
1.86039e-08
0.000173948
0.000436091
0.000567143
0.000567145
9.73875e-15
1.40294e-13
9.80604e-13
3.59095e-12
1.02916e-11
2.59441e-11
6.04216e-11
1.20234e-10
2.24198e-10
4.11131e-10
7.53589e-10
1.57566e-09
2.75276e-09
4.85332e-09
8.23824e-09
1.5494e-08
3.18678e-08
4.08691e-08
3.6363e-08
8.2227e-09
8.29149e-09
5.24363e-05
0.000219717
6.77775e-15
1.08531e-13
9.66356e-13
4.35056e-12
1.14214e-11
2.68589e-11
5.72994e-11
1.16907e-10
2.27183e-10
4.47014e-10
8.35357e-10
1.46333e-09
2.45643e-09
3.974e-09
5.97135e-09
7.62187e-09
8.00073e-09
8.84126e-09
8.02848e-09
8.17274e-09
9.28018e-09
7.85372e-09
7.84268e-09
7.18918e-15
2.48757e-14
7.08247e-13
3.95136e-12
1.07128e-11
2.64259e-11
6.63334e-11
1.44398e-10
3.02657e-10
5.98757e-10
1.12567e-09
1.97566e-09
3.32782e-09
5.34964e-09
8.00845e-09
1.18731e-08
7.87522e-09
7.44363e-09
7.85265e-09
7.5791e-09
7.82987e-09
7.80439e-09
7.85676e-09
1.23003e-13
1.06558e-13
4.88652e-13
2.51693e-12
7.65755e-12
1.99671e-11
4.41405e-11
1.08487e-10
2.44622e-10
5.48832e-10
1.07298e-09
2.13551e-09
3.70162e-09
5.12764e-09
5.78448e-09
2.77097e-08
3.31209e-07
7.95091e-07
9.89748e-07
2.6665e-07
1.49427e-08
1.21923e-06
3.32182e-06
8.18303e-13
1.67131e-12
2.2237e-12
3.49434e-12
6.86212e-12
1.71228e-11
4.06291e-11
7.79626e-11
1.77429e-10
3.80766e-10
8.14466e-10
1.51646e-09
2.05767e-09
2.15478e-09
2.20414e-09
1.41112e-08
1.22736e-06
3.01455e-06
3.07969e-06
3.16003e-06
8.55403e-06
3.37108e-05
4.89037e-05
2.48287e-12
7.71501e-12
1.20352e-11
1.2451e-11
1.15813e-11
1.46217e-11
2.28939e-11
3.02145e-11
6.26105e-11
1.62738e-10
2.80663e-10
3.92455e-10
6.42641e-10
1.75762e-09
7.73634e-09
7.20362e-08
5.68533e-07
1.32519e-06
2.35671e-06
4.97473e-06
2.0789e-05
4.71634e-05
4.87257e-05
6.30658e-11
2.17846e-12
1.55145e-12
5.9008e-12
6.22707e-12
6.31621e-12
2.61705e-11
4.59701e-11
9.29634e-11
1.65818e-10
2.55916e-10
4.48259e-10
1.01131e-09
2.89782e-09
9.21936e-09
2.14798e-08
4.80691e-16
4.03038e-35
-1.06669e-23
2.02879e-06
1.25131e-05
4.15248e-06
1.75397e-05
0.111534
0.111311
0.0894267
0.0447337
0.0310771
0.0307573
0.0306724
0.24668
0.301373
0.322426
0.322004
0.329866
0.330224
0.292458
0.098779
0.0705382
0.122563
0.218461
0.219388
0.406679
0.392789
0.371627
0.359546
0.279174
0.0768308
0.0347992
0.0339909
0.0461822
0.0466538
0.0651789
0.120393
0.191541
0.155398
0.0699631
0.0632414
0.117064
0.217614
0.219436
0.41508
0.370555
0.503888
0.60997
0.620028
0.521406
0.150403
0.00387141
1.73666e-06
-2.31558e-06
-2.677e-07
-2.89277e-22
0.10982
0.188379
0.101071
0.0633305
0.130221
0.219461
0.222976
0.191631
0.0133388
0.0471872
0.21601
0.606115
0.70046
0.508901
0.109049
0.00186952
0.000841826
1.31182e-06
0.00792775
0.142962
0.18991
0.235289
0.200847
0.242121
0.316731
0.443854
0.00404058
0.00415938
0.00418355
0.0042966
0.526679
0.741752
0.741749
0.388017
0.0084074
0.000463899
4.88145e-07
0.0542458
0.228018
0.236013
0.237931
0.270747
0.244162
0.33246
0.47748
0.0149962
0.0116172
0.00767565
0.059848
0.568533
0.741716
0.741752
0.240881
0.001149
2.45778e-08
1.3386e-07
0.137262
0.27206
0.275494
0.279971
0.287548
0.290483
0.332286
0.46809
0.0337388
0.0332343
0.0405462
0.172041
0.729196
0.725412
0.41166
-1.87447e-24
-1.09804e-24
-6.84672e-13
0.000982673
0.0334626
0.160274
0.27352
0.277735
0.276373
0.235613
0.224534
0.477222
0.0328749
0.0338991
0.0417238
0.228154
0.729957
0.611479
1.51043e-08
3.68745e-07
2.40777e-07
6.55798e-10
7.15799e-06
1.29473e-07
0.00293749
0.0531473
0.0990964
0.0657788
0.0267595
0.00864845
0.482587
2.12269e-09
1.25317e-09
8.51149e-10
7.60505e-10
8.60964e-10
9.95478e-10
5.23031e-10
4.35636e-10
3.65256e-10
2.95731e-10
2.32826e-10
3.03769e-10
5.57931e-10
8.90919e-10
1.64959e-09
3.75495e-09
1.16482e-10
2.99284e-16
-8.51865e-23
-3.77695e-23
7.49296e-07
1.25238e-06
1.2579e-06
5.15879e-09
4.89097e-09
4.22712e-09
4.01928e-09
4.26025e-09
4.27274e-09
4.07474e-09
2.74925e-09
1.53286e-09
9.47083e-10
3.69764e-10
2.87065e-10
4.31516e-10
5.05967e-10
5.07003e-10
1.88657e-10
1.19524e-14
-5.26697e-21
1.53151e-21
-2.48325e-34
8.71044e-16
6.72287e-10
0.13455
4.83983e-09
3.94483e-09
3.59244e-09
3.41061e-09
3.51412e-09
3.61312e-09
3.57333e-09
3.03537e-09
2.08357e-09
1.20629e-09
1.28805e-10
3.82404e-12
1.0425e-22
-7.61488e-30
-1.27693e-29
1.11061e-21
0.00226612
0.0173005
0.0263804
0.0660408
0.363305
0.780328
0.85295
-1.10612e-14
-2.60288e-14
3.93469e-20
-2.35243e-19
-6.42008e-20
4.78873e-28
-2.39662e-27
-7.58289e-28
-2.99922e-27
-4.19035e-28
8.53632e-23
2.16243e-16
0.00229563
0.0235821
0.0583416
0.172804
0.347184
0.485145
0.65849
0.777051
0.945067
0.995257
0.885229
0.0191216
0.0557601
0.166514
0.244837
0.313988
0.383364
0.358144
0.244008
0.133445
0.157208
0.260899
0.354153
0.449127
0.551966
0.678134
0.810425
0.883749
0.831474
0.880343
0.998834
0.999476
0.993453
0.957707
0.519928
0.665053
0.90885
0.976461
0.97642
0.975154
0.973989
0.902192
0.817967
0.872217
0.907103
0.919906
0.924582
0.92079
0.936898
0.980912
0.985107
0.967814
0.982492
0.99999
0.999408
0.998114
0.999864
0.66354
0.734899
0.820524
0.884826
0.928357
0.957705
0.975527
0.978779
0.984687
0.999639
0.999515
0.99961
0.999917
0.999999
0.999999
0.999999
0.999999
0.999999
0.999999
0.999983
0.999929
0.99995
1
0.00460821
0.0342797
0.078527
0.145214
0.225548
0.312603
0.415859
0.533134
0.636111
0.735976
0.839537
0.937676
0.999994
0.999998
0.999999
0.999999
0.999999
0.999999
0.999999
0.999999
0.999999
0.999999
1
-7.69992e-11
-1.71014e-10
-6.48484e-23
-2.5754e-23
-1.03223e-13
1.55622e-07
6.70712e-06
0.00783176
0.0290766
0.0626524
0.121196
0.207701
0.345132
0.545117
0.770763
0.974635
0.999999
0.999999
0.999999
0.999999
1
1
1
1.458e-06
4.41818e-06
4.07292e-06
2.1364e-05
0.000238397
0.000240837
2.86017e-05
3.35398e-06
5.0976e-06
6.06319e-06
6.47636e-06
6.29115e-06
6.61337e-06
0.00239714
0.0318656
0.121286
0.273191
0.426479
0.526195
0.546254
0.491534
0.357844
0.330029
2.11262e-06
7.64153e-06
1.30669e-05
5.44064e-05
9.49507e-06
5.36641e-05
1.46694e-05
2.37826e-25
1.77003e-25
-6.77627e-23
5.958e-07
6.81343e-07
8.77453e-07
1.64975e-06
6.44734e-06
6.31045e-06
4.99805e-06
3.30384e-06
0.00188794
0.00282979
0.0015867
7.58495e-08
1.05471e-06
9.01151e-07
1.862e-06
1.50188e-07
1.05364e-06
1.05292e-07
7.55888e-08
6.5416e-07
3.36975e-06
4.1393e-05
0.000106019
7.2388e-05
-1.04e-07
1.26487e-12
1.06046e-08
2.02045e-09
2.98496e-07
3.42179e-07
2.17468e-07
9.22781e-07
7.02431e-07
3.99885e-08
7.19193e-08
6.61328e-08
4.57648e-07
1.61737e-07
1.12992e-07
1.03534e-07
1.0054e-07
1.04186e-07
9.81562e-08
3.75147e-05
0.000167842
0.000167016
0.000164425
0.000103887
1.00414e-27
3.87936e-10
1.4922e-10
3.33606e-08
2.3515e-08
4.0743e-08
4.98034e-08
3.78e-08
4.01821e-08
4.32313e-08
5.25461e-08
3.26824e-07
2.14573e-07
1.54949e-07
1.31588e-07
1.65271e-07
1.69144e-07
5.16108e-07
1.82858e-05
0.000155834
0.000168962
0.000165971
9.66695e-05
2.26092e-16
4.9818e-10
8.80701e-09
3.76932e-09
4.72619e-08
1.33454e-07
1.85433e-07
1.62516e-07
1.69698e-07
1.64905e-07
1.28109e-07
1.81821e-07
1.97209e-07
1.1358e-07
1.15293e-07
1.70593e-07
2.38841e-07
4.2782e-07
1.68572e-06
1.93436e-05
8.94078e-05
7.24332e-05
4.87465e-06
8.59333e-08
4.28557e-09
1.48348e-08
5.52352e-09
4.6683e-08
2.77704e-07
2.92561e-07
2.7231e-07
2.54612e-07
2.28028e-07
1.82303e-07
7.83945e-08
1.06559e-07
8.38505e-08
6.95713e-08
7.8692e-08
1.1327e-07
1.45819e-07
1.64427e-07
6.19175e-08
2.52738e-07
1.25154e-07
1.46352e-07
7.48333e-08
8.6179e-09
1.61526e-08
6.67467e-09
2.08878e-08
2.16053e-07
2.98621e-07
2.9629e-07
2.533e-07
2.06266e-07
1.55202e-07
6.11031e-08
8.93435e-08
7.46665e-08
5.28471e-08
3.97658e-08
4.13788e-08
5.27874e-08
3.30146e-08
4.37028e-08
2.23714e-07
4.56059e-07
8.21147e-07
8.89304e-07
2.46589e-07
3.42319e-08
6.3991e-09
9.0112e-09
6.60546e-08
1.86167e-07
2.29512e-07
1.86065e-07
1.50542e-07
1.10449e-07
5.35424e-08
8.49572e-08
7.21383e-08
4.80522e-08
3.10408e-08
2.3422e-08
2.69823e-08
3.55791e-08
5.35498e-08
1.84102e-07
5.18056e-07
9.24334e-07
9.27055e-07
4.21559e-07
5.32899e-08
7.9496e-09
7.41799e-09
2.26493e-08
7.94958e-08
1.17815e-07
1.04544e-07
8.42571e-08
6.15658e-08
4.84171e-08
8.22174e-08
7.29125e-08
4.85159e-08
2.92885e-08
2.04192e-08
1.98865e-08
2.67836e-08
4.46345e-08
9.74271e-08
2.94543e-07
5.92418e-07
5.52842e-07
1.87056e-07
2.68864e-08
7.13532e-09
8.8055e-09
1.24302e-08
2.57153e-08
4.38265e-08
4.21727e-08
3.53703e-08
2.7534e-08
4.12364e-08
7.35806e-08
7.00422e-08
4.80694e-08
3.00005e-08
1.93008e-08
1.55337e-08
1.70165e-08
2.38296e-08
4.20345e-08
7.05331e-08
1.25058e-07
1.02679e-07
5.29335e-08
1.44548e-08
1.11409e-08
1.05661e-08
1.05323e-08
1.22812e-08
1.66929e-08
1.59476e-08
1.40029e-08
1.13958e-08
3.32222e-08
6.47457e-08
6.42281e-08
4.65426e-08
3.01264e-08
1.79158e-08
1.27178e-08
1.10709e-08
1.18089e-08
1.50576e-08
1.17765e-08
1.40541e-08
1.3947e-08
1.56379e-08
1.12557e-08
1.09871e-08
9.28908e-09
8.65436e-09
8.6423e-09
8.61322e-09
7.96707e-09
6.94596e-09
5.42259e-09
2.52614e-08
4.83456e-08
5.18353e-08
4.15314e-08
2.85468e-08
1.68127e-08
1.04931e-08
7.79717e-09
7.05551e-09
6.95213e-09
6.06863e-09
5.55018e-09
6.29671e-09
7.44536e-09
8.22148e-09
8.19716e-09
6.84873e-09
6.24489e-09
6.00247e-09
5.62055e-09
5.11263e-09
4.43287e-09
3.47337e-09
1.7333e-08
3.54312e-08
3.91758e-08
3.33368e-08
2.54543e-08
1.55788e-08
9.04565e-09
5.8567e-09
4.59595e-09
4.18474e-09
3.92898e-09
3.66457e-09
3.80674e-09
4.31439e-09
4.88889e-09
4.93045e-09
4.26438e-09
3.92947e-09
3.79454e-09
3.6166e-09
3.35552e-09
2.97645e-09
2.45753e-09
1.2451e-08
2.4185e-08
2.65271e-08
2.3613e-08
1.90155e-08
1.33744e-08
7.83263e-09
4.36486e-09
3.06333e-09
2.54983e-09
2.39445e-09
2.3422e-09
2.35784e-09
2.45651e-09
2.58061e-09
2.43499e-09
2.31363e-09
2.20186e-09
2.15579e-09
2.10574e-09
2.00543e-09
1.83333e-09
1.59143e-09
7.62188e-09
1.54971e-08
1.66341e-08
1.47498e-08
1.22242e-08
9.89523e-09
6.20035e-09
3.34243e-09
2.08332e-09
1.53058e-09
1.32114e-09
1.29859e-09
1.32766e-09
1.35993e-09
1.34173e-09
1.25162e-09
1.17482e-09
1.13073e-09
1.11224e-09
1.10402e-09
1.0684e-09
9.92882e-10
8.88274e-10
5.18578e-09
9.28366e-09
9.86191e-09
8.44782e-09
6.84106e-09
6.03883e-09
4.29448e-09
2.42271e-09
1.42841e-09
9.2417e-10
7.08693e-10
6.49892e-10
6.56775e-10
6.5911e-10
6.42598e-10
6.21713e-10
5.76838e-10
5.48853e-10
5.36713e-10
5.17692e-10
4.93532e-10
4.65141e-10
4.22809e-10
2.82559e-09
5.17886e-09
5.30995e-09
4.40132e-09
3.3747e-09
3.11161e-09
2.45827e-09
1.498e-09
9.10921e-10
5.52055e-10
3.61617e-10
2.94431e-10
2.93064e-10
2.89368e-10
2.98777e-10
2.86464e-10
2.68215e-10
2.51727e-10
2.36597e-10
2.23544e-10
2.10651e-10
1.95965e-10
1.75698e-10
1.67569e-09
2.74555e-09
2.5905e-09
2.06087e-09
1.4782e-09
1.35169e-09
1.19552e-09
7.82447e-10
4.95257e-10
3.07186e-10
1.92239e-10
1.37181e-10
1.18284e-10
1.18904e-10
1.20675e-10
1.19332e-10
1.16106e-10
1.08804e-10
9.82069e-11
9.08525e-11
8.21529e-11
7.37505e-11
6.53552e-11
7.61227e-10
1.13851e-09
1.14281e-09
8.73993e-10
5.89019e-10
5.26846e-10
4.39833e-10
3.36455e-10
2.24245e-10
1.42286e-10
8.98287e-11
6.01616e-11
4.51363e-11
4.23074e-11
4.39725e-11
4.53565e-11
4.19235e-11
3.88431e-11
3.68617e-11
3.43409e-11
2.87478e-11
2.49771e-11
2.16769e-11
3.70943e-10
5.13719e-10
4.64177e-10
3.42683e-10
2.20003e-10
1.63098e-10
1.57316e-10
1.22633e-10
8.56524e-11
5.62108e-11
3.61121e-11
2.35808e-11
1.68554e-11
1.40167e-11
1.34468e-11
1.36853e-11
1.41344e-11
1.34065e-11
1.25719e-11
1.10257e-11
9.26839e-12
7.65809e-12
6.23967e-12
1.34245e-10
1.66159e-10
1.42342e-10
1.02966e-10
6.42069e-11
5.25947e-11
4.75972e-11
3.84444e-11
2.78669e-11
1.88475e-11
1.23495e-11
8.09598e-12
5.70891e-12
4.42386e-12
4.09166e-12
4.10436e-12
4.27589e-12
4.08238e-12
3.72318e-12
3.1693e-12
2.69023e-12
2.04619e-12
1.6106e-12
5.28708e-11
5.56974e-11
4.56198e-11
3.20552e-11
1.94656e-11
1.42912e-11
1.24947e-11
1.06284e-11
7.91315e-12
5.46082e-12
3.63138e-12
2.41252e-12
1.53688e-12
1.25627e-12
1.12877e-12
1.1129e-12
1.13358e-12
1.08202e-12
9.73155e-13
8.24716e-13
6.37624e-13
4.87229e-13
3.57843e-13
1.1184e-11
1.50801e-11
1.20844e-11
8.26947e-12
4.91706e-12
3.40736e-12
2.92085e-12
2.23173e-12
1.71892e-12
1.21345e-12
8.21082e-13
5.50311e-13
4.04606e-13
3.09292e-13
2.72886e-13
2.64816e-13
2.64658e-13
2.51261e-13
2.22887e-13
1.78415e-13
1.42335e-13
9.63358e-14
6.60241e-14
3.31055e-12
3.42457e-12
2.20004e-12
1.49827e-12
8.85999e-13
5.96126e-13
5.03793e-13
4.97248e-13
3.8791e-13
2.75537e-13
1.86639e-13
1.24856e-13
8.66894e-14
6.63521e-14
5.80332e-14
5.60907e-14
5.5365e-14
5.13662e-14
4.44159e-14
3.45282e-14
2.35936e-14
1.6741e-14
1.05049e-14
4.5679e-13
5.10944e-13
4.40435e-13
2.95307e-13
1.73163e-13
1.14744e-13
9.64718e-14
8.76127e-14
6.99194e-14
5.03142e-14
3.42798e-14
2.2978e-14
1.59173e-14
1.22935e-14
1.0973e-14
1.06969e-14
1.04557e-14
9.40926e-15
7.82009e-15
5.69477e-15
4.07031e-15
2.47399e-15
1.41147e-15
8.24799e-14
8.30119e-14
6.31471e-14
4.26607e-14
2.52234e-14
1.67103e-14
1.42036e-14
1.33922e-14
1.09645e-14
7.92405e-15
5.41062e-15
3.64241e-15
2.56955e-15
2.06015e-15
1.91311e-15
1.87153e-15
1.79985e-15
1.56708e-15
1.24905e-15
8.66161e-16
5.46787e-16
3.12764e-16
1.76594e-16
9.53769e-15
9.3152e-15
7.36564e-15
5.08128e-15
3.06438e-15
2.07004e-15
1.80957e-15
1.7851e-15
1.49312e-15
1.08304e-15
7.45636e-16
5.12078e-16
3.81603e-16
3.25012e-16
3.07925e-16
3.02853e-16
2.84747e-16
2.38256e-16
1.7617e-16
1.14662e-16
6.53983e-17
3.49676e-17
2.82189e-17
7.39345e-16
8.2816e-16
6.34098e-16
4.95336e-16
3.14014e-16
2.19885e-16
2.00086e-16
2.07793e-16
1.77535e-16
1.32007e-16
9.31749e-17
6.68265e-17
5.35387e-17
4.85065e-17
4.6623e-17
4.59217e-17
4.16748e-17
3.30605e-17
2.27679e-17
1.32454e-17
7.00738e-18
4.9125e-18
9.56294e-18
3.8171e-17
5.24545e-17
4.60145e-17
4.04568e-17
2.75154e-17
2.02992e-17
1.9313e-17
2.12374e-17
1.88898e-17
1.47928e-17
1.08721e-17
8.29124e-18
7.12911e-18
6.82097e-18
6.73036e-18
6.51127e-18
5.6239e-18
4.20684e-18
2.69784e-18
1.50464e-18
9.40968e-19
1.21199e-18
5.43411e-18
1.19886e-18
2.10285e-18
2.43978e-18
2.79167e-18
2.1041e-18
1.66063e-18
1.65847e-18
1.95429e-18
1.86393e-18
1.55712e-18
1.20382e-18
9.88545e-19
9.10233e-19
9.12133e-19
9.18661e-19
8.5706e-19
7.12768e-19
4.70721e-19
2.79543e-19
1.71338e-19
2.02478e-19
6.66248e-19
3.94541e-18
1.28308e-20
4.16157e-20
9.36554e-20
1.70921e-19
1.433e-19
1.21306e-19
1.27648e-19
1.58606e-19
1.65658e-19
1.47415e-19
1.20423e-19
1.03585e-19
1.00883e-19
1.08946e-19
9.93737e-20
8.98991e-20
7.6128e-20
5.26151e-20
3.59605e-20
3.59651e-20
8.81911e-20
4.11949e-19
2.73001e-18
1.93862e-23
3.01649e-22
4.38904e-21
9.80645e-21
8.7505e-21
7.89188e-21
8.79273e-21
1.14869e-20
1.3521e-20
1.3076e-20
1.15231e-20
1.04793e-20
1.10463e-20
1.29268e-20
1.24839e-20
1.14854e-20
9.66937e-21
7.14982e-21
6.23218e-21
1.02312e-20
3.80099e-20
1.99151e-19
1.41009e-18
1.26547e-06
0.101596
0.173393
0.174101
0.74243
0.791087
0.753891
0.419439
0.79035
0.807857
0.772059
0.604845
0.814159
0.87534
0.977015
0.953103
0.964768
0.997882
0.999879
0.999937
0.999992
0.999995
0.999996
0.99997
1
1
0.999999
0.999993
1
0.999998
0.999998
0.999997
0.999999
0.999999
0.999999
0.985697
0.35083
0.1627
0.0636224
0.0560079
-5.64983e-12
-8.72792e-09
-2.72671e-10
-3.62431e-10
8.28988e-08
8.59564e-08
7.42589e-08
6.98169e-08
5.07554e-08
6.49977e-08
7.35251e-08
7.66517e-08
1.19369e-07
8.42511e-08
8.51638e-08
8.24348e-08
1.36383e-07
1.24734e-07
8.43789e-08
8.54121e-08
1.36078e-07
1.04565e-07
8.64885e-08
6.81539e-08
9.81638e-08
8.14034e-08
6.60303e-08
5.25502e-08
5.44859e-08
4.86153e-08
3.575e-08
2.70959e-08
2.47219e-08
2.09098e-08
1.68318e-08
1.26898e-08
1.04502e-08
8.25641e-09
6.499e-09
5.20674e-09
4.88247e-09
4.12184e-09
3.44818e-09
2.80911e-09
3.07169e-09
2.70303e-09
2.28995e-09
1.90155e-09
2.18285e-09
1.96655e-09
1.74453e-09
1.52444e-09
1.45824e-09
1.33054e-09
1.20072e-09
1.05976e-09
8.27247e-10
7.6754e-10
6.83976e-10
6.14841e-10
3.95661e-10
3.55627e-10
3.26202e-10
2.96556e-10
1.63638e-10
1.48639e-10
1.28616e-10
1.14951e-10
6.0451e-11
5.17703e-11
4.50536e-11
3.98768e-11
1.94703e-11
1.66817e-11
1.38533e-11
1.16925e-11
5.65924e-12
4.63738e-12
3.8313e-12
3.16997e-12
1.41618e-12
1.13289e-12
9.0041e-13
7.05661e-13
3.02062e-13
2.34785e-13
1.82614e-13
1.36587e-13
5.35892e-14
4.00615e-14
2.97888e-14
2.11758e-14
7.94712e-15
5.79922e-15
4.17305e-15
2.95116e-15
1.03402e-15
7.35062e-16
5.72824e-16
5.03128e-16
1.36215e-16
1.19039e-16
1.27747e-16
1.71782e-16
3.04117e-17
3.86426e-17
5.995e-17
1.12881e-16
1.36146e-17
2.12073e-17
4.46196e-17
1.13683e-16
8.92709e-18
1.73072e-17
4.75802e-17
1.46842e-16
7.18891e-18
1.82847e-17
5.99877e-17
1.95636e-16
5.59172e-18
1.91557e-17
6.89498e-17
2.20423e-16
4.61185e-18
1.62073e-17
5.37906e-17
1.52964e-16
0.0749352
0.0321393
0.032158
0.255967
0.750603
0.475661
-3.38407e-19
-5.22805e-09
-1.15167e-09
-2.87339e-19
-1.16249e-11
-6.04264e-12
-3.38376e-21
-3.16779e-21
3.71598e-05
6.35512e-05
8.38237e-05
8.50595e-05
0.457007
0.0881448
0.0321783
0.272565
0.809421
0.891367
0.420389
0.0696454
0.163967
0.252812
0.27188
0.256469
0.221585
0.181888
0.13436
0.0454931
5.77814e-05
6.22987e-05
0.000104962
0.0655718
0.543763
0.705395
0.984338
0.998045
0.907907
0.734991
0.763051
0.892155
0.987674
0.991407
0.984208
0.967866
0.947559
0.914677
0.818731
0.594418
0.314165
0.0786662
0.012622
0.958259
0.996438
0.999067
0.99775
0.956734
0.943202
0.992826
0.999997
0.999969
0.999963
0.999987
0.999983
0.99992
0.999757
0.999632
0.999599
0.969823
0.768881
0.46764
0.999948
0.99971
0.999257
0.999458
0.999994
0.999998
1
0.999999
0.999991
0.99999
0.999998
0.999999
0.999971
0.999789
0.999711
0.999712
0.999691
0.9818
0.937999
0.999964
0.999969
0.999996
0.999999
1
1
1
0.999999
0.999999
1
1
1
1
0.999999
0.999992
0.999054
0.997486
0.995183
0.994682
0.99999
0.999994
1
1
1
1
1
1
1
1
1
1
0.999999
0.999919
0.999426
0.999025
0.994291
0.990629
0.990754
0.999998
0.999999
0.999988
0.99737
0.981653
0.951533
0.919206
0.889581
0.863507
0.845881
0.837364
0.832395
0.820061
0.773456
0.730256
0.720335
0.714802
0.676139
0.603354
0.892467
0.747771
0.602299
0.471618
0.343375
0.24613
0.187494
0.146552
0.11648
0.0993411
0.0908442
0.0840871
0.0667765
0.0306273
0.0125675
0.00855536
0.0045732
-1.11845e-09
1.1456e-09
0.0337326
0.00810048
5.70239e-16
1.48753e-24
5.73738e-16
-3.03727e-09
3.06435e-12
2.35909e-11
2.15811e-11
2.43485e-16
-9.41946e-10
2.43486e-16
1.02898e-08
1.66593e-08
2.01024e-14
1.26051e-20
-7.20764e-09
-3.73812e-08
-6.95704e-08
-1.69056e-10
-1.95975e-10
-3.78148e-10
5.24796e-10
3.12433e-07
4.02949e-06
1.38509e-05
2.5292e-05
2.84022e-05
1.22849e-06
3.41241e-05
0.000310459
0.000690988
0.000644344
0.000188802
-1.25395e-07
9.62962e-07
7.6663e-07
6.73265e-07
7.85484e-08
1.64268e-07
4.18636e-07
9.68937e-07
1.31586e-06
1.7316e-06
0.000199144
0.000796499
0.000785612
0.000201834
3.94998e-05
0.000523899
0.00125077
0.00129403
0.000548955
3.03049e-06
1.56369e-06
7.46573e-07
5.92793e-07
8.8225e-08
1.22062e-07
2.45675e-07
3.89377e-07
5.72986e-07
1.26876e-06
0.000200611
0.000990977
0.000979321
0.000938473
3.4464e-05
2.92684e-05
0.000339439
0.000381278
2.89656e-05
1.59731e-06
1.14038e-06
2.11664e-07
4.79895e-07
7.92778e-08
8.75965e-08
1.30637e-07
2.28853e-07
2.92077e-07
3.23048e-07
1.00582e-06
9.94818e-05
0.000547502
0.000434492
7.88491e-05
5.04139e-07
2.93333e-07
2.13564e-07
2.15751e-07
8.34066e-07
2.11398e-07
2.34452e-07
6.28611e-07
7.15829e-08
6.6126e-08
7.60647e-08
1.47744e-07
2.37509e-07
2.06639e-07
2.48353e-07
1.65792e-07
1.34175e-07
9.48523e-08
7.82033e-08
1.31321e-06
5.88497e-07
4.76348e-07
2.46506e-07
5.77215e-08
6.6882e-08
2.503e-07
6.30916e-07
5.71158e-08
5.18848e-08
4.62626e-08
8.12835e-08
1.41064e-07
1.46449e-07
3.64143e-07
5.21063e-07
4.10772e-07
1.23572e-07
7.94493e-08
1.74769e-07
8.12564e-07
8.15042e-07
4.41744e-07
9.35193e-08
6.91052e-08
2.37363e-07
5.37074e-07
3.52333e-08
3.40022e-08
3.62321e-08
5.26511e-08
5.02173e-08
3.44205e-08
3.15194e-07
6.96591e-07
7.32787e-07
3.74136e-07
8.53435e-08
3.95829e-08
4.31964e-07
5.87724e-07
3.20132e-07
8.91235e-08
6.81742e-08
1.34495e-07
3.04457e-07
1.75878e-08
1.83205e-08
2.19281e-08
3.03115e-08
2.97417e-08
2.66278e-08
2.05054e-08
2.7625e-07
4.04411e-07
2.41576e-07
9.95492e-08
4.20753e-08
1.02135e-07
1.56276e-07
6.13198e-08
3.33143e-08
5.48987e-08
6.32572e-08
1.58105e-08
7.97873e-09
8.22091e-09
1.10924e-08
1.48435e-08
2.01491e-08
2.34002e-08
2.04446e-08
1.59959e-08
1.67204e-08
2.43102e-08
3.83359e-08
3.41997e-08
2.07648e-08
1.37763e-08
1.34979e-08
2.07296e-08
3.12873e-08
1.50691e-08
1.60016e-08
3.54614e-09
3.58031e-09
4.93252e-09
7.32173e-09
9.59486e-09
1.35994e-08
1.6387e-08
1.48017e-08
1.67571e-08
1.95094e-08
2.39936e-08
2.39702e-08
1.66014e-08
1.18157e-08
1.26641e-08
1.78574e-08
1.9385e-08
1.5822e-08
1.43545e-08
2.0482e-09
1.92057e-09
2.28428e-09
3.15415e-09
4.59436e-09
6.10049e-09
7.57393e-09
8.99627e-09
1.07769e-08
1.15428e-08
1.15057e-08
1.10208e-08
9.83107e-09
9.03984e-09
9.32063e-09
1.35498e-08
1.34392e-08
1.44799e-08
1.46495e-08
1.47901e-09
1.31527e-09
1.28851e-09
1.44847e-09
1.81044e-09
2.28423e-09
2.88646e-09
3.51912e-09
4.10099e-09
4.15476e-09
3.76119e-09
3.51498e-09
3.90043e-09
4.79221e-09
6.64891e-09
8.25637e-09
1.32676e-08
1.83423e-08
1.50608e-08
1.17059e-09
9.75591e-10
8.61268e-10
7.90449e-10
8.08462e-10
9.57434e-10
1.19589e-09
1.47166e-09
1.81174e-09
2.01807e-09
2.13424e-09
2.35326e-09
2.80748e-09
3.68205e-09
4.85619e-09
8.2932e-09
1.4631e-08
1.87405e-08
2.37321e-08
8.47305e-10
6.91645e-10
5.70799e-10
4.61727e-10
4.05851e-10
3.91121e-10
4.33053e-10
5.31647e-10
6.38354e-10
8.37841e-10
1.05644e-09
1.37778e-09
1.91255e-09
2.85197e-09
4.50534e-09
8.04721e-09
1.72633e-08
3.91612e-08
2.4451e-08
5.11687e-10
4.18454e-10
3.3839e-10
2.60676e-10
2.13861e-10
1.91186e-10
1.97737e-10
2.40934e-10
3.22737e-10
4.66713e-10
6.76836e-10
1.01211e-09
1.56807e-09
2.5448e-09
4.3089e-09
8.7891e-09
2.18357e-08
4.44576e-08
4.91779e-08
2.48621e-10
2.05432e-10
1.59386e-10
1.25577e-10
1.01963e-10
9.31915e-11
1.01549e-10
1.34001e-10
1.97542e-10
3.20963e-10
5.16923e-10
8.45863e-10
1.40373e-09
2.39103e-09
4.32939e-09
9.64826e-09
2.57538e-08
8.06073e-08
4.74095e-08
9.69526e-11
7.96845e-11
6.08708e-11
4.82689e-11
4.14165e-11
4.28462e-11
5.56417e-11
8.56479e-11
1.44004e-10
2.45927e-10
4.43759e-10
7.68684e-10
1.33252e-09
2.31944e-09
4.37343e-09
1.02843e-08
3.44124e-08
7.90854e-08
7.4987e-08
3.19281e-11
2.51415e-11
1.87717e-11
1.54339e-11
1.53423e-11
2.03244e-11
3.3435e-11
6.08479e-11
1.14071e-10
2.11976e-10
4.04223e-10
7.36526e-10
1.31628e-09
2.30931e-09
4.4018e-09
1.19599e-08
3.88146e-08
9.79142e-08
6.66594e-08
8.84376e-12
6.62495e-12
4.93863e-12
4.60002e-12
6.26482e-12
1.14383e-11
2.31959e-11
4.76156e-11
9.70123e-11
1.94969e-10
3.78735e-10
7.39349e-10
1.34538e-09
2.36371e-09
4.27948e-09
1.34349e-08
4.79946e-08
9.5939e-08
6.69024e-08
2.13976e-12
1.5029e-12
1.27127e-12
1.71942e-12
3.41263e-12
7.90499e-12
1.80831e-11
3.9358e-11
8.7858e-11
1.84459e-10
3.82924e-10
7.53156e-10
1.43491e-09
2.50028e-09
4.44122e-09
1.4508e-08
5.28922e-08
1.01186e-07
5.36725e-08
4.38358e-13
3.18502e-13
4.1892e-13
9.52192e-13
2.42909e-12
6.07244e-12
1.52582e-11
3.56049e-11
8.14887e-11
1.80597e-10
3.93273e-10
8.07682e-10
1.53285e-09
2.67232e-09
4.74214e-09
1.56349e-08
6.19555e-08
1.00622e-07
5.30513e-08
7.92757e-14
7.85328e-14
2.07129e-13
6.51176e-13
1.96727e-12
5.24065e-12
1.32569e-11
3.26613e-11
7.87973e-11
1.82646e-10
4.12934e-10
8.68875e-10
1.69564e-09
2.96284e-09
5.37061e-09
1.61729e-08
5.77966e-08
1.0192e-07
2.99117e-08
1.41028e-14
3.24271e-14
1.37605e-13
5.1406e-13
1.6184e-12
4.56788e-12
1.21018e-11
3.11333e-11
7.85257e-11
1.89706e-10
4.38525e-10
9.40801e-10
1.83086e-09
3.38424e-09
5.62036e-09
1.60367e-08
4.55123e-08
4.61079e-08
2.69378e-08
4.62693e-15
2.43547e-14
1.18512e-13
4.44993e-13
1.40269e-12
4.14663e-12
1.15219e-11
3.0797e-11
7.96946e-11
1.97677e-10
4.63189e-10
9.9579e-10
1.98246e-09
3.51791e-09
6.23311e-09
1.54589e-08
2.54508e-08
2.9654e-08
7.90111e-09
3.42492e-15
2.30875e-14
1.07385e-13
3.9979e-13
1.3131e-12
3.9234e-12
1.13528e-11
3.1018e-11
8.09876e-11
2.02909e-10
4.77081e-10
1.0236e-09
2.01139e-09
3.66014e-09
5.84184e-09
1.28505e-08
1.63643e-08
6.77118e-09
7.07612e-09
3.14719e-15
2.13791e-14
9.48094e-14
3.67185e-13
1.226e-12
3.78136e-12
1.10253e-11
3.02531e-11
7.93285e-11
1.99015e-10
4.67668e-10
9.91948e-10
1.94655e-09
3.3598e-09
5.42027e-09
8.64075e-09
6.71054e-09
6.76481e-09
2.28382e-09
3.02732e-15
1.94509e-14
8.70291e-14
3.33865e-13
1.1197e-12
3.49839e-12
1.01932e-11
2.78785e-11
7.30016e-11
1.82227e-10
4.23439e-10
8.90395e-10
1.71784e-09
2.95625e-09
4.17669e-09
6.52548e-09
4.93436e-09
1.97132e-09
1.80187e-09
3.07495e-15
1.7679e-14
7.69037e-14
2.87556e-13
9.64639e-13
2.96146e-12
8.64654e-12
2.34522e-11
6.09719e-11
1.51336e-10
3.49663e-10
7.29005e-10
1.38656e-09
2.26734e-09
3.24675e-09
3.51926e-09
2.32038e-09
1.34648e-09
6.38988e-10
2.85649e-15
1.48052e-14
6.15548e-14
2.21207e-13
7.27064e-13
2.21649e-12
6.37859e-12
1.727e-11
4.46905e-11
1.10324e-10
2.53832e-10
5.22366e-10
9.73522e-10
1.59462e-09
1.95963e-09
2.22997e-09
1.37085e-09
4.63814e-10
3.76148e-10
2.38319e-15
1.07445e-14
4.07619e-14
1.36896e-13
4.34495e-13
1.29032e-12
3.67478e-12
1.0231e-11
2.65425e-11
6.65461e-11
1.54599e-10
3.21398e-10
5.94169e-10
9.70304e-10
1.21632e-09
1.25378e-09
5.87004e-10
2.46077e-10
2.15731e-10
1.50553e-15
5.81901e-15
1.99129e-14
6.33153e-14
1.96029e-13
5.92102e-13
1.73501e-12
4.85547e-12
1.29897e-11
3.34254e-11
7.95247e-11
1.68695e-10
3.09513e-10
5.18217e-10
6.63996e-10
6.19029e-10
2.72281e-10
1.26147e-10
1.05483e-10
5.23554e-16
1.67112e-15
5.14229e-15
1.49886e-14
4.94217e-14
1.63539e-13
5.08403e-13
1.4971e-12
4.20178e-12
1.10653e-11
2.67758e-11
5.82202e-11
1.08416e-10
1.77652e-10
2.33562e-10
2.08874e-10
9.54985e-11
4.32465e-11
2.61807e-11
)
;

boundaryField
{
    leftWall
    {
        type            alphaContactAngle;
        contactAngleProperties 
        {
            mercury         
            {
                theta0          90;
            }
            air             
            {
                theta0          90;
            }
            water           
            {
                theta0          90;
            }
        }
        value           nonuniform List<scalar> 
50
(
1.502e-14
9.73875e-15
6.77775e-15
7.18918e-15
1.23003e-13
8.18303e-13
2.48287e-12
6.30658e-11
2.12269e-09
5.15879e-09
4.83983e-09
-1.10612e-14
0.0191216
0.519928
0.66354
0.00460821
-7.69992e-11
1.458e-06
2.11262e-06
9.01151e-07
4.57648e-07
3.26824e-07
1.81821e-07
7.83945e-08
6.11031e-08
5.35424e-08
4.84171e-08
4.12364e-08
3.32222e-08
2.52614e-08
1.7333e-08
1.2451e-08
7.62188e-09
5.18578e-09
2.82559e-09
1.67569e-09
7.61227e-10
3.70943e-10
1.34245e-10
5.28708e-11
1.1184e-11
3.31055e-12
4.5679e-13
8.24799e-14
9.53769e-15
7.39345e-16
3.8171e-17
1.19886e-18
1.28308e-20
1.93862e-23
)
;
    }
    rightWall
    {
        type            alphaContactAngle;
        contactAngleProperties 
        {
            mercury         
            {
                theta0          90;
            }
            air             
            {
                theta0          90;
            }
            water           
            {
                theta0          90;
            }
        }
        value           nonuniform List<scalar> 
50
(
0.219388
0.219436
0.222976
0.443854
0.47748
0.46809
0.477222
0.482587
0.457007
0.0655718
0.012622
0.46764
0.937999
0.994682
0.990754
0.603354
1.1456e-09
-6.95704e-08
6.73265e-07
5.92793e-07
4.79895e-07
6.28611e-07
6.30916e-07
5.37074e-07
3.04457e-07
1.58105e-08
1.60016e-08
1.43545e-08
1.46495e-08
1.50608e-08
2.37321e-08
2.4451e-08
4.91779e-08
4.74095e-08
7.4987e-08
6.66594e-08
6.69024e-08
5.36725e-08
5.30513e-08
2.99117e-08
2.69378e-08
7.90111e-09
7.07612e-09
2.28382e-09
1.80187e-09
6.38988e-10
3.76148e-10
2.15731e-10
1.05483e-10
2.61807e-11
)
;
    }
    lowerWall
    {
        type            alphaContactAngle;
        contactAngleProperties 
        {
            mercury         
            {
                theta0          90;
            }
            air             
            {
                theta0          90;
            }
            water           
            {
                theta0          90;
            }
        }
        value           nonuniform List<scalar> 
62
(
1.502e-14
1.46262e-13
8.02129e-13
3.07769e-12
8.51221e-12
2.0767e-11
4.40269e-11
8.70297e-11
1.68687e-10
3.29677e-10
5.93389e-10
1.06926e-09
2.01992e-09
3.77985e-09
6.87661e-09
1.20527e-08
1.83664e-08
1.86022e-08
1.86039e-08
0.000173948
0.000436091
0.000567143
0.000567145
0.000567145
0.000219717
7.84268e-09
7.85676e-09
3.32182e-06
4.89037e-05
4.87257e-05
1.75397e-05
1.26547e-06
0.101596
0.173393
0.174101
0.111534
0.406679
0.41508
0.191631
0.00404058
0.0149962
0.0337388
0.0328749
0.111534
0.111311
0.0894267
0.0447337
0.0310771
0.0307573
0.0306724
0.24668
0.301373
0.322426
0.322004
0.329866
0.330224
0.292458
0.098779
0.0705382
0.122563
0.218461
0.219388
)
;
    }
    atmosphere
    {
        type            inletOutlet;
        inletValue      uniform 0;
        value           nonuniform List<scalar> 
46
(
0
0
4.38904e-21
9.80644e-21
8.7505e-21
7.89188e-21
8.79273e-21
1.14869e-20
1.3521e-20
1.3076e-20
1.15231e-20
1.04793e-20
1.10463e-20
1.29268e-20
1.24839e-20
1.14854e-20
9.66937e-21
7.14982e-21
6.23218e-21
1.02312e-20
3.80099e-20
0
0
0
0
0
0
0
0
0
0
0
0
0
0
0
0
0
0
0
0
0
0
0
0
0
)
;
    }
    defaultFaces
    {
        type            empty;
    }
}


// ************************************************************************* //
