/*--------------------------------*- C++ -*----------------------------------*\
  =========                 |
  \\      /  F ield         | OpenFOAM: The Open Source CFD Toolbox
   \\    /   O peration     | Website:  https://openfoam.org
    \\  /    A nd           | Version:  13
     \\/     M anipulation  |
\*---------------------------------------------------------------------------*/
FoamFile
{
    format      ascii;
    class       volScalarField;
    location    "2.1";
    object      alpha.mercury;
}
// * * * * * * * * * * * * * * * * * * * * * * * * * * * * * * * * * * * * * //

dimensions      [];

internalField   nonuniform List<scalar> 
2268
(
1
1
1
1
1
1
1
1
1
1
1
1
1
1
1
1
1
1
1
0.999826
0.999564
0.999433
0.999433
1
1
1
1
1
1
1
1
1
1
1
1
1
1
1
1
1
1
1
1
1
0.999948
0.99978
1
1
1
1
1
1
1
1
1
1
1
1
1
1
1
1
1
1
1
1
1
1
1
1
1
1
1
1
1
1
1
1
1
1
1
1
1
1
1
1
1
1
1
1
1
1
1
1
1
1
1
1
1
1
1
1
1
1
1
1
1
0.999432
0.997137
0.994312
0.992039
0.991211
0.992305
0.994856
0.996563
1
1
1
1
1
1
1
1
1
0.985985
0.934052
0.862529
0.782146
0.702799
0.622564
0.547053
0.492064
0.455257
0.434973
0.430522
0.442636
0.466847
0.465288
1
1
1
1
1
0.996607
0.909879
0.764211
0.570312
0.367919
0.221407
0.121585
0.057008
0.0164208
2.25653e-16
1.19959e-21
7.70752e-22
7.03068e-23
3.59498e-26
-9.19404e-16
-9.51959e-18
6.92192e-27
-6.41196e-25
0.891365
0.916257
0.894609
0.803013
0.632541
0.392108
0.197546
0.0665382
0.00878137
5.72061e-08
1.22219e-08
1.39057e-19
-1.58115e-21
1.23191e-20
1.03673e-11
5.79095e-11
3.60206e-10
2.01364e-10
1.52019e-11
5.8215e-14
4.36941e-22
1.42069e-07
1.2925e-05
0.877558
0.877558
0.877558
0.877558
0.877558
0.877558
0.865208
0.664341
0.633082
0.63362
0.634048
0.62048
0.596769
0.596025
0.682333
0.751341
0.751341
0.751337
0.751338
0.554271
0.559067
0.576086
0.583198
0.597135
0.694086
0.705288
0.801328
0.83159
0.832062
0.832161
0.813136
0.746612
0.750273
0.751338
0.75134
0.751344
0.751344
0.75134
0.155348
0.128953
0.120796
0.122019
0.193706
0.167587
0.199597
0.270632
0.376644
0.528767
0.639381
0.673461
0.664842
0.67147
0.703313
0.71872
0.751344
0.751342
0.751339
0.177443
0.177439
0.122128
0.131517
0.0928205
0.0619725
0.0313838
0.00676523
0.00244802
0.00212052
0.0332916
0.17905
0.263216
0.246047
0.273796
0.333018
0.422058
0.611353
0.540143
0.152212
0.164208
0.152831
0.153158
0.106824
0.0598583
0.0556751
0.0551839
0.0213123
0.00155542
0.000522555
0.003255
0.113844
0.192907
0.191432
0.219157
0.262339
0.238845
0.507267
0.0854011
0.0853956
0.0928218
0.0718267
0.108023
0.107352
0.0915753
0.0908034
0.0485187
0.000935777
0.000493429
2.47152e-05
0.00043938
0.041319
0.0874077
0.0965486
0.143291
0.2267
0.19547
0.0197931
0.0099392
0.0189535
0.0290162
0.07578
0.0991295
0.09806
0.032873
0.00539488
4.47216e-05
4.63832e-05
2.15798e-05
6.7151e-09
4.85785e-12
5.97613e-12
7.41654e-08
0.000431671
0.050134
0.149197
0.00983567
0.00258521
0.00960777
0.01656
0.0420298
0.0778871
0.0418231
5.97892e-06
5.65227e-06
9.407e-05
0.00010143
0.000106419
6.9429e-05
8.99371e-06
1.74397e-06
6.12538e-13
-7.36623e-09
-1.9119e-08
0.0378542
0.121086
0.120574
0.0902743
0.0456729
0.0119879
0.000302329
5.11579e-08
6.93039e-09
4.05519e-15
1.79542e-10
2.23452e-10
1.82823e-10
1.72366e-10
7.76478e-10
6.93649e-10
1.11839e-09
4.93342e-09
3.68214e-09
5.97559e-10
1.71623e-10
2.29238e-11
5.57348e-11
1.94126e-11
3.23443e-10
3.09534e-10
3.19388e-10
3.12505e-10
3.26374e-10
3.11301e-10
1.13107e-09
1.27158e-09
1.72831e-09
1.50734e-09
1.01875e-09
6.88016e-10
4.34405e-10
1.14644e-09
1.24186e-09
1.87657e-09
7.29667e-09
6.85227e-09
1.37787e-09
9.55905e-10
5.43248e-10
-8.89805e-15
0.000124252
3.61801e-10
3.83332e-10
6.10897e-10
8.64623e-10
1.03322e-09
1.4255e-09
1.55431e-09
1.55533e-09
1.45325e-09
1.24477e-09
9.86817e-10
7.3934e-10
5.24727e-10
4.23208e-10
4.23422e-10
5.21445e-10
8.37996e-10
1.11838e-09
1.60129e-09
1.76844e-09
1.17409e-09
1.5743e-11
4.98792e-05
3.85916e-10
4.24237e-10
5.48671e-10
7.28158e-10
8.00601e-10
9.23583e-10
9.29104e-10
9.01236e-10
8.21632e-10
7.79831e-10
7.72007e-10
8.00923e-10
8.99422e-10
1.00088e-09
1.17212e-09
1.51599e-09
1.88044e-09
2.24417e-09
4.17814e-09
8.81166e-09
1.06352e-08
4.64115e-08
6.31998e-07
3.5433e-10
3.76335e-10
4.45226e-10
5.0953e-10
5.53942e-10
5.87541e-10
6.20208e-10
6.7292e-10
7.57312e-10
8.79039e-10
1.06161e-09
1.3272e-09
1.58145e-09
1.74236e-09
1.86929e-09
2.03458e-09
2.08803e-09
2.01445e-09
2.54625e-09
1.15179e-08
1.51879e-08
9.55125e-09
1.08713e-08
4.28489e-10
4.65162e-10
5.0703e-10
5.33965e-10
5.56624e-10
6.12724e-10
6.80448e-10
7.64805e-10
9.24214e-10
1.10503e-09
1.23063e-09
1.3385e-09
1.46106e-09
1.5051e-09
1.57401e-09
1.7892e-09
1.8101e-09
1.34408e-09
1.58345e-09
7.68325e-09
1.0311e-08
1.09318e-08
1.24624e-06
4.6367e-10
4.83484e-10
4.91346e-10
4.80616e-10
4.46047e-10
4.01513e-10
4.22069e-10
4.90147e-10
6.06382e-10
7.20551e-10
8.24703e-10
8.91974e-10
8.92849e-10
8.57891e-10
8.86626e-10
1.06565e-09
1.1175e-09
1.02938e-09
1.04309e-09
4.78038e-09
1.42155e-08
3.72067e-08
1.58985e-07
2.77038e-10
3.41661e-10
4.18343e-10
4.50406e-10
4.33963e-10
3.46893e-10
2.36324e-10
1.85982e-10
1.87063e-10
2.0529e-10
2.44558e-10
2.79077e-10
2.8307e-10
2.80492e-10
3.25635e-10
4.31647e-10
6.23977e-10
1.16071e-09
2.18074e-09
4.53169e-09
8.70581e-09
1.03358e-08
9.45699e-09
1.28165e-10
2.25043e-10
3.46864e-10
4.09925e-10
4.08624e-10
3.58321e-10
2.56474e-10
1.81754e-10
1.37819e-10
1.06716e-10
8.09391e-11
6.11156e-11
5.31067e-11
5.0713e-11
5.06684e-11
7.46018e-11
3.29437e-10
6.69278e-10
9.04306e-10
1.07023e-09
1.53798e-09
2.58031e-09
3.42671e-09
1.00571e-10
2.56548e-10
4.01844e-10
4.18895e-10
3.72367e-10
3.2478e-10
2.71472e-10
2.08589e-10
1.50465e-10
1.08975e-10
7.38364e-11
4.74146e-11
2.31786e-11
1.42912e-11
1.2872e-11
1.54289e-11
7.69835e-11
1.75632e-10
1.76167e-10
1.31246e-10
2.03527e-10
6.674e-10
9.16055e-10
1.05222e-10
3.17819e-10
4.29047e-10
4.18074e-10
3.59507e-10
3.32743e-10
2.9491e-10
2.35618e-10
1.86416e-10
1.36711e-10
8.81879e-11
4.86777e-11
2.38473e-11
1.28582e-11
9.77058e-12
1.00649e-11
1.90546e-11
3.54539e-11
4.09177e-11
3.74808e-11
3.89115e-11
6.266e-11
7.38239e-11
1.09158e-10
3.29352e-10
4.17964e-10
4.14705e-10
3.83028e-10
3.38365e-10
2.88938e-10
2.46676e-10
2.06241e-10
1.59267e-10
1.0547e-10
5.54636e-11
2.56042e-11
1.37831e-11
9.32957e-12
7.78739e-12
8.21251e-12
1.16958e-11
1.49066e-11
1.9498e-11
2.11189e-11
2.13248e-11
2.05296e-11
1.08233e-10
3.12713e-10
3.74522e-10
3.77746e-10
3.44573e-10
2.92324e-10
2.60094e-10
2.35641e-10
2.02758e-10
1.59574e-10
1.12713e-10
7.1271e-11
3.16452e-11
1.59384e-11
1.02052e-11
7.62039e-12
5.78071e-12
5.03887e-12
5.88618e-12
7.97574e-12
1.04197e-11
1.11433e-11
1.09454e-11
1.02148e-10
2.68051e-10
3.09666e-10
2.95852e-10
2.53693e-10
2.34403e-10
2.17845e-10
1.99829e-10
1.79353e-10
1.48365e-10
1.06379e-10
7.26883e-11
3.81304e-11
1.96868e-11
1.26569e-11
8.70052e-12
5.97119e-12
4.26281e-12
3.17482e-12
3.22791e-12
3.3951e-12
3.64082e-12
3.36314e-12
8.94455e-11
2.22451e-10
2.55425e-10
2.47181e-10
2.01266e-10
1.69974e-10
1.64021e-10
1.51427e-10
1.34553e-10
1.16905e-10
8.89e-11
5.86735e-11
3.8091e-11
2.18108e-11
1.45472e-11
9.8841e-12
6.59378e-12
4.41815e-12
2.97487e-12
2.01887e-12
1.44468e-12
1.10197e-12
8.77234e-13
7.22951e-11
1.61558e-10
1.88216e-10
1.78217e-10
1.5608e-10
1.32286e-10
1.18241e-10
1.11687e-10
1.00177e-10
8.26567e-11
6.68947e-11
4.40708e-11
3.10373e-11
2.12747e-11
1.48534e-11
1.00658e-11
6.66004e-12
4.40901e-12
2.96639e-12
1.95222e-12
1.35617e-12
9.51921e-13
6.84348e-13
5.10929e-11
1.08492e-10
1.28379e-10
1.22921e-10
1.08466e-10
9.50464e-11
8.30694e-11
7.26546e-11
6.70594e-11
5.54662e-11
4.51192e-11
3.23901e-11
2.36081e-11
1.76986e-11
1.3032e-11
8.84304e-12
5.91573e-12
3.99243e-12
2.71103e-12
1.73633e-12
1.24624e-12
8.64022e-13
5.92131e-13
3.40132e-11
6.87379e-11
8.09042e-11
7.9486e-11
7.1977e-11
6.30276e-11
5.32767e-11
4.1423e-11
3.353e-11
3.11839e-11
2.67145e-11
2.19257e-11
1.7428e-11
1.27871e-11
9.35053e-12
6.57034e-12
4.55685e-12
2.99235e-12
2.1657e-12
1.45342e-12
1.06038e-12
7.24993e-13
4.88368e-13
2.36825e-11
4.68215e-11
5.44821e-11
5.47134e-11
5.15751e-11
4.11064e-11
3.41577e-11
2.36842e-11
1.73601e-11
1.52409e-11
1.42533e-11
1.35835e-11
1.08543e-11
7.39712e-12
6.07362e-12
4.61822e-12
3.12709e-12
2.10399e-12
1.53713e-12
1.14431e-12
7.82247e-13
5.58766e-13
3.8401e-13
1.68002e-11
3.24715e-11
3.70215e-11
3.62286e-11
3.09101e-11
2.80584e-11
2.24297e-11
1.59726e-11
1.0766e-11
8.77776e-12
7.49109e-12
7.00431e-12
5.50471e-12
4.2754e-12
3.428e-12
2.696e-12
2.04776e-12
1.49822e-12
1.12738e-12
8.30659e-13
6.05468e-13
4.13283e-13
2.92584e-13
1.16793e-11
2.26859e-11
2.55817e-11
2.52417e-11
2.23363e-11
1.9432e-11
1.56929e-11
1.13522e-11
7.66266e-12
5.52146e-12
4.1515e-12
3.54757e-12
2.86274e-12
2.49285e-12
1.98737e-12
1.61954e-12
1.29421e-12
1.03629e-12
8.12962e-13
5.98411e-13
4.42185e-13
3.16074e-13
2.22343e-13
7.91738e-12
1.48885e-11
1.685e-11
1.64835e-11
1.54709e-11
1.34219e-11
1.09611e-11
8.21478e-12
5.69219e-12
3.80305e-12
2.69082e-12
2.11813e-12
1.69012e-12
1.45751e-12
1.20181e-12
9.93794e-13
8.43432e-13
6.98324e-13
5.53892e-13
4.06799e-13
3.04255e-13
2.28417e-13
1.66321e-13
5.02305e-12
9.57982e-12
1.06972e-11
1.03489e-11
9.67466e-12
8.83401e-12
7.48604e-12
5.90776e-12
4.18496e-12
2.77385e-12
1.80247e-12
1.27003e-12
9.75391e-13
8.21023e-13
6.94596e-13
5.92853e-13
5.15547e-13
4.35669e-13
3.51484e-13
2.58499e-13
1.96398e-13
1.52446e-13
1.16054e-13
3.20266e-12
5.85726e-12
6.32808e-12
6.03173e-12
5.54573e-12
5.06257e-12
4.55347e-12
3.82404e-12
2.95492e-12
2.01483e-12
1.26092e-12
7.88107e-13
5.50413e-13
4.38404e-13
3.68779e-13
3.09624e-13
2.82184e-13
2.44907e-13
2.01469e-13
1.48817e-13
1.16064e-13
9.23551e-14
7.25316e-14
1.81287e-12
3.37649e-12
3.50435e-12
3.2236e-12
2.90536e-12
2.68512e-12
2.39511e-12
2.17664e-12
1.87295e-12
1.38767e-12
8.78763e-13
5.26667e-13
3.12715e-13
2.28585e-13
1.84348e-13
1.52995e-13
1.35673e-13
1.20231e-13
1.01201e-13
7.7447e-14
6.16707e-14
4.97648e-14
3.97683e-14
1.07712e-12
1.81876e-12
1.82892e-12
1.59426e-12
1.38428e-12
1.2809e-12
1.15793e-12
1.08875e-12
1.0123e-12
8.42595e-13
5.72771e-13
3.51261e-13
1.94388e-13
1.16644e-13
8.34184e-14
6.84688e-14
5.8227e-14
5.13544e-14
4.43099e-14
3.51513e-14
2.8269e-14
2.31434e-14
1.85864e-14
5.29442e-13
9.10854e-13
8.74393e-13
7.21234e-13
5.98311e-13
5.52681e-13
4.98461e-13
4.66796e-13
4.67416e-13
4.30561e-13
3.11078e-13
2.04537e-13
1.20412e-13
6.5511e-14
3.94938e-14
2.88021e-14
2.30484e-14
1.97202e-14
1.66548e-14
1.37293e-14
1.12824e-14
9.28294e-15
7.36854e-15
2.77621e-13
4.32076e-13
3.80439e-13
2.94755e-13
2.31906e-13
2.1181e-13
1.97431e-13
1.79465e-13
1.82411e-13
1.87908e-13
1.4866e-13
1.04579e-13
6.46517e-14
3.63781e-14
1.96689e-14
1.17618e-14
8.77127e-15
7.157e-15
5.7668e-15
4.78804e-15
3.8812e-15
3.12784e-15
2.49706e-15
1.12309e-13
1.62589e-13
1.50066e-13
1.09423e-13
8.14191e-14
7.46289e-14
6.26627e-14
6.16944e-14
6.2064e-14
6.75197e-14
5.83917e-14
4.37435e-14
2.8289e-14
1.70396e-14
9.71924e-15
4.75782e-15
2.95277e-15
2.19146e-15
1.82353e-15
1.53199e-15
1.14295e-15
9.06556e-16
7.21592e-16
4.90641e-14
6.61738e-14
5.48025e-14
3.78557e-14
2.67441e-14
2.0972e-14
2.0476e-14
1.92228e-14
1.90433e-14
2.11716e-14
1.97161e-14
1.54181e-14
1.07008e-14
6.55919e-15
3.68041e-15
1.90507e-15
9.49927e-16
6.75132e-16
5.34277e-16
4.09234e-16
3.08625e-16
2.32492e-16
1.74921e-16
1.58498e-14
1.92981e-14
1.50455e-14
1.00136e-14
6.80777e-15
6.23372e-15
5.80126e-15
5.42508e-15
5.31726e-15
5.92958e-15
5.83641e-15
4.7237e-15
3.4405e-15
2.16206e-15
1.25368e-15
6.66619e-16
3.00073e-16
1.88774e-16
1.37563e-16
9.85551e-17
7.45671e-17
5.14312e-17
3.78545e-17
5.73269e-15
5.9426e-15
4.42007e-15
2.8355e-15
1.86463e-15
1.56762e-15
1.44986e-15
1.40121e-15
1.36663e-15
1.51084e-15
1.54192e-15
1.27587e-15
8.57563e-16
5.98818e-16
3.53279e-16
1.85868e-16
8.19001e-17
4.56305e-17
3.10916e-17
2.17575e-17
1.46542e-17
1.02222e-17
7.05007e-18
1.08319e-15
1.48682e-15
1.07939e-15
6.70072e-16
4.29404e-16
3.48091e-16
3.26186e-16
2.79961e-16
2.76336e-16
3.04855e-16
3.19172e-16
2.67049e-16
2.09543e-16
1.38072e-16
8.14758e-17
4.17049e-17
1.80389e-17
9.5093e-18
6.09913e-18
3.93516e-18
2.75264e-18
1.68453e-18
1.07994e-18
3.04259e-16
3.13021e-16
1.78965e-16
1.10275e-16
7.01925e-17
5.66518e-17
5.44509e-17
6.0913e-17
6.08046e-17
6.69755e-17
6.95289e-17
5.73714e-17
4.15315e-17
2.70099e-17
1.5593e-17
7.70675e-18
3.23196e-18
1.68378e-18
1.04291e-18
6.38375e-19
3.72547e-19
2.42742e-19
1.42015e-19
3.85559e-17
4.29032e-17
3.38369e-17
2.05243e-17
1.2993e-17
1.04864e-17
1.02507e-17
1.05524e-17
1.08233e-17
1.20744e-17
1.23442e-17
9.99964e-18
7.02971e-18
4.44338e-18
2.51197e-18
1.18171e-18
4.8748e-19
2.57912e-19
1.52674e-19
8.68888e-20
5.40317e-20
2.97485e-20
1.53345e-20
6.6384e-18
6.64406e-18
4.5483e-18
2.78843e-18
1.79066e-18
1.47027e-18
1.48593e-18
1.60061e-18
1.70556e-18
1.91961e-18
1.90421e-18
1.505e-18
1.03038e-18
6.35652e-19
3.51374e-19
1.54534e-19
6.50266e-20
3.47833e-20
2.00952e-20
1.07748e-20
6.00103e-21
3.04816e-21
1.37987e-21
7.31836e-19
7.02666e-19
5.01154e-19
3.15152e-19
2.08272e-19
1.77242e-19
1.87625e-19
2.1334e-19
2.36392e-19
2.68367e-19
2.58032e-19
1.99196e-19
1.35383e-19
8.21361e-20
4.29217e-20
1.79324e-20
7.86645e-21
4.1946e-21
2.27214e-21
1.19525e-21
5.82847e-22
2.49572e-22
1.02243e-22
5.43366e-20
5.95192e-20
4.10379e-20
2.93688e-20
2.06236e-20
1.84849e-20
2.07186e-20
2.49689e-20
2.88813e-20
3.38206e-20
3.16572e-20
2.40474e-20
1.63152e-20
9.68169e-21
4.66519e-21
1.89178e-21
8.74961e-22
4.58216e-22
2.36309e-22
1.09738e-22
4.57026e-23
1.73069e-23
5.62058e-24
2.67e-21
3.60723e-21
2.83246e-21
2.30896e-21
1.7606e-21
1.68661e-21
2.00936e-21
2.58269e-21
3.18662e-21
3.93605e-21
3.59473e-21
2.70027e-21
1.80883e-21
1.03592e-21
4.60665e-22
1.87681e-22
8.99673e-23
4.57701e-23
2.20765e-23
9.21114e-24
3.31921e-24
9.67575e-25
1.38406e-25
8.01198e-23
1.39085e-22
1.45415e-22
1.54027e-22
1.32118e-22
1.36969e-22
1.7481e-22
2.42422e-22
3.28751e-22
4.2779e-22
3.81118e-22
2.83687e-22
1.85335e-22
1.00771e-22
4.22306e-23
1.77877e-23
8.62377e-24
3.84386e-24
1.62281e-24
5.57689e-25
1.87157e-25
3.36697e-26
1.94702e-27
8.18961e-25
2.63729e-24
5.38278e-24
9.17019e-24
8.88082e-24
1.0002e-23
1.37186e-23
2.02296e-23
3.05937e-23
4.12525e-23
3.57789e-23
2.55766e-23
1.6052e-23
8.33483e-24
3.10985e-24
1.31037e-24
6.63041e-25
3.07294e-25
1.25715e-25
4.29019e-26
8.65656e-27
7.06847e-28
1.73677e-28
1.17364e-27
1.78459e-26
2.42341e-25
5.14047e-25
5.37187e-25
6.57195e-25
9.66069e-25
1.51916e-24
2.62831e-24
3.66062e-24
3.10818e-24
2.0974e-24
1.26795e-24
6.50651e-25
2.47989e-25
1.12661e-25
5.7469e-26
2.54378e-26
1.00873e-26
2.86607e-27
3.49337e-28
2.5742e-29
7.01785e-29
0.024442
0.0548979
0.0548977
0.0548809
0.00477521
0.00910911
0.0118763
0.0112979
0.000674737
0.000889326
0.000308814
0.000710386
2.77429e-07
1.44678e-07
0.000357033
0.000910774
4.3922e-06
8.74521e-05
0.000120484
6.25566e-05
4.09136e-06
4.62072e-06
1.44218e-09
1.06292e-09
2.18707e-07
6.38375e-08
1.05123e-09
5.99176e-10
4.33026e-09
2.5666e-09
2.41883e-09
1.67825e-09
2.62546e-09
2.10616e-09
1.93979e-09
2.03561e-09
8.82631e-10
1.01883e-09
1.79716e-09
2.19185e-09
7.91654e-11
1.27456e-10
2.65442e-10
9.58997e-10
1.594e-11
1.46107e-11
1.43193e-11
1.76476e-11
1.07991e-11
1.03684e-11
8.52805e-12
6.37154e-12
2.96468e-12
3.13826e-12
3.46894e-12
3.63959e-12
7.73129e-13
7.5835e-13
9.06628e-13
1.53154e-12
5.83718e-13
5.14841e-13
5.00872e-13
5.8763e-13
4.97032e-13
4.22563e-13
3.72329e-13
3.53806e-13
4.0879e-13
3.4742e-13
2.90353e-13
2.53612e-13
3.2437e-13
2.74102e-13
2.32532e-13
1.99217e-13
2.53371e-13
2.16044e-13
1.82365e-13
1.57708e-13
1.93097e-13
1.67051e-13
1.44335e-13
1.24778e-13
1.43115e-13
1.25555e-13
1.07858e-13
9.2506e-14
9.99443e-14
8.81595e-14
7.69454e-14
6.65658e-14
6.36167e-14
5.60939e-14
4.90607e-14
4.22452e-14
3.51071e-14
3.11077e-14
2.64621e-14
2.2767e-14
1.64443e-14
1.39129e-14
1.20356e-14
1.03274e-14
6.48863e-15
5.54676e-15
4.46556e-15
3.72897e-15
2.19812e-15
1.75804e-15
1.4272e-15
1.18212e-15
6.18761e-16
5.00374e-16
3.88257e-16
3.06851e-16
1.53395e-16
1.18626e-16
9.26649e-17
7.25261e-17
3.22657e-17
2.45807e-17
1.8565e-17
1.37556e-17
5.76574e-18
4.27395e-18
3.17282e-18
2.24447e-18
8.47744e-19
6.05245e-19
4.28561e-19
2.84737e-19
1.02901e-19
7.09427e-20
4.72292e-20
2.9277e-20
1.04015e-20
6.44852e-21
4.09707e-21
2.55615e-21
8.41869e-22
4.95149e-22
2.9849e-22
9.01554e-23
4.86002e-23
1.31712e-23
2.8422e-24
3.62287e-25
5.38608e-25
4.52403e-26
9.83979e-27
8.46521e-27
4.98372e-28
1.06183e-27
2.61803e-27
7.50899e-27
4.79733e-28
9.72628e-28
2.96783e-27
9.46005e-27
2.83348e-28
9.27482e-28
3.27744e-27
1.03179e-26
2.22282e-28
7.68133e-28
2.51365e-27
7.02906e-27
0.01982
0.000164645
0.000392374
0.0203163
0.0416282
0.0193727
1.66502e-05
5.62276e-05
5.93772e-06
6.17215e-05
0.000104073
0.000106701
8.68397e-05
4.30777e-05
1.63131e-05
1.38672e-05
1.25563e-05
5.36049e-06
4.48685e-08
0.00467669
0.000151803
0.0038897
0.00709013
0.00162208
0.000108706
0.000203334
0.000397498
6.23204e-06
7.23929e-07
1.29447e-07
3.96633e-07
4.87176e-06
9.41062e-06
1.36598e-05
7.23704e-05
1.69245e-05
-2.71983e-08
-8.59599e-16
0.000969921
0.000872254
0.000269203
2.86726e-07
1.28658e-05
0.000265862
0.00031875
0.00024435
6.28841e-06
7.18736e-06
1.64556e-07
1.73695e-06
3.43508e-06
8.68814e-06
0.000120465
0.000200483
0.000169101
0.00113211
0.00360686
0.000803779
3.0628e-07
2.86324e-07
3.18719e-07
3.04072e-06
5.19401e-06
1.63293e-05
3.45058e-06
2.85372e-05
6.57104e-06
3.27199e-06
9.36478e-06
1.94675e-05
4.33466e-05
0.000105794
7.98124e-05
0.00026431
0.00467425
0.00797625
3.41394e-05
2.59783e-10
1.90173e-06
6.52818e-06
5.53794e-06
2.2055e-06
2.23069e-07
2.63668e-07
1.55181e-06
1.91422e-09
4.50595e-09
1.91423e-09
4.49501e-09
1.26127e-06
2.21704e-05
5.53902e-05
0.000114457
0.00317561
0.00798759
3.48691e-07
2.86234e-10
1.4513e-09
1.04088e-08
5.9863e-08
7.27421e-08
2.47534e-08
8.40003e-21
8.62255e-11
6.90265e-08
6.32788e-08
3.18178e-08
4.04913e-08
1.34369e-07
5.48593e-08
3.83386e-06
3.26686e-05
0.0005865
0.000996796
3.42356e-10
1.39416e-09
1.13583e-07
1.8622e-07
1.88003e-07
1.49794e-07
2.11096e-08
3.91066e-13
8.46573e-10
3.99892e-09
2.74422e-08
5.52989e-08
2.09815e-07
1.41492e-05
0.000143698
0.000350127
0.000429833
0.000362336
0.000359209
9.17498e-10
1.04793e-08
1.48596e-07
1.87823e-07
7.90914e-08
-1.76541e-33
-9.52253e-15
1.3227e-24
7.09423e-09
4.41183e-07
4.42998e-07
-7.81839e-20
7.03396e-20
0.00103964
0.00268562
0.00278754
0.00251468
0.00192997
0.00164945
3.63288e-09
1.21786e-08
1.42216e-08
1.06071e-08
1.21943e-08
4.91293e-08
2.53215e-07
8.29287e-07
4.87566e-06
3.18585e-05
6.1848e-05
4.169e-05
6.71545e-05
0.00179978
0.00271261
0.00254177
0.00198641
0.00130079
0.000849089
2.28444e-09
2.30562e-09
1.33136e-08
5.06127e-08
2.18404e-07
8.62041e-07
3.00237e-06
8.98045e-06
2.3194e-05
5.15877e-05
9.86343e-05
0.000162995
0.00018711
4.41591e-05
-5.18933e-11
8.47038e-24
-8.79021e-10
-6.99447e-09
-1.6579e-09
2.00184e-09
5.8405e-09
1.31447e-08
1.60072e-08
6.35864e-08
1.34386e-07
1.56587e-07
1.5081e-07
4.14746e-06
1.23541e-05
7.9247e-06
2.35754e-22
2.79222e-09
5.6857e-17
5.19313e-11
-2.68087e-11
2.15129e-08
7.49695e-08
1.34252e-08
2.18162e-11
3.18529e-11
2.39295e-11
-2.55906e-15
1.241e-14
4.72559e-28
2.28157e-14
1.60673e-24
5.80508e-23
3.70834e-22
1.91766e-20
2.25262e-09
3.5423e-08
5.36216e-08
2.51939e-08
1.41345e-08
4.92779e-08
5.50889e-08
2.15973e-09
4.58787e-12
3.52414e-12
3.4056e-12
2.22568e-12
7.43406e-13
6.74302e-13
2.9541e-12
4.47085e-11
2.82741e-10
4.20134e-10
2.58263e-11
3.75619e-08
1.11226e-07
1.12178e-07
5.13079e-08
4.50867e-09
1.82153e-08
1.37925e-08
1.61483e-09
3.50077e-12
1.98973e-12
1.08235e-12
8.1981e-13
1.0893e-12
3.6969e-12
1.54898e-11
1.75487e-10
1.24303e-09
2.78512e-09
4.35976e-09
3.46611e-08
9.59098e-08
7.43091e-08
1.73368e-08
1.07379e-09
8.66421e-11
1.10715e-10
1.23576e-10
2.02046e-12
1.5669e-12
9.24212e-13
8.39523e-13
1.33892e-12
4.61486e-12
5.2417e-11
2.52882e-10
1.42841e-09
3.77729e-09
6.42221e-09
1.09739e-08
2.13678e-08
6.60617e-10
7.35468e-10
1.04358e-09
1.12568e-10
8.39667e-11
1.51801e-10
9.67212e-13
1.01271e-12
1.01743e-12
1.83565e-12
5.46986e-12
3.11621e-11
1.38933e-10
3.41202e-10
1.09778e-09
2.64443e-09
5.01165e-09
1.17668e-08
4.84977e-09
1.22831e-09
1.00565e-09
3.39142e-10
7.25598e-11
6.67703e-11
1.09937e-10
4.66761e-13
1.06445e-12
2.61243e-12
6.52236e-12
2.3749e-11
8.63741e-11
2.31211e-10
4.3588e-10
8.29558e-10
1.32595e-09
2.34041e-09
6.85607e-09
6.97349e-09
4.9499e-09
1.93616e-09
4.04633e-10
4.10783e-11
3.57195e-11
5.80714e-11
3.5948e-13
2.27283e-12
8.28945e-12
2.01398e-11
5.07008e-11
1.12093e-10
2.30793e-10
4.49784e-10
7.15762e-10
1.01059e-09
1.47956e-09
1.44445e-09
2.73561e-09
2.25165e-09
8.92545e-10
1.99836e-10
1.20113e-11
1.38857e-11
1.79594e-11
3.22182e-13
2.65714e-12
1.06769e-11
2.82397e-11
6.52624e-11
1.00822e-10
1.79348e-10
3.71147e-10
5.80984e-10
7.97188e-10
8.75937e-10
5.81031e-10
2.75706e-10
1.27168e-10
5.94173e-11
1.521e-11
4.09931e-12
4.95553e-12
8.08867e-12
2.47269e-13
1.85003e-12
7.85804e-12
2.13144e-11
4.4546e-11
8.42189e-11
1.40877e-10
2.16051e-10
3.2323e-10
4.01255e-10
4.11625e-10
3.23225e-10
1.78974e-10
8.49568e-11
1.50858e-11
1.87743e-12
1.82641e-12
2.9235e-12
2.29424e-12
1.7144e-13
9.63089e-13
4.19709e-12
1.07662e-11
2.27457e-11
4.09254e-11
6.53196e-11
9.26129e-11
1.2364e-10
1.43276e-10
1.44651e-10
1.25181e-10
8.46204e-11
4.77166e-11
1.0266e-11
1.1393e-12
7.83596e-13
8.40675e-13
9.88696e-13
1.1099e-13
3.9586e-13
1.41055e-12
3.83089e-12
7.44863e-12
1.26187e-11
1.96437e-11
2.75486e-11
3.42512e-11
3.83941e-11
3.49557e-11
2.94379e-11
1.77289e-11
5.19527e-12
6.39516e-13
2.22531e-13
3.23413e-13
2.07227e-13
1.08678e-13
6.85187e-14
1.47275e-13
3.69632e-13
8.30101e-13
1.81976e-12
3.30364e-12
4.95074e-12
6.74583e-12
8.52176e-12
9.08706e-12
8.67197e-12
6.99775e-12
3.88868e-12
9.76271e-13
1.10722e-13
9.39118e-14
5.13988e-14
2.08657e-14
1.58182e-14
3.88138e-14
5.07444e-14
8.56829e-14
1.42301e-13
2.57735e-13
4.94004e-13
8.17827e-13
1.08764e-12
1.248e-12
1.38459e-12
1.33178e-12
1.09681e-12
6.07137e-13
1.44053e-13
2.80126e-14
1.42181e-14
5.88959e-15
2.68742e-15
7.55302e-16
1.91203e-14
1.86774e-14
1.94585e-14
2.3799e-14
3.48071e-14
5.95261e-14
1.02353e-13
1.35282e-13
1.63312e-13
1.80818e-13
1.78246e-13
1.54751e-13
9.09613e-14
2.28835e-14
6.01244e-15
1.74814e-15
7.12859e-16
2.28629e-16
1.05137e-16
8.16891e-15
6.74488e-15
5.44933e-15
4.88154e-15
5.10296e-15
6.3184e-15
8.86299e-15
1.1365e-14
1.433e-14
1.75368e-14
1.86168e-14
1.73112e-14
1.08981e-14
2.85702e-15
8.13239e-16
1.99862e-16
7.83586e-17
7.61346e-17
4.74809e-17
2.88722e-15
2.24792e-15
1.62181e-15
1.2067e-15
9.29402e-16
7.18674e-16
7.15313e-16
8.1372e-16
1.03493e-15
1.27866e-15
1.59236e-15
1.55268e-15
1.03568e-15
3.19607e-16
5.36631e-17
2.51845e-17
3.50832e-17
5.14319e-17
2.94502e-17
8.60292e-16
6.28287e-16
4.26468e-16
3.04035e-16
2.05705e-16
1.20055e-16
8.06072e-17
6.79055e-17
7.27732e-17
9.13822e-17
1.1519e-16
1.16877e-16
8.45034e-17
3.33304e-17
8.99083e-18
9.90638e-18
1.84474e-17
3.32684e-17
1.86752e-17
2.10471e-16
1.43287e-16
8.98707e-17
6.04297e-17
3.62763e-17
1.86975e-17
1.29812e-17
9.1283e-18
6.36069e-18
6.33493e-18
6.84651e-18
7.02817e-18
3.92204e-18
2.17431e-18
2.97722e-18
4.5739e-18
9.45206e-18
1.79761e-17
1.41191e-17
4.40941e-17
2.6854e-17
1.59912e-17
9.78285e-18
3.67896e-18
1.71232e-18
1.31256e-18
1.07868e-18
7.37276e-19
4.54397e-19
4.27312e-19
2.85679e-19
2.02833e-19
3.34234e-19
8.99686e-19
2.05676e-18
4.86543e-18
1.22058e-17
8.76458e-18
7.55831e-18
4.23569e-18
2.45666e-18
9.13647e-19
2.15726e-19
7.08822e-20
6.92122e-20
6.88395e-20
6.05335e-20
4.23016e-20
3.42837e-20
5.19845e-20
9.82602e-20
2.04158e-19
4.59356e-19
1.12708e-18
2.88509e-18
7.42685e-18
6.4542e-18
1.08867e-18
6.13563e-19
2.21837e-19
4.92212e-20
5.12582e-21
1.82775e-21
2.68597e-21
4.21632e-21
6.58323e-21
1.15617e-20
2.34438e-20
4.79295e-20
9.64736e-20
1.86469e-19
3.64933e-19
8.03852e-19
2.03429e-18
5.15692e-18
3.34338e-18
1.31361e-19
6.32567e-20
1.25678e-20
9.18452e-22
1.90486e-22
3.17405e-22
7.68455e-22
1.90113e-21
4.60053e-21
1.06005e-20
2.35054e-20
4.92531e-20
9.60611e-20
1.78619e-19
3.10055e-19
7.00582e-19
1.64197e-18
2.60897e-18
2.25774e-18
1.45294e-20
2.99769e-21
2.29999e-22
4.87487e-23
9.11947e-23
2.48233e-22
6.76853e-22
1.77242e-21
4.44015e-21
1.06053e-20
2.38417e-20
4.98613e-20
9.51597e-20
1.64591e-19
2.84071e-19
5.928e-19
1.12012e-18
1.77537e-18
1.01304e-18
9.47171e-22
6.6848e-23
1.12753e-23
2.46289e-23
7.59074e-23
2.23259e-22
6.34745e-22
1.69194e-21
4.24285e-21
1.00147e-20
2.25231e-20
4.679e-20
8.65996e-20
1.51462e-19
2.59838e-19
4.8386e-19
7.8886e-19
8.51265e-19
6.39249e-19
1.17235e-23
2.09788e-24
5.53451e-24
2.03306e-23
6.68549e-23
2.02721e-22
5.78907e-22
1.54462e-21
3.90641e-21
9.33884e-21
2.10359e-20
4.33053e-20
8.009e-20
1.36509e-19
2.26017e-19
3.52252e-19
4.89382e-19
5.40192e-19
2.51407e-19
2.31456e-25
1.05282e-24
4.59739e-24
1.73426e-23
5.6989e-23
1.74331e-22
4.9585e-22
1.31984e-21
3.32929e-21
7.93644e-21
1.77099e-20
3.62104e-20
6.62951e-20
1.13134e-19
1.72688e-19
2.59218e-19
3.16934e-19
2.37031e-19
1.41194e-19
1.5843e-25
8.96829e-25
3.82455e-24
1.39619e-23
4.56954e-23
1.36729e-22
3.88594e-22
1.02205e-21
2.56451e-21
6.09352e-21
1.35416e-20
2.75323e-20
5.0229e-20
8.26877e-20
1.26609e-19
1.60427e-19
1.62018e-19
1.34183e-19
4.94306e-20
1.3974e-25
7.10663e-25
2.8779e-24
1.00439e-23
3.20764e-23
9.50472e-23
2.65236e-22
6.94501e-22
1.73262e-21
4.10056e-21
9.07637e-21
1.82439e-20
3.31812e-20
5.47818e-20
7.33816e-20
9.72198e-20
8.70459e-20
4.89935e-20
2.50775e-20
1.11737e-25
4.90429e-25
1.79917e-24
5.83447e-24
1.79056e-23
5.14546e-23
1.41726e-22
3.8079e-22
9.50629e-22
2.28862e-21
5.1171e-21
1.03874e-20
1.8999e-20
3.12672e-20
4.10306e-20
5.16901e-20
3.52729e-20
2.22548e-20
1.35623e-20
6.82007e-26
2.55198e-25
8.41682e-25
2.57439e-24
7.67885e-24
2.23462e-23
6.31842e-23
1.69987e-22
4.36771e-22
1.0782e-21
2.46552e-21
5.08732e-21
9.28666e-21
1.55274e-20
2.02259e-20
2.36416e-20
1.39209e-20
1.00049e-20
6.51256e-21
2.33816e-26
7.20688e-26
2.13075e-25
5.94673e-25
1.88012e-24
5.96555e-24
1.78312e-23
5.03373e-23
1.35179e-22
3.40495e-22
7.8961e-22
1.66325e-21
3.08303e-21
5.01269e-21
6.56865e-21
7.34339e-21
4.36156e-21
3.0573e-21
1.62806e-21
)
;

boundaryField
{
    leftWall
    {
        type            alphaContactAngle;
        contactAngleProperties 
        {
            air             
            {
                theta0          90;
            }
            water           
            {
                theta0          90;
            }
            oil             
            {
                theta0          90;
            }
        }
        value           nonuniform List<scalar> 
50
(
1
1
1
1
1
1
1
0.891365
0.121086
3.23443e-10
3.61801e-10
3.85916e-10
3.5433e-10
4.28489e-10
4.6367e-10
2.77038e-10
1.28165e-10
1.00571e-10
1.05222e-10
1.09158e-10
1.08233e-10
1.02148e-10
8.94455e-11
7.22951e-11
5.10929e-11
3.40132e-11
2.36825e-11
1.68002e-11
1.16793e-11
7.91738e-12
5.02305e-12
3.20266e-12
1.81287e-12
1.07712e-12
5.29442e-13
2.77621e-13
1.12309e-13
4.90641e-14
1.58498e-14
5.73269e-15
1.08319e-15
3.04259e-16
3.85559e-17
6.6384e-18
7.31836e-19
5.43366e-20
2.67e-21
8.01198e-23
8.18961e-25
1.17364e-27
)
;
    }
    rightWall
    {
        type            alphaContactAngle;
        contactAngleProperties 
        {
            air             
            {
                theta0          90;
            }
            water           
            {
                theta0          90;
            }
            oil             
            {
                theta0          90;
            }
        }
        value           nonuniform List<scalar> 
50
(
0.751338
0.75134
0.751339
0.540143
0.507267
0.19547
0.149197
0.0378542
4.48685e-08
-8.59599e-16
0.00360686
0.00797625
0.00798759
0.000996796
0.000359209
0.00164945
0.000849089
-1.6579e-09
1.34252e-08
2.15973e-09
1.61483e-09
1.23576e-10
1.51801e-10
1.09937e-10
5.80714e-11
1.79594e-11
8.08867e-12
2.29424e-12
9.88696e-13
1.08678e-13
1.58182e-14
7.55302e-16
1.05137e-16
4.74809e-17
2.94502e-17
1.86752e-17
1.41191e-17
8.76458e-18
6.4542e-18
3.34338e-18
2.25774e-18
1.01304e-18
6.39249e-19
2.51407e-19
1.41194e-19
4.94306e-20
2.50775e-20
1.35623e-20
6.51256e-21
1.62806e-21
)
;
    }
    lowerWall
    {
        type            alphaContactAngle;
        contactAngleProperties 
        {
            air             
            {
                theta0          90;
            }
            water           
            {
                theta0          90;
            }
            oil             
            {
                theta0          90;
            }
        }
        value           nonuniform List<scalar> 
62
(
1
1
1
1
1
1
1
1
1
1
1
1
1
1
1
1
1
1
1
0.999826
0.999564
0.999433
0.999433
0.999433
0.99978
1
1
0.996563
0.465288
-6.41196e-25
1.2925e-05
0.024442
0.0548979
0.0548977
0.0548809
0.877558
0.554271
0.155348
0.177443
0.152212
0.0854011
0.0197931
0.00983567
0.877558
0.877558
0.877558
0.877558
0.877558
0.877558
0.865208
0.664341
0.633082
0.63362
0.634048
0.62048
0.596769
0.596025
0.682333
0.751341
0.751341
0.751337
0.751338
)
;
    }
    atmosphere
    {
        type            inletOutlet;
        inletValue      uniform 0;
        value           nonuniform List<scalar> 
46
(
0
0
2.42341e-25
5.14046e-25
5.37187e-25
6.57195e-25
9.66069e-25
1.51916e-24
2.62831e-24
3.66062e-24
3.10818e-24
2.0974e-24
1.26795e-24
6.50651e-25
2.47989e-25
1.12661e-25
5.7469e-26
2.54378e-26
1.00873e-26
2.86607e-27
3.49337e-28
0
0
0
0
0
0
0
0
0
0
0
0
0
0
0
0
0
0
0
0
0
0
0
0
0
)
;
    }
    defaultFaces
    {
        type            empty;
    }
}


// ************************************************************************* //
