/*--------------------------------*- C++ -*----------------------------------*\
  =========                 |
  \\      /  F ield         | OpenFOAM: The Open Source CFD Toolbox
   \\    /   O peration     | Website:  https://openfoam.org
    \\  /    A nd           | Version:  13
     \\/     M anipulation  |
\*---------------------------------------------------------------------------*/
FoamFile
{
    format      ascii;
    class       volScalarField;
    location    "2.1";
    object      alpha.water;
}
// * * * * * * * * * * * * * * * * * * * * * * * * * * * * * * * * * * * * * //

dimensions      [];

internalField   nonuniform List<scalar> 
2268
(
5.82045e-11
8.73135e-11
1.05614e-10
1.11045e-10
1.17802e-10
1.25433e-10
1.32864e-10
1.41807e-10
1.55901e-10
1.79508e-10
2.04541e-10
2.33525e-10
2.8095e-10
3.48056e-10
4.25985e-10
5.25877e-10
6.74425e-10
9.78762e-10
1.53925e-09
2.28714e-09
2.70485e-09
2.77849e-09
2.77887e-09
1.54515e-10
2.35001e-10
2.06391e-10
2.21889e-10
2.58184e-10
3.08476e-10
3.68279e-10
4.23855e-10
4.75445e-10
5.22547e-10
5.75222e-10
6.34142e-10
6.56822e-10
6.61419e-10
6.94168e-10
7.70143e-10
9.18209e-10
1.18431e-09
1.48214e-09
1.93238e-09
2.37493e-09
2.54548e-09
2.34056e-09
3.21145e-10
3.85569e-10
3.17502e-10
3.24649e-10
3.8391e-10
4.77193e-10
5.94568e-10
7.3226e-10
8.82841e-10
1.04992e-09
1.18991e-09
1.24282e-09
1.16206e-09
9.25905e-10
8.53288e-10
7.69525e-10
1.45153e-09
1.57159e-09
1.67446e-09
1.98018e-09
2.29954e-09
2.72052e-09
1.28103e-09
3.29396e-10
3.78493e-10
3.03878e-10
3.05294e-10
3.49538e-10
4.26283e-10
5.45225e-10
6.92508e-10
9.81094e-10
1.38726e-09
1.60754e-09
1.59868e-09
1.2672e-09
6.43489e-10
9.00646e-10
4.72634e-10
7.70044e-10
4.72404e-10
1.58094e-09
1.68282e-09
1.85463e-09
1.26494e-09
1.27845e-09
2.74683e-10
2.66687e-10
2.47431e-10
2.49645e-10
2.38996e-10
2.9286e-10
5.36237e-10
1.29764e-09
5.01791e-11
3.33432e-11
2.01891e-11
6.3336e-12
1.18604e-12
4.5563e-15
1.58393e-10
0.000568025
0.0028627
0.00568704
0.0079602
0.00878716
0.00769086
0.00514142
0.00343249
2.15056e-10
2.14609e-10
2.12056e-10
2.11354e-10
2.12615e-10
2.1893e-10
2.45289e-10
6.10184e-09
1.76833e-09
0.0140146
0.0659477
0.137471
0.217854
0.297201
0.377436
0.452947
0.507934
0.544736
0.564982
0.56931
0.556966
0.53249
0.533915
2.15488e-10
2.14828e-10
2.14626e-10
4.11487e-08
1.12322e-09
0.00339306
0.0901207
0.235789
0.429688
0.632081
0.778593
0.878415
0.942992
0.983579
1
0.999999
0.999995
0.999976
0.999895
0.999697
0.999306
0.998725
0.998609
0.108635
0.0837427
0.105391
0.196987
0.367459
0.607892
0.802454
0.933462
0.991219
1
1
1
1
1
1
0.999999
0.999996
0.999981
0.999971
0.999956
0.999927
0.999875
0.999517
0.0105778
0.0107829
0.0276299
0.0587003
0.0645526
0.05295
0.0422754
0.02055
0.00133473
0.000777435
0.000755549
0.000737008
0.000600473
0.0161972
0.122403
0.124914
0.112046
0.0161616
0.0152345
0.0354763
0.0437439
0.0485999
0.0548228
0.123115
0.228734
0.259568
0.162854
0.121375
0.0914723
0.031094
0.00154579
0.000589777
0.0101293
0.0786569
0.122791
0.105839
0.01689
0.0151959
0.413398
0.482446
0.355079
0.244633
0.167714
0.30071
0.648237
0.725486
0.623352
0.461303
0.170959
0.0226582
0.00632153
0.00136824
0.00848756
0.0277358
0.0299057
0.0130051
0.0116793
0.615393
0.793659
0.808757
0.62554
0.274137
0.214108
0.455187
0.88406
0.995662
0.997038
0.695803
0.24339
0.0241465
0.0010201
0.00101906
0.00109755
0.00101904
0.00200557
0.00199538
0.82822
0.816105
0.827484
0.823219
0.345899
0.181541
0.182024
0.545753
0.969596
0.997981
0.912653
0.423244
0.0884224
0.00129683
0.0010191
0.00101905
0.00101909
0.00102065
0.00124511
0.884075
0.884094
0.884015
0.856819
0.311013
0.103077
0.111248
0.641796
0.949543
0.999064
0.99002
0.656975
0.185863
0.113226
0.062504
0.243333
0.159104
0.00102099
0.00102166
0.884283
0.884243
0.884166
0.785742
0.126411
0.0815014
0.372445
0.96361
0.994352
0.999347
0.998927
0.966475
0.760835
0.455627
0.432892
0.631488
0.695745
0.358494
0.00231364
0.884191
0.884164
0.883989
0.650449
0.0520814
0.136787
0.843194
0.99956
0.99973
0.999762
0.999833
0.99983
0.996993
0.94671
0.900444
0.934221
0.973241
0.952617
0.260148
0.878914
0.879426
0.909726
0.954327
0.988012
0.999698
1
1
1
1
1
1
1
1
1
1
1
0.999999
0.999999
0.999999
0.999998
0.999998
0.996
1
1
1
1
1
1
1
1
1
1
1
1
1
1
1
1
1
0.999999
0.995723
0.978059
0.958469
0.945099
0.824398
1
1
1
0.999965
1
1
1
1
1
1
1
1
1
0.99948
0.989854
0.975638
0.961253
0.918621
0.842283
0.76575
0.478948
0.167707
0.0914321
0.999011
0.998745
0.996479
0.996577
0.997391
0.999607
0.99968
0.999327
0.996812
0.988104
0.976984
0.963078
0.936189
0.870275
0.783116
0.672734
0.504047
0.346334
0.173002
0.056748
0.0115321
5.16595e-06
0.000498484
0.852766
0.846817
0.803628
0.754693
0.685551
0.616432
0.641653
0.690215
0.694112
0.663411
0.555792
0.443721
0.348677
0.245893
0.119669
0.037656
0.00875933
1.80945e-05
2.6049e-19
2.28992e-18
1.64754e-14
1.31782e-09
3.16768e-05
0.259245
0.180002
0.0574929
0.0195604
0.0196248
0.0219382
0.0214838
0.0344239
0.0484651
0.0419635
0.0186809
0.00158336
1.52947e-18
1.00059e-18
-2.84624e-19
-8.47431e-20
1.19247e-20
-6.85388e-20
-5.81506e-18
5.59302e-12
6.19221e-10
2.45237e-06
7.68156e-06
-5.29542e-09
-5.29396e-25
1.78648e-27
1.50349e-22
5.24405e-24
7.43403e-05
0.000137849
8.47121e-11
-3.55762e-18
-5.21834e-20
2.72522e-05
-2.89296e-22
3.98715e-13
1.80531e-11
2.17011e-11
1.7961e-17
2.08428e-28
1.55729e-19
2.0436e-12
2.57591e-08
5.5866e-08
8.30172e-08
-1.03688e-09
-1.25666e-08
6.3755e-07
9.17697e-05
0.000120371
4.25981e-05
1.23992e-07
1.04245e-07
8.71096e-08
1.18561e-07
1.5704e-07
2.22625e-07
4.40464e-07
1.84718e-12
5.29954e-10
8.32628e-09
1.82734e-08
3.4236e-08
4.97219e-08
5.14568e-08
5.18387e-08
3.76929e-07
5.0691e-07
3.23367e-07
-2.41694e-08
-5.00583e-09
1.16696e-11
6.08059e-07
1.0279e-05
1.04037e-05
6.71843e-06
7.29774e-07
1.47177e-07
1.75648e-07
9.04469e-08
2.49601e-07
2.4011e-07
3.21816e-07
2.14597e-10
1.28778e-08
6.56184e-08
1.27826e-07
1.82683e-07
1.98872e-07
1.86638e-07
2.34337e-07
4.75109e-07
-1.30792e-08
1.54365e-08
6.8947e-08
3.58959e-06
1.01216e-05
6.94687e-06
2.23054e-06
4.28592e-07
5.2309e-08
3.91721e-08
1.26532e-09
1.559e-08
2.85681e-07
2.82803e-07
1.02315e-10
8.01782e-09
3.9005e-08
1.15184e-07
2.07159e-07
2.0267e-07
6.03408e-08
1.58953e-15
4.34548e-08
1.52301e-09
4.2347e-08
5.72213e-07
1.8025e-06
3.03652e-06
1.22628e-06
8.80602e-08
8.9879e-09
4.2388e-09
6.14861e-10
1.37453e-09
1.72283e-08
1.56582e-07
2.89468e-07
5.39567e-10
1.89116e-09
1.19421e-08
2.46539e-08
6.6032e-08
7.63303e-08
1.25282e-08
2.08395e-19
1.00988e-13
1.87108e-08
5.18277e-08
1.56497e-07
1.73689e-07
5.97409e-09
1.78176e-10
1.85929e-10
3.11004e-10
6.82887e-09
6.97001e-07
1.56326e-06
9.47358e-07
6.80539e-09
2.35223e-08
2.17828e-08
1.87526e-09
2.12962e-09
3.06842e-09
7.75634e-09
1.22348e-08
8.96131e-09
2.90121e-09
9.2088e-10
2.56947e-08
1.04323e-08
4.45592e-09
3.97055e-09
5.72708e-09
1.83736e-10
1.56726e-10
9.88121e-10
2.273e-07
1.61829e-06
3.09043e-06
3.17344e-06
1.30528e-06
7.19035e-10
1.89e-09
8.13745e-10
2.02036e-08
4.8714e-08
2.91728e-08
8.06121e-09
3.56528e-09
3.22468e-09
3.05082e-09
2.53555e-08
1.14724e-08
7.51535e-09
3.99296e-09
8.10119e-10
3.89836e-10
2.22203e-10
2.26331e-10
1.28354e-07
1.19937e-06
3.04587e-06
3.17501e-06
3.17641e-06
1.31266e-06
4.00582e-07
3.10169e-07
1.78174e-07
1.72139e-07
5.14503e-08
2.0391e-08
6.37424e-09
3.28354e-09
3.04889e-09
2.082e-08
9.62965e-09
9.05111e-09
6.48473e-09
8.55245e-10
3.69654e-10
3.1035e-10
2.11673e-10
3.19999e-09
2.15281e-07
1.37702e-06
3.17343e-06
3.17166e-06
2.76064e-06
2.33566e-06
2.38174e-06
1.89481e-06
4.56038e-07
9.55913e-08
3.44226e-08
1.42454e-08
6.47262e-09
5.99877e-09
1.55598e-08
5.54359e-09
5.6792e-09
4.26869e-09
2.15726e-09
8.81493e-10
5.63661e-10
4.77517e-10
5.22606e-10
4.7767e-10
7.89827e-08
1.53764e-06
2.85559e-06
3.12878e-06
2.79541e-06
2.50609e-06
1.61134e-06
4.85737e-07
1.23887e-07
3.78083e-08
2.91532e-08
2.67605e-08
2.33522e-08
1.58627e-08
3.55768e-09
3.4965e-09
3.175e-09
2.24293e-09
1.53853e-09
1.10504e-09
1.15548e-09
1.45284e-09
1.77273e-09
1.34666e-08
2.58599e-07
9.19992e-07
1.47541e-06
9.47361e-07
6.85637e-07
4.93386e-07
2.69557e-07
1.06638e-07
2.36508e-08
2.60468e-08
2.70121e-08
2.35423e-08
1.69939e-08
3.10485e-09
2.57573e-09
2.70395e-09
2.18775e-09
1.68096e-09
1.38385e-09
1.4738e-09
2.08896e-09
3.40239e-09
6.45825e-09
5.27925e-08
1.80083e-07
1.95318e-07
9.71172e-08
7.53518e-08
1.03956e-07
7.81656e-08
5.96189e-08
2.4863e-08
2.22401e-08
2.11037e-08
1.79786e-08
1.78372e-08
3.24923e-09
2.3009e-09
2.53923e-09
2.16151e-09
1.71661e-09
1.36064e-09
1.20549e-09
1.54095e-09
2.45137e-09
3.7982e-09
8.27418e-09
1.34406e-08
9.65837e-09
2.29447e-08
2.76653e-08
2.66506e-08
2.39276e-08
2.17876e-08
1.5428e-08
1.39248e-08
1.3569e-08
1.20707e-08
1.8222e-08
3.61111e-09
2.15769e-09
2.36184e-09
2.05021e-09
1.68704e-09
1.31604e-09
9.95395e-10
9.13726e-10
1.21768e-09
1.71438e-09
2.08571e-09
1.23681e-09
2.14461e-09
3.92216e-09
8.25567e-09
1.13538e-08
1.16073e-08
9.76256e-09
7.67239e-09
7.37014e-09
7.66272e-09
7.17371e-09
1.82485e-08
4.19211e-09
2.12724e-09
2.20583e-09
1.92365e-09
1.59721e-09
1.27731e-09
9.40873e-10
6.79942e-10
5.91796e-10
5.82079e-10
7.15274e-10
8.24981e-10
1.48458e-09
2.20926e-09
3.79209e-09
4.94743e-09
5.40492e-09
4.50922e-09
3.66769e-09
3.43946e-09
3.68712e-09
3.82666e-09
1.77834e-08
5.43098e-09
2.08041e-09
2.04074e-09
1.7532e-09
1.43735e-09
1.17087e-09
8.97393e-10
6.44093e-10
4.40239e-10
3.24476e-10
3.15533e-10
4.17318e-10
7.19716e-10
1.1161e-09
1.61416e-09
2.12016e-09
2.1457e-09
1.80621e-09
1.4901e-09
1.4035e-09
1.54806e-09
1.76268e-09
1.67716e-08
6.89457e-09
2.32015e-09
1.90466e-09
1.56452e-09
1.2332e-09
9.99917e-10
7.9818e-10
5.98718e-10
4.18769e-10
2.72309e-10
1.88663e-10
1.85247e-10
2.71035e-10
4.14009e-10
5.78606e-10
7.43222e-10
7.14265e-10
6.07648e-10
5.13964e-10
4.96661e-10
5.75425e-10
7.01281e-10
1.52264e-08
7.05066e-09
2.8484e-09
1.82324e-09
1.37428e-09
1.00689e-09
7.89228e-10
6.26629e-10
4.98012e-10
3.73676e-10
2.55169e-10
1.59445e-10
1.07719e-10
1.03608e-10
1.29788e-10
1.58783e-10
2.10946e-10
2.04234e-10
1.78858e-10
1.56353e-10
1.55685e-10
1.88077e-10
2.39139e-10
1.2951e-08
6.78136e-09
3.1671e-09
1.73293e-09
1.18084e-09
8.03919e-10
5.83092e-10
4.52049e-10
3.63934e-10
2.90314e-10
2.14716e-10
1.44071e-10
8.41724e-11
5.73132e-11
4.84894e-11
4.82029e-11
5.46993e-11
5.45011e-11
5.01004e-11
4.61869e-11
4.69772e-11
5.59016e-11
6.98483e-11
1.15796e-08
6.17179e-09
3.1041e-09
1.58688e-09
9.84565e-10
6.13783e-10
4.13689e-10
3.07406e-10
2.3824e-10
1.93328e-10
1.54076e-10
1.12719e-10
7.05598e-11
4.18095e-11
2.61137e-11
1.94072e-11
1.669e-11
1.58772e-11
1.52653e-11
1.45704e-11
1.46212e-11
1.63223e-11
1.90427e-11
9.46803e-09
5.32999e-09
2.78777e-09
1.37723e-09
7.87897e-10
4.5474e-10
2.73433e-10
1.93131e-10
1.4438e-10
1.12997e-10
9.01898e-11
7.09214e-11
5.04432e-11
3.13759e-11
1.7784e-11
1.0772e-11
7.12273e-12
5.78098e-12
5.24581e-12
5.08568e-12
5.06901e-12
5.26023e-12
5.48972e-12
7.93742e-09
4.36453e-09
2.27609e-09
1.11493e-09
5.94368e-10
3.22165e-10
1.76045e-10
1.12776e-10
7.9699e-11
6.06479e-11
4.78891e-11
3.81494e-11
2.88609e-11
1.98064e-11
1.18856e-11
6.37833e-12
3.68647e-12
2.53946e-12
2.02752e-12
1.89703e-12
1.81591e-12
1.77045e-12
1.72943e-12
5.50815e-09
3.06957e-09
1.66429e-09
8.14736e-10
4.12391e-10
2.14774e-10
1.02431e-10
6.03615e-11
3.97273e-11
2.86426e-11
2.20909e-11
1.7439e-11
1.32442e-11
9.8157e-12
6.73332e-12
3.52246e-12
1.77944e-12
1.04867e-12
7.88268e-13
7.03607e-13
6.14905e-13
5.78503e-13
5.46941e-13
3.92925e-09
2.10787e-09
1.09337e-09
5.29785e-10
2.58433e-10
1.19846e-10
5.78682e-11
2.97394e-11
1.79181e-11
1.22622e-11
9.11189e-12
6.98865e-12
5.37739e-12
3.97375e-12
2.75522e-12
1.68383e-12
7.54509e-13
4.22781e-13
2.87968e-13
2.29146e-13
1.97342e-13
1.7683e-13
1.57498e-13
2.17344e-09
1.12762e-09
5.71647e-10
2.73765e-10
1.28816e-10
6.16483e-11
2.80394e-11
1.31321e-11
7.22051e-12
4.66588e-12
3.33636e-12
2.4953e-12
1.91718e-12
1.402e-12
9.98695e-13
6.48082e-13
2.96892e-13
1.48847e-13
9.19752e-14
6.78058e-14
5.83718e-14
4.80775e-14
4.16932e-14
1.21013e-09
5.63533e-10
2.74509e-10
1.27742e-10
5.8102e-11
2.61135e-11
1.1448e-11
5.11762e-12
2.59633e-12
1.57737e-12
1.08298e-12
7.91432e-13
5.46897e-13
4.25561e-13
3.03474e-13
1.97303e-13
9.47918e-14
4.33821e-14
2.53184e-14
1.84308e-14
1.44317e-14
1.18953e-14
9.62079e-15
4.08961e-10
2.24795e-10
1.07588e-10
4.87314e-11
2.1409e-11
9.28262e-12
3.99103e-12
1.52377e-12
7.39903e-13
4.23113e-13
2.78774e-13
1.97501e-13
1.51556e-13
1.09861e-13
7.70471e-14
4.88661e-14
2.36e-14
1.05317e-14
5.9848e-15
4.20458e-15
3.40857e-15
2.4904e-15
1.87145e-15
1.58197e-10
7.39238e-11
2.99548e-11
1.34655e-11
5.77136e-12
2.44441e-12
1.01607e-12
4.46809e-13
2.04292e-13
1.11707e-13
7.08469e-14
4.86023e-14
3.44628e-14
2.43418e-14
1.65146e-14
1.00987e-14
4.70248e-15
2.13355e-15
1.24706e-15
8.64207e-16
6.10288e-16
4.63882e-16
3.1456e-16
3.21837e-11
1.63939e-11
7.96629e-12
3.48127e-12
1.46813e-12
6.12421e-13
2.50099e-13
1.017e-13
4.53756e-14
2.3966e-14
1.46995e-14
9.78139e-15
6.68749e-15
4.57044e-15
3.02588e-15
1.75418e-15
7.82792e-16
3.73886e-16
2.26094e-16
1.53275e-16
1.13046e-16
7.33365e-17
4.39494e-17
7.31071e-12
3.40899e-12
1.53783e-12
6.70121e-13
2.82412e-13
1.17539e-13
4.79816e-14
1.94655e-14
8.60486e-15
4.391e-15
2.60494e-15
1.6878e-15
1.12993e-15
7.56513e-16
4.88408e-16
2.6189e-16
1.15278e-16
5.88818e-17
3.74176e-17
2.46944e-17
1.62995e-17
9.70758e-18
5.15228e-18
1.06279e-12
5.05969e-13
2.34131e-13
1.03294e-13
4.37974e-14
1.86195e-14
7.75707e-15
3.17433e-15
1.39669e-15
6.94179e-16
4.0225e-16
2.57154e-16
1.7252e-16
1.14005e-16
6.92221e-17
3.46387e-17
1.56489e-17
8.59156e-18
5.46596e-18
3.50189e-18
2.04346e-18
1.02928e-18
5.00761e-19
1.04167e-13
5.68516e-14
2.57558e-14
1.26535e-14
5.65328e-15
2.48433e-15
1.07025e-15
4.40723e-16
1.96324e-16
9.76041e-17
5.61859e-17
3.59555e-17
2.42091e-17
1.56603e-17
8.78357e-18
4.17666e-18
2.02059e-18
1.17564e-18
7.3699e-19
4.20162e-19
2.08948e-19
9.39244e-20
3.55001e-20
7.08335e-15
4.54716e-15
2.36316e-15
1.2801e-15
6.17483e-16
2.85698e-16
1.2725e-16
5.43021e-17
2.47352e-17
1.25518e-17
7.2504e-18
4.6709e-18
3.11708e-18
1.94936e-18
1.01874e-18
4.79004e-19
2.50427e-19
1.50292e-19
8.94745e-20
4.56537e-20
1.96747e-20
6.61455e-21
1.15764e-21
2.91334e-16
2.26845e-16
1.47901e-16
1.06706e-16
5.85506e-17
2.92023e-17
1.35838e-17
6.14258e-18
2.89635e-18
1.49847e-18
8.71432e-19
5.65806e-19
3.70634e-19
2.21374e-19
1.10121e-19
5.35956e-20
3.0075e-20
1.68189e-20
8.83276e-21
3.66734e-21
1.41713e-21
2.91004e-22
1.87624e-23
4.29863e-18
5.71329e-18
7.07291e-18
7.90895e-18
4.95029e-18
2.67722e-18
1.30725e-18
6.13467e-19
3.01523e-19
1.58092e-19
9.21828e-20
5.8234e-20
3.70025e-20
2.15044e-20
9.66451e-21
4.92123e-21
3.04602e-21
1.76272e-21
8.8297e-22
3.56662e-22
8.12973e-23
7.53328e-24
2.15428e-25
1.01715e-20
6.11877e-20
4.15311e-19
5.52834e-19
3.81246e-19
2.23361e-19
1.14357e-19
5.5931e-20
2.92153e-20
1.55443e-20
9.12194e-21
5.55329e-21
3.46074e-21
2.02797e-21
9.72659e-22
5.58514e-22
3.54339e-22
1.94819e-22
9.05217e-23
2.86622e-23
3.96714e-24
1.93951e-25
3.03524e-27
0.963238
0.832175
0.749043
0.710607
0.225061
0.0415648
0.0481086
0.383103
0.0230647
0.00520527
0.0414777
0.208294
0.00023108
0.00224453
0.00583146
0.00332415
0.000199826
0.000105524
1.82557e-08
4.00628e-07
3.77307e-06
2.23106e-10
8.84743e-08
1.44879e-05
-4.55627e-10
5.17587e-10
2.25384e-07
5.21277e-06
2.11088e-07
1.50205e-06
2.46332e-06
3.02322e-06
6.37313e-07
6.77699e-07
7.40743e-07
1.58313e-06
1.02813e-07
7.32915e-08
2.55489e-08
1.88121e-08
-3.30489e-14
4.1896e-13
1.35056e-10
1.85076e-09
1.57672e-10
1.89569e-10
2.13187e-10
2.254e-10
1.89565e-09
8.26615e-10
4.74477e-10
4.32403e-10
2.88062e-09
2.19819e-09
1.62923e-09
1.11265e-09
5.52117e-09
5.00029e-09
3.7535e-09
3.0958e-09
2.19114e-08
1.71369e-08
1.34945e-08
9.91366e-09
2.181e-08
1.86818e-08
1.54534e-08
1.31603e-08
1.67153e-08
1.54064e-08
1.25766e-08
1.09606e-08
1.13626e-08
1.02511e-08
9.08697e-09
8.15165e-09
6.89997e-09
6.1637e-09
5.54934e-09
5.17514e-09
3.7268e-09
3.51232e-09
3.28576e-09
3.08643e-09
1.86714e-09
1.79668e-09
1.70021e-09
1.61287e-09
8.07853e-10
8.11235e-10
7.87098e-10
7.6382e-10
2.88409e-10
2.87728e-10
2.88089e-10
2.86957e-10
8.49431e-11
8.60873e-11
8.20016e-11
8.1049e-11
2.18035e-11
2.06122e-11
2.02319e-11
2.03211e-11
5.70405e-12
5.45847e-12
4.96503e-12
4.82306e-12
1.68217e-12
1.50273e-12
1.39873e-12
1.34697e-12
5.1002e-13
4.59409e-13
4.09422e-13
3.72107e-13
1.491e-13
1.29665e-13
1.1419e-13
1.00896e-13
3.84223e-14
3.26184e-14
2.76148e-14
2.31139e-14
8.53521e-15
7.06787e-15
5.83281e-15
4.6313e-15
1.59397e-15
1.25873e-15
9.84875e-16
7.32881e-16
2.48271e-16
1.87936e-16
1.37978e-16
9.56787e-17
3.25906e-17
2.24654e-17
1.58073e-17
1.10182e-17
3.49066e-18
2.28939e-18
1.51995e-18
5.68379e-19
2.7127e-19
9.3568e-20
2.47608e-20
4.38542e-21
5.11363e-21
6.03542e-22
1.12742e-22
8.34151e-24
2.09577e-24
3.13683e-26
2.85877e-26
1.16371e-26
4.70657e-29
1.76761e-28
5.99744e-28
1.96506e-27
3.48916e-29
1.99105e-28
6.89065e-28
2.15912e-27
3.48916e-29
1.62209e-28
5.21844e-28
1.46164e-27
0.802727
0.878442
0.841443
0.546012
0.0300637
0.327266
0.909448
0.994418
0.995028
0.997619
0.998795
0.999284
0.999623
0.999851
0.999897
0.999897
0.999897
0.998794
0.541955
0.721054
0.789727
0.544934
0.0258848
0.0159654
0.403267
0.761097
0.745605
0.733088
0.72644
0.741679
0.777123
0.817416
0.865209
0.954082
0.99971
0.999897
0.999872
0.934404
0.269109
0.152029
0.00778077
0.0008649
0.021254
0.0931098
0.0713332
0.0420595
0.0123193
0.00857152
0.0157741
0.0319495
0.0522094
0.0851488
0.180921
0.405157
0.685639
0.896004
0.925057
1.52919e-05
3.03469e-05
0.000513208
0.000853842
0.000391008
5.29396e-25
1.09432e-09
-1.02065e-11
7.39921e-22
-2.59062e-25
9.56067e-25
9.56031e-25
5.72521e-24
-4.09628e-24
2.47658e-06
0.000177764
0.0297912
0.183989
0.440892
1.75918e-05
2.96547e-05
1.59318e-05
1.00068e-07
9.58918e-08
9.50856e-08
6.53721e-08
4.83628e-08
7.41301e-08
2.02012e-07
4.63993e-07
4.47088e-07
2.27271e-07
6.87709e-08
7.61745e-06
5.78949e-05
5.63129e-05
5.88247e-05
0.000474846
2.06439e-05
1.9303e-05
1.00601e-06
5.04399e-07
2.71548e-07
9.70643e-08
3.71626e-10
6.59443e-08
8.31615e-08
5.92971e-08
5.94128e-08
1.23504e-07
1.00914e-07
4.54643e-07
3.33047e-08
6.88932e-06
0.00107942
0.00272983
0.00269986
8.39281e-06
6.02743e-06
1.40507e-07
4.68135e-19
7.16488e-29
4.00985e-36
1.44495e-42
6.85552e-13
2.99418e-10
1.62805e-09
3.65582e-08
7.0817e-08
6.9345e-07
6.65124e-05
0.00043019
0.000631111
0.000795883
0.0014735
0.00231082
2.05836e-06
1.48713e-06
4.3483e-08
3.29477e-21
8.63221e-25
6.99699e-26
7.28129e-26
3.21925e-24
1.58105e-08
1.00179e-06
6.35149e-22
-1.65581e-19
3.69127e-05
0.00479162
0.00967167
0.00987438
0.00823804
0.00622029
0.0053424
7.77585e-07
7.94727e-10
3.57772e-10
2.62341e-09
2.50167e-08
1.60951e-07
7.1189e-07
2.19703e-06
1.49379e-05
0.000103201
0.000188708
0.000161573
0.000537889
0.0078367
0.0101301
0.00932097
0.00720683
0.00470504
0.00300548
5.93026e-09
3.7689e-10
3.25318e-08
1.39039e-07
6.00955e-07
2.42526e-06
8.71521e-06
2.69648e-05
7.28415e-05
0.000177585
0.000380554
0.000673366
0.000756263
0.000104243
-1.3342e-11
0
-4.22392e-10
-5.80049e-10
2.20754e-09
4.63358e-09
1.48539e-08
3.3524e-08
3.74964e-08
1.57436e-07
4.02795e-07
5.37945e-07
3.90706e-07
4.66011e-06
4.57702e-05
4.84983e-05
0
1.13876e-09
-9.60506e-26
1.3342e-11
6.71994e-10
2.41131e-09
5.95327e-09
2.35419e-09
2.25207e-10
2.13281e-10
9.38046e-11
1.27203e-12
2.22211e-12
1.31537e-12
1.50041e-13
1.65307e-18
1.04792e-18
1.65308e-18
9.75334e-18
-2.37752e-15
1.62629e-08
1.03431e-08
4.93607e-09
9.42183e-09
9.24852e-09
3.70118e-09
2.36555e-09
3.95893e-10
3.2735e-10
2.00182e-10
1.2414e-10
6.43486e-11
2.96728e-11
2.25219e-11
3.96793e-11
1.1434e-10
1.7116e-10
8.3718e-10
3.4216e-08
7.24828e-08
3.80776e-08
6.00696e-09
6.95598e-09
8.74855e-09
2.13692e-09
2.13901e-09
8.7222e-10
6.45121e-10
3.32939e-10
1.62109e-10
9.87417e-11
7.56977e-11
6.96194e-11
1.26168e-10
3.85187e-10
6.90587e-10
2.67367e-09
3.91409e-08
7.53157e-08
3.66976e-08
5.60869e-09
3.05712e-10
1.19466e-09
9.56951e-11
1.02491e-09
2.2455e-09
1.73157e-09
6.32035e-10
2.05281e-10
9.03903e-11
7.36048e-11
7.44242e-11
1.41456e-10
4.09402e-10
8.71828e-10
2.34047e-09
1.20644e-08
3.36175e-08
5.50858e-09
2.16762e-09
2.90597e-10
4.94467e-11
5.39157e-11
8.44917e-10
6.25915e-09
3.47432e-09
8.47303e-10
2.58961e-10
9.35172e-11
7.43007e-11
8.58366e-11
1.47886e-10
3.40132e-10
5.84687e-10
1.65759e-09
7.38682e-09
1.87769e-10
2.96161e-10
2.94079e-10
1.51838e-10
3.9643e-11
5.16921e-11
5.78325e-10
9.10098e-09
4.66961e-09
9.54176e-10
2.12807e-10
1.38174e-10
8.58609e-11
9.92901e-11
1.5105e-10
2.54819e-10
3.95064e-10
9.34899e-10
1.14446e-09
1.08319e-09
9.47656e-10
4.30878e-10
1.16955e-10
1.83739e-11
3.24144e-11
3.61208e-10
8.66186e-09
5.03981e-09
1.26781e-09
2.66675e-10
1.28824e-10
1.0113e-10
1.03117e-10
1.39468e-10
2.02403e-10
3.01474e-10
5.40304e-10
2.71171e-10
3.56433e-10
4.73142e-10
2.68089e-10
6.48048e-11
5.87409e-12
1.9177e-11
1.59873e-10
6.71724e-09
4.76404e-09
1.8702e-09
6.18844e-10
1.88517e-10
1.05278e-10
1.06565e-10
1.30338e-10
1.71319e-10
2.26452e-10
2.53285e-10
1.90508e-10
9.09343e-11
3.37069e-11
9.46148e-12
2.09791e-12
2.36661e-12
9.14623e-12
8.74861e-11
4.45547e-09
3.6146e-09
2.19973e-09
1.16566e-09
5.51723e-10
2.21291e-10
1.29772e-10
1.18173e-10
1.20374e-10
1.25945e-10
1.17427e-10
9.14664e-11
5.47879e-11
2.85341e-11
5.97153e-12
1.23388e-12
1.38871e-12
5.88309e-12
2.70453e-11
2.70791e-09
2.34449e-09
1.84876e-09
1.27255e-09
8.16775e-10
4.58383e-10
2.29039e-10
1.20108e-10
8.09808e-11
6.36362e-11
4.91107e-11
3.80697e-11
2.36151e-11
1.29541e-11
2.85513e-12
6.56015e-13
6.23922e-13
1.88571e-12
1.29851e-11
1.50209e-09
1.35177e-09
1.18909e-09
9.80929e-10
7.23958e-10
4.96854e-10
3.00079e-10
1.55871e-10
7.19885e-11
3.64137e-11
2.25343e-11
1.43411e-11
6.67355e-12
2.00672e-12
4.59546e-13
2.09311e-13
2.84028e-13
4.86816e-13
1.79551e-12
7.45334e-10
6.98121e-10
6.25584e-10
5.41133e-10
4.70864e-10
3.6067e-10
2.48431e-10
1.50288e-10
7.64723e-11
3.28229e-11
1.32853e-11
5.51016e-12
2.1484e-12
6.73465e-13
1.77627e-13
1.10713e-13
4.88793e-14
4.70869e-14
3.05252e-13
2.94652e-10
2.92792e-10
2.71206e-10
2.39554e-10
2.10347e-10
1.82454e-10
1.47523e-10
1.00817e-10
5.84653e-11
2.71965e-11
9.81597e-12
3.05193e-12
8.90262e-13
2.56676e-13
8.54373e-14
2.75008e-14
7.10317e-15
8.17727e-15
1.19933e-14
8.8797e-11
9.50718e-11
8.94434e-11
8.29482e-11
7.60481e-11
6.8391e-11
6.07615e-11
4.80306e-11
3.2854e-11
1.75941e-11
6.71235e-12
1.87483e-12
4.40632e-13
1.07956e-13
3.45623e-14
6.05187e-15
1.75214e-15
1.23838e-15
1.43167e-15
2.22773e-11
2.38796e-11
2.22911e-11
2.17498e-11
2.10996e-11
2.00607e-11
1.85819e-11
1.63751e-11
1.31269e-11
8.40109e-12
3.60319e-12
1.00339e-12
1.99914e-13
3.89916e-14
9.37599e-15
1.25575e-15
6.35498e-16
6.76019e-16
4.0336e-16
5.2098e-12
5.18247e-12
4.78102e-12
4.6519e-12
4.58801e-12
4.52821e-12
4.485e-12
4.34152e-12
3.8773e-12
2.73112e-12
1.38659e-12
4.14002e-13
7.41785e-14
1.17788e-14
1.25033e-15
2.61256e-16
3.29203e-16
4.30575e-16
2.23323e-16
1.28016e-12
1.15289e-12
9.97469e-13
9.05822e-13
8.48428e-13
8.48866e-13
8.80963e-13
8.93745e-13
8.52911e-13
6.86134e-13
3.84228e-13
1.2153e-13
2.05386e-14
2.73159e-15
2.41374e-16
1.03487e-16
1.5234e-16
2.63928e-16
1.42034e-16
3.19562e-13
2.62761e-13
2.05281e-13
1.68877e-13
1.39732e-13
1.29113e-13
1.36133e-13
1.4438e-13
1.41877e-13
1.20219e-13
6.83227e-14
2.20799e-14
2.5735e-15
2.43155e-16
5.27954e-17
3.98597e-17
7.07634e-17
1.36083e-16
1.04728e-16
7.5967e-14
5.62758e-14
4.12029e-14
3.07407e-14
1.76609e-14
1.36722e-14
1.4376e-14
1.59497e-14
1.61882e-14
1.42857e-14
8.44295e-15
1.82662e-15
1.15255e-16
7.05633e-18
8.17195e-18
1.34797e-17
3.22947e-17
8.88694e-17
6.25468e-17
1.57537e-14
1.07934e-14
7.60695e-15
4.08667e-15
1.58288e-15
7.34601e-16
8.16399e-16
1.05049e-15
1.16093e-15
1.07047e-15
4.48645e-16
6.94894e-17
2.3611e-18
3.98674e-19
1.31746e-18
5.04467e-18
1.67179e-17
5.10819e-17
4.48172e-17
2.77628e-15
1.87905e-15
9.55736e-16
3.4913e-16
6.86147e-17
1.77498e-17
2.38824e-17
3.72252e-17
4.4749e-17
3.61776e-17
1.54099e-17
1.77893e-18
7.38207e-20
1.42469e-19
6.28438e-19
2.75447e-18
1.05745e-17
3.36811e-17
2.16641e-17
4.14453e-16
2.42979e-16
7.62323e-17
1.23427e-17
8.89727e-19
1.9743e-19
4.29221e-19
9.04246e-19
1.15979e-18
6.64606e-19
1.65254e-19
2.30436e-20
2.87121e-20
8.28296e-20
3.49032e-19
2.10725e-18
7.92308e-18
1.5117e-17
1.38992e-17
5.63277e-17
1.67947e-17
2.3747e-18
1.42117e-19
6.09847e-21
2.44406e-21
6.23447e-21
1.55153e-20
1.69089e-20
1.23415e-20
8.3033e-21
1.31878e-20
2.41763e-20
6.11997e-20
2.73963e-19
1.56835e-18
4.61229e-18
9.44737e-18
5.4941e-18
4.7792e-18
5.09276e-19
1.82156e-20
5.45922e-22
1.14186e-22
1.24783e-22
2.55469e-22
6.36447e-22
1.24642e-21
2.55053e-21
5.66359e-21
1.19082e-20
2.18893e-20
5.432e-20
2.37009e-19
1.09496e-18
2.74051e-18
3.75188e-18
3.16453e-18
9.41336e-20
3.37644e-21
5.29406e-23
1.19275e-23
1.97157e-23
4.94524e-23
1.36464e-22
3.65452e-22
9.37775e-22
2.29197e-21
5.29547e-21
1.10685e-20
2.04277e-20
4.84371e-20
1.90835e-19
6.53994e-19
1.38416e-18
2.05477e-18
9.96692e-19
5.16003e-22
9.45011e-24
1.6198e-24
3.98019e-24
1.27338e-23
3.93492e-23
1.13464e-22
3.07278e-22
7.91596e-22
1.93265e-21
4.42152e-21
9.20632e-21
1.69137e-20
3.91962e-20
1.28983e-19
4.10089e-19
7.67414e-19
6.70618e-19
4.6926e-19
7.05799e-25
2.63885e-25
8.39243e-25
3.05428e-24
1.0099e-23
3.05942e-23
8.8249e-23
2.36134e-22
6.04895e-22
1.47138e-21
3.35025e-21
6.94578e-21
1.27789e-20
2.76693e-20
8.56293e-20
2.20201e-19
3.16087e-19
3.0383e-19
1.15086e-19
3.12322e-26
1.52298e-25
6.20605e-25
2.18364e-24
7.04376e-24
2.11251e-23
5.97973e-23
1.59212e-22
4.05137e-22
9.80828e-22
2.22234e-21
4.55583e-21
8.38202e-21
1.79072e-20
4.24328e-20
1.21656e-19
1.34805e-19
8.07602e-20
4.18495e-20
2.36286e-26
1.04354e-25
3.85332e-25
1.25877e-24
3.89948e-24
1.13381e-23
3.16771e-23
8.65418e-23
2.20171e-22
5.41849e-22
1.23919e-21
2.56545e-21
4.76592e-21
1.00317e-20
2.12718e-20
5.69079e-20
4.27252e-20
2.72246e-20
1.66707e-20
1.43388e-26
5.39208e-26
1.78824e-25
5.50682e-25
1.65806e-24
4.8827e-24
1.40071e-23
3.83148e-23
1.00299e-22
2.52935e-22
5.91271e-22
1.24406e-21
2.31133e-21
4.87186e-21
9.66208e-21
2.22496e-20
1.3319e-20
9.65646e-21
5.64084e-21
4.87939e-27
1.5097e-26
4.48482e-26
1.2596e-25
4.02588e-25
1.29406e-24
3.9264e-24
1.12727e-23
3.08369e-23
7.92946e-23
1.87859e-22
4.03455e-22
7.61936e-22
1.53848e-21
2.93526e-21
5.9426e-21
3.56148e-21
2.36745e-21
9.73954e-22
)
;

boundaryField
{
    leftWall
    {
        type            alphaContactAngle;
        contactAngleProperties 
        {
            mercury         
            {
                theta0          90;
            }
            air             
            {
                theta0          90;
            }
            oil             
            {
                theta0          90;
            }
        }
        value           nonuniform List<scalar> 
50
(
5.82045e-11
1.54515e-10
3.21145e-10
3.29396e-10
2.74683e-10
2.15056e-10
2.15488e-10
0.108635
0.878914
1
1
0.999011
0.852766
0.259245
-5.29542e-09
-1.25666e-08
-2.41694e-08
-1.30792e-08
1.52301e-09
1.87108e-08
2.56947e-08
2.53555e-08
2.082e-08
1.55598e-08
1.58627e-08
1.69939e-08
1.78372e-08
1.8222e-08
1.82485e-08
1.77834e-08
1.67716e-08
1.52264e-08
1.2951e-08
1.15796e-08
9.46803e-09
7.93742e-09
5.50815e-09
3.92925e-09
2.17344e-09
1.21013e-09
4.08961e-10
1.58197e-10
3.21837e-11
7.31071e-12
1.06279e-12
1.04167e-13
7.08335e-15
2.91334e-16
4.29863e-18
1.01715e-20
)
;
    }
    rightWall
    {
        type            alphaContactAngle;
        contactAngleProperties 
        {
            mercury         
            {
                theta0          90;
            }
            air             
            {
                theta0          90;
            }
            oil             
            {
                theta0          90;
            }
        }
        value           nonuniform List<scalar> 
50
(
0.0152345
0.0151959
0.0116793
0.00199538
0.00124511
0.00102166
0.00231364
0.260148
0.541955
0.934404
0.925057
0.440892
0.000474846
0.00269986
0.00231082
0.0053424
0.00300548
2.20754e-09
2.35419e-09
2.36555e-09
2.13901e-09
1.02491e-09
8.44917e-10
5.78325e-10
3.61208e-10
1.59873e-10
8.74861e-11
2.70453e-11
1.29851e-11
1.79551e-12
3.05252e-13
1.19933e-14
1.43167e-15
4.0336e-16
2.23323e-16
1.42034e-16
1.04728e-16
6.25468e-17
4.48172e-17
2.16641e-17
1.38992e-17
5.4941e-18
3.16453e-18
9.96692e-19
4.6926e-19
1.15086e-19
4.18495e-20
1.66707e-20
5.64084e-21
9.73954e-22
)
;
    }
    lowerWall
    {
        type            alphaContactAngle;
        contactAngleProperties 
        {
            mercury         
            {
                theta0          90;
            }
            air             
            {
                theta0          90;
            }
            oil             
            {
                theta0          90;
            }
        }
        value           nonuniform List<scalar> 
62
(
5.82045e-11
8.73135e-11
1.05614e-10
1.11045e-10
1.17802e-10
1.25433e-10
1.32864e-10
1.41807e-10
1.55901e-10
1.79508e-10
2.04541e-10
2.33525e-10
2.8095e-10
3.48056e-10
4.25985e-10
5.25877e-10
6.74425e-10
9.78762e-10
1.53925e-09
2.28714e-09
2.70485e-09
2.77849e-09
2.77887e-09
2.77887e-09
2.34056e-09
1.28103e-09
1.27845e-09
0.00343249
0.533915
0.998609
0.999517
0.963238
0.832175
0.749043
0.710607
0.0105778
0.0354763
0.413398
0.615393
0.82822
0.884075
0.884283
0.884191
0.0105778
0.0107829
0.0276299
0.0587003
0.0645526
0.05295
0.0422754
0.02055
0.00133473
0.000777435
0.000755549
0.000737008
0.000600473
0.0161972
0.122403
0.124914
0.112046
0.0161616
0.0152345
)
;
    }
    atmosphere
    {
        type            inletOutlet;
        inletValue      uniform 0;
        value           nonuniform List<scalar> 
46
(
0
0
4.15311e-19
5.52834e-19
3.81246e-19
2.23361e-19
1.14357e-19
5.5931e-20
2.92153e-20
1.55443e-20
9.12194e-21
5.55329e-21
3.46074e-21
2.02797e-21
9.72659e-22
5.58514e-22
3.54339e-22
1.94819e-22
9.05217e-23
2.86622e-23
3.96714e-24
0
0
0
0
0
0
0
0
0
0
0
0
0
0
0
0
0
0
0
0
0
0
0
0
0
)
;
    }
    defaultFaces
    {
        type            empty;
    }
}

