/*--------------------------------*- C++ -*----------------------------------*\
  =========                 |
  \\      /  F ield         | OpenFOAM: The Open Source CFD Toolbox
   \\    /   O peration     | Website:  https://openfoam.org
    \\  /    A nd           | Version:  13
     \\/     M anipulation  |
\*---------------------------------------------------------------------------*/
FoamFile
{
    format      ascii;
    class       volScalarField;
    location    "2.1";
    object      alphas;
}
// * * * * * * * * * * * * * * * * * * * * * * * * * * * * * * * * * * * * * //

dimensions      [];

internalField   nonuniform List<scalar> 
2268
(
2
2
2
2
2
2
2
2
2
2
2
2
2
2
2
2
2
2
2
1.99983
1.99956
1.99943
1.99943
2
2
2
2
2
2
2
2
2
2
2
2
2
2
2
2
2
2
2
2
2
1.99995
1.99978
2
2
2
2
2
2
2
2
2
2
2
2
2
2
2
2
2
2
2
2
2
2
2
2
2
2
2
2
2
2
2
2
2
2
2
2
2
2
2
2
2
2
2
2
2
2
2
2
2
2
2
2
2
2
2
2
2
2
2
2
2
1.99886
1.99427
1.98863
1.98408
1.98243
1.98462
1.98972
1.99313
2
2
2
2
2
2
2
2
2
1.97197
1.8681
1.72506
1.56429
1.4056
1.24513
1.09411
0.984132
0.91053
0.870075
0.861541
0.88645
0.935617
0.932868
2
2
2
2
2
1.99321
1.81976
1.52842
1.14062
0.735839
0.442815
0.24317
0.114016
0.0328416
3.92227e-07
2.40619e-06
1.33826e-05
7.08397e-05
0.000309092
0.000900367
0.00204062
0.00372996
0.00407666
1.78273
1.83251
1.78922
1.60603
1.26508
0.784215
0.395092
0.133076
0.0175627
1.17394e-07
2.97173e-08
1.08005e-08
3.15493e-08
1.28414e-07
5.55327e-07
2.38018e-06
1.13582e-05
5.65072e-05
8.58398e-05
0.000127554
0.00019391
0.000365316
0.00140198
1.86764
1.86747
1.8607
1.85687
1.86663
1.90208
1.94662
1.78065
1.76017
1.7192
1.71968
1.71758
1.74098
1.77047
1.7529
1.73284
1.66739
1.76326
1.76418
1.52594
1.52412
1.53486
1.53324
1.47517
1.46605
1.44641
1.64213
1.71192
1.80021
1.9442
1.94144
1.86854
1.90854
1.87277
1.7538
1.69701
1.76276
1.7642
0.774297
0.682599
0.80619
0.924143
1.06309
0.88747
0.554884
0.545168
0.753297
1.08733
1.84774
2.25856
2.09655
1.94767
2.06908
2.07141
1.8985
1.77072
1.76767
0.593114
0.414908
0.357226
0.559843
0.872538
0.894783
0.585254
0.122957
0.00682797
0.00508319
0.879297
2.07492
2.37842
2.37107
2.25257
2.26199
2.09064
1.74917
1.56616
0.355048
0.379159
0.356351
0.368592
0.802122
0.912015
0.914755
0.531523
0.0530857
0.00357505
0.261517
1.61852
2.16485
2.33118
2.32965
2.23629
2.24628
2.09317
1.53404
0.232383
0.239088
0.239783
0.238021
0.821873
1.09998
1.09118
0.502046
0.100556
0.00187197
0.0294477
0.754527
1.89785
2.06802
2.16514
1.59836
1.79843
2.10566
1.86529
0.25988
0.270864
0.247456
0.269675
1.0866
1.20554
0.961286
0.0762964
0.011548
0.0019135
0.00120859
0.0336294
0.396947
1.08608
1.14586
0.552788
0.441107
1.42532
1.88942
0.271842
0.277124
0.254976
0.575786
1.34181
1.28879
0.428594
0.00131419
0.000803333
0.000618893
0.000384043
0.000403505
0.00307634
0.0535652
0.100475
0.0657788
0.0267595
0.124851
1.21653
0.242172
0.241148
0.180549
0.0913457
0.0239758
0.000604663
1.08356e-07
2.0458e-08
7.00282e-09
8.03043e-09
1.08119e-08
1.36548e-08
1.57689e-08
3.96969e-08
7.75095e-08
1.63677e-07
6.0538e-07
1.91398e-06
2.02653e-06
2.20957e-06
3.30292e-06
4.56203e-06
0.0119978
1.07152e-08
8.477e-09
6.24989e-09
1.02783e-07
6.75427e-09
8.18177e-09
1.31192e-08
1.73736e-08
1.95314e-08
1.98371e-08
2.25385e-08
2.45664e-08
2.61854e-08
2.77081e-08
2.79379e-08
4.73524e-08
1.17435e-07
1.84046e-06
0.0128324
0.0658231
0.124592
0.164704
0.257582
1.62372e-08
4.01731e-08
6.20703e-09
0.00010473
6.72734e-09
7.62119e-09
7.81316e-09
7.28093e-09
6.06739e-09
4.78751e-09
3.18894e-09
2.5777e-09
7.58044e-09
0.00155961
0.0304372
0.0730858
0.111708
0.209537
0.420391
0.570668
0.836546
0.936222
1.01975
0.00296574
0.00376525
0.0105638
0.0102694
0.00782842
0.00117935
0.000959842
0.0020202
0.00956341
0.0356873
0.0690467
0.110765
0.18684
0.342011
0.53397
0.636189
0.793491
0.990708
1.16401
1.27565
1.07527
1.00947
1.22805
0.403457
0.348029
0.256087
0.246247
0.31537
0.383976
0.358754
0.44134
0.650774
0.695351
0.810826
0.96053
1.05572
1.15839
1.28472
1.26618
1.20622
1.337
1.23931
1.00233
1.00105
1.01309
1.08449
1.18241
1.12989
1.00982
0.988397
0.988285
0.983877
0.98757
1.09234
1.21867
1.12968
1.12975
1.15544
1.15084
1.15842
1.1262
1.03818
1.02979
1.06437
1.03502
1.00002
1.00118
1.00377
1.00025
1.67292
1.5302
1.35895
1.23035
1.14329
1.08437
1.04853
1.04244
1.03063
1.00072
1.00089
1.00078
1.00017
1
1
1
1
1
1
1.00003
1.00014
1.0001
1
2.99078
2.93144
2.84267
2.70921
2.54878
2.37479
2.16828
1.93373
1.72778
1.52805
1.32092
1.12465
1.00001
1
1
1
1
1
1
1
1
1
1
3
3
3
3
2.99997
2.99997
2.99997
2.98433
2.94185
2.87469
2.75761
2.5846
2.30974
1.90976
1.45847
1.05073
1
1
1
1
1
1
1
3
2.99999
2.99999
2.99995
2.99949
2.9995
2.99994
2.99999
2.99999
2.99999
2.99999
2.99999
2.99999
2.9952
2.93627
2.75743
2.45362
2.14704
1.94761
1.90749
2.01693
2.28431
2.33994
3
2.99998
2.99997
2.99989
2.99997
2.99989
2.99997
3
3
3
3
3
3
3
2.99999
2.99999
2.99999
2.99999
2.99622
2.99434
2.99683
3
3
3
3
3
3
3
3
3
2.99999
2.99992
2.99979
2.99985
3
3
3
3
3
3
3
3
3
3
3
3
3
3
3
3
3
3
3
2.99992
2.99966
2.99966
2.99966
2.99978
3
3
3
3
3
3
3
3
3
3
3
3
3
3
3
3
3
3
2.99996
2.99969
2.99966
2.99966
2.9998
2.99999
3
3
3
3
3
3
3
3
3
3
3
3
3
3
3
3
3
3
2.99996
2.99982
2.99985
2.99998
2.99999
2.99999
2.99999
2.99999
2.99999
3
3
3
3
3
3
3
3
3
3
3
3
3
3
3
3
3
3
2.99999
2.99999
2.99999
2.99999
3
3
3
3
3
3
3
3
3
3
3
3
3
3
3
3
3
3
3
3
3
3
3
3
3
3
3
3
3
3
3
3
3
3
3
3
3
3
3
3
3
3
3
3
3
3
3
3
3
3
3
3
3
3
3
3
3
3
3
3
3
3
3
3
3
3
3
3
3
3
3
3
3
3
3
3
3
3
3
3
3
3
3
3
3
3
3
3
3
3
3
3
3
3
3
3
3
3
3
3
3
3
3
3
3
3
3
3
3
3
3
3
3
3
3
3
3
3
3
3
3
3
3
3
3
3
3
3
3
3
3
3
3
3
3
3
3
3
3
3
3
3
3
3
3
3
3
3
3
3
3
3
3
3
3
3
3
3
3
3
3
3
3
3
3
3
3
3
3
3
3
3
3
3
3
3
3
3
3
3
3
3
3
3
3
3
3
3
3
3
3
3
3
3
3
3
3
3
3
3
3
3
3
3
3
3
3
3
3
3
3
3
3
3
3
3
3
3
3
3
3
3
3
3
3
3
3
3
3
3
3
3
3
3
3
3
3
3
3
3
3
3
3
3
3
3
3
3
3
3
3
3
3
3
3
3
3
3
3
3
3
3
3
3
3
3
3
3
3
3
3
3
3
3
3
3
3
3
3
3
3
3
3
3
3
3
3
3
3
3
3
3
3
3
3
3
3
3
3
3
3
3
3
3
3
3
3
3
3
3
3
3
3
3
3
3
3
3
3
3
3
3
3
3
3
3
3
3
3
3
3
3
3
3
3
3
3
3
3
3
3
3
3
3
3
3
3
3
3
3
3
3
3
3
3
3
3
3
3
3
3
3
3
3
3
3
3
3
3
3
3
3
3
3
3
3
3
3
3
3
3
3
3
3
3
3
3
3
3
3
3
3
3
3
3
3
3
3
3
3
3
3
3
3
3
3
3
3
3
3
3
3
3
3
3
3
3
3
3
3
3
3
3
3
3
3
3
3
3
3
3
3
3
3
3
3
3
3
3
3
3
3
3
3
3
3
3
3
3
3
3
3
3
3
3
3
3
3
3
3
3
3
3
3
3
3
3
3
3
3
3
3
3
3
3
3
3
3
3
3
3
3
3
3
3
3
3
3
3
3
3
3
3
3
3
3
3
3
3
3
3
3
3
3
3
3
3
3
3
3
3
3
3
3
3
3
3
3
3
3
3
3
3
3
3
3
3
3
3
3
3
3
3
3
3
3
3
3
3
3
3
3
3
3
3
3
3
3
3
3
3
3
3
3
3
3
3
3
3
3
3
3
3
3
3
3
3
3
3
3
3
3
3
3
3
3
3
3
3
3
3
3
3
3
3
3
3
3
3
3
3
3
3
3
3
3
3
3
3
3
3
3
3
3
3
0.085841
0.245387
0.351189
0.465096
0.835183
1.28402
1.33602
1.00051
1.34943
1.36778
1.33114
1.16472
1.37099
1.24259
1.02812
1.08291
1.06986
1.00383
1.00012
1.00006
1
1
1.00001
1.00002
1
1
1
0.999998
1
0.999999
0.999998
0.999997
0.999999
0.999999
0.999999
1.0286
2.29834
2.6746
2.87276
2.88798
3
3
3
3
3
3
3
3
3
3
3
3
3
3
3
3
3
3
3
3
3
3
3
3
3
3
3
3
3
3
3
3
3
3
3
3
3
3
3
3
3
3
3
3
3
3
3
3
3
3
3
3
3
3
3
3
3
3
3
3
3
3
3
3
3
3
3
3
3
3
3
3
3
3
3
3
3
3
3
3
3
3
3
3
3
3
3
3
3
3
3
3
3
3
3
3
3
3
3
3
3
3
3
3
3
3
3
3
3
3
3
3
3
3
3
3
3
3
3
3
3
3
3
3
3
3
3
3
0.422128
0.300232
0.410963
0.829715
1.36698
1.04751
0.27164
0.0166903
0.0149098
0.00708183
0.0035104
0.00204092
0.00104427
0.000403598
0.000217749
0.000166621
0.000128065
0.00344222
0.46012
0.65587
0.566309
0.816178
1.29641
1.16775
0.949314
0.577214
0.434852
0.295107
0.27692
0.262026
0.225461
0.18397
0.135644
0.0467531
0.000683447
0.000166349
0.000175289
0.0656441
1.10418
1.13225
1.00771
1.00131
1.12041
1.25042
1.25958
1.08927
0.987687
0.991465
0.984261
0.968417
0.948249
0.91519
0.819657
0.595493
0.314584
0.153525
0.195979
1.08263
1.00703
1.00033
1.00194
1.08536
1.11359
1.01433
1
1.00003
1.00007
1.00002
1.00002
1.00014
1.00044
1.00062
1.00019
0.970715
0.905597
0.734069
1.00002
1.00049
1.00144
1.00108
1.00001
1
1
1
1.00002
1.00002
1
1
1.00006
1.00042
1.00053
1.00035
1.00033
1.03305
1.11459
1.00001
1
1
1
1
1
1
1
1
1
1
1
1
1
1.00002
1.00187
1.00176
1.00086
1.00154
0.999994
0.999994
1
1
1
1
1
1
1
1
1
1
1
0.999948
0.999714
0.999706
1.0086
1.01396
1.0112
0.999998
0.999999
1.00002
1.00526
1.03669
1.09693
1.16159
1.22084
1.27299
1.30823
1.32527
1.33521
1.35977
1.43767
1.50779
1.52692
1.54317
1.62713
1.77562
1.21506
1.50446
1.7954
2.05676
2.31325
2.50774
2.62501
2.70689
2.76699
2.80098
2.81768
2.8313
2.86477
2.91344
2.94176
2.95238
2.96725
2.98458
2.99013
2.93253
2.9838
3
3
3
2.99999
2.99997
2.99991
2.99976
2.99942
2.99876
2.99782
2.99754
2.99964
3
3
3
3
3
3
3
3
3
3
2.99999
2.99997
2.99995
2.99993
2.99985
2.99978
2.99938
2.99862
2.99871
2.99962
3
3
3
3
3
3
3
3
3
3
2.9996
2.99841
2.99843
2.9996
2.99992
2.99895
2.9975
2.99741
2.9989
2.99999
3
3
3
3
3
3
3
3
3
2.9996
2.99802
2.99804
2.99812
2.99993
2.99994
2.99932
2.99924
2.99994
3
3
3
3
3
3
3
3
3
3
3
2.9998
2.9989
2.99913
2.99984
3
3
3
3
3
3
3
3
3
3
3
3
3
3
3
3
3
3
3
3
3
3
3
3
3
3
3
3
3
3
3
3
3
3
3
3
3
3
3
3
3
3
3
3
3
3
3
3
3
3
3
3
3
3
3
3
3
3
3
3
3
3
3
3
3
3
3
3
3
3
3
3
3
3
3
3
3
3
3
3
3
3
3
3
3
3
3
3
3
3
3
3
3
3
3
3
3
3
3
3
3
3
3
3
3
3
3
3
3
3
3
3
3
3
3
3
3
3
3
3
3
3
3
3
3
3
3
3
3
3
3
3
3
3
3
3
3
3
3
3
3
3
3
3
3
3
3
3
3
3
3
3
3
3
3
3
3
3
3
3
3
3
3
3
3
3
3
3
3
3
3
3
3
3
3
3
3
3
3
3
3
3
3
3
3
3
3
3
3
3
3
3
3
3
3
3
3
3
3
3
3
3
3
3
3
3
3
3
3
3
3
3
3
3
3
3
3
3
3
3
3
3
3
3
3
3
3
3
3
3
3
3
3
3
3
3
3
3
3
3
3
3
3
3
3
3
3
3
3
3
3
3
3
3
3
3
3
3
3
3
3
3
3
3
3
3
3
3
3
3
3
3
3
3
3
3
3
3
3
3
3
3
3
3
3
3
3
3
3
3
3
3
3
3
3
3
3
3
3
3
3
3
3
3
3
3
3
3
3
3
3
3
3
3
3
3
3
3
3
3
3
3
3
3
3
3
3
3
3
3
3
3
3
3
3
3
3
3
3
3
3
3
3
3
3
3
3
3
3
3
3
3
3
3
3
3
3
3
3
3
3
3
3
3
3
3
3
3
3
3
3
3
3
3
3
3
3
3
3
3
3
3
3
3
3
3
3
3
3
3
3
3
3
3
3
3
3
3
3
3
3
3
3
3
3
3
3
3
3
3
3
3
3
3
3
3
3
3
3
3
3
3
3
3
3
3
3
3
3
3
3
3
3
3
3
3
3
3
3
3
3
3
3
3
3
3
3
3
3
3
3
3
3
3
3
3
3
3
3
3
3
3
3
3
3
3
3
3
3
3
3
3
3
3
3
3
3
3
3
3
3
3
3
3
3
3
3
3
3
3
3
3
3
3
3
3
3
3
3
3
3
3
3
3
3
3
3
3
3
3
3
3
3
3
3
3
3
3
3
3
3
3
3
3
3
3
3
3
3
3
3
3
3
3
3
3
3
3
3
3
)
;

boundaryField
{
    leftWall
    {
        type            calculated;
        value           nonuniform List<scalar> 
50
(
2
2
2
2
2
2
2
1.78273
0.242172
1.07152e-08
1.62372e-08
0.00296574
0.403457
1.18241
1.67292
2.99078
3
3
3
3
3
3
3
3
3
3
3
3
3
3
3
3
3
3
3
3
3
3
3
3
3
3
3
3
3
3
3
3
3
3
)
;
    }
    rightWall
    {
        type            calculated;
        value           nonuniform List<scalar> 
50
(
1.76418
1.7642
1.76767
1.56616
1.53404
1.86529
1.88942
1.21653
0.46012
0.0656441
0.195979
0.734069
1.11459
1.00154
1.0112
1.77562
2.99013
3
3
3
3
3
3
3
3
3
3
3
3
3
3
3
3
3
3
3
3
3
3
3
3
3
3
3
3
3
3
3
3
3
)
;
    }
    lowerWall
    {
        type            calculated;
        value           nonuniform List<scalar> 
62
(
2
2
2
2
2
2
2
2
2
2
2
2
2
2
2
2
2
2
2
1.99983
1.99956
1.99943
1.99943
1.99943
1.99978
2
2
1.99313
0.932868
0.00407666
0.00140198
0.085841
0.245387
0.351189
0.465096
1.86764
1.52594
0.774297
0.593114
0.355048
0.232383
0.25988
0.271842
1.86764
1.86747
1.8607
1.85687
1.86663
1.90208
1.94662
1.78065
1.76017
1.7192
1.71968
1.71758
1.74098
1.77047
1.7529
1.73284
1.66739
1.76326
1.76418
)
;
    }
    atmosphere
    {
        type            calculated;
        value           nonuniform List<scalar> 
46
(
3
3
3
3
3
3
3
3
3
3
3
3
3
3
3
3
3
3
3
3
3
3
3
3
3
3
3
3
3
3
3
3
3
3
3
3
3
3
3
3
3
3
3
3
3
3
)
;
    }
    defaultFaces
    {
        type            empty;
    }
}


// ************************************************************************* //
