/*--------------------------------*- C++ -*----------------------------------*\
  =========                 |
  \\      /  F ield         | OpenFOAM: The Open Source CFD Toolbox
   \\    /   O peration     | Website:  https://openfoam.org
    \\  /    A nd           | Version:  13
     \\/     M anipulation  |
\*---------------------------------------------------------------------------*/
FoamFile
{
    format      ascii;
    class       volScalarField;
    location    "2.1";
    object      alpha.air;
}
// * * * * * * * * * * * * * * * * * * * * * * * * * * * * * * * * * * * * * //

dimensions      [];

internalField   nonuniform List<scalar> 
2268
(
2.43692e-13
2.77443e-13
2.71833e-13
1.61163e-13
8.46798e-14
3.83257e-14
1.74624e-14
8.97062e-15
6.68539e-15
7.8825e-15
1.38798e-14
2.80425e-14
8.55302e-14
2.48643e-13
3.65312e-13
3.47631e-13
6.0787e-13
2.2568e-12
2.90331e-12
3.23233e-12
1.36443e-12
3.49346e-13
3.48981e-13
8.8018e-13
9.84843e-13
8.7666e-13
6.37324e-13
4.13322e-13
2.32286e-13
1.22467e-13
7.25477e-14
6.51363e-14
1.07398e-13
2.95029e-13
1.26174e-12
3.26026e-12
7.1896e-12
1.06047e-11
1.26157e-11
2.64142e-11
7.08363e-11
8.09323e-11
1.5068e-10
2.35328e-10
3.64562e-10
7.25116e-12
2.22941e-12
2.45063e-12
1.82384e-12
1.54731e-12
9.03176e-13
5.25367e-13
3.33583e-13
2.79602e-13
3.84968e-13
9.74978e-13
2.99621e-12
8.38393e-12
2.14964e-11
5.17649e-11
1.12777e-10
2.12112e-10
3.477e-10
4.91621e-10
8.21292e-10
1.59812e-09
3.17286e-09
5.22018e-09
1.03729e-09
4.69193e-12
4.26131e-12
3.73481e-12
3.10439e-12
2.28979e-12
1.61491e-12
1.19492e-12
1.15826e-12
1.58848e-12
3.51763e-12
8.93941e-12
2.25446e-11
5.63227e-11
1.32126e-10
2.6363e-10
4.53543e-10
6.55478e-10
7.76938e-10
1.07916e-09
1.08783e-09
1.09577e-09
6.12463e-09
4.48359e-09
1.44966e-11
1.16391e-11
1.03341e-11
9.35543e-12
7.93484e-12
6.57556e-12
5.45665e-12
5.30456e-12
6.18016e-12
8.59573e-12
1.43215e-11
3.10801e-11
7.00856e-11
1.42937e-10
2.04501e-10
2.08839e-10
2.17273e-10
2.26877e-10
1.12545e-08
1.3538e-06
3.63121e-06
9.99394e-07
1.2633e-06
2.82277e-11
3.02503e-11
3.0013e-11
2.96156e-11
3.16511e-11
3.24353e-11
3.10462e-11
2.86988e-11
3.09846e-11
3.85772e-11
5.8835e-11
1.10621e-10
1.73583e-10
2.18578e-10
4.92032e-09
7.23289e-08
4.61936e-07
4.44726e-06
4.21184e-05
0.000164288
0.000389599
0.000629955
0.000747323
5.12364e-11
6.62819e-11
7.00623e-11
6.97018e-11
6.96188e-11
7.87442e-11
9.58043e-11
1.18057e-10
1.5275e-10
2.55655e-10
4.86612e-10
1.06662e-09
3.14527e-09
1.69056e-08
1.28164e-07
7.7805e-07
4.27134e-06
2.31715e-05
0.000102245
0.000298464
0.000673277
0.0012276
0.00134264
3.0123e-10
1.43047e-10
1.19975e-10
1.27615e-10
1.55704e-10
1.91924e-10
2.3621e-10
3.32352e-10
5.3398e-10
9.38692e-10
1.67249e-09
3.45075e-09
1.01793e-08
4.18386e-08
1.82029e-07
7.86194e-07
3.78584e-06
1.88356e-05
2.86133e-05
4.18416e-05
6.04656e-05
0.000120293
0.000452862
0.000329837
0.00034768
0.00538534
0.019008
0.0268123
0.0387347
0.061844
0.0684291
0.0642104
0.0431767
0.0431926
0.0489171
0.0724068
0.0953196
0.0964846
0.0532077
0.0140495
0.0140396
0.01404
0.00357312
0.00440015
0.00368707
0.00243291
0.000576158
0.000348926
0.000344248
0.0018272
0.000852499
0.0298115
0.0715656
0.064926
0.0612576
0.0841993
0.100042
0.062628
0.0257527
0.0141529
0.0140284
0.0161737
0.0180462
0.0202367
0.0233785
0.0185516
0.0102969
0.00176223
1.12962e-05
2.19045e-06
0.00993211
0.18966
0.30388
0.219016
0.138782
0.187129
0.190214
0.0885299
0.0161913
0.0140062
0.0155323
0.0155638
0.0219275
0.0269334
0.0269274
0.0234591
0.00452871
0.000125853
2.08071e-05
1.06851e-07
0.270904
0.569632
0.569675
0.563023
0.489896
0.465037
0.334802
0.0699105
0.0140077
0.0155281
0.0155281
0.015502
0.0193265
0.0205983
0.0168491
0.0205523
0.0110461
0.000684591
1.05599e-07
0.086824
0.519256
0.569716
0.569784
0.569617
0.509076
0.49248
0.427674
0.014007
0.0155282
0.0188931
0.0154878
0.0115065
0.0124312
0.0478551
0.0554252
0.0265195
0.000789735
1.29424e-07
0.00948691
0.205739
0.541638
0.569961
0.570118
0.37257
0.407121
0.439993
0.335418
0.0621849
0.0725838
0.0563343
0.0132005
0.0686129
0.0939569
0.117835
0.00351679
0.000252742
0.000608018
4.4384e-05
4.12032e-05
0.0788908
0.270853
0.289373
0.0921383
0.0682102
0.366838
0.371267
0.0730986
0.0793516
0.064679
0.104837
0.175932
0.173847
0.114983
0.000433953
0.000263929
0.000143584
5.80085e-05
6.35127e-05
5.41309e-19
0.000133312
0.000458234
-8.14024e-09
-3.51943e-09
0.0387341
0.219411
1.45543e-09
8.45519e-10
5.1668e-10
5.24959e-10
7.77643e-10
1.24939e-09
1.83907e-09
2.05386e-09
2.21252e-09
2.45854e-09
3.37741e-09
4.32847e-09
4.95542e-09
1.24177e-08
2.48242e-08
5.25618e-08
1.98465e-07
6.35539e-07
6.75112e-07
7.36409e-07
8.51192e-07
1.10318e-06
0.00399884
1.63652e-09
9.88985e-10
4.61331e-10
3.27129e-08
6.13757e-10
1.09548e-09
2.26077e-09
4.02707e-09
4.84731e-09
5.29177e-09
6.7104e-09
7.63444e-09
8.29501e-09
8.30307e-09
8.31573e-09
1.44702e-08
3.42805e-08
6.08917e-07
0.00427747
0.021941
0.0415307
0.0549013
0.0409277
3.55793e-09
1.18205e-08
4.64266e-10
3.49084e-05
3.82263e-10
3.85692e-10
3.77072e-10
3.783e-10
3.59104e-10
3.63894e-10
3.62168e-10
3.65067e-10
2.177e-09
0.00051987
0.0101457
0.0243619
0.0364807
0.0640787
0.131337
0.168209
0.157747
0.0519645
0.0555679
0.000988581
0.00125508
0.00352127
0.00342315
0.00260947
0.000393115
0.000319947
0.0006734
0.0031878
0.0118958
0.0230156
0.0369215
0.0615149
0.106143
0.158543
0.154462
0.148769
0.168521
0.168508
0.166201
0.0434009
0.00473809
0.114272
0.128112
0.0974229
0.0298574
0.000469878
0.000460651
0.000203929
0.000203247
0.0657773
0.172443
0.179381
0.183309
0.202126
0.202196
0.202142
0.202196
0.151919
0.107492
0.168508
0.119657
0.00116587
0.000524209
0.006547
0.0422611
0.220827
0.154944
0.0336575
0.00397889
0.0039547
0.00290757
0.00452687
0.0633838
0.133567
0.0858198
0.0742157
0.0785107
0.0754178
0.0792099
0.0631025
0.0190883
0.0148928
0.0321858
0.0175084
9.75419e-06
0.000591741
0.00188386
0.000126911
0.33646
0.265101
0.179476
0.115174
0.0716426
0.0422203
0.0243349
0.0212206
0.0153132
0.000360887
0.000458236
0.00039046
8.26438e-05
9.16077e-07
6.67825e-07
8.3331e-07
7.33529e-07
7.98171e-07
7.85259e-07
1.73048e-05
7.05834e-05
4.99143e-05
2.18847e-08
0.995392
0.96572
0.921381
0.854666
0.774409
0.687397
0.58414
0.466866
0.363889
0.264024
0.160463
0.0623234
5.58715e-06
2.324e-06
1.09855e-06
9.51854e-07
7.19769e-07
6.51456e-07
6.86995e-07
9.77282e-07
1.62334e-07
2.26462e-09
3.67304e-10
1
1
1
0.999999
0.99999
0.999989
0.999987
0.992168
0.970923
0.937347
0.878804
0.792298
0.654868
0.454882
0.229237
0.0253654
1.28036e-06
7.15882e-07
5.64464e-07
4.18343e-07
3.03367e-07
7.80482e-08
-8.16197e-10
0.999999
0.999996
0.999996
0.999975
0.999751
0.999752
0.999969
0.999996
0.999995
0.999994
0.999994
0.999994
0.999993
0.997603
0.968134
0.878714
0.726809
0.573521
0.473805
0.453746
0.508466
0.642156
0.669971
0.999998
0.999992
0.999986
0.999944
0.999987
0.999945
0.999985
1
1
1
0.999999
0.999999
0.999999
0.999998
0.999994
0.999994
0.999995
0.999997
0.998112
0.99717
0.998413
1
0.999999
0.999999
0.999998
1
0.999999
1
1
0.999999
0.999997
0.999959
0.999893
0.999926
0.999999
1
1
1
1
1
1
0.999999
0.999999
1
1
1
1
1
1
1
1
1
1
0.999962
0.999832
0.999831
0.999832
0.999893
0.999999
1
1
1
1
1
1
1
1
1
1
1
1
1
1
1
1
0.999999
0.999982
0.999844
0.99983
0.999831
0.9999
0.999997
0.999999
1
1
1
1
1
1
1
1
1
1
1
1
1
1
1
1
0.999998
0.999981
0.99991
0.999926
0.999992
0.999997
0.999997
0.999998
0.999998
0.999998
0.999999
1
1
1
1
1
1
1
1
1
1
1
1
1
1
1
1
0.999998
0.999997
0.999997
0.999997
0.999997
0.999998
0.999999
1
1
1
1
1
1
1
1
1
1
1
1
1
1
1
1
0.999999
0.999998
0.999998
0.999999
0.999999
0.999999
1
1
1
1
1
1
1
1
1
1
1
1
1
1
1
1
0.999999
0.999999
0.999999
0.999999
1
1
1
1
1
1
1
1
1
1
1
1
1
1
1
1
1
1
1
1
0.999999
0.999999
1
1
1
1
1
1
1
1
1
1
1
1
1
1
1
1
1
1
1
1
1
1
1
1
1
1
1
1
1
1
1
1
1
1
1
1
1
1
1
1
1
1
1
1
1
1
1
1
1
1
1
1
1
1
1
1
1
1
1
1
1
1
1
1
1
1
1
1
1
1
1
1
1
1
1
1
1
1
1
1
1
1
1
1
1
1
1
1
1
1
1
1
1
1
1
1
1
1
1
1
1
1
1
1
1
1
1
1
1
1
1
1
1
1
1
1
1
1
1
1
1
1
1
1
1
1
1
1
1
1
1
1
1
1
1
1
1
1
1
1
1
1
1
1
1
1
1
1
1
1
1
1
1
1
1
1
1
1
1
1
1
1
1
1
1
1
1
1
1
1
1
1
1
1
1
1
1
1
1
1
1
1
1
1
1
1
1
1
1
1
1
1
1
1
1
1
1
1
1
1
1
1
1
1
1
1
1
1
1
1
1
1
1
1
1
1
1
1
1
1
1
1
1
1
1
1
1
1
1
1
1
1
1
1
1
1
1
1
1
1
1
1
1
1
1
1
1
1
1
1
1
1
1
1
1
1
1
1
1
1
1
1
1
1
1
1
1
1
1
1
1
1
1
1
1
1
1
1
1
1
1
1
1
1
1
1
1
1
1
1
1
1
1
1
1
1
1
1
1
1
1
1
1
1
1
1
1
1
1
1
1
1
1
1
1
1
1
1
1
1
1
1
1
1
1
1
1
1
1
1
1
1
1
1
1
1
1
1
1
1
1
1
1
1
1
1
1
1
1
1
1
1
1
1
1
1
1
1
1
1
1
1
1
1
1
1
1
1
1
1
1
1
1
1
1
1
1
1
1
1
1
1
1
1
1
1
1
1
1
1
1
1
1
1
1
1
1
1
1
1
1
1
1
1
1
1
1
1
1
1
1
1
1
1
1
1
1
1
1
1
1
1
1
1
1
1
1
1
1
1
1
1
1
1
1
1
1
1
1
1
1
1
1
1
1
1
1
1
1
1
1
1
1
1
1
1
1
1
1
1
1
1
1
1
1
1
1
1
1
1
1
1
1
1
1
1
1
1
1
1
1
1
1
1
1
1
1
1
1
1
1
1
1
1
1
1
1
1
1
1
1
1
1
1
1
1
1
1
1
1
1
1
1
1
1
1
1
1
1
1
1
1
1
1
1
1
1
1
1
1
1
1
1
1
1
1
1
1
1
0.0123186
0.0113317
0.0226671
0.0604111
0.027734
0.158239
0.186124
0.186159
0.185911
0.186049
0.186154
0.18615
0.185609
0.122415
0.0167962
0.0426625
0.0350274
0.00192524
-6.85605e-14
-1.65811e-12
1.17505e-08
1.87208e-07
4.23738e-06
1.51326e-05
1.36759e-09
1.50445e-07
8.73159e-07
1.66246e-06
9.49997e-12
4.51666e-09
1.16013e-08
3.53906e-12
-5.03601e-15
3.87837e-21
1.33996e-11
0.0143019
0.64917
0.8373
0.936378
0.943992
1
1
1
1
1
1
1
1
1
1
1
1
1
1
1
1
1
1
1
1
1
1
1
1
1
1
1
1
1
1
1
1
1
1
1
1
1
1
1
1
1
1
1
1
1
1
1
1
1
1
1
1
1
1
1
1
1
1
1
1
1
1
1
1
1
1
1
1
1
1
1
1
1
1
1
1
1
1
1
1
1
1
1
1
1
1
1
1
1
1
1
1
1
1
1
1
1
1
1
1
1
1
1
1
1
1
1
1
1
1
1
1
1
1
1
1
1
1
1
1
1
1
1
1
1
1
1
1
0.102517
0.0892545
0.126007
0.177705
0.177706
0.1777
0.0905356
0.00552596
0.00496598
0.00231946
0.00110075
0.000609172
0.000290197
0.000105814
4.93211e-05
2.51117e-05
6.37626e-06
0.00111548
0.00103764
0.186124
0.177943
0.178611
0.157604
0.0910458
0.176236
0.169054
0.09003
0.0140943
0.00167957
0.00185235
0.00129162
0.000690509
0.000421562
0.000410878
0.000160308
2.34004e-05
2.34607e-05
2.4121e-05
0.186159
0.141704
0.00761221
0.00108934
0.070826
0.171634
0.165297
0.0655411
4.72375e-08
1.46066e-05
1.76926e-05
0.000182291
0.000227637
0.000165272
0.00022835
0.000224631
2.67403e-05
0.0241981
0.0587143
0.0409215
0.00353166
0.000419541
0.00139539
0.0428715
0.0567925
0.0071581
4.64119e-08
2.67806e-06
3.01942e-05
9.41943e-06
7.4564e-06
6.09198e-05
0.000199996
0.000259524
0.000143133
0.00012119
0.0424561
0.0834923
2.12294e-08
0.000260367
0.000724727
0.000535467
-8.44662e-12
1.25552e-10
1.01232e-07
4.65563e-07
7.71001e-06
9.94842e-06
1.21657e-06
6.12791e-08
2.86213e-05
0.0002092
0.000259274
0.000174818
0.000138175
0.0149656
0.0535389
1.45909e-05
1.14281e-05
2.5385e-06
6.14839e-10
2.3101e-09
1.57199e-07
3.74641e-07
1.21605e-06
8.75352e-07
6.13518e-08
6.12764e-08
6.08343e-08
7.15125e-08
-3.07284e-09
8.39436e-06
0.000935164
0.00140228
0.00150079
0.00162123
1.4006e-06
1.52294e-07
4.86748e-08
1.54274e-07
7.17909e-08
1.695e-07
1.67635e-07
1.1438e-07
1.36183e-07
6.12045e-08
6.08343e-08
7.62459e-09
-6.1846e-10
-2.57062e-10
-1.09467e-09
-6.47519e-06
0.00448337
0.00753521
0.00657634
1.3598e-12
4.7053e-13
1.1771e-05
0.00263025
0.0183466
0.0484666
0.0807939
0.110419
0.136493
0.154117
0.162636
0.167605
0.179902
0.220712
0.257386
0.267003
0.274446
0.31571
0.389654
0.107532
0.252229
0.397701
0.528382
0.656625
0.75387
0.812505
0.853445
0.8835
0.900524
0.908905
0.91571
0.932618
0.959736
0.97459
0.979582
0.986234
0.993994
0.996145
0.966267
0.9919
1
1
0.999999
0.999997
0.999988
0.999964
0.999904
0.999771
0.999521
0.999164
0.999057
0.999852
1
1
1
1
1
1
1
1
1
0.999999
0.999995
0.999985
0.999974
0.999963
0.999941
0.999909
0.99969
0.999309
0.999356
0.999811
1
0.999999
0.999999
0.999999
1
1
1
0.999999
0.999999
0.999998
0.999801
0.999204
0.999214
0.999798
0.999961
0.999476
0.998749
0.998706
0.999451
0.999997
0.999998
0.999999
0.999999
1
1
1
1
0.999999
0.999999
0.999799
0.999009
0.999021
0.999062
0.999966
0.999971
0.99966
0.999619
0.999971
0.999998
0.999999
1
1
1
1
1
1
1
1
0.999999
0.999901
0.999452
0.999566
0.999921
0.999999
1
1
1
0.999999
1
1
0.999999
1
1
1
1
1
1
1
1
1
1
1
0.999999
0.999999
1
1
1
1
1
0.999999
1
1
1
1
1
1
1
0.999999
1
1
1
1
0.999999
0.999999
1
1
1
1
0.999999
1
1
1
1
1
1
1
0.999999
0.999999
1
1
1
1
0.999999
1
1
1
1
1
1
1
1
1
1
1
1
1
1
1
1
1
1
1
1
1
1
1
1
1
1
1
1
1
1
1
1
1
1
1
1
1
1
1
1
1
1
1
1
1
1
1
1
1
1
1
1
1
1
1
1
1
1
1
1
1
1
1
1
1
1
1
1
1
1
1
1
1
1
1
1
1
1
1
1
1
1
1
1
1
1
1
1
1
1
1
1
1
1
1
1
1
1
1
1
1
1
1
1
1
1
1
1
1
1
1
1
1
1
1
1
1
1
1
1
1
1
1
1
1
1
1
1
1
1
1
1
1
1
1
1
1
1
1
1
1
1
1
1
1
1
1
1
1
1
1
1
1
1
1
1
1
1
1
1
1
1
1
1
1
1
1
1
1
1
1
1
1
1
1
1
1
1
1
1
1
1
1
1
1
1
1
1
1
1
1
1
1
1
1
1
1
1
1
1
1
1
1
1
1
1
1
1
1
1
1
1
1
1
1
1
1
1
1
1
1
1
1
1
1
1
1
1
1
1
1
1
1
1
1
1
1
1
1
1
1
1
1
1
1
1
1
1
1
1
1
1
1
1
1
1
1
1
1
1
1
1
1
1
1
1
1
1
1
1
1
1
1
1
1
1
1
1
1
1
1
1
1
1
1
1
1
1
1
1
1
1
1
1
1
1
1
1
1
1
1
1
1
1
1
1
1
1
1
1
1
1
1
1
1
1
1
1
1
1
1
1
1
1
1
1
1
1
1
1
1
1
1
1
1
1
1
1
1
1
1
1
1
1
1
1
1
1
1
1
1
1
1
1
1
1
1
1
1
1
1
1
1
1
1
1
1
1
1
1
1
1
1
1
1
1
1
1
1
1
1
1
1
1
1
1
1
1
1
1
1
1
1
1
1
1
1
1
1
1
1
1
1
1
1
1
1
1
1
1
1
1
1
1
1
1
1
1
1
1
1
1
1
1
1
1
1
1
1
1
1
1
1
1
1
1
1
1
1
1
1
1
1
1
1
1
1
1
1
1
1
1
1
1
1
1
1
1
1
1
1
1
1
1
1
1
1
1
1
1
1
1
1
1
1
1
1
1
1
1
)
;

boundaryField
{
    leftWall
    {
        type            alphaContactAngle;
        contactAngleProperties 
        {
            mercury         
            {
                theta0          90;
            }
            water           
            {
                theta0          90;
            }
            oil             
            {
                theta0          90;
            }
        }
        value           nonuniform List<scalar> 
50
(
2.43692e-13
8.8018e-13
2.22941e-12
4.69193e-12
1.44966e-11
2.82277e-11
5.12364e-11
3.0123e-10
1.45543e-09
1.63652e-09
3.55793e-09
0.000988581
0.128112
0.220827
0.33646
0.995392
1
0.999999
0.999998
0.999999
1
1
1
1
1
1
1
1
1
1
1
1
1
1
1
1
1
1
1
1
1
1
1
1
1
1
1
1
1
1
)
;
    }
    rightWall
    {
        type            alphaContactAngle;
        contactAngleProperties 
        {
            mercury         
            {
                theta0          90;
            }
            water           
            {
                theta0          90;
            }
            oil             
            {
                theta0          90;
            }
        }
        value           nonuniform List<scalar> 
50
(
0.01404
0.0140284
0.0140062
0.0140077
0.014007
0.335418
0.371267
0.219411
0.00103764
2.4121e-05
0.0587143
0.0834923
0.0535389
0.00162123
0.00657634
0.389654
0.996145
1
0.999999
0.999999
1
0.999999
0.999999
0.999999
1
1
1
1
1
1
1
1
1
1
1
1
1
1
1
1
1
1
1
1
1
1
1
1
1
1
)
;
    }
    lowerWall
    {
        type            alphaContactAngle;
        contactAngleProperties 
        {
            mercury         
            {
                theta0          90;
            }
            water           
            {
                theta0          90;
            }
            oil             
            {
                theta0          90;
            }
        }
        value           nonuniform List<scalar> 
62
(
2.43692e-13
2.77443e-13
2.71833e-13
1.61163e-13
8.46798e-14
3.83257e-14
1.74624e-14
8.97062e-15
6.68539e-15
7.8825e-15
1.38798e-14
2.80425e-14
8.55302e-14
2.48643e-13
3.65312e-13
3.47631e-13
6.0787e-13
2.2568e-12
2.90331e-12
3.23233e-12
1.36443e-12
3.49346e-13
3.48981e-13
3.48981e-13
7.25116e-12
1.03729e-09
4.48359e-09
1.2633e-06
0.000747323
0.00134264
0.000452862
0.0123186
0.0113317
0.0226671
0.0604111
0.000329837
0.00357312
0.0161737
0.0155323
0.0155281
0.0155282
0.0621849
0.0730986
0.000329837
0.00034768
0.00538534
0.019008
0.0268123
0.0387347
0.061844
0.0684291
0.0642104
0.0431767
0.0431926
0.0489171
0.0724068
0.0953196
0.0964846
0.0532077
0.0140495
0.0140396
0.01404
)
;
    }
    atmosphere
    {
        type            inletOutlet;
        inletValue      uniform 1;
        value           nonuniform List<scalar> 
46
(
1
1
0.999999
1
1
1
1
1
1
1
1
1
1
1
1
1
1
1
1
1
1
1
1
1
1
1
1
1
1
1
1
1
1
1
1
1
1
1
1
1
1
1
1
1
1
1
)
;
    }
    defaultFaces
    {
        type            empty;
    }
}


// ************************************************************************* //
