/*--------------------------------*- C++ -*----------------------------------*\
  =========                 |
  \\      /  F ield         | OpenFOAM: The Open Source CFD Toolbox
   \\    /   O peration     | Website:  https://openfoam.org
    \\  /    A nd           | Version:  13
     \\/     M anipulation  |
\*---------------------------------------------------------------------------*/
FoamFile
{
    format      ascii;
    class       volScalarField;
    location    "2.1";
    object      epsilon;
}
// * * * * * * * * * * * * * * * * * * * * * * * * * * * * * * * * * * * * * //

dimensions      [0 2 -3 0 0 0 0];

internalField   nonuniform List<scalar> 
2268
(
0.00493184
0.0197018
0.0353303
0.0517114
0.0691712
0.0876995
0.106982
0.126391
0.145343
0.163339
0.180224
0.195808
0.209649
0.22113
0.229634
0.234335
0.234215
0.227788
0.212832
0.185957
0.142955
0.0807962
0.0130151
0.00935239
0.0152062
0.0228788
0.0307266
0.0386847
0.0467774
0.0549379
0.0630261
0.0708867
0.0783868
0.0853864
0.0917584
0.0973576
0.10204
0.10559
0.107728
0.108036
0.105899
0.100427
0.0903793
0.0742641
0.0511457
0.0261273
0.0161321
0.0168174
0.0220977
0.0279134
0.0337978
0.0396882
0.0455514
0.0513236
0.0569283
0.062298
0.0673238
0.0719103
0.0759821
0.0794625
0.0822347
0.084124
0.0848687
0.0840918
0.0812779
0.0757661
0.0668315
0.0542631
0.0475176
0.0226162
0.0189472
0.0227245
0.0274996
0.0324668
0.0374506
0.0423912
0.0472345
0.0519324
0.0564371
0.0606745
0.0645847
0.0681212
0.0712372
0.07386
0.0758648
0.0770728
0.0772433
0.0760912
0.0733352
0.0688384
0.0633005
0.0719044
0.0282733
0.021089
0.0237247
0.0278146
0.0322597
0.0367733
0.0412498
0.0456279
0.0498662
0.0539335
0.0577877
0.0613977
0.0647434
0.0677963
0.0705039
0.0727782
0.0744947
0.0755149
0.0757385
0.0752278
0.0745218
0.0758347
0.101274
0.0330256
0.023091
0.0248341
0.028443
0.0325667
0.0368157
0.0410383
0.0451628
0.0491499
0.052983
0.056653
0.0601564
0.063494
0.0666519
0.0695886
0.0722361
0.0745114
0.076356
0.0778305
0.0793332
0.0822362
0.0913954
0.140628
0.0370046
0.0248925
0.0259654
0.0292492
0.0331808
0.037282
0.0413607
0.0453392
0.0491838
0.0528961
0.0565012
0.0600244
0.0634823
0.0668693
0.0701468
0.0732539
0.0761321
0.0787856
0.0814095
0.0847067
0.0909844
0.109539
0.20691
0.0404227
0.02656
0.0271343
0.0302108
0.0340352
0.038054
0.0420447
0.0459325
0.0496909
0.0533462
0.0569738
0.0606234
0.0643158
0.0680397
0.0717479
0.075375
0.0788722
0.0822899
0.0859245
0.0906932
0.0996368
0.127812
0.365656
0.0128748
0.06619
0.135413
0.20477
0.249945
0.279871
0.298903
0.286074
0.270105
0.257452
0.238452
0.216244
0.18644
0.160912
0.139069
0.113977
0.085925
0.055726
0.0185905
0.0250633
0.0457573
0.0719747
0.0953793
0.111518
0.123007
0.130578
0.128902
0.12356
0.117386
0.109928
0.101567
0.0925349
0.08296
0.0724354
0.061591
0.0502836
0.0387096
0.0257122
0.0472022
0.0521143
0.0677057
0.0812457
0.090877
0.0982346
0.102929
0.102328
0.0983173
0.0933489
0.0878144
0.0817002
0.0751458
0.068258
0.0609327
0.0533227
0.0458031
0.0388973
0.0384196
0.0726459
0.0631632
0.0721978
0.0806547
0.0871433
0.0924981
0.0956174
0.094555
0.0905388
0.0859788
0.0810235
0.0755847
0.0695467
0.0634648
0.0573339
0.0511161
0.0454738
0.0412908
0.0482848
0.0952773
0.0759434
0.0792004
0.0838187
0.0880714
0.0920904
0.0941299
0.0923109
0.0883106
0.0838549
0.0789599
0.0737519
0.0679052
0.0619918
0.0563143
0.0509112
0.0465116
0.0443982
0.0595886
0.1202
0.0909659
0.0873242
0.0883371
0.0904138
0.0930318
0.0941628
0.0918461
0.0881352
0.0839552
0.0789977
0.0735894
0.0679176
0.0621167
0.0565916
0.0516759
0.0480974
0.0477374
0.0727115
0.176432
0.108852
0.0958751
0.093403
0.0935226
0.0946947
0.0947906
0.0921662
0.0885992
0.084637
0.0798063
0.0744294
0.0687419
0.0629946
0.0575873
0.0529336
0.0498368
0.0510552
0.0836245
0.342991
0.12588
0.103769
0.098505
0.0970578
0.0968623
0.0957586
0.0927415
0.0892078
0.08546
0.0808578
0.0756212
0.0700303
0.0643366
0.0590056
0.0544683
0.0515671
0.0536863
0.0968406
0.0450154
0.0287801
0.0289591
0.0319191
0.0356765
0.0395732
0.0433937
0.0471266
0.0508106
0.0545241
0.0583699
0.0624127
0.0666648
0.0710886
0.0756072
0.0801283
0.0846075
0.0891531
0.0941663
0.10068
0.111519
0.135304
0.205286
0.0544288
0.0313206
0.0317116
0.03466
0.0381584
0.0417787
0.0454157
0.049096
0.052927
0.0570795
0.0616961
0.0668366
0.0724428
0.0783693
0.0844276
0.0904253
0.0962698
0.102109
0.108349
0.115742
0.12587
0.142043
0.170271
0.0521931
0.0338665
0.0350401
0.0380195
0.0411945
0.0444174
0.0478158
0.0515393
0.0558121
0.0608895
0.0668994
0.0738069
0.0813577
0.0891995
0.0969613
0.104265
0.110952
0.117245
0.123448
0.129753
0.136764
0.145403
0.155941
0.0510608
0.0373759
0.0387471
0.0414359
0.0442135
0.0471558
0.0505783
0.0547642
0.0600624
0.0667316
0.07478
0.0839674
0.0937115
0.103374
0.112378
0.120113
0.126345
0.131435
0.135649
0.138946
0.141632
0.144367
0.147213
0.0545341
0.0420434
0.0429643
0.045183
0.0476563
0.0505687
0.0543624
0.0594937
0.0663615
0.0750575
0.0853639
0.0967368
0.108168
0.118669
0.127519
0.134025
0.138102
0.140516
0.141735
0.14202
0.141831
0.141598
0.141355
0.0602955
0.0468027
0.0477611
0.0496988
0.0519676
0.0549832
0.0593841
0.0656475
0.0740814
0.0846236
0.0966202
0.109181
0.121019
0.130952
0.138297
0.142751
0.144593
0.14478
0.144039
0.142694
0.141114
0.139552
0.137943
0.0675944
0.0519265
0.0528526
0.0545005
0.0566904
0.0599979
0.065089
0.0722646
0.0817378
0.0933373
0.10603
0.11872
0.130162
0.139232
0.145304
0.148251
0.14865
0.147572
0.145768
0.143583
0.141302
0.139076
0.136786
0.0849011
0.0592937
0.0585146
0.0594823
0.0615617
0.0653636
0.0713426
0.0793186
0.0893409
0.101201
0.113845
0.126183
0.137032
0.145324
0.150396
0.152343
0.152
0.150367
0.148086
0.145496
0.14285
0.14026
0.137639
0.103125
0.0701492
0.0644505
0.0643533
0.0665937
0.0715396
0.0792501
0.0876729
0.097067
0.108365
0.120721
0.133027
0.143691
0.151324
0.155207
0.156078
0.15528
0.153547
0.151202
0.148519
0.145727
0.142923
0.140122
0.131604
0.0757445
0.0680998
0.068239
0.0715028
0.0768232
0.0830867
0.0902908
0.0994833
0.111604
0.126054
0.14083
0.152967
0.159864
0.160619
0.159893
0.159044
0.157461
0.15512
0.152468
0.149716
0.146796
0.143889
0.153364
0.0802144
0.0706394
0.070191
0.0727663
0.0768704
0.0822154
0.0893025
0.0986755
0.110691
0.124817
0.139537
0.151167
0.15747
0.160549
0.162506
0.163858
0.162562
0.159746
0.157125
0.15474
0.151732
0.14841
0.16991
0.0844345
0.0721884
0.0705284
0.0722718
0.075746
0.0804136
0.0866778
0.0952938
0.106255
0.118729
0.131133
0.141395
0.148869
0.154066
0.158463
0.161789
0.161659
0.160046
0.158346
0.156772
0.154255
0.151154
0.182281
0.087369
0.0730819
0.0702947
0.0712556
0.0740657
0.0781124
0.083552
0.0909941
0.100523
0.11136
0.12199
0.130714
0.137234
0.14246
0.147016
0.150371
0.152146
0.153238
0.153944
0.154003
0.152563
0.150924
0.188592
0.0884453
0.0730634
0.0695966
0.0700238
0.0723646
0.0759102
0.0806045
0.0868404
0.0947502
0.103762
0.112706
0.12033
0.12634
0.131425
0.135741
0.139094
0.141452
0.143343
0.145022
0.146081
0.146081
0.145763
0.188598
0.0877366
0.0720886
0.0683077
0.0684091
0.0704267
0.0736387
0.0778335
0.0831685
0.0897584
0.0972471
0.104832
0.111526
0.116976
0.121514
0.125402
0.128558
0.13101
0.133072
0.134863
0.136242
0.136974
0.137441
0.184179
0.0855795
0.070268
0.0664494
0.0663751
0.0681583
0.0711105
0.074966
0.079712
0.0853858
0.0917735
0.0982788
0.104183
0.109097
0.113123
0.116497
0.119284
0.121528
0.123382
0.124961
0.126239
0.127111
0.127809
0.177039
0.0824591
0.06783
0.0641385
0.0639837
0.0655836
0.0683016
0.071867
0.0761886
0.081222
0.0868059
0.0924977
0.0977649
0.10225
0.105909
0.10889
0.111313
0.113249
0.114796
0.116049
0.11705
0.117789
0.118402
0.168395
0.0788189
0.0650052
0.0615123
0.0613272
0.0627724
0.0652609
0.0685379
0.072482
0.0770094
0.0819748
0.087034
0.0917968
0.0959472
0.0993712
0.102125
0.104309
0.106004
0.107296
0.108273
0.109006
0.109539
0.109949
0.158969
0.0749175
0.0619575
0.0586861
0.0584951
0.0598032
0.0620638
0.0650418
0.0686131
0.0726809
0.0771157
0.081651
0.0859854
0.0898563
0.0931209
0.0957662
0.0978459
0.0994291
0.100592
0.101418
0.101986
0.102365
0.102593
0.14911
0.0708665
0.0587823
0.0557425
0.0555605
0.0567472
0.0587892
0.0614677
0.0646661
0.0682928
0.0722381
0.076296
0.0802344
0.0838386
0.0869618
0.0895491
0.09161
0.0931874
0.0943419
0.0951457
0.0956739
0.096005
0.0961453
0.138992
0.0667212
0.0555359
0.0527374
0.0525784
0.0536622
0.0555044
0.0578997
0.0607404
0.0639466
0.0674308
0.0710351
0.0745847
0.0779078
0.0808693
0.0833944
0.0854609
0.087084
0.0883036
0.0891758
0.0897644
0.0901445
0.090298
0.128767
0.0625183
0.0522525
0.049708
0.0495877
0.0505907
0.0522605
0.0544028
0.0569184
0.0597392
0.0627974
0.0659722
0.0691382
0.0721614
0.0749266
0.0773551
0.0794072
0.0810762
0.0823814
0.0833608
0.0840627
0.0845523
0.0847921
0.118528
0.058283
0.0489547
0.0466794
0.0466161
0.0475631
0.0490928
0.0510216
0.0532572
0.0557411
0.0584189
0.0612009
0.0640006
0.0667167
0.0692566
0.0715486
0.0735463
0.0752295
0.0766012
0.0776823
0.0785055
0.079122
0.0794814
0.108368
0.0540388
0.0456617
0.0436722
0.0436856
0.0446025
0.0460265
0.0477848
0.0497911
0.0519949
0.0543452
0.0567848
0.0592509
0.0616705
0.0639733
0.0660989
0.0680027
0.0696583
0.0710576
0.0722085
0.0731296
0.073858
0.0743355
0.0983635
0.0498166
0.0423984
0.0407104
0.0408195
0.0417314
0.0430829
0.0447129
0.0465415
0.0485177
0.0506021
0.0527556
0.0549331
0.0570838
0.0591564
0.0611035
0.0628861
0.0644773
0.0658633
0.067043
0.0680243
0.0688313
0.0694043
0.0886612
0.0456763
0.0392072
0.0378294
0.0380495
0.0389786
0.0402877
0.0418266
0.0435195
0.045321
0.0471986
0.049123
0.0510627
0.052983
0.0548476
0.0566208
0.0582713
0.0597746
0.0611153
0.0622869
0.06329
0.064139
0.0647759
0.0796072
0.0417573
0.0361636
0.0350845
0.035422
0.0363831
0.0376707
0.0391481
0.040744
0.0424168
0.0441386
0.0458866
0.0476387
0.0493711
0.0510585
0.0526753
0.054197
0.0556035
0.0568796
0.0580168
0.0590116
0.0598709
0.0605424
0.071723
0.038201
0.033352
0.0325405
0.0329919
0.0339933
0.0352759
0.0367145
0.0382431
0.0398233
0.0414305
0.0430466
0.0446552
0.0462399
0.0477834
0.0492673
0.0506735
0.0519857
0.0531909
0.0542799
0.0552472
0.0560954
0.0567787
0.0649125
0.0350475
0.0308402
0.030268
0.0308272
0.0318726
0.0331597
0.0345742
0.0360553
0.0375681
0.0390908
0.0406083
0.0421084
0.0435794
0.0450093
0.0463851
0.0476934
0.0489216
0.0500587
0.0510962
0.0520279
0.0528535
0.0535351
0.0593258
0.0323904
0.0287201
0.0283547
0.0290097
0.0300952
0.0313879
0.0327833
0.0342263
0.0356855
0.0371419
0.0385829
0.039999
0.0413818
0.0427228
0.0440125
0.0452412
0.046399
0.0474769
0.0484671
0.0493637
0.0501648
0.0508391
0.0551788
0.0303668
0.0271052
0.026901
0.0276285
0.0287398
0.0300284
0.0313992
0.0328026
0.0342109
0.0356081
0.0369836
0.0383301
0.0396414
0.0409112
0.0421326
0.0432981
0.0443999
0.0454304
0.0463828
0.0472515
0.0480335
0.0487039
0.0526607
0.0291199
0.0261142
0.0260084
0.0267709
0.0278804
0.0291432
0.0304722
0.0318234
0.0331732
0.0345081
0.0358197
0.0371023
0.038351
0.0395611
0.0407272
0.0418434
0.0429032
0.0439
0.0448278
0.0456811
0.0464562
0.0471329
0.0518654
0.0287738
0.0258541
0.025768
0.0265123
0.0275777
0.0287795
0.0300377
0.0313137
0.0325878
0.033849
0.0350906
0.036308
0.0374972
0.0386542
0.0397746
0.0408533
0.0418847
0.0428631
0.043783
0.0446391
0.0454266
0.0461282
0.0527996
0.0294188
0.0264138
0.0262551
0.0269114
0.0278738
0.0289645
0.0301103
0.031278
0.0324512
0.0336206
0.0347807
0.0359269
0.0370557
0.038163
0.039245
0.0402971
0.0413145
0.0422925
0.0432263
0.0441107
0.0449398
0.045696
0.0554025
0.0311306
0.0278754
0.0275364
0.0280128
0.0287917
0.0297029
0.0306809
0.0316971
0.0327371
0.033792
0.0348554
0.035922
0.0369874
0.0380472
0.0390974
0.0401343
0.0411542
0.0421541
0.043131
0.0440804
0.0449944
0.0458526
0.0596216
0.034011
0.0303473
0.0296909
0.0298576
0.0303383
0.0309764
0.0317143
0.0325258
0.0333949
0.0343094
0.0352597
0.0362375
0.0372364
0.0382507
0.0392765
0.0403109
0.041353
0.0424036
0.0434643
0.0445331
0.0455987
0.0466324
0.0654937
0.0382965
0.0340405
0.0328509
0.0324986
0.0325074
0.0327414
0.0331468
0.0336909
0.0343478
0.035096
0.0359178
0.0367991
0.0377294
0.0387013
0.0397107
0.0407571
0.0418451
0.0429844
0.0441872
0.0454587
0.046782
0.0481065
0.0734138
0.044631
0.0394382
0.037273
0.0360181
0.035276
0.0349221
0.0348803
0.0350883
0.0354933
0.0360529
0.0367348
0.0375151
0.0383772
0.0393111
0.0403129
0.0413871
0.0425488
0.0438265
0.0452571
0.0468654
0.0486225
0.05042
0.0851882
0.0549058
0.0476723
0.0434333
0.0405177
0.0385758
0.0373886
0.0367722
0.0365806
0.0367037
0.0370625
0.0376012
0.0382817
0.0390794
0.0399808
0.0409837
0.0421005
0.0433661
0.0448461
0.0466336
0.0488059
0.0513099
0.0538666
0.110003
0.0749987
0.0612282
0.0520222
0.0459979
0.042208
0.0399163
0.0386206
0.0379952
0.0378316
0.0379955
0.0384003
0.0389903
0.0397316
0.0406072
0.0416175
0.0427874
0.0441837
0.0459398
0.0482708
0.051402
0.0552646
0.0590162
0.226898
0.122972
0.0840727
0.0632183
0.0519331
0.0456715
0.0421324
0.0401561
0.0391318
0.0387198
0.0387221
0.039019
0.0395379
0.040236
0.0410931
0.042113
0.0433361
0.0448711
0.0469567
0.050042
0.0547594
0.0612568
0.0667773
1.40235
0.193316
0.11178
0.0734843
0.0564105
0.0479812
0.0435021
0.0410618
0.0397832
0.0392199
0.0391267
0.0393613
0.0398396
0.040513
0.0413598
0.0423862
0.0436444
0.0452798
0.0476396
0.051485
0.0582678
0.0695501
0.077175
0.457296
0.393933
0.430031
0.558764
0.203446
0.206071
0.203704
0.194786
0.163224
0.164394
0.161684
0.155392
0.148412
0.147933
0.145743
0.142119
0.140472
0.139317
0.137434
0.134953
0.13617
0.134748
0.133019
0.13104
0.134614
0.133088
0.131439
0.129694
0.135293
0.133718
0.1321
0.130457
0.137729
0.136135
0.134519
0.132921
0.141695
0.140204
0.138527
0.136834
0.146241
0.144885
0.143189
0.141221
0.149013
0.147822
0.146518
0.144697
0.149758
0.148596
0.147105
0.145736
0.145257
0.144524
0.143668
0.142715
0.137395
0.137032
0.136571
0.135974
0.127992
0.127841
0.127599
0.127204
0.118608
0.118529
0.118366
0.118065
0.110071
0.109979
0.109814
0.109543
0.102623
0.102504
0.102321
0.102059
0.0961287
0.0960071
0.0958272
0.0955871
0.0902987
0.0902084
0.090064
0.0898708
0.0848577
0.0848252
0.0847411
0.0846155
0.0796362
0.079674
0.0796628
0.079613
0.0745794
0.0746853
0.0747446
0.0747684
0.0697231
0.0698856
0.0700054
0.0700907
0.0651484
0.0653522
0.0655168
0.065649
0.0609479
0.0611788
0.0613747
0.0615394
0.0572008
0.0574468
0.0576612
0.0578466
0.0539631
0.0542163
0.0544413
0.0546388
0.0512682
0.0515248
0.0517556
0.0519612
0.049135
0.0493951
0.049632
0.049845
0.0475725
0.0478403
0.0480867
0.0483108
0.0465898
0.0468736
0.0471376
0.0473805
0.0462018
0.0465157
0.0468106
0.0470849
0.0464376
0.0468037
0.0471506
0.0474757
0.0473505
0.0478022
0.0482321
0.048637
0.0490393
0.049626
0.050184
0.0507082
0.0516877
0.0524792
0.0532253
0.0539191
0.0556385
0.0567259
0.057732
0.0586471
0.0615274
0.0630156
0.0643427
0.0655027
0.0705123
0.0725093
0.0741385
0.0754501
0.0849575
0.0874357
0.0889294
0.089894
0.196284
0.131973
0.113299
0.10594
0.102642
0.100566
0.0976091
0.0937751
0.0902565
0.0868336
0.0826612
0.0777516
0.0723409
0.0667504
0.0615146
0.0570439
0.0543261
0.0569174
0.100086
0.157019
0.131956
0.119756
0.113021
0.108879
0.105215
0.1006
0.0958971
0.0921401
0.0888393
0.0851296
0.0806737
0.0754999
0.0699343
0.064491
0.059757
0.0570135
0.0598078
0.0919594
0.142632
0.129806
0.121889
0.116583
0.112564
0.108416
0.103371
0.0982474
0.0941426
0.0908149
0.087445
0.0834675
0.0786736
0.0731957
0.0674297
0.0621718
0.0590816
0.0615991
0.086036
0.135486
0.127333
0.121528
0.117238
0.113635
0.109702
0.104909
0.0999471
0.0957617
0.0923572
0.0891846
0.0856878
0.0815544
0.0766931
0.0711398
0.0654902
0.061385
0.0615119
0.0795059
0.130688
0.124927
0.120301
0.116549
0.113162
0.109519
0.105284
0.10086
0.0968685
0.0934619
0.0903748
0.0872246
0.0837371
0.0797557
0.0751614
0.070115
0.0653267
0.0619484
0.072931
0.127835
0.12335
0.119403
0.115937
0.112681
0.109301
0.105594
0.101717
0.0980438
0.0947405
0.0917159
0.0887632
0.0856958
0.0823878
0.0786854
0.0744923
0.06976
0.0638131
0.0665041
0.126965
0.123117
0.119545
0.116248
0.113097
0.109929
0.106616
0.103198
0.099854
0.0967017
0.0937355
0.0908696
0.0880046
0.0849892
0.0815719
0.0774162
0.0720899
0.0648386
0.0632176
0.127945
0.124398
0.121019
0.117825
0.114758
0.111751
0.108727
0.105662
0.102619
0.0996454
0.0967663
0.0939866
0.0912524
0.0884396
0.085245
0.0812073
0.0761058
0.0696554
0.0717899
0.130498
0.127083
0.123787
0.12064
0.117614
0.114712
0.11189
0.109095
0.106321
0.103531
0.100756
0.0981294
0.0957557
0.09351
0.0910382
0.0882578
0.0854656
0.0827018
0.0962161
0.134361
0.1309
0.127606
0.124429
0.121335
0.11841
0.115643
0.112965
0.110397
0.107774
0.105014
0.102434
0.10062
0.0991595
0.0976858
0.0959889
0.0962506
0.0997959
0.133175
0.13852
0.134855
0.131346
0.127879
0.124542
0.121467
0.118796
0.116704
0.11468
0.111914
0.108591
0.105311
0.102931
0.101048
0.0983226
0.0959204
0.0963562
0.103247
0.16376
0.142221
0.138633
0.134826
0.131066
0.127495
0.124066
0.120894
0.118482
0.116494
0.113834
0.10981
0.105415
0.101402
0.0981465
0.0947204
0.0916173
0.0908373
0.0989896
0.181897
0.14372
0.140507
0.136693
0.132862
0.12914
0.125232
0.121186
0.117749
0.115164
0.112499
0.108492
0.10315
0.0980235
0.0936551
0.0900704
0.0873108
0.0874368
0.0985028
0.192074
0.141131
0.13835
0.134809
0.131
0.127108
0.122947
0.118554
0.114617
0.111549
0.108724
0.104852
0.0994458
0.0938826
0.0891927
0.0855323
0.0832126
0.0843042
0.0976272
0.197846
0.13479
0.132496
0.129319
0.125745
0.121936
0.117837
0.113555
0.109635
0.106421
0.103422
0.0996336
0.0947016
0.0895086
0.0849989
0.081514
0.0796336
0.081627
0.0964905
0.203238
0.126286
0.124428
0.121725
0.118542
0.115047
0.111292
0.107433
0.103817
0.100645
0.0975759
0.0939645
0.0896384
0.0851853
0.0812121
0.0781273
0.0766956
0.0792783
0.0950614
0.206315
0.117306
0.11573
0.113449
0.110731
0.107708
0.104472
0.101161
0.0979809
0.0950117
0.0920325
0.0887113
0.0850073
0.0812507
0.0778415
0.0751849
0.0741099
0.0769656
0.0929464
0.205463
0.108865
0.10748
0.105549
0.103285
0.100766
0.0980722
0.0953046
0.0925689
0.0898849
0.0871285
0.0841465
0.0809498
0.0777378
0.0747823
0.0724581
0.071581
0.0744199
0.0899614
0.200587
0.101416
0.100175
0.0985417
0.0966654
0.0945914
0.0923719
0.0900669
0.0877241
0.0853385
0.082843
0.0801746
0.0773624
0.0745353
0.0718921
0.0697696
0.0689348
0.0715308
0.086162
0.192395
0.0949906
0.0938781
0.0924932
0.0909292
0.0892098
0.0873628
0.0854173
0.0833889
0.0812644
0.0790073
0.0765947
0.0740572
0.0714851
0.0690336
0.0670024
0.0660975
0.0683153
0.081758
0.181836
0.0893529
0.0883766
0.0872055
0.085891
0.0844436
0.0828754
0.081196
0.0794049
0.0774876
0.0754228
0.0732035
0.0708562
0.0684482
0.0661073
0.0641007
0.0630738
0.0648699
0.0770305
0.170059
0.0842082
0.0833814
0.0824038
0.0812948
0.0800592
0.0787003
0.0772172
0.0756031
0.0738444
0.071928
0.0698525
0.0676399
0.0653436
0.0630735
0.061071
0.0599268
0.0613405
0.0722877
0.158059
0.0793309
0.078664
0.0778634
0.0769309
0.0758677
0.074673
0.0733415
0.0718645
0.0702309
0.0684324
0.0664704
0.0643639
0.0621588
0.0599539
0.0579718
0.0567585
0.0578854
0.0677963
0.146754
0.0746117
0.0741027
0.0734637
0.0726865
0.0717706
0.0707129
0.0695069
0.0681444
0.0666174
0.0649214
0.0630601
0.0610519
0.0589398
0.0568171
0.0548942
0.0536825
0.0546462
0.0637597
0.136662
0.0700436
0.0696814
0.0691865
0.0685467
0.0677601
0.0668225
0.0657274
0.0644683
0.0630402
0.0614421
0.0596806
0.0577756
0.0557704
0.0537572
0.0519391
0.0508028
0.0517249
0.0602808
0.128123
0.065692
0.0654572
0.0650865
0.0645665
0.0638941
0.0630643
0.0620711
0.0609098
0.0595785
0.0580793
0.0564223
0.05463
0.0527483
0.0508709
0.0491974
0.0481964
0.0491757
0.0573832
0.121094
0.061651
0.0615195
0.0612523
0.060835
0.060263
0.0595304
0.0586321
0.057565
0.0563296
0.0549314
0.0533835
0.0517119
0.049966
0.0482418
0.0467379
0.0459095
0.047009
0.0550171
0.115483
0.0580091
0.0579596
0.0577773
0.0574471
0.0569625
0.0563176
0.0555074
0.0545304
0.0533892
0.0520919
0.0506544
0.0491062
0.0474997
0.0459335
0.0446057
0.0439603
0.0452055
0.0531072
0.110992
0.0548375
0.0548543
0.0547421
0.0544858
0.0540776
0.0535113
0.0527825
0.0518907
0.0508401
0.0496405
0.0483104
0.0468814
0.0454086
0.0439922
0.042829
0.0423538
0.0437369
0.0515702
0.107455
0.0521889
0.0522617
0.0522092
0.052017
0.0516767
0.0511816
0.050528
0.0497159
0.0487505
0.047643
0.0464131
0.0450939
0.0437416
0.0424565
0.041433
0.0410965
0.0425862
0.0503576
0.104646
0.050099
0.0502234
0.0502257
0.0500924
0.0498146
0.0493857
0.0488021
0.0480647
0.0471791
0.0461569
0.0450184
0.0437968
0.0425481
0.041371
0.0404557
0.0402178
0.0417701
0.0494654
0.102582
0.0485949
0.0487737
0.048832
0.0487571
0.0485402
0.048175
0.0476588
0.0469927
0.0461825
0.0452401
0.0441855
0.0430511
0.0418911
0.040801
0.0399647
0.0397871
0.0413596
0.0489707
0.101302
0.047705
0.0479489
0.0480709
0.0480591
0.0479053
0.0476049
0.0471559
0.0465604
0.0458245
0.0449599
0.0439861
0.0429345
0.0418568
0.040844
0.0400725
0.0399347
0.0415051
0.0490506
0.101185
0.047469
0.047798
0.0479979
0.0480586
0.0479743
0.0477426
0.0473639
0.0468415
0.0461826
0.0453993
0.0445108
0.043548
0.042561
0.0416372
0.0409455
0.0408662
0.0424619
0.0500331
0.102729
0.0479487
0.0483928
0.0486914
0.0488381
0.048832
0.0486753
0.0483723
0.0479291
0.0473545
0.046662
0.0458721
0.0450172
0.0441493
0.0433569
0.0428071
0.0428739
0.0446191
0.0524442
0.106923
0.0492416
0.0498408
0.0502635
0.0505111
0.0505922
0.0505173
0.0502966
0.0499405
0.0494609
0.0488739
0.0482039
0.0474887
0.0467892
0.0462066
0.0459237
0.046331
0.0485192
0.0570877
0.115078
0.0515009
0.0523021
0.0528729
0.0532324
0.0534058
0.0534163
0.0532829
0.0530215
0.0526483
0.0521838
0.0516585
0.0511215
0.0506536
0.0503898
0.0505669
0.0516537
0.0548616
0.0651623
0.12949
0.054966
0.0560098
0.0567393
0.0572081
0.0574681
0.0575601
0.0575135
0.0573506
0.0570918
0.0567627
0.0564022
0.0560756
0.0558962
0.0560628
0.0569324
0.0591904
0.0644297
0.0784779
0.154094
0.060004
0.0612944
0.0621571
0.062705
0.0630269
0.0631834
0.0632133
0.0631438
0.0629985
0.0628066
0.0626144
0.0625043
0.0626286
0.0632758
0.0650072
0.0689683
0.0777857
0.0997889
0.198345
0.0671576
0.0686014
0.0695021
0.070056
0.0703889
0.070575
0.0706572
0.0706629
0.0706152
0.0705431
0.0704946
0.0705597
0.0709166
0.0719342
0.0744136
0.0802194
0.0942224
0.13241
0.28778
0.07718
0.078487
0.0792292
0.0796663
0.0799322
0.0800942
0.0801876
0.0802331
0.0802482
0.0802552
0.0802923
0.0804352
0.0808427
0.0818733
0.0844048
0.0908513
0.109112
0.173772
0.509118
0.0909411
0.0915505
0.0918529
0.0920225
0.0921273
0.0921958
0.0922413
0.0922717
0.0922936
0.0923159
0.0923544
0.0924412
0.0926458
0.0931362
0.0943752
0.097918
0.110766
0.185059
1.31934
)
;

boundaryField
{
    leftWall
    {
        type            epsilonWallFunction;
        value           nonuniform List<scalar> 
50
(
0.00493184
0.00935239
0.0161321
0.0226162
0.0282733
0.0330256
0.0370046
0.0404227
0.0450154
0.0544288
0.0521931
0.0510608
0.0545341
0.0602955
0.0675944
0.0849011
0.103125
0.131604
0.153364
0.16991
0.182281
0.188592
0.188598
0.184179
0.177039
0.168395
0.158969
0.14911
0.138992
0.128767
0.118528
0.108368
0.0983635
0.0886612
0.0796072
0.071723
0.0649125
0.0593258
0.0551788
0.0526607
0.0518654
0.0527996
0.0554025
0.0596216
0.0654937
0.0734138
0.0851882
0.110003
0.226898
1.40235
)
;
    }
    rightWall
    {
        type            epsilonWallFunction;
        value           nonuniform List<scalar> 
50
(
0.0185905
0.0257122
0.0384196
0.0482848
0.0595886
0.0727115
0.0836245
0.0968406
0.100086
0.0919594
0.086036
0.0795059
0.072931
0.0665041
0.0632176
0.0717899
0.0962161
0.133175
0.16376
0.181897
0.192074
0.197846
0.203238
0.206315
0.205463
0.200587
0.192395
0.181836
0.170059
0.158059
0.146754
0.136662
0.128123
0.121094
0.115483
0.110992
0.107455
0.104646
0.102582
0.101302
0.101185
0.102729
0.106923
0.115078
0.12949
0.154094
0.198345
0.28778
0.509118
1.31934
)
;
    }
    lowerWall
    {
        type            epsilonWallFunction;
        value           nonuniform List<scalar> 
62
(
0.00493184
0.0197018
0.0353303
0.0517114
0.0691712
0.0876995
0.106982
0.126391
0.145343
0.163339
0.180224
0.195808
0.209649
0.22113
0.229634
0.234335
0.234215
0.227788
0.212832
0.185957
0.142955
0.0807962
0.0130151
0.0130151
0.0261273
0.0475176
0.0719044
0.101274
0.140628
0.20691
0.365656
0.457296
0.393933
0.430031
0.558764
0.0128748
0.0250633
0.0472022
0.0726459
0.0952773
0.1202
0.176432
0.342991
0.0128748
0.06619
0.135413
0.20477
0.249945
0.279871
0.298903
0.286074
0.270105
0.257452
0.238452
0.216244
0.18644
0.160912
0.139069
0.113977
0.085925
0.055726
0.0185905
)
;
    }
    atmosphere
    {
        type            inletOutlet;
        inletValue      uniform 0.1;
        value           nonuniform List<scalar> 
46
(
0.1
0.1
0.11178
0.0734843
0.0564105
0.0479812
0.0435021
0.0410618
0.0397832
0.0392199
0.0391267
0.0393613
0.0398396
0.040513
0.0413598
0.0423862
0.0436444
0.0452798
0.0476396
0.051485
0.0582678
0.0695501
0.077175
0.1
0.1
0.1
0.1
0.1
0.1
0.1
0.1
0.1
0.1
0.1
0.1
0.1
0.1
0.1
0.1
0.1
0.1
0.1
0.1
0.1
0.1
0.1
)
;
    }
    defaultFaces
    {
        type            empty;
    }
}


// ************************************************************************* //
