/*--------------------------------*- C++ -*----------------------------------*\
  =========                 |
  \\      /  F ield         | OpenFOAM: The Open Source CFD Toolbox
   \\    /   O peration     | Website:  https://openfoam.org
    \\  /    A nd           | Version:  13
     \\/     M anipulation  |
\*---------------------------------------------------------------------------*/
FoamFile
{
    format      ascii;
    class       volScalarField;
    location    "2.1";
    object      k;
}
// * * * * * * * * * * * * * * * * * * * * * * * * * * * * * * * * * * * * * //

dimensions      [0 2 -2 0 0 0 0];

internalField   nonuniform List<scalar> 
2268
(
0.0011137
0.00275617
0.00405611
0.00522767
0.00634485
0.00743005
0.00847871
0.0094725
0.0103997
0.0112449
0.0120114
0.0126986
0.0132979
0.0137951
0.0141618
0.0143669
0.0143712
0.0141131
0.0134924
0.0123363
0.0103622
0.00709539
0.00210219
0.00278772
0.00676723
0.00947955
0.0119358
0.0142785
0.0165397
0.0187117
0.0207757
0.0227088
0.0244876
0.0261133
0.027579
0.0288644
0.0299412
0.0307641
0.0312615
0.0313383
0.0308521
0.0295841
0.0271887
0.0231213
0.0165347
0.00551318
0.00399195
0.00925479
0.0126374
0.0156423
0.0184959
0.0212386
0.0238689
0.0263731
0.0287292
0.0309193
0.0329398
0.0347797
0.0364146
0.0378047
0.03889
0.0395822
0.0397603
0.0392506
0.0377932
0.0349828
0.0301683
0.022253
0.00820885
0.00498828
0.0111934
0.0150166
0.0183639
0.0215299
0.0245722
0.0274915
0.0302766
0.0329099
0.0353771
0.0376741
0.0397893
0.0416932
0.0433382
0.0446508
0.0455333
0.0458503
0.0454148
0.0439555
0.0410486
0.0359749
0.0273218
0.0108173
0.00578271
0.0127741
0.0169563
0.0205689
0.0239734
0.0272461
0.0303894
0.0333953
0.0362503
0.0389453
0.041479
0.0438391
0.045993
0.0478835
0.0494285
0.0505183
0.0510118
0.0507201
0.0493771
0.0465664
0.0415326
0.032527
0.0135755
0.00641248
0.0140737
0.0185837
0.0224329
0.0260482
0.0295205
0.0328565
0.0360541
0.0391054
0.0420075
0.044765
0.0473654
0.0497716
0.0519178
0.0537114
0.0550338
0.055739
0.0556434
0.0545005
0.0519267
0.0471775
0.038255
0.0168755
0.00692012
0.0151562
0.0199795
0.0240591
0.027876
0.0315336
0.0350448
0.0384161
0.0416492
0.0447499
0.0477304
0.050579
0.0532514
0.0556719
0.0577359
0.059316
0.0602621
0.0603992
0.059509
0.0572604
0.0529985
0.044727
0.0218192
0.00735324
0.0160931
0.0212251
0.0255298
0.0295419
0.0333746
0.0370475
0.0405795
0.0439843
0.0472794
0.0504916
0.0536072
0.0565697
0.0592874
0.0616419
0.0634961
0.0646948
0.0650769
0.064457
0.0625681
0.0589102
0.0519264
0.0319158
0.00207348
0.00632551
0.01016
0.0133266
0.0151926
0.0163435
0.0169964
0.0165115
0.0158661
0.0153479
0.0145696
0.0136287
0.0123157
0.01113
0.0100922
0.00883719
0.00731278
0.00544885
0.00260111
0.00574238
0.0156565
0.0233558
0.0291865
0.0327265
0.0348385
0.0360116
0.0356777
0.0343394
0.032823
0.0310306
0.0290717
0.0265783
0.0241674
0.0220332
0.0194305
0.0162842
0.0122794
0.00573829
0.0087566
0.022254
0.0313065
0.0377763
0.0417664
0.044248
0.0455834
0.0452113
0.0435033
0.0414681
0.0392013
0.0367543
0.033862
0.0309364
0.0280691
0.0248154
0.0210261
0.0161434
0.00748354
0.0117034
0.0283389
0.0380256
0.0445558
0.0486499
0.0512809
0.0525729
0.051987
0.0499506
0.0475725
0.0450018
0.0421928
0.0389612
0.03564
0.0322879
0.0286095
0.0244288
0.018967
0.0087318
0.0140343
0.0341388
0.0441924
0.0505008
0.0544946
0.0571263
0.0582823
0.0573951
0.0551667
0.0525322
0.0496493
0.0465379
0.0430521
0.0393785
0.0356318
0.0316531
0.0272072
0.0213392
0.0100519
0.016459
0.0400181
0.0501259
0.0559564
0.0595817
0.061974
0.0629092
0.0617753
0.0595037
0.0567622
0.0536175
0.0501487
0.0464695
0.0425441
0.0384696
0.034235
0.0295521
0.0234261
0.0115024
0.0212958
0.0464064
0.055995
0.0611067
0.0642279
0.0662043
0.0667671
0.0654289
0.0630893
0.0602769
0.0569828
0.0533152
0.0493926
0.0452447
0.0409302
0.036448
0.0315082
0.0252247
0.0126895
0.0331409
0.0538091
0.0617816
0.0660134
0.0685817
0.0700429
0.0700898
0.0684916
0.0660529
0.0631923
0.0598196
0.0560298
0.0519427
0.0475932
0.0430646
0.0383307
0.0330826
0.0265078
0.0141076
0.00792752
0.0173323
0.022968
0.0276429
0.0319633
0.036035
0.0399086
0.043652
0.0473214
0.0509598
0.054591
0.0581855
0.0616591
0.0648887
0.06773
0.0700256
0.0716223
0.0723879
0.0721934
0.070872
0.0681717
0.0634625
0.0544126
0.00904353
0.0192037
0.0251921
0.0301488
0.0346428
0.0388896
0.0430074
0.0470933
0.0512367
0.0555088
0.0599157
0.0643863
0.0687677
0.0728668
0.0764842
0.0794299
0.081551
0.0827696
0.0830338
0.0822619
0.0803511
0.0772248
0.0730152
0.00883053
0.0200156
0.026704
0.0321207
0.0368874
0.0413434
0.0457486
0.0502793
0.055075
0.0602244
0.0656809
0.0712831
0.0767554
0.0818062
0.0861725
0.0896133
0.0919942
0.0933368
0.0936628
0.0929015
0.0911282
0.0886538
0.0861765
0.00860209
0.0202833
0.0276544
0.0335325
0.0386414
0.043455
0.0483573
0.0536014
0.0593741
0.0657179
0.0724652
0.0793252
0.0858699
0.0917065
0.0965256
0.100038
0.102145
0.103009
0.102764
0.101445
0.0993084
0.0969369
0.0950583
0.00895076
0.0207438
0.0286564
0.0349513
0.0404821
0.0458188
0.0514292
0.0576501
0.0646354
0.07228
0.0802762
0.088194
0.0954461
0.101539
0.106169
0.109079
0.110294
0.110218
0.109141
0.107304
0.105091
0.102978
0.101421
0.00957105
0.0221857
0.0304569
0.0370967
0.0430172
0.0488951
0.0552828
0.0624743
0.07052
0.0792062
0.0880207
0.0964148
0.103739
0.10948
0.113406
0.115471
0.115885
0.115152
0.113695
0.111786
0.109747
0.107898
0.106445
0.0104542
0.0240815
0.0329143
0.0398768
0.0461741
0.0525903
0.0596641
0.0675382
0.0761929
0.0853786
0.0944454
0.102804
0.109877
0.115213
0.118623
0.120154
0.120156
0.119185
0.117665
0.115855
0.114004
0.112312
0.110839
0.0125528
0.0267046
0.0362086
0.0434573
0.0500239
0.0569016
0.0645393
0.0728137
0.0816437
0.0908192
0.0997404
0.107854
0.114627
0.119637
0.122686
0.12393
0.123831
0.122899
0.121488
0.119831
0.118128
0.116508
0.11499
0.0135563
0.028626
0.0397401
0.0474805
0.0544426
0.0619427
0.0703499
0.0786491
0.0869404
0.0956566
0.104325
0.112359
0.119012
0.123726
0.126308
0.12723
0.127147
0.126413
0.125221
0.12376
0.122192
0.120608
0.119044
0.0159164
0.032848
0.0432017
0.0514378
0.0590071
0.0666119
0.0740794
0.0815306
0.0895305
0.0985132
0.108075
0.117133
0.124314
0.1286
0.129831
0.130224
0.130326
0.129852
0.128851
0.127584
0.126183
0.12464
0.123058
0.0176307
0.0363061
0.0465046
0.0544602
0.0615889
0.0683904
0.0751685
0.0823828
0.0903439
0.0991744
0.108497
0.117468
0.124361
0.12839
0.130746
0.13244
0.133643
0.13341
0.132342
0.131248
0.130147
0.128651
0.126923
0.0189639
0.0387042
0.0487452
0.0562917
0.0629091
0.0692002
0.0754507
0.0821047
0.0895953
0.0978412
0.106318
0.114176
0.120488
0.125141
0.128541
0.13141
0.13356
0.133943
0.133543
0.132988
0.132355
0.131155
0.129588
0.0199468
0.0403545
0.0502535
0.0574287
0.0636207
0.0694498
0.0752287
0.0813186
0.0881099
0.0955858
0.103247
0.110278
0.115915
0.120203
0.123705
0.12672
0.128968
0.130331
0.131277
0.131921
0.132114
0.131475
0.130649
0.0204758
0.0412144
0.051019
0.0579734
0.063896
0.0694218
0.074839
0.0804183
0.0864753
0.0930588
0.0997982
0.106048
0.111231
0.115351
0.118853
0.12181
0.12413
0.125847
0.127249
0.12844
0.129195
0.129306
0.129159
0.0205464
0.0413607
0.0510939
0.0579143
0.0636667
0.0689937
0.074177
0.0794086
0.0849028
0.0907389
0.0966905
0.102305
0.107102
0.111005
0.114273
0.117062
0.119341
0.121157
0.122693
0.123998
0.124982
0.125523
0.125819
0.0202838
0.0409149
0.050572
0.0573027
0.0629357
0.0681158
0.0731276
0.0781293
0.083253
0.0885633
0.0939368
0.0990329
0.103491
0.107176
0.110216
0.112774
0.114901
0.116645
0.118104
0.119337
0.120318
0.120984
0.121456
0.0198009
0.040034
0.0495823
0.0562308
0.0617625
0.0668148
0.0716765
0.0764947
0.0813606
0.0863077
0.0912595
0.0959622
0.100144
0.103659
0.106545
0.108924
0.110885
0.112488
0.113802
0.114882
0.115745
0.116378
0.116851
0.0191789
0.0388579
0.0482487
0.0547993
0.0602274
0.0651529
0.0698644
0.074507
0.0791537
0.0838223
0.0884547
0.0928549
0.0968213
0.100215
0.10302
0.105309
0.107164
0.108654
0.10984
0.110779
0.11151
0.112051
0.112441
0.0184719
0.0374881
0.0466715
0.0530991
0.0584122
0.0632045
0.0677577
0.0722163
0.0766489
0.0810682
0.0854298
0.0895835
0.0933715
0.0966731
0.0994443
0.101714
0.103541
0.104987
0.106112
0.106972
0.107616
0.10808
0.108381
0.0177102
0.0359912
0.0449252
0.0512058
0.0563912
0.0610434
0.0654319
0.0696984
0.0739118
0.0780885
0.0821977
0.086125
0.0897475
0.0929627
0.0957146
0.0980018
0.0998568
0.101327
0.102463
0.103319
0.103945
0.104385
0.104639
0.0169077
0.0344105
0.043065
0.0491797
0.0542278
0.0587367
0.06296
0.0670339
0.0710282
0.0749655
0.0788294
0.0825339
0.0859866
0.089103
0.0918254
0.0941342
0.0960402
0.0975729
0.0987727
0.099685
0.100355
0.100829
0.101092
0.0160752
0.0327754
0.0411311
0.0470684
0.0519747
0.0563423
0.0604068
0.0642967
0.0680812
0.071789
0.0754161
0.0788986
0.0821726
0.0851708
0.0878401
0.0901527
0.0921043
0.0937091
0.0949945
0.0959957
0.0967505
0.0973014
0.0976214
0.0152187
0.0311069
0.0391545
0.0449099
0.0496758
0.0539093
0.0578277
0.06155
0.0651434
0.0686406
0.0720449
0.0753126
0.078404
0.0812673
0.0838584
0.0861478
0.0881227
0.0897861
0.0911537
0.0922501
0.0931042
0.0937515
0.0941573
0.0143444
0.029422
0.037161
0.0427374
0.0473697
0.0514812
0.0552706
0.0588472
0.0622746
0.0655877
0.0687881
0.0718583
0.0747721
0.077493
0.0799869
0.0822271
0.0841977
0.0858947
0.0873249
0.0885034
0.0894503
0.0901933
0.0906924
0.0134569
0.0277383
0.0351769
0.0405836
0.0450941
0.0490992
0.05278
0.0562356
0.0595259
0.0626789
0.0657051
0.0686013
0.0713515
0.0739327
0.0763203
0.0784927
0.0804346
0.0821383
0.0836047
0.0848419
0.0858622
0.0866858
0.0872708
0.0125677
0.0260783
0.0332337
0.038486
0.0428905
0.0468074
0.0504018
0.0537597
0.0569351
0.0599577
0.0628422
0.0655913
0.0681986
0.0706512
0.0729331
0.0750284
0.0769241
0.078612
0.0800895
0.0813597
0.0824294
0.0833121
0.0839665
0.0117082
0.0244729
0.0313733
0.0364922
0.0408081
0.044653
0.0481765
0.051458
0.054545
0.057466
0.0602376
0.0628671
0.0653547
0.0676949
0.0698787
0.0718957
0.0737361
0.0753924
0.076861
0.0781419
0.079238
0.0801576
0.0808627
0.0109295
0.0229725
0.0296486
0.0346551
0.0388998
0.0426888
0.0461587
0.0493819
0.0524011
0.0552435
0.0579267
0.0604608
0.0628504
0.0650954
0.0671922
0.0691351
0.0709175
0.0725337
0.07398
0.075255
0.0763593
0.0772975
0.0780357
0.0102311
0.0216362
0.0281256
0.0330435
0.0372334
0.0409796
0.0444079
0.0475848
0.0505502
0.0533301
0.0559423
0.0583992
0.0607083
0.0628732
0.0648944
0.0667698
0.0684959
0.0700689
0.0714855
0.0727442
0.0738443
0.0747878
0.0755461
0.00963657
0.0205311
0.0268772
0.0317292
0.035878
0.0395897
0.0429824
0.0461187
0.0490366
0.0517619
0.054313
0.0567038
0.0589439
0.0610397
0.0629945
0.0648091
0.0664825
0.0680125
0.069397
0.0706344
0.0717236
0.0726653
0.0734351
0.00917803
0.0197192
0.0259706
0.0307785
0.0348955
0.0385758
0.0419325
0.0450267
0.0478961
0.0505671
0.0530593
0.0553879
0.0575643
0.059597
0.0614914
0.0632505
0.0648749
0.0663644
0.0677176
0.0689334
0.0700104
0.0709483
0.0717274
0.00888639
0.0192496
0.0254576
0.0302411
0.034332
0.0379785
0.0412929
0.0443369
0.04715
0.0497604
0.0521893
0.0544536
0.0565663
0.0585375
0.0603741
0.0620809
0.0636601
0.0651125
0.0664379
0.0676354
0.0687038
0.0696419
0.0704333
0.00878035
0.0191466
0.0253654
0.0301436
0.0342106
0.0378165
0.0410769
0.0440575
0.0468013
0.0493395
0.0516959
0.0538892
0.055934
0.0578418
0.0596209
0.0612772
0.0628144
0.0642345
0.0655379
0.0667245
0.0677929
0.0687409
0.0695544
0.00886405
0.0194117
0.0256971
0.0304884
0.034531
0.0380852
0.0412756
0.044175
0.0468325
0.0492836
0.051555
0.0536678
0.0556381
0.0574787
0.0591992
0.0608064
0.0623053
0.0636992
0.0649897
0.0661773
0.0672605
0.068236
0.0690893
0.00912769
0.0200279
0.0264379
0.0312598
0.0352734
0.0387598
0.041859
0.0446555
0.0472065
0.0495531
0.0517257
0.0537474
0.055636
0.0574053
0.0590658
0.0606257
0.0620913
0.0634677
0.0647584
0.0659652
0.0670868
0.0681173
0.0690399
0.00955678
0.0209766
0.0275695
0.0324338
0.036405
0.0397986
0.0427785
0.0454458
0.0478678
0.0500917
0.0521516
0.0540724
0.0558728
0.0575675
0.0591678
0.0606834
0.0621227
0.0634937
0.0648035
0.0660569
0.0672529
0.0683816
0.0694191
0.0101418
0.0222558
0.0290864
0.0339892
0.0378858
0.0411461
0.0439687
0.0464752
0.048744
0.0508279
0.0527631
0.0545752
0.0562832
0.057902
0.0594439
0.0609201
0.0623427
0.0637248
0.0650804
0.0664208
0.0677473
0.0690418
0.0702638
0.010904
0.0239302
0.0310284
0.0359208
0.0396711
0.0427316
0.0453455
0.0476552
0.0497475
0.051677
0.0534795
0.0551794
0.0567946
0.0583393
0.0598267
0.0612707
0.0626886
0.0641028
0.0655407
0.0670286
0.0685744
0.0701441
0.0716558
0.011983
0.0262576
0.0335373
0.0382495
0.0417038
0.04446
0.0468008
0.0488778
0.0507758
0.0525441
0.0542133
0.0558037
0.0573306
0.0588069
0.0602465
0.0616669
0.0630935
0.0645643
0.0661322
0.0678564
0.0697669
0.0717988
0.0737593
0.0141207
0.0301649
0.0369732
0.0410075
0.0438805
0.0461887
0.0481923
0.0500137
0.0517146
0.0533282
0.0548746
0.056367
0.0578167
0.0592347
0.0606356
0.0620414
0.0634886
0.0650391
0.0667907
0.0688731
0.071387
0.0742274
0.0768723
0.0232233
0.0396096
0.0421037
0.0441168
0.045964
0.0476917
0.049335
0.050915
0.0524441
0.0539302
0.0553787
0.0567952
0.0581861
0.0595607
0.0609341
0.0623327
0.063806
0.0654458
0.0674167
0.0699817
0.0734473
0.0777713
0.0814071
0.0825046
0.0776431
0.0501934
0.0469475
0.0474247
0.0486272
0.0500057
0.0514274
0.0528513
0.0542622
0.0556547
0.0570285
0.0583868
0.0597375
0.0610961
0.0624921
0.0639843
0.0656896
0.0678387
0.0708677
0.0754982
0.082324
0.0871383
0.0370876
0.033516
0.0355084
0.042351
0.070558
0.0707306
0.0717034
0.0730011
0.0854197
0.0855316
0.085877
0.0861131
0.0945475
0.0944557
0.0943729
0.0941926
0.100775
0.100437
0.100078
0.09966
0.105572
0.105031
0.104474
0.103885
0.109766
0.109077
0.108376
0.107656
0.113772
0.112975
0.112165
0.11134
0.117744
0.116876
0.115984
0.115083
0.121819
0.120959
0.119986
0.118982
0.125699
0.124893
0.12389
0.122728
0.128403
0.127687
0.126873
0.125775
0.129952
0.129264
0.128374
0.127504
0.128807
0.128341
0.127775
0.127127
0.125731
0.125471
0.125126
0.124683
0.121531
0.121407
0.121204
0.120893
0.116979
0.116919
0.116784
0.11655
0.112551
0.112504
0.112389
0.112192
0.108455
0.108404
0.108292
0.108113
0.104693
0.104645
0.104542
0.104382
0.101159
0.101132
0.101052
0.100924
0.0977313
0.097741
0.0977009
0.0976155
0.0943296
0.0943866
0.0943953
0.0943604
0.090933
0.0910396
0.0910989
0.0911159
0.0875755
0.0877277
0.0878343
0.0878987
0.0843246
0.0845148
0.0846607
0.0847654
0.0812617
0.0814813
0.0816588
0.0817955
0.0784637
0.0787046
0.078905
0.0790661
0.0759937
0.0762492
0.0764665
0.0766455
0.0738962
0.0741623
0.074392
0.0745851
0.0721999
0.0724752
0.0727161
0.0729217
0.0709193
0.0712051
0.0714583
0.0716779
0.0700611
0.0703619
0.0706319
0.0708694
0.0696299
0.0699542
0.0702486
0.0705117
0.0696358
0.0699967
0.0703282
0.0706282
0.0701024
0.0705194
0.0709055
0.0712586
0.0710807
0.0715809
0.0720459
0.0724728
0.072671
0.0732905
0.0738642
0.0743886
0.0750592
0.0758416
0.0765555
0.0771973
0.0785757
0.0795676
0.0804414
0.0811988
0.0837883
0.0850403
0.0860442
0.0868449
0.0918339
0.0933242
0.0941911
0.0947403
0.0581474
0.0655687
0.0704493
0.0732757
0.0748968
0.0754466
0.0745628
0.0724584
0.0698825
0.0669948
0.0635824
0.0596743
0.0553742
0.0507461
0.0458993
0.0407528
0.0350031
0.0277555
0.0143645
0.075222
0.0779666
0.0802842
0.0816261
0.0821105
0.0815126
0.0795353
0.0767321
0.0737799
0.0706756
0.0671634
0.0631226
0.0585545
0.0535365
0.0481492
0.0423198
0.0357593
0.0273608
0.013441
0.0863143
0.0869847
0.0877602
0.0880326
0.0876406
0.0862113
0.083568
0.0801955
0.0767588
0.0733223
0.0696209
0.065432
0.0606465
0.055264
0.0493077
0.042767
0.0354639
0.0263894
0.0128168
0.0937946
0.093356
0.0930558
0.0925092
0.0914413
0.0894793
0.0864541
0.0827513
0.0789232
0.0751004
0.0711104
0.0667247
0.0617904
0.0562244
0.0499423
0.0429392
0.035204
0.0259126
0.0121547
0.0989381
0.0979063
0.0968852
0.0956592
0.0939879
0.0916083
0.0883887
0.0845566
0.0804784
0.0763087
0.0719756
0.067314
0.062183
0.0564782
0.050089
0.042965
0.0350837
0.0256647
0.0115021
0.10293
0.101498
0.0999664
0.0982068
0.0960594
0.0933627
0.0900241
0.0861388
0.0819249
0.0775079
0.0728696
0.0679092
0.0625159
0.0565979
0.0500483
0.0427756
0.0346346
0.0247487
0.0108294
0.106503
0.104751
0.102844
0.100696
0.0982087
0.0952918
0.0918789
0.0879945
0.0837424
0.0791974
0.0743605
0.0691739
0.063557
0.0574035
0.0505695
0.0428766
0.0340952
0.0235883
0.0105461
0.110028
0.108027
0.105848
0.103438
0.100734
0.0976911
0.0942634
0.0904379
0.0862451
0.0817081
0.076828
0.0715792
0.0658929
0.0596663
0.0526971
0.0446808
0.0353689
0.0241702
0.0116403
0.113652
0.111471
0.109112
0.106538
0.103713
0.100624
0.0972459
0.0935454
0.0895078
0.0851023
0.0803214
0.0751957
0.0697127
0.0637399
0.0569568
0.0490472
0.0396734
0.0277028
0.014264
0.117432
0.115095
0.112619
0.109944
0.107036
0.103931
0.100621
0.0970676
0.0932585
0.0890824
0.0844695
0.0795366
0.0745212
0.06905
0.0626913
0.0549084
0.045577
0.0330457
0.0176925
0.121023
0.118523
0.1159
0.113071
0.110069
0.106954
0.103801
0.100701
0.0973611
0.0933505
0.0887254
0.0837653
0.0788335
0.0735634
0.0670706
0.0593611
0.0505946
0.0393889
0.0201859
0.124163
0.121691
0.11895
0.116034
0.113003
0.109833
0.106596
0.103535
0.100433
0.0967176
0.092039
0.0868971
0.0815735
0.0760554
0.0696331
0.0621404
0.0533998
0.0420554
0.0215697
0.126138
0.123882
0.121189
0.11832
0.115319
0.112048
0.108538
0.105147
0.101946
0.0984331
0.0939868
0.0886362
0.0830247
0.0772057
0.070923
0.0637126
0.055142
0.0435895
0.0223353
0.12601
0.12402
0.121515
0.118732
0.115748
0.112465
0.108901
0.105388
0.102093
0.0986609
0.0944409
0.0891905
0.0834804
0.0776162
0.0713815
0.0643355
0.0558806
0.0444026
0.0227821
0.123812
0.122125
0.119854
0.117251
0.114382
0.11121
0.107783
0.104364
0.101096
0.0976904
0.0936183
0.0886702
0.0831878
0.077458
0.0713315
0.0644421
0.056213
0.0448943
0.0231828
0.120205
0.118801
0.116822
0.114464
0.111805
0.108861
0.105705
0.102499
0.0993199
0.0959545
0.0920366
0.0874305
0.0823465
0.076912
0.0710063
0.0643336
0.0563216
0.0451592
0.0233938
0.115986
0.114786
0.113072
0.110993
0.108615
0.105979
0.103146
0.100208
0.0971814
0.0939137
0.0901907
0.0859391
0.0812371
0.0761163
0.0704574
0.0639958
0.0561548
0.0451051
0.0233164
0.111703
0.110648
0.109159
0.107354
0.105276
0.102959
0.100446
0.0977769
0.0949366
0.091824
0.0883156
0.0843606
0.0799694
0.0751136
0.0696663
0.06337
0.0556456
0.0446747
0.0229483
0.107663
0.106716
0.105419
0.103855
0.102048
0.100017
0.0977826
0.0953539
0.0927032
0.0897605
0.0864495
0.0827269
0.0785667
0.0739075
0.0686142
0.0624293
0.0547768
0.043876
0.0223345
0.103969
0.10311
0.101972
0.100607
0.0990209
0.0972213
0.0952106
0.0929793
0.0904957
0.0877072
0.0845594
0.081009
0.0770105
0.0724858
0.0672942
0.0611787
0.0535755
0.0427606
0.0215347
0.10056
0.0997878
0.0987863
0.0975802
0.0961681
0.0945461
0.0927053
0.0906266
0.0882775
0.0856147
0.0825922
0.079165
0.0752775
0.070843
0.0657193
0.0596533
0.0520999
0.0414064
0.0206242
0.0973196
0.0966395
0.0957605
0.0946863
0.0934108
0.0919243
0.090211
0.0882478
0.0860028
0.0834373
0.0805092
0.0771715
0.0733637
0.0689961
0.0639279
0.0579139
0.050433
0.0399096
0.0196725
0.0941443
0.0935649
0.0927993
0.0918392
0.0906757
0.0892962
0.087682
0.0858086
0.0836456
0.0811574
0.0783038
0.0750373
0.0712957
0.06699
0.0619835
0.0560418
0.0486692
0.0383668
0.0187494
0.0909847
0.0905095
0.0898508
0.0889933
0.0879269
0.0866375
0.0851058
0.0833076
0.0812143
0.0787929
0.0760051
0.0728042
0.069129
0.0648935
0.0599671
0.0541272
0.046904
0.0368692
0.0179001
0.0878477
0.0874754
0.0869168
0.0861534
0.0851747
0.0839663
0.0825088
0.0807793
0.0787513
0.0763943
0.0736721
0.0705401
0.0669398
0.0627896
0.0579663
0.0522593
0.0452214
0.0354852
0.0171596
0.0847863
0.0845098
0.0840426
0.0833659
0.0824684
0.0813357
0.079949
0.0782867
0.0763246
0.0740344
0.0713825
0.0683271
0.0648132
0.0607643
0.0560647
0.0505148
0.0436869
0.0342633
0.0165329
0.0818768
0.0816847
0.0812993
0.0807018
0.0798802
0.0788198
0.0775026
0.0759086
0.0740151
0.0717962
0.0692207
0.0662498
0.0628322
0.0588965
0.0543338
0.048954
0.042344
0.0332237
0.0160206
0.0791971
0.0790781
0.0787652
0.0782398
0.0774892
0.0764986
0.0752507
0.0737264
0.0719046
0.0697613
0.0672674
0.0643867
0.0610712
0.0572536
0.0528305
0.047619
0.041217
0.0323722
0.0156032
0.0768164
0.0767611
0.0765129
0.0760536
0.07537
0.0744473
0.0732684
0.0718152
0.0700679
0.0680034
0.0655943
0.0628061
0.059593
0.0558906
0.051599
0.0465401
0.0403189
0.0317018
0.0152716
0.07479
0.0747919
0.0746026
0.0742052
0.0735859
0.0727297
0.0716202
0.0702396
0.0685688
0.0665855
0.0642627
0.0615666
0.0584519
0.0548552
0.0506779
0.0457438
0.0396619
0.0312114
0.015009
0.0731575
0.0732134
0.0730808
0.0727434
0.0721874
0.0713979
0.0703589
0.069053
0.0674613
0.0655614
0.0633261
0.0607207
0.0576988
0.054195
0.0501093
0.0452643
0.0392693
0.0309097
0.014821
0.0719459
0.0720574
0.0719827
0.0717065
0.0712151
0.0704942
0.0695283
0.0683005
0.0667919
0.0649795
0.0628348
0.0603208
0.0573876
0.0539655
0.0499485
0.045154
0.0391872
0.030833
0.0147142
0.0711754
0.0713493
0.0713379
0.0711272
0.0707041
0.0700557
0.0691675
0.0680235
0.0666045
0.064887
0.0628404
0.0604238
0.0575818
0.0542365
0.0502719
0.0454932
0.0394942
0.0310475
0.0147279
0.0708669
0.0711154
0.0711766
0.0710382
0.0706894
0.0701193
0.0693156
0.0682635
0.0669446
0.0653342
0.0633994
0.0610948
0.0583574
0.0550975
0.0511824
0.0463966
0.0403101
0.0316638
0.0149103
0.0710496
0.07139
0.0715362
0.0714789
0.0712113
0.0707266
0.0700158
0.0690667
0.0678618
0.0663764
0.0645753
0.0624085
0.059804
0.056657
0.0528116
0.0480182
0.0418024
0.0328394
0.0153522
0.0717698
0.0722238
0.0724683
0.0725003
0.0723203
0.0719279
0.0713193
0.0704858
0.0694124
0.0680751
0.0664379
0.0644467
0.0620212
0.0590399
0.0553166
0.0505517
0.0441935
0.0347937
0.0161627
0.0731025
0.0736919
0.0740447
0.0741702
0.0740806
0.0737851
0.0732869
0.0725821
0.0716593
0.0704968
0.0690596
0.0672928
0.0651101
0.0623756
0.0588702
0.0542274
0.0477716
0.0378286
0.0175212
0.0751658
0.0759037
0.0763635
0.0765765
0.0765727
0.0763736
0.0759905
0.0754254
0.074671
0.07371
0.0725109
0.0710222
0.0691588
0.0667788
0.0636374
0.0592953
0.0528989
0.0423806
0.0197116
0.0781382
0.0790104
0.0795513
0.0798281
0.0798935
0.0797821
0.0795129
0.0790932
0.0785203
0.0777818
0.0768533
0.0756921
0.0742244
0.0723192
0.0697319
0.0659767
0.0600022
0.0491122
0.0233704
0.082273
0.0832044
0.0837591
0.0840508
0.0841537
0.0841114
0.0839469
0.0836701
0.083282
0.0827757
0.0821356
0.0813328
0.0803155
0.0789863
0.077148
0.0743572
0.0694828
0.0590738
0.0301189
0.0878984
0.0887036
0.0891496
0.0893818
0.0894775
0.0894762
0.0893977
0.0892508
0.0890378
0.0887564
0.0883996
0.0879539
0.0873952
0.0866768
0.0856992
0.0842101
0.081421
0.0740254
0.0448296
0.0953363
0.0956951
0.0958725
0.0959618
0.0960011
0.096007
0.0959873
0.0959455
0.0958828
0.0957995
0.0956944
0.095566
0.0954115
0.0952278
0.0950121
0.0947625
0.0944631
0.0937444
0.0853844
)
;

boundaryField
{
    leftWall
    {
        type            kqRWallFunction;
        value           nonuniform List<scalar> 
50
(
0.0011137
0.00278772
0.00399195
0.00498828
0.00578271
0.00641248
0.00692012
0.00735324
0.00792752
0.00904353
0.00883053
0.00860209
0.00895076
0.00957105
0.0104542
0.0125528
0.0135563
0.0159164
0.0176307
0.0189639
0.0199468
0.0204758
0.0205464
0.0202838
0.0198009
0.0191789
0.0184719
0.0177102
0.0169077
0.0160752
0.0152187
0.0143444
0.0134569
0.0125677
0.0117082
0.0109295
0.0102311
0.00963657
0.00917803
0.00888639
0.00878035
0.00886405
0.00912769
0.00955678
0.0101418
0.010904
0.011983
0.0141207
0.0232233
0.0825046
)
;
    }
    rightWall
    {
        type            kqRWallFunction;
        value           nonuniform List<scalar> 
50
(
0.00260111
0.00573829
0.00748354
0.0087318
0.0100519
0.0115024
0.0126895
0.0141076
0.0143645
0.013441
0.0128168
0.0121547
0.0115021
0.0108294
0.0105461
0.0116403
0.014264
0.0176925
0.0201859
0.0215697
0.0223353
0.0227821
0.0231828
0.0233938
0.0233164
0.0229483
0.0223345
0.0215347
0.0206242
0.0196725
0.0187494
0.0179001
0.0171596
0.0165329
0.0160206
0.0156032
0.0152716
0.015009
0.014821
0.0147142
0.0147279
0.0149103
0.0153522
0.0161627
0.0175212
0.0197116
0.0233704
0.0301189
0.0448296
0.0853844
)
;
    }
    lowerWall
    {
        type            kqRWallFunction;
        value           nonuniform List<scalar> 
62
(
0.0011137
0.00275617
0.00405611
0.00522767
0.00634485
0.00743005
0.00847871
0.0094725
0.0103997
0.0112449
0.0120114
0.0126986
0.0132979
0.0137951
0.0141618
0.0143669
0.0143712
0.0141131
0.0134924
0.0123363
0.0103622
0.00709539
0.00210219
0.00210219
0.00551318
0.00820885
0.0108173
0.0135755
0.0168755
0.0218192
0.0319158
0.0370876
0.033516
0.0355084
0.042351
0.00207348
0.00574238
0.0087566
0.0117034
0.0140343
0.016459
0.0212958
0.0331409
0.00207348
0.00632551
0.01016
0.0133266
0.0151926
0.0163435
0.0169964
0.0165115
0.0158661
0.0153479
0.0145696
0.0136287
0.0123157
0.01113
0.0100922
0.00883719
0.00731278
0.00544885
0.00260111
)
;
    }
    atmosphere
    {
        type            inletOutlet;
        inletValue      uniform 0.1;
        value           nonuniform List<scalar> 
46
(
0.1
0.1
0.0501934
0.0469475
0.0474247
0.0486272
0.0500057
0.0514274
0.0528513
0.0542622
0.0556547
0.0570285
0.0583868
0.0597375
0.0610961
0.0624921
0.0639843
0.0656896
0.0678387
0.0708677
0.0754982
0.082324
0.0871383
0.1
0.1
0.1
0.1
0.1
0.1
0.1
0.1
0.1
0.1
0.1
0.1
0.1
0.1
0.1
0.1
0.1
0.1
0.1
0.1
0.1
0.1
0.1
)
;
    }
    defaultFaces
    {
        type            empty;
    }
}


// ************************************************************************* //
