/*--------------------------------*- C++ -*----------------------------------*\
  =========                 |
  \\      /  F ield         | OpenFOAM: The Open Source CFD Toolbox
   \\    /   O peration     | Website:  https://openfoam.org
    \\  /    A nd           | Version:  13
     \\/     M anipulation  |
\*---------------------------------------------------------------------------*/
FoamFile
{
    format      ascii;
    class       volScalarField;
    location    "2.1";
    object      nut;
}
// * * * * * * * * * * * * * * * * * * * * * * * * * * * * * * * * * * * * * //

dimensions      [0 2 -1 0 0 0 0];

internalField   nonuniform List<scalar> 
2268
(
2.26345e-05
3.47015e-05
4.19097e-05
4.75633e-05
5.23794e-05
5.66538e-05
6.04774e-05
6.38932e-05
6.6971e-05
6.96733e-05
7.20467e-05
7.41177e-05
7.59134e-05
7.7454e-05
7.8604e-05
7.92739e-05
7.93617e-05
7.86962e-05
7.69815e-05
7.3655e-05
6.76e-05
5.60796e-05
3.05588e-05
7.47857e-05
0.000271046
0.000353497
0.000417282
0.000474317
0.000526333
0.000573583
0.000616359
0.000654737
0.000688482
0.000718749
0.000746027
0.000770189
0.0007907
0.000806694
0.000816457
0.000818134
0.000808948
0.000784346
0.000736124
0.000647873
0.000481089
0.000104701
8.89044e-05
0.00045837
0.000650447
0.000788921
0.000910975
0.0010229
0.00112565
0.00121969
0.00130485
0.00138111
0.00145049
0.00151392
0.00157066
0.00161872
0.00165525
0.00167619
0.00167647
0.00164885
0.0015816
0.0014537
0.00122564
0.000821322
0.00012763
9.90205e-05
0.000595149
0.000893078
0.00110368
0.00128495
0.00145101
0.00160459
0.00174662
0.00187697
0.00199582
0.00210534
0.0022062
0.00229663
0.00237289
0.00242936
0.00245958
0.00245485
0.00240313
0.00228526
0.00206789
0.00169204
0.00106134
0.000146462
0.000106446
0.000696384
0.00109069
0.00136897
0.0016034
0.00181685
0.00201495
0.0021998
0.0023717
0.00253101
0.00267956
0.00281717
0.00294056
0.00304374
0.00311878
0.00315601
0.00314383
0.00306598
0.00289718
0.00259423
0.00208323
0.00125563
0.000163779
0.000112058
0.000771999
0.00125157
0.00159235
0.0018751
0.00213037
0.00236754
0.00259042
0.00280022
0.0029975
0.00318343
0.00335648
0.00351134
0.00363968
0.0037311
0.00377353
0.00375266
0.00364945
0.00343474
0.00305893
0.00243584
0.0014411
0.000182258
0.00011647
0.000830531
0.00138362
0.0017811
0.00210774
0.00240044
0.00267241
0.00292951
0.0031742
0.00340725
0.00362891
0.00383579
0.00402025
0.00417145
0.00427687
0.00432271
0.00429302
0.00416733
0.00391501
0.00348364
0.00277845
0.00164367
0.00020708
0.000120386
0.000877593
0.00149425
0.00194167
0.00230776
0.00263436
0.00293798
0.00322654
0.00350398
0.00377123
0.00402723
0.00426627
0.00447809
0.00464949
0.00476634
0.00481403
0.00477592
0.0046318
0.00435177
0.00388485
0.00313475
0.00189867
0.000250716
3.00539e-05
5.44053e-05
6.86066e-05
7.80578e-05
8.31118e-05
8.58961e-05
8.69813e-05
8.57702e-05
8.38789e-05
8.2346e-05
8.01195e-05
7.73047e-05
7.32189e-05
6.92856e-05
6.59152e-05
6.1667e-05
5.60129e-05
4.79506e-05
3.27543e-05
0.00011841
0.00048214
0.000682108
0.000803806
0.000864366
0.000888037
0.000893833
0.000888747
0.000858914
0.000826005
0.000788339
0.00074891
0.000687053
0.000633627
0.000603179
0.00055169
0.000474621
0.000350572
0.000115257
0.000146201
0.000855266
0.00130282
0.00158081
0.0017276
0.00179377
0.00181685
0.00179781
0.00173243
0.00165791
0.00157499
0.00148811
0.00137329
0.00126191
0.00116372
0.00103938
0.000868691
0.000602993
0.000131191
0.000169689
0.00114431
0.00180248
0.00221525
0.0024444
0.00255871
0.00260153
0.00257246
0.00248022
0.00236899
0.00224953
0.00211975
0.0019644
0.0018013
0.00163648
0.00144114
0.0011811
0.00078413
0.000142115
0.000186053
0.00138118
0.00221927
0.00273841
0.00303469
0.00318933
0.0032478
0.00321173
0.00310158
0.00296186
0.00280972
0.00264291
0.00245656
0.00225126
0.00202908
0.00177117
0.00143235
0.000923068
0.000152607
0.000202835
0.00158444
0.0025896
0.00319006
0.00353373
0.00371561
0.00378261
0.00373948
0.0036156
0.00345393
0.00327523
0.00307572
0.00286152
0.00262248
0.00235357
0.00204125
0.00163417
0.00103463
0.000163762
0.000231342
0.00178058
0.00294331
0.00359799
0.00396984
0.00416571
0.00423255
0.00418032
0.00404319
0.00386353
0.00366178
0.00343716
0.00319407
0.00292466
0.00261821
0.0022587
0.00179283
0.00112164
0.000173298
0.000288196
0.00207013
0.00331049
0.00398152
0.00436143
0.00455845
0.00461715
0.00455242
0.00440174
0.0042054
0.00398297
0.00373626
0.00346741
0.00316865
0.00282872
0.00242768
0.00191015
0.00117795
0.000184966
0.000125648
0.00093942
0.00163948
0.00215456
0.00257729
0.00295318
0.00330332
0.00363903
0.00396646
0.00428656
0.0045951
0.00488202
0.00513264
0.00533066
0.00546061
0.0055077
0.00545671
0.00528979
0.00498129
0.00449003
0.00375062
0.00267896
0.00129802
0.000135235
0.0010597
0.00180117
0.00236023
0.0028306
0.00325802
0.00366542
0.00406551
0.00446404
0.00485832
0.0052368
0.00558232
0.00587512
0.00609755
0.00623593
0.00627943
0.00621743
0.00603836
0.00572703
0.00526197
0.0046164
0.00377865
0.00281792
0.000134463
0.00106466
0.0018316
0.00244234
0.00297275
0.0034634
0.00393936
0.00441451
0.00489129
0.00536098
0.00580362
0.00619611
0.0065172
0.00675231
0.00689258
0.00693182
0.00686479
0.00668737
0.00639577
0.00598646
0.00546483
0.00486478
0.00428608
0.000130426
0.000990671
0.00177637
0.00244229
0.00303944
0.00360402
0.00416104
0.0047217
0.00528243
0.00582476
0.00631999
0.00674456
0.0070816
0.007322
0.00746181
0.0074987
0.00743219
0.00726584
0.00700666
0.00666589
0.0062669
0.00585804
0.00552428
0.000132219
0.000921128
0.0017202
0.00243329
0.0030949
0.00373635
0.00437889
0.00502772
0.00566588
0.00626447
0.00679425
0.00723651
0.00757984
0.00781937
0.00795545
0.00798982
0.00792778
0.0077808
0.00756387
0.00729672
0.00700807
0.0067403
0.00654921
0.000136734
0.00094649
0.00174799
0.00249211
0.00320474
0.0039133
0.00463182
0.00535091
0.00604169
0.00667221
0.00721679
0.0076627
0.00800338
0.00823765
0.00836955
0.00840637
0.00835884
0.00824286
0.00807695
0.00788151
0.00768165
0.00750816
0.0073926
0.000145518
0.00100512
0.00184479
0.00262593
0.00338477
0.00414875
0.00492222
0.00568088
0.00639218
0.00702887
0.00757138
0.00801188
0.0083478
0.00858038
0.00871569
0.00876435
0.00874113
0.00866335
0.00854828
0.00841343
0.00827823
0.00816281
0.00808328
0.000167037
0.00108245
0.00201651
0.00285746
0.00365837
0.00445815
0.00525462
0.00601581
0.00671486
0.00733519
0.0078645
0.00829678
0.00862965
0.00886415
0.00900724
0.00907342
0.00907944
0.00904035
0.00897006
0.00888241
0.00879154
0.00871014
0.00864604
0.000160384
0.00105134
0.00220533
0.00315285
0.00400578
0.004827
0.00562044
0.00634986
0.00700833
0.00759945
0.00811401
0.00854115
0.00887153
0.00910457
0.00925103
0.00933419
0.00936994
0.00936657
0.00933338
0.00928152
0.00922115
0.00915996
0.00910225
0.000173247
0.00128206
0.00246659
0.00348959
0.00438257
0.0051982
0.00594437
0.00662582
0.00725162
0.00782625
0.00833941
0.00876815
0.00909258
0.00931057
0.00944505
0.00954543
0.00961148
0.00963759
0.00963267
0.0096085
0.00957146
0.00952453
0.00947179
0.000182414
0.00147894
0.00275542
0.00380294
0.00469156
0.00547612
0.0061853
0.00683994
0.00744442
0.00799701
0.00848799
0.00890007
0.00920775
0.00942113
0.00958271
0.00971434
0.0098099
0.00985379
0.00986749
0.00986693
0.0098516
0.00981731
0.00976929
0.000190493
0.00159675
0.00296237
0.00404359
0.00492833
0.00568981
0.00637147
0.00699956
0.00758139
0.00810846
0.00856833
0.00894712
0.00924043
0.00946759
0.009652
0.00980778
0.0099231
0.00998803
0.0100285
0.0100521
0.0100567
0.0100362
0.00999884
0.000196447
0.00167752
0.00311003
0.00422257
0.00511235
0.00586094
0.00652063
0.00712304
0.00767854
0.00818017
0.00861529
0.00897212
0.00925117
0.00947569
0.00966771
0.00983034
0.00995505
0.010048
0.0101217
0.0101743
0.0102003
0.0101971
0.0101788
0.000200079
0.00172849
0.00320632
0.00434622
0.0052474
0.00599388
0.00664047
0.00722092
0.00775006
0.00822579
0.00863875
0.00898047
0.00925384
0.00947855
0.00967349
0.00983773
0.00996986
0.0100768
0.0101666
0.0102379
0.0102835
0.0103012
0.0103002
0.000201453
0.00175484
0.00325922
0.00441921
0.00533277
0.00608309
0.00672473
0.0072914
0.00780059
0.00825572
0.00865234
0.0089854
0.00925672
0.00948043
0.00967171
0.00983496
0.00997063
0.0100841
0.0101812
0.0102608
0.0103187
0.0103526
0.0103662
0.000201049
0.0017605
0.00327571
0.00444735
0.0053707
0.0061266
0.00676816
0.00732835
0.00782561
0.00826731
0.0086536
0.00898134
0.00925226
0.00947596
0.00966459
0.00982528
0.00996112
0.0100762
0.0101746
0.010257
0.0103207
0.0103638
0.0103877
0.000199316
0.00174929
0.00326193
0.00443683
0.00536565
0.00612621
0.00676964
0.00732784
0.00781952
0.00825407
0.00863474
0.00896009
0.0092322
0.00945794
0.0096467
0.0098062
0.00994129
0.0100559
0.0101535
0.0102355
0.010301
0.0103486
0.0103788
0.000196589
0.00172414
0.00322305
0.0043937
0.00532326
0.00608614
0.00673134
0.00728964
0.00777955
0.00821141
0.00859022
0.00891586
0.00919088
0.00942059
0.00961235
0.00977328
0.00990885
0.0100233
0.0101199
0.0102008
0.0102664
0.0103158
0.010349
0.000193176
0.00168828
0.00316411
0.00432395
0.00524966
0.00601194
0.00665765
0.00721639
0.00770632
0.00813811
0.00851762
0.0088458
0.00912528
0.00936063
0.00955773
0.00972276
0.00986108
0.00997704
0.0100741
0.0101548
0.0102202
0.0102703
0.0103046
0.000189315
0.00164511
0.00309013
0.00423344
0.00515109
0.00590984
0.00655427
0.00711281
0.00760316
0.00803605
0.00841775
0.00874983
0.00903496
0.00927718
0.00948135
0.00965271
0.00979614
0.0099159
0.0100155
0.0100976
0.0101638
0.0102147
0.0102494
0.000185107
0.0015972
0.0030055
0.00412757
0.00503361
0.0057862
0.00642754
0.00698483
0.00747526
0.00790947
0.00829392
0.00863046
0.00892183
0.00917161
0.00938391
0.00956315
0.00971362
0.00983926
0.00994347
0.0100289
0.0100976
0.0101502
0.0101859
0.000180614
0.00154644
0.00291391
0.0040112
0.0049029
0.0056473
0.00628407
0.0068391
0.007329
0.00776425
0.00815134
0.00849219
0.0087898
0.00904729
0.00926814
0.00945609
0.00961485
0.00974793
0.00985849
0.00994912
0.0100218
0.0100776
0.0101153
0.000175864
0.00149421
0.00281845
0.00388868
0.00476427
0.00549922
0.00613051
0.00668259
0.00717142
0.00760728
0.00799642
0.00834104
0.00864439
0.00890923
0.0091385
0.00933533
0.00950292
0.00964433
0.00976238
0.00985949
0.00993759
0.00999775
0.0100389
0.000170885
0.00144172
0.00272186
0.00376403
0.00462281
0.00534787
0.00597342
0.00652237
0.00700992
0.00744607
0.00783624
0.00818399
0.00849232
0.00876375
0.0090008
0.00920615
0.00938247
0.00953241
0.00965846
0.00976279
0.00984719
0.00991274
0.00995836
0.000165691
0.00139004
0.00262669
0.00364114
0.00448347
0.0051991
0.00581938
0.00636551
0.00685195
0.00728759
0.00767843
0.00802858
0.00834094
0.00861792
0.00886177
0.00907477
0.0092592
0.00941731
0.00955125
0.00966294
0.009754
0.00982545
0.0098763
0.000160331
0.00134002
0.00253533
0.00352386
0.00435126
0.00505878
0.00567495
0.00621877
0.00670377
0.00713894
0.00753036
0.00788226
0.00819767
0.00847901
0.0087284
0.00894784
0.0091393
0.00930471
0.00944591
0.00956456
0.00966211
0.00973949
0.00979582
0.000154978
0.00129087
0.00244959
0.00341607
0.00423119
0.00493224
0.0055451
0.00608749
0.00657187
0.00700691
0.00739877
0.00775183
0.00806932
0.00835376
0.00860724
0.00883165
0.00902873
0.00920017
0.00934755
0.00947232
0.00957574
0.00965865
0.00972029
0.000149893
0.00124333
0.00237207
0.00332164
0.00412792
0.00482478
0.00543591
0.00597778
0.00646205
0.00689713
0.00728919
0.00764278
0.00796135
0.00824757
0.00850362
0.00873135
0.00893241
0.00910832
0.0092605
0.00939019
0.00949852
0.0095862
0.0096526
0.000145131
0.00120212
0.00230851
0.00324661
0.00404738
0.00474197
0.00535243
0.00589424
0.00637851
0.00681346
0.00720525
0.0075586
0.00787716
0.0081638
0.00842083
0.00865017
0.00885347
0.00903216
0.00918754
0.00932076
0.00943278
0.00952425
0.00959463
0.000140878
0.00117125
0.00226374
0.00319548
0.00399351
0.00468714
0.00529738
0.00583908
0.00632301
0.00675726
0.00714803
0.00750018
0.00781755
0.00810321
0.00835966
0.00858892
0.0087927
0.00897244
0.00912939
0.00926464
0.00937905
0.00947321
0.00954667
0.000137394
0.00115245
0.00223952
0.00316934
0.00396666
0.00466003
0.00527002
0.00581118
0.00629412
0.00672687
0.00711569
0.00746557
0.00778054
0.00806386
0.00831821
0.00854578
0.00874838
0.00892752
0.00908447
0.00922029
0.0093358
0.00943154
0.00950712
0.000134961
0.00114524
0.00223359
0.00316464
0.00396258
0.00465607
0.00526569
0.00580589
0.00628723
0.00671772
0.0071037
0.0074503
0.00776172
0.00804144
0.00829232
0.00851673
0.00871665
0.00889368
0.00904918
0.00918424
0.00929966
0.00939593
0.00947271
0.000133779
0.00114664
0.00223974
0.0031736
0.00397298
0.00466709
0.0052766
0.00581588
0.00629541
0.00672322
0.00710574
0.00744825
0.00775518
0.00803021
0.00827642
0.0084964
0.0086923
0.00886592
0.0090187
0.00915182
0.00926606
0.00936188
0.00943897
0.000133929
0.00115278
0.00224998
0.00318639
0.00398772
0.00468338
0.00529374
0.00583286
0.00631101
0.00673622
0.00711505
0.007453
0.00775474
0.00802421
0.00826477
0.00847924
0.00867001
0.00883909
0.00898809
0.00911825
0.00923037
0.00932478
0.00940125
0.000135343
0.00115964
0.00225671
0.0031938
0.00399742
0.00469611
0.0053091
0.00584958
0.00632743
0.00675062
0.00712592
0.00745912
0.00775522
0.00801851
0.00825263
0.00846072
0.00864547
0.00880914
0.00895353
0.00907993
0.00918905
0.00928108
0.00935576
0.000137868
0.00116437
0.00225414
0.00318871
0.00399494
0.0046988
0.00531697
0.00586103
0.00634016
0.00676231
0.00713452
0.00746303
0.00775327
0.00800995
0.00823709
0.00843819
0.00861631
0.008774
0.00891326
0.00903537
0.00914075
0.0092293
0.00930066
0.000141343
0.00116404
0.0022368
0.00316502
0.00397494
0.00468724
0.00531414
0.00586466
0.00634707
0.00676937
0.00713912
0.00746317
0.00774754
0.00799743
0.00821733
0.00841118
0.00858244
0.00873403
0.00886812
0.00898576
0.00908677
0.0091704
0.00923637
0.00014576
0.00115478
0.00219708
0.00311559
0.00393251
0.00465867
0.00529921
0.00585979
0.00634779
0.00677161
0.00713966
0.00745967
0.00773839
0.00798163
0.00819441
0.00838116
0.00854584
0.00869178
0.00882121
0.0089346
0.00903053
0.00910725
0.0091652
0.000151702
0.00113015
0.00212341
0.00303159
0.00386321
0.00461175
0.00527242
0.00584717
0.00634315
0.00676986
0.00713705
0.00745362
0.00772723
0.00796437
0.00817061
0.00835095
0.0085099
0.00865121
0.00877696
0.00888637
0.00897573
0.00904222
0.00908986
0.000163135
0.00109193
0.00200939
0.00290925
0.00376746
0.00454905
0.00523658
0.0058291
0.00633489
0.00676553
0.00713267
0.00744661
0.007716
0.00794802
0.00814883
0.00832396
0.00847848
0.00861648
0.00873948
0.00884418
0.0089228
0.00897273
0.00901178
0.000213923
0.00114825
0.0018977
0.00277081
0.00366129
0.00448212
0.00519919
0.00581008
0.00632567
0.0067604
0.00712803
0.00744028
0.00770668
0.00793503
0.00813195
0.00830345
0.00845504
0.00859092
0.00871124
0.00880797
0.00886615
0.00888643
0.00893177
0.000436859
0.00280661
0.00202848
0.00269944
0.00358832
0.00443538
0.00517335
0.00579687
0.00631908
0.00675663
0.00712481
0.00743629
0.00770117
0.00792761
0.00812252
0.00829217
0.00844231
0.00857693
0.0086942
0.00877927
0.00880415
0.00876996
0.00885492
0.00027071
0.00025664
0.000263879
0.000288896
0.00220235
0.00218494
0.00227155
0.00246232
0.00402324
0.00400508
0.00410514
0.0042949
0.00542092
0.00542792
0.00549982
0.00561855
0.00650671
0.00651671
0.00655883
0.00662372
0.00736637
0.00736804
0.00738492
0.00741211
0.00805537
0.0080458
0.00804246
0.00804259
0.00861064
0.00859042
0.00857145
0.00855213
0.00905936
0.00903071
0.00900031
0.00896754
0.00942579
0.00939202
0.00935341
0.00931126
0.00972379
0.00968931
0.00964735
0.00959907
0.00995799
0.00992647
0.00988759
0.00983952
0.0101489
0.0101203
0.0100826
0.0100397
0.0102798
0.0102574
0.0102276
0.0101918
0.0103552
0.0103398
0.0103176
0.0102897
0.0103856
0.0103768
0.0103616
0.0103406
0.0103834
0.0103798
0.0103702
0.0103549
0.0103579
0.0103578
0.0103522
0.0103414
0.0103157
0.0103178
0.010315
0.0103073
0.0102618
0.0102653
0.0102643
0.0102587
0.0101993
0.010204
0.0102043
0.0102003
0.0101302
0.0101361
0.0101378
0.0101352
0.0100561
0.0100635
0.0100667
0.0100656
0.00997852
0.00998777
0.00999283
0.00999339
0.0098999
0.00991126
0.00991833
0.00992081
0.00982307
0.00983667
0.00984585
0.00985036
0.00975114
0.00976692
0.00977819
0.00978471
0.00968676
0.00970458
0.0097178
0.00972624
0.00963165
0.00965124
0.00966623
0.00967643
0.00958602
0.00960711
0.0096236
0.00963535
0.00954828
0.00957056
0.00958831
0.0096014
0.00951514
0.00953831
0.00955704
0.00957123
0.00948211
0.00950582
0.00952525
0.00954028
0.00944442
0.00946826
0.00948798
0.0095035
0.00939806
0.00942145
0.00944093
0.00945642
0.00934079
0.00936292
0.00938137
0.00939615
0.0092726
0.00929239
0.00930886
0.00932212
0.00919555
0.00921193
0.00922554
0.00923661
0.00911329
0.00912589
0.00913646
0.00914535
0.00903131
0.00904207
0.00905112
0.00905906
0.00896076
0.00897632
0.00898756
0.00899645
0.00893401
0.00896483
0.00897878
0.00898631
0.00155031
0.00293191
0.0039425
0.00456146
0.00491862
0.00509413
0.00512621
0.00503887
0.00486968
0.00465197
0.00440164
0.00412199
0.00381482
0.00347211
0.00308231
0.00262028
0.00202977
0.00121814
0.000185546
0.00324324
0.004146
0.00484402
0.00530567
0.00557306
0.00568349
0.00565935
0.00552575
0.00531705
0.0050603
0.004769
0.00444509
0.00408712
0.00368852
0.00323535
0.00269737
0.00201856
0.00112653
0.000176811
0.00470102
0.00524608
0.00568687
0.00598267
0.00614118
0.00616991
0.00608027
0.00589143
0.00563264
0.00532793
0.0049887
0.00461642
0.0042075
0.00375527
0.00324505
0.00264768
0.00191585
0.00101748
0.000171838
0.0058439
0.00616009
0.00641288
0.00656969
0.00662239
0.00656859
0.00641209
0.00616625
0.0058541
0.00549612
0.00510292
0.00467624
0.00421344
0.00370967
0.00315549
0.00253381
0.00181703
0.000982436
0.000167238
0.00674113
0.00690571
0.00702243
0.00706621
0.00702565
0.0068964
0.00667839
0.00637998
0.00601753
0.00560732
0.005159
0.00467536
0.00415593
0.0035995
0.00300422
0.00236952
0.00169575
0.00095694
0.000163262
0.00745896
0.00751656
0.00753241
0.00748691
0.00737008
0.00717736
0.00690751
0.00656516
0.00616105
0.00570688
0.00521063
0.00467592
0.00410453
0.00349929
0.00286502
0.00221067
0.00154759
0.000863852
0.000158708
0.00804052
0.00802129
0.00796286
0.00785017
0.00767526
0.00743434
0.00712607
0.00675277
0.00632074
0.00583754
0.00530913
0.00473924
0.00413108
0.00348943
0.00282149
0.00213723
0.00145129
0.00077233
0.000158338
0.00851589
0.00844287
0.00833219
0.00817268
0.00795818
0.00768598
0.00735517
0.00696668
0.00652356
0.00602998
0.00548981
0.00490626
0.00428228
0.00362289
0.00293189
0.00221253
0.00147934
0.000754831
0.000169866
0.00890828
0.0088
0.00865591
0.00846766
0.00823088
0.00794398
0.00760667
0.00721906
0.0067818
0.00629585
0.00576284
0.00518597
0.00456774
0.00391027
0.00320708
0.00245312
0.00165749
0.000835169
0.000190318
0.00923721
0.00910778
0.00894527
0.00874303
0.00849807
0.00821009
0.00787953
0.0075067
0.00709026
0.00662694
0.00611498
0.0055582
0.00496728
0.00432748
0.00362098
0.00282683
0.00194237
0.000984828
0.000211543
0.00951621
0.00937513
0.00920436
0.00899806
0.00875505
0.00847569
0.00816293
0.00782028
0.00743921
0.00700794
0.00652446
0.00599647
0.00543398
0.0048199
0.00411769
0.00330625
0.00239095
0.00135243
0.000223941
0.00975584
0.00961377
0.0094449
0.00924534
0.00901422
0.00875102
0.00845903
0.00814264
0.00779274
0.00739571
0.00694295
0.00644688
0.00590599
0.0053043
0.00460712
0.00379326
0.00282525
0.00160804
0.000230199
0.00996356
0.00983008
0.00966995
0.00948318
0.00926801
0.00902269
0.00874891
0.00845049
0.00812206
0.0077513
0.00732787
0.00685481
0.00632887
0.00572809
0.00502614
0.00418433
0.00312978
0.00173603
0.000233753
0.0101258
0.0100056
0.00985789
0.00968522
0.00948637
0.00925886
0.00900313
0.0087212
0.0084095
0.0080576
0.00765569
0.00719936
0.00668077
0.00607879
0.00536147
0.00447667
0.00333361
0.00181756
0.000236104
0.0102356
0.0101308
0.00999735
0.00983971
0.00965663
0.00944601
0.00920744
0.00894127
0.00864335
0.00830489
0.00791696
0.00747206
0.0069582
0.00635275
0.00561789
0.00469337
0.00348403
0.00187993
0.000237995
0.0102976
0.0102086
0.0100905
0.00994732
0.00977888
0.00958355
0.00936037
0.00910778
0.00882106
0.0084924
0.00811335
0.00767492
0.0071642
0.00655557
0.00580809
0.00485677
0.00360113
0.00193077
0.000238733
0.0103213
0.0102465
0.0101427
0.010013
0.00985772
0.00967569
0.00946521
0.00922369
0.00894606
0.00862499
0.00825253
0.00781931
0.00731011
0.00669864
0.00594244
0.00497358
0.00368739
0.00196998
0.000238139
0.0103153
0.0102518
0.0101603
0.0100426
0.00989897
0.0097281
0.00952785
0.00929501
0.0090245
0.00870953
0.00834221
0.00791236
0.00740386
0.00679018
0.00602838
0.00504908
0.00374469
0.00199669
0.000236289
0.0102866
0.0102316
0.0101498
0.0100422
0.00990828
0.00974648
0.00955433
0.00932826
0.0090633
0.008753
0.00838939
0.00796171
0.00745345
0.00683813
0.00607301
0.00508839
0.00377523
0.00201086
0.000233347
0.0102416
0.0101925
0.0101181
0.0100183
0.00989199
0.0097373
0.0095514
0.00933054
0.0090698
0.00876287
0.0084017
0.00797519
0.00746667
0.00684996
0.00608286
0.00509634
0.00378143
0.0020128
0.000229529
0.0101856
0.0101405
0.0100715
0.00997741
0.00985684
0.00970743
0.00952614
0.00930908
0.0090513
0.00874654
0.00838665
0.00796033
0.00745093
0.00683263
0.00606408
0.00507764
0.00376595
0.00200315
0.000225111
0.0101225
0.0100805
0.0100154
0.00992553
0.00980902
0.00966333
0.00948522
0.00927066
0.00901467
0.00871095
0.00835124
0.00792417
0.00741313
0.00679274
0.00602266
0.00503717
0.00373185
0.00198305
0.000220364
0.0100551
0.010016
0.00995402
0.00986729
0.00975366
0.00961048
0.00943439
0.00922126
0.00896605
0.00866239
0.00830194
0.00787325
0.00735981
0.00673666
0.00596456
0.00498006
0.00368284
0.0019541
0.00021559
0.00998556
0.00994941
0.0098904
0.00980626
0.00969481
0.00955336
0.00937849
0.00916603
0.00891086
0.00860655
0.00824467
0.00781369
0.00729718
0.0066706
0.00589579
0.00491181
0.00362328
0.00191877
0.000211011
0.00991596
0.00988321
0.00982716
0.00974543
0.00963585
0.00949576
0.00932172
0.00910954
0.00885402
0.00854867
0.00818493
0.00775123
0.00723117
0.00660057
0.00582236
0.00483818
0.00355821
0.00188
0.000206838
0.00984875
0.00981974
0.00976677
0.00968751
0.00957982
0.00944107
0.00926784
0.0090559
0.0088
0.00849354
0.00812785
0.00769126
0.00716738
0.00653236
0.00575014
0.00476503
0.00349297
0.00184126
0.000203151
0.00978642
0.00976138
0.00971168
0.00963507
0.00952949
0.00939234
0.00922019
0.00900878
0.00875279
0.00844549
0.00807807
0.00763873
0.00711103
0.0064714
0.00568478
0.00469804
0.00343277
0.00180568
0.000200025
0.00973118
0.00971023
0.00966393
0.00959025
0.00948714
0.00935203
0.00918149
0.00897118
0.00871571
0.00840817
0.0080396
0.00759799
0.00706682
0.0064227
0.00563147
0.00464239
0.00338223
0.00177597
0.000197415
0.00968441
0.0096675
0.00962476
0.0095543
0.00945414
0.00932169
0.00915347
0.00894511
0.00869108
0.00838431
0.00801557
0.00757261
0.00703874
0.00639062
0.00559483
0.00460262
0.00334512
0.00175393
0.000195337
0.00964611
0.00963315
0.00959409
0.00952722
0.00943055
0.00930148
0.00913653
0.00893124
0.00867993
0.00837534
0.00800793
0.0075651
0.00702985
0.00637873
0.0055787
0.00458249
0.00332445
0.00174102
0.000193741
0.0096146
0.00960546
0.00957024
0.00950732
0.00941475
0.00928994
0.00912938
0.00892855
0.00868164
0.00838112
0.00801713
0.00757659
0.00704199
0.00638948
0.00558599
0.00458497
0.00332264
0.00173833
0.000192718
0.00958657
0.00958107
0.00954979
0.00949121
0.00940342
0.00928384
0.00912898
0.00893429
0.00869384
0.00839984
0.00804199
0.00760664
0.0070755
0.00642397
0.00561838
0.00461203
0.00334159
0.00174718
0.000192352
0.00955736
0.00955526
0.00952798
0.00947411
0.00939178
0.0092785
0.00913083
0.00894424
0.0087127
0.00842817
0.00807987
0.00765335
0.0071293
0.00648184
0.00567606
0.00466428
0.00338226
0.00176869
0.000192934
0.0095218
0.00952268
0.00949937
0.00945052
0.00937438
0.00926854
0.00912971
0.00895342
0.00873362
0.00846202
0.00812731
0.00771406
0.00720149
0.00656182
0.00575808
0.00474079
0.00344405
0.00180348
0.000194771
0.0094752
0.00947845
0.00945894
0.00941542
0.00934622
0.00924909
0.00912091
0.00895737
0.00875249
0.00849779
0.00818139
0.00778667
0.00729086
0.00666335
0.00586388
0.00484017
0.00352471
0.0018507
0.000198386
0.00941442
0.00941928
0.00940342
0.00936559
0.0093042
0.00921715
0.0091016
0.00895351
0.00876708
0.00853379
0.00824122
0.00787144
0.00739907
0.00678937
0.00599675
0.00496412
0.00362281
0.00190854
0.000204303
0.00933881
0.00934464
0.00933248
0.0093009
0.00924833
0.00917289
0.00907208
0.00894231
0.00877815
0.00857128
0.00830902
0.00797215
0.00753232
0.00694911
0.00616832
0.00512365
0.00374382
0.00197645
0.00021337
0.009251
0.00925774
0.00924974
0.00922521
0.00918256
0.00912026
0.0090363
0.0089277
0.00878969
0.00861453
0.00838983
0.00809573
0.00770114
0.00715887
0.00640189
0.00534603
0.00390885
0.00205982
0.000226936
0.00915776
0.00916622
0.00916319
0.00914644
0.00911463
0.00906672
0.00900138
0.00891641
0.00880797
0.00866949
0.00848972
0.00824962
0.00791706
0.00743896
0.00673199
0.00568033
0.00416559
0.0021754
0.000247829
0.00907113
0.00908244
0.00908465
0.00907572
0.00905493
0.00902198
0.00897626
0.00891644
0.00883988
0.00874166
0.0086129
0.00843757
0.0081864
0.00780569
0.00719846
0.0062031
0.00461151
0.00237199
0.0002837
0.00900948
0.00902252
0.00902809
0.00902539
0.00901463
0.00899615
0.00896991
0.00893538
0.00889111
0.00883423
0.00875929
0.00865579
0.00850308
0.0082586
0.00783121
0.0070249
0.00546819
0.00283808
0.000355266
0.00899496
0.00900247
0.00900612
0.00900627
0.0090034
0.00899783
0.00898969
0.00897889
0.00896505
0.0089473
0.00892397
0.00889168
0.00884338
0.00876298
0.00860879
0.00825378
0.00725038
0.00427388
0.000497328
)
;

boundaryField
{
    leftWall
    {
        type            nutkWallFunction;
        Cmu             0.09;
        kappa           0.41;
        E               9.8;
        value           nonuniform List<scalar> 
50
(
2.54137e-06
7.66299e-06
9.02263e-06
9.98509e-06
1.06795e-05
1.11938e-05
1.15886e-05
1.19864e-05
1.38717e-05
1.57704e-05
1.55962e-05
1.54068e-05
1.5697e-05
1.61989e-05
1.68873e-05
1.90145e-05
1.48847e-05
1.69164e-05
1.82849e-05
1.92905e-05
2.00082e-05
2.03866e-05
2.04361e-05
2.02486e-05
1.9901e-05
1.94461e-05
1.89189e-05
1.83378e-05
1.77099e-05
1.70404e-05
1.63306e-05
1.55823e-05
1.47956e-05
1.3977e-05
1.31539e-05
1.23777e-05
1.16544e-05
1.1016e-05
1.05081e-05
1.01775e-05
1.00557e-05
1.01519e-05
1.04514e-05
1.09286e-05
1.15598e-05
1.23518e-05
1.34206e-05
1.53864e-05
2.22688e-05
4.82498e-05
)
;
    }
    rightWall
    {
        type            nutkWallFunction;
        Cmu             0.09;
        kappa           0.41;
        E               9.8;
        value           nonuniform List<scalar> 
50
(
3.77932e-06
1.18092e-05
1.33244e-05
1.4449e-05
1.54405e-05
1.68206e-05
1.77736e-05
2.0346e-05
2.15438e-05
2.08935e-05
2.03701e-05
1.97473e-05
1.9174e-05
1.88749e-05
1.86658e-05
1.94842e-05
2.181e-05
2.13365e-05
2.33719e-05
2.44362e-05
2.50089e-05
2.53386e-05
2.56308e-05
2.57832e-05
2.57264e-05
2.54578e-05
2.50063e-05
2.44073e-05
2.37098e-05
2.29618e-05
2.22165e-05
2.15121e-05
2.08824e-05
2.03371e-05
1.98827e-05
1.95062e-05
1.92031e-05
1.89603e-05
1.87849e-05
1.86848e-05
1.86976e-05
1.88682e-05
1.92768e-05
2.00093e-05
2.11916e-05
2.2993e-05
2.57642e-05
3.02918e-05
3.84744e-05
5.51437e-05
)
;
    }
    lowerWall
    {
        type            nutkWallFunction;
        Cmu             0.09;
        kappa           0.41;
        E               9.8;
        value           nonuniform List<scalar> 
62
(
2.54137e-06
3.85048e-06
4.59318e-06
5.1564e-06
5.63198e-06
6.05177e-06
6.4266e-06
6.75906e-06
7.05245e-06
7.3077e-06
7.53023e-06
7.72326e-06
7.88701e-06
8.01981e-06
8.1161e-06
8.16935e-06
8.17045e-06
8.10337e-06
7.93928e-06
7.62228e-06
7.04096e-06
5.9262e-06
3.4019e-06
3.4019e-06
1.04501e-05
1.25252e-05
1.42016e-05
1.57519e-05
1.81536e-05
2.37034e-05
2.82249e-05
2.97151e-05
2.77249e-05
2.84122e-05
3.07389e-05
3.39272e-06
1.19483e-05
1.55736e-05
1.77744e-05
1.9573e-05
2.16276e-05
2.5338e-05
3.12983e-05
3.39272e-06
5.64573e-06
7.0074e-06
7.93207e-06
8.41892e-06
8.69759e-06
8.84918e-06
8.79625e-06
8.64727e-06
8.52326e-06
8.32365e-06
8.07889e-06
7.71877e-06
7.36977e-06
7.04217e-06
6.61734e-06
6.07515e-06
5.29764e-06
3.77932e-06
)
;
    }
    atmosphere
    {
        type            calculated;
        value           nonuniform List<scalar> 
46
(
0.009
0.009
0.00202848
0.00269944
0.00358832
0.00443538
0.00517335
0.00579687
0.00631908
0.00675663
0.00712481
0.00743629
0.00770117
0.00792761
0.00812252
0.00829217
0.00844231
0.00857693
0.0086942
0.00877927
0.00880415
0.00876996
0.00885492
0.009
0.009
0.009
0.009
0.009
0.009
0.009
0.009
0.009
0.009
0.009
0.009
0.009
0.009
0.009
0.009
0.009
0.009
0.009
0.009
0.009
0.009
0.009
)
;
    }
    defaultFaces
    {
        type            empty;
    }
}


// ************************************************************************* //
