/*--------------------------------*- C++ -*----------------------------------*\
  =========                 |
  \\      /  F ield         | OpenFOAM: The Open Source CFD Toolbox
   \\    /   O peration     | Website:  https://openfoam.org
    \\  /    A nd           | Version:  13
     \\/     M anipulation  |
\*---------------------------------------------------------------------------*/
FoamFile
{
    format      ascii;
    class       volScalarField;
    location    "2.1";
    object      p;
}
// * * * * * * * * * * * * * * * * * * * * * * * * * * * * * * * * * * * * * //

dimensions      [1 -1 -2 0 0 0 0];

internalField   nonuniform List<scalar> 
2268
(
6586.62
6561.44
6508.17
6423.95
6314.62
6185.63
6041.79
5894.11
5746.31
5603.18
5468.7
5346.36
5236.59
5140.55
5058.16
4989.01
4932.64
4888.31
4854.95
4831.31
4814.64
4804.85
4800.33
5792.92
5771.59
5721.42
5637.04
5526.79
5396.35
5251.69
5101.96
4952.37
4807.71
4671.54
4546.65
4435.8
4339.09
4256.29
4187.06
4130.84
4086.76
4053.64
4030.2
4014.15
4007.44
4004.5
5005.38
4984.25
4936.82
4852.38
4741.28
4609.42
4463.24
4311.17
4159.36
4012.49
3874.15
3747.48
3634.9
3536.99
3453.53
3384.11
3328.17
3284.68
3252.39
3230.1
3216.11
3212.14
3207.63
4225.08
4204.43
4157.91
4072.37
3959.28
3824.9
3675.93
3520.83
3366.33
3216.55
3075.36
2946.37
2831.93
2732.82
2648.61
2578.84
2523.09
2480.33
2449.27
2428.97
2418.1
2416.88
2408.99
3451.7
3432.49
3385.89
3298.27
3182.02
3043.86
2890.3
2730.67
2572.13
2417.82
2272.18
2140.1
2023.94
1924.32
1839.99
1770.38
1715.75
1674.54
1645.15
1626.81
1618.75
1619.88
1609.44
2684.71
2668.52
2621.55
2531.09
2410.59
2266.92
2104.43
1935.33
1768.63
1613.07
1481.94
1374.97
1289.15
1220.94
1168.61
1128.77
1096.72
1070.63
1049.42
1032.79
1020.77
1014.47
1005.41
1926.67
1916.32
1868.53
1772.83
1643.29
1489.95
1343.52
1215.17
1112.05
1032.53
976.326
936.444
908.173
887.668
873.949
864.059
853.22
840.716
826.442
810.63
793.726
779.158
773.331
1214.37
1206
1163.18
1091.4
1008.58
928.092
872.027
838.123
825.99
826.193
827.06
826.133
823.201
818.507
811.794
803.019
792.515
780.054
765.698
749.817
733.215
719.259
713.876
2202.05
2186.21
2163.32
2150.98
2153.84
2175.36
2192.12
2215.22
2261.46
2327.28
2391.9
2443.94
2485.98
2556.67
2667.51
2800.17
2937.05
3060.86
3150.53
1623.15
1605.62
1573.98
1550.76
1540.81
1527.56
1540.78
1601.86
1656.65
1726.91
1797.21
1865.49
1940.8
2013.92
2093.94
2200.05
2336.44
2467.04
2563
1317.77
1306.79
1271.82
1244.09
1203.38
1159.32
1147.27
1148.72
1149.65
1167.32
1204.67
1273.76
1368.71
1436.25
1509.33
1609.26
1738.83
1882.08
1986.69
1148.44
1142.26
1128.76
1105.26
1060.79
1033.57
1013.93
990.762
951.914
913.435
905.437
920.926
990.032
1056.04
1106.42
1178.07
1267.24
1360.45
1500.21
976.075
964.481
966.901
950.737
948.404
949.035
938.822
916.863
882.64
850.506
839.625
821.003
828.058
869.499
905.256
942.809
987.635
1026.13
1116.78
836.306
821.138
818.392
811.066
827.464
847.257
842.041
811.729
797.119
787.441
782.809
779.15
763.784
762.986
779.24
796.755
812.325
837.493
855.648
746.063
732.289
721.63
715.669
719.473
735.733
732.753
714.548
718.929
724.856
723.51
726.546
725.257
719
718.885
722.216
720.531
714.135
725.516
684.826
671.537
656.063
646.458
642.368
639.558
642.504
648.209
657.213
662.358
662.662
666.364
668.937
670.444
671.503
670.203
666.829
654.799
639.792
727.448
723.345
707.546
692.169
686.327
693.381
704.71
714.338
720.876
725.424
728.197
728.816
727.011
722.896
716.6
708.26
697.941
685.641
671.607
656.325
641.043
628.737
621.849
519.65
520.117
526.211
536.794
549.995
563.058
574.915
585.031
592.703
598.016
601.058
601.798
600.166
596.186
590.084
582.104
572.18
560.359
547.309
534.048
520.338
509.156
500.569
402.861
404.614
410.142
418.803
429.092
440.017
450.603
459.994
467.471
472.922
476.122
477.084
475.694
471.839
466.335
459.747
451.472
442.579
434.605
428.196
422.668
417.818
414.174
284.531
287.979
293.649
301.087
309.417
318.15
327.749
336.461
343.438
349.466
353.291
355.362
356.317
356.024
355.198
354.503
353.141
351.859
352.396
353.32
353.861
353.666
352.366
171.323
175.365
181.247
188.66
197.044
206.026
215.466
224.354
232.699
241.528
249.17
256.017
262.712
269.498
275.989
281.511
285.993
289.87
292.965
294.057
293.207
292.263
291.307
83.8686
88.7267
95.316
103.333
112.817
123.226
133.712
144.23
155.042
166.324
177.719
188.67
198.891
208.776
217.66
224.047
228.919
232.778
234.014
233.285
232.126
230.565
228.087
26.8055
31.0467
36.1573
42.8157
50.7891
60.0445
70.6155
82.5975
94.997
107.45
120.17
132.378
143.614
153.684
161.766
166.988
170.776
173.555
174.301
173.354
171.431
168.902
165.469
5.84689
6.54397
7.84474
9.92719
12.7405
16.4076
21.3811
27.6643
35.2582
44.2542
55.1912
67.8405
81.0668
94.3305
105.597
112.661
115.708
117.017
116.708
114.564
111.234
107.786
104.006
5.4587
5.43555
5.39727
5.36044
5.35359
5.38472
5.45918
5.89077
6.96663
8.75306
11.7799
16.2245
23.0343
32.0103
42.5574
52.2048
58.7296
62.3706
62.1633
58.7028
53.8346
49.0266
44.8506
5.29209
5.2767
5.26117
5.2393
5.21202
5.18236
5.15879
5.14921
5.1572
5.16255
5.11861
5.01994
4.94143
5.10323
6.59882
10.2182
15.4627
19.3098
20.264
18.7803
15.4488
12.2979
11.7741
5.12973
5.11888
5.10593
5.08865
5.06691
5.04039
5.00602
4.95331
4.88871
4.80807
4.70014
4.57438
4.46029
4.40453
4.37619
4.29941
4.07487
3.8012
3.66505
3.48638
3.25812
3.15096
3.03334
4.97155
4.96362
4.95214
4.93611
4.91738
4.89387
4.86028
4.81465
4.75496
4.67948
4.58435
4.46999
4.34172
4.20202
4.0589
3.92407
3.77475
3.63397
3.5077
3.37493
3.24358
3.14021
3.01839
4.81552
4.8086
4.79844
4.7836
4.76451
4.74025
4.70796
4.66341
4.60898
4.54015
4.45431
4.35074
4.23065
4.0987
3.96438
3.82745
3.68866
3.54658
3.40683
3.27303
3.14575
3.03382
2.91747
4.65945
4.65302
4.64349
4.62876
4.60822
4.58118
4.54599
4.50036
4.44397
4.37583
4.29434
4.2008
4.09745
3.98285
3.86116
3.73915
3.60489
3.45932
3.31554
3.17785
3.0525
2.94513
2.83538
4.50233
4.49596
4.48647
4.47151
4.44976
4.42039
4.3824
4.33429
4.27535
4.20748
4.12958
4.04353
3.94995
3.84639
3.73545
3.6196
3.49354
3.35766
3.21873
3.08515
2.96279
2.85662
2.75082
4.34376
4.33735
4.32772
4.3125
4.29007
4.25956
4.22036
4.17194
4.11417
4.04761
3.9736
3.89243
3.8027
3.70412
3.59882
3.4886
3.37103
3.24569
3.11621
2.98871
2.86928
2.76645
2.66411
4.18345
4.17712
4.16748
4.15217
4.1296
4.09901
4.06003
4.01255
3.95681
3.8934
3.82273
3.74472
3.65879
3.56524
3.46548
3.36073
3.25009
3.13296
3.01127
2.88996
2.77501
2.67541
2.57765
4.02135
4.01534
4.00589
3.99078
3.96855
3.93859
3.90075
3.85504
3.80173
3.74128
3.67397
3.59962
3.51809
3.4297
3.33551
3.23633
3.13183
3.02151
2.90655
2.7911
2.68095
2.58501
2.491
3.85777
3.85221
3.84314
3.82849
3.80699
3.77814
3.74191
3.6984
3.64785
3.59054
3.52672
3.45633
3.3793
3.29608
3.20739
3.11379
3.01511
2.91099
2.80225
2.69244
2.58713
2.49502
2.40451
3.69302
3.68797
3.67944
3.66547
3.64497
3.61755
3.58321
3.5421
3.49442
3.44039
3.38022
3.31388
3.24146
3.16333
3.08005
2.99198
2.899
2.80078
2.69795
2.59375
2.49335
2.40519
2.31856
3.52744
3.52291
3.51501
3.50189
3.48259
3.45679
3.42452
3.38591
3.34116
3.29045
3.23398
3.17176
3.10391
3.03078
2.95278
2.87016
2.78278
2.6903
2.59328
2.49463
2.39927
2.31526
2.2324
3.3613
3.35732
3.35011
3.33793
3.31994
3.29587
3.26576
3.22971
3.18791
3.14054
3.08775
3.02959
2.96622
2.89794
2.82507
2.74779
2.66592
2.57911
2.48783
2.39481
2.30462
2.22483
2.14604
3.19487
3.19142
3.18493
3.17375
3.15714
3.13485
3.10691
3.07344
3.03458
2.9905
2.94131
2.8871
2.82806
2.76448
2.6966
2.62453
2.54807
2.46688
2.38137
2.29404
2.20919
2.13391
2.05927
3.02835
3.02543
3.01967
3.00951
2.99428
2.97378
2.948
2.91705
2.88106
2.84017
2.79447
2.74408
2.68924
2.63019
2.56714
2.50016
2.42903
2.3534
2.27365
2.19212
2.11278
2.04222
1.97226
2.86191
2.85949
2.85445
2.8453
2.83145
2.81269
2.78902
2.76051
2.72728
2.68943
2.64707
2.60039
2.5496
2.49492
2.43655
2.37452
2.30861
2.23849
2.1645
2.08879
2.01503
1.94935
1.88402
2.69564
2.69373
2.68938
2.68122
2.66869
2.65161
2.62993
2.60373
2.57309
2.53814
2.49902
2.4559
2.40901
2.35856
2.30472
2.2475
2.1867
2.122
2.0537
1.98379
1.91561
1.85475
1.79423
2.52963
2.52819
2.52449
2.51727
2.50598
2.49044
2.47062
2.44658
2.41842
2.38625
2.35023
2.31055
2.26742
2.22104
2.17157
2.11902
2.0632
2.00381
1.94112
1.87692
1.81428
1.7583
1.70245
2.36385
2.36283
2.35974
2.35336
2.3432
2.3291
2.31102
2.28903
2.26321
2.23371
2.20067
2.16429
2.12477
2.08232
2.03707
1.98905
1.93808
1.88386
1.82664
1.76806
1.7109
1.65977
1.60882
2.1983
2.19765
2.19509
2.18946
2.18033
2.16755
2.15109
2.13103
2.10744
2.08048
2.05029
2.01708
1.98105
1.94239
1.90123
1.8576
1.81132
1.76214
1.71026
1.65718
1.60537
1.55904
1.51272
2.03294
2.03263
2.03051
2.02554
2.01733
2.00575
1.99081
1.97255
1.95109
1.92655
1.89911
1.86896
1.83628
1.80128
1.76408
1.7247
1.68299
1.63871
1.59203
1.5443
1.49773
1.45602
1.41431
1.8678
1.86775
1.86598
1.86157
1.85417
1.8437
1.83016
1.81361
1.79417
1.77197
1.74717
1.71996
1.69054
1.65908
1.62572
1.59046
1.55318
1.51366
1.47207
1.42956
1.38812
1.351
1.31372
1.70289
1.70303
1.70153
1.69757
1.69088
1.68141
1.66919
1.65427
1.63676
1.6168
1.59456
1.5702
1.54393
1.5159
1.48626
1.45501
1.42204
1.38715
1.35049
1.31311
1.27671
1.24411
1.21143
1.5383
1.53855
1.53721
1.53361
1.52754
1.519
1.50801
1.49465
1.47901
1.46122
1.44144
1.41985
1.39662
1.37193
1.34588
1.31851
1.28971
1.25932
1.22746
1.19503
1.16351
1.13533
1.10702
1.37414
1.37443
1.37318
1.36985
1.36433
1.35664
1.34683
1.33496
1.32112
1.30543
1.28804
1.26912
1.24885
1.22737
1.20479
1.18116
1.15638
1.13031
1.10304
1.07536
1.04851
1.02449
1.00041
1.2106
1.21087
1.20964
1.2065
1.20146
1.19457
1.18588
1.17545
1.16334
1.14968
1.13461
1.11828
1.10084
1.08245
1.06321
1.04315
1.0222
1.00023
0.977333
0.954134
0.931681
0.911614
0.891406
1.04791
1.04814
1.04685
1.04381
1.03917
1.03302
1.02541
1.01635
1.00593
0.994236
0.981398
0.967554
0.952847
0.93741
0.921338
0.904665
0.887332
0.869229
0.850412
0.831407
0.813057
0.796663
0.780156
0.886355
0.886501
0.885036
0.88198
0.877653
0.872188
0.865591
0.85787
0.849074
0.839284
0.828603
0.817151
0.805054
0.792426
0.779354
0.765867
0.751917
0.737409
0.722386
0.707259
0.692671
0.679639
0.666412
0.72624
0.726224
0.724358
0.721083
0.716966
0.712125
0.706506
0.700082
0.69287
0.684925
0.676328
0.667174
0.657567
0.647604
0.637355
0.626849
0.616046
0.604868
0.593339
0.581768
0.570642
0.560631
0.550326
0.56794
0.567618
0.564859
0.561033
0.556991
0.552726
0.548065
0.542916
0.537259
0.531118
0.524542
0.517602
0.510375
0.502936
0.495343
0.487621
0.479742
0.471649
0.463358
0.455111
0.447226
0.439981
0.432197
0.411891
0.411191
0.406321
0.401443
0.397362
0.393658
0.389963
0.386097
0.381989
0.377625
0.373025
0.368228
0.363285
0.358248
0.353161
0.348046
0.342895
0.33768
0.332448
0.327438
0.322906
0.318515
0.312767
0.263132
0.258423
0.247596
0.24155
0.23772
0.234732
0.232094
0.229563
0.227026
0.224436
0.221783
0.219079
0.216347
0.213614
0.210909
0.208254
0.205661
0.203154
0.20086
0.199185
0.198874
0.197098
0.192359
0.105088
0.0908303
0.0821915
0.080361
0.0791235
0.0779485
0.0769078
0.0759581
0.0750578
0.074183
0.0733243
0.0724812
0.0716588
0.0708671
0.0701192
0.0694313
0.0688234
0.0683342
0.0680857
0.0684654
0.0705836
0.0713121
0.0675326
617.784
613.887
608.574
602.685
490.818
485.276
480.72
475.403
414.049
412.566
407.654
401.576
352.147
349.257
344.702
338.846
288.289
284.893
280.819
276.864
224.079
220.884
217.542
214.206
161.292
158.259
155.105
151.944
99.2525
95.9602
92.7146
89.7662
37.8397
33.3146
30.0838
30.4769
9.9445
5.13605
3.40219
3.27082
2.56251
2.2895
2.15329
2.13834
2.80709
2.59571
2.36441
2.1994
2.71069
2.47745
2.23382
2.06322
2.63197
2.40506
2.1523
1.97048
2.55835
2.33889
2.08749
1.90026
2.47903
2.26669
2.0218
1.83542
2.39997
2.19417
1.95272
1.76824
2.31986
2.12113
1.88666
1.7064
2.24049
2.04959
1.82319
1.64867
2.16196
1.97962
1.76291
1.59485
2.08369
1.91044
1.70382
1.54336
2.00503
1.84118
1.64597
1.49373
1.92659
1.77249
1.58855
1.44508
1.84815
1.70413
1.5322
1.3973
1.76888
1.63507
1.47466
1.34867
1.68762
1.5639
1.41571
1.29863
1.60457
1.49089
1.35427
1.24629
1.5195
1.41576
1.29108
1.19183
1.43197
1.338
1.22456
1.13417
1.34153
1.257
1.15514
1.07347
1.24894
1.17363
1.08254
1.00947
1.15445
1.08811
1.00776
0.942682
1.05775
1.00007
0.929576
0.872233
0.95821
0.908651
0.847945
0.797955
0.855946
0.814034
0.76221
0.71927
0.750906
0.716102
0.67281
0.636349
0.642871
0.614592
0.578941
0.548634
0.53173
0.509299
0.480917
0.456399
0.418052
0.400912
0.379
0.359923
0.302441
0.290066
0.274222
0.260164
0.185465
0.177372
0.167102
0.157772
0.0651168
0.0623496
0.0586801
0.0547739
589.63
581.117
568.009
554.451
547.841
544.49
552.721
559.025
562.858
565.474
566.558
569.647
572.784
575.521
578.364
579.34
577.803
572.878
570.218
473.472
471.488
464.211
455.748
450.391
447.995
447.064
445.483
445.529
445.472
445.548
446.504
447.608
449.474
452.862
457.527
462.096
465.075
469.905
393.585
389.6
387.799
386.84
381.699
373.753
366.407
362.665
360.209
358.662
357.308
356.08
354.817
353.599
352.551
352.536
354.485
358.484
363.356
331.505
327.25
324.279
321.437
317.231
311.149
304.939
299.825
296.532
294.314
292.297
290.242
287.936
285.061
281.046
275.967
271.377
268.82
267.788
270.809
265.218
260.673
256.65
252.319
246.777
240.654
235.797
232.194
229.477
227.17
224.992
222.716
220.058
216.59
212.15
206.775
200.535
195.437
208.883
202.632
197.053
191.807
186.539
180.961
175.465
170.732
166.905
163.899
161.416
159.204
157.097
154.971
152.343
148.845
144.274
138.678
133.461
146.523
139.392
132.837
126.471
120.268
114.349
108.92
104.147
100.154
97.0169
94.5385
92.4112
90.522
88.8978
87.1921
84.7582
81.6419
77.8371
73.1173
84.3177
76.1562
68.4779
61.4161
54.6005
48.8086
44.3374
40.6344
37.5469
35.2932
33.6941
32.3715
31.0048
30.6567
30.3245
29.1938
28.0082
26.3393
23.5999
28.802
23.709
19.4718
15.7083
12.2067
9.63979
7.97776
6.70815
5.73316
5.13325
4.77338
4.45174
4.05539
4.37128
4.4366
4.15914
3.64153
3.2035
2.83291
3.00625
2.33529
2.09857
2.06813
2.04531
2.04218
2.05021
2.0571
2.04272
2.0106
1.9735
1.95864
1.96151
1.81075
1.72401
1.6903
1.72074
1.79588
1.81242
2.15986
2.10296
2.05284
2.00592
1.96664
1.93712
1.9199
1.91093
1.8872
1.84296
1.78896
1.74443
1.72406
1.72071
1.69627
1.67525
1.67345
1.67998
1.68227
2.05925
1.99627
1.94324
1.89197
1.84739
1.80995
1.78084
1.76019
1.7266
1.68387
1.6378
1.60261
1.57318
1.55431
1.53308
1.53425
1.53972
1.55244
1.56318
1.93732
1.89052
1.84153
1.78554
1.73459
1.68976
1.64638
1.60255
1.56297
1.52636
1.48736
1.45072
1.4187
1.3973
1.40149
1.41374
1.42991
1.44753
1.45997
1.83656
1.79657
1.74789
1.68993
1.63479
1.58434
1.5338
1.4791
1.43213
1.39347
1.36877
1.34329
1.31925
1.30758
1.31111
1.32284
1.33934
1.35654
1.36834
1.75614
1.71321
1.66497
1.60608
1.54779
1.49363
1.44244
1.39177
1.34329
1.30643
1.28145
1.26018
1.24189
1.233
1.23509
1.2454
1.25978
1.27466
1.28505
1.68716
1.63901
1.59087
1.53135
1.47088
1.41436
1.36238
1.31398
1.27071
1.2353
1.20838
1.18691
1.17093
1.16286
1.16415
1.17248
1.18522
1.19884
1.20901
1.62161
1.57452
1.52488
1.4639
1.4025
1.34491
1.29239
1.24501
1.20351
1.16907
1.14197
1.12067
1.10564
1.0981
1.09831
1.10512
1.11653
1.12951
1.1396
1.56205
1.51545
1.46538
1.40412
1.34231
1.28423
1.2316
1.18468
1.14392
1.10995
1.08269
1.06166
1.04704
1.03937
1.03865
1.0441
1.05422
1.06646
1.07637
1.50808
1.4615
1.41167
1.35073
1.28902
1.23094
1.17847
1.13196
1.09165
1.05783
1.03051
1.00948
0.994815
0.986696
0.984995
0.989064
0.997895
1.00926
1.01857
1.4584
1.41216
1.36278
1.30249
1.24134
1.18365
1.13155
1.08547
1.0455
1.01177
0.984316
0.963072
0.948064
0.939295
0.936548
0.939348
0.946811
0.956994
0.965537
1.41229
1.3664
1.31761
1.25826
1.19799
1.141
1.08946
1.04382
1.00414
0.970479
0.942865
0.921302
0.90579
0.89626
0.892475
0.893945
0.900032
0.908949
0.916439
1.3684
1.32323
1.27514
1.21694
1.15779
1.10175
1.05091
1.00578
0.966394
0.932792
0.905013
0.883081
0.866989
0.856638
0.851771
0.852004
0.856659
0.864132
0.87059
1.32623
1.28168
1.23439
1.17751
1.11968
1.06476
1.01478
0.970238
0.931187
0.897668
0.869729
0.847408
0.830697
0.819499
0.813581
0.812513
0.815778
0.821868
0.827208
1.28446
1.24081
1.19442
1.13901
1.08269
1.02906
0.980081
0.936223
0.897571
0.864175
0.836096
0.813388
0.796053
0.784004
0.777015
0.774759
0.776641
0.781309
0.785701
1.24247
1.1997
1.15439
1.10062
1.04597
0.993807
0.945957
0.902896
0.864723
0.831508
0.803329
0.780255
0.762307
0.749422
0.741422
0.737942
0.738538
0.741954
0.745423
1.19898
1.15755
1.11353
1.0616
1.00879
0.958262
0.911691
0.869547
0.831951
0.798992
0.770769
0.74737
0.728844
0.715156
0.706152
0.701586
0.700952
0.703159
0.705919
1.15373
1.11369
1.0712
1.02132
0.970555
0.921821
0.876681
0.835588
0.798681
0.766071
0.737878
0.714216
0.695159
0.680717
0.670795
0.665132
0.663395
0.664603
0.666696
1.10587
1.06762
1.02689
0.97927
0.930741
0.883979
0.840431
0.800534
0.764445
0.732295
0.704226
0.680378
0.660862
0.645726
0.63492
0.628317
0.625553
0.625816
0.627424
1.05533
1.01894
0.980199
0.93505
0.888934
0.844318
0.802528
0.763983
0.728855
0.697294
0.669462
0.645527
0.625634
0.609883
0.5983
0.59076
0.587093
0.5866
0.587733
1.00151
0.967371
0.930808
0.888303
0.844772
0.80247
0.762607
0.725583
0.691578
0.660754
0.633294
0.609389
0.589226
0.572952
0.560642
0.552325
0.54782
0.546595
0.547383
0.944601
0.912666
0.878423
0.838702
0.79791
0.758087
0.720327
0.685005
0.652299
0.622383
0.595452
0.571721
0.55141
0.534721
0.521812
0.512724
0.507485
0.505669
0.506087
0.884138
0.85455
0.822723
0.785907
0.747999
0.710819
0.675343
0.641913
0.610704
0.581888
0.555667
0.532277
0.51197
0.494995
0.481563
0.471871
0.465949
0.463532
0.463673
0.820055
0.792693
0.763371
0.729566
0.694675
0.6603
0.627293
0.595959
0.566458
0.538956
0.513654
0.490799
0.470669
0.453562
0.439771
0.429507
0.423006
0.420105
0.41993
0.751689
0.726736
0.70001
0.669314
0.637571
0.60616
0.575812
0.546787
0.519222
0.493268
0.469117
0.447017
0.427268
0.410207
0.396179
0.385554
0.378557
0.375165
0.374759
0.67896
0.656364
0.632316
0.604826
0.576356
0.548067
0.520569
0.49407
0.468682
0.444528
0.421783
0.400683
0.381537
0.364721
0.350666
0.339761
0.332423
0.328686
0.328032
0.601418
0.581336
0.560058
0.535869
0.510794
0.485782
0.461322
0.437573
0.41461
0.392526
0.371462
0.351632
0.333337
0.316978
0.303043
0.2921
0.28455
0.2805
0.279733
0.519127
0.501577
0.483167
0.462371
0.440806
0.419219
0.397986
0.37721
0.356931
0.337202
0.318122
0.299861
0.282689
0.267015
0.253403
0.242478
0.234854
0.230615
0.229852
0.432021
0.417212
0.401781
0.38447
0.366528
0.348512
0.330688
0.313112
0.295785
0.278718
0.261958
0.245612
0.229889
0.215157
0.201995
0.191231
0.183521
0.178933
0.17848
0.340676
0.328664
0.316318
0.302599
0.288401
0.274106
0.259883
0.245744
0.231658
0.217595
0.203545
0.18954
0.175689
0.162259
0.14979
0.139107
0.13122
0.126255
0.125444
0.245629
0.236585
0.227493
0.21751
0.207211
0.196813
0.186401
0.175958
0.165431
0.154761
0.143888
0.132764
0.12138
0.109824
0.0984082
0.0879353
0.0794081
0.072827
0.0710105
0.147588
0.141416
0.135732
0.129593
0.123271
0.116863
0.110397
0.103838
0.0971306
0.090206
0.0829831
0.0753666
0.0672461
0.0585158
0.0491685
0.0394452
0.0296781
0.0188959
0.0155043
0.0495671
0.0467475
0.0446458
0.0425121
0.0403242
0.0381039
0.0358474
0.0335351
0.0311387
0.0286237
0.0259464
0.0230479
0.0198451
0.0162111
0.0119604
0.00693769
0.000666869
-0.0136377
-0.0128106
)
;

boundaryField
{
    leftWall
    {
        type            calculated;
        value           nonuniform List<scalar> 
50
(
6586.62
5792.92
5005.38
4225.08
3451.7
2684.71
1926.67
1214.37
727.448
519.65
402.861
284.531
171.323
83.8686
26.8055
5.84689
5.4587
5.29209
5.12973
4.97155
4.81552
4.65945
4.50233
4.34376
4.18345
4.02135
3.85777
3.69302
3.52744
3.3613
3.19487
3.02835
2.86191
2.69564
2.52963
2.36385
2.1983
2.03294
1.8678
1.70289
1.5383
1.37414
1.2106
1.04791
0.886355
0.72624
0.56794
0.411891
0.263132
0.105088
)
;
    }
    rightWall
    {
        type            calculated;
        value           nonuniform List<scalar> 
50
(
3150.53
2563
1986.69
1500.21
1116.78
855.648
725.516
639.792
570.218
469.905
363.356
267.788
195.437
133.461
73.1173
23.5999
2.83291
1.81242
1.68227
1.56318
1.45997
1.36834
1.28505
1.20901
1.1396
1.07637
1.01857
0.965537
0.916439
0.87059
0.827208
0.785701
0.745423
0.705919
0.666696
0.627424
0.587733
0.547383
0.506087
0.463673
0.41993
0.374759
0.328032
0.279733
0.229852
0.17848
0.125444
0.0710105
0.0155043
-0.0128106
)
;
    }
    lowerWall
    {
        type            calculated;
        value           nonuniform List<scalar> 
62
(
6984.77
6959.59
6906.32
6822.1
6712.77
6583.78
6439.94
6292.26
6144.46
6001.33
5866.85
5744.51
5634.74
5538.7
5456.31
5387.16
5330.79
5286.46
5253.1
5229.39
5212.63
5202.78
5198.26
4800.33
4004.5
3207.63
2408.99
1609.44
1005.41
773.331
713.876
698.78
715.652
707.382
699.098
2202.05
1623.15
1317.77
1148.44
976.075
836.306
746.063
684.826
2553.4
2537.57
2514.85
2502.76
2505.59
2526.78
2538.3
2483.97
2517.99
2584.32
2649.11
2695.86
2728.46
2798.76
2944.24
3104.04
3241.3
3363.7
3453.36
)
;
    }
    atmosphere
    {
        type            calculated;
        value           nonuniform List<scalar> 
46
(
-0.00049322
-8.8729e-05
0
0
0
0
0
0
0
0
0
0
0
0
0
0
0
0
0
0
0
0
0
0
0
0
0
0
-1.834e-06
-9.70304e-06
-2.23653e-05
-3.86607e-05
-5.74852e-05
-7.75097e-05
-9.71413e-05
-0.000114629
-0.000128275
-0.000136742
-0.000139381
-0.000136507
-0.000129668
-0.000121943
-0.000119227
-0.000146502
-0.000420973
-0.002158
)
;
    }
    defaultFaces
    {
        type            empty;
    }
}


// ************************************************************************* //
