/*--------------------------------*- C++ -*----------------------------------*\
  =========                 |
  \\      /  F ield         | OpenFOAM: The Open Source CFD Toolbox
   \\    /   O peration     | Website:  https://openfoam.org
    \\  /    A nd           | Version:  13
     \\/     M anipulation  |
\*---------------------------------------------------------------------------*/
FoamFile
{
    format      ascii;
    class       volScalarField;
    location    "2.1";
    object      p_rgh;
}
// * * * * * * * * * * * * * * * * * * * * * * * * * * * * * * * * * * * * * //

dimensions      [1 -1 -2 0 0 0 0];

internalField   nonuniform List<scalar> 
2268
(
6984.77
6959.59
6906.32
6822.1
6712.77
6583.78
6439.94
6292.26
6144.46
6001.33
5866.85
5744.51
5634.74
5538.7
5456.31
5387.16
5330.79
5286.46
5253.1
5229.39
5212.63
5202.78
5198.26
6987.37
6966.04
6915.87
6831.49
6721.24
6590.8
6446.14
6296.4
6146.82
6002.16
5865.99
5741.1
5630.25
5533.54
5450.74
5381.51
5325.29
5281.21
5248.09
5224.65
5208.6
5201.83
5198.7
6996.13
6975
6927.57
6843.12
6732.03
6600.17
6453.99
6301.92
6150.11
6003.24
5864.9
5738.23
5625.65
5527.74
5444.28
5374.86
5318.92
5275.43
5243.14
5220.85
5206.86
5202.88
5198.38
7012.13
6991.48
6944.96
6859.41
6746.33
6611.95
6462.98
6307.88
6153.37
6003.6
5862.41
5733.42
5618.98
5519.87
5435.66
5365.89
5310.14
5267.38
5236.32
5216.02
5205.14
5203.93
5196.04
7035.05
7015.84
6969.23
6881.62
6765.37
6627.21
6473.65
6314.02
6155.47
6001.17
5855.53
5723.45
5607.28
5507.67
5423.34
5351.84
5289.6
5239.01
5202.08
5180.99
5176.56
5186.16
5181.38
7064.36
7048.17
7001.2
6910.74
6790.24
6646.57
6484.08
6314.97
6148.27
5935.87
5594.11
5197.04
4785.2
4395.16
4017.41
3671.3
3416.21
3240.84
3137.34
3102.62
3139.67
3231.48
3216.05
7102.61
7092.27
7044.48
6948.78
6819.24
6649.64
6087.49
5260.9
4228.35
3178.68
2420.19
1901.83
1564.01
1348.96
1256.53
1246.64
1235.8
1223.29
1208.98
1193.1
1176.05
1161.26
1155.39
6585.78
6715.08
6552.53
5974.15
4948.49
3538.2
2406.06
1647.57
1316
1267.63
1268.5
1267.57
1264.64
1259.95
1253.23
1244.46
1233.95
1221.49
1207.13
1191.24
1174.63
1160.65
1155.18
2553.4
2537.57
2514.85
2502.76
2505.59
2526.78
2538.3
2483.97
2517.99
2584.32
2649.11
2695.86
2728.46
2798.76
2944.24
3104.04
3241.3
3363.7
3453.36
2306.28
2294.6
2282.79
2268.08
2277.25
2380.2
2407.66
2574.88
2662.7
2730.9
2796.81
2842.2
2841.1
2917.85
3001.42
3111.13
3248.39
3375.58
3471.47
1718.4
1661.76
1601.62
1567.88
1659.3
1575.56
1651.07
1794.51
1991.18
2287.84
2502.7
2617.83
2701.29
2787.06
2918.16
3048.82
3248.56
3395.88
3500.55
1789.49
1801.67
1640.61
1622.92
1438.4
1322.55
1247.59
1202.97
1164.04
1124.83
1141.62
1471.02
1743.45
1761.67
1894.05
2127.22
2468.76
3097.37
3051.75
1741.41
1769.61
1734.28
1718.17
1492.56
1309.85
1284.77
1310.55
1216.93
1120.47
1083.25
952.09
1289.77
1592.5
1623.16
1764.39
1960.42
1926.41
2998.06
1498.96
1483.23
1512.34
1412.7
1493.28
1470.86
1399.2
1456.18
1317.19
1114.96
1105.46
1014.22
870.088
1025.38
1227.79
1345.04
1538.55
1884.62
1787.94
1193.3
1128.41
1165.78
1199.38
1299.58
1418.8
1461.59
1253.36
1127.27
1107.42
1106.11
1102.81
1047.03
945.74
937.74
1016.72
1034.04
1153.87
1590.07
1141.17
1084.8
1112.91
1082.9
1077.57
1300.14
1264.55
1089.49
1098.57
1104.26
1104.64
1108.37
1110.11
1100.14
1090.88
1097.13
1102.36
1077.25
1087.32
2070.23
2062.71
1844.39
1530.9
1299.92
1228.87
1238.18
1247.8
1254.34
1258.89
1261.66
1262.28
1260.48
1256.36
1250.07
1241.73
1231.41
1219.11
1205.07
1189.79
1174.51
1162.2
1153.19
1178.31
1178.78
1184.87
1195.46
1208.66
1221.72
1233.58
1243.69
1251.36
1256.68
1259.72
1260.46
1258.83
1254.85
1248.75
1240.77
1230.84
1219.02
1203.16
1178.27
1151.67
1131.69
1089.01
1186.72
1188.47
1194
1202.63
1212.95
1223.87
1234.46
1243.85
1251.33
1256.78
1259.98
1260.94
1259.55
1255.29
1242.25
1224.53
1205.87
1169.48
1105.28
1054.45
940.607
855.15
820.711
1192.68
1195.89
1199.5
1207.03
1216.1
1226.84
1236.51
1244.9
1249.59
1247.71
1241.44
1230.88
1208.46
1157.96
1093.75
1044.74
969.285
887.358
809.117
758.247
793.941
806.045
755.29
1063.31
1080.12
1098.53
1095.81
1068.44
1041.81
1064.3
1064.46
1019.77
1009.14
959.102
898.283
855.792
809.454
750.644
739.702
752.17
720.038
748.335
810.578
810.059
806.007
786.635
686.116
683.153
688.893
692.09
701.626
713.982
723.267
707.235
685.581
720.719
725.33
723.885
734.977
742.668
760.871
792.723
800.022
793.876
803.604
813
811.504
809.196
807.757
453.441
503.426
563.425
611.303
647.181
675.345
697.422
711.312
727.498
749.536
762.211
774.445
785.879
796
804.083
809.305
813.093
815.872
816.618
815.66
813.703
811.188
807.789
10.4986
32.0706
64.6279
113.665
172.884
237.735
315.35
404.136
484.175
563.427
647.22
728.91
785.977
799.243
810.51
817.575
820.621
821.931
821.622
819.478
816.148
812.7
808.921
6.99369
6.97057
6.9323
6.8964
6.90438
6.93583
7.00965
13.4259
30.7739
58.2786
106.148
176.854
288.933
451.093
634.479
800.287
826.24
829.882
829.675
826.214
821.346
816.538
812.363
6.9535
6.94061
6.92488
6.92318
7.08653
7.05363
6.84641
6.81292
6.82173
6.82786
6.7842
6.6854
6.6076
8.74982
34.658
112.358
243.448
374.286
457.85
472.984
424.32
310.413
286.846
6.91703
6.91119
6.90401
6.92576
6.8662
6.87581
6.80466
6.73874
6.67413
6.59349
6.48609
6.36044
6.24677
6.19192
6.16734
6.09045
5.86476
5.5896
7.13259
7.79305
6.45719
4.93644
4.8197
6.88306
6.87611
6.8632
6.84806
6.82811
6.80455
6.77152
6.72848
6.70505
6.6925
6.56696
6.3823
6.25234
6.11268
5.96955
5.83496
5.68569
5.54479
5.4192
5.28623
5.15424
5.05089
4.92906
6.85184
6.84459
6.83437
6.81952
6.80043
6.77617
6.74387
6.73733
6.81575
6.74891
6.66343
6.49853
6.26911
6.13451
6.00018
5.86329
5.72452
5.58253
5.44274
5.30889
5.1816
5.06968
4.95333
6.82086
6.81428
6.80468
6.78992
6.76941
6.74236
6.70755
6.68108
6.77329
6.72162
6.64088
6.4729
6.2653
6.14668
6.02303
5.90082
5.76632
5.62084
5.47685
5.33906
5.21369
5.10631
4.99652
6.78878
6.7824
6.77282
6.75785
6.73615
6.70686
6.66908
6.62241
6.58361
6.59616
6.50155
6.34253
6.24348
6.13889
6.02699
5.91124
5.78412
5.64521
5.50548
5.37173
5.2493
5.14309
5.03724
6.75528
6.74888
6.73923
6.72398
6.70156
6.67109
6.63192
6.58352
6.52563
6.4593
6.38533
6.3077
6.22105
6.12305
6.01696
5.90604
5.78632
5.65851
5.52825
5.40054
5.28104
5.17814
5.07574
6.72015
6.71382
6.70416
6.68883
6.66624
6.63565
6.59669
6.54917
6.49346
6.43027
6.35992
6.283
6.19883
6.10588
6.00451
5.89906
5.78793
5.67031
5.54835
5.42689
5.31189
5.21225
5.11443
6.68325
6.67724
6.66777
6.65263
6.63038
6.6004
6.56256
6.51686
6.46358
6.40331
6.33645
6.26277
6.18158
6.09256
5.99761
5.89832
5.79389
5.68352
5.56859
5.4531
5.34292
5.24695
5.1529
6.64486
6.6393
6.63022
6.61554
6.59401
6.56514
6.52891
6.48542
6.43488
6.37765
6.31411
6.24414
6.16708
6.08333
5.99446
5.90084
5.80217
5.69804
5.58931
5.47952
5.37419
5.28208
5.19155
6.6053
6.60025
6.59171
6.57772
6.55719
6.52975
6.4954
6.4543
6.40662
6.35262
6.29249
6.22623
6.15378
6.07558
5.99225
5.90418
5.81121
5.713
5.61016
5.50596
5.40556
5.3174
5.23076
6.5649
6.56038
6.55248
6.53933
6.52
6.49418
6.4619
6.42329
6.37853
6.32784
6.27136
6.20914
6.14129
6.06817
5.99016
5.90754
5.82016
5.72769
5.63066
5.53202
5.43666
5.35264
5.26978
6.52395
6.51996
6.51275
6.50056
6.48255
6.45846
6.42833
6.39228
6.35048
6.3031
6.25032
6.19216
6.12878
6.0605
5.98764
5.91036
5.82849
5.74168
5.6504
5.55738
5.46718
5.38739
5.3086
6.4827
6.47925
6.47275
6.46156
6.44494
6.42263
6.39468
6.3612
6.32234
6.27825
6.22906
6.17486
6.11582
6.05223
5.98436
5.91229
5.83583
5.75464
5.66912
5.58179
5.49694
5.42166
5.34702
6.44136
6.43844
6.43266
6.42249
6.40726
6.38674
6.36096
6.33
6.29401
6.25312
6.20741
6.15703
6.10219
6.04314
5.98009
5.9131
5.84197
5.76635
5.68659
5.60507
5.52572
5.45516
5.38521
6.40011
6.39768
6.39262
6.38347
6.36961
6.35085
6.32717
6.29866
6.26542
6.22757
6.18521
6.13853
6.08773
6.03306
5.97469
5.91265
5.84675
5.77663
5.70264
5.62693
5.55317
5.48748
5.42216
6.35902
6.3571
6.35274
6.34457
6.33204
6.31495
6.29327
6.26707
6.23643
6.20147
6.16235
6.11923
6.07234
6.0219
5.96805
5.91083
5.85003
5.78534
5.71703
5.64712
5.57894
5.51808
5.45756
6.31819
6.31674
6.31304
6.3058
6.29451
6.27897
6.25915
6.23511
6.20694
6.17477
6.13876
6.09908
6.05594
6.00957
5.9601
5.90755
5.85173
5.79234
5.72964
5.66544
5.6028
5.54683
5.49098
6.2776
6.27658
6.27348
6.26709
6.25692
6.24282
6.22474
6.20275
6.17693
6.14743
6.11439
6.07801
6.03849
5.99604
5.95079
5.90277
5.8518
5.79758
5.74035
5.68178
5.62462
5.57349
5.52254
6.23723
6.23658
6.23401
6.22838
6.21925
6.20646
6.19001
6.16994
6.14636
6.11939
6.08921
6.056
6.01996
5.9813
5.94015
5.89651
5.85024
5.80105
5.74918
5.69609
5.64429
5.59795
5.55163
6.19707
6.19675
6.19462
6.18965
6.18144
6.16986
6.15492
6.13666
6.1152
6.09066
6.06322
6.03307
6.00039
5.96539
5.92819
5.88881
5.8471
5.80281
5.75614
5.70841
5.66184
5.62013
5.57841
6.15711
6.15706
6.15529
6.15088
6.14347
6.133
6.11946
6.10291
6.08347
6.06127
6.03647
6.00926
5.97984
5.94838
5.91502
5.87976
5.84249
5.80297
5.76137
5.71886
5.67743
5.6403
5.60302
6.1174
6.11753
6.11603
6.11207
6.10538
6.09591
6.08368
6.06876
6.05126
6.0313
6.00905
5.9847
5.95842
5.9304
5.90075
5.8695
5.83653
5.80165
5.76499
5.72761
5.69121
5.65861
5.62593
6.078
6.07824
6.07691
6.0733
6.06724
6.05869
6.04771
6.03434
6.0187
6.00091
5.98113
5.95954
5.93631
5.91162
5.88557
5.8582
5.8294
5.79901
5.76715
5.73472
5.70321
5.67502
5.64671
6.03903
6.03931
6.03807
6.03474
6.02921
6.02153
6.01172
5.99985
5.986
5.97031
5.95293
5.93401
5.91373
5.89225
5.86968
5.84604
5.82126
5.79519
5.76793
5.74024
5.71339
5.68938
5.66529
6.00068
6.00095
5.99972
5.99658
5.99154
5.98465
5.97597
5.96553
5.95342
5.93976
5.92469
5.90836
5.89092
5.87253
5.85329
5.83323
5.81228
5.79031
5.76741
5.74422
5.72176
5.7017
5.68149
5.96318
5.96342
5.96213
5.95909
5.95445
5.9483
5.94068
5.93163
5.9212
5.90951
5.89667
5.88283
5.86812
5.85269
5.83661
5.81994
5.80261
5.7845
5.76569
5.74668
5.72833
5.71194
5.69543
5.92683
5.92697
5.92551
5.92245
5.91812
5.91266
5.90606
5.89834
5.88954
5.87975
5.86907
5.85762
5.84552
5.8329
5.81982
5.80634
5.79239
5.77788
5.76286
5.74773
5.73314
5.72011
5.70688
5.8919
5.89189
5.89002
5.88675
5.88263
5.87779
5.87217
5.86575
5.85853
5.85059
5.84199
5.83284
5.82323
5.81327
5.80302
5.79251
5.78171
5.77053
5.759
5.74743
5.73631
5.7263
5.71599
5.8588
5.85848
5.85572
5.85189
5.84785
5.84359
5.83892
5.83377
5.82812
5.82198
5.8154
5.80846
5.80123
5.79379
5.7862
5.77848
5.7706
5.76251
5.75422
5.74597
5.73808
5.73084
5.72306
5.82794
5.82724
5.82237
5.8175
5.81342
5.80971
5.80602
5.80215
5.79804
5.79368
5.78908
5.78428
5.77934
5.7743
5.76921
5.7641
5.75895
5.75373
5.7485
5.74349
5.73896
5.73457
5.72882
5.80438
5.79967
5.78884
5.7828
5.77897
5.77598
5.77334
5.77081
5.76827
5.76568
5.76303
5.76033
5.7576
5.75486
5.75216
5.7495
5.74691
5.7444
5.74211
5.74043
5.74012
5.73835
5.73361
5.77153
5.75727
5.74863
5.7468
5.74557
5.74439
5.74335
5.7424
5.7415
5.74063
5.73977
5.73892
5.7381
5.73731
5.73656
5.73587
5.73527
5.73478
5.73453
5.73491
5.73703
5.73775
5.73398
1308.05
1481.14
1450.64
1424.33
926.132
854.459
866.639
966.672
749.19
742.845
746.179
809.584
722.585
749.274
798.487
786.317
787.497
802.255
799.565
794.83
803.862
800.673
797.26
793.926
803.613
800.577
797.422
794.263
804.167
800.876
797.631
794.683
805.352
800.827
797.596
787.035
302.25
141.585
57.7704
51.3308
4.34793
4.07491
3.93871
3.92378
4.71778
4.5064
4.27509
4.11008
4.74654
4.51332
4.2697
4.0991
4.7931
4.56615
4.31339
4.13157
4.84471
4.62524
4.37379
4.18655
4.89063
4.67824
4.43332
4.24691
4.93673
4.7309
4.48943
4.30492
4.98175
4.78301
4.54851
4.36824
5.02753
4.83662
4.61021
4.43568
5.07415
4.89181
4.6751
4.50704
5.12107
4.94782
4.74119
4.58073
5.16759
5.00374
4.80853
4.65629
5.21435
5.06025
4.8763
4.73284
5.2611
5.11708
4.94514
4.81025
5.30702
5.1732
5.01279
4.8868
5.35095
5.22724
5.07904
4.96196
5.3931
5.27941
5.1428
5.03482
5.43322
5.32948
5.2048
5.10555
5.47089
5.37692
5.26348
5.17309
5.50564
5.42111
5.31925
5.23758
5.53824
5.46293
5.37184
5.29877
5.56895
5.50261
5.42226
5.35718
5.59745
5.53976
5.46927
5.41192
5.6231
5.57354
5.51283
5.46284
5.64603
5.60412
5.55229
5.50935
5.66618
5.63138
5.58809
5.55162
5.68334
5.65506
5.61941
5.5891
5.6974
5.67496
5.64658
5.62206
5.70891
5.69177
5.66986
5.65078
5.71849
5.70612
5.69028
5.67622
5.72671
5.71862
5.70835
5.69902
5.73156
5.72879
5.72512
5.72122
1180.95
1059.55
1028.37
1060.73
1064.63
985.863
1038.05
1089.92
1093.72
1098.12
1100.13
1103.5
1106.68
1109.22
1111.9
1112.87
1111.33
1105.76
981.233
1019.23
1003.72
947.681
802.649
768.975
853.143
973.229
994.185
1011.71
1013.5
1018.53
1031.34
1045.95
1063.69
1096.38
1116.66
1120.86
1123.69
1106.96
828.075
794.594
782.548
778.684
754.385
737.755
724.893
747.937
757.029
754.017
755.413
760.477
767.154
778.923
816.528
905.216
1016.85
1103.68
1131.71
776.995
780.191
778.85
775.721
752.523
739.974
756.411
754.391
751.395
748.903
746.857
744.875
742.664
740.009
736.708
731.453
742.519
843.076
979.307
788.4
782.222
777.456
773.584
769.516
763.93
757.779
752.923
749.333
746.594
744.292
742.115
739.824
737.09
733.881
729.958
725.398
752.756
792.808
788.611
782.356
776.772
771.527
766.259
760.682
755.185
750.451
746.624
743.62
741.137
738.924
736.817
734.694
732.059
728.085
724.302
727.972
728.866
788.845
781.713
775.156
768.791
762.588
756.668
751.238
746.464
742.471
739.334
736.856
734.729
732.843
731.495
732.191
733.345
728.791
722.335
718.715
789.234
781.072
773.387
764.484
746.609
719.626
692.413
667.869
646.438
631.794
624.202
619.375
609.383
602.774
610.315
604.434
591.847
548.986
488.455
713.947
598.019
482.354
378.492
276.759
199.706
153.135
120.519
96.6133
83.5811
77.4666
71.509
58.959
78.7574
87.4619
79.3229
60.9805
38.9656
26.6088
32.6122
10.7064
3.75914
3.72971
3.71143
3.72578
3.79231
3.96373
4.34468
5.12398
6.48016
8.39645
9.07843
4.63567
3.38423
3.35051
3.38094
3.45591
3.47255
3.94533
3.88854
3.83863
3.79179
3.75415
3.73009
3.72239
3.72322
3.8064
4.0095
3.88268
3.80644
4.12516
4.08018
3.64989
3.46055
3.46025
3.4679
3.46861
3.96993
3.90703
3.85425
3.8035
3.75925
3.72221
3.88131
4.43017
4.38621
3.78691
3.58607
4.01276
4.67721
4.70004
3.96772
3.44813
3.45311
3.46519
3.47441
3.97321
3.92645
3.87758
3.82174
3.77097
3.72685
3.88597
4.64505
4.59363
4.51553
3.55817
3.51736
3.80253
3.8236
3.46814
3.45131
3.46739
3.48393
3.49631
3.99765
3.95766
3.90903
3.85118
3.7961
3.74568
3.69589
3.74738
4.18355
4.02308
3.61493
3.50592
3.48353
3.47106
3.47285
3.48477
3.50057
3.5178
3.53002
4.04242
3.99948
3.95125
3.89244
3.83425
3.78006
3.72892
3.67816
3.62968
3.59284
3.56794
3.54823
3.52949
3.51976
3.52159
3.53169
3.54605
3.56113
3.57196
4.09863
4.05047
4.00231
3.94284
3.88244
3.82592
3.77421
3.726
3.68262
3.64692
3.62003
3.59891
3.58345
3.57526
3.5761
3.58399
3.59669
3.61051
3.62104
4.15826
4.11116
4.06151
4.00055
3.93914
3.88154
3.82937
3.78249
3.74104
3.70617
3.67874
3.65754
3.64301
3.63559
3.63537
3.64182
3.6532
3.66626
3.67657
4.22387
4.17726
4.12719
4.06593
4.00412
3.94604
3.89341
3.84683
3.80626
3.77208
3.74465
3.72354
3.70905
3.70143
3.70054
3.70593
3.71607
3.72832
3.73817
4.29508
4.24849
4.19866
4.13772
4.07602
4.01795
3.96547
3.91897
3.87866
3.84486
3.81756
3.79652
3.78182
3.77369
3.77198
3.77606
3.78491
3.79624
3.80556
4.37058
4.32434
4.27496
4.21467
4.15352
4.09584
4.04375
3.99766
3.9577
3.92398
3.89653
3.87528
3.86026
3.85148
3.84873
3.85154
3.859
3.86918
3.87772
4.44966
4.40377
4.35498
4.29563
4.23535
4.17837
4.12683
4.0812
4.04152
4.00786
3.98025
3.95868
3.94317
3.93363
3.92985
3.93132
3.93741
3.94633
3.95382
4.53096
4.48579
4.4377
4.3795
4.32035
4.2643
4.21347
4.16834
4.12895
4.09535
4.06757
4.04564
4.02955
4.0192
4.01433
4.01457
4.01923
4.02671
4.03317
4.61398
4.56943
4.52214
4.46525
4.40743
4.35251
4.30253
4.25799
4.21894
4.18542
4.15748
4.13516
4.11845
4.10725
4.10134
4.10027
4.10355
4.10965
4.11499
4.6974
4.65376
4.60737
4.55195
4.49563
4.44201
4.39302
4.34917
4.31051
4.27712
4.24904
4.22633
4.209
4.19695
4.18996
4.18771
4.18961
4.19432
4.19868
4.78061
4.73784
4.69253
4.63876
4.5841
4.53194
4.48409
4.44103
4.40286
4.36964
4.34147
4.31839
4.30045
4.28756
4.27957
4.27609
4.27671
4.28017
4.28365
4.86231
4.82088
4.77686
4.72493
4.67213
4.62159
4.57502
4.53288
4.49528
4.46232
4.4341
4.4107
4.39218
4.37849
4.36949
4.36493
4.36433
4.36664
4.36934
4.94225
4.90222
4.85973
4.80984
4.75908
4.71035
4.66521
4.62411
4.58721
4.5546
4.5264
4.50274
4.48369
4.46925
4.45933
4.45368
4.45199
4.45328
4.45536
5.01959
4.98134
4.94061
4.89299
4.84446
4.7977
4.75415
4.71425
4.67816
4.64601
4.61795
4.5941
4.57458
4.55945
4.54865
4.54206
4.53935
4.53973
4.54127
5.09425
5.05785
5.01911
4.97396
4.92785
4.88323
4.84144
4.8029
4.76777
4.73621
4.70838
4.68444
4.66455
4.6488
4.63722
4.6297
4.6261
4.62571
4.62678
5.16562
5.13148
5.09492
5.05241
5.00888
4.96658
4.92672
4.88969
4.85569
4.82486
4.7974
4.7735
4.75334
4.73707
4.72476
4.71646
4.71204
4.71091
4.7116
5.2339
5.20197
5.16773
5.128
5.08721
5.04739
5.00963
4.97431
4.9416
4.91169
4.88476
4.86103
4.84072
4.82403
4.81112
4.80206
4.79692
4.79519
4.7955
5.29864
5.26905
5.23722
5.2004
5.1625
5.12532
5.08984
5.05641
5.0252
4.99639
4.97017
4.94678
4.92647
4.9095
4.89607
4.8864
4.88057
4.87825
4.87824
5.35975
5.33238
5.30306
5.26926
5.23437
5.19999
5.16699
5.13565
5.10615
5.07865
5.05335
5.03049
5.01037
4.99326
4.97948
4.96924
4.9628
4.9599
4.95968
5.41658
5.39162
5.3649
5.3342
5.30246
5.27105
5.2407
5.21167
5.18411
5.15815
5.134
5.11191
5.09216
5.0751
5.06108
5.05048
5.0435
5.04012
5.03966
5.46904
5.44644
5.4224
5.39491
5.36644
5.33815
5.31065
5.28415
5.25876
5.23461
5.21186
5.19077
5.17162
5.15481
5.14076
5.12987
5.12254
5.11878
5.11813
5.51669
5.49661
5.47533
5.45114
5.42607
5.40106
5.3766
5.35285
5.32989
5.3078
5.28674
5.26691
5.24862
5.23226
5.21833
5.2074
5.19984
5.19579
5.19501
5.5596
5.54205
5.52364
5.50284
5.48128
5.45969
5.43846
5.41768
5.3974
5.37767
5.35859
5.34033
5.32316
5.30749
5.29388
5.28296
5.27534
5.27109
5.27033
5.59769
5.58288
5.56745
5.55013
5.53219
5.51418
5.49635
5.47878
5.46145
5.44438
5.42762
5.41128
5.39556
5.38083
5.36767
5.3569
5.34919
5.3446
5.34415
5.63154
5.61952
5.60718
5.59346
5.57926
5.56497
5.55074
5.5366
5.52252
5.50845
5.49441
5.4804
5.46655
5.45312
5.44065
5.42997
5.42208
5.41712
5.4163
5.66168
5.65264
5.64355
5.63356
5.62326
5.61287
5.60246
5.59201
5.58149
5.57081
5.55994
5.54882
5.53744
5.52588
5.51447
5.50399
5.49546
5.48888
5.48706
5.68884
5.68266
5.67698
5.67084
5.66452
5.65811
5.65164
5.64509
5.63838
5.63145
5.62423
5.61662
5.6085
5.59977
5.59042
5.5807
5.57093
5.56014
5.55675
5.71601
5.71319
5.71109
5.70895
5.70677
5.70455
5.70229
5.69998
5.69758
5.69507
5.69239
5.68949
5.68629
5.68265
5.6784
5.67338
5.66711
5.65281
5.65363
)
;

boundaryField
{
    leftWall
    {
        type            fixedFluxPressure;
        gradient        uniform 0;
        value           nonuniform List<scalar> 
50
(
6984.77
6987.37
6996.13
7012.13
7035.05
7064.36
7102.61
6585.78
2070.23
1178.31
1186.72
1192.68
1063.31
686.116
453.441
10.4986
6.99369
6.9535
6.91703
6.88306
6.85184
6.82086
6.78878
6.75528
6.72015
6.68325
6.64486
6.6053
6.5649
6.52395
6.4827
6.44136
6.40011
6.35902
6.31819
6.2776
6.23723
6.19707
6.15711
6.1174
6.078
6.03903
6.00068
5.96318
5.92683
5.8919
5.8588
5.82794
5.80438
5.77153
)
;
    }
    rightWall
    {
        type            fixedFluxPressure;
        gradient        uniform 0;
        value           nonuniform List<scalar> 
50
(
3453.36
3471.47
3500.55
3051.75
2998.06
1787.94
1590.07
1087.32
981.233
1106.96
1131.71
979.307
792.808
728.866
718.715
488.455
26.6088
3.47255
3.46861
3.47441
3.49631
3.53002
3.57196
3.62104
3.67657
3.73817
3.80556
3.87772
3.95382
4.03317
4.11499
4.19868
4.28365
4.36934
4.45536
4.54127
4.62678
4.7116
4.7955
4.87824
4.95968
5.03966
5.11813
5.19501
5.27033
5.34415
5.4163
5.48706
5.55675
5.65363
)
;
    }
    lowerWall
    {
        type            fixedFluxPressure;
        gradient        uniform 0;
        value           nonuniform List<scalar> 
62
(
6984.77
6959.59
6906.32
6822.1
6712.77
6583.78
6439.94
6292.26
6144.46
6001.33
5866.85
5744.51
5634.74
5538.7
5456.31
5387.16
5330.79
5286.46
5253.1
5229.39
5212.63
5202.78
5198.26
5198.26
5198.7
5198.38
5196.04
5181.38
3216.05
1155.39
1155.18
1308.05
1481.14
1450.64
1424.33
2553.4
2306.28
1718.4
1789.49
1741.41
1498.96
1193.3
1141.17
2553.4
2537.57
2514.85
2502.76
2505.59
2526.78
2538.3
2483.97
2517.99
2584.32
2649.11
2695.86
2728.46
2798.76
2944.24
3104.04
3241.3
3363.7
3453.36
)
;
    }
    atmosphere
    {
        type            prghTotalPressure;
        rho             rho;
        psi             none;
        gamma           1;
        p0              uniform 0;
        value           nonuniform List<scalar> 
46
(
5.72855
5.72895
5.72904
5.72904
5.72904
5.72904
5.72904
5.72904
5.72904
5.72904
5.72904
5.72904
5.72904
5.72904
5.72904
5.72904
5.72904
5.72904
5.72904
5.72904
5.72904
5.72904
5.72904
5.72904
5.72904
5.72904
5.72904
5.72904
5.72904
5.72903
5.72902
5.729
5.72898
5.72896
5.72894
5.72893
5.72891
5.7289
5.7289
5.7289
5.72891
5.72892
5.72892
5.72889
5.72862
5.72688
)
;
        rho             rho;
    }
    defaultFaces
    {
        type            empty;
    }
}


// ************************************************************************* //
