/*--------------------------------*- C++ -*----------------------------------*\
  =========                 |
  \\      /  F ield         | OpenFOAM: The Open Source CFD Toolbox
   \\    /   O peration     | Website:  https://openfoam.org
    \\  /    A nd           | Version:  13
     \\/     M anipulation  |
\*---------------------------------------------------------------------------*/
FoamFile
{
    format      ascii;
    class       surfaceScalarField;
    location    "2.1";
    object      phi;
}
// * * * * * * * * * * * * * * * * * * * * * * * * * * * * * * * * * * * * * //

dimensions      [0 3 -1 0 0 0 0];

internalField   nonuniform List<scalar> 
4432
(
1.8063e-06
-1.80629e-06
2.01226e-06
-2.05958e-07
1.75039e-06
2.61868e-07
1.40536e-06
3.45033e-07
1.03915e-06
3.66209e-07
6.72296e-07
3.66854e-07
3.30567e-07
3.41731e-07
2.30789e-08
3.0749e-07
-2.26217e-07
2.49297e-07
-4.20521e-07
1.94305e-07
-5.49092e-07
1.28571e-07
-6.01979e-07
5.28877e-08
-5.88595e-07
-1.33844e-08
-5.19241e-07
-6.9354e-08
-4.17182e-07
-1.0206e-07
-3.08022e-07
-1.0916e-07
-2.01738e-07
-1.06284e-07
-8.92054e-08
-1.12532e-07
6.04713e-08
-1.49676e-07
2.833e-07
-2.22829e-07
5.92308e-07
-3.09008e-07
7.68479e-07
-1.7617e-07
7.68479e-07
1.10934e-06
-2.91562e-06
1.54085e-06
-6.37469e-07
1.69231e-06
1.10417e-07
1.67805e-06
3.59286e-07
1.55687e-06
4.87402e-07
1.34956e-06
5.74164e-07
1.06564e-06
6.25651e-07
7.62414e-07
6.10725e-07
4.79916e-07
5.31799e-07
2.28605e-07
4.45619e-07
2.51186e-08
3.3206e-07
-1.15245e-07
1.93253e-07
-1.87064e-07
5.84358e-08
-2.03622e-07
-5.27944e-08
-1.88215e-07
-1.17465e-07
-1.64619e-07
-1.32754e-07
-1.46316e-07
-1.24584e-07
-1.35311e-07
-1.23534e-07
-1.20776e-07
-1.64209e-07
-7.31916e-08
-2.70411e-07
3.8185e-08
-4.20383e-07
1.74552e-07
-3.12536e-07
9.43035e-07
7.8027e-07
-3.69589e-06
1.39118e-06
-1.24837e-06
1.80395e-06
-3.02362e-07
2.00075e-06
1.62491e-07
2.01414e-06
4.74013e-07
1.87002e-06
7.18279e-07
1.59863e-06
8.97042e-07
1.27402e-06
9.35336e-07
9.46295e-07
8.59528e-07
6.41686e-07
7.50228e-07
3.81241e-07
5.92505e-07
1.8387e-07
3.90623e-07
5.47387e-08
1.87567e-07
-1.69433e-08
1.88876e-08
-5.31841e-08
-8.12239e-08
-7.61503e-08
-1.09787e-07
-1.01653e-07
-9.90814e-08
-1.3935e-07
-8.58363e-08
-1.90493e-07
-1.13065e-07
-2.41588e-07
-2.19316e-07
-2.65083e-07
-3.96887e-07
-1.93458e-07
-3.8416e-07
7.49577e-07
6.79871e-07
-4.37574e-06
1.44794e-06
-2.01643e-06
2.02707e-06
-8.81485e-07
2.35227e-06
-1.62714e-07
2.43688e-06
3.89413e-07
2.31508e-06
8.40071e-07
2.03357e-06
1.17855e-06
1.67215e-06
1.29676e-06
1.30073e-06
1.23094e-06
9.48137e-07
1.10282e-06
6.39948e-07
9.00693e-07
3.98053e-07
6.32517e-07
2.26835e-07
3.58786e-07
1.16328e-07
1.29395e-07
4.69599e-08
-1.18538e-08
-1.90985e-09
-6.0915e-08
-4.76332e-08
-5.33559e-08
-1.06035e-07
-2.74329e-08
-1.88335e-07
-3.07625e-08
-2.94616e-07
-1.13033e-07
-4.03178e-07
-2.88324e-07
-4.12168e-07
-3.75169e-07
3.37411e-07
7.41908e-07
-5.11765e-06
1.62286e-06
-2.89739e-06
2.29877e-06
-1.55739e-06
2.68547e-06
-5.49413e-07
2.7981e-06
2.76778e-07
2.67685e-06
9.61313e-07
2.37059e-06
1.48482e-06
1.97107e-06
1.69628e-06
1.5586e-06
1.64341e-06
1.16787e-06
1.49355e-06
8.25959e-07
1.2426e-06
5.54759e-07
9.03715e-07
3.5622e-07
5.57325e-07
2.20518e-07
2.65096e-07
1.31309e-07
7.73555e-08
7.12289e-08
-8.3446e-10
2.46921e-08
-6.81857e-09
-3.003e-08
2.72895e-08
-1.1161e-07
5.08176e-08
-2.32758e-07
8.11593e-09
-3.87663e-07
-1.33418e-07
-4.75872e-07
-2.86959e-07
-1.38461e-07
8.76794e-07
-5.99443e-06
1.83548e-06
-3.85607e-06
2.54448e-06
-2.26638e-06
2.93836e-06
-9.43293e-07
3.03816e-06
1.76973e-07
2.89968e-06
1.09979e-06
2.57168e-06
1.81281e-06
2.15449e-06
2.11347e-06
1.72197e-06
2.07591e-06
1.30321e-06
1.9123e-06
9.48503e-07
1.59731e-06
6.70589e-07
1.18163e-06
4.64812e-07
7.631e-07
3.15395e-07
4.14515e-07
2.22109e-07
1.70644e-07
1.82997e-07
3.82795e-08
1.67614e-07
8.56822e-09
1.49837e-07
4.50694e-08
1.0691e-07
9.3747e-08
1.81193e-08
9.6909e-08
-1.25986e-07
1.06892e-08
-2.79796e-07
-1.33147e-07
-4.18256e-07
9.56327e-07
-6.95075e-06
1.96966e-06
-4.86939e-06
2.65628e-06
-2.953e-06
3.01462e-06
-1.30164e-06
3.09266e-06
9.89352e-08
2.90849e-06
1.28395e-06
2.59195e-06
2.12934e-06
2.18832e-06
2.51709e-06
1.77285e-06
2.49137e-06
1.3887e-06
2.29644e-06
1.07853e-06
1.90747e-06
8.32437e-07
1.42771e-06
6.48908e-07
9.46628e-07
5.03767e-07
5.59659e-07
4.23807e-07
2.5061e-07
4.42921e-07
1.91733e-08
5.09094e-07
-5.75977e-08
5.87545e-07
-3.33741e-08
6.49875e-07
3.14234e-08
6.70934e-07
7.58551e-08
6.27351e-07
5.42763e-08
4.84848e-07
9.35866e-09
6.65916e-08
1.04777e-06
-7.9985e-06
1.95134e-06
-5.77296e-06
2.50961e-06
-3.51126e-06
2.77483e-06
-1.56686e-06
2.81697e-06
5.67954e-08
2.6279e-06
1.47301e-06
2.35076e-06
2.40647e-06
1.91232e-06
2.95552e-06
1.40977e-06
2.99391e-06
1.04453e-06
2.66167e-06
8.1283e-07
2.13917e-06
7.00225e-07
1.54031e-06
6.83728e-07
9.63125e-07
7.45247e-07
4.98144e-07
8.59904e-07
1.35957e-07
1.01363e-06
-1.34551e-07
1.20865e-06
-2.5261e-07
1.41011e-06
-2.34827e-07
1.58382e-06
-1.42273e-07
1.68763e-06
-2.79524e-08
1.64649e-06
9.54144e-08
1.29166e-06
3.64195e-07
1.35825e-06
-3.77151e-07
3.77153e-07
-1.1282e-06
7.51051e-07
-1.5226e-06
3.94402e-07
-7.14386e-07
-8.08216e-07
5.28105e-07
-1.24249e-06
2.00157e-06
-1.47347e-06
3.32631e-06
-1.32474e-06
3.59023e-06
-2.63913e-07
3.76718e-06
-1.76945e-07
4.45813e-06
-6.90949e-07
5.21744e-06
-7.59313e-07
5.71443e-06
-4.9699e-07
4.69944e-06
1.01499e-06
3.15217e-06
1.54727e-06
2.41216e-06
7.40001e-07
1.86693e-06
5.4523e-07
1.41755e-06
4.49383e-07
9.04533e-07
5.13012e-07
9.04534e-07
-2.87137e-07
6.64299e-07
-2.83402e-07
7.47323e-07
-2.10906e-07
3.21911e-07
4.7034e-07
-1.48946e-06
1.58515e-06
-2.3573e-06
2.3364e-06
-2.22471e-06
3.00703e-06
-1.99536e-06
4.09782e-06
-1.3547e-06
4.56827e-06
-6.474e-07
4.88041e-06
-1.00308e-06
4.88883e-06
-7.6773e-07
4.69637e-06
-3.04533e-07
4.32878e-06
1.38257e-06
3.70534e-06
2.1707e-06
2.58839e-06
1.85694e-06
1.46973e-06
1.66387e-06
9.20924e-07
9.98177e-07
7.91157e-07
6.42769e-07
1.69568e-06
-4.19976e-07
1.08428e-06
3.22694e-07
4.65554e-09
5.77868e-07
6.67367e-08
1.41791e-06
-2.3295e-06
2.21373e-06
-3.15312e-06
2.62783e-06
-2.6388e-06
3.60181e-06
-2.96934e-06
4.75133e-06
-2.50421e-06
5.24502e-06
-1.14109e-06
5.15497e-06
-9.13018e-07
4.55234e-06
-1.65108e-07
3.89358e-06
3.54235e-07
3.69877e-06
1.57737e-06
3.16178e-06
2.70769e-06
2.13888e-06
2.87984e-06
1.10732e-06
2.69543e-06
3.48891e-07
1.7566e-06
3.44284e-07
6.47375e-07
2.03997e-06
-9.79701e-07
2.06399e-06
-3.74875e-07
-6.00163e-07
1.58321e-07
-4.66454e-07
9.28359e-07
-3.09954e-06
1.41884e-06
-3.6436e-06
2.31217e-06
-3.53214e-06
3.80111e-06
-4.45828e-06
5.52456e-06
-4.22766e-06
6.16213e-06
-1.77867e-06
5.40505e-06
-1.55945e-07
4.39227e-06
8.47662e-07
3.07772e-06
1.66877e-06
2.66715e-06
1.98793e-06
2.32842e-06
3.0464e-06
1.37755e-06
3.8307e-06
5.72266e-07
3.5007e-06
4.25292e-08
2.28632e-06
-6.84154e-07
1.37405e-06
1.35579e-06
-5.71619e-07
2.63561e-06
-8.43485e-07
-3.28296e-07
-4.71082e-07
-8.38857e-07
-6.81597e-07
-2.88902e-06
-4.20102e-07
-3.90509e-06
7.89011e-07
-4.74126e-06
2.65352e-06
-6.3228e-06
4.58053e-06
-6.15468e-06
5.6372e-06
-2.83535e-06
5.19574e-06
2.85505e-07
4.90832e-06
1.13508e-06
3.23825e-06
3.33884e-06
2.1328e-06
3.09338e-06
1.8031e-06
3.3761e-06
1.21908e-06
4.41472e-06
7.1411e-07
4.00567e-06
1.95459e-07
2.80497e-06
-5.5282e-07
2.12233e-06
8.02988e-07
3.94019e-07
2.2416e-06
-6.78566e-07
7.44293e-07
-9.69627e-07
-5.47792e-07
-1.71723e-06
-2.14142e-06
-1.80671e-06
-3.81562e-06
-6.09134e-07
-5.93884e-06
1.3311e-06
-8.26304e-06
2.70213e-06
-7.52572e-06
3.55585e-06
-3.68908e-06
3.7953e-06
4.60448e-08
3.66678e-06
1.26358e-06
3.66505e-06
3.34056e-06
2.45644e-06
4.30198e-06
1.59624e-06
4.23629e-06
1.36695e-06
4.64399e-06
1.25786e-06
4.11475e-06
6.74975e-07
3.38785e-06
7.5121e-07
2.04608e-06
1.55416e-06
1.61524e-06
6.26369e-07
-3.52039e-07
2.71157e-06
-1.30989e-06
4.10065e-07
-2.14721e-06
-1.30409e-06
-2.54084e-06
-3.42198e-06
-1.73012e-06
-6.74956e-06
-2.65243e-07
-9.72791e-06
6.18378e-07
-8.40934e-06
1.33775e-06
-4.40846e-06
1.99738e-06
-6.13604e-07
2.16938e-06
1.09157e-06
2.29231e-06
3.21762e-06
2.28425e-06
4.31003e-06
1.82933e-06
4.69119e-06
1.71191e-06
4.76141e-06
2.06658e-06
3.76006e-06
2.17072e-06
3.28371e-06
1.42426e-06
2.79251e-06
2.97843e-06
7.10816e-07
-8.44456e-08
-5.88806e-07
4.01119e-06
-1.66315e-06
1.48441e-06
-2.47133e-06
-4.9591e-07
-2.9677e-06
-2.92561e-06
-2.75387e-06
-6.96339e-06
-2.0767e-06
-1.04051e-05
-1.4754e-06
-9.01064e-06
-6.66095e-07
-5.21777e-06
2.07932e-07
-1.48764e-06
6.83711e-07
6.15783e-07
1.07686e-06
2.82446e-06
1.30457e-06
4.08231e-06
1.43264e-06
4.56312e-06
1.80841e-06
4.38564e-06
2.3586e-06
3.20986e-06
3.14233e-06
2.49998e-06
4.28918e-06
1.64567e-06
7.26756e-06
2.51346e-06
-1.05119e-05
3.75239e-06
-7.01189e-06
4.31756e-06
-4.07642e-06
4.00954e-06
-1.25884e-06
2.82333e-06
1.24301e-06
1.65949e-06
2.63684e-06
8.24662e-07
3.24129e-06
3.66335e-07
3.41385e-06
2.57607e-07
3.10265e-06
4.36668e-07
2.48262e-06
7.76754e-07
1.79909e-06
1.17334e-06
1.14374e-06
1.57144e-06
5.65031e-07
1.96321e-06
1.06375e-07
2.35506e-06
-2.55891e-07
2.78174e-06
-5.6122e-07
3.24639e-06
-7.17253e-07
3.67558e-06
-6.64013e-07
3.9774e-06
-4.44086e-07
3.98256e-06
-3.31021e-08
3.30801e-06
7.69968e-07
1.48368e-06
2.18852e-06
5.50135e-06
-2.65944e-06
-3.1402e-06
-7.37171e-06
-3.90716e-06
-6.24491e-06
-3.91294e-06
-4.07063e-06
-3.59238e-06
-1.57939e-06
-2.9256e-06
5.76244e-07
-2.16256e-06
1.87382e-06
-1.34717e-06
2.42591e-06
-5.36225e-07
2.60293e-06
1.05611e-07
2.46083e-06
5.52161e-07
2.03609e-06
8.18891e-07
1.53237e-06
9.41354e-07
1.02128e-06
9.56608e-07
5.49783e-07
8.87535e-07
1.75454e-07
7.72244e-07
-1.40591e-07
6.80486e-07
-4.69448e-07
5.92177e-07
-6.2893e-07
3.85934e-07
-4.57757e-07
-5.78683e-08
-2.70974e-10
-7.00898e-07
6.09934e-07
-1.99279e-06
2.06187e-06
-3.85241e-06
4.04813e-06
6.67701e-06
-5.02808e-06
-2.53252e-06
-4.83917e-06
-3.41869e-06
-5.35873e-06
-3.31524e-06
-4.17407e-06
-2.65449e-06
-2.24012e-06
-1.7876e-06
-2.90634e-07
-9.0157e-07
9.87805e-07
-1.03774e-07
1.62813e-06
4.59506e-07
2.03966e-06
6.48736e-07
2.27161e-06
5.11874e-07
2.17296e-06
7.15413e-08
1.97271e-06
-5.87715e-07
1.68055e-06
-1.36406e-06
1.32614e-06
-2.25426e-06
1.06567e-06
-3.20671e-06
8.11881e-07
-4.07498e-06
3.98853e-07
-5.01367e-06
3.09789e-07
-6.18862e-06
7.17215e-07
-7.66989e-06
1.48102e-06
-9.36651e-06
2.30657e-06
-1.11754e-05
3.87081e-06
-1.32681e-05
6.14081e-06
8.83104e-06
-1.54221e-05
5.83309e-08
-4.89749e-06
-2.20882e-07
-5.07951e-06
-2.93684e-08
-4.36558e-06
4.38594e-07
-2.70808e-06
8.34314e-07
-6.8635e-07
9.83455e-07
8.38666e-07
1.07546e-06
1.53612e-06
8.04103e-07
2.31102e-06
-3.78346e-08
3.11355e-06
-1.13781e-06
3.27294e-06
-2.59665e-06
3.43155e-06
-4.34702e-06
3.43093e-06
-6.19155e-06
3.17069e-06
-8.1122e-06
2.98634e-06
-1.01027e-05
2.80237e-06
-1.19634e-05
2.25961e-06
-1.38336e-05
2.18005e-06
-1.6059e-05
2.9426e-06
-1.83731e-05
3.79523e-06
-2.06384e-05
4.57185e-06
-2.2454e-05
5.68639e-06
-2.35923e-05
7.27911e-06
9.06851e-06
-2.38298e-05
1.6953e-06
-6.59279e-06
1.66712e-06
-5.05133e-06
1.64566e-06
-4.34412e-06
1.54646e-06
-2.60888e-06
1.30765e-06
-4.47553e-07
8.02862e-07
1.34344e-06
2.12512e-08
2.31771e-06
-1.3786e-06
3.71085e-06
-3.52366e-06
5.25859e-06
-5.83717e-06
5.58644e-06
-8.53785e-06
6.13224e-06
-1.15729e-05
6.466e-06
-1.47349e-05
6.33268e-06
-1.78531e-05
6.10457e-06
-2.0759e-05
5.70831e-06
-2.33551e-05
4.85577e-06
-2.56501e-05
4.47504e-06
-2.76805e-05
4.97303e-06
-2.91673e-05
5.28202e-06
-3.01101e-05
5.51466e-06
-3.07674e-05
6.34364e-06
-3.08411e-05
7.35285e-06
8.08818e-06
-2.98608e-05
6.04946e-08
-6.65327e-06
2.1024e-07
-5.20107e-06
8.87014e-09
-4.14274e-06
-4.19551e-07
-2.18046e-06
-1.02852e-06
1.61395e-07
-2.02699e-06
2.34187e-06
-3.90644e-06
4.19712e-06
-6.62031e-06
6.42468e-06
-9.78911e-06
8.42736e-06
-1.34516e-05
9.24892e-06
-1.73874e-05
1.0068e-05
-2.1447e-05
1.05256e-05
-2.5422e-05
1.03077e-05
-2.89574e-05
9.63995e-06
-3.16972e-05
8.44813e-06
-3.37667e-05
6.92521e-06
-3.52887e-05
5.99709e-06
-3.60253e-05
5.70961e-06
-3.62833e-05
5.54e-06
-3.63785e-05
5.60983e-06
-3.61169e-05
6.08208e-06
-3.53503e-05
6.58622e-06
6.65535e-06
-3.39175e-05
-1.79777e-06
-4.85545e-06
-1.35312e-06
-5.64564e-06
-8.78609e-07
-4.6172e-06
-1.16916e-06
-1.8899e-06
-2.24814e-06
1.24035e-06
-4.26541e-06
4.3591e-06
-7.25366e-06
7.18531e-06
-1.08691e-05
1.004e-05
-1.49892e-05
1.25475e-05
-1.96265e-05
1.38861e-05
-2.43753e-05
1.48168e-05
-2.89444e-05
1.50947e-05
-3.31e-05
1.44633e-05
-3.65441e-05
1.30841e-05
-3.9038e-05
1.09419e-05
-4.07146e-05
8.60184e-06
-4.15352e-05
6.81762e-06
-4.15333e-05
5.70772e-06
-4.10687e-05
5.07535e-06
-4.03742e-05
4.91527e-06
-3.94444e-05
5.15228e-06
-3.81736e-05
5.31544e-06
5.01877e-06
-3.6537e-05
-1.12856e-05
6.43072e-06
-7.2279e-06
-9.70297e-06
-5.4874e-06
-6.35749e-06
-4.86183e-06
-2.5154e-06
-5.42439e-06
1.80291e-06
-7.50473e-06
6.43941e-06
-1.0838e-05
1.05185e-05
-1.46996e-05
1.39015e-05
-1.91441e-05
1.69918e-05
-2.41638e-05
1.89057e-05
-2.92164e-05
1.98693e-05
-3.40007e-05
1.98789e-05
-3.83265e-05
1.8789e-05
-4.1945e-05
1.67025e-05
-4.44401e-05
1.34369e-05
-4.56604e-05
9.82205e-06
-4.59163e-05
7.07351e-06
-4.5334e-05
5.12532e-06
-4.42166e-05
3.95796e-06
-4.28995e-05
3.59813e-06
-4.14906e-05
3.74341e-06
-3.99069e-05
3.73167e-06
3.13434e-06
-3.80224e-05
7.96921e-06
-1.53802e-06
-3.05938e-07
-1.42746e-06
-4.82763e-06
-1.83557e-06
-6.57595e-06
-7.66981e-07
-7.89865e-06
3.12561e-06
-1.0273e-05
8.81368e-06
-1.48342e-05
1.50793e-05
-1.97707e-05
1.88376e-05
-2.39258e-05
2.11464e-05
-2.83108e-05
2.32902e-05
-3.2661e-05
2.4219e-05
-3.72046e-05
2.44222e-05
-4.15956e-05
2.31798e-05
-4.53261e-05
2.04329e-05
-4.78352e-05
1.59457e-05
-4.8881e-05
1.08677e-05
-4.88962e-05
7.08849e-06
-4.79594e-05
4.18846e-06
-4.64451e-05
2.44365e-06
-4.46368e-05
1.78975e-06
-4.27841e-05
1.89073e-06
-4.11272e-05
2.07487e-06
8.68242e-07
-3.88612e-05
3.75727e-06
-5.29531e-06
2.71283e-06
-3.83189e-07
-2.33968e-07
1.11113e-06
-4.18706e-06
3.18607e-06
-9.19317e-06
8.13162e-06
-1.48787e-05
1.4499e-05
-2.00306e-05
2.02307e-05
-2.28203e-05
2.16266e-05
-2.39937e-05
2.23189e-05
-2.58334e-05
2.5129e-05
-2.94474e-05
2.7832e-05
-3.41488e-05
2.91227e-05
-3.93371e-05
2.83671e-05
-4.51618e-05
2.62563e-05
-4.85215e-05
1.93046e-05
-4.97627e-05
1.21086e-05
-4.99206e-05
7.24628e-06
-4.9322e-05
3.58984e-06
-4.80398e-05
1.16144e-06
-4.6213e-05
-3.70944e-08
-4.39924e-05
-3.2981e-07
-4.21883e-05
2.70757e-07
-1.12904e-06
-4.01911e-05
5.79621e-08
-5.35345e-06
-1.65827e-07
-1.59648e-07
-2.27507e-06
3.2202e-06
-5.78369e-06
6.6946e-06
-9.96011e-06
1.2308e-05
-1.41498e-05
1.86887e-05
-1.67357e-05
2.28169e-05
-1.82831e-05
2.31741e-05
-1.89969e-05
2.30327e-05
-1.97973e-05
2.5929e-05
-2.24938e-05
3.05277e-05
-2.75372e-05
3.4165e-05
-3.33735e-05
3.4202e-05
-3.70317e-05
2.99134e-05
-3.92271e-05
2.14992e-05
-4.22538e-05
1.51346e-05
-4.59896e-05
1.09816e-05
-4.81726e-05
5.77242e-06
-4.8241e-05
1.22971e-06
-4.67275e-05
-1.55071e-06
-4.4418e-05
-2.63916e-06
-4.18164e-05
-2.33087e-06
-3.99471e-06
-3.89509e-05
-1.25309e-06
-4.10064e-06
-2.39009e-06
9.77184e-07
-4.01349e-06
4.84351e-06
-6.2365e-06
8.91761e-06
-8.02665e-06
1.40983e-05
-9.04627e-06
1.97086e-05
-1.00843e-05
2.38552e-05
-1.17128e-05
2.48032e-05
-1.38276e-05
2.5148e-05
-1.56917e-05
2.77936e-05
-1.72859e-05
3.21223e-05
-1.92691e-05
3.61485e-05
-2.10229e-05
3.59562e-05
-2.03018e-05
2.91926e-05
-1.98634e-05
2.10609e-05
-2.16291e-05
1.69001e-05
-2.54855e-05
1.48376e-05
-2.98218e-05
1.01083e-05
-3.28325e-05
4.24011e-06
-3.40972e-05
-2.85891e-07
-3.39184e-05
-2.81778e-06
-3.30616e-05
-3.18787e-06
-3.79637e-06
-3.32613e-05
-2.52378e-06
-1.57708e-06
-4.37269e-06
2.82593e-06
-5.911e-06
6.38174e-06
-7.1606e-06
1.01672e-05
-7.7131e-06
1.46509e-05
-7.39478e-06
1.93905e-05
-6.77405e-06
2.32348e-05
-7.17912e-06
2.52086e-05
-8.26423e-06
2.62335e-05
-9.10212e-06
2.8632e-05
-9.01403e-06
3.20348e-05
-8.02482e-06
3.51599e-05
-7.39707e-06
3.5329e-05
-8.45418e-06
3.02503e-05
-1.03085e-05
2.29159e-05
-1.2568e-05
1.916e-05
-1.44244e-05
1.66941e-05
-1.66812e-05
1.23651e-05
-1.96189e-05
7.17791e-06
-2.26619e-05
2.75741e-06
-2.55322e-05
5.25022e-08
-2.75617e-05
-1.1585e-06
-1.53232e-06
-2.98272e-05
-3.46542e-06
1.88802e-06
-5.64827e-06
5.00861e-06
-7.06886e-06
7.80223e-06
-7.85742e-06
1.09557e-05
-7.85701e-06
1.46505e-05
-7.04167e-06
1.85752e-05
-5.85785e-06
2.20511e-05
-5.13718e-06
2.44881e-05
-5.03159e-06
2.61282e-05
-4.67212e-06
2.82729e-05
-3.62668e-06
3.09898e-05
-1.83072e-06
3.33645e-05
2.08155e-09
3.34969e-05
8.21175e-08
3.01709e-05
-2.09516e-06
2.50937e-05
-4.17895e-06
2.12442e-05
-5.67723e-06
1.81926e-05
-7.66203e-06
1.435e-05
-1.02971e-05
9.81309e-06
-1.35257e-05
5.98629e-06
-1.67539e-05
3.28081e-06
-1.94522e-05
1.53948e-06
6.12334e-07
-2.15985e-05
-3.86236e-06
5.75018e-06
-6.19983e-06
7.34589e-06
-7.58151e-06
9.18379e-06
-8.18961e-06
1.15637e-05
-7.9964e-06
1.44572e-05
-7.04094e-06
1.76197e-05
-5.61694e-06
2.06271e-05
-4.23214e-06
2.31034e-05
-3.2296e-06
2.51258e-05
-2.136e-06
2.71795e-05
-5.76976e-07
2.9431e-05
1.55881e-06
3.12291e-05
3.63078e-06
3.14254e-05
4.44562e-06
2.93565e-05
3.71554e-06
2.58242e-05
2.51738e-06
2.24427e-05
1.38348e-06
1.93267e-05
-1.21892e-07
1.58555e-05
-2.38007e-06
1.20714e-05
-5.05249e-06
8.65903e-06
-7.79395e-06
6.0223e-06
-1.02733e-05
4.01853e-06
2.50532e-06
-1.21679e-05
-3.85593e-06
9.60565e-06
-6.21185e-06
9.70152e-06
-7.58706e-06
1.05588e-05
-8.16962e-06
1.21462e-05
-7.98908e-06
1.42766e-05
-7.09797e-06
1.67286e-05
-5.69214e-06
1.92213e-05
-4.09931e-06
2.15106e-05
-2.54034e-06
2.35669e-05
-9.11207e-07
2.55504e-05
1.04915e-06
2.74708e-05
3.36239e-06
2.89161e-05
5.60011e-06
2.91879e-05
7.03007e-06
2.79268e-05
7.34089e-06
2.55136e-05
7.02543e-06
2.27583e-05
6.42927e-06
1.9923e-05
5.42628e-06
1.68585e-05
3.86615e-06
1.36316e-05
1.91053e-06
1.0615e-05
-1.24416e-07
8.05731e-06
-2.03162e-06
5.92537e-06
4.11266e-06
-3.64055e-06
-3.60352e-06
1.32089e-05
-5.87579e-06
1.19735e-05
-7.23801e-06
1.19208e-05
-7.85408e-06
1.27621e-05
-7.77051e-06
1.41929e-05
-7.03915e-06
1.59971e-05
-5.78802e-06
1.79701e-05
-4.21198e-06
1.99345e-05
-2.45966e-06
2.18145e-05
-5.35435e-07
2.36262e-05
1.65417e-06
2.52812e-05
4.09271e-06
2.64776e-05
6.45107e-06
2.68297e-05
8.27939e-06
2.60986e-05
9.33895e-06
2.44541e-05
9.79006e-06
2.23072e-05
9.81898e-06
1.98941e-05
9.42165e-06
1.72558e-05
8.56025e-06
1.4493e-05
7.34764e-06
1.18279e-05
5.97966e-06
9.42532e-06
4.62151e-06
7.28326e-06
5.32574e-06
3.40689e-06
-3.20894e-06
1.64172e-05
-5.33184e-06
1.40961e-05
-6.6586e-06
1.32474e-05
-7.31418e-06
1.34175e-05
-7.343e-06
1.42216e-05
-6.78665e-06
1.54407e-05
-5.72527e-06
1.69086e-05
-4.27752e-06
1.84866e-05
-2.54342e-06
2.00804e-05
-5.46617e-07
2.16293e-05
1.71204e-06
2.30226e-05
4.15105e-06
2.40386e-05
6.55878e-06
2.4422e-05
8.63291e-06
2.40245e-05
1.01823e-05
2.29048e-05
1.12202e-05
2.12693e-05
1.18219e-05
1.92924e-05
1.2007e-05
1.70706e-05
1.17865e-05
1.47135e-05
1.124e-05
1.23746e-05
1.0497e-05
1.01684e-05
9.68112e-06
8.09883e-06
6.11805e-06
8.88736e-06
-2.77211e-06
1.9189e-05
-4.69558e-06
1.60192e-05
-5.94867e-06
1.45002e-05
-6.61765e-06
1.40863e-05
-6.7372e-06
1.4341e-05
-6.33644e-06
1.50398e-05
-5.46318e-06
1.60352e-05
-4.18538e-06
1.72087e-05
-2.569e-06
1.84639e-05
-6.5418e-07
1.97144e-05
1.52475e-06
2.08436e-05
3.88438e-06
2.1679e-05
6.25705e-06
2.20493e-05
8.43567e-06
2.18459e-05
1.02658e-05
2.10747e-05
1.16992e-05
1.98358e-05
1.27456e-05
1.8246e-05
1.34145e-05
1.64016e-05
1.3724e-05
1.44039e-05
1.37327e-05
1.23662e-05
1.35271e-05
1.0374e-05
1.31954e-05
8.43033e-06
6.50186e-06
1.28102e-05
-2.34702e-06
2.15353e-05
-4.03701e-06
1.77088e-05
-5.17494e-06
1.56378e-05
-5.81854e-06
1.47297e-05
-5.99105e-06
1.45133e-05
-5.70989e-06
1.47585e-05
-5.00141e-06
1.53266e-05
-3.90371e-06
1.61109e-05
-2.45845e-06
1.70186e-05
-7.02981e-07
1.79589e-05
1.31759e-06
1.8823e-05
3.52207e-06
1.94744e-05
5.78325e-06
1.97881e-05
7.95037e-06
1.96787e-05
9.89735e-06
1.91277e-05
1.15545e-05
1.81786e-05
1.28966e-05
1.69038e-05
1.39175e-05
1.53806e-05
1.46284e-05
1.3693e-05
1.50657e-05
1.19291e-05
1.52869e-05
1.0153e-05
1.53539e-05
8.36304e-06
6.54495e-06
1.53094e-05
-1.94129e-06
2.34762e-05
-3.37998e-06
1.91471e-05
-4.37168e-06
1.66292e-05
-4.95378e-06
1.53115e-05
-5.14022e-06
1.46995e-05
-4.93942e-06
1.45575e-05
-4.36387e-06
1.47509e-05
-3.43339e-06
1.51804e-05
-2.17356e-06
1.57587e-05
-6.14583e-07
1.63998e-05
1.20129e-06
1.7007e-05
3.20452e-06
1.74712e-05
5.2968e-06
1.76958e-05
7.36486e-06
1.76106e-05
9.3056e-06
1.71869e-05
1.1047e-05
1.64371e-05
1.25479e-05
1.54027e-05
1.37892e-05
1.41393e-05
1.47696e-05
1.27125e-05
1.55106e-05
1.11883e-05
1.60467e-05
9.61696e-06
1.64168e-05
7.99269e-06
6.30043e-06
1.666e-05
-1.5586e-06
2.50341e-05
-2.7359e-06
2.03239e-05
-3.55862e-06
1.74516e-05
-4.04932e-06
1.5802e-05
-4.21527e-06
1.48653e-05
-4.05872e-06
1.44008e-05
-3.58337e-06
1.42754e-05
-2.79776e-06
1.43946e-05
-1.71626e-06
1.46771e-05
-3.60649e-07
1.50441e-05
1.23361e-06
1.54127e-05
3.01139e-06
1.56933e-05
4.898e-06
1.58091e-05
6.80685e-06
1.57018e-05
8.65478e-06
1.5339e-05
1.03751e-05
1.47168e-05
1.19218e-05
1.38559e-05
1.32675e-05
1.27935e-05
1.44031e-05
1.15769e-05
1.53344e-05
1.02572e-05
1.60811e-05
8.87032e-06
1.66697e-05
7.40382e-06
5.85185e-06
1.71171e-05
-1.19228e-06
2.62261e-05
-2.10611e-06
2.12374e-05
-2.74531e-06
1.80905e-05
-3.12262e-06
1.6179e-05
-3.24086e-06
1.49833e-05
-3.09826e-06
1.4258e-05
-2.69311e-06
1.38702e-05
-2.02688e-06
1.37282e-05
-1.10627e-06
1.37563e-05
5.47359e-08
1.3883e-05
1.43024e-06
1.40371e-05
2.97782e-06
1.41457e-05
4.64155e-06
1.41453e-05
6.35573e-06
1.39875e-05
8.05435e-06
1.36403e-05
9.67962e-06
1.30915e-05
1.11869e-05
1.23486e-05
1.25459e-05
1.14344e-05
1.37398e-05
1.03829e-05
1.47669e-05
9.2304e-06
1.56349e-05
8.00231e-06
1.63564e-05
6.68222e-06
5.25603e-06
1.6951e-05
-8.43683e-07
2.70691e-05
-1.49322e-06
2.18865e-05
-1.93944e-06
1.85364e-05
-2.18782e-06
1.64272e-05
-2.23802e-06
1.50333e-05
-2.08544e-06
1.41053e-05
-1.7248e-06
1.35094e-05
-1.15273e-06
1.3156e-05
-3.70202e-07
1.29737e-05
6.14149e-07
1.28986e-05
1.78364e-06
1.28675e-05
3.10867e-06
1.28206e-05
4.54769e-06
1.27063e-05
6.05157e-06
1.24836e-05
7.56911e-06
1.21227e-05
9.05245e-06
1.16081e-05
1.04614e-05
1.09396e-05
1.17658e-05
1.013e-05
1.29468e-05
9.20187e-06
1.39953e-05
8.18219e-06
1.49106e-05
7.08708e-06
1.56986e-05
5.89401e-06
4.5949e-06
1.63586e-05
-5.06437e-07
2.75752e-05
-8.96462e-07
2.22762e-05
-1.14603e-06
1.87857e-05
-1.25667e-06
1.65375e-05
-1.22563e-06
1.50021e-05
-1.04561e-06
1.39251e-05
-7.09196e-07
1.31728e-05
-2.1025e-07
1.26569e-05
4.5443e-07
1.23089e-05
1.28391e-06
1.2069e-05
2.2684e-06
1.1883e-05
3.38735e-06
1.17016e-05
4.61115e-06
1.14824e-05
5.90423e-06
1.11905e-05
7.22789e-06
1.0799e-05
8.54388e-06
1.0292e-05
9.81806e-06
9.66529e-06
1.10229e-05
8.92506e-06
1.21377e-05
8.08702e-06
1.31516e-05
7.16848e-06
1.40584e-05
6.1803e-06
1.48542e-05
5.09809e-06
3.90437e-06
1.55437e-05
-1.92209e-07
2.77667e-05
-3.20838e-07
2.24043e-05
-3.7264e-07
1.88372e-05
-3.41855e-07
1.65065e-05
-2.22072e-07
1.48821e-05
-5.48968e-09
1.37083e-05
3.19229e-07
1.28479e-05
7.62463e-07
1.22136e-05
1.33189e-06
1.17393e-05
2.02997e-06
1.13708e-05
2.85189e-06
1.10609e-05
3.78495e-06
1.07684e-05
4.80974e-06
1.04576e-05
5.90159e-06
1.00986e-05
7.03208e-06
9.66848e-06
8.17171e-06
9.15238e-06
9.29257e-06
8.54437e-06
1.03704e-05
7.84711e-06
1.13871e-05
7.07031e-06
1.23287e-05
6.22711e-06
1.31862e-05
5.3229e-06
1.39541e-05
4.33e-06
3.23506e-06
1.46224e-05
1.35952e-07
2.76306e-05
2.42685e-07
2.22973e-05
3.68543e-07
1.8711e-05
5.33953e-07
1.63408e-05
7.43329e-07
1.46725e-05
1.00515e-06
1.34463e-05
1.33171e-06
1.25212e-05
1.73602e-06
1.18091e-05
2.22836e-06
1.12468e-05
2.81455e-06
1.07845e-05
3.49486e-06
1.03805e-05
4.26358e-06
9.99963e-06
5.10938e-06
9.61173e-06
6.01593e-06
9.19201e-06
6.96317e-06
8.72121e-06
7.92909e-06
8.18642e-06
8.89181e-06
7.58158e-06
9.83141e-06
6.90744e-06
1.07306e-05
6.17113e-06
1.15767e-05
5.38119e-06
1.23597e-05
4.53988e-06
1.30687e-05
3.621e-06
2.60109e-06
1.37017e-05
4.23797e-07
2.72061e-05
7.59454e-07
2.19612e-05
1.07231e-06
1.83979e-05
1.37075e-06
1.60421e-05
1.66588e-06
1.43771e-05
1.97182e-06
1.31402e-05
2.30388e-06
1.21889e-05
2.67723e-06
1.14356e-05
3.10476e-06
1.08192e-05
3.59564e-06
1.02935e-05
4.15443e-06
9.82167e-06
4.78068e-06
9.37331e-06
5.46903e-06
8.92333e-06
6.20969e-06
8.45131e-06
6.9893e-06
7.94157e-06
7.79215e-06
7.38354e-06
8.60166e-06
6.77202e-06
9.40181e-06
6.10723e-06
1.01787e-05
5.39422e-06
1.092e-05
4.64013e-06
1.16142e-05
3.84572e-06
1.22511e-05
2.98399e-06
2.03655e-06
1.28147e-05
6.90783e-07
2.65151e-05
1.24135e-06
2.14104e-05
1.71823e-06
1.79207e-05
2.13721e-06
1.56229e-05
2.51207e-06
1.40021e-05
2.85996e-06
1.27921e-05
3.19932e-06
1.18494e-05
3.54806e-06
1.10867e-05
3.92174e-06
1.04454e-05
4.33249e-06
9.88265e-06
4.78831e-06
9.36576e-06
5.2928e-06
8.86877e-06
5.84521e-06
8.37088e-06
6.4408e-06
7.85568e-06
7.07144e-06
7.3109e-06
7.72655e-06
6.7284e-06
8.39415e-06
6.10438e-06
9.06205e-06
5.43928e-06
9.71799e-06
4.73828e-06
1.0352e-05
4.0063e-06
1.09537e-05
3.24402e-06
1.15096e-05
2.42807e-06
1.53495e-06
1.20104e-05
9.17551e-07
2.55969e-05
1.66069e-06
2.06669e-05
2.2867e-06
1.72944e-05
2.81311e-06
1.50963e-05
3.25798e-06
1.3557e-05
3.64247e-06
1.24075e-05
3.98846e-06
1.15033e-05
4.31663e-06
1.07584e-05
4.64511e-06
1.01168e-05
4.98858e-06
9.53908e-06
5.35781e-06
8.99646e-06
5.7595e-06
8.46702e-06
6.1964e-06
7.93394e-06
6.66758e-06
7.38447e-06
7.16896e-06
6.80949e-06
7.694e-06
6.20334e-06
8.23445e-06
5.56389e-06
8.78107e-06
4.89262e-06
9.32518e-06
4.19418e-06
9.85745e-06
3.47419e-06
1.03682e-05
2.73341e-06
1.08467e-05
1.94943e-06
1.10698e-06
1.12739e-05
1.11036e-06
2.44866e-05
2.01817e-06
1.97589e-05
2.77057e-06
1.65418e-05
3.38633e-06
1.44804e-05
3.88788e-06
1.30553e-05
4.30057e-06
1.19946e-05
4.64973e-06
1.1154e-05
4.95879e-06
1.04493e-05
5.24819e-06
9.8273e-06
5.53472e-06
9.25247e-06
5.83128e-06
8.69983e-06
6.14689e-06
8.15137e-06
6.48683e-06
7.59398e-06
6.85299e-06
7.01829e-06
7.24432e-06
6.41814e-06
7.65739e-06
5.79027e-06
8.08697e-06
5.13429e-06
8.52676e-06
4.45281e-06
8.96941e-06
3.75155e-06
9.40776e-06
3.03604e-06
9.83423e-06
2.30698e-06
1.02365e-05
1.54715e-06
7.39169e-07
1.06037e-05
1.26736e-06
2.32188e-05
2.3141e-06
1.87119e-05
3.16919e-06
1.56866e-05
3.85392e-06
1.37955e-05
4.39607e-06
1.2513e-05
4.8257e-06
1.15649e-05
5.17176e-06
1.08078e-05
5.46041e-06
1.01605e-05
5.7141e-06
9.57353e-06
5.9513e-06
9.01521e-06
6.18644e-06
8.46464e-06
6.43008e-06
7.9077e-06
6.68923e-06
7.33482e-06
6.96771e-06
6.73981e-06
7.26665e-06
6.1192e-06
7.58495e-06
5.47197e-06
7.91973e-06
4.7995e-06
8.2668e-06
4.10572e-06
8.62144e-06
3.39694e-06
8.97782e-06
2.67981e-06
9.32787e-06
1.95703e-06
9.66113e-06
1.21382e-06
4.40208e-07
9.95948e-06
1.40676e-06
2.18122e-05
2.5655e-06
1.75532e-05
3.49616e-06
1.47559e-05
4.22579e-06
1.30658e-05
4.78877e-06
1.195e-05
5.22056e-06
1.1133e-05
5.55401e-06
1.04743e-05
5.81789e-06
9.8966e-06
6.0364e-06
9.35498e-06
6.22913e-06
8.82244e-06
6.41134e-06
8.28241e-06
6.59441e-06
7.72462e-06
6.78628e-06
7.14296e-06
6.99192e-06
6.53417e-06
7.21387e-06
5.89726e-06
7.45265e-06
5.2332e-06
7.70722e-06
4.54494e-06
7.97537e-06
3.83757e-06
8.25341e-06
3.11894e-06
8.53707e-06
2.39631e-06
8.82027e-06
1.67385e-06
9.09028e-06
9.4377e-07
1.93469e-07
9.3365e-06
1.53427e-06
2.02778e-05
2.78862e-06
1.62988e-05
3.77157e-06
1.37729e-05
4.52104e-06
1.23163e-05
5.08196e-06
1.1389e-05
5.49746e-06
1.07175e-05
5.80532e-06
1.01664e-05
6.03708e-06
9.66481e-06
6.21822e-06
9.17382e-06
6.36876e-06
8.67189e-06
6.50404e-06
8.14712e-06
6.63542e-06
7.59325e-06
6.77095e-06
7.00745e-06
6.916e-06
6.38915e-06
7.07379e-06
5.7395e-06
7.24588e-06
5.06114e-06
7.43249e-06
4.35835e-06
7.63272e-06
3.63735e-06
7.84522e-06
2.90649e-06
8.06697e-06
2.17468e-06
8.29161e-06
1.44929e-06
8.50864e-06
7.26696e-07
-1.60117e-09
8.70322e-06
1.6789e-06
1.85992e-05
3.01913e-06
1.49587e-05
4.02994e-06
1.27621e-05
4.76916e-06
1.15771e-05
5.29944e-06
1.08587e-05
5.67545e-06
1.03415e-05
5.94119e-06
9.90067e-06
6.1308e-06
9.47519e-06
6.27027e-06
9.03435e-06
6.37906e-06
8.5631e-06
6.47153e-06
8.05466e-06
6.55808e-06
7.50673e-06
6.64604e-06
6.91952e-06
6.74039e-06
6.29484e-06
6.84437e-06
5.63556e-06
6.95995e-06
4.9456e-06
7.08826e-06
4.23007e-06
7.22989e-06
3.49574e-06
7.38458e-06
2.75184e-06
7.55079e-06
2.00861e-06
7.72503e-06
1.27508e-06
7.89531e-06
5.56373e-07
-1.58292e-07
8.05162e-06
1.86211e-06
1.67372e-05
3.29694e-06
1.3524e-05
4.31174e-06
1.17475e-05
5.00379e-06
1.08851e-05
5.46767e-06
1.03949e-05
5.77591e-06
1.00332e-05
5.98006e-06
9.69655e-06
6.116e-06
9.33927e-06
6.20868e-06
8.94169e-06
6.27545e-06
8.49636e-06
6.32838e-06
8.00177e-06
6.37581e-06
7.45933e-06
6.42346e-06
6.87192e-06
6.47517e-06
6.24318e-06
6.53352e-06
5.57725e-06
6.60037e-06
4.87879e-06
6.67728e-06
4.15319e-06
6.76584e-06
3.40721e-06
6.86797e-06
2.64975e-06
6.98525e-06
1.89144e-06
7.11389e-06
1.14648e-06
7.24344e-06
4.26793e-07
-2.72601e-07
7.35735e-06
2.14177e-06
1.45959e-05
3.69262e-06
1.19735e-05
4.67216e-06
1.07681e-05
5.2614e-06
1.0296e-05
5.6111e-06
1.00453e-05
5.81794e-06
9.82645e-06
5.93979e-06
9.57475e-06
6.01121e-06
9.26789e-06
6.05316e-06
8.89978e-06
6.0786e-06
8.47096e-06
6.09568e-06
7.98473e-06
6.10957e-06
7.44549e-06
6.12351e-06
6.85804e-06
6.13948e-06
6.22726e-06
6.15878e-06
5.55801e-06
6.1825e-06
4.85511e-06
6.21212e-06
4.1236e-06
6.25023e-06
3.36913e-06
6.30064e-06
2.59937e-06
6.36786e-06
1.82432e-06
6.45377e-06
1.06058e-06
6.54597e-06
3.34521e-07
-3.51712e-07
6.62479e-06
2.58733e-06
1.20088e-05
4.29363e-06
1.02674e-05
5.16772e-06
9.89416e-06
5.56922e-06
9.89461e-06
5.74331e-06
9.87126e-06
5.81282e-06
9.757e-06
5.83465e-06
9.55297e-06
5.83506e-06
9.26753e-06
5.82626e-06
8.90863e-06
5.81393e-06
8.48335e-06
5.80064e-06
7.99807e-06
5.78741e-06
7.45878e-06
5.77436e-06
6.87115e-06
5.76108e-06
6.24059e-06
5.74699e-06
5.57216e-06
5.73168e-06
4.87047e-06
5.71577e-06
4.13956e-06
5.7018e-06
3.38312e-06
5.69624e-06
2.60497e-06
5.71002e-06
1.81061e-06
5.75121e-06
1.01941e-06
5.80773e-06
2.77993e-07
-3.9036e-07
5.84609e-06
3.29247e-06
8.71686e-06
5.21671e-06
8.34346e-06
5.84658e-06