/*--------------------------------*- C++ -*----------------------------------*\
  =========                 |
  \\      /  F ield         | OpenFOAM: The Open Source CFD Toolbox
   \\    /   O peration     | Website:  https://openfoam.org
    \\  /    A nd           | Version:  13
     \\/     M anipulation  |
\*---------------------------------------------------------------------------*/
FoamFile
{
    format      ascii;
    class       volScalarField;
    location    "2.1";
    object      rho;
}
// * * * * * * * * * * * * * * * * * * * * * * * * * * * * * * * * * * * * * //

dimensions      [1 -3 0 0 0 0 0];

internalField   nonuniform List<scalar> 
2268
(
13529
13529
13529
13529
13529
13529
13529
13529
13529
13529
13529
13529
13529
13529
13529
13529
13529
13529
13529
13526.7
13523.3
13521.6
13521.6
13529
13529
13529
13529
13529
13529
13529
13529
13529
13529
13529
13529
13529
13529
13529
13529
13529
13529
13529
13529
13529
13528.3
13526.1
13529
13529
13529
13529
13529
13529
13529
13529
13529
13529
13529
13529
13529
13529
13529
13529
13529
13529
13529
13529
13529
13529
13529
13529
13529
13529
13529
13529
13529
13529
13529
13529
13529
13529
13529
13529
13529
13529
13529
13529
13529
13529
13529
13529
13529
13529
13529
13529
13529
13529
13529
13529
13529
13529
13529
13529
13529
13529
13529
13529
13529
13521.9
13493.1
13457.7
13429.3
13418.9
13432.6
13464.6
13485.9
13529
13529
13529
13529
13529
13529
13529
13529
13529
13353.4
12702.7
11806.6
10799.5
9805.36
8800.11
7854.03
7165.07
6703.91
6449.73
6393.85
6545.4
6848.47
6828.83
13529
13529
13529
13529
13529
13486.5
12399.9
10574.8
8145.44
5609.66
3774.01
2523.34
1714.25
1205.74
1000
999.999
999.995
999.976
999.897
999.699
999.317
998.75
998.634
12167.9
12479.8
12208.6
11060.9
8925.11
5912.72
3475.05
1833.66
1110.02
1000
1000
1000
1000
1000
1000
999.999
999.996
999.981
999.971
999.957
999.933
999.88
999.701
11938.8
11938.9
11944.8
11953.6
11952.6
11940.8
11763.1
9131.83
8717.06
8734.27
8739.84
8560.19
8239.47
8226.14
9403.18
10325.1
10338.2
10290.2
10289.8
7737.56
7803.76
8028.28
8124.69
8341.34
9657.44
9818.81
11021
11395.1
11371.8
11322.1
11062.7
10197.3
10238.4
10278.6
10319.3
10329.3
10290.6
10289.8
2722.66
2412.35
2241.29
2200.43
3098.39
2828.71
3423.79
4388.8
5718.98
7615
8821.33
9134.22
9056.1
9180.02
9574.33
9783.15
10260
10287.7
10288
3111.85
3200.91
2484.65
2512.86
1832.99
1402.79
1134.23
1030.11
1029.72
1026.15
1146.48
2670.29
3657.25
3425.31
3823.34
4607.39
5832.44
8431.44
7531.53
2889.53
3039.77
2897.24
2897.46
2054.49
1362.26
1306.15
1486.36
1262.13
1019.26
919.81
494.923
1743.19
2729.71
2710.44
3101.88
3672.78
3399.02
7102.82
2046.98
2045.24
2143.65
1858.5
2056.74
1926.34
1721.1
1990.74
1606.53
1011.72
996.705
726.146
328.379
810.548
1385.6
1693.69
2243.34
3234.62
2879.92
1169
1035.4
1160.92
1264.34
1516.31
1785.42
1905.05
1408.35
1067.34
999.953
1000.05
983.498
841.051
592.658
572.048
769.768
819.46
1149.39
2259.79
1033.77
936.168
1034.9
988.67
985.857
1496.43
1409.13
999.641
999.807
1001.04
1001.21
1001.27
999.401
973.406
950.016
967.111
986.62
956.98
1013.79
2517.08
2510.67
2131.05
1572.24
1150.2
1003.79
1000
1000
1000
1000
1000
1000
1000
1000
1000
1000
1000
999.999
999.999
999.999
999.999
999.998
996.005
1000
1000
1000
1000
1000
1000
1000
1000
1000
1000
1000
1000
1000
1000
1000
1000
1000
999.999
995.727
978.081
958.511
945.154
893.395
1000
1000
1000
999.965
1000
1000
1000
1000
1000
1000
1000
1000
1000
999.481
989.864
975.662
962.423
927.335
855.604
798.939
660.758
557.923
518.638
999.012
998.746
996.482
996.58
997.393
999.607
999.68
999.327
996.815
988.116
977.007
963.115
937.399
882.172
812.445
759.291
677.788
589.075
502.416
445.44
484.109
497.639
443.236
862.455
874.794
886.915
877.112
842.546
808.114
820.725
812.284
761.007
742.194
686.425
621
573.443
522.078
458.939
443.02
450.741
415.924
440.291
499.418
499.739
496.733
478.928
519.43
512.684
511.951
507.795
507.839
509.518
508.483
485.583
457.582
478.158
472.307
461.615
462.367
460.474
468.512
490.475
492.569
483.939
491.263
499.995
499.705
499.061
499.957
332.106
367.715
410.442
442.528
464.25
478.969
487.926
489.411
492.359
499.82
499.785
499.805
499.959
500
500
500
500
500
500
499.991
499.965
499.976
500.002
3.29949
18.1062
40.2767
73.5819
113.591
156.989
208.514
267.034
318.42
368.252
419.929
468.901
499.997
499.999
499.999
500
500
500
500
500
500
500
500
0.999978
0.999998
1
1.00061
1.01027
1.01048
1.01006
4.90878
15.5094
32.2637
61.4767
104.643
173.221
273.014
385.611
487.343
499.999
500
500
500
500
500
500
1.00072
1.00222
1.00211
1.01425
1.12908
1.12712
1.0165
1.0021
1.0026
1.00307
1.00323
1.00316
1.00359
2.19646
16.9009
61.5218
137.322
213.813
263.571
273.581
246.275
179.564
165.684
1.00106
1.00386
1.0071
1.02896
1.00778
1.02801
1.00741
1.00001
1.00001
1
1.0003
1.00036
1.00059
1.00111
1.00322
1.00315
1.00251
1.00167
1.94215
2.41214
1.79178
1.00004
1.00053
1.00047
1.00099
1.00024
1.0007
1.00006
1.00004
1.00033
1.00169
1.02066
1.0536
1.03768
1.0009
1.00001
1.00003
1.00002
1.00015
1.00017
1.00011
1.00047
1.00036
1.00003
1.00004
1.00003
1.00026
1.0001
1.00007
1.00006
1.00006
1.00006
1.00005
1.01872
1.08398
1.08496
1.08514
1.05501
1.0013
1
1
1.00002
1.00003
1.00007
1.00005
1.00003
1.00002
1.00002
1.00003
1.00019
1.00012
1.00009
1.00007
1.00009
1.00009
1.00026
1.00913
1.07789
1.08551
1.08586
1.05141
1.00317
1.00131
1.0004
1.00031
1.0002
1.00024
1.00014
1.0001
1.00009
1.00009
1.00007
1.00011
1.00011
1.00007
1.00007
1.00009
1.00012
1.00022
1.00084
1.00966
1.04483
1.03752
1.0056
1.00321
1.00276
1.00234
1.00238
1.00192
1.00059
1.00024
1.00017
1.00014
1.00012
1.0001
1.00006
1.00006
1.00005
1.00004
1.00004
1.00006
1.00007
1.00008
1.00003
1.00013
1.00014
1.00161
1.00289
1.00313
1.0028
1.00251
1.00162
1.00059
1.00027
1.00019
1.00016
1.00013
1.0001
1.00005
1.00005
1.00004
1.00003
1.00002
1.00002
1.00003
1.00002
1.00002
1.00011
1.00024
1.00067
1.00136
1.0016
1.00096
1.00069
1.0005
1.0003
1.0002
1.00014
1.00012
1.0001
1.00008
1.00004
1.00005
1.00004
1.00003
1.00002
1.00001
1.00002
1.00002
1.00003
1.0001
1.00027
1.00051
1.00064
1.00041
1.00012
1.00008
1.00011
1.00009
1.0001
1.00008
1.00007
1.00006
1.00005
1.00004
1.00004
1.00004
1.00003
1.00002
1.00001
1.00001
1.00001
1.00002
1.00005
1.00015
1.0003
1.00029
1.0001
1.00004
1.00003
1.00003
1.00003
1.00003
1.00004
1.00003
1.00003
1.00003
1.00004
1.00004
1.00004
1.00003
1.00002
1.00001
1.00001
1.00001
1.00001
1.00002
1.00004
1.00006
1.00005
1.00003
1.00001
1.00001
1.00002
1.00002
1.00002
1.00002
1.00002
1.00001
1.00001
1.00003
1.00004
1.00003
1.00003
1.00002
1.00001
1.00001
1.00001
1.00001
1.00001
1.00001
1.00001
1.00001
1.00001
1.00001
1.00001
1.00001
1.00001
1.00001
1.00001
1.00001
1.00001
1.00001
1.00003
1.00003
1.00003
1.00002
1.00002
1.00001
1.00001
1
1
1
1
1
1
1
1.00001
1.00001
1.00001
1.00001
1
1
1
1
1
1.00003
1.00002
1.00002
1.00002
1.00001
1.00001
1.00001
1
1
1
1
1
1
1
1
1
1
1
1
1
1
1
1
1.00002
1.00002
1.00002
1.00001
1.00001
1.00001
1
1
1
1
1
1
1
1
1
1
1
1
1
1
1
1
1
1.00002
1.00001
1.00001
1.00001
1.00001
1.00001
1
1
1
1
1
1
1
1
1
1
1
1
1
1
1
1
1
1.00001
1.00001
1.00001
1.00001
1
1
1
1
1
1
1
1
1
1
1
1
1
1
1
1
1
1
1
1.00001
1.00001
1.00001
1
1
1
1
1
1
1
1
1
1
1
1
1
1
1
1
1
1
1
1
1.00001
1.00001
1
1
1
1
1
1
1
1
1
1
1
1
1
1
1
1
1
1
1
1
1
1.00001
1
1
1
1
1
1
1
1
1
1
1
1
1
1
1
1
1
1
1
1
1
1
1
1
1
1
1
1
1
1
1
1
1
1
1
1
1
1
1
1
1
1
1
1
1
1
1
1
1
1
1
1
1
1
1
1
1
1
1
1
1
1
1
1
1
1
1
1
1
1
1
1
1
1
1
1
1
1
1
1
1
1
1
1
1
1
1
1
1
1
1
1
1
1
1
1
1
1
1
1
1
1
1
1
1
1
1
1
1
1
1
1
1
1
1
1
1
1
1
1
1
1
1
1
1
1
1
1
1
1
1
1
1
1
1
1
1
1
1
1
1
1
1
1
1
1
1
1
1
1
1
1
1
1
1
1
1
1
1
1
1
1
1
1
1
1
1
1
1
1
1
1
1
1
1
1
1
1
1
1
1
1
1
1
1
1
1
1
1
1
1
1
1
1
1
1
1
1
1
1
1
1
1
1
1
1
1
1
1
1
1
1
1
1
1
1
1
1
1
1
1
1
1
1
1
1
1
1
1
1
1
1
1
1
1
1
1
1
1
1
1
1
1
1
1
1
1
1
1
1
1
1
1
1
1
1
1
1
1
1
1
1
1
1
1
1
1
1
1
1
1
1
1
1
1
1
1
1
1
1
1
1
1
1
1
1
1
1
1
1
1
1
1
1
1
1
1
1
1
1
1
1
1
1
1
1
1
1
1
1
1
1
1
1
1
1
1
1
1
1
1
1293.93
1625.7
1578.47
1540.2
660.907
560.504
585.914
745.859
427.554
421.351
431.871
520.514
407.5
440.039
499.186
492.24
482.678
500.231
501.57
500.815
500.055
500.06
499.998
500
500.003
500.001
500
500.002
500
500.001
500.001
500.002
500
500
500
492.864
176.064
82.1873
32.7476
28.948
1
0.999997
1
1.00001
1.00004
1.00004
1.00004
1.00004
1.00003
1.00003
1.00004
1.00004
1.00006
1.00004
1.00004
1.00004
1.00007
1.00007
1.00005
1.00005
1.00009
1.00007
1.00006
1.00004
1.00007
1.00006
1.00005
1.00004
1.00004
1.00004
1.00003
1.00002
1.00002
1.00002
1.00002
1.00001
1.00001
1.00001
1.00001
1.00001
1.00001
1.00001
1.00001
1
1
1
1
1
1
1
1
1
1
1
1
1
1
1
1
1
1
1
1
1
1
1
1
1
1
1
1
1
1
1
1
1
1
1
1
1
1
1
1
1
1
1
1
1
1
1
1
1
1
1
1
1
1
1
1
1
1
1
1
1
1
1
1
1
1
1
1
1
1
1
1
1
1
1
1
1
1
1
1
1
1
1
1
1
1108.44
896.828
862.956
949.032
968.73
827.368
909.764
995.184
995.113
998.456
1000.2
1000.73
1000.8
1000.43
1000.14
1000.12
1000.11
998.91
770.46
828.584
808.048
734.019
526.675
483.685
615.108
798.84
833.057
859.592
862.391
869.917
887.922
908.427
932.517
977.014
1000.72
1000.16
999.924
967.19
554.298
516.669
503.599
499.893
475.452
464.374
457.337
491.508
506.242
504.372
507.88
515.906
526.036
542.605
591.916
705.078
845.009
950.677
980.224
490.06
498.257
500.051
499.735
478.842
471.728
496.641
500.045
500.37
500.071
500.038
500.118
500.223
500.465
501.25
501.057
518.279
631.71
782.706
500.454
499.885
499.671
499.818
500.072
500.029
500.003
500.003
500.016
499.995
500
500
499.986
499.912
500.163
500.663
501.45
533.937
577.592
500.008
500.004
499.999
500
500.001
500.001
500
499.999
500
500.001
500.001
500
500.001
500.002
499.997
499.587
500.266
508.258
513.528
500.004
500.003
500.002
500.002
500.002
500.002
500
500
500
500
500
500.001
500.003
500.218
502.087
504.881
503.761
501.698
502.554
500.001
500.001
499.996
498.69
490.846
475.815
459.684
444.901
431.89
423.102
418.851
416.365
410.247
405.806
411.391
408.021
399.935
370.716
329.725
446.342
374.138
301.547
236.338
172.344
123.82
94.5639
74.1429
59.2044
51.1053
47.3564
43.6849
35.7673
48.4593
54.0873
48.9659
37.3538
23.2974
15.489
17.8326
5.04217
1.00021
1.00082
1.00355
1.01408
1.04932
1.14843
1.38654
1.87529
2.7145
3.87769
4.28674
1.70153
0.999999
1
0.999984
0.999886
0.999945
1.00003
1.00009
1.00021
1.00025
1.00117
1.00423
1.00957
1.01505
1.07494
1.21346
1.17268
1.15492
1.34484
1.32153
1.09421
0.999938
1.00077
1.0014
1.00052
1.00004
1.00008
1.00021
1.00048
1.00066
1.00086
1.09937
1.39745
1.39202
1.10072
1.01971
1.26146
1.62463
1.64645
1.27427
1.00171
1.00146
1.00112
1.00033
1.00004
1.00006
1.00012
1.00019
1.00029
1.00063
1.1001
1.4945
1.48868
1.4683
1.0172
1.01515
1.17096
1.19181
1.01515
1.00086
1.00082
1.00029
1.00026
1.00004
1.00004
1.00007
1.00011
1.00015
1.00016
1.0005
1.04964
1.27322
1.21685
1.03941
1.00076
1.00152
1.00115
1.00035
1.00043
1.00011
1.00012
1.00032
1.00004
1.00003
1.00004
1.00007
1.00012
1.0001
1.00012
1.00009
1.00009
1.0001
1.00013
1.00082
1.00062
1.00025
1.00014
1.00004
1.00003
1.00013
1.00032
1.00003
1.00003
1.00002
1.00004
1.00007
1.00007
1.00018
1.00026
1.00022
1.0001
1.00011
1.00025
1.00047
1.00042
1.00023
1.00005
1.00004
1.00012
1.00027
1.00003
1.00002
1.00002
1.00003
1.00003
1.00002
1.00016
1.00035
1.00038
1.00021
1.00008
1.00011
1.00031
1.00036
1.00019
1.00005
1.00003
1.00007
1.00015
1.00002
1.00001
1.00001
1.00002
1.00002
1.00001
1.00001
1.00014
1.00021
1.00013
1.00007
1.00004
1.00009
1.00011
1.00004
1.00002
1.00003
1.00003
1.00001
1.00001
1.00001
1.00001
1.00001
1.00001
1.00001
1.00001
1.00001
1.00002
1.00002
1.00003
1.00003
1.00001
1.00001
1.00001
1.00001
1.00002
1.00001
1.00001
1.00001
1.00001
1
1.00001
1.00001
1.00001
1.00001
1.00001
1.00001
1.00002
1.00002
1.00002
1.00001
1.00001
1.00001
1.00001
1.00001
1.00001
1.00001
1
1
1
1
1
1
1
1.00001
1.00001
1.00001
1.00001
1.00001
1.00001
1.00001
1
1.00001
1.00001
1.00001
1.00001
1
1
1
1
1
1
1
1
1
1
1
1
1
1
1
1
1.00001
1.00001
1.00001
1
1
1
1
1
1
1
1
1
1
1
1
1
1
1
1
1.00001
1.00001
1.00001
1
1
1
1
1
1
1
1
1
1
1
1
1
1
1
1
1.00001
1.00002
1.00001
1
1
1
1
1
1
1
1
1
1
1
1
1
1
1
1
1.00001
1.00002
1.00002
1
1
1
1
1
1
1
1
1
1
1
1
1
1
1
1
1.00001
1.00004
1.00002
1
1
1
1
1
1
1
1
1
1
1
1
1
1
1
1.00001
1.00002
1.00004
1.00004
1
1
1
1
1
1
1
1
1
1
1
1
1
1
1
1.00001
1.00002
1.00005
1.00003
1
1
1
1
1
1
1
1
1
1
1
1
1
1
1
1.00001
1.00002
1.00005
1.00003
1
1
1
1
1
1
1
1
1
1
1
1
1
1
1
1.00001
1.00003
1.00005
1.00003
1
1
1
1
1
1
1
1
1
1
1
1
1
1
1
1.00001
1.00003
1.00005
1.00003
1
1
1
1
1
1
1
1
1
1
1
1
1
1
1
1.00001
1.00003
1.00005
1.00001
1
1
1
1
1
1
1
1
1
1
1
1
1
1
1
1.00001
1.00002
1.00002
1.00001
1
1
1
1
1
1
1
1
1
1
1
1
1
1
1
1.00001
1.00001
1.00001
1
1
1
1
1
1
1
1
1
1
1
1
1
1
1
1
1.00001
1.00001
1
1
1
1
1
1
1
1
1
1
1
1
1
1
1
1
1
1
1
1
1
1
1
1
1
1
1
1
1
1
1
1
1
1
1
1
1
1
1
1
1
1
1
1
1
1
1
1
1
1
1
1
1
1
1
1
1
1
1
1
1
1
1
1
1
1
1
1
1
1
1
1
1
1
1
1
1
1
1
1
1
1
1
1
1
1
1
1
1
1
1
1
1
1
1
1
1
1
1
1
1
1
1
1
1
1
1
1
1
1
1
1
1
1
1
1
1
1
1
1
1
1
1
1
1
1
1
1
1
1
1
1
1
1
1
)
;

boundaryField
{
    leftWall
    {
        type            calculated;
        value           nonuniform List<scalar> 
50
(
13529
13529
13529
13529
13529
13529
13529
12167.9
2517.08
1000
1000
999.012
862.455
519.43
332.106
3.29949
0.999978
1.00072
1.00106
1.00047
1.00026
1.00019
1.00011
1.00006
1.00005
1.00004
1.00004
1.00004
1.00003
1.00003
1.00003
1.00002
1.00002
1.00001
1.00001
1.00001
1.00001
1
1
1
1
1
1
1
1
1
1
1
1
1
)
;
    }
    rightWall
    {
        type            calculated;
        value           nonuniform List<scalar> 
50
(
10289.8
10289.8
10288
7531.53
7102.82
2879.92
2259.79
1013.79
770.46
967.19
980.224
782.706
577.592
513.528
502.554
329.725
15.489
0.999945
1.00052
1.00033
1.00026
1.00032
1.00032
1.00027
1.00015
1.00001
1.00001
1.00001
1.00001
1.00001
1.00001
1.00001
1.00002
1.00002
1.00004
1.00003
1.00003
1.00003
1.00003
1.00001
1.00001
1
1
1
1
1
1
1
1
1
)
;
    }
    lowerWall
    {
        type            calculated;
        value           nonuniform List<scalar> 
62
(
13529
13529
13529
13529
13529
13529
13529
13529
13529
13529
13529
13529
13529
13529
13529
13529
13529
13529
13529
13526.7
13523.3
13521.6
13521.6
13521.6
13526.1
13529
13529
13485.9
6828.83
998.634
999.701
1293.93
1625.7
1578.47
1540.2
11938.8
7737.56
2722.66
3111.85
2889.53
2046.98
1169
1033.77
11938.8
11938.9
11944.8
11953.6
11952.6
11940.8
11763.1
9131.83
8717.06
8734.27
8739.84
8560.19
8239.47
8226.14
9403.18
10325.1
10338.2
10290.2
10289.8
)
;
    }
    atmosphere
    {
        type            calculated;
        value           nonuniform List<scalar> 
46
(
1
1
0.999999
1
1
1
1
1
1
1
1
1
1
1
1
1
1
1
1
1
1
1
1
1
1
1
1
1
1
1
1
1
1
1
1
1
1
1
1
1
1
1
1
1
1
1
)
;
    }
    defaultFaces
    {
        type            empty;
    }
}


// ************************************************************************* //
