/*--------------------------------*- C++ -*----------------------------------*\
  =========                 |
  \\      /  F ield         | OpenFOAM: The Open Source CFD Toolbox
   \\    /   O peration     | Website:  https://openfoam.org
    \\  /    A nd           | Version:  13
     \\/     M anipulation  |
\*---------------------------------------------------------------------------*/
FoamFile
{
    format      ascii;
    class       volScalarField;
    location    "2.45";
    object      alphas;
}
// * * * * * * * * * * * * * * * * * * * * * * * * * * * * * * * * * * * * * //

dimensions      [];

internalField   nonuniform List<scalar> 
2268
(
2
2
2
2
2
2
2
2
2
2
2
2
2
2
2
2
2
2
2
2
1.99964
1.99943
1.99943
2
2
2
2
2
2
2
2
2
2
2
2
2
2
2
2
2
2
2
2
1.99996
1.99987
1.99965
2
2
2
2
2
2
2
2
2
2
2
2
2
2
2
2
2
2
2
2
2
2
2
2
2
2
2
2
2
2
2
2
2
2
2
2
2
2
2
2
2
2
2
2
2
2
2
2
2
2
2
2
2
2
2
2
2
2
2
2
2
2
2
2
2
2
2
2
2
1.28964
1.38066
1.44142
1.48869
1.54052
1.60334
1.67588
1.75287
1.82765
1.89357
1.94487
1.97865
1.99554
1.99995
2
2
2
2
2
2
2
2
2
2.14895e-08
0.0038861
0.0334107
0.0576093
0.0846595
0.122195
0.17591
0.250033
0.34842
0.474259
0.627787
0.804694
0.99438
1.17614
1.31939
1.44221
1.54224
1.62307
1.6913
1.75136
1.80703
1.88734
2.00075
3.66337e-08
7.37471e-08
5.12082e-07
4.64133e-06
8.50614e-06
3.44186e-06
8.68323e-07
1.75492e-07
3.56612e-08
1.01055e-08
6.22275e-09
4.80569e-09
4.39426e-09
0.00744074
0.047734
0.0895453
0.132233
0.175272
0.219034
0.26492
0.317764
0.427194
0.777083
1.84063
1.853
1.86388
1.85667
1.87214
1.91229
1.93444
1.76307
1.73222
1.72599
1.7292
1.75377
1.6962
1.73626
1.73842
1.66168
1.71883
1.77668
1.76678
1.42362
1.40929
1.45734
1.55096
1.62621
1.68792
1.76186
1.87292
1.86771
1.89603
1.94144
1.84795
1.79997
1.83566
1.82734
1.81013
1.7723
1.77668
1.76687
0.69729
0.551824
0.694211
0.941203
1.16318
1.13291
1.05735
1.26648
1.43228
1.90647
2.16274
2.09976
1.94062
2.03642
2.16562
2.03821
1.77251
1.63992
1.59759
0.3277
0.324874
0.347761
0.417162
0.615317
0.841931
0.55794
0.376424
0.387327
0.886692
2.25814
2.46436
2.31497
2.39358
2.43251
2.25913
1.86201
1.69957
1.67247
0.240019
0.239998
0.241327
0.294072
0.551536
0.844727
0.777874
0.542582
0.221648
0.104815
1.29099
2.20215
2.37789
2.30591
2.20919
1.60277
1.37413
1.31443
1.79708
0.251426
0.260425
0.241738
0.211939
0.714898
0.985809
0.998106
0.949103
0.321174
0.0193392
0.135732
1.80032
2.07563
2.09259
1.30126
0.2064
0.03729
0.00594597
1.41488
0.246245
0.268616
0.264662
0.166619
0.86709
1.08857
1.11015
0.800596
0.151334
0.0158855
0.00104989
0.511692
1.97115
1.64163
0.240015
0.000246461
0.000239184
0.00561848
1.06845
0.276829
0.29208
0.25513
0.205877
1.09013
1.2722
0.941144
0.166129
0.00367973
0.00303952
0.000832236
0.0183645
0.769607
0.627548
0.0280631
0.000309009
0.000289099
0.0387637
0.447267
9.17754e-08
1.60047e-07
3.63185e-06
3.29149e-05
2.44534e-05
5.47609e-06
9.46338e-07
1.35082e-07
6.52486e-08
4.88631e-08
4.72667e-08
3.4331e-08
1.48068e-08
1.14915e-08
3.18391e-08
8.56855e-08
5.89267e-08
3.46451e-07
6.39091e-06
2.67946e-05
3.30883e-05
9.60418e-05
0.000181398
1.92579e-07
9.29154e-07
0.00194159
0.00107743
9.29723e-05
1.83545e-06
3.78444e-07
1.61033e-06
1.51696e-06
1.39075e-06
1.18372e-06
8.64205e-07
5.32142e-07
1.03304e-09
2.38472e-09
7.31664e-09
2.62001e-08
4.42261e-08
-8.81398e-08
-5.10856e-07
9.78472e-07
8.1257e-07
0.0054373
0.032005
0.0236384
0.00729186
0.00121197
2.79567e-05
6.47292e-07
6.44735e-05
0.00110736
0.0015131
0.00150814
0.00206809
0.00587853
0.0185262
0.0214488
0.0115717
0.00659808
0.00720803
0.013553
0.0756923
0.206574
0.261958
0.275788
0.198018
0.354486
0.112599
0.0865358
0.112455
0.11423
0.152677
0.305591
0.362093
0.387752
0.4128
0.439005
0.477291
0.547991
0.594169
0.610775
0.668367
0.726968
0.794593
0.845036
0.89942
0.885362
0.984502
1.17845
0.610944
0.703623
0.78379
0.824481
0.82435
1.03601
1.14093
1.21787
1.2696
1.31034
1.34253
1.31157
1.26079
1.23154
1.25198
1.29418
1.22556
1.05966
1.04821
1.04793
1.02646
1.13852
1.19695
1.13962
0.999721
1.00109
1.00356
1.0808
1.1977
1.09405
1.0069
1.02577
1.04225
1.00576
1
1
1
1.01345
1.01762
1.006
1
1.00001
1.00142
1.01243
1.02347
1.00695
1.02758
0.999113
0.999946
0.999995
1
1
1
1
1
1
1
1
1
1
1
1
1
1
1
1
1
1
1
1.01664
0.998722
0.999907
1.00002
1.03153
1.11441
1.14643
1.1381
1.1499
1.15732
1.14321
1.12091
1.09997
1.08112
1.06322
1.04896
1.03837
1.02915
1.02018
1.01337
1.00993
1.00865
1.00753
1.1065
1.29046
1.68459
2.05603
2.34923
2.4415
2.45626
2.52696
2.58839
2.60989
2.57423
2.5322
2.49354
2.45046
2.40039
2.35094
2.30524
2.25472
2.19334
2.13814
2.10585
2.09055
2.0731
2.641
2.5663
2.81252
2.99321
2.99999
3
3
3
3
3
3
3
3
3
3
3
3
3
3
3
3
3
3
3
2.99999
2.99997
2.99999
3
3
3
3
3
3
3
3
3
3
3
3
3
3
3
3
3
3
3
3
2.99999
2.99999
2.99998
2.99998
3
3
2.99999
2.99995
2.99993
3
3
3
3
3
3
3
3
3
3
3
3
3
3
3
2.99997
2.99989
2.99989
2.99998
3
2.99995
2.99969
2.99967
2.9999
3
3
3
3
3
3
3
3
3
3
3
3
3
3
2.99995
2.99988
2.99988
2.99997
3
2.99992
2.99967
2.99967
2.99967
2.99993
2.99999
3
3
3
3
3
3
3
3
3
3
3
3
2.99997
2.99991
2.99994
3
3
2.99999
2.99976
2.99967
2.99967
2.99991
2.99999
2.99999
2.99999
3
3
3
3
3
3
3
3
3
3
2.99999
3
3
3
3
3
2.99998
2.99983
2.99986
2.99999
2.99999
2.99999
2.99999
2.99999
3
3
3
3
3
3
3
3
3
3
3
3
3
3
3
3
3
3
3
3
2.99999
2.99999
3
3
3
3
3
3
3
3
3
3
3
3
3
3
3
3
3
3
3
3
3
3
3
3
3
3
3
3
3
3
3
3
3
3
3
3
3
3
3
3
3
3
3
3
3
3
3
3
3
3
3
3
3
3
3
3
3
3
3
3
3
3
3
3
3
3
3
3
3
3
3
3
3
3
3
3
3
3
3
3
3
3
3
3
3
3
3
3
3
3
3
3
3
3
3
3
3
3
3
3
3
3
3
3
3
3
3
3
3
3
3
3
3
3
3
3
3
3
3
3
3
3
3
3
3
3
3
3
3
3
3
3
3
3
3
3
3
3
3
3
3
3
3
3
3
3
3
3
3
3
3
3
3
3
3
3
3
3
3
3
3
3
3
3
3
3
3
3
3
3
3
3
3
3
3
3
3
3
3
3
3
3
3
3
3
3
3
3
3
3
3
3
3
3
3
3
3
3
3
3
3
3
3
3
3
3
3
3
3
3
3
3
3
3
3
3
3
3
3
3
3
3
3
3
3
3
3
3
3
3
3
3
3
3
3
3
3
3
3
3
3
3
3
3
3
3
3
3
3
3
3
3
3
3
3
3
3
3
3
3
3
3
3
3
3
3
3
3
3
3
3
3
3
3
3
3
3
3
3
3
3
3
3
3
3
3
3
3
3
3
3
3
3
3
3
3
3
3
3
3
3
3
3
3
3
3
3
3
3
3
3
3
3
3
3
3
3
3
3
3
3
3
3
3
3
3
3
3
3
3
3
3
3
3
3
3
3
3
3
3
3
3
3
3
3
3
3
3
3
3
3
3
3
3
3
3
3
3
3
3
3
3
3
3
3
3
3
3
3
3
3
3
3
3
3
3
3
3
3
3
3
3
3
3
3
3
3
3
3
3
3
3
3
3
3
3
3
3
3
3
3
3
3
3
3
3
3
3
3
3
3
3
3
3
3
3
3
3
3
3
3
3
3
3
3
3
3
3
3
3
3
3
3
3
3
3
3
3
3
3
3
3
3
3
3
3
3
3
3
3
3
3
3
3
3
3
3
3
3
3
3
3
3
3
3
3
3
3
3
3
3
3
3
3
3
3
3
3
3
3
3
3
3
3
3
3
3
3
3
3
3
3
3
3
3
3
3
3
3
3
3
3
3
3
3
3
3
3
3
3
3
3
3
3
3
3
3
3
3
3
3
3
3
3
3
3
3
3
3
3
3
3
3
3
3
3
3
3
3
3
3
3
3
3
3
3
3
3
3
3
3
3
3
3
3
3
3
3
3
3
3
3
3
3
3
3
3
3
3
3
3
3
3
3
3
3
3
3
3
3
3
3
3
4.50258e-05
2.9656e-05
2.1685e-05
1.65229e-05
0.0111298
0.00759604
0.00246355
0.000218386
0.168762
0.535243
1.01328
1.27997
1.22218
1.2464
1.16989
1.15043
1.10678
1.01233
0.999983
1.00019
0.999986
1.00001
1
1
1
0.999998
0.999985
0.999981
1.00544
1.00639
1.00717
1.0084
2.04044
2.05369
2.06378
2.08073
3
3
3
3
3
3
3
3
3
3
3
3
3
3
3
3
3
3
3
3
3
3
3
3
3
3
3
3
3
3
3
3
3
3
3
3
3
3
3
3
3
3
3
3
3
3
3
3
3
3
3
3
3
3
3
3
3
3
3
3
3
3
3
3
3
3
3
3
3
3
3
3
3
3
3
3
3
3
3
3
3
3
3
3
3
3
3
3
3
3
3
3
3
3
3
3
3
3
3
3
3
3
3
3
3
3
3
3
3
3
3
3
3
3
3
3
3
3
3
3
3
3
3
3
3
3
3
3
3
3
3
3
0.460492
0.570361
0.273436
0.516951
1.14115
1.08002
0.284606
0.0087917
0.00642445
0.00250663
0.00100846
0.00117061
0.0115031
0.0133083
0.000312421
0.000458809
0.00671853
0.0588613
0.287818
0.847871
0.745648
0.582648
0.772039
1.32297
0.903455
0.50657
0.209389
0.0926885
0.0297127
0.00291574
0.00299926
0.00190804
0.00157678
0.00752701
0.03978
0.102572
0.322428
0.29613
1.22212
1.17744
1.00799
1.11565
1.27325
1.10365
1.05091
0.950423
0.826815
0.765822
0.666148
0.570898
0.486214
0.490769
0.553683
0.651285
0.741482
0.999003
1.05426
1.10597
1.01791
1.00098
1.00275
1.10318
1.26498
1.19246
1.02417
1.00024
1.00001
1.00004
0.999703
0.99715
0.996742
0.999338
1.00048
1.00036
1.01856
1.05755
1.00006
1.00002
1.00063
1.00652
1.00777
1.01127
1.00104
1
1.00001
1.00001
1
1
1
1.00003
1.00046
1.00047
1.00027
1.00006
0.999931
1.00001
1.00005
1.00032
1.0002
1
1
1
1
1
1
1
1
1
1
1.00001
1
1
1
0.999797
0.999995
1
1
1
1
1
1
1
1
1
0.999999
0.999995
0.999923
0.999661
0.998652
0.997233
0.997545
0.997382
0.99684
1.01148
1.01206
1.01073
1.00869
1.00752
1.0085
1.02954
1.08451
1.16416
1.25834
1.35986
1.48497
1.70469
2.01111
2.22966
2.32423
2.28417
1.98438
1.53582
2.11944
2.13636
2.15619
2.18728
2.24163
2.33581
2.45049
2.56912
2.6885
2.80389
2.90745
2.98703
2.98404
2.98567
2.98659
2.98669
2.98719
2.98585
2.90015
3
3
3
3
3
2.99999
2.99997
2.99992
2.99969
2.99893
2.99862
2.9987
2.99892
2.99939
2.99992
2.99999
2.99999
2.99999
2.99923
3
3
3
2.99995
2.99953
2.99926
2.99944
2.9998
2.99987
2.99989
2.99884
2.99796
2.99798
2.99961
2.99999
3
3
3
3
3
3
3
2.99956
2.99805
2.99804
2.99805
2.99967
3
2.99985
2.99843
2.99828
2.99983
2.99999
3
3
3
3
3
3
3
3
2.99997
2.99913
2.99828
2.99869
2.99988
3
3
3
2.99999
3
3
3
3
3
3
3
3
3
3
3
3
3
3
2.99999
2.99999
3
3
3
3
3
3
3
3
3
3
3
3
3
3
3
3
3
3
3
3
3
3
3
3
3
3
3
3
3
3
3
3
3
3
3
3
3
3
3
3
3
3
3
3
3
3
3
3
3
3
3
3
3
3
3
3
3
3
3
3
3
3
3
3
3
3
3
3
3
3
3
3
3
3
3
3
3
3
3
3
3
3
3
3
3
3
3
3
3
3
3
3
3
3
3
3
3
3
3
3
3
3
3
3
3
3
3
3
3
3
3
3
3
3
3
3
3
3
3
3
3
3
3
3
3
3
3
3
3
3
3
3
3
3
3
3
3
3
3
3
3
3
3
3
3
3
3
3
3
3
3
3
3
3
3
3
3
3
3
3
3
3
3
3
3
3
3
3
3
3
3
3
3
3
3
3
3
3
3
3
3
3
3
3
3
3
3
3
3
3
3
3
3
3
3
3
3
3
3
3
3
3
3
3
3
3
3
3
3
3
3
3
3
3
3
3
3
3
3
3
3
3
3
3
3
3
3
3
3
3
3
3
3
3
3
3
3
3
3
3
3
3
3
3
3
3
3
3
3
3
3
3
3
3
3
3
3
3
3
3
3
3
3
3
3
3
3
3
3
3
3
3
3
3
3
3
3
3
3
3
3
3
3
3
3
3
3
3
3
3
3
3
3
3
3
3
3
3
3
3
3
3
3
3
3
3
3
3
3
3
3
3
3
3
3
3
3
3
3
3
3
3
3
3
3
3
3
3
3
3
3
3
3
3
3
3
3
3
3
3
3
3
3
3
3
3
3
3
3
3
3
3
3
3
3
3
3
3
3
3
3
3
3
3
3
3
3
3
3
3
3
3
3
3
3
3
3
3
3
3
3
3
3
3
3
3
3
3
3
3
3
3
3
3
3
3
3
3
3
3
3
3
3
3
3
3
3
3
3
3
3
3
3
3
3
3
3
3
3
3
3
3
3
3
3
3
3
3
3
3
3
3
3
3
3
3
3
3
3
3
3
3
3
3
3
3
3
3
3
3
3
3
3
3
3
3
3
3
3
3
3
3
3
3
3
3
3
3
3
3
3
3
3
3
3
3
3
3
3
3
3
3
3
3
3
3
3
3
3
3
3
3
3
3
3
3
3
3
3
3
3
3
3
3
3
3
3
3
3
3
3
3
3
3
3
3
3
3
3
3
3
3
3
3
3
3
3
3
3
3
3
3
3
3
3
3
3
3
3
3
3
3
)
;

boundaryField
{
    leftWall
    {
        type            calculated;
        value           nonuniform List<scalar> 
50
(
2
2
2
2
2
1.28964
2.14895e-08
3.66337e-08
9.17754e-08
1.92579e-07
0.032005
0.354486
0.610944
1.13962
1.02758
1.01664
1.1065
2.641
3
3
3
3
3
3
3
3
3
3
3
3
3
3
3
3
3
3
3
3
3
3
3
3
3
3
3
3
3
3
3
3
)
;
    }
    rightWall
    {
        type            calculated;
        value           nonuniform List<scalar> 
50
(
1.76678
1.76687
1.59759
1.67247
1.79708
1.41488
1.06845
0.447267
0.287818
0.29613
1.05426
1.05755
0.999931
0.999797
0.99684
1.53582
2.90015
2.99923
3
3
3
3
3
3
3
3
3
3
3
3
3
3
3
3
3
3
3
3
3
3
3
3
3
3
3
3
3
3
3
3
)
;
    }
    lowerWall
    {
        type            calculated;
        value           nonuniform List<scalar> 
62
(
2
2
2
2
2
2
2
2
2
2
2
2
2
2
2
2
2
2
2
2
1.99964
1.99943
1.99943
1.99943
1.99965
2
2
2
2
2.00075
0.777083
4.50258e-05
2.9656e-05
2.1685e-05
1.65229e-05
1.84063
1.42362
0.69729
0.3277
0.240019
0.251426
0.246245
0.276829
1.84063
1.853
1.86388
1.85667
1.87214
1.91229
1.93444
1.76307
1.73222
1.72599
1.7292
1.75377
1.6962
1.73626
1.73842
1.66168
1.71883
1.77668
1.76678
)
;
    }
    atmosphere
    {
        type            calculated;
        value           nonuniform List<scalar> 
46
(
3
3
3
3
3
3
3
3
3
3
3
3
3
3
3
3
3
3
3
3
3
3
3
3
3
3
3
3
3
3
3
3
3
3
3
3
3
3
3
3
3
3
3
3
3
3
)
;
    }
    defaultFaces
    {
        type            empty;
    }
}


// ************************************************************************* //
