/*--------------------------------*- C++ -*----------------------------------*\
  =========                 |
  \\      /  F ield         | OpenFOAM: The Open Source CFD Toolbox
   \\    /   O peration     | Website:  https://openfoam.org
    \\  /    A nd           | Version:  13
     \\/     M anipulation  |
\*---------------------------------------------------------------------------*/
FoamFile
{
    format      ascii;
    class       volScalarField;
    location    "2.45";
    object      alpha.air;
}
// * * * * * * * * * * * * * * * * * * * * * * * * * * * * * * * * * * * * * //

dimensions      [];

internalField   nonuniform List<scalar> 
2268
(
5.65472e-13
5.82625e-13
6.07689e-13
5.48418e-13
4.3829e-13
3.02228e-13
1.77734e-13
8.94913e-14
3.97167e-14
1.92635e-14
1.85574e-14
1.96876e-14
2.76301e-14
5.10452e-14
1.32753e-13
2.26929e-13
3.41187e-13
6.59984e-13
1.73773e-12
2.78223e-12
1.70089e-12
3.57409e-13
3.72368e-13
2.25983e-12
2.67227e-12
2.61436e-12
2.33214e-12
2.00298e-12
1.48872e-12
8.31292e-13
4.01585e-13
2.06836e-13
1.5249e-13
1.70994e-13
2.82432e-13
6.08139e-13
1.3694e-12
2.96336e-12
4.21372e-12
5.74297e-12
1.25125e-11
2.45775e-11
3.24198e-11
3.78199e-11
2.76194e-10
3.9911e-11
6.03865e-12
7.95233e-12
6.65354e-12
6.70645e-12
6.10961e-12
4.83543e-12
2.73111e-12
1.09625e-12
5.19512e-13
5.06132e-13
7.25751e-13
1.65282e-12
3.90072e-12
8.96885e-12
2.05787e-11
4.53162e-11
8.7991e-11
1.28397e-10
2.20055e-10
4.59144e-10
1.33443e-09
2.70516e-09
1.33112e-09
2.06887e-11
1.63071e-11
2.35525e-11
1.3055e-11
1.23856e-11
1.17239e-11
1.09436e-11
8.07489e-12
4.76633e-12
3.31186e-12
3.23513e-12
4.93369e-12
9.9779e-12
2.17741e-11
5.80347e-11
1.19685e-10
2.17019e-10
3.67225e-10
5.37094e-10
7.04588e-10
1.25526e-09
2.45565e-09
1.20954e-09
4.56694e-11
1.62532e-11
9.85837e-11
1.10724e-11
1.09001e-11
1.13256e-11
1.3855e-11
1.66401e-11
1.63397e-11
1.32563e-11
1.03508e-11
1.08609e-11
1.67973e-11
3.56428e-11
7.29363e-11
1.21919e-10
1.76634e-10
2.7353e-10
3.43912e-10
5.61e-10
5.22375e-10
9.65528e-10
7.59656e-10
1.37395e-09
9.55373e-10
1.00375e-10
2.24717e-07
6.12343e-08
9.37917e-09
1.32552e-11
1.4779e-11
6.44186e-11
6.81605e-11
5.4569e-11
4.41087e-11
4.41724e-11
5.31239e-11
7.13096e-11
9.18171e-11
1.27029e-10
8.33597e-11
7.4068e-11
6.37413e-07
1.39919e-07
8.70724e-09
7.03985e-10
6.05554e-09
1.18232e-08
3.16523e-09
9.99203e-07
1.77555e-06
6.63241e-07
5.78581e-08
8.5406e-09
2.04953e-09
7.46538e-10
4.82485e-10
3.63603e-10
3.38672e-10
2.65121e-10
1.26258e-10
9.25281e-11
3.57869e-08
3.61372e-08
5.37886e-09
4.49968e-09
5.43862e-05
0.000569728
0.000794915
1.09513e-08
2.33824e-08
1.69703e-07
1.54833e-06
2.83592e-06
1.14707e-06
2.88961e-07
5.8133e-08
1.16713e-08
3.24509e-09
1.99831e-09
1.53619e-09
1.3791e-09
1.04226e-09
1.20922e-10
8.86595e-09
4.7228e-08
3.80304e-08
4.48911e-09
5.88372e-09
0.0001135
0.000716373
0.000902066
0.000341962
0.000342046
0.0020758
0.0158902
0.0283186
0.0416651
0.0643386
0.0639746
0.0486334
0.0432505
0.0480897
0.0702956
0.0755235
0.0700846
0.055532
0.0171273
0.0138269
0.0137756
0.0137888
0.00667801
0.00702226
0.00594028
0.004053
0.00422382
0.0055716
0.0186816
0.0335928
0.0283575
0.0526826
0.0627588
0.0568778
0.0568932
0.0878131
0.0861327
0.0685538
0.0166468
0.0136973
0.0137736
0.0168791
0.0176497
0.0196631
0.0226158
0.0212249
0.00415618
0.000850945
0.000443541
0.00369282
0.111699
0.198551
0.167955
0.115635
0.163372
0.232755
0.160552
0.0365761
0.0137485
0.0136878
0.0136264
0.0136269
0.0166084
0.0264614
0.0264625
0.0100142
4.93267e-05
5.70561e-05
5.86928e-05
0.127016
0.516784
0.561862
0.502096
0.548015
0.57231
0.519175
0.328053
0.205786
0.145624
0.017277
0.0135271
0.013561
0.01375
0.0179527
0.0116974
2.27565e-05
3.65521e-05
0.00187402
0.028802
0.403691
0.57235
0.572363
0.572388
0.57244
0.405258
0.371212
0.366315
0.415695
0.0612584
0.0600922
0.0279633
0.0128358
0.0127971
0.0260027
0.0435695
0.0305779
0.00714021
1.80709e-05
0.045116
0.571259
0.572529
0.572363
0.322715
3.80726e-06
3.87706e-06
0.000155818
0.399901
0.0582335
0.0747783
0.0727379
0.0175905
0.0175539
0.0499863
0.0634262
0.0630589
0.00589073
1.81381e-05
1.80709e-05
0.155949
0.567718
0.440087
0.000328073
6.66245e-06
3.9371e-06
3.85864e-06
0.234217
0.0579553
0.0736668
0.0677569
0.0425663
0.128867
0.144043
0.139353
0.0308314
1.66019e-05
1.67014e-05
1.8073e-05
1.80656e-05
0.181284
0.122418
4.95625e-06
3.56526e-05
2.56945e-05
3.84508e-06
0.0197384
2.91953e-08
5.19723e-08
1.2094e-06
1.09706e-05
8.15016e-06
1.82456e-06
3.14515e-07
4.42368e-08
2.11408e-08
1.57467e-08
1.52663e-08
1.10798e-08
4.60701e-09
3.45249e-09
1.0146e-08
2.60363e-08
1.09903e-08
1.04924e-16
2.10348e-06
8.9312e-06
1.07357e-05
3.07763e-05
5.296e-05
6.34302e-08
3.09088e-07
0.000647197
0.000359142
3.09899e-05
6.08407e-07
1.24041e-07
5.3546e-07
5.04358e-07
4.62114e-07
3.93139e-07
2.87224e-07
1.7691e-07
-1.38916e-10
-1.49134e-12
2.59324e-16
4.35544e-16
-3.77537e-10
-3.23487e-08
-1.71979e-07
1.91375e-11
2.64908e-09
0.001812
0.0106683
0.00787945
0.00243062
0.000403988
9.31818e-06
1.99456e-07
2.14905e-05
0.000369118
0.000504366
0.000502711
0.000689363
0.00195951
0.0061754
0.00714959
0.00385724
0.00219936
0.00240267
0.00451766
0.0252307
0.0688579
0.0873193
0.0893365
0.0336844
0.118162
0.0283644
0.000709139
1.01824e-05
5.08388e-05
0.0344792
0.097657
0.109926
0.107857
0.10971
0.111362
0.116189
0.136283
0.155276
0.155275
0.155276
0.153473
0.153878
0.155455
0.155773
0.0942391
0.070352
0.138648
0.125579
0.0207045
1.0171e-05
1.09561e-05
0.00976112
0.145233
0.197353
0.196049
0.190184
0.195796
0.194201
0.159551
0.130394
0.115771
0.125988
0.151546
0.117116
0.0311723
0.024574
0.0240469
0.0132316
0.0692591
0.0984679
0.109043
7.01747e-05
0.000543055
0.00177829
0.0404019
0.0988481
0.0470264
0.00344964
0.0128874
0.021125
0.0028796
1.0602e-07
1.9159e-07
3.20709e-07
0.00672483
0.00881119
0.00300082
4.19786e-07
7.1427e-06
0.000709075
0.00621389
0.0117333
0.00347546
0.0138124
-2.23104e-08
-1.37617e-07
-7.74743e-08
4.27313e-07
2.83186e-07
2.89534e-07
2.15566e-07
1.43417e-07
2.00065e-07
1.42499e-07
1.01909e-07
9.18197e-08
1.24133e-07
1.51747e-07
1.88494e-07
2.19732e-07
2.45396e-07
1.62104e-07
1.35983e-07
1.6748e-06
3.61356e-07
9.71381e-07
0.00834338
6.89269e-13
2.78022e-07
8.47416e-06
0.0157642
0.0572039
0.0732143
0.069048
0.0749494
0.0786584
0.0716074
0.0604548
0.0499861
0.040561
0.0316111
0.0244816
0.019187
0.0145773
0.0100882
0.00668565
0.00496512
0.00432425
0.00376491
0.0532512
0.145537
0.342335
0.528014
0.674616
0.720752
0.728128
0.76348
0.794195
0.804944
0.787116
0.766101
0.746769
0.725228
0.700195
0.67547
0.65262
0.627362
0.596669
0.569069
0.552927
0.545277
0.536553
0.8205
0.78315
0.906263
0.996604
0.999994
0.999998
1
1
1
1
1
1
1
1
1
1
1
1
1
1
1
1
1
0.999999
0.999998
0.999984
0.999996
1
1
1
1
1
1
1
1
1
1
1
1
1
1
1
1
1
1
1
0.999999
0.999998
0.999996
0.999994
0.99999
1
1
0.999997
0.999976
0.999966
0.999999
0.999999
1
1
1
1
1
1
1
1
1
1
1
0.999999
0.999998
0.999986
0.99995
0.999947
0.999988
1
0.999976
0.999847
0.999835
0.99995
0.999999
1
1
1
1
1
1
1
1
1
1
1
0.999999
0.999999
0.999974
0.999942
0.999944
0.999985
1
0.99996
0.999836
0.999834
0.999835
0.999967
0.999998
0.999998
0.999999
0.999999
1
1
1
1
1
1
1
0.999999
0.999998
0.999987
0.999956
0.99997
0.999998
1
0.999994
0.999881
0.999836
0.999836
0.999955
0.999997
0.999997
0.999997
0.999998
1
1
1
1
1
1
1
0.999999
0.999998
0.999998
0.999999
1
1
1
1
0.999991
0.999914
0.999928
0.999994
0.999997
0.999997
0.999997
0.999998
1
1
1
1
1
1
1
0.999999
0.999999
0.999999
1
1
1
1
1
1
0.999999
1
1
0.999999
0.999997
0.999998
1
1
1
1
1
1
1
1
1
0.999999
1
1
1
1
1
1
1
1
1
1
0.999999
0.999999
1
1
1
1
1
1
1
1
1
1
1
1
1
1
1
1
1
1
1
1
1
0.999999
0.999999
1
1
1
1
1
1
1
1
1
1
1
1
1
1
1
1
1
1
1
1
1
0.999999
1
1
1
1
1
1
1
1
1
1
1
1
1
1
1
1
1
1
1
1
1
1
1
1
1
1
1
1
1
1
1
1
1
1
1
1
1
1
1
1
1
1
1
1
1
1
1
1
1
1
1
1
1
1
1
1
1
1
1
1
1
1
1
1
1
1
1
1
1
1
1
1
1
1
1
1
1
1
1
1
1
1
1
1
1
1
1
1
1
1
1
1
1
1
1
1
1
1
1
1
1
1
1
1
1
1
1
1
1
1
1
1
1
1
1
1
1
1
1
1
1
1
1
1
1
1
1
1
1
1
1
1
1
1
1
1
1
1
1
1
1
1
1
1
1
1
1
1
1
1
1
1
1
1
1
1
1
1
1
1
1
1
1
1
1
1
1
1
1
1
1
1
1
1
1
1
1
1
1
1
1
1
1
1
1
1
1
1
1
1
1
1
1
1
1
1
1
1
1
1
1
1
1
1
1
1
1
1
1
1
1
1
1
1
1
1
1
1
1
1
1
1
1
1
1
1
1
1
1
1
1
1
1
1
1
1
1
1
1
1
1
1
1
1
1
1
1
1
1
1
1
1
1
1
1
1
1
1
1
1
1
1
1
1
1
1
1
1
1
1
1
1
1
1
1
1
1
1
1
1
1
1
1
1
1
1
1
1
1
1
1
1
1
1
1
1
1
1
1
1
1
1
1
1
1
1
1
1
1
1
1
1
1
1
1
1
1
1
1
1
1
1
1
1
1
1
1
1
1
1
1
1
1
1
1
1
1
1
1
1
1
1
1
1
1
1
1
1
1
1
1
1
1
1
1
1
1
1
1
1
1
1
1
1
1
1
1
1
1
1
1
1
1
1
1
1
1
1
1
1
1
1
1
1
1
1
1
1
1
1
1
1
1
1
1
1
1
1
1
1
1
1
1
1
1
1
1
1
1
1
1
1
1
1
1
1
1
1
1
1
1
1
1
1
1
1
1
1
1
1
1
1
1
1
1
1
1
1
1
1
1
1
1
1
1
1
1
1
1
1
1
1
1
1
1
1
1
1
1
1
1
1
1
1
1
1
1
1
1
1
1
1
1
1
1
1
1
1
1
1
1
1
1
1
1
1
1
1
1
1
1
1
1
1
1
1
1
1
1
1
1
1
1
1
1
1
1
1
1
1
1
1
1
1
1
1
2.06006e-10
-1.20476e-06
1.58072e-06
1.96904e-06
0.00370898
0.00253193
0.000821185
4.76733e-06
0.00436669
0.112511
0.177613
0.178563
0.140025
0.132435
0.0881619
0.0822712
0.0533383
0.00631488
1.43943e-05
-9.29253e-20
1.48138e-06
9.15311e-08
6.84529e-06
1.08895e-05
1.00186e-06
3.7368e-07
5.5847e-08
1.48978e-08
0.00272367
0.00319939
0.00358492
0.00419852
0.520222
0.526845
0.531888
0.540366
1
1
1
1
1
1
1
1
1
1
1
1
1
1
1
1
1
1
1
1
1
1
1
1
1
1
1
1
1
1
1
1
1
1
1
1
1
1
1
1
1
1
1
1
1
1
1
1
1
1
1
1
1
1
1
1
1
1
1
1
1
1
1
1
1
1
1
1
1
1
1
1
1
1
1
1
1
1
1
1
1
1
1
1
1
1
1
1
1
1
1
1
1
1
1
1
1
1
1
1
1
1
1
1
1
1
1
1
1
1
1
1
1
1
1
1
1
1
1
1
1
1
1
1
1
1
1
1
1
1
1
1
0.0696105
0.129065
0.0776985
0.154752
0.180082
0.179248
0.0844889
0.00289882
0.00210564
0.000768621
0.000248782
2.63884e-05
-6.44117e-07
-2.30679e-16
1.62938e-05
7.40961e-05
0.00210848
0.00658965
0.00283406
0.126767
0.180831
0.180548
0.180838
0.180548
0.180082
0.165023
0.0481326
0.00390441
0.00102153
0.00093959
0.000955546
0.000453804
0.000196118
0.000185836
7.40418e-05
0.00577328
0.0541778
0.0475689
0.177613
0.156254
0.068194
0.0757063
0.144021
0.179248
0.178933
0.0718382
0.00192691
0.000133987
0.000539514
0.000959093
0.000722545
0.000336772
0.000169481
7.39773e-05
0.00247673
0.0618494
0.0620831
0.0556053
0.00893564
0.00046094
0.00137676
0.0589662
0.136848
0.0961839
0.0120448
0.000107155
4.61009e-06
1.96241e-05
6.85887e-05
7.56246e-05
0.000136695
0.000228563
0.000204602
0.00012528
0.00828033
0.025596
-1.09973e-19
1.53103e-05
0.000312009
0.00330947
0.00448526
0.00563459
0.000520114
8.93116e-07
3.35953e-06
4.65144e-06
8.16482e-07
3.9759e-09
1.01599e-08
1.51214e-05
0.000222665
0.000230587
0.000135397
6.5089e-08
2.13335e-25
1.43046e-05
2.70268e-05
0.000158828
0.000105825
2.8183e-09
2.81477e-09
2.96857e-09
2.97952e-07
2.44802e-07
4.14332e-07
1.63089e-07
-1.58819e-24
7.8615e-08
1.53753e-06
6.53885e-06
-2.29298e-08
-2.13061e-07
6.64221e-09
-1.80403e-09
2.99424e-08
8.81192e-08
2.3967e-07
5.15488e-08
2.81485e-09
2.81502e-09
6.91254e-14
1.04114e-13
1.36373e-13
3.53754e-13
1.51844e-15
-3.87741e-28
-2.06789e-09
-1.31492e-07
-1.61382e-06
-3.29799e-07
-6.49029e-07
3.30281e-07
-1.71031e-10
0.00573821
0.00602926
0.00536394
0.00434252
0.00376132
0.00425066
0.0147699
0.0422555
0.0820816
0.129168
0.179929
0.242484
0.352356
0.508448
0.618403
0.665686
0.645659
0.49509
0.270923
0.559722
0.568179
0.578095
0.593641
0.620813
0.667907
0.725247
0.784561
0.84426
0.901975
0.953724
0.99354
0.992784
0.994277
0.994842
0.994795
0.994891
0.994075
0.952082
1
1
1
1
0.999999
0.999996
0.999986
0.999968
0.999877
0.999587
0.999467
0.999492
0.99951
0.999695
0.999962
0.999997
0.999998
0.999995
0.999684
1
1
0.999999
0.999973
0.999767
0.99963
0.999724
0.999912
0.999948
0.999956
0.999419
0.998981
0.998988
0.999803
0.999993
1
1
1
1
1
1
0.999998
0.999782
0.999023
0.999022
0.999023
0.999835
0.999999
0.999927
0.999213
0.999139
0.999914
0.999993
1
0.999999
0.999999
0.999999
1
1
1
0.999999
0.999987
0.999563
0.999139
0.999346
0.999942
1
1
1
0.999996
1
1
1
1
1
0.999999
0.999999
1
1
1
1
1
1
1
0.999996
0.999994
1
1
1
1
1
1
1
1
1
1
1
1
1
1
1
1
1
1
1
1
1
1
1
1
1
1
1
1
1
1
1
1
1
1
1
1
1
1
1
1
1
1
1
1
1
1
1
1
1
1
1
1
1
1
1
1
1
1
1
1
1
1
1
1
1
1
1
1
1
1
1
1
1
1
1
1
1
1
1
1
1
1
1
1
1
1
1
1
1
1
1
1
1
1
1
1
1
1
1
1
1
1
1
1
1
1
1
1
1
1
1
1
1
1
1
1
1
1
1
1
1
1
1
1
1
1
1
1
1
1
1
1
1
1
1
1
1
1
1
1
1
1
1
1
1
1
1
1
1
1
1
1
1
1
1
1
1
1
1
1
1
1
1
1
1
1
1
1
1
1
1
1
1
1
1
1
1
1
1
1
1
1
1
1
1
1
1
1
1
1
1
1
1
1
1
1
1
1
1
1
1
1
1
1
1
1
1
1
1
1
1
1
1
1
1
1
1
1
1
1
1
1
1
1
1
1
1
1
1
1
1
1
1
1
1
1
1
1
1
1
1
1
1
1
1
1
1
1
1
1
1
1
1
1
1
1
1
1
1
1
1
1
1
1
1
1
1
1
1
1
1
1
1
1
1
1
1
1
1
1
1
1
1
1
1
1
1
1
1
1
1
1
1
1
1
1
1
1
1
1
1
1
1
1
1
1
1
1
1
1
1
1
1
1
1
1
1
1
1
1
1
1
1
1
1
1
1
1
1
1
1
1
1
1
1
1
1
1
1
1
1
1
1
1
1
1
1
1
1
1
1
1
1
1
1
1
1
1
1
1
1
1
1
1
1
1
1
1
1
1
1
1
1
1
1
1
1
1
1
1
1
1
1
1
1
1
1
1
1
1
1
1
1
1
1
1
1
1
1
1
1
1
1
1
1
1
1
1
1
1
1
1
1
1
1
1
1
1
1
1
1
1
1
1
1
1
1
1
1
1
1
1
1
1
1
1
1
1
1
1
1
1
1
1
1
1
1
1
1
1
1
1
1
1
1
1
1
1
1
1
1
1
1
1
1
1
1
1
1
1
1
1
1
1
1
1
1
1
1
1
1
1
1
1
1
1
1
1
1
1
1
1
1
1
1
1
1
1
1
1
1
1
1
1
1
1
1
1
1
1
1
1
1
1
1
1
1
1
1
1
1
1
1
1
1
1
1
1
1
1
1
1
1
1
1
1
1
1
1
1
1
1
)
;

boundaryField
{
    leftWall
    {
        type            alphaContactAngle;
        contactAngleProperties 
        {
            mercury         
            {
                theta0          90;
            }
            water           
            {
                theta0          90;
            }
            oil             
            {
                theta0          90;
            }
        }
        value           nonuniform List<scalar> 
50
(
5.65472e-13
2.25983e-12
6.03865e-12
2.06887e-11
4.56694e-11
1.37395e-09
6.05554e-09
1.09513e-08
2.91953e-08
6.34302e-08
0.0106683
0.118162
0.125579
0.109043
0.0138124
0.00834338
0.0532512
0.8205
0.999999
0.999999
0.999999
0.999999
0.999999
0.999999
0.999999
1
1
1
1
1
1
1
1
1
1
1
1
1
1
1
1
1
1
1
1
1
1
1
1
1
)
;
    }
    rightWall
    {
        type            alphaContactAngle;
        contactAngleProperties 
        {
            mercury         
            {
                theta0          90;
            }
            water           
            {
                theta0          90;
            }
            oil             
            {
                theta0          90;
            }
        }
        value           nonuniform List<scalar> 
50
(
0.0137888
0.0137736
0.0136878
0.145624
0.415695
0.399901
0.234217
0.0197384
0.00283406
0.0475689
0.0620831
0.025596
2.13335e-25
-1.80403e-09
-1.71031e-10
0.270923
0.952082
0.999684
1
1
0.999999
1
1
1
1
1
1
1
1
1
1
1
1
1
1
1
1
1
1
1
1
1
1
1
1
1
1
1
1
1
)
;
    }
    lowerWall
    {
        type            alphaContactAngle;
        contactAngleProperties 
        {
            mercury         
            {
                theta0          90;
            }
            water           
            {
                theta0          90;
            }
            oil             
            {
                theta0          90;
            }
        }
        value           nonuniform List<scalar> 
62
(
5.65472e-13
5.82625e-13
6.07689e-13
5.48418e-13
4.3829e-13
3.02228e-13
1.77734e-13
8.94913e-14
3.97167e-14
1.92635e-14
1.85574e-14
1.96876e-14
2.76301e-14
5.10452e-14
1.32753e-13
2.26929e-13
3.41187e-13
6.59984e-13
1.73773e-12
2.78223e-12
1.70089e-12
3.57409e-13
3.72368e-13
3.72368e-13
3.9911e-11
1.33112e-09
1.20954e-09
7.59656e-10
7.03985e-10
0.000794915
0.000902066
2.06006e-10
-1.20476e-06
1.58072e-06
1.96904e-06
0.000341962
0.00667801
0.0168791
0.0136264
0.017277
0.0612584
0.0582335
0.0579553
0.000341962
0.000342046
0.0020758
0.0158902
0.0283186
0.0416651
0.0643386
0.0639746
0.0486334
0.0432505
0.0480897
0.0702956
0.0755235
0.0700846
0.055532
0.0171273
0.0138269
0.0137756
0.0137888
)
;
    }
    atmosphere
    {
        type            inletOutlet;
        inletValue      uniform 1;
        value           nonuniform List<scalar> 
46
(
1
1
1
1
1
1
1
1
1
1
1
1
1
1
1
1
1
1
1
1
1
1
1
1
1
1
1
1
1
1
1
1
1
1
1
1
1
1
1
1
1
1
1
1
1
1
)
;
    }
    defaultFaces
    {
        type            empty;
    }
}


// ************************************************************************* //
