/*--------------------------------*- C++ -*----------------------------------*\
  =========                 |
  \\      /  F ield         | OpenFOAM: The Open Source CFD Toolbox
   \\    /   O peration     | Website:  https://openfoam.org
    \\  /    A nd           | Version:  13
     \\/     M anipulation  |
\*---------------------------------------------------------------------------*/
FoamFile
{
    format      ascii;
    class       volScalarField;
    location    "2.45";
    object      alpha.mercury;
}
// * * * * * * * * * * * * * * * * * * * * * * * * * * * * * * * * * * * * * //

dimensions      [];

internalField   nonuniform List<scalar> 
2268
(
1
1
1
1
1
1
1
1
1
1
1
1
1
1
1
1
1
1
1
1
0.999642
0.999433
0.999433
1
1
1
1
1
1
1
1
1
1
1
1
1
1
1
1
1
1
1
0.999996
0.999956
0.999874
0.999654
1
1
1
1
1
1
1
1
1
1
1
1
1
1
1
1
1
1
1
1
1
1
0.999996
1
1
1
1
1
1
1
1
1
1
1
1
1
1
1
1
1
1
1
1
1
1
1
1
1
1
1
1
1
1
1
1
1
1
1
1
1
1
1
1
1
1
1
1
1
1
0.644821
0.690329
0.720712
0.744343
0.770261
0.80167
0.837939
0.876434
0.913827
0.946784
0.972435
0.989326
0.997771
0.999973
1
1
1
1
0.999999
0.999999
1
1
1
0
0.00194303
0.0167053
0.0288032
0.0423271
0.0610964
0.0879551
0.125017
0.17421
0.237129
0.313893
0.402347
0.49719
0.588069
0.659697
0.721103
0.77112
0.811532
0.845651
0.875677
0.903431
0.942806
0.999162
2.24447e-11
5.11925e-28
2.64523e-20
-3.0029e-09
-1.80167e-09
-4.6079e-10
-6.71192e-12
2.60928e-20
4.49689e-20
7.47944e-20
1.07264e-19
1.13267e-19
7.20944e-20
0.00372037
0.023867
0.0447726
0.0661163
0.0876357
0.109516
0.13246
0.158712
0.212504
0.387165
0.850686
0.863053
0.877671
0.877671
0.87767
0.877671
0.817801
0.63579
0.635629
0.640157
0.633919
0.614205
0.613449
0.720496
0.751833
0.751837
0.751742
0.751769
0.751727
0.501875
0.494245
0.527154
0.594033
0.669302
0.814719
0.830069
0.819868
0.8256
0.825671
0.821126
0.736488
0.712296
0.75164
0.751527
0.751861
0.751833
0.751783
0.751772
0.137746
0.135224
0.136541
0.158813
0.27231
0.436729
0.526198
0.631019
0.709376
0.785671
0.774659
0.764617
0.712884
0.710737
0.700866
0.717856
0.700128
0.614144
0.571241
0.131993
0.139994
0.144747
0.144472
0.10967
0.0527455
0.134263
0.185723
0.193575
0.252822
0.340138
0.341386
0.311521
0.298301
0.288651
0.221875
0.212217
0.305529
0.382245
0.0901293
0.0977468
0.098488
0.124579
0.111623
0.0338243
0.0324152
0.0340482
0.0561372
0.0092045
0.0363729
0.178028
0.234281
0.162273
0.08334
0.0313022
0.00833292
0.000192295
0.0477877
0.0137122
0.025031
0.0706151
0.0709227
0.113432
0.0829399
0.0627286
0.0577385
0.0639303
0.00964249
0.000191876
3.75037e-06
0.0150321
0.0248546
0.0038478
-9.08836e-11
-1.07463e-09
-5.29395e-25
3.4851e-22
0.014383
0.00396379
0.00392298
0.0162375
0.0825957
0.0982929
0.0900751
0.0882141
0.0472973
0.00791554
0.000497841
4.89034e-06
2.43288e-14
1.79573e-14
6.22116e-16
-1.43747e-23
5.0748e-13
2.08758e-08
4.06729e-09
0.0330982
0.0165762
0.00441579
0.00537271
0.0361752
0.0918475
0.0902935
0.0324644
0.00181496
0.00149386
0.000389009
6.70783e-05
9.11012e-08
9.01387e-07
1.03182e-07
6.2032e-06
1.10323e-06
2.62967e-09
3.0968e-09
2.73927e-10
2.80772e-10
2.90085e-10
3.02971e-10
3.40253e-10
3.69851e-10
3.85759e-10
3.78072e-10
3.82365e-10
4.561e-10
5.29371e-10
4.01359e-10
3.23416e-10
3.16295e-10
3.12767e-10
2.66379e-09
9.05328e-09
1.6752e-07
-4.07483e-11
3.22883e-11
-7.16799e-11
-1.52746e-08
4.99183e-07
3.25197e-10
3.53896e-10
4.56298e-10
6.5207e-10
8.20797e-10
8.93285e-10
8.38081e-10
7.77711e-10
8.05258e-10
1.14976e-09
1.62664e-09
1.10238e-09
5.36322e-10
4.96944e-10
8.41677e-10
2.88181e-09
1.19623e-08
2.19607e-08
4.43694e-09
2.12587e-09
4.42385e-07
4.02291e-07
6.50789e-07
3.69537e-10
4.54195e-10
6.41468e-10
8.73103e-10
1.08545e-09
1.15363e-09
1.15293e-09
1.14188e-09
1.09006e-09
9.67627e-10
8.21141e-10
6.69794e-10
5.37724e-10
5.21137e-10
5.48021e-10
7.53918e-10
2.00868e-09
3.24433e-09
2.74536e-09
1.99865e-09
2.07986e-08
8.83739e-09
1.08242e-09
3.92344e-10
4.80504e-10
6.22623e-10
6.89576e-10
7.43373e-10
8.09584e-10
8.54872e-10
9.05737e-10
9.81545e-10
1.07523e-09
1.18071e-09
1.22957e-09
1.23128e-09
1.24805e-09
1.37866e-09
1.60847e-09
2.17831e-09
3.18948e-09
3.47604e-09
2.0407e-09
2.28058e-10
1.87999e-10
1.90391e-05
4.2061e-10
4.81062e-10
5.58289e-10
6.16843e-10
7.10602e-10
8.66484e-10
1.02889e-09
1.18137e-09
1.34731e-09
1.5583e-09
1.74624e-09
1.84323e-09
1.88995e-09
1.89646e-09
1.89087e-09
2.29164e-09
3.72075e-09
4.56426e-09
3.00861e-09
1.92643e-09
2.59311e-07
1.98309e-06
1.33861e-05
4.65742e-10
5.47697e-10
6.03816e-10
6.59421e-10
8.2433e-10
1.0552e-09
1.15503e-09
1.20213e-09
1.25394e-09
1.31605e-09
1.36982e-09
1.41297e-09
1.41158e-09
1.36193e-09
1.44568e-09
2.99722e-09
5.199e-09
5.48084e-09
4.85979e-09
2.73725e-09
2.74027e-09
1.5938e-06
1.55488e-05
4.71094e-10
4.77297e-10
4.85471e-10
5.68021e-10
6.59645e-10
6.9896e-10
6.29437e-10
5.68734e-10
5.56579e-10
6.03767e-10
7.12848e-10
8.51855e-10
1.01737e-09
1.1919e-09
1.36939e-09
1.63511e-09
1.96214e-09
2.55571e-09
2.8451e-09
2.45351e-08
4.13452e-07
7.99201e-07
8.77415e-07
4.6647e-10
4.3336e-10
3.50302e-10
3.31768e-10
3.20618e-10
2.72127e-10
1.84001e-10
1.49569e-10
1.4453e-10
1.80426e-10
2.94977e-10
4.50871e-10
6.92793e-10
1.01396e-09
1.29102e-09
1.57638e-09
3.26615e-09
9.31052e-09
1.16824e-08
1.03305e-08
4.13971e-10
4.20054e-10
4.15261e-10
4.66432e-10
4.61837e-10
3.19145e-10
1.77887e-10
1.27815e-10
7.9354e-11
4.32424e-11
3.34105e-11
3.25601e-11
4.94759e-11
9.2732e-11
1.20152e-10
1.31606e-10
1.44122e-10
1.87131e-10
3.08054e-10
4.56355e-10
5.49104e-10
6.61016e-10
5.12589e-10
5.60796e-10
9.34528e-10
1.61827e-09
4.36093e-10
4.52708e-10
3.72299e-10
1.85073e-10
1.05316e-10
5.97649e-11
3.09362e-11
2.32217e-11
2.16562e-11
2.12984e-11
2.15515e-11
2.20442e-11
2.1316e-11
2.11026e-11
2.1242e-11
2.45936e-11
3.04541e-11
4.16671e-11
1.00118e-10
3.4306e-10
6.6239e-10
1.2952e-09
2.49719e-09
3.54084e-10
4.07647e-10
3.42521e-10
1.95388e-10
1.37728e-10
1.06517e-10
8.12018e-11
5.8316e-11
3.82541e-11
2.18816e-11
1.5401e-11
1.2529e-11
1.07987e-11
9.73745e-12
9.31848e-12
1.02908e-11
1.08577e-11
1.64205e-11
8.49587e-11
2.62822e-10
6.21376e-10
1.36696e-09
2.91378e-09
2.66569e-10
3.21701e-10
3.36659e-10
2.43754e-10
2.00762e-10
1.70236e-10
1.61534e-10
1.3334e-10
9.44076e-11
5.8598e-11
3.10441e-11
1.73109e-11
1.10819e-11
8.29495e-12
6.4891e-12
5.33114e-12
5.13472e-12
5.63127e-12
9.37018e-12
1.99065e-11
2.85514e-11
2.25103e-11
2.0063e-12
1.83896e-10
2.77467e-10
3.55137e-10
3.41379e-10
2.73984e-10
2.58648e-10
2.31335e-10
1.99663e-10
1.55681e-10
1.05969e-10
5.96511e-11
2.87505e-11
1.57242e-11
9.5958e-12
6.48015e-12
4.27663e-12
3.3209e-12
2.80391e-12
2.60484e-12
2.63709e-12
2.60628e-12
2.49248e-12
2.33306e-12
1.72532e-10
2.71731e-10
3.7113e-10
3.86685e-10
3.42928e-10
3.2974e-10
2.77929e-10
2.33867e-10
1.93013e-10
1.44489e-10
9.02598e-11
5.08017e-11
2.35918e-11
1.39173e-11
8.46426e-12
4.88396e-12
3.23576e-12
2.27542e-12
1.57609e-12
1.33468e-12
1.44389e-12
1.91396e-12
2.03204e-12
1.66531e-10
2.79016e-10
3.80951e-10
4.00359e-10
3.83727e-10
3.43148e-10
2.89991e-10
2.4288e-10
1.99738e-10
1.58282e-10
1.03178e-10
6.29918e-11
3.17456e-11
1.72865e-11
1.09035e-11
6.46506e-12
3.8017e-12
2.37968e-12
1.47454e-12
1.04116e-12
8.39096e-13
8.13557e-13
1.11551e-12
1.51652e-10
2.74352e-10
3.76352e-10
3.97618e-10
3.75e-10
3.30234e-10
2.80532e-10
2.24009e-10
1.85338e-10
1.45018e-10
1.06255e-10
6.57364e-11
3.53519e-11
2.13203e-11
1.31744e-11
7.88893e-12
4.74112e-12
2.78798e-12
1.61993e-12
1.04867e-12
7.77354e-13
5.80177e-13
5.18585e-13
1.25815e-10
2.55209e-10
3.45641e-10
3.53768e-10
3.27359e-10
2.85152e-10
2.30229e-10
1.82684e-10
1.50889e-10
1.15786e-10
8.51008e-11
5.83305e-11
3.46e-11
2.08377e-11
1.44116e-11
8.33057e-12
4.88544e-12
3.07089e-12
1.79325e-12
1.05755e-12
8.06527e-13
5.4597e-13
4.00812e-13
1.04531e-10
2.19045e-10
2.85152e-10
2.72645e-10
2.49088e-10
2.0238e-10
1.53609e-10
1.36039e-10
1.08407e-10
8.60477e-11
6.45465e-11
4.42329e-11
3.07894e-11
1.95874e-11
1.24753e-11
7.7124e-12
4.90631e-12
2.96212e-12
1.76519e-12
1.07573e-12
8.00876e-13
5.43728e-13
3.82059e-13
8.83941e-11
1.74055e-10
2.22736e-10
2.10589e-10
1.78627e-10
1.59247e-10
1.19871e-10
9.42795e-11
7.50958e-11
5.91648e-11
4.26173e-11
2.88039e-11
2.24569e-11
1.48687e-11
9.36764e-12
6.38121e-12
4.27636e-12
2.59747e-12
1.57221e-12
1.02152e-12
7.32762e-13
4.99812e-13
3.57206e-13
6.81629e-11
1.2914e-10
1.63043e-10
1.5521e-10
1.35381e-10
1.15063e-10
8.8672e-11
6.8532e-11
5.25865e-11
3.44771e-11
2.33168e-11
1.69415e-11
1.32239e-11
9.46396e-12
6.31279e-12
4.64031e-12
3.18128e-12
2.15388e-12
1.3534e-12
8.85563e-13
6.43805e-13
4.47221e-13
3.11551e-13
5.1551e-11
9.07965e-11
1.1111e-10
1.04653e-10
9.17505e-11
7.57919e-11
5.9703e-11
4.62028e-11
3.41294e-11
2.1047e-11
1.27862e-11
9.65062e-12
7.40522e-12
5.4557e-12
4.07522e-12
3.07964e-12
2.18461e-12
1.5477e-12
1.0978e-12
7.50299e-13
5.44549e-13
3.73853e-13
2.621e-13
3.56882e-11
6.15686e-11
7.18436e-11
6.70347e-11
5.87319e-11
4.76088e-11
3.80741e-11
2.96627e-11
2.10933e-11
1.2741e-11
8.25917e-12
5.51929e-12
4.26275e-12
3.29314e-12
2.51161e-12
1.91716e-12
1.4025e-12
1.05462e-12
7.91611e-13
5.76466e-13
4.09284e-13
2.88921e-13
2.04579e-13
2.47544e-11
4.0862e-11
4.52536e-11
4.21672e-11
3.61639e-11
2.96121e-11
2.37741e-11
1.8328e-11
1.32847e-11
8.23266e-12
4.92922e-12
3.60979e-12
2.63109e-12
1.96623e-12
1.50629e-12
1.14111e-12
8.53785e-13
6.73399e-13
5.20883e-13
3.89819e-13
2.81863e-13
2.00987e-13
1.45634e-13
1.63775e-11
2.72989e-11
2.85769e-11
2.60749e-11
2.24145e-11
1.83809e-11
1.4804e-11
1.12923e-11
8.09369e-12
5.35115e-12
3.48358e-12
2.36115e-12
1.63614e-12
1.1716e-12
8.5822e-13
6.3495e-13
4.81575e-13
3.93008e-13
3.06817e-13
2.35457e-13
1.7459e-13
1.24158e-13
9.00009e-14
1.09185e-11
1.72697e-11
1.76659e-11
1.58318e-11
1.33071e-11
1.11208e-11
8.92789e-12
6.85702e-12
5.02239e-12
3.4837e-12
2.32004e-12
1.53607e-12
1.018e-12
6.8694e-13
4.69695e-13
3.39236e-13
2.60972e-13
2.05973e-13
1.62073e-13
1.25287e-13
9.11171e-14
6.68396e-14
4.97051e-14
7.2125e-12
1.03916e-11
1.03728e-11
8.97334e-12
7.7754e-12
6.47414e-12
5.15698e-12
4.00253e-12
3.03477e-12
2.1956e-12
1.50929e-12
9.71245e-13
6.1828e-13
3.86585e-13
2.48755e-13
1.72147e-13
1.2541e-13
9.72496e-14
7.4305e-14
5.67201e-14
4.25604e-14
3.13021e-14
2.2565e-14
4.57876e-12
6.57402e-12
6.05957e-12
4.93047e-12
4.0795e-12
3.35072e-12
2.76289e-12
2.16869e-12
1.66981e-12
1.25296e-12
8.9151e-13
5.8731e-13
3.71258e-13
2.22456e-13
1.33621e-13
8.41484e-14
5.67007e-14
4.08688e-14
2.99177e-14
2.2671e-14
1.6658e-14
1.21823e-14
8.9985e-15
2.75648e-12
3.75204e-12
3.29577e-12
2.68328e-12
2.09393e-12
1.6454e-12
1.27372e-12
1.01914e-12
8.36756e-13
6.58582e-13
4.82094e-13
3.23878e-13
2.02054e-13
1.18645e-13
6.96817e-14
4.08014e-14
2.49487e-14
1.65608e-14
1.10632e-14
7.95915e-15
5.87577e-15
4.21556e-15
3.0255e-15
1.7025e-12
2.19187e-12
1.79679e-12
1.34831e-12
9.92565e-13
7.48001e-13
5.71115e-13
4.49756e-13
3.5839e-13
2.89563e-13
2.19624e-13
1.54818e-13
9.79908e-14
5.89138e-14
3.38163e-14
1.8756e-14
1.04706e-14
6.15934e-15
3.75787e-15
2.58859e-15
1.80396e-15
1.18613e-15
8.56737e-16
9.32638e-13
1.11352e-12
8.85448e-13
6.1994e-13
4.28832e-13
3.10207e-13
2.32507e-13
1.75391e-13
1.4155e-13
1.16252e-13
8.92691e-14
6.41719e-14
4.16982e-14
2.54048e-14
1.44112e-14
7.75344e-15
4.0445e-15
2.21262e-15
1.17457e-15
7.5301e-16
4.86743e-16
3.1989e-16
2.19752e-16
5.13864e-13
5.52563e-13
3.97621e-13
2.59066e-13
1.67793e-13
1.15994e-13
8.20888e-14
6.13978e-14
4.88884e-14
4.00929e-14
3.17857e-14
2.29738e-14
1.52387e-14
9.36718e-15
5.26136e-15
2.79873e-15
1.41768e-15
7.01465e-16
3.53428e-16
2.00162e-16
1.19375e-16
7.25807e-17
4.88861e-17
2.37593e-13
2.4549e-13
1.61888e-13
9.82338e-14
5.97322e-14
3.92937e-14
2.66708e-14
1.98142e-14
1.52069e-14
1.22907e-14
9.83408e-15
7.26573e-15
4.83413e-15
2.89853e-15
1.65356e-15
8.72244e-16
4.24275e-16
2.02644e-16
8.83735e-17
4.78195e-17
2.66105e-17
1.5281e-17
9.42077e-18
1.08803e-13
9.39222e-14
6.02154e-14
3.43039e-14
1.88813e-14
1.15038e-14
7.76924e-15
5.49153e-15
4.17298e-15
3.35824e-15
2.71607e-15
2.0318e-15
1.34984e-15
8.02736e-16
4.44236e-16
2.25459e-16
1.05286e-16
4.7779e-17
2.02807e-17
9.86016e-18
5.07003e-18
2.75043e-18
1.5889e-18
3.93402e-14
3.17345e-14
1.80213e-14
9.58891e-15
5.07081e-15
2.97606e-15
1.98559e-15
1.44397e-15
1.08543e-15
8.73864e-16
7.01127e-16
5.11288e-16
3.29106e-16
1.88655e-16
1.00209e-16
5.0707e-17
2.21035e-17
9.40834e-18
3.80072e-18
1.71112e-18
8.20826e-19
4.19655e-19
2.2317e-19
1.29736e-14
9.3607e-15
5.00083e-15
2.53414e-15
1.29459e-15
7.39348e-16
4.81097e-16
3.43048e-16
2.54183e-16
1.96793e-16
1.55745e-16
1.11732e-16
6.9753e-17
3.94425e-17
2.03755e-17
9.50583e-18
4.0874e-18
1.5847e-18
6.1676e-19
2.56149e-19
1.16408e-19
5.6068e-20
2.75255e-20
3.45708e-15
2.42964e-15
1.24342e-15
5.95327e-16
2.92563e-16
1.62701e-16
1.0481e-16
6.96739e-17
5.04739e-17
4.01514e-17
3.10425e-17
2.19884e-17
1.34517e-17
7.61378e-18
3.81249e-18
1.69955e-18
6.72038e-19
2.33395e-19
8.76645e-20
3.3948e-20
1.42695e-20
6.32418e-21
2.78605e-21
7.21001e-16
4.92839e-16
2.38807e-16
1.172e-16
5.73516e-17
3.13406e-17
1.85029e-17
1.3067e-17
9.63718e-18
7.53549e-18
5.88379e-18
4.18413e-18
2.5888e-18
1.3775e-18
6.47404e-19
2.68323e-19
9.67757e-20
3.22037e-20
1.09323e-20
3.91344e-21
1.53387e-21
6.02134e-22
2.38751e-22
1.4421e-16
7.62022e-17
3.55248e-17
1.84999e-17
9.19353e-18
4.66075e-18
3.18782e-18
2.37716e-18
1.83858e-18
1.45138e-18
1.12065e-18
7.54723e-19
4.40743e-19
2.22795e-19
9.82098e-20
3.7196e-20
1.23717e-20
3.76826e-21
1.198e-21
4.06622e-22
1.4191e-22
4.91708e-23
1.96204e-23
1.52917e-17
8.76745e-18
5.07243e-18
2.42975e-18
1.3827e-18
7.94901e-19
5.1274e-19
3.71867e-19
2.95737e-19
2.37954e-19
1.83907e-19
1.25814e-19
7.24009e-20
3.42969e-20
1.37453e-20
4.71454e-21
1.43781e-21
4.14626e-22
1.21102e-22
3.70597e-23
1.15311e-23
3.50301e-24
1.04551e-24
1.05622e-18
7.00212e-19
5.09017e-19
3.09249e-19
1.61736e-19
1.01565e-19
7.68438e-20
6.21806e-20
5.07545e-20
4.13102e-20
3.1281e-20
2.08843e-20
1.12087e-20
4.90912e-21
1.79678e-21
5.64435e-22
1.59877e-22
4.17739e-23
1.08473e-23
2.88302e-24
7.60334e-25
2.00267e-25
1.44321e-26
1.00877e-20
1.95151e-20
3.4484e-20
3.06451e-20
1.97736e-20
1.30696e-20
9.96659e-21
8.4575e-21
7.24551e-21
6.17421e-21
4.928e-21
3.05684e-21
1.65769e-21
6.78066e-22
2.27851e-22
6.51902e-23
1.62835e-23
3.93092e-24
9.46066e-25
2.16443e-25
5.16705e-26
3.22801e-27
1.70668e-28
5.78016e-28
1.15851e-22
1.84586e-21
3.02472e-21
2.29412e-21
1.63259e-21
1.30473e-21
1.14676e-21
1.07606e-21
9.71891e-22
7.39437e-22
4.60838e-22
2.34299e-22
9.10979e-23
2.85269e-23
7.49859e-24
1.70666e-24
3.70865e-25
7.93772e-26
1.5519e-26
2.15906e-27
4.58011e-29
5.1199e-29
1.26076e-05
1.29906e-05
6.33845e-06
2.45198e-06
1.42718e-06
1.19239e-07
-1.05941e-09
8.46041e-07
1.27981e-09
0.0005462
0.00100359
0.000973302
0.000238629
0.000243775
0.000494516
0.000807764
9.85337e-05
0.00023211
0.000223276
0.000202064
1.96022e-05
1.83289e-05
3.79773e-07
1.31578e-09
3.45299e-10
3.41142e-10
3.45299e-10
1.30596e-09
4.97627e-10
5.58849e-10
1.05344e-09
3.17772e-09
2.15208e-09
2.70868e-09
5.27113e-09
8.40865e-09
3.58387e-09
3.88447e-09
4.04093e-09
4.02126e-09
3.80963e-09
4.06655e-09
3.86859e-09
4.80836e-09
1.90601e-12
1.91963e-12
2.11072e-11
1.06047e-10
2.12186e-12
1.85621e-12
1.57477e-12
1.26814e-12
1.52252e-12
1.45516e-12
1.51182e-12
1.69702e-12
1.22278e-12
1.29087e-12
1.50857e-12
2.00495e-12
6.71371e-13
9.67165e-13
1.41646e-12
2.50912e-12
3.15253e-13
2.96004e-13
3.58409e-13
8.54646e-13
2.76702e-13
2.30075e-13
1.9169e-13
2.85747e-13
2.69369e-13
2.18266e-13
1.88381e-13
1.59854e-13
2.46412e-13
2.11435e-13
1.74497e-13
1.57323e-13
2.14102e-13
1.72755e-13
1.52839e-13
1.37175e-13
1.68939e-13
1.43054e-13
1.19142e-13
1.05037e-13
1.21813e-13
1.01169e-13
8.85331e-14
7.68489e-14
7.75337e-14
6.64351e-14
5.59782e-14
4.95123e-14
4.26844e-14
3.50795e-14
3.06754e-14
2.71282e-14
1.97835e-14
1.70778e-14
1.39674e-14
1.28476e-14
7.82672e-15
6.40297e-15
5.59709e-15
4.66256e-15
2.52106e-15
2.21269e-15
1.80932e-15
1.60238e-15
7.56334e-16
5.97045e-16
5.17166e-16
4.24552e-16
1.77965e-16
1.4884e-16
1.21301e-16
1.05462e-16
3.82062e-17
3.19013e-17
2.72112e-17
2.14923e-17
7.45304e-18
6.06683e-18
4.90367e-18
3.75031e-18
1.22774e-18
9.37499e-19
7.15766e-19
5.3192e-19
1.60465e-19
1.23464e-19
9.28121e-20
6.46359e-20
1.93645e-20
1.35735e-20
9.50899e-21
6.11954e-21
1.83122e-21
1.21368e-21
7.9438e-22
5.01612e-22
1.43218e-22
9.33654e-23
4.89002e-23
1.17198e-23
5.68873e-24
1.80978e-24
5.11744e-25
6.19269e-26
5.51655e-26
8.47322e-27
3.20148e-27
4.2794e-27
2.07725e-28
5.20498e-28
1.6218e-27
5.1246e-27
2.06863e-28
5.47455e-28
1.91436e-27
6.12166e-27
1.3881e-28
4.75824e-28
1.58945e-27
4.70957e-27
0.0327883
0.0269656
0.000871801
0.00659811
0.0368252
0.0378208
0.00711632
4.76142e-05
5.37587e-05
0.000100386
0.00013106
0.000117932
6.33761e-05
2.02958e-05
7.75934e-06
2.54149e-05
0.000110055
0.000191152
2.17872e-09
0.00900714
0.00413869
0.000751466
0.00768986
0.0213755
0.00342813
0.000189715
0.000161072
4.97351e-05
2.63747e-05
4.84854e-05
6.63125e-05
6.2338e-05
2.66383e-05
1.70057e-05
8.25585e-05
0.000455451
0.00438811
0.00432944
0.000491051
0.000438177
0.000745835
0.00235229
0.000487275
3.98845e-05
0.000189186
0.000201074
6.97528e-05
2.6928e-06
2.46011e-06
7.07575e-06
5.58271e-06
5.57168e-06
4.39426e-05
0.000106884
0.000386435
0.00641164
0.00684444
0.00052169
3.9932e-05
5.8564e-05
9.15689e-07
8.6109e-07
9.92346e-06
0.000123843
8.47011e-05
2.60564e-05
4.00387e-06
1.40428e-06
1.16857e-06
2.58796e-07
8.53856e-06
6.93351e-05
7.43192e-05
0.000106845
0.0019987
0.00636296
6.93792e-05
7.62064e-06
1.10879e-06
2.3602e-06
2.27552e-06
2.10012e-07
1.61189e-06
-2.61241e-13
1.40874e-06
2.87504e-06
1.17722e-06
1.58556e-07
1.1554e-07
3.35617e-06
1.44482e-05
1.3882e-05
2.96494e-05
0.000112953
0.000143776
1.32583e-09
4.54144e-08
3.9716e-07
1.61394e-06
1.30479e-06
1.73103e-07
1.29472e-09
9.10284e-13
2.7748e-13
9.56901e-09
9.45521e-09
5.38642e-08
5.91355e-08
6.51904e-08
7.73917e-08
9.0737e-08
3.06071e-07
3.40691e-07
4.65274e-05
1.30932e-08
9.87359e-08
1.20624e-07
2.27659e-07
1.92715e-07
6.7225e-08
1.73663e-08
3.68971e-09
6.20744e-11
1.47736e-09
2.65257e-08
5.4094e-07
1.13564e-05
7.17284e-05
0.000384961
0.00126316
0.00151622
0.00098025
0.000245189
4.9387e-08
1.47726e-07
1.48468e-07
1.23745e-07
3.06295e-08
1.19902e-08
1.11564e-08
1.34055e-07
3.24261e-08
1.66898e-09
1.82993e-09
2.01357e-09
2.21782e-09
0.00148517
0.00273076
0.00273009
0.00273075
0.00246175
0.00133634
1.28447e-08
1.86803e-08
2.92329e-08
3.69345e-08
6.138e-08
1.27447e-07
3.30902e-07
1.95071e-07
5.86491e-06
2.17792e-05
1.14128e-06
1.53594e-05
0.000404655
0.000857702
0.00103393
0.00114999
0.00125706
0.00114193
0.00110025
5.62556e-09
8.10919e-09
2.38308e-08
7.64497e-08
1.91309e-07
1.08523e-06
3.57521e-06
8.04199e-06
2.91974e-05
8.51683e-05
0.000107092
9.65689e-05
3.329e-05
8.30256e-07
8.87198e-09
5.29197e-07
5.42268e-07
1.31287e-06
8.86385e-05
1.44357e-08
2.53768e-08
3.01095e-08
2.19251e-08
2.55934e-08
1.20536e-06
3.65728e-06
8.82233e-06
9.47588e-06
7.1049e-06
6.10188e-07
4.22904e-07
5.79027e-08
9.07331e-09
7.96758e-09
5.32894e-09
2.65209e-08
8.4039e-08
4.70111e-09
5.05675e-10
1.8061e-09
4.41547e-09
1.43315e-09
2.58092e-10
2.68365e-12
3.83225e-13
9.72571e-13
-5.00608e-11
1.74206e-11
3.76792e-08
7.77275e-08
6.99249e-08
1.45265e-08
4.84959e-09
3.00688e-08
4.70452e-08
4.51006e-08
6.38284e-09
1.26261e-12
1.26814e-12
1.57413e-12
1.53935e-12
1.26115e-11
1.79585e-10
5.81111e-10
4.52072e-09
1.88277e-08
3.6685e-08
7.68121e-08
7.63538e-08
3.57504e-08
4.21125e-09
2.46424e-09
1.0613e-08
1.43284e-08
4.19717e-10
2.38913e-09
2.06512e-12
3.52964e-12
1.17792e-11
9.31234e-11
3.02106e-10
7.40348e-10
1.46158e-09
4.31421e-09
1.23297e-08
2.18882e-08
3.20283e-08
1.49757e-08
6.4861e-09
2.61821e-09
1.29578e-09
2.78719e-09
3.23987e-09
5.0766e-10
3.40136e-10
2.95011e-12
5.98531e-12
1.73977e-11
1.02932e-10
4.3698e-10
9.17962e-10
1.64177e-09
2.9426e-09
4.09289e-09
3.57255e-09
2.15425e-09
2.24959e-09
9.92525e-10
9.26045e-10
6.43283e-10
6.31109e-10
4.94711e-10
1.46658e-10
5.3175e-11
5.03422e-12
1.29656e-11
3.87791e-11
9.08377e-11
1.88452e-10
3.40798e-10
5.81308e-10
9.94578e-10
2.66303e-09
3.89788e-09
4.16022e-09
3.50105e-09
1.51647e-09
1.08572e-09
5.56305e-10
1.99031e-10
8.53981e-11
2.75116e-11
1.45269e-11
4.96394e-12
1.2481e-11
3.34154e-11
7.56981e-11
1.5828e-10
2.86812e-10
4.52792e-10
6.19328e-10
8.08574e-10
1.60687e-09
2.27214e-09
2.45426e-09
1.72284e-09
9.48402e-10
4.19506e-10
1.10112e-10
2.32609e-11
6.5595e-12
4.36961e-12
2.86822e-12
1.10848e-11
2.61043e-11
5.42651e-11
1.06343e-10
1.84072e-10
3.03535e-10
4.45806e-10
6.23122e-10
6.91386e-10
6.87824e-10
6.6201e-10
5.86175e-10
3.85495e-10
1.50437e-10
4.12186e-11
7.27964e-12
2.26961e-12
1.20111e-12
8.78127e-13
6.19661e-12
1.8522e-11
3.51809e-11
5.46652e-11
9.09398e-11
1.72416e-10
2.7399e-10
3.3191e-10
3.68271e-10
3.3801e-10
2.53521e-10
1.68991e-10
9.34641e-11
3.01607e-11
6.08744e-12
1.11475e-12
5.72363e-13
2.52416e-13
2.5784e-13
1.60676e-12
7.60209e-12
1.80414e-11
3.35473e-11
5.45643e-11
7.84806e-11
1.13368e-10
1.37437e-10
1.52639e-10
1.50753e-10
1.24273e-10
8.04476e-11
4.73451e-11
1.29554e-11
1.41122e-12
3.63556e-13
1.26974e-13
3.95118e-14
1.3783e-13
4.37126e-13
1.90813e-12
6.07137e-12
1.23322e-11
2.04992e-11
2.99425e-11
3.89041e-11
4.7868e-11
5.2705e-11
5.10991e-11
4.33863e-11
3.2218e-11
1.67099e-11
4.41731e-12
4.94069e-13
8.83542e-14
2.15493e-14
4.52834e-15
9.27127e-14
1.50397e-13
4.65599e-13
1.34181e-12
2.92954e-12
5.40123e-12
8.08768e-12
1.08996e-11
1.3031e-11
1.40206e-11
1.3381e-11
1.14232e-11
7.50188e-12
3.02051e-12
5.2525e-13
7.41967e-14
1.53384e-14
3.58245e-15
4.27405e-16
6.2856e-14
6.85914e-14
1.19292e-13
2.54249e-13
5.59808e-13
1.09177e-12
1.79482e-12
2.46201e-12
2.91229e-12
3.03229e-12
2.95156e-12
2.63398e-12
1.82064e-12
7.30837e-13
1.16416e-13
2.28742e-14
2.46775e-15
4.33737e-16
7.29624e-17
3.85813e-14
3.46654e-14
3.87665e-14
5.48541e-14
8.52223e-14
1.43664e-13
2.44234e-13
3.84121e-13
4.65245e-13
4.97464e-13
4.8732e-13
4.36158e-13
3.1097e-13
1.28758e-13
2.32649e-14
1.54764e-15
3.0079e-16
9.71231e-17
2.97096e-17
2.04526e-14
1.651e-14
1.46088e-14
1.38799e-14
1.48711e-14
1.87996e-14
2.97142e-14
4.6982e-14
5.92587e-14
6.17176e-14
6.44993e-14
6.08245e-14
4.66666e-14
2.10897e-14
4.49734e-15
2.90564e-16
5.85583e-17
4.4036e-17
2.31779e-17
9.06801e-15
6.90953e-15
5.37172e-15
4.21116e-15
3.51224e-15
3.17163e-15
3.35812e-15
4.34297e-15
5.03363e-15
5.94945e-15
6.5336e-15
6.54005e-15
5.54515e-15
2.80956e-15
4.89489e-16
3.41358e-17
2.07071e-17
3.04275e-17
1.51337e-17
3.41659e-15
2.46873e-15
1.80083e-15
1.29291e-15
9.14504e-16
6.48037e-16
4.80999e-16
3.82464e-16
3.96731e-16
4.48261e-16
5.37053e-16
5.78063e-16
5.3429e-16
3.07302e-16
4.40964e-17
7.82924e-18
1.12487e-17
1.81693e-17
1.22883e-17
1.06392e-15
7.30252e-16
5.11614e-16
3.4821e-16
2.36592e-16
1.63947e-16
8.41334e-17
4.28766e-17
3.50622e-17
3.65993e-17
4.17389e-17
4.60114e-17
2.79432e-17
1.15481e-17
3.5405e-18
3.57234e-18
6.09536e-18
1.27881e-17
7.77567e-18
2.80192e-16
1.85314e-16
1.17234e-16
7.41526e-17
5.1104e-17
2.69353e-17
1.23447e-17
7.11651e-18
4.54695e-18
3.23935e-18
3.12256e-18
1.99865e-18
1.10133e-18
5.96672e-19
8.23229e-19
1.5642e-18
3.39804e-18
7.79564e-18
6.00136e-18
6.44431e-17
3.98376e-17
2.31143e-17
1.47911e-17
8.2029e-18
2.66414e-18
1.00911e-18
6.96121e-19
5.26189e-19
3.64506e-19
1.68949e-19
1.02638e-19
1.04991e-19
1.67882e-19
3.71887e-19
8.86626e-19
2.09728e-18
6.04024e-18
3.31379e-18
1.25734e-17
6.7467e-18
3.91379e-18
2.31029e-18
7.20609e-19
1.25912e-19
4.37383e-20
3.82855e-20
3.7272e-20
2.86633e-20
2.40784e-20
3.62667e-20
6.98831e-20
1.41611e-19
2.87973e-19
6.53235e-19
1.64963e-18
3.5118e-18
2.40989e-18
2.02498e-18
1.05577e-18
6.1244e-19
2.05882e-19
3.2483e-20
2.52387e-21
1.61754e-21
2.28994e-21
3.87738e-21
7.42232e-21
1.58793e-20
3.38599e-20
7.04445e-20
1.38567e-19
2.58107e-19
5.64907e-19
1.30641e-18
2.59116e-18
1.16458e-18
2.66032e-19
1.50181e-19
4.93616e-20
7.80949e-21
4.65096e-22
2.36466e-22
4.4688e-22
1.12626e-21
2.81744e-21
6.87805e-21
1.60983e-20
3.52378e-20
7.18162e-20
1.34841e-19
2.37171e-19
4.91712e-19
1.04299e-18
1.37911e-18
8.10858e-19
3.06218e-20
1.40446e-20
2.17884e-21
1.08025e-22
6.80843e-23
1.4534e-22
3.9991e-22
1.08594e-21
2.80198e-21
6.94948e-21
1.64032e-20
3.58e-20
7.11905e-20
1.25836e-19
2.19325e-19
4.40483e-19
7.43211e-19
9.84244e-19
3.4364e-19
2.94319e-21
6.07091e-22
3.91225e-23
1.84072e-23
4.36721e-23
1.31512e-22
3.83096e-22
1.05714e-21
2.74141e-21
6.69021e-21
1.55985e-20
3.3713e-20
6.50967e-20
1.17073e-19
2.07454e-19
3.58143e-19
5.52887e-19
4.74238e-19
2.24009e-19
1.4944e-22
8.251e-24
4.01475e-24
1.17586e-23
3.89195e-23
1.24132e-22
3.63212e-22
9.90649e-22
2.60149e-21
6.37537e-21
1.48565e-20
3.16803e-20
6.09181e-20
1.07506e-19
1.75839e-19
2.68771e-19
3.6013e-19
3.18001e-19
8.20195e-20
9.41567e-25
6.92017e-25
2.63878e-24
1.03699e-23
3.48031e-23
1.10532e-22
3.1974e-22
8.76736e-22
2.25592e-21
5.49987e-21
1.2683e-20
2.6759e-20
5.07565e-20
8.90486e-20
1.38913e-19
1.98879e-19
2.29209e-19
1.38678e-19
4.74059e-20
8.85124e-26
5.26483e-25
2.31301e-24
8.78315e-24
2.92536e-23
8.96615e-23
2.59642e-22
6.9653e-22
1.77935e-21
4.31881e-21
9.82986e-21
2.06635e-20
3.89393e-20
6.59025e-20
1.00623e-19
1.27473e-19
1.17474e-19
7.81849e-20
1.80513e-20
8.17047e-26
4.42381e-25
1.85438e-24
6.62217e-24
2.14918e-23
6.4604e-23
1.81845e-22
4.84818e-22
1.22673e-21
2.95922e-21
6.72263e-21
1.3903e-20
2.60239e-20
4.40976e-20
6.02446e-20
7.74031e-20
6.32809e-20
2.81996e-20
1.04515e-20
7.01624e-26
3.29669e-25
1.23806e-24
4.07071e-24
1.25877e-23
3.59589e-23
1.00644e-22
2.71568e-22
6.9403e-22
1.70685e-21
3.92485e-21
8.21432e-21
1.54369e-20
2.58365e-20
3.34505e-20
4.01212e-20
2.51926e-20
1.3517e-20
5.2852e-21
4.64092e-26
1.8359e-25
6.18053e-25
1.88037e-24
5.58348e-24
1.62158e-23
4.54585e-23
1.23873e-22
3.25013e-22
8.13635e-22
1.89702e-21
4.01022e-21
7.5147e-21
1.26166e-20
1.60809e-20
1.7533e-20
9.06204e-21
5.55499e-21
1.94527e-21
1.69073e-26
5.46197e-26
1.61067e-25
4.5152e-25
1.39197e-24
4.37191e-24
1.30367e-23
3.55874e-23
9.57577e-23
2.44677e-22
5.87176e-22
1.30014e-21
2.45187e-21
4.04198e-21
4.85667e-21
4.82853e-21
2.5276e-21
1.18155e-21
1.36578e-22
)
;

boundaryField
{
    leftWall
    {
        type            alphaContactAngle;
        contactAngleProperties 
        {
            air             
            {
                theta0          90;
            }
            water           
            {
                theta0          90;
            }
            oil             
            {
                theta0          90;
            }
        }
        value           nonuniform List<scalar> 
50
(
1
1
1
1
1
0.644821
0
2.24447e-11
2.73927e-10
3.25197e-10
3.69537e-10
3.92344e-10
4.2061e-10
4.65742e-10
4.71094e-10
4.6647e-10
4.66432e-10
4.36093e-10
3.54084e-10
2.66569e-10
1.83896e-10
1.72532e-10
1.66531e-10
1.51652e-10
1.25815e-10
1.04531e-10
8.83941e-11
6.81629e-11
5.1551e-11
3.56882e-11
2.47544e-11
1.63775e-11
1.09185e-11
7.2125e-12
4.57876e-12
2.75648e-12
1.7025e-12
9.32638e-13
5.13864e-13
2.37593e-13
1.08803e-13
3.93402e-14
1.29736e-14
3.45708e-15
7.21001e-16
1.4421e-16
1.52917e-17
1.05622e-18
1.00877e-20
5.78016e-28
)
;
    }
    rightWall
    {
        type            alphaContactAngle;
        contactAngleProperties 
        {
            air             
            {
                theta0          90;
            }
            water           
            {
                theta0          90;
            }
            oil             
            {
                theta0          90;
            }
        }
        value           nonuniform List<scalar> 
50
(
0.751727
0.751772
0.571241
0.382245
0.0477877
3.4851e-22
4.06729e-09
3.0968e-09
2.17872e-09
0.00432944
0.00684444
0.00636296
0.000143776
4.65274e-05
0.000245189
0.00133634
0.00110025
8.86385e-05
4.70111e-09
6.38284e-09
2.38913e-09
3.40136e-10
5.3175e-11
1.45269e-11
4.36961e-12
1.20111e-12
2.52416e-13
3.95118e-14
4.52834e-15
4.27405e-16
7.29624e-17
2.97096e-17
2.31779e-17
1.51337e-17
1.22883e-17
7.77567e-18
6.00136e-18
3.31379e-18
2.40989e-18
1.16458e-18
8.10858e-19
3.4364e-19
2.24009e-19
8.20195e-20
4.74059e-20
1.80513e-20
1.04515e-20
5.2852e-21
1.94527e-21
1.36578e-22
)
;
    }
    lowerWall
    {
        type            alphaContactAngle;
        contactAngleProperties 
        {
            air             
            {
                theta0          90;
            }
            water           
            {
                theta0          90;
            }
            oil             
            {
                theta0          90;
            }
        }
        value           nonuniform List<scalar> 
62
(
1
1
1
1
1
1
1
1
1
1
1
1
1
1
1
1
1
1
1
1
0.999642
0.999433
0.999433
0.999433
0.999654
0.999996
1
1
1
0.999162
0.387165
1.26076e-05
1.29906e-05
6.33845e-06
2.45198e-06
0.850686
0.501875
0.137746
0.131993
0.0901293
0.0137122
0.014383
0.0330982
0.850686
0.863053
0.877671
0.877671
0.87767
0.877671
0.817801
0.63579
0.635629
0.640157
0.633919
0.614205
0.613449
0.720496
0.751833
0.751837
0.751742
0.751769
0.751727
)
;
    }
    atmosphere
    {
        type            inletOutlet;
        inletValue      uniform 0;
        value           nonuniform List<scalar> 
46
(
0
0
0
3.02472e-21
2.29412e-21
1.63259e-21
1.30473e-21
1.14676e-21
1.07606e-21
9.71892e-22
7.39437e-22
4.60838e-22
2.34299e-22
9.1098e-23
2.85269e-23
0
0
0
0
0
0
0
0
0
0
0
0
0
0
0
0
1.39197e-24
4.37191e-24
1.30367e-23
3.55874e-23
9.57578e-23
2.44677e-22
5.87176e-22
1.30014e-21
2.45187e-21
4.04198e-21
4.85667e-21
0
0
0
0
)
;
    }
    defaultFaces
    {
        type            empty;
    }
}


// ************************************************************************* //
