/*--------------------------------*- C++ -*----------------------------------*\
  =========                 |
  \\      /  F ield         | OpenFOAM: The Open Source CFD Toolbox
   \\    /   O peration     | Website:  https://openfoam.org
    \\  /    A nd           | Version:  13
     \\/     M anipulation  |
\*---------------------------------------------------------------------------*/
FoamFile
{
    format      ascii;
    class       volScalarField;
    location    "2.45";
    object      alpha.water;
}
// * * * * * * * * * * * * * * * * * * * * * * * * * * * * * * * * * * * * * //

dimensions      [];

internalField   nonuniform List<scalar> 
2268
(
9.95105e-11
1.20015e-10
1.35698e-10
1.42168e-10
1.48905e-10
1.56584e-10
1.64616e-10
1.71203e-10
1.76e-10
1.79485e-10
1.84549e-10
1.9166e-10
2.06183e-10
2.30296e-10
2.85343e-10
3.54291e-10
4.52681e-10
5.61597e-10
8.69743e-10
1.60062e-09
2.55932e-09
2.77878e-09
2.77882e-09
2.35363e-10
2.99715e-10
2.87055e-10
2.73174e-10
2.8183e-10
3.04281e-10
3.36357e-10
3.78881e-10
4.25457e-10
4.68861e-10
5.0207e-10
5.24562e-10
5.39052e-10
5.51913e-10
5.72196e-10
5.91222e-10
6.37123e-10
7.21149e-10
9.84169e-10
1.47878e-09
2.29174e-09
2.65431e-09
2.58617e-09
3.09929e-10
4.11188e-10
3.63827e-10
3.16138e-10
3.20138e-10
3.44137e-10
3.88061e-10
4.59981e-10
5.57168e-10
6.70152e-10
7.91708e-10
9.37091e-10
1.03018e-09
1.05185e-09
1.02165e-09
8.96033e-10
9.12785e-10
1.03824e-09
1.29039e-09
1.62767e-09
2.04367e-09
2.54916e-09
1.76721e-09
2.19718e-10
3.06013e-10
2.49843e-10
2.00712e-10
2.01752e-10
2.13343e-10
2.29335e-10
2.81797e-10
3.70279e-10
5.05856e-10
6.89201e-10
9.30656e-10
1.22298e-09
1.29511e-09
1.19926e-09
8.44319e-10
7.26408e-10
8.47378e-10
1.01955e-09
1.24589e-09
1.44583e-09
1.83186e-09
1.44508e-09
6.92052e-11
7.11115e-11
6.71828e-11
7.231e-11
6.94052e-11
7.33219e-11
7.44686e-11
6.99487e-11
6.24596e-11
6.58977e-11
-7.38592e-12
6.53019e-11
-6.73674e-12
7.74946e-10
2.48182e-10
1.5325e-10
1.35694e-10
1.60813e-10
2.95171e-10
3.61401e-10
4.07648e-10
6.45979e-10
5.16905e-10
0.355179
0.309671
0.279288
0.255656
0.229739
0.19833
0.162061
0.123566
0.0861731
0.0532164
0.0275651
0.0106744
0.00222865
2.66686e-05
2.07382e-10
2.48052e-08
4.04022e-08
1.12611e-08
4.89174e-19
2.99236e-20
6.88861e-11
1.49192e-10
7.42064e-11
1
0.998057
0.983295
0.971196
0.957671
0.938903
0.912045
0.874983
0.82579
0.762871
0.686107
0.597653
0.50281
0.411931
0.340303
0.278897
0.22888
0.188467
0.154348
0.124322
0.0965142
0.0566086
5.03659e-11
1
1
1
0.999998
0.999997
0.999999
1
1
1
1
1
1
1
0.99628
0.976133
0.955227
0.933884
0.912364
0.890482
0.86754
0.841175
0.786743
0.611886
0.0107388
0.0107378
0.0179469
0.052784
0.0621713
0.0487114
0.0120347
0.000673302
0.000673306
0.000673301
0.000898815
0.00102904
0.0682912
0.124408
0.124477
0.124408
0.0605616
0.00264247
0.0125295
0.0916138
0.0990026
0.0816995
0.0511788
0.051543
0.137939
0.105575
0.0141298
0.0146082
0.0350063
0.00520875
0.00229277
0.0261113
0.091603
0.0964564
0.0788384
0.0128235
0.00249269
0.0124458
0.474215
0.618699
0.481656
0.262842
0.151578
0.31213
0.470552
0.36543
0.284482
0.1026
0.00901782
0.000768274
0.0035284
0.00106457
0.000752185
0.000746583
0.00076712
0.00172401
0.0010235
0.831545
0.842374
0.830203
0.780232
0.547278
0.230843
0.576422
0.809413
0.806366
0.620162
0.115567
0.000753534
0.000745407
0.000748875
0.000765101
0.00109606
0.00631154
0.0175326
0.00102286
0.884665
0.884803
0.884283
0.858007
0.595992
0.212492
0.254587
0.49154
0.838237
0.961993
0.552767
0.12058
0.00111849
0.00113766
0.0190339
0.239046
0.376631
0.418388
0.0821002
0.884803
0.88479
0.884803
0.884656
0.424128
0.149136
0.151762
0.169791
0.757037
0.990339
0.954692
0.342201
0.0844608
0.0769945
0.348017
0.793607
0.962718
0.994366
0.384919
0.884605
0.884905
0.884737
0.8848
0.250614
0.109693
0.106775
0.413736
0.907745
0.992066
0.999484
0.80021
0.164281
0.238543
0.760641
0.999767
0.999769
0.994389
0.399985
0.87218
0.87183
0.8848
0.884628
0.203777
0.107731
0.427856
0.927998
0.998168
0.998488
0.999593
0.981739
0.59296
0.617289
0.971947
0.999768
0.999763
0.961244
0.59221
1
1
0.999999
0.999989
0.999992
0.999998
1
1
1
1
1
1
1
1
1
1
1
1
0.999998
0.999991
0.999988
0.999965
0.999925
1
1
0.999353
0.999641
0.999969
0.999999
1
0.999999
0.999999
1
1
1
1
1
1
1
1
1
1
1
0.999999
1
0.998187
0.989332
0.992121
0.997569
0.999596
0.999991
1
0.999979
0.999631
0.999496
0.999497
0.999311
0.99804
0.993825
0.99285
0.996143
0.997801
0.997597
0.995482
0.974769
0.931142
0.912681
0.902885
0.869351
0.881838
0.94413
0.914882
0.887565
0.885871
0.916281
0.889723
0.857759
0.827963
0.80662
0.78372
0.755087
0.724574
0.716383
0.699775
0.642185
0.579978
0.513164
0.465874
0.412127
0.303117
0.156202
0.0988674
0.640214
0.337786
0.216231
0.175541
0.195172
0.254458
0.253774
0.17423
0.110766
0.0812536
0.0458664
0.00753251
-3.57579e-10
1.19917e-21
-6.93889e-20
0.00891377
0.00867008
0.00268245
0.000941471
0.000162499
1.98888e-20
-1.7132e-20
1.42511e-19
0.0784627
0.000419282
5.53814e-19
3.40232e-19
-5.44112e-07
-3.69899e-07
-1.34182e-26
2.70021e-27
3.84806e-27
-9.60365e-16
-9.22209e-16
8.82474e-10
4.25405e-10
1.03706e-10
2.05421e-18
1.95133e-18
2.05421e-18
9.03871e-12
6.49181e-18
3.20189e-07
1.61745e-06
2.29995e-06
1.71056e-05
4.46031e-05
0.000886659
5.37985e-05
4.8505e-06
-5.88754e-10
1.67711e-08
8.25065e-09
4.87586e-09
5.83737e-09
2.65916e-09
2.76362e-09
9.49497e-09
2.15494e-08
2.76576e-08
2.51049e-08
2.25957e-08
3.18518e-08
4.3601e-08
2.75629e-07
6.97207e-07
7.38178e-07
8.70063e-07
1.6498e-06
4.89316e-05
0.0012779
9.3641e-05
1.75248e-08
2.42774e-07
2.68084e-07
1.52672e-07
1.0289e-07
5.74988e-08
1.2333e-09
1.2275e-09
1.48157e-08
1.21125e-07
1.64641e-07
1.25169e-07
9.2834e-08
1.86556e-07
3.10133e-07
3.04706e-07
1.61928e-07
1.16682e-07
2.41113e-07
1.92811e-06
4.20625e-08
0.00061734
8.34713e-05
1.82129e-08
1.31607e-07
2.67023e-07
2.6817e-07
2.53756e-07
9.63749e-08
1.22779e-09
1.24944e-09
3.52786e-08
1.74416e-07
1.98787e-07
1.99674e-07
1.81113e-07
3.58211e-08
6.03787e-10
5.69768e-10
5.40451e-10
5.88423e-08
2.7247e-07
1.02365e-06
9.04585e-08
7.72617e-08
1.05745e-05
5.83632e-07
3.33175e-08
1.00054e-07
1.41577e-07
9.51384e-08
5.64482e-08
3.34646e-08
2.00434e-08
2.00075e-08
2.81596e-08
4.6349e-08
4.44202e-08
1.5688e-08
2.89901e-09
2.86213e-09
1.626e-09
5.16322e-10
-9.73489e-12
-5.14211e-11
-1.47201e-10
2.11242e-07
1.11948e-06
1.79879e-06
1.38589e-06
1.11303e-08
8.23906e-09
1.60402e-08
1.29309e-08
7.20417e-09
1.63076e-09
1.98787e-09
1.34003e-09
2.11274e-09
1.6854e-09
2.66875e-09
3.31834e-09
7.06114e-09
4.63384e-09
2.25851e-09
1.13939e-09
1.26101e-09
2.77628e-09
6.77506e-09
1.64096e-07
1.12658e-06
3.05888e-06
5.21033e-06
1.258e-06
3.66059e-09
2.83044e-09
5.80215e-09
5.10238e-07
9.47913e-07
6.97584e-07
1.95419e-07
1.27676e-07
6.30035e-08
6.89268e-08
8.15218e-08
2.80171e-08
2.85378e-09
3.16298e-09
2.6675e-09
1.56855e-09
7.12619e-10
1.79305e-10
2.42028e-08
4.74071e-07
3.78536e-06
5.45905e-06
4.46775e-06
4.37305e-08
2.33469e-10
2.22094e-10
6.05063e-07
2.94178e-06
3.15938e-06
9.4526e-07
4.24895e-07
2.22468e-07
2.62156e-07
2.63313e-07
5.686e-08
4.92617e-09
5.82322e-09
5.00267e-09
3.40708e-09
1.50368e-09
3.29545e-10
1.15701e-08
8.50129e-08
1.36725e-06
3.54488e-06
3.5892e-06
3.25389e-07
2.20083e-10
2.27218e-10
3.61452e-07
2.22144e-06
3.15444e-06
3.16858e-06
2.33715e-06
1.50862e-06
1.34333e-06
7.42344e-07
1.81513e-07
3.62318e-08
8.64322e-09
8.91257e-09
6.89737e-09
5.21789e-09
2.13084e-09
1.16805e-08
1.64509e-08
7.34398e-08
1.24531e-06
1.59462e-06
1.10877e-07
2.23034e-10
2.35697e-10
1.91848e-10
6.32854e-07
2.41706e-06
3.17124e-06
3.16766e-06
3.12601e-06
2.70641e-06
1.62922e-06
1.98785e-07
3.54872e-08
1.56057e-08
1.41168e-08
1.46922e-08
1.06294e-08
7.46179e-09
1.93325e-08
1.53743e-08
2.91096e-08
1.97219e-09
1.55497e-09
6.84261e-09
8.15212e-10
2.81211e-10
1.91851e-10
1.91848e-10
1.83917e-07
2.72182e-06
3.13894e-06
3.12464e-06
2.97204e-06
1.92663e-06
3.31076e-07
2.42473e-08
1.95825e-08
2.0016e-08
2.40346e-08
2.03025e-08
1.32267e-08
2.10961e-08
1.6953e-08
3.96784e-08
9.13846e-09
1.4604e-09
1.28841e-09
6.76789e-10
2.86059e-10
3.19316e-10
3.7327e-10
3.73696e-10
4.5686e-09
1.02217e-06
2.67478e-06
1.65314e-06
2.21122e-07
1.90906e-07
1.25889e-07
2.12507e-08
1.26825e-08
2.3897e-08
2.23626e-08
1.73775e-08
2.07175e-08
1.38103e-08
2.65498e-08
9.46055e-09
3.69239e-09
1.99606e-09
6.24647e-10
4.69901e-10
6.64918e-10
8.00039e-10
5.39229e-10
8.26589e-09
3.88664e-07
3.72841e-07
6.73937e-08
8.22835e-08
7.05615e-08
8.32334e-08
3.11071e-08
1.19498e-08
1.64374e-08
1.63648e-08
1.37689e-08
1.95566e-08
1.06135e-08
1.27872e-08
6.81009e-09
3.92628e-09
2.38476e-09
9.32113e-10
9.1029e-10
1.18742e-09
1.44287e-09
7.76307e-10
6.82428e-09
6.36471e-08
1.05353e-08
1.53974e-08
3.01076e-08
3.76536e-08
3.76224e-08
2.3783e-08
1.17364e-08
1.13925e-08
1.04122e-08
9.83735e-09
1.73461e-08
7.75025e-09
6.87475e-09
4.80381e-09
3.32295e-09
2.24131e-09
1.58493e-09
1.38811e-09
1.36817e-09
1.51286e-09
1.79462e-09
5.10972e-09
1.65817e-09
1.27203e-09
2.97002e-09
1.28149e-08
1.76229e-08
1.75898e-08
1.33152e-08
7.84807e-09
6.56928e-09
6.42988e-09
5.89503e-09
1.72341e-08
5.82038e-09
4.33762e-09
3.48763e-09
2.73955e-09
2.08655e-09
1.66707e-09
1.40404e-09
1.25581e-09
1.32065e-09
1.54163e-09
2.12422e-09
1.58478e-09
1.26142e-09
2.07702e-09
5.12718e-09
8.04773e-09
8.11273e-09
6.75151e-09
4.72541e-09
3.86369e-09
3.2255e-09
3.16276e-09
1.79336e-08
4.88276e-09
3.16438e-09
2.76229e-09
2.35666e-09
1.92236e-09
1.58162e-09
1.33521e-09
1.10335e-09
1.00341e-09
1.0477e-09
1.07088e-09
9.31756e-10
8.88524e-10
1.20498e-09
2.17702e-09
3.47693e-09
3.47795e-09
3.01767e-09
2.33308e-09
1.71187e-09
1.46525e-09
1.40408e-09
1.79335e-08
4.66737e-09
2.42649e-09
2.36523e-09
2.09135e-09
1.75263e-09
1.45124e-09
1.19847e-09
9.87196e-10
7.8571e-10
6.55849e-10
5.84721e-10
5.01624e-10
4.89305e-10
6.38811e-10
9.58442e-10
1.37052e-09
1.38991e-09
1.19172e-09
9.19139e-10
6.94284e-10
5.61488e-10
5.55776e-10
1.79335e-08
4.92554e-09
2.14158e-09
2.1413e-09
1.89864e-09
1.56389e-09
1.28516e-09
1.03452e-09
8.19512e-10
6.279e-10
4.8159e-10
3.70817e-10
2.91716e-10
2.67425e-10
2.96128e-10
3.6985e-10
4.79021e-10
4.79737e-10
4.02624e-10
3.14567e-10
2.37542e-10
1.92576e-10
1.81532e-10
1.76051e-08
6.66122e-09
2.12734e-09
2.02656e-09
1.69637e-09
1.35719e-09
1.07362e-09
8.46772e-10
6.60662e-10
5.03879e-10
3.73996e-10
2.73078e-10
1.98636e-10
1.55925e-10
1.40549e-10
1.38386e-10
1.51266e-10
1.41728e-10
1.18717e-10
9.32015e-11
6.97259e-11
5.72356e-11
5.59649e-11
1.6997e-08
7.50019e-09
2.66209e-09
1.99421e-09
1.52435e-09
1.14674e-09
8.60648e-10
6.52757e-10
5.02589e-10
3.83475e-10
2.87837e-10
2.06446e-10
1.45425e-10
1.00566e-10
7.3129e-11
5.78945e-11
4.85502e-11
4.13504e-11
3.3049e-11
2.60431e-11
2.0348e-11
1.73179e-11
1.57305e-11
1.52067e-08
7.15027e-09
3.3476e-09
1.9538e-09
1.33302e-09
9.27861e-10
6.5758e-10
4.75452e-10
3.50725e-10
2.63238e-10
1.99004e-10
1.45744e-10
1.03672e-10
6.96889e-11
4.57852e-11
3.01239e-11
2.03968e-11
1.43323e-11
1.0285e-11
8.01945e-12
6.4178e-12
5.36786e-12
4.89503e-12
1.32796e-08
6.60124e-09
3.33051e-09
1.85628e-09
1.15412e-09
7.35506e-10
4.7246e-10
3.20385e-10
2.30081e-10
1.68554e-10
1.24937e-10
9.12997e-11
6.466e-11
4.37536e-11
2.87472e-11
1.79164e-11
1.08366e-11
6.69573e-12
4.07249e-12
2.88299e-12
2.26173e-12
1.86909e-12
1.60396e-12
1.16658e-08
5.98316e-09
3.08612e-09
1.66741e-09
9.6497e-10
5.68354e-10
3.38322e-10
2.09542e-10
1.37451e-10
9.51221e-11
6.81144e-11
4.97486e-11
3.5009e-11
2.4167e-11
1.59999e-11
9.91997e-12
5.77213e-12
3.25784e-12
1.78703e-12
1.1449e-12
8.14343e-13
6.00926e-13
5.09108e-13
9.55889e-09
5.02172e-09
2.65573e-09
1.39077e-09
7.58425e-10
4.17623e-10
2.30936e-10
1.28864e-10
7.84847e-11
5.07412e-11
3.40157e-11
2.38832e-11
1.65834e-11
1.13946e-11
7.50159e-12
4.6583e-12
2.6716e-12
1.48071e-12
7.22743e-13
4.24435e-13
2.70935e-13
1.95658e-13
1.54711e-13
7.83389e-09
3.97733e-09
2.06323e-09
1.05235e-09
5.46318e-10
2.84956e-10
1.4361e-10
7.46973e-11
4.1503e-11
2.43969e-11
1.5448e-11
1.01871e-11
6.86533e-12
4.61726e-12
2.97954e-12
1.85346e-12
1.06572e-12
5.58666e-13
2.72697e-13
1.42306e-13
8.29034e-14
5.4654e-14
4.19821e-14
5.59369e-09
2.88315e-09
1.4387e-09
7.11585e-10
3.53136e-10
1.7457e-10
8.24446e-11
4.03175e-11
2.02065e-11
1.07724e-11
6.27946e-12
3.92069e-12
2.5146e-12
1.59619e-12
1.02585e-12
6.30225e-13
3.53438e-13
1.84077e-13
8.08138e-14
4.14664e-14
2.27351e-14
1.41887e-14
1.00656e-14
3.79016e-09
1.81737e-09
8.92374e-10
4.2866e-10
1.98289e-10
9.13688e-11
4.19584e-11
1.87018e-11
8.76131e-12
4.22393e-12
2.29286e-12
1.34428e-12
8.17006e-13
4.96702e-13
3.03157e-13
1.78321e-13
9.6628e-14
4.85342e-14
2.12172e-14
1.00925e-14
5.28902e-15
3.1762e-15
2.13099e-15
2.14494e-09
9.9018e-10
4.50286e-10
2.05939e-10
9.28557e-11
4.13167e-11
1.81882e-11
7.88703e-12
3.41536e-12
1.55948e-12
7.6098e-13
4.12523e-13
2.32505e-13
1.32362e-13
7.63415e-14
4.42764e-14
2.2419e-14
1.05848e-14
4.49385e-15
2.05393e-15
1.04676e-15
6.10087e-16
3.82383e-16
1.04235e-09
4.62942e-10
2.01133e-10
8.79446e-11
3.81008e-11
1.63027e-11
6.84982e-12
2.82633e-12
1.16034e-12
4.76831e-13
2.17127e-13
1.09462e-13
5.7475e-14
3.14593e-14
1.73592e-14
9.18655e-15
4.55552e-15
1.97306e-15
8.19442e-16
3.60731e-16
1.831e-16
1.03513e-16
6.03057e-17
4.30235e-10
1.86198e-10
7.72811e-11
3.15996e-11
1.31375e-11
5.4406e-12
2.23862e-12
8.38093e-13
3.24405e-13
1.30268e-13
5.39445e-14
2.56463e-14
1.27201e-14
6.83798e-15
3.6195e-15
1.82022e-15
8.24181e-16
3.23199e-16
1.3185e-16
5.66659e-17
2.784e-17
1.48342e-17
7.82302e-18
1.33411e-10
5.67425e-11
2.20205e-11
9.23014e-12
3.77986e-12
1.53161e-12
5.6874e-13
2.181e-13
8.14995e-14
3.12499e-14
1.23708e-14
5.6516e-15
2.76608e-15
1.38062e-15
6.83358e-16
3.1934e-16
1.32027e-16
4.96419e-17
1.89294e-17
7.89706e-18
3.75149e-18
1.79263e-18
8.58567e-19
3.70021e-11
1.34993e-11
5.06305e-12
2.13194e-12
8.77805e-13
3.26821e-13
1.35317e-13
5.23116e-14
1.95017e-14
7.19415e-15
2.76866e-15
1.15003e-15
5.23974e-16
2.48479e-16
1.15692e-16
4.94453e-17
1.89175e-17
6.6161e-18
2.45464e-18
1.01063e-18
4.37513e-19
1.87147e-19
8.93015e-20
5.58757e-12
2.2649e-12
1.01723e-12
4.08439e-13
1.83871e-13
7.56785e-14
2.83719e-14
1.02502e-14
3.75894e-15
1.35863e-15
5.10042e-16
2.11161e-16
9.4761e-17
4.23841e-17
1.80713e-17
7.04227e-18
2.49111e-18
8.41221e-19
2.98876e-19
1.15745e-19
4.55958e-20
1.70666e-20
6.00586e-21
5.18732e-13
2.48457e-13
1.37893e-13
6.84355e-14
2.85368e-14
1.25449e-14
5.31664e-15
2.02811e-15
7.41168e-16
2.62548e-16
9.49605e-17
3.80725e-17
1.60469e-17
6.70885e-18
2.64401e-18
9.53291e-19
3.17422e-19
1.0009e-19
3.31804e-20
1.14796e-20
3.86071e-21
1.23105e-21
1.18854e-22
7.07204e-15
9.22568e-15
1.1777e-14
8.4687e-15
4.34187e-15
1.97597e-15
8.31599e-16
3.21553e-16
1.18256e-16
4.23872e-17
1.60357e-17
6.07006e-18
2.59034e-18
1.02483e-18
3.75363e-19
1.24458e-19
3.72935e-20
1.14269e-20
3.64901e-21
1.10874e-21
3.35621e-22
2.96288e-23
6.78582e-25
5.00916e-21
7.64122e-17
7.59493e-16
9.65031e-16
5.83967e-16
2.84471e-16
1.22787e-16
4.88382e-17
1.87741e-17
6.9538e-18
2.55207e-18
9.7879e-19
3.97614e-19
1.51494e-19
5.2403e-20
1.62555e-20
4.63278e-21
1.35301e-21
4.02695e-22
1.06046e-22
1.81628e-23
4.98501e-25
4.99947e-27
0.999968
0.999981
0.999988
0.99999
0.99629
0.997468
0.999179
0.999792
0.839971
0.690325
0.342949
0.0781309
0.0581094
0.0187159
0.00693021
0.014921
3.17622e-20
0.000536556
0.000269258
1.47012e-05
3.64453e-05
7.94469e-06
1.16116e-05
1.78076e-05
1.8736e-06
2.98313e-06
1.53533e-05
1.8731e-05
4.05736e-06
3.98187e-06
1.15437e-06
4.5843e-07
1.51057e-06
3.85296e-08
1.67153e-09
1.73301e-09
-1.75372e-10
6.68969e-10
6.70717e-09
7.16173e-09
8.75366e-09
8.88596e-09
7.50663e-09
8.97848e-09
1.79806e-10
1.57357e-10
1.49481e-10
1.4204e-10
2.43142e-10
2.09535e-10
1.40286e-10
7.46772e-11
9.7169e-10
7.73537e-10
5.2742e-10
3.37317e-10
4.89104e-09
2.7643e-09
1.73615e-09
1.20221e-09
9.26936e-09
7.70476e-09
4.76003e-09
3.76391e-09
1.10867e-08
8.03713e-09
8.43233e-09
7.0713e-09
1.052e-08
9.36326e-09
7.06486e-09
7.30584e-09
8.27761e-09
6.63261e-09
6.53676e-09
5.81171e-09
5.42907e-09
5.24083e-09
4.34227e-09
4.1052e-09
3.08255e-09
2.64525e-09
2.79933e-09
2.5552e-09
1.45987e-09
1.39028e-09
1.39684e-09
1.37701e-09
5.53402e-10
5.65e-10
6.24781e-10
6.20351e-10
1.89524e-10
1.93928e-10
2.17411e-10
2.27869e-10
5.58459e-11
5.53172e-11
6.10323e-11
6.59495e-11
1.61302e-11
1.60086e-11
1.64116e-11
1.76741e-11
4.7675e-12
4.43519e-12
4.4267e-12
4.23417e-12
1.48511e-12
1.4114e-12
1.30489e-12
1.27865e-12
4.85099e-13
4.22694e-13
3.98624e-13
3.62943e-13
1.37173e-13
1.23971e-13
1.1047e-13
1.04737e-13
3.62499e-14
3.27544e-14
3.00362e-14
2.60604e-14
8.66477e-15
7.63131e-15
6.69571e-15
5.6154e-15
1.79791e-15
1.49858e-15
1.24103e-15
1.008e-15
3.01992e-16
2.51696e-16
2.04239e-16
1.5483e-16
4.66399e-17
3.56159e-17
2.69534e-17
1.90586e-17
5.70208e-18
4.12888e-18
2.93811e-18
2.03503e-18
5.75615e-19
4.08393e-19
2.37282e-19
6.97518e-20
3.37405e-20
1.2304e-20
3.53844e-21
4.93348e-22
5.59394e-22
7.32788e-23
1.55923e-23
1.31079e-24
1.32638e-36
9.44888e-26
2.53489e-26
1.86443e-27
-3.09892e-43
9.28994e-29
3.85632e-28
1.26779e-27
-2.48279e-46
9.12666e-29
3.28999e-28
9.79061e-28
0.711517
0.714735
0.882833
0.79915
0.255843
0.316299
0.891488
0.997054
0.997841
0.999131
0.99962
0.999
0.988559
0.986712
0.999728
0.999715
0.997608
0.954509
0.71785
0.414671
0.620152
0.7792
0.597326
0.0594975
0.460138
0.823666
0.887038
0.91517
0.972357
0.999012
0.998978
0.999062
0.998842
0.992862
0.960451
0.90943
0.790316
0.803337
0.1336
0.135503
0.129148
0.0381181
0.0152746
0.254881
0.307144
0.193454
0.177109
0.234449
0.334933
0.431027
0.515236
0.509911
0.4467
0.34897
0.263858
0.131107
0.0767498
0.00575803
1.41987e-06
1.40338e-07
3.04776e-06
0.014758
0.00872095
3.44742e-05
1.31988e-17
1.72378e-19
3.26975e-07
8.74728e-10
0.00043551
0.00300166
0.00354003
0.00118841
1.6502e-07
5.97389e-07
2.35554e-06
4.6379e-06
1.41383e-05
1.36431e-05
6.93096e-08
0.000105519
0.00120759
5.89367e-17
7.78415e-12
1.20034e-19
-3.32219e-12
1.6307e-07
2.20887e-07
9.72769e-08
3.20644e-12
3.22637e-12
3.49571e-12
1.57323e-07
2.78368e-05
5.41947e-05
0.000213135
1.8629e-05
8.34082e-06
1.32349e-07
1.07311e-05
2.21002e-08
2.16346e-08
2.35938e-08
1.89424e-08
3.92388e-08
1.03583e-07
1.80092e-07
1.02746e-07
1.18798e-11
3.03631e-12
2.96853e-12
1.88503e-10
-8.12427e-08
-3.39585e-07
0.000249281
5.55851e-06
1.32477e-07
6.26873e-09
1.30687e-07
3.26449e-08
1.36018e-08
1.02576e-08
1.14044e-08
1.71209e-08
4.49172e-08
5.29152e-07
5.83056e-06
8.83971e-05
0.000410226
0.00172935
0.00402956
0.00397016
0.00359919
0.00340568
7.0439e-07
3.54098e-07
6.20067e-09
2.67242e-09
2.65813e-09
2.58945e-09
8.49819e-09
1.1967e-07
1.9389e-09
3.17146e-09
5.17495e-09
7.67796e-09
1.7243e-05
0.00727168
0.00987552
0.00987579
0.00987548
0.00826184
0.00736536
1.67237e-09
1.17778e-08
7.79118e-09
2.75548e-08
1.62847e-07
3.931e-07
9.96353e-07
2.35443e-07
2.47147e-05
7.67307e-05
2.00322e-06
6.26127e-05
0.00193813
0.00374241
0.00412409
0.00405491
0.00385212
0.00343935
0.00511474
1.13679e-08
1.64948e-08
5.74403e-08
2.23662e-07
5.26092e-07
2.83625e-06
1.00404e-05
2.41615e-05
9.37592e-05
0.000327597
0.000425715
0.000379487
0.000134753
3.21373e-06
1.0427e-08
1.84239e-06
1.64308e-06
3.62969e-06
0.000227681
3.16611e-08
6.06214e-08
8.93348e-08
7.94395e-08
5.8141e-08
2.46125e-06
8.71236e-06
2.97006e-05
3.97988e-05
3.0192e-05
2.5157e-06
1.54005e-06
1.94527e-07
1.20726e-09
9.03894e-09
-3.33059e-10
7.11467e-08
5.25171e-08
5.78876e-08
1.52083e-09
5.66161e-09
1.3014e-08
1.97366e-09
1.29515e-11
2.35757e-12
9.8773e-14
2.4897e-13
-4.0077e-11
-3.99419e-12
-1.83809e-10
4.31523e-08
1.37235e-08
1.25917e-09
7.71059e-09
7.56463e-08
1.37863e-07
1.10865e-07
7.20688e-08
3.85343e-11
3.98447e-11
4.00375e-11
3.97784e-11
4.34808e-11
8.9066e-11
1.52049e-10
2.42483e-09
1.53271e-08
3.1951e-08
4.60399e-08
4.3807e-08
7.35014e-09
1.1823e-09
3.27988e-09
1.78881e-08
3.28067e-08
1.63524e-09
2.68548e-08
1.85131e-10
9.37909e-11
8.23971e-11
9.46543e-11
1.46823e-10
2.59517e-10
4.96542e-10
2.28287e-09
1.02707e-08
2.19882e-08
3.64966e-08
1.13274e-08
2.27988e-09
1.11756e-09
9.55175e-10
2.31492e-09
3.52004e-09
4.26816e-10
3.37497e-09
5.79826e-10
1.33532e-10
9.51411e-11
9.67395e-11
1.70922e-10
3.03606e-10
5.3433e-10
9.79201e-10
1.38403e-09
1.28236e-09
1.28598e-09
1.60632e-09
4.77952e-10
5.26328e-10
3.34974e-10
3.26589e-10
2.5271e-10
1.37108e-10
3.31416e-10
2.11423e-09
2.28439e-10
1.04844e-10
1.02547e-10
1.0969e-10
1.36997e-10
2.00087e-10
3.43279e-10
9.19176e-10
1.26694e-09
1.26382e-09
8.52986e-10
3.36596e-10
3.00404e-10
1.69996e-10
8.01175e-11
4.35118e-11
5.30387e-11
1.02721e-10
4.73967e-09
7.93998e-10
1.38596e-10
1.23312e-10
1.12661e-10
1.25882e-10
1.6117e-10
2.14517e-10
2.88084e-10
3.86104e-10
4.03555e-10
3.88058e-10
3.1702e-10
2.15264e-10
1.06365e-10
3.31294e-11
1.17836e-11
1.75859e-11
4.16606e-11
6.24583e-09
2.53574e-09
5.13456e-10
2.15971e-10
1.34107e-10
1.22722e-10
1.28991e-10
1.50822e-10
1.91761e-10
2.09202e-10
1.9342e-10
1.51732e-10
1.22627e-10
8.95789e-11
3.91552e-11
1.20007e-11
3.67879e-12
6.25842e-12
1.31357e-11
5.19285e-09
4.06465e-09
1.58604e-09
7.11176e-10
3.32981e-10
1.88744e-10
1.42099e-10
1.27097e-10
1.23558e-10
1.20991e-10
1.01075e-10
7.72306e-11
4.98054e-11
2.70095e-11
8.41065e-12
1.95321e-12
9.29044e-13
1.48385e-12
2.97072e-12
3.70689e-09
3.23014e-09
2.20777e-09
1.24532e-09
7.40269e-10
4.189e-10
2.29081e-10
1.43305e-10
9.37846e-11
6.72966e-11
5.18857e-11
4.0778e-11
2.50495e-11
1.44568e-11
4.04248e-12
6.35294e-13
3.40293e-13
2.98025e-13
5.09302e-13
2.31403e-09
2.03323e-09
1.74809e-09
1.30403e-09
8.75938e-10
5.50842e-10
3.29947e-10
1.84533e-10
9.27033e-11
4.6358e-11
3.25808e-11
2.04414e-11
1.18276e-11
5.24274e-12
1.37242e-12
2.41161e-13
8.02189e-14
4.69506e-14
6.47702e-14
1.24512e-09
1.15291e-09
1.02078e-09
8.80343e-10
7.08371e-10
5.05553e-10
3.36764e-10
2.00772e-10
1.04107e-10
4.45873e-11
2.48947e-11
1.18949e-11
4.19237e-12
1.27012e-12
2.91549e-13
8.3085e-14
1.72106e-14
7.83063e-15
6.3905e-15
5.86735e-10
5.59931e-10
5.07879e-10
4.36115e-10
3.79764e-10
3.14164e-10
2.44406e-10
1.62414e-10
9.42083e-11
4.69316e-11
1.91739e-11
6.4659e-12
1.90219e-12
5.09447e-13
1.25172e-13
3.75945e-14
3.93462e-15
1.5249e-15
8.73941e-16
2.19685e-10
2.14922e-10
2.07705e-10
1.88495e-10
1.61643e-10
1.36509e-10
1.12455e-10
9.22563e-11
6.14297e-11
3.40774e-11
1.50639e-11
4.90154e-12
1.15397e-12
2.32523e-13
5.49769e-14
6.4337e-15
9.67568e-16
6.21199e-16
2.47025e-16
6.34525e-11
6.48558e-11
6.45811e-11
6.01321e-11
5.46633e-11
4.69202e-11
4.1254e-11
3.56752e-11
2.73823e-11
1.74502e-11
9.13138e-12
3.24236e-12
7.1029e-13
1.12182e-13
2.13962e-14
1.84692e-15
4.05362e-16
3.73945e-16
1.80628e-16
1.6032e-11
1.61731e-11
1.60158e-11
1.52223e-11
1.41529e-11
1.27981e-11
1.16519e-11
1.06476e-11
8.78198e-12
6.70963e-12
4.09608e-12
1.65948e-12
3.75188e-13
5.0201e-14
4.7077e-15
3.08437e-16
1.95008e-16
2.52565e-16
1.12905e-16
4.00006e-12
3.79703e-12
3.58799e-12
3.32502e-12
3.04181e-12
2.81119e-12
2.65322e-12
2.44899e-12
2.23897e-12
1.88661e-12
1.31549e-12
6.14424e-13
1.57348e-13
1.93272e-14
8.54223e-16
8.25102e-17
9.58607e-17
1.38615e-16
9.07827e-17
1.07296e-12
9.41193e-13
8.34455e-13
7.1862e-13
6.22226e-13
5.52919e-13
4.92541e-13
4.6663e-13
4.57972e-13
4.22932e-13
3.22621e-13
1.70819e-13
3.40757e-14
2.45323e-15
1.22778e-16
3.42634e-17
4.55134e-17
9.45663e-17
5.52649e-17
2.96208e-13
2.44365e-13
1.92829e-13
1.50531e-13
1.2328e-13
9.09292e-14
7.66771e-14
7.56844e-14
7.49286e-14
7.06303e-14
5.73676e-14
2.24274e-14
3.47568e-15
1.98444e-16
1.44905e-17
1.2305e-17
2.20348e-17
5.44554e-17
4.16434e-17
7.85659e-14
5.97823e-14
4.31204e-14
3.31438e-14
2.27478e-14
1.15898e-14
8.03451e-15
8.04291e-15
8.03355e-15
7.93071e-15
4.95984e-15
1.72322e-15
2.45478e-16
8.77479e-18
2.01176e-18
4.12795e-18
1.15292e-17
4.07404e-17
2.15919e-17
1.83709e-14
1.22042e-14
8.6909e-15
6.18617e-15
2.94272e-15
9.33834e-16
4.73883e-16
4.93353e-16
5.58962e-16
4.80926e-16
3.11671e-16
9.84208e-17
9.03591e-18
2.87132e-19
4.83329e-19
2.09401e-18
8.18587e-18
2.17309e-17
1.51141e-17
3.64834e-15
2.32101e-15
1.60572e-15
7.67744e-16
2.25785e-16
3.44266e-17
1.35787e-17
1.6465e-17
2.05057e-17
1.60395e-17
8.90103e-18
2.68759e-18
2.39366e-19
8.49039e-20
2.81608e-19
1.53172e-18
5.8934e-18
1.51162e-17
6.5474e-18
5.98813e-16
3.97226e-16
1.79075e-16
4.88038e-17
6.2187e-18
3.13287e-19
1.93932e-19
3.49239e-19
3.6348e-19
3.21883e-19
1.67552e-19
3.53203e-20
2.33557e-20
4.95599e-20
2.00892e-19
1.16888e-18
4.23667e-18
6.95389e-18
4.28596e-18
8.70347e-17
4.75093e-17
1.14224e-17
1.1151e-18
4.25654e-20
1.93756e-21
2.48508e-21
4.51183e-21
5.85374e-21
6.12369e-21
6.21115e-21
9.64679e-21
1.78419e-20
4.17822e-20
1.71544e-19
9.55513e-19
2.52988e-18
4.55055e-18
1.52025e-18
1.07058e-17
2.95416e-18
2.78501e-19
5.94612e-21
1.0334e-22
9.12217e-23
1.46507e-22
3.24184e-22
7.30536e-22
1.6689e-21
3.87783e-21
8.52109e-21
1.6504e-20
3.8803e-20
1.60904e-19
6.663e-19
1.61671e-18
1.75965e-18
8.98659e-19
7.17087e-19
5.48459e-20
8.81302e-22
1.12643e-23
1.36588e-23
3.11693e-23
8.54829e-23
2.32864e-22
6.20111e-22
1.55295e-21
3.70788e-21
8.04915e-21
1.55281e-20
3.58346e-20
1.2617e-19
4.10186e-19
8.84125e-19
1.03258e-18
2.47268e-19
6.93883e-21
1.3028e-22
1.90924e-24
2.71508e-24
7.85093e-24
2.48563e-23
7.28143e-23
2.03005e-22
5.32973e-22
1.32982e-21
3.14324e-21
6.76292e-21
1.29158e-20
2.93075e-20
9.2206e-20
2.68795e-19
4.99195e-19
3.27997e-19
1.19943e-19
2.67688e-23
5.10075e-25
5.7331e-25
1.92826e-24
6.4474e-24
1.9992e-23
5.87282e-23
1.60192e-22
4.17483e-22
1.03679e-21
2.41709e-21
5.18549e-21
9.87555e-21
2.12719e-20
6.16918e-20
1.55948e-19
2.07565e-19
1.55827e-19
2.95984e-20
6.98231e-26
9.83147e-26
3.99415e-25
1.43656e-24
4.70728e-24
1.43169e-23
4.08636e-23
1.10744e-22
2.8568e-22
7.04685e-22
1.63862e-21
3.45762e-21
6.55715e-21
1.40401e-20
3.28856e-20
8.98072e-20
9.14817e-20
4.03962e-20
1.34805e-20
1.48551e-26
7.00482e-26
2.64752e-25
8.76765e-25
2.73618e-24
7.90565e-24
2.24408e-23
6.15592e-23
1.60311e-22
4.02976e-22
9.47935e-22
2.02418e-21
3.86996e-21
8.2013e-21
1.70009e-20
4.20086e-20
2.89825e-20
1.52027e-20
5.35315e-21
9.74874e-27
3.87569e-26
1.31194e-25
4.01831e-25
1.20432e-24
3.53913e-24
1.00646e-23
2.78849e-23
7.45448e-23
1.90646e-22
4.54468e-22
9.80105e-22
1.88045e-21
3.99893e-21
7.71304e-21
1.6164e-20
8.45291e-21
5.14532e-21
1.54821e-21
3.52745e-27
1.14395e-26
3.38947e-26
9.5622e-26
2.98002e-25
9.48238e-25
2.87054e-24
7.96911e-24
2.18469e-23
5.70025e-23
1.39809e-22
3.15875e-22
6.10966e-22
1.26231e-21
2.20795e-21
3.91312e-21
2.06309e-21
9.20281e-22
8.47856e-23
)
;

boundaryField
{
    leftWall
    {
        type            alphaContactAngle;
        contactAngleProperties 
        {
            mercury         
            {
                theta0          90;
            }
            air             
            {
                theta0          90;
            }
            oil             
            {
                theta0          90;
            }
        }
        value           nonuniform List<scalar> 
50
(
9.95105e-11
2.35363e-10
3.09929e-10
2.19718e-10
6.92052e-11
0.355179
1
1
1
1
0.989332
0.881838
0.640214
0.0784627
4.46031e-05
4.89316e-05
4.20625e-08
9.04585e-08
2.11242e-07
1.64096e-07
2.42028e-08
1.15701e-08
1.16805e-08
1.93325e-08
2.10961e-08
2.07175e-08
1.95566e-08
1.73461e-08
1.72341e-08
1.79336e-08
1.79335e-08
1.79335e-08
1.76051e-08
1.6997e-08
1.52067e-08
1.32796e-08
1.16658e-08
9.55889e-09
7.83389e-09
5.59369e-09
3.79016e-09
2.14494e-09
1.04235e-09
4.30235e-10
1.33411e-10
3.70021e-11
5.58757e-12
5.18732e-13
7.07204e-15
5.00916e-21
)
;
    }
    rightWall
    {
        type            alphaContactAngle;
        contactAngleProperties 
        {
            mercury         
            {
                theta0          90;
            }
            air             
            {
                theta0          90;
            }
            oil             
            {
                theta0          90;
            }
        }
        value           nonuniform List<scalar> 
50
(
0.0125295
0.0124458
0.0010235
0.00102286
0.0821002
0.384919
0.399985
0.59221
0.71785
0.803337
0.0767498
4.6379e-06
0.000213135
0.000249281
0.00340568
0.00736536
0.00511474
0.000227681
5.78876e-08
7.20688e-08
2.68548e-08
3.37497e-09
3.31416e-10
1.02721e-10
4.16606e-11
1.31357e-11
2.97072e-12
5.09302e-13
6.47702e-14
6.3905e-15
8.73941e-16
2.47025e-16
1.80628e-16
1.12905e-16
9.07827e-17
5.52649e-17
4.16434e-17
2.15919e-17
1.51141e-17
6.5474e-18
4.28596e-18
1.52025e-18
8.98659e-19
2.47268e-19
1.19943e-19
2.95984e-20
1.34805e-20
5.35315e-21
1.54821e-21
8.47856e-23
)
;
    }
    lowerWall
    {
        type            alphaContactAngle;
        contactAngleProperties 
        {
            mercury         
            {
                theta0          90;
            }
            air             
            {
                theta0          90;
            }
            oil             
            {
                theta0          90;
            }
        }
        value           nonuniform List<scalar> 
62
(
9.95105e-11
1.20015e-10
1.35698e-10
1.42168e-10
1.48905e-10
1.56584e-10
1.64616e-10
1.71203e-10
1.76e-10
1.79485e-10
1.84549e-10
1.9166e-10
2.06183e-10
2.30296e-10
2.85343e-10
3.54291e-10
4.52681e-10
5.61597e-10
8.69743e-10
1.60062e-09
2.55932e-09
2.77878e-09
2.77882e-09
2.77882e-09
2.58617e-09
1.76721e-09
1.44508e-09
5.16905e-10
7.42064e-11
5.03659e-11
0.611886
0.999968
0.999981
0.999988
0.99999
0.0107388
0.0916138
0.474215
0.831545
0.884665
0.884803
0.884605
0.87218
0.0107388
0.0107378
0.0179469
0.052784
0.0621713
0.0487114
0.0120347
0.000673302
0.000673306
0.000673301
0.000898815
0.00102904
0.0682912
0.124408
0.124477
0.124408
0.0605616
0.00264247
0.0125295
)
;
    }
    atmosphere
    {
        type            inletOutlet;
        inletValue      uniform 0;
        value           nonuniform List<scalar> 
46
(
0
0
0
9.65032e-16
5.83968e-16
2.84471e-16
1.22787e-16
4.88382e-17
1.87741e-17
6.9538e-18
2.55207e-18
9.78791e-19
3.97614e-19
1.51494e-19
5.2403e-20
0
0
0
0
0
0
0
0
0
0
0
0
0
0
0
0
2.98003e-25
9.48238e-25
2.87054e-24
7.96912e-24
2.18469e-23
5.70025e-23
1.39809e-22
3.15876e-22
6.10966e-22
1.26231e-21
2.20795e-21
0
0
0
0
)
;
    }
    defaultFaces
    {
        type            empty;