/*--------------------------------*- C++ -*----------------------------------*\
  =========                 |
  \\      /  F ield         | OpenFOAM: The Open Source CFD Toolbox
   \\    /   O peration     | Website:  https://openfoam.org
    \\  /    A nd           | Version:  13
     \\/     M anipulation  |
\*---------------------------------------------------------------------------*/
FoamFile
{
    format      ascii;
    class       volScalarField;
    location    "2.45";
    object      alpha.oil;
}
// * * * * * * * * * * * * * * * * * * * * * * * * * * * * * * * * * * * * * //

dimensions      [];

internalField   nonuniform List<scalar> 
2268
(
1.37074e-14
9.3658e-14
4.89852e-13
1.63549e-12
4.0971e-12
8.86149e-12
1.76683e-11
3.26453e-11
5.98877e-11
1.08749e-10
1.97609e-10
3.57248e-10
6.58376e-10
1.09756e-09
2.45461e-09
4.72359e-09
8.91029e-09
9.85687e-09
1.00576e-08
1.0595e-08
0.000358002
0.000567098
0.000567143
1.60781e-14
1.00389e-13
3.49603e-13
1.80891e-12
4.50935e-12
9.99814e-12
2.00857e-11
3.97971e-11
7.42241e-11
1.34563e-10
2.38478e-10
4.43868e-10
8.17656e-10
1.40803e-09
2.9861e-09
5.83029e-09
1.15643e-08
1.27086e-08
1.05905e-08
3.68911e-06
4.41141e-05
0.000126281
0.000345541
5.78593e-14
3.07129e-13
3.29411e-13
1.59638e-12
4.16082e-12
8.92255e-12
1.9281e-11
3.85937e-11
7.48768e-11
1.40387e-10
2.45216e-10
4.7517e-10
8.34739e-10
1.45086e-09
2.67811e-09
4.68201e-09
7.68613e-09
1.06121e-08
1.35421e-08
4.48757e-07
1.09673e-08
1.66435e-08
4.05005e-06
3.84027e-12
2.86679e-12
2.53044e-12
2.53501e-12
3.93024e-12
7.41455e-12
1.59941e-11
3.43009e-11
7.06064e-11
1.52662e-10
3.01968e-10
5.89432e-10
1.03186e-09
1.61916e-09
3.22374e-09
5.3051e-09
7.59823e-09
7.9679e-09
8.37456e-09
8.64481e-09
9.35357e-09
1.55405e-08
1.21506e-07
5.12635e-11
3.78268e-11
2.6197e-11
1.90218e-11
1.33208e-11
1.18879e-11
1.37835e-11
2.52082e-11
4.63208e-11
1.0257e-10
2.3471e-10
5.12322e-10
1.15496e-09
2.09561e-09
3.37361e-09
6.51957e-09
1.57087e-08
8.18604e-09
8.64482e-09
8.9791e-09
1.00974e-08
1.33542e-08
2.33434e-08
1.28422e-09
1.01345e-09
7.15197e-10
5.10663e-10
3.73231e-10
2.69921e-10
1.62001e-10
7.6322e-11
5.2638e-11
6.4899e-11
1.23186e-10
2.98368e-10
8.30273e-10
1.9997e-09
2.87633e-09
3.7561e-09
6.78174e-09
1.81123e-07
6.65545e-07
5.62102e-07
2.22005e-07
3.5931e-08
1.06621e-08
3.32286e-09
3.02906e-09
2.3647e-09
1.81058e-09
1.4714e-09
1.15445e-09
9.15379e-10
5.72901e-10
2.62123e-10
1.31136e-10
1.1255e-10
1.59971e-10
3.386e-10
1.01692e-09
1.48042e-09
8.46427e-10
6.30097e-10
6.8207e-07
1.6063e-06
1.44473e-06
1.99935e-07
1.57022e-05
4.30389e-05
3.73502e-09
3.6e-09
2.97215e-09
2.35944e-09
1.97117e-09
1.58704e-09
1.45457e-09
1.09341e-09
6.47218e-10
3.70209e-10
2.27814e-10
1.97126e-10
2.56961e-10
5.13811e-10
6.34309e-10
6.30097e-10
6.31129e-10
4.07639e-07
1.58028e-06
6.16613e-07
1.88842e-07
3.68004e-05
4.65229e-05
0.138233
0.125867
0.102307
0.0536553
0.0318397
0.031953
0.105826
0.299562
0.315065
0.315919
0.317093
0.31447
0.242736
0.0850114
0.068158
0.106628
0.173869
0.231813
0.221954
0.399833
0.39973
0.385206
0.350736
0.274932
0.0417708
0.0456745
0.13241
0.131434
0.0866398
0.110906
0.204341
0.204699
0.0689434
0.0658838
0.100746
0.218697
0.232027
0.222009
0.37116
0.228427
0.36214
0.555729
0.554888
0.246985
0.00239864
0.00310754
0.00244912
2.93276e-05
0.0177718
0.0666596
0.167953
0.124827
0.0656275
0.120845
0.262529
0.370383
0.414048
0.0228354
0.00400506
0.0084417
0.0488339
0.316589
0.706397
0.289266
0.00480733
9.77539e-15
-1.44139e-19
0.02751
0.0959991
0.185638
0.152935
0.138273
0.257854
0.453419
0.471152
0.471107
0.00792917
0.00392277
0.0036683
0.003664
0.274433
0.741986
0.712975
0.474375
0.103751
4.17662e-16
0.00716969
0.129042
0.192237
0.264202
0.325186
0.324395
0.243824
0.215105
0.454417
0.0402262
0.0300866
0.0166184
0.0315858
0.449643
0.741921
0.74194
0.741892
0.171893
2.60024e-19
5.37109e-19
0.086536
0.327978
0.325788
0.32542
0.206389
0.0372783
0.00547852
0.215181
0.0427788
0.0363533
0.0386019
0.0813722
0.649236
0.742028
0.739724
0.434991
0.0390668
4.1713e-12
1.03752e-23
0.0438369
0.268001
0.32137
0.239031
0.000226474
0.000227373
0.00560686
0.365798
0.0367664
0.0379274
0.0430275
0.0674328
0.631181
0.656379
0.342498
0.00870587
2.83655e-16
1.68891e-06
-4.90824e-24
0.0181762
0.225756
0.260292
0.028048
0.000189645
0.000209809
0.0387521
0.388052
3.64161e-09
3.56894e-09
3.06025e-09
2.50984e-09
2.26239e-09
1.6627e-09
2.02039e-09
1.61512e-09
1.06145e-09
7.10813e-10
4.09098e-10
2.88877e-10
3.38926e-10
5.0141e-10
7.75559e-10
2.24909e-09
7.84938e-09
1.14104e-08
8.05481e-08
9.37521e-10
8.81322e-07
3.74328e-06
2.15197e-05
1.6377e-09
1.18139e-09
1.01584e-09
1.03864e-09
1.11198e-09
8.44179e-09
4.64583e-09
2.39032e-09
2.27275e-09
2.11199e-09
1.04767e-09
3.27677e-10
3.37796e-10
4.55898e-10
7.05837e-10
1.55303e-09
2.27539e-09
1.43735e-09
3.22545e-11
8.28451e-10
9.36437e-08
4.07424e-11
-4.92457e-21
3.55937e-10
3.56054e-10
4.43828e-19
3.57577e-10
-1.67839e-19
4.66172e-08
-1.68782e-10
-3.20952e-12
-1.98824e-12
-1.69025e-12
-4.46626e-13
-3.16641e-14
-5.73096e-15
-1.35037e-19
1.26514e-20
4.90459e-21
2.77369e-19
1.13014e-19
8.43266e-23
2.95361e-23
2.97154e-16
0.00777847
0.0969645
3.56084e-10
0.0275061
0.0844084
0.112425
0.114078
0.0492399
0.0126195
0.0323154
0.0641796
0.0836707
0.104918
0.128724
0.139143
0.12834
0.14495
0.202538
0.266548
0.332957
0.378671
0.4321
0.602644
0.773446
0.762465
0.234207
0.64151
0.783759
0.824448
0.795067
0.600309
0.548873
0.629721
0.69905
0.72295
0.759933
0.832917
0.869606
0.884229
0.874012
0.83954
0.874214
0.966145
0.974485
0.975791
0.986768
0.930739
0.901519
0.812495
0.999511
0.999457
0.998222
0.959599
0.901152
0.952974
0.99655
0.987113
0.978875
0.99712
1
1
1
0.993275
0.991189
0.996999
1
0.999993
0.999291
0.993784
0.988263
0.996492
0.986143
0.999113
0.999946
0.999995
1
1
1
1
1
1
1
1
1
1
1
1
1
1
1
0.999999
0.999997
0.999998
0.999997
0.991608
0.998722
0.999906
0.999992
0.984236
0.942796
0.926786
0.930952
0.92505
0.921342
0.928393
0.939545
0.950014
0.959439
0.968389
0.975518
0.980813
0.985422
0.989912
0.993314
0.995035
0.995676
0.996233
0.946749
0.853846
0.657582
0.471986
0.325384
0.279248
0.271872
0.23652
0.205805
0.195056
0.212884
0.233899
0.253231
0.274772
0.299805
0.324529
0.34738
0.372638
0.403331
0.430931
0.447073
0.454723
0.463446
0.1795
0.21685
0.093726
0.00339569
6.02229e-06
2.05855e-06
-5.32889e-10
-1.41038e-10
3.31807e-20
-1.35019e-15
1.82779e-21
2.37392e-20
1.82494e-21
6.81687e-18
1.97403e-17
3.36088e-17
4.71432e-17
7.83604e-17
4.72062e-17
2.62539e-17
4.33583e-25
1.03135e-26
-7.01358e-25
1.07626e-06
1.09212e-06
1.3803e-05
2.8122e-06
3.03977e-07
2.28353e-07
1.73273e-07
3.2144e-08
2.10621e-16
2.1555e-13
3.13138e-11
2.71299e-09
3.02032e-08
2.38101e-08
1.70418e-08
1.1734e-08
1.32734e-08
1.61476e-08
1.42452e-08
1.6137e-08
2.0962e-08
4.04087e-08
9.76199e-08
1.0846e-06
1.32541e-06
1.27966e-06
6.52722e-07
8.31551e-06
2.44197e-07
1.91339e-07
2.74374e-06
2.34467e-05
3.32285e-05
2.26408e-07
4.12833e-07
4.91993e-08
5.66249e-08
5.89152e-08
7.30407e-08
1.38434e-07
1.43675e-07
1.26991e-07
1.11019e-07
9.71058e-08
1.01897e-07
1.98537e-07
1.07682e-06
1.08313e-06
9.89953e-06
4.47299e-05
4.8792e-05
1.16569e-05
7.78281e-08
2.38227e-05
0.000152026
0.000161983
4.72041e-05
2.02803e-07
-2.72566e-16
2.11623e-17
1.82022e-08
1.16127e-07
2.53868e-07
2.23387e-07
1.75637e-07
1.41529e-07
1.16643e-07
9.25478e-08
1.2264e-07
1.0769e-06
1.0765e-06
2.45941e-05
5.46345e-05
5.22224e-05
1.51207e-05
5.13694e-08
3.99248e-05
0.000163611
0.000163544
0.00016165
2.93469e-05
3.67897e-26
7.91891e-10
5.57105e-09
1.95443e-07
2.80296e-07
2.7939e-07
2.49474e-07
1.74517e-07
1.30151e-07
9.46627e-08
7.76247e-08
1.05188e-06
1.56381e-06
1.32896e-05
4.25532e-05
2.88085e-05
2.30204e-06
5.32133e-08
5.57714e-06
0.000118713
0.000163612
0.00016183
4.16316e-05
7.80577e-18
7.7662e-09
3.89735e-09
5.35542e-08
2.64128e-07
2.77238e-07
2.60895e-07
1.99852e-07
1.5176e-07
8.07349e-08
6.11924e-08
9.6961e-07
1.81581e-06
2.46012e-06
1.23912e-06
2.13768e-07
7.43431e-08
5.25823e-08
6.79565e-08
8.8496e-06
8.60492e-05
7.15379e-05
3.3372e-06
-7.80576e-18
4.20315e-08
1.30002e-08
6.4881e-09
5.14494e-08
2.39888e-07
2.44041e-07
1.80508e-07
1.41139e-07
9.93767e-08
5.38762e-08
5.79702e-07
1.18811e-06
8.80741e-07
6.58874e-08
5.81048e-08
6.67634e-08
7.0004e-08
1.06205e-07
3.08194e-07
5.96936e-07
1.5823e-07
1.60132e-07
4.66504e-07
1.74694e-07
6.50146e-08
6.24164e-09
6.18859e-09
5.21383e-08
1.60539e-07
1.52213e-07
1.11931e-07
7.32422e-08
5.30223e-08
3.82222e-07
6.99267e-07
4.13756e-07
1.16518e-07
8.14856e-08
8.82223e-08
9.50606e-08
1.29238e-07
8.74249e-08
1.65559e-07
1.57378e-07
2.96016e-07
8.43261e-07
8.3709e-07
1.41892e-07
6.14406e-09
6.60701e-09
1.69116e-08
7.41318e-08
8.44288e-08
5.92509e-08
5.20114e-08
3.97452e-08
2.75746e-07
3.69137e-07
2.28926e-07
1.11724e-07
8.3645e-08
8.16981e-08
8.44825e-08
9.57534e-08
5.22787e-08
3.38289e-08
3.31648e-08
4.83102e-07
8.40102e-07
8.09704e-07
1.82114e-07
2.56928e-08
8.51577e-09
9.81294e-09
2.82005e-08
3.90625e-08
3.31471e-08
2.5114e-08
2.14e-08
1.27541e-07
1.89968e-07
1.35909e-07
8.63089e-08
6.94418e-08
6.26331e-08
5.96483e-08
5.41793e-08
3.57401e-08
3.02405e-08
4.32337e-08
2.57581e-07
6.07266e-07
3.77392e-07
9.87959e-08
3.06843e-08
1.13625e-08
9.4941e-09
1.29723e-08
1.65556e-08
1.46006e-08
1.30086e-08
1.02445e-08
8.3291e-08
1.1503e-07
9.37534e-08
6.86399e-08
5.44782e-08
4.25221e-08
3.82265e-08
3.18811e-08
2.62196e-08
2.97324e-08
4.6589e-08
1.00024e-07
1.3208e-07
8.80172e-08
4.66868e-08
2.21787e-08
1.13222e-08
9.22114e-09
8.96539e-09
9.67976e-09
9.24564e-09
7.13465e-09
5.87253e-09
5.5444e-08
8.69045e-08
7.66167e-08
5.86174e-08
4.4693e-08
3.10242e-08
2.55419e-08
2.08756e-08
1.87929e-08
2.21366e-08
3.08357e-08
3.79242e-08
3.07657e-08
2.6324e-08
1.88808e-08
1.28992e-08
9.0854e-09
7.63503e-09
6.81797e-09
6.33401e-09
5.54926e-09
4.78702e-09
3.89768e-09
4.59957e-08
7.15756e-08
6.77859e-08
5.28887e-08
3.7189e-08
2.53888e-08
1.89632e-08
1.48268e-08
1.28651e-08
1.38226e-08
1.60896e-08
1.58217e-08
1.28181e-08
1.04872e-08
8.88861e-09
7.50491e-09
6.20887e-09
5.36243e-09
4.63229e-09
4.1283e-09
3.68965e-09
3.17017e-09
2.71441e-09
3.57129e-08
6.25655e-08
5.95322e-08
4.62395e-08
3.33781e-08
2.1548e-08
1.52342e-08
1.0924e-08
8.60206e-09
7.82168e-09
7.64594e-09
6.83131e-09
5.71219e-09
4.95605e-09
4.50883e-09
4.15085e-09
3.63147e-09
3.2096e-09
2.7455e-09
2.47494e-09
2.2334e-09
1.94714e-09
1.6564e-09
2.72553e-08
4.61706e-08
4.64698e-08
3.72333e-08
2.65359e-08
1.83411e-08
1.21416e-08
8.12261e-09
5.76301e-09
4.55135e-09
3.89173e-09
3.3648e-09
2.91777e-09
2.63482e-09
2.42546e-09
2.21174e-09
1.96966e-09
1.70143e-09
1.48335e-09
1.33036e-09
1.17853e-09
1.03566e-09
9.18842e-10
2.02948e-08
2.99037e-08
3.14804e-08
2.55189e-08
2.03425e-08
1.45922e-08
9.59073e-09
5.98104e-09
3.95038e-09
2.79788e-09
2.1618e-09
1.74211e-09
1.49795e-09
1.34125e-09
1.2291e-09
1.11629e-09
9.71359e-10
8.48099e-10
7.3102e-10
6.46524e-10
5.67307e-10
4.99406e-10
4.21225e-10
1.40396e-08
2.25326e-08
2.15375e-08
1.66548e-08
1.30138e-08
9.83252e-09
6.87438e-09
4.28226e-09
2.63231e-09
1.69927e-09
1.20366e-09
9.1592e-10
7.63406e-10
6.65344e-10
5.91256e-10
5.21718e-10
4.52513e-10
3.89683e-10
3.33399e-10
2.8999e-10
2.47689e-10
2.08588e-10
1.77837e-10
9.12627e-09
1.41281e-08
1.3248e-08
1.09314e-08
8.12481e-09
6.04522e-09
4.16903e-09
2.66931e-09
1.6734e-09
1.04517e-09
6.79504e-10
4.69106e-10
3.549e-10
2.92299e-10
2.56258e-10
2.25275e-10
1.95577e-10
1.68993e-10
1.41348e-10
1.19249e-10
1.00223e-10
8.25011e-11
6.70747e-11
6.40867e-09
9.58846e-09
8.42328e-09
6.40661e-09
4.54626e-09
3.32462e-09
2.36114e-09
1.52601e-09
9.32959e-10
5.68039e-10
3.50736e-10
2.28522e-10
1.57927e-10
1.21523e-10
1.00659e-10
8.68135e-11
7.52474e-11
6.38282e-11
5.28545e-11
4.44826e-11
3.63625e-11
2.75317e-11
2.22595e-11
3.8769e-09
5.33152e-09
4.66002e-09
3.35917e-09
2.26227e-09
1.60993e-09
1.15688e-09
7.45452e-10
4.66369e-10
2.83381e-10
1.67942e-10
1.03434e-10
6.65404e-11
4.70454e-11
3.61978e-11
2.97859e-11
2.52456e-11
2.17269e-11
1.78494e-11
1.47866e-11
1.15306e-11
8.80958e-12
6.77496e-12
2.39871e-09
2.94026e-09
2.31428e-09
1.57785e-09
1.00451e-09
6.86306e-10
4.74414e-10
3.14433e-10
1.99587e-10
1.20287e-10
7.11638e-11
4.1901e-11
2.55173e-11
1.67447e-11
1.18782e-11
9.29953e-12
7.73637e-12
6.47618e-12
5.38608e-12
4.32147e-12
3.28251e-12
2.37651e-12
1.79767e-12
1.2326e-09
1.42722e-09
1.03379e-09
6.66594e-10
4.02481e-10
2.61017e-10
1.74684e-10
1.17884e-10
7.43419e-11
4.44539e-11
2.59895e-11
1.50579e-11
8.78629e-12
5.29685e-12
3.59992e-12
2.68536e-12
2.16036e-12
1.79765e-12
1.41479e-12
1.12233e-12
8.40904e-13
5.83102e-13
4.11906e-13
6.23367e-10
5.93616e-10
4.20209e-10
2.5744e-10
1.4239e-10
8.50533e-11
5.64778e-11
3.68647e-11
2.36061e-11
1.41051e-11
8.2569e-12
4.72274e-12
2.67125e-12
1.54147e-12
9.76207e-13
6.90383e-13
5.35039e-13
4.34449e-13
3.39789e-13
2.5702e-13
1.83226e-13
1.23905e-13
8.274e-14
2.50695e-10
2.17789e-10
1.36762e-10
7.91574e-11
4.26472e-11
2.44361e-11
1.58161e-11
1.06295e-11
6.80115e-12
4.13235e-12
2.35636e-12
1.30587e-12
7.04399e-13
3.84987e-13
2.32046e-13
1.6258e-13
1.19712e-13
9.19628e-14
6.95578e-14
5.09244e-14
3.45736e-14
2.23288e-14
1.39064e-14
9.0274e-11
6.97454e-11
4.11734e-11
2.28217e-11
1.19711e-11
6.63106e-12
4.11779e-12
2.70503e-12
1.72249e-12
1.01151e-12
5.69625e-13
3.0787e-13
1.59806e-13
8.58928e-14
5.06171e-14
3.31153e-14
2.45286e-14
1.80998e-14
1.31308e-14
8.95069e-15
5.8316e-15
3.5746e-15
2.07053e-15
2.66113e-11
1.96065e-11
1.10093e-11
5.77562e-12
2.93695e-12
1.57765e-12
9.55253e-13
5.8143e-13
3.62674e-13
2.20213e-13
1.20301e-13
6.39683e-14
3.23988e-14
1.76304e-14
1.03014e-14
6.67985e-15
4.6683e-15
3.26391e-15
2.26641e-15
1.45022e-15
8.69301e-16
4.89585e-16
2.6219e-16
6.05965e-12
4.27388e-12
2.25903e-12
1.21682e-12
6.19614e-13
3.26228e-13
1.78386e-13
1.1382e-13
7.19517e-14
4.31012e-14
2.36481e-14
1.25915e-14
6.51373e-15
3.40191e-15
1.93537e-15
1.23004e-15
8.30184e-16
5.57061e-16
3.55774e-16
2.08394e-16
1.14782e-16
5.80479e-17
3.30497e-17
1.30048e-12
7.12738e-13
3.60245e-13
2.0471e-13
1.06173e-13
5.19308e-14
3.2231e-14
2.13884e-14
1.40658e-14
8.43725e-15
4.61089e-15
2.32328e-15
1.15251e-15
5.92064e-16
3.33006e-16
2.06561e-16
1.36221e-16
8.64345e-17
5.09824e-17
2.727e-17
1.33539e-17
6.78606e-18
6.6283e-18
1.48545e-13
8.7673e-14
5.4283e-14
2.86451e-14
1.69894e-14
9.35705e-15
5.38713e-15
3.4223e-15
2.29079e-15
1.38534e-15
7.57684e-16
3.91375e-16
1.96595e-16
9.90159e-17
5.41973e-17
3.31896e-17
2.11982e-17
1.25476e-17
6.64925e-18
3.21971e-18
1.53981e-18
1.10101e-18
3.1672e-18
1.0903e-14
7.40481e-15
5.76093e-15
3.82096e-15
2.10486e-15
1.25274e-15
8.31038e-16
5.79576e-16
3.94106e-16
2.38419e-16
1.28135e-16
6.55771e-17
3.17512e-17
1.56403e-17
8.54446e-18
5.2293e-18
3.21964e-18
1.69805e-18
7.95415e-19
3.56401e-19
2.1645e-19
4.25368e-19
2.38191e-18
1.11994e-16
2.19979e-16
4.14876e-16
4.01481e-16
2.69501e-16
1.67197e-16
1.1018e-16
7.95604e-17
5.59668e-17
3.48995e-17
1.9938e-17
9.72846e-18
4.94242e-18
2.43227e-18
1.33904e-18
7.99838e-19
4.44379e-19
2.23172e-19
9.89132e-20
4.96267e-20
6.66113e-20
2.71288e-19
1.74977e-18
9.54762e-24
1.42148e-18
2.36025e-17
4.17493e-17
3.25097e-17
2.14316e-17
1.45719e-17
1.08268e-17
8.21364e-18
5.34935e-18
2.95321e-18
1.48591e-18
7.41205e-19
3.75012e-19
2.10566e-19
1.24497e-19
6.70998e-20
3.09891e-20
1.39897e-20
1.07227e-20
2.93731e-20
1.39478e-19
9.53894e-19
1.981e-05
7.28895e-06
4.26592e-06
5.71181e-06
-5.9518e-24
-1.89932e-17
-1.81069e-09
0.000202392
0.155662
0.196618
0.478435
0.742332
0.801627
0.848605
0.904413
0.902
0.946563
0.992916
0.999493
0.999783
0.999942
0.999974
0.999981
0.999971
0.999997
0.999997
0.999985
0.999981
0.997272
0.996797
0.996414
0.995801
0.479776
0.473155
0.468112
0.459634
2.16722e-24
-2.90511e-10
4.50405e-09
1.05879e-24
1.49901e-07
1.56431e-07
1.64785e-07
1.48496e-07
2.83951e-07
2.8108e-07
2.81995e-07
2.82664e-07
1.86352e-07
1.90545e-07
2.12034e-07
2.10235e-07
1.03787e-07
1.10956e-07
1.1614e-07
1.42276e-07
5.74555e-08
6.2792e-08
7.54851e-08
8.72728e-08
3.88448e-08
4.08942e-08
4.56459e-08
4.92728e-08
3.1234e-08
2.0623e-08
2.61147e-08
2.63942e-08
2.38684e-08
2.01171e-08
1.25918e-08
1.41368e-08
1.50597e-08
9.45429e-09
9.72562e-09
7.77544e-09
8.29888e-09
7.31183e-09
4.92257e-09
4.3037e-09
5.19992e-09
3.69566e-09
3.63939e-09
2.87311e-09
3.4572e-09
2.97638e-09
2.50888e-09
2.22526e-09
2.4209e-09
2.08234e-09
1.91039e-09
1.70788e-09
1.54185e-09
1.39646e-09
1.23669e-09
1.14346e-09
8.44623e-10
7.37738e-10
6.85924e-10
6.41597e-10
3.9813e-10
3.62402e-10
3.19118e-10
3.11099e-10
1.65123e-10
1.44632e-10
1.34032e-10
1.18949e-10
5.95575e-11
5.47364e-11
4.77052e-11
4.45121e-11
2.05994e-11
1.72618e-11
1.56426e-11
1.3538e-11
5.81188e-12
5.06893e-12
4.32114e-12
3.91183e-12
1.49938e-12
1.30386e-12
1.14836e-12
9.45844e-13
3.45468e-13
2.93069e-13
2.45967e-13
1.9609e-13
6.80489e-14
5.45424e-14
4.3267e-14
3.35502e-14
1.07243e-14
8.65881e-15
6.79413e-15
4.99603e-15
1.57531e-15
1.18298e-15
8.94021e-16
6.59352e-16
1.95194e-16
1.50639e-16
1.24913e-16
1.19757e-16
2.76278e-17
2.72337e-17
3.40927e-17
5.54504e-17
8.25793e-18
1.20201e-17
2.24738e-17
5.37346e-17
5.12703e-18
9.52271e-18
2.46024e-17
7.28702e-17
4.23757e-18
1.00655e-17
3.2691e-17
1.06306e-16
3.52692e-18
1.11781e-17
4.02732e-17
1.30829e-16
2.85633e-18
1.0033e-17
3.39682e-17
1.02323e-16
0.186084
0.129235
0.0385972
0.0395004
0.527249
0.466633
0.0169072
2.8368e-16
-4.16027e-25
8.26481e-24
-1.21674e-09
0.000855577
0.0113783
0.0132677
0.000248021
0.000185691
0.000172994
0.03871
0.279315
0.449554
0.194878
0.0395004
0.214147
0.738579
0.356351
0.0111207
0.0646688
0.0808758
0.0265954
-2.29962e-15
1.64991e-09
0.000421958
0.000935153
0.00693549
0.0393927
0.0843417
0.151118
0.144764
0.688296
0.707805
0.801912
0.883823
0.840217
0.565831
0.513734
0.734507
0.820894
0.765414
0.664525
0.568007
0.484035
0.489747
0.553087
0.65085
0.733279
0.800632
0.854323
0.938115
0.991023
0.99948
0.998619
0.926275
0.854422
0.903658
0.987871
0.999867
0.999991
0.999979
0.999495
0.996922
0.996315
0.998514
0.999721
0.999767
0.989719
0.968036
0.999916
0.999963
0.999687
0.996583
0.994305
0.994365
0.999478
0.999999
0.999995
0.999992
0.999998
1
1
0.999982
0.999763
0.999755
0.999807
0.999833
0.999643
0.999967
0.999965
0.999841
0.999882
0.999999
1
1
1
1
0.999999
1
1
1
0.999998
0.999993
1
1
1
0.999704
0.999994
1
1
1
1
1
1
1
1
1
0.999999
0.999994
0.9999
0.999518
0.997887
0.994708
0.994514
0.99542
0.996349
0.994261
0.99397
0.994636
0.995657
0.996239
0.995749
0.98523
0.957744
0.917918
0.870832
0.820071
0.757516
0.647627
0.482795
0.368991
0.321708
0.341734
0.494187
0.720375
0.440278
0.431821
0.421905
0.406359
0.379186
0.332093
0.274752
0.215439
0.155709
0.0979267
0.0462726
0.00638241
0.00487277
0.00112276
1.45903e-18
-1.71254e-10
-3.52254e-16
0.00134414
0.0417032
1.81156e-09
3.08576e-16
1.44337e-27
-2.34026e-24
-1.61771e-22
-1.01591e-21
-7.56536e-22
1.89921e-23
1.05879e-24
2.16505e-23
5.37096e-10
3.21432e-05
0.0003215
0.000300636
3.77036e-05
8.70074e-07
5.65834e-10
-3.5732e-14
-4.50377e-19
1.00901e-07
7.87415e-08
6.06998e-07
2.67553e-05
0.000232721
0.000366411
0.000263651
4.99174e-05
2.23075e-06
6.29612e-06
0.0005781
0.00101664
0.00101197
0.00019674
7.18826e-06
4.2765e-07
3.01026e-07
1.30233e-09
1.62674e-20
2.69768e-07
3.4841e-07
2.15273e-06
0.000218065
0.000977303
0.000977789
0.000977304
0.000164592
1.31206e-06
7.30762e-05
0.000787017
0.000860863
8.56446e-05
6.66971e-06
4.33419e-07
4.85531e-07
4.98918e-07
4.40931e-07
3.7925e-07
2.04831e-07
2.77343e-07
1.06929e-06
1.25797e-05
0.000436623
0.000860863
0.000654404
5.8398e-05
3.4442e-07
1.37353e-07
3.73552e-07
4.25081e-06
2.73646e-07
3.66848e-07
3.47932e-07
4.41407e-07
4.10955e-07
5.16869e-07
5.51401e-07
1.64176e-07
2.245e-07
2.88409e-07
2.23198e-07
1.35279e-07
1.71597e-07
4.43926e-07
4.13601e-06
6.26724e-06
1.64298e-07
1.9247e-07
3.44071e-07
2.98878e-07
2.43888e-07
2.40465e-07
2.44096e-07
2.65493e-07
3.24843e-07
4.52134e-07
1.02083e-07
1.30017e-07
1.55951e-07
1.28057e-07
1.3761e-07
1.50135e-07
1.54418e-07
1.53506e-07
1.89454e-07
3.00088e-07
4.1648e-07
4.44167e-07
3.6888e-07
2.48646e-07
1.42153e-07
1.07419e-07
1.0761e-07
1.54169e-07
1.32641e-07
5.39939e-08
6.61781e-08
9.25222e-08
1.26649e-07
1.93893e-07
2.75482e-07
3.18164e-07
2.72819e-07
1.8553e-07
1.39888e-07
2.03417e-07
3.25708e-07
3.56933e-07
2.35191e-07
1.04136e-07
4.7126e-08
4.79122e-08
3.88822e-08
2.18551e-08
2.869e-08
3.35883e-08
4.18329e-08
5.566e-08
1.00828e-07
1.94447e-07
2.96062e-07
3.06126e-07
2.25222e-07
1.1314e-07
6.07245e-08
1.01678e-07
1.46169e-07
1.09541e-07
5.05982e-08
2.66579e-08
2.54301e-08
1.52571e-08
1.36717e-08
1.38229e-08
1.70307e-08
2.07269e-08
2.22051e-08
2.49194e-08
3.66434e-08
6.6852e-08
1.01353e-07
8.55445e-08
4.84729e-08
3.33556e-08
2.43227e-08
2.15556e-08
2.17031e-08
1.59082e-08
1.80765e-08
1.56397e-08
1.37718e-08
1.39043e-08
6.76154e-09
6.85032e-09
9.80029e-09
1.21219e-08
1.40147e-08
1.38892e-08
1.11341e-08
9.57242e-09
1.06857e-08
1.43043e-08
1.82414e-08
1.63516e-08
1.18592e-08
9.11639e-09
1.05605e-08
1.21874e-08
1.25147e-08
1.4479e-08
1.56358e-08
3.40269e-09
3.00896e-09
3.83271e-09
5.27907e-09
6.69967e-09
8.23742e-09
9.0269e-09
8.93716e-09
8.96871e-09
9.92601e-09
1.05321e-08
1.0118e-08
8.47572e-09
7.6417e-09
8.14598e-09
9.94141e-09
1.23374e-08
1.7619e-08
1.73745e-08
2.21818e-09
1.82269e-09
1.72166e-09
2.10083e-09
2.77499e-09
3.40277e-09
3.98714e-09
4.39203e-09
4.96511e-09
5.20345e-09
5.01267e-09
4.70377e-09
4.54981e-09
4.77141e-09
5.85711e-09
8.12704e-09
1.33441e-08
1.95499e-08
2.84846e-08
1.6832e-09
1.35312e-09
1.17765e-09
1.11064e-09
1.09875e-09
1.28583e-09
1.50826e-09
1.78441e-09
2.00522e-09
2.12467e-09
2.11938e-09
2.1063e-09
2.38279e-09
3.09912e-09
4.36718e-09
7.1779e-09
1.48366e-08
3.6514e-08
2.96948e-08
1.32924e-09
1.05153e-09
8.57323e-10
7.06681e-10
6.31286e-10
5.96571e-10
6.1761e-10
7.04991e-10
8.10755e-10
9.16592e-10
1.05932e-09
1.30227e-09
1.69186e-09
2.4186e-09
3.80283e-09
6.96451e-09
1.79205e-08
4.22806e-08
6.38412e-08
9.1856e-10
7.28509e-10
5.93282e-10
4.71187e-10
3.71114e-10
3.08393e-10
2.77067e-10
2.85424e-10
3.35863e-10
4.35907e-10
5.89287e-10
8.33561e-10
1.25305e-09
2.022e-09
3.47165e-09
7.28285e-09
1.99433e-08
7.39341e-08
7.17475e-08
5.23714e-10
4.26023e-10
3.46538e-10
2.68511e-10
2.08639e-10
1.61308e-10
1.42136e-10
1.43711e-10
1.78312e-10
2.52566e-10
3.94293e-10
6.36872e-10
1.06161e-09
1.82311e-09
3.361e-09
7.37391e-09
2.38935e-08
7.58022e-08
8.50732e-08
2.44584e-10
2.01685e-10
1.62815e-10
1.26595e-10
9.78737e-11
7.67554e-11
7.01854e-11
7.97543e-11
1.10811e-10
1.79034e-10
3.07288e-10
5.48091e-10
9.74873e-10
1.74646e-09
3.29313e-09
7.85668e-09
2.71426e-08
8.91507e-08
8.05365e-08
9.77243e-11
7.83482e-11
6.20255e-11
4.78518e-11
3.71219e-11
3.17451e-11
3.40368e-11
4.72165e-11
7.80141e-11
1.42192e-10
2.67915e-10
5.07345e-10
9.45423e-10
1.71996e-09
3.30551e-09
8.3362e-09
3.22004e-08
8.91335e-08
6.73819e-08
3.32541e-11
2.54902e-11
1.97136e-11
1.49819e-11
1.23726e-11
1.27498e-11
1.79515e-11
3.10648e-11
6.23863e-11
1.23949e-10
2.49196e-10
4.96756e-10
9.5323e-10
1.76384e-09
3.33944e-09
9.18891e-09
3.6597e-08
9.61139e-08
4.90267e-08
9.90961e-12
7.2967e-12
5.23172e-12
4.04928e-12
4.03971e-12
6.01546e-12
1.15957e-11
2.429e-11
5.37737e-11
1.15303e-10
2.4374e-10
5.073e-10
1.00192e-09
1.8694e-09
3.46548e-09
9.72619e-09
4.29836e-08
9.58917e-08
4.96216e-08
2.63757e-12
1.82032e-12
1.27955e-12
1.1928e-12
1.79425e-12
3.86137e-12
8.9505e-12
2.12982e-11
4.87372e-11
1.12161e-10
2.47994e-10
5.3463e-10
1.08086e-09
2.00125e-09
3.70451e-09
1.05677e-08
4.55916e-08
9.61213e-08
2.81571e-08
6.04367e-13
3.76017e-13
3.13901e-13
4.80829e-13
1.16731e-12
3.02885e-12
7.83009e-12
1.94851e-11
4.71675e-11
1.13275e-10
2.6205e-10
5.72337e-10
1.17686e-09
2.23509e-09
4.00585e-09
1.06853e-08
4.53423e-08
7.22385e-08
2.58458e-08
1.16749e-13
7.88653e-14
1.08303e-13
3.01624e-13
9.31789e-13
2.64211e-12
7.23183e-12
1.87325e-11
4.66077e-11
1.18492e-10
2.81298e-10
6.2717e-10
1.31262e-09
2.49161e-09
4.39555e-09
1.21328e-08
3.48626e-08
5.37413e-08
8.51584e-09
1.94873e-14
2.068e-14
6.46474e-14
2.46407e-13
8.11345e-13
2.42191e-12
6.8278e-12
1.8629e-11
4.89663e-11
1.24771e-10
3.04985e-10
6.87705e-10
1.43054e-09
2.71815e-09
4.66949e-09
1.2037e-08
2.75237e-08
8.22747e-09
7.6557e-09
3.81844e-15
1.2019e-14
5.63864e-14
2.26938e-13
7.53482e-13
2.35566e-12
6.91699e-12
1.92779e-11
5.13726e-11
1.32357e-10
3.26003e-10
7.33728e-10
1.53184e-09
2.8262e-09
4.84759e-09
1.15041e-08
1.42356e-08
1.24681e-08
2.54872e-09
1.68172e-15
1.12287e-14
5.48013e-14
2.15573e-13
7.40915e-13
2.35451e-12
7.01832e-12
1.99689e-11
5.39113e-11
1.38816e-10
3.39277e-10
7.60847e-10
1.55246e-09
2.8461e-09
4.85928e-09
9.08273e-09
1.02299e-08
3.97036e-09
2.36555e-09
1.49486e-15
1.09953e-14
5.22542e-14
2.11152e-13
7.26524e-13
2.36631e-12
7.08336e-12
1.98666e-11
5.40342e-11
1.38551e-10
3.37201e-10
7.42009e-10
1.50183e-09
2.69961e-09
4.24306e-09
6.76915e-09
5.15806e-09
3.60564e-09
8.76636e-10
1.56178e-15
1.07789e-14
5.02831e-14
2.02693e-13
6.95347e-13
2.25967e-12
6.70551e-12
1.8917e-11
5.04908e-11
1.28612e-10
3.09003e-10
6.70878e-10
1.32913e-09
2.35929e-09
3.4586e-09
4.91804e-09
3.69483e-09
1.22173e-09
6.11086e-10
1.61866e-15
1.05034e-14
4.70438e-14
1.83028e-13
6.25277e-13
1.96885e-12
5.8648e-12
1.6236e-11
4.29787e-11
1.08826e-10
2.57563e-10
5.55671e-10
1.08452e-09
1.83337e-09
2.6393e-09
2.84716e-09
1.78866e-09
8.14199e-10
2.51135e-10
1.68577e-15
9.28838e-15
3.99299e-14
1.46827e-13
4.90957e-13
1.52009e-12
4.41536e-12
1.21804e-11
3.19731e-11
8.03801e-11
1.89812e-10
4.02626e-10
7.7005e-10
1.29845e-09
1.65332e-09
1.8132e-09
1.05686e-09
2.96427e-10
1.59738e-10
1.50369e-15
7.24531e-15
2.8111e-14
9.5703e-14
3.06386e-13
9.05902e-13
2.62275e-12
7.33504e-12
1.94694e-11
4.9809e-11
1.18995e-10
2.55303e-10
4.8524e-10
8.08305e-10
1.00101e-09
9.91556e-10
4.47007e-10
1.65115e-10
8.26192e-11
1.02467e-15
4.18275e-15
1.46065e-14
4.61988e-14
1.42487e-13
4.29702e-13
1.24874e-12
3.5388e-12
9.66174e-12
2.51957e-11
6.10719e-11
1.3267e-10
2.50012e-10
4.19856e-10
5.27732e-10
4.63614e-10
1.83653e-10
7.6511e-11
3.01571e-11
3.78293e-16
1.26545e-15
3.8839e-15
1.13685e-14
3.6551e-14
1.19679e-13
3.7083e-13
1.05553e-12
2.96267e-12
7.90085e-12
1.97331e-11
4.49704e-11
8.51643e-11
1.41071e-10
1.7016e-10
1.36584e-10
5.5712e-11
1.74475e-11
1.96898e-12
)
;

boundaryField
{
    leftWall
    {
        type            alphaContactAngle;
        contactAngleProperties 
        {
            mercury         
            {
                theta0          90;
            }
            air             
            {
                theta0          90;
            }
            water           
            {
                theta0          90;
            }
        }
        value           nonuniform List<scalar> 
50
(
1.37074e-14
1.60781e-14
5.78593e-14
3.84027e-12
5.12635e-11
1.28422e-09
3.32286e-09
3.73502e-09
3.64161e-09
1.6377e-09
3.55937e-10
3.56084e-10
0.234207
0.812495
0.986143
0.991608
0.946749
0.1795
1.07626e-06
1.0846e-06
1.07682e-06
1.0769e-06
1.05188e-06
9.6961e-07
5.79702e-07
3.82222e-07
2.75746e-07
1.27541e-07
8.3291e-08
5.5444e-08
4.59957e-08
3.57129e-08
2.72553e-08
2.02948e-08
1.40396e-08
9.12627e-09
6.40867e-09
3.8769e-09
2.39871e-09
1.2326e-09
6.23367e-10
2.50695e-10
9.0274e-11
2.66113e-11
6.05965e-12
1.30048e-12
1.48545e-13
1.0903e-14
1.11994e-16
9.54762e-24
)
;
    }
    rightWall
    {
        type            alphaContactAngle;
        contactAngleProperties 
        {
            mercury         
            {
                theta0          90;
            }
            air             
            {
                theta0          90;
            }
            water           
            {
                theta0          90;
            }
        }
        value           nonuniform List<scalar> 
50
(
0.221954
0.222009
0.414048
0.471107
0.454417
0.215181
0.365798
0.388052
0.279315
0.144764
0.854323
0.968036
0.999643
0.999704
0.996349
0.720375
0.0417032
-4.50377e-19
1.62674e-20
3.7925e-07
5.51401e-07
4.52134e-07
1.32641e-07
2.18551e-08
1.36717e-08
1.39043e-08
1.56358e-08
1.73745e-08
2.84846e-08
2.96948e-08
6.38412e-08
7.17475e-08
8.50732e-08
8.05365e-08
6.73819e-08
4.90267e-08
4.96216e-08
2.81571e-08
2.58458e-08
8.51584e-09
7.6557e-09
2.54872e-09
2.36555e-09
8.76636e-10
6.11086e-10
2.51135e-10
1.59738e-10
8.26192e-11
3.01571e-11
1.96898e-12
)
;
    }
    lowerWall
    {
        type            alphaContactAngle;
        contactAngleProperties 
        {
            mercury         
            {
                theta0          90;
            }
            air             
            {
                theta0          90;
            }
            water           
            {
                theta0          90;
            }
        }
        value           nonuniform List<scalar> 
62
(
1.37074e-14
9.3658e-14
4.89852e-13
1.63549e-12
4.0971e-12
8.86149e-12
1.76683e-11
3.26453e-11
5.98877e-11
1.08749e-10
1.97609e-10
3.57248e-10
6.58376e-10
1.09756e-09
2.45461e-09
4.72359e-09
8.91029e-09
9.85687e-09
1.00576e-08
1.0595e-08
0.000358002
0.000567098
0.000567143
0.000567143
0.000345541
4.05005e-06
1.21506e-07
2.33434e-08
1.06621e-08
4.30389e-05
4.65229e-05
1.981e-05
7.28895e-06
4.26592e-06
5.71181e-06
0.138233
0.399833
0.37116
0.0228354
0.00792917
0.0402262
0.0427788
0.0367664
0.138233
0.125867
0.102307
0.0536553
0.0318397
0.031953
0.105826
0.299562
0.315065
0.315919
0.317093
0.31447
0.242736
0.0850114
0.068158
0.106628
0.173869
0.231813
0.221954
)
;
    }
    atmosphere
    {
        type            inletOutlet;
        inletValue      uniform 0;
        value           nonuniform List<scalar> 
46
(
0
0
0
4.17493e-17
3.25097e-17
2.14316e-17
1.45719e-17
1.08268e-17
8.21364e-18
5.34935e-18
2.95321e-18
1.48591e-18
7.41206e-19
3.75012e-19
2.10566e-19
0
0
0
0
0
0
0
0
0
0
0
0
0
0
0
0
3.6551e-14
1.19679e-13
3.70831e-13
1.05553e-12
2.96267e-12
7.90086e-12
1.97331e-11
4.49704e-11
8.51644e-11
1.41071e-10
1.7016e-10
0
0
0
0
)
;
    }
    defaultFaces
    {
        type            empty;
    }
}


// ************************************************************************* //
