/*--------------------------------*- C++ -*----------------------------------*\
  =========                 |
  \\      /  F ield         | OpenFOAM: The Open Source CFD Toolbox
   \\    /   O peration     | Website:  https://openfoam.org
    \\  /    A nd           | Version:  13
     \\/     M anipulation  |
\*---------------------------------------------------------------------------*/
FoamFile
{
    format      ascii;
    class       volScalarField;
    location    "2.45";
    object      epsilon;
}
// * * * * * * * * * * * * * * * * * * * * * * * * * * * * * * * * * * * * * //

dimensions      [0 2 -3 0 0 0 0];

internalField   nonuniform List<scalar> 
2268
(
0.00325517
0.0152208
0.0295376
0.0439864
0.0582933
0.0722929
0.0857198
0.0982343
0.109456
0.119014
0.126606
0.132075
0.135425
0.136965
0.137848
0.137296
0.134776
0.129688
0.121072
0.107367
0.0861614
0.0542954
0.00892173
0.00612517
0.0102757
0.0155593
0.0209554
0.0263373
0.0316473
0.0368054
0.0417132
0.0462667
0.0503715
0.053962
0.0570201
0.0595853
0.0617861
0.0638805
0.0655451
0.0664588
0.0662551
0.064378
0.0599247
0.051485
0.0377022
0.021972
0.0100497
0.0112902
0.0146677
0.0183357
0.0220996
0.0258741
0.0295807
0.0331444
0.0364985
0.0395916
0.0423959
0.0449146
0.0471838
0.0492695
0.0512442
0.0529504
0.0541695
0.0546326
0.05395
0.0515391
0.0466355
0.0392079
0.0409832
0.0138864
0.0131446
0.0156111
0.018589
0.0217705
0.0250198
0.0282355
0.031338
0.0342675
0.0369835
0.0394681
0.0417285
0.0437939
0.0457041
0.0474842
0.0490473
0.0502385
0.0508635
0.050662
0.049309
0.0465828
0.0436498
0.0610678
0.0178355
0.0153833
0.0172503
0.0198582
0.0227746
0.0258046
0.0288177
0.0317237
0.0344615
0.0369935
0.0393042
0.0414
0.0433047
0.0450456
0.0466342
0.0480241
0.0491088
0.0497609
0.0498393
0.0492589
0.0483159
0.0494388
0.0820442
0.0223745
0.018028
0.019355
0.0217109
0.0244932
0.0274321
0.0303629
0.0331828
0.0358269
0.0382565
0.0404548
0.0424266
0.0441921
0.0457742
0.0471827
0.0483989
0.0493571
0.0499924
0.0502769
0.0503565
0.0510583
0.0563486
0.105516
0.0282013
0.0212499
0.0218861
0.0240052
0.0267075
0.0296145
0.032519
0.0353051
0.0379022
0.0402685
0.0423845
0.0442523
0.0458907
0.0473229
0.0485626
0.049614
0.0504478
0.0510579
0.0515236
0.0522079
0.0544928
0.0645197
0.138436
0.0360279
0.0250248
0.0247251
0.0266066
0.0292626
0.0321745
0.0350879
0.037873
0.0404533
0.042782
0.0448353
0.046613
0.0481344
0.0494247
0.0505053
0.0514053
0.0521269
0.0527182
0.0533534
0.0545767
0.0582491
0.073343
0.213669
0.0085776
0.0485575
0.0804409
0.100483
0.110506
0.116086
0.115065
0.111747
0.117364
0.121671
0.116489
0.100085
0.0849217
0.0809854
0.0745116
0.0613772
0.0466118
0.026926
0.00633294
0.0173527
0.0326797
0.0462756
0.0559818
0.0626041
0.0660077
0.0658624
0.0647599
0.0628914
0.0603006
0.0554279
0.048962
0.0429958
0.0386913
0.0347041
0.0297694
0.0242695
0.017345
0.00940992
0.029734
0.0350966
0.0431579
0.0490898
0.053881
0.0580415
0.0581409
0.0566285
0.0549732
0.0523279
0.0475508
0.0422984
0.037419
0.0330664
0.029346
0.0259061
0.0224725
0.0186426
0.0157767
0.0420065
0.0412814
0.0454164
0.0483215
0.0509373
0.054725
0.0555682
0.0542716
0.0531335
0.051321
0.0467574
0.0416386
0.0367663
0.0322033
0.0285662
0.0258733
0.0238068
0.0224814
0.0234509
0.0585604
0.051106
0.0504174
0.0500384
0.0504667
0.0521706
0.0531843
0.052563
0.0516982
0.0509451
0.0474832
0.0426217
0.0375096
0.0326748
0.0291262
0.0270206
0.0261897
0.0272401
0.0369076
0.0872332
0.0660156
0.0575828
0.0533537
0.0514818
0.0512696
0.0512065
0.050545
0.0496798
0.048934
0.0465693
0.0431848
0.0389601
0.033744
0.0300525
0.0282149
0.027689
0.0294688
0.0485659
0.138405
0.0853063
0.0654714
0.057188
0.0533347
0.0513374
0.0503112
0.0492515
0.0482284
0.0471238
0.0450565
0.0425216
0.0396686
0.0350335
0.0312299
0.0289356
0.027712
0.0280314
0.0421285
0.220132
0.102498
0.0709381
0.0600427
0.0551967
0.05188
0.0500717
0.048709
0.0474915
0.0461191
0.0441521
0.0418519
0.0392335
0.0356041
0.0321318
0.0296268
0.027926
0.0274133
0.0361501
0.0476235
0.030576
0.0292476
0.0309026
0.0335635
0.0365327
0.0394967
0.0423124
0.0448949
0.047191
0.0491722
0.050838
0.0522089
0.0533142
0.0541814
0.054869
0.0554337
0.0559918
0.0568217
0.0586159
0.0632689
0.0769239
0.126453
0.0700683
0.0400501
0.0367916
0.0380218
0.0406286
0.0436097
0.0465757
0.049374
0.0519105
0.0541287
0.0559988
0.0575233
0.0587325
0.0596534
0.0603171
0.0608019
0.0612383
0.0617623
0.0626443
0.0644733
0.0684982
0.0772962
0.0954921
0.0982993
0.0517781
0.0457433
0.0461096
0.0483697
0.0511466
0.0539508
0.0566036
0.0590023
0.0610907
0.0628347
0.0642369
0.0653289
0.0661418
0.0667115
0.0671192
0.0675231
0.0680343
0.0688535
0.0703814
0.0731935
0.0780517
0.0851028
0.132652
0.0662055
0.0561679
0.0550788
0.0565679
0.0588326
0.0612566
0.0635931
0.0657367
0.0676303
0.0692143
0.0704804
0.0714595
0.0721723
0.0726629
0.0730472
0.0734174
0.0738423
0.0744403
0.0754332
0.0769533
0.0791177
0.0815649
0.175192
0.0822913
0.0677125
0.0646829
0.0649774
0.0663733
0.0681002
0.0698719
0.0716059
0.0732132
0.0745778
0.075658
0.076474
0.0770461
0.0774298
0.0777376
0.0780034
0.0782025
0.0784255
0.0787625
0.0791603
0.0795875
0.0797213
0.227913
0.100068
0.0799047
0.074512
0.0731648
0.0732029
0.0737912
0.0746627
0.0757742
0.0769873
0.0781026
0.0790201
0.0797228
0.0802158
0.0805495
0.0807889
0.0809241
0.0809289
0.0808621
0.0807342
0.0804845
0.0800878
0.0793393
0.264187
0.116433
0.0928036
0.085101
0.081451
0.0793985
0.0783781
0.0781338
0.0785066
0.0792758
0.0801572
0.0809619
0.0816159
0.0820993
0.082434
0.0826401
0.0827023
0.0826172
0.0824209
0.0821022
0.0816098
0.0808969
0.0798345
0.260114
0.129558
0.10732
0.0981262
0.0913358
0.0861477
0.082787
0.0810967
0.0806317
0.0809184
0.08154
0.0822261
0.082837
0.0833116
0.0836361
0.0838089
0.0838276
0.083711
0.0834875
0.0831408
0.0826152
0.0818337
0.0806831
0.238574
0.142033
0.123363
0.114675
0.103714
0.0938472
0.0873114
0.0838023
0.0823503
0.082107
0.0824519
0.0830203
0.0835975
0.0840736
0.0844042
0.0845751
0.084592
0.0844847
0.0842872
0.0839927
0.0835398
0.0828252
0.0817617
0.243878
0.153214
0.135388
0.135965
0.119757
0.102309
0.0917832
0.085967
0.0832904
0.0825383
0.0826954
0.0831976
0.0837891
0.0843275
0.0847347
0.0849821
0.0850688
0.0850256
0.0849032
0.0847273
0.0844462
0.0839034
0.0829995
0.288851
0.15633
0.134261
0.12661
0.115136
0.101558
0.0913041
0.0851047
0.0823577
0.0816741
0.0818915
0.0824048
0.0829431
0.083369
0.0836259
0.083711
0.0836495
0.0834876
0.0832773
0.0830345
0.0826956
0.0821548
0.0813924
0.295894
0.145895
0.119437
0.111365
0.10181
0.0923087
0.0853679
0.0813707
0.0797613
0.0795901
0.0800201
0.0806143
0.0811728
0.0815815
0.0817897
0.081799
0.0816408
0.081364
0.081015
0.0806063
0.0801065
0.0794635
0.078672
0.255437
0.125348
0.104357
0.0963716
0.0893809
0.0834564
0.0792617
0.0769808
0.0762492
0.0765008
0.0771938
0.077956
0.0786161
0.0790981
0.0793721
0.0794423
0.0793318
0.0790746
0.0787029
0.078232
0.077657
0.0769645
0.0761599
0.231613
0.108711
0.0911293
0.0842785
0.079518
0.0758057
0.0733861
0.0722831
0.0722218
0.0728463
0.0737906
0.074753
0.0755728
0.0762012
0.076624
0.0768432
0.0768706
0.0767255
0.0764296
0.0759998
0.0754459
0.0747689
0.0739631
0.195709
0.093468
0.0793332
0.0743615
0.0712483
0.069053
0.0678061
0.0675035
0.0679613
0.0689209
0.0700916
0.0712305
0.0722061
0.0729961
0.0735928
0.0739932
0.0741982
0.0742156
0.0740589
0.0737441
0.0732866
0.0726916
0.0719444
0.162474
0.0803456
0.0693192
0.0658935
0.0640673
0.0629557
0.0625331
0.0628061
0.0636596
0.0648882
0.0662334
0.0674981
0.068602
0.0695388
0.070302
0.0708807
0.0712677
0.0714624
0.0714718
0.0713089
0.0709905
0.0705227
0.0698865
0.13463
0.0696869
0.0611862
0.0588791
0.0579224
0.0575463
0.0576886
0.0583481
0.0594457
0.0608237
0.0622698
0.0636177
0.064824
0.0658845
0.0667897
0.0675245
0.0680763
0.0684388
0.0686138
0.068611
0.0684466
0.0681277
0.0676351
0.113828
0.0618209
0.0549743
0.0532977
0.0528412
0.0529067
0.0533854
0.0542498
0.0554362
0.0568318
0.0582963
0.0596859
0.060962
0.0621137
0.0631273
0.0639855
0.0646727
0.0651786
0.0655012
0.0656475
0.0656331
0.0654658
0.0651277
0.10078
0.0565329
0.050436
0.0489806
0.0487341
0.0490065
0.0496345
0.050561
0.0517279
0.0530554
0.0544539
0.0558308
0.0571312
0.0583311
0.0594121
0.0603544
0.0611402
0.0617567
0.0621995
0.0624737
0.0625933
0.0625669
0.0623789
0.0929593
0.0529617
0.0470477
0.0455858
0.0453768
0.0457063
0.046363
0.0472641
0.0483535
0.0495737
0.0508654
0.0521761
0.0534467
0.0546468
0.0557514
0.0567358
0.0575809
0.0582726
0.0588046
0.0591802
0.0594119
0.0595081
0.059455
0.0878532
0.0501392
0.0442703
0.0427483
0.0425121
0.0428297
0.0434589
0.0442996
0.0452955
0.0464026
0.0475802
0.0487918
0.0499974
0.0511562
0.0522413
0.0532285
0.0540971
0.0548302
0.0554211
0.0558714
0.0561911
0.0563881
0.0564504
0.0840562
0.0475931
0.0417643
0.0402017
0.0399341
0.0402245
0.0408147
0.0415947
0.0425075
0.0435161
0.0445896
0.0457
0.046821
0.0479151
0.0489539
0.0499136
0.0507743
0.0515206
0.0521448
0.0526455
0.0530309
0.0533073
0.0534637
0.0806721
0.0451117
0.0393656
0.0378003
0.0375194
0.0377914
0.0383524
0.0390873
0.0399386
0.0408718
0.0418613
0.0428846
0.0439207
0.0449425
0.0459228
0.0468397
0.047675
0.0484148
0.0490512
0.0495827
0.0500146
0.0503515
0.0505828
0.0772121
0.0426264
0.037022
0.0354889
0.0352144
0.035482
0.0360283
0.0367367
0.0375486
0.0384304
0.0393586
0.0403139
0.041278
0.0422332
0.0431558
0.0440265
0.0448299
0.0455539
0.0461915
0.0467405
0.0472045
0.0475865
0.0478764
0.0734915
0.0401378
0.0347346
0.0332612
0.0330087
0.0332833
0.0338271
0.034524
0.0353146
0.036165
0.0370528
0.0379601
0.0388713
0.0397723
0.0406458
0.0414757
0.0422492
0.0429565
0.0435914
0.0441518
0.0446397
0.0450567
0.0453937
0.069503
0.0376729
0.0325233
0.0311313
0.0309123
0.0312024
0.0317523
0.0324479
0.0332299
0.034064
0.0349278
0.0358046
0.0366803
0.037543
0.0383803
0.0391798
0.0399311
0.0406264
0.0412607
0.041832
0.0423412
0.0427887
0.0431662
0.0653378
0.0352676
0.0304127
0.0291197
0.0289442
0.0292564
0.0298183
0.0305192
0.0313008
0.0321286
0.0329804
0.0338399
0.0346946
0.035534
0.036349
0.0371303
0.0378698
0.0385614
0.0392012
0.0397873
0.0403196
0.0407976
0.0412136
0.061126
0.0329618
0.0284295
0.0272499
0.0271267
0.0274669
0.0280452
0.0287557
0.0295416
0.0303693
0.0312168
0.0320686
0.0329131
0.0337414
0.0345468
0.0353221
0.0360612
0.0367594
0.0374135
0.0380214
0.0385823
0.0390945
0.0395506
0.0570162
0.0307993
0.0266035
0.025548
0.0254847
0.025858
0.026456
0.0271784
0.0279711
0.0288016
0.0296491
0.0304991
0.0313413
0.0321682
0.0329746
0.0337554
0.0345059
0.0352222
0.0359013
0.0365409
0.0371388
0.037692
0.0381932
0.0531517
0.0288286
0.024969
0.0240432
0.024045
0.0244548
0.0250742
0.0258091
0.0266085
0.0274424
0.0282914
0.0291429
0.0299879
0.0308212
0.0316386
0.0324363
0.0332107
0.0339583
0.0346758
0.0353595
0.0360057
0.0366098
0.0371635
0.0496629
0.0271012
0.0235636
0.0227673
0.0228357
0.0232826
0.0239224
0.0246676
0.0254714
0.0263066
0.0271566
0.0280109
0.028863
0.0297098
0.0305483
0.031376
0.0321895
0.0329848
0.0337572
0.0345012
0.0352104
0.035878
0.0364944
0.0466481
0.0256672
0.0224269
0.0217536
0.0218855
0.0223657
0.023021
0.0237709
0.0245734
0.0254055
0.0262539
0.0271117
0.0279753
0.0288442
0.0297171
0.030592
0.0314649
0.0323299
0.0331795
0.0340046
0.0347956
0.0355424
0.0362336
0.044166
0.0245701
0.0215973
0.0210361
0.0212232
0.0217277
0.0223882
0.0231322
0.0239237
0.0247451
0.0255881
0.0264501
0.0273322
0.0282365
0.0291638
0.0301115
0.0310731
0.0320387
0.0329955
0.0339293
0.0348254
0.0356701
0.0364498
0.0422248
0.0238441
0.0211138
0.0206527
0.0208815
0.0213934
0.0220407
0.0227608
0.0235262
0.0243261
0.0251587
0.026028
0.0269407
0.0279032
0.0289174
0.0299781
0.0310729
0.0321833
0.0332882
0.0343655
0.0353947
0.0363577
0.0372393
0.040793
0.023522
0.0210306
0.0206597
0.0209071
0.0213956
0.021997
0.0226639
0.0233798
0.024143
0.0249606
0.0258451
0.0268116
0.0278718
0.0290274
0.0302658
0.031561
0.0328795
0.0341863
0.0354494
0.0366417
0.0377423
0.0387354
0.0398364
0.0236811
0.0214669
0.0211707
0.0213856
0.0217869
0.0222825
0.0228469
0.0234781
0.0241846
0.0249841
0.0259014
0.0269641
0.0281916
0.0295812
0.0311012
0.0326985
0.0343127
0.0358887
0.0373831
0.038765
0.0400143
0.0411192
0.0394624
0.0246117
0.0227606
0.0224553
0.0224897
0.0226592
0.0229332
0.0233132
0.0238073
0.0244317
0.025215
0.0261997
0.0274346
0.0289514
0.0307329
0.0327025
0.0347521
0.0367774
0.0386969
0.0404602
0.0420418
0.0434314
0.0446287
0.0404775
0.0274791
0.0259338
0.0251649
0.0245609
0.0241601
0.0239929
0.024056
0.0243404
0.0248533
0.0256318
0.0267465
0.0282866
0.0303093
0.0327568
0.0354448
0.0381581
0.0407291
0.0430527
0.0450896
0.0468414
0.0483257
0.049565
0.047286
0.0369076
0.0340131
0.0307768
0.0281935
0.0264763
0.0254828
0.0250383
0.0250248
0.0253994
0.0262002
0.0275487
0.0296242
0.0325531
0.0361531
0.0399821
0.0436183
0.0468448
0.0495652
0.0518005
0.0536208
0.0550966
0.056285
0.0895416
0.0682894
0.053968
0.0418498
0.0340914
0.0296899
0.0273209
0.0261547
0.0257665
0.0259913
0.0268607
0.0285983
0.0316122
0.036278
0.0419015
0.0474943
0.052238
0.056062
0.0589908
0.0611999
0.0628809
0.0641761
0.0651797
0.326162
0.143117
0.0880939
0.0589328
0.0419799
0.0333804
0.029187
0.0271932
0.0264215
0.0265164
0.0275079
0.0298275
0.0345183
0.0432172
0.0521756
0.0602091
0.0656822
0.069519
0.0721001
0.0738462
0.0750737
0.0759707
0.0766425
1.58104
0.207837
0.108724
0.0726928
0.0485192
0.036159
0.0304543
0.0278471
0.0268158
0.0268363
0.0279591
0.0309511
0.0385285
0.0613169
0.0728856
0.0822046
0.0860446
0.0881708
0.0893497
0.0900404
0.0904848
0.0907944
0.0910211
0.364555
0.293879
0.255063
0.252766
0.116306
0.11852
0.117268
0.114777
0.0894667
0.0908586
0.0909402
0.0898916
0.0822008
0.0820451
0.0814453
0.080411
0.0791155
0.078497
0.077693
0.0766943
0.0783437
0.0775778
0.0767045
0.0757309
0.0787264
0.0779313
0.0770633
0.0761379
0.0795241
0.0787303
0.0779169
0.0770996
0.0807123
0.0799909
0.0792569
0.0785359
0.0820887
0.0814653
0.0808588
0.0802684
0.0807112
0.0802773
0.0798765
0.0795113
0.0780114
0.0775938
0.0772021
0.0768259
0.0754806
0.0750226
0.0745605
0.0740992
0.0732678
0.0727957
0.0723076
0.0718056
0.0712812
0.07083
0.0703544
0.069851
0.0693034
0.0689061
0.0684799
0.068016
0.0671639
0.0668418
0.0664902
0.0660966
0.0647802
0.0645413
0.0642748
0.063966
0.0621515
0.0619929
0.0618102
0.0615872
0.0593351
0.0592472
0.0591388
0.0589937
0.0564204
0.0563908
0.0563442
0.0562647
0.053506
0.0535221
0.0535239
0.0534971
0.0506817
0.0507327
0.0507718
0.0507857
0.0480192
0.0480964
0.0481634
0.048209
0.0455711
0.0456685
0.0457567
0.0458265
0.0433728
0.0434871
0.0435925
0.0436819
0.0414478
0.0415779
0.0416993
0.0418061
0.0398135
0.0399602
0.0400978
0.0402217
0.038488
0.0386536
0.0388091
0.0389511
0.0374952
0.0376828
0.037859
0.0380211
0.0368693
0.037083
0.0372832
0.0374677
0.0366589
0.0369027
0.0371302
0.0373397
0.0369327
0.0372105
0.0374681
0.0377042
0.0377854
0.0380999
0.0383891
0.0386523
0.0393471
0.039698
0.0400175
0.0403051
0.0417907
0.042173
0.0425164
0.0428214
0.045342
0.0457429
0.0460969
0.0464056
0.0502837
0.0506802
0.0510229
0.0513142
0.0569526
0.0573115
0.0576128
0.0578598
0.0657233
0.0660057
0.0662339
0.0664101
0.0769907
0.0771626
0.0772943
0.0773869
0.0911308
0.0911802
0.0912164
0.0912391
0.149744
0.0982384
0.0734122
0.0623469
0.0570878
0.0530166
0.0503762
0.0486007
0.0471176
0.0454916
0.0435468
0.0414208
0.0389575
0.0360508
0.0333062
0.030975
0.0290182
0.0281642
0.0333191
0.104072
0.0849799
0.0708816
0.0626205
0.0578545
0.0542634
0.0516173
0.049685
0.0480318
0.0462632
0.044298
0.0422433
0.039918
0.0373845
0.0351836
0.0333821
0.0315574
0.029688
0.0349404
0.0857892
0.0765912
0.068473
0.0626217
0.0585214
0.055396
0.0530081
0.0511307
0.0494648
0.0477096
0.0458085
0.043823
0.04163
0.0393303
0.0373762
0.0358217
0.0341336
0.0321848
0.043248
0.0777946
0.0724626
0.067301
0.0631387
0.0598671
0.0570298
0.0546467
0.0526751
0.0509179
0.0491546
0.0473157
0.0454322
0.0434572
0.0414563
0.0396814
0.0381147
0.0364101
0.0355957
0.0588097
0.0746458
0.0709741
0.0673429
0.0642525
0.0616401
0.0591298
0.0567517
0.0546009
0.0526434
0.0507523
0.0488615
0.0469839
0.045121
0.0432908
0.0415569
0.0398714
0.0383199
0.039599
0.0792298
0.0739341
0.071095
0.0683426
0.0659291
0.0637561
0.0615398
0.059244
0.0569928
0.0548662
0.0528255
0.0508255
0.0488652
0.0469552
0.0451021
0.0433093
0.0415869
0.0403416
0.0430026
0.0912884
0.0745165
0.0721952
0.0700252
0.0680906
0.0662486
0.0642595
0.0620703
0.0598042
0.0575841
0.0554329
0.0533244
0.0512537
0.0492228
0.0472534
0.0453933
0.0437575
0.0428718
0.046116
0.0974793
0.0757366
0.0739044
0.0722572
0.0707871
0.0692956
0.0675213
0.06542
0.0631463
0.0608831
0.0586685
0.0564555
0.0542676
0.0521038
0.0499909
0.0480547
0.0466044
0.0460898
0.0491258
0.0993301
0.0773865
0.0760643
0.0750359
0.0742055
0.0732402
0.0717101
0.0695835
0.0671789
0.06488
0.0626718
0.0603431
0.0580737
0.0558388
0.0536043
0.0514344
0.0497235
0.0490292
0.0516022
0.103351
0.0793713
0.0786838
0.0784783
0.0786199
0.0785058
0.0771721
0.074681
0.0717893
0.0694649
0.0673994
0.0649077
0.0623155
0.0600466
0.0579032
0.055193
0.0523197
0.0501323
0.0501411
0.0973595
0.0790247
0.0786986
0.0788883
0.0796072
0.08
0.0788539
0.0762095
0.0733631
0.0716567
0.0703039
0.068001
0.0649696
0.0621636
0.0596268
0.0561581
0.0521777
0.0491893
0.0480625
0.0775394
0.0762631
0.0756573
0.0753665
0.0753307
0.0749428
0.0737442
0.0718293
0.0701091
0.069005
0.0678737
0.0655953
0.0625233
0.059707
0.0569335
0.0537659
0.0506964
0.0485465
0.0487294
0.0673309
0.0733799
0.072461
0.0716993
0.0710566
0.0701315
0.0686826
0.066921
0.0653606
0.0641197
0.0627713
0.0607378
0.0580775
0.0556028
0.0534482
0.0514684
0.0499557
0.0495742
0.0514189
0.0660318
0.0709817
0.0698056
0.0686846
0.0676189
0.0664228
0.0649078
0.0631626
0.0614422
0.0598981
0.058322
0.0564887
0.054495
0.0527403
0.051383
0.0504615
0.0502639
0.0512677
0.0544372
0.0698766
0.0689826
0.0676453
0.0663013
0.0649983
0.0636906
0.0622491
0.0606147
0.058881
0.0571878
0.0555454
0.0539499
0.0524949
0.0513189
0.050513
0.0502047
0.0506746
0.0523878
0.0566735
0.0755783
0.0671736
0.0657937
0.0643729
0.0629864
0.0616532
0.0602947
0.0588145
0.0572025
0.0555576
0.0539757
0.0525438
0.0513378
0.0504014
0.0497925
0.0496593
0.0502967
0.0522835
0.0575206
0.0807993
0.0653379
0.0640179
0.0626331
0.0612634
0.0599533
0.0586611
0.0572997
0.0558274
0.0542929
0.0527951
0.0514311
0.0502634
0.0493214
0.0486632
0.0484474
0.0490008
0.0510538
0.0570803
0.0849908
0.063325
0.0621289
0.0608462
0.0595479
0.0582842
0.0570403
0.055754
0.054381
0.0529418
0.051506
0.0501512
0.0489323
0.0478892
0.0470972
0.0467323
0.0471621
0.0492488
0.0559215
0.0882596
0.0610737
0.06003
0.058879
0.0576783
0.0564754
0.0552733
0.054035
0.0527271
0.0513543
0.0499592
0.048599
0.0473232
0.0461854
0.0452809
0.0448054
0.0451611
0.0473027
0.0544749
0.0904448
0.0586029
0.0577154
0.0567041
0.0556124
0.0544828
0.0533291
0.052134
0.0508766
0.0495566
0.0481995
0.0468479
0.0455485
0.0443647
0.0434071
0.0428863
0.0432272
0.0454367
0.0529655
0.0915798
0.0559824
0.0552428
0.0543678
0.0533897
0.0523452
0.0512535
0.0501111
0.0489079
0.0476438
0.0463359
0.0450182
0.0437359
0.0425583
0.041604
0.0410915
0.0414549
0.0437248
0.0514679
0.09186
0.0533069
0.0527005
0.0519537
0.0510897
0.0501395
0.0491246
0.0480497
0.0469127
0.0457158
0.044473
0.0432129
0.0419815
0.0408485
0.0399357
0.0394624
0.0398618
0.0421718
0.0500062
0.0914585
0.0506706
0.0501818
0.049553
0.0488005
0.0479502
0.0470235
0.0460294
0.0449709
0.0438527
0.0426882
0.0415034
0.0403431
0.0392766
0.0384241
0.0380012
0.0384351
0.0407537
0.0485817
0.0905672
0.0481558
0.0477691
0.0472473
0.0466013
0.0458523
0.0450199
0.0441148
0.0431429
0.0421109
0.041032
0.0399309
0.03885
0.0378576
0.0370701
0.0366968
0.0371558
0.03946
0.0472204
0.0893435
0.0458239
0.0455271
0.0451019
0.0445558
0.0439054
0.0431682
0.0423548
0.0414721
0.040528
0.0395357
0.0385189
0.0375174
0.0365974
0.0358709
0.0355407
0.036014
0.0382889
0.0459473
0.0879856
0.0437216
0.0435036
0.0431652
0.0427112
0.0421546
0.0415097
0.040786
0.0399904
0.0391312
0.0382216
0.0372841
0.0363566
0.0355025
0.0348296
0.0345344
0.035015
0.0372561
0.0448111
0.0866408
0.0418828
0.0417354
0.0414752
0.0411051
0.0406349
0.0400761
0.0394366
0.038723
0.0379431
0.0371097
0.0362443
0.035383
0.0345867
0.0339594
0.0336927
0.034178
0.0363889
0.043848
0.0854919
0.0403338
0.0402514
0.0400626
0.0397688
0.0393774
0.0388974
0.0383352
0.0376965
0.0369885
0.0362235
0.0354221
0.0346189
0.0338724
0.033284
0.0330415
0.0335322
0.0357247
0.0431331
0.084628
0.0390987
0.0390781
0.0389557
0.0387318
0.0384122
0.0380039
0.0375119
0.0369409
0.0362976
0.0355939
0.0348493
0.0340974
0.0333948
0.0328404
0.03262
0.0331197
0.0353083
0.042703
0.0842256
0.0382058
0.0382458
0.0381861
0.0380269
0.037773
0.03743
0.0370016
0.0364921
0.0359076
0.0352595
0.0345671
0.0338625
0.0332006
0.0326788
0.0324816
0.032996
0.0351972
0.0426277
0.084364
0.0376916
0.0377921
0.0377925
0.0376937
0.0375002
0.0372168
0.0368467
0.0363936
0.0358638
0.0352685
0.0346263
0.0339684
0.0333485
0.0328626
0.0326945
0.0332338
0.0354679
0.04299
0.0852702
0.0376056
0.0377663
0.0378243
0.0377817
0.0376436
0.0374147
0.0370981
0.0366978
0.0362204
0.0356773
0.0350867
0.0344796
0.0339087
0.033469
0.0333435
0.0339256
0.0362212
0.0438983
0.0870432
0.0380134
0.0382332
0.0383452
0.0383536
0.038265
0.0380848
0.0378168
0.0374658
0.0370395
0.0365499
0.036016
0.0354692
0.0349622
0.0345891
0.0345327
0.0351904
0.0375935
0.0455207
0.0900836
0.0390038
0.0392779
0.0394369
0.0394881
0.0394402
0.0393001
0.0390732
0.0387661
0.0383887
0.0379546
0.0374854
0.0370148
0.0365972
0.0363273
0.036388
0.037181
0.0397684
0.0480798
0.0946944
0.0406931
0.0410107
0.0412039
0.0412838
0.0412615
0.0411461
0.0409459
0.0406709
0.0403346
0.0399557
0.0395609
0.0391892
0.0389003
0.0387938
0.0390558
0.0400938
0.043004
0.0519281
0.101655
0.0432329
0.043574
0.0437795
0.0438637
0.0438397
0.0437192
0.0435151
0.043245
0.0429299
0.0425982
0.0422854
0.0420406
0.0419366
0.0420874
0.0426918
0.0441706
0.0476649
0.057596
0.111893
0.0468175
0.0471503
0.0473341
0.0473823
0.0473068
0.0471222
0.0468521
0.0465274
0.0461886
0.0458791
0.0456474
0.0455599
0.045715
0.0462604
0.0474333
0.049696
0.0542739
0.0659934
0.127463
0.0516928
0.0519743
0.0520887
0.0520384
0.0518215
0.0514558
0.050994
0.0504987
0.0500472
0.0497058
0.0495379
0.0496337
0.0501357
0.051261
0.0533381
0.0569487
0.0635496
0.0786968
0.152048
0.0581646
0.0583476
0.0583384
0.0580998
0.0575793
0.0568046
0.0559045
0.055026
0.0543092
0.0538441
0.0537003
0.0539925
0.0549311
0.0568557
0.0602743
0.0660425
0.0763081
0.0986058
0.194982
0.0666065
0.0666601
0.0664885
0.0659553
0.0648437
0.0632333
0.0613953
0.0597809
0.0585819
0.0578744
0.0576981
0.0581798
0.0596209
0.0625486
0.0677463
0.0765011
0.0926515
0.130353
0.282318
0.0774669
0.0774072
0.0771065
0.0762347
0.0740939
0.0710045
0.066982
0.0641227
0.0622333
0.0611941
0.0609385
0.0615785
0.0635186
0.0675231
0.074689
0.0865717
0.10936
0.175884
0.514541
0.091248
0.0911863
0.090964
0.0901201
0.0869992
0.0826647
0.0715853
0.066987
0.0644337
0.0631152
0.0627853
0.0635221
0.0658131
0.0706448
0.0793651
0.0931248
0.116907
0.196125
1.46251
)
;

boundaryField
{
    leftWall
    {
        type            epsilonWallFunction;
        value           nonuniform List<scalar> 
50
(
0.00325517
0.00612517
0.0100497
0.0138864
0.0178355
0.0223745
0.0282013
0.0360279
0.0476235
0.0700683
0.0982993
0.132652
0.175192
0.227913
0.264187
0.260114
0.238574
0.243878
0.288851
0.295894
0.255437
0.231613
0.195709
0.162474
0.13463
0.113828
0.10078
0.0929593
0.0878532
0.0840562
0.0806721
0.0772121
0.0734915
0.069503
0.0653378
0.061126
0.0570162
0.0531517
0.0496629
0.0466481
0.044166
0.0422248
0.040793
0.0398364
0.0394624
0.0404775
0.047286
0.0895416
0.326162
1.58104
)
;
    }
    rightWall
    {
        type            epsilonWallFunction;
        value           nonuniform List<scalar> 
50
(
0.00633294
0.00940992
0.0157767
0.0234509
0.0369076
0.0485659
0.0421285
0.0361501
0.0333191
0.0349404
0.043248
0.0588097
0.0792298
0.0912884
0.0974793
0.0993301
0.103351
0.0973595
0.0775394
0.0673309
0.0660318
0.0698766
0.0755783
0.0807993
0.0849908
0.0882596
0.0904448
0.0915798
0.09186
0.0914585
0.0905672
0.0893435
0.0879856
0.0866408
0.0854919
0.084628
0.0842256
0.084364
0.0852702
0.0870432
0.0900836
0.0946944
0.101655
0.111893
0.127463
0.152048
0.194982
0.282318
0.514541
1.46251
)
;
    }
    lowerWall
    {
        type            epsilonWallFunction;
        value           nonuniform List<scalar> 
62
(
0.00325517
0.0152208
0.0295376
0.0439864
0.0582933
0.0722929
0.0857198
0.0982343
0.109456
0.119014
0.126606
0.132075
0.135425
0.136965
0.137848
0.137296
0.134776
0.129688
0.121072
0.107367
0.0861614
0.0542954
0.00892173
0.00892173
0.021972
0.0409832
0.0610678
0.0820442
0.105516
0.138436
0.213669
0.364555
0.293879
0.255063
0.252766
0.0085776
0.0173527
0.029734
0.0420065
0.0585604
0.0872332
0.138405
0.220132
0.0085776
0.0485575
0.0804409
0.100483
0.110506
0.116086
0.115065
0.111747
0.117364
0.121671
0.116489
0.100085
0.0849217
0.0809854
0.0745116
0.0613772
0.0466118
0.026926
0.00633294
)
;
    }
    atmosphere
    {
        type            inletOutlet;
        inletValue      uniform 0.1;
        value           nonuniform List<scalar> 
46
(
0.1
0.1
0.1
0.0726928
0.0485192
0.036159
0.0304543
0.0278471
0.0268158
0.0268363
0.0279591
0.0309511
0.0385285
0.1
0.1
0.1
0.1
0.1
0.1
0.1
0.1
0.1
0.1
0.1
0.1
0.1
0.1
0.1
0.1
0.1
0.1
0.1
0.1
0.0715853
0.066987
0.0644337
0.0631152
0.0627853
0.0635221
0.0658131
0.0706448
0.0793651
0.0931248
0.116907
0.1
0.1
)
;
    }
    defaultFaces
    {
        type            empty;
    }
}


// ************************************************************************* //
