/*--------------------------------*- C++ -*----------------------------------*\
  =========                 |
  \\      /  F ield         | OpenFOAM: The Open Source CFD Toolbox
   \\    /   O peration     | Website:  https://openfoam.org
    \\  /    A nd           | Version:  13
     \\/     M anipulation  |
\*---------------------------------------------------------------------------*/
FoamFile
{
    format      ascii;
    class       volScalarField;
    location    "2.45";
    object      k;
}
// * * * * * * * * * * * * * * * * * * * * * * * * * * * * * * * * * * * * * //

dimensions      [0 2 -2 0 0 0 0];

internalField   nonuniform List<scalar> 
2268
(
0.000825955
0.00233618
0.00364821
0.00476758
0.0057618
0.00665976
0.00746836
0.00818427
0.00879952
0.00930523
0.00969458
0.00996593
0.0101232
0.0101794
0.0101925
0.0101398
0.00999204
0.00971845
0.0092665
0.00854184
0.00737183
0.00541437
0.00163373
0.00208734
0.00541412
0.00804911
0.0103624
0.0124416
0.0143226
0.0160122
0.0175043
0.0187888
0.019857
0.0207059
0.0213411
0.0217765
0.0220306
0.0221213
0.022059
0.0218084
0.0213081
0.0204477
0.0190275
0.0166882
0.0128042
0.00490511
0.00291022
0.00723323
0.0105785
0.0135166
0.01616
0.0185457
0.0206803
0.022559
0.0241741
0.0255204
0.0265988
0.0274194
0.0280002
0.0283633
0.0285252
0.0284945
0.0282317
0.0276636
0.0266555
0.0249629
0.0221442
0.0173722
0.00744972
0.0036178
0.00877097
0.0127046
0.0161172
0.0191704
0.0219129
0.0243556
0.0264972
0.028334
0.0298649
0.0310945
0.0320357
0.0327088
0.0331366
0.0333346
0.0333115
0.0330285
0.0324092
0.0313119
0.0294778
0.0264293
0.0211712
0.00971662
0.00428599
0.0102589
0.0147635
0.0185933
0.0219882
0.0250188
0.0277042
0.0300486
0.0320531
0.0337206
0.0350589
0.0360831
0.0368149
0.0372771
0.0374847
0.0374477
0.0371307
0.0364609
0.0353015
0.0333985
0.0302612
0.024719
0.0118229
0.00500204
0.0118196
0.0168861
0.0210937
0.0247855
0.02806
0.0309458
0.0334542
0.0355913
0.0373636
0.0387813
0.039861
0.0406258
0.0410994
0.0412977
0.0412328
0.0408748
0.0401594
0.0389638
0.0370547
0.0339495
0.0283067
0.0139742
0.00585782
0.0135708
0.0191454
0.0236852
0.0276359
0.0311191
0.0341726
0.0368153
0.0390583
0.0409111
0.0423853
0.0434991
0.0442768
0.0447442
0.0449197
0.0448193
0.0444204
0.0436715
0.0424722
0.0406256
0.0376947
0.0322554
0.0167396
0.00691631
0.0155499
0.0215268
0.0263594
0.030541
0.0342086
0.0374074
0.0401643
0.0424954
0.044412
0.045927
0.0470592
0.0478354
0.0482834
0.0484257
0.0482882
0.0478548
0.0470902
0.045923
0.0442085
0.0416116
0.0369273
0.0223973
0.0015807
0.00500548
0.00701207
0.0081331
0.00867022
0.00896927
0.00890942
0.00876077
0.0090964
0.00935522
0.00907774
0.00820134
0.00737646
0.00716434
0.00673151
0.00590058
0.00490486
0.00339284
0.00128977
0.00446239
0.0115605
0.0157079
0.01808
0.0193143
0.0200957
0.0199158
0.0193691
0.0199534
0.0200054
0.0191613
0.0178597
0.0164072
0.0152775
0.013964
0.0123687
0.0103885
0.00749164
0.00296365
0.00640871
0.0152813
0.0204091
0.0234424
0.0251239
0.0261268
0.0260585
0.0256603
0.0259778
0.0257592
0.0245793
0.0230314
0.0212827
0.0194982
0.0176546
0.0156915
0.0133171
0.00987935
0.00420424
0.00801154
0.0182235
0.0240914
0.0274832
0.0292311
0.030277
0.0305182
0.0302444
0.0304125
0.0301113
0.0287176
0.0269232
0.0248491
0.0225851
0.020373
0.0182319
0.0157844
0.0123349
0.00551128
0.0099417
0.0208846
0.0274186
0.0309954
0.032697
0.0333203
0.0337098
0.0336305
0.0336448
0.0333815
0.0321051
0.0301832
0.0277839
0.0251298
0.0226685
0.0204587
0.0181089
0.0147848
0.00753059
0.0129796
0.0236636
0.0306364
0.0343173
0.0358874
0.0361976
0.0362601
0.0361039
0.0359104
0.0353835
0.034279
0.0326768
0.0304157
0.0273905
0.0246714
0.0223152
0.0197113
0.0160309
0.00902754
0.0176824
0.026939
0.0337823
0.0374583
0.038904
0.0389207
0.0386939
0.0383139
0.0378733
0.0370249
0.0358218
0.0343351
0.032422
0.0294647
0.0265395
0.0237341
0.0204854
0.0158327
0.00821023
0.0241294
0.0312313
0.0368632
0.0402318
0.0416536
0.0414466
0.0409946
0.0404337
0.0397604
0.0386802
0.0373359
0.0357435
0.0337379
0.0310493
0.0281138
0.0249881
0.0211654
0.0156283
0.00735761
0.00835203
0.0186893
0.025298
0.0305631
0.0350835
0.0390135
0.0424123
0.0453224
0.0477683
0.0497657
0.0513302
0.0524848
0.0532599
0.0536866
0.053788
0.0535967
0.0531216
0.0523544
0.0512695
0.0498096
0.0478357
0.0448746
0.0385142
0.0108102
0.0236302
0.0310763
0.0368329
0.0416985
0.0458592
0.0494057
0.0524103
0.054911
0.0569329
0.0584978
0.0596354
0.060384
0.0607741
0.0608278
0.0605791
0.0600848
0.0593541
0.0583911
0.0572125
0.0558419
0.0542549
0.0522411
0.013513
0.0288942
0.0371205
0.0432664
0.048349
0.052612
0.0561891
0.0591852
0.0616578
0.063646
0.0651775
0.0662868
0.0670157
0.0673978
0.0674584
0.0672318
0.0667946
0.0661598
0.0653405
0.0643831
0.0633244
0.0622091
0.0610255
0.0164298
0.0342682
0.043277
0.0496901
0.0548329
0.0590566
0.0625506
0.0654392
0.0678104
0.0697206
0.0711939
0.0722644
0.0729762
0.0733584
0.0734423
0.0732867
0.0729274
0.0723806
0.0716555
0.070793
0.0697831
0.0686545
0.0674181
0.0196646
0.0398957
0.0494143
0.0559239
0.0609715
0.0650081
0.0682686
0.0709231
0.0731117
0.0748971
0.0762851
0.0772976
0.0779747
0.078346
0.0784508
0.0783522
0.0780636
0.0775568
0.0768549
0.0759815
0.0749035
0.0736527
0.0722294
0.0232987
0.0452409
0.0551964
0.0617168
0.0665164
0.0701551
0.0729722
0.0752248
0.0771222
0.0787307
0.0800269
0.0810065
0.0816905
0.0820994
0.0822709
0.0822458
0.0820195
0.0815734
0.0809325
0.0801007
0.0790602
0.0778504
0.0764771
0.025473
0.0496087
0.0604755
0.0671251
0.0714966
0.0744671
0.0766526
0.078418
0.0799777
0.0813946
0.0826198
0.0836075
0.0843479
0.0848462
0.0851238
0.0851978
0.0850634
0.0847215
0.0841947
0.0834854
0.0825864
0.0815146
0.080267
0.0250887
0.0523657
0.065165
0.07253
0.0764233
0.0784488
0.0797556
0.080922
0.0821232
0.0833472
0.084502
0.0855078
0.0863195
0.0869176
0.0873013
0.0874746
0.0874413
0.0872177
0.0868273
0.0862727
0.0855421
0.0846238
0.0834954
0.0238197
0.0525142
0.0684465
0.0780057
0.0815793
0.0822587
0.0824273
0.0828785
0.0836828
0.0847118
0.0858028
0.0868381
0.0877338
0.0884412
0.08894
0.0892254
0.089305
0.0892031
0.0889484
0.088549
0.0879867
0.0872265
0.0862463
0.0243067
0.0525141
0.0703961
0.0844854
0.087668
0.0859479
0.0846812
0.0842024
0.084502
0.0853643
0.0864529
0.0875537
0.0885625
0.089411
0.0900581
0.0904893
0.0907085
0.0907405
0.0906243
0.0903863
0.0900112
0.0894282
0.0886026
0.0271696
0.0565033
0.0719398
0.0816971
0.0856439
0.0853857
0.0842799
0.0836921
0.0840564
0.0850651
0.0862979
0.0875132
0.0885958
0.089478
0.0901299
0.0905522
0.0907653
0.0908045
0.0907109
0.0905053
0.0901629
0.0896373
0.0889359
0.0285885
0.057707
0.0687534
0.0763197
0.0797169
0.080609
0.0808721
0.0814106
0.0824759
0.0838881
0.0853592
0.086728
0.0879167
0.0888716
0.089568
0.090012
0.0902302
0.0902622
0.0901472
0.0899035
0.0895223
0.0889829
0.0882928
0.0262296
0.0535742
0.0638723
0.0702263
0.0737329
0.0757231
0.0771415
0.0785763
0.0802111
0.0819803
0.0837179
0.0852846
0.0866167
0.0876852
0.0884809
0.0890147
0.0893118
0.0894054
0.0893271
0.0890957
0.0887158
0.0881858
0.0875151
0.0242076
0.0483582
0.0585267
0.0645506
0.06845
0.0711459
0.0733375
0.075418
0.0775134
0.0796062
0.0815971
0.0833735
0.0848761
0.086095
0.0870336
0.0877053
0.0881312
0.0883372
0.088349
0.0881856
0.0878588
0.0873727
0.086727
0.0214989
0.0431906
0.0531053
0.0592968
0.063583
0.0668204
0.0695565
0.0721031
0.0745728
0.0769575
0.0791771
0.0811413
0.0828059
0.0841797
0.0852738
0.0861016
0.0866794
0.0870273
0.0871662
0.0871137
0.0868841
0.0864824
0.0859005
0.0189569
0.0385167
0.0481144
0.054438
0.0590679
0.062724
0.0658661
0.0687647
0.0715299
0.0741548
0.0765587
0.0786697
0.0804727
0.081988
0.083231
0.0842126
0.0849455
0.0854452
0.0857281
0.0858099
0.0857049
0.0854181
0.0849369
0.0167005
0.0345308
0.0438034
0.0501748
0.0550221
0.0589644
0.0623891
0.065528
0.0684851
0.0712615
0.0737888
0.076008
0.0779251
0.0795632
0.080938
0.0820596
0.0829378
0.0835844
0.0840123
0.084235
0.0842663
0.0841111
0.0837558
0.0148839
0.0313803
0.0403142
0.0466315
0.0515646
0.0556586
0.0592355
0.0624941
0.065528
0.0683529
0.0709352
0.0732234
0.0752256
0.0769615
0.0784452
0.079686
0.0806918
0.0814711
0.0820341
0.0823923
0.0825592
0.0825402
0.0823217
0.0136376
0.0290562
0.037635
0.0438046
0.0487096
0.0528329
0.0564498
0.0597253
0.0627452
0.0655379
0.0680982
0.0704053
0.0724549
0.0742561
0.0758202
0.0771544
0.0782644
0.079156
0.0798373
0.0803184
0.0806119
0.0807239
0.0806419
0.0128733
0.0274023
0.0356295
0.0415991
0.0463948
0.0504555
0.0540207
0.0572337
0.0601761
0.0628866
0.0653776
0.0676515
0.0697002
0.0715286
0.0731414
0.0745395
0.075727
0.0767074
0.0774866
0.0780734
0.0784797
0.0787113
0.0787572
0.0123673
0.026258
0.0341327
0.0398648
0.0444945
0.0484296
0.051885
0.0549892
0.0578205
0.0604236
0.062822
0.0650274
0.0670413
0.0688601
0.0704855
0.0719174
0.0731561
0.0742008
0.0750566
0.0757305
0.0762329
0.0765694
0.0767301
0.0119945
0.0254108
0.032941
0.0384208
0.0428587
0.0466396
0.0499606
0.0529394
0.0556508
0.0581419
0.0604413
0.0625651
0.0645218
0.0663074
0.0679206
0.0693595
0.0706225
0.071709
0.0726216
0.0733643
0.0739461
0.0743719
0.0746322
0.0116685
0.024681
0.031884
0.0371169
0.0413621
0.0449859
0.0481721
0.0510298
0.0536295
0.0560178
0.0582248
0.0602691
0.0621612
0.0639017
0.0654878
0.0669171
0.0681874
0.0692972
0.0702479
0.0710428
0.0716884
0.0721886
0.0725338
0.0113375
0.0239569
0.030854
0.0358572
0.039923
0.0434018
0.0464663
0.0492181
0.0517228
0.0540249
0.056154
0.0581291
0.0599613
0.0616558
0.0632103
0.0646225
0.0658903
0.0670125
0.0679894
0.0688237
0.0695201
0.0700808
0.0704972
0.0109785
0.0231869
0.0298002
0.0345957
0.0385016
0.0418537
0.0448149
0.0474797
0.049909
0.052144
0.0542127
0.0561337
0.0579183
0.0595731
0.0610987
0.0624936
0.0637564
0.0648861
0.0658831
0.0667489
0.0674869
0.0680983
0.0685749
0.0105867
0.0223602
0.0287116
0.0333225
0.0370897
0.0403347
0.0432114
0.0458081
0.0481807
0.0503669
0.0523926
0.0542753
0.0560263
0.0576526
0.0591571
0.0605398
0.0618003
0.0629381
0.0639535
0.0648475
0.0656223
0.0662782
0.0668076
0.010168
0.0214893
0.0276008
0.0320501
0.0356996
0.0388564
0.0416663
0.0442115
0.0465435
0.0486967
0.0506947
0.0525537
0.0542845
0.0558946
0.0573883
0.0587671
0.0600314
0.0611814
0.0622174
0.0631401
0.0639506
0.0646483
0.0652263
0.00973393
0.0205995
0.026494
0.0308042
0.0343558
0.0374418
0.0402004
0.0427082
0.0450127
0.0471454
0.0491279
0.0509752
0.0526979
0.0543033
0.055797
0.0571813
0.0584576
0.0596264
0.0606881
0.061643
0.0624909
0.0632308
0.0638561
0.00929901
0.0197216
0.0254239
0.0296167
0.0330889
0.0361198
0.03884
0.0413216
0.0436086
0.0457303
0.0477066
0.0495517
0.0512759
0.0528869
0.0543908
0.0557906
0.0570881
0.0582842
0.0593788
0.0603716
0.0612614
0.0620462
0.0627196
0.00887891
0.0188884
0.0244246
0.0285212
0.031931
0.0349202
0.0376127
0.0400765
0.0423533
0.0444704
0.046447
0.048297
0.0500307
0.0516566
0.0531806
0.0546064
0.0559357
0.0571691
0.0583058
0.0593444
0.0602825
0.0611169
0.0618411
0.00848913
0.0181306
0.0235285
0.0275491
0.0309117
0.0338704
0.0365433
0.0389954
0.0412665
0.0433832
0.0453646
0.0472251
0.0489756
0.0506253
0.0521801
0.0536438
0.0550175
0.0563006
0.0574911
0.0585857
0.0595803
0.0604705
0.0612495
0.0081431
0.0174733
0.022762
0.0267261
0.0300551
0.0329926
0.035652
0.0380959
0.0403636
0.0424823
0.0444719
0.0463481
0.0481232
0.0498073
0.0514063
0.0529232
0.0543575
0.0557064
0.0569654
0.0581286
0.0591899
0.0601432
0.0609814
0.00785037
0.0169333
0.0221439
0.0260712
0.0293792
0.0323029
0.0349523
0.0373894
0.0396543
0.0417759
0.0437767
0.045675
0.0474854
0.0492187
0.0508808
0.0524723
0.0539896
0.0554258
0.0567722
0.0580196
0.0591592
0.0601832
0.0610844
0.00761512
0.0165187
0.0216858
0.0255979
0.0288972
0.0318124
0.0344525
0.0368812
0.0391416
0.0412665
0.0432827
0.0452126
0.0470743
0.0488799
0.0506336
0.0523316
0.0539638
0.0555163
0.0569743
0.058324
0.0595539
0.0606553
0.0616214
0.00743647
0.0162339
0.0214008
0.0253226
0.0286237
0.031531
0.0341573
0.0365716
0.038823
0.0409509
0.0429888
0.0449658
0.0469049
0.0488195
0.0507098
0.0525626
0.0543556
0.0560634
0.0576624
0.0591338
0.0604643
0.0616458
0.0626739
0.00731325
0.0160996
0.0213273
0.0252847
0.0285883
0.0314755
0.0340717
0.0364572
0.0386907
0.0408206
0.0428906
0.0449396
0.0469987
0.0490821
0.0511805
0.0532616
0.0552807
0.0571942
0.0589672
0.0605769
0.0620115
0.0632673
0.0643459
0.00726187
0.016218
0.0215982
0.0255949
0.0288618
0.0316806
0.0342052
0.0365321
0.038731
0.0408612
0.0429794
0.0451404
0.0473883
0.0497386
0.0521606
0.0545819
0.0569177
0.0590972
0.061074
0.062827
0.0643538
0.0656624
0.0667654
0.0073875
0.0170054
0.0226531
0.0265535
0.0296043
0.0322128
0.0345721
0.036785
0.0389224
0.04105
0.043241
0.0455755
0.0481238
0.0509059
0.0538412
0.0567721
0.0595411
0.0620457
0.0642363
0.0661091
0.0676866
0.0690003
0.0700813
0.00822611
0.0200327
0.0259197
0.0289408
0.0311442
0.0331773
0.0351834
0.0371917
0.0392294
0.0413514
0.0436493
0.0462486
0.0492804
0.0527878
0.0565571
0.0602476
0.0635725
0.0664224
0.0687788
0.0706897
0.0722285
0.0734641
0.0744516
0.0126327
0.0302136
0.0354389
0.0345394
0.034042
0.0346835
0.0360155
0.0376979
0.0395948
0.0417103
0.0441559
0.0471462
0.0509734
0.0558089
0.0609519
0.0657376
0.0696494
0.072725
0.0750688
0.0768389
0.0781853
0.079221
0.080023
0.0298862
0.054923
0.0565929
0.0455067
0.0387326
0.0366661
0.0369404
0.0381988
0.0399346
0.0420466
0.0446721
0.0481992
0.0533882
0.06122
0.068441
0.0745743
0.0786829
0.0815022
0.0834211
0.0847453
0.0856886
0.0863828
0.0869056
0.0855411
0.0907174
0.0853349
0.0587295
0.0437595
0.0384302
0.0376328
0.0385305
0.0401451
0.042258
0.0450397
0.04915
0.0565887
0.074478
0.0827718
0.0890345
0.0916599
0.0930753
0.09389
0.0943925
0.0947271
0.0949645
0.0951401
0.0321869
0.0279261
0.0253726
0.0250603
0.0504441
0.04912
0.0482147
0.0479968
0.0599318
0.059063
0.0582553
0.0576184
0.0661987
0.0653023
0.06444
0.0636679
0.0710175
0.0702119
0.0694317
0.0686903
0.0753543
0.0746178
0.0738846
0.0731644
0.0792345
0.0785528
0.077861
0.0771682
0.0825141
0.0818684
0.0812249
0.0805929
0.0853727
0.0847874
0.0841984
0.0836205
0.0878365
0.0873198
0.0868099
0.086306
0.0883179
0.0879134
0.0875197
0.0871384
0.0876945
0.0873016
0.0869118
0.0865192
0.0869168
0.0865039
0.0860732
0.085628
0.086133
0.085719
0.0852781
0.0848117
0.085344
0.0849536
0.0845301
0.084071
0.0844523
0.0841094
0.0837301
0.083308
0.0833675
0.0830888
0.082773
0.082411
0.0820406
0.0818335
0.0815906
0.0813008
0.080468
0.080332
0.0801626
0.0799475
0.0786828
0.0786122
0.0785107
0.0783657
0.0767435
0.0767297
0.0766876
0.0766043
0.0747203
0.074754
0.0747614
0.0747305
0.0726844
0.072757
0.0728051
0.0728174
0.0706997
0.0708039
0.0708848
0.0709327
0.0688205
0.0689506
0.0690582
0.069135
0.0670904
0.0672425
0.0673725
0.0674734
0.0655432
0.0657152
0.0658653
0.0659876
0.0642058
0.0643972
0.0645663
0.0647086
0.0631028
0.0633141
0.0635024
0.0636642
0.0622595
0.0624918
0.0627001
0.0628817
0.0617054
0.0619603
0.0621897
0.0623915
0.061477
0.0617557
0.062007
0.0622293
0.0616212
0.0619244
0.0621976
0.0624396
0.0621986
0.0625253
0.0628189
0.0630788
0.0632871
0.063634
0.0639441
0.0642173
0.0649844
0.0653442
0.0656633
0.0659423
0.0674099
0.0677701
0.0680859
0.0683587
0.0707008
0.0710426
0.071338
0.0715886
0.0750043
0.0753038
0.0755572
0.075767
0.0804594
0.0806904
0.080881
0.0810326
0.0871807
0.0873217
0.0874343
0.0875192
0.0952281
0.0952709
0.0953045
0.0953288
0.0327284
0.0387651
0.0419199
0.0441634
0.0453705
0.0450882
0.0443963
0.0435926
0.0426241
0.0412911
0.0397146
0.0379189
0.0357252
0.0331065
0.0302267
0.0268617
0.0223742
0.0156645
0.00692325
0.048671
0.048583
0.0486927
0.0492172
0.0495642
0.0492073
0.0484487
0.0474909
0.0462993
0.0447607
0.0429536
0.0409309
0.0385459
0.0358264
0.0329201
0.0295398
0.0247911
0.0170548
0.00716586
0.056702
0.0554329
0.0546289
0.0541665
0.0537054
0.0530351
0.052154
0.0510697
0.0497367
0.0480748
0.0461268
0.0439366
0.0414143
0.0385863
0.0355819
0.0321477
0.0274204
0.0195518
0.00831254
0.0624846
0.0610298
0.0598632
0.0589306
0.0580367
0.0569734
0.0557593
0.0544099
0.0528663
0.0510572
0.0489871
0.046683
0.0441043
0.0412534
0.0381666
0.0345926
0.0298154
0.0226128
0.0102242
0.0674943
0.065966
0.0646228
0.0634572
0.0623224
0.060989
0.0594547
0.0577716
0.0559356
0.053899
0.0516449
0.0491851
0.0465073
0.0435858
0.0403658
0.0366032
0.0317798
0.0249985
0.0125305
0.0719817
0.0704356
0.0690293
0.0677478
0.0664539
0.0649512
0.0631922
0.0612346
0.0591241
0.0568443
0.0543738
0.0517094
0.0488428
0.0457436
0.0423305
0.0384
0.0335533
0.0268701
0.0138123
0.0760172
0.0745076
0.0731182
0.0718078
0.070433
0.0688191
0.0669096
0.0647606
0.0624359
0.0599429
0.0572594
0.0543728
0.0512668
0.0479211
0.0442827
0.0401993
0.0352853
0.0283858
0.0144253
0.079559
0.0782008
0.0769393
0.0757119
0.0743598
0.072698
0.0706785
0.0683771
0.0658881
0.0632184
0.0603247
0.057205
0.0538327
0.0501919
0.0462714
0.0420067
0.0369444
0.0295505
0.0145959
0.0826909
0.081554
0.0805497
0.0795803
0.0784132
0.0767684
0.0746103
0.0721118
0.0694787
0.0666767
0.0635606
0.0602129
0.0565746
0.0525942
0.0482263
0.0434585
0.037945
0.0301469
0.0149442
0.0855093
0.0846912
0.0840949
0.0836067
0.0828403
0.0812115
0.0787445
0.0758597
0.0730891
0.070216
0.0668192
0.0630666
0.0591591
0.0549071
0.0498572
0.0440733
0.0375127
0.0287375
0.0146239
0.0865635
0.0859139
0.085493
0.0852825
0.0847524
0.0831575
0.0805172
0.0775508
0.0750003
0.072371
0.0688952
0.0646779
0.0601894
0.0553726
0.0495182
0.042686
0.0351927
0.0257631
0.0126088
0.0858879
0.0850455
0.0843117
0.0836345
0.0826218
0.0809516
0.0786529
0.0762402
0.0739421
0.0713465
0.0677734
0.0633603
0.0586323
0.0534189
0.0473689
0.0405219
0.0328103
0.0233496
0.0112677
0.0848964
0.0838481
0.0828102
0.0817455
0.0803764
0.0785092
0.0762415
0.0738719
0.0714583
0.0687042
0.0652062
0.0609295
0.0562797
0.0512577
0.0456234
0.039254
0.0319735
0.0230108
0.0109362
0.0840179
0.082805
0.0815347
0.0801935
0.0786345
0.0766995
0.0744164
0.071934
0.0693325
0.0664413
0.0630572
0.0591605
0.0549162
0.0503156
0.0451929
0.0393888
0.0325787
0.0238598
0.0112359
0.0832588
0.081949
0.0805389
0.0790449
0.0774122
0.0755258
0.0733231
0.0708506
0.0681809
0.0652813
0.0620876
0.0585786
0.0547546
0.0505505
0.0458402
0.0404357
0.033922
0.0252733
0.0118095
0.0825283
0.0812059
0.079759
0.0782232
0.0765897
0.0747819
0.0727148
0.0703653
0.0677785
0.0649803
0.061971
0.0587241
0.0551767
0.0512359
0.0467814
0.0416098
0.0352708
0.0266525
0.0123621
0.0817069
0.0804464
0.0790455
0.0775446
0.0759555
0.0742303
0.0722913
0.0700931
0.0676466
0.0649837
0.0621174
0.0590194
0.0556179
0.0518175
0.0474991
0.0424563
0.0362378
0.0276864
0.0128035
0.0806989
0.0795491
0.0782447
0.0768218
0.0752995
0.0736509
0.0718162
0.0697474
0.0674364
0.0648979
0.0621366
0.059125
0.0557999
0.0520764
0.0478411
0.0428949
0.0367972
0.0283619
0.0131408
0.0794572
0.078441
0.0772565
0.0759322
0.0744876
0.0729106
0.0711595
0.0691935
0.0669936
0.0645581
0.0618807
0.0589341
0.0556664
0.0520053
0.047847
0.0430015
0.0370401
0.0287562
0.0133736
0.0779852
0.0771071
0.0760488
0.0748306
0.0734704
0.071965
0.0702878
0.0684066
0.066299
0.0639523
0.0613527
0.0584728
0.0552694
0.0516807
0.0476113
0.0428794
0.0370632
0.0289384
0.0135069
0.0763241
0.0755785
0.0746437
0.0735332
0.0722619
0.0708323
0.0692282
0.0674254
0.0654018
0.0631395
0.0606203
0.0578172
0.0546924
0.0511907
0.0472226
0.042611
0.0369391
0.028975
0.0135546
0.0745385
0.0739148
0.0730967
0.072092
0.070913
0.0695648
0.0680381
0.0663146
0.0643743
0.0621975
0.0597637
0.0570472
0.0540123
0.0506074
0.0467458
0.0422532
0.0367163
0.0289014
0.0135332
0.0727006
0.0721867
0.0714768
0.0705745
0.0694894
0.0682274
0.0667831
0.0651424
0.0632874
0.0611984
0.0588541
0.0562293
0.053289
0.049983
0.0462253
0.0418429
0.0364269
0.0287508
0.0134616
0.0708803
0.070464
0.0698536
0.069049
0.0680573
0.0668841
0.0655255
0.0639702
0.0622019
0.0602014
0.0579472
0.0554136
0.0525662
0.0493543
0.0456919
0.0414073
0.0360966
0.0285437
0.0133551
0.0691373
0.0688086
0.0682892
0.067577
0.0666762
0.0655915
0.0643194
0.0628497
0.0611672
0.0592531
0.0570857
0.0546387
0.0518773
0.0487503
0.0451713
0.0409701
0.0357497
0.0283103
0.0132327
0.0675226
0.067272
0.0668356
0.0662097
0.0653963
0.0643978
0.0632105
0.061824
0.060224
0.0583915
0.0563047
0.0539366
0.0512517
0.0481981
0.0446891
0.040557
0.0354128
0.028073
0.0131092
0.0660779
0.0658982
0.0655376
0.0649914
0.0642597
0.0633429
0.0622361
0.0609289
0.0594064
0.0576497
0.0556362
0.0533381
0.0507191
0.0477266
0.0442744
0.0401974
0.0351155
0.027865
0.0130025
0.0648373
0.0647228
0.0644322
0.0639598
0.0633041
0.0624637
0.0614324
0.060199
0.0587482
0.0570605
0.0551125
0.0528754
0.050312
0.0473688
0.0439602
0.0399241
0.0348879
0.0277011
0.012927
0.0638297
0.0637767
0.0635515
0.0631477
0.0625626
0.0617934
0.0608325
0.059668
0.0582834
0.0566587
0.0547695
0.0525858
0.0500688
0.0471642
0.0437864
0.0397757
0.0347656
0.0276196
0.0128957
0.0630836
0.0630897
0.062926
0.0625863
0.0620672
0.0613645
0.0604697
0.0593697
0.0580473
0.0564815
0.0546465
0.0525106
0.0500332
0.0471583
0.0437995
0.0397984
0.0347923
0.0276513
0.0129152
0.0626295
0.0626927
0.0625874
0.0623079
0.0618505
0.0612105
0.0603782
0.05934
0.0580776
0.0565688
0.0547863
0.0526959
0.0502544
0.047403
0.0440529
0.0400449
0.035017
0.0278394
0.0130109
0.0625031
0.0626212
0.062571
0.0623476
0.061948
0.0613669
0.0605946
0.0596165
0.0584138
0.0569631
0.0552347
0.0531916
0.0507866
0.0479565
0.0446075
0.0405759
0.0354966
0.0282297
0.0131929
0.0627475
0.0629171
0.0629174
0.0627452
0.0623986
0.0618725
0.0611572
0.0602383
0.0590967
0.0577073
0.0560383
0.0540493
0.0516878
0.0488834
0.0455332
0.041464
0.0363003
0.02888
0.0134985
0.0634169
0.0636316
0.0636752
0.0635468
0.0632459
0.0627684
0.0621055
0.0612435
0.0601639
0.0588406
0.0572403
0.0553186
0.0530164
0.0502526
0.0469101
0.0427965
0.0375155
0.0298651
0.013954
0.0645779
0.0648268
0.0649022
0.0648057
0.0645383
0.0640976
0.0634768
0.0626647
0.0616445
0.0603918
0.0588723
0.0570383
0.0548233
0.0521326
0.0488265
0.0446806
0.0392567
0.0312892
0.0146255
0.0663126
0.0665783
0.0666678
0.0665841
0.066329
0.0659023
0.0653011
0.0645204
0.0635487
0.0623664
0.0609408
0.0592227
0.0571391
0.0545803
0.0513754
0.0472467
0.0416804
0.0333014
0.0155839
0.0687198
0.0689777
0.0690559
0.0689554
0.0686759
0.0682195
0.067593
0.0668033
0.0658522
0.0647296
0.0634079
0.0618403
0.0599532
0.0576251
0.0546475
0.05066
0.0450137
0.0361385
0.0169828
0.0719155
0.0721352
0.0721696
0.0720093
0.0716427
0.0710757
0.0703374
0.0694618
0.0684758
0.0673843
0.0661681
0.0647896
0.0631868
0.0612433
0.0587188
0.0551356
0.0496119
0.0402103
0.0190737
0.0760319
0.0761825
0.0761389
0.0758617
0.0753037
0.0744803
0.073469
0.0723745
0.0712612
0.0701495
0.0690276
0.0678739
0.0666626
0.0653234
0.0636232
0.0609458
0.0560439
0.0463036
0.0224546
0.0812132
0.0812757
0.0811334
0.0806795
0.0797643
0.0784365
0.0768373
0.0753136
0.073948
0.0727491
0.0716963
0.0707892
0.0700734
0.0696028
0.0692545
0.0683134
0.0650546
0.0559166
0.0285976
0.0876089
0.0875937
0.0873808
0.086747
0.0852703
0.0831195
0.0801522
0.0778993
0.0761658
0.0748262
0.0738109
0.0731368
0.0729567
0.0735489
0.0750798
0.0769251
0.0767831
0.0713285
0.0423007
0.0953501
0.0953215
0.0951755
0.0946353
0.0927986
0.0901377
0.0828485
0.0795581
0.0774669
0.076002
0.0749982
0.074478
0.0746955
0.076183
0.0795568
0.0846677
0.0879656
0.0929851
0.0869185
)
;

boundaryField
{
    leftWall
    {
        type            kqRWallFunction;
        value           nonuniform List<scalar> 
50
(
0.000825955
0.00208734
0.00291022
0.0036178
0.00428599
0.00500204
0.00585782
0.00691631
0.00835203
0.0108102
0.013513
0.0164298
0.0196646
0.0232987
0.025473
0.0250887
0.0238197
0.0243067
0.0271696
0.0285885
0.0262296
0.0242076
0.0214989
0.0189569
0.0167005
0.0148839
0.0136376
0.0128733
0.0123673
0.0119945
0.0116685
0.0113375
0.0109785
0.0105867
0.010168
0.00973393
0.00929901
0.00887891
0.00848913
0.0081431
0.00785037
0.00761512
0.00743647
0.00731325
0.00726187
0.0073875
0.00822611
0.0126327
0.0298862
0.0855411
)
;
    }
    rightWall
    {
        type            kqRWallFunction;
        value           nonuniform List<scalar> 
50
(
0.00128977
0.00296365
0.00420424
0.00551128
0.00753059
0.00902754
0.00821023
0.00735761
0.00692325
0.00716586
0.00831254
0.0102242
0.0125305
0.0138123
0.0144253
0.0145959
0.0149442
0.0146239
0.0126088
0.0112677
0.0109362
0.0112359
0.0118095
0.0123621
0.0128035
0.0131408
0.0133736
0.0135069
0.0135546
0.0135332
0.0134616
0.0133551
0.0132327
0.0131092
0.0130025
0.012927
0.0128957
0.0129152
0.0130109
0.0131929
0.0134985
0.013954
0.0146255
0.0155839
0.0169828
0.0190737
0.0224546
0.0285976
0.0423007
0.0869185
)
;
    }
    lowerWall
    {
        type            kqRWallFunction;
        value           nonuniform List<scalar> 
62
(
0.000825955
0.00233618
0.00364821
0.00476758
0.0057618
0.00665976
0.00746836
0.00818427
0.00879952
0.00930523
0.00969458
0.00996593
0.0101232
0.0101794
0.0101925
0.0101398
0.00999204
0.00971845
0.0092665
0.00854184
0.00737183
0.00541437
0.00163373
0.00163373
0.00490511
0.00744972
0.00971662
0.0118229
0.0139742
0.0167396
0.0223973
0.0321869
0.0279261
0.0253726
0.0250603
0.0015807
0.00446239
0.00640871
0.00801154
0.0099417
0.0129796
0.0176824
0.0241294
0.0015807
0.00500548
0.00701207
0.0081331
0.00867022
0.00896927
0.00890942
0.00876077
0.0090964
0.00935522
0.00907774
0.00820134
0.00737646
0.00716434
0.00673151
0.00590058
0.00490486
0.00339284
0.00128977
)
;
    }
    atmosphere
    {
        type            inletOutlet;
        inletValue      uniform 0.1;
        value           nonuniform List<scalar> 
46
(
0.1
0.1
0.1
0.0587295
0.0437595
0.0384302
0.0376328
0.0385305
0.0401451
0.042258
0.0450397
0.04915
0.0565887
0.1
0.1
0.1
0.1
0.1
0.1
0.1
0.1
0.1
0.1
0.1
0.1
0.1
0.1
0.1
0.1
0.1
0.1
0.1
0.1
0.0828485
0.0795581
0.0774669
0.076002
0.0749982
0.074478
0.0746955
0.076183
0.0795568
0.0846677
0.0879656
0.1
0.1
)
;
    }
    defaultFaces
    {
        type            empty;
    }
}


// ************************************************************************* //
