/*--------------------------------*- C++ -*----------------------------------*\
  =========                 |
  \\      /  F ield         | OpenFOAM: The Open Source CFD Toolbox
   \\    /   O peration     | Website:  https://openfoam.org
    \\  /    A nd           | Version:  13
     \\/     M anipulation  |
\*---------------------------------------------------------------------------*/
FoamFile
{
    format      ascii;
    class       volScalarField;
    location    "2.45";
    object      nut;
}
// * * * * * * * * * * * * * * * * * * * * * * * * * * * * * * * * * * * * * //

dimensions      [0 2 -1 0 0 0 0];

internalField   nonuniform List<scalar> 
2268
(
1.88618e-05
3.22714e-05
4.05533e-05
4.65072e-05
5.12556e-05
5.5216e-05
5.85615e-05
6.13676e-05
6.36677e-05
6.54783e-05
6.68107e-05
6.76799e-05
6.81049e-05
6.80887e-05
6.78267e-05
6.73974e-05
6.66712e-05
6.55447e-05
6.38307e-05
6.1161e-05
5.6765e-05
4.85931e-05
2.69249e-05
6.40196e-05
0.000256736
0.000374755
0.000461173
0.000528962
0.000583376
0.000626949
0.000661086
0.000686707
0.000704508
0.00071506
0.000718865
0.000716275
0.000706976
0.000689435
0.000668151
0.000644074
0.000616754
0.000584515
0.000543751
0.000486834
0.000391361
9.8553e-05
7.58472e-05
0.000417068
0.00068664
0.000896773
0.00106351
0.00119636
0.00130121
0.00138189
0.00144101
0.00148052
0.00150191
0.0015065
0.00149545
0.00146953
0.00142907
0.00138005
0.00132423
0.00126069
0.00118529
0.00108816
0.000946339
0.000692751
0.000121876
8.48287e-05
0.000526732
0.000930523
0.00125766
0.00151928
0.00172726
0.00189079
0.00201637
0.00210851
0.00217048
0.00220477
0.00221349
0.00219866
0.00216224
0.00210612
0.00203618
0.00195427
0.00185854
0.00174172
0.00158601
0.00134955
0.000924171
0.000139143
9.26957e-05
0.000615737
0.00113717
0.00156681
0.0019106
0.00218313
0.00239704
0.00256158
0.00268317
0.00276635
0.0028145
0.00283042
0.00281679
0.00277635
0.00271172
0.00262805
0.00252668
0.00240442
0.00225039
0.00203804
0.00170579
0.00111234
0.000153336
0.000100643
0.000697424
0.00132589
0.00184446
0.00225732
0.0025832
0.0028386
0.0030355
0.00318215
0.00328425
0.00334592
0.00337054
0.00336125
0.00332119
0.00325321
0.0031615
0.00304652
0.00290344
0.00271767
0.00245399
0.00203163
0.00127978
0.000166563
0.000109508
0.000780004
0.00150732
0.00210325
0.00257369
0.00294301
0.00323192
0.00345511
0.00362247
0.00374075
0.00381476
0.00384828
0.00384477
0.00380754
0.0037395
0.00364392
0.00352019
0.00336184
0.00315098
0.00284515
0.00234674
0.00145129
0.000182174
0.000119496
0.000869611
0.0016868
0.00235031
0.00286878
0.00327342
0.00358923
0.00383349
0.00401765
0.00414938
0.00423407
0.00427587
0.00427844
0.00424516
0.00417885
0.00408241
0.00395395
0.00378567
0.00355748
0.00322289
0.00267536
0.00167332
0.000211295
2.62165e-05
4.64384e-05
5.50121e-05
5.92462e-05
6.12234e-05
6.23699e-05
6.20865e-05
6.18147e-05
6.34522e-05
6.47388e-05
6.36671e-05
6.04846e-05
5.7666e-05
5.70412e-05
5.47322e-05
5.10535e-05
4.64515e-05
3.84766e-05
2.36407e-05
0.000103279
0.000368056
0.000479874
0.000525524
0.000536286
0.000550625
0.000542004
0.000521383
0.00056975
0.000597333
0.000596161
0.000586316
0.000563489
0.000542918
0.000505687
0.000462507
0.000400206
0.00029122
8.40063e-05
0.000124317
0.000598821
0.000868618
0.00100752
0.00105434
0.00105847
0.00105114
0.00104648
0.00110483
0.00114123
0.00114347
0.00112865
0.00108944
0.00103477
0.000955895
0.000855403
0.000710253
0.000471187
0.000100833
0.000137518
0.000724024
0.00115015
0.00140682
0.00150972
0.00150759
0.00150846
0.00151691
0.00156667
0.00159004
0.00158741
0.00156675
0.00151152
0.00142556
0.00130767
0.00115625
0.000941884
0.000609097
0.00011657
0.000151901
0.00076811
0.001342
0.00172796
0.00190658
0.00191529
0.00192297
0.00193655
0.00197062
0.00196858
0.00195367
0.00192373
0.0018522
0.00173942
0.00158783
0.00139413
0.00112693
0.000722212
0.000138288
0.000173812
0.000763406
0.00146698
0.00198657
0.0022515
0.00230007
0.00231087
0.00232099
0.00233617
0.00230268
0.0022709
0.00222532
0.00213707
0.00200099
0.00182285
0.00158842
0.00126289
0.000784866
0.000151025
0.000203316
0.000765641
0.00156881
0.00220818
0.002554
0.00265564
0.00267833
0.00268247
0.00267674
0.00261812
0.00256319
0.00249522
0.00238494
0.00223031
0.00202982
0.00175208
0.0013629
0.000804835
0.000144005
0.000238042
0.000856456
0.00172405
0.00242617
0.00282901
0.00298003
0.00302067
0.00302079
0.0029959
0.00291971
0.00284147
0.00274739
0.00261109
0.00243694
0.00221384
0.00189681
0.00144373
0.000801869
0.000134774
0.000131827
0.00102813
0.00196935
0.00272046
0.00330051
0.00374966
0.00409888
0.0043692
0.0045743
0.00472327
0.00482245
0.00487665
0.00488989
0.00486555
0.00480576
0.00471185
0.00458154
0.0044058
0.00416338
0.00380936
0.00325504
0.00235604
0.00105573
0.000150102
0.0012548
0.0023624
0.00321131
0.00385168
0.00434023
0.00471669
0.005007
0.00522764
0.00538941
0.00549975
0.00556425
0.00558738
0.00557243
0.00552085
0.00543215
0.00530577
0.00513358
0.0048984
0.00456924
0.00409717
0.00342739
0.00257216
0.000167186
0.00145117
0.00271109
0.00365388
0.00434955
0.00487074
0.00526683
0.00556961
0.00579896
0.00596774
0.00608469
0.00615619
0.00618714
0.00618099
0.00613923
0.00606102
0.00594665
0.00579033
0.00558061
0.00530064
0.00493074
0.0044624
0.00393841
0.000183143
0.00159636
0.00300103
0.00403458
0.0047836
0.00533533
0.00574848
0.0060605
0.00629545
0.00646879
0.0065907
0.00666842
0.00670725
0.00671075
0.0066807
0.00661743
0.00651966
0.0063853
0.00620774
0.00597945
0.0056953
0.00536175
0.00501525
0.000198654
0.00174077
0.00324548
0.0043516
0.00514912
0.0057304
0.00615936
0.00647911
0.00671844
0.00689577
0.00702284
0.00710754
0.00715544
0.00717011
0.00715368
0.00710744
0.00703115
0.00692248
0.00677842
0.00659688
0.00637881
0.00613445
0.00588974
0.000214356
0.0018408
0.00343156
0.00460069
0.0054425
0.00605109
0.00649461
0.00682121
0.00706448
0.00724622
0.00737987
0.00747387
0.00753361
0.00756245
0.00756262
0.00753561
0.00748169
0.00740008
0.00729026
0.0071525
0.0069895
0.00681079
0.00663464
0.00022105
0.00190231
0.0035468
0.00476517
0.00564829
0.00628578
0.00674686
0.00708328
0.00733287
0.00752131
0.00766422
0.00777056
0.00784542
0.00789165
0.00791112
0.00790511
0.00787428
0.00781914
0.0077406
0.00764028
0.00752173
0.00739233
0.00726317
0.000217788
0.00190489
0.00356117
0.00482495
0.0057551
0.00642942
0.00691517
0.0072673
0.0075278
0.0077264
0.00788144
0.00800283
0.00809535
0.00816116
0.00820144
0.00821706
0.00820897
0.00817841
0.00812706
0.00805703
0.00797155
0.00787581
0.00777651
0.000214038
0.00174745
0.00341791
0.0047756
0.00577519
0.0064891
0.00700348
0.00737684
0.00765331
0.00786594
0.00803608
0.00817483
0.00828672
0.00837322
0.00843477
0.00847181
0.00848526
0.00847666
0.00844806
0.00840172
0.00834034
0.00826755
0.00818792
0.000218033
0.00161993
0.00329427
0.00472475
0.00577595
0.00649828
0.00703159
0.00742267
0.00771581
0.00794584
0.00813431
0.00829241
0.00842469
0.00853209
0.00861444
0.00867182
0.00870499
0.00871556
0.00870578
0.00867808
0.00863487
0.00857851
0.00851254
0.000230003
0.00183801
0.00346921
0.00474446
0.00573357
0.00646099
0.00700164
0.00740727
0.00772111
0.00797373
0.00818473
0.00836445
0.00851703
0.00864312
0.00874258
0.00881574
0.00886377
0.00888863
0.00889272
0.00887834
0.00884741
0.00880212
0.00874606
0.000248594
0.00205428
0.00356199
0.00470725
0.00561763
0.0063353
0.00689517
0.00733054
0.00767547
0.00795763
0.00819491
0.00839748
0.00856987
0.00871319
0.00882776
0.00891447
0.00897509
0.00901202
0.0090278
0.00902457
0.00900403
0.00896784
0.0089181
0.000242406
0.0020608
0.00351841
0.00460567
0.00547419
0.00618358
0.00675701
0.00721844
0.0075941
0.00790671
0.0081714
0.00839718
0.00858883
0.00874842
0.00887715
0.00897665
0.00904926
0.00909774
0.00912469
0.00913213
0.00912146
0.00909388
0.00905069
0.000227711
0.00193601
0.00338293
0.00444966
0.00530302
0.00600953
0.006596
0.00708199
0.00748733
0.00782941
0.00812066
0.00836893
0.00857923
0.0087546
0.00889717
0.00900926
0.00909371
0.00915355
0.00919144
0.00920928
0.00920825
0.0091891
0.00915242
0.000212552
0.00179621
0.00319936
0.00425557
0.00510681
0.0058194
0.00642169
0.00693146
0.00736447
0.00773382
0.00804962
0.00831878
0.00854656
0.00873691
0.0088928
0.00901722
0.0091134
0.00918457
0.00923338
0.00926165
0.0092704
0.00926007
0.00923075
0.000199065
0.0016618
0.00300565
0.00404767
0.00490127
0.00562438
0.00624392
0.00677597
0.00723359
0.00762702
0.00796443
0.00825213
0.00849576
0.00869994
0.00886839
0.00900468
0.00911236
0.00919476
0.00925451
0.00929337
0.00931224
0.00931137
0.00929056
0.000186449
0.00153995
0.00282231
0.00384816
0.00470404
0.00543757
0.00607253
0.00662323
0.00710092
0.00751414
0.00786947
0.00817304
0.00843066
0.00864737
0.00882751
0.0089751
0.00909393
0.00918736
0.00925799
0.00930752
0.00933681
0.009346
0.0093347
0.000175156
0.00143358
0.00266072
0.00367191
0.0045287
0.00526983
0.00591541
0.00647921
0.00697112
0.00739887
0.00776827
0.00808482
0.00835439
0.00858227
0.00877321
0.00893151
0.00906109
0.00916527
0.00924659
0.00930674
0.00934655
0.0093661
0.00936495
0.00016609
0.00134406
0.00252748
0.0035258
0.00438166
0.00512624
0.00577808
0.00634955
0.00684982
0.00728615
0.00766453
0.0079906
0.00826998
0.00850758
0.00870839
0.00887678
0.00901663
0.00913117
0.00922288
0.0092934
0.00934359
0.00937351
0.00938267
0.000160446
0.00127601
0.00242842
0.0034165
0.00426921
0.00501283
0.00566489
0.00623756
0.00674005
0.00717972
0.00756271
0.00789453
0.00818069
0.00842632
0.008636
0.00881371
0.00896325
0.00908767
0.00918933
0.00926984
0.00933004
0.00937003
0.00938932
0.000156687
0.00123762
0.00236849
0.00334582
0.00419124
0.00492856
0.00557504
0.00614326
0.00664279
0.00708131
0.00746517
0.0077999
0.00809058
0.00834219
0.00855909
0.00874514
0.00890368
0.00903734
0.00914839
0.00923836
0.00930806
0.00935762
0.00938658
0.000154042
0.00122105
0.00233836
0.00330468
0.00413977
0.00486699
0.00550402
0.00606405
0.00655722
0.00699153
0.00737355
0.00770886
0.00800229
0.00825837
0.00848121
0.0086743
0.00884066
0.00898274
0.00910254
0.00920133
0.00927991
0.00933841
0.0093764
0.000151896
0.00121529
0.00232419
0.00328012
0.00410385
0.0048195
0.00544556
0.00599591
0.00648122
0.00690988
0.00728863
0.00762308
0.00791793
0.0081773
0.00840495
0.00860405
0.00877727
0.00892681
0.00905439
0.00916119
0.00924792
0.00931466
0.00936096
0.000149828
0.00121178
0.00231422
0.00326064
0.0040735
0.00477804
0.00539356
0.0059346
0.00641228
0.00683527
0.00721048
0.00754354
0.00783909
0.00810097
0.00833257
0.0085368
0.00871601
0.00887213
0.00900666
0.00912064
0.00921466
0.00928875
0.00934254
0.000147602
0.00120552
0.00230101
0.00323854
0.00404178
0.00473678
0.00534344
0.00587675
0.00634813
0.00676646
0.00713878
0.00747072
0.00776685
0.00803088
0.00826592
0.0084746
0.00865906
0.00882099
0.00896168
0.00908203
0.00918249
0.00926308
0.00932347
0.00014513
0.00119444
0.00228119
0.00321011
0.00400514
0.00469257
0.00529254
0.00582023
0.00628723
0.0067025
0.00707313
0.00740473
0.00770183
0.00796804
0.0082063
0.00841904
0.0086082
0.00877528
0.00892142
0.00904734
0.00915341
0.00923964
0.00930573
0.000142412
0.00117845
0.0022544
0.00317478
0.00396284
0.00464457
0.00523999
0.00576421
0.00622882
0.00664278
0.00701313
0.00734545
0.00764421
0.00791295
0.00815449
0.0083711
0.00856459
0.00873631
0.00888723
0.00901798
0.00912884
0.00921982
0.00929068
0.000139506
0.00115863
0.00222213
0.00313398
0.00391602
0.00459353
0.00518614
0.00570874
0.00617274
0.00658698
0.00695843
0.00729258
0.00759381
0.00786559
0.00811066
0.00833115
0.00852873
0.00870466
0.00885977
0.00899459
0.00910938
0.00920418
0.00927883
0.000136495
0.00113655
0.00218668
0.00308999
0.00386659
0.00454086
0.00513189
0.0056542
0.00611896
0.00653481
0.00690855
0.00724555
0.00755009
0.00782551
0.00807445
0.00829891
0.00850044
0.00868017
0.00883884
0.00897694
0.00909471
0.00919228
0.00926964
0.000133489
0.00111381
0.00215029
0.003045
0.00381631
0.00448777
0.0050779
0.0056008
0.0060673
0.00648578
0.00686282
0.0072036
0.00751223
0.00779192
0.00804511
0.00827366
0.00847896
0.008662
0.00882349
0.00896388
0.00908352
0.00918265
0.00926149
0.000130598
0.00109164
0.00211441
0.00300017
0.00376593
0.00443456
0.00502406
0.00554809
0.00601707
0.00643903
0.00682028
0.00716574
0.00747928
0.00776386
0.00802169
0.00825438
0.00846312
0.00864878
0.00881205
0.00895347
0.00907355
0.00917281
0.00925172
0.000127935
0.00107057
0.0020792
0.00295518
0.00371469
0.00438018
0.00496918
0.00549482
0.00596702
0.00639338
0.00677984
0.00713099
0.00745034
0.0077405
0.00800329
0.00823998
0.00845152
0.0086387
0.00880228
0.00894303
0.00906178
0.00915944
0.00923689
0.000125584
0.00105031
0.00204339
0.00290803
0.00366027
0.00432228
0.00491105
0.00543905
0.00591553
0.00634753
0.0067405
0.0070986
0.00742487
0.00772133
0.00798925
0.00822945
0.00844262
0.0086296
0.00879142
0.0089293
0.00904461
0.00913879
0.00921317
0.000123603
0.00102994
0.0020046
0.00285544
0.00359909
0.00425751
0.00484684
0.00537854
0.00586095
0.00630037
0.00670167
0.0070684
0.00740289
0.00770635
0.00797923
0.00822179
0.00843463
0.00861891
0.00877627
0.0089087
0.0090183
0.00910716
0.00917709
0.000122009
0.00100836
0.00195998
0.00279341
0.00352695
0.0041821
0.00477359
0.00531123
0.00580205
0.00625142
0.00666345
0.00704092
0.00738511
0.007696
0.00797293
0.0082157
0.00842521
0.00860351
0.00875337
0.00887779
0.00897974
0.00906194
0.00912656
0.000120832
0.000985082
0.00190697
0.00271782
0.00343952
0.00409252
0.00468887
0.00523579
0.00573843
0.00620102
0.00662677
0.00701742
0.0073727
0.00769075
0.0079696
0.00820906
0.00841129
0.00858008
0.00871978
0.00883448
0.00892784
0.00900298
0.00906233
0.000120269
0.000961821
0.00184457
0.00262561
0.00333355
0.00398644
0.00459157
0.00515217
0.00567087
0.00615051
0.00659334
0.00699966
0.0073669
0.0076906
0.00796754
0.00819897
0.00838986
0.00854663
0.00867519
0.00878026
0.00886565
0.00893455
0.00898941
0.000121345
0.000947138
0.00178086
0.00252168
0.00321149
0.00386545
0.00448344
0.00506246
0.00560161
0.00610216
0.0065653
0.00698938
0.00736854
0.00769488
0.00796472
0.00818388
0.0083616
0.00850669
0.00862588
0.00872345
0.00880275
0.0088668
0.00891809
0.000128795
0.000978599
0.0017777
0.00244929
0.00309633
0.00374168
0.00437191
0.00497198
0.0055347
0.00605899
0.00654472
0.00698779
0.0073781
0.00770403
0.00796289
0.00817064
0.00833896
0.00847638
0.00858962
0.00868203
0.00875642
0.00881594
0.00886337
0.000160403
0.00120308
0.00209443
0.00256555
0.00305934
0.00364653
0.00427294
0.00489021
0.00547601
0.00602423
0.00653286
0.00699511
0.00739734
0.0077269
0.00797971
0.00818896
0.00835778
0.00849065
0.0085976
0.00868268
0.00874933
0.00880136
0.0088422
0.000246462
0.00189697
0.00327205
0.00316254
0.00321629
0.00362478
0.00420782
0.00482927
0.00543229
0.00600052
0.00652915
0.0070098
0.00743164
0.00780499
0.00807993
0.00831304
0.00848313
0.00859959
0.00868678
0.00875277
0.0088024
0.00883998
0.00886887
0.000416533
0.0035637
0.00602797
0.00427035
0.003552
0.00367597
0.0041853
0.00479812
0.005409
0.00598877
0.00652996
0.00702446
0.0074803
0.00814177
0.00845991
0.00867887
0.00878775
0.00884274
0.0088795
0.00890594
0.00892515
0.00893935
0.00895009
0.000255762
0.000238834
0.000227156
0.000223612
0.00196908
0.00183218
0.00178412
0.00180639
0.00361324
0.00345547
0.00335859
0.00332388
0.00479806
0.00467786
0.00458868
0.004537
0.00573735
0.00565211
0.00558439
0.00553695
0.0065231
0.00645937
0.00640514
0.00636164
0.00717712
0.00712613
0.00708003
0.00703913
0.0077055
0.00766184
0.00762061
0.00758201
0.0081272
0.00808843
0.00805032
0.00801309
0.00845881
0.00842355
0.00838791
0.0083518
0.00869773
0.00866484
0.00863048
0.00859474
0.00887216
0.00884015
0.00880584
0.00876919
0.00900773
0.00897681
0.00894272
0.00890555
0.00911316
0.00908428
0.00905177
0.00901562
0.00919632
0.00917041
0.00914059
0.00910673
0.00926212
0.00924004
0.00921388
0.00918341
0.00931323
0.00929563
0.00927389
0.00924769
0.009351
0.00933828
0.00932141
0.0093
0.00937641
0.00936866
0.00935677
0.00934031
0.00939054
0.00938759
0.00938055
0.00936891
0.00939483
0.00939638
0.00939384
0.00938671
0.00939112
0.00939676
0.0093983
0.00939525
0.00938154
0.00939084
0.00939603
0.00939661
0.00936834
0.00938089
0.00938928
0.00939306
0.00935383
0.00936919
0.00938034
0.00938688
0.00933998
0.00935772
0.0093712
0.00938008
0.00932815
0.00934786
0.00936325
0.00937405
0.00931881
0.00934004
0.00935694
0.00936927
0.00931139
0.00933369
0.00935166
0.00936511
0.00930419
0.00932706
0.00934564
0.00935979
0.00929447
0.0093174
0.00933612
0.00935054
0.00927873
0.00930118
0.00931958
0.00933387
0.00925322
0.00927471
0.00929238
0.00930622
0.00921465
0.00923486
0.00925156
0.00926475
0.00916137
0.00918019
0.00919588
0.00920846
0.00909457
0.00911218
0.00912707
0.00913923
0.00901964
0.00903638
0.00905075
0.00906275
0.00894673
0.00896278
0.00897674
0.00898863
0.00888999
0.00890501
0.00891815
0.00892947
0.00886496
0.0088778
0.00888905
0.00889873
0.00888475
0.00889366
0.00890141
0.00890803
0.00895586
0.00895906
0.00896182
0.00896416
0.000643785
0.00137671
0.00215435
0.00281548
0.00324523
0.0034511
0.00352137
0.00351904
0.00347031
0.00337307
0.00325977
0.00312418
0.00294849
0.00273625
0.00246888
0.00209652
0.00155263
0.00078411
0.00012947
0.00204857
0.00249974
0.00301049
0.00348144
0.00382156
0.00401601
0.00409271
0.00408544
0.00401665
0.00389763
0.0037485
0.00356934
0.00334988
0.00309
0.0027722
0.00235258
0.0017528
0.000881768
0.000132267
0.00337293
0.00361075
0.00392254
0.00421676
0.00443572
0.00456974
0.00461823
0.00459079
0.00450091
0.00435985
0.00418025
0.00396454
0.00370797
0.00340708
0.00304864
0.00259656
0.00198248
0.00106896
0.000143795
0.00451688
0.00462607
0.00479227
0.00495027
0.00506361
0.00512252
0.00512051
0.00505816
0.00494003
0.00477301
0.00456458
0.00431714
0.00402849
0.00369463
0.00330386
0.00282563
0.00219737
0.00129286
0.000159975
0.00549251
0.00551802
0.00558113
0.00564046
0.00567111
0.00566161
0.00560578
0.00550137
0.00534902
0.00515166
0.00491282
0.00463405
0.00431425
0.00394946
0.0035288
0.00302425
0.00237204
0.00142031
0.000178356
0.00630728
0.00628042
0.00627506
0.00626549
0.00623392
0.00616965
0.00606631
0.00592129
0.00573412
0.00550519
0.00523527
0.00492471
0.00457257
0.00417548
0.00372365
0.00319116
0.00251166
0.00151107
0.000188088
0.00697933
0.00692047
0.00687129
0.00681551
0.00673935
0.00663321
0.00649136
0.0063115
0.00609268
0.00583378
0.00553362
0.00519136
0.00480562
0.00437383
0.00388794
0.00332375
0.00261372
0.00157251
0.000192123
0.00752169
0.00744723
0.00737323
0.00728813
0.00718146
0.00704445
0.00687237
0.0066637
0.00641742
0.00613091
0.00580133
0.00542712
0.00500572
0.00453543
0.00400988
0.00340764
0.00266524
0.00159979
0.000193029
0.0079523
0.00786959
0.00778219
0.007681
0.00755564
0.00739652
0.00720003
0.00696662
0.00669631
0.00638438
0.00602547
0.00561878
0.00515881
0.00464428
0.00406965
0.00341846
0.00264301
0.00158511
0.000194481
0.00829098
0.00820415
0.00811021
0.00800188
0.00786726
0.00769161
0.00747261
0.00721448
0.00692121
0.00658352
0.00619082
0.0057444
0.00524563
0.00468594
0.00405335
0.00334139
0.00252628
0.00148234
0.000197692
0.00853394
0.00844116
0.00833855
0.00822261
0.00808083
0.00789264
0.00765615
0.00737798
0.007065
0.0067049
0.00628211
0.00579487
0.00524501
0.00462797
0.0039297
0.00314289
0.00226609
0.00124289
0.00018453
0.00870547
0.00860387
0.00848867
0.00835682
0.00819788
0.00799771
0.00775124
0.00746167
0.00713093
0.00674973
0.00630215
0.00577877
0.00518192
0.00451091
0.00375597
0.00291504
0.00199575
0.00100695
0.000169706
0.00883984
0.00873222
0.00860786
0.00846382
0.00829061
0.00807677
0.00781741
0.00751425
0.0071673
0.00676781
0.00630029
0.00575293
0.00512683
0.00442413
0.00363979
0.00277604
0.00185595
0.000926791
0.000163012
0.00895035
0.00884026
0.00871101
0.00855958
0.00837822
0.008157
0.00789078
0.00757957
0.00722276
0.00681218
0.00633505
0.00578029
0.00514636
0.00443434
0.00364269
0.002778
0.00186323
0.0009412
0.000162602
0.00904406
0.00893495
0.00880505
0.00865144
0.0084681
0.00824707
0.00798263
0.00767282
0.00731585
0.00690514
0.00643075
0.00588306
0.00525783
0.00455292
0.00376695
0.00290391
0.00197686
0.00101435
0.000166078
0.00912536
0.00902055
0.00889404
0.00874313
0.00856305
0.00834751
0.00809103
0.00779013
0.00744188
0.00704056
0.00657805
0.00604558
0.00543639
0.0047449
0.00396633
0.0030981
0.00214145
0.00111146
0.000170223
0.00919591
0.00909818
0.00897829
0.00883373
0.00866061
0.00845386
0.00820848
0.00792036
0.00758562
0.00719876
0.00675216
0.00623706
0.00564463
0.00496587
0.00419125
0.00331073
0.00231493
0.00120862
0.000173592
0.00925557
0.00916683
0.00905562
0.00891959
0.0087554
0.00855888
0.00832552
0.00805103
0.00773093
0.00735946
0.00692878
0.00642967
0.00585157
0.00518237
0.00440787
0.00351124
0.00247444
0.00129459
0.000176085
0.00930368
0.00922488
0.00912329
0.00899666
0.00884203
0.00865582
0.00843398
0.0081722
0.00786562
0.00750807
0.0070913
0.00660543
0.00603842
0.00537554
0.00459856
0.00368507
0.00261036
0.00136619
0.000177973
0.00934002
0.00927126
0.00917937
0.00906212
0.00891677
0.00874019
0.00852866
0.00827789
0.00798279
0.00763682
0.00723135
0.0067558
0.0061969
0.00553782
0.00475712
0.00382809
0.00272096
0.00142297
0.00017929
0.00936513
0.009306
0.00922333
0.00911488
0.0089781
0.00881012
0.00860745
0.00836586
0.00808008
0.00774332
0.00734666
0.00687889
0.00632575
0.00566878
0.00488416
0.00394195
0.00280858
0.00146809
0.000180007
0.00938038
0.00933018
0.00925597
0.00915553
0.0090264
0.00886591
0.00867073
0.00843666
0.00815832
0.00782874
0.00743881
0.00697675
0.00642764
0.00577179
0.00498362
0.00403091
0.00287699
0.00150334
0.000180228
0.00938776
0.00934566
0.00927905
0.00918575
0.00906337
0.00890935
0.00872048
0.00849257
0.00822016
0.00789614
0.00751125
0.00705339
0.00650705
0.00585172
0.00506063
0.00409975
0.00293036
0.00153133
0.000180079
0.00938955
0.0093547
0.00929486
0.00920787
0.00909141
0.008943
0.00875948
0.00853667
0.00826904
0.00794938
0.0075683
0.00711351
0.00656904
0.00591384
0.00512026
0.00415308
0.00297179
0.00155286
0.000179669
0.00938803
0.00935961
0.00930575
0.00922436
0.0091131
0.0089696
0.0087907
0.00857221
0.00830853
0.00799236
0.00761419
0.0071616
0.00661831
0.00596287
0.00516704
0.00419473
0.00300411
0.0015699
0.000179113
0.00938522
0.00936238
0.00931376
0.00923727
0.00913068
0.00899157
0.00881678
0.00860205
0.00834176
0.00802848
0.00765259
0.00720156
0.00665887
0.00600279
0.00520468
0.00422786
0.00302946
0.00158283
0.000178513
0.00938253
0.0093645
0.00932042
0.00924824
0.00914577
0.00901059
0.00883951
0.00862822
0.00837098
0.00806026
0.00768631
0.0072364
0.00669387
0.00603675
0.00523613
0.00425491
0.0030498
0.00159372
0.000177979
0.00938045
0.00936647
0.00932631
0.00925795
0.00915922
0.00902768
0.00886011
0.00865209
0.00839779
0.00808952
0.00771734
0.00726837
0.00672573
0.00606725
0.00526383
0.00427808
0.00306636
0.00160113
0.000177714
0.00937835
0.00936771
0.0093309
0.00926594
0.0091707
0.00904269
0.00887861
0.00867397
0.00842275
0.0081171
0.00774686
0.0072989
0.00675613
0.0060962
0.00528976
0.00429924
0.00308081
0.00160775
0.000177702
0.00937447
0.00936645
0.0093325
0.00927064
0.00917877
0.00905435
0.008894
0.00869309
0.00844541
0.00814287
0.00777506
0.00732855
0.00678599
0.0061248
0.00531549
0.00432029
0.00309529
0.0016143
0.000177946
0.00936603
0.00935999
0.00932848
0.00926957
0.00918111
0.00906056
0.0089044
0.00870786
0.00846452
0.00816601
0.00780154
0.00735735
0.00681576
0.00615391
0.00534215
0.00434266
0.00311147
0.00162253
0.000178675
0.0093496
0.00934503
0.00931573
0.00925976
0.00917498
0.00905877
0.00890755
0.00871635
0.00847853
0.00818538
0.00782571
0.00738526
0.00684588
0.00618436
0.00537089
0.00436768
0.00313079
0.00163383
0.000179965
0.00932176
0.00931836
0.00929123
0.00923842
0.00915777
0.00904662
0.00890131
0.00871673
0.008486
0.00820007
0.00784724
0.00741261
0.00687733
0.00621763
0.00540343
0.00439704
0.00315465
0.00164903
0.000182041
0.00927993
0.00927769
0.00925295
0.00920373
0.00912783
0.00902259
0.00888431
0.00870786
0.00848615
0.00820981
0.00786655
0.00744062
0.00691217
0.00625643
0.00544272
0.00443341
0.00318512
0.00166959
0.000185063
0.00922336
0.00922261
0.00920073
0.00915566
0.00908517
0.00898664
0.00885651
0.00868971
0.00847917
0.00821521
0.00788493
0.00747154
0.00695376
0.00630519
0.00549373
0.00448129
0.00322523
0.00169679
0.000189381
0.00915421
0.00915548
0.009137
0.00909658
0.00903197
0.00894068
0.00881948
0.00866366
0.00846635
0.00821773
0.00790439
0.00750844
0.00700675
0.00637035
0.00556427
0.00454833
0.00328026
0.00173291
0.000195342
0.00907816
0.00908188
0.00906714
0.00903157
0.00897278
0.0088886
0.00877641
0.00863234
0.00844984
0.00821927
0.00792707
0.00755446
0.00707635
0.00646036
0.0056663
0.00464783
0.00336001
0.00178107
0.000203645
0.00900446
0.00901049
0.00899928
0.00896801
0.00891408
0.0088359
0.00873164
0.00859913
0.00843213
0.00822154
0.0079543
0.00761161
0.00716718
0.00658526
0.00581781
0.00480422
0.00348579
0.0018491
0.000215344
0.00894491
0.00895219
0.00894337
0.00891483
0.00886358
0.00878905
0.00868968
0.00856732
0.00841542
0.00822535
0.00798566
0.00767918
0.00728095
0.00675469
0.00604423
0.00506182
0.00370449
0.0019569
0.000232735
0.00891208
0.00891863
0.00891036
0.00888217
0.00883063
0.00875656
0.00865469
0.00853939
0.00840102
0.00823021
0.00801815
0.00775182
0.00741225
0.00697073
0.00637167
0.00549019
0.00411099
0.00215875
0.000260713
0.00891708
0.00892086
0.00891216
0.0088838
0.00883194
0.00875714
0.00863208
0.00851721
0.00838956
0.00823456
0.00804622
0.00781782
0.00754174
0.00721011
0.00679254
0.0061518
0.00485193
0.00260341
0.000312981
0.00896729
0.00896799
0.00896239
0.00894391
0.00890861
0.00884577
0.00862953
0.00850396
0.00838228
0.00823678
0.0080628
0.00785912
0.0076299
0.00739398
0.0071774
0.00692807
0.00595698
0.00396768
0.000464908
)
;

boundaryField
{
    leftWall
    {
        type            nutkWallFunction;
        Cmu             0.09;
        kappa           0.41;
        E               9.8;
        value           nonuniform List<scalar> 
50
(
2.214e-06
6.7178e-06
7.81438e-06
8.62763e-06
9.3191e-06
1.02431e-05
1.28697e-05
1.39134e-05
1.51962e-05
1.71353e-05
1.90032e-05
2.08022e-05
2.26e-05
2.44354e-05
2.54523e-05
2.52749e-05
2.4682e-05
2.51452e-05
2.47708e-05
2.56172e-05
2.41945e-05
2.2917e-05
2.11067e-05
1.92856e-05
1.75474e-05
1.60487e-05
1.49593e-05
1.42626e-05
1.37885e-05
1.34321e-05
1.31153e-05
1.27885e-05
1.24277e-05
1.20263e-05
1.15878e-05
1.11222e-05
1.06436e-05
1.0169e-05
9.71708e-06
9.30581e-06
8.95001e-06
8.65854e-06
8.43373e-06
8.27687e-06
8.21101e-06
8.37155e-06
9.4053e-06
1.40379e-05
2.63656e-05
4.92214e-05
)
;
    }
    rightWall
    {
        type            nutkWallFunction;
        Cmu             0.09;
        kappa           0.41;
        E               9.8;
        value           nonuniform List<scalar> 
50
(
2.7386e-06
8.74257e-06
1.03405e-05
1.18132e-05
1.48673e-05
1.73925e-05
1.66355e-05
1.58022e-05
1.53599e-05
1.5548e-05
1.65482e-05
1.82136e-05
2.02224e-05
2.1156e-05
2.15759e-05
2.1648e-05
2.19374e-05
2.27858e-05
1.66205e-05
1.52026e-05
1.48368e-05
1.51668e-05
1.57848e-05
1.6365e-05
1.68183e-05
1.71588e-05
1.73909e-05
1.75228e-05
1.75698e-05
1.75488e-05
1.74782e-05
1.73727e-05
1.7251e-05
1.71273e-05
1.702e-05
1.69437e-05
1.69121e-05
1.69317e-05
1.70284e-05
1.72109e-05
1.75145e-05
1.79597e-05
1.86012e-05
1.94884e-05
2.07294e-05
2.24806e-05
2.50952e-05
2.93258e-05
3.71898e-05
5.56745e-05
)
;
    }
    lowerWall
    {
        type            nutkWallFunction;
        Cmu             0.09;
        kappa           0.41;
        E               9.8;
        value           nonuniform List<scalar> 
62
(
2.214e-06
3.57017e-06
4.37639e-06
4.9444e-06
5.39008e-06
5.75759e-06
6.06595e-06
6.32404e-06
6.53614e-06
6.70448e-06
6.83072e-06
6.91706e-06
6.96652e-06
6.98408e-06
6.98816e-06
6.97171e-06
6.9253e-06
6.83836e-06
6.69177e-06
6.44833e-06
6.03019e-06
5.23958e-06
3.03075e-06
3.03075e-06
9.90909e-06
1.19841e-05
1.35244e-05
1.47882e-05
1.59581e-05
1.73264e-05
2.08755e-05
2.847e-05
2.66755e-05
2.5527e-05
2.53823e-05
2.99814e-06
1.07144e-05
1.36163e-05
1.52644e-05
1.71456e-05
2.02982e-05
2.33809e-05
2.65385e-05
2.99814e-06
5.07698e-06
5.91789e-06
6.33511e-06
6.52177e-06
6.61831e-06
6.6002e-06
6.59828e-06
6.7157e-06
6.80166e-06
6.7102e-06
6.40894e-06
6.12034e-06
6.01928e-06
5.84528e-06
5.51066e-06
5.05626e-06
4.26595e-06
2.7386e-06
)
;
    }
    atmosphere
    {
        type            calculated;
        value           nonuniform List<scalar> 
46
(
0.009
0.009
0.009
0.00427035
0.003552
0.00367597
0.0041853
0.00479812
0.005409
0.00598877
0.00652996
0.00702446
0.0074803
0.009
0.009
0.009
0.009
0.009
0.009
0.009
0.009
0.009
0.009
0.009
0.009
0.009
0.009
0.009
0.009
0.009
0.009
0.009
0.009
0.00862953
0.00850396
0.00838228
0.00823678
0.0080628
0.00785912
0.0076299
0.00739398
0.0071774
0.00692807
0.00595698
0.009
0.009
)
;
    }
    defaultFaces
    {
        type            empty;
    }
}


// ************************************************************************* //
