/*--------------------------------*- C++ -*----------------------------------*\
  =========                 |
  \\      /  F ield         | OpenFOAM: The Open Source CFD Toolbox
   \\    /   O peration     | Website:  https://openfoam.org
    \\  /    A nd           | Version:  13
     \\/     M anipulation  |
\*---------------------------------------------------------------------------*/
FoamFile
{
    format      ascii;
    class       volScalarField;
    location    "2.45";
    object      p_rgh;
}
// * * * * * * * * * * * * * * * * * * * * * * * * * * * * * * * * * * * * * //

dimensions      [1 -1 -2 0 0 0 0];

internalField   nonuniform List<scalar> 
2268
(
5478.26
5499.09
5523.09
5552.14
5584.33
5620.2
5660.73
5706.34
5756.7
5810.95
5867.9
5926.16
5984.37
6041.39
6095.93
6148.09
6198.16
6247.18
6296.7
6348.24
6401.48
6452.41
6497.03
5473.84
5493.08
5515.12
5541.92
5572.46
5607.33
5647.38
5692.98
5743.84
5799.2
5857.96
5918.78
5980.15
6040.71
6099.24
6155.17
6208.75
6260.82
6312.67
6365.42
6417.89
6464.67
6505.63
5468.33
5486.28
5506.41
5530.57
5558.82
5592.07
5631.23
5676.64
5728.05
5784.79
5845.81
5909.74
5974.94
6039.78
6102.64
6162.76
6220
6274.91
6328.46
6381.31
6431.87
6476.51
6520.53
5459.68
5478.13
5497.02
5518.83
5544.6
5576.03
5614.23
5659.57
5711.8
5770.22
5833.78
5901.06
5970.2
6039.38
6106.33
6170.13
6230.27
6286.9
6340.72
6392.2
6440.44
6486.27
6540.52
5448.74
5471.58
5490.83
5510.97
5534.25
5563.66
5600.68
5645.67
5698.35
5758.05
5823.72
5894
5966.88
6040.03
6110.86
6178.11
6240.71
6298.43
6351.7
6401.06
6447.24
6496.64
6565.15
4130.77
4329.6
4464.59
4571.57
4689.05
4833.26
5003.64
5190.75
5381.88
5563.99
5725.32
5859.1
5964.21
6046
6117.63
6185.96
6249.14
6306.51
6358.33
6405.22
6449.74
6505.01
6592.77
1277.09
1288.1
1358.91
1416.27
1479.78
1569.07
1698.99
1880.9
2125.21
2440.53
2828.12
3277.8
3763.5
4235.35
4620.33
4956.76
5237.11
5468.61
5666.51
5841.42
6005.09
6239.72
6611.92
1276.34
1278.04
1275.37
1270.9
1265.14
1258.25
1250.45
1242.18
1233.83
1225.71
1218.16
1211.63
1206.75
1225.69
1341.64
1464.52
1591.46
1719.8
1849.22
1982.78
2133.18
2439.62
3447.54
2394.36
2416.02
2468.21
2546.5
2656.86
2792.88
2856.62
2826.55
2881.64
2922.1
2921.43
2875.77
2843.01
2884.79
2874.05
2846.34
2821.17
2802.76
2801.74
2122.6
2129.57
2195.65
2326.54
2499.38
2771.65
2894.48
2975.05
3035.71
3066.24
3063.6
2960.96
2902.09
2899.72
2859.12
2830.33
2809.34
2797.85
2802.02
1586.48
1605.87
1616.06
1665.06
1892.32
2212.48
2460.66
2715.14
2887.38
3020.29
2993.54
2995.29
2883.85
2822.7
2759.19
2760.71
2723.71
2584.88
2525.56
1601.07
1634.63
1661.47
1672.87
1549.06
1310.82
1565.97
1732.04
1754.53
1847.62
1982.24
1995.64
1927.72
1845.37
1783.54
1586.75
1573.68
1856.12
2081.04
1475.03
1508.96
1524.39
1622.62
1561.09
1235.83
1212.68
1230.86
1340.96
1149.06
1115.54
1518.78
1693.3
1430.12
1159.09
1042.8
984.485
945.343
1033.91
1172.94
1222.7
1415.99
1420.98
1547.04
1403.49
1304.46
1273.08
1366.73
1154.27
1086.13
871.655
868.171
916.245
938.852
1063.65
1092.25
1082.88
896.438
1172.27
1121.53
1101.92
1167.15
1379.83
1460.15
1417.42
1449.66
1324.97
1144.59
1103.28
1024.87
813.144
854.066
1051.16
1100.15
1098.46
1085.68
922.533
1266.96
1183.45
1102.32
1101.67
1101.09
1408.66
1470.97
1265.97
1104.97
1110.99
1104.33
1097.79
977.776
995.835
1097.02
1101.31
1100.02
1083.52
1001.98
1273.92
1274.86
1273.36
1269.48
1264.1
1257.72
1250.67
1243.35
1236.11
1229.14
1222.56
1216.46
1210.98
1206.25
1202.25
1199.35
1197.28
1195.28
1192.27
1187.06
1177.58
1159.45
1137.31
1272.05
1271.96
1269.78
1265.88
1260.56
1254.05
1246.9
1239.65
1232.65
1226.07
1219.98
1214.46
1209.55
1205.4
1201.88
1198.85
1196.13
1193.11
1188.86
1182.72
1174.38
1162.95
1148.65
1264.24
1265.85
1267.12
1263.7
1258.1
1251.28
1243.51
1235.79
1228.86
1222.74
1217.1
1211.24
1203.74
1199.53
1199.08
1197.44
1194.9
1190.85
1171.57
1133.22
1113.02
1100.63
1102
1175.51
1239.76
1233.41
1215.44
1208.72
1200.26
1152.99
1126.31
1107.87
1092.57
1077.55
1059.47
1034.45
1020.47
1011.36
984.182
956.715
926.713
904.504
879.461
855.977
797.005
738.039
1059.31
951.288
894.882
869.205
868.894
824.761
794.392
750.8
717.873
697.169
677.962
674.855
685.326
692.329
686.827
678.884
697.75
740.461
744.151
744.975
751.133
722.944
708.693
764.658
779.754
776.862
772.765
746.424
709.567
737.035
760.372
753.053
746.677
756.035
756.614
755.71
755.225
751.409
750.608
754.19
756.139
756.98
757.478
755.17
753.197
758.908
779.735
785.091
781.199
777.276
773.103
769.283
765.252
761.748
759.087
757.06
755.486
754.389
753.638
753.306
753.425
753.765
754.152
754.765
755.671
756.655
757.655
758.673
759.517
790.553
794.013
788.128
780.854
762.497
727.642
712.376
711.632
704.16
699.51
703.744
711.253
718.37
725
731.598
737.094
741.434
745.524
749.762
753.19
755.21
756.342
757.045
767.508
697.136
539.362
388.417
270.253
232.131
225.184
196.403
171.56
162.725
176.538
192.873
207.863
224.611
244.131
263.447
281.359
301.234
325.4
347.119
359.837
365.942
372.947
160.385
192.419
87.4256
9.731
6.63076
6.55598
6.55211
6.58668
6.62147
6.65607
6.67696
6.69357
6.7096
6.72993
6.75354
6.78125
6.81568
6.85611
6.89854
6.94064
6.98252
7.03136
7.08463
6.21794
6.27763
6.3522
6.39388
6.3935
6.41105
6.45444
6.5059
6.55772
6.60682
6.65132
6.69408
6.73723
6.78121
6.82573
6.87089
6.91723
6.96493
7.01365
7.06269
7.11166
7.15978
7.21331
6.29036
6.29098
6.30925
6.36062
6.40109
6.4271
6.46567
6.51094
6.57741
6.63181
6.6403
6.67904
6.71898
6.76046
6.80321
6.8473
6.89278
6.93976
6.98802
7.03687
7.08562
7.13213
7.17906
6.31203
6.31201
6.34047
6.4157
6.45398
6.44018
6.46143
6.52254
6.69555
6.7521
6.67595
6.66158
6.69905
6.73917
6.78138
6.82515
6.87022
6.91709
6.96536
7.01419
7.06277
7.10893
7.15644
6.32792
6.32488
6.36348
6.42662
6.45338
6.435
6.44844
6.52461
6.69596
6.73989
6.78102
6.67738
6.6834
6.72253
6.76453
6.80725
6.85152
6.8982
6.94644
6.99522
7.0436
7.08935
7.13661
6.33443
6.33194
6.35345
6.40791
6.41635
6.40889
6.43449
6.47106
6.63329
6.72363
6.76538
6.6704
6.66382
6.70518
6.74669
6.788
6.83011
6.8764
6.9243
6.9727
7.0206
7.06571
7.11233
6.33314
6.33249
6.33973
6.35248
6.37121
6.39479
6.42105
6.44936
6.49
6.61686
6.63737
6.60186
6.63985
6.68113
6.72278
6.76345
6.80422
6.8497
6.89696
6.94465
6.99186
7.03632
7.08205
6.32643
6.32733
6.33328
6.34459
6.36194
6.38311
6.40725
6.43394
6.46298
6.4947
6.52933
6.56763
6.6099
6.65379
6.69211
6.73067
6.77419
6.8191
6.86526
6.91205
6.95836
7.00195
7.04688
6.31694
6.31903
6.32507
6.33575
6.35106
6.37011
6.39229
6.41726
6.44465
6.4748
6.50769
6.54333
6.58215
6.62043
6.65831
6.69909
6.74134
6.78512
6.8301
6.87568
6.92088
6.96353
7.00738
6.3053
6.30805
6.31422
6.32414
6.33788
6.35512
6.3755
6.39875
6.42457
6.45298
6.48389
6.51766
6.55322
6.58947
6.62649
6.66558
6.70628
6.74849
6.79204
6.83625
6.88012
6.92155
6.96429
6.29138
6.29451
6.30056
6.30976
6.32227
6.33799
6.35674
6.37833
6.40254
6.42925
6.45832
6.48973
6.52312
6.5573
6.5929
6.63027
6.66919
6.70968
6.75158
6.79417
6.83653
6.87662
6.9179
6.27547
6.2786
6.28436
6.29289
6.30434
6.31875
6.33605
6.35607
6.37867
6.40368
6.43092
6.4602
6.49119
6.52372
6.55777
6.59331
6.63036
6.66899
6.70905
6.74989
6.79056
6.82911
6.86899
6.25762
6.26058
6.26594
6.27381
6.28433
6.29759
6.31355
6.3321
6.35311
6.37643
6.40188
6.42923
6.45826
6.4889
6.52107
6.55472
6.58988
6.62659
6.66472
6.70363
6.74247
6.77941
6.81768
6.23804
6.2407
6.24562
6.25284
6.26251
6.2747
6.28942
6.30657
6.32605
6.3477
6.37138
6.39689
6.42405
6.45273
6.48292
6.51459
6.54778
6.58251
6.61864
6.65558
6.69243
6.72752
6.76431
6.2169
6.21924
6.22368
6.23028
6.23914
6.25033
6.26387
6.27968
6.29766
6.31769
6.33963
6.36332
6.3886
6.41533
6.4435
6.47313
6.50423
6.53687
6.5709
6.60572
6.64058
6.67379
6.70837
6.19442
6.19644
6.20041
6.20639
6.21447
6.22471
6.23711
6.25162
6.26815
6.2866
6.30683
6.3287
6.35209
6.37688
6.40301
6.43052
6.45948
6.48991
6.52169
6.5543
6.58698
6.61815
6.65061
6.1708
6.17253
6.17605
6.18143
6.18875
6.19806
6.20936
6.2226
6.23772
6.2546
6.27314
6.29322
6.31473
6.33755
6.36163
6.38701
6.41375
6.44191
6.47137
6.50162
6.53202
6.5611
6.59128
6.14623
6.14773
6.15083
6.15563
6.16221
6.17061
6.18083
6.19283
6.20654
6.22189
6.23877
6.25707
6.2767
6.29755
6.31957
6.3428
6.3673
6.39313
6.4202
6.44806
6.47607
6.50289
6.53087
6.12091
6.12223
6.12496
6.1292
6.13505
6.14254
6.1517
6.16247
6.17481
6.18865
6.20389
6.22044
6.2382
6.25709
6.27706
6.29813
6.32038
6.34386
6.3685
6.39388
6.41946
6.44398
6.46948
6.09503
6.0962
6.09859
6.1023
6.10742
6.11403
6.12213
6.1317
6.14269
6.15504
6.16867
6.18349
6.19941
6.21637
6.2343
6.25323
6.27323
6.29435
6.31653
6.33944
6.36252
6.38467
6.40786
6.06874
6.0698
6.07188
6.07506
6.07948
6.08521
6.09227
6.10066
6.11033
6.12123
6.13328
6.14641
6.16054
6.17558
6.1915
6.20831
6.22607
6.24484
6.26459
6.28497
6.30557
6.3254
6.34613
6.04222
6.04319
6.04496
6.04764
6.05135
6.05621
6.06225
6.06948
6.07786
6.08735
6.09788
6.10937
6.12175
6.13493
6.14888
6.16361
6.17916
6.1956
6.21289
6.23077
6.24884
6.26625
6.28463
6.0156
6.0165
6.01798
6.02014
6.02315
6.02714
6.03218
6.03827
6.04541
6.05354
6.06261
6.07253
6.08322
6.0946
6.10665
6.11933
6.13272
6.14686
6.16173
6.17709
6.19263
6.20762
6.22338
5.98907
5.98989
5.99105
5.99268
5.99497
5.9981
6.00215
6.00715
6.0131
6.01994
6.02761
6.03603
6.04512
6.05479
6.065
6.07572
6.08701
6.0989
6.11139
6.1243
6.13734
6.1499
6.16322
5.96276
5.9635
5.96433
5.9654
5.96695
5.9692
5.97228
5.97622
5.98102
5.98664
5.99301
6.00003
6.00761
6.01566
6.02413
6.03299
6.04227
6.05202
6.06225
6.07278
6.08344
6.09373
6.10459
5.93687
5.93752
5.93798
5.93842
5.93918
5.94053
5.94263
5.94555
5.94927
5.95375
5.9589
5.96463
5.97082
5.97737
5.98422
5.99133
5.99874
6.00649
6.0146
6.02295
6.03137
6.03948
6.04815
5.91158
5.91214
5.91218
5.9119
5.91176
5.91214
5.91326
5.91519
5.9179
5.92133
5.92537
5.92991
5.93484
5.94004
5.94542
5.95095
5.95666
5.9626
5.96879
5.97513
5.98153
5.98768
5.99418
5.88706
5.88758
5.88713
5.88594
5.88474
5.88406
5.88418
5.88515
5.88693
5.8894
5.89245
5.89594
5.89975
5.90376
5.90787
5.91201
5.91624
5.9206
5.9251
5.92969
5.9343
5.93869
5.9434
5.86345
5.86404
5.86301
5.86062
5.85807
5.8562
5.85531
5.85539
5.85633
5.85796
5.86013
5.86269
5.86553
5.86855
5.87163
5.87464
5.87763
5.88065
5.88372
5.8868
5.88987
5.8928
5.89593
5.84071
5.84157
5.83983
5.8357
5.83143
5.82826
5.82643
5.82576
5.826
5.82693
5.82834
5.8301
5.8321
5.83435
5.83669
5.83886
5.84083
5.84273
5.84457
5.84636
5.84812
5.84974
5.85151
5.81821
5.81921
5.81633
5.80976
5.80374
5.79961
5.79722
5.79613
5.79593
5.79634
5.79715
5.79823
5.79955
5.80122
5.80304
5.80435
5.80527
5.8061
5.80686
5.80754
5.80814
5.80856
5.80876
5.7944
5.79377
5.78867
5.77868
5.77278
5.76925
5.76731
5.7664
5.76614
5.76631
5.76675
5.76735
5.76816
5.76935
5.77093
5.77212
5.77114
5.77078
5.77057
5.77041
5.77015
5.76969
5.76826
5.7592
5.7539
5.74894
5.74294
5.74159
5.74093
5.74066
5.7406
5.7407
5.74094
5.74126
5.74164
5.74212
5.74292
5.74442
5.74529
5.74228
5.74117
5.7406
5.74023
5.73988
5.73944
5.73826
1119.81
1117.96
1118.71
1117.64
1135.56
1128.46
1125.51
1122.11
1096.55
998.625
840.317
736.046
722.631
709.807
729.766
741.576
733.281
760.105
763.801
764.118
760.963
760.929
760.901
761.146
760.237
760.608
760.788
760.742
756.894
756.399
756.503
756.807
385.857
380.951
377.259
370.827
7.13428
7.19282
7.26059
7.32965
7.28935
7.35409
7.41909
7.46568
7.24205
7.30676
7.37725
7.43228
7.22514
7.29334
7.36548
7.41914
7.20661
7.27552
7.34812
7.40169
7.18167
7.25039
7.32322
7.37692
7.15045
7.21865
7.29123
7.34513
7.11398
7.18129
7.25354
7.30734
7.07314
7.13932
7.21054
7.26403
7.02824
7.09291
7.16302
7.21581
6.97988
7.04273
7.11105
7.163
6.92862
6.98932
7.0558
7.10644
6.87502
6.93338
6.99728
7.04635
6.81885
6.87456
6.93597
6.98316
6.76023
6.8132
6.87151
6.9168
6.69929
6.74935
6.80512
6.84853
6.63697
6.68405
6.73653
6.77786
6.57322
6.61712
6.66652
6.70548
6.50847
6.54906
6.59486
6.63155
6.44327
6.48044
6.52291
6.55702
6.37825
6.41201
6.4506
6.48208
6.31319
6.34349
6.37858
6.40728
6.24839
6.27519
6.30648
6.33272
6.18453
6.20786
6.23579
6.25948
6.12259
6.14262
6.1669
6.18814
6.06286
6.07973
6.10083
6.11956
6.00588
6.01977
6.03758
6.05404
5.95228
5.9634
5.97836
5.99247
5.90255
5.91123
5.92321
5.935
5.85606
5.8625
5.87189
5.8813
5.81118
5.81536
5.82214
5.82957
5.76663
5.76808
5.77246
5.77857
5.73567
5.73544
5.73694
5.73995
1241.04
1193.63
1069.43
1058.11
1105.8
1123.17
1089.66
1094.14
1097.12
1103.07
1105.19
1107.08
1110.6
1109.49
1106.9
1103.99
1102.91
1089.33
1030.06
956.816
968.729
996.853
991.379
923.053
896.918
994.82
1052.62
1075.52
1096.9
1107.38
1109.51
1112.85
1112.05
1106.59
1094.51
1079.65
1060.81
1070.24
753.735
763.394
798.324
773.955
716.103
786.743
803.019
796.371
812.943
833
870.184
906.546
939.275
936.293
910.921
874
845.539
836.253
822.751
747.263
760.479
763.522
761.58
740.58
696.776
706.616
739.347
739.392
734.674
730.059
726.234
724.428
723.201
722.921
724.536
728.42
751.175
799.261
763.374
762.493
761.495
759.076
757.629
753.104
750.429
744.904
739.875
735.271
730.813
726.866
723.768
721.851
721.466
722.672
725.299
729.416
733.73
761.378
761.132
760.331
759.325
757.667
754.543
750.15
745.266
740.482
735.887
731.568
727.676
724.338
721.904
720.985
721.756
723.904
727.488
733.874
760.446
760.009
759.288
758.126
756.379
753.638
749.938
745.649
741.125
736.626
732.416
728.385
724.542
722.157
726.018
741.823
748.259
744.528
740.588
757.079
756.823
756.624
756.303
755.097
752.419
742.151
719.591
688.118
651.475
612.384
565.444
485.947
406.346
352.328
318.424
333.484
437.011
580.509
355.801
349.084
341.196
328.839
307.305
270.153
224.958
178.203
131.273
86.1048
44.7092
13.5572
23.5853
33.2503
36.8323
39.3058
41.2967
39.1455
72.9592
7.41038
7.42976
7.44908
7.48689
7.53601
7.58375
7.64684
7.76163
8.39851
10.1533
10.8954
10.6035
8.939
7.92066
7.66744
7.64937
7.64074
7.64545
10.0015
7.50401
7.52674
7.55159
7.60906
7.83004
7.99343
7.95948
7.90471
7.88895
7.83262
8.16068
8.54712
8.51062
7.76639
7.58657
7.56995
7.55525
7.54381
7.53943
7.48291
7.50483
7.52629
7.75348
8.50087
8.51212
8.50705
7.72039
7.56652
7.64071
8.33
8.4015
7.6589
7.5872
7.5777
7.57014
7.55722
7.54054
7.53314
7.46483
7.48336
7.49907
7.52068
7.95721
8.39784
8.19479
7.60099
7.55099
7.55329
7.55139
7.55952
7.56493
7.56945
7.56862
7.56235
7.55119
7.53604
7.52236
7.44591
7.46303
7.47703
7.48663
7.48962
7.49478
7.50725
7.52801
7.54024
7.53792
7.53879
7.54104
7.54526
7.54727
7.54495
7.53859
7.52922
7.51798
7.50708
7.42124
7.43839
7.45283
7.46491
7.47326
7.48161
7.49224
7.50389
7.51205
7.51628
7.51783
7.5193
7.5206
7.51961
7.51531
7.50806
7.4988
7.48871
7.47986
7.38989
7.40744
7.42279
7.4368
7.44813
7.45838
7.46845
7.47798
7.48478
7.48866
7.49037
7.49107
7.49049
7.48761
7.48204
7.47416
7.46479
7.45499
7.44728
7.35231
7.37042
7.38656
7.4019
7.41493
7.42632
7.43654
7.4452
7.4514
7.45506
7.45659
7.45656
7.45487
7.45099
7.44482
7.43677
7.42749
7.41814
7.41151
7.30913
7.32768
7.34452
7.36085
7.37499
7.38712
7.39746
7.40591
7.41201
7.4157
7.41718
7.41672
7.41437
7.41
7.40365
7.39569
7.38678
7.37815
7.37239
7.26065
7.27966
7.29705
7.31412
7.32911
7.34191
7.35256
7.36104
7.36721
7.37105
7.3726
7.37205
7.36949
7.36499
7.35872
7.35108
7.34276
7.33496
7.32977
7.20754
7.22679
7.24459
7.26221
7.27783
7.29121
7.30228
7.31104
7.31746
7.32154
7.32331
7.32291
7.32048
7.31617
7.31023
7.30311
7.29553
7.28849
7.28378
7.15014
7.16957
7.18763
7.20563
7.22175
7.23563
7.24715
7.25633
7.26314
7.26762
7.26979
7.26977
7.26772
7.26383
7.25842
7.25198
7.24517
7.23879
7.2346
7.08908
7.10846
7.12666
7.14493
7.16143
7.17577
7.18778
7.19744
7.20477
7.20978
7.21251
7.21304
7.21155
7.20827
7.20354
7.19785
7.19175
7.18608
7.18235
7.02455
7.04394
7.06217
7.0806
7.09742
7.11218
7.12468
7.13489
7.14282
7.14847
7.15187
7.1531
7.15232
7.14978
7.14581
7.14088
7.13548
7.13049
7.1273
6.95716
6.97651
6.99463
7.01314
7.03021
7.04535
7.05835
7.06915
7.07772
7.08409
7.08826
7.09029
7.09033
7.08861
7.08545
7.08125
7.0766
7.07234
7.06955
6.88724
6.90636
6.92444
6.94299
6.96026
6.97576
6.98924
7.00064
7.0099
7.01704
7.02203
7.02494
7.02587
7.02501
7.02268
7.01927
7.01535
7.01174
7.00942
6.81514
6.83381
6.85185
6.87043
6.88789
6.90375
6.91774
6.92975
6.93973
6.94767
6.95353
6.95735
6.95921
6.95926
6.95778
6.95516
6.95199
6.94904
6.94708
6.74094
6.7593
6.77717
6.79572
6.81335
6.82955
6.84405
6.85671
6.86744
6.87622
6.883
6.88778
6.89061
6.8916
6.89101
6.88922
6.88677
6.88441
6.88283
6.66541
6.68327
6.70091
6.71934
6.73704
6.75352
6.76847
6.78175
6.79324
6.80288
6.81061
6.8164
6.82024
6.82223
6.82257
6.82163
6.81991
6.81818
6.8169
6.58882
6.60623
6.62353
6.64175
6.65944
6.67612
6.69146
6.70529
6.71749
6.72796
6.73664
6.74343
6.74832
6.75134
6.75265
6.75261
6.75169
6.75045
6.74962
6.5119
6.52866
6.54555
6.56347
6.58106
6.59783
6.61346
6.62776
6.6406
6.65186
6.66143
6.6692
6.67513
6.67921
6.68153
6.6824
6.68227
6.68164
6.68107
6.43487
6.45108
6.4675
6.48503
6.50241
6.51916
6.53496
6.54961
6.56299
6.57494
6.58533
6.59404
6.601
6.60614
6.6095
6.6113
6.61195
6.61184
6.61163
6.3585
6.37406
6.38995
6.407
6.42403
6.44061
6.45642
6.47129
6.48505
6.49756
6.50868
6.51827
6.52622
6.53242
6.53683
6.53955
6.54097
6.54143
6.54146
6.28326
6.29824
6.31353
6.32995
6.34648
6.3627
6.37834
6.39321
6.40717
6.42008
6.4318
6.44218
6.45107
6.45831
6.46377
6.46745
6.46962
6.4705
6.4709
6.21008
6.22429
6.23884
6.25449
6.27031
6.28595
6.30117
6.3158
6.32972
6.34282
6.35498
6.36604
6.3758
6.38406
6.39058
6.39521
6.3981
6.39951
6.40006
6.13941
6.15284
6.16649
6.18115
6.19602
6.21081
6.22532
6.23941
6.25301
6.26605
6.27843
6.29001
6.30056
6.30981
6.3174
6.32305
6.32664
6.32841
6.32916
6.07205
6.08444
6.09698
6.1104
6.12403
6.13765
6.15109
6.16431
6.17727
6.18994
6.20227
6.21414
6.22535
6.23557
6.24431
6.25101
6.25532
6.25745
6.25826
6.00831
6.01953
6.03072
6.04258
6.05463
6.0667
6.07871
6.09068
6.10262
6.11455
6.12647
6.13833
6.15
6.16114
6.17113
6.1791
6.18422
6.18657
6.18744
5.9486
5.95832
5.96788
5.97785
5.98791
5.99801
6.00819
6.01852
6.02904
6.03979
6.05084
6.06226
6.07404
6.08596
6.09738
6.10696
6.11318
6.1158
6.11663
5.89243
5.90064
5.90836
5.91607
5.92366
5.93138
5.93936
5.9477
5.95638
5.96546
5.97507
5.9854
5.99667
6.00896
6.02188
6.03381
6.04169
6.04476
6.04578
5.8388
5.84571
5.85154
5.8567
5.86124
5.86638
5.87197
5.87805
5.88453
5.89143
5.89891
5.90728
5.91696
5.92856
5.94246
5.95778
5.96821
5.97265
5.97443
5.78826
5.79433
5.7982
5.80064
5.79995
5.80259
5.80598
5.80969
5.81368
5.81795
5.82265
5.82802
5.83457
5.84323
5.85599
5.8776
5.89038
5.89754
5.90312
5.74603
5.74905
5.75051
5.75076
5.74925
5.75031
5.75169
5.7531
5.75456
5.75609
5.75774
5.75956
5.76173
5.76474
5.76996
5.78403
5.79217
5.79546
5.8039
)
;

boundaryField
{
    leftWall
    {
        type            fixedFluxPressure;
        gradient        uniform 0;
        value           nonuniform List<scalar> 
50
(
5478.26
5473.84
5468.33
5459.68
5448.74
4130.77
1277.09
1276.34
1273.92
1272.05
1264.24
1175.51
1059.31
764.658
779.735
790.553
767.508
160.385
6.21794
6.29036
6.31203
6.32792
6.33443
6.33314
6.32643
6.31694
6.3053
6.29138
6.27547
6.25762
6.23804
6.2169
6.19442
6.1708
6.14623
6.12091
6.09503
6.06874
6.04222
6.0156
5.98907
5.96276
5.93687
5.91158
5.88706
5.86345
5.84071
5.81821
5.7944
5.7592
)
;
    }
    rightWall
    {
        type            fixedFluxPressure;
        gradient        uniform 0;
        value           nonuniform List<scalar> 
50
(
2801.74
2802.02
2525.56
2081.04
1033.91
896.438
922.533
1001.98
1030.06
1070.24
822.751
799.261
733.73
733.874
740.588
580.509
72.9592
10.0015
7.53943
7.53314
7.52236
7.50708
7.47986
7.44728
7.41151
7.37239
7.32977
7.28378
7.2346
7.18235
7.1273
7.06955
7.00942
6.94708
6.88283
6.8169
6.74962
6.68107
6.61163
6.54146
6.4709
6.40006
6.32916
6.25826
6.18744
6.11663
6.04578
5.97443
5.90312
5.8039
)
;
    }
    lowerWall
    {
        type            fixedFluxPressure;
        gradient        uniform 0;
        value           nonuniform List<scalar> 
62
(
5478.26
5499.09
5523.09
5552.14
5584.33
5620.2
5660.73
5706.34
5756.7
5810.95
5867.9
5926.16
5984.37
6041.39
6095.93
6148.09
6198.16
6247.18
6296.7
6348.24
6401.48
6452.41
6497.03
6497.03
6505.63
6520.53
6540.52
6565.15
6592.77
6611.92
3447.54
1119.81
1117.96
1118.71
1117.64
2394.36
2122.6
1586.48
1601.07
1475.03
1172.94
1172.27
1266.96
2394.36
2416.02
2468.21
2546.5
2656.86
2792.88
2856.62
2826.55
2881.64
2922.1
2921.43
2875.77
2843.01
2884.79
2874.05
2846.34
2821.17
2802.76
2801.74
)
;
    }
    atmosphere
    {
        type            prghTotalPressure;
        rho             rho;
        psi             none;
        gamma           1;
        p0              uniform 0;
        value           nonuniform List<scalar> 
46
(
5.72817
5.72853
5.72889
5.72892
5.72898
5.72901
5.72903
5.72903
5.72903
5.72902
5.72901
5.72899
5.72895
5.72886
5.72877
5.72885
5.7288
5.72874
5.72868
5.72861
5.72855
5.72849
5.72847
5.72862
5.72865
5.72867
5.72868
5.72863
5.72871
5.72877
5.7288
5.72865
5.72867
5.72872
5.72876
5.7288
5.72884
5.72887
5.72888
5.72887
5.7288
5.72867
5.72862
5.72849
5.72782
5.72698
)
;
        rho             rho;
    }
    defaultFaces
    {
        type            empty;
    }
}


// ************************************************************************* //
