/*--------------------------------*- C++ -*----------------------------------*\
  =========                 |
  \\      /  F ield         | OpenFOAM: The Open Source CFD Toolbox
   \\    /   O peration     | Website:  https://openfoam.org
    \\  /    A nd           | Version:  13
     \\/     M anipulation  |
\*---------------------------------------------------------------------------*/
FoamFile
{
    format      ascii;
    class       volScalarField;
    location    "2.45";
    object      rho;
}
// * * * * * * * * * * * * * * * * * * * * * * * * * * * * * * * * * * * * * //

dimensions      [1 -3 0 0 0 0 0];

internalField   nonuniform List<scalar> 
2268
(
13529
13529
13529
13529
13529
13529
13529
13529
13529
13529
13529
13529
13529
13529
13529
13529
13529
13529
13529
13529
13524.3
13521.6
13521.6
13529
13529
13529
13529
13529
13529
13529
13529
13529
13529
13529
13529
13529
13529
13529
13529
13529
13529
13529
13529
13528.4
13527.4
13524.5
13529
13529
13529
13529
13529
13529
13529
13529
13529
13529
13529
13529
13529
13529
13529
13529
13529
13529
13529
13529
13529
13529
13528.9
13529
13529
13529
13529
13529
13529
13529
13529
13529
13529
13529
13529
13529
13529
13529
13529
13529
13529
13529
13529
13529
13529
13529
13529
13529
13529
13529
13529
13529
13529
13529
13529
13529
13529
13529
13529
13529
13529
13529
13529
13529
13529
13529
13529
13529
13529
9078.97
9649.13
10029.8
10325.9
10650.6
11044.1
11498.5
11980.8
12449.3
12862.3
13183.6
13395.3
13501.1
13528.7
13529
13529
13529
13529
13529
13529
13529
13529
13529
1000
1024.34
1209.3
1360.87
1530.31
1765.48
2101.99
2566.33
3182.68
3970.99
4932.77
6041
7229.3
8367.92
9265.34
10034.7
10661.4
11167.7
11595.2
11971.4
12319
12811.8
13517.7
1000
1000
1000
999.998
999.997
999.999
1000
1000
1000
1000
1000
1000
1000
1046.61
1299.03
1560.96
1828.37
2097.99
2372.13
2659.59
2988.38
3661.73
5849.87
11588.8
11749.9
11943.1
11953.6
11952.1
11938.7
11129
8752.12
8757.67
8819.36
8735.78
8467.92
8489.09
9914.57
10330.2
10349.3
10317.8
10289.2
10293.6
7081.41
6985.51
7406.18
8263.22
9244
11181.2
11358.4
11172.4
11249.9
11248.9
11169.7
10068.5
9765.18
10295.1
10296.9
10301.2
10293.7
10289.4
10294.2
2523.38
2562.37
2510
2689.32
4113.12
6344.14
7590.69
8904.04
9882.85
10732.1
10498.5
10378.8
9732.23
9679.2
9515.81
9773.21
9604.1
8495.69
7936.38
2628.71
2738.37
2792.72
2759.24
2189.33
1297.65
2537.5
3324.46
3425.25
4040.72
4731.57
4667.92
4308.64
4113.48
3975.64
3132.29
3104.43
4386.81
5408.12
2108.01
2209.19
2218.58
2545.28
2243.37
1041.11
1049.62
1189.37
1649.6
1086.55
1048.84
2594.22
3267.39
2329.2
1309.71
825.136
611.651
528.908
956.244
1090.49
1238.54
1848.49
1859.98
2183.59
1642.22
1371.43
1321.91
1707.9
1120.79
957.333
386.091
452.392
576.719
563.107
896.802
981.357
997.105
492.909
1100.64
956.782
957.185
1145.18
1692.69
1810.56
1695.33
1824.74
1567.17
1099.16
1006.22
822.35
298.85
399.668
880.157
999.88
999.882
997.193
583.118
1338.41
1115.13
966.122
991.075
1008.91
1678.67
1820.83
1371.59
1022.72
1018.7
1004.86
991.734
706.021
747.57
985.972
999.947
999.883
980.62
786.255
1000
1000
999.999
999.989
999.992
999.998
1000
1000
1000
1000
1000
1000
1000
1000
1000
1000
1000
1000
999.998
999.991
999.989
999.967
999.943
1000
1000
999.353
999.641
999.969
999.999
1000
999.999
1000
1000
1000
1000
1000
1000
1000
1000
1000
1000
1000
1000
1000.01
1000.01
998.198
989.342
992.128
997.572
999.596
999.991
1000
999.979
999.631
999.496
999.498
999.311
998.042
993.831
992.858
996.147
997.803
997.6
995.487
974.795
931.211
912.768
906.864
917.867
881.956
957.911
957.087
943.777
942.91
940.935
896.131
874.026
860.161
848.565
836.29
819.565
794.282
780.709
772.405
743.61
713.406
679.797
655.365
628.332
604.533
542.995
480.496
757.443
658.561
608.11
587.765
592.715
554.758
528.408
489.287
460.481
442.924
426.027
424.15
434.933
442.23
437.132
428.835
445.894
485.786
488.208
488.082
493.401
465.466
451.039
484.819
500.175
499.729
499.113
479.839
450.675
476.534
498.279
493.569
489.459
498.563
500
500
500
496.644
495.603
498.503
500
499.996
499.646
496.9
494.167
498.477
493.13
500.443
500.027
500.002
500
500
500
500
500
500
500
500
500
500
500
500
500
500
500
500.001
500.005
500.011
500.012
495.861
500.639
500.047
499.996
492.134
471.455
463.466
465.545
462.6
460.749
464.268
469.833
475.057
479.76
484.226
487.784
490.426
492.726
494.966
496.664
497.522
497.842
498.122
473.428
427.686
329.217
236.521
163.367
140.345
136.664
119.024
103.697
98.333
107.229
117.716
127.362
138.111
150.603
162.94
174.343
186.946
202.262
216.035
224.089
227.907
232.261
90.5707
109.208
47.7799
2.69504
1.00304
1.00113
1.00014
1.0001
1.00006
1.00003
1.00002
1.00002
1.00003
1.00005
1.00004
1.00002
1
1
1
1.00001
1.00001
1.00002
1.00003
1.00075
1.00167
1.00869
1.00279
1.00016
1.00012
1.0001
1.00003
1.00001
1
1
1
1.00002
1.00001
1.00001
1.00001
1.00001
1.00001
1.00001
1.00001
1.00002
1.00004
1.00009
1.00071
1.00179
1.0037
1.00553
1.00541
1.00013
1.0001
1.00138
1.01221
1.01753
1.00081
1.0004
1.00015
1.00009
1.0001
1.00012
1.0001
1.00007
1.00007
1.00006
1.00005
1.00005
1.0001
1.00056
1.00102
1.00873
1.02778
1.02881
1.00586
1.00004
1.01189
1.07647
1.08377
1.02671
1.00105
1.00042
1.00022
1.00027
1.00032
1.00018
1.00012
1.00009
1.00008
1.00006
1.00005
1.00006
1.00055
1.00063
1.01364
1.03081
1.02965
1.00787
1.00003
1.01993
1.08201
1.08383
1.08382
1.01781
1.00234
1.00151
1.00134
1.00084
1.00032
1.00018
1.00013
1.0001
1.00007
1.00005
1.00004
1.00054
1.0008
1.00671
1.02248
1.01597
1.00126
1.00003
1.00279
1.05924
1.08228
1.08317
1.02394
1.00316
1.00313
1.00271
1.00165
1.00033
1.00017
1.00015
1.00011
1.00009
1.00005
1.00004
1.00051
1.00093
1.00126
1.00063
1.00011
1.00005
1.00003
1.00004
1.00442
1.04294
1.03588
1.00439
1.00314
1.00314
1.00298
1.00193
1.00036
1.00014
1.00014
1.00011
1.00009
1.00007
1.00004
1.00031
1.00061
1.00048
1.00005
1.00003
1.00004
1.00004
1.00006
1.00016
1.0003
1.00008
1.00009
1.00125
1.00276
1.00168
1.00022
1.00019
1.00015
1.0001
1.00009
1.00008
1.00006
1.00004
1.00021
1.00037
1.00024
1.00007
1.00005
1.00005
1.00005
1.00007
1.00005
1.00008
1.00008
1.00016
1.00081
1.00079
1.00014
1.00009
1.00007
1.00009
1.00007
1.00005
1.00005
1.00004
1.00003
1.00016
1.0002
1.00013
1.00007
1.00005
1.00005
1.00004
1.00005
1.00003
1.00002
1.00002
1.00025
1.00048
1.00041
1.00011
1.00004
1.00004
1.00004
1.00004
1.00003
1.00003
1.00002
1.00002
1.00008
1.0001
1.00008
1.00005
1.00004
1.00004
1.00003
1.00003
1.00002
1.00002
1.00002
1.00013
1.0003
1.00019
1.00005
1.00003
1.00002
1.00002
1.00002
1.00002
1.00001
1.00001
1.00001
1.00006
1.00006
1.00005
1.00004
1.00003
1.00002
1.00002
1.00002
1.00001
1.00002
1.00002
1.00005
1.00007
1.00005
1.00003
1.00002
1.00001
1.00001
1.00001
1.00001
1.00001
1.00001
1.00001
1.00005
1.00005
1.00004
1.00003
1.00003
1.00002
1.00001
1.00001
1.00001
1.00001
1.00002
1.00002
1.00002
1.00001
1.00001
1.00001
1.00001
1.00001
1.00001
1.00001
1
1
1
1.00004
1.00004
1.00004
1.00003
1.00002
1.00001
1.00001
1.00001
1.00001
1.00001
1.00001
1.00001
1.00001
1.00001
1.00001
1
1
1
1
1
1
1
1
1.00004
1.00004
1.00003
1.00003
1.00002
1.00001
1.00001
1.00001
1.00001
1
1
1
1
1
1
1
1
1
1
1
1
1
1
1.00003
1.00003
1.00003
1.00002
1.00002
1.00001
1.00001
1
1
1
1
1
1
1
1
1
1
1
1
1
1
1
1
1.00003
1.00002
1.00002
1.00001
1.00001
1.00001
1.00001
1
1
1
1
1
1
1
1
1
1
1
1
1
1
1
1
1.00002
1.00002
1.00001
1.00001
1.00001
1.00001
1
1
1
1
1
1
1
1
1
1
1
1
1
1
1
1
1
1.00002
1.00001
1.00001
1.00001
1.00001
1
1
1
1
1
1
1
1
1
1
1
1
1
1
1
1
1
1
1.00001
1.00001
1.00001
1
1
1
1
1
1
1
1
1
1
1
1
1
1
1
1
1
1
1
1
1.00001
1.00001
1
1
1
1
1
1
1
1
1
1
1
1
1
1
1
1
1
1
1
1
1
1.00001
1.00001
1
1
1
1
1
1
1
1
1
1
1
1
1
1
1
1
1
1
1
1
1
1.00001
1
1
1
1
1
1
1
1
1
1
1
1
1
1
1
1
1
1
1
1
1
1
1
1
1
1
1
1
1
1
1
1
1
1
1
1
1
1
1
1
1
1
1
1
1
1
1
1
1
1
1
1
1
1
1
1
1
1
1
1
1
1
1
1
1
1
1
1
1
1
1
1
1
1
1
1
1
1
1
1
1
1
1
1
1
1
1
1
1
1
1
1
1
1
1
1
1
1
1
1
1
1
1
1
1
1
1
1
1
1
1
1
1
1
1
1
1
1
1
1
1
1
1
1
1
1
1
1
1
1
1
1
1
1
1
1
1
1
1
1
1
1
1
1
1
1
1
1
1
1
1
1
1
1
1
1
1
1
1
1
1
1
1
1
1
1
1
1
1
1
1
1
1
1
1
1
1
1
1
1
1
1
1
1
1
1
1
1
1
1
1
1
1
1
1
1
1
1
1
1
1
1
1
1
1
1
1
1
1
1
1
1
1
1
1
1
1
1
1
1
1
1
1
1
1
1
1
1
1
1
1
1
1
1
1
1
1
1
1
1
1
1
1
1
1
1
1
1
1
1
1
1
1000.15
1000.16
1000.08
1000.03
996.313
997.472
999.18
999.905
917.807
796.136
595.921
462.644
462.291
446.449
465.915
476.932
474.668
500.141
503.037
502.64
500.273
500.243
500.007
500.003
500
500.001
500.008
500.009
498.643
498.406
498.212
497.905
240.41
237.104
234.588
230.358
1.00005
1.00005
1.00006
1.00006
1.00014
1.00014
1.00014
1.00015
1.00014
1.00014
1.00014
1.00014
1.00009
1.0001
1.00011
1.0001
1.00005
1.00006
1.00006
1.00007
1.00003
1.00003
1.00004
1.00004
1.00003
1.00003
1.00003
1.00003
1.00003
1.00002
1.00002
1.00002
1.00002
1.00002
1.00001
1.00001
1.00002
1.00001
1.00001
1.00001
1.00001
1.00001
1.00001
1.00001
1.00001
1
1
1
1
1
1
1
1
1
1
1
1
1
1
1
1
1
1
1
1
1
1
1
1
1
1
1
1
1
1
1
1
1
1
1
1
1
1
1
1
1
1
1
1
1
1
1
1
1
1
1
1
1
1
1
1
1
1
1
1
1
1
1
1
1
1
1
1
1
1
1
1
1
1
1
1
1
1
1
1
1
1
1
1
1
1
1
1248.22
1144.3
914.003
908.321
1017.86
1061.47
996.302
997.701
998.57
1000.49
1001.39
1001.02
995.106
993.62
999.957
1000.15
999.186
976.457
857.511
761.433
773.765
809.297
808.616
718.156
684.873
831.958
921.599
956.285
986.012
999.669
999.876
1000.12
999.67
996.56
981.264
957.768
925.296
934.34
484.569
495.49
540.263
511.93
442.12
538.516
566.75
563.5
588.502
617.193
667.229
715.127
757.33
754.86
723.838
675.84
635.728
618.228
596.572
481.929
496.062
500.533
499.326
477.966
436.203
453.635
495.093
500.286
500.05
500.009
500.199
501.466
501.813
501.384
500.866
501.33
521.91
570.133
500.911
500.098
499.859
498.432
498.395
497.191
499.761
500
500.017
500.035
500.015
500.002
500.002
500.036
500.077
500.066
500.333
501.499
501.98
500.002
499.991
499.926
499.974
500.017
500.002
500
500
500
500
500
500.001
500.001
500
499.998
500.001
500.004
500.004
500.731
500.003
500.001
500.001
500.003
500.003
500.001
500
500
500
500
500.001
500.01
500.192
501.14
505.881
518.473
521.74
514.571
504.897
497.138
496.994
497.325
497.835
498.124
497.879
492.63
478.916
459.042
435.545
410.215
379
324.183
269.271
231.934
208.331
218.333
289.155
385.903
220.699
216.479
211.531
203.774
190.215
166.716
138.107
108.507
78.8029
50.2367
24.1075
4.45515
10.8419
16.9019
19.107
20.6079
21.8537
20.5547
41.8037
1.00009
1.00013
1.00038
1.00126
1.00311
1.01751
1.0584
1.13293
1.48865
2.47943
2.87402
2.70153
1.74539
1.16446
1.01894
1.00943
1.00898
1.02139
2.42656
1.00028
1.00044
1.0008
1.01373
1.11653
1.2016
1.18974
1.17393
1.16906
1.12942
1.29924
1.51456
1.50595
1.0983
1.0037
1.00029
1.00058
1.00119
1.00012
1.00014
1.0002
1.00115
1.10884
1.48768
1.48792
1.48767
1.08213
1.00065
1.03647
1.39323
1.43067
1.0437
1.00353
1.00029
1.00072
1.00102
1.00094
1.00035
1.0001
1.00014
1.00053
1.00628
1.21788
1.42957
1.32656
1.0292
1.00044
1.0006
1.00127
1.0032
1.00063
1.00024
1.00021
1.00038
1.00043
1.00027
1.00033
1.00008
1.00011
1.00014
1.00011
1.00007
1.0001
1.00024
1.00212
1.0033
1.0004
1.00057
1.00039
1.00024
1.00016
1.00014
1.00016
1.00018
1.00017
1.00023
1.00005
1.00007
1.00008
1.00007
1.00007
1.00009
1.0001
1.00012
1.00015
1.0002
1.00024
1.00025
1.0002
1.00014
1.00008
1.00006
1.00006
1.00008
1.00007
1.00003
1.00003
1.00005
1.00006
1.0001
1.00014
1.00017
1.00015
1.00013
1.00012
1.00016
1.00021
1.0002
1.00013
1.00006
1.00003
1.00003
1.00002
1.00001
1.00002
1.00002
1.00002
1.00003
1.00005
1.0001
1.00015
1.00016
1.00012
1.00008
1.00006
1.00008
1.0001
1.00007
1.00003
1.00001
1.00001
1.00001
1.00001
1.00001
1.00001
1.00001
1.00001
1.00001
1.00002
1.00004
1.00006
1.00005
1.00003
1.00003
1.00002
1.00002
1.00002
1.00001
1.00001
1.00001
1.00001
1.00001
1.00001
1.00001
1.00001
1.00001
1.00001
1.00001
1.00001
1.00001
1.00001
1.00001
1.00001
1.00001
1.00001
1.00001
1.00001
1.00001
1.00001
1.00001
1.00001
1.00001
1
1
1
1
1.00001
1.00001
1.00001
1.00001
1.00001
1.00001
1.00001
1.00001
1
1
1
1.00001
1.00001
1.00001
1
1
1
1
1
1
1
1
1
1
1
1
1
1
1
1
1.00001
1.00001
1.00001
1
1
1
1
1
1
1
1
1
1
1
1
1
1
1
1
1.00001
1.00002
1.00001
1
1
1
1
1
1
1
1
1
1
1
1
1
1
1
1
1.00001
1.00002
1.00003
1
1
1
1
1
1
1
1
1
1
1
1
1
1
1
1
1.00001
1.00004
1.00004
1
1
1
1
1
1
1
1
1
1
1
1
1
1
1
1
1.00001
1.00004
1.00004
1
1
1
1
1
1
1
1
1
1
1
1
1
1
1
1
1.00001
1.00004
1.00004
1
1
1
1
1
1
1
1
1
1
1
1
1
1
1
1
1.00002
1.00004
1.00003
1
1
1
1
1
1
1
1
1
1
1
1
1
1
1
1
1.00002
1.00005
1.00002
1
1
1
1
1
1
1
1
1
1
1
1
1
1
1
1
1.00002
1.00005
1.00002
1
1
1
1
1
1
1
1
1
1
1
1
1
1
1
1.00001
1.00002
1.00005
1.00001
1
1
1
1
1
1
1
1
1
1
1
1
1
1
1
1.00001
1.00002
1.00004
1.00001
1
1
1
1
1
1
1
1
1
1
1
1
1
1
1
1.00001
1.00002
1.00003
1
1
1
1
1
1
1
1
1
1
1
1
1
1
1
1
1.00001
1.00001
1
1
1
1
1
1
1
1
1
1
1
1
1
1
1
1
1
1.00001
1.00001
1.00001
1
1
1
1
1
1
1
1
1
1
1
1
1
1
1
1
1
1.00001
1
1
1
1
1
1
1
1
1
1
1
1
1
1
1
1
1
1
1
1
1
1
1
1
1
1
1
1
1
1
1
1
1
1
1
1
1
1
1
1
1
1
1
1
1
1
1
1
1
1
1
1
1
1
1
1
1
1
1
1
1
1
1
1
1
1
1
1
1
1
1
1
1
1
1
1
1
1
1
1
1
1
1
1
1
1
1
1
1
1
1
1
1
1
1
1
1
1
1
1
1
1
1
1
1
1
1
1
1
1
1
1
1
1
1
1
1
1
1
1
1
1
1
1
1
1
1
1
1
1
1
1
1
1
1
)
;

boundaryField
{
    leftWall
    {
        type            calculated;
        value           nonuniform List<scalar> 
50
(
13529
13529
13529
13529
13529
9078.97
1000
1000
1000
1000
989.342
881.956
757.443
484.819
493.13
495.861
473.428
90.5707
1.00075
1.00071
1.00056
1.00055
1.00054
1.00051
1.00031
1.00021
1.00016
1.00008
1.00006
1.00005
1.00004
1.00004
1.00003
1.00003
1.00002
1.00002
1.00001
1.00001
1.00001
1.00001
1
1
1
1
1
1
1
1
1
1
)
;
    }
    rightWall
    {
        type            calculated;
        value           nonuniform List<scalar> 
50
(
10293.6
10294.2
7936.38
5408.12
956.244
492.909
583.118
786.255
857.511
934.34
596.572
570.133
501.98
500.731
504.897
385.903
41.8037
2.42656
1.00012
1.00035
1.00033
1.00023
1.00007
1.00001
1.00001
1.00001
1.00001
1.00001
1.00001
1.00001
1.00003
1.00004
1.00004
1.00004
1.00003
1.00002
1.00002
1.00001
1.00001
1
1
1
1
1
1
1
1
1
1
1
)
;
    }
    lowerWall
    {
        type            calculated;
        value           nonuniform List<scalar> 
62
(
13529
13529
13529
13529
13529
13529
13529
13529
13529
13529
13529
13529
13529
13529
13529
13529
13529
13529
13529
13529
13524.3
13521.6
13521.6
13521.6
13524.5
13528.9
13529
13529
13529
13517.7
5849.87
1000.15
1000.16
1000.08
1000.03
11588.8
7081.41
2523.38
2628.71
2108.01
1090.49
1100.64
1338.41
11588.8
11749.9
11943.1
11953.6
11952.1
11938.7
11129
8752.12
8757.67
8819.36
8735.78
8467.92
8489.09
9914.57
10330.2
10349.3
10317.8
10289.2
10293.6
)
;
    }
    atmosphere
    {
        type            calculated;
        value           nonuniform List<scalar> 
46
(
1
1
1
1
1
1
1
1
1
1
1
1
1
1
1
1
1
1
1
1
1
1
1
1
1
1
1
1
1
1
1
1
1
1
1
1
1
1
1
1
1
1
1
1
1
1
)
;
    }
    defaultFaces
    {
        type            empty;
    }
}


// ************************************************************************* //
