/*--------------------------------*- C++ -*----------------------------------*\
  =========                 |
  \\      /  F ield         | OpenFOAM: The Open Source CFD Toolbox
   \\    /   O peration     | Website:  https://openfoam.org
    \\  /    A nd           | Version:  13
     \\/     M anipulation  |
\*---------------------------------------------------------------------------*/
FoamFile
{
    format      ascii;
    class       volVectorField;
    location    "2.45";
    object      U;
}
// * * * * * * * * * * * * * * * * * * * * * * * * * * * * * * * * * * * * * //

dimensions      [0 1 -1 0 0 0 0];

internalField   nonuniform List<vector> 
2268
(
(-0.000577393 -0.000187598 0)
(0.000503511 -0.00173659 0)
(0.00964208 -0.00379595 0)
(0.0202737 -0.00441076 0)
(0.0312367 -0.00444969 0)
(0.0419282 -0.0042985 0)
(0.0522087 -0.00409021 0)
(0.0620794 -0.00385233 0)
(0.0715038 -0.00355994 0)
(0.0803219 -0.00316594 0)
(0.088223 -0.0026214 0)
(0.0947673 -0.00190185 0)
(0.0994484 -0.00101622 0)
(0.101749 -1.15258e-05 0)
(0.101206 0.00113941 0)
(0.0974684 0.00236747 0)
(0.0902202 0.00366774 0)
(0.0791666 0.00504293 0)
(0.0640897 0.00645782 0)
(0.0451016 0.00775285 0)
(0.0229349 0.00829223 0)
(0.000353468 0.00505365 0)
(-0.00549297 -0.00149531 0)
(0.00141573 0.000258687 0)
(0.00725165 -0.00432288 0)
(0.0167604 -0.00703587 0)
(0.0263953 -0.00773298 0)
(0.0357403 -0.0076496 0)
(0.0446887 -0.0073885 0)
(0.0533287 -0.00713569 0)
(0.0617498 -0.0068903 0)
(0.0699482 -0.00657316 0)
(0.0777928 -0.00608042 0)
(0.0850227 -0.00530899 0)
(0.0912626 -0.0041896 0)
(0.0960578 -0.00268968 0)
(0.0989349 -0.000839266 0)
(0.099384 0.0013398 0)
(0.0969581 0.00376884 0)
(0.0913164 0.00641733 0)
(0.0821707 0.00925929 0)
(0.069334 0.0121909 0)
(0.0529005 0.0148515 0)
(0.0334208 0.0159981 0)
(0.0129502 0.0116512 0)
(0.000705603 -0.00143638 0)
(0.00463281 -0.00276698 0)
(0.0126965 -0.0086342 0)
(0.0220438 -0.0112686 0)
(0.0306908 -0.0117698 0)
(0.0387589 -0.0114507 0)
(0.0464165 -0.0110092 0)
(0.0538591 -0.01064 0)
(0.0611985 -0.010303 0)
(0.0684318 -0.00986786 0)
(0.0754425 -0.0091818 0)
(0.0820077 -0.00809842 0)
(0.0878126 -0.00651554 0)
(0.0924666 -0.00437288 0)
(0.0955476 -0.00167636 0)
(0.096565 0.00157041 0)
(0.0950421 0.00525259 0)
(0.0906291 0.0093043 0)
(0.083053 0.0136571 0)
(0.0721597 0.0181302 0)
(0.0580323 0.0221943 0)
(0.0410085 0.0241943 0)
(0.0222195 0.0197351 0)
(0.00782088 0.00343204 0)
(0.00798067 -0.00789184 0)
(0.0171888 -0.013869 0)
(0.0263422 -0.0157839 0)
(0.0341761 -0.0158005 0)
(0.0412623 -0.0151619 0)
(0.0479456 -0.0145461 0)
(0.0544778 -0.0140972 0)
(0.0609679 -0.0137128 0)
(0.0674052 -0.0132057 0)
(0.0736828 -0.0123748 0)
(0.0796115 -0.0110278 0)
(0.0849292 -0.00902481 0)
(0.0893059 -0.00627351 0)
(0.0924002 -0.00274491 0)
(0.093767 0.00154153 0)
(0.0929164 0.00644653 0)
(0.0895029 0.0118637 0)
(0.0832712 0.0176763 0)
(0.0740925 0.0236308 0)
(0.0620089 0.0290872 0)
(0.0471056 0.0322322 0)
(0.0295843 0.0286744 0)
(0.0139542 0.0114857 0)
(0.0112842 -0.0149947 0)
(0.0203691 -0.0185606 0)
(0.0296187 -0.0194614 0)
(0.0369159 -0.0189668 0)
(0.0433491 -0.0181004 0)
(0.0493669 -0.0174205 0)
(0.0552444 -0.0169913 0)
(0.0610782 -0.0166446 0)
(0.0668533 -0.0161416 0)
(0.0724811 -0.0152386 0)
(0.077809 -0.0137031 0)
(0.0826239 -0.0113636 0)
(0.0866462 -0.00809897 0)
(0.089597 -0.00391317 0)
(0.0911063 0.00131226 0)
(0.0907135 0.00734091 0)
(0.0880795 0.0140195 0)
(0.0829727 0.0211776 0)
(0.0752842 0.0284954 0)
(0.0650111 0.0352912 0)
(0.0519765 0.039836 0)
(0.0354813 0.0381383 0)
(0.0189751 0.0223409 0)
(0.0154183 -0.0225386 0)
(0.0234079 -0.0230813 0)
(0.032368 -0.0228158 0)
(0.0392907 -0.0217494 0)
(0.0453368 -0.0205928 0)
(0.0509791 -0.0197659 0)
(0.0564371 -0.0192435 0)
(0.0617766 -0.018809 0)
(0.0669835 -0.0181992 0)
(0.071992 -0.0171597 0)
(0.0766892 -0.0154477 0)
(0.0809139 -0.0128721 0)
(0.0843873 -0.0093164 0)
(0.0869916 -0.00473123 0)
(0.0884606 0.00107412 0)
(0.0882955 0.00792581 0)
(0.0862017 0.0155952 0)
(0.0819845 0.0238485 0)
(0.0755646 0.0323088 0)
(0.0669146 0.0403071 0)
(0.055694 0.0464111 0)
(0.04054 0.0476129 0)
(0.0235591 0.0351918 0)
(0.020382 -0.0266625 0)
(0.0258689 -0.0247886 0)
(0.03533 -0.0244967 0)
(0.0418599 -0.0231335 0)
(0.0476177 -0.0218506 0)
(0.0529317 -0.0210429 0)
(0.0579669 -0.0206169 0)
(0.0627807 -0.0203121 0)
(0.067407 -0.0198271 0)
(0.0718335 -0.0188682 0)
(0.0759866 -0.0171396 0)
(0.0796931 -0.0144066 0)
(0.0826983 -0.0105285 0)
(0.0846912 -0.00546087 0)
(0.0856575 0.000905622 0)
(0.0854099 0.00842612 0)
(0.0835514 0.0168244 0)
(0.0799585 0.0258198 0)
(0.0746042 0.035005 0)
(0.0674841 0.0437528 0)
(0.0582346 0.0509917 0)
(0.0445457 0.0549942 0)
(0.0316691 0.0494229 0)
(0.0213808 -0.0453347 0)
(0.0332393 -0.0350389 0)
(0.0425958 -0.0322019 0)
(0.048913 -0.0291336 0)
(0.0540423 -0.0269973 0)
(0.0586179 -0.0255822 0)
(0.0627225 -0.0245712 0)
(0.0664225 -0.0236838 0)
(0.0698686 -0.0226169 0)
(0.0731415 -0.021084 0)
(0.0762025 -0.0188074 0)
(0.0788914 -0.015576 0)
(0.0807613 -0.0112317 0)
(0.0817777 -0.00594909 0)
(0.0821609 0.00061939 0)
(0.0816501 0.00854726 0)
(0.0800015 0.0174901 0)
(0.077196 0.0271129 0)
(0.0732849 0.0369744 0)
(0.0683628 0.0464749 0)
(0.0622549 0.0548367 0)
(0.05282 0.0614941 0)
(0.0468504 0.0651993 0)
(-0.000562777 0.000158814 0)
(-0.00237968 5.02972e-05 0)
(-0.00765991 0.00160228 0)
(-0.020633 0.00530735 0)
(-0.0417425 0.00865669 0)
(-0.0588933 0.00430461 0)
(-0.0714992 0.00549963 0)
(-0.100932 0.0132268 0)
(-0.117306 0.00217361 0)
(-0.110281 -0.00574363 0)
(-0.092844 -0.00795578 0)
(-0.0782569 -0.00170699 0)
(-0.0769086 0.00331302 0)
(-0.0691156 -0.00578144 0)
(-0.0487262 -0.00936774 0)
(-0.0278215 -0.00766636 0)
(-0.0103953 -0.00723787 0)
(0.00515341 -0.00510799 0)
(0.0119077 0.00257297 0)
(0.00142194 0.000253181 0)
(-0.00349024 0.00240112 0)
(-0.00900603 0.00565163 0)
(-0.0194233 0.00986031 0)
(-0.0300093 0.0131225 0)
(-0.0480093 0.0108092 0)
(-0.0733909 0.0117554 0)
(-0.0906732 0.0155282 0)
(-0.0959999 0.00330413 0)
(-0.0950225 -0.00657408 0)
(-0.0913803 -0.0102444 0)
(-0.0809099 -0.00702056 0)
(-0.0662621 -0.00287697 0)
(-0.0520541 -0.01106 0)
(-0.0387404 -0.0134802 0)
(-0.026531 -0.0116357 0)
(-0.0159297 -0.0100734 0)
(-0.00710311 -0.00560311 0)
(-0.00115503 0.00381536 0)
(-0.00537384 0.00296349 0)
(-0.00761622 0.00394781 0)
(-0.00918394 0.0086835 0)
(-0.0119419 0.0129996 0)
(-0.0093706 0.0173495 0)
(-0.0319422 0.0209159 0)
(-0.0619719 0.019048 0)
(-0.0744174 0.0181534 0)
(-0.0759742 0.00430163 0)
(-0.079906 -0.00562162 0)
(-0.0850743 -0.010851 0)
(-0.0790607 -0.0115737 0)
(-0.062296 -0.00965574 0)
(-0.0457037 -0.0156546 0)
(-0.0348302 -0.0172698 0)
(-0.0266633 -0.0145809 0)
(-0.0214958 -0.0119719 0)
(-0.0178405 -0.00712598 0)
(-0.0168276 -0.0015042 0)
(0.000155876 0.00470772 0)
(-0.00300207 0.00358333 0)
(-0.00267084 0.00827343 0)
(-0.000937345 0.0109288 0)
(0.00918494 0.0170749 0)
(-0.00779047 0.0349404 0)
(-0.0401034 0.0266409 0)
(-0.0516288 0.0202079 0)
(-0.0492475 0.00394741 0)
(-0.0582842 -0.00287475 0)
(-0.0729673 -0.010005 0)
(-0.0719214 -0.0159939 0)
(-0.0569549 -0.0166245 0)
(-0.041415 -0.0199094 0)
(-0.033969 -0.0199283 0)
(-0.0278234 -0.0162867 0)
(-0.0215716 -0.0120688 0)
(-0.0137647 -0.0090638 0)
(-0.00953944 -0.0120237 0)
(0.0163139 0.0049336 0)
(0.00820769 0.00469858 0)
(0.00765803 0.00819223 0)
(0.00292231 0.0104548 0)
(0.00513438 0.0151736 0)
(0.00976338 0.0474383 0)
(-0.0024756 0.0358285 0)
(-0.0138338 0.0234466 0)
(-0.0104814 0.00273441 0)
(-0.0211577 0.00412076 0)
(-0.0446752 -0.00423849 0)
(-0.0523466 -0.0174119 0)
(-0.0494558 -0.0222709 0)
(-0.0458621 -0.0240322 0)
(-0.0445516 -0.0217847 0)
(-0.0363246 -0.0206275 0)
(-0.0100987 -0.0168823 0)
(0.0229067 -0.0131186 0)
(0.050537 -0.00608858 0)
(0.0473989 -0.0013384 0)
(0.0335887 0.00893001 0)
(0.026469 0.0108297 0)
(0.0112624 0.0136105 0)
(0.0011746 0.0146045 0)
(0.00788201 0.0414259 0)
(0.0169151 0.0382251 0)
(0.0177423 0.0250609 0)
(0.0163219 0.00404601 0)
(0.00941079 0.0137821 0)
(-0.00107644 0.00226787 0)
(-0.0145761 -0.0164854 0)
(-0.0359459 -0.0218628 0)
(-0.0542859 -0.0227982 0)
(-0.0579371 -0.0250055 0)
(-0.0385593 -0.0339001 0)
(-0.00539315 -0.0383923 0)
(0.036442 -0.0450212 0)
(0.094579 0.021733 0)
(0.0783939 -0.0373055 0)
(0.0687089 0.00917292 0)
(0.0527766 0.0194861 0)
(0.0287295 0.0217177 0)
(0.0075379 0.0178859 0)
(0.00962414 0.0357585 0)
(0.0228822 0.0340899 0)
(0.0296381 0.0240672 0)
(0.0254968 0.00719816 0)
(0.0174274 0.0159608 0)
(0.0137546 0.00553258 0)
(0.010312 -0.00869002 0)
(-0.00496902 -0.00410363 0)
(-0.0372473 -0.0122614 0)
(-0.0390666 -0.0304168 0)
(-0.0263334 -0.0428143 0)
(-0.00435855 -0.0505513 0)
(0.0143128 -0.0613116 0)
(0.0486509 0.0533835 0)
(0.0968209 -0.0678481 0)
(0.0816524 0.00538454 0)
(0.0733598 0.0309257 0)
(0.0505131 0.0316458 0)
(0.0238784 0.0254209 0)
(0.0179404 0.0328864 0)
(0.0262949 0.0309501 0)
(0.0315529 0.0230405 0)
(0.0264701 0.0106561 0)
(0.0202421 0.0167178 0)
(0.0193542 0.00613997 0)
(0.0145178 -0.0054596 0)
(0.00534117 0.00274611 0)
(-0.00850732 -0.00695148 0)
(-0.0137956 -0.0312901 0)
(-0.0124543 -0.0462169 0)
(-0.00483758 -0.0568409 0)
(-0.00708948 -0.0664512 0)
(0.00677858 0.0596515 0)
(0.0151398 -0.0626709 0)
(0.031369 -0.0457911 0)
(0.0418785 -0.0381433 0)
(0.0491184 -0.0334799 0)
(0.0544005 -0.0307587 0)
(0.0586026 -0.0291621 0)
(0.0619421 -0.0281208 0)
(0.064532 -0.0274272 0)
(0.0666473 -0.0267503 0)
(0.0685203 -0.0256321 0)
(0.0702644 -0.0235286 0)
(0.0717961 -0.0198879 0)
(0.0730391 -0.0145704 0)
(0.0739297 -0.00741717 0)
(0.0745617 0.000583092 0)
(0.0749629 0.0102168 0)
(0.0753889 0.020709 0)
(0.0762569 0.0316158 0)
(0.0778596 0.0424894 0)
(0.0807919 0.0525683 0)
(0.086985 0.060948 0)
(0.0974977 0.0677644 0)
(0.133075 0.0669588 0)
(0.00816467 -0.0796128 0)
(0.0216642 -0.0586923 0)
(0.0294518 -0.0460768 0)
(0.0350397 -0.0384379 0)
(0.0389768 -0.0341723 0)
(0.0419768 -0.0314231 0)
(0.04404 -0.0291047 0)
(0.0452005 -0.0273952 0)
(0.0458522 -0.0260021 0)
(0.0463468 -0.0244611 0)
(0.0469272 -0.022176 0)
(0.0477246 -0.018656 0)
(0.0487558 -0.0136438 0)
(0.0502479 -0.00778515 0)
(0.0524464 -0.000681508 0)
(0.0554093 0.00751038 0)
(0.0595103 0.0161335 0)
(0.0653296 0.024739 0)
(0.0731084 0.0331415 0)
(0.0828391 0.0398409 0)
(0.0949071 0.0410799 0)
(0.110029 0.0338175 0)
(0.129817 0.0179489 0)
(0.00408368 -0.0894805 0)
(0.0125348 -0.0663155 0)
(0.0159233 -0.050487 0)
(0.0177665 -0.0409992 0)
(0.0188623 -0.0361908 0)
(0.0197839 -0.0329098 0)
(0.0201581 -0.0296739 0)
(0.0197614 -0.0273622 0)
(0.0190678 -0.0257781 0)
(0.0184496 -0.0243836 0)
(0.0182811 -0.0224701 0)
(0.0187699 -0.0194788 0)
(0.0200859 -0.0152431 0)
(0.0224028 -0.0102098 0)
(0.0259361 -0.00435146 0)
(0.0306708 0.00274143 0)
(0.0366196 0.00981498 0)
(0.0444079 0.0164733 0)
(0.0541892 0.0229231 0)
(0.0658115 0.0277784 0)
(0.0786311 0.0273391 0)
(0.0902883 0.0212947 0)
(0.0994846 0.00816874 0)
(0.00572408 -0.096895 0)
(0.00697189 -0.0677485 0)
(0.00341841 -0.0501458 0)
(0.000828555 -0.0405342 0)
(-0.00148329 -0.0360663 0)
(-0.00359967 -0.0325894 0)
(-0.00564685 -0.0290194 0)
(-0.00752498 -0.0264946 0)
(-0.00944675 -0.0248173 0)
(-0.0111595 -0.0237009 0)
(-0.012272 -0.0222715 0)
(-0.012448 -0.0199668 0)
(-0.0112478 -0.0167538 0)
(-0.00860364 -0.0130815 0)
(-0.0047693 -0.00828469 0)
(0.000118765 -0.00212621 0)
(0.00640917 0.0033663 0)
(0.014481 0.00772354 0)
(0.0245132 0.0123122 0)
(0.0359812 0.0158358 0)
(0.047514 0.0159037 0)
(0.0563695 0.0144371 0)
(0.0585387 0.00823172 0)
(-0.00190495 -0.100864 0)
(-0.00436527 -0.0642922 0)
(-0.0115489 -0.0459915 0)
(-0.0170565 -0.0368477 0)
(-0.0227428 -0.032531 0)
(-0.0292635 -0.0282757 0)
(-0.0357393 -0.0253855 0)
(-0.0402466 -0.0232016 0)
(-0.0436623 -0.0215974 0)
(-0.0467649 -0.0210416 0)
(-0.0488958 -0.0207878 0)
(-0.0494419 -0.0201714 0)
(-0.0482667 -0.0187944 0)
(-0.0454563 -0.0165709 0)
(-0.041453 -0.0128529 0)
(-0.0361948 -0.00815401 0)
(-0.0292505 -0.00487243 0)
(-0.020869 -0.00253616 0)
(-0.0111936 0.00102702 0)
(-0.000741417 0.00396416 0)
(0.00911793 0.00554884 0)
(0.0170903 0.00821202 0)
(0.0225782 0.00854253 0)
(-0.0237196 -0.0942764 0)
(-0.0237976 -0.0580436 0)
(-0.0308465 -0.0400374 0)
(-0.0380826 -0.0301257 0)
(-0.0476311 -0.0238998 0)
(-0.0587177 -0.0185439 0)
(-0.0691114 -0.0182008 0)
(-0.0767712 -0.0181659 0)
(-0.0822803 -0.0176168 0)
(-0.0862586 -0.0182359 0)
(-0.0883703 -0.0199139 0)
(-0.0881257 -0.0211219 0)
(-0.0858212 -0.0215621 0)
(-0.0819593 -0.0207933 0)
(-0.0765701 -0.0184915 0)
(-0.0694414 -0.0154553 0)
(-0.0607212 -0.0132097 0)
(-0.0512355 -0.0114663 0)
(-0.0412388 -0.00882114 0)
(-0.0305228 -0.00596829 0)
(-0.0199518 -0.00322044 0)
(-0.00986068 0.000157065 0)
(-1.52614e-05 0.00173546 0)
(-0.0286193 -0.0675381 0)
(-0.0258521 -0.0479323 0)
(-0.0352898 -0.0304054 0)
(-0.0476185 -0.0181005 0)
(-0.0621176 -0.00961926 0)
(-0.0764698 -0.0053122 0)
(-0.0885433 -0.00709581 0)
(-0.0981997 -0.0100667 0)
(-0.105618 -0.0120807 0)
(-0.110678 -0.0149976 0)
(-0.113136 -0.0192939 0)
(-0.11294 -0.0230971 0)
(-0.110412 -0.0256441 0)
(-0.105963 -0.0266849 0)
(-0.0997025 -0.0262252 0)
(-0.0916608 -0.0249942 0)
(-0.082347 -0.0238217 0)
(-0.0723028 -0.0226793 0)
(-0.0615186 -0.0208779 0)
(-0.0499664 -0.0185241 0)
(-0.0380741 -0.0156039 0)
(-0.0261352 -0.0123805 0)
(-0.0142694 -0.0102728 0)
(-0.00712503 -0.0504843 0)
(-0.00498239 -0.0354713 0)
(-0.0170343 -0.014224 0)
(-0.0365175 -0.000521701 0)
(-0.058799 0.00638337 0)
(-0.0796121 0.00763455 0)
(-0.0956155 0.00318055 0)
(-0.107264 -0.0019909 0)
(-0.11622 -0.00653033 0)
(-0.122937 -0.0119378 0)
(-0.126597 -0.0185465 0)
(-0.126909 -0.0244574 0)
(-0.124466 -0.0287668 0)
(-0.119843 -0.0314544 0)
(-0.113246 -0.0326821 0)
(-0.104889 -0.0329084 0)
(-0.0952515 -0.0327202 0)
(-0.0847308 -0.0323057 0)
(-0.0732996 -0.0314389 0)
(-0.0609132 -0.029802 0)
(-0.0478599 -0.027286 0)
(-0.034305 -0.0245521 0)
(-0.0205213 -0.0231525 0)
(0.0287113 -0.037501 0)
(0.0337397 -0.0275512 0)
(0.0242495 -0.00402157 0)
(-0.00204514 0.0157261 0)
(-0.0411543 0.0228628 0)
(-0.0714928 0.0221282 0)
(-0.0917045 0.0134179 0)
(-0.104548 0.00642795 0)
(-0.115032 0.000640042 0)
(-0.123539 -0.00632722 0)
(-0.128977 -0.0155167 0)
(-0.130607 -0.0236163 0)
(-0.129178 -0.0295772 0)
(-0.125275 -0.033682 0)
(-0.119084 -0.0362549 0)
(-0.110863 -0.0375701 0)
(-0.101154 -0.0381101 0)
(-0.0904359 -0.03831 0)
(-0.0787817 -0.0381893 0)
(-0.0661308 -0.0372366 0)
(-0.0526455 -0.0351335 0)
(-0.0386439 -0.0325446 0)
(-0.0246366 -0.029997 0)
(0.0605 -0.0905894 0)
(0.0597622 -0.04504 0)
(0.0586323 0.007023 0)
(0.0288221 0.0228294 0)
(-0.0378321 0.0348155 0)
(-0.0645934 0.0324078 0)
(-0.084413 0.0187803 0)
(-0.101404 0.0132792 0)
(-0.111727 0.00892267 0)
(-0.117338 0.00099967 0)
(-0.121629 -0.0114069 0)
(-0.12529 -0.0210583 0)
(-0.125934 -0.0278292 0)
(-0.123489 -0.0327878 0)
(-0.118508 -0.0361928 0)
(-0.111268 -0.0380273 0)
(-0.102088 -0.0388608 0)
(-0.091529 -0.0394226 0)
(-0.0802052 -0.0398188 0)
(-0.0684036 -0.039199 0)
(-0.0556072 -0.0371139 0)
(-0.041332 -0.0345804 0)
(-0.0278798 -0.0333007 0)
(0.066058 -0.151525 0)
(-0.00867781 -0.0633217 0)
(-0.0184319 0.0120401 0)
(-0.0302402 0.192602 0)
(-0.0606753 0.172619 0)
(-0.0819845 0.120185 0)
(-0.105676 0.0784941 0)
(-0.119179 0.0513865 0)
(-0.12351 0.0297801 0)
(-0.12234 0.0114646 0)
(-0.119702 -0.00736366 0)
(-0.117623 -0.0257111 0)
(-0.115745 -0.0424261 0)
(-0.113621 -0.0564211 0)
(-0.110884 -0.0675239 0)
(-0.10728 -0.0757759 0)
(-0.10277 -0.0813281 0)
(-0.0975537 -0.084957 0)
(-0.0918475 -0.0876714 0)
(-0.0857087 -0.0896349 0)
(-0.0789355 -0.0902637 0)
(-0.0730786 -0.0882887 0)
(-0.0695605 -0.0836532 0)
(-0.0520599 -0.162118 0)
(-0.0722312 -0.0158222 0)
(-0.0973244 0.0815741 0)
(-0.100008 0.136005 0)
(-0.0863352 0.129542 0)
(-0.0910431 0.1017 0)
(-0.100488 0.0695167 0)
(-0.107615 0.0418391 0)
(-0.108806 0.0181336 0)
(-0.104734 -0.000149213 0)
(-0.0995129 -0.0139663 0)
(-0.0959657 -0.0259977 0)
(-0.0944271 -0.0371753 0)
(-0.0940292 -0.0467946 0)
(-0.0939563 -0.0546471 0)
(-0.0938427 -0.060629 0)
(-0.0934221 -0.0648437 0)
(-0.0925207 -0.0677349 0)
(-0.0911799 -0.0697896 0)
(-0.0895679 -0.0710081 0)
(-0.087441 -0.0709194 0)
(-0.0856961 -0.068895 0)
(-0.0847529 -0.0642668 0)
(-0.0446576 -0.062667 0)
(-0.0925222 0.0183365 0)
(-0.110596 0.0613203 0)
(-0.109007 0.108223 0)
(-0.0992496 0.117061 0)
(-0.0926217 0.0986118 0)
(-0.0909011 0.0709345 0)
(-0.0910346 0.0423399 0)
(-0.0891058 0.0147963 0)
(-0.0853451 -0.00540776 0)
(-0.0810227 -0.0186085 0)
(-0.0783143 -0.0277427 0)
(-0.0779539 -0.0366187 0)
(-0.0790479 -0.0449728 0)
(-0.0809274 -0.0521404 0)
(-0.0831153 -0.0578758 0)
(-0.0853232 -0.0622223 0)
(-0.0873002 -0.0654539 0)
(-0.0889894 -0.0677896 0)
(-0.0904531 -0.0692091 0)
(-0.0914297 -0.0694718 0)
(-0.0929166 -0.0682713 0)
(-0.0957442 -0.0660898 0)
(-0.0495615 0.0114746 0)
(-0.0735157 0.0517569 0)
(-0.0927754 0.0803912 0)
(-0.0968595 0.102373 0)
(-0.087718 0.105719 0)
(-0.0780552 0.0922673 0)
(-0.0720458 0.0685466 0)
(-0.0690327 0.0409001 0)
(-0.0670777 0.0127494 0)
(-0.0654885 -0.00802334 0)
(-0.0638243 -0.0210416 0)
(-0.0632562 -0.0281304 0)
(-0.0643597 -0.0352376 0)
(-0.0667722 -0.0426544 0)
(-0.0699227 -0.0492954 0)
(-0.0735142 -0.0548328 0)
(-0.0772583 -0.0592529 0)
(-0.0809255 -0.0627372 0)
(-0.0844033 -0.0653848 0)
(-0.0877092 -0.0671407 0)
(-0.0905416 -0.0677932 0)
(-0.0939458 -0.0671724 0)
(-0.098852 -0.0660241 0)
(-0.0372375 0.0488358 0)
(-0.0534828 0.0758991 0)
(-0.0682007 0.089046 0)
(-0.0710989 0.0989437 0)
(-0.0648211 0.0977311 0)
(-0.0562598 0.0847232 0)
(-0.049571 0.0635474 0)
(-0.0457929 0.0382834 0)
(-0.0449929 0.0120643 0)
(-0.0461912 -0.00827735 0)
(-0.0477687 -0.0210487 0)
(-0.0499457 -0.0270565 0)
(-0.0524077 -0.0332242 0)
(-0.0555822 -0.0398031 0)
(-0.0594037 -0.0459009 0)
(-0.0636822 -0.0511112 0)
(-0.0681678 -0.0554357 0)
(-0.0726528 -0.0589919 0)
(-0.0770288 -0.0617967 0)
(-0.0812646 -0.0637816 0)
(-0.0850936 -0.0647907 0)
(-0.0894149 -0.0646659 0)
(-0.0952693 -0.0644266 0)
(-0.0249952 0.0813228 0)
(-0.0347962 0.09324 0)
(-0.043831 0.0969631 0)
(-0.045024 0.0973121 0)
(-0.0400329 0.0910984 0)
(-0.0331673 0.0775624 0)
(-0.0273913 0.0583429 0)
(-0.0243583 0.0362752 0)
(-0.024804 0.0134071 0)
(-0.0281237 -0.00549409 0)
(-0.0326028 -0.0176294 0)
(-0.0368545 -0.0239762 0)
(-0.0404724 -0.0299322 0)
(-0.0442202 -0.0360001 0)
(-0.0484819 -0.0415938 0)
(-0.0530868 -0.0464899 0)
(-0.0578748 -0.0506883 0)
(-0.0626741 -0.0542587 0)
(-0.067402 -0.0571718 0)
(-0.0720442 -0.0593608 0)
(-0.0762483 -0.0606962 0)
(-0.0810245 -0.0611067 0)
(-0.0873563 -0.061696 0)
(-0.0142913 0.104434 0)
(-0.0190646 0.103785 0)
(-0.0231299 0.100253 0)
(-0.0222526 0.0949516 0)
(-0.0179048 0.0856567 0)
(-0.0125878 0.0719034 0)
(-0.00838366 0.0545998 0)
(-0.00660378 0.0353678 0)
(-0.00799168 0.0161415 0)
(-0.0123261 -0.000605065 0)
(-0.0181109 -0.0121562 0)
(-0.0234263 -0.01953 0)
(-0.0279324 -0.0257937 0)
(-0.0323635 -0.0316587 0)
(-0.0369717 -0.0369393 0)
(-0.0417696 -0.0416311 0)
(-0.0466398 -0.0457624 0)
(-0.0514928 -0.0493442 0)
(-0.0562831 -0.0523478 0)
(-0.0609735 -0.0547178 0)
(-0.0653089 -0.056365 0)
(-0.0701608 -0.0572327 0)
(-0.0766341 -0.0585324 0)
(-0.00603337 0.115388 0)
(-0.00684141 0.107814 0)
(-0.00721781 0.100207 0)
(-0.00474606 0.091805 0)
(-0.000674902 0.0811293 0)
(0.00344682 0.0677822 0)
(0.00630768 0.0522532 0)
(0.00701375 0.0356156 0)
(0.00509529 0.0192432 0)
(0.000717997 0.00485691 0)
(-0.00497161 -0.00623923 0)
(-0.0105498 -0.0143227 0)
(-0.0156226 -0.0210085 0)
(-0.0204676 -0.0268773 0)
(-0.0252991 -0.0320824 0)
(-0.0301374 -0.0367267 0)
(-0.0349612 -0.0408571 0)
(-0.0397279 -0.0444789 0)
(-0.044407 -0.0475796 0)
(-0.0490035 -0.0501268 0)
(-0.0531911 -0.0520529 0)
(-0.0579921 -0.053329 0)
(-0.0644636 -0.0551979 0)
(-0.000512674 0.117144 0)
(0.00142338 0.107159 0)
(0.00360849 0.0978018 0)
(0.00711104 0.0881776 0)
(0.0110118 0.0772537 0)
(0.0144017 0.0647261 0)
(0.0164766 0.0508852 0)
(0.0166693 0.0364424 0)
(0.0147324 0.0223609 0)
(0.0108846 0.00972788 0)
(0.00586954 -0.000668084 0)
(0.000621807 -0.00899066 0)
(-0.00442118 -0.0159259 0)
(-0.00929641 -0.0219308 0)
(-0.0140785 -0.0272062 0)
(-0.0187947 -0.0319028 0)
(-0.0234439 -0.0360838 0)
(-0.028005 -0.0397784 0)
(-0.0324599 -0.0429955 0)
(-0.0367964 -0.0457236 0)
(-0.0408068 -0.0479131 0)
(-0.0453491 -0.0495362 0)
(-0.0516154 -0.0518838 0)
(0.00239624 0.114234 0)
(0.00588581 0.103845 0)
(0.00962083 0.0940382 0)
(0.0137587 0.0842218 0)
(0.0176614 0.0736867 0)
(0.020767 0.0621868 0)
(0.0225914 0.0498924 0)
(0.0227991 0.0372836 0)
(0.0212798 0.0250231 0)
(0.0182323 0.0138102 0)
(0.0141676 0.00411499 0)
(0.00966953 -0.00406908 0)
(0.00511091 -0.0110771 0)
(0.000580677 -0.0171612 0)
(-0.00389434 -0.0225293 0)
(-0.0082965 -0.0273079 0)
(-0.0126291 -0.0315671 0)
(-0.0168647 -0.0353547 0)
(-0.0209881 -0.0386989 0)
(-0.0250203 -0.0416051 0)
(-0.0286733 -0.0440303 0)
(-0.0329555 -0.0459606 0)
(-0.0389574 -0.0487029 0)
(0.00330244 0.109581 0)
(0.00742903 0.0992586 0)
(0.0119095 0.0895352 0)
(0.0163897 0.0800266 0)
(0.0203859 0.0701583 0)
(0.0235129 0.0597164 0)
(0.0254638 0.0487969 0)
(0.0260372 0.0377214 0)
(0.0251913 0.0269379 0)
(0.0230871 0.0169053 0)
(0.0200691 0.00793673 0)
(0.0165233 7.84239e-05 0)
(0.0127247 -0.00681807 0)
(0.00882967 -0.0128987 0)
(0.00489878 -0.0182908 0)
(0.000972581 -0.0231049 0)
(-0.00291317 -0.0274296 0)
(-0.00671565 -0.0313105 0)
(-0.0104256 -0.0347783 0)
(-0.0140314 -0.0378449 0)
(-0.0173679 -0.0404802 0)
(-0.0212514 -0.0426607 0)
(-0.0268594 -0.0457398 0)
(0.00305068 0.104736 0)
(0.0071914 0.0943168 0)
(0.0118266 0.0847564 0)
(0.0164002 0.0756776 0)
(0.0204847 0.0665196 0)
(0.0237674 0.0570601 0)
(0.0260259 0.047331 0)
(0.027124 0.0375385 0)
(0.0270424 0.0279817 0)
(0.0258979 0.0189669 0)
(0.0239221 0.0107119 0)
(0.0213789 0.00328548 0)
(0.0184735 -0.00335856 0)
(0.015355 -0.00931439 0)
(0.0121119 -0.014658 0)
(0.00880405 -0.0194672 0)
(0.00547962 -0.0238091 0)
(0.00218659 -0.0277346 0)
(-0.00104096 -0.0312943 0)
(-0.00421922 -0.0344992 0)
(-0.00709771 -0.037306 0)
(-0.0106388 -0.0396972 0)
(-0.0158912 -0.0430454 0)
(0.00234277 0.100522 0)
(0.00613985 0.0896001 0)
(0.0105603 0.0800438 0)
(0.0150289 0.0713071 0)
(0.0191299 0.0627614 0)
(0.0225718 0.0541407 0)
(0.0251645 0.045412 0)
(0.0267954 0.0366897 0)
(0.0274431 0.0281652 0)
(0.0271827 0.0200419 0)
(0.0261667 0.012475 0)
(0.0245772 0.00553461 0)
(0.0225724 -0.000779658 0)
(0.0202696 -0.00650952 0)
(0.0177708 -0.0117207 0)
(0.0151378 -0.0164561 0)
(0.0124337 -0.0207718 0)
(0.00971395 -0.0247168 0)
(0.00700988 -0.0283276 0)
(0.00433575 -0.0316158 0)
(0.00181758 -0.0345433 0)
(-0.00128916 -0.0370817 0)
(-0.00608516 -0.0406252 0)
(0.00160288 0.0972241 0)
(0.00492334 0.0853917 0)
(0.00895317 0.0756078 0)
(0.0131895 0.0670417 0)
(0.0172186 0.0589487 0)
(0.0207545 0.0509955 0)
(0.0236162 0.0430817 0)
(0.0256955 0.0352434 0)
(0.0269589 0.0275891 0)
(0.0274459 0.0202479 0)
(0.0272533 0.0133273 0)
(0.0265055 0.00688911 0)
(0.0253228 0.000951223 0)
(0.0237994 -0.00449429 0)
(0.0220269 -0.00950512 0)
(0.0200669 -0.0141074 0)
(0.0179852 -0.0183428 0)
(0.0158428 -0.0222539 0)
(0.0136724 -0.025874 0)
(0.0114563 -0.0292109 0)
(0.00942912 -0.0322211 0)
(0.00669088 -0.0348435 0)
(0.00228037 -0.0384816 0)
(0.00103812 0.0947523 0)
(0.00390387 0.0817443 0)
(0.00751657 0.071536 0)
(0.0114665 0.0629696 0)
(0.0153536 0.0551659 0)
(0.0188994 0.0477136 0)
(0.0219274 0.040445 0)
(0.0243288 0.0333279 0)
(0.0260574 0.0264039 0)
(0.0271255 0.0197439 0)
(0.0275908 0.0134166 0)
(0.0275366 0.00746954 0)
(0.0270522 0.0019256 0)
(0.026215 -0.00320961 0)
(0.0250962 -0.00797148 0)
(0.0237581 -0.0123966 0)
(0.0222607 -0.0165082 0)
(0.0206621 -0.0203404 0)
(0.0189918 -0.0239204 0)
(0.0172657 -0.0272467 0)
(0.0155965 -0.0302721 0)
(0.0133172 -0.0329328 0)
(0.0094013 -0.0366453 0)
(0.000718813 0.0928547 0)
(0.00324974 0.0785727 0)
(0.00650721 0.0678225 0)
(0.0101784 0.0591298 0)
(0.0138864 0.0514826 0)
(0.0173692 0.0443914 0)
(0.0204593 0.037625 0)
(0.0230499 0.0310917 0)
(0.0250872 0.024777 0)
(0.0265651 0.0187049 0)
(0.0275152 0.0129109 0)
(0.0279923 0.00742593 0)
(0.0280612 0.00227044 0)
(0.0277842 -0.00254522 0)
(0.027215 -0.00703798 0)
(0.0264139 -0.0112582 0)
(0.0254291 -0.015214 0)
(0.0243158 -0.0189325 0)
(0.0231026 -0.0224328 0)
(0.0217684 -0.0257067 0)
(0.0205247 -0.0287015 0)
(0.0185778 -0.031346 0)
(0.0150341 -0.0350892 0)
(0.000647187 0.0912333 0)
(0.00299676 0.0757203 0)
(0.00601617 0.0643995 0)
(0.00945826 0.055517 0)
(0.0129821 0.047941 0)
(0.0163517 0.0411099 0)
(0.0194158 0.0347363 0)
(0.022076 0.0286766 0)
(0.0242779 0.0228701 0)
(0.0260061 0.017302 0)
(0.0272763 0.0119793 0)
(0.0281246 0.00691665 0)
(0.028598 0.00212833 0)
(0.0287449 -0.00237396 0)
(0.0286072 -0.00659798 0)
(0.0282391 -0.0106012 0)
(0.0276785 -0.0143827 0)
(0.0269715 -0.0179632 0)
(0.0261392 -0.0213544 0)
(0.0251894 -0.0245443 0)
(0.0242102 -0.0274711 0)
(0.0226335 -0.0300611 0)
(0.0195048 -0.0337744 0)
(0.000792799 0.0896024 0)
(0.00312261 0.0730067 0)
(0.00603357 0.0611664 0)
(0.00931896 0.0520941 0)
(0.0126776 0.0445557 0)
(0.0159065 0.0379272 0)
(0.0188786 0.0318724 0)
(0.0215107 0.026205 0)
(0.023755 0.0208264 0)
(0.0255949 0.0156899 0)
(0.0270387 0.0107791 0)
(0.0281119 0.00609362 0)
(0.0288496 0.0016413 0)
(0.0292887 -0.00256648 0)
(0.0294635 -0.0065354 0)
(0.0294204 -0.0103232 0)
(0.0291867 -0.0139238 0)
(0.0288016 -0.0173524 0)
(0.0282798 -0.0206144 0)
(0.0275921 -0.0236925 0)
(0.0269226 -0.0265173 0)
(0.0255698 -0.0290144 0)
(0.0227541 -0.0326482 0)
(0.00111684 0.0877142 0)
(0.00356471 0.0702573 0)
(0.00649933 0.058014 0)
(0.00970611 0.0488081 0)
(0.0129307 0.0413219 0)
(0.0160085 0.0348794 0)
(0.0188429 0.0291041 0)
(0.0213718 0.0237755 0)
(0.0235604 0.0187648 0)
(0.0253977 0.0140004 0)
(0.0268917 0.00944719 0)
(0.0280635 0.00509291 0)
(0.0289417 0.000939771 0)
(0.0295548 -0.00300075 0)
(0.0299322 -0.0067376 0)
(0.0301118 -0.0103219 0)
(0.0301131 -0.0137455 0)
(0.0299641 -0.017017 0)
(0.0296694 -0.0201377 0)
(0.0292303 -0.0230812 0)
(0.0287023 -0.0257784 0)
(0.0276058 -0.0281496 0)
(0.0251321 -0.0316569 0)
(0.00157849 0.0853689 0)
(0.00426177 0.0673219 0)
(0.00733023 0.0548405 0)
(0.0105305 0.0456029 0)
(0.0136556 0.0382243 0)
(0.0165819 0.0319867 0)
(0.0192481 0.0264821 0)
(0.021618 0.0214635 0)
(0.023675 0.0167795 0)
(0.0254193 0.0123404 0)
(0.0268638 0.00809738 0)
(0.0280306 0.0040297 0)
(0.0289458 0.000136383 0)
(0.0296328 -0.00356992 0)
(0.0301184 -0.00710348 0)
(0.0304313 -0.0105044 0)
(0.0305839 -0.013762 0)
(0.0305953 -0.0168799 0)
(0.0304659 -0.0198536 0)
(0.0301562 -0.0226525 0)
(0.0298159 -0.0252061 0)
(0.0288435 -0.0274238 0)
(0.0265665 -0.0307692 0)
(0.00214402 0.0824137 0)
(0.00514868 0.0640795 0)
(0.0084442 0.0515607 0)
(0.011697 0.0424281 0)
(0.0147516 0.0352452 0)
(0.0175284 0.0292606 0)
(0.0200042 0.0240427 0)
(0.0221733 0.0193259 0)
(0.024041 0.0149436 0)
(0.0256223 0.0107941 0)
(0.0269397 0.0068203 0)
(0.0280197 0.00299709 0)
(0.0288895 -0.000676878 0)
(0.0295705 -0.00418561 0)
(0.0300874 -0.00754852 0)
(0.0304604 -0.0107907 0)
(0.0306953 -0.0138988 0)
(0.0308001 -0.0168717 0)
(0.0307652 -0.0196994 0)
(0.030579 -0.022351 0)
(0.0302704 -0.0247473 0)
(0.0294554 -0.0268038 0)
(0.0274175 -0.0299426 0)
(0.00278661 0.078732 0)
(0.00618489 0.0604368 0)
(0.0097731 0.0481086 0)
(0.0131211 0.0392457 0)
(0.0161239 0.0323718 0)
(0.0187482 0.0267105 0)
(0.0210137 0.0218142 0)
(0.0229478 0.0174064 0)
(0.0245807 0.0133127 0)
(0.0259453 0.00942599 0)
(0.0270761 0.0056859 0)
(0.0280069 0.00206713 0)
(0.0287685 -0.00142843 0)
(0.0293827 -0.00477905 0)
(0.0298728 -0.00800599 0)
(0.0302496 -0.0111166 0)
(0.0305109 -0.014094 0)
(0.0306562 -0.0169317 0)
(0.030669 -0.019617 0)
(0.0305034 -0.0221163 0)
(0.0302758 -0.0243506 0)
(0.029494 -0.0262233 0)
(0.0276023 -0.0291366 0)
(0.00349484 0.0742329 0)
(0.00734526 0.0563232 0)
(0.0112785 0.0444385 0)
(0.0147462 0.0360336 0)
(0.0176988 0.0296028 0)
(0.020156 0.0243513 0)
(0.0221856 0.0198239 0)
(0.0238517 0.015742 0)
(0.0252114 0.0119314 0)
(0.0263167 0.00828585 0)
(0.0272153 0.00474715 0)
(0.0279502 0.00129387 0)
(0.0285575 -0.00206496 0)
(0.0290617 -0.00529986 0)
(0.0294838 -0.00842678 0)
(0.0298244 -0.0114339 0)
(0.0300724 -0.0142989 0)
(0.0302146 -0.0170107 0)
(0.0302249 -0.0195557 0)
(0.0300865 -0.0218976 0)
(0.0298058 -0.0239595 0)
(0.0290927 -0.02565 0)
(0.0273869 -0.0283042 0)
(0.00426941 0.0688341 0)
(0.0086398 0.0516793 0)
(0.0129554 0.0405214 0)
(0.0165485 0.0327901 0)
(0.0194302 0.0269549 0)
(0.0216867 0.0222102 0)
(0.0234433 0.0181045 0)
(0.0248045 0.0143685 0)
(0.0258551 0.0108373 0)
(0.0266654 0.00741307 0)
(0.0272961 0.00404426 0)
(0.0277997 0.00071693 0)
(0.0282196 -0.00254926 0)
(0.028585 -0.00571382 0)
(0.0289129 -0.00877833 0)
(0.0291919 -0.0117093 0)
(0.0293975 -0.014478 0)
(0.0295048 -0.0170707 0)
(0.0294845 -0.019475 0)
(0.0292881 -0.0216582 0)
(0.0290053 -0.0235508 0)
(0.0282631 -0.0250478 0)
(0.0266187 -0.0274417 0)
(0.00513705 0.0624408 0)
(0.0101044 0.0464409 0)
(0.0148401 0.0363408 0)
(0.0185411 0.0295377 0)
(0.0212992 0.0244703 0)
(0.0232944 0.0203339 0)
(0.0247239 0.0166994 0)
(0.0257367 0.0133241 0)
(0.0264427 0.0100652 0)
(0.0269272 0.00684019 0)
(0.0272608 0.0036085 0)
(0.0275054 0.000365574 0)
(0.0277136 -0.0028565 0)
(0.0279212 -0.00600014 0)
(0.0281406 -0.00904178 0)
(0.0283438 -0.0119222 0)
(0.0284878 -0.0146058 0)
(0.0285322 -0.0170808 0)
(0.0284397 -0.0193422 0)
(0.0281931 -0.021367 0)
(0.027794 -0.0230863 0)
(0.0270513 -0.0244122 0)
(0.0255133 -0.0265207 0)
(0.00615422 0.0549209 0)
(0.0118143 0.0405233 0)
(0.0170034 0.0318923 0)
(0.0207618 0.0263333 0)
(0.0232993 0.0222272 0)
(0.0249384 0.0187944 0)
(0.0259692 0.0156652 0)
(0.0265851 0.0126509 0)
(0.0269139 0.00964719 0)
(0.0270475 0.00659478 0)
(0.0270609 0.00346577 0)
(0.0270227 0.000263529 0)
(0.0269975 -0.00296758 0)
(0.0270337 -0.00614611 0)
(0.0271388 -0.00920771 0)
(0.0272596 -0.0120585 0)
(0.0273238 -0.0146592 0)
(0.0272766 -0.0170093 0)
(0.0270814 -0.0191199 0)
(0.0267059 -0.0209834 0)
(0.0262319 -0.0225395 0)
(0.0254067 -0.0236878 0)
(0.0238997 -0.025531 0)
(0.00743312 0.0460835 0)
(0.0138602 0.0338142 0)
(0.0195322 0.027193 0)