/*--------------------------------*- C++ -*----------------------------------*\
  =========                 |
  \\      /  F ield         | OpenFOAM: The Open Source CFD Toolbox
   \\    /   O peration     | Website:  https://openfoam.org
    \\  /    A nd           | Version:  13
     \\/     M anipulation  |
\*---------------------------------------------------------------------------*/
FoamFile
{
    format      ascii;
    class       volScalarField;
    location    "1.75";
    object      alpha.water;
}
// * * * * * * * * * * * * * * * * * * * * * * * * * * * * * * * * * * * * * //

dimensions      [];

internalField   nonuniform List<scalar> 
2268
(
3.79272e-11
7.35561e-11
1.04827e-10
1.05399e-10
1.04835e-10
1.08487e-10
1.14301e-10
1.20758e-10
1.26841e-10
1.32465e-10
1.36643e-10
1.40538e-10
1.46056e-10
1.57272e-10
1.81093e-10
2.29337e-10
3.17979e-10
4.36831e-10
7.21062e-10
1.56587e-09
2.43033e-09
2.76113e-09
2.76517e-09
9.7106e-11
3.66518e-10
3.36618e-10
2.99537e-10
2.79434e-10
2.86017e-10
3.12486e-10
3.49605e-10
3.91176e-10
4.32698e-10
4.648e-10
4.8161e-10
4.77826e-10
4.2992e-10
4.14059e-10
4.36488e-10
5.07302e-10
6.66102e-10
9.77162e-10
1.4967e-09
2.62338e-09
2.84183e-09
2.65106e-09
3.64227e-10
8.37665e-10
4.9516e-10
3.69087e-10
3.22473e-10
3.25757e-10
3.67054e-10
4.39176e-10
5.38535e-10
6.73198e-10
8.18623e-10
9.50394e-10
1.03723e-09
1.0698e-09
9.88403e-10
7.99251e-10
7.58636e-10
8.38735e-10
1.05007e-09
1.60923e-09
2.22546e-09
2.50178e-09
1.36757e-09
3.19972e-10
3.34117e-10
3.2744e-10
2.96346e-10
2.91041e-10
2.91447e-10
3.05552e-10
3.24393e-10
3.69624e-10
4.58671e-10
6.3572e-10
9.0773e-10
1.19759e-09
1.41148e-09
1.45012e-09
1.29233e-09
9.13301e-10
8.66059e-10
9.96362e-10
1.27943e-09
1.57421e-09
1.28705e-09
1.896e-10
0.0154485
0.0278983
0.0246889
0.00628842
2.19712e-07
6.86717e-08
4.76172e-09
2.61407e-10
2.67054e-10
2.84227e-10
2.71497e-10
2.9722e-10
2.83773e-10
4.20792e-10
4.19257e-10
4.3403e-10
4.26363e-10
4.00381e-10
3.9186e-10
3.5944e-10
2.72295e-10
7.37561e-11
-3.92099e-11
0.722774
0.716516
0.690982
0.638545
0.541803
0.417992
0.2894
0.172655
0.076912
0.00983541
1.9107e-07
4.88876e-08
1.25098e-08
6.0469e-08
7.7758e-10
4.43603e-13
2.84233e-19
3.0066e-14
-2.029e-20
5.64597e-19
1.47423e-19
6.93604e-19
5.84313e-19
1
1
1
1
0.999753
0.991075
0.961569
0.901742
0.809901
0.691138
0.531831
0.377515
0.24357
0.133776
0.0797358
0.0736909
0.0660666
0.0508202
0.0496479
0.0643134
0.0934273
0.160655
0.239698
1
1
1
1
1
1
1
1
1
1
0.999382
0.985972
0.954544
0.92036
0.8812
0.803205
0.722931
0.692854
0.68822
0.700922
0.75846
0.854948
0.923541
0.0159937
0.0115049
0.0529566
0.0596253
0.0422003
0.0257313
0.00393405
0.00162918
0.00165887
0.000907064
0.0237039
0.122237
0.123214
0.123214
0.0726206
0.0190144
0.0188788
0.0188788
0.0188788
0.00302487
0.00317694
0.0358932
0.14327
0.141159
0.0997105
0.0356703
0.0042298
0.00109184
0.000926361
0.0161462
0.0391705
0.0672752
0.0887714
0.0776166
0.0475269
0.0234175
0.0188788
0.0188788
0.0799946
0.0605549
0.0245949
0.158369
0.441877
0.4122
0.24346
0.134987
0.0190691
0.00102723
0.00109766
0.00143738
0.00301692
0.00311376
0.0108535
0.0481539
0.0858101
0.098953
0.0267721
0.521477
0.463514
0.155329
0.0642054
0.411234
0.818663
0.820396
0.665567
0.163352
0.00758892
0.0011199
0.00112306
0.00112896
0.0885467
0.299026
0.378973
0.449148
0.417249
0.233657
0.788817
0.855895
0.649272
0.138004
0.248138
0.820951
0.983294
0.994434
0.599323
0.136774
0.00111909
0.00112369
0.0127791
0.415423
0.737511
0.808128
0.809186
0.73716
0.406093
0.696141
0.796789
0.878857
0.466879
0.159812
0.405208
0.929391
0.993967
0.915742
0.371663
0.128718
0.11755
0.183626
0.637578
0.927564
0.932962
0.929354
0.866132
0.523869
0.692062
0.707303
0.855797
0.731919
0.173576
0.159738
0.631018
0.985853
0.999454
0.849571
0.598472
0.529646
0.649692
0.877715
0.999033
0.91683
0.883505
0.832065
0.517262
0.882574
0.750983
0.841732
0.88107
0.36225
0.018039
0.35444
0.942922
0.999905
0.999905
0.983197
0.96623
0.973486
0.998589
0.999776
0.999832
0.711594
0.680373
0.303988
1
1
1
1
1
1
1
1
1
1
1
1
1
1
1
1
1
0.999996
0.999928
0.999612
0.998905
0.997576
0.995063
1
1
1
1
1
1
1
1
1
1
1
1
1
1
1
1
1
0.999999
0.999999
0.999999
0.999143
0.994138
0.981561
1
1
0.999856
1
1
1
1
1
1
1
1
1
1
1
1
1
0.99952
0.99462
0.969501
0.929708
0.858423
0.728179
0.53645
0.844418
0.909496
0.932309
0.955209
0.979966
0.995296
0.98854
0.979731
0.978676
0.97989
0.976088
0.963725
0.946967
0.931703
0.911629
0.870548
0.804087
0.701056
0.540879
0.354943
0.161494
0.0284734
5.20089e-14
0.408032
0.187997
0.187512
0.225736
0.304383
0.431836
0.504743
0.505014
0.480029
0.460771
0.434256
0.393843
0.337288
0.265285
0.190666
0.124568
0.0657386
0.0107057
2.53819e-18
1.99144e-24
5.55805e-26
-1.25783e-21
9.95156e-09
0.0624809
0.00122537
0.00378617
0.00391772
2.68836e-10
0.000913063
0.00613014
0.00546196
0.00274938
0.00161387
0.00057323
2.05672e-07
4.17064e-23
-1.61664e-26
6.5172e-28
-4.45938e-21
1.9067e-26
-1.47753e-16
1.28231e-08
1.51082e-08
4.61875e-09
1.13659e-26
6.01044e-09
0.0289258
0.00143815
3.37254e-11
3.31278e-11
3.28038e-11
3.27715e-11
3.3846e-11
5.11985e-10
1.77561e-20
1.10109e-20
1.66045e-20
1.10255e-20
2.00778e-09
3.60763e-09
9.26188e-10
-3.10401e-27
6.38028e-09
7.12701e-08
8.44389e-08
8.29528e-08
1.88381e-08
5.84022e-11
5.66486e-11
0.00160995
0.000537578
4.85083e-07
3.38155e-11
3.27674e-11
1.08899e-07
4.1143e-07
4.54926e-07
4.54411e-07
3.31676e-07
1.23106e-07
2.66799e-07
2.88641e-07
1.3064e-07
2.30581e-08
5.38434e-09
1.01327e-08
5.71433e-08
6.90705e-08
4.14805e-08
1.87576e-08
5.53959e-09
1.20947e-09
-4.70569e-22
8.37483e-06
1.75453e-05
1.57643e-05
6.4168e-07
1.20676e-07
1.75882e-07
2.03727e-07
1.63931e-07
1.73941e-07
3.18943e-07
6.73929e-07
6.19664e-07
2.60488e-07
9.52112e-08
4.74187e-08
6.05136e-08
2.64157e-08
9.72547e-09
6.58461e-09
5.63044e-09
3.66208e-09
1.76789e-09
-4.5849e-08
2.73377e-10
8.27352e-06
1.54915e-05
7.46193e-06
7.25348e-07
3.54974e-08
4.44597e-10
1.10756e-10
2.90551e-09
3.66232e-07
1.3978e-06
1.50769e-06
4.15284e-07
1.12981e-07
1.98426e-07
3.91411e-07
3.02249e-07
1.66011e-07
4.66621e-08
1.79648e-08
8.62794e-09
3.2337e-09
-6.1785e-08
5.0676e-08
5.15269e-08
1.15102e-05
7.06093e-06
6.65585e-07
2.17279e-08
1.10909e-10
1.10608e-10
1.10584e-10
1.89443e-06
3.06034e-06
3.07109e-06
1.6119e-06
9.37799e-07
1.60749e-06
1.84001e-06
9.47702e-07
3.42916e-07
9.33366e-08
3.3629e-08
1.29626e-08
5.12037e-09
-3.69628e-08
-1.31017e-10
6.77987e-07
3.18253e-06
2.10435e-06
1.40137e-07
2.09937e-09
7.52326e-10
1.13372e-10
1.10556e-10
2.06666e-06
2.72972e-06
3.06848e-06
3.07178e-06
2.39765e-06
2.99274e-06
2.94574e-06
9.8259e-07
1.90113e-07
4.4689e-08
3.86831e-08
3.20576e-08
1.30307e-08
-7.3621e-10
4.36237e-09
4.62921e-09
2.93903e-08
2.31928e-07
1.76914e-08
1.2703e-09
8.24992e-10
1.31233e-10
1.10894e-10
2.86923e-07
1.29633e-06
3.01587e-06
3.06457e-06
3.05593e-06
3.02745e-06
1.89423e-06
3.82519e-07
6.52441e-08
3.15826e-08
3.69083e-08
3.46128e-08
1.37061e-08
3.40926e-08
2.59645e-08
1.22793e-08
1.26549e-08
1.92165e-08
5.19161e-09
9.71741e-10
5.47005e-10
2.10495e-10
8.72712e-10
1.54916e-11
9.07232e-12
4.70023e-07
2.52213e-06
2.48651e-06
8.7006e-07
1.85266e-08
7.57825e-08
3.55648e-08
2.70176e-08
2.87309e-08
2.02111e-08
1.03446e-08
3.41674e-08
1.49291e-08
1.38703e-08
1.29074e-08
1.00137e-08
3.28138e-09
1.42251e-09
4.82544e-10
3.02372e-10
1.21045e-10
1.64959e-10
2.58557e-10
1.38974e-10
-7.57169e-10
8.2848e-15
-6.74191e-12
4.31357e-09
2.25346e-08
2.19424e-08
1.87834e-08
1.77115e-08
1.28751e-08
8.30422e-09
1.91889e-08
9.03672e-09
7.50167e-09
7.33202e-09
4.91522e-09
3.27507e-09
1.8574e-09
9.23164e-10
4.67893e-10
3.51728e-10
8.0367e-10
2.85448e-09
3.61552e-09
2.98699e-09
2.96612e-10
2.2425e-09
1.15766e-08
1.52053e-08
1.22697e-08
1.00941e-08
1.0216e-08
8.0776e-09
7.00591e-09
1.99733e-08
8.33897e-09
3.65963e-09
4.06424e-09
3.36974e-09
2.81878e-09
1.98401e-09
1.30734e-09
7.55295e-10
6.14258e-10
1.49448e-09
6.38647e-09
8.77645e-09
5.13575e-09
1.16481e-09
8.60245e-09
1.34443e-08
1.07878e-08
5.00179e-09
3.94915e-09
5.10831e-09
5.57204e-09
4.99813e-09
2.02962e-08
8.97374e-09
2.66268e-09
2.92671e-09
2.9039e-09
2.48091e-09
2.01897e-09
1.4968e-09
9.12002e-10
7.07949e-10
1.53112e-09
4.81459e-09
7.2241e-09
4.21578e-09
2.02475e-09
7.08037e-09
8.94206e-09
6.12917e-09
2.75986e-09
1.79684e-09
2.73977e-09
3.4236e-09
3.41196e-09
2.03281e-08
8.99819e-09
2.65806e-09
2.69239e-09
2.6628e-09
2.34506e-09
1.97561e-09
1.55292e-09
1.08354e-09
6.41253e-10
4.95931e-10
3.82481e-10
3.04629e-10
5.70552e-10
1.93282e-09
3.44562e-09
3.98085e-09
2.92507e-09
1.48169e-09
9.0337e-10
1.29475e-09
1.95767e-09
2.19091e-09
1.93129e-08
9.41095e-09
2.85902e-09
2.39389e-09
2.35046e-09
2.06313e-09
1.8435e-09
1.52236e-09
1.10208e-09
6.66336e-10
3.5503e-10
1.96737e-10
1.64837e-10
2.68531e-10
5.8218e-10
8.95614e-10
1.06346e-09
8.8708e-10
5.82219e-10
4.09808e-10
5.37298e-10
1.03933e-09
1.3352e-09
1.68707e-08
9.79519e-09
3.81977e-09
2.29487e-09
2.08057e-09
1.80776e-09
1.57722e-09
1.3513e-09
1.05815e-09
7.18557e-10
4.29658e-10
2.35518e-10
1.40728e-10
1.0637e-10
1.14012e-10
1.63278e-10
2.39081e-10
2.39062e-10
1.94796e-10
1.58248e-10
1.86996e-10
3.92418e-10
6.34171e-10
1.44757e-08
9.28495e-09
4.38632e-09
2.32159e-09
1.82031e-09
1.46582e-09
1.23262e-09
1.05632e-09
8.90489e-10
6.80662e-10
4.38054e-10
2.39393e-10
1.33812e-10
8.47991e-11
6.74023e-11
6.98846e-11
8.0912e-11
8.40182e-11
7.75479e-11
6.61649e-11
6.47138e-11
1.18939e-10
2.32954e-10
1.23479e-08
8.00478e-09
4.3297e-09
2.23739e-09
1.60789e-09
1.16376e-09
9.2002e-10
7.58039e-10
6.4811e-10
5.40902e-10
4.03639e-10
2.29308e-10
1.25698e-10
6.9359e-11
4.3348e-11
3.33254e-11
3.16987e-11
3.27085e-11
3.27961e-11
3.30182e-11
3.2775e-11
3.39598e-11
5.19556e-11
1.01305e-08
6.57514e-09
3.90328e-09
1.95455e-09
1.31346e-09
8.92947e-10
6.50382e-10
5.04202e-10
4.14763e-10
3.53675e-10
2.92256e-10
2.09213e-10
1.09697e-10
6.044e-11
3.34377e-11
2.03571e-11
1.59704e-11
1.54847e-11
1.6455e-11
1.6994e-11
1.70999e-11
1.76685e-11
1.88357e-11
8.1716e-09
5.20397e-09
3.1527e-09
1.59162e-09
9.78088e-10
6.11327e-10
4.2947e-10
3.20852e-10
2.54075e-10
2.1155e-10
1.78963e-10
1.4377e-10
9.24951e-11
5.09726e-11
2.61472e-11
1.40843e-11
8.90438e-12
7.74492e-12
7.82305e-12
8.5564e-12
8.74503e-12
8.71267e-12
8.85806e-12
6.51262e-09
3.87898e-09
2.31344e-09
1.18347e-09
6.75881e-10
3.9487e-10
2.38766e-10
1.82244e-10
1.38472e-10
1.12949e-10
9.33513e-11
7.77649e-11
6.15741e-11
3.66778e-11
1.90009e-11
9.59179e-12
5.03988e-12
3.86616e-12
3.67735e-12
3.83996e-12
3.89625e-12
4.06996e-12
4.01735e-12
4.29591e-09
2.54534e-09
1.49469e-09
7.8398e-10
4.20416e-10
2.36129e-10
1.20592e-10
8.88063e-11
6.76008e-11
5.30518e-11
4.41474e-11
3.62571e-11
2.91703e-11
2.14029e-11
1.18725e-11
6.00028e-12
2.76119e-12
1.8718e-12
1.65343e-12
1.66647e-12
1.74432e-12
1.73581e-12
1.72759e-12
2.34718e-09
1.44587e-09
8.31138e-10
4.34392e-10
2.24054e-10
1.18525e-10
5.81191e-11
3.44179e-11
2.67418e-11
2.14105e-11
1.77418e-11
1.4694e-11
1.20127e-11
9.33566e-12
6.11694e-12
3.04076e-12
1.33206e-12
8.35407e-13
6.80828e-13
6.71369e-13
6.62729e-13
6.69584e-13
6.62429e-13
1.11807e-09
6.73077e-10
3.76766e-10
1.9296e-10
9.57422e-11
4.82604e-11
2.30972e-11
1.17644e-11
8.99389e-12
7.26364e-12
6.00901e-12
4.99633e-12
4.0817e-12
3.34482e-12
2.38022e-12
1.34372e-12
5.56832e-13
3.09872e-13
2.52345e-13
2.46505e-13
2.42284e-13
2.34821e-13
2.33522e-13
4.17952e-10
2.48171e-10
1.34367e-10
6.69116e-11
3.17571e-11
1.51715e-11
7.12941e-12
3.38217e-12
2.4688e-12
1.98586e-12
1.67249e-12
1.41648e-12
1.1794e-12
9.50259e-13
7.27968e-13
4.25761e-13
2.01236e-13
9.70118e-14
8.21433e-14
8.1994e-14
7.88996e-14
7.27886e-14
7.07271e-14
9.06718e-11
6.27105e-11
3.502e-11
1.70667e-11
7.72528e-12
3.53909e-12
1.68131e-12
7.88279e-13
5.57557e-13
4.4963e-13
3.79714e-13
3.23792e-13
2.76374e-13
2.31174e-13
1.73806e-13
1.06978e-13
5.57803e-14
2.77186e-14
2.3416e-14
2.37645e-14
2.41829e-14
2.02524e-14
1.77777e-14
1.34746e-11
1.11988e-11
6.12566e-12
2.94828e-12
1.33364e-12
6.10843e-13
3.00487e-13
1.55567e-13
9.83711e-14
7.94765e-14
6.82385e-14
5.85145e-14
5.19939e-14
4.44867e-14
3.20748e-14
2.02689e-14
1.07612e-14
6.41626e-15
5.80255e-15
6.0042e-15
5.86813e-15
4.36118e-15
3.97813e-15
1.11454e-12
1.26993e-12
7.18244e-13
3.55462e-13
1.66852e-13
8.11803e-14
4.2773e-14
2.32996e-14
1.4223e-14
1.05239e-14
9.19232e-15
8.58573e-15
7.91764e-15
6.7404e-15
4.987e-15
3.08167e-15
1.81784e-15
1.30539e-15
1.27599e-15
1.29358e-15
1.19634e-15
9.52899e-16
6.96344e-16
9.75892e-14
1.00908e-13
5.44396e-14
2.93806e-14
1.53696e-14
8.25702e-15
4.666e-15
2.69746e-15
1.64862e-15
1.27098e-15
1.18247e-15
1.1191e-15
1.01985e-15
8.49705e-16
6.15404e-16
3.98284e-16
2.61176e-16
2.3394e-16
2.42296e-16
2.41388e-16
2.12803e-16
1.53124e-16
1.04216e-16
7.04446e-15
5.80533e-15
3.82328e-15
2.31622e-15
1.41957e-15
8.21539e-16
4.7437e-16
2.83476e-16
1.73854e-16
1.29495e-16
1.23946e-16
1.20758e-16
1.1114e-16
9.23141e-17
6.74495e-17
4.68391e-17
4.10868e-17
4.18067e-17
4.18209e-17
3.87219e-17
3.10142e-17
2.13286e-17
1.31071e-17
4.51856e-16
4.06348e-16
2.90047e-16
1.90479e-16
1.17097e-16
6.88452e-17
3.91524e-17
2.41514e-17
1.60526e-17
1.24695e-17
1.19207e-17
1.14424e-17
1.04889e-17
8.67952e-18
6.53968e-18
5.83486e-18
5.96373e-18
6.00199e-18
5.84104e-18
5.02017e-18
3.76211e-18
2.35332e-18
1.50872e-18
3.05566e-17
2.76599e-17
2.05441e-17
1.37157e-17
8.5459e-18
5.14813e-18
3.09059e-18
1.93283e-18
1.2583e-18
9.85521e-19
9.57376e-19
9.27686e-19
8.63505e-19
7.32507e-19
6.74035e-19
7.14296e-19
7.70146e-19
7.82512e-19
7.06238e-19
5.50666e-19
3.52546e-19
2.30033e-19
9.01295e-20
2.1634e-18
1.93041e-18
1.39119e-18
9.15967e-19
5.70876e-19
3.46978e-19
2.0985e-19
1.30229e-19
8.48463e-20
6.65358e-20
6.64047e-20
6.55944e-20
6.35476e-20
6.43926e-20
7.09347e-20
8.15528e-20
8.90123e-20
8.59417e-20
7.19395e-20
5.11361e-20
3.36404e-20
1.26339e-20
2.11477e-21
1.54448e-19
1.34824e-19
9.30162e-20
5.89564e-20
3.57345e-20
2.13839e-20
1.27323e-20
7.66196e-21
4.90532e-21
3.86407e-21
4.01326e-21
4.33591e-21
4.77133e-21
5.6926e-21
7.11335e-21
8.5311e-21
9.23253e-21
8.62601e-21
6.58541e-21
4.41145e-21
1.8009e-21
3.03379e-22
3.68304e-23
1.101e-20
8.60643e-21
5.64879e-21
3.50473e-21
2.09235e-21
1.21752e-21
7.05515e-22
4.10438e-22
2.55699e-22
2.13415e-22
2.39968e-22
2.95048e-22
3.96115e-22
5.55779e-22
7.35487e-22
8.70723e-22
9.0226e-22
8.05985e-22
5.34215e-22
2.31483e-22
5.28264e-23
7.40731e-24
5.18942e-25
7.34942e-22
4.8125e-22
3.00753e-22
1.78239e-22
1.05272e-22
5.892e-23
3.25346e-23
1.79715e-23
1.09834e-23
1.07265e-23
1.40533e-23
2.14051e-23
3.44122e-23
5.2372e-23
6.9314e-23
7.8419e-23
7.70108e-23
6.15557e-23
3.31084e-23
1.03937e-23
1.86933e-24
9.42624e-26
1.15013e-27
3.02673e-23
1.72045e-23
1.22876e-23
7.32091e-24
4.11346e-24
2.33238e-24
1.26382e-24
6.82776e-25
4.09672e-25
4.95026e-25
8.32582e-25
1.54542e-24
2.77613e-24
4.3427e-24
5.95372e-24
6.30877e-24
5.66243e-24
3.93924e-24
1.68904e-24
4.24758e-25
4.32427e-26
1.16362e-27
3.55846e-29
0.898029
0.877979
0.888388
0.922339
0.967123
0.907161
0.87239
0.887033
0.369578
0.169403
0.113107
0.112874
1.52808e-27
6.4059e-18
3.55466e-25
5.30964e-26
2.62464e-09
8.45456e-09
5.62081e-10
2.17958e-08
2.52689e-08
2.60262e-08
5.06726e-08
2.91507e-07
1.32381e-08
1.76005e-08
3.0719e-07
3.55723e-07
1.34316e-08
6.94525e-08
9.34328e-08
7.45348e-08
1.20968e-09
4.05129e-09
3.36945e-09
3.02162e-09
1.97918e-09
1.32623e-09
7.5979e-10
5.99448e-10
3.16642e-09
1.96934e-09
1.38208e-09
1.05107e-09
8.51125e-09
5.05838e-09
2.99084e-09
2.0474e-09
1.06502e-08
7.5707e-09
5.74799e-09
3.61303e-09
9.062e-09
7.5095e-09
5.19662e-09
2.83699e-09
7.52642e-09
6.2548e-09
3.50606e-09
1.78912e-09
5.67017e-09
5.19505e-09
3.84766e-09
2.22612e-09
4.273e-09
3.7255e-09
3.7321e-09
3.21837e-09
3.19624e-09
3.0383e-09
2.97037e-09
2.8814e-09
2.14233e-09
2.11958e-09
2.11971e-09
2.11341e-09
1.41186e-09
1.42634e-09
1.4263e-09
1.43197e-09
7.56569e-10
8.15958e-10
8.60549e-10
8.79147e-10
3.20822e-10
3.64797e-10
4.04346e-10
4.38151e-10
8.11484e-11
1.07511e-10
1.33648e-10
1.56206e-10
2.22166e-11
2.72407e-11
3.31958e-11
4.07396e-11
8.90095e-12
9.48156e-12
1.04001e-11
1.12233e-11
3.91867e-12
3.96055e-12
4.08105e-12
4.17056e-12
1.57328e-12
1.51869e-12
1.53375e-12
1.51754e-12
5.78231e-13
5.42562e-13
5.3301e-13
5.07729e-13
2.00545e-13
1.76845e-13
1.68288e-13
1.4928e-13
5.93074e-14
5.16084e-14
4.64506e-14
3.82281e-14
1.50136e-14
1.23953e-14
1.08507e-14
8.55656e-15
3.32947e-15
2.50498e-15
2.10627e-15
1.58536e-15
5.63969e-16
4.3089e-16
3.16323e-16
2.33534e-16
8.01213e-17
5.58074e-17
4.01992e-17
3.08756e-17
9.62889e-18
7.44427e-18
4.49573e-18
1.40095e-18
7.64413e-19
2.87184e-19
7.39816e-20
5.36301e-21
1.28587e-20
7.45298e-22
2.97157e-23
9.06444e-26
8.31105e-29
2.57494e-28
9.36744e-28
3.29252e-27
7.92701e-29
3.20674e-28
1.17692e-27
3.9488e-27
7.58607e-29
3.73299e-28
1.35497e-27
4.25506e-27
7.17287e-29
3.6674e-28
1.26016e-27
3.82553e-27
7.10601e-29
2.27089e-28
7.2634e-28
1.96408e-27
0.894941
0.783885
0.87584
0.879115
0.631702
0.0246838
0.154861
0.86223
0.999894
0.999905
0.999854
0.999862
0.999901
0.999902
0.999903
0.999843
0.565119
0.125562
0.0445024
0.445339
0.162156
0.685599
0.807661
0.524573
0.0117049
4.16145e-06
0.579724
0.979382
0.999906
0.999906
0.999906
0.999508
0.999224
0.98926
0.671966
0.0735671
-2.12118e-10
0.0202297
0.000380059
6.24664e-11
0.0795416
0.309725
0.112213
0.000325894
2.33297e-06
0.150139
0.779364
0.901787
0.9722
0.982531
0.911746
0.53198
0.176233
0.0226741
1.74319e-11
2.47012e-10
0.0143832
-4.70803e-25
8.90936e-11
1.03042e-16
2.12422e-16
8.84247e-12
2.74928e-05
5.05419e-06
0.000193515
0.207897
0.579421
0.605283
0.399704
0.0921498
0.00381934
5.95334e-05
4.75891e-07
1.99212e-06
5.66903e-05
0.00632311
1.08888e-07
1.89023e-08
3.53993e-07
1.12636e-06
1.30134e-05
6.76107e-05
6.40041e-05
7.60223e-06
0.00122752
0.0238125
0.0192169
3.23099e-07
8.87268e-05
1.50308e-06
1.27104e-05
3.88564e-07
3.21331e-07
6.77529e-05
0.00419248
2.90751e-07
6.05834e-08
1.05667e-08
1.78964e-07
2.60672e-06
1.37456e-05
2.08968e-05
2.0742e-05
1.56349e-05
3.17442e-07
3.17967e-07
3.64481e-07
2.70687e-06
1.38396e-06
1.72632e-07
6.94135e-08
3.60155e-08
1.66707e-05
0.000236519
2.36574e-07
4.11526e-10
6.31927e-10
3.59603e-08
4.2983e-07
2.22018e-06
5.71065e-06
1.11839e-05
9.13046e-06
1.99436e-06
4.20308e-07
5.15226e-07
1.0202e-06
3.08684e-07
7.02898e-11
9.6039e-11
7.61298e-11
2.14514e-05
0.000246581
6.39626e-09
3.98726e-10
6.27597e-10
4.85893e-10
2.38389e-10
2.91492e-07
2.2668e-06
4.74699e-06
5.00458e-06
1.81494e-06
4.16264e-07
1.14483e-09
3.28864e-08
9.62093e-08
7.14522e-09
7.61953e-11
1.3556e-09
1.80242e-05
0.000235279
2.62649e-10
3.50544e-10
4.10167e-10
3.98732e-10
2.05242e-10
1.02575e-10
3.85863e-08
4.53391e-07
1.5304e-06
1.10659e-06
9.97112e-08
1.28254e-09
1.20729e-08
2.36368e-08
8.94595e-09
3.13033e-09
1.70117e-10
1.8917e-06
5.86133e-06
5.33781e-10
4.25821e-10
3.43979e-10
3.10549e-10
2.44334e-10
1.33505e-10
4.95502e-11
3.20757e-11
2.88954e-11
8.34681e-09
1.62711e-10
1.45931e-09
5.0385e-09
4.8075e-08
2.47375e-07
2.04728e-07
-1.89327e-10
2.58478e-05
0.00106592
7.51076e-10
5.73341e-10
3.44594e-10
2.5828e-10
2.27899e-10
1.73974e-10
1.0938e-10
5.86052e-11
2.82034e-11
8.73646e-12
6.78691e-12
8.73697e-12
1.40641e-07
1.42388e-06
6.97872e-06
4.34889e-05
0.000119527
0.0052483
0.0192426
1.3064e-09
7.24614e-10
3.02483e-10
1.83803e-10
1.44549e-10
1.27953e-10
1.04746e-10
7.96791e-11
5.89369e-11
4.22719e-11
1.18299e-11
2.76492e-09
2.12763e-08
2.08701e-08
2.5925e-08
0.000431001
0.00175318
0.0150044
0.0197212
1.76547e-09
5.10503e-10
1.72728e-10
8.68058e-11
8.6302e-11
8.84152e-11
8.32386e-11
7.67991e-11
5.8487e-11
1.67885e-11
3.89459e-09
3.12074e-08
6.16862e-08
1.27022e-07
2.00808e-06
3.39526e-05
0.00317393
0.0121913
0.0128949
1.23967e-09
2.57133e-10
8.70113e-11
6.08479e-11
5.22981e-11
3.9376e-11
3.81054e-11
4.05328e-11
2.5874e-11
1.57525e-11
7.58563e-10
2.98819e-08
8.79544e-07
9.09374e-07
4.49838e-05
0.000198341
0.000285174
-2.82346e-23
-1.27658e-07
7.51991e-10
1.41015e-10
6.72003e-11
5.30419e-11
4.87415e-11
5.82073e-11
8.24518e-11
1.46002e-10
1.13699e-10
1.68494e-11
1.57132e-11
1.69255e-07
1.84298e-06
2.00895e-06
1.71428e-06
-1.18484e-10
-7.28912e-19
-4.76441e-10
4.80411e-09
1.01039e-09
1.70492e-10
6.65283e-11
6.87791e-11
1.21871e-10
2.63307e-10
5.98597e-10
1.1355e-09
1.39359e-09
1.12322e-08
1.85918e-11
3.63199e-07
7.63291e-07
5.27262e-07
1.55976e-07
3.56132e-07
3.19267e-07
6.71482e-08
1.20397e-08
1.49051e-09
2.81812e-10
7.68131e-11
8.71829e-11
1.77909e-10
4.36431e-10
9.57007e-10
1.91833e-09
3.64467e-09
1.65176e-08
5.55714e-08
2.30527e-07
5.65134e-08
2.64674e-08
7.57701e-13
1.8828e-12
8.24676e-12
5.75474e-12
1.51886e-09
1.89024e-09
5.36587e-10
1.12945e-10
8.10592e-11
1.36647e-10
3.33977e-10
7.36802e-10
1.46292e-09
3.37084e-09
1.00281e-08
4.39076e-08
4.55089e-08
4.43783e-09
6.97699e-12
8.80324e-12
1.81035e-11
3.43047e-11
2.23089e-10
4.17889e-09
1.93946e-09
1.02185e-09
2.51421e-10
8.46718e-11
8.59344e-11
1.71126e-10
3.80362e-10
7.28063e-10
1.38611e-09
2.58316e-09
2.75255e-09
2.74023e-09
5.40433e-11
6.521e-12
1.53221e-11
3.046e-11
7.39109e-11
3.48475e-10
4.44751e-09
1.43155e-09
1.25371e-09
5.87376e-10
1.56854e-10
6.93415e-11
7.97839e-11
1.50042e-10
2.75808e-10
4.74031e-10
3.49516e-10
7.53775e-11
1.31009e-11
5.93316e-12
6.59139e-12
1.21277e-11
2.47319e-11
6.39558e-11
3.46695e-10
3.50088e-09
8.95954e-10
9.02421e-10
7.73731e-10
3.90247e-10
1.15049e-10
5.33678e-11
5.66767e-11
8.75682e-11
1.32187e-10
1.05807e-10
4.0553e-11
1.25506e-11
3.04181e-12
3.83917e-12
6.94525e-12
1.49585e-11
4.77911e-11
2.27398e-10
1.55357e-09
4.77347e-10
5.14987e-10
5.25068e-10
4.51425e-10
2.46634e-10
8.18888e-11
3.63066e-11
3.08476e-11
3.60847e-11
3.28805e-11
1.69353e-11
5.11115e-12
1.65458e-12
1.91292e-12
3.00907e-12
5.84091e-12
1.64151e-11
9.13078e-11
4.7841e-10
1.91742e-10
2.35668e-10
2.66332e-10
2.76268e-10
2.39764e-10
1.32072e-10
5.01264e-11
2.15679e-11
1.37571e-11
1.06732e-11
6.03051e-12
2.1705e-12
9.10003e-13
8.25749e-13
1.02125e-12
1.76334e-12
4.69102e-12
2.10711e-11
8.75942e-11
5.51997e-11
7.84462e-11
1.04073e-10
1.23901e-10
1.32076e-10
1.13963e-10
6.16265e-11
2.49093e-11
1.05105e-11
5.01759e-12
2.47415e-12
1.07017e-12
5.20671e-13
3.51021e-13
3.05856e-13
3.84289e-13
6.3769e-13
2.50371e-12
1.34579e-11
1.38691e-11
1.96709e-11
3.03647e-11
4.15932e-11
5.17632e-11
5.70778e-11
4.72372e-11
2.34499e-11
9.85201e-12
3.89912e-12
1.49189e-12
5.89725e-13
2.73918e-13
1.52761e-13
9.29715e-14
7.92998e-14
8.80154e-14
2.46029e-13
7.12272e-13
4.44325e-12
5.24248e-12
7.64702e-12
1.0718e-11
1.50976e-11
1.96734e-11
2.15289e-11
1.54615e-11
7.03648e-12
2.89041e-12
9.76984e-13
3.1336e-13
1.17441e-13
5.4341e-14
2.59713e-14
1.2345e-14
6.14537e-15
6.98923e-15
7.59813e-14
1.52357e-12
1.5702e-12
1.81809e-12
2.39849e-12
3.54626e-12
5.17587e-12
6.58997e-12
6.23333e-12
3.48529e-12
1.55219e-12
5.11652e-13
1.36052e-13
4.02205e-14
1.44761e-14
3.90364e-15
2.00461e-15
2.54846e-15
2.48377e-15
1.76609e-15
4.89106e-13
4.48037e-13
4.39706e-13
5.11462e-13
7.12439e-13
1.07411e-12
1.46153e-12
1.68499e-12
1.14082e-12
5.5217e-13
1.81521e-13
4.18004e-14
1.00609e-14
3.18651e-15
4.70739e-16
8.19314e-16
1.2274e-15
1.22731e-15
7.57859e-16
1.35757e-13
1.10661e-13
9.41145e-14
9.28772e-14
1.16667e-13
1.74363e-13
2.56739e-13
3.14043e-13
2.41189e-13
1.22819e-13
3.7968e-14
7.76782e-15
1.69336e-15
5.73357e-16
1.56693e-16
3.21439e-16
5.43257e-16
6.14418e-16
3.67731e-16
3.25355e-14
2.53801e-14
1.78476e-14
1.29252e-14
1.19211e-14
1.8863e-14
3.02904e-14
3.88117e-14
3.20126e-14
1.63621e-14
4.30262e-15
5.05901e-16
1.02972e-16
7.49797e-17
5.18752e-17
1.17951e-16
2.34651e-16
3.33674e-16
1.68498e-16
6.58305e-15
4.33238e-15
2.762e-15
1.09978e-15
5.9937e-16
9.74704e-16
2.23196e-15
3.06102e-15
2.6237e-15
1.2505e-15
1.36952e-16
1.21122e-18
9.64606e-19
4.19255e-18
1.48255e-17
4.22436e-17
9.97904e-17
1.94025e-16
9.51094e-17
1.02583e-15
6.24645e-16
2.17858e-16
3.78515e-17
1.0613e-17
2.75015e-17
8.06966e-17
1.22829e-16
1.08493e-16
4.55213e-17
1.04632e-18
4.21141e-20
2.01964e-19
1.03674e-18
4.81643e-18
1.42359e-17
4.09895e-17
9.71253e-17
6.29843e-17
1.4123e-16
4.18192e-17
5.40552e-18
5.72277e-19
1.4726e-19
3.65818e-19
1.86583e-18
3.39403e-18
2.53295e-18
1.88297e-19
1.25489e-20
2.48788e-20
7.74187e-20
3.85021e-19
1.69446e-18
5.98085e-18
2.2019e-17
5.14196e-17
3.13617e-17
1.1135e-17
8.92301e-19
5.99896e-20
1.11119e-20
3.77501e-21
3.87922e-21
2.68678e-20
6.05228e-20
4.61397e-20
7.69807e-21
1.1417e-20
2.25977e-20
4.75292e-20
1.70458e-19
7.35063e-19
4.04038e-18
1.3856e-17
2.17485e-17
1.70068e-17
1.51712e-19
4.28747e-21
8.87556e-22
1.70731e-22
1.54401e-22
1.96434e-22
6.783e-22
1.72373e-21
2.62543e-21
4.89144e-21
1.07394e-20
2.09885e-20
3.65994e-20
1.05867e-19
5.6452e-19
2.65146e-18
6.72588e-18
1.07359e-17
6.75371e-18
2.61031e-22
1.24087e-23
1.08508e-23
1.47069e-23
3.61163e-23
1.00067e-22
2.78156e-22
7.44692e-22
1.86495e-21
4.4203e-21
9.83269e-21
1.93671e-20
3.32432e-20
9.30078e-20
4.28004e-19
1.61202e-18
3.51614e-18
3.99786e-18
3.04809e-18
1.07341e-25
5.12551e-25
2.07287e-24
7.65502e-24
2.55381e-23
7.84886e-23
2.24259e-22
6.0783e-22
1.54842e-21
3.71308e-21
8.25926e-21
1.63861e-20
2.82717e-20
7.2398e-20
2.85791e-19
9.16353e-19
1.41592e-18
1.69702e-18
9.52376e-19
6.90147e-26
3.73824e-25
1.58438e-24
5.79901e-24
1.92078e-23
5.91127e-23
1.6941e-22
4.54084e-22
1.15872e-21
2.78771e-21
6.19975e-21
1.23228e-20
2.14835e-20
5.05454e-20
1.69859e-19
4.76403e-19
6.45595e-19
5.35334e-19
3.40836e-19
5.44465e-26
2.70427e-25
1.09533e-24
3.84663e-24
1.27333e-23
3.90069e-23
1.11113e-22
2.95989e-22
7.59146e-22
1.82559e-21
4.06385e-21
8.1113e-21
1.43417e-20
3.15289e-20
8.62952e-20
2.25289e-19
2.294e-19
1.87072e-19
7.86995e-20
3.89592e-26
1.66069e-25
6.19132e-25
2.08272e-24
6.57242e-24
1.99247e-23
5.78735e-23
1.5855e-22
4.06979e-22
1.00404e-21
2.26788e-21
4.57097e-21
8.11393e-21
1.71728e-20
4.00045e-20
9.83282e-20
8.26295e-20
4.56604e-20
2.74598e-20
2.04793e-26
7.63136e-26
2.62111e-25
8.42502e-25
2.66071e-24
8.164e-24
2.41613e-23
6.85425e-23
1.82191e-22
4.59801e-22
1.06582e-21
2.20378e-21
4.00503e-21
8.28165e-21
1.68572e-20
3.79671e-20
2.17976e-20
1.53756e-20
9.50559e-21
5.9545e-27
1.9265e-26
6.09992e-26
1.84169e-25
6.36799e-25
2.20742e-24
7.19071e-24
2.20246e-23
6.36617e-23
1.70886e-22
4.15929e-22
9.02631e-22
1.69996e-21
3.47626e-21
6.51742e-21
1.27866e-20
7.31998e-21
4.94556e-21
2.7417e-21
)
;

boundaryField
{
    leftWall
    {
        type            alphaContactAngle;
        contactAngleProperties 
        {
            mercury         
            {
                theta0          90;
            }
            air             
            {
                theta0          90;
            }
            oil             
            {
                theta0          90;
            }
        }
        value           nonuniform List<scalar> 
50
(
3.79272e-11
9.7106e-11
3.64227e-10
3.19972e-10
0.0154485
0.722774
1
1
1
1
1
0.844418
0.408032
0.0624809
0.0289258
0.00160995
-4.70569e-22
-4.5849e-08
-6.1785e-08
-3.69628e-08
-7.3621e-10
3.40926e-08
3.41674e-08
1.91889e-08
1.99733e-08
2.02962e-08
2.03281e-08
1.93129e-08
1.68707e-08
1.44757e-08
1.23479e-08
1.01305e-08
8.1716e-09
6.51262e-09
4.29591e-09
2.34718e-09
1.11807e-09
4.17952e-10
9.06718e-11
1.34746e-11
1.11454e-12
9.75892e-14
7.04446e-15
4.51856e-16
3.05566e-17
2.1634e-18
1.54448e-19
1.101e-20
7.34942e-22
3.02673e-23
)
;
    }
    rightWall
    {
        type            alphaContactAngle;
        contactAngleProperties 
        {
            mercury         
            {
                theta0          90;
            }
            air             
            {
                theta0          90;
            }
            oil             
            {
                theta0          90;
            }
        }
        value           nonuniform List<scalar> 
50
(
0.0188788
0.0188788
0.0267721
0.233657
0.406093
0.523869
0.517262
0.303988
0.0445024
0.0202297
0.0143832
0.00632311
0.00419248
0.000236519
0.000246581
0.000235279
5.86133e-06
0.00106592
0.0192426
0.0197212
0.0128949
-1.27658e-07
4.80411e-09
1.20397e-08
1.51886e-09
4.17889e-09
4.44751e-09
3.50088e-09
1.55357e-09
4.7841e-10
8.75942e-11
1.34579e-11
7.12272e-13
7.59813e-14
1.76609e-15
7.57859e-16
3.67731e-16
1.68498e-16
9.51094e-17
6.29843e-17
3.13617e-17
1.70068e-17
6.75371e-18
3.04809e-18
9.52376e-19
3.40836e-19
7.86995e-20
2.74598e-20
9.50559e-21
2.7417e-21
)
;
    }
    lowerWall
    {
        type            alphaContactAngle;
        contactAngleProperties 
        {
            mercury         
            {
                theta0          90;
            }
            air             
            {
                theta0          90;
            }
            oil             
            {
                theta0          90;
            }
        }
        value           nonuniform List<scalar> 
62
(
3.79272e-11
7.35561e-11
1.04827e-10
1.05399e-10
1.04835e-10
1.08487e-10
1.14301e-10
1.20758e-10
1.26841e-10
1.32465e-10
1.36643e-10
1.40538e-10
1.46056e-10
1.57272e-10
1.81093e-10
2.29337e-10
3.17979e-10
4.36831e-10
7.21062e-10
1.56587e-09
2.43033e-09
2.76113e-09
2.76517e-09
2.76517e-09
2.65106e-09
1.36757e-09
1.896e-10
-3.92099e-11
5.84313e-19
0.239698
0.923541
0.898029
0.877979
0.888388
0.922339
0.0159937
0.00302487
0.0799946
0.521477
0.788817
0.696141
0.692062
0.882574
0.0159937
0.0115049
0.0529566
0.0596253
0.0422003
0.0257313
0.00393405
0.00162918
0.00165887
0.000907064
0.0237039
0.122237
0.123214
0.123214
0.0726206
0.0190144
0.0188788
0.0188788
0.0188788
)
;
    }
    atmosphere
    {
        type            inletOutlet;
        inletValue      uniform 0;
        value           nonuniform List<scalar> 
46
(
0
0
0
0
0
0
0
0
0
4.95026e-25
0
0
0
0
0
0
0
0
0
0
0
0
0
0
0
0
0
0
0
0
0
0
0
0
0
0
0
0
0
1.69996e-21
3.47626e-21
6.51742e-21
1.27866e-20
7.31998e-21
4.94556e-21
2.7417e-21
)
;
    }
    defaultFaces
    {
        type            empty;
    }
}


// ************************************************************************* //
