/*--------------------------------*- C++ -*----------------------------------*\
  =========                 |
  \\      /  F ield         | OpenFOAM: The Open Source CFD Toolbox
   \\    /   O peration     | Website:  https://openfoam.org
    \\  /    A nd           | Version:  13
     \\/     M anipulation  |
\*---------------------------------------------------------------------------*/
FoamFile
{
    format      ascii;
    class       volScalarField;
    location    "1.75";
    object      alpha.mercury;
}
// * * * * * * * * * * * * * * * * * * * * * * * * * * * * * * * * * * * * * //

dimensions      [];

internalField   nonuniform List<scalar> 
2268
(
1
1
1
1
1
1
1
1
1
1
1
1
1
1
1
1
1
1
1
0.999969
0.999583
0.999432
0.999433
1
1
1
1
1
1
1
1
1
1
1
1
1
1
1
1
1
1
1
1
0.999976
0.999824
0.999767
1
1
1
1
1
1
1
1
1
1
1
1
1
1
1
1
1
1
1
1
1
1
1
1
1
1
1
1
1
1
1
1
1
1
1
1
1
1
1
1
1
1
1
1
1
1
0.984551
0.972102
0.975311
0.993712
1
1
1
1
1
1
1
1
1
1
1
1
1
1
1
1
1
1
1
0.277226
0.283484
0.309018
0.361455
0.458197
0.582008
0.7106
0.827345
0.923088
0.990165
1
1
1
1
1
1
1
1
1
1
1
1
1
1.50425e-07
1.24948e-07
1.92084e-07
2.52968e-07
0.00024699
0.00892518
0.0384312
0.0982578
0.190099
0.308862
0.468169
0.622485
0.75643
0.866224
0.920264
0.926309
0.933933
0.949179
0.95035
0.935684
0.906572
0.839345
0.760297
1.23422e-09
1.29765e-09
1.29857e-09
1.28158e-09
1.29947e-09
1.28158e-09
7.46791e-08
1.67244e-07
2.02397e-07
2.25051e-07
0.000618372
0.0140284
0.0454556
0.0796396
0.1188
0.196795
0.277069
0.307145
0.311766
0.299023
0.241346
0.144651
0.0753201
0.873219
0.876582
0.876551
0.87659
0.870016
0.737615
0.56577
0.56479
0.574362
0.570914
0.603385
0.716027
0.712993
0.707903
0.707903
0.707764
0.706456
0.706291
0.705058
0.747112
0.773157
0.835064
0.816794
0.829119
0.835022
0.835769
0.831161
0.793075
0.748181
0.747578
0.730523
0.687978
0.649371
0.609018
0.604394
0.622336
0.602258
0.525458
0.155493
0.165073
0.279269
0.393939
0.419864
0.562046
0.754607
0.809679
0.813194
0.813333
0.72417
0.61737
0.436172
0.337871
0.290767
0.277919
0.266193
0.287923
0.366986
0.043755
0.0269604
0.0421112
0.137744
0.198684
0.175376
0.17954
0.301317
0.455996
0.428897
0.296118
0.22113
0.227749
0.228642
0.183247
0.148243
0.116345
0.128118
0.140723
0.197508
0.108866
0.0495449
0.0635496
0.130735
0.0633624
0.0146027
0.00471266
0.0362347
0.190028
0.222435
0.209373
0.165018
0.0827281
0.0521
0.0626571
0.0931008
0.0790135
0.0581757
0.282791
0.19234
0.0886198
0.054668
0.0966116
0.100036
0.0304284
0.00475202
0.000621373
0.00440683
0.0563036
0.063532
0.0138446
1.97825e-11
1.22034e-07
0.000978513
0.00857324
0.0066974
0.00594977
0.275623
0.273051
0.136943
0.0692997
0.0616975
0.0937731
0.0868146
0.0135715
0.00026876
4.27862e-06
3.0068e-09
1.48517e-11
1.97826e-11
1.88258e-12
1.36482e-05
1.63584e-05
0.000227964
0.000719619
0.00658639
0.00651864
0.161595
0.151529
0.0594123
0.0201417
0.0888876
0.0971043
0.0361288
8.07526e-05
4.78367e-05
0.000107709
5.91984e-05
4.47417e-06
2.14496e-05
7.46791e-05
3.67039e-05
3.79948e-05
0.00149856
0.0108538
1.30252e-09
1.59357e-09
1.97505e-09
2.02e-09
2.03862e-09
2.0574e-09
1.79583e-09
1.75517e-09
1.34314e-09
1.31342e-09
8.40764e-09
3.25697e-08
6.4619e-08
5.80162e-08
2.76628e-08
5.21702e-09
2.72956e-10
2.83944e-10
9.51148e-22
1.39264e-10
-1.30131e-10
4.72572e-08
-4.72662e-08
4.05516e-10
7.93066e-10
1.30909e-09
1.74823e-09
2.23339e-09
2.55212e-09
2.44812e-09
2.07229e-09
1.67843e-09
1.28846e-09
1.00709e-09
6.98074e-10
2.50649e-10
4.44082e-09
2.52879e-09
5.93582e-09
4.11708e-08
1.40677e-09
1.52612e-14
6.80688e-11
-2.50532e-12
-1.29897e-13
1.56039e-09
2.5311e-10
3.24731e-10
5.40595e-10
7.60791e-10
1.07824e-09
1.37763e-09
1.43818e-09
1.34514e-09
1.06924e-09
8.05509e-10
5.52296e-10
3.69962e-10
2.51456e-10
1.57563e-10
1.52853e-10
1.73957e-10
4.01153e-10
3.79312e-10
9.41294e-10
1.69459e-09
1.43057e-09
4.38931e-13
2.14297e-08
2.71535e-10
3.16501e-10
3.63884e-10
3.91001e-10
3.95402e-10
4.81827e-10
5.29494e-10
5.65626e-10
5.91457e-10
6.30263e-10
6.13785e-10
5.95019e-10
6.2603e-10
7.55375e-10
1.02401e-09
1.38315e-09
1.70538e-09
2.0126e-09
2.17098e-09
2.12547e-09
1.7647e-09
1.02005e-10
1.26829e-08
4.05079e-10
4.92999e-10
5.18033e-10
5.42711e-10
6.07534e-10
6.93928e-10
8.21642e-10
9.87509e-10
1.19764e-09
1.43355e-09
1.59934e-09
1.7324e-09
1.8712e-09
2.04328e-09
2.23619e-09
2.5746e-09
2.80185e-09
2.74675e-09
2.51811e-09
2.17125e-09
1.79298e-09
9.37763e-10
2.5867e-11
5.03342e-10
5.79377e-10
5.96001e-10
6.48883e-10
7.40899e-10
9.56843e-10
1.12188e-09
1.27221e-09
1.4316e-09
1.5656e-09
1.59191e-09
1.52654e-09
1.37438e-09
1.19211e-09
1.05761e-09
9.73109e-10
8.77115e-10
7.16654e-10
5.00463e-10
2.99016e-10
3.01344e-10
4.76783e-10
3.57143e-10
5.05615e-10
5.0501e-10
4.00933e-10
3.94772e-10
4.14295e-10
4.67475e-10
4.66801e-10
4.33241e-10
3.90408e-10
3.34035e-10
2.6171e-10
2.05006e-10
1.60157e-10
1.2088e-10
8.65303e-11
5.85738e-11
4.02743e-11
2.97566e-11
2.48724e-11
2.50825e-11
2.7292e-11
6.31345e-11
1.38251e-10
5.05117e-10
5.20972e-10
4.08484e-10
2.33287e-10
1.62633e-10
1.20538e-10
8.81784e-11
6.49588e-11
4.88794e-11
3.81564e-11
3.23451e-11
2.58991e-11
2.11527e-11
1.79092e-11
1.54503e-11
1.33756e-11
1.16661e-11
1.05289e-11
9.36162e-12
8.33148e-12
7.11944e-12
6.32701e-12
6.98667e-12
4.09555e-10
4.69586e-10
4.64064e-10
3.22298e-10
1.77265e-10
1.35098e-10
1.06161e-10
8.53013e-11
7.03554e-11
4.48198e-11
3.45666e-11
2.13979e-11
1.45938e-11
1.06901e-11
9.22459e-12
8.23511e-12
7.02425e-12
5.43755e-12
4.21153e-12
3.08497e-12
2.5767e-12
2.32252e-12
2.80809e-12
2.21157e-10
3.12925e-10
4.43707e-10
3.91539e-10
2.66931e-10
2.34551e-10
2.20058e-10
1.82108e-10
1.39734e-10
1.18984e-10
7.53862e-11
4.55939e-11
2.41789e-11
1.47527e-11
1.15018e-11
9.49737e-12
6.86235e-12
4.70364e-12
3.23525e-12
2.07368e-12
1.46011e-12
1.03861e-12
8.28278e-13
1.19483e-10
2.64278e-10
4.47854e-10
4.10811e-10
3.28968e-10
3.26028e-10
3.22398e-10
2.73675e-10
2.31711e-10
1.92752e-10
1.54067e-10
1.07634e-10
6.27849e-11
3.08337e-11
2.02503e-11
1.33273e-11
7.72119e-12
4.76277e-12
3.15091e-12
2.01033e-12
1.26782e-12
7.57253e-13
4.5207e-13
7.61552e-11
2.56208e-10
4.43695e-10
4.43988e-10
4.19934e-10
4.07571e-10
3.47728e-10
2.88007e-10
2.53783e-10
2.19299e-10
1.79809e-10
1.25996e-10
8.01844e-11
4.02125e-11
2.30471e-11
1.49292e-11
8.29775e-12
4.7642e-12
3.09269e-12
1.77537e-12
1.01354e-12
5.83286e-13
3.34309e-13
5.20376e-11
2.48631e-10
4.1868e-10
4.45184e-10
4.31105e-10
3.91713e-10
3.06008e-10
2.63548e-10
2.4727e-10
2.15527e-10
1.78832e-10
1.29322e-10
7.92877e-11
4.04824e-11
2.38103e-11
1.46532e-11
7.61203e-12
4.418e-12
2.74129e-12
1.44738e-12
7.90556e-13
4.22597e-13
2.40135e-13
4.64618e-11
2.07499e-10
3.57222e-10
4.01758e-10
3.66517e-10
2.99229e-10
2.45748e-10
2.31441e-10
2.12551e-10
1.80792e-10
1.50646e-10
1.1274e-10
6.99453e-11
3.69272e-11
2.22097e-11
1.21999e-11
6.66927e-12
3.5721e-12
2.22773e-12
1.13326e-12
6.41329e-13
3.37664e-13
1.87432e-13
4.22625e-11
1.56007e-10
2.81257e-10
3.07659e-10
2.7993e-10
2.31343e-10
2.03647e-10
1.78009e-10
1.51964e-10
1.38479e-10
1.14177e-10
8.6917e-11
5.74118e-11
2.98664e-11
1.81702e-11
9.33312e-12
5.59283e-12
2.60259e-12
1.58427e-12
9.39028e-13
5.56813e-13
2.98226e-13
1.64781e-13
2.61949e-11
1.11135e-10
1.92252e-10
2.13061e-10
1.95715e-10
1.70311e-10
1.42902e-10
1.19061e-10
1.02793e-10
9.05577e-11
7.52136e-11
6.01828e-11
3.92074e-11
2.45878e-11
1.31963e-11
7.38888e-12
3.75626e-12
1.84379e-12
1.23275e-12
7.76602e-13
4.78678e-13
2.61979e-13
1.62056e-13
1.90015e-11
6.71817e-11
1.11337e-10
1.30407e-10
1.23333e-10
1.106e-10
9.2141e-11
7.65747e-11
6.18551e-11
4.7412e-11
3.73227e-11
3.05464e-11
2.20909e-11
1.46852e-11
8.00052e-12
4.55364e-12
2.61217e-12
1.47857e-12
9.74577e-13
6.20039e-13
3.97362e-13
2.36221e-13
1.53198e-13
1.30477e-11
3.94992e-11
5.9169e-11
6.58976e-11
7.21548e-11
6.61959e-11
5.66397e-11
4.5186e-11
3.05951e-11
2.16493e-11
1.60837e-11
1.33995e-11
1.10734e-11
8.4522e-12
4.28311e-12
2.64201e-12
1.79649e-12
1.29824e-12
8.11218e-13
4.83717e-13
3.26841e-13
2.0911e-13
1.41957e-13
8.86836e-12
2.49212e-11
3.5547e-11
4.07834e-11
4.45674e-11
4.23081e-11
3.53392e-11
2.70238e-11
1.93661e-11
1.29569e-11
8.8282e-12
7.05194e-12
5.7724e-12
4.05543e-12
2.66246e-12
1.96211e-12
1.35905e-12
1.02488e-12
6.55077e-13
3.90439e-13
2.7595e-13
1.8177e-13
1.28402e-13
5.15469e-12
1.43218e-11
2.14415e-11
2.46965e-11
2.65227e-11
2.52106e-11
2.35892e-11
1.8926e-11
1.33447e-11
8.62761e-12
5.87272e-12
3.92682e-12
2.7925e-12
2.16834e-12
1.77133e-12
1.27376e-12
1.01418e-12
7.46668e-13
5.03078e-13
3.05787e-13
2.22569e-13
1.56435e-13
1.12054e-13
2.99072e-12
8.45951e-12
1.26259e-11
1.43909e-11
1.57772e-11
1.61849e-11
1.50748e-11
1.25806e-11
9.20319e-12
5.99063e-12
3.70911e-12
2.27061e-12
1.61842e-12
1.26432e-12
1.03007e-12
7.84888e-13
6.41259e-13
4.99664e-13
3.59044e-13
2.2849e-13
1.70429e-13
1.2558e-13
9.33845e-14
1.57087e-12
4.31131e-12
6.28907e-12
7.64149e-12
8.37074e-12
8.88924e-12
8.83721e-12
7.94409e-12
6.37144e-12
4.38773e-12
2.61573e-12
1.46508e-12
9.34196e-13
6.95447e-13
5.52998e-13
4.45426e-13
3.63761e-13
3.06751e-13
2.38221e-13
1.53614e-13
1.15023e-13
9.14529e-14
7.12091e-14
7.72111e-13
2.01982e-12
3.00267e-12
3.46133e-12
3.96593e-12
4.30396e-12
4.539e-12
4.50077e-12
3.97303e-12
2.96713e-12
1.87574e-12
9.64094e-13
5.65863e-13
3.75774e-13
2.86442e-13
2.31897e-13
1.95729e-13
1.64794e-13
1.32641e-13
9.08188e-14
7.41607e-14
5.80946e-14
4.6522e-14
3.12677e-13
8.41274e-13
1.23867e-12
1.42843e-12
1.53458e-12
1.85997e-12
1.93635e-12
2.11558e-12
2.14902e-12
1.75914e-12
1.18383e-12
6.77208e-13
3.24406e-13
2.01671e-13
1.40032e-13
1.07279e-13
9.04791e-14
7.78374e-14
6.4593e-14
5.11429e-14
4.15597e-14
3.33549e-14
2.67539e-14
1.29534e-13
3.23838e-13
4.46974e-13
4.94855e-13
5.20864e-13
6.54172e-13
7.57468e-13
7.97097e-13
1.00285e-12
9.63196e-13
6.79026e-13
4.33043e-13
2.15664e-13
1.11859e-13
6.72113e-14
4.79519e-14
3.81193e-14
3.26597e-14
2.83922e-14
2.42557e-14
2.03815e-14
1.62623e-14
1.29149e-14
4.80655e-14
1.11101e-13
1.44994e-13
1.50433e-13
1.54187e-13
2.00317e-13
2.38578e-13
2.67692e-13
3.28271e-13
4.27878e-13
3.28265e-13
2.23343e-13
1.36624e-13
6.24861e-14
3.25078e-14
2.09273e-14
1.54549e-14
1.29951e-14
1.13875e-14
9.8196e-15
8.23977e-15
7.0606e-15
5.63574e-15
1.40891e-14
3.2428e-14
4.09641e-14
4.10906e-14
4.19914e-14
5.69459e-14
6.98996e-14
8.3212e-14
1.0062e-13
1.38854e-13
1.32651e-13
9.86602e-14
6.22354e-14
3.38367e-14
1.52315e-14
8.96914e-15
6.09817e-15
4.90817e-15
4.25182e-15
3.6788e-15
3.20639e-15
2.67432e-15
2.23226e-15
3.2805e-15
7.84582e-15
9.79397e-15
9.68716e-15
9.99626e-15
1.42384e-14
1.85727e-14
2.23423e-14
2.72022e-14
3.89662e-14
4.13344e-14
3.43959e-14
2.44207e-14
1.46818e-14
6.67013e-15
3.33079e-15
2.17388e-15
1.72607e-15
1.43532e-15
1.24981e-15
1.0369e-15
8.7384e-16
7.45814e-16
7.20411e-16
1.54604e-15
1.92806e-15
1.89539e-15
1.99679e-15
2.95585e-15
4.26022e-15
5.24317e-15
6.55128e-15
9.57396e-15
1.08522e-14
9.51004e-15
7.18626e-15
4.91863e-15
2.56551e-15
1.14916e-15
6.91113e-16
5.17506e-16
4.35035e-16
3.80837e-16
3.13589e-16
2.55729e-16
2.18859e-16
1.1225e-16
2.41881e-16
3.00911e-16
2.96086e-16
3.19805e-16
4.9076e-16
7.86454e-16
1.03547e-15
1.34008e-15
1.9476e-15
2.37615e-15
2.16004e-15
1.71921e-15
1.20407e-15
7.17404e-16
3.15004e-16
1.89492e-16
1.37303e-16
1.15785e-16
1.02822e-16
8.40886e-17
6.4362e-17
5.38192e-17
1.02091e-17
2.77076e-17
3.53624e-17
3.5079e-17
3.87915e-17
6.29884e-17
1.1498e-16
1.69836e-16
2.37475e-16
3.55335e-16
4.23486e-16
3.88366e-16
3.22628e-16
2.41812e-16
1.4174e-16
6.87836e-17
4.51393e-17
3.19301e-17
2.6278e-17
2.34818e-17
2.06542e-17
1.44065e-17
1.07902e-17
6.5368e-19
2.21655e-18
2.84396e-18
2.83717e-18
3.34114e-18
6.00216e-18
1.29721e-17
2.24337e-17
3.4585e-17
5.2917e-17
6.08008e-17
5.54886e-17
4.84999e-17
3.68646e-17
2.03936e-17
1.13862e-17
7.89736e-18
6.06533e-18
4.93574e-18
4.54166e-18
3.90917e-18
2.41878e-18
1.92115e-18
2.29956e-20
1.1738e-19
1.45207e-19
1.48256e-19
1.98813e-19
4.33494e-19
1.06142e-18
2.25382e-18
4.00025e-18
5.66859e-18
6.3622e-18
6.24273e-18
5.71143e-18
4.25472e-18
2.56245e-18
1.57426e-18
1.23783e-18
9.81435e-19
7.94803e-19
7.19692e-19
5.97272e-19
4.18521e-19
2.67741e-19
5.25544e-22
3.76412e-21
3.36767e-21
3.63632e-21
6.8676e-21
2.13983e-20
6.33379e-20
1.60062e-19
3.61019e-19
5.65227e-19
6.22957e-19
6.12785e-19
5.47632e-19
4.00721e-19
2.5851e-19
1.92064e-19
1.5512e-19
1.28664e-19
1.0995e-19
9.90951e-20
8.00223e-20
5.15915e-20
3.1078e-20
9.89057e-24
4.83811e-23
5.35921e-23
6.96125e-23
2.49224e-22
1.08165e-21
3.7564e-21
1.10779e-20
2.93925e-20
4.31988e-20
4.90454e-20
4.97727e-20
4.38835e-20
3.26501e-20
2.44192e-20
2.07056e-20
1.83365e-20
1.62543e-20
1.40646e-20
1.20309e-20
8.87143e-21
5.50054e-21
2.99938e-21
9.6058e-26
4.02494e-25
3.92901e-25
1.01178e-24
7.3714e-24
4.23646e-23
1.67721e-22
5.93336e-22
1.98426e-21
3.17682e-21
3.55259e-21
3.48147e-21
3.04707e-21
2.44595e-21
2.13917e-21
2e-21
1.87464e-21
1.63437e-21
1.45948e-21
1.16366e-21
8.05788e-22
4.58343e-22
2.66808e-22
4.14282e-28
1.32088e-27
1.57689e-27
1.72556e-26
1.93271e-25
1.45769e-24
7.54988e-24
3.06868e-23
1.11445e-22
1.87439e-22
2.10827e-22
2.07529e-22
1.90139e-22
1.78268e-22
1.72911e-22
1.72753e-22
1.68177e-22
1.52477e-22
1.2852e-22
9.4161e-23
5.60671e-23
3.39099e-23
1.11542e-23
3.79901e-31
5.17113e-31
1.03439e-29
3.09549e-28
4.68423e-27
4.37378e-26
2.80237e-25
1.28784e-24
5.27634e-24
9.18972e-24
1.06541e-23
1.10391e-23
1.14144e-23
1.2206e-23
1.28789e-23
1.33075e-23
1.31387e-23
1.1796e-23
9.45222e-24
6.40239e-24
3.9929e-24
1.30474e-24
1.63466e-25
1.95275e-34
6.63488e-34
1.41049e-31
5.81298e-30
1.03844e-28
1.1341e-27
9.08508e-27
4.64685e-26
2.0821e-25
3.7809e-25
4.63901e-25
5.51261e-25
6.46451e-25
7.501e-25
8.39006e-25
9.00634e-25
9.13777e-25
8.31637e-25
6.20363e-25
4.04693e-25
1.5064e-25
1.95532e-26
2.27277e-27
9.79686e-37
5.52007e-36
1.77805e-33
1.11663e-31
2.24372e-30
2.83349e-29
2.86076e-28
1.6922e-27
8.1814e-27
1.48556e-26
2.00591e-26
2.7055e-26
3.60362e-26
4.55622e-26
5.3393e-26
5.90762e-26
6.03417e-26
5.4603e-26
3.69986e-26
1.54826e-26
2.97413e-27
3.22263e-28
3.86108e-28
-5.6404e-38
1.13379e-39
2.33724e-35
2.1555e-33
4.77746e-32
6.86332e-31
8.28113e-30
5.29287e-29
2.72566e-28
5.14184e-28
7.85592e-28
1.2298e-27
1.79981e-27
2.43434e-27
2.9928e-27
3.44656e-27
3.51387e-27
3.02184e-27
1.72213e-27
5.124e-28
7.00346e-29
4.12966e-29
1.97045e-28
-4.86491e-39
5.3096e-41
2.93197e-37
4.02112e-35
9.54866e-34
1.5934e-32
2.26983e-31
1.60589e-30
7.90239e-30
1.5634e-29
2.70513e-29
4.83651e-29
7.74477e-29
1.14403e-28
1.60772e-28
1.87768e-28
1.85625e-28
1.47576e-28
6.73444e-29
1.48671e-29
3.60017e-30
1.19102e-29
8.5596e-29
0.093226
0.104614
0.094203
0.062209
3.21497e-19
2.93389e-08
8.62009e-18
2.31508e-17
9.55323e-08
9.21603e-08
2.54982e-08
1.26511e-08
7.62075e-08
9.52376e-08
1.99583e-08
3.31881e-08
2.74664e-11
2.58666e-11
1.02952e-08
6.73217e-09
9.09552e-11
3.75403e-11
1.82294e-09
5.79315e-09
1.5449e-10
1.01456e-10
2.17029e-11
2.20525e-11
1.08698e-11
1.77965e-11
2.1578e-11
2.36997e-11
3.44377e-12
4.93766e-12
8.71592e-12
1.27509e-11
9.5616e-13
1.53281e-12
2.34646e-12
2.75702e-12
3.96397e-13
4.07088e-13
4.3712e-13
4.24181e-13
2.75988e-13
2.43923e-13
2.30631e-13
2.24971e-13
1.75175e-13
1.43025e-13
1.43879e-13
1.53962e-13
1.20289e-13
1.1719e-13
1.69521e-13
3.32895e-13
1.09069e-13
1.73761e-13
6.34376e-13
1.64607e-12
1.0439e-13
1.14754e-13
8.01286e-13
4.01966e-12
9.90778e-14
8.71849e-14
1.61099e-13
2.51505e-12
9.42132e-14
7.90611e-14
8.1509e-14
8.42632e-13
8.68048e-14
7.19141e-14
6.45259e-14
1.10863e-13
7.81012e-14
6.73544e-14
5.87368e-14
5.36248e-14
6.75895e-14
5.50546e-14
4.91497e-14
4.41887e-14
5.42416e-14
4.69289e-14
3.88963e-14
3.49293e-14
3.59219e-14
3.15427e-14
2.87193e-14
2.54957e-14
2.11844e-14
1.91631e-14
1.67405e-14
1.54552e-14
9.87589e-15
8.7678e-15
8.26047e-15
7.53935e-15
4.1298e-15
3.67898e-15
3.31497e-15
3.02778e-15
1.57867e-15
1.31616e-15
1.21021e-15
1.06397e-15
5.16747e-16
4.25198e-16
3.71451e-16
3.14201e-16
1.56008e-16
1.19729e-16
1.02982e-16
8.00988e-17
3.83989e-17
2.97702e-17
2.39408e-17
1.69535e-17
7.92857e-18
5.76704e-18
4.50513e-18
3.07179e-18
1.44243e-18
9.54623e-19
7.12055e-19
4.64888e-19
1.97278e-19
1.34722e-19
8.69723e-20
5.52026e-20
2.18563e-20
1.36582e-20
8.6112e-21
5.84962e-21
2.01043e-21
1.42835e-21
7.25737e-22
1.54748e-22
1.11167e-22
3.12777e-23
5.82492e-24
2.43566e-25
6.91958e-25
1.27872e-26
7.74211e-27
1.64896e-26
1.32363e-27
2.54255e-27
6.17131e-27
1.7224e-26
1.31314e-27
2.16939e-27
6.09546e-27
1.90535e-26
6.68664e-28
1.91965e-27
6.57244e-27
2.03311e-26
4.63289e-28
1.71999e-27
6.01239e-27
1.8289e-26
3.21774e-28
1.09651e-27
3.50222e-27
9.44196e-27
0.000457512
1.15648e-19
0.0422237
0.0172048
0.0134615
0.0709394
0.0923484
0.0422134
8.97649e-05
9.18948e-05
0.000145605
0.00013751
5.2864e-05
3.04951e-05
9.75685e-06
0.000125226
4.02942e-05
0.00159188
0.011021
1.71862e-08
-1.28171e-09
9.44274e-09
0.00156788
0.0030787
0.00744529
0.0435345
0.0389714
0.0028953
1.41132e-05
4.2088e-05
4.19173e-05
2.01396e-05
9.80701e-06
1.69952e-06
0.000270583
0.000250465
0.000597007
0.00532277
2.45383e-07
-2.10743e-09
0.000938315
0.00257753
0.00108964
0.000103546
0.00263827
0.0126969
0.00539439
2.65532e-06
3.79606e-06
2.33895e-06
4.99049e-06
2.67168e-06
7.73375e-07
0.000232403
0.000333588
5.17348e-05
0.000798419
3.52156e-07
3.49958e-07
6.64354e-06
0.000569393
0.000568488
9.51447e-05
2.82419e-06
0.000518804
0.00218473
0.00130096
0.000385352
4.92505e-09
5.27484e-09
3.21584e-07
8.2816e-07
2.74694e-05
0.000243388
1.61664e-05
0.000103473
1.40299e-07
1.98233e-07
1.77141e-08
2.76882e-09
1.1804e-06
1.75665e-05
6.29226e-07
2.10841e-08
0.000177126
0.000800269
0.000359746
5.02762e-09
4.92584e-09
5.0561e-07
9.39258e-07
4.23413e-09
3.85109e-06
7.23585e-06
0.000188423
1.53813e-11
1.62048e-11
6.29008e-10
7.01501e-10
1.04374e-10
9.6691e-11
3.27856e-08
2.22249e-08
8.84137e-08
3.15983e-05
8.82751e-05
7.91537e-06
5.03132e-09
2.06495e-07
4.07342e-07
2.79553e-09
4.31902e-08
1.76552e-05
0.000599776
2.33791e-11
4.3709e-11
2.55686e-10
5.57472e-10
5.28957e-10
3.03819e-09
1.53871e-08
2.18865e-08
1.119e-08
2.17896e-08
1.81275e-06
8.83241e-06
1.17885e-10
2.2525e-10
2.31994e-11
2.65481e-09
1.19995e-09
4.96674e-05
0.000600156
3.05568e-11
8.57858e-11
1.71708e-10
2.62675e-10
2.61693e-10
1.67926e-09
1.16828e-08
1.75513e-08
5.9035e-09
1.45013e-11
5.674e-07
1.12931e-06
8.62385e-07
2.32898e-11
2.30532e-11
2.31845e-11
2.82928e-09
3.72681e-05
0.000473838
1.50977e-11
2.09752e-11
2.62552e-11
6.43887e-11
1.21317e-10
1.83084e-10
1.70226e-09
3.7331e-09
2.77544e-09
3.77194e-08
5.38469e-07
6.24789e-07
2.22771e-07
4.72811e-11
1.21515e-08
6.27529e-07
1.03331e-06
1.04055e-06
1.60914e-06
3.1354e-12
2.06263e-12
4.58598e-12
1.16475e-11
2.63237e-11
3.58661e-11
1.47754e-11
1.37042e-11
4.0335e-09
4.56856e-08
5.55526e-08
1.8869e-09
2.98039e-09
4.03724e-08
5.57059e-07
8.64321e-07
1.86124e-06
0.000199658
0.0010267
3.6818e-13
3.46466e-13
4.20095e-13
8.06397e-13
3.67764e-12
1.32472e-11
1.08813e-11
4.75981e-11
1.28392e-09
3.49949e-09
2.94434e-12
3.09058e-12
4.71212e-08
4.76326e-07
2.01465e-06
1.27761e-05
4.9378e-05
0.00206976
0.0056423
2.13615e-13
1.69377e-13
1.83781e-13
2.17211e-13
2.86838e-13
1.36807e-12
3.31859e-12
2.02973e-11
1.98669e-10
1.9242e-10
1.59173e-11
2.07708e-09
8.41363e-09
6.4484e-09
9.06139e-09
0.00011801
0.000454056
0.00384689
0.00566201
1.63346e-13
1.76777e-13
1.98533e-13
1.93592e-13
2.4508e-13
5.70554e-13
1.26012e-12
4.0111e-12
1.67046e-11
2.85039e-11
3.06376e-11
1.51636e-10
1.49312e-09
4.41126e-09
1.24293e-06
1.1125e-05
0.000983334
0.00242577
0.00192377
5.10279e-13
1.06387e-12
1.96618e-12
2.18079e-12
1.83454e-12
6.43062e-13
8.52917e-14
7.92105e-14
3.41455e-13
8.49788e-12
1.59786e-11
1.51758e-11
1.60275e-08
2.74427e-07
2.16943e-05
8.0999e-05
7.49828e-05
2.15366e-08
1.96903e-08
3.4069e-12
7.88549e-12
1.79422e-11
2.73433e-11
2.97026e-11
3.82979e-11
3.37498e-11
3.54417e-11
-2.46473e-17
7.99165e-14
1.07976e-17
1.56207e-09
1.99543e-06
7.09974e-06
8.64814e-06
7.60943e-06
2.28046e-07
3.65037e-07
1.53219e-07
1.03937e-11
2.81173e-11
7.2874e-11
1.78544e-10
3.96363e-10
7.24559e-10
1.50163e-09
3.40595e-09
2.70067e-09
5.02948e-10
4.14657e-11
1.48111e-11
3.52505e-06
4.71678e-06
1.82273e-06
3.75976e-08
1.81858e-06
1.69695e-06
3.2939e-07
1.62551e-11
4.52156e-11
1.19551e-10
3.21891e-10
7.72927e-10
1.7602e-09
3.39799e-09
6.61368e-09
1.22131e-08
1.63245e-08
2.11243e-11
2.20394e-07
1.16512e-06
8.07736e-07
2.2578e-08
2.45588e-11
5.52691e-11
2.457e-11
2.20582e-25
7.69706e-12
2.54184e-11
8.00296e-11
2.17977e-10
5.80677e-10
1.4362e-09
2.85566e-09
5.03157e-09
1.00332e-08
1.58379e-08
5.13578e-08
1.58226e-07
1.95063e-08
8.64716e-12
2.31096e-11
2.41625e-11
7.43902e-11
4.3129e-09
1.71777e-09
1.81457e-12
9.12618e-12
3.33957e-11
9.45308e-11
2.83778e-10
7.24893e-10
1.56925e-09
2.72895e-09
4.33708e-09
8.65368e-09
1.71424e-08
1.56689e-08
3.1082e-10
6.47764e-12
2.13729e-11
5.38057e-11
1.73998e-10
3.42854e-09
1.04483e-09
1.6127e-13
1.85954e-12
9.31326e-12
2.89847e-11
9.23371e-11
2.6607e-10
6.03672e-10
1.10551e-09
1.81948e-09
2.06007e-09
9.12838e-10
9.67706e-12
7.74083e-12
9.11915e-12
1.95545e-11
4.44455e-11
1.11545e-10
4.54145e-10
2.84755e-10
4.35012e-14
1.78782e-13
1.60362e-12
6.69374e-12
2.41932e-11
7.12842e-11
1.69626e-10
3.28282e-10
5.23803e-10
5.58746e-10
1.69214e-10
2.72169e-11
3.74936e-12
5.9014e-12
1.15837e-11
2.51332e-11
5.61522e-11
1.13396e-10
9.67563e-11
3.07616e-14
2.77468e-14
1.73758e-13
1.05446e-12
4.71665e-12
1.45948e-11
3.66355e-11
7.43601e-11
1.17438e-10
1.24512e-10
4.86997e-11
8.22782e-12
1.72578e-12
2.72786e-12
4.90105e-12
8.8452e-12
1.46262e-11
2.27397e-11
2.57317e-11
2.21411e-14
1.6375e-14
2.17007e-14
1.25284e-13
6.53082e-13
2.30321e-12
6.29409e-12
1.35504e-11
2.21495e-11
2.53644e-11
1.26125e-11
2.51909e-12
5.70192e-13
8.9142e-13
1.49944e-12
2.53822e-12
3.86474e-12
4.41583e-12
3.8624e-12
1.37661e-14
1.02323e-14
8.45246e-15
1.59688e-14
7.0058e-14
2.75896e-13
8.54662e-13
2.00486e-12
3.53626e-12
4.14497e-12
2.70712e-12
5.92487e-13
1.37618e-13
2.12004e-13
3.35529e-13
5.17668e-13
5.6412e-13
5.17533e-13
5.1354e-13
6.83939e-15
5.27776e-15
4.01497e-15
3.69728e-15
7.36483e-15
2.61968e-14
9.01129e-14
2.36719e-13
4.64695e-13
5.85668e-13
5.04739e-13
1.18843e-13
2.55044e-14
3.92648e-14
5.95558e-14
8.14176e-14
7.0337e-14
5.9111e-14
2.38089e-14
2.76315e-15
2.16413e-15
1.72096e-15
1.34392e-15
1.261e-15
2.40262e-15
7.51077e-15
2.17959e-14
4.28245e-14
7.16916e-14
6.84388e-14
1.89479e-14
3.5822e-15
5.65723e-15
7.96677e-15
7.07196e-15
1.2243e-15
9.54876e-16
2.70065e-15
9.52006e-16
7.25472e-16
5.42335e-16
4.29212e-16
3.52107e-16
3.52377e-16
6.00073e-16
1.40718e-15
3.64352e-15
6.38109e-15
7.04021e-15
2.33315e-15
4.5923e-16
6.48358e-16
6.04657e-16
1.92474e-16
2.51364e-16
2.69843e-16
1.92204e-16
2.72305e-16
1.887e-16
1.34592e-16
1.06399e-16
9.02653e-17
8.0366e-17
7.09671e-17
1.06738e-16
2.33228e-16
4.4158e-16
5.66859e-16
2.50104e-16
5.61854e-17
7.80929e-17
3.94651e-17
7.85419e-17
1.31171e-16
1.41153e-16
9.50277e-17
6.52811e-17
4.15515e-17
2.64359e-17
1.79507e-17
1.56825e-17
1.54702e-17
1.33168e-17
1.05497e-17
1.37172e-17
2.48563e-17
3.33055e-17
2.04529e-17
7.60472e-18
1.33809e-17
1.51435e-17
3.49223e-17
6.31624e-17
7.44175e-17
4.7005e-17
1.25411e-17
7.63736e-18
3.78915e-18
2.01521e-18
1.40933e-18
1.75489e-18
1.85953e-18
1.24825e-18
8.96008e-19
1.19598e-18
1.74514e-18
1.05671e-18
9.31417e-19
3.00797e-18
5.79192e-18
1.43278e-17
2.93326e-17
4.19384e-17
2.23495e-17
1.98646e-18
9.76388e-19
4.61772e-19
1.14599e-19
5.27152e-20
9.07827e-20
1.53519e-19
1.15415e-19
6.79313e-20
6.73377e-20
8.00462e-20
9.65098e-20
2.33034e-19
7.07942e-19
2.17217e-18
5.88984e-18
1.36307e-17
2.53099e-17
1.30184e-17
2.37556e-19
1.0893e-19
2.26327e-20
1.5863e-21
8.9518e-22
3.24649e-21
7.67218e-21
9.3978e-21
1.20649e-20
2.17881e-20
4.1971e-20
8.40912e-20
1.72942e-19
3.85428e-19
1.03572e-18
2.49469e-18
6.28559e-18
1.33818e-17
8.86436e-18
2.58592e-20
4.26088e-21
2.2092e-22
1.02526e-22
2.42211e-22
6.68037e-22
1.77369e-21
4.15568e-21
9.28314e-21
2.01872e-20
4.20898e-20
8.3405e-20
1.60791e-19
3.10737e-19
6.3319e-19
1.38516e-18
3.72498e-18
7.54696e-18
4.66802e-18
1.52066e-21
5.77967e-23
2.23198e-23
6.23261e-23
1.90356e-22
5.45107e-22
1.45222e-21
3.70822e-21
8.86619e-21
2.01286e-20
4.2755e-20
8.42775e-20
1.55741e-19
2.73016e-19
4.679e-19
1.0815e-18
2.57087e-18
3.56003e-18
2.69448e-18
1.1054e-23
3.91002e-24
1.48405e-23
5.20889e-23
1.63077e-22
4.81729e-22
1.32287e-21
3.43908e-21
8.41557e-21
1.92758e-20
4.15977e-20
8.16587e-20
1.45373e-19
2.37396e-19
4.15736e-19
8.36019e-19
1.48146e-18
1.97423e-18
1.20183e-18
4.44171e-25
2.7066e-24
1.18068e-23
4.25043e-23
1.39066e-22
4.17256e-22
1.17124e-21
3.09302e-21
7.65822e-21
1.77383e-20
3.84194e-20
7.52268e-20
1.31171e-19
2.16211e-19
3.56791e-19
6.11486e-19
9.29651e-19
8.99204e-19
6.16474e-19
3.70055e-25
2.20431e-24
9.35108e-24
3.45233e-23
1.13705e-22
3.45155e-22
9.72167e-22
2.58515e-21
6.43302e-21
1.50358e-20
3.25768e-20
6.37472e-20
1.10569e-19
1.80087e-19
2.7882e-19
4.21487e-19
4.8841e-19
4.71347e-19
2.44446e-19
3.23189e-25
1.73455e-24
7.2897e-24
2.64248e-23
8.65316e-23
2.62658e-22
7.40828e-22
1.94864e-21
4.86149e-21
1.14057e-20
2.47284e-20
4.82919e-20
8.39868e-20
1.34719e-19
1.96152e-19
2.65178e-19
2.77675e-19
2.03513e-19
1.14093e-19
2.55819e-25
1.26132e-24
5.06753e-24
1.76416e-23
5.77681e-23
1.74665e-22
4.90016e-22
1.28234e-21
3.21954e-21
7.55816e-21
1.64203e-20
3.21519e-20
5.63416e-20
8.91429e-20
1.20479e-19
1.50803e-19
1.30692e-19
9.5391e-20
4.04962e-20
1.84004e-25
7.79376e-25
2.88562e-24
9.63126e-24
3.00907e-23
9.00766e-23
2.57706e-22
6.93838e-22
1.74594e-21
4.20875e-21
9.28756e-21
1.83578e-20
3.21371e-20
5.08891e-20
6.65309e-20
7.9021e-20
6.08361e-20
3.43076e-20
1.98232e-20
9.73469e-26
3.6088e-25
1.23236e-24
3.93314e-24
1.23e-23
3.72795e-23
1.08694e-22
3.03112e-22
7.90349e-22
1.9513e-21
4.42266e-21
8.96777e-21
1.60172e-20
2.56203e-20
3.23883e-20
3.73264e-20
2.16456e-20
1.52862e-20
1.00768e-20
2.85281e-26
9.19533e-26
2.89747e-25
8.69199e-25
2.97261e-24
1.01711e-23
3.26367e-23
9.82827e-23
2.78861e-22
7.33146e-22
1.74656e-21
3.71768e-21
6.87208e-21
1.12327e-20
1.42606e-20
1.55773e-20
9.01494e-21
6.65248e-21
4.55287e-21
)
;

boundaryField
{
    leftWall
    {
        type            alphaContactAngle;
        contactAngleProperties 
        {
            air             
            {
                theta0          90;
            }
            water           
            {
                theta0          90;
            }
            oil             
            {
                theta0          90;
            }
        }
        value           nonuniform List<scalar> 
50
(
1
1
1
1
0.984551
0.277226
1.50425e-07
1.23422e-09
1.30252e-09
4.05516e-10
2.5311e-10
2.71535e-10
4.05079e-10
5.03342e-10
5.05615e-10
5.05117e-10
4.09555e-10
2.21157e-10
1.19483e-10
7.61552e-11
5.20376e-11
4.64618e-11
4.22625e-11
2.61949e-11
1.90015e-11
1.30477e-11
8.86836e-12
5.15469e-12
2.99072e-12
1.57087e-12
7.72111e-13
3.12677e-13
1.29534e-13
4.80655e-14
1.40891e-14
3.2805e-15
7.20411e-16
1.1225e-16
1.02091e-17
6.5368e-19
2.29956e-20
5.25544e-22
9.89057e-24
9.6058e-26
4.14282e-28
3.79901e-31
1.95275e-34
9.79686e-37
-5.6404e-38
-4.86491e-39
)
;
    }
    rightWall
    {
        type            alphaContactAngle;
        contactAngleProperties 
        {
            air             
            {
                theta0          90;
            }
            water           
            {
                theta0          90;
            }
            oil             
            {
                theta0          90;
            }
        }
        value           nonuniform List<scalar> 
50
(
0.705058
0.525458
0.366986
0.140723
0.0581757
0.00594977
0.00658639
0.0108538
0.011021
0.00532277
0.000798419
0.000103473
0.000188423
0.000599776
0.000600156
0.000473838
1.60914e-06
0.0010267
0.0056423
0.00566201
0.00192377
1.96903e-08
1.53219e-07
3.2939e-07
2.20582e-25
1.71777e-09
1.04483e-09
2.84755e-10
9.67563e-11
2.57317e-11
3.8624e-12
5.1354e-13
2.38089e-14
2.70065e-15
1.92204e-16
9.50277e-17
4.7005e-17
2.23495e-17
1.30184e-17
8.86436e-18
4.66802e-18
2.69448e-18
1.20183e-18
6.16474e-19
2.44446e-19
1.14093e-19
4.04962e-20
1.98232e-20
1.00768e-20
4.55287e-21
)
;
    }
    lowerWall
    {
        type            alphaContactAngle;
        contactAngleProperties 
        {
            air             
            {
                theta0          90;
            }
            water           
            {
                theta0          90;
            }
            oil             
            {
                theta0          90;
            }
        }
        value           nonuniform List<scalar> 
62
(
1
1
1
1
1
1
1
1
1
1
1
1
1
1
1
1
1
1
1
0.999969
0.999583
0.999432
0.999433
0.999433
0.999767
1
1
1
1
0.760297
0.0753201
0.093226
0.104614
0.094203
0.062209
0.873219
0.747112
0.155493
0.043755
0.197508
0.282791
0.275623
0.00651864
0.873219
0.876582
0.876551
0.87659
0.870016
0.737615
0.56577
0.56479
0.574362
0.570914
0.603385
0.716027
0.712993
0.707903
0.707903
0.707764
0.706456
0.706291
0.705058
)
;
    }
    atmosphere
    {
        type            inletOutlet;
        inletValue      uniform 0;
        value           nonuniform List<scalar> 
46
(
0
0
0
0
0
0
0
0
0
1.56341e-29
0
0
0
0
0
0
0
0
0
0
0
0
0
0
0
0
0
0
0
0
0
0
0
0
0
0
0
0
0
6.87207e-21
1.12327e-20
1.42606e-20
1.55773e-20
9.01494e-21
6.65248e-21
4.55287e-21
)
;
    }
    defaultFaces
    {
        type            empty;
    }
}


// ************************************************************************* //
