/*--------------------------------*- C++ -*----------------------------------*\
  =========                 |
  \\      /  F ield         | OpenFOAM: The Open Source CFD Toolbox
   \\    /   O peration     | Website:  https://openfoam.org
    \\  /    A nd           | Version:  13
     \\/     M anipulation  |
\*---------------------------------------------------------------------------*/
FoamFile
{
    format      ascii;
    class       volScalarField;
    location    "1.75";
    object      alphas;
}
// * * * * * * * * * * * * * * * * * * * * * * * * * * * * * * * * * * * * * //

dimensions      [];

internalField   nonuniform List<scalar> 
2268
(
2
2
2
2
2
2
2
2
2
2
2
2
2
2
2
2
2
2
2
1.99997
1.99958
1.99943
1.99943
2
2
2
2
2
2
2
2
2
2
2
2
2
2
2
2
2
2
2
2
1.99998
1.99982
1.99977
2
2
2
2
2
2
2
2
2
2
2
2
2
2
2
2
2
2
2
2
2
2
2
2
2
2
2
2
2
2
2
2
2
2
2
2
2
2
2
2
2
2
2
2
2
2
1.9691
1.9442
1.95062
1.98742
2
2
2
2
2
2
2
2
2
2
2
2
2
2
2
2
2
2
2
0.554453
0.566969
0.618035
0.722909
0.916394
1.16402
1.4212
1.65469
1.84618
1.98033
2
2
2
2
2
2
2
2
2
2
2
2
2
3.05884e-07
2.53042e-07
3.86269e-07
5.07713e-07
0.000493982
0.0178504
0.0768624
0.196516
0.380198
0.617724
0.936339
1.24497
1.51286
1.73245
1.84053
1.85262
1.86787
1.89836
1.9007
1.87137
1.81314
1.67869
1.5206
1.44136e-08
1.06793e-08
7.81299e-09
6.18674e-09
5.67302e-09
6.21529e-09
1.53259e-07
3.37874e-07
4.07385e-07
4.51956e-07
0.00123675
0.0280568
0.0909113
0.159279
0.2376
0.393591
0.554138
0.614292
0.623567
0.598205
0.483263
0.290458
0.153847
1.85788
1.86573
1.85863
1.88485
1.94578
1.86001
1.70959
1.68781
1.67647
1.68213
1.80005
1.81024
1.77189
1.63268
1.66558
1.71858
1.7174
1.71724
1.71626
1.74474
1.77064
1.79983
1.67418
1.6892
1.7544
1.83881
1.86964
1.83091
1.78525
1.83165
2.0442
2.00112
1.89731
1.73961
1.75709
1.81123
1.78829
1.54629
1.09503
1.13055
1.26781
1.24789
0.984757
1.15122
1.51119
1.76713
2.08927
2.03734
1.86309
1.91085
2.3193
2.30987
2.25089
2.07007
1.95824
1.76642
1.51418
0.569063
0.615474
0.945129
1.1064
0.813587
0.360997
0.359248
0.701981
2.05395
2.46802
2.24773
2.27816
2.24565
1.9825
1.39646
1.30364
1.30148
1.15094
1.12063
0.435888
0.288739
0.461578
0.990974
0.905144
0.245341
0.0313471
0.0110907
1.1658
2.17405
2.34309
2.3298
2.27283
1.14826
0.319345
0.266732
0.307956
0.356261
0.684984
0.617775
0.413539
0.245124
0.642564
0.964923
0.704394
0.101767
0.0107854
0.252149
1.58468
2.04994
2.06779
1.91366
0.645887
0.0724359
0.068147
0.0792191
0.143302
0.60213
0.62181
0.596741
0.294548
0.374495
0.974874
1.05706
0.503849
0.0280175
0.00136886
0.33831
0.814057
0.929596
0.577305
0.158035
0.00287838
0.0831932
0.116723
0.213763
0.724981
0.239609
0.516836
0.322734
0.237825
0.972191
1.41371
0.918353
0.0957661
0.000181167
0.000192371
0.0169103
0.0338288
0.0265185
0.00143229
0.000585265
0.000266167
0.288444
0.405345
0.942057
2.42979e-08
1.81219e-08
1.31404e-08
1.20308e-08
1.24153e-08
1.29072e-08
1.52397e-08
1.46145e-08
1.17502e-08
9.70453e-09
2.21063e-08
6.8471e-08
1.31938e-07
1.18356e-07
5.73581e-08
1.85231e-08
3.95178e-07
1.30715e-05
0.000212879
0.00115903
0.00324871
0.00714688
0.0145616
1.00207e-08
1.09666e-08
1.17699e-08
1.24395e-08
1.39011e-08
1.85816e-08
2.6604e-08
2.95512e-08
2.83928e-08
2.85304e-08
2.99537e-08
3.10263e-08
3.10597e-08
3.74274e-08
3.58843e-08
5.12839e-08
7.9787e-07
1.74171e-06
2.04082e-06
1.54874e-06
0.00256209
0.0175889
0.0553058
5.27501e-09
9.30508e-09
0.000431281
1.31529e-08
7.28391e-09
8.60471e-09
8.37741e-09
6.93433e-09
5.13528e-09
4.27861e-09
3.14438e-09
2.85602e-09
2.45758e-09
5.61221e-08
1.78588e-07
3.64807e-07
0.00143992
0.0161392
0.0914962
0.197853
0.307914
0.478735
0.646138
0.456792
0.179571
0.104734
0.0562582
0.0309483
0.0141119
0.0343795
0.0608071
0.063972
0.060331
0.0717375
0.108826
0.15902
0.198681
0.223559
0.272346
0.370107
0.552756
0.797175
0.980971
1.17122
1.23176
1.14213
1.03356
0.947842
0.826609
0.786495
0.75252
0.846397
0.892139
0.894601
0.910505
0.940111
0.978287
1.02699
1.09066
1.16262
1.20747
1.19631
1.24448
1.29506
1.2837
1.22189
1.08231
1.00188
1.00068
1.36113
1.03343
1.02481
1.02441
1.05193
1.21652
1.23166
1.15701
1.11507
1.13317
1.16524
1.16109
1.13533
1.07746
1.02524
1.00894
1.00666
1.00993
1.02416
1.05396
1.09497
1.14977
1.19136
1.26867
1.08426
1.06659
1.03617
1.03617
1.03718
1.03778
1.0376
1.03803
1.05203
1.07459
1.11245
1.16786
1.25009
1.36305
1.49518
1.64328
1.85145
2.04926
2.23718
2.41197
2.5523
2.63051
1.83472
1.9535
1.98699
1.99498
2.05847
2.0965
2.14611
2.2187
2.30471
2.38529
2.46751
2.55654
2.65336
2.75365
2.84905
2.93158
3
3
3
3
3
3
3
2.86913
2.7928
2.83729
2.95655
2.99561
2.99816
2.99964
3
3
3
3
3
3
3
3
3
3
3
3
3
3
3
3
3
3
2.97827
2.98974
2.99997
3
3
3
3
3
2.99997
2.99996
2.99999
3
3
3
3
3
3
3
3
3
3
3
2.99999
2.99706
2.99678
2.99995
3
3
3
3
2.99996
2.99968
2.99965
2.99987
2.99999
3
3
2.99999
3
3
3
3
3
3
3
2.99995
3
2.99945
2.99999
3
3
3
3
2.99972
2.99965
2.99965
2.99977
2.99999
2.99999
2.99999
2.99999
3
3
3
3
3
3
3
3
3
3
3
3
3
3
3
2.99973
2.99965
2.99965
2.99988
2.99999
2.99999
2.99999
2.99999
3
3
3
3
3
3
3
3
3
3
3
3
3
3
3
3
2.99985
2.99984
3
2.99999
2.99999
3
3
3
3
3
3
3
3
3
3
3
3
3
3
3
3
3
3
3
3
3
3
3
3
3
3
3
3
3
3
3
3
3
3
3
3
3
3
3
3
3
3
3
3
3
3
3
3
3
3
3
3
3
3
3
3
3
3
3
3
3
3
3
3
3
3
3
3
3
3
3
3
3
3
3
3
3
3
3
3
3
3
3
3
3
3
3
3
3
3
3
3
3
3
3
3
3
3
3
3
3
3
3
3
3
3
3
3
3
3
3
3
3
3
3
3
3
3
3
3
3
3
3
3
3
3
3
3
3
3
3
3
3
3
3
3
3
3
3
3
3
3
3
3
3
3
3
3
3
3
3
3
3
3
3
3
3
3
3
3
3
3
3
3
3
3
3
3
3
3
3
3
3
3
3
3
3
3
3
3
3
3
3
3
3
3
3
3
3
3
3
3
3
3
3
3
3
3
3
3
3
3
3
3
3
3
3
3
3
3
3
3
3
3
3
3
3
3
3
3
3
3
3
3
3
3
3
3
3
3
3
3
3
3
3
3
3
3
3
3
3
3
3
3
3
3
3
3
3
3
3
3
3
3
3
3
3
3
3
3
3
3
3
3
3
3
3
3
3
3
3
3
3
3
3
3
3
3
3
3
3
3
3
3
3
3
3
3
3
3
3
3
3
3
3
3
3
3
3
3
3
3
3
3
3
3
3
3
3
3
3
3
3
3
3
3
3
3
3
3
3
3
3
3
3
3
3
3
3
3
3
3
3
3
3
3
3
3
3
3
3
3
3
3
3
3
3
3
3
3
3
3
3
3
3
3
3
3
3
3
3
3
3
3
3
3
3
3
3
3
3
3
3
3
3
3
3
3
3
3
3
3
3
3
3
3
3
3
3
3
3
3
3
3
3
3
3
3
3
3
3
3
3
3
3
3
3
3
3
3
3
3
3
3
3
3
3
3
3
3
3
3
3
3
3
3
3
3
3
3
3
3
3
3
3
3
3
3
3
3
3
3
3
3
3
3
3
3
3
3
3
3
3
3
3
3
3
3
3
3
3
3
3
3
3
3
3
3
3
3
3
3
3
3
3
3
3
3
3
3
3
3
3
3
3
3
3
3
3
3
3
3
3
3
3
3
3
3
3
3
3
3
3
3
3
3
3
3
3
3
3
3
3
3
3
3
3
3
3
3
3
3
3
3
3
3
3
3
3
3
3
3
3
3
3
3
3
3
3
3
3
3
3
3
3
3
3
3
3
3
3
3
3
3
3
3
3
3
3
3
3
3
3
3
3
3
3
3
3
3
3
3
3
3
3
3
3
3
3
3
3
3
3
3
3
3
3
3
3
3
3
3
3
3
3
3
3
3
3
3
3
3
3
3
3
3
3
3
3
3
3
3
3
3
3
3
3
3
3
3
3
3
3
3
3
3
3
3
3
3
3
3
3
3
3
3
3
3
3
3
3
3
3
3
3
3
3
3
3
3
3
3
0.209969
0.243868
0.220878
0.156644
0.0672711
0.122196
0.173083
0.213778
0.746845
0.851525
0.938005
1.25317
1.01908
1.00379
1.00443
1.22829
1.00041
1
1
1
1.2128
1.19964
1.16468
1.11617
2.64428
2.61666
2.54645
2.42352
3
3
3
3
3
3
3
3
3
3
3
3
3
3
3
3
3
3
3
3
3
3
3
3
3
3
3
3
3
3
3
3
3
3
3
3
3
3
3
3
3
3
3
3
3
3
3
3
3
3
3
3
3
3
3
3
3
3
3
3
3
3
3
3
3
3
3
3
3
3
3
3
3
3
3
3
3
3
3
3
3
3
3
3
3
3
3
3
3
3
3
3
3
3
3
3
3
3
3
3
3
3
3
3
3
3
3
3
3
3
3
3
3
3
3
3
3
3
3
3
3
3
3
3
3
3
3
3
3
3
3
3
3
3
3
3
3
3
3
3
0.219796
0.430485
0.274085
0.339383
0.76026
1.43263
1.19123
0.201929
0.000200005
0.000186781
0.000291414
0.000275335
0.000152112
0.000211309
0.000270092
0.000338246
0.434922
0.921302
1.10473
0.903916
1.15241
0.625796
0.573952
0.864731
1.24881
1.2385
0.681256
0.0589582
0.000266882
0.000238345
0.000239296
0.00145462
0.00231908
0.0115538
0.3288
0.926772
1.00082
1.00601
1.38329
1.148
1.2474
1.07792
1.18864
1.01284
1.0732
1.15802
0.519892
0.294636
0.0833965
0.052054
0.105444
0.468175
0.823854
0.978299
1.00127
1.00011
0.986455
1.10437
1
1.00005
1.08889
1.0329
1.00007
1.00013
1.08279
1.13325
0.760597
0.70651
0.671929
0.907889
0.996249
1.00001
1.00067
1.00122
1
0.993817
1
1
1
0.999999
0.999988
0.999952
0.999951
1.00028
1.11635
1.26253
1.17394
1.0077
0.999948
1.00016
1.00015
1.00018
1.00077
1.0003
1.00455
1.03969
1
1
1
0.999997
0.999988
0.999981
0.999986
1.0024
1.01819
1.00774
1.00104
1.00003
1.00016
1.00016
1
1.00001
1.00172
1.05985
2.16706
1.62047
1.16436
1
1
0.999998
0.999994
0.999989
0.999991
0.999998
1
1.00001
1.00003
1.00002
1.00003
1
1
1.0048
1.06001
2.99907
2.93724
2.60464
2.00302
1.40551
1.07521
0.999998
0.999995
0.999995
0.999998
1
1
1.00001
1
1
1
1
1.00853
1.0599
3
3
3
2.99422
2.85703
2.50517
1.88079
1.26431
1.00997
0.999999
1
1
1
1
1
1
1
1.00631
1.04878
3
3
3
3
3
2.99999
2.98982
2.81531
2.25302
1.37094
1.00312
1
1
1
1
1
1.00002
1.00144
1.00195
3
3
3
3
3
3
3
2.99999
2.99999
2.93304
2.43627
1.49432
1.04665
1.00271
0.999995
0.999969
0.99993
0.996821
0.9864
3
3
3
3
3
3
3
3
3
2.99999
2.99999
2.9897
2.6773
1.83369
1.24952
1.09775
1.07484
1.21733
1.65347
3
3
3
3
3
3
2.99999
3
2.99974
3
3
3
2.99999
2.99999
2.87439
2.54553
2.47907
2.76317
2.95939
3
3
3
3
3
3
2.99981
2.99831
2.99798
2.99892
3
3
3
2.99997
2.99984
2.99932
2.99907
3
3
3
3
3
3
3
3
2.9998
2.9981
2.99797
2.99823
2.99996
2.99995
2.9986
2.99644
2.99687
2.99794
2.99935
2.99995
2.99999
3
3
3
3
3
3
2.99989
2.99971
2.99909
2.99958
2.99999
3
2.99705
2.99589
2.99589
2.99745
2.99922
2.99997
2.99999
3
3
3
3
3
3
3
3
3
3
3
3
2.99926
2.99873
2.99957
3
3
2.99998
3
3
3
3
3
3
3
3
3
3
3
3
2.99996
3
3
3
3
3
3
3
3
3
3
3
3
3
3
3
3
3
3
2.99999
3
3
3
3
3
3
3
3
3
3
3
3
3
3
3
3
3
3
3
3
3
3
3
3
3
3
3
3
3
3
3
3
3
3
3
3
3
3
3
3
3
3
3
3
3
3
3
3
3
3
3
3
3
3
3
3
3
3
3
3
3
3
3
3
3
3
3
3
3
3
3
3
3
3
3
3
3
3
3
3
3
3
3
3
3
3
3
3
3
3
3
3
3
3
3
3
3
3
3
3
3
3
3
3
3
3
3
3
3
3
3
3
3
3
3
3
3
3
3
3
3
3
3
3
3
3
3
3
3
3
3
3
3
3
3
3
3
3
3
3
3
3
3
3
3
3
3
3
3
3
3
3
3
3
3
3
3
3
3
3
3
3
3
3
3
3
3
3
3
3
3
3
3
3
3
3
3
3
3
3
3
3
3
3
3
3
3
3
3
3
3
3
3
3
3
3
3
3
3
3
3
3
3
3
3
3
3
3
3
3
3
3
3
3
3
3
3
3
3
3
3
3
3
3
3
3
3
3
3
3
3
3
3
3
3
3
3
3
3
3
3
3
3
3
3
3
3
3
3
3
3
3
3
3
3
3
3
3
3
3
3
3
3
3
3
3
3
3
3
3
3
3
3
3
3
3
3
3
3
3
3
3
3
3
3
3
3
3
3
3
3
3
3
3
3
3
3
3
3
3
3
3
3
3
3
3
3
3
3
3
3
3
3
3
3
3
3
3
3
3
3
3
3
3
3
3
3
3
3
3
3
3
3
3
3
3
3
3
3
3
3
3
3
3
3
3
3
3
3
3
3
3
3
3
3
3
3
3
3
3
3
3
3
3
3
3
3
3
3
3
3
3
3
3
3
3
3
3
3
3
3
3
3
3
3
3
3
3
3
3
3
3
3
3
3
3
3
3
3
3
3
3
3
3
3
3
3
3
3
3
3
3
3
3
3
3
3
3
3
3
3
3
3
3
3
3
3
3
3
3
3
3
3
3
3
3
3
3
3
3
3
3
3
3
)
;

boundaryField
{
    leftWall
    {
        type            calculated;
        value           nonuniform List<scalar> 
50
(
2
2
2
2
1.9691
0.554453
3.05884e-07
1.44136e-08
2.42979e-08
1.00207e-08
5.27501e-09
0.456792
1.03356
1.36113
1.26867
1.83472
2.86913
3
3
3
3
3
3
3
3
3
3
3
3
3
3
3
3
3
3
3
3
3
3
3
3
3
3
3
3
3
3
3
3
3
)
;
    }
    rightWall
    {
        type            calculated;
        value           nonuniform List<scalar> 
50
(
1.71626
1.54629
1.51418
1.12063
0.684984
0.60213
0.724981
0.942057
1.10473
1.00601
0.986455
0.993817
1.00455
1.05985
1.06001
1.0599
1.04878
1.00195
0.9864
1.65347
2.95939
3
2.99999
2.99999
3
3
3
3
3
3
3
3
3
3
3
3
3
3
3
3
3
3
3
3
3
3
3
3
3
3
)
;
    }
    lowerWall
    {
        type            calculated;
        value           nonuniform List<scalar> 
62
(
2
2
2
2
2
2
2
2
2
2
2
2
2
2
2
2
2
2
2
1.99997
1.99958
1.99943
1.99943
1.99943
1.99977
2
2
2
2
1.5206
0.153847
0.209969
0.243868
0.220878
0.156644
1.85788
1.74474
1.09503
0.569063
0.435888
0.617775
0.62181
0.239609
1.85788
1.86573
1.85863
1.88485
1.94578
1.86001
1.70959
1.68781
1.67647
1.68213
1.80005
1.81024
1.77189
1.63268
1.66558
1.71858
1.7174
1.71724
1.71626
)
;
    }
    atmosphere
    {
        type            calculated;
        value           nonuniform List<scalar> 
46
(
3
3
3
3
3
3
3
3
3
3
3
3
3
3
3
3
3
3
3
3
3
3
3
3
3
3
3
3
3
3
3
3
3
3
3
3
3
3
3
3
3
3
3
3
3
3
)
;
    }
    defaultFaces
    {
        type            empty;
    }
}


// ************************************************************************* //
