/*--------------------------------*- C++ -*----------------------------------*\
  =========                 |
  \\      /  F ield         | OpenFOAM: The Open Source CFD Toolbox
   \\    /   O peration     | Website:  https://openfoam.org
    \\  /    A nd           | Version:  13
     \\/     M anipulation  |
\*---------------------------------------------------------------------------*/
FoamFile
{
    format      ascii;
    class       volScalarField;
    location    "1.75";
    object      alpha.air;
}
// * * * * * * * * * * * * * * * * * * * * * * * * * * * * * * * * * * * * * //

dimensions      [];

internalField   nonuniform List<scalar> 
2268
(
1.59056e-13
2.52988e-13
3.39328e-13
2.67927e-13
2.16112e-13
1.62702e-13
1.06255e-13
6.18333e-14
3.23425e-14
1.73517e-14
1.02677e-14
6.05894e-15
3.25781e-15
1.56027e-15
1.03025e-15
1.16926e-15
2.1095e-15
4.0949e-15
8.92309e-15
2.21925e-14
4.95973e-14
1.55894e-13
2.53777e-13
7.34346e-13
1.74778e-12
1.85681e-12
1.56533e-12
1.3728e-12
1.08829e-12
7.85871e-13
4.94292e-13
2.68483e-13
1.40923e-13
8.14231e-14
4.97478e-14
2.99048e-14
1.62787e-14
1.06783e-14
1.1992e-14
2.32287e-14
3.10751e-14
4.27286e-14
9.53404e-14
3.61743e-13
1.38866e-12
1.04228e-11
2.34965e-12
5.00957e-12
4.67213e-12
3.9187e-12
3.39244e-12
2.91789e-12
2.23735e-12
1.39346e-12
8.00819e-13
4.40933e-13
2.6826e-13
1.80542e-13
1.30858e-13
9.00365e-14
7.24118e-14
1.12061e-13
2.75263e-13
4.53707e-13
5.12922e-13
1.56522e-12
4.74251e-13
9.63479e-13
1.02448e-10
9.7673e-12
1.89444e-11
2.14928e-11
1.86701e-11
1.40405e-11
1.00659e-11
7.28059e-12
4.77735e-12
2.96626e-12
1.79928e-12
1.11813e-12
7.09995e-13
4.8451e-13
4.24603e-13
8.12424e-13
4.60334e-12
2.79969e-11
8.24058e-11
1.286e-10
3.15768e-10
1.10509e-09
5.97884e-09
4.73891e-09
6.18167e-11
8.34357e-11
8.79781e-11
7.79469e-11
5.95553e-11
4.27499e-11
2.89274e-11
2.08442e-11
1.40182e-11
8.83433e-12
5.48102e-12
3.80313e-12
3.35011e-12
3.68891e-12
9.1337e-12
5.56292e-11
3.09365e-10
8.62552e-10
1.39338e-09
2.69262e-09
7.45167e-09
3.53601e-08
1.04834e-08
3.01246e-10
2.77227e-10
2.54641e-10
2.36381e-10
2.15807e-10
1.91088e-10
1.56806e-10
1.19079e-10
8.47916e-11
5.07809e-11
3.18596e-11
2.34651e-11
2.28348e-11
3.27156e-11
6.84699e-11
1.94343e-10
1.14032e-09
4.03761e-09
1.29153e-08
2.3963e-08
2.20894e-08
6.57876e-08
1.07424e-08
1.13471e-09
7.118e-10
4.77212e-10
4.10336e-10
4.18174e-10
4.84236e-10
4.83618e-10
4.13428e-10
3.38941e-10
2.58802e-10
1.76544e-10
1.15786e-10
8.01654e-11
6.99676e-11
7.3379e-11
1.14944e-10
3.08045e-10
4.15821e-09
4.51904e-09
1.2788e-08
1.09367e-08
1.10456e-08
1.08883e-08
2.25158e-09
1.45091e-09
8.50199e-10
5.869e-10
5.72093e-10
8.97262e-10
1.15744e-09
1.05495e-09
8.27953e-10
5.97264e-10
4.43336e-10
3.19384e-10
2.36863e-10
2.16583e-10
2.30506e-10
3.60315e-10
2.22449e-09
3.54684e-07
1.0822e-05
5.2214e-05
0.000188554
0.000377803
0.00103403
0.000327924
0.000327982
0.0175194
0.0339439
0.0589818
0.0740618
0.0738768
0.0623255
0.0518836
0.0560596
0.110183
0.108226
0.0910545
0.0239955
0.0151472
0.0149134
0.0149112
0.0149118
0.01504
0.000327982
0.000327894
0.000329721
0.000328192
0.000619772
0.0095454
0.0193579
0.0213537
0.019464
0.0189957
0.050108
0.176424
0.190208
0.168357
0.104106
0.100114
0.106156
0.102453
0.0198529
0.00976435
0.0130151
0.00656961
0.00616095
0.00338473
0.000686487
1.91342e-05
0.046217
0.147573
0.112516
0.0700105
0.147461
0.443073
0.487557
0.485489
0.420151
0.388927
0.288725
0.0869811
0.0233925
0.0260141
0.0291737
0.0164299
0.0130683
0.002142
5.17001e-05
0.0331156
0.380652
0.523357
0.476365
0.529078
0.509513
0.4212
0.256118
0.267187
0.317143
0.220034
0.10678
0.013598
0.0178838
0.0306525
0.0327139
0.0112738
0.00146463
1.9134e-05
0.000406072
0.364442
0.560396
0.560887
0.560774
0.560296
0.240476
0.00237808
0.00610177
0.0120204
0.00720374
0.0164505
0.0155626
0.00899372
0.017681
0.0273874
0.0140616
0.0047826
0.00036463
2.0672e-07
0.0836349
0.475968
0.561175
0.560906
0.54172
0.141733
1.10507e-08
6.51699e-05
-1.9616e-13
0.00136863
0.0600246
0.0191247
0.0154971
0.00670072
0.0185572
0.0433763
0.0615149
0.0240259
0.000149409
0.000277026
0.0939384
0.206265
0.229621
0.113499
0.0178749
0.000949005
3.32999e-06
9.72021e-09
0.022554
0.117828
0.0578323
0.053112
0.00646883
0.0297413
0.15715
0.17143
0.0878445
0.00127964
2.57235e-06
2.4919e-05
-3.61156e-19
-7.52203e-19
-3.31856e-20
-3.0737e-07
0.000143179
3.06133e-05
1.57325e-14
0.0421099
0.117595
4.486e-09
2.54017e-09
1.02789e-09
9.16547e-10
1.17652e-09
1.6019e-09
3.17717e-09
3.35139e-09
2.83477e-09
2.26859e-09
1.70676e-09
1.05237e-09
7.8537e-10
5.90113e-10
4.67905e-10
2.16838e-09
1.26786e-07
4.31394e-06
7.06206e-05
0.000385643
0.00107672
0.0023613
0.00481243
1.02947e-09
1.05131e-09
9.80877e-10
9.50039e-10
9.82539e-10
2.24997e-09
5.63444e-09
7.78885e-09
7.94604e-09
8.41181e-09
9.20846e-09
9.7817e-09
1.00265e-08
9.13507e-09
9.71273e-09
1.18215e-08
2.37706e-07
5.79634e-07
6.80272e-07
3.46247e-07
0.000852674
0.00586332
0.0184334
1.05882e-09
2.28398e-09
0.000143759
3.35018e-09
1.17836e-09
1.25275e-09
8.54923e-10
8.48068e-10
6.85397e-10
7.1198e-10
5.67462e-10
6.03493e-10
5.32539e-10
1.82893e-08
5.43219e-08
1.05352e-07
0.000479974
0.00537972
0.0304987
0.0637805
0.0831685
0.103457
0.0912937
0.150605
0.0445335
0.0185216
0.00573369
0.00545699
0.00470396
0.0114598
0.020269
0.021324
0.0201103
0.0239125
0.0362755
0.0529935
0.0651919
0.0675941
0.071447
0.0870969
0.126906
0.169027
0.167957
0.166357
0.130118
0.071064
0.220794
0.0679196
0.00706061
0.00611567
0.0284514
0.139116
0.198441
0.199807
0.195267
0.200441
0.206271
0.210415
0.213972
0.213954
0.19907
0.160441
0.155112
0.152883
0.141852
0.110947
0.0411543
0.000941703
0.000341251
0.211807
0.0173266
0.0142976
0.0141658
0.0259657
0.108715
0.118897
0.0812362
0.0589097
0.0673928
0.0829071
0.080547
0.0676627
0.038728
0.0126217
0.00446775
0.00332853
0.00496659
0.012081
0.0269806
0.047485
0.0748859
0.0956822
0.148798
0.0428485
0.0332935
0.0180839
0.0180837
0.0185886
0.0188917
0.0187977
0.0190171
0.0260171
0.0372931
0.0562228
0.0839309
0.125046
0.181525
0.247591
0.321639
0.425724
0.524629
0.61859
0.705985
0.776151
0.815253
0.418164
0.477019
0.493496
0.497488
0.529237
0.548249
0.573056
0.609352
0.652354
0.692646
0.733754
0.778272
0.826682
0.876825
0.924525
0.96579
1
1
1
1
1
1
1
0.934564
0.896402
0.918654
0.978284
0.997804
0.99908
0.999822
1
1
1
1
0.999999
0.999999
1
1
1
1
1
1
1
1
1
1
0.999999
0.999999
0.989138
0.99488
0.999988
0.999998
1
1
1
0.999999
0.999985
0.999981
0.999995
0.999999
1
1
1
1
0.999999
0.999999
1
1
1
0.999999
0.999993
0.998529
0.998398
0.999977
0.999999
1
1
1
0.99998
0.99984
0.999825
0.999936
0.999998
0.999999
0.999998
0.999998
0.999999
0.999999
0.999999
0.999999
1
1
0.999999
0.999976
0.999999
0.999724
0.999998
1
1
1
1
0.999862
0.999826
0.999825
0.999889
0.999996
0.999998
0.999997
0.999997
0.999999
0.999999
1
1
1
1
0.999999
0.999999
0.999999
1
1
1
1
1
0.999999
0.999866
0.999827
0.999826
0.99994
0.999997
0.999997
0.999997
0.999998
1
1
1
1
1
1
0.999999
0.999999
0.999999
1
1
1
1
1
0.999999
0.999999
0.999926
0.99992
0.999998
0.999997
0.999997
0.999999
1
1
1
1
1
1
1
1
0.999999
1
1
1
1
1
1
0.999999
1
1
1
1
0.999998
1
1
1
1
1
1
1
1
1
1
1
1
1
1
1
1
1
1
1
1
1
0.999999
0.999998
1
1
1
1
1
1
1
1
1
1
1
1
1
1
1
1
1
1
1
1
1
0.999999
0.999998
1
1
1
1
1
1
1
1
1
1
1
1
1
1
1
1
1
1
1
1
1
1
1
1
1
1
1
1
1
1
1
1
1
1
1
1
1
1
1
1
1
1
1
1
1
1
1
1
1
1
1
1
1
1
1
1
1
1
1
1
1
1
1
1
1
1
1
1
1
1
1
1
1
1
1
1
1
1
1
1
1
1
1
1
1
1
1
1
1
1
1
1
1
1
1
1
1
1
1
1
1
1
1
1
1
1
1
1
1
1
1
1
1
1
1
1
1
1
1
1
1
1
1
1
1
1
1
1
1
1
1
1
1
1
1
1
1
1
1
1
1
1
1
1
1
1
1
1
1
1
1
1
1
1
1
1
1
1
1
1
1
1
1
1
1
1
1
1
1
1
1
1
1
1
1
1
1
1
1
1
1
1
1
1
1
1
1
1
1
1
1
1
1
1
1
1
1
1
1
1
1
1
1
1
1
1
1
1
1
1
1
1
1
1
1
1
1
1
1
1
1
1
1
1
1
1
1
1
1
1
1
1
1
1
1
1
1
1
1
1
1
1
1
1
1
1
1
1
1
1
1
1
1
1
1
1
1
1
1
1
1
1
1
1
1
1
1
1
1
1
1
1
1
1
1
1
1
1
1
1
1
1
1
1
1
1
1
1
1
1
1
1
1
1
1
1
1
1
1
1
1
1
1
1
1
1
1
1
1
1
1
1
1
1
1
1
1
1
1
1
1
1
1
1
1
1
1
1
1
1
1
1
1
1
1
1
1
1
1
1
1
1
1
1
1
1
1
1
1
1
1
1
1
1
1
1
1
1
1
1
1
1
1
1
1
1
1
1
1
1
1
1
1
1
1
1
1
1
1
1
1
1
1
1
1
1
1
1
1
1
1
1
1
1
1
1
1
1
1
1
1
1
1
1
1
1
1
1
1
1
1
1
1
1
1
1
1
1
1
1
1
1
1
1
1
1
1
1
1
1
1
1
1
1
1
1
1
1
1
1
1
1
1
1
1
1
1
1
1
1
1
1
1
1
1
1
1
1
1
1
1
1
1
1
1
1
1
1
1
1
1
1
1
1
1
1
1
1
1
1
1
1
1
1
1
1
1
1
1
1
1
1
1
1
1
1
1
1
1
1
1
1
1
1
1
1
1
1
1
1
1
1
1
1
1
1
1
1
1
1
1
1
1
1
1
1
1
1
1
1
1
1
1
1
1
1
1
1
1
1
1
1
1
1
1
1
1
1
1
1
1
1
1
1
1
1
1
1
1
1
1
1
1
1
1
1
1
1
1
1
1
1
1
1
1
1
1
1
1
1
1
1
1
1
0.00738597
0.00861664
0.00753159
0.0083871
0.0171968
0.0146784
0.0227366
0.0504059
0.0582116
0.0104638
0.0255561
0.183021
0.00953975
0.00189372
0.00221407
0.114143
0.000203442
1.00611e-06
4.84603e-07
4.88715e-07
0.106401
0.099819
0.0823391
0.058086
0.822141
0.808331
0.773223
0.711761
1
1
1
1
1
1
1
1
1
1
1
1
1
1
1
1
1
1
1
1
1
1
1
1
1
1
1
1
1
1
1
1
1
1
1
1
1
1
1
1
1
1
1
1
1
1
1
1
1
1
1
1
1
1
1
1
1
1
1
1
1
1
1
1
1
1
1
1
1
1
1
1
1
1
1
1
1
1
1
1
1
1
1
1
1
1
1
1
1
1
1
1
1
1
1
1
1
1
1
1
1
1
1
1
1
1
1
1
1
1
1
1
1
1
1
1
1
1
1
1
1
1
1
1
1
1
1
1
1
1
1
1
1
1
1
1
1
1
1
1
0.0571395
0.107185
0.0538505
0.100646
0.189251
0.193186
0.126873
0.0109729
1.91553e-06
1.60687e-07
1.43263e-08
-1.03076e-25
-1.23061e-21
4.12623e-05
8.1832e-05
2.77815e-05
1.09466e-08
0.0226362
0.0691037
0.174627
0.157283
0.155697
0.190023
0.193113
0.126536
0.0974845
0.111004
0.0177224
7.93952e-05
5.11864e-05
5.16946e-05
0.000471447
0.000766487
0.000406128
0.000248091
4.43959e-05
0.000110323
0.010456
0.191836
0.0739986
0.163003
0.192534
0.149883
0.0065334
0.0352826
0.147731
0.146931
0.0982104
0.0277963
0.0172912
0.00859247
7.61747e-05
4.31564e-05
0.000370568
0.000465892
2.70031e-05
1.98785e-05
0.0521862
2.01893e-07
2.06536e-05
0.0441625
0.0161663
1.51926e-06
6.67291e-05
0.0412324
0.169482
0.169358
0.155704
0.0358163
1.93365e-05
3.42372e-05
3.46637e-05
0.000321817
0.000487951
2.11993e-05
1.84204e-05
7.53587e-08
3.46207e-09
-1.37556e-27
-1.65662e-20
-8.28638e-20
1.1392e-06
7.20896e-06
0.000145901
0.0586985
0.14277
0.0963973
0.0038521
1.84812e-05
8.20376e-05
7.96e-05
8.86685e-05
0.000381538
0.000180693
0.00427561
0.0198475
1.02812e-07
8.36093e-08
2.49683e-11
3.8085e-08
1.02148e-06
1.10467e-06
3.35391e-06
0.00120831
0.00908079
0.00382776
0.000516728
1.84742e-05
7.89201e-05
8.04244e-05
1.95349e-06
2.90158e-06
0.00086147
0.029741
0.583532
0.310235
0.0821808
4.1885e-07
6.69179e-08
1.06549e-11
-4.72884e-19
1.83271e-22
-4.33764e-23
1.36612e-22
-5.60861e-11
1.86999e-06
1.7715e-05
1.14379e-05
1.63382e-05
1.64789e-06
1.16563e-07
0.00238435
0.02983
0.999536
0.968618
0.802322
0.501511
0.202756
0.0376062
1.06549e-11
0
-3.38261e-17
-1.10493e-23
1.55584e-07
1.60551e-06
4.23201e-06
8.91801e-07
1.00045e-06
1.02164e-06
3.24525e-07
0.00425419
0.0298302
0.999999
1
0.999999
0.997112
0.928514
0.752585
0.440393
0.132157
0.00498807
8.8641e-08
5.13783e-07
5.41779e-07
7.38693e-07
8.90912e-07
8.95292e-07
3.31532e-07
1.01792e-07
0.00315311
0.024393
1
1
1
0.999999
0.999998
0.999997
0.994911
0.907655
0.626511
0.18547
0.00155826
1.86463e-06
1.17855e-06
9.14734e-07
3.81808e-07
2.85041e-09
6.6425e-06
0.000631906
0.000993547
1
1
1
1
1
0.999999
1
0.999997
0.999995
0.966521
0.718136
0.247159
0.0233254
0.00135714
1.49639e-12
-6.81611e-13
-1.27102e-12
-6.67773e-16
1.03219e-07
1
1
1
1
1
1
1
1
1
0.999997
0.999995
0.994849
0.838648
0.416847
0.124762
0.049033
0.0380683
0.114245
0.333762
1
1
1
1
0.999999
1
0.999997
1
0.999871
0.999999
0.999999
0.999999
0.999997
0.999995
0.937194
0.772777
0.740631
0.886465
0.985181
1
1
1
1
0.999999
1
0.999907
0.999154
0.998989
0.999462
0.999999
1
0.999999
0.999985
0.999933
0.999721
0.99964
1
1
1
1
1
1
1
1
0.999902
0.999049
0.998986
0.999117
0.999981
0.999976
0.999302
0.998216
0.99843
0.998968
0.999674
0.999975
0.999997
1
1
1
1
1
1
0.999946
0.999854
0.999544
0.999788
0.999996
0.999999
0.998524
0.997944
0.997943
0.998723
0.999609
0.999982
0.999994
1
1
1
1
1
1
1
1
1
1
1
0.999999
0.999631
0.999364
0.999786
1
1
0.999992
0.999998
1
1
1
1
1
1
1
1
1
1
0.999999
0.999979
0.999999
1
1
1
1
1
1
1
1
1
1
1
1
1
1
1
1
0.999999
0.999996
1
1
1
1
1
1
0.999999
1
1
1
1
1
1
1
1
1
1
1
1
1
1
1
1
1
0.999999
0.999999
1
1
1
1
1
1
1
1
1
1
1
1
1
1
1
1
1
0.999999
0.999999
1
1
1
1
1
1
1
1
1
1
1
1
1
1
1
1
1
1
1
1
1
1
1
1
1
1
1
1
1
1
1
1
1
1
1
1
1
1
1
1
1
1
1
1
1
1
1
1
1
1
1
1
1
1
1
1
1
1
1
1
1
1
1
1
1
1
1
1
1
1
1
1
1
1
1
1
1
1
1
1
1
1
1
1
1
1
1
1
1
1
1
1
1
1
1
1
1
1
1
1
1
1
1
1
1
1
1
1
1
1
1
1
1
1
1
1
1
1
1
1
1
1
1
1
1
1
1
1
1
1
1
1
1
1
1
1
1
1
1
1
1
1
1
1
1
1
1
1
1
1
1
1
1
1
1
1
1
1
1
1
1
1
1
1
1
1
1
1
1
1
1
1
1
1
1
1
1
1
1
1
1
1
1
1
1
1
1
1
1
1
1
1
1
1
1
1
1
1
1
1
1
1
1
1
1
1
1
1
1
1
1
1
1
1
1
1
1
1
1
1
1
1
1
1
1
1
1
1
1
1
1
1
1
1
1
1
1
1
1
1
1
1
1
1
1
1
1
1
1
1
1
1
1
1
1
1
1
1
1
1
1
1
1
1
1
1
1
1
1
1
1
1
1
1
1
1
1
1
1
1
1
1
1
1
1
1
1
1
1
1
1
1
1
1
1
1
1
1
1
1
1
1
1
1
1
1
1
1
1
1
1
1
1
1
1
1
1
1
1
1
1
1
1
1
1
1
1
1
1
1
1
1
1
1
1
1
1
1
1
1
1
1
1
1
1
1
1
1
1
1
1
1
1
1
1
1
1
1
1
1
1
1
1
1
1
1
1
1
1
1
1
1
1
1
1
1
1
1
1
1
1
1
1
1
1
1
1
1
1
1
1
1
1
1
1
1
1
1
1
)
;

boundaryField
{
    leftWall
    {
        type            alphaContactAngle;
        contactAngleProperties 
        {
            mercury         
            {
                theta0          90;
            }
            water           
            {
                theta0          90;
            }
            oil             
            {
                theta0          90;
            }
        }
        value           nonuniform List<scalar> 
50
(
1.59056e-13
7.34346e-13
2.34965e-12
9.7673e-12
6.18167e-11
3.01246e-10
1.13471e-09
2.25158e-09
4.486e-09
1.02947e-09
1.05882e-09
0.150605
0.220794
0.211807
0.148798
0.418164
0.934564
0.999999
0.999999
0.999999
0.999999
0.999999
1
1
1
1
1
1
1
1
1
1
1
1
1
1
1
1
1
1
1
1
1
1
1
1
1
1
1
1
)
;
    }
    rightWall
    {
        type            alphaContactAngle;
        contactAngleProperties 
        {
            mercury         
            {
                theta0          90;
            }
            water           
            {
                theta0          90;
            }
            oil             
            {
                theta0          90;
            }
        }
        value           nonuniform List<scalar> 
50
(
0.01504
0.0198529
0.0869811
0.10678
0.0164505
0.0600246
0.117828
0.117595
0.0691037
0.010456
1.98785e-05
1.84204e-05
0.00427561
0.029741
0.02983
0.0298302
0.024393
0.000993547
1.03219e-07
0.333762
0.985181
1
0.999997
0.999994
0.999998
1
0.999999
0.999999
0.999999
1
1
1
1
1
1
1
1
1
1
1
1
1
1
1
1
1
1
1
1
1
)
;
    }
    lowerWall
    {
        type            alphaContactAngle;
        contactAngleProperties 
        {
            mercury         
            {
                theta0          90;
            }
            water           
            {
                theta0          90;
            }
            oil             
            {
                theta0          90;
            }
        }
        value           nonuniform List<scalar> 
62
(
1.59056e-13
2.52988e-13
3.39328e-13
2.67927e-13
2.16112e-13
1.62702e-13
1.06255e-13
6.18333e-14
3.23425e-14
1.73517e-14
1.02677e-14
6.05894e-15
3.25781e-15
1.56027e-15
1.03025e-15
1.16926e-15
2.1095e-15
4.0949e-15
8.92309e-15
2.21925e-14
4.95973e-14
1.55894e-13
2.53777e-13
2.53777e-13
1.04228e-11
1.02448e-10
4.73891e-09
1.04834e-08
1.07424e-08
1.08883e-08
0.00103403
0.00738597
0.00861664
0.00753159
0.0083871
0.000327924
0.000327982
0.00976435
0.0233925
0.013598
0.0155626
0.0191247
0.0578323
0.000327924
0.000327982
0.0175194
0.0339439
0.0589818
0.0740618
0.0738768
0.0623255
0.0518836
0.0560596
0.110183
0.108226
0.0910545
0.0239955
0.0151472
0.0149134
0.0149112
0.0149118
0.01504
)
;
    }
    atmosphere
    {
        type            inletOutlet;
        inletValue      uniform 1;
        value           nonuniform List<scalar> 
46
(
1
1
1
1
1
1
1
1
1
1
1
1
1
1
1
1
1
1
1
1
1
1
1
1
1
1
1
1
1
1
1
1
1
1
1
1
1
1
1
1
1
1
0.999999
1
1
1
)
;
    }
    defaultFaces
    {
        type            empty;
    }
}


// ************************************************************************* //
