/*--------------------------------*- C++ -*----------------------------------*\
  =========                 |
  \\      /  F ield         | OpenFOAM: The Open Source CFD Toolbox
   \\    /   O peration     | Website:  https://openfoam.org
    \\  /    A nd           | Version:  13
     \\/     M anipulation  |
\*---------------------------------------------------------------------------*/
FoamFile
{
    format      ascii;
    class       volScalarField;
    location    "1.75";
    object      epsilon;
}
// * * * * * * * * * * * * * * * * * * * * * * * * * * * * * * * * * * * * * //

dimensions      [0 2 -3 0 0 0 0];

internalField   nonuniform List<scalar> 
2268
(
0.00560365
0.0241976
0.0460619
0.0688341
0.0911697
0.112067
0.130957
0.147726
0.162569
0.175772
0.18751
0.197902
0.207127
0.215276
0.222616
0.229568
0.233893
0.232277
0.220528
0.19395
0.147789
0.082914
0.0243956
0.00846358
0.0172355
0.0280935
0.0390618
0.049578
0.0593402
0.0681591
0.0759191
0.0825507
0.0880469
0.0924732
0.09591
0.0984276
0.100141
0.101343
0.102219
0.102227
0.100553
0.0961374
0.0878194
0.0744639
0.0561579
0.0403277
0.0134471
0.0181657
0.0267916
0.0354126
0.0435476
0.0510422
0.0577953
0.0637206
0.0687428
0.0728352
0.0760427
0.0784403
0.0801273
0.0812613
0.0820834
0.0827453
0.0831209
0.0829039
0.0817035
0.0792175
0.0752671
0.0702151
0.0728643
0.0184931
0.0205073
0.0281424
0.0357997
0.042958
0.0495091
0.055392
0.0605457
0.0649151
0.0684881
0.0713078
0.0734516
0.0750428
0.0762658
0.0773495
0.0784481
0.0796141
0.080783
0.0819564
0.0834914
0.0863608
0.0928866
0.118273
0.024268
0.0235737
0.0305827
0.0377105
0.0443461
0.0503901
0.0557998
0.0605321
0.064561
0.0678999
0.0705924
0.0727176
0.0744157
0.0758911
0.0773618
0.0790005
0.0809642
0.0833531
0.0864945
0.0914228
0.100756
0.121425
0.185046
0.0311828
0.0272048
0.033741
0.0405275
0.0468554
0.0526198
0.0577655
0.0622517
0.0660888
0.0693232
0.0719974
0.0741885
0.0760518
0.0778075
0.0796617
0.0818074
0.0844663
0.0878597
0.0925856
0.100325
0.115754
0.154305
0.289123
0.0362402
0.031234
0.0373942
0.0439278
0.0501141
0.0557993
0.0608515
0.0652096
0.0689402
0.0721397
0.0748444
0.0771249
0.0791471
0.0811555
0.0833452
0.0859164
0.0891341
0.0933034
0.099199
0.108973
0.12926
0.188006
0.465966
0.0422541
0.0358296
0.0412556
0.0473419
0.0532615
0.0588491
0.063954
0.0684582
0.0723785
0.0757807
0.07868
0.0811118
0.0832756
0.0854939
0.0879599
0.0908472
0.0944714
0.0991937
0.105817
0.116628
0.139042
0.211662
0.806382
0.0369772
0.108982
0.16306
0.192708
0.212818
0.224079
0.243217
0.25802
0.253825
0.239104
0.234745
0.243142
0.25786
0.270079
0.264758
0.239415
0.186356
0.108836
0.0129104
0.0512706
0.0837853
0.102363
0.109784
0.113944
0.117776
0.122298
0.126387
0.12792
0.128908
0.133609
0.141743
0.150513
0.152554
0.145889
0.128665
0.100419
0.0648337
0.0300943
0.0946452
0.121313
0.125605
0.11751
0.110212
0.107369
0.107918
0.110025
0.112369
0.115125
0.119355
0.124862
0.129736
0.129587
0.123746
0.111256
0.0921371
0.0692132
0.060634
0.18094
0.180562
0.164816
0.14328
0.121701
0.110974
0.107968
0.108546
0.110618
0.113179
0.116297
0.119791
0.122399
0.121441
0.116696
0.107604
0.0940463
0.0795844
0.107638
0.318778
0.249662
0.1946
0.16587
0.137341
0.118996
0.112224
0.111025
0.112656
0.114396
0.116215
0.118307
0.119645
0.118525
0.114894
0.10843
0.099105
0.0911862
0.143206
0.501994
0.310843
0.22091
0.175958
0.150602
0.128483
0.118282
0.114764
0.115554
0.1167
0.117269
0.118461
0.119215
0.118205
0.115417
0.110902
0.105593
0.103662
0.163814
0.732556
0.355088
0.234231
0.180835
0.158352
0.136895
0.124265
0.118949
0.1184
0.118834
0.118819
0.119555
0.120213
0.119271
0.116969
0.113826
0.112122
0.116038
0.183603
1.022
0.367915
0.231388
0.180619
0.160639
0.142877
0.129474
0.122751
0.121099
0.120862
0.12071
0.121296
0.121872
0.121019
0.11916
0.117081
0.117865
0.126564
0.203816
0.0563309
0.0446675
0.0480218
0.0528526
0.0578235
0.0627148
0.0674367
0.0719414
0.0761907
0.080127
0.0836339
0.0866696
0.0894424
0.0922286
0.0952244
0.0986114
0.102751
0.108014
0.115074
0.125858
0.145496
0.189861
0.322454
0.0830709
0.0593606
0.0596087
0.0625785
0.0660786
0.0696593
0.0732209
0.0767523
0.0802651
0.0837597
0.0872168
0.0906331
0.0940953
0.0977298
0.101595
0.105771
0.110445
0.115845
0.122437
0.131396
0.145122
0.168295
0.211241
0.118981
0.076661
0.0733503
0.074449
0.076546
0.0789294
0.0814647
0.0841393
0.0869599
0.0899345
0.093065
0.09636
0.0998552
0.10361
0.107586
0.111767
0.116202
0.121044
0.126611
0.133566
0.142958
0.156293
0.17542
0.162141
0.0961488
0.088277
0.0874065
0.0881854
0.0894974
0.0911794
0.0932012
0.0955283
0.098148
0.101061
0.104262
0.107738
0.111433
0.115247
0.119147
0.123156
0.127403
0.132148
0.137832
0.145065
0.154568
0.166901
0.205692
0.115695
0.103422
0.100728
0.100283
0.100592
0.101491
0.102954
0.104906
0.107301
0.110113
0.113297
0.116744
0.120281
0.123826
0.127365
0.130957
0.134743
0.138954
0.143963
0.150301
0.15854
0.168918
0.228044
0.131215
0.117468
0.113811
0.112409
0.111765
0.111822
0.112634
0.114174
0.116375
0.119138
0.122282
0.125598
0.128941
0.132234
0.135498
0.138829
0.142361
0.146283
0.150974
0.157065
0.165243
0.175623
0.216069
0.141006
0.129858
0.126602
0.124549
0.122816
0.121812
0.121795
0.122821
0.124806
0.127477
0.130548
0.133772
0.136975
0.140086
0.143175
0.146426
0.149958
0.153788
0.158297
0.164374
0.173055
0.184344
0.200161
0.146469
0.140563
0.139011
0.136759
0.133666
0.131305
0.130331
0.130824
0.132589
0.135235
0.138317
0.141489
0.14453
0.147386
0.150337
0.153785
0.157744
0.161579
0.165727
0.171661
0.180979
0.193126
0.208167
0.153906
0.15105
0.149609
0.148379
0.143856
0.140089
0.138224
0.138333
0.140159
0.142976
0.146076
0.149023
0.151596
0.15381
0.156471
0.160517
0.164581
0.166905
0.169464
0.173285
0.179705
0.188823
0.24388
0.163404
0.159896
0.157202
0.154476
0.152215
0.146939
0.143301
0.142454
0.143756
0.146088
0.148672
0.15117
0.15335
0.155182
0.157913
0.161052
0.16448
0.16702
0.169188
0.172361
0.17715
0.183516
0.250994
0.162414
0.155886
0.156102
0.154511
0.152603
0.148131
0.144055
0.14203
0.141975
0.143148
0.145078
0.147557
0.150183
0.152495
0.154873
0.157974
0.161172
0.164001
0.166868
0.170143
0.174321
0.179357
0.260929
0.163075
0.152824
0.150306
0.149245
0.147785
0.144612
0.141356
0.139369
0.138783
0.139254
0.140588
0.142669
0.1452
0.147802
0.150568
0.153691
0.156826
0.159881
0.162885
0.166186
0.170036
0.174298
0.270784
0.15852
0.145748
0.142355
0.141421
0.140585
0.138777
0.136738
0.135364
0.134848
0.135121
0.136176
0.137987
0.140336
0.142953
0.145781
0.148844
0.151959
0.15497
0.157973
0.16118
0.16475
0.168512
0.276936
0.152038
0.136471
0.133023
0.132557
0.132455
0.131853
0.13101
0.130449
0.130361
0.13079
0.131824
0.133499
0.135685
0.138195
0.140922
0.143812
0.146755
0.149661
0.152566
0.155597
0.158862
0.162196
0.268838
0.143551
0.127174
0.123893
0.123762
0.124269
0.124589
0.124741
0.124961
0.125403
0.12616
0.127332
0.12898
0.131059
0.133438
0.136006
0.138692
0.141423
0.144145
0.146868
0.149657
0.152589
0.155516
0.254589
0.134759
0.11871
0.115527
0.115598
0.116515
0.117475
0.118347
0.119197
0.120129
0.121237
0.122612
0.124318
0.126346
0.128612
0.131025
0.133516
0.136033
0.138537
0.141027
0.143538
0.14612
0.148652
0.239979
0.126661
0.11119
0.108082
0.108237
0.10938
0.110732
0.112069
0.113371
0.114693
0.116108
0.11769
0.11949
0.12151
0.123696
0.125981
0.128308
0.130632
0.132923
0.135176
0.137406
0.139651
0.141815
0.226008
0.119324
0.104495
0.101438
0.101595
0.102824
0.104379
0.105988
0.107587
0.109193
0.110853
0.112617
0.114518
0.116557
0.1187
0.120896
0.123097
0.125267
0.127379
0.129423
0.131405
0.133347
0.135194
0.212488
0.112457
0.0983253
0.0953282
0.0954503
0.096686
0.0983273
0.100085
0.101872
0.103678
0.105525
0.10744
0.109439
0.111518
0.113649
0.115794
0.117914
0.119976
0.121955
0.123841
0.12563
0.127339
0.128931
0.198759
0.105659
0.0923419
0.089461
0.0895626
0.0907818
0.0924551
0.0943009
0.0962123
0.0981637
0.100156
0.102197
0.104289
0.10642
0.108566
0.110695
0.112774
0.114774
0.116673
0.118456
0.120117
0.121666
0.123075
0.184149
0.0985848
0.0862699
0.0836048
0.0837399
0.0849626
0.0866609
0.0885749
0.0905827
0.092649
0.0947605
0.0969105
0.0990897
0.101282
0.103462
0.105603
0.107676
0.109655
0.111518
0.113251
0.114845
0.116301
0.117601
0.168249
0.0910364
0.0799536
0.0776263
0.0778694
0.0791388
0.0808818
0.0828664
0.084963
0.08713
0.0893452
0.0915922
0.0938543
0.096111
0.0983383
0.10051
0.102602
0.104589
0.106453
0.108178
0.109752
0.111174
0.112429
0.151003
0.0829918
0.0733678
0.0714945
0.0719189
0.073282
0.0750974
0.0771588
0.0793468
0.0816077
0.0839161
0.0862502
0.0885887
0.0909092
0.0931878
0.0954004
0.0975242
0.0995386
0.101426
0.103171
0.10476
0.106187
0.107444
0.132869
0.0746409
0.0666135
0.0652683
0.0659248
0.0674166
0.0693253
0.0714696
0.0737484
0.076097
0.0784884
0.0808986
0.0833042
0.0856821
0.0880091
0.0902631
0.0924234
0.0944718
0.0963922
0.0981701
0.0997913
0.101248
0.102534
0.115661
0.0664521
0.0598959
0.059073
0.0599773
0.0616127
0.0636215
0.0658479
0.0682078
0.0706348
0.0730962
0.0755684
0.0780277
0.0804513
0.0828175
0.0851057
0.0872976
0.0893769
0.091329
0.0931407
0.0947976
0.0962904
0.0976152
0.0997267
0.058607
0.0533911
0.0530624
0.054207
0.0559802
0.0580806
0.0603773
0.0627985
0.0652877
0.0678009
0.0703166
0.0728115
0.0752643
0.0776545
0.0799635
0.0821746
0.0842735
0.0862471
0.0880834
0.0897684
0.0912924
0.0926525
0.0852784
0.0512583
0.0472743
0.0474033
0.0487689
0.0506643
0.0528393
0.0551837
0.0576376
0.0601539
0.0626958
0.0652316
0.0677393
0.0701998
0.0725939
0.0749046
0.0771171
0.0792184
0.0811969
0.0830417
0.0847398
0.0862811
0.0876637
0.0729865
0.0447253
0.0417829
0.0422952
0.0438387
0.0458249
0.0480465
0.0504115
0.0528685
0.0553799
0.0579121
0.0604331
0.0629244
0.0653672
0.0677406
0.0700299
0.0722217
0.074304
0.0762665
0.0780993
0.0797906
0.0813306
0.0827172
0.0634133
0.0393344
0.0371568
0.0379393
0.0395974
0.04163
0.0438617
0.046214
0.0486421
0.051114
0.0535987
0.0560737
0.0585132
0.0609019
0.0632236
0.0654653
0.0676114
0.0696504
0.0715736
0.0733716
0.0750337
0.0765507
0.07792
0.0568381
0.0353151
0.0335835
0.0345054
0.0362059
0.0382356
0.0404374
0.0427406
0.0451047
0.0475014
0.0499061
0.0522956
0.0546521
0.0569562
0.0591946
0.0613549
0.0634248
0.0653936
0.0672531
0.0689927
0.0706025
0.0720736
0.0734031
0.0532583
0.0327657
0.0311769
0.0321169
0.0337927
0.0357724
0.0379046
0.0401219
0.0423869
0.0446745
0.0469641
0.0492361
0.051474
0.0536636
0.0557897
0.0578413
0.0598077
0.0616792
0.0634471
0.0651027
0.0666364
0.0680389
0.0693065
0.0525469
0.0317033
0.0300039
0.0308649
0.0324596
0.0343453
0.0363684
0.0384627
0.0405937
0.0427391
0.0448815
0.0470056
0.0490965
0.0511412
0.0531285
0.0550462
0.0568847
0.0586349
0.0602887
0.0618376
0.0632728
0.0645852
0.065769
0.0546059
0.0321592
0.0301425
0.0308433
0.0323015
0.0340449
0.0359142
0.0378448
0.0398051
0.0417757
0.0437418
0.0456906
0.0476094
0.0494863
0.0513106
0.0530728
0.0547628
0.0563719
0.057892
0.0593153
0.0606331
0.0618365
0.0629179
0.0595304
0.0342753
0.03174
0.0321841
0.0334292
0.0349622
0.0366187
0.0383357
0.0400842
0.0418465
0.0436087
0.0453584
0.0470839
0.0487742
0.0504187
0.0520079
0.053533
0.0549853
0.0563568
0.0576395
0.058825
0.0599045
0.0608687
0.0677565
0.0383668
0.0350496
0.0350792
0.0359823
0.0371991
0.038559
0.0399989
0.0414881
0.0430067
0.0445383
0.0460683
0.0475837
0.0490727
0.0505246
0.0519296
0.0532786
0.0545631
0.055775
0.0569065
0.0579493
0.0588941
0.0597303
0.0802379
0.0449695
0.0404465
0.039779
0.0401227
0.0408621
0.0418118
0.0428966
0.0440742
0.0453137
0.0465904
0.0478836
0.0491762
0.0504543
0.0517057
0.05292
0.0540872
0.055198
0.0562442
0.0572181
0.0581118
0.0589157
0.0596178
0.098518
0.0548883
0.0484209
0.0465572
0.0459965
0.0460349
0.0464362
0.0470831
0.0478993
0.0488299
0.049834
0.0508793
0.0519424
0.0530056
0.0540555
0.0550798
0.0560662
0.0570033
0.0578827
0.0586972
0.0594399
0.0601011
0.0606678
0.125673
0.0694293
0.059563
0.0556248
0.0536558
0.0527236
0.0524405
0.0525834
0.0530064
0.0536129
0.0543411
0.0551394
0.0559756
0.0568297
0.0576879
0.0585361
0.0593558
0.0601287
0.0608465
0.0615054
0.0621007
0.0626228
0.0630584
0.167625
0.0906942
0.0743566
0.0669037
0.062912
0.060772
0.0597312
0.0593587
0.0593921
0.0596805
0.0601601
0.060735
0.0613631
0.0620286
0.0627247
0.0634377
0.064133
0.0647689
0.0653406
0.0658566
0.0663206
0.0667155
0.0670311
0.240307
0.122193
0.0925535
0.0795931
0.0731263
0.0697668
0.0680585
0.0672582
0.0669463
0.0669175
0.067251
0.067673
0.0681353
0.0686516
0.0692428
0.069908
0.0705792
0.0711354
0.0715922
0.0720015
0.0724014
0.0727012
0.0729163
0.40472
0.166741
0.110944
0.0914523
0.0830211
0.0789625
0.0769537
0.0759395
0.0753233
0.0748063
0.0753353
0.0757679
0.0761331
0.0765466
0.0770985
0.0778408
0.0786736
0.0792341
0.0796239
0.0800364
0.0807254
0.0810216
0.0811658
0.917613
0.211059
0.121224
0.0988044
0.0905539
0.0869039
0.0851705
0.0842316
0.0833058
0.0815248
0.0832234
0.0839133
0.0842457
0.0845741
0.0850819
0.0859221
0.0870658
0.0876578
0.0880253
0.0887326
0.0918483
0.0923142
0.0924061
1.01895
0.922689
0.919564
1.01162
0.27138
0.29124
0.304298
0.31327
0.193112
0.203692
0.212608
0.219408
0.17732
0.184076
0.190173
0.195094
0.177235
0.182418
0.186822
0.190102
0.183768
0.188541
0.19211
0.194223
0.19301
0.197915
0.201367
0.203063
0.201732
0.207009
0.211963
0.216356
0.196193
0.200751
0.204904
0.20791
0.188615
0.191743
0.194545
0.196783
0.182998
0.185066
0.186857
0.188296
0.177271
0.178987
0.180464
0.18166
0.17114
0.172698
0.174072
0.17522
0.16456
0.166001
0.167313
0.168459
0.157622
0.158935
0.160167
0.161285
0.150496
0.151664
0.152783
0.153833
0.143399
0.144408
0.145392
0.146334
0.136537
0.137388
0.138223
0.139034
0.130064
0.130771
0.131463
0.132134
0.124047
0.124636
0.125203
0.125748
0.118467
0.118972
0.119447
0.11989
0.113239
0.113695
0.114109
0.114485
0.108239
0.108674
0.109061
0.109401
0.10334
0.103776
0.104159
0.104491
0.0984454
0.0988964
0.0992908
0.0996301
0.0935086
0.0939779
0.0943897
0.0947454
0.0885388
0.089024
0.089453
0.0898259
0.083599
0.0840938
0.0845347
0.0849211
0.078794
0.0792899
0.0797353
0.0801283
0.0742543
0.0747418
0.075182
0.075573
0.0701196
0.070589
0.0710146
0.0713943
0.0665277
0.0669694
0.0673706
0.0677294
0.0636088
0.064013
0.0643801
0.0647079
0.0614801
0.0618383
0.0621622
0.0624496
0.0602536
0.0605591
0.0608325
0.0610719
0.0600477
0.0602961
0.0605142
0.0607003
0.0610033
0.0611932
0.0613547
0.0614857
0.0633036
0.0634375
0.0635446
0.0636236
0.0671954
0.0672801
0.0673407
0.0673758
0.0730148
0.073061
0.0730869
0.0730926
0.0812181
0.0812396
0.0812467
0.0812412
0.0924254
0.0924318
0.0924323
0.0924294
0.513234
0.304788
0.213946
0.175365
0.15965
0.148937
0.136303
0.128074
0.125249
0.124611
0.124444
0.124803
0.125105
0.124539
0.123431
0.122669
0.125674
0.139106
0.239647
0.292272
0.240316
0.194719
0.170007
0.158427
0.152363
0.142886
0.134647
0.131542
0.131259
0.13119
0.131115
0.131028
0.130831
0.130474
0.130051
0.132147
0.146017
0.26562
0.224352
0.208169
0.184778
0.167413
0.158288
0.153572
0.147567
0.141239
0.138624
0.138549
0.138496
0.138071
0.137683
0.137483
0.136864
0.135638
0.137218
0.152998
0.27459
0.200047
0.193659
0.180038
0.166916
0.159247
0.155599
0.15207
0.148227
0.146385
0.146052
0.145599
0.14461
0.14346
0.14225
0.140872
0.140276
0.144218
0.163204
0.283089
0.193281
0.188777
0.178676
0.168495
0.16216
0.159416
0.157482
0.15538
0.154065
0.153173
0.151673
0.149573
0.147493
0.145892
0.145116
0.146426
0.153073
0.174983
0.294087
0.195257
0.189303
0.180087
0.171779
0.166653
0.164484
0.163359
0.162108
0.160766
0.159085
0.156669
0.153938
0.151679
0.150525
0.150936
0.15409
0.162843
0.186867
0.304343
0.202885
0.193781
0.183716
0.17628
0.171826
0.16991
0.169113
0.168203
0.166727
0.16452
0.161661
0.158795
0.156814
0.15635
0.157894
0.162466
0.172631
0.197752
0.310515
0.218513
0.201758
0.189199
0.181994
0.177581
0.17556
0.174669
0.173646
0.172097
0.169784
0.166851
0.164136
0.16256
0.162779
0.165234
0.170737
0.181595
0.206506
0.309286
0.210244
0.204641
0.197137
0.190252
0.184457
0.182173
0.180991
0.179249
0.177271
0.174856
0.172019
0.169554
0.168288
0.168975
0.172013
0.177986
0.188825
0.211986
0.298739
0.199038
0.199075
0.199326
0.196787
0.193753
0.192329
0.190164
0.186003
0.183557
0.180834
0.177591
0.174876
0.173435
0.174149
0.177277
0.183147
0.193137
0.212729
0.281874
0.189964
0.191162
0.193145
0.194765
0.198024
0.19985
0.198068
0.195787
0.194327
0.18946
0.185045
0.181074
0.178025
0.17774
0.180082
0.185036
0.193129
0.207651
0.266601
0.183018
0.184151
0.185992
0.188395
0.191845
0.194928
0.195578
0.198026
0.201368
0.201576
0.197793
0.189914
0.182677
0.180156
0.180587
0.184006
0.190078
0.201599
0.259325
0.176568
0.177547
0.178838
0.180791
0.183654
0.186084
0.187028
0.189427
0.194601
0.20111
0.206607
0.200298
0.188412
0.182209
0.180454
0.182834
0.188486
0.199889
0.274311
0.169887
0.170951
0.171964
0.173263
0.175046
0.176639
0.17756
0.179384
0.183151
0.187927
0.192533
0.190971
0.186033
0.182252
0.180373
0.182901
0.190243
0.202945
0.322407
0.162757
0.164044
0.165123
0.166175
0.167352
0.168342
0.168882
0.169963
0.172528
0.175932
0.17826
0.176432
0.172458
0.169827
0.166997
0.164136
0.166761
0.18233
0.376666
0.155272
0.156741
0.158045
0.159191
0.160264
0.161053
0.161326
0.161698
0.163177
0.165427
0.166719
0.165189
0.161682
0.157857
0.153737
0.150668
0.152869
0.172053
0.383996
0.14766
0.149176
0.150641
0.151962
0.153141
0.154003
0.154299
0.154372
0.155159
0.156756
0.158028
0.157292
0.154096
0.149494
0.144506
0.140151
0.139366
0.154579
0.329418
0.140186
0.141597
0.143045
0.144414
0.145662
0.146638
0.147143
0.147373
0.14801
0.149408
0.150835
0.150834
0.148144
0.143231
0.137333
0.131633
0.12812
0.137062
0.273775
0.133084
0.134276
0.135536
0.136758
0.137916
0.138893
0.139567
0.140057
0.140813
0.142081
0.143372
0.143378
0.140815
0.135773
0.129143
0.121981
0.11604
0.118872
0.21906
0.126504
0.127428
0.128396
0.129331
0.130228
0.131029
0.131668
0.132219
0.132915
0.133845
0.134555
0.134
0.131154
0.125968
0.119057
0.111235
0.103765
0.101986
0.17068
0.120487
0.12116
0.121815
0.122407
0.122947
0.12342
0.123799
0.124115
0.124451
0.124756
0.124626
0.123302
0.120074
0.114901
0.108172
0.100462
0.0926854
0.0886668
0.135247
0.114975
0.115455
0.115843
0.116115
0.116293
0.116379
0.116364
0.11625
0.116031
0.115595
0.114616
0.112592
0.109104
0.104158
0.0980136
0.0910813
0.0840909
0.0800134
0.114789
0.109835
0.110201
0.110399
0.110427
0.110304
0.110039
0.109627
0.10905
0.10827
0.107171
0.105526
0.10304
0.0995081
0.0949834
0.0896647
0.083883
0.0782935
0.0755534
0.106591
0.104914
0.105234
0.105329
0.105204
0.104876
0.104353
0.103628
0.102683
0.10147
0.0999072
0.097857
0.0951735
0.0917912
0.0877907
0.0833472
0.0787611
0.0746893
0.0738267
0.106285
0.100071
0.1004
0.100461
0.100268
0.0998321
0.0991584
0.0982417
0.0970663
0.0955976
0.0937867
0.0915699
0.0888894
0.0857688
0.0822942
0.0786326
0.0750812
0.0723462
0.0733704
0.109789
0.09522
0.0955884
0.0956649
0.0954658
0.0950002
0.0942701
0.0932722
0.0919976
0.090428
0.0885426
0.0863266
0.0837758
0.0809463
0.0779362
0.0749097
0.0721763
0.0705225
0.0732325
0.114434
0.090335
0.0907559
0.0908742
0.0907087
0.0902657
0.0895464
0.0885497
0.0872731
0.0857115
0.0838672
0.0817482
0.0793854
0.0768428
0.0742257
0.071703
0.0696083
0.0688204
0.0729889
0.119067
0.0854596
0.0859287
0.0860969
0.0859827
0.0855908
0.0849219
0.0839772
0.0827591
0.081274
0.0795356
0.0775648
0.0754103
0.0731387
0.0708586
0.0687487
0.0671706
0.0670922
0.072498
0.122872
0.0806852
0.0811871
0.0814007
0.0813393
0.0810073
0.080406
0.0795376
0.0784109
0.0770371
0.0754342
0.0736379
0.0716942
0.0696773
0.0676967
0.0659414
0.0647997
0.0653152
0.0717453
0.125551
0.076134
0.0766507
0.0768929
0.0768741
0.0765963
0.0760623
0.0752773
0.0742516
0.0729991
0.071546
0.0699264
0.0681901
0.0664114
0.0647027
0.063261
0.0624961
0.0635073
0.070745
0.12692
0.0719425
0.0724511
0.0727008
0.0727047
0.0724655
0.0719862
0.071274
0.0703415
0.0692082
0.0678985
0.0664476
0.0649065
0.0633477
0.0618852
0.0607214
0.0602801
0.0616959
0.0695306
0.127061
0.0682475
0.0687231
0.0689566
0.0689576
0.0687307
0.0682816
0.0676203
0.0667619
0.0657266
0.0645409
0.0632406
0.0618739
0.0605116
0.0592671
0.0583443
0.0581737
0.0599065
0.068151
0.126237
0.0651779
0.0655955
0.0657851
0.065754
0.0655074
0.0650538
0.0644073
0.0635872
0.0626172
0.0615253
0.0603459
0.0591249
0.0579297
0.0568707
0.0561496
0.0561967
0.0581638
0.0666498
0.124631
0.0628554
0.06319
0.0633069
0.0632096
0.0629034
0.0624006
0.0617209
0.0608905
0.0599386
0.0588963
0.0577976
0.0566854
0.0556222
0.0547127
0.0541527
0.0543661
0.0564935
0.0650893
0.122481
0.0613996
0.0616287
0.0616443
0.0614444
0.0610332
0.0604265
0.0596521
0.0587465
0.0577491
0.0566971
0.0556266
0.0545767
0.0536039
0.0528045
0.0523652
0.0526981
0.0549246
0.0635217
0.11995
0.0609405
0.0610471
0.0609367
0.0605993
0.0600352
0.0592627
0.0583193
0.0572565
0.0561299
0.0549889
0.053875
0.0528253
0.0518895
0.0511555
0.0507967
0.0512089
0.0534844
0.0620098
0.117296
0.0616352
0.0616121
0.0613618
0.0608618
0.0601041
0.0591055
0.0579127
0.0565965
0.0552352
0.0538972
0.0526371
0.0514924
0.0505109
0.0497806
0.0494585
0.0499131
0.0522003
0.0606057
0.114663
0.0636881
0.0635445
0.0631608
0.0624981
0.0615326
0.0602721
0.0587673
0.0571068
0.0553939
0.05372
0.0521609
0.050753
0.0495599
0.0487199
0.0483694
0.0488283
0.0511008
0.0593685
0.112268
0.0673722
0.0671402
0.0666637
0.0658847
0.0647574
0.0632698
0.0614632
0.0594318
0.0572918
0.0551443
0.0530809
0.0510956
0.0492977
0.048091
0.047585
0.0479869
0.0502117
0.05834
0.110213
0.0730498
0.0727887
0.0723037
0.0715236
0.0703818
0.0688393
0.0669104
0.0646689
0.0622086
0.0595926
0.0568713
0.0537959
0.0504391
0.0482815
0.0473414
0.0475299
0.0495732
0.057568
0.108722
0.0811952
0.0809832
0.0806109
0.0800125
0.0791198
0.0778785
0.076271
0.0743259
0.0720739
0.0694743
0.0664127
0.0618854
0.0550006
0.0508672
0.0489582
0.0484358
0.0493243
0.0570874
0.107996
0.0924105
0.0923261
0.0921856
0.0919594
0.0916163
0.091127
0.0904732
0.0896519
0.0886481
0.0873631
0.08556
0.0814616
0.0699878
0.064007
0.0608785
0.0584474
0.0500079
0.056918
0.107882
)
;

boundaryField
{
    leftWall
    {
        type            epsilonWallFunction;
        value           nonuniform List<scalar> 
50
(
0.00560365
0.00846358
0.0134471
0.0184931
0.024268
0.0311828
0.0362402
0.0422541
0.0563309
0.0830709
0.118981
0.162141
0.205692
0.228044
0.216069
0.200161
0.208167
0.24388
0.250994
0.260929
0.270784
0.276936
0.268838
0.254589
0.239979
0.226008
0.212488
0.198759
0.184149
0.168249
0.151003
0.132869
0.115661
0.0997267
0.0852784
0.0729865
0.0634133
0.0568381
0.0532583
0.0525469
0.0546059
0.0595304
0.0677565
0.0802379
0.098518
0.125673
0.167625
0.240307
0.40472
0.917613
)
;
    }
    rightWall
    {
        type            epsilonWallFunction;
        value           nonuniform List<scalar> 
50
(
0.0129104
0.0300943
0.060634
0.107638
0.143206
0.163814
0.183603
0.203816
0.239647
0.26562
0.27459
0.283089
0.294087
0.304343
0.310515
0.309286
0.298739
0.281874
0.266601
0.259325
0.274311
0.322407
0.376666
0.383996
0.329418
0.273775
0.21906
0.17068
0.135247
0.114789
0.106591
0.106285
0.109789
0.114434
0.119067
0.122872
0.125551
0.12692
0.127061
0.126237
0.124631
0.122481
0.11995
0.117296
0.114663
0.112268
0.110213
0.108722
0.107996
0.107882
)
;
    }
    lowerWall
    {
        type            epsilonWallFunction;
        value           nonuniform List<scalar> 
62
(
0.00560365
0.0241976
0.0460619
0.0688341
0.0911697
0.112067
0.130957
0.147726
0.162569
0.175772
0.18751
0.197902
0.207127
0.215276
0.222616
0.229568
0.233893
0.232277
0.220528
0.19395
0.147789
0.082914
0.0243956
0.0243956
0.0403277
0.0728643
0.118273
0.185046
0.289123
0.465966
0.806382
1.01895
0.922689
0.919564
1.01162
0.0369772
0.0512706
0.0946452
0.18094
0.318778
0.501994
0.732556
1.022
0.0369772
0.108982
0.16306
0.192708
0.212818
0.224079
0.243217
0.25802
0.253825
0.239104
0.234745
0.243142
0.25786
0.270079
0.264758
0.239415
0.186356
0.108836
0.0129104
)
;
    }
    atmosphere
    {
        type            inletOutlet;
        inletValue      uniform 0.1;
        value           nonuniform List<scalar> 
46
(
0.917613
0.211059
0.121224
0.0988044
0.0905539
0.0869039
0.0851705
0.0842316
0.0833058
0.0815248
0.0832234
0.0839133
0.0842457
0.0845741
0.0850819
0.0859221
0.0870658
0.0876578
0.0880253
0.0887326
0.1
0.1
0.1
0.1
0.1
0.1
0.1
0.1
0.1
0.1
0.1
0.1
0.1
0.1
0.1
0.1
0.1
0.1
0.1
0.1
0.1
0.1
0.1
0.0500079
0.056918
0.107882
)
;
    }
    defaultFaces
    {
        type            empty;
    }
}


// ************************************************************************* //
