/*--------------------------------*- C++ -*----------------------------------*\
  =========                 |
  \\      /  F ield         | OpenFOAM: The Open Source CFD Toolbox
   \\    /   O peration     | Website:  https://openfoam.org
    \\  /    A nd           | Version:  13
     \\/     M anipulation  |
\*---------------------------------------------------------------------------*/
FoamFile
{
    format      ascii;
    class       volScalarField;
    location    "1.75";
    object      k;
}
// * * * * * * * * * * * * * * * * * * * * * * * * * * * * * * * * * * * * * //

dimensions      [0 2 -2 0 0 0 0];

internalField   nonuniform List<scalar> 
2268
(
0.00120837
0.00319959
0.00491195
0.00641854
0.00773749
0.00887397
0.00984025
0.01066
0.0113622
0.0119727
0.0125074
0.0129781
0.0133977
0.0137754
0.0141361
0.0144733
0.0146962
0.0146654
0.0141969
0.0130507
0.0108871
0.00737308
0.00318713
0.00262817
0.00732205
0.0110504
0.0142911
0.0171023
0.019512
0.0215531
0.0232763
0.0247417
0.0260049
0.027104
0.0280705
0.0289406
0.0297392
0.0304706
0.0310899
0.0315065
0.0314893
0.0306915
0.0286306
0.0245994
0.0177209
0.00741799
0.00358626
0.0098692
0.0146371
0.0187688
0.0223448
0.0254102
0.0280135
0.0302161
0.0320871
0.0336921
0.0350818
0.0362998
0.0373947
0.0384055
0.0393455
0.0401688
0.040777
0.0409123
0.0401819
0.0380227
0.0335439
0.0253508
0.0110359
0.00443691
0.0119669
0.0175048
0.0222727
0.0263884
0.0299154
0.0329162
0.0354609
0.0376263
0.0394867
0.0411007
0.0425209
0.0438066
0.0450107
0.0461499
0.0471857
0.0480241
0.048407
0.0479426
0.0460529
0.0417312
0.033035
0.0152396
0.00531419
0.0138829
0.0200881
0.0253884
0.0299487
0.0338542
0.0371809
0.0400067
0.0424188
0.0445019
0.0463192
0.047929
0.0494007
0.0508004
0.0521437
0.0534053
0.0545019
0.0551896
0.0551053
0.0537008
0.0499207
0.0413217
0.0204892
0.0062681
0.0156918
0.0225371
0.0283245
0.0332854
0.0375358
0.0411581
0.0442356
0.0468704
0.0491599
0.0511691
0.0529598
0.0546113
0.0562012
0.0577463
0.059234
0.0605937
0.061605
0.0619529
0.0611561
0.0582096
0.0503853
0.027494
0.00691622
0.0173548
0.0248727
0.0311315
0.0364907
0.0410952
0.0450161
0.0483358
0.0511807
0.0536674
0.0558601
0.0578214
0.0596389
0.061406
0.0631435
0.064846
0.066458
0.0677895
0.0685789
0.0684365
0.0665254
0.0602798
0.0376891
0.00758392
0.0189332
0.0270627
0.0336888
0.0393461
0.0442471
0.0484816
0.0521179
0.0552626
0.0580188
0.0604446
0.0625909
0.0645634
0.0664936
0.0684126
0.0703066
0.0721467
0.0737803
0.0749842
0.0754684
0.0746535
0.0707788
0.0542714
0.00417239
0.0086017
0.0112534
0.012565
0.0134583
0.0139674
0.014781
0.0154663
0.0153828
0.0147587
0.0144332
0.0146351
0.0151163
0.0155905
0.0154438
0.0145266
0.012389
0.00871816
0.00210733
0.00933142
0.0193001
0.0247094
0.027548
0.0294764
0.0308851
0.0323614
0.0332388
0.0332682
0.0327167
0.032196
0.032569
0.0334256
0.0344119
0.0342192
0.0324524
0.0281748
0.0202811
0.00654269
0.0143408
0.0270918
0.0335673
0.0366902
0.0387736
0.040505
0.0420104
0.0429088
0.0430805
0.042789
0.0424485
0.042832
0.0436151
0.0443895
0.0439803
0.0417776
0.0367774
0.0277636
0.0105193
0.0222326
0.03468
0.0409333
0.0447382
0.0465581
0.0481514
0.0495797
0.0504004
0.0506291
0.0504656
0.0502043
0.0504935
0.0510862
0.0515774
0.0509735
0.0485812
0.0433396
0.0338993
0.0154299
0.0320997
0.0437814
0.0469386
0.0512431
0.0539007
0.055257
0.0564131
0.0569648
0.0572088
0.0570275
0.0567217
0.0568888
0.0572796
0.0575181
0.0567459
0.0542465
0.0489742
0.0393096
0.0186705
0.0430134
0.0541748
0.0552568
0.0569099
0.0609999
0.0623523
0.0630274
0.063031
0.0631338
0.0629293
0.0624884
0.0625504
0.0627755
0.0627754
0.0617798
0.0591318
0.0540211
0.0443195
0.0204538
0.0549902
0.0655701
0.0649081
0.0637006
0.0677083
0.0692429
0.0693047
0.0687835
0.0685077
0.0681844
0.0677262
0.0677213
0.0678497
0.0675632
0.066244
0.0633552
0.0584014
0.0487602
0.0220239
0.0684523
0.0773243
0.074336
0.0710394
0.0738759
0.0756251
0.0751788
0.074125
0.0734869
0.0730183
0.0726003
0.0725499
0.0725313
0.0719312
0.0702778
0.0670973
0.0620306
0.0522491
0.0235111
0.00913927
0.021822
0.0305789
0.0375213
0.0433588
0.0484275
0.0528924
0.0568734
0.0604566
0.0636921
0.0665854
0.0691601
0.0715311
0.0738069
0.0760444
0.078241
0.080407
0.0824395
0.0841531
0.0853827
0.08587
0.0848931
0.0804735
0.011788
0.0270574
0.0363567
0.0434121
0.0492035
0.0541477
0.0584845
0.0623753
0.0659373
0.0692506
0.0723645
0.0753205
0.0781818
0.0810024
0.0837732
0.0864765
0.0890967
0.0915574
0.0937575
0.0956476
0.0971712
0.0981418
0.098524
0.0149753
0.0331048
0.0428763
0.0499981
0.0557181
0.0605365
0.0647497
0.0685461
0.0720518
0.0753553
0.0785182
0.0815883
0.0846091
0.0876139
0.0905543
0.0933963
0.096105
0.0986483
0.100999
0.103173
0.105192
0.1071
0.109127
0.018337
0.0388286
0.0491889
0.0565385
0.0622997
0.0670895
0.0712782
0.0750774
0.0786102
0.0819643
0.0852056
0.088378
0.0915072
0.0945738
0.0975228
0.100333
0.102986
0.105493
0.107886
0.11023
0.112616
0.115172
0.118084
0.021404
0.0436941
0.0547922
0.0624967
0.0684518
0.0733428
0.0776129
0.0815066
0.0851482
0.0886245
0.0919983
0.0953018
0.0985181
0.10158
0.104466
0.107176
0.109731
0.112177
0.11458
0.117047
0.11973
0.122796
0.126312
0.0228878
0.0470117
0.0591495
0.0675011
0.0738731
0.079017
0.0834438
0.0874648
0.0912479
0.094889
0.0984319
0.101855
0.105102
0.10814
0.110959
0.113588
0.116082
0.118498
0.120906
0.123451
0.126369
0.129895
0.134006
0.0221541
0.0477604
0.0618965
0.0714563
0.0785003
0.0839919
0.0886063
0.0927623
0.0966954
0.100521
0.104224
0.107751
0.111049
0.11408
0.116853
0.119434
0.121928
0.124387
0.126807
0.129355
0.132408
0.136352
0.141077
0.0211457
0.0477269
0.0637875
0.0746553
0.0824976
0.088323
0.0931028
0.0974066
0.101519
0.105541
0.109437
0.113107
0.116468
0.119475
0.122159
0.124703
0.127311
0.129971
0.132378
0.134758
0.137759
0.142
0.147112
0.0218146
0.0512631
0.0669488
0.0776286
0.0861754
0.0921834
0.097071
0.101535
0.105876
0.110203
0.114367
0.118174
0.12151
0.124345
0.126754
0.129182
0.132068
0.134744
0.136421
0.138049
0.140078
0.143045
0.146897
0.0240986
0.0543432
0.0711867
0.0810579
0.088824
0.0956676
0.100369
0.104507
0.108724
0.113009
0.117083
0.12074
0.123921
0.126592
0.128822
0.131261
0.133695
0.136056
0.137803
0.139207
0.140894
0.143101
0.145755
0.0247009
0.0558829
0.0720399
0.0828416
0.0905813
0.0971371
0.101881
0.10576
0.109486
0.11321
0.116801
0.120193
0.123388
0.126275
0.128717
0.130968
0.133359
0.135596
0.137461
0.139158
0.140858
0.14277
0.144845
0.0252904
0.0564653
0.0728677
0.0830254
0.0906066
0.0968768
0.101677
0.105563
0.10911
0.112503
0.115738
0.118847
0.121867
0.124732
0.12733
0.129766
0.132165
0.134368
0.136338
0.138098
0.139812
0.141585
0.14334
0.0259235
0.0567944
0.0723088
0.0820879
0.089469
0.0955437
0.100414
0.104422
0.107971
0.111238
0.114295
0.117232
0.120117
0.122911
0.125542
0.128033
0.130423
0.132636
0.134604
0.136384
0.138079
0.139754
0.141321
0.0264004
0.0560635
0.0706267
0.0801849
0.0875109
0.0935186
0.0984677
0.102617
0.106248
0.109523
0.112539
0.115405
0.118202
0.120924
0.123528
0.126
0.12834
0.130506
0.132461
0.134232
0.135883
0.137461
0.13888
0.0259618
0.054604
0.0684753
0.0778415
0.0850947
0.091067
0.0960703
0.100333
0.10406
0.107396
0.110444
0.113305
0.116059
0.118729
0.12129
0.123716
0.125995
0.128101
0.130015
0.131747
0.133334
0.134808
0.136095
0.0250886
0.0527589
0.0661478
0.0752998
0.082449
0.0883685
0.0933858
0.0977132
0.101513
0.104914
0.108015
0.110906
0.113657
0.116301
0.118824
0.121207
0.12343
0.125477
0.127336
0.129009
0.130518
0.131885
0.133047
0.0241472
0.0507986
0.0637593
0.0726823
0.0796925
0.0855262
0.0905138
0.0948546
0.0986931
0.102142
0.105295
0.108227
0.110999
0.113638
0.116141
0.118492
0.120675
0.122674
0.124481
0.126094
0.127524
0.128789
0.129837
0.0232127
0.0488222
0.0613539
0.070023
0.076861
0.0825754
0.0874951
0.0918096
0.0956547
0.0991336
0.102328
0.105303
0.108105
0.110756
0.113257
0.115597
0.117759
0.11973
0.1215
0.123065
0.12443
0.125607
0.126562
0.022282
0.046827
0.0589082
0.0672976
0.0739371
0.0795083
0.0843353
0.0885994
0.0924306
0.0959241
0.0991518
0.102167
0.105005
0.107683
0.1102
0.112548
0.114711
0.116675
0.118431
0.119972
0.121298
0.122416
0.123304
0.0213151
0.0447595
0.056366
0.064457
0.0708841
0.0763016
0.081025
0.0852313
0.0890408
0.0925422
0.0957984
0.0988528
0.101732
0.104447
0.106996
0.109369
0.111554
0.113535
0.115301
0.116845
0.118161
0.119255
0.120108
0.0202639
0.0425581
0.0536708
0.0614565
0.0676704
0.0729372
0.0775601
0.0817128
0.0855029
0.0890128
0.0922975
0.0953922
0.0983162
0.101076
0.103668
0.106082
0.108305
0.110323
0.112122
0.113694
0.11503
0.116132
0.116985
0.0190915
0.0401797
0.0507889
0.0582738
0.0642854
0.0694144
0.0739497
0.0780597
0.0818389
0.0853625
0.0886785
0.0918154
0.0947873
0.097597
0.100239
0.102703
0.104976
0.107044
0.108893
0.110514
0.111895
0.113034
0.11392
0.0177801
0.0376129
0.0477197
0.0549178
0.0607453
0.0657557
0.0702211
0.0742996
0.0780799
0.0816239
0.0849743
0.0881547
0.0911751
0.0940356
0.09673
0.0992477
0.101576
0.103701
0.105611
0.107292
0.108734
0.109931
0.110875
0.0163459
0.0348835
0.0444993
0.0514307
0.0570956
0.0620082
0.066421
0.07048
0.0742704
0.07784
0.0812264
0.084449
0.087515
0.0904232
0.0931669
0.0957357
0.0981179
0.100301
0.102272
0.104019
0.10553
0.106796
0.107812
0.0149108
0.0320506
0.0411982
0.0478879
0.0534122
0.0582458
0.0626199
0.0666687
0.0704721
0.0740694
0.0774895
0.0807491
0.0838538
0.0868016
0.0895861
0.0921979
0.0946263
0.0968599
0.0988869
0.100695
0.102272
0.103609
0.104701
0.0135251
0.0292461
0.0379452
0.0444092
0.0498079
0.0545721
0.0589138
0.062956
0.0667691
0.0703898
0.0738358
0.0771224
0.0802535
0.0832277
0.0860392
0.08868
0.0911407
0.0934115
0.0954816
0.0973398
0.0989737
0.100374
0.101536
0.0122015
0.0266099
0.0348868
0.0411438
0.0464291
0.0511312
0.0554412
0.0594678
0.0632757
0.0668993
0.0703575
0.0736545
0.076794
0.079776
0.0825955
0.0852459
0.0877199
0.0900088
0.0921036
0.093994
0.0956683
0.0971171
0.0983368
0.0110112
0.0242914
0.032182
0.0382481
0.0434272
0.048068
0.0523408
0.0563418
0.060128
0.0637322
0.067171
0.0704492
0.0735716
0.0765376
0.0793406
0.0819768
0.0844403
0.0867241
0.0888206
0.0907209
0.0924143
0.0938918
0.0951497
0.0100325
0.022426
0.0299827
0.0358771
0.0409555
0.0455308
0.0497548
0.0537127
0.0574555
0.0610137
0.0644027
0.0676321
0.0707029
0.073617
0.0763721
0.0789664
0.0813923
0.083644
0.0857161
0.0876009
0.0892888
0.0907714
0.0920446
0.00932758
0.0211146
0.0284125
0.0341638
0.0391493
0.0436535
0.0478134
0.0517061
0.0553783
0.0588596
0.0621674
0.0653115
0.0682979
0.0711275
0.073801
0.0763172
0.0786724
0.0808625
0.0828826
0.084725
0.086381
0.0878427
0.0891062
0.00892946
0.020415
0.0275539
0.0332044
0.0381111
0.0425403
0.0466199
0.0504228
0.053995
0.0573669
0.0605588
0.0635834
0.066449
0.0691608
0.0717199
0.074127
0.0763808
0.0784782
0.0804153
0.0821861
0.0837828
0.0851975
0.0864258
0.00884653
0.0203503
0.027451
0.033057
0.0379064
0.0422598
0.0462435
0.0499318
0.0533739
0.0566039
0.0596462
0.0625177
0.0652299
0.0677906
0.0702045
0.0724731
0.0745966
0.0765736
0.0784007
0.0800733
0.0815846
0.0829268
0.0840943
0.00907312
0.0209257
0.028126
0.0337545
0.0385737
0.0428522
0.0467244
0.050273
0.0535549
0.0566112
0.059472
0.0621592
0.0646883
0.0670697
0.0693103
0.0714142
0.0733826
0.0752148
0.0769086
0.07846
0.0798629
0.0811101
0.0821948
0.00960747
0.0221552
0.0296066
0.0353307
0.040146
0.0443469
0.0480877
0.0514679
0.0545578
0.0574085
0.0600576
0.0625321
0.0648517
0.0670295
0.0690744
0.0709919
0.0727844
0.0744522
0.0759936
0.0774051
0.0786813
0.0798151
0.0807988
0.0104678
0.024091
0.0319573
0.0378472
0.0426737
0.0467803
0.0503578
0.0535324
0.0563935
0.0590048
0.0614122
0.0636479
0.0657349
0.0676888
0.06952
0.0712347
0.072836
0.0743246
0.0756992
0.0769568
0.0780924
0.0790991
0.0799682
0.0117069
0.0268525
0.035306
0.0414133
0.0462367
0.0502046
0.0535652
0.0564829
0.0590703
0.061405
0.0635404
0.0655129
0.0673476
0.0690614
0.0706654
0.072166
0.0735661
0.0748659
0.0760643
0.0771586
0.0781444
0.079015
0.0797607
0.0134105
0.0306465
0.03986
0.0461894
0.0509399
0.054679
0.0577389
0.0603307
0.0625909
0.0646086
0.0664428
0.0681307
0.0696974
0.07116
0.0725294
0.0738112
0.0750064
0.0761137
0.0771315
0.0780578
0.0788892
0.0796191
0.0802376
0.0157565
0.0358258
0.0459294
0.0523776
0.0568867
0.0602412
0.062881
0.0650621
0.0669362
0.0685974
0.0701071
0.0714963
0.0727867
0.0739947
0.0751312
0.0761997
0.0771968
0.0781158
0.0789545
0.0797134
0.0803908
0.0809805
0.0814725
0.0190711
0.0429825
0.0539271
0.0601689
0.0641155
0.0668514
0.0689232
0.0706043
0.0720359
0.0733054
0.0744865
0.0755798
0.0765985
0.0775606
0.0784798
0.0793584
0.0801823
0.0809294
0.0815989
0.0821986
0.0827326
0.0831889
0.0835606
0.0242003
0.0532171
0.0643226
0.0696059
0.0724715
0.0743048
0.0756697
0.0767832
0.0777248
0.0785603
0.0794606
0.0802976
0.0810694
0.0818086
0.0825431
0.0832799
0.083986
0.0845952
0.0851159
0.0855823
0.0860183
0.086363
0.0866263
0.033919
0.0680372
0.0769513
0.0800989
0.0813324
0.0820757
0.0827007
0.0832496
0.0836602
0.0839293
0.0847529
0.0854411
0.0860144
0.086562
0.0871485
0.0878054
0.0884831
0.0889995
0.0894041
0.0898125
0.0903675
0.0906588
0.0908316
0.05547
0.0846011
0.088279
0.0890597
0.0888297
0.0887552
0.0888706
0.0890119
0.0889098
0.0882166
0.0895329
0.0902423
0.0906788
0.0910665
0.0915189
0.0921118
0.0928242
0.093269
0.0935985
0.094134
0.0959731
0.0963009
0.0963895
0.0636511
0.0596916
0.0597116
0.0636186
0.097994
0.0983905
0.100028
0.103027
0.110943
0.112405
0.114165
0.116119
0.12048
0.122076
0.123609
0.124936
0.128938
0.130494
0.131743
0.132578
0.136971
0.138593
0.139678
0.140147
0.144414
0.146185
0.1473
0.147656
0.150445
0.15239
0.154131
0.155575
0.14977
0.151462
0.152929
0.15389
0.147697
0.148834
0.149797
0.150497
0.146188
0.146896
0.147455
0.14784
0.144416
0.144988
0.145426
0.145716
0.142273
0.142793
0.1432
0.143478
0.139749
0.140238
0.140635
0.140926
0.136886
0.137342
0.137727
0.138024
0.133761
0.134177
0.134535
0.134824
0.130473
0.130842
0.131164
0.131427
0.127127
0.127448
0.127724
0.12795
0.123809
0.124086
0.124318
0.124501
0.120575
0.120818
0.121013
0.121157
0.117439
0.117665
0.117837
0.117954
0.114386
0.114612
0.114777
0.114884
0.111375
0.111616
0.111793
0.111907
0.108361
0.10863
0.108831
0.108967
0.105306
0.10561
0.105846
0.106014
0.102196
0.102537
0.10281
0.103015
0.0990441
0.0994187
0.0997264
0.0999682
0.0958921
0.0962934
0.0966305
0.0969038
0.0928064
0.0932252
0.0935833
0.0938803
0.0898703
0.090296
0.0906646
0.0909755
0.0871743
0.0875957
0.0879641
0.0882782
0.084809
0.0852152
0.0855721
0.0858786
0.0828595
0.0832397
0.0835746
0.0838627
0.0814
0.0817449
0.0820483
0.0823085
0.0804957
0.080798
0.0810624
0.081287
0.0802079
0.0804627
0.080683
0.080867
0.0806017
0.0808068
0.080981
0.0811222
0.0817548
0.0819111
0.08204
0.0821397
0.0837662
0.0838773
0.0839651
0.0840282
0.0867639
0.0868358
0.0868893
0.086924
0.090912
0.0909523
0.0909803
0.0909966
0.0964187
0.0964322
0.0964408
0.0964459
0.0838499
0.0913997
0.0866494
0.0821859
0.082924
0.0847482
0.0836814
0.0818947
0.0808395
0.0802971
0.0799079
0.0796889
0.0793
0.0782328
0.076078
0.0723705
0.0666843
0.0560229
0.0259332
0.108872
0.107419
0.100675
0.0953483
0.0939078
0.0948699
0.0936419
0.0913184
0.0899919
0.0895152
0.0890234
0.0883341
0.0872619
0.0855188
0.0826045
0.0777379
0.0701171
0.0573151
0.0274799
0.119057
0.117076
0.111342
0.105982
0.103435
0.103085
0.101971
0.0998357
0.0985187
0.0979642
0.0972119
0.0959485
0.0941381
0.0915723
0.0875689
0.0812399
0.0720261
0.0581312
0.0279087
0.126386
0.124361
0.11951
0.114384
0.111339
0.110266
0.109205
0.107577
0.106346
0.105448
0.10417
0.102203
0.0994907
0.0957923
0.0906171
0.0834764
0.0738625
0.0594213
0.0284364
0.133152
0.130712
0.1261
0.121368
0.118254
0.11685
0.115814
0.11449
0.113197
0.11177
0.109701
0.106841
0.103234
0.0987673
0.0930906
0.085766
0.0759691
0.060979
0.0291038
0.1399
0.136553
0.131832
0.127428
0.124435
0.122836
0.121713
0.120405
0.11882
0.116769
0.113978
0.110457
0.106313
0.101478
0.0956072
0.0881647
0.0780792
0.062446
0.0297226
0.146983
0.142301
0.137055
0.132815
0.129871
0.128093
0.126804
0.125356
0.123445
0.120886
0.117579
0.11362
0.109144
0.104064
0.0980065
0.0903248
0.0797845
0.0634106
0.0300761
0.155865
0.148274
0.142061
0.137863
0.134801
0.132781
0.131217
0.129474
0.127274
0.124383
0.120715
0.116432
0.111669
0.106326
0.0999786
0.091876
0.0806861
0.0634531
0.0299496
0.154379
0.151387
0.147358
0.143329
0.139642
0.13738
0.135498
0.133233
0.130609
0.12739
0.123428
0.118852
0.113746
0.108034
0.101255
0.0925601
0.0805361
0.0622827
0.0292097
0.151022
0.150403
0.149651
0.147514
0.145008
0.143033
0.140584
0.137154
0.134117
0.130489
0.126044
0.120984
0.115353
0.109124
0.101789
0.0924392
0.0796053
0.0604631
0.0281201
0.148136
0.147992
0.148006
0.147676
0.147839
0.147183
0.144848
0.142063
0.139223
0.13449
0.129311
0.123422
0.116783
0.109757
0.101727
0.0917486
0.0783188
0.0587612
0.0272028
0.14588
0.145676
0.145635
0.145666
0.145956
0.145872
0.144573
0.143698
0.142685
0.139808
0.134652
0.127025
0.118574
0.110496
0.101635
0.0911567
0.077372
0.0576123
0.0269596
0.14364
0.143337
0.143039
0.142876
0.142937
0.142614
0.141472
0.14066
0.140511
0.140225
0.138577
0.131486
0.121316
0.111913
0.102441
0.0919778
0.0784443
0.0581485
0.0283563
0.141137
0.140856
0.140413
0.139944
0.139526
0.138854
0.137721
0.136719
0.13612
0.135373
0.133745
0.128853
0.121618
0.113522
0.104589
0.0949292
0.0825368
0.0602757
0.0318129
0.138281
0.138104
0.137682
0.137085
0.13638
0.13543
0.134115
0.132802
0.131765
0.13061
0.128404
0.12388
0.117716
0.111033
0.103082
0.0934217
0.0819722
0.0642503
0.0351957
0.135101
0.135036
0.134724
0.134164
0.133399
0.132336
0.130868
0.129221
0.127739
0.126191
0.123775
0.1197
0.114205
0.107733
0.100099
0.0912532
0.0807648
0.0652099
0.0353688
0.131691
0.13169
0.131481
0.131012
0.130291
0.129241
0.127744
0.125921
0.124127
0.122342
0.120037
0.116469
0.111357
0.10491
0.0972865
0.0883302
0.0774586
0.0622835
0.0321498
0.128171
0.12817
0.127994
0.127572
0.12689
0.125881
0.124446
0.12265
0.120759
0.118889
0.116688
0.11348
0.108639
0.102156
0.0942708
0.0849455
0.073531
0.0580975
0.0285802
0.124663
0.124606
0.124384
0.123929
0.123222
0.122213
0.120835
0.119123
0.117254
0.115306
0.113028
0.109798
0.104963
0.0983832
0.0901772
0.0803382
0.0684299
0.0527777
0.0247584
0.121261
0.121123
0.1208
0.120244
0.119442
0.118359
0.116958
0.115257
0.113338
0.111214
0.108647
0.105114
0.10007
0.0933297
0.0849235
0.0748217
0.062655
0.0470471
0.0210222
0.118016
0.117801
0.117366
0.116678
0.115735
0.114518
0.113002
0.111189
0.109097
0.106674
0.103698
0.0997664
0.0944639
0.0876196
0.0791953
0.0691176
0.057059
0.0418866
0.0179879
0.11493
0.114669
0.114145
0.113337
0.112251
0.110877
0.109196
0.107193
0.10485
0.102083
0.0987022
0.0944131
0.0889277
0.0821074
0.0738761
0.0641245
0.0525433
0.0381263
0.0160635
0.111966
0.111702
0.111132
0.110248
0.109054
0.107547
0.105711
0.103517
0.100932
0.0978717
0.0941864
0.0896755
0.084151
0.0775059
0.0696507
0.0604518
0.0495893
0.0360647
0.0152197
0.109065
0.108841
0.108276
0.10737
0.106126
0.104542
0.102603
0.100282
0.0975311
0.0942909
0.0904506
0.0858804
0.0804634
0.0741149
0.0667408
0.058187
0.0480988
0.0353962
0.015139
0.106168
0.106016
0.105502
0.104627
0.103394
0.1018
0.0998305
0.0974629
0.0946556
0.0913606
0.0875094
0.0830158
0.0778106
0.071819
0.0649429
0.0570061
0.0476095
0.0355616
0.0154451
0.103235
0.103175
0.102741
0.101938
0.100767
0.0992217
0.0972907
0.0949552
0.0921839
0.0889409
0.0851854
0.0808599
0.0759153
0.0702846
0.0638624
0.056452
0.0476139
0.0360608
0.0158724
0.100253
0.100292
0.0999547
0.0992482
0.0981711
0.0967168
0.094875
0.0926303
0.0899595
0.0868409
0.0832439
0.0791308
0.0744587
0.0691625
0.0631301
0.0561489
0.0477504
0.0365728
0.0162991
0.0972464
0.0973773
0.0971388
0.0965371
0.0955695
0.0942287
0.0925048
0.0903851
0.087855
0.084898
0.0814893
0.0776015
0.0731925
0.0681958
0.0624943
0.0558652
0.0478206
0.0369449
0.0166449
0.0942685
0.0944748
0.0943256
0.0938239
0.0929659
0.0917437
0.0901469
0.0881682
0.0857948
0.0830112
0.0797997
0.0761324
0.0719683
0.0672385
0.061822
0.0554896
0.0477415
0.037126
0.016884
0.0913932
0.091654
0.091575
0.0911586
0.0903982
0.0892865
0.0878148
0.0859748
0.0837552
0.0811437
0.0781217
0.0746617
0.0707214
0.0662297
0.0610627
0.0549874
0.0474967
0.0371173
0.0170032
0.088707
0.0889969
0.088965
0.0886117
0.0879303
0.0869122
0.0855492
0.0838332
0.081755
0.0793008
0.076452
0.0731803
0.0694411
0.0651611
0.0602143
0.0543651
0.047102
0.0369408
0.0170118
0.0862997
0.0865925
0.0865823
0.0862666
0.0856383
0.0846888
0.0834105
0.0817957
0.0798349
0.077515
0.0748164
0.0717091
0.0681462
0.064052
0.0592985
0.0536479
0.046587
0.0366299
0.0169326
0.0842577
0.084528
0.0845132
0.0842079
0.0836038
0.0826925
0.0814674
0.0799218
0.0780475
0.0758317
0.0732541
0.0702828
0.0668686
0.0629333
0.0583463
0.0528684
0.0459858
0.0362177
0.0167815
0.0826612
0.0828858
0.0828412
0.0825185
0.0819076
0.0810004
0.0797917
0.0782772
0.0764509
0.0743016
0.0718091
0.0689404
0.0656438
0.0618384
0.0573908
0.0520598
0.0453325
0.0357395
0.01658
0.0815844
0.0817442
0.0816481
0.0812822
0.0806341
0.0796953
0.0784625
0.0769349
0.0751107
0.0729821
0.0705311
0.0677243
0.0645085
0.0608005
0.0564634
0.0512537
0.0446596
0.0352246
0.0163432
0.0811007
0.0811828
0.0810193
0.0805902
0.0798788
0.0788753
0.0775774
0.0759889
0.074114
0.0719508
0.0694859
0.0666879
0.0635047
0.0598535
0.0555944
0.0504795
0.0439959
0.034702
0.0160937
0.081289
0.0812896
0.081053
0.0805517
0.0797626
0.0786714
0.0772756
0.0755821
0.0736014
0.071339
0.068788
0.065921
0.0626944
0.0590395
0.0548159
0.0497652
0.0433686
0.0341963
0.0158448
0.082243
0.0821699
0.0818697
0.0813064
0.0804478
0.0792719
0.077771
0.075951
0.0738242
0.0713987
0.0686708
0.0656104
0.0621975
0.0584288
0.0541715
0.0491429
0.0428048
0.0337336
0.0156165
0.0840785
0.0839535
0.0836196
0.0830329
0.0821515
0.0809421
0.0793864
0.0774805
0.075226
0.0726167
0.0696264
0.0661764
0.0622792
0.0581724
0.0537523
0.0486701
0.0423356
0.0333359
0.0154201
0.0869381
0.0867971
0.0864814
0.0859446
0.085139
0.0840214
0.0825596
0.0807317
0.0785118
0.0758483
0.0726265
0.0685542
0.063558
0.0586845
0.0538651
0.0485591
0.0420223
0.0330298
0.0152786
0.0909944
0.0908807
0.09065
0.0902636
0.0896798
0.0888571
0.0877579
0.0863468
0.0845698
0.0823138
0.0793045
0.0747074
0.067612
0.061446
0.0559466
0.0500259
0.0420722
0.0328483
0.0152158
0.0964433
0.0963982
0.0963132
0.0961719
0.0959569
0.0956498
0.0952323
0.0946842
0.0939695
0.0929944
0.0914798
0.0881992
0.079438
0.0730906
0.0677356
0.0611568
0.0431289
0.0328349
0.015209
)
;

boundaryField
{
    leftWall
    {
        type            kqRWallFunction;
        value           nonuniform List<scalar> 
50
(
0.00120837
0.00262817
0.00358626
0.00443691
0.00531419
0.0062681
0.00691622
0.00758392
0.00913927
0.011788
0.0149753
0.018337
0.021404
0.0228878
0.0221541
0.0211457
0.0218146
0.0240986
0.0247009
0.0252904
0.0259235
0.0264004
0.0259618
0.0250886
0.0241472
0.0232127
0.022282
0.0213151
0.0202639
0.0190915
0.0177801
0.0163459
0.0149108
0.0135251
0.0122015
0.0110112
0.0100325
0.00932758
0.00892946
0.00884653
0.00907312
0.00960747
0.0104678
0.0117069
0.0134105
0.0157565
0.0190711
0.0242003
0.033919
0.05547
)
;
    }
    rightWall
    {
        type            kqRWallFunction;
        value           nonuniform List<scalar> 
50
(
0.00210733
0.00654269
0.0105193
0.0154299
0.0186705
0.0204538
0.0220239
0.0235111
0.0259332
0.0274799
0.0279087
0.0284364
0.0291038
0.0297226
0.0300761
0.0299496
0.0292097
0.0281201
0.0272028
0.0269596
0.0283563
0.0318129
0.0351957
0.0353688
0.0321498
0.0285802
0.0247584
0.0210222
0.0179879
0.0160635
0.0152197
0.015139
0.0154451
0.0158724
0.0162991
0.0166449
0.016884
0.0170032
0.0170118
0.0169326
0.0167815
0.01658
0.0163432
0.0160937
0.0158448
0.0156165
0.0154201
0.0152786
0.0152158
0.015209
)
;
    }
    lowerWall
    {
        type            kqRWallFunction;
        value           nonuniform List<scalar> 
62
(
0.00120837
0.00319959
0.00491195
0.00641854
0.00773749
0.00887397
0.00984025
0.01066
0.0113622
0.0119727
0.0125074
0.0129781
0.0133977
0.0137754
0.0141361
0.0144733
0.0146962
0.0146654
0.0141969
0.0130507
0.0108871
0.00737308
0.00318713
0.00318713
0.00741799
0.0110359
0.0152396
0.0204892
0.027494
0.0376891
0.0542714
0.0636511
0.0596916
0.0597116
0.0636186
0.00417239
0.00933142
0.0143408
0.0222326
0.0320997
0.0430134
0.0549902
0.0684523
0.00417239
0.0086017
0.0112534
0.012565
0.0134583
0.0139674
0.014781
0.0154663
0.0153828
0.0147587
0.0144332
0.0146351
0.0151163
0.0155905
0.0154438
0.0145266
0.012389
0.00871816
0.00210733
)
;
    }
    atmosphere
    {
        type            inletOutlet;
        inletValue      uniform 0.1;
        value           nonuniform List<scalar> 
46
(
0.05547
0.0846011
0.088279
0.0890597
0.0888297
0.0887552
0.0888706
0.0890119
0.0889098
0.0882166
0.0895329
0.0902423
0.0906788
0.0910665
0.0915189
0.0921118
0.0928242
0.093269
0.0935985
0.094134
0.1
0.1
0.1
0.1
0.1
0.1
0.1
0.1
0.1
0.1
0.1
0.1
0.1
0.1
0.1
0.1
0.1
0.1
0.1
0.1
0.1
0.1
0.1
0.0431289
0.0328349
0.015209
)
;
    }
    defaultFaces
    {
        type            empty;
    }
}


// ************************************************************************* //
