/*--------------------------------*- C++ -*----------------------------------*\
  =========                 |
  \\      /  F ield         | OpenFOAM: The Open Source CFD Toolbox
   \\    /   O peration     | Website:  https://openfoam.org
    \\  /    A nd           | Version:  13
     \\/     M anipulation  |
\*---------------------------------------------------------------------------*/
FoamFile
{
    format      ascii;
    class       volScalarField;
    location    "1.75";
    object      nut;
}
// * * * * * * * * * * * * * * * * * * * * * * * * * * * * * * * * * * * * * //

dimensions      [0 2 -1 0 0 0 0];

internalField   nonuniform List<scalar> 
2268
(
2.34514e-05
3.80767e-05
4.71421e-05
5.38655e-05
5.91007e-05
6.32414e-05
6.65467e-05
6.92307e-05
7.14712e-05
7.33969e-05
7.50854e-05
7.65973e-05
7.79945e-05
7.93336e-05
8.07877e-05
8.2123e-05
8.31061e-05
8.33347e-05
8.22556e-05
7.90358e-05
7.21813e-05
5.90082e-05
3.7474e-05
7.34504e-05
0.000279952
0.000391192
0.000470569
0.000530963
0.000577424
0.000613391
0.00064227
0.000667392
0.000691257
0.00071498
0.000739399
0.000765843
0.000794855
0.000824541
0.000851039
0.000873932
0.000887509
0.000881834
0.000840065
0.000731385
0.00050327
0.000122804
8.60786e-05
0.000482562
0.000719705
0.000895282
0.00103189
0.00113849
0.00122204
0.00128956
0.00134796
0.00140267
0.00145662
0.00151186
0.00157066
0.0016336
0.00169737
0.001755
0.00180038
0.00181708
0.00177854
0.00164251
0.00134544
0.000823752
0.000150432
9.58063e-05
0.000628491
0.000979934
0.00124712
0.0014589
0.00162685
0.00176041
0.00186922
0.00196282
0.00204893
0.00213208
0.00221537
0.00230151
0.0023908
0.00247814
0.00255436
0.00260718
0.00261059
0.00252407
0.0022862
0.00181488
0.0010574
0.000176728
0.000104733
0.000735829
0.00118753
0.00153834
0.0018203
0.00204703
0.00222972
0.0023797
0.00250835
0.00262501
0.00273531
0.00284315
0.00295151
0.00306046
0.00316314
0.00324924
0.00330197
0.00328878
0.00315966
0.00283889
0.00222603
0.00126558
0.000204179
0.000113396
0.000814593
0.00135482
0.00178162
0.0021281
0.00240982
0.00263928
0.00282901
0.00299166
0.00313752
0.00327296
0.00340251
0.00352938
0.00365352
0.0037674
0.00386004
0.00391213
0.00388763
0.00373098
0.00335515
0.00263449
0.00148071
0.000235308
0.000118792
0.00086787
0.00148896
0.00198565
0.00239136
0.00272393
0.00299714
0.00322454
0.00341966
0.00359326
0.00375221
0.00390145
0.00404452
0.00418164
0.00430546
0.00440487
0.00445958
0.00443272
0.00426694
0.00386813
0.00308144
0.00173946
0.000274359
0.000122507
0.000900432
0.00159773
0.00215758
0.00261597
0.00299414
0.00330772
0.003571
0.00379748
0.0039978
0.0041792
0.00434691
0.00450503
0.00465443
0.00478884
0.00489692
0.00495878
0.004939
0.00478219
0.0043951
0.00360742
0.00213013
0.000328733
4.23719e-05
6.1102e-05
6.98984e-05
7.37343e-05
7.65972e-05
7.83566e-05
8.08457e-05
8.34379e-05
8.39034e-05
8.19886e-05
7.98672e-05
7.92823e-05
7.97536e-05
8.09972e-05
8.10774e-05
7.93263e-05
7.41266e-05
6.28518e-05
3.09578e-05
0.000152852
0.000400123
0.000536816
0.000622133
0.000686276
0.000728925
0.000770688
0.000786738
0.000778683
0.000747311
0.00069825
0.000673519
0.000668079
0.000698614
0.000722373
0.000736675
0.000711452
0.000570984
0.000128018
0.000195564
0.000544517
0.000807362
0.00103103
0.00122768
0.00137524
0.00147184
0.00150606
0.00148648
0.00143132
0.00135871
0.00132236
0.00131964
0.00136849
0.00140679
0.00141191
0.00132121
0.00100232
0.000164247
0.000245861
0.00059948
0.000914947
0.00125723
0.00160302
0.00188034
0.00204906
0.00210618
0.00208553
0.00202519
0.00195054
0.00191553
0.00191898
0.0019715
0.0020039
0.00197402
0.0017975
0.00129956
0.000199068
0.000290908
0.000690987
0.00101897
0.00142478
0.00190384
0.00230933
0.00255222
0.00263047
0.00261466
0.00255858
0.0024916
0.00246199
0.00246802
0.00251212
0.0025224
0.00244251
0.00217812
0.00152514
0.000219075
0.000331704
0.00084976
0.00124393
0.00165657
0.00222367
0.00272333
0.00302262
0.00311564
0.00310443
0.00305406
0.00299679
0.00297252
0.00297503
0.00300044
0.00297623
0.00283756
0.00248733
0.00170534
0.000229847
0.000371512
0.00108973
0.00161881
0.00201952
0.00260558
0.00315215
0.00347871
0.00357973
0.00356755
0.00352106
0.00347434
0.00345242
0.00344658
0.00344451
0.00337649
0.00317369
0.00273779
0.00184405
0.000237767
0.000412638
0.00146261
0.00214931
0.00251465
0.00305771
0.00360258
0.00392872
0.00402852
0.00401348
0.00397024
0.00392985
0.00390544
0.00388497
0.00384791
0.00373032
0.0034607
0.00293812
0.00194129
0.000244089
0.00013345
0.000959486
0.00175246
0.00239735
0.00292613
0.00336555
0.00373365
0.00404652
0.00431746
0.00455654
0.00477109
0.00496692
0.0051486
0.00531583
0.00546549
0.00558706
0.00566294
0.00566282
0.00553865
0.00521315
0.00456116
0.00341626
0.00180751
0.000150546
0.00110998
0.00199573
0.00271044
0.00329741
0.00378811
0.00420425
0.00456222
0.00487505
0.00515293
0.00540373
0.00563355
0.00584636
0.00604243
0.00621699
0.00636316
0.00646875
0.00651257
0.00646161
0.00626628
0.00585579
0.00515085
0.0041357
0.000169634
0.00128662
0.00225567
0.00302197
0.00365016
0.00417868
0.00463179
0.00502585
0.00537296
0.00568256
0.00596207
0.00621729
0.00645216
0.00666788
0.0068597
0.00702404
0.00715354
0.00723566
0.00725105
0.00717257
0.0069662
0.00660519
0.0061098
0.000186641
0.00141124
0.00246677
0.00329145
0.00396112
0.00452629
0.00501486
0.00544302
0.00582195
0.00616042
0.00646538
0.00674225
0.00699494
0.00722385
0.00742721
0.007604
0.00775082
0.00786164
0.00792701
0.00793402
0.00786834
0.00772352
0.00751904
0.000200455
0.00148516
0.00261256
0.00348984
0.00420518
0.00481277
0.00534176
0.00580745
0.00622007
0.00658791
0.00691773
0.00721485
0.00748236
0.00772087
0.00793203
0.00811685
0.00827513
0.00840514
0.00850332
0.00856465
0.00858397
0.00855993
0.00850072
0.000206743
0.0015159
0.00268055
0.00360313
0.00436932
0.00502781
0.00560408
0.00611278
0.0065633
0.00696327
0.0073192
0.00763561
0.00791561
0.00816253
0.00837956
0.00856984
0.00873558
0.00887721
0.00899388
0.00908506
0.00915046
0.0091898
0.00920252
0.000204435
0.00145593
0.00265525
0.00362981
0.00445292
0.00516968
0.00580073
0.0063585
0.00685143
0.00728655
0.00766903
0.00800415
0.00829667
0.00855112
0.00877255
0.00896664
0.00913762
0.00928594
0.00941028
0.00951338
0.00959926
0.00966897
0.0097168
0.000201051
0.00139966
0.00260521
0.00360841
0.00447888
0.00525254
0.00594138
0.00655198
0.00709001
0.0075609
0.00797038
0.00832434
0.00862853
0.00888878
0.00911254
0.0093096
0.00948545
0.00963794
0.00976088
0.00986178
0.00994977
0.0100275
0.0100856
0.000205742
0.00153672
0.00267059
0.00362516
0.0045044
0.00531644
0.00605364
0.00671262
0.00729313
0.0077985
0.00823344
0.00860406
0.00891695
0.00917925
0.00940112
0.00959876
0.00977949
0.0099284
0.0100353
0.0101212
0.0101911
0.0102477
0.0102853
0.000214314
0.00162656
0.00285236
0.00376161
0.00459666
0.00541147
0.00617031
0.00685942
0.00746819
0.00799542
0.0084453
0.00882503
0.00914251
0.00940523
0.00962454
0.00981965
0.00998862
0.010129
0.0102328
0.0103085
0.0103654
0.0104036
0.0104188
0.000218778
0.00173052
0.00299626
0.00395667
0.00477925
0.00556478
0.00630649
0.00698807
0.00759587
0.0081246
0.00857731
0.00896184
0.00928595
0.00955555
0.00977825
0.00996773
0.0101322
0.0102671
0.0103694
0.0104445
0.0104952
0.0105236
0.0105277
0.000220614
0.00175962
0.00312695
0.0041275
0.00495064
0.00571548
0.00643406
0.007095
0.00768782
0.00820801
0.00865735
0.0090421
0.00936889
0.00964345
0.00987242
0.0100655
0.0102289
0.0103613
0.0104636
0.0105375
0.0105861
0.0106105
0.0106092
0.000223361
0.00183134
0.00322866
0.00426019
0.00509416
0.00584395
0.006539
0.00717691
0.00775091
0.00825851
0.00870101
0.00908315
0.00941051
0.00968839
0.00992266
0.0101201
0.0102854
0.0104192
0.0105223
0.0105971
0.010646
0.0106695
0.0106666
0.000226508
0.00186059
0.00328957
0.00435012
0.00519955
0.00594249
0.00661823
0.00723392
0.00778831
0.00828152
0.00871512
0.00909282
0.00941922
0.00969913
0.00993751
0.0101393
0.010308
0.010445
0.0105514
0.0106292
0.0106801
0.0107049
0.0107025
0.000225644
0.00186933
0.00331826
0.00440168
0.00526574
0.00600623
0.00666714
0.00726308
0.00779901
0.00827767
0.00870164
0.00907412
0.00939894
0.0096803
0.00992222
0.0101284
0.0103015
0.0104431
0.0105543
0.0106365
0.0106911
0.0107189
0.0107189
0.000222513
0.00185899
0.00331733
0.00441718
0.00529254
0.00603193
0.00668128
0.00726092
0.00778078
0.00824628
0.00866111
0.00902855
0.00935198
0.00963485
0.00988033
0.0100912
0.0102695
0.0104167
0.0105337
0.0106214
0.0106811
0.0107133
0.0107172
0.000218676
0.0018336
0.00329051
0.00439892
0.00528083
0.00601869
0.00665884
0.0072256
0.00773239
0.00818689
0.008594
0.00895734
0.00927999
0.00956481
0.00981423
0.0100303
0.0102146
0.0103682
0.0104917
0.010586
0.0106517
0.0106894
0.0106983
0.000214571
0.00179784
0.00324214
0.00435035
0.0052334
0.00596827
0.00660081
0.00715751
0.00765412
0.00810008
0.0085013
0.0088618
0.00918454
0.00947192
0.00972583
0.00994772
0.0101387
0.0102993
0.0104302
0.0105317
0.0106043
0.0106484
0.0106633
0.000210289
0.00175489
0.00317635
0.00427583
0.00515454
0.00588443
0.00651009
0.00705885
0.00754778
0.0079875
0.00838469
0.00874372
0.00906751
0.00935815
0.00961708
0.00984532
0.0100435
0.0102119
0.0103508
0.0104602
0.0105403
0.0105915
0.0106131
0.000205726
0.00170651
0.00309655
0.00417974
0.00504908
0.0057718
0.00639072
0.00693306
0.00741634
0.00785184
0.00824673
0.0086056
0.00893138
0.00922593
0.00949037
0.00972536
0.00993117
0.0101078
0.0102552
0.010373
0.0104614
0.0105203
0.0105492
0.000200687
0.00165347
0.0030051
0.0040658
0.00492162
0.00563524
0.00624734
0.00678441
0.00726372
0.00769674
0.00809087
0.00845078
0.00877939
0.0090784
0.00934871
0.00959071
0.00980438
0.00998948
0.0101456
0.0102724
0.0103694
0.0104367
0.0104736
0.000194971
0.00159602
0.00290364
0.00393714
0.00477639
0.00547964
0.00608506
0.00661786
0.00709468
0.00752678
0.00792151
0.00828352
0.00861567
0.00891955
0.00919591
0.00944495
0.00966648
0.00986007
0.0100251
0.010161
0.0102671
0.0103432
0.0103888
0.00018842
0.0015342
0.0027934
0.00379661
0.00461769
0.00531022
0.00590952
0.00643917
0.00691499
0.0073476
0.00774413
0.00810911
0.00844532
0.00875426
0.00903663
0.00929251
0.00952162
0.00972341
0.00989716
0.0100421
0.0101574
0.0102426
0.0102974
0.000180981
0.00146726
0.00267539
0.00364741
0.0044504
0.00513303
0.00572745
0.00625537
0.00673164
0.00716607
0.00756539
0.00793397
0.00827448
0.00858841
0.00887642
0.00913862
0.0093747
0.00958408
0.00976597
0.0099195
0.0100438
0.0101383
0.0102025
0.000173004
0.00139126
0.00255036
0.00349386
0.00428091
0.00495565
0.00554706
0.00607497
0.00655303
0.00699039
0.00739321
0.00776566
0.00811035
0.00842879
0.00872171
0.00898929
0.00923132
0.00944724
0.00963632
0.00979764
0.00993028
0.0100336
0.0101071
0.000165086
0.0013135
0.0024271
0.00334505
0.00411891
0.00478795
0.00537831
0.00590803
0.00638918
0.00683016
0.00723671
0.00761282
0.00796105
0.00828303
0.00857963
0.0088512
0.00909766
0.00931863
0.00951342
0.0096812
0.00982105
0.00993229
0.0100145
0.000157118
0.00124327
0.00231707
0.00321398
0.00397814
0.00464421
0.00523541
0.00576762
0.00625188
0.0066961
0.00710599
0.00748485
0.00783532
0.00815926
0.00845774
0.00873135
0.00898024
0.00920421
0.00940277
0.00957517
0.00972056
0.00983827
0.00992784
0.000149509
0.0011874
0.00223085
0.00311294
0.00387177
0.00453788
0.0051317
0.00566727
0.00615458
0.00660096
0.00701192
0.00739127
0.00774184
0.00806551
0.00836343
0.00863657
0.00888535
0.00910983
0.0093097
0.00948439
0.00963317
0.00975538
0.00985058
0.00014285
0.00115073
0.00217744
0.00305342
0.00381242
0.00448174
0.00507957
0.00561854
0.00610793
0.00655476
0.0069646
0.00734158
0.00768889
0.0080088
0.00830297
0.00857267
0.00881837
0.00904042
0.00923879
0.00941308
0.00956269
0.00968704
0.00978567
0.000137766
0.00113618
0.00216339
0.00304429
0.00380988
0.00448551
0.00508813
0.00562971
0.00611929
0.00656403
0.00696971
0.00734103
0.00768159
0.00799424
0.00828104
0.00854354
0.00878272
0.00899914
0.009193
0.00936402
0.0095117
0.00963557
0.00973519
0.000134743
0.00114478
0.00219167
0.00308959
0.00386832
0.00455297
0.00516051
0.00570315
0.00619038
0.00662987
0.00702799
0.00739004
0.00772027
0.008022
0.00829789
0.00854984
0.00877918
0.00898674
0.00917293
0.0093377
0.00948071
0.00960149
0.00969962
0.000134042
0.00117566
0.00226038
0.00318643
0.00398405
0.00467982
0.00529198
0.00583388
0.006316
0.006747
0.00713411
0.00748339
0.00779985
0.00808743
0.00834919
0.00858753
0.00880411
0.00900002
0.00917587
0.00933181
0.00946763
0.00958295
0.00967732
0.00013568
0.00122546
0.002362
0.00332465
0.00414574
0.00485442
0.00547096
0.00601044
0.00648489
0.00690437
0.00727731
0.00761074
0.00791045
0.00818107
0.00842618
0.00864847
0.00884998
0.00903205
0.00919546
0.00934054
0.00946723
0.0095752
0.009664
0.000139547
0.00128888
0.00248549
0.00349064
0.00433912
0.00506255
0.00568339
0.00621887
0.00668317
0.0070882
0.00744398
0.00775875
0.00803918
0.00829056
0.00851698
0.00872148
0.0089063
0.009073
0.00922254
0.00935539
0.0094716
0.00957093
0.00965291
0.000145546
0.00136143
0.00262241
0.00367504
0.00455484
0.00529464
0.00591901
0.00644805
0.00689884
0.00728586
0.0076211
0.00791424
0.00817291
0.00840304
0.00860913
0.00879449
0.00896153
0.0091119
0.00924667
0.00936643
0.00947135
0.00956124
0.00963567
0.000153725
0.00144309
0.00277369
0.00388032
0.00479541
0.00555147
0.00617603
0.00669351
0.00712519
0.00748893
0.00779911
0.00806695
0.00830102
0.00850777
0.00869196
0.00885703
0.00900541
0.00913877
0.0092582
0.00936434
0.00945744
0.00953741
0.00960384
0.000164291
0.00154002
0.00295314
0.00412422
0.00507731
0.00584516
0.00646135
0.00695753
0.00736097
0.00769374
0.00797283
0.00821082
0.00841694
0.00859791
0.00875853
0.00890215
0.00903105
0.00914678
0.00925034
0.00934239
0.00942322
0.0094928
0.00955081
0.000177794
0.00166376
0.00318748
0.00443879
0.0054281
0.00619477
0.006786
0.00724518
0.0076074
0.00789929
0.00814027
0.00834349
0.0085182
0.00867099
0.00880639
0.00892741
0.00903604
0.00913351
0.00922064
0.00929806
0.00936611
0.00942476
0.00947375
0.00019528
0.00183336
0.00351995
0.00487008
0.00588078
0.00661851
0.00715767
0.00755824
0.00786342
0.00810368
0.0083002
0.00846476
0.00860551
0.00872836
0.00883729
0.00893472
0.00902231
0.009101
0.00917124
0.00923363
0.00928853
0.00933569
0.00937496
0.00021934
0.00208593
0.00402325
0.00547847
0.00646403
0.00712242
0.00757188
0.00788914
0.00812149
0.00830059
0.00844983
0.00857497
0.0086813
0.00877384
0.00885582
0.00892887
0.00899455
0.00905416
0.00910748
0.00915522
0.00919766
0.0092333
0.00926227
0.000255843
0.00249857
0.00480362
0.00631395
0.00717102
0.00767805
0.00799891
0.0082137
0.0083628
0.00847484
0.0085813
0.00867145
0.00874602
0.00880989
0.00886577
0.00891411
0.00895642
0.00899717
0.0090347
0.00907044
0.00910451
0.00912982
0.00914835
0.000301786
0.00305204
0.00578586
0.00722485
0.00784245
0.00815814
0.00834582
0.00846572
0.00854016
0.00859119
0.00866887
0.00873438
0.00878428
0.00882516
0.00885987
0.00888725
0.00890671
0.00893156
0.0089572
0.00898777
0.00902549
0.00904139
0.00904903
0.000357852
0.000347548
0.000348961
0.000360074
0.00318467
0.00299156
0.00295928
0.00304951
0.00573625
0.00558268
0.0055173
0.00553089
0.00736739
0.00728631
0.00723089
0.00720073
0.00844211
0.00840145
0.00836119
0.00832152
0.00918822
0.00916901
0.00914012
0.00910148
0.00972483
0.00971783
0.00969751
0.00966309
0.0100977
0.0100964
0.0100871
0.0100683
0.0102898
0.0102848
0.0102724
0.0102515
0.010409
0.0103975
0.0103808
0.0103588
0.0105104
0.0104939
0.0104726
0.0104468
0.0105885
0.0105702
0.0105472
0.0105195
0.0106448
0.010626
0.0106023
0.0105737
0.010681
0.0106626
0.0106391
0.0106104
0.010699
0.0106815
0.0106587
0.0106306
0.0106998
0.0106836
0.010662
0.0106348
0.0106841
0.0106696
0.0106495
0.0106235
0.0106528
0.0106404
0.010622
0.0105975
0.010607
0.0105969
0.0105805
0.0105578
0.010548
0.0105406
0.0105266
0.010506
0.0104778
0.0104735
0.0104624
0.0104444
0.010399
0.0103983
0.0103904
0.0103756
0.0103142
0.0103175
0.0103135
0.0103023
0.0102263
0.0102339
0.0102342
0.0102272
0.010138
0.0101502
0.010155
0.0101526
0.0100522
0.0100688
0.0100782
0.0100806
0.00997163
0.00999244
0.0100062
0.010013
0.00989935
0.00992364
0.00994113
0.00995196
0.00983796
0.00986486
0.00988528
0.00989933
0.00978933
0.00981783
0.00984021
0.00985655
0.00975394
0.00978299
0.00980631
0.00982394
0.00973023
0.00975888
0.0097822
0.0098002
0.00971427
0.00974171
0.00976427
0.0097819
0.00969967
0.00972537
0.00974665
0.00976341
0.00967843
0.00970207
0.00972177
0.0097374
0.00964229
0.00966369
0.00968165
0.00969604
0.00958467
0.00960364
0.0096197
0.00963269
0.00950256
0.00951881
0.00953267
0.009544
0.00939811
0.0094112
0.00942243
0.00943168
0.00927917
0.00928869
0.00929685
0.00930355
0.00915866
0.00916436
0.0091692
0.00917312
0.00905261
0.00905451
0.00905608
0.00905732
0.00123291
0.0024668
0.00315841
0.00346653
0.00387646
0.00434012
0.00462376
0.00471297
0.00469587
0.00465679
0.00461794
0.00457945
0.00452392
0.00442298
0.00422022
0.00384265
0.00318453
0.00203062
0.000252571
0.00364997
0.00432137
0.00468468
0.00481284
0.00500977
0.00531643
0.00552323
0.00557393
0.00554097
0.00549425
0.00543691
0.00535607
0.0052303
0.00503103
0.00470681
0.00418211
0.00334836
0.00202477
0.000255866
0.00568618
0.00592605
0.00603826
0.00603827
0.00608314
0.00622755
0.00634176
0.00635126
0.00630148
0.00623413
0.00614108
0.00600088
0.00579285
0.00548935
0.00504257
0.00437925
0.00340261
0.00198781
0.000255292
0.00718642
0.00718742
0.00713985
0.00705471
0.00700595
0.00703261
0.00705805
0.00702671
0.00695322
0.00685188
0.00670769
0.00650094
0.00620977
0.00580566
0.00524611
0.0044708
0.00340465
0.00194713
0.00025708
0.00825557
0.0081456
0.00800957
0.00786796
0.0077612
0.00770846
0.00766536
0.0075924
0.00748533
0.00734027
0.0071409
0.00686854
0.00650307
0.0060178
0.0053745
0.00452121
0.00339326
0.00191253
0.000259218
0.00902134
0.00886522
0.00868569
0.00850752
0.00836206
0.00825595
0.00816149
0.00804876
0.00790363
0.0077138
0.00746276
0.0071332
0.00670632
0.00615712
0.00545043
0.00454004
0.00336933
0.0018781
0.000261249
0.00958361
0.0094047
0.00920206
0.00900603
0.00883438
0.00869105
0.0085572
0.00840812
0.00822585
0.00799426
0.00769663
0.00731671
0.00683691
0.00623377
0.00547505
0.00451953
0.00331865
0.00182998
0.000262182
0.010006
0.00980712
0.00960012
0.00939903
0.00920936
0.00903831
0.0088717
0.00868847
0.00847124
0.00820104
0.00786018
0.00743334
0.00690391
0.00625061
0.0054445
0.00444957
0.00322654
0.00175475
0.000261014
0.0102022
0.0100793
0.00991341
0.00971805
0.00951434
0.00932403
0.00912955
0.00891262
0.00866073
0.00835282
0.00797062
0.00749804
0.00691933
0.00621648
0.00536428
0.00433215
0.00309146
0.00164691
0.000257042
0.010313
0.0102267
0.010112
0.00995201
0.00976742
0.00957348
0.00935382
0.00910205
0.00881943
0.00847446
0.00805126
0.00753303
0.00690504
0.00615408
0.00526011
0.00419909
0.00295299
0.00154666
0.000252476
0.0103966
0.0103114
0.0102075
0.0100775
0.00993347
0.00975561
0.00953354
0.00927722
0.00897698
0.00859216
0.0081328
0.00757139
0.00689483
0.00609989
0.00517186
0.00409435
0.00285843
0.00149654
0.00024981
0.010465
0.0103716
0.0102631
0.0101365
0.00999388
0.00982454
0.00961826
0.00938476
0.00909938
0.00872709
0.00825011
0.00764647
0.0069269
0.00609936
0.00514801
0.00406431
0.00283451
0.00148179
0.000252246
0.0105167
0.0104147
0.0102965
0.0101622
0.0100122
0.0098368
0.00963115
0.00940027
0.00913101
0.0087995
0.00836529
0.00776831
0.0070302
0.0061863
0.0052339
0.00416439
0.00293823
0.0015224
0.000263816
0.0105527
0.0104452
0.0103186
0.0101729
0.0100092
0.00982368
0.00961382
0.00937812
0.00910502
0.00877641
0.00836169
0.00782461
0.00715567
0.006364
0.00545808
0.0044343
0.00322277
0.0016112
0.000282517
0.0105737
0.010464
0.0103321
0.0101779
0.0100027
0.00980572
0.00958541
0.00933891
0.00905701
0.00872666
0.00832427
0.00782827
0.00723153
0.00653336
0.00572665
0.00478558
0.00362645
0.00203768
0.000295982
0.0105796
0.0104703
0.010336
0.0101765
0.00999334
0.00978654
0.00955441
0.00929404
0.00899982
0.00866352
0.00827039
0.00780641
0.00726029
0.00661726
0.0058657
0.00497415
0.00384031
0.00222436
0.000293196
0.0105704
0.0104629
0.0103282
0.0101655
0.00997649
0.0097614
0.00951829
0.00924427
0.00893707
0.00859352
0.00820611
0.0077617
0.00724248
0.00662602
0.00589469
0.00501031
0.00387459
0.00225859
0.000282392
0.0105468
0.0104414
0.0103074
0.0101425
0.00994835
0.00972561
0.00947249
0.00918667
0.00886725
0.00851445
0.00812437
0.00768394
0.00717013
0.00655745
0.00582402
0.00493352
0.00379811
0.00221637
0.000268521
0.0105098
0.010407
0.0102734
0.0101073
0.00990839
0.00967823
0.00941554
0.00911867
0.00878725
0.0084219
0.00801964
0.0075674
0.00704151
0.00641611
0.00566715
0.00476204
0.00363185
0.00210893
0.00025184
0.0104613
0.0103616
0.0102288
0.0100615
0.00985947
0.00962218
0.00935027
0.00904239
0.00869801
0.00831691
0.0078954
0.007421
0.00687183
0.00622333
0.00545183
0.00452955
0.00340491
0.00195329
0.000233032
0.0104036
0.0103082
0.0101772
0.0100096
0.00980517
0.00956325
0.00928311
0.00896488
0.00860739
0.00820917
0.00776559
0.0072651
0.00668845
0.00601344
0.00521825
0.00427975
0.0031614
0.00178087
0.000215315
0.0103397
0.01025
0.0101225
0.00995631
0.00975139
0.00950724
0.00922222
0.00889578
0.00852713
0.00811358
0.00764981
0.00712522
0.00652343
0.00582523
0.00501146
0.00406314
0.0029548
0.00163505
0.000202311
0.0102723
0.0101902
0.0100684
0.00990621
0.00970359
0.00946001
0.00917418
0.00884386
0.00846818
0.0080441
0.00756588
0.007024
0.00640476
0.005692
0.00486936
0.00392091
0.00282678
0.00154936
0.000195585
0.0102042
0.0101313
0.0100176
0.00986229
0.00966526
0.00942589
0.00914295
0.00881436
0.00843708
0.00800913
0.00752443
0.00697452
0.00634802
0.00563124
0.00480988
0.00386885
0.00278775
0.00152737
0.000194072
0.0101372
0.0100752
0.00997154
0.0098258
0.00963755
0.00940607
0.00913006
0.00880749
0.00843506
0.00800975
0.0075266
0.00697772
0.00635318
0.00564096
0.00482729
0.00389542
0.00281977
0.00155126
0.000195553
0.0100731
0.0100227
0.00993069
0.00979649
0.00961957
0.00939901
0.00913342
0.0088207
0.00845764
0.00804069
0.00756534
0.00702409
0.00640774
0.00570458
0.0049
0.0039738
0.00289322
0.00159812
0.000198142
0.0100133
0.00997464
0.00989484
0.00977326
0.0096092
0.00940153
0.00914869
0.00884847
0.00849762
0.00809281
0.00762903
0.00709893
0.00649337
0.00580002
0.00500239
0.00407628
0.00298181
0.00164931
0.000200805
0.00995929
0.00993161
0.00986371
0.00975484
0.00960404
0.00940999
0.00917086
0.00888425
0.00854719
0.00815598
0.00770511
0.00718708
0.00659217
0.00590698
0.00511281
0.00418164
0.00306761
0.00169444
0.000202934
0.00991247
0.00989435
0.00983724
0.00974023
0.00960208
0.00942121
0.00919542
0.00892257
0.00859932
0.00822144
0.00778294
0.00727608
0.00669013
0.0060105
0.00521639
0.00427654
0.00314065
0.00172904
0.000204349
0.00987397
0.00986345
0.00981546
0.00972876
0.00960183
0.00943289
0.00921964
0.00895941
0.00864867
0.0082826
0.00785496
0.00735727
0.006778
0.00610134
0.00530467
0.00435428
0.00319702
0.00175267
0.000205008
0.00984402
0.00983893
0.00979809
0.00971991
0.0096026
0.00944399
0.00924152
0.00899214
0.00869187
0.00833562
0.00791663
0.00742579
0.00685085
0.00617493
0.00537403
0.00441274
0.00323642
0.00176636
0.000204989
0.00982141
0.00981975
0.0097842
0.00971284
0.00960345
0.00945346
0.00925991
0.00901934
0.00872745
0.00837874
0.007966
0.00747969
0.00690696
0.00623009
0.00542414
0.00445268
0.0032606
0.00177191
0.000204412
0.00980304
0.00980325
0.00977157
0.00970569
0.00960293
0.00946024
0.00927416
0.00904073
0.00875523
0.00841184
0.0080031
0.00751918
0.00694681
0.00626779
0.00545661
0.00447635
0.00327219
0.00177128
0.000203366
0.00978369
0.00978485
0.00975628
0.00969532
0.00959878
0.00946299
0.00928379
0.00905657
0.00877611
0.00843629
0.00802956
0.00754603
0.00697239
0.00629029
0.00547402
0.00448663
0.00327389
0.00176616
0.000201995
0.00975644
0.00975827
0.00973287
0.00967724
0.00958768
0.00945978
0.0092884
0.0090679
0.00879227
0.00845501
0.00804861
0.00756352
0.00698684
0.00630065
0.00547942
0.00448639
0.00326817
0.00175797
0.000200409
0.00971371
0.0097164
0.00969483
0.00964584
0.00956533
0.00944806
0.00928755
0.00907649
0.00880741
0.00847304
0.00806584
0.00757697
0.00699479
0.00630273
0.00547608
0.00447844
0.00325717
0.0017478
0.000198732
0.00964888
0.00965264
0.00963569
0.00959506
0.00952658
0.0094243
0.00928012
0.00908429
0.00882672
0.00849826
0.00809051
0.00759534
0.00700348
0.00630185
0.00546784
0.0044656
0.0032428
0.00173655
0.000197056
0.00955834
0.00956292
0.00955085
0.00951975
0.00946599
0.00938349
0.00926279
0.00909122
0.00885479
0.00854059
0.00813657
0.00763355
0.0070252
0.00630654
0.00546027
0.00445135
0.003227
0.00172509
0.000195505
0.00944347
0.00944796
0.00943994
0.00941799
0.00937959
0.00931955
0.00922825
0.00909093
0.00888966
0.00860627
0.00821962
0.00771375
0.00708112
0.00633306
0.00546471
0.00444268
0.00321254
0.00171435
0.000194171
0.009312
0.00931513
0.00930952
0.0092946
0.00926914
0.00922967
0.0091682
0.00907059
0.00891789
0.00868843
0.00834717
0.00786251
0.007208
0.00641962
0.0055159
0.00446496
0.00320593
0.00170559
0.000193239
0.00917786
0.00917891
0.00917454
0.00916452
0.00914843
0.0091245
0.00908773
0.00902807
0.0089309
0.00877735
0.00852289
0.00811673
0.00748035
0.00668025
0.00575394
0.00465015
0.00322977
0.00170109
0.000192941
0.00905869
0.0090585
0.0090563
0.00905196
0.00904528
0.00903574
0.00902175
0.00899991
0.00896494
0.00890899
0.00880282
0.00859447
0.00811479
0.0075117
0.00678286
0.00575927
0.00334765
0.00170476
0.000192973
)
;

boundaryField
{
    leftWall
    {
        type            nutkWallFunction;
        Cmu             0.09;
        kappa           0.41;
        E               9.8;
        value           nonuniform List<scalar> 
50
(
2.63861e-06
7.46025e-06
8.59332e-06
9.46697e-06
1.02852e-05
1.19278e-05
1.39133e-05
1.45266e-05
1.5848e-05
1.78379e-05
1.99276e-05
2.18841e-05
2.35045e-05
2.42437e-05
2.38789e-05
2.34003e-05
2.42952e-05
2.28447e-05
2.32323e-05
2.36072e-05
2.40037e-05
2.42992e-05
2.40257e-05
2.34769e-05
2.28739e-05
2.22621e-05
2.16387e-05
2.09752e-05
2.02341e-05
1.93814e-05
1.83915e-05
1.726e-05
1.60698e-05
1.48569e-05
1.36303e-05
1.24606e-05
1.14435e-05
1.06753e-05
1.02267e-05
1.01318e-05
1.03898e-05
1.09841e-05
1.19025e-05
1.31525e-05
1.47534e-05
1.67786e-05
1.93661e-05
2.29079e-05
2.85964e-05
3.85281e-05
)
;
    }
    rightWall
    {
        type            nutkWallFunction;
        Cmu             0.09;
        kappa           0.41;
        E               9.8;
        value           nonuniform List<scalar> 
50
(
3.43858e-06
1.26891e-05
1.59383e-05
2.00402e-05
2.29872e-05
2.51585e-05
2.59987e-05
2.65877e-05
2.77093e-05
2.87366e-05
2.9185e-05
2.94767e-05
2.97866e-05
3.00509e-05
3.02139e-05
3.01635e-05
2.98489e-05
2.92723e-05
2.85896e-05
2.83719e-05
2.87661e-05
3.13363e-05
3.33545e-05
3.3476e-05
3.15462e-05
2.93157e-05
2.67537e-05
2.40206e-05
2.15895e-05
1.99223e-05
1.91552e-05
1.90805e-05
1.93619e-05
1.97495e-05
2.01306e-05
2.04354e-05
2.0644e-05
2.07473e-05
2.07547e-05
2.06862e-05
2.05547e-05
2.03783e-05
2.01696e-05
1.99477e-05
1.97245e-05
1.95181e-05
1.9339e-05
1.92093e-05
1.91514e-05
1.91452e-05
)
;
    }
    lowerWall
    {
        type            nutkWallFunction;
        Cmu             0.09;
        kappa           0.41;
        E               9.8;
        value           nonuniform List<scalar> 
62
(
2.63861e-06
4.12199e-06
5.01208e-06
5.66168e-06
6.1645e-06
6.56125e-06
6.87723e-06
7.13223e-06
7.34228e-06
7.5192e-06
7.67016e-06
7.80014e-06
7.91386e-06
8.0146e-06
8.10939e-06
8.19681e-06
8.25399e-06
8.24614e-06
8.12524e-06
7.81998e-06
7.20105e-06
6.03069e-06
4.11471e-06
4.11471e-06
1.19609e-05
1.43315e-05
1.66009e-05
1.89982e-05
2.17245e-05
2.54522e-05
3.4037e-05
3.64289e-05
3.51863e-05
3.53618e-05
3.70199e-05
4.67168e-06
1.4737e-05
1.92322e-05
2.52183e-05
2.81241e-05
3.14678e-05
3.52295e-05
4.37221e-05
4.67168e-06
6.49418e-06
7.34409e-06
7.71984e-06
7.95712e-06
8.12455e-06
8.40296e-06
8.58139e-06
8.55845e-06
8.39897e-06
8.28947e-06
8.32362e-06
8.45289e-06
8.59188e-06
8.54384e-06
8.29513e-06
7.71607e-06
6.57563e-06
3.43858e-06
)
;
    }
    atmosphere
    {
        type            calculated;
        value           nonuniform List<scalar> 
46
(
0.000301786
0.00305204
0.00578586
0.00722485
0.00784245
0.00815814
0.00834582
0.00846572
0.00854016
0.00859119
0.00866887
0.00873438
0.00878428
0.00882516
0.00885987
0.00888725
0.00890671
0.00893156
0.0089572
0.00898777
0.009
0.009
0.009
0.009
0.009
0.009
0.009
0.009
0.009
0.009
0.009
0.009
0.009
0.009
0.009
0.009
0.009
0.009
0.009
0.009
0.009
0.009
0.009
0.00334765
0.00170476
0.000192973
)
;
    }
    defaultFaces
    {
        type            empty;
    }
}


// ************************************************************************* //
