/*--------------------------------*- C++ -*----------------------------------*\
  =========                 |
  \\      /  F ield         | OpenFOAM: The Open Source CFD Toolbox
   \\    /   O peration     | Website:  https://openfoam.org
    \\  /    A nd           | Version:  13
     \\/     M anipulation  |
\*---------------------------------------------------------------------------*/
FoamFile
{
    format      ascii;
    class       volScalarField;
    location    "1.75";
    object      p;
}
// * * * * * * * * * * * * * * * * * * * * * * * * * * * * * * * * * * * * * //

dimensions      [1 -1 -2 0 0 0 0];

internalField   nonuniform List<scalar> 
2268
(
4778.03
4778.62
4801.93
4847.55
4912.49
4993.58
5087.25
5189.3
5295.1
5400.12
5500.87
5595.99
5684.96
5766.91
5841.37
5908.74
5968.13
6015.32
6044.89
6051.26
6029.78
5981.98
5923.2
3981.24
3983.75
4008.97
4056.95
4123.78
4206.75
4302.26
4405.9
4512.67
4617.62
4717.18
4810.14
4895.97
4973.71
5042.71
5104.04
5156.84
5197.56
5221.69
5224.62
5203.62
5158.44
5103.65
3179.03
3186.08
3213.94
3265.27
3335.19
3420.79
3518.76
3624.43
3732.5
3837.51
3935.6
4026.04
4108.27
4181.08
4243.54
4297.42
4342.6
4376.06
4394.44
4394.59
4374.98
4331.95
4280.21
2369.78
2380.65
2410.9
2466.77
2541.38
2631.03
2732.49
2840.97
2951.01
3056.7
3153.56
3241.33
3320.19
3388.5
3444.45
3491.59
3530.93
3558.93
3572.97
3570.91
3550.23
3503.71
3450.56
1556.98
1569.91
1599.26
1651.86
1728.56
1824.42
1932.86
2047.96
2163.93
2273.85
2370.74
2456.34
2532.34
2596.53
2645.5
2685.74
2719.91
2742.91
2752.11
2746.16
2721.07
2669.08
2613.9
1015.35
1022.07
1035.79
1058.68
1097.11
1149.15
1215.11
1294.67
1385
1479.84
1576.9
1666.25
1744.97
1808.99
1851.76
1884.24
1913.23
1930.39
1932.6
1920.65
1889.94
1834.91
1774.66
848.684
849.098
848.924
847.886
845.754
845.361
850.743
865.581
890.405
923.597
967.068
1009.32
1050.73
1085.17
1107.52
1135.79
1165.26
1175.75
1171.67
1158.59
1127.76
1082.95
1031.39
786.563
786.469
784.861
782.274
778.399
773.66
767.629
759.931
750.091
738.518
724.892
712.551
704.897
699.479
696.871
703.895
710.383
706.16
697.398
687.957
675.334
669.08
655.638
2559.38
2577.87
2597.62
2625.98
2675.58
2725.74
2771.06
2822.12
2839.8
2807.49
2728.99
2630.6
2485.64
2363.63
2272.36
2222.71
2202.34
2193.4
2179.76
1898.3
1895.92
1888.56
1924.41
1986.74
2086.56
2191.94
2252.59
2285.72
2279.66
2199.86
2074.94
1934.61
1822.29
1740.61
1691.74
1664.7
1662.52
1675.21
1527.92
1517.78
1438.95
1424.66
1464.13
1512.05
1552.26
1602.56
1658.99
1676.39
1623.17
1548.77
1476.51
1416.51
1366.22
1325.34
1295.63
1290.7
1301.14
1401.94
1403.72
1289.65
1196.74
1189.21
1183.9
1155.19
1148.96
1171.28
1212.27
1219.79
1207.54
1191.09
1166.9
1148.38
1128.22
1115.34
1091.93
1072.37
1226.56
1284.06
1192.75
1078.99
1035.25
1041.51
1023.6
980.878
955.534
974.656
1013.01
1027.42
1015.32
1009.79
1008.75
997.897
986.941
965.315
954.323
927.975
1080.54
1045.19
968.354
910.679
936.119
949.24
917.47
893.38
880.679
894.474
910.083
922.547
931.915
930.407
914.911
892.673
880.899
882.107
602.528
823.682
852.974
835.383
795.583
829.107
860.385
853.708
838.464
839.695
846.149
858.982
877.897
879.039
870.868
855.687
831.691
824.142
830.655
430.147
596.726
661.549
699.717
701.454
728.991
763.809
783.051
779.821
787.501
798.546
810.856
822.442
820.139
811.356
798.57
777.403
770.049
780.004
689.442
690.388
689.483
687.216
683.582
678.288
671.16
661.914
650.873
639.045
627.502
616.371
604.642
592.962
580.522
566.677
550.987
536.899
525.683
517.67
515.777
523.873
528.85
556.165
557.843
558.237
557.249
554.65
550.332
544.144
536.145
526.584
515.916
504.611
492.757
480.345
467.669
456.683
445.553
434.032
422.765
411.98
401.859
393.308
387.168
378.719
422.227
424.4
426.085
426.407
424.975
421.566
416.248
409.35
401.163
391.8
381.337
369.955
357.951
346.026
334.781
323.581
312.108
300.612
289.591
279.99
272.479
268.399
266.272
297.573
296.701
298.006
298.424
297.201
293.978
289.517
283.942
277.125
269.172
260.251
250.599
240.47
230.451
220.837
211.695
202.684
194.515
188.585
185.535
185.752
188.982
194.143
200.434
199.265
199.389
198.264
195.367
190.897
186.636
182.391
177.253
171.051
164.288
157.498
150.713
144.025
137.486
131.335
125.978
122.251
120.708
121.314
124.565
129.062
134.402
131.656
131.979
131.316
129.391
126.136
121.974
117.919
114.136
109.901
104.945
99.6514
94.445
89.4284
84.5687
79.7275
74.7736
70.2932
66.6846
63.7345
61.7663
60.8584
61.305
63.5604
74.248
72.8727
71.1491
68.7841
65.9376
63.1745
59.6763
55.6702
51.4542
47.5226
43.561
39.541
35.6023
31.8129
28.2905
25.2189
22.6758
20.5207
18.5367
16.7468
15.2593
14.2425
13.9006
27.1227
27.1923
25.7472
22.9083
20.5559
18.9063
17.2362
15.5647
13.959
12.3854
10.9043
9.492
8.15673
6.94153
5.88207
4.94945
4.07475
4.13471
4.12175
4.15726
4.17112
4.19888
4.18435
6.80802
7.73933
7.48754
5.91158
4.94946
4.72941
4.64031
4.60524
4.5745
4.53112
4.48018
4.41876
4.35102
4.28481
4.23635
4.20618
4.16089
4.09479
4.04565
3.98624
3.91532
3.84255
3.75932
4.62659
4.63012
4.84179
4.76474
4.65502
4.60356
4.57723
4.55472
4.53015
4.50167
4.46573
4.41664
4.35491
4.28485
4.21115
4.13751
4.07104
3.99614
3.93195
3.86003
3.79228
3.73146
3.66279
4.50119
4.50394
4.49023
4.49808
4.48853
4.4703
4.4463
4.42089
4.39373
4.36181
4.32092
4.26983
4.20976
4.14481
4.07874
4.01481
3.94267
3.878
3.79924
3.72715
3.65683
3.59154
3.51795
4.37268
4.36863
4.34981
4.34386
4.34775
4.33875
4.31902
4.29432
4.26503
4.22998
4.18543
4.13341
4.07499
4.01232
3.94759
3.88358
3.8183
3.74319
3.66796
3.59351
3.5188
3.4483
3.36827
4.24577
4.24084
4.23008
4.22241
4.2209
4.21138
4.19363
4.16971
4.1395
4.10206
4.05841
4.008
3.952
3.8928
3.82928
3.76367
3.69537
3.62194
3.54501
3.46651
3.387
3.31131
3.2282
4.11848
4.11386
4.10695
4.10081
4.09514
4.08432
4.06712
4.04386
4.01395
3.97656
3.93371
3.8858
3.83387
3.77723
3.71565
3.65038
3.58096
3.50578
3.42612
3.34378
3.26032
3.18079
3.09465
3.99057
3.98612
3.98098
3.97513
3.96792
3.95639
3.93955
3.9171
3.88847
3.85326
3.81195
3.76618
3.71636
3.66121
3.60108
3.53635
3.46641
3.39035
3.30893
3.22409
3.13788
3.05569
2.96718
3.86121
3.8572
3.85279
3.84714
3.83922
3.82743
3.81096
3.78933
3.76207
3.7289
3.69011
3.6463
3.59771
3.54399
3.4851
3.42107
3.35128
3.27511
3.19305
3.10705
3.01932
2.93552
2.84574
3.72985
3.72634
3.72239
3.71691
3.70882
3.6971
3.68111
3.66034
3.63438
3.60301
3.56626
3.52437
3.47744
3.42527
3.36783
3.30487
3.23586
3.16027
3.07849
2.99235
2.90421
2.81985
2.72959
3.59634
3.59329
3.58973
3.58451
3.57658
3.56518
3.5498
3.52995
3.50528
3.47554
3.44067
3.40068
3.35555
3.30518
3.24943
3.18795
3.12025
3.04585
2.96506
2.87969
2.79208
2.708
2.61819
3.4608
3.45817
3.455
3.45011
3.44252
3.4316
3.41694
3.3981
3.37472
3.34657
3.31349
3.2754
3.23221
3.1838
3.12995
3.07031
3.00438
2.93169
2.85254
2.76865
2.68238
2.59943
2.51072
3.32342
3.3212
3.31843
3.31391
3.30675
3.29642
3.28256
3.26476
3.24269
3.21609
3.18478
3.1486
3.10743
3.0611
3.00936
2.95185
2.88808
2.81757
2.74057
2.65882
2.57456
2.49338
2.40665
3.18443
3.18261
3.18023
3.17611
3.16944
3.15975
3.14672
3.12999
3.10922
3.08415
3.05458
3.02032
2.98121
2.93706
2.88761
2.83248
2.77116
2.70321
2.62886
2.54972
2.46802
2.38918
2.30482
3.04403
3.04263
3.04065
3.03694
3.03077
3.02173
3.00953
2.99385
2.97436
2.95079
2.92293
2.89058
2.85356
2.81167
2.76462
2.71205
2.65345
2.58837
2.51702
2.44096
2.36229
2.28617
2.20476
2.90244
2.90148
2.8999
2.89658
2.89091
2.88251
2.87112
2.85645
2.83819
2.81607
2.78988
2.75942
2.72449
2.68489
2.64034
2.59046
2.53477
2.47283
2.40481
2.33218
2.25695
2.18402
2.10587
2.75987
2.75938
2.75817
2.75522
2.75001
2.74222
2.7316
2.71788
2.7008
2.68007
2.65549
2.62687
2.59402
2.55672
2.51471
2.46762
2.41499
2.35638
2.29195
2.22307
2.15163
2.08223
2.00793
2.6165
2.61646
2.61561
2.613
2.60823
2.601
2.59108
2.57825
2.56226
2.54285
2.51982
2.49298
2.46216
2.42715
2.3877
2.34347
2.29399
2.23886
2.17821
2.11329
2.04589
1.98031
1.90998
2.47242
2.47279
2.47227
2.46999
2.46563
2.45891
2.44964
2.43763
2.42265
2.40448
2.38291
2.35779
2.32895
2.2962
2.25931
2.21794
2.17167
2.12011
2.06335
2.00255
1.93935
1.87771
1.81162
2.32769
2.32841
2.32818
2.32621
2.32222
2.316
2.30734
2.29608
2.28203
2.265
2.24482
2.22134
2.19442
2.16389
2.12952
2.09102
2.04798
2.00002
1.94722
1.89062
1.83174
1.77422
1.71237
2.18233
2.18333
2.18335
2.18167
2.17803
2.17226
2.16416
2.1536
2.14043
2.12449
2.10561
2.0837
2.05862
2.03025
1.99838
1.96271
1.92289
1.87853
1.82971
1.77737
1.72289
1.66958
1.61223
2.03633
2.03753
2.03776
2.03635
2.03304
2.02767
2.0201
2.0102
1.99785
1.98293
1.96533
1.94493
1.92166
1.89538
1.86593
1.83306
1.79642
1.75565
1.71081
1.66273
1.61268
1.56369
1.51062
1.88967
1.89098
1.8914
1.89022
1.8872
1.88221
1.87513
1.86584
1.85428
1.84035
1.82397
1.80507
1.78356
1.75936
1.73231
1.70219
1.66867
1.63145
1.59054
1.54672
1.50113
1.45654
1.40757
1.74233
1.74369
1.74425
1.74327
1.74051
1.73585
1.72921
1.72052
1.70971
1.69674
1.68157
1.66414
1.64439
1.62225
1.59759
1.57021
1.53981
1.50611
1.46912
1.42951
1.38831
1.34798
1.30364
1.59433
1.59569
1.59633
1.59549
1.59294
1.58858
1.58236
1.57424
1.56418
1.55216
1.53819
1.52222
1.50422
1.48413
1.46186
1.43721
1.40992
1.37973
1.34665
1.31126
1.27444
1.23831
1.19912
1.44572
1.44701
1.44767
1.44692
1.44454
1.44045
1.43463
1.42706
1.41774
1.40668
1.39391
1.3794
1.36316
1.34513
1.32523
1.3033
1.27911
1.25242
1.22322
1.19202
1.15959
1.12777
1.09335
1.29656
1.29775
1.29837
1.29766
1.2954
1.29156
1.28612
1.27909
1.27052
1.26044
1.24887
1.23585
1.22136
1.20539
1.18785
1.16863
1.1475
1.12425
1.09887
1.0718
1.04367
1.01609
0.986321
1.14694
1.14801
1.14854
1.14783
1.14567
1.14205
1.13698
1.13051
1.1227
1.1136
1.10327
1.09174
1.07901
1.06508
1.04988
1.03331
1.01518
0.995288
0.97363
0.950568
0.926631
0.903182
0.877833
0.996977
0.997902
0.998332
0.997603
0.995531
0.992119
0.987416
0.981503
0.974463
0.966377
0.957303
0.947273
0.936306
0.924394
0.911491
0.897499
0.882262
0.865609
0.847518
0.828298
0.80838
0.788887
0.767858
0.846776
0.84754
0.847863
0.847115
0.845123
0.841915
0.837584
0.832241
0.825997
0.818945
0.811163
0.802656
0.793438
0.783508
0.77283
0.761321
0.748846
0.735261
0.720549
0.704952
0.688803
0.673034
0.655977
0.696395
0.696978
0.697212
0.69645
0.694533
0.691532
0.687587
0.682842
0.677412
0.67142
0.664985
0.658026
0.650544
0.642548
0.634011
0.624864
0.614995
0.604289
0.592726
0.580492
0.567852
0.555494
0.542128
0.545937
0.546277
0.546395
0.545592
0.543736
0.540952
0.537415
0.533304
0.528697
0.523791
0.518808
0.51344
0.507688
0.501575
0.495085
0.48817
0.480736
0.472714
0.464079
0.454972
0.44557
0.436388
0.426419
0.395577
0.395684
0.395574
0.394626
0.392803
0.390261
0.38719
0.383778
0.379951
0.375867
0.372865
0.369188
0.365183
0.360916
0.356393
0.351582
0.34643
0.340905
0.335014
0.328819
0.32246
0.316279
0.309621
0.245441
0.245095
0.244638
0.243439
0.241741
0.239702
0.237422
0.234707
0.231247
0.227706
0.227601
0.225798
0.22342
0.220924
0.218276
0.215446
0.212381
0.209156
0.205784
0.202276
0.198696
0.195222
0.191591
0.0885362
0.0858722
0.085546
0.0846973
0.0837958
0.0828677
0.0818629
0.080567
0.0782563
0.0768239
0.0784314
0.0778052
0.0769683
0.0761801
0.075394
0.0745743
0.0734282
0.0721675
0.0709872
0.0698196
0.0686607
0.0675129
0.0663342
570.198
573.904
562.792
529.628
361.892
356.715
355.473
353.11
265.152
267.031
269.866
273.682
199.575
204.392
210.083
216.695
140.5
145.23
150.512
156.048
68.0504
72.1969
77.5758
83.4793
14.1349
15.026
16.9695
20.189
4.0917
4.00497
3.95216
3.94701
3.61829
3.48722
3.35431
3.25645
3.55223
3.42274
3.2698
3.14221
3.38581
3.24187
3.0788
2.95269
3.2295
3.07989
2.90944
2.7782
3.08436
2.92948
2.75473
2.61961
2.94703
2.7887
2.61037
2.47371
2.81747
2.65746
2.47741
2.33946
2.69534
2.53502
2.35482
2.21645
2.57987
2.42046
2.24111
2.10335
2.46996
2.31249
2.13549
1.99919
2.36512
2.21057
2.03663
1.90263
2.26449
2.11369
1.94403
1.8128
2.16705
2.02084
1.85591
1.72822
2.07182
1.93086
1.77187
1.64821
1.97865
1.84366
1.69087
1.57178
1.88697
1.75851
1.61285
1.49849
1.79587
1.67445
1.536
1.42692
1.70439
1.59024
1.4599
1.35645
1.61241
1.50584
1.38355
1.28618
1.51962
1.4208
1.30716
1.21595
1.42558
1.33465
1.22949
1.14485
1.32986
1.24681
1.1507
1.07284
1.23321
1.15791
1.07042
0.999439
1.13599
1.06823
0.98931
0.924763
1.0376
0.977416
0.906754
0.848777
0.937633
0.88484
0.822673
0.771199
0.836116
0.790565
0.73645
0.691451
0.73284
0.694303
0.64825
0.609446
0.627382
0.595596
0.557109
0.524439
0.51939
0.493942
0.462986
0.436302
0.409195
0.389753
0.365805
0.344983
0.297612
0.283903
0.266788
0.251449
0.185381
0.177347
0.16666
0.156274
0.0648707
0.0623946
0.0588241
0.0547285
431.924
455.489
492.506
550.671
577.834
590.415
627.589
663.876
684.525
698.134
710.087
720.717
728.118
727.112
720.738
710.398
700.234
702.128
711.095
346.856
361.752
376.685
420.295
447.021
455.11
476.008
515.388
553.783
575.398
591.227
602.134
607.924
607.206
604.994
605.217
611.611
621.02
626.754
281.773
297.693
308.839
334.966
360.958
375.979
383.383
404.254
436.121
461.773
479.03
491.066
499.258
506.484
514.463
525.459
540.43
548.816
552.14
225.398
238.329
251.807
271.141
293.899
309.713
320.918
334.083
350.32
369.792
387.372
403.43
418.763
434.846
450.042
463.46
475.331
482.032
484.368
164.152
176.584
190.768
209.284
229.191
246.486
261.352
276.491
291.049
305.483
322.46
340.949
359.873
376.548
391.083
403.699
413.645
418.729
420.031
93.1024
109.445
126.736
146.031
165.848
184.534
201.967
219.239
236.395
252.898
269.538
286.561
303.903
319.885
333.96
345.764
354.357
358.219
358.878
26.6593
39.0491
57.4039
79.1636
102.064
123.614
143.518
162.3
180.51
198.112
215.343
232.52
249.318
264.782
278.308
289.352
297.003
300.174
300.418
3.89255
5.40064
11.6306
22.8747
38.882
59.4395
82.5169
105.468
126.084
144.453
161.876
178.928
195.479
210.684
223.826
234.339
241.502
244.424
244.216
3.19539
3.20278
3.15854
3.27801
6.01521
13.2278
26.2992
44.7404
67.4072
90.5317
110.25
127.094
142.821
157.601
170.391
180.524
187.458
190.417
189.691
3.00347
2.89985
2.83284
2.79887
2.77355
2.72746
3.07902
7.04166
18.0308
34.9344
54.8421
75.139
91.9095
106.08
117.975
127.221
133.376
135.822
134.128
2.83449
2.75298
2.67551
2.59135
2.49638
2.43976
2.43475
2.4735
2.50129
4.06082
12.8733
26.4059
40.2223
55.8876
67.4067
74.2679
77.9741
78.7593
74.8124
2.66254
2.59493
2.52529
2.44865
2.36665
2.29807
2.22665
2.1626
2.16445
2.18152
2.06408
2.19923
7.16685
17.0993
24.5248
28.7446
30.2728
30.4578
26.3584
2.50165
2.44008
2.37611
2.30512
2.23563
2.17185
2.11088
2.05237
1.99749
1.91693
1.85137
1.83853
1.80477
1.66914
3.06219
5.90454
7.02263
6.08808
3.97301
2.35403
2.29345
2.23194
2.16578
2.1025
2.04467
1.98817
1.94192
1.88487
1.8109
1.73947
1.69002
1.67157
1.69876
1.65738
1.38424
1.25893
1.46565
1.53767
2.21954
2.15861
2.09844
2.03379
1.97213
1.91502
1.86023
1.80774
1.75317
1.69483
1.64324
1.59564
1.56936
1.57058
1.55626
1.49654
1.45826
1.48702
1.49117
2.09604
2.03593
1.97647
1.91283
1.85147
1.79352
1.73608
1.67578
1.62354
1.57598
1.54154
1.50429
1.46646
1.43795
1.40639
1.37574
1.37434
1.39416
1.42324
1.98302
1.924
1.86508
1.80243
1.74182
1.68382
1.62752
1.57245
1.52199
1.48045
1.44685
1.40976
1.36474
1.33108
1.30739
1.29941
1.30902
1.33934
1.3655
1.87963
1.82131
1.76303
1.70146
1.64205
1.5855
1.53167
1.48121
1.43574
1.39713
1.3642
1.33111
1.29689
1.27279
1.26088
1.2576
1.26779
1.28928
1.31006
1.78468
1.72685
1.66927
1.60873
1.55076
1.4962
1.44526
1.39831
1.35676
1.32126
1.29115
1.2636
1.23859
1.22124
1.21295
1.21348
1.22283
1.23837
1.25178
1.69671
1.63956
1.58275
1.52328
1.46665
1.41405
1.36583
1.32216
1.28376
1.25105
1.22351
1.1999
1.1802
1.16691
1.16127
1.16311
1.17096
1.18197
1.1906
1.61482
1.55835
1.50243
1.44406
1.38869
1.33765
1.29154
1.25043
1.21452
1.18398
1.15855
1.13763
1.12128
1.11061
1.10636
1.1081
1.1143
1.12224
1.12773
1.53775
1.48226
1.4273
1.37005
1.31586
1.26609
1.22144
1.18207
1.14797
1.11908
1.09524
1.07616
1.06181
1.05266
1.04894
1.05017
1.05488
1.06072
1.06431
1.46486
1.41035
1.35644
1.30035
1.24727
1.19857
1.15498
1.11674
1.08382
1.05605
1.03327
1.01529
1.00203
0.993602
0.989956
0.990522
0.994074
0.998609
1.00119
1.395
1.34172
1.28897
1.23412
1.18216
1.13443
1.09168
1.05418
1.02194
0.994828
0.972635
0.955209
0.942431
0.934232
0.930402
0.930371
0.933074
0.93686
0.939078
1.32754
1.27553
1.22412
1.17064
1.11985
1.0731
1.03111
0.994158
0.962324
0.935527
0.913586
0.896347
0.883662
0.875429
0.871323
0.870777
0.872909
0.876318
0.87851
1.26138
1.21101
1.16115
1.10921
1.05975
1.01405
0.972849
0.936436
0.904914
0.878274
0.856405
0.839164
0.826398
0.817988
0.81357
0.812631
0.814366
0.817543
0.819925
1.19608
1.14747
1.0994
1.04924
1.00129
0.956803
0.916505
0.88071
0.849556
0.823092
0.801266
0.783972
0.771076
0.762447
0.757737
0.756442
0.757873
0.760915
0.763431
1.13081
1.08429
1.03827
0.990146
0.943948
0.900875
0.861663
0.826653
0.79603
0.769873
0.748176
0.730873
0.717883
0.709053
0.704057
0.702451
0.703577
0.706434
0.709037
1.06534
1.02094
0.977257
0.931429
0.887217
0.845798
0.807916
0.773935
0.744058
0.718394
0.696971
0.679774
0.666765
0.657778
0.652524
0.650568
0.651352
0.653979
0.656511
0.999103
0.956919
0.91591
0.872636
0.830679
0.791186
0.754897
0.722195
0.693293
0.668321
0.647351
0.630415
0.617482
0.608396
0.602889
0.600585
0.600944
0.603188
0.605561
0.931809
0.892238
0.854001
0.813457
0.773986
0.736671
0.702218
0.671017
0.643302
0.619232
0.598912
0.5824
0.569655
0.560543
0.554823
0.552114
0.55198
0.553742
0.555776
0.862841
0.826911
0.791277
0.753587
0.716779
0.681825
0.649405
0.619911
0.593596
0.570642
0.551176
0.535249
0.522826
0.513783
0.507883
0.504805
0.504115
0.505243
0.506826
0.792828
0.760069
0.727293
0.692595
0.658589
0.626164
0.595962
0.568374
0.543669
0.52204
0.503617
0.488449
0.476501
0.467647
0.461666
0.458224
0.457006
0.45759
0.458819
0.721043
0.691446
0.661646
0.630043
0.59897
0.569229
0.54142
0.515923
0.493016
0.472902
0.455711
0.44149
0.430193
0.421684
0.415727
0.412056
0.410407
0.410516
0.411472
0.64723
0.620675
0.593921
0.565516
0.537505
0.510595
0.485334
0.462094
0.441156
0.422736
0.40697
0.3939
0.383458
0.375483
0.369734
0.36596
0.364051
0.363826
0.364467
0.570795
0.547351
0.523711
0.498616
0.473798
0.449865
0.427308
0.406478
0.387667
0.371111
0.356965
0.345269
0.335922
0.328718
0.323385
0.319754
0.317714
0.317175
0.317581
0.491504
0.471128
0.450681
0.429004
0.407516
0.386715
0.367019
0.348756
0.332224
0.317693
0.305359
0.295279
0.287312
0.281174
0.27654
0.273198
0.271154
0.270426
0.270574
0.408938
0.39178
0.374614
0.356469
0.338458
0.320958
0.304302
0.288776
0.274675
0.262317
0.251965
0.243767
0.237551
0.232839
0.229128
0.226256
0.224272
0.223337
0.223304
0.323305
0.30934
0.29553
0.281034
0.266657
0.252649
0.239239
0.226648
0.215146
0.205084
0.196851
0.190816
0.186823
0.183921
0.181326
0.178936
0.177014
0.175901
0.175583
0.234936
0.224112
0.213734
0.203017
0.192449
0.182141
0.172212
0.162793
0.154084
0.146443
0.14039
0.136623
0.135701
0.134932
0.133457
0.131504
0.129517
0.127957
0.127244
0.143674
0.135683
0.128866
0.122053
0.11542
0.108953
0.102679
0.0966402
0.0909384
0.085858
0.0818277
0.0800001
0.0848181
0.0863882
0.0858236
0.0841072
0.0818404
0.0795408
0.0779526
0.0487064
0.0452261
0.0426785
0.0402477
0.0378912
0.035588
0.0333321
0.0311247
0.0289607
0.0269544
0.0249788
0.0234662
0.0284055
0.0303407
0.0305293
0.0298707
0.028788
0.0275561
0.0266209
)
;

boundaryField
{
    leftWall
    {
        type            calculated;
        value           nonuniform List<scalar> 
50
(
4778.03
3981.24
3179.03
2369.78
1556.98
1015.35
848.684
786.563
689.442
556.165
422.227
297.573
200.434
131.656
74.248
27.1227
6.80802
4.62659
4.50119
4.37268
4.24577
4.11848
3.99057
3.86121
3.72985
3.59634
3.4608
3.32342
3.18443
3.04403
2.90244
2.75987
2.6165
2.47242
2.32769
2.18233
2.03633
1.88967
1.74233
1.59433
1.44572
1.29656
1.14694
0.996977
0.846776
0.696395
0.545937
0.395577
0.245441
0.0885362
)
;
    }
    rightWall
    {
        type            calculated;
        value           nonuniform List<scalar> 
50
(
2179.76
1675.21
1301.14
1072.37
954.323
882.107
830.655
780.004
711.095
626.754
552.14
484.368
420.031
358.878
300.418
244.216
189.691
134.128
74.8124
26.3584
3.97301
1.53767
1.49117
1.42324
1.3655
1.31006
1.25178
1.1906
1.12773
1.06431
1.00119
0.939078
0.87851
0.819925
0.763431
0.709037
0.656511
0.605561
0.555776
0.506826
0.458819
0.411472
0.364467
0.317581
0.270574
0.223304
0.175583
0.127244
0.0779526
0.0266209
)
;
    }
    lowerWall
    {
        type            calculated;
        value           nonuniform List<scalar> 
62
(
5176.18
5176.77
5200.08
5245.7
5310.64
5391.73
5485.4
5587.45
5693.25
5798.27
5899.02
5994.14
6083.11
6165.06
6239.52
6306.89
6366.28
6413.47
6443.04
6449.4
6427.77
6379.91
6321.14
5923.2
5103.65
4280.21
3450.56
2613.9
1774.66
1031.39
655.638
705.407
717.734
698.49
640.269
2559.38
1898.3
1527.92
1401.94
1226.56
927.975
602.528
430.147
2909.15
2928.86
2948.95
2977.19
3023.64
3022.58
3001.68
3052.5
3074.01
3040.3
2973.79
2920.08
2774.22
2651.24
2559.36
2508.87
2487.99
2478.99
2464.87
)
;
    }
    atmosphere
    {
        type            calculated;
        value           nonuniform List<scalar> 
46
(
0
-3.82762e-06
-2.66848e-06
-3.77529e-07
0
0
0
0
0
0
0
0
0
0
0
0
0
0
0
0
0
0
0
0
0
0
0
0
0
0
0
0
0
0
0
0
0
0
0
0
0
0
0
0
0
0
)
;
    }
    defaultFaces
    {
        type            empty;
    }
}


// ************************************************************************* //
