/*--------------------------------*- C++ -*----------------------------------*\
  =========                 |
  \\      /  F ield         | OpenFOAM: The Open Source CFD Toolbox
   \\    /   O peration     | Website:  https://openfoam.org
    \\  /    A nd           | Version:  13
     \\/     M anipulation  |
\*---------------------------------------------------------------------------*/
FoamFile
{
    format      ascii;
    class       volScalarField;
    location    "1.75";
    object      p_rgh;
}
// * * * * * * * * * * * * * * * * * * * * * * * * * * * * * * * * * * * * * //

dimensions      [1 -1 -2 0 0 0 0];

internalField   nonuniform List<scalar> 
2268
(
5176.18
5176.77
5200.08
5245.7
5310.64
5391.73
5485.4
5587.45
5693.25
5798.27
5899.02
5994.14
6083.11
6165.06
6239.52
6306.89
6366.28
6413.47
6443.04
6449.4
6427.77
6379.91
6321.14
5175.69
5178.2
5203.42
5251.4
5318.23
5401.2
5496.7
5600.34
5707.11
5812.07
5911.63
6004.59
6090.42
6168.16
6237.16
6298.49
6351.29
6392.01
6416.14
6419.07
6398.04
6352.68
6297.83
5169.78
5176.83
5204.69
5256.02
5325.94
5411.53
5509.51
5615.18
5723.25
5828.26
5926.35
6016.79
6099.02
6171.82
6234.29
6288.17
6333.35
6366.81
6385.19
6385.34
6365.73
6322.7
6270.96
5156.83
5167.7
5197.95
5253.82
5328.43
5418.07
5519.54
5628.02
5738.06
5843.75
5940.61
6028.38
6107.24
6175.55
6231.5
6278.63
6317.97
6345.98
6360.02
6357.96
6337.28
6290.76
6237.61
5089.06
5060.68
5100.68
5214.34
5311.91
5407.77
5516.21
5631.31
5747.28
5857.2
5954.09
6039.69
6115.69
6179.87
6228.85
6269.09
6303.25
6326.26
6335.46
6329.5
6304.42
6252.43
6197.24
2463.48
2495.58
2612.86
2848.43
3279.24
3833.45
4420.97
4974.05
5452.7
5819.6
5956.55
6045.9
6124.62
6188.64
6231.41
6263.89
6292.88
6310.04
6312.25
6300.3
6269.59
6214.56
6154.31
1231.27
1231.68
1231.51
1230.47
1229.52
1270.72
1417.54
1719.15
2184.2
2786.67
3593.76
4375.7
5059.16
5619.89
5901.26
5958.51
6024.52
6108.09
6109.63
6026.24
5855.87
5488.82
5058.35
1228
1227.91
1226.3
1223.71
1219.84
1215.1
1209.07
1201.37
1191.53
1179.96
1169.75
1231.58
1397.74
1581.39
1795.37
2233.77
2684.24
2846.36
2863.15
2783.21
2451.53
1910.38
1513.18
2909.15
2928.86
2948.95
2977.19
3023.64
3022.58
3001.68
3052.5
3074.01
3040.3
2973.79
2920.08
2774.22
2651.24
2559.36
2508.87
2487.99
2478.99
2464.87
2801.97
2829.55
2894.85
2914.43
2990.83
3095.21
3198.19
3252.07
3241.33
3183.65
3102.45
2953.36
2764.73
2609.91
2484.15
2428.81
2421.08
2395.77
2323.75
1904.77
1911.33
2049.26
2264.68
2374.92
2693.44
3090.46
3234.97
3282.17
3301.08
3080.04
2795.23
2353.99
2102.27
1962.4
1904.43
1857.3
1902.35
2073.87
1673.69
1624.16
1518.68
1674.38
1866.5
1841.72
1824.59
2125.86
2475.89
2413.43
2068.73
1849.79
1853.12
1849.41
1747.7
1640.68
1544.28
1559.16
1566.17
2143.24
1903.16
1578.09
1444.68
1650.21
1501.13
1336.64
1261.21
1244.21
1706.91
1839.07
1808.41
1644.85
1450.95
1418.33
1452.77
1546.23
1467.09
1339.12
2392.75
2181.16
1720.23
1431.94
1503.62
1584.73
1389.82
1260.26
1192.57
1044.4
1224
1268.33
1085.02
1174.08
1242.41
1231.9
1241.12
1210.98
1144.16
2296.44
2508.38
1889.31
1508.58
1319.34
1506.64
1600.54
1301.2
1222.23
1175.59
1112.54
1107.75
1171.8
1234.82
1253.15
1222.44
1193.12
1173.88
1131.23
870.422
1900.92
1938.15
1450.07
1083.36
1427.17
1601.91
1419.41
1221.7
1229.19
1236.9
1245.18
1258.06
1261.39
1253.14
1240.18
1155.41
1140.28
1104.34
1222.91
1223.85
1222.95
1220.68
1217.05
1211.76
1204.63
1195.38
1184.34
1172.51
1160.97
1149.84
1138.11
1126.43
1113.99
1100.14
1084.45
1070.36
1059.11
1050.93
1048.67
1056.07
1059.72
1214.83
1216.5
1216.9
1215.91
1213.31
1208.99
1202.81
1194.81
1185.25
1174.58
1163.27
1151.42
1139.01
1126.33
1115.34
1104.21
1092.69
1081.43
1070.64
1060.52
1051.41
1041.97
1025.25
1206.08
1208.26
1209.83
1210.26
1208.83
1205.42
1200.1
1193.21
1185.02
1175.66
1165.19
1153.81
1141.81
1129.88
1118.64
1107.44
1095.59
1080.26
1049.56
1011.35
968.316
905.254
832.741
1067.59
1144.41
1167.89
1184.51
1194.67
1198.76
1188.16
1174.59
1166.81
1159.96
1147.59
1126.71
1101.38
1078.89
1059.06
1029.5
983.179
910.121
812.28
725.203
638.219
597.426
616.433
814.61
778.553
809.834
828.964
855.21
859.535
862.36
857.55
841.834
823.004
799.52
769.693
731.826
687.913
650.469
630.073
597.045
566.009
564.622
581.178
620.449
645.699
651.348
625.054
702.384
704.959
703.186
690.833
639.325
632.403
650.022
657.132
646.609
631.737
627.564
630.001
641.882
652.145
651.909
648.087
643.531
636.465
625.876
613.105
597.699
587.922
639.76
688.646
692.124
699.509
696.662
693.576
689.883
685.937
681.581
673.162
661.972
645.818
624.117
593.972
554.244
508.822
458.812
389.935
324.55
262.528
205.017
159.022
133.614
438.992
396.901
383.485
377.838
353.15
338.125
319.003
291.798
259.94
230.02
199.619
166.889
131.497
95.0056
60.3887
30.4264
5.48459
5.54462
5.53167
5.56714
5.58098
5.60871
5.59418
58.4658
88.6341
71.345
24.0929
8.16704
6.96918
6.31149
6.14079
6.10978
6.06642
6.0157
5.95481
5.88699
5.82023
5.77152
5.74127
5.696
5.62985
5.58069
5.5213
5.45039
5.37759
5.29437
6.28736
6.29105
15.5075
10.6798
6.33157
6.26575
6.23751
6.21499
6.19062
6.16249
6.13882
6.094
6.02042
5.94592
5.87157
5.79806
5.7319
5.65698
5.59273
5.52071
5.45288
5.39201
5.32316
6.28718
6.29526
7.58614
7.72117
6.301
6.25698
6.23178
6.20647
6.17951
6.1649
6.2503
6.21414
6.05515
5.93351
5.86585
5.80309
5.73137
5.66548
5.5858
5.51326
5.44283
5.37741
5.30356
6.28407
6.30245
6.26233
6.52042
6.26239
6.24964
6.22973
6.20519
6.17596
6.27258
6.26426
6.21358
6.09442
5.92922
5.8628
5.79992
5.73457
5.65594
5.5794
5.50454
5.42976
5.35919
5.27902
6.28241
6.27741
6.26644
6.25845
6.25736
6.24732
6.2296
6.20582
6.17641
6.27399
6.26991
6.22148
6.05202
5.93499
5.87145
5.80567
5.73507
5.65854
5.58109
5.50243
5.42295
5.34722
5.26406
6.28052
6.27626
6.26863
6.26202
6.25634
6.24544
6.2283
6.20512
6.17568
6.13812
6.17461
6.1332
5.99709
5.94405
5.88224
5.81326
5.742
5.66695
5.58721
5.50484
5.42138
5.34184
5.25567
6.27717
6.27298
6.26749
6.26149
6.25424
6.2427
6.2259
6.20361
6.17626
6.13947
6.09816
6.05239
6.00266
5.94944
5.88753
5.82255
5.75262
5.6766
5.59517
5.51033
5.42411
5.34191
5.25339
6.27271
6.26878
6.26433
6.25865
6.25071
6.23891
6.22242
6.20076
6.17348
6.14031
6.10151
6.05774
6.0099
5.95761
5.89676
5.83246
5.76271
5.68654
5.60448
5.51846
5.43073
5.34692
5.25714
6.26653
6.26305
6.2591
6.25361
6.24549
6.23375
6.21773
6.19694
6.17098
6.13961
6.10287
6.06113
6.01541
5.96382
5.90442
5.84148
5.77249
5.69689
5.61509
5.52895
5.44081
5.35645
5.26619
6.25821
6.25519
6.25164
6.24641
6.23844
6.227
6.2116
6.19175
6.16708
6.13734
6.10249
6.0627
6.01785
5.96709
5.91123
5.84977
5.78207
5.70766
5.62685
5.54148
5.45387
5.36979
5.27997
6.24786
6.24526
6.2421
6.2372
6.22957
6.21862
6.20394
6.18509
6.16172
6.13356
6.10049
6.06241
6.01919
5.97078
5.91695
5.85731
5.79137
5.71868
5.63952
5.55563
5.46936
5.38641
5.29769
6.23567
6.23346
6.2307
6.22618
6.219
6.20864
6.19475
6.17695
6.15488
6.12827
6.09696
6.06078
6.0196
5.97327
5.92154
5.86404
5.80026
5.72974
5.65275
5.57099
5.48673
5.40555
5.31882
6.22186
6.22005
6.21768
6.21356
6.20688
6.19716
6.1841
6.16737
6.14659
6.12152
6.09195
6.05769
6.01858
5.97443
5.92497
5.86984
5.80853
5.74058
5.66622
5.58708
5.50539
5.42655
5.34218
6.20664
6.20525
6.20326
6.19955
6.19338
6.18433
6.17211
6.15642
6.13692
6.11335
6.08549
6.05314
6.01612
5.97423
5.92718
5.8746
5.81601
5.75093
5.67958
5.60352
5.52484
5.44872
5.36732
6.19024
6.18928
6.18769
6.18436
6.17869
6.17029
6.15889
6.14421
6.12594
6.10383
6.07763
6.04717
6.01224
5.97264
5.92809
5.87821
5.82252
5.76058
5.69256
5.61993
5.5447
5.47177
5.39361
6.17285
6.17235
6.17114
6.16819
6.16298
6.15519
6.14456
6.13083
6.11374
6.09302
6.06844
6.03982
6.00696
5.96966
5.92765
5.88057
5.82794
5.76933
5.70489
5.63601
5.56457
5.49517
5.42087
6.15467
6.15461
6.15376
6.15115
6.14637
6.13914
6.12922
6.11639
6.1004
6.08099
6.05795
6.03112
6.0003
5.96529
5.92584
5.8816
5.83213
5.777
5.71635
5.65143
5.58403
5.51845
5.44811
6.13577
6.13614
6.13561
6.13333
6.12896
6.12225
6.11298
6.10096
6.08598
6.06781
6.04624
6.02112
5.99228
5.95953
5.92264
5.88127
5.83501
5.78344
5.72668
5.66588
5.60268
5.54104
5.47495
6.11623
6.11695
6.11671
6.11474
6.11075
6.10452
6.09587
6.08461
6.07056
6.05352
6.03334
6.00987
5.98295
5.95241
5.91805
5.87955
5.83651
5.78854
5.73574
5.67914
5.62026
5.56274
5.5009
6.09606
6.09706
6.09707
6.09539
6.09176
6.08598
6.07788
6.06732
6.05415
6.03821
6.01933
5.99742
5.97234
5.94397
5.9121
5.87643
5.83661
5.79225
5.74343
5.69109
5.63661
5.5833
5.52595
6.07525
6.07645
6.07668
6.07526
6.07195
6.06659
6.05902
6.04911
6.03676
6.02185
6.00424
5.98385
5.96057
5.93429
5.90484
5.87197
5.83533
5.79456
5.74972
5.70164
5.65159
5.60261
5.54954
6.05378
6.05509
6.05551
6.05433
6.05131
6.04632
6.03923
6.02995
6.01838
6.00446
5.98808
5.96918
5.94767
5.92347
5.89642
5.8663
5.83278
5.79556
5.75465
5.71083
5.66524
5.62065
5.57168
6.03164
6.033
6.03355
6.03257
6.02981
6.02515
6.01852
6.00982
5.99901
5.98605
5.97087
5.95344
5.93369
5.91155
5.88689
5.85951
5.82912
5.79541
5.75842
5.71882
5.67761
5.63729
5.59294
6.00883
6.01019
6.01082
6.00999
6.00743
6.00308
5.99686
5.98873
5.97867
5.96666
5.95268
5.93671
5.91872
5.89863
5.87636
5.85171
5.82442
5.79423
5.76114
5.72576
5.68894
5.6528
5.61362
5.98542
5.9867
5.98736
5.98662
5.98423
5.98014
5.97432
5.96675
5.95743
5.94638
5.9336
5.91909
5.90285
5.88482
5.86492
5.843
5.81881
5.79211
5.76291
5.73172
5.69928
5.66746
5.63304
5.96144
5.96263
5.96325
5.96254
5.96029
5.95644
5.951
5.94398
5.93541
5.92533
5.91376
5.90073
5.88625
5.87027
5.85274
5.83351
5.81238
5.78913
5.76375
5.73668
5.70856
5.68098
5.65121
5.93702
5.93809
5.93862
5.93791
5.93576
5.93213
5.92706
5.92059
5.91278
5.90368
5.89335
5.88182
5.86909
5.85516
5.83997
5.82339
5.80526
5.78537
5.76371
5.74065
5.71671
5.69326
5.66791
5.91225
5.91318
5.91361
5.91288
5.91081
5.90739
5.90269
5.89678
5.88974
5.88165
5.87258
5.86255
5.85158
5.83967
5.82677
5.81277
5.79754
5.78088
5.76279
5.74357
5.72366
5.70416
5.68313
5.88725
5.88801
5.88833
5.88759
5.88559
5.88239
5.87805
5.87271
5.86647
5.85942
5.85163
5.84313
5.83391
5.82398
5.8133
5.80179
5.78932
5.77573
5.76102
5.74542
5.72927
5.7135
5.69645
5.86206
5.86264
5.86288
5.86211
5.8602
5.8572
5.85325
5.84851
5.84308
5.83708
5.83065
5.82369
5.81621
5.80821
5.79968
5.79053
5.78066
5.76995
5.75839
5.74616
5.73352
5.72116
5.70779
5.8368
5.83714
5.83725
5.83645
5.8346
5.83181
5.82827
5.82416
5.81956
5.81465
5.80967
5.8043
5.79855
5.79243
5.78594
5.77903
5.7716
5.76357
5.75494
5.74583
5.73643
5.72725
5.71728
5.81163
5.81174
5.81163
5.81068
5.80886
5.80631
5.80324
5.79983
5.79601
5.79192
5.78892
5.78524
5.78124
5.77697
5.77245
5.76764
5.76248
5.75696
5.75107
5.74487
5.73851
5.73233
5.72567
5.78669
5.78634
5.78589
5.78469
5.78299
5.78095
5.77867
5.77596
5.7725
5.76895
5.76885
5.76705
5.76467
5.76217
5.75952
5.75669
5.75363
5.7504
5.74703
5.74352
5.73994
5.73647
5.73284
5.75498
5.75231
5.75199
5.75114
5.75024
5.74931
5.74831
5.74701
5.7447
5.74327
5.74487
5.74425
5.74341
5.74262
5.74184
5.74102
5.73987
5.73861
5.73743
5.73626
5.7351
5.73396
5.73278
1722.47
1799.65
1719.25
1472.53
1004.07
979.977
964.636
958.001
779.16
721.261
696.128
638.261
649.773
658.06
663.605
619.443
657.517
662.352
667.634
673.171
586.211
594.165
609.658
629.593
129.433
139.177
163.626
206.244
5.50155
5.415
5.36223
5.35709
5.15332
5.02226
4.88934
4.79148
5.21256
5.08304
4.93006
4.80246
5.1714
5.0274
4.86432
4.73819
5.14024
4.99062
4.82016
4.68891
5.12021
4.96532
4.79058
4.65547
5.10805
4.94971
4.77139
4.63474
5.10368
4.94367
4.76362
4.62567
5.10674
4.94642
4.76622
4.62785
5.11646
4.95705
4.7777
4.63994
5.13175
4.97427
4.79728
4.66097
5.1521
4.99754
4.82361
4.68961
5.17666
5.02586
4.8562
4.72497
5.20441
5.0582
4.89327
4.76558
5.23438
5.09342
4.93442
4.81076
5.2664
5.13141
4.97861
4.85953
5.29991
5.17146
5.02579
4.91143
5.334
5.21259
5.07414
4.96505
5.36772
5.25357
5.12323
5.01978
5.40093
5.29437
5.17208
5.0747
5.43334
5.33452
5.22088
5.12967
5.46449
5.37357
5.26841
5.18376
5.49396
5.41092
5.31481
5.23695
5.52252
5.44721
5.35973
5.28874
5.55049
5.48273
5.40381
5.33926
5.57729
5.51711
5.44645
5.38847
5.60252
5.54973
5.48756
5.43609
5.6262
5.58065
5.52653
5.48153
5.64812
5.60958
5.56353
5.52472
5.66785
5.63607
5.59758
5.56491
5.68505
5.65961
5.62865
5.60197
5.70005
5.68061
5.65666
5.63584
5.71367
5.69996
5.68284
5.6675
5.72663
5.7186
5.70791
5.69752
5.73131
5.72884
5.72527
5.72117
925.337
902.779
1272
1144.68
1056.25
1305.37
1543.73
1451.08
1218.59
1232.21
1244.53
1255.1
1261.93
1260.75
1254.23
1244.69
1117.98
1007.39
1047.91
765.456
692.791
880.631
966.614
912.059
810.6
1146.9
1333.6
1224.68
1234.12
1250.2
1261.11
1266.44
1265.44
1260
1158.09
967.304
955.438
1004.99
598.817
660.677
677.767
799.299
749.368
766.536
788.456
926.913
1131.12
1168.75
1241.16
1261.34
1245.22
1106.91
975.452
928.502
935.582
941.262
957.852
656.255
692.859
706.402
712.377
747.825
765.377
775.449
776.137
848.336
1026.26
1050.95
1023.38
915.164
891.096
904.589
918.165
932.518
936.765
942.985
681.276
693.709
707.891
726.407
746.336
763.879
778.512
793.543
780.899
772.022
804.618
856.084
877.032
893.636
908.184
920.776
930.623
935.891
939.654
661.339
689.165
706.456
725.751
745.569
764.261
781.699
798.97
815.426
827.841
848.377
866.102
883.614
899.563
913.64
925.483
934.076
937.717
930.589
294.913
482.496
647.04
721.48
744.382
765.933
785.839
804.625
822.834
840.43
857.69
874.985
891.624
907.092
920.614
931.668
939.321
941.807
933.817
5.62879
28.8876
152.108
374.974
601.156
737.898
787.433
810.386
831.002
849.369
866.801
883.862
900.406
915.597
928.74
939.253
946.416
947.043
937.015
4.73115
4.73805
4.6945
7.02495
62.307
204.277
456.48
711.023
831.099
858.045
877.772
894.618
910.336
925.112
937.902
948.048
954.99
955.535
938.554
4.66373
4.56009
4.49313
4.4596
4.43546
4.39058
8.9549
85.2047
329.107
711.392
883.661
905.246
922.017
936.189
948.096
957.349
963.519
969.748
986.508
4.61999
4.53845
4.46098
4.3768
4.28193
4.22576
4.22055
4.26114
4.29138
35.6736
265.777
698.913
912.149
947.397
960.166
967.31
971.936
1024.3
1115.95
4.57324
4.50561
4.436
4.35954
4.27763
4.20896
4.13739
4.07331
4.07522
4.0949
3.97928
9.02129
162.909
574.984
860.882
940.65
962.26
986.936
823.241
4.5375
4.47595
4.41206
4.34134
4.27201
4.20812
4.14942
4.08831
4.1644
3.95372
3.88822
3.8753
3.84369
3.71017
68.9359
239.098
301.855
200.211
85.2152
4.51506
4.45452
4.39312
4.32719
4.26405
4.20618
4.2499
5.01512
5.1365
4.5519
3.90121
3.8511
3.83508
3.88458
4.5497
6.34135
6.22761
3.62728
3.69888
4.50575
4.44486
4.38478
4.32032
4.25887
4.20163
4.25868
5.17899
5.19616
4.98829
3.95142
3.90902
4.71385
6.10575
5.89342
5.1864
4.12343
3.81239
3.78592
4.50743
4.44734
4.38791
4.32437
4.26328
4.20534
4.21224
4.26317
4.58319
4.24308
3.9582
3.91767
5.76579
6.47159
6.35094
5.3248
4.31354
3.88096
3.85174
4.5196
4.4606
4.40169
4.33908
4.27858
4.22094
4.16441
4.1093
4.05914
4.01767
3.98384
3.9548
4.40679
4.69972
4.11528
3.83603
3.84601
3.88649
3.90469
4.54142
4.4831
4.42482
4.36327
4.30391
4.24751
4.19373
4.14336
4.09805
4.05964
4.02908
4.02627
3.96116
3.93461
3.9227
3.91943
3.92963
3.95128
3.97223
4.57166
4.51383
4.45625
4.39573
4.33778
4.28327
4.23239
4.18552
4.14404
4.10883
4.08028
4.05727
4.02624
4.00829
3.99999
4.0006
4.01011
4.0259
4.0399
4.60888
4.55173
4.49492
4.43545
4.37884
4.32626
4.27808
4.23446
4.19611
4.1635
4.13609
4.11224
4.09243
4.07916
4.07359
4.07554
4.08358
4.09553
4.10423
4.65218
4.59571
4.53979
4.48142
4.42605
4.37503
4.32893
4.28784
4.25196
4.22144
4.19596
4.17502
4.15869
4.14806
4.14387
4.14573
4.15219
4.16046
4.16657
4.7003
4.64482
4.58985
4.53261
4.47841
4.42864
4.38401
4.34465
4.31055
4.28166
4.25782
4.23874
4.2244
4.21527
4.21159
4.21286
4.21764
4.22359
4.22746
4.75261
4.6981
4.64419
4.5881
4.53502
4.48632
4.44273
4.40449
4.37157
4.34381
4.32103
4.30305
4.2898
4.28138
4.27775
4.27834
4.28192
4.28643
4.28903
4.80795
4.75466
4.70192
4.64707
4.5951
4.54738
4.50463
4.46712
4.43489
4.40777
4.38558
4.36816
4.35538
4.34719
4.34337
4.34334
4.34604
4.34982
4.35205
4.86568
4.81366
4.76226
4.70877
4.65799
4.61123
4.56925
4.53229
4.50046
4.47367
4.45173
4.43449
4.4218
4.41357
4.40947
4.40893
4.41107
4.41448
4.41667
4.92471
4.87434
4.82448
4.77254
4.72308
4.67738
4.63618
4.59977
4.56825
4.54161
4.51974
4.5025
4.48973
4.48133
4.47691
4.47598
4.47773
4.48091
4.48328
4.9846
4.93599
4.88792
4.83776
4.78982
4.74533
4.70503
4.66923
4.63808
4.61162
4.58979
4.5725
4.55961
4.55098
4.54628
4.54499
4.54645
4.5495
4.55201
5.04453
4.99801
4.95199
4.90387
4.85767
4.81459
4.77538
4.74037
4.70975
4.68359
4.6619
4.6446
4.63161
4.62278
4.61779
4.6162
4.61737
4.62029
4.62284
5.10425
5.05985
5.01617
4.97034
4.92613
4.88471
4.84683
4.81285
4.78297
4.75731
4.73589
4.71869
4.70568
4.6967
4.69145
4.68952
4.69036
4.69311
4.69552
5.16321
5.12103
5.08002
5.03674
4.99479
4.95529
4.91901
4.8863
4.8574
4.83243
4.81146
4.79453
4.7816
4.77251
4.76701
4.76474
4.76518
4.76752
4.76978
5.22111
5.18154
5.1433
5.10276
5.06329
5.02597
4.99152
4.96032
4.93261
4.90854
4.88822
4.87171
4.85896
4.84985
4.84414
4.84147
4.84144
4.84328
4.84519
5.27734
5.24141
5.20577
5.16808
5.13128
5.09632
5.0639
5.03441
5.00809
4.98514
4.96567
4.94975
4.93733
4.92829
4.9224
4.91936
4.91882
4.91998
4.92143
5.33252
5.29976
5.26699
5.23229
5.19828
5.16586
5.13565
5.10807
5.08336
5.06173
5.04331
5.02814
5.0162
5.00735
5.00138
4.99798
4.99691
4.99753
4.9986
5.38593
5.35633
5.32653
5.29493
5.26386
5.23412
5.20631
5.18081
5.1579
5.13779
5.1206
5.10638
5.09509
5.08658
5.08064
5.077
5.07548
5.07557
5.07642
5.43731
5.41076
5.384
5.3556
5.32759
5.30068
5.27542
5.25218
5.23124
5.21282
5.19705
5.18398
5.17355
5.16558
5.15984
5.15609
5.15421
5.15399
5.15458
5.48607
5.46263
5.43899
5.41389
5.38907
5.36514
5.34258
5.32175
5.30294
5.28639
5.27224
5.26055
5.25121
5.24401
5.23868
5.23507
5.23303
5.23248
5.23288
5.53197
5.5116
5.49115
5.46947
5.44799
5.42719
5.40749
5.38923
5.37269
5.35816
5.34583
5.33575
5.32779
5.32166
5.31703
5.3137
5.31164
5.31091
5.31105
5.5746
5.55744
5.54028
5.52213
5.50412
5.48662
5.46997
5.45444
5.44034
5.42798
5.41763
5.40943
5.40322
5.39851
5.3948
5.39194
5.38995
5.38901
5.38897
5.61416
5.6002
5.58639
5.57189
5.55752
5.54351
5.5301
5.51751
5.50601
5.49594
5.48771
5.48168
5.47769
5.47479
5.47219
5.4698
5.46788
5.46676
5.46644
5.65099
5.64017
5.62979
5.61907
5.6085
5.59819
5.58827
5.57885
5.57014
5.5625
5.55644
5.55268
5.55176
5.55099
5.54952
5.54756
5.54557
5.54401
5.5433
5.68492
5.67693
5.67011
5.6633
5.65667
5.6502
5.64393
5.63789
5.63219
5.62711
5.62308
5.62125
5.62607
5.62764
5.62707
5.62536
5.62309
5.62079
5.6192
5.71515
5.71167
5.70912
5.70669
5.70433
5.70203
5.69977
5.69757
5.6954
5.6934
5.69142
5.68991
5.69485
5.69678
5.69697
5.69631
5.69523
5.694
5.69306
)
;

boundaryField
{
    leftWall
    {
        type            fixedFluxPressure;
        gradient        uniform 0;
        value           nonuniform List<scalar> 
50
(
5176.18
5175.69
5169.78
5156.83
5089.06
2463.48
1231.27
1228
1222.91
1214.83
1206.08
1067.59
814.61
625.054
639.76
438.992
58.4658
6.28736
6.28718
6.28407
6.28241
6.28052
6.27717
6.27271
6.26653
6.25821
6.24786
6.23567
6.22186
6.20664
6.19024
6.17285
6.15467
6.13577
6.11623
6.09606
6.07525
6.05378
6.03164
6.00883
5.98542
5.96144
5.93702
5.91225
5.88725
5.86206
5.8368
5.81163
5.78669
5.75498
)
;
    }
    rightWall
    {
        type            fixedFluxPressure;
        gradient        uniform 0;
        value           nonuniform List<scalar> 
50
(
2464.87
2323.75
2073.87
1566.17
1339.12
1144.16
1131.23
1104.34
1047.91
1004.99
957.852
942.985
939.654
930.589
933.817
937.015
938.554
986.508
1115.95
823.241
85.2152
3.69888
3.78592
3.85174
3.90469
3.97223
4.0399
4.10423
4.16657
4.22746
4.28903
4.35205
4.41667
4.48328
4.55201
4.62284
4.69552
4.76978
4.84519
4.92143
4.9986
5.07642
5.15458
5.23288
5.31105
5.38897
5.46644
5.5433
5.6192
5.69306
)
;
    }
    lowerWall
    {
        type            fixedFluxPressure;
        gradient        uniform 0;
        value           nonuniform List<scalar> 
62
(
5176.18
5176.77
5200.08
5245.7
5310.64
5391.73
5485.4
5587.45
5693.25
5798.27
5899.02
5994.14
6083.11
6165.06
6239.52
6306.89
6366.28
6413.47
6443.04
6449.4
6427.77
6379.91
6321.14
6321.14
6297.83
6270.96
6237.61
6197.24
6154.31
5058.35
1513.18
1722.47
1799.65
1719.25
1472.53
2909.15
2801.97
1904.77
1673.69
2143.24
2392.75
2296.44
870.422
2909.15
2928.86
2948.95
2977.19
3023.64
3022.58
3001.68
3052.5
3074.01
3040.3
2973.79
2920.08
2774.22
2651.24
2559.36
2508.87
2487.99
2478.99
2464.87
)
;
    }
    atmosphere
    {
        type            prghTotalPressure;
        rho             rho;
        psi             none;
        gamma           1;
        p0              uniform 0;
        value           nonuniform List<scalar> 
46
(
5.72904
5.72904
5.72904
5.72904
5.72904
5.72904
5.72904
5.72904
5.72904
5.72904
5.72904
5.72904
5.72904
5.72904
5.72904
5.72904
5.72904
5.72904
5.72904
5.72904
5.72904
5.72904
5.72904
5.72904
5.72904
5.72904
5.72904
5.72904
5.72904
5.72904
5.72904
5.72904
5.72904
5.72904
5.72904
5.72904
5.72904
5.72904
5.72904
5.72904
5.72904
5.72904
5.72904
5.72904
5.72904
5.72904
)
;
        rho             rho;
    }
    defaultFaces
    {
        type            empty;
    }
}


// ************************************************************************* //
