/*--------------------------------*- C++ -*----------------------------------*\
  =========                 |
  \\      /  F ield         | OpenFOAM: The Open Source CFD Toolbox
   \\    /   O peration     | Website:  https://openfoam.org
    \\  /    A nd           | Version:  13
     \\/     M anipulation  |
\*---------------------------------------------------------------------------*/
FoamFile
{
    format      ascii;
    class       volScalarField;
    location    "1.75";
    object      rho;
}
// * * * * * * * * * * * * * * * * * * * * * * * * * * * * * * * * * * * * * //

dimensions      [1 -3 0 0 0 0 0];

internalField   nonuniform List<scalar> 
2268
(
13529
13529
13529
13529
13529
13529
13529
13529
13529
13529
13529
13529
13529
13529
13529
13529
13529
13529
13529
13528.6
13523.6
13521.6
13521.6
13529
13529
13529
13529
13529
13529
13529
13529
13529
13529
13529
13529
13529
13529
13529
13529
13529
13529
13529
13529
13528.7
13526.7
13526
13529
13529
13529
13529
13529
13529
13529
13529
13529
13529
13529
13529
13529
13529
13529
13529
13529
13529
13529
13529
13529
13529
13529
13529
13529
13529
13529
13529
13529
13529
13529
13529
13529
13529
13529
13529
13529
13529
13529
13529
13529
13529
13529
13529
13529
13529
13335.4
13179.5
13219.7
13450.2
13529
13529
13529
13529
13529
13529
13529
13529
13529
13529
13529
13529
13529
13529
13529
13529
13529
13529
13529
4473.37
4551.78
4871.68
5528.67
6740.75
8291.98
9903.11
11365.8
12565.4
13405.8
13529
13529
13529
13529
13529
13529
13529
13529
13529
13529
13529
13529
13529
1000
1000
1000
1000
1003.09
1111.82
1481.5
2231.07
3381.75
4869.73
6865.69
8799.11
10477.3
11852.9
12530
12605.7
12701.3
12892.3
12906.9
12723.2
12358.4
11516.2
10525.8
1000
1000
1000
1000
1000
1000
1000
1000
1000
1000
1007.75
1175.76
1569.51
1997.8
2488.45
3465.65
4471.4
4848.22
4906.1
4746.41
4023.64
2811.94
1942.6
11885
11926.6
11938.3
11934
11827.1
10086.3
7836.52
7828.37
7958.3
7910.92
8318.38
9836.23
9805.76
9772.9
9752.02
9723.53
9706.41
9704.26
9688.14
10235.5
10574.9
11397.8
11213.5
11372.9
11424.6
11397.4
11320.7
10823.8
10239
10223.3
9949.54
9402.39
8921.04
8421.75
8348.45
8567.15
8305.14
7345.73
2561.05
2674.52
4147.62
5708.74
6189.65
8028.65
10453.5
11093.7
11031
11041.3
9900.83
8470.84
5963.3
4660.38
4051.57
3935.43
3817.06
4156.75
5251.44
1319.15
1070.04
1111.77
2318.57
3287.75
3193.24
3249.4
4742.12
6332.9
5830.74
4120.98
3117.65
3213.65
3313.07
2909.23
2487.62
2082.18
2268.07
2397.03
3460.96
2337.44
1454.86
1380.67
2321.79
1735.29
1181.9
1058.42
1089.91
2764.63
3118.78
2948.65
2376.82
1665.58
1546.38
1717.38
2111.61
1894.45
1452.81
4524.79
3399.9
2085.23
1432.04
1831.64
2003.59
1360.97
1058.9
924.233
505.74
1017.91
1106.64
501.876
748.064
963.784
979.197
1076.38
1019.64
809.502
4427.58
4403.49
2708.78
1759.61
1369
1770.94
1934.63
1169.67
1003.09
877.966
696.31
650.242
768.21
929.938
999.221
958.626
944.723
914.154
785.649
997.36
2954.41
2891.9
1699.78
865.134
1581.59
1898.56
1441.54
1001
1000.56
993.002
983.886
986.801
999.574
1000.79
1000.38
856.292
838.699
734.728
1000
1000
1000
1000
1000
1000
1000
1000
1000
1000
1000
1000
1000
1000
1000
1000
1000
999.996
999.929
999.614
998.915
997.61
995.13
1000
1000
1000
1000
1000
1000
1000
1000
1000
1000
1000
1000
1000
1000
1000
1000
1000
999.999
999.999
999.999
999.146
994.143
981.582
1000
1000
999.856
1000
1000
1000
1000
1000
1000
1000
1000
1000
1000
1000
1000
1000
999.521
994.626
969.532
933.027
887.71
812.465
722.67
847.057
932.526
956.912
974.744
987.26
995.301
988.552
979.751
978.697
979.91
976.111
963.761
947.04
933.321
922.085
899.622
858.582
787.202
686.095
593.661
497.735
449.308
464.539
593.84
560.107
590.233
609.816
637.994
646.499
653.349
652.803
642.576
630.365
614.199
591.924
561.872
525.879
495.997
482.224
455.469
429.065
429.216
444.637
479.464
499.53
499.83
425.549
491.967
494.759
494.89
487.043
446.208
443.735
462.194
471.979
467.178
458.916
459.807
466.236
480.675
493.702
497.771
498.339
497.522
493.972
486.537
476.305
462.632
452.255
440.213
479.338
483.387
490.976
490.976
490.724
490.573
490.62
490.51
487.017
481.391
471.945
458.118
437.602
409.419
376.452
339.502
287.564
238.21
191.324
147.713
112.701
93.1887
292.141
262.236
253.746
251.754
235.911
226.424
214.045
195.934
174.476
154.37
133.857
111.642
87.4857
62.4643
38.6619
18.071
1.00001
1.00006
1.00007
1.00004
1.00002
1.00001
1
33.6528
52.6994
41.6003
11.8443
2.09611
1.45911
1.0887
1.00034
1.00017
1.00018
1.00032
1.00067
1.00062
1.00026
1.0001
1.00005
1.00006
1.00003
1.00001
1.00002
1.00003
1.00001
1.00001
1.00033
1.00043
6.42429
3.56281
1.00984
1.00119
1.00004
1.00003
1.00015
1.00036
1.00775
1.01032
1.00318
1.00052
1.00012
1.0002
1.00039
1.00037
1.00034
1.00028
1.00023
1.0002
1.00009
1.00032
1.00331
1.73401
1.80523
1.01516
1.00071
1.00004
1.00009
1.00021
1.0099
1.08063
1.089
1.03359
1.00184
1.00095
1.00161
1.00184
1.00116
1.00064
1.00039
1.00033
1.00025
1.00011
1.00041
1.01215
1.001
1.1392
1.00212
1.00015
1.00006
1.00014
1.00017
1.06909
1.08805
1.08874
1.05696
1.0033
1.00241
1.003
1.00296
1.00112
1.00044
1.00022
1.00019
1.00015
1.00007
1.00041
1.00038
1.00028
1.00012
1.00032
1.00007
1.00009
1.00015
1.00055
1.06687
1.08631
1.08728
1.03154
1.00314
1.00313
1.00304
1.00191
1.00039
1.00014
1.00005
1.00007
1.00005
1.00002
1.00048
1.00065
1.00031
1.0001
1.0001
1.00006
1.00008
1.00012
1.00034
1.00026
1.03697
1.03998
1.00103
1.0027
1.00259
1.00087
1.00002
1.00008
1.00005
1.00003
1.00003
1.00002
1.00001
1.00018
1.0003
1.00014
1.00007
1.00006
1.00005
1.00007
1.00014
1.0007
1.00001
1.00001
1.00001
1.00005
1.00089
1.00011
1
1.00001
1.00002
1.00002
1.00002
1.00002
1.00001
1.00001
1.00005
1.00008
1.00007
1.00005
1.00004
1.00004
1.00003
1.00002
1.00001
1.00001
1.00001
1.00002
1.00033
1.00093
1.00011
1
1.00002
1.00002
1.00002
1.00001
1.00001
1.00001
1.00001
1.00004
1.00005
1.00005
1.00005
1.00004
1.00002
1.00002
1.00001
1.00001
1.00001
1.00001
1.00007
1.00055
1.00078
1
1.00001
1.00002
1.00002
1.00001
1.00001
1.00001
1.00001
1.00001
1.00004
1.00005
1.00005
1.00005
1.00003
1.00002
1.00001
1.00001
1.00001
1.00001
1.00002
1.00009
1.0002
1.00005
1.00001
1.00002
1.00002
1.00001
1.00001
1.00001
1.00001
1.00001
1
1.00004
1.00004
1.00005
1.00004
1.00003
1.00002
1.00001
1.00001
1.00001
1.00001
1.00001
1.00002
1
1
1.00001
1.00001
1.00001
1.00001
1.00001
1
1
1
1
1.00003
1.00003
1.00004
1.00004
1.00003
1.00002
1.00001
1.00001
1.00001
1.00001
1
1
1
1
1.00001
1.00001
1.00001
1
1
1
1
1
1
1.00002
1.00003
1.00003
1.00003
1.00002
1.00002
1.00001
1.00001
1.00001
1
1
1
1
1
1
1
1
1
1
1
1
1
1
1.00002
1.00002
1.00002
1.00002
1.00002
1.00001
1.00001
1
1
1
1
1
1
1
1
1
1
1
1
1
1
1
1
1.00001
1.00001
1.00001
1.00001
1.00001
1.00001
1.00001
1
1
1
1
1
1
1
1
1
1
1
1
1
1
1
1
1.00001
1.00001
1.00001
1.00001
1.00001
1.00001
1.00001
1
1
1
1
1
1
1
1
1
1
1
1
1
1
1
1
1.00001
1.00001
1
1
1
1
1
1
1
1
1
1
1
1
1
1
1
1
1
1
1
1
1
1.00001
1
1
1
1
1
1
1
1
1
1
1
1
1
1
1
1
1
1
1
1
1
1
1
1
1
1
1
1
1
1
1
1
1
1
1
1
1
1
1
1
1
1
1
1
1
1
1
1
1
1
1
1
1
1
1
1
1
1
1
1
1
1
1
1
1
1
1
1
1
1
1
1
1
1
1
1
1
1
1
1
1
1
1
1
1
1
1
1
1
1
1
1
1
1
1
1
1
1
1
1
1
1
1
1
1
1
1
1
1
1
1
1
1
1
1
1
1
1
1
1
1
1
1
1
1
1
1
1
1
1
1
1
1
1
1
1
1
1
1
1
1
1
1
1
1
1
1
1
1
1
1
1
1
1
1
1
1
1
1
1
1
1
1
1
1
1
1
1
1
1
1
1
1
1
1
1
1
1
1
1
1
1
1
1
1
1
1
1
1
1
1
1
1
1
1
1
1
1
1
1
1
1
1
1
1
1
1
1
1
1
1
1
1
1
1
1
1
1
1
1
1
1
1
1
1
1
1
1
1
1
1
1
1
1
1
1
1
1
1
1
1
1
1
1
1
1
1
1
1
1
1
1
1
1
1
1
1
1
1
1
1
1
1
1
1
1
1
1
1
1
1
1
1
1
1
1
1
1
1
1
1
1
1
1
1
1
1
1
1
1
1
1
1
1
1
1
1
1
1
1
1
1
1
1
1
1
1
1
1
1
1
1
1
1
1
1
1
1
1
1
1
1
1
1
1
1
1
1
1
1
1
1
1
1
1
1
1
1
1
1
1
1
1
1
1
1
1
1
1
1
1
1
1
1
1
1
1
1
1
1
1
1
1
1
1
1
1
1
1
1
1
1
1
1
1
1
1
1
1
1
1
1
1
1
1
1
1
1
1
1
2159.97
2297.7
2167.81
1767.51
974.98
946.256
924.849
918.364
655.743
579.481
543.801
465.11
495.241
499.056
498.895
443.043
499.898
500
500
500
446.906
450.19
458.913
471.015
89.7516
96.6428
114.162
144.831
1.00001
1.00014
1.00017
1.00018
1.00001
1.00001
1
1
1.00006
1.00005
1.00002
1.00002
1.0001
1.00007
1.00006
1.00005
1.00007
1.00007
1.00006
1.00005
1.00003
1.00002
1.00003
1.00003
1.00001
1.00001
1.00001
1.00001
1.00001
1.00001
1.00001
1.00001
1.00001
1.00001
1.00001
1.00001
1
1
1
1
1
1
1
1
1
1
1
1
1
1
1
1
1
1
1
1
1
1
1
1
1
1
1
1
1
1
1
1
1
1
1
1
1
1
1
1
1
1
1
1
1
1
1
1
1
1
1
1
1
1
1
1
1
1
1
1
1
1
1
1
1
1
1
1
1
1
1
1
1
1
1
1
1
1
1
1
1
1
1
1
1
1
1
1
1
1
1
1
1
1
1
1
1
1
1
1
1
1
1
1
924.919
838.457
1461.18
1113.5
896.805
1340.21
1717.33
1475.64
1001.12
1001.15
1001.82
1001.72
1000.64
1000.33
1000.04
1001.54
783.084
572.226
631.361
635.531
502.594
765.106
829.437
706.036
539.716
1018.57
1242.23
1018.57
1000.1
1000.48
1000.47
999.781
999.357
994.45
839.385
540.025
507.723
574.248
404.467
463.075
470.658
592.37
495.512
498.252
516.769
666.78
886.647
901.921
972.279
982.668
951.65
765.987
588.105
514.18
504.114
500.661
517.584
473.964
500.004
500.076
485.382
499.34
501.253
500.006
486.281
547.842
722.151
729.966
681.98
546.065
501.897
500.023
500.198
502.929
500.228
504.501
500.002
500.003
500
500.001
500.022
500.262
500.037
499.931
473.631
451.091
466.193
498.078
500.035
499.966
499.979
499.956
499.86
500.038
502.418
490.096
500
500
500
500.001
500.006
500.01
500.009
499.406
495.881
499.24
499.845
499.992
499.964
499.965
499.999
499.999
499.808
493.092
208.818
345.193
458.992
500
500
500.001
500.003
500.006
500.005
500.001
500.024
500.114
499.992
499.994
499.992
499.999
500
499.468
493.058
1.23152
16.6594
99.6413
249.746
398.825
481.235
500.001
500.003
500.003
500.001
500.008
500.014
500.009
500
500
499.999
500
498.372
491.406
1.00048
1.00016
1.00061
2.44096
36.6716
124.46
280.244
434.054
497.512
500.001
500.007
500.008
500.003
500
500
500.008
500.013
498.441
487.852
1.00002
1.00001
1.00004
1.00031
1.00102
1.00175
3.53923
47.08
187.371
407.451
499.223
499.999
499.999
500
500.007
500.011
500.021
502.299
513.414
1.00005
1.00003
1.00003
1.00002
1.00008
1.00033
1.00022
1.00125
1.00262
17.7062
141.65
376.667
488.361
499.33
500.03
500.188
500.703
529.591
583.135
1.00005
1.00004
1.00005
1.00014
1.0002
1.00015
1.00007
1.00005
1.00009
1.00145
1.00241
3.57063
81.5145
291.993
437.744
477.286
487.796
500.615
417.084
1.00003
1.00003
1.00007
1.00021
1.00029
1.00023
1.00134
1.00007
1.0644
1.00049
1.00051
1.00048
1.00153
1.00257
32.3576
114.546
144.824
95.3547
39.9067
1.00002
1.00003
1.00008
1.00019
1.00026
1.00023
1.04661
1.42212
1.50469
1.2684
1.00034
1.00004
1.00116
1.01149
1.33842
2.2939
2.29926
1.00029
1.0001
1.00001
1.00002
1.00007
1.00015
1.00024
1.00019
1.0491
1.47461
1.50599
1.44059
1.00962
1.01189
1.37543
1.98372
1.89711
1.61398
1.16577
1.01713
1.00374
1.00001
1.00001
1.00003
1.00007
1.00017
1.00018
1.02686
1.07299
1.22737
1.10604
1.00219
1.00083
1.78293
2.08745
2.0505
1.63767
1.21889
1.03127
1.0071
1
1
1.00001
1.00003
1.00007
1.00021
1.00012
1.00011
1.00023
1.00025
1.00016
1.00334
1.19928
1.32803
1.10696
1.00001
1.00016
1.00417
1.00103
1
1
1.00001
1.00001
1.00003
1.00009
1.00011
1.00014
1.0002
1.00028
1.00116
1.01254
1.00094
1.00002
1.00002
1.00002
1.00002
1.00008
1.00015
1
1
1
1.00001
1.00002
1.00004
1.00006
1.00008
1.00011
1.00022
1.00077
1.0024
1.00024
1.00003
1.00003
1.00006
1.00011
1.0002
1.00041
1
1
1
1
1.00001
1.00002
1.00003
1.00005
1.00007
1.0001
1.00014
1.00006
1.00002
1.00003
1.00005
1.00009
1.00016
1.00048
1.00051
1
1
1
1
1
1.00001
1.00001
1.00002
1.00003
1.00003
1.00002
1.00001
1.00002
1.00003
1.00005
1.00009
1.00017
1.00028
1.00049
1
1
1
1
1
1
1
1.00001
1.00001
1.00001
1.00001
1.00001
1.00001
1.00002
1.00003
1.00005
1.00006
1.0001
1.00019
1
1
1
1
1
1
1
1
1
1
1
1
1.00001
1.00001
1.00001
1.00002
1.00003
1.00002
1.00003
1
1
1
1
1
1
1
1
1
1
1
1
1
1
1.00001
1.00001
1.00001
1.00001
1.00001
1
1
1
1
1
1
1
1
1
1
1
1
1
1
1
1.00001
1.00001
1.00001
1.00001
1
1
1
1
1
1
1
1
1
1
1
1
1
1
1
1.00001
1.00001
1.00001
1.00001
1
1
1
1
1
1
1
1
1
1
1
1
1
1
1
1.00001
1.00001
1.00001
1.00001
1
1
1
1
1
1
1
1
1
1
1
1
1
1
1
1.00001
1.00002
1.00004
1.00002
1
1
1
1
1
1
1
1
1
1
1
1
1
1
1
1.00001
1.00002
1.00005
1.00002
1
1
1
1
1
1
1
1
1
1
1
1
1
1
1
1.00001
1.00003
1.00005
1.00003
1
1
1
1
1
1
1
1
1
1
1
1
1
1
1
1.00001
1.00004
1.00005
1.00003
1
1
1
1
1
1
1
1
1
1
1
1
1
1
1
1.00001
1.00005
1.00005
1.00003
1
1
1
1
1
1
1
1
1
1
1
1
1
1
1
1.00001
1.00005
1.00005
1.00002
1
1
1
1
1
1
1
1
1
1
1
1
1
1
1
1.00001
1.00004
1.00004
1.00001
1
1
1
1
1
1
1
1
1
1
1
1
1
1
1
1.00001
1.00002
1.00002
1.00001
1
1
1
1
1
1
1
1
1
1
1
1
1
1
1
1.00001
1.00001
1.00001
1
1
1
1
1
1
1
1
1
1
1
1
1
1
1
1
1.00001
1
1
1
1
1
1
1
1
1
1
1
1
1
1
1
1
1
1
1
1
1
1
1
1
1
1
1
1
1
1
1
1
1
1
1
1
1
1
1
1
1
1
1
1
1
1
1
1
1
1
1
1
1
1
1
1
1
1
1
1
1
1
1
1
1
1
1
1
1
1
1
1
1
1
1
1
1
1
1
1
1
1
1
1
1
1
1
1
1
1
1
1
1
1
1
1
1
1
)
;

boundaryField
{
    leftWall
    {
        type            calculated;
        value           nonuniform List<scalar> 
50
(
13529
13529
13529
13529
13335.4
4473.37
1000
1000
1000
1000
1000
847.057
593.84
425.549
440.213
292.141
33.6528
1.00033
1.00032
1.00041
1.00041
1.00048
1.00018
1.00005
1.00004
1.00004
1.00004
1.00003
1.00002
1.00002
1.00001
1.00001
1.00001
1.00001
1
1
1
1
1
1
1
1
1
1
1
1
1
1
1
1
)
;
    }
    rightWall
    {
        type            calculated;
        value           nonuniform List<scalar> 
50
(
9688.14
7345.73
5251.44
2397.03
1452.81
809.502
785.649
734.728
631.361
574.248
517.584
504.501
502.418
493.092
493.058
491.406
487.852
513.414
583.135
417.084
39.9067
1.0001
1.00374
1.0071
1.00103
1.00015
1.00041
1.00051
1.00049
1.00019
1.00003
1.00001
1.00001
1.00001
1.00001
1.00002
1.00002
1.00003
1.00003
1.00003
1.00002
1.00001
1.00001
1
1
1
1
1
1
1
)
;
    }
    lowerWall
    {
        type            calculated;
        value           nonuniform List<scalar> 
62
(
13529
13529
13529
13529
13529
13529
13529
13529
13529
13529
13529
13529
13529
13529
13529
13529
13529
13529
13529
13528.6
13523.6
13521.6
13521.6
13521.6
13526
13529
13529
13529
13529
10525.8
1942.6
2159.97
2297.7
2167.81
1767.51
11885
10235.5
2561.05
1319.15
3460.96
4524.79
4427.58
997.36
11885
11926.6
11938.3
11934
11827.1
10086.3
7836.52
7828.37
7958.3
7910.92
8318.38
9836.23
9805.76
9772.9
9752.02
9723.53
9706.41
9704.26
9688.14
)
;
    }
    atmosphere
    {
        type            calculated;
        value           nonuniform List<scalar> 
46
(
1
1
1
1
1
1
1
1
1
1
1
1
1
1
1
1
1
1
1
1
1
1
1
1
1
1
1
1
1
1
1
1
1
1
1
1
1
1
1
1
1
1
1
1
1
1
)
;
    }
    defaultFaces
    {
        type            empty;
    }
}


// ************************************************************************* //
