/*--------------------------------*- C++ -*----------------------------------*\
  =========                 |
  \\      /  F ield         | OpenFOAM: The Open Source CFD Toolbox
   \\    /   O peration     | Website:  https://openfoam.org
    \\  /    A nd           | Version:  13
     \\/     M anipulation  |
\*---------------------------------------------------------------------------*/
FoamFile
{
    format      ascii;
    class       volVectorField;
    location    "1.75";
    object      U;
}
// * * * * * * * * * * * * * * * * * * * * * * * * * * * * * * * * * * * * * //

dimensions      [0 1 -1 0 0 0 0];

internalField   nonuniform List<vector> 
2268
(
(-0.0163872 0.00656702 0)
(-0.0280717 0.00356103 0)
(-0.0407729 0.00329645 0)
(-0.0543563 0.00355576 0)
(-0.0676076 0.0037703 0)
(-0.0806868 0.00393685 0)
(-0.0936532 0.00409334 0)
(-0.106522 0.00418248 0)
(-0.118983 0.00408803 0)
(-0.13043 0.00374414 0)
(-0.140341 0.00323459 0)
(-0.148431 0.00260366 0)
(-0.154257 0.00176477 0)
(-0.15718 0.000701971 0)
(-0.156787 -0.000458441 0)
(-0.152722 -0.00175986 0)
(-0.144273 -0.00335519 0)
(-0.131015 -0.00498627 0)
(-0.113243 -0.00653163 0)
(-0.0913456 -0.00806954 0)
(-0.0660199 -0.00937282 0)
(-0.040546 -0.00937293 0)
(-0.0208349 -0.0114244 0)
(-0.0117975 0.0143768 0)
(-0.0240736 0.0102425 0)
(-0.0383112 0.0100522 0)
(-0.0532143 0.00997916 0)
(-0.0673869 0.00974128 0)
(-0.0810165 0.00955024 0)
(-0.0942308 0.00944387 0)
(-0.107066 0.00925383 0)
(-0.119239 0.00873024 0)
(-0.130195 0.00777901 0)
(-0.139474 0.00656139 0)
(-0.146816 0.00508241 0)
(-0.151778 0.00317873 0)
(-0.153741 0.000845564 0)
(-0.152374 -0.00169074 0)
(-0.147471 -0.00459583 0)
(-0.138433 -0.00804203 0)
(-0.125034 -0.0114662 0)
(-0.10781 -0.0145754 0)
(-0.0873437 -0.0173236 0)
(-0.0641852 -0.0191908 0)
(-0.0407809 -0.0187266 0)
(-0.0184977 -0.0188198 0)
(-0.00778144 0.0217834 0)
(-0.0224302 0.017194 0)
(-0.0374741 0.0171406 0)
(-0.0528599 0.0168524 0)
(-0.0673038 0.0163305 0)
(-0.081013 0.0158418 0)
(-0.0941283 0.0154393 0)
(-0.106642 0.0148723 0)
(-0.118257 0.0137869 0)
(-0.128449 0.0120582 0)
(-0.136859 0.00994392 0)
(-0.143277 0.00750253 0)
(-0.147266 0.00439267 0)
(-0.148227 0.000656606 0)
(-0.145966 -0.00332677 0)
(-0.140455 -0.007827 0)
(-0.131169 -0.0130369 0)
(-0.118027 -0.0180794 0)
(-0.101708 -0.0225193 0)
(-0.0828386 -0.0263218 0)
(-0.0617901 -0.0289713 0)
(-0.0402639 -0.0294376 0)
(-0.0176571 -0.0318333 0)
(-0.00410158 0.0282371 0)
(-0.0216125 0.0246784 0)
(-0.0370885 0.0246126 0)
(-0.052529 0.0241481 0)
(-0.0670306 0.0233053 0)
(-0.080765 0.022508 0)
(-0.093694 0.0217432 0)
(-0.105798 0.020709 0)
(-0.116773 0.0189416 0)
(-0.126135 0.0163387 0)
(-0.133591 0.0133593 0)
(-0.139027 0.00979692 0)
(-0.142031 0.00534844 0)
(-0.141997 0.000114667 0)
(-0.138907 -0.00533545 0)
(-0.132899 -0.0113713 0)
(-0.123445 -0.0182408 0)
(-0.110562 -0.0247663 0)
(-0.0950328 -0.0303868 0)
(-0.0774384 -0.0351583 0)
(-0.0579833 -0.038687 0)
(-0.0378955 -0.0404628 0)
(-0.0155434 -0.044525 0)
(-0.00413432 0.029092 0)
(-0.0217574 0.030029 0)
(-0.0367135 0.0302329 0)
(-0.0518913 0.0297242 0)
(-0.0663303 0.0287655 0)
(-0.079882 0.0278986 0)
(-0.092532 0.0270895 0)
(-0.104157 0.0258731 0)
(-0.114425 0.0236502 0)
(-0.122901 0.0203189 0)
(-0.129517 0.0163602 0)
(-0.134074 0.011702 0)
(-0.136088 0.00584469 0)
(-0.13509 -0.000934566 0)
(-0.131222 -0.00774484 0)
(-0.124744 -0.015239 0)
(-0.11512 -0.0237734 0)
(-0.102465 -0.0316979 0)
(-0.087622 -0.0383923 0)
(-0.0710811 -0.0440494 0)
(-0.0530089 -0.0484662 0)
(-0.034291 -0.0515657 0)
(-0.0129404 -0.0564142 0)
(-0.00922374 0.0390172 0)
(-0.0223998 0.0372559 0)
(-0.0359923 0.0368274 0)
(-0.0502224 0.0359787 0)
(-0.0643105 0.0347412 0)
(-0.0776963 0.0332885 0)
(-0.0900708 0.0318525 0)
(-0.101216 0.0299835 0)
(-0.110778 0.0270731 0)
(-0.118643 0.0230082 0)
(-0.124501 0.0182864 0)
(-0.128122 0.0127576 0)
(-0.129223 0.00575987 0)
(-0.127326 -0.0023595 0)
(-0.122853 -0.0104012 0)
(-0.116047 -0.0192916 0)
(-0.106265 -0.0293653 0)
(-0.0938341 -0.0385313 0)
(-0.0796623 -0.0461148 0)
(-0.0640361 -0.0525243 0)
(-0.047158 -0.0575648 0)
(-0.0296794 -0.0614722 0)
(-0.0111674 -0.0663917 0)
(-0.00392498 0.0533708 0)
(-0.015362 0.0459394 0)
(-0.0271897 0.044768 0)
(-0.0400722 0.0433758 0)
(-0.0538907 0.0406364 0)
(-0.0683591 0.038246 0)
(-0.0821921 0.0361619 0)
(-0.0940113 0.0338037 0)
(-0.103561 0.0303519 0)
(-0.111196 0.025789 0)
(-0.116896 0.0204096 0)
(-0.120116 0.0138222 0)
(-0.120438 0.00569861 0)
(-0.118111 -0.00350356 0)
(-0.113522 -0.012493 0)
(-0.106303 -0.0224479 0)
(-0.096333 -0.0335227 0)
(-0.0843984 -0.0433213 0)
(-0.0711554 -0.0513946 0)
(-0.0565808 -0.0582822 0)
(-0.0411781 -0.0637477 0)
(-0.0252611 -0.0684692 0)
(-0.0124788 -0.075035 0)
(0.00781755 0.0510576 0)
(-0.00158247 0.0520105 0)
(-0.00933413 0.0527291 0)
(-0.0177462 0.0526919 0)
(-0.0270931 0.052365 0)
(-0.0379476 0.0506727 0)
(-0.0503513 0.0475406 0)
(-0.0639217 0.0426211 0)
(-0.0772291 0.0363366 0)
(-0.089006 0.0293155 0)
(-0.0985595 0.0215235 0)
(-0.104347 0.013873 0)
(-0.105955 0.00480798 0)
(-0.104356 -0.00518865 0)
(-0.100118 -0.0146047 0)
(-0.0926938 -0.0255726 0)
(-0.0830893 -0.037989 0)
(-0.0722798 -0.0485837 0)
(-0.0602982 -0.0573008 0)
(-0.0470594 -0.0647685 0)
(-0.0333699 -0.0704267 0)
(-0.0186308 -0.0740186 0)
(-0.0146863 -0.0798227 0)
(0.0192896 -0.0123759 0)
(0.0490144 -0.0154754 0)
(0.083216 -0.0125728 0)
(0.104601 -0.0054388 0)
(0.11374 -0.00277248 0)
(0.112608 0.00144495 0)
(0.111519 -0.00187118 0)
(0.123968 -0.00719897 0)
(0.143526 -0.00637302 0)
(0.158395 -0.000105697 0)
(0.151995 0.00735137 0)
(0.130063 0.0111591 0)
(0.0962987 0.0146978 0)
(0.0577424 0.0113762 0)
(0.0263319 0.00900731 0)
(0.00503951 0.00432268 0)
(-0.00464761 -0.000358892 0)
(-0.000638012 -0.00438303 0)
(0.00581083 0.00149481 0)
(0.022223 -0.0201486 0)
(0.060971 -0.0230074 0)
(0.092142 -0.018808 0)
(0.106355 -0.00885552 0)
(0.10955 -0.00300561 0)
(0.110038 0.000561314 0)
(0.115173 -0.00433416 0)
(0.124677 -0.0104767 0)
(0.135033 -0.0103813 0)
(0.145496 -0.00429434 0)
(0.146864 0.00808731 0)
(0.134124 0.0162057 0)
(0.107404 0.0249109 0)
(0.0747189 0.0214207 0)
(0.0471233 0.0173943 0)
(0.0270129 0.0102593 0)
(0.0126936 0.00364426 0)
(0.0035917 -0.000710417 0)
(-0.00826185 0.00105432 0)
(0.0484132 -0.0280623 0)
(0.103535 -0.0300084 0)
(0.128806 -0.0214236 0)
(0.126355 -0.00960429 0)
(0.120784 -0.00306373 0)
(0.120955 -0.000436694 0)
(0.124269 -0.00580908 0)
(0.126843 -0.0119164 0)
(0.129166 -0.012054 0)
(0.133818 -0.00612266 0)
(0.135224 0.00990086 0)
(0.12652 0.0219232 0)
(0.108533 0.0346291 0)
(0.0848051 0.0317615 0)
(0.0644754 0.026285 0)
(0.0480832 0.0167137 0)
(0.0331372 0.00937747 0)
(0.0193135 0.00452723 0)
(0.0014282 -0.00115392 0)
(0.110082 -0.0812251 0)
(0.189278 -0.0684244 0)
(0.225668 -0.0107966 0)
(0.175231 -6.54899e-05 0)
(0.145198 -0.000804668 0)
(0.136218 -0.00100864 0)
(0.136078 -0.00592915 0)
(0.133122 -0.0121243 0)
(0.126077 -0.0122099 0)
(0.121202 -0.00725144 0)
(0.120066 0.0107452 0)
(0.115129 0.0259554 0)
(0.103053 0.0424409 0)
(0.0885519 0.0395538 0)
(0.0767123 0.032814 0)
(0.0666931 0.0224556 0)
(0.0573548 0.0151577 0)
(0.0459845 0.0103283 0)
(0.0384173 0.00977417 0)
(0.12291 -0.152542 0)
(0.174766 -0.125918 0)
(0.27834 -0.0169761 0)
(0.239865 0.0290247 0)
(0.170914 0.0127946 0)
(0.143504 0.00112149 0)
(0.147253 -0.00604035 0)
(0.145841 -0.00894737 0)
(0.12626 -0.00896964 0)
(0.109527 -0.00578556 0)
(0.102466 0.0125884 0)
(0.101732 0.0294759 0)
(0.098505 0.0474502 0)
(0.0915147 0.0439388 0)
(0.0885546 0.0357688 0)
(0.0853863 0.0264248 0)
(0.0771765 0.0185443 0)
(0.0624697 0.0138956 0)
(0.0520783 0.0337571 0)
(0.130038 -0.20509 0)
(0.141049 -0.166593 0)
(0.241048 -0.0398731 0)
(0.252697 0.0514067 0)
(0.178434 0.0382882 0)
(0.135071 0.00771838 0)
(0.135152 -0.00911732 0)
(0.144552 -0.00403432 0)
(0.130079 0.00395438 0)
(0.103894 0.0010155 0)
(0.0896101 0.0130714 0)
(0.0883769 0.0287083 0)
(0.0900399 0.0484404 0)
(0.0970057 0.0444453 0)
(0.104642 0.0352915 0)
(0.107727 0.0285585 0)
(0.0954894 0.0240929 0)
(0.0678261 0.0228838 0)
(0.0346715 0.0612403 0)
(0.142232 -0.252996 0)
(0.114539 -0.190119 0)
(0.185865 -0.0631485 0)
(0.218025 0.055563 0)
(0.168008 0.0659736 0)
(0.119936 0.0161492 0)
(0.115587 -0.0123596 0)
(0.123148 -0.00234013 0)
(0.114318 0.0112438 0)
(0.0923776 0.0138875 0)
(0.0796397 0.0173127 0)
(0.0783772 0.0276477 0)
(0.0897108 0.04409 0)
(0.10548 0.0387791 0)
(0.11694 0.0311149 0)
(0.123563 0.0292704 0)
(0.109685 0.0356526 0)
(0.0699252 0.0424948 0)
(0.017417 0.0775084 0)
(0.166924 -0.299458 0)
(0.0967753 -0.199507 0)
(0.134045 -0.0750938 0)
(0.165566 0.0567571 0)
(0.139154 0.0888577 0)
(0.103552 0.0258679 0)
(0.0954684 -0.0124473 0)
(0.0975877 -0.0034608 0)
(0.0932755 0.0172102 0)
(0.0790605 0.0185858 0)
(0.0728707 0.019216 0)
(0.0766169 0.0257904 0)
(0.091111 0.0351547 0)
(0.10907 0.0322819 0)
(0.120931 0.027299 0)
(0.126595 0.0295234 0)
(0.113057 0.0485019 0)
(0.0684155 0.065357 0)
(0.00750265 0.0911278 0)
(0.0138439 0.0425051 0)
(0.0107922 0.0520363 0)
(0.00842332 0.0543531 0)
(0.0051708 0.0548269 0)
(0.00176355 0.0544094 0)
(-0.00197672 0.0541883 0)
(-0.00641497 0.0535117 0)
(-0.0115877 0.0515996 0)
(-0.0173988 0.0478085 0)
(-0.023486 0.0419155 0)
(-0.0297732 0.0337061 0)
(-0.0363051 0.0215917 0)
(-0.0428006 0.0071787 0)
(-0.0474942 -0.00708665 0)
(-0.0492491 -0.0204539 0)
(-0.0488818 -0.0339375 0)
(-0.0456373 -0.0468221 0)
(-0.0390644 -0.057843 0)
(-0.0300624 -0.0670541 0)
(-0.0193592 -0.0751276 0)
(-0.00783801 -0.0809492 0)
(0.0063846 -0.0834841 0)
(-0.00290602 -0.0855722 0)
(0.00824972 0.0318123 0)
(0.00871858 0.0500999 0)
(0.0108745 0.0541536 0)
(0.0132745 0.0546601 0)
(0.0156657 0.0544705 0)
(0.0177634 0.0540985 0)
(0.0194418 0.0531228 0)
(0.020706 0.0507771 0)
(0.0216128 0.0466484 0)
(0.0222307 0.0407757 0)
(0.0228096 0.0330889 0)
(0.0234425 0.0236854 0)
(0.0240825 0.0118764 0)
(0.0251296 -0.00197301 0)
(0.0274794 -0.0172381 0)
(0.031464 -0.0338788 0)
(0.0368072 -0.0511948 0)
(0.0430941 -0.0665468 0)
(0.049948 -0.079216 0)
(0.0572272 -0.0888112 0)
(0.0656467 -0.0947865 0)
(0.0771339 -0.0966992 0)
(0.0935978 -0.104723 0)
(-0.00393234 0.0290626 0)
(-0.00109075 0.0454123 0)
(0.00472005 0.0487551 0)
(0.0115416 0.0489739 0)
(0.0184286 0.0488333 0)
(0.0247241 0.0489303 0)
(0.0303498 0.0485025 0)
(0.035692 0.0464519 0)
(0.04101 0.0424401 0)
(0.0464327 0.0366129 0)
(0.0519213 0.0291297 0)
(0.0574145 0.0196568 0)
(0.0628483 0.00786372 0)
(0.0683184 -0.00629304 0)
(0.0742016 -0.0221562 0)
(0.0807609 -0.0389367 0)
(0.0873719 -0.0551615 0)
(0.0932191 -0.0694422 0)
(0.0977613 -0.0810349 0)
(0.101177 -0.0907273 0)
(0.103796 -0.0979349 0)
(0.106472 -0.103837 0)
(0.108591 -0.112937 0)
(-0.010113 0.0345645 0)
(-0.00613004 0.0409951 0)
(0.000582434 0.04119 0)
(0.00975947 0.0409577 0)
(0.0188963 0.0411376 0)
(0.0270797 0.0421757 0)
(0.0345826 0.0420213 0)
(0.0423394 0.0398781 0)
(0.0506341 0.0357301 0)
(0.059198 0.0297939 0)
(0.0679176 0.0222076 0)
(0.0767571 0.0127733 0)
(0.0855752 0.00112131 0)
(0.09425 -0.0128786 0)
(0.102559 -0.0287223 0)
(0.110415 -0.0452555 0)
(0.117227 -0.0605938 0)
(0.122014 -0.0734093 0)
(0.124368 -0.0832743 0)
(0.124074 -0.0911289 0)
(0.120818 -0.0963156 0)
(0.114565 -0.10005 0)
(0.103499 -0.105216 0)
(-0.0189767 0.0467552 0)
(-0.00591438 0.0375614 0)
(0.0031818 0.0325819 0)
(0.0133976 0.0315696 0)
(0.0231069 0.0321125 0)
(0.0313393 0.0348997 0)
(0.0388907 0.0345952 0)
(0.0475726 0.0313782 0)
(0.0575481 0.0265332 0)
(0.068161 0.0202986 0)
(0.078948 0.0125321 0)
(0.0899305 0.0027751 0)
(0.101121 -0.00912558 0)
(0.112075 -0.0230916 0)
(0.12234 -0.0385379 0)
(0.131088 -0.0541791 0)
(0.137719 -0.0676166 0)
(0.14184 -0.0773305 0)
(0.142728 -0.0837078 0)
(0.139998 -0.0873253 0)
(0.133257 -0.0881593 0)
(0.121258 -0.0866164 0)
(0.102023 -0.0842067 0)
(-0.0171268 0.0580933 0)
(0.00193298 0.024781 0)
(0.011484 0.0206871 0)
(0.0199197 0.0208579 0)
(0.0271405 0.0225145 0)
(0.0347364 0.0262566 0)
(0.0429728 0.0252422 0)
(0.0520445 0.0202917 0)
(0.0623107 0.0141107 0)
(0.0736465 0.00703473 0)
(0.0858448 -0.00135512 0)
(0.0984702 -0.0115663 0)
(0.111118 -0.0234079 0)
(0.12335 -0.0366556 0)
(0.134406 -0.0503984 0)
(0.143698 -0.0635731 0)
(0.151283 -0.0736197 0)
(0.155996 -0.0797571 0)
(0.157029 -0.0825274 0)
(0.154043 -0.0821808 0)
(0.145163 -0.0786095 0)
(0.128913 -0.0716082 0)
(0.10286 -0.0618908 0)
(0.0119678 0.0541223 0)
(0.023839 0.0175705 0)
(0.0264759 0.0154113 0)
(0.0290043 0.016187 0)
(0.0311706 0.0173379 0)
(0.0361264 0.0188211 0)
(0.0441655 0.0164173 0)
(0.053751 0.010686 0)
(0.0642808 0.00369512 0)
(0.0760468 -0.00398251 0)
(0.0891106 -0.0126222 0)
(0.102934 -0.0224295 0)
(0.116876 -0.0332095 0)
(0.130164 -0.0446652 0)
(0.142047 -0.0562966 0)
(0.15207 -0.067151 0)
(0.158815 -0.0758821 0)
(0.162977 -0.0804583 0)
(0.164264 -0.0803861 0)
(0.160626 -0.0763656 0)
(0.150543 -0.067494 0)
(0.130492 -0.053671 0)
(0.0981858 -0.0350043 0)
(0.0351742 0.0286284 0)
(0.0420607 0.0112803 0)
(0.0461553 0.0131424 0)
(0.0458 0.0161786 0)
(0.0410138 0.0161768 0)
(0.0405312 0.0142903 0)
(0.0470861 0.0104044 0)
(0.0565495 0.00362603 0)
(0.0676861 -0.00417085 0)
(0.0804139 -0.0124649 0)
(0.0946459 -0.0215202 0)
(0.109911 -0.0314185 0)
(0.125436 -0.0419092 0)
(0.14026 -0.0526533 0)
(0.153014 -0.0628538 0)
(0.162422 -0.0713259 0)
(0.168412 -0.0770516 0)
(0.16671 -0.0785747 0)
(0.161781 -0.0769929 0)
(0.153824 -0.0692982 0)
(0.138077 -0.0556797 0)
(0.112867 -0.0339808 0)
(0.0763913 -0.0062885 0)
(-0.00402608 -0.0177574 0)
(0.029287 -0.00568452 0)
(0.0571588 0.00597078 0)
(0.0710003 0.0171006 0)
(0.0575506 0.0127344 0)
(0.0459127 0.00992985 0)
(0.0520572 0.00617853 0)
(0.0626539 -0.00141664 0)
(0.0741698 -0.00902239 0)
(0.087658 -0.0179213 0)
(0.102828 -0.0278411 0)
(0.1191 -0.0388069 0)
(0.135154 -0.0506365 0)
(0.149175 -0.0628596 0)
(0.158905 -0.074603 0)
(0.154656 -0.086859 0)
(0.122847 -0.0715583 0)
(0.0966349 -0.0872734 0)
(0.0785989 -0.0687592 0)
(0.0696679 -0.0523134 0)
(0.0641301 -0.0131826 0)
(0.0565293 0.0375067 0)
(0.0474986 0.0886503 0)
(0.00102345 0.00350729 0)
(0.00471339 -0.0312969 0)
(0.0231872 -0.0324033 0)
(0.0576709 0.0234399 0)
(0.0809693 0.0609914 0)
(0.0580679 0.0199797 0)
(0.039736 -0.0116559 0)
(0.0333054 -0.0310205 0)
(0.0340375 -0.0469184 0)
(0.0407747 -0.0643323 0)
(0.0521377 -0.0812918 0)
(0.0658617 -0.0947462 0)
(0.0782893 -0.103254 0)
(0.0861167 -0.105047 0)
(0.08906 -0.0924359 0)
(0.0835132 -0.0594582 0)
(0.0707414 -0.0570922 0)
(0.0538394 -0.0330568 0)
(0.0378281 -0.057957 0)
(0.0274079 -0.0488681 0)
(0.0155339 -0.0223399 0)
(0.00850179 0.014367 0)
(0.00626941 0.0556283 0)
(0.000295718 -0.0161206 0)
(0.00181934 -0.0438174 0)
(-0.000248685 -0.0786257 0)
(0.00393793 -0.0180423 0)
(0.0210466 0.0465666 0)
(0.0227597 0.0354155 0)
(0.0164528 0.0118777 0)
(0.0107081 -0.00990997 0)
(0.0088015 -0.0300325 0)
(0.0114382 -0.0506541 0)
(0.0173074 -0.068867 0)
(0.0235983 -0.0807717 0)
(0.0280695 -0.0860252 0)
(0.0287032 -0.0864484 0)
(0.0259788 -0.0786629 0)
(0.0269241 -0.058227 0)
(0.0267616 -0.0320475 0)
(0.0267084 -0.0434565 0)
(0.0221775 -0.0444373 0)
(0.00837702 -0.0353647 0)
(-0.00339806 -0.0128275 0)
(-0.0083568 0.0198182 0)
(-0.00408138 0.0587618 0)
(0.00958322 -0.0151079 0)
(0.0110278 -0.0241447 0)
(-0.0111921 -0.0551858 0)
(-0.0286619 -0.0189557 0)
(-0.020802 0.0328147 0)
(-0.0109195 0.0327423 0)
(-0.00664602 0.0143916 0)
(-0.00650869 -0.00744714 0)
(-0.00655162 -0.0293984 0)
(-0.0056146 -0.0522451 0)
(-0.0039773 -0.0703432 0)
(-0.00323872 -0.0810476 0)
(-0.00417424 -0.0837114 0)
(-0.00704296 -0.0810069 0)
(-0.0106349 -0.0733886 0)
(-0.0109177 -0.058629 0)
(-0.00447116 -0.0453082 0)
(0.000952837 -0.0372496 0)
(-0.00205197 -0.0343132 0)
(-0.00950929 -0.023814 0)
(-0.0166947 -0.00389881 0)
(-0.0179329 0.0241095 0)
(-0.010011 0.0572354 0)
(0.00120384 -0.0228597 0)
(-0.00369845 -0.0176551 0)
(-0.0225049 -0.0245965 0)
(-0.0388044 -0.00455204 0)
(-0.0384826 0.0210735 0)
(-0.0287065 0.0228725 0)
(-0.0215429 0.00922331 0)
(-0.0178688 -0.010001 0)
(-0.0162917 -0.0310091 0)
(-0.0163314 -0.0531211 0)
(-0.0180592 -0.0702084 0)
(-0.0210126 -0.0796984 0)
(-0.0246715 -0.0809867 0)
(-0.028767 -0.0779104 0)
(-0.0320991 -0.0711123 0)
(-0.0325451 -0.0597326 0)
(-0.0289792 -0.0473321 0)
(-0.0250005 -0.0395569 0)
(-0.0247361 -0.0318106 0)
(-0.0272565 -0.0196832 0)
(-0.0298264 -0.00131339 0)
(-0.0277176 0.0228183 0)
(-0.0171418 0.0509896 0)
(-0.0106198 -0.0146859 0)
(-0.01652 -0.00895553 0)
(-0.0311501 -0.00651918 0)
(-0.0424129 0.00328267 0)
(-0.0428489 0.0152998 0)
(-0.0364185 0.0146415 0)
(-0.0299518 0.00342273 0)
(-0.0258276 -0.0132214 0)
(-0.0239886 -0.0320579 0)
(-0.0248779 -0.0514101 0)
(-0.0286677 -0.0669731 0)
(-0.033683 -0.0755261 0)
(-0.0389637 -0.0768533 0)
(-0.0434779 -0.0748475 0)
(-0.0466719 -0.0696877 0)
(-0.0479333 -0.0612745 0)
(-0.0465479 -0.0513689 0)
(-0.044305 -0.0420777 0)
(-0.0432832 -0.032146 0)
(-0.0431946 -0.0192458 0)
(-0.042881 -0.00222469 0)
(-0.0384025 0.0187995 0)
(-0.0262178 0.0431605 0)
(-0.0146191 0.000252083 0)
(-0.0225742 0.00328493 0)
(-0.0339537 0.00475902 0)
(-0.0417773 0.0092733 0)
(-0.0429246 0.0127389 0)
(-0.0391766 0.00922139 0)
(-0.03472 -0.00120082 0)
(-0.0317026 -0.0158446 0)
(-0.030862 -0.0322768 0)
(-0.0326279 -0.048491 0)
(-0.0369958 -0.0617686 0)
(-0.0429932 -0.0695816 0)
(-0.0487402 -0.0718716 0)
(-0.0533787 -0.0709303 0)
(-0.0569657 -0.0671887 0)
(-0.0590147 -0.0607386 0)
(-0.059281 -0.0525106 0)
(-0.0585238 -0.0434846 0)
(-0.0576813 -0.0331584 0)
(-0.0566331 -0.0205136 0)
(-0.0549065 -0.00493871 0)
(-0.0492961 0.0134657 0)
(-0.0364976 0.034684 0)
(-0.0142682 0.0171199 0)
(-0.0230348 0.0150492 0)
(-0.0328928 0.0138411 0)
(-0.0392844 0.013549 0)
(-0.0410982 0.0119992 0)
(-0.0395939 0.00619531 0)
(-0.0373036 -0.00399023 0)
(-0.0359231 -0.0170919 0)
(-0.03629 -0.0313946 0)
(-0.0388778 -0.045097 0)
(-0.0435594 -0.0563441 0)
(-0.0493947 -0.0635487 0)
(-0.0551465 -0.0665895 0)
(-0.0601077 -0.0666509 0)
(-0.0641073 -0.0639913 0)
(-0.0669116 -0.0589949 0)
(-0.0683679 -0.0521379 0)
(-0.0687812 -0.0438818 0)
(-0.0685023 -0.0340808 0)
(-0.0673652 -0.0223067 0)
(-0.0653227 -0.00831174 0)
(-0.0594794 0.00778452 0)
(-0.0468449 0.0262823 0)
(-0.0126743 0.0324658 0)
(-0.0212952 0.0261539 0)
(-0.0301768 0.0215812 0)
(-0.0360191 0.0176537 0)
(-0.0385819 0.0127242 0)
(-0.0388293 0.00524448 0)
(-0.0384123 -0.00491544 0)
(-0.0385788 -0.0168876 0)
(-0.0400739 -0.0294589 0)
(-0.0432469 -0.0412994 0)
(-0.0479781 -0.051047 0)
(-0.0536142 -0.0577338 0)
(-0.0592757 -0.0612382 0)
(-0.064415 -0.061973 0)
(-0.0688004 -0.0602574 0)
(-0.0722151 -0.0564055 0)
(-0.0745392 -0.0507168 0)
(-0.0758574 -0.0434384 0)
(-0.0762387 -0.0345669 0)
(-0.0754913 -0.0239636 0)
(-0.0736773 -0.0115803 0)
(-0.0682652 0.00241901 0)
(-0.0563835 0.0185263 0)
(-0.0110573 0.0466487 0)
(-0.0189829 0.036452 0)
(-0.0270613 0.0287537 0)
(-0.0326294 0.0219242 0)
(-0.0357924 0.0146216 0)
(-0.0373136 0.00591523 0)
(-0.0383238 -0.00429223 0)
(-0.0397222 -0.0154588 0)
(-0.0420968 -0.0267406 0)
(-0.0457111 -0.0371814 0)
(-0.0504629 -0.0458592 0)
(-0.0559062 -0.0521188 0)
(-0.061462 -0.0557885 0)
(-0.0667023 -0.057049 0)
(-0.0713551 -0.0561066 0)
(-0.0752157 -0.0531991 0)
(-0.078168 -0.0485318 0)
(-0.0801887 -0.0422698 0)
(-0.0812189 -0.034468 0)
(-0.0810169 -0.0251256 0)
(-0.0798045 -0.0143078 0)
(-0.0751137 -0.00219808 0)
(-0.0642486 0.0117842 0)
(-0.00963024 0.0592795 0)
(-0.0166442 0.045736 0)
(-0.023939 0.0353959 0)
(-0.0292271 0.026322 0)
(-0.0327452 0.0173159 0)
(-0.0350985 0.00772691 0)
(-0.03709 -0.00253467 0)
(-0.0393652 -0.013123 0)
(-0.042362 -0.0234605 0)
(-0.0462755 -0.0328821 0)
(-0.0510334 -0.0407567 0)
(-0.0563349 -0.0466395 0)
(-0.0617856 -0.0503678 0)
(-0.0670434 -0.0520005 0)
(-0.0718539 -0.0516703 0)
(-0.0760263 -0.0495446 0)
(-0.07943 -0.0457736 0)
(-0.0819935 -0.0404846 0)
(-0.0836001 -0.0337557 0)
(-0.0840245 -0.0256472 0)
(-0.0834581 -0.0162817 0)
(-0.0796808 -0.00586517 0)
(-0.070027 0.0062349 0)
(-0.0083203 0.0702935 0)
(-0.0143206 0.053917 0)
(-0.0207798 0.0414418 0)
(-0.0256659 0.0306668 0)
(-0.0292715 0.0204468 0)
(-0.0320775 0.0102491 0)
(-0.0346639 -3.11186e-05 0)
(-0.0374955 -0.0101805 0)
(-0.0408843 -0.0198094 0)
(-0.0449732 -0.0284684 0)
(-0.0497096 -0.0357313 0)
(-0.0548861 -0.0412902 0)
(-0.0602202 -0.0450117 0)
(-0.0654428 -0.0469052 0)
(-0.0703292 -0.0470564 0)
(-0.0746988 -0.0455791 0)
(-0.078417 -0.0425904 0)
(-0.0813934 -0.038194 0)
(-0.0834916 -0.0324733 0)
(-0.0844663 -0.0255133 0)
(-0.0846091 -0.0174688 0)
(-0.0816908 -0.00855166 0)
(-0.073191 0.00187861 0)
(-0.00695606 0.0796786 0)
(-0.0118709 0.0609219 0)
(-0.0173863 0.0467762 0)
(-0.021716 0.0347558 0)
(-0.0251677 0.0237056 0)
(-0.028121 0.0131296 0)
(-0.0309902 0.00289494 0)
(-0.0341194 -0.00688516 0)
(-0.0377092 -0.0159529 0)
(-0.0418642 -0.0240143 0)
(-0.0465404 -0.0307879 0)
(-0.0515857 -0.0360653 0)
(-0.0567897 -0.039745 0)
(-0.0619359 -0.0418224 0)
(-0.066829 -0.0423507 0)
(-0.0713029 -0.041414 0)
(-0.0752255 -0.0391033 0)
(-0.0784994 -0.0355062 0)
(-0.0809827 -0.0307017 0)
(-0.0824682 -0.0247862 0)
(-0.0831756 -0.0179192 0)
(-0.0810926 -0.0103239 0)
(-0.0737288 -0.00137281 0)
(-0.00539442 0.0872905 0)
(-0.00912419 0.0666341 0)
(-0.0135741 0.0512641 0)
(-0.0171973 0.0384008 0)
(-0.0202969 0.0268443 0)
(-0.0231619 0.0160955 0)
(-0.0260777 0.00599152 0)
(-0.0293025 -0.00343788 0)
(-0.0329442 -0.0120276 0)
(-0.0370724 -0.0195928 0)
(-0.0416445 -0.0259555 0)
(-0.0465403 -0.0309802 0)
(-0.0515936 -0.0345973 0)
(-0.0566263 -0.0368002 0)
(-0.0614686 -0.0376273 0)
(-0.0659687 -0.0371415 0)
(-0.0700014 -0.035416 0)
(-0.0734722 -0.0325245 0)
(-0.0762469 -0.0285393 0)
(-0.0781011 -0.0235542 0)
(-0.0793331 -0.0177296 0)
(-0.0779304 -0.0112968 0)
(-0.0714846 -0.00364439 0)
(-0.00354388 0.0928707 0)
(-0.00599803 0.070904 0)
(-0.0092546 0.054774 0)
(-0.0120458 0.0414464 0)
(-0.0146429 0.0296743 0)
(-0.0172464 0.0189445 0)
(-0.0200421 0.00906553 0)
(-0.0232023 6.37966e-06 0)
(-0.0267803 -0.00814281 0)
(-0.0308038 -0.015269 0)
(-0.0352273 -0.021268 0)
(-0.0399472 -0.0260584 0)
(-0.0448247 -0.0295977 0)
(-0.0497083 -0.0318843 0)
(-0.0544486 -0.0329485 0)
(-0.0589082 -0.0328403 0)
(-0.062971 -0.0316194 0)
(-0.066547 -0.0293471 0)
(-0.0695064 -0.0260876 0)
(-0.0716646 -0.0219259 0)
(-0.0732384 -0.0170228 0)
(-0.0724327 -0.0115995 0)
(-0.0668591 -0.00510331 0)
(-0.00140978 0.0961207 0)
(-0.0025158 0.0735888 0)
(-0.00448895 0.0572001 0)
(-0.00635427 0.0437752 0)
(-0.00833796 0.0320578 0)
(-0.0105526 0.0215297 0)
(-0.0131003 0.0119779 0)
(-0.0160753 0.00332917 0)
(-0.0194992 -0.00438621 0)
(-0.0233515 -0.011101 0)
(-0.0275827 -0.0167621 0)
(-0.0320956 -0.021328 0)
(-0.0367681 -0.0247777 0)
(-0.0414671 -0.0271161 0)
(-0.0460593 -0.0283695 0)
(-0.0504201 -0.0285791 0)
(-0.0544419 -0.0277939 0)
(-0.0580429 -0.0260653 0)
(-0.0611033 -0.0234476 0)
(-0.0634261 -0.0200173 0)
(-0.0652893 -0.0159272 0)
(-0.0649161 -0.0113984 0)
(-0.0600199 -0.00591444 0)
(0.000846453 0.0966645 0)
(0.00111143 0.0745882 0)
(0.00049708 0.0584704 0)
(-0.00037721 0.0453061 0)
(-0.00165993 0.0338986 0)
(-0.00338469 0.0237421 0)
(-0.00558203 0.0146211 0)
(-0.00827402 0.00643715 0)
(-0.0114682 -0.000829666 0)
(-0.0150906 -0.00714137 0)
(-0.019085 -0.0124764 0)
(-0.0233561 -0.016821 0)
(-0.0277909 -0.0201706 0)
(-0.032269 -0.0225355 0)
(-0.0366698 -0.0239399 0)
(-0.0408794 -0.0244182 0)
(-0.0447997 -0.0240109 0)
(-0.048354 -0.0227605 0)
(-0.0514281 -0.0207117 0)
(-0.0538655 -0.0179347 0)
(-0.0558599 -0.0145689 0)
(-0.0558404 -0.0108204 0)
(-0.0515929 -0.00624343 0)
(0.00301536 0.0945335 0)
(0.0045904 0.07387 0)
(0.00535828 0.0585268 0)
(0.00550985 0.0459575 0)
(0.00498499 0.0350962 0)
(0.00382614 0.0254838 0)
(0.00206891 0.0169039 0)
(-0.000254959 0.00924773 0)
(-0.00312844 0.00246098 0)
(-0.00646024 -0.00344268 0)
(-0.0101709 -0.00845164 0)
(-0.014161 -0.0125732 0)
(-0.0183214 -0.0158123 0)
(-0.0225409 -0.0181826 0)
(-0.0267084 -0.019706 0)
(-0.0307191 -0.0204116 0)
(-0.0344825 -0.0203322 0)
(-0.037929 -0.0195026 0)
(-0.0409569 -0.0179594 0)
(-0.0433953 -0.0157631 0)
(-0.0454851 -0.0130363 0)
(-0.0456972 -0.00998464 0)
(-0.0418951 -0.00620085 0)
(0.00485613 0.0899815 0)
(0.00761458 0.0715031 0)
(0.00972972 0.057379 0)
(0.0109093 0.0457069 0)
(0.0111816 0.035606 0)
(0.0106467 0.0266825 0)
(0.0093949 0.0187392 0)
(0.00749805 0.0116689 0)
(0.0050176 0.00540747 0)
(0.00204104 -6.15089e-05 0)
(-0.00131816 -0.00473485 0)
(-0.00497611 -0.00862658 0)
(-0.00882141 -0.0117417 0)
(-0.0127427 -0.0140972 0)
(-0.0166351 -0.0157117 0)
(-0.0204019 -0.0166083 0)
(-0.0239598 -0.0168128 0)
(-0.0272441 -0.0163524 0)
(-0.0301576 -0.0152567 0)
(-0.0325643 -0.0135743 0)
(-0.0346296 -0.0114202 0)
(-0.0350097 -0.00897058 0)
(-0.0316648 -0.00590078 0)
(0.00616033 0.0834423 0)
(0.00993806 0.0676471 0)
(0.0132719 0.0550691 0)
(0.0154391 0.0445379 0)
(0.0165199 0.0353829 0)
(0.0166493 0.0272852 0)
(0.0159569 0.0200739 0)
(0.0145468 0.013649 0)
(0.0125166 0.007947 0)
(0.00994813 0.00293344 0)
(0.00697745 -0.00138909 0)
(0.00370312 -0.00503011 0)
(0.000231756 -0.00800418 0)
(-0.00333833 -0.0103249 0)
(-0.00691075 -0.0120023 0)
(-0.0103909 -0.013054 0)
(-0.0136975 -0.0135013 0)
(-0.0167715 -0.0133632 0)
(-0.0195254 -0.0126618 0)
(-0.0218135 -0.0114372 0)
(-0.0238336 -0.00978929 0)
(-0.0242852 -0.00788667 0)
(-0.0212618 -0.0054281 0)
(0.00683702 0.0755657 0)
(0.0114215 0.0625743 0)
(0.015774 0.0517072 0)
(0.0188333 0.0424804 0)
(0.0206913 0.0344136 0)
(0.0214911 0.0272539 0)
(0.0213856 0.0208566 0)
(0.0205027 0.0151331 0)
(0.0189594 0.0100265 0)
(0.0168601 0.00549953 0)
(0.0143243 0.00154457 0)
(0.0114717 -0.00183651 0)
(0.0084037 -0.0046517 0)
(0.00522014 -0.00691007 0)
(0.0020153 -0.0086208 0)
(-0.00112339 -0.00979664 0)
(-0.00413146 -0.0104472 0)
(-0.00695215 -0.0105845 0)
(-0.00949541 -0.0102258 0)
(-0.0116485 -0.00940537 0)
(-0.0135405 -0.00821199 0)
(-0.0140028 -0.0067906 0)
(-0.011331 -0.00486891 0)
(0.00693081 0.0670782 0)
(0.0120933 0.0566276 0)
(0.0171943 0.0474698 0)
(0.0209907 0.0396226 0)
(0.0235404 0.0327329 0)
(0.0249708 0.0265894 0)
(0.0254429 0.0210673 0)
(0.0250975 0.0160892 0)
(0.0240632 0.0116066 0)
(0.0224609 0.00758928 0)
(0.0203969 0.00402483 0)
(0.0180001 0.00092194 0)
(0.0153713 -0.00171668 0)
(0.0126061 -0.00389356 0)
(0.00979325 -0.00561082 0)
(0.00701398 -0.00687196 0)
(0.00433651 -0.00768346 0)
(0.00181387 -0.008054 0)
(-0.000478695 -0.00799337 0)
(-0.00242587 -0.00752432 0)
(-0.00418405 -0.00671294 0)
(-0.00458765 -0.00570373 0)
(-0.00212091 -0.00431805 0)
(0.00660619 0.0585324 0)
(0.0121044 0.050156 0)
(0.0176598 0.0425887 0)
(0.0219834 0.0361151 0)
(0.0250814 0.030432 0)
(0.0270507 0.0253411 0)
(0.0280463 0.0207258 0)
(0.0282109 0.0165173 0)
(0.0276765 0.0126754 0)
(0.0265669 0.00917973 0)
(0.0249938 0.00602312 0)
(0.0230683 0.00321543 0)
(0.0208987 0.0007721 0)
(0.0185741 -0.00129973 0)
(0.0161781 -0.00299544 0)
(0.0137858 -0.00431203 0)
(0.0114606 -0.00524891 0)
(0.00925149 -0.00580713 0)
(0.00723176 -0.00599005 0)
(0.00549381 -0.00581298 0)
(0.00393643 -0.0053283 0)
(0.00355005 -0.00466128 0)
(0.005748 -0.00378112 0)
(0.00603786 0.0503168 0)
(0.011666 0.0434819 0)
(0.0173797 0.0373278 0)
(0.0219941 0.0321592 0)
(0.0254573 0.0276554 0)
(0.0278315 0.0236069 0)
(0.0292557 0.0198953 0)
(0.0298652 0.0164556 0)
(0.0297873 0.0132546 0)
(0.029142 0.0102807 0)
(0.0280413 0.00753675 0)
(0.0265828 0.00503589 0)
(0.0248709 0.00280218 0)
(0.0229911 0.000854919 0)
(0.0210198 -0.000793432 0)
(0.019026 -0.00213337 0)
(0.0170679 -0.00315813 0)
(0.0151899 -0.00386321 0)
(0.0134572 -0.00424631 0)
(0.0119735 -0.00431858 0)
(0.0106121 -0.00412046 0)
(0.0102527 -0.00376987 0)
(0.0122548 -0.00323921 0)
(0.00542217 0.0426711 0)
(0.010965 0.0368865 0)
(0.016581 0.0319564 0)
(0.0212493 0.0279808 0)
(0.0248782 0.0245808 0)
(0.0274988 0.0215218 0)
(0.0292286 0.0186761 0)
(0.030188 0.0159777 0)
(0.0304937 0.0133976 0)
(0.030257 0.0109311 0)
(0.0295821 0.00859126 0)
(0.0285625 0.00639886 0)
(0.0272857 0.00438327 0)
(0.0258346 0.00257456 0)
(0.0242778 0.000994302 0)
(0.022677 -0.000341435 0)
(0.021084 -0.0014205 0)
(0.0195396 -0.00223374 0)
(0.0181055 -0.00277397 0)
(0.0168601 -0.00304893 0)
(0.0157207 -0.00309537 0)
(0.0154313 -0.00300543 0)
(0.0171845 -0.00276477 0)
(0.00488909 0.0356842 0)
(0.0101276 0.0306073 0)
(0.0154298 0.0267215 0)
(0.0199445 0.0237991 0)
(0.023553 0.021392 0)
(0.026261 0.019236 0)
(0.0281632 0.0171895 0)
(0.0293623 0.0151811 0)
(0.0299602 0.0131825 0)
(0.0300562 0.0111946 0)
(0.0297444 0.00923785 0)
(0.0291106 0.00734309 0)
(0.0282286 0.0055452 0)
(0.0271724 0.0038823 0)
(0.0260031 0.00238512 0)
(0.0247738 0.00107595 0)
(0.0235293 -2.82966e-05 0)
(0.0223056 -0.000915042 0)
(0.0211547 -0.00157421 0)
(0.0201605 -0.00200853 0)
(0.0192282 -0.00224329 0)
(0.0190161 -0.00237133 0)
(0.0206276 -0.00237392 0)
(0.0044329 0.0293219 0)
(0.00918439 0.0248258 0)
(0.0140269 0.0218223 0)
(0.0182255 0.019799 0)
(0.0216563 0.0182541 0)
(0.0243086 0.0168943 0)
(0.0262561 0.0155604 0)
(0.0275828 0.0141726 0)
(0.0283751 0.0127009 0)
(0.0287185 0.0111485 0)
(0.0286956 0.00954274 0)
(0.0283821 0.00792378 0)
(0.0278415 0.00633353 0)
(0.0271339 0.00481647 0)
(0.0263124 0.00341082 0)
(0.0254206 0.00214547 0)
(0.0244949 0.00104066 0)
(0.0235657 0.000110867 0)
(0.0226826 -0.000632202 0)
(0.021909 -0.00118521 0)
(0.0211804 -0.00157028 0)
(0.0210585 -0.00185585 0)
(0.0224655 -0.00207881 0)
(0.00394783 0.0235872 0)
(0.00813078 0.0196546 0)
(0.0124127 0.0173899 0)
(0.0161847 0.0161161 0)
(0.0193194 0.0153006 0)
(0.0217991 0.0146227 0)
(0.0236818 0.0139049 0)
(0.0250346 0.0130572 0)
(0.0259266 0.0120464 0)
(0.0264307 0.0108778 0)
(0.0266192 0.00958025 0)
(0.0265566 0.00820603 0)
(0.0262957 0.00680481 0)
(0.0258833 0.00542593 0)
(0.0253621 0.00411426 0)
(0.0247658 0.00290462 0)
(0.0241205 0.00181982 0)
(0.0234506 0.000873046 0)
(0.022799 7.59945e-05 0)
(0.0222328 -0.000564298 0)
(0.0216871 -0.00106018 0)
(0.021632 -0.00147704 0)
(0.0228973 -0.00187509 0)
(0.00336004 0.0185624 0)
(0.00696956 0.0151698 0)
(0.0106383 0.0135102 0)
(0.0139054 0.012849 0)
(0.016653 0.0126367 0)
(0.0188688 0.0125256 0)
(0.0205979 0.0123226 0)
(0.0218899 0.0119291 0)