/*--------------------------------*- C++ -*----------------------------------*\
  =========                 |
  \\      /  F ield         | OpenFOAM: The Open Source CFD Toolbox
   \\    /   O peration     | Website:  https://openfoam.org
    \\  /    A nd           | Version:  13
     \\/     M anipulation  |
\*---------------------------------------------------------------------------*/
FoamFile
{
    format      ascii;
    class       volScalarField;
    location    "1.5";
    object      alphas;
}
// * * * * * * * * * * * * * * * * * * * * * * * * * * * * * * * * * * * * * //

dimensions      [];

internalField   nonuniform List<scalar> 
2268
(
2
2
2
2
2
2
2
2
2
2
2
2
2
2
2
2
2
2
2
2
2
1.99957
1.99943
2
2
2
2
2
2
2
2
2
2
2
2
2
2
2
2
2
2
2
2
2
1.99988
1.99943
2
2
2
2
2
2
2
2
2
2
2
2
2
2
2
2
2
2
2
2
2
2
1.99969
2
2
2
2
2
2
2
2
2
2
2
2
2
2
2
2
2
2
2
2
2
2
1.99999
1.73351
1.74416
1.76793
1.80167
1.84005
1.88107
1.92269
1.96055
1.98827
1.99984
2
2
2
2
2
2
2
2
2
2
2
2
2
0.186767
0.23758
0.278764
0.323928
0.379245
0.452662
0.555002
0.696875
0.890288
1.14702
1.44409
1.68273
1.87273
1.98058
2
2
2
2
2
2
2
2
2
4.31808e-09
3.06123e-09
2.56053e-09
2.25595e-09
2.24448e-09
2.64372e-09
3.08046e-09
2.90416e-09
2.5927e-09
2.20005e-09
0.0179214
0.155294
0.40645
0.810051
1.3527
1.82029
2
2
2
2
2
2
2
1.31598e-08
1.04562e-08
8.36128e-09
7.64139e-09
7.4772e-09
8.281e-09
8.88891e-09
7.86408e-09
6.33668e-09
4.44441e-09
3.77878e-09
2.77002e-09
1.93827e-09
1.44265e-09
0.00841958
0.20258
0.706783
1.40134
1.88351
2
2.00001
2.00003
2
1.86921
1.94158
1.94606
1.77139
1.70435
1.69088
1.66975
1.68559
1.69027
1.76916
1.98398
1.92838
1.80674
1.64825
1.61029
1.7021
1.71031
1.71889
1.71098
1.85921
1.76983
1.7084
1.76153
1.84454
1.83799
1.98687
2.09437
2.0821
1.96396
1.95427
2.22655
2.18216
1.9373
1.70104
1.68828
1.78645
1.78681
1.5752
1.85569
1.37148
0.859382
1.21609
1.2965
1.15236
1.96286
2.40437
2.40628
2.17024
2.09172
2.14685
2.26642
2.23398
2.26055
2.04997
1.93586
1.7937
1.51588
1.84004
1.50627
0.720519
0.275388
0.157015
0.0533481
0.688891
1.66173
1.9879
2.11711
2.26571
2.18829
1.86597
1.429
1.45107
1.54693
1.26927
1.16982
1.17573
1.75929
1.4931
1.01986
0.0596638
0.000210024
0.000207483
0.0150863
0.206484
0.527679
0.830625
1.53897
1.77614
0.995663
0.356469
0.381874
0.382706
0.3281
0.413865
0.765957
1.20235
1.11824
0.794807
0.210471
0.000198556
0.000199749
0.00132373
0.00211037
0.00205808
0.0317972
0.234146
0.406705
0.237858
0.131963
0.123967
0.156532
0.168282
0.298314
0.765851
1.09722
1.10909
0.817991
0.184198
0.00801813
0.000200145
0.000420192
0.00132629
0.000919948
0.000299972
0.000644488
0.0377834
0.0267851
0.0232817
0.211563
0.65807
0.696126
0.611727
0.859759
0.994898
1.11815
1.11513
0.259419
0.00431687
0.000710896
0.00020399
0.000175757
0.000199883
0.000232883
0.000230496
0.000207764
0.000206051
0.000588138
0.373556
0.935056
0.999303
0.812697
1.03668
2.20404e-08
1.70277e-08
1.40142e-08
1.54959e-08
1.46298e-08
1.7151e-08
1.9383e-08
1.66903e-08
1.38628e-08
1.21941e-08
9.793e-09
7.4496e-09
5.3194e-09
4.1599e-09
3.55247e-09
1.49538e-08
0.00182594
0.0491063
0.213467
0.501012
0.799127
1.05206
1.53105
2.81171e-08
1.98282e-08
3.27469e-08
5.31522e-08
2.99494e-08
3.52941e-08
4.84496e-08
4.75922e-08
4.43002e-08
4.63279e-08
4.69084e-08
4.46297e-08
3.9362e-08
3.11243e-08
2.98238e-08
2.0587e-08
9.9466e-08
1.49309e-07
1.48626e-07
2.53663e-07
1.67492e-05
0.00229692
0.0131276
2.27139e-08
1.67139e-08
0.000114631
0.000402764
3.59263e-08
4.53564e-08
7.40039e-08
7.92021e-08
8.15067e-08
9.39899e-08
1.03759e-07
1.14526e-07
1.2454e-07
1.29385e-07
1.58847e-07
1.77342e-07
2.48916e-07
1.37108e-07
5.94107e-08
8.98394e-08
8.08485e-07
9.85401e-06
0.00277803
7.74203e-05
0.0933251
0.117557
0.0947342
0.084083
0.0756495
0.106002
0.148793
0.122888
0.105826
0.131502
0.166681
0.14355
0.0829297
0.0517765
0.0705869
0.0800123
0.0585061
0.0203113
0.00891388
0.0151977
0.019332
0.289496
0.439499
0.772532
0.855221
0.827612
0.820279
0.912372
1.03718
0.984968
0.979885
0.967698
0.997498
0.981171
0.957366
0.87856
0.789137
0.827056
0.963455
0.948054
0.85911
0.848718
0.939192
1.06297
1.26918
1.68931
1.12112
1.03361
1.03004
1.02887
1.18807
1.30401
1.27982
1.21216
1.25547
1.2863
1.30162
1.28184
1.27412
1.30456
1.32304
1.26622
1.14836
1.08327
1.08267
1.0787
1.0574
1.00586
1.82928
1.16595
1.21938
1.10005
1.0276
1.00282
1
1
1
1
1
1
1
1
1
1
1
1
1
1
1
1
0.999999
2.20439
2.55211
2.69297
2.40836
2.11066
1.83366
1.56195
1.41199
1.28883
1.18893
1.11424
1.05994
1.02396
1.0046
1
1
1
1
1
1
0.999999
0.999999
1
2.68794
2.92851
2.99991
2.99997
3
3
2.98773
2.90179
2.805
2.68994
2.55923
2.4082
2.23809
2.05407
1.86366
1.66473
1.51245
1.40631
1.32943
1.27352
1.23029
1.22254
1.233
2.93685
2.95694
2.99901
2.99999
3
3
3
3
3
3
3
3
3
3
3
3
2.96583
2.90993
2.85664
2.80748
2.75903
2.74568
2.75479
2.98971
2.98472
2.99835
3
3
3
3
3
3
3
3
3
3
3
3
3
3
3
3
3
3
3
3
3
2.99885
2.99968
3
3
3
3
3
2.99999
2.99997
2.99987
2.99999
3
3
3
3
3
3
3
3
3
3
3
3
3
2.99998
3
3
3
3
3
2.99998
2.99971
2.99965
2.99989
2.99999
3
3
3
3
3
3
3
3
3
3
3
3
3
3
3
3
3
3
2.99997
2.99965
2.99965
2.99966
2.99997
3
3
2.99999
2.99999
3
3
3
3
3
3
3
3
3
3
3
3
3
3
2.99998
2.99981
2.99965
2.99965
2.99992
2.99999
2.99999
2.99999
2.99999
3
3
3
3
3
3
3
3
3
3
3
3
3
3
3
3
2.99984
2.99971
2.99993
2.99999
2.99999
2.99999
2.99999
3
3
3
3
3
3
3
3
3
3
3
3
3
3
3
3
3
3
2.99999
2.99999
2.99999
3
3
3
3
3
3
3
3
3
3
3
3
3
3
3
3
3
3
3
3
3
2.99999
3
3
3
3
3
3
3
3
3
3
3
3
3
3
3
3
3
3
3
3
3
3
3
3
3
3
3
3
3
3
3
3
3
3
3
3
3
3
3
3
3
3
3
3
3
3
3
3
3
3
3
3
3
3
3
3
3
3
3
3
3
3
3
3
3
3
3
3
3
3
3
3
3
3
3
3
3
3
3
3
3
3
3
3
3
3
3
3
3
3
3
3
3
3
3
3
3
3
3
3
3
3
3
3
3
3
3
3
3
3
3
3
3
3
3
3
3
3
3
3
3
3
3
3
3
3
3
3
3
3
3
3
3
3
3
3
3
3
3
3
3
3
3
3
3
3
3
3
3
3
3
3
3
3
3
3
3
3
3
3
3
3
3
3
3
3
3
3
3
3
3
3
3
3
3
3
3
3
3
3
3
3
3
3
3
3
3
3
3
3
3
3
3
3
3
3
3
3
3
3
3
3
3
3
3
3
3
3
3
3
3
3
3
3
3
3
3
3
3
3
3
3
3
3
3
3
3
3
3
3
3
3
3
3
3
3
3
3
3
3
3
3
3
3
3
3
3
3
3
3
3
3
3
3
3
3
3
3
3
3
3
3
3
3
3
3
3
3
3
3
3
3
3
3
3
3
3
3
3
3
3
3
3
3
3
3
3
3
3
3
3
3
3
3
3
3
3
3
3
3
3
3
3
3
3
3
3
3
3
3
3
3
3
3
3
3
3
3
3
3
3
3
3
3
3
3
3
3
3
3
3
3
3
3
3
3
3
3
3
3
3
3
3
3
3
3
3
3
3
3
3
3
3
3
3
3
3
3
3
3
3
3
3
3
3
3
3
3
3
3
3
3
3
3
3
3
3
3
3
3
3
3
3
3
3
3
3
3
3
3
3
3
3
3
3
3
3
3
3
3
3
3
3
3
3
3
3
3
3
3
3
3
3
3
3
3
3
3
3
3
3
3
3
3
3
3
3
3
3
3
3
3
3
3
3
3
3
3
3
3
3
3
3
3
3
3
3
3
3
3
3
3
3
3
3
3
3
3
3
3
3
3
3
3
3
3
3
3
3
3
3
3
3
3
3
3
3
3
3
3
3
3
3
3
3
3
3
3
3
3
3
3
3
3
3
3
3
3
3
3
3
3
3
3
3
3
3
3
3
3
3
3
3
3
3
3
3
3
3
3
3
3
3
3
3
3
3
3
3
3
3
3
3
3
3
3
3
3
3
3
3
3
3
3
3
3
3
3
3
3
3
3
3
3
3
3
3
3
3
3
3
1.37683
0.734455
0.00874522
0.00842192
0.00509646
0.00561853
0.0049391
0.00987945
0.0309872
0.0277281
0.0145409
0.460507
0.715544
0.761443
0.701794
0.801107
1.34076
1.13105
1.01597
1.01182
1.00012
1
1
1
0.999999
1
1
1
1
1
1
1
1.24234
1.26204
1.28701
1.29278
2.76022
2.7778
2.80927
2.81162
3
3
3
3
3
3
3
3
3
3
3
3
3
3
3
3
3
3
3
3
3
3
3
3
3
3
3
3
3
3
3
3
3
3
3
3
3
3
3
3
3
3
3
3
3
3
3
3
3
3
3
3
3
3
3
3
3
3
3
3
3
3
3
3
3
3
3
3
3
3
3
3
3
3
3
3
3
3
3
3
3
3
3
3
3
3
3
3
3
3
3
3
3
3
3
3
3
3
3
3
3
3
3
3
3
3
3
3
3
3
3
3
3
3
3
3
3
3
3
3
3
3
3
3
3
3
3
3
0.495191
1.29551
1.26229
0.821626
0.123355
0.000367537
0.000276518
0.000276092
0.00190061
0.00303786
0.032743
0.0869387
0.142686
0.301562
0.70673
0.999467
1.00133
0.993367
1.03234
0.524578
1.20853
1.27102
1.37636
0.795912
0.230763
0.0872472
0.0785032
0.189445
0.65191
0.810839
0.847867
0.902401
0.969775
0.999983
1.00179
1.00166
1
1.00522
0.803453
1.31798
1.0242
1.0834
1.32641
0.758244
0.603417
0.796281
0.967043
0.999803
1.0001
1.00034
1.00035
1.00008
1.00006
1.00109
1.00097
1.00001
1.02881
1.42639
1.08843
1.00002
1.00009
1.02672
1.32938
1.32697
1.21013
0.99298
0.999977
1.00002
1.00023
1.00018
1.00001
1
1.00006
1.00004
1.00001
1.07976
1.00001
0.999957
0.999853
0.999831
0.999897
1.00424
1.04235
1.03614
1.00389
1
1.00001
1.00009
1.00013
1.00002
1
1
1.00001
1.00001
1.08678
1
1
1
0.999958
0.999953
0.999959
0.999961
0.99999
1.00003
1
1.00002
1.00003
1.00003
1.00001
1
1
1
1
1.04437
1
1
1
1
1
1
1
1
1
1
1
1
1
1
1
1
1
0.999854
0.99201
1
1
1
1.00689
1.06122
1.1467
1.2662
1.30097
1.25043
1.26687
1.54461
1.57887
1.47966
1.45531
1.49771
1.37132
1.11231
0.998699
0.985129
1.36512
1.55681
1.77189
2.01179
2.33005
2.57918
2.74938
2.94228
2.93917
2.90287
2.92914
2.9272
2.8997
2.90675
2.9261
2.86183
2.64401
1.96899
1.2687
2.85011
2.97015
3
3
3
3
3
3
3
3
2.99999
2.99999
2.99999
2.99999
2.99999
2.99999
2.99993
2.99897
2.821
3
3
3
3
3
3
3
3
2.99998
2.99993
2.99995
3
3
2.9995
2.99869
2.99898
2.99965
2.99992
2.97504
3
3
3
3
3
3
3
2.99942
2.99796
2.99801
2.99981
3
2.99911
2.99498
2.99505
2.99499
2.99832
3
3
3
3
3
3
3
3
2.99995
2.99831
2.99788
2.99792
3
3
2.99824
2.99531
2.99656
2.99826
2.99898
3
3
3
3
3
3
3
3
2.99993
2.99942
2.99903
2.9996
2.99999
2.99995
2.9995
2.99959
2.99995
3
3
3
3
3
3
3
3
3
3
3
3
3
3
3
2.99999
3
3
3
3
3
3
3
3
3
3
3
3
3
3
3
3
3
3
3
3
3
3
3
3
3
3
3
3
3
3
3
3
3
3
3
3
3
3
3
3
3
3
3
3
3
3
3
3
3
3
3
3
3
3
3
3
3
3
3
3
3
3
3
3
3
3
3
3
3
3
3
3
3
3
3
3
3
3
3
3
3
3
3
3
3
3
3
3
3
3
3
3
3
3
3
3
3
3
3
3
3
3
3
3
3
3
3
3
3
3
3
3
3
3
3
3
3
3
3
3
3
3
3
3
3
3
3
3
3
3
3
3
3
3
3
3
3
3
3
3
3
3
3
3
3
3
3
3
3
3
3
3
3
3
3
3
3
3
3
3
3
3
3
3
3
3
3
3
3
3
3
3
3
3
3
3
3
3
3
3
3
3
3
3
3
3
3
3
3
3
3
3
3
3
3
3
3
3
3
3
3
3
3
3
3
3
3
3
3
3
3
3
3
3
3
3
3
3
3
3
3
3
3
3
3
3
3
3
3
3
3
3
3
3
3
3
3
3
3
3
3
3
3
3
3
3
3
3
3
3
3
3
3
3
3
3
3
3
3
3
3
3
3
3
3
3
3
3
3
3
3
3
3
3
3
3
3
3
3
3
3
3
3
3
3
3
3
3
3
3
3
3
3
3
3
3
3
3
3
3
3
3
3
3
3
3
3
3
3
3
3
3
3
3
3
3
3
3
3
3
3
3
3
3
3
3
3
3
3
3
3
3
3
3
3
3
3
3
3
3
3
3
3
3
3
3
3
3
3
3
3
3
3
3
3
3
3
3
3
3
3
3
3
3
3
3
3
3
3
3
3
3
3
3
3
3
3
3
3
3
3
3
3
3
3
3
3
3
3
3
3
3
3
3
3
3
3
3
3
3
3
3
3
3
3
3
3
3
3
3
3
3
3
3
3
3
3
3
3
3
3
3
3
3
3
3
3
3
3
3
3
3
3
3
3
3
3
3
3
3
3
3
3
3
3
3
3
3
3
3
3
3
3
3
3
3
3
3
3
3
3
3
3
3
3
3
3
3
3
3
3
3
3
3
3
3
3
3
3
3
3
3
3
3
3
3
3
3
3
3
3
3
3
3
3
3
3
3
3
3
3
3
3
3
3
3
3
3
3
3
3
3
3
3
3
3
3
3
3
3
)
;

boundaryField
{
    leftWall
    {
        type            calculated;
        value           nonuniform List<scalar> 
50
(
2
2
2
2
1.73351
0.186767
4.31808e-09
1.31598e-08
2.20404e-08
2.81171e-08
2.27139e-08
7.74203e-05
0.439499
1.68931
1.82928
2.20439
2.68794
2.93685
2.98971
3
3
3
3
3
3
3
3
3
3
3
3
3
3
3
3
3
3
3
3
3
3
3
3
3
3
3
3
3
3
3
)
;
    }
    rightWall
    {
        type            calculated;
        value           nonuniform List<scalar> 
50
(
1.71098
1.5752
1.51588
1.17573
0.765957
0.765851
0.859759
1.03668
1.03234
1.00522
1.02881
1.07976
1.08678
1.04437
0.99201
0.985129
1.2687
2.821
2.97504
3
3
3
3
3
3
3
3
3
3
3
3
3
3
3
3
3
3
3
3
3
3
3
3
3
3
3
3
3
3
3
)
;
    }
    lowerWall
    {
        type            calculated;
        value           nonuniform List<scalar> 
62
(
2
2
2
2
2
2
2
2
2
2
2
2
2
2
2
2
2
2
2
2
2
1.99957
1.99943
1.99943
1.99943
1.99969
1.99999
2
2
2
2
1.37683
0.734455
0.00874522
0.00842192
1.86921
1.85921
1.85569
1.84004
1.75929
1.20235
1.09722
0.994898
1.86921
1.94158
1.94606
1.77139
1.70435
1.69088
1.66975
1.68559
1.69027
1.76916
1.98398
1.92838
1.80674
1.64825
1.61029
1.7021
1.71031
1.71889
1.71098
)
;
    }
    atmosphere
    {
        type            calculated;
        value           nonuniform List<scalar> 
46
(
3
3
3
3
3
3
3
3
3
3
3
3
3
3
3
3
3
3
3
3
3
3
3
3
3
3
3
3
3
3
3
3
3
3
3
3
3
3
3
3
3
3
3
3
3
3
)
;
    }
    defaultFaces
    {
        type            empty;
    }
}


// ************************************************************************* //
