/*--------------------------------*- C++ -*----------------------------------*\
  =========                 |
  \\      /  F ield         | OpenFOAM: The Open Source CFD Toolbox
   \\    /   O peration     | Website:  https://openfoam.org
    \\  /    A nd           | Version:  13
     \\/     M anipulation  |
\*---------------------------------------------------------------------------*/
FoamFile
{
    format      ascii;
    class       volScalarField;
    location    "1.5";
    object      alpha.mercury;
}
// * * * * * * * * * * * * * * * * * * * * * * * * * * * * * * * * * * * * * //

dimensions      [];

internalField   nonuniform List<scalar> 
2268
(
1
1
1
1
1
1
1
1
1
1
1
1
1
1
1
1
1
1
1
1
1
0.999565
0.999432
1
1
1
1
1
1
1
1
1
1
1
1
1
1
1
1
1
1
1
1
1
0.999884
0.999432
1
1
1
1
1
1
1
1
1
1
1
1
1
1
1
1
1
1
1
1
1
1
0.999686
1
1
1
1
1
1
1
1
1
1
1
1
1
1
1
1
1
1
1
1
1
1
0.999986
0.866754
0.872082
0.883963
0.900833
0.920025
0.940537
0.961347
0.980274
0.994135
0.999922
1
1
1
1
1
1
1
1
1
1
1
1
1
0.0933834
0.11879
0.139382
0.161964
0.189622
0.226331
0.277501
0.348438
0.445144
0.573509
0.722046
0.841367
0.936367
0.990292
1
1
1
1
1
1
1
1
1
4.26348e-11
1.32181e-11
3.35942e-11
1.32181e-11
1.15876e-11
4.79153e-12
1.14134e-12
5.23738e-21
1.06347e-20
2.31211e-21
0.00896069
0.0776471
0.203225
0.405026
0.676349
0.910145
1
1
1
1
1
1
1
1.58437e-09
1.67359e-09
1.56526e-09
1.46693e-09
1.39331e-09
1.23546e-09
8.67103e-10
5.78836e-10
2.91277e-10
5.14712e-11
1.67789e-19
1.62889e-20
1.34225e-20
1.21837e-20
0.00420979
0.10129
0.353392
0.700669
0.941756
0.999995
0.999984
0.999972
0.99999
0.876323
0.876297
0.871687
0.61906
0.545356
0.546927
0.575551
0.591445
0.589821
0.589782
0.643786
0.675916
0.699203
0.69979
0.700273
0.702605
0.700936
0.701642
0.699944
0.876214
0.856856
0.849406
0.862554
0.861544
0.861294
0.846878
0.803724
0.777944
0.686101
0.564382
0.583164
0.591545
0.60215
0.584492
0.616076
0.652154
0.64447
0.557134
0.875853
0.512135
0.373842
0.601107
0.648232
0.529603
0.39545
0.350862
0.318604
0.319413
0.342599
0.300714
0.275351
0.261643
0.288392
0.288828
0.278039
0.323555
0.380042
0.866148
0.560656
0.220568
0.12794
0.0784948
0.0203098
0.00799672
0.0160822
0.0383413
0.102819
0.182789
0.209301
0.217237
0.187218
0.185867
0.1747
0.138395
0.13891
0.187677
0.779377
0.446555
0.38921
0.0267725
9.3443e-05
8.8392e-05
8.86225e-05
0.000365524
0.0001617
0.0001504
0.00692358
0.0557426
0.0739265
0.111871
0.122292
0.129171
0.101818
0.0659162
0.0618243
0.199102
0.080376
0.197712
0.088759
8.933e-05
8.91436e-05
0.000658726
0.00105197
0.00102033
0.00023111
2.01294e-07
3.26673e-09
3.16876e-11
4.82315e-11
6.86943e-07
0.00397375
0.00502988
0.0016039
0.00557473
0.0938249
0.0876845
0.0850135
0.0648824
0.0034466
8.75955e-05
0.000206272
0.000659949
0.00045667
0.000145866
2.7254e-05
1.94796e-05
2.59831e-05
5.23053e-05
8.04597e-05
5.08275e-06
4.89293e-06
0.0020755
0.0119477
0.0394116
0.0748507
0.10018
0.0686756
0.00113722
1.99388e-05
6.1479e-05
7.74649e-05
9.06638e-05
4.04372e-05
2.9986e-05
4.97197e-05
3.63667e-05
0.000238371
0.000485957
0.000442625
7.40369e-05
0.00240507
0.0123653
1.96741e-09
2.33163e-09
2.44873e-09
2.50944e-09
2.63006e-09
2.56932e-09
2.16467e-09
1.6925e-09
1.156e-09
6.87481e-10
3.48587e-10
1.59218e-10
7.69326e-11
5.61242e-11
5.32407e-11
6.22091e-09
0.000912971
0.0245532
0.106733
0.250504
0.399493
0.525926
0.765255
7.61612e-10
1.13734e-09
1.55931e-09
2.0453e-09
2.60115e-09
2.87905e-09
2.87857e-09
2.51479e-09
1.86297e-09
1.19448e-09
6.65201e-10
3.80311e-10
2.36181e-10
2.47327e-10
2.742e-10
5.14788e-10
4.60604e-08
7.01016e-08
6.50568e-08
1.85986e-10
3.01633e-10
0.0011274
0.00643607
2.54447e-10
3.05189e-10
4.12041e-10
4.67e-10
5.63589e-10
8.02742e-10
8.00823e-10
7.54267e-10
6.82755e-10
5.73937e-10
4.25885e-10
2.83218e-10
1.47484e-10
8.84343e-11
8.09083e-11
8.10526e-11
6.76406e-10
5.66506e-09
6.89467e-09
3.06098e-09
4.02536e-07
6.84541e-08
2.50573e-07
2.29942e-10
2.62061e-10
3.18558e-10
3.31964e-10
2.99214e-10
2.59537e-10
2.67815e-10
3.09799e-10
3.89347e-10
4.62679e-10
4.93882e-10
5.42269e-10
6.18131e-10
6.29547e-10
5.94206e-10
6.34281e-10
5.70692e-10
4.31085e-10
1.99645e-10
1.29768e-10
6.0464e-08
6.44542e-08
6.09315e-08
2.50301e-10
4.32647e-10
5.11112e-10
5.48452e-10
6.20315e-10
7.51222e-10
9.30498e-10
1.13846e-09
1.40731e-09
1.68838e-09
1.83213e-09
1.95129e-09
2.11076e-09
2.48126e-09
2.9254e-09
3.36028e-09
3.23777e-09
2.74414e-09
1.45953e-09
2.29324e-10
1.71235e-10
8.62155e-08
1.30503e-07
3.84735e-10
5.80466e-10
5.93524e-10
6.1165e-10
6.77064e-10
8.99024e-10
1.14119e-09
1.38196e-09
1.67064e-09
1.95813e-09
2.0651e-09
2.10798e-09
2.1877e-09
2.64198e-09
3.4398e-09
3.56188e-09
3.49887e-09
2.56234e-09
1.48863e-09
7.78977e-10
2.16971e-10
7.62711e-07
1.95315e-06
4.91399e-10
5.74537e-10
4.62412e-10
3.88912e-10
3.98996e-10
4.79984e-10
5.24474e-10
5.54744e-10
6.06398e-10
6.72737e-10
6.97086e-10
6.47907e-10
6.2257e-10
6.10342e-10
7.11704e-10
9.46785e-10
8.35702e-10
1.17396e-09
2.47489e-09
3.9509e-09
3.9733e-09
2.56441e-10
4.48376e-10
5.00899e-10
5.66265e-10
3.5045e-10
2.37293e-10
1.92755e-10
1.4622e-10
1.06361e-10
8.04674e-11
6.84456e-11
8.07824e-11
1.01325e-10
1.11205e-10
1.24905e-10
1.30661e-10
1.14808e-10
1.24773e-10
1.66367e-10
1.71026e-10
1.80743e-10
2.28345e-10
2.33055e-10
2.3997e-10
3.23404e-10
4.83103e-10
5.50824e-10
3.99862e-10
2.47189e-10
2.0175e-10
1.48203e-10
9.51555e-11
6.19237e-11
3.70899e-11
2.38509e-11
1.99549e-11
2.02227e-11
2.17718e-11
2.48404e-11
3.74404e-11
5.13856e-11
6.10182e-11
7.45983e-11
1.00434e-10
1.31904e-10
1.69117e-10
2.12918e-10
2.33119e-10
4.20136e-10
4.79007e-10
4.76753e-10
4.09284e-10
3.02668e-10
2.21971e-10
1.60495e-10
1.06845e-10
5.78855e-11
2.51618e-11
1.35276e-11
9.15955e-12
8.44524e-12
8.95054e-12
1.02356e-11
1.1765e-11
1.36688e-11
1.53149e-11
1.67609e-11
1.86838e-11
2.24668e-11
2.75601e-11
3.0251e-11
2.98794e-10
3.39992e-10
4.62817e-10
4.61279e-10
4.25129e-10
3.50379e-10
2.8144e-10
2.10923e-10
1.27322e-10
5.98049e-11
1.82868e-11
8.15955e-12
6.44273e-12
5.60215e-12
4.9829e-12
4.06516e-12
3.41546e-12
3.02966e-12
2.91716e-12
2.8538e-12
2.84664e-12
3.08215e-12
3.33335e-12
1.42785e-10
1.76741e-10
4.00255e-10
4.58081e-10
4.48385e-10
3.95507e-10
3.1729e-10
2.73206e-10
2.26461e-10
1.38658e-10
5.98626e-11
1.65645e-11
9.19712e-12
7.08608e-12
5.08621e-12
3.4499e-12
2.46512e-12
1.89086e-12
1.52447e-12
1.33313e-12
9.5844e-13
7.82692e-13
7.89636e-13
5.06909e-11
1.0707e-10
2.85766e-10
4.30865e-10
4.11846e-10
3.50871e-10
2.97742e-10
2.75646e-10
2.49449e-10
1.93801e-10
1.22264e-10
5.37668e-11
1.88403e-11
1.2325e-11
7.83927e-12
4.39812e-12
2.85885e-12
2.00108e-12
1.4654e-12
9.65776e-13
6.72235e-13
4.8713e-13
3.61917e-13
2.40436e-11
1.03815e-10
2.32782e-10
3.60068e-10
3.19541e-10
2.65861e-10
2.50551e-10
2.5821e-10
2.51026e-10
2.12101e-10
1.57987e-10
1.00172e-10
4.3235e-11
2.13442e-11
1.26607e-11
7.18355e-12
4.39711e-12
3.13176e-12
1.73539e-12
1.05481e-12
6.31639e-13
4.37634e-13
2.95953e-13
1.31113e-11
7.89573e-11
2.16533e-10
2.61292e-10
2.41367e-10
2.24872e-10
2.2022e-10
2.16657e-10
2.19921e-10
2.10837e-10
1.74504e-10
1.25817e-10
7.38766e-11
3.46974e-11
2.09728e-11
1.49235e-11
7.66875e-12
4.41635e-12
3.06545e-12
1.71004e-12
9.17668e-13
4.63956e-13
2.8086e-13
8.55485e-12
6.00683e-11
1.33045e-10
1.78272e-10
1.76919e-10
1.74589e-10
1.69509e-10
1.69566e-10
1.69476e-10
1.74973e-10
1.6703e-10
1.31967e-10
8.44006e-11
4.75494e-11
2.83778e-11
1.82108e-11
9.24253e-12
5.61767e-12
3.68831e-12
2.01077e-12
1.1307e-12
5.10957e-13
3.25698e-13
8.37266e-12
3.45085e-11
6.89851e-11
8.5429e-11
1.07755e-10
1.19374e-10
1.161e-10
1.13836e-10
1.14884e-10
1.18716e-10
1.18921e-10
1.09484e-10
8.43757e-11
4.76292e-11
2.97082e-11
1.81358e-11
1.01772e-11
5.95691e-12
3.64172e-12
2.07236e-12
1.21663e-12
6.84579e-13
4.19894e-13
5.6084e-12
2.08648e-11
3.73968e-11
4.66213e-11
6.30723e-11
7.0977e-11
7.14273e-11
6.81399e-11
6.50535e-11
6.25239e-11
6.62467e-11
6.61326e-11
6.43601e-11
4.09602e-11
2.86241e-11
1.75133e-11
1.02865e-11
5.40236e-12
3.03309e-12
1.87804e-12
1.2471e-12
7.42561e-13
4.8497e-13
2.99605e-12
1.16686e-11
2.25655e-11
2.994e-11
3.89542e-11
4.55867e-11
4.48444e-11
4.12128e-11
3.63279e-11
3.34707e-11
2.88218e-11
2.85551e-11
2.83849e-11
3.20982e-11
1.83757e-11
1.18541e-11
8.3579e-12
4.44269e-12
2.46981e-12
1.60117e-12
1.05387e-12
7.39421e-13
4.78579e-13
1.58235e-12
5.88567e-12
1.21956e-11
1.81068e-11
2.28655e-11
2.67736e-11
2.94206e-11
2.72876e-11
2.25541e-11
1.63636e-11
1.23885e-11
1.17437e-11
1.19406e-11
1.17242e-11
1.01174e-11
6.14344e-12
4.33331e-12
3.57919e-12
2.24182e-12
1.3042e-12
8.48758e-13
5.54657e-13
4.23284e-13
6.97391e-13
2.72154e-12
5.9145e-12
9.53488e-12
1.27233e-11
1.63728e-11
1.81957e-11
1.78101e-11
1.52175e-11
1.01839e-11
7.93396e-12
6.28517e-12
4.93654e-12
4.32894e-12
3.98416e-12
3.79903e-12
2.48411e-12
2.04041e-12
1.62129e-12
1.05006e-12
6.1237e-13
4.29569e-13
3.48366e-13
2.74265e-13
1.09623e-12
2.50742e-12
4.25358e-12
6.47693e-12
8.42859e-12
1.0281e-11
1.07635e-11
9.90968e-12
7.96596e-12
5.10684e-12
3.40454e-12
2.45104e-12
1.89495e-12
1.65414e-12
1.45153e-12
1.37691e-12
1.05785e-12
8.97676e-13
7.44453e-13
5.37784e-13
3.09785e-13
2.46906e-13
8.94307e-14
3.89945e-13
8.97729e-13
1.63731e-12
2.75824e-12
3.92501e-12
4.94782e-12
5.85378e-12
5.95063e-12
4.95159e-12
3.67703e-12
2.13892e-12
1.38865e-12
1.02144e-12
8.18714e-13
6.85649e-13
6.22083e-13
5.33101e-13
4.49191e-13
3.94875e-13
3.2372e-13
2.09821e-13
1.4952e-13
2.78044e-14
1.16945e-13
2.73419e-13
5.09389e-13
9.05938e-13
1.68065e-12
2.0801e-12
2.63327e-12
3.13091e-12
2.92262e-12
2.2229e-12
1.35977e-12
8.24183e-13
5.19376e-13
3.65599e-13
2.99441e-13
2.60696e-13
2.30475e-13
2.03844e-13
1.84239e-13
1.42933e-13
1.11372e-13
9.30832e-14
6.96932e-15
3.12856e-14
7.35561e-14
1.42713e-13
2.52096e-13
5.38277e-13
8.15563e-13
9.66614e-13
1.3743e-12
1.48054e-12
1.16677e-12
8.30461e-13
4.72603e-13
2.81585e-13
1.72587e-13
1.25488e-13
9.9085e-14
8.77096e-14
7.5523e-14
6.94966e-14
5.79419e-14
5.02932e-14
4.36819e-14
1.56864e-15
7.32057e-15
1.74629e-14
3.53277e-14
7.19669e-14
1.59226e-13
2.57025e-13
3.24308e-13
4.54575e-13
6.41182e-13
5.32769e-13
3.94587e-13
2.62941e-13
1.44507e-13
8.19678e-14
5.37156e-14
3.88961e-14
3.25085e-14
2.76202e-14
2.49287e-14
2.22503e-14
1.98684e-14
1.70497e-14
2.18062e-16
1.29252e-15
3.59409e-15
7.72629e-15
1.80343e-14
4.65134e-14
7.61878e-14
1.03353e-13
1.39434e-13
2.06517e-13
1.99912e-13
1.5663e-13
1.09308e-13
6.5174e-14
3.43921e-14
2.07996e-14
1.39012e-14
1.12954e-14
9.48475e-15
8.44805e-15
7.35149e-15
6.47094e-15
5.8492e-15
3.01583e-17
2.15125e-16
6.25374e-16
1.4662e-15
3.84078e-15
1.15602e-14
1.98398e-14
2.81233e-14
3.86454e-14
5.92119e-14
6.07908e-14
5.09139e-14
3.79491e-14
2.47343e-14
1.22992e-14
6.95097e-15
4.53667e-15
3.60001e-15
2.98645e-15
2.67635e-15
2.37862e-15
1.96926e-15
1.73147e-15
2.28576e-18
2.32301e-17
7.95728e-17
2.18667e-16
6.9569e-16
2.36507e-15
4.6172e-15
6.53701e-15
9.56801e-15
1.48354e-14
1.55482e-14
1.37586e-14
1.05048e-14
7.35758e-15
3.81632e-15
2.0124e-15
1.29265e-15
1.01091e-15
8.47474e-16
7.51642e-16
6.23441e-16
5.40485e-16
4.44777e-16
1.67328e-19
2.13545e-18
8.66116e-18
2.7146e-17
9.31448e-17
3.84109e-16
8.7485e-16
1.30564e-15
1.98132e-15
3.0829e-15
3.37399e-15
2.96549e-15
2.35812e-15
1.6912e-15
8.73906e-16
4.84997e-16
3.22068e-16
2.41425e-16
2.09471e-16
1.86334e-16
1.6283e-16
1.29871e-16
9.96449e-17
4.14508e-21
9.82442e-20
5.34898e-19
2.12348e-18
1.00964e-17
4.90185e-17
1.35439e-16
2.237e-16
3.61138e-16
5.50909e-16
5.85536e-16
5.19302e-16
4.28168e-16
2.98355e-16
1.58359e-16
9.51611e-17
7.04378e-17
5.11828e-17
4.50407e-17
3.93213e-17
3.49344e-17
2.63403e-17
1.85706e-17
7.72784e-23
2.47335e-21
2.23384e-20
1.41552e-19
8.34898e-19
4.54469e-18
1.64712e-17
3.13088e-17
5.31676e-17
7.93134e-17
8.20886e-17
7.53985e-17
6.33901e-17
4.12906e-17
2.33826e-17
1.52736e-17
1.1989e-17
9.31718e-18
8.06859e-18
7.23361e-18
6.35417e-18
4.1768e-18
2.98601e-18
9.15391e-25
2.80854e-23
6.44862e-22
7.32926e-21
6.32301e-20
3.68678e-19
1.27329e-18
3.42788e-18
6.02399e-18
8.14095e-18
8.77777e-18
8.48566e-18
6.99047e-18
4.60642e-18
2.86014e-18
2.13065e-18
1.78276e-18
1.42715e-18
1.23188e-18
1.09377e-18
8.68088e-19
6.16295e-19
3.69035e-19
2.46437e-26
4.2015e-25
2.47368e-23
3.94971e-22
3.85452e-21
2.40346e-20
9.19639e-20
2.71927e-19
5.54489e-19
7.61294e-19
8.4353e-19
8.06996e-19
6.42222e-19
4.29423e-19
3.14858e-19
2.63305e-19
2.18799e-19
1.91412e-19
1.60246e-19
1.44193e-19
1.10498e-19
6.68654e-20
3.73889e-20
7.61924e-28
7.65961e-27
8.77956e-25
1.7826e-23
1.94443e-22
1.17818e-21
5.35697e-21
1.84135e-20
4.21842e-20
6.02107e-20
6.71934e-20
6.41142e-20
5.02207e-20
3.75085e-20
3.16755e-20
2.8601e-20
2.62285e-20
2.24492e-20
2.02327e-20
1.63979e-20
1.08758e-20
6.42424e-21
3.17734e-21
2.32128e-29
1.77332e-28
2.80403e-26
6.65841e-25
7.74796e-24
5.62444e-23
2.84251e-22
1.0989e-21
2.90982e-21
4.19562e-21
4.62954e-21
4.33511e-21
3.57365e-21
3.11928e-21
2.92861e-21
2.80292e-21
2.627e-21
2.31671e-21
1.99859e-21
1.48322e-21
9.36495e-22
4.72302e-22
2.4362e-22
5.7956e-31
3.79134e-30
6.98512e-28
1.94335e-26
2.59079e-25
2.23587e-24
1.26376e-23
5.27519e-23
1.63522e-22
2.43685e-22
2.69908e-22
2.58745e-22
2.41869e-22
2.43928e-22
2.46284e-22
2.45818e-22
2.33981e-22
2.1086e-22
1.67449e-22
1.12721e-22
6.22538e-23
3.20084e-23
7.02974e-24
1.14664e-32
6.53997e-32
1.38377e-29
4.70948e-28
7.53347e-27
7.10307e-26
4.65618e-25
2.1644e-24
7.69284e-24
1.18744e-23
1.36117e-23
1.44326e-23
1.57784e-23
1.73722e-23
1.85636e-23
1.90609e-23
1.84094e-23
1.59008e-23
1.19848e-23
7.33248e-24
3.99839e-24
8.47441e-25
6.91402e-26
1.78585e-34
9.00118e-34
2.26952e-31
1.00031e-29
1.78835e-28
1.8979e-27
1.52097e-26
7.56151e-26
2.98649e-25
4.80634e-25
5.96303e-25
7.47429e-25
9.0442e-25
1.07483e-24
1.21596e-24
1.29647e-24
1.28933e-24
1.10073e-24
7.59516e-25
4.60957e-25
1.19409e-25
1.0465e-26
1.43589e-27
1.22396e-36
9.28103e-36
3.22695e-33
2.00148e-31
3.8398e-30
4.72913e-29
4.65953e-28
2.66484e-27
1.14483e-26
1.9122e-26
2.63596e-26
3.72611e-26
5.09921e-26
6.54354e-26
7.70005e-26
8.49681e-26
8.49407e-26
7.23491e-26
4.39512e-26
1.55945e-26
2.459e-27
2.65288e-28
4.77766e-28
-9.40985e-38
6.57066e-41
4.26632e-35
3.99529e-33
8.22742e-32
1.12247e-30
1.30911e-29
7.9495e-29
3.6279e-28
6.65278e-28
1.05675e-27
1.72708e-27
2.58022e-27
3.54342e-27
4.39915e-27
5.01097e-27
5.00368e-27
4.02492e-27
2.08495e-27
5.62182e-28
5.98469e-29
5.12845e-29
2.61338e-28
-7.61326e-39
1.23942e-41
5.63214e-37
7.40757e-35
1.59221e-33
2.4127e-32
3.26709e-31
2.13164e-30
1.01705e-29
2.00508e-29
3.58231e-29
6.63578e-29
1.09217e-28
1.70674e-28
2.35721e-28
2.69311e-28
2.68754e-28
2.05223e-28
9.17947e-29
1.98136e-29
5.1429e-30
1.71817e-29
1.20846e-28
0.688158
0.366982
0.00420337
0.0040971
0.00192417
0.00221519
0.00229219
0.00105682
2.53634e-07
2.13883e-06
1.81957e-06
2.75574e-05
2.95371e-06
9.2217e-06
2.14655e-06
3.05066e-06
6.41531e-08
7.1936e-05
9.69178e-05
3.08195e-05
1.84783e-06
8.46763e-10
3.9331e-10
3.72375e-10
3.5169e-10
3.88056e-10
3.8577e-10
3.83348e-10
4.40192e-10
5.76093e-10
6.72742e-10
8.83675e-10
2.54377e-10
2.60556e-10
2.53539e-10
2.34837e-10
3.1754e-11
3.27516e-11
3.29719e-11
3.27144e-11
3.49686e-12
3.27199e-12
3.23038e-12
3.0201e-12
7.18734e-13
8.34317e-13
7.48254e-13
6.66508e-13
2.81377e-13
2.38973e-13
2.48315e-13
2.35853e-13
2.10592e-13
1.80864e-13
1.57001e-13
1.42532e-13
1.70529e-13
1.33306e-13
1.11175e-13
9.45827e-14
1.78526e-13
1.32077e-13
1.02028e-13
8.46767e-14
2.15938e-13
1.52985e-13
1.2043e-13
9.47735e-14
2.85877e-13
2.06384e-13
1.65194e-13
1.26958e-13
3.12643e-13
2.46614e-13
2.05174e-13
1.66161e-13
3.07012e-13
2.56399e-13
2.07542e-13
1.7711e-13
2.66235e-13
2.25787e-13
1.95765e-13
1.66841e-13
2.01581e-13
1.76376e-13
1.52926e-13
1.35803e-13
1.2656e-13
1.10035e-13
1.00321e-13
8.89363e-14
6.86272e-14
5.86217e-14
5.22801e-14
4.74977e-14
3.2641e-14
2.67472e-14
2.41904e-14
2.12359e-14
1.29339e-14
1.05744e-14
9.01512e-15
7.89502e-15
4.74578e-15
3.78375e-15
3.29312e-15
2.6946e-15
1.41297e-15
1.1348e-15
9.70933e-16
7.7113e-16
3.73195e-16
2.88908e-16
2.51584e-16
1.89596e-16
8.09551e-17
6.07807e-17
5.17781e-17
3.79769e-17
1.42481e-17
1.01906e-17
8.21369e-18
5.93098e-18
2.26047e-18
1.48408e-18
1.12018e-18
7.5122e-19
2.62576e-19
1.75046e-19
1.11996e-19
7.09612e-20
2.49212e-20
1.48835e-20
9.40847e-21
6.1063e-21
2.01705e-21
1.33242e-21
4.73315e-22
4.86081e-23
7.22887e-23
1.14922e-23
9.1641e-25
5.07378e-26
5.61531e-27
4.49193e-27
1.00261e-26
2.38866e-26
1.58665e-27
3.83902e-27
9.13742e-27
2.52684e-26
1.57723e-27
2.88364e-27
8.64857e-27
2.72692e-26
8.92484e-28
2.64923e-27
9.11156e-27
2.85521e-26
6.069e-28
2.28823e-27
8.15714e-27
2.47489e-26
4.6239e-28
1.56941e-27
4.90817e-27
1.28515e-26
0.00646953
0.0835582
0.101926
0.102434
0.0295218
1.0032e-05
1.05102e-05
1.02762e-05
5.18723e-06
1.89894e-07
4.7641e-09
3.31616e-05
7.08174e-05
6.98639e-05
0.000434131
0.000587874
0.000399036
5.23585e-05
0.0100674
0.0089546
0.035135
0.0626228
0.0992696
0.0653144
0.00144904
4.68246e-06
1.31129e-05
1.25171e-05
5.59831e-07
1.34753e-08
1.74945e-06
2.99849e-06
5.7134e-05
0.000166614
0.000333126
0.00020142
8.36573e-07
0.00386437
0.0143151
0.00838883
4.94348e-06
0.00883195
0.0257841
0.00908284
4.44194e-06
2.38268e-06
2.90648e-06
1.99874e-07
4.19301e-08
8.42292e-08
6.8276e-08
1.83779e-05
1.43806e-05
7.80796e-06
7.76379e-06
8.34519e-07
0.00130383
0.0053158
0.00270591
2.20018e-05
2.44022e-06
1.42848e-07
0.00131595
0.00204169
0.000904285
1.19235e-07
8.74424e-08
5.81918e-08
1.5274e-07
5.99207e-08
7.15592e-10
4.22045e-08
3.53716e-06
1.02802e-06
1.05461e-06
0.0010468
1.22103e-09
4.27606e-10
8.88505e-07
8.11136e-07
1.44975e-07
4.58362e-08
4.29599e-06
4.58198e-05
4.67125e-05
2.06171e-05
7.05843e-06
2.05944e-09
7.15582e-10
8.97572e-10
1.68039e-09
2.68943e-06
4.82433e-06
1.84586e-06
0.00192251
8.29899e-09
3.33984e-09
3.33119e-09
2.55403e-08
9.61998e-08
4.96719e-08
2.01596e-08
3.78191e-09
2.9258e-06
2.26015e-06
1.03824e-06
9.634e-08
1.16266e-09
7.14635e-10
4.60306e-07
3.76618e-06
4.84272e-06
1.38289e-06
0.00195019
4.64801e-10
4.28122e-10
3.14605e-08
4.61871e-08
8.40081e-08
5.52053e-08
2.51964e-08
4.20301e-09
6.96697e-08
2.22615e-08
2.22982e-09
1.07955e-08
2.8139e-09
1.07507e-08
9.59969e-07
3.13493e-06
2.47215e-06
-1.01344e-06
0.00458548
1.05234e-09
6.28923e-10
1.45174e-10
1.05243e-10
1.14819e-10
1.05243e-10
7.90867e-10
2.89513e-09
3.41914e-09
1.08955e-09
2.56004e-11
3.35065e-10
2.82781e-10
1.34086e-11
6.10603e-07
1.33144e-06
7.19522e-07
0.000152206
0.00567868
4.0871e-10
4.43312e-10
2.93523e-10
1.33159e-10
1.29658e-10
1.19904e-10
6.69119e-11
8.11102e-11
8.7362e-11
9.0563e-11
1.81916e-11
1.87215e-11
1.34085e-11
2.55648e-09
2.29589e-08
1.88752e-08
3.26099e-08
0.000484773
0.00572373
2.82086e-11
2.81716e-11
3.28836e-11
3.37974e-11
2.7005e-11
2.03658e-11
1.45431e-11
8.29941e-12
3.66288e-12
5.80963e-12
6.0975e-12
6.06181e-10
8.00146e-10
9.39641e-10
1.59501e-09
3.16769e-06
6.86617e-05
0.000461348
0.0041427
2.29579e-12
1.69298e-12
1.29238e-12
1.06908e-12
8.68298e-13
7.21001e-13
5.71804e-13
6.42997e-13
2.92147e-12
9.66998e-12
6.14698e-12
4.34847e-10
3.66613e-10
1.26358e-06
5.39447e-06
2.37418e-05
9.99979e-05
7.58182e-05
3.17962e-07
5.3509e-13
4.4442e-13
3.6555e-13
2.965e-13
2.30496e-13
2.52296e-13
3.7666e-13
2.01303e-12
4.64055e-12
5.32524e-12
5.02586e-12
1.18435e-09
1.41411e-06
9.0798e-06
8.74512e-06
1.07973e-05
1.27729e-05
1.3156e-09
1.32115e-09
2.30089e-13
1.83629e-13
1.34392e-13
1.32169e-13
1.64477e-13
4.44786e-13
1.19687e-12
1.95439e-12
2.34254e-12
2.29422e-12
1.27013e-09
2.83061e-07
2.80506e-06
5.04678e-06
3.42385e-06
1.70798e-08
7.12323e-09
8.51366e-09
1.28723e-09
1.27085e-13
9.52666e-14
9.61236e-14
1.45553e-13
5.81751e-13
3.11912e-12
4.83661e-12
1.72357e-12
1.70887e-12
7.57192e-09
1.33783e-07
3.49236e-07
5.308e-07
5.77143e-08
1.35654e-11
3.37179e-11
1.10801e-09
1.40741e-08
1.07936e-09
7.99882e-14
7.56963e-14
1.30367e-13
4.48356e-13
2.08797e-12
1.57863e-11
1.82225e-10
1.64587e-09
7.67123e-09
3.58999e-08
5.7767e-08
4.69455e-08
5.19064e-10
5.46055e-11
1.39599e-11
6.98248e-11
4.87028e-10
4.06623e-09
4.39661e-10
7.09124e-14
9.63976e-14
5.93102e-13
4.3562e-12
2.40232e-11
9.4529e-11
3.18675e-10
1.37479e-09
4.72046e-09
1.00459e-08
7.54878e-09
3.23464e-09
1.13339e-12
5.61186e-12
1.50794e-11
4.19369e-11
6.84626e-11
1.2918e-11
4.90832e-11
7.83574e-14
6.72879e-14
7.93086e-13
4.12582e-12
1.55532e-11
5.03235e-11
1.38713e-10
3.42548e-10
9.06593e-10
1.3641e-09
1.63252e-09
9.25095e-10
9.01975e-13
3.47134e-12
7.96897e-12
1.30291e-11
1.50377e-11
1.84717e-11
3.7737e-12
9.63698e-14
5.40468e-14
7.04658e-14
1.03894e-12
4.23307e-12
1.32993e-11
3.61435e-11
8.26324e-11
1.60329e-10
3.34154e-10
5.09818e-10
3.91477e-10
7.34944e-13
1.4661e-12
3.01529e-12
4.15029e-12
4.6749e-12
6.39031e-12
1.00591e-12
1.31414e-13
6.76848e-14
3.82016e-14
4.26204e-14
6.0822e-13
2.7455e-12
7.74564e-12
1.77225e-11
3.23923e-11
4.81252e-11
7.99951e-11
8.30111e-11
4.13129e-13
4.69418e-13
9.49639e-13
1.11636e-12
9.4889e-13
1.09634e-12
3.89094e-14
1.44773e-13
8.26668e-14
4.47772e-14
2.65105e-14
2.51293e-14
2.94616e-13
1.38935e-12
3.38963e-12
6.37178e-12
8.7639e-12
1.09819e-11
1.18855e-11
1.21415e-13
1.12395e-13
2.38644e-13
2.92892e-13
1.61896e-13
9.89394e-14
9.82718e-15
1.38943e-13
8.59722e-14
4.90578e-14
2.82773e-14
1.71534e-14
2.0209e-14
1.40918e-13
5.1149e-13
1.04296e-12
1.48531e-12
1.47602e-12
1.35096e-12
2.40483e-14
2.14155e-14
4.53156e-14
6.22848e-14
2.63479e-14
1.23348e-14
3.74969e-15
1.14971e-13
7.55887e-14
4.44607e-14
2.80269e-14
1.62728e-14
1.01884e-14
1.31717e-14
5.68042e-14
1.32591e-13
2.03756e-13
1.95736e-13
1.24299e-13
4.68809e-15
4.01522e-15
7.36384e-15
1.00212e-14
4.35169e-15
3.38067e-15
2.30721e-15
7.72283e-14
5.31872e-14
3.32995e-14
2.26064e-14
1.3438e-14
7.72634e-15
4.94211e-15
6.4166e-15
1.4042e-14
2.25895e-14
2.38147e-14
1.05163e-14
1.16824e-15
1.00097e-15
1.50352e-15
1.46233e-15
1.35255e-15
1.69467e-15
1.21739e-15
4.2061e-14
3.00926e-14
1.9756e-14
1.39119e-14
8.63122e-15
5.45442e-15
2.96559e-15
1.97905e-15
1.68687e-15
2.173e-15
2.38095e-15
9.60065e-16
3.05319e-16
3.03482e-16
4.34565e-16
5.35418e-16
8.17917e-16
9.08517e-16
6.85832e-16
1.87538e-14
1.35115e-14
9.0797e-15
6.5158e-15
4.28512e-15
2.74032e-15
1.67634e-15
9.89073e-16
4.14407e-16
2.52718e-16
2.06555e-16
1.01317e-16
6.95185e-17
9.46741e-17
1.45515e-16
2.97512e-16
4.76726e-16
5.22934e-16
3.70283e-16
6.87937e-15
4.91569e-15
3.27531e-15
2.35578e-15
1.59769e-15
1.10378e-15
6.80312e-16
3.60889e-16
1.41339e-16
4.80882e-17
2.00476e-17
1.09888e-17
1.04003e-17
2.5011e-17
6.64834e-17
1.52644e-16
2.59048e-16
2.98619e-16
1.88052e-16
2.26205e-15
1.52611e-15
9.77871e-16
6.62534e-16
4.70125e-16
3.25855e-16
2.03397e-16
1.02316e-16
3.70807e-17
9.45631e-18
1.92303e-18
6.38022e-19
2.56695e-18
9.85559e-18
3.05696e-17
7.29206e-17
1.35859e-16
1.64827e-16
9.64592e-17
6.04602e-16
3.91937e-16
2.27199e-16
1.47983e-16
1.06511e-16
7.1909e-17
4.34355e-17
2.07436e-17
6.56371e-18
8.05122e-19
6.09567e-20
2.00792e-19
9.5186e-19
3.96705e-18
1.32201e-17
3.50361e-17
6.87694e-17
7.76861e-17
5.01728e-17
1.34992e-16
8.04347e-17
4.23441e-17
2.7011e-17
1.68646e-17
1.02473e-17
5.71935e-18
2.33323e-18
2.44669e-19
1.83142e-20
3.47999e-20
9.84715e-20
3.82997e-19
1.60429e-18
5.84209e-18
1.62403e-17
3.42778e-17
4.35866e-17
2.22209e-17
2.32699e-17
1.26784e-17
6.44355e-18
3.51282e-18
1.36069e-18
7.75817e-19
3.48067e-19
1.68937e-20
7.80378e-21
1.56045e-20
3.32375e-20
7.64333e-20
2.12544e-19
7.42765e-19
2.65698e-18
7.41872e-18
1.69712e-17
2.57427e-17
1.42464e-17
3.25286e-18
1.53681e-18
8.32194e-19
2.02966e-19
3.51258e-20
1.17501e-20
2.10771e-21
3.3982e-21
7.65251e-21
1.67697e-20
3.55738e-20
7.57934e-20
1.69931e-19
4.39485e-19
1.32777e-18
3.4426e-18
8.18164e-18
1.46741e-17
7.34002e-18
3.39123e-19
1.67457e-19
3.58795e-20
2.019e-21
3.57354e-22
6.16837e-22
1.45973e-21
3.52135e-21
8.30087e-21
1.85976e-20
3.96621e-20
8.17668e-20
1.66514e-19
3.44965e-19
7.96902e-19
1.70688e-18
4.74416e-18
6.65555e-18
4.14993e-18
3.30595e-20
5.34028e-21
2.20038e-22
9.54527e-23
2.12867e-22
5.71475e-22
1.4926e-21
3.72594e-21
8.95619e-21
2.04122e-20
4.39193e-20
8.83851e-20
1.6868e-19
3.08449e-19
5.6273e-19
1.31485e-18
2.83649e-18
3.63567e-18
1.75969e-18
1.30553e-21
3.58788e-23
2.30234e-23
6.60085e-23
1.98516e-22
5.5875e-22
1.50349e-21
3.8435e-21
9.41455e-21
2.17484e-20
4.65401e-20
9.178e-20
1.65994e-19
2.73873e-19
4.76308e-19
9.89112e-19
1.7261e-18
1.55706e-18
8.57317e-19
2.6387e-24
4.12035e-24
1.75752e-23
5.97354e-23
1.82481e-22
5.32717e-22
1.44714e-21
3.76164e-21
9.20309e-21
2.11353e-20
4.55642e-20
8.89873e-20
1.51654e-19
2.49347e-19
4.21336e-19
7.13739e-19
8.72618e-19
7.8682e-19
3.0632e-19
5.64319e-25
3.50006e-24
1.45621e-23
5.04186e-23
1.61456e-22
4.75013e-22
1.32001e-21
3.43828e-21
8.45127e-21
1.943e-20
4.152e-20
7.99881e-20
1.34795e-19
2.16917e-19
3.30847e-19
4.74057e-19
4.98781e-19
3.17266e-19
1.38414e-19
4.97731e-25
2.89664e-24
1.16126e-23
4.18472e-23
1.34096e-22
3.97681e-22
1.09856e-21
2.85265e-21
6.97826e-21
1.60338e-20
3.39611e-20
6.43412e-20
1.07831e-19
1.67727e-19
2.29459e-19
2.81554e-19
2.42221e-19
1.51078e-19
4.92255e-20
4.35203e-25
2.27249e-24
9.1007e-24
3.21206e-23
1.01923e-22
3.00381e-22
8.21457e-22
2.10037e-21
5.0625e-21
1.15267e-20
2.40746e-20
4.48742e-20
7.42952e-20
1.11294e-19
1.38248e-19
1.47552e-19
1.12182e-19
5.36998e-20
2.30034e-20
3.41644e-25
1.61785e-24
6.29997e-24
2.11953e-23
6.7258e-23
1.94173e-22
5.23728e-22
1.31914e-21
3.1318e-21
7.04832e-21
1.45358e-20
2.6697e-20
4.33243e-20
6.26626e-20
7.1938e-20
6.81199e-20
4.07216e-20
2.28076e-20
8.18242e-21
2.39539e-25
9.81285e-25
3.52673e-24
1.13307e-23
3.36926e-23
9.50119e-23
2.5497e-22
6.47449e-22
1.54088e-21
3.46484e-21
7.14632e-21
1.31315e-20
2.09638e-20
2.96296e-20
3.18205e-20
2.79595e-20
1.59918e-20
6.67603e-21
4.09798e-21
1.25024e-25
4.48597e-25
1.47879e-24
4.51216e-24
1.32497e-23
3.70084e-23
9.8671e-23
2.54481e-22
6.12909e-22
1.38473e-21
2.86569e-21
5.31156e-21
8.42899e-21
1.1764e-20
1.20582e-20
1.02636e-20
4.0165e-21
2.73926e-21
2.07981e-21
3.6639e-26
1.13491e-25
3.41814e-25
9.73702e-25
3.0549e-24
9.15211e-24
2.54388e-23
6.90353e-23
1.78686e-22
4.23604e-22
9.08956e-22
1.73724e-21
2.80207e-21
3.91391e-21
3.93725e-21
3.36977e-21
1.39947e-21
1.07096e-21
8.97591e-22
)
;

boundaryField
{
    leftWall
    {
        type            alphaContactAngle;
        contactAngleProperties 
        {
            air             
            {
                theta0          90;
            }
            water           
            {
                theta0          90;
            }
            oil             
            {
                theta0          90;
            }
        }
        value           nonuniform List<scalar> 
50
(
1
1
1
1
0.866754
0.0933834
4.26348e-11
1.58437e-09
1.96741e-09
7.61612e-10
2.54447e-10
2.29942e-10
2.50301e-10
3.84735e-10
4.91399e-10
5.00899e-10
4.83103e-10
4.20136e-10
2.98794e-10
1.42785e-10
5.06909e-11
2.40436e-11
1.31113e-11
8.55485e-12
8.37266e-12
5.6084e-12
2.99605e-12
1.58235e-12
6.97391e-13
2.74265e-13
8.94307e-14
2.78044e-14
6.96932e-15
1.56864e-15
2.18062e-16
3.01583e-17
2.28576e-18
1.67328e-19
4.14508e-21
7.72784e-23
9.15391e-25
2.46437e-26
7.61924e-28
2.32128e-29
5.7956e-31
1.14664e-32
1.78585e-34
1.22396e-36
-9.40985e-38
-7.61326e-39
)
;
    }
    rightWall
    {
        type            alphaContactAngle;
        contactAngleProperties 
        {
            air             
            {
                theta0          90;
            }
            water           
            {
                theta0          90;
            }
            oil             
            {
                theta0          90;
            }
        }
        value           nonuniform List<scalar> 
50
(
0.699944
0.557134
0.380042
0.187677
0.0618243
0.00557473
0.0119477
0.0123653
0.0100674
0.00386437
0.00130383
0.0010468
0.00192251
0.00195019
0.00458548
0.00567868
0.00572373
0.0041427
3.17962e-07
1.32115e-09
1.28723e-09
1.07936e-09
4.39661e-10
4.90832e-11
3.7737e-12
1.00591e-12
3.89094e-14
9.82718e-15
3.74969e-15
2.30721e-15
1.21739e-15
6.85832e-16
3.70283e-16
1.88052e-16
9.64592e-17
5.01728e-17
2.22209e-17
1.42464e-17
7.34002e-18
4.14993e-18
1.75969e-18
8.57317e-19
3.0632e-19
1.38414e-19
4.92255e-20
2.30034e-20
8.18242e-21
4.09798e-21
2.07981e-21
8.97591e-22
)
;
    }
    lowerWall
    {
        type            alphaContactAngle;
        contactAngleProperties 
        {
            air             
            {
                theta0          90;
            }
            water           
            {
                theta0          90;
            }
            oil             
            {
                theta0          90;
            }
        }
        value           nonuniform List<scalar> 
62
(
1
1
1
1
1
1
1
1
1
1
1
1
1
1
1
1
1
1
1
1
1
0.999565
0.999432
0.999432
0.999432
0.999686
0.999986
1
1
1
0.99999
0.688158
0.366982
0.00420337
0.0040971
0.876323
0.876214
0.875853
0.866148
0.779377
0.199102
0.0938249
0.0394116
0.876323
0.876297
0.871687
0.61906
0.545356
0.546927
0.575551
0.591445
0.589821
0.589782
0.643786
0.675916
0.699203
0.69979
0.700273
0.702605
0.700936
0.701642
0.699944
)
;
    }
    atmosphere
    {
        type            inletOutlet;
        inletValue      uniform 0;
        value           nonuniform List<scalar> 
46
(
0
0
0
0
0
0
0
0
0
0
0
0
0
0
0
0
0
0
0
0
0
0
0
0
0
0
0
0
0
0
0
3.0549e-24
9.15211e-24
2.54388e-23
6.90353e-23
1.78686e-22
4.23604e-22
9.08956e-22
1.73724e-21
2.80207e-21
3.91391e-21
3.93725e-21
3.36977e-21
1.39947e-21
1.07096e-21
8.97591e-22
)
;
    }
    defaultFaces
    {
        type            empty;
    }
}


// ************************************************************************* //
