/*--------------------------------*- C++ -*----------------------------------*\
  =========                 |
  \\      /  F ield         | OpenFOAM: The Open Source CFD Toolbox
   \\    /   O peration     | Website:  https://openfoam.org
    \\  /    A nd           | Version:  13
     \\/     M anipulation  |
\*---------------------------------------------------------------------------*/
FoamFile
{
    format      ascii;
    class       volScalarField;
    location    "1.5";
    object      alpha.water;
}
// * * * * * * * * * * * * * * * * * * * * * * * * * * * * * * * * * * * * * //

dimensions      [];

internalField   nonuniform List<scalar> 
2268
(
2.70795e-11
5.61567e-11
9.14309e-11
9.75198e-11
9.81465e-11
1.0224e-10
1.0714e-10
1.12404e-10
1.17461e-10
1.21906e-10
1.25518e-10
1.28688e-10
1.30049e-10
1.33421e-10
1.41818e-10
1.62681e-10
2.06049e-10
2.69729e-10
3.95099e-10
7.23665e-10
1.46284e-09
2.33667e-09
2.60853e-09
6.96178e-11
3.67043e-10
3.47163e-10
3.12109e-10
2.87478e-10
2.87017e-10
3.09731e-10
3.4575e-10
3.85071e-10
4.26654e-10
4.66895e-10
4.8913e-10
4.99263e-10
4.80897e-10
4.37647e-10
3.89082e-10
3.93808e-10
4.39693e-10
5.48274e-10
8.73206e-10
1.80821e-09
2.88142e-09
2.93052e-09
6.98801e-10
1.13812e-09
5.95594e-10
4.20196e-10
3.48971e-10
3.27279e-10
3.66663e-10
4.26105e-10
5.09062e-10
6.41473e-10
7.81619e-10
9.59847e-10
1.08563e-09
1.15958e-09
1.15781e-09
1.0407e-09
7.69223e-10
6.39577e-10
7.77879e-10
9.78808e-10
1.91607e-09
3.03981e-09
3.04025e-09
2.93673e-10
2.93125e-10
2.88379e-10
2.88147e-10
2.88385e-10
2.85768e-10
2.85951e-10
2.85787e-10
2.8589e-10
2.84728e-10
2.85563e-10
6.48864e-10
1.02527e-09
1.32753e-09
1.61962e-09
1.70899e-09
1.36347e-09
8.07496e-10
8.15014e-10
1.04027e-09
1.61809e-09
2.65901e-09
2.35577e-09
0.133246
0.127918
0.116037
0.0991668
0.079975
0.059463
0.0386531
0.019726
0.0058651
7.81807e-05
3.04404e-10
6.8577e-10
4.01424e-10
5.96463e-10
5.75153e-10
7.39525e-10
6.93217e-10
5.74299e-10
6.76712e-10
9.27253e-10
1.51099e-09
1.8171e-09
8.72961e-10
0.906617
0.88121
0.860618
0.838036
0.810378
0.773669
0.722499
0.651562
0.554856
0.426491
0.277954
0.158633
0.0636331
0.00970819
3.8593e-12
2.4538e-16
3.2914e-12
9.33097e-11
1.27515e-10
4.92369e-27
5.90843e-26
3.44854e-10
2.52892e-10
1
1
1
1
1
1
1
1
1
1
0.991039
0.922353
0.796775
0.594974
0.323651
0.089855
2.81625e-08
1.2594e-15
-1.80038e-08
-1.56886e-08
-1.34505e-08
-7.49056e-09
-2.07059e-09
1
1
1
1
1
1
1
1
1
1
1
1
1
1
0.99579
0.89871
0.646608
0.299331
0.0582417
4.07982e-12
-3.73332e-09
-3.84321e-09
-1.24641e-09
0.0201545
0.0380256
0.0446702
0.0118507
0.00469632
0.00461395
0.00210489
0.00197683
0.00150152
0.00162735
0.0516664
0.093131
0.123214
0.123211
0.113262
0.02306
0.0201693
0.018889
0.018889
0.0201545
0.0891758
0.141018
0.11212
0.0459173
0.0584166
0.0239861
0.00264662
0.00119349
0.00146223
0.00682831
0.02027
0.0348095
0.0955868
0.114514
0.079652
0.0332921
0.018889
0.018889
0.0201645
0.140659
0.514463
0.385026
0.351757
0.439344
0.212631
0.0334701
0.00118855
0.00119011
0.00120629
0.00120777
0.00280603
0.0215773
0.0216585
0.0449012
0.0868711
0.10186
0.0211933
0.0267638
0.0784442
0.50565
0.85269
0.921497
0.975447
0.767703
0.355837
0.157842
0.0931415
0.0171857
0.0289165
0.130881
0.28662
0.279712
0.32347
0.445734
0.358422
0.19861
0.0233819
0.00274074
0.410838
0.971188
0.999899
0.999901
0.994942
0.913533
0.75131
0.562816
0.318285
0.28743
0.534836
0.756971
0.741969
0.747973
0.775298
0.653663
0.377247
8.46794e-06
8.81121e-06
0.446061
0.900058
0.999904
0.999904
0.999335
0.998942
0.998962
0.968434
0.833375
0.756492
0.813155
0.888846
0.88713
0.851094
0.840357
0.734649
0.421808
0.00194931
7.49851e-05
0.286713
0.895022
0.996178
0.999904
0.99979
0.999334
0.999537
0.999846
0.999382
0.962236
0.973241
0.976771
0.788518
0.342496
0.309219
0.473926
0.388844
0.153646
0.0014528
0.0404158
0.817024
0.998182
0.999756
0.999902
0.999903
0.999891
0.999898
0.9999
0.999885
0.999879
0.999684
0.626946
0.0654027
0.000817857
0.23071
0.212343
1
1
1
1
1
1
1
1
1
1
1
1
1
1
1
1
0.999087
0.975447
0.893266
0.749492
0.60046
0.473978
0.2343
1
1
1
1
1
1
1
1
1
1
1
1
1
1
1
1
1
1
1
1
0.999994
0.998858
0.993369
1
1
0.999962
0.999866
1
1
1
1
1
1
1
1
1
1
1
1
1
1
1
1
1
0.99999
0.999075
0.999973
0.968237
0.932592
0.923517
0.93343
0.956614
0.960959
0.95008
0.959014
0.964725
0.956166
0.94444
0.95215
0.972357
0.982741
0.976471
0.973329
0.980498
0.99323
0.997029
0.994934
0.993556
0.897561
0.842339
0.461548
0.233522
0.197867
0.223498
0.292685
0.349815
0.406681
0.415928
0.438299
0.44019
0.454249
0.480321
0.521324
0.561181
0.56463
0.545743
0.562125
0.611637
0.618886
0.573399
0.464752
0.259267
0.235579
4.60668e-12
4.03416e-12
2.25054e-12
2.29809e-24
-3.6074e-12
1.04823e-23
2.64819e-22
1.04325e-22
2.40865e-28
-1.06914e-17
-3.82427e-17
-1.7658e-10
-6.24112e-27
-2.24861e-26
5.62849e-17
1.16419e-16
1.02647e-16
9.45065e-17
2.04358e-16
1.06945e-15
9.05974e-17
2.43023e-16
0.0402004
5.14578e-12
9.05441e-06
9.83905e-06
2.78331e-07
-3.80048e-26
9.84829e-09
3.51402e-08
3.38407e-08
6.17921e-10
6.70447e-11
8.95669e-11
9.06404e-10
1.20992e-09
6.7952e-09
3.4681e-08
4.4201e-08
3.41848e-08
3.07823e-08
5.33532e-08
1.26763e-07
4.52052e-07
6.48785e-07
0.000317339
1.61745e-05
2.91807e-05
2.31e-05
6.44966e-13
9.57517e-14
1.72288e-07
4.40177e-07
4.24154e-07
1.74e-07
7.01775e-11
7.28106e-11
7.21566e-09
6.56896e-09
3.32368e-08
2.05005e-07
2.11355e-07
1.4757e-07
1.19956e-07
2.29696e-07
6.42606e-07
6.61738e-07
3.07827e-07
-1.20251e-21
5.21696e-06
2.91788e-05
8.64749e-06
2.18119e-08
4.38916e-09
2.33564e-07
4.62091e-07
4.65408e-07
3.93056e-07
1.19581e-07
1.34663e-07
3.377e-08
9.41692e-09
8.19158e-09
7.21177e-08
6.90289e-08
5.70081e-10
1.70241e-10
1.68353e-10
1.70243e-10
1.68357e-10
1.70245e-10
-4.45582e-09
6.71447e-07
1.12736e-05
2.90238e-06
3.6631e-08
3.15026e-08
3.06871e-08
1.88926e-08
9.229e-08
1.29417e-07
3.83612e-07
3.94279e-07
6.73545e-08
1.31984e-08
2.96881e-09
7.26168e-10
3.97923e-10
1.46685e-09
9.56933e-10
6.29026e-10
4.24148e-10
2.79934e-10
2.334e-10
-5.10229e-08
4.47132e-07
1.29658e-06
3.24326e-07
1.37342e-08
3.73976e-09
7.34597e-10
3.49398e-10
1.79239e-10
8.88187e-08
5.00524e-07
5.00227e-07
1.0794e-07
2.54764e-08
1.02795e-08
1.66714e-08
7.59698e-09
5.76348e-09
1.88666e-09
8.46107e-10
6.32179e-10
5.17633e-10
4.52779e-10
-1.15522e-07
8.73317e-13
2.79617e-09
2.38039e-08
1.08776e-08
7.81027e-09
1.11691e-09
7.74763e-10
1.75359e-10
5.59321e-07
2.34514e-06
2.27058e-06
5.52142e-07
1.76425e-07
6.50983e-08
9.48281e-08
4.68737e-08
9.28569e-09
2.98418e-09
7.08865e-10
5.73028e-10
4.80892e-10
4.73159e-10
-7.87309e-08
-7.33977e-09
1.496e-09
1.58914e-08
1.82671e-08
8.04477e-09
9.39329e-10
1.09702e-09
1.68708e-10
8.96323e-07
2.49636e-06
2.68299e-06
1.68584e-06
5.45925e-07
3.64956e-07
6.87377e-07
5.27115e-07
1.94848e-07
9.22039e-09
9.32992e-10
1.28425e-09
8.28344e-10
6.18634e-10
3.64473e-08
3.95712e-08
1.51137e-08
2.07994e-08
1.79921e-08
5.08141e-09
9.44761e-10
7.30822e-10
1.85624e-10
4.45247e-07
1.96123e-06
2.68339e-06
2.68978e-06
1.12284e-06
1.16222e-06
2.15161e-06
1.61239e-06
3.97053e-07
4.38271e-09
9.45417e-09
2.60625e-08
1.9447e-08
9.52372e-09
4.2958e-08
1.4943e-08
1.3005e-08
1.66163e-08
6.6398e-09
3.68189e-09
1.5712e-09
3.95175e-10
1.9845e-10
1.88327e-10
4.74801e-07
1.96206e-06
2.685e-06
2.08182e-06
2.71904e-06
3.07291e-06
3.04517e-06
3.52027e-07
1.47123e-08
2.69434e-08
4.30976e-08
3.48996e-08
1.8338e-08
1.84551e-08
1.14173e-08
6.24465e-09
4.69759e-09
3.76293e-09
3.69864e-09
1.95973e-09
5.99867e-10
2.5711e-10
1.81534e-10
1.88034e-10
1.44939e-07
2.28291e-06
3.02307e-06
3.02682e-06
3.04832e-06
2.27472e-06
1.90775e-07
3.9947e-08
2.80213e-08
4.30748e-08
3.04548e-08
1.94745e-08
2.09748e-08
1.46672e-08
3.15042e-09
2.90451e-09
3.23109e-09
3.18993e-09
2.1986e-09
1.22294e-09
4.53076e-10
2.3208e-10
1.84503e-10
9.93783e-17
2.01506e-10
6.20779e-07
1.07239e-06
1.28729e-06
1.87907e-08
8.96948e-08
4.46627e-08
2.59667e-08
3.18531e-08
2.69666e-08
1.86935e-08
2.0952e-08
1.27936e-08
3.31279e-09
2.84935e-09
3.01867e-09
2.67914e-09
2.29715e-09
1.6426e-09
8.04187e-10
3.65935e-10
2.99655e-10
9.61097e-10
1.80671e-08
1.08397e-07
7.84428e-10
6.72158e-10
1.15824e-09
4.03233e-08
4.04573e-08
1.79277e-08
1.68578e-08
1.8297e-08
1.50668e-08
1.86936e-08
1.27339e-08
3.88552e-09
2.74611e-09
2.76084e-09
2.52161e-09
2.24432e-09
1.86327e-09
1.22434e-09
6.19528e-10
4.15801e-10
2.02298e-09
1.16061e-08
1.78455e-08
2.15603e-09
8.31725e-10
9.0536e-09
3.03245e-08
3.17122e-08
1.01955e-08
3.88183e-09
6.4959e-09
7.86349e-09
1.61777e-08
1.19937e-08
5.05642e-09
2.64657e-09
2.41784e-09
2.20294e-09
2.10451e-09
1.8866e-09
1.45146e-09
7.98071e-10
3.83969e-10
2.33066e-10
1.33837e-10
1.27652e-10
4.31116e-10
2.28634e-09
6.05981e-09
1.15353e-08
9.29188e-09
4.84404e-09
1.75756e-09
9.18255e-10
2.4335e-09
1.29672e-08
1.03129e-08
5.49475e-09
2.7596e-09
2.16495e-09
1.91499e-09
1.78191e-09
1.69884e-09
1.5133e-09
9.49782e-10
5.43473e-10
3.17287e-10
1.84671e-10
1.28531e-10
1.31672e-10
1.92338e-10
2.10075e-10
3.82014e-10
1.41933e-09
1.42784e-09
5.37872e-10
4.05535e-10
3.97171e-10
1.11852e-08
8.2643e-09
5.10611e-09
2.64869e-09
1.98371e-09
1.55051e-09
1.38443e-09
1.29586e-09
1.21855e-09
1.06144e-09
6.63465e-10
3.61587e-10
2.17352e-10
1.37246e-10
1.13737e-10
1.21612e-10
1.63918e-10
2.22868e-10
3.16517e-10
3.37516e-10
2.45375e-10
1.54356e-10
1.39066e-10
9.25856e-09
6.35424e-09
4.29688e-09
2.25521e-09
1.67546e-09
1.22224e-09
1.02496e-09
9.14789e-10
8.68829e-10
7.95958e-10
6.80151e-10
4.02476e-10
2.21724e-10
1.25856e-10
7.95013e-11
6.20056e-11
6.13404e-11
7.26429e-11
8.17638e-11
8.67047e-11
8.25465e-11
7.08166e-11
6.49159e-11
7.39767e-09
4.62632e-09
3.20529e-09
1.69116e-09
1.22003e-09
9.03617e-10
7.09273e-10
6.03773e-10
5.50106e-10
5.25519e-10
4.83221e-10
3.65581e-10
2.30534e-10
1.23836e-10
6.53142e-11
4.15065e-11
3.21005e-11
2.98781e-11
3.21612e-11
3.49823e-11
3.57093e-11
3.55276e-11
3.42525e-11
5.28235e-09
3.23262e-09
2.17198e-09
1.19891e-09
7.69078e-10
5.59699e-10
4.47674e-10
3.67333e-10
3.21244e-10
2.97344e-10
2.79943e-10
2.47202e-10
1.8152e-10
1.13695e-10
5.78354e-11
3.08597e-11
1.86498e-11
1.5281e-11
1.4265e-11
1.55202e-11
1.62869e-11
1.72539e-11
1.7193e-11
3.41434e-09
2.04487e-09
1.30435e-09
7.43294e-10
4.54598e-10
3.02227e-10
2.3552e-10
1.96495e-10
1.67312e-10
1.53293e-10
1.41594e-10
1.27637e-10
1.09034e-10
7.73639e-11
4.45726e-11
2.29313e-11
1.13108e-11
8.03135e-12
6.83272e-12
6.85958e-12
7.48174e-12
7.89581e-12
7.78754e-12
1.76626e-09
1.10009e-09
6.93273e-10
3.99322e-10
2.37692e-10
1.47122e-10
1.09837e-10
9.11736e-11
7.72407e-11
6.74451e-11
6.2263e-11
5.55623e-11
4.886e-11
3.88719e-11
2.56041e-11
1.36779e-11
6.04123e-12
3.92294e-12
3.07983e-12
2.95221e-12
3.04391e-12
3.22048e-12
3.32405e-12
7.88424e-10
5.07322e-10
3.06516e-10
1.75195e-10
1.01445e-10
6.08106e-11
4.2974e-11
3.43756e-11
2.97273e-11
2.61559e-11
2.384e-11
2.11545e-11
1.86656e-11
1.56012e-11
1.0953e-11
6.32796e-12
2.73394e-12
1.67232e-12
1.26118e-12
1.19674e-12
1.223e-12
1.23119e-12
1.24612e-12
2.5738e-10
1.79914e-10
1.07467e-10
6.09324e-11
3.56271e-11
2.09719e-11
1.40046e-11
1.08106e-11
9.64116e-12
8.54495e-12
7.69651e-12
6.97974e-12
6.0522e-12
5.1842e-12
3.78326e-12
2.29949e-12
1.00953e-12
5.9168e-13
4.53743e-13
4.28671e-13
4.16946e-13
4.24812e-13
4.13669e-13
6.84403e-11
5.17069e-11
3.15671e-11
1.73721e-11
9.54632e-12
5.71309e-12
3.73519e-12
2.84156e-12
2.51951e-12
2.27131e-12
2.09712e-12
1.87697e-12
1.65231e-12
1.41469e-12
1.03011e-12
6.4809e-13
3.14039e-13
1.62575e-13
1.40095e-13
1.37587e-13
1.38672e-13
1.31276e-13
1.2047e-13
9.98269e-12
1.00286e-11
6.4363e-12
3.54911e-12
2.02106e-12
1.2698e-12
8.15972e-13
6.16534e-13
5.52392e-13
5.04536e-13
4.65857e-13
4.18026e-13
3.74728e-13
3.16479e-13
2.29091e-13
1.43752e-13
7.62169e-14
4.15876e-14
3.86328e-14
3.85553e-14
3.90883e-14
3.47764e-14
2.91042e-14
1.42324e-12
1.56815e-12
1.08536e-12
6.30947e-13
3.54325e-13
2.23432e-13
1.47072e-13
1.141e-13
9.53243e-14
8.93405e-14
8.32222e-14
7.7065e-14
7.05598e-14
5.79373e-14
4.13841e-14
2.50317e-14
1.38089e-14
9.53877e-15
9.30916e-15
9.53184e-15
9.4786e-15
7.38073e-15
6.0892e-15
1.71436e-13
2.03089e-13
1.47867e-13
9.16012e-14
5.46288e-14
3.46466e-14
2.2566e-14
1.49306e-14
1.28774e-14
1.20536e-14
1.17111e-14
1.13508e-14
1.03739e-14
8.42672e-15
5.86888e-15
3.60679e-15
2.30057e-15
1.95298e-15
2.00153e-15
1.98516e-15
1.76611e-15
1.42447e-15
9.79668e-16
2.27271e-14
2.54182e-14
1.93482e-14
1.22246e-14
7.2076e-15
4.36168e-15
2.82237e-15
1.84978e-15
1.43872e-15
1.46135e-15
1.48577e-15
1.44419e-15
1.29175e-15
1.01673e-15
7.12699e-16
4.68416e-16
3.57273e-16
3.61365e-16
3.65539e-16
3.59541e-16
3.01417e-16
2.05424e-16
1.3101e-16
2.81611e-15
3.08631e-15
2.30594e-15
1.43889e-15
8.30901e-16
4.72035e-16
2.96443e-16
1.95495e-16
1.46919e-16
1.52894e-16
1.57734e-16
1.55706e-16
1.38677e-16
1.08821e-16
7.73657e-17
6.02579e-17
6.03115e-17
6.14312e-17
6.13286e-17
5.43312e-17
3.95565e-17
2.60865e-17
1.49e-17
3.12704e-16
3.29503e-16
2.37179e-16
1.45463e-16
8.20781e-17
4.69301e-17
2.88717e-17
1.88992e-17
1.39342e-17
1.43401e-17
1.48295e-17
1.45343e-17
1.29983e-17
1.03562e-17
8.21406e-18
8.22168e-18
8.74693e-18
8.83134e-18
8.24192e-18
6.60307e-18
4.55647e-18
2.58498e-18
1.50729e-18
3.17142e-17
3.08358e-17
2.12361e-17
1.27353e-17
7.22662e-18
4.11967e-18
2.45218e-18
1.5674e-18
1.11881e-18
1.13785e-18
1.19262e-18
1.18225e-18
1.08121e-18
9.3238e-19
9.44648e-19
1.04117e-18
1.12938e-18
1.11248e-18
9.43121e-19
6.78325e-19
4.09013e-19
2.32141e-19
6.63622e-20
2.89909e-18
2.61254e-18
1.72859e-18
1.0161e-18
5.70294e-19
3.196e-19
1.85107e-19
1.14353e-19
7.86052e-20
7.80135e-20
8.34956e-20
8.54537e-20
8.4744e-20
8.92064e-20
1.03566e-19
1.20855e-19
1.28754e-19
1.17685e-19
9.2285e-20
5.98814e-20
3.52086e-20
9.31266e-21
1.07265e-21
2.34648e-19
2.01186e-19
1.29011e-19
7.43164e-20
4.08663e-20
2.24408e-20
1.25878e-20
7.2966e-21
4.77753e-21
4.59761e-21
5.10336e-21
5.78049e-21
6.56003e-21
8.21674e-21
1.05602e-20
1.25464e-20
1.31382e-20
1.14377e-20
8.05784e-21
5.08695e-21
1.5376e-21
1.96487e-22
1.6824e-23
1.74892e-20
1.404e-20
8.70686e-21
4.89823e-21
2.65346e-21
1.42504e-21
7.69043e-22
4.2647e-22
2.70257e-22
2.61481e-22
3.12996e-22
4.03663e-22
5.63697e-22
8.11794e-22
1.07603e-21
1.25506e-21
1.26038e-21
1.05185e-21
6.28931e-22
2.39652e-22
4.72615e-23
5.59761e-24
4.05838e-25
1.15827e-21
8.66119e-22
5.07133e-22
2.81204e-22
1.50838e-22
7.81248e-23
4.03672e-23
2.09778e-23
1.28029e-23
1.35848e-23
1.91731e-23
3.04598e-23
5.0173e-23
7.69382e-23
1.0173e-22
1.12424e-22
1.07603e-22
8.01812e-23
3.98468e-23
1.17164e-23
1.69183e-24
7.31626e-26
7.85844e-28
5.03996e-23
3.78491e-23
2.39048e-23
1.29671e-23
6.46594e-24
3.35087e-24
1.70185e-24
8.38695e-25
5.16818e-25
6.58558e-25
1.15668e-24
2.2043e-24
4.0299e-24
6.55221e-24
8.74021e-24
9.00326e-24
8.11273e-24
5.43786e-24
2.30714e-24
5.73072e-25
5.41387e-26
1.32884e-27
4.66464e-29
0.311342
0.632527
0.995458
0.995759
0.997504
0.997222
0.997504
0.996347
0.989673
0.990759
0.995153
0.84648
0.735248
0.697297
0.735232
0.66592
0.0923782
-7.10717e-09
7.10717e-09
-2.34909e-26
9.05974e-17
1.11853e-09
2.42767e-09
6.07352e-09
7.17486e-07
3.01118e-07
1.48321e-09
1.3926e-09
6.21616e-08
1.47202e-08
1.73198e-09
1.73726e-09
1.68361e-10
1.70257e-10
2.48912e-09
3.02943e-09
2.31967e-10
2.25808e-10
2.28507e-10
2.34246e-10
4.29919e-10
4.12166e-10
3.9995e-10
3.81596e-10
5.50227e-10
5.89499e-10
5.0019e-10
4.46759e-10
1.1036e-09
9.38905e-10
6.54924e-10
5.34242e-10
7.16497e-09
3.99951e-09
2.62754e-09
2.23421e-09
1.10112e-08
7.79868e-09
6.83494e-09
5.70015e-09
1.20131e-08
9.74119e-09
8.0797e-09
7.78507e-09
1.22347e-08
8.38659e-09
8.28111e-09
7.1962e-09
1.20505e-08
8.48886e-09
7.90752e-09
7.2613e-09
7.349e-09
6.69514e-09
6.47978e-09
5.90417e-09
2.96508e-09
3.13572e-09
3.2999e-09
3.31022e-09
5.83575e-10
1.05801e-09
1.32625e-09
1.47762e-09
1.54408e-10
2.25e-10
3.47116e-10
4.49411e-10
6.43271e-11
6.44647e-11
7.08268e-11
8.72104e-11
3.27257e-11
3.22737e-11
3.32421e-11
3.33105e-11
1.62303e-11
1.5769e-11
1.57785e-11
1.57451e-11
7.27365e-12
6.86547e-12
6.84219e-12
6.66898e-12
3.15747e-12
2.93202e-12
2.81394e-12
2.63185e-12
1.15709e-12
1.04709e-12
1.01856e-12
9.22462e-13
3.87139e-13
3.44798e-13
3.26666e-13
2.82682e-13
1.09416e-13
9.22053e-14
8.64686e-14
7.2079e-14
2.51348e-14
2.03198e-14
1.82355e-14
1.49582e-14
5.11435e-15
3.80469e-15
3.22193e-15
2.46578e-15
7.67769e-16
5.74333e-16
4.17931e-16
3.07173e-16
9.67176e-17
6.53766e-17
4.75147e-17
3.53074e-17
1.05469e-17
7.73776e-18
3.60735e-18
6.74887e-19
5.99456e-19
1.48555e-19
1.85031e-20
5.40211e-22
2.36395e-21
1.62438e-23
1.44674e-26
1.79132e-26
1.5769e-28
3.6717e-28
1.41391e-27
4.95981e-27
1.5559e-28
4.56803e-28
1.70783e-27
5.7023e-27
1.53762e-28
5.1994e-28
1.88467e-27
5.99032e-27
1.51738e-28
4.94658e-28
1.7074e-27
5.1801e-27
1.00111e-28
3.24999e-28
1.01813e-27
2.67361e-27
0.78723
0.07402
1.7256e-06
0.445611
0.949041
0.999874
0.999902
0.999903
0.999363
0.998988
0.96752
0.913267
0.857731
0.698793
0.293904
0.00212404
3.3576e-05
0.00675874
0.0703252
0.822144
0.259535
0.000157585
0.00493427
0.599513
0.922596
0.970916
0.973829
0.845849
0.348535
0.189162
0.152422
0.0979115
0.0303191
0.000747827
1.83398e-05
1.50235e-07
1.03696e-05
0.0387782
0.667591
0.078059
1.70531e-06
2.66855e-06
0.052126
0.613371
0.758025
0.503577
0.0612094
0.000189815
3.59808e-06
1.38012e-08
1.05964e-19
5.69827e-19
-4.41587e-13
3.2861e-07
1.58891e-07
2.22321e-08
0.0143817
0.0355269
6.265e-05
8.72263e-05
7.0564e-05
3.25393e-05
1.08376e-06
0.0376078
0.0397002
0.0116782
2.2619e-05
3.32363e-06
1.02822e-10
6.97889e-11
3.3801e-10
5.48281e-10
2.48888e-10
9.20038e-09
2.26759e-08
0.00561565
1.20654e-26
4.69019e-05
0.000160469
0.00017482
0.000104445
5.59552e-06
5.11762e-10
2.88201e-10
4.30864e-05
1.85439e-05
2.37681e-06
1.52155e-10
1.02829e-10
5.28157e-09
4.25623e-09
1.31131e-10
5.15748e-12
6.35424e-07
0.00237522
4.81776e-09
8.09506e-10
1.42836e-05
6.06367e-05
5.05491e-05
4.11918e-05
3.86583e-05
1.00661e-05
1.91065e-07
3.49794e-07
8.57874e-08
3.63445e-09
1.09994e-09
3.69905e-09
2.21811e-08
1.8725e-08
-6.92261e-12
2.67638e-06
0.00223804
1.63732e-09
8.77765e-10
4.77828e-11
3.88092e-11
4.77816e-11
3.88092e-11
4.77816e-11
1.20621e-08
3.31157e-09
2.20842e-09
3.63121e-10
1.32158e-09
1.80801e-09
4.28207e-09
2.12467e-08
2.37306e-08
6.19378e-09
0.000145502
0.0149677
1.22125e-09
4.71486e-10
8.40511e-10
1.006e-08
1.38554e-08
1.3764e-08
3.62308e-09
6.36029e-11
1.14382e-10
1.0302e-10
2.53647e-10
3.70075e-10
7.76249e-10
9.19291e-10
1.15423e-08
4.83176e-12
5.35108e-11
0.00145311
0.0205499
1.18065e-09
2.32849e-10
1.16363e-10
1.08013e-10
1.09338e-10
1.07955e-10
1.41836e-10
1.26957e-10
6.99382e-11
5.66484e-11
5.8537e-11
4.52508e-11
5.75368e-11
3.64226e-11
2.43473e-11
7.69601e-11
3.93971e-11
0.00134084
0.0202824
2.41921e-10
2.40484e-10
2.18413e-10
1.70849e-10
1.33257e-10
1.13552e-10
1.05143e-10
9.84057e-11
7.98119e-11
4.96189e-11
2.9366e-11
1.68565e-11
1.77797e-11
1.56532e-11
2.72355e-07
2.91931e-06
1.85961e-06
0.000190613
0.0206895
3.41198e-10
3.07378e-10
2.70854e-10
2.33456e-10
1.86219e-10
1.39902e-10
1.01594e-10
5.62793e-11
4.41565e-11
2.2954e-11
1.60322e-11
1.6552e-11
3.19459e-08
2.14667e-06
3.27902e-06
4.22745e-06
3.97479e-06
1.35268e-07
0.00831949
3.70425e-10
3.11466e-10
2.51818e-10
1.87683e-10
1.18757e-10
7.01534e-11
3.81593e-11
2.74407e-11
2.22981e-11
1.09557e-11
2.0549e-10
1.22504e-07
9.63807e-07
2.18434e-06
1.66354e-06
8.56588e-07
2.21752e-06
1.28956e-07
1.06063e-06
4.9583e-10
2.91593e-10
1.94792e-10
1.16711e-10
6.87927e-11
3.55693e-11
2.64117e-11
6.14237e-11
1.54003e-10
1.23939e-11
3.55871e-08
3.6511e-07
7.52213e-07
2.58885e-07
6.92032e-08
6.44103e-10
3.69206e-09
5.61265e-08
1.65349e-08
1.72454e-09
4.07646e-10
1.59078e-10
8.68113e-11
4.47294e-11
2.91877e-11
2.58885e-11
2.58875e-11
1.18351e-09
1.50995e-08
6.30393e-08
1.51577e-07
2.55218e-08
1.88956e-12
1.49476e-12
5.40746e-11
2.42121e-10
7.15342e-09
1.17839e-08
3.39555e-09
5.7803e-10
1.54448e-10
7.41045e-11
3.94122e-11
3.17744e-11
6.60691e-11
6.60408e-10
3.26877e-09
9.33122e-09
1.20189e-08
-1.74763e-10
1.9055e-11
3.82357e-12
1.66943e-11
7.27698e-11
1.71453e-10
6.29005e-10
1.28198e-08
5.25495e-09
1.26379e-09
2.90477e-10
8.81551e-11
4.389e-11
3.92534e-11
6.40351e-11
2.59452e-10
7.62325e-10
1.41452e-09
1.50315e-09
4.65088e-10
1.1858e-12
2.54966e-12
8.97433e-12
3.55231e-11
6.58291e-11
5.23594e-11
2.72352e-09
6.1204e-09
3.32704e-09
9.89362e-10
1.74953e-10
5.18391e-11
3.44875e-11
3.79351e-11
6.60007e-11
1.54787e-10
2.71082e-10
4.27057e-10
3.20715e-10
1.27299e-12
2.08275e-12
2.35098e-12
3.45759e-12
6.79257e-12
3.22424e-12
8.47882e-11
6.20038e-09
4.22567e-09
2.59163e-09
7.372e-10
1.31421e-10
4.97631e-11
3.21752e-11
3.15731e-11
4.29629e-11
8.79513e-11
1.56883e-10
1.33869e-10
2.80292e-12
2.07208e-12
1.21925e-12
9.8972e-13
1.30448e-12
1.54245e-13
1.84468e-11
5.34469e-09
4.02341e-09
2.83552e-09
1.89274e-09
8.01904e-10
2.15629e-10
6.81781e-11
3.02555e-11
2.1785e-11
2.32632e-11
3.28146e-11
3.2234e-11
3.27302e-12
1.96232e-12
1.04949e-12
6.29676e-13
3.43103e-13
1.54492e-13
8.775e-14
3.25604e-09
2.96312e-09
2.43896e-09
1.825e-09
1.3286e-09
7.33622e-10
2.73927e-10
8.18453e-11
2.64241e-11
1.42034e-11
1.10293e-11
8.4878e-12
2.89593e-12
1.75899e-12
9.15677e-13
4.95399e-13
2.61564e-13
1.3095e-13
7.00356e-14
1.60512e-09
1.66983e-09
1.6038e-09
1.35352e-09
1.05578e-09
7.67877e-10
5.05425e-10
2.16692e-10
6.72243e-11
1.94252e-11
8.34072e-12
4.6151e-12
2.42416e-12
1.38713e-12
6.82868e-13
3.32555e-13
1.72805e-13
9.78598e-14
4.86879e-14
5.9065e-10
7.19785e-10
7.53469e-10
7.4213e-10
6.70549e-10
5.33471e-10
4.09341e-10
2.64791e-10
1.10209e-10
3.6094e-11
1.12366e-11
3.94446e-12
1.71092e-12
8.7002e-13
3.81861e-13
1.52969e-13
6.82164e-14
5.03045e-14
2.75043e-14
1.37711e-10
2.12977e-10
2.7123e-10
2.9427e-10
2.97371e-10
2.78129e-10
2.34362e-10
1.90131e-10
9.93607e-11
3.84648e-11
1.30523e-11
3.61361e-12
1.05131e-12
4.16376e-13
1.63471e-13
3.70066e-14
2.06976e-14
1.94955e-14
1.23312e-14
3.82021e-11
5.25395e-11
7.46097e-11
9.13583e-11
1.00991e-10
1.05686e-10
1.00001e-10
9.24208e-11
6.09089e-11
2.80338e-11
1.01897e-11
2.62115e-12
5.43412e-13
1.37032e-13
3.56268e-14
9.24259e-15
1.03454e-14
9.19917e-15
6.30419e-15
1.59136e-11
1.68462e-11
2.00198e-11
2.40726e-11
2.79489e-11
3.15597e-11
3.33822e-11
3.30768e-11
2.47063e-11
1.34695e-11
5.11871e-12
1.24789e-12
1.84323e-13
2.71356e-14
3.47511e-15
4.27356e-15
5.41617e-15
5.06374e-15
3.23879e-15
6.56093e-12
6.35998e-12
6.31558e-12
6.58693e-12
7.30334e-12
8.30857e-12
8.8157e-12
9.19525e-12
7.15821e-12
4.10807e-12
1.55213e-12
2.93243e-13
1.6818e-14
1.21039e-15
1.1865e-15
1.9237e-15
2.6729e-15
2.75419e-15
1.58195e-15
2.48803e-12
2.19918e-12
1.95917e-12
1.84396e-12
1.87057e-12
2.07982e-12
2.23617e-12
2.05835e-12
1.52058e-12
8.10992e-13
2.24414e-13
7.57772e-15
4.32732e-16
2.58022e-16
4.52278e-16
8.02419e-16
1.29146e-15
1.44079e-15
7.83743e-16
8.37472e-13
7.04514e-13
5.63456e-13
4.84423e-13
4.57436e-13
4.74464e-13
4.61162e-13
3.83438e-13
2.35514e-13
6.63867e-14
2.79109e-15
2.6905e-16
6.07958e-17
7.55359e-17
1.56069e-16
3.39608e-16
6.07889e-16
6.41251e-16
3.94588e-16
2.37438e-13
1.79648e-13
1.28442e-13
1.0417e-13
8.94028e-14
7.8646e-14
6.54027e-14
4.28078e-14
8.71642e-15
4.65945e-16
1.138e-16
2.6506e-17
9.41017e-18
1.97743e-17
5.55581e-17
1.40404e-16
2.80655e-16
3.4679e-16
1.67449e-16
5.39161e-14
3.77096e-14
2.60482e-14
1.87553e-14
1.06313e-14
7.43608e-15
4.33925e-15
3.19531e-16
2.21179e-17
7.41687e-18
4.04405e-18
1.10668e-18
1.38428e-18
5.39792e-18
2.01855e-17
5.63079e-17
1.27907e-16
1.96835e-16
1.04543e-16
1.01395e-14
6.3042e-15
4.36633e-15
1.77109e-15
5.17589e-16
1.50151e-16
1.12366e-17
3.24805e-19
7.4996e-20
4.0806e-20
3.55495e-20
5.60001e-20
3.07507e-19
1.67402e-18
7.36438e-18
2.18428e-17
5.57068e-17
1.06631e-16
5.12251e-17
1.43124e-15
9.11387e-16
3.28556e-16
5.3851e-17
6.25192e-18
6.78502e-19
4.67352e-20
2.87746e-21
2.98106e-21
5.46927e-21
1.18683e-20
2.79948e-20
1.16279e-19
6.24471e-19
2.80958e-18
8.16252e-18
2.9329e-17
4.41313e-17
2.72918e-17
1.84599e-16
5.38048e-17
6.24978e-18
6.51594e-19
1.08468e-19
1.37068e-20
1.3302e-21
1.29421e-21
2.43217e-21
5.4141e-21
1.18918e-20
2.45589e-20
6.34107e-20
2.7733e-19
1.14406e-18
5.40893e-18
1.55986e-17
2.19248e-17
1.03272e-17
1.08946e-17
7.20359e-19
5.52193e-20
1.14799e-20
2.97758e-21
4.09876e-22
4.7058e-22
9.82213e-22
2.36648e-21
5.547e-21
1.21367e-20
2.38905e-20
4.54175e-20
1.42714e-19
7.30549e-19
3.39054e-18
8.10989e-18
7.79495e-18
4.3663e-18
5.63149e-20
3.31693e-21
8.90791e-22
1.57488e-22
1.33627e-22
1.51543e-22
3.44954e-22
8.97028e-22
2.25229e-21
5.30249e-21
1.17325e-20
2.28559e-20
3.80277e-20
1.16669e-19
5.74309e-19
1.98598e-18
3.10213e-18
3.1524e-18
1.17218e-18
2.65249e-23
1.40791e-23
1.2138e-23
1.61641e-23
4.00729e-23
1.10662e-22
3.07501e-22
8.14764e-22
2.05146e-21
4.83733e-21
1.06143e-20
2.06527e-20
3.44666e-20
9.52678e-20
3.73446e-19
1.05361e-18
1.36674e-18
8.85965e-19
3.72465e-19
1.46094e-25
6.73851e-25
2.57211e-24
9.28492e-24
3.00813e-23
9.026e-23
2.53202e-22
6.70375e-22
1.67834e-21
3.95506e-21
8.59374e-21
1.65418e-20
2.76856e-20
6.61237e-20
2.09466e-19
4.96316e-19
4.85529e-19
2.99062e-19
7.38542e-20
9.31262e-26
4.90324e-25
1.97998e-24
7.05553e-24
2.26392e-23
6.76185e-23
1.87812e-22
4.89098e-22
1.2046e-21
2.80986e-21
6.0105e-21
1.1403e-20
1.89826e-20
4.05019e-20
1.01907e-19
2.02126e-19
1.69509e-19
6.49028e-20
1.9804e-20
7.28075e-26
3.4723e-25
1.36306e-24
4.62536e-24
1.48343e-23
4.33665e-23
1.18685e-22
3.04026e-22
7.36169e-22
1.69449e-21
3.57264e-21
6.67884e-21
1.09719e-20
2.15497e-20
4.31228e-20
7.06627e-20
4.13749e-20
1.75067e-20
3.53066e-21
5.07685e-26
2.0928e-25
7.57296e-25
2.45184e-24
7.36081e-24
2.10021e-23
5.71539e-23
1.47499e-22
3.57534e-22
8.20872e-22
1.72849e-21
3.23197e-21
5.24574e-21
9.62193e-21
1.56499e-20
2.15693e-20
1.14347e-20
2.96805e-21
1.24338e-21
2.63193e-26
9.49196e-26
3.14687e-25
9.66923e-25
2.86582e-24
8.09371e-24
2.18699e-23
5.72919e-23
1.40401e-22
3.23376e-22
6.82478e-22
1.287e-21
2.07956e-21
3.58789e-21
4.93174e-21
5.89524e-21
1.84481e-21
8.92148e-22
5.02439e-22
7.64777e-27
2.37784e-26
7.19655e-26
2.06324e-25
6.54094e-25
1.98235e-24
5.583e-24
1.53879e-23
4.05007e-23
9.77624e-23
2.13675e-22
4.15261e-22
6.81578e-22
1.12336e-21
1.37151e-21
1.47773e-21
4.8398e-22
2.77823e-22
1.9473e-22
)
;

boundaryField
{
    leftWall
    {
        type            alphaContactAngle;
        contactAngleProperties 
        {
            mercury         
            {
                theta0          90;
            }
            air             
            {
                theta0          90;
            }
            oil             
            {
                theta0          90;
            }
        }
        value           nonuniform List<scalar> 
50
(
2.70795e-11
6.96178e-11
6.98801e-10
2.93673e-10
0.133246
0.906617
1
1
1
1
1
0.999973
0.842339
0.235579
0.0402004
0.000317339
-1.20251e-21
-4.45582e-09
-5.10229e-08
-1.15522e-07
-7.87309e-08
3.64473e-08
4.2958e-08
1.84551e-08
2.09748e-08
2.0952e-08
1.86936e-08
1.61777e-08
1.29672e-08
1.11852e-08
9.25856e-09
7.39767e-09
5.28235e-09
3.41434e-09
1.76626e-09
7.88424e-10
2.5738e-10
6.84403e-11
9.98269e-12
1.42324e-12
1.71436e-13
2.27271e-14
2.81611e-15
3.12704e-16
3.17142e-17
2.89909e-18
2.34648e-19
1.74892e-20
1.15827e-21
5.03996e-23
)
;
    }
    rightWall
    {
        type            alphaContactAngle;
        contactAngleProperties 
        {
            mercury         
            {
                theta0          90;
            }
            air             
            {
                theta0          90;
            }
            oil             
            {
                theta0          90;
            }
        }
        value           nonuniform List<scalar> 
50
(
0.018889
0.018889
0.0211933
0.19861
0.377247
0.421808
0.388844
0.212343
0.0703252
0.0387782
0.0143817
0.00561565
0.00237522
0.00223804
0.0149677
0.0205499
0.0202824
0.0206895
0.00831949
1.06063e-06
1.65349e-08
1.17839e-08
1.28198e-08
2.72352e-09
8.47882e-11
1.84468e-11
8.775e-14
7.00356e-14
4.86879e-14
2.75043e-14
1.23312e-14
6.30419e-15
3.23879e-15
1.58195e-15
7.83743e-16
3.94588e-16
1.67449e-16
1.04543e-16
5.12251e-17
2.72918e-17
1.03272e-17
4.3663e-18
1.17218e-18
3.72465e-19
7.38542e-20
1.9804e-20
3.53066e-21
1.24338e-21
5.02439e-22
1.9473e-22
)
;
    }
    lowerWall
    {
        type            alphaContactAngle;
        contactAngleProperties 
        {
            mercury         
            {
                theta0          90;
            }
            air             
            {
                theta0          90;
            }
            oil             
            {
                theta0          90;
            }
        }
        value           nonuniform List<scalar> 
62
(
2.70795e-11
5.61567e-11
9.14309e-11
9.75198e-11
9.81465e-11
1.0224e-10
1.0714e-10
1.12404e-10
1.17461e-10
1.21906e-10
1.25518e-10
1.28688e-10
1.30049e-10
1.33421e-10
1.41818e-10
1.62681e-10
2.06049e-10
2.69729e-10
3.95099e-10
7.23665e-10
1.46284e-09
2.33667e-09
2.60853e-09
2.60853e-09
2.93052e-09
3.04025e-09
2.35577e-09
8.72961e-10
2.52892e-10
-2.07059e-09
-1.24641e-09
0.311342
0.632527
0.995458
0.995759
0.0201545
0.0201545
0.0201645
0.0267638
0.0233819
8.46794e-06
0.00194931
0.153646
0.0201545
0.0380256
0.0446702
0.0118507
0.00469632
0.00461395
0.00210489
0.00197683
0.00150152
0.00162735
0.0516664
0.093131
0.123214
0.123211
0.113262
0.02306
0.0201693
0.018889
0.018889
)
;
    }
    atmosphere
    {
        type            inletOutlet;
        inletValue      uniform 0;
        value           nonuniform List<scalar> 
46
(
0
0
0
0
0
0
0
0
0
0
0
0
0
0
0
0
0
0
0
0
0
0
0
0
0
0
0
0
0
0
0
6.54094e-25
1.98235e-24
5.583e-24
1.53879e-23
4.05007e-23
9.77624e-23
2.13675e-22
4.15261e-22
6.81578e-22
1.12336e-21
1.3715e-21
1.47773e-21
4.8398e-22
2.77823e-22
1.9473e-22
)
;
    }
    defaultFaces
    {
        type            empty;
    }
}


// ************************************************************************* //
