/*--------------------------------*- C++ -*----------------------------------*\
  =========                 |
  \\      /  F ield         | OpenFOAM: The Open Source CFD Toolbox
   \\    /   O peration     | Website:  https://openfoam.org
    \\  /    A nd           | Version:  13
     \\/     M anipulation  |
\*---------------------------------------------------------------------------*/
FoamFile
{
    format      ascii;
    class       volScalarField;
    location    "1.5";
    object      alpha.oil;
}
// * * * * * * * * * * * * * * * * * * * * * * * * * * * * * * * * * * * * * //

dimensions      [];

internalField   nonuniform List<scalar> 
2268
(
5.6898e-16
4.80247e-15
3.19751e-14
1.2114e-13
2.97532e-13
6.40121e-13
1.10772e-12
2.33884e-12
4.64591e-12
8.64561e-12
1.54247e-11
2.90741e-11
5.38958e-11
1.01167e-10
1.89942e-10
3.62286e-10
6.8775e-10
1.23184e-09
1.99565e-09
2.08158e-09
3.51353e-07
0.00043498
0.000568174
4.40926e-16
4.81065e-15
1.7156e-14
5.07721e-14
1.89745e-13
5.54527e-13
1.20043e-12
2.7102e-12
5.67261e-12
1.17357e-11
2.57796e-11
4.52886e-11
9.48669e-11
1.75112e-10
3.31325e-10
6.06181e-10
1.14878e-09
2.17545e-09
4.03046e-09
1.03796e-08
3.61948e-09
0.000116406
0.000568171
6.96814e-16
3.09541e-15
8.41799e-15
2.36369e-14
8.74397e-14
4.59771e-13
1.23291e-12
2.84074e-12
6.45155e-12
1.55844e-11
3.25031e-11
6.8164e-11
1.3296e-10
2.42991e-10
4.16042e-10
6.92596e-10
8.83318e-10
8.95856e-10
1.18745e-08
2.36328e-08
1.43957e-08
1.46809e-08
0.000314184
1.00771e-15
3.51245e-15
1.17369e-14
1.94207e-14
5.06384e-14
2.08459e-13
6.37193e-13
1.59916e-12
4.65748e-12
1.20968e-11
2.81998e-11
6.08124e-11
1.30748e-10
2.51572e-10
5.77022e-10
1.58331e-09
1.95456e-09
1.87619e-09
1.38711e-08
2.63768e-08
2.47807e-08
1.49947e-08
1.41918e-05
7.7872e-13
1.30037e-12
2.92946e-12
3.26437e-12
2.74372e-12
2.04845e-12
1.48404e-12
1.37946e-12
1.67279e-12
3.94807e-12
1.03012e-11
2.56859e-11
7.38774e-11
1.53836e-10
2.52134e-10
2.46026e-09
5.798e-09
3.45121e-09
5.65511e-09
9.60089e-09
2.06663e-08
8.54715e-08
8.60751e-08
1.14258e-10
1.28424e-10
1.50656e-10
1.40909e-10
1.23262e-10
8.62553e-11
4.83986e-11
2.67233e-11
1.48988e-11
9.01736e-12
8.1656e-12
1.306e-11
4.12534e-11
1.98281e-10
2.02505e-10
1.73805e-09
3.60971e-08
3.2862e-08
1.25941e-08
9.75814e-09
1.15277e-08
9.27215e-08
8.84151e-08
1.24334e-09
1.07831e-09
1.01793e-09
8.75699e-10
7.46122e-10
5.08117e-10
2.46957e-10
1.44588e-10
8.13728e-11
4.98889e-11
4.35081e-11
5.37328e-11
9.71067e-11
2.73863e-10
4.56949e-10
4.36503e-10
2.21827e-09
2.13689e-07
4.26052e-08
4.76872e-07
3.56373e-08
6.68797e-08
5.60919e-08
3.91883e-09
3.48633e-09
3.06678e-09
2.76435e-09
2.40459e-09
1.6578e-09
7.88095e-10
4.45319e-10
2.40911e-10
1.19599e-10
9.51015e-11
1.1888e-10
2.21992e-10
3.45004e-10
4.67746e-10
4.53693e-10
4.09225e-10
4.57047e-10
2.34198e-06
4.14987e-06
3.53968e-06
7.06099e-08
3.11622e-06
0.0970013
0.0340246
0.0241224
0.287
0.368105
0.374176
0.374194
0.35852
0.357702
0.318089
0.108616
0.0581542
0.0622098
0.141164
0.174825
0.263059
0.264121
0.261399
0.266206
0.102057
0.0528941
0.00956921
0.0197792
0.0780826
0.0627355
0.0471478
0.0469834
0.0681854
0.172775
0.230432
0.0647363
0.0609354
0.0868932
0.185463
0.228346
0.230762
0.256026
0.4055
0.103981
0.347205
0.111694
0.0138608
3.97196e-09
7.78906e-13
0.00189975
0.0721803
0.135773
0.253387
0.281029
0.274408
0.224906
0.219824
0.19304
0.263251
0.262744
0.288584
0.520247
0.106759
0.348873
0.270982
0.0193007
-1.20703e-09
1.95862e-09
1.43312e-06
0.127338
0.250119
0.250322
0.249971
0.257828
0.262076
0.261961
0.261965
0.153981
0.127568
0.308002
0.520384
0.195592
0.526062
0.179207
2.72802e-08
2.2742e-08
5.3501e-09
4.50045e-09
0.0262756
0.109114
0.240388
0.249627
0.152911
0.162951
0.130374
0.134963
0.122102
0.122093
0.279614
0.520239
0.799261
0.900681
0.334649
0.000298553
-4.85165e-09
1.81521e-07
6.27739e-06
6.39089e-06
1.74113e-05
0.0313349
0.132865
0.16191
0.161338
0.10075
0.107321
0.143106
0.152809
0.248067
0.481576
0.901552
0.9015
0.618428
0.0329273
-6.12556e-10
2.13996e-08
1.0305e-06
5.8146e-06
6.56686e-06
8.24082e-06
0.000591811
0.0377444
0.0267331
0.0231771
0.211402
0.657218
0.688107
0.482209
0.480881
0.752376
0.901318
0.831721
0.110416
1.45191e-19
0
1.38729e-05
1.92893e-05
1.85558e-05
1.69194e-05
2.03918e-05
4.42573e-05
6.06212e-05
6.08716e-05
0.37256
0.934147
0.999085
0.746384
0.656964
8.256e-09
6.71948e-09
6.04404e-09
5.5047e-09
5.18084e-09
3.81563e-09
1.77818e-09
9.79237e-10
5.14616e-10
2.71838e-10
1.77169e-10
2.22692e-10
4.82522e-10
6.99038e-10
6.68422e-10
5.53405e-10
4.06339e-10
4.09224e-10
1.56101e-06
4.24959e-06
1.86829e-24
4.07806e-05
0.000399947
1.17647e-08
9.54537e-09
8.8503e-09
8.056e-09
9.20685e-09
7.67504e-09
3.37882e-09
1.9183e-09
1.04537e-09
5.10644e-10
3.06702e-10
4.69885e-10
1.31684e-09
1.97607e-09
1.92097e-09
2.92244e-09
6.78213e-09
9.08989e-09
1.85116e-08
2.53288e-07
-4.23482e-25
6.38992e-07
0.000163916
6.87517e-09
8.09031e-09
6.95824e-09
8.14457e-09
1.39164e-08
1.07807e-08
3.08461e-09
6.79917e-10
6.59728e-10
2.3092e-10
1.334e-10
4.40189e-10
1.62573e-09
2.78365e-09
3.2583e-09
4.17808e-09
6.37037e-09
6.84145e-09
5.34014e-09
1.47522e-08
1.1967e-09
9.7155e-06
-1.15738e-06
2.30321e-06
0.000982649
0.042334
0.067358
0.0578142
0.027254
0.00556007
0.000484057
3.59726e-05
-6.0994e-17
-3.33666e-17
-1.14581e-16
-5.84209e-16
-2.00567e-15
-4.787e-15
-5.05184e-15
-1.03667e-14
-4.24423e-12
-8.25445e-20
-5.21813e-20
2.95019e-14
2.90181e-19
0.00891082
0.0167417
0.421413
0.722107
0.789394
0.754614
0.604786
0.456689
0.397494
0.386165
0.358702
0.340967
0.328042
0.300835
0.278734
0.26366
0.239527
0.199659
0.182785
0.15299
0.147311
0.170306
0.271389
0.476511
0.301976
0.939441
0.983193
0.984978
0.985566
0.905965
0.847996
0.860089
0.893919
0.872265
0.85685
0.84919
0.85908
0.862939
0.847719
0.838482
0.866888
0.925818
0.958367
0.958664
0.960651
0.971298
0.997068
0.525058
0.917027
0.890295
0.949959
0.986198
0.998592
1
1
1
1
1
1
1
1
1
1
1
1
1
1
1
1
0.999999
0.397329
0.22392
0.153471
0.295785
0.44467
0.583172
0.719027
0.794003
0.855584
0.905537
0.942881
0.970031
0.988018
0.997702
1
1
1
1
1
1
0.999999
0.999999
1
0.156031
0.0357392
-7.88985e-20
-3.28112e-16
2.19545e-18
1.12699e-12
0.00613599
0.0491029
0.0974998
0.155032
0.220386
0.295898
0.380956
0.472964
0.568169
0.667634
0.743774
0.796845
0.835283
0.863242
0.884853
0.88873
0.883499
0.0315761
0.0215301
0.000478986
3.28116e-16
4.68201e-11
8.98063e-11
8.16371e-10
-4.41163e-24
-8.5161e-17
7.2694e-31
-1.28555e-15
-4.39281e-14
-5.98702e-21
1.11984e-21
2.49688e-22
-1.3217e-18
0.017086
0.0450369
0.0716821
0.0962576
0.120483
0.127161
0.122604
0.00514757
0.00764045
0.000824132
2.27892e-21
3.01572e-08
2.42718e-08
4.03712e-08
1.85053e-07
6.52484e-14
1.75948e-23
8.00191e-23
-9.16962e-25
3.50404e-25
2.09535e-10
2.44643e-10
4.17328e-16
9.70458e-10
4.10189e-09
1.89855e-08
1.13549e-14
7.51939e-09
-2.79947e-13
7.51863e-09
7.08471e-07
0.000574462
0.000158415
2.39718e-07
1.03769e-07
6.57636e-08
1.3852e-07
5.23586e-07
4.24788e-06
1.37494e-05
6.07017e-05
8.54799e-07
4.2338e-08
4.4015e-09
5.41408e-09
1.51358e-08
6.86434e-08
2.26624e-07
4.87352e-07
3.40998e-07
2.71967e-07
2.51535e-07
2.52939e-07
7.22776e-07
7.08442e-07
7.59523e-06
8.74017e-07
1.90791e-07
1.08578e-07
1.89399e-07
4.2469e-07
9.53752e-06
0.000141686
0.000172209
4.92623e-05
2.87193e-07
7.20644e-09
7.65004e-09
3.78873e-08
2.87279e-07
1.04706e-06
1.03948e-06
9.3259e-07
8.4791e-07
5.11978e-07
2.84043e-07
7.32562e-07
2.05136e-06
1.30555e-06
4.39842e-07
9.17662e-08
8.87365e-08
1.80322e-07
3.74231e-07
1.69676e-05
0.000172216
0.000172199
0.000167013
1.12323e-05
3.18369e-09
9.3028e-09
5.86763e-08
3.89919e-07
9.44107e-07
7.86836e-07
4.16097e-07
1.96904e-07
1.57831e-07
5.17217e-08
1.98038e-07
7.00742e-07
1.64756e-07
7.74953e-08
6.86063e-08
8.71287e-08
1.54183e-07
3.70889e-07
9.88088e-06
9.46063e-05
0.000172216
0.000170996
3.70015e-05
3.16313e-09
4.23133e-08
7.71535e-08
1.46612e-07
1.04692e-07
1.03401e-07
1.57124e-08
1.97105e-08
1.07356e-09
1.07895e-09
2.76067e-08
6.71345e-08
1.01491e-07
8.47521e-08
7.34937e-08
6.89527e-08
7.66034e-08
9.93743e-08
2.13012e-08
2.70426e-08
7.88824e-05
0.000143061
3.04447e-05
1.93086e-08
2.29532e-07
2.51787e-08
7.38207e-09
1.99009e-09
2.29723e-09
1.11237e-09
1.07426e-09
1.07886e-09
1.04328e-09
2.78669e-08
6.73091e-08
1.02359e-07
9.56258e-08
7.18459e-08
4.84348e-08
3.80694e-08
2.57228e-08
1.94247e-08
4.13547e-08
1.36549e-08
1.73981e-08
7.13705e-06
2.66294e-06
1.04613e-06
1.40934e-08
1.23466e-08
1.29995e-08
1.13544e-08
5.15442e-09
1.84713e-09
1.24789e-09
1.21093e-09
2.32947e-08
6.45018e-08
9.39932e-08
9.51102e-08
6.64241e-08
3.51088e-08
2.2013e-08
1.80988e-08
1.53574e-08
1.33219e-08
1.32767e-08
1.36166e-08
8.47219e-08
5.0054e-06
1.84534e-06
1.46562e-08
1.62541e-08
1.6014e-08
1.54612e-08
1.1631e-08
7.50423e-09
4.20595e-09
2.84834e-09
1.4997e-08
4.73902e-08
7.94728e-08
8.73921e-08
6.45241e-08
3.71884e-08
2.1622e-08
1.85042e-08
1.84426e-08
1.62316e-08
1.34148e-08
4.97184e-08
6.14028e-07
1.92789e-06
1.54167e-06
4.15171e-08
2.37329e-08
1.34118e-08
1.32168e-08
1.35864e-08
1.27899e-08
9.65603e-09
5.9834e-09
9.81375e-09
2.88656e-08
5.17095e-08
6.55507e-08
6.27525e-08
3.72791e-08
2.1025e-08
1.63629e-08
1.65827e-08
1.67526e-08
1.53878e-08
1.15871e-08
6.51236e-09
5.02482e-09
6.46202e-09
2.2752e-07
4.06829e-08
1.54812e-08
1.19792e-08
1.13406e-08
1.26774e-08
1.10552e-08
7.90479e-09
5.21793e-09
1.65517e-08
3.09334e-08
4.3051e-08
4.6986e-08
3.67896e-08
1.99915e-08
1.23264e-08
1.11521e-08
1.2147e-08
1.24209e-08
1.08798e-08
6.44643e-09
5.09504e-09
4.58015e-09
1.92997e-08
2.84371e-08
2.01546e-08
8.50757e-09
7.05633e-09
8.56176e-09
8.41794e-09
7.6079e-09
2.53212e-09
8.38006e-09
1.63732e-08
2.3483e-08
3.11438e-08
3.00843e-08
1.76635e-08
9.8065e-09
7.28486e-09
6.94021e-09
7.72165e-09
8.23936e-09
7.65023e-09
5.81805e-09
4.74452e-09
4.46561e-09
9.61063e-09
8.88946e-09
5.9646e-09
4.93332e-09
5.09399e-09
5.41148e-09
5.20065e-09
1.02794e-09
3.77676e-09
7.44326e-09
1.11472e-08
1.58615e-08
2.03669e-08
1.46373e-08
7.78486e-09
5.0335e-09
3.92364e-09
3.86231e-09
4.47574e-09
4.93628e-09
4.85015e-09
4.17639e-09
3.28519e-09
2.89711e-09
2.88033e-09
2.98772e-09
2.84776e-09
2.83314e-09
3.00953e-09
3.03405e-09
3.90073e-10
1.4092e-09
2.92307e-09
4.48387e-09
5.74903e-09
1.07583e-08
1.00504e-08
5.6348e-09
3.49915e-09
2.36658e-09
1.88677e-09
2.00447e-09
2.34629e-09
2.61085e-09
2.61533e-09
2.3259e-09
1.97358e-09
1.66569e-09
1.47611e-09
1.4831e-09
1.50603e-09
1.55527e-09
1.54061e-09
1.19454e-10
4.63888e-10
9.96698e-10
1.64648e-09
1.81884e-09
3.87957e-09
5.25654e-09
3.45782e-09
2.23729e-09
1.42981e-09
1.00171e-09
8.72759e-10
9.64442e-10
1.12355e-09
1.24287e-09
1.22593e-09
1.06403e-09
9.3767e-10
7.91423e-10
7.55432e-10
7.25958e-10
7.6813e-10
7.60524e-10
3.15636e-11
1.31445e-10
2.93421e-10
5.16107e-10
6.10875e-10
1.23501e-09
1.9175e-09
1.63375e-09
1.1705e-09
7.91223e-10
5.15329e-10
4.03877e-10
3.86909e-10
4.42577e-10
5.11212e-10
5.40152e-10
5.13673e-10
4.63015e-10
4.01264e-10
3.71512e-10
3.56712e-10
3.55801e-10
3.39111e-10
5.3623e-12
2.82036e-11
7.30752e-11
1.36786e-10
1.77974e-10
3.85703e-10
6.31685e-10
6.06791e-10
4.80936e-10
3.45357e-10
2.37916e-10
1.69187e-10
1.49866e-10
1.58747e-10
1.82421e-10
2.0656e-10
2.06845e-10
1.93779e-10
1.76456e-10
1.63721e-10
1.5173e-10
1.44628e-10
1.41443e-10
8.54686e-13
5.46347e-12
1.48684e-11
2.96647e-11
4.21823e-11
1.00358e-10
1.70202e-10
1.81245e-10
1.53427e-10
1.19339e-10
8.84568e-11
6.44071e-11
5.43478e-11
5.40937e-11
6.09498e-11
6.93865e-11
7.50466e-11
7.19229e-11
6.75416e-11
6.47039e-11
6.08798e-11
5.46477e-11
5.12057e-11
7.5649e-14
6.86661e-13
2.14032e-12
4.7446e-12
8.00152e-12
2.11838e-11
3.8443e-11
4.38736e-11
4.00442e-11
3.30935e-11
2.57638e-11
2.02004e-11
1.70315e-11
1.69746e-11
1.90146e-11
2.15891e-11
2.42496e-11
2.37494e-11
2.31633e-11
2.23996e-11
1.9926e-11
1.83462e-11
1.609e-11
5.96559e-15
6.97299e-14
2.46973e-13
5.8233e-13
1.06558e-12
3.47576e-12
7.20845e-12
8.64416e-12
8.16161e-12
7.20634e-12
6.07448e-12
4.99313e-12
4.47937e-12
4.57896e-12
5.30252e-12
6.22901e-12
6.72191e-12
7.06908e-12
7.03241e-12
6.87569e-12
6.34581e-12
5.36462e-12
4.36723e-12
1.49741e-16
3.46259e-15
1.52147e-14
4.08797e-14
1.07473e-13
4.40712e-13
1.08875e-12
1.4e-12
1.3881e-12
1.29639e-12
1.15119e-12
1.0087e-12
9.79108e-13
1.08441e-12
1.31807e-12
1.57047e-12
1.77656e-12
1.83405e-12
1.8607e-12
1.78938e-12
1.67049e-12
1.32422e-12
9.83411e-13
2.37515e-18
8.89219e-17
5.54845e-16
2.18408e-15
8.11777e-15
3.97019e-14
1.27086e-13
1.76475e-13
1.9223e-13
1.88171e-13
1.76692e-13
1.71662e-13
1.8534e-13
2.25787e-13
2.81508e-13
3.39422e-13
3.87988e-13
4.15451e-13
4.21036e-13
4.05519e-13
3.71073e-13
2.55621e-13
1.90264e-13
1.32933e-20
8.75034e-19
1.09579e-17
8.47074e-17
5.57432e-16
3.07454e-15
9.85613e-15
1.62172e-14
1.93272e-14
2.06707e-14
2.17644e-14
2.4526e-14
2.98538e-14
3.8987e-14
5.14327e-14
6.44908e-14
7.59435e-14
8.10868e-14
8.25815e-14
7.65001e-14
6.23579e-14
4.54798e-14
2.86318e-14
1.06692e-22
9.27036e-21
2.96534e-19
3.73439e-18
3.14267e-17
1.8794e-16
6.64084e-16
1.20586e-15
1.6911e-15
2.08997e-15
2.5351e-15
3.14024e-15
4.28557e-15
6.13359e-15
8.55812e-15
1.10025e-14
1.25824e-14
1.38076e-14
1.3669e-14
1.2531e-14
9.68974e-15
6.05814e-15
3.73546e-15
1.01778e-24
1.07028e-22
7.6612e-21
1.46677e-19
1.47688e-18
8.50207e-18
3.46675e-17
7.58959e-17
1.32423e-16
1.90092e-16
2.61833e-16
3.76953e-16
5.74429e-16
8.80047e-16
1.27156e-15
1.68975e-15
2.03569e-15
2.16104e-15
2.07823e-15
1.72045e-15
1.17135e-15
7.53507e-16
5.13015e-16
1.24501e-26
1.58416e-24
2.00557e-22
5.09362e-21
5.54986e-20
3.74853e-19
1.6552e-18
4.38588e-18
1.00115e-17
1.6356e-17
2.55613e-17
4.17724e-17
7.04071e-17
1.14822e-16
1.7121e-16
2.31831e-16
2.77983e-16
2.82993e-16
2.53876e-16
1.94438e-16
1.33239e-16
9.33434e-17
1.15098e-16
2.14075e-28
2.70508e-26
4.52942e-24
1.46931e-22
1.79802e-21
1.41526e-20
6.925e-20
2.19567e-19
6.66937e-19
1.26488e-18
2.28031e-18
4.24866e-18
7.78017e-18
1.34648e-17
2.08011e-17
2.83431e-17
3.29769e-17
3.25756e-17
2.7286e-17
2.04274e-17
1.547e-17
1.78867e-17
4.56324e-17
1.67762e-29
5.70752e-28
9.08495e-26
3.78869e-24
5.4563e-23
4.60316e-22
2.61224e-21
1.0272e-20
4.06892e-20
8.90683e-20
1.858e-19
3.92554e-19
7.84555e-19
1.4192e-18
2.26627e-18
3.06558e-18
3.4742e-18
3.30065e-18
2.82785e-18
2.44635e-18
2.83431e-18
5.96637e-18
2.22064e-17
2.90913e-30
3.77077e-29
1.92069e-27
9.51426e-26
1.55546e-24
1.45113e-23
9.91798e-23
4.63714e-22
2.25846e-21
5.6967e-21
1.36351e-20
3.2909e-20
6.98313e-20
1.33889e-19
2.19686e-19
3.01311e-19
3.53181e-19
3.57709e-19
3.52142e-19
4.3214e-19
7.66925e-19
2.33336e-18
1.25454e-17
5.25839e-31
6.13864e-30
8.44731e-29
2.7694e-27
5.0272e-26
5.19682e-25
4.07369e-24
2.32417e-23
1.32195e-22
3.74657e-22
1.02011e-21
2.70787e-21
6.43552e-21
1.3194e-20
2.23966e-20
3.24062e-20
4.0693e-20
4.76401e-20
6.1456e-20
1.10367e-19
2.81242e-19
1.34267e-18
8.32716e-18
9.29407e-32
1.13481e-30
1.13543e-29
1.52957e-28
2.34813e-27
2.36193e-26
1.92229e-25
1.24216e-24
7.8366e-24
2.63884e-23
8.376e-23
2.50169e-22
6.49273e-22
1.42178e-21
2.5947e-21
4.06712e-21
5.88661e-21
8.31623e-21
1.39312e-20
3.4489e-20
1.42001e-19
7.74111e-19
5.22646e-18
1.25012e-32
1.6721e-31
1.79824e-30
1.84932e-29
1.89403e-28
1.71655e-27
1.37563e-26
9.65912e-26
6.06865e-25
2.35313e-24
8.28735e-24
2.64711e-23
7.3532e-23
1.77522e-22
3.55711e-22
6.00176e-22
9.88352e-22
1.63057e-21
3.35816e-21
1.18281e-20
6.05825e-20
3.40822e-19
2.47864e-18
0.000490916
0.000490462
0.000338476
0.000102491
0.00023442
0.000249921
0.000129077
1.18566e-05
-3.22527e-06
-4.21488e-06
-3.92762e-07
1.25936e-05
0.0393553
0.0733279
0.0462539
0.100564
0.691051
0.93444
0.991965
0.994076
0.999937
1
1
1
0.999999
1
1
1
1
1
1
1
0.878828
0.868981
0.856495
0.853609
0.119888
0.1111
0.0953669
0.0941892
-1.66626e-11
2.49538e-08
-1.59756e-08
5.5224e-08
2.29132e-07
2.58496e-07
2.4111e-07
2.15868e-07
2.70708e-07
1.92842e-07
1.90776e-07
1.66696e-07
4.04461e-08
3.93056e-08
2.88391e-08
2.65394e-08
1.04042e-09
1.45294e-09
6.33596e-09
7.27631e-09
1.02816e-09
1.01733e-09
1.01214e-09
1.06294e-09
1.10121e-09
1.0406e-09
1.00701e-09
1.002e-09
1.53571e-09
1.19372e-09
1.13122e-09
1.04415e-09
3.49505e-09
2.61394e-09
2.17401e-09
1.7759e-09
5.60467e-09
4.49043e-09
3.48024e-09
3.0484e-09
6.14878e-09
4.69862e-09
4.28879e-09
3.61158e-09
4.72233e-09
4.25873e-09
3.5841e-09
3.3164e-09
2.82002e-09
2.61792e-09
2.51366e-09
2.30642e-09
1.43395e-09
1.34993e-09
1.3293e-09
1.25183e-09
6.93966e-10
6.39995e-10
6.18841e-10
5.78187e-10
3.00666e-10
2.71217e-10
2.56684e-10
2.37804e-10
1.27263e-10
1.11353e-10
1.02514e-10
9.00206e-11
4.47723e-11
3.83462e-11
3.49946e-11
2.9604e-11
1.41733e-11
1.17225e-11
1.0591e-11
8.49709e-12
3.706e-12
2.92721e-12
2.59177e-12
2.01079e-12
7.88348e-13
5.93806e-13
4.99968e-13
3.82884e-13
1.49526e-13
1.03703e-13
8.26859e-14
6.00006e-14
2.13475e-14
1.53345e-14
1.09764e-14
8.32011e-15
2.78909e-15
2.05879e-15
1.82746e-15
1.84325e-15
4.61241e-16
4.80114e-16
5.87861e-16
8.3728e-16
1.44621e-16
1.91113e-16
2.95402e-16
5.25929e-16
6.73705e-17
1.04206e-16
1.90619e-16
4.34103e-16
3.57174e-17
6.41756e-17
1.60711e-16
4.72024e-16
2.26471e-17
5.24137e-17
1.67978e-16
5.38807e-16
1.72533e-17
5.29306e-17
1.84966e-16
5.88679e-16
1.23375e-17
4.73231e-17
1.71604e-16
5.29723e-16
9.62311e-18
3.31714e-17
1.05242e-16
2.80513e-16
0.0683246
0.699435
0.817892
0.369553
2.32188e-18
3.53e-07
3.10334e-06
3.05774e-06
2.34156e-06
-1.37868e-06
0.0323482
0.0866133
0.142025
0.300994
0.705562
0.996786
0.999083
0.993152
0.873309
1.8625e-05
0.488867
0.832942
0.754781
0.170118
-2.97786e-10
1.71178e-23
-9.3575e-07
0.136498
0.651242
0.810838
0.847432
0.901931
0.969605
0.998804
0.99891
0.99907
0.999983
0.937289
0.0897294
0.719728
0.987894
0.953879
0.745713
0.19628
0.0612515
0.346493
0.924663
0.999814
0.999945
0.999828
0.999825
0.999953
0.999965
0.99945
0.999511
0.999995
0.963369
0.730854
0.954337
0.999847
0.99985
0.986589
0.834649
0.779084
0.834931
0.985993
0.999977
0.999986
0.999885
0.999909
0.999993
0.999999
0.999968
0.999981
0.999994
0.951173
0.999996
0.999951
0.999832
0.999822
0.999895
0.99787
0.978822
0.981905
0.997967
0.999961
0.999987
0.999956
0.999936
0.99999
0.999999
0.999997
0.999995
0.999995
0.952087
1
1
0.999977
0.99993
0.999948
0.999959
0.999961
0.99999
0.999981
0.999997
0.999988
0.999986
0.999987
0.999997
0.999999
0.999996
0.999995
0.999995
0.973482
1
1
1
0.999999
0.999999
0.999999
0.999999
0.999999
0.999999
0.999999
0.999999
0.999999
0.999999
0.999999
0.999999
0.999997
0.999997
0.999855
0.979251
1
1
1
0.996555
0.969392
0.926649
0.866902
0.849513
0.874783
0.866563
0.727696
0.710567
0.760172
0.772344
0.751145
0.814341
0.943847
0.998395
0.973771
0.81744
0.721595
0.614053
0.494105
0.334974
0.210411
0.125308
0.0288614
0.0304152
0.0485651
0.0354291
0.0364
0.0501524
0.0466247
0.0369499
0.0690854
0.177993
0.513252
0.832367
0.0749427
0.0149236
7.83439e-08
8.35219e-08
9.68067e-08
9.45885e-08
1.05546e-07
1.05028e-06
1.26142e-06
2.20229e-06
2.66614e-06
3.09181e-06
3.47291e-06
4.15595e-06
4.22489e-06
2.87861e-09
2.27642e-08
2.53947e-19
0.056396
9.57853e-09
6.36114e-08
8.11869e-08
7.83438e-08
2.6972e-07
3.69308e-07
1.89293e-07
1.24529e-07
9.16907e-06
3.6491e-05
2.32428e-05
8.65874e-07
7.89794e-07
0.000243951
0.000647223
0.000491701
0.000118651
1.50513e-07
1.53776e-07
1.58473e-07
8.39585e-08
1.12301e-07
3.79082e-07
9.49065e-07
8.26671e-07
1.94445e-07
0.000292036
0.00102113
0.00099538
9.57149e-05
6.4998e-07
0.000445334
0.00250096
0.00247019
0.00250066
0.000832421
8.2118e-07
1.17601e-07
1.12652e-07
5.21293e-08
1.61885e-07
6.97715e-07
9.16311e-07
7.02102e-07
2.62308e-05
0.00084706
0.00105781
0.00104029
6.38621e-07
6.75518e-07
0.000877493
0.0023423
0.00171681
0.000870646
0.000508225
1.36956e-07
1.20424e-07
2.62824e-08
5.56677e-08
1.28981e-07
2.5256e-07
4.54634e-07
6.92908e-07
3.66332e-05
0.000288811
0.000487021
0.000202297
4.04884e-06
2.2468e-05
0.000248565
0.000206079
2.4709e-05
3.05418e-08
3.63298e-08
9.05549e-08
1.18123e-07
1.087e-08
3.46579e-08
8.67642e-08
1.8879e-07
3.52365e-07
1.51633e-06
2.04267e-06
2.28612e-07
1.74935e-07
1.1419e-07
8.77397e-07
3.26458e-06
2.6894e-07
1.75224e-07
2.69755e-08
3.40988e-08
2.97583e-08
4.59466e-07
6.66135e-07
3.03521e-09
7.50741e-09
1.38771e-08
2.34639e-08
4.12981e-08
6.5477e-08
9.45817e-08
3.71582e-08
1.09936e-07
2.10876e-07
2.36466e-07
3.39548e-07
1.52872e-08
2.5085e-08
5.87888e-08
1.67134e-07
4.4927e-07
8.52362e-07
1.41639e-06
1.00162e-09
2.07848e-09
3.94243e-09
5.12472e-09
6.96104e-09
1.20518e-08
2.13824e-08
3.66374e-08
1.14363e-07
2.34297e-07
2.47217e-07
1.09493e-07
1.52107e-08
2.97735e-08
5.58631e-08
1.78293e-07
5.57071e-07
1.1908e-06
1.35993e-06
9.8563e-10
9.17588e-10
1.46567e-09
2.93414e-09
3.92439e-09
5.63556e-09
9.96156e-09
2.00426e-08
4.16703e-08
9.09615e-08
1.20155e-07
5.37698e-08
1.72123e-08
2.79803e-08
4.1977e-08
1.04841e-07
2.63545e-07
4.31574e-07
8.82417e-07
1.41934e-09
8.93657e-10
7.90221e-10
9.5153e-10
1.90718e-09
2.80496e-09
4.10535e-09
6.81244e-09
1.1396e-08
1.59541e-08
2.15158e-08
1.75872e-08
1.23958e-08
1.84543e-08
2.5847e-08
4.62924e-08
8.20581e-08
1.20157e-07
8.82441e-08
2.41836e-09
1.28644e-09
7.66907e-10
6.58489e-10
6.85052e-10
1.13269e-09
1.769e-09
2.57328e-09
3.76653e-09
4.77894e-09
5.30277e-09
5.88313e-09
6.83194e-09
9.27569e-09
1.26836e-08
1.82137e-08
1.96777e-08
2.76716e-08
2.97015e-08
2.95397e-09
1.74484e-09
9.51274e-10
6.25632e-10
4.79262e-10
4.82213e-10
6.74042e-10
1.03699e-09
1.46502e-09
1.89363e-09
2.2178e-09
2.76585e-09
3.68648e-09
4.82585e-09
6.42918e-09
8.60799e-09
8.56054e-09
9.90375e-09
8.45666e-09
2.81474e-09
1.85706e-09
1.05311e-09
6.95215e-10
4.39329e-10
3.25519e-10
3.07541e-10
4.31971e-10
6.61302e-10
9.18473e-10
1.22207e-09
1.67235e-09
2.36168e-09
3.28606e-09
4.63468e-09
6.55383e-09
8.21841e-09
8.99595e-09
1.04622e-08
2.05769e-09
1.49771e-09
9.4163e-10
6.56766e-10
4.0233e-10
2.62395e-10
2.04263e-10
2.14966e-10
3.42872e-10
5.28769e-10
7.89897e-10
1.18969e-09
1.81025e-09
2.75562e-09
4.24406e-09
6.48775e-09
1.0632e-08
1.4183e-08
1.21031e-08
1.15738e-09
9.13151e-10
6.35099e-10
4.62151e-10
2.9631e-10
2.01448e-10
1.42533e-10
1.40388e-10
2.11335e-10
3.53963e-10
5.8418e-10
9.53612e-10
1.54713e-09
2.53341e-09
4.26567e-09
7.62154e-09
1.3562e-08
1.76796e-08
1.66344e-08
5.36547e-10
4.33516e-10
3.18856e-10
2.41081e-10
1.67469e-10
1.17067e-10
9.27681e-11
9.81842e-11
1.5272e-10
2.73726e-10
4.88863e-10
8.51269e-10
1.44866e-09
2.46674e-09
4.34898e-09
8.00359e-09
1.70428e-08
2.98635e-08
1.78112e-08
2.18516e-10
1.7463e-10
1.28272e-10
9.83059e-11
7.19452e-11
5.58282e-11
5.23093e-11
7.02436e-11
1.23407e-10
2.36223e-10
4.47556e-10
8.16416e-10
1.43442e-09
2.47367e-09
4.51632e-09
1.04226e-08
2.34076e-08
3.04693e-08
3.26022e-08
7.98076e-11
5.99444e-11
4.26544e-11
3.16651e-11
2.50925e-11
2.40863e-11
3.12169e-11
5.40903e-11
1.07781e-10
2.23695e-10
4.4048e-10
8.32439e-10
1.47848e-09
2.57192e-09
4.9422e-09
1.10944e-08
3.13819e-08
7.00473e-08
3.79868e-08
2.48247e-11
1.79367e-11
1.18772e-11
9.00592e-12
8.53583e-12
1.22236e-11
2.29002e-11
4.86164e-11
1.0523e-10
2.23951e-10
4.5642e-10
8.94997e-10
1.58807e-09
2.715e-09
5.16452e-09
1.49829e-08
4.40856e-08
1.04958e-07
4.70707e-08
6.51666e-12
4.3196e-12
2.80981e-12
2.56007e-12
4.03559e-12
8.95121e-12
2.07981e-11
4.81906e-11
1.08357e-10
2.3765e-10
4.99474e-10
9.87791e-10
1.75776e-09
2.85772e-09
5.74387e-09
1.8476e-08
5.56911e-08
1.10227e-07
4.88441e-08
1.35063e-12
8.69404e-13
7.34873e-13
1.26011e-12
3.25602e-12
8.59599e-12
2.11409e-11
5.04801e-11
1.16597e-10
2.60447e-10
5.59408e-10
1.11679e-09
1.97988e-09
3.09539e-09
6.52863e-09
2.45726e-08
7.61684e-08
1.10219e-07
5.06517e-08
2.37847e-13
1.79892e-13
3.71158e-13
1.1303e-12
3.22263e-12
8.8291e-12
2.24061e-11
5.41426e-11
1.28135e-10
2.91074e-10
6.30509e-10
1.27451e-09
2.26592e-09
3.50188e-09
7.52532e-09
2.90203e-08
8.59097e-08
1.10227e-07
4.36083e-08
3.81495e-14
7.51375e-14
3.20247e-13
1.10977e-12
3.40524e-12
9.15065e-12
2.34074e-11
5.81658e-11
1.40978e-10
3.25765e-10
7.16444e-10
1.46609e-09
2.61367e-09
4.27497e-09
9.42945e-09
3.24292e-08
9.66156e-08
1.05235e-07
3.70414e-08
1.21983e-14
6.35667e-14
3.14851e-13
1.113e-12
3.37336e-12
9.31232e-12
2.45354e-11
6.21632e-11
1.53769e-10
3.63131e-10
8.1297e-10
1.65124e-09
3.01403e-09
5.21688e-09
1.08905e-08
3.24183e-08
8.17666e-08
8.05487e-08
2.04114e-08
1.0351e-14
6.76426e-14
3.18945e-13
1.08348e-12
3.27679e-12
9.26667e-12
2.51579e-11
6.537e-11
1.65724e-10
3.99597e-10
8.93742e-10
1.80265e-09
3.34533e-09
5.83441e-09
1.13547e-08
2.7182e-08
5.61705e-08
3.05704e-08
1.25769e-08
1.04185e-14
6.89455e-14
2.97244e-13
1.01073e-12
3.10671e-12
9.16264e-12
2.52927e-11
6.75556e-11
1.71737e-10
4.19612e-10
9.3691e-10
1.87777e-09
3.52218e-09
5.89962e-09
1.02217e-08
2.00751e-08
1.70655e-08
1.44763e-08
4.87758e-09
9.89032e-15
6.13231e-14
2.561e-13
8.94978e-13
2.90041e-12
8.66394e-12
2.45657e-11
6.58419e-11
1.68693e-10
4.10488e-10
9.11978e-10
1.81167e-09
3.39025e-09
5.39023e-09
7.71201e-09
1.22072e-08
8.04663e-09
3.89482e-09
2.50096e-09
9.09913e-15
5.32896e-14
2.16261e-13
7.91543e-13
2.58333e-12
7.82648e-12
2.21617e-11
5.93515e-11
1.51406e-10
3.66862e-10
8.08866e-10
1.57925e-09
2.88987e-09
4.37726e-09
5.22846e-09
6.29523e-09
3.26379e-09
1.54668e-09
9.03588e-10
8.34601e-15
4.4176e-14
1.80578e-13
6.52259e-13
2.12243e-12
6.42364e-12
1.80993e-11
4.79234e-11
1.20545e-10
2.88995e-10
6.29783e-10
1.20522e-09
2.10975e-09
3.07661e-09
3.35405e-09
3.0555e-09
1.47982e-09
4.77175e-10
4.1257e-10
6.90615e-15
3.33902e-14
1.33601e-13
4.62982e-13
1.5135e-12
4.51287e-12
1.26193e-11
3.30827e-11
8.21139e-11
1.94381e-10
4.19621e-10
7.91219e-10
1.31305e-09
1.88256e-09
2.02546e-09
1.51669e-09
6.19322e-10
2.38779e-10
1.37553e-10
5.08058e-15
2.14331e-14
7.97748e-14
2.65569e-13
8.17573e-13
2.39305e-12
6.68626e-12
1.77273e-11
4.41701e-11
1.04367e-10
2.25892e-10
4.2886e-10
6.89782e-10
9.9111e-10
1.07406e-09
7.51485e-10
3.24727e-10
1.00081e-10
6.85403e-11
2.76227e-15
1.02523e-14
3.50794e-14
1.11294e-13
3.39726e-13
9.9095e-13
2.76184e-12
7.47663e-12
1.89279e-11
4.50663e-11
9.82289e-11
1.89927e-10
3.05435e-10
4.42641e-10
4.84859e-10
3.38273e-10
1.15095e-10
5.1501e-11
3.55153e-11
8.21733e-16
2.63628e-15
8.26475e-15
2.45931e-14
8.05923e-14
2.53419e-13
7.40308e-13
2.11747e-12
5.79544e-12
1.45695e-11
3.31525e-11
6.68794e-11
1.11287e-10
1.64109e-10
1.83394e-10
1.30481e-10
4.66746e-11
2.30888e-11
1.58034e-11
)
;

boundaryField
{
    leftWall
    {
        type            alphaContactAngle;
        contactAngleProperties 
        {
            mercury         
            {
                theta0          90;
            }
            air             
            {
                theta0          90;
            }
            water           
            {
                theta0          90;
            }
        }
        value           nonuniform List<scalar> 
50
(
5.6898e-16
4.40926e-16
6.96814e-16
1.00771e-15
7.7872e-13
1.14258e-10
1.24334e-09
3.91883e-09
8.256e-09
1.17647e-08
6.87517e-09
2.30321e-06
0.0167417
0.301976
0.525058
0.397329
0.156031
0.0315761
0.00514757
7.08471e-07
7.22776e-07
7.32562e-07
1.98038e-07
2.76067e-08
2.78669e-08
2.32947e-08
1.4997e-08
9.81375e-09
5.21793e-09
2.53212e-09
1.02794e-09
3.90073e-10
1.19454e-10
3.15636e-11
5.3623e-12
8.54686e-13
7.5649e-14
5.96559e-15
1.49741e-16
2.37515e-18
1.32933e-20
1.06692e-22
1.01778e-24
1.24501e-26
2.14075e-28
1.67762e-29
2.90913e-30
5.25839e-31
9.29407e-32
1.25012e-32
)
;
    }
    rightWall
    {
        type            alphaContactAngle;
        contactAngleProperties 
        {
            mercury         
            {
                theta0          90;
            }
            air             
            {
                theta0          90;
            }
            water           
            {
                theta0          90;
            }
        }
        value           nonuniform List<scalar> 
50
(
0.266206
0.4055
0.520247
0.520384
0.520239
0.481576
0.480881
0.656964
0.873309
0.937289
0.963369
0.951173
0.952087
0.973482
0.979251
0.973771
0.832367
0.056396
1.53776e-07
1.17601e-07
1.20424e-07
1.18123e-07
6.66135e-07
1.41639e-06
1.35993e-06
8.82417e-07
8.82441e-08
2.97015e-08
8.45666e-09
1.04622e-08
1.21031e-08
1.66344e-08
1.78112e-08
3.26022e-08
3.79868e-08
4.70707e-08
4.88441e-08
5.06517e-08
4.36083e-08
3.70414e-08
2.04114e-08
1.25769e-08
4.87758e-09
2.50096e-09
9.03588e-10
4.1257e-10
1.37553e-10
6.85403e-11
3.55153e-11
1.58034e-11
)
;
    }
    lowerWall
    {
        type            alphaContactAngle;
        contactAngleProperties 
        {
            mercury         
            {
                theta0          90;
            }
            air             
            {
                theta0          90;
            }
            water           
            {
                theta0          90;
            }
        }
        value           nonuniform List<scalar> 
62
(
5.6898e-16
4.80247e-15
3.19751e-14
1.2114e-13
2.97532e-13
6.40121e-13
1.10772e-12
2.33884e-12
4.64591e-12
8.64561e-12
1.54247e-11
2.90741e-11
5.38958e-11
1.01167e-10
1.89942e-10
3.62286e-10
6.8775e-10
1.23184e-09
1.99565e-09
2.08158e-09
3.51353e-07
0.00043498
0.000568174
0.000568174
0.000568171
0.000314184
1.41918e-05
8.60751e-08
8.84151e-08
5.60919e-08
3.11622e-06
0.000490916
0.000490462
0.000338476
0.000102491
0.0970013
0.102057
0.103981
0.106759
0.195592
0.799261
0.901552
0.752376
0.0970013
0.0340246
0.0241224
0.287
0.368105
0.374176
0.374194
0.35852
0.357702
0.318089
0.108616
0.0581542
0.0622098
0.141164
0.174825
0.263059
0.264121
0.261399
0.266206
)
;
    }
    atmosphere
    {
        type            inletOutlet;
        inletValue      uniform 0;
        value           nonuniform List<scalar> 
46
(
0
0
0
0
0
0
0
0
0
0
0
0
0
0
0
0
0
0
0
0
0
0
0
0
0
0
0
0
0
0
0
8.05923e-14
2.53419e-13
7.40308e-13
2.11747e-12
5.79544e-12
1.45695e-11
3.31525e-11
6.68794e-11
1.11287e-10
1.64109e-10
1.83394e-10
1.30481e-10
4.66746e-11
2.30888e-11
1.58034e-11
)
;
    }
    defaultFaces
    {
        type            empty;
    }
}


// ************************************************************************* //
