/*--------------------------------*- C++ -*----------------------------------*\
  =========                 |
  \\      /  F ield         | OpenFOAM: The Open Source CFD Toolbox
   \\    /   O peration     | Website:  https://openfoam.org
    \\  /    A nd           | Version:  13
     \\/     M anipulation  |
\*---------------------------------------------------------------------------*/
FoamFile
{
    format      ascii;
    class       volScalarField;
    location    "1.5";
    object      alpha.air;
}
// * * * * * * * * * * * * * * * * * * * * * * * * * * * * * * * * * * * * * //

dimensions      [];

internalField   nonuniform List<scalar> 
2268
(
1.31895e-13
1.94358e-13
2.73672e-13
2.34748e-13
2.04401e-13
1.67263e-13
1.19495e-13
7.57771e-14
4.24702e-14
2.17189e-14
1.2857e-14
8.00004e-15
4.89428e-15
2.82149e-15
1.39626e-15
7.54113e-16
6.98718e-16
7.79764e-16
1.41649e-15
7.02166e-15
2.88639e-14
2.11142e-14
1.15805e-14
7.94371e-13
1.74672e-12
1.82636e-12
1.53144e-12
1.40463e-12
1.20635e-12
9.32265e-13
6.54211e-13
3.95265e-13
2.05503e-13
1.19952e-13
7.0388e-14
4.94841e-14
3.05565e-14
1.75903e-14
9.43137e-15
7.21681e-15
7.35418e-15
1.02605e-14
3.03938e-14
1.16683e-13
1.51163e-13
1.20357e-13
4.02739e-12
5.61791e-12
4.91997e-12
4.04901e-12
3.60693e-12
3.2608e-12
2.82543e-12
2.19886e-12
1.4789e-12
8.9721e-13
5.16966e-13
3.31827e-13
2.14146e-13
1.57537e-13
1.03926e-13
5.96386e-14
4.00958e-14
3.1302e-14
4.06828e-14
1.01913e-13
3.87667e-13
9.76313e-13
1.39709e-12
1.52354e-11
2.04208e-11
2.09921e-11
1.93118e-11
1.55128e-11
1.17798e-11
9.17106e-12
6.67996e-12
4.53452e-12
2.92574e-12
1.92354e-12
1.23306e-12
7.32636e-13
5.52855e-13
4.04216e-13
2.92781e-13
1.74343e-13
1.31177e-13
1.32539e-13
2.71544e-13
5.79023e-13
1.77127e-12
2.9557e-12
1.08482e-10
1.19105e-10
1.18671e-10
1.08852e-10
9.06367e-11
6.73131e-11
4.74348e-11
3.37498e-11
2.33027e-11
1.64716e-11
1.19729e-11
8.04988e-12
5.19085e-12
4.36566e-12
4.21512e-12
3.33392e-12
1.38381e-12
6.29356e-14
6.45482e-14
6.21041e-14
8.21169e-14
8.41251e-13
5.45808e-13
3.97525e-10
3.52761e-10
3.19309e-10
3.01888e-10
2.95538e-10
3.17349e-10
3.31971e-10
3.05462e-10
2.52267e-10
1.73007e-10
9.71373e-11
6.1686e-11
3.77069e-11
2.25689e-11
2.27588e-11
2.37748e-11
2.81734e-11
8.72305e-10
2.51454e-09
1.14534e-09
2.52547e-10
1.5637e-11
3.73023e-13
9.96493e-10
6.5216e-10
4.91803e-10
4.51272e-10
4.91729e-10
7.08672e-10
9.43739e-10
9.19856e-10
8.37108e-10
7.16722e-10
5.70594e-10
3.77267e-10
2.33e-10
1.27815e-10
9.33461e-11
6.89225e-11
3.02459e-11
2.07392e-09
3.20092e-09
2.1483e-12
1.12624e-11
-6.73468e-13
6.81975e-09
2.02408e-09
1.20755e-09
7.21325e-10
6.47728e-10
7.61995e-10
1.38409e-09
2.1222e-09
2.08703e-09
1.83774e-09
1.40729e-09
1.22789e-09
8.83713e-10
5.72092e-10
3.65881e-10
2.91193e-10
2.48012e-10
3.08398e-10
1.32739e-09
2.32157e-11
1.04186e-06
1.27164e-05
2.80202e-05
6.38643e-06
0.00652117
0.051653
0.0595205
0.0820893
0.081843
0.0742834
0.0481499
0.0480585
0.050975
0.0905008
0.195932
0.172799
0.115374
0.035835
0.0116402
0.0112761
0.0147739
0.0180697
0.0149614
0.00157465
0.00107425
6.24948e-06
0.00554644
0.0144557
0.0175543
0.0819881
0.146646
0.152677
0.139662
0.198358
0.331829
0.31271
0.21537
0.11553
0.0759269
0.083792
0.0806155
0.0184775
1.98608e-06
1.27798e-06
1.36985e-06
6.28434e-06
1.07058e-05
0.0310527
0.390019
0.543488
0.544434
0.42601
0.375166
0.423671
0.496936
0.496955
0.496909
0.40302
0.372346
0.286001
0.0785176
0.000329375
0.0120269
0.00280044
6.86616e-05
8.43189e-06
0.00424282
0.224299
0.500743
0.553698
0.553717
0.550054
0.503955
0.389806
0.264201
0.272456
0.347849
0.288303
0.194665
0.0933295
0.00164965
0.0246423
0.0207453
0.00203959
7.70514e-06
1.02311e-05
0.00496968
0.0598258
0.139414
0.196645
0.425165
0.503916
0.228286
0.000784446
0.000775769
0.000754513
0.000790449
0.000805986
0.0406898
0.00162889
0.0189342
0.0215783
0.0108847
6.63355e-06
7.09338e-06
-7.89192e-10
1.72499e-08
1.6385e-12
1.6459e-08
0.0337601
0.0815981
0.0255068
0.0104044
0.00554822
0.00182603
0.00180442
0.0156798
0.091042
0.00267347
0.0107409
0.00984517
0.0071685
0.000374975
8.31097e-06
2.20578e-06
1.93771e-07
1.34967e-08
-3.30831e-13
-6.10556e-07
-3.92309e-15
-4.47093e-09
1.87909e-13
9.13813e-14
0.000280706
0.00266973
0.0417891
0.118328
0.0545663
0.0223782
0.0276828
0.00388371
0.000680808
0.000223673
2.23865e-05
5.12475e-07
8.45882e-14
4.50295e-05
5.0044e-05
2.13559e-05
2.42321e-05
1.68418e-05
8.16668e-06
8.12424e-06
2.35805e-05
0.0205008
0.118328
3.28318e-09
1.88165e-09
1.02424e-09
1.65745e-09
1.39628e-09
2.73223e-09
4.42514e-09
4.10868e-09
3.67872e-09
3.51577e-09
2.97288e-09
2.30282e-09
1.561e-09
1.11621e-09
9.25854e-10
6.5287e-10
5.63588e-10
4.40712e-10
3.31819e-11
2.15755e-13
4.74087e-05
5.56777e-05
4.59988e-05
4.94307e-09
2.66939e-09
6.92598e-09
1.36685e-08
5.18009e-09
7.287e-09
1.31045e-08
1.35481e-08
1.31763e-08
1.44761e-08
1.50904e-08
1.44664e-08
1.25243e-08
9.55119e-09
9.11813e-09
5.545e-09
1.87673e-10
5.15999e-12
2.15755e-13
8.03577e-13
5.58286e-06
1.38249e-05
3.05157e-05
5.10995e-09
2.67109e-09
3.82076e-05
0.000134252
6.96088e-09
1.09901e-08
2.31059e-08
2.56712e-08
2.64938e-08
3.08704e-08
3.4258e-08
3.78396e-08
4.08732e-08
4.21415e-08
5.18089e-08
5.76673e-08
8.03975e-08
3.96455e-08
1.34271e-08
2.29884e-08
7.3901e-10
5.35415e-10
0.00092623
2.50389e-05
0.0307808
0.0250742
0.00912539
0.00875627
0.0161318
0.0334808
0.0494362
0.0409505
0.0352752
0.0438342
0.0555605
0.0478501
0.0276432
0.0172588
0.023529
0.0266708
0.019502
0.00677043
0.00297129
0.00506587
0.00644396
0.0935284
0.140919
0.11704
0.0443712
0.0127395
0.0218883
0.102529
0.193495
0.195825
0.197907
0.202998
0.218844
0.21771
0.218844
0.199942
0.175159
0.195843
0.254599
0.25509
0.235373
0.233802
0.256295
0.263859
0.264222
0.462444
0.060559
0.0168071
0.0150222
0.0144336
0.0940345
0.152004
0.139911
0.106081
0.127735
0.14315
0.15081
0.14092
0.137061
0.152281
0.161518
0.133112
0.0741815
0.0416331
0.0413363
0.0393494
0.0287017
0.00293028
0.434741
0.0829727
0.109696
0.0500314
0.0138021
0.00140821
9.12072e-09
1.49703e-08
8.26618e-09
2.77118e-08
1.67141e-08
1.9913e-08
2.45829e-08
2.39331e-10
-4.56745e-14
-7.7217e-15
-8.17427e-16
-5.9173e-15
-1.69027e-12
-7.29634e-13
-1.50696e-13
-1.04655e-11
-5.75886e-12
0.602353
0.776064
0.8465
0.704192
0.55533
0.416828
0.280973
0.205996
0.144416
0.0944627
0.0571186
0.0299693
0.0119818
0.00229758
7.51253e-12
-1.52735e-19
-5.07418e-20
3.96463e-20
-1.56805e-22
4.3953e-19
3.35778e-20
-2.58285e-20
-2.83083e-20
0.843969
0.964256
0.999971
0.999991
1
1
0.993864
0.950897
0.9025
0.844968
0.779614
0.704101
0.619044
0.527036
0.431831
0.332366
0.256226
0.203155
0.164717
0.136758
0.115147
0.11127
0.116501
0.968424
0.978469
0.99951
0.999997
1
1
1
1
1
1
1
1
1
1
1
1
0.982914
0.954963
0.928318
0.903742
0.879517
0.872839
0.877396
0.994852
0.992359
0.999175
1
1
1
1
1
1
1
0.999999
0.999999
1
1
1
1
1
1
1
1
1
1
1
0.999999
0.999426
0.999842
1
1
1
1
0.999999
0.999996
0.999986
0.999937
0.999997
0.999999
1
1
1
1
1
1
1
1
1
1
0.999999
0.999999
0.999992
0.999999
1
1
1
1
0.99999
0.999857
0.999825
0.999948
0.999998
0.999999
1
0.999999
0.999999
0.999999
0.999999
0.999999
0.999999
0.999999
1
0.999999
0.999998
0.999999
1
1
1
1
1
0.999983
0.999827
0.999826
0.99983
0.999986
0.999999
0.999999
0.999998
0.999998
0.999999
0.999999
1
1
1
1
1
0.999999
1
1
1
1
1
1
0.99999
0.999905
0.999827
0.999827
0.99996
0.999998
0.999997
0.999997
0.999997
1
1
1
1
1
1
1
1
1
1
1
1
1
1
1
1
0.999921
0.999857
0.999967
0.999997
0.999997
0.999997
0.999998
1
1
1
1
1
1
1
1
1
1
1
1
1
1
1
1
1
1
0.999993
0.999997
0.999998
0.999999
1
1
1
1
1
1
1
1
1
1
1
1
1
1
1
1
1
1
1
1
0.999995
0.999998
1
1
1
1
1
1
1
1
1
1
1
1
1
1
1
1
1
1
1
1
0.999999
0.999998
0.999998
1
1
1
1
1
1
1
1
1
1
1
1
1
1
1
1
1
1
1
1
1
1
1
1
1
1
1
1
1
1
1
1
1
1
1
1
1
1
1
1
1
1
1
1
1
1
1
1
1
1
1
1
1
1
1
1
1
1
1
1
1
1
1
1
1
1
1
1
1
1
1
1
1
1
1
1
1
1
1
1
1
1
1
1
1
1
1
1
1
1
1
1
1
1
1
1
1
1
1
1
1
1
1
1
1
1
1
1
1
1
1
1
1
1
1
1
1
1
1
1
1
1
1
1
1
1
1
1
1
1
1
1
1
1
1
1
1
1
1
1
1
1
1
1
1
1
1
1
1
1
1
1
1
1
1
1
1
1
1
1
1
1
1
1
1
1
1
1
1
1
1
1
1
1
1
1
1
1
1
1
1
1
1
1
1
1
1
1
1
1
1
1
1
1
1
1
1
1
1
1
1
1
1
1
1
1
1
1
1
1
1
1
1
1
1
1
1
1
1
1
1
1
1
1
1
1
1
1
1
1
1
1
1
1
1
1
1
1
1
1
1
1
1
1
1
1
1
1
1
1
1
1
1
1
1
1
1
1
1
1
1
1
1
1
1
1
1
1
1
1
1
1
1
1
1
1
1
1
1
1
1
1
1
1
1
1
1
1
1
1
1
1
1
1
1
1
1
1
1
1
1
1
1
1
1
1
1
1
1
1
1
1
1
1
1
1
1
1
1
1
1
1
1
1
1
1
1
1
1
1
1
1
1
1
1
1
1
1
1
1
1
1
1
1
1
1
1
1
1
1
1
1
1
1
1
1
1
1
1
1
1
1
1
1
1
1
1
1
1
1
1
1
1
1
1
1
1
1
1
1
1
1
1
1
1
1
1
1
1
1
1
1
1
1
1
1
1
1
1
1
1
1
1
1
1
1
1
1
1
1
1
1
1
1
1
1
1
1
1
1
1
1
1
1
1
1
1
1
1
1
1
1
1
1
1
1
1
1
1
1
1
1
1
1
1
1
1
1
1
1
1
1
1
1
1
1
1
1
1
1
1
1
1
1
1
1
1
1
1
1
1
1
1
1
1
1
1
1
1
1
1
1
1
1
1
1
1
1
1
1
1
1
1
1
1
1
1
1
1
1
1
1
1
1
1
1
1
1
1
1
1
1
1
1
1
1
1
1
1
1
1
1
1
1
1
1
1
1
1
1
1
1
1
1
1
1
1
8.44841e-06
4.89408e-11
5.64489e-13
4.17443e-05
0.000337897
0.000312742
7.52151e-05
0.00258465
0.01033
0.00924269
0.00484588
0.15348
0.225394
0.229366
0.218512
0.233512
0.21657
0.0654879
0.00793801
0.00589322
6.13988e-05
1.25703e-08
9.1275e-12
6.52158e-16
-2.50969e-12
1.46556e-14
4.44558e-12
5.56238e-10
-2.93862e-19
-5.12783e-20
-1.6338e-15
2.33917e-15
0.121172
0.131019
0.143505
0.146391
0.880112
0.8889
0.904633
0.905811
1
1
1
1
1
1
1
1
1
1
1
1
1
1
1
1
1
1
1
1
1
1
1
1
1
1
1
1
1
1
1
1
1
1
1
1
1
1
1
1
1
1
1
1
1
1
1
1
1
1
1
1
1
1
1
1
1
1
1
1
1
1
1
1
1
1
1
1
1
1
1
1
1
1
1
1
1
1
1
1
1
1
1
1
1
1
1
1
1
1
1
1
1
1
1
1
1
1
1
1
1
1
1
1
1
1
1
1
1
1
1
1
1
1
1
1
1
1
1
1
1
1
1
1
1
1
1
1
0.137976
0.142987
0.0801804
0.0824015
0.0214369
0.000115707
8.41313e-05
8.41605e-05
0.0006293
0.00101295
0.000131582
8.6361e-05
0.000172981
0.000142593
9.98717e-05
0.000501769
0.000484264
3.67004e-05
0.0462986
0.168883
0.216463
0.104277
0.141015
0.165055
0.0759551
0.0290793
0.0261593
0.0176404
0.000222412
1.33797e-08
0.000143695
0.000154625
1.84481e-05
0.00028204
0.000738175
0.000728562
5.50671e-06
0.0200687
0.228365
0.193825
0.0120989
0.0372864
0.176377
0.181266
0.180719
0.149928
0.0141246
-3.51912e-06
5.08715e-05
0.000171771
0.000175272
2.88432e-05
2.08016e-05
0.000541411
0.000480866
3.96746e-06
0.0209453
0.228303
0.0428942
4.42448e-05
7.71682e-05
0.0133782
0.164034
0.181267
0.124464
0.00232906
-7.32198e-08
1.10998e-05
0.000115233
9.0689e-05
6.95957e-06
1.2216e-06
2.87576e-05
1.75529e-05
4.55995e-06
0.0421644
4.30944e-06
1.9298e-06
6.2897e-06
2.68631e-06
4.85552e-07
0.00212444
0.021174
0.0180491
0.00194341
-3.04277e-07
3.3615e-06
4.44509e-05
6.3632e-05
1.03741e-05
1.27999e-06
5.9922e-08
6.29449e-07
2.14216e-06
0.0436154
1.35191e-10
3.76609e-07
8.54691e-06
9.28252e-06
1.76863e-06
5.98383e-10
2.00535e-09
4.68852e-10
1.57435e-05
1.93476e-07
1.06864e-05
1.40056e-05
1.3002e-05
3.02745e-06
7.11739e-07
1.3666e-13
1.03235e-12
7.85441e-07
0.0223302
4.00437e-08
1.55369e-11
4.73671e-14
1.0417e-06
7.78765e-07
1.30835e-06
9.44818e-07
7.84788e-07
7.89951e-07
8.4738e-07
9.13034e-07
1.03794e-06
1.29583e-06
1.29755e-06
2.18199e-07
-2.36214e-08
9.27413e-07
3.08637e-07
0.00119605
1.37508e-18
6.75278e-15
7.53665e-11
0.00344541
0.0306077
0.0733507
0.133098
0.150487
0.125217
0.133437
0.272304
0.289433
0.239828
0.227656
0.248854
0.185657
0.0561526
1.27537e-07
3.54113e-07
0.18256
0.278405
0.385947
0.505895
0.665026
0.789589
0.874692
0.971139
0.969585
0.951435
0.964571
0.9636
0.949848
0.953375
0.96305
0.930915
0.822007
0.484923
0.141627
0.925057
0.985076
1
1
1
1
1
0.999999
0.999999
0.999998
0.999997
0.999997
0.999997
0.999996
0.999996
0.999994
0.999929
0.999348
0.918772
1
1
1
1
1
1
1
1
0.999991
0.999964
0.999977
0.999999
0.999999
0.999753
0.999344
0.99948
0.999777
0.999924
0.99168
1
1
1
1
0.999999
0.999999
1
0.999708
0.998979
0.999005
0.999904
0.999999
0.999552
0.997488
0.997519
0.997488
0.999153
0.999999
0.999999
1
1
1
0.999999
0.999999
0.999999
0.999974
0.999153
0.998942
0.99896
0.999999
0.999999
0.999119
0.997652
0.99828
0.999129
0.999492
1
1
1
1
1
1
1
0.999999
0.999963
0.999711
0.999513
0.999798
0.999996
0.999977
0.999751
0.999794
0.999975
1
1
1
1
1
1
1
1
1
0.999998
0.999998
1
1
1
0.999999
0.999997
1
1
1
1
1
1
0.999999
1
1
1
1
1
1
1
1
1
1
1
1
1
1
1
1
1
0.999999
0.999999
1
1
1
1
1
1
1
1
1
1
1
1
1
1
1
1
0.999999
0.999999
0.999999
1
1
1
1
1
1
1
1
1
1
1
1
1
1
1
1
1
1
0.999999
1
1
1
1
1
1
1
1
1
1
1
1
1
1
1
1
1
1
1
1
1
1
1
1
1
1
1
1
1
1
1
1
1
1
1
1
1
1
1
1
1
1
1
1
1
1
1
1
1
1
1
1
1
1
1
1
1
1
1
1
1
1
1
1
1
1
1
1
1
1
1
1
1
1
1
1
1
1
1
1
1
1
1
1
1
1
1
1
1
1
1
1
1
1
1
1
1
1
1
1
1
1
1
1
1
1
1
1
1
1
1
1
1
1
1
1
1
1
1
1
1
1
1
1
1
1
1
1
1
1
1
1
1
1
1
1
1
1
1
1
1
1
1
1
1
1
1
1
1
1
1
1
1
1
1
1
1
1
1
1
1
1
1
1
1
1
1
1
1
1
1
1
1
1
1
1
1
1
1
1
1
1
1
1
1
1
1
1
1
1
1
1
1
1
1
1
1
1
1
1
1
1
1
1
1
1
1
1
1
1
1
1
1
1
1
1
1
1
1
1
1
1
1
1
1
1
1
1
1
1
1
1
1
1
1
1
1
1
1
1
1
1
1
1
1
1
1
1
1
1
1
1
1
1
1
1
1
1
1
1
1
1
1
1
1
1
1
1
1
1
1
1
1
1
1
1
1
1
1
1
1
1
1
1
1
1
1
1
1
1
1
1
1
1
1
1
1
1
1
1
1
1
1
1
1
1
1
1
1
1
1
1
1
1
1
1
1
1
1
1
1
1
1
1
1
1
1
1
1
1
1
1
1
1
1
1
1
1
1
1
1
1
1
1
1
1
1
1
1
1
1
1
1
1
1
1
1
1
1
1
1
1
1
1
1
1
1
1
1
1
1
1
1
1
1
1
1
1
1
1
1
1
1
1
1
1
1
1
1
1
1
1
1
1
1
1
1
1
1
1
1
1
1
1
1
1
1
1
1
1
1
1
1
1
1
1
1
1
1
1
1
1
1
1
1
1
1
1
1
1
1
1
1
1
1
1
1
1
1
1
1
1
1
1
1
1
1
1
1
1
1
1
1
1
1
1
)
;

boundaryField
{
    leftWall
    {
        type            alphaContactAngle;
        contactAngleProperties 
        {
            mercury         
            {
                theta0          90;
            }
            water           
            {
                theta0          90;
            }
            oil             
            {
                theta0          90;
            }
        }
        value           nonuniform List<scalar> 
50
(
1.31895e-13
7.94371e-13
4.02739e-12
1.52354e-11
1.08482e-10
3.97525e-10
9.96493e-10
2.02408e-09
3.28318e-09
4.94307e-09
5.10995e-09
2.50389e-05
0.140919
0.462444
0.434741
0.602353
0.843969
0.968424
0.994852
0.999999
0.999999
0.999999
1
1
1
1
1
1
1
1
1
1
1
1
1
1
1
1
1
1
1
1
1
1
1
1
1
1
1
1
)
;
    }
    rightWall
    {
        type            alphaContactAngle;
        contactAngleProperties 
        {
            mercury         
            {
                theta0          90;
            }
            water           
            {
                theta0          90;
            }
            oil             
            {
                theta0          90;
            }
        }
        value           nonuniform List<scalar> 
50
(
0.0149614
0.0184775
0.0785176
0.0933295
0.0406898
0.091042
0.118328
0.118328
0.0462986
0.0200687
0.0209453
0.0421644
0.0436154
0.0223302
0.00119605
3.54113e-07
0.141627
0.918772
0.99168
0.999999
1
1
0.999999
0.999999
0.999999
0.999999
1
1
1
1
1
1
1
1
1
1
1
1
1
1
1
1
1
1
1
1
1
1
1
1
)
;
    }
    lowerWall
    {
        type            alphaContactAngle;
        contactAngleProperties 
        {
            mercury         
            {
                theta0          90;
            }
            water           
            {
                theta0          90;
            }
            oil             
            {
                theta0          90;
            }
        }
        value           nonuniform List<scalar> 
62
(
1.31895e-13
1.94358e-13
2.73672e-13
2.34748e-13
2.04401e-13
1.67263e-13
1.19495e-13
7.57771e-14
4.24702e-14
2.17189e-14
1.2857e-14
8.00004e-15
4.89428e-15
2.82149e-15
1.39626e-15
7.54113e-16
6.98718e-16
7.79764e-16
1.41649e-15
7.02166e-15
2.88639e-14
2.11142e-14
1.15805e-14
1.15805e-14
1.20357e-13
1.39709e-12
2.9557e-12
5.45808e-13
3.73023e-13
6.81975e-09
6.38643e-06
8.44841e-06
4.89408e-11
5.64489e-13
4.17443e-05
0.00652117
0.00157465
1.98608e-06
0.000329375
0.00164965
0.00162889
0.00267347
0.0545663
0.00652117
0.051653
0.0595205
0.0820893
0.081843
0.0742834
0.0481499
0.0480585
0.050975
0.0905008
0.195932
0.172799
0.115374
0.035835
0.0116402
0.0112761
0.0147739
0.0180697
0.0149614
)
;
    }
    atmosphere
    {
        type            inletOutlet;
        inletValue      uniform 1;
        value           nonuniform List<scalar> 
46
(
1
1
1
1
1
1
1
1
1
1
1
1
1
1
1
1
1
1
1
1
1
1
1
1
1
1
1
1
1
1
1
1
1
1
1
1
1
1
1
1
1
1
1
1
1
1
)
;
    }
    defaultFaces
    {
        type            empty;
    }
}


// ************************************************************************* //
