/*--------------------------------*- C++ -*----------------------------------*\
  =========                 |
  \\      /  F ield         | OpenFOAM: The Open Source CFD Toolbox
   \\    /   O peration     | Website:  https://openfoam.org
    \\  /    A nd           | Version:  13
     \\/     M anipulation  |
\*---------------------------------------------------------------------------*/
FoamFile
{
    format      ascii;
    class       volScalarField;
    location    "1.5";
    object      epsilon;
}
// * * * * * * * * * * * * * * * * * * * * * * * * * * * * * * * * * * * * * //

dimensions      [0 2 -3 0 0 0 0];

internalField   nonuniform List<scalar> 
2268
(
0.006228
0.0314394
0.063083
0.0946475
0.124886
0.154213
0.182268
0.208402
0.231928
0.252128
0.268226
0.279552
0.285569
0.285785
0.279696
0.267198
0.252372
0.23559
0.215466
0.189881
0.154486
0.0985993
0.0238743
0.0100353
0.021797
0.0358468
0.0498331
0.0631762
0.0757643
0.0874412
0.0980526
0.107455
0.115495
0.12201
0.12687
0.130002
0.131388
0.131089
0.129434
0.127956
0.126444
0.123804
0.117954
0.105008
0.0795254
0.0494778
0.0173948
0.0242636
0.034851
0.0454094
0.0553643
0.0645875
0.0730165
0.0806087
0.087326
0.0931209
0.0979404
0.101751
0.104562
0.106424
0.107459
0.107953
0.108618
0.109429
0.10965
0.107643
0.100599
0.0867417
0.091785
0.0258916
0.029338
0.0384458
0.0475312
0.055976
0.063702
0.0707146
0.077025
0.0826345
0.0875296
0.0916943
0.0951281
0.0978633
0.0999712
0.10157
0.102878
0.104287
0.105832
0.107001
0.106634
0.10313
0.0979639
0.136683
0.0355555
0.0363672
0.0444906
0.0525513
0.0599452
0.0666604
0.0727544
0.078267
0.0832096
0.0875748
0.0913572
0.0945712
0.0972581
0.0994954
0.101391
0.103104
0.104868
0.106731
0.108356
0.10905
0.108425
0.111049
0.181554
0.0471828
0.0454812
0.0525293
0.059539
0.0659425
0.0717694
0.0771042
0.0819901
0.0864264
0.0903915
0.0938796
0.0969129
0.0995361
0.10183
0.103893
0.105847
0.107836
0.109909
0.111878
0.113491
0.115521
0.125833
0.229228
0.0616729
0.0568116
0.0621954
0.0679202
0.073274
0.0782459
0.0828972
0.0872465
0.0912607
0.0948948
0.0981269
0.100978
0.103507
0.105806
0.107972
0.110105
0.112294
0.114592
0.116947
0.119493
0.124091
0.142681
0.291574
0.0795948
0.0698374
0.0728843
0.0770584
0.0813157
0.0854866
0.0895401
0.0934351
0.0970922
0.100439
0.103438
0.106116
0.108557
0.110864
0.11314
0.115457
0.117872
0.120464
0.12332
0.126874
0.133819
0.161005
0.430356
0.0661698
0.17389
0.262891
0.314066
0.357397
0.415189
0.476566
0.530778
0.559776
0.55441
0.523668
0.502667
0.478453
0.427104
0.353587
0.278537
0.195957
0.102516
0.0234335
0.0819627
0.123242
0.16236
0.192864
0.220047
0.247268
0.274083
0.292421
0.296752
0.286488
0.266411
0.242688
0.221539
0.195177
0.163577
0.131425
0.0983213
0.0632521
0.0365209
0.117024
0.136825
0.157664
0.18499
0.208965
0.229059
0.249239
0.264309
0.267552
0.255675
0.234069
0.210412
0.189122
0.166754
0.141533
0.115584
0.089823
0.0654185
0.0597186
0.14387
0.150833
0.165284
0.186338
0.211663
0.230688
0.248533
0.265397
0.272672
0.261457
0.237639
0.211606
0.188476
0.166303
0.142446
0.117809
0.0938931
0.0731927
0.0869407
0.159196
0.155714
0.173609
0.192412
0.208014
0.224175
0.239757
0.256119
0.267534
0.265034
0.248064
0.221773
0.197225
0.174488
0.151264
0.127107
0.103159
0.082997
0.103435
0.168496
0.158576
0.179293
0.200959
0.204191
0.211148
0.222785
0.23638
0.247884
0.251584
0.244272
0.22616
0.205598
0.185113
0.163779
0.140783
0.11639
0.095449
0.112587
0.193601
0.162656
0.182283
0.204718
0.204002
0.202687
0.209192
0.219925
0.230246
0.235337
0.232107
0.221654
0.207862
0.19272
0.175684
0.156043
0.132465
0.110922
0.138176
0.278706
0.172365
0.180637
0.201842
0.204326
0.198986
0.200815
0.208331
0.217026
0.222423
0.221714
0.215808
0.207281
0.197353
0.185187
0.169309
0.147608
0.127103
0.177622
0.105602
0.0890981
0.0894495
0.0916779
0.0945021
0.0976081
0.100852
0.104105
0.107209
0.110047
0.112601
0.114946
0.11721
0.119541
0.122068
0.124863
0.127917
0.131242
0.135165
0.140388
0.149662
0.174633
0.272003
0.155989
0.118236
0.113692
0.114032
0.115724
0.11788
0.120251
0.122662
0.124876
0.126761
0.128356
0.129802
0.13126
0.132915
0.134959
0.137569
0.140906
0.145024
0.150106
0.156496
0.164835
0.17703
0.199807
0.224272
0.149734
0.139319
0.138272
0.139316
0.140807
0.142462
0.144083
0.145333
0.146126
0.146632
0.147082
0.147649
0.148487
0.14975
0.151572
0.154046
0.15744
0.161823
0.167048
0.172748
0.178226
0.183113
0.320068
0.18564
0.167441
0.164087
0.163881
0.164396
0.165263
0.166093
0.166368
0.166114
0.165673
0.165319
0.165177
0.165381
0.166122
0.16758
0.169858
0.172957
0.176722
0.180808
0.184728
0.187927
0.190316
0.468547
0.231048
0.198414
0.19017
0.187339
0.186291
0.186211
0.186169
0.185561
0.184555
0.183591
0.182859
0.18241
0.182388
0.183116
0.184885
0.187669
0.191125
0.194907
0.198811
0.202499
0.205537
0.207858
0.648762
0.278792
0.228607
0.213344
0.206385
0.203072
0.201766
0.200877
0.199786
0.198691
0.197877
0.197404
0.197305
0.197793
0.19926
0.201949
0.205607
0.209714
0.214048
0.218541
0.222911
0.226858
0.230456
0.77665
0.322653
0.263417
0.238359
0.223887
0.21594
0.212075
0.210025
0.20869
0.207835
0.207457
0.207584
0.208314
0.20989
0.212593
0.216494
0.221288
0.226582
0.232238
0.238175
0.244165
0.250004
0.255715
0.706788
0.367249
0.329247
0.28074
0.248718
0.230851
0.221986
0.217875
0.215959
0.215075
0.214878
0.215378
0.216761
0.219286
0.223109
0.228199
0.234302
0.241153
0.248625
0.25661
0.26493
0.273338
0.281558
0.583353
0.414417
0.462724
0.364809
0.288549
0.251398
0.23404
0.226604
0.223716
0.22268
0.222487
0.223066
0.224705
0.227735
0.232295
0.238362
0.245867
0.254517
0.26408
0.274421
0.28543
0.296786
0.307759
0.437538
0.39447
0.399914
0.382503
0.316523
0.26905
0.245174
0.234283
0.231214
0.23079
0.231087
0.231912
0.233744
0.236958
0.241887
0.248295
0.256919
0.267493
0.279539
0.292596
0.306574
0.321179
0.335335
0.373934
0.311225
0.334055
0.328487
0.293991
0.263996
0.243601
0.233203
0.229784
0.229594
0.230239
0.231345
0.233436
0.237005
0.242672
0.251182
0.262557
0.277094
0.293363
0.310175
0.327804
0.345982
0.362775
0.422578
0.27407
0.288724
0.288783
0.269082
0.249454
0.236827
0.229714
0.22613
0.224567
0.224516
0.226048
0.229376
0.234607
0.242208
0.25191
0.263444
0.277313
0.292542
0.309441
0.328319
0.347897
0.366201
0.421854
0.253557
0.255382
0.255634
0.247102
0.237922
0.23104
0.226352
0.223338
0.221538
0.221276
0.222898
0.226484
0.231893
0.23902
0.248003
0.258602
0.270318
0.283576
0.298861
0.315996
0.333817
0.351053
0.388123
0.233242
0.227197
0.229172
0.228211
0.225807
0.223381
0.221199
0.219344
0.218024
0.217823
0.219295
0.222665
0.227759
0.234423
0.242484
0.251519
0.261468
0.272451
0.284687
0.298043
0.3116
0.324431
0.376824
0.221457
0.209138
0.210521
0.21263
0.213794
0.214096
0.213831
0.213369
0.213043
0.213312
0.214787
0.217848
0.222387
0.22814
0.234918
0.242416
0.250382
0.258851
0.267956
0.277518
0.286888
0.295367
0.379194
0.215893
0.198266
0.197574
0.199934
0.202345
0.204081
0.205204
0.206
0.206732
0.207658
0.209262
0.211965
0.215791
0.220481
0.225805
0.231544
0.237531
0.243739
0.250174
0.256649
0.262712
0.267936
0.380177
0.210901
0.189667
0.187006
0.188734
0.191359
0.193808
0.195873
0.197645
0.199252
0.200835
0.202666
0.205075
0.208203
0.211894
0.215953
0.220218
0.224573
0.228969
0.233357
0.237573
0.24132
0.244384
0.373009
0.203389
0.180515
0.17667
0.177844
0.18046
0.18332
0.186042
0.188546
0.190846
0.192988
0.19511
0.197426
0.200088
0.203047
0.206183
0.209385
0.21257
0.215681
0.218659
0.22138
0.223653
0.225416
0.355787
0.192497
0.169798
0.165641
0.16665
0.169352
0.17255
0.17578
0.178866
0.181736
0.184377
0.186844
0.189264
0.191748
0.194309
0.196898
0.19945
0.201908
0.204224
0.206347
0.208188
0.209631
0.210702
0.329461
0.178449
0.157398
0.153664
0.154904
0.157868
0.16143
0.165112
0.168696
0.17207
0.175181
0.178036
0.180696
0.183236
0.18569
0.188052
0.190298
0.192393
0.194303
0.195992
0.197398
0.198452
0.19923
0.295807
0.161847
0.143558
0.140788
0.142558
0.145934
0.149903
0.154017
0.158052
0.161882
0.165437
0.168693
0.171672
0.174419
0.176969
0.179337
0.181523
0.183513
0.185289
0.186828
0.188088
0.189026
0.189737
0.257096
0.143504
0.128714
0.127227
0.129677
0.133552
0.137945
0.142465
0.146906
0.151143
0.155102
0.158744
0.162067
0.165094
0.167854
0.170368
0.172649
0.174697
0.176506
0.178064
0.179341
0.18031
0.181065
0.216172
0.124509
0.113476
0.113338
0.116463
0.120824
0.125602
0.130472
0.135253
0.139833
0.144137
0.148122
0.151772
0.155094
0.158108
0.160834
0.163288
0.16548
0.167409
0.169072
0.170447
0.171513
0.172355
0.17899
0.106533
0.0986213
0.0995982
0.103256
0.107978
0.113035
0.118158
0.123187
0.128022
0.132592
0.136852
0.140778
0.144368
0.14763
0.15058
0.153232
0.155599
0.157684
0.159486
0.16099
0.162178
0.163123
0.146085
0.0899761
0.0847016
0.0865236
0.0904971
0.0953617
0.100532
0.105777
0.110933
0.115913
0.120651
0.125098
0.129228
0.133028
0.136499
0.139649
0.142489
0.145028
0.147271
0.149219
0.150859
0.152174
0.153227
0.118343
0.075383
0.072199
0.0745766
0.0786487
0.0834506
0.0885451
0.0937195
0.0988453
0.103846
0.108638
0.113171
0.117415
0.121349
0.124967
0.12827
0.131263
0.133951
0.136336
0.13842
0.14019
0.141633
0.142798
0.0966196
0.063282
0.0615341
0.0641597
0.0681191
0.0726736
0.0775219
0.0824731
0.0874156
0.0922715
0.0969752
0.101482
0.105743
0.109724
0.113416
0.116811
0.119907
0.122705
0.125205
0.127404
0.129293
0.130858
0.132138
0.0809968
0.0539229
0.0529366
0.0555194
0.0591912
0.0633651
0.0678312
0.0724306
0.0770637
0.0816578
0.0861531
0.0905006
0.0946573
0.0985949
0.102283
0.1057
0.108842
0.111703
0.114279
0.116565
0.118552
0.120227
0.121618
0.0707587
0.0471797
0.0463781
0.0486884
0.0519538
0.0556715
0.0596817
0.0638499
0.06809
0.0723366
0.0765344
0.0806355
0.0845982
0.0883884
0.0919774
0.0953457
0.0984744
0.101345
0.103954
0.106292
0.108349
0.110113
0.111604
0.0647168
0.0426244
0.0416062
0.0435047
0.0463108
0.0495633
0.0531041
0.0568186
0.0606333
0.0644908
0.068341
0.0721395
0.075846
0.0794261
0.08285
0.0860936
0.0891368
0.0919637
0.0945613
0.0969107
0.0990035
0.100827
0.102395
0.0616807
0.039712
0.0382589
0.0397029
0.0420726
0.0448956
0.0480011
0.051288
0.0546914
0.058161
0.0616525
0.065126
0.0685447
0.0718757
0.07509
0.0781624
0.0810715
0.083799
0.086329
0.0886461
0.0907384
0.0925876
0.0942017
0.0608404
0.0379704
0.0360058
0.0370385
0.0390369
0.0415
0.0442368
0.0471528
0.0501892
0.0533016
0.0564518
0.0596049
0.0627289
0.0657943
0.0687742
0.0716448
0.0743848
0.0769752
0.0793993
0.0816413
0.0836867
0.085521
0.087146
0.0615259
0.0370971
0.0346569
0.0353778
0.0371016
0.0392839
0.0417258
0.0443345
0.0470561
0.0498518
0.0526895
0.0555401
0.0583767
0.0611741
0.0639088
0.0665593
0.069106
0.0715308
0.0738172
0.0759495
0.0779128
0.0796929
0.0812868
0.063567
0.0370614
0.0342531
0.0347798
0.0363161
0.0382857
0.0404874
0.042834
0.0452783
0.0477881
0.0503372
0.0529019
0.0554602
0.0579912
0.0604751
0.0628937
0.0652294
0.067466
0.069588
0.0715806
0.0734291
0.0751197
0.0766456
0.0676739
0.0382739
0.0351584
0.0355517
0.0369255
0.0386891
0.0406529
0.0427411
0.0449142
0.0471454
0.0494128
0.0516966
0.0539783
0.0562405
0.0584668
0.0606417
0.0627503
0.0647784
0.0667119
0.0685373
0.0702407
0.0718084
0.0732311
0.0757192
0.0417893
0.0381494
0.038257
0.0393317
0.0407813
0.0424304
0.0442091
0.0460786
0.0480108
0.049983
0.0519755
0.053971
0.0559541
0.0579105
0.0598268
0.0616904
0.063489
0.0652103
0.066842
0.0683714
0.0697849
0.0710709
0.091091
0.0494381
0.0443716
0.0436081
0.043986
0.0448648
0.046039
0.0474093
0.0489126
0.0505047
0.0521525
0.0538314
0.0555217
0.0572078
0.0588762
0.0605149
0.0621129
0.0636597
0.0651445
0.0665565
0.0678839
0.0691136
0.0702321
0.119311
0.0638662
0.0551342
0.0522292
0.0512037
0.0511323
0.051629
0.052479
0.0535503
0.054759
0.0560511
0.0573908
0.0587536
0.0601217
0.0614814
0.0628216
0.0641325
0.0654047
0.0666293
0.0677966
0.0688962
0.0699155
0.0708392
0.170523
0.0885951
0.0713856
0.0642143
0.0608999
0.0595262
0.0592081
0.0594821
0.0600941
0.0609016
0.0618222
0.0628072
0.0638264
0.06486
0.0658939
0.0669177
0.0679225
0.0689006
0.0698444
0.070746
0.0715963
0.0723837
0.0730925
0.270559
0.127868
0.0924143
0.0784262
0.0723221
0.0696579
0.0686246
0.0684074
0.0686162
0.069055
0.0696213
0.070259
0.0709358
0.0716319
0.0723344
0.073034
0.0737235
0.0743968
0.0750481
0.0756714
0.0762596
0.0768033
0.0772878
0.523789
0.182943
0.112724
0.0917326
0.0840307
0.0809278
0.0796733
0.0792404
0.0792015
0.0793632
0.0796321
0.07996
0.0803206
0.0806986
0.0810841
0.0814707
0.0818534
0.0822283
0.0825918
0.0829403
0.0832693
0.0835726
0.0838395
1.59727
0.212298
0.116283
0.0993519
0.0946416
0.0929963
0.0923546
0.0921067
0.0920346
0.0920486
0.0921077
0.0921916
0.0922895
0.0923951
0.0925047
0.0926158
0.0927267
0.0928358
0.0929421
0.0930445
0.0931414
0.0932308
0.0933086
0.756143
0.624461
0.519688
0.454141
0.228311
0.234133
0.230109
0.219538
0.188083
0.19062
0.191332
0.190334
0.192059
0.193333
0.19454
0.195588
0.209538
0.210889
0.212429
0.214181
0.233213
0.235313
0.237554
0.239962
0.26001
0.263134
0.266297
0.269494
0.287463
0.291665
0.295886
0.300115
0.315157
0.32039
0.325771
0.33128
0.3448
0.351288
0.357779
0.364286
0.37402
0.381507
0.389131
0.396627
0.379329
0.388689
0.398448
0.40635
0.362991
0.370695
0.378472
0.384522
0.332775
0.337699
0.342235
0.345882
0.300463
0.303154
0.305371
0.307009
0.270757
0.271999
0.272812
0.273175
0.245764
0.246157
0.246204
0.245897
0.226002
0.225974
0.225687
0.225126
0.210929
0.210748
0.210377
0.209802
0.199354
0.199166
0.198838
0.198357
0.18989
0.189763
0.189522
0.189166
0.181299
0.181251
0.181106
0.180865
0.172682
0.172713
0.172656
0.172512
0.16354
0.163646
0.163668
0.163607
0.153735
0.153914
0.154011
0.154028
0.1434
0.143653
0.143827
0.143923
0.132836
0.133165
0.133418
0.133594
0.122412
0.122815
0.123147
0.123405
0.112485
0.112957
0.113362
0.113697
0.103348
0.103878
0.104345
0.104748
0.0952049
0.0957775
0.0962931
0.0967484
0.0881748
0.0887728
0.0893183
0.0898086
0.082311
0.0829157
0.0834724
0.0839782
0.0776357
0.078227
0.0787745
0.0792754
0.0741595
0.0747174
0.0752353
0.0757102
0.071911
0.0724168
0.0728853
0.0733137
0.0709594
0.0713957
0.0717968
0.0721594
0.071433
0.0717855
0.072104
0.0723847
0.0735386
0.0737981
0.0740249
0.074214
0.0775827
0.0777484
0.0778842
0.0779842
0.0839947
0.0840771
0.0841369
0.0841681
0.0933514
0.0933724
0.0933844
0.0933848
0.245625
0.179902
0.177249
0.19365
0.202689
0.198409
0.195388
0.197912
0.203425
0.208289
0.210124
0.209257
0.207213
0.204321
0.198358
0.185806
0.166881
0.151916
0.252996
0.192279
0.17933
0.180908
0.192563
0.203549
0.204856
0.201705
0.200594
0.202223
0.204802
0.207077
0.209491
0.212783
0.215672
0.213471
0.202789
0.187697
0.186478
0.389402
0.18615
0.184704
0.190569
0.20216
0.213893
0.218352
0.216673
0.214414
0.213165
0.212761
0.213504
0.216394
0.221678
0.227158
0.227804
0.220628
0.2106
0.22177
0.494893
0.196855
0.199089
0.204918
0.215697
0.227879
0.235344
0.236239
0.233872
0.230743
0.227908
0.226667
0.228425
0.233369
0.239384
0.242142
0.238862
0.234626
0.256829
0.586912
0.217312
0.220993
0.225876
0.233917
0.244107
0.252035
0.2549
0.253473
0.250076
0.246389
0.244012
0.244523
0.24826
0.253634
0.257172
0.256546
0.257083
0.288429
0.669336
0.244167
0.248645
0.2531
0.258972
0.26623
0.272396
0.275076
0.274094
0.271105
0.267501
0.2647
0.264086
0.266131
0.269819
0.272419
0.272032
0.274564
0.311574
0.734204
0.274804
0.28028
0.285055
0.289971
0.295099
0.299153
0.300626
0.299186
0.29604
0.292302
0.289122
0.287491
0.287568
0.288738
0.288833
0.285708
0.285762
0.322896
0.771448
0.307083
0.314259
0.320276
0.32546
0.329588
0.332085
0.332269
0.330072
0.326288
0.32173
0.318055
0.316
0.314536
0.313064
0.310122
0.302125
0.295324
0.326034
0.774076
0.340445
0.350001
0.358246
0.364819
0.368958
0.370709
0.370022
0.36729
0.362331
0.355399
0.350711
0.349374
0.347376
0.344516
0.341827
0.326871
0.307416
0.324748
0.744684
0.374955
0.387082
0.399153
0.407934
0.412333
0.413614
0.411932
0.408509
0.401374
0.388373
0.3796
0.377253
0.370099
0.352793
0.33474
0.314851
0.297464
0.314112
0.704578
0.40743
0.421137
0.434617
0.441234
0.441995
0.439035
0.434143
0.425644
0.411484
0.391073
0.375368
0.365602
0.349946
0.325269
0.30383
0.28262
0.265312
0.288162
0.66107
0.416106
0.425898
0.433971
0.436461
0.429823
0.418971
0.407235
0.392625
0.374293
0.354336
0.339023
0.32659
0.310602
0.290341
0.269965
0.249543
0.23447
0.259024
0.539748
0.390788
0.39572
0.398774
0.397319
0.389105
0.376136
0.361609
0.346004
0.328715
0.311756
0.298598
0.287116
0.27256
0.253572
0.234785
0.217038
0.207467
0.233302
0.430647
0.349729
0.3508
0.350614
0.347473
0.339201
0.327216
0.313911
0.300054
0.285532
0.272099
0.26148
0.251556
0.238149
0.220898
0.204996
0.192174
0.187808
0.210503
0.348253
0.308407
0.307146
0.304358
0.299627
0.291973
0.282045
0.271203
0.260101
0.248825
0.238564
0.229885
0.220833
0.208922
0.194984
0.18316
0.175368
0.174814
0.192029
0.287188
0.272965
0.270241
0.266095
0.26077
0.253948
0.245941
0.237514
0.229006
0.220616
0.212819
0.205475
0.197287
0.187382
0.177111
0.169281
0.165221
0.16653
0.178309
0.244882
0.244919
0.241813
0.237469
0.232362
0.226517
0.220131
0.213682
0.207253
0.200964
0.194854
0.188576
0.181513
0.173713
0.166457
0.161465
0.159508
0.161054
0.168563
0.219088
0.22395
0.221124
0.217287
0.212901
0.208106
0.203076
0.198062
0.193085
0.188152
0.183136
0.177749
0.171808
0.165689
0.160397
0.156962
0.155741
0.156792
0.161994
0.206674
0.208742
0.206479
0.2034
0.199873
0.196035
0.19203
0.187988
0.183915
0.179771
0.175415
0.170676
0.165575
0.160526
0.156242
0.15334
0.152039
0.152508
0.157285
0.203686
0.197531
0.195864
0.193513
0.190744
0.187655
0.184348
0.180901
0.177321
0.173567
0.169541
0.165171
0.160549
0.15602
0.152079
0.149145
0.147473
0.147611
0.153265
0.205967
0.188583
0.187415
0.185639
0.183437
0.180865
0.177987
0.174863
0.171506
0.167893
0.163977
0.159748
0.155319
0.150958
0.147025
0.143868
0.141865
0.142004
0.149206
0.21019
0.180485
0.179686
0.178316
0.176498
0.174254
0.171627
0.168665
0.165389
0.1618
0.157891
0.153691
0.149316
0.144982
0.140983
0.13766
0.13553
0.135968
0.14491
0.214376
0.172289
0.171745
0.17065
0.169087
0.167059
0.164593
0.161731
0.158501
0.154925
0.151023
0.146851
0.142526
0.13824
0.134258
0.130942
0.128931
0.129881
0.14048
0.217619
0.163509
0.163146
0.16225
0.160876
0.159017
0.156694
0.153942
0.150795
0.147289
0.143466
0.139397
0.135204
0.131069
0.12725
0.124136
0.122447
0.124029
0.136076
0.219634
0.154041
0.153825
0.153097
0.151895
0.150208
0.148055
0.145463
0.142473
0.139128
0.135484
0.131626
0.127676
0.123814
0.1203
0.11754
0.116308
0.118555
0.131785
0.220342
0.144046
0.143973
0.143413
0.142394
0.140906
0.138966
0.136599
0.133845
0.130753
0.127387
0.123838
0.120231
0.116744
0.113635
0.111321
0.1106
0.113476
0.127612
0.21976
0.133835
0.133915
0.133535
0.132719
0.131461
0.129777
0.127689
0.125235
0.122468
0.119454
0.116286
0.113087
0.110032
0.107377
0.105537
0.105318
0.108741
0.123524
0.217921
0.123768
0.124009
0.123821
0.123226
0.122219
0.120817
0.11904
0.116925
0.114523
0.1119
0.109145
0.10638
0.103772
0.101569
0.100181
0.100408
0.104267
0.119462
0.214954
0.114181
0.114585
0.11459
0.114217
0.113465
0.112351
0.110893
0.109125
0.107095
0.104867
0.102524
0.10018
0.0979951
0.0962064
0.0952123
0.0958011
0.0999721
0.11538
0.210987
0.105341
0.105895
0.106081
0.105918
0.105407
0.104565
0.103409
0.101971
0.100293
0.098434
0.0964713
0.0945104
0.0926993
0.0912631
0.0905853
0.0914374
0.0957966
0.111276
0.206367
0.0974301
0.0981105
0.098451
0.0984695
0.0981686
0.0975657
0.0966777
0.095531
0.0941644
0.0926302
0.0909986
0.0893648
0.0878649
0.0867096
0.086265
0.0872813
0.0917051
0.107044
0.200745
0.0905518
0.0913234
0.0917809
0.0919413
0.0918085
0.0913992
0.0907301
0.0898245
0.0887165
0.0874522
0.0860935
0.0847255
0.0834716
0.082527
0.0822387
0.0833303
0.0876916
0.102657
0.19418
0.0847505
0.0855702
0.0861001
0.0863538
0.0863373
0.0860677
0.0855616
0.08484
0.0839329
0.0828802
0.0817358
0.0805746
0.0795073
0.0787135
0.0785184
0.0796105
0.0838129
0.0982413
0.186934
0.0800416
0.0808603
0.0814101
0.0817013
0.0817422
0.0815521
0.0811484
0.0805512
0.0797869
0.0788897
0.077906
0.076901
0.0759731
0.0752851
0.0751387
0.0761859
0.0801743
0.0939731
0.179519
0.0764352
0.0772016
0.0777125
0.0779766
0.0780063
0.077828
0.0774613
0.0769278
0.0762508
0.0754587
0.0745901
0.0737012
0.0728788
0.0722697
0.072153
0.0731421
0.076905
0.0900486
0.172335
0.073962
0.0746218
0.0750284
0.0751892
0.0751256
0.074877
0.0744744
0.0739418
0.0732987
0.0725666
0.0717762
0.0709748
0.0702389
0.0697017
0.0696207
0.070572
0.0741426
0.0866818
0.165911
0.072697
0.0731936
0.0734214
0.0733827
0.0731151
0.0726909
0.0721651
0.0715657
0.0709049
0.0701936
0.0694524
0.0687202
0.0680649
0.0676089
0.067592
0.0685563
0.0720124
0.0840656
0.160592
0.0727825
0.0730619
0.0730269
0.07266
0.0720216
0.0712712
0.0705109
0.0697692
0.0690401
0.0683154
0.0676013
0.0669272
0.0663548
0.0659996
0.0660902
0.0671424
0.0706003
0.0823524
0.156746
0.0744549
0.0744792
0.0740979
0.073225
0.0719302
0.07062
0.0694785
0.068511
0.0676661
0.0668995
0.0661954
0.0655719
0.0650861
0.0648523
0.0650962
0.06632
0.0699194
0.0816008
0.154467
0.078075
0.0778534
0.0770837
0.0754751
0.0729534
0.0707077
0.0690022
0.0677286
0.0667314
0.0659035
0.0651968
0.0646156
0.0642143
0.0641111
0.0645383
0.0660013
0.0698755
0.0817402
0.153799
0.0841545
0.0837985
0.0827616
0.0802506
0.0751308
0.0713852
0.0689472
0.0673278
0.0661713
0.0652785
0.0645619
0.0640114
0.0636798
0.0636922
0.0642947
0.0660118
0.0702331
0.082498
0.154535
0.0933551
0.0931347
0.0923934
0.0896601
0.0779209
0.0721931
0.0690702
0.067184
0.065916
0.0649787
0.0642529
0.063718
0.0634262
0.0635087
0.0642242
0.0661187
0.0706178
0.0833186
0.1561
)
;

boundaryField
{
    leftWall
    {
        type            epsilonWallFunction;
        value           nonuniform List<scalar> 
50
(
0.006228
0.0100353
0.0173948
0.0258916
0.0355555
0.0471828
0.0616729
0.0795948
0.105602
0.155989
0.224272
0.320068
0.468547
0.648762
0.77665
0.706788
0.583353
0.437538
0.373934
0.422578
0.421854
0.388123
0.376824
0.379194
0.380177
0.373009
0.355787
0.329461
0.295807
0.257096
0.216172
0.17899
0.146085
0.118343
0.0966196
0.0809968
0.0707587
0.0647168
0.0616807
0.0608404
0.0615259
0.063567
0.0676739
0.0757192
0.091091
0.119311
0.170523
0.270559
0.523789
1.59727
)
;
    }
    rightWall
    {
        type            epsilonWallFunction;
        value           nonuniform List<scalar> 
50
(
0.0234335
0.0365209
0.0597186
0.0869407
0.103435
0.112587
0.138176
0.177622
0.252996
0.389402
0.494893
0.586912
0.669336
0.734204
0.771448
0.774076
0.744684
0.704578
0.66107
0.539748
0.430647
0.348253
0.287188
0.244882
0.219088
0.206674
0.203686
0.205967
0.21019
0.214376
0.217619
0.219634
0.220342
0.21976
0.217921
0.214954
0.210987
0.206367
0.200745
0.19418
0.186934
0.179519
0.172335
0.165911
0.160592
0.156746
0.154467
0.153799
0.154535
0.1561
)
;
    }
    lowerWall
    {
        type            epsilonWallFunction;
        value           nonuniform List<scalar> 
62
(
0.006228
0.0314394
0.063083
0.0946475
0.124886
0.154213
0.182268
0.208402
0.231928
0.252128
0.268226
0.279552
0.285569
0.285785
0.279696
0.267198
0.252372
0.23559
0.215466
0.189881
0.154486
0.0985993
0.0238743
0.0238743
0.0494778
0.091785
0.136683
0.181554
0.229228
0.291574
0.430356
0.756143
0.624461
0.519688
0.454141
0.0661698
0.0819627
0.117024
0.14387
0.159196
0.168496
0.193601
0.278706
0.0661698
0.17389
0.262891
0.314066
0.357397
0.415189
0.476566
0.530778
0.559776
0.55441
0.523668
0.502667
0.478453
0.427104
0.353587
0.278537
0.195957
0.102516
0.0234335
)
;
    }
    atmosphere
    {
        type            inletOutlet;
        inletValue      uniform 0.1;
        value           nonuniform List<scalar> 
46
(
0.1
0.1
0.1
0.1
0.1
0.1
0.1
0.1
0.1
0.1
0.1
0.1
0.1
0.1
0.1
0.1
0.1
0.1
0.1
0.1
0.1
0.1
0.1
0.1
0.1
0.1
0.1
0.1
0.1
0.1
0.1
0.0779209
0.0721931
0.0690702
0.067184
0.065916
0.0649787
0.0642529
0.063718
0.0634262
0.0635087
0.0642242
0.0661187
0.0706178
0.0833186
0.1561
)
;
    }
    defaultFaces
    {
        type            empty;
    }
}


// ************************************************************************* //
