/*--------------------------------*- C++ -*----------------------------------*\
  =========                 |
  \\      /  F ield         | OpenFOAM: The Open Source CFD Toolbox
   \\    /   O peration     | Website:  https://openfoam.org
    \\  /    A nd           | Version:  13
     \\/     M anipulation  |
\*---------------------------------------------------------------------------*/
FoamFile
{
    format      ascii;
    class       volScalarField;
    location    "1.5";
    object      k;
}
// * * * * * * * * * * * * * * * * * * * * * * * * * * * * * * * * * * * * * //

dimensions      [0 2 -2 0 0 0 0];

internalField   nonuniform List<scalar> 
2268
(
0.00129176
0.00379524
0.00602667
0.00788821
0.00948602
0.0109165
0.0122044
0.0133477
0.0143383
0.0151643
0.0158094
0.0162592
0.0165014
0.0165206
0.0162946
0.0158083
0.0151977
0.0144875
0.0136162
0.0124833
0.0108484
0.00802775
0.00318732
0.00291705
0.00875686
0.0133446
0.0172773
0.0207088
0.0237406
0.0264164
0.02875
0.030743
0.0323893
0.0336768
0.0345946
0.0351353
0.0352899
0.0350449
0.0343991
0.0333789
0.0320802
0.0304534
0.0282829
0.0250651
0.0197803
0.00842766
0.0042052
0.0115279
0.0172998
0.0222636
0.0265867
0.0303816
0.0337105
0.0366023
0.0390688
0.0411115
0.0427249
0.0439043
0.044649
0.0449573
0.0448227
0.0442486
0.0432612
0.0419267
0.0401621
0.0376717
0.0337967
0.0272157
0.0126706
0.00548033
0.0138624
0.0205612
0.0262521
0.0311755
0.0354715
0.0392235
0.0424756
0.0452491
0.047552
0.0493863
0.0507544
0.0516619
0.0521148
0.0521128
0.0516584
0.0507658
0.0494708
0.0476617
0.0449988
0.0407503
0.0333752
0.0164945
0.0067718
0.0162304
0.0237362
0.0300068
0.0353857
0.0400518
0.0441129
0.047628
0.0506264
0.0531211
0.0551207
0.0566358
0.0576784
0.0582619
0.0583911
0.0580664
0.0572865
0.056057
0.0542438
0.0514855
0.047016
0.0390781
0.0199507
0.00817133
0.0188532
0.0270532
0.0337989
0.0395365
0.0444863
0.0487818
0.0524966
0.0556654
0.0583045
0.0604294
0.0620603
0.063215
0.0639144
0.0641682
0.0639761
0.063324
0.0621897
0.0604234
0.0576557
0.0531085
0.0448037
0.0233096
0.00976174
0.0217529
0.0305591
0.037706
0.0437376
0.0489163
0.0533991
0.0572728
0.0605762
0.0633286
0.06555
0.067269
0.068513
0.0693134
0.0696856
0.0696319
0.0691291
0.0681312
0.0664817
0.063818
0.0593853
0.0510817
0.0274244
0.0115685
0.0249517
0.0342842
0.0417491
0.0480149
0.0533813
0.0580192
0.062023
0.0654334
0.0682732
0.0705674
0.0723549
0.07368
0.0745816
0.0750823
0.0751835
0.0748563
0.0740449
0.0726006
0.0701868
0.0661302
0.0585868
0.0358622
0.00616623
0.0116556
0.0153178
0.0173145
0.0189066
0.020877
0.0229128
0.0247405
0.0257364
0.025647
0.024783
0.0242017
0.0234744
0.0218262
0.0192941
0.0164489
0.0129231
0.00833533
0.00307173
0.0126134
0.0260163
0.0337813
0.0389384
0.0428869
0.0471568
0.051519
0.0554469
0.0575979
0.0573593
0.0554224
0.0537444
0.0513242
0.0476772
0.0425655
0.0363022
0.0285053
0.0190188
0.00736686
0.0159922
0.0348439
0.0438799
0.0508629
0.0566566
0.0620917
0.0676301
0.0727537
0.0757898
0.0756665
0.0731923
0.070261
0.0667192
0.0620143
0.0555509
0.0474384
0.0374438
0.0254503
0.0102506
0.0183264
0.041731
0.0522427
0.0594413
0.0665843
0.07294
0.0791891
0.0854182
0.0896852
0.090061
0.087247
0.083292
0.0787827
0.0732554
0.0658383
0.0564274
0.0448532
0.0307873
0.0131749
0.0196712
0.0461463
0.059295
0.0673964
0.0731546
0.0793995
0.0857799
0.0923429
0.0976828
0.0999079
0.09854
0.0943702
0.0892831
0.0831902
0.0752381
0.0649756
0.0519771
0.0355041
0.0148442
0.0207395
0.0493192
0.064943
0.0751761
0.0786756
0.0830964
0.0888658
0.0950633
0.100537
0.104018
0.104603
0.102097
0.0978049
0.0920516
0.0842115
0.0736278
0.0593929
0.0400138
0.0157997
0.0232354
0.0516265
0.0693313
0.0812221
0.0843826
0.0869322
0.0915546
0.0971691
0.102406
0.106093
0.107406
0.106474
0.103711
0.0991497
0.0922077
0.0821063
0.0672546
0.0454158
0.0181801
0.0300149
0.0542761
0.0724053
0.0853754
0.0898741
0.0913933
0.0947886
0.0995695
0.104369
0.108011
0.109746
0.109711
0.108141
0.104818
0.0990087
0.0896099
0.0746649
0.0517881
0.0215402
0.0139809
0.0299156
0.0403105
0.0483185
0.0549239
0.060529
0.0653443
0.0694798
0.0729791
0.0758703
0.0782013
0.080042
0.0814643
0.0825302
0.0832775
0.0837171
0.0837961
0.0834046
0.0824553
0.0806848
0.0776189
0.0724377
0.0624892
0.0181647
0.03823
0.0502677
0.0591212
0.0661573
0.0719403
0.0767937
0.0808842
0.084265
0.0869823
0.0891217
0.0907903
0.0920855
0.093091
0.0938751
0.0944773
0.0949232
0.0951565
0.0950686
0.0944291
0.0927926
0.0896769
0.0861806
0.023181
0.0482218
0.0618397
0.0714741
0.0788404
0.0846625
0.0894092
0.0933127
0.0964247
0.0988234
0.100653
0.102064
0.103165
0.104037
0.104743
0.10532
0.105763
0.106151
0.106414
0.106339
0.105617
0.103972
0.101475
0.0294269
0.0596683
0.0744053
0.0844507
0.0918928
0.0975894
0.102142
0.105804
0.108601
0.110665
0.112212
0.113417
0.114378
0.115176
0.115895
0.116606
0.117335
0.118058
0.118679
0.11902
0.118884
0.118113
0.116856
0.0379154
0.0716293
0.086846
0.096824
0.104008
0.109456
0.113812
0.117237
0.11978
0.12163
0.123056
0.124217
0.125187
0.126059
0.126973
0.128051
0.129284
0.130531
0.131635
0.132503
0.133018
0.13308
0.13279
0.0469508
0.0824196
0.0976455
0.107121
0.113774
0.118879
0.123023
0.126265
0.128707
0.130599
0.132169
0.133536
0.134765
0.135982
0.137359
0.139006
0.140833
0.142634
0.14431
0.145827
0.147094
0.148045
0.148789
0.0523695
0.0901513
0.107093
0.115811
0.121456
0.125827
0.129531
0.132606
0.135113
0.137214
0.139057
0.140759
0.14243
0.144206
0.146219
0.14852
0.150997
0.153496
0.155951
0.158324
0.160536
0.162537
0.164381
0.0488879
0.0952868
0.119505
0.125987
0.129169
0.131928
0.134767
0.137569
0.140151
0.142456
0.144545
0.146541
0.1486
0.150883
0.153475
0.156395
0.159556
0.162849
0.166207
0.169576
0.172878
0.176024
0.178933
0.0429891
0.0887604
0.135429
0.141737
0.138615
0.138241
0.139593
0.14191
0.144554
0.147111
0.149453
0.151687
0.154018
0.156644
0.159656
0.163085
0.16693
0.17107
0.175387
0.179793
0.184214
0.18851
0.19242
0.0354099
0.0800139
0.116577
0.138695
0.142233
0.142282
0.143156
0.145093
0.148145
0.151284
0.154104
0.156678
0.159286
0.162145
0.165432
0.169104
0.173487
0.178479
0.18385
0.189355
0.194905
0.200342
0.205269
0.0324701
0.0752275
0.107709
0.12812
0.136225
0.139998
0.142208
0.144767
0.148054
0.151561
0.154728
0.157578
0.160428
0.163546
0.167238
0.171852
0.177409
0.184019
0.191063
0.197994
0.204843
0.211449
0.217114
0.0357078
0.078172
0.104343
0.122314
0.131049
0.135964
0.139937
0.143566
0.146972
0.150138
0.153159
0.156267
0.159697
0.16359
0.168202
0.173463
0.179254
0.185756
0.192514
0.199553
0.206914
0.214041
0.220193
0.0357508
0.077702
0.100879
0.116707
0.126506
0.133183
0.138361
0.142604
0.146199
0.14931
0.1523
0.155508
0.159128
0.163208
0.167765
0.172882
0.178453
0.184235
0.190335
0.196888
0.203753
0.210411
0.21635
0.0337354
0.0747082
0.0962832
0.111494
0.122305
0.130189
0.136284
0.141098
0.144956
0.148166
0.151154
0.154319
0.157901
0.161927
0.166393
0.171251
0.176309
0.181502
0.186838
0.192367
0.197986
0.203283
0.207885
0.0328456
0.0723715
0.0927611
0.107379
0.11846
0.126912
0.13348
0.138646
0.142789
0.146237
0.149338
0.152492
0.155978
0.15984
0.164016
0.168443
0.172981
0.177492
0.181962
0.186416
0.19075
0.19467
0.197899
0.0328109
0.0710446
0.090391
0.104206
0.114919
0.123365
0.13006
0.135417
0.139795
0.143491
0.14677
0.149958
0.153323
0.156943
0.160749
0.164655
0.168559
0.172366
0.176044
0.179573
0.182853
0.185672
0.187861
0.0327803
0.0698518
0.0882585
0.101239
0.111374
0.119514
0.126118
0.131537
0.136073
0.13997
0.143435
0.146689
0.149943
0.153307
0.156744
0.160179
0.163537
0.166754
0.16979
0.172608
0.175116
0.177169
0.178679
0.032341
0.0681499
0.0856847
0.0979082
0.107466
0.11524
0.121679
0.127094
0.131729
0.135777
0.139394
0.142733
0.145943
0.149126
0.152282
0.155367
0.158328
0.161118
0.163701
0.166034
0.168043
0.169627
0.170757
0.0313455
0.0656735
0.0823753
0.0939471
0.103017
0.110468
0.116748
0.12214
0.126846
0.131018
0.134774
0.138217
0.141455
0.144564
0.147566
0.150443
0.153166
0.1557
0.158013
0.160066
0.161802
0.163152
0.164122
0.0298039
0.0623871
0.0782733
0.0892896
0.0979731
0.105177
0.11134
0.116722
0.121497
0.125788
0.129681
0.133253
0.136576
0.139706
0.14267
0.14547
0.148092
0.150512
0.152706
0.154641
0.156274
0.157557
0.158516
0.0277707
0.058364
0.0734396
0.0839752
0.0923583
0.0993874
0.105481
0.110879
0.115733
0.120144
0.124181
0.127898
0.131344
0.134561
0.137574
0.140393
0.143015
0.145427
0.147609
0.149539
0.15118
0.1525
0.153532
0.0253282
0.0537392
0.0680026
0.0781057
0.0862421
0.0931549
0.0992179
0.104653
0.109595
0.114129
0.118309
0.122177
0.125765
0.129104
0.132217
0.135115
0.137802
0.14027
0.142507
0.144496
0.146209
0.147619
0.148762
0.0225996
0.0486952
0.0621425
0.0718358
0.0797511
0.0865767
0.0926277
0.0981083
0.103137
0.107786
0.112101
0.116111
0.119842
0.123315
0.126548
0.129554
0.132336
0.134893
0.137218
0.139296
0.141106
0.142625
0.143887
0.0199543
0.0434371
0.056081
0.0653712
0.073071
0.079805
0.0858366
0.0913514
0.0964502
0.101195
0.105623
0.109757
0.113616
0.117214
0.120565
0.12368
0.126565
0.12922
0.131639
0.133814
0.135724
0.13735
0.138723
0.017449
0.0383684
0.0501771
0.0590309
0.0664662
0.0730526
0.0790267
0.0845478
0.0896835
0.0944903
0.0989978
0.103224
0.107181
0.110881
0.114332
0.117543
0.12052
0.123263
0.125769
0.12803
0.130031
0.131753
0.133221
0.0151761
0.0337805
0.0447433
0.0531249
0.0602533
0.0666341
0.072486
0.0779326
0.0830426
0.087864
0.0924065
0.0966811
0.100698
0.104463
0.107984
0.111266
0.114312
0.117124
0.119699
0.12203
0.124103
0.125904
0.127452
0.0132597
0.0299101
0.0400494
0.0479322
0.0547099
0.060827
0.066492
0.0718029
0.0768176
0.0815703
0.0860758
0.090346
0.0943756
0.0981633
0.101715
0.105032
0.108117
0.11097
0.113589
0.115967
0.118094
0.119955
0.121565
0.011784
0.0268945
0.0362723
0.0436528
0.0500519
0.055864
0.0612851
0.0663995
0.0712552
0.0758787
0.0802826
0.0844719
0.0884457
0.0922052
0.0957433
0.0990552
0.102143
0.105006
0.10764
0.110039
0.112195
0.114095
0.11575
0.0107604
0.0247452
0.0334617
0.0403672
0.046387
0.051878
0.0570229
0.0618977
0.066545
0.0709875
0.0752355
0.0792917
0.0831544
0.0868207
0.090286
0.0935483
0.0966013
0.099437
0.102054
0.104446
0.106605
0.10852
0.110198
0.0101308
0.0233628
0.0315455
0.0380366
0.0437088
0.0488961
0.0537625
0.0583814
0.0627941
0.0670223
0.0710758
0.0749572
0.0786646
0.0821944
0.0855416
0.0887018
0.0916696
0.0944403
0.0970084
0.0993619
0.101495
0.103399
0.105079
0.00980589
0.0225909
0.0303834
0.0365506
0.0419412
0.0468685
0.0514819
0.0558555
0.0600313
0.0640324
0.0678706
0.0715502
0.0750709
0.0784298
0.0816228
0.084645
0.0874911
0.0901557
0.0926328
0.0949147
0.0969947
0.0988598
0.100514
0.00971375
0.0222865
0.0298438
0.035803
0.0409977
0.0457271
0.0501312
0.0542866
0.0582387
0.0620146
0.06563
0.0690931
0.0724066
0.0755702
0.0785813
0.0814362
0.0841302
0.0866582
0.0890144
0.0911921
0.0931835
0.0949799
0.0965827
0.00979155
0.0223737
0.0298724
0.0357552
0.0408489
0.0454447
0.0496839
0.0536488
0.0573916
0.0609466
0.064336
0.067573
0.070665
0.073615
0.076423
0.0790872
0.0816042
0.0839698
0.0861788
0.0882253
0.0901022
0.0918017
0.0933228
0.010022
0.0228896
0.0305343
0.0364769
0.0415542
0.0460659
0.050166
0.0539507
0.0574852
0.0608142
0.0639682
0.066967
0.0698228
0.0725425
0.0751289
0.0775823
0.079901
0.082082
0.0841211
0.0860131
0.0877517
0.0893299
0.090745
0.0104746
0.0240252
0.0320376
0.038156
0.0432667
0.0477042
0.0516542
0.0552386
0.0585417
0.0616218
0.0645186
0.0672586
0.0698585
0.0723286
0.0746741
0.0768974
0.0789982
0.0809746
0.0828234
0.0845403
0.0861197
0.0875551
0.0888423
0.0113238
0.0261175
0.0347086
0.0410664
0.0461973
0.0505126
0.0542539
0.057581
0.0606023
0.0633907
0.0659944
0.068445
0.0707626
0.0729595
0.0750426
0.0770153
0.0788784
0.0806311
0.0822707
0.0837937
0.0851952
0.0864689
0.0876095
0.0128406
0.0296024
0.0389427
0.0455167
0.0505671
0.0546424
0.0580668
0.0610462
0.0637129
0.0661514
0.0684154
0.0705386
0.0725421
0.0744385
0.0762351
0.0779355
0.079541
0.081051
0.0824635
0.0837754
0.0849822
0.0860778
0.0870557
0.0153801
0.0349989
0.0451693
0.0517943
0.05655
0.0601965
0.0631566
0.0656777
0.0679071
0.0699328
0.0718079
0.0735643
0.0752209
0.076789
0.0782748
0.0796812
0.0810093
0.0822585
0.0834271
0.0845123
0.0855097
0.0864136
0.0872162
0.0194795
0.0429895
0.0538136
0.0600856
0.064201
0.0671771
0.0695136
0.0714712
0.0731912
0.0747521
0.0761984
0.0775557
0.0788384
0.0800546
0.0812086
0.0823023
0.0833359
0.0843087
0.085219
0.0860642
0.0868405
0.0875423
0.0881613
0.0264012
0.0545806
0.0651904
0.0703474
0.0733749
0.0754448
0.077036
0.0783651
0.079538
0.0806094
0.0816085
0.0825512
0.083446
0.0842974
0.0851075
0.0858767
0.0866049
0.087291
0.0879336
0.0885304
0.0890783
0.0895723
0.0900047
0.0408169
0.0712752
0.0791724
0.0821164
0.0836711
0.0847207
0.0855464
0.0862562
0.0868976
0.087494
0.0880573
0.0885937
0.0891062
0.0895963
0.0900642
0.0905099
0.0909326
0.0913316
0.0917057
0.0920534
0.0923726
0.09266
0.0929095
0.0861269
0.0936906
0.0941243
0.0942887
0.0944723
0.094667
0.0948606
0.0950486
0.0952301
0.0954053
0.0955746
0.0957382
0.0958961
0.0960482
0.0961941
0.0963337
0.0964665
0.0965923
0.0967104
0.0968206
0.0969218
0.0970131
0.0970919
0.0530776
0.0471657
0.0419699
0.0385543
0.0832468
0.0810727
0.0786348
0.0762351
0.100004
0.0989257
0.0978243
0.0968486
0.116024
0.115518
0.115162
0.114991
0.132635
0.132613
0.132729
0.13302
0.149394
0.149875
0.150433
0.151089
0.165734
0.166692
0.167659
0.168639
0.180928
0.182291
0.183631
0.184949
0.194908
0.196589
0.198274
0.19996
0.208351
0.210362
0.212322
0.21424
0.220629
0.222851
0.225062
0.227188
0.224269
0.227067
0.229917
0.232127
0.2201
0.222417
0.224683
0.226339
0.210564
0.212056
0.213353
0.214297
0.19958
0.200381
0.200954
0.201267
0.188839
0.189186
0.189312
0.189213
0.179227
0.179317
0.179211
0.178905
0.1711
0.171089
0.170908
0.170554
0.164422
0.164411
0.164256
0.163954
0.158869
0.158917
0.158842
0.158642
0.153988
0.154121
0.154147
0.154064
0.149335
0.149559
0.149686
0.149716
0.144573
0.144881
0.145099
0.145229
0.139506
0.139888
0.140185
0.140401
0.134086
0.134531
0.134897
0.135185
0.128385
0.128883
0.129306
0.129655
0.122552
0.123094
0.123565
0.123966
0.116777
0.117354
0.117863
0.118306
0.111251
0.111852
0.112391
0.112866
0.10614
0.106754
0.10731
0.107807
0.101567
0.102182
0.102743
0.103249
0.0976085
0.0982119
0.0987658
0.0992682
0.0943013
0.0948811
0.0954151
0.0959012
0.0916575
0.0922012
0.0927026
0.0931599
0.0896725
0.0901683
0.0906253
0.0910417
0.088343
0.0887807
0.0891828
0.0895475
0.0876806
0.0880519
0.0883906
0.0886945
0.0877236
0.0880226
0.0882916
0.0885284
0.0885464
0.0887701
0.088967
0.0891343
0.090268
0.0904178
0.090545
0.0906465
0.0930579
0.09314
0.0932062
0.0932535
0.0971378
0.0971625
0.0971812
0.0971926
0.0427001
0.0602851
0.0769237
0.090157
0.0974007
0.0992188
0.101143
0.104419
0.108221
0.111506
0.113616
0.114572
0.114483
0.112909
0.10855
0.099585
0.0846879
0.0621854
0.0272533
0.0739264
0.0794033
0.0894527
0.0999588
0.107786
0.111107
0.112461
0.114136
0.116326
0.1185
0.120316
0.121837
0.12298
0.122803
0.119168
0.110224
0.0955031
0.0734984
0.0363356
0.0957724
0.0983291
0.104926
0.113288
0.120646
0.124638
0.125917
0.12665
0.127386
0.128099
0.128925
0.130104
0.131421
0.131654
0.128546
0.120249
0.106095
0.0841932
0.042735
0.115043
0.116941
0.121263
0.127648
0.13418
0.138557
0.140189
0.14032
0.139901
0.139299
0.138948
0.139228
0.139932
0.139901
0.137094
0.129578
0.1162
0.0941369
0.0479445
0.133793
0.135546
0.138439
0.142766
0.147744
0.151607
0.153348
0.153262
0.152233
0.150838
0.149592
0.148927
0.148713
0.14801
0.145056
0.13792
0.125045
0.102592
0.052394
0.152335
0.154063
0.156165
0.158961
0.162199
0.164836
0.165978
0.165561
0.164187
0.162339
0.160457
0.158902
0.157611
0.155884
0.152218
0.144723
0.131664
0.108502
0.0557799
0.170277
0.172118
0.173867
0.175731
0.177609
0.178949
0.179178
0.178162
0.176298
0.173958
0.171479
0.169079
0.16663
0.163612
0.158731
0.149974
0.13559
0.111114
0.0576699
0.187081
0.189267
0.19105
0.192492
0.193474
0.193752
0.193062
0.191355
0.188851
0.185809
0.182691
0.179622
0.176145
0.17182
0.165575
0.154905
0.138
0.111161
0.0577745
0.202694
0.20543
0.207591
0.209015
0.209481
0.208997
0.207528
0.205181
0.20186
0.197635
0.19369
0.190228
0.185968
0.18068
0.174001
0.160758
0.139804
0.109417
0.0562429
0.217304
0.220626
0.223646
0.225279
0.225319
0.224176
0.221888
0.218823
0.214411
0.207963
0.202309
0.197951
0.191597
0.181595
0.170022
0.155097
0.134673
0.105056
0.0538855
0.230124
0.233665
0.23668
0.237158
0.23568
0.23286
0.229192
0.224248
0.217407
0.208371
0.200154
0.193038
0.1836
0.170796
0.157749
0.142296
0.122358
0.0965972
0.052187
0.234649
0.236739
0.237877
0.236889
0.232908
0.227467
0.221483
0.214349
0.205743
0.196188
0.187454
0.17903
0.169031
0.157102
0.14398
0.128421
0.109086
0.085308
0.0468192
0.227807
0.228374
0.22789
0.225601
0.220905
0.214473
0.207277
0.199376
0.190524
0.181281
0.172721
0.164217
0.154239
0.142162
0.128994
0.113802
0.0957906
0.0731835
0.0402191
0.21506
0.214374
0.212872
0.209993
0.205079
0.198648
0.191457
0.183674
0.175216
0.166635
0.158533
0.150216
0.140183
0.128086
0.115226
0.101107
0.084878
0.065074
0.0347139
0.201259
0.199791
0.197406
0.193951
0.18911
0.183128
0.176448
0.16925
0.161536
0.153714
0.146005
0.137692
0.127761
0.116255
0.104183
0.091293
0.0766531
0.0585474
0.0303547
0.18868
0.186699
0.18382
0.180124
0.175494
0.170043
0.164023
0.157547
0.150669
0.143557
0.136151
0.127911
0.118358
0.107715
0.096564
0.0845977
0.0708314
0.0532545
0.0270424
0.178139
0.176051
0.173111
0.169497
0.16521
0.160314
0.154971
0.149215
0.143074
0.136544
0.129459
0.121496
0.112505
0.10269
0.092273
0.0808607
0.067405
0.0498657
0.0248249
0.169779
0.167878
0.165198
0.161925
0.158099
0.15378
0.149053
0.143922
0.138371
0.132317
0.125597
0.11804
0.109622
0.100465
0.0905638
0.0794462
0.066066
0.0484429
0.0236227
0.163314
0.16176
0.159503
0.156695
0.153382
0.149607
0.145412
0.14079
0.135698
0.130041
0.123689
0.11655
0.108628
0.099952
0.0903932
0.0794555
0.0661327
0.0484916
0.0232198
0.158201
0.157047
0.155251
0.152926
0.1501
0.146802
0.143049
0.138828
0.134093
0.128762
0.12274
0.115969
0.108438
0.100113
0.0908081
0.08004
0.0668609
0.0493399
0.0233075
0.153835
0.153063
0.151693
0.149802
0.1474
0.144498
0.141103
0.137201
0.132751
0.12769
0.12195
0.115485
0.108265
0.100219
0.0911443
0.0805882
0.0676609
0.0504072
0.023602
0.149682
0.149239
0.148231
0.146705
0.144654
0.142079
0.138979
0.135342
0.131135
0.126311
0.120822
0.114625
0.107679
0.0998956
0.0910725
0.080793
0.0682163
0.0513493
0.0239203
0.145363
0.14519
0.144476
0.143248
0.14149
0.139191
0.136349
0.132951
0.128973
0.12438
0.119136
0.113203
0.106533
0.099032
0.090508
0.0805738
0.0684248
0.052026
0.024176
0.140674
0.140719
0.140245
0.139266
0.137757
0.135706
0.133103
0.12994
0.126197
0.121849
0.116867
0.111217
0.104849
0.0976708
0.0894986
0.0799677
0.0682983
0.0524169
0.0243405
0.135576
0.135798
0.135523
0.134757
0.133473
0.131653
0.129288
0.126368
0.122878
0.118799
0.114106
0.108768
0.102736
0.0959186
0.0881405
0.079051
0.0678847
0.0525359
0.0244066
0.130146
0.130516
0.130413
0.129837
0.128761
0.127168
0.125043
0.122378
0.11916
0.115371
0.110992
0.105993
0.100323
0.0938941
0.0865331
0.0778981
0.067232
0.0524082
0.0243753
0.124542
0.125038
0.125087
0.124684
0.123805
0.122431
0.120548
0.118145
0.11521
0.111728
0.107678
0.103031
0.0977356
0.0917017
0.0847587
0.0765677
0.066377
0.05205
0.0242493
0.118955
0.119557
0.119738
0.119493
0.118797
0.117634
0.115987
0.113845
0.111195
0.10802
0.1043
0.100002
0.0950744
0.089424
0.082879
0.0751024
0.0653474
0.051483
0.0240367
0.113572
0.11426
0.114554
0.114447
0.113917
0.112949
0.111525
0.109631
0.107253
0.104372
0.100966
0.0970001
0.0924172
0.0871214
0.0809391
0.073534
0.0641667
0.0507241
0.0237462
0.108552
0.109304
0.109687
0.109696
0.10931
0.108513
0.107288
0.105619
0.10349
0.100879
0.0977593
0.094093
0.0898193
0.0848379
0.078973
0.0718901
0.0628589
0.0497937
0.0234014
0.104014
0.104804
0.10525
0.105347
0.105076
0.104421
0.103366
0.101891
0.0999777
0.0976019
0.0947327
0.0913271
0.0873199
0.082607
0.0770108
0.0701996
0.0614549
0.048746
0.0229903
0.100033
0.100831
0.10131
0.101465
0.101277
0.100731
0.0998103
0.0984938
0.0967594
0.0945799
0.0919204
0.088733
0.0849479
0.0804577
0.0750825
0.0684967
0.0600077
0.0476288
0.0225032
0.0966424
0.0974202
0.0979021
0.0980815
0.0979421
0.0974694
0.0966455
0.0954491
0.0938549
0.0918322
0.0893421
0.0863319
0.0827272
0.0784179
0.0732267
0.0668327
0.0585577
0.0464684
0.0219563
0.0938557
0.0945818
0.0950342
0.0952043
0.0950774
0.0946405
0.093876
0.0927617
0.09127
0.0893668
0.0870092
0.0841405
0.080683
0.0765233
0.0714823
0.0652443
0.0571477
0.045313
0.0213862
0.0916721
0.0923178
0.0927076
0.0928323
0.0926793
0.0922394
0.0914961
0.0904274
0.0890038
0.0871876
0.0849317
0.0821753
0.0788367
0.0747992
0.0698827
0.063775
0.0558298
0.0442172
0.0208241
0.0900942
0.0906322
0.0909268
0.0909675
0.090746
0.0902599
0.089498
0.0884393
0.087052
0.0852941
0.083114
0.0804463
0.0772054
0.0732715
0.0684627
0.0624692
0.0546561
0.0432366
0.0203118
0.089142
0.0895474
0.0897131
0.0896254
0.0892829
0.0886988
0.087874
0.0867893
0.0854088
0.0836846
0.0815591
0.078962
0.0758038
0.0719616
0.0672516
0.061364
0.0536713
0.0424188
0.0198794
0.0888656
0.089118
0.089121
0.0888494
0.088311
0.0875594
0.0866183
0.0854694
0.0840681
0.0823564
0.0802684
0.077728
0.0746416
0.0708834
0.0662676
0.0604831
0.0529044
0.0417971
0.0195591
0.0893574
0.0894473
0.0892584
0.0887304
0.0878716
0.0868481
0.0857233
0.08447
0.0830227
0.0813057
0.0792411
0.0767455
0.0737213
0.0700402
0.0655147
0.0598315
0.0523631
0.0413827
0.0193622
0.0907639
0.0907062
0.0903198
0.0894462
0.0880201
0.0865599
0.08517
0.0837749
0.0822624
0.080527
0.0784743
0.0760122
0.073039
0.069425
0.0649815
0.0593937
0.0520297
0.041161
0.0192949
0.0932912
0.0931484
0.0926382
0.0913697
0.0887791
0.0866372
0.0849099
0.0833554
0.0817723
0.0800131
0.0779637
0.0755233
0.0725867
0.0690232
0.0646446
0.0591355
0.051861
0.0410882
0.0193432
0.0971938
0.0970984
0.0967421
0.0954324
0.0899111
0.0868823
0.084844
0.0831672
0.0815342
0.0797573
0.077707
0.0752766
0.0723588
0.0688225
0.0644802
0.0590172
0.0517982
0.0410904
0.0194587
)
;

boundaryField
{
    leftWall
    {
        type            kqRWallFunction;
        value           nonuniform List<scalar> 
50
(
0.00129176
0.00291705
0.0042052
0.00548033
0.0067718
0.00817133
0.00976174
0.0115685
0.0139809
0.0181647
0.023181
0.0294269
0.0379154
0.0469508
0.0523695
0.0488879
0.0429891
0.0354099
0.0324701
0.0357078
0.0357508
0.0337354
0.0328456
0.0328109
0.0327803
0.032341
0.0313455
0.0298039
0.0277707
0.0253282
0.0225996
0.0199543
0.017449
0.0151761
0.0132597
0.011784
0.0107604
0.0101308
0.00980589
0.00971375
0.00979155
0.010022
0.0104746
0.0113238
0.0128406
0.0153801
0.0194795
0.0264012
0.0408169
0.0861269
)
;
    }
    rightWall
    {
        type            kqRWallFunction;
        value           nonuniform List<scalar> 
50
(
0.00307173
0.00736686
0.0102506
0.0131749
0.0148442
0.0157997
0.0181801
0.0215402
0.0272533
0.0363356
0.042735
0.0479445
0.052394
0.0557799
0.0576699
0.0577745
0.0562429
0.0538855
0.052187
0.0468192
0.0402191
0.0347139
0.0303547
0.0270424
0.0248249
0.0236227
0.0232198
0.0233075
0.023602
0.0239203
0.024176
0.0243405
0.0244066
0.0243753
0.0242493
0.0240367
0.0237462
0.0234014
0.0229903
0.0225032
0.0219563
0.0213862
0.0208241
0.0203118
0.0198794
0.0195591
0.0193622
0.0192949
0.0193432
0.0194587
)
;
    }
    lowerWall
    {
        type            kqRWallFunction;
        value           nonuniform List<scalar> 
62
(
0.00129176
0.00379524
0.00602667
0.00788821
0.00948602
0.0109165
0.0122044
0.0133477
0.0143383
0.0151643
0.0158094
0.0162592
0.0165014
0.0165206
0.0162946
0.0158083
0.0151977
0.0144875
0.0136162
0.0124833
0.0108484
0.00802775
0.00318732
0.00318732
0.00842766
0.0126706
0.0164945
0.0199507
0.0233096
0.0274244
0.0358622
0.0530776
0.0471657
0.0419699
0.0385543
0.00616623
0.0126134
0.0159922
0.0183264
0.0196712
0.0207395
0.0232354
0.0300149
0.00616623
0.0116556
0.0153178
0.0173145
0.0189066
0.020877
0.0229128
0.0247405
0.0257364
0.025647
0.024783
0.0242017
0.0234744
0.0218262
0.0192941
0.0164489
0.0129231
0.00833533
0.00307173
)
;
    }
    atmosphere
    {
        type            inletOutlet;
        inletValue      uniform 0.1;
        value           nonuniform List<scalar> 
46
(
0.1
0.1
0.1
0.1
0.1
0.1
0.1
0.1
0.1
0.1
0.1
0.1
0.1
0.1
0.1
0.1
0.1
0.1
0.1
0.1
0.1
0.1
0.1
0.1
0.1
0.1
0.1
0.1
0.1
0.1
0.1
0.0899111
0.0868823
0.084844
0.0831672
0.0815342
0.0797573
0.077707
0.0752766
0.0723588
0.0688225
0.0644802
0.0590172
0.0517982
0.0410904
0.0194587
)
;
    }
    defaultFaces
    {
        type            empty;
    }
}


// ************************************************************************* //
