/*--------------------------------*- C++ -*----------------------------------*\
  =========                 |
  \\      /  F ield         | OpenFOAM: The Open Source CFD Toolbox
   \\    /   O peration     | Website:  https://openfoam.org
    \\  /    A nd           | Version:  13
     \\/     M anipulation  |
\*---------------------------------------------------------------------------*/
FoamFile
{
    format      ascii;
    class       volScalarField;
    location    "1.5";
    object      nut;
}
// * * * * * * * * * * * * * * * * * * * * * * * * * * * * * * * * * * * * * //

dimensions      [0 2 -1 0 0 0 0];

internalField   nonuniform List<scalar> 
2268
(
2.41133e-05
4.12331e-05
5.18185e-05
5.91684e-05
6.48482e-05
6.95485e-05
7.35466e-05
7.69402e-05
7.97785e-05
8.20854e-05
8.38632e-05
8.51093e-05
8.58165e-05
8.59517e-05
8.54371e-05
8.4174e-05
8.23679e-05
8.01814e-05
7.74422e-05
7.38619e-05
6.85624e-05
5.88242e-05
3.82969e-05
7.63131e-05
0.000316623
0.000447102
0.000539107
0.000610939
0.000669514
0.000718247
0.000758679
0.000791605
0.000817492
0.000836582
0.000848982
0.000854633
0.000853077
0.00084319
0.00082279
0.000783656
0.000732521
0.000674183
0.000610347
0.000538466
0.000442795
0.000129195
9.14948e-05
0.000492931
0.000772872
0.000982396
0.00114905
0.00128622
0.00140072
0.00149581
0.00157311
0.00163351
0.00167742
0.00170497
0.0017159
0.00170923
0.00168266
0.00163233
0.00155073
0.00144575
0.00132394
0.00118655
0.00102188
0.000768515
0.000157422
0.000104399
0.000589511
0.000989672
0.00130495
0.00156267
0.00177766
0.00195806
0.00210809
0.00222998
0.00232502
0.00239394
0.00243714
0.0024545
0.00244507
0.00240638
0.00233453
0.00222409
0.00208125
0.0019107
0.00170904
0.00144917
0.00102335
0.000179146
0.000116077
0.000651918
0.00113972
0.00154205
0.00187993
0.0021658
0.00240721
0.00260849
0.00277219
0.00289999
0.00299315
0.00305257
0.00307853
0.0030705
0.00302648
0.00294317
0.00281646
0.00264978
0.00244394
0.00218769
0.00183487
0.00123764
0.000197312
0.000127363
0.000703367
0.00125394
0.00172682
0.00213341
0.00248174
0.00277767
0.00302512
0.00322676
0.00338469
0.0035008
0.00357676
0.00361328
0.00361047
0.00356692
0.00348014
0.00334669
0.003167
0.00293702
0.00263612
0.0021974
0.00143574
0.000213327
0.00013906
0.00074962
0.00135134
0.00188393
0.00234965
0.00275225
0.00309578
0.00338369
0.00361878
0.00380365
0.00394094
0.00403316
0.00408151
0.00408665
0.00404779
0.00396327
0.00383009
0.00364571
0.0034014
0.00306752
0.00255777
0.00164591
0.00023215
0.000151327
0.000802335
0.00145144
0.00203571
0.00255165
0.003
0.00338352
0.00370542
0.00396878
0.00417677
0.00433281
0.00444014
0.00450074
0.00451561
0.00448437
0.00440624
0.00427845
0.00409614
0.00384669
0.00349446
0.00294121
0.00191868
0.00026896
5.17157e-05
7.03133e-05
8.03261e-05
8.59095e-05
9.00159e-05
9.44786e-05
9.91464e-05
0.000103788
0.000106493
0.000106779
0.000105559
0.000104871
0.000103655
0.000100384
9.47538e-05
8.74243e-05
7.67036e-05
6.09951e-05
3.62385e-05
0.000174698
0.000494281
0.000632582
0.000707532
0.000752275
0.000809398
0.000871556
0.000946211
0.00100615
0.00103358
0.00103768
0.00107118
0.00107013
0.00104818
0.000996863
0.00090246
0.000743784
0.000514676
0.000133742
0.00019669
0.0007986
0.00109911
0.00125863
0.00138251
0.00151482
0.00165161
0.00180236
0.00193222
0.0020154
0.00205982
0.00211155
0.00211837
0.00207563
0.00196231
0.00175228
0.0014048
0.000891103
0.000158354
0.000210099
0.00103912
0.00148615
0.00170655
0.00188513
0.00207563
0.00227085
0.00247428
0.00265487
0.002792
0.00288287
0.00295068
0.00296379
0.00290416
0.00273873
0.00243246
0.00192839
0.00116552
0.000179685
0.000218761
0.00123081
0.00182266
0.00212463
0.00231544
0.00253099
0.00276211
0.00299646
0.00320997
0.00338954
0.00352293
0.00361413
0.00363764
0.00356961
0.00336807
0.00298933
0.00235701
0.0013669
0.000191728
0.000229747
0.0013805
0.0021171
0.00253101
0.00272826
0.0029432
0.00319025
0.00344078
0.00366982
0.00387059
0.0040314
0.00414811
0.00418741
0.00411972
0.00389697
0.00346558
0.00272769
0.0015097
0.00019955
0.000250978
0.00147475
0.00237332
0.00290024
0.00314133
0.00335565
0.00360626
0.00386389
0.00409924
0.00430456
0.0044731
0.00460313
0.00465712
0.00459092
0.00435558
0.00388823
0.00307316
0.00167355
0.000215278
0.000290917
0.00153819
0.00261202
0.00325009
0.00355785
0.00377789
0.00402679
0.00428293
0.00451724
0.00472061
0.00488912
0.00501965
0.00507761
0.00501042
0.00476407
0.00426849
0.0033991
0.0018991
0.000235097
0.000166586
0.000904002
0.00163494
0.00229195
0.00287292
0.00337818
0.00381041
0.00417338
0.00447104
0.00470768
0.00488797
0.00501629
0.0050958
0.00512805
0.00511325
0.00505169
0.00494042
0.00477034
0.00452703
0.00417346
0.00362297
0.00270425
0.00129205
0.000190374
0.00111251
0.00200029
0.00275868
0.00340387
0.00395137
0.00441373
0.0048002
0.0051175
0.00537177
0.00556919
0.00571534
0.00581422
0.00586792
0.0058768
0.00583953
0.00575518
0.00561926
0.00541898
0.00512804
0.00470132
0.00408844
0.00334543
0.000215641
0.00139768
0.00247039
0.0033251
0.00401549
0.00458142
0.0050502
0.00543891
0.00575777
0.00601496
0.00621822
0.00637418
0.00648743
0.00656041
0.00659372
0.00658643
0.00653522
0.00644128
0.00629793
0.00609235
0.00581168
0.00545889
0.00506103
0.000243495
0.00172607
0.0029757
0.00391179
0.00463744
0.00521382
0.00568162
0.00606589
0.00638031
0.00663529
0.00684026
0.00700292
0.00712817
0.00721901
0.0072769
0.0073023
0.00729477
0.00725267
0.00717295
0.00705123
0.00688581
0.00668107
0.00645759
0.000276134
0.00199858
0.00342114
0.00443678
0.00519693
0.00578807
0.00626062
0.00664455
0.00695864
0.00721437
0.00742333
0.00759432
0.00773243
0.00784139
0.00792392
0.00798192
0.00801568
0.00802323
0.00800129
0.00794792
0.00786395
0.00775497
0.007635
0.000305804
0.00219292
0.00375368
0.00484073
0.00564481
0.00626323
0.00675099
0.00714292
0.00746248
0.0077258
0.00794516
0.00812987
0.00828436
0.00841382
0.00852196
0.00861135
0.00868182
0.00873089
0.00875633
0.00875758
0.00873573
0.00869515
0.00864564
0.000317814
0.002267
0.00391852
0.00506418
0.00593
0.00659865
0.00712035
0.00753528
0.00787295
0.00815304
0.00838881
0.00859011
0.00876443
0.00891699
0.00905117
0.00916992
0.00927306
0.00935863
0.0094251
0.00947195
0.00949957
0.00951042
0.00951017
0.000304338
0.00222509
0.00390385
0.00508846
0.00603747
0.00678554
0.00736353
0.00781766
0.00818588
0.00849205
0.00875097
0.00897345
0.0091685
0.00934349
0.00950164
0.00964657
0.00977892
0.0098973
0.00999997
0.0100855
0.0101529
0.010202
0.0102342
0.000285121
0.00171098
0.00356732
0.00495615
0.00599299
0.00684152
0.00749348
0.00799841
0.00840636
0.00874683
0.00903539
0.00928344
0.0095011
0.00969707
0.00987577
0.0100423
0.0102003
0.0103485
0.0104834
0.0106015
0.0107001
0.0107763
0.0108276
0.000257915
0.00146069
0.00305845
0.00452615
0.00575223
0.0067719
0.00752298
0.00808715
0.00854282
0.0089251
0.00924904
0.00952653
0.00976913
0.00998575
0.0101829
0.0103653
0.0105434
0.0107178
0.0108824
0.0110288
0.011152
0.011247
0.0113086
0.000253755
0.00163652
0.00312555
0.00449739
0.00568097
0.00668177
0.00747153
0.00808814
0.00858542
0.00900441
0.00935833
0.00965988
0.00992285
0.010157
0.0103727
0.0105819
0.0107887
0.0109986
0.0111993
0.0113747
0.0115205
0.0116306
0.0116945
0.000271557
0.00200671
0.0033938
0.00466253
0.00574413
0.00666957
0.00744178
0.00807527
0.00859715
0.00903394
0.00940336
0.00972246
0.0100066
0.0102663
0.0105128
0.0107501
0.0109773
0.0111984
0.0114019
0.011582
0.0117361
0.0118519
0.0119159
0.000272678
0.00214304
0.00358635
0.00479529
0.00582889
0.00670969
0.00745735
0.00808575
0.00861332
0.00905678
0.00943429
0.00976435
0.0100623
0.010338
0.0105977
0.0108464
0.0110829
0.0113008
0.0114977
0.0116738
0.0118241
0.0119364
0.012
0.000263904
0.00215364
0.00367233
0.0048818
0.00589927
0.00675546
0.00748311
0.00810028
0.00862158
0.00906224
0.00944009
0.00977356
0.0100777
0.0103611
0.0106295
0.0108849
0.011123
0.0113393
0.0115314
0.0116986
0.0118367
0.0119357
0.0119885
0.000257667
0.00212858
0.0037029
0.00492935
0.00593964
0.00678037
0.00748978
0.00809074
0.00860004
0.00903421
0.00940955
0.00974379
0.0100512
0.0103396
0.0106123
0.0108701
0.0111091
0.011324
0.011512
0.011672
0.0118
0.0118885
0.0119335
0.000255515
0.00210409
0.0037089
0.00494653
0.00594486
0.00676917
0.00745978
0.00804277
0.00853805
0.00896362
0.00933619
0.00967145
0.00998146
0.0102729
0.0105479
0.0108058
0.0110436
0.0112571
0.0114435
0.0116007
0.0117248
0.0118101
0.0118546
0.00025438
0.00208218
0.00369627
0.0049327
0.00591506
0.00671785
0.00738623
0.00794997
0.00843143
0.00884928
0.00921956
0.00955552
0.00986697
0.0101597
0.0104353
0.0106929
0.0109301
0.0111439
0.0113316
0.0114906
0.011617
0.0117064
0.0117576
0.000252365
0.00205516
0.00366046
0.00488334
0.00584447
0.00662315
0.0072688
0.00781413
0.00828293
0.00869382
0.00906155
0.00939747
0.00970966
0.0100029
0.0102788
0.0105367
0.0107748
0.0109909
0.0111824
0.0113467
0.01148
0.0115786
0.0116417
0.000248543
0.0020165
0.0035967
0.00479558
0.00573128
0.00648516
0.00710928
0.00763813
0.00809602
0.00850093
0.00886634
0.00920211
0.00951504
0.00980916
0.010086
0.0103454
0.010586
0.010806
0.0110032
0.0111749
0.0113176
0.0114281
0.0115056
0.000242652
0.00196298
0.00350325
0.00466953
0.00557689
0.00630647
0.00691126
0.00742622
0.00787539
0.00827586
0.00863991
0.00897618
0.00929054
0.00958648
0.00986552
0.0101277
0.0103722
0.0105974
0.0108013
0.0109814
0.0111346
0.011258
0.011351
0.000234643
0.00189421
0.00338123
0.00450796
0.00538521
0.00609186
0.00668006
0.00718408
0.0076271
0.0080251
0.00838924
0.0087272
0.00904408
0.00934299
0.00962541
0.0098916
0.0101409
0.0103721
0.0105833
0.0107723
0.0109364
0.0110728
0.0111812
0.000224571
0.00181118
0.00323345
0.00431546
0.00516202
0.00584797
0.0064227
0.00691893
0.00735849
0.00775615
0.00812202
0.00846295
0.00878347
0.00908639
0.00937315
0.00964414
0.00989893
0.0101365
0.0103552
0.0105531
0.0107278
0.0108769
0.011
0.000212639
0.00171402
0.00306279
0.00409779
0.00491505
0.00558329
0.00614793
0.00663952
0.00707821
0.00747753
0.00784663
0.00819166
0.0085167
0.00882434
0.00911598
0.00939213
0.00965255
0.00989642
0.0101224
0.0103288
0.0105135
0.0106743
0.0108109
0.00020021
0.00159396
0.00287014
0.00386157
0.00465389
0.00530843
0.00586643
0.00635637
0.00679647
0.00719909
0.00757254
0.00792241
0.00825243
0.00856503
0.00886161
0.00914277
0.00940848
0.00965814
0.00989067
0.0101046
0.010298
0.0104691
0.0106175
0.000187577
0.00147253
0.00267523
0.00362466
0.00439349
0.00503662
0.00559097
0.00608214
0.0065254
0.0069324
0.00731078
0.00766567
0.00800058
0.00831783
0.00861884
0.00890434
0.00917447
0.00942884
0.00966662
0.00988657
0.010087
0.0102664
0.0104245
0.000175154
0.00136238
0.00249555
0.00340593
0.00415445
0.00478858
0.00534056
0.00583245
0.00627897
0.00669077
0.00707402
0.00743345
0.00777252
0.00809349
0.00839784
0.00868641
0.00895953
0.009217
0.00945824
0.00968224
0.00988761
0.0100729
0.010238
0.000163775
0.00127233
0.00234594
0.00322282
0.00395463
0.00458203
0.00513284
0.00562618
0.00607541
0.00648992
0.00687613
0.00723885
0.00758074
0.00790382
0.0082098
0.00849959
0.0087737
0.00903215
0.00927456
0.00950017
0.00970785
0.00989636
0.0100655
0.000154298
0.00120724
0.00223685
0.00308903
0.00380914
0.00443258
0.00498337
0.00547835
0.0059296
0.00634578
0.0067331
0.00709604
0.00743775
0.00776066
0.00806599
0.00835455
0.00862714
0.00888392
0.00912477
0.00934914
0.00955615
0.00974478
0.00991481
0.00014727
0.00116807
0.00217283
0.00301213
0.00372751
0.00435087
0.00490343
0.00540046
0.00585315
0.00626973
0.00665629
0.00701733
0.00735617
0.00767527
0.00797632
0.00826063
0.00852875
0.00878079
0.00901696
0.0092369
0.00943998
0.0096254
0.00979299
0.000142728
0.00115248
0.00215258
0.00299302
0.00371276
0.0043414
0.00489861
0.00539885
0.00585287
0.00626879
0.0066528
0.00700965
0.00734291
0.00765532
0.00794886
0.008225
0.0084847
0.00872853
0.0089567
0.00916877
0.0093645
0.00954326
0.00970494
0.000140303
0.00115661
0.00217161
0.00302837
0.00376291
0.00440354
0.00496937
0.00547469
0.00593032
0.00634469
0.00672443
0.00707473
0.00739966
0.00770235
0.00798516
0.00824987
0.00849771
0.00872952
0.00894572
0.00914639
0.00933142
0.00950011
0.0096525
0.00013958
0.00117729
0.00222628
0.00311478
0.00387514
0.00453463
0.005113
0.00562498
0.00608212
0.00649366
0.00686705
0.00720825
0.00752197
0.00781188
0.00808082
0.00833091
0.00856372
0.00878034
0.00898146
0.00916741
0.00933823
0.00949365
0.00963371
0.000140245
0.00121444
0.00231736
0.00325229
0.00404772
0.00473146
0.00532439
0.00584278
0.00629974
0.00670596
0.00707011
0.00739915
0.0076986
0.00797274
0.0082249
0.00845757
0.00867265
0.00887146
0.00905495
0.00922368
0.00937788
0.00951752
0.00964267
0.000142205
0.00127232
0.00244974
0.00344311
0.00427931
0.00498844
0.00559424
0.00611572
0.00656846
0.00696519
0.00731614
0.00762944
0.00791145
0.00816705
0.0084
0.00861311
0.00880852
0.00898779
0.00915203
0.009302
0.00943812
0.00956055
0.00966942
0.000145914
0.00135729
0.00262744
0.00368559
0.00456271
0.0052938
0.00590693
0.00642514
0.00686735
0.00724888
0.00758181
0.00787547
0.00813697
0.0083717
0.00858368
0.00877595
0.00895077
0.00910982
0.00925433
0.00938519
0.00950295
0.00960793
0.00970034
0.000152412
0.00146907
0.00284203
0.0039674
0.00488353
0.00563094
0.00624348
0.00674977
0.00717335
0.00753276
0.00784214
0.008112
0.00835007
0.00856198
0.00875187
0.00892278
0.00907698
0.00921614
0.00934151
0.00945401
0.00955429
0.00964276
0.0097197
0.000162907
0.00159527
0.00307603
0.0042758
0.00523196
0.00598959
0.00659132
0.00707452
0.00746924
0.0077981
0.00807745
0.0083188
0.00853021
0.00871732
0.00888409
0.0090334
0.00916733
0.00928741
0.00939482
0.00949041
0.00957484
0.00964854
0.00971184
0.000178436
0.00172615
0.00333049
0.00462268
0.00562091
0.00637808
0.00695322
0.00739763
0.00775016
0.00803801
0.00827948
0.00848661
0.00866734
0.00882693
0.00896896
0.00909589
0.00920947
0.00931098
0.00940139
0.00948143
0.00955164
0.00961243
0.00966414
0.00020027
0.0018774
0.00365103
0.00506002
0.00609129
0.00682302
0.00734516
0.00772893
0.00802284
0.00825773
0.0084526
0.00861907
0.0087643
0.0088928
0.00900744
0.00911014
0.00920222
0.00928461
0.00935801
0.00942292
0.00947975
0.00952879
0.0095703
0.000231862
0.0020968
0.00413876
0.00567907
0.00669988
0.00735412
0.00778305
0.0080795
0.00829785
0.00846874
0.00860937
0.00872946
0.00883463
0.00892822
0.00901224
0.009088
0.00915633
0.00921781
0.00927284
0.00932172
0.00936465
0.00940179
0.00943326
0.000286263
0.00249921
0.00500464
0.00661575
0.00749818
0.00798222
0.00826672
0.00845038
0.00858075
0.00868121
0.00876365
0.00883436
0.00889674
0.00895275
0.0090035
0.00904968
0.0090917
0.00912984
0.00916427
0.00919511
0.00922241
0.00924619
0.00926646
0.000417968
0.00372126
0.00685694
0.00805353
0.00848729
0.00867309
0.00876911
0.0088276
0.00886828
0.00889959
0.00892548
0.00894791
0.00896793
0.00898611
0.00900276
0.00901807
0.00903215
0.00904506
0.00905684
0.00906749
0.00907702
0.00908539
0.00909258
0.000335322
0.00032062
0.000305053
0.000294576
0.00273182
0.00252656
0.00241846
0.00238256
0.00478552
0.00462055
0.00450141
0.0044352
0.00630822
0.00621211
0.0061355
0.00608457
0.00755603
0.00750514
0.00746375
0.00743525
0.00861303
0.00859127
0.00857362
0.00856176
0.00950777
0.00950379
0.0095001
0.00949745
0.0102488
0.0102539
0.0102568
0.0102579
0.0108486
0.0108563
0.0108608
0.0108626
0.0113309
0.0113375
0.0113401
0.0113397
0.0117131
0.0117157
0.0117152
0.0117119
0.0119335
0.0119384
0.0119403
0.0119342
0.0120112
0.0120105
0.0120046
0.0119906
0.0119911
0.0119844
0.0119706
0.0119494
0.0119312
0.0119205
0.0119017
0.0118751
0.0118535
0.0118427
0.0118232
0.0117952
0.0117633
0.0117564
0.0117402
0.0117148
0.0116582
0.0116581
0.0116482
0.0116289
0.0115353
0.0115436
0.0115422
0.0115312
0.0113945
0.0114121
0.0114202
0.011419
0.0112386
0.0112656
0.0112837
0.0112928
0.0110706
0.0111068
0.0111345
0.0111539
0.0108935
0.010938
0.0109746
0.0110035
0.0107103
0.010762
0.0108065
0.0108438
0.0105254
0.010583
0.0106339
0.0106781
0.0103448
0.0104069
0.0104626
0.0105121
0.0101758
0.0102406
0.0102996
0.0103528
0.0100262
0.0100921
0.0101526
0.0102077
0.00990285
0.0099682
0.0100285
0.0100837
0.00981075
0.00987389
0.00993232
0.00998597
0.0097519
0.00981128
0.00986627
0.0099168
0.00972464
0.00977893
0.00982913
0.00987519
0.00972344
0.0097716
0.00981599
0.00985654
0.00973906
0.00978045
0.0098184
0.00985286
0.00975876
0.00979328
0.00982471
0.009853
0.00976767
0.00979581
0.00982121
0.00984382
0.00975078
0.00977346
0.00979376
0.00981167
0.00969564
0.0097139
0.0097302
0.00974453
0.00959553
0.00961017
0.00962328
0.00963488
0.00945247
0.00946366
0.00947376
0.00948283
0.00927891
0.00928618
0.00929279
0.00929877
0.009097
0.00909958
0.00910192
0.00910402
0.00066808
0.00181813
0.00300455
0.00377767
0.00421247
0.00446549
0.00471211
0.00495825
0.00518161
0.00537248
0.00552901
0.00564571
0.00569254
0.00561548
0.00534628
0.00480364
0.00386794
0.00229095
0.00026422
0.00255806
0.00316423
0.00398081
0.00466993
0.00513689
0.00542345
0.00564324
0.0058448
0.0060224
0.00617081
0.00629158
0.00637724
0.00639698
0.00629309
0.00598725
0.00539201
0.00437342
0.00260718
0.000305146
0.00443465
0.00471119
0.00519941
0.00571365
0.00612457
0.00640302
0.00658581
0.00673285
0.00685127
0.00694137
0.00700667
0.00704013
0.00701212
0.00686726
0.00652827
0.0058985
0.00481027
0.0028767
0.000332123
0.00605085
0.00618203
0.00645833
0.00679874
0.00711078
0.00734165
0.00748718
0.0075771
0.0076341
0.00766268
0.00766586
0.00763755
0.00755149
0.00735846
0.00698574
0.00632647
0.0051794
0.0031054
0.000352489
0.00741359
0.00748237
0.00763644
0.00784204
0.00804794
0.00820772
0.00830288
0.00834027
0.00834043
0.00831076
0.00825365
0.00816335
0.0080174
0.00777348
0.00736361
0.00667318
0.00547397
0.00328419
0.000369115
0.00855371
0.00859136
0.00867196
0.00878154
0.00889365
0.00897726
0.00901342
0.0090003
0.0089492
0.00886675
0.00875405
0.00860506
0.00840081
0.00810536
0.00765486
0.00692944
0.00568241
0.00340062
0.0003814
0.00949582
0.00951263
0.00954436
0.00958479
0.00962063
0.00963401
0.00961135
0.00954847
0.00944899
0.00931755
0.00915337
0.0089495
0.00868973
0.00834387
0.00785089
0.00708519
0.00579022
0.00344128
0.000388003
0.0102577
0.010259
0.0102568
0.0102464
0.0102215
0.0101739
0.0100959
0.00998423
0.00983743
0.00965792
0.00944441
0.00918909
0.00887791
0.00848704
0.00795605
0.00714804
0.00580362
0.00341102
0.000388089
0.0108612
0.0108517
0.0108262
0.0107776
0.0107042
0.0106045
0.0104753
0.0103159
0.0101213
0.00989129
0.00962742
0.0093218
0.00896023
0.0085281
0.00797152
0.00711558
0.00572211
0.0033179
0.000382302
0.0113344
0.0113176
0.0112778
0.0111968
0.0110813
0.0109352
0.0107568
0.0105493
0.0103084
0.0100223
0.0097039
0.00934817
0.00892692
0.0084126
0.00777226
0.00687612
0.00548744
0.0031623
0.0003709
0.0116981
0.0116683
0.0116
0.0114723
0.0113103
0.0111156
0.0108896
0.0106329
0.010338
0.00999215
0.00960533
0.00917317
0.00866932
0.00807152
0.00737128
0.00644798
0.00507866
0.00291431
0.000370783
0.0119091
0.0118434
0.0117351
0.0115714
0.0113585
0.0111147
0.0108412
0.0105319
0.0101784
0.00977624
0.00932828
0.00883262
0.00827888
0.0076506
0.00691094
0.00594799
0.00456768
0.00252861
0.00036551
0.0119518
0.0118617
0.0117211
0.0115288
0.0112872
0.0110063
0.0106932
0.0103397
0.00993853
0.00948706
0.00899173
0.00845323
0.00785542
0.00717307
0.00637843
0.00537043
0.0039805
0.0020661
0.000338054
0.0119023
0.0117903
0.0116319
0.0114217
0.011159
0.0108537
0.0105094
0.0101191
0.0096769
0.00918432
0.00865052
0.00807314
0.00742652
0.00668429
0.0058291
0.00478755
0.00345239
0.0018105
0.000311426
0.0118203
0.0116963
0.0115234
0.0112992
0.0110238
0.0107013
0.0103319
0.00991197
0.00943811
0.00891377
0.00834584
0.00772672
0.00703156
0.00623832
0.00533346
0.00427726
0.00302499
0.00160654
0.000288754
0.0117378
0.0116085
0.0114286
0.0111976
0.0109149
0.010581
0.0101944
0.0097547
0.00926088
0.00871522
0.00811947
0.00746386
0.00672839
0.00589585
0.00495752
0.00389846
0.00271145
0.00143147
0.000268766
0.011661
0.0115356
0.0113576
0.0111277
0.0108446
0.0105076
0.0101153
0.00966865
0.00916737
0.00861149
0.00799868
0.00731916
0.00655772
0.00570162
0.00474585
0.00368922
0.00253895
0.00132765
0.000253163
0.0115841
0.0114709
0.0113037
0.0110838
0.0108098
0.0104805
0.0100953
0.00965493
0.00915845
0.00860403
0.00798717
0.00729889
0.00652749
0.00566333
0.0047028
0.00364744
0.00250538
0.00130378
0.000243006
0.0114995
0.0114054
0.0112572
0.0110561
0.0108008
0.01049
0.0101231
0.00969995
0.00921874
0.00867634
0.00806737
0.00738372
0.00661572
0.00575478
0.00479578
0.0037371
0.00258097
0.00134551
0.00023823
0.0114031
0.0113331
0.0112099
0.0110346
0.0108055
0.0105212
0.0101805
0.00978217
0.00932371
0.00880117
0.00820886
0.00753915
0.00678303
0.00593136
0.00497601
0.00390971
0.00272564
0.00142954
0.000237377
0.011294
0.0112506
0.0111559
0.0110101
0.0108115
0.0105579
0.0102475
0.00987821
0.00944684
0.00894894
0.00837856
0.00772805
0.00698815
0.0061483
0.00519682
0.00412013
0.00290146
0.00153264
0.000238521
0.0111722
0.0111556
0.0110899
0.0109747
0.0108075
0.0105856
0.0103066
0.00996781
0.00956534
0.0090943
0.00854837
0.00791951
0.00719765
0.00637042
0.00542263
0.00433464
0.00308021
0.00163762
0.000240215
0.011038
0.0110467
0.0110085
0.0109222
0.0107851
0.0105939
0.0103455
0.0100367
0.0096631
0.00921936
0.00869861
0.00809213
0.0073888
0.00657437
0.00563036
0.00453182
0.00324433
0.00173408
0.000241721
0.0108926
0.0109238
0.0109103
0.0108503
0.0107406
0.0105775
0.0103577
0.0100772
0.00973132
0.0093141
0.00881807
0.0082337
0.00754871
0.00674703
0.00580733
0.00470026
0.00338484
0.0018172
0.000242773
0.0107392
0.0107895
0.010797
0.0107598
0.0106742
0.0105362
0.0103421
0.0100876
0.00976743
0.00937515
0.0089026
0.0083394
0.00767212
0.00688306
0.00594848
0.00483559
0.00349838
0.00188491
0.00024331
0.0105829
0.0106485
0.0106733
0.010655
0.0105897
0.0104734
0.0103018
0.0100704
0.00977348
0.00940397
0.0089531
0.00840966
0.00775913
0.00698242
0.00605382
0.00493791
0.00358501
0.00193708
0.00024333
0.0104305
0.0105075
0.0105456
0.0105422
0.0104935
0.010395
0.0102426
0.0100311
0.00975445
0.00940513
0.00897371
0.00844821
0.0078132
0.00704834
0.0061264
0.00500992
0.00364657
0.00197393
0.000242852
0.0102896
0.0103738
0.0104211
0.0104286
0.0103924
0.0103081
0.0101712
0.0099762
0.00971672
0.00938473
0.00897023
0.00846059
0.00783956
0.00708582
0.00617087
0.00505569
0.00368599
0.00199683
0.000241905
0.0101669
0.0102543
0.0103066
0.0103209
0.0102934
0.0102195
0.0100944
0.00991247
0.00966689
0.00934921
0.00894895
0.00845289
0.00784411
0.00710048
0.0061925
0.00507982
0.00370666
0.00200697
0.000240533
0.0100675
0.010154
0.0102074
0.0102248
0.0102021
0.0101349
0.0100181
0.00984581
0.00961091
0.00930455
0.0089158
0.00843097
0.00783258
0.00709786
0.00619645
0.00508694
0.00371216
0.00200536
0.000238829
0.00999394
0.0100759
0.0101266
0.0101434
0.0101222
0.0100583
0.00994647
0.00978072
0.0095535
0.00925563
0.00887581
0.00839992
0.00781004
0.00708288
0.00618744
0.00508148
0.00370648
0.00199783
0.000236967
0.00994555
0.0100196
0.0100646
0.0100778
0.010055
0.00999147
0.00988193
0.00971998
0.00949783
0.00920597
0.00883275
0.0083637
0.00778053
0.00705962
0.00616942
0.00506732
0.00369571
0.0019888
0.000234708
0.00991827
0.00998201
0.010019
0.0100262
0.0099996
0.00993433
0.00982488
0.00966462
0.00944547
0.00915761
0.00878906
0.00832505
0.00774696
0.00703111
0.00614624
0.00504951
0.00368214
0.00197817
0.000232097
0.00990485
0.00995686
0.00998445
0.00998451
0.00995292
0.00988464
0.00977399
0.00961408
0.00939652
0.00911118
0.00874585
0.00828555
0.00771163
0.00700036
0.00612033
0.00502866
0.00366611
0.00196646
0.000229299
0.00989517
0.00993543
0.00995366
0.00994665
0.0099101
0.00983874
0.00972664
0.00956663
0.00935007
0.00906656
0.00870364
0.00824614
0.00767535
0.00696756
0.00609155
0.00500468
0.00364771
0.0019541
0.000226464
0.00987705
0.009907
0.00991747
0.00990512
0.00986528
0.00979227
0.00967971
0.00952014
0.00930472
0.00902285
0.00866184
0.00820636
0.00763765
0.00693216
0.00605916
0.00497671
0.0036262
0.00194096
0.000223802
0.00983763
0.00985996
0.0098658
0.0098517
0.00981232
0.00974088
0.00963023
0.00947262
0.00925915
0.00897917
0.00861985
0.00816572
0.00759804
0.00689351
0.00602215
0.00494336
0.00360014
0.00192637
0.000221474
0.00976523
0.00978323
0.00978858
0.00977814
0.00974562
0.00968131
0.00957648
0.00942324
0.00921305
0.0089355
0.00857781
0.00812446
0.0075567
0.00685158
0.00598009
0.00490358
0.00356796
0.00190923
0.000219656
0.00965185
0.00966813
0.00967686
0.00967671
0.00966115
0.00961248
0.00951897
0.00937318
0.0091678
0.00889328
0.0085372
0.00808409
0.0075152
0.00680789
0.00593423
0.00485801
0.00352936
0.0018888
0.000218431
0.00949636
0.00951127
0.00952458
0.00954031
0.00955786
0.00953694
0.00946135
0.00932607
0.00912672
0.00885558
0.00850101
0.0080477
0.00747688
0.00676613
0.0058885
0.00481028
0.00348674
0.00186543
0.000217859
0.00930779
0.00931873
0.00933242
0.00936266
0.00944161
0.00946332
0.00941115
0.00928785
0.00909465
0.00882663
0.00847326
0.0080195
0.00744655
0.00673205
0.00584967
0.00476779
0.00344653
0.00184176
0.000217907
0.00910712
0.00911077
0.00911659
0.00914187
0.00933717
0.00941042
0.00937982
0.00926577
0.00907677
0.00881073
0.00845803
0.00800388
0.00742944
0.00671229
0.00582634
0.00474105
0.00341946
0.00182381
0.000218306
)
;

boundaryField
{
    leftWall
    {
        type            nutkWallFunction;
        Cmu             0.09;
        kappa           0.41;
        E               9.8;
        value           nonuniform List<scalar> 
50
(
2.72085e-06
7.82272e-06
9.23878e-06
1.04217e-05
1.1563e-05
1.4227e-05
1.63416e-05
1.76831e-05
1.93046e-05
2.17849e-05
2.43725e-05
2.71939e-05
3.05481e-05
3.3726e-05
3.5462e-05
3.44272e-05
3.27272e-05
3.09974e-05
3.11079e-05
2.95394e-05
2.95619e-05
2.85011e-05
2.8019e-05
2.79994e-05
2.79828e-05
2.77427e-05
2.71917e-05
2.63185e-05
2.51269e-05
2.36279e-05
2.18529e-05
2.00116e-05
1.81349e-05
1.62945e-05
1.46166e-05
1.32277e-05
1.2205e-05
1.15481e-05
1.12e-05
1.11001e-05
1.11845e-05
1.14322e-05
1.19096e-05
1.27744e-05
1.42316e-05
1.64659e-05
1.96667e-05
2.4296e-05
3.20876e-05
4.94066e-05
)
;
    }
    rightWall
    {
        type            nutkWallFunction;
        Cmu             0.09;
        kappa           0.41;
        E               9.8;
        value           nonuniform List<scalar> 
50
(
4.08709e-06
1.33647e-05
1.57305e-05
1.83619e-05
2.0624e-05
2.23433e-05
2.36254e-05
2.54576e-05
2.84095e-05
3.27387e-05
3.54265e-05
3.73554e-05
3.88271e-05
3.99508e-05
4.03611e-05
4.03161e-05
3.97724e-05
3.80007e-05
4.18628e-05
3.94632e-05
3.61e-05
3.30527e-05
3.04415e-05
2.83129e-05
2.68021e-05
2.59493e-05
2.56556e-05
2.57189e-05
2.59312e-05
2.6159e-05
2.63407e-05
2.64571e-05
2.65038e-05
2.64818e-05
2.63927e-05
2.6242e-05
2.60347e-05
2.57869e-05
2.54886e-05
2.51312e-05
2.47246e-05
2.42947e-05
2.38644e-05
2.34665e-05
2.31261e-05
2.28713e-05
2.27135e-05
2.26594e-05
2.26982e-05
2.27909e-05
)
;
    }
    lowerWall
    {
        type            nutkWallFunction;
        Cmu             0.09;
        kappa           0.41;
        E               9.8;
        value           nonuniform List<scalar> 
62
(
2.72085e-06
4.45599e-06
5.50155e-06
6.21887e-06
6.76345e-06
7.2098e-06
7.58504e-06
7.90042e-06
8.16195e-06
8.37258e-06
8.53275e-06
8.64234e-06
8.70067e-06
8.70528e-06
8.65091e-06
8.53248e-06
8.38096e-06
8.20048e-06
7.97233e-06
7.66343e-06
7.18932e-06
6.26877e-06
4.11482e-06
4.11482e-06
1.26763e-05
1.52621e-05
1.72103e-05
1.8769e-05
2.01488e-05
2.16995e-05
2.45249e-05
3.00608e-05
2.9534e-05
3.20131e-05
3.07978e-05
5.58128e-06
1.68325e-05
1.87559e-05
1.99673e-05
2.06837e-05
2.23873e-05
2.44857e-05
2.87085e-05
5.58128e-06
7.45229e-06
8.43967e-06
9.00237e-06
9.40844e-06
9.84416e-06
1.026e-05
1.06144e-05
1.08065e-05
1.07743e-05
1.05574e-05
1.04515e-05
1.03255e-05
1.00132e-05
9.47076e-06
8.78185e-06
7.86803e-06
6.44329e-06
4.08709e-06
)
;
    }
    atmosphere
    {
        type            calculated;
        value           nonuniform List<scalar> 
46
(
0.009
0.009
0.009
0.009
0.009
0.009
0.009
0.009
0.009
0.009
0.009
0.009
0.009
0.009
0.009
0.009
0.009
0.009
0.009
0.009
0.009
0.009
0.009
0.009
0.009
0.009
0.009
0.009
0.009
0.009
0.009
0.00933717
0.00941042
0.00937982
0.00926577
0.00907677
0.00881073
0.00845803
0.00800388
0.00742944
0.00671229
0.00582634
0.00474105
0.00341946
0.00182381
0.000218306
)
;
    }
    defaultFaces
    {
        type            empty;
    }
}


// ************************************************************************* //
