/*--------------------------------*- C++ -*----------------------------------*\
  =========                 |
  \\      /  F ield         | OpenFOAM: The Open Source CFD Toolbox
   \\    /   O peration     | Website:  https://openfoam.org
    \\  /    A nd           | Version:  13
     \\/     M anipulation  |
\*---------------------------------------------------------------------------*/
FoamFile
{
    format      ascii;
    class       volScalarField;
    location    "1.5";
    object      p;
}
// * * * * * * * * * * * * * * * * * * * * * * * * * * * * * * * * * * * * * //

dimensions      [1 -1 -2 0 0 0 0];

internalField   nonuniform List<scalar> 
2268
(
4524.01
4538.13
4564.94
4601.4
4645.3
4698.66
4764.24
4844.39
4940.75
5054.3
5185.37
5333.8
5499.1
5679.7
5872.64
6074.34
6281.08
6490.01
6696.05
6891.18
7063.08
7190.32
7274.32
3725.89
3737.72
3761.47
3796.62
3839.64
3891.77
3955.56
4033.56
4127.72
4239.39
4369.2
4517.36
4683.78
4867.27
5065.12
5273.89
5489.45
5708.22
5923.71
6126.16
6300.54
6415.95
6490.3
2926.35
2939.62
2960.56
2993.19
3034.06
3083.95
3145.18
3220.39
3311.87
3421.35
3549.83
3697.75
3865.59
4052.51
4255.88
4472.31
4696.81
4925.31
5149.52
5357.56
5533.06
5643.79
5725.37
2124.35
2141.83
2160.66
2190.43
2228.16
2274.93
2333.04
2405.13
2493.83
2601.34
2728.7
2876.73
3046.58
3237.67
3447.06
3671.02
3903.11
4139.68
4370.88
4583.09
4760.53
4876.1
4978.55
1368.11
1389.85
1405.15
1427.18
1455.03
1491.15
1538.64
1600.82
1681.64
1784.75
1909.81
2056.24
2227.17
2422.5
2638.33
2870.1
3108.95
3352.81
3590.25
3806.2
3988.01
4116.53
4249.19
954.238
965.661
971.623
979.322
989.28
1003.32
1023.19
1050.8
1088.55
1139.07
1206.06
1304.03
1438.25
1615.67
1832.05
2070.56
2315.05
2566.42
2810.68
3030.46
3218.91
3366.72
3534.05
860.104
863.015
862.904
862.731
862.856
863.691
865.271
867.626
870.799
875.005
883.723
910.978
960.051
1038.36
1149.96
1308.23
1523.52
1782.68
2035.6
2258
2452.54
2622.3
2831.01
799.479
802.626
803.275
803.407
803.769
804.757
806.504
809.107
812.567
816.903
822.052
825.839
829.412
833.512
842.021
879.564
971.843
1116.83
1292.16
1490.12
1684.4
1862.94
2114.54
3654.02
3312.77
3076.03
2848.03
2674.53
2507.21
2343.95
2213.85
2120.96
2051.15
2014.31
2020.75
2043.99
2067.86
2082.8
2094.27
2092.65
2091.25
2079.3
2975.91
2602.24
2385.39
2256.31
2132.28
1963.53
1788.76
1665.16
1583.59
1541.9
1525.3
1510.72
1512.96
1525.45
1540.94
1541.81
1530.04
1540.3
1562.64
2331.32
2013.23
1866.77
1676.74
1527.22
1382.44
1260.62
1180.8
1129.56
1126.94
1149.45
1149.75
1158.42
1169.93
1180.43
1167.27
1142.47
1139.37
1175.66
1725.11
1536.73
1555.21
1336.77
1177.61
1089.63
1039.24
996.376
962.88
945.447
932.179
935.793
951.382
973.995
976.99
969.186
951.972
927.696
930.044
1177.1
1112.78
1256.92
1186.64
1068.55
1006.53
969.374
938.086
910.066
878.071
842.089
823.485
818.389
825.971
822.999
815.886
814.484
806.182
801.411
830.845
893.911
1006.95
1057.94
994.905
941.989
907.873
879.261
854.142
825.397
798.907
772.125
753.367
739.126
727.233
712.628
718.836
733.956
737.801
704.537
807.196
879.318
939.447
920.383
875.147
844.033
817.206
792.561
765.789
743.258
720.783
702.549
689.065
674.996
662.491
667.861
684.466
694.055
635.92
726.198
785.903
839.599
843.345
803.942
776.737
752.823
729.683
704.712
683.513
664.295
648.719
636.163
625.678
623.276
630.56
640.676
650.448
703.763
706.668
707.862
708.334
708.94
709.993
711.635
714.014
717.171
721.015
725.438
729.839
734.307
739.359
746.124
752.65
756.481
765.564
802.8
876.372
953.992
1009.29
1028.21
572.946
574.56
575.53
576.098
576.956
578.205
579.931
582.319
585.325
588.769
592.476
596.436
600.712
605.275
609.736
612.7
613.612
611.087
602.521
583.714
553.208
514.334
477.548
442.839
440.837
440.332
440.874
442.207
443.92
446.002
448.831
452.281
455.749
459.066
462.669
466.955
471.586
475.467
477.378
477.189
474.809
468.866
457.389
439.647
415.441
385.221
316.346
307.339
305.02
306.225
308.573
310.844
313.858
318.265
322.442
326.263
329.728
333.578
337.888
342.44
346.158
347.69
347.373
346.339
343.14
335.777
324.321
309.895
294.542
201.206
194.733
196.131
199.784
203.447
206.486
210.685
215.911
220.747
224.791
228.794
232.821
236.628
240.104
243.166
245.507
247.079
247.814
246.716
243.186
237.794
231.828
227.453
119.231
115.797
119.432
125.036
130.75
136.109
141.661
146.756
151.934
156.64
161.13
165.15
168.782
171.922
174.848
177.964
180.722
181.894
181.329
179.721
177.807
176.13
175.187
64.2382
54.702
53.2842
58.5906
65.0644
71.8539
78.6435
83.9454
88.9048
93.9901
98.7063
102.956
106.745
110.429
114.191
117.636
120.038
121.179
121.464
121.108
120.091
118.776
117.967
26.6998
16.1135
13.8862
16.2407
18.8906
21.2577
24.0467
27.2694
30.4817
33.7163
36.9192
40.1826
43.4685
46.8945
50.3786
53.4805
55.8157
57.6082
58.6484
58.9721
58.7943
58.4275
58.4292
10.5686
7.43315
6.20484
5.36694
4.99785
4.85926
4.90661
5.76563
6.64608
7.62067
8.70296
9.9299
11.2616
12.6337
13.9191
15.0399
15.8069
16.0762
15.9642
15.6304
15.2379
14.8853
14.1703
5.89894
5.51486
5.23038
5.04985
4.95924
4.90104
4.85601
4.76881
4.67377
4.60871
4.54816
4.47715
4.38921
4.25259
4.09357
3.80969
3.73615
3.74408
3.69027
3.60719
3.51793
3.39442
3.23907
4.79673
4.84281
4.85685
4.85222
4.81389
4.77199
4.73954
4.70639
4.67585
4.64433
4.60168
4.54325
4.47149
4.37998
4.26144
4.12371
3.9533
3.76636
3.60856
3.46131
3.30427
3.144
2.91202
4.54104
4.54086
4.61643
4.65904
4.64992
4.62771
4.59535
4.56613
4.52939
4.49045
4.44183
4.38064
4.30886
4.23008
4.13868
4.04938
3.96249
3.87578
3.78046
3.66805
3.53647
3.38734
3.21043
4.43325
4.43197
4.46853
4.49532
4.49465
4.4787
4.45588
4.42309
4.3857
4.34518
4.29529
4.23587
4.16558
4.08703
4.008
3.91805
3.8265
3.72659
3.61265
3.49012
3.35637
3.21298
3.05268
4.31745
4.31965
4.33661
4.34971
4.34904
4.33695
4.31598
4.28685
4.25142
4.21055
4.16247
4.10579
4.03751
3.96048
3.87599
3.7891
3.69135
3.58055
3.46423
3.34195
3.21157
3.07699
2.92958
4.19157
4.193
4.20113
4.20723
4.20536
4.19513
4.17707
4.15104
4.11743
4.07672
4.0312
3.97735
3.91399
3.84202
3.76183
3.67427
3.57764
3.4717
3.35855
3.23857
3.11211
2.98475
2.84816
4.05819
4.05837
4.06181
4.06401
4.06089
4.05138
4.03514
4.01161
3.98047
3.94182
3.89709
3.84681
3.78949
3.72396
3.65013
3.56859
3.47776
3.37705
3.26745
3.15059
3.02822
2.90689
2.77731
3.91977
3.91861
3.91951
3.9194
3.91537
3.90615
3.89112
3.86971
3.84148
3.80612
3.764
3.71654
3.66399
3.60363
3.53531
3.45911
3.37382
3.27848
3.17363
3.06129
2.94388
2.82826
2.70433
3.77748
3.7754
3.77486
3.77337
3.76872
3.7597
3.74565
3.72604
3.70044
3.66851
3.63039
3.58654
3.53695
3.48059
3.41689
3.3455
3.26528
3.17532
3.07589
2.96898
2.85713
2.74706
2.62862
3.63222
3.62973
3.62837
3.62606
3.62105
3.61228
3.59911
3.58103
3.55764
3.52864
3.4939
3.45349
3.40728
3.35465
3.29525
3.22838
3.15305
3.06844
2.97466
2.87357
2.76761
2.66316
2.55017
3.48468
3.4822
3.48046
3.47771
3.47254
3.46407
3.45171
3.43499
3.41351
3.38696
3.35514
3.3179
3.27502
3.22611
3.17072
3.10819
3.03765
2.9583
2.87021
2.77508
2.67515
2.57636
2.46924
3.33541
3.3333
3.3315
3.32855
3.32337
3.31524
3.30364
3.28813
3.26833
3.24393
3.21465
3.18029
3.14058
3.09517
3.04359
2.98525
2.91935
2.84516
2.76271
2.67352
2.57964
2.48657
2.38527
3.18498
3.18345
3.18181
3.17883
3.17374
3.16598
3.15509
3.14065
3.12233
3.0998
3.07278
3.04101
3.00422
2.96207
2.91412
2.85979
2.79839
2.72923
2.65229
2.56896
2.48108
2.39364
2.29837
3.03388
3.03303
3.03168
3.02877
3.02383
3.01645
3.0062
2.99272
2.97569
2.9548
2.92977
2.90033
2.86621
2.82708
2.78253
2.73203
2.67495
2.61064
2.53908
2.46148
2.37953
2.29774
2.2084
2.8824
2.88231
2.88127
2.87852
2.8738
2.86678
2.8571
2.84446
2.82855
2.80909
2.78582
2.75847
2.72677
2.69042
2.64905
2.60217
2.5492
2.48955
2.42318
2.35118
2.27505
2.19885
2.11564
2.73078
2.73131
2.73062
2.72811
2.72366
2.71701
2.70787
2.69596
2.68103
2.66282
2.64109
2.61559
2.58609
2.5523
2.51388
2.4704
2.42131
2.36611
2.30473
2.23812
2.16762
2.09691
2.01959
2.57904
2.58004
2.57969
2.57747
2.57333
2.56709
2.55848
2.54724
2.53316
2.51605
2.49568
2.47184
2.44432
2.41287
2.37718
2.33687
2.29146
2.24047
2.18383
2.12236
2.05729
1.99183
1.9203
2.42718
2.42849
2.42845
2.42656
2.42277
2.41694
2.40883
2.39821
2.38493
2.36878
2.34962
2.32727
2.30156
2.27225
2.2391
2.20175
2.15979
2.11277
2.06063
2.00407
1.94418
1.88382
1.81778
2.27511
2.2766
2.27686
2.2753
2.27187
2.26645
2.25881
2.24877
2.23621
2.22097
2.20293
2.18193
2.15786
2.13054
2.09975
2.06518
2.02645
1.98319
1.9353
1.88341
1.8285
1.77305
1.71244
2.12277
2.12434
2.12484
2.12362
2.12055
2.1155
2.1083
2.0988
2.08691
2.07252
2.05551
2.0358
2.01328
1.98781
1.95921
1.92726
1.89161
1.8519
1.80806
1.76063
1.71046
1.65978
1.60428
1.97008
1.97167
1.97236
1.97143
1.96869
1.96398
1.95718
1.94819
1.93693
1.92333
1.90732
1.88883
1.8678
1.84412
1.81764
1.78817
1.75542
1.71909
1.67912
1.63596
1.59036
1.54427
1.49372
1.81699
1.81854
1.81937
1.81867
1.81618
1.81177
1.80533
1.79681
1.78615
1.77332
1.75828
1.74099
1.72142
1.69949
1.67509
1.64805
1.61812
1.58505
1.54877
1.5097
1.46854
1.427
1.38108
1.66336
1.66487
1.66578
1.66525
1.66295
1.65879
1.65268
1.6446
1.63452
1.62244
1.60836
1.59226
1.57415
1.55396
1.53163
1.507
1.47986
1.44998
1.41731
1.38223
1.34535
1.30831
1.267
1.50912
1.51056
1.51152
1.5111
1.50895
1.50499
1.49918
1.49151
1.482
1.47067
1.45756
1.44268
1.42604
1.40762
1.38736
1.36513
1.34076
1.31405
1.28494
1.25377
1.22103
1.18808
1.15187
1.35426
1.35563
1.35661
1.35623
1.35418
1.35037
1.34482
1.33755
1.32861
1.31805
1.30594
1.29231
1.27719
1.26056
1.2424
1.2226
1.201
1.17742
1.15182
1.12448
1.09583
1.06701
1.03555
1.19881
1.20011
1.20105
1.20067
1.19866
1.19497
1.18965
1.18278
1.17443
1.16469
1.15363
1.1413
1.12775
1.11297
1.09693
1.07956
1.06072
1.04025
1.0181
0.994517
0.969847
0.945081
0.9181
1.0428
1.04401
1.04489
1.04446
1.04245
1.03886
1.03378
1.02733
1.01962
1.01076
1.00081
0.989851
0.977916
0.965019
0.951137
0.936201
0.920092
0.902671
0.883894
0.863953
0.84315
0.822302
0.799652
0.88627
0.887378
0.88816
0.887669
0.885651
0.882164
0.877353
0.871376
0.864373
0.856454
0.847702
0.838177
0.827918
0.816938
0.805216
0.792694
0.779267
0.764814
0.749296
0.732867
0.715753
0.698643
0.68006
0.729289
0.730258
0.730942
0.730381
0.728346
0.724972
0.720474
0.71505
0.708848
0.701975
0.694504
0.686487
0.677953
0.66891
0.65934
0.64919
0.638372
0.626783
0.614384
0.60129
0.587687
0.574087
0.559324
0.571889
0.57265
0.573224
0.572546
0.570459
0.567221
0.563122
0.558372
0.553106
0.547405
0.541323
0.534892
0.528131
0.52104
0.513602
0.505772
0.497476
0.488629
0.479201
0.469281
0.458987
0.448708
0.43754
0.413983
0.414405
0.414843
0.413925
0.411718
0.408687
0.405153
0.401278
0.397141
0.392782
0.388225
0.383481
0.378556
0.373447
0.368135
0.362583
0.356737
0.350533
0.34395
0.337045
0.329916
0.32282
0.315133
0.255656
0.254566
0.255125
0.254003
0.251803
0.249259
0.246616
0.243915
0.241156
0.238334
0.235446
0.232489
0.229461
0.226353
0.223153
0.219834
0.216362
0.212695
0.208822
0.204782
0.200629
0.196499
0.192055
0.0899124
0.0833346
0.0864778
0.0865062
0.0855136
0.0844323
0.0833969
0.0823897
0.0813922
0.0803937
0.0793881
0.0783724
0.0773445
0.0763015
0.0752379
0.0741448
0.0730088
0.0718156
0.0705596
0.0692518
0.0679128
0.0665558
0.0650642
840.527
726.073
675.786
654.523
464.162
474.812
500.187
507.692
365.204
362.794
371.764
379.608
289.324
290.45
294.904
298.829
227.098
227.923
229.655
232.256
174.198
173.379
173.636
174.779
117.783
117.412
117.226
117.025
57.7143
57.2443
56.9318
56.6978
10.3539
8.96804
9.50557
11.5847
2.79027
2.49976
2.32896
2.45403
2.59359
2.37062
2.19734
2.10129
2.98414
2.75572
2.50848
2.31293
2.8009
2.56374
2.31762
2.13655
2.69798
2.46963
2.22332
2.03659
2.6323
2.41166
2.16856
1.98057
2.56909
2.35467
2.11772
1.93342
2.50314
2.29546
2.06557
1.88655
2.43478
2.23462
2.01318
1.84018
2.36475
2.17312
1.96063
1.79425
2.29297
2.1107
1.90829
1.74882
2.21891
2.04673
1.85468
1.70271
2.14199
1.98022
1.7995
1.65546
2.06242
1.91142
1.74194
1.60618
1.98009
1.83991
1.68212
1.55459
1.89449
1.7651
1.61862
1.4995
1.80513
1.68617
1.55123
1.44058
1.71229
1.60345
1.47946
1.37729
1.61619
1.51703
1.40387
1.30991
1.51693
1.42702
1.32401
1.23816
1.41466
1.33347
1.24043
1.16248
1.31003
1.23716
1.15342
1.08317
1.20327
1.13856
1.06394
1.00098
1.09581
1.03829
0.971921
0.91605
0.986517
0.936028
0.877701
0.828313
0.875886
0.832243
0.78158
0.738605
0.764005
0.726981
0.683872
0.647057
0.650718
0.620084
0.584156
0.553356
0.535876
0.511313
0.482448
0.457493
0.419684
0.400916
0.378714
0.359418
0.302617
0.289389
0.273623
0.259661
0.185071
0.177246
0.167597
0.158562
0.0630338
0.0605562
0.0573933
0.0540618
613.93
618.796
641.338
675.182
699.403
684.414
667.311
650.015
629.896
606.307
587.201
572.686
562.379
557.31
559.46
568.608
577.967
584.214
591.684
498.985
477.213
473.758
483.797
505.195
522.12
521.12
511.533
497.847
485.671
476.556
470.235
467.659
471.068
482.236
496.861
507.616
515.021
523.657
383.777
377.618
369.871
365.15
373.394
391.578
397.97
397.131
396.113
397.639
397.445
396.55
398.492
405.099
416.219
428.796
439.732
450.498
464.416
300.75
305.434
304.791
302.422
304.464
310.009
314.687
318.384
322.813
325.841
327.087
328.559
332.495
339.781
349.964
361.323
373.143
387.886
407.527
238.601
241.096
240.901
240.411
242.288
247.315
250.513
251.908
253.046
254.816
256.452
259.124
264.222
271.963
281.725
292.723
305.674
323.697
348.088
177.295
178.559
178.017
177.16
177.486
178.946
180.035
180.628
181.452
183.183
185.026
188.375
194.493
202.868
212.419
222.99
236.113
255.739
283.839
116.785
115.964
114.418
112.968
111.575
110.028
108.132
107.185
107.967
109.987
110.285
113.584
121.048
129.543
137.693
148.213
162.608
182.348
212.846
57.1795
55.7425
54.1448
52.1312
48.6811
44.4717
39.6831
34.8859
35.5342
37.5892
36.4838
38.1094
43.7064
48.6388
52.2813
60.5002
75.8534
98.4254
133.79
15.839
15.4306
14.7353
13.8505
11.3438
8.60703
6.2999
3.54944
3.51054
4.30429
4.29875
4.72936
5.95476
6.67504
6.86824
9.23356
15.1462
27.4468
55.6421
2.68898
2.03351
1.91545
1.95603
2.04308
2.08324
2.13642
2.18284
2.18981
2.23958
2.32754
2.45731
2.71273
3.04436
3.28801
3.57946
3.96612
4.01139
10.7147
2.07361
2.12715
2.08054
2.03167
1.99395
1.97445
1.9832
2.00969
2.02417
2.03669
2.0737
2.1526
2.27896
2.42292
2.51141
2.52915
2.56033
2.51445
2.82305
2.12305
2.04609
1.9785
1.92153
1.8793
1.86263
1.86603
1.88527
1.89649
1.91676
1.95458
2.0223
2.10843
2.21348
2.27071
2.23587
2.14775
2.06628
2.14551
1.98788
1.91655
1.87043
1.8116
1.77717
1.75969
1.7542
1.75731
1.76774
1.79823
1.84118
1.89183
1.94459
1.9976
2.0226
2.01897
1.99316
1.94848
2.0045
1.88083
1.82707
1.77135
1.72291
1.68895
1.66705
1.65202
1.64224
1.65062
1.67797
1.72185
1.7576
1.78627
1.81228
1.84546
1.86771
1.8764
1.87609
1.89294
1.81586
1.75567
1.70212
1.65292
1.61553
1.58881
1.56955
1.55755
1.56073
1.58112
1.61134
1.63953
1.66413
1.69048
1.7181
1.74005
1.75669
1.76655
1.7673
1.76952
1.70446
1.647
1.59443
1.55305
1.52235
1.5006
1.48783
1.48704
1.49866
1.51849
1.54012
1.56159
1.58329
1.60677
1.62958
1.65048
1.66711
1.67246
1.7264
1.65857
1.5984
1.54291
1.4982
1.46415
1.43977
1.42477
1.42015
1.42555
1.43827
1.45433
1.47212
1.49177
1.51346
1.53534
1.55538
1.56931
1.57098
1.68434
1.61545
1.55367
1.49616
1.4488
1.41184
1.38474
1.36696
1.35853
1.35878
1.3658
1.37723
1.39177
1.40909
1.42865
1.44846
1.46583
1.47657
1.47567
1.64339
1.57421
1.51164
1.45277
1.40335
1.36384
1.33394
1.31308
1.30085
1.29646
1.29859
1.30569
1.31671
1.33102
1.34767
1.36479
1.37964
1.38834
1.38678
1.60291
1.53413
1.47132
1.41164
1.36066
1.31896
1.28635
1.26235
1.24641
1.23779
1.2355
1.23843
1.24573
1.25663
1.27009
1.28436
1.29676
1.3038
1.30241
1.56249
1.49442
1.43183
1.37181
1.31974
1.27621
1.24115
1.21417
1.19476
1.18227
1.17592
1.1749
1.17847
1.18587
1.19607
1.20741
1.21745
1.22312
1.22206
1.52109
1.45425
1.39229
1.33237
1.27958
1.23469
1.19755
1.16793
1.1454
1.12942
1.1194
1.1147
1.1147
1.11868
1.12567
1.1342
1.14206
1.14652
1.14592
1.47824
1.4128
1.35185
1.29247
1.23948
1.1936
1.15482
1.123
1.09778
1.07877
1.0655
1.05747
1.05417
1.05494
1.05893
1.06481
1.07067
1.07417
1.07395
1.4329
1.36928
1.30969
1.25129
1.19854
1.15217
1.11225
1.07872
1.05134
1.02979
1.01374
1.0028
0.996548
0.994427
0.995672
0.999172
1.00325
1.00588
1.00601
1.38461
1.32299
1.26513
1.20811
1.15607
1.10972
1.06919
1.03449
1.00548
0.981935
0.96361
0.950223
0.941431
0.936779
0.935619
0.936983
0.939483
0.941408
0.941764
1.33252
1.27339
1.21761
1.16239
1.11151
1.06567
1.02507
0.989755
0.959664
0.934663
0.914586
0.899235
0.88835
0.881564
0.878337
0.877883
0.87901
0.880274
0.88081
1.27653
1.2201
1.16675
1.11371
1.06443
1.0196
0.979423
0.944031
0.913406
0.887486
0.866176
0.849349
0.836822
0.82831
0.823386
0.821378
0.821343
0.822059
0.822633
1.21627
1.16294
1.11235
1.06184
1.01457
0.971183
0.931927
0.896957
0.866312
0.839984
0.81794
0.800113
0.786384
0.776548
0.770264
0.767016
0.766001
0.766188
0.766759
1.15195
1.10192
1.05436
1.00671
0.9618
0.920261
0.882357
0.84827
0.818078
0.791819
0.769508
0.751128
0.736617
0.725837
0.718535
0.714284
0.712471
0.712209
0.712682
1.0836
1.03714
0.992871
0.948339
0.906103
0.866761
0.830593
0.797799
0.768487
0.742729
0.720577
0.702056
0.687151
0.675778
0.667751
0.662766
0.660298
0.65959
0.660014
1.01171
0.968864
0.928053
0.886855
0.847543
0.810692
0.77659
0.745446
0.717388
0.692515
0.670905
0.652616
0.637667
0.626021
0.617555
0.612023
0.609043
0.60804
0.608332
0.936603
0.897251
0.860111
0.822413
0.786228
0.752108
0.720349
0.69116
0.664681
0.641027
0.620297
0.602571
0.587892
0.57626
0.567605
0.561769
0.558447
0.55715
0.557302
0.858966
0.822326
0.789254
0.755202
0.722284
0.691086
0.661895
0.634916
0.610292
0.588147
0.568593
0.551726
0.537614
0.526279
0.517692
0.511725
0.508178
0.506655
0.506588
0.777528
0.745904
0.715992
0.685444
0.655865
0.627717
0.601274
0.576722
0.554197
0.533823
0.515716
0.499979
0.486695
0.475897
0.467565
0.461638
0.457948
0.456196
0.455942
0.694258
0.666733
0.640291
0.613312
0.58713
0.562145
0.538599
0.516651
0.496428
0.478045
0.461613
0.447231
0.434978
0.424897
0.416991
0.411206
0.407476
0.405581
0.405099
0.60883
0.585107
0.562214
0.538849
0.516148
0.494441
0.473927
0.454737
0.436979
0.420758
0.406177
0.393325
0.382277
0.373076
0.365732
0.360245
0.356557
0.354531
0.353886
0.521191
0.501093
0.481742
0.462034
0.442899
0.424588
0.407237
0.39094
0.375792
0.361884
0.349308
0.338144
0.328454
0.320282
0.31365
0.308548
0.304998
0.302933
0.302108
0.431165
0.414655
0.39885
0.38286
0.367419
0.352651
0.338593
0.325314
0.312901
0.301437
0.291002
0.281662
0.273468
0.266455
0.260639
0.256049
0.252695
0.250587
0.249656
0.338865
0.325828
0.313563
0.301378
0.289828
0.278803
0.268171
0.258014
0.24844
0.239532
0.231354
0.223957
0.217375
0.21163
0.206736
0.202695
0.199576
0.197471
0.196384
0.244447
0.234771
0.226008
0.217639
0.210336
0.203307
0.196235
0.189286
0.18264
0.176385
0.170569
0.165222
0.160355
0.15597
0.152054
0.148619
0.145708
0.143462
0.142181
0.147823
0.141206
0.135752
0.130885
0.129129
0.12638
0.122933
0.119256
0.115622
0.112121
0.108777
0.105592
0.102554
0.0996345
0.0967934
0.0939819
0.0912047
0.0886377
0.0868131
0.049407
0.0466867
0.0444612
0.041798
0.0427392
0.0428187
0.0421648
0.0412332
0.0402436
0.0392489
0.0382575
0.0372677
0.0362694
0.0352432
0.0341608
0.0329908
0.0317156
0.0304231
0.0294212
)
;

boundaryField
{
    leftWall
    {
        type            calculated;
        value           nonuniform List<scalar> 
50
(
4524.01
3725.89
2926.35
2124.35
1368.11
954.238
860.104
799.479
703.763
572.946
442.839
316.346
201.206
119.231
64.2382
26.6998
10.5686
5.89894
4.79673
4.54104
4.43325
4.31745
4.19157
4.05819
3.91977
3.77748
3.63222
3.48468
3.33541
3.18498
3.03388
2.8824
2.73078
2.57904
2.42718
2.27511
2.12277
1.97008
1.81699
1.66336
1.50912
1.35426
1.19881
1.0428
0.88627
0.729289
0.571889
0.413983
0.255656
0.0899124
)
;
    }
    rightWall
    {
        type            calculated;
        value           nonuniform List<scalar> 
50
(
2079.3
1562.64
1175.66
930.044
801.411
737.801
694.055
650.448
591.684
523.657
464.416
407.527
348.088
283.839
212.846
133.79
55.6421
10.7147
2.82305
2.14551
2.0045
1.89294
1.7673
1.67246
1.57098
1.47567
1.38678
1.30241
1.22206
1.14592
1.07395
1.00601
0.941764
0.88081
0.822633
0.766759
0.712682
0.660014
0.608332
0.557302
0.506588
0.455942
0.405099
0.353886
0.302108
0.249656
0.196384
0.142181
0.0868131
0.0294212
)
;
    }
    lowerWall
    {
        type            calculated;
        value           nonuniform List<scalar> 
62
(
4922.16
4936.28
4963.09
4999.55
5043.45
5096.81
5162.39
5242.54
5338.9
5452.45
5583.52
5731.95
5897.25
6077.85
6270.79
6472.49
6679.23
6888.16
7094.2
7289.33
7461.23
7588.3
7672.26
7274.32
6490.3
5725.37
4978.55
4249.19
3534.05
2831.01
2114.54
1442.82
1076.47
741.669
720.328
3654.02
2975.91
2331.32
1725.11
1177.1
830.845
704.537
635.92
4004.95
3663.29
3424.76
3099.08
2897.22
2730.61
2578.68
2454.67
2361.11
2290.71
2273.76
2293.47
2326.92
2352.18
2367.52
2378.56
2376.21
2375.02
2362.46
)
;
    }
    atmosphere
    {
        type            calculated;
        value           nonuniform List<scalar> 
46
(
-0.000692487
-0.0015136
-0.00123068
-0.00104796
-0.000923364
-0.00083758
-0.000776451
-0.000730708
-0.000694267
-0.000662936
-0.000633665
-0.000604155
-0.000572673
-0.000537951
-0.000499166
-0.000455931
-0.000408325
-0.000356896
-0.00030287
-0.000248387
-0.000196439
-0.000148706
-0.000110755
-0.000120648
-0.000104277
-8.27928e-05
-5.98304e-05
-3.00505e-05
-5.89391e-06
0
0
0
0
0
0
0
0
0
0
0
0
0
0
0
0
0
)
;
    }
    defaultFaces
    {
        type            empty;
    }
}


// ************************************************************************* //
