/*--------------------------------*- C++ -*----------------------------------*\
  =========                 |
  \\      /  F ield         | OpenFOAM: The Open Source CFD Toolbox
   \\    /   O peration     | Website:  https://openfoam.org
    \\  /    A nd           | Version:  13
     \\/     M anipulation  |
\*---------------------------------------------------------------------------*/
FoamFile
{
    format      ascii;
    class       volScalarField;
    location    "1.5";
    object      p_rgh;
}
// * * * * * * * * * * * * * * * * * * * * * * * * * * * * * * * * * * * * * //

dimensions      [1 -1 -2 0 0 0 0];

internalField   nonuniform List<scalar> 
2268
(
4922.16
4936.28
4963.09
4999.55
5043.45
5096.81
5162.39
5242.54
5338.9
5452.45
5583.52
5731.95
5897.25
6077.85
6270.79
6472.49
6679.23
6888.16
7094.2
7289.33
7461.23
7588.3
7672.26
4920.34
4932.17
4955.92
4991.07
5034.09
5086.21
5150.01
5228.01
5322.17
5433.84
5563.65
5711.81
5878.23
6061.72
6259.57
6468.34
6683.9
6902.67
7118.16
7320.61
7494.99
7610.26
7684.1
4917.1
4930.37
4951.31
4983.94
5024.81
5074.7
5135.93
5211.13
5302.62
5412.1
5540.58
5688.5
5856.34
6043.26
6246.63
6463.06
6687.56
6916.06
7140.27
7348.31
7523.81
7634.54
7715.52
4911.4
4928.88
4947.71
4977.47
5015.21
5061.98
5120.09
5192.18
5280.88
5388.39
5515.75
5663.77
5833.63
6024.72
6234.11
6458.07
6690.16
6926.73
7157.93
7370.14
7547.58
7663.15
7765.56
4509.29
4548.71
4603.43
4681.44
4772.98
4877.17
4993.72
5118.7
5245.53
5367.84
5493.16
5639.59
5810.52
6005.84
6221.67
6453.45
6692.3
6936.15
7173.59
7389.55
7571.36
7699.88
7832.54
1656.72
1771.19
1860.67
1959.96
2082.1
2245.02
2472.44
2787.76
3217.74
3788.91
4458.34
5040.27
5559.8
5955.94
6211.7
6450.21
6694.7
6946.07
7190.33
7410.11
7598.56
7746.37
7913.7
1242.69
1245.6
1245.49
1245.31
1245.44
1246.27
1247.85
1250.21
1253.38
1257.59
1309.26
1665.75
2316.76
3362.38
4774.53
6053.47
6699.47
6958.62
7211.55
7433.94
7628.49
7798.25
8006.96
1240.92
1244.07
1244.72
1244.85
1245.21
1246.2
1247.94
1250.55
1254.01
1258.34
1263.49
1267.28
1270.85
1274.95
1306.74
1881.22
3367.82
5433.54
6942.27
7462.34
7656.55
7835.02
8086.73
4004.95
3663.29
3424.76
3099.08
2897.22
2730.61
2578.68
2454.67
2361.11
2290.71
2273.76
2293.47
2326.92
2352.18
2367.52
2378.56
2376.21
2375.02
2362.46
4028.79
3635.92
3412.83
3297.36
3168.85
3000.23
2804.52
2627.49
2515.94
2369.18
2210.22
2211.96
2225.32
2256.98
2257.4
2294.8
2322.13
2323.06
2247.68
4085.54
3079
2694.92
2931.07
2869.44
2501.4
2079.35
1889.6
1774.07
1781.69
1852.39
1768.83
1723.61
1710.21
1772.01
1768.29
1728.14
1819.75
1973.63
4155.62
3151.41
2302.02
1870.99
1586.21
1347.18
1219.73
1127.72
1128.13
1277.09
1471.02
1551.74
1610.87
1581.86
1579.67
1538.65
1442.71
1420.45
1547.64
4001.98
2783.35
2784.14
1539.81
1333.72
1271.69
1233.22
1184.85
1124.13
1059.57
984.372
1119.74
1246.59
1444.6
1475.61
1493.03
1400.85
1252.55
1191.78
1832.21
1391.72
2071.43
1738.1
1318.99
1266.07
1234.27
1207.25
1182
1144.99
1090.21
1043.25
1042.73
1043.18
1031.79
1028.71
1037.64
1018.96
976.743
1363.38
1433.53
1547.34
1624
1319.34
1258.14
1227.6
1202.95
1177.33
1149.07
1125.86
1096.24
1080.14
1067.46
1017.52
919.27
917.818
968.782
996.694
1105.21
1372.82
1585.64
1634.79
1290.78
1245.39
1218.5
1194.69
1171.62
1146.35
1125.09
1105.99
1090.34
1078.9
987.571
860.976
851.882
921.635
963.09
1237.23
1240.14
1241.33
1241.8
1242.41
1243.46
1245.1
1247.48
1250.64
1254.48
1258.91
1263.31
1267.77
1272.83
1279.59
1286.12
1296.05
1463.14
2049.65
3084.16
4157.57
5057.9
6676.36
1231.61
1233.22
1234.19
1234.76
1235.62
1236.87
1238.59
1240.98
1243.99
1247.43
1251.14
1255.1
1259.37
1263.94
1268.4
1271.36
1272.27
1269.75
1261.18
1242.38
1211.87
1182.29
1189.25
1226.69
1224.69
1224.16
1224.63
1226.06
1227.78
1229.86
1232.69
1236.14
1239.61
1242.92
1246.53
1250.81
1255.44
1259.32
1261.23
1261.05
1258.66
1252.72
1241.25
1223.51
1199.29
1168.35
1225.37
1187.99
1172.06
1176.37
1183.39
1192.86
1189.98
1182.2
1194.29
1203.28
1198.97
1192.17
1203.48
1226.39
1239.54
1235.37
1232.2
1237.68
1246.04
1242.13
1228.77
1213.09
1114.61
1081.19
890.13
811.113
812.654
824.849
822.049
808.845
842.275
850.819
863.803
860.605
872.488
889.193
923.627
960.091
953.54
915.022
923.976
958.656
959.686
919.163
853.111
742.288
567.968
660.479
689.428
696.064
702.119
661.424
633.437
645.529
670.279
662.458
658.029
657.617
666.971
672.344
666.464
664.236
683.428
718.695
736.961
735.526
734.761
739.256
753.241
453.694
643.831
625.288
668.842
698.534
713.268
720.961
726.263
731.222
736.307
741.023
745.273
749.062
752.746
756.508
759.954
762.355
763.496
763.781
763.425
762.408
761.094
760.284
308.08
175.075
123.305
225.769
333.128
432.932
531.296
587.265
633.799
672.176
701.65
724.013
739.954
750.193
755.293
758.395
760.73
762.523
763.563
763.887
763.709
763.342
763.344
131.62
36.3516
7.78462
6.91523
6.53291
6.3943
11.142
44.913
82.8644
127.907
179.049
238.116
304.6
376.448
450.659
527.967
587.056
627.976
657.306
678.389
694.55
697.167
692.445
33.7184
25.0128
7.30613
6.71489
6.61953
6.56131
6.51628
6.42906
6.33414
6.26914
6.20901
6.13802
6.04954
5.91283
5.75379
5.46991
19.5513
42.715
64.7354
85.0119
104.992
110.401
106.47
11.1681
13.4361
7.37882
6.63822
6.59936
6.55744
6.525
6.49197
6.46127
6.4299
6.38798
6.32956
6.25709
6.16544
6.04688
5.90915
5.73872
5.55178
5.394
5.24672
5.08969
4.92942
4.69744
6.4521
6.99916
6.67808
6.56993
6.56066
6.5384
6.5061
6.47725
6.44406
6.41524
6.41479
6.2964
6.22056
6.14103
6.04941
5.96018
5.87325
5.78662
5.69154
5.57898
5.44733
5.29818
5.12128
6.46963
6.46848
6.51206
6.53205
6.53069
6.51464
6.49188
6.45933
6.4312
6.52674
6.51112
6.32718
6.20511
6.12395
6.04455
5.95529
5.86366
5.76385
5.64953
5.52687
5.39303
5.2493
5.08877
6.47932
6.48295
6.49905
6.51124
6.51019
6.49806
6.47718
6.44826
6.43072
6.55822
6.51339
6.45268
6.21643
6.12391
6.03951
5.95481
5.85625
5.74343
5.62609
5.50341
5.37284
5.2382
5.09065
6.47808
6.48003
6.48754
6.49356
6.49165
6.48143
6.46345
6.43766
6.4149
6.47085
6.51494
6.4631
6.24852
6.13297
6.05428
5.96757
5.87095
5.75882
5.64489
5.52484
5.39843
5.27102
5.13439
6.46966
6.46987
6.47333
6.47551
6.47238
6.46287
6.44663
6.42312
6.39189
6.35324
6.4034
6.43069
6.24301
6.14265
6.06908
5.98735
5.89464
5.7889
5.67893
5.56205
5.43971
5.31835
5.18875
6.45644
6.45532
6.45623
6.45611
6.45205
6.4428
6.42775
6.40633
6.37809
6.34276
6.3006
6.25315
6.2096
6.14515
6.07594
5.99897
5.91047
5.8153
5.71034
5.59795
5.48054
5.36491
5.24096
6.43934
6.4373
6.43677
6.43528
6.43059
6.42153
6.40747
6.38784
6.36224
6.3303
6.29218
6.24834
6.19889
6.1493
6.08112
6.00729
5.92708
5.83722
5.73779
5.63082
5.51896
5.40889
5.29044
6.41926
6.4168
6.41546
6.41316
6.40812
6.39931
6.38611
6.36803
6.34464
6.31563
6.28089
6.24054
6.19513
6.14435
6.08437
6.01541
5.94008
5.85551
5.76174
5.66059
5.55461
5.45016
5.33717
6.3969
6.39444
6.39272
6.38997
6.3848
6.37629
6.36391
6.34718
6.3257
6.29915
6.26732
6.23008
6.1872
6.13828
6.08289
6.0207
5.94989
5.87052
5.78241
5.68727
5.58734
5.48854
5.38142
6.37282
6.37071
6.36892
6.36598
6.3608
6.35266
6.34104
6.32551
6.30571
6.28131
6.25203
6.21767
6.17795
6.13253
6.08096
6.02264
5.95675
5.88255
5.80009
5.71089
5.61701
5.52394
5.42264
6.34757
6.34604
6.34441
6.34143
6.33634
6.32859
6.31767
6.30323
6.2849
6.26237
6.23535
6.20358
6.16679
6.12463
6.07668
6.02235
5.96096
5.89179
5.81485
5.73152
5.64364
5.5562
5.46093
6.32166
6.3208
6.31945
6.31654
6.31161
6.30424
6.29397
6.28048
6.26345
6.24255
6.21752
6.18809
6.15397
6.11483
6.07028
6.01979
5.9627
5.89839
5.82683
5.74923
5.66728
5.5855
5.49616
6.29537
6.29527
6.29423
6.29147
6.28676
6.27975
6.27006
6.25741
6.2415
6.22204
6.19877
6.17141
6.13971
6.10337
6.062
6.01512
5.96214
5.9025
5.83613
5.76412
5.68799
5.61179
5.52859
6.26893
6.26945
6.26877
6.26625
6.2618
6.25515
6.24601
6.23411
6.21917
6.20096
6.17923
6.15373
6.12423
6.09044
6.05202
6.00853
5.95945
5.90425
5.84287
5.77625
5.70576
5.63505
5.55773
6.24238
6.24338
6.24303
6.24081
6.23667
6.23043
6.22181
6.21057
6.19649
6.17938
6.15901
6.13517
6.10765
6.0762
6.04051
6.0002
5.95479
5.9038
5.84716
5.78569
5.72062
5.65517
5.58363
6.21571
6.21702
6.21698
6.21509
6.21129
6.20546
6.19735
6.18674
6.17345
6.15731
6.13814
6.1158
6.09008
6.06078
6.02762
5.99028
5.94831
5.9013
5.84915
5.79259
5.73271
5.67235
5.6063
6.18883
6.19033
6.19058
6.18902
6.18559
6.18017
6.17253
6.16249
6.14993
6.13469
6.11664
6.09565
6.07157
6.04426
6.01347
5.9789
5.94017
5.89691
5.84902
5.79713
5.74221
5.68677
5.62615
6.16168
6.16326
6.16375
6.16253
6.15946
6.15442
6.14721
6.13772
6.12583
6.11143
6.09443
6.07472
6.05219
6.02672
5.99813
5.96617
5.93052
5.89081
5.84697
5.79954
5.74937
5.69869
5.6432
6.13419
6.13578
6.13646
6.13554
6.13279
6.12809
6.12128
6.11229
6.10103
6.08743
6.07143
6.05294
6.03191
6.00823
5.98175
5.95228
5.91953
5.8832
5.84323
5.80007
5.75447
5.70838
5.65783
6.10629
6.10785
6.10867
6.10798
6.10549
6.10107
6.09463
6.08611
6.07546
6.06262
6.04758
6.03029
6.01072
5.98879
5.96439
5.93735
5.90743
5.87435
5.83807
5.79901
5.75784
5.7163
5.67039
6.07786
6.07937
6.08028
6.07974
6.07745
6.07328
6.06718
6.0591
6.04902
6.03694
6.02285
6.00676
5.98864
5.96846
5.94613
5.9215
5.89435
5.86448
5.83181
5.79672
5.75985
5.72281
5.6815
6.04881
6.05026
6.05122
6.05079
6.04864
6.04468
6.03887
6.0312
6.02169
6.01036
5.99725
5.98237
5.96573
5.94731
5.92705
5.90482
5.88046
5.85374
5.82463
5.79346
5.76072
5.72777
5.69157
6.01914
6.02052
6.02149
6.02112
6.01907
6.01526
6.00971
6.00243
5.99349
5.98294
5.97083
5.9572
5.94207
5.92545
5.90729
5.88749
5.86589
5.84231
5.81671
5.78937
5.76072
5.73189
5.70043
5.98889
5.99019
5.99113
5.99075
5.98874
5.98505
5.97973
5.97286
5.96451
5.95477
5.94371
5.93138
5.91783
5.90305
5.88701
5.86964
5.8508
5.83033
5.80818
5.7846
5.75993
5.73516
5.70818
5.95807
5.95928
5.96016
5.95973
5.95772
5.95413
5.94906
5.94261
5.9349
5.92603
5.91609
5.90513
5.89319
5.88029
5.86641
5.85148
5.83537
5.81795
5.79917
5.77923
5.75843
5.73758
5.71493
5.92674
5.92785
5.92863
5.92814
5.92612
5.92263
5.91782
5.91185
5.90484
5.89692
5.88817
5.87865
5.86839
5.85741
5.84569
5.83316
5.81974
5.80528
5.78977
5.77334
5.75622
5.73911
5.72053
5.89495
5.89592
5.89661
5.89605
5.89401
5.89064
5.88614
5.88071
5.87451
5.86764
5.86017
5.85215
5.84362
5.83457
5.825
5.81485
5.80404
5.79245
5.78005
5.76695
5.75335
5.73975
5.72499
5.86275
5.86351
5.86408
5.86341
5.86132
5.85808
5.85398
5.84923
5.84396
5.83826
5.83218
5.82575
5.81899
5.8119
5.80446
5.79663
5.78833
5.77949
5.77006
5.76014
5.74985
5.73957
5.7284
5.83004
5.83046
5.8309
5.82998
5.82777
5.82474
5.82121
5.81733
5.81319
5.80884
5.80428
5.79953
5.79461
5.7895
5.78419
5.77864
5.77279
5.76659
5.76
5.7531
5.74597
5.73887
5.73119
5.7969
5.79581
5.79637
5.79525
5.79305
5.79051
5.78786
5.78516
5.7824
5.77958
5.77669
5.77374
5.77071
5.7676
5.7644
5.76108
5.75761
5.75394
5.75007
5.74603
5.74188
5.73775
5.7333
5.75636
5.74978
5.75292
5.75295
5.75196
5.75087
5.74984
5.74883
5.74783
5.74684
5.74583
5.74482
5.74379
5.74274
5.74168
5.74059
5.73945
5.73826
5.737
5.73569
5.73436
5.733
5.73151
5973.38
3712.25
1237.26
1215.33
1138.4
1151.47
1177.67
1173.37
1140.98
1139.44
1151.84
1043.54
975.83
957.979
984.516
950.143
680.223
712.217
743.986
746.752
753.91
753.099
753.356
754.499
760.101
759.73
759.543
759.342
762.629
762.159
761.846
761.612
685.051
676.122
667.096
666.964
103.771
96.2003
82.9958
82.1452
4.379
4.15606
3.98274
3.88675
4.89496
4.66657
4.41931
4.22374
4.83698
4.59974
4.35361
4.17253
4.85903
4.63068
4.38435
4.19762
4.91851
4.69787
4.45477
4.26678
4.9805
4.76608
4.52912
4.34483
5.03975
4.83206
4.60217
4.42315
5.09659
4.89642
4.67498
4.50197
5.15174
4.96011
4.74762
4.58124
5.20515
5.02288
4.82047
4.66099
5.25628
5.0841
4.89204
4.74008
5.30455
5.14278
4.96206
4.81802
5.35017
5.19917
5.02969
4.89393
5.39303
5.25285
5.09506
4.96753
5.43263
5.30323
5.15675
5.03764
5.46846
5.3495
5.21456
5.10391
5.50081
5.39197
5.26799
5.16581
5.52991
5.43075
5.31759
5.22363
5.55584
5.46594
5.36292
5.27707
5.57877
5.49758
5.40453
5.32659
5.59933
5.52646
5.44272
5.37247
5.61777
5.55306
5.47844
5.41548
5.6355
5.57798
5.51161
5.45574
5.6514
5.60091
5.54259
5.4932
5.66597
5.62232
5.57166
5.52869
5.67928
5.64226
5.59915
5.56233
5.69119
5.66055
5.62463
5.59383
5.70154
5.67698
5.64811
5.62316
5.71054
5.69177
5.66957
5.65028
5.71867
5.70544
5.68968
5.67571
5.72632
5.71849
5.70885
5.69981
5.72948
5.727
5.72384
5.7205
1098.88
1447.98
1595.17
1750.81
1418.76
1217.89
1200.8
1183.51
1163.06
1139.24
1111.97
1083.23
1058.34
1010.88
907.579
839.86
847.354
853.105
934.825
1120.41
1122.39
1306.28
1620.31
1538.22
1142.76
1160.69
1153.09
1100.05
929.716
868.184
849.731
829.21
810.869
813.15
828.814
838.436
844.36
892.326
1094.23
810
757.118
832.694
980.093
1045.76
1016.35
927.806
806.536
789.645
789.355
788.412
790.352
797.204
808.286
820.592
831.551
842.433
867.103
730.822
772.579
759.596
756.973
752.937
705.712
728.262
745.205
781.591
780.377
781.609
783.034
786.98
794.303
804.489
815.877
827.672
842.422
857.877
755.721
758.242
758.116
757.633
759.467
763.345
756.765
760.333
769.817
772.226
773.669
776.224
781.312
789.08
798.847
809.882
822.861
840.844
869.835
757.015
758.279
757.741
756.91
757.236
758.691
759.778
760.354
761.207
762.937
764.755
768.088
774.206
782.586
792.145
802.766
815.906
835.481
881.397
759.102
758.281
756.736
755.285
753.893
752.345
750.449
749.502
750.285
752.304
752.602
755.901
763.364
771.86
780.026
790.583
804.966
824.741
940.76
762.094
760.657
759.059
754.622
732.063
697.784
650.962
633.932
652.358
648.63
549.831
539.406
579.901
593.396
582.137
634.828
741.277
807.16
957.5
643.514
569.691
486.62
393.859
269.461
171.312
103.818
27.1916
28.3429
43.0391
32.9716
34.146
45.9053
43.9236
36.7065
63.6867
153.02
434.244
844.711
66.4354
16.0571
3.57574
3.61632
3.70337
3.74353
3.79673
3.84392
3.85107
3.90162
3.98997
4.1201
4.37584
4.70804
4.95221
5.31567
7.17154
16.3493
186.454
3.85903
3.91262
3.86603
3.81715
3.7796
3.76019
3.76878
3.79522
3.81775
3.85461
3.87982
3.93879
4.06514
4.46002
5.00959
5.3336
6.8738
6.13148
19.4551
4.03381
3.95678
3.88922
3.8325
3.79081
3.77403
3.77682
4.07431
4.78064
4.77636
3.95644
3.93379
4.482
6.74734
6.76559
6.8113
5.18635
3.97795
4.05829
4.0238
3.95241
3.9064
3.84811
3.8139
3.79621
3.81665
4.65361
4.87813
4.89083
3.87773
3.93686
4.95059
6.55238
5.89688
4.9397
4.54546
3.98476
4.0405
4.04185
3.98812
3.93249
3.88418
3.85044
3.82879
3.85252
4.11467
4.33679
4.05736
3.89126
3.95337
4.23087
4.19719
4.0331
4.02874
4.03747
4.03761
4.05412
4.10207
4.0419
3.98841
3.93933
3.90212
3.87673
3.85807
3.84406
3.84737
3.86857
3.90035
3.9309
3.95064
3.97687
4.00432
4.02628
4.04293
4.05339
4.0543
4.18092
4.11586
4.0584
4.00584
3.96448
3.93381
3.91211
3.8993
3.89872
3.91063
3.93041
3.95202
3.97299
3.99471
4.01823
4.04117
4.06241
4.07952
4.08555
4.263
4.19517
4.13499
4.0795
4.03479
4.00075
3.97639
3.9614
3.95691
3.96247
3.97522
3.99108
4.00872
4.02838
4.05011
4.07215
4.09266
4.1074
4.10928
4.34614
4.27724
4.21546
4.15794
4.11058
4.07363
4.04653
4.02877
4.02037
4.02068
4.02775
4.03909
4.05356
4.0709
4.09048
4.11037
4.12796
4.13892
4.13862
4.43038
4.36119
4.29861
4.23974
4.19032
4.15082
4.12091
4.10006
4.08783
4.08346
4.08559
4.09268
4.1037
4.11801
4.13467
4.15182
4.16673
4.17548
4.17387
4.51508
4.44631
4.38349
4.32381
4.27283
4.23113
4.19852
4.17451
4.15858
4.14997
4.14767
4.15061
4.1579
4.1688
4.18227
4.19655
4.20895
4.21601
4.21462
4.59986
4.53178
4.46919
4.40918
4.3571
4.31357
4.27851
4.25153
4.23212
4.21963
4.21328
4.21226
4.21583
4.22323
4.23343
4.24478
4.25483
4.26049
4.25943
4.68365
4.61681
4.55485
4.49493
4.44214
4.39725
4.36011
4.33049
4.30795
4.29198
4.28195
4.27726
4.27725
4.28124
4.28823
4.29677
4.30462
4.30909
4.30849
4.76599
4.70055
4.6396
4.58022
4.52723
4.48135
4.44257
4.41074
4.38553
4.36652
4.35325
4.34522
4.34192
4.34269
4.34668
4.35257
4.35844
4.36194
4.36171
4.84585
4.78222
4.72264
4.66423
4.61148
4.56511
4.5252
4.49166
4.46428
4.44273
4.42668
4.41575
4.40949
4.40737
4.40862
4.41213
4.41621
4.41885
4.41898
4.92274
4.86113
4.80327
4.74625
4.69421
4.64785
4.60733
4.57263
4.54362
4.52007
4.50175
4.48836
4.47957
4.47492
4.47376
4.47513
4.47765
4.4796
4.47993
4.99585
4.93672
4.88094
4.82572
4.77484
4.729
4.6884
4.65309
4.62299
4.59799
4.57792
4.56257
4.55168
4.5449
4.54168
4.54123
4.54238
4.54366
4.5442
5.06505
5.00862
4.95528
4.90223
4.85296
4.80812
4.76795
4.73256
4.70193
4.67601
4.6547
4.63788
4.62535
4.61684
4.61192
4.60992
4.60993
4.61072
4.61123
5.12999
5.07666
5.02607
4.97556
4.92829
4.8849
4.84565
4.81068
4.78003
4.7537
4.73166
4.71383
4.70011
4.69027
4.68399
4.68077
4.67981
4.68011
4.68057
5.19087
5.14083
5.09327
5.04562
5.00071
4.95917
4.92127
4.88718
4.85699
4.83073
4.80842
4.79004
4.77553
4.76476
4.75746
4.75324
4.7515
4.75135
4.75169
5.24771
5.20125
5.15698
5.11245
5.07021
5.03087
4.9947
4.96191
4.9326
4.90684
4.88469
4.86617
4.85126
4.83989
4.83187
4.82693
4.82457
4.82393
4.82423
5.30102
5.25817
5.21736
5.17616
5.13685
5.09999
5.06589
5.03475
5.00669
4.98182
4.96021
4.94192
4.92697
4.91533
4.90687
4.90139
4.89853
4.89758
4.89773
5.3511
5.31175
5.27461
5.23691
5.20073
5.16661
5.13485
5.10566
5.07918
5.05553
5.0348
5.01707
5.0024
4.99077
4.98212
4.97634
4.97316
4.97188
4.97188
5.39866
5.36202
5.32895
5.29489
5.26198
5.23078
5.20159
5.17461
5.14998
5.12784
5.10829
5.09142
5.07731
5.06598
5.05741
5.05149
5.04805
5.04653
5.04633
5.44241
5.41079
5.38088
5.35033
5.32075
5.2926
5.26616
5.24161
5.21908
5.19871
5.1806
5.16487
5.15159
5.1408
5.13248
5.12659
5.12297
5.12115
5.12086
5.48434
5.45681
5.43037
5.40339
5.37721
5.35223
5.32868
5.30673
5.28651
5.26813
5.2517
5.23732
5.22507
5.21499
5.2071
5.20134
5.1976
5.1957
5.19519
5.52411
5.50038
5.47749
5.45412
5.43142
5.40972
5.3892
5.37001
5.35225
5.33603
5.32145
5.30861
5.29756
5.28836
5.28103
5.27555
5.27185
5.26982
5.26917
5.56166
5.54156
5.52221
5.5025
5.48337
5.46506
5.44771
5.43141
5.41626
5.40236
5.38978
5.37862
5.36893
5.36076
5.35413
5.34903
5.34548
5.34341
5.34258
5.59683
5.58032
5.56451
5.54852
5.53308
5.51832
5.50426
5.49098
5.47857
5.4671
5.45667
5.44733
5.43914
5.43213
5.42631
5.42172
5.41836
5.41625
5.41532
5.62972
5.61669
5.60442
5.59224
5.58069
5.56966
5.55903
5.54887
5.5393
5.53039
5.52221
5.51482
5.50824
5.50249
5.4976
5.49356
5.49044
5.48833
5.48724
5.6605
5.65082
5.64206
5.63369
5.62639
5.61936
5.61229
5.60534
5.59869
5.59244
5.58662
5.58128
5.57641
5.57203
5.56811
5.56467
5.56176
5.55952
5.55823
5.68907
5.68245
5.677
5.67213
5.67038
5.66763
5.66418
5.6605
5.65687
5.65337
5.65003
5.64684
5.6438
5.64088
5.63804
5.63523
5.63245
5.62989
5.62806
5.71585
5.71313
5.7109
5.70824
5.70918
5.70926
5.70861
5.70768
5.70669
5.70569
5.7047
5.70371
5.70271
5.70169
5.7006
5.69943
5.69816
5.69687
5.69586
)
;

boundaryField
{
    leftWall
    {
        type            fixedFluxPressure;
        gradient        uniform 0;
        value           nonuniform List<scalar> 
50
(
4922.16
4920.34
4917.1
4911.4
4509.29
1656.72
1242.69
1240.92
1237.23
1231.61
1226.69
1225.37
1081.19
567.968
453.694
308.08
131.62
33.7184
11.1681
6.4521
6.46963
6.47932
6.47808
6.46966
6.45644
6.43934
6.41926
6.3969
6.37282
6.34757
6.32166
6.29537
6.26893
6.24238
6.21571
6.18883
6.16168
6.13419
6.10629
6.07786
6.04881
6.01914
5.98889
5.95807
5.92674
5.89495
5.86275
5.83004
5.7969
5.75636
)
;
    }
    rightWall
    {
        type            fixedFluxPressure;
        gradient        uniform 0;
        value           nonuniform List<scalar> 
50
(
2362.46
2247.68
1973.63
1547.64
1191.78
976.743
996.694
963.09
934.825
892.326
867.103
857.877
869.835
881.397
940.76
957.5
844.711
186.454
19.4551
4.05829
4.0405
4.05412
4.0543
4.08555
4.10928
4.13862
4.17387
4.21462
4.25943
4.30849
4.36171
4.41898
4.47993
4.5442
4.61123
4.68057
4.75169
4.82423
4.89773
4.97188
5.04633
5.12086
5.19519
5.26917
5.34258
5.41532
5.48724
5.55823
5.62806
5.69586
)
;
    }
    lowerWall
    {
        type            fixedFluxPressure;
        gradient        uniform 0;
        value           nonuniform List<scalar> 
62
(
4922.16
4936.28
4963.09
4999.55
5043.45
5096.81
5162.39
5242.54
5338.9
5452.45
5583.52
5731.95
5897.25
6077.85
6270.79
6472.49
6679.23
6888.16
7094.2
7289.33
7461.23
7588.3
7672.26
7672.26
7684.1
7715.52
7765.56
7832.54
7913.7
8006.96
8086.73
5973.38
3712.25
1237.26
1215.33
4004.95
4028.79
4085.54
4155.62
4001.98
1832.21
1363.38
1105.21
4004.95
3663.29
3424.76
3099.08
2897.22
2730.61
2578.68
2454.67
2361.11
2290.71
2273.76
2293.47
2326.92
2352.18
2367.52
2378.56
2376.21
2375.02
2362.46
)
;
    }
    atmosphere
    {
        type            prghTotalPressure;
        rho             rho;
        psi             none;
        gamma           1;
        p0              uniform 0;
        value           nonuniform List<scalar> 
46
(
5.72835
5.72753
5.72781
5.72799
5.72812
5.7282
5.72826
5.72831
5.72835
5.72838
5.72841
5.72844
5.72847
5.7285
5.72854
5.72858
5.72863
5.72868
5.72874
5.72879
5.72884
5.72889
5.72893
5.72892
5.72894
5.72896
5.72898
5.72901
5.72903
5.72904
5.72904
5.72904
5.72904
5.72904
5.72904
5.72904
5.72904
5.72904
5.72904
5.72904
5.72904
5.72904
5.72904
5.72904
5.72904
5.72904
)
;
        rho             rho;
    }
    defaultFaces
    {
        type            empty;
    }
}


// ************************************************************************* //
