/*--------------------------------*- C++ -*----------------------------------*\
  =========                 |
  \\      /  F ield         | OpenFOAM: The Open Source CFD Toolbox
   \\    /   O peration     | Website:  https://openfoam.org
    \\  /    A nd           | Version:  13
     \\/     M anipulation  |
\*---------------------------------------------------------------------------*/
FoamFile
{
    format      ascii;
    class       surfaceScalarField;
    location    "1.5";
    object      phi;
}
// * * * * * * * * * * * * * * * * * * * * * * * * * * * * * * * * * * * * * //

dimensions      [0 3 -1 0 0 0 0];

internalField   nonuniform List<scalar> 
4432
(
-1.18866e-06
1.18866e-06
-9.43337e-07
-2.45323e-07
-2.45461e-07
-6.97876e-07
3.88277e-07
-6.33738e-07
9.12208e-07
-5.23932e-07
1.39976e-06
-4.87554e-07
1.92572e-06
-5.25956e-07
2.53132e-06
-6.05602e-07
3.22943e-06
-6.98115e-07
4.01158e-06
-7.82156e-07
4.84926e-06
-8.37677e-07
5.70099e-06
-8.51733e-07
6.51754e-06
-8.16551e-07
7.23203e-06
-7.14489e-07
7.74001e-06
-5.07981e-07
7.89913e-06
-1.59123e-07
7.5308e-06
3.68332e-07
6.50909e-06
1.02171e-06
4.74779e-06
1.7613e-06
2.26127e-06
2.48651e-06
-6.56035e-07
2.91731e-06
-2.53143e-06
1.8754e-06
-2.53143e-06
-1.50913e-07
1.33958e-06
4.16581e-07
-8.12814e-07
9.86938e-07
-1.26823e-06
1.47749e-06
-1.12429e-06
1.89095e-06
-9.37389e-07
2.28273e-06
-8.79331e-07
2.7059e-06
-9.49115e-07
3.19117e-06
-1.09087e-06
3.74922e-06
-1.25616e-06
4.37511e-06
-1.40804e-06
5.04902e-06
-1.51159e-06
5.74088e-06
-1.54359e-06
6.41555e-06
-1.49121e-06
7.02569e-06
-1.32464e-06
7.49448e-06
-9.76771e-07
7.70525e-06
-3.69887e-07
7.50029e-06
5.73288e-07
6.76333e-06
1.75867e-06
5.42214e-06
3.1025e-06
3.50839e-06
4.40026e-06
1.3222e-06
5.10351e-06
-3.81567e-07
3.57917e-06
-2.91299e-06
6.86426e-07
6.53156e-07
1.31201e-06
-1.4384e-06
1.77887e-06
-1.73508e-06
2.17495e-06
-1.52037e-06
2.52312e-06
-1.28555e-06
2.86182e-06
-1.21803e-06
3.22767e-06
-1.31497e-06
3.64132e-06
-1.50452e-06
4.10929e-06
-1.72413e-06
4.6271e-06
-1.92584e-06
5.18008e-06
-2.06457e-06
5.74353e-06
-2.10704e-06
6.29169e-06
-2.03937e-06
6.79309e-06
-1.82603e-06
7.19408e-06
-1.37777e-06
7.40498e-06
-5.80784e-07
7.29252e-06
6.85752e-07
6.76342e-06
2.28776e-06
5.75892e-06
4.107e-06
4.30199e-06
5.85719e-06
2.59298e-06
6.81252e-06
9.55706e-07
5.21645e-06
-1.95728e-06
1.39117e-06
-7.38009e-07
1.95097e-06
-1.9982e-06
2.34556e-06
-2.12967e-06
2.68896e-06
-1.86377e-06
3.00319e-06
-1.59978e-06
3.31496e-06
-1.52979e-06
3.64894e-06
-1.64894e-06
4.01792e-06
-1.87349e-06
4.42446e-06
-2.13067e-06
4.86343e-06
-2.3648e-06
5.3201e-06
-2.52123e-06
5.77449e-06
-2.56143e-06
6.2073e-06
-2.47217e-06
6.59969e-06
-2.21842e-06
6.9208e-06
-1.69887e-06
7.10875e-06
-7.6874e-07
7.05209e-06
7.42417e-07
6.68512e-06
2.65474e-06
5.95777e-06
4.83434e-06
4.864e-06
6.95097e-06
3.49328e-06
8.18324e-06
1.90698e-06
6.80275e-06
-5.03073e-08
1.78451e-06
-2.52252e-06
2.33315e-06
-2.54685e-06
2.72247e-06
-2.51899e-06
3.05611e-06
-2.1974e-06
3.36734e-06
-1.91101e-06
3.67679e-06
-1.83925e-06
4.00099e-06
-1.97314e-06
4.3477e-06
-2.22019e-06
4.71293e-06
-2.49589e-06
5.09307e-06
-2.74495e-06
5.47562e-06
-2.90378e-06
5.83943e-06
-2.92524e-06
6.17028e-06
-2.80303e-06
6.45974e-06
-2.50788e-06
6.69285e-06
-1.93198e-06
6.83625e-06
-9.12142e-07
6.80265e-06
7.76021e-07
6.56154e-06
2.89586e-06
6.06555e-06
5.33033e-06
5.26518e-06
7.75134e-06
4.14729e-06
9.30113e-06
2.56912e-06
8.38092e-06
2.51882e-06
1.77699e-06
-4.29949e-06
2.5146e-06
-3.28444e-06
2.98471e-06
-2.9891e-06
3.34034e-06
-2.55303e-06
3.66528e-06
-2.23595e-06
3.98391e-06
-2.15788e-06
4.31164e-06
-2.30088e-06
4.65784e-06
-2.56639e-06
5.02044e-06
-2.8585e-06
5.37363e-06
-3.09814e-06
5.67929e-06
-3.20944e-06
5.96336e-06
-3.2093e-06
6.19764e-06
-3.03731e-06
6.37809e-06
-2.68833e-06
6.51552e-06
-2.0694e-06
6.59646e-06
-9.93088e-07
6.55727e-06
8.15216e-07
6.40865e-06
3.04448e-06
6.10464e-06
5.63434e-06
5.5543e-06
8.30168e-06
4.65968e-06
1.01957e-05
3.10663e-06
9.93397e-06
5.62543e-06
2.17146e-06
-6.47094e-06
3.26087e-06
-4.37384e-06
3.85013e-06
-3.57836e-06
4.20433e-06
-2.90723e-06
4.47046e-06
-2.50208e-06
4.70606e-06
-2.39347e-06
4.93649e-06
-2.53131e-06
5.18103e-06
-2.81093e-06
5.43127e-06
-3.10874e-06
5.64976e-06
-3.31664e-06
5.8152e-06
-3.37487e-06
6.0484e-06
-3.4425e-06
6.26034e-06
-3.24924e-06
6.41641e-06
-2.8444e-06
6.45276e-06
-2.10575e-06
6.3957e-06
-9.36026e-07
6.30285e-06
9.08063e-07
6.24174e-06
3.10559e-06
6.10918e-06
5.7669e-06
5.79098e-06
8.61988e-06
5.15065e-06
1.08361e-05
3.69431e-06
1.13903e-05
9.31974e-06
2.48374e-06
-8.95467e-06
4.06854e-06
-5.95864e-06
4.92618e-06
-4.43599e-06
5.40489e-06
-3.38594e-06
5.70093e-06
-2.79812e-06
5.9149e-06
-2.60744e-06
6.10213e-06
-2.71855e-06
6.30237e-06
-3.01117e-06
6.52524e-06
-3.33161e-06
6.74037e-06
-3.53177e-06
6.90258e-06
-3.53708e-06
6.92328e-06
-3.4632e-06
6.86299e-06
-3.18894e-06
6.69621e-06
-2.67763e-06
6.397e-06
-1.80654e-06
6.19557e-06
-7.34597e-07
6.13327e-06
9.70362e-07
6.10827e-06
3.13059e-06
6.05373e-06
5.82143e-06
5.99883e-06
8.67478e-06
5.80754e-06
1.10274e-05
4.81973e-06
1.23781e-05
1.41395e-05
5.15749e-06
-5.15748e-06
7.08626e-06
-1.92877e-06
8.13221e-06
-1.04594e-06
7.23908e-06
8.9313e-07
4.80668e-06
2.4324e-06
1.82223e-06
2.98444e-06
-1.3483e-06
3.17053e-06
-3.86368e-06
2.51538e-06
-5.67374e-06
1.81005e-06
-7.3587e-06
1.68496e-06
-9.20785e-06
1.84915e-06
-9.34672e-06
1.38867e-07
-8.28527e-06
-1.06145e-06
-6.67781e-06
-1.60746e-06
-5.07581e-06
-1.602e-06
-3.12015e-06
-1.95566e-06
-1.30954e-06
-1.81061e-06
-2.71457e-07
-1.03809e-06
-2.71457e-07
6.93831e-06
-1.20958e-05
9.14047e-06
-4.13093e-06
8.64712e-06
-5.52601e-07
7.51148e-06
2.02878e-06
5.39729e-06
4.54658e-06
2.65673e-06
5.72501e-06
-3.61452e-07
6.18871e-06
-2.92904e-06
5.08296e-06
-4.97572e-06
3.85673e-06
-6.37406e-06
3.08329e-06
-7.01161e-06
2.4867e-06
-7.103e-06
2.3025e-07
-6.36148e-06
-1.80297e-06
-5.00498e-06
-2.96396e-06
-3.25604e-06
-3.35093e-06
-1.55604e-06
-3.65567e-06
-7.175e-07
-2.64914e-06
-5.50922e-07
-1.20466e-06
-8.22375e-07
6.22106e-06
-1.83168e-05
1.04024e-05
-8.31223e-06
1.18588e-05
-2.00908e-06
1.02025e-05
3.68514e-06
7.86146e-06
6.88761e-06
5.17919e-06
8.40729e-06
2.17964e-06
9.18825e-06
-6.40343e-07
7.90294e-06
-3.13848e-06
6.35486e-06
-4.59562e-06
4.54043e-06
-4.90209e-06
2.79318e-06
-4.93753e-06
2.65688e-07
-4.24936e-06
-2.49114e-06
-3.05106e-06
-4.16226e-06
-1.49523e-06
-4.90677e-06
-2.31841e-07
-4.91905e-06
8.66159e-08
-2.9676e-06
-2.36672e-07
-8.81372e-07
-1.05905e-06
3.43453e-06
-2.17514e-05
8.57402e-06
-1.34517e-05
1.44108e-05
-7.84589e-06
1.4356e-05
3.73997e-06
1.19185e-05
9.32512e-06
9.34509e-06
1.09807e-05
6.97056e-06
1.15628e-05
4.07026e-06
1.08032e-05
1.14288e-06
9.28224e-06
-8.29218e-07
6.51252e-06
-1.96294e-06
3.9269e-06
-2.20184e-06
5.04589e-07
-1.77675e-06
-2.91623e-06
-7.32791e-07
-5.20622e-06
1.75261e-07
-5.81481e-06
8.27148e-07
-5.57093e-06
1.07415e-06
-3.21459e-06
9.60684e-07
-7.67898e-07
-9.83519e-08
1.49087e-06
-2.32422e-05
6.28852e-06
-1.82494e-05
1.27939e-05
-1.43512e-05
1.82249e-05
-1.69105e-06
1.83195e-05
9.23049e-06
1.67828e-05
1.25174e-05
1.51776e-05
1.31679e-05
1.31455e-05
1.28354e-05
1.02012e-05
1.22265e-05
6.54211e-06
1.01716e-05
3.35232e-06
7.11669e-06
1.88502e-06
1.9719e-06
1.42028e-06
-2.4515e-06
1.66679e-06
-5.45272e-06
1.70428e-06
-5.85231e-06
1.29389e-06
-5.16054e-06
7.70475e-07
-2.69118e-06
8.51119e-07
-8.48538e-07
7.52763e-07
-1.9682e-07
-2.30454e-05
4.87106e-06
-2.33172e-05
1.0932e-05
-2.04121e-05
1.86212e-05
-9.38031e-06
2.16481e-05
6.20356e-06
2.13642e-05
1.28014e-05
2.01416e-05
1.43905e-05
1.85394e-05
1.44376e-05
1.65216e-05
1.42443e-05
1.39487e-05
1.27445e-05
1.11394e-05
9.92596e-06
8.27527e-06
4.83604e-06
6.31225e-06
-4.88484e-07
5.06766e-06
-4.20814e-06
3.88874e-06
-4.67339e-06
1.81103e-06
-3.08282e-06
-4.61377e-07
-4.18767e-07
-2.34895e-06
1.03903e-06
-1.59617e-06
7.11504e-07
-2.37569e-05
5.75546e-06
-2.83612e-05
1.11324e-05
-2.57891e-05
1.82495e-05
-1.64974e-05
2.29871e-05
1.46591e-06
2.39931e-05
1.17954e-05
2.34889e-05
1.48946e-05
2.23266e-05
1.55999e-05
2.07117e-05
1.58593e-05
1.8562e-05
1.48942e-05
1.62355e-05
1.22525e-05
1.37382e-05
7.3333e-06
1.14603e-05
1.78939e-06
9.44154e-06
-2.18935e-06
7.05455e-06
-2.28641e-06
3.31735e-06
6.54375e-07
-6.23752e-07
3.52234e-06
-3.74029e-06
4.15557e-06
-5.33647e-06
6.43537e-06
-3.01922e-05
9.1499e-06
-3.10757e-05
1.27767e-05
-2.94159e-05
1.8364e-05
-2.20846e-05
2.35082e-05
-3.67828e-06
2.5397e-05
9.90657e-06
2.56709e-05
1.46208e-05
2.50867e-05
1.61841e-05
2.38714e-05
1.70745e-05
2.20324e-05
1.67332e-05
1.99329e-05
1.43519e-05
1.76015e-05
9.66473e-06
1.51858e-05
4.20506e-06
1.26457e-05
3.50812e-07
9.51276e-06
8.46505e-07
5.21734e-06
4.94981e-06
8.48552e-07
7.89112e-06
-2.4422e-06
7.44631e-06
-7.77867e-06
5.93766e-06
-1.48923e-05
9.89655e-06
-9.91753e-06
1.21941e-05
-6.73354e-06
1.35414e-05
-4.73327e-06
1.43666e-05
-3.62328e-06
1.49069e-05
-3.14778e-06
1.53215e-05
-3.13318e-06
1.57542e-05
-3.44379e-06
1.62821e-05
-3.85952e-06
1.68932e-05
-4.14286e-06
1.75539e-05
-4.19778e-06
1.8124e-05
-4.03337e-06
1.85174e-05
-3.58232e-06
1.84949e-05
-2.65514e-06
1.77635e-05
-1.07511e-06
1.62422e-05
7.86619e-07
1.43121e-05
2.90054e-06
1.29075e-05
4.53518e-06
1.28479e-05
5.88093e-06
1.41901e-05
7.33262e-06
1.64045e-05
8.81297e-06
2.03971e-05
8.38544e-06
-7.54134e-07
3.52907e-05
5.43386e-06
-2.03262e-05
8.5905e-06
-1.30742e-05
1.04452e-05
-8.58823e-06
1.17272e-05
-6.01532e-06
1.27406e-05
-4.63665e-06
1.35683e-05
-3.97547e-06
1.42916e-05
-3.85653e-06
1.50601e-05
-4.21226e-06
1.597e-05
-4.76946e-06
1.70123e-05
-5.18517e-06
1.81106e-05
-5.29609e-06
1.92341e-05
-5.15685e-06
2.03945e-05
-4.74273e-06
2.15815e-05
-3.8422e-06
2.27522e-05
-2.24574e-06
2.36508e-05
-1.12076e-07
2.44094e-05
2.14193e-06
2.49949e-05
3.9497e-06
2.57491e-05
5.12668e-06
2.74781e-05
5.60359e-06
3.14027e-05
4.88835e-06
3.81758e-05
1.61229e-06
-6.69467e-06
4.41163e-05
3.332e-06
-2.36582e-05
4.64762e-06
-1.43898e-05
5.49197e-06
-9.43258e-06
6.53215e-06
-7.0555e-06
7.75457e-06
-5.85908e-06
8.98912e-06
-5.21002e-06
1.01761e-05
-5.04351e-06
1.14463e-05
-5.48244e-06
1.28934e-05
-6.21664e-06
1.44529e-05
-6.74459e-06
1.60366e-05
-6.87987e-06
1.76656e-05
-6.78578e-06
1.94728e-05
-6.54997e-06
2.15764e-05
-5.94582e-06
2.39551e-05
-4.62448e-06
2.64664e-05
-2.62343e-06
2.91735e-05
-5.6519e-07
3.23015e-05
8.2169e-07
3.60773e-05
1.35091e-06
4.06472e-05
1.03357e-06
4.61348e-05
-5.99225e-07
5.19831e-05
-4.23607e-06
-9.99467e-06
5.52831e-05
-1.04736e-06
-2.26108e-05
-1.83316e-06
-1.3604e-05
-1.8304e-06
-9.43533e-06
-7.81385e-07
-8.10451e-06
8.34649e-07
-7.47511e-06
2.5448e-06
-6.92017e-06
4.2183e-06
-6.717e-06
6.12359e-06
-7.38773e-06
8.12905e-06
-8.2221e-06
1.01868e-05
-8.80232e-06
1.22333e-05
-8.92644e-06
1.43854e-05
-8.93783e-06
1.67312e-05
-8.89577e-06
1.93997e-05
-8.61436e-06
2.24511e-05
-7.6759e-06
2.5832e-05
-6.00438e-06
2.95501e-05
-4.28332e-06
3.3827e-05
-3.4552e-06
3.86954e-05
-3.51753e-06
4.39526e-05
-4.22365e-06
4.92474e-05
-5.89412e-06
5.3879e-05
-8.86762e-06
-1.24731e-05
5.63574e-05
-8.98856e-06
-1.36223e-05
-1.18995e-05
-1.0693e-05
-1.18555e-05
-9.4794e-06
-1.04559e-05
-9.50402e-06
-8.25397e-06
-9.67705e-06
-5.95455e-06
-9.21958e-06
-3.57805e-06
-9.09349e-06
-1.01639e-06
-9.94939e-06
1.59264e-06
-1.08311e-05
4.1362e-06
-1.13459e-05
6.74309e-06
-1.15334e-05
9.50857e-06
-1.17033e-05
1.24529e-05
-1.18401e-05
1.55756e-05
-1.17371e-05
1.89679e-05
-1.10682e-05
2.28276e-05
-9.86414e-06
2.72822e-05
-8.73788e-06
3.22552e-05
-8.42824e-06
3.74704e-05
-8.73273e-06
4.27276e-05
-9.48085e-06
4.77409e-05
-1.09075e-05
5.19384e-05
-1.30651e-05
-1.55188e-05
5.4984e-05
-1.95411e-05
5.91881e-06
-2.23956e-05
-7.83849e-06
-2.23892e-05
-9.48571e-06
-2.10037e-05
-1.08896e-05
-1.88854e-05
-1.17953e-05
-1.61852e-05
-1.19197e-05
-1.30252e-05
-1.22535e-05
-9.90529e-06
-1.30692e-05
-6.81018e-06
-1.39263e-05
-3.74369e-06
-1.44124e-05
-4.98298e-07
-1.47788e-05
2.90353e-06
-1.51052e-05
6.45209e-06
-1.53887e-05
1.01266e-05
-1.54117e-05
1.40757e-05
-1.50173e-05
1.85765e-05
-1.43649e-05
2.36867e-05
-1.38481e-05
2.90355e-05
-1.3777e-05
3.4382e-05
-1.40792e-05
3.96505e-05
-1.47494e-05
4.46424e-05
-1.58993e-05
4.90868e-05
-1.75094e-05
-1.94385e-05
5.30065e-05
-1.85028e-05
2.44216e-05
-2.3793e-05
-2.54829e-06
-2.71527e-05
-6.12597e-06
-2.68632e-05
-1.11791e-05
-2.51551e-05
-1.35034e-05
-2.2553e-05
-1.45218e-05
-1.92285e-05
-1.5578e-05
-1.59128e-05
-1.6385e-05
-1.26887e-05
-1.71503e-05
-9.34657e-06
-1.77545e-05
-5.85727e-06
-1.82681e-05
-2.18951e-06
-1.87729e-05
1.63332e-06
-1.92115e-05
5.66944e-06
-1.94478e-05
1.00713e-05
-1.94191e-05
1.49487e-05
-1.92423e-05
2.01959e-05
-1.90953e-05
2.55963e-05
-1.91775e-05
3.10555e-05
-1.95383e-05
3.65018e-05
-2.01957e-05
4.17743e-05
-2.11719e-05
4.66889e-05
-2.2424e-05
-2.39346e-05
5.11851e-05
-2.7011e-06
2.71227e-05
-1.28045e-05
7.55509e-06
-2.55219e-05
6.5915e-06
-2.73294e-05
-9.3717e-06
-2.62805e-05
-1.45523e-05
-2.40522e-05
-1.675e-05
-2.12328e-05
-1.83975e-05
-1.81485e-05
-1.94693e-05
-1.49526e-05
-2.03462e-05
-1.16422e-05
-2.1065e-05
-8.17307e-06
-2.17372e-05
-4.51674e-06
-2.24293e-05
-6.46872e-07
-2.30814e-05
3.47696e-06
-2.35716e-05
7.9533e-06
-2.38955e-05
1.2872e-05
-2.4161e-05
1.80922e-05
-2.43155e-05
2.348e-05
-2.45652e-05
2.89705e-05
-2.50287e-05
3.45088e-05
-2.5734e-05
3.99967e-05
-2.66597e-05
4.52907e-05
-2.7718e-05
-2.88986e-05
5.02548e-05
1.91952e-05
7.92756e-06
1.61859e-05
1.05644e-05
-5.43551e-06
2.8213e-05
-2.08932e-05
6.08599e-06
-2.45979e-05
-1.08476e-05
-2.31192e-05
-1.82288e-05
-2.11698e-05
-2.03469e-05
-1.8234e-05
-2.24052e-05
-1.53493e-05
-2.32309e-05
-1.21151e-05
-2.42992e-05
-8.60993e-06
-2.52424e-05
-4.86567e-06
-2.61735e-05
-8.88376e-07
-2.70587e-05
3.36127e-06
-2.78213e-05
7.88562e-06
-2.84198e-05
1.26269e-05
-2.89023e-05
1.76182e-05
-2.93068e-05
2.28675e-05
-2.98146e-05
2.82982e-05
-3.04594e-05
3.38475e-05
-3.12832e-05
3.94733e-05
-3.22854e-05
4.50617e-05
-3.33064e-05
-3.43158e-05
5.04788e-05
2.40085e-05
-1.6081e-05
3.84823e-05
-3.90937e-06
3.35488e-05
3.31465e-05
1.57511e-05
2.38838e-05
2.27006e-06
2.63356e-06
-7.64537e-06
-8.31313e-06
-1.3205e-05
-1.47872e-05
-1.5787e-05
-1.9823e-05
-1.43512e-05
-2.46666e-05
-1.13573e-05
-2.7293e-05
-7.82404e-06
-2.87756e-05
-4.0438e-06
-2.99536e-05
1.11673e-10
-3.11024e-05
4.1126e-06
-3.19335e-05
8.62898e-06
-3.2936e-05
1.3261e-05
-3.35342e-05
1.82707e-05
-3.43164e-05
2.32872e-05
-3.48311e-05
2.85614e-05
-3.57337e-05
3.40935e-05
-3.68154e-05
3.9773e-05
-3.79649e-05
4.54827e-05
-3.90161e-05
-3.9655e-05
5.08219e-05
8.49469e-06
-2.45757e-05
1.2983e-05
-8.3977e-06
1.78673e-05
2.82623e-05
1.6716e-05
2.50352e-05
1.05506e-05
8.79901e-06
4.19154e-06
-1.95386e-06
2.28395e-07
-1.08239e-05
-1.33787e-06
-1.82566e-05
-5.61624e-07
-2.54427e-05
2.00223e-06
-2.98567e-05
5.70397e-06
-3.24771e-05
9.82167e-06
-3.40709e-05
1.4035e-05
-3.53151e-05
1.76886e-05
-3.55864e-05
1.95023e-05
-3.47489e-05
2.007e-05
-3.41013e-05
2.06489e-05
-3.48952e-05
2.35877e-05
-3.77699e-05
2.86841e-05
-4.083e-05
3.44584e-05
-4.25896e-05
4.03038e-05
-4.38101e-05
4.63166e-05
-4.50287e-05
-4.55822e-05
5.22437e-05
-6.74577e-06
-1.783e-05
-9.64364e-06
-5.49985e-06
7.92296e-07
1.78263e-05
7.83043e-06
1.7997e-05
8.60231e-06
8.02701e-06
8.20016e-06
-1.55184e-06
6.86988e-06
-9.49366e-06
6.60335e-06
-1.79901e-05
6.42983e-06
-2.52692e-05
7.1058e-06
-3.05327e-05
8.44362e-06
-3.38149e-05
9.84737e-06
-3.54746e-05
1.10182e-05
-3.64859e-05
1.1996e-05
-3.65641e-05
1.19949e-05
-3.47476e-05
1.19833e-05
-3.40894e-05
1.27274e-05
-3.56391e-05
1.48156e-05
-3.98578e-05
1.75959e-05
-4.361e-05
2.06131e-05
-4.56063e-05
2.3602e-05
-4.67982e-05
2.62011e-05
-4.76276e-05
-4.65306e-05
2.7149e-05
-8.19145e-06
-9.63852e-06
-1.2106e-05
-1.58528e-06
-4.4708e-06
1.0191e-05
2.82119e-06
1.07049e-05
6.17349e-06
4.6746e-06
7.36445e-06
-2.74295e-06
7.99265e-06
-1.0122e-05
7.56658e-06
-1.75642e-05
6.55845e-06
-2.42612e-05
5.82361e-06
-2.9798e-05
5.26998e-06
-3.32614e-05
4.78252e-06
-3.49874e-05
3.93099e-06
-3.56347e-05
3.2707e-06
-3.59041e-05
4.05225e-06
-3.55296e-05
5.17591e-06
-3.52132e-05
6.88817e-06
-3.73513e-05
8.09874e-06
-4.10684e-05
8.40603e-06
-4.39173e-05
8.39203e-06
-4.55919e-05
8.10682e-06
-4.65128e-05
7.25503e-06
-4.67755e-05
-4.54462e-05
6.16983e-06
-5.71322e-06
-3.92533e-06
-8.29483e-06
9.9634e-07
-4.23577e-06
6.13198e-06
6.63774e-07
5.80537e-06
3.80582e-06
1.5325e-06
5.35524e-06
-4.29246e-06
5.802e-06
-1.05689e-05
5.19862e-06
-1.69609e-05
3.88762e-06
-2.29504e-05
2.36938e-06
-2.82799e-05
9.74151e-07
-3.18663e-05
-1.784e-07
-3.3835e-05
-1.32836e-06
-3.4485e-05
-2.15702e-06
-3.50759e-05
-2.12887e-06
-3.55581e-05
-9.59239e-07
-3.63832e-05
-1.0968e-08
-3.83e-05
-3.00038e-07
-4.07797e-05
-1.46488e-06
-4.27526e-05
-3.13106e-06
-4.39257e-05
-5.23842e-06
-4.44055e-05
-7.82388e-06
-4.41904e-05
-4.28273e-05
-1.04438e-05
-3.86482e-06
-6.04435e-08
-5.54252e-06
2.67407e-06
-3.62074e-06
4.21022e-06
-8.08425e-07
2.99307e-06
1.30237e-06
-5.78304e-07
2.40849e-06
-5.39862e-06
2.60857e-06
-1.0769e-05
1.92821e-06
-1.62806e-05
5.65475e-07
-2.15877e-05
-1.31523e-06
-2.63992e-05
-3.09976e-06
-3.00819e-05
-4.63131e-06
-3.23036e-05
-5.88265e-06
-3.32339e-05
-6.82626e-06
-3.41325e-05
-7.29172e-06
-3.5093e-05
-7.44365e-06
-3.62316e-05
-7.94531e-06
-3.77986e-05
-9.24956e-06
-3.94757e-05
-1.12404e-05
-4.0762e-05
-1.37164e-05
-4.14497e-05
-1.66019e-05
-4.15201e-05
-1.98579e-05
-4.09346e-05
-3.95347e-05
-2.31515e-05
-3.09254e-06
3.03208e-06
-4.31165e-06
3.8932e-06
-3.62668e-06
3.52528e-06
-2.2421e-06
1.60852e-06
-1.09715e-06
-1.72323e-06
-5.30426e-07
-5.96533e-06
-6.24306e-07
-1.06751e-05
-1.38267e-06
-1.55223e-05
-2.75151e-06
-2.02189e-05
-4.65376e-06
-2.4497e-05
-6.7119e-06
-2.80239e-05
-8.61213e-06
-3.04035e-05
-1.01516e-05
-3.16945e-05
-1.14632e-05
-3.2821e-05
-1.26022e-05
-3.39542e-05
-1.37174e-05
-3.51165e-05
-1.51629e-05
-3.63533e-05
-1.71457e-05
-3.74931e-05
-1.9625e-05
-3.82827e-05
-2.2495e-05
-3.85796e-05
-2.56838e-05
-3.83313e-05
-2.91113e-05
-3.75073e-05
-3.60714e-05
-3.25756e-05
-2.79019e-06
5.82233e-06
-4.00987e-06
5.11292e-06
-4.05422e-06
3.56968e-06
-3.58147e-06
1.13581e-06
-3.15093e-06
-2.15374e-06
-3.06022e-06
-6.05601e-06
-3.44021e-06
-1.02951e-05
-4.34012e-06
-1.46224e-05
-5.74642e-06
-1.88126e-05
-7.58783e-06
-2.26557e-05
-9.74033e-06
-2.58714e-05
-1.19109e-05
-2.8233e-05
-1.37798e-05
-2.98256e-05
-1.54875e-05
-3.11134e-05
-1.71682e-05
-3.22736e-05
-1.89374e-05
-3.33475e-05
-2.09685e-05
-3.43222e-05
-2.33626e-05
-3.50991e-05
-2.61069e-05
-3.55385e-05
-2.91397e-05
-3.55466e-05
-3.2398e-05
-3.50729e-05
-3.58051e-05
-3.41002e-05
-3.26343e-05
-3.92432e-05
-2.68514e-06
8.50746e-06
-4.00408e-06
6.43188e-06
-4.49454e-06
4.06017e-06
-4.59162e-06
1.23292e-06
-4.66054e-06
-2.08479e-06
-4.94272e-06
-5.7738e-06
-5.57347e-06
-9.66434e-06
-6.61719e-06
-1.35786e-05
-8.08603e-06
-1.73438e-05
-9.95619e-06
-2.07855e-05
-1.21052e-05
-2.37224e-05
-1.43258e-05
-2.60124e-05
-1.64353e-05
-2.77162e-05
-1.84667e-05
-2.90819e-05
-2.05212e-05
-3.02191e-05
-2.26886e-05
-3.11801e-05
-2.50537e-05
-3.19572e-05
-2.76681e-05
-3.24847e-05
-3.05238e-05
-3.26829e-05
-3.35819e-05
-3.24882e-05
-3.67896e-05
-3.18649e-05
-4.00798e-05
-3.081e-05
-2.93232e-05
-4.33916e-05
-2.51011e-06
1.10176e-05
-3.8913e-06
7.81311e-06
-4.64416e-06
4.81307e-06
-5.09343e-06
1.68223e-06
-5.49977e-06
-1.67843e-06
-6.05485e-06
-5.21869e-06
-6.8807e-06
-8.83848e-06
-8.0437e-06
-1.24156e-05
-9.56533e-06
-1.58221e-05
-1.14226e-05
-1.89283e-05
-1.35363e-05
-2.16087e-05
-1.57628e-05
-2.3786e-05
-1.79863e-05
-2.54928e-05
-2.02144e-05
-2.68537e-05
-2.24878e-05
-2.79458e-05
-2.48618e-05
-2.88061e-05
-2.73851e-05
-2.94339e-05
-3.00798e-05
-2.97901e-05
-3.29378e-05
-2.98248e-05
-3.59286e-05
-2.94971e-05
-3.90087e-05
-2.87847e-05
-4.21253e-05
-2.76933e-05
-2.62207e-05
-4.52286e-05
-2.17305e-06
1.31907e-05
-3.49545e-06
9.13551e-06
-4.35853e-06
5.67617e-06
-5.00411e-06
2.32783e-06
-5.6225e-06
-1.06001e-06
-6.36101e-06
-4.48017e-06
-7.32153e-06
-7.87794e-06
-8.56317e-06
-1.1174e-05
-1.0107e-05
-1.42783e-05
-1.19361e-05
-1.70992e-05
-1.39905e-05
-1.95543e-05
-1.61801e-05
-2.15963e-05
-1.84309e-05
-2.3242e-05
-2.07287e-05
-2.4556e-05
-2.30877e-05
-2.55867e-05
-2.55328e-05
-2.63611e-05
-2.80882e-05
-2.68785e-05
-3.07612e-05
-2.71171e-05
-3.354e-05
-2.70459e-05
-3.63988e-05
-2.6638e-05
-3.93001e-05
-2.58831e-05
-4.21993e-05
-2.47941e-05
-2.336e-05
-4.50608e-05
-1.65153e-06
1.48423e-05
-2.77287e-06
1.02569e-05
-3.61163e-06
6.51496e-06
-4.32953e-06
3.04575e-06
-5.05769e-06
-3.31826e-07
-5.90053e-06
-3.63732e-06
-6.93694e-06
-6.84152e-06
-8.21391e-06
-9.89704e-06
-9.74802e-06
-1.27442e-05
-1.15258e-05
-1.53215e-05
-1.35047e-05
-1.75754e-05
-1.56241e-05
-1.94769e-05
-1.78328e-05
-2.10333e-05
-2.01105e-05
-2.22783e-05
-2.24551e-05
-2.32421e-05
-2.48745e-05
-2.39417e-05
-2.7375e-05
-2.4378e-05
-2.99541e-05
-2.4538e-05
-3.25978e-05
-2.44021e-05
-3.52807e-05
-2.39549e-05
-3.79704e-05
-2.31932e-05
-4.06304e-05
-2.21341e-05
-2.07732e-05
-4.32179e-05
-9.66019e-07
1.58082e-05
-1.75935e-06
1.10502e-05
-2.46007e-06
7.2157e-06
-3.14785e-06
3.73356e-06
-3.89848e-06
4.18823e-07
-4.77489e-06
-2.7609e-06
-5.83189e-06
-5.78452e-06
-7.10196e-06
-8.62697e-06
-8.59523e-06
-1.1251e-05
-1.02997e-05
-1.3617e-05
-1.21837e-05
-1.56914e-05
-1.42048e-05
-1.74559e-05
-1.63248e-05
-1.89132e-05
-1.85219e-05
-2.00812e-05
-2.07861e-05
-2.09779e-05
-2.31137e-05
-2.16141e-05
-2.55012e-05
-2.19906e-05
-2.79392e-05
-2.20999e-05
-3.04107e-05
-2.19306e-05
-3.28923e-05
-2.14731e-05
-3.53544e-05
-2.07309e-05
-3.77633e-05
-1.97252e-05
-1.84529e-05
-4.00842e-05
-1.82279e-07
1.59906e-05
-5.47363e-07
1.14153e-05
-1.02083e-06
7.68919e-06
-1.59306e-06
4.30581e-06
-2.2893e-06
1.11508e-06
-3.13562e-06
-1.91456e-06
-4.16165e-06
-4.75848e-06
-5.38449e-06
-7.40413e-06
-6.80695e-06
-9.82854e-06
-8.41649e-06
-1.20075e-05
-1.01877e-05
-1.39202e-05
-1.20885e-05
-1.55551e-05
-1.40887e-05
-1.6913e-05
-1.61666e-05
-1.80033e-05
-1.8308e-05
-1.88365e-05
-2.0503e-05
-1.94191e-05
-2.27415e-05
-1.97521e-05
-2.50101e-05
-1.98313e-05
-2.72911e-05
-1.96496e-05
-2.95609e-05
-1.9203e-05
-3.17928e-05
-1.84988e-05
-3.39583e-05
-1.75596e-05
-1.63959e-05
-3.60159e-05
6.34533e-07
1.5356e-05
7.2217e-07
1.13277e-05
5.39408e-07
7.87196e-06
1.55381e-07
4.68985e-06
-4.15614e-07
1.6861e-06
-1.17232e-06
-1.15785e-06
-2.1183e-06
-3.81249e-06
-3.25499e-06
-6.26744e-06
-4.57744e-06
-8.50609e-06
-6.07084e-06
-1.05141e-05
-7.71257e-06
-1.22785e-05
-9.47602e-06
-1.37917e-05
-1.13356e-05
-1.50535e-05
-1.32703e-05
-1.60686e-05
-1.52638e-05
-1.68429e-05
-1.73024e-05
-1.73805e-05
-1.93726e-05
-1.76819e-05
-2.14589e-05
-1.7745e-05
-2.35422e-05
-1.75663e-05
-2.56006e-05
-1.71444e-05
-2.761e-05
-1.64891e-05
-2.95441e-05
-1.56254e-05
-1.45687e-05
-3.13719e-05
1.32176e-06
1.40343e-05
1.88622e-06
1.07632e-05
2.03675e-06
7.72144e-06
1.89488e-06
4.83174e-06
1.50834e-06
2.07265e-06
8.99922e-07
-5.49419e-07
8.4679e-08
-2.99724e-06
-9.26799e-07
-5.25596e-06
-2.12046e-06
-7.31242e-06
-3.47668e-06
-9.15791e-06
-4.97285e-06
-1.07823e-05
-6.58494e-06
-1.21796e-05
-8.28957e-06
-1.33488e-05
-1.00663e-05
-1.42918e-05
-1.18976e-05
-1.50116e-05
-1.37679e-05
-1.55102e-05
-1.56616e-05
-1.57882e-05
-1.7562e-05
-1.58445e-05
-1.94507e-05
-1.56775e-05
-2.13062e-05
-1.52886e-05
-2.31066e-05
-1.46887e-05
-2.48301e-05
-1.39018e-05
-1.29565e-05
-2.64428e-05
1.83643e-06
1.21977e-05
2.82511e-06
9.77453e-06
3.31534e-06
7.2312e-06
3.44673e-06
4.70036e-06
3.28577e-06
2.23363e-06
2.87011e-06
-1.33751e-07
2.22765e-06
-2.35477e-06
1.37924e-06
-4.40754e-06
3.46103e-07
-6.27929e-06
-8.49781e-07
-7.96202e-06
-2.18449e-06
-9.44757e-06
-3.63285e-06
-1.07312e-05
-5.17173e-06
-1.18099e-05
-6.78095e-06
-1.26826e-05
-8.44223e-06
-1.33503e-05
-1.01388e-05
-1.38137e-05
-1.18542e-05
-1.40728e-05
-1.35716e-05
-1.41272e-05
-1.5272e-05
-1.39769e-05
-1.6936e-05
-1.36244e-05
-1.85436e-05
-1.30809e-05
-2.0074e-05
-1.23713e-05
-1.15283e-05
-2.15027e-05
2.13946e-06
1.00584e-05
3.46522e-06
8.44878e-06
4.26792e-06
6.42851e-06
4.67652e-06
4.29177e-06
4.76114e-06
2.14901e-06
4.56586e-06
6.15374e-08
4.12461e-06
-1.91351e-06
3.46622e-06
-3.74914e-06
2.61769e-06
-5.43075e-06
1.60405e-06
-6.94838e-06
4.49955e-07
-8.29347e-06
-8.20648e-07
-9.46061e-06
-2.18457e-06
-1.0446e-05
-3.61965e-06
-1.12475e-05
-5.10644e-06
-1.18635e-05
-6.6276e-06
-1.22925e-05
-8.16619e-06
-1.25342e-05
-9.70507e-06
-1.25883e-05
-1.12266e-05
-1.24554e-05
-1.27118e-05
-1.2139e-05
-1.4142e-05
-1.16506e-05
-1.54999e-05
-1.10134e-05
-1.02697e-05
-1.67589e-05
2.24411e-06
7.81412e-06
3.79611e-06
6.89675e-06
4.85274e-06
5.37186e-06
5.51321e-06
3.63131e-06
5.83834e-06
1.82389e-06
5.87007e-06
2.98147e-08
5.64344e-06
-1.68686e-06
5.19047e-06
-3.29617e-06
4.54081e-06
-4.78109e-06
3.72164e-06
-6.12921e-06
2.75908e-06
-7.3309e-06
1.67759e-06
-8.3791e-06
4.99728e-07
-9.26811e-06
-7.53788e-07
-9.99397e-06
-2.06318e-06
-1.05541e-05
-3.40905e-06
-1.09466e-05
-4.77359e-06
-1.11696e-05
-6.13994e-06
-1.1222e-05
-7.49063e-06
-1.11046e-05
-8.80793e-06
-1.08215e-05
-1.00751e-05
-1.03833e-05
-1.12755e-05
-9.81293e-06
-9.1538e-06
-1.23919e-05
2.20009e-06
5.61411e-06
3.86333e-06
5.23353e-06
5.09515e-06
4.14005e-06
5.95725e-06
2.76921e-06
6.49339e-06
1.28776e-06
6.73657e-06
-2.13349e-07
6.7183e-06
-1.66859e-06
6.47057e-06
-3.04842e-06
6.02263e-06
-4.33314e-06
5.40185e-06
-5.50842e-06
4.63416e-06
-6.56319e-06
3.74381e-06
-7.48874e-06
2.75367e-06
-8.27796e-06
1.68498e-06
-8.92525e-06
5.57024e-07
-9.42612e-06
-6.12566e-07
-9.77698e-06
-1.80631e-06
-9.97583e-06
-3.00602e-06
-1.00222e-05
-4.19455e-06
-9.91604e-06
-5.355e-06
-9.66082e-06
-6.4711e-06
-9.2671e-06
-7.5287e-06
-8.75524e-06
-8.17205e-06
-8.51084e-06
2.06561e-06
3.54842e-06
3.7412e-06
3.55794e-06
5.06545e-06
2.81581e-06
6.06583e-06
1.76885e-06
6.76532e-06
5.88291e-07
7.18438e-06
-6.32391e-07
7.35078e-06
-1.83499e-06
7.29197e-06
-2.9896e-06
7.03459e-06
-4.07575e-06
6.60431e-06
-5.07814e-06
6.02575e-06
-5.98462e-06
5.32224e-06
-6.78521e-06
4.51577e-06
-7.47146e-06
3.62688e-06
-8.03634e-06
2.6748e-06
-8.47401e-06
1.67771e-06
-8.77987e-06
6.52644e-07
-8.95075e-06
-3.84811e-07
-8.98476e-06
-1.41849e-06
-8.88229e-06
-2.4312e-06
-8.64794e-06
-3.40727e-06
-8.29088e-06
-4.33185e-06
-7.83062e-06
-7.30786e-06
-5.19636e-06
1.88184e-06
1.66674e-06
3.50086e-06
1.939e-06
4.84792e-06
1.4688e-06
5.92236e-06
6.94445e-07
6.72919e-06
-2.18519e-07
7.27966e-06
-1.18284e-06
7.59419e-06
-2.1495e-06
7.69468e-06
-3.09008e-06
7.60385e-06
-3.98491e-06
7.34456e-06
-4.81884e-06
6.93922e-06
-5.57927e-06
6.40937e-06
-6.25534e-06
5.77549e-06
-6.83757e-06
5.05693e-06
-7.31775e-06
4.27188e-06
-7.68894e-06
3.43761e-06
-7.94556e-06
2.57045e-06
-8.08357e-06
1.68631e-06
-8.10059e-06
8.00598e-07
-7.99651e-06
-7.2426e-08
-7.77473e-06
-9.18723e-07
-7.44448e-06
-1.72288e-06
-7.02633e-06
-6.55986e-06
-2.47115e-06
1.67201e-06
-5.20255e-09
3.19475e-06
4.16357e-07
4.51493e-06
1.48689e-07
5.60988e-06
-4.00454e-07
6.47258e-06
-1.08119e-06
7.10757e-06
-1.8178e-06
7.52783e-06
-2.56974e-06
7.75007e-06
-3.31231e-06
7.79309e-06
-4.02792e-06
7.67656e-06
-4.7023e-06
7.42019e-06
-5.32289e-06
7.0432e-06
-5.87833e-06
6.56402e-06
-6.35837e-06
6.00022e-06
-6.75392e-06
5.36849e-06
-7.05719e-06
4.68475e-06
-7.2618e-06
3.96421e-06
-7.363e-06
3.22156e-06
-7.35792e-06
2.47116e-06
-7.24604e-06
1.72703e-06
-7.03044e-06
1.0005e-06
-6.71781e-06
2.97961e-07
-6.32377e-06
-5.91583e-06
-3.46319e-07
1.4684e-06
-1.47338e-06
2.87096e-06
-9.86048e-07
4.12715e-06
-1.10741e-06
5.20048e-06
-1.47372e-06
6.07485e-06
-1.95551e-06
6.74963e-06
-2.49255e-06
7.23272e-06
-3.0528e-06
7.53687e-06
-3.61644e-06
7.67752e-06
-4.16856e-06
7.67129e-06
-4.69606e-06
7.53504e-06
-5.18663e-06
7.28536e-06
-5.62864e-06
6.93829e-06
-6.01128e-06
6.50925e-06
-6.32486e-06
6.01305e-06
-6.56096e-06
5.46393e-06
-6.71266e-06
4.87567e-06
-6.77472e-06
4.2617e-06
-6.74392e-06
3.63499e-06
-6.61928e-06
3.00835e-06
-6.40367e-06
2.39491e-06
-6.10432e-06
1.80825e-06
-5.73702e-06
-5.3573e-06
1.24949e-06
1.29174e-06
-2.76488e-06
2.56499e-06
-2.25914e-06
3.73053e-06
-2.27283e-06
4.74655e-06
-2.48967e-06
5.5939e-06
-2.80282e-06
6.26848e-06
-3.16711e-06
6.77511e-06
-3.55943e-06
7.12378e-06
-3.9651e-06
7.32712e-06
-4.3719e-06
7.39896e-06
-4.76789e-06
7.35333e-06
-5.141e-06
7.20411e-06
-5.47941e-06
6.96479e-06
-5.77195e-06
6.64846e-06
-6.00852e-06
6.26786e-06
-6.18035e-06
5.83538e-06
-6.28016e-06
5.36313e-06
-6.30245e-06
4.86295e-06
-6.24372e-06
4.34673e-06
-6.10301e-06
3.8261e-06
-5.88295e-06
3.31197e-06
-5.59009e-06
2.81486e-06
-5.23992e-06
-4.88246e-06
2.33983e-06
1.14895e-06
-3.91363e-06
2.28952e-06
-3.39953e-06
3.34314e-06
-3.32633e-06
4.27309e-06
-3.41956e-06
5.06141e-06
-3.5911e-06
5.70277e-06
-3.80844e-06
6.20018e-06
-4.05684e-06
6.56159e-06
-4.3265e-06
6.79727e-06
-4.60759e-06
6.91844e-06
-4.88906e-06
6.93641e-06
-5.15898e-06
6.86238e-06
-5.40538e-06
6.70731e-06
-5.61687e-06
6.48196e-06
-5.78317e-06
6.19694e-06
-5.89532e-06
5.86276e-06
-5.94597e-06
5.48983e-06
-5.92951e-06
5.08854e-06
-5.84242e-06
4.66913e-06
-5.68357e-06
4.24167e-06
-5.4554e-06
3.81653e-06
-5.16493e-06
3.40226e-06
-4.82559e-06
-4.48742e-06
3.00706e-06
1.03666e-06
-4.94992e-06
2.035e-06
-4.39764e-06
2.95767e-06
-4.24886e-06
3.78045e-06
-4.24227e-06
4.48672e-06
-4.29733e-06
5.07048e-06
-4.39218e-06
5.53382e-06
-4.52018e-06
5.88325e-06
-4.67593e-06
6.12703e-06
-4.85139e-06
6.27394e-06
-5.03597e-06
6.33271e-06
-5.21776e-06
6.31197e-06
-5.38465e-06
6.22028e-06
-5.52518e-06
6.06618e-06
-5.62907e-06
5.85828e-06
-5.68742e-06
5.60526e-06
-5.69295e-06
5.31591e-06
-5.64015e-06
4.99904e-06
-5.52555e-06
4.66368e-06
-5.34818e-06
4.31892e-06
-5.11059e-06
3.97296e-06
-4.81893e-06
3.63398e-06
-4.48665e-06
-4.16217e-06
3.30857e-06
9.2771e-07
-5.87742e-06
1.76858e-06
-5.23831e-06
2.55058e-06
-5.03073e-06
3.25592e-06
-4.94752e-06
3.86676e-06
-4.90812e-06
4.3771e-06
-4.90249e-06
4.78923e-06
-4.9323e-06
5.10888e-06
-4.99558e-06
5.34265e-06
-5.08516e-06
5.49706e-06
-5.19039e-06
5.57843e-06
-5.29914e-06
5.59303e-06
-5.39925e-06
5.54721e-06
-5.47936e-06
5.44751e-06
-5.52936e-06
5.30069e-06
-5.5406e-06
5.11378e-06
-5.50604e-06
4.89404e-06
-5.42041e-06
4.64898e-06
-5.28048e-06
4.3861e-06
-5.0853e-06
4.11305e-06
-4.83751e-06