/*--------------------------------*- C++ -*----------------------------------*\
  =========                 |
  \\      /  F ield         | OpenFOAM: The Open Source CFD Toolbox
   \\    /   O peration     | Website:  https://openfoam.org
    \\  /    A nd           | Version:  13
     \\/     M anipulation  |
\*---------------------------------------------------------------------------*/
FoamFile
{
    format      ascii;
    class       volScalarField;
    location    "1.5";
    object      rho;
}
// * * * * * * * * * * * * * * * * * * * * * * * * * * * * * * * * * * * * * //

dimensions      [1 -3 0 0 0 0 0];

internalField   nonuniform List<scalar> 
2268
(
13529
13529
13529
13529
13529
13529
13529
13529
13529
13529
13529
13529
13529
13529
13529
13529
13529
13529
13529
13529
13529
13523.3
13521.6
13529
13529
13529
13529
13529
13529
13529
13529
13529
13529
13529
13529
13529
13529
13529
13529
13529
13529
13529
13529
13529
13527.5
13521.6
13529
13529
13529
13529
13529
13529
13529
13529
13529
13529
13529
13529
13529
13529
13529
13529
13529
13529
13529
13529
13529
13529
13524.9
13529
13529
13529
13529
13529
13529
13529
13529
13529
13529
13529
13529
13529
13529
13529
13529
13529
13529
13529
13529
13529
13529
13528.8
11859.6
11926.3
12075.2
12286.5
12527
12784
13044.7
13281.9
13455.5
13528
13529
13529
13529
13529
13529
13529
13529
13529
13529
13529
13529
13529
13529
2170
2488.32
2746.32
3029.25
3375.78
3835.7
4476.81
5365.58
6577.21
8185.49
10046.5
11541.5
12731.7
13407.4
13529
13529
13529
13529
13529
13529
13529
13529
13529
1000
1000
1000
1000
1000
1000
1000
1000
1000
1000
1112.27
1972.84
3546.2
6074.57
9473.98
12403.2
13529
13529
13529
13529
13529
13529
13529
1000
1000
1000
1000
1000
1000
1000
1000
1000
1000
1000
1000
1000
1000
1052.74
2269.06
5427.64
9778.68
12799.3
13528.9
13528.8
13528.6
13528.9
11924.4
11910.5
11849.8
8530.69
7566.95
7591.15
7975.88
8182.94
8160.1
8139.93
8815.96
9266.85
9613.95
9661.28
9674.68
9660.14
9635.2
9642.13
9621.55
11925.5
11708
11637.4
11791.5
11740.8
11742.2
11505.1
10899.9
10560.2
9370.25
7757.77
7942.6
8068.6
8285.73
8114.96
8528.79
8971.75
8866.02
7759.12
11921.6
7242.94
5628.02
8524.33
9121.69
7604.37
5564.01
4816.91
4380.01
4449.64
4777.12
4207.19
3840.99
3671.76
4020.33
4084.48
3980.2
4623.82
5422.99
11798.3
7838.01
3625.21
2593.25
1983.45
1250.22
876.116
637.582
802.174
1609.9
2615.68
2989.96
3201.31
2950.74
2925.56
2764.33
2382.15
2391.93
2997.97
10665.4
6307.23
5766.08
1333.4
1001.16
1001.1
996.146
931.676
808.195
685.242
537.192
1118.53
1616.69
2335.66
2463.94
2556.57
2213.84
1685.25
1473.83
3093.29
1537.78
3288.25
2101.04
1001.11
1001.11
1008.25
1013.18
1012.78
987.228
899.844
837.528
893.85
939.231
940.805
976.41
984.812
880.398
738.107
1722.09
1637.12
1746.08
1789.29
1042.81
1001.09
1002.58
1008.27
1005.72
1001.82
1000.05
981.372
986.959
989.067
895.307
671.174
653.341
743.152
791.043
1063.09
1464.79
1811.64
1801.35
1013.57
1000.03
1000.74
1000.96
1001.13
1000.45
1000.32
1000.58
1000.4
1002.94
819.801
538.464
501.362
636.461
708.233
1000
1000
1000
1000
1000
1000
1000
1000
1000
1000
1000
1000
1000
1000
1000
1000
1011.44
1307.63
2337.25
4138.56
6005.19
7589.25
10587.6
1000
1000
1000
1000
1000
1000
1000
1000
1000
1000
1000
1000
1000
1000
1000
1000
1000
1000
1000
1000
999.994
1014.11
1080.53
1000
1000
999.962
999.866
1000
1000
1000
1000
1000
1000
1000
1000
1000
1000
1000
1000
1000
1000
1000
1000
1000.01
999.996
999.078
999.974
968.759
953.784
957.205
962.345
970.257
963.773
950.371
959.072
964.76
956.21
944.495
952.198
972.384
982.758
976.495
973.356
980.517
993.236
997.032
994.94
993.563
902.11
850.851
672.371
594.62
592.576
600.827
595.181
578.354
605.624
609.209
617.853
610.892
618.487
630.958
660.891
693.186
684.589
645.827
653.773
688.367
692.776
658.808
600.711
497.789
387.03
469.781
491.613
492.504
492.798
453.077
424.15
430.185
447.066
436.26
428.568
424.746
429.681
431.607
424.012
419.403
433.577
462.983
479.225
479.373
480.365
485.688
498.563
303.164
458.597
445.266
475.039
493.113
499.297
500
500
500
500
500
500
500
500
500
500
500
500
500
500
500
500
500
199.584
112.752
77.6112
148.62
222.89
292.003
359.795
397.208
427.937
452.863
471.498
485.045
494.021
498.854
500
500
500
500
500
500
500
500
500
78.8594
18.8391
1.02916
1.00864
1.00002
1.00001
4.06209
25.5028
49.6529
78.3611
110.973
148.653
191.097
237.009
284.517
334.15
372.143
398.626
417.806
431.758
442.542
444.476
441.866
16.7565
11.7442
1.25028
1.00291
1.00004
1.00003
1.00003
1.00002
1.00009
1.00013
1.00038
1.00039
1.00007
1.00001
1
1
9.52592
23.4734
36.7694
49.0326
61.1209
64.4536
62.1792
3.56859
4.81304
1.41254
1.00033
1.00003
1.00002
1.00002
1.0001
1
1.00009
1.0005
1.0005
1.00011
1.00003
1.00001
1.00002
1.00001
1.00001
1.00001
1
1
1
1
1.00024
1.28666
1.07906
1.00015
1.00007
1.00005
1.00007
1.00027
1.00212
1.00742
1.03263
1.0027
1.00057
1.00018
1.00007
1.0001
1.00008
1.00012
1.00025
1.00017
1.00014
1.00013
1.00013
1.00028
1.00035
1.0038
1.00046
1.00012
1.00007
1.0001
1.00022
1.00476
1.0716
1.08843
1.02726
1.00183
1.00055
1.00037
1.00071
1.00067
1.00072
1.00053
1.00047
1.00042
1.00026
1.00014
1.0004
1.00106
1.00067
1.00025
1.00007
1.00005
1.00009
1.00019
1.00847
1.08638
1.08789
1.08602
1.00829
1.00112
1.00117
1.00218
1.00181
1.00087
1.0004
1.00022
1.00012
1.0001
1.00004
1.00014
1.00037
1.0001
1.00006
1.00004
1.00005
1.00008
1.00019
1.00493
1.04721
1.08641
1.08729
1.02115
1.00208
1.00274
1.00311
1.00312
1.0004
1.00007
1.00003
1.00005
1.00004
1.00002
1.00003
1.00005
1.00006
1.00005
1.00004
1.00004
1.00004
1.00005
1.00001
1.00002
1.03936
1.07153
1.01747
1.00303
1.00314
1.00306
1.00228
1.00019
1.00004
1.00003
1.00004
1.00003
1.00002
1.00003
1.00005
1.00006
1.00005
1.00004
1.00003
1.00002
1.00002
1.00001
1.00002
1.00001
1.00001
1.00356
1.00195
1.00159
1.00129
1.00003
1.0001
1.00005
1.00003
1.00003
1.00003
1.00002
1.00003
1.00005
1.00005
1.00005
1.00004
1.00002
1.00001
1.00001
1.00001
1.00001
1.00001
1.00001
1.00006
1.00261
1.00092
1.00001
1.00001
1.00005
1.00005
1.00002
1.00002
1.00002
1.00002
1.00003
1.00004
1.00004
1.00005
1.00004
1.00002
1.00001
1.00001
1.00001
1.00001
1.00001
1.00003
1.00032
1.00098
1.00077
1.00002
1.00002
1.00004
1.00004
1.00002
1.00001
1.00001
1.00001
1.00002
1.00003
1.00003
1.00004
1.00003
1.00002
1.00001
1.00001
1.00001
1.00001
1.00001
1.00001
1
1
1
1.00012
1.00003
1.00002
1.00002
1.00001
1.00001
1.00001
1.00001
1.00002
1.00002
1.00002
1.00002
1.00003
1.00002
1.00001
1.00001
1.00001
1.00001
1.00001
1.00001
1
1
1
1.00001
1.00001
1.00001
1.00001
1
1
1
1
1.00001
1.00001
1.00001
1.00001
1.00002
1.00002
1.00001
1.00001
1
1
1
1
1
1
1
1
1
1
1
1
1
1
1
1.00001
1.00001
1.00001
1.00001
1.00001
1.00001
1.00001
1
1
1
1
1
1
1
1
1
1
1
1
1
1
1
1
1.00001
1.00001
1
1
1
1.00001
1.00001
1
1
1
1
1
1
1
1
1
1
1
1
1
1
1
1
1.00001
1
1
1
1
1
1
1
1
1
1
1
1
1
1
1
1
1
1
1
1
1
1
1
1
1
1
1
1
1
1
1
1
1
1
1
1
1
1
1
1
1
1
1
1
1
1
1
1
1
1
1
1
1
1
1
1
1
1
1
1
1
1
1
1
1
1
1
1
1
1
1
1
1
1
1
1
1
1
1
1
1
1
1
1
1
1
1
1
1
1
1
1
1
1
1
1
1
1
1
1
1
1
1
1
1
1
1
1
1
1
1
1
1
1
1
1
1
1
1
1
1
1
1
1
1
1
1
1
1
1
1
1
1
1
1
1
1
1
1
1
1
1
1
1
1
1
1
1
1
1
1
1
1
1
1
1
1
1
1
1
1
1
1
1
1
1
1
1
1
1
1
1
1
1
1
1
1
1
1
1
1
1
1
1
1
1
1
1
1
1
1
1
1
1
1
1
1
1
1
1
1
1
1
1
1
1
1
1
1
1
1
1
1
1
1
1
1
1
1
1
1
1
1
1
1
1
1
1
1
1
1
1
1
1
1
1
1
1
1
1
1
1
1
1
1
1
1
1
1
1
1
1
1
1
1
1
1
1
1
1
1
1
1
1
1
1
1
1
1
1
1
1
1
1
1
1
1
1
1
1
1
1
1
1
1
1
1
1
1
1
1
1
1
1
1
1
1
1
1
1
1
1
1
1
1
1
1
1
1
1
1
1
1
1
1
1
1
1
1
1
1
1
1
1
1
1
1
1
1
1
1
1
1
1
1
1
1
1
1
1
1
1
1
1
1
1
1
1
1
1
1
1
1
1
1
1
1
1
1
1
1
1
1
1
1
1
1
1
1
1
1
1
1
1
1
1
1
1
1
1
1
1
1
1
1
1
1
1
1
1
1
1
1
1
1
1
1
1
1
1
1
1
1
1
1
1
1
1
1
1
1
1
1
9621.68
5597.68
1052.49
1051.24
1023.65
1027.32
1028.58
1010.65
989.685
990.795
995.182
847.013
755.191
734.315
758.607
716.477
438.121
468.259
497.302
497.461
499.993
500
500
500
500
500
500
500
500
500
500
500
439.535
434.622
428.391
426.951
60.8241
56.4387
48.5881
48.0004
1
1.00001
0.999992
1.00003
1.00011
1.00013
1.00012
1.00011
1.00014
1.0001
1.0001
1.00008
1.00003
1.00002
1.00002
1.00002
1.00001
1.00001
1.00001
1.00001
1.00001
1.00001
1.00001
1.00001
1.00001
1.00001
1.00001
1.00001
1.00001
1.00001
1.00001
1.00001
1.00001
1.00001
1.00001
1.00001
1.00001
1.00001
1.00001
1
1
1
1
1
1
1
1
1
1
1
1
1
1
1
1
1
1
1
1
1
1
1
1
1
1
1
1
1
1
1
1
1
1
1
1
1
1
1
1
1
1
1
1
1
1
1
1
1
1
1
1
1
1
1
1
1
1
1
1
1
1
1
1
1
1
1
1
1
1
1
1
1
1
1
1
1
1
1
1
1
1
1
1
1
1
1
1
1
909.057
1554.34
1787.98
2016.3
1348.46
1000.01
1000.05
1000.04
999.435
998.991
983.695
957.023
929.702
850.236
652.559
508.471
504.974
504.043
643.228
943.468
979.525
1263.96
1725.48
1568.38
942.276
971.008
974.032
914.285
674.164
594.581
576.162
548.918
515.895
502.404
503.981
502.261
500.013
559.724
906.353
551.609
494.028
596.467
773.993
834.574
788.892
677.006
523.594
500.099
499.977
499.915
499.913
500.225
500.177
499.832
499.861
500.009
513.727
473.1
513.882
500.308
500.029
493.342
435.293
454.953
469.524
504.678
500.012
499.997
499.944
499.956
499.997
500
500.032
500.005
500.011
495.406
499.998
500.022
500.089
500.097
500.054
498.943
489.49
491.59
499.66
500.278
500.091
499.978
499.968
499.995
499.999
500.035
500.063
500.023
504.472
500
500
500.003
500.026
500.026
500.021
500.02
500.005
500.03
500.03
500.008
499.994
499.994
499.999
500.006
500.049
500.063
500.019
515.385
500
500
500
500
500.001
500
500
500
500.001
500
500
500
499.999
499.999
500.012
500.041
500.032
500.059
566.631
500
500
500
498.281
484.727
463.398
433.584
424.907
437.517
433.415
364.12
355.573
380.326
386.4
375.83
407.374
471.989
502.71
584.262
408.902
361.076
307.412
247.559
168.152
105.995
63.5286
15.4018
16.1772
25.234
18.6791
19.1636
26.026
24.2658
19.4383
35.4738
89.819
265.01
514.044
38.3964
8.44686
1.00004
1.00004
1.00005
1.00005
1.00005
1.00052
1.00063
1.0011
1.00133
1.00155
1.00174
1.00209
1.0024
1.04577
1.93072
7.43153
105.853
1.00001
1.00003
1.00004
1.00004
1.00013
1.00018
1.00009
1.00006
1.00458
1.01821
1.0116
1.00044
1.00043
1.14097
1.39922
1.57076
2.41595
2.02588
9.31555
1.00008
1.00004
1.00006
1.00019
1.00047
1.00041
1.0001
1.14573
1.50955
1.49669
1.04776
1.00046
1.24231
2.37299
2.35259
2.39475
1.59039
1.00056
1.00114
1.00006
1.00003
1.00008
1.00035
1.00046
1.00035
1.01309
1.42268
1.52784
1.51911
1.00037
1.00453
1.47657
2.23734
1.90308
1.43468
1.2537
1.00024
1.00009
1.00001
1.00003
1.00006
1.00013
1.00023
1.00035
1.01828
1.14412
1.24302
1.10106
1.00389
1.01609
1.13124
1.10361
1.01233
1.00002
1.00003
1.00024
1.00009
1.00001
1.00002
1.00004
1.00009
1.00018
1.00076
1.00102
1.00014
1.00019
1.00055
1.00123
1.00226
1.00014
1.00009
1.00001
1.00002
1.00002
1.00028
1.00035
1.00001
1.00001
1.00001
1.00001
1.00002
1.00003
1.00005
1.00004
1.00012
1.00024
1.00022
1.00021
1.00001
1.00001
1.00003
1.00008
1.00023
1.00043
1.00071
1.00001
1
1
1
1
1.00001
1.00001
1.00002
1.00007
1.00014
1.00015
1.00007
1.00001
1.00001
1.00003
1.00009
1.00028
1.00059
1.00068
1.00001
1
1
1
1
1
1.00001
1.00001
1.00002
1.00005
1.00007
1.00003
1.00001
1.00001
1.00002
1.00005
1.00013
1.00022
1.00044
1.00001
1
1
1
1
1
1
1
1.00001
1.00001
1.00001
1.00001
1.00001
1.00001
1.00001
1.00002
1.00004
1.00006
1.00004
1
1
1
1
1
1
1
1
1
1
1
1
1
1
1.00001
1.00001
1.00001
1.00001
1.00001
1
1
1
1
1
1
1
1
1
1
1
1
1
1
1
1
1
1
1
1
1
1
1
1
1
1
1
1
1
1
1
1
1
1
1
1
1
1.00001
1
1
1
1
1
1
1
1
1
1
1
1
1
1
1
1
1.00001
1.00001
1.00001
1
1
1
1
1
1
1
1
1
1
1
1
1
1
1
1
1.00001
1.00001
1.00001
1
1
1
1
1
1
1
1
1
1
1
1
1
1
1
1
1.00001
1.00001
1.00001
1
1
1
1
1
1
1
1
1
1
1
1
1
1
1
1.00001
1.00001
1.00002
1.00002
1
1
1
1
1
1
1
1
1
1
1
1
1
1
1
1.00001
1.00002
1.00003
1.00002
1
1
1
1
1
1
1
1
1
1
1
1
1
1
1
1.00001
1.00002
1.00005
1.00002
1
1
1
1
1
1
1
1
1
1
1
1
1
1
1
1.00001
1.00003
1.00006
1.00002
1
1
1
1
1
1
1
1
1
1
1
1
1
1
1
1.00001
1.00004
1.00005
1.00003
1
1
1
1
1
1
1
1
1
1
1
1
1
1
1
1.00001
1.00004
1.00006
1.00002
1
1
1
1
1
1
1
1
1
1
1
1
1
1
1
1.00002
1.00005
1.00005
1.00002
1
1
1
1
1
1
1
1
1
1
1
1
1
1
1.00001
1.00002
1.00004
1.00004
1.00001
1
1
1
1
1
1
1
1
1
1
1
1
1
1
1.00001
1.00001
1.00003
1.00002
1.00001
1
1
1
1
1
1
1
1
1
1
1
1
1
1
1.00001
1.00001
1.00001
1.00001
1
1
1
1
1
1
1
1
1
1
1
1
1
1
1
1
1.00001
1
1
1
1
1
1
1
1
1
1
1
1
1
1
1
1
1
1
1
1
1
1
1
1
1
1
1
1
1
1
1
1
1
1
1
1
1
1
1
1
1
1
1
1
1
1
1
1
1
1
1
1
1
1
1
1
1
1
1
1
1
1
1
1
1
1
1
1
1
1
1
1
1
1
1
1
1
1
1
1
1
1
1
1
1
1
1
1
1
1
1
1
1
1
1
1
1
1
1
1
1
1
1
1
1
1
1
1
1
1
1
1
1
1
1
1
1
)
;

boundaryField
{
    leftWall
    {
        type            calculated;
        value           nonuniform List<scalar> 
50
(
13529
13529
13529
13529
11859.6
2170
1000
1000
1000
1000
1000
999.974
850.851
387.03
303.164
199.584
78.8594
16.7565
3.56859
1.00024
1.00028
1.0004
1.00014
1.00003
1.00003
1.00003
1.00003
1.00002
1.00002
1.00001
1.00001
1.00001
1.00001
1
1
1
1
1
1
1
1
1
1
1
1
1
1
1
1
1
)
;
    }
    rightWall
    {
        type            calculated;
        value           nonuniform List<scalar> 
50
(
9621.55
7759.12
5422.99
2997.97
1473.83
738.107
791.043
708.233
643.228
559.724
513.727
495.406
504.472
515.385
566.631
584.262
514.044
105.853
9.31555
1.00114
1.00009
1.00009
1.00035
1.00071
1.00068
1.00044
1.00004
1.00001
1
1.00001
1.00001
1.00001
1.00001
1.00002
1.00002
1.00002
1.00002
1.00003
1.00002
1.00002
1.00001
1.00001
1
1
1
1
1
1
1
1
)
;
    }
    lowerWall
    {
        type            calculated;
        value           nonuniform List<scalar> 
62
(
13529
13529
13529
13529
13529
13529
13529
13529
13529
13529
13529
13529
13529
13529
13529
13529
13529
13529
13529
13529
13529
13523.3
13521.6
13521.6
13521.6
13524.9
13528.8
13529
13529
13529
13528.9
9621.68
5597.68
1052.49
1051.24
11924.4
11925.5
11921.6
11798.3
10665.4
3093.29
1722.09
1063.09
11924.4
11910.5
11849.8
8530.69
7566.95
7591.15
7975.88
8182.94
8160.1
8139.93
8815.96
9266.85
9613.95
9661.28
9674.68
9660.14
9635.2
9642.13
9621.55
)
;
    }
    atmosphere
    {
        type            calculated;
        value           nonuniform List<scalar> 
46
(
1
1
1
1
1
1
1
1
1
1
1
1
1
1
1
1
1
1
1
1
1
1
1
1
1
1
1
1
1
1
1
1
1
1
1
1
1
1
1
1
1
1
1
1
1
1
)
;
    }
    defaultFaces
    {
        type            empty;
    }
}


// ************************************************************************* //
