/*--------------------------------*- C++ -*----------------------------------*\
  =========                 |
  \\      /  F ield         | OpenFOAM: The Open Source CFD Toolbox
   \\    /   O peration     | Website:  https://openfoam.org
    \\  /    A nd           | Version:  13
     \\/     M anipulation  |
\*---------------------------------------------------------------------------*/
FoamFile
{
    format      ascii;
    class       volVectorField;
    location    "1.5";
    object      U;
}
// * * * * * * * * * * * * * * * * * * * * * * * * * * * * * * * * * * * * * //

dimensions      [0 1 -1 0 0 0 0];

internalField   nonuniform List<vector> 
2268
(
(-0.0112229 0.00398258 0)
(-0.0148882 -0.000845123 0)
(-0.00651086 -0.00357256 0)
(0.00108746 -0.00332824 0)
(0.00751964 -0.00283953 0)
(0.0131417 -0.00268602 0)
(0.0188486 -0.00286933 0)
(0.0252822 -0.00323328 0)
(0.0327391 -0.00364364 0)
(0.0412462 -0.00399608 0)
(0.0505898 -0.00419125 0)
(0.0603612 -0.00416872 0)
(0.0700466 -0.00388553 0)
(0.0790073 -0.00326671 0)
(0.0862918 -0.00216972 0)
(0.0905278 -0.000478075 0)
(0.0898056 0.00192461 0)
(0.0823197 0.0048304 0)
(0.0668148 0.00811912 0)
(0.0427457 0.0114804 0)
(0.0113489 0.0138509 0)
(-0.0266225 0.00828998 0)
(-0.0257244 -0.0102817 0)
(-0.00425861 0.00827942 0)
(0.000989344 -0.00253209 0)
(0.00845156 -0.00531188 0)
(0.014319 -0.00480893 0)
(0.0193043 -0.00399569 0)
(0.0237377 -0.00374716 0)
(0.0282929 -0.00407792 0)
(0.0334431 -0.00473224 0)
(0.0394041 -0.00549103 0)
(0.0462065 -0.00618978 0)
(0.0537074 -0.00667963 0)
(0.0616095 -0.00684643 0)
(0.0695378 -0.00662525 0)
(0.0770506 -0.00586934 0)
(0.083477 -0.00427004 0)
(0.0877712 -0.00150443 0)
(0.0882498 0.00271898 0)
(0.0832279 0.00797677 0)
(0.0716009 0.0138975 0)
(0.0529587 0.0195952 0)
(0.0288498 0.0226718 0)
(0.000310903 0.0151048 0)
(-0.00772748 -0.0170711 0)
(0.00490834 0.00676555 0)
(0.0116763 -0.00593233 0)
(0.0180172 -0.00815758 0)
(0.0227479 -0.00723472 0)
(0.0268736 -0.00609668 0)
(0.0306678 -0.00575975 0)
(0.0346139 -0.00622324 0)
(0.0390375 -0.0071372 0)
(0.0440762 -0.00819717 0)
(0.0497346 -0.00917117 0)
(0.0559087 -0.00981043 0)
(0.0623639 -0.0100033 0)
(0.0687992 -0.00966653 0)
(0.0749118 -0.00861785 0)
(0.0802568 -0.00643982 0)
(0.084105 -0.00259481 0)
(0.0850431 0.00346034 0)
(0.0816542 0.0111164 0)
(0.073078 0.019787 0)
(0.0589206 0.0280896 0)
(0.0403805 0.0324601 0)
(0.0176083 0.0236459 0)
(0.00796564 -0.014503 0)
(0.014349 0.000288544 0)
(0.0192231 -0.00941788 0)
(0.0248074 -0.010655 0)
(0.028845 -0.00936043 0)
(0.0325181 -0.00801947 0)
(0.0360056 -0.00765945 0)
(0.0396393 -0.00826222 0)
(0.0436356 -0.00940176 0)
(0.0480752 -0.0107021 0)
(0.0529339 -0.0118665 0)
(0.0580952 -0.0126539 0)
(0.0633632 -0.0128291 0)
(0.0684942 -0.0123675 0)
(0.0732764 -0.0110821 0)
(0.0774627 -0.00841197 0)
(0.0806564 -0.00367641 0)
(0.081701 0.00390034 0)
(0.0794841 0.0134731 0)
(0.07341 0.0243655 0)
(0.0629834 0.0348718 0)
(0.0487394 0.0406907 0)
(0.0296881 0.0323415 0)
(0.0193667 -0.0060657 0)
(0.0203367 -0.0100994 0)
(0.023321 -0.0126554 0)
(0.029141 -0.0126217 0)
(0.0330397 -0.0110327 0)
(0.0366634 -0.00958678 0)
(0.0401582 -0.00923805 0)
(0.0437393 -0.00994251 0)
(0.0475577 -0.011231 0)
(0.0516746 -0.0126814 0)
(0.0559591 -0.0140057 0)
(0.0603293 -0.0149005 0)
(0.0646606 -0.0151206 0)
(0.0686739 -0.0145614 0)
(0.0722575 -0.0130339 0)
(0.075284 -0.0100067 0)
(0.0776465 -0.00465814 0)
(0.0784572 0.00407891 0)
(0.0770231 0.0151003 0)
(0.0730197 0.0276681 0)
(0.065712 0.0399573 0)
(0.0548832 0.0474261 0)
(0.0384662 0.0409714 0)
(0.0272856 0.00641997 0)
(0.0206882 -0.0157208 0)
(0.0243979 -0.0143304 0)
(0.0319479 -0.0138595 0)
(0.0361792 -0.0121157 0)
(0.0399976 -0.0106042 0)
(0.043639 -0.0102794 0)
(0.0472924 -0.0111037 0)
(0.051127 -0.0125817 0)
(0.0552136 -0.014252 0)
(0.0593724 -0.01576 0)
(0.06313 -0.0166529 0)
(0.0665318 -0.0167732 0)
(0.069586 -0.0159691 0)
(0.0720282 -0.0141697 0)
(0.0738044 -0.0109169 0)
(0.0751536 -0.00527304 0)
(0.0754368 0.00422765 0)
(0.0744508 0.016087 0)
(0.0720936 0.0297545 0)
(0.0674159 0.0436097 0)
(0.0595514 0.0529639 0)
(0.0455721 0.049745 0)
(0.0337813 0.0220926 0)
(0.0223721 -0.0275237 0)
(0.0315815 -0.0194962 0)
(0.0415541 -0.0171581 0)
(0.0462868 -0.0144172 0)
(0.0496445 -0.0125502 0)
(0.0524292 -0.0120153 0)
(0.0550217 -0.012654 0)
(0.0576885 -0.0139172 0)
(0.0605914 -0.015267 0)
(0.0631654 -0.0162479 0)
(0.0651734 -0.0167159 0)
(0.0677665 -0.0170406 0)
(0.0704044 -0.0164541 0)
(0.0727203 -0.0148701 0)
(0.0737588 -0.0114868 0)
(0.0735938 -0.00537467 0)
(0.0726613 0.00459748 0)
(0.0718391 0.0166397 0)
(0.0709429 0.0309099 0)
(0.0685507 0.0459529 0)
(0.0636091 0.0572363 0)
(0.05275 0.0584871 0)
(0.0413421 0.0432091 0)
(0.0225918 -0.0432552 0)
(0.0390802 -0.0283921 0)
(0.0526086 -0.0219938 0)
(0.0596027 -0.0173016 0)
(0.0637019 -0.0146932 0)
(0.0664348 -0.0139937 0)
(0.0685933 -0.0148009 0)
(0.0707285 -0.0164978 0)
(0.073164 -0.0182814 0)
(0.0758798 -0.0194732 0)
(0.0783005 -0.0194132 0)
(0.0791258 -0.0190943 0)
(0.078863 -0.0174013 0)
(0.0775284 -0.014726 0)
(0.0741645 -0.0105919 0)
(0.0716554 -0.00450577 0)
(0.07066 0.00532916 0)
(0.0701315 0.0173559 0)
(0.0695174 0.0318415 0)
(0.0690587 0.0472003 0)
(0.0680633 0.0596198 0)
(0.062677 0.0648213 0)
(0.0590909 0.0667351 0)
(-0.00100984 -0.00784799 0)
(0.0953562 -0.00620268 0)
(0.077355 -0.00668053 0)
(0.0992158 0.0020997 0)
(0.0714552 0.0111933 0)
(0.0382426 0.0136303 0)
(0.00141774 0.0143365 0)
(-0.0312492 0.0109722 0)
(-0.0548814 0.00782596 0)
(-0.0746773 0.00732961 0)
(-0.0969397 0.00803195 0)
(-0.10846 0.000163413 0)
(-0.101889 -0.00516011 0)
(-0.0856751 -0.00715426 0)
(-0.0676137 -0.00647632 0)
(-0.0471377 -0.00852737 0)
(-0.0245234 -0.00960408 0)
(-0.00419149 -0.00602803 0)
(-0.00379976 -0.00260719 0)
(0.0166727 -0.0418761 0)
(0.114491 -0.0111463 0)
(0.102067 -0.0021896 0)
(0.0988765 0.00770218 0)
(0.0747876 0.0184684 0)
(0.0461062 0.0223712 0)
(0.0124284 0.023008 0)
(-0.0198792 0.0183871 0)
(-0.0467776 0.0135527 0)
(-0.0662436 0.0113115 0)
(-0.0778663 0.0103089 0)
(-0.0831444 0.00103509 0)
(-0.0787517 -0.00711779 0)
(-0.06576 -0.0114017 0)
(-0.0473299 -0.012677 0)
(-0.02699 -0.0143994 0)
(-0.0111513 -0.0116155 0)
(-0.00490134 -0.00587385 0)
(-0.00512132 -0.00125013 0)
(-4.59567e-05 -0.0760893 0)
(0.117505 -0.0291545 0)
(0.134089 -0.000963492 0)
(0.130892 0.0159514 0)
(0.103732 0.0265696 0)
(0.074485 0.0312743 0)
(0.0425366 0.03349 0)
(0.00799117 0.0279593 0)
(-0.0240102 0.0214714 0)
(-0.0462409 0.0167601 0)
(-0.0556759 0.012051 0)
(-0.0581191 0.00075464 0)
(-0.054197 -0.0107181 0)
(-0.0425426 -0.017193 0)
(-0.0258469 -0.0199412 0)
(-0.00886702 -0.0207858 0)
(0.00166096 -0.0135189 0)
(-0.000879876 -0.00539197 0)
(-0.00152133 -0.00569936 0)
(-0.0265576 -0.0983864 0)
(0.0885933 -0.0558394 0)
(0.132736 -0.0239745 0)
(0.173799 0.0219084 0)
(0.152881 0.0368456 0)
(0.121445 0.0438428 0)
(0.0948241 0.0489294 0)
(0.0638444 0.0439404 0)
(0.0282878 0.0372882 0)
(-0.000265871 0.0268364 0)
(-0.0192902 0.0154565 0)
(-0.0252273 0.000983441 0)
(-0.0245172 -0.0139429 0)
(-0.0144056 -0.0236699 0)
(-0.00279503 -0.0267911 0)
(0.00666305 -0.0262035 0)
(0.0119503 -0.0153781 0)
(0.00875161 -0.00446995 0)
(0.0181793 -0.00469232 0)
(-0.0382476 -0.100945 0)
(0.06127 -0.0753291 0)
(0.103744 -0.0543639 0)
(0.18173 0.00822829 0)
(0.220506 0.0515659 0)
(0.203507 0.063031 0)
(0.182783 0.0648848 0)
(0.164162 0.0616558 0)
(0.137326 0.0545228 0)
(0.0956892 0.0391382 0)
(0.0504324 0.0247451 0)
(0.0271701 0.00513119 0)
(0.0166089 -0.0133838 0)
(0.0174766 -0.026236 0)
(0.0201071 -0.0293426 0)
(0.0181147 -0.0272701 0)
(0.0122723 -0.0155351 0)
(0.00421861 -0.0041684 0)
(0.0150875 0.00435204 0)
(-0.0404825 -0.11187 0)
(0.0356726 -0.096698 0)
(0.0873679 -0.0812963 0)
(0.169007 -0.0267771 0)
(0.242318 0.0408356 0)
(0.251648 0.0637233 0)
(0.238035 0.0681964 0)
(0.222118 0.0672405 0)
(0.202143 0.0653351 0)
(0.174307 0.0571692 0)
(0.144548 0.0426299 0)
(0.10863 0.0155533 0)
(0.0808143 -0.00900353 0)
(0.0635525 -0.0254078 0)
(0.0526322 -0.0271954 0)
(0.0334159 -0.0222244 0)
(0.00913461 -0.00975768 0)
(-0.016307 -0.000767216 0)
(-0.0340622 0.00268223 0)
(-0.00844189 -0.123325 0)
(0.0377094 -0.133281 0)
(0.0925652 -0.113925 0)
(0.167573 -0.0615773 0)
(0.244476 0.0201405 0)
(0.275468 0.0611154 0)
(0.27358 0.0719419 0)
(0.262964 0.0733936 0)
(0.247299 0.0734637 0)
(0.224863 0.0675805 0)
(0.199437 0.0543414 0)
(0.170768 0.0299319 0)
(0.142827 0.00308466 0)
(0.119261 -0.0162184 0)
(0.0964492 -0.0179454 0)
(0.0609386 -0.00763278 0)
(0.0159681 0.0058297 0)
(-0.0256476 0.0114742 0)
(-0.0556731 -0.0184049 0)
(0.0903418 -0.134874 0)
(0.085552 -0.146487 0)
(0.120775 -0.138855 0)
(0.175944 -0.0972756 0)
(0.2432 -0.00540721 0)
(0.286371 0.0537491 0)
(0.294669 0.0724449 0)
(0.291757 0.0778327 0)
(0.281314 0.0804554 0)
(0.263037 0.0773415 0)
(0.240243 0.0649209 0)
(0.21467 0.0415768 0)
(0.187256 0.0147276 0)
(0.159367 -0.00466914 0)
(0.128828 -0.00432673 0)
(0.0866333 0.0131685 0)
(0.0342577 0.0277221 0)
(-0.0132179 0.0269243 0)
(-0.0356978 -0.0362036 0)
(0.0247779 -0.0638208 0)
(0.0447264 -0.0425828 0)
(0.0604824 -0.0298756 0)
(0.06984 -0.0215831 0)
(0.0753572 -0.0170146 0)
(0.0787884 -0.015281 0)
(0.0811575 -0.0156194 0)
(0.083287 -0.0172846 0)
(0.0858605 -0.0192726 0)
(0.0889721 -0.0204362 0)
(0.0925028 -0.0207706 0)
(0.0958728 -0.0203091 0)
(0.0985318 -0.0184661 0)
(0.0999935 -0.0144835 0)
(0.0990271 -0.00736814 0)
(0.092235 -0.000165219 0)
(0.0806144 0.00846478 0)
(0.0709395 0.0188938 0)
(0.0680674 0.0325431 0)
(0.0723553 0.0474208 0)
(0.08147 0.0598375 0)
(0.0959782 0.0664001 0)
(0.13717 0.0581748 0)
(0.0217458 -0.0995357 0)
(0.0400978 -0.0644279 0)
(0.0517825 -0.042585 0)
(0.05989 -0.029443 0)
(0.0659428 -0.0221822 0)
(0.0707837 -0.0188404 0)
(0.0747904 -0.0183555 0)
(0.0786336 -0.0200796 0)
(0.0830867 -0.0226739 0)
(0.0883922 -0.0245948 0)
(0.0942098 -0.0249719 0)
(0.100167 -0.0240872 0)
(0.106306 -0.021539 0)
(0.112726 -0.0160977 0)
(0.119297 -0.00676221 0)
(0.124921 0.00532909 0)
(0.129394 0.0176008 0)
(0.133221 0.0264162 0)
(0.13606 0.0314771 0)
(0.140731 0.035909 0)
(0.153592 0.0395276 0)
(0.181192 0.0290146 0)
(0.223576 -0.0453532 0)
(0.0106576 -0.124954 0)
(0.0230768 -0.0770329 0)
(0.0270053 -0.0501405 0)
(0.0320333 -0.035944 0)
(0.0382772 -0.0284792 0)
(0.0449714 -0.0247057 0)
(0.0513986 -0.0238073 0)
(0.0578791 -0.0258311 0)
(0.0651595 -0.0292795 0)
(0.0732785 -0.0318742 0)
(0.0817455 -0.0325897 0)
(0.0903003 -0.0319098 0)
(0.0994101 -0.0300527 0)
(0.10987 -0.0258782 0)
(0.121987 -0.0177894 0)
(0.135138 -0.00623771 0)
(0.149003 0.0057965 0)
(0.164481 0.0145664 0)
(0.182742 0.0188134 0)
(0.204748 0.0178744 0)
(0.231666 0.00867934 0)
(0.263414 -0.0133992 0)
(0.291658 -0.0499262 0)
(-0.00947608 -0.129245 0)
(-0.00706687 -0.0792416 0)
(-0.0109143 -0.0533463 0)
(-0.00775013 -0.0419961 0)
(-0.000230537 -0.0363656 0)
(0.00894832 -0.032807 0)
(0.018142 -0.0315583 0)
(0.0276161 -0.0343928 0)
(0.0381673 -0.0386261 0)
(0.0490816 -0.0416337 0)
(0.0600636 -0.0423187 0)
(0.0712345 -0.0420613 0)
(0.0832402 -0.0412881 0)
(0.0966231 -0.0388989 0)
(0.111871 -0.0328212 0)
(0.12902 -0.0228557 0)
(0.148026 -0.0123724 0)
(0.169512 -0.00603525 0)
(0.194021 -0.00468497 0)
(0.221331 -0.0076745 0)
(0.250243 -0.0168122 0)
(0.277852 -0.0342335 0)
(0.298152 -0.0579084 0)
(-0.0491811 -0.103609 0)
(-0.0588511 -0.0689486 0)
(-0.0651909 -0.050766 0)
(-0.0608355 -0.0463991 0)
(-0.0508315 -0.0448617 0)
(-0.0384668 -0.0417108 0)
(-0.0255651 -0.0405468 0)
(-0.0122645 -0.04473 0)
(0.00150704 -0.0494736 0)
(0.0153344 -0.0524341 0)
(0.0290354 -0.0531781 0)
(0.0434111 -0.0536199 0)
(0.0587004 -0.0539099 0)
(0.0749959 -0.0529095 0)
(0.0922625 -0.0483877 0)
(0.111351 -0.0403029 0)
(0.133701 -0.0324849 0)
(0.159436 -0.0296937 0)
(0.186935 -0.0310353 0)
(0.215124 -0.0351855 0)
(0.24317 -0.0437916 0)
(0.26861 -0.058011 0)
(0.288281 -0.0751003 0)
(-0.108567 -0.0262746 0)
(-0.114442 -0.0509622 0)
(-0.12124 -0.0512164 0)
(-0.117585 -0.0554343 0)
(-0.107824 -0.0583158 0)
(-0.0947903 -0.0569691 0)
(-0.0787713 -0.0572933 0)
(-0.0613308 -0.0616846 0)
(-0.044771 -0.0662936 0)
(-0.0284266 -0.0686935 0)
(-0.0116429 -0.0700171 0)
(0.00626369 -0.0712257 0)
(0.0249323 -0.0722977 0)
(0.0441947 -0.071964 0)
(0.0643764 -0.0690545 0)
(0.0869184 -0.0641642 0)
(0.112944 -0.060155 0)
(0.141315 -0.0594794 0)
(0.17008 -0.0613116 0)
(0.198755 -0.0654094 0)
(0.226691 -0.0726649 0)
(0.252356 -0.0829822 0)
(0.274905 -0.0940193 0)
(-0.12038 0.0705768 0)
(-0.111364 -0.0314103 0)
(-0.140248 -0.0497625 0)
(-0.146905 -0.0626908 0)
(-0.140841 -0.0701721 0)
(-0.128978 -0.073568 0)
(-0.112558 -0.0775907 0)
(-0.0942791 -0.0822075 0)
(-0.0767396 -0.0865066 0)
(-0.0592715 -0.0896071 0)
(-0.0410245 -0.0920387 0)
(-0.0218509 -0.0943163 0)
(-0.00177546 -0.0962048 0)
(0.0192615 -0.096878 0)
(0.0417436 -0.0956584 0)
(0.0665948 -0.0932586 0)
(0.0939256 -0.0910322 0)
(0.122708 -0.0906298 0)
(0.151985 -0.0921667 0)
(0.181373 -0.0954651 0)
(0.210335 -0.100786 0)
(0.237828 -0.107954 0)
(0.263314 -0.116502 0)
(-0.0460601 0.159007 0)
(-0.0115039 0.00250418 0)
(-0.115019 -0.0269258 0)
(-0.146077 -0.0597751 0)
(-0.146647 -0.0756909 0)
(-0.136197 -0.0833701 0)
(-0.121795 -0.0896974 0)
(-0.105943 -0.0947211 0)
(-0.088883 -0.09955 0)
(-0.0715925 -0.103568 0)
(-0.0534101 -0.107225 0)
(-0.0343044 -0.110837 0)
(-0.014174 -0.114145 0)
(0.00730231 -0.1165 0)
(0.0301282 -0.117862 0)
(0.0553099 -0.118799 0)
(0.0828474 -0.119654 0)
(0.111398 -0.121065 0)
(0.140607 -0.123485 0)
(0.170308 -0.127211 0)
(0.200021 -0.132259 0)
(0.229136 -0.138235 0)
(0.257309 -0.145213 0)
(0.00322657 0.173409 0)
(0.144146 0.0695841 0)
(0.0356311 0.036452 0)
(-0.0869072 -0.0664011 0)
(-0.132116 -0.0787766 0)
(-0.131021 -0.0818466 0)
(-0.11889 -0.0918533 0)
(-0.105223 -0.1012 0)
(-0.0906022 -0.108222 0)
(-0.0741149 -0.113521 0)
(-0.0559321 -0.118202 0)
(-0.0364153 -0.122834 0)
(-0.0157036 -0.127145 0)
(0.00625085 -0.130684 0)
(0.0298603 -0.133401 0)
(0.054821 -0.135723 0)
(0.0807421 -0.137364 0)
(0.108329 -0.13986 0)
(0.137068 -0.143474 0)
(0.166633 -0.148122 0)
(0.196669 -0.153627 0)
(0.227186 -0.159459 0)
(0.257755 -0.166153 0)
(0.0539329 -0.0467913 0)
(0.167766 0.0342849 0)
(0.221303 0.27443 0)
(0.141385 0.140107 0)
(0.0419987 -0.0212993 0)
(-0.0151223 -0.103316 0)
(-0.0597782 -0.113359 0)
(-0.0868849 -0.121926 0)
(-0.0835631 -0.119185 0)
(-0.0697723 -0.1202 0)
(-0.0519351 -0.122136 0)
(-0.0320164 -0.125086 0)
(-0.011213 -0.128524 0)
(0.0110108 -0.13191 0)
(0.0335551 -0.134627 0)
(0.0578137 -0.141261 0)
(0.0850914 -0.149371 0)
(0.111307 -0.155702 0)
(0.138585 -0.161187 0)
(0.16796 -0.166802 0)
(0.198037 -0.172998 0)
(0.228862 -0.178542 0)
(0.259764 -0.182823 0)
(0.0312821 -0.149574 0)
(0.0595477 -0.0553348 0)
(0.0930663 0.17406 0)
(0.0970901 0.141313 0)
(0.0736195 0.0388435 0)
(0.0384268 -0.0142674 0)
(0.00788498 -0.076693 0)
(-0.00613699 -0.112777 0)
(-0.00730611 -0.160667 0)
(0.00244718 -0.187097 0)
(0.019734 -0.201392 0)
(0.0413197 -0.210948 0)
(0.0647944 -0.219205 0)
(0.0866401 -0.222193 0)
(0.10262 -0.228768 0)
(0.107339 -0.213981 0)
(0.105177 -0.201869 0)
(0.114831 -0.192799 0)
(0.13916 -0.189988 0)
(0.169179 -0.191125 0)
(0.200551 -0.194022 0)
(0.233083 -0.199751 0)
(0.265961 -0.206328 0)
(-0.0357505 -0.138968 0)
(-0.057056 -0.0485703 0)
(-0.0187663 0.133632 0)
(0.0284223 0.119607 0)
(0.0457 0.0499363 0)
(0.045638 -0.00956583 0)
(0.039773 -0.047424 0)
(0.0355216 -0.0999111 0)
(0.0346786 -0.140276 0)
(0.0354964 -0.167024 0)
(0.0411129 -0.183404 0)
(0.0491466 -0.192505 0)
(0.056044 -0.198862 0)
(0.0624626 -0.200112 0)
(0.0645513 -0.183905 0)
(0.0643328 -0.194998 0)
(0.0646027 -0.209051 0)
(0.0732327 -0.241038 0)
(0.0866581 -0.273551 0)
(0.102342 -0.290464 0)
(0.118809 -0.30038 0)
(0.13502 -0.307382 0)
(0.15066 -0.302097 0)
(-0.0390885 -0.0680331 0)
(-0.06643 -0.018596 0)
(-0.0445092 0.0753811 0)
(-0.000113755 0.0776644 0)
(0.0268779 0.0362849 0)
(0.0373667 -0.00915013 0)
(0.0419118 -0.0540801 0)
(0.0427517 -0.0958542 0)
(0.0383447 -0.133415 0)
(0.0328611 -0.162781 0)
(0.029598 -0.181262 0)
(0.0272103 -0.1904 0)
(0.0234696 -0.194996 0)
(0.0179925 -0.196551 0)
(0.0181762 -0.194732 0)
(0.0240619 -0.1853 0)
(0.032596 -0.199214 0)
(0.0415271 -0.225557 0)
(0.0451536 -0.242899 0)
(0.0454006 -0.252527 0)
(0.0447575 -0.258245 0)
(0.0427187 -0.260456 0)
(0.0456666 -0.253105 0)
(-0.0219449 -0.0352102 0)
(-0.0454236 -0.00139436 0)
(-0.0354097 0.0409858 0)
(-0.00784892 0.0422902 0)
(0.0140629 0.0159771 0)
(0.0259644 -0.0189571 0)
(0.0311403 -0.0552256 0)
(0.0306747 -0.0924381 0)
(0.0250233 -0.126725 0)
(0.0167928 -0.156316 0)
(0.00885397 -0.175372 0)
(0.00195102 -0.185258 0)
(-0.00419949 -0.188397 0)
(-0.0103883 -0.190566 0)
(-0.0131538 -0.19122 0)
(-0.00896595 -0.196218 0)
(-0.00150489 -0.206926 0)
(0.000741884 -0.221327 0)
(-0.00373224 -0.233489 0)
(-0.0116959 -0.241036 0)
(-0.0220389 -0.244716 0)
(-0.0337038 -0.244733 0)
(-0.0408567 -0.237282 0)
(-0.0145856 -0.0103605 0)
(-0.0295847 0.00976881 0)
(-0.0260609 0.0255723 0)
(-0.0113296 0.0215368 0)
(0.00254 0.00113988 0)
(0.0111313 -0.0269314 0)
(0.014588 -0.0580442 0)
(0.0132426 -0.0898543 0)
(0.0073237 -0.120283 0)
(-0.00169481 -0.147799 0)
(-0.012016 -0.167482 0)
(-0.0211672 -0.178601 0)
(-0.028567 -0.182732 0)
(-0.0347888 -0.186647 0)
(-0.0386024 -0.190611 0)
(-0.039582 -0.195626 0)
(-0.0404271 -0.204699 0)
(-0.0450221 -0.215575 0)
(-0.0541727 -0.224242 0)
(-0.0663854 -0.229273 0)
(-0.0811254 -0.230763 0)
(-0.0966846 -0.228466 0)
(-0.108019 -0.221304 0)
(-0.0132036 0.0082561 0)
(-0.0221707 0.0172719 0)
(-0.0222182 0.0195416 0)
(-0.0156556 0.0109317 0)
(-0.00832162 -0.00730392 0)
(-0.00351385 -0.0314017 0)
(-0.0021828 -0.0583375 0)
(-0.00455522 -0.086042 0)
(-0.010379 -0.112847 0)
(-0.0194684 -0.137444 0)
(-0.0306117 -0.157149 0)
(-0.0414053 -0.169561 0)
(-0.0507051 -0.175529 0)
(-0.0583831 -0.181109 0)
(-0.0647761 -0.187004 0)
(-0.0704119 -0.193437 0)
(-0.07687 -0.200885 0)
(-0.0859866 -0.208194 0)
(-0.0981235 -0.213547 0)
(-0.112579 -0.216047 0)
(-0.129259 -0.215422 0)
(-0.145957 -0.211499 0)
(-0.158246 -0.203922 0)
(-0.0133482 0.0232868 0)
(-0.0196144 0.0238459 0)
(-0.0222061 0.0183218 0)
(-0.0205385 0.00646727 0)
(-0.017717 -0.0112497 0)
(-0.0160771 -0.0330168 0)
(-0.0167567 -0.0569731 0)
(-0.0201665 -0.0815574 0)
(-0.0264471 -0.105355 0)
(-0.0353658 -0.127203 0)
(-0.0463791 -0.145419 0)
(-0.0582612 -0.158491 0)
(-0.0692224 -0.166375 0)
(-0.0787063 -0.172994 0)
(-0.0876058 -0.179324 0)
(-0.0966189 -0.185446 0)
(-0.106638 -0.191339 0)
(-0.118507 -0.196302 0)
(-0.132395 -0.199411 0)
(-0.147965 -0.20007 0)
(-0.165239 -0.197993 0)
(-0.181978 -0.193046 0)
(-0.194273 -0.185236 0)
(-0.013362 0.0384551 0)
(-0.0188688 0.0308476 0)
(-0.0231852 0.020076 0)
(-0.0244633 0.00579514 0)
(-0.0246216 -0.0119793 0)
(-0.0253463 -0.0323472 0)
(-0.0276837 -0.0541563 0)
(-0.0321381 -0.0762788 0)
(-0.0388961 -0.0976585 0)
(-0.0479938 -0.11718 0)
(-0.0590147 -0.133792 0)
(-0.07097 -0.146404 0)
(-0.0826856 -0.155449 0)
(-0.0937033 -0.162737 0)
(-0.104511 -0.169006 0)
(-0.115712 -0.174507 0)
(-0.127796 -0.179159 0)
(-0.141178 -0.182544 0)
(-0.155949 -0.184124 0)
(-0.171848 -0.183498 0)
(-0.18904 -0.180435 0)
(-0.205297 -0.174903 0)
(-0.217057 -0.166916 0)
(-0.0124856 0.0526977 0)
(-0.0178568 0.0383254 0)
(-0.0231785 0.0236612 0)
(-0.0262011 0.00750251 0)
(-0.0282869 -0.0105113 0)
(-0.0306826 -0.0299572 0)
(-0.0342791 -0.0501395 0)
(-0.039569 -0.0702676 0)
(-0.0467824 -0.0895388 0)
(-0.0559318 -0.107152 0)
(-0.0667514 -0.122257 0)
(-0.0785736 -0.134351 0)
(-0.0905791 -0.143654 0)
(-0.102475 -0.151079 0)
(-0.114469 -0.157121 0)
(-0.126862 -0.162017 0)
(-0.139972 -0.165747 0)
(-0.154011 -0.168046 0)
(-0.168996 -0.168579 0)
(-0.184717 -0.167079 0)
(-0.201344 -0.163398 0)
(-0.21681 -0.157552 0)
(-0.227799 -0.149527 0)
(-0.0106746 0.0655246 0)
(-0.0156766 0.0458237 0)
(-0.021262 0.0282205 0)
(-0.0251575 0.0106394 0)
(-0.0283997 -0.00759728 0)
(-0.0318911 -0.026354 0)
(-0.036355 -0.0452367 0)
(-0.0422206 -0.063717 0)
(-0.0496997 -0.0812169 0)
(-0.0588111 -0.0971497 0)
(-0.0693425 -0.110981 0)
(-0.080845 -0.122377 0)
(-0.0928152 -0.131466 0)
(-0.105006 -0.138728 0)
(-0.117461 -0.144463 0)
(-0.130314 -0.148855 0)
(-0.143722 -0.1519 0)
(-0.157799 -0.153444 0)
(-0.172514 -0.153277 0)
(-0.187653 -0.151225 0)
(-0.203431 -0.147209 0)
(-0.217876 -0.141281 0)
(-0.227835 -0.133392 0)
(-0.00798466 0.0761059 0)
(-0.0120935 0.0526202 0)
(-0.0172211 0.0329884 0)
(-0.0212845 0.0144712 0)
(-0.0250675 -0.00383808 0)
(-0.0291689 -0.0219869 0)
(-0.0341362 -0.039771 0)
(-0.040309 -0.0568622 0)
(-0.0478565 -0.0728671 0)
(-0.0567878 -0.0873835 0)
(-0.0669444 -0.100059 0)
(-0.0780196 -0.110698 0)
(-0.089678 -0.119358 0)
(-0.101723 -0.126277 0)
(-0.114112 -0.131661 0)
(-0.126881 -0.135621 0)
(-0.140088 -0.13816 0)
(-0.153771 -0.139191 0)
(-0.167866 -0.138583 0)
(-0.182179 -0.136228 0)
(-0.19688 -0.132095 0)
(-0.210172 -0.126264 0)
(-0.219066 -0.11869 0)
(-0.00457528 0.0834758 0)
(-0.00724967 0.0579622 0)
(-0.0113035 0.0372913 0)
(-0.0149519 0.0183941 0)
(-0.0187554 0.000261979 0)
(-0.0230463 -0.0172568 0)
(-0.028181 -0.0340497 0)
(-0.0344023 -0.0499335 0)
(-0.0418236 -0.0646571 0)
(-0.0504387 -0.0779574 0)
(-0.0601225 -0.0896098 0)
(-0.0706572 -0.0994916 0)
(-0.081807 -0.107626 0)
(-0.0934066 -0.11414 0)
(-0.10538 -0.119155 0)
(-0.117702 -0.122743 0)
(-0.130369 -0.12491 0)
(-0.143372 -0.125604 0)
(-0.156628 -0.124746 0)
(-0.169928 -0.122271 0)
(-0.183463 -0.118183 0)
(-0.195545 -0.112592 0)
(-0.203269 -0.105463 0)
(-0.000707904 0.0869091 0)
(-0.0015704 0.0612297 0)
(-0.0040798 0.0405773 0)
(-0.00684348 0.0219034 0)
(-0.0102119 0.0042671 0)
(-0.014324 -0.0125234 0)
(-0.0193156 -0.0283604 0)
(-0.0253401 -0.0431528 0)
(-0.0324486 -0.0567491 0)
(-0.0406137 -0.0689857 0)
(-0.0497274 -0.0797226 0)
(-0.0596239 -0.0888834 0)
(-0.0701243 -0.0964751 0)
(-0.0810869 -0.102565 0)
(-0.0924196 -0.107225 0)
(-0.104065 -0.1105 0)
(-0.115983 -0.112395 0)
(-0.128133 -0.11288 0)
(-0.140415 -0.111908 0)
(-0.152645 -0.109444 0)
(-0.164959 -0.105522 0)
(-0.175843 -0.100257 0)
(-0.182528 -0.0936727 0)
(0.00298713 0.0857228 0)
(0.00422058 0.062059 0)
(0.0036175 0.0424481 0)
(0.00210992 0.0245944 0)
(-0.000427483 0.00779103 0)
(-0.00400872 -0.00811583 0)
(-0.00856583 -0.0229742 0)
(-0.0141579 -0.0367339 0)
(-0.0207725 -0.0493026 0)
(-0.0283561 -0.0605835 0)
(-0.036804 -0.0704902 0)
(-0.0459771 -0.0789747 0)
(-0.0557287 -0.0860375 0)
(-0.0659318 -0.0917134 0)
(-0.0764883 -0.0960436 0)
(-0.0873228 -0.0990554 0)
(-0.0983728 -0.100753 0)
(-0.10958 -0.101121 0)
(-0.120842 -0.100132 0)
(-0.131967 -0.0977731 0)
(-0.1431 -0.0940917 0)
(-0.152843 -0.0892201 0)
(-0.158528 -0.083221 0)
(0.00609553 0.0803186 0)
(0.0093856 0.0602692 0)
(0.0108588 0.0425639 0)
(0.0108665 0.0260685 0)
(0.00945529 0.0104467 0)
(0.00674598 -0.00434642 0)
(0.00291843 -0.0181407 0)
(-0.00200058 -0.0308791 0)
(-0.00794119 -0.0424734 0)
(-0.0148133 -0.0528651 0)
(-0.0224999 -0.0620007 0)
(-0.0308726 -0.0698482 0)
(-0.0398007 -0.0764035 0)
(-0.0491652 -0.0816833 0)
(-0.0588654 -0.08571 0)
(-0.0688158 -0.088499 0)
(-0.0789418 -0.0900537 0)
(-0.0891747 -0.0903665 0)
(-0.0994073 -0.089424 0)
(-0.109475 -0.0872291 0)
(-0.119473 -0.0838388 0)
(-0.128157 -0.079383 0)
(-0.133029 -0.0739868 0)
(0.00825346 0.0715422 0)
(0.0133888 0.0559847 0)
(0.016887 0.040819 0)
(0.0185191 0.0261205 0)
(0.0184334 0.0119646 0)
(0.0168375 -0.00153806 0)
(0.0139699 -0.0141627 0)
(0.00994193 -0.0258077 0)
(0.00486662 -0.0364126 0)
(-0.00114572 -0.045941 0)
(-0.00797127 -0.0543388 0)
(-0.0154713 -0.0615733 0)
(-0.0235149 -0.0676381 0)
(-0.0319857 -0.0725369 0)
(-0.0407819 -0.076279 0)
(-0.0498116 -0.0788719 0)
(-0.0589935 -0.0803175 0)
(-0.0682529 -0.0806128 0)
(-0.077488 -0.0797538 0)
(-0.0865311 -0.0777528 0)
(-0.0954797 -0.074668 0)
(-0.103207 -0.0706384 0)
(-0.107307 -0.0658216 0)
(0.00934048 0.0604917 0)
(0.015942 0.0495841 0)
(0.0212077 0.0372626 0)
(0.024411 0.0246446 0)
(0.025722 0.012179 0)
(0.0253755 0.000133186 0)
(0.0236275 -0.0112099 0)
(0.0206422 -0.0217163 0)
(0.0165651 -0.0313135 0)
(0.0115339 -0.0399528 0)
(0.00568591 -0.0475937 0)
(-0.000850157 -0.0542147 0)
(-0.00795107 -0.059793 0)
(-0.015487 -0.0643146 0)
(-0.0233491 -0.0677806 0)
(-0.0314406 -0.0701901 0)
(-0.0396771 -0.0715425 0)
(-0.0479807 -0.0718366 0)
(-0.056249 -0.0710746 0)
(-0.0643369 -0.069273 0)
(-0.0723084 -0.0664955 0)
(-0.079156 -0.0628677 0)
(-0.0826581 -0.0586009 0)
(0.00949279 0.0483523 0)
(0.0170745 0.0416371 0)
(0.0236737 0.032136 0)
(0.0282347 0.021698 0)
(0.0308695 0.0110433 0)
(0.0317808 0.000562488 0)
(0.0312152 -0.00940531 0)
(0.0293532 -0.0187091 0)
(0.0263581 -0.0272605 0)
(0.0223815 -0.034999 0)
(0.0175671 -0.0418765 0)
(0.0120505 -0.0478587 0)
(0.00596094 -0.0529213 0)
(-0.000585834 -0.0570511 0)
(-0.00748947 -0.0602335 0)
(-0.0146363 -0.0624558 0)
(-0.0219352 -0.0637148 0)
(-0.0293051 -0.0640078 0)
(-0.0366503 -0.0633387 0)
(-0.043826 -0.0617277 0)
(-0.050893 -0.0592359 0)
(-0.056948 -0.0559889 0)
(-0.0598921 -0.0522165 0)
(0.00902487 0.0361299 0)
(0.0170597 0.0327951 0)
(0.0244798 0.0258362 0)
(0.0300595 0.0175009 0)
(0.0338115 0.00866207 0)
(0.0358614 -0.000220322 0)
(0.0364272 -0.00877048 0)
(0.0356757 -0.0168337 0)
(0.0337727 -0.0243076 0)
(0.0308701 -0.0311189 0)
(0.0271114 -0.0372113 0)
(0.0226315 -0.042542 0)
(0.0175576 -0.0470761 0)
(0.0120075 -0.0507872 0)
(0.00609088 -0.0536566 0)
(-9.18189e-05 -0.0556715 0)
(-0.00646278 -0.0568191 0)
(-0.0129264 -0.0570937 0)
(-0.0193828 -0.0564995 0)
(-0.0257052 -0.0550576 0)
(-0.0319318 -0.0528255 0)
(-0.0372426 -0.0499174 0)
(-0.0397562 -0.0465831 0)
(0.00823756 0.0245232 0)
(0.0162801 0.0236745 0)
(0.0240242 0.018835 0)
(0.0302355 0.012389 0)
(0.0348042 0.00524937 0)
(0.0377762 -0.00206723 0)
(0.0393172 -0.00921811 0)
(0.0395722 -0.0160435 0)
(0.0386903 -0.0224331 0)
(0.0368123 -0.0283055 0)
(0.034074 -0.0335968 0)
(0.0306044 -0.0382561 0)
(0.0265256 -0.042241 0)
(0.0219518 -0.0455169 0)
(0.0169894 -0.0480556 0)
(0.011738 -0.0498347 0)
(0.00628703 -0.0508409 0)
(0.000720447 -0.0510692 0)
(-0.0048872 -0.0505174 0)
(-0.0103964 -0.0492079 0)
(-0.0158362 -0.047194 0)
(-0.0204702 -0.0445881 0)
(-0.0225504 -0.0416198 0)
(0.00731094 0.0138102 0)
(0.01505 0.0147387 0)
(0.0227414 0.0115596 0)
(0.0292186 0.00670624 0)
(0.03428 0.0011029 0)
(0.0379095 -0.00475183 0)
(0.0402071 -0.0105751 0)
(0.0412929 -0.0162071 0)
(0.0412897 -0.0215373 0)
(0.0403211 -0.0264821 0)
(0.0385091 -0.0309736 0)
(0.0359726 -0.0349551 0)
(0.0328249 -0.0383775 0)
(0.0291728 -0.0411994 0)
(0.0251169 -0.0433861 0)
(0.0207515 -0.0449096 0)
(0.016163 -0.0457503 0)
(0.0114291 -0.0458964 0)
(0.00663914 -0.0453502 0)
(0.0019045 -0.0441327 0)
(-0.00280355 -0.042293 0)
(-0.0067804 -0.0399329 0)
(-0.00851358 -0.0372784 0)
(0.00631064 0.00415525 0)
(0.0135804 0.00618112 0)
(0.0209729 0.00428503 0)
(0.0274361 0.000776605 0)
(0.0327109 -0.00347073 0)
(0.0367274 -0.00801558 0)
(0.0395419 -0.0126194 0)
(0.0412438 -0.0171349 0)
(0.0419313 -0.0214599 0)
(0.0417089 -0.025514 0)
(0.0406833 -0.0292288 0)
(0.0389598 -0.0325439 0)
(0.0366399 -0.0354056 0)
(0.0338204 -0.0377668 0)
(0.030593 -0.0395875 0)
(0.0270445 -0.0408349 0)
(0.0232552 -0.0414853 0)
(0.0192978 -0.0415242 0)
(0.015254 -0.0409498 0)
(0.0112262 -0.039779 0)
(0.007198 -0.0380555 0)
(0.00382193 -0.0358783 0)
(0.0024595 -0.0335313 0)
(0.00537909 -0.00435527 0)
(0.0120892 -0.00175835 0)
(0.0190167 -0.00271899 0)
(0.0252536 -0.00512498 0)
(0.0305058 -0.00821075 0)
(0.0346651 -0.0116076 0)
(0.0377605 -0.015115 0)
(0.0398558 -0.0186112 0)
(0.0410295 -0.0220079 0)
(0.0413691 -0.025231 0)
(0.0409656 -0.0282133 0)
(0.0399094 -0.0308926 0)
(0.0382888 -0.0332117 0)
(0.0361879 -0.0351197 0)
(0.0336881 -0.0365724 0)
(0.0308665 -0.0375336 0)
(0.0277956 -0.0379761 0)
(0.024541 -0.0378833 0)
(0.0211797 -0.0372508 0)
(0.0178019 -0.0360951 0)
(0.014396 -0.0344522 0)
(0.0115175 -0.0324092 0)
(0.0103674 -0.0302967 0)
(0.00459525 -0.0117354 0)
(0.0107496 -0.00895433 0)
(0.0170955 -0.00926473 0)
(0.0229329 -0.0107961 0)
(0.0279594 -0.0129024 0)
(0.0320488 -0.0152988 0)
(0.0352107 -0.0178363 0)
(0.0374925 -0.0204222 0)
(0.0389578 -0.0229834 0)
(0.0396791 -0.0254527 0)
(0.039732 -0.0277643 0)
(0.0391922 -0.0298549 0)
(0.0381334 -0.031665 0)
(0.036627 -0.0331409 0)
(0.0347423 -0.0342358 0)
(0.0325461 -0.0349113 0)
(0.0301017 -0.0351381 0)
(0.0274679 -0.0348978 0)
(0.0247106 -0.0341851 0)
(0.0219157 -0.0330149 0)
(0.019075 -0.0314242 0)
(0.0166431 -0.0294966 0)
(0.015734 -0.0275181 0)
(0.00401075 -0.0182256 0)
(0.00961183 -0.0154556 0)
(0.0152867 -0.0152731 0)
(0.0205882 -0.0160791 0)
(0.0252244 -0.017353 0)
(0.0290678 -0.0188887 0)
(0.0321185 -0.0205853 0)
(0.034413 -0.0223775 0)
(0.0360028 -0.0242066 0)
(0.0369469 -0.0260107 0)
(0.0373065 -0.0277254 0)
(0.0371426 -0.0292864 0)
(0.0365148 -0.0306326 0)
(0.0354815 -0.0317089 0)
(0.0340998 -0.0324671 0)
(0.0324262 -0.0328676 0)
(0.0305145 -0.0328801 0)
(0.0284152 -0.0324855 0)
(0.0261883 -0.0316782 0)
(0.0239049 -0.0304712 0)
(0.0215568 -0.0289017 0)
(0.0195538 -0.0270465 0)
(0.0188273 -0.0251752 0)
(0.00364746 -0.0240769 0)
(0.00862415 -0.0212339 0)
(0.0135346 -0.0206219 0)
(0.0181989 -0.0208275 0)
(0.0223268 -0.0214079 0)
(0.0257961 -0.022219 0)
(0.0286026 -0.0232042 0)
(0.0307762 -0.0243231 0)
(0.0323588 -0.0255283 0)
(0.0333972 -0.0267621 0)
(0.0339389 -0.0279602 0)
(0.0340307 -0.0290577 0)
(0.033719 -0.0299929 0)
(0.0330495 -0.0307099 0)
(0.0320684 -0.0311605 0)
(0.0308216 -0.0313049 0)
(0.0293541 -0.0311131 0)
(0.0277092 -0.0305658 0)
(0.0259367 -0.0296575 0)
(0.024102 -0.0284011 0)
(0.0222007 -0.0268322 0)
(0.0205642 -0.0250231 0)
(0.0200236 -0.0232375 0)
(0.00339093 -0.0293746 0)
(0.0075869 -0.0262043 0)
(0.01169 -0.025221 0)
(0.01567 -0.0249505 0)
(0.0192254 -0.0249669 0)
(0.0222411 -0.0251815 0)
(0.0247143 -0.0255803 0)
(0.0266728 -0.0261446 0)
(0.0281516 -0.0268346 0)
(0.0291864 -0.0275939 0)
(0.029812 -0.0283578 0)
(0.0300622 -0.0290609 0)
(0.029971 -0.0296414 0)
(0.029573 -0.0300442 0)
(0.0289038 -0.0302218 0)
(0.0280002 -0.0301355 0)
(0.026899 -0.0297559 0)
(0.0256358 -0.0290651 0)
(0.0242554 -0.0280574 0)
(0.0228091 -0.0267472 0)