# vtk DataFile Version 2.0
sampleSurface
ASCII
DATASET POLYDATA
POINTS 1819 float
-0.00732575 5e-05 0 -0.0075 5e-05 0 -0.0075 0 0 -0.00732575 0
0 -0.0071515 5e-05 0 -0.0071515 0 0 -0.00697724 5e-05 0
-0.00697724 0 0 -0.00680299 5e-05 0 -0.00680299 0 0 -0.00662874
5e-05 0 -0.00662874 0 0 -0.00645472 5e-05 0 -0.00645472 0
0 -0.00628167 5e-05 0 -0.00628167 0 0 -0.0061 0 0
-0.0061 5e-05 0 -0.00732575 0.0001 0 -0.0075 0.0001 0 -0.0071515
0.0001 0 -0.00697724 0.0001 0 -0.00680299 0.0001 0 -0.00662874 0.0001
0 -0.00645472 0.0001 0 -0.00628169 0.0001 0 -0.0061 0.0001 0
-0.00732575 0.00015 0 -0.0075 0.00015 0 -0.0071515 0.00015 0 -0.00697724
0.00015 0 -0.00680299 0.00015 0 -0.00662874 0.00015 0 -0.00645471 0.00015
0 -0.00628171 0.00015 0 -0.0061 0.00015 0 -0.00732575 0.0002 0
-0.0075 0.0002 0 -0.0071515 0.0002 0 -0.00697724 0.0002 0 -0.00680299
0.0002 0 -0.00662874 0.0002 0 -0.00645471 0.0002 0 -0.00628175 0.0002
0 -0.0061 0.0002 0 -0.00732575 0.00025 0 -0.0075 0.00025 0
-0.0071515 0.00025 0 -0.00697724 0.00025 0 -0.00680299 0.00025 0 -0.00662874
0.00025 0 -0.0064547 0.00025 0 -0.00628179 0.00025 0 -0.0061 0.00025
0 -0.00732575 0.0003 0 -0.0075 0.0003 0 -0.0071515 0.0003 0
-0.00697724 0.0003 0 -0.00680299 0.0003 0 -0.00662874 0.0003 0 -0.00645469
0.0003 0 -0.00628185 0.0003 0 -0.0061 0.0003 0 -0.00732575 0.00035
0 -0.0075 0.00035 0 -0.0071515 0.00035 0 -0.00697724 0.00035 0
-0.00680299 0.00035 0 -0.00662874 0.00035 0 -0.00645468 0.00035 0 -0.00628192
0.00035 0 -0.0061 0.00035 0 -0.00732575 0.0004 0 -0.0075 0.0004
0 -0.0071515 0.0004 0 -0.00697724 0.0004 0 -0.00680299 0.0004 0
-0.00662874 0.0004 0 -0.00645467 0.0004 0 -0.00628199 0.0004 0 -0.0061
0.0004 0 -0.00732575 0.00045 0 -0.0075 0.00045 0 -0.0071515 0.00045
0 -0.00697724 0.00045 0 -0.00680299 0.00045 0 -0.00662874 0.00045 0
-0.00645465 0.00045 0 -0.00628208 0.00045 0 -0.0061 0.00045 0 -0.00732575
0.0005 0 -0.0075 0.0005 0 -0.0071515 0.0005 0 -0.00697724 0.0005
0 -0.00680299 0.0005 0 -0.00662874 0.0005 0 -0.00645463 0.0005 0
-0.00628218 0.0005 0 -0.0061 0.0005 0 -0.00732575 0.00055 0 -0.0075
0.00055 0 -0.0071515 0.00055 0 -0.00697724 0.00055 0 -0.00680299 0.00055
0 -0.00662874 0.00055 0 -0.00645461 0.00055 0 -0.00628229 0.00055 0
-0.0061 0.00055 0 -0.00732575 0.0006 0 -0.0075 0.0006 0 -0.0071515
0.0006 0 -0.00697724 0.0006 0 -0.00680299 0.0006 0 -0.00662874 0.0006
0 -0.00645459 0.0006 0 -0.00628242 0.0006 0 -0.0061 0.0006 0
-0.00732575 0.00065 0 -0.0075 0.00065 0 -0.0071515 0.00065 0 -0.00697724
0.00065 0 -0.00680299 0.00065 0 -0.00662874 0.00065 0 -0.00645456 0.00065
0 -0.00628255 0.00065 0 -0.0061 0.00065 0 -0.00732575 0.0007 0
-0.0075 0.0007 0 -0.0071515 0.0007 0 -0.00697724 0.0007 0 -0.00680299
0.0007 0 -0.00662875 0.0007 0 -0.00645456 0.0007 0 -0.00628275 0.0007
0 -0.0061 0.0007 0 -0.00732575 0.00075 0 -0.0075 0.00075 0
-0.0071515 0.00075 0 -0.00697724 0.00075 0 -0.00680299 0.00075 0 -0.00662874
0.00075 0 -0.00645457 0.00075 0 -0.00628164 0.00075 0 -0.0061 0.00075
0 -0.00251112 0.000183339 0 -0.0026 0.000183339 0 -0.0026 0 0
-0.00251113 0 0 -0.00241806 0.000183339 0 -0.00241806 0 0 -0.00232135
0.000183339 0 -0.00232135 0 0 -0.00222099 0.000183339 0 -0.002221 0
0 -0.0021169 0.000183339 0 -0.00211691 0 0 -0.00200894 0.000183339 0
-0.00200895 0 0 -0.00189697 0.000183339 0 -0.00189698 0 0 -0.00178084
0.000183339 0 -0.00178085 0 0 -0.00166039 0.000183339 0 -0.0016604 0
0 -0.00153547 0.000183339 0 -0.00153548 0 0 -0.0014059 0.000183339 0
-0.00140591 0 0 -0.00127152 0.000183339 0 -0.00127153 0 0 -0.00113215
0.000183339 0 -0.00113216 0 0 -0.000987594 0.000183339 0 -0.000987603 0
0 -0.00083767 0.000183339 0 -0.000837678 0 0 -0.000682174 0.000183339 0
-0.000682183 0 0 -0.0005209 0.000183339 0 -0.00052091 0 0 -0.000353634
0.000183339 0 -0.000353643 0 0 -0.00018015 0.000183339 0 -0.000180159 0
0 0 0 0 0 0.000183339 0 -0.00251112 0.000353777 0
-0.0026 0.000353777 0 -0.00241805 0.000353777 0 -0.00232134 0.000353777 0 -0.00222098
0.000353777 0 -0.00211689 0.000353777 0 -0.00200893 0.000353777 0 -0.00189696 0.000353777
0 -0.00178083 0.000353777 0 -0.00166038 0.000353777 0 -0.00153546 0.000353777 0
-0.00140589 0.000353777 0 -0.00127151 0.000353777 0 -0.00113213 0.000353777 0 -0.000987578
0.000353777 0 -0.000837653 0.000353777 0 -0.000682156 0.000353777 0 -0.000520882 0.000353777
0 -0.000353615 0.000353777 0 -0.000180131 0.000353777 0 0 0.000353777 0
-0.00251112 0.000512223 0 -0.0026 0.000512223 0 -0.00241805 0.000512223 0 -0.00232133
0.000512223 0 -0.00222097 0.000512223 0 -0.00211688 0.000512223 0 -0.00200892 0.000512223
0 -0.00189695 0.000512223 0 -0.00178082 0.000512223 0 -0.00166037 0.000512223 0
-0.00153544 0.000512223 0 -0.00140587 0.000512223 0 -0.00127149 0.000512223 0 -0.00113212
0.000512223 0 -0.000987561 0.000512223 0 -0.000837635 0.000512223 0 -0.000682139 0.000512223
0 -0.000520864 0.000512223 0 -0.000353596 0.000512223 0 -0.000180112 0.000512223 0
0 0.000512223 0 -0.00251112 0.000659519 0 -0.0026 0.000659519 0 -0.00241804
0.000659519 0 -0.00232132 0.000659519 0 -0.00222096 0.000659519 0 -0.00211687 0.000659519
0 -0.00200891 0.000659519 0 -0.00189694 0.000659519 0 -0.0017808 0.000659519 0
-0.00166035 0.000659519 0 -0.00153543 0.000659519 0 -0.00140586 0.000659519 0 -0.00127148
0.000659519 0 -0.0011321 0.000659519 0 -0.000987545 0.000659519 0 -0.000837619 0.000659519
0 -0.000682121 0.000659519 0 -0.000520846 0.000659519 0 -0.000353579 0.000659519 0
-0.000180094 0.000659519 0 0 0.000659519 0 -0.00251113 0.000796451 0 -0.0026
0.000796451 0 -0.00241803 0.000796451 0 -0.00232131 0.000796451 0 -0.00222095 0.000796451
0 -0.00211686 0.000796451 0 -0.0020089 0.000796451 0 -0.00189692 0.000796451 0
-0.00178079 0.000796451 0 -0.00166034 0.000796451 0 -0.00153541 0.000796451 0 -0.00140584
0.000796451 0 -0.00127146 0.000796451 0 -0.00113208 0.000796451 0 -0.000987529 0.000796451
0 -0.000837602 0.000796451 0 -0.000682105 0.000796451 0 -0.00052083 0.000796451 0
-0.000353562 0.000796451 0 -0.000180077 0.000796451 0 0 0.000796451 0 -0.00251113
0.000923748 0 -0.0026 0.000923748 0 -0.00241803 0.000923748 0 -0.0023213 0.000923748
0 -0.00222094 0.000923748 0 -0.00211685 0.000923748 0 -0.00200888 0.000923748 0
-0.00189691 0.000923748 0 -0.00178078 0.000923748 0 -0.00166032 0.000923748 0 -0.0015354
0.000923748 0 -0.00140583 0.000923748 0 -0.00127145 0.000923748 0 -0.00113207 0.000923748
0 -0.000987513 0.000923748 0 -0.000837587 0.000923748 0 -0.000682089 0.000923748 0
-0.000520814 0.000923748 0 -0.000353546 0.000923748 0 -0.000180062 0.000923748 0 0
0.000923748 0 -0.00251114 0.00104209 0 -0.0026 0.00104209 0 -0.00241802 0.00104209
0 -0.00232129 0.00104209 0 -0.00222093 0.00104209 0 -0.00211683 0.00104209 0
-0.00200887 0.00104209 0 -0.0018969 0.00104209 0 -0.00178076 0.00104209 0 -0.00166031
0.00104209 0 -0.00153538 0.00104209 0 -0.00140581 0.00104209 0 -0.00127143 0.00104209
0 -0.00113205 0.00104209 0 -0.000987499 0.00104209 0 -0.000837572 0.00104209 0
-0.000682074 0.00104209 0 -0.000520799 0.00104209 0 -0.000353531 0.00104209 0 -0.000180047
0.00104209 0 0 0.00104209 0 -0.00251114 0.0011521 0 -0.0026 0.0011521
0 -0.00241802 0.0011521 0 -0.00232128 0.0011521 0 -0.00222092 0.0011521 0
-0.00211682 0.0011521 0 -0.00200886 0.0011521 0 -0.00189688 0.0011521 0 -0.00178075
0.0011521 0 -0.0016603 0.0011521 0 -0.00153537 0.0011521 0 -0.0014058 0.0011521
0 -0.00127142 0.0011521 0 -0.00113204 0.0011521 0 -0.000987485 0.0011521 0
-0.000837558 0.0011521 0 -0.00068206 0.0011521 0 -0.000520785 0.0011521 0 -0.000353517
0.0011521 0 -0.000180033 0.0011521 0 0 0.0011521 0 -0.00251115 0.00125437
0 -0.0026 0.00125437 0 -0.00241801 0.00125437 0 -0.00232127 0.00125437 0
-0.00222091 0.00125437 0 -0.00211681 0.00125437 0 -0.00200885 0.00125437 0 -0.00189687
0.00125437 0 -0.00178074 0.00125437 0 -0.00166029 0.00125437 0 -0.00153536 0.00125437
0 -0.00140579 0.00125437 0 -0.0012714 0.00125437 0 -0.00113203 0.00125437 0
-0.000987472 0.00125437 0 -0.000837545 0.00125437 0 -0.000682047 0.00125437 0 -0.000520772
0.00125437 0 -0.000353504 0.00125437 0 -0.000180021 0.00125437 0 0 0.00125437
0 -0.00251116 0.00134945 0 -0.0026 0.00134945 0 -0.00241801 0.00134945 0
-0.00232126 0.00134945 0 -0.00222089 0.00134945 0 -0.0021168 0.00134945 0 -0.00200884
0.00134945 0 -0.00189686 0.00134945 0 -0.00178072 0.00134945 0 -0.00166027 0.00134945
0 -0.00153535 0.00134945 0 -0.00140578 0.00134945 0 -0.00127139 0.00134945 0
-0.00113202 0.00134945 0 -0.00098746 0.00134945 0 -0.000837533 0.00134945 0 -0.000682035
0.00134945 0 -0.00052076 0.00134945 0 -0.000353492 0.00134945 0 -0.000180009 0.00134945
0 0 0.00134945 0 -0.00251117 0.00143783 0 -0.0026 0.00143783 0
-0.002418 0.00143783 0 -0.00232125 0.00143783 0 -0.00222088 0.00143783 0 -0.00211679
0.00143783 0 -0.00200883 0.00143783 0 -0.00189685 0.00143783 0 -0.00178071 0.00143783
0 -0.00166026 0.00143783 0 -0.00153533 0.00143783 0 -0.00140577 0.00143783 0
-0.00127138 0.00143783 0 -0.001132 0.00143783 0 -0.000987449 0.00143783 0 -0.000837522
0.00143783 0 -0.000682024 0.00143783 0 -0.000520749 0.00143783 0 -0.000353481 0.00143783
0 -0.000179999 0.00143783 0 0 0.00143783 0 -0.00251118 0.00152 0
-0.0026 0.00152 0 -0.002418 0.00152 0 -0.00232124 0.00152 0 -0.00222087
0.00152 0 -0.00211678 0.00152 0 -0.00200881 0.00152 0 -0.00189684 0.00152
0 -0.0017807 0.00152 0 -0.00166025 0.00152 0 -0.00153532 0.00152 0
-0.00140575 0.00152 0 -0.00127137 0.00152 0 -0.00113199 0.00152 0 -0.000987438
0.00152 0 -0.000837512 0.00152 0 -0.000682014 0.00152 0 -0.000520739 0.00152
0 -0.000353471 0.00152 0 -0.000179989 0.00152 0 0 0.00152 0
-0.00251119 0.00159638 0 -0.0026 0.00159638 0 -0.00241799 0.00159638 0 -0.00232123
0.00159638 0 -0.00222086 0.00159638 0 -0.00211677 0.00159638 0 -0.00200881 0.00159638
0 -0.00189683 0.00159638 0 -0.00178069 0.00159638 0 -0.00166024 0.00159638 0
-0.00153531 0.00159638 0 -0.00140575 0.00159638 0 -0.00127136 0.00159638 0 -0.00113198
0.00159638 0 -0.000987429 0.00159638 0 -0.000837502 0.00159638 0 -0.000682005 0.00159638
[...]
POINT_DATA 1819
FIELD attributes 2
p 1 1819 float
0.0196051 -0.0280094 -0.0215627 0.0194212 0.0678418 0.0675809 0.111468 0.111089 0.141869 0.141421 0.140005
0.13963 0.0986481 0.0985951 0.0451111 0.0455116 0.0203214 0.0198288 0.0198566 -0.0267658 0.0679476
0.111528 0.141863 0.139683 0.0975575 0.0432928 0.0177619 0.0200319 -0.0257992 0.0675723 0.110758
0.140779 0.137992 0.0946946 0.0396663 0.0140776 0.020276 -0.0245682 0.0670569 0.1097 0.139285
0.135611 0.090584 0.0344008 0.00869691 0.0205551 -0.0230672 0.0663584 0.108279 0.13723 0.132302
0.0849801 0.0273294 0.00150523 0.0208272 -0.0213333 0.0654175 0.106397 0.13443 0.127784 0.0776045
0.0182439 -0.00767612 0.0210525 -0.0194164 0.0641834 0.103963 0.13073 0.121832 0.0682835 0.00704648
-0.0189501 0.0211901 -0.0173734 0.0626092 0.100882 0.126009 0.114374 0.0571133 -0.00605165 -0.0321345
0.0212011 -0.0152652 0.0606541 0.0970689 0.120197 0.105589 0.044615 -0.0203742 -0.0465412 0.0210538
-0.0131528 0.0582936 0.0924796 0.113284 0.0959304 0.0317283 -0.0348206 -0.0609771 0.0207279 -0.0110937
0.0555316 0.0871412 0.105369 0.0859888 0.0197346 -0.0480751 -0.0743523 0.0202158 -0.00913728 0.0524016
0.081157 0.0966763 0.0762197 0.00995388 -0.058739 -0.0859167 0.0195195 -0.00732253 0.0489489 0.0746515
0.0874158 0.0666221 0.00230092 -0.0694994 -0.101242 0.018645 -0.00567691 0.0452131 0.0677348 0.07772
0.0566978 -0.00548557 -0.0842895 -0.124953 0.017308 -0.00361744 0.0401782 0.0586941 0.0653302 0.0438595
-0.0156108 -0.0913806 -0.143176 4.58134 4.58431 4.58708 4.58455 4.57404 4.57733 4.56208
4.56547 4.54493 4.54841 4.52255 4.52613 4.49543 4.49909 4.46442 4.46812 4.43055
4.43424 4.39498 4.3986 4.35888 4.36238 4.32342 4.32674 4.28963 4.29272 4.25838
4.26121 4.23035 4.23291 4.20607 4.20837 4.1859 4.18796 4.17009 4.17196 4.15889
4.1606 4.1527 4.15431 4.1525 4.15114 4.57311 4.5759 4.56568 4.55351 4.53611
4.51344 4.48606 4.45487 4.42094 4.38547 4.34966 4.31463 4.28141 4.25081 4.22347
4.19987 4.18033 4.16506 4.15426 4.14832 4.14672 4.5603 4.56312 4.55271 4.54029
4.5225 4.49938 4.4716 4.44015 4.40617 4.3709 4.33556 4.30125 4.26893 4.23937
4.21313 4.1906 4.17204 4.15758 4.1474 4.14181 4.14028 4.54233 4.54522 4.53454
4.52179 4.50354 4.47994 4.45177 4.42013 4.38628 4.35149 4.31697 4.28379 4.25282
4.22474 4.20002 4.17894 4.16168 4.14832 4.13894 4.13382 4.1324 4.51916 4.52213
4.51119 4.49814 4.47945 4.45543 4.42699 4.3954 4.36198 4.32804 4.29478 4.26317
4.23401 4.20785 4.18502 4.16573 4.15005 4.13797 4.12955 4.12497 4.1237 4.49031
4.49332 4.48223 4.46897 4.45 4.42575 4.39734 4.36617 4.33365 4.30109 4.2696
4.2401 4.21322 4.18939 4.16882 4.1516 4.13772 4.1271 4.11973 4.11576 4.11465
4.45493 4.45793 4.4469 4.43367 4.4147 4.39063 4.36274 4.33259 4.30161 4.27107
4.24201 4.21518 4.19108 4.16998 4.15199 4.13708 4.12517 4.11613 4.1099 4.10656
4.10563 4.41187 4.41473 4.40419 4.39141 4.37298 4.34974 4.32314 4.29483 4.26622
4.2385 4.21256 4.18899 4.16814 4.15015 4.13501 4.1226 4.11278 4.10539 4.10033
4.09764 4.0969 4.35957 4.36208 4.35279 4.34118 4.32419 4.30278 4.27854 4.25314
4.22791 4.20389 4.18181 4.1621 4.14495 4.13037 4.11827 4.10849 4.10083 4.09512
4.09124 4.0892 4.08864 4.29592 4.2977 4.29098 4.28177 4.2676 4.24948 4.22904
4.20787 4.18716 4.1678 4.15033 4.13502 4.12194 4.11102 4.1021 4.095 4.08951
4.08548 4.08276 4.08136 4.08098 4.21808 4.21847 4.2166 4.21176 4.2025 4.18967
4.17486 4.15948 4.14457 4.13084 4.11868 4.10824 4.09952 4.09241 4.08674 4.08232
4.07898 4.07657 4.07499 4.07419 4.07398 4.12216 4.11993 4.12696 4.12963 4.12827
4.12341 4.11643 4.1086 4.10079 4.09362 4.08738 4.08219 4.07803 4.0748 4.07237
4.07058 4.06931 4.06846 4.06794 4.06771 4.06766 4.00278 3.99558 4.01875 4.03377
4.04454 4.05098 4.0544 4.05596 4.05654 4.05674 4.05692 4.05723 4.05772 4.05836
4.05909 4.05984 4.06054 4.06115 4.06163 4.06193 4.06202 3.8523 3.83549 3.88813
3.92273 3.95127 3.97306 3.98966 4.00243 4.01254 4.02079 4.02773 4.03366 4.03879
4.0432 4.04697 4.05012 4.05267 4.05464 4.05603 4.05681 4.05703 3.65974 3.62382
3.73092 3.79536 3.84899 3.89066 3.92329 3.94894 3.96953 3.98629 4.00015 4.0117
4.02135 4.02939 4.03603 4.04142 4.04567 4.04888 4.05111 4.05232 4.05266 3.40868
3.33387 3.54321 3.65116 3.73893 3.80519 3.85655 3.89646 3.92817 3.95367 3.97445
3.99148 4.00548 4.01694 4.02625 4.03369 4.03949 4.04383 4.04681 4.04842 4.04886
3.07407 2.92049 3.32237 3.49056 3.62316 3.7185 3.79079 3.84589 3.88902 3.92327
3.95081 3.9731 3.99119 4.00583 4.01758 4.0269 4.03409 4.03943 4.04308 4.04504
4.04557 2.61274 2.3032 3.06704 3.31595 3.50456 3.63271 3.72735 3.79801 3.85255
3.89531 3.92932 3.95656 3.97844 3.99599 4.00997 4.02096 4.0294 4.03563 4.03987
4.04213 4.04274 1.96627 1.37277 2.77879 3.13424 3.38701 3.54998 3.66742 3.75347
3.81905 3.86992 3.91 3.94182 3.96717 3.98736 4.00333 4.01581 4.02536 4.03236
4.03713 4.03965 4.04032 1.12568 -3.20981 2.46405 2.96328 3.2801 3.4761 3.61455
3.71459 3.7901 3.84818 3.89359 3.9294 3.95775 3.98018 3.99784 4.01158 4.02205
4.0297 4.03489 4.03764 4.03836 0.014828 -0.000901529 0.0320918 0.0449099 0.0473057 0.0269823
-0.023565 -0.0796569 -0.121962 0.01174 0.000556502 0.0233576 0.0308343 0.0296694 0.0119833 -0.0265068
-0.0665745 -0.0973213 0.00857289 0.00130351 0.0153043 0.0184754 0.0145693 -0.00119197 -0.0305423 -0.0612521
-0.0858984 0.0055864 0.00155536 0.00813107 0.0079204 0.00195604 -0.0126244 -0.0358918 -0.0609959 -0.0823074
0.00265556 0.00128837 0.00184873 -0.00104771 -0.00861604 -0.0224906 -0.0422131 -0.0639347 -0.083175 -0.000419961
0.000466062 -0.00361275 -0.00869513 -0.0175294 -0.0310519 -0.048829 -0.0685989 -0.0865371 -0.00323594 -0.000450474
-0.00829391 -0.0151793 -0.0250537 -0.038529 -0.0553493 -0.0741151 -0.0913526 -0.0055255 -0.00116608 -0.012244
-0.0206151 -0.0313978 -0.0450531 -0.0615182 -0.0798962 -0.0968597 -0.00740828 -0.00175895 -0.0155374 -0.025138
-0.036736 -0.0507222 -0.0672003 -0.0855966 -0.102598 -0.00893408 -0.00225256 -0.0182394 -0.0288636 -0.0411937
-0.0555931 -0.0722967 -0.0909652 -0.108212 -0.0101464 -0.00265812 -0.0204169 -0.0318854 -0.0448642 -0.0597115
-0.0767517 -0.0958288 -0.113433 -0.0110814 -0.00298456 -0.0221235 -0.0342743 -0.0478178 -0.0631263 -0.0805492
-0.10004 -0.118001 -0.0117618 -0.00323911 -0.0233842 -0.0360504 -0.050036 -0.0657513 -0.0835003 -0.103198
-0.121459 -0.0122065 -0.00343317 -0.0242201 -0.0372476 -0.0515432 -0.0676516 -0.0858614 -0.105422 -0.124182
-0.012373 -0.00441402 -0.0245366 -0.0377125 -0.0521378 -0.0684653 -0.0870107 -0.106464 -0.126797 -0.137605
-0.151552 -0.137078 -0.145848 -0.137904 -0.143262 -0.140791 -0.144147 -0.145215 -0.147171 -0.150929
-0.151847 -0.157776 -0.157902 -0.165646 -0.165148 -0.174464 -0.173456 -0.18417 -0.182733 -0.19472
-0.192911 -0.206076 -0.20394 -0.218201 -0.215773 -0.231059 -0.228368 -0.244604 -0.241676 -0.25877
-0.255629 -0.273451 -0.270127 -0.288469 -0.285007 -0.303533 -0.300014 -0.318216 -0.314773 -0.331966
-0.328794 -0.344217 -0.34155 -0.354635 -0.352666 -0.363548 -0.362279 -0.372514 -0.371555 -0.384993
-0.383366 -0.407008 -0.402988 -0.447476 -0.438725 -0.520172 -0.503278 -0.644419 -0.614491 -0.843426
-0.794336 -1.14216 -1.0665 -1.56037 -1.45131 -2.10257 -1.95737 -2.74618 -2.56943 -3.43344
-3.23878 -4.07706 -3.88612 -4.58683 -4.42473 -4.9025 -4.79142 -5.01613 -4.96536 -4.97168
-4.97204 -4.84542 -4.87517 -4.71726 -4.75228 -4.64252 -4.66553 -4.6471 -4.65132 -4.7381
-4.72473 -4.91367 -4.89557 -5.18043 -5.14708 -6.46636 -6.56708 -4.61854 -0.115203 -0.122406
-0.128181 -0.134237 -0.140911 -0.148291 -0.15641 -0.165283 -0.174913 -0.185295 -0.196417 -0.208267
-0.220829 -0.234077 -0.247978 -0.262465 -0.277422 -0.292637 -0.307767 -0.322315 -0.335682 -0.347326
-0.357068 -0.365542 -0.374758 -0.388887 -0.415159 -0.46283 -0.548347 -0.694777 -0.926649 -1.27119
-1.74656 -2.34995 -3.04639 -3.76333 -4.40079 -4.8633 -5.09563 -5.11183 -4.98016 -4.79564
-4.65175 -4.59412 -4.62986 -4.7467 -4.92039 -5.19424 -5.84605 -3.84593 -0.102739 -0.112647
-0.121 -0.129087 -0.137358 -0.146011 -0.155157 -0.164866 -0.175182 -0.186133 -0.197736 -0.210001
-0.222928 -0.236507 -0.250708 -0.265468 -0.280663 -0.296075 -0.311363 -0.326062 -0.339657 -0.351743
-0.362299 -0.372105 -0.383386 -0.400766 -0.4324 -0.488984 -0.590696 -0.761986 -1.03036 -1.42433
-1.95949 -2.62527 -3.37257 -4.11363 -4.73768 -5.14864 -5.30293 -5.22465 -4.99457 -4.74279
-4.57593 -4.53393 -4.60263 -4.73989 -4.90656 -5.11167 -5.11931 -3.01354 -0.0978715 -0.108583
-0.117988 -0.127145 -0.136413 -0.145955 -0.155879 -0.166261 -0.177158 -0.188613 -0.200661 -0.213325
-0.226615 -0.240533 -0.255059 -0.270144 -0.285692 -0.301531 -0.317397 -0.332944 -0.347805 -0.361718
-0.374783 -0.387919 -0.403615 -0.426934 -0.466635 -0.536393 -0.656981 -0.854014 -1.15774 -1.59543
-2.18182 -2.89814 -3.68111 -4.43212 -5.032 -5.38753 -5.46857 -5.30325 -4.99327 -4.68985
-4.50703 -4.4803 -4.57329 -4.71157 -4.83444 -4.87113 -4.34811 -2.26503 -0.097857 -0.108762
-0.118604 -0.128304 -0.138149 -0.14827 -0.158753 -0.16967 -0.181078 -0.193023 -0.205544 -0.218673
-0.232433 -0.246838 -0.261892 -0.277578 -0.293848 -0.310601 -0.32768 -0.344893 -0.362074 -0.379202
-0.396659 -0.41567 -0.43904 -0.472153 -0.524162 -0.609414 -0.748589 -0.967983 -1.29718 -1.76164
-2.37402 -3.10903 -3.89812 -4.63574 -5.20027 -5.50353 -5.52461 -5.30889 -4.96394 -4.64342
-4.46544 -4.451 -4.53783 -4.63026 -4.64145 -4.43623 -3.53637 -1.62488 -0.100659 -0.1116
-0.121663 -0.131698 -0.141954 -0.152533 -0.163508 -0.17494 -0.186883 -0.199389 -0.212503 -0.226267
-0.240721 -0.255901 -0.27184 -0.288559 -0.306063 -0.324336 -0.343367 -0.363198 -0.384008 -0.406254
-0.430846 -0.459431 -0.494959 -0.542588 -0.610799 -0.712736 -0.867297 -1.0989 -1.43486 -1.89868
-2.49869 -3.2108 -3.96897 -4.66916 -5.19514 -5.46443 -5.46249 -5.24188 -4.90901 -4.60847
-4.44468 -4.4187 -4.4521 -4.44039 -4.29303 -3.85517 -2.76121 -1.10706 -0.105172 -0.116147
-0.126375 -0.136679 -0.147288 -0.158291 -0.169753 -0.181732 -0.194284 -0.207466 -0.221337 -0.235955
-0.251382 -0.267684 -0.28493 -0.303192 -0.322552 -0.343131 -0.365141 -0.388997 -0.41544 -0.445645
-0.481241 -0.52426 -0.577351 -0.644465 -0.731903 -0.84971 -1.01304 -1.24245 -1.56168 -1.9916
-2.53968 -3.18634 -3.87507 -4.51463 -5.00179 -5.26053 -5.27467 -5.09239 -4.81216 -4.55339
-4.39383 -4.32428 -4.26686 -4.12772 -3.8304 -3.23675 -2.11307 -0.726696 -0.110559 -0.121605
-0.13201 -0.142589 -0.153559 -0.165005 -0.17699 -0.189575 -0.202826 -0.216811 -0.231607 -0.247296
-0.263973 -0.281745 -0.300737 -0.321102 -0.343056 -0.366923 -0.393263 -0.423018 -0.457658 -0.499206
-0.549987 -0.612167 -0.687652 -0.778159 -0.886193 -1.01708 -1.18077 -1.39293 -1.67352 -2.04148
-2.50547 -3.05269 -3.6402 -4.19604 -4.63634 -4.89489 -4.95036 -4.83662 -4.63015 -4.42021
-4.26091 -4.1385 -3.98946 -3.74439 -3.34479 -2.68027 -1.62218 -0.465438 -0.116319 -0.12748
-0.138088 -0.148961 -0.160311 -0.172223 -0.184764 -0.198004 -0.21202 -0.2269 -0.242744 -0.259667
-0.277807 -0.297329 -0.318439 -0.341406 -0.366626 -0.394712 -0.426646 -0.463992 -0.509012 -0.564535
-0.633458 -0.717877 -0.818186 -0.933059 -1.06066 -1.20061 -1.357 -1.5406 -1.76837 -2.05868
-2.42298 -2.85598 -3.32846 -3.78782 -4.17059 -4.42332 -4.52175 -4.48148 -4.35298 -4.19673
-4.0459 -3.88755 -3.67669 -3.36678 -2.91285 -2.23184 -1.26757 -0.286336 -0.122046 -0.133351
-0.144182 -0.155367 -0.167109 -0.179496 -0.192602 -0.20651 -0.221312 -0.237116 -0.254052 -0.272271
-0.291961 -0.313355 -0.336755 -0.36257 -0.391388 -0.424122 -0.462191 -0.507742 -0.563719 -0.633586
-0.720564 -0.826371 -0.949647 -1.08594 -1.22917 -1.37376 -1.51837 -1.66966 -1.84241 -2.05524
-2.32309 -2.64827 -3.01378 -3.3832 -3.70959 -3.95036 -4.08055 -4.10141 -4.04173 -3.93701
-3.80365 -3.63038 -3.38731 -3.0439 -2.56514 -1.89215 -1.01435 -0.158852 -0.127418 -0.138878
-0.14994 -0.161438 -0.173562 -0.186405 -0.200049 -0.214587 -0.230128 -0.246801 -0.264761 -0.284191
-0.305335 -0.32849 -0.354033 -0.382505 -0.414668 -0.45168 -0.495288 -0.548027 -0.61326 -0.694774
-0.795753 -0.917216 -1.05653 -1.20689 -1.35897 -1.50373 -1.6365 -1.761 -1.88996 -2.04132
-2.23172 -2.46925 -2.74739 -3.04333 -3.32303 -3.55146 -3.70329 -3.77054 -3.76388 -3.69996
-3.58476 -3.40793 -3.14936 -2.78864 -2.29927 -1.64266 -0.833582 -0.0654285 -0.132151 -0.14378
-0.155077 -0.166869 -0.179335 -0.192573 -0.206675 -0.221745 -0.237906 -0.2553 -0.274101 -0.294528
-0.316849 -0.341408 -0.368652 -0.399203 -0.433949 -0.474186 -0.521806 -0.579464 -0.650554 -0.738751
-0.846917 -0.975452 -1.12081 -1.27534 -1.42856 -1.57033 -1.69507 -1.80516 -1.91124 -2.02842
-2.17133 -2.3494 -2.56292 -2.80044 -3.03971 -3.2532 -3.41627 -3.5144 -3.54484 -3.5104
-3.41 -3.23371 -2.96735 -2.59688 -2.10344 -1.46484 -0.707223 0.00173957 -0.135896 -0.147758
-0.159295 -0.171337 -0.184066 -0.197594 -0.212022 -0.227465 -0.244051 -0.261937 -0.281313 -0.302417
-0.325531 -0.351026 -0.379404 -0.411336 -0.44776 -0.490004 -0.539944 -0.600107 -0.67359 -0.7636
-0.872477 -1.00026 -1.14339 -1.29458 -1.44395 -1.58244 -1.70535 -1.81466 -1.91858 -2.02829
-2.15443 -2.30449 -2.48075 -2.67811 -2.88318 -3.07632 -3.23656 -3.34702 -3.39703 -3.38004
-3.28911 -3.11362 -2.84293 -2.46654 -1.97171 -1.34935 -0.627604 0.0461891 -0.139036 -0.150861
-0.162316 -0.174398 -0.187214 -0.200862 -0.215435 -0.231047 -0.247829 -0.265945 -0.285596 -0.307022
-0.330527 -0.356499 -0.385458 -0.418112 -0.455409 -0.498641 -0.54957 -0.610494 -0.684129 -0.773191
-0.879578 -1.00323 -1.14119 -1.28728 -1.43332 -1.57143 -1.69765 -1.81382 -1.926 -2.04278
-2.17244 -2.32019 -2.48703 -2.66839 -2.85387 -3.02878 -3.17668 -3.2823 -3.33315 -3.31872
-3.22881 -3.05247 -2.77843 -2.39662 -1.89941 -1.286 -0.582684 0.0781813 -0.140687 -0.15224
-0.16349 -0.175499 -0.188297 -0.20195 -0.216542 -0.232182 -0.249003 -0.267169 -0.28688 -0.308381
-0.331981 -0.358073 -0.387186 -0.420039 -0.457583 -0.501073 -0.552207 -0.613168 -0.6865 -0.774719
-0.879567 -1.00102 -1.13644 -1.28032 -1.42565 -1.56468 -1.69338 -1.81363 -1.93075 -2.05279
-2.18746 -2.33905 -2.50739 -2.68698 -2.86746 -3.03546 -3.17634 -3.2763 -3.32318 -3.30604
-3.21423 -3.03711 -2.76151 -2.37676 -1.87774 -1.26613 -0.567377 0.150312 0.530188 2.18827
2.82543 3.1932 3.41653 3.57195 3.68342 3.76701 3.83094 3.88066 3.91966 3.95039
3.97461 3.9936 4.00832 4.0195 4.02766 4.03319 4.0361 4.03687 0.414257 1.99335
2.71238 3.11614 3.36347 3.53384 3.65564 3.74653 3.81574 3.86932 3.91117 3.94402
3.96981 3.98996 4.00554 4.01734 4.02593 4.03174 4.0348 4.0356 0.502324 1.87302
2.61808 3.04461 3.31304 3.4973 3.62904 3.72698 3.80129 3.8586 3.9032 3.93806
3.96533 3.98658 4.00296 4.01534 4.02434 4.03042 4.03361 4.03445 0.603245 1.79858
2.54064 2.98024 3.26605 3.46281 3.60388 3.70853 3.78772 3.84858 3.89577 3.93254
3.96121 3.98347 4.0006 4.01352 4.0229 4.02921 4.03253 4.0334 0.673597 1.74823
2.47594 2.92328 3.22293 3.43075 3.58041 3.69133 3.77512 3.83932 3.88894 3.92748
3.95745 3.98066 3.99847 4.01189 4.0216 4.02814 4.03157 4.03246 0.727852 1.71421
2.42135 2.87334 3.18387 3.40135 3.5588 3.67552 3.76357 3.83088 3.88275 3.92292
3.95407 3.97814 3.99658 4.01043 4.02045 4.02719 4.03072 4.03164 0.772274 1.69218
2.37564 2.83002 3.14897 3.37481 3.53924 3.66122 3.75318 3.82331 3.87723 3.91888
3.9511 3.97594 3.99492 4.00917 4.01946 4.02637 4.02998 4.03093 0.807937 1.67781
2.33785 2.79292 3.11831 3.35131 3.52186 3.64856 3.74401 3.81668 3.87243 3.91539
3.94854 3.97405 3.99351 4.0081 4.01862 4.02567 4.02937 4.03033 0.837684 1.66806
2.30694 2.76168 3.09196 3.33099 3.50682 3.63764 3.73616 3.81104 3.86837 3.91246
3.94641 3.97249 3.99236 4.00722 4.01793 4.02511 4.02887 4.02985 0.863759 1.6613
2.28207 2.73599 3.06999 3.31401 3.49429 3.62861 3.72971 3.80646 3.86511 3.91012
3.94473 3.97127 3.99145 4.00654 4.01741 4.02468 4.02849 4.02949 0.886249 1.65668
2.26277 2.71576 3.05257 3.30058 3.48446 3.6216 3.72478 3.803 3.86268 3.90841
3.94351 3.97039 3.99081 4.00607 4.01704 4.02439 4.02823 4.02924 0.904422 1.65409
2.24913 2.7013 3.04014 3.29113 3.47765 3.61685 3.72151 3.80076 3.86114 3.90735
3.94277 3.96987 3.99045 4.0058 4.01684 4.02423 4.02809 4.0291 0.91991 1.65506
2.24249 2.6938 3.03367 3.28634 3.47435 3.61467 3.72011 3.79987 3.86058 3.907
3.94256 3.96974 3.99037 4.00575 4.01681 4.02421 4.02808 4.0291 0.936552 1.66054
2.24341 2.69353 3.03327 3.28621 3.47447 3.61495 3.72045 3.80022 3.86091 3.90728
3.9428 3.96994 3.99053 4.00589 4.01693 4.02431 4.02818 4.0292 0.945971 1.66524
2.24641 2.69567 3.03491 3.28753 3.47555 3.61582 3.72115 3.80077 3.86134 3.90762
3.94306 3.97014 3.99069 4.00601 4.01703 4.02439 4.02825 4.02928 
U 3 1819 float
0.273389 -0.00526512 -9.48677e-20 0.257894 -0.000471928 -4.74338e-20 0.258494 -0.000587201 -2.56132e-05 0.274185 -0.00290269
-0.000126613 0.324442 -0.0113097 4.33681e-19 0.325338 -0.0062326 -0.000271862 0.417574 -0.0183847 2.1684e-19
0.418489 -0.0101244 -0.000441619 0.558766 -0.0252694 7.58942e-19 0.559428 -0.0138774 -0.000605321 0.737104
-0.028365 -6.50521e-19 0.737087 -0.0155457 -0.000678091 0.915391 -0.0224096 -4.33681e-19 0.914577 -0.0122734
-0.000535358 1.01924 -0.00686934 -8.13152e-19 1.01838 -0.00378358 -0.000165037 1.01673 0.000703489 3.0686e-05
1.00745 0.000581626 -9.99499e-20 0.271101 -0.00982013 -8.40257e-19 0.255691 -0.00100386 -4.06576e-20 0.321833
-0.0211056 1.02999e-18 0.414821 -0.0344228 2.1684e-19 0.556713 -0.0476164 1.30104e-18 0.737134 -0.0536549
-6.50521e-19 0.917864 -0.0423027 2.1684e-19 1.02185 -0.0126094 2.71051e-19 1.00884 0.00137677 -1.35525e-19
0.267384 -0.0143051 -4.33681e-19 0.252196 -0.00150701 -3.38813e-20 0.31754 -0.0307992 -2.49366e-18 0.410153
-0.050512 1.51788e-18 0.553108 -0.0704511 -2.1684e-19 0.737085 -0.0797828 -1.51788e-18 0.922048 -0.0626619
4.11997e-18 1.02633 -0.0179036 6.50521e-19 1.00973 0.00235667 -1.82959e-19 0.262207 -0.0188167 9.21572e-19
0.247342 -0.00202844 -2.23617e-19 0.311498 -0.0406465 3.25261e-19 0.403431 -0.0671336 -4.55365e-18 0.547718
-0.09449 0 0.736607 -0.107637 8.67362e-19 0.927632 -0.0841695 1.0842e-18 1.03265 -0.0228818
-2.1684e-18 1.01092 0.00362146 2.30393e-19 0.255594 -0.023203 0 0.241164 -0.00256048 -2.10064e-19
0.303676 -0.0503441 2.81893e-18 0.394503 -0.0838927 -2.1684e-18 0.540122 -0.119372 -6.50521e-18 0.734696
-0.13698 8.67362e-19 0.933285 -0.106635 8.67362e-19 1.04007 -0.0273119 -2.71051e-18 1.01245 0.00526196
-3.65918e-19 0.247597 -0.027387 2.1684e-19 0.233725 -0.00309914 -4.06576e-20 0.294055 -0.0597413 4.33681e-19
0.383156 -0.10062 8.67362e-19 0.529522 -0.144996 -5.63785e-18 0.729162 -0.167874 3.03577e-18 0.935848
-0.130305 -6.50521e-18 1.04664 -0.0313709 -3.25261e-19 1.01421 0.00731256 -6.77626e-19 0.238287 -0.0313007
-3.25261e-18 0.225107 -0.00363876 -6.36969e-19 0.282619 -0.0686951 -1.30104e-18 0.369108 -0.117095 8.67362e-19
0.514604 -0.171013 3.03577e-18 0.716358 -0.200059 -6.07153e-18 0.929858 -0.155525 -2.1684e-18 1.04869
-0.0358057 3.79471e-18 1.01589 0.00964516 -1.6263e-19 0.227764 -0.0348667 -5.42101e-19 0.215416 -0.00417076
-2.71051e-19 0.269396 -0.0770191 0 0.352044 -0.132912 -4.33681e-19 0.493648 -0.196554 0
0.691841 -0.232604 0 0.908387 -0.182546 8.67362e-18 1.04108 -0.0420739 -1.19262e-18 1.0169
0.0118616 -3.25261e-19 0.216158 -0.038001 1.73472e-18 0.204782 -0.00468387 6.50521e-19 0.254509 -0.0844791
4.33681e-19 0.331746 -0.147431 -8.67362e-19 0.465101 -0.220256 1.73472e-18 0.652108 -0.263879 0
0.865501 -0.211403 -2.60209e-18 1.01857 -0.0523858 -8.67362e-18 1.01643 0.0132147 5.96311e-19 0.203636
-0.0406246 -3.90313e-18 0.19336 -0.00516512 -8.13152e-20 0.238218 -0.0908153 -5.63785e-18 0.308317 -0.159845
4.33681e-19 0.428465 -0.240544 -8.67362e-19 0.596502 -0.291884 2.60209e-18 0.799178 -0.24191 -8.67362e-19
0.977704 -0.0694772 -1.17094e-17 1.01346 0.0126121 1.46367e-18 0.190412 -0.0426809 -5.31259e-18 0.181314
-0.0056018 -1.21973e-18 0.220932 -0.095787 -6.07153e-18 0.282366 -0.169367 -3.46945e-18 0.385026 -0.25592
1.73472e-18 0.52794 -0.314766 4.33681e-18 0.712602 -0.273301 -3.46945e-18 0.917126 -0.0958316 8.67362e-18
1.00634 0.00858738 7.86047e-19 0.176736 -0.0441529 -4.66207e-18 0.168814 -0.00598443 -8.67362e-19 0.203158
-0.0992408 -6.07153e-18 0.255007 -0.175477 -1.04083e-17 0.337825 -0.265412 -6.07153e-18 0.452022 -0.33124