# vtk DataFile Version 2.0
sampleSurface
ASCII
DATASET POLYDATA
POINTS 1819 float
-0.00742587 5e-05 0 -0.0075 5e-05 0 -0.0075 0 0 -0.00742587 0
0 -0.00735173 5e-05 0 -0.00735173 0 0 -0.0072776 5e-05 0
-0.0072776 0 0 -0.00720346 5e-05 0 -0.00720346 0 0 -0.00712928
5e-05 0 -0.00712928 0 0 -0.00705496 5e-05 0 -0.00705496 0
0 -0.00697978 5e-05 0 -0.00697977 0 0 -0.0069 0 0
-0.0069 5e-05 0 -0.00742587 0.0001 0 -0.0075 0.0001 0 -0.00735173
0.0001 0 -0.0072776 0.0001 0 -0.00720346 0.0001 0 -0.00712928 0.0001
0 -0.00705496 0.0001 0 -0.00697978 0.0001 0 -0.0069 0.0001 0
-0.00742587 0.00015 0 -0.0075 0.00015 0 -0.00735173 0.00015 0 -0.0072776
0.00015 0 -0.00720346 0.00015 0 -0.00712929 0.00015 0 -0.00705497 0.00015
0 -0.0069798 0.00015 0 -0.0069 0.00015 0 -0.00742587 0.0002 0
-0.0075 0.0002 0 -0.00735173 0.0002 0 -0.0072776 0.0002 0 -0.00720346
0.0002 0 -0.00712929 0.0002 0 -0.00705497 0.0002 0 -0.00697982 0.0002
0 -0.0069 0.0002 0 -0.00742587 0.00025 0 -0.0075 0.00025 0
-0.00735173 0.00025 0 -0.0072776 0.00025 0 -0.00720346 0.00025 0 -0.00712929
0.00025 0 -0.00705497 0.00025 0 -0.00697984 0.00025 0 -0.0069 0.00025
0 -0.00742587 0.0003 0 -0.0075 0.0003 0 -0.00735173 0.0003 0
-0.0072776 0.0003 0 -0.00720346 0.0003 0 -0.00712929 0.0003 0 -0.00705498
0.0003 0 -0.00697987 0.0003 0 -0.0069 0.0003 0 -0.00742587 0.00035
0 -0.0075 0.00035 0 -0.00735173 0.00035 0 -0.0072776 0.00035 0
-0.00720346 0.00035 0 -0.00712929 0.00035 0 -0.00705499 0.00035 0 -0.00697991
0.00035 0 -0.0069 0.00035 0 -0.00742587 0.0004 0 -0.0075 0.0004
0 -0.00735173 0.0004 0 -0.0072776 0.0004 0 -0.00720346 0.0004 0
-0.00712929 0.0004 0 -0.00705499 0.0004 0 -0.00697995 0.0004 0 -0.0069
0.0004 0 -0.00742587 0.00045 0 -0.0075 0.00045 0 -0.00735173 0.00045
0 -0.0072776 0.00045 0 -0.00720346 0.00045 0 -0.00712929 0.00045 0
-0.007055 0.00045 0 -0.00698 0.00045 0 -0.0069 0.00045 0 -0.00742587
0.0005 0 -0.0075 0.0005 0 -0.00735173 0.0005 0 -0.0072776 0.0005
0 -0.00720346 0.0005 0 -0.00712929 0.0005 0 -0.00705501 0.0005 0
-0.00698006 0.0005 0 -0.0069 0.0005 0 -0.00742587 0.00055 0 -0.0075
0.00055 0 -0.00735173 0.00055 0 -0.0072776 0.00055 0 -0.00720346 0.00055
0 -0.00712929 0.00055 0 -0.00705502 0.00055 0 -0.00698012 0.00055 0
-0.0069 0.00055 0 -0.00742587 0.0006 0 -0.0075 0.0006 0 -0.00735173
0.0006 0 -0.0072776 0.0006 0 -0.00720346 0.0006 0 -0.0071293 0.0006
0 -0.00705503 0.0006 0 -0.00698019 0.0006 0 -0.0069 0.0006 0
-0.00742587 0.00065 0 -0.0075 0.00065 0 -0.00735173 0.00065 0 -0.0072776
0.00065 0 -0.00720346 0.00065 0 -0.0071293 0.00065 0 -0.00705504 0.00065
0 -0.00698026 0.00065 0 -0.0069 0.00065 0 -0.00742587 0.0007 0
-0.0075 0.0007 0 -0.00735173 0.0007 0 -0.0072776 0.0007 0 -0.00720346
0.0007 0 -0.0071293 0.0007 0 -0.00705505 0.0007 0 -0.00698035 0.0007
0 -0.0069 0.0007 0 -0.00742587 0.00075 0 -0.0075 0.00075 0
-0.00735173 0.00075 0 -0.0072776 0.00075 0 -0.00720346 0.00075 0 -0.0071293
0.00075 0 -0.00705506 0.00075 0 -0.00698042 0.00075 0 -0.0069 0.00075
0 -0.00328265 0.000183339 0 -0.0034 0.000183339 0 -0.0034 0 0
-0.00328265 0 0 -0.00316073 0.000183339 0 -0.00316073 0 0 -0.00303423
0.000183339 0 -0.00303423 0 0 -0.00290304 0.000183339 0 -0.00290304 0
0 -0.00276696 0.000183339 0 -0.00276696 0 0 -0.00262583 0.000183339 0
-0.00262583 0 0 -0.00247946 0.000183339 0 -0.00247946 0 0 -0.00232764
0.000183339 0 -0.00232764 0 0 -0.00217019 0.000183339 0 -0.00217019 0
0 -0.00200689 0.000183339 0 -0.00200689 0 0 -0.00183752 0.000183339 0
-0.00183752 0 0 -0.00166185 0.000183339 0 -0.00166185 0 0 -0.00147966
0.000183339 0 -0.00147966 0 0 -0.0012907 0.000183339 0 -0.0012907 0
0 -0.00109472 0.000183339 0 -0.00109472 0 0 -0.000891455 0.000183339 0
-0.000891456 0 0 -0.00068064 0.000183339 0 -0.000680641 0 0 -0.000461992
0.000183339 0 -0.000461993 0 0 -0.00023522 0.000183339 0 -0.000235221 0
0 0 0 0 0 0.000183339 0 -0.00328265 0.000353777 0
-0.0034 0.000353777 0 -0.00316073 0.000353777 0 -0.00303423 0.000353777 0 -0.00290303
0.000353777 0 -0.00276696 0.000353777 0 -0.00262583 0.000353777 0 -0.00247945 0.000353777
0 -0.00232764 0.000353777 0 -0.00217019 0.000353777 0 -0.00200689 0.000353777 0
-0.00183751 0.000353777 0 -0.00166185 0.000353777 0 -0.00147966 0.000353777 0 -0.0012907
0.000353777 0 -0.00109472 0.000353777 0 -0.000891454 0.000353777 0 -0.000680638 0.000353777
0 -0.00046199 0.000353777 0 -0.000235218 0.000353777 0 0 0.000353777 0
-0.00328265 0.000512223 0 -0.0034 0.000512223 0 -0.00316073 0.000512223 0 -0.00303423
0.000512223 0 -0.00290303 0.000512223 0 -0.00276696 0.000512223 0 -0.00262583 0.000512223
0 -0.00247945 0.000512223 0 -0.00232764 0.000512223 0 -0.00217019 0.000512223 0
-0.00200688 0.000512223 0 -0.00183751 0.000512223 0 -0.00166185 0.000512223 0 -0.00147966
0.000512223 0 -0.0012907 0.000512223 0 -0.00109471 0.000512223 0 -0.000891452 0.000512223
0 -0.000680636 0.000512223 0 -0.000461988 0.000512223 0 -0.000235216 0.000512223 0
0 0.000512223 0 -0.00328265 0.000659519 0 -0.0034 0.000659519 0 -0.00316073
0.000659519 0 -0.00303423 0.000659519 0 -0.00290303 0.000659519 0 -0.00276696 0.000659519
0 -0.00262583 0.000659519 0 -0.00247945 0.000659519 0 -0.00232764 0.000659519 0
-0.00217019 0.000659519 0 -0.00200688 0.000659519 0 -0.00183751 0.000659519 0 -0.00166185
0.000659519 0 -0.00147965 0.000659519 0 -0.00129069 0.000659519 0 -0.00109471 0.000659519
0 -0.00089145 0.000659519 0 -0.000680635 0.000659519 0 -0.000461986 0.000659519 0
-0.000235214 0.000659519 0 0 0.000659519 0 -0.00328265 0.000796451 0 -0.0034
0.000796451 0 -0.00316072 0.000796451 0 -0.00303423 0.000796451 0 -0.00290303 0.000796451
0 -0.00276696 0.000796451 0 -0.00262582 0.000796451 0 -0.00247945 0.000796451 0
-0.00232764 0.000796451 0 -0.00217018 0.000796451 0 -0.00200688 0.000796451 0 -0.00183751
0.000796451 0 -0.00166184 0.000796451 0 -0.00147965 0.000796451 0 -0.00129069 0.000796451
0 -0.00109471 0.000796451 0 -0.000891448 0.000796451 0 -0.000680633 0.000796451 0
-0.000461985 0.000796451 0 -0.000235212 0.000796451 0 0 0.000796451 0 -0.00328266
0.000923748 0 -0.0034 0.000923748 0 -0.00316072 0.000923748 0 -0.00303423 0.000923748
0 -0.00290303 0.000923748 0 -0.00276695 0.000923748 0 -0.00262582 0.000923748 0
-0.00247945 0.000923748 0 -0.00232764 0.000923748 0 -0.00217018 0.000923748 0 -0.00200688
0.000923748 0 -0.00183751 0.000923748 0 -0.00166184 0.000923748 0 -0.00147965 0.000923748
0 -0.00129069 0.000923748 0 -0.00109471 0.000923748 0 -0.000891447 0.000923748 0
-0.000680631 0.000923748 0 -0.000461983 0.000923748 0 -0.000235211 0.000923748 0 0
0.000923748 0 -0.00328266 0.00104209 0 -0.0034 0.00104209 0 -0.00316072 0.00104209
0 -0.00303423 0.00104209 0 -0.00290303 0.00104209 0 -0.00276695 0.00104209 0
-0.00262582 0.00104209 0 -0.00247945 0.00104209 0 -0.00232763 0.00104209 0 -0.00217018
0.00104209 0 -0.00200688 0.00104209 0 -0.00183751 0.00104209 0 -0.00166184 0.00104209
0 -0.00147965 0.00104209 0 -0.00129069 0.00104209 0 -0.00109471 0.00104209 0
-0.000891445 0.00104209 0 -0.00068063 0.00104209 0 -0.000461981 0.00104209 0 -0.000235209
0.00104209 0 0 0.00104209 0 -0.00328266 0.0011521 0 -0.0034 0.0011521
0 -0.00316072 0.0011521 0 -0.00303423 0.0011521 0 -0.00290303 0.0011521 0
-0.00276695 0.0011521 0 -0.00262582 0.0011521 0 -0.00247945 0.0011521 0 -0.00232763
0.0011521 0 -0.00217018 0.0011521 0 -0.00200688 0.0011521 0 -0.0018375 0.0011521
0 -0.00166184 0.0011521 0 -0.00147965 0.0011521 0 -0.00129069 0.0011521 0
-0.00109471 0.0011521 0 -0.000891444 0.0011521 0 -0.000680628 0.0011521 0 -0.00046198
0.0011521 0 -0.000235208 0.0011521 0 0 0.0011521 0 -0.00328266 0.00125437
0 -0.0034 0.00125437 0 -0.00316072 0.00125437 0 -0.00303422 0.00125437 0
-0.00290303 0.00125437 0 -0.00276695 0.00125437 0 -0.00262582 0.00125437 0 -0.00247945
0.00125437 0 -0.00232763 0.00125437 0 -0.00217018 0.00125437 0 -0.00200687 0.00125437
0 -0.0018375 0.00125437 0 -0.00166184 0.00125437 0 -0.00147965 0.00125437 0
-0.00129069 0.00125437 0 -0.00109471 0.00125437 0 -0.000891443 0.00125437 0 -0.000680627
0.00125437 0 -0.000461979 0.00125437 0 -0.000235207 0.00125437 0 0 0.00125437
0 -0.00328267 0.00134945 0 -0.0034 0.00134945 0 -0.00316072 0.00134945 0
-0.00303422 0.00134945 0 -0.00290302 0.00134945 0 -0.00276695 0.00134945 0 -0.00262582
0.00134945 0 -0.00247944 0.00134945 0 -0.00232763 0.00134945 0 -0.00217018 0.00134945
0 -0.00200687 0.00134945 0 -0.0018375 0.00134945 0 -0.00166184 0.00134945 0
-0.00147965 0.00134945 0 -0.00129069 0.00134945 0 -0.0010947 0.00134945 0 -0.000891441
0.00134945 0 -0.000680626 0.00134945 0 -0.000461978 0.00134945 0 -0.000235206 0.00134945
0 0 0.00134945 0 -0.00328267 0.00143783 0 -0.0034 0.00143783 0
-0.00316072 0.00143783 0 -0.00303422 0.00143783 0 -0.00290302 0.00143783 0 -0.00276695
0.00143783 0 -0.00262582 0.00143783 0 -0.00247944 0.00143783 0 -0.00232763 0.00143783
0 -0.00217018 0.00143783 0 -0.00200687 0.00143783 0 -0.0018375 0.00143783 0
-0.00166184 0.00143783 0 -0.00147965 0.00143783 0 -0.00129068 0.00143783 0 -0.0010947
0.00143783 0 -0.00089144 0.00143783 0 -0.000680625 0.00143783 0 -0.000461977 0.00143783
0 -0.000235205 0.00143783 0 0 0.00143783 0 -0.00328268 0.00152 0
-0.0034 0.00152 0 -0.00316072 0.00152 0 -0.00303422 0.00152 0 -0.00290302
0.00152 0 -0.00276695 0.00152 0 -0.00262582 0.00152 0 -0.00247944 0.00152
0 -0.00232763 0.00152 0 -0.00217018 0.00152 0 -0.00200687 0.00152 0
-0.0018375 0.00152 0 -0.00166184 0.00152 0 -0.00147964 0.00152 0 -0.00129068
0.00152 0 -0.0010947 0.00152 0 -0.000891439 0.00152 0 -0.000680624 0.00152
0 -0.000461976 0.00152 0 -0.000235204 0.00152 0 0 0.00152 0
-0.00328268 0.00159638 0 -0.0034 0.00159638 0 -0.00316072 0.00159638 0 -0.00303422
0.00159638 0 -0.00290302 0.00159638 0 -0.00276695 0.00159638 0 -0.00262582 0.00159638
0 -0.00247944 0.00159638 0 -0.00232763 0.00159638 0 -0.00217017 0.00159638 0
-0.00200687 0.00159638 0 -0.0018375 0.00159638 0 -0.00166183 0.00159638 0 -0.00147964
0.00159638 0 -0.00129068 0.00159638 0 -0.0010947 0.00159638 0 -0.000891439 0.00159638
0 -0.000680623 0.00159638 0 -0.000461975 0.00159638 0 -0.000235203 0.00159638 0
[...]
POINT_DATA 1819
FIELD attributes 2
p 1 1819 float
-0.172803 -0.210175 -0.203984 -0.173733 -0.136468 -0.13745 -0.108586 -0.109608 -0.0886527 -0.0895192 -0.079295
-0.0807896 -0.0652212 -0.0657191 -0.0784698 -0.0786767 -0.107453 -0.105968 -0.170184 -0.206599 -0.134005
-0.106326 -0.0868706 -0.0770558 -0.0644461 -0.0784774 -0.104073 -0.1659 -0.201772 -0.130225 -0.10313
-0.0844155 -0.075228 -0.0636324 -0.0788302 -0.104787 -0.159849 -0.195039 -0.124865 -0.0985618 -0.0808083
-0.0727653 -0.0624817 -0.0792732 -0.106157 -0.152129 -0.186457 -0.118039 -0.0927455 -0.0762134 -0.0697765
-0.0612816 -0.0802601 -0.108524 -0.142847 -0.176118 -0.109863 -0.0857927 -0.070749 -0.0663829 -0.0602478
-0.0822586 -0.112513 -0.132145 -0.16415 -0.100475 -0.0778232 -0.0645198 -0.0626975 -0.0596246 -0.0858725
-0.11898 -0.120211 -0.150733 -0.0900584 -0.0689899 -0.0576437 -0.0588411 -0.0597283 -0.0920018 -0.129249
-0.107297 -0.136112 -0.0788555 -0.0594879 -0.0502468 -0.0548952 -0.0608966 -0.10195 -0.145362 -0.0937264
-0.120604 -0.0671761 -0.0495684 -0.042469 -0.0508173 -0.0631588 -0.116835 -0.169393 -0.0799005 -0.104613
-0.0554105 -0.0395734 -0.0345856 -0.0466412 -0.0665443 -0.137674 -0.203189 -0.0662882 -0.0886156 -0.0440249
-0.0299701 -0.0271158 -0.0428555 -0.0735207 -0.171048 -0.255475 -0.0533981 -0.0731404 -0.0335349 -0.0213309
-0.0205239 -0.0395987 -0.0886117 -0.238295 -0.360432 -0.0417446 -0.058718 -0.024483 -0.0142661 -0.0149119
-0.0351021 -0.105639 -0.346455 -0.542489 -0.0303181 -0.0442136 -0.0163115 -0.00842413 -0.00923091 -0.0258335
-0.0947775 -0.319383 -0.443512 4.90367 4.973 4.97563 4.90658 4.86447 4.86766 4.87584
4.87926 4.83618 4.83958 4.79378 4.79735 4.74752 4.75114 4.69938 4.70295 4.6513
4.65472 4.60508 4.60825 4.56217 4.56503 4.52362 4.52612 4.49 4.49214 4.46154
4.46332 4.43812 4.43957 4.41942 4.42058 4.405 4.40593 4.39441 4.39515 4.38723
4.38784 4.38334 4.38388 4.38273 4.38229 4.89577 4.96491 4.85618 4.86707 4.82691
4.7841 4.73768 4.68965 4.64198 4.59642 4.55437 4.51678 4.48419 4.45671 4.43419
4.41626 4.40249 4.39239 4.38556 4.38186 4.38083 4.8832 4.9527 4.84338 4.85366
4.81224 4.76893 4.72233 4.67457 4.62759 4.58313 4.54246 4.50642 4.47541 4.44945
4.4283 4.41157 4.39876 4.3894 4.38309 4.37968 4.37873 4.86571 4.93572 4.82567
4.83515 4.79209 4.74832 4.70171 4.65452 4.6087 4.56586 4.52714 4.49322 4.46432
4.44035 4.42098 4.40575 4.39417 4.38574 4.38008 4.37704 4.37618 4.84322 4.91383
4.80298 4.81149 4.76661 4.72259 4.67629 4.63015 4.58604 4.54542 4.50924 4.47796
4.45163 4.43003 4.41275 4.39926 4.38908 4.38171 4.37678 4.37414 4.37339 4.81526
4.88651 4.77488 4.78234 4.73564 4.6918 4.64637 4.60193 4.56021 4.52248 4.48943
4.46129 4.43794 4.41901 4.40403 4.39245 4.38376 4.37752 4.37336 4.37115 4.37053
4.78105 4.85289 4.74072 4.74716 4.6989 4.65598 4.61219 4.57029 4.53178 4.49765
4.46832 4.44377 4.42372 4.40769 4.39516 4.38557 4.37844 4.37335 4.36998 4.3682
4.3677 4.73947 4.81173 4.69959 4.70526 4.65603 4.61512 4.57404 4.53571 4.50131
4.47152 4.44646 4.42591 4.40941 4.39643 4.38641 4.37884 4.37327 4.36932 4.36673
4.36537 4.36499 4.68902 4.76125 4.65036 4.6558 4.60668 4.56933 4.53227 4.4987
4.46939 4.44467 4.42438 4.40812 4.39534 4.38548 4.37799 4.37242 4.36837 4.36553
4.36368 4.36272 4.36247 4.62764 4.69898 4.59156 4.59785 4.5506 4.5188 4.48734
4.45986 4.43661 4.41763 4.40253 4.39078 4.3818 4.37505 4.37005 4.3664 4.36381
4.36202 4.36087 4.36029 4.36015 4.55259 4.62145 4.52144 4.53043 4.48766 4.46391
4.43983 4.4198 4.40357 4.39091 4.3813 4.37417 4.36899 4.36529 4.36268 4.36087
4.35963 4.35882 4.35833 4.3581 4.35805 4.46014 4.52368 4.43792 4.45259 4.41804
4.40521 4.39042 4.37922 4.37084 4.36495 4.36101 4.35853 4.35707 4.3563 4.35594
4.35584 4.35587 4.35596 4.35605 4.35614 4.35618 4.34518 4.39841 4.33865 4.3636
4.34223 4.34345 4.33989 4.3388 4.33895 4.34014 4.34193 4.34401 4.34613 4.34812
4.34987 4.35134 4.35252 4.35341 4.35404 4.35441 4.35453 4.2006 4.23469 4.2212
4.26302 4.26113 4.2795 4.28906 4.29921 4.30839 4.31679 4.32424 4.33072 4.33622
4.34077 4.34445 4.34734 4.34956 4.35118 4.35228 4.3529 4.35309 4.01629 4.01559
4.08333 4.15096 4.17604 4.21434 4.23881 4.26108 4.27956 4.29512 4.30806 4.3187
4.32734 4.33424 4.33966 4.34384 4.34697 4.34923 4.35075 4.35159 4.35184 3.77733
3.71402 3.92354 4.02812 4.08839 4.14897 4.19013 4.22495 4.25275 4.27528 4.29343
4.30795 4.31947 4.3285 4.33548 4.34079 4.34473 4.34755 4.34943 4.35046 4.35077
3.46119 3.28572 3.74229 3.89589 3.99987 4.08466 4.14382 4.19125 4.22816 4.25734
4.28036 4.29844 4.31256 4.32349 4.33186 4.33816 4.34281 4.34611 4.34831 4.34951
4.34986 3.03362 2.66625 3.54034 3.75708 3.91208 4.02288 4.10043 4.16027 4.2059
4.24131 4.2688 4.29011 4.30656 4.31917 4.32874 4.33591 4.34117 4.34489 4.34736
4.34869 4.34908 2.45019 1.777 3.31731 3.61699 3.82689 3.96486 4.06048 4.1322
4.18601 4.22715 4.25868 4.28287 4.30138 4.31546 4.32608 4.334 4.33978 4.34386
4.34656 4.34801 4.34843 1.72928 -4.7631 3.07722 3.48931 3.75053 3.91403 4.026
4.10828 4.16926 4.21534 4.25032 4.27694 4.29716 4.31246 4.32394 4.33246 4.33867
4.34303 4.34592 4.34746 4.34791 -0.0154649 -0.0237049 -0.00772681 -0.00460247 -0.00720575 -0.0202964
-0.0616226 -0.138701 -0.178694 -0.00709764 -0.0106715 -0.0047109 -0.00576449 -0.0112411 -0.0243813 -0.0499395
-0.0803433 -0.0918351 -0.00317804 -0.00395309 -0.00388099 -0.00693148 -0.0128503 -0.0229733 -0.038474 -0.0557794
-0.0683267 -0.00150171 -0.000869709 -0.00392545 -0.00779992 -0.0133443 -0.0210038 -0.0306985 -0.0402796 -0.048158
-0.00126223 3.18569e-05 -0.0045172 -0.00863609 -0.0136651 -0.0198848 -0.0271988 -0.0342767 -0.0406629 -0.00215916
-0.000343121 -0.00558092 -0.00961772 -0.014205 -0.0195303 -0.0255291 -0.0313409 -0.0369165 -0.00311635 -0.000832714
-0.00665487 -0.0106418 -0.0150034 -0.0198694 -0.0251898 -0.0303683 -0.0354946 -0.00367667 -0.00106286 -0.00749679
-0.0115994 -0.0159413 -0.0206321 -0.0256377 -0.0305427 -0.0354753 -0.00410139 -0.00122558 -0.00822042 -0.0125149
-0.0169609 -0.0216477 -0.0265543 -0.0313968 -0.0362969 -0.00446356 -0.00136391 -0.00887593 -0.0133985 -0.0180182
-0.022803 -0.0277432 -0.0326517 -0.0376252 -0.00478716 -0.00148955 -0.00948227 -0.0142481 -0.0190782 -0.0240219
-0.0290789 -0.0341338 -0.0392523 -0.00508005 -0.00160611 -0.0100431 -0.0150531 -0.0201073 -0.0252429 -0.0304702
-0.0357248 -0.0410379 -0.0053496 -0.00171604 -0.010568 -0.0158195 -0.0211025 -0.0264549 -0.0319042 -0.037386
-0.0428976 -0.00560896 -0.00182285 -0.0110751 -0.0165524 -0.022033 -0.0275924 -0.0333292 -0.039006 -0.0447215
-0.00573792 -0.00218113 -0.0113262 -0.0169084 -0.0224706 -0.0281211 -0.0340192 -0.0398087 -0.04568 -0.145072
-0.20851 -0.120959 -0.171122 -0.107137 -0.150446 -0.0982835 -0.136375 -0.0930191 -0.127344 -0.0903235
-0.121911 -0.0895193 -0.119048 -0.0902054 -0.118144 -0.0921251 -0.11884 -0.0950202 -0.120747 -0.0986977
-0.123548 -0.103095 -0.127163 -0.10816 -0.131536 -0.113834 -0.136558 -0.120075 -0.142182 -0.126859
-0.148365 -0.13417 -0.155084 -0.142001 -0.162329 -0.150332 -0.170049 -0.159244 -0.17833 -0.16882
-0.187319 -0.179075 -0.196992 -0.190061 -0.207395 -0.201833 -0.21857 -0.214388 -0.230444 -0.227903
-0.243192 -0.242644 -0.257164 -0.258768 -0.272495 -0.276395 -0.289286 -0.295733 -0.307738 -0.317056
-0.328126 -0.340704 -0.350776 -0.367106 -0.3761 -0.396796 -0.404613 -0.43042 -0.43694 -0.468775
-0.473839 -0.512956 -0.516357 -0.564547 -0.566022 -0.625556 -0.624797 -0.697918 -0.69472 -0.783415
-0.777403 -0.885157 -0.874303 -1.01042 -0.989528 -1.18752 -1.14597 -1.52996 -1.44183 -2.31238
-2.13452 -3.81703 -3.53845 -5.92858 -5.58475 -8.72968 -8.75029 -6.1522 -0.0850214 -0.0796627
-0.0761639 -0.0742617 -0.0736504 -0.0741335 -0.0755781 -0.0778705 -0.0809202 -0.0846467 -0.0889845 -0.0938869
-0.0993332 -0.105299 -0.111766 -0.118729 -0.126185 -0.134139 -0.142616 -0.151652 -0.161299 -0.171603
-0.182623 -0.19444 -0.207141 -0.220849 -0.23576 -0.25204 -0.269845 -0.289391 -0.310964 -0.334926
-0.361724 -0.391908 -0.426159 -0.465322 -0.510529 -0.563437 -0.626136 -0.700509 -0.789082 -0.898496
-1.04164 -1.25263 -1.65428 -2.51837 -4.06795 -6.11675 -7.77509 -4.90123 -0.0721391 -0.0738556
-0.0749721 -0.0760978 -0.0775299 -0.0794029 -0.0817884 -0.0847001 -0.0881274 -0.0920514 -0.0964561 -0.101327
-0.106653 -0.11243 -0.118654 -0.125331 -0.132472 -0.140094 -0.148229 -0.156916 -0.166198 -0.176132
-0.186781 -0.198223 -0.210569 -0.223945 -0.238497 -0.254395 -0.271819 -0.291003 -0.312247 -0.335916
-0.362451 -0.392408 -0.42648 -0.465532 -0.510721 -0.563755 -0.62677 -0.701752 -0.792167 -0.907387
-1.0638 -1.29569 -1.71546 -2.56295 -3.99747 -5.6823 -6.27894 -3.40775 -0.0529906 -0.0562725
-0.0591402 -0.0619042 -0.0647813 -0.0678674 -0.0712393 -0.0749376 -0.0789878 -0.0834051 -0.0881996 -0.0933791
-0.0989513 -0.104925 -0.111312 -0.118126 -0.125389 -0.133125 -0.141371 -0.150166 -0.159558 -0.169606
-0.18038 -0.191962 -0.204461 -0.217998 -0.232714 -0.248774 -0.266374 -0.285752 -0.307201 -0.331072
-0.357798 -0.387921 -0.422121 -0.461252 -0.506469 -0.559451 -0.62222 -0.6968 -0.787338 -0.904125
-1.06305 -1.29275 -1.6831 -2.42016 -3.59079 -4.75569 -4.62728 -2.0815 -0.045807 -0.0500037
-0.0538601 -0.0575552 -0.0612681 -0.0650807 -0.0690664 -0.0732732 -0.0777373 -0.0824859 -0.0875411 -0.0929212
-0.0986441 -0.104727 -0.111191 -0.118056 -0.12535 -0.133104 -0.141356 -0.150149 -0.159534 -0.169571
-0.180334 -0.191906 -0.204392 -0.21791 -0.232598 -0.24862 -0.266169 -0.285478 -0.306828 -0.330559
-0.357087 -0.386933 -0.420739 -0.459311 -0.503752 -0.555608 -0.616641 -0.688757 -0.776202 -0.888429
-1.03806 -1.24544 -1.57528 -2.15415 -2.99712 -3.66084 -3.13951 -1.06719 -0.0420701 -0.0466229
-0.0509533 -0.0551624 -0.0593771 -0.0636559 -0.0680575 -0.0726255 -0.0773968 -0.0824018 -0.0876674 -0.0932176
-0.0990758 -0.105265 -0.111811 -0.11874 -0.126083 -0.133874 -0.142154 -0.150969 -0.160371 -0.170424
-0.181199 -0.192781 -0.205271 -0.218784 -0.233455 -0.249442 -0.266934 -0.286151 -0.307362 -0.330885
-0.357111 -0.386517 -0.41969 -0.45736 -0.500509 -0.550448 -0.608593 -0.676604 -0.758301 -0.861246
-0.993901 -1.16888 -1.42917 -1.84948 -2.39377 -2.6778 -2.00328 -0.378508 -0.0405812 -0.0452751
-0.0498405 -0.0543438 -0.0588715 -0.0634623 -0.0681594 -0.0729986 -0.0780125 -0.0832308 -0.088681 -0.0943895
-0.100382 -0.106685 -0.113327 -0.120338 -0.127751 -0.135602 -0.143935 -0.152796 -0.16224 -0.172329
-0.183137 -0.194745 -0.207252 -0.22077 -0.235427 -0.251377 -0.268796 -0.287895 -0.30892 -0.332165
-0.357983 -0.386798 -0.419121 -0.455577 -0.496984 -0.544361 -0.59876 -0.661498 -0.735631 -0.82649
-0.938801 -1.07944 -1.27486 -1.56155 -1.87798 -1.91547 -1.22251 0.0520056 -0.0405386 -0.0453253
-0.050039 -0.0547368 -0.05948 -0.0642953 -0.0692146 -0.0742668 -0.07948 -0.0848816 -0.0904981 -0.0963563
-0.102483 -0.108907 -0.115657 -0.122764 -0.130265 -0.138198 -0.146605 -0.155536 -0.165044 -0.175193
-0.186053 -0.197707 -0.210248 -0.223784 -0.238438 -0.254356 -0.271701 -0.290669 -0.311485 -0.33441
-0.359756 -0.387884 -0.419219 -0.454269 -0.493657 -0.538108 -0.588323 -0.645217 -0.710919 -0.788667
-0.880334 -0.98881 -1.12853 -1.31084 -1.46558 -1.3554 -0.701299 0.318409 -0.0413889 -0.0462666
-0.0511024 -0.0559547 -0.060869 -0.0658655 -0.0709689 -0.0762028 -0.0815918 -0.0871611 -0.092936 -0.0989427
-0.105209 -0.111762 -0.118634 -0.125856 -0.133466 -0.141502 -0.150007 -0.159032 -0.16863 -0.178863
-0.189802 -0.201526 -0.214125 -0.227703 -0.242377 -0.258281 -0.275571 -0.294421 -0.315034 -0.337642
-0.362507 -0.38993 -0.420249 -0.453845 -0.491153 -0.532626 -0.578641 -0.629687 -0.686964 -0.75195
-0.824459 -0.904502 -0.997789 -1.1002 -1.14223 -0.94566 -0.345633 0.492367 -0.0427951 -0.0477802
-0.0527393 -0.0577359 -0.062806 -0.0679663 -0.073237 -0.0786389 -0.0841939 -0.0899255 -0.095858 -0.102017
-0.10843 -0.115125 -0.122134 -0.129489 -0.137228 -0.145389 -0.154018 -0.163162 -0.172877 -0.183224
-0.19427 -0.206094 -0.218782 -0.232434 -0.24716 -0.263087 -0.280356 -0.299127 -0.319581 -0.341917
-0.366356 -0.393139 -0.422524 -0.454778 -0.490164 -0.528899 -0.571072 -0.616756 -0.666322 -0.719852
-0.775625 -0.831375 -0.886476 -0.927729 -0.890928 -0.644637 -0.0965169 0.613241 -0.0445426 -0.0496564
-0.0547513 -0.0598969 -0.0651226 -0.0704438 -0.0758785 -0.0814455 -0.0871656 -0.093061 -0.0991554 -0.105474
-0.112044 -0.118894 -0.126056 -0.133563 -0.141451 -0.149762 -0.158538 -0.167829 -0.177689 -0.188179
-0.199365 -0.211323 -0.224138 -0.237903 -0.252726 -0.268724 -0.286028 -0.304785 -0.325155 -0.347311
-0.371438 -0.397728 -0.426369 -0.457538 -0.491358 -0.527847 -0.566852 -0.60808 -0.651212 -0.695231
-0.737181 -0.772854 -0.797005 -0.79136 -0.699258 -0.424974 0.0798609 0.700455 -0.0464806 -0.0517414
-0.0569867 -0.0622912 -0.0676791 -0.0731653 -0.0787668 -0.0845018 -0.0903904 -0.0964545 -0.102717 -0.109205
-0.115943 -0.122962 -0.130292 -0.137969 -0.146027 -0.154509 -0.163458 -0.172924 -0.182959 -0.193624
-0.204986 -0.217118 -0.230104 -0.244033 -0.259009 -0.275144 -0.292562 -0.311399 -0.3318 -0.353919
-0.377914 -0.403939 -0.432132 -0.462619 -0.495412 -0.530364 -0.567142 -0.60516 -0.643552 -0.680413
-0.711727 -0.731575 -0.731259 -0.689768 -0.558683 -0.268665 0.203624 0.763899 -0.0485221 -0.0539629
-0.0593757 -0.0648538 -0.0704157 -0.0760765 -0.0818527 -0.087763 -0.0938274 -0.100068 -0.106509 -0.113175
-0.120093 -0.127294 -0.134808 -0.14267 -0.150918 -0.159591 -0.168734 -0.178397 -0.188633 -0.199501
-0.211069 -0.223407 -0.236599 -0.250733 -0.265909 -0.282235 -0.299831 -0.318825 -0.339353 -0.361556
-0.385574 -0.411537 -0.439547 -0.469784 -0.502197 -0.536461 -0.572144 -0.608465 -0.644197 -0.676701
-0.701 -0.709697 -0.691431 -0.623562 -0.465321 -0.165796 0.285275 0.808194 -0.0507498 -0.0565735
-0.0622022 -0.0679027 -0.0736774 -0.0795496 -0.0855377 -0.0916621 -0.0979442 -0.104407 -0.111074 -0.117973
-0.12513 -0.132576 -0.140343 -0.148465 -0.156982 -0.165932 -0.175363 -0.185322 -0.195864 -0.207049
-0.218943 -0.231618 -0.245155 -0.259643 -0.27518 -0.291873 -0.309839 -0.329205 -0.350102 -0.372668
-0.397037 -0.423328 -0.451622 -0.481924 -0.514207 -0.548324 -0.583772 -0.619624 -0.654243 -0.684585
-0.705183 -0.707432 -0.678116 -0.594397 -0.418588 -0.11088 0.330106 0.835322 -0.0519424 -0.0580333
-0.0637896 -0.0696208 -0.0755172 -0.0815101 -0.0876197 -0.0938679 -0.100277 -0.10687 -0.113673 -0.120711
-0.128014 -0.13561 -0.143534 -0.15182 -0.160506 -0.169634 -0.179249 -0.189401 -0.200144 -0.211538
-0.223649 -0.23655 -0.250323 -0.265055 -0.280845 -0.2978 -0.316038 -0.335683 -0.35687 -0.379738
-0.40442 -0.431039 -0.459663 -0.490047 -0.522221 -0.556311 -0.591771 -0.627594 -0.661851 -0.691446
-0.710881 -0.71102 -0.677973 -0.589414 -0.407162 -0.0952763 0.343157 0.866269 1.22921 2.85568
3.38748 3.68827 3.87319 3.99848 4.08936 4.1561 4.20613 4.24385 4.27237 4.29393
4.31016 4.32231 4.3313 4.33783 4.34241 4.34544 4.34705 4.34752 1.16047 2.6805
3.30291 3.63292 3.83721 3.97428 4.07284 4.14471 4.19821 4.23831 4.26849 4.29119
4.30823 4.32094 4.33032 4.33712 4.3419 4.34504 4.34671 4.34719 1.29477 2.55929
3.22963 3.58072 3.8032 3.95138 4.05729 4.13405 4.19086 4.2332 4.26492 4.2887
4.30648 4.3197 4.32944 4.33649 4.34143 4.34468 4.34641 4.3469 1.41779 2.48138
3.16709 3.53292 3.77156 3.93 4.04283 4.1242 4.1841 4.22854 4.26168 4.28644
4.3049 4.31859 4.32866 4.33593 4.34102 4.34436 4.34614 4.34664 1.48703 2.43062
3.1131 3.49021 3.74259 3.91037 4.02959 4.11523 4.17799 4.22435 4.25879 4.28443
4.3035 4.31762 4.32797 4.33544 4.34066 4.34408 4.3459 4.34641 1.52437 2.39727
3.06625 3.45281 3.71649 3.89267 4.01767 4.10721 4.17256 4.22065 4.25626 4.28269
4.30229 4.31677 4.32738 4.33502 4.34035 4.34384 4.3457 4.34622 1.54499 2.37528
3.02629 3.42064 3.69342 3.87702 4.00717 4.10019 4.16784 4.21747 4.2541 4.28121
4.30127 4.31607 4.32689 4.33467 4.3401 4.34365 4.34554 4.34606 1.55736 2.3604
2.99304 3.39354 3.67352 3.86355 3.99816 4.09422 4.16387 4.21481 4.25231 4.28
4.30045 4.3155 4.32649 4.33439 4.3399 4.3435 4.34541 4.34594 1.56789 2.35015
2.96607 3.3713 3.65689 3.85233 3.99072 4.08934 4.16067 4.21271 4.25091 4.27906
4.29982 4.31507 4.3262 4.33419 4.33975 4.34339 4.34531 4.34585 1.57941 2.34345
2.94497 3.35372 3.6436 3.84344 3.98489 4.08559 4.15826 4.21115 4.2499 4.2784
4.29939 4.31479 4.32601 4.33406 4.33966 4.34332 4.34525 4.34579 1.59185 2.33977
2.92944 3.34067 3.6337 3.83693 3.98072 4.083 4.15666 4.21016 4.24929 4.27802
4.29915 4.31464 4.32591 4.334 4.33962 4.34329 4.34523 4.34576 1.6043 2.33899
2.91944 3.33219 3.62732 3.83293 3.97831 4.08162 4.15589 4.20976 4.24909 4.27793
4.29912 4.31464 4.32592 4.33401 4.33963 4.34331 4.34524 4.34577 1.61669 2.34173
2.9155 3.32877 3.62486 3.83169 3.97782 4.08156 4.15604 4.20998 4.24932 4.27815
4.2993 4.31478 4.32604 4.3341 4.33971 4.34336 4.34529 4.34583 1.62893 2.3479
2.91739 3.33018 3.62612 3.83302 3.97908 4.08269 4.15699 4.21075 4.24993 4.27862
4.29966 4.31506 4.32625 4.33426 4.33982 4.34346 4.34539 4.34593 1.63646 2.35305
2.92062 3.33268 3.62806 3.8346 3.98034 4.08367 4.15775 4.21133 4.25037 4.27895
4.29991 4.31524 4.32638 4.33436 4.3399 4.34352 4.34544 4.34599 
U 3 1819 float
0.666815 -0.00486279 -1.35525e-20 0.660537 -0.000772681 3.38813e-21 0.661551 -0.00081964 -3.57519e-05 0.667967 -0.00272119
-0.000118696 0.686505 -0.00962733 2.1684e-19 0.687519 -0.00535148 -0.000233427 0.718779 -0.0141067 -2.00577e-18
0.719623 -0.00782304 -0.000341235 0.763179 -0.0180686 2.1684e-18 0.764049 -0.00997095 -0.000434926 0.812191
-0.0221592 1.0842e-19 0.812235 -0.0124885 -0.00054474 0.899672 -0.0224514 1.0842e-18 0.899228 -0.0120928
-0.000527481 0.915319 -0.0207337 -4.11997e-18 0.916087 -0.0112434 -0.000490429 0.921555 -0.00727766 -0.000317446
0.958285 -0.00648268 3.63208e-18 0.662933 -0.00911396 2.98156e-19 0.656487 -0.0016092 2.43945e-19 0.682899
-0.0180815 -7.58942e-19 0.715565 -0.026521 1.19262e-18 0.760187 -0.0340865 -2.81893e-18 0.810703 -0.0409672
1.19262e-18 0.899297 -0.0436579 9.75782e-19 0.913579 -0.0398783 4.33681e-19 0.952551 -0.0125922 2.98156e-18
0.655866 -0.0135052 1.13841e-18 0.649309 -0.00244586 5.42101e-19 0.676135 -0.026794 2.05998e-18 0.709333
-0.0393359 -1.40946e-18 0.754676 -0.0506566 2.81893e-18 0.806635 -0.06031 4.33681e-19 0.89681 -0.0661387
-3.68629e-18 0.91171 -0.059949 6.50521e-19 0.950805 -0.0182686 7.64363e-18 0.645623 -0.0181048 1.46367e-18
0.638944 -0.00334343 7.31836e-19 0.666258 -0.0359522 5.42101e-19 0.700159 -0.0528758 4.98733e-18 0.746628
-0.068237 -4.33681e-19 0.800303 -0.0811798 -1.73472e-18 0.892769 -0.0897943 4.33681e-18 0.909804 -0.0811381
2.38524e-18 0.94949 -0.0247644 -2.1684e-19 0.632214 -0.0228401 1.40946e-18 0.6254 -0.00430211 -1.49078e-19
0.653271 -0.0454224 -8.67362e-19 0.688025 -0.0669732 0 0.735957 -0.0866895 3.03577e-18 0.791749
-0.103351 -2.60209e-18 0.887307 -0.114757 -1.30104e-18 0.907609 -0.103474 -4.33681e-18 0.948168 -0.0319958
-1.51788e-18 0.615564 -0.0277112 -3.79471e-18 0.608615 -0.00533039 -2.46656e-18 0.637059 -0.0552231 4.33681e-19
0.672758 -0.0817035 -1.73472e-18 0.722428 -0.106196 2.1684e-18 0.780791 -0.127086 4.77049e-18 0.880351
-0.141545 -1.0842e-17 0.905027 -0.127326 1.04083e-17 0.946752 -0.0400309 -1.51788e-18 0.59557 -0.0327033
-6.50521e-18 0.588507 -0.00643098 -1.78893e-18 0.617456 -0.0653487 8.67362e-19 0.654099 -0.097121 4.33681e-19
0.705695 -0.126942 2.1684e-18 0.767104 -0.152746 -1.73472e-18 0.871749 -0.170729 4.33681e-18 0.902035
-0.153079 1.73472e-18 0.945248 -0.0489604 -4.55365e-18 0.572133 -0.0377711 -1.0842e-19 0.565009 -0.00759796
8.67362e-19 0.594267 -0.0757372 -6.50521e-19 0.631714 -0.113216 -3.90313e-18 0.685288 -0.14908 1.30104e-18
0.750203 -0.18077 2.60209e-18 0.861299 -0.203054 -4.33681e-18 0.898721 -0.181218 1.73472e-18 0.943731
-0.0588758 -1.36609e-17 0.545186 -0.0428265 1.84314e-18 0.538097 -0.00881408 8.67362e-19 0.567294 -0.0862442
-2.1684e-19 0.605195 -0.129871 -3.03577e-18 0.660554 -0.172682 -5.20417e-18 0.729351 -0.211695 3.46945e-18
0.848761 -0.239599 5.20417e-18 0.89536 -0.21258 -1.99493e-17 0.942362 -0.0699659 -2.12504e-17 0.514726
-0.0477245 -1.30104e-18 0.507823 -0.0100471 2.1413e-18 0.536362 -0.0966067 -8.67362e-19 0.574065 -0.146796