/*--------------------------------*- C++ -*----------------------------------*\
  =========                 |
  \\      /  F ield         | OpenFOAM: The Open Source CFD Toolbox
   \\    /   O peration     | Website:  https://openfoam.org
    \\  /    A nd           | Version:  13
     \\/     M anipulation  |
\*---------------------------------------------------------------------------*/
FoamFile
{
    format      ascii;
    class       volScalarField;
    location    "1.8";
    object      alpha.air;
}
// * * * * * * * * * * * * * * * * * * * * * * * * * * * * * * * * * * * * * //

dimensions      [];

internalField   nonuniform List<scalar> 
2268
(
1.67098e-13
2.64554e-13
3.3027e-13
2.54268e-13
1.99374e-13
1.40768e-13
8.51104e-14
4.57322e-14
2.33138e-14
1.28571e-14
7.48896e-15
4.09713e-15
2.03027e-15
1.3472e-15
1.45771e-15
2.67354e-15
6.16297e-15
7.17428e-15
1.30433e-14
2.976e-14
1.01898e-13
3.00517e-13
3.56657e-13
7.42295e-13
1.6101e-12
1.67243e-12
1.45072e-12
1.2386e-12
9.25871e-13
6.21385e-13
3.56659e-13
1.84723e-13
9.9638e-14
5.91724e-14
3.55359e-14
2.02573e-14
1.49815e-14
2.21063e-14
8.00499e-14
1.19379e-13
4.16857e-14
1.10226e-13
1.65881e-13
4.42369e-13
3.05613e-12
2.32873e-11
2.17051e-12
4.5975e-12
4.1976e-12
3.50948e-12
3.07415e-12
2.48451e-12
1.69289e-12
9.3095e-13
5.197e-13
2.99684e-13
1.96649e-13
1.38597e-13
1.08946e-13
1.32862e-13
5.00458e-13
2.94596e-12
9.54336e-12
3.25409e-12
2.85748e-12
4.63819e-12
2.23171e-12
8.52347e-11
5.42533e-10
8.83312e-12
1.65619e-11
1.77777e-11
1.49283e-11
1.12278e-11
8.20539e-12
5.52791e-12
3.52051e-12
2.13486e-12
1.30116e-12
8.07642e-13
5.61247e-13
6.20096e-13
1.91823e-12
9.49225e-12
4.44001e-11
1.26598e-10
2.67273e-10
4.956e-10
1.21326e-09
4.18438e-09
1.69095e-08
6.5375e-09
4.0644e-11
5.88464e-11
6.353e-11
5.59498e-11
4.24069e-11
3.06688e-11
2.1699e-11
1.52824e-11
9.83209e-12
6.13236e-12
3.95773e-12
3.51485e-12
4.97142e-12
1.48019e-11
6.10486e-11
2.13694e-10
7.85106e-10
1.75895e-09
2.62336e-09
4.60436e-09
1.36186e-08
3.01102e-08
9.5158e-09
1.60628e-10
1.75572e-10
1.74669e-10
1.6221e-10
1.42367e-10
1.18842e-10
9.42588e-11
7.04144e-11
4.81596e-11
3.57908e-11
2.45191e-11
2.29359e-11
2.83425e-11
4.74375e-11
1.07545e-10
3.73557e-10
1.48871e-09
3.68278e-09
2.7309e-09
2.92043e-09
4.93441e-09
5.49028e-09
9.68737e-09
6.40353e-10
4.95486e-10
3.58027e-10
3.33039e-10
3.41019e-10
3.47979e-10
3.18466e-10
2.72342e-10
2.2761e-10
1.725e-10
1.22397e-10
8.94202e-11
7.71317e-11
7.74846e-11
9.23801e-11
1.25362e-10
1.55902e-10
4.33469e-08
2.8953e-06
1.67545e-05
4.37058e-05
0.000247784
0.000526439
1.90794e-09
1.1371e-09
6.88024e-10
5.07479e-10
5.27207e-10
7.45364e-10
7.95789e-10
7.05501e-10
5.79116e-10
4.29082e-10
3.30514e-10
2.63895e-10
2.47892e-10
2.64907e-10
5.2022e-10
6.38887e-09
5.11483e-08
2.33507e-06
4.52167e-05
0.000242694
0.000810893
0.00148756
0.00271282
0.000328076
0.000328333
0.00887092
0.0291859
0.0477767
0.0739975
0.073874
0.0665782
0.0450998
0.049752
0.0790248
0.1181
0.0952574
0.0389174
0.0150839
0.0149112
0.0149112
0.0149112
0.0149112
0.00114142
0.00109221
0.000330355
0.000328278
0.000330646
0.00509689
0.0155435
0.0221891
0.0264404
0.0209774
0.0210505
0.124529
0.140828
0.113223
0.0555443
0.0601438
0.0834144
0.0952835
0.0193637
0.0152272
0.0177832
0.0137727
0.00676777
0.00436606
0.00131296
2.30656e-05
0.0120035
0.133112
0.156976
0.0854683
0.0753185
0.274608
0.457805
0.458558
0.39799
0.380997
0.295468
0.0873677
0.0191054
0.0204341
0.0268809
0.0264112
0.0152291
0.00515035
2.49787e-05
2.30669e-05
0.213553
0.533421
0.497639
0.479913
0.507568
0.496308
0.392999
0.361148
0.382364
0.273718
0.117703
0.0157683
0.0147679
0.0225234
0.0282907
0.0238731
0.00675301
2.30647e-05
2.47703e-05
0.136992
0.546376
0.562913
0.564298
0.557091
0.473431
0.082746
0.0295372
0.0416606
0.0257315
0.0246099
0.0288514
0.0190009
0.0120283
0.027708
0.0170855
0.00384039
0.000121565
2.30669e-05
0.00916573
0.319216
0.557774
0.566299
0.568413
0.351093
0.0087257
2.45669e-10
-7.36488e-14
2.45669e-10
0.00556647
0.0636741
0.0584523
0.0181658
0.0103677
0.0108729
0.0301367
0.0393683
0.00624359
3.17535e-06
0.0525129
0.189769
0.296568
0.297031
0.079122
0.000794374
3.9419e-06
2.45743e-10
0.000971616
0.0996209
0.0645463
0.0814791
0.0305088
0.0110694
0.0291247
0.163641
0.128454
0.00930273
4.36789e-08
2.46261e-05
2.5816e-08
0.00106171
0.000652974
2.44121e-05
0.000207829
7.49304e-05
1.35829e-11
0.0243215
0.111096
3.96315e-09
2.36218e-09
9.99454e-10
8.60359e-10
1.07449e-09
1.49451e-09
2.80347e-09
2.90679e-09
2.4458e-09
1.97261e-09
1.37569e-09
9.2082e-10
8.69827e-10
1.00451e-09
4.95411e-09
7.42389e-08
9.40101e-07
9.51136e-06
6.90947e-05
0.000321437
0.00093775
0.00122238
0.00214684
1.50918e-09
1.19664e-09
8.44268e-10
8.03811e-10
8.49259e-10
1.96689e-09
4.3497e-09
6.39842e-09
6.69342e-09
7.22419e-09
8.31702e-09
9.36774e-09
9.66217e-09
9.09848e-09
1.26784e-08
1.08945e-08
6.23938e-08
1.43807e-07
2.72204e-07
0.000950602
0.00609227
0.0285829
0.0434234
8.18311e-10
8.11956e-10
6.54047e-10
6.82315e-10
5.38969e-10
5.764e-10
4.66865e-10
4.53553e-10
3.80576e-10
4.23384e-10
3.80222e-10
4.23383e-10
3.80658e-10
4.29089e-10
1.54866e-07
0.00119734
0.00614958
0.0206642
0.0557851
0.0990422
0.128554
0.123779
0.123307
0.117211
0.0309114
0.015447
0.00446507
0.00329257
1.54801e-06
1.62036e-05
0.00853163
0.0110213
0.0126383
0.016948
0.0293616
0.0514302
0.076178
0.0910932
0.0942067
0.100864
0.139858
0.16899
0.167951
0.165435
0.122253
0.0502945
0.207931
0.0683826
0.00869441
0.00466432
0.016667
0.10555
0.186339
0.189087
0.187901
0.19161
0.200208
0.20758
0.212566
0.212161
0.197608
0.151278
0.107092
0.0919446
0.0974561
0.0874108
0.0259483
5.97195e-07
5.5725e-07
0.207375
0.0214121
0.0119748
0.0109376
0.017405
0.0957392
0.129478
0.100569
0.0641853
0.0637318
0.0759064
0.0775012
0.0669724
0.0294934
0.0096413
0.00934104
0.0156259
0.0309568
0.0514804
0.0711715
0.091874
0.105494
0.106956
0.139001
0.0391188
0.0228397
0.018084
0.0180838
0.0183372
0.0199029
0.0207711
0.0239463
0.0363422
0.059374
0.092967
0.141527
0.210378
0.285645
0.39494
0.512579
0.610229
0.681305
0.731327
0.768124
0.791312
0.786059
0.397668
0.44768
0.468535
0.454789
0.474319
0.512215
0.551981
0.605572
0.66997
0.732418
0.790053
0.844998
0.897371
0.945052
0.989093
1
1
1
1
1
1
1
1
0.932289
0.90906
0.913771
0.95833
0.991536
0.997796
1
1
1
1
1
0.999999
0.999999
0.999999
1
1
1
1
1
1
1
1
1
0.999999
0.999999
0.994599
0.994109
0.999431
0.999999
1
1
1
1
0.999971
0.999943
0.99998
0.999999
1
1
0.999999
0.999999
0.999999
0.999999
1
1
1
0.999999
0.999994
0.99998
0.998788
0.999922
0.999999
1
1
1
0.999965
0.999826
0.999825
0.999904
0.999997
0.999999
0.999998
0.999998
0.999999
0.999999
0.999999
0.999999
1
1
0.999999
0.999979
0.999999
0.999879
0.999998
1
1
1
0.999997
0.999844
0.999826
0.999825
0.999895
0.999997
0.999997
0.999997
0.999997
0.999999
0.999999
1
1
1
1
0.999999
0.999999
1
1
1
1
1
1
0.999996
0.999883
0.999828
0.999835
0.999982
0.999997
0.999997
0.999997
0.999999
1
1
1
1
1
1
0.999999
0.999999
0.999999
1
1
1
1
1
0.999999
1
0.999958
0.999976
0.999999
0.999997
0.999998
1
1
1
1
1
1
1
1
1
0.999999
1
1
1
1
1
1
0.999999
1
1
1
1
0.999998
1
1
1
1
1
1
1
1
1
1
1
1
1
1
1
1
1
1
1
1
1
0.999999
0.999998
1
1
1
1
1
1
1
1
1
1
1
1
1
1
1
1
1
1
1
1
1
0.999999
0.999999
1
1
1
1
1
1
1
1
1
1
1
1
1
1
1
1
1
1
1
1
1
1
1
1
1
1
1
1
1
1
1
1
1
1
1
1
1
1
1
1
1
1
1
1
1
1
1
1
1
1
1
1
1
1
1
1
1
1
1
1
1
1
1
1
1
1
1
1
1
1
1
1
1
1
1
1
1
1
1
1
1
1
1
1
1
1
1
1
1
1
1
1
1
1
1
1
1
1
1
1
1
1
1
1
1
1
1
1
1
1
1
1
1
1
1
1
1
1
1
1
1
1
1
1
1
1
1
1
1
1
1
1
1
1
1
1
1
1
1
1
1
1
1
1
1
1
1
1
1
1
1
1
1
1
1
1
1
1
1
1
1
1
1
1
1
1
1
1
1
1
1
1
1
1
1
1
1
1
1
1
1
1
1
1
1
1
1
1
1
1
1
1
1
1
1
1
1
1
1
1
1
1
1
1
1
1
1
1
1
1
1
1
1
1
1
1
1
1
1
1
1
1
1
1
1
1
1
1
1
1
1
1
1
1
1
1
1
1
1
1
1
1
1
1
1
1
1
1
1
1
1
1
1
1
1
1
1
1
1
1
1
1
1
1
1
1
1
1
1
1
1
1
1
1
1
1
1
1
1
1
1
1
1
1
1
1
1
1
1
1
1
1
1
1
1
1
1
1
1
1
1
1
1
1
1
1
1
1
1
1
1
1
1
1
1
1
1
1
1
1
1
1
1
1
1
1
1
1
1
1
1
1
1
1
1
1
1
1
1
1
1
1
1
1
1
1
1
1
1
1
1
1
1
1
1
1
1
1
1
1
1
1
1
1
1
1
1
1
1
1
1
1
1
1
1
1
1
1
1
1
1
1
1
1
1
1
1
1
1
1
1
1
1
1
1
1
1
1
1
1
1
1
1
1
1
1
1
1
1
1
1
1
1
1
1
1
1
1
1
1
1
1
1
1
1
1
1
1
1
1
1
1
1
1
1
1
1
1
1
1
1
1
1
1
1
1
1
1
1
1
1
1
1
1
1
1
1
1
1
1
1
1
1
1
1
1
1
1
1
1
1
1
1
1
1
1
1
1
1
1
1
1
1
1
1
1
1
1
1
1
1
1
1
1
1
1
1
1
1
1
1
1
1
1
1
1
1
1
1
1
1
1
1
1
1
1
1
1
1
1
1
1
1
1
1
1
1
1
1
1
1
1
1
1
1
1
1
1
1
1
1
1
1
1
1
1
1
1
1
1
1
1
1
1
1
1
1
1
1
1
1
1
1
1
1
1
1
1
1
1
1
1
1
1
1
1
1
1
1
1
1
1
1
1
0.0102599
0.00980106
0.00773347
0.00939875
0.0382936
0.00988719
0.00189144
0.0636695
0.0710898
0.00935715
0.000230627
0.117849
0.00502043
0.00113393
0.000815394
0.049069
4.57409e-07
4.73003e-07
4.57505e-07
3.49552e-07
0.104349
0.087477
0.0575588
0.0192392
0.762029
0.725484
0.660213
0.561398
1
0.999999
0.999999
0.999999
1
1
1
1
1
1
1
1
1
1
1
1
1
1
1
1
1
1
1
1
1
1
1
1
1
1
1
1
1
1
1
1
1
1
1
1
1
1
1
1
1
1
1
1
1
1
1
1
1
1
1
1
1
1
1
1
1
1
1
1
1
1
1
1
1
1
1
1
1
1
1
1
1
1
1
1
1
1
1
1
1
1
1
1
1
1
1
1
1
1
1
1
1
1
1
1
1
1
1
1
1
1
1
1
1
1
1
1
1
1
1
1
1
1
1
1
1
1
1
1
1
1
1
1
1
1
1
1
1
1
1
1
1
1
1
1
0.0807289
0.157482
0.0824166
0.0891686
0.176157
0.188529
0.154019
0.0188704
8.29221e-08
2.3021e-07
2.36957e-07
2.86102e-07
3.14454e-07
2.20072e-05
7.49999e-05
3.64283e-05
4.4043e-10
0.0237657
0.112493
0.172302
0.161358
0.184138
0.184421
0.190253
0.157803
0.0938645
0.112876
0.0155896
0.000304167
0.000103735
0.000385845
0.00058214
0.000674172
0.000466717
0.000261561
1.79022e-07
0.00440542
0.0230311
0.167548
0.0328929
0.160718
0.185423
0.156882
0.00986478
0.0532778
0.149747
0.151319
0.0908793
0.0344866
0.0180141
0.00820806
9.02624e-05
7.59753e-05
0.000388934
0.000340346
1.83526e-05
1.83698e-05
0.0159679
2.27334e-06
0.00574904
0.048046
0.0182851
3.4306e-05
0.000742847
0.085031
0.169479
0.169356
0.141822
0.0137997
2.06934e-05
2.40438e-05
5.62166e-05
0.000405468
0.00040796
1.83773e-05
1.83555e-05
9.4603e-08
1.34592e-09
-3.65084e-10
6.36174e-14
5.51996e-13
9.64607e-07
1.29315e-10
0.00680464
0.0976252
0.138353
0.0311591
0.000112702
3.32594e-05
4.86902e-05
8.3607e-05
0.000201455
0.000417641
8.00316e-05
1.83689e-05
9.2328e-08
8.95168e-08
4.00061e-08
-3.62292e-10
3.12697e-07
5.88525e-07
3.76912e-09
0.000635974
0.00110045
-2.99281e-10
2.54404e-18
0.000166206
2.40824e-05
5.65298e-05
5.18217e-05
3.89404e-07
3.97985e-06
0.00242021
0.023648
0.326678
0.055371
-5.30419e-09
5.08401e-10
6.97567e-20
5.78827e-09
3.12447e-09
-4.23699e-13
0
2.99281e-10
2.32071e-08
2.43279e-06
1.38367e-05
1.22892e-05
8.97559e-06
3.55969e-07
3.45136e-07
0.00689616
0.0297278
0.967391
0.803372
0.429183
0.0884176
9.25186e-19
9.11463e-19
-4.25569e-28
-7.69257e-22
1.97091e-24
2.14514e-07
1.03246e-06
2.11737e-06
1.31743e-06
6.54031e-07
5.16893e-07
4.63468e-07
4.34972e-07
0.0104243
0.0297577
0.999999
1
0.994624
0.907423
0.683957
0.316466
0.0487265
0.0001525
-2.42477e-19
3.88861e-07
4.14015e-07
6.02912e-07
6.73604e-07
7.37256e-07
3.00201e-07
-6.24499e-09
3.23932e-06
0.0058384
0.0210164
1
1
0.999999
0.999999
0.999999
0.990411
0.913962
0.613261
0.171166
0.0339987
0.0053433
7.6045e-07
5.24439e-07
1.91544e-08
1.41041e-09
5.26371e-06
9.98539e-05
8.57318e-05
-5.05897e-05
1
1
1
1
0.999999
0.999999
1
1
0.999999
0.846299
0.426064
0.169065
0.0726371
0.00852576
1.62688e-06
1.13965e-17
7.48933e-13
0.058692
0.193776
1
1
1
1
1
1
1
1
0.999999
1
0.999999
0.999999
0.796241
0.553917
0.439933
0.411642
0.51998
0.812358
0.962922
1
1
1
1
1
1
1
1
1
1
0.999999
1
0.999999
0.999985
0.999811
0.998941
0.997885
0.999965
0.999999
1
1
1
1
1
1
0.999989
0.999703
0.999133
0.999589
0.999997
1
0.999953
0.99961
0.999797
0.999935
0.999962
0.999993
0.999997
1
1
1
1
1
1
1
0.99906
0.998992
0.998991
0.999819
1
0.999423
0.99795
0.99818
0.999018
0.999742
0.999989
0.999996
1
1
1
1
1
1
0.999996
0.999719
0.99922
0.999426
0.999952
1
0.999382
0.997983
0.998122
0.999091
0.999852
0.999997
0.999998
1
1
1
1
1
1
0.999989
1
0.99998
0.999997
1
0.999999
0.99991
0.999927
1
1
1
0.999999
0.999999
1
1
1
1
1
1
1
1
1
1
0.999999
0.999989
0.999999
1
1
1
1
1
1
1
1
1
1
1
1
1
1
1
1
1
0.999995
0.999998
1
1
1
1
1
0.999999
1
1
1
1
1
1
1
1
1
1
1
1
1
1
1
1
1
0.999999
0.999999
1
1
1
1
1
1
1
1
1
1
1
1
1
1
1
1
1
1
0.999999
1
1
1
1
1
1
1
1
1
1
1
1
1
1
1
1
1
1
1
1
1
1
1
1
1
1
1
1
1
1
1
1
1
1
1
1
1
1
1
1
1
1
1
1
1
1
1
1
1
1
1
1
1
1
1
1
1
1
1
1
1
1
1
1
1
1
1
1
1
1
1
1
1
1
1
1
1
1
1
1
1
1
1
1
1
1
1
1
1
1
1
1
1
1
1
1
1
1
1
1
1
1
1
1
1
1
1
1
1
1
1
1
1
1
1
1
1
1
1
1
1
1
1
1
1
1
1
1
1
1
1
1
1
1
1
1
1
1
1
1
1
1
1
1
1
1
1
1
1
1
1
1
1
1
1
1
1
1
1
1
1
1
1
1
1
1
1
1
1
1
1
1
1
1
1
1
1
1
1
1
1
1
1
1
1
1
1
1
1
1
1
1
1
1
1
1
1
1
1
1
1
1
1
1
1
1
1
1
1
1
1
1
1
1
1
1
1
1
1
1
1
1
1
1
1
1
1
1
1
1
1
1
1
1
1
1
1
1
1
1
1
1
1
1
1
1
1
1
1
1
1
1
1
1
1
1
1
1
1
1
1
1
1
1
1
1
1
1
1
1
1
1
1
1
1
1
1
1
1
1
1
1
1
1
1
1
1
1
1
1
1
1
1
1
1
1
1
1
1
1
1
1
1
1
1
1
1
1
1
1
1
1
1
1
1
1
1
1
1
1
1
1
1
1
1
1
1
1
1
1
1
1
1
1
1
1
1
1
1
1
1
1
1
1
1
1
1
1
1
1
1
1
1
1
1
1
1
1
1
1
1
1
1
1
1
1
1
1
1
1
1
1
1
1
1
1
1
1
1
1
1
1
1
1
1
1
1
1
1
1
1
1
1
1
1
1
1
1
1
)
;

boundaryField
{
    leftWall
    {
        type            alphaContactAngle;
        contactAngleProperties 
        {
            mercury         
            {
                theta0          90;
            }
            water           
            {
                theta0          90;
            }
            oil             
            {
                theta0          90;
            }
        }
        value           nonuniform List<scalar> 
50
(
1.67098e-13
7.42295e-13
2.17051e-12
8.83312e-12
4.0644e-11
1.60628e-10
6.40353e-10
1.90794e-09
3.96315e-09
1.50918e-09
8.18311e-10
0.117211
0.207931
0.207375
0.139001
0.397668
0.932289
0.999999
0.999999
0.999999
0.999999
0.999999
1
1
1
1
1
1
1
1
1
1
1
1
1
1
1
1
1
1
1
1
1
1
1
1
1
1
1
1
)
;
    }
    rightWall
    {
        type            alphaContactAngle;
        contactAngleProperties 
        {
            mercury         
            {
                theta0          90;
            }
            water           
            {
                theta0          90;
            }
            oil             
            {
                theta0          90;
            }
        }
        value           nonuniform List<scalar> 
50
(
0.0149112
0.0193637
0.0873677
0.117703
0.0246099
0.00556647
0.0996209
0.111096
0.112493
0.0230311
1.83698e-05
1.83555e-05
1.83689e-05
0.023648
0.0297278
0.0297577
0.0210164
-5.05897e-05
0.193776
0.962922
0.999999
0.999997
0.999996
0.999998
0.999999
1
0.999999
0.999999
0.999999
1
1
1
1
1
1
1
1
1
1
1
1
1
1
1
1
1
1
1
1
1
)
;
    }
    lowerWall
    {
        type            alphaContactAngle;
        contactAngleProperties 
        {
            mercury         
            {
                theta0          90;
            }
            water           
            {
                theta0          90;
            }
            oil             
            {
                theta0          90;
            }
        }
        value           nonuniform List<scalar> 
62
(
1.67098e-13
2.64554e-13
3.3027e-13
2.54268e-13
1.99374e-13
1.40768e-13
8.51104e-14
4.57322e-14
2.33138e-14
1.28571e-14
7.48896e-15
4.09713e-15
2.03027e-15
1.3472e-15
1.45771e-15
2.67354e-15
6.16297e-15
7.17428e-15
1.30433e-14
2.976e-14
1.01898e-13
3.00517e-13
3.56657e-13
3.56657e-13
2.32873e-11
5.42533e-10
6.5375e-09
9.5158e-09
9.68737e-09
0.000526439
0.00271282
0.0102599
0.00980106
0.00773347
0.00939875
0.000328076
0.00114142
0.0152272
0.0191054
0.0157683
0.0288514
0.0636741
0.0645463
0.000328076
0.000328333
0.00887092
0.0291859
0.0477767
0.0739975
0.073874
0.0665782
0.0450998
0.049752
0.0790248
0.1181
0.0952574
0.0389174
0.0150839
0.0149112
0.0149112
0.0149112
0.0149112
)
;
    }
    atmosphere
    {
        type            inletOutlet;
        inletValue      uniform 1;
        value           nonuniform List<scalar> 
46
(
1
1
1
1
1
1
1
1
1
1
1
1
1
1
1
1
1
1
1
1
1
1
1
1
1
1
1
1
1
1
1
1
1
1
1
1
1
1
1
1
1
1
1
1
1
1
)
;
    }
    defaultFaces
    {
        type            empty;
    }
}


// ************************************************************************* //
