/*--------------------------------*- C++ -*----------------------------------*\
  =========                 |
  \\      /  F ield         | OpenFOAM: The Open Source CFD Toolbox
   \\    /   O peration     | Website:  https://openfoam.org
    \\  /    A nd           | Version:  13
     \\/     M anipulation  |
\*---------------------------------------------------------------------------*/
FoamFile
{
    format      ascii;
    class       volScalarField;
    location    "1.8";
    object      alphas;
}
// * * * * * * * * * * * * * * * * * * * * * * * * * * * * * * * * * * * * * //

dimensions      [];

internalField   nonuniform List<scalar> 
2268
(
2
2
2
2
2
2
2
2
2
2
2
2
2
2
2
2
2
2
2
1.99992
1.99952
1.99943
1.99943
2
2
2
2
2
2
2
2
2
2
2
2
2
2
2
2
2
2
2
2
1.99998
1.99986
1.99983
2
2
2
2
2
2
2
2
2
2
2
2
2
2
2
2
2
2
2
2
2
2
2
2
2
2
2
2
2
2
2
2
2
2
2
2
2
2
2
2
2
2
2
2
2
2
2
2
2
2
2
2
2
2
2
2
2
2
2
2
2
2
2
2
2
2
2
2
2
1.28177
1.24213
1.28237
1.39058
1.53509
1.69344
1.84048
1.95971
2
2
2
2
2
2
2
2
2
2
2
2
2
1.99143
1.95355
0.0352205
0.0275571
0.0354164
0.0636901
0.121267
0.222556
0.374696
0.570001
0.818475
1.07374
1.28437
1.45751
1.59562
1.65584
1.64238
1.60102
1.57287
1.53568
1.46797
1.36339
1.18897
0.873917
0.62971
1.17963e-08
8.09833e-09
5.89295e-09
4.92221e-09
2.59492e-09
1.08508e-08
2.22105e-08
2.34449e-08
1.4175e-08
0.00806487
0.0355489
0.0715225
0.0928277
0.101616
0.129725
0.176579
0.18054
0.145265
0.102817
0.0565217
0.00244622
0.0045107
0.00822983
1.85842
1.87043
1.85354
1.86962
1.92304
1.93811
1.72551
1.7107
1.67033
1.67588
1.7312
1.81394
1.79478
1.67071
1.65414
1.72537
1.71858
1.71832
1.71823
1.64383
1.65657
1.75209
1.69184
1.67113
1.72196
1.80008
1.85823
1.8765
1.80728
1.78422
1.96299
1.9593
1.8394
1.70269
1.72697
1.79011
1.7834
1.54975
0.888353
0.892878
1.11541
1.23252
1.05004
1.06544
1.33131
1.60364
2.01326
2.11434
1.94675
1.84083
2.15534
2.36143
2.25097
2.10242
2.0219
1.8351
1.5261
0.414538
0.362695
0.671999
0.961518
1.01738
0.491603
0.304103
0.357369
1.29541
2.43803
2.34601
2.22366
2.24656
2.23086
1.94961
1.68811
1.52725
1.31364
1.21572
0.508668
0.478874
0.329215
0.733761
0.947563
0.585816
0.0589874
0.018141
0.415114
1.84934
2.32531
2.35011
2.2911
2.01097
0.690388
0.417914
0.384482
0.403089
0.739194
0.396287
0.482878
0.387608
0.486328
0.897278
0.81786
0.336579
0.0199546
0.0320524
1.02477
1.98191
2.12609
2.12804
1.33961
0.203985
0.0738297
0.0846793
0.094412
0.49259
0.248453
0.357294
0.404054
0.249467
0.744177
0.971142
0.793307
0.142016
0.00188503
0.18457
0.732725
1.14782
1.15478
0.452497
0.0240481
0.0233755
0.062547
0.0776105
0.476454
0.256358
0.283124
0.299762
0.239525
0.632098
1.31378
1.17372
0.242099
0.00236925
0.00021066
0.014093
0.0509585
0.0758187
0.0213469
0.000718089
0.000289633
0.114699
0.181223
0.62262
2.18917e-08
1.63861e-08
1.16491e-08
1.04143e-08
1.14469e-08
1.40348e-08
1.73385e-08
1.43945e-08
9.54363e-09
7.04127e-09
4.83126e-09
3.49805e-09
2.99459e-09
3.62859e-09
1.5962e-08
2.27293e-07
2.84566e-06
2.86046e-05
0.000207696
0.00096599
0.00282594
0.00370637
0.00648014
1.21784e-08
1.14397e-08
1.08136e-08
1.10757e-08
1.25859e-08
1.65937e-08
2.18709e-08
2.47663e-08
2.42335e-08
2.47451e-08
2.7151e-08
2.93204e-08
3.01961e-08
3.5654e-08
4.49761e-08
4.51565e-08
2.40427e-07
4.43306e-07
8.5357e-07
0.00285177
0.0182768
0.0857486
0.14883
4.88062e-09
4.71085e-09
4.80859e-09
5.46916e-09
6.12736e-09
7.70324e-09
7.64429e-09
6.10093e-09
4.57532e-09
3.69781e-09
2.74793e-09
2.36519e-09
1.99357e-09
1.65444e-09
4.64987e-07
0.00359201
0.0184487
0.0619927
0.170752
0.334267
0.522623
0.699573
0.935382
0.351632
0.0927341
0.0463411
0.0133952
0.0098777
4.6453e-06
4.86121e-05
0.0255949
0.0330638
0.0379149
0.0508439
0.0881695
0.156788
0.242485
0.319754
0.396332
0.507469
0.74413
0.961452
1.12813
1.2778
1.24451
1.10059
0.854955
0.827268
0.727824
0.689404
0.626895
0.677993
0.772231
0.786493
0.819136
0.868368
0.933143
1.01315
1.10484
1.19715
1.25945
1.24063
1.21173
1.18389
1.19491
1.17482
1.0519
1
1
1.3256
1.04015
1.01784
1.01473
1.03413
1.18326
1.23755
1.18295
1.1178
1.12255
1.15181
1.155
1.13394
1.05899
1.01928
1.01868
1.03125
1.06191
1.10296
1.14234
1.18375
1.21099
1.21391
1.25425
1.07529
1.04568
1.03617
1.03617
1.03667
1.03981
1.04154
1.04789
1.07268
1.11875
1.18593
1.28305
1.42076
1.57129
1.78988
2.02516
2.22046
2.36261
2.46265
2.53625
2.58262
2.57212
1.79395
1.8945
1.93706
1.90958
1.94864
2.02443
2.10396
2.21114
2.33994
2.46484
2.58011
2.69
2.79474
2.8901
2.97819
3
3
3
3
3
3
3
3
2.86458
2.81811
2.82752
2.91664
2.98307
2.99559
3
3
3
3
3
3
3
3
3
3
3
3
3
3
3
3
3
3
3
2.98919
2.9882
2.99885
3
3
3
3
3
2.99994
2.99988
2.99996
3
3
3
3
3
3
3
3
3
3
3
2.99999
2.99996
2.99757
2.99984
3
3
3
3
2.99993
2.99965
2.99965
2.9998
2.99999
3
2.99999
2.99999
3
3
3
3
3
3
3
2.99996
3
2.99976
2.99999
3
3
3
2.99999
2.99969
2.99965
2.99965
2.99979
2.99999
2.99999
2.99999
2.99999
3
3
3
3
3
3
3
3
3
3
3
3
3
3
2.99999
2.99977
2.99966
2.99967
2.99996
2.99999
2.99999
2.99999
3
3
3
3
3
3
3
3
3
3
3
3
3
3
3
3
3
2.99992
2.99995
3
2.99999
2.99999
3
3
3
3
3
3
3
3
3
3
3
3
3
3
3
3
3
3
3
3
3
3
3
3
3
3
3
3
3
3
3
3
3
3
3
3
3
3
3
3
3
3
3
3
3
3
3
3
3
3
3
3
3
3
3
3
3
3
3
3
3
3
3
3
3
3
3
3
3
3
3
3
3
3
3
3
3
3
3
3
3
3
3
3
3
3
3
3
3
3
3
3
3
3
3
3
3
3
3
3
3
3
3
3
3
3
3
3
3
3
3
3
3
3
3
3
3
3
3
3
3
3
3
3
3
3
3
3
3
3
3
3
3
3
3
3
3
3
3
3
3
3
3
3
3
3
3
3
3
3
3
3
3
3
3
3
3
3
3
3
3
3
3
3
3
3
3
3
3
3
3
3
3
3
3
3
3
3
3
3
3
3
3
3
3
3
3
3
3
3
3
3
3
3
3
3
3
3
3
3
3
3
3
3
3
3
3
3
3
3
3
3
3
3
3
3
3
3
3
3
3
3
3
3
3
3
3
3
3
3
3
3
3
3
3
3
3
3
3
3
3
3
3
3
3
3
3
3
3
3
3
3
3
3
3
3
3
3
3
3
3
3
3
3
3
3
3
3
3
3
3
3
3
3
3
3
3
3
3
3
3
3
3
3
3
3
3
3
3
3
3
3
3
3
3
3
3
3
3
3
3
3
3
3
3
3
3
3
3
3
3
3
3
3
3
3
3
3
3
3
3
3
3
3
3
3
3
3
3
3
3
3
3
3
3
3
3
3
3
3
3
3
3
3
3
3
3
3
3
3
3
3
3
3
3
3
3
3
3
3
3
3
3
3
3
3
3
3
3
3
3
3
3
3
3
3
3
3
3
3
3
3
3
3
3
3
3
3
3
3
3
3
3
3
3
3
3
3
3
3
3
3
3
3
3
3
3
3
3
3
3
3
3
3
3
3
3
3
3
3
3
3
3
3
3
3
3
3
3
3
3
3
3
3
3
3
3
3
3
3
3
3
3
3
3
3
3
3
3
3
3
3
3
3
3
3
3
3
3
3
3
3
3
3
3
3
3
3
3
3
3
3
3
3
3
3
3
3
3
3
3
3
3
3
3
3
3
3
3
3
3
3
3
3
3
3
3
3
3
3
3
3
3
3
3
3
3
3
3
3
3
3
3
3
3
3
3
3
3
3
3
3
3
3
3
3
3
3
3
3
3
3
3
3
3
3
3
3
3
3
3
3
3
3
3
3
3
3
3
3
3
3
3
3
3
3
3
3
3
3
3
3
3
3
3
3
3
3
3
3
3
3
3
3
3
3
3
3
3
3
3
3
3
3
3
3
3
3
3
3
3
3
3
3
3
3
3
3
3
3
3
3
3
3
3
3
3
3
3
3
3
3
3
3
3
3
3
3
3
3
3
3
3
3
3
3
3
3
3
3
3
3
3
3
3
3
3
3
3
3
3
3
3
3
3
3
3
3
3
3
3
3
0.117656
0.201305
0.21188
0.215574
0.186513
0.230264
0.396382
0.535803
0.98048
0.978624
1.00046
1.2357
1.01004
1.00227
1.00163
1.09814
1
1
1
1
1.2087
1.17495
1.11512
1.03848
2.52406
2.45097
2.32043
2.12279
3
3
3
3
3
3
3
3
3
3
3
3
3
3
3
3
3
3
3
3
3
3
3
3
3
3
3
3
3
3
3
3
3
3
3
3
3
3
3
3
3
3
3
3
3
3
3
3
3
3
3
3
3
3
3
3
3
3
3
3
3
3
3
3
3
3
3
3
3
3
3
3
3
3
3
3
3
3
3
3
3
3
3
3
3
3
3
3
3
3
3
3
3
3
3
3
3
3
3
3
3
3
3
3
3
3
3
3
3
3
3
3
3
3
3
3
3
3
3
3
3
3
3
3
3
3
3
3
3
3
3
3
3
3
3
3
3
3
3
3
0.364428
0.760249
0.296761
0.321255
0.644636
1.36185
1.31009
0.31109
0.00105142
0.000186596
0.000282064
0.000283313
0.000170445
0.0001816
0.000270685
0.00023787
0.156499
0.663383
1.11352
1.13938
1.31459
0.818816
0.560942
0.761256
1.30454
1.22082
0.674205
0.0507874
0.000935622
0.000386023
0.00123989
0.00179208
0.00212049
0.00140091
0.117518
0.710971
1.00972
1.04592
1.3351
1.06579
1.25022
1.04729
1.17443
1.01975
1.11079
1.07397
0.490476
0.272661
0.10358
0.0770123
0.134448
0.434944
0.745277
0.91136
1.00095
1.00021
0.989465
1.03194
1.00001
1.01164
1.09679
1.037
1.00007
1.00151
1.15904
1.04061
0.792063
0.782098
0.782884
0.96252
0.998829
1.00008
1.00092
1.00108
0.999778
0.992413
1
1
1
0.999998
0.999983
0.99997
0.999946
1.01329
1.19543
1.27738
1.06242
1.00023
1.00007
1.0001
1.00016
1.00041
1.00088
0.999842
0.996253
1
1
1
1
0.99999
0.999977
0.999975
1.00126
1.0022
1.00001
1.00004
1.00033
1.00005
1.00011
1.0001
1
1.00001
1.00477
1.04665
1.65336
1.11074
1
0.999999
0.999998
0.999996
0.999992
0.99999
0.999996
0.999999
1
1.00001
1.00003
1.00002
1.00002
1
1
1.01388
1.05988
2.93478
2.60674
1.85837
1.17684
0.999999
0.999998
0.999996
0.999995
0.999998
1
1
1.00001
1
1
1
1
1
1.02089
1.05979
3
3
2.98925
2.81485
2.36791
1.63293
1.09745
1.0003
0.999999
1
1
1
1
1
1
1
1.00001
1.01167
1.04187
3
3
3
3
3
2.98082
2.82792
2.22652
1.34233
1.068
1.01069
1
1
0.999999
0.999998
1
1.00021
0.999647
0.99449
3
3
3
3
3
3
3
3
3
2.6926
1.85213
1.33813
1.14527
1.01705
1
0.999866
0.998009
1.10593
1.37366
3
3
3
3
3
3
3
3
3
3
3
3
2.59248
2.10783
1.87986
1.82307
2.03408
2.61091
2.91446
3
3
3
3
3
3
3
3
3
3
3
3
3
2.99997
2.99955
2.99735
2.99443
2.9999
3
3
3
3
3
3
3
2.99998
2.99941
2.99827
2.99918
2.99999
3
2.99991
2.99922
2.99957
2.99987
2.99992
2.99999
2.99999
3
3
3
3
3
3
3
2.99812
2.99798
2.99798
2.99964
3
2.99884
2.9959
2.99636
2.99804
2.99948
2.99998
2.99999
3
3
3
3
3
3
2.99999
2.99944
2.99844
2.99885
2.9999
3
2.99876
2.99597
2.99624
2.99818
2.9997
3
3
3
3
3
3
3
3
2.99998
3
2.99996
2.99999
3
3
2.99982
2.99985
3
3
3
3
3
3
3
3
3
3
3
3
3
3
3
3
2.99998
3
3
3
3
3
3
3
3
3
3
3
3
3
3
3
3
3
3
2.99999
3
3
3
3
3
3
3
3
3
3
3
3
3
3
3
3
3
3
3
3
3
3
3
3
3
3
3
3
3
3
3
3
3
3
3
3
3
3
3
3
3
3
3
3
3
3
3
3
3
3
3
3
3
3
3
3
3
3
3
3
3
3
3
3
3
3
3
3
3
3
3
3
3
3
3
3
3
3
3
3
3
3
3
3
3
3
3
3
3
3
3
3
3
3
3
3
3
3
3
3
3
3
3
3
3
3
3
3
3
3
3
3
3
3
3
3
3
3
3
3
3
3
3
3
3
3
3
3
3
3
3
3
3
3
3
3
3
3
3
3
3
3
3
3
3
3
3
3
3
3
3
3
3
3
3
3
3
3
3
3
3
3
3
3
3
3
3
3
3
3
3
3
3
3
3
3
3
3
3
3
3
3
3
3
3
3
3
3
3
3
3
3
3
3
3
3
3
3
3
3
3
3
3
3
3
3
3
3
3
3
3
3
3
3
3
3
3
3
3
3
3
3
3
3
3
3
3
3
3
3
3
3
3
3
3
3
3
3
3
3
3
3
3
3
3
3
3
3
3
3
3
3
3
3
3
3
3
3
3
3
3
3
3
3
3
3
3
3
3
3
3
3
3
3
3
3
3
3
3
3
3
3
3
3
3
3
3
3
3
3
3
3
3
3
3
3
3
3
3
3
3
3
3
3
3
3
3
3
3
3
3
3
3
3
3
3
3
3
3
3
3
3
3
3
3
3
3
3
3
3
3
3
3
3
3
3
3
3
3
3
3
3
3
3
3
3
3
3
3
3
3
3
3
3
3
3
3
3
3
3
3
3
3
3
3
3
3
3
3
3
3
3
3
3
3
3
3
3
3
3
3
3
3
3
3
3
3
3
3
3
3
3
3
3
3
3
3
3
3
3
3
3
3
3
3
3
3
3
3
3
3
3
3
3
3
3
3
3
3
3
3
3
3
3
3
3
3
3
3
3
3
3
3
3
3
3
3
3
3
3
3
3
3
3
)
;

boundaryField
{
    leftWall
    {
        type            calculated;
        value           nonuniform List<scalar> 
50
(
2
2
2
2
2
1.28177
0.0352205
1.17963e-08
2.18917e-08
1.21784e-08
4.88062e-09
0.351632
0.854955
1.3256
1.25425
1.79395
2.86458
3
3
3
3
3
3
3
3
3
3
3
3
3
3
3
3
3
3
3
3
3
3
3
3
3
3
3
3
3
3
3
3
3
)
;
    }
    rightWall
    {
        type            calculated;
        value           nonuniform List<scalar> 
50
(
1.71823
1.54975
1.5261
1.21572
0.739194
0.49259
0.476454
0.62262
1.11352
1.04592
0.989465
0.992413
0.996253
1.04665
1.05988
1.05979
1.04187
0.99449
1.37366
2.91446
3
2.99999
2.99999
3
3
3
3
3
3
3
3
3
3
3
3
3
3
3
3
3
3
3
3
3
3
3
3
3
3
3
)
;
    }
    lowerWall
    {
        type            calculated;
        value           nonuniform List<scalar> 
62
(
2
2
2
2
2
2
2
2
2
2
2
2
2
2
2
2
2
2
2
1.99992
1.99952
1.99943
1.99943
1.99943
1.99983
2
2
2
1.95355
0.62971
0.00822983
0.117656
0.201305
0.21188
0.215574
1.85842
1.64383
0.888353
0.414538
0.508668
0.396287
0.248453
0.256358
1.85842
1.87043
1.85354
1.86962
1.92304
1.93811
1.72551
1.7107
1.67033
1.67588
1.7312
1.81394
1.79478
1.67071
1.65414
1.72537
1.71858
1.71832
1.71823
)
;
    }
    atmosphere
    {
        type            calculated;
        value           nonuniform List<scalar> 
46
(
3
3
3
3
3
3
3
3
3
3
3
3
3
3
3
3
3
3
3
3
3
3
3
3
3
3
3
3
3
3
3
3
3
3
3
3
3
3
3
3
3
3
3
3
3
3
)
;
    }
    defaultFaces
    {
        type            empty;
    }
}


// ************************************************************************* //
