/*--------------------------------*- C++ -*----------------------------------*\
  =========                 |
  \\      /  F ield         | OpenFOAM: The Open Source CFD Toolbox
   \\    /   O peration     | Website:  https://openfoam.org
    \\  /    A nd           | Version:  13
     \\/     M anipulation  |
\*---------------------------------------------------------------------------*/
FoamFile
{
    format      ascii;
    class       volScalarField;
    location    "1.8";
    object      alpha.mercury;
}
// * * * * * * * * * * * * * * * * * * * * * * * * * * * * * * * * * * * * * //

dimensions      [];

internalField   nonuniform List<scalar> 
2268
(
1
1
1
1
1
1
1
1
1
1
1
1
1
1
1
1
1
1
1
0.999918
0.999523
0.999433
0.999433
1
1
1
1
1
1
1
1
1
1
1
1
1
1
1
1
1
1
1
1
0.999984
0.999865
0.999828
1
1
1
1
1
1
1
1
1
1
1
1
1
1
1
1
1
1
1
1
1
1
1
1
1
1
1
1
1
1
1
1
1
1
1
1
1
1
1
1
1
1
1
1
1
1
1
1
1
1
1
1
1
1
1
1
1
1
1
1
1
1
1
1
1
1
1
1
1
0.640883
0.621063
0.641185
0.69529
0.767543
0.846721
0.92024
0.979857
1
1
1
1
1
1
1
1
1
1
0.999999
0.999999
1
0.995717
0.976777
0.0176103
0.0137786
0.0177082
0.0318451
0.0606333
0.111278
0.187348
0.285
0.409238
0.536868
0.642184
0.728753
0.797809
0.827918
0.821191
0.80051
0.786434
0.767841
0.733981
0.68167
0.594416
0.43658
0.314036
1.01695e-09
1.0741e-09
1.13575e-09
1.18578e-09
1.43128e-10
4.10539e-09
9.81295e-09
1.06058e-08
6.18612e-09
0.00403244
0.0177744
0.0357612
0.0464138
0.050808
0.0648627
0.0882897
0.0902699
0.0726283
0.0513395
0.0278955
-3.70074e-18
-2.05433e-34
-3.26489e-09
0.870851
0.8766
0.876563
0.8766
0.875759
0.824218
0.587224
0.578981
0.581588
0.577317
0.574075
0.663018
0.726567
0.716292
0.714983
0.71443
0.70764
0.70738
0.70729
0.649822
0.660834
0.760649
0.806505
0.820943
0.832471
0.833539
0.833296
0.826136
0.7663
0.746362
0.747186
0.740944
0.720696
0.675419
0.645566
0.643214
0.611717
0.5299
0.0986948
0.0823818
0.165759
0.301593
0.392792
0.503885
0.665622
0.783814
0.806845
0.808953
0.776884
0.691264
0.610746
0.452018
0.338888
0.322017
0.30628
0.312889
0.374569
0.138182
0.0991254
0.0515489
0.0839897
0.169228
0.177175
0.15201
0.178644
0.327375
0.418814
0.352756
0.264903
0.232488
0.239318
0.254322
0.178511
0.120511
0.13294
0.174488
0.226733
0.215038
0.113776
0.0737111
0.108718
0.0980999
0.0219895
0.00837918
0.00206862
0.0829918
0.221012
0.22258
0.17799
0.163782
0.0894194
0.0696829
0.093367
0.0882405
0.0752512
0.143771
0.207557
0.174551
0.107469
0.0984314
0.0941686
0.0686276
0.00959535
0.00227685
4.20232e-05
0.0331471
0.0816269
0.0795808
0.0112722
5.58175e-06
0.000692952
0.0103717
0.0102309
0.00526398
0.00458564
0.0726408
0.172069
0.107261
0.061027
0.0944336
0.0951763
0.0450302
0.000913147
3.49833e-05
1.5135e-10
2.086e-12
2.34616e-12
2.19438e-11
4.4704e-06
5.48554e-06
0.00217756
0.00140722
0.00126818
0.00721956
4.70741e-13
0.0974295
0.0984048
0.0310866
0.0659918
0.0951854
0.0623249
0.00118457
6.64154e-05
8.45009e-05
5.79711e-05
3.72019e-06
7.54614e-06
4.12448e-05
2.63523e-05
2.90777e-05
0.000225478
0.00855527
1.27437e-09
1.35718e-09
1.57189e-09
1.57914e-09
2.00886e-09
3.04852e-09
3.62595e-09
2.40365e-09
8.75593e-10
4.46068e-10
2.72846e-10
2.72268e-10
-2.25703e-12
1.52612e-14
1.68125e-23
2.81916e-21
1.70176e-23
2.81919e-21
4.51415e-22
4.32384e-20
-2.7427e-12
2.79556e-13
-3.22951e-08
5.78128e-10
9.98425e-10
1.4502e-09
1.77673e-09
2.12446e-09
2.29583e-09
2.05883e-09
1.7635e-09
1.48926e-09
1.18254e-09
9.37874e-10
4.68794e-10
3.82281e-10
3.66234e-09
2.21472e-09
4.33406e-09
2.59239e-08
5.94296e-09
5.17238e-11
3.75696e-10
3.71776e-10
2.21955e-11
3.75191e-09
2.85457e-10
3.79231e-10
6.66202e-10
9.4361e-10
1.26485e-09
1.56014e-09
1.57522e-09
1.45187e-09
1.18644e-09
9.05289e-10
6.16625e-10
4.07355e-10
2.8492e-10
1.87656e-10
1.95711e-10
2.6256e-10
5.88186e-10
6.83906e-10
1.13733e-09
1.81095e-09
1.70924e-09
4.7544e-11
4.4842e-09
2.69647e-10
3.21485e-10
4.02739e-10
4.64169e-10
5.25473e-10
6.38188e-10
6.7958e-10
6.84683e-10
6.56445e-10
6.46213e-10
6.17878e-10
6.03147e-10
6.61401e-10
8.14328e-10
1.10096e-09
1.50239e-09
1.81657e-09
2.1757e-09
2.29351e-09
2.27011e-09
1.99033e-09
4.72971e-10
2.42039e-10
3.70232e-10
4.56456e-10
4.90292e-10
5.16851e-10
5.70758e-10
6.5097e-10
7.55229e-10
8.93181e-10
1.07596e-09
1.30732e-09
1.51166e-09
1.67323e-09
1.80727e-09
1.93401e-09
2.04461e-09
2.21905e-09
2.43106e-09
2.40862e-09
2.25376e-09
1.91003e-09
1.62023e-09
1.15377e-09
1.39574e-10
4.91459e-10
5.70497e-10
5.89623e-10
6.34699e-10
7.13688e-10
8.92608e-10
1.06722e-09
1.22056e-09
1.37715e-09
1.52706e-09
1.53428e-09
1.47321e-09
1.30493e-09
1.06252e-09
8.51697e-10
6.99843e-10
5.86618e-10
4.8749e-10
3.74451e-10
2.28229e-10
2.05635e-10
3.3717e-10
3.70421e-10
5.04742e-10
5.11077e-10
4.25625e-10
4.16841e-10
4.37103e-10
5.02011e-10
5.16486e-10
4.8489e-10
4.18902e-10
3.40088e-10
2.62425e-10
1.90295e-10
1.38668e-10
1.00396e-10
7.02204e-11
4.69137e-11
3.11206e-11
2.24943e-11
1.83391e-11
1.91167e-11
2.14368e-11
4.32841e-11
1.41839e-10
5.05554e-10
5.1815e-10
4.39647e-10
2.7107e-10
1.79535e-10
1.35281e-10
1.00316e-10
7.23732e-11
5.43079e-11
4.21753e-11
3.49015e-11
2.82902e-11
2.18682e-11
1.71679e-11
1.42068e-11
1.20871e-11
1.07461e-11
9.37869e-12
8.26999e-12
7.77962e-12
7.41406e-12
6.90144e-12
1.53799e-11
4.10645e-10
4.52267e-10
4.6196e-10
3.70741e-10
2.09151e-10
1.422e-10
1.14808e-10
9.30599e-11
8.33566e-11
6.51989e-11
4.95164e-11
3.43787e-11
2.07343e-11
1.45786e-11
1.13013e-11
9.08706e-12
7.45218e-12
5.77462e-12
4.43569e-12
3.25031e-12
2.88401e-12
3.23268e-12
4.26329e-12
2.14987e-10
2.99489e-10
4.40637e-10
4.09063e-10
2.90724e-10
2.33991e-10
2.24411e-10
1.99292e-10
1.59035e-10
1.35481e-10
9.92483e-11
6.66126e-11
3.81312e-11
1.95884e-11
1.39937e-11
1.08752e-11
7.33835e-12
5.0984e-12
3.32758e-12
2.10247e-12
1.51745e-12
1.24279e-12
1.62841e-12
1.16787e-10
2.61364e-10
4.42045e-10
4.16564e-10
3.26628e-10
3.17004e-10
3.22121e-10
2.7785e-10
2.37462e-10
2.01672e-10
1.65719e-10
1.17134e-10
7.24956e-11
3.54127e-11
2.13915e-11
1.39248e-11
8.00352e-12
4.82043e-12
3.14299e-12
1.99528e-12
1.22258e-12
7.56658e-13
5.03998e-13
7.33702e-11
2.50011e-10
4.41489e-10
4.42469e-10
4.13313e-10
4.0181e-10
3.44948e-10
2.86081e-10
2.52362e-10
2.17114e-10
1.78533e-10
1.24401e-10
7.70775e-11
3.88172e-11
2.23397e-11
1.46002e-11
7.97025e-12
4.65193e-12
2.97689e-12
1.68802e-12
1.01067e-12
6.07883e-13
3.82883e-13
5.18783e-11
2.53401e-10
4.17769e-10
4.42255e-10
4.26405e-10
3.85686e-10
3.0079e-10
2.60396e-10
2.42329e-10
2.07099e-10
1.7045e-10
1.20449e-10
7.05929e-11
3.64914e-11
2.23731e-11
1.32129e-11
6.84996e-12
4.1325e-12
2.54317e-12
1.36232e-12
7.75302e-13
4.4753e-13
2.78229e-13
5.00576e-11
2.18441e-10
3.61809e-10
3.95727e-10
3.58135e-10
2.95723e-10
2.42603e-10
2.2571e-10
2.01857e-10
1.67448e-10
1.35774e-10
9.84492e-11
5.97659e-11
3.18683e-11
1.88109e-11
1.03736e-11
5.91086e-12
3.18819e-12
2.01001e-12
1.04827e-12
6.06239e-13
3.43104e-13
2.05531e-13
4.73295e-11
1.69109e-10
2.86442e-10
3.03745e-10
2.76801e-10
2.2732e-10
1.97974e-10
1.67725e-10
1.43037e-10
1.26328e-10
1.00636e-10
7.64571e-11
4.79508e-11
2.50132e-11
1.49437e-11
8.03228e-12
4.83153e-12
2.23828e-12
1.39239e-12
8.57176e-13
5.16972e-13
2.88234e-13
1.68836e-13
3.11096e-11
1.19735e-10
1.97943e-10
2.12321e-10
1.93475e-10
1.6637e-10
1.37617e-10
1.13339e-10
9.51953e-11
8.28725e-11
6.47791e-11
4.96612e-11
3.09506e-11
1.86284e-11
1.11792e-11
5.86964e-12
2.99988e-12
1.56753e-12
1.13735e-12
7.01593e-13
4.388e-13
2.50254e-13
1.57191e-13
2.23203e-11
7.4595e-11
1.17777e-10
1.32688e-10
1.23336e-10
1.08069e-10
8.8623e-11
7.16031e-11
5.59508e-11
4.06174e-11
3.12289e-11
2.43388e-11
1.76929e-11
1.17664e-11
6.19634e-12
3.64039e-12
2.17105e-12
1.2771e-12
8.88612e-13
5.54166e-13
3.66196e-13
2.20308e-13
1.47401e-13
1.5254e-11
4.44232e-11
6.40116e-11
7.08254e-11
7.31779e-11
6.51323e-11
5.43205e-11
4.17285e-11
2.77699e-11
1.84868e-11
1.36821e-11
1.14207e-11
9.32743e-12
6.49938e-12
3.52371e-12
2.18371e-12
1.58852e-12
1.13989e-12
7.27324e-13
4.36625e-13
2.96082e-13
1.96143e-13
1.34585e-13
1.05028e-11
2.80382e-11
3.8594e-11
4.35208e-11
4.56194e-11
4.18552e-11
3.3905e-11
2.54063e-11
1.81591e-11
1.15012e-11
7.84017e-12
6.27269e-12
4.87179e-12
3.29397e-12
2.25833e-12
1.65315e-12
1.19639e-12
8.97703e-13
5.8424e-13
3.50886e-13
2.53024e-13
1.68003e-13
1.21472e-13
6.3983e-12
1.67984e-11
2.36435e-11
2.66099e-11
2.75058e-11
2.52879e-11
2.28736e-11
1.78446e-11
1.22899e-11
7.87752e-12
5.24472e-12
3.45597e-12
2.47557e-12
1.92519e-12
1.53608e-12
1.10609e-12
9.00637e-13
6.58589e-13
4.48378e-13
2.77013e-13
2.04111e-13
1.46071e-13
1.05304e-13
3.79866e-12
1.00225e-11
1.42114e-11
1.57711e-11
1.66718e-11
1.64113e-11
1.47906e-11
1.20082e-11
8.5665e-12
5.48187e-12
3.34167e-12
2.06252e-12
1.48412e-12
1.13754e-12
9.08771e-13
6.91782e-13
5.7675e-13
4.46626e-13
3.22405e-13
2.07436e-13
1.57753e-13
1.17643e-13
8.82397e-14
2.11797e-12
5.43063e-12
7.53479e-12
8.61567e-12
9.12549e-12
9.27266e-12
8.84575e-12
7.72127e-12
6.02034e-12
4.03937e-12
2.36841e-12
1.32442e-12
8.5335e-13
6.29615e-13
5.02217e-13
4.05614e-13
3.34121e-13
2.78573e-13
2.14033e-13
1.3972e-13
1.08812e-13
8.70427e-14
6.7842e-14
1.04854e-12
2.68889e-12
3.71761e-12
4.1265e-12
4.46727e-12
4.63554e-12
4.66705e-12
4.45721e-12
3.82435e-12
2.77856e-12
1.70734e-12
8.8036e-13
5.15137e-13
3.42282e-13
2.6271e-13
2.13643e-13
1.80569e-13
1.51673e-13
1.21588e-13
8.33993e-14
6.95958e-14
5.56324e-14
4.49472e-14
4.75173e-13
1.20064e-12
1.64018e-12
1.77851e-12
1.8426e-12
2.06016e-12
2.06159e-12
2.14919e-12
2.10822e-12
1.68176e-12
1.10514e-12
6.26891e-13
2.91201e-13
1.85745e-13
1.28603e-13
9.98719e-14
8.44243e-14
7.25575e-14
6.04294e-14
4.78461e-14
3.93708e-14
3.19739e-14
2.60892e-14
2.11615e-13
4.89085e-13
6.38115e-13
6.64866e-13
6.59286e-13
7.66482e-13
8.24579e-13
8.39213e-13
1.00541e-12
9.3715e-13
6.49197e-13
4.07158e-13
1.96975e-13
1.03498e-13
6.22238e-14
4.48457e-14
3.59209e-14
3.09083e-14
2.70542e-14
2.29939e-14
1.92077e-14
1.5676e-14
1.25906e-14
8.26986e-14
1.79872e-13
2.21645e-13
2.17474e-13
2.07474e-13
2.46256e-13
2.72908e-13
2.87609e-13
3.39575e-13
4.24232e-13
3.2017e-13
2.14645e-13
1.29384e-13
5.75802e-14
3.05421e-14
1.96684e-14
1.46959e-14
1.24161e-14
1.09359e-14
9.36629e-15
7.96353e-15
6.82911e-15
5.48608e-15
2.70086e-14
5.79709e-14
6.79917e-14
6.33793e-14
5.92963e-14
7.2169e-14
8.2459e-14
9.1666e-14
1.05659e-13
1.40795e-13
1.31929e-13
9.66813e-14
6.02035e-14
3.24603e-14
1.43568e-14
8.52047e-15
5.84311e-15
4.72665e-15
4.11171e-15
3.55335e-15
3.08685e-15
2.61369e-15
2.17756e-15
7.73304e-15
1.58664e-14
1.79797e-14
1.62022e-14
1.50581e-14
1.88557e-14
2.26605e-14
2.55979e-14
2.94265e-14
4.01759e-14
4.18452e-14
3.44566e-14
2.42194e-14
1.44034e-14
6.45334e-15
3.21071e-15
2.10603e-15
1.67351e-15
1.39823e-15
1.21226e-15
1.0102e-15
8.59461e-16
7.32794e-16
1.6976e-15
3.60173e-15
3.99202e-15
3.51949e-15
3.27727e-15
4.19527e-15
5.44235e-15
6.2738e-15
7.32962e-15
1.01195e-14
1.12028e-14
9.70672e-15
7.27625e-15
4.94942e-15
2.57979e-15
1.13725e-15
6.77823e-16
5.06768e-16
4.26933e-16
3.73243e-16
3.07106e-16
2.52959e-16
2.16986e-16
3.41357e-16
6.7647e-16
7.22478e-16
6.27592e-16
5.88344e-16
7.66968e-16
1.0801e-15
1.30925e-15
1.57146e-15
2.14953e-15
2.53543e-15
2.25762e-15
1.77959e-15
1.23781e-15
7.46244e-16
3.22649e-16
1.89289e-16
1.36056e-16
1.14736e-16
1.01831e-16
8.32638e-17
6.41432e-17
5.38344e-17
4.02866e-17
8.23698e-17
1.02704e-16
8.84163e-17
8.353e-17
1.1174e-16
1.72785e-16
2.28603e-16
2.91812e-16
4.08941e-16
4.76319e-16
4.24631e-16
3.45374e-16
2.54722e-16
1.5319e-16
7.20358e-17
4.57949e-17
3.2141e-17
2.62494e-17
2.34515e-17
2.05229e-17
1.45422e-17
1.09194e-17
4.09627e-18
9.05704e-18
1.10957e-17
9.45709e-18
9.07401e-18
1.2736e-17
2.20975e-17
3.29862e-17
4.57658e-17
6.57639e-17
7.39172e-17
6.51404e-17
5.25028e-17
4.1061e-17
2.282e-17
1.21824e-17
8.14275e-18
6.17974e-18
4.98247e-18
4.56366e-18
3.94224e-18
2.50479e-18
1.95462e-18
1.84479e-19
5.91844e-19
6.62771e-19
5.7229e-19
5.84132e-19
9.32634e-19
1.87152e-18
3.3384e-18
5.34499e-18
7.45517e-18
8.095e-18
7.3008e-18
6.70473e-18
4.77512e-18
2.835e-18
1.66053e-18
1.2982e-18
1.01977e-18
7.99324e-19
7.3117e-19
6.10381e-19
4.32874e-19
2.8056e-19
8.39022e-21
3.79405e-20
3.64494e-20
3.10885e-20
3.61237e-20
6.75808e-20
1.5182e-19
3.08041e-19
5.47702e-19
8.0311e-19
8.69235e-19
8.19405e-19
7.05231e-19
5.02537e-19
3.04008e-19
2.12706e-19
1.61896e-19
1.32227e-19
1.13415e-19
1.0185e-19
8.27508e-20
5.46661e-20
3.31833e-20
3.21361e-22
1.20684e-21
1.03006e-21
8.89067e-22
1.46547e-21
3.56769e-21
9.42346e-21
2.23715e-20
4.83448e-20
7.1497e-20
7.21596e-20
7.01366e-20
6.15256e-20
4.36191e-20
2.90021e-20
2.27553e-20
1.99408e-20
1.72619e-20
1.45673e-20
1.25536e-20
9.40405e-21
5.89337e-21
3.27782e-21
7.1117e-24
1.88351e-23
1.66694e-23
1.65284e-23
3.96227e-23
1.34978e-22
4.28687e-22
1.24833e-21
3.60895e-21
5.561e-21
5.81745e-21
5.49997e-21
4.61667e-21
3.38946e-21
2.64514e-21
2.3105e-21
2.03917e-21
1.77624e-21
1.55206e-21
1.24255e-21
8.68927e-22
5.05031e-22
2.98614e-22
9.26461e-26
2.04295e-25
2.07314e-25
2.67953e-25
9.67233e-25
4.89444e-24
1.95232e-23
6.80156e-23
2.2585e-22
3.66072e-22
3.89071e-22
3.61815e-22
3.04645e-22
2.49805e-22
2.19537e-22
2.05471e-22
1.91262e-22
1.64147e-22
1.39559e-22
1.02835e-22
6.2798e-23
3.78625e-23
1.36756e-23
6.37565e-28
1.39812e-27
1.57939e-27
3.41015e-27
2.32339e-26
1.62123e-25
8.13871e-25
3.25934e-24
1.19146e-23
2.01532e-23
2.1739e-23
2.05818e-23
1.86259e-23
1.74096e-23
1.67417e-23
1.62702e-23
1.53608e-23
1.33323e-23
1.0529e-23
7.13851e-24
4.5125e-24
1.58911e-24
2.47036e-25
2.0651e-30
3.75762e-30
5.52106e-30
3.67079e-29
4.8293e-28
4.47691e-27
2.86911e-26
1.3144e-25
5.32564e-25
9.34896e-25
1.04083e-24
1.0629e-24
1.07453e-24
1.10757e-24
1.13079e-24
1.13409e-24
1.09001e-24
9.58196e-25
7.05648e-25
4.57679e-25
1.83527e-25
2.8563e-26
3.2542e-27
2.38662e-33
1.7202e-33
1.22019e-32
4.39362e-31
9.1442e-30
1.09568e-28
9.06209e-28
4.78456e-27
2.14777e-26
3.85544e-26
4.57207e-26
5.23858e-26
6.00355e-26
6.75708e-26
7.25013e-26
7.4928e-26
7.26156e-26
6.35684e-26
4.27454e-26
1.89878e-26
4.05059e-27
4.42735e-28
3.86211e-28
2.52999e-37
4.44815e-37
7.76411e-35
6.32938e-33
1.72723e-31
2.56997e-30
2.69091e-29
1.61156e-28
7.92044e-28
1.44793e-27
1.87762e-27
2.45745e-27
3.13743e-27
3.78049e-27
4.2079e-27
4.48927e-27
4.31648e-27
3.60621e-27
2.06415e-27
6.37853e-28
9.16823e-29
4.2001e-29
1.90217e-28
-5.58061e-39
6.56363e-40
8.62139e-37
1.02975e-34
3.3813e-33
6.06351e-32
7.66225e-31
5.07934e-30
2.60658e-29
4.95754e-29
7.05922e-29
1.05392e-28
1.47598e-28
1.90343e-28
2.3153e-28
2.52008e-28
2.34588e-28
1.81767e-28
8.3797e-29
1.88772e-29
3.87595e-30
1.18547e-29
8.417e-29
0.0403291
0.0725063
0.0803958
0.0801322
4.26678e-23
-8.49798e-25
1.38553e-24
2.01155e-19
7.73677e-08
8.03386e-08
2.8442e-08
7.0562e-09
2.45552e-08
7.47814e-08
2.39348e-08
6.45896e-09
2.63002e-11
5.12556e-11
6.3852e-09
2.30971e-08
1.68503e-10
5.78167e-11
2.02292e-09
4.49768e-09
1.50954e-10
8.98212e-11
9.63581e-11
2.32614e-10
4.16851e-11
3.76946e-11
2.21224e-11
2.26956e-11
1.13264e-11
1.64447e-11
1.50284e-11
1.87067e-11
2.97803e-12
4.17236e-12
8.36595e-12
9.82012e-12
5.50339e-13
7.43736e-13
1.91987e-12
2.5957e-12
3.44378e-13
3.13058e-13
2.92904e-13
2.75131e-13
2.27084e-13
1.98303e-13
1.94332e-13
1.93468e-13
1.48822e-13
1.38369e-13
1.67553e-13
2.20558e-13
1.18166e-13
1.81282e-13
4.19758e-13
8.59344e-13
1.07027e-13
1.71839e-13
1.03185e-12
3.4767e-12
9.88467e-14
1.03827e-13
5.66324e-13
3.92835e-12
9.127e-14
8.27083e-14
2.20193e-13
2.22354e-12
8.31841e-14
7.16233e-14
8.86827e-14
6.37245e-13
7.51949e-14
6.40883e-14
5.94917e-14
1.0028e-13
6.38937e-14
5.32451e-14
4.85927e-14
4.54813e-14
5.22068e-14
4.38755e-14
3.83143e-14
3.48383e-14
3.52473e-14
3.09928e-14
2.8247e-14
2.53051e-14
2.10209e-14
1.88006e-14
1.69049e-14
1.56577e-14
9.84066e-15
8.88931e-15
8.39328e-15
7.75895e-15
4.11912e-15
3.70551e-15
3.39216e-15
3.13812e-15
1.55854e-15
1.33471e-15
1.23075e-15
1.09715e-15
5.14237e-16
4.29191e-16
3.78887e-16
3.24375e-16
1.56234e-16
1.20719e-16
1.05465e-16
8.28512e-17
3.92933e-17
3.06708e-17
2.49113e-17
1.77518e-17
8.2957e-18
6.08929e-18
4.79635e-18
3.29738e-18
1.52977e-18
1.05117e-18
7.77284e-19
5.13844e-19
2.15913e-19
1.45516e-19
9.97287e-20
6.30142e-20
2.44549e-20
1.60276e-20
1.01984e-20
6.67354e-21
2.31359e-21
1.56243e-21
9.70998e-22
2.59854e-22
1.40564e-22
5.01718e-23
1.53534e-23
1.3676e-24
1.82023e-24
1.1944e-25
5.83876e-26
1.79562e-26
3.61728e-27
2.66058e-27
5.63307e-27
1.5425e-26
1.2547e-27
2.04445e-27
5.55423e-27
1.72439e-26
6.36188e-28
1.78091e-27
6.05476e-27
1.87813e-26
4.39996e-28
1.60456e-27
5.66709e-27
1.72495e-26
3.12105e-28
1.05903e-27
3.38629e-27
9.13208e-27
0.0209848
1.56001e-12
-6.56619e-06
0.0240309
0.00780672
0.0710921
0.0915573
0.0524928
0.000525589
9.17874e-05
0.000140674
0.000141224
6.45334e-05
3.2266e-05
1.61583e-05
5.9252e-05
2.90203e-05
0.00106904
0.010451
5.57612e-10
4.71977e-13
1.24003e-05
0.00106279
0.00519154
0.0130787
0.041125
0.0370079
0.00200932
1.13614e-05
3.71735e-05
4.11739e-05
2.2803e-05
1.28679e-05
8.42617e-07
0.000193345
0.000169375
0.000987725
0.00986311
2.08689e-07
1.03262e-06
0.00120186
0.00221562
0.00091758
2.08498e-05
0.00423987
0.011735
0.00370724
1.14309e-05
2.57353e-05
1.112e-06
4.29625e-06
2.90984e-06
1.39342e-06
0.000250966
0.000282951
0.000279651
0.00168205
2.27417e-07
2.56935e-06
0.00014313
0.000696918
0.000433138
1.57103e-05
3.19201e-05
0.000885066
0.00209991
0.00100356
0.000156691
4.92425e-09
5.01155e-09
2.38619e-07
2.52818e-07
0.00010643
0.000276344
2.12338e-05
1.43114e-05
1.15676e-07
1.43537e-07
2.19574e-09
1.04286e-07
1.24455e-05
1.67562e-05
2.67826e-08
1.47108e-05
0.000359682
0.000674228
0.000100642
3.36872e-08
6.05073e-08
6.3798e-07
7.97884e-07
4.48931e-06
5.75869e-05
1.43114e-05
1.52394e-05
1.30287e-10
3.69415e-09
4.97984e-10
-6.99029e-12
-6.30671e-12
3.62526e-07
2.41835e-08
2.7348e-08
-1.44086e-09
1.37493e-05
3.81994e-05
2.92851e-08
3.95564e-08
2.59948e-07
2.98512e-07
1.82662e-09
6.78236e-08
5.13333e-05
0.00056077
2.27869e-11
9.27995e-11
5.19763e-10
9.89121e-10
2.74416e-09
5.65743e-09
1.72388e-08
1.37909e-08
3.63722e-09
1.5866e-08
1.64803e-06
3.6907e-06
4.42393e-08
2.90648e-11
2.53569e-11
1.90768e-09
1.40993e-09
0.000143146
0.000598918
4.56977e-11
1.36465e-10
2.58716e-10
4.2168e-10
3.13515e-09
8.5426e-09
1.34076e-08
6.6896e-09
3.86199e-09
4.37945e-07
8.59197e-07
1.00725e-06
1.46142e-07
2.56814e-11
2.03014e-09
3.70486e-08
1.8613e-09
9.08291e-05
0.000505119
3.01467e-11
5.21906e-11
7.03318e-11
1.24369e-10
4.96379e-10
2.75901e-09
3.93055e-09
2.89576e-09
2.89968e-08
4.39523e-07
4.16731e-07
1.71967e-07
2.49169e-08
3.26062e-08
3.02029e-07
6.48698e-07
1.08829e-06
3.31752e-05
0.000156381
1.20738e-11
1.4826e-11
1.80621e-11
2.73032e-11
3.92852e-11
5.54867e-11
4.51256e-11
8.09902e-09
3.5e-08
2.06671e-08
4.55949e-11
1.39776e-12
6.47539e-08
5.66659e-07
1.34563e-06
1.48631e-06
1.15075e-05
0.000932555
0.00289643
2.30238e-12
1.94772e-12
3.31173e-12
8.4315e-12
1.63225e-11
1.89288e-11
1.17557e-10
1.38445e-09
1.91106e-09
9.86059e-11
2.54409e-10
6.22564e-10
4.36293e-10
2.65801e-07
5.3938e-07
3.98647e-05
0.000761027
0.00460637
0.00526435
3.19208e-13
2.86949e-13
4.51926e-13
1.05274e-12
2.64594e-12
5.41393e-12
2.2117e-11
1.74256e-10
2.51845e-10
5.30459e-10
2.07362e-09
4.21097e-09
4.06842e-09
3.24054e-08
8.84995e-07
0.000139322
0.0017479
0.0039513
0.00334025
2.04106e-13
1.84683e-13
1.95433e-13
1.98263e-13
2.5573e-13
1.39571e-12
2.25647e-12
1.63833e-11
3.61795e-11
5.13623e-11
1.13721e-10
8.71305e-10
1.20557e-07
5.33323e-06
5.76064e-05
0.000267468
0.000386603
1.95439e-07
7.89927e-08
2.70411e-13
3.83953e-13
5.73582e-13
6.42218e-13
6.28841e-13
7.04034e-13
6.31788e-13
1.44216e-12
2.79038e-12
9.2797e-12
2.41768e-11
3.37439e-10
1.36887e-07
5.67128e-06
3.06695e-05
1.01084e-07
1.96906e-08
2.20289e-08
1.29667e-07
1.4989e-12
2.92146e-12
5.65677e-12
7.60941e-12
7.36202e-12
1.18505e-11
3.81312e-13
7.92477e-14
1.24428e-13
7.91652e-14
8.6622e-13
8.58071e-14
1.66566e-06
6.10773e-06
2.12465e-06
8.02831e-11
4.26997e-07
7.00608e-07
2.81839e-07
6.65193e-12
1.52905e-11
3.48996e-11
6.68477e-11
1.13467e-10
2.00844e-10
3.52343e-10
1.13441e-09
1.06427e-09
1.71394e-10
3.00487e-11
1.65693e-14
1.75618e-06
4.23947e-06
2.64808e-07
9.05318e-11
3.74755e-07
6.36159e-07
1.60939e-07
1.52115e-11
3.86892e-11
9.38958e-11
2.27457e-10
4.75809e-10
9.57266e-10
1.88824e-09
4.22651e-09
8.91365e-09
1.05252e-08
3.94222e-11
2.6217e-08
6.03956e-07
1.542e-09
2.30376e-10
9.16181e-11
9.29895e-11
-2.40799e-10
1.07557e-09
1.10578e-11
3.1327e-11
8.75478e-11
2.25884e-10
5.46749e-10
1.21786e-09
2.27189e-09
3.86629e-09
8.36841e-09
8.78772e-09
3.49711e-08
1.05696e-07
2.76594e-08
2.34407e-09
6.4118e-10
1.09832e-10
9.06166e-11
2.50353e-09
1.3601e-09
4.20166e-12
1.52185e-11
5.00916e-11
1.35098e-10
3.71536e-10
8.77537e-10
1.69203e-09
2.81536e-09
4.58236e-09
6.94037e-09
1.79685e-08
2.71502e-08
7.88311e-09
4.39928e-10
2.65774e-11
3.67464e-11
1.09554e-10
1.54379e-09
6.51023e-10
8.8354e-13
4.40628e-12
1.87032e-11
5.29611e-11
1.51832e-10
3.95082e-10
8.28838e-10
1.47456e-09
2.21347e-09
2.69684e-09
2.34509e-09
7.39318e-10
8.7601e-12
4.9923e-12
1.31631e-11
2.59851e-11
5.94629e-11
1.17775e-10
2.11192e-10
1.21908e-13
8.3245e-13
4.51884e-12
1.39035e-11
4.29554e-11
1.16372e-10
2.80161e-10
5.1793e-10
7.71126e-10
8.03299e-10
3.81237e-10
1.07925e-10
7.39122e-12
4.9292e-12
7.98719e-12
1.6147e-11
3.31716e-11
6.2085e-11
6.33343e-11
3.5787e-14
1.04284e-13
6.79225e-13
2.88078e-12
1.0679e-11
2.88408e-11
6.84853e-11
1.3377e-10
1.9357e-10
1.83591e-10
9.21778e-11
1.75091e-11
2.04726e-12
2.1828e-12
3.63803e-12
6.20374e-12
1.00373e-11
1.5178e-11
1.50805e-11
2.25415e-14
2.18933e-14
8.05335e-14
4.42185e-13
1.86726e-12
5.66313e-12
1.24679e-11
2.47605e-11
3.55536e-11
3.30941e-11
1.82242e-11
4.1991e-12
6.30019e-13
7.37308e-13
1.13717e-12
1.91298e-12
2.7644e-12
2.87981e-12
2.73629e-12
1.40296e-14
1.09495e-14
1.37932e-14
4.21795e-14
1.89246e-13
7.42874e-13
1.81018e-12
3.52986e-12
4.9551e-12
5.22264e-12
3.29674e-12
8.65089e-13
1.46159e-13
1.76544e-13
2.71328e-13
3.95438e-13
4.32814e-13
3.82186e-13
3.0103e-13
7.12381e-15
5.59089e-15
4.41183e-15
5.66293e-15
2.11801e-14
7.3667e-14
1.98975e-13
4.30016e-13
6.46492e-13
7.16146e-13
5.54095e-13
1.61538e-13
2.66512e-14
3.3671e-14
4.84586e-14
6.60466e-14
5.67969e-14
3.76286e-14
1.76433e-14
2.91157e-15
2.34624e-15
1.8434e-15
1.61975e-15
2.25264e-15
5.63031e-15
1.68944e-14
3.73221e-14
6.38398e-14
8.19419e-14
7.1553e-14
2.36378e-14
3.77125e-15
4.90226e-15
6.71026e-15
5.67339e-15
1.10579e-15
7.17556e-16
1.71505e-15
1.00134e-15
7.95709e-16
6.06909e-16
4.90153e-16
4.22574e-16
5.43632e-16
1.16792e-15
2.51371e-15
4.72328e-15
6.89575e-15
6.96614e-15
2.74961e-15
4.82944e-16
5.72279e-16
5.37353e-16
1.82755e-16
2.13869e-16
2.28387e-16
1.54889e-16
2.85549e-16
2.02008e-16
1.52379e-16
1.22319e-16
1.0179e-16
9.55047e-17
9.84992e-17
1.49273e-16
2.7374e-16
4.51171e-16
5.38384e-16
2.72423e-16
5.94311e-17
6.98324e-17
3.61884e-17
6.66399e-17
1.12801e-16
1.23035e-16
8.10182e-17
6.82802e-17
4.50979e-17
2.98851e-17
2.10969e-17
1.82933e-17
1.75609e-17
1.49731e-17
1.1753e-17
1.46228e-17
2.39052e-17
3.12588e-17
2.08616e-17
7.67934e-18
1.18724e-17
1.39047e-17
2.94868e-17
5.43962e-17
6.53293e-17
4.04007e-17
1.31312e-17
8.21631e-18
4.35902e-18
2.41073e-18
1.72534e-18
1.98238e-18
1.98746e-18
1.35096e-18
9.12212e-19
1.13652e-18
1.6189e-18
1.06783e-18
8.8295e-19
2.63245e-18
5.24561e-18
1.22012e-17
2.5161e-17
3.90648e-17
2.00329e-17
2.08718e-18
1.09176e-18
5.18159e-19
1.48086e-19
6.89221e-20
9.82116e-20
1.53101e-19
1.19871e-19
6.90845e-20
6.56243e-20
7.69361e-20
9.32187e-20
2.12242e-19
6.23407e-19
1.86592e-18
5.01409e-18
1.17896e-17
2.23546e-17
1.28814e-17
2.5689e-19
1.24417e-19
2.93783e-20
2.7905e-21
1.18209e-21
3.25728e-21
7.3239e-21
9.12375e-21
1.17198e-20
2.07605e-20
3.99023e-20
7.96598e-20
1.62515e-19
3.54287e-19
9.25846e-19
2.20979e-18
5.54267e-18
1.25704e-17
8.18583e-18
2.93472e-20
5.62471e-21
4.02238e-22
1.0923e-22
2.31668e-22
6.30078e-22
1.66632e-21
3.91391e-21
8.75241e-21
1.90555e-20
3.98091e-20
7.90917e-20
1.51811e-19
2.93122e-19
5.79808e-19
1.27856e-18
3.40112e-18
6.795e-18
4.61516e-18
1.98027e-21
1.03269e-22
2.29603e-23
5.88906e-23
1.78621e-22
5.11061e-22
1.36153e-21
3.47442e-21
8.31797e-21
1.89269e-20
4.03411e-20
7.98652e-20
1.47936e-19
2.57905e-19
4.44951e-19
1.01415e-18
2.36126e-18
3.4512e-18
2.53049e-18
2.01528e-23
4.06865e-24
1.38785e-23
4.86442e-23
1.52462e-22
4.50119e-22
1.23661e-21
3.2158e-21
7.87828e-21
1.80646e-20
3.90968e-20
7.71332e-20
1.3741e-19
2.27197e-19
3.95249e-19
7.94135e-19
1.40747e-18
1.86241e-18
1.20489e-18
4.45e-25
2.51119e-24
1.0986e-23
3.96582e-23
1.29811e-22
3.897e-22
1.09406e-21
2.89067e-21
7.16608e-21
1.66362e-20
3.61386e-20
7.11522e-20
1.24449e-19
2.07399e-19
3.40706e-19
5.84475e-19
8.87991e-19
8.91935e-19
6.07833e-19
3.41431e-25
2.04935e-24
8.69597e-24
3.22787e-23
1.06282e-22
3.22669e-22
9.09107e-22
2.41718e-21
6.0215e-21
1.40991e-20
3.06441e-20
6.02852e-20
1.05403e-19
1.7252e-19
2.68327e-19
4.04391e-19
4.8251e-19
4.65429e-19
2.49869e-19
3.00076e-25
1.62334e-24
6.83543e-24
2.47919e-23
8.12054e-23
2.46432e-22
6.95024e-22
1.82865e-21
4.56476e-21
1.07255e-20
2.33274e-20
4.57998e-20
8.0223e-20
1.29471e-19
1.90076e-19
2.5779e-19
2.75229e-19
2.06724e-19
1.18341e-19
2.40066e-25
1.19027e-24
4.78494e-24
1.66592e-23
5.4472e-23
1.64622e-22
4.61838e-22
1.20919e-21
3.0355e-21
7.13518e-21
1.55503e-20
3.06058e-20
5.39723e-20
8.59825e-20
1.16674e-19
1.48418e-19
1.32111e-19
9.83274e-20
4.20426e-20
1.74696e-25
7.43137e-25
2.74991e-24
9.16886e-24
2.86006e-23
8.54351e-23
2.44067e-22
6.56868e-22
1.65382e-21
3.99455e-21
8.84322e-21
1.75697e-20
3.09532e-20
4.92847e-20
6.48584e-20
7.84198e-20
6.18634e-20
3.55318e-20
2.10604e-20
9.36807e-26
3.47761e-25
1.1858e-24
3.77659e-24
1.17872e-23
3.56726e-23
1.03885e-22
2.89481e-22
7.55118e-22
1.86604e-21
4.24121e-21
8.64198e-21
1.55204e-20
2.49106e-20
3.1774e-20
3.71128e-20
2.24538e-20
1.60946e-20
1.08617e-20
2.78359e-26
8.9577e-26
2.81582e-25
8.42361e-25
2.87037e-24
9.78977e-24
3.13238e-23
9.40972e-23
2.66509e-22
7.0008e-22
1.67008e-21
3.56632e-21
6.64803e-21
1.0958e-20
1.409e-20
1.58063e-20
9.57123e-21
7.18065e-21
5.09191e-21
)
;

boundaryField
{
    leftWall
    {
        type            alphaContactAngle;
        contactAngleProperties 
        {
            air             
            {
                theta0          90;
            }
            water           
            {
                theta0          90;
            }
            oil             
            {
                theta0          90;
            }
        }
        value           nonuniform List<scalar> 
50
(
1
1
1
1
1
0.640883
0.0176103
1.01695e-09
1.27437e-09
5.78128e-10
2.85457e-10
2.69647e-10
3.70232e-10
4.91459e-10
5.04742e-10
5.05554e-10
4.10645e-10
2.14987e-10
1.16787e-10
7.33702e-11
5.18783e-11
5.00576e-11
4.73295e-11
3.11096e-11
2.23203e-11
1.5254e-11
1.05028e-11
6.3983e-12
3.79866e-12
2.11797e-12
1.04854e-12
4.75173e-13
2.11615e-13
8.26986e-14
2.70086e-14
7.73304e-15
1.6976e-15
3.41357e-16
4.02866e-17
4.09627e-18
1.84479e-19
8.39022e-21
3.21361e-22
7.1117e-24
9.26461e-26
6.37565e-28
2.0651e-30
2.38662e-33
2.52999e-37
-5.58061e-39
)
;
    }
    rightWall
    {
        type            alphaContactAngle;
        contactAngleProperties 
        {
            air             
            {
                theta0          90;
            }
            water           
            {
                theta0          90;
            }
            oil             
            {
                theta0          90;
            }
        }
        value           nonuniform List<scalar> 
50
(
0.70729
0.5299
0.374569
0.174488
0.0752512
0.00526398
0.00126818
0.00855527
0.010451
0.00986311
0.00168205
1.43114e-05
1.52394e-05
0.00056077
0.000598918
0.000505119
0.000156381
0.00289643
0.00526435
0.00334025
7.89927e-08
1.29667e-07
2.81839e-07
1.60939e-07
1.07557e-09
1.3601e-09
6.51023e-10
2.11192e-10
6.33343e-11
1.50805e-11
2.73629e-12
3.0103e-13
1.76433e-14
1.71505e-15
1.54889e-16
8.10182e-17
4.04007e-17
2.00329e-17
1.28814e-17
8.18583e-18
4.61516e-18
2.53049e-18
1.20489e-18
6.07833e-19
2.49869e-19
1.18341e-19
4.20426e-20
2.10604e-20
1.08617e-20
5.09191e-21
)
;
    }
    lowerWall
    {
        type            alphaContactAngle;
        contactAngleProperties 
        {
            air             
            {
                theta0          90;
            }
            water           
            {
                theta0          90;
            }
            oil             
            {
                theta0          90;
            }
        }
        value           nonuniform List<scalar> 
62
(
1
1
1
1
1
1
1
1
1
1
1
1
1
1
1
1
1
1
1
0.999918
0.999523
0.999433
0.999433
0.999433
0.999828
1
1
1
0.976777
0.314036
-3.26489e-09
0.0403291
0.0725063
0.0803958
0.0801322
0.870851
0.649822
0.0986948
0.138182
0.226733
0.143771
0.00458564
0.00721956
0.870851
0.8766
0.876563
0.8766
0.875759
0.824218
0.587224
0.578981
0.581588
0.577317
0.574075
0.663018
0.726567
0.716292
0.714983
0.71443
0.70764
0.70738
0.70729
)
;
    }
    atmosphere
    {
        type            inletOutlet;
        inletValue      uniform 0;
        value           nonuniform List<scalar> 
46
(
0
0
0
1.02975e-34
3.3813e-33
6.06351e-32
7.66225e-31
5.07934e-30
2.60658e-29
4.95754e-29
7.05922e-29
1.05392e-28
1.47598e-28
1.90343e-28
2.3153e-28
2.52008e-28
2.34588e-28
1.81767e-28
0
0
0
0
0
0
0
0
0
0
0
0
0
0
0
0
0
0
0
0
0
0
0
0
0
0
0
5.09191e-21
)
;
    }
    defaultFaces
    {
        type            empty;
    }
}


// ************************************************************************* //
