/*--------------------------------*- C++ -*----------------------------------*\
  =========                 |
  \\      /  F ield         | OpenFOAM: The Open Source CFD Toolbox
   \\    /   O peration     | Website:  https://openfoam.org
    \\  /    A nd           | Version:  13
     \\/     M anipulation  |
\*---------------------------------------------------------------------------*/
FoamFile
{
    format      ascii;
    class       volScalarField;
    location    "1.8";
    object      alpha.oil;
}
// * * * * * * * * * * * * * * * * * * * * * * * * * * * * * * * * * * * * * //

dimensions      [];

internalField   nonuniform List<scalar> 
2268
(
4.27929e-15
2.57826e-14
9.7636e-14
2.93291e-13
7.09422e-13
1.60351e-12
3.45165e-12
7.05105e-12
1.45829e-11
3.3489e-11
6.69783e-11
1.298e-10
2.27407e-10
4.32743e-10
8.67416e-10
2.4571e-09
6.76152e-09
1.45417e-08
2.3463e-08
8.19789e-05
0.000477154
0.000567377
0.000567299
1.83763e-15
7.77481e-15
3.22475e-14
1.46355e-13
7.21569e-13
1.74785e-12
4.31176e-12
1.03276e-11
2.32067e-11
4.87213e-11
9.89147e-11
2.05114e-10
4.10315e-10
7.65881e-10
1.75117e-09
4.64667e-09
1.27668e-08
3.31414e-08
7.78757e-08
3.34046e-08
1.56127e-05
0.000135223
0.000171777
9.82616e-16
3.80722e-15
1.08215e-14
6.23174e-14
6.13971e-13
1.82299e-12
4.85951e-12
1.24874e-11
2.94612e-11
6.27581e-11
1.20782e-10
2.20117e-10
4.12447e-10
7.58537e-10
1.57936e-09
3.31244e-09
6.90744e-09
1.2544e-08
1.47806e-08
1.46986e-08
1.2303e-08
1.74458e-08
2.03299e-08
1.01923e-15
5.06406e-15
1.6458e-14
3.40215e-14
1.53062e-13
1.04075e-12
4.47965e-12
1.20686e-11
3.0367e-11
7.23061e-11
1.62763e-10
3.47463e-10
7.05181e-10
1.37836e-09
2.59957e-09
4.83455e-09
6.84398e-09
7.53128e-09
7.68928e-09
8.13559e-09
1.17175e-08
2.89078e-08
2.15193e-08
2.19372e-14
8.15957e-13
1.77068e-12
1.77974e-12
1.41988e-12
1.3738e-12
1.91151e-12
6.5064e-12
2.04355e-11
4.98756e-11
1.09369e-10
3.23613e-10
8.83652e-10
2.17372e-09
4.66115e-09
8.51943e-09
1.23233e-08
6.47533e-09
6.01036e-09
6.50016e-09
8.65009e-09
3.38985e-08
2.91391e-08
1.19007e-11
3.29467e-11
4.84358e-11
4.41566e-11
3.21027e-11
1.70957e-11
8.375e-12
6.77543e-12
1.11643e-11
5.26987e-11
1.97596e-10
6.08421e-10
1.9134e-09
4.22325e-09
9.01275e-09
2.19035e-08
5.76978e-08
2.14121e-07
6.50174e-07
7.94948e-07
8.15175e-09
2.66363e-08
1.95481e-07
5.36477e-10
4.64254e-10
2.86803e-10
2.48556e-10
1.68718e-10
8.58885e-11
4.35456e-11
2.50972e-11
1.91142e-11
2.24587e-11
5.50485e-11
2.15801e-10
3.97405e-10
4.28124e-10
4.00168e-10
3.99561e-10
3.57099e-08
1.33669e-06
2.74514e-06
2.7489e-06
2.31342e-06
1.38815e-05
5.86118e-05
4.03858e-09
2.53882e-09
1.55737e-09
1.02821e-09
7.27046e-10
4.03889e-10
1.97193e-10
1.16882e-10
6.5405e-11
4.98815e-11
6.3063e-11
1.74724e-10
3.37114e-10
4.2547e-10
4.76093e-10
4.90249e-10
1.80808e-08
1.22794e-06
2.68784e-06
2.70577e-06
1.35439e-05
4.80056e-05
9.13628e-05
0.115735
0.116241
0.0738052
0.0288616
0.0281892
0.0676831
0.329439
0.353003
0.371859
0.371987
0.345979
0.133598
0.0558766
0.121374
0.178918
0.25178
0.25857
0.25883
0.25892
0.340761
0.331625
0.229804
0.0778404
0.0282536
0.0417276
0.0863716
0.125067
0.144904
0.211747
0.228348
0.0950273
0.0549312
0.0583386
0.185224
0.255402
0.253444
0.274119
0.431857
0.645282
0.674765
0.742577
0.609034
0.251354
0.0537316
1.44471e-06
4.9055e-10
0.000235706
0.0255086
0.136573
0.232351
0.110028
0.0839741
0.197516
0.264415
0.266352
0.322919
0.514862
0.080858
0.103142
0.488258
0.714305
0.63324
0.121801
6.93231e-06
1.09261e-05
6.3997e-10
0.000139494
0.147586
0.254111
0.258876
0.263302
0.261973
0.247648
0.139138
0.226605
0.513635
0.00789599
0.00449367
0.034092
0.501467
0.658507
0.369357
0.0149391
0.00130835
1.48015e-06
0.0442233
0.19455
0.212054
0.263846
0.263111
0.263311
0.189937
0.0727667
0.149414
0.514862
0.0221902
0.0107609
0.0024208
0.188266
0.649158
0.618002
0.198959
0.000694706
1.49377e-06
0.0670376
0.242289
0.263936
0.263643
0.26379
0.177796
0.0724438
0.0639358
0.0739503
0.465363
0.0482597
0.0366551
0.00541824
0.00384315
0.589504
0.691865
0.484849
0.0332246
4.92085e-05
0.0269617
0.163418
0.25812
0.263691
0.215131
0.0216561
0.0233527
0.0581919
0.0718812
0.175055
0.0482801
0.0386871
0.0133766
0.00950764
0.48255
0.690869
0.597987
0.0895412
-1.7654e-08
3.95111e-06
0.0139239
0.0476575
0.0738524
0.0212586
1.21116e-05
1.2137e-05
0.114641
0.107808
0.27222
7.45353e-09
6.58517e-09
5.50696e-09
4.67493e-09
4.20576e-09
3.45419e-09
1.67623e-09
8.66872e-10
4.55061e-10
2.313e-10
1.58506e-10
1.91054e-10
3.89624e-10
6.15014e-10
1.09967e-09
4.57632e-09
2.53619e-08
7.04724e-08
4.12066e-07
1.67893e-06
1.26917e-05
3.92135e-05
3.96995e-05
6.49461e-09
5.8529e-09
5.38039e-09
5.11078e-09
5.78922e-09
6.10136e-09
4.70415e-09
2.04407e-09
1.17469e-09
7.07459e-10
3.24206e-10
2.79583e-10
4.45055e-10
1.0339e-09
2.51147e-09
3.80484e-09
1.39775e-09
2.75076e-15
3.6854e-08
-3.60944e-08
-3.60328e-19
-2.87389e-18
0.0185596
1.85477e-09
1.51652e-09
1.51405e-09
1.53499e-09
1.98075e-09
2.85376e-09
3.09327e-09
1.83653e-09
1.06071e-09
6.17077e-10
3.74009e-10
2.80336e-10
2.8176e-10
-8.13804e-12
-1.59725e-12
1.50122e-15
-1.50265e-15
-1.18115e-18
0.00339622
0.0371406
0.136962
0.328237
0.565462
1.76413e-09
1.51779e-09
1.53509e-09
3.26715e-13
9.82521e-14
1.19997e-19
-1.19048e-26
-1.72329e-27
3.44659e-27
4.30823e-28
3.4738e-28
8.47849e-05
0.0024977
0.0139513
0.0464742
0.113712
0.204876
0.324556
0.454483
0.624278
0.781493
0.877747
0.949706
0.231162
0.62212
0.701741
0.675411
0.576894
0.361344
0.213215
0.219233
0.255431
0.293537
0.332519
0.390413
0.467143
0.560665
0.666625
0.786798
0.890454
0.908055
0.902544
0.912589
0.974052
0.999999
0.999999
0.703472
0.975916
0.981916
0.981916
0.981916
0.896047
0.849118
0.881239
0.925241
0.931351
0.924094
0.922499
0.933028
0.970507
0.990359
0.990659
0.984374
0.969043
0.94852
0.928828
0.908126
0.894506
0.893044
0.837248
0.957934
0.97716
0.981916
0.981916
0.981663
0.980097
0.979229
0.976054
0.963658
0.940626
0.907033
0.858473
0.789622
0.714355
0.60506
0.487421
0.389771
0.318695
0.268673
0.231876
0.208688
0.213941
0.600948
0.551466
0.531456
0.545211
0.525681
0.487785
0.448019
0.394428
0.330029
0.267582
0.209946
0.155001
0.102629
0.0549472
0.0109072
2.31535e-13
-3.20989e-35
3.49438e-19
8.51373e-19
-3.97548e-10
3.18829e-07
-6.55658e-10
1.28596e-07
0.0677109
0.0909344
0.0862131
0.0416536
0.00846086
0.0022039
1.6015e-09
5.90634e-09
8.37886e-11
1.68819e-08
1.8886e-10
3.72017e-10
5.80838e-11
4.67447e-17
3.4653e-17
1.39222e-10
-3.46705e-29
2.51156e-09
1.15328e-08
5.17001e-08
2.33479e-08
1.80826e-08
1.06818e-08
9.64989e-07
1.07766e-06
0.0053956
0.00587458
0.000558534
5.43422e-10
7.62025e-09
5.31849e-08
2.16941e-07
2.30305e-07
2.91581e-05
5.54612e-05
1.77102e-05
1.82256e-07
3.95433e-08
6.81628e-09
3.89427e-17
1.40305e-07
3.83146e-07
4.59226e-07
3.9317e-07
2.8072e-07
1.11579e-07
7.63931e-07
6.09792e-06
1.96537e-05
0.00120076
7.00706e-05
1.23776e-08
1.56056e-08
1.63261e-07
2.14069e-07
3.45873e-05
0.000172407
0.000172174
9.31756e-05
2.56761e-07
2.16308e-08
7.91639e-09
8.51763e-10
4.12532e-07
5.9557e-07
5.94885e-07
5.61288e-07
4.30056e-07
1.86178e-07
8.84273e-07
2.12108e-05
4.58171e-07
0.000119392
1.24635e-08
1.31513e-08
1.0215e-07
2.69908e-07
2.70934e-06
0.000156336
0.000172394
0.000172394
0.000101505
3.09017e-08
3.3366e-08
2.51531e-08
4.02163e-08
2.80999e-07
4.98991e-07
3.71711e-07
3.5688e-07
2.88455e-07
1.52315e-07
8.53949e-07
8.22175e-07
4.43827e-07
1.5734e-07
1.56905e-07
9.00673e-08
1.58044e-07
2.98073e-07
3.91216e-06
0.000117114
0.000172394
0.000164079
1.48739e-05
2.88286e-08
1.54776e-07
2.82632e-08
3.32667e-08
3.39806e-08
1.2874e-07
6.83288e-08
9.07861e-08
9.11866e-08
6.23166e-08
8.6449e-07
1.10896e-06
5.43381e-07
1.47012e-07
1.36675e-07
1.08205e-07
1.62369e-07
2.95496e-07
7.82406e-07
1.49602e-07
4.17041e-05
2.40243e-05
2.15053e-07
5.50925e-07
1.31359e-07
3.12687e-09
4.35668e-09
7.58832e-09
1.64703e-08
4.03119e-09
5.98825e-09
1.55929e-08
1.54049e-08
2.98928e-07
5.35575e-07
2.19616e-07
1.06939e-07
9.03316e-08
9.76194e-08
1.39173e-07
4.05626e-07
9.59731e-07
1.33711e-08
1.33628e-08
1.33722e-08
3.84861e-07
1.5807e-06
7.20208e-08
3.11882e-09
6.51172e-09
3.66788e-09
2.50311e-09
1.91849e-09
1.66358e-09
2.26067e-09
2.94981e-09
6.62288e-08
1.43554e-07
1.10901e-07
8.32577e-08
7.16657e-08
6.44591e-08
4.84111e-08
2.92846e-08
1.55449e-08
1.35632e-08
1.38112e-08
1.31065e-07
1.04684e-06
1.55429e-06
1.45137e-07
3.05034e-09
1.12081e-08
1.02075e-08
7.17063e-09
5.97302e-09
3.02763e-09
1.55226e-09
1.278e-09
4.22271e-08
8.93601e-08
9.65996e-08
8.04353e-08
5.9427e-08
3.74852e-08
2.24371e-08
1.46493e-08
1.40178e-08
1.49263e-08
2.53187e-08
3.38591e-07
1.11582e-06
9.75726e-07
8.19407e-09
8.34042e-09
1.33286e-08
1.30194e-08
1.13174e-08
8.32231e-09
5.17644e-09
2.46658e-09
1.61633e-09
3.62302e-08
7.91765e-08
9.36089e-08
7.87086e-08
5.10723e-08
2.81685e-08
1.88264e-08
1.63326e-08
1.56051e-08
1.91149e-08
5.18823e-08
1.8351e-07
1.95177e-07
6.35904e-09
1.58716e-08
1.61967e-08
1.18978e-08
1.05799e-08
9.79167e-09
7.72682e-09
5.37433e-09
3.17247e-09
2.12855e-09
3.21596e-08
7.26456e-08
8.82188e-08
7.66773e-08
4.9422e-08
2.85194e-08
1.87722e-08
1.59487e-08
1.51532e-08
1.67623e-08
2.21074e-08
1.73133e-08
4.82919e-09
6.88104e-09
1.83173e-08
1.76627e-08
1.00054e-08
7.99432e-09
7.48731e-09
6.5576e-09
5.15186e-09
3.17268e-09
2.30928e-09
2.31033e-08
5.42125e-08
7.15143e-08
6.70687e-08
4.91195e-08
2.8553e-08
1.72455e-08
1.31481e-08
1.1403e-08
9.65098e-09
7.15942e-09
4.67645e-09
4.84856e-09
7.43307e-09
1.21427e-08
1.20407e-08
7.38072e-09
5.92015e-09
5.53202e-09
5.18133e-09
4.33208e-09
3.06729e-09
2.21619e-09
1.5929e-08
3.97765e-08
5.45066e-08
5.29686e-08
4.32494e-08
2.80706e-08
1.47709e-08
9.62594e-09
7.81981e-09
6.90185e-09
5.89444e-09
4.89451e-09
4.52345e-09
4.66727e-09
5.17727e-09
5.23667e-09
4.59858e-09
3.89809e-09
3.71881e-09
3.73053e-09
3.43292e-09
2.68108e-09
2.04802e-09
1.02751e-08
2.49899e-08
3.31983e-08
3.65192e-08
3.32339e-08
2.4243e-08
1.3282e-08
7.34645e-09
5.23506e-09
4.49599e-09
4.28665e-09
3.97495e-09
3.46954e-09
2.96652e-09
2.68501e-09
2.59665e-09
2.54284e-09
2.37524e-09
2.33276e-09
2.30082e-09
2.22568e-09
2.07988e-09
1.69941e-09
5.79025e-09
1.42944e-08
1.94554e-08
2.06454e-08
2.13492e-08
1.88992e-08
1.13922e-08
5.77569e-09
3.53703e-09
2.61102e-09
2.31258e-09
2.33596e-09
2.26494e-09
2.013e-09
1.75684e-09
1.52216e-09
1.38663e-09
1.32289e-09
1.31862e-09
1.36217e-09
1.35038e-09
1.27072e-09
1.16477e-09
3.04119e-09
7.41581e-09
1.02012e-08
1.06798e-08
1.02167e-08
1.15867e-08
8.56138e-09
4.30117e-09
2.40476e-09
1.48958e-09
1.13544e-09
1.09473e-09
1.16835e-09
1.18609e-09
1.06879e-09
9.2156e-10
8.09508e-10
7.45564e-10
7.25249e-10
7.25208e-10
7.17579e-10
7.06616e-10
6.7079e-10
1.58795e-09
3.54704e-09
4.70899e-09
4.83124e-09
4.14804e-09
5.08411e-09
4.98702e-09
2.94424e-09
1.68733e-09
9.68016e-10
6.22887e-10
5.10449e-10
5.30911e-10
5.63912e-10
5.51703e-10
5.04692e-10
4.47896e-10
4.03307e-10
3.80817e-10
3.76102e-10
3.66729e-10
3.4843e-10
3.26713e-10
7.27868e-10
1.52818e-09
1.94622e-09
1.93402e-09
1.5176e-09
1.78884e-09
1.99717e-09
1.50885e-09
9.73304e-10
5.84315e-10
3.36462e-10
2.44646e-10
2.21363e-10
2.3685e-10
2.47621e-10
2.38673e-10
2.21561e-10
2.02685e-10
1.89403e-10
1.77234e-10
1.67434e-10
1.63306e-10
1.49334e-10
2.78919e-10
5.70942e-10
7.05293e-10
6.89027e-10
5.19071e-10
5.69081e-10
6.83475e-10
5.84771e-10
4.30673e-10
2.85006e-10
1.77466e-10
1.11856e-10
8.91519e-11
8.87929e-11
9.91542e-11
1.02435e-10
9.88636e-11
9.16986e-11
8.66065e-11
8.06994e-11
7.58819e-11
7.02392e-11
6.4533e-11
9.15829e-11
1.7943e-10
2.18026e-10
2.11663e-10
1.57148e-10
1.62159e-10
1.97784e-10
1.85115e-10
1.4564e-10
1.04862e-10
7.18748e-11
4.78469e-11
3.49359e-11
3.12416e-11
3.4414e-11
3.79482e-11
3.87713e-11
3.71607e-11
3.49515e-11
3.2799e-11
2.9395e-11
2.69578e-11
2.45281e-11
2.30519e-11
4.64727e-11
5.5974e-11
5.3883e-11
3.97144e-11
3.92181e-11
4.77976e-11
4.84912e-11
4.01282e-11
3.07151e-11
2.23551e-11
1.58688e-11
1.1767e-11
1.04763e-11
1.07602e-11
1.2282e-11
1.33709e-11
1.29359e-11
1.26149e-11
1.20388e-11
1.06454e-11
9.33229e-12
8.44117e-12
5.1664e-12
9.89607e-12
1.15686e-11
1.09526e-11
7.98167e-12
7.64499e-12
9.48139e-12
1.04495e-11
8.87966e-12
7.05793e-12
5.45175e-12
4.14527e-12
3.28037e-12
2.8986e-12
3.09056e-12
3.48817e-12
3.85014e-12
4.07693e-12
4.02888e-12
3.92805e-12
3.4234e-12
2.80619e-12
2.46012e-12
6.74409e-13
1.37181e-12
1.84969e-12
1.70775e-12
1.21866e-12
1.15365e-12
1.51063e-12
1.84235e-12
1.6197e-12
1.33708e-12
1.0766e-12
8.62124e-13
7.33755e-13
6.97343e-13
7.6957e-13
9.10928e-13
1.04262e-12
1.10051e-12
1.10366e-12
1.08397e-12
1.00691e-12
7.54575e-13
5.9215e-13
7.45998e-14
1.66093e-13
2.20417e-13
1.95952e-13
1.36897e-13
1.31911e-13
1.91544e-13
2.55777e-13
2.44637e-13
2.08778e-13
1.73916e-13
1.45906e-13
1.29889e-13
1.40694e-13
1.63456e-13
1.99515e-13
2.27645e-13
2.50651e-13
2.57356e-13
2.55159e-13
2.31702e-13
1.55546e-13
1.25687e-13
3.57787e-15
1.18926e-14
1.43766e-14
1.24316e-14
8.77656e-15
9.33376e-15
1.61015e-14
2.39006e-14
2.55464e-14
2.28443e-14
2.0299e-14
1.90291e-14
2.08957e-14
2.39558e-14
3.02275e-14
3.71636e-14
4.63061e-14
5.07121e-14
5.15604e-14
5.0703e-14
4.37954e-14
3.20082e-14
2.16257e-14
1.7426e-16
8.13013e-16
8.30771e-16
6.84187e-16
5.21092e-16
6.40546e-16
1.28322e-15
2.04414e-15
2.31969e-15
2.4024e-15
2.4187e-15
2.57759e-15
2.99396e-15
3.85849e-15
5.08363e-15
6.64809e-15
7.7291e-15
8.45396e-15
9.11052e-15
8.71308e-15
7.24382e-15
4.91545e-15
3.2057e-15
6.94203e-18
2.68475e-17
2.42394e-17
1.93495e-17
1.92839e-17
3.14576e-17
7.61291e-17
1.34362e-16
1.84994e-16
2.20073e-16
2.37214e-16
2.94688e-16
3.96978e-16
5.591e-16
7.77302e-16
1.04014e-15
1.28297e-15
1.44283e-15
1.44912e-15
1.29868e-15
9.98706e-16
6.65868e-16
4.56931e-16
1.60898e-19
4.39826e-19
4.09018e-19
3.40574e-19
4.51653e-19
1.09348e-18
3.1899e-18
6.68625e-18
1.31733e-17
1.89623e-17
2.38917e-17
3.33501e-17
4.93638e-17
7.47229e-17
1.10274e-16
1.4988e-16
1.80953e-16
1.9717e-16
1.89409e-16
1.58949e-16
1.18234e-16
8.37771e-17
8.66434e-17
2.19336e-21
5.0219e-21
5.20967e-21
4.89366e-21
8.98297e-21
3.61357e-20
1.3027e-19
3.30642e-19
8.46941e-19
1.49023e-18
2.17917e-18
3.45319e-18
5.65389e-18
9.18163e-18
1.37979e-17
1.90914e-17
2.30508e-17
2.37067e-17
2.17518e-17
1.74828e-17
1.30677e-17
1.33324e-17
2.91847e-17
1.58192e-23
3.54526e-23
3.91708e-23
5.02668e-23
1.85942e-22
1.12444e-21
5.02381e-21
1.54126e-20
5.03316e-20
1.0685e-19
1.81784e-19
3.27627e-19
5.91488e-19
1.02014e-18
1.58509e-18
2.17533e-18
2.55991e-18
2.57297e-18
2.29741e-18
1.99586e-18
2.07397e-18
3.85471e-18
1.4278e-17
5.3552e-26
9.75376e-26
1.25341e-25
3.96457e-25
3.72243e-24
3.09416e-23
1.75342e-22
6.68973e-22
2.81679e-21
7.0872e-21
1.40097e-20
2.90591e-20
5.69915e-20
1.03012e-19
1.63742e-19
2.24862e-19
2.67182e-19
2.77763e-19
2.74047e-19
3.15766e-19
5.25428e-19
1.51791e-18
8.51085e-18
6.43039e-29
4.94818e-29
1.95725e-28
4.48431e-27
8.19221e-26
8.68476e-25
6.23265e-24
3.02495e-23
1.61977e-22
4.61213e-22
1.06663e-21
2.51367e-21
5.46444e-21
1.05466e-20
1.73351e-20
2.46545e-20
3.09206e-20
3.59896e-20
4.49838e-20
7.75596e-20
1.96869e-19
9.3515e-19
5.8959e-18
7.6404e-32
7.33559e-31
7.5034e-30
1.33235e-28
2.60805e-27
3.0503e-26
2.55252e-25
1.52404e-24
9.90795e-24
3.14265e-23
8.59092e-23
2.31198e-22
5.56996e-22
1.15523e-21
2.01287e-21
3.09714e-21
4.39231e-21
6.15824e-21
1.0087e-20
2.42808e-20
1.02405e-19
5.54172e-19
3.77984e-18
9.77917e-33
9.72892e-32
1.05155e-30
1.19621e-29
1.59167e-28
1.72478e-27
1.48041e-26
1.04207e-25
6.97465e-25
2.52402e-24
8.03582e-24
2.40057e-23
6.28693e-23
1.39618e-22
2.72275e-22
4.54489e-22
7.18311e-22
1.17192e-21
2.3205e-21
7.91799e-21
4.02344e-20
2.32873e-19
1.72565e-18
0.0062181
0.026889
0.0278884
0.0271136
0.0716319
0.200602
0.390708
0.344794
0.767211
0.950552
0.999769
0.882151
0.99498
0.998866
0.999185
0.950931
1
1
1
1
0.895651
0.912523
0.942441
0.980761
0.237971
0.274516
0.339786
0.438602
-1.71372e-07
6.09889e-07
8.86878e-07
5.85453e-07
1.84702e-07
9.99462e-08
3.19867e-07
4.04849e-07
7.3585e-08
6.24557e-08
4.80858e-08
9.64788e-08
1.49596e-07
1.07854e-07
7.81282e-08
7.19796e-08
1.4387e-07
1.28897e-07
1.05362e-07
9.65123e-08
7.1431e-08
6.63288e-08
7.23854e-08
7.34667e-08
2.03234e-08
1.69204e-08
2.99564e-08
3.74597e-08
3.92889e-09
3.60823e-09
1.23663e-08
1.89395e-08
1.28057e-09
1.85248e-09
5.46124e-09
9.40916e-09
1.12322e-09
1.14547e-09
2.05791e-09
3.69231e-09
1.32524e-09
1.13508e-09
1.24058e-09
1.73396e-09
1.50019e-09
1.20404e-09
1.17857e-09
1.23103e-09
1.58938e-09
1.26464e-09
1.11587e-09
1.07374e-09
1.4879e-09
1.18657e-09
1.0895e-09
9.76092e-10
1.35474e-09
1.1173e-09
9.78e-10
8.8668e-10
9.84178e-10
8.74926e-10
8.10521e-10
7.32246e-10
6.11045e-10
5.64831e-10
5.20342e-10
4.91247e-10
2.94509e-10
2.80016e-10
2.72041e-10
2.58315e-10
1.30953e-10
1.24044e-10
1.18252e-10
1.12818e-10
5.29829e-11
4.82149e-11
4.6058e-11
4.26813e-11
1.92981e-11
1.70875e-11
1.58129e-11
1.42146e-11
6.59758e-12
5.42404e-12
4.93316e-12
4.12324e-12
1.90874e-12
1.56435e-12
1.33169e-12
1.028e-12
4.70962e-13
3.6412e-13
3.01394e-13
2.27226e-13
1.01577e-13
7.35228e-14
5.77682e-14
4.31815e-14
1.72132e-14
1.24617e-14
9.37937e-15
7.1136e-15
2.53855e-15
1.92119e-15
1.60412e-15
1.53696e-15
4.03343e-16
3.84938e-16
4.40949e-16
5.96253e-16
1.01994e-16
1.27269e-16
1.96894e-16
3.43268e-16
4.28248e-17
6.60972e-17
1.21536e-16
2.7289e-16
2.3043e-17
4.17941e-17
1.00147e-16
2.89063e-16
1.51466e-17
3.44795e-17
1.07141e-16
3.43235e-16
1.1935e-17
3.55903e-17
1.2349e-16
3.89335e-16
8.95556e-18
3.32591e-17
1.19563e-16
3.69489e-16
6.49329e-18
2.23863e-17
7.25905e-17
1.99169e-16
0.0802719
0.287804
0.0495242
0.00568781
0.100551
0.654078
0.664918
0.149493
-2.7801e-09
2.33086e-06
5.11522e-09
6.63841e-09
4.04349e-05
5.10466e-05
1.33691e-05
1.00807e-05
0.156441
0.589948
0.755139
0.622477
0.830516
0.266377
0.00555423
0.180115
0.804977
0.856977
0.261562
-1.25756e-20
3.97572e-07
4.71829e-07
5.11431e-09
5.076e-08
7.22366e-05
-9.286e-07
0.116347
0.710632
0.994524
0.957098
0.832452
0.967106
0.765664
0.486587
0.701947
0.990111
0.94248
0.601262
0.029104
4.14356e-07
6.83581e-05
0.0229678
0.109815
0.434667
0.745047
0.909691
0.999367
0.999591
0.986046
0.984032
0.999995
0.994108
0.951257
0.981282
0.999931
0.999222
0.902181
0.527977
0.281988
0.356319
0.741485
0.962458
0.998756
0.999906
0.999488
0.999303
0.999681
0.992329
1
1
1
0.999997
0.999958
0.999933
0.999945
0.99285
0.901836
0.860972
0.96874
0.999887
0.999966
0.99995
0.999905
0.999794
0.999516
0.999574
0.996168
1
1
1
1
0.999989
0.999974
0.999975
0.999354
0.998899
0.999986
0.999962
0.999832
0.999974
0.999943
0.999948
1
0.999996
0.997406
0.974582
0.673322
0.944629
1
0.999999
0.999998
0.999996
0.999992
0.99999
0.999996
0.999999
0.999998
0.999993
0.999985
0.999988
0.999991
1
1
0.992905
0.969499
0.0326085
0.196628
0.570817
0.911582
0.999999
0.999998
0.999996
0.999995
0.999998
0.999999
0.999998
0.999997
0.999999
0.999999
0.999999
0.999999
1
0.989433
0.969503
7.1567e-07
1.11559e-07
0.00537599
0.0925767
0.316043
0.683534
0.951273
0.999846
0.999999
0.999999
0.999999
0.999999
0.999999
0.999999
0.999999
0.999999
0.999996
0.994089
0.978511
5.35594e-08
3.75075e-07
1.05174e-06
5.43494e-07
9.24418e-07
0.0095889
0.0860382
0.386739
0.828834
0.966001
0.994657
0.999999
0.999999
0.999998
0.999996
0.999986
0.999889
0.997525
0.988849
5.46329e-08
6.78746e-08
1.35858e-07
4.08156e-07
9.95233e-07
7.85795e-07
8.42333e-08
3.57011e-07
6.35913e-07
0.153701
0.573936
0.830935
0.927363
0.991473
0.999996
0.999787
0.996487
0.920641
0.781806
8.28367e-08
6.60922e-08
7.42303e-08
1.77596e-07
3.12637e-07
2.2699e-07
1.56207e-07
4.17185e-07
6.71385e-07
2.53119e-07
6.76888e-07
5.28311e-07
0.203759
0.446083
0.560065
0.587866
0.470642
0.165936
0.0190139
7.04291e-08
6.99638e-08
1.04659e-07
2.90905e-07
4.08907e-07
3.42562e-07
9.79064e-08
1.01045e-07
1.25342e-07
2.3824e-07
7.6204e-07
3.05659e-07
3.61155e-07
3.709e-07
1.46786e-16
-3.05411e-06
-1.85076e-07
2.58812e-18
1.30887e-07
4.35971e-08
6.36565e-08
1.35593e-07
3.35834e-07
4.21562e-07
3.2044e-07
1.07366e-05
0.00029723
0.000866856
0.000410906
2.56907e-06
2.25273e-07
4.61045e-05
0.000378645
0.000115362
6.45267e-05
3.83282e-05
7.46343e-06
2.73128e-06
2.7463e-08
5.31636e-08
1.30373e-07
3.04386e-07
3.92666e-07
3.08103e-07
3.20789e-07
0.000940438
0.0010084
0.00100915
0.000180718
1.7553e-07
0.000574076
0.00204239
0.00181813
0.000982095
0.000257217
1.0301e-05
4.1777e-06
1.49692e-08
3.14734e-08
8.28067e-08
1.84929e-07
3.04356e-07
2.21037e-07
3.98008e-06
0.000280818
0.00078011
0.000574191
4.83661e-05
2.24941e-07
0.000616055
0.00201237
0.00187764
0.000908922
0.000147354
1.86708e-06
1.35469e-06
6.80717e-09
1.40465e-08
3.40927e-08
8.98082e-08
1.33772e-07
1.57637e-07
1.13222e-05
1.0844e-07
2.04412e-05
2.75385e-06
4.85426e-07
3.57155e-07
8.89167e-05
7.26737e-05
1.05287e-07
7.37961e-08
2.46071e-07
1.16191e-06
7.50727e-07
3.42282e-09
6.96564e-09
1.54917e-08
3.11744e-08
7.37952e-08
2.12412e-07
2.2881e-07
9.79432e-08
4.26769e-08
6.42399e-08
4.6326e-07
1.03944e-05
5.1453e-07
1.0246e-07
6.97917e-08
8.63771e-08
8.02796e-08
2.45613e-07
2.50345e-07
1.85778e-09
3.85707e-09
8.7631e-09
1.5965e-08
3.64537e-08
6.90501e-08
6.52381e-08
9.80271e-08
7.9303e-08
4.86794e-08
2.50917e-07
4.4854e-06
2.21404e-06
1.7296e-07
8.4656e-08
8.06567e-08
2.16688e-07
4.56715e-07
9.68306e-07
1.1488e-09
1.75357e-09
4.37122e-09
8.18408e-09
1.63821e-08
3.15234e-08
4.7452e-08
6.91734e-08
7.9685e-08
1.06498e-07
2.85401e-07
1.97694e-07
5.07699e-08
4.91505e-08
8.32155e-08
1.30254e-07
2.36146e-07
8.74502e-07
9.65781e-07
9.03922e-10
8.8053e-10
1.661e-09
3.22068e-09
6.67686e-09
1.26582e-08
2.39138e-08
3.62882e-08
4.50726e-08
6.09977e-08
5.03714e-08
2.93786e-08
2.9839e-08
4.78975e-08
7.14968e-08
1.24923e-07
2.3105e-07
3.17919e-07
8.80636e-07
7.8284e-10
6.07762e-10
6.53226e-10
1.16505e-09
2.64208e-09
4.99582e-09
8.93931e-09
1.45583e-08
1.87268e-08
2.16029e-08
1.71472e-08
1.70016e-08
2.22932e-08
3.13723e-08
5.12561e-08
7.02766e-08
9.18911e-08
1.23539e-07
9.05549e-08
6.46414e-10
4.82213e-10
3.93631e-10
4.7413e-10
8.71066e-10
1.6925e-09
2.83012e-09
4.58006e-09
6.18591e-09
7.01852e-09
7.44763e-09
8.87328e-09
1.16858e-08
1.69725e-08
2.35638e-08
3.73297e-08
4.30015e-08
2.07901e-08
2.91905e-08
4.49062e-10
3.53163e-10
2.77257e-10
2.51848e-10
3.14804e-10
5.48646e-10
9.33697e-10
1.48384e-09
2.07609e-09
2.72139e-09
3.40768e-09
4.4198e-09
6.0331e-09
8.07228e-09
1.20464e-08
1.53285e-08
1.43621e-08
1.31394e-08
1.29372e-08
2.43526e-10
2.03595e-10
1.64947e-10
1.49704e-10
1.65659e-10
2.34334e-10
3.79695e-10
6.27429e-10
9.46851e-10
1.35115e-09
1.90848e-09
2.67204e-09
3.77458e-09
5.4049e-09
7.78364e-09
1.13008e-08
1.42948e-08
1.30928e-08
1.33636e-08
1.07621e-10
9.2611e-11
7.92664e-11
7.81894e-11
8.94642e-11
1.23292e-10
1.98938e-10
3.32493e-10
5.41456e-10
8.48341e-10
1.29556e-09
1.96582e-09
2.94394e-09
4.633e-09
7.3673e-09
1.1754e-08
1.73391e-08
2.08914e-08
1.58628e-08
4.01819e-11
3.43044e-11
3.07898e-11
3.35233e-11
4.42008e-11
6.97378e-11
1.20561e-10
2.11836e-10
3.70378e-10
6.18629e-10
1.00504e-09
1.59613e-09
2.58404e-09
4.22277e-09
7.21103e-09
1.36956e-08
2.81723e-08
3.06458e-08
3.29444e-08
1.30671e-11
1.0591e-11
1.01446e-11
1.31038e-11
2.16912e-11
4.0915e-11
7.91437e-11
1.50854e-10
2.76502e-10
4.93836e-10
8.42595e-10
1.39028e-09
2.30574e-09
3.94219e-09
7.29649e-09
1.65133e-08
3.55469e-08
8.5642e-08
4.2138e-08
3.61587e-12
2.93372e-12
3.22487e-12
5.40597e-12
1.22567e-11
2.64834e-11
5.6244e-11
1.14507e-10
2.22413e-10
4.20365e-10
7.47571e-10
1.28799e-09
2.12826e-09
3.5933e-09
7.21883e-09
1.76533e-08
4.91221e-08
1.08457e-07
5.25685e-08
8.49196e-13
7.89719e-13
1.31751e-12
3.03512e-12
7.53896e-12
1.91951e-11
4.27435e-11
9.16937e-11
1.91301e-10
3.76623e-10
7.06038e-10
1.25217e-09
2.08497e-09
3.47543e-09
7.25986e-09
2.14002e-08
5.72439e-08
1.09811e-07
5.45338e-08
1.78219e-13
2.47754e-13
7.35153e-13
2.0888e-12
5.49884e-12
1.4488e-11
3.47961e-11
7.87085e-11
1.69557e-10
3.50266e-10
6.94949e-10
1.27995e-09
2.15732e-09
3.48817e-09
7.01105e-09
2.35173e-08
7.32618e-08
1.09451e-07
5.36741e-08
3.80633e-14
1.10594e-13
4.73781e-13
1.53674e-12
4.49839e-12
1.17107e-11
2.88469e-11
6.94204e-11
1.5641e-10
3.40457e-10
7.0252e-10
1.34827e-09
2.34159e-09
3.69196e-09
7.77858e-09
2.65095e-08
8.83121e-08
1.09869e-07
4.93109e-08
1.22281e-14
6.78416e-14
3.34156e-13
1.17536e-12
3.61103e-12
9.8009e-12
2.53248e-11
6.30642e-11
1.49259e-10
3.37592e-10
7.27542e-10
1.43878e-09
2.54941e-09
4.3537e-09
8.10737e-09
2.65701e-08
8.8414e-08
1.06446e-07
3.93505e-08
8.4291e-15
5.58501e-14
2.70827e-13
9.5683e-13
2.95001e-12
8.47349e-12
2.27234e-11
5.89125e-11
1.45427e-10
3.4358e-10
7.61913e-10
1.53168e-09
2.80811e-09
4.79997e-09
9.43201e-09
2.50529e-08
7.05755e-08
7.3383e-08
2.55574e-08
7.6489e-15
5.17214e-14
2.3464e-13
8.26498e-13
2.59981e-12
7.73084e-12
2.14981e-11
5.71494e-11
1.44737e-10
3.49147e-10
7.83637e-10
1.57634e-09
2.97274e-09
5.07462e-09
8.98323e-09
2.11858e-08
3.33482e-08
3.19622e-08
1.38434e-08
6.91614e-15
4.43206e-14
1.94602e-13
7.07182e-13
2.33475e-12
7.08576e-12
2.01958e-11
5.4599e-11
1.40151e-10
3.42263e-10
7.7048e-10
1.55216e-09
2.92983e-09
4.98278e-09
8.02212e-09
1.54776e-08
1.72721e-08
1.2171e-08
7.26474e-09
6.3105e-15
3.80414e-14
1.63057e-13
6.13008e-13
2.04795e-12
6.31728e-12
1.81238e-11
4.93405e-11
1.27246e-10
3.12199e-10
7.03132e-10
1.4178e-09
2.67406e-09
4.35331e-09
6.33156e-09
1.02875e-08
7.12204e-09
5.43742e-09
3.21188e-09
5.81165e-15
3.18066e-14
1.3637e-13
5.0474e-13
1.6886e-12
5.23041e-12
1.50784e-11
4.07333e-11
1.05178e-10
2.58065e-10
5.81204e-10
1.16572e-09
2.16449e-09
3.43469e-09
4.56885e-09
6.07357e-09
3.88953e-09
2.04798e-09
1.68711e-09
4.8908e-15
2.47046e-14
1.01833e-13
3.64304e-13
1.22226e-12
3.78782e-12
1.09216e-11
2.94608e-11
7.64865e-11
1.87326e-10
4.22745e-10
8.47254e-10
1.54719e-09
2.41729e-09
2.95398e-09
3.33362e-09
1.86105e-09
9.33662e-10
6.41237e-10
3.72127e-15
1.62732e-14
6.22613e-14
2.1477e-13
6.90865e-13
2.12503e-12
6.25373e-12
1.73882e-11
4.53675e-11
1.13877e-10
2.61305e-10
5.29647e-10
9.45462e-10
1.48475e-09
1.82586e-09
1.82426e-09
9.39137e-10
3.56642e-10
3.37301e-10
2.07014e-15
7.94393e-15
2.81038e-14
9.30088e-14
3.00847e-13
9.43164e-13
2.841e-12
8.21595e-12
2.22592e-11
5.72525e-11
1.35142e-10
2.82212e-10
5.08562e-10
8.13746e-10
1.00482e-09
9.37118e-10
4.0983e-10
1.87166e-10
1.77882e-10
6.24006e-16
2.07963e-15
6.8038e-15
2.12551e-14
7.55036e-14
2.68494e-13
8.93281e-13
2.79888e-12
8.28359e-12
2.27487e-11
5.66305e-11
1.24834e-10
2.33797e-10
3.88964e-10
5.01003e-10
4.49097e-10
2.07135e-10
9.91493e-11
8.48772e-11
)
;

boundaryField
{
    leftWall
    {
        type            alphaContactAngle;
        contactAngleProperties 
        {
            mercury         
            {
                theta0          90;
            }
            air             
            {
                theta0          90;
            }
            water           
            {
                theta0          90;
            }
        }
        value           nonuniform List<scalar> 
50
(
4.27929e-15
1.83763e-15
9.82616e-16
1.01923e-15
2.19372e-14
1.19007e-11
5.36477e-10
4.03858e-09
7.45353e-09
6.49461e-09
1.85477e-09
1.76413e-09
0.231162
0.703472
0.837248
0.600948
0.0677109
9.64989e-07
7.63931e-07
8.84273e-07
8.53949e-07
8.6449e-07
2.98928e-07
6.62288e-08
4.22271e-08
3.62302e-08
3.21596e-08
2.31033e-08
1.5929e-08
1.02751e-08
5.79025e-09
3.04119e-09
1.58795e-09
7.27868e-10
2.78919e-10
9.15829e-11
2.30519e-11
5.1664e-12
6.74409e-13
7.45998e-14
3.57787e-15
1.7426e-16
6.94203e-18
1.60898e-19
2.19336e-21
1.58192e-23
5.3552e-26
6.43039e-29
7.6404e-32
9.77917e-33
)
;
    }
    rightWall
    {
        type            alphaContactAngle;
        contactAngleProperties 
        {
            mercury         
            {
                theta0          90;
            }
            air             
            {
                theta0          90;
            }
            water           
            {
                theta0          90;
            }
        }
        value           nonuniform List<scalar> 
50
(
0.25892
0.431857
0.514862
0.513635
0.514862
0.465363
0.175055
0.27222
0.755139
0.957098
0.986046
0.992329
0.996168
0.974582
0.969499
0.969503
0.978511
0.988849
0.781806
0.0190139
1.30887e-07
2.73128e-06
4.1777e-06
1.35469e-06
7.50727e-07
2.50345e-07
9.68306e-07
9.65781e-07
8.80636e-07
9.05549e-08
2.91905e-08
1.29372e-08
1.33636e-08
1.58628e-08
3.29444e-08
4.2138e-08
5.25685e-08
5.45338e-08
5.36741e-08
4.93109e-08
3.93505e-08
2.55574e-08
1.38434e-08
7.26474e-09
3.21188e-09
1.68711e-09
6.41237e-10
3.37301e-10
1.77882e-10
8.48772e-11
)
;
    }
    lowerWall
    {
        type            alphaContactAngle;
        contactAngleProperties 
        {
            mercury         
            {
                theta0          90;
            }
            air             
            {
                theta0          90;
            }
            water           
            {
                theta0          90;
            }
        }
        value           nonuniform List<scalar> 
62
(
4.27929e-15
2.57826e-14
9.7636e-14
2.93291e-13
7.09422e-13
1.60351e-12
3.45165e-12
7.05105e-12
1.45829e-11
3.3489e-11
6.69783e-11
1.298e-10
2.27407e-10
4.32743e-10
8.67416e-10
2.4571e-09
6.76152e-09
1.45417e-08
2.3463e-08
8.19789e-05
0.000477154
0.000567377
0.000567299
0.000567299
0.000171777
2.03299e-08
2.15193e-08
2.91391e-08
1.95481e-07
5.86118e-05
9.13628e-05
0.0062181
0.026889
0.0278884
0.0271136
0.115735
0.340761
0.645282
0.080858
0.00789599
0.0221902
0.0482597
0.0482801
0.115735
0.116241
0.0738052
0.0288616
0.0281892
0.0676831
0.329439
0.353003
0.371859
0.371987
0.345979
0.133598
0.0558766
0.121374
0.178918
0.25178
0.25857
0.25883
0.25892
)
;
    }
    atmosphere
    {
        type            inletOutlet;
        inletValue      uniform 0;
        value           nonuniform List<scalar> 
46
(
0
0
0
1.19621e-29
1.59167e-28
1.72478e-27
1.48041e-26
1.04207e-25
6.97465e-25
2.52402e-24
8.03582e-24
2.40057e-23
6.28693e-23
1.39618e-22
2.72275e-22
4.54489e-22
7.18312e-22
1.17192e-21
0
0
0
0
0
0
0
0
0
0
0
0
0
0
0
0
0
0
0
0
0
0
0
0
0
0
0
8.48772e-11
)
;
    }
    defaultFaces
    {
        type            empty;
    }
}


// ************************************************************************* //
