/*--------------------------------*- C++ -*----------------------------------*\
  =========                 |
  \\      /  F ield         | OpenFOAM: The Open Source CFD Toolbox
   \\    /   O peration     | Website:  https://openfoam.org
    \\  /    A nd           | Version:  13
     \\/     M anipulation  |
\*---------------------------------------------------------------------------*/
FoamFile
{
    format      ascii;
    class       volScalarField;
    location    "1.8";
    object      alpha.water;
}
// * * * * * * * * * * * * * * * * * * * * * * * * * * * * * * * * * * * * * //

dimensions      [];

internalField   nonuniform List<scalar> 
2268
(
4.0974e-11
7.79358e-11
1.04859e-10
1.05231e-10
1.06096e-10
1.10609e-10
1.16888e-10
1.23286e-10
1.2925e-10
1.35153e-10
1.39389e-10
1.45011e-10
1.5407e-10
1.76302e-10
2.14665e-10
2.93403e-10
4.04991e-10
5.578e-10
9.23428e-10
1.87404e-09
2.57861e-09
2.77909e-09
2.77806e-09
1.09036e-10
3.43784e-10
3.11683e-10
2.83587e-10
2.72614e-10
2.87535e-10
3.19267e-10
3.59257e-10
4.01086e-10
4.38431e-10
4.63643e-10
4.72758e-10
4.4987e-10
4.35083e-10
4.5442e-10
5.11451e-10
6.17825e-10
8.05425e-10
1.13226e-09
1.79463e-09
2.66881e-09
2.76884e-09
2.50536e-09
3.28269e-10
7.35469e-10
4.54158e-10
3.49556e-10
3.2022e-10
3.39234e-10
3.9408e-10
4.81632e-10
5.96615e-10
7.34067e-10
8.68608e-10
9.76444e-10
1.04824e-09
1.0527e-09
9.09554e-10
8.10887e-10
7.98597e-10
9.21453e-10
1.24782e-09
1.75023e-09
2.20922e-09
2.21944e-09
1.007e-09
3.52579e-10
4.14991e-10
3.48225e-10
3.05883e-10
2.97114e-10
3.04306e-10
3.28825e-10
3.6887e-10
4.46632e-10
5.8349e-10
7.96902e-10
1.0576e-09
1.28153e-09
1.36935e-09
1.33634e-09
1.02988e-09
8.2674e-10
8.18717e-10
8.9174e-10
9.94787e-10
1.02046e-09
6.23323e-10
4.52958e-10
3.87787e-09
3.14146e-10
2.89142e-10
2.84955e-10
2.92309e-10
2.86584e-10
2.48675e-10
2.79569e-10
2.93196e-10
3.0449e-10
2.7855e-10
2.84286e-10
2.87288e-10
3.01708e-10
3.28588e-10
2.80087e-10
2.34706e-10
1.90955e-10
1.56143e-10
1.11896e-10
6.45392e-11
7.93156e-11
2.01687e-08
0.359117
0.378937
0.358815
0.30471
0.232457
0.153279
0.0797601
0.020143
2.66448e-10
2.78351e-10
2.08381e-09
9.01027e-11
3.55822e-19
1.52835e-18
-3.04519e-19
7.67573e-19
-2.9943e-19
-1.80129e-19
-2.95565e-19
-3.4284e-19
8.55051e-10
0.00428325
0.023223
0.98239
0.986221
0.982292
0.968155
0.939367
0.888722
0.812652
0.715
0.590762
0.463132
0.357816
0.271247
0.202191
0.172082
0.178809
0.19949
0.213566
0.232157
0.266013
0.31831
0.405538
0.563159
0.685379
1
1
1
1
1
1
1
1
1
0.995968
0.982226
0.964239
0.953586
0.949192
0.935137
0.91171
0.90973
0.927368
0.948613
0.971859
0.999176
0.998464
0.997196
0.013086
0.00683037
0.0407607
0.0653522
0.0482754
0.0341014
0.00946311
0.00143834
0.00145335
0.00094458
0.000921017
0.0852833
0.122299
0.123416
0.0910144
0.0188788
0.0188788
0.0188788
0.0188788
0.00827574
0.0064482
0.00921683
0.115326
0.150473
0.120705
0.0645464
0.0194473
0.00251933
0.000974974
0.00423935
0.0332575
0.0632962
0.107742
0.0838134
0.0388879
0.0199284
0.0188806
0.0188788
0.240796
0.22507
0.077891
0.0826056
0.351487
0.44107
0.334354
0.204183
0.0598073
0.00856283
0.00107378
0.00106694
0.00461767
0.00620283
0.00503798
0.015579
0.0463707
0.0687235
0.0232011
0.761855
0.777299
0.433312
0.175294
0.182303
0.695873
0.847958
0.821322
0.459072
0.0476255
0.0020191
0.00107318
0.00106779
0.0010724
0.0907059
0.212693
0.357986
0.366738
0.194175
0.749602
0.7657
0.829608
0.396531
0.208901
0.52579
0.963048
0.990288
0.860938
0.326409
0.0215244
0.00106761
0.00107257
0.0996752
0.564524
0.710843
0.792206
0.736614
0.385277
0.805187
0.762681
0.811
0.676557
0.235325
0.283989
0.732292
0.989687
0.988556
0.613704
0.16679
0.0881379
0.0883633
0.373845
0.813472
0.926863
0.925692
0.915819
0.523807
0.883481
0.832252
0.804347
0.878529
0.338596
0.183565
0.380606
0.915502
0.999034
0.92049
0.646813
0.445312
0.439278
0.705747
0.977545
0.976638
0.939631
0.92574
0.724056
0.879954
0.879834
0.858685
0.881018
0.457238
0.0794981
0.178374
0.838831
0.998815
0.999905
0.985992
0.951223
0.925491
0.978709
0.999739
0.999887
0.88533
0.867645
0.608128
1
1
1
1
1
1
1
1
1
1
1
1
1
1
1
1
0.999999
0.99999
0.99993
0.999677
0.99905
0.998738
0.997813
1
1
1
1
1
1
1
1
1
1
1
1
1
1
1
1
1
1
1
0.999049
0.993908
0.971417
0.938017
1
1
1
1
1
1
1
1
1
1
1
1
1
1
1
0.998803
0.99385
0.979336
0.940819
0.863817
0.734485
0.547984
0.311231
0.882789
0.969089
0.984553
0.995535
0.996707
0.999998
0.999984
0.991468
0.988979
0.987362
0.983052
0.970554
0.946072
0.909871
0.862433
0.792081
0.69426
0.535586
0.376528
0.207771
0.0530723
1.40278e-19
3.22517e-23
0.560907
0.309497
0.289565
0.319925
0.406439
0.533107
0.600446
0.59168
0.556667
0.514852
0.467273
0.402007
0.320291
0.227174
0.135768
0.0619244
0.00245465
1.87161e-19
1.39527e-23
7.68291e-24
1.18832e-23
9.255e-18
5.58925e-09
0.0891532
0.00267189
0.00610924
0.00714613
0.000679037
0.00821391
0.021404
0.0181925
0.0105739
0.00491692
5.78241e-20
-6.21158e-22
6.09318e-23
-1.61663e-26
3.41057e-19
1.45671e-23
1.2076e-26
3.86781e-09
1.76472e-08
2.78924e-08
1.53962e-08
8.68045e-10
2.47307e-09
0.0237514
0.0029472
-4.23417e-13
5.5437e-13
2.82663e-16
1.02855e-20
-4.62079e-19
-4.53401e-21
6.11207e-25
-6.74247e-25
3.13998e-25
1.09919e-20
1.90633e-09
1.06847e-08
3.96282e-09
8.83036e-11
2.22483e-10
3.11927e-08
8.3793e-08
8.41818e-08
5.33957e-08
1.89101e-09
3.28123e-10
0.00138438
0.00085447
9.30693e-06
1.31408e-10
7.74088e-15
3.74943e-08
3.45232e-07
4.51995e-07
4.53341e-07
4.12892e-07
1.36238e-07
1.96828e-07
4.46574e-07
3.20772e-07
8.35736e-08
1.57299e-08
1.704e-08
3.13483e-08
4.67749e-08
4.66001e-08
2.99397e-08
8.132e-09
1.37213e-09
-1.89724e-22
5.99204e-06
1.63746e-05
1.622e-05
2.79314e-06
4.85732e-08
1.19828e-07
1.80644e-07
1.51188e-07
1.29665e-07
2.77157e-07
7.53266e-07
9.24555e-07
5.09666e-07
2.5754e-07
6.9796e-08
3.81429e-08
3.22566e-08
1.85926e-08
9.43163e-09
6.42341e-09
4.62742e-09
1.80753e-09
-4.67732e-08
2.27914e-10
5.46317e-06
1.63745e-05
1.00455e-05
6.4369e-07
1.22397e-07
6.83857e-09
1.10539e-10
1.10555e-10
3.23569e-07
1.57265e-06
2.08057e-06
6.61629e-07
2.51303e-07
3.15134e-07
5.30793e-07
4.22619e-07
1.99555e-07
4.45487e-08
1.66311e-08
7.08615e-09
2.72164e-09
-5.99419e-08
4.25023e-08
4.41206e-08
1.09643e-05
8.17352e-06
7.60717e-07
4.02052e-08
1.10556e-10
1.09943e-10
1.10486e-10
1.96198e-06
3.05763e-06
3.07095e-06
2.35222e-06
1.02868e-06
1.77643e-06
1.9436e-06
9.97144e-07
3.35233e-07
9.33701e-08
2.48558e-08
8.25102e-09
3.11941e-09
-3.34603e-08
-4.92547e-10
6.45403e-07
2.04566e-06
2.18373e-06
1.56711e-07
7.02272e-10
6.92714e-10
1.10556e-10
1.83707e-08
1.91622e-06
2.75183e-06
3.06933e-06
3.07316e-06
2.74085e-06
3.02836e-06
2.96879e-06
9.09182e-07
1.59499e-07
4.09387e-08
3.75456e-08
2.48995e-08
9.5194e-09
1.93465e-09
5.38211e-09
5.17067e-09
1.46673e-08
1.95285e-07
2.05853e-08
7.17451e-10
7.19303e-10
1.30946e-10
1.30023e-10
4.00924e-08
6.70924e-07
2.86189e-06
3.05806e-06
3.04091e-06
2.9494e-06
1.19683e-06
2.85659e-07
5.15838e-08
3.07269e-08
3.7786e-08
3.33165e-08
1.38575e-08
3.38935e-08
2.50555e-08
1.19776e-08
1.32355e-08
1.67093e-08
4.51836e-09
7.72976e-10
4.76897e-10
2.82066e-10
6.62005e-10
2.55278e-10
1.01182e-08
3.09145e-07
1.98162e-06
1.81083e-06
2.66267e-07
7.64738e-09
6.16036e-08
3.38736e-08
2.61259e-08
2.78131e-08
2.21951e-08
1.13168e-08
3.38939e-08
1.44075e-08
1.36147e-08
1.23579e-08
9.49293e-09
2.65896e-09
1.16729e-09
4.41913e-10
3.01878e-10
1.77855e-10
2.70522e-10
2.98018e-10
1.15624e-13
1.49867e-11
3.7657e-14
1.72854e-11
8.25745e-09
2.12551e-08
2.14067e-08
1.89529e-08
1.8276e-08
1.38347e-08
8.95218e-09
1.90963e-08
8.60875e-09
7.55737e-09
7.06777e-09
4.75952e-09
3.04345e-09
1.71707e-09
8.85207e-10
4.83292e-10
5.12598e-10
1.41276e-09
4.01728e-09
4.43515e-09
2.46025e-09
8.65614e-10
4.82737e-09
1.33825e-08
1.41281e-08
1.18896e-08
1.0415e-08
1.07127e-08
8.76633e-09
7.27011e-09
1.96621e-08
7.61024e-09
3.70594e-09
4.08795e-09
3.32187e-09
2.68629e-09
1.87492e-09
1.23368e-09
7.59926e-10
8.29609e-10
2.31882e-09
7.05757e-09
7.55733e-09
4.31319e-09
2.43229e-09
1.06032e-08
1.21228e-08
8.70014e-09
4.65007e-09
4.1487e-09
5.64725e-09
5.89624e-09
5.36228e-09
2.02006e-08
7.98934e-09
2.65263e-09
2.98724e-09
2.85685e-09
2.40965e-09
1.93074e-09
1.4058e-09
8.98097e-10
8.65028e-10
1.89631e-09
4.41996e-09
5.76976e-09
3.08519e-09
3.00547e-09
6.93185e-09
7.73237e-09
4.98081e-09
2.50481e-09
1.95503e-09
3.03443e-09
3.67803e-09
3.62381e-09
2.01815e-08
8.16134e-09
2.62918e-09
2.707e-09
2.62945e-09
2.29309e-09
1.90571e-09
1.47301e-09
1.03106e-09
5.98597e-10
4.33705e-10
3.01576e-10
2.62326e-10
7.98383e-10
2.10716e-09
3.16211e-09
3.36908e-09
2.374e-09
1.30136e-09
9.45029e-10
1.55846e-09
2.1374e-09
2.34173e-09
1.95873e-08
8.6323e-09
2.60024e-09
2.41685e-09
2.33382e-09
2.03724e-09
1.79349e-09
1.44878e-09
1.02416e-09
6.13567e-10
3.29981e-10
1.94039e-10
1.82614e-10
3.14262e-10
6.04564e-10
8.4507e-10
9.30413e-10
7.53475e-10
5.19957e-10
4.171e-10
6.67354e-10
1.20159e-09
1.45948e-09
1.75632e-08
9.34625e-09
3.36109e-09
2.23864e-09
2.07171e-09
1.78993e-09
1.54774e-09
1.30269e-09
9.96234e-10
6.65491e-10
3.94077e-10
2.17375e-10
1.31904e-10
1.06147e-10
1.21119e-10
1.7028e-10
2.23152e-10
2.15274e-10
1.79319e-10
1.58308e-10
2.30444e-10
4.76974e-10
7.31591e-10
1.54098e-08
9.14727e-09
4.13173e-09
2.22094e-09
1.81309e-09
1.46055e-09
1.21874e-09
1.03296e-09
8.53174e-10
6.35542e-10
4.01852e-10
2.18951e-10
1.2354e-10
7.91146e-11
6.50636e-11
6.88905e-11
7.75532e-11
7.85219e-11
7.2408e-11
6.50869e-11
7.10001e-11
1.52704e-10
2.834e-10
1.28919e-08
8.19058e-09
4.19792e-09
2.18571e-09
1.58381e-09
1.163e-09
9.15312e-10
7.47734e-10
6.31401e-10
5.15381e-10
3.72445e-10
2.11263e-10
1.15008e-10
6.31781e-11
4.04659e-11
3.18765e-11
3.0635e-11
3.1584e-11
3.19714e-11
3.23987e-11
3.26598e-11
3.7095e-11
6.70421e-11
1.07216e-08
6.90824e-09
3.91657e-09
1.97014e-09
1.32521e-09
8.9785e-10
6.53052e-10
5.01007e-10
4.08504e-10
3.43873e-10
2.77922e-10
1.95944e-10
9.82777e-11
5.55623e-11
3.04685e-11
1.91108e-11
1.53986e-11
1.51356e-11
1.61613e-11
1.67055e-11
1.70292e-11
1.79089e-11
2.05316e-11
8.96448e-09
5.5846e-09
3.30018e-09
1.6464e-09
1.0161e-09
6.29744e-10
4.38048e-10
3.22543e-10
2.52414e-10
2.08077e-10
1.73673e-10
1.37271e-10
8.52698e-11
4.70928e-11
2.39144e-11
1.30528e-11
8.49833e-12
7.5374e-12
7.74848e-12
8.43079e-12
8.61611e-12
8.73011e-12
9.0261e-12
7.16135e-09
4.28256e-09
2.51747e-09
1.27239e-09
7.24452e-10
4.19924e-10
2.51205e-10
1.86974e-10
1.39429e-10
1.12203e-10
9.18255e-11
7.56326e-11
5.90103e-11
3.39516e-11
1.77387e-11
8.86614e-12
4.78786e-12
3.75107e-12
3.60946e-12
3.77751e-12
3.88696e-12
4.0501e-12
4.04058e-12
4.99171e-09
2.95067e-09
1.70689e-09
8.81268e-10
4.70467e-10
2.61477e-10
1.31952e-10
9.41219e-11
6.96946e-11
5.36376e-11
4.39732e-11
3.57255e-11
2.8444e-11
2.06724e-11
1.11645e-11
5.62953e-12
2.63099e-12
1.81258e-12
1.61977e-12
1.64561e-12
1.71623e-12
1.72528e-12
1.71934e-12
2.99649e-09
1.77267e-09
1.00469e-09
5.18712e-10
2.65095e-10
1.38751e-10
6.65756e-11
3.88277e-11
2.85393e-11
2.21511e-11
1.8005e-11
1.47192e-11
1.19137e-11
9.18752e-12
5.93265e-12
2.9104e-12
1.28359e-12
8.11103e-13
6.6785e-13
6.59997e-13
6.54553e-13
6.64443e-13
6.5771e-13
1.47757e-09
8.9091e-10
4.91184e-10
2.48783e-10
1.22093e-10
6.04968e-11
2.84274e-11
1.40486e-11
9.99208e-12
7.74821e-12
6.23153e-12
5.09644e-12
4.11444e-12
3.34385e-12
2.37194e-12
1.32723e-12
5.46849e-13
3.03662e-13
2.48317e-13
2.43056e-13
2.38748e-13
2.33178e-13
2.32156e-13
6.30062e-10
3.67382e-10
1.92151e-10
9.44373e-11
4.43492e-11
2.07892e-11
9.54372e-12
4.31455e-12
2.90034e-12
2.2147e-12
1.79062e-12
1.47581e-12
1.21137e-12
9.65546e-13
7.40748e-13
4.3298e-13
2.03483e-13
9.66445e-14
8.14233e-14
8.11276e-14
7.80979e-14
7.24059e-14
7.05539e-14
1.6157e-10
1.01834e-10
5.67843e-11
2.69087e-11
1.21341e-11
5.4153e-12
2.45889e-12
1.08084e-12
6.96983e-13
5.27113e-13
4.24667e-13
3.49672e-13
2.91704e-13
2.39507e-13
1.81248e-13
1.11015e-13
5.77326e-14
2.81795e-14
2.33351e-14
2.35864e-14
2.39135e-14
2.02729e-14
1.78352e-14
3.29012e-11
2.19517e-11
1.20638e-11
5.60114e-12
2.4438e-12
1.06454e-12
4.87303e-13
2.26177e-13
1.35401e-13
1.00666e-13
8.13999e-14
6.69678e-14
5.53986e-14
4.79043e-14
3.44728e-14
2.16312e-14
1.13982e-14
6.56513e-15
5.81218e-15
5.97549e-15
5.85736e-15
4.43801e-15
3.99837e-15
2.96435e-12
2.8632e-12
1.53828e-12
7.19106e-13
3.1645e-13
1.42421e-13
6.88766e-14
3.44994e-14
1.9853e-14
1.39708e-14
1.1334e-14
9.73388e-15
8.95168e-15
7.27306e-15
5.35712e-15
3.29409e-15
1.95187e-15
1.34124e-15
1.27156e-15
1.29585e-15
1.20574e-15
9.70234e-16
7.16743e-16
3.10947e-13
3.25051e-13
1.57237e-13
7.44347e-14
3.58206e-14
1.71857e-14
8.76978e-15
4.62556e-15
2.56667e-15
1.79164e-15
1.53924e-15
1.39641e-15
1.22628e-15
9.95589e-16
7.02969e-16
4.48865e-16
2.74917e-16
2.3615e-16
2.4528e-16
2.43903e-16
2.16678e-16
1.59145e-16
1.08932e-16
2.58115e-14
1.91289e-14
1.01535e-14
5.351e-15
3.15837e-15
1.68433e-15
9.11889e-16
5.06974e-16
2.88519e-16
1.99299e-16
1.67133e-16
1.56396e-16
1.41632e-16
1.1389e-16
7.91988e-17
5.2041e-17
4.35108e-17
4.30523e-17
4.25803e-17
3.9697e-17
3.22547e-17
2.2392e-17
1.39728e-17
1.5917e-15
1.05233e-15
6.74713e-16
4.04985e-16
2.31188e-16
1.31039e-16
7.32887e-17
4.34905e-17
2.79057e-17
1.97915e-17
1.7451e-17
1.6075e-17
1.41679e-17
1.12572e-17
8.04546e-18
6.51974e-18
6.26735e-18
6.30449e-18
6.06222e-18
5.24329e-18
3.96831e-18
2.52989e-18
1.64352e-18
8.31335e-17
6.16477e-17
4.30256e-17
2.8121e-17
1.70349e-17
1.0178e-17
5.94048e-18
3.62274e-18
2.32997e-18
1.68117e-18
1.5227e-18
1.3982e-18
1.23084e-18
9.85648e-19
8.14572e-19
8.01517e-19
8.32015e-19
8.17975e-19
7.45885e-19
5.86501e-19
3.84378e-19
2.50558e-19
1.05562e-19
4.39103e-18
3.46733e-18
2.5064e-18
1.72362e-18
1.11461e-18
6.93279e-19
4.20574e-19
2.60002e-19
1.66621e-19
1.21676e-19
1.13052e-19
1.04975e-19
9.44567e-20
8.52044e-20
8.49479e-20
9.22957e-20
9.77413e-20
9.31851e-20
7.76227e-20
5.54567e-20
3.70616e-20
1.47425e-20
2.90226e-21
2.57402e-19
2.06441e-19
1.44749e-19
9.97037e-20
6.5971e-20
4.19947e-20
2.59674e-20
1.60363e-20
1.02656e-20
7.58113e-21
7.28851e-21
7.13817e-21
7.02763e-21
7.44697e-21
8.54557e-21
9.78692e-21
1.03017e-20
9.50007e-21
7.24204e-21
4.8536e-21
2.1013e-21
3.99268e-22
5.21614e-23
1.58065e-20
1.20151e-20
8.18117e-21
5.52006e-21
3.68363e-21
2.35408e-21
1.45229e-21
8.83087e-22
5.59547e-22
4.29439e-22
4.38489e-22
4.77037e-22
5.57701e-22
7.03608e-22
8.77129e-22
1.00482e-21
1.01725e-21
8.97314e-22
5.97576e-22
2.71917e-22
6.63419e-23
9.58032e-24
7.38447e-25
9.52704e-22
6.48177e-22
4.17966e-22
2.75521e-22
1.87383e-22
1.19193e-22
7.1813e-23
4.23649e-23
2.64687e-23
2.25736e-23
2.56241e-23
3.33217e-23
4.72921e-23
6.667e-23
8.41655e-23
9.25909e-23
8.84845e-23
7.0224e-23
3.81973e-23
1.23007e-23
2.28205e-24
1.36902e-25
2.33587e-27
4.26548e-23
2.52233e-23
1.78405e-23
1.165e-23
8.1196e-24
5.2724e-24
3.08075e-24
1.76183e-24
1.08856e-24
1.1048e-24
1.49926e-24
2.39473e-24
3.92208e-24
5.77177e-24
7.4482e-24
7.69961e-24
6.7319e-24
4.64742e-24
2.011e-24
5.07631e-25
5.19088e-26
1.64257e-27
3.84974e-29
0.943193
0.890804
0.883982
0.883355
0.890074
0.789511
0.607401
0.591536
0.1617
0.0400905
1.35887e-18
9.57881e-19
8.07394e-24
2.17938e-22
9.58266e-19
4.37846e-19
6.24302e-09
7.74764e-09
3.95158e-09
4.03309e-08
1.93127e-08
2.30505e-08
6.86428e-08
2.72375e-07
7.77548e-09
5.24474e-08
3.18537e-07
3.21499e-07
1.18306e-08
6.50026e-08
1.72124e-07
1.18842e-07
9.17344e-09
3.11178e-08
3.13476e-08
3.13938e-08
2.40529e-09
1.85518e-09
5.71081e-09
4.29908e-09
1.88544e-09
1.24448e-09
1.20728e-09
9.45234e-10
5.11331e-09
2.508e-09
1.61138e-09
1.20069e-09
1.05142e-08
6.69742e-09
4.62705e-09
3.03705e-09
9.71859e-09
7.62424e-09
5.32724e-09
3.17864e-09
8.23435e-09
6.43896e-09
4.05899e-09
2.29727e-09
6.30527e-09
5.60167e-09
3.59806e-09
2.02107e-09
4.62077e-09
4.00554e-09
3.70642e-09
2.77382e-09
3.41562e-09
3.19909e-09
3.15613e-09
2.87614e-09
2.31267e-09
2.3021e-09
2.31532e-09
2.29878e-09
1.51961e-09
1.53853e-09
1.56114e-09
1.57547e-09
8.5796e-10
9.15321e-10
9.54694e-10
9.7906e-10
3.78334e-10
4.2749e-10
4.71112e-10
5.06764e-10
1.06884e-10
1.37921e-10
1.66782e-10
1.93381e-10
2.67935e-11
3.40581e-11
4.26619e-11
5.27233e-11
9.43587e-12
1.04719e-11
1.18312e-11
1.33242e-11
4.01729e-12
4.1392e-12
4.31761e-12
4.48797e-12
1.59233e-12
1.56527e-12
1.59112e-12
1.59105e-12
5.82201e-13
5.52878e-13
5.46836e-13
5.25805e-13
2.01401e-13
1.78477e-13
1.72121e-13
1.53825e-13
6.01681e-14
5.27239e-14
4.78014e-14
3.94993e-14
1.54125e-14
1.28294e-14
1.12964e-14
8.9628e-15
3.45219e-15
2.67503e-15
2.22937e-15
1.69417e-15
5.99341e-16
4.53501e-16
3.47978e-16
2.54778e-16
8.66836e-17
6.26736e-17
4.5144e-17
3.36979e-17
1.06495e-17
7.91938e-18
5.53188e-18
2.01269e-18
9.06598e-19
3.97482e-19
1.42144e-19
1.72119e-20
2.23047e-20
2.25534e-21
6.08475e-22
2.96713e-23
5.59068e-23
5.67022e-24
7.18943e-25
1.28625e-26
1.88879e-28
2.70631e-27
1.26505e-27
3.56652e-27
6.99355e-29
3.40606e-28
1.24578e-27
3.92841e-27
6.98089e-29
3.39721e-28
1.18835e-27
3.60812e-27
6.94936e-29
2.19482e-28
7.02292e-28
1.89956e-27
0.818014
0.554715
0.868066
0.881113
0.715485
0.0863003
0.089505
0.779144
0.999474
0.999906
0.999859
0.999858
0.999895
0.999895
0.999895
0.999894
0.84353
0.385217
0.121917
0.205221
0.00812564
0.549472
0.808962
0.624441
0.0241412
0.00803376
0.588554
0.982401
0.999684
0.999859
0.999573
0.999395
0.999241
0.999533
0.883198
0.289198
8.28125e-05
0.0100078
6.33242e-15
7.67762e-13
0.0724164
0.325775
0.140254
3.77076e-06
2.5149e-06
0.237256
0.81587
0.909109
0.965419
0.959017
0.881972
0.56524
0.254876
0.0896692
9.22219e-06
0.000111034
0.0122538
5.55677e-11
1.99189e-09
6.60471e-15
4.68959e-15
6.60506e-15
1.91205e-05
3.58339e-06
0.0119031
0.300445
0.547653
0.501703
0.244716
0.0375217
0.00121954
3.72696e-05
3.11535e-07
1.27144e-05
0.000279738
0.00763791
1.07713e-07
1.1267e-07
4.30919e-07
2.57309e-06
2.91391e-05
4.89842e-05
5.44886e-05
0.000330475
0.000178613
1.68318e-07
1.77364e-07
1.68979e-07
2.55875e-07
5.33655e-07
1.04996e-05
6.89439e-08
8.53462e-06
0.000332046
0.00379853
2.48326e-07
6.10623e-08
1.35486e-07
2.98151e-07
1.05393e-05
2.47694e-05
2.48295e-05
9.76326e-06
1.68318e-07
1.7572e-07
2.48263e-07
1.26678e-06
1.79496e-06
7.01378e-07
2.25389e-08
5.73566e-08
1.35641e-07
0.000122729
0.00120905
1.91198e-07
6.72568e-10
1.12709e-07
7.02722e-07
2.36719e-06
3.67545e-06
8.45433e-06
1.01345e-05
3.92906e-06
1.34872e-06
8.59336e-09
6.04897e-07
6.36111e-07
2.33277e-08
6.00072e-11
7.75975e-10
4.04429e-11
5.57139e-05
0.00017398
2.03093e-08
3.55836e-10
8.71801e-10
1.8427e-08
9.27033e-07
2.32341e-06
4.05743e-06
5.15711e-06
2.31738e-06
4.58254e-07
7.76113e-11
3.07567e-10
9.5317e-09
3.75042e-08
7.74479e-11
1.05603e-10
9.61209e-11
5.15852e-05
0.000234609
3.64677e-10
3.59629e-10
3.74653e-10
1.78131e-10
1.52308e-10
1.92928e-07
8.86159e-07
1.41916e-06
1.18346e-06
9.55053e-08
5.77882e-11
4.87766e-09
3.26877e-08
6.52159e-08
2.29656e-10
-9.68544e-11
9.97716e-09
3.93419e-05
0.000316059
3.88283e-10
3.7893e-10
3.53517e-10
2.56053e-10
1.17248e-10
3.20541e-11
2.88357e-11
6.78545e-12
6.81137e-12
6.78545e-12
4.41532e-11
6.78651e-12
1.46788e-07
1.16167e-06
3.14922e-06
7.46087e-06
5.84392e-08
0.00145706
0.00830498
6.11605e-10
4.68452e-10
3.35814e-10
2.7104e-10
2.00726e-10
1.04752e-10
5.15769e-11
1.8335e-11
6.91693e-12
2.63781e-11
1.17952e-10
2.05639e-11
6.78651e-12
5.02352e-07
2.19367e-06
0.00017352
0.00275172
0.0160606
0.0191535
8.58729e-10
6.6363e-10
3.36848e-10
2.32185e-10
1.81556e-10
1.32282e-10
9.45869e-11
6.40698e-11
5.28883e-11
1.14465e-09
6.52245e-09
1.76272e-08
2.1014e-08
5.82518e-08
1.85202e-06
0.000353164
0.00763075
0.0177543
0.0147243
1.64168e-09
6.58722e-10
2.88755e-10
1.45165e-10
1.24775e-10
1.15545e-10
9.24444e-11
7.48688e-11
6.29705e-11
9.61082e-10
9.61189e-09
7.78209e-08
4.12633e-07
9.63657e-06
0.000130992
0.000794829
0.00172867
3.45561e-05
9.06101e-07
1.56575e-09
4.78978e-10
1.44848e-10
7.43599e-11
6.60152e-11
6.29803e-11
5.80874e-11
5.29374e-11
3.61288e-11
1.57136e-11
2.08851e-09
7.80254e-08
8.6531e-07
5.76415e-06
5.73482e-05
6.35723e-07
2.64623e-14
-2.20582e-25
-1.53339e-08
1.09258e-09
2.74899e-10
9.24634e-11
6.07493e-11
5.4013e-11
5.27e-11
5.36615e-11
7.17007e-11
7.46204e-11
1.59264e-11
1.62575e-11
1.4667e-11
1.75116e-06
1.61489e-06
-1.73242e-12
1.65961e-08
6.02866e-08
3.29982e-08
6.04982e-09
9.59272e-10
2.02591e-10
7.34771e-11
6.05452e-11
6.68856e-11
1.0253e-10
2.00665e-10
4.6016e-10
6.15733e-10
4.10866e-09
8.15391e-11
1.12991e-07
5.66255e-07
2.0323e-07
5.0977e-08
7.37793e-08
1.09316e-07
4.62322e-08
5.27055e-09
1.23745e-09
2.41189e-10
7.31856e-11
7.6417e-11
1.23636e-10
2.64682e-10
6.02723e-10
1.25486e-09
1.78299e-09
6.2135e-09
1.30629e-08
1.76124e-07
8.09706e-08
9.73661e-25
9.064e-16
-9.06165e-16
2.54295e-11
1.50657e-11
2.64268e-09
1.70929e-09
4.2489e-10
9.63157e-11
8.3004e-11
1.33604e-10
2.93716e-10
6.18973e-10
1.11786e-09
2.15277e-09
3.66892e-09
3.56451e-08
5.66618e-08
2.39424e-08
4.18183e-09
3.65775e-10
4.37021e-11
4.29251e-11
2.2562e-10
3.49838e-09
1.87756e-09
8.40749e-10
1.97533e-10
8.44675e-11
1.02838e-10
2.09313e-10
4.23696e-10
7.66491e-10
1.45905e-09
2.84048e-09
6.63439e-09
6.80055e-09
1.71383e-09
1.73761e-10
1.77751e-11
2.18956e-11
5.42186e-11
2.54935e-10
3.32871e-09
1.52844e-09
1.19324e-09
4.78853e-10
1.26952e-10
8.23984e-11
1.06215e-10
2.0661e-10
3.81987e-10
6.35947e-10
6.5275e-10
3.63368e-10
9.94388e-11
4.90579e-12
5.05941e-12
8.43664e-12
1.50167e-11
3.96302e-11
2.2646e-10
2.48328e-09
9.9777e-10
9.65459e-10
7.38165e-10
3.30989e-10
1.0176e-10
6.77734e-11
8.36073e-11
1.36115e-10
2.03952e-10
1.68952e-10
7.31414e-11
2.74173e-11
4.54926e-12
3.36915e-12
4.9213e-12
9.76269e-12
2.838e-11
1.38473e-10
9.61761e-10
5.49295e-10
5.86224e-10
5.6772e-10
4.42549e-10
2.26536e-10
7.95566e-11
4.38281e-11
4.59813e-11
5.57046e-11
4.524e-11
2.56848e-11
8.1179e-12
1.92334e-12
1.68034e-12
2.31996e-12
4.08996e-12
1.06174e-11
5.87241e-11
2.63583e-10
2.33576e-10
2.82331e-10
3.10455e-10
3.08131e-10
2.39954e-10
1.29346e-10
5.12772e-11
2.50893e-11
1.78752e-11
1.30552e-11
7.55203e-12
2.84162e-12
9.88837e-13
7.57031e-13
8.34165e-13
1.3349e-12
3.10519e-12
1.29061e-11
6.07032e-11
7.14896e-11
1.0047e-10
1.31272e-10
1.44831e-10
1.47084e-10
1.16828e-10
6.33097e-11
2.65422e-11
1.17021e-11
5.79681e-12
2.82548e-12
1.21187e-12
5.5012e-13
3.34729e-13
2.70037e-13
3.02995e-13
4.70888e-13
1.74838e-12
7.73234e-12
1.76025e-11
2.63024e-11
3.78821e-11
5.04812e-11
6.16416e-11
6.37056e-11
4.93634e-11
2.49424e-11
1.06464e-11
4.31556e-12
1.66379e-12
6.40812e-13
2.82395e-13
1.491e-13
8.44589e-14
6.74056e-14
7.0841e-14
1.5094e-13
5.10949e-13
5.02837e-12
6.49786e-12
9.53701e-12
1.38411e-11
1.88545e-11
2.27862e-11
2.35363e-11
1.64616e-11
7.66426e-12
3.13643e-12
1.07729e-12
3.38541e-13
1.20564e-13
5.29945e-14
2.42081e-14
1.07432e-14
5.02556e-15
5.43515e-15
4.63978e-14
1.634e-12
1.79957e-12
2.23164e-12
3.03879e-12
4.32327e-12
6.15137e-12
7.44076e-12
6.69973e-12
3.78933e-12
1.66932e-12
5.58302e-13
1.47286e-13
4.14036e-14
1.43242e-14
3.83524e-15
1.71174e-15
2.17349e-15
2.09907e-15
1.36755e-15
5.13237e-13
4.78934e-13
5.06424e-13
6.14068e-13
8.37639e-13
1.26965e-12
1.65637e-12
1.80304e-12
1.22072e-12
5.90185e-13
1.96915e-13
4.55817e-14
1.04163e-14
3.17404e-15
4.52839e-16
6.91521e-16
1.04618e-15
1.06048e-15
6.41724e-16
1.41094e-13
1.18811e-13
1.05179e-13
1.0795e-13
1.37233e-13
2.01331e-13
2.81914e-13
3.25983e-13
2.52369e-13
1.30468e-13
4.161e-14
8.54051e-15
1.74699e-15
5.63932e-16
1.53301e-16
2.69303e-16
4.63931e-16
5.36144e-16
3.14764e-16
3.36318e-14
2.67626e-14
1.96129e-14
1.48118e-14
1.42138e-14
2.12342e-14
3.2289e-14
3.9414e-14
3.273e-14
1.74083e-14
4.8794e-15
6.04144e-16
1.01746e-16
6.97805e-17
4.9354e-17
9.94459e-17
1.99302e-16
3.09551e-16
1.50468e-16
6.79658e-15
4.6556e-15
2.99778e-15
1.30573e-15
7.34597e-16
1.0554e-15
2.20249e-15
2.99671e-15
2.62491e-15
1.35945e-15
1.9513e-16
3.04899e-18
8.57683e-19
3.48523e-18
1.22933e-17
3.52088e-17
8.51656e-17
1.69921e-16
9.41128e-17
1.07587e-15
6.81017e-16
2.57561e-16
5.1003e-17
1.40326e-17
2.82826e-17
7.66831e-17
1.16514e-16
1.07414e-16
5.13885e-17
3.13497e-18
4.7811e-20
1.7208e-19
8.67771e-19
4.05796e-18
1.22023e-17
3.55451e-17
9.06546e-17
5.784e-17
1.52946e-16
4.97424e-17
7.56854e-18
8.02287e-19
1.666e-19
3.48395e-19
1.69625e-18
3.16011e-18
2.58254e-18
3.85862e-19
1.52455e-20
2.34983e-20
6.85922e-20
3.32008e-19
1.43377e-18
5.33367e-18
1.97488e-17
4.57401e-17
3.09294e-17
1.33457e-17
1.34482e-18
8.42268e-20
1.23505e-20
3.80957e-21
3.80669e-21
2.41144e-20
5.54934e-20
4.67889e-20
1.04463e-20
1.11055e-20
2.13375e-20
4.40093e-20
1.50699e-19
6.64789e-19
3.67378e-18
1.24642e-17
2.09323e-17
1.58404e-17
2.3494e-19
7.84008e-21
9.85803e-22
1.80614e-22
1.52388e-22
1.90428e-22
6.21952e-22
1.5896e-21
2.50181e-21
4.61857e-21
1.00735e-20
1.9814e-20
3.45421e-20
9.82777e-20
5.12785e-19
2.44549e-18
6.26153e-18
9.99762e-18
6.74631e-18
6.2058e-22
1.75127e-23
1.07203e-23
1.42491e-23
3.39779e-23
9.36221e-23
2.59754e-22
6.95188e-22
1.74365e-21
4.14023e-21
9.23431e-21
1.83109e-20
3.15427e-20
8.70109e-20
3.91927e-19
1.49545e-18
3.27827e-18
3.94591e-18
2.99337e-18
3.19856e-25
4.81999e-25
1.92918e-24
7.15536e-24
2.38564e-23
7.33301e-23
2.09566e-22
5.67811e-22
1.44766e-21
3.47701e-21
7.75752e-21
1.54821e-20
2.69575e-20
6.79774e-20
2.66047e-19
8.47296e-19
1.38067e-18
1.67088e-18
9.73139e-19
6.4167e-26
3.49789e-25
1.48531e-24
5.43904e-24
1.80185e-23
5.54329e-23
1.58834e-22
4.2578e-22
1.08689e-21
2.61833e-21
5.84085e-21
1.16748e-20
2.05154e-20
4.7843e-20
1.60021e-19
4.48564e-19
6.37835e-19
5.41718e-19
3.60129e-19
5.10839e-26
2.55151e-25
1.03403e-24
3.63147e-24
1.20027e-23
3.6748e-23
1.04668e-22
2.7892e-22
7.15163e-22
1.72173e-21
3.84446e-21
7.71399e-21
1.37317e-20
3.00743e-20
8.12245e-20
2.17425e-19
2.31131e-19
1.95923e-19
8.28795e-20
3.69839e-26
1.58325e-25
5.89913e-25
1.98232e-24
6.24527e-24
1.88913e-23
5.47868e-23
1.50023e-22
3.85264e-22
9.52244e-22
2.15766e-21
4.37152e-21
7.81073e-21
1.6502e-20
3.79843e-20
9.63906e-20
8.44561e-20
4.78277e-20
3.03063e-20
1.97065e-26
7.35329e-26
2.52182e-25
8.08863e-25
2.54935e-24
7.81047e-24
2.30863e-23
6.54396e-23
1.74003e-22
4.39505e-22
1.02157e-21
2.12267e-21
3.87905e-21
8.01389e-21
1.626e-20
3.7484e-20
2.28424e-20
1.66201e-20
1.08743e-20
5.80994e-27
1.87668e-26
5.92792e-26
1.78478e-25
6.14873e-25
2.12457e-24
6.90106e-24
2.10852e-23
6.08367e-23
1.63161e-22
3.97667e-22
8.6577e-22
1.64429e-21
3.38433e-21
6.38218e-21
1.29601e-20
7.88517e-21
5.53129e-21
3.35275e-21
)
;

boundaryField
{
    leftWall
    {
        type            alphaContactAngle;
        contactAngleProperties 
        {
            mercury         
            {
                theta0          90;
            }
            air             
            {
                theta0          90;
            }
            oil             
            {
                theta0          90;
            }
        }
        value           nonuniform List<scalar> 
50
(
4.0974e-11
1.09036e-10
3.28269e-10
3.52579e-10
3.87787e-09
0.359117
0.98239
1
1
1
1
0.882789
0.560907
0.0891532
0.0237514
0.00138438
-1.89724e-22
-4.67732e-08
-5.99419e-08
-3.34603e-08
1.93465e-09
3.38935e-08
3.38939e-08
1.90963e-08
1.96621e-08
2.02006e-08
2.01815e-08
1.95873e-08
1.75632e-08
1.54098e-08
1.28919e-08
1.07216e-08
8.96448e-09
7.16135e-09
4.99171e-09
2.99649e-09
1.47757e-09
6.30062e-10
1.6157e-10
3.29012e-11
2.96435e-12
3.10947e-13
2.58115e-14
1.5917e-15
8.31335e-17
4.39103e-18
2.57402e-19
1.58065e-20
9.52704e-22
4.26548e-23
)
;
    }
    rightWall
    {
        type            alphaContactAngle;
        contactAngleProperties 
        {
            mercury         
            {
                theta0          90;
            }
            air             
            {
                theta0          90;
            }
            oil             
            {
                theta0          90;
            }
        }
        value           nonuniform List<scalar> 
50
(
0.0188788
0.0188788
0.0232011
0.194175
0.385277
0.523807
0.724056
0.608128
0.121917
0.0100078
0.0122538
0.00763791
0.00379853
0.00120905
0.00017398
0.000234609
0.000316059
0.00830498
0.0191535
0.0147243
9.06101e-07
-1.53339e-08
6.04982e-09
5.27055e-09
2.64268e-09
3.49838e-09
3.32871e-09
2.48328e-09
9.61761e-10
2.63583e-10
6.07032e-11
7.73234e-12
5.10949e-13
4.63978e-14
1.36755e-15
6.41724e-16
3.14764e-16
1.50468e-16
9.41128e-17
5.784e-17
3.09294e-17
1.58404e-17
6.74631e-18
2.99337e-18
9.73139e-19
3.60129e-19
8.28795e-20
3.03063e-20
1.08743e-20
3.35275e-21
)
;
    }
    lowerWall
    {
        type            alphaContactAngle;
        contactAngleProperties 
        {
            mercury         
            {
                theta0          90;
            }
            air             
            {
                theta0          90;
            }
            oil             
            {
                theta0          90;
            }
        }
        value           nonuniform List<scalar> 
62
(
4.0974e-11
7.79358e-11
1.04859e-10
1.05231e-10
1.06096e-10
1.10609e-10
1.16888e-10
1.23286e-10
1.2925e-10
1.35153e-10
1.39389e-10
1.45011e-10
1.5407e-10
1.76302e-10
2.14665e-10
2.93403e-10
4.04991e-10
5.578e-10
9.23428e-10
1.87404e-09
2.57861e-09
2.77909e-09
2.77806e-09
2.77806e-09
2.50536e-09
1.007e-09
4.52958e-10
2.01687e-08
0.023223
0.685379
0.997196
0.943193
0.890804
0.883982
0.883355
0.013086
0.00827574
0.240796
0.761855
0.749602
0.805187
0.883481
0.879954
0.013086
0.00683037
0.0407607
0.0653522
0.0482754
0.0341014
0.00946311
0.00143834
0.00145335
0.00094458
0.000921017
0.0852833
0.122299
0.123416
0.0910144
0.0188788
0.0188788
0.0188788
0.0188788
)
;
    }
    atmosphere
    {
        type            inletOutlet;
        inletValue      uniform 0;
        value           nonuniform List<scalar> 
46
(
0
0
0
1.165e-23
8.1196e-24
5.2724e-24
3.08075e-24
1.76183e-24
1.08856e-24
1.1048e-24
1.49926e-24
2.39473e-24
3.92208e-24
5.77177e-24
7.4482e-24
7.69961e-24
6.7319e-24
4.64742e-24
0
0
0
0
0
0
0
0
0
0
0
0
0
0
0
0
0
0
0
0
0
0
0
0
0
0
0
3.35275e-21
)
;
    }
    defaultFaces
    {
        type            empty;
    }
}


// ************************************************************************* //
