/*--------------------------------*- C++ -*----------------------------------*\
  =========                 |
  \\      /  F ield         | OpenFOAM: The Open Source CFD Toolbox
   \\    /   O peration     | Website:  https://openfoam.org
    \\  /    A nd           | Version:  13
     \\/     M anipulation  |
\*---------------------------------------------------------------------------*/
FoamFile
{
    format      ascii;
    class       volScalarField;
    location    "1.8";
    object      epsilon;
}
// * * * * * * * * * * * * * * * * * * * * * * * * * * * * * * * * * * * * * //

dimensions      [0 2 -3 0 0 0 0];

internalField   nonuniform List<scalar> 
2268
(
0.00569517
0.0243682
0.0460569
0.0684652
0.0901709
0.110276
0.128415
0.144711
0.159546
0.173297
0.186258
0.198792
0.2114
0.225093
0.23874
0.251146
0.260201
0.261822
0.25106
0.222112
0.168879
0.0917669
0.0218484
0.00884832
0.0177374
0.0287745
0.0396966
0.0498824
0.0590491
0.0670789
0.0739942
0.0799217
0.0850326
0.0894735
0.0933939
0.0970535
0.100862
0.104618
0.107932
0.110164
0.110214
0.106713
0.0980992
0.0827259
0.0603009
0.0397423
0.0144192
0.0185855
0.0272536
0.0358153
0.0436915
0.0507142
0.0568172
0.0620166
0.0663994
0.0700877
0.0732015
0.0758809
0.0783387
0.0807964
0.0832322
0.0855143
0.0873633
0.0882897
0.0877491
0.0852461
0.080317
0.072925
0.0729514
0.0200386
0.0206746
0.0282171
0.0358004
0.0427565
0.0489378
0.0542979
0.0588621
0.0627119
0.0659525
0.0686946
0.071081
0.0733104
0.0755335
0.0777876
0.0800656
0.0822679
0.0842047
0.0858075
0.08734
0.0895734
0.0942857
0.117054
0.0261249
0.0233018
0.0301319
0.0371965
0.0436972
0.0494749
0.0544903
0.0587808
0.0624279
0.0655263
0.0681819
0.0705433
0.0728009
0.0750743
0.0774324
0.0799447
0.0826272
0.0854961
0.0888549
0.093693
0.102432
0.121002
0.178274
0.032886
0.0263051
0.0326502
0.0394326
0.0457165
0.0513134
0.0561827
0.0603739
0.06397
0.0670551
0.0697331
0.0721598
0.0745188
0.0769212
0.0794573
0.0822439
0.0853774
0.089027
0.0937872
0.10132
0.11609
0.151799
0.270191
0.0381713
0.0295411
0.0356602
0.0423207
0.0485471
0.0541074
0.0589516
0.0631466
0.0667754
0.0699111
0.0726504
0.0751606
0.0776296
0.0801715
0.0828828
0.0859079
0.0894064
0.0936485
0.0994123
0.10886
0.128475
0.183992
0.42692
0.04095
0.0328375
0.0385668
0.0450363
0.0512688
0.0569873
0.0620719
0.0665183
0.0703754
0.0736846
0.0765303
0.0791229
0.0816956
0.0843691
0.0872157
0.0903994
0.0941534
0.0987913
0.105134
0.115517
0.137324
0.2073
0.739582
0.0327247
0.0949975
0.139315
0.164218
0.185825
0.203669
0.223084
0.247136
0.257337
0.249348
0.228516
0.217978
0.213501
0.21665
0.216039
0.204849
0.171137
0.10608
0.0132093
0.0527385
0.0824432
0.0974261
0.102995
0.106071
0.109135
0.113797
0.118686
0.120871
0.120059
0.117804
0.118591
0.123165
0.127547
0.126757
0.117293
0.0968397
0.0661169
0.0300976
0.108814
0.12465
0.122175
0.115064
0.106781
0.101973
0.101056
0.1017
0.102404
0.102767
0.103105
0.104661
0.108033
0.110514
0.108918
0.101747
0.0881439
0.0695516
0.0635375
0.20062
0.181788
0.15394
0.135594
0.119069
0.107225
0.102038
0.100005
0.099598
0.0999018
0.100477
0.101651
0.103628
0.104665
0.102694
0.0972391
0.0881499
0.0783427
0.111887
0.32153
0.234074
0.182499
0.148699
0.131643
0.116651
0.107827
0.103127
0.101528
0.101343
0.101232
0.101731
0.102715
0.102848
0.100864
0.0967247
0.0909424
0.0880244
0.150119
0.472694
0.282043
0.201822
0.158613
0.141439
0.126839
0.11529
0.10843
0.105332
0.104524
0.103511
0.103184
0.103576
0.103258
0.101344
0.0981296
0.0951194
0.0982054
0.174414
0.667182
0.322843
0.209736
0.163688
0.147446
0.134826
0.121976
0.11354
0.109592
0.108076
0.106368
0.105429
0.105505
0.105063
0.103124
0.100436
0.0996509
0.108141
0.192894
0.926793
0.345194
0.209153
0.164174
0.14953
0.139945
0.127348
0.117764
0.113335
0.111402
0.109414
0.108233
0.10811
0.107502
0.105537
0.10325
0.104036
0.116433
0.208636
0.0505186
0.0391505
0.0431726
0.04865
0.0542904
0.0598172
0.065085
0.0699834
0.0744056
0.078278
0.0816456
0.0846757
0.0875961
0.0905616
0.0936524
0.0970601
0.101072
0.105986
0.11254
0.122749
0.141783
0.184233
0.307269
0.0708131
0.0504583
0.0518945
0.0556239
0.0597944
0.0640195
0.0681929
0.072276
0.0762437
0.0800674
0.0837435
0.0873257
0.0908811
0.0944467
0.0980802
0.101935
0.106201
0.111107
0.117194
0.125705
0.139101
0.16212
0.205018
0.100029
0.0646629
0.0631967
0.065233
0.0680265
0.0710195
0.074112
0.0772989
0.080571
0.08391
0.0873078
0.0907855
0.0943393
0.0979608
0.101664
0.105527
0.109687
0.114361
0.119967
0.127277
0.137548
0.152692
0.175208
0.13144
0.0805767
0.0757629
0.0761947
0.0778006
0.0797684
0.0819997
0.0844953
0.0872182
0.0901291
0.0932142
0.0964541
0.0997901
0.103205
0.106701
0.110347
0.114297
0.118796
0.124241
0.131245
0.140622
0.153347
0.169926
0.161564
0.096366
0.088551
0.0875405
0.0881155
0.0892353
0.0907894
0.0927703
0.0951003
0.0977103
0.100554
0.103538
0.10661
0.10974
0.112944
0.116329
0.120096
0.124521
0.12999
0.137079
0.146528
0.159006
0.174057
0.178134
0.109047
0.10012
0.098271
0.0981545
0.0986811
0.0997192
0.10127
0.103284
0.105675
0.108303
0.111066
0.113882
0.116739
0.119698
0.122888
0.1265
0.130822
0.136345
0.143808
0.154109
0.167645
0.182841
0.174052
0.117934
0.109652
0.107934
0.107569
0.107718
0.108378
0.109605
0.111369
0.113569
0.116052
0.118633
0.121206
0.123809
0.126621
0.129791
0.133328
0.137535
0.143149
0.151244
0.162834
0.177868
0.193818
0.167481
0.123386
0.118021
0.116943
0.116455
0.116301
0.116735
0.117777
0.119419
0.121573
0.12397
0.126316
0.128528
0.130855
0.133718
0.137271
0.140889
0.144865
0.150561
0.159476
0.172676
0.189755
0.207189
0.181911
0.132065
0.127692
0.125451
0.124364
0.124262
0.124885
0.126098
0.127909
0.130215
0.132517
0.13434
0.135787
0.137642
0.140822
0.14435
0.146487
0.148749
0.152395
0.158925
0.16936
0.18314
0.19833
0.204048
0.14007
0.133961
0.131822
0.130275
0.131444
0.131602
0.131868
0.133084
0.135014
0.136743
0.137672
0.138129
0.139584
0.141856
0.144268
0.146203
0.147909
0.150716
0.155626
0.163313
0.173383
0.183985
0.217131
0.139485
0.131842
0.130535
0.130747
0.132383
0.132448
0.131943
0.131952
0.132607
0.133454
0.1342
0.134936
0.136097
0.138137
0.140458
0.142751
0.145147
0.148214
0.152677
0.158945
0.166663
0.174414
0.224077
0.140039
0.130282
0.127699
0.127414
0.128369
0.128517
0.128101
0.127884
0.12804
0.128457
0.129125
0.130138
0.13163
0.133691
0.136079
0.138618
0.141366
0.144706
0.149042
0.154539
0.160829
0.166738
0.233827
0.137644
0.125928
0.12291
0.122209
0.122707
0.123009
0.122986
0.122995
0.123181
0.123592
0.124347
0.125548
0.127219
0.12934
0.13176
0.13437
0.137259
0.14067
0.144831
0.149785
0.15521
0.160122
0.244503
0.134358
0.120088
0.116728
0.1161
0.116547
0.117096
0.117503
0.117883
0.118349
0.118978
0.119909
0.12124
0.122994
0.12512
0.127516
0.130128
0.133016
0.136329
0.140208
0.144659
0.149447
0.153788
0.242554
0.128981
0.113674
0.110198
0.109751
0.110349
0.111176
0.111966
0.112724
0.113521
0.114438
0.115582
0.11704
0.11884
0.120941
0.12328
0.125828
0.128618
0.131738
0.135276
0.139233
0.143466
0.147375
0.233094
0.12244
0.107212
0.10382
0.103551
0.104334
0.10541
0.106514
0.107598
0.108703
0.109892
0.111245
0.112827
0.114662
0.116729
0.11899
0.121429
0.124063
0.126942
0.130122
0.133606
0.137321
0.14082
0.221776
0.115906
0.101131
0.0978557
0.0976909
0.0986016
0.0998649
0.101203
0.102545
0.103903
0.105322
0.106856
0.108549
0.110418
0.112452
0.114629
0.11694
0.119393
0.122018
0.124849
0.127892
0.13112
0.134203
0.209896
0.109602
0.0954376
0.092283
0.0921715
0.0931502
0.094534
0.0960334
0.0975644
0.0991192
0.100722
0.102405
0.104194
0.106097
0.108107
0.11021
0.112396
0.114674
0.117058
0.119568
0.122215
0.124995
0.127667
0.197786
0.103476
0.0900132
0.0869905
0.0869077
0.0879157
0.0893636
0.0909722
0.0926389
0.0943428
0.0960902
0.0978953
0.0997682
0.101709
0.103709
0.105756
0.10784
0.109966
0.11214
0.114376
0.116681
0.119067
0.121354
0.185305
0.0973523
0.084689
0.0818324
0.0817819
0.0828049
0.0842877
0.085975
0.0877438
0.0895634
0.0914268
0.0933338
0.0952823
0.0972649
0.0992696
0.101283
0.103295
0.105304
0.107313
0.109329
0.111359
0.113416
0.115367
0.17213
0.0910334
0.0793039
0.0766759
0.0766878
0.0777368
0.0792533
0.0810003
0.0828556
0.0847712
0.0867319
0.0887268
0.0907452
0.0927736
0.0947964
0.0967985
0.0987679
0.100699
0.10259
0.104446
0.106268
0.10807
0.10975
0.158005
0.0843791
0.0737497
0.0714336
0.0715559
0.0726583
0.0742209
0.0760238
0.0779593
0.0799609
0.082007
0.0840804
0.0861641
0.0882405
0.0902915
0.0923004
0.094253
0.096141
0.0979594
0.0997088
0.101388
0.103006
0.104486
0.142857
0.07735
0.0679954
0.0660782
0.0663632
0.0675513
0.0691781
0.0710439
0.07305
0.0751349
0.0772588
0.0794028
0.0815468
0.0836709
0.0857556
0.0877829
0.0897378
0.091609
0.0933906
0.0950786
0.0966697
0.0981686
0.0995142
0.126918
0.0700456
0.0620976
0.0606449
0.0611343
0.0624352
0.0641421
0.0660776
0.0681519
0.0703085
0.0725041
0.0747108
0.0769084
0.0790763
0.0811947
0.0832455
0.0852132
0.0870853
0.088854
0.0905128
0.0920577
0.0934876
0.0947547
0.1111
0.0627463
0.0561954
0.0552239
0.0559369
0.0573655
0.0591605
0.0611672
0.0633044
0.0655204
0.0677752
0.0700357
0.0722776
0.0744816
0.0766286
0.0787012
0.080684
0.0825644
0.0843333
0.085983
0.0875079
0.0889038
0.0901324
0.0967732
0.0558069
0.0504676
0.049942
0.0508735
0.0524305
0.0543121
0.0563842
0.0585745
0.0608358
0.0631313
0.0654293
0.0677038
0.0699322
0.0720977
0.0741843
0.0761773
0.078064
0.0798363
0.0814847
0.0830022
0.0843844
0.0855987
0.0837018
0.0492771
0.0450492
0.0449406
0.0460782
0.0477521
0.0497074
0.0518296
0.0540566
0.0563459
0.0586618
0.0609748
0.0632599
0.0654972
0.0676672
0.0697548
0.0717467
0.0736322
0.075402
0.0770466
0.0785589
0.0799332
0.0811431
0.0723528
0.043377
0.0401232
0.040383
0.0417008
0.0434734
0.0454851
0.0476381
0.0498783
0.0521682
0.0544775
0.0567804
0.0590544
0.0612762
0.0634293
0.0654999
0.0674755
0.0693455
0.0711002
0.0727313
0.0742311
0.0755934
0.0767975
0.0632704
0.0383992
0.0359071
0.0364539
0.0379074
0.0397477
0.0417893
0.0439478
0.0461757
0.0484406
0.0507159
0.0529791
0.0552095
0.0573889
0.0595006
0.0615317
0.0634702
0.0653052
0.0670279
0.0686302
0.0701043
0.0714429
0.0726302
0.0568342
0.0345994
0.0326021
0.0333298
0.0348609
0.0367284
0.0387663
0.0408991
0.0430849
0.0452951
0.0475073
0.0497017
0.0518608
0.0539688
0.0560117
0.0579767
0.0598526
0.0616299
0.0632997
0.0648541
0.0662853
0.0675852
0.0687403
0.0531929
0.0321434
0.0303616
0.0311585
0.0327042
0.0345537
0.0365495
0.0386215
0.0407318
0.0428556
0.0449739
0.0470702
0.0491297
0.051139
0.0530857
0.0549589
0.0567483
0.0584445
0.0600392
0.0615245
0.062893
0.0641367
0.0652425
0.0523412
0.0311175
0.0292948
0.0300578
0.0315561
0.0333396
0.0352513
0.0372237
0.0392228
0.0412271
0.0432208
0.0451904
0.0471234
0.0490084
0.0508348
0.0525924
0.0542724
0.0558659
0.0573648
0.0587612
0.0600478
0.0612166
0.0622552
0.0542328
0.0315886
0.0295011
0.0301357
0.0315223
0.0331852
0.0349637
0.0367929
0.0386419
0.0404926
0.0423317
0.0441479
0.0459303
0.0476688
0.049354
0.0509766
0.0525282
0.0540005
0.0553856
0.056676
0.0578638
0.0589412
0.0598962
0.0589302
0.0336833
0.0311187
0.0315199
0.0327124
0.0341828
0.0357658
0.0373989
0.0390544
0.0407159
0.0423713
0.0440098
0.045621
0.0471953
0.0487232
0.050196
0.0516052
0.0529426
0.0542005
0.0553714
0.0564475
0.0574204
0.0582785
0.0667642
0.0376615
0.0343671
0.0343821
0.0352541
0.0364258
0.0377279
0.0390989
0.0405105
0.0419453
0.0433889
0.0448286
0.0462526
0.0476501
0.0490109
0.0503254
0.0515844
0.0527792
0.053902
0.0549452
0.0559011
0.0567612
0.0575136
0.0785396
0.0439859
0.039577
0.0389439
0.0392867
0.0399995
0.0409036
0.0419299
0.0430409
0.0442105
0.045417
0.0466418
0.047869
0.049085
0.0502774
0.0514341
0.0525439
0.0535964
0.0545832
0.0554971
0.0563306
0.0570752
0.0577191
0.095789
0.0534181
0.0472032
0.0454488
0.0449213
0.0449422
0.0452968
0.0458829
0.0466347
0.0475044
0.0484555
0.0494584
0.05049
0.0515326
0.0525697
0.0535842
0.05456
0.055483
0.0563437
0.0571355
0.0578523
0.0584868
0.0590281
0.121362
0.067192
0.0577986
0.054072
0.0521478
0.0511666
0.0507973
0.0508486
0.0511918
0.0517396
0.0524314
0.0532213
0.0540769
0.0549758
0.055896
0.0568111
0.0576949
0.0585238
0.0592874
0.0599787
0.0605965
0.0611379
0.061596
0.160294
0.0871649
0.0718323
0.0647099
0.0606705
0.0583365
0.0570822
0.0565315
0.0564435
0.0566711
0.0571234
0.0577332
0.0584589
0.0592773
0.0601614
0.0610679
0.0619531
0.0627688
0.0635063
0.0641445
0.0646982
0.0651817
0.0656021
0.223762
0.115942
0.0891325
0.0765913
0.0696839
0.065722
0.0635029
0.0623473
0.0618512
0.0617934
0.0620544
0.0625433
0.0632135
0.0640534
0.0650372
0.0660971
0.0671688
0.0681438
0.0690391
0.0697222
0.0702697
0.0707613
0.0712605
0.339522
0.154744
0.10722
0.0876917
0.0776741
0.0721119
0.0690201
0.0673559
0.0665333
0.0662599
0.0663993
0.0668382
0.0675342
0.0685076
0.0697518
0.0711796
0.0727365
0.0741954
0.0757668
0.0766809
0.0772958
0.0779312
0.0789543
0.594954
0.18981
0.118226
0.094524
0.0825409
0.0759545
0.0723244
0.0703621
0.0693536
0.0689621
0.0690493
0.069486
0.07024
0.0713729
0.0729158
0.0747911
0.0770455
0.0793422
0.0828054
0.0841529
0.0848628
0.0859324
0.0900169
0.936355
0.85532
0.865414
0.954665
0.266431
0.288205
0.303439
0.312468
0.196662
0.208939
0.218206
0.223118
0.18324
0.190789
0.196219
0.198782
0.1846
0.189985
0.193374
0.194466
0.191911
0.196035
0.198223
0.19837
0.202867
0.207002
0.208836
0.207933
0.217142
0.222237
0.226478
0.227249
0.206962
0.210735
0.213199
0.213932
0.190744
0.194402
0.197567
0.200302
0.178993
0.181502
0.183736
0.185717
0.170121
0.171998
0.173628
0.175136
0.162971
0.164572
0.165904
0.167089
0.156431
0.157952
0.159209
0.160292
0.149904
0.151409
0.152677
0.153775
0.143214
0.144682
0.14596
0.147096
0.136405
0.137788
0.139038
0.140182
0.129631
0.130885
0.132046
0.133144
0.123058
0.124156
0.125189
0.126184
0.11682
0.117754
0.118638
0.1195
0.110981
0.111765
0.112506
0.113226
0.105541
0.106201
0.106819
0.107411
0.100444
0.101012
0.101536
0.102026
0.095604
0.0961122
0.0965725
0.0969915
0.0909373
0.0914109
0.0918347
0.0922106
0.0863827
0.0868393
0.0872456
0.0876002
0.081918
0.0823677
0.0827681
0.0831151
0.0775661
0.0780122
0.078411
0.0787565
0.0733902
0.0738322
0.0742282
0.0745717
0.0694802
0.0699128
0.070301
0.0706395
0.0659496
0.0663651
0.0667392
0.0670671
0.0629179
0.0633086
0.0636606
0.0639696
0.0605029
0.0608609
0.0611828
0.0614646
0.0588191
0.0591373
0.0594218
0.0596691
0.0579812
0.0582548
0.0584966
0.0587038
0.0581115
0.0583383
0.0585352
0.0587
0.0593499
0.0595328
0.0596875
0.0598122
0.0618633
0.062013
0.0621362
0.0622316
0.0658518
0.0659928
0.0661096
0.0662
0.0715647
0.0717434
0.0719013
0.0720338
0.0794353
0.0797141
0.0799761
0.0802147
0.090739
0.0910659
0.0913774
0.091686
0.493243
0.298261
0.200158
0.161449
0.149306
0.144472
0.13371
0.123271
0.118539
0.116671
0.114718
0.113423
0.112848
0.111775
0.109865
0.108116
0.110486
0.12623
0.227488
0.289132
0.229704
0.183357
0.158021
0.14937
0.147131
0.139165
0.129735
0.125533
0.124496
0.122992
0.1213
0.119853
0.118197
0.116205
0.11446
0.116246
0.129672
0.22949
0.22089
0.196821
0.17317
0.156135
0.149576
0.148136
0.143199
0.136222
0.132906
0.132095
0.130664
0.128588
0.126479
0.12441
0.122043
0.119731
0.120873
0.133826
0.226836
0.197767
0.184482
0.169142
0.156464
0.15067
0.149425
0.146877
0.142798
0.140326
0.139025
0.137145
0.134498
0.131692
0.128951
0.126325
0.124871
0.127906
0.142607
0.228103
0.192768
0.182155
0.169375
0.1588
0.153482
0.152154
0.150837
0.148552
0.146534
0.144472
0.141618
0.138288
0.13524
0.132836
0.131395
0.132087
0.137404
0.153281
0.231616
0.195431
0.184121
0.171999
0.162557
0.157542
0.155891
0.154858
0.153103
0.15085
0.148096
0.144785
0.141536
0.139142
0.137993
0.138382
0.141055
0.147845
0.163854
0.235364
0.202362
0.188387
0.176047
0.167058
0.162172
0.160163
0.158903
0.157131
0.154629
0.151554
0.148293
0.145566
0.144114
0.144271
0.146219
0.150385
0.157754
0.172825
0.236375
0.214612
0.195604
0.183015
0.173375
0.167918
0.165174
0.163347
0.16138
0.158778
0.155655
0.152602
0.15036
0.149646
0.150727
0.153576
0.158309
0.165573
0.178756
0.231583
0.214225
0.208313
0.196872
0.183341
0.176762
0.172835
0.169724
0.166994
0.164128
0.16087
0.157864
0.155692
0.155164
0.156561
0.1596
0.164078
0.170179
0.180112
0.221072
0.202856
0.207036
0.205161
0.197994
0.192591
0.186127
0.180068
0.17621
0.172748
0.168487
0.164815
0.161786
0.160381
0.161056
0.163345
0.166804
0.17107
0.176929
0.21223
0.188433
0.192719
0.196143
0.201582
0.204466
0.202192
0.197157
0.192915
0.187821
0.180552
0.17554
0.170068
0.166084
0.164681
0.164994
0.166425
0.168683
0.17275
0.211217
0.177289
0.180193
0.183575
0.188994
0.195153
0.199403
0.203608
0.207276
0.205513
0.199591
0.193029
0.183105
0.174285
0.170165
0.168065
0.167263
0.169319
0.175186
0.226702
0.168688
0.170342
0.172537
0.176369
0.180948
0.184588
0.188445
0.19342
0.198855
0.205646
0.20725
0.199496
0.184412
0.179964
0.176804
0.17199
0.173877
0.185002
0.267736
0.161643
0.162587
0.163692
0.16566
0.16832
0.170843
0.173286
0.17611
0.179498
0.184396
0.189789
0.185435
0.176407
0.170796
0.170654
0.165886
0.165892
0.183458
0.320154
0.155141
0.155962
0.156595
0.157463
0.158701
0.159922
0.161071
0.162306
0.164049
0.166468
0.168192
0.165144
0.159934
0.1565
0.154636
0.150302
0.150023
0.165952
0.360654
0.148565
0.149604
0.150319
0.150878
0.151467
0.151919
0.152185
0.152372
0.152857
0.153648
0.153813
0.151789
0.148366
0.144252
0.139907
0.135897
0.136348
0.155909
0.356984
0.141726
0.143063
0.144109
0.144836
0.145382
0.14564
0.145536
0.145082
0.144694
0.144568
0.144298
0.143119
0.140793
0.136895
0.131742
0.12702
0.126653
0.143809
0.320093
0.134682
0.136221
0.137577
0.138602
0.139353
0.139733
0.139631
0.139042
0.138318
0.137846
0.137586
0.13697
0.135105
0.131367
0.125873
0.120444
0.118218
0.130109
0.277875
0.127617
0.129188
0.130682
0.131897
0.132835
0.13339
0.133457
0.133043
0.132427
0.131977
0.131736
0.131136
0.129247
0.125276
0.11951
0.113266
0.108829
0.114982
0.232711
0.12075
0.122195
0.123619
0.124832
0.125802
0.126435
0.126647
0.126447
0.126025
0.125621
0.125201
0.12425
0.121943
0.117737
0.111754
0.104885
0.098732
0.0999916
0.187952
0.114263
0.115473
0.116674
0.11771
0.118541
0.119093
0.119302
0.11917
0.11879
0.118257
0.117453
0.115969
0.11321
0.108773
0.102752
0.0956831
0.0886938
0.0868349
0.150613
0.108249
0.109186
0.110096
0.110852
0.111425
0.111758
0.111804
0.111547
0.111008
0.11018
0.108909
0.106913
0.103792
0.099305
0.0935136
0.0867832
0.0799863
0.0771004
0.125482
0.102701
0.103395
0.104018
0.104475
0.104749
0.104797
0.104582
0.104077
0.10326
0.102073
0.100391
0.0980254
0.0947412
0.0904206
0.0851422
0.079209
0.0733968
0.0711724
0.11248
0.0975516
0.0980661
0.0984547
0.0986548
0.0986561
0.0984283
0.0979422
0.0971674
0.0960661
0.0945725
0.0926134
0.0900694
0.0868282
0.0828631
0.0782828
0.0733838
0.0689395
0.0682898
0.108389
0.0927025
0.0931051
0.0933332
0.0933484
0.0931461
0.0927044
0.0920015
0.0910107
0.0896975
0.0880138
0.0859284
0.0833803
0.0803362
0.0768289
0.0729936
0.0691391
0.0660742
0.0672392
0.109408
0.0880616
0.0884106
0.0885486
0.0884551
0.0881285
0.0875538
0.086716
0.0855963
0.0841694
0.0824212
0.0803383
0.0779057
0.0751381
0.0721025
0.0689512
0.0660084
0.0641384
0.0669963
0.11258
0.0835694
0.0839067
0.0840093
0.0838698
0.0834883
0.0828552
0.0819617
0.0807976
0.0793516
0.0776313
0.075638
0.0733856
0.0709145
0.0683099
0.065735
0.0635319
0.0626286
0.0669392
0.116211
0.0792155
0.0795629
0.0796653
0.0795222
0.0791354
0.0784993
0.0776099
0.0764631
0.0750679
0.073435
0.0715795
0.0695312
0.067344
0.0651122
0.0630072
0.0613906
0.0612543
0.0667535
0.119237
0.0750362
0.0753995
0.0755178
0.0753933
0.0750292
0.0744227
0.0735735
0.0724875
0.0711793
0.0696642
0.067966
0.0661223
0.0641938
0.0622798
0.0605588
0.0594112
0.0598826
0.0663169
0.121252
0.0711055
0.0714798
0.0716136
0.0715128
0.0711805
0.0706159
0.0698234
0.0688159
0.0676082
0.0662198
0.0646793
0.0630285
0.0613307
0.0596883
0.0582857
0.0575179
0.0584688
0.0656029
0.122081
0.0675225
0.0678939
0.0680333
0.0679483
0.0676418
0.0671154
0.0663794
0.0654468
0.0643344
0.063065
0.0616695
0.0601917
0.0586958
0.0572854
0.0561487
0.0556897
0.0570131
0.0646362
0.12182
0.0644001
0.0647497
0.064878
0.0647917
0.0644939
0.063991
0.0632932
0.0624159
0.0613787
0.0602068
0.0589328
0.0576009
0.0562754
0.0550596
0.0541426
0.0539313
0.0555359
0.0634714
0.120646
0.0618554
0.0621625
0.0622584
0.0621482
0.0618359
0.0613284
0.0606386
0.0597847
0.0587896
0.0576814
0.0564944
0.055273
0.0540808
0.0530201
0.052278
0.0522592
0.0540658
0.0621652
0.11876
0.0600076
0.0602519
0.0602938
0.0601346
0.0597778
0.0592314
0.058511
0.0576385
0.0566412
0.0555506
0.0544036
0.0532456
0.0521402
0.0511883
0.0505738
0.0506943
0.0526342
0.0607826
0.116383
0.0589802
0.0591458
0.0591138
0.0588816
0.0584507
0.0578297
0.0570365
0.0560974
0.0550445
0.0539138
0.0527454
0.0515873
0.0505054
0.0496017
0.0490582
0.0492628
0.0512742
0.0593791
0.113685
0.0589097
0.0589876
0.0588695
0.0585476
0.0580202
0.0572952
0.056392
0.0553404
0.0541767
0.0529407
0.0516751
0.0504313
0.0492815
0.0483371
0.0477845
0.0480033
0.0500234
0.058017
0.110872
0.059959
0.0599523
0.0597489
0.0593356
0.0587062
0.0578662
0.0568347
0.0556422
0.0543263
0.0529259
0.0514815
0.050044
0.048696
0.0475719
0.0468794
0.0469989
0.0489378
0.056754
0.108124
0.0623326
0.0622622
0.0619938
0.0615105
0.0608024
0.0598707
0.0587312
0.0574116
0.0559443
0.054358
0.0526777
0.0509403
0.0492332
0.0477285
0.0466787
0.0464791
0.0481482
0.0556773
0.105699
0.0662945
0.0662047
0.0659152
0.0654134
0.0646883
0.0637374
0.0625709
0.0612092
0.0596724
0.0579679
0.0560861
0.0540228
0.0518459
0.049759
0.0480634
0.0471419
0.0480951
0.0550022
0.103961
0.0721939
0.0721531
0.071907
0.0714652
0.0708241
0.0699797
0.0689369
0.0677069
0.0662951
0.0646827
0.062816
0.0606274
0.0581277
0.0555074
0.0530526
0.0509463
0.0504135
0.0557748
0.104254
0.0805285
0.0805973
0.0804564
0.0801608
0.079722
0.0791392
0.0784146
0.0775528
0.0765506
0.0753781
0.0739615
0.0721942
0.070025
0.0675743
0.0650121
0.0620448
0.0601338
0.0634919
0.11323
0.0920671
0.0921871
0.0921593
0.0920618
0.0919113
0.0917101
0.0914596
0.0911624
0.0908176
0.0904127
0.0899143
0.0892679
0.0884344
0.0874479
0.0863584
0.084709
0.0843264
0.0901644
0.183728
)
;

boundaryField
{
    leftWall
    {
        type            epsilonWallFunction;
        value           nonuniform List<scalar> 
50
(
0.00569517
0.00884832
0.0144192
0.0200386
0.0261249
0.032886
0.0381713
0.04095
0.0505186
0.0708131
0.100029
0.13144
0.161564
0.178134
0.174052
0.167481
0.181911
0.204048
0.217131
0.224077
0.233827
0.244503
0.242554
0.233094
0.221776
0.209896
0.197786
0.185305
0.17213
0.158005
0.142857
0.126918
0.1111
0.0967732
0.0837018
0.0723528
0.0632704
0.0568342
0.0531929
0.0523412
0.0542328
0.0589302
0.0667642
0.0785396
0.095789
0.121362
0.160294
0.223762
0.339522
0.594954
)
;
    }
    rightWall
    {
        type            epsilonWallFunction;
        value           nonuniform List<scalar> 
50
(
0.0132093
0.0300976
0.0635375
0.111887
0.150119
0.174414
0.192894
0.208636
0.227488
0.22949
0.226836
0.228103
0.231616
0.235364
0.236375
0.231583
0.221072
0.21223
0.211217
0.226702
0.267736
0.320154
0.360654
0.356984
0.320093
0.277875
0.232711
0.187952
0.150613
0.125482
0.11248
0.108389
0.109408
0.11258
0.116211
0.119237
0.121252
0.122081
0.12182
0.120646
0.11876
0.116383
0.113685
0.110872
0.108124
0.105699
0.103961
0.104254
0.11323
0.183728
)
;
    }
    lowerWall
    {
        type            epsilonWallFunction;
        value           nonuniform List<scalar> 
62
(
0.00569517
0.0243682
0.0460569
0.0684652
0.0901709
0.110276
0.128415
0.144711
0.159546
0.173297
0.186258
0.198792
0.2114
0.225093
0.23874
0.251146
0.260201
0.261822
0.25106
0.222112
0.168879
0.0917669
0.0218484
0.0218484
0.0397423
0.0729514
0.117054
0.178274
0.270191
0.42692
0.739582
0.936355
0.85532
0.865414
0.954665
0.0327247
0.0527385
0.108814
0.20062
0.32153
0.472694
0.667182
0.926793
0.0327247
0.0949975
0.139315
0.164218
0.185825
0.203669
0.223084
0.247136
0.257337
0.249348
0.228516
0.217978
0.213501
0.21665
0.216039
0.204849
0.171137
0.10608
0.0132093
)
;
    }
    atmosphere
    {
        type            inletOutlet;
        inletValue      uniform 0.1;
        value           nonuniform List<scalar> 
46
(
0.594954
0.18981
0.118226
0.094524
0.0825409
0.0759545
0.0723244
0.0703621
0.0693536
0.0689621
0.0690493
0.069486
0.07024
0.0713729
0.0729158
0.0747911
0.0770455
0.0793422
0.0828054
0.0841529
0.0848628
0.0859324
0.1
0.1
0.1
0.1
0.1
0.1
0.1
0.1
0.1
0.1
0.1
0.1
0.1
0.1
0.1
0.1
0.1
0.1
0.1
0.1
0.1
0.1
0.1
0.1
)
;
    }
    defaultFaces
    {
        type            empty;
    }
}


// ************************************************************************* //
