/*--------------------------------*- C++ -*----------------------------------*\
  =========                 |
  \\      /  F ield         | OpenFOAM: The Open Source CFD Toolbox
   \\    /   O peration     | Website:  https://openfoam.org
    \\  /    A nd           | Version:  13
     \\/     M anipulation  |
\*---------------------------------------------------------------------------*/
FoamFile
{
    format      ascii;
    class       volScalarField;
    location    "1.8";
    object      k;
}
// * * * * * * * * * * * * * * * * * * * * * * * * * * * * * * * * * * * * * //

dimensions      [0 2 -2 0 0 0 0];

internalField   nonuniform List<scalar> 
2268
(
0.00122384
0.0032242
0.0049227
0.00640571
0.00769038
0.00879004
0.00972752
0.0105362
0.0112508
0.0118983
0.0124991
0.0130751
0.0136583
0.0142757
0.014867
0.0153926
0.0157682
0.0158354
0.0153971
0.0141868
0.0118129
0.00784687
0.00294463
0.00271698
0.00741645
0.0110556
0.0141927
0.0168905
0.0191938
0.0211564
0.0228482
0.0243401
0.0256886
0.0269406
0.0281448
0.0293454
0.0305206
0.0316271
0.032606
0.0333085
0.0334616
0.0326973
0.0305034
0.0261254
0.0186323
0.00731368
0.00377569
0.0100974
0.0147338
0.0187146
0.0221335
0.0250535
0.0275445
0.0296911
0.0315784
0.0332761
0.0348434
0.0363404
0.0378185
0.0392536
0.0406049
0.0418051
0.0426886
0.0429574
0.0422053
0.0398519
0.0349812
0.0261809
0.010971
0.00471082
0.0122709
0.0176249
0.0222034
0.0261378
0.0295041
0.0323823
0.0348675
0.0370532
0.0390158
0.0408223
0.0425417
0.0442294
0.0458613
0.0474
0.0487819
0.0498432
0.0502916
0.0497306
0.0475769
0.0428178
0.0335195
0.0150028
0.00561863
0.0141867
0.0201542
0.0252329
0.0296013
0.0333472
0.0365598
0.0393429
0.0417945
0.043994
0.046014
0.0479331
0.0498038
0.0516103
0.0533192
0.0548754
0.0561257
0.0567992
0.0565346
0.0547847
0.0504978
0.0412346
0.0197931
0.00653574
0.0159272
0.0224807
0.0280257
0.0327972
0.0368963
0.0404215
0.043485
0.0461877
0.0486093
0.0508267
0.0529263
0.0549635
0.0569294
0.058797
0.0605205
0.0619624
0.0628833
0.0629699
0.0617428
0.0581986
0.0495619
0.026035
0.00722554
0.0174809
0.0246656
0.0306827
0.0358554
0.0403027
0.0441333
0.0474706
0.0504172
0.0530518
0.0554523
0.0577146
0.0599029
0.0620162
0.0640305
0.0659088
0.067536
0.0687072
0.0691591
0.0685032
0.0658982
0.0586588
0.0352654
0.00753163
0.0187733
0.0265266
0.0329631
0.0385244
0.0433602
0.0475684
0.0512488
0.054493
0.0573698
0.0599554
0.0623682
0.0647
0.0669541
0.0690994
0.0711102
0.0729087
0.0743207
0.0751229
0.0750305
0.0734552
0.0684891
0.0509303
0.00387544
0.0078446
0.010082
0.0112529
0.0122605
0.0131324
0.0139444
0.0149726
0.01547
0.0152333
0.014387
0.0138115
0.0134896
0.0135127
0.0134621
0.0130374
0.0116502
0.00853784
0.00214887
0.00953639
0.0182219
0.0226552
0.025203
0.0272657
0.0292042
0.0308984
0.0321091
0.032631
0.0324314
0.0315079
0.0305419
0.029815
0.0297998
0.0297339
0.0289775
0.0262805
0.0200682
0.006556
0.0154344
0.0263643
0.0309961
0.0339066
0.036248
0.0384614
0.0403134
0.0414149
0.0418489
0.0417123
0.0409855
0.0400483
0.0392928
0.039062
0.0386828
0.0374642
0.034141
0.026963
0.0107917
0.0229513
0.0349314
0.0384524
0.0411372
0.043876
0.0461581
0.0479483
0.0487807
0.0490029
0.0488285
0.0481871
0.0472785
0.0464406
0.0459431
0.0452192
0.0435865
0.0399384
0.0325085
0.015697
0.0311651
0.043655
0.0470545
0.0475487
0.051044
0.0537189
0.0552334
0.0555375
0.055405
0.0551012
0.0543583
0.0534192
0.0524886
0.0517351
0.0506858
0.0486789
0.0448074
0.0372976
0.0191257
0.0401304
0.0532033
0.0563488
0.05497
0.0582128
0.0613282
0.062364
0.0620944
0.0614399
0.0609424
0.0599921
0.0589306
0.0579279
0.0569468
0.0555555
0.0531597
0.0491258
0.0416432
0.0211739
0.050484
0.0634371
0.0652851
0.0627343
0.0651833
0.0684357
0.0689676
0.068126
0.0671048
0.0663645
0.0652216
0.0640239
0.0629522
0.0617825
0.0599971
0.0571413
0.0528886
0.0454557
0.0226299
0.0630661
0.074144
0.073555
0.0700603
0.0715578
0.074791
0.074972
0.0735526
0.0722551
0.071348
0.0701083
0.0688259
0.0676474
0.0662242
0.0640168
0.0606901
0.0560861
0.0484262
0.0238098
0.0085425
0.020808
0.0291703
0.0359549
0.0418116
0.0470088
0.0516714
0.0558664
0.0596253
0.062974
0.0659776
0.0687321
0.0713411
0.0738329
0.0761856
0.0783951
0.080431
0.0821554
0.0834021
0.0840292
0.0837902
0.0819544
0.0766667
0.0106167
0.0248297
0.0336186
0.0404489
0.0462188
0.0512842
0.0558405
0.0600089
0.0638664
0.0674606
0.0708325
0.0740297
0.0770773
0.0799738
0.0827089
0.0852885
0.0876851
0.0898119
0.0915894
0.0929873
0.0939782
0.094479
0.0946009
0.0133131
0.0297999
0.0389739
0.0458366
0.0515048
0.0564109
0.0608068
0.0648508
0.0686373
0.0722226
0.0756473
0.0789474
0.0821174
0.0851511
0.088039
0.0907798
0.0933666
0.0957797
0.0980165
0.100117
0.102157
0.104307
0.106954
0.0159114
0.0345455
0.0443016
0.051353
0.0570571
0.0619263
0.066276
0.0702916
0.0740654
0.0776506
0.0810896
0.0844004
0.0875658
0.0905901
0.0934758
0.0962403
0.0989184
0.101556
0.104224
0.107029
0.110097
0.113591
0.117592
0.0182067
0.0386324
0.0489973
0.056391
0.0622955
0.0672893
0.0717395
0.0758505
0.0797102
0.0833668
0.0868529
0.0901563
0.0932848
0.0962486
0.0990708
0.101805
0.104533
0.107349
0.110373
0.113763
0.117702
0.122309
0.127286
0.0194438
0.041424
0.0525284
0.0605159
0.0668464
0.0721628
0.0768556
0.0811547
0.0851746
0.0889631
0.0925143
0.0958327
0.0989258
0.101827
0.104593
0.107299
0.110038
0.112939
0.116205
0.120104
0.12491
0.130607
0.136352
0.0192102
0.0417516
0.0546562
0.0636797
0.0706654
0.076456
0.0815085
0.0860886
0.0903268
0.0942731
0.0979317
0.101283
0.104342
0.107183
0.109928
0.112665
0.115405
0.118315
0.121738
0.126108
0.131722
0.138312
0.144631
0.0187937
0.0424449
0.0566587
0.0664658
0.074023
0.080307
0.0858023
0.09074
0.095261
0.0994311
0.103217
0.106566
0.109527
0.112291
0.115098
0.118026
0.120795
0.123594
0.127077
0.13186
0.138216
0.145697
0.152666
0.0199504
0.0466208
0.0602793
0.0695994
0.0772033
0.0839647
0.0899851
0.0953846
0.100286
0.104743
0.108627
0.111823
0.114481
0.117062
0.120029
0.122912
0.124938
0.126897
0.129396
0.133073
0.138231
0.144404
0.150658
0.0214695
0.0487748
0.0637253
0.0731531
0.0804682
0.0877407
0.0938176
0.0990808
0.103918
0.108329
0.112021
0.114833
0.11703
0.119397
0.121888
0.124203
0.126087
0.127725
0.129766
0.132639
0.136553
0.141193
0.145671
0.0224413
0.0505713
0.0649931
0.0748463
0.0825816
0.0897222
0.095543
0.100378
0.104643
0.108462
0.111734
0.114434
0.116716
0.118885
0.121216
0.123448
0.125473
0.127394
0.129501
0.132121
0.135383
0.139033
0.14238
0.0229251
0.051411
0.0662274
0.0757803
0.0831718
0.0897502
0.0952596
0.0998347
0.103794
0.107262
0.110266
0.112891
0.115272
0.117565
0.119875
0.122121
0.124252
0.126326
0.128544
0.131089
0.134
0.137047
0.139652
0.0236402
0.0520973
0.0663228
0.0756214
0.0826951
0.0888099
0.0940354
0.0984618
0.102284
0.105611
0.108522
0.111141
0.113592
0.115961
0.118294
0.120558
0.122728
0.124877
0.127134
0.129605
0.132282
0.134975
0.137193
0.0243847
0.0519855
0.0655076
0.0745277
0.0814426
0.0872891
0.0923198
0.0966506
0.100414
0.103711
0.106626
0.109278
0.111773
0.114182
0.116528
0.118796
0.120989
0.123158
0.125389
0.127747
0.130218
0.132662
0.134677
0.0242923
0.0511241
0.0641023
0.0728784
0.0796784
0.0853739
0.0902803
0.0945443
0.0982811
0.101585
0.104541
0.107242
0.10978
0.112214
0.114565
0.116831
0.119023
0.121174
0.123341
0.125566
0.127839
0.130072
0.131947
0.0236855
0.0497455
0.0623171
0.0708913
0.0775857
0.083179
0.0879982
0.0922116
0.0959331
0.0992534
0.102251
0.105005
0.107586
0.110042
0.112395
0.114651
0.116823
0.118934
0.121018
0.123106
0.125193
0.127229
0.128972
0.0229352
0.048131
0.0603347
0.0687099
0.075282
0.0807773
0.0855221
0.0896898
0.093397
0.0967318
0.099767
0.102567
0.105188
0.107666
0.110022
0.112266
0.11441
0.116469
0.118466
0.120422
0.122336
0.124186
0.125788
0.0221224
0.0463969
0.0582285
0.0663889
0.0728184
0.0782065
0.0828759
0.0869965
0.0906866
0.0940314
0.0970973
0.0999379
0.102595
0.105098
0.107463
0.109699
0.111815
0.113825
0.115741
0.117578
0.119338
0.121015
0.122471
0.0212708
0.0445783
0.0560156
0.0639404
0.0702089
0.0754796
0.0800668
0.0841396
0.0878106
0.0911624
0.0942546
0.0971319
0.099826
0.102358
0.104739
0.106977
0.109076
0.111047
0.112896
0.114633
0.116264
0.117788
0.119102
0.0203716
0.0426664
0.0536832
0.0613541
0.0674488
0.0725957
0.0770974
0.0811247
0.0847784
0.088137
0.0912544
0.0941674
0.0968999
0.099466
0.101873
0.104123
0.10622
0.108168
0.109972
0.111636
0.113165
0.114565
0.115753
0.0194005
0.0406339
0.0512087
0.058615
0.0645315
0.0695556
0.0739765
0.0779602
0.0816026
0.0849714
0.0881155
0.0910653
0.0938385
0.0964439
0.0988844
0.10116
0.103269
0.105213
0.106994
0.108614
0.110074
0.111381
0.112471
0.0183335
0.038457
0.0485765
0.0557172
0.0614601
0.0663693
0.0707185
0.0746646
0.0783028
0.0816871
0.0848608
0.0878492
0.0906653
0.0933138
0.0957943
0.0981037
0.100239
0.102197
0.103977
0.105579
0.107002
0.108251
0.109275
0.0171557
0.0361285
0.0457901
0.052673
0.0582539
0.0630609
0.0673507
0.0712696
0.0749067
0.0783135
0.0815199
0.0845481
0.0874076
0.0901005
0.0926241
0.0949733
0.0971427
0.0991274
0.100925
0.102532
0.103947
0.105169
0.106161
0.0158715
0.033666
0.042878
0.0495183
0.0549534
0.0596736
0.0639172
0.0678192
0.0714611
0.0748905
0.0781316
0.0811988
0.0840998
0.0868352
0.0894009
0.0917909
0.0939985
0.0960175
0.0978434
0.0994716
0.100899
0.102122
0.103111
0.0145356
0.0311164
0.0398981
0.0463157
0.0516231
0.0562721
0.0604815
0.0643747
0.068025
0.071475
0.0747469
0.0778497
0.080787
0.0835589
0.0861613
0.0885877
0.0908314
0.0928853
0.0947439
0.0964018
0.0978539
0.0990962
0.100103
0.0132668
0.0285633
0.0369396
0.0431556
0.0483528
0.0529452
0.0571297
0.0610181
0.0646763
0.0681423
0.0714354
0.0745634
0.0775279
0.080326
0.0829545
0.0854079
0.0876794
0.089762
0.0916507
0.0933385
0.0948199
0.0960901
0.097127
0.0120585
0.0261434
0.0341407
0.0401743
0.0452734
0.0498127
0.0539723
0.0578523
0.0615121
0.0649851
0.0682861
0.0714226
0.0743961
0.0772051
0.0798447
0.0823102
0.0845957
0.0866957
0.0886043
0.090315
0.0918218
0.0931194
0.0941892
0.010955
0.0239849
0.0316408
0.0375117
0.0425243
0.0470159
0.0511484
0.0550109
0.058656
0.0621138
0.0654004
0.0685237
0.071486
0.0742826
0.0769112
0.0793685
0.0816497
0.0837496
0.0856624
0.0873824
0.0889035
0.09022
0.0913169
0.0100257
0.0222172
0.0295833
0.0353137
0.0402484
0.0446918
0.0487889
0.0526198
0.0562316
0.0596527
0.0628993
0.06598
0.0688985
0.0716545
0.0742458
0.0766701
0.0789234
0.0810007
0.0828972
0.0846078
0.0861265
0.0874471
0.0885574
0.00933622
0.0209497
0.0280958
0.0337133
0.0385787
0.0429699
0.0470186
0.0507981
0.0543525
0.0577096
0.060887
0.0638952
0.06674
0.0694239
0.0719472
0.0743085
0.0765051
0.0785336
0.0803896
0.0820684
0.0835642
0.0848702
0.0859759
0.00893101
0.0202558
0.0272723
0.0328144
0.037622
0.0419563
0.0459408
0.0496457
0.0531149
0.0563778
0.0594543
0.062358
0.0650975
0.0676781
0.0701024
0.072371
0.0744828
0.0764351
0.0782246
0.0798468
0.0812963
0.0825669
0.0836479
0.00883059
0.0201728
0.027169
0.0326844
0.0374513
0.0417254
0.0456293
0.0492347
0.0525893
0.0557263
0.0586698
0.0614371
0.0640404
0.0664877
0.068784
0.0709319
0.0729316
0.0747818
0.0764798
0.0780215
0.079402
0.0806149
0.0816502
0.00903582
0.0207122
0.0278151
0.0333636
0.038112
0.0423239
0.0461297
0.0496096
0.052819
0.0557983
0.0585774
0.0611782
0.0636165
0.0659033
0.0680459
0.0700484
0.0719124
0.0736376
0.0752219
0.0766618
0.0779524
0.0790876
0.0800576
0.0095431
0.0218867
0.0292391
0.0348879
0.03964
0.0437837
0.0474692
0.0507932
0.0538247
0.0566138
0.059198
0.0616043
0.0638523
0.0659557
0.0679233
0.0697606
0.0714701
0.073052
0.0745049
0.0758255
0.0770092
0.0780501
0.0789383
0.0103623
0.0237401
0.0314992
0.0373132
0.0420793
0.0461344
0.0496645
0.0527933
0.0556083
0.0581727
0.0605321
0.0627187
0.0647552
0.0666571
0.0684345
0.0700931
0.0716354
0.0730618
0.0743709
0.07556
0.0766247
0.0775591
0.0783536
0.0115361
0.0263781
0.0347062
0.0407283
0.0454869
0.0494025
0.052719
0.0555977
0.0581496
0.0604518
0.0625574
0.0645027
0.0663122
0.0680021
0.069582
0.0710566
0.0724274
0.0736936
0.0748537
0.0759053
0.0768445
0.077666
0.0783606
0.0131535
0.0299867
0.0390282
0.0452434
0.0499105
0.0535865
0.0565984
0.0591541
0.0613885
0.0633899
0.0652166
0.0669059
0.068482
0.0699601
0.0713475
0.0726457
0.0738527
0.0749651
0.0759804
0.0768965
0.077711
0.07842
0.0790156
0.0153768
0.0348458
0.0446664
0.0509411
0.0553321
0.058602
0.0611834
0.0633293
0.0651901
0.0668582
0.0683906
0.0698218
0.0711731
0.0724568
0.0736761
0.0748259
0.0758971
0.0768798
0.0777699
0.078564
0.0792635
0.0798692
0.0803769
0.0184635
0.0413065
0.0517766
0.0577744
0.061568
0.0641975
0.0662007
0.0678531
0.0692982
0.0706175
0.0718595
0.0730505
0.0742067
0.0753379
0.076442
0.0775034
0.078501
0.0794103
0.0802246
0.0809287
0.081535
0.0820588
0.0825065
0.022933
0.0497627
0.0603463
0.0654101
0.0681368
0.0698578
0.0711544
0.0722657
0.0732895
0.0742772
0.0752608
0.076254
0.0772685
0.0783153
0.0793896
0.0804636
0.0815023
0.082452
0.083311
0.0839902
0.0845398
0.0850232
0.0854822
0.0299345
0.0604856
0.0700255
0.0729944
0.074116
0.0747381
0.0753003
0.0759082
0.0765694
0.0772884
0.0780774
0.0789362
0.0798753
0.0809149
0.0820565
0.0832677
0.0845142
0.0857017
0.0869062
0.0876752
0.0882156
0.0887449
0.089476
0.0422169
0.0728609
0.079277
0.0786832
0.0780305
0.0777117
0.0777413
0.0780228
0.0784648
0.0790293
0.0797137
0.0805081
0.081425
0.0824983
0.0837443
0.0851432
0.0867015
0.0883206
0.0904762
0.0914441
0.0920013
0.0927539
0.0951149
0.0598087
0.056333
0.0568272
0.0606761
0.094488
0.0952465
0.0970408
0.099679
0.109434
0.111135
0.112716
0.113899
0.120519
0.122114
0.123188
0.123572
0.130346
0.131755
0.13245
0.132367
0.139308
0.140479
0.140874
0.140482
0.147789
0.149084
0.14943
0.148677
0.156248
0.157958
0.159274
0.159204
0.153866
0.155143
0.155862
0.155901
0.148272
0.149625
0.150758
0.151712
0.144153
0.145077
0.145867
0.146539
0.140971
0.141659
0.142217
0.142704
0.138323
0.138917
0.139364
0.13972
0.135761
0.136346
0.136779
0.137102
0.133026
0.133632
0.134094
0.134441
0.130036
0.130655
0.131148
0.131537
0.126809
0.127418
0.127927
0.128345
0.123421
0.123997
0.124491
0.124915
0.119964
0.120489
0.120947
0.121347
0.116525
0.11699
0.117396
0.117753
0.113161
0.11357
0.113923
0.114228
0.109903
0.110266
0.110573
0.11083
0.106751
0.107084
0.107358
0.107579
0.103687
0.104004
0.104262
0.104462
0.100684
0.101001
0.101257
0.101452
0.0977257
0.098052
0.098317
0.0985197
0.0948107
0.0951513
0.0954316
0.095649
0.0919599
0.0923151
0.0926119
0.0928465
0.0892161
0.0895831
0.0898933
0.0901427
0.0866376
0.0870099
0.0873276
0.0875871
0.0842982
0.0846671
0.0849847
0.0852475
0.0822753
0.0826318
0.0829404
0.0831977
0.0806437
0.0809792
0.0812699
0.0815129
0.0794736
0.07978
0.080045
0.080266
0.0788293
0.0791008
0.0793343
0.0795274
0.0787721
0.0790057
0.0792045
0.0793667
0.0793643
0.0795606
0.0797255
0.0798576
0.0806721
0.0808373
0.0809745
0.0810827
0.0827697
0.0829177
0.0830415
0.0831397
0.085753
0.0859082
0.0860425
0.086154
0.0898174
0.0900068
0.0901759
0.0903246
0.0955474
0.0957314
0.0958913
0.0960399
0.0790883
0.0877311
0.0843859
0.0804372
0.0806428
0.0835742
0.0833169
0.0811584
0.0796433
0.0786959
0.0773936
0.0759961
0.0745101
0.072534
0.069676
0.0656104
0.0602641
0.0516509
0.0250837
0.104174
0.10183
0.0966773
0.0921762
0.091269
0.0932089
0.0926193
0.0901319
0.0885793
0.0877585
0.0863885
0.0845353
0.0823189
0.0794473
0.075592
0.0702935
0.0632202
0.0521226
0.0249949
0.114571
0.110891
0.10614
0.10173
0.100233
0.101036
0.100413
0.0981719
0.0966329
0.0956115
0.0939201
0.0914938
0.0884793
0.0847318
0.0797742
0.0730562
0.0643543
0.0517481
0.0247021
0.122948
0.119014
0.114212
0.109805
0.107707
0.107643
0.107035
0.105318
0.103717
0.102133
0.0998441
0.0966973
0.0928152
0.0880915
0.0821702
0.07474
0.0654791
0.0520676
0.0247045
0.131098
0.126655
0.121407
0.116828
0.114302
0.113541
0.112748
0.111232
0.109405
0.107115
0.103999
0.100091
0.0955608
0.090326
0.0841053
0.0765834
0.0670579
0.0529069
0.0248836
0.138639
0.133351
0.127701
0.123031
0.120182
0.118799
0.117613
0.115873
0.113558
0.110595
0.106872
0.102532
0.0977421
0.0924036
0.0861967
0.0786317
0.0687373
0.0538227
0.025094
0.145805
0.139305
0.133295
0.128504
0.125391
0.12349
0.121811
0.119686
0.116905
0.113432
0.109322
0.104744
0.0998258
0.0944232
0.0881505
0.0803865
0.0699597
0.0542613
0.0251174
0.153674
0.145336
0.139196
0.133986
0.130421
0.127931
0.125697
0.123163
0.120003
0.11615
0.111734
0.106917
0.1018
0.0961961
0.0896297
0.0813734
0.0702165
0.0536951
0.0247252
0.15569
0.152807
0.147224
0.140412
0.13628
0.133098
0.130079
0.126949
0.123377
0.119136
0.114377
0.109183
0.103682
0.0976866
0.0906266
0.0816968
0.0696588
0.0522097
0.0239678
0.152501
0.153803
0.152255
0.148217
0.144604
0.140273
0.135882
0.132081
0.128011
0.123078
0.117747
0.111881
0.105669
0.0990029
0.0912667
0.0816278
0.0688378
0.0506791
0.023408
0.147409
0.148757
0.149521
0.150857
0.150723
0.148176
0.144189
0.140117
0.135203
0.128868
0.1228
0.115768
0.108354
0.100705
0.0920939
0.0816803
0.0683359
0.0498972
0.0235167
0.143331
0.144066
0.144852
0.146287
0.147699
0.148013
0.147867
0.146939
0.143272
0.137417
0.13067
0.121876
0.112634
0.103991
0.0945535
0.0833552
0.0697086
0.0506293
0.0249305
0.1401
0.140256
0.14052
0.14132
0.142188
0.14241
0.142369
0.142289
0.141764
0.140972
0.137376
0.129586
0.118224
0.109687
0.100116
0.0876504
0.0734247
0.0526854
0.0281107
0.137376
0.137191
0.136943
0.136921
0.137011
0.136845
0.136367
0.135665
0.134716
0.133784
0.13228
0.126256
0.117697
0.109457
0.101695
0.089943
0.07549
0.0573475
0.0315328
0.134741
0.134493
0.134014
0.133485
0.132954
0.132242
0.131277
0.130049
0.128649
0.127057
0.124598
0.11964
0.113222
0.106662
0.0994576
0.089451
0.077378
0.0610711
0.0339622
0.131913
0.131782
0.131343
0.130669
0.129844
0.128788
0.127453
0.125828
0.124001
0.121907
0.1191
0.114929
0.109668
0.103387
0.0959291
0.0869261
0.0762119
0.0617575
0.0336947
0.128796
0.128839
0.128577
0.127992
0.127151
0.126003
0.124497
0.122595
0.120426
0.118026
0.115194
0.111593
0.107029
0.101107
0.0936454
0.0847665
0.0743332
0.0601397
0.0314429
0.125406
0.125591
0.125514
0.125094
0.124362
0.12327
0.121753
0.119775
0.117456
0.114937
0.11218
0.108903
0.104619
0.0988652
0.0913945
0.0824429
0.071754
0.0571781
0.0287287
0.12183
0.122083
0.122117
0.121822
0.1212
0.120196
0.118747
0.116832
0.114549
0.112042
0.109304
0.106041
0.101744
0.0958924
0.0883472
0.0791909
0.0680696
0.0531377
0.0256402
0.118186
0.118428
0.118475
0.118217
0.117637
0.116683
0.115302
0.113477
0.111272
0.108776
0.105947
0.102506
0.0979867
0.0919903
0.0843316
0.0749795
0.0635467
0.0484842
0.022345
0.114589
0.114762
0.114742
0.114435
0.113818
0.112844
0.111471
0.109679
0.107492
0.104932
0.101917
0.0982075
0.0934386
0.0872808
0.0795603
0.0701482
0.0586624
0.0438198
0.0193504
0.11112
0.111198
0.111071
0.110662
0.109948
0.108891
0.107457
0.105618
0.103367
0.100676
0.0974413
0.0934753
0.0885018
0.082271
0.0746113
0.065359
0.0541562
0.0398954
0.0171524
0.107812
0.107806
0.10757
0.107045
0.106213
0.105044
0.103507
0.101572
0.0992083
0.0963642
0.0929445
0.088801
0.0837341
0.0775586
0.0701232
0.0612584
0.0506257
0.0372009
0.0159205
0.104664
0.104604
0.104285
0.103664
0.102729
0.101456
0.0998166
0.0977814
0.0953116
0.0923495
0.0888215
0.0846118
0.079581
0.073594
0.0665225
0.0582004
0.048292
0.0357643
0.015486
0.101647
0.10157
0.101209
0.100532
0.0995334
0.0981918
0.096485
0.0943845
0.0918538
0.0888431
0.0852974
0.0811308
0.0762461
0.070543
0.0639096
0.0561789
0.0469953
0.0352574
0.0155379
0.0987292
0.0986692
0.0983047
0.0976173
0.0966011
0.0952396
0.0935145
0.0914019
0.0888702
0.0858859
0.082404
0.0783633
0.0736941
0.0683163
0.0621252
0.0549445
0.046387
0.035263
0.0158016
0.0958867
0.0958676
0.0955325
0.0948716
0.0938796
0.0925434
0.0908481
0.0887748
0.0862994
0.0833993
0.0800387
0.0761728
0.0717472
0.0666917
0.0609012
0.0541864
0.046128
0.0354565
0.0161126
0.0931177
0.0931511
0.092866
0.0922565
0.0913183
0.0900406
0.088411
0.0864143
0.0840366
0.0812577
0.07805
0.0743781
0.0701952
0.0654342
0.0599862
0.0536497
0.0459794
0.0356448
0.0163713
0.090445
0.0905316
0.0903036
0.0897569
0.0888877
0.0876865
0.0861428
0.0842463
0.0819862
0.0793453
0.0763008
0.0728219
0.0688648
0.0643622
0.059201
0.0531701
0.0458055
0.0357339
0.0165405
0.0879139
0.0880456
0.08787
0.0873854
0.0865872
0.0854665
0.0840147
0.0822248
0.080086
0.0775836
0.0746972
0.0713981
0.0676428
0.0633629
0.0584415
0.0526606
0.0455441
0.0356915
0.0166053
0.085586
0.0857474
0.0856125
0.0851799
0.0844441
0.0833964
0.0820308
0.0803395
0.0783127
0.0759369
0.073193
0.0700526
0.0664722
0.0623814
0.0576607
0.0520876
0.0451781
0.0355167
0.0165743
0.0835331
0.0837052
0.0835942
0.0831973
0.0825078
0.0815184
0.080222
0.0786112
0.0766769
0.0744064
0.0717812
0.068773
0.0653375
0.0614034
0.0568491
0.051449
0.0447152
0.0352271
0.0164618
0.0818304
0.0819933
0.081887
0.0815064
0.0808441
0.0798913
0.0786411
0.077086
0.0752176
0.0730238
0.0704865
0.0675778
0.0642534
0.0604415
0.0560198
0.0507612
0.044176
0.0348454
0.0162846
0.0805527
0.0806882
0.0805685
0.0801854
0.0795292
0.0785903
0.0773609
0.0758337
0.0740003
0.0718491
0.0693627
0.0665137
0.0632594
0.0595293
0.0552023
0.0500515
0.0435877
0.0343991
0.0160601
0.0797737
0.079868
0.0797204
0.0793191
0.0786519
0.0777075
0.0764766
0.0749511
0.0731222
0.0709777
0.0685
0.065663
0.0624267
0.0587258
0.0544442
0.0493585
0.0429826
0.0339149
0.0158042
0.0795675
0.0796137
0.0794309
0.0790036
0.0783168
0.0773567
0.0761118
0.0745717
0.072725
0.0705566
0.0680462
0.0651669
0.061883
0.0581389
0.0538305
0.0487446
0.0424045
0.0334252
0.0155355
0.0800145
0.0800147
0.0797994
0.0793502
0.0786492
0.0776798
0.0764272
0.0748768
0.0730115
0.0708088
0.0682392
0.065269
0.0618636
0.0579807
0.0535369
0.0483381
0.0419331
0.0329716
0.0152724
0.081206
0.0811744
0.0809419
0.0804897
0.0797985
0.0788494
0.077624
0.076102
0.0742574
0.0720542
0.0694444
0.0663747
0.0627996
0.0586834
0.0539614
0.0484567
0.041771
0.0326449
0.0150426
0.0832521
0.0832155
0.082994
0.0825733
0.0819366
0.0810649
0.079937
0.0785277
0.0768019
0.0747066
0.072168
0.0690989
0.0654217
0.0610816
0.0559954
0.0499341
0.0425533
0.0327591
0.0149
0.0862916
0.0862867
0.0861122
0.0857691
0.0852484
0.0845344
0.0836073
0.0824411
0.0809966
0.0792112
0.0769908
0.0742157
0.0707666
0.0665411
0.0613666
0.0547709
0.0463374
0.0348187
0.0150825
0.0905198
0.0905707
0.0904729
0.0902524
0.0899122
0.0894436
0.088833
0.0880611
0.087097
0.0858882
0.0843512
0.0823713
0.0798234
0.0765824
0.0723953
0.0664829
0.0584551
0.0458514
0.0169127
0.0962266
0.0962899
0.0962674
0.0961943
0.0960785
0.0959184
0.0957097
0.0954463
0.0951178
0.0947055
0.0941786
0.0934921
0.0925951
0.0914337
0.0898801
0.0874372
0.0844289
0.0787637
0.0292508
)
;

boundaryField
{
    leftWall
    {
        type            kqRWallFunction;
        value           nonuniform List<scalar> 
50
(
0.00122384
0.00271698
0.00377569
0.00471082
0.00561863
0.00653574
0.00722554
0.00753163
0.0085425
0.0106167
0.0133131
0.0159114
0.0182067
0.0194438
0.0192102
0.0187937
0.0199504
0.0214695
0.0224413
0.0229251
0.0236402
0.0243847
0.0242923
0.0236855
0.0229352
0.0221224
0.0212708
0.0203716
0.0194005
0.0183335
0.0171557
0.0158715
0.0145356
0.0132668
0.0120585
0.010955
0.0100257
0.00933622
0.00893101
0.00883059
0.00903582
0.0095431
0.0103623
0.0115361
0.0131535
0.0153768
0.0184635
0.022933
0.0299345
0.0422169
)
;
    }
    rightWall
    {
        type            kqRWallFunction;
        value           nonuniform List<scalar> 
50
(
0.00214887
0.006556
0.0107917
0.015697
0.0191257
0.0211739
0.0226299
0.0238098
0.0250837
0.0249949
0.0247021
0.0247045
0.0248836
0.025094
0.0251174
0.0247252
0.0239678
0.023408
0.0235167
0.0249305
0.0281107
0.0315328
0.0339622
0.0336947
0.0314429
0.0287287
0.0256402
0.022345
0.0193504
0.0171524
0.0159205
0.015486
0.0155379
0.0158016
0.0161126
0.0163713
0.0165405
0.0166053
0.0165743
0.0164618
0.0162846
0.0160601
0.0158042
0.0155355
0.0152724
0.0150426
0.0149
0.0150825
0.0169127
0.0292508
)
;
    }
    lowerWall
    {
        type            kqRWallFunction;
        value           nonuniform List<scalar> 
62
(
0.00122384
0.0032242
0.0049227
0.00640571
0.00769038
0.00879004
0.00972752
0.0105362
0.0112508
0.0118983
0.0124991
0.0130751
0.0136583
0.0142757
0.014867
0.0153926
0.0157682
0.0158354
0.0153971
0.0141868
0.0118129
0.00784687
0.00294463
0.00294463
0.00731368
0.010971
0.0150028
0.0197931
0.026035
0.0352654
0.0509303
0.0598087
0.056333
0.0568272
0.0606761
0.00387544
0.00953639
0.0154344
0.0229513
0.0311651
0.0401304
0.050484
0.0630661
0.00387544
0.0078446
0.010082
0.0112529
0.0122605
0.0131324
0.0139444
0.0149726
0.01547
0.0152333
0.014387
0.0138115
0.0134896
0.0135127
0.0134621
0.0130374
0.0116502
0.00853784
0.00214887
)
;
    }
    atmosphere
    {
        type            inletOutlet;
        inletValue      uniform 0.1;
        value           nonuniform List<scalar> 
46
(
0.0422169
0.0728609
0.079277
0.0786832
0.0780305
0.0777117
0.0777413
0.0780228
0.0784648
0.0790293
0.0797137
0.0805081
0.081425
0.0824983
0.0837443
0.0851432
0.0867015
0.0883206
0.0904762
0.0914441
0.0920013
0.0927539
0.1
0.1
0.1
0.1
0.1
0.1
0.1
0.1
0.1
0.1
0.1
0.1
0.1
0.1
0.1
0.1
0.1
0.1
0.1
0.1
0.1
0.1
0.1
0.1
)
;
    }
    defaultFaces
    {
        type            empty;
    }
}


// ************************************************************************* //
