/*--------------------------------*- C++ -*----------------------------------*\
  =========                 |
  \\      /  F ield         | OpenFOAM: The Open Source CFD Toolbox
   \\    /   O peration     | Website:  https://openfoam.org
    \\  /    A nd           | Version:  13
     \\/     M anipulation  |
\*---------------------------------------------------------------------------*/
FoamFile
{
    format      ascii;
    class       volScalarField;
    location    "1.8";
    object      nut;
}
// * * * * * * * * * * * * * * * * * * * * * * * * * * * * * * * * * * * * * //

dimensions      [0 2 -1 0 0 0 0];

internalField   nonuniform List<scalar> 
2268
(
2.36692e-05
3.8394e-05
4.73537e-05
5.39395e-05
5.90299e-05
6.30584e-05
6.63181e-05
6.9042e-05
7.14046e-05
7.35229e-05
7.54889e-05
7.7399e-05
7.94207e-05
8.14848e-05
8.3323e-05
8.49065e-05
8.59993e-05
8.61973e-05
8.49857e-05
8.1553e-05
7.43675e-05
6.03878e-05
3.57177e-05
7.50851e-05
0.00027909
0.000382298
0.000456689
0.000514729
0.000561503
0.000600539
0.000634965
0.000667146
0.000698454
0.000730068
0.000763344
0.000798568
0.000831186
0.000860509
0.000886522
0.000906384
0.000914319
0.000901674
0.000853639
0.000742552
0.000518146
0.000121133
8.89805e-05
0.000493732
0.000716884
0.000880112
0.00100912
0.00111391
0.0012018
0.00127934
0.00135164
0.00142189
0.00149267
0.00156635
0.00164314
0.00171637
0.00178282
0.00183934
0.00187731
0.00188109
0.00182698
0.00167674
0.00137121
0.000845933
0.000148493
9.96705e-05
0.000655477
0.000990791
0.00123935
0.00143807
0.0016009
0.0017381
0.00185887
0.00197035
0.00207726
0.00218331
0.00229149
0.00240159
0.00250608
0.00259949
0.00267494
0.00271784
0.00270332
0.00259397
0.0023325
0.0018421
0.00107249
0.000173061
0.000108755
0.000777349
0.00121324
0.00154054
0.00180472
0.00202291
0.00220765
0.00236995
0.00251827
0.00265836
0.00279481
0.00293129
0.00306641
0.00319319
0.00330436
0.00339007
0.00343117
0.00339611
0.00323735
0.00288306
0.00224053
0.00126466
0.00019778
0.000116902
0.000867928
0.00139308
0.00179267
0.00211759
0.00238769
0.00261736
0.00281885
0.00300137
0.00317139
0.00333416
0.00349374
0.00364859
0.00379201
0.00391579
0.00400815
0.00404721
0.00399753
0.00380509
0.00338625
0.00262585
0.00145636
0.000225781
0.000123097
0.000930983
0.00153548
0.00200206
0.00238335
0.00270181
0.00297358
0.00321175
0.00342597
0.00362324
0.00380929
0.00398863
0.00416017
0.0043175
0.00445197
0.00455089
0.0045914
0.00453677
0.00433013
0.00387968
0.00304209
0.0016831
0.000262177
0.000124671
0.000965953
0.00164208
0.00217138
0.00260532
0.00296925
0.00328084
0.00355361
0.00379755
0.00402005
0.00422733
0.00442453
0.00461161
0.00478205
0.00492716
0.00503431
0.00508119
0.00503204
0.00483107
0.00438604
0.00353623
0.00203651
0.000315652
4.13057e-05
5.83005e-05
6.56654e-05
6.93981e-05
7.28035e-05
7.62095e-05
7.84471e-05
8.16399e-05
8.36987e-05
8.37579e-05
8.15201e-05
7.87609e-05
7.67079e-05
7.58526e-05
7.54986e-05
7.46771e-05
7.13779e-05
6.18453e-05
3.14619e-05
0.000155197
0.000362472
0.000474134
0.00055505
0.000630784
0.000703346
0.000755068
0.000781809
0.000792829
0.000788461
0.000758439
0.000707915
0.00064957
0.000626614
0.000627733
0.000644309
0.000641882
0.000548209
0.000128525
0.000197032
0.000501861
0.00070774
0.00089923
0.00110744
0.00130559
0.00144737
0.00151787
0.00153919
0.00152376
0.00146629
0.00137919
0.00128621
0.0012426
0.00123645
0.00124152
0.00119015
0.000940745
0.000164964
0.000236311
0.000604099
0.000864447
0.00112324
0.00145512
0.0017883
0.00202781
0.00214149
0.00216988
0.00214791
0.00207988
0.00197906
0.00187309
0.00181502
0.00179202
0.00175835
0.00162855
0.00121405
0.000198198
0.000271867
0.000732752
0.0010919
0.00136839
0.00178129
0.00222643
0.00254634
0.00269179
0.00272115
0.00269632
0.00262698
0.00252454
0.00241401
0.00234218
0.00229233
0.00220489
0.0019869
0.00142233
0.000219302
0.000306626
0.000903245
0.00141593
0.00171457
0.0021563
0.00266877
0.00303611
0.00320035
0.00322539
0.0031979
0.00312928
0.00302908
0.00291581
0.00282654
0.00274094
0.00259184
0.00228346
0.00158926
0.000231346
0.0003438
0.00112186
0.00182894
0.0021639
0.00259347
0.00312631
0.0035096
0.00367892
0.00369805
0.00366762
0.00359928
0.00349918
0.00338059
0.00326981
0.00314155
0.00292587
0.0025263
0.00171961
0.00023894
0.000386235
0.00143328
0.00232811
0.00269081
0.00308197
0.00359736
0.00397237
0.00413452
0.00414585
0.00411257
0.00404305
0.00393898
0.00380959
0.00367163
0.00349482
0.00321063
0.00272125
0.00181271
0.000244548
0.000130005
0.000995322
0.00177385
0.00239153
0.00289809
0.00332486
0.003692
0.00401374
0.0043003
0.00455959
0.00479848
0.00502115
0.00522922
0.00541749
0.00557788
0.00569875
0.0057605
0.00573146
0.00556275
0.00517707
0.00445662
0.0032811
0.00172162
0.000143253
0.00109964
0.00196011
0.00264725
0.00321529
0.00369741
0.0041153
0.00448414
0.00481486
0.00511548
0.00539208
0.00564823
0.00588332
0.00609468
0.0062772
0.00642246
0.00651579
0.00653384
0.00644209
0.00619066
0.00571437
0.00495537
0.00392863
0.000159469
0.00123599
0.00216319
0.00289867
0.00350962
0.00403266
0.00449012
0.00489667
0.00526241
0.00559468
0.00589897
0.00617877
0.00643309
0.00666147
0.00686158
0.00702842
0.00715273
0.00721955
0.00720744
0.00708773
0.00682851
0.00641288
0.005876
0.000173353
0.00133295
0.00233144
0.00311494
0.00376598
0.00432674
0.00482107
0.00526279
0.00566065
0.00602098
0.00634879
0.00664678
0.00691551
0.00715656
0.00737006
0.00755431
0.00770481
0.00781355
0.00786879
0.00785525
0.00775778
0.00757275
0.00732385
0.000184654
0.00139387
0.00244002
0.00326928
0.00396373
0.00456665
0.0051018
0.0055815
0.00601295
0.0064016
0.00675167
0.0070654
0.00734626
0.00759741
0.00782114
0.00801848
0.00818873
0.00832915
0.00843449
0.00849717
0.00850922
0.00846729
0.00837753
0.000191012
0.00141623
0.00248033
0.00335394
0.0040972
0.00474937
0.00533108
0.00585314
0.00632165
0.00674045
0.00711247
0.00744201
0.007734
0.00799371
0.0082255
0.00843193
0.00861465
0.00877511
0.00891364
0.0090277
0.00911185
0.00915771
0.0091515
0.000190821
0.0013303
0.00245192
0.00338133
0.004178
0.00488403
0.00551708
0.00608561
0.00659346
0.00704302
0.00743765
0.00778236
0.00808418
0.008351
0.00858927
0.00880185
0.00899032
0.00916024
0.00931759
0.0094635
0.00958988
0.00967977
0.00971342
0.000189802
0.0013141
0.00244803
0.0033999
0.00423466
0.00499077
0.00567596
0.00629185
0.00683909
0.00731899
0.00773438
0.00809141
0.00840016
0.00867248
0.00891635
0.00913313
0.00932105
0.00949012
0.00965295
0.00981233
0.00995691
0.0100681
0.0101241
0.000196918
0.0014812
0.00256103
0.00347519
0.0043134
0.0051062
0.00583546
0.00649366
0.00707654
0.0075828
0.00801398
0.00837715
0.00868671
0.00896028
0.0092075
0.00941919
0.00959037
0.00974289
0.00988816
0.0100284
0.0101542
0.0102475
0.0103001
0.000203308
0.00152858
0.00272827
0.00365359
0.00447332
0.00527111
0.00601935
0.00670009
0.00730299
0.00782266
0.0082592
0.0086204
0.00892387
0.00919165
0.00942574
0.0096236
0.00978644
0.00992654
0.0100555
0.0101742
0.010276
0.0103482
0.0103801
0.000208746
0.00165015
0.00288352
0.0038624
0.00469438
0.00547281
0.00620292
0.00687283
0.00746876
0.00798422
0.00841943
0.00878214
0.00908597
0.00934648
0.00957301
0.00976487
0.00992571
0.0100631
0.0101836
0.01029
0.0103782
0.0104385
0.0104607
0.00021109
0.00169866
0.00302993
0.00404733
0.00488626
0.00564745
0.00635475
0.00700248
0.00758173
0.00808702
0.00851866
0.00888277
0.00918946
0.00945029
0.00967381
0.00986355
0.0100238
0.0101598
0.0102768
0.0103769
0.0104572
0.0105104
0.010527
0.000215104
0.00177467
0.00314374
0.00418741
0.00503616
0.00578489
0.00646973
0.00709452
0.00765546
0.0081493
0.00857609
0.00894041
0.00924973
0.00951284
0.00973723
0.00992766
0.0100886
0.0102251
0.0103411
0.0104381
0.0105142
0.0105641
0.0105792
0.000218873
0.00181027
0.00321606
0.00428256
0.00514179
0.00588384
0.00655072
0.00715489
0.007698
0.00817959
0.00860017
0.00896312
0.0092741
0.00954007
0.00976728
0.00996057
0.0101243
0.0102628
0.0103794
0.0104754
0.0105497
0.0105986
0.0106148
0.000218963
0.00182376
0.00325333
0.00433778
0.00520612
0.00594464
0.00659809
0.00718502
0.00771201
0.0081814
0.0085949
0.00895538
0.00926733
0.00953623
0.00976722
0.00996473
0.0101326
0.0102745
0.0103931
0.0104898
0.010564
0.0106135
0.0106322
0.000216609
0.00181898
0.00325996
0.00435658
0.0052318
0.00596818
0.00661163
0.00718471
0.00769792
0.00815627
0.00856276
0.00892042
0.00923298
0.00950475
0.00973996
0.00994237
0.0101153
0.0102615
0.0103834
0.0104821
0.0105578
0.010609
0.0106308
0.000213467
0.00179882
0.00323962
0.00434205
0.00522121
0.00595575
0.00659153
0.00715378
0.00765587
0.00810498
0.00850544
0.00886058
0.00917376
0.00944847
0.0096881
0.00989577
0.0100742
0.0102255
0.0103516
0.0104537
0.0105319
0.0105857
0.0106111
0.000209848
0.00176767
0.00319738
0.00429845
0.0051776
0.00590942
0.006539
0.0070929
0.00758643
0.00802843
0.00842427
0.00877772
0.00909191
0.00936978
0.00961406
0.00982723
0.0100114
0.0101684
0.0102995
0.0104058
0.0104875
0.0105446
0.0105738
0.00020588
0.00172842
0.00313729
0.00422981
0.00510468
0.00583225
0.00645635
0.00700382
0.00749106
0.00792802
0.00832087
0.00867369
0.00898955
0.00927097
0.00952018
0.0097391
0.0099294
0.0100924
0.0102291
0.0103403
0.0104263
0.0104871
0.0105203
0.00020156
0.00168294
0.00306262
0.00414004
0.00500649
0.00572807
0.00634684
0.00688932
0.00737218
0.007806
0.00819742
0.00855077
0.00886905
0.00915452
0.00940898
0.00963392
0.00983057
0.0099999
0.0101426
0.0102593
0.0103501
0.0104152
0.0104526
0.000196793
0.00163237
0.00297601
0.00403275
0.0048872
0.00560119
0.0062146
0.00675309
0.00723317
0.00766548
0.0080569
0.00841188
0.00873335
0.00902336
0.00928339
0.00951457
0.00971778
0.0098937
0.0100428
0.0101653
0.0102615
0.0103314
0.0103734
0.000191453
0.00157746
0.00287962
0.00391128
0.00475099
0.00545621
0.00606432
0.00659967
0.00707831
0.00751056
0.00790325
0.00826083
0.00858615
0.00888109
0.00914691
0.00938447
0.00959437
0.00977703
0.0099327
0.0100615
0.0101635
0.0102386
0.0102856
0.00018542
0.00151874
0.00277527
0.00377886
0.0046022
0.00529821
0.00590144
0.00643464
0.00691295
0.0073464
0.00774144
0.00810241
0.00843206
0.00873217
0.00900384
0.00924774
0.00946427
0.00965366
0.009816
0.00995127
0.0100594
0.0101402
0.0101927
0.00017863
0.00145628
0.00266463
0.00363898
0.00444577
0.00513307
0.00573238
0.0062646
0.00674379
0.00717941
0.00757763
0.00794252
0.00827674
0.00858199
0.00885929
0.00910922
0.00933206
0.00952793
0.00969679
0.00983854
0.00995296
0.0100399
0.0100983
0.000171158
0.00138878
0.00254945
0.00349601
0.00428778
0.00496796
0.00556489
0.00609754
0.00657878
0.00701737
0.00741922
0.00778819
0.00812685
0.00843683
0.00871918
0.00897447
0.00920295
0.00940467
0.00957958
0.00972747
0.00984808
0.00994114
0.0100059
0.000163688
0.00131574
0.00243341
0.00335623
0.00413613
0.00481185
0.00540841
0.00594296
0.00642724
0.00686936
0.00727486
0.00764754
0.00798997
0.00830381
0.00859016
0.00884966
0.00908264
0.00928918
0.0094692
0.00962251
0.00974881
0.00984776
0.00991872
0.000156349
0.0012483
0.00232863
0.00323221
0.00400344
0.00467661
0.00527428
0.00581173
0.00629963
0.00674539
0.00715404
0.00752944
0.00787434
0.00819052
0.00847924
0.00874128
0.00897711
0.00918691
0.00937065
0.00952816
0.00965915
0.00976327
0.00983995
0.000149283
0.0011936
0.00224564
0.00313601
0.00390276
0.00457624
0.00517651
0.00571723
0.00620806
0.006656
0.00706622
0.00744262
0.0077881
0.00810448
0.00839329
0.00865563
0.00889213
0.00910311
0.00928865
0.00944864
0.00958284
0.00969091
0.00977232
0.00014298
0.00115691
0.00219359
0.00307882
0.00384605
0.00452257
0.00512649
0.00567028
0.00616297
0.0066114
0.00702084
0.00739543
0.00773835
0.00805195
0.00833805
0.00859796
0.00883251
0.00904215
0.00922713
0.00938746
0.00952294
0.00963327
0.00971795
0.000138031
0.00114165
0.00217911
0.00306911
0.00384236
0.00452447
0.00513249
0.00567837
0.00617102
0.00661741
0.00702315
0.00739278
0.00772993
0.00803744
0.00831748
0.00857168
0.00880116
0.00900662
0.00918843
0.00934668
0.00948125
0.00959183
0.00967797
0.000134955
0.00114881
0.00220475
0.00311025
0.00389515
0.00458503
0.00519707
0.0057435
0.00623364
0.00667499
0.00707373
0.00743499
0.00776295
0.00806096
0.00833165
0.00857698
0.00879836
0.00899674
0.00917265
0.0093263
0.00945763
0.00956638
0.00965209
0.000134084
0.00117698
0.00226777
0.00319864
0.0040003
0.00469984
0.00531563
0.00586092
0.00634598
0.00677922
0.00716768
0.00751724
0.00783274
0.0081181
0.0083764
0.00860997
0.00882053
0.00900923
0.00917679
0.00932353
0.00944948
0.00955441
0.00963787
0.000135492
0.00122226
0.00236029
0.00332435
0.00414714
0.00485813
0.00547754
0.00602018
0.00649777
0.00692005
0.00729519
0.00763003
0.00793018
0.00820017
0.00844354
0.00866299
0.00886049
0.00903742
0.00919463
0.00933258
0.00945136
0.00955082
0.0096305
0.000139086
0.00127993
0.00247258
0.00347542
0.00432311
0.0050473
0.0056702
0.00620862
0.00667629
0.00708474
0.00744362
0.00776096
0.00804324
0.00829561
0.00852205
0.00872557
0.00890837
0.00907198
0.0092174
0.00934516
0.00945548
0.00954822
0.00962299
0.000144748
0.00134683
0.00259836
0.00364447
0.00452034
0.00525875
0.005884
0.00641558
0.00686995
0.00726104
0.00760038
0.00789734
0.00815935
0.00839213
0.00860004
0.00878629
0.00895323
0.0091025
0.00923515
0.00935182
0.00945277
0.00953797
0.00960705
0.000152501
0.00142369
0.00273913
0.0038335
0.0047399
0.00549144
0.00611526
0.00663487
0.00707058
0.00743937
0.00775501
0.0080283
0.00826753
0.00847888
0.0086669
0.00883488
0.00898517
0.00911941
0.00923868
0.00934363
0.00943461
0.00951167
0.00957454
0.000162558
0.001515
0.00290421
0.0040535
0.00499084
0.00575041
0.00636478
0.00686374
0.00727288
0.00761288
0.00789979
0.00814576
0.00835969
0.00854793
0.00871494
0.00886392
0.00899707
0.00911593
0.00922147
0.00931428
0.00939478
0.00946319
0.0095194
0.000175345
0.0016264
0.00310661
0.00431923
0.00528397
0.00604061
0.00663237
0.00709859
0.00747147
0.00777551
0.00802867
0.00824403
0.00843068
0.00859467
0.00874007
0.00886979
0.00898578
0.0090894
0.00918127
0.00926173
0.00933129
0.00939054
0.00943959
0.000191405
0.00176172
0.00335884
0.0046424
0.00562308
0.00635826
0.00690983
0.00732978
0.00765723
0.00791964
0.00813574
0.00831884
0.00847771
0.00861751
0.00874156
0.0088526
0.0089522
0.00904174
0.00912096
0.00918942
0.00924781
0.00929753
0.00933901
0.000211533
0.00192226
0.00367712
0.00502751
0.00599617
0.00668284
0.00717551
0.00753858
0.00781588
0.00803547
0.00821499
0.00836733
0.00850037
0.00861775
0.00872183
0.00881575
0.00890051
0.00897881
0.009048
0.00910603
0.00915371
0.00919435
0.00922878
0.00023753
0.00212782
0.00411603
0.00546843
0.00636488
0.0069714
0.00739368
0.00769918
0.00793074
0.00811374
0.00826284
0.00839017
0.00850244
0.00860125
0.00868785
0.00876678
0.00883791
0.00890931
0.0089715
0.00902212
0.00906103
0.00909531
0.009126
0.000269607
0.00251718
0.00478435
0.00589474
0.00663899
0.00715586
0.00752075
0.00778658
0.00798957
0.00815096
0.00828226
0.00839508
0.0084952
0.00858221
0.00865628
0.00872353
0.0087811
0.00884835
0.00889718
0.00894303
0.00897663
0.00901053
0.00904515
0.000343819
0.000333917
0.000335839
0.000347078
0.00301586
0.00283295
0.00279305
0.00286184
0.00548062
0.00532013
0.00524021
0.00523299
0.00713399
0.00703432
0.00696048
0.00691358
0.00828335
0.00822356
0.00816483
0.0081088
0.00910112
0.00906011
0.00901056
0.00895382
0.00968986
0.00966337
0.00962299
0.00956769
0.0101188
0.0101044
0.010081
0.010038
0.0102953
0.0102795
0.010255
0.0102251
0.0103732
0.0103646
0.0103536
0.0103419
0.0104486
0.0104367
0.0104223
0.0104064
0.0105134
0.0105005
0.010484
0.010465
0.0105663
0.0105535
0.0105363
0.010515
0.010604
0.0105925
0.0105759
0.010554
0.0106244
0.0106148
0.0105996
0.0105785
0.0106264
0.0106189
0.0106056
0.010586
0.01061
0.0106046
0.0105933
0.0105757
0.0105758
0.0105724
0.0105631
0.0105475
0.0105254
0.0105238
0.0105163
0.0105026
0.0104607
0.0104608
0.010455
0.0104428
0.0103846
0.0103864
0.0103821
0.0103715
0.0103001
0.0103038
0.0103012
0.0102923
0.010211
0.0102168
0.0102162
0.0102091
0.0101207
0.0101289
0.0101307
0.0101258
0.0100328
0.0100437
0.0100481
0.0100459
0.00995024
0.00996411
0.0099714
0.00997204
0.00987593
0.0098927
0.00990293
0.00990658
0.00981223
0.00983163
0.00984462
0.00985115
0.00976092
0.00978247
0.0097978
0.00980685
0.00972287
0.00974592
0.00976301
0.00977407
0.00969766
0.00972147
0.00973963
0.00975206
0.00968293
0.00970678
0.00972532
0.00973848
0.00967404
0.00969731
0.00971568
0.00972905
0.00966428
0.00968654
0.00970432
0.00971753
0.00964561
0.00966658
0.00968353
0.00969637
0.00961005
0.00962954
0.00964551
0.00965786
0.00955154
0.00956936
0.00958417
0.00959588
0.00946796
0.00948381
0.00949718
0.00950797
0.00936305
0.0093765
0.00938791
0.00939726
0.0092479
0.00925827
0.00926685
0.00927379
0.00914007
0.00914656
0.00915089
0.00915377
0.00905496
0.00905724
0.00905652
0.00905404
0.00114132
0.00232248
0.00320191
0.00360679
0.00392008
0.00435114
0.00467245
0.00480894
0.00481594
0.0047773
0.00469917
0.00458273
0.00442773
0.00423623
0.00397694
0.00358343
0.00295836
0.00190211
0.000248923
0.00337808
0.00406282
0.00458769
0.00483912
0.0050191
0.00531439
0.00554774
0.00563563
0.00562536
0.00556755
0.00546107
0.00530221
0.00508855
0.00480613
0.00442556
0.00388525
0.0030944
0.0018856
0.000245009
0.00534831
0.00562291
0.00585503
0.00596535
0.00604512
0.00620199
0.00633701
0.0063675
0.00632337
0.00622841
0.00607581
0.00585904
0.00557066
0.00519373
0.00469306
0.00401188
0.00308368
0.00180091
0.000242101
0.00687913
0.00691005
0.00694081
0.00693539
0.00692954
0.00697894
0.00701998
0.00699079
0.00689932
0.00675278
0.00654195
0.00625683
0.0058874
0.0054161
0.0048104
0.00402612
0.00301686
0.00171095
0.000240805
0.00802417
0.0079259
0.00783213
0.0077355
0.00766112
0.00762545
0.007585
0.00749591
0.00735151
0.00714753
0.00687361
0.00652002
0.00607713
0.00552781
0.00484519
0.00399623
0.0029454
0.00164353
0.000240603
0.00885157
0.0086922
0.00853308
0.00838048
0.00825135
0.00814797
0.00803937
0.00789259
0.0076937
0.00743314
0.00709989
0.00668493
0.00617943
0.00556882
0.00483219
0.00394501
0.00287621
0.00159118
0.000240791
0.00945496
0.00927096
0.00908326
0.00889634
0.00872571
0.00856922
0.00840399
0.0082048
0.0079546
0.00764096
0.00725337
0.00678335
0.00622333
0.00556185
0.00478286
0.00386726
0.00279228
0.00153326
0.000240208
0.00990354
0.00971878
0.00952819
0.00931915
0.00911676
0.00891767
0.00870523
0.00845969
0.00816278
0.00780045
0.00736295
0.00684229
0.00623263
0.00552544
0.00470785
0.00376444
0.00267997
0.00145162
0.000237583
0.0101834
0.0100882
0.00990873
0.00967817
0.00945627
0.00922467
0.00897242
0.0086856
0.00834698
0.00794067
0.00745823
0.00689111
0.00623539
0.00548567
0.0046315
0.00366102
0.00256619
0.00136208
0.000233864
0.0103181
0.0102832
0.0101693
0.00998585
0.0097716
0.00951439
0.00922849
0.00891031
0.00853736
0.0080917
0.00757093
0.00696331
0.00626599
0.00547725
0.00458947
0.00359511
0.002493
0.00130648
0.000232362
0.0103785
0.0103341
0.0102583
0.0101606
0.00999958
0.00977313
0.00949063
0.00915914
0.00875939
0.00827811
0.00773154
0.00709252
0.00636214
0.00554244
0.00462633
0.00360793
0.00249155
0.00129711
0.000235649
0.0104289
0.0103665
0.0102868
0.0101908
0.0100605
0.00988805
0.0096648
0.00937497
0.00898932
0.00851496
0.00796104
0.00730094
0.00655123
0.00571953
0.00478764
0.00373858
0.00258291
0.00131689
0.000246746
0.010472
0.0103936
0.0102999
0.0101913
0.0100558
0.0098883
0.00968037
0.00942075
0.00909577
0.00869741
0.00819538
0.00757577
0.00682128
0.00601678
0.00510218
0.00402019
0.00279052
0.00135035
0.000265631
0.0105077
0.0104185
0.0103108
0.0101851
0.0100373
0.00986505
0.00965828
0.00940578
0.00909954
0.00873579
0.00829775
0.00773661
0.0070673
0.00631324
0.00545412
0.00438901
0.00309169
0.00161337
0.000279518
0.0105321
0.0104381
0.0103221
0.0101843
0.0100246
0.0098418
0.00962951
0.00937823
0.00907991
0.00872793
0.00830731
0.00780069
0.00721372
0.00654258
0.00575713
0.00479123
0.00359187
0.00202271
0.000287835
0.0105416
0.0104474
0.0103287
0.0101851
0.0100177
0.00982612
0.00960658
0.00935181
0.00905336
0.00870512
0.0082999
0.00783182
0.0072957
0.00666893
0.00591975
0.00500417
0.00383389
0.00220166
0.00028623
0.0105342
0.0104425
0.0103248
0.0101797
0.0100086
0.00981128
0.00958495
0.00932338
0.00902045
0.00867214
0.00827648
0.00783101
0.00732257
0.00672072
0.00599089
0.0050912
0.00392639
0.00226349
0.000277978
0.0105093
0.0104212
0.0103058
0.0101613
0.00998855
0.00978721
0.0095547
0.009286
0.0089767
0.00862527
0.00823186
0.00779282
0.00729109
0.00669644
0.00597241
0.00507885
0.00391967
0.00226149
0.000267315
0.0104675
0.0103831
0.0102702
0.0101265
0.00995251
0.00974755
0.00950924
0.00923369
0.00891768
0.00856054
0.00816228
0.00771734
0.00720844
0.00660606
0.00587794
0.00498301
0.00383182
0.00221013
0.000254253
0.0104109
0.01033
0.0102191
0.0100758
0.00990024
0.00969156
0.00944761
0.00916531
0.0088421
0.00847704
0.0080689
0.00761101
0.00708629
0.00646863
0.00572742
0.00482409
0.00368104
0.00211582
0.000239088
0.0103425
0.010265
0.0101558
0.0100127
0.00983544
0.0096231
0.00937377
0.00908491
0.00875415
0.00837984
0.0079593
0.00748498
0.0069408
0.00630319
0.0055443
0.0046285
0.00349196
0.00199017
0.000223748
0.0102661
0.0101923
0.010085
0.00994245
0.00976407
0.00954884
0.00929506
0.00900047
0.00866268
0.00827926
0.0078463
0.00735542
0.00679176
0.0061343
0.00535768
0.00443014
0.00330007
0.00185794
0.000211015
0.010186
0.0101165
0.0100119
0.00987095
0.00969273
0.00947623
0.00921983
0.00892139
0.00857838
0.0081877
0.00774449
0.00724001
0.00666053
0.00598736
0.00519782
0.00426383
0.00314273
0.00175
0.000202806
0.0101065
0.010042
0.00994149
0.00980349
0.00962735
0.00941186
0.00915542
0.00885593
0.00851067
0.00811608
0.00766664
0.00715364
0.00656448
0.00588256
0.0050876
0.00415427
0.00304456
0.00168572
0.000199128
0.0100309
0.00997248
0.00987739
0.00974419
0.00957229
0.00936036
0.00910682
0.00880951
0.00846559
0.00807121
0.00762039
0.00710477
0.00651278
0.00582942
0.00503605
0.00410833
0.00300828
0.00166388
0.000198599
0.00996202
0.00991063
0.00982221
0.00969556
0.00952993
0.00932401
0.00907614
0.00878412
0.00844502
0.00805467
0.00760706
0.00709412
0.006505
0.00582561
0.00503775
0.00411615
0.00301938
0.00167044
0.00019961
0.00990175
0.00985803
0.00977726
0.0096585
0.00950079
0.00930281
0.00906282
0.00877856
0.008447
0.00806364
0.00762259
0.00711593
0.00653307
0.00586006
0.00507806
0.00415941
0.00305772
0.00169026
0.00020106
0.00985137
0.0098154
0.00974287
0.0096327
0.00948391
0.00929508
0.00906438
0.00878945
0.00846691
0.00809224
0.00765949
0.00716066
0.00658504
0.0059182
0.00513991
0.00421964
0.00310623
0.00171302
0.0002023
0.00981162
0.00978306
0.00971858
0.00961712
0.00947754
0.00929828
0.00907736
0.00881214
0.00849905
0.00813345
0.00770919
0.00721802
0.0066488
0.00598627
0.00520863
0.00428261
0.00315339
0.00173293
0.000203073
0.0097826
0.00976055
0.00970349
0.00961028
0.00947959
0.00930962
0.00909814
0.00884218
0.00853801
0.00818077
0.00776401
0.00727912
0.00671442
0.00605373
0.00527379
0.00433921
0.00319289
0.00174763
0.000203277
0.00976336
0.00974662
0.00969606
0.00961034
0.00948782
0.00932643
0.00912353
0.00887591
0.00857953
0.00822924
0.00781827
0.00733762
0.0067751
0.00611376
0.00532921
0.00438466
0.00322199
0.00175643
0.000202954
0.00975154
0.0097389
0.00969387
0.00961482
0.00949977
0.0093462
0.00915108
0.00891079
0.00862093
0.00827595
0.00786876
0.00739007
0.00682731
0.00616303
0.00537217
0.00441728
0.00324026
0.00175962
0.000202154
0.00974302
0.00973354
0.00969335
0.0096205
0.00951257
0.00936657
0.00917894
0.00894549
0.00866125
0.00832022
0.00791497
0.00743597
0.00687054
0.00620116
0.00540265
0.00443756
0.00324857
0.00175787
0.000200967
0.00973188
0.00972504
0.00968949
0.00962296
0.0095226
0.00938487
0.00920552
0.00897954
0.00870115
0.00836366
0.00795915
0.00747794
0.00690748
0.00623065
0.00542289
0.00444751
0.00324864
0.00175209
0.000199457
0.00971081
0.00970654
0.00967594
0.00961655
0.00952514
0.00939761
0.00922883
0.00901273
0.00874232
0.0084098
0.00800643
0.00752213
0.00694458
0.00625755
0.00543794
0.0044509
0.00324286
0.00174337
0.000197735
0.00967225
0.00967069
0.00964564
0.00959462
0.00951423
0.00939985
0.00924548
0.00904375
0.00878612
0.00846307
0.00806434
0.00757874
0.0069936
0.00629353
0.00545773
0.00445476
0.00323514
0.00173315
0.000195917
0.00961004
0.00961117
0.00959207
0.00955045
0.00948303
0.00938499
0.00924965
0.00906844
0.00883111
0.00852606
0.00814066
0.00766133
0.00707326
0.00636003
0.00550258
0.0044744
0.00323379
0.00172396
0.000194148
0.00952146
0.0095248
0.00951134
0.00947923
0.00942565
0.009346
0.00923348
0.00907892
0.00887088
0.00859603
0.0082393
0.00778371
0.00720939
0.00649374
0.00561423
0.00454667
0.00326147
0.00172264
0.00019267
0.00940925
0.00941374
0.0094048
0.00938112
0.00934056
0.00927926
0.00919105
0.00906717
0.00889636
0.0086651
0.00835752
0.0079544
0.0074297
0.00674825
0.00587129
0.00476026
0.0033885
0.00175601
0.000192197
0.00928279
0.00928699
0.00928112
0.00926422
0.00923494
0.00919047
0.00912598
0.00903435
0.00890625
0.00873026
0.00849279
0.00817646
0.00775384
0.00717913
0.00638851
0.00529944
0.00383318
0.00195627
0.000196379
0.00915756
0.00916003
0.00915628
0.00914531
0.00912645
0.00909808
0.00905722
0.0089994
0.00891866
0.00880774
0.00865804
0.00845848
0.00818937
0.00781121
0.00725552
0.00641146
0.00511409
0.00298009
0.000227355
0.00905167
0.00905179
0.00905027
0.00904612
0.00903912
0.00902878
0.00901416
0.00899384
0.00896594
0.00892819
0.00887805
0.00881245
0.00872564
0.00860409
0.00841909
0.0081228
0.00760784
0.0061924
0.000419124
)
;

boundaryField
{
    leftWall
    {
        type            nutkWallFunction;
        Cmu             0.09;
        kappa           0.41;
        E               9.8;
        value           nonuniform List<scalar> 
50
(
2.6541e-06
7.5739e-06
8.79691e-06
9.72849e-06
1.05405e-05
1.15724e-05
1.40202e-05
1.44797e-05
1.53569e-05
1.69921e-05
1.88723e-05
2.04965e-05
2.18153e-05
2.24902e-05
2.23615e-05
2.21605e-05
2.3292e-05
2.10856e-05
2.17488e-05
2.2074e-05
2.25467e-05
2.30306e-05
2.29688e-05
2.25735e-05
2.20778e-05
2.15304e-05
2.09445e-05
2.03111e-05
1.9609e-05
1.88141e-05
1.79055e-05
1.68734e-05
1.5748e-05
1.46231e-05
1.34933e-05
1.24036e-05
1.14363e-05
1.06849e-05
1.02284e-05
1.01135e-05
1.03476e-05
1.09136e-05
1.17923e-05
1.29849e-05
1.45197e-05
1.64632e-05
1.89122e-05
2.2076e-05
2.63933e-05
3.27544e-05
)
;
    }
    rightWall
    {
        type            nutkWallFunction;
        Cmu             0.09;
        kappa           0.41;
        E               9.8;
        value           nonuniform List<scalar> 
50
(
3.46918e-06
1.26971e-05
1.61081e-05
1.99325e-05
2.29744e-05
2.55861e-05
2.65153e-05
2.68953e-05
2.73342e-05
2.73e-05
2.75513e-05
2.76414e-05
2.7733e-05
2.7811e-05
2.78209e-05
2.76263e-05
2.72538e-05
2.6819e-05
2.67225e-05
2.66354e-05
2.90254e-05
3.11869e-05
3.26557e-05
3.24784e-05
3.11129e-05
2.94113e-05
2.73647e-05
2.50177e-05
2.27075e-05
2.08763e-05
1.97928e-05
1.93993e-05
1.94466e-05
1.96856e-05
1.99647e-05
2.01945e-05
2.03438e-05
2.04007e-05
2.03735e-05
2.02745e-05
2.01177e-05
1.99178e-05
1.96879e-05
1.94444e-05
1.92035e-05
1.89912e-05
1.88586e-05
1.90282e-05
2.06687e-05
2.97441e-05
)
;
    }
    lowerWall
    {
        type            nutkWallFunction;
        Cmu             0.09;
        kappa           0.41;
        E               9.8;
        value           nonuniform List<scalar> 
62
(
2.6541e-06
4.13643e-06
5.01708e-06
5.65652e-06
6.14739e-06
6.53294e-06
6.84127e-06
7.09444e-06
7.30945e-06
7.4979e-06
7.66782e-06
7.82662e-06
7.98354e-06
8.14573e-06
8.29751e-06
8.42968e-06
8.52262e-06
8.53914e-06
8.43081e-06
8.12262e-06
7.47347e-06
6.2041e-06
3.96865e-06
3.96865e-06
1.18841e-05
1.42931e-05
1.64828e-05
1.87012e-05
2.12165e-05
2.59868e-05
3.49544e-05
3.65047e-05
3.4806e-05
3.4799e-05
3.58551e-05
4.51691e-06
1.4953e-05
2.04803e-05
2.45514e-05
2.7523e-05
3.16257e-05
3.81351e-05
4.20873e-05
4.51691e-06
6.22662e-06
6.98501e-06
7.34413e-06
7.62901e-06
7.87585e-06
8.17429e-06
8.44702e-06
8.57872e-06
8.5194e-06
8.29363e-06
8.11509e-06
8.02001e-06
8.04387e-06
8.02832e-06
7.89439e-06
7.50276e-06
6.51303e-06
3.46918e-06
)
;
    }
    atmosphere
    {
        type            calculated;
        value           nonuniform List<scalar> 
46
(
0.000269607
0.00251718
0.00478435
0.00589474
0.00663899
0.00715586
0.00752075
0.00778658
0.00798957
0.00815096
0.00828226
0.00839508
0.0084952
0.00858221
0.00865628
0.00872353
0.0087811
0.00884835
0.00889718
0.00894303
0.00897663
0.00901053
0.009
0.009
0.009
0.009
0.009
0.009
0.009
0.009
0.009
0.009
0.009
0.009
0.009
0.009
0.009
0.009
0.009
0.009
0.009
0.009
0.009
0.009
0.009
0.009
)
;
    }
    defaultFaces
    {
        type            empty;
    }
}


// ************************************************************************* //
