/*--------------------------------*- C++ -*----------------------------------*\
  =========                 |
  \\      /  F ield         | OpenFOAM: The Open Source CFD Toolbox
   \\    /   O peration     | Website:  https://openfoam.org
    \\  /    A nd           | Version:  13
     \\/     M anipulation  |
\*---------------------------------------------------------------------------*/
FoamFile
{
    format      ascii;
    class       volScalarField;
    location    "1.8";
    object      p;
}
// * * * * * * * * * * * * * * * * * * * * * * * * * * * * * * * * * * * * * //

dimensions      [1 -1 -2 0 0 0 0];

internalField   nonuniform List<scalar> 
2268
(
5099.17
5089.34
5101.52
5134.64
5185.37
5249.58
5321.97
5396.71
5468.42
5533.67
5590.89
5639.13
5677.33
5705.54
5723.87
5733.63
5734.08
5722.85
5696.85
5653.6
5594.17
5528.32
5464.49
4304.35
4297.12
4312.09
4348.01
4400.63
4466.15
4539.24
4613.91
4684.59
4747.94
4802.58
4847.5
4881.85
4904.49
4917.11
4920.43
4914.05
4896.63
4866.22
4821.81
4766.33
4707.75
4650.84
3503.95
3501.57
3520.19
3560.17
3615.8
3683.47
3757.87
3832.87
3902.44
3963.8
4015.55
4056.66
4086.12
4102.89
4108.65
4104.67
4090.99
4067.34
4033.13
3988.94
3938.13
3885.3
3833.19
2696.01
2698.46
2721.08
2766.14
2826.15
2897.31
2974.22
3050.57
3119.95
3179.49
3228.64
3266.47
3291.72
3302.78
3302.02
3291.81
3272.52
3244.29
3207.46
3163.35
3113.49
3060.16
3008.86
1877.78
1879.02
1904.63
1955.34
2022.18
2100.5
2183.96
2265.7
2337.19
2395.78
2442.74
2477.87
2499.7
2504.98
2497.48
2481.53
2457.86
2426.01
2386.66
2341.06
2288.28
2231.81
2178.16
1184.21
1183.86
1200.2
1232.1
1277.01
1334.44
1401.6
1473.21
1544.28
1607.72
1657.65
1694.27
1716.81
1718.25
1704.51
1684.36
1658.97
1625.8
1585.33
1538.67
1481.68
1417.83
1355.68
871.226
869.515
870.262
872.286
877.606
888.361
905.48
927.899
956.861
983.624
1005.25
1021.95
1028.19
1020.75
1008.52
998.144
981.561
955.966
926.492
895.619
859.783
834.067
805.02
800.19
798.026
794.857
790.222
784.012
775.674
764.846
751.894
737.172
721.633
708.447
697.197
684.57
672.265
663.926
658.459
649.064
636.114
623.843
614.235
610.032
623.364
627.956
2326.49
2371.57
2438.72
2521.41
2613.17
2696.47
2732.78
2785.16
2826.05
2823.94
2787.74
2726.6
2648.06
2533.02
2423.01
2336.96
2285.61
2260.45
2249.96
1702.28
1737.26
1767.84
1833.83
1928.23
2034.42
2141.07
2203.58
2246.32
2268.26
2250.02
2170.82
2079.24
1970.02
1869.83
1791.57
1741.48
1728.3
1743.02
1379.28
1419.21
1388.15
1380.43
1428.52
1492.02
1531
1553.48
1597.54
1642.84
1649.05
1602.84
1549.58
1497.08
1451.29
1389.09
1345.62
1340.57
1364.08
1228.2
1295.86
1260.06
1202.93
1183.93
1195.25
1176.73
1146.78
1142.74
1173.54
1218.66
1223.68
1208.4
1204.46
1192.8
1162.01
1145.77
1128.42
1120.34
1001.7
1101.68
1126.32
1091.53
1045.78
1052.87
1056.6
1019.36
975.074
966.521
1002.52
1032.3
1033.87
1024.69
1022.06
1017.33
1012.85
993.118
983.132
767.745
865.317
938.96
958.464
923.521
946.306
972.151
953.972
917.104
902.839
895.041
908.614
922.103
927.941
934.783
930.343
914.799
900.512
903.242
638.377
687.617
751.492
812.523
807.367
840.549
875.268
880.422
857.532
857.075
853.569
855.777
866.424
879.02
876.937
868.855
850.553
839.243
848.723
574.032
597.027
612.589
679.624
710.017
745.63
780.491
797.958
796.832
802.158
805.54
811.309
819.282
822.529
816.775
808.436
791.671
780.457
790.751
702.019
701.215
698.142
693.204
686.205
676.916
665.556
652.998
640.191
627.959
615.785
603.371
590.872
580.221
570.498
560.005
549.729
541.248
534.664
530.477
530.23
532.874
533.615
568.24
568.908
567.511
564.184
558.762
551.184
541.655
530.681
518.947
506.821
494.475
481.86
470.086
459.275
449.387
439.791
430.262
421.048
412.265
404.403
398.653
395.05
389.711
434.509
436.042
436.102
434.387
430.56
424.609
416.701
407.253
396.791
385.615
373.904
361.95
350.164
338.877
328.401
318.658
309.4
300.245
292.097
285.839
282.722
284.559
289.058
308.554
306.654
306.855
305.929
303.377
298.597
291.916
284.163
275.407
265.739
255.417
244.974
234.625
224.746
215.799
208.211
202.046
197.549
195.444
196.751
202.029
210.388
220.972
205.292
203.668
203.601
202.065
198.624
193.184
187.213
181.284
174.858
167.594
159.939
152.508
145.708
139.706
134.365
130.114
127.456
127.031
128.833
133.318
140.736
148.866
158.062
131.509
132.87
132.531
130.349
126.447
121.367
116.286
111.497
106.6
101.034
95.3744
90.0726
85.2477
81.1508
77.3441
72.978
69.2185
66.7957
66.3446
67.7061
70.7855
74.5378
81.785
74.3961
73.6061
72.0757
69.8604
66.7859
63.2972
59.1771
54.5924
49.7673
45.168
40.8587
36.8092
32.968
29.2517
26.0075
23.4135
20.8983
18.8539
17.6155
17.108
16.8556
17.2352
18.6297
27.4378
27.1434
26.0574
24.043
21.6376
19.4897
17.5271
15.5629
13.502
11.5868
9.90585
8.42815
7.13537
5.99398
4.90469
4.62914
4.6304
4.67403
4.70419
4.73589
4.77451
4.82269
4.84758
6.89813
7.37723
7.38434
6.29072
5.18028
4.83212
4.71096
4.67795
4.66109
4.64018
4.61094
4.57447
4.54684
4.54876
4.55637
4.5199
4.48347
4.44773
4.40825
4.37042
4.33101
4.29223
4.2492
4.66137
4.65772
4.77072
4.81495
4.7283
4.68362
4.66097
4.6406
4.62237
4.60261
4.5759
4.53768
4.49315
4.45154
4.42058
4.38855
4.35408
4.31681
4.28306
4.24489
4.20716
4.17183
4.13494
4.54607
4.54878
4.54362
4.54933
4.55079
4.54134
4.52348
4.50493
4.48508
4.4621
4.43186
4.39503
4.35533
4.31898
4.28263
4.25239
4.2124
4.17476
4.13669
4.09652
4.05574
4.01664
3.96976
4.42463
4.42398
4.4187
4.4099
4.41336
4.40867
4.39485
4.37619
4.35395
4.32736
4.29393
4.25678
4.21824
4.183
4.1488
4.10999
4.06982
4.02856
3.98429
3.93685
3.88746
3.83912
3.78208
4.30178
4.30008
4.29511
4.28945
4.28819
4.28157
4.26842
4.24978
4.22602
4.19655
4.16336
4.12674
4.08942
4.05324
4.01555
3.97497
3.93176
3.88579
3.8356
3.78127
3.7241
3.66762
3.60307
4.17686
4.17416
4.17052
4.16585
4.16169
4.15368
4.14043
4.12196
4.09809
4.0684
4.03522
4.00001
3.96433
3.92652
3.88625
3.84276
3.79617
3.74585
3.69077
3.63116
3.56838
3.50616
3.43603
4.04967
4.04647
4.04315
4.03884
4.03328
4.02431
4.01088
3.99269
3.96952
3.94138
3.9092
3.8747
3.83817
3.79895
3.7567
3.71104
3.66174
3.60815
3.54944
3.48603
3.41945
3.35352
3.27985
3.92022
3.91691
3.91363
3.9093
3.90297
3.89339
3.87982
3.86188
3.83938
3.81236
3.78139
3.74723
3.7102
3.67004
3.62654
3.57943
3.52831
3.47255
3.41146
3.34563
3.27675
3.20874
3.13342
3.78804
3.78491
3.78169
3.77727
3.77055
3.76067
3.74708
3.72941
3.70749
3.68134
3.65122
3.61753
3.58047
3.53996
3.49591
3.44804
3.39592
3.33894
3.27658
3.20952
3.13959
3.07079
2.99518
3.65317
3.65031
3.64722
3.64278
3.63595
3.62601
3.61254
3.59523
3.57389
3.5485
3.51917
3.48609
3.44937
3.40903
3.36498
3.31696
3.26454
3.20715
3.14441
3.07712
3.00712
2.93848
2.86356
3.51584
3.51328
3.51037
3.50603
3.49925
3.48943
3.47624
3.45939
3.43869
3.41407
3.38556
3.35325
3.3172
3.27742
3.23381
3.18616
3.13404
3.07692
3.01455
2.94779
2.87854
2.81081
2.73718
3.37633
3.37409
3.37143
3.36725
3.36065
3.35108
3.33827
3.32197
3.30198
3.2782
3.25061
3.21922
3.18407
3.14515
3.10238
3.05554
3.00423
2.94795
2.88654
2.82098
2.75308
2.68679
2.61504
3.23493
3.23303
3.23065
3.2267
3.22036
3.21115
3.19881
3.18313
3.16391
3.14103
3.11444
3.08411
3.05006
3.01226
2.97063
2.92497
2.8749
2.81994
2.76002
2.69613
2.63008
2.56567
2.49605
3.09193
3.09039
3.08832
3.08465
3.07862
3.06983
3.05802
3.043
3.02461
3.00269
2.97717
2.94801
2.91521
2.87874
2.83851
2.79433
2.74585
2.69262
2.63458
2.5728
2.50898
2.44677
2.37967
2.9476
2.94645
2.94471
2.94133
2.93566
2.92731
2.91606
2.90175
2.88421
2.86328
2.83888
2.81098
2.77955
2.74456
2.70593
2.66348
2.61687
2.56569
2.50992
2.45058
2.38937
2.3297
2.26534
2.8022
2.80146
2.80005
2.79698
2.79167
2.78379
2.77312
2.75951
2.74282
2.7229
2.69967
2.67307
2.64309
2.6097
2.57282
2.53228
2.48778
2.43893
2.38571
2.32913
2.27081
2.21395
2.15278
2.656
2.6556
2.65455
2.65178
2.64684
2.63942
2.62932
2.61641
2.60055
2.58163
2.55957
2.53431
2.50583
2.47412
2.4391
2.40062
2.3584
2.31209
2.26167
2.20807
2.15287
2.09905
2.04115
2.50904
2.5091
2.50834
2.50587
2.50128
2.49431
2.48478
2.47254
2.45748
2.43954
2.41863
2.39471
2.36777
2.33779
2.30471
2.26839
2.22858
2.18496
2.1375
2.08707
2.03514
1.98447
1.93002
2.36148
2.36193
2.36146
2.35929
2.35506
2.34853
2.33952
2.32793
2.31366
2.29666
2.27688
2.2543
2.2289
2.20067
2.16958
2.13549
2.09818
2.05735
2.01297
1.96583
1.91731
1.86994
1.81892
2.21336
2.21412
2.21393
2.21205
2.20815
2.20203
2.19354
2.18258
2.16908
2.153
2.13432
2.11305
2.08919
2.06274
2.03367
2.00186
1.9671
1.92913
1.8879
1.84416
1.79915
1.75522
1.70767
2.06468
2.06568
2.06573
2.06412
2.06053
2.05481
2.0468
2.03645
2.02369
2.00852
1.99095
1.97099
1.94866
1.92399
1.89695
1.86743
1.83527
1.8002
1.76218
1.72187
1.68048
1.64028
1.59561
1.9154
1.91658
1.91683
1.91546
1.91217
1.90681
1.89926
1.88949
1.87746
1.8632
1.84672
1.82808
1.8073
1.78443
1.75944
1.73225
1.7027
1.67054
1.63576
1.59891
1.56101
1.52399
1.48357
1.76552
1.76679
1.76721
1.76605
1.76302
1.75798
1.75086
1.74165
1.73035
1.71699
1.70163
1.68432
1.66511
1.64406
1.62115
1.59632
1.5694
1.54019
1.50865
1.47528
1.44095
1.40729
1.371
1.61502
1.61633
1.61686
1.61586
1.61303
1.60829
1.60159
1.59293
1.58235
1.56991
1.55568
1.53972
1.52212
1.50291
1.48211
1.45966
1.43541
1.40918
1.3809
1.35102
1.32032
1.29022
1.25795
1.46394
1.46522
1.4658
1.46489
1.46223
1.45775
1.45144
1.44333
1.43349
1.42198
1.40891
1.39435
1.37838
1.36106
1.3424
1.32235
1.30078
1.27753
1.25253
1.22614
1.19905
1.17253
1.14413
1.31232
1.31354
1.3141
1.31323
1.31069
1.30644
1.30051
1.29295
1.28385
1.27331
1.26143
1.2483
1.23401
1.2186
1.2021
1.18446
1.16558
1.14529
1.12353
1.1006
1.07708
1.05404
1.02943
1.16027
1.16139
1.16187
1.16098
1.15852
1.15447
1.14889
1.14189
1.13356
1.12402
1.11337
1.10172
1.08912
1.07565
1.06132
1.0461
1.02988
1.0125
0.993917
0.974357
0.954297
0.934653
0.913633
1.0079
1.0089
1.00925
1.00828
1.00583
1.00195
0.996725
0.990287
0.98276
0.97426
0.96489
0.95474
0.94388
0.932358
0.920192
0.907351
0.893739
0.879212
0.863698
0.847379
0.830646
0.814246
0.796709
0.855334
0.856179
0.856347
0.855222
0.852724
0.848969
0.844099
0.83826
0.831583
0.824177
0.816133
0.807527
0.798417
0.788842
0.778817
0.768311
0.757239
0.745462
0.732896
0.719655
0.706054
0.692706
0.67839
0.702703
0.703353
0.703243
0.701821
0.699178
0.695526
0.691037
0.685859
0.680108
0.67387
0.667211
0.660186
0.652838
0.645196
0.637269
0.629034
0.620419
0.611293
0.601538
0.591182
0.580503
0.569977
0.558655
0.550163
0.550579
0.54995
0.547966
0.54504
0.54149
0.537464
0.533064
0.528354
0.523381
0.518176
0.51277
0.507189
0.501452
0.49557
0.489533
0.483299
0.476751
0.469696
0.462036
0.454053
0.446148
0.437601
0.397852
0.398173
0.396581
0.393301
0.389927
0.386564
0.383182
0.379748
0.376243
0.372656
0.368986
0.365238
0.361424
0.357556
0.353652
0.349741
0.345838
0.341942
0.337746
0.33257
0.327085
0.321631
0.315688
0.250184
0.248465
0.24444
0.237133
0.233297
0.230556
0.228176
0.225981
0.223873
0.221805
0.219751
0.2177
0.215649
0.213602
0.211591
0.209679
0.208044
0.207253
0.206133
0.203091
0.199823
0.196609
0.193019
0.0944734
0.0888461
0.084056
0.0784352
0.0771222
0.0762056
0.0753753
0.0746329
0.07395
0.0733157
0.0727148
0.072137
0.0715727
0.0710157
0.0704828
0.070011
0.0698146
0.0706428
0.0713762
0.0697102
0.0684291
0.0673243
0.0660658
555.045
560.538
560.628
550.354
380.278
376.319
376.569
378.861
293.568
298.81
305.172
312.436
229.824
236.477
243.928
251.996
166.975
173.287
180.147
187.33
93.3047
101.588
110.046
117.69
20.6812
23.2715
27.7408
34.4103
4.90068
4.99511
5.28817
5.62485
4.15931
4.07897
4.00866
3.98084
4.07433
3.98691
3.86093
3.7269
3.87657
3.76888
3.63775
3.51872
3.67246
3.55384
3.41454
3.30014
3.48394
3.35696
3.21089
3.09489
3.31122
3.17923
3.02866
2.91035
3.15292
3.01855
2.86596
2.74631
3.00611
2.87178
2.71925
2.59919
2.86901
2.73477
2.58474
2.4655
2.73951
2.60742
2.45904
2.34226
2.61618
2.48724
2.34172
2.22784
2.49752
2.37228
2.23059
2.11921
2.38273
2.26188
2.12475
2.01692
2.27078
2.1548
2.02321
1.91923
2.16152
2.05092
1.92511
1.82546
2.05438
1.94957
1.83019
1.73502
1.94858
1.84987
1.73696
1.64662
1.84323
1.75077
1.64495
1.55968
1.73817
1.65213
1.55338
1.4735
1.63291
1.55343
1.46241
1.38805
1.52647
1.45401
1.37068
1.30166
1.42092
1.35437
1.27761
1.21424
1.31447
1.25418
1.1842
1.12646
1.20747
1.15348
1.09058
1.03829
1.09972
1.05195
0.995854
0.94902
0.990752
0.949017
0.899843
0.858379
0.880554
0.844665
0.802037
0.765868
0.768948
0.738671
0.702498
0.671399
0.655681
0.630728
0.600591
0.574448
0.540544
0.520558
0.496303
0.474978
0.423804
0.408475
0.389683
0.373003
0.305856
0.294882
0.281314
0.269054
0.187257
0.180428
0.17178
0.163657
0.064538
0.0624805
0.059674
0.0565173
497.331
509.884
513.443
553.072
591.544
612.303
646.245
677.734
699.831
711.085
717.215
722.447
727.377
728.151
723.919
716.352
704.689
702.846
713.64
388.579
413.442
416.688
439.328
467.34
476.965
498.235
533.075
570.396
587.774
598.012
604.173
607.491
606.975
604.86
603.895
605.49
613.925
622.645
325.701
342.669
345.887
360.601
382.629
397.794
405.866
424.31
454.484
474.414
485.941
493.508
499.642
505.517
511.167
518.885
530.551
539.982
543.038
263.727
276.987
286.107
299.024
318.899
333.357
342.379
352.837
367.496
383.718
397.661
409.536
421.358
434.146
446.084
456.774
466.79
472.915
474.209
198.454
212.349
224.686
239.403
256.616
271.812
284.321
296.321
307.846
320.511
335.002
350.022
364.458
376.938
387.974
397.675
405.59
409.496
409.444
128.424
146.701
162.943
178.497
195.019
211.034
225.615
239.822
254.088
267.628
280.756
294.614
308.047
320.172
330.746
339.563
345.869
348.07
347.029
47.9513
70.5754
95.1329
116.456
134.616
151.587
167.145
182.449
197.328
211.489
225.453
239.192
252.255
264.005
273.987
281.895
286.984
288.097
286.407
7.01325
14.8531
30.5717
48.8272
68.9494
90.4364
109.446
126.416
141.664
155.911
170.089
183.685
196.553
207.962
217.304
224.308
228.475
228.909
226.449
3.97352
3.99832
4.28744
8.13094
17.0968
30.9043
46.8998
66.8945
86.1061
101.22
115.096
127.899
140.299
151.266
159.827
165.833
168.912
168.649
165.149
3.54847
3.45924
3.41456
3.37886
3.2478
3.64745
7.0875
18.1273
31.2446
44.3261
60.7057
72.9838
83.4279
92.6951
99.5195
103.966
105.564
104.403
99.3953
3.37634
3.26239
3.13198
2.99256
2.91093
2.87057
2.82873
2.64059
2.67117
8.22088
18.5653
24.831
32.2471
39.103
43.3489
45.6766
45.6222
43.2295
36.6113
3.18197
3.08957
2.97897
2.852
2.74457
2.62897
2.51921
2.44459
2.45522
2.45622
2.16135
2.20727
6.63948
10.8132
12.9322
14.2269
13.3495
10.0461
6.45072
2.98617
2.91058
2.81703
2.71458
2.61275
2.509
2.41111
2.33763
2.28923
2.209
2.1558
2.16588
2.10495
1.82137
1.77934
1.91366
2.01335
2.08232
2.10398
2.80269
2.73475
2.65534
2.56728
2.4783
2.38661
2.30479
2.23617
2.16759
2.09635
2.0387
2.02068
2.00409
2.00892
2.03249
1.97483
1.9408
2.00754
2.01165
2.63827
2.5739
2.50119
2.42053
2.33918
2.25818
2.18297
2.11335
2.04181
1.97407
1.91955
1.88517
1.85114
1.83978
1.83922
1.82901
1.82897
1.84767
1.87024
2.4909
2.42894
2.36062
2.28463
2.20758
2.13102
2.05657
1.97878
1.91061
1.85016
1.806
1.76748
1.71973
1.68221
1.66214
1.67159
1.69295
1.72808
1.76158
2.35769
2.29753
2.23261
2.16045
2.08693
2.01387
1.94193
1.86911
1.80216
1.74881
1.70771
1.66658
1.61768
1.57393
1.56133
1.57316
1.60477
1.63895
1.6704
2.23566
2.17717
2.1152
2.04645
1.97655
1.90735
1.83982
1.77449
1.71501
1.66461
1.62318
1.58423
1.54629
1.5176
1.50812
1.51661
1.53752
1.56433
1.58838
2.12264
2.06582
2.00652
1.94095
1.87452
1.80931
1.74644
1.68674
1.63247
1.58563
1.54623
1.51191
1.48143
1.46019
1.45223
1.45801
1.47288
1.49278
1.51053
2.01786
1.96178
1.90499
1.8424
1.77924
1.71773
1.65909
1.60413
1.55427
1.51079
1.47394
1.44276
1.41744
1.40002
1.39349
1.3967
1.40749
1.42241
1.43526
1.91929
1.86363
1.80935
1.74952
1.68938
1.63122
1.57623
1.52516
1.47896
1.43848
1.40403
1.37545
1.35314
1.33837
1.3321
1.33384
1.34167
1.35285
1.36178
1.8244
1.77152
1.7187
1.66126
1.60387
1.54868
1.4968
1.44891
1.40568
1.36776
1.33549
1.30906
1.28885
1.2755
1.26937
1.26985
1.2754
1.28361
1.2897
1.73408
1.68312
1.63192
1.57673
1.52185
1.46928
1.42008
1.3748
1.33402
1.29825
1.26781
1.24305
1.22424
1.2117
1.20543
1.20481
1.20857
1.21457
1.21882
1.64706
1.59778
1.54825
1.49522
1.44264
1.39242
1.34553
1.30248
1.26372
1.22971
1.20077
1.17724
1.15933
1.14718
1.14063
1.1391
1.14147
1.1459
1.14915
1.56256
1.51482
1.46704
1.41612
1.3657
1.31763
1.2728
1.23167
1.19464
1.16208
1.13436
1.11174
1.09441
1.08241
1.07554
1.07324
1.0746
1.07803
1.08076
1.47963
1.43353
1.38766
1.33884
1.29056
1.24453
1.20161
1.16221
1.1267
1.0954
1.06868
1.04678
1.02985
1.0179
1.01071
1.00783
1.00845
1.01122
1.01376
1.3979
1.35324
1.30952
1.2629
1.21678
1.17278
1.1317
1.09394
1.05983
1.0297
1.00387
0.982586
0.965969
0.954031
0.946599
0.943252
0.943337
0.945701
0.948137
1.31664
1.27343
1.23214
1.18786
1.14399
1.10205
1.06281
1.02667
0.993928
0.964934
0.93997
0.919261
0.902948
0.89105
0.883421
0.879734
0.879398
0.881425
0.883821
1.23481
1.19458
1.15529
1.11337
1.07182
1.03201
0.99466
0.960164
0.928833
0.900988
0.876897
0.856788
0.840807
0.828993
0.82124
0.817245
0.816549
0.81829
0.820589
1.15273
1.11554
1.07847
1.03905
0.999915
0.962303
0.926924
0.894146
0.864287
0.837638
0.814469
0.795007
0.779411
0.767733
0.759891
0.755658
0.754609
0.756013
0.758187
1.07029
1.03589
1.0013
0.964504
0.927875
0.892564
0.859243
0.828279
0.799964
0.77458
0.752398
0.733649
0.718497
0.707011
0.69914
0.694664
0.693271
0.694337
0.696299
0.987043
0.95542
0.923433
0.889344
0.855314
0.822405
0.791248
0.762186
0.735495
0.711454
0.690332
0.672363
0.657721
0.646487
0.63862
0.633969
0.632233
0.632905
0.634627
0.902792
0.873826
0.844494
0.813188
0.781852
0.751449
0.722555
0.695483
0.6705
0.647879
0.627889
0.610769
0.5967
0.585778
0.577989
0.573176
0.57114
0.571455
0.572879
0.816983
0.79074
0.764113
0.73567
0.707125
0.679331
0.652798
0.62781
0.60462
0.583496
0.564705
0.548492
0.535054
0.524504
0.516842
0.511978
0.509703
0.509673
0.510819
0.729396
0.70582
0.681953
0.656456
0.630802
0.605724
0.581659
0.55886
0.537559
0.518011
0.50048
0.485222
0.472455
0.462324
0.454875
0.450019
0.447623
0.447369
0.44825
0.639578
0.618759
0.597715
0.575255
0.552601
0.530358
0.50889
0.488406
0.469108
0.451228
0.435023
0.420757
0.40868
0.39899
0.391785
0.387074
0.384693
0.384324
0.385056
0.547372
0.529323
0.511181
0.491853
0.472313
0.453043
0.434322
0.41631
0.399165
0.383081
0.368293
0.355064
0.343674
0.3344
0.327452
0.322911
0.320707
0.320476
0.321223
0.45253
0.437391
0.422237
0.406134
0.38983
0.37368
0.357881
0.342533
0.32774
0.313643
0.300427
0.288329
0.277643
0.26872
0.2619
0.257518
0.255573
0.25576
0.256916
0.355226
0.34303
0.330939
0.318155
0.305207
0.292331
0.279643
0.267187
0.255005
0.243171
0.231798
0.221058
0.211209
0.202618
0.195752
0.191195
0.189328
0.190286
0.192654
0.255728
0.246578
0.23766
0.228302
0.218839
0.209393
0.200016
0.190702
0.181443
0.172245
0.16314
0.154208
0.145611
0.137627
0.130668
0.125476
0.122543
0.124431
0.129728
0.154287
0.148121
0.142484
0.13663
0.130718
0.124794
0.118864
0.1129
0.106863
0.100716
0.0944263
0.0880024
0.0815136
0.0750837
0.0688986
0.0639291
0.0602277
0.0610516
0.0715673
0.0520456
0.0493695
0.0472584
0.045166
0.0430614
0.0409503
0.0388235
0.036662
0.0344414
0.0321331
0.0297065
0.0271487
0.0244661
0.0217232
0.018704
0.0162114
0.0133059
0.0131222
0.0226805
)
;

boundaryField
{
    leftWall
    {
        type            calculated;
        value           nonuniform List<scalar> 
50
(
5099.17
4304.35
3503.95
2696.01
1877.78
1184.21
871.226
800.19
702.019
568.24
434.509
308.554
205.292
131.509
74.3961
27.4378
6.89813
4.66137
4.54607
4.42463
4.30178
4.17686
4.04967
3.92022
3.78804
3.65317
3.51584
3.37633
3.23493
3.09193
2.9476
2.8022
2.656
2.50904
2.36148
2.21336
2.06468
1.9154
1.76552
1.61502
1.46394
1.31232
1.16027
1.0079
0.855334
0.702703
0.550163
0.397852
0.250184
0.0944734
)
;
    }
    rightWall
    {
        type            calculated;
        value           nonuniform List<scalar> 
50
(
2249.96
1743.02
1364.08
1120.34
983.132
903.242
848.723
790.751
713.64
622.645
543.038
474.209
409.444
347.029
286.407
226.449
165.149
99.3953
36.6113
6.45072
2.10398
2.01165
1.87024
1.76158
1.6704
1.58838
1.51053
1.43526
1.36178
1.2897
1.21882
1.14915
1.08076
1.01376
0.948137
0.883821
0.820589
0.758187
0.696299
0.634627
0.572879
0.510819
0.44825
0.385056
0.321223
0.256916
0.192654
0.129728
0.0715673
0.0226805
)
;
    }
    lowerWall
    {
        type            calculated;
        value           nonuniform List<scalar> 
62
(
5497.32
5487.49
5499.67
5532.79
5583.52
5647.73
5720.12
5794.86
5866.57
5931.82
5989.04
6037.28
6075.48
6103.69
6122.02
6131.78
6132.23
6121
6095
6051.72
5992.14
5926.26
5862.43
5464.49
4650.84
3833.19
3008.86
2178.16
1355.68
805.02
627.956
648.435
678.546
684.922
674.361
2326.49
1702.28
1379.28
1228.2
1001.7
767.745
638.377
574.032
2675.31
2722.5
2790.01
2872.77
2963.69
3026.63
2971.71
3020.92
3063.12
3059.3
3021.42
2995.06
2941.77
2823.63
2712.99
2625.67
2571.72
2546.46
2535.94
)
;
    }
    atmosphere
    {
        type            calculated;
        value           nonuniform List<scalar> 
46
(
-8.69259e-06
-2.3581e-05
-4.05524e-06
0
0
0
0
0
0
0
0
0
0
0
0
0
0
0
0
0
0
0
0
0
0
0
0
0
0
0
0
0
0
0
0
0
0
0
0
0
0
0
0
0
0
0
)
;
    }
    defaultFaces
    {
        type            empty;
    }
}


// ************************************************************************* //
