/*--------------------------------*- C++ -*----------------------------------*\
  =========                 |
  \\      /  F ield         | OpenFOAM: The Open Source CFD Toolbox
   \\    /   O peration     | Website:  https://openfoam.org
    \\  /    A nd           | Version:  13
     \\/     M anipulation  |
\*---------------------------------------------------------------------------*/
FoamFile
{
    format      ascii;
    class       surfaceScalarField;
    location    "1.8";
    object      phi;
}
// * * * * * * * * * * * * * * * * * * * * * * * * * * * * * * * * * * * * * //

dimensions      [0 3 -1 0 0 0 0];

internalField   nonuniform List<scalar> 
4432
(
-1.93894e-06
1.93895e-06
-3.69758e-06
1.75864e-06
-5.46614e-06
1.76856e-06
-7.14425e-06
1.67811e-06
-8.69094e-06
1.54669e-06
-1.00837e-05
1.39273e-06
-1.13055e-05
1.22185e-06
-1.23362e-05
1.03067e-06
-1.31624e-05
8.2624e-07
-1.37839e-05
6.21467e-07
-1.41934e-05
4.09484e-07
-1.43625e-05
1.69091e-07
-1.42648e-05
-9.76559e-08
-1.38884e-05
-3.76431e-07
-1.32354e-05
-6.53006e-07
-1.22553e-05
-9.80036e-07
-1.09078e-05
-1.3475e-06
-9.21508e-06
-1.69276e-06
-7.23282e-06
-1.98226e-06
-5.04916e-06
-2.18367e-06
-2.87128e-06
-2.17788e-06
-1.17066e-06
-1.70062e-06
-1.17066e-06
-1.88809e-06
3.82704e-06
-3.72868e-06
3.59922e-06
-5.55546e-06
3.59534e-06
-7.26836e-06
3.391e-06
-8.82296e-06
3.10129e-06
-1.01992e-05
2.76895e-06
-1.13775e-05
2.40014e-06
-1.23377e-05
1.9909e-06
-1.30737e-05
1.56227e-06
-1.35919e-05
1.13964e-06
-1.38852e-05
7.02849e-07
-1.39284e-05
2.12289e-07
-1.36994e-05
-3.26648e-07
-1.32158e-05
-8.6006e-07
-1.24808e-05
-1.38802e-06
-1.14674e-05
-1.9935e-06
-1.01638e-05
-2.65108e-06
-8.60355e-06
-3.253e-06
-6.84731e-06
-3.73852e-06
-4.98375e-06
-4.04725e-06
-3.15714e-06
-4.00451e-06
-1.47591e-06
-3.38187e-06
-2.64659e-06
-1.93508e-06
5.76211e-06
-3.84542e-06
5.50956e-06
-5.66367e-06
5.4136e-06
-7.34521e-06
5.07253e-06
-8.85921e-06
4.61529e-06
-1.01835e-05
4.09321e-06
-1.12938e-05
3.51053e-06
-1.21693e-05
2.86634e-06
-1.28119e-05
2.20485e-06
-1.32317e-05
1.5595e-06
-1.34243e-05
8.95455e-07
-1.33667e-05
1.54712e-07
-1.3047e-05
-6.46403e-07
-1.24931e-05
-1.41393e-06
-1.17211e-05
-2.16006e-06
-1.07136e-05
-3.00094e-06
-9.47113e-06
-3.8936e-06
-8.03421e-06
-4.68993e-06
-6.46243e-06
-5.31031e-06
-4.82816e-06
-5.68153e-06
-3.22246e-06
-5.61021e-06
-1.64238e-06
-4.96196e-06
-4.28897e-06
-1.97855e-06
7.74065e-06
-3.96233e-06
7.49333e-06
-5.75196e-06
7.20322e-06
-7.3834e-06
6.70396e-06
-8.84335e-06
6.07523e-06
-1.01058e-05
5.35562e-06
-1.11424e-05
4.54718e-06
-1.19323e-05
3.65621e-06
-1.24819e-05
2.75445e-06
-1.28104e-05
1.88804e-06
-1.29149e-05
9.99986e-07
-1.27731e-05
1.28327e-08
-1.23799e-05
-1.03958e-06
-1.17765e-05
-2.01736e-06
-1.09865e-05
-2.94997e-06
-9.99559e-06
-3.99189e-06
-8.81039e-06
-5.0788e-06
-7.47632e-06
-6.024e-06
-6.04675e-06
-6.73988e-06
-4.57317e-06
-7.15511e-06
-3.10983e-06
-7.07356e-06
-1.60581e-06
-6.466e-06
-5.8948e-06
-2.05641e-06
9.79705e-06
-4.03095e-06
9.46783e-06
-5.7614e-06
8.93363e-06
-7.3302e-06
8.27272e-06
-8.73014e-06
7.47514e-06
-9.9276e-06
6.55307e-06
-1.08901e-05
5.50968e-06
-1.16001e-05
4.36616e-06
-1.20741e-05
3.22842e-06
-1.23283e-05
2.1423e-06
-1.23578e-05
1.02944e-06
-1.21473e-05
-1.97683e-07
-1.16977e-05
-1.48908e-06
-1.10613e-05
-2.65384e-06
-1.02657e-05
-3.74556e-06
-9.29627e-06
-4.9613e-06
-8.16479e-06
-6.21029e-06
-6.9199e-06
-7.26888e-06
-5.60647e-06
-8.05331e-06
-4.25675e-06
-8.50484e-06
-2.90628e-06
-8.42403e-06
-1.49612e-06
-7.87616e-06
-7.39092e-06
-2.26109e-06
1.20581e-05
-4.02641e-06
1.12331e-05
-5.6404e-06
1.05476e-05
-7.12917e-06
9.76143e-06
-8.4623e-06
8.80821e-06
-9.59292e-06
7.68363e-06
-1.04914e-05
6.40813e-06
-1.1151e-05
5.02567e-06
-1.15724e-05
3.64977e-06
-1.17626e-05
2.33251e-06
-1.17352e-05
1.00202e-06
-1.14766e-05
-4.56258e-07
-1.09935e-05
-1.97217e-06
-1.03479e-05
-3.29946e-06
-9.56174e-06
-4.5317e-06
-8.61654e-06
-5.90648e-06
-7.53565e-06
-7.29115e-06
-6.37448e-06
-8.43003e-06
-5.16638e-06
-9.26136e-06
-3.92255e-06
-9.74863e-06
-2.67309e-06
-9.67343e-06
-1.42524e-06
-9.12393e-06
-8.81612e-06
-2.15569e-06
1.42137e-05
-3.55334e-06
1.26306e-05
-5.03382e-06
1.20279e-05
-6.4591e-06
1.11866e-05
-7.75975e-06
1.01088e-05
-8.86566e-06
8.78944e-06
-9.73433e-06
7.27671e-06
-1.03925e-05
5.68382e-06
-1.08152e-05
4.07235e-06
-1.09961e-05
2.51343e-06
-1.09462e-05
9.52062e-07
-1.06729e-05
-7.29518e-07
-1.02112e-05
-2.43383e-06
-9.59742e-06
-3.91327e-06
-8.82914e-06
-5.29995e-06
-7.90295e-06
-6.83263e-06
-6.8834e-06
-8.31064e-06
-5.82473e-06
-9.48863e-06
-4.74614e-06
-1.03399e-05
-3.66641e-06
-1.08283e-05
-2.60411e-06
-1.07356e-05
-1.61301e-06
-1.0115e-05
-1.04291e-05
-6.92407e-07
1.49061e-05
-1.78965e-06
1.37279e-05
-2.84774e-06
1.3086e-05
-3.94816e-06
1.2287e-05
-5.10028e-06
1.12609e-05
-6.269e-06
9.95812e-06
-7.38133e-06
8.38901e-06
-8.34216e-06
6.64462e-06
-9.05952e-06
4.78969e-06
-9.484e-06
2.9379e-06
-9.57112e-06
1.03918e-06
-9.38182e-06
-9.18818e-07
-9.01707e-06
-2.79857e-06
-8.47662e-06
-4.45369e-06
-7.73302e-06
-6.0435e-06
-6.83503e-06
-7.73056e-06
-5.89612e-06
-9.24947e-06
-4.95055e-06
-1.04341e-05
-3.99755e-06
-1.12928e-05
-3.05389e-06
-1.17719e-05
-2.2779e-06
-1.15116e-05
-1.70296e-06
-1.06899e-05
-1.2132e-05
2.28413e-06
-2.28412e-06
4.83756e-06
-2.55341e-06
6.62394e-06
-1.78637e-06
7.31928e-06
-6.95333e-07
7.7327e-06
-4.13421e-07
8.221e-06
-4.88307e-07
8.2469e-06
-2.58958e-08
9.64581e-06
-1.39892e-06
1.19147e-05
-2.26889e-06
1.38302e-05
-1.91549e-06
1.4444e-05
-6.13875e-07
1.3964e-05
4.80024e-07
1.17144e-05
2.24961e-06
8.42047e-06
3.29389e-06
4.89297e-06
3.52749e-06
2.23036e-06
2.66259e-06
8.90075e-07
1.34027e-06
6.02297e-07
2.87762e-07
6.02285e-07
3.84474e-06
-6.12883e-06
7.00259e-06
-5.71124e-06
8.10335e-06
-2.88711e-06
8.24956e-06
-8.41515e-07
8.04253e-06
-2.0638e-07
8.24022e-06
-6.85985e-07
9.13564e-06
-9.21304e-07
1.00062e-05
-2.26944e-06
1.11273e-05
-3.39002e-06
1.25278e-05
-3.31601e-06
1.36551e-05
-1.74118e-06
1.34641e-05
6.71068e-07
1.19134e-05
3.80021e-06
9.34138e-06
5.86593e-06
6.56646e-06
6.30237e-06
4.13084e-06
5.09818e-06
2.05056e-06
3.42051e-06
2.3648e-07
2.10182e-06
8.38734e-07
5.42354e-06
-1.15524e-05
1.09927e-05
-1.12804e-05
1.12716e-05
-3.16599e-06
9.95003e-06
4.80075e-07
9.22612e-06
5.1755e-07
9.43344e-06
-8.93308e-07
9.96502e-06
-1.45287e-06
1.02515e-05
-2.55586e-06
1.06662e-05
-3.80476e-06
1.14654e-05
-4.11523e-06
1.23331e-05
-2.60889e-06
1.23628e-05
6.41358e-07
1.13676e-05
4.79538e-06
9.62834e-06
7.6052e-06
7.93683e-06
7.99385e-06
5.8692e-06
7.16579e-06
3.5626e-06
5.72708e-06
1.18796e-06
4.47644e-06
2.02668e-06
6.64142e-06
-1.81937e-05
1.4086e-05
-1.8725e-05
1.65899e-05
-5.66989e-06
1.34427e-05
3.62734e-06
1.08868e-05
3.07341e-06
1.05317e-05
-5.38156e-07
1.08516e-05
-1.77284e-06
1.07979e-05
-2.50206e-06
1.04042e-05
-3.41106e-06
1.02499e-05
-3.96093e-06
1.07848e-05
-3.14378e-06
1.10227e-05
4.03449e-07
1.0373e-05
5.44505e-06
9.43009e-06
8.548e-06
8.60332e-06
8.82057e-06
7.22315e-06
8.5459e-06
5.78225e-06
7.16793e-06
4.38745e-06
5.87119e-06
6.41405e-06
6.64901e-06
-2.48426e-05
1.14598e-05
-2.35358e-05
1.64445e-05
-1.06546e-05
1.57414e-05
4.33038e-06
1.15308e-05
7.28401e-06
1.01295e-05
8.63054e-07
1.11858e-05
-2.82916e-06
1.16492e-05
-2.96538e-06
1.03434e-05
-2.1053e-06
9.12136e-06
-2.73888e-06
9.07424e-06
-3.09666e-06
9.42665e-06
5.10165e-08
9.57991e-06
5.29174e-06
9.2408e-06
8.88707e-06
8.95528e-06
9.10605e-06
8.35351e-06
9.14764e-06
7.59205e-06
7.92939e-06
6.40234e-06
7.06087e-06
1.28164e-05
6.17747e-06
-3.10201e-05
8.5307e-06
-2.58889e-05
1.29307e-05
-1.50546e-05
1.42788e-05
2.98224e-06
1.03257e-05
1.12371e-05
8.33309e-06
2.85563e-06
9.29056e-06
-3.78666e-06
1.04339e-05
-4.10877e-06
9.55069e-06
-1.22215e-06
8.49393e-06
-1.68212e-06
7.70766e-06
-2.31041e-06
7.88064e-06
-1.21991e-07
8.42146e-06
4.75088e-06
8.94665e-06
8.36183e-06
9.66707e-06
8.38556e-06
9.83122e-06
8.98345e-06
8.6951e-06
9.06548e-06
6.0851e-06
9.67083e-06
1.89013e-05
6.29464e-06
-3.73147e-05
6.20723e-06
-2.58014e-05
9.02485e-06
-1.78722e-05
1.07366e-05
1.27049e-06
7.99874e-06
1.39749e-05
6.33321e-06
4.52115e-06
6.76772e-06
-4.2212e-06
7.90573e-06
-5.24683e-06
7.23494e-06
-5.51457e-07
6.60756e-06
-1.05481e-06
6.21322e-06
-1.9161e-06
6.3894e-06
-2.98209e-07
7.3722e-06
3.76802e-06
9.02701e-06
6.70698e-06
1.0162e-05
7.25054e-06
1.07333e-05
8.41217e-06
9.3168e-06
1.04819e-05
5.18893e-06
1.37986e-05
2.40902e-05
7.65855e-06
-4.49733e-05
4.63556e-06
-2.27784e-05
5.20642e-06
-1.8443e-05
6.53811e-06
-6.12006e-08
5.21228e-06
1.53007e-05
4.11382e-06
5.61961e-06
4.31821e-06
-4.42561e-06
5.06113e-06
-5.98977e-06
4.89912e-06
-3.89491e-07
4.68566e-06
-8.41418e-07
4.79263e-06
-2.0231e-06
5.47206e-06
-9.77671e-07
6.91834e-06
2.32173e-06
8.69512e-06
4.93019e-06
1.00164e-05
5.92925e-06
1.0667e-05
7.76152e-06
9.22255e-06
1.19263e-05
4.59391e-06
1.84272e-05
2.8684e-05
1.31231e-06
1.3594e-05
6.93315e-07
1.43471e-05
-5.60242e-08
1.38356e-05
-7.69833e-07
1.3001e-05
-1.50559e-06
1.19968e-05
-2.35396e-06
1.08066e-05
-3.348e-06
9.38314e-06
-4.43057e-06
7.72724e-06
-5.53975e-06
5.89889e-06
-6.53324e-06
3.9314e-06
-7.32521e-06
1.83116e-06
-7.7908e-06
-4.53227e-07
-7.90543e-06
-2.68393e-06
-7.57685e-06
-4.78224e-06
-6.82483e-06
-6.79549e-06
-5.74661e-06
-8.80873e-06
-4.33954e-06
-1.06565e-05
-2.71853e-06
-1.20551e-05
-1.10298e-06
-1.29083e-05
3.09134e-07
-1.3184e-05
1.52465e-06
-1.27271e-05
2.45074e-06
-1.1616e-05
-1.11669e-05
1.48556e-06
1.25036e-06
1.23437e-05
1.87428e-06
1.37232e-05
2.5377e-06
1.31722e-05
3.25805e-06
1.22807e-05
3.95459e-06
1.13003e-05
4.51627e-06
1.0245e-05
4.88315e-06
9.01634e-06
5.0747e-06
7.53575e-06
5.18526e-06
5.78839e-06
5.28052e-06
3.83617e-06
5.4061e-06
1.7056e-06
5.52144e-06
-5.68564e-07
5.7165e-06
-2.879e-06
6.09472e-06
-5.1605e-06
6.71354e-06
-7.41436e-06
7.51091e-06
-9.60618e-06
8.35309e-06
-1.14988e-05
9.10778e-06
-1.28098e-05
9.66171e-06
-1.34623e-05
1.00047e-05
-1.35271e-05
1.03834e-05
-1.31058e-05
1.12463e-05
-1.24791e-05
-1.29905e-05
1.307e-05
-2.38274e-07
1.25819e-05
1.26117e-06
1.22238e-05
2.95431e-06
1.14791e-05
4.69823e-06
1.05368e-05
6.35825e-06
9.64029e-06
7.83698e-06
8.7663e-06
9.10378e-06
7.74957e-06
1.01972e-05
6.44235e-06
1.11882e-05
4.79736e-06
1.2108e-05
2.91645e-06
1.29517e-05
8.61905e-07
1.36929e-05
-1.30974e-06
1.43405e-05
-3.52663e-06
1.49469e-05
-5.76697e-06
1.55496e-05
-8.01702e-06
1.60905e-05
-1.01472e-05
1.6448e-05
-1.18563e-05
1.64153e-05
-1.27772e-05
1.59238e-05
-1.29709e-05
1.49288e-05
-1.25322e-05
1.34045e-05
-1.15815e-05
1.16572e-05
-1.07318e-05
-1.03192e-05
8.98586e-06
-1.28279e-07
1.27102e-05
1.11529e-06
1.09802e-05
3.23395e-06
9.36042e-06
5.46221e-06
8.30856e-06
7.66443e-06
7.43807e-06
9.62974e-06
6.80099e-06
1.13712e-05
6.00808e-06
1.30339e-05
4.77971e-06
1.46263e-05
3.20501e-06
1.61122e-05
1.43048e-06
1.74549e-05
-4.80755e-07
1.86502e-05
-2.50508e-06
1.96764e-05
-4.55278e-06
2.05152e-05
-6.60575e-06
2.11191e-05
-8.621e-06
2.14018e-05
-1.04298e-05
2.12108e-05
-1.16654e-05
2.03895e-05
-1.19559e-05
1.87722e-05
-1.13536e-05
1.62415e-05
-1.00015e-05
1.28712e-05
-8.21115e-06
8.68152e-06
-6.54221e-06
-5.18938e-06
3.55173e-06
-2.19185e-07
1.29294e-05
1.95124e-06
8.80976e-06
4.55879e-06
6.75285e-06
7.08426e-06
5.78306e-06
9.47838e-06
5.04394e-06
1.14532e-05
4.82618e-06
1.32707e-05
4.19053e-06
1.51829e-05
2.86751e-06
1.71215e-05
1.26638e-06
1.89499e-05
-3.97893e-07
2.06009e-05
-2.13173e-06
2.20715e-05
-3.97569e-06
2.33616e-05
-5.84284e-06
2.4456e-05
-7.70021e-06
2.51627e-05
-9.32766e-06
2.52697e-05
-1.05368e-05
2.4524e-05
-1.09197e-05
2.29909e-05
-1.04228e-05
2.05793e-05
-8.9421e-06
1.72365e-05
-6.65871e-06
1.2996e-05
-3.97067e-06
7.44423e-06
-9.90442e-07
1.85849e-06
3.96349e-07
8.71117e-08
1.28422e-05
3.78681e-06
5.11004e-06
6.57854e-06
3.9611e-06
9.03689e-06
3.3247e-06
1.11537e-05
2.92709e-06
1.31203e-05
2.85955e-06
1.50894e-05
2.22145e-06
1.70503e-05
9.06589e-07
1.90251e-05
-7.08337e-07
2.09455e-05
-2.31833e-06
2.27703e-05
-3.95654e-06
2.44543e-05
-5.65967e-06
2.59276e-05
-7.31608e-06
2.71214e-05
-8.894e-06
2.79865e-05
-1.01927e-05
2.80476e-05
-1.05979e-05
2.71882e-05
-1.00602e-05
2.53473e-05
-8.58179e-06
2.2492e-05
-6.08679e-06
1.84877e-05
-2.65438e-06
1.31523e-05
1.3647e-06
5.99515e-06
6.16662e-06
1.0929e-05
-3.07545e-06
5.04879e-06
7.79344e-06
7.07365e-06
3.08517e-06
8.8042e-06
2.23055e-06
1.05202e-05
1.60866e-06
1.21049e-05
1.34237e-06
1.39641e-05
1.0004e-06
1.5971e-05
2.14562e-07
1.80052e-05
-1.12759e-06
2.00199e-05
-2.72305e-06
2.2028e-05
-4.32638e-06
2.4009e-05
-5.93745e-06
2.58766e-05
-7.52726e-06
2.7551e-05
-8.99031e-06
2.87882e-05
-1.01311e-05
2.93614e-05
-1.07658e-05
2.92892e-05
-1.05256e-05
2.82644e-05
-9.03542e-06
2.60763e-05
-6.39361e-06
2.26651e-05
-2.67548e-06
1.7961e-05
2.04972e-06
1.15407e-05
7.78497e-06
3.21084e-06
1.44964e-05
2.04172e-05
-6.2775e-06
7.21461e-06
5.78825e-07
9.64598e-06
6.53812e-07
1.14571e-05
4.19403e-07
1.26109e-05
4.54784e-07
1.34518e-05
5.01445e-07
1.48184e-05
-3.66235e-07
1.67217e-05
-1.68871e-06
1.89262e-05
-3.33206e-06
2.11358e-05
-4.93264e-06
2.33526e-05
-6.54318e-06
2.55454e-05
-8.1301e-06
2.75833e-05
-9.56501e-06
2.92584e-05
-1.06653e-05
3.06231e-05
-1.14954e-05
3.0215e-05
-1.03571e-05
2.87793e-05
-9.08903e-06
2.65552e-05
-6.81085e-06
2.35689e-05
-3.40713e-06
1.93131e-05
1.58057e-06
1.36919e-05
7.67102e-06
6.71301e-06
1.47638e-05
-1.20043e-06
2.24098e-05
2.86625e-05
-9.44609e-06
1.59438e-06
-1.01555e-06
8.44055e-06
-6.19242e-06
1.40966e-05
-5.23664e-06
1.62835e-05
-1.73223e-06
1.51067e-05
1.67802e-06
1.59091e-05
-1.16876e-06
1.77853e-05
-3.56498e-06
2.00243e-05
-5.57107e-06
2.22655e-05
-7.17378e-06
2.45152e-05
-8.79275e-06
2.6675e-05
-1.02898e-05
2.83774e-05
-1.12671e-05
2.86921e-05
-1.09796e-05
2.58459e-05
-8.64854e-06
2.13998e-05
-5.91007e-06
1.60318e-05
-3.72063e-06
1.23404e-05
-3.11903e-06
9.7409e-06
-8.07411e-07
6.83482e-06
4.48682e-06
3.37289e-06
1.1133e-05
-1.05105e-06
1.91881e-05
-6.41837e-06
2.77769e-05
3.52955e-05
-1.30515e-05
4.05745e-06
-5.07308e-06
3.66877e-06
-5.80357e-06
8.51599e-06
-1.00838e-05
1.42424e-05
-7.45861e-06
1.39623e-05
1.95796e-06
1.15744e-05
1.21898e-06
1.00801e-05
-2.07064e-06
9.32737e-06
-4.81835e-06
9.56376e-06
-7.41015e-06
1.05735e-05
-9.80242e-06
1.20224e-05
-1.17387e-05
1.29973e-05
-1.2242e-05
1.2668e-05
-1.06503e-05
1.07161e-05
-6.69688e-06
8.07081e-06
-3.26506e-06
5.16767e-06
-8.18077e-07
2.7321e-06
-6.83555e-07
1.20482e-07
1.80418e-06
-2.09676e-06
6.70409e-06
-4.30327e-06
1.33397e-05
-6.42856e-06
2.13135e-05
-8.53423e-06
2.98829e-05
3.75337e-05
-1.07723e-05
2.02543e-07
-5.2757e-06
2.296e-06
-7.89695e-06
1.42775e-06
-9.21538e-06
2.08778e-06
-8.1185e-06
3.78368e-06
2.62224e-07
3.62817e-06
1.37459e-06
2.47625e-06
-9.18691e-07
1.59644e-06
-3.93857e-06
1.13158e-06
-6.94535e-06
1.26105e-06
-9.93199e-06
1.43667e-06
-1.19144e-05
1.25823e-06
-1.20638e-05
6.764e-07
-1.00688e-05
2.36831e-07
-6.25778e-06
-6.63036e-07
-2.36591e-06
-1.0054e-06
-4.7596e-07
-2.69205e-06
1.00299e-06
-4.66178e-06
3.77387e-06
-6.20544e-06
8.24779e-06
-7.1539e-06
1.42883e-05
-7.36045e-06
2.15203e-05
-6.72158e-06
2.9244e-05
3.61883e-05
-5.3767e-06
7.53693e-07
-6.02947e-06
-5.06613e-07
-6.6368e-06
-2.3493e-06
-7.37264e-06
-4.80328e-06
-5.66442e-06
-3.87081e-06
-6.70116e-07
-3.06444e-06
5.68267e-07
-3.07187e-06
-9.11264e-07
-3.45074e-06
-3.55973e-06
-3.91922e-06
-6.47692e-06
-4.30066e-06
-9.55062e-06
-4.90064e-06
-1.13146e-05
-5.65886e-06
-1.13057e-05
-6.45856e-06
-9.26929e-06
-6.6267e-06
-6.08987e-06
-6.12305e-06
-2.8698e-06
-6.14653e-06
-4.52669e-07
-6.87341e-06
1.72976e-06
-7.7999e-06
4.7003e-06
-8.40919e-06
8.85707e-06
-8.3361e-06
1.42154e-05
-7.33027e-06
2.05145e-05
-5.28344e-06
2.71971e-05
3.33675e-05
-2.46328e-06
-6.77695e-07
-5.35177e-06
-2.56047e-06
-4.75407e-06
-5.30423e-06
-4.62898e-06
-7.63669e-06
-3.33195e-06
-7.5311e-06
-7.75686e-07
-6.86275e-06
-1.00074e-07
-6.48269e-06
-1.29134e-06
-6.52253e-06
-3.51992e-06
-6.86641e-06
-6.13308e-06
-7.66855e-06
-8.74854e-06
-8.66791e-06
-1.03153e-05
-9.74264e-06
-1.0231e-05
-1.0542e-05
-8.47e-06
-1.06508e-05
-5.98126e-06
-1.02625e-05
-3.25821e-06
-9.93962e-06
-7.75653e-07
-9.94685e-06
1.7369e-06
-1.00249e-05
4.77827e-06
-9.80895e-06
8.64113e-06
-8.96971e-06
1.33763e-05
-7.26402e-06
1.88089e-05
-4.60671e-06
2.45397e-05
3.00105e-05
-1.25045e-06
-2.40452e-06
-2.94732e-06
-4.6312e-06
-2.52742e-06
-6.994e-06
-2.26622e-06
-8.77572e-06
-1.55026e-06
-9.0793e-06
-4.72126e-07
-8.74636e-06
-4.33026e-07
-8.45416e-06
-1.58355e-06
-8.46353e-06
-3.51059e-06
-8.85303e-06
-5.74362e-06
-9.78778e-06
-7.81384e-06
-1.10044e-05
-9.09867e-06
-1.21998e-05
-9.03572e-06
-1.29139e-05
-7.75597e-06
-1.3086e-05
-5.80921e-06
-1.28146e-05
-3.52969e-06
-1.24285e-05
-1.16181e-06
-1.20681e-05
1.37643e-06
-1.1622e-05
4.33214e-06
-1.08584e-05
7.87746e-06
-9.53132e-06
1.20493e-05
-7.4481e-06
1.67257e-05
-4.54561e-06
2.16369e-05
2.64336e-05
-9.69505e-07
-3.19787e-06
2.50554e-07
-5.60747e-06
-1.17843e-07
-7.6318e-06
-2.41922e-07
-9.06437e-06
-1.17722e-07
-9.56378e-06
2.72474e-08
-9.56283e-06
-4.34004e-07
-9.51518e-06
-1.63123e-06
-9.68774e-06
-3.33807e-06
-1.02165e-05
-5.21488e-06
-1.1145e-05
-6.88541e-06
-1.23493e-05
-7.89439e-06
-1.34538e-05
-7.93125e-06
-1.41594e-05
-7.0505e-06
-1.44198e-05
-5.54878e-06
-1.42992e-05
-3.65043e-06
-1.39477e-05
-1.51329e-06
-1.34484e-05
8.77048e-07
-1.27431e-05
3.62676e-06
-1.1688e-05
6.82236e-06
-1.0114e-05
1.04753e-05
-7.88412e-06
1.44958e-05
-4.94157e-06
1.86942e-05
2.28531e-05
-1.36187e-06
-3.28126e-06
3.53167e-06
-5.69918e-06
2.29999e-06
-7.55388e-06
1.61273e-06
-8.83303e-06
1.16138e-06
-9.48612e-06
6.80285e-07
-9.76618e-06
-1.5398e-07
-9.97822e-06
-1.41924e-06
-1.03403e-05
-2.97607e-06
-1.09701e-05
-4.58507e-06
-1.18927e-05
-5.9629e-06
-1.29761e-05
-6.81107e-06
-1.39745e-05
-6.93287e-06
-1.46822e-05
-6.34287e-06
-1.5031e-05
-5.19996e-06
-1.50402e-05
-3.64134e-06
-1.47749e-05
-1.77868e-06
-1.42689e-05
3.71042e-07
-1.3485e-05
2.8427e-06
-1.23316e-05
5.66893e-06
-1.06964e-05
8.84017e-06
-8.48342e-06
1.22828e-05
-5.64756e-06
1.58581e-05
1.94221e-05
-2.21737e-06
-3.06907e-06
6.60067e-06
-5.37124e-06
4.60208e-06
-7.10393e-06
3.34534e-06
-8.33106e-06
2.38845e-06
-9.10389e-06
1.45306e-06
-9.59931e-06
3.41384e-07
-1.00258e-05
-9.92845e-07
-1.05453e-05
-2.45661e-06
-1.12473e-05
-3.88308e-06
-1.21382e-05
-5.07204e-06
-1.31237e-05
-5.82567e-06
-1.40385e-05
-6.01814e-06
-1.47361e-05
-5.64528e-06
-1.51521e-05
-4.78402e-06
-1.52684e-05
-3.52514e-06
-1.51022e-05
-1.94498e-06
-1.46583e-05
-7.29459e-08
-1.39061e-05
2.09043e-06
-1.27841e-05
4.54686e-06
-1.1215e-05
7.27116e-06
-9.13503e-06
1.02028e-05
-6.50863e-06
1.32314e-05
1.62547e-05
-3.34208e-06
-2.76687e-06
9.36729e-06
-4.88755e-06
6.72263e-06
-6.50234e-06
4.96002e-06
-7.69497e-06
3.58101e-06
-8.54579e-06
2.3038e-06
-9.18762e-06
9.83142e-07
-9.76611e-06
-4.14432e-07
-1.03963e-05
-1.82652e-06
-1.11425e-05
-3.13696e-06
-1.20051e-05
-4.20954e-06
-1.29165e-05
-4.91431e-06
-1.37667e-05
-5.16798e-06
-1.44542e-05
-4.95786e-06
-1.49139e-05
-4.32443e-06
-1.51138e-05
-3.32531e-06
-1.50449e-05
-2.0139e-06
-1.46952e-05
-4.22798e-07
-1.40357e-05
1.4309e-06
-1.30207e-05
3.53171e-06
-1.1598e-05
5.84852e-06
-9.72254e-06
8.32729e-06
-7.36684e-06
1.08755e-05
1.3416e-05
-4.529e-06
-2.44766e-06
1.18148e-05
-4.35573e-06
8.63056e-06
-5.83913e-06
6.4433e-06
-6.98143e-06
4.72319e-06
-7.86375e-06
3.18603e-06
-8.5881e-06
1.7074e-06
-9.25854e-06
2.55922e-07
-9.95505e-06
-1.13009e-06
-1.07218e-05
-2.37026e-06
-1.15572e-05
-3.37424e-06
-1.2414e-05
-4.05757e-06
-1.32171e-05
-4.36503e-06
-1.38909e-05
-4.28411e-06
-1.43789e-05
-3.83649e-06
-1.46446e-05
-3.05978e-06
-1.46654e-05
-1.99321e-06
-1.44203e-05
-6.67913e-07
-1.38816e-05
8.92094e-07
-1.30132e-05
2.66322e-06
-1.17776e-05
4.61299e-06
-1.01436e-05
6.69321e-06
-8.09098e-06
8.82256e-06
1.09348e-05
-5.61058e-06
-2.12861e-06
1.39431e-05
-3.80471e-06
1.03064e-05
-5.13552e-06
7.77394e-06
-6.19916e-06
5.7867e-06
-7.06798e-06
4.05474e-06
-7.82043e-06
2.45974e-06
-8.53197e-06
9.67356e-07
-9.2576e-06
-4.04561e-07
-1.00254e-05
-1.60258e-06
-1.08328e-05
-2.56695e-06
-1.16459e-05
-3.24453e-06
-1.2411e-05
-3.60003e-06
-1.30712e-05
-3.624e-06
-1.35782e-05
-3.32955e-06
-1.38954e-05
-2.74268e-06
-1.39953e-05
-1.89344e-06
-1.38532e-05
-8.10109e-07
-1.34427e-05
4.81388e-07
-1.2734e-05
1.95452e-06
-1.17002e-05
3.57926e-06
-1.03172e-05
5.31009e-06
-8.56903e-06
7.07419e-06
8.8158e-06
-6.45087e-06
-1.79824e-06
1.57411e-05
-3.22441e-06
1.17324e-05
-4.38038e-06
8.92972e-06
-5.33621e-06
6.74237e-06
-6.15294e-06
4.87133e-06
-6.89031e-06
3.19699e-06
-7.60245e-06
1.67937e-06
-8.32706e-06
3.19935e-07
-9.07976e-06
-8.49997e-07
-9.85628e-06
-1.79053e-06
-1.0631e-05
-2.46991e-06
-1.13638e-05
-2.86735e-06
-1.20102e-05
-2.97768e-06
-1.25294e-05
-2.81047e-06
-1.2887e-05
-2.38515e-06
-1.30548e-05
-1.72584e-06
-1.30073e-05
-8.57702e-07
-1.27201e-05
1.9405e-07
-1.21695e-05
1.40389e-06
-1.13328e-05
2.74255e-06
-1.01923e-05
4.16954e-06
-8.73685e-06
5.61846e-06
7.03662e-06
-6.95844e-06
-1.44047e-06
1.71811e-05
-2.59587e-06
1.28874e-05
-3.55548e-06
9.88911e-06
-4.37824e-06
7.56495e-06
-5.11249e-06
5.60542e-06
-5.80219e-06
3.88655e-06
-6.48449e-06
2.36154e-06
-7.18471e-06
1.02002e-06
-7.90979e-06
-1.25052e-07
-8.65187e-06
-1.04857e-06
-9.3902e-06
-1.7317e-06
-1.00932e-05
-2.16447e-06
-1.0725e-05
-2.34602e-06
-1.12507e-05
-2.28488e-06
-1.16392e-05
-1.99679e-06
-1.18633e-05
-1.50182e-06
-1.1899e-05
-8.22094e-07
-1.17243e-05
1.91875e-08
-1.13184e-05
9.97951e-07
-1.06636e-05
2.08777e-06
-9.74597e-06
3.25181e-06
-8.55589e-06
4.42818e-06
5.57255e-06
-7.09265e-06
-1.04104e-06
1.82219e-05
-1.90475e-06
1.37509e-05
-2.65087e-06
1.0635e-05
-3.32146e-06
8.23535e-06
-3.95099e-06
6.23477e-06
-4.56936e-06
4.50476e-06
-5.20028e-06
2.9923e-06
-5.85882e-06
1.67842e-06
-6.5461e-06
5.62088e-07
-7.25029e-06
-3.44519e-07
-7.95227e-06
-1.02985e-06
-8.62591e-06
-1.49095e-06
-9.24123e-06
-1.73082e-06
-9.76813e-06
-1.75809e-06
-1.01787e-05
-1.58634e-06
-1.0448e-05
-1.2327e-06
-1.05536e-05
-7.16527e-07
-1.0476e-05
-5.85994e-08
-1.01977e-05
7.19597e-07
-9.7035e-06
1.59358e-06
-8.98268e-06
2.53094e-06
-8.02919e-06
3.47437e-06
4.38156e-06
-6.83896e-06
-5.99624e-07
1.88209e-05
-1.15495e-06
1.43058e-05
-1.67518e-06
1.11549e-05
-2.18058e-06
8.74051e-06
-2.69021e-06
6.74419e-06
-3.22111e-06
5.03549e-06
-3.78576e-06
3.55678e-06
-4.38987e-06
2.28237e-06
-5.03037e-06
1.20243e-06
-5.69297e-06
3.17931e-07
-6.35737e-06
-3.65592e-07
-7.00053e-06
-8.47922e-07
-7.59663e-06
-1.13486e-06
-8.11928e-06
-1.23555e-06
-8.54353e-06
-1.16221e-06
-8.84669e-06
-9.2967e-07
-9.00861e-06
-5.54736e-07
-9.01168e-06
-5.56607e-08
-8.84046e-06
5.48302e-07
-8.48329e-06
1.23643e-06
-7.93128e-06
1.97884e-06
-7.17996e-06
2.72289e-06
3.43367e-06
-6.23288e-06
-1.36379e-07
1.8957e-05
-3.70864e-07
1.45399e-05
-6.59854e-07
1.14436e-05
-9.91954e-07
9.07236e-06
-1.3715e-06
7.12352e-06
-1.80375e-06
5.46753e-06
-2.291e-06
4.04385e-06
-2.83123e-06
2.82242e-06
-3.41697e-06
1.78801e-06
-4.03298e-06
9.33782e-07
-4.65754e-06
2.58824e-07
-5.26796e-06
-2.37642e-07
-5.84116e-06
-5.6179e-07
-6.35375e-06
-7.23089e-07
-6.78336e-06
-7.32737e-07
-7.1095e-06
-6.03654e-07
-7.31399e-06
-3.50371e-07
-7.3811e-06
1.13139e-08
-7.29802e-06
4.65141e-07
-7.05389e-06
9.92348e-07
-6.64208e-06
1.56699e-06
-6.06147e-06
2.14197e-06
2.68367e-06
-5.31214e-06
3.26692e-07
1.86296e-05
3.979e-07
1.44683e-05
3.4123e-07
1.14999e-05
1.86339e-07
9.22697e-06
-5.60504e-08
7.36567e-06
-3.80298e-07
5.79156e-06
-7.80717e-07
4.44407e-06
-1.24884e-06
3.29036e-06
-1.77245e-06
2.31145e-06
-2.33518e-06
1.49635e-06
-2.91544e-06
8.38929e-07
-3.4896e-06
3.36377e-07
-4.03541e-06
-1.6118e-08
-4.53166e-06
-2.26961e-07
-4.95822e-06
-3.0631e-07
-5.29664e-06
-2.65359e-07
-5.53058e-06
-1.16557e-07
-5.64607e-06
1.26683e-07
-5.63127e-06
4.50263e-07
-5.47752e-06
8.38631e-07
-5.17976e-06
1.26916e-06
-4.73664e-06
1.69873e-06
2.10095e-06
-4.15468e-06
7.32061e-07
1.78972e-05
1.09982e-06
1.41001e-05
1.26949e-06
1.13299e-05
1.29188e-06
9.20429e-06
1.18953e-06
7.46775e-06
9.77594e-07
6.00327e-06
6.6981e-07
4.75165e-06
2.80806e-07
3.67917e-06
-1.7322e-07
2.76529e-06
-6.74282e-07
1.99724e-06
-1.20228e-06
1.36677e-06
-1.73423e-06
8.68186e-07
-2.2471e-06
4.96615e-07
-2.72021e-06
2.46019e-07
-3.13519e-06
1.08552e-07
-3.47547e-06
7.47986e-08
-3.72626e-06
1.34105e-07
-3.87486e-06
2.75173e-07
-3.91131e-06
4.86638e-07
-3.82779e-06
7.55157e-07
-3.61924e-06
1.06058e-06
-3.28597e-06
1.36516e-06
1.64849e-06
-2.83413e-06
1.05352e-06
1.68429e-05
1.68246e-06
1.34707e-05
2.06537e-06
1.09466e-05
2.26096e-06
9.00838e-06
2.2997e-06
7.42874e-06
2.20394e-06
6.0988e-06
1.99361e-06
4.96175e-06
1.68827e-06
3.98432e-06
1.30777e-06
3.1456e-06
8.72712e-07
2.43213e-06
4.04262e-07
1.83506e-06
-7.60456e-08
1.34835e-06
-5.47041e-07
9.67479e-07
-9.88912e-07
6.87766e-07
-1.38377e-06
5.03287e-07
-1.71579e-06
4.06709e-07
-1.97156e-06
3.89755e-07
-2.13948e-06
4.42983e-07
-2.21068e-06
5.57782e-07
-2.17927e-06
7.23778e-07
-2.04006e-06
9.21307e-07
-1.78635e-06
1.11137e-06
1.30791e-06
-1.44645e-06
1.27022e-06
1.55724e-05
2.11199e-06
1.26285e-05
2.68419e-06
1.03741e-05
3.04164e-06
8.65062e-06
3.21719e-06
7.25291e-06
3.23765e-06
6.07809e-06
3.12756e-06
5.07162e-06
2.91032e-06
4.20137e-06
2.60859e-06
3.44714e-06
2.2446e-06
2.79595e-06
1.84011e-06
2.23941e-06
1.41629e-06
1.77203e-06
9.93575e-07
1.39007e-06
5.91222e-07
1.09e-06
2.26587e-07
8.67812e-07
-8.57562e-08
7.18945e-07
-3.33719e-07
6.37611e-07
-5.08204e-07
6.17368e-07
-6.00355e-07
6.49873e-07
-6.03654e-07
7.27132e-07
-5.2603e-07
8.43674e-07
-3.79357e-07
9.64443e-07
1.01558e-06
-8.75494e-08
1.37811e-06
1.41935e-05
2.37753e-06
1.16286e-05
3.10681e-06
9.64442e-06
3.60621e-06
8.15093e-06
3.90684e-06
6.95204e-06
4.0375e-06
5.9472e-06
4.02558e-06
5.08333e-06
3.89711e-06
4.32966e-06
3.67675e-06
3.66733e-06
3.38784e-06
3.0847e-06
3.05242e-06
2.57469e-06
2.69122e-06
2.1331e-06
2.32378e-06
1.7574e-06
1.96793e-06
1.44575e-06
1.63969e-06
1.19595e-06
1.35314e-06
1.0054e-06
1.11995e-06
8.70707e-07
9.49782e-07
7.87451e-07
8.49568e-07
7.50043e-07
8.24947e-07
7.51791e-07
8.8748e-07
7.81096e-07
1.03554e-06
8.16328e-07
8.22695e-07
1.22783e-06
1.39978e-06
1.27936e-05
2.49892e-06
1.05291e-05
3.34303e-06
8.80002e-06
3.95464e-06
7.53905e-06
4.35999e-06
6.54646e-06
4.58753e-06
5.71946e-06
4.66562e-06
5.00506e-06
4.62149e-06
4.37362e-06
4.48076e-06
3.80791e-06
4.26724e-06
3.29808e-06
4.00289e-06
2.83892e-06
3.70784e-06
2.42804e-06
3.40051e-06
2.06463e-06
3.09765e-06
1.74852e-06
2.81403e-06
1.47949e-06
2.56251e-06
1.25684e-06
2.35417e-06
1.07897e-06
2.19817e-06
9.43377e-07
2.1013e-06
8.4687e-07
2.06903e-06
7.84125e-07
2.10387e-06
7.46261e-07
2.20846e-06
7.11505e-07
6.61969e-07
2.36874e-06
1.36213e-06
1.14308e-05
2.50847e-06
9.38241e-06
3.42228e-06
7.88593e-06
4.10963e-06
6.85149e-06
4.59192e-06
6.06399e-06
4.89589e-06
5.41532e-06
5.04939e-06
4.8514e-06
5.07951e-06
4.34335e-06
5.01175e-06
3.87555e-06
4.86957e-06
3.44015e-06
4.67434e-06
3.03405e-06
4.44529e-06
2.657e-06
4.19968e-06
2.31017e-06
3.95288e-06
1.99525e-06
3.71849e-06
1.71382e-06
3.50832e-06
1.46696e-06
3.33225e-06
1.25497e-06
3.19851e-06
1.07707e-06
3.11374e-06
9.31619e-07
3.08252e-06
8.15399e-07
3.10703e-06
7.21726e-07
3.18683e-06
6.31698e-07
5.31939e-07
3.31636e-06
1.2976e-06
1.01331e-05
2.44475e-06
8.2351e-06
3.38212e-06
6.94839e-06
4.10588e-06
6.12758e-06
4.63305e-06
5.53669e-06
4.98798e-06
5.06027e-06
5.19704e-06
4.64224e-06
5.28623e-06
4.25406e-06
5.28003e-06
3.88166e-06
5.20085e-06
3.51926e-06
5.06883e-06
3.166e-06
4.90194e-06
2.82384e-06
4.71602e-06
2.49604e-06
4.52502e-06
2.1862e-06
4.34114e-06
1.89767e-06
4.1749e-06
1.63316e-06
4.03529e-06
1.39455e-06
3.92953e-06
1.1828e-06
3.86319e-06
9.97958e-07
3.84038e-06
8.38287e-07
3.86345e-06
6.98687e-07
3.93113e-06
5.63844e-07
4.21914e-07
4.0408e-06
1.22416e-06
8.90857e-06
2.33533e-06
7.12377e-06
3.257e-06
6.02664e-06
3.98027e-06
5.40423e-06
4.51965e-06
4.99724e-06
4.89768e-06
4.68218e-06
5.13925e-06
4.40061e-06
5.26884e-06
4.12441e-06
5.3093e-06
3.84115e-06
5.28132e-06
3.5472e-06
5.2033e-06
3.24398e-06
5.09146e-06
2.93565e-06
4.96e-06
2.62749e-06
4.82129e-06
2.3249e-06
4.68607e-06
2.03289e-06
4.56345e-06
1.75577e-06
4.46133e-06
1.49666e-06
4.3858e-06
1.25831e-06
4.3419e-06
1.04189e-06
4.33305e-06
8.47201e-07
4.36039e-06
6.71355e-07
4.42304e-06
5.01219e-07
3.26214e-07
4.51835e-06
1.15248e-06
7.75644e-06
2.20133e-06
6.07502e-06
3.07524e-06
5.15275e-06
3.76581e-06
4.71366e-06
4.28666e-06
4.47638e-06
4.66006e-06
4.30877e-06
4.91021e-06
4.15044e-06
5.06015e-06
3.97446e-06
5.13063e-06
3.77066e-06
5.14007e-06
3.53776e-06
5.10462e-06
3.27943e-06
5.03837e-06
3.00191e-06
4.95359e-06
2.71229e-06
4.86096e-06
2.41754e-06
4.76971e-06
2.12416e-06
4.68773e-06
1.83777e-06
4.62152e-06
1.56288e-06
4.57636e-06
1.30348e-06
4.55602e-06
1.06225e-06
4.56278e-06
8.40538e-07
4.59807e-06
6.36122e-07
4.65998e-06
4.39176e-07
2.37309e-07
4.74863e-06
1.08007e-06
6.67625e-06
2.05438e-06
5.10077e-06
2.86003e-06
4.34718e-06
3.49157e-06
4.08217e-06
3.9659e-06
4.00209e-06
4.30837e-06
3.96633e-06
4.54414e-06
3.91469e-06
4.69488e-06
3.82374e-06
4.77879e-06
3.68677e-06
4.8114e-06
3.50518e-06
4.80613e-06
3.28473e-06
4.77455e-06
3.03352e-06
4.72682e-06
2.76005e-06
4.67193e-06
2.47246e-06
4.61771e-06
2.17841e-06
4.57081e-06
1.88472e-06
4.53679e-06
1.59693e-06
4.51962e-06
1.32067e-06
4.52212e-06
1.05981e-06
4.54567e-06
8.17064e-07
4.58977e-06
5.92055e-07
4.65284e-06
3.76164e-07
1.54985e-07
4.73487e-06
1.01416e-06
5.6626e-06
1.91289e-06
4.2023e-06
2.6359e-06
3.62432e-06
3.18541e-06
3.53278e-06
3.58715e-06
3.60043e-06
3.87446e-06
3.67908e-06
4.07517e-06
3.71402e-06
4.20937e-06
3.68959e-06
4.29172e-06
3.60446e-06
4.33405e-06
3.4629e-06
4.34655e-06
3.27228e-06
4.33798e-06
3.04215e-06
4.31627e-06
2.78181e-06
4.28888e-06
2.4999e-06
4.26252e-06
2.20483e-06
4.24297e-06
1.90432e-06
4.23532e-06
1.60461e-06
4.24235e-06
1.31368e-06
4.26562e-06
1.03658e-06
4.30365e-06
7.79133e-07
4.35622e-06
5.39547e-07
4.42115e-06
3.1115e-07
7.70968e-08
4.49887e-06
9.67459e-07
4.69524e-06
1.79975e-06
3.37023e-06
2.43162e-06
2.99263e-06
2.87702e-06
3.0875e-06
3.18096e-06
3.29657e-06
3.39138e-06
3.46873e-06
3.54e-06
3.56547e-06
3.64394e-06
3.58571e-06
3.71265e-06
3.53581e-06
3.7531e-06