/*--------------------------------*- C++ -*----------------------------------*\
  =========                 |
  \\      /  F ield         | OpenFOAM: The Open Source CFD Toolbox
   \\    /   O peration     | Website:  https://openfoam.org
    \\  /    A nd           | Version:  13
     \\/     M anipulation  |
\*---------------------------------------------------------------------------*/
FoamFile
{
    format      ascii;
    class       volScalarField;
    location    "1.8";
    object      rho;
}
// * * * * * * * * * * * * * * * * * * * * * * * * * * * * * * * * * * * * * //

dimensions      [1 -3 0 0 0 0 0];

internalField   nonuniform List<scalar> 
2268
(
13529
13529
13529
13529
13529
13529
13529
13529
13529
13529
13529
13529
13529
13529
13529
13529
13529
13529
13529
13527.9
13522.8
13521.6
13521.6
13529
13529
13529
13529
13529
13529
13529
13529
13529
13529
13529
13529
13529
13529
13529
13529
13529
13529
13529
13529
13528.8
13527.2
13526.8
13529
13529
13529
13529
13529
13529
13529
13529
13529
13529
13529
13529
13529
13529
13529
13529
13529
13529
13529
13529
13529
13529
13529
13529
13529
13529
13529
13529
13529
13529
13529
13529
13529
13529
13529
13529
13529
13529
13529
13529
13529
13529
13529
13529
13529
13529
13529
13529
13529
13529
13529
13529
13529
13529
13529
13529
13529
13529
13529
13529
13529
13529
13529
13529
13529
13529
13529
13529
13529
9029.63
8781.29
9033.41
9711.28
10616.5
11608.6
12529.7
13276.6
13529
13529
13529
13529
13529
13529
13529
13529
13529
13529
13529
13529
13529
13475.3
13238
1220.64
1172.63
1221.87
1398.99
1759.67
2394.2
3347.28
4570.77
6127.34
7726.42
9045.92
10130.5
10995.8
11373
11288.7
11029.6
10853.2
10620.3
10196
9540.63
8447.39
6469.65
4934
1000
1000
1000
1000
1000
1000
1000
1000
1000
1050.52
1222.7
1448.05
1581.52
1636.57
1812.67
2106.18
2130.99
1909.96
1643.19
1349.26
999.183
998.49
997.244
11852.7
11924.5
11936.7
11939.3
11910.6
11218.9
8118.81
8011.04
8055.73
7997.51
7940.65
9122.17
9980.06
9874.86
9853.5
9810.3
9721.85
9718.45
9717.29
8970.1
9112.69
10414.9
11065.5
11271.1
11404.1
11384.7
11355.7
11251.8
10474.1
10216
10189.6
10115.1
9887.33
9314.22
8900.51
8848.77
8431.95
7403.84
1898.69
1677.01
2691.74
4467.38
5791.26
7285
9339.55
10808.4
10975.9
10965.8
10579.9
9469.43
8322.69
6163.99
4689.07
4504.75
4323.59
4463.55
5348.27
2671.76
2169.96
1374.87
1668.77
2788.42
3153.78
2904.51
3238.21
4888.34
5714.36
4848.74
3712.48
3276.34
3370.95
3662.81
2751.96
2058.33
2278.85
2811.75
3821.04
3677.21
2385.96
1644.53
2009.03
2037.67
1268.01
1104.3
889.062
1471.86
3109.44
3118.95
2541.58
2447.52
1906.02
1748.58
2091.79
2005.15
1660.81
2761.39
3576.12
3173.72
2224.67
1891.6
1867
1760.23
1119.85
1019.37
648.111
736.939
1325
1297.4
658.593
902.455
972.46
1097.98
1091.21
827.71
969.713
1833.39
3135
2331.59
1458.99
1807.12
1910.71
1541.33
1011.41
934.497
728.712
574.668
571.42
813.392
988.434
988.388
998.187
980.72
828.84
1001.83
899.259
2183.53
2217.1
1119.11
1317.9
1765.26
1726.8
1014.84
1000.81
994.097
975.837
962.468
989.441
1000.3
1000.25
943.044
924.624
860.094
1000
1000
1000
1000
1000
1000
1000
1000
1000
1000
1000
1000
1000
1000
1000
1000
999.999
999.99
999.931
999.678
999.057
998.759
997.835
1000
1000
1000
1000
1000
1000
1000
1000
1000
1000
1000
1000
1000
1000
1000
1000
1000
1000
1000
999.05
993.914
971.446
947.34
1000
1000
1000
1000
1000
1000
1000
1000
1000
1000
1000
1000
1000
1000
1000
998.804
993.857
979.356
942.573
882.487
803.094
712.226
594.086
882.907
969.12
984.568
995.539
996.711
999.998
999.984
991.477
988.99
987.374
983.069
970.625
947.372
916.923
885.761
849.032
796.799
698.004
603.938
520.078
443.984
438.996
474.903
676.696
620.626
640.444
657.635
694.902
713.884
707.24
701.486
684.571
661.813
633.733
597.421
554.075
507.718
469.278
455.475
447.789
454.12
451.369
456.382
487.052
500
500
441.097
490.651
497.079
498.115
491.654
456.333
446.093
458.912
473.259
470.656
462.123
461.327
466.581
485.283
495.189
495.339
492.203
484.553
474.311
464.485
454.155
447.358
446.629
442.514
481.953
488.603
490.976
490.976
490.85
490.068
489.635
488.051
481.865
470.372
453.609
429.378
395.021
357.463
302.925
244.223
195.496
160.029
135.068
116.706
105.135
107.757
302.256
277.035
266.206
273.06
263.315
244.405
224.562
197.82
165.685
134.524
105.763
78.3459
52.2123
28.419
6.44277
1.00002
1.00002
1.00003
1.00005
1.00005
1.00019
1.00001
1.00007
34.7878
46.3822
44.0367
21.8014
5.22476
2.0998
1.00012
1.00018
1.00015
1.00014
1.00028
1.00075
1.00092
1.00051
1.00026
1.00007
1.00004
1.00003
1.00002
1.00004
1.00002
1.00001
1.00001
1.00044
1.00054
3.69787
3.94778
1.28875
1.00065
1.00013
1.00004
1.00011
1.00012
1.01487
1.02925
1.01092
1.00075
1.00027
1.00032
1.00053
1.00049
1.00039
1.00027
1.00021
1.00015
1.00006
1.00032
1.00309
1.00986
1.61014
1.04313
1.00077
1.00005
1.00009
1.00011
1.01726
1.08799
1.08897
1.04956
1.00248
1.00104
1.00178
1.00194
1.0012
1.00063
1.00039
1.0003
1.00022
1.0001
1.00041
1.01059
1.00088
1.06163
1.00219
1.00017
1.00006
1.00014
1.00136
1.07803
1.08794
1.08878
1.05372
1.00309
1.00276
1.00304
1.00299
1.00105
1.00041
1.00023
1.00022
1.00017
1.00009
1.00043
1.00042
1.00023
1.0001
1.00028
1.00007
1.00008
1.00015
1.00196
1.05844
1.08607
1.08255
1.01028
1.00307
1.00312
1.00296
1.00121
1.0003
1.00012
1.00006
1.00008
1.00008
1.00004
1.00047
1.00058
1.00029
1.00009
1.00009
1.00006
1.00009
1.00015
1.00039
1.00008
1.02081
1.012
1.00042
1.00225
1.00187
1.00027
1.00001
1.00007
1.00004
1.00003
1.00003
1.00003
1.00002
1.00018
1.00028
1.00013
1.00007
1.00006
1.00005
1.00007
1.00021
1.00048
1.00001
1.00001
1.00001
1.00019
1.00079
1.00004
1
1.00001
1.00002
1.00002
1.00002
1.00002
1.00001
1.00001
1.00005
1.00008
1.00007
1.00005
1.00004
1.00004
1.00003
1.00002
1.00001
1.00001
1.00001
1.00007
1.00053
1.00078
1.00007
1.00001
1.00002
1.00002
1.00002
1.00001
1.00001
1.00001
1.00001
1.00004
1.00005
1.00005
1.00005
1.00003
1.00002
1.00001
1.00001
1.00001
1.00001
1.00002
1.00018
1.00056
1.00049
1.00001
1.00001
1.00002
1.00002
1.00001
1.00001
1.00001
1.00001
1.00001
1.00004
1.00005
1.00005
1.00004
1.00003
1.00002
1.00001
1.00001
1.00001
1.00001
1.00003
1.0001
1.0001
1.00001
1.00001
1.00002
1.00001
1.00001
1.00001
1.00001
1.00001
1.00001
1
1.00004
1.00004
1.00005
1.00004
1.00003
1.00002
1.00001
1.00001
1.00001
1.00001
1.00001
1.00001
1
1
1.00001
1.00001
1.00001
1.00001
1.00001
1
1
1
1
1.00003
1.00004
1.00004
1.00004
1.00003
1.00002
1.00001
1.00001
1.00001
1.00001
1
1
1
1
1.00001
1.00001
1
1
1
1
1
1
1
1.00003
1.00003
1.00003
1.00003
1.00002
1.00002
1.00001
1.00001
1.00001
1
1
1
1
1
1
1
1
1
1
1
1
1
1
1.00002
1.00002
1.00002
1.00002
1.00002
1.00001
1.00001
1
1
1
1
1
1
1
1
1
1
1
1
1
1
1
1
1.00002
1.00002
1.00001
1.00001
1.00001
1.00001
1.00001
1
1
1
1
1
1
1
1
1
1
1
1
1
1
1
1
1.00001
1.00001
1.00001
1.00001
1.00001
1.00001
1
1
1
1
1
1
1
1
1
1
1
1
1
1
1
1
1
1.00001
1.00001
1.00001
1
1
1
1
1
1
1
1
1
1
1
1
1
1
1
1
1
1
1
1
1.00001
1.00001
1
1
1
1
1
1
1
1
1
1
1
1
1
1
1
1
1
1
1
1
1
1.00001
1
1
1
1
1
1
1
1
1
1
1
1
1
1
1
1
1
1
1
1
1
1
1
1
1
1
1
1
1
1
1
1
1
1
1
1
1
1
1
1
1
1
1
1
1
1
1
1
1
1
1
1
1
1
1
1
1
1
1
1
1
1
1
1
1
1
1
1
1
1
1
1
1
1
1
1
1
1
1
1
1
1
1
1
1
1
1
1
1
1
1
1
1
1
1
1
1
1
1
1
1
1
1
1
1
1
1
1
1
1
1
1
1
1
1
1
1
1
1
1
1
1
1
1
1
1
1
1
1
1
1
1
1
1
1
1
1
1
1
1
1
1
1
1
1
1
1
1
1
1
1
1
1
1
1
1
1
1
1
1
1
1
1
1
1
1
1
1
1
1
1
1
1
1
1
1
1
1
1
1
1
1
1
1
1
1
1
1
1
1
1
1
1
1
1
1
1
1
1
1
1
1
1
1
1
1
1
1
1
1
1
1
1
1
1
1
1
1
1
1
1
1
1
1
1
1
1
1
1
1
1
1
1
1
1
1
1
1
1
1
1
1
1
1
1
1
1
1
1
1
1
1
1
1
1
1
1
1
1
1
1
1
1
1
1
1
1
1
1
1
1
1
1
1
1
1
1
1
1
1
1
1
1
1
1
1
1
1
1
1
1
1
1
1
1
1
1
1
1
1
1
1
1
1
1
1
1
1
1
1
1
1
1
1
1
1
1
1
1
1
1
1
1
1
1
1
1
1
1
1
1
1
1
1
1
1
1
1
1
1
1
1
1
1
1
1
1
1
1
1
1
1
1
1
1
1
1
1
1
1
1
1
1
1
1
1
1
1491.92
1885.2
1985.61
1981.03
925.929
889.822
802.757
763.997
545.377
515.377
499.885
441.194
497.495
499.435
499.593
475.515
500
500
500
500
447.93
456.349
471.278
490.4
119.748
137.983
170.554
219.863
0.999927
1.00037
1.00061
1.00041
1.0001
1.00008
1.00019
1.00023
1.00004
1.00003
1.00003
1.00005
1.00008
1.00006
1.00004
1.00004
1.00008
1.00007
1.00005
1.00005
1.00005
1.00004
1.00004
1.00004
1.00002
1.00002
1.00002
1.00002
1.00001
1.00001
1.00001
1.00001
1.00001
1.00001
1.00001
1.00001
1.00001
1
1
1
1
1
1
1
1
1
1
1
1
1
1
1
1
1
1
1
1
1
1
1
1
1
1
1
1
1
1
1
1
1
1
1
1
1
1
1
1
1
1
1
1
1
1
1
1
1
1
1
1
1
1
1
1
1
1
1
1
1
1
1
1
1
1
1
1
1
1
1
1
1
1
1
1
1
1
1
1
1
1
1
1
1
1
1
1
1
1
1
1
1
1
1
1
1
1
1
1
1
1
1
1142.13
698.774
892.821
1209.16
871.554
1375.33
1660.8
1564.08
1006.59
1001.15
1001.76
1001.77
1000.79
1000.36
1000.12
1000.7
922.143
694.678
640.991
516.632
423.545
683.013
826.302
784.925
603.729
992.996
1220.13
1009.6
999.838
1000.36
1000.13
999.704
999.452
999.545
943.988
646.806
510.712
622.018
416.396
483.6
471.669
599.229
503.798
495.351
528.657
696.799
880.728
909.355
965.836
970.534
936.946
782.613
627.418
547.91
503.521
503.69
528.033
492.035
500.032
498.996
485.105
496.519
500.197
500.047
475.053
593.012
702.393
682.124
615.472
518.751
500.601
499.994
501.185
503.403
500.407
503.996
500.002
500.002
500
500.003
500.177
500.242
500.028
496.961
456.061
439.746
485.763
499.944
499.984
499.984
499.974
499.958
500.546
500.313
502.089
500
500
500
500
500.005
500.017
500.013
499.688
499.451
500.179
500.498
499.918
499.989
499.976
499.978
500
499.999
499.522
496.11
336.988
472.37
500
500
500.001
500.002
500.004
500.005
500.002
500.001
500.021
500.047
499.994
499.994
499.996
500
500
498.452
493.056
17.2717
99.1176
285.838
455.88
500.001
500.001
500.002
500.003
500.001
500.006
500.011
500.012
500.001
500
500
500
500
496.007
491.849
1.00036
1.00006
3.68262
47.1958
158.705
342.084
475.686
499.925
500.001
500.006
500.005
500.002
500
500
500.004
500.008
500.013
497.539
491.708
1.00003
1.00019
1.00053
1.00027
1.00046
5.78486
43.9331
193.983
414.589
483.035
497.334
500
500.001
500.008
500.019
500.02
500.1
512.836
541.915
1.00003
1.00003
1.00007
1.0002
1.0005
1.00039
1.00004
1.0002
1.00034
77.697
287.394
415.636
463.754
495.749
500.007
500.606
511.291
538.759
481.472
1.00004
1.00003
1.00004
1.00009
1.00016
1.00011
1.00008
1.00021
1.00034
1.00013
1.00037
1.00034
102.676
223.596
280.486
296.583
267.119
154.992
70.3844
1.00004
1.00004
1.00005
1.00015
1.0002
1.00017
1.00005
1.00005
1.00006
1.00012
1.00039
1.00024
1.00222
1.08196
1.91016
5.41082
7.95682
1.03717
1.00204
1.00002
1.00003
1.00007
1.00017
1.00021
1.00016
1.00536
1.14832
1.43256
1.20504
1.00128
1.00019
1.02572
1.27142
1.52975
1.0342
1.01939
1.00402
1.0031
1.00001
1.00003
1.00007
1.00015
1.0002
1.00015
1.00016
1.46928
1.50319
1.50357
1.09018
1.00009
1.31075
2.10339
1.93599
1.49008
1.13419
1.01465
1.0059
1.00001
1.00002
1.00004
1.00009
1.00015
1.00011
1.00199
1.14014
1.38929
1.28653
1.02414
1.00023
1.33173
2.06173
1.94058
1.45363
1.07871
1.00958
1.00286
1
1.00001
1.00002
1.00005
1.00007
1.00009
1.00568
1.00011
1.01032
1.00152
1.00026
1.00071
1.05262
1.03629
1.00006
1.00004
1.00012
1.00058
1.00039
1
1
1.00001
1.00002
1.00004
1.00012
1.00015
1.0001
1.00014
1.00015
1.00074
1.00667
1.00065
1.00009
1.00004
1.00004
1.00004
1.00016
1.00015
1
1
1.00001
1.00001
1.00002
1.00005
1.00006
1.00009
1.0001
1.00012
1.00037
1.00261
1.00121
1.00009
1.00004
1.00004
1.00011
1.00025
1.0005
1
1
1
1
1.00001
1.00002
1.00004
1.00005
1.00007
1.00009
1.00017
1.00011
1.00003
1.00002
1.00004
1.00007
1.00012
1.00044
1.00049
1
1
1
1
1
1.00001
1.00002
1.00003
1.00003
1.00004
1.00003
1.00002
1.00001
1.00002
1.00004
1.00006
1.00012
1.00016
1.00044
1
1
1
1
1
1
1.00001
1.00001
1.00001
1.00001
1.00001
1.00001
1.00001
1.00002
1.00003
1.00004
1.00005
1.00006
1.00005
1
1
1
1
1
1
1
1
1
1
1
1
1.00001
1.00001
1.00001
1.00002
1.00002
1.00001
1.00001
1
1
1
1
1
1
1
1
1
1
1
1
1
1
1.00001
1.00001
1.00001
1.00001
1.00001
1
1
1
1
1
1
1
1
1
1
1
1
1
1
1
1.00001
1.00001
1.00001
1.00001
1
1
1
1
1
1
1
1
1
1
1
1
1
1
1
1.00001
1.00001
1.00001
1.00001
1
1
1
1
1
1
1
1
1
1
1
1
1
1
1
1.00001
1.00001
1.00002
1.00002
1
1
1
1
1
1
1
1
1
1
1
1
1
1
1
1.00001
1.00002
1.00004
1.00002
1
1
1
1
1
1
1
1
1
1
1
1
1
1
1
1.00001
1.00002
1.00005
1.00003
1
1
1
1
1
1
1
1
1
1
1
1
1
1
1
1.00001
1.00003
1.00005
1.00003
1
1
1
1
1
1
1
1
1
1
1
1
1
1
1
1.00001
1.00004
1.00005
1.00003
1
1
1
1
1
1
1
1
1
1
1
1
1
1
1
1.00001
1.00004
1.00005
1.00002
1
1
1
1
1
1
1
1
1
1
1
1
1
1
1
1.00001
1.00004
1.00005
1.00002
1
1
1
1
1
1
1
1
1
1
1
1
1
1
1
1.00001
1.00004
1.00004
1.00001
1
1
1
1
1
1
1
1
1
1
1
1
1
1
1
1.00001
1.00002
1.00002
1.00001
1
1
1
1
1
1
1
1
1
1
1
1
1
1
1
1.00001
1.00001
1.00001
1
1
1
1
1
1
1
1
1
1
1
1
1
1
1
1
1.00001
1
1
1
1
1
1
1
1
1
1
1
1
1
1
1
1
1
1
1
1
1
1
1
1
1
1
1
1
1
1
1
1
1
1
1
1
1
1
1
1
1
1
1
1
1
1
1
1
1
1
1
1
1
1
1
1
1
1
1
1
1
1
1
1
1
1
1
1
1
1
1
1
1
1
1
1
1
1
1
1
1
1
1
1
1
1
1
1
1
1
1
1
1
1
1
1
1
1
)
;

boundaryField
{
    leftWall
    {
        type            calculated;
        value           nonuniform List<scalar> 
50
(
13529
13529
13529
13529
13529
9029.63
1220.64
1000
1000
1000
1000
882.907
676.696
441.097
442.514
302.256
34.7878
1.00044
1.00032
1.00041
1.00043
1.00047
1.00018
1.00005
1.00004
1.00004
1.00004
1.00003
1.00003
1.00002
1.00002
1.00001
1.00001
1.00001
1.00001
1
1
1
1
1
1
1
1
1
1
1
1
1
1
1
)
;
    }
    rightWall
    {
        type            calculated;
        value           nonuniform List<scalar> 
50
(
9717.29
7403.84
5348.27
2811.75
1660.81
827.71
828.84
860.094
640.991
622.018
528.033
503.996
502.089
496.11
493.056
491.849
491.708
541.915
481.472
70.3844
1.00204
1.0031
1.0059
1.00286
1.00039
1.00015
1.0005
1.00049
1.00044
1.00005
1.00001
1.00001
1.00001
1.00001
1.00002
1.00002
1.00003
1.00003
1.00003
1.00002
1.00002
1.00001
1.00001
1
1
1
1
1
1
1
)
;
    }
    lowerWall
    {
        type            calculated;
        value           nonuniform List<scalar> 
62
(
13529
13529
13529
13529
13529
13529
13529
13529
13529
13529
13529
13529
13529
13529
13529
13529
13529
13529
13529
13527.9
13522.8
13521.6
13521.6
13521.6
13526.8
13529
13529
13529
13238
4934
997.244
1491.92
1885.2
1985.61
1981.03
11852.7
8970.1
1898.69
2671.76
3821.04
2761.39
969.713
1001.83
11852.7
11924.5
11936.7
11939.3
11910.6
11218.9
8118.81
8011.04
8055.73
7997.51
7940.65
9122.17
9980.06
9874.86
9853.5
9810.3
9721.85
9718.45
9717.29
)
;
    }
    atmosphere
    {
        type            calculated;
        value           nonuniform List<scalar> 
46
(
1
1
1
1
1
1
1
1
1
1
1
1
1
1
1
1
1
1
1
1
1
1
1
1
1
1
1
1
1
1
1
1
1
1
1
1
1
1
1
1
1
1
1
1
1
1
)
;
    }
    defaultFaces
    {
        type            empty;
    }
}


// ************************************************************************* //
