/*--------------------------------*- C++ -*----------------------------------*\
  =========                 |
  \\      /  F ield         | OpenFOAM: The Open Source CFD Toolbox
   \\    /   O peration     | Website:  https://openfoam.org
    \\  /    A nd           | Version:  13
     \\/     M anipulation  |
\*---------------------------------------------------------------------------*/
FoamFile
{
    format      ascii;
    class       volVectorField;
    location    "1.8";
    object      U;
}
// * * * * * * * * * * * * * * * * * * * * * * * * * * * * * * * * * * * * * //

dimensions      [0 1 -1 0 0 0 0];

internalField   nonuniform List<vector> 
2268
(
(-0.0164653 0.00699285 0)
(-0.03201 0.0055549 0)
(-0.0520338 0.00572283 0)
(-0.0720383 0.00567712 0)
(-0.0904937 0.00544317 0)
(-0.107306 0.00509683 0)
(-0.122289 0.00467303 0)
(-0.135244 0.00414074 0)
(-0.145943 0.00349464 0)
(-0.154286 0.0027833 0)
(-0.160262 0.00201325 0)
(-0.163676 0.00111027 0)
(-0.164162 3.14672e-05 0)
(-0.161484 -0.00105455 0)
(-0.155664 -0.00223742 0)
(-0.146388 -0.00367268 0)
(-0.133021 -0.00534358 0)
(-0.115487 -0.00697608 0)
(-0.0943226 -0.00843415 0)
(-0.0703622 -0.00959081 0)
(-0.0452061 -0.00984763 0)
(-0.022092 -0.00773009 0)
(-0.0111481 -0.00641192 0)
(-0.0139451 0.0158967 0)
(-0.0319902 0.0147841 0)
(-0.0529397 0.0148603 0)
(-0.0735002 0.0140581 0)
(-0.0921853 0.0129043 0)
(-0.108953 0.0115928 0)
(-0.123596 0.0101468 0)
(-0.135879 0.00853186 0)
(-0.14561 0.0068186 0)
(-0.152793 0.00508896 0)
(-0.157484 0.00328904 0)
(-0.159496 0.00124878 0)
(-0.158468 -0.00104257 0)
(-0.154356 -0.003315 0)
(-0.147423 -0.00563409 0)
(-0.137513 -0.00833398 0)
(-0.12423 -0.0113167 0)
(-0.107717 -0.0140932 0)
(-0.088618 -0.0163757 0)
(-0.0677426 -0.0178595 0)
(-0.0462706 -0.0176254 0)
(-0.0263256 -0.0141826 0)
(-0.0123343 -0.00941874 0)
(-0.0124087 0.0261102 0)
(-0.0333737 0.0248084 0)
(-0.0543586 0.0245431 0)
(-0.0746326 0.0230516 0)
(-0.0929116 0.0209947 0)
(-0.109172 0.0186496 0)
(-0.123141 0.016055 0)
(-0.134535 0.0132022 0)
(-0.143209 0.0102237 0)
(-0.149266 0.0073568 0)
(-0.152811 0.00440591 0)
(-0.153662 0.00109435 0)
(-0.151498 -0.00252613 0)
(-0.146419 -0.00605196 0)
(-0.138855 -0.00952587 0)
(-0.128757 -0.0134749 0)
(-0.11584 -0.0177092 0)
(-0.100377 -0.0215268 0)
(-0.0830446 -0.0245294 0)
(-0.0645443 -0.0263283 0)
(-0.0457553 -0.0258931 0)
(-0.0280274 -0.0222932 0)
(-0.0133777 -0.0184306 0)
(-0.0111508 0.0368864 0)
(-0.0348413 0.0356874 0)
(-0.0556431 0.0347138 0)
(-0.0753739 0.0324204 0)
(-0.0930726 0.0294029 0)
(-0.108695 0.0259387 0)
(-0.121894 0.0220726 0)
(-0.13237 0.0178167 0)
(-0.139994 0.0135716 0)
(-0.144975 0.00944035 0)
(-0.147496 0.00521907 0)
(-0.147352 0.000540592 0)
(-0.14425 -0.00447523 0)
(-0.138438 -0.00922065 0)
(-0.130483 -0.0137717 0)
(-0.120364 -0.0188651 0)
(-0.107849 -0.0242304 0)
(-0.0933047 -0.0289658 0)
(-0.0773969 -0.0326026 0)
(-0.0606648 -0.0347373 0)
(-0.0437452 -0.0343557 0)
(-0.0274946 -0.0311149 0)
(-0.0125126 -0.0277864 0)
(-0.0120281 0.0437637 0)
(-0.0358487 0.0444424 0)
(-0.0561254 0.0428794 0)
(-0.0750979 0.040145 0)
(-0.092122 0.0366127 0)
(-0.107056 0.0324184 0)
(-0.119477 0.0275481 0)
(-0.129023 0.0220979 0)
(-0.135768 0.0165097 0)
(-0.139923 0.0111362 0)
(-0.141557 0.00561546 0)
(-0.140572 -0.000476398 0)
(-0.136729 -0.00690774 0)
(-0.130393 -0.0127685 0)
(-0.122217 -0.0182923 0)
(-0.112173 -0.0244559 0)
(-0.100068 -0.0308428 0)
(-0.0863508 -0.0363331 0)
(-0.0716473 -0.0404647 0)
(-0.0563279 -0.0429088 0)
(-0.0408761 -0.0426431 0)
(-0.0257166 -0.0396721 0)
(-0.0114849 -0.0370604 0)
(-0.0162477 0.0535311 0)
(-0.0363787 0.0533339 0)
(-0.0553433 0.0507196 0)
(-0.0732313 0.0471455 0)
(-0.0894595 0.0427126 0)
(-0.103642 0.0375069 0)
(-0.115252 0.0315725 0)
(-0.124177 0.0250335 0)
(-0.130327 0.0184134 0)
(-0.133788 0.0120547 0)
(-0.134774 0.00551169 0)
(-0.133152 -0.00178166 0)
(-0.128805 -0.00939352 0)
(-0.122255 -0.0161938 0)
(-0.114113 -0.0225518 0)
(-0.10421 -0.0296142 0)
(-0.0924904 -0.0367688 0)
(-0.0795619 -0.0427129 0)
(-0.0659818 -0.0470462 0)
(-0.0519107 -0.0494988 0)
(-0.0376632 -0.0489382 0)
(-0.0235499 -0.0460514 0)
(-0.0124395 -0.045736 0)
(-0.0184123 0.0752769 0)
(-0.0316897 0.0626377 0)
(-0.0491939 0.0581128 0)
(-0.0659292 0.0535386 0)
(-0.0816478 0.048293 0)
(-0.0954921 0.042264 0)
(-0.10679 0.0354344 0)
(-0.115419 0.0279847 0)
(-0.121637 0.020576 0)
(-0.125178 0.0131363 0)
(-0.125901 0.0055596 0)
(-0.123948 -0.00274069 0)
(-0.119686 -0.0112313 0)
(-0.113575 -0.0187829 0)
(-0.105655 -0.0258414 0)
(-0.0958181 -0.0336008 0)
(-0.0845751 -0.0412588 0)
(-0.0726475 -0.0475217 0)
(-0.0603708 -0.0521036 0)
(-0.0479215 -0.0547942 0)
(-0.0360499 -0.0545359 0)
(-0.0231727 -0.0519642 0)
(-0.0168475 -0.0527946 0)
(-0.00209957 0.0849805 0)
(-0.0144338 0.0774484 0)
(-0.0264523 0.0735064 0)
(-0.0386103 0.0681988 0)
(-0.0514714 0.0612004 0)
(-0.06496 0.0523977 0)
(-0.0782629 0.0423669 0)
(-0.0903552 0.032184 0)
(-0.100203 0.0220573 0)
(-0.106872 0.0131879 0)
(-0.109625 0.00464157 0)
(-0.10873 -0.00449982 0)
(-0.105533 -0.013676 0)
(-0.100481 -0.0215439 0)
(-0.0930096 -0.0290585 0)
(-0.0833081 -0.0376227 0)
(-0.0727569 -0.0457584 0)
(-0.0620006 -0.052046 0)
(-0.0511064 -0.0564978 0)
(-0.0403024 -0.0589907 0)
(-0.0303481 -0.0578774 0)
(-0.0193893 -0.0537431 0)
(-0.0191887 -0.0571497 0)
(0.0158719 -0.0107347 0)
(0.0412403 -0.0132499 0)
(0.0679667 -0.0104415 0)
(0.08188 -0.00433994 0)
(0.0878355 -0.00259685 0)
(0.0911416 -0.00169494 0)
(0.0921984 0.000681656 0)
(0.101228 -0.00676689 0)
(0.122416 -0.0105377 0)
(0.148238 -0.00774069 0)
(0.165085 -0.000750977 0)
(0.164934 0.00380128 0)
(0.149432 0.0111229 0)
(0.115454 0.0144357 0)
(0.0740965 0.014674 0)
(0.037892 0.00992622 0)
(0.0144961 0.00364776 0)
(0.00681275 -0.00168955 0)
(0.00636252 0.00225362 0)
(0.0284781 -0.0160887 0)
(0.0643077 -0.0170861 0)
(0.090584 -0.0117085 0)
(0.0958504 -0.00501006 0)
(0.0928604 -0.00224387 0)
(0.0921932 -0.00290174 0)
(0.0985801 -0.00267012 0)
(0.108731 -0.00969859 0)
(0.120086 -0.0148022 0)
(0.13519 -0.0140763 0)
(0.151357 -0.00636556 0)
(0.158031 0.00300391 0)
(0.148353 0.0158201 0)
(0.122373 0.0234606 0)
(0.0900855 0.024563 0)
(0.0598348 0.019228 0)
(0.033776 0.0115362 0)
(0.0137277 0.00557425 0)
(-0.00623726 0.00352374 0)
(0.0523087 -0.0309329 0)
(0.0966548 -0.0294188 0)
(0.133249 -0.00912554 0)
(0.12372 -0.00210756 0)
(0.108356 -0.000251182 0)
(0.104329 -0.00388692 0)
(0.110288 -0.00534872 0)
(0.115989 -0.0114442 0)
(0.119156 -0.0171068 0)
(0.12559 -0.0176564 0)
(0.136455 -0.0101704 0)
(0.143427 0.00365868 0)
(0.138349 0.0210378 0)
(0.120905 0.0324611 0)
(0.100292 0.0348261 0)
(0.0785695 0.0295808 0)
(0.0534296 0.0214448 0)
(0.0288116 0.0147445 0)
(0.00420213 0.00390868 0)
(0.0760383 -0.0765695 0)
(0.11209 -0.0799669 0)
(0.189281 -0.0174587 0)
(0.176695 0.0105157 0)
(0.135947 0.00673578 0)
(0.117867 -0.00459471 0)
(0.120667 -0.00749374 0)
(0.125002 -0.0121237 0)
(0.121718 -0.0180924 0)
(0.116994 -0.0195406 0)
(0.119401 -0.0137609 0)
(0.125869 0.00237082 0)
(0.124298 0.0244953 0)
(0.113433 0.0394734 0)
(0.102795 0.0413812 0)
(0.0910439 0.0384263 0)
(0.0750107 0.0320021 0)
(0.0558797 0.025274 0)
(0.0423785 0.0175302 0)
(0.0853254 -0.112044 0)
(0.0922798 -0.10792 0)
(0.167342 -0.0447016 0)
(0.198145 0.020751 0)
(0.154083 0.025445 0)
(0.117295 -0.000154787 0)
(0.117884 -0.0114274 0)
(0.13364 -0.0129067 0)
(0.127183 -0.0147354 0)
(0.109636 -0.0189163 0)
(0.103364 -0.0155288 0)
(0.105096 0.00158532 0)
(0.109103 0.0270458 0)
(0.107928 0.0434218 0)
(0.104059 0.0441658 0)
(0.10011 0.043731 0)
(0.0923984 0.0369634 0)
(0.077239 0.0309712 0)
(0.0664904 0.043728 0)
(0.093438 -0.141934 0)
(0.0691175 -0.123299 0)
(0.126681 -0.0655516 0)
(0.168639 0.0170787 0)
(0.143465 0.0454959 0)
(0.0994837 0.00958967 0)
(0.0955961 -0.0163148 0)
(0.11423 -0.0174188 0)
(0.118407 -0.00757307 0)
(0.101461 -0.00979549 0)
(0.0908537 -0.0148081 0)
(0.0882197 -9.43909e-05 0)
(0.0926021 0.0257353 0)
(0.0989522 0.043154 0)
(0.107006 0.0438121 0)
(0.113518 0.0451301 0)
(0.108671 0.0409735 0)
(0.0865086 0.0394829 0)
(0.0597083 0.0790177 0)
(0.109991 -0.169592 0)
(0.0528296 -0.130042 0)
(0.0899743 -0.0806385 0)
(0.122123 0.00946062 0)
(0.111254 0.0617875 0)
(0.0762981 0.0181541 0)
(0.0709767 -0.0195064 0)
(0.0839051 -0.0228601 0)
(0.09083 -0.0031805 0)
(0.0779015 -0.00603406 0)
(0.0713267 -0.00910611 0)
(0.0699874 -0.00120624 0)
(0.0772539 0.020615 0)
(0.0939424 0.0375122 0)
(0.110321 0.0384626 0)
(0.122348 0.042535 0)
(0.11952 0.0474267 0)
(0.0892256 0.0566801 0)
(0.0428672 0.106116 0)
(0.142902 -0.203432 0)
(0.045652 -0.117284 0)
(0.0530342 -0.0882786 0)
(0.0751282 0.00373282 0)
(0.0692813 0.0722644 0)
(0.0499311 0.0247567 0)
(0.0458106 -0.0212854 0)
(0.0533466 -0.0272155 0)
(0.0592283 -0.00208991 0)
(0.0538721 -0.00345475 0)
(0.0524809 -0.00909371 0)
(0.0569841 -0.00270566 0)
(0.0693285 0.0149868 0)
(0.0891943 0.0278757 0)
(0.108222 0.0317184 0)
(0.121435 0.0390326 0)
(0.119343 0.0543046 0)
(0.0863757 0.0775326 0)
(0.032263 0.126546 0)
(0.0107743 0.0765276 0)
(0.00525123 0.0774428 0)
(0.00159103 0.0752968 0)
(-0.00220594 0.0716726 0)
(-0.00599748 0.0670609 0)
(-0.0102417 0.0612387 0)
(-0.0153206 0.053843 0)
(-0.0209753 0.0446815 0)
(-0.026884 0.0342689 0)
(-0.0325 0.0217624 0)
(-0.0374746 0.00806957 0)
(-0.0412072 -0.00563276 0)
(-0.0428069 -0.0183399 0)
(-0.0419123 -0.029645 0)
(-0.0389997 -0.0401222 0)
(-0.034461 -0.0500729 0)
(-0.0275694 -0.0589532 0)
(-0.0190524 -0.0662223 0)
(-0.0102536 -0.0715522 0)
(-0.00206341 -0.0743763 0)
(0.00535721 -0.0728803 0)
(0.0128374 -0.0672832 0)
(0.00270709 -0.0677326 0)
(0.0077127 0.0688747 0)
(0.00816256 0.0765409 0)
(0.0117209 0.0743935 0)
(0.0155142 0.069877 0)
(0.0194419 0.0645347 0)
(0.0229002 0.0584566 0)
(0.0253839 0.0512917 0)
(0.0267948 0.0428595 0)
(0.0275301 0.0330244 0)
(0.0280688 0.0223643 0)
(0.0286179 0.0107699 0)
(0.0291955 -0.00161885 0)
(0.0299403 -0.0143705 0)
(0.0314491 -0.0267433 0)
(0.0341442 -0.0388372 0)
(0.0379817 -0.0509286 0)
(0.042575 -0.0615471 0)
(0.0470565 -0.069029 0)
(0.0505966 -0.0730883 0)
(0.0527907 -0.0739576 0)
(0.0545325 -0.0717156 0)
(0.0581822 -0.0667766 0)
(0.0649722 -0.0693981 0)
(-0.00336574 0.0640991 0)
(0.00250648 0.0692472 0)
(0.0112468 0.0663507 0)
(0.0205636 0.0616398 0)
(0.0298251 0.0566766 0)
(0.038314 0.0515318 0)
(0.0456382 0.0455569 0)
(0.0519073 0.0381308 0)
(0.05746 0.0291186 0)
(0.0625779 0.0188188 0)
(0.0673215 0.00753921 0)
(0.0715988 -0.00444449 0)
(0.0752776 -0.0166985 0)
(0.0785919 -0.029048 0)
(0.0818806 -0.0414586 0)
(0.085087 -0.0533432 0)
(0.087696 -0.0633007 0)
(0.0886711 -0.0697116 0)
(0.0873174 -0.0725153 0)
(0.083269 -0.0721398 0)
(0.0763889 -0.0693091 0)
(0.0680405 -0.0662715 0)
(0.0573858 -0.0661347 0)
(-0.00524054 0.0657905 0)
(0.00206935 0.061786 0)
(0.0114798 0.0562796 0)
(0.0233678 0.0511597 0)
(0.0354411 0.0464276 0)
(0.0466324 0.0423568 0)
(0.0564719 0.0375303 0)
(0.0655563 0.0308362 0)
(0.0743153 0.0223164 0)
(0.0826061 0.0125967 0)
(0.090221 0.0019562 0)
(0.0970719 -0.00930852 0)
(0.103033 -0.0208284 0)
(0.108064 -0.032538 0)
(0.112048 -0.0442565 0)
(0.114635 -0.055352 0)
(0.115002 -0.0638967 0)
(0.112424 -0.067855 0)
(0.106068 -0.0672472 0)
(0.095102 -0.0626463 0)
(0.0793306 -0.0549936 0)
(0.0591564 -0.0480392 0)
(0.034446 -0.0435287 0)
(-0.00999994 0.0695939 0)
(0.00548203 0.0548477 0)
(0.0175452 0.0448504 0)
(0.0314861 0.0390046 0)
(0.0446736 0.0344982 0)
(0.0562022 0.0321156 0)
(0.0663866 0.028261 0)
(0.0763768 0.021462 0)
(0.0867164 0.0128905 0)
(0.0968956 0.00358192 0)
(0.106298 -0.00639694 0)
(0.11471 -0.0169404 0)
(0.122148 -0.0277064 0)
(0.128661 -0.0384984 0)
(0.133754 -0.0486721 0)
(0.13617 -0.056984 0)
(0.134629 -0.0614189 0)
(0.128621 -0.0604744 0)
(0.118121 -0.0542981 0)
(0.102802 -0.0438735 0)
(0.0827446 -0.031516 0)
(0.0567137 -0.0191543 0)
(0.0226089 -0.00806571 0)
(-0.0104311 0.0728784 0)
(0.0128734 0.037586 0)
(0.0282054 0.0281041 0)
(0.0421273 0.023488 0)
(0.0541679 0.0205521 0)
(0.0651301 0.0199787 0)
(0.0757231 0.0166587 0)
(0.0862495 0.00939148 0)
(0.0967909 0.000565793 0)
(0.107284 -0.00844249 0)
(0.117448 -0.0176432 0)
(0.126925 -0.0272412 0)
(0.135543 -0.0366999 0)
(0.142776 -0.0457898 0)
(0.148613 -0.053249 0)
(0.151468 -0.0571851 0)
(0.149326 -0.0567337 0)
(0.142284 -0.051887 0)
(0.129837 -0.0420558 0)
(0.111643 -0.0280708 0)
(0.0869915 -0.0111835 0)
(0.0533679 0.00779913 0)
(0.00912415 0.0276602 0)
(0.0171827 0.0603294 0)
(0.0337307 0.0233749 0)
(0.0426059 0.0162857 0)
(0.0519699 0.0127741 0)
(0.060501 0.0108837 0)
(0.0696477 0.00984621 0)
(0.0801243 0.00608421 0)
(0.0910831 -0.000822635 0)
(0.102015 -0.00895854 0)
(0.112845 -0.0172176 0)
(0.123616 -0.0255321 0)
(0.134112 -0.0339218 0)
(0.143676 -0.0418859 0)
(0.151904 -0.0491942 0)
(0.157001 -0.0548685 0)
(0.158405 -0.0568299 0)
(0.155786 -0.0531249 0)
(0.147277 -0.044253 0)
(0.132579 -0.0301885 0)
(0.111019 -0.0109087 0)
(0.081477 0.012983 0)
(0.0417548 0.0389341 0)
(-0.00771815 0.0641748 0)
(0.0345424 0.0292857 0)
(0.0468113 0.0120665 0)
(0.0565188 0.00889052 0)
(0.0647802 0.00694415 0)
(0.0696873 0.00588915 0)
(0.0749909 0.00339885 0)
(0.0841812 -0.00119166 0)
(0.0954722 -0.00835246 0)
(0.107393 -0.0162825 0)
(0.119349 -0.024421 0)
(0.131318 -0.0325201 0)
(0.142859 -0.0403963 0)
(0.153204 -0.0474607 0)
(0.161001 -0.0524907 0)
(0.16505 -0.0557732 0)
(0.160583 -0.0553446 0)
(0.149373 -0.0491445 0)
(0.136002 -0.0361427 0)
(0.116883 -0.0179886 0)
(0.0903711 0.00627088 0)
(0.0565635 0.0343946 0)
(0.0158561 0.0671209 0)
(-0.0295579 0.096534 0)
(-0.00784729 -0.0163291 0)
(0.0340333 -0.00453463 0)
(0.0614603 -0.00247263 0)
(0.0811624 0.000894018 0)
(0.0849257 0.00135857 0)
(0.0821177 -0.00189606 0)
(0.0899743 -0.00615462 0)
(0.101623 -0.0134445 0)
(0.113518 -0.0214376 0)
(0.125537 -0.0297054 0)
(0.137611 -0.038417 0)
(0.148458 -0.0473093 0)
(0.15557 -0.0553482 0)
(0.152928 -0.0627881 0)
(0.128903 -0.0500097 0)
(0.0967175 -0.0409792 0)
(0.0742485 -0.0204909 0)
(0.0589549 0.00172574 0)
(0.0452124 0.0387463 0)
(0.0284361 0.0856411 0)
(0.00779151 0.139651 0)
(-0.0185694 0.196869 0)
(-0.0431121 0.242578 0)
(0.00507809 -0.00493848 0)
(0.0205294 -0.0317624 0)
(0.0358993 -0.0378136 0)
(0.0580475 -0.0206818 0)
(0.0794751 0.0113127 0)
(0.0718721 -0.00831455 0)
(0.0573195 -0.0310059 0)
(0.0509587 -0.0478791 0)
(0.0499815 -0.0597578 0)
(0.0536688 -0.0708637 0)
(0.0607623 -0.0800677 0)
(0.0677103 -0.0823739 0)
(0.0703503 -0.0716184 0)
(0.0644361 -0.0423141 0)
(0.0524344 -0.0269199 0)
(0.0346221 -0.00314274 0)
(0.0205818 -0.0104156 0)
(0.00786757 0.0030034 0)
(-0.00553829 0.0300427 0)
(-0.0173405 0.067851 0)
(-0.0288076 0.113057 0)
(-0.0398963 0.161465 0)
(-0.0492488 0.202978 0)
(-0.00169528 -0.0345436 0)
(0.00726439 -0.0585133 0)
(0.0106842 -0.070703 0)
(0.00782082 -0.0518497 0)
(0.0179064 0.00712201 0)
(0.0207995 0.00899228 0)
(0.0161038 -0.00551042 0)
(0.0106495 -0.0227387 0)
(0.006883 -0.0390985 0)
(0.00604643 -0.0545244 0)
(0.00732498 -0.0657178 0)
(0.00766894 -0.0674693 0)
(0.00514219 -0.0573752 0)
(0.00259312 -0.0359817 0)
(-0.000988538 -0.00964274 0)
(-0.00384274 -0.0056984 0)
(-0.00867308 0.00122827 0)
(-0.0198733 0.0153666 0)
(-0.0299043 0.0402387 0)
(-0.0367309 0.0741607 0)
(-0.0399121 0.11508 0)
(-0.0380487 0.158941 0)
(-0.0288492 0.19855 0)
(0.00782249 -0.0290884 0)
(0.00261608 -0.0368346 0)
(-0.00838477 -0.049573 0)
(-0.0214079 -0.0408798 0)
(-0.0236948 -0.00113286 0)
(-0.0181291 0.00655125 0)
(-0.0160402 -0.00317154 0)
(-0.01724 -0.0188132 0)
(-0.0196538 -0.0353309 0)
(-0.0220904 -0.0520617 0)
(-0.0245208 -0.0623181 0)
(-0.0282984 -0.062655 0)
(-0.0329769 -0.051696 0)
(-0.0360397 -0.0330476 0)
(-0.0342536 -0.0153488 0)
(-0.0319118 -0.00132065 0)
(-0.0341313 0.0088204 0)
(-0.0394012 0.0242914 0)
(-0.0442228 0.0474079 0)
(-0.0460584 0.0779412 0)
(-0.0433359 0.114207 0)
(-0.0343334 0.152847 0)
(-0.0161316 0.188214 0)
(0.00055073 -0.0333201 0)
(-0.00771176 -0.0316392 0)
(-0.0219837 -0.0311233 0)
(-0.0367439 -0.0244481 0)
(-0.0419038 -0.00437591 0)
(-0.0386445 0.00106042 0)
(-0.0354021 -0.00590189 0)
(-0.0343582 -0.0188423 0)
(-0.0355447 -0.033898 0)
(-0.0386351 -0.0493854 0)
(-0.0436857 -0.0583623 0)
(-0.0496334 -0.0578853 0)
(-0.0550689 -0.0473489 0)
(-0.0577284 -0.0320662 0)
(-0.0563941 -0.016007 0)
(-0.0537767 -0.00280854 0)
(-0.0529122 0.0102112 0)
(-0.0536657 0.026565 0)
(-0.0538656 0.0481891 0)
(-0.0514372 0.0753332 0)
(-0.0448171 0.106872 0)
(-0.0323275 0.140187 0)
(-0.0103418 0.17155 0)
(-0.0100764 -0.0233779 0)
(-0.0186931 -0.0200884 0)
(-0.0318831 -0.0182666 0)
(-0.043704 -0.012851 0)
(-0.0489971 -0.00369919 0)
(-0.0480962 -0.00193322 0)
(-0.0458676 -0.00806969 0)
(-0.0448943 -0.0191294 0)
(-0.0459153 -0.0321238 0)
(-0.0495573 -0.0448087 0)
(-0.0557242 -0.0525091 0)
(-0.0625431 -0.0520067 0)
(-0.0680603 -0.0437338 0)
(-0.070505 -0.0318348 0)
(-0.0698453 -0.0184542 0)
(-0.0677098 -0.00516736 0)
(-0.06563 0.00873346 0)
(-0.0637658 0.025097 0)
(-0.0609246 0.0451213 0)
(-0.0556444 0.0690847 0)
(-0.0466565 0.0962186 0)
(-0.0325294 0.124804 0)
(-0.00930437 0.152448 0)
(-0.0143914 -0.00744326 0)
(-0.0241516 -0.00706286 0)
(-0.036104 -0.00645831 0)
(-0.0457547 -0.00420372 0)
(-0.0507992 -0.00140191 0)
(-0.0515918 -0.00271643 0)
(-0.051023 -0.00901846 0)
(-0.0511044 -0.0187253 0)
(-0.0529052 -0.0296723 0)
(-0.0569352 -0.0396657 0)
(-0.0629682 -0.0457466 0)
(-0.0695777 -0.0456747 0)
(-0.0746714 -0.0399415 0)
(-0.0772474 -0.0307645 0)
(-0.0774663 -0.0195713 0)
(-0.0759882 -0.00732114 0)
(-0.0736485 0.00615032 0)
(-0.0705906 0.0216766 0)
(-0.0661553 0.0399038 0)
(-0.0593365 0.0609647 0)
(-0.0492264 0.0843253 0)
(-0.0346701 0.10878 0)
(-0.0114935 0.132907 0)
(-0.0145771 0.0106952 0)
(-0.024949 0.00613436 0)
(-0.0361138 0.00395082 0)
(-0.0446645 0.0029293 0)
(-0.0497428 0.00176111 0)
(-0.0518864 -0.0018864 0)
(-0.0528817 -0.00853417 0)
(-0.0542116 -0.0172637 0)
(-0.0567951 -0.0265593 0)
(-0.0610605 -0.034624 0)
(-0.0667113 -0.0395651 0)
(-0.0725862 -0.0400143 0)
(-0.0773406 -0.0361258 0)
(-0.0802042 -0.0291284 0)
(-0.0810857 -0.0198458 0)
(-0.0803047 -0.00901931 0)
(-0.0782065 0.00331349 0)
(-0.0748559 0.017472 0)
(-0.0698745 0.0337398 0)
(-0.0625456 0.0521131 0)
(-0.0522813 0.0721599 0)
(-0.0380781 0.0930432 0)
(-0.0157502 0.113829 0)
(-0.0133253 0.0275436 0)
(-0.0235267 0.0188198 0)
(-0.0339701 0.013514 0)
(-0.0419418 0.00960361 0)
(-0.0472151 0.00562242 0)
(-0.0503645 0.000273294 0)
(-0.0526095 -0.00674653 0)
(-0.0549869 -0.0148344 0)
(-0.0582127 -0.0229275 0)
(-0.0625622 -0.0297515 0)
(-0.0677829 -0.0340057 0)
(-0.0730943 -0.0348639 0)
(-0.0775576 -0.0323558 0)
(-0.0805892 -0.0270174 0)
(-0.0820016 -0.0194656 0)
(-0.081833 -0.0101814 0)
(-0.0801954 0.000693699 0)
(-0.0770592 0.0132225 0)
(-0.0722067 0.0274716 0)
(-0.0650915 0.0433355 0)
(-0.0553153 0.0604615 0)
(-0.0420694 0.0781944 0)
(-0.021114 0.0959022 0)
(-0.0118166 0.0432219 0)
(-0.0213182 0.0307469 0)
(-0.0309779 0.0225273 0)
(-0.0384942 0.016124 0)
(-0.0438999 0.0100458 0)
(-0.0477218 0.00341606 0)
(-0.0508389 -0.00396164 0)
(-0.0539654 -0.0116759 0)
(-0.0576242 -0.0189869 0)
(-0.0619968 -0.0250141 0)
(-0.0668862 -0.0289079 0)
(-0.07176 -0.0301236 0)
(-0.0759947 -0.0285971 0)
(-0.0791286 -0.024625 0)
(-0.0809125 -0.01858 0)
(-0.0812626 -0.0108039 0)
(-0.0801562 -0.00146863 0)
(-0.0775075 0.00936043 0)
(-0.073164 0.0216333 0)
(-0.0666856 0.0351875 0)
(-0.0578416 0.0497166 0)
(-0.0458818 0.0646863 0)
(-0.0266401 0.079625 0)
(-0.0103582 0.0573211 0)
(-0.0188887 0.041634 0)
(-0.027687 0.0309045 0)
(-0.0347004 0.022454 0)
(-0.0400708 0.0147772 0)
(-0.0442512 0.00717262 0)
(-0.0478803 -0.000524082 0)
(-0.0514717 -0.00804603 0)
(-0.0553748 -0.0148789 0)
(-0.0597147 -0.0204328 0)
(-0.0643451 -0.0241506 0)
(-0.0689039 -0.0256708 0)
(-0.072954 -0.0249211 0)
(-0.0761277 -0.0220497 0)
(-0.0781786 -0.0173013 0)
(-0.0789625 -0.0109186 0)
(-0.0783858 -0.00307515 0)
(-0.0763425 0.006109 0)
(-0.0726844 0.0165198 0)
(-0.0670939 0.0279805 0)
(-0.0593686 0.0402178 0)
(-0.0488972 0.052767 0)
(-0.0315683 0.0652458 0)
(-0.0089813 0.0696983 0)
(-0.0164028 0.0513248 0)
(-0.0242392 0.0385243 0)
(-0.0306312 0.028444 0)
(-0.0357685 0.019555 0)
(-0.0400268 0.0112182 0)
(-0.0438679 0.00326216 0)
(-0.0476824 -0.00416742 0)
(-0.0516737 -0.0107169 0)
(-0.0559308 -0.0159983 0)
(-0.0603437 -0.0196545 0)
(-0.0646562 -0.0214492 0)
(-0.0685508 -0.0213204 0)
(-0.071735 -0.0193535 0)
(-0.0739805 -0.015712 0)
(-0.0751228 -0.0105775 0)
(-0.0750377 -0.00411128 0)
(-0.0736158 0.0035478 0)
(-0.0707089 0.012259 0)
(-0.0660736 0.021853 0)
(-0.0595628 0.0320751 0)
(-0.0505936 0.0425144 0)
(-0.0351624 0.0528432 0)
(-0.007592 0.0803319 0)
(-0.0138099 0.0597227 0)
(-0.020581 0.0452637 0)
(-0.0262188 0.0339293 0)
(-0.0309389 0.0241477 0)
(-0.0350446 0.0152863 0)
(-0.0388691 0.0071479 0)
(-0.0427028 -0.00022158 0)
(-0.0466615 -0.00659695 0)
(-0.0507883 -0.0117206 0)
(-0.0549995 -0.0153743 0)
(-0.0591044 -0.017412 0)
(-0.0628624 -0.0177937 0)
(-0.0660368 -0.0165764 0)
(-0.0684236 -0.0138775 0)
(-0.0698588 -0.00984049 0)
(-0.0702103 -0.00460926 0)
(-0.0693723 0.00167602 0)
(-0.0672023 0.0088717 0)
(-0.063522 0.0168182 0)
(-0.0581708 0.0252823 0)
(-0.0506637 0.0338913 0)
(-0.0371051 0.0423479 0)
(-0.00608344 0.089131 0)
(-0.0110176 0.0667224 0)
(-0.0166097 0.0510006 0)
(-0.0213711 0.0387591 0)
(-0.0255229 0.0283672 0)
(-0.0292994 0.0191729 0)
(-0.0329393 0.0109424 0)
(-0.0366318 0.00364861 0)
(-0.0404669 -0.00259556 0)
(-0.0444232 -0.0076186 0)
(-0.0484342 -0.0112928 0)
(-0.0523497 -0.0135396 0)
(-0.0559789 -0.0143431 0)
(-0.059126 -0.0137501 0)
(-0.0616111 -0.0118528 0)
(-0.06328 -0.00876871 0)
(-0.0640048 -0.00462493 0)
(-0.0636871 0.000447027 0)
(-0.0622065 0.00631165 0)
(-0.0593809 0.0128183 0)
(-0.0551247 0.0197591 0)
(-0.0489485 0.0267861 0)
(-0.0370805 0.0336395 0)
(-0.00436771 0.0959182 0)
(-0.00794169 0.0722066 0)
(-0.0122602 0.0556275 0)
(-0.0160487 0.042812 0)
(-0.0195199 0.0320725 0)
(-0.0228407 0.0227285 0)
(-0.0261699 0.0145097 0)
(-0.0296167 0.00733436 0)
(-0.0332476 0.00122728 0)
(-0.037004 -0.00371178 0)
(-0.0408089 -0.00740569 0)
(-0.04454 -0.00982472 0)
(-0.0480393 -0.0109754 0)
(-0.0511404 -0.0109034 0)
(-0.0536852 -0.00968633 0)
(-0.0555326 -0.00742339 0)
(-0.0565642 -0.00422621 0)
(-0.0566903 -0.000213569 0)
(-0.0558067 0.0044909 0)
(-0.0537512 0.00974897 0)
(-0.0504425 0.0153754 0)
(-0.0454601 0.0210488 0)
(-0.0351664 0.0265311 0)
(-0.00242382 0.100465 0)
(-0.00459515 0.07607 0)
(-0.00756467 0.0590647 0)
(-0.0103129 0.046003 0)
(-0.0130271 0.0351652 0)
(-0.0158057 0.025849 0)
(-0.0187363 0.0177535 0)
(-0.0218704 0.0107553 0)
(-0.0252256 0.00482099 0)
(-0.0287544 -1.82766e-05 0)
(-0.0323436 -0.0037168 0)
(-0.0358864 -0.00626959 0)
(-0.039247 -0.00770301 0)
(-0.042281 -0.00806476 0)
(-0.0448481 -0.00742367 0)
(-0.0468211 -0.00586535 0)
(-0.0480919 -0.00348698 0)
(-0.0485808 -0.000393796 0)
(-0.0481998 0.00330406 0)
(-0.0467873 0.00748421 0)
(-0.0443031 0.01198 0)
(-0.0403458 0.016492 0)
(-0.0314124 0.0208166 0)
(-0.000325042 0.102548 0)
(-0.0010899 0.0782389 0)
(-0.00267801 0.0612718 0)
(-0.00434538 0.0482834 0)
(-0.00625302 0.0375829 0)
(-0.00843069 0.0284644 0)
(-0.0109006 0.0206069 0)
(-0.0136656 0.0138561 0)
(-0.0167018 0.00814073 0)
(-0.0199588 0.00343975 0)
(-0.0233211 -0.0002342 0)
(-0.0266651 -0.00288362 0)
(-0.0298722 -0.00454303 0)
(-0.0328142 -0.00526414 0)
(-0.0353659 -0.00510974 0)
(-0.0374127 -0.00415426 0)
(-0.0388572 -0.00248193 0)
(-0.0396284 -0.000184445 0)
(-0.039646 0.00264262 0)
(-0.038783 0.00589186 0)
(-0.0369608 0.00941217 0)
(-0.0338729 0.0129377 0)
(-0.0261679 0.0162775 0)
(0.00171766 0.102012 0)
(0.0023019 0.0786728 0)
(0.00213612 0.0622055 0)
(0.00155312 0.0496056 0)
(0.000480374 0.0392757 0)
(-0.00105013 0.0305245 0)
(-0.00300637 0.0230204 0)
(-0.00535249 0.0165923 0)
(-0.00803446 0.0111458 0)
(-0.0109752 0.00663092 0)
(-0.0140796 0.00302513 0)
(-0.017209 0.000319229 0)
(-0.0202417 -0.0015174 0)
(-0.0230634 -0.00253425 0)
(-0.0255606 -0.0027896 0)
(-0.02763 -0.00234854 0)
(-0.0291842 -0.00128357 0)
(-0.0301596 0.000326715 0)
(-0.0304883 0.00240043 0)
(-0.030045 0.0048446 0)
(-0.0287734 0.00752907 0)
(-0.0263937 0.0102082 0)
(-0.019698 0.0127234 0)
(0.00354719 0.0991018 0)
(0.00535762 0.0774628 0)
(0.00656744 0.0618913 0)
(0.00705699 0.0499611 0)
(0.00682916 0.0402072 0)
(0.00596564 0.0319743 0)
(0.00454968 0.0249375 0)
(0.00265741 0.0189147 0)
(0.000370648 0.0137962 0)
(-0.00221785 0.0095143 0)
(-0.00501001 0.00602765 0)
(-0.00788956 0.00331373 0)
(-0.0107214 0.00134778 0)
(-0.0133902 9.03246e-05 0)
(-0.0157919 -0.00050864 0)
(-0.0178333 -0.000505108 0)
(-0.0194356 3.86175e-05 0)
(-0.0205422 0.00105595 0)
(-0.0210892 0.00247844 0)
(-0.0209764 0.00422834 0)
(-0.0201302 0.00619018 0)
(-0.0183073 0.00814468 0)
(-0.0125116 0.00997284 0)
(0.00495475 0.0941608 0)
(0.00782831 0.0747196 0)
(0.0103158 0.0603783 0)
(0.011833 0.0493668 0)
(0.0124426 0.0403809 0)
(0.0122616 0.0328108 0)
(0.011412 0.0263427 0)
(0.0100004 0.0207943 0)
(0.00813168 0.0160523 0)
(0.00591417 0.0120449 0)
(0.00345968 0.00872432 0)
(0.000883765 0.00605608 0)
(-0.00169591 0.00401391 0)
(-0.00416843 0.00256968 0)
(-0.00643235 0.00168683 0)
(-0.00839629 0.00132034 0)
(-0.00998755 0.00141859 0)
(-0.0111557 0.00192542 0)
(-0.0118453 0.0027864 0)
(-0.0119607 0.00393839 0)
(-0.0114495 0.00527544 0)
(-0.0100396 0.00659525 0)
(-0.00494573 0.00786618 0)
(0.00583146 0.0877181 0)
(0.00958104 0.0706715 0)
(0.013164 0.0577614 0)
(0.0156183 0.0478542 0)
(0.017026 0.0397931 0)
(0.0175187 0.0330111 0)
(0.0172447 0.0272086 0)
(0.0163343 0.0222086 0)
(0.0149107 0.0178992 0)
(0.013094 0.0142074 0)
(0.0110023 0.0110854 0)
(0.00875114 0.00850121 0)
(0.0064543 0.00643226 0)
(0.00421697 0.00485611 0)
(0.00214152 0.00374637 0)
(0.000312977 0.00306992 0)
(-0.00120394 0.00278868 0)
(-0.00236704 0.00286068 0)
(-0.00312183 0.00324107 0)
(-0.00340132 0.00388024 0)
(-0.00313813 0.00470591 0)
(-0.0020013 0.0055243 0)
(0.00250857 0.0061698 0)
(0.00616183 0.0804087 0)
(0.0105804 0.0656134 0)
(0.0150331 0.0541933 0)
(0.018286 0.0455052 0)
(0.0204091 0.0384843 0)
(0.0215304 0.0325884 0)
(0.0218122 0.0275293 0)
(0.0214007 0.0231373 0)
(0.0204319 0.0193068 0)
(0.0190345 0.0159703 0)
(0.0173302 0.0130854 0)
(0.015434 0.0106249 0)
(0.0134542 0.00857107 0)
(0.0114938 0.00690955 0)
(0.00964114 0.0056235 0)
(0.00797976 0.0046946 0)
(0.00657286 0.00409848 0)
(0.00546523 0.00380485 0)
(0.00470468 0.00377663 0)
(0.00437228 0.00397492 0)
(0.00449475 0.00435509 0)
(0.00526544 0.00475008 0)
(0.0091391 0.00489008 0)
(0.00607417 0.0727783 0)
(0.0109569 0.0598602 0)
(0.0159989 0.0498786 0)
(0.0198604 0.042455 0)
(0.0225671 0.0365408 0)
(0.0242292 0.0315942 0)
(0.0250112 0.0273312 0)
(0.0250665 0.0235896 0)
(0.0245372 0.0202721 0)
(0.0235558 0.0173204 0)
(0.0222454 0.0147007 0)
(0.0207189 0.0123951 0)
(0.0190801 0.0103938 0)
(0.0174238 0.00869135 0)
(0.0158359 0.00728131 0)
(0.014389 0.00615471 0)
(0.0131433 0.00529854 0)
(0.0121418 0.00469492 0)
(0.0114318 0.00431914 0)
(0.0110807 0.00413912 0)
(0.0111326 0.00410358 0)
(0.0117 0.00409834 0)
(0.0150488 0.003959 0)
(0.00572302 0.0652188 0)
(0.01087 0.0537188 0)
(0.0162336 0.0450628 0)
(0.0204833 0.0388898 0)
(0.023602 0.0340977 0)
(0.0256772 0.0301226 0)
(0.0268674 0.0266775 0)
(0.0273248 0.0236055 0)
(0.0271912 0.0208182 0)
(0.0265981 0.0182678 0)
(0.025666 0.0159319 0)
(0.0245038 0.0138032 0)
(0.0232096 0.0118825 0)
(0.0218714 0.0101737 0)
(0.0205669 0.00868061 0)
(0.0193643 0.00740452 0)
(0.0183183 0.00634208 0)
(0.0174661 0.00548484 0)
(0.0168487 0.00482011 0)
(0.0165343 0.00432445 0)
(0.0165648 0.0039553 0)
(0.0170205 0.00360704 0)
(0.0199606 0.00319754 0)
(0.0052976 0.0579833 0)
(0.0105159 0.047467 0)
(0.0159398 0.0400033 0)
(0.0203507 0.0350242 0)
(0.0236904 0.0313242 0)
(0.0260252 0.0283033 0)
(0.0275029 0.0256654 0)
(0.0282696 0.0232562 0)
(0.0284616 0.0209959 0)
(0.0282048 0.0188477 0)
(0.0276133 0.0168012 0)
(0.0267896 0.014861 0)
(0.0258245 0.0130391 0)
(0.024798 0.0113499 0)
(0.0237806 0.00980671 0)
(0.0228324 0.00841999 0)
(0.0220031 0.00719597 0)
(0.0213271 0.00613518 0)
(0.0208394 0.00523419 0)
(0.0205941 0.0044793 0)
(0.02064 0.00383751 0)
(0.0210454 0.00321967 0)
(0.0236072 0.00255831 0)
(0.00491101 0.0511725 0)
(0.0100035 0.0413314 0)
(0.0152908 0.0349366 0)
(0.0196588 0.0310704 0)
(0.0230312 0.0284012 0)
(0.0254626 0.0262858 0)
(0.0270917 0.0244153 0)
(0.0280567 0.0226371 0)
(0.0284851 0.0208793 0)
(0.0284936 0.0191168 0)
(0.0281871 0.0173513 0)
(0.0276586 0.0155994 0)
(0.0269895 0.0138845 0)
(0.0262515 0.012231 0)
(0.0255066 0.0106617 0)
(0.0248075 0.00919542 0)
(0.0241969 0.00784671 0)
(0.0237062 0.006625 0)
(0.0233621 0.00553397 0)
(0.0232155 0.00456869 0)
(0.0233097 0.00370871 0)
(0.0236828 0.00287287 0)
(0.0259497 0.00201009 0)
(0.00459493 0.0447687 0)
(0.00942767 0.0354767 0)
(0.0144204 0.030056 0)
(0.0185757 0.0272169 0)
(0.0218096 0.0255024 0)
(0.0241789 0.0242229 0)
(0.0258206 0.0230572 0)
(0.0268663 0.0218556 0)
(0.0274334 0.0205564 0)
(0.0276264 0.0191465 0)
(0.0275378 0.0176398 0)
(0.0272487 0.0160647 0)
(0.0268296 0.0144549 0)
(0.0263424 0.0128442 0)
(0.0258409 0.0112639 0)
(0.0253703 0.00974084 0)
(0.0249667 0.00829634 0)
(0.0246554 0.00694792 0)
(0.0244619 0.00570664 0)
(0.0244208 0.00457565 0)
(0.0245711 0.00354033 0)
(0.0249485 0.00254316 0)
(0.0269262 0.00151622 0)
(0.00428761 0.0387495 0)
(0.00881623 0.0300082 0)
(0.0134333 0.0255042 0)
(0.0172455 0.0236227 0)
(0.0201906 0.0227872 0)
(0.0223497 0.0222621 0)
(0.0238712 0.0217196 0)
(0.0248844 0.0210209 0)
(0.0254941 0.020119 0)
(0.0257895 0.0190143 0)
(0.0258476 0.0177327 0)
(0.0257356 0.0163132 0)
(0.0255115 0.0147985 0)
(0.0252268 0.0132299 0)
(0.0249273 0.0116459 0)
(0.0246514 0.0100804 0)
(0.0244297 0.00856048 0)
(0.0242831 0.00711196 0)
(0.0242287 0.00575219 0)
(0.0242941 0.0044927 0)
(0.0245159 0.00332782 0)
(0.0248888 0.0022041 0)
(0.0266258 0.00105888 0)
(0.00396763 0.0330981 0)
(0.00826192 0.0249624 0)
(0.0124453 0.0213761 0)
(0.0158095 0.0204206 0)
(0.0183289 0.0204014 0)
(0.0201401 0.0205403 0)
(0.0214212 0.0205214 0)
(0.022301 0.0202338 0)
(0.0228678 0.0196536 0)
(0.0231896 0.0187963 0)
(0.0233255 0.0176979 0)
(0.0233261 0.0164068 0)
(0.0232358 0.0149717 0)