/*--------------------------------*- C++ -*----------------------------------*\
  =========                 |
  \\      /  F ield         | OpenFOAM: The Open Source CFD Toolbox
   \\    /   O peration     | Website:  https://openfoam.org
    \\  /    A nd           | Version:  13
     \\/     M anipulation  |
\*---------------------------------------------------------------------------*/
FoamFile
{
    format      ascii;
    class       volScalarField;
    location    "0.3";
    object      alpha.oil;
}
// * * * * * * * * * * * * * * * * * * * * * * * * * * * * * * * * * * * * * //

dimensions      [];

internalField   nonuniform List<scalar> 
2268
(
3.66134e-62
7.25864e-60
1.90387e-57
1.6451e-55
1.08971e-53
3.35694e-52
2.38082e-51
1.19003e-50
-5.53433e-37
-7.40019e-33
-6.89085e-31
-5.90923e-28
5.86774e-16
5.10134e-15
1.22336e-14
9.35564e-13
1.49808e-11
5.18189e-11
7.45809e-11
5.13474e-11
5.13593e-11
5.70681e-11
0.00115631
3.53703e-62
1.06812e-57
1.99334e-55
1.30962e-53
7.3723e-52
1.94447e-50
1.29778e-49
5.62356e-49
-3.89227e-35
-3.33874e-31
-2.78474e-29
-5.75947e-27
3.32469e-17
5.55922e-15
1.25752e-14
3.73301e-15
8.30685e-11
9.79097e-10
1.81453e-09
1.13195e-09
6.22275e-10
9.079e-11
0.000869941
3.95223e-58
3.86496e-56
5.20424e-54
3.13758e-52
1.52315e-50
3.76273e-49
2.34382e-48
7.98127e-48
-1.26758e-33
-7.52366e-30
-5.67304e-28
-4.56975e-26
3.52452e-17
4.23664e-14
1.75903e-13
5.81069e-15
3.02874e-10
3.79707e-10
3.682e-10
1.39883e-08
1.76139e-08
3.2758e-09
2.18466e-05
2.82793e-56
9.83991e-55
8.02896e-53
4.2635e-51
1.88602e-49
4.83977e-48
2.75179e-47
8.78197e-47
-2.55619e-32
-1.12647e-28
-7.73492e-27
-4.15936e-25
1.76636e-17
2.57509e-13
1.76659e-12
2.94976e-12
-1.00304e-13
1.14163e-07
1.58691e-08
1.5195e-08
1.53812e-08
1.80321e-09
4.89194e-07
4.40899e-55
9.16117e-54
5.61928e-52
2.58891e-50
1.08378e-48
2.55188e-47
1.37685e-46
3.59296e-46
-3.59615e-31
-1.25932e-27
-7.92524e-26
-3.67759e-24
-3.05691e-24
9.59564e-13
1.09562e-11
2.50249e-11
-2.71246e-23
1.15794e-06
3.03698e-06
7.72132e-07
4.70613e-08
7.29801e-10
0.00308115
2.3419e-54
3.45804e-53
1.64183e-51
7.26673e-50
2.92958e-48
6.25625e-47
3.29778e-46
7.35528e-46
-3.76299e-30
-1.11962e-26
-6.49636e-25
-2.78857e-23
-1.46482e-23
1.24057e-12
3.37716e-11
1.73542e-10
-1.91753e-27
2.60552e-07
0.000661895
0.00054526
3.59208e-05
4.13072e-07
0.00835323
3.18057e-54
4.1474e-53
1.51205e-51
6.42625e-50
2.17366e-48
4.7054e-47
2.97489e-46
6.12047e-46
-3.04228e-29
-8.22875e-26
-4.42733e-24
-1.78819e-22
-1.2533e-23
4.97927e-12
8.38542e-11
9.55765e-10
6.81448e-10
7.18085e-10
0.000503492
1.50708e-05
3.72677e-12
2.72878e-19
0.00835451
2.52833e-58
-1.01821e-57
-1.08637e-54
1.40305e-53
-4.01742e-52
2.53038e-50
-5.30417e-49
-1.68089e-47
-1.94369e-28
-5.12832e-25
-2.57321e-23
-9.83613e-22
5.80148e-31
2.5946e-11
1.79072e-10
1.31351e-09
2.08495e-09
1.26698e-09
4.04498e-06
0.00128606
-3.60195e-08
3.60724e-08
0.00327024
0.998412
0.998972
0.999069
0.999339
1
1
0.999941
0.999613
0.99976
0.99932
0.99422
0.989251
0.989181
0.9917
0.999972
0.999346
0.876288
0.867963
0.934011
0.998669
0.998851
0.981558
1
1
1
1
1
1
1
1
1
1
0.999999
1
1
0.966373
0.867954
0.904691
0.948105
0.808491
0.754047
0.972194
1
1
1
1
1
1
1
1
1
1
0.999999
1
1
0.921674
0.940161
0.796412
0.0748349
0.18722
0.73863
1
1
1
1
1
1
1
1
1
1
1
1
1
0.998669
0.993985
0.842381
0.00839493
0.0103868
0.452444
0.992495
1
1
1
1
1
1
1
1
1
1
1
1
1
1
0.844772
0.000508672
4.30426e-07
0.22233
0.943382
1
1
1
1
1
1
1
1
1
1
1
1
1
1
0.390743
0.00178353
4.23147e-08
0.129188
0.907138
1
1
1
1
1
1
1
1
1
1
1
1
1
1
1.86776e-07
1.00798e-07
4.04287e-08
0.196267
0.933761
1
1
1
1
1
1
1
1
1
1
1
1
1
1
1.94703e-39
9.23435e-39
5.08061e-37
1.58654e-35
7.31421e-34
1.98599e-32
2.98617e-31
8.19632e-30
-9.92595e-28
-2.75804e-24
-1.29833e-22
-4.71485e-21
3.22524e-13
6.82807e-11
3.8765e-10
1.00588e-09
1.98241e-09
1.86286e-09
-9.61482e-14
0.0156069
0.209446
0.173306
0.0057094
2.37613e-38
1.16943e-37
6.67717e-36
1.88933e-34
1.04701e-32
2.83313e-31
4.42027e-30
9.76174e-29
-6.92837e-27
-2.25415e-23
-9.98088e-22
-3.45818e-20
1.52373e-12
1.19481e-11
6.99884e-11
2.67722e-10
7.95505e-10
1.1446e-09
-4.66611e-11
0.000217895
0.205485
0.304406
0.159956
2.47174e-37
1.20281e-36
8.16281e-35
2.10206e-33
1.15715e-31
3.15098e-30
5.05147e-29
1.05911e-27
-3.33843e-26
-1.47673e-22
-6.16632e-21
-2.02627e-19
1.18493e-13
3.94899e-13
1.61773e-13
1.71398e-11
3.7191e-11
1.29339e-10
4.52797e-11
4.25555e-08
0.00730239
0.283681
0.464784
2.44473e-36
1.05135e-35
8.39906e-34
2.93607e-32
1.10688e-30
3.00396e-29
4.63332e-28
9.36189e-27
-1.00304e-25
-7.82103e-22
-3.1047e-20
-9.65659e-19
5.23311e-14
3.50289e-13
1.50825e-13
5.22469e-11
1.92738e-10
2.12311e-10
1.37959e-10
1.66816e-11
9.58908e-15
0.00828049
0.303042
3.21459e-35
8.59515e-35
6.44729e-33
2.52318e-31
9.28493e-30
2.38189e-28
3.37253e-27
6.5943e-26
-1.04272e-25
-3.41243e-21
-1.30283e-19
-3.82353e-18
1.02265e-13
1.66467e-12
4.86788e-12
7.63857e-11
2.23446e-10
2.35006e-10
9.18797e-11
2.49934e-12
-1.92463e-12
-8.25777e-20
0.145719
4.67006e-34
1.20856e-33
5.58699e-32
1.8285e-30
5.87369e-29
1.31834e-27
1.68736e-26
2.95603e-25
8.98543e-25
-1.24412e-20
-4.66254e-19
-1.28765e-17
9.04849e-14
2.60383e-12
2.82074e-10
5.89952e-17
1.85464e-16
1.46264e-21
-4.35232e-14
-1.92356e-15
0.0449724
0.288986
0.770717
3.05972e-33
1.19596e-32
4.41311e-31
1.31409e-29
3.72539e-28
7.15057e-27
8.95283e-26
1.02754e-24
6.29653e-24
-3.79844e-20
-1.45345e-18
-3.77032e-17
2.95414e-14
-4.1788e-17
5.8601e-08
5.88396e-06
0.0274982
0.131372
0.473597
0.794503
0.91039
0.983272
1
1.47816e-31
4.15068e-31
1.67372e-29
4.59665e-28
1.09607e-26
1.84157e-25
2.40092e-24
2.32458e-23
2.05747e-22
-9.47212e-20
-4.01907e-18
-9.7655e-17
-5.82814e-24
-6.39156e-17
1.62609e-15
0.133381
0.611409
0.988414
0.999589
1
1
1
1
1.88065e-29
3.82635e-29
1.86466e-27
5.04467e-26
1.10547e-24
1.80893e-23
2.08491e-22
2.02592e-21
1.63076e-20
-1.71799e-19
-9.97675e-18
-2.41575e-16
5.95431e-06
1.81378e-07
6.29012e-10
0.490806
0.996544
0.999968
0.999999
1
1
1
1
1.35147e-28
5.67592e-28
2.85636e-26
7.48283e-25
1.55336e-23
2.53447e-22
2.54895e-21
2.54224e-20
1.87542e-19
-9.41383e-20
-2.22212e-17
-5.56468e-16
3.7466e-05
2.71229e-05
-2.66582e-05
0.29184
0.76416
0.945144
0.989739
0.999589
1
1
1
4.59746e-28
2.35376e-27
1.04515e-25
2.62687e-24
5.29926e-23
8.59717e-22
8.11602e-21
8.16527e-20
5.58093e-19
8.34652e-19
-4.36277e-17
-1.2204e-15
4.04313e-05
0.000487005
0.000947654
4.48079e-07
0.0287529
0.184006
0.378978
0.537158
0.653244
0.711544
0.708985
1.41223e-27
1.19553e-26
4.08716e-25
9.38537e-24
1.81522e-22
2.84751e-21
2.61488e-20
2.61297e-19
1.53498e-18
4.01212e-18
-7.06146e-17
-2.44414e-15
0.000127803
0.000583914
9.30858e-06
6.98204e-08
5.66353e-14
-8.63102e-27
-3.56652e-10
-2.71992e-10
-1.03711e-10
0
-1.61837e-08
4.06822e-27
5.01262e-26
1.45957e-24
3.20535e-23
5.95932e-22
8.81155e-21
8.45662e-20
8.38815e-19
6.43548e-18
2.32181e-17
-7.77863e-17
-4.20707e-15
5.01879e-05
5.33743e-05
9.92561e-06
6.42152e-09
1.30135e-08
2.04005e-09
-7.90644e-10
-1.17812e-09
-9.12357e-10
4.28004e-18
2.72653e-17
9.75228e-27
1.73857e-25
4.7434e-24
1.00726e-22
1.82364e-21
2.53166e-20
2.55361e-19
2.48789e-18
1.73958e-17
7.13534e-17
-1.86133e-17
-5.80871e-15
-1.22636e-13
-7.61638e-12
-1.40638e-10
6.018e-09
1.30845e-09
-6.11872e-10
-8.86516e-10
-6.59996e-10
-3.81905e-10
2.55077e-09
3.67455e-09
2.14252e-26
5.40262e-25
1.41232e-23
2.7771e-22
4.72808e-21
6.25316e-20
6.19831e-19
5.62149e-18
3.80501e-17
1.71239e-16
1.6643e-16
-5.73526e-15
-2.5757e-13
-1.4243e-11
-6.8966e-10
-9.22839e-10
-7.55905e-10
-4.79022e-10
-2.29454e-10
-3.95296e-11
8.54365e-12
6.22486e-09
9.40608e-09
4.44672e-26
1.52907e-24
3.86487e-23
7.71115e-22
1.12638e-20
1.41474e-19
1.37836e-18
1.13728e-17
7.6769e-17
3.64661e-16
1.64088e-15
-2.27592e-15
-2.36144e-13
-8.25805e-12
-3.59437e-10
-3.79486e-10
-2.49372e-10
-1.14347e-10
-5.12011e-12
7.84213e-11
1.52538e-10
8.98191e-09
1.81053e-08
8.27396e-26
3.44832e-24
8.91786e-23
1.69042e-21
2.51158e-20
2.86141e-19
2.6628e-18
2.02884e-17
1.35528e-16
8.57334e-16
3.99649e-15
5.01421e-15
-1.26701e-13
-3.72607e-12
-1.19478e-10
-8.59835e-11
-3.36032e-11
8.33712e-12
4.66224e-11
7.76178e-11
1.4113e-10
9.03467e-09
2.14889e-08
1.27239e-25
5.8247e-24
1.50993e-22
2.77048e-21
3.88749e-20
4.32554e-19
3.90509e-18
3.03395e-17
1.95192e-16
1.05939e-15
5.07024e-15
1.83528e-14
1.23785e-14
-8.17358e-13
-1.84231e-11
-4.40984e-12
6.63131e-12
1.81924e-11
3.25066e-11
4.30258e-11
2.624e-10
2.09987e-09
2.70693e-09
1.49646e-25
7.12375e-24
1.82943e-22
3.2581e-21
4.37865e-20
4.64284e-19
4.00582e-18
3.02805e-17
1.88807e-16
1.01667e-15
4.98713e-15
2.12201e-14
8.0053e-14
2.62343e-13
7.51631e-13
2.09087e-12
4.73679e-12
8.86365e-12
1.33129e-11
1.44406e-11
1.11296e-11
1.26459e-11
2.01377e-11
1.25785e-25
6.05731e-24
1.5318e-22
2.64598e-21
3.43368e-20
3.53239e-19
2.97048e-18
2.08348e-17
1.23181e-16
6.36508e-16
2.96431e-15
1.24229e-14
4.37337e-14
1.34038e-13
3.6255e-13
8.2659e-13
1.57147e-12
2.6004e-12
3.69465e-12
4.79485e-12
6.91155e-12
1.15774e-11
2.11726e-11
7.06169e-26
3.37672e-24
8.12551e-23
1.26018e-21
1.74165e-20
1.69929e-19
1.35295e-18
8.95492e-18
5.00007e-17
2.4036e-16
1.02254e-15
3.63601e-15
1.26298e-14
3.45951e-14
7.80955e-14
1.77246e-13
3.16794e-13
5.11358e-13
8.32378e-13
1.59352e-12
2.92457e-12
5.906e-12
1.04606e-11
2.44748e-26
1.15262e-24
2.77169e-23
4.45743e-22
5.32892e-21
4.96995e-20
3.70796e-19
2.26449e-18
1.15197e-17
5.01174e-17
1.92983e-16
6.16863e-16
1.66783e-15
4.31733e-15
9.35456e-15
2.06621e-14
4.35658e-14
9.95464e-14
2.44475e-13
5.99498e-13
1.33817e-12
2.63727e-12
5.40709e-12
4.58588e-27
2.17932e-25
5.26667e-24
8.54496e-23
1.03369e-21
9.72684e-21
7.22367e-20
4.32256e-19
2.16517e-18
9.37713e-18
3.54212e-17
1.10507e-16
3.04184e-16
7.52255e-16
1.75373e-15
4.6043e-15
1.18237e-14
3.24442e-14
9.0527e-14
2.35453e-13
5.05037e-13
1.15822e-12
2.17938e-12
3.41557e-28
1.68115e-26
4.14915e-25
6.72872e-24
8.04573e-23
7.57994e-22
5.81705e-21
3.66558e-20
1.90982e-19
8.46804e-19
3.33735e-18
1.13707e-17
3.58159e-17
1.06803e-16
3.14006e-16
1.0299e-15
3.10921e-15
9.76433e-15
2.89921e-14
7.84095e-14
1.91088e-13
4.06279e-13
8.57608e-13
1.02323e-29
5.47318e-28
1.47154e-26
2.61234e-25
3.4199e-24
3.50193e-23
2.90921e-22
2.01143e-21
1.18159e-20
6.02036e-20
2.72244e-19
1.12013e-18
4.32369e-18
1.59208e-17
5.76588e-17
2.18033e-16
7.74673e-16
2.47956e-15
7.28815e-15
2.33757e-14
5.22949e-14
1.31469e-13
2.83261e-13
1.79634e-31
1.1271e-29
3.51929e-28
7.23438e-27
1.09653e-25
1.30065e-24
1.25105e-23
9.99692e-23
6.83587e-22
4.19124e-21
2.34553e-20
1.17069e-19
5.49621e-19
2.43539e-18
1.01966e-17
4.03662e-17
1.44901e-16
5.37243e-16
1.78036e-15
4.89874e-15
1.50732e-14
3.58623e-14
8.04379e-14
3.28809e-33
2.38557e-31
8.57476e-30
2.01967e-28
3.49561e-27
4.72995e-26
5.1964e-25
4.7667e-24
3.78947e-23
2.73786e-22
1.80465e-21
1.06068e-20
5.79608e-20
2.94018e-19
1.38664e-18
6.13321e-18
2.50595e-17
9.5472e-17
3.33721e-16
1.06607e-15
2.86846e-15
8.21501e-15
1.96245e-14
4.27114e-35
3.56869e-33
1.47657e-31
4.01327e-30
8.04087e-29
1.26494e-27
1.62198e-26
1.74554e-25
1.64586e-24
1.41848e-23
1.10491e-22
7.62141e-22
4.82171e-21
2.79199e-20
1.48006e-19
6.86705e-19
3.22147e-18
1.33217e-17
5.06387e-17
1.73193e-16
5.36783e-16
1.59369e-15
4.05598e-15
4.06345e-37
3.93228e-35
1.87356e-33
5.86425e-32
1.35883e-30
2.48625e-29
3.73465e-28
4.75957e-27
5.37373e-26
5.52842e-25
5.05739e-24
4.05417e-23
2.94323e-22
1.93947e-21
1.16955e-20
6.4344e-20
3.2571e-19
1.50626e-18
6.31791e-18
2.39001e-17
7.93366e-17
2.52913e-16
7.08029e-16
2.61591e-39
2.99194e-37
1.67682e-35
6.1757e-34
1.6865e-32
3.6395e-31
6.4476e-30
9.71948e-29
1.30456e-27
1.58833e-26
1.70052e-25
1.58374e-24
1.31835e-23
9.83512e-23
6.33372e-22
4.08194e-21
2.29596e-20
1.18148e-19
5.58016e-19
2.37419e-18
9.12512e-18
3.38318e-17
1.05306e-16
1.20648e-41
1.6526e-39
1.10699e-37
4.87698e-36
1.59274e-34
4.111e-33
8.73723e-32
1.58411e-30
2.5377e-29
3.62313e-28
4.49576e-27
4.84745e-26
4.67659e-25
4.06396e-24
3.19406e-23
2.29266e-22
1.50071e-21
8.89665e-21
4.7368e-20
2.24779e-19
9.11502e-19
3.47756e-18
1.31349e-17
3.78108e-44
6.27314e-42
5.0279e-40
2.64151e-38
1.02644e-36
3.15522e-35
8.09458e-34
1.81203e-32
3.55609e-31
5.96592e-30
8.59446e-29
1.08852e-27
1.21478e-26
1.15165e-25
1.06986e-24
8.62573e-24
6.33076e-23
4.23394e-22
2.58681e-21
1.41058e-20
6.9854e-20
3.49257e-19
1.39242e-18
8.45094e-47
1.80042e-44
1.76024e-42
1.12525e-40
5.27108e-39
1.91649e-37
5.71126e-36
1.46999e-34
3.29341e-33
6.29998e-32
1.04468e-30
1.54835e-29
2.06926e-28
2.47693e-27
2.55947e-26
2.47591e-25
2.51527e-24
1.98317e-23
1.39909e-22
8.53624e-22
4.47224e-21
2.62252e-20
1.19228e-19
1.51509e-49
3.80775e-47
4.48331e-45
3.40404e-43
1.8773e-41
8.06444e-40
2.88161e-38
9.00183e-37
2.46365e-35
5.84213e-34
1.21948e-32
2.21617e-31
3.31247e-30
4.49333e-29
6.28952e-28
6.77143e-27
6.64597e-26
6.00687e-25
4.97766e-24
3.6092e-23
2.35657e-22
1.57237e-21
8.55673e-21
1.74277e-52
5.15689e-50
6.54921e-48
5.90137e-46
4.71183e-44
2.54655e-42
1.12922e-40
4.21843e-39
1.36009e-37
3.83854e-36
9.55536e-35
2.103e-33
4.09172e-32
7.03814e-31
1.07153e-29
1.44703e-28
1.73858e-27
1.86606e-26
1.79758e-25
1.49922e-24
1.0689e-23
8.79663e-23
5.52597e-22
1.24614e-55
4.61922e-53
7.96892e-51
9.06551e-49
7.67675e-47
5.14046e-45
2.82314e-43
1.30393e-41
5.1559e-40
1.76555e-38
5.2678e-37
1.37426e-35
3.14949e-34
6.39017e-33
1.15835e-31
1.88909e-30
2.77948e-29
3.68402e-28
4.37724e-27
4.63356e-26
4.33736e-25
3.59408e-24
2.77195e-23
4.27491e-59
1.88154e-56
3.89343e-54
5.37495e-52
5.59629e-50
4.65869e-48
3.20242e-46
1.86033e-44
9.2914e-43
4.03388e-41
1.52932e-39
5.06753e-38
1.4712e-36
3.77042e-35
8.62044e-34
1.77066e-32
3.26788e-31
5.40403e-30
7.92961e-29
9.97303e-28
1.07737e-26
1.19839e-25
1.35282e-24
1.17973e-62
5.39898e-60
1.3057e-57
2.2472e-55
3.01951e-53
3.29137e-51
2.97189e-49
2.26075e-47
1.4706e-45
8.27881e-44
4.06494e-42
1.74695e-40
6.57629e-39
2.16923e-37
6.28418e-36
1.60775e-34
3.65869e-33
7.43568e-32
1.34824e-30
2.17679e-29
3.11497e-28
3.94978e-27
4.64876e-26
1.41859e-66
5.19867e-64
1.35812e-61
2.88165e-59
5.09347e-57
7.53066e-55
9.39628e-53
9.93486e-51
8.87353e-49
6.72136e-47
4.35764e-45
2.43819e-43
1.19326e-41
5.19098e-40
2.02802e-38
7.09903e-37
2.20462e-35
6.03108e-34
1.44059e-32
2.94273e-31
5.19427e-30
8.65399e-29
1.37833e-27
3.50707e-71
9.41638e-69
2.62737e-66
7.16991e-64
1.80749e-61
3.97291e-59
7.40692e-57
1.16549e-54
1.55764e-52
1.78575e-50
1.77178e-48
1.52989e-46
1.15245e-44
7.57754e-43
4.34877e-41
2.17908e-39
9.54985e-38
3.67624e-36
1.25045e-34
3.75312e-33
9.71036e-32
2.1121e-30
4.19603e-29
4.11216e-77
7.92854e-75
2.17307e-72
7.85106e-70
3.00513e-67
1.04428e-64
3.4004e-62
1.04065e-59
2.6055e-57
5.23114e-55
8.97043e-53
1.32061e-50
1.67955e-48
1.86067e-46
1.81436e-44
1.57254e-42
1.2157e-40
8.32535e-39
4.97161e-37
2.53793e-35
1.08279e-33
3.766e-32
1.05417e-30
4.04821e-87
4.1118e-85
1.27888e-82
8.37171e-80
7.94464e-77
8.13018e-74
7.58221e-71
6.04581e-68
4.06749e-65
2.31888e-62
1.13385e-59
4.84194e-57
1.83171e-54
6.13739e-52
1.80951e-49
4.67585e-47
1.05071e-44
2.02822e-42
3.31828e-40
4.47584e-38
4.7569e-36
3.82775e-34
2.2023e-32
0.00791796
0.14297
0.089181
3.30079e-08
0.00958793
0.0165072
0.0360614
0.0136052
0.427365
0.198125
0.190669
0.172181
0.880047
0.910579
0.853258
0.755604
0.790287
0.999773
0.999979
1
0.999997
0.999997
0.999999
1
1
1
1
1
1
1
1
1
1
1
1
1
1
1
1
1
0.69897
0.687562
0.667396
0.618753
1.4196e-08
9.6893e-08
2.09032e-09
3.56189e-17
1.65593e-17
2.38687e-12
1.73782e-08
1.92142e-08
1.30878e-09
1.92161e-10
9.7057e-08
1.64283e-07
8.33937e-10
6.52259e-08
3.06932e-07
4.00481e-07
7.95405e-09
1.75119e-07
6.65429e-07
6.66372e-07
4.84441e-09
7.18757e-08
8.19092e-08
1.2359e-08
2.85708e-10
5.22284e-11
5.5431e-11
5.78862e-11
5.10417e-11
5.71875e-11
7.02618e-11
8.46523e-11
2.90842e-11
3.53309e-11
4.30956e-11
4.72198e-11
1.63593e-11
1.99918e-11
2.26842e-11
2.54909e-11
8.26014e-12
9.70428e-12
1.15496e-11
1.26547e-11
3.64694e-12
4.44202e-12
5.14698e-12
5.94519e-12
1.39634e-12
1.76419e-12
2.17235e-12
2.38908e-12
4.82772e-13
6.53758e-13
7.83526e-13
9.52568e-13
1.49465e-13
1.98626e-13
2.70094e-13
3.22485e-13
3.81958e-14
5.79172e-14
7.59059e-14
1.01663e-13
9.15415e-15
1.33188e-14
2.01422e-14
2.66948e-14
1.76047e-15
2.90297e-15
4.28217e-15
6.59081e-15
2.86784e-16
5.02594e-16
8.76039e-16
1.33734e-15
4.05662e-17
7.73967e-17
1.40141e-16
2.43421e-16
5.06856e-18
1.05659e-17
2.08648e-17
3.89227e-17
4.97694e-19
1.16904e-18
2.61632e-18
5.50012e-18
4.44436e-20
1.15768e-19
2.89574e-19
6.79525e-19
3.20375e-21
9.75699e-21
2.79007e-20
7.47958e-20
2.0388e-22
7.17734e-22
2.38743e-21
7.35942e-21
1.12098e-23
4.67721e-23
1.82262e-22
6.57696e-22
5.12383e-25
2.54885e-24
1.20076e-23
5.2433e-23
1.91223e-26
1.21066e-25
6.63358e-25
3.55714e-24
7.5992e-28
5.8446e-27
4.10984e-26
2.52187e-25
2.48626e-29
2.56013e-28
2.34451e-27
1.69645e-26
8.32116e-31
1.19382e-29
1.36309e-28
1.14535e-27
1.23467e-07
3.87665e-08
0.000392622
0.457528
0.986802
1
1
1
1
1
1
1
1
1
1
1
1
1
1
0.00129136
0.0825888
0.475552
0.98777
1
1
1
1
1
1
1
1
1
1
1
1
1
1
1
0.0688722
0.108643
0.531786
0.994871
1
1
1
1
1
1
1
1
0.973701
0.991003
1
1
1
1
0.999999
0.645544
0.681369
0.777335
0.966219
1
1
1
1
1
1
0.924955
0.715551
0.470783
0.272575
0.427458
0.826177
1
1
0.999999
0.999772
0.999999
1
1
1
1
1
1
1
0.794841
0.316413
8.91367e-08
6.67322e-05
1.59067e-07
2.26018e-07
0.122294
0.911464
0.998951
1
0.999997
0.999997
0.999998
1
1
1
1
0.958344
0.612056
0.0733906
2.03219e-08
6.83475e-08
1.43162e-07
2.63582e-08
3.4178e-08
3.73663e-07
0.3044
0.983724
1
1
0.999999
1
1
1
1
0.848223
0.346836
5.4065e-08
1.08486e-08
2.02673e-08
1.26408e-08
1.34606e-08
1.3833e-08
1.58491e-08
4.27582e-08
0.00103217
1
1
1
1
1
1
1
0.767518
0.151258
1.28496e-07
1.24956e-07
3.67049e-08
2.21489e-08
1.43609e-08
1.17642e-08
1.17515e-08
1.30048e-08
1.55516e-08
1.14128e-07
0.766921
0.999281
1
1
1
0.933925
0.587077
0.0360384
5.00142e-07
5.7296e-07
3.03174e-07
8.20578e-08
3.81948e-08
1.55042e-08
9.07745e-09
9.33034e-09
1.22688e-08
1.48217e-08
1.21897e-08
0.0454123
0.983099
0.991955
0.909474
0.695991
0.202482
1.59237e-06
1.77396e-06
2.35243e-06
1.9805e-06
4.268e-07
6.87129e-08
2.77691e-08
8.82006e-09
6.39614e-09
8.09196e-09
1.21404e-08
1.64715e-08
1.39047e-08
6.2239e-08
0.914328
0.449312
0.10183
1.3035e-06
1.56301e-06
2.16687e-06
5.21597e-06
5.44375e-06
1.82151e-06
7.98071e-08
2.10145e-08
8.27773e-09
3.84931e-09
4.92846e-09
7.47495e-09
1.2924e-08
1.9357e-08
2.00821e-08
2.26482e-08
0.899098
4.11253e-08
7.03344e-08
1.2423e-06
7.64955e-06
1.3427e-05
9.16588e-06
4.46239e-07
4.44388e-08
1.79591e-08
7.87404e-09
3.6161e-09
3.05502e-09
4.68127e-09
8.92187e-09
1.48938e-08
2.38179e-08
2.32539e-08
2.10456e-08
0.921594
1.81947e-07
5.41431e-07
1.70109e-05
1.71225e-05
1.40108e-05
9.97206e-07
3.74169e-08
2.67986e-10
5.46155e-10
8.08428e-10
1.64475e-09
3.08556e-09
5.8564e-09
1.02626e-08
1.6919e-08
2.71835e-08
2.69207e-08
0.000664132
0.937492
1.19404e-06
1.00904e-05
9.34941e-06
4.49229e-06
7.77395e-10
2.4476e-10
2.52614e-10
4.09669e-10
4.48833e-10
8.82408e-10
1.84872e-09
3.65395e-09
6.39182e-09
1.11716e-08
1.76982e-08
2.9922e-08
2.92313e-08
0.00544402
0.93645
7.12129e-07
4.20977e-06
5.34216e-08
1.23386e-10
2.20107e-10
2.23202e-10
2.75792e-10
3.03913e-10
4.88505e-10
9.93681e-10
2.03264e-09
3.77034e-09
6.57598e-09
1.06402e-08
1.87802e-08
6.40204e-08
1.02887e-06
0.00571492
0.640281
6.13558e-08
1.31405e-10
1.15092e-10
1.3031e-10
2.45773e-10
2.19869e-10
2.04902e-10
2.7038e-10
4.8272e-10
9.86851e-10
1.94016e-09
3.43076e-09
5.85884e-09
1.03567e-08
1.91379e-08
3.60783e-08
1.53656e-06
0.00108402
5.64042e-07
7.08761e-10
1.39961e-10
1.84577e-10
2.19255e-10
1.66751e-10
1.44452e-10
1.54375e-10
2.28532e-10
4.24702e-10
8.20149e-10
1.65576e-09
2.76981e-09
4.57994e-09
8.47214e-09
1.58731e-08
3.10257e-08
1.06335e-07
1.18441e-06
6.60006e-08
1.20601e-10
1.59167e-10
1.5189e-10
1.25814e-10
1.02515e-10
9.49987e-11
1.09773e-10
1.75964e-10
3.31248e-10
6.13721e-10
1.26748e-09
2.03973e-09
3.31064e-09
6.19328e-09
1.15369e-08
2.22638e-08
3.99956e-08
5.79973e-08
2.62858e-07
9.14009e-11
9.48211e-11
8.72571e-11
7.31765e-11
6.25564e-11
6.08214e-11
7.40817e-11
1.20833e-10
2.26861e-10
4.09354e-10
8.17708e-10
1.37046e-09
2.28207e-09
3.99182e-09
7.67782e-09
1.46587e-08
2.50698e-08
3.29687e-08
4.53396e-08
4.98285e-11
5.30738e-11
4.88516e-11
4.21122e-11
3.72338e-11
3.73203e-11
4.64888e-11
7.36121e-11
1.37479e-10
2.5664e-10
4.14991e-10
8.49228e-10
1.36813e-09
2.19246e-09
3.9354e-09
8.52539e-09
1.859e-08
3.04771e-08
5.10708e-08
2.71966e-11
2.86181e-11
2.6665e-11
2.36171e-11
2.13084e-11
2.17176e-11
2.65503e-11
4.06779e-11
7.45194e-11
1.39634e-10
2.51025e-10
3.8926e-10
7.14419e-10
1.16086e-09
1.90021e-09
3.92502e-09
9.13846e-09
2.16122e-08
2.88344e-08
1.36462e-11
1.46716e-11
1.40397e-11
1.27169e-11
1.17642e-11
1.18528e-11
1.39957e-11
2.05038e-11
3.64658e-11
6.79614e-11
1.23518e-10
2.04499e-10
3.36578e-10
5.1279e-10
8.70774e-10
1.55608e-09
3.38471e-09
6.06312e-09
1.7814e-08
6.33631e-12
7.09755e-12
7.02421e-12
6.53423e-12
6.13251e-12
6.08016e-12
6.85933e-12
9.47179e-12
1.61284e-11
2.97857e-11
5.47653e-11
9.25795e-11
1.52542e-10
2.09904e-10
3.12626e-10
5.07557e-10
9.56339e-10
2.44124e-09
5.83084e-09
2.78176e-12
3.1826e-12
3.28914e-12
3.18605e-12
3.00091e-12
2.92793e-12
3.15846e-12
4.05495e-12
6.49395e-12
1.17581e-11
2.11017e-11
3.86065e-11
5.92513e-11
8.525e-11
1.10645e-10
1.50375e-10
2.41155e-10
4.5998e-10
1.0307e-09
1.06978e-12
1.32607e-12
1.42968e-12
1.43773e-12
1.36756e-12
1.32105e-12
1.37053e-12
1.6297e-12
2.40541e-12
4.20117e-12
7.58267e-12
1.41841e-11
2.15642e-11
3.13849e-11
3.91082e-11
4.60358e-11
6.02839e-11
9.46356e-11
1.3446e-10
3.85511e-13
5.05526e-13
5.82226e-13
6.03403e-13
5.78696e-13
5.55771e-13
5.59152e-13
6.21591e-13
8.32713e-13
1.36599e-12
2.44529e-12
4.65461e-12
7.28429e-12
1.04081e-11
1.25214e-11
1.32293e-11
1.33056e-11
1.78289e-11
2.59629e-11
1.23697e-13
1.74451e-13
2.17493e-13
2.33928e-13
2.27247e-13
2.16516e-13
2.12076e-13
2.21047e-13
2.67012e-13
4.071e-13
7.1034e-13
1.34063e-12
2.16149e-12
3.08077e-12
3.63972e-12
3.66265e-12
2.68876e-12
2.49669e-12
3.23614e-12
3.51977e-14
5.46802e-14
7.38054e-14
8.30408e-14
8.22714e-14
7.79714e-14
7.48169e-14
7.45224e-14
8.17305e-14
1.12611e-13
1.86097e-13
3.42876e-13
5.58511e-13
7.97893e-13
9.32441e-13
7.7201e-13
5.31643e-13
2.64722e-13
2.82936e-13
9.01287e-15
1.55388e-14
2.26596e-14
2.69123e-14
2.73757e-14
2.58889e-14
2.43583e-14
2.35256e-14
2.40547e-14
2.93121e-14
4.43448e-14
7.86233e-14
1.27631e-13
1.81208e-13
2.15324e-13
1.78186e-13
7.78261e-14
2.92194e-14
8.26139e-15
2.0197e-15
3.95136e-15
6.23281e-15
7.85401e-15
8.25695e-15
7.85529e-15
7.26983e-15
6.83926e-15
6.65637e-15
7.23354e-15
9.76846e-15
1.6881e-14
2.60411e-14
3.60592e-14
4.16829e-14
3.12782e-14
1.21956e-14
4.33288e-15
1.34389e-15
3.95518e-16
8.78946e-16
1.52413e-15
2.06218e-15
2.25858e-15
2.17123e-15
1.98398e-15
1.82297e-15
1.70903e-15
1.7051e-15
2.03607e-15
2.40562e-15
4.7936e-15
6.39677e-15
5.8731e-15
5.14492e-15
2.01237e-15
4.12923e-16
6.37419e-17
6.85544e-17
1.74484e-16
3.34404e-16
4.89444e-16
5.63395e-16
5.49144e-16
4.96228e-16
4.45546e-16
4.01126e-16
3.64604e-16
3.97263e-16
5.30464e-16
8.21633e-16
1.06233e-15
9.3663e-16
8.251e-16
2.5917e-16
3.36747e-17
6.42908e-18
1.07477e-17
3.09339e-17
6.58584e-17
1.04907e-16
1.28039e-16
1.2754e-16
1.14253e-16
1.00183e-16
8.69207e-17
7.25053e-17
7.36966e-17
8.65331e-17
9.00937e-17
1.26727e-16
1.46247e-16
1.18688e-16
3.03628e-17
3.25854e-18
4.89191e-19
1.49821e-18
4.89997e-18
1.16487e-17
2.02801e-17
2.64312e-17
2.71905e-17
2.4289e-17
2.07995e-17
1.75113e-17
1.38741e-17
1.29456e-17
1.31573e-17
1.38095e-17
1.75447e-17
1.95455e-17
1.61224e-17
3.17418e-18
3.08011e-19
2.88586e-20
1.87724e-19
6.971e-19
1.85729e-18
3.5462e-18
4.95934e-18
5.31549e-18
4.7725e-18
3.99592e-18
3.27878e-18
2.53723e-18
2.14171e-18
1.92664e-18
1.86811e-18
2.34778e-18
2.38163e-18
1.86802e-18
2.96612e-19
2.41166e-20
1.69771e-21
2.12011e-20
8.96841e-20
2.6829e-19
5.64134e-19
8.49463e-19
9.53883e-19
8.67407e-19
7.11546e-19
5.68484e-19
4.32064e-19
3.32129e-19
2.65451e-19
2.46644e-19
2.55288e-19
2.49613e-19
1.88504e-19
2.5181e-20
1.7422e-21
9.91271e-23
2.15521e-21
1.0472e-20
3.53208e-20
8.21684e-20
1.33587e-19
1.57657e-19
1.46091e-19
1.17732e-19
9.12736e-20
6.74605e-20
4.8137e-20
3.46358e-20
2.76602e-20
2.56999e-20
2.31369e-20
1.7104e-20
1.96514e-21
1.03059e-22
5.66727e-24
1.98015e-22
1.11664e-21
4.26997e-21
1.10473e-20
1.94978e-20
2.42066e-20
2.2865e-20
1.81691e-20
1.36966e-20
9.68809e-21
6.51619e-21
4.27532e-21
2.95572e-21
2.42338e-21
1.9629e-21
1.41201e-21
1.42636e-22
5.46461e-24
3.26538e-25
1.68013e-23
1.09993e-22
4.76757e-22
1.36061e-21
2.53972e-21
3.35075e-21
3.33575e-21
2.61093e-21
1.83394e-21
1.29178e-21
8.24916e-22
4.99786e-22
3.0666e-22
2.16428e-22
1.57208e-22
1.07003e-22
9.72512e-24
3.84697e-25
4.46699e-27
1.31313e-24
1.00986e-23
5.00293e-23
1.58201e-22
3.13239e-22
4.34709e-22
4.55844e-22
3.53187e-22
2.30312e-22
1.61116e-22
9.78652e-23
5.48665e-23
3.08585e-23
1.84228e-23
1.22689e-23
7.49954e-24
6.2442e-25
2.083e-26
5.85018e-28
1.00111e-25
8.83481e-25
4.94387e-24
1.72506e-23
3.71122e-23
5.40773e-23
5.79287e-23
4.47826e-23
2.85657e-23
1.8809e-23
1.08782e-23
5.5702e-24
2.91943e-24
1.50108e-24
9.24551e-25
4.89742e-25
3.77644e-26
1.20968e-27
3.87954e-29
7.67079e-27
7.57946e-26
4.69071e-25
1.77217e-24
4.14638e-24
6.33573e-24
6.82132e-24
5.27112e-24
3.35607e-24
2.04485e-24
1.1282e-24
5.25328e-25
2.56493e-25
1.18048e-25
6.47213e-26
3.0027e-26
2.1543e-27
9.12609e-29
1.87346e-30
)
;

boundaryField
{
    leftWall
    {
        type            alphaContactAngle;
        contactAngleProperties 
        {
            mercury         
            {
                theta0          90;
            }
            air             
            {
                theta0          90;
            }
            water           
            {
                theta0          90;
            }
        }
        value           nonuniform List<scalar> 
50
(
3.66134e-62
3.53703e-62
3.95223e-58
2.82793e-56
4.40899e-55
2.3419e-54
3.18057e-54
2.52833e-58
1.94703e-39
2.37613e-38
2.47174e-37
2.44473e-36
3.21459e-35
4.67006e-34
3.05972e-33
1.47816e-31
1.88065e-29
1.35147e-28
4.59746e-28
1.41223e-27
4.06822e-27
9.75228e-27
2.14252e-26
4.44672e-26
8.27396e-26
1.27239e-25
1.49646e-25
1.25785e-25
7.06169e-26
2.44748e-26
4.58588e-27
3.41557e-28
1.02323e-29
1.79634e-31
3.28809e-33
4.27114e-35
4.06345e-37
2.61591e-39
1.20648e-41
3.78108e-44
8.45094e-47
1.51509e-49
1.74277e-52
1.24614e-55
4.27491e-59
1.17973e-62
1.41859e-66
3.50707e-71
4.11216e-77
4.04821e-87
)
;
    }
    rightWall
    {
        type            alphaContactAngle;
        contactAngleProperties 
        {
            mercury         
            {
                theta0          90;
            }
            air             
            {
                theta0          90;
            }
            water           
            {
                theta0          90;
            }
        }
        value           nonuniform List<scalar> 
50
(
0.934011
0.904691
0.940161
0.993985
1
1
1
1
1
1
0.999999
0.999999
1
1
1
0.999281
0.983099
0.914328
0.899098
0.921594
0.937492
0.93645
0.640281
5.64042e-07
6.60006e-08
2.62858e-07
4.53396e-08
5.10708e-08
2.88344e-08
1.7814e-08
5.83084e-09
1.0307e-09
1.3446e-10
2.59629e-11
3.23614e-12
2.82936e-13
8.26139e-15
1.34389e-15
6.37419e-17
6.42908e-18
4.89191e-19
2.88586e-20
1.69771e-21
9.91271e-23
5.66727e-24
3.26538e-25
4.46699e-27
5.85018e-28
3.87954e-29
1.87346e-30
)
;
    }
    lowerWall
    {
        type            alphaContactAngle;
        contactAngleProperties 
        {
            mercury         
            {
                theta0          90;
            }
            air             
            {
                theta0          90;
            }
            water           
            {
                theta0          90;
            }
        }
        value           nonuniform List<scalar> 
62
(
3.66134e-62
7.25864e-60
1.90387e-57
1.6451e-55
1.08971e-53
3.35694e-52
2.38082e-51
1.19003e-50
-5.53433e-37
-7.40019e-33
-6.89085e-31
-5.90923e-28
5.86774e-16
5.10134e-15
1.22336e-14
9.35564e-13
1.49808e-11
5.18189e-11
7.45809e-11
5.13474e-11
5.13593e-11
5.70681e-11
0.00115631
0.00115631
0.000869941
2.18466e-05
4.89194e-07
0.00308115
0.00835323
0.00835451
0.00327024
0.00791796
0.14297
0.089181
3.30079e-08
0.998412
0.998669
0.948105
0.796412
0.842381
0.844772
0.390743
1.86776e-07
0.998412
0.998972
0.999069
0.999339
1
1
0.999941
0.999613
0.99976
0.99932
0.99422
0.989251
0.989181
0.9917
0.999972
0.999346
0.876288
0.867963
0.934011
)
;
    }
    atmosphere
    {
        type            inletOutlet;
        inletValue      uniform 0;
        value           nonuniform List<scalar> 
46
(
0
0
0
0
0
0
0
0
0
0
0
0
0
0
0
0
0
0
0
0
0
0
0
8.32116e-31
1.19382e-29
1.36309e-28
1.14535e-27
7.67079e-27
7.57946e-26
4.69071e-25
1.77217e-24
4.14638e-24
6.33573e-24
6.82132e-24
5.27112e-24
3.35607e-24
2.04485e-24
1.1282e-24
5.25328e-25
2.56493e-25
1.18048e-25
6.47213e-26
3.0027e-26
2.1543e-27
9.12609e-29
1.87346e-30
)
;
    }
    defaultFaces
    {
        type            empty;
    }
}


// ************************************************************************* //
