/*--------------------------------*- C++ -*----------------------------------*\
  =========                 |
  \\      /  F ield         | OpenFOAM: The Open Source CFD Toolbox
   \\    /   O peration     | Website:  https://openfoam.org
    \\  /    A nd           | Version:  13
     \\/     M anipulation  |
\*---------------------------------------------------------------------------*/
FoamFile
{
    format      ascii;
    class       volScalarField;
    location    "0.3";
    object      alpha.mercury;
}
// * * * * * * * * * * * * * * * * * * * * * * * * * * * * * * * * * * * * * //

dimensions      [];

internalField   nonuniform List<scalar> 
2268
(
1
1
1
1
1
1
1
1
1
1
1
1
1
1
1
1
1
1
1
1
1
1
0.998844
1
1
1
1
1
1
1
1
1
1
1
1
1
1
1
1
1
1
1
1
1
1
0.99913
1
1
1
1
1
1
1
1
1
1
1
1
1
1
1
1
1
1
1
1
1
1
0.999978
1
1
1
1
1
1
1
1
1
1
1
1
1
1
1
1
1
1
1
0.999999
0.999999
0.999999
0.999999
1
1
1
1
1
1
1
1
1
1
1
1
1
1
1
1
1
0.999999
0.999997
0.999999
0.999999
0.999998
0.996918
1
1
1
1
1
1
1
1
1
1
1
1
1
1
1
1
0.991291
0.999995
0.999338
0.999455
0.999964
0.999998
0.991646
1
1
1
1
1
1
1
1
0.99985
0.995574
0.982431
0.954728
0.9042
0.829646
0.737719
0.65428
0.578423
0.458954
0.58722
0.930854
0.999983
0.99998
0.991639
0.768018
0.808988
0.843418
0.846343
0.841172
0.826397
0.797906
0.752693
0.688793
0.60807
0.512786
0.405348
0.268672
0.153767
0.0676463
6.66276e-09
0.00112651
0.00071991
0.00825153
0.259095
0.930524
0.997545
0.996602
1.03982e-10
2.75066e-10
5.43629e-10
7.25955e-10
8.84767e-10
8.50029e-10
5.37485e-10
4.55108e-10
3.36844e-10
2.5985e-10
1.90464e-10
1.36312e-10
9.54655e-11
6.06693e-11
3.48044e-11
1.76661e-11
6.49018e-12
1.7087e-12
3.49761e-13
1.14944e-10
5.10571e-10
1.1205e-09
1.64579e-09
2.02238e-09
1.76704e-09
1.34227e-09
9.83343e-10
8.39793e-10
7.08428e-10
5.93817e-10
4.80172e-10
3.63696e-10
2.30448e-10
1.64325e-10
8.14515e-11
2.53199e-11
4.35802e-12
4.1074e-13
1.83699e-10
9.29049e-10
1.67871e-09
2.51643e-09
3.19415e-09
2.45618e-09
1.8369e-09
1.40598e-09
1.13716e-09
9.73201e-10
8.5939e-10
7.41352e-10
6.58036e-10
4.08932e-10
2.51896e-10
1.70418e-10
6.58663e-11
1.21879e-11
1.12079e-12
1.708e-10
8.67403e-10
2.135e-09
4.38406e-09
4.62004e-09
3.16874e-09
1.97956e-09
1.46646e-09
1.19592e-09
1.01728e-09
8.88644e-10
7.89573e-10
7.16025e-10
5.72823e-10
3.76986e-10
1.71923e-10
9.22411e-11
2.68197e-11
3.19292e-12
1.24593e-10
6.12919e-10
1.86795e-09
5.19104e-09
4.86438e-09
3.28437e-09
2.19035e-09
1.46531e-09
1.13817e-09
9.54789e-10
8.26805e-10
7.43068e-10
6.84808e-10
5.89035e-10
4.14623e-10
1.91137e-10
9.00469e-11
4.597e-11
9.49066e-12
8.69194e-11
3.44436e-10
3.80278e-10
1.99595e-09
9.42682e-10
5.68031e-09
2.45851e-09
1.3986e-09
1.03836e-09
8.33799e-10
7.18972e-10
6.30845e-10
5.41457e-10
4.90398e-10
3.61546e-10
1.92298e-10
9.73824e-11
4.37022e-11
1.60892e-11
7.34548e-11
2.21412e-10
7.43271e-10
4.63706e-10
4.92348e-10
5.94037e-08
5.10634e-09
1.29578e-09
8.65733e-10
6.45219e-10
5.37886e-10
4.83933e-10
4.04891e-10
3.11803e-10
2.38289e-10
1.48126e-10
8.3114e-11
4.29478e-11
1.64113e-11
4.7318e-11
1.24062e-10
4.07384e-10
4.34543e-10
7.78835e-06
4.52428e-07
1.0937e-08
1.54212e-09
6.31985e-10
4.4897e-10
3.74548e-10
3.30157e-10
2.87673e-10
2.18604e-10
1.3653e-10
1.0057e-10
6.87283e-11
4.21619e-11
1.82183e-11
0.141918
0.178539
0.210065
0.215166
0.211539
0.200303
0.179405
0.149915
0.115176
0.079015
0.0448671
0.011073
8.19608e-09
2.11892e-10
-5.10398e-17
8.02248e-15
3.14379e-09
5.11264e-09
0.000407252
2.13191e-05
0.245044
0.79364
0.994291
1.82169e-100
-1.65875e-20
-1.16522e-20
-5.06718e-18
-2.39175e-18
-6.49211e-19
-1.3017e-19
-2.16838e-20
-3.47941e-21
-1.22098e-21
-1.84431e-21
-2.53378e-17
-1.46635e-16
-5.95504e-16
-1.75412e-15
-3.93612e-15
9.60345e-12
5.37407e-13
2.71133e-05
2.19837e-05
1.82839e-06
0.337429
0.840044
1.50255e-80
-2.57888e-20
-1.83343e-20
-1.04428e-20
-6.61753e-21
-4.35713e-21
-2.68342e-21
-1.49779e-21
-7.61672e-22
-1.01094e-21
-2.15662e-21
-3.05918e-17
-1.77493e-16
-6.4432e-16
-1.79986e-15
-4.13471e-15
2.46954e-14
1.06785e-15
4.21517e-09
4.45458e-06
2.03532e-06
1.19673e-08
0.343213
6.07311e-79
-9.67291e-21
-6.67207e-21
-3.73655e-21
-1.92291e-21
-9.40832e-22
-4.44017e-22
-2.03793e-22
-9.15023e-23
-2.9926e-22
-8.05386e-22
-1.21443e-17
-7.23916e-17
-2.44157e-16
-6.27436e-16
-1.3954e-15
-2.78758e-15
9.99919e-15
5.27584e-11
6.02418e-09
2.16425e-07
1.0129e-08
0.0237332
3.12745e-77
-5.37636e-95
-2.3306e-97
-9.71495e-89
-5.99738e-87
4.64278e-85
-4.2514e-86
5.00677e-85
7.09727e-84
6.60172e-84
-3.51963e-81
2.60184e-82
-2.40055e-78
2.83581e-78
1.24418e-81
2.51711e-82
-8.94273e-87
-2.12652e-32
2.01756e-11
4.54674e-10
1.94371e-08
2.87594e-07
1.74482e-07
7.13758e-76
6.75658e-75
1.21519e-72
6.646e-71
4.86209e-69
2.48045e-67
2.45182e-67
5.15343e-65
2.04126e-63
4.61319e-64
6.17029e-64
6.10759e-64
1.25471e-60
3.52277e-61
1.80788e-61
6.69357e-63
1.35139e-79
-2.12948e-18
1.08102e-21
7.06689e-10
2.51842e-11
2.60256e-07
1.67924e-07
5.23876e-75
8.03483e-74
1.47478e-71
8.20522e-70
5.98835e-68
3.13951e-66
3.0092e-66
3.91868e-64
1.57546e-62
4.05819e-63
4.86474e-63
8.82658e-63
1.56837e-59
7.80628e-60
6.14824e-60
1.18641e-60
2.10082e-61
9.66222e-61
2.49806e-29
2.18796e-10
3.24399e-12
3.06172e-08
1.64831e-07
5.7005e-72
1.16383e-71
2.03156e-69
1.31898e-67
6.37733e-66
3.52555e-64
1.96447e-64
3.28014e-62
1.35489e-60
2.88192e-61
3.99788e-61
1.31801e-60
8.93978e-58
3.89763e-58
2.77395e-57
4.30729e-57
1.89872e-57
5.34365e-57
3.60601e-31
6.58447e-12
1.19554e-11
4.79243e-10
1.01e-08
1.2837e-68
1.95952e-68
3.66216e-66
2.30221e-64
8.65924e-63
2.28644e-61
2.44235e-61
2.22055e-59
5.5622e-58
2.58503e-58
2.92126e-58
9.85903e-58
6.32977e-56
4.33279e-56
7.88109e-56
1.61994e-54
6.22336e-53
9.12742e-52
4.42844e-51
8.99174e-14
1.4093e-12
1.67298e-11
9.1881e-14
2.35463e-67
2.8166e-66
4.1515e-64
2.2051e-62
7.65385e-61
1.11635e-59
2.66975e-59
1.46278e-57
1.86788e-56
1.42305e-56
1.73852e-56
1.3196e-56
3.19977e-55
6.91441e-55
1.084e-54
6.27356e-53
5.74919e-49
5.25056e-49
3.2792e-48
6.83236e-48
5.20479e-57
2.24074e-14
8.286e-14
2.31957e-66
3.71392e-65
4.12042e-63
2.01434e-61
6.84879e-60
7.48413e-59
3.66767e-58
1.50267e-56
8.82467e-56
1.27241e-55
1.5592e-55
6.32637e-56
7.42762e-55
3.0009e-54
5.35632e-54
6.18767e-51
9.8342e-47
1.4179e-46
3.43586e-46
4.21663e-45
3.15567e-41
1.74264e-45
5.40467e-46
1.88122e-65
4.81404e-64
4.06406e-62
1.97453e-60
6.62516e-59
6.61028e-58
6.13969e-57
1.94172e-55
3.22972e-55
4.81053e-55
5.07351e-55
2.67226e-55
4.2531e-54
1.6826e-53
3.40217e-51
3.03929e-49
1.27075e-45
4.64367e-45
2.71295e-45
3.58968e-44
4.71924e-40
1.87456e-39
1.99682e-38
1.40674e-64
5.05251e-63
3.68637e-61
1.73956e-59
6.4656e-58
8.38097e-57
8.66343e-56
2.04112e-54
3.78789e-54
4.48111e-54
2.23096e-54
6.30445e-55
1.6821e-53
1.15599e-52
1.59291e-49
2.19945e-47
1.67152e-44
9.2678e-44
7.19378e-44
9.85326e-43
5.55245e-39
2.36689e-38
2.51126e-37
8.69913e-64
4.61502e-62
3.17308e-60
1.41012e-58
5.60348e-57
1.18493e-55
9.99863e-55
1.46437e-53
2.82265e-53
1.9173e-53
6.01551e-54
1.85769e-54
2.6047e-53
1.07995e-51
5.86005e-49
1.29026e-45
1.53527e-43
8.72213e-43
9.8488e-43
9.69016e-42
6.50065e-38
2.19278e-37
2.20039e-36
5.22776e-63
3.96976e-61
2.73581e-59
1.38924e-57
4.80026e-56
1.48292e-54
1.01602e-53
7.35582e-53
2.77175e-52
7.33017e-53
9.99759e-54
1.54771e-53
5.97651e-52
1.218e-50
3.14569e-48
1.5953e-44
1.26733e-42
1.28615e-41
7.35507e-42
1.37655e-40
1.34219e-36
1.38061e-36
1.18506e-35
3.24406e-62
3.40901e-60
2.43887e-58
1.36882e-56
5.04711e-55
1.52111e-53
9.46694e-53
3.01772e-52
3.09793e-51
4.50048e-52
1.13656e-50
2.20498e-49
5.03267e-48
1.04477e-46
2.80702e-45
9.19045e-43
5.20084e-41
1.89162e-39
3.05081e-40
9.01469e-39
7.84793e-36
5.37433e-36
4.35413e-35
2.01439e-61
2.61446e-59
2.01914e-57
1.13943e-55
4.77002e-54
1.13281e-52
8.36359e-52
1.52403e-51
3.31206e-50
6.59722e-49
1.64213e-47
2.48068e-46
4.28328e-45
7.78107e-44
1.3054e-42
3.0633e-41
9.52581e-40
3.86654e-38
4.6053e-38
4.384e-37
3.81058e-35
2.0298e-34
1.53076e-33
1.16052e-60
1.6798e-58
1.34499e-56
7.84353e-55
3.14426e-53
5.10891e-52
7.16259e-51
2.41137e-49
5.56782e-48
1.01035e-46
2.03556e-45
3.11481e-44
4.69026e-43
7.05057e-42
9.86797e-41
1.29271e-39
1.91194e-38
1.63035e-37
2.18282e-36
1.89885e-35
2.02188e-34
2.4142e-33
1.44107e-32
5.66499e-60
8.54822e-58
7.2128e-56
4.28113e-54
1.78329e-52
7.08836e-51
2.23173e-49
5.65189e-48
1.19427e-46
2.25448e-45
4.08736e-44
6.63593e-43
9.61427e-42
1.22125e-40
1.58012e-39
1.94865e-38
2.15514e-37
2.23937e-36
2.16391e-35
1.64624e-34
1.31712e-33
8.69005e-33
4.68936e-32
4.39059e-59
6.92837e-57
5.57933e-55
3.05505e-53
1.39385e-51
4.78819e-50
1.3518e-48
3.2241e-47
6.80435e-46
1.31187e-44
2.28158e-43
3.62071e-42
5.18368e-41
6.27385e-40
7.38511e-39
9.11331e-38
9.02261e-37
8.34067e-36
6.92772e-35
4.92427e-34
2.9546e-33
1.48024e-32
7.55965e-32
9.44414e-59
1.50746e-56
1.16982e-54
6.65109e-53
3.23007e-51
1.10371e-49
3.11282e-48
7.53596e-47
1.63528e-45
3.18515e-44
5.41906e-43
8.23716e-42
1.13579e-40
1.31325e-39
1.42553e-38
1.73642e-37
1.55532e-36
1.29462e-35
9.79904e-35
6.44233e-34
3.32052e-33
1.82299e-32
8.02511e-32
1.12703e-58
1.90247e-56
1.63696e-54
9.47474e-53
4.10973e-51
1.41198e-49
4.00152e-48
9.80977e-47
2.16229e-45
4.24377e-44
7.20164e-43
1.07141e-41
1.41136e-40
1.58889e-39
1.74222e-38
2.00818e-37
1.70919e-36
1.32582e-35
9.09989e-35
5.47091e-34
2.85818e-33
1.20926e-32
6.08857e-32
9.55422e-59
1.65526e-56
1.44855e-54
8.46774e-53
3.68817e-51
1.26678e-49
3.58791e-48
8.80941e-47
1.93577e-45
3.75649e-44
6.30617e-43
9.18942e-42
1.14242e-40
1.2125e-39
1.30814e-38
1.41825e-37
1.16381e-36
8.64033e-36
5.58732e-35
3.14292e-34
1.33942e-33
7.01908e-33
2.68022e-32
4.62938e-59
8.04229e-57
7.06277e-55
4.15071e-53
1.81804e-51
6.28231e-50
1.79497e-48
4.445e-47
9.75144e-46
1.86647e-44
3.07594e-43
4.37576e-42
5.26989e-41
5.47493e-40
5.75809e-39
5.86593e-38
4.69215e-37
3.45026e-36
2.2036e-35
1.2154e-34
5.92799e-34
2.51925e-33
1.09842e-32
1.37425e-59
2.48477e-57
2.24959e-55
1.35366e-53
6.06217e-52
2.1457e-50
6.23377e-49
1.52795e-47
3.2242e-46
5.93179e-45
9.5785e-44
1.3529e-42
1.65645e-41
1.83046e-40
1.963e-39
1.90809e-38
1.55513e-37
1.06925e-36
5.58553e-36
3.88435e-35
1.48969e-34
8.07286e-34
3.455e-33
2.09556e-60
3.95148e-58
3.6946e-56
2.27049e-54
1.02224e-52
3.5761e-51
1.025e-49
2.54402e-48
5.59687e-47
1.07159e-45
1.77063e-44
2.58156e-43
3.37374e-42
3.93266e-41
4.05811e-40
3.69874e-39
2.88331e-38
2.15955e-37
1.38881e-36
6.65679e-36
4.39019e-35
1.96933e-34
8.19505e-34
1.42945e-61
2.94086e-59
2.97365e-57
1.96127e-55
9.41462e-54
3.49894e-52
1.06736e-50
2.83046e-49
6.64738e-48
1.3538e-46
2.37433e-45
3.65687e-44
5.00935e-43
6.09026e-42
6.5392e-41
6.19645e-40
5.1028e-39
3.73933e-38
2.48564e-37
1.51403e-36
7.02101e-36
4.17728e-35
2.05165e-34
5.66861e-63
1.3107e-60
1.48008e-58
1.08586e-56
5.78088e-55
2.38175e-53
8.07459e-52
2.37231e-50
6.07653e-49
1.32383e-47
2.44585e-46
3.91905e-45
5.54083e-44
6.95721e-43
7.78852e-42
7.48813e-41
6.95349e-40
5.6004e-39
4.04177e-38
2.53951e-37
1.51445e-36
8.74361e-36
4.0677e-35
1.23852e-64
3.2438e-62
4.1207e-60
3.37323e-58
1.98478e-56
8.97356e-55
3.33204e-53
1.07298e-51
3.01613e-50
7.25799e-49
1.49973e-47
2.7159e-46
4.34953e-45
6.14695e-44
7.6566e-43
8.33821e-42
7.98957e-41
6.75579e-40
5.09234e-39
3.47054e-38
2.11458e-37
1.24305e-36
6.41998e-36
1.75735e-66
5.23463e-64
7.51621e-62
6.93397e-60
4.59233e-58
2.34312e-56
9.85797e-55
3.57502e-53
1.10929e-51
2.87811e-50
6.28657e-49
1.18817e-47
1.98029e-46
2.92532e-45
3.68408e-44
4.47083e-43
4.7243e-42
4.58298e-41
3.97902e-40
2.94235e-39
2.04818e-38
1.39241e-37
7.41614e-37
1.59569e-68
5.3614e-66
8.58844e-64
8.80708e-62
6.49702e-60
3.72013e-58
1.77223e-56
7.2998e-55
2.56905e-53
7.5796e-52
1.89455e-50
4.11035e-49
7.85041e-48
1.32671e-46
1.98028e-45
2.61387e-44
3.04858e-43
3.14924e-42
2.8922e-41
2.32886e-40
1.56277e-39
1.0463e-38
7.16332e-38
1.00196e-70
3.92292e-68
7.16313e-66
8.23857e-64
6.84183e-62
4.52082e-60
2.49341e-58
1.13926e-56
4.25732e-55
1.32035e-53
3.49142e-52
8.03952e-51
1.63701e-49
2.86745e-48
4.82892e-47
7.01219e-46
9.20354e-45
1.10553e-43
1.1862e-42
1.08784e-41
9.67627e-41
8.65795e-40
6.00542e-39
2.69167e-73
1.26389e-70
2.63731e-68
3.4337e-66
3.21842e-64
2.41853e-62
1.53627e-60
8.17484e-59
3.59781e-57
1.33028e-55
4.23881e-54
1.18379e-52
2.92452e-51
6.11926e-50
1.06233e-48
1.88982e-47
3.27491e-46
4.31556e-45
5.11981e-44
5.0549e-43
4.46544e-42
4.79029e-41
3.77723e-40
7.04274e-76
3.66771e-73
8.70728e-71
1.30057e-68
1.41525e-66
1.24436e-64
9.27076e-63
5.81238e-61
3.03189e-59
1.3206e-57
4.82922e-56
1.41631e-54
3.30773e-53
7.88316e-52
1.87368e-50
3.52419e-49
6.14549e-48
9.76256e-47
1.3542e-45
1.58254e-44
1.81447e-43
2.12889e-42
2.06122e-41
1.01056e-78
5.62218e-76
1.36793e-73
2.82587e-71
4.37801e-69
4.59125e-67
3.90562e-65
2.75387e-63
1.63191e-61
8.20823e-60
3.53442e-58
1.3132e-56
4.24154e-55
1.19982e-53
2.99575e-52
6.65455e-51
1.32409e-49
2.37129e-48
3.83475e-47
5.0787e-46
6.12313e-45
9.20069e-44
9.98057e-43
8.23186e-82
5.92913e-79
1.95945e-76
4.22748e-74
6.73842e-72
8.41861e-70
8.50352e-68
7.06777e-66
4.89644e-64
2.86507e-62
1.43734e-60
6.27521e-59
2.41279e-57
8.23471e-56
2.50589e-54
6.81045e-53
1.65255e-51
3.58363e-50
6.98373e-49
1.22435e-47
1.90645e-46
2.70124e-45
3.72321e-44
2.69923e-85
2.25797e-82
8.79818e-80
2.28931e-77
4.46478e-75
6.8788e-73
8.60753e-71
8.88487e-69
7.64882e-67
5.56177e-65
3.47791e-63
1.91008e-61
9.35528e-60
4.09387e-58
1.58756e-56
5.42159e-55
1.6367e-53
4.3883e-52
1.01191e-50
1.91765e-49
3.43773e-48
7.14335e-47
1.32114e-45
8.35174e-89
6.96616e-86
3.05103e-83
9.53539e-81
2.32163e-78
4.56238e-76
7.37293e-74
9.91396e-72
1.11878e-69
1.06705e-67
8.65389e-66
6.00387e-64
3.59161e-62
1.87349e-60
8.62529e-59
3.52994e-57
1.28488e-55
4.16672e-54
1.21705e-52
3.21249e-51
7.50693e-50
1.58887e-48
3.25834e-47
9.02391e-93
6.18788e-90
2.97483e-87
1.13981e-84
3.57372e-82
9.20353e-80
1.94719e-77
3.38573e-75
4.88486e-73
5.9699e-71
6.33415e-69
5.94696e-67
4.96203e-65
3.64319e-63
2.32688e-61
1.29066e-59
6.26543e-58
2.65942e-56
9.59062e-55
2.90434e-53
8.17694e-52
2.40267e-50
6.71452e-49
2.33217e-97
1.1221e-94
5.50581e-92
2.60775e-89
1.13185e-86
4.26872e-84
1.3634e-81
3.66106e-79
8.26956e-77
1.57638e-74
2.54691e-72
3.50546e-70
4.13533e-68
4.21276e-66
3.73998e-64
2.92408e-62
2.03369e-60
1.26418e-58
6.98382e-57
3.33791e-55
1.33083e-53
4.55968e-52
1.4984e-50
2.42278e-103
8.41858e-101
4.10352e-98
2.53289e-95
1.58024e-92
9.52133e-90
5.68496e-87
2.8653e-84
1.11316e-81
3.50232e-79
9.35699e-77
2.16005e-74
4.37923e-72
7.87924e-70
1.25902e-67
1.77325e-65
2.18252e-63
2.33628e-61
2.16535e-59
1.71686e-57
1.13981e-55
6.19298e-54
2.73804e-52
2.16608e-113
3.7627e-111
1.96684e-108
2.15705e-105
3.4205e-102
5.8422e-99
9.09272e-96
1.20971e-92
1.35554e-89
1.28472e-86
1.04276e-83
7.32215e-81
4.45179e-78
2.33605e-75
1.05639e-72
4.11299e-70
1.38062e-67
4.0095e-65
9.96037e-63
2.04954e-60
3.41115e-58
4.46663e-56
4.16301e-54
0.992082
0.695976
1.88643e-12
2.66461e-12
0.990412
0.971798
0.807194
0.60824
0.572635
0.801814
0.800871
0.798508
0.0364419
0.0852079
0.146742
0.244396
3.93916e-07
-9.92629e-07
2.11673e-05
4.86555e-08
2.64008e-06
3.49935e-06
9.08823e-07
1.98281e-08
4.68784e-07
2.64873e-07
2.67347e-08
5.56937e-09
1.93936e-09
9.13794e-11
1.85122e-09
2.4755e-09
2.49005e-11
8.32583e-11
1.20444e-10
1.19621e-10
5.32238e-14
2.54914e-15
0
8.15789e-42
1.71666e-45
1.86247e-37
3.6087e-43
3.70051e-37
9.78474e-38
2.70561e-37
1.04223e-36
1.13078e-35
1.14585e-36
3.06175e-36
2.95356e-35
2.85978e-34
7.28683e-36
1.56099e-35
2.57375e-34
1.94746e-33
9.7689e-35
3.41667e-34
1.52395e-33
1.13092e-32
6.64189e-34
2.23528e-33
2.281e-32
6.86425e-32
6.74309e-33
4.00161e-32
1.11142e-31
4.27807e-31
6.19986e-32
1.40351e-31
3.81151e-31
1.02081e-30
1.94536e-31
4.22086e-31
8.59265e-31
1.61531e-30
2.72195e-31
5.44334e-31
1.05687e-30
1.80069e-30
2.58413e-31
5.21033e-31
8.59672e-31
1.41645e-30
1.92118e-31
3.41421e-31
6.07685e-31
8.91617e-31
9.70149e-32
1.85587e-31
3.22899e-31
5.3787e-31
3.67532e-32
7.11811e-32
1.40202e-31
1.99495e-31
1.06234e-32
2.48455e-32
4.25326e-32
8.00389e-32
2.99378e-33
5.93287e-33
1.32001e-32
2.33769e-32
7.31273e-34
2.08125e-33
4.08096e-33
9.35744e-33
1.76164e-34
3.85301e-34
1.01062e-33
2.0327e-33
2.85643e-35
7.58374e-35
1.61688e-34
3.99623e-34
3.47906e-36
9.2542e-36
2.68028e-35
6.04449e-35
3.96689e-37
1.20075e-36
3.41732e-36
9.31748e-36
3.80453e-38
1.25595e-37
3.94833e-37
1.18526e-36
2.79688e-39
1.06549e-38
3.83086e-38
1.29536e-37
1.85571e-40
7.82342e-40
3.16982e-39
1.21128e-38
9.98713e-42
4.89953e-41
2.26742e-40
9.90312e-40
4.71783e-43
2.68526e-42
1.43502e-41
7.18117e-41
1.87203e-44
1.26639e-43
7.98578e-43
4.68849e-42
6.09786e-46
5.00297e-45
3.8376e-44
2.724e-43
1.58119e-47
1.56342e-46
1.42715e-45
1.33091e-44
4.4123e-49
5.53831e-48
6.42347e-47
6.66195e-46
1.03913e-50
1.72648e-49
2.58532e-48
3.14969e-47
2.51235e-52
5.73188e-51
1.0719e-49
1.51715e-48
1.90252e-11
1.81621e-11
5.40987e-09
0.000358728
4.55588e-05
2.49584e-10
9.38619e-10
6.18993e-10
4.38894e-10
3.21352e-10
2.45839e-10
1.85726e-10
1.72253e-10
1.38052e-10
9.60359e-11
7.04457e-11
5.12837e-11
3.84066e-11
1.86837e-11
0.123157
0.0240701
0.0292131
0.005409
2.20307e-07
5.5698e-09
2.38411e-10
2.09963e-10
1.81285e-10
1.4661e-10
9.52275e-11
6.91622e-11
4.97976e-11
4.23583e-11
3.56579e-11
3.06265e-11
3.11003e-11
2.74641e-11
1.76044e-11
0.751823
0.754206
0.437304
0.00473073
9.82974e-10
4.75716e-10
4.63803e-10
2.21514e-10
1.17729e-10
6.54719e-11
3.50926e-11
1.99947e-11
9.33424e-12
4.39098e-12
4.77352e-12
7.83291e-12
1.44382e-11
2.04705e-11
1.42607e-11
0.353713
0.318631
0.222665
0.0337806
-4.9122e-11
5.16519e-10
6.82765e-10
3.62641e-10
1.45453e-10
3.36964e-11
6.85763e-12
1.20569e-12
1.36308e-13
4.38564e-14
1.20306e-13
8.28141e-13
6.04709e-12
1.08757e-11
1.15426e-11
0.00022756
3.48468e-12
-2.04447e-09
-8.11787e-11
1.90997e-10
5.51995e-10
5.29919e-10
3.14661e-10
9.91716e-11
9.04669e-12
1.40857e-13
1.06394e-15
3.22291e-16
8.42596e-17
2.74014e-16
3.37557e-14
2.32328e-12
7.65954e-12
8.66035e-12
2.1739e-06
2.89399e-06
1.55961e-06
4.99348e-09
1.74541e-10
2.52225e-10
2.41188e-10
1.19874e-10
1.46315e-11
3.20124e-13
8.62817e-16
6.43117e-17
2.54407e-17
1.33562e-17
2.78777e-17
1.17492e-15
3.86157e-13
3.45622e-12
6.39683e-12
4.55263e-07
8.14018e-07
3.77003e-07
2.60178e-09
1.99572e-10
1.08104e-10
1.35468e-11
2.28036e-12
1.20027e-13
7.69949e-15
2.27914e-15
2.18378e-16
1.29621e-17
1.7428e-18
9.89255e-18
4.88508e-16
1.60594e-14
7.45707e-13
5.00964e-12
4.29375e-10
3.61141e-12
8.13667e-13
1.44578e-11
2.06831e-11
1.11379e-11
6.85758e-13
2.32528e-16
2.64959e-22
4.4479e-23
8.16958e-23
1.17674e-18
2.36361e-19
6.17941e-19
7.77942e-18
1.56685e-16
2.48532e-15
3.58013e-14
3.88927e-12
6.47583e-11
2.39713e-11
3.52285e-12
2.84546e-14
3.7793e-28
-8.70036e-32
-9.53525e-36
4.28239e-21
4.6794e-21
1.5919e-21
4.41421e-22
6.22828e-21
6.47268e-20
6.39568e-19
6.72811e-18
4.95943e-17
1.19546e-15
8.22585e-16
2.69999e-12
-1.27256e-38
-3.8479e-35
-3.09683e-35
1.81764e-43
7.29486e-33
6.47524e-32
1.23786e-29
2.02667e-28
1.52643e-26
6.28218e-24
3.89521e-22
9.36528e-21
1.58155e-19
8.9268e-19
5.79075e-18
1.63502e-17
4.15493e-16
5.27711e-16
1.28702e-12
5.70847e-38
3.9806e-37
3.6299e-35
2.54019e-33
1.63771e-31
1.91632e-30
2.54586e-28
3.1016e-26
1.71062e-24
1.37375e-22
2.99795e-21
4.29845e-20
2.90749e-19
1.10767e-18
5.2798e-18
1.40767e-17
1.23495e-16
5.22143e-16
1.54942e-13
7.27817e-36
9.43707e-35
3.98011e-33
1.28181e-31
1.80294e-30
2.06997e-29
2.67788e-27
1.00868e-24
5.92676e-23
1.18673e-21
1.44568e-20
1.02625e-19
3.78045e-19
1.30792e-18
4.1679e-18
1.1726e-17
3.58769e-17
4.95539e-16
8.64263e-16
5.67199e-34
8.818e-33
1.40228e-31
1.60575e-30
1.44185e-29
1.89208e-28
6.74971e-26
1.39934e-23
5.715e-22
6.33775e-21
3.8012e-20
1.49419e-19
4.56327e-19
1.30507e-18
2.77858e-18
7.40121e-18
2.80265e-17
4.14123e-16
1.63042e-17
8.01097e-33
1.80729e-31
1.84065e-30
1.09461e-29
7.42846e-29
3.72008e-27
2.26729e-24
1.8477e-22
2.08688e-21
1.51548e-20
6.02691e-20
1.80267e-19
4.58456e-19
1.10679e-18
2.11881e-18
5.18466e-18
2.55334e-17
1.15455e-16
1.60279e-17
1.0723e-31
1.29267e-30
9.75672e-30
3.94937e-29
2.25604e-28
6.54843e-26
3.59741e-23
7.40079e-22
5.02056e-21
2.04357e-20
6.48008e-20
1.69456e-19
4.01772e-19
8.8436e-19
1.89711e-18
4.51913e-18
1.83137e-17
1.92253e-17
1.56657e-17
5.9129e-31
3.87418e-30
2.0829e-29
1.72394e-28
1.64556e-27
3.16119e-24
2.14606e-22
1.40089e-21
5.82027e-21
1.95326e-20
5.46843e-20
1.30692e-19
2.99668e-19
7.08954e-19
1.6951e-18
3.94305e-18
1.26905e-17
1.09391e-17
1.43572e-17
1.61839e-30
7.85814e-30
3.28855e-29
1.54603e-27
1.64921e-25
3.77772e-23
3.14512e-22
1.42539e-21
4.98578e-21
1.39101e-20
3.88813e-20
8.53076e-20
1.90622e-19
4.8569e-19
1.24258e-18
3.17396e-18
8.16681e-18
9.50492e-18
1.20404e-17
2.84786e-30
1.10625e-29
3.314e-29
7.23443e-28
9.87663e-25
5.20015e-23
2.6136e-22
1.07448e-21
3.40937e-21
8.62339e-21
2.4022e-20
4.96209e-20
1.09126e-19
2.90812e-19
7.67382e-19
2.08146e-18
4.81379e-18
7.4165e-18
7.22302e-18
3.22502e-30
7.77165e-30
4.46504e-29
2.49524e-27
1.3468e-24
3.96141e-23
1.66138e-22
6.46543e-22
1.94641e-21
4.6094e-21
1.20808e-20
2.57422e-20
5.92453e-20
1.50905e-19
4.14539e-19
1.1223e-18
2.79643e-18
4.96976e-18
4.71352e-18
2.91668e-30
6.5842e-30
3.64184e-29
1.22446e-27
1.44752e-24
2.02843e-23
9.10477e-23
3.19396e-22
9.47859e-22
2.33061e-21
4.39661e-21
1.22625e-20
2.7139e-20
6.4207e-20
1.7385e-19
5.26138e-19
1.47437e-18
2.88775e-18
3.20234e-18
2.07608e-30
4.28934e-30
2.41935e-29
6.44255e-28
6.73903e-25
8.83769e-24
3.93546e-23
1.36295e-22
4.02468e-22
9.92199e-22
2.1616e-21
3.81788e-21
1.03571e-20
2.55973e-20
6.48443e-20
1.96964e-19
5.8939e-19
1.46433e-18
1.61119e-18
1.24246e-30
2.41337e-30
1.29579e-29
1.05574e-28
1.99587e-25
2.98091e-24
1.45543e-23
5.07515e-23
1.50965e-22
3.72733e-22
8.16544e-22
1.56778e-21
3.37657e-21
7.9915e-21
2.23327e-20
6.11588e-20
1.80771e-19
3.90246e-19
8.67638e-19
7.21507e-31
1.26953e-30
5.45796e-30
3.90773e-29
1.4453e-26
9.02026e-25
4.53706e-24
1.65596e-23
5.01346e-23
1.25648e-22
2.76227e-22
5.32508e-22
1.09479e-21
2.10276e-21
5.50322e-21
1.5098e-20
4.1735e-20
1.26168e-19
2.766e-19
3.9661e-31
8.65458e-31
1.73026e-30
1.56073e-29
1.67791e-27
1.93627e-25
1.2014e-24
4.7413e-24
1.47711e-23
3.78739e-23
8.11084e-23
1.69111e-22
3.06283e-22
5.78098e-22
1.20119e-21
3.01391e-21
8.05561e-21
2.11039e-20
4.9748e-20
1.27406e-31
2.99498e-31
9.81269e-31
5.62956e-30
5.8296e-29
2.38118e-26
2.74052e-25
1.18396e-24
3.86086e-24
1.01925e-23
2.2607e-23
4.74306e-23
7.99786e-23
1.47667e-22
2.72767e-22
5.89754e-22
1.48804e-21
3.59726e-21
6.67909e-21
4.56272e-32
1.58954e-31
5.60961e-31
1.5166e-30
1.38253e-29
7.97089e-28
4.9473e-26
2.57423e-25
8.92074e-25
2.44076e-24
5.60232e-24
1.21259e-23
2.03835e-23
3.44244e-23
5.55975e-23
1.04435e-22
2.25626e-22
5.55034e-22
1.10232e-21
1.76348e-32
5.34909e-32
1.5238e-31
3.92104e-31
4.19257e-30
4.75905e-29
5.05333e-27
4.70278e-26
1.80502e-25
5.19743e-25
1.23631e-24
2.70421e-24
4.67203e-24
7.49114e-24
1.1126e-23
1.76695e-23
2.69093e-23
5.69632e-23
1.11918e-22
4.09305e-33
1.24593e-32
3.51422e-32
8.9144e-32
1.11837e-30
9.36778e-30
2.04544e-28
6.56172e-27
3.21937e-26
9.87355e-26
2.42345e-25
5.29053e-25
9.2333e-25
1.44507e-24
2.05621e-24
2.42763e-24
3.13035e-24
4.10766e-24
7.36793e-24
8.00952e-34
2.56446e-33
7.39723e-33
3.04784e-32
2.38392e-31
2.12919e-30
2.14831e-29
6.5182e-28
5.00887e-27
1.67603e-26
4.21421e-26
9.18642e-26
1.59379e-25
2.42321e-25
3.47167e-25
3.77682e-25
2.951e-25
2.43074e-25
1.67805e-25
1.36001e-34
5.069e-34
2.00348e-33
9.20803e-33
4.11942e-32
4.23931e-31
3.60788e-30
4.61228e-29
6.49937e-28
2.54559e-27
6.53667e-27
1.47661e-26
2.44091e-26
3.51193e-26
4.88297e-26
4.99659e-26
2.86388e-26
2.79495e-26
2.36405e-26
2.4055e-35
1.06502e-34
4.34748e-34
1.76868e-33
6.43877e-33
7.27842e-32
6.00583e-31
5.36674e-30
5.90408e-29
3.47576e-28
9.26056e-28
1.39759e-27
3.36506e-27
4.48865e-27
4.74644e-27
5.56698e-27
3.62849e-27
1.78291e-27
7.87629e-28
3.41277e-36
1.73673e-35
7.49608e-35
2.83919e-34
9.17853e-34
1.09278e-32
9.02926e-32
6.92912e-31
5.72425e-30
3.83405e-29
1.15782e-28
2.44029e-28
4.29939e-28
5.44177e-28
5.09984e-28
6.71239e-28
3.25576e-28
8.80911e-29
5.01336e-29
4.13486e-37
2.34665e-36
1.08061e-35
4.06432e-35
1.22838e-34
1.4656e-33
1.21592e-32
8.66948e-32
5.83038e-31
3.39047e-30
1.30957e-29
2.76891e-29
3.08626e-29
4.66738e-29
6.28718e-29
6.6588e-29
2.79023e-29
5.02257e-30
2.82316e-30
4.36566e-38
2.75171e-37
1.36516e-36
5.46478e-36
2.3959e-35
1.70496e-34
1.47527e-33
1.00719e-32
5.98573e-32
3.06783e-31
1.29122e-30
2.81823e-30
3.75863e-30
4.55901e-30
6.13822e-30
6.86652e-30
2.22256e-30
3.4339e-31
9.59983e-32
4.06855e-39
2.87951e-38
1.60028e-37
7.34606e-37
3.36385e-36
1.85926e-35
1.62943e-34
1.0858e-33
5.98223e-33
2.8562e-32
1.15768e-31
2.66904e-31
3.4592e-31
4.84562e-31
5.68997e-31
6.12977e-31
1.59305e-31
1.69086e-32
3.00329e-33
3.39253e-40
2.71512e-39
1.68644e-38
8.61087e-38
4.1145e-37
1.90547e-36
1.65963e-35
1.089e-34
5.74963e-34
2.59615e-33
9.93718e-33
2.25867e-32
3.39247e-32
3.88257e-32
4.54255e-32
4.66743e-32
1.02237e-32
7.78106e-34
8.97597e-35
2.53282e-41
2.31424e-40
1.61375e-39
8.99721e-39
4.41305e-38
1.87239e-37
1.57823e-36
1.02131e-35
5.25091e-35
2.25719e-34
8.00847e-34
1.78254e-33
2.55565e-33
2.84717e-33
3.14248e-33
3.18849e-33
5.91195e-34
3.06304e-35
2.63569e-36
1.7007e-42
1.7917e-41
1.41103e-40
8.62397e-40
4.3626e-39
1.77012e-38
1.41419e-37
9.01024e-37
4.54122e-36
1.85321e-35
6.08796e-35
1.31978e-34
1.79636e-34
1.92736e-34
1.98047e-34
1.98247e-34
3.10906e-35
9.73343e-37
8.29821e-38
1.04276e-43
1.26781e-42
1.12413e-41
7.47388e-41
3.92149e-40
1.58017e-39
1.21015e-38
7.43059e-38
3.61875e-37
1.4381e-36
4.39292e-36
9.2349e-36
1.20273e-35
1.21703e-35
1.15195e-35
1.13463e-35
1.51136e-36
4.16464e-38
4.34923e-40
5.89379e-45
8.38785e-44
8.42125e-43
6.09904e-42
3.34635e-41
1.56405e-40
9.72419e-40
5.79124e-39
2.64963e-38
1.06463e-37
3.02586e-37
6.13777e-37
7.84623e-37
7.23902e-37
6.38532e-37
6.01275e-37
6.88954e-38
1.7072e-39
4.97583e-41
3.1916e-46
5.25884e-45
5.98048e-44
4.78059e-43
2.77113e-42
1.3285e-41
7.63645e-41
4.34111e-40
1.90604e-39
7.55065e-39
1.99915e-38
3.84979e-38
4.95494e-38
4.09051e-38
3.46606e-38
2.96322e-38
2.97664e-39
5.72873e-41
2.51671e-42
1.75439e-47
3.24087e-46
4.07863e-45
3.57625e-44
2.23584e-43
1.08547e-42
5.7906e-42
3.11073e-41
1.37546e-40
5.10885e-40
1.26905e-39
2.25475e-39
2.92637e-39
2.21679e-39
1.80827e-39
1.36474e-39
1.22382e-40
3.29171e-42
7.69804e-44
)
;

boundaryField
{
    leftWall
    {
        type            alphaContactAngle;
        contactAngleProperties 
        {
            air             
            {
                theta0          90;
            }
            water           
            {
                theta0          90;
            }
            oil             
            {
                theta0          90;
            }
        }
        value           nonuniform List<scalar> 
50
(
1
1
1
1
1
1
1
0.768018
0.141918
1.82169e-100
1.50255e-80
6.07311e-79
3.12745e-77
7.13758e-76
5.23876e-75
5.7005e-72
1.2837e-68
2.35463e-67
2.31957e-66
1.88122e-65
1.40674e-64
8.69913e-64
5.22776e-63
3.24406e-62
2.01439e-61
1.16052e-60
5.66499e-60
4.39059e-59
9.44414e-59
1.12703e-58
9.55422e-59
4.62938e-59
1.37425e-59
2.09556e-60
1.42945e-61
5.66861e-63
1.23852e-64
1.75735e-66
1.59569e-68
1.00196e-70
2.69167e-73
7.04274e-76
1.01056e-78
8.23186e-82
2.69923e-85
8.35174e-89
9.02391e-93
2.33217e-97
2.42278e-103
2.16608e-113
)
;
    }
    rightWall
    {
        type            alphaContactAngle;
        contactAngleProperties 
        {
            air             
            {
                theta0          90;
            }
            water           
            {
                theta0          90;
            }
            oil             
            {
                theta0          90;
            }
        }
        value           nonuniform List<scalar> 
50
(
3.49761e-13
4.1074e-13
1.12079e-12
3.19292e-12
9.49066e-12
1.60892e-11
1.64113e-11
1.82183e-11
1.86837e-11
1.76044e-11
1.42607e-11
1.15426e-11
8.66035e-12
6.39683e-12
5.00964e-12
3.88927e-12
2.69999e-12
1.28702e-12
1.54942e-13
8.64263e-16
1.63042e-17
1.60279e-17
1.56657e-17
1.43572e-17
1.20404e-17
7.22302e-18
4.71352e-18
3.20234e-18
1.61119e-18
8.67638e-19
2.766e-19
4.9748e-20
6.67909e-21
1.10232e-21
1.11918e-22
7.36793e-24
1.67805e-25
2.36405e-26
7.87629e-28
5.01336e-29
2.82316e-30
9.59983e-32
3.00329e-33
8.97597e-35
2.63569e-36
8.29821e-38
4.34923e-40
4.97583e-41
2.51671e-42
7.69804e-44
)
;
    }
    lowerWall
    {
        type            alphaContactAngle;
        contactAngleProperties 
        {
            air             
            {
                theta0          90;
            }
            water           
            {
                theta0          90;
            }
            oil             
            {
                theta0          90;
            }
        }
        value           nonuniform List<scalar> 
62
(
1
1
1
1
1
1
1
1
1
1
1
1
1
1
1
1
1
1
1
1
1
1
0.998844
0.998844
0.99913
0.999978
0.999999
0.996918
0.991646
0.991639
0.996602
0.992082
0.695976
1.88643e-12
2.66461e-12
1.03982e-10
1.14944e-10
1.83699e-10
1.708e-10
1.24593e-10
8.69194e-11
7.34548e-11
4.7318e-11
1.03982e-10
2.75066e-10
5.43629e-10
7.25955e-10
8.84767e-10
8.50029e-10
5.37485e-10
4.55108e-10
3.36844e-10
2.5985e-10
1.90464e-10
1.36312e-10
9.54655e-11
6.06693e-11
3.48044e-11
1.76661e-11
6.49018e-12
1.7087e-12
3.49761e-13
)
;
    }
    atmosphere
    {
        type            inletOutlet;
        inletValue      uniform 0;
        value           nonuniform List<scalar> 
46
(
0
0
0
0
0
0
0
0
0
0
0
0
0
0
0
0
0
0
0
0
0
0
0
2.51235e-52
5.73188e-51
1.0719e-49
1.51715e-48
1.75439e-47
3.24087e-46
4.07863e-45
3.57625e-44
2.23584e-43
1.08547e-42
5.7906e-42
3.11073e-41
1.37546e-40
5.10885e-40
1.26905e-39
2.25475e-39
2.92637e-39
2.21679e-39
1.80827e-39
1.36474e-39
1.22382e-40
3.29171e-42
7.69804e-44
)
;
    }
    defaultFaces
    {
        type            empty;
    }
}


// ************************************************************************* //
