/*--------------------------------*- C++ -*----------------------------------*\
  =========                 |
  \\      /  F ield         | OpenFOAM: The Open Source CFD Toolbox
   \\    /   O peration     | Website:  https://openfoam.org
    \\  /    A nd           | Version:  13
     \\/     M anipulation  |
\*---------------------------------------------------------------------------*/
FoamFile
{
    format      ascii;
    class       volScalarField;
    location    "0.3";
    object      epsilon;
}
// * * * * * * * * * * * * * * * * * * * * * * * * * * * * * * * * * * * * * //

dimensions      [0 2 -3 0 0 0 0];

internalField   nonuniform List<scalar> 
2268
(
0.0303112
0.110854
0.201071
0.284688
0.365368
0.442904
0.517013
0.587364
0.653635
0.715408
0.771999
0.822274
0.864418
0.895961
0.913943
0.916219
0.901939
0.880072
0.855051
0.815699
0.746379
0.602165
0.316311
0.0455418
0.0781963
0.111464
0.141965
0.170422
0.197229
0.222621
0.24672
0.269565
0.291116
0.311227
0.329617
0.345849
0.359379
0.369762
0.377108
0.382634
0.391669
0.410788
0.444142
0.492162
0.506762
0.388352
0.0686268
0.0826328
0.103682
0.123135
0.140968
0.157493
0.172978
0.187598
0.201453
0.214558
0.226828
0.238086
0.248107
0.256713
0.263934
0.270414
0.278019
0.291449
0.3177
0.365358
0.442431
0.515061
0.604121
0.0851164
0.0905697
0.105525
0.11965
0.132599
0.14454
0.155675
0.16616
0.176087
0.185466
0.194211
0.202168
0.209203
0.215326
0.220844
0.22681
0.235668
0.252435
0.284168
0.339993
0.430298
0.537067
0.808326
0.0974612
0.0982827
0.10947
0.120161
0.130034
0.139169
0.147699
0.155738
0.163351
0.17052
0.177146
0.183088
0.188285
0.192906
0.197522
0.203623
0.214282
0.235058
0.27276
0.335372
0.433547
0.565337
0.998811
0.1074
0.104851
0.11356
0.12185
0.129553
0.136727
0.143458
0.149825
0.155859
0.161514
0.166679
0.171237
0.175205
0.178909
0.183192
0.190047
0.203285
0.229245
0.274265
0.343618
0.447306
0.600335
1.1795
0.116402
0.110034
0.11705
0.123681
0.129836
0.135581
0.140999
0.146149
0.151037
0.155593
0.159701
0.163274
0.166414
0.169593
0.173953
0.182086
0.198752
0.231427
0.286114
0.363941
0.472568
0.645863
1.3657
0.125657
0.114039
0.119867
0.125407
0.130487
0.135188
0.139624
0.14386
0.147887
0.15162
0.154939
0.157793
0.160385
0.163302
0.168023
0.177836
0.198624
0.239084
0.306287
0.396473
0.511988
0.706136
1.62558
3.64414
5.96926
7.96334
10.015
11.428
11.4906
10.9521
10.0839
9.68277
9.34795
8.94002
8.40816
7.73593
6.92983
6.23812
5.49857
4.63545
3.36283
1.31875
3.04278
4.46226
5.01026
5.69824
5.81712
5.51082
5.12186
4.58426
4.29733
4.07414
3.85538
3.6346
3.41625
3.21872
3.14824
3.17307
3.23153
2.95747
2.12293
4.03714
4.66617
4.86053
5.23204
4.80874
4.34143
3.96505
3.58379
3.35412
3.16343
2.98219
2.81197
2.66476
2.56715
2.5886
2.74984
3.02259
3.11123
3.52405
4.36491
5.37535
5.14223
5.01061
4.13453
3.6203
3.31281
3.07423
2.91725
2.77773
2.6411
2.51333
2.41133
2.36678
2.4394
2.66636
3.0375
3.35041
4.87475
4.22017
5.33503
5.47996
4.59388
3.53996
3.05478
2.83175
2.69951
2.61492
2.53467
2.44999
2.3692
2.31236
2.31467
2.43309
2.71121
3.15201
3.64531
6.16831
4.45085
5.93765
5.56215
4.04895
3.07376
2.62823
2.46137
2.40194
2.37914
2.35586
2.32419
2.29279
2.28315
2.33278
2.49817
2.82607
3.3309
3.9859
7.42645
4.58397
6.29402
5.27352
3.67712
2.72809
2.31061
2.18078
2.16885
2.19382
2.21989
2.23792
2.25545
2.29386
2.39198
2.60707
2.98785
3.55958
4.36954
8.66989
4.67376
6.01099
4.82661
3.3237
2.44837
2.07309
1.97295
1.9916
2.05145
2.11821
2.18113
2.24583
2.3321
2.47932
2.74707
3.18566
3.8321
4.80529
9.92903
0.136495
0.118743
0.12345
0.127983
0.132011
0.135597
0.138925
0.142092
0.145083
0.147801
0.15014
0.152115
0.154049
0.156791
0.162453
0.175198
0.20214
0.252919
0.338362
0.456856
0.591714
0.780942
1.22655
0.154349
0.123869
0.126759
0.130294
0.133386
0.135907
0.138098
0.140116
0.141993
0.143706
0.145259
0.146794
0.14871
0.152104
0.159521
0.175434
0.207007
0.263927
0.356366
0.492847
0.654936
0.815227
1.04545
0.165108
0.123017
0.123777
0.126826
0.129572
0.131755
0.133558
0.135149
0.136622
0.138037
0.139489
0.141212
0.143704
0.148124
0.156964
0.174555
0.207559
0.264828
0.355517
0.483954
0.644529
0.811459
0.963816
0.168373
0.121149
0.119595
0.121631
0.123804
0.125627
0.127156
0.128515
0.12981
0.131145
0.132677
0.134706
0.137808
0.143132
0.15291
0.170907
0.20288
0.256704
0.340938
0.460032
0.606541
0.763465
0.902614
0.169122
0.120481
0.116977
0.117589
0.118689
0.119673
0.120507
0.121277
0.122099
0.123123
0.124578
0.126848
0.130571
0.13681
0.14742
0.165487
0.195811
0.2454
0.322595
0.43412
0.577481
0.737028
0.889462
0.170364
0.120842
0.115352
0.114248
0.113989
0.113895
0.113855
0.11391
0.114176
0.11484
0.116199
0.11873
0.123148
0.130445
0.142183
0.160943
0.190919
0.238688
0.313147
0.423048
0.571625
0.748314
0.923472
0.173738
0.122983
0.115241
0.112127
0.110317
0.109033
0.108075
0.107427
0.107192
0.107579
0.108933
0.111824
0.11707
0.125686
0.139165
0.159995
0.192297
0.242679
0.320215
0.433341
0.584389
0.763042
0.93881
0.18143
0.127807
0.116849
0.11126
0.107759
0.105302
0.103536
0.102359
0.10184
0.102198
0.103814
0.107316
0.113621
0.123873
0.139765
0.164178
0.201515
0.25756
0.338534
0.449763
0.591292
0.753363
0.914744
0.197732
0.137307
0.120675
0.111844
0.106524
0.102995
0.100611
0.0991457
0.0986157
0.0992445
0.101469
0.105934
0.113592
0.125806
0.144616
0.173224
0.21558
0.27558
0.356302
0.460224
0.587008
0.730369
0.876621
0.2304
0.155258
0.127559
0.114278
0.107062
0.102585
0.0997724
0.0982523
0.0979661
0.0991472
0.102323
0.10808
0.117296
0.131702
0.153748
0.186146
0.231367
0.292239
0.370692
0.467293
0.581283
0.709457
0.844189
0.27622
0.170687
0.134832
0.116422
0.10769
0.102674
0.099769
0.0984534
0.0986334
0.100648
0.105053
0.112568
0.123946
0.140756
0.166001
0.203039
0.251385
0.314059
0.39307
0.486303
0.592054
0.711058
0.843275
0.311754
0.164223
0.133169
0.112425
0.103024
0.0983849
0.0963426
0.0961925
0.0978521
0.101589
0.107941
0.117679
0.13155
0.1507
0.177999
0.216521
0.270683
0.344586
0.436987
0.540794
0.649566
0.765355
0.904278
0.333786
0.161892
0.123294
0.105874
0.0976185
0.0938727
0.0928689
0.0940238
0.0973087
0.10298
0.1115
0.123452
0.139427
0.160212
0.1876
0.224375
0.275716
0.344922
0.42925
0.52593
0.631783
0.74917
0.888601
0.337153
0.152943
0.115627
0.100648
0.0936573
0.0907863
0.0906674
0.0928674
0.0974153
0.104593
0.114783
0.128453
0.146107
0.168299
0.195787
0.229869
0.273072
0.327502
0.394334
0.475374
0.570872
0.679474
0.799741
0.334265
0.145452
0.110093
0.0967956
0.0907921
0.0886261
0.0891786
0.0921398
0.0975869
0.105802
0.117149
0.131984
0.150643
0.173469
0.200889
0.233618
0.272864
0.319611
0.375777
0.443235
0.523131
0.616306
0.723571
0.333145
0.141268
0.106919
0.0943794
0.0889419
0.0872307
0.0882295
0.0916881
0.0976973
0.106523
0.118484
0.133857
0.152876
0.175724
0.202565
0.233697
0.269721
0.311358
0.359745
0.416334
0.482386
0.558942
0.646524
0.334326
0.139582
0.105356
0.0930904
0.0879218
0.0864702
0.0877342
0.0914746
0.0977728
0.106874
0.119045
0.134478
0.153338
0.175685
0.201519
0.230914
0.2641
0.301456
0.343632
0.391464
0.445763
0.507294
0.576592
0.336055
0.139097
0.104738
0.0925292
0.0874674
0.0861481
0.0875614
0.0914561
0.0978865
0.107036
0.119115
0.134283
0.152663
0.174191
0.198738
0.226225
0.256641
0.290076
0.326765
0.367047
0.411279
0.45984
0.513129
0.336902
0.138947
0.104556
0.092375
0.0873578
0.0860966
0.0875746
0.0915243
0.0979711
0.107055
0.118929
0.133696
0.151371
0.171851
0.194937
0.220403
0.24804
0.277688
0.30926
0.342728
0.378097
0.415404
0.454704
0.336218
0.138699
0.104499
0.092401
0.0874223
0.0861814
0.0876651
0.0915933
0.0979667
0.106888
0.118465
0.132743
0.149666
0.16906
0.190641
0.214059
0.238939
0.264918
0.291671
0.318915
0.346413
0.373968
0.401421
0.333896
0.138179
0.104399
0.0924571
0.0875324
0.0862934
0.0877399
0.0915856
0.0978115
0.10649
0.11769
0.13141
0.147535
0.165822
0.185908
0.207336
0.229603
0.252197
0.274631
0.296468
0.31734
0.33696
0.355153
0.33011
0.137343
0.104173
0.0924496
0.0875958
0.0863463
0.0877207
0.0914311
0.0974439
0.105808
0.116561
0.129663
0.144955
0.16214
0.180791
0.200375
0.220299
0.239954
0.258761
0.27621
0.291891
0.305525
0.317016
0.325139
0.136219
0.103792
0.0923269
0.0875523
0.0862783
0.0875478
0.0910739
0.0968121
0.104794
0.115033
0.127464
0.141898
0.158005
0.175317
0.193254
0.211176
0.228424
0.24438
0.258514
0.270427
0.279887
0.286895
0.319292
0.134866
0.103261
0.0920711
0.0873711
0.0860536
0.0871851
0.0904802
0.0958861
0.103421
0.113083
0.124793
0.138349
0.153405
0.169479
0.18598
0.202248
0.217614
0.231456
0.243254
0.252636
0.259421
0.263676
0.312874
0.133364
0.102614
0.0916918
0.0870497
0.0856644
0.0866242
0.0896447
0.0946654
0.101694
0.110721
0.121662
0.134315
0.148341
0.163267
0.178511
0.193427
0.207359
0.219702
0.229956
0.237776
0.243011
0.245755
0.306195
0.131808
0.101904
0.0912231
0.0866113
0.0851293
0.0858849
0.0885922
0.0931822
0.099654
0.107994
0.11812
0.129844
0.142847
0.156684
0.170803
0.184591
0.197423
0.20872
0.218005
0.224951
0.229413
0.231476
0.299571
0.130316
0.101205
0.0907199
0.0861011
0.0844909
0.0850126
0.0873753
0.0914998
0.0973759
0.104988
0.114262
0.125029
0.137002
0.149776
0.162847
0.175646
0.18759
0.198132
0.206819
0.21333
0.217509
0.219409
0.293352
0.129025
0.100613
0.0902559
0.0855826
0.0838103
0.0840721
0.0860681
0.089705
0.0949617
0.10182
0.110215
0.120001
0.13093
0.142644
0.154695
0.166567
0.177727
0.187667
0.195954
0.202268
0.206436
0.208467
0.287941
0.12811
0.100243
0.0899207
0.085133
0.0831615
0.0831415
0.0847581
0.0878995
0.0925302
0.0986266
0.106132
0.114925
0.124796
0.135439
0.146465
0.157418
0.167819
0.1772
0.185154
0.191363
0.195633
0.197924
0.283827
0.127786
0.100236
0.0898179
0.0848384
0.0826249
0.0823042
0.0835378
0.0861895
0.0902049
0.0955514
0.102177
0.109982
0.118792
0.128354
0.138335
0.148345
0.157958
0.166755
0.174354
0.180445
0.184817
0.187387
0.281625
0.128327
0.100757
0.0900619
0.0847886
0.0822821
0.0816424
0.0824967
0.0846765
0.0881032
0.0927305
0.0985075
0.105349
0.113116
0.121598
0.130521
0.139554
0.148329
0.156476
0.163645
0.169542
0.173946
0.176737
0.28212
0.130072
0.101998
0.0907719
0.0850712
0.082209
0.0812314
0.0817149
0.08345
0.0863271
0.0902823
0.0952603
0.101187
0.107949
0.115376
0.123244
0.131277
0.139165
0.146586
0.15323
0.158823
0.163145
0.166055
0.28633
0.133434
0.104161
0.0920612
0.0857625
0.0824696
0.0811339
0.0812592
0.0825828
0.0849586
0.0883004
0.0925448
0.0976236
0.103442
0.109864
0.116707
0.123742
0.130711
0.137341
0.143364
0.148536
0.152649
0.15555
0.295588
0.138894
0.107445
0.0940181
0.0869145
0.0831083
0.0813963
0.08118
0.0821299
0.0840573
0.0868509
0.0904365
0.0947479
0.0997043
0.105194
0.111068
0.117137
0.123187
0.128988
0.134314
0.138957
0.142732
0.145489
0.311686
0.146989
0.112002
0.0966766
0.0885375
0.0841411
0.082045
0.0815113
0.0821292
0.0836626
0.0859743
0.0889787
0.0926095
0.0967957
0.101444
0.10643
0.111596
0.11676
0.121728
0.126312
0.130341
0.133663
0.136145
0.337185
0.158288
0.117876
0.0999738
0.0905789
0.0855468
0.0830839
0.0822715
0.0826045
0.0837982
0.0856909
0.0881877
0.0912226
0.0947325
0.0986386
0.102835
0.107186
0.11153
0.1157
0.119533
0.122894
0.125671
0.127761
0.376111
0.17334
0.124902
0.103693
0.0929005
0.0872615
0.0844968
0.0834687
0.0835724
0.0844789
0.0860087
0.0880618
0.0905751
0.0934942
0.0967532
0.100262
0.1039
0.10752
0.110963
0.114082
0.116761
0.118929
0.120529
0.435511
0.192526
0.132524
0.107393
0.0952631
0.089183
0.0862557
0.0851088
0.0850498
0.0857202
0.0869337
0.0885926
0.0906412
0.0930362
0.0957261
0.098637
0.101664
0.104668
0.107491
0.109977
0.11201
0.113548
0.114589
0.528953
0.215537
0.139468
0.110329
0.0973334
0.0911938
0.0883406
0.0872101
0.0870653
0.0875473
0.0884799
0.0897772
0.0913956
0.0933058
0.0954738
0.0978464
0.100339
0.102828
0.105153
0.107136
0.108627
0.109576
0.11004
0.685704
0.239556
0.143152
0.111415
0.0987491
0.0932157
0.0907729
0.0898219
0.0896706
0.0900046
0.0906793
0.0916299
0.0928285
0.094261
0.0959125
0.0977548
0.0997338
0.101757
0.103683
0.105321
0.106461
0.106978
0.10694
0.98155
0.253141
0.138876
0.109418
0.0993094
0.0953121
0.0936598
0.0930432
0.0929492
0.0931619
0.0935888
0.0941922
0.0949598
0.0958903
0.0969844
0.0982379
0.0996332
0.101128
0.102641
0.10403
0.105074
0.105509
0.105242
1.66806
0.214594
0.120064
0.103843
0.0993723
0.0978218
0.0972319
0.0970303
0.0970173
0.0971152
0.0972926
0.0975383
0.0978503
0.0982317
0.0986878
0.0992253
0.0998502
0.100567
0.101378
0.10227
0.103188
0.10392
0.104232
2.22159
2.03194
3.18924
4.88319
1.33517
1.4584
1.74151
2.145
1.08529
1.18139
1.30302
1.45442
0.986091
1.05975
1.14507
1.24163
0.97558
1.04417
1.11386
1.18608
1.02555
1.10093
1.17007
1.23553
1.04539
1.12411
1.19641
1.26298
1.01977
1.0978
1.17122
1.23936
0.977047
1.05179
1.12402
1.19338
0.942038
1.01563
1.08869
1.16092
0.947802
1.02749
1.10662
1.18393
1.0307
1.12953
1.22152
1.29986
1.00989
1.09764
1.17489
1.24187
0.898637
0.974468
1.05015
1.12318
0.809297
0.870732
0.931781
0.992774
0.717187
0.767326
0.81814
0.869704
0.632855
0.672017
0.712201
0.753256
0.556182
0.585273
0.615133
0.64554
0.485819
0.506297
0.527094
0.548069
0.422427
0.435877
0.449211
0.462352
0.368278
0.376359
0.384073
0.391394
0.324496
0.328813
0.332671
0.336094
0.29066
0.292552
0.293982
0.29501
0.265205
0.265661
0.265681
0.265343
0.246084
0.245779
0.245056
0.244006
0.23129
0.230658
0.229616
0.228255
0.219136
0.21845
0.217348
0.215923
0.208356
0.207774
0.206773
0.205433
0.198099
0.197708
0.196895
0.195732
0.187883
0.187715
0.187128
0.186186
0.177528
0.177573
0.177213
0.176501
0.167073
0.167296
0.167136
0.166636
0.156702
0.157053
0.157048
0.156722
0.146673
0.147088
0.147183
0.146982
0.137254
0.137666
0.137794
0.137657
0.12869
0.129029
0.129121
0.128976
0.121184
0.121383
0.121365
0.121138
0.114885
0.114879
0.114677
0.11429
0.109906
0.109629
0.109162
0.108529
0.106315
0.105706
0.104897
0.103936
0.104035
0.103062
0.101888
0.100574
0.102468
0.101117
0.0996415
0.0981315
5.28005
5.91378
4.08614
2.88584
2.16209
1.8543
1.78302
1.82337
1.9129
2.02177
2.13835
2.26642
2.42357
2.65047
3.0055
3.54267
4.32189
5.58176
12.2212
2.76458
3.00598
2.49384
2.08311
1.80124
1.6705
1.65601
1.71933
1.83541
1.98804
2.16978
2.38447
2.64103
2.97557
3.42753
4.04709
4.91573
6.35098
14.0927
1.71415
1.76491
1.74416
1.68528
1.61611
1.58295
1.60728
1.69104
1.83258
2.02902
2.28394
2.61039
2.99366
3.47318
4.03037
4.68154
5.5407
7.02759
15.4159
1.41
1.50145
1.54403
1.55011
1.54559
1.5589
1.61117
1.71828
1.8912
2.14037
2.49528
3.02144
3.62451
4.31681
4.96122
5.53363
6.22565
7.61081
16.1336
1.30966
1.40824
1.47369
1.51215
1.54106
1.58232
1.65953
1.79466
2.00747
2.32349
2.82069
3.78053
4.84957
5.67804
6.36375
6.66981
7.05398
8.20751
16.3989
1.3379
1.41991
1.48233
1.53092
1.57728
1.64078
1.74558
1.91611
2.18208
2.57592
3.2345
4.09371
5.07159
5.9878
7.08515
7.88526
8.09731
8.8871
16.5219
1.36221
1.44056
1.50459
1.56298
1.62858
1.72151
1.86252
2.07721
2.41683
2.84563
3.32983
3.83885
4.65898
5.66103
6.82264
8.66073
9.50677
9.53712
16.7485
1.34242
1.43135
1.51038
1.59104
1.68913
1.82466
2.00961
2.26857
2.61094
2.9535
3.3107
3.78888
4.47515
5.42883
6.65903
8.67872
10.1244
10.0127
17.1287
1.30302
1.41099
1.51658
1.63208
1.77522
1.96301
2.19051
2.46984
2.72337
3.00155
3.33039
3.73559
4.31237
5.18383
6.40576
8.12189
9.90408
10.4524
17.3876
1.28016
1.41615
1.56044
1.71483
1.91011
2.12719
2.37985
2.61526
2.82986
3.04648
3.29237
3.60715
4.09486
4.88481
6.06459
7.58944
9.39297
10.5931
17.3109
1.31225
1.47946
1.68267
1.83658
2.04277
2.27571
2.50131
2.6973
2.85975
3.01079
3.17472
3.41051
3.82836
4.56064
5.71024
7.23736
8.96474
10.248
16.8517
1.41615
1.56055
1.72172
1.88621
2.10218
2.32718
2.52311
2.67454
2.78807
2.88069
2.97566
3.14926
3.51695
4.21936
5.37751
6.98673
8.72543
9.98994
16.3361
1.35124
1.50933
1.69146
1.87498
2.0704
2.26248
2.42156
2.53628
2.60888
2.65021
2.69654
2.83011
3.16596
3.85303
5.02895
6.7019
8.56964
9.9049
15.9733
1.24427
1.40745
1.58271
1.75562
1.92681
2.08673
2.2141
2.29591
2.3322
2.33354
2.35743
2.47723
2.79857
3.46666
4.6334
6.32125
8.31415
9.96549
15.9088
1.0986
1.24937
1.40874
1.56373
1.70988
1.83776
1.93105
1.97882
1.98141
1.97068
1.99773
2.12225
2.43639
3.07331
4.18603
5.83027
7.82796
10.1608
16.1558
0.958471
1.08451
1.21606
1.34273
1.45631
1.54753
1.60483
1.62219
1.61101
1.61028
1.65145
1.78402
2.08694
2.67651
3.68804
5.23031
7.02155
10.6229
15.5333
0.823373
0.921941
1.0213
1.11422
1.19175
1.24673
1.27421
1.27542
1.27466
1.28889
1.34281
1.47721
1.75839
2.28437
3.17053
4.50196
6.14085
9.13016
13.2163
0.69686
0.767527
0.83491
0.894148
0.940142
0.9694
0.981155
0.986828
0.997197
1.02297
1.08304
1.20963
1.4562
1.90353
2.65088
3.77822
5.2882
7.51252
10.7672
0.581788
0.626753
0.667492
0.701421
0.726406
0.741835
0.751883
0.764069
0.782144
0.813901
0.873104
0.983651
1.18595
1.54291
2.13741
3.04891
4.31547
6.08242
8.50447
0.482356
0.507857
0.529927
0.547804
0.561348
0.571691
0.584199
0.599879
0.621477
0.65429
0.707669
0.798033
0.953597
1.21956
1.65895
2.34034
3.30727
4.62163
6.41566
0.40191
0.414587
0.425251
0.434227
0.442172
0.452093
0.464958
0.481387
0.503194
0.533732
0.57889
0.649059
0.762308
0.948295
1.25028
1.71948
2.39477
3.30906
4.55795
0.340656
0.345733
0.350072
0.354513
0.360242
0.369031
0.380808
0.396085
0.415981
0.442468
0.478962
0.531479
0.61054
0.733717
0.927506
1.22497
1.65401
2.23339
3.00808
0.29611
0.296983
0.297933
0.299819
0.304162
0.311192
0.321047
0.334099
0.350991
0.37278
0.401258
0.439557
0.493152
0.571267
0.688089
0.861824
1.1082
1.43467
1.85202
0.264543
0.263163
0.262251
0.262666
0.265353
0.270398
0.277986
0.288368
0.301879
0.31901
0.340559
0.367915
0.403515
0.451482
0.518191
0.611848
0.739136
0.900548
1.10231
0.24223
0.239646
0.237568
0.236855
0.237947
0.241043
0.246343
0.254015
0.264208
0.27708
0.292866
0.311987
0.335227
0.363954
0.400303
0.44694
0.505643
0.575574
0.678024
0.226044
0.222854
0.220048
0.218332
0.218007
0.219335
0.222515
0.22767
0.234844
0.244018
0.25513
0.268116
0.282954
0.299717
0.318601
0.339832
0.363431
0.39035
0.459933
0.213601
0.210157
0.206903
0.204371
0.202871
0.202683
0.204011
0.206959
0.211524
0.217606
0.225009
0.233458
0.2426
0.252007
0.26118
0.269604
0.277169
0.287183
0.350912
0.203202
0.19973
0.196244
0.193131
0.190717
0.189299
0.189088
0.190189
0.19259
0.19617
0.200695
0.205829
0.211129
0.21605
0.219973
0.222359
0.223513
0.228435
0.293648
0.19372
0.190395
0.18685
0.183379
0.180312
0.177953
0.176525
0.176147
0.176824
0.178447
0.180799
0.183558
0.186307
0.188546
0.189748
0.189569
0.188728
0.1931
0.260252
0.184467
0.181419
0.177954
0.174324
0.170844
0.167819
0.165485
0.163982
0.163345
0.163497
0.164263
0.165376
0.166487
0.167197
0.167118
0.16611
0.165155
0.170406
0.238505
0.1751
0.172402
0.169132
0.165505
0.161819
0.158376
0.155421
0.153118
0.151533
0.150634
0.150299
0.150324
0.150447
0.150367
0.149831
0.148845
0.148509
0.154924
0.223164
0.165537
0.163217
0.160212
0.15671
0.152987
0.149335
0.146009
0.14319
0.140976
0.139379
0.138329
0.13769
0.137277
0.136882
0.13635
0.135782
0.136302
0.143816
0.211825
0.15588
0.15392
0.151205
0.147902
0.144267
0.140578
0.137087
0.13399
0.131412
0.129402
0.12794
0.126949
0.12631
0.125892
0.125612
0.125624
0.127029
0.135509
0.203238
0.146342
0.144669
0.142226
0.139157
0.135693
0.132092
0.128601
0.125418
0.122687
0.120488
0.118841
0.11772
0.117061
0.116791
0.11688
0.117514
0.119756
0.129089
0.19667
0.137137
0.135659
0.133438
0.130602
0.127355
0.123932
0.120561
0.11744
0.114719
0.112498
0.110832
0.109732
0.109181
0.10915
0.109651
0.110889
0.113898
0.124003
0.191651
0.128477
0.12708
0.125006
0.122374
0.11936
0.11617
0.113007
0.110053
0.10746
0.105341
0.10377
0.102791
0.102421
0.102669
0.103581
0.105383
0.109085
0.119906
0.187853
0.120545
0.11909
0.117071
0.114595
0.11181
0.108882
0.105981
0.103269
0.100887
0.098952
0.0975529
0.0967546
0.0966033
0.0971403
0.0984412
0.100753
0.105082
0.11658
0.185037
0.113469
0.111811
0.109746
0.107372
0.104795
0.102138
0.0995297
0.0971035
0.0949848
0.0932864
0.0921051
0.0915212
0.0916032
0.0924196
0.0940748
0.0968415
0.101736
0.113882
0.183004
0.107345
0.105345
0.103145
0.100817
0.0984222
0.0960277
0.0937191
0.0915959
0.0897641
0.088328
0.0873861
0.0870291
0.0873425
0.0884175
0.0903865
0.0935525
0.0989561
0.111726
0.181571
0.10227
0.0998263
0.0974283
0.0951072
0.0928618
0.0907042
0.0886754
0.0868427
0.0852914
0.0841154
0.0834114
0.0832754
0.083805
0.0851097
0.0873475
0.0908553
0.0967139
0.110089
0.180542
0.0983853
0.0954786
0.0928855
0.0905586
0.088429
0.0864597
0.0846566
0.0830619
0.0817443
0.0807882
0.0802869
0.0803383
0.0810474
0.0825372
0.0849871
0.0887699
0.0950263
0.109015
0.179641
0.0957299
0.0926905
0.0900601
0.0877661
0.0857169
0.0838574
0.0821796
0.0807149
0.0795241
0.0786863
0.0782921
0.0784396
0.0792366
0.080812
0.0833576
0.0872697
0.0937413
0.108136
0.178219
)
;

boundaryField
{
    leftWall
    {
        type            epsilonWallFunction;
        value           nonuniform List<scalar> 
50
(
0.0303112
0.0455418
0.0686268
0.0851164
0.0974612
0.1074
0.116402
0.125657
0.136495
0.154349
0.165108
0.168373
0.169122
0.170364
0.173738
0.18143
0.197732
0.2304
0.27622
0.311754
0.333786
0.337153
0.334265
0.333145
0.334326
0.336055
0.336902
0.336218
0.333896
0.33011
0.325139
0.319292
0.312874
0.306195
0.299571
0.293352
0.287941
0.283827
0.281625
0.28212
0.28633
0.295588
0.311686
0.337185
0.376111
0.435511
0.528953
0.685704
0.98155
1.66806
)
;
    }
    rightWall
    {
        type            epsilonWallFunction;
        value           nonuniform List<scalar> 
50
(
1.31875
2.12293
3.52405
4.87475
6.16831
7.42645
8.66989
9.92903
12.2212
14.0927
15.4159
16.1336
16.3989
16.5219
16.7485
17.1287
17.3876
17.3109
16.8517
16.3361
15.9733
15.9088
16.1558
15.5333
13.2163
10.7672
8.50447
6.41566
4.55795
3.00808
1.85202
1.10231
0.678024
0.459933
0.350912
0.293648
0.260252
0.238505
0.223164
0.211825
0.203238
0.19667
0.191651
0.187853
0.185037
0.183004
0.181571
0.180542
0.179641
0.178219
)
;
    }
    lowerWall
    {
        type            epsilonWallFunction;
        value           nonuniform List<scalar> 
62
(
0.0303112
0.110854
0.201071
0.284688
0.365368
0.442904
0.517013
0.587364
0.653635
0.715408
0.771999
0.822274
0.864418
0.895961
0.913943
0.916219
0.901939
0.880072
0.855051
0.815699
0.746379
0.602165
0.316311
0.316311
0.388352
0.604121
0.808326
0.998811
1.1795
1.3657
1.62558
2.22159
2.03194
3.18924
4.88319
3.64414
3.04278
4.03714
4.36491
4.22017
4.45085
4.58397
4.67376
3.64414
5.96926
7.96334
10.015
11.428
11.4906
10.9521
10.0839
9.68277
9.34795
8.94002
8.40816
7.73593
6.92983
6.23812
5.49857
4.63545
3.36283
1.31875
)
;
    }
    atmosphere
    {
        type            inletOutlet;
        inletValue      uniform 0.1;
        value           nonuniform List<scalar> 
46
(
0.1
0.1
0.1
0.1
0.1
0.1
0.1
0.1
0.1
0.1
0.1
0.1
0.1
0.1
0.1
0.1
0.1
0.1
0.1
0.1
0.1
0.1
0.1
0.102468
0.101117
0.0996415
0.0981315
0.0957299
0.0926905
0.0900601
0.0877661
0.0857169
0.0838574
0.0821796
0.0807149
0.0795241
0.0786863
0.0782921
0.0784396
0.0792366
0.080812
0.0833576
0.0872697
0.0937413
0.108136
0.178219
)
;
    }
    defaultFaces
    {
        type            empty;
    }
}


// ************************************************************************* //
