/*--------------------------------*- C++ -*----------------------------------*\
  =========                 |
  \\      /  F ield         | OpenFOAM: The Open Source CFD Toolbox
   \\    /   O peration     | Website:  https://openfoam.org
    \\  /    A nd           | Version:  13
     \\/     M anipulation  |
\*---------------------------------------------------------------------------*/
FoamFile
{
    format      ascii;
    class       volScalarField;
    location    "0.3";
    object      k;
}
// * * * * * * * * * * * * * * * * * * * * * * * * * * * * * * * * * * * * * //

dimensions      [0 2 -2 0 0 0 0];

internalField   nonuniform List<scalar> 
2268
(
0.00369258
0.00878271
0.0130776
0.0164968
0.0194875
0.0221581
0.024566
0.0267447
0.0287158
0.0304907
0.0320688
0.0334344
0.0345533
0.035375
0.0358342
0.0358804
0.0354885
0.034899
0.0342133
0.0331344
0.0312065
0.0270137
0.0175393
0.00797517
0.0189763
0.027127
0.0338595
0.0396399
0.0446966
0.0491617
0.0531193
0.0566256
0.059712
0.0623831
0.0646164
0.0663688
0.0675932
0.0682497
0.0683602
0.0680518
0.0676125
0.0671802
0.0665816
0.0649598
0.0577196
0.0332293
0.010494
0.0236457
0.0335654
0.041785
0.0488384
0.0549889
0.0603972
0.06517
0.0693797
0.0730654
0.0762312
0.0788519
0.0808915
0.0823313
0.0831843
0.0835676
0.083765
0.0842656
0.0853568
0.0867927
0.0871334
0.0795904
0.0446232
0.0121203
0.0267157
0.0377783
0.0469151
0.0547483
0.0615673
0.067549
0.0728135
0.0774415
0.0814746
0.0849155
0.08774
0.0899279
0.0915016
0.092543
0.0932853
0.0941773
0.0958711
0.0986374
0.101941
0.10381
0.0962279
0.0541794
0.0132699
0.028962
0.04091
0.0507051
0.0590813
0.0663626
0.0727402
0.0783428
0.0832551
0.0875182
0.0911336
0.0940823
0.0963676
0.0980631
0.0993333
0.100548
0.102329
0.105434
0.109939
0.114789
0.117546
0.109758
0.062376
0.0141633
0.0307071
0.0434052
0.0537049
0.062474
0.0700822
0.0767386
0.0825793
0.08769
0.0921101
0.0958424
0.0988791
0.101254
0.103098
0.104669
0.106493
0.109386
0.114173
0.120585
0.126712
0.129785
0.121645
0.0696737
0.0149531
0.0321498
0.0455029
0.0561987
0.0652532
0.0730889
0.0799378
0.0859446
0.0911954
0.095728
0.0995478
0.102663
0.105143
0.107175
0.10912
0.111687
0.115929
0.12277
0.131479
0.13892
0.141918
0.133425
0.0768082
0.0157471
0.0334865
0.0473965
0.0583967
0.067654
0.0756402
0.0826144
0.0887318
0.0940794
0.0986939
0.102584
0.105776
0.108383
0.110638
0.113018
0.116444
0.122235
0.131401
0.142972
0.152284
0.155351
0.146999
0.0862467
0.0895944
0.124602
0.151076
0.175852
0.191779
0.193107
0.18786
0.178629
0.174144
0.170175
0.165099
0.158282
0.149463
0.138647
0.129031
0.118371
0.105286
0.084605
0.044859
0.140179
0.226579
0.283319
0.330486
0.354915
0.362951
0.363863
0.35412
0.346354
0.337527
0.325935
0.311847
0.296014
0.279661
0.263941
0.248453
0.2304
0.194993
0.109974
0.168963
0.292537
0.342648
0.384643
0.399803
0.411975
0.420504
0.41893
0.416398
0.409946
0.399039
0.384725
0.368683
0.35323
0.340464
0.329584
0.314517
0.273468
0.154279
0.179344
0.344456
0.375792
0.397318
0.400735
0.419384
0.437663
0.447333
0.452599
0.451382
0.444099
0.432441
0.418858
0.406515
0.398085
0.39241
0.380873
0.336723
0.191537
0.174284
0.349865
0.391632
0.382164
0.383182
0.409823
0.437619
0.45833
0.472001
0.477415
0.475469
0.468272
0.45882
0.450854
0.447315
0.446611
0.438276
0.39197
0.224006
0.178146
0.37374
0.387847
0.355129
0.362936
0.395744
0.431421
0.460996
0.482372
0.494654
0.498822
0.497132
0.49286
0.490075
0.491789
0.495894
0.490499
0.442272
0.25341
0.181785
0.381409
0.367729
0.334602
0.347299
0.384215
0.424928
0.460668
0.48832
0.506942
0.517312
0.521588
0.523044
0.525866
0.533071
0.541955
0.539427
0.489395
0.280835
0.184993
0.348866
0.339634
0.319128
0.338447
0.377812
0.420933
0.460271
0.492545
0.51662
0.532905
0.543238
0.550602
0.559133
0.571963
0.585672
0.586177
0.5349
0.307266
0.0166517
0.0354049
0.0499412
0.0612874
0.0707712
0.0789121
0.0860074
0.0922292
0.0976676
0.10236
0.106329
0.109633
0.112447
0.115116
0.118355
0.12334
0.131567
0.14387
0.159651
0.173977
0.179162
0.171144
0.12034
0.018079
0.0386355
0.0533733
0.0647602
0.0742186
0.0822747
0.0892573
0.0953635
0.100706
0.10536
0.109401
0.112955
0.116234
0.119692
0.124208
0.130988
0.141315
0.155861
0.173676
0.192378
0.203651
0.197019
0.162922
0.0188981
0.0403909
0.0547628
0.0659983
0.0753453
0.0833088
0.0902044
0.0962391
0.101556
0.106271
0.110511
0.11445
0.118354
0.122698
0.128336
0.136402
0.147982
0.163595
0.182322
0.201288
0.216008
0.218741
0.20075
0.0191376
0.0403316
0.0545108
0.0656203
0.0748635
0.0827447
0.0895725
0.0955612
0.100877
0.105669
0.110104
0.114401
0.118871
0.123995
0.130522
0.139407
0.151562
0.167452
0.186598
0.206726
0.223597
0.233021
0.231164
0.0191923
0.039751
0.053821
0.0647837
0.0738466
0.0815303
0.0881538
0.0939493
0.0991134
0.103839
0.108344
0.112907
0.117884
0.123729
0.131049
0.140596
0.153137
0.169242
0.18898
0.211249
0.23317
0.251122
0.263434
0.0192894
0.0390853
0.0529692
0.0637141
0.0725276
0.0799435
0.0862942
0.0918306
0.0967796
0.101376
0.105892
0.11067
0.116121
0.122684
0.130859
0.141263
0.154635
0.1718
0.193429
0.219387
0.248218
0.277026
0.302367
0.0195568
0.0385372
0.0522992
0.0628304
0.0713796
0.0785088
0.0845738
0.0898475
0.0945858
0.0990604
0.103587
0.108572
0.114497
0.121824
0.13105
0.142827
0.158018
0.17773
0.202919
0.233609
0.268253
0.303988
0.336475
0.0201647
0.0381674
0.0519843
0.0623601
0.0706733
0.0775437
0.0833659
0.0884403
0.0930494
0.0974958
0.102131
0.107401
0.113847
0.122006
0.132498
0.14621
0.16421
0.187378
0.215918
0.249357
0.286186
0.323829
0.359128
0.021427
0.0382294
0.0523492
0.0626276
0.0707434
0.0774046
0.0830512
0.0880149
0.0926015
0.0971436
0.102035
0.107727
0.114775
0.123831
0.1357
0.151442
0.171965
0.197555
0.227735
0.261744
0.298437
0.336156
0.372606
0.0238639
0.0393225
0.0539831
0.0640884
0.072016
0.0785008
0.0840293
0.0889695
0.0936381
0.0983972
0.103694
0.10993
0.117599
0.127555
0.140796
0.158116
0.179861
0.206192
0.23667
0.27035
0.306226
0.343236
0.379895
0.0268357
0.0422764
0.056817
0.0662366
0.0739194
0.0802666
0.0857432
0.09072
0.0955286
0.100603
0.106397
0.113373
0.121925
0.132788
0.147216
0.166257
0.188905
0.21567
0.24652
0.27981
0.314378
0.350184
0.387282
0.0290133
0.046971
0.0597435
0.0674074
0.0743544
0.0805077
0.0861008
0.0914168
0.0967803
0.102559
0.109167
0.117068
0.126624
0.138314
0.153305
0.17248
0.196965
0.22735
0.262087
0.297979
0.332794
0.367038
0.405028
0.030274
0.0498619
0.0602641
0.0678717
0.0745687
0.0806476
0.0863925
0.092106
0.0981083
0.104717
0.112261
0.121062
0.131392
0.143541
0.158164
0.17617
0.199175
0.227579
0.259302
0.292693
0.326413
0.361073
0.399365
0.0304202
0.0500774
0.0607462
0.0685185
0.0751632
0.0812316
0.0871062
0.0931172
0.0995824
0.106804
0.115035
0.124509
0.13543
0.147965
0.162315
0.178834
0.198275
0.220965
0.246667
0.275385
0.306709
0.339967
0.374535
0.0302506
0.0500414
0.0612377
0.0692033
0.0758534
0.0819276
0.0878856
0.0940844
0.100845
0.10845
0.117124
0.127021
0.138241
0.150847
0.164901
0.180555
0.198102
0.217609
0.239425
0.263815
0.290762
0.320146
0.351714
0.0302024
0.0504409
0.0618817
0.0699339
0.0765702
0.0826286
0.0886199
0.0949098
0.101817
0.109604
0.118462
0.128496
0.139746
0.152197
0.165808
0.180578
0.196607
0.213983
0.23291
0.253664
0.27639
0.301078
0.327452
0.0302876
0.0510908
0.0626491
0.0706956
0.0772928
0.0833172
0.089292
0.0955957
0.102532
0.110352
0.119211
0.129171
0.140241
0.152353
0.165406
0.179325
0.194096
0.209742
0.226372
0.244134
0.263122
0.283343
0.304655
0.0303976
0.0517475
0.0633863
0.0714157
0.0779729
0.083959
0.0899041
0.0961843
0.103088
0.110833
0.119555
0.129306
0.140079
0.151754
0.16419
0.177268
0.1909
0.20504
0.219692
0.234888
0.250639
0.266923
0.28367
0.0304496
0.0522857
0.0640084
0.0720397
0.07857
0.0845201
0.090425
0.0966565
0.10349
0.111122
0.119668
0.129159
0.139551
0.150723
0.162516
0.174764
0.187322
0.200073
0.212934
0.225847
0.238757
0.251601
0.264293
0.0304076
0.0526592
0.0644758
0.0725323
0.0790528
0.0849722
0.0908305
0.0969959
0.103734
0.111227
0.119573
0.128787
0.138801
0.14948
0.16064
0.172083
0.183612
0.195056
0.206266
0.217123
0.227522
0.237371
0.246572
0.0302665
0.0528612
0.0647742
0.0728725
0.0793965
0.0852896
0.0910954
0.0971807
0.103804
0.111139
0.119269
0.128197
0.13784
0.148042
0.158602
0.169288
0.179869
0.190129
0.199876
0.208952
0.217228
0.224601
0.230997
0.0300366
0.0529027
0.0649041
0.0730502
0.0795832
0.0854495
0.0911947
0.0971848
0.103675
0.110831
0.118732
0.127368
0.136645
0.146396
0.1564
0.166405
0.176152
0.185395
0.193918
0.201542
0.208131
0.213592
0.217887
0.0297342
0.0528025
0.0648758
0.0730649
0.0796037
0.085436
0.0911076
0.0969841
0.103319
0.110275
0.117928
0.126262
0.135179
0.144504
0.154003
0.163413
0.172458
0.180876
0.188437
0.194956
0.200301
0.204395
0.207235
0.0293768
0.0525844
0.0647071
0.0729261
0.0794593
0.0852438
0.0908237
0.0965637
0.102717
0.109447
0.116828
0.124846
0.133401
0.142318
0.151361
0.16026
0.168734
0.176514
0.183366
0.189105
0.193604
0.196803
0.198724
0.0289824
0.0522759
0.0644236
0.072654
0.0791639
0.0848817
0.0903474
0.0959247
0.101867
0.10834
0.115421
0.1231
0.131284
0.139802
0.148424
0.156881
0.164895
0.172198
0.178555
0.183784
0.187763
0.190442
0.191852
0.0285694
0.0519085
0.0640585
0.0722792
0.0787451
0.0843737
0.0897003
0.0950867
0.100788
0.10697
0.113718
0.121032
0.128825
0.13694
0.145158
0.153219
0.160853
0.167798
0.173822
0.178744
0.182446
0.184875
0.186063
0.0281574
0.051519
0.0636529
0.0718431
0.0782426
0.0837587
0.0889209
0.0940887
0.0995171
0.105377
0.111759
0.118674
0.126051
0.133747
0.141559
0.149244
0.156542
0.163202
0.168997
0.173747
0.177332
0.179693
0.18085
0.0277686
0.0511494
0.0632553
0.071396
0.0777075
0.0830882
0.0880623
0.0929862
0.0981146
0.103622
0.109607
0.116091
0.12302
0.13027
0.137659
0.144962
0.151936
0.158342
0.163959
0.168611
0.17217
0.174568
0.175808
0.0274293
0.0508488
0.062922
0.0709968
0.0771995
0.0824233
0.0871881
0.0918466
0.0966524
0.101782
0.107342
0.113366
0.119816
0.126589
0.133526
0.140423
0.147059
0.153206
0.158655
0.163229
0.166797
0.16928
0.170659
0.0271717
0.0506742
0.0627169
0.0707106
0.0767842
0.081831
0.0863678
0.0907439
0.0952105
0.0999453
0.10506
0.110599
0.116543
0.122808
0.129259
0.135717
0.14198
0.147839
0.153096
0.157577
0.161148
0.163717
0.165248
0.0270363
0.0506919
0.0627113
0.0706083
0.0765311
0.0813802
0.0856722
0.0897527
0.0938693
0.0981988
0.102856
0.107896
0.113314
0.119046
0.124981
0.130962
0.136811
0.142338
0.147358
0.151704
0.15524
0.157867
0.15953
0.0270743
0.0509784
0.0629838
0.0707643
0.0765105
0.081139
0.0851692
0.0889434
0.0927041
0.0966251
0.100823
0.105359
0.110241
0.115425
0.120819
0.126292
0.131687
0.136834
0.141563
0.145717
0.149164
0.151798
0.153551
0.0273497
0.0516215
0.0636193
0.071255
0.076791
0.081171
0.0849203
0.0883777
0.0917795
0.0952943
0.0990372
0.103074
0.107423
0.112055
0.116898
0.121842
0.126751
0.131474
0.135859
0.139761
0.143054
0.145634
0.147421
0.0279421
0.052721
0.0647072
0.0721556
0.0774368
0.0815327
0.0849774
0.0881059
0.0911468
0.0942612
0.0975604
0.101112
0.10494
0.10903
0.113324
0.117732
0.122137
0.126405
0.130402
0.133996
0.137072
0.139529
0.141287
0.0289521
0.05439
0.0663396
0.0735367
0.0785034
0.0822701
0.0853808
0.0881654
0.0908422
0.0935629
0.0964326
0.0995175
0.102847
0.106414
0.110175
0.114055
0.117954
0.121754
0.125333
0.128575
0.131377
0.133649
0.135313
0.0305124
0.0567604
0.0686084
0.0754592
0.0800331
0.0834155
0.0861574
0.0885796
0.0908872
0.0932203
0.0956754
0.0983152
0.101171
0.104241
0.107494
0.110868
0.114275
0.11761
0.120762
0.123626
0.126112
0.128146
0.129657
0.0328172
0.0599924
0.0716025
0.0779678
0.0820496
0.0849837
0.0873185
0.0893582
0.0912906
0.0932408
0.0952948
0.0975095
0.0999156
0.102517
0.105292
0.108187
0.111128
0.114019
0.116754
0.119236
0.121384
0.123142
0.124456
0.0361857
0.0642942
0.0754012
0.0810813
0.0845504
0.086968
0.0888589
0.0904988
0.0920513
0.0936229
0.0952868
0.0970926
0.0990693
0.101225
0.103544
0.105987
0.108489
0.110964
0.113311
0.115431
0.117247
0.118717
0.119814
0.0411924
0.0699424
0.080056
0.0847755
0.0874977
0.0893372
0.0907578
0.0919892
0.0931623
0.0943615
0.0956446
0.0970522
0.0986103
0.10033
0.102203
0.104205
0.106284
0.108367
0.110359
0.112158
0.113678
0.114884
0.115787
0.0489813
0.0772816
0.0855387
0.088954
0.0908081
0.092034
0.0929808
0.0938113
0.0946161
0.0954535
0.0963645
0.0973793
0.0985193
0.0997971
0.101214
0.102757
0.104397
0.106079
0.107728
0.109246
0.110535
0.111554
0.112357
0.0622379
0.0865879
0.0916089
0.0934045
0.094347
0.0949813
0.0954878
0.0959484
0.0964098
0.0969033
0.0974525
0.098076
0.098789
0.099603
0.100525
0.101554
0.102682
0.103887
0.105129
0.106346
0.107459
0.108414
0.109317
0.0886988
0.0970069
0.0975216
0.0977605
0.0979432
0.0981007
0.0982471
0.098394
0.098551
0.0987266
0.0989277
0.0991609
0.0994323
0.0997476
0.100112
0.100531
0.101007
0.101545
0.102147
0.10282
0.10357
0.104411
0.105673
0.106442
0.0996624
0.133314
0.177136
0.14349
0.131105
0.132096
0.143637
0.187676
0.178934
0.175272
0.179392
0.22843
0.227809
0.230903
0.239756
0.27035
0.276672
0.285193
0.297026
0.31785
0.329647
0.341808
0.355235
0.356968
0.372207
0.387147
0.402203
0.382628
0.399854
0.41656
0.432782
0.397622
0.415683
0.433148
0.449927
0.405684
0.424163
0.442133
0.45955
0.414963
0.434851
0.454028
0.472287
0.437016
0.460406
0.481582
0.499345
0.43037
0.451642
0.470048
0.485705
0.401134
0.420312
0.438758
0.455931
0.375218
0.391143
0.406402
0.42108
0.34727
0.360626
0.373665
0.38639
0.320769
0.331484
0.342078
0.352493
0.296256
0.304429
0.31251
0.320424
0.273608
0.279508
0.285265
0.290824
0.253042
0.257013
0.260768
0.264271
0.235169
0.2376
0.239768
0.241656
0.220343
0.221641
0.22266
0.2234
0.208513
0.209045
0.209303
0.209299
0.199267
0.199327
0.199124
0.19868
0.191993
0.191796
0.191345
0.190668
0.186035
0.18573
0.185175
0.184401
0.180807
0.180493
0.179928
0.179145
0.175847
0.175585
0.17507
0.174334
0.170831
0.170656
0.170227
0.169575
0.165572
0.165499
0.165175
0.164625
0.16
0.160031
0.159815
0.159374
0.154143
0.154266
0.15415
0.153813
0.148099
0.148294
0.148261
0.148016
0.142007
0.142248
0.142277
0.142104
0.136027
0.136285
0.136347
0.136221
0.130318
0.130561
0.130626
0.130516
0.125025
0.125227
0.125263
0.125136
0.120266
0.120404
0.120386
0.120212
0.116128
0.116196
0.116102
0.115854
0.112653
0.112674
0.112509
0.112176
0.109777
0.109862
0.109697
0.109313
0.107265
0.107648
0.107603
0.107277
0.235127
0.33366
0.304739
0.30821
0.337265
0.377921
0.421299
0.46252
0.498933
0.529263
0.553443
0.572825
0.58981
0.608142
0.629897
0.651176
0.656852
0.604726
0.352576
0.185115
0.242651
0.279832
0.318979
0.358065
0.397063
0.436557
0.475726
0.513598
0.549196
0.582095
0.612822
0.641675
0.670693
0.699098
0.722789
0.726796
0.665361
0.387608
0.205752
0.252624
0.303883
0.350065
0.388681
0.423769
0.458925
0.495417
0.533741
0.573748
0.615603
0.659765
0.701772
0.742571
0.774893
0.793187
0.786129
0.710189
0.411602
0.266864
0.307665
0.349002
0.386965
0.421011
0.452879
0.485122
0.520136
0.559627
0.604798
0.658506
0.726042
0.789034
0.843985
0.873072
0.87209
0.839586
0.741118
0.424479
0.323334
0.358182
0.39323
0.426
0.456134
0.485009
0.515247
0.549893
0.591709
0.643668
0.714087
0.831903
0.935802
0.989582
1.00605
0.967242
0.897458
0.768286
0.429156
0.38018
0.409413
0.438639
0.466569
0.492955
0.519297
0.548562
0.584182
0.630274
0.690194
0.779093
0.877902
0.968464
1.02746
1.0758
1.0663
0.969673
0.800313
0.430891
0.427434
0.45363
0.478987
0.503381
0.527409
0.553193
0.583371
0.62158
0.675141
0.735641
0.796443
0.849964
0.925125
0.996495
1.0537
1.12716
1.06708
0.833751
0.434059
0.458594
0.484516
0.508926
0.532751
0.557587
0.585854
0.618787
0.659784
0.709191
0.752892
0.792822
0.840726
0.900809
0.969477
1.03573
1.12494
1.10248
0.859637
0.440311
0.476527
0.504123
0.530464
0.556958
0.585864
0.619144
0.655131
0.695062
0.726336
0.757048
0.790019
0.826525
0.873578
0.935451
1.0042
1.07349
1.08139
0.890324
0.445986
0.487689
0.519392
0.550872
0.581761
0.616955
0.651753
0.688148
0.717104
0.738768
0.757157
0.775945
0.79898
0.835087
0.889773
0.957858
1.01695
1.03583
0.894579
0.446443
0.501752
0.538624
0.579779
0.608038
0.642332
0.676782
0.705507
0.725355
0.736437
0.742729
0.747848
0.759018
0.78615
0.83554
0.903271
0.966636
0.986313
0.859426
0.439457
0.525271
0.556171
0.587567
0.616109
0.650223
0.681258
0.703142
0.714155
0.716009
0.711902
0.705569
0.706996
0.727266
0.77399
0.844544
0.917733
0.9423
0.822974
0.429874
0.510398
0.543637
0.578231
0.60924
0.638541
0.663074
0.678091
0.682343
0.676786
0.663714
0.648935
0.643428
0.658898
0.7045
0.779005
0.860995
0.89895
0.792042
0.421462
0.483266
0.51752
0.550729
0.579746
0.604669
0.623695
0.633371
0.632004
0.620123
0.599955
0.580366
0.571204
0.583778
0.627749
0.70415
0.792436
0.845102
0.764249
0.417136
0.445502
0.47771
0.508362
0.534592
0.555531
0.569469
0.573735
0.566859
0.549125
0.526057
0.505645
0.495784
0.506232
0.546525
0.619974
0.710738
0.772724
0.735693
0.417735
0.407408
0.434864
0.460546
0.482036
0.497684
0.505748
0.504208
0.492476
0.4724
0.450574
0.431752
0.422239
0.43023
0.4645
0.529188
0.616664
0.676346
0.715115
0.424687
0.369573
0.391458
0.410993
0.42637
0.435784
0.437867
0.431704
0.417528
0.399611
0.38078
0.364451
0.355419
0.360291
0.386683
0.439137
0.511464
0.568866
0.589224
0.385259
0.333241
0.349087
0.362114
0.371077
0.374826
0.372583
0.364113
0.351518
0.336804
0.321472
0.307758
0.299021
0.300239
0.317779
0.356545
0.413197
0.465549
0.473096
0.337556
0.299409
0.309372
0.316642
0.320479
0.320291
0.315835
0.307871
0.297951
0.286582
0.2746
0.263288
0.254716
0.252263
0.260814
0.285324
0.325951
0.369819
0.387466
0.290459
0.269337
0.274539
0.277499
0.277907
0.275613
0.270772
0.264573
0.257141
0.248688
0.23956
0.230317
0.221997
0.216554
0.217266
0.228309
0.251929
0.282048
0.299123
0.243005
0.244115
0.245964
0.246144
0.244641
0.241535
0.237508
0.232777
0.227304
0.221096
0.214176
0.206629
0.198772
0.191465
0.186531
0.186878
0.195281
0.210325
0.221569
0.196192
0.224114
0.223869
0.222483
0.220121
0.217042
0.213697
0.209998
0.205866
0.201195
0.195828
0.18958
0.182336
0.174244
0.166027
0.15928
0.156234
0.15784
0.160568
0.151191
0.208943
0.207515
0.20534
0.202626
0.19977
0.196818
0.193713
0.190362
0.186605
0.182203
0.176846
0.170206
0.162038
0.15237
0.141773
0.131519
0.123083
0.11682
0.110964
0.197718
0.195677
0.193138
0.190333
0.187529
0.184714
0.181848
0.178834
0.1755
0.171582
0.166734
0.160544
0.152594
0.142557
0.130367
0.116445
0.101827
0.088101
0.0788301
0.189398
0.187064
0.184344
0.181488
0.178619
0.175756
0.172873
0.169882
0.166617
0.162823
0.158158
0.152202
0.144487
0.134546
0.122002
0.106741
0.0891678
0.0706641
0.0563673
0.183008
0.180563
0.177761
0.174818
0.171813
0.168784
0.165723
0.162556
0.159132
0.155218
0.150497
0.144575
0.136996
0.127266
0.114901
0.0995343
0.0811281
0.060469
0.0425371
0.177742
0.175291
0.172461
0.169422
0.166251
0.163003
0.159682
0.156231
0.152523
0.148351
0.143431
0.137409
0.129865
0.120334
0.108327
0.0933987
0.0752945
0.054316
0.0347218
0.172995
0.170601
0.167786
0.164673
0.161347
0.157874
0.154273
0.150508
0.146473
0.141992
0.136819
0.13064
0.123085
0.113735
0.102143
0.0878699
0.070583
0.0502736
0.0303643
0.168348
0.166063
0.163303
0.160154
0.15671
0.153044
0.149191
0.145134
0.140792
0.13602
0.130607
0.124286
0.116734
0.107587
0.0964504
0.0829218
0.0666474
0.0474115
0.0277801
0.163541
0.16141
0.15874
0.155605
0.152095
0.148293
0.144248
0.139959
0.135372
0.130372
0.124785
0.118385
0.110897
0.102007
0.0913725
0.0786283
0.0634085
0.0453247
0.0260933
0.158446
0.156497
0.153955
0.150882
0.147369
0.143501
0.13934
0.134904
0.13016
0.125023
0.119353
0.112963
0.105621
0.0970572
0.0869695
0.0750194
0.0608181
0.0438115
0.0248991
0.153039
0.151287
0.148901
0.145935
0.142478
0.138619
0.134427
0.129936
0.125134
0.119961
0.114309
0.108025
0.100912
0.0927378
0.0832281
0.072056
0.0587967
0.0427353
0.0240105
0.147379
0.145823
0.143606
0.140781
0.137432
0.133651
0.129511
0.125057
0.120295
0.115186
0.109648
0.103556
0.0967443
0.0890058
0.080085
0.0696538
0.0572432
0.0419883
0.0233323
0.141584
0.140197
0.138146
0.13548
0.132281
0.128636
0.124621
0.120288
0.115654
0.110697
0.105356
0.0995286
0.0930713
0.0857956
0.0774556
0.0677147
0.0560581
0.0414861
0.0228099
0.135784
0.134526
0.132622
0.13012
0.127097
0.123634
0.119806
0.115664
0.111232
0.1065
0.101422
0.0959112
0.0898415
0.0830367
0.0752549
0.0661477
0.0551573
0.0411657
0.0224081
0.130118
0.128937
0.127148
0.1248
0.121964
0.118715
0.115119
0.111223
0.107051
0.1026
0.0978314
0.0926716
0.0870052
0.0806646
0.073409
0.0648777
0.0544752
0.0409814
0.0221024
0.124725
0.123557
0.121836
0.119619
0.116971
0.113953
0.110619
0.107007
0.103136
0.0990029
0.0945736
0.0897818
0.0845197
0.078625
0.0718574
0.0638457
0.0539626
0.0408993
0.0218746
0.11973
0.118504
0.1168
0.114685
0.112213
0.109431
0.106374
0.103066
0.0995174
0.0957209
0.0916432
0.0872211
0.0823512
0.0768753
0.070553
0.0630058
0.0535807
0.0408919
0.0217094
0.115253
0.113905
0.112171
0.110125
0.107811
0.105255
0.10247
0.0994666
0.0962422
0.0927817
0.0890497
0.0849833
0.0804812
0.0753876
0.0694629
0.0623237
0.0532978
0.0409339
0.0215925
0.111426
0.109916
0.108119
0.106116
0.103935
0.101579
0.099044
0.0963206
0.0933961
0.090247
0.0868334
0.0830904
0.0789168
0.0741578
0.0685742
0.06178
0.0530896
0.0409987
0.0215081
0.108436
0.106764
0.104903
0.102929
0.100851
0.098653
0.0963147
0.0938158
0.0911334
0.0882373
0.0850831
0.0816032
0.0776951
0.0732036
0.0678892
0.0613641
0.0529331
0.0410504
0.0214343
0.106444
0.104778
0.102931
0.100999
0.0989886
0.0968822
0.0946545
0.0922805
0.0897336
0.0869804
0.083974
0.0806455
0.0768914
0.0725562
0.0674
0.0610345
0.0527596
0.0410062
0.0213184
)
;

boundaryField
{
    leftWall
    {
        type            kqRWallFunction;
        value           nonuniform List<scalar> 
50
(
0.00369258
0.00797517
0.010494
0.0121203
0.0132699
0.0141633
0.0149531
0.0157471
0.0166517
0.018079
0.0188981
0.0191376
0.0191923
0.0192894
0.0195568
0.0201647
0.021427
0.0238639
0.0268357
0.0290133
0.030274
0.0304202
0.0302506
0.0302024
0.0302876
0.0303976
0.0304496
0.0304076
0.0302665
0.0300366
0.0297342
0.0293768
0.0289824
0.0285694
0.0281574
0.0277686
0.0274293
0.0271717
0.0270363
0.0270743
0.0273497
0.0279421
0.0289521
0.0305124
0.0328172
0.0361857
0.0411924
0.0489813
0.0622379
0.0886988
)
;
    }
    rightWall
    {
        type            kqRWallFunction;
        value           nonuniform List<scalar> 
50
(
0.044859
0.109974
0.154279
0.191537
0.224006
0.25341
0.280835
0.307266
0.352576
0.387608
0.411602
0.424479
0.429156
0.430891
0.434059
0.440311
0.445986
0.446443
0.439457
0.429874
0.421462
0.417136
0.417735
0.424687
0.385259
0.337556
0.290459
0.243005
0.196192
0.151191
0.110964
0.0788301
0.0563673
0.0425371
0.0347218
0.0303643
0.0277801
0.0260933
0.0248991
0.0240105
0.0233323
0.0228099
0.0224081
0.0221024
0.0218746
0.0217094
0.0215925
0.0215081
0.0214343
0.0213184
)
;
    }
    lowerWall
    {
        type            kqRWallFunction;
        value           nonuniform List<scalar> 
62
(
0.00369258
0.00878271
0.0130776
0.0164968
0.0194875
0.0221581
0.024566
0.0267447
0.0287158
0.0304907
0.0320688
0.0334344
0.0345533
0.035375
0.0358342
0.0358804
0.0354885
0.034899
0.0342133
0.0331344
0.0312065
0.0270137
0.0175393
0.0175393
0.0332293
0.0446232
0.0541794
0.062376
0.0696737
0.0768082
0.0862467
0.106442
0.0996624
0.133314
0.177136
0.0895944
0.140179
0.168963
0.179344
0.174284
0.178146
0.181785
0.184993
0.0895944
0.124602
0.151076
0.175852
0.191779
0.193107
0.18786
0.178629
0.174144
0.170175
0.165099
0.158282
0.149463
0.138647
0.129031
0.118371
0.105286
0.084605
0.044859
)
;
    }
    atmosphere
    {
        type            inletOutlet;
        inletValue      uniform 0.1;
        value           nonuniform List<scalar> 
46
(
0.1
0.1
0.1
0.1
0.1
0.1
0.1
0.1
0.1
0.1
0.1
0.1
0.1
0.1
0.1
0.1
0.1
0.1
0.1
0.1
0.1
0.1
0.1
0.107265
0.107648
0.107603
0.107277
0.106444
0.104778
0.102931
0.100999
0.0989886
0.0968822
0.0946545
0.0922805
0.0897336
0.0869804
0.083974
0.0806455
0.0768914
0.0725562
0.0674
0.0610345
0.0527596
0.0410062
0.0213184
)
;
    }
    defaultFaces
    {
        type            empty;
    }
}


// ************************************************************************* //
