/*--------------------------------*- C++ -*----------------------------------*\
  =========                 |
  \\      /  F ield         | OpenFOAM: The Open Source CFD Toolbox
   \\    /   O peration     | Website:  https://openfoam.org
    \\  /    A nd           | Version:  13
     \\/     M anipulation  |
\*---------------------------------------------------------------------------*/
FoamFile
{
    format      ascii;
    class       volScalarField;
    location    "0.3";
    object      nut;
}
// * * * * * * * * * * * * * * * * * * * * * * * * * * * * * * * * * * * * * //

dimensions      [0 2 -1 0 0 0 0];

internalField   nonuniform List<scalar> 
2268
(
4.04855e-05
6.26248e-05
7.65499e-05
8.60343e-05
9.35456e-05
9.97697e-05
0.000105054
0.0001096
0.00011354
0.000116956
0.000119892
0.000122353
0.000124308
0.000125703
0.00012645
0.000126462
0.000125673
0.000124552
0.000123208
0.000121136
0.000117428
0.000109067
8.75286e-05
0.000125693
0.000414456
0.000594171
0.000726809
0.000829816
0.000911636
0.00097708
0.0010293
0.00107054
0.0011023
0.00112538
0.00114003
0.00114626
0.00114418
0.00113376
0.00111528
0.00108928
0.00105046
0.000988796
0.000898314
0.000771655
0.000591677
0.000255893
0.000144422
0.000608969
0.000977957
0.00127615
0.00152281
0.00172795
0.00189796
0.00203756
0.00215047
0.00223934
0.00230574
0.00235035
0.00237361
0.00237643
0.00235955
0.00232428
0.0022714
0.00219271
0.00206396
0.00185563
0.00154442
0.00110689
0.000296647
0.000155331
0.00070924
0.00121722
0.0016556
0.00203443
0.00236024
0.00263793
0.00287171
0.00306522
0.00322123
0.00334152
0.0034271
0.00347907
0.00349948
0.00349014
0.00345308
0.00338715
0.00327693
0.00308142
0.00275089
0.00225399
0.00155173
0.000326832
0.00016261
0.000768107
0.00137597
0.00192567
0.00241594
0.00284805
0.00322414
0.00354687
0.00381894
0.00404263
0.00421958
0.0043511
0.00443903
0.00448649
0.0044959
0.00446852
0.004398
0.00425622
0.0039881
0.00353603
0.00286828
0.00191782
0.000350586
0.0001681
0.000809368
0.00149314
0.00213033
0.00271139
0.003233
0.00369442
0.00409638
0.00444029
0.00472767
0.00495994
0.0051387
0.0052665
0.00534707
0.00538238
0.00537058
0.00529742
0.00511759
0.00477154
0.00420532
0.00338914
0.00221838
0.00037041
0.00017288
0.000845416
0.00159201
0.00229822
0.00295156
0.00354606
0.00407879
0.00454866
0.0049557
0.00530065
0.00558467
0.00580966
0.00597878
0.0060957
0.0061605
0.00616553
0.00608578
0.00586156
0.00543774
0.00477243
0.00383576
0.00248071
0.000388778
0.000177605
0.00088497
0.0016867
0.00244735
0.0031569
0.00380899
0.00439942
0.00492562
0.00538644
0.00578186
0.00611285
0.00638159
0.00659175
0.00674622
0.00684178
0.00686209
0.00677025
0.00649963
0.00600645
0.00526423
0.0042424
0.00275412
0.000411831
0.000198249
0.000234085
0.000257953
0.000277896
0.00028965
0.000292074
0.000290013
0.000284787
0.000281877
0.000278817
0.000274405
0.000268166
0.000259896
0.000249654
0.000240203
0.000229343
0.000215226
0.000191571
0.000137334
0.000581213
0.00103544
0.0014419
0.00172508
0.00194887
0.00215141
0.00232644
0.00246193
0.00251237
0.00251666
0.00247992
0.00240807
0.00230843
0.00218688
0.00199153
0.00175086
0.00147843
0.00115707
0.000512728
0.000636429
0.00165061
0.00217399
0.002545
0.0029916
0.00351845
0.00401359
0.00440741
0.00465245
0.00478122
0.00480549
0.00473732
0.00459082
0.00437428
0.00403015
0.00355523
0.00294546
0.00216333
0.000607872
0.000663196
0.00198656
0.00247164
0.00283549
0.00349568
0.00437241
0.00520388
0.00585826
0.0063197
0.00660145
0.00672074
0.00669648
0.00654819
0.00628403
0.00584672
0.00519763
0.00429821
0.00304573
0.000677321
0.000647784
0.00206493
0.00251896
0.0028613
0.00373296
0.00494829
0.00608666
0.00700346
0.00766777
0.00809307
0.00830469
0.00832985
0.00819353
0.00790361
0.00740134
0.00662121
0.00548466
0.00379326
0.000732141
0.000641728
0.00211723
0.002434
0.00280332
0.00385684
0.005363
0.00680563
0.00796297
0.0088021
0.00934754
0.00963522
0.00970114
0.00957538
0.00926605
0.00871319
0.00783138
0.00650065
0.00441668
0.000778229
0.000648806
0.00208016
0.00230779
0.00274026
0.00397915
0.00574995
0.00745182
0.00880619
0.00978252
0.010419
0.0107622
0.0108558
0.0107337
0.0104048
0.0098098
0.0088473
0.00735714
0.00493316
0.000818712
0.000659001
0.00182227
0.00215091
0.00275772
0.00421062
0.00619691
0.00808264
0.00957343
0.0106433
0.0113401
0.0117182
0.0118262
0.0116996
0.0113485
0.0107179
0.00969064
0.00806981
0.0053588
0.000855786
0.000182828
0.000950083
0.00181832
0.00264139
0.00341464
0.00413315
0.00479217
0.00538776
0.00591736
0.00638014
0.00677714
0.00711133
0.00738719
0.00760666
0.00776049
0.00781478
0.00770699
0.00736553
0.00677965
0.00596275
0.0048823
0.00337557
0.00106261
0.000190583
0.00108456
0.00202261
0.00289691
0.00371669
0.00448264
0.00519209
0.00584143
0.0064282
0.00695217
0.00741556
0.0078225
0.00817658
0.00847684
0.00870418
0.00880221
0.00868235
0.00828388
0.0076177
0.00675833
0.00569923
0.00428529
0.00228506
0.000194675
0.00119356
0.00218059
0.003091
0.00394316
0.00474085
0.0054831
0.00616782
0.0067941
0.00736342
0.00787974
0.00834844
0.00877275
0.00914738
0.00944372
0.00959287
0.00949553
0.0090953
0.00841508
0.00753485
0.0065154
0.00530683
0.00376321
0.000195769
0.0012084
0.00223611
0.0031862
0.00407426
0.00490501
0.00567877
0.0063952
0.00705535
0.00766277
0.00822342
0.00874415
0.00922832
0.00966743
0.010027
0.0102342
0.0101903
0.00983081
0.0091914
0.00836071
0.0074185
0.00640093
0.00532822
0.000196019
0.00118037
0.00222867
0.00321222
0.00413515
0.00499902
0.00580379
0.00655015
0.00724096
0.00788175
0.00848034
0.00904489
0.00957868
0.0100708
0.0104847
0.0107504
0.0107787
0.0105047
0.00996357
0.00925173
0.00847327
0.00770064
0.00702198
0.000196562
0.00113776
0.0021891
0.0031979
0.00415321
0.00505015
0.00588645
0.00666277
0.00738305
0.00805415
0.00868493
0.00928408
0.0098546
0.0103846
0.0108392
0.011159
0.0112722
0.0111291
0.0107532
0.0102394
0.00970054
0.00922995
0.00891019
0.000198128
0.00108682
0.00213612
0.00316863
0.00415668
0.00508769
0.00595645
0.006763
0.00751159
0.0082095
0.00886538
0.00948738
0.0100782
0.0106272
0.0111068
0.0114751
0.0116864
0.0117148
0.011573
0.0113342
0.0110823
0.0108995
0.0108535
0.000201704
0.00102582
0.00208143
0.00314569
0.00417157
0.00513923
0.00604127
0.00687729
0.00765156
0.00837092
0.0090428
0.00967374
0.0102666
0.0108151
0.0113048
0.0117188
0.012043
0.0122688
0.0123942
0.0124423
0.0124663
0.0125277
0.0126894
0.000208972
0.000957955
0.00204384
0.00315619
0.00422833
0.00523553
0.00617005
0.00703204
0.00782587
0.00855785
0.00923432
0.00985956
0.0104373
0.0109698
0.01146
0.011916
0.0123456
0.0127459
0.0131004
0.0133976
0.0136553
0.0139245
0.0142538
0.000222455
0.000896333
0.00205611
0.00323475
0.0043598
0.00540637
0.00636932
0.00725074
0.00805512
0.00878876
0.00945749
0.0100631
0.0106112
0.0111184
0.0116041
0.0120876
0.0125839
0.0130933
0.0135993
0.0140768
0.0145191
0.0149452
0.0153861
0.000234647
0.000942406
0.0021548
0.00339158
0.00456651
0.00564743
0.00663203
0.00752346
0.00832694
0.00905025
0.00969813
0.0102765
0.0107944
0.0112744
0.0117501
0.0122525
0.0127758
0.0133294
0.0139149
0.0144898
0.015024
0.0155214
0.0160077
0.000243011
0.00120912
0.00241225
0.00363743
0.00482969
0.0059291
0.0069253
0.00781904
0.00861482
0.00931839
0.00993672
0.0104814
0.0109693
0.0114251
0.0118833
0.0123657
0.0128991
0.0135
0.014147
0.0147768
0.0153451
0.0158417
0.0163271
0.000247124
0.00138215
0.00265105
0.00391591
0.00512653
0.00623571
0.00723309
0.00812046
0.0089023
0.0095835
0.0101725
0.0106847
0.0111438
0.0115744
0.0120012
0.0124489
0.0129494
0.0135141
0.0140975
0.0146601
0.0151778
0.0156621
0.0161539
0.000247024
0.00147569
0.00287225
0.00419809
0.0054289
0.00654141
0.00753164
0.00840309
0.0091618
0.00981559
0.0103759
0.0108618
0.0112979
0.011708
0.0121109
0.0125217
0.0129568
0.0134177
0.0138868
0.0143578
0.0148305
0.0153089
0.0157862
0.000246388
0.00154947
0.00306564
0.00445288
0.00570354
0.00681618
0.00779501
0.0086463
0.00937904
0.0100048
0.010539
0.011002
0.0114174
0.0118057
0.0121824
0.0125591
0.0129442
0.0133344
0.0137294
0.0141321
0.0145448
0.0149673
0.0153865
0.00024643
0.00162093
0.00322339
0.00466382
0.00593275
0.00704424
0.00801109
0.00884203
0.00954986
0.0101496
0.0106597
0.0111015
0.0114969
0.0118639
0.0122149
0.012558
0.0128981
0.0132355
0.0135714
0.0139098
0.0142525
0.014596
0.0149263
0.000246946
0.00168305
0.00335284
0.00483195
0.00611539
0.00722513
0.00817897
0.00899122
0.00967714
0.0102548
0.0107439
0.0111666
0.0115436
0.0118907
0.0122187
0.0125336
0.0128383
0.0131338
0.0134213
0.0137028
0.0139782
0.0142432
0.0144874
0.000247464
0.00173262
0.00345246
0.00496079
0.00625581
0.0073643
0.00830785
0.00910412
0.00977099
0.0103288
0.0107997
0.0112063
0.0115679
0.0118987
0.0122083
0.0125015
0.01278
0.013044
0.0132934
0.0135283
0.0137468
0.0139447
0.0141137
0.000247687
0.00177076
0.00352671
0.00505629
0.00635996
0.00746752
0.00840313
0.00918688
0.00983877
0.0103809
0.010837
0.0112299
0.0115789
0.0118974
0.0121938
0.0124718
0.0127321
0.0129736
0.013195
0.0133943
0.0135691
0.013715
0.0138256
0.000247506
0.00179935
0.00358032
0.00512423
0.00643361
0.0075402
0.00846992
0.00924454
0.00988568
0.0104168
0.0108623
0.0112454
0.0115852
0.011895
0.0121824
0.0124504
0.0126987
0.0129255
0.0131282
0.0133038
0.0134492
0.0135601
0.013631
0.000246919
0.00182002
0.003617
0.00516928
0.00648151
0.00758677
0.00851214
0.00928058
0.00991481
0.0104391
0.0108783
0.0112557
0.0115903
0.0118952
0.0121776
0.01244
0.0126818
0.0129003
0.0130923
0.0132544
0.0133829
0.0134737
0.0135219
0.000245972
0.00183396
0.00363942
0.00519494
0.00650732
0.00761058
0.00853257
0.00929705
0.00992745
0.0104484
0.010885
0.0112603
0.0115931
0.0118963
0.012177
0.0124375
0.0126766
0.0128917
0.0130791
0.0132353
0.0133566
0.013439
0.013478
0.000244728
0.0018421
0.00364961
0.00520394
0.00651391
0.00761417
0.0085331
0.009295
0.00992371
0.0104439
0.0108806
0.0112565
0.01159
0.011894
0.0121753
0.0124362
0.0126754
0.0128903
0.0130771
0.0132323
0.0133524
0.0134338
0.0134725
0.000243256
0.00184524
0.00364931
0.00519859
0.00650375
0.00759975
0.00851528
0.00927507
0.00990318
0.0104242
0.0108627
0.0112408
0.0115768
0.0118829
0.0121662
0.0124288
0.0126696
0.0128859
0.0130741
0.0132309
0.0133529
0.0134369
0.0134795
0.000241624
0.0018442
0.00364022
0.0051812
0.00647933
0.00756956
0.00848076
0.00923802
0.00986558
0.0103879
0.0108288
0.01121
0.011549
0.011858
0.0121437
0.0124085
0.0126515
0.0128699
0.0130603
0.0132195
0.0133443
0.0134319
0.0134795
0.000239909
0.00183983
0.00362415
0.00515424
0.00644339
0.00752623
0.00843166
0.00918515
0.00981122
0.0103341
0.0107772
0.0111613
0.0115033
0.011815
0.0121032
0.0123701
0.0126151
0.0128356
0.0130282
0.0131898
0.0133174
0.0134085
0.0134604
0.000238192
0.00183307
0.00360309
0.00512046
0.00639912
0.00747295
0.0083708
0.00911861
0.00974132
0.0102632
0.0107071
0.0110931
0.0114374
0.0117513
0.0120413
0.0123099
0.0125565
0.0127786
0.0129731
0.0131368
0.0132668
0.0133606
0.0134161
0.000236571
0.00182494
0.00357917
0.00508294
0.00635013
0.00741351
0.00830177
0.00904143
0.00965813
0.0101765
0.010619
0.0110052
0.0113504
0.0116653
0.0119563
0.0122257
0.0124732
0.0126963
0.0128922
0.0130575
0.0131896
0.0132857
0.013344
0.000235162
0.00181644
0.00355462
0.00504499
0.00630047
0.00735226
0.00822885
0.00895751
0.00956493
0.0100764
0.0105145
0.0108983
0.0112423
0.0115568
0.0118475
0.0121168
0.0123643
0.0125878
0.0127845
0.012951
0.0130847
0.0131829
0.0132436
0.000234111
0.00180856
0.00353174
0.00501012
0.00625452
0.00729402
0.00815688
0.00887144
0.00946581
0.00996638
0.0103963
0.0107743
0.0111145
0.0114264
0.0117154
0.0119834
0.01223
0.0124532
0.0126499
0.0128173
0.0129522
0.0130523
0.0131152
0.000233597
0.00180219
0.00351283
0.0049821
0.006217
0.00724394
0.00809108
0.00878823
0.00936541
0.00985062
0.0102679
0.0106362
0.0109692
0.0112759
0.0115611
0.0118264
0.0120711
0.012293
0.0124894
0.012657
0.012793
0.0128947
0.0129598
0.000233843
0.00179816
0.00350033
0.004965
0.00619301
0.00720747
0.00803682
0.00871302
0.0092686
0.00973363
0.0101334
0.0104875
0.0108094
0.0111077
0.0113866
0.0116474
0.0118888
0.0121087
0.012304
0.0124715
0.0126083
0.0127116
0.012779
0.000235115
0.00179737
0.00349714
0.00496359
0.00618823
0.00719036
0.00799951
0.00865078
0.00918003
0.00961987
0.00999717
0.0103321
0.0106386
0.0109247
0.0111944
0.0114483
0.011685
0.0119017
0.0120953
0.0122624
0.0123998
0.0125046
0.0125745
0.000237725
0.00180105
0.0035072
0.00498392
0.00620934
0.00719882
0.00798443
0.00860604
0.00910382
0.00951333
0.00986314
0.0101742
0.0104606
0.0107305
0.0109874
0.0112316
0.0114614
0.0116737
0.0118648
0.0120311
0.0121691
0.0122759
0.0123486
0.000242039
0.00181132
0.00353641
0.00503419
0.00626458
0.00723965
0.00799671
0.00858265
0.00904316
0.00941712
0.00973468
0.0100174
0.0102794
0.0105288
0.0107691
0.0110004
0.0112206
0.0114265
0.011614
0.0117791
0.0119179
0.0120272
0.0121038
0.000248501
0.00183183
0.00359394
0.00512603
0.00636436
0.00732035
0.00804102
0.00858341
0.00900003
0.00933316
0.0096141
0.00986451
0.0100983
0.0103233
0.0105431
0.0107576
0.0109651
0.011162
0.0113441
0.0115073
0.0116473
0.0117602
0.0118423
0.000257709
0.00186869
0.00369428
0.00527622
0.00652194
0.00744888
0.0081211
0.00860969
0.00897494
0.00926202
0.0095025
0.00971737
0.00991973
0.010117
0.0103125
0.0105066
0.0106974
0.0108819
0.0110562
0.011216
0.0113572
0.0114754
0.0115661
0.000270593
0.0019324
0.00386104
0.00550944
0.00675381
0.00763272
0.00823867
0.00866072
0.00896662
0.00920287
0.00939983
0.00957674
0.00974528
0.00991203
0.01008
0.0102496
0.0104195
0.0105874
0.0107501
0.010904
0.0110455
0.0111709
0.0112749
0.000288708
0.00204268
0.00413577
0.00586267
0.00707903
0.00787665
0.00839171
0.00873271
0.00897177
0.00915354
0.00930505
0.00944251
0.00957551
0.00970939
0.00984667
0.00998793
0.0101324
0.0102784
0.0104241
0.0105674
0.0107067
0.0108404
0.0109651
0.000314896
0.00224382
0.00460015
0.00639188
0.00751551
0.00817805
0.00857182
0.008818
0.0089851
0.00911091
0.00921655
0.00931404
0.00941032
0.00950925
0.00961276
0.00972142
0.00983495
0.00995262
0.0100738
0.0101986
0.0103289
0.0104693
0.0106244
0.000355173
0.00266559
0.00543865
0.00717609
0.00806694
0.00851866
0.00876164
0.00890498
0.00899993
0.00907155
0.00913281
0.00919079
0.00924954
0.00931136
0.00937748
0.00944842
0.00952426
0.00960496
0.00969094
0.00978425
0.00989092
0.0100259
0.0102195
0.00042449
0.00394667
0.00712903
0.00828306
0.00868811
0.00885424
0.00893456
0.00897991
0.00900982
0.00903282
0.00905312
0.00907294
0.00909358
0.00911583
0.00914014
0.00916679
0.00919594
0.00922781
0.00926303
0.0093036
0.00935585
0.00944133
0.00964215
0.000458994
0.000439941
0.000501543
0.000578302
0.00138786
0.00106073
0.000901763
0.000865662
0.00292088
0.00243912
0.00212186
0.0019914
0.00476249
0.00440741
0.00419055
0.00416667
0.0067427
0.00659782
0.00657193
0.00669449
0.00886609
0.00888344
0.00898663
0.00919222
0.0109704
0.0110918
0.011275
0.0115276
0.0129209
0.0131076
0.013334
0.0136014
0.0145636
0.0147855
0.0150225
0.0152669
0.0157235
0.0159431
0.0161601
0.0163721
0.016351
0.0165633
0.0167652
0.0169562
0.0166765
0.0168899
0.0170877
0.0172642
0.0165064
0.0167251
0.0169251
0.0170967
0.0161153
0.0163162
0.0164984
0.0166568
0.0156568
0.0158136
0.0159529
0.0160739
0.0151337
0.0152537
0.0153596
0.0154498
0.0146326
0.0147159
0.0147874
0.0148457
0.0142023
0.0142513
0.014289
0.0143143
0.0138683
0.0138876
0.0138948
0.0138889
0.0136419
0.0136392
0.0136239
0.0135947
0.0135153
0.0134999
0.0134714
0.0134283
0.0134658
0.013446
0.0134126
0.0133644
0.0134625
0.0134437
0.0134114
0.0133641
0.0134752
0.0134601
0.0134317
0.0133888
0.0134812
0.0134703
0.0134466
0.013409
0.0134671
0.0134598
0.0134402
0.0134075
0.0134264
0.0134219
0.0134056
0.0133768
0.0133569
0.0133544
0.0133405
0.0133148
0.0132585
0.0132575
0.0132455
0.0132222
0.0131318
0.0131322
0.0131219
0.0131005
0.0129783
0.01298
0.0129712
0.0129517
0.0127993
0.0128025
0.0127955
0.0127779
0.0125971
0.012602
0.0125969
0.0125814
0.0123741
0.012381
0.0123781
0.012365
0.0121331
0.0121426
0.0121423
0.0121321
0.011877
0.01189
0.0118934
0.0118867
0.0116089
0.0116272
0.0116357
0.011634
0.011331
0.0113577
0.0113741
0.0113797
0.0110433
0.0110841
0.0111135
0.0111306
0.0107431
0.0108091
0.0108606
0.0108961
0.0104253
0.0105399
0.0106294
0.010693
0.0101059
0.0103141
0.010458
0.0105547
0.000942345
0.00169428
0.00204543
0.00296253
0.00473489
0.00693207
0.00895914
0.0105592
0.0117121
0.0124697
0.0128917
0.0130301
0.0129184
0.0125583
0.0118813
0.0107723
0.0089847
0.00589642
0.000915454
0.00111557
0.00176288
0.00282598
0.00439597
0.00640612
0.00849405
0.0103577
0.0118467
0.0129347
0.0136544
0.0140545
0.0141749
0.0140313
0.0136057
0.0128332
0.0116178
0.00967119
0.00627359
0.000959478
0.00222269
0.00325438
0.00476505
0.00654436
0.00841317
0.0102102
0.0117933
0.0130626
0.0139908
0.0146016
0.0149334
0.0150078
0.0148058
0.0142887
0.0134085
0.012095
0.0100384
0.00645928
0.000989076
0.00454573
0.00567398
0.00709975
0.00869404
0.0103213
0.011841
0.0131463
0.0141704
0.014904
0.0153806
0.0156402
0.0157019
0.0154591
0.0148508
0.0138279
0.0123696
0.0101903
0.00649511
0.00100513
0.00718432
0.00819926
0.00944344
0.0108011
0.0121509
0.0133797
0.0143975
0.0151641
0.0156967
0.0160482
0.01627
0.0164754
0.016252
0.015522
0.0143144
0.0126241
0.0102763
0.00647256
0.00101079
0.00972295
0.0106244
0.0116819
0.0127974
0.0138659
0.0147919
0.0155151
0.0160294
0.0163844
0.0166438
0.0168894
0.0169441
0.0166443
0.0158673
0.0147014
0.0129774
0.0104509
0.00648638
0.00101139
0.0120708
0.0128563
0.0137238
0.0145909
0.0153719
0.0159988
0.0164449
0.0167401
0.0169741
0.0171157
0.0171447
0.0169372
0.016533
0.0157869
0.0146463
0.0132025
0.0107796
0.00655991
0.00101243
0.0140998
0.0147609
0.0154336
0.0160549
0.0165655
0.0169293
0.017148
0.01727
0.017337
0.0172731
0.0170873
0.0167896
0.0163193
0.0155816
0.0144987
0.0131234
0.0108047
0.00664232
0.00101868
0.0156843
0.0162103
0.0166989
0.0171059
0.0174015
0.0175753
0.0176341
0.0176044
0.0174345
0.0171848
0.0168664
0.0164587
0.0159268
0.0151927
0.014168
0.0127698
0.0106266
0.00682529
0.00102954
0.0167211
0.0171445
0.0175024
0.0177627
0.0179346
0.0179722
0.0179084
0.0176967
0.0173578
0.0169362
0.0164587
0.0159276
0.0153273
0.0145866
0.0136158
0.0122639
0.0102805
0.00679919
0.00103623
0.0172665
0.0176486
0.0179792
0.0181173
0.0181779
0.0181143
0.0179093
0.0175556
0.0170681
0.0164901
0.0158549
0.0152029
0.0145292
0.0137769
0.0128595
0.0116195
0.00976639
0.00648661
0.00103141
0.0175347
0.0178394
0.0180466
0.0181121
0.0181007
0.0179488
0.0176357
0.0171624
0.0165492
0.0158338
0.0150569
0.0142846
0.0135351
0.0127781
0.0119373
0.0108493
0.00915871
0.00610171
0.00101807
0.0173512
0.0176228
0.0177903
0.0178165
0.0177241
0.0174896
0.0170893
0.0165216
0.0158012
0.0149597
0.0140552
0.0131655
0.0123417
0.0115931
0.0108604
0.00995512
0.00848694
0.00570018
0.00100084
0.0168927
0.0171264
0.0172472
0.0172301
0.0170781
0.0167773
0.0163065
0.0156577
0.01484
0.0138824
0.012859
0.0118538
0.0109598
0.0102307
0.00963103
0.00894062
0.00773114
0.00527489
0.000984378
0.0162593
0.0164392
0.0165104
0.0164484
0.0162441
0.0158816
0.0153417
0.0146146
0.0136965
0.0126384
0.0115185
0.0104239
0.00946663
0.00874695
0.00826395
0.0077978
0.00686502
0.00479412
0.000972111
0.0155856
0.0156934
0.0156976
0.0155745
0.0153072
0.0148755
0.0142571
0.0134559
0.0124671
0.0113468
0.0101589
0.00899416
0.0079824
0.00725511
0.00683388
0.00654354
0.00586337
0.00433262
0.001045
0.0149296
0.0149592
0.0148854
0.0146841
0.0143417
0.0138406
0.0131636
0.0123016
0.0112751
0.0101246
0.00890236
0.0076963
0.00664407
0.00589096
0.00547407
0.00522964
0.00474279
0.00342236
0.00101074
0.0143422
0.0142895
0.0141349
0.0138599
0.0134496
0.012888
0.0121612
0.0112693
0.010238
0.00909217
0.0078708
0.00665259
0.00557128
0.00477456
0.00431599
0.00406696
0.00368863
0.00268137
0.000952422
0.0138678
0.0137438
0.0135187
0.0131784
0.0127102
0.012102
0.0113456
0.0104568
0.00945045
0.00833821
0.00714561
0.00593629
0.0048293
0.00396795
0.00342794
0.00313618
0.00285228
0.00222144
0.000892822
0.0135353
0.013357
0.0130782
0.0126887
0.0121789
0.0115422
0.0107839
0.00992024
0.00895629
0.00789406
0.00674629
0.00555798
0.00442597
0.00348354
0.00282785
0.00244073
0.0021648
0.00174239
0.000828387
0.0133445
0.0131332
0.0128225
0.0124046
0.0118744
0.0112298
0.0104884
0.00965967
0.00874319
0.00773503
0.00663789
0.00547856
0.00432804
0.00330218
0.00251391
0.00199602
0.00166249
0.00133523
0.000760038
0.0132698
0.0130464
0.0127257
0.0123008
0.0117689
0.0111372
0.0104223
0.00962994
0.00875799
0.00780027
0.00675344
0.00562988
0.00447554
0.00338121
0.00246177
0.00179336
0.00135562
0.00103895
0.000683919
0.0132692
0.01305
0.0127371
0.0123246
0.0118085
0.0112032
0.0105194
0.00976173
0.00892876
0.00801491
0.00701473
0.00593169
0.00479174
0.00365766
0.00262897
0.00180635
0.00123033
0.000856093
0.000598361
0.0132997
0.0130948
0.0128014
0.0124127
0.0119276
0.0113564
0.0107063
0.00998155
0.00918255
0.00830586
0.00734682
0.00630499
0.00519347
0.00405115
0.0029518
0.00199454
0.00126253
0.000775707
0.000507365
0.013328
0.0131417
0.012874
0.0125157
0.0120675
0.0115336
0.0109183
0.0102253
0.00945662
0.00861133
0.00768696
0.0066826
0.00560483
0.00447647
0.00334648
0.00229433
0.00141519
0.0007808
0.000421747
0.0133349
0.0131667
0.012924
0.0125979
0.0121866
0.0116896
0.0111083
0.0104458
0.00970456
0.00888593
0.00798976
0.00701624
0.00596955
0.00486355
0.00372946
0.00262376
0.00162991
0.000843052
0.000354066
0.0133113
0.0131588
0.0129377
0.0126404
0.0122618
0.0117982
0.0112486
0.0106144
0.00989816
0.00910235
0.00822868
0.00727885
0.00625659
0.00517136
0.00404366
0.00291204
0.00184087
0.000924566
0.000309207
0.013255
0.0131148
0.012911
0.0126367
0.012285
0.0118499
0.0113282
0.0107196
0.0100259
0.00924997
0.00839455
0.00746256
0.00645809
0.00538862
0.00426866
0.00312513
0.00200604
0.000995774
0.00028258
0.0131668
0.0130357
0.0128451
0.0125884
0.0122577
0.0118459
0.0113481
0.0107623
0.0100892
0.00933116
0.00849146
0.00757381
0.00658279
0.00552518
0.00441239
0.00326446
0.00211823
0.00104768
0.00026688
0.013049
0.0129247
0.0127441
0.0125006
0.0121864
0.0117936
0.0113163
0.010751
0.0100971
0.00935627
0.00853159
0.00762719
0.00664813
0.00560116
0.00449626
0.00334968
0.00219102
0.00108499
0.000256923
0.0129038
0.0127853
0.0126126
0.0123796
0.0120787
0.0117021
0.0112431
0.0106971
0.0100621
0.00933892
0.00853011
0.00763985
0.00667358
0.00563825
0.00454334
0.00340295
0.00224158
0.00111507
0.000250026
0.0127335
0.0126206
0.0124549
0.0122311
0.0119422
0.0115804
0.0111388
0.0106118
0.00999651
0.00929242
0.00850148
0.00762757
0.00667624
0.0056547
0.00457221
0.00344144
0.00228268
0.00114291
0.000244944
0.0125406
0.0124336
0.012275
0.0120602
0.0117829
0.0114359
0.0110118
0.0105047
0.0099106
0.00922782
0.00845737
0.00760261
0.0066689
0.00566345
0.0045953
0.00347585
0.0023216
0.00117093
0.000241076
0.0123283
0.0122276
0.0120764
0.011871
0.0116059
0.0112743
0.0108688
0.0103831
0.00981217
0.00915321
0.00840611
0.00757335
0.0066598
0.00567236
0.00461963
0.00351172
0.00236169
0.00119994
0.000238096
0.0121
0.0120062
0.011863
0.0116677
0.0114155
0.0111003
0.0107149
0.0102523
0.00970668
0.00907402
0.00835295
0.00754478
0.00665351
0.00568539
0.00464838
0.00355126
0.00240398
0.00122994
0.000235799
0.0118601
0.011774
0.0116393
0.0114546
0.0112162
0.0109184
0.0105543
0.0101164
0.00959796
0.00899376
0.00830091
0.00751936
0.00665191
0.00570387
0.0046823
0.00359471
0.00244836
0.0012606
0.000234047
0.0116146
0.0115372
0.0114115
0.0112376
0.0110133
0.0107335
0.0103914
0.00997923
0.00948923
0.00891486
0.00825168
0.00749804
0.00665528
0.0057275
0.00472072
0.00364124
0.00249403
0.00129137
0.000232736
0.0113704
0.0113038
0.0111877
0.0110247
0.0108141
0.0105521
0.0102319
0.00984542
0.00938397
0.00883969
0.00820653
0.00748107
0.00666302
0.00575508
0.00476212
0.00368929
0.00253971
0.00132148
0.000231781
0.0111369
0.0110844
0.0109788
0.0108263
0.0106287
0.0103831
0.0100835
0.00972122
0.0092869
0.00877139
0.00816705
0.0074687
0.0066743
0.00578501
0.00480446
0.00373675
0.00258356
0.00134975
0.000231101
0.0109262
0.0108923
0.0107985
0.010656
0.0104696
0.0102383
0.00995624
0.00961497
0.00920439
0.0087143
0.00813562
0.00746152
0.00668824
0.00581537
0.00484522
0.00378084
0.00262285
0.00137417
0.000230606
0.0107563
0.0107444
0.0106627
0.0105291
0.0103516
0.0101309
0.00986205
0.00953658
0.00914408
0.00867359
0.00811493
0.00745992
0.00670333
0.0058433
0.0048808
0.00381773
0.00265371
0.00139121
0.000230173
0.0106521
0.0106598
0.0105878
0.0104604
0.0102884
0.0100737
0.00981208
0.0094953
0.00911284
0.00865338
0.00810615
0.0074622
0.00671541
0.00586294
0.00490476
0.00384176
0.00267248
0.00139949
0.000229509
)
;

boundaryField
{
    leftWall
    {
        type            nutkWallFunction;
        Cmu             0.09;
        kappa           0.41;
        E               9.8;
        value           nonuniform List<scalar> 
50
(
4.40059e-06
1.23617e-05
1.40067e-05
1.49564e-05
1.55866e-05
1.60561e-05
1.64579e-05
1.70907e-05
1.93104e-05
2.17374e-05
2.21859e-05
2.23149e-05
2.23443e-05
2.23963e-05
2.25388e-05
2.28587e-05
2.35295e-05
2.26896e-05
2.45622e-05
2.58607e-05
2.65873e-05
2.66705e-05
2.6574e-05
2.65465e-05
2.65951e-05
2.66576e-05
2.66872e-05
2.66633e-05
2.6583e-05
2.64518e-05
2.62783e-05
2.6072e-05
2.58426e-05
2.56006e-05
2.53571e-05
2.51255e-05
2.49219e-05
2.47663e-05
2.46843e-05
2.47073e-05
2.48739e-05
2.52291e-05
2.5825e-05
2.67228e-05
2.80026e-05
2.97846e-05
3.22677e-05
3.58121e-05
4.1176e-05
5.02115e-05
)
;
    }
    rightWall
    {
        type            nutkWallFunction;
        Cmu             0.09;
        kappa           0.41;
        E               9.8;
        value           nonuniform List<scalar> 
50
(
1.65428e-05
5.46649e-05
6.37629e-05
7.03471e-05
7.55398e-05
7.98991e-05
8.37226e-05
8.72193e-05
9.28517e-05
9.69408e-05
9.96265e-05
0.000101033
0.000101538
0.000101724
0.000102064
0.000102731
0.000103335
0.000103403
0.000102668
0.000101637
0.000100722
0.000100251
0.000100438
0.000124323
0.000118584
0.000111183
0.000103279
9.45531e-05
8.4952e-05
7.44204e-05
6.33872e-05
5.28137e-05
4.38706e-05
3.73117e-05
3.30567e-05
3.0445e-05
2.87948e-05
2.76702e-05
2.68489e-05
2.62232e-05
2.57368e-05
2.53566e-05
2.50607e-05
2.48337e-05
2.46633e-05
2.45392e-05
2.44509e-05
2.43871e-05
2.43311e-05
2.42431e-05
)
;
    }
    lowerWall
    {
        type            nutkWallFunction;
        Cmu             0.09;
        kappa           0.41;
        E               9.8;
        value           nonuniform List<scalar> 
62
(
4.40059e-06
6.53046e-06
7.82728e-06
8.69956e-06
9.38451e-06
9.94913e-06
1.04272e-05
1.08382e-05
1.11946e-05
1.15043e-05
1.17715e-05
1.1997e-05
1.21781e-05
1.2309e-05
1.23815e-05
1.23888e-05
1.2327e-05
1.22334e-05
1.21234e-05
1.19479e-05
1.16264e-05
1.08876e-05
8.94574e-06
8.94574e-06
2.36866e-05
2.70986e-05
2.96105e-05
3.15821e-05
3.32252e-05
3.474e-05
3.66271e-05
4.05263e-05
3.95156e-05
5.56552e-05
7.28408e-05
2.27781e-05
6.10326e-05
6.64543e-05
6.83156e-05
6.74206e-05
6.80955e-05
6.8954e-05
8.24696e-05
2.27781e-05
2.65064e-05
2.89541e-05
3.10388e-05
3.22945e-05
3.23965e-05
3.1991e-05
3.12621e-05
3.09004e-05
3.05762e-05
3.01556e-05
2.95793e-05
2.88128e-05
2.78375e-05
2.69345e-05
2.58896e-05
2.4541e-05
2.2192e-05
1.65428e-05
)
;
    }
    atmosphere
    {
        type            calculated;
        value           nonuniform List<scalar> 
46
(
0.009
0.009
0.009
0.009
0.009
0.009
0.009
0.009
0.009
0.009
0.009
0.009
0.009
0.009
0.009
0.009
0.009
0.009
0.009
0.009
0.009
0.009
0.009
0.0101059
0.0103141
0.010458
0.0105547
0.0106521
0.0106598
0.0105878
0.0104604
0.0102884
0.0100737
0.00981208
0.0094953
0.00911284
0.00865338
0.00810615
0.0074622
0.00671541
0.00586294
0.00490476
0.00384176
0.00267248
0.00139949
0.000229509
)
;
    }
    defaultFaces
    {
        type            empty;
    }
}


// ************************************************************************* //
