/*--------------------------------*- C++ -*----------------------------------*\
  =========                 |
  \\      /  F ield         | OpenFOAM: The Open Source CFD Toolbox
   \\    /   O peration     | Website:  https://openfoam.org
    \\  /    A nd           | Version:  13
     \\/     M anipulation  |
\*---------------------------------------------------------------------------*/
FoamFile
{
    format      ascii;
    class       volScalarField;
    location    "0.3";
    object      p_rgh;
}
// * * * * * * * * * * * * * * * * * * * * * * * * * * * * * * * * * * * * * //

dimensions      [1 -1 -2 0 0 0 0];

internalField   nonuniform List<scalar> 
2268
(
7764.04
7815.02
7886.65
7954.31
7998.24
8013.78
8000
7957.85
7889.82
7799.77
7692.8
7575.67
7457.87
7352.85
7277.61
7254.67
7315.54
7501.51
7876.17
8501.56
9401.47
10431.6
11484.7
7756.69
7793.02
7842.87
7892.29
7922.28
7927.38
7905.92
7858.25
7786.53
7694.39
7586.9
7470.99
7356.66
7258.33
7193.88
7186.48
7267.95
7481.61
7884.52
8544.53
9491.73
10558.8
11632.6
7746.06
7780.85
7810.54
7838.05
7849.26
7839.16
7805.73
7748.93
7670.64
7574.33
7465.04
7349.86
7239.19
7148.66
7096.75
7106.94
7210.79
7446.33
7869.67
8542.63
9499.39
10562.2
11670.6
7729.9
7772.51
7788.39
7797.26
7790.64
7765
7718.44
7650.89
7564.22
7461.82
7348.81
7232.25
7122.81
7037.83
6996.14
7021.06
7142.67
7390.62
7814.41
8465.43
9393.42
10436.4
11604.7
7706.77
7759.64
7766.76
7761.9
7740.59
7701.17
7642.1
7563.48
7467.41
7357.49
7239.09
7119.07
7008.29
6926.9
6893.79
6931.32
7065.87
7312.69
7716.06
8314.7
9186.81
10210.8
11426.9
7673.43
7736.04
7736.77
7721.75
7688.64
7637.64
7567.48
7478.55
7373.58
7257.02
7134.96
7013.69
6904
6828.12
6800.9
6839.63
6929.72
7159.37
7513.55
8073.58
8896.62
9913.81
11124.3
7627.52
7702.02
7702.14
7682.65
7643.67
7587.47
7513.1
7421.66
7316.46
7185.36
7013.37
6779.08
6453.63
6050.08
5601.51
5232.71
4960.38
4510.4
5344.49
7402.28
8528.47
9554.15
10707.3
6388.68
6688.71
6883
6885.73
6826.88
6702.35
6489.8
6175.37
5753.68
5242.19
4659.34
4021.54
3247.38
2617
2162.29
1825.28
1896.85
1991.35
2133
3641.21
7822.03
9099.54
10078.7
636.815
380.335
331.008
395.067
541.755
682.423
787.535
868.334
927.757
961.373
973.956
977.957
985.228
1007.29
1054.17
1131.68
1229.97
1318.57
1392.29
618.959
355.583
309.277
357.389
494.543
631.959
737.951
824.058
889.959
928.146
946.801
957.522
971.78
1000.87
1055.35
1139.3
1245.57
1332.84
1403.48
531.726
294.986
274.648
326.895
457.412
590.831
694.78
783.172
851.279
893.104
917.32
934.566
955.903
992.272
1053.14
1141.97
1253.32
1341.7
1420.88
424.656
211.622
218.541
293.231
433.323
563.986
664.841
752.48
819.561
863.16
890.929
912.574
938.707
979.777
1044.49
1135.49
1247.23
1345.03
1442.68
366.773
203.437
201.571
263.115
419.827
547.383
644.228
728.794
793.957
838.11
867.712
891.695
920.226
963.324
1029.2
1119.98
1230.86
1333.46
1456.16
363.067
203.589
201.563
237.802
408.892
536.729
628.518
709.062
772.037
815.947
846.153
870.902
899.935
942.955
1007.84
1096.61
1205.97
1313.67
1459.66
295.028
204.955
202.398
226.512
406.473
530.155
615.769
691.718
752.164
795.2
825.093
849.41
877.467
918.709
980.859
1066.13
1173.09
1285.68
1451.09
213.117
205.238
202.956
244.329
422.471
524.844
603.517
674.295
731.77
773.544
802.728
826.107
852.372
890.577
948.595
1029.24
1132.95
1251
1429.25
2686.46
2970.94
3188.45
3222.88
3192.01
3105.85
2951.79
2738.86
2492.14
2239.76
2006.26
1782.66
1723.5
1745.13
1768.72
1795.93
1830.9
1884.51
1954.68
1979.04
3541.72
7261.7
8180.97
1625.67
1635.55
1637.86
1642.15
1646.66
1651.4
1657.15
1664.35
1673.08
1683.11
1694.1
1705.93
1716.19
1727.47
1743.19
1766.03
1797.23
1835.69
1876.38
1896.48
1755.85
4349.21
8348.62
1615.26
1623.03
1629.64
1635.92
1641.56
1646.58
1651.22
1655.75
1660.4
1665.41
1671.07
1677.71
1685.73
1696
1709.58
1727.4
1748.95
1771.62
1789.68
1795.32
1770.64
1525.76
4681.4
1603.11
1608.87
1614.19
1619.14
1623.48
1627.33
1630.85
1634.22
1637.66
1641.4
1645.74
1651
1657.53
1665.49
1674.83
1685.17
1695.48
1703.38
1704.15
1691.73
1661.08
1586.47
1547.92
1590.44
1595.79
1600.31
1604.4
1607.8
1610.65
1613.09
1615.24
1617.3
1619.51
1622.14
1625.5
1629.91
1635.1
1640.07
1643.4
1643.72
1639.88
1628.73
1606.49
1569.09
1502.99
1308.29
1576.76
1582.29
1586.21
1589.71
1592.35
1594.27
1595.58
1596.38
1596.87
1597.31
1597.99
1599.35
1602.05
1605.48
1607.72
1606.13
1598.88
1587.29
1570.3
1547.69
1494.61
1311.84
966.466
1560.72
1566.98
1569.75
1572.44
1574.24
1575.19
1575.32
1574.69
1573.53
1572.16
1570.82
1570.28
1572.44
1576.67
1579.73
1577.55
1550.2
1472.64
1245.81
1033.54
949.681
885.885
844.924
1544.71
1553.27
1554.55
1556.17
1556.99
1557
1556.13
1554.33
1551.94
1549.23
1545.24
1536.07
1539.88
1552.97
1555.94
1468.59
1132.69
870.777
870.313
877.938
878.887
868.862
845.811
846.663
916.15
982.251
1039.46
1079.92
1094.86
1093.77
1072.84
1025.36
963.01
868.439
736.054
749.375
910.789
1104.81
1030.87
829.025
839.577
849.087
854.182
854.362
847.103
833.167
5.20822
6.05639
5.56423
5.52617
6.12491
13.1264
14.0311
8.20169
5.50817
5.59726
5.65554
5.73196
5.81744
5.83661
23.1061
280.945
653.029
795.638
832.152
838.634
835.124
828.968
818.86
5.60923
5.77483
5.74747
5.73809
5.73048
5.72264
5.73005
5.75305
5.78409
5.81052
5.82666
5.8331
5.87592
6.26913
6.60838
5.36536
31.0144
168.379
338.781
475.045
573.368
620.665
615.491
5.65793
5.72446
5.71981
5.72013
5.7233
5.73215
5.7428
5.75208
5.76355
5.77172
5.77792
5.77567
5.89836
6.32629
5.7707
5.73979
5.61063
5.32775
5.02966
4.74326
4.42228
4.078
3.8467
5.69109
5.71328
5.71103
5.70646
5.70132
5.701
5.7039
5.70952
5.71764
5.7273
5.72888
5.73033
5.77363
5.76823
5.71258
5.70653
5.72392
5.73869
5.72521
5.6982
5.6275
5.53043
5.46358
5.71047
5.71554
5.71216
5.70524
5.69636
5.68855
5.68541
5.68821
5.69349
5.69815
5.70343
5.7026
5.69356
5.67847
5.66193
5.63951
5.61713
5.59279
5.54395
5.47998
5.39854
5.30346
5.20173
5.72132
5.72056
5.71726
5.71066
5.70207
5.69429
5.68937
5.68811
5.68942
5.69116
5.69095
5.68634
5.67574
5.6592
5.63632
5.6068
5.57318
5.52747
5.46926
5.401
5.32525
5.24279
5.16153
5.72801
5.72516
5.72181
5.7163
5.70946
5.70278
5.69743
5.69374
5.69086
5.68759
5.68267
5.67455
5.66198
5.64451
5.6214
5.59154
5.55493
5.50935
5.45475
5.39174
5.32166
5.2502
5.18075
5.73263
5.7288
5.72504
5.7199
5.71377
5.70743
5.70147
5.69597
5.69037
5.68388
5.67573
5.66489
5.6505
5.63192
5.60834
5.57882
5.54295
5.49956
5.44883
5.39158
5.32943
5.26568
5.20378
5.73591
5.73152
5.72728
5.72212
5.71619
5.70977
5.70316
5.69631
5.68886
5.68027
5.66994
5.65716
5.64128
5.62167
5.59759
5.56833
5.53341
5.49232
5.44536
5.39358
5.3385
5.28238
5.22712
5.73819
5.73342
5.72871
5.72339
5.71742
5.71082
5.70367
5.69589
5.6872
5.67722
5.66546
5.65141
5.63454
5.61429
5.59007
5.56137
5.52785
5.48933
5.44624
5.39954
5.35051
5.30078
5.25187
5.73964
5.73459
5.72949
5.72395
5.71787
5.71109
5.70357
5.6952
5.68576
5.67494
5.66237
5.64763
5.6303
5.60993
5.58608
5.55841
5.52673
5.49106
5.45186
5.40994
5.36633
5.32233
5.27949
5.74036
5.73514
5.72972
5.72399
5.7178
5.71091
5.70319
5.69453
5.68472
5.67352
5.66064
5.64573
5.62846
5.60849
5.58551
5.5593
5.52981
5.49716
5.4618
5.42442
5.38582
5.34708
5.30989
5.74047
5.73515
5.72952
5.72365
5.71741
5.71049
5.70274
5.69403
5.68418
5.67298
5.66019
5.64555
5.62878
5.60965
5.58794
5.56355
5.53648
5.50694
5.47532
5.44223
5.40829
5.37442
5.34241
5.74004
5.73472
5.72897
5.72304
5.71682
5.70998
5.70235
5.6938
5.68416
5.67326
5.66091
5.64688
5.63098
5.61303
5.5929
5.57055
5.54604
5.5196
5.49159
5.46252
5.43291
5.40352
5.37617
5.73917
5.73391
5.72815
5.72225
5.71613
5.70947
5.7021
5.69387
5.68465
5.67429
5.66262
5.64948
5.63471
5.61818
5.59983
5.57965
5.55776
5.53435
5.50977
5.48445
5.45881
5.43351
5.41033
5.73792
5.7328
5.72711
5.72133
5.71539
5.70901
5.702
5.69423
5.6856
5.67595
5.66515
5.65308
5.63961
5.62466
5.60819
5.59024
5.57092
5.55044
5.52908
5.50722
5.4852
5.46359
5.44406
5.73637
5.73143
5.7259
5.72031
5.71464
5.7086
5.70205
5.69486
5.68691
5.67809
5.6683
5.65741
5.64534
5.63204
5.6175
5.60175
5.58492
5.56719
5.54882
5.53013
5.51137
5.49307
5.47673
5.73455
5.72985
5.72455
5.71921
5.71387
5.70825
5.70222
5.69567
5.6885
5.68059
5.67186
5.66222
5.6516
5.63996
5.62731
5.6137
5.59922
5.58406
5.56843
5.5526
5.53678
5.52141
5.50786
5.73252
5.72808
5.72306
5.71805
5.71308
5.70793
5.70248
5.69662
5.69026
5.6833
5.67567
5.66729
5.65811
5.6481
5.63727
5.62567
5.6134
5.6006
5.58746
5.5742
5.561
5.54822
5.53708
5.7303
5.72616
5.72147
5.7168
5.71225
5.7076
5.70276
5.69762
5.6921
5.68611
5.67957
5.67243
5.66465
5.65619
5.64708
5.63736
5.62712
5.61646
5.60556
5.5946
5.58372
5.57322
5.56416
5.72793
5.7241
5.71975
5.71547
5.71136
5.70724
5.70302
5.69861
5.69392
5.68888
5.68342
5.67748
5.67102
5.66403
5.65653
5.64854
5.64013
5.63142
5.62252
5.6136
5.60475
5.59624
5.58896
5.72541
5.7219
5.71793
5.71404
5.71038
5.7068
5.70321
5.69952
5.69566
5.69155
5.68711
5.6823
5.6771
5.67147
5.66543
5.65902
5.65229
5.64531
5.63819
5.63106
5.624
5.61721
5.61146
5.72278
5.71956
5.71597
5.71249
5.70929
5.70625
5.70328
5.70031
5.69724
5.69401
5.69054
5.6868
5.68275
5.67838
5.67369
5.6687
5.66346
5.65803
5.65249
5.64693
5.64143
5.63613
5.63169
5.72005
5.71708
5.71388
5.7108
5.70806
5.70555
5.7032
5.70091
5.6986
5.6962
5.69364
5.69089
5.6879
5.68468
5.68121
5.6775
5.6736
5.66954
5.66539
5.66122
5.65707
5.65307
5.64973
5.71722
5.71445
5.71164
5.70895
5.70666
5.70468
5.70292
5.70128
5.69968
5.69805
5.69633
5.69449
5.69248
5.6903
5.68793
5.68539
5.68268
5.67984
5.67691
5.67395
5.67099
5.6681
5.66571
5.71432
5.71163
5.70923
5.70692
5.70508
5.70362
5.70242
5.70139
5.70044
5.69952
5.69857
5.69755
5.69643
5.69519
5.69383
5.69232
5.69069
5.68893
5.68709
5.6852
5.68328
5.68138
5.6798
5.71141
5.70859
5.70662
5.70468
5.70329
5.70232
5.70165
5.70118
5.70084
5.70055
5.70029
5.70002
5.69971
5.69933
5.69887
5.6983
5.69763
5.69686
5.69599
5.69506
5.69407
5.69305
5.69222
5.70865
5.70523
5.70376
5.70221
5.70126
5.70077
5.70059
5.70063
5.70081
5.7011
5.70146
5.70186
5.70227
5.70267
5.70303
5.70332
5.70352
5.70364
5.70365
5.70359
5.70347
5.7033
5.7032
5.70615
5.70145
5.70064
5.69946
5.69896
5.69892
5.69919
5.69966
5.70031
5.70111
5.70202
5.70302
5.70409
5.70519
5.70629
5.70736
5.70836
5.70928
5.71012
5.71088
5.71159
5.71231
5.71305
5.70351
5.69714
5.69728
5.69646
5.69638
5.69674
5.69738
5.69824
5.69929
5.70053
5.70193
5.70348
5.70513
5.70686
5.70863
5.71039
5.71211
5.71377
5.71536
5.71689
5.71842
5.72013
5.72207
5.70007
5.69137
5.69339
5.69322
5.6935
5.69419
5.69513
5.6963
5.69771
5.69934
5.70118
5.7032
5.70537
5.70765
5.71
5.71236
5.7147
5.717
5.71923
5.72142
5.72374
5.72684
5.73117
5.69921
5.67874
5.68689
5.68914
5.69009
5.6911
5.69233
5.69379
5.69552
5.6975
5.69972
5.70217
5.70478
5.70753
5.71035
5.7132
5.71603
5.71881
5.72154
5.72426
5.72745
5.73327
5.74426
5.71596
5.65156
5.67607
5.68284
5.68514
5.6868
5.68846
5.6903
5.6924
5.69477
5.69741
5.70027
5.70333
5.70652
5.7098
5.7131
5.71636
5.71958
5.72279
5.72624
5.7308
5.74043
5.76479
5889.28
4835.46
93.5706
155.575
9211.68
8681.13
6857.29
5171.64
6725.95
8843.37
8595.36
8384.54
1261.25
1702.4
2328.64
3417.01
858.683
687.422
639.687
598.392
769.005
731.397
701.772
676.45
802.7
771.876
746.728
724.23
813.827
790.922
772.843
755.446
811.744
795.701
782.737
769.758
801.321
790.133
784.693
782.874
603.094
591.33
575.326
535.772
3.40223
3.09912
3.26728
3.60738
5.49796
5.49112
5.44875
5.36598
5.07081
5.00686
4.96645
4.96327
5.09847
5.06468
5.03896
5.01756
5.13116
5.10299
5.07848
5.05565
5.16006
5.13344
5.10833
5.08524
5.18718
5.16243
5.13871
5.11658
5.21624
5.19393
5.1723
5.15155
5.24834
5.22866
5.20945
5.19053
5.28303
5.26595
5.24919
5.2323
5.31954
5.3049
5.29049
5.27567
5.35692
5.3445
5.33223
5.3194
5.39425
5.38381
5.37346
5.36248
5.43075
5.42206
5.41339
5.4041
5.4658
5.45863
5.45146
5.44369
5.49897
5.49311
5.48724
5.48081
5.52994
5.52522
5.52047
5.5152
5.5585
5.55476
5.55096
5.54671
5.58455
5.58163
5.57866
5.57527
5.60809
5.60585
5.60356
5.6009
5.62918
5.62751
5.62578
5.62371
5.64793
5.64672
5.64543
5.64384
5.66449
5.66365
5.66273
5.66151
5.67905
5.6785
5.67786
5.67693
5.69184
5.69152
5.69107
5.69035
5.70312
5.70295
5.70263
5.70205
5.71323
5.71316
5.71289
5.71232
5.72258
5.72252
5.72215
5.72144
5.73188
5.73151
5.73071
5.72968
5.74407
5.74114
5.73906
5.73797
5.77275
5.7666
5.75936
5.75327
210.485
205.078
201.166
307.579
450.329
516.777
586.261
649.792
702.261
740.944
767.472
787.537
808.818
840.174
890.359
963.538
1064.02
1196.14
1386.46
1189.29
408.128
549.814
467.596
445.56
505.127
569.869
627.208
673.185
705.753
725.225
735.459
741.921
755.176
789.425
849.324
944.714
1084.26
1292.61
7674.99
7664.94
4723.51
458.619
448.69
504.816
563.207
613.37
652.38
677.777
684.418
671.81
638.329
621.781
641.421
695.808
789.499
927.862
1136.37
4701.89
4306.34
3156.48
893.203
489.683
527.156
572.174
611.609
642.117
651.278
587.453
434.847
289.043
175.661
251.694
465.336
630.559
764.156
958.472
550.401
528.496
527.376
538.561
541.008
561.346
590.892
619.848
632.999
499.536
202.792
9.09801
8.22315
8.2378
6.87635
66.5039
496.883
637.386
810.682
642.92
618.986
601.588
588.482
584.903
594.976
615.214
606.845
396.399
58.7121
6.23929
5.51568
5.48568
5.59337
5.71674
4.80302
169.053
579.645
726.347
692.203
665.62
643.894
629.14
624.122
632.646
553.366
237.886
6.07603
5.81699
5.11957
5.42514
5.55218
5.55729
5.60682
5.41015
1.93641
613.529
703.632
728.537
702.546
680.133
668.398
672.998
531.462
112.598
4.94296
4.98323
4.90239
5.03788
5.26859
5.37364
5.3968
5.41977
5.67851
5.08166
534.585
724.035
750.816
732.218
721.147
681.567
442.112
31.2866
4.75117
4.84843
4.87553
4.89578
4.95859
5.03035
5.07148
5.09463
5.14453
5.44334
5.24986
35.4498
764.028
780.999
720.828
559.01
166.363
3.64598
4.67861
4.84974
4.79438
4.79165
4.79358
4.7907
4.79348
4.79207
4.7895
4.75881
4.79648
4.76972
3.10252
767.32
391.561
89.3725
2.90671
4.52845
4.86964
4.79433
4.74778
4.70981
4.6933
4.6673
4.63329
4.60222
4.57341
4.54564
4.50063
4.40225
4.39398
4.53719
817.744
3.99256
4.7369
4.98353
4.97232
4.85377
4.73649
4.68671
4.65788
4.61924
4.5712
4.51842
4.46731
4.42406
4.39138
4.36278
4.31126
4.23805
4.88576
899.826
5.20184
5.13892
4.98036
4.85464
4.77723
4.71289
4.67427
4.62873
4.57389
4.51182
4.44761
4.38854
4.34719
4.32418
4.31717
4.29531
4.11366
5.11804
978.584
4.99623
4.96797
4.87837
4.81531
4.76776
4.7229
4.67396
4.61891
4.55692
4.48908
4.42212
4.36724
4.33649
4.33924
4.36681
4.34575
4.12915
9.4827
1044.8
4.98319
4.9433
4.88461
4.83718
4.7907
4.74096
4.68797
4.63215
4.57048
4.50437
4.44271
4.39785
4.38235
4.41054
4.46773
4.48755
4.14254
9.94635
764.306
5.01536
4.96635
4.91642
4.86752
4.81926
4.77092
4.72109
4.6685
4.6129
4.55567
4.50514
4.47126
4.46503
4.50265
4.58613
4.54485
4.42907
3.77543
10.1114
5.0474
4.9978
4.94982
4.90356
4.85866
4.81487
4.77154
4.72567
4.6785
4.63345
4.59619
4.57424
4.57611
4.61032
4.67588
4.67635
4.29714
3.85562
7.85697
5.08094
5.03409
4.98983
4.94834
4.90919
4.87166
4.83448
4.79697
4.76058
4.72833
4.70437
4.69398
4.70174
4.73046
4.77684
4.80616
4.69764
4.48384
5.9863
5.1187
5.07661
5.03738
5.0012
4.96779
4.93627
4.9061
4.8775
4.85206
4.83192
4.82018
4.81991
4.83254
4.85628
4.88458
4.90183
4.86758
4.79226
5.05924
5.1608
5.12398
5.09004
5.05918
5.03125
5.00568
4.98257
4.96267
4.94707
4.93756
4.9364
4.9452
4.96365
4.98902
5.01665
5.04408
5.08177
5.15015
5.34894
5.20591
5.17433
5.14552
5.11975
5.09685
5.07706
5.06067
5.04834
5.04105
5.04031
5.04781
5.06444
5.08961
5.12131
5.15788
5.20294
5.27053
5.3582
5.4804
5.25257
5.22584
5.20171
5.18046
5.16251
5.14796
5.13738
5.13131
5.13067
5.13675
5.15083
5.17356
5.20458
5.2429
5.28803
5.34263
5.41188
5.47655
5.529
5.29943
5.27704
5.2571
5.23994
5.22625
5.2163
5.21048
5.20935
5.21376
5.22475
5.24334
5.27007
5.30487
5.34732
5.39698
5.45387
5.51721
5.56941
5.59168
5.34539
5.32674
5.3104
5.29697
5.28693
5.28068
5.27858
5.28115
5.28909
5.30328
5.32448
5.35313
5.38924
5.43258
5.48245
5.53717
5.59326
5.63849
5.65138
5.38962
5.37419
5.36097
5.35065
5.34364
5.34028
5.34093
5.34605
5.35623
5.37213
5.39431
5.42308
5.45836
5.49979
5.54638
5.59565
5.64319
5.68041
5.68852
5.43151
5.41885
5.40835
5.40057
5.39593
5.39471
5.39724
5.40394
5.41525
5.43165
5.45355
5.48104
5.51391
5.55158
5.59278
5.63479
5.67315
5.70157
5.70628
5.47068
5.46037
5.45215
5.44642
5.44355
5.44382
5.44752
5.45498
5.46655
5.48256
5.50322
5.52849
5.558
5.59096
5.62593
5.66024
5.68988
5.71029
5.71221
5.50684
5.49855
5.49219
5.48805
5.48646
5.48768
5.49196
5.49955
5.51073
5.52568
5.5445
5.567
5.5927
5.62069
5.64948
5.67663
5.69874
5.71264
5.71242
5.53987
5.53329
5.52842
5.52546
5.52473
5.52646
5.53086
5.53813
5.54845
5.56194
5.57856
5.59806
5.61988
5.64308
5.66624
5.6872
5.70325
5.71227
5.71055
5.56974
5.56455
5.56082
5.55872
5.55852
5.56042
5.56461
5.57123
5.58042
5.59221
5.60651
5.62301
5.64113
5.65997
5.67824
5.69413
5.7055
5.711
5.70834
5.59648
5.59239
5.58953
5.588
5.58806
5.58989
5.59363
5.59942
5.60732
5.61734
5.62934
5.643
5.65775
5.67279
5.68697
5.69881
5.70666
5.70969
5.70651
5.6202
5.61698
5.61472
5.61355
5.61367
5.61525
5.6184
5.62324
5.62982
5.6381
5.64793
5.659
5.6708
5.6826
5.69344
5.70213
5.70739
5.7087
5.70527
5.64109
5.63852
5.63666
5.63565
5.63568
5.63688
5.63938
5.64325
5.64853
5.65518
5.66305
5.67184
5.68111
5.69022
5.69839
5.70466
5.70803
5.70817
5.70467
5.65934
5.65722
5.6556
5.65461
5.65445
5.65522
5.65703
5.65996
5.66403
5.66921
5.67534
5.68218
5.68932
5.69625
5.70231
5.70674
5.70875
5.70812
5.70466
5.67518
5.67336
5.67183
5.67077
5.67034
5.67065
5.6718
5.67385
5.67684
5.68072
5.68536
5.69055
5.69595
5.70113
5.70555
5.7086
5.70965
5.70853
5.70519
5.68889
5.6872
5.68567
5.68445
5.68372
5.68357
5.6841
5.68537
5.6874
5.69017
5.69355
5.69738
5.70137
5.70517
5.70833
5.71038
5.71077
5.70937
5.7062
5.70073
5.69904
5.6974
5.69597
5.69491
5.69433
5.69431
5.6949
5.69612
5.69795
5.70029
5.70301
5.70588
5.7086
5.71083
5.71215
5.71212
5.71061
5.70766
5.71094
5.70912
5.70728
5.7056
5.70424
5.70327
5.70277
5.70279
5.70334
5.7044
5.7059
5.70773
5.70971
5.71161
5.71315
5.71399
5.71374
5.71224
5.70954
5.71976
5.71765
5.71555
5.71362
5.71198
5.7107
5.70982
5.70938
5.70939
5.70983
5.71065
5.71177
5.71306
5.71434
5.71539
5.71594
5.71564
5.71427
5.71186
5.72777
5.72524
5.72272
5.72045
5.7185
5.7169
5.71568
5.71483
5.71438
5.7143
5.71456
5.71511
5.71587
5.71671
5.71747
5.71793
5.71777
5.71671
5.71467
5.73684
5.73333
5.72984
5.72683
5.72427
5.72213
5.72039
5.71902
5.71802
5.71739
5.71711
5.71715
5.71749
5.71805
5.71872
5.71938
5.71972
5.71937
5.71806
5.7445
5.73859
5.73468
5.73155
5.72895
5.72677
5.72492
5.72338
5.72211
5.72114
5.72045
5.72007
5.71998
5.72018
5.72064
5.72131
5.72204
5.7225
5.72218
)
;

boundaryField
{
    leftWall
    {
        type            fixedFluxPressure;
        gradient        uniform 0;
        value           nonuniform List<scalar> 
50
(
7764.04
7756.69
7746.06
7729.9
7706.77
7673.43
7627.52
6388.68
2686.46
1625.67
1615.26
1603.11
1590.44
1576.76
1560.72
1544.71
846.663
5.20822
5.60923
5.65793
5.69109
5.71047
5.72132
5.72801
5.73263
5.73591
5.73819
5.73964
5.74036
5.74047
5.74004
5.73917
5.73792
5.73637
5.73455
5.73252
5.7303
5.72793
5.72541
5.72278
5.72005
5.71722
5.71432
5.71141
5.70865
5.70615
5.70351
5.70007
5.69921
5.71596
)
;
    }
    rightWall
    {
        type            fixedFluxPressure;
        gradient        uniform 0;
        value           nonuniform List<scalar> 
50
(
1392.29
1403.48
1420.88
1442.68
1456.16
1459.66
1451.09
1429.25
1386.46
1292.61
1136.37
958.472
810.682
726.347
703.632
724.035
764.028
767.32
817.744
899.826
978.584
1044.8
764.306
10.1114
7.85697
5.9863
5.05924
5.34894
5.4804
5.529
5.59168
5.65138
5.68852
5.70628
5.71221
5.71242
5.71055
5.70834
5.70651
5.70527
5.70467
5.70466
5.70519
5.7062
5.70766
5.70954
5.71186
5.71467
5.71806
5.72218
)
;
    }
    lowerWall
    {
        type            fixedFluxPressure;
        gradient        uniform 0;
        value           nonuniform List<scalar> 
62
(
7764.04
7815.02
7886.65
7954.31
7998.24
8013.78
8000
7957.85
7889.82
7799.77
7692.8
7575.67
7457.87
7352.85
7277.61
7254.67
7315.54
7501.51
7876.17
8501.56
9401.47
10431.6
11484.7
11484.7
11632.6
11670.6
11604.7
11426.9
11124.3
10707.3
10078.7
5889.28
4835.46
93.5706
155.575
636.815
618.959
531.726
424.656
366.773
363.067
295.028
213.117
636.815
380.335
331.008
395.067
541.755
682.423
787.535
868.334
927.757
961.373
973.956
977.957
985.228
1007.29
1054.17
1131.68
1229.97
1318.57
1392.29
)
;
    }
    atmosphere
    {
        type            prghTotalPressure;
        rho             rho;
        psi             none;
        gamma           1;
        p0              uniform 0;
        value           nonuniform List<scalar> 
46
(
5.70531
5.67532
5.67912
5.6809
5.68246
5.68405
5.68582
5.68784
5.69015
5.69276
5.69564
5.69876
5.70208
5.70553
5.70906
5.71258
5.71603
5.71931
5.72232
5.72494
5.72701
5.72837
5.72893
5.72904
5.72904
5.72904
5.72904
5.72904
5.72904
5.72904
5.72904
5.72904
5.72904
5.72904
5.72904
5.72904
5.72904
5.72904
5.72904
5.72904
5.72904
5.72904
5.72904
5.72904
5.72904
5.72904
)
;
        rho             rho;
    }
    defaultFaces
    {
        type            empty;
    }
}


// ************************************************************************* //
