/*--------------------------------*- C++ -*----------------------------------*\
  =========                 |
  \\      /  F ield         | OpenFOAM: The Open Source CFD Toolbox
   \\    /   O peration     | Website:  https://openfoam.org
    \\  /    A nd           | Version:  13
     \\/     M anipulation  |
\*---------------------------------------------------------------------------*/
FoamFile
{
    format      ascii;
    class       surfaceScalarField;
    location    "0.3";
    object      phi;
}
// * * * * * * * * * * * * * * * * * * * * * * * * * * * * * * * * * * * * * //

dimensions      [0 3 -1 0 0 0 0];

internalField   nonuniform List<scalar> 
4432
(
-1.14725e-06
1.14726e-06
9.70538e-07
-2.11779e-06
4.34739e-06
-3.37684e-06
8.13923e-06
-3.79184e-06
1.21114e-05
-3.97221e-06
1.6159e-05
-4.04758e-06
2.02251e-05
-4.06603e-06
2.427e-05
-4.04499e-06
2.82639e-05
-3.99384e-06
3.218e-05
-3.91608e-06
3.59863e-05
-3.80636e-06
3.96348e-05
-3.64848e-06
4.30481e-05
-3.41328e-06
4.61148e-05
-3.06669e-06
4.86522e-05
-2.53746e-06
5.03922e-05
-1.73998e-06
5.09627e-05
-5.70504e-07
4.97949e-05
1.16779e-06
4.6195e-05
3.5999e-06
3.91988e-05
6.99623e-06
2.80081e-05
1.11907e-05
1.30322e-05
1.49758e-05
1.30322e-05
1.0092e-06
1.38071e-07
3.74337e-06
-4.85194e-06
7.12831e-06
-6.76178e-06
1.08368e-05
-7.50037e-06
1.46944e-05
-7.82971e-06
1.86156e-05
-7.96879e-06
2.25444e-05
-7.99481e-06
2.64396e-05
-7.94023e-06
3.02694e-05
-7.82367e-06
3.40047e-05
-7.65133e-06
3.76095e-05
-7.41114e-06
4.10296e-05
-7.06863e-06
4.41837e-05
-6.56731e-06
4.69634e-05
-5.84643e-06
4.91999e-05
-4.77393e-06
5.06388e-05
-3.17889e-06
5.08959e-05
-8.27593e-07
4.94503e-05
2.6134e-06
4.56543e-05
7.39591e-06
3.87295e-05
1.3921e-05
2.80457e-05
2.18746e-05
1.41348e-05
2.88867e-05
2.7167e-05
2.6382e-06
-2.50012e-06
5.70632e-06
-7.92006e-06
9.07977e-06
-1.01352e-05
1.26689e-05
-1.10895e-05
1.63708e-05
-1.15316e-05
2.01212e-05
-1.17193e-05
2.38712e-05
-1.17448e-05
2.75814e-05
-1.16505e-05
3.122e-05
-1.14623e-05
3.47563e-05
-1.11876e-05
3.8151e-05
-1.08059e-05
4.13447e-05
-1.02623e-05
4.42517e-05
-9.47427e-06
4.67662e-05
-8.36091e-06
4.87267e-05
-6.73444e-06
4.98921e-05
-4.34429e-06
4.99038e-05
-8.39242e-07
4.82693e-05
4.24789e-06
4.44606e-05
1.12046e-05
3.78602e-05
2.05215e-05
2.80253e-05
3.17095e-05
1.5224e-05
4.16879e-05
4.23911e-05
3.8009e-06
-6.30101e-06
7.19858e-06
-1.13177e-05
1.06058e-05
-1.35425e-05
1.40991e-05
-1.45827e-05
1.76536e-05
-1.50862e-05
2.12359e-05
-1.53016e-05
2.48086e-05
-1.53175e-05
2.83368e-05
-1.51786e-05
3.17896e-05
-1.49151e-05
3.51357e-05
-1.45336e-05
3.83329e-05
-1.40031e-05
4.1317e-05
-1.32463e-05
4.39966e-05
-1.21539e-05
4.62681e-05
-1.06324e-05
4.79729e-05
-8.43928e-06
4.88811e-05
-5.25242e-06
4.86562e-05
-6.14345e-07
4.68414e-05
6.06269e-06
4.30412e-05
1.50047e-05
3.67815e-05
2.67811e-05
2.77421e-05
4.07489e-05
1.58901e-05
5.354e-05
5.82811e-05
4.60271e-06
-1.09037e-05
8.29271e-06
-1.50077e-05
1.17632e-05
-1.70129e-05
1.51901e-05
-1.80096e-05
1.86179e-05
-1.8514e-05
2.20471e-05
-1.87308e-05
2.54547e-05
-1.87251e-05
2.88117e-05
-1.85356e-05
3.20896e-05
-1.8193e-05
3.52567e-05
-1.77007e-05
3.82692e-05
-1.70157e-05
4.10585e-05
-1.60356e-05
4.35272e-05
-1.46227e-05
4.55729e-05
-1.26781e-05
4.70318e-05
-9.89815e-06
4.76767e-05
-5.89733e-06
4.719e-05
-1.27611e-07
4.51299e-05
8.12275e-06
4.12767e-05
1.88579e-05
3.53476e-05
3.27103e-05
2.70786e-05
4.90179e-05
1.61562e-05
6.44623e-05
7.44373e-05
5.15938e-06
-1.60631e-05
9.03627e-06
-1.88846e-05
1.25646e-05
-2.05413e-05
1.59442e-05
-2.13892e-05
1.92664e-05
-2.18362e-05
2.25616e-05
-2.2026e-05
2.5821e-05
-2.19845e-05
2.90223e-05
-2.17368e-05
3.21397e-05
-2.13104e-05
3.51414e-05
-2.07024e-05
3.79828e-05
-1.98571e-05
4.05929e-05
-1.86456e-05
4.28703e-05
-1.69001e-05
4.47112e-05
-1.45189e-05
4.59303e-05
-1.11173e-05
4.6277e-05
-6.24398e-06
4.5479e-05
6.70356e-07
4.30048e-05
1.05969e-05
3.89224e-05
2.29403e-05
3.3368e-05
3.82647e-05
2.60178e-05
5.63681e-05
1.62083e-05
7.42718e-05
9.06456e-05
5.53106e-06
-2.15941e-05
9.44877e-06
-2.28023e-05
1.30179e-05
-2.41105e-05
1.63602e-05
-2.47314e-05
1.95964e-05
-2.50723e-05
2.27777e-05
-2.52073e-05
2.59076e-05
-2.51144e-05
2.89712e-05
-2.48005e-05
3.19453e-05
-2.42845e-05
3.47976e-05
-2.35547e-05
3.74816e-05
-2.25411e-05
3.9925e-05
-2.1089e-05
4.20244e-05
-1.89996e-05
4.36712e-05
-1.61656e-05
4.46443e-05
-1.20904e-05
4.46221e-05
-6.22176e-06
4.33536e-05
1.93878e-06
4.028e-05
1.36706e-05
3.58139e-05
2.74063e-05
3.06857e-05
4.3393e-05
2.47248e-05
6.2329e-05
1.63933e-05
8.26033e-05
0.000107039
5.73533e-06
-2.73295e-05
9.57069e-06
-2.66377e-05
1.31617e-05
-2.77015e-05
1.64709e-05
-2.80406e-05
1.96362e-05
-2.82375e-05
2.27183e-05
-2.82894e-05
2.57309e-05
-2.8127e-05
2.86681e-05
-2.77376e-05
3.15106e-05
-2.71271e-05
3.42252e-05
-2.62692e-05
3.67582e-05
-2.50742e-05
3.90247e-05
-2.33555e-05
4.09557e-05
-2.09306e-05
4.24095e-05
-1.76194e-05
4.30941e-05
-1.2775e-05
4.26098e-05
-5.73744e-06
4.07591e-05
3.78945e-06
3.73128e-05
1.7117e-05
3.26975e-05
3.20216e-05
2.79254e-05
4.81651e-05
2.37531e-05
6.65013e-05
1.77748e-05
8.85816e-05
0.000124814
-6.53615e-05
6.53615e-05
-9.63985e-05
3.1037e-05
-9.98661e-05
3.46767e-06
-8.91625e-05
-1.07036e-05
-6.55001e-05
-2.36623e-05
-3.89325e-05
-2.65676e-05
-1.41966e-05
-2.47359e-05
8.35067e-06
-2.25472e-05
2.76554e-05
-1.93047e-05
4.36495e-05
-1.59941e-05
5.65064e-05
-1.28569e-05
6.57723e-05
-9.26587e-06
7.06874e-05
-4.91505e-06
7.045e-05
2.37362e-07
6.37842e-05
6.6658e-06
4.95371e-05
1.42471e-05
2.7698e-05
2.1839e-05
2.96155e-06
2.47365e-05
2.9615e-06
-5.73306e-05
0.000122692
-8.07706e-05
5.4477e-05
-8.00111e-05
2.70818e-06
-6.74546e-05
-2.326e-05
-4.62154e-05
-4.49015e-05
-2.37102e-05
-4.90728e-05
-2.09371e-06
-4.63523e-05
1.75329e-05
-4.21738e-05
3.46803e-05
-3.64522e-05
4.95112e-05
-3.08249e-05
6.15116e-05
-2.48573e-05
7.0095e-05
-1.78492e-05
7.45767e-05
-9.39667e-06
7.40826e-05
7.31491e-07
6.78583e-05
1.28901e-05
5.51457e-05
2.69598e-05
3.59429e-05
4.10419e-05
1.34461e-05
4.72333e-05
1.64076e-05
-4.54815e-05
0.000168173
-6.542e-05
7.44155e-05
-6.14132e-05
-1.29852e-06
-4.76716e-05
-3.70017e-05
-2.91023e-05
-6.34707e-05
-1.02603e-05
-6.79147e-05
7.94619e-06
-6.45588e-05
2.48034e-05
-5.9031e-05
4.0239e-05
-5.18878e-05
5.37885e-05
-4.43743e-05
6.47852e-05
-3.5854e-05
7.25828e-05
-2.56468e-05
7.64975e-05
-1.33113e-05
7.58016e-05
1.42736e-06
6.98415e-05
1.88502e-05
5.82053e-05
3.8596e-05
4.11717e-05
5.80754e-05
2.07518e-05
6.76531e-05
3.71593e-05
-2.57885e-05
0.000193962
-4.7809e-05
9.64359e-05
-4.20312e-05
-7.0762e-06
-2.75038e-05
-5.15291e-05
-1.24024e-05
-7.85721e-05
2.40883e-06
-8.2726e-05
1.73592e-05
-7.95092e-05
3.18318e-05
-7.35035e-05
4.56045e-05
-6.56605e-05
5.78731e-05
-5.66429e-05
6.7871e-05
-4.58519e-05
7.48964e-05
-3.26722e-05
7.82611e-05
-1.66759e-05
7.73003e-05
2.38824e-06
7.14588e-05
2.46917e-05
6.04561e-05
4.95987e-05
4.46039e-05
7.39277e-05
2.50075e-05
8.72496e-05
6.2167e-05
1.70789e-06
0.000192254
-1.36035e-05
0.000111747
-2.02927e-05
-3.8682e-07
-7.03151e-06
-6.47902e-05
3.45308e-06
-8.90566e-05
1.42929e-05
-9.35658e-05
2.63035e-05
-9.15198e-05
3.87281e-05
-8.5928e-05
5.09195e-05
-7.78518e-05
6.19538e-05
-6.76772e-05
7.0992e-05
-5.48901e-05
7.72806e-05
-3.89608e-05
8.01172e-05
-1.95126e-05
7.88672e-05
3.6382e-06
7.30356e-05
3.05233e-05
6.23797e-05
6.02545e-05
4.7083e-05
8.92243e-05
2.74453e-05
0.000106887
8.96122e-05
-2.27259e-06
0.000194527
4.40984e-06
0.000105065
4.56815e-06
-5.4457e-07
1.12923e-05
-7.15144e-05
1.76054e-05
-9.53698e-05
2.52273e-05
-0.000101188
3.47952e-05
-0.000101088
4.53946e-05
-9.65274e-05
5.61265e-05
-8.85837e-05
6.60064e-05
-7.75571e-05
7.41419e-05
-6.30256e-05
7.97351e-05
-4.4554e-05
8.20658e-05
-2.18433e-05
8.05119e-05
5.19221e-06
7.46047e-05
3.64304e-05
6.4088e-05
7.07712e-05
4.89777e-05
0.000104335
2.9027e-05
0.000126838
0.000118639
-2.70829e-06
0.000197235
1.80584e-05
8.42987e-05
2.52934e-05
-7.77937e-06
2.7417e-05
-7.3638e-05
3.01141e-05
-9.8067e-05
3.51667e-05
-0.00010624
4.27316e-05
-0.000108653
5.17388e-05
-0.000105535
6.11562e-05
-9.8001e-05
6.99745e-05
-8.63754e-05
7.72661e-05
-7.03171e-05
8.21992e-05
-4.9487e-05
8.40369e-05
-2.3681e-05
8.21586e-05
7.07055e-06
7.61027e-05
4.24863e-05
6.55774e-05
8.12966e-05
5.04403e-05
0.000119472
3.01915e-05
0.000147087
0.000148831
4.17926e-05
0.000155443
6.51253e-05
6.0966e-05
4.55505e-05
1.17953e-05
4.14439e-05
-6.95314e-05
4.07711e-05
-9.73942e-05
4.40159e-05
-0.000109485
5.00367e-05
-0.000114673
5.77028e-05
-0.000113201
6.59595e-05
-0.000106258
7.38078e-05
-9.42237e-05
8.03039e-05
-7.68132e-05
8.45954e-05
-5.37785e-05
8.59329e-05
-2.50185e-05
8.36879e-05
9.3156e-06
7.74056e-05
4.87686e-05
6.67553e-05
9.19469e-05
5.15158e-05
0.000134711
3.10744e-05
0.000167528
0.000179905
1.17996e-05
-3.9129e-05
2.01009e-05
-3.49389e-05
2.77003e-05
-3.53009e-05
3.46507e-05
-3.4991e-05
4.12099e-05
-3.47968e-05
4.75085e-05
-3.4588e-05
5.35965e-05
-3.4215e-05
5.94799e-05
-3.3621e-05
6.51208e-05
-3.2768e-05
7.0431e-05
-3.15795e-05
7.52807e-05
-2.99238e-05
7.94086e-05
-2.74834e-05
8.28763e-05
-2.43982e-05
8.56358e-05
-2.03789e-05
8.73327e-05
-1.44718e-05
8.74319e-05
-5.83664e-06
8.4968e-05
6.2533e-06
7.98622e-05
2.22228e-05
7.09545e-05
4.09293e-05
6.0873e-05
5.82465e-05
5.46482e-05
7.27262e-05
5.74442e-05
8.57856e-05
0.000101203
8.10546e-05
7.94575e-06
-4.70747e-05
1.61823e-05
-4.31754e-05
2.34075e-05
-4.25261e-05
3.03505e-05
-4.1934e-05
3.68671e-05
-4.13134e-05
4.29787e-05
-4.06996e-05
4.87612e-05
-3.99975e-05
5.42778e-05
-3.91376e-05
5.957e-05
-3.80602e-05
6.46686e-05
-3.66781e-05
6.95862e-05
-3.48414e-05
7.4437e-05
-3.23342e-05
7.89465e-05
-2.89077e-05
8.26986e-05
-2.4131e-05
8.55263e-05
-1.72996e-05
8.72946e-05
-7.605e-06
8.8001e-05
5.54694e-06
8.77429e-05
2.24809e-05
8.611e-05
4.25622e-05
8.14861e-05
6.28705e-05
7.42348e-05
7.99775e-05
7.35681e-05
8.64523e-05
9.36574e-05
8.11139e-05
4.10976e-06
-5.11844e-05
1.11314e-05
-5.01971e-05
1.81095e-05
-4.95042e-05
2.48873e-05
-4.87117e-05
3.1435e-05
-4.7861e-05
3.77186e-05
-4.69832e-05
4.37574e-05
-4.60363e-05
4.95849e-05
-4.49651e-05
5.52307e-05
-4.3706e-05
6.07186e-05
-4.21661e-05
6.60719e-05
-4.01947e-05
7.12989e-05
-3.75612e-05
7.6321e-05
-3.39298e-05
8.0998e-05
-2.8808e-05
8.52162e-05
-2.15178e-05
8.89873e-05
-1.13761e-05
9.24496e-05
2.08464e-06
9.58749e-05
1.90556e-05
9.93578e-05
3.90793e-05
0.000101677
6.05509e-05
0.000101598
8.00568e-05
9.5571e-05
9.24794e-05
9.08757e-05
9.83526e-05
4.16937e-06
-5.53538e-05
1.02947e-05
-5.63224e-05
1.66252e-05
-5.58347e-05
2.29336e-05
-5.50201e-05
2.91442e-05
-5.40716e-05
3.52095e-05
-5.30485e-05
4.11157e-05
-5.19426e-05
4.68678e-05
-5.07171e-05
5.24786e-05
-4.93168e-05
5.79676e-05
-4.76552e-05
6.33639e-05
-4.5591e-05
6.8709e-05
-4.29063e-05
7.40445e-05
-3.92653e-05
7.93725e-05
-3.4136e-05
8.46848e-05
-2.68301e-05
9.0021e-05
-1.67123e-05
9.55198e-05
-3.41416e-06
0.000101491
1.30842e-05
0.000108264
3.23065e-05
0.000115813
5.3002e-05
0.000123308
7.2562e-05
0.000129394
8.63935e-05
8.88633e-05
0.000131406
4.88637e-06
-6.02401e-05
1.07339e-05
-6.21699e-05
1.66812e-05
-6.1782e-05
2.26114e-05
-6.09503e-05
2.84697e-05
-5.99299e-05
3.42188e-05
-5.87976e-05
3.98355e-05
-5.75593e-05
4.53073e-05
-5.61889e-05
5.06335e-05
-5.46431e-05
5.58286e-05
-5.28504e-05
6.09305e-05
-5.06929e-05
6.60277e-05
-4.80035e-05
7.12717e-05
-4.45094e-05
7.67915e-05
-3.96558e-05
8.26351e-05
-3.26737e-05
8.8805e-05
-2.28822e-05
9.53853e-05
-9.99453e-06
0.000102689
5.7807e-06
0.000111114
2.38812e-05
0.000121146
4.297e-05
0.000133105
6.06025e-05
0.000146462
7.30372e-05
7.45269e-05
0.000160798
5.56842e-06
-6.58085e-05
1.14567e-05
-6.80581e-05
1.72299e-05
-6.75552e-05
2.28992e-05
-6.66197e-05
2.84579e-05
-6.54887e-05
3.38887e-05
-6.42284e-05
3.91673e-05
-6.2838e-05
4.42671e-05
-6.12887e-05
4.91695e-05
-5.95454e-05
5.38733e-05
-5.75542e-05
5.8403e-05
-5.52226e-05
6.28736e-05
-5.24741e-05
6.75596e-05
-4.91954e-05
7.27189e-05
-4.4815e-05
7.84323e-05
-3.83871e-05
8.46072e-05
-2.90571e-05
9.11708e-05
-1.65581e-05
9.85128e-05
-1.56132e-06
0.000107159
1.52349e-05
0.000117814
3.23149e-05
0.000131543
4.68738e-05
0.000148713
5.58675e-05
5.53273e-05
0.000167912
6.3192e-06
-7.21278e-05
1.23002e-05
-7.40392e-05
1.79318e-05
-7.31868e-05
2.33671e-05
-7.2055e-05
2.86408e-05
-7.07624e-05
3.37536e-05
-6.93412e-05
3.8679e-05
-6.77635e-05
4.33733e-05
-6.5983e-05
4.77963e-05
-6.39685e-05
5.1921e-05
-6.1679e-05
5.5712e-05
-5.90136e-05
5.92428e-05
-5.60049e-05
6.29306e-05
-5.28832e-05
6.71765e-05
-4.90609e-05
7.20671e-05
-4.32777e-05
7.74256e-05
-3.44156e-05
8.30417e-05
-2.21742e-05
8.96376e-05
-8.15724e-06
9.87831e-05
6.08946e-06
0.000111385
1.97132e-05
0.000127556
3.07024e-05
0.00014665
3.6774e-05
3.56811e-05
0.000166296
7.24033e-06
-7.93681e-05
1.30266e-05
-7.98255e-05
1.84182e-05
-7.85784e-05
2.36114e-05
-7.72483e-05
2.86178e-05
-7.57688e-05
3.34237e-05
-7.4147e-05
3.80103e-05
-7.23501e-05
4.23275e-05
-7.03002e-05
4.63038e-05
-6.79449e-05
4.99023e-05
-6.52775e-05
5.30123e-05
-6.21236e-05
5.55085e-05
-5.85011e-05
5.79554e-05
-5.53301e-05
6.09188e-05
-5.20243e-05
6.44238e-05
-4.67827e-05
6.84643e-05
-3.84561e-05
7.37717e-05
-2.74816e-05
8.15449e-05
-1.59304e-05
9.23085e-05
-4.67413e-06
0.000106146
5.87534e-06
0.000122661
1.41878e-05
0.000140923
1.85123e-05
1.74637e-05
0.00015914
8.77606e-06
-8.81441e-05
1.33965e-05
-8.44459e-05
1.84661e-05
-8.3648e-05
2.33948e-05
-8.21769e-05
2.81096e-05
-8.04836e-05
3.26273e-05
-7.86647e-05
3.68886e-05
-7.66114e-05
4.08271e-05
-7.42387e-05
4.43951e-05
-7.15129e-05
4.75873e-05
-6.84696e-05
5.03356e-05
-6.48719e-05
5.2258e-05
-6.04235e-05
5.38608e-05
-5.69329e-05
5.57054e-05
-5.38689e-05
5.78523e-05
-4.89296e-05
6.14618e-05
-4.20656e-05
6.78531e-05
-3.38729e-05
7.69832e-05
-2.50605e-05
8.82607e-05
-1.59516e-05
0.000101769
-7.63306e-06
0.000117362
-1.40516e-06
0.000134088
1.78621e-06
7.0652e-07
0.000150845
2.36247e-05
-0.000111768
1.38649e-05
-7.46859e-05
1.71208e-05
-8.69035e-05
2.19081e-05
-8.69637e-05
2.65342e-05
-8.51094e-05
3.09494e-05
-8.30795e-05
3.49322e-05
-8.05938e-05
3.84839e-05
-7.779e-05
4.15075e-05
-7.4536e-05
4.39952e-05
-7.09569e-05
4.6442e-05
-6.73184e-05
4.89483e-05
-6.29294e-05
5.04071e-05
-5.83913e-05
5.13272e-05
-5.47888e-05
5.36698e-05
-5.1272e-05
5.93026e-05
-4.76984e-05
6.61968e-05
-4.07671e-05
7.49666e-05
-3.38303e-05
8.59063e-05
-2.68913e-05
9.8825e-05
-2.05517e-05
0.000113348
-1.59279e-05
0.000128972
-1.38376e-05
-1.51652e-05
0.000144843
1.13303e-05
-0.000123099
1.59506e-05
-7.93057e-05
1.84003e-05
-8.93525e-05
2.20709e-05
-9.06334e-05
2.56704e-05
-8.87078e-05
2.86726e-05
-8.60807e-05
3.1173e-05
-8.30931e-05
3.32413e-05
-7.98573e-05
3.51067e-05
-7.64004e-05
3.737e-05
-7.32193e-05
4.01777e-05
-7.01251e-05
4.35713e-05
-6.63221e-05
4.69525e-05
-6.17717e-05
5.02425e-05
-5.80781e-05
5.31482e-05
-5.41774e-05
5.67399e-05
-5.12901e-05
6.50143e-05
-4.90413e-05
7.43156e-05
-4.31317e-05
8.51749e-05
-3.77505e-05
9.77374e-05
-3.31142e-05
0.000111692
-2.98825e-05
0.000126518
-2.86641e-05
-3.04373e-05
0.000141791
-1.91988e-06
-0.000121179
7.12554e-06
-8.83512e-05
1.12385e-05
-9.34655e-05
1.45289e-05
-9.39239e-05
1.76583e-05
-9.18373e-05
2.06614e-05
-8.90838e-05
2.36409e-05
-8.60725e-05
2.65333e-05
-8.27496e-05
2.93955e-05
-7.92623e-05
3.22745e-05
-7.6098e-05
3.53017e-05
-7.31519e-05
3.87535e-05
-6.97736e-05
4.27558e-05
-6.57736e-05
4.65126e-05
-6.18346e-05
5.09414e-05
-5.86058e-05
5.71693e-05
-5.75176e-05
6.11418e-05
-5.30137e-05
6.81633e-05
-5.0153e-05
7.99551e-05
-4.95422e-05
9.46145e-05
-4.77734e-05
0.000111135
-4.64033e-05
0.000128449
-4.59776e-05
-4.78517e-05
0.000145864
-4.75292e-06
-0.000116426
3.65059e-06
-9.67551e-05
7.3648e-06
-9.71802e-05
9.56262e-06
-9.61222e-05
1.16536e-05
-9.39288e-05
1.3966e-05
-9.13968e-05
1.64974e-05
-8.86043e-05
1.92705e-05
-8.5523e-05
2.23983e-05
-8.23902e-05
2.56752e-05
-7.93749e-05
2.8973e-05
-7.64496e-05
3.26023e-05
-7.3403e-05
3.69262e-05
-7.00975e-05
4.17329e-05
-6.66412e-05
4.70448e-05
-6.39175e-05
5.19504e-05
-6.24231e-05
5.95256e-05
-6.05887e-05
6.96114e-05
-6.02386e-05
8.1336e-05
-6.12665e-05
9.47291e-05
-6.11661e-05
0.000108186
-5.98601e-05
0.000118959
-5.67502e-05
-5.58519e-05
0.00012696
-3.39077e-06
-0.000113036
1.7543e-06
-0.0001019
4.2949e-06
-9.97212e-05
5.79961e-06
-9.76274e-05
7.21532e-06
-9.5345e-05
8.76733e-06
-9.29494e-05
1.06096e-05
-9.0447e-05
1.29097e-05
-8.78236e-05
1.56643e-05
-8.51451e-05
1.87757e-05
-8.24865e-05
2.22106e-05
-7.98846e-05
2.60898e-05
-7.72823e-05
3.06099e-05
-7.46177e-05
3.60364e-05
-7.20678e-05
4.2264e-05
-7.01451e-05
4.88096e-05
-6.89687e-05
5.6268e-05
-6.80471e-05
6.4703e-05
-6.86735e-05
7.29938e-05
-6.95572e-05
8.13871e-05
-6.95594e-05
8.99315e-05
-6.84042e-05
9.97109e-05
-6.65295e-05
-6.59726e-05
0.000109832
-2.41993e-06
-0.000110616
-3.64686e-08
-0.000104284
1.32819e-06
-0.000101086
2.21165e-06
-9.85111e-05
3.07281e-06
-9.62065e-05
4.1304e-06
-9.40073e-05
5.51248e-06
-9.18294e-05
7.32318e-06
-8.96345e-05
9.61849e-06
-8.74406e-05
1.24099e-05
-8.5278e-05
1.56944e-05
-8.31693e-05
1.95206e-05
-8.11085e-05
2.40111e-05
-7.91082e-05
2.92339e-05
-7.72906e-05
3.49954e-05
-7.59066e-05
4.10836e-05
-7.5057e-05
4.76849e-05
-7.46485e-05
5.39469e-05
-7.49355e-05
5.96352e-05
-7.52456e-05
6.50716e-05
-7.49957e-05
7.07051e-05
-7.40377e-05
7.67323e-05
-7.25567e-05
-7.15555e-05
8.23151e-05
-2.1522e-06
-0.000108463
-1.68601e-06
-0.00010475
-1.33111e-06
-0.000101441
-1.02779e-06
-9.88145e-05
-6.15441e-07
-9.6619e-05
3.26682e-08
-9.46555e-05
1.01392e-06
-9.28107e-05
2.41002e-06
-9.10307e-05
4.27123e-06
-8.93019e-05
6.62221e-06
-8.7629e-05
9.47412e-06
-8.60212e-05
1.28506e-05
-8.4485e-05
1.67814e-05
-8.3039e-05
2.12454e-05
-8.17547e-05
2.60826e-05
-8.07438e-05
3.10766e-05
-8.00511e-05
3.60419e-05
-7.96138e-05
4.05474e-05
-7.94411e-05
4.44579e-05
-7.9156e-05
4.79005e-05
-7.84384e-05
5.10437e-05
-7.71809e-05
5.39656e-05
-7.54786e-05
-7.36044e-05
5.60145e-05
-2.30695e-06
-0.000106156
-3.04791e-06
-0.000104009
-3.47013e-06
-0.000101019
-3.69886e-06
-9.85858e-05
-3.71777e-06
-9.66e-05
-3.47255e-06
-9.49007e-05
-2.90238e-06
-9.33809e-05
-1.95351e-06
-9.19796e-05
-5.87662e-07
-9.06678e-05
1.21545e-06
-8.94321e-05
3.46014e-06
-8.82659e-05
6.14086e-06
-8.71657e-05
9.23647e-06
-8.61346e-05
1.26776e-05
-8.51958e-05
1.63151e-05
-8.43813e-05
1.99472e-05
-8.36831e-05
2.33732e-05
-8.30398e-05
2.63143e-05
-8.23822e-05
2.8649e-05
-8.14908e-05
3.03792e-05
-8.01685e-05
3.15158e-05
-7.83175e-05
3.1973e-05
-7.59358e-05
-7.31116e-05
3.14801e-05
-2.59213e-06
-0.000103564
-4.09937e-06
-0.000102502
-5.12574e-06
-9.99923e-05
-5.83456e-06
-9.78769e-05
-6.27331e-06
-9.61612e-05
-6.43612e-06
-9.47378e-05
-6.297e-06
-9.35199e-05
-5.82758e-06
-9.24489e-05
-5.00794e-06
-9.14873e-05
-3.83071e-06
-9.06093e-05
-2.30296e-06
-8.97936e-05
-4.48587e-07
-8.90201e-05
1.68476e-06
-8.82679e-05
4.00955e-06
-8.75205e-05
6.38829e-06
-8.676e-05
8.65026e-06
-8.59451e-05
1.06167e-05
-8.50062e-05
1.20903e-05
-8.38558e-05
1.29486e-05
-8.23491e-05
1.3133e-05
-8.03528e-05
1.25972e-05
-7.77816e-05
1.12649e-05
-7.46033e-05
-7.08339e-05
8.98706e-06
-2.8635e-06
-0.000100701
-4.88235e-06
-0.000100483
-6.3813e-06
-9.84933e-05
-7.51617e-06
-9.6742e-05
-8.35865e-06
-9.53187e-05
-8.93202e-06
-9.41644e-05
-9.23664e-06
-9.32152e-05
-9.26605e-06
-9.24195e-05
-9.01731e-06
-9.1736e-05
-8.49704e-06
-9.11295e-05
-7.72539e-06
-9.05652e-05
-6.73996e-06
-9.00054e-05
-5.59922e-06
-8.94086e-05
-4.39012e-06
-8.87296e-05
-3.23194e-06
-8.79182e-05
-2.2658e-06
-8.69112e-05
-1.64042e-06
-8.56316e-05
-1.50525e-06
-8.3991e-05
-1.97137e-06
-8.1883e-05
-3.11287e-06
-7.92113e-05
-4.98652e-06
-7.59079e-05
-7.64974e-06
-7.19401e-05
-6.73078e-05
-1.11758e-05
-3.07092e-06
-9.76299e-05
-5.44317e-06
-9.81108e-05
-7.31435e-06
-9.66221e-05
-8.82165e-06
-9.52347e-05
-1.00427e-05
-9.40976e-05
-1.10167e-05
-9.31904e-05
-1.17623e-05
-9.24696e-05
-1.22903e-05
-9.18914e-05
-1.26122e-05
-9.1414e-05
-1.27467e-05
-9.0995e-05
-1.27233e-05
-9.05886e-05
-1.25858e-05
-9.01429e-05
-1.23951e-05
-8.95993e-05
-1.22312e-05
-8.88934e-05
-1.21942e-05
-8.79552e-05
-1.23969e-05
-8.67084e-05
-1.29564e-05
-8.5072e-05
-1.39848e-05
-8.29626e-05
-1.55716e-05
-8.02961e-05
-1.77818e-05
-7.70011e-05
-2.06614e-05
-7.30282e-05
-2.42445e-05
-6.83569e-05
-6.29936e-05
-2.85587e-05
-3.20469e-06
-9.44254e-05
-5.82338e-06
-9.54922e-05
-7.98746e-06
-9.44581e-05
-9.81434e-06
-9.34078e-05
-1.13796e-05
-9.25324e-05
-1.27301e-05
-9.18398e-05
-1.38964e-05
-9.13033e-05
-1.49015e-05
-9.08863e-05
-1.5768e-05
-9.05475e-05
-1.65231e-05
-9.02399e-05
-1.72019e-05
-8.99098e-05
-1.78497e-05
-8.94951e-05
-1.85233e-05
-8.89256e-05
-1.9292e-05
-8.81247e-05
-2.02358e-05
-8.70114e-05
-2.1441e-05
-8.55032e-05
-2.29943e-05
-8.35188e-05
-2.49754e-05
-8.09815e-05
-2.74484e-05
-7.78231e-05
-3.04585e-05
-7.39909e-05
-3.4033e-05
-6.94536e-05
-3.8184e-05
-6.42058e-05
-5.82662e-05
-4.29114e-05
-3.27235e-06
-9.11532e-05
-6.05859e-06
-9.27061e-05
-8.44894e-06
-9.20679e-05
-1.05426e-05
-9.13142e-05
-1.24097e-05
-9.06653e-05
-1.40998e-05
-9.01497e-05
-1.56502e-05
-8.9753e-05
-1.70917e-05
-8.94448e-05
-1.84545e-05
-8.91847e-05
-1.97707e-05
-8.89237e-05
-2.10774e-05
-8.86031e-05
-2.24177e-05
-8.81548e-05
-2.38414e-05
-8.7502e-05
-2.54043e-05
-8.65618e-05
-2.71667e-05
-8.5249e-05
-2.91904e-05
-8.34795e-05
-3.15343e-05
-8.11749e-05
-3.42495e-05
-7.82663e-05
-3.73746e-05
-7.46979e-05
-4.09329e-05
-7.04325e-05
-4.49322e-05
-6.54543e-05
-4.93659e-05
-5.9772e-05
-5.34155e-05
-5.42168e-05
-3.28536e-06
-8.78681e-05
-6.17682e-06
-8.98148e-05
-8.73488e-06
-8.951e-05
-1.10425e-05
-8.90067e-05
-1.31631e-05
-8.85449e-05
-1.51456e-05
-8.81672e-05
-1.70304e-05
-8.78683e-05
-1.88527e-05
-8.76225e-05
-2.06466e-05
-8.73909e-05
-2.24463e-05
-8.71239e-05
-2.42883e-05
-8.67611e-05
-2.62111e-05
-8.6232e-05
-2.82555e-05
-8.54576e-05
-3.04634e-05
-8.4354e-05
-3.28766e-05
-8.28358e-05
-3.55347e-05
-8.08214e-05
-3.84723e-05
-7.82374e-05
-4.17158e-05
-7.50228e-05
-4.52811e-05
-7.11327e-05
-4.91715e-05
-6.65421e-05
-5.33776e-05
-6.12481e-05
-5.78793e-05
-5.52704e-05
-4.86481e-05
-6.26467e-05
-3.25406e-06
-8.46144e-05
-6.19907e-06
-8.68701e-05
-8.87193e-06
-8.68373e-05
-1.13412e-05
-8.65375e-05
-1.3663e-05
-8.62232e-05
-1.58839e-05
-8.59464e-05
-1.80445e-05
-8.57078e-05
-2.01818e-05
-8.54852e-05
-2.2331e-05
-8.52417e-05
-2.45264e-05
-8.49286e-05
-2.68017e-05
-8.44859e-05
-2.91896e-05
-8.38441e-05
-3.17214e-05
-8.29259e-05
-3.44258e-05
-8.16496e-05
-3.73281e-05
-7.99335e-05
-4.04488e-05
-7.77008e-05
-4.38017e-05
-7.48845e-05
-4.73931e-05
-7.14314e-05
-5.12199e-05
-6.73059e-05
-5.52693e-05
-6.24927e-05
-5.9519e-05
-5.69984e-05
-6.39389e-05
-5.08504e-05
-4.4094e-05
-6.8493e-05
-3.18671e-06
-8.1428e-05
-6.14099e-06
-8.39161e-05
-8.88019e-06
-8.40983e-05
-1.146e-05
-8.39578e-05
-1.39292e-05
-8.37541e-05
-1.63308e-05
-8.3545e-05
-1.87039e-05
-8.33348e-05
-2.10852e-05
-8.3104e-05
-2.35092e-05
-8.28178e-05
-2.60084e-05
-8.24294e-05
-2.86129e-05
-8.18815e-05
-3.13492e-05
-8.1108e-05
-3.42394e-05
-8.00357e-05
-3.73008e-05
-7.85883e-05
-4.05443e-05
-7.669e-05
-4.39746e-05
-7.42705e-05
-4.75892e-05
-7.12699e-05
-5.13782e-05
-6.76424e-05
-5.53241e-05
-6.336e-05
-5.94021e-05
-5.84147e-05
-6.35808e-05
-5.28195e-05
-6.78245e-05
-4.66068e-05
-3.98249e-05
-7.20936e-05
-3.08901e-06
-7.83394e-05
-6.01408e-06
-8.09913e-05
-8.77538e-06
-8.13373e-05
-1.1417e-05
-8.13164e-05
-1.39805e-05
-8.11908e-05
-1.65045e-05
-8.10211e-05
-1.90257e-05
-8.08137e-05
-2.15789e-05
-8.05509e-05
-2.4197e-05
-8.01998e-05
-2.69097e-05
-7.97167e-05
-2.97429e-05
-7.90484e-05
-3.27172e-05
-7.81337e-05
-3.58469e-05
-7.69061e-05
-3.91392e-05
-7.52961e-05
-4.25938e-05
-7.32354e-05
-4.6203e-05
-7.06614e-05
-4.99516e-05
-6.75213e-05
-5.38179e-05
-6.37762e-05
-5.77738e-05
-5.94041e-05
-6.17864e-05
-5.44021e-05
-6.58188e-05
-4.87871e-05
-6.98321e-05
-4.25933e-05
-3.587e-05
-7.37872e-05
-2.96533e-06
-7.53743e-05
-5.82754e-06
-7.81294e-05
-8.57074e-06
-7.85943e-05
-1.12285e-05
-7.86588e-05
-1.38355e-05
-7.8584e-05
-1.64256e-05
-7.84311e-05
-1.90323e-05
-7.82071e-05
-2.16881e-05
-7.78952e-05
-2.44232e-05
-7.74648e-05
-2.72644e-05
-7.68756e-05
-3.02335e-05
-7.60794e-05
-3.33458e-05
-7.50216e-05
-3.66089e-05
-7.3643e-05
-4.00223e-05
-7.18827e-05
-4.35771e-05
-6.96807e-05
-4.72562e-05
-6.69823e-05
-5.10357e-05
-6.37419e-05
-5.48854e-05
-5.99266e-05
-5.87703e-05
-5.55191e-05
-6.26523e-05
-5.05201e-05
-6.64917e-05
-4.49477e-05
-7.02489e-05
-3.88362e-05
-3.22337e-05
-7.38852e-05
-2.81884e-06
-7.2556e-05
-5.58898e-06
-7.53597e-05
-8.2782e-06
-7.59054e-05
-1.09104e-05
-7.60268e-05
-1.35137e-05
-7.5981e-05
-1.61173e-05
-7.58277e-05
-1.87513e-05
-7.55733e-05
-2.14453e-05
-7.52013e-05
-2.42268e-05
-7.46834e-05
-2.71197e-05
-7.39829e-05
-3.01419e-05
-7.30573e-05
-3.33043e-05
-7.18592e-05
-3.66094e-05
-7.0338e-05
-4.00509e-05
-6.84413e-05
-4.36137e-05
-6.6118e-05
-4.72745e-05
-6.33215e-05
-5.10034e-05
-6.00131e-05
-5.47648e-05
-5.61652e-05
-5.85196e-05
-5.17643e-05
-6.22271e-05
-4.68125e-05
-6.58465e-05
-4.13284e-05
-6.93383e-05
-3.53442e-05
-2.89052e-05
-7.26668e-05
-2.65244e-06
-6.99038e-05
-5.30559e-06
-7.27068e-05
-7.90921e-06
-7.3302e-05
-1.04785e-05
-7.34577e-05
-1.30354e-05
-7.34243e-05
-1.56047e-05
-7.32585e-05
-1.82133e-05
-7.29648e-05
-2.0888e-05
-7.25268e-05
-2.36535e-05
-7.1918e-05
-2.65309e-05
-7.11057e-05
-2.95349e-05
-7.00534e-05
-3.26729e-05
-6.87213e-05
-3.59436e-05
-6.70674e-05
-3.93366e-05
-6.50483e-05
-4.28329e-05
-6.26218e-05
-4.64053e-05
-5.97491e-05
-5.00204e-05
-5.6398e-05
-5.36398e-05
-5.25458e-05
-5.72225e-05
-4.81816e-05
-6.07265e-05
-4.33085e-05
-6.41113e-05
-3.79435e-05
-6.73392e-05
-3.21165e-05
-2.58686e-05
-7.03758e-05
-2.46912e-06
-6.74352e-05
-4.98463e-06
-7.01916e-05
-7.47528e-06
-7.08116e-05
-9.9486e-06
-7.09846e-05
-1.24212e-05
-7.09519e-05
-1.49141e-05
-7.07657e-05
-1.74511e-05
-7.04279e-05
-2.00564e-05
-6.99216e-05
-2.27526e-05
-6.92219e-05
-2.55578e-05
-6.83005e-05
-2.84843e-05
-6.7127e-05
-3.15367e-05
-6.5669e-05
-3.47109e-05
-6.38932e-05
-3.79943e-05
-6.1765e-05
-4.13654e-05
-5.92507e-05
-4.47953e-05
-5.63192e-05
-4.8249e-05
-5.29444e-05
-5.16871e-05
-4.91077e-05
-5.50681e-05
-4.48007e-05
-5.83503e-05
-4.00262e-05
-6.14943e-05
-3.47996e-05
-6.44637e-05
-2.91469e-05
-2.31051e-05
-6.72274e-05
-2.27246e-06
-6.51629e-05
-4.63406e-06
-6.78303e-05
-6.98832e-06
-6.84576e-05
-9.33665e-06
-6.86365e-05
-1.16916e-05
-6.85971e-05
-1.40714e-05
-6.83861e-05
-1.64973e-05
-6.80022e-05
-1.89913e-05
-6.74276e-05
-2.15738e-05
-6.66395e-05
-2.42607e-05
-6.56137e-05
-2.7062e-05
-6.43257e-05
-2.99802e-05
-6.27509e-05
-3.30097e-05
-6.08638e-05
-3.61362e-05
-5.86385e-05
-3.93377e-05
-5.60493e-05
-4.25848e-05
-5.30722e-05
-4.58424e-05
-4.96868e-05
-4.90715e-05
-4.58786e-05
-5.22313e-05
-4.16409e-05
-5.5281e-05
-3.69764e-05
-5.81826e-05
-3.18978e-05
-6.09022e-05
-2.64275e-05
-2.05972e-05
-6.34101e-05
-2.06726e-06
-6.30961e-05
-4.26297e-06
-6.56349e-05
-6.46079e-06
-6.626e-05
-8.65857e-06
-6.64389e-05
-1.08667e-05
-6.6389e-05
-1.31018e-05
-6.61512e-05
-1.53834e-05
-6.57206e-05
-1.77319e-05
-6.50792e-05
-2.01653e-05
-6.42062e-05
-2.26977e-05
-6.30815e-05
-2.53368e-05
-6.16866e-05
-2.80839e-05
-6.00039e-05
-3.09321e-05
-5.80156e-05
-3.38671e-05
-5.57036e-05
-3.68668e-05
-5.30496e-05
-3.99027e-05
-5.00362e-05
-4.29408e-05
-4.66487e-05
-4.59432e-05
-4.28763e-05
-4.88702e-05
-3.87139e-05
-5.16828e-05
-3.41638e-05
-5.43445e-05
-2.92361e-05
-5.68231e-05
-2.39486e-05
-1.83277e-05
-5.90928e-05
-1.85975e-06
-6.12364e-05
-3.8818e-06
-6.3613e-05
-5.90564e-06
-6.42363e-05
-7.92984e-06
-6.44148e-05
-9.9654e-06
-6.43536e-05
-1.20288e-05
-6.40878e-05
-1.4139e-05
-6.36105e-05
-1.63145e-05
-6.29037e-05
-1.85716e-05
-6.19492e-05
-2.09219e-05
-6.07312e-05
-2.33716e-05
-5.92369e-05
-2.59205e-05
-5.7455e-05
-2.85615e-05
-5.53746e-05
-3.12806e-05
-5.29845e-05
-3.40569e-05
-5.02732e-05
-3.68634e-05
-4.72296e-05
-3.9668e-05
-4.38441e-05
-4.24345e-05
-4.01097e-05
-4.51249e-05
-3.60235e-05
-4.77012e-05
-3.15873e-05
-5.01286e-05
-2.68086e-05
-5.23772e-05
-2.17001e-05
-1.62815e-05
-5.44233e-05
-1.65844e-06
-5.95783e-05
-3.50248e-06
-6.17691e-05
-5.33608e-06
-6.24028e-05
-7.16516e-06
-6.25857e-05
-9.00497e-06
-6.25138e-05
-1.08738e-05
-6.2219e-05
-1.27905e-05
-6.16939e-05
-1.4772e-05
-6.09221e-05
-1.68324e-05
-5.98888e-05
-1.89808e-05
-5.85828e-05
-2.12216e-05
-5.69961e-05
-2.35535e-05
-5.51231e-05
-2.59695e-05
-5.29586e-05
-2.84567e-05
-5.04973e-05
-3.09963e-05
-4.77337e-05
-3.35635e-05
-4.46623e-05
-3.61288e-05
-4.12788e-05
-3.86581e-05
-3.75804e-05
-4.11148e-05
-3.35667e-05
-4.34618e-05
-2.92402e-05
-4.56648e-05
-2.46056e-05
-4.76949e-05
-1.96697e-05
-1.44436e-05
-4.95329e-05
-1.47343e-06
-5.81048e-05
-3.13815e-06
-6.01044e-05
-4.76503e-06
-6.07759e-05
-6.37792e-06
-6.09729e-05
-8.00095e-06
-6.08908e-05
-9.65593e-06
-6.0564e-05
-1.13618e-05
-5.9988e-05
-1.31337e-05
-5.91502e-05
-1.49827e-05
-5.80399e-05
-1.69151e-05
-5.66503e-05
-1.89334e-05
-5.49778e-05
-2.10354e-05
-5.3021e-05
-2.32146e-05
-5.07793e-05
-2.546e-05
-4.82519e-05
-2.77553e-05
-4.54382e-05
-3.00794e-05
-4.23381e-05
-3.24058e-05
-3.89523e-05
-3.47033e-05
-3.52828e-05
-3.69364e-05
-3.13335e-05
-3.90679e-05
-2.71086e-05
-4.10618e-05
-2.26115e-05
-4.28893e-05
-1.78424e-05
-1.27994e-05
-4.45334e-05
-1.31744e-06
-5.67876e-05
-2.80351e-06
-5.86184e-05
-4.20505e-06
-5.93743e-05
-5.57992e-06
-5.95979e-05
-6.96691e-06
-5.95037e-05
-8.39234e-06
-5.91385e-05
-9.87454e-06
-5.85057e-05
-1.14257e-05
-5.7599e-05
-1.30529e-05
-5.64126e-05
-1.47594e-05
-5.49436e-05
-1.65454e-05
-5.31918e-05
-1.8408e-05
-5.11583e-05
-2.03419e-05
-4.88453e-05
-2.23384e-05
-4.62553e-05
-2.4385e-05
-4.33915e-05
-2.64652e-05
-4.02579e-05
-2.85571e-05
-3.68603e-05
-3.0633e-05
-3.32068e-05
-3.26593e-05
-2.93071e-05
-3.45972e-05
-2.51705e-05
-3.64064e-05
-2.08023e-05
-3.80523e-05
-1.6196e-05
-1.13309e-05
-3.95209e-05
-1.2175e-06
-5.55699e-05
-2.51853e-06
-5.73173e-05
-3.66837e-06
-5.82244e-05
-4.7809e-06
-5.84853e-05
-5.91455e-06
-5.837e-05
-7.09876e-06
-5.79542e-05
-8.34876e-06
-5.72556e-05
-9.67168e-06
-5.6276e-05
-1.10698e-05
-5.50144e-05
-1.25425e-05
-5.34708e-05
-1.40879e-05
-5.16463e-05
-1.57029e-05
-4.95432e-05
-1.73834e-05
-4.71646e-05
-1.9124e-05
-4.45146e-05
-2.09171e-05