/*--------------------------------*- C++ -*----------------------------------*\
  =========                 |
  \\      /  F ield         | OpenFOAM: The Open Source CFD Toolbox
   \\    /   O peration     | Website:  https://openfoam.org
    \\  /    A nd           | Version:  13
     \\/     M anipulation  |
\*---------------------------------------------------------------------------*/
FoamFile
{
    format      ascii;
    class       volVectorField;
    location    "0.3";
    object      U;
}
// * * * * * * * * * * * * * * * * * * * * * * * * * * * * * * * * * * * * * //

dimensions      [0 1 -1 0 0 0 0];

internalField   nonuniform List<vector> 
2268
(
(-0.0176414 0.00556721 0)
(-0.00654006 -0.0073758 0)
(0.0302649 -0.0129394 0)
(0.0710011 -0.0144401 0)
(0.115407 -0.0150485 0)
(0.161252 -0.0152575 0)
(0.207621 -0.0152707 0)
(0.253971 -0.0151593 0)
(0.299906 -0.0149585 0)
(0.345108 -0.0146828 0)
(0.389255 -0.0143181 0)
(0.431908 -0.0138159 0)
(0.472382 -0.0130731 0)
(0.509651 -0.0119501 0)
(0.542088 -0.0101793 0)
(0.567171 -0.00748195 0)
(0.581295 -0.00351575 0)
(0.579238 0.00195943 0)
(0.554287 0.0100508 0)
(0.49798 0.0221212 0)
(0.403017 0.0386211 0)
(0.241688 0.0565353 0)
(0.0958714 0.0536511 0)
(-0.000149397 0.00609098 0)
(0.024704 -0.0181128 0)
(0.0615419 -0.0276088 0)
(0.102147 -0.0311846 0)
(0.145505 -0.0327732 0)
(0.190045 -0.0334553 0)
(0.234955 -0.0336227 0)
(0.279694 -0.0334332 0)
(0.323855 -0.0329746 0)
(0.367108 -0.0322807 0)
(0.4091 -0.0313082 0)
(0.449347 -0.0299198 0)
(0.487086 -0.0278775 0)
(0.521282 -0.0249137 0)
(0.550416 -0.0204646 0)
(0.572137 -0.013822 0)
(0.582948 -0.00403647 0)
(0.577573 0.0101307 0)
(0.549637 0.0301889 0)
(0.491455 0.0578756 0)
(0.39695 0.091697 0)
(0.246775 0.12063 0)
(0.109485 0.106008 0)
(0.0164945 -0.00446663 0)
(0.0461787 -0.0335373 0)
(0.08394 -0.0452557 0)
(0.123798 -0.0501595 0)
(0.165568 -0.0524129 0)
(0.208236 -0.053392 0)
(0.251153 -0.0535898 0)
(0.293821 -0.0532243 0)
(0.335842 -0.0524236 0)
(0.376878 -0.0512297 0)
(0.416556 -0.0495589 0)
(0.454343 -0.0471745 0)
(0.4894 -0.0437014 0)
(0.520678 -0.0387573 0)
(0.54673 -0.031481 0)
(0.565322 -0.020731 0)
(0.573213 -0.00491212 0)
(0.565259 0.0181747 0)
(0.535786 0.0501036 0)
(0.478532 0.0933156 0)
(0.38871 0.14541 0)
(0.252294 0.190891 0)
(0.124742 0.185488 0)
(0.0281738 -0.0223987 0)
(0.0621337 -0.0511586 0)
(0.101503 -0.0634926 0)
(0.140834 -0.0690884 0)
(0.181126 -0.0717537 0)
(0.221953 -0.0729036 0)
(0.262886 -0.0730521 0)
(0.303501 -0.0724462 0)
(0.343425 -0.0712437 0)
(0.382322 -0.0694892 0)
(0.419801 -0.0670493 0)
(0.455288 -0.0635722 0)
(0.487863 -0.0585432 0)
(0.516458 -0.051488 0)
(0.53967 -0.0412387 0)
(0.555312 -0.0262263 0)
(0.560391 -0.00422539 0)
(0.54991 0.0276818 0)
(0.518955 0.0707792 0)
(0.463009 0.127862 0)
(0.378625 0.196002 0)
(0.254472 0.257352 0)
(0.135917 0.271232 0)
(0.0360178 -0.0451667 0)
(0.0735008 -0.0704538 0)
(0.114763 -0.0821442 0)
(0.153875 -0.0878265 0)
(0.192953 -0.0906548 0)
(0.232131 -0.0918861 0)
(0.271227 -0.0919596 0)
(0.309914 -0.0911128 0)
(0.347861 -0.0895191 0)
(0.384743 -0.0872123 0)
(0.420159 -0.0839992 0)
(0.453496 -0.0793953 0)
(0.483764 -0.0727351 0)
(0.50988 -0.0634542 0)
(0.530432 -0.0500379 0)
(0.543156 -0.0305115 0)
(0.545245 -0.00209298 0)
(0.531719 0.038738 0)
(0.498338 0.0922824 0)
(0.44323 0.161358 0)
(0.36484 0.243085 0)
(0.252543 0.319204 0)
(0.142744 0.358126 0)
(0.0418453 -0.071463 0)
(0.0810479 -0.0913032 0)
(0.123926 -0.101476 0)
(0.162952 -0.106612 0)
(0.201062 -0.109291 0)
(0.238821 -0.110474 0)
(0.276281 -0.110428 0)
(0.31322 -0.109336 0)
(0.349361 -0.107363 0)
(0.384388 -0.104504 0)
(0.417894 -0.100469 0)
(0.449235 -0.0946162 0)
(0.477399 -0.0860936 0)
(0.501294 -0.0743209 0)
(0.519397 -0.0574856 0)
(0.529104 -0.0334237 0)
(0.527626 0.000889265 0)
(0.50983 0.0491917 0)
(0.471757 0.111763 0)
(0.41639 0.192158 0)
(0.34581 0.285572 0)
(0.247597 0.375958 0)
(0.14692 0.446011 0)
(0.0468838 -0.102815 0)
(0.0850842 -0.113435 0)
(0.129109 -0.121341 0)
(0.168068 -0.125266 0)
(0.205419 -0.127389 0)
(0.241994 -0.128255 0)
(0.278034 -0.127859 0)
(0.313434 -0.126281 0)
(0.347967 -0.123635 0)
(0.381331 -0.119879 0)
(0.413102 -0.114682 0)
(0.442581 -0.107307 0)
(0.468804 -0.0967832 0)
(0.490654 -0.0826548 0)
(0.506377 -0.062792 0)
(0.512683 -0.0347304 0)
(0.50636 0.00485138 0)
(0.482427 0.0604985 0)
(0.436384 0.129933 0)
(0.380228 0.216704 0)
(0.3218 0.320474 0)
(0.243214 0.425655 0)
(0.15208 0.536822 0)
(0.0512268 -0.135874 0)
(0.0859382 -0.134817 0)
(0.130819 -0.140025 0)
(0.169612 -0.142302 0)
(0.20637 -0.143562 0)
(0.241941 -0.143909 0)
(0.276711 -0.143057 0)
(0.3107 -0.140964 0)
(0.343759 -0.137685 0)
(0.375604 -0.133119 0)
(0.405758 -0.126857 0)
(0.433306 -0.117979 0)
(0.457591 -0.105474 0)
(0.477527 -0.0889806 0)
(0.490641 -0.0656484 0)
(0.49264 -0.0324536 0)
(0.480015 0.0133532 0)
(0.451673 0.0804483 0)
(0.399661 0.155642 0)
(0.341888 0.243523 0)
(0.298932 0.34736 0)
(0.247615 0.461917 0)
(0.174615 0.630633 0)
(-0.742687 0.233797 0)
(-0.973385 0.0901332 0)
(-1.17098 0.00040886 0)
(-1.09627 -0.0515579 0)
(-0.877819 -0.102477 0)
(-0.594953 -0.115458 0)
(-0.310324 -0.107004 0)
(-0.0190574 -0.0965993 0)
(0.213253 -0.0789185 0)
(0.40972 -0.0635334 0)
(0.576496 -0.0505095 0)
(0.705016 -0.0368278 0)
(0.788254 -0.0210557 0)
(0.818108 -0.00215401 0)
(0.785095 0.0191289 0)
(0.676277 0.0466279 0)
(0.481609 0.0778732 0)
(0.15603 0.0935182 0)
(-0.061504 0.00183079 0)
(-0.66925 0.446505 0)
(-0.814192 0.198564 0)
(-0.97026 0.0208131 0)
(-0.856961 -0.0819192 0)
(-0.644584 -0.171372 0)
(-0.39929 -0.191516 0)
(-0.14792 -0.181429 0)
(0.100005 -0.16506 0)
(0.302531 -0.14185 0)
(0.485833 -0.118788 0)
(0.640741 -0.0954465 0)
(0.760023 -0.0684614 0)
(0.836688 -0.035991 0)
(0.862196 0.00296583 0)
(0.827573 0.0493183 0)
(0.723596 0.103917 0)
(0.551297 0.158613 0)
(0.273614 0.178619 0)
(0.0698998 0.037366 0)
(-0.601291 0.682254 0)
(-0.60905 0.268318 0)
(-0.778254 -0.00415367 0)
(-0.629724 -0.148921 0)
(-0.427872 -0.266426 0)
(-0.228115 -0.287383 0)
(-0.0101619 -0.272147 0)
(0.192508 -0.247915 0)
(0.374753 -0.216469 0)
(0.542032 -0.184281 0)
(0.683979 -0.148837 0)
(0.793077 -0.106773 0)
(0.861955 -0.0559784 0)
(0.882557 0.00480932 0)
(0.847234 0.0772124 0)
(0.74836 0.159979 0)
(0.590197 0.241787 0)
(0.350153 0.279559 0)
(0.159751 0.128487 0)
(-0.588132 0.894891 0)
(-0.249496 0.348837 0)
(-0.563624 -0.0182263 0)
(-0.383466 -0.214756 0)
(-0.21032 -0.348795 0)
(-0.0634494 -0.369259 0)
(0.114955 -0.35217 0)
(0.282458 -0.32348 0)
(0.444556 -0.286732 0)
(0.595428 -0.246306 0)
(0.724516 -0.199222 0)
(0.823607 -0.142301 0)
(0.884886 -0.0733902 0)
(0.900552 0.00882716 0)
(0.863832 0.105526 0)
(0.768418 0.214218 0)
(0.617965 0.320648 0)
(0.397507 0.375887 0)
(0.214358 0.24182 0)
(-0.63531 0.962459 0)
(0.311024 0.62494 0)
(-0.289462 -0.0169881 0)
(-0.129809 -0.281052 0)
(-0.00213964 -0.411705 0)
(0.0926247 -0.431831 0)
(0.23049 -0.418054 0)
(0.370916 -0.389166 0)
(0.51335 -0.350035 0)
(0.648361 -0.30308 0)
(0.765093 -0.245564 0)
(0.854608 -0.174684 0)
(0.908646 -0.0884552 0)
(0.91949 0.014217 0)
(0.880842 0.133855 0)
(0.78717 0.26673 0)
(0.641046 0.396217 0)
(0.428809 0.47084 0)
(0.244237 0.368102 0)
(-0.688513 0.944692 0)
(0.281113 0.552134 0)
(0.0753182 0.0316604 0)
(0.10634 -0.335822 0)
(0.182669 -0.452204 0)
(0.234493 -0.475956 0)
(0.338925 -0.470052 0)
(0.456158 -0.44483 0)
(0.580303 -0.405551 0)
(0.700527 -0.353772 0)
(0.805663 -0.287209 0)
(0.886152 -0.203507 0)
(0.933333 -0.100996 0)
(0.939478 0.0210162 0)
(0.898473 0.162319 0)
(0.805126 0.31804 0)
(0.66073 0.469897 0)
(0.451101 0.567015 0)
(0.26197 0.504961 0)
(-0.710216 0.927412 0)
(0.3462 0.469506 0)
(0.356185 -0.0427499 0)
(0.312332 -0.360465 0)
(0.341181 -0.473683 0)
(0.361893 -0.505801 0)
(0.439358 -0.510948 0)
(0.536802 -0.491971 0)
(0.644552 -0.454139 0)
(0.751285 -0.398922 0)
(0.845651 -0.324493 0)
(0.91763 -0.228964 0)
(0.958238 -0.111077 0)
(0.959685 0.0293454 0)
(0.915879 0.191304 0)
(0.821711 0.368969 0)
(0.677144 0.543005 0)
(0.467577 0.66404 0)
(0.273894 0.647903 0)
(-0.793933 1.06093 0)
(1.25831 0.46903 0)
(0.578252 0.0609875 0)
(0.482393 -0.350118 0)
(0.471792 -0.475761 0)
(0.473684 -0.525724 0)
(0.530864 -0.544513 0)
(0.61207 -0.533436 0)
(0.705522 -0.498102 0)
(0.800072 -0.440312 0)
(0.884411 -0.358644 0)
(0.94823 -0.251724 0)
(0.982323 -0.11885 0)
(0.978823 0.0394143 0)
(0.931598 0.221289 0)
(0.835551 0.420284 0)
(0.689409 0.616387 0)
(0.479708 0.7621 0)
(0.284095 0.790226 0)
(0.0530949 -0.166184 0)
(0.083126 -0.157779 0)
(0.129401 -0.162388 0)
(0.167833 -0.163385 0)
(0.203944 -0.163902 0)
(0.23834 -0.163853 0)
(0.271512 -0.162723 0)
(0.303647 -0.160401 0)
(0.334656 -0.156921 0)
(0.364216 -0.152133 0)
(0.391588 -0.145491 0)
(0.415943 -0.135726 0)
(0.436616 -0.123112 0)
(0.453561 -0.104999 0)
(0.465518 -0.0748941 0)
(0.471231 -0.0267361 0)
(0.465523 0.0399113 0)
(0.447411 0.128884 0)
(0.417835 0.226444 0)
(0.346471 0.305222 0)
(0.297468 0.38428 0)
(0.301667 0.490734 0)
(0.354783 0.643098 0)
(0.0324289 -0.243843 0)
(0.0614371 -0.212447 0)
(0.107147 -0.210645 0)
(0.144884 -0.207522 0)
(0.180863 -0.205416 0)
(0.214692 -0.203757 0)
(0.246557 -0.201699 0)
(0.276842 -0.198799 0)
(0.305824 -0.194658 0)
(0.33367 -0.188631 0)
(0.360527 -0.179728 0)
(0.386723 -0.166245 0)
(0.412092 -0.147257 0)
(0.434651 -0.121272 0)
(0.452573 -0.0848726 0)
(0.465245 -0.0338846 0)
(0.47196 0.0351468 0)
(0.473405 0.125556 0)
(0.471728 0.232589 0)
(0.46498 0.336642 0)
(0.409459 0.424091 0)
(0.374722 0.480133 0)
(0.42042 0.538774 0)
(0.00871817 -0.26971 0)
(0.0398338 -0.258197 0)
(0.0788661 -0.255545 0)
(0.115664 -0.251381 0)
(0.151459 -0.246885 0)
(0.185886 -0.242174 0)
(0.21892 -0.236905 0)
(0.250726 -0.230763 0)
(0.281479 -0.223447 0)
(0.311323 -0.214527 0)
(0.340378 -0.203265 0)
(0.368777 -0.18849 0)
(0.396423 -0.168744 0)
(0.422644 -0.141542 0)
(0.446637 -0.102924 0)
(0.468126 -0.0489631 0)
(0.487442 0.0233574 0)
(0.505696 0.115314 0)
(0.524502 0.224579 0)
(0.544292 0.338989 0)
(0.561652 0.43326 0)
(0.515512 0.481288 0)
(0.512095 0.501775 0)
(0.00988079 -0.28657 0)
(0.0381595 -0.287421 0)
(0.0723323 -0.284468 0)
(0.10622 -0.280113 0)
(0.139899 -0.275209 0)
(0.172881 -0.270014 0)
(0.205011 -0.264414 0)
(0.236284 -0.258168 0)
(0.266755 -0.250953 0)
(0.296509 -0.242278 0)
(0.325669 -0.231346 0)
(0.354432 -0.216909 0)
(0.383074 -0.197128 0)
(0.411723 -0.169173 0)
(0.440305 -0.129403 0)
(0.468824 -0.0743434 0)
(0.49776 -0.00170932 0)
(0.52819 0.0890281 0)
(0.562051 0.195715 0)
(0.600848 0.311118 0)
(0.645649 0.417998 0)
(0.687924 0.483946 0)
(0.691494 0.477789 0)
(0.0142711 -0.310777 0)
(0.0414505 -0.31928 0)
(0.0736712 -0.317169 0)
(0.105476 -0.312834 0)
(0.137179 -0.307573 0)
(0.168373 -0.301794 0)
(0.198896 -0.295516 0)
(0.228659 -0.288582 0)
(0.257628 -0.280724 0)
(0.285833 -0.271509 0)
(0.313389 -0.260219 0)
(0.340606 -0.245769 0)
(0.368182 -0.226422 0)
(0.396978 -0.199242 0)
(0.427478 -0.160413 0)
(0.45968 -0.106504 0)
(0.493684 -0.0357981 0)
(0.530593 0.051328 0)
(0.572152 0.151962 0)
(0.621252 0.259807 0)
(0.680916 0.362308 0)
(0.750483 0.435878 0)
(0.820914 0.447068 0)
(0.0181045 -0.338635 0)
(0.0452669 -0.350786 0)
(0.0772925 -0.348648 0)
(0.107792 -0.344032 0)
(0.137951 -0.33833 0)
(0.167479 -0.331956 0)
(0.196251 -0.324943 0)
(0.22413 -0.31716 0)
(0.250985 -0.308404 0)
(0.276757 -0.298342 0)
(0.301458 -0.286406 0)
(0.32537 -0.271894 0)
(0.349609 -0.253664 0)
(0.375829 -0.228676 0)
(0.405045 -0.19241 0)
(0.437033 -0.140907 0)
(0.470982 -0.0727299 0)
(0.507781 0.0102594 0)
(0.54959 0.105147 0)
(0.600638 0.203594 0)
(0.665484 0.292636 0)
(0.748031 0.355217 0)
(0.849382 0.359933 0)
(0.0230684 -0.371819 0)
(0.0491289 -0.384231 0)
(0.0817174 -0.380745 0)
(0.111027 -0.375177 0)
(0.139747 -0.368644 0)
(0.167652 -0.361422 0)
(0.194636 -0.353459 0)
(0.2205 -0.344564 0)
(0.245009 -0.334558 0)
(0.267992 -0.323186 0)
(0.289213 -0.309924 0)
(0.308575 -0.294622 0)
(0.327444 -0.277481 0)
(0.348467 -0.25531 0)
(0.373105 -0.22215 0)
(0.40065 -0.172625 0)
(0.429612 -0.105213 0)
(0.461132 -0.0261805 0)
(0.501476 0.0598053 0)
(0.559472 0.146481 0)
(0.637212 0.2165 0)
(0.733511 0.253577 0)
(0.843281 0.243867 0)
(0.0318621 -0.412192 0)
(0.0519255 -0.418221 0)
(0.0851218 -0.41263 0)
(0.113024 -0.40592 0)
(0.140389 -0.398377 0)
(0.166772 -0.390116 0)
(0.191994 -0.380902 0)
(0.215954 -0.370413 0)
(0.238326 -0.358482 0)
(0.258753 -0.344957 0)
(0.276716 -0.329262 0)
(0.291541 -0.311732 0)
(0.304431 -0.294761 0)
(0.318545 -0.275264 0)
(0.33575 -0.245748 0)
(0.35542 -0.198937 0)
(0.378607 -0.133774 0)
(0.412895 -0.0611175 0)
(0.463295 0.00773668 0)
(0.529165 0.0696816 0)
(0.611011 0.118577 0)
(0.705919 0.145007 0)
(0.808117 0.139972 0)
(0.0458985 -0.448816 0)
(0.0540361 -0.445817 0)
(0.0863537 -0.43764 0)
(0.112589 -0.429297 0)
(0.138445 -0.420453 0)
(0.163299 -0.410915 0)
(0.186936 -0.40051 0)
(0.208949 -0.388747 0)
(0.229222 -0.375238 0)
(0.247496 -0.360004 0)
(0.263227 -0.342178 0)
(0.275769 -0.32198 0)
(0.285311 -0.304615 0)
(0.294008 -0.287115 0)
(0.303427 -0.259389 0)
(0.316938 -0.218397 0)
(0.343412 -0.167932 0)
(0.38603 -0.11473 0)
(0.440407 -0.0603133 0)
(0.5071 -0.0092023 0)
(0.585792 0.0308282 0)
(0.673803 0.0512752 0)
(0.766965 0.0465069 0)
(0.294457 -0.489116 0)
(0.0380014 -0.451061 0)
(0.082596 -0.439339 0)
(0.104389 -0.436769 0)
(0.130431 -0.428641 0)
(0.154994 -0.418875 0)
(0.177193 -0.40729 0)
(0.197329 -0.393314 0)
(0.215796 -0.376364 0)
(0.229967 -0.357138 0)
(0.242188 -0.337883 0)
(0.256416 -0.315123 0)
(0.269059 -0.298183 0)
(0.271706 -0.282825 0)
(0.277042 -0.258583 0)
(0.302219 -0.231263 0)
(0.334516 -0.195784 0)
(0.375804 -0.158057 0)
(0.42896 -0.118219 0)
(0.493326 -0.080906 0)
(0.56752 -0.0527434 0)
(0.649443 -0.0393272 0)
(0.736729 -0.0453698 0)
(0.148334 -0.675159 0)
(0.0341823 -0.401145 0)
(0.0947289 -0.495604 0)
(0.108431 -0.492174 0)
(0.128293 -0.476981 0)
(0.146436 -0.462027 0)
(0.161478 -0.447049 0)
(0.173545 -0.433531 0)
(0.183935 -0.420403 0)
(0.194068 -0.407336 0)
(0.206951 -0.389795 0)
(0.22402 -0.364237 0)
(0.244688 -0.333188 0)
(0.265667 -0.312132 0)
(0.279419 -0.282607 0)
(0.282264 -0.239336 0)
(0.326098 -0.21278 0)
(0.37208 -0.187823 0)
(0.425125 -0.15756 0)
(0.488454 -0.129262 0)
(0.560429 -0.108929 0)
(0.638055 -0.100695 0)
(0.721108 -0.108422 0)
(-0.0142474 -0.696599 0)
(0.00398286 -0.429148 0)
(0.0558046 -0.514055 0)
(0.0695643 -0.525766 0)
(0.0867183 -0.517407 0)
(0.103143 -0.501307 0)
(0.119008 -0.482295 0)
(0.134741 -0.460317 0)
(0.15016 -0.434856 0)
(0.165342 -0.411701 0)
(0.180712 -0.391921 0)
(0.197734 -0.370036 0)
(0.218968 -0.345478 0)
(0.240322 -0.323751 0)
(0.261118 -0.318347 0)
(0.298013 -0.332447 0)
(0.311769 -0.281098 0)
(0.337944 -0.212629 0)
(0.393709 -0.169614 0)
(0.46503 -0.136413 0)
(0.550514 -0.115258 0)
(0.642043 -0.113132 0)
(0.737704 -0.124913 0)
(-0.0385704 -0.641251 0)
(-0.0022751 -0.498182 0)
(0.0349198 -0.516105 0)
(0.0454179 -0.513667 0)
(0.0567802 -0.502082 0)
(0.0685677 -0.489059 0)
(0.0815177 -0.473733 0)
(0.0956225 -0.455696 0)
(0.111564 -0.437859 0)
(0.12901 -0.421019 0)
(0.146554 -0.404486 0)
(0.164534 -0.386864 0)
(0.185326 -0.367064 0)
(0.210201 -0.346654 0)
(0.237387 -0.329456 0)
(0.266333 -0.329351 0)
(0.29563 -0.343839 0)
(0.343978 -0.366515 0)
(0.403898 -0.394314 0)
(0.471647 -0.406548 0)
(0.543111 -0.40728 0)
(0.608184 -0.38621 0)
(0.663589 -0.39069 0)
(-0.0296585 -0.617832 0)
(-0.00240162 -0.538282 0)
(0.0190474 -0.531846 0)
(0.0270642 -0.52212 0)
(0.0346831 -0.509843 0)
(0.0425947 -0.496143 0)
(0.0515395 -0.48179 0)
(0.0625657 -0.466816 0)
(0.076236 -0.451237 0)
(0.0921374 -0.435694 0)
(0.109635 -0.420578 0)
(0.128884 -0.405239 0)
(0.15102 -0.389216 0)
(0.177676 -0.373777 0)
(0.209139 -0.361949 0)
(0.243913 -0.35394 0)
(0.281124 -0.344976 0)
(0.324182 -0.351426 0)
(0.369138 -0.357868 0)
(0.41371 -0.359013 0)
(0.458837 -0.354945 0)
(0.508819 -0.350795 0)
(0.566815 -0.341687 0)
(-0.0197715 -0.603201 0)
(-0.0051926 -0.55867 0)
(0.00463155 -0.542654 0)
(0.00941452 -0.529117 0)
(0.0138996 -0.516299 0)
(0.0189469 -0.503691 0)
(0.0253899 -0.490947 0)
(0.0338868 -0.477918 0)
(0.0449028 -0.464905 0)
(0.0585726 -0.452124 0)
(0.074832 -0.439598 0)
(0.0937383 -0.427125 0)
(0.115891 -0.41474 0)
(0.142021 -0.403038 0)
(0.171784 -0.39386 0)
(0.203699 -0.38817 0)
(0.238192 -0.385435 0)
(0.273373 -0.386583 0)
(0.305223 -0.388981 0)
(0.334415 -0.388437 0)
(0.363818 -0.384186 0)
(0.395663 -0.375585 0)
(0.428862 -0.372492 0)
(-0.014228 -0.591346 0)
(-0.00990236 -0.565675 0)
(-0.00792114 -0.547521 0)
(-0.00653411 -0.533099 0)
(-0.00472877 -0.520811 0)
(-0.00197646 -0.50953 0)
(0.00232145 -0.498666 0)
(0.00864739 -0.487964 0)
(0.0173547 -0.477406 0)
(0.0286367 -0.467081 0)
(0.0425665 -0.457085 0)
(0.059223 -0.447476 0)
(0.0788164 -0.438357 0)
(0.101473 -0.430258 0)
(0.126687 -0.424019 0)
(0.153324 -0.419978 0)
(0.180482 -0.417625 0)
(0.20628 -0.417821 0)
(0.228771 -0.417841 0)
(0.248166 -0.415327 0)
(0.265564 -0.40959 0)
(0.282229 -0.401944 0)
(0.296877 -0.394572 0)
(-0.01192 -0.579407 0)
(-0.0145441 -0.564278 0)
(-0.0177729 -0.547048 0)
(-0.0195544 -0.533201 0)
(-0.0202592 -0.521835 0)
(-0.0197015 -0.511938 0)
(-0.0175621 -0.502894 0)
(-0.0135263 -0.494377 0)
(-0.00734743 -0.486253 0)
(0.00113501 -0.478486 0)
(0.0119959 -0.471093 0)
(0.0252221 -0.464113 0)
(0.0407855 -0.457629 0)
(0.0584808 -0.451875 0)
(0.077705 -0.447195 0)
(0.0974774 -0.44364 0)
(0.11674 -0.440896 0)
(0.134065 -0.438689 0)
(0.14824 -0.435546 0)
(0.15907 -0.430141 0)
(0.166737 -0.421891 0)
(0.171288 -0.410929 0)
(0.171703 -0.398426 0)
(-0.0113225 -0.566129 0)
(-0.0184422 -0.557819 0)
(-0.0252442 -0.542917 0)
(-0.0297924 -0.530568 0)
(-0.0328645 -0.520547 0)
(-0.0344922 -0.51213 0)
(-0.0345779 -0.504787 0)
(-0.0329658 -0.498188 0)
(-0.0295203 -0.492146 0)
(-0.024163 -0.486556 0)
(-0.016886 -0.481343 0)
(-0.00776856 -0.476446 0)
(0.00302875 -0.471815 0)
(0.0151494 -0.467458 0)
(0.02797 -0.463383 0)
(0.0406511 -0.459435 0)
(0.0522361 -0.455255 0)
(0.0616479 -0.450395 0)
(0.0679885 -0.443935 0)
(0.0708313 -0.435045 0)
(0.0699457 -0.423228 0)
(0.0651081 -0.408321 0)
(0.0556376 -0.390454 0)
(-0.0113834 -0.551315 0)
(-0.0214196 -0.548075 0)
(-0.0307874 -0.535957 0)
(-0.0376926 -0.525518 0)
(-0.0429656 -0.517054 0)
(-0.0467516 -0.510128 0)
(-0.0491058 -0.504335 0)
(-0.0500025 -0.499375 0)
(-0.0494089 -0.495034 0)
(-0.0473279 -0.491142 0)
(-0.043824 -0.487549 0)
(-0.0390449 -0.484095 0)
(-0.0332391 -0.48061 0)
(-0.026794 -0.476911 0)
(-0.0202728 -0.472794 0)
(-0.0143872 -0.467963 0)
(-0.00993308 -0.462016 0)
(-0.00774341 -0.454471 0)
(-0.00853007 -0.444684 0)
(-0.0127647 -0.432061 0)
(-0.0207969 -0.416183 0)
(-0.0328791 -0.396837 0)
(-0.0493528 -0.373991 0)
(-0.0115705 -0.535205 0)
(-0.0235332 -0.536078 0)
(-0.034797 -0.526757 0)
(-0.0436833 -0.518323 0)
(-0.0509599 -0.511447 0)
(-0.056819 -0.505928 0)
(-0.0614124 -0.501483 0)
(-0.0648124 -0.497853 0)
(-0.0670716 -0.494814 0)
(-0.0682644 -0.492153 0)
(-0.0685139 -0.48965 0)
(-0.068012 -0.487059 0)
(-0.0670362 -0.484101 0)
(-0.0659653 -0.48047 0)
(-0.0652892 -0.475828 0)
(-0.065589 -0.469789 0)
(-0.0674951 -0.461921 0)
(-0.071639 -0.451759 0)
(-0.0785668 -0.438803 0)
(-0.0886833 -0.42261 0)
(-0.102309 -0.402863 0)
(-0.119636 -0.379406 0)
(-0.140673 -0.352242 0)
(-0.011669 -0.51819 0)
(-0.0249087 -0.522507 0)
(-0.0375872 -0.515782 0)
(-0.0481149 -0.509261 0)
(-0.0571689 -0.503879 0)
(-0.0649515 -0.499614 0)
(-0.0716705 -0.496283 0)
(-0.0774658 -0.493671 0)
(-0.0824543 -0.491552 0)
(-0.0867645 -0.489684 0)
(-0.0905588 -0.487794 0)
(-0.0940502 -0.485568 0)
(-0.0975125 -0.482653 0)
(-0.101286 -0.478657 0)
(-0.105775 -0.473165 0)
(-0.111435 -0.465741 0)
(-0.118737 -0.455942 0)
(-0.128137 -0.443337 0)
(-0.140024 -0.42752 0)
(-0.154688 -0.40816 0)
(-0.172358 -0.385043 0)
(-0.193134 -0.358097 0)
(-0.216768 -0.32739 0)
(-0.0116258 -0.500647 0)
(-0.025687 -0.507843 0)
(-0.0394018 -0.503418 0)
(-0.051257 -0.498615 0)
(-0.0618375 -0.494557 0)
(-0.0713361 -0.491351 0)
(-0.0799882 -0.488892 0)
(-0.0879761 -0.487001 0)
(-0.0954595 -0.485457 0)
(-0.102602 -0.483999 0)
(-0.109587 -0.482319 0)
(-0.116629 -0.480061 0)
(-0.123977 -0.476823 0)
(-0.131917 -0.472165 0)
(-0.140764 -0.465634 0)
(-0.15085 -0.456774 0)
(-0.162506 -0.445152 0)
(-0.17603 -0.430374 0)
(-0.191666 -0.41211 0)
(-0.209577 -0.390119 0)
(-0.229886 -0.364278 0)
(-0.252606 -0.334598 0)
(-0.2773 -0.301217 0)
(-0.0114478 -0.482899 0)
(-0.0259887 -0.492457 0)
(-0.0404237 -0.489998 0)
(-0.0533107 -0.486672 0)
(-0.0651484 -0.483731 0)
(-0.0761102 -0.481373 0)
(-0.0864399 -0.47955 0)
(-0.0963418 -0.478111 0)
(-0.106 -0.476843 0)
(-0.115596 -0.475478 0)
(-0.125319 -0.47369 0)
(-0.13537 -0.471101 0)
(-0.145963 -0.467286 0)
(-0.157321 -0.461789 0)
(-0.169672 -0.454144 0)
(-0.183237 -0.443902 0)
(-0.198219 -0.43065 0)
(-0.214784 -0.414038 0)
(-0.233045 -0.393798 0)
(-0.253052 -0.369763 0)
(-0.274831 -0.341888 0)
(-0.298316 -0.310253 0)
(-0.322961 -0.275053 0)
(-0.0111572 -0.465212 0)
(-0.0259067 -0.476653 0)
(-0.0407877 -0.475821 0)
(-0.0544257 -0.473716 0)
(-0.0672412 -0.471674 0)
(-0.0793835 -0.469956 0)
(-0.0910917 -0.468552 0)
(-0.102577 -0.467334 0)
(-0.114034 -0.466098 0)
(-0.125648 -0.464576 0)
(-0.137601 -0.462442 0)
(-0.150073 -0.459313 0)
(-0.163237 -0.454763 0)
(-0.177255 -0.448343 0)
(-0.192275 -0.439597 0)
(-0.208419 -0.428096 0)
(-0.225783 -0.41346 0)
(-0.244421 -0.395381 0)
(-0.26434 -0.373645 0)
(-0.285494 -0.348147 0)
(-0.307833 -0.318899 0)
(-0.33123 -0.286033 0)
(-0.355086 -0.249785 0)
(-0.0107758 -0.447797 0)
(-0.0255108 -0.460686 0)
(-0.0405935 -0.46116 0)
(-0.0547166 -0.460029 0)
(-0.0682293 -0.458677 0)
(-0.0812547 -0.457407 0)
(-0.0940191 -0.456234 0)
(-0.10673 -0.455046 0)
(-0.11958 -0.453651 0)
(-0.13275 -0.451788 0)
(-0.146409 -0.449139 0)
(-0.16071 -0.445337 0)
(-0.175784 -0.439971 0)
(-0.19174 -0.432612 0)
(-0.208652 -0.422833 0)
(-0.226564 -0.410237 0)
(-0.245482 -0.39448 0)
(-0.265373 -0.375297 0)
(-0.286158 -0.352516 0)
(-0.307723 -0.32608 0)
(-0.329956 -0.296045 0)
(-0.352694 -0.262575 0)
(-0.37533 -0.22593 0)
(-0.0103181 -0.430834 0)
(-0.0248501 -0.44478 0)
(-0.0399168 -0.446267 0)
(-0.054276 -0.44588 0)
(-0.0682126 -0.445031 0)
(-0.0818232 -0.444042 0)
(-0.0953161 -0.442945 0)
(-0.108888 -0.441639 0)
(-0.122724 -0.439942 0)
(-0.136992 -0.437609 0)
(-0.151844 -0.434341 0)
(-0.167407 -0.429791 0)
(-0.183775 -0.423582 0)
(-0.201006 -0.415317 0)
(-0.219121 -0.404606 0)
(-0.238095 -0.391092 0)
(-0.257868 -0.374469 0)
(-0.27834 -0.354509 0)
(-0.299372 -0.331081 0)
(-0.320798 -0.304158 0)
(-0.342467 -0.273823 0)
(-0.364192 -0.240259 0)
(-0.385384 -0.203735 0)
(-0.00979422 -0.414472 0)
(-0.023963 -0.429128 0)
(-0.0388189 -0.431368 0)
(-0.0531845 -0.431526 0)
(-0.0672863 -0.431017 0)
(-0.0811951 -0.430173 0)
(-0.0950984 -0.42903 0)
(-0.109179 -0.427497 0)
(-0.123607 -0.425402 0)
(-0.138539 -0.422519 0)
(-0.154107 -0.418571 0)
(-0.170412 -0.413247 0)
(-0.187518 -0.406206 0)
(-0.205443 -0.397094 0)
(-0.224163 -0.385566 0)
(-0.243606 -0.371304 0)
(-0.263661 -0.354043 0)
(-0.28418 -0.333591 0)
(-0.304985 -0.309844 0)
(-0.325876 -0.282797 0)
(-0.346676 -0.252548 0)
(-0.36719 -0.219284 0)
(-0.386865 -0.18327 0)
(-0.00921049 -0.398842 0)
(-0.0228789 -0.413899 0)
(-0.0373533 -0.416669 0)
(-0.051517 -0.417203 0)
(-0.0655452 -0.416903 0)
(-0.0794846 -0.416095 0)
(-0.0935008 -0.414819 0)
(-0.10776 -0.412984 0)
(-0.12242 -0.410432 0)
(-0.13762 -0.406955 0)
(-0.153474 -0.402308 0)
(-0.170063 -0.396214 0)
(-0.187423 -0.388378 0)
(-0.205544 -0.378493 0)
(-0.224368 -0.366259 0)
(-0.243791 -0.351403 0)
(-0.263669 -0.333698 0)
(-0.283822 -0.312983 0)
(-0.304045 -0.289174 0)
(-0.324122 -0.262283 0)
(-0.343861 -0.232408 0)
(-0.363063 -0.199731 0)
(-0.381223 -0.164508 0)
(-0.0085734 -0.38406 0)
(-0.0216247 -0.39924 0)
(-0.0355704 -0.402353 0)
(-0.0493461 -0.403126 0)
(-0.0630854 -0.40293 0)
(-0.0768124 -0.402081 0)
(-0.0906723 -0.400611 0)
(-0.104815 -0.39843 0)
(-0.119384 -0.395392 0)
(-0.134503 -0.391308 0)
(-0.150271 -0.385966 0)
(-0.166751 -0.37913 0)
(-0.183958 -0.370549 0)
(-0.201862 -0.359967 0)
(-0.220383 -0.347131 0)
(-0.239394 -0.331812 0)
(-0.258733 -0.313818 0)
(-0.278203 -0.293016 0)
(-0.297585 -0.269339 0)
(-0.316655 -0.242803 0)
(-0.335214 -0.213506 0)
(-0.35307 -0.181616 0)
(-0.369765 -0.147368 0)
(-0.00789189 -0.370226 0)
(-0.0202269 -0.385274 0)
(-0.0335212 -0.388578 0)
(-0.046745 -0.389482 0)
(-0.0600038 -0.389316 0)
(-0.0733028 -0.388374 0)
(-0.0867687 -0.386674 0)
(-0.100537 -0.384127 0)
(-0.114736 -0.380594 0)
(-0.129479 -0.375911 0)
(-0.14485 -0.369898 0)
(-0.160895 -0.362359 0)
(-0.177617 -0.353092 0)
(-0.194971 -0.341888 0)
(-0.212864 -0.328541 0)
(-0.23116 -0.312863 0)
(-0.249684 -0.294699 0)
(-0.268235 -0.273937 0)
(-0.28659 -0.250526 0)
(-0.304522 -0.224482 0)
(-0.321836 -0.195894 0)
(-0.338342 -0.164913 0)
(-0.353632 -0.131751 0)
(-0.00718159 -0.357423 0)
(-0.0187142 -0.372099 0)
(-0.0312601 -0.37548 0)
(-0.0437877 -0.37644 0)
(-0.0563974 -0.376252 0)
(-0.0690795 -0.375185 0)
(-0.0819464 -0.373238 0)
(-0.0951208 -0.370321 0)
(-0.10872 -0.366303 0)
(-0.122844 -0.361042 0)
(-0.137564 -0.354392 0)
(-0.152915 -0.346198 0)
(-0.16889 -0.336303 0)
(-0.185436 -0.324544 0)
(-0.202453 -0.310762 0)
(-0.219803 -0.294809 0)
(-0.23731 -0.27656 0)
(-0.254773 -0.255925 0)
(-0.271973 -0.232865 0)
(-0.288686 -0.207394 0)
(-0.30472 -0.17959 0)
(-0.319897 -0.149582 0)
(-0.333853 -0.117557 0)
(-0.0064698 -0.345709 0)
(-0.0171205 -0.359791 0)
(-0.0288467 -0.363176 0)
(-0.0405496 -0.364145 0)
(-0.0523611 -0.363907 0)
(-0.0642621 -0.362698 0)
(-0.0763558 -0.3605 0)
(-0.0887552 -0.357218 0)
(-0.101567 -0.352731 0)
(-0.114878 -0.346922 0)
(-0.128751 -0.339674 0)
(-0.14321 -0.330875 0)
(-0.15824 -0.320408 0)
(-0.173785 -0.308156 0)
(-0.189746 -0.294001 0)
(-0.205986 -0.277832 0)
(-0.222336 -0.259554 0)
(-0.238599 -0.2391 0)
(-0.254564 -0.216438 0)
(-0.270015 -0.191581 0)
(-0.284764 -0.16459 0)
(-0.298641 -0.135575 0)
(-0.311328 -0.104693 0)
(-0.00580002 -0.335119 0)
(-0.0154836 -0.348405 0)
(-0.0263458 -0.351766 0)
(-0.0371057 -0.352727 0)
(-0.0479853 -0.352428 0)
(-0.0589625 -0.35107 0)
(-0.0701372 -0.348621 0)
(-0.0816152 -0.344982 0)
(-0.0934924 -0.340047 0)
(-0.105845 -0.33372 0)
(-0.118723 -0.325917 0)
(-0.132143 -0.31656 0)
(-0.146085 -0.305573 0)
(-0.160493 -0.292879 0)
(-0.175273 -0.278398 0)
(-0.190296 -0.262055 0)
(-0.205401 -0.243782 0)
(-0.220402 -0.223534 0)
(-0.235097 -0.201286 0)
(-0.249278 -0.17705 0)
(-0.262759 -0.150874 0)
(-0.27538 -0.12284 0)
(-0.286868 -0.0930744 0)
(-0.00523894 -0.325652 0)
(-0.0138468 -0.33797 0)
(-0.0238276 -0.341339 0)
(-0.0335294 -0.342305 0)
(-0.043354 -0.341945 0)
(-0.0532829 -0.340435 0)
(-0.0634179 -0.337733 0)
(-0.0738593 -0.333744 0)
(-0.0846916 -0.328378 0)
(-0.0959778 -0.321563 0)
(-0.107755 -0.313243 0)
(-0.120032 -0.303373 0)
(-0.132788 -0.291913 0)
(-0.145968 -0.278819 0)
(-0.159487 -0.264046 0)
(-0.173228 -0.247551 0)
(-0.187045 -0.229295 0)
(-0.200765 -0.209252 0)
(-0.214195 -0.187412 0)
(-0.227133 -0.163784 0)
(-0.239394 -0.138401 0)
(-0.250818 -0.111318 0)
(-0.26117 -0.0826186 0)
(-0.0048815 -0.317275 0)
(-0.0122499 -0.328498 0)
(-0.0213652 -0.33198 0)
(-0.0298887 -0.332991 0)
(-0.0385425 -0.332576 0)
(-0.0473145 -0.330905 0)
(-0.0563125 -0.32794 0)
(-0.0656296 -0.323601 0)
(-0.0753363 -0.317816 0)
(-0.085479 -0.310539 0)
(-0.0960816 -0.301739 0)
(-0.107145 -0.291399 0)
(-0.118646 -0.279504 0)
(-0.130538 -0.266042 0)
(-0.142748 -0.250997 0)
(-0.155177 -0.234354 0)
(-0.167696 -0.216104 0)
(-0.18015 -0.196243 0)
(-0.192358 -0.174779 0)
(-0.204119 -0.151727 0)
(-0.21524 -0.127106 0)
(-0.225553 -0.100936 0)
(-0.234848 -0.0732485 0)
(-0.00487994 -0.309859 0)
(-0.0107283 -0.319986 0)
(-0.019036 -0.323779 0)
(-0.0262443 -0.324899 0)
(-0.0336156 -0.324431 0)
(-0.0411384 -0.322576 0)
(-0.0489246 -0.319325 0)
(-0.0570544 -0.314624 0)
(-0.0655785 -0.308427 0)
(-0.0745236 -0.300711 0)
(-0.0838981 -0.291465 0)
(-0.093695 -0.280693 0)
(-0.103893 -0.268399 0)
(-0.114454 -0.254591 0)
(-0.125323 -0.239279 0)
(-0.136424 -0.222473 0)
(-0.147653 -0.204192 0)
(-0.158879 -0.184461 0)
(-0.169937 -0.163315 0)
(-0.180628 -0.140784 0)
(-0.190741 -0.116886 0)
(-0.200068 -0.0916022 0)
(-0.208402 -0.0648818 0)
(-0.00555676 -0.303024 0)
(-0.00933919 -0.312449 0)
(-0.0169263 -0.316862 0)
(-0.0226471 -0.318157 0)
(-0.0286269 -0.317609 0)
(-0.0348277 -0.315523 0)
(-0.041351 -0.311945 0)
(-0.0482525 -0.306862 0)
(-0.0555551 -0.300257 0)
(-0.0632617 -0.292124 0)
(-0.0713645 -0.282468 0)
(-0.07985 -0.2713 0)
(-0.0886998 -0.258637 0)
(-0.097889 -0.2445 0)
(-0.107384 -0.228912 0)
(-0.117136 -0.211907 0)
(-0.12708 -0.19353 0)
(-0.137117 -0.173841 0)
(-0.147113 -0.152911 0)
(-0.156878 -0.130813 0)
(-0.166168 -0.107582 0)
(-0.174709 -0.0831732 0)
(-0.182228 -0.0574108 0)
(-0.00767969 -0.296146 0)
(-0.00827913 -0.305958 0)
(-0.0151292 -0.311399 0)
(-0.019127 -0.312908 0)
(-0.023614 -0.312202 0)
(-0.0284484 -0.309798 0)
(-0.0336862 -0.305835 0)
(-0.0393386 -0.300348 0)
(-0.0453923 -0.293341 0)
(-0.0518238 -0.284819 0)
(-0.0586109 -0.27479 0)
(-0.0657357 -0.263266 0)
(-0.0731848 -0.250265 0)
(-0.080948 -0.235809 0)
(-0.0890156 -0.219929 0)
(-0.0973745 -0.202672 0)
(-0.106002 -0.184103 0)
(-0.114857 -0.164318 0)
(-0.123855 -0.143443 0)
(-0.132844 -0.121618 0)
(-0.141567 -0.0989545 0)
(-0.14962 -0.0754259 0)
(-0.156547 -0.0506861 0)
(-0.0126145 -0.289172 0)
(-0.00791348 -0.300607 0)
(-0.0136954 -0.30755 0)
(-0.0156797 -0.309276 0)
(-0.0185965 -0.308262 0)
(-0.0220636 -0.305417 0)
(-0.0260262 -0.301006 0)
(-0.0304261 -0.295098 0)
(-0.035208 -0.287709 0)
(-0.0403248 -0.278838 0)
(-0.0457438 -0.268484 0)
(-0.0514461 -0.25665 0)
(-0.0574251 -0.243344 0)
(-0.0636846 -0.228584 0)
(-0.0702381 -0.212396 0)
(-0.0771075 -0.194826 0)
(-0.0843221 -0.175949 0)
(-0.0919107 -0.155884 0)
(-0.0998833 -0.134812 0)
(-0.108189 -0.112984 0)
(-0.116623 -0.0906807 0)
(-0.12464 -0.0680434 0)
(-0.131341 -0.0445494 0)
(-0.0218247 -0.283203 0)
(-0.00826772 -0.297132 0)
(-0.0125467 -0.305657 0)
(-0.0122878 -0.307352 0)
(-0.0135965 -0.305766 0)
(-0.0157448 -0.302333 0)
(-0.0184731 -0.297426 0)
(-0.0216265 -0.291113 0)
(-0.025111 -0.283387 0)