# vtk DataFile Version 2.0
sampleSurface
ASCII
DATASET POLYDATA
POINTS 1819 float
-0.00731274 5e-05 0 -0.0075 5e-05 0 -0.0075 0 0 -0.00731274 0
0 -0.00712548 5e-05 0 -0.00712548 0 0 -0.00693822 5e-05 0
-0.00693822 0 0 -0.00675095 5e-05 0 -0.00675095 0 0 -0.00656369
5e-05 0 -0.00656369 0 0 -0.00637669 5e-05 0 -0.00637669 0
0 -0.00619136 5e-05 0 -0.00619135 0 0 -0.006 0 0
-0.006 5e-05 0 -0.00731274 0.0001 0 -0.0075 0.0001 0 -0.00712548
0.0001 0 -0.00693822 0.0001 0 -0.00675095 0.0001 0 -0.00656369 0.0001
0 -0.00637669 0.0001 0 -0.00619137 0.0001 0 -0.006 0.0001 0
-0.00731274 0.00015 0 -0.0075 0.00015 0 -0.00712548 0.00015 0 -0.00693822
0.00015 0 -0.00675095 0.00015 0 -0.00656369 0.00015 0 -0.00637668 0.00015
0 -0.00619139 0.00015 0 -0.006 0.00015 0 -0.00731274 0.0002 0
-0.0075 0.0002 0 -0.00712548 0.0002 0 -0.00693822 0.0002 0 -0.00675095
0.0002 0 -0.00656369 0.0002 0 -0.00637668 0.0002 0 -0.00619143 0.0002
0 -0.006 0.0002 0 -0.00731274 0.00025 0 -0.0075 0.00025 0
-0.00712548 0.00025 0 -0.00693822 0.00025 0 -0.00675095 0.00025 0 -0.00656369
0.00025 0 -0.00637667 0.00025 0 -0.00619147 0.00025 0 -0.006 0.00025
0 -0.00731274 0.0003 0 -0.0075 0.0003 0 -0.00712548 0.0003 0
-0.00693822 0.0003 0 -0.00675095 0.0003 0 -0.00656369 0.0003 0 -0.00637666
0.0003 0 -0.00619153 0.0003 0 -0.006 0.0003 0 -0.00731274 0.00035
0 -0.0075 0.00035 0 -0.00712548 0.00035 0 -0.00693822 0.00035 0
-0.00675095 0.00035 0 -0.00656369 0.00035 0 -0.00637664 0.00035 0 -0.00619159
0.00035 0 -0.006 0.00035 0 -0.00731274 0.0004 0 -0.0075 0.0004
0 -0.00712548 0.0004 0 -0.00693822 0.0004 0 -0.00675095 0.0004 0
-0.00656369 0.0004 0 -0.00637663 0.0004 0 -0.00619167 0.0004 0 -0.006
0.0004 0 -0.00731274 0.00045 0 -0.0075 0.00045 0 -0.00712548 0.00045
0 -0.00693822 0.00045 0 -0.00675095 0.00045 0 -0.00656369 0.00045 0
-0.00637661 0.00045 0 -0.00619176 0.00045 0 -0.006 0.00045 0 -0.00731274
0.0005 0 -0.0075 0.0005 0 -0.00712548 0.0005 0 -0.00693822 0.0005
0 -0.00675095 0.0005 0 -0.0065637 0.0005 0 -0.00637659 0.0005 0
-0.00619186 0.0005 0 -0.006 0.0005 0 -0.00731274 0.00055 0 -0.0075
0.00055 0 -0.00712548 0.00055 0 -0.00693822 0.00055 0 -0.00675095 0.00055
0 -0.0065637 0.00055 0 -0.00637657 0.00055 0 -0.00619196 0.00055 0
-0.006 0.00055 0 -0.00731274 0.0006 0 -0.0075 0.0006 0 -0.00712548
0.0006 0 -0.00693822 0.0006 0 -0.00675095 0.0006 0 -0.0065637 0.0006
0 -0.00637654 0.0006 0 -0.00619209 0.0006 0 -0.006 0.0006 0
-0.00731274 0.00065 0 -0.0075 0.00065 0 -0.00712548 0.00065 0 -0.00693822
0.00065 0 -0.00675095 0.00065 0 -0.0065637 0.00065 0 -0.00637651 0.00065
0 -0.00619222 0.00065 0 -0.006 0.00065 0 -0.00731274 0.0007 0
-0.0075 0.0007 0 -0.00712548 0.0007 0 -0.00693822 0.0007 0 -0.00675095
0.0007 0 -0.0065637 0.0007 0 -0.0063765 0.0007 0 -0.00619242 0.0007
0 -0.006 0.0007 0 -0.00731274 0.00075 0 -0.0075 0.00075 0
-0.00712548 0.00075 0 -0.00693822 0.00075 0 -0.00675095 0.00075 0 -0.0065637
0.00075 0 -0.00637653 0.00075 0 -0.00619113 0.00075 0 -0.006 0.00075
0 -0.00241452 0.000183339 0 -0.0025 0.000183339 0 -0.0025 0 0
-0.00241452 0 0 -0.00232503 0.000183339 0 -0.00232504 0 0 -0.00223204
0.000183339 0 -0.00223205 0 0 -0.00213555 0.000183339 0 -0.00213556 0
0 -0.00203547 0.000183339 0 -0.00203548 0 0 -0.00193167 0.000183339 0
-0.00193167 0 0 -0.00182401 0.000183339 0 -0.00182401 0 0 -0.00171234
0.000183339 0 -0.00171235 0 0 -0.00159653 0.000183339 0 -0.00159654 0
0 -0.00147642 0.000183339 0 -0.00147642 0 0 -0.00135184 0.000183339 0
-0.00135184 0 0 -0.00122263 0.000183339 0 -0.00122264 0 0 -0.00108862
0.000183339 0 -0.00108863 0 0 -0.000949626 0.000183339 0 -0.000949636 0
0 -0.000805471 0.000183339 0 -0.000805481 0 0 -0.00065596 0.000183339 0
-0.00065597 0 0 -0.000500892 0.000183339 0 -0.000500903 0 0 -0.000340062
0.000183339 0 -0.000340073 0 0 -0.000173254 0.000183339 0 -0.000173265 0
0 0 0 0 0 0.000183339 0 -0.00241452 0.000353777 0
-0.0025 0.000353777 0 -0.00232502 0.000353777 0 -0.00223203 0.000353777 0 -0.00213554
0.000353777 0 -0.00203546 0.000353777 0 -0.00193165 0.000353777 0 -0.00182399 0.000353777
0 -0.00171233 0.000353777 0 -0.00159652 0.000353777 0 -0.0014764 0.000353777 0
-0.00135182 0.000353777 0 -0.00122261 0.000353777 0 -0.0010886 0.000353777 0 -0.000949608
0.000353777 0 -0.000805452 0.000353777 0 -0.00065594 0.000353777 0 -0.000500872 0.000353777
0 -0.000340042 0.000353777 0 -0.000173233 0.000353777 0 0 0.000353777 0
-0.00241451 0.000512223 0 -0.0025 0.000512223 0 -0.00232501 0.000512223 0 -0.00223202
0.000512223 0 -0.00213553 0.000512223 0 -0.00203545 0.000512223 0 -0.00193164 0.000512223
0 -0.00182398 0.000512223 0 -0.00171231 0.000512223 0 -0.0015965 0.000512223 0
-0.00147638 0.000512223 0 -0.0013518 0.000512223 0 -0.00122259 0.000512223 0 -0.00108858
0.000512223 0 -0.000949589 0.000512223 0 -0.000805433 0.000512223 0 -0.00065592 0.000512223
0 -0.000500852 0.000512223 0 -0.000340021 0.000512223 0 -0.000173212 0.000512223 0
0 0.000512223 0 -0.00241451 0.000659519 0 -0.0025 0.000659519 0 -0.00232501
0.000659519 0 -0.00223201 0.000659519 0 -0.00213552 0.000659519 0 -0.00203543 0.000659519
0 -0.00193163 0.000659519 0 -0.00182396 0.000659519 0 -0.0017123 0.000659519 0
-0.00159649 0.000659519 0 -0.00147637 0.000659519 0 -0.00135179 0.000659519 0 -0.00122258
0.000659519 0 -0.00108856 0.000659519 0 -0.000949571 0.000659519 0 -0.000805414 0.000659519
0 -0.000655901 0.000659519 0 -0.000500832 0.000659519 0 -0.000340001 0.000659519 0
-0.000173192 0.000659519 0 0 0.000659519 0 -0.00241451 0.000796451 0 -0.0025
0.000796451 0 -0.002325 0.000796451 0 -0.002232 0.000796451 0 -0.00213551 0.000796451
0 -0.00203542 0.000796451 0 -0.00193161 0.000796451 0 -0.00182395 0.000796451 0
-0.00171229 0.000796451 0 -0.00159647 0.000796451 0 -0.00147635 0.000796451 0 -0.00135177
0.000796451 0 -0.00122256 0.000796451 0 -0.00108855 0.000796451 0 -0.000949553 0.000796451
0 -0.000805396 0.000796451 0 -0.000655883 0.000796451 0 -0.000500814 0.000796451 0
-0.000339982 0.000796451 0 -0.000173173 0.000796451 0 0 0.000796451 0 -0.00241451
0.000923748 0 -0.0025 0.000923748 0 -0.00232499 0.000923748 0 -0.00223199 0.000923748
0 -0.00213549 0.000923748 0 -0.00203541 0.000923748 0 -0.0019316 0.000923748 0
-0.00182394 0.000923748 0 -0.00171227 0.000923748 0 -0.00159645 0.000923748 0 -0.00147634
0.000923748 0 -0.00135175 0.000923748 0 -0.00122254 0.000923748 0 -0.00108853 0.000923748
0 -0.000949536 0.000923748 0 -0.000805379 0.000923748 0 -0.000655865 0.000923748 0
-0.000500796 0.000923748 0 -0.000339964 0.000923748 0 -0.000173155 0.000923748 0 0
0.000923748 0 -0.00241452 0.00104209 0 -0.0025 0.00104209 0 -0.00232499 0.00104209
0 -0.00223198 0.00104209 0 -0.00213548 0.00104209 0 -0.00203539 0.00104209 0
-0.00193159 0.00104209 0 -0.00182392 0.00104209 0 -0.00171226 0.00104209 0 -0.00159644
0.00104209 0 -0.00147632 0.00104209 0 -0.00135174 0.00104209 0 -0.00122253 0.00104209
0 -0.00108851 0.00104209 0 -0.00094952 0.00104209 0 -0.000805362 0.00104209 0
-0.000655848 0.00104209 0 -0.000500779 0.00104209 0 -0.000339947 0.00104209 0 -0.000173139
0.00104209 0 0 0.00104209 0 -0.00241452 0.0011521 0 -0.0025 0.0011521
0 -0.00232498 0.0011521 0 -0.00223197 0.0011521 0 -0.00213547 0.0011521 0
-0.00203538 0.0011521 0 -0.00193157 0.0011521 0 -0.00182391 0.0011521 0 -0.00171224
0.0011521 0 -0.00159643 0.0011521 0 -0.00147631 0.0011521 0 -0.00135172 0.0011521
0 -0.00122251 0.0011521 0 -0.0010885 0.0011521 0 -0.000949504 0.0011521 0
-0.000805346 0.0011521 0 -0.000655832 0.0011521 0 -0.000500763 0.0011521 0 -0.000339931
0.0011521 0 -0.000173123 0.0011521 0 0 0.0011521 0 -0.00241452 0.00125437
0 -0.0025 0.00125437 0 -0.00232497 0.00125437 0 -0.00223196 0.00125437 0
-0.00213546 0.00125437 0 -0.00203537 0.00125437 0 -0.00193156 0.00125437 0 -0.00182389
0.00125437 0 -0.00171223 0.00125437 0 -0.00159641 0.00125437 0 -0.00147629 0.00125437
0 -0.00135171 0.00125437 0 -0.0012225 0.00125437 0 -0.00108848 0.00125437 0
-0.000949489 0.00125437 0 -0.000805332 0.00125437 0 -0.000655818 0.00125437 0 -0.000500748
0.00125437 0 -0.000339917 0.00125437 0 -0.000173109 0.00125437 0 0 0.00125437
0 -0.00241453 0.00134945 0 -0.0025 0.00134945 0 -0.00232497 0.00134945 0
-0.00223194 0.00134945 0 -0.00213544 0.00134945 0 -0.00203536 0.00134945 0 -0.00193155
0.00134945 0 -0.00182388 0.00134945 0 -0.00171221 0.00134945 0 -0.0015964 0.00134945
0 -0.00147628 0.00134945 0 -0.00135169 0.00134945 0 -0.00122248 0.00134945 0
-0.00108847 0.00134945 0 -0.000949476 0.00134945 0 -0.000805318 0.00134945 0 -0.000655804
0.00134945 0 -0.000500735 0.00134945 0 -0.000339903 0.00134945 0 -0.000173096 0.00134945
0 0 0.00134945 0 -0.00241453 0.00143783 0 -0.0025 0.00143783 0
-0.00232496 0.00143783 0 -0.00223193 0.00143783 0 -0.00213543 0.00143783 0 -0.00203534
0.00143783 0 -0.00193153 0.00143783 0 -0.00182387 0.00143783 0 -0.0017122 0.00143783
0 -0.00159639 0.00143783 0 -0.00147627 0.00143783 0 -0.00135168 0.00143783 0
-0.00122247 0.00143783 0 -0.00108846 0.00143783 0 -0.000949463 0.00143783 0 -0.000805305
0.00143783 0 -0.000655792 0.00143783 0 -0.000500722 0.00143783 0 -0.000339891 0.00143783
0 -0.000173084 0.00143783 0 0 0.00143783 0 -0.00241454 0.00152 0
-0.0025 0.00152 0 -0.00232496 0.00152 0 -0.00223192 0.00152 0 -0.00213542
0.00152 0 -0.00203533 0.00152 0 -0.00193152 0.00152 0 -0.00182386 0.00152
0 -0.00171219 0.00152 0 -0.00159637 0.00152 0 -0.00147625 0.00152 0
-0.00135167 0.00152 0 -0.00122246 0.00152 0 -0.00108844 0.00152 0 -0.000949451
0.00152 0 -0.000805294 0.00152 0 -0.00065578 0.00152 0 -0.000500711 0.00152
0 -0.00033988 0.00152 0 -0.000173074 0.00152 0 0 0.00152 0
-0.00241454 0.00159638 0 -0.0025 0.00159638 0 -0.00232495 0.00159638 0 -0.00223191
0.00159638 0 -0.00213541 0.00159638 0 -0.00203532 0.00159638 0 -0.00193151 0.00159638
0 -0.00182385 0.00159638 0 -0.00171218 0.00159638 0 -0.00159636 0.00159638 0
-0.00147624 0.00159638 0 -0.00135166 0.00159638 0 -0.00122245 0.00159638 0 -0.00108843
0.00159638 0 -0.000949441 0.00159638 0 -0.000805283 0.00159638 0 -0.00065577 0.00159638
[...]
POINT_DATA 1819
FIELD attributes 2
p 1 1819 float
0.0241701 -0.0213854 -0.0154571 0.0240219 0.071298 0.0710743 0.115468 0.11513 0.146786 0.146384 0.143305
0.142985 0.0965936 0.0965644 0.0401653 0.0405757 0.0162764 0.0157599 0.0243253 -0.0203226 0.0713068
0.115412 0.146633 0.142821 0.0954402 0.0383941 0.0137411 0.0243498 -0.0195467 0.070782 0.114453
0.14529 0.140856 0.0924741 0.0349095 0.0102984 0.0243873 -0.0185689 0.0700615 0.113135 0.143432
0.138088 0.0882205 0.0298494 0.00526952 0.0244115 -0.0173817 0.069111 0.111393 0.140915 0.134293
0.0824707 0.0230813 -0.00144253 0.0243891 -0.0160148 0.0678819 0.109137 0.137579 0.129244 0.0750268
0.0144774 -0.00995164 0.024291 -0.0145084 0.0663383 0.106288 0.133308 0.122816 0.0658521 0.00407003
-0.0202512 0.0240899 -0.0129084 0.0644504 0.102777 0.128037 0.11505 0.0551954 -0.00779111 -0.0320302
0.0237614 -0.0112634 0.0621965 0.0985571 0.121748 0.106208 0.0436497 -0.0203808 -0.0445332 0.0232863
-0.00962119 0.0595704 0.0936234 0.114479 0.0967374 0.0320553 -0.0327417 -0.056704 0.0226549 -0.00802579
0.0565891 0.0880368 0.106371 0.0871268 0.0214413 -0.0439033 -0.0678726 0.0218672 -0.00651447 0.0532939
0.0819155 0.0976506 0.0777111 0.0128096 -0.0530355 -0.0780152 0.0209295 -0.0051162 0.0497315 0.0753813
0.0884995 0.0684297 0.00589782 -0.0625419 -0.0917947 0.0198493 -0.00385106 0.0459378 0.0685264 0.0790063
0.0588012 -0.00139009 -0.0756308 -0.112588 0.0182865 -0.00218499 0.0408514 0.0595737 0.0668163 0.046212
-0.0112638 -0.0829136 -0.133567 4.65181 4.65456 4.65735 4.65503 4.6452 4.6485 4.63442
4.63783 4.61884 4.62234 4.59826 4.60185 4.57309 4.57676 4.54403 4.54776 4.512
4.51574 4.47803 4.48173 4.44323 4.44683 4.40869 4.41214 4.37544 4.37869 4.34438
4.3474 4.31626 4.31903 4.29166 4.29419 4.27107 4.27337 4.25482 4.25693 4.24326
4.24522 4.23687 4.23873 4.23685 4.23529 4.64355 4.64612 4.63681 4.62583 4.61
4.58913 4.56368 4.53441 4.50227 4.46834 4.43374 4.39956 4.3668 4.33632 4.30882
4.28487 4.26487 4.24913 4.23797 4.23182 4.23017 4.63069 4.6333 4.62379 4.61257
4.59636 4.57505 4.54918 4.5196 4.48733 4.45349 4.41924 4.38565 4.35367 4.32413
4.29764 4.27469 4.25562 4.24067 4.23011 4.2243 4.22272 4.61266 4.61534 4.60556
4.59402 4.57737 4.55557 4.52926 4.49942 4.46717 4.43367 4.40008 4.36746 4.33669
4.3085 4.28343 4.26186 4.24405 4.23017 4.2204 4.21506 4.21359 4.58945 4.5922
4.58214 4.57031 4.55324 4.53099 4.50436 4.47446 4.44249 4.40968 4.37716 4.34593
4.31681 4.2904 4.26714 4.2473 4.23104 4.21844 4.20961 4.20482 4.2035 4.56055
4.56336 4.55312 4.54108 4.5237 4.50119 4.4745 4.44489 4.41364 4.382 4.35107
4.32177 4.29477 4.27059 4.24951 4.2317 4.21722 4.20608 4.19833 4.19415 4.19299
4.52514 4.52795 4.51771 4.50568 4.48828 4.46586 4.43958 4.41082 4.38091 4.35109
4.32238 4.29557 4.27122 4.24969 4.23114 4.21563 4.20313 4.19359 4.18699 4.18346
4.18249 4.48203 4.48475 4.47491 4.46326 4.44635 4.42465 4.3995 4.37238 4.34462
4.31741 4.29163 4.26794 4.24675 4.22826 4.21255 4.19955 4.18919 4.18134 4.17595
4.1731 4.17232 4.42967 4.4321 4.42334 4.41279 4.3972 4.37718 4.3542 4.32976
4.30516 4.28145 4.25938 4.23944 4.22189 4.20681 4.19417 4.18385 4.17571 4.1696
4.16545 4.16327 4.16268 4.36594 4.36773 4.36128 4.35297 4.34004 4.3231 4.30369
4.28326 4.263 4.24378 4.22621 4.21062 4.19714 4.18575 4.17636 4.16881 4.16293
4.15857 4.15564 4.15413 4.15372 4.28796 4.2885 4.28649 4.28232 4.27405 4.26217
4.24815 4.23332 4.21869 4.20501 4.1927 4.18199 4.17292 4.16543 4.15939 4.15463
4.151 4.14836 4.14663 4.14575 4.14553 4.1918 4.18996 4.19616 4.19914 4.19849
4.19432 4.18795 4.18052 4.17291 4.16576 4.1594 4.15401 4.14961 4.14613 4.14346
4.14146 4.14003 4.13905 4.13845 4.13818 4.13812 4.07196 4.0656 4.0868 4.10169
4.11284 4.11979 4.12369 4.1256 4.12639 4.12668 4.12684 4.1271 4.1275 4.12805
4.1287 4.12939 4.13005 4.13064 4.13111 4.13141 4.1315 3.92068 3.9055 3.95429
3.98827 4.01692 4.03913 4.05624 4.06945 4.0799 4.08839 4.0955 4.10157 4.1068
4.11133 4.11519 4.11844 4.12108 4.12313 4.1246 4.12541 4.12565 3.7267 3.69381
3.794 3.8575 3.91113 3.95336 3.98672 4.01306 4.03422 4.05148 4.06576 4.07769
4.08768 4.09604 4.10297 4.10861 4.11309 4.11649 4.11886 4.12015 4.1205 3.47304
3.40362 3.60143 3.70862 3.79662 3.86393 3.91644 3.95745 3.9901 4.01643 4.03794
4.05563 4.07022 4.08222 4.09201 4.09988 4.10603 4.11065 4.11384 4.11556 4.11602
3.13375 2.98883 3.37329 3.54191 3.67551 3.77276 3.84687 3.90362 3.94817 3.98364
4.01226 4.03551 4.05445 4.06985 4.08228 4.09217 4.09985 4.10557 4.10949 4.11158
4.11215 2.66358 2.36511 3.10785 3.35958 3.55079 3.68213 3.77948 3.85248 3.90896
3.95339 3.98884 4.01734 4.04035 4.05888 4.07371 4.08543 4.09447 4.10117 4.10574
4.10816 4.10881 2.00019 1.41566 2.80668 3.16888 3.42672 3.59447 3.71564 3.80476
3.87286 3.92584 3.96773 4.00112 4.02785 4.04922 4.06622 4.07957 4.08983 4.09738
4.10252 4.10524 4.10596 1.1283 -3.12059 2.47702 2.98881 3.3137 3.51602 3.65921
3.76302 3.84157 3.90219 3.94975 3.98741 4.01737 4.04118 4.06002 4.07475 4.08602
4.09429 4.09991 4.10286 4.10364 0.0155486 -2.38722e-05 0.0327809 0.045997 0.0490612 0.0294108
-0.0199778 -0.0745418 -0.117349 0.0122596 0.001023 0.0240486 0.0320145 0.0314473 0.0140503 -0.0244577
-0.0643691 -0.0961208 0.00896422 0.00151538 0.0159907 0.0196693 0.0162452 0.000490768 -0.0295176 -0.0607062
-0.086301 0.00587886 0.00161409 0.00878495 0.00903753 0.00340508 -0.0113695 -0.0355023 -0.0615147 -0.0836952
0.00288795 0.00128412 0.00244961 -7.83178e-05 -0.00747652 -0.0216947 -0.042351 -0.0652118 -0.0853336 -0.000185581
0.000493958 -0.0030786 -0.00790753 -0.0167294 -0.0307159 -0.0494858 -0.0705402 -0.0894228 -0.0029991 -0.000376043
-0.00784357 -0.0145893 -0.024593 -0.0386369 -0.0565179 -0.076688 -0.094957 -0.00531961 -0.00107816 -0.0118891
-0.0202299 -0.0312626 -0.045583 -0.0631919 -0.0831014 -0.101216 -0.00724489 -0.00166963 -0.0152806 -0.0249473
-0.0368975 -0.051639 -0.069354 -0.0894208 -0.107717 -0.00881667 -0.00216851 -0.0180745 -0.0288452 -0.0416134
-0.0568524 -0.0748898 -0.0953745 -0.114069 -0.0100706 -0.00258205 -0.0203288 -0.0320076 -0.0454948 -0.0612583
-0.0797269 -0.100759 -0.119952 -0.0110364 -0.002917 -0.022088 -0.0344962 -0.0486022 -0.0648932 -0.0838305
-0.105391 -0.125051 -0.011733 -0.00318112 -0.023368 -0.0363227 -0.0509052 -0.0676462 -0.0869661 -0.108805
-0.128837 -0.0121816 -0.00339164 -0.0241879 -0.0375234 -0.0524244 -0.0695621 -0.0893801 -0.111141 -0.131779
-0.0123476 -0.0044205 -0.024488 -0.0379798 -0.0530072 -0.0703548 -0.0905289 -0.112196 -0.134668 -0.135223
-0.147304 -0.136142 -0.143559 -0.137879 -0.142228 -0.141446 -0.144034 -0.146389 -0.147747 -0.152487
-0.152931 -0.159601 -0.159346 -0.167631 -0.166824 -0.176502 -0.175244 -0.186151 -0.184516 -0.196524
-0.194567 -0.207563 -0.205329 -0.219207 -0.216731 -0.231373 -0.228688 -0.243934 -0.241078 -0.256698
-0.253722 -0.269363 -0.266348 -0.281494 -0.278571 -0.292531 -0.289891 -0.301873 -0.299756 -0.309091
-0.307719 -0.314268 -0.313726 -0.318478 -0.318535 -0.324353 -0.32428 -0.336651 -0.335082 -0.362778
-0.357667 -0.413639 -0.402127 -0.504395 -0.482568 -0.654556 -0.617247 -0.886559 -0.827275 -1.22135
-1.13315 -1.67144 -1.54933 -2.23189 -2.07583 -2.8711 -2.68825 -3.52753 -3.33279 -4.1203
-3.93451 -4.57408 -4.42005 -4.84408 -4.74054 -4.92762 -4.88214 -4.86757 -4.87096 -4.73465
-4.76608 -4.5974 -4.63485 -4.50476 -4.53188 -4.47984 -4.48991 -4.52816 -4.52133 -4.64498
-4.62576 -4.82552 -4.80695 -5.08445 -5.05275 -6.37797 -6.47687 -4.56318 -0.115436 -0.123293
-0.129527 -0.135954 -0.142927 -0.150532 -0.1588 -0.167739 -0.177344 -0.1876 -0.198485 -0.209965
-0.221995 -0.234497 -0.247339 -0.260299 -0.273026 -0.285017 -0.295655 -0.304338 -0.310751 -0.315229
-0.319233 -0.325943 -0.340953 -0.372662 -0.433709 -0.541724 -0.718578 -0.988874 -1.37376 -1.88179
-2.49945 -3.18318 -3.85893 -4.43662 -4.83884 -5.02815 -5.01863 -4.87384 -4.68401 -4.52957
-4.45083 -4.45435 -4.53103 -4.66373 -4.83331 -5.09716 -5.75581 -3.78159 -0.104164 -0.114467
-0.123112 -0.131438 -0.139902 -0.148692 -0.157915 -0.167631 -0.177875 -0.188665 -0.200003 -0.211875
-0.224248 -0.237049 -0.250145 -0.26331 -0.276197 -0.28833 -0.299163 -0.308215 -0.315315 -0.320927
-0.326645 -0.335951 -0.355126 -0.39385 -0.467115 -0.595134 -0.802311 -1.11471 -1.55267 -2.1203
-2.79488 -3.51984 -4.20854 -4.76428 -5.11187 -5.22268 -5.12209 -4.88753 -4.6324 -4.45234
-4.38424 -4.41867 -4.52524 -4.66714 -4.82153 -5.0148 -5.02076 -2.9394 -0.0999673 -0.111
-0.120621 -0.129948 -0.139346 -0.148975 -0.158934 -0.169291 -0.180093 -0.191371 -0.20314 -0.2154
-0.228128 -0.241272 -0.254727 -0.268319 -0.281784 -0.294773 -0.306898 -0.317836 -0.327519 -0.336484
-0.346491 -0.36138 -0.388035 -0.4375 -0.526274 -0.676311 -0.913725 -1.26508 -1.74927 -2.36624
-3.08497 -3.83724 -4.52612 -5.0507 -5.34062 -5.37657 -5.19414 -4.88553 -4.57883 -4.37922
-4.32293 -4.38487 -4.51105 -4.6453 -4.75157 -4.77552 -4.24559 -2.18809 -0.100542 -0.111706
-0.121725 -0.131569 -0.141532 -0.151734 -0.162258 -0.173162 -0.184492 -0.196283 -0.20856 -0.221335
-0.234609 -0.248364 -0.262551 -0.277077 -0.291807 -0.306574 -0.321227 -0.335708 -0.350214 -0.365532
-0.383656 -0.408645 -0.44758 -0.511747 -0.617822 -0.787987 -1.0484 -1.4249 -1.93457 -2.5741
-3.30729 -4.05968 -4.7293 -5.21496 -5.45263 -5.43257 -5.19973 -4.85409 -4.52791 -4.32696
-4.28393 -4.35968 -4.47799 -4.56438 -4.56029 -4.3431 -3.43652 -1.55186 -0.104022 -0.115213
-0.125458 -0.135654 -0.146054 -0.156755 -0.167823 -0.17931 -0.191263 -0.203722 -0.216726 -0.230308
-0.244498 -0.259319 -0.274788 -0.290925 -0.30778 -0.325468 -0.344236 -0.364546 -0.387165 -0.413323
-0.445102 -0.486194 -0.542823 -0.624879 -0.747259 -0.930339 -1.1986 -1.57624 -2.07899 -2.7026
-3.41103 -4.13137 -4.76432 -5.21282 -5.41772 -5.37527 -5.13566 -4.79819 -4.48801 -4.30219
-4.26374 -4.32119 -4.38507 -4.37096 -4.21289 -3.76527 -2.66784 -1.04018 -0.109284 -0.120549
-0.13101 -0.141539 -0.152373 -0.163599 -0.175277 -0.187461 -0.200205 -0.213564 -0.227596 -0.242362
-0.257932 -0.274388 -0.29184 -0.310484 -0.330661 -0.352927 -0.378171 -0.407655 -0.442937 -0.485723
-0.53774 -0.601392 -0.680518 -0.781594 -0.915852 -1.10013 -1.35599 -1.70574 -2.16477 -2.73102
-3.37424 -4.03087 -4.61261 -5.03127 -5.23016 -5.20407 -5.0013 -4.71176 -4.44355 -4.27684
-4.22137 -4.22163 -4.19189 -4.0549 -3.75153 -3.15092 -2.02724 -0.665134 -0.115506 -0.126923
-0.13765 -0.148561 -0.159885 -0.17171 -0.184101 -0.197122 -0.210844 -0.225345 -0.240716 -0.257062
-0.274513 -0.293245 -0.313512 -0.335776 -0.360786 -0.389721 -0.424338 -0.466849 -0.519619 -0.5845
-0.661954 -0.752721 -0.856917 -0.975383 -1.11456 -1.28676 -1.51032 -1.80612 -2.19053 -2.66583
-3.21074 -3.7759 -4.28988 -4.67828 -4.88839 -4.90842 -4.77565 -4.55999 -4.34575 -4.19488
-4.10848 -4.03784 -3.91203 -3.67148 -3.26864 -2.59931 -1.54327 -0.407239 -0.12214 -0.133776
-0.144821 -0.156164 -0.168033 -0.180523 -0.193709 -0.207675 -0.222516 -0.238347 -0.255302 -0.273549
-0.293303 -0.314878 -0.338747 -0.365659 -0.39684 -0.434219 -0.480455 -0.538656 -0.611761 -0.701497
-0.807215 -0.925771 -1.05231 -1.18369 -1.32045 -1.47017 -1.64832 -1.87515 -2.16895 -2.53723
-2.96834 -3.42744 -3.86084 -4.20998 -4.42971 -4.50288 -4.44815 -4.31511 -4.1648 -4.03518
-3.92564 -3.7991 -3.60364 -3.29706 -2.84055 -2.15584 -1.19411 -0.229637 -0.128725 -0.140618
-0.152013 -0.163816 -0.176256 -0.189435 -0.203447 -0.218393 -0.234399 -0.251624 -0.27026 -0.290538
-0.312779 -0.337439 -0.365219 -0.397177 -0.435005 -0.481246 -0.539254 -0.612787 -0.704983 -0.81706
-0.947128 -1.08799 -1.23127 -1.36967 -1.49874 -1.62243 -1.75404 -1.91313 -2.1196 -2.3858
-2.70903 -3.06744 -3.42267 -3.7299 -3.95146 -4.06748 -4.08096 -4.0254 -3.93712 -3.83485
-3.71748 -3.55842 -3.32197 -2.97876 -2.49676 -1.82046 -0.944732 -0.102452 -0.134872 -0.147027
-0.158773 -0.171031 -0.184022 -0.197856 -0.212641 -0.228499 -0.24557 -0.26409 -0.284301 -0.306457
-0.330983 -0.35846 -0.38976 -0.42621 -0.469802 -0.523401 -0.590686 -0.675622 -0.781224 -0.907845
-1.05178 -1.20501 -1.35695 -1.49616 -1.61564 -1.71803 -1.81485 -1.92385 -2.06409 -2.25003
-2.48567 -2.7605 -3.04966 -3.31991 -3.53929 -3.68623 -3.75538 -3.76015 -3.71947 -3.6433
-3.52697 -3.35129 -3.09191 -2.728 -2.23431 -1.57439 -0.766519 -0.00878026 -0.140222 -0.152631
-0.164709 -0.177374 -0.190841 -0.205231 -0.220662 -0.237279 -0.255259 -0.274822 -0.296233 -0.319845
-0.346134 -0.375766 -0.409708 -0.449391 -0.496899 -0.555114 -0.627603 -0.718033 -0.828981 -0.960246
-1.10741 -1.2621 -1.41407 -1.54936 -1.66068 -1.75246 -1.83397 -1.91982 -2.0253 -2.16266
-2.33825 -2.54964 -2.7839 -3.0191 -3.22974 -3.39412 -3.50039 -3.5478 -3.54226 -3.48646
-3.37374 -3.18954 -2.91677 -2.54012 -2.04125 -1.39918 -0.641868 0.0587455 -0.144357 -0.157067
-0.169441 -0.182418 -0.196226 -0.210999 -0.226873 -0.244012 -0.262617 -0.282874 -0.305079 -0.329662
-0.357125 -0.38817 -0.423794 -0.465422 -0.515046 -0.575311 -0.649353 -0.740246 -0.849971 -0.978032
-1.12028 -1.26883 -1.41346 -1.54409 -1.6555 -1.74928 -1.83348 -1.91925 -2.01761 -2.13722
-2.28335 -2.45673 -2.65152 -2.85458 -3.04778 -3.21254 -3.33449 -3.40527 -3.42089 -3.37756
-3.26752 -3.0786 -2.79767 -2.4127 -1.91159 -1.28577 -0.563618 0.103426 -0.147683 -0.160304
-0.172611 -0.185658 -0.199582 -0.214511 -0.23058 -0.247952 -0.26682 -0.287421 -0.310067 -0.335168
-0.363261 -0.395069 -0.43158 -0.47416 -0.524636 -0.585341 -0.658945 -0.747977 -0.853975 -0.9764
-1.11173 -1.25316 -1.39147 -1.52126 -1.63799 -1.74027 -1.83459 -1.92976 -2.03482 -2.15677
-2.29918 -2.46207 -2.64047 -2.82428 -3.0003 -3.15409 -3.27271 -3.34607 -3.36623 -3.32539
-3.21447 -3.02204 -2.7356 -2.34428 -1.84045 -1.22368 -0.519266 0.136342 -0.149392 -0.161651
-0.173751 -0.18674 -0.200653 -0.215598 -0.231701 -0.24912 -0.268049 -0.288732 -0.311489 -0.33673
-0.365003 -0.397034 -0.433801 -0.476633 -0.527276 -0.587918 -0.661024 -0.748914 -0.852976 -0.972723
-1.105 -1.24376 -1.38166 -1.51222 -1.63097 -1.73764 -1.83706 -1.93731 -2.0473 -2.17372
-2.31937 -2.48335 -2.65975 -2.8385 -3.00783 -3.15504 -3.26849 -3.33844 -3.35648 -3.31408
-3.20165 -3.00762 -2.71892 -2.32475 -1.81908 -1.20412 -0.503817 0.211983 0.513723 2.1903
2.84388 3.22204 3.45284 3.61376 3.72955 3.8166 3.88341 3.93556 3.97665 4.00918
4.03493 4.05522 4.07103 4.08309 4.09192 4.09791 4.10105 4.10187 0.403342 1.99109
2.72588 3.14099 3.39658 3.57308 3.69967 3.79441 3.86682 3.9231 3.96725 4.00207
4.02953 4.0511 4.06785 4.0806 4.08991 4.09621 4.09952 4.10038 0.500609 1.87162
2.62866 3.06614 3.34323 3.53408 3.67104 3.77321 3.85104 3.9113 3.9584 3.99541
4.02449 4.04726 4.0649 4.07829 4.08806 4.09466 4.09811 4.09901 0.608595 1.79988
2.54973 2.99919 3.29364 3.49731 3.64396 3.75318 3.83618 3.90025 3.95015 3.98922
4.01984 4.04374 4.0622 4.07619 4.08638 4.09325 4.09684 4.09777 0.684262 1.75243
2.48434 2.94027 3.24827 3.46315 3.6187 3.73449 3.82237 3.89002 3.94255 3.98356
4.01559 4.04053 4.05976 4.0743 4.08486 4.09198 4.09569 4.09666 0.743261 1.72122
2.42958 2.88888 3.20729 3.43188 3.59544 3.71731 3.8097 3.88067 3.93564 3.97843
4.01177 4.03766 4.05758 4.07261 4.08352 4.09086 4.09469 4.09568 0.792147 1.70183
2.38409 2.84448 3.17077 3.40369 3.57438 3.70175 3.79828 3.87229 3.92948 3.97388
4.0084 4.03514 4.05568 4.07115 4.08236 4.08989 4.09382 4.09484 0.83198 1.6898
2.34677 2.80662 3.13876 3.37874 3.55567 3.68795 3.78819 3.86492 3.9241 3.96994
4.00549 4.03298 4.05405 4.0699 4.08137 4.08907 4.09309 4.09413 0.865473 1.68205
2.31645 2.77483 3.1113 3.35718 3.53947 3.67605 3.77953 3.85865 3.91955 3.96663
4.00306 4.03119 4.05271 4.06888 4.08057 4.08841 4.09249 4.09355 0.894686 1.67696
2.2922 2.74876 3.08843 3.33916 3.52596 3.66617 3.7724 3.85353 3.91587 3.96397
4.00114 4.02978 4.05167 4.06809 4.07995 4.0879 4.09204 4.09312 0.919603 1.67369
2.27346 2.72826 3.0703 3.3249 3.51533 3.65849 3.76693 3.84965 3.91312 3.96202
3.99974 4.02877 4.05092 4.06753 4.07952 4.08755 4.09173 4.09281 0.9395 1.67209
2.26028 2.71361 3.05734 3.31482 3.50794 3.65325 3.76328 3.84712 3.91137 3.9608
3.99888 4.02816 4.05049 4.06721 4.07928 4.08735 4.09156 4.09265 0.956138 1.67376
2.254 2.70603 3.05058 3.30968 3.50432 3.65081 3.76168 3.84609 3.91071 3.96038
3.99862 4.028 4.05039 4.06715 4.07924 4.08733 4.09154 4.09264 0.973785 1.67966
2.2552 2.70583 3.05014 3.30948 3.50438 3.65105 3.76201 3.84644 3.91104 3.96068
3.99888 4.02821 4.05057 4.0673 4.07937 4.08744 4.09165 4.09275 0.983484 1.68442
2.25826 2.708 3.05181 3.31083 3.50549 3.65196 3.76274 3.84702 3.91151 3.96105
3.99917 4.02844 4.05075 4.06745 4.07949 4.08754 4.09174 4.09284 
U 3 1819 float
0.244156 -0.00505074 2.30393e-19 0.228307 -0.000424856 -3.38813e-20 0.228843 -0.00053593 -2.33768e-05 0.244879 -0.00278239
-0.000121366 0.296932 -0.0110146 7.58942e-19 0.297771 -0.00606833 -0.000264696 0.395096 -0.0182512 1.35525e-18
0.395977 -0.0100487 -0.000438316 0.546922 -0.0254318 2.1684e-19 0.547556 -0.0139642 -0.000609106 0.740645
-0.0284452 -6.50521e-19 0.740599 -0.015584 -0.000679763 0.930862 -0.0216369 1.0842e-18 0.930017 -0.0118554
-0.000517122 1.03388 -0.0051786 1.0571e-18 1.03298 -0.00285974 -0.000124739 1.02031 0.00110131 4.80388e-05
1.00893 0.000884926 1.21973e-19 0.242077 -0.00941898 -1.0571e-18 0.226332 -0.000905868 -3.38813e-21 0.294484
-0.0205473 2.71051e-19 0.39244 -0.0341659 2.1684e-18 0.544936 -0.0479127 4.77049e-18 0.740745 -0.0538062
4.33681e-19 0.933395 -0.0408047 1.84314e-18 1.03654 -0.00942215 4.33681e-19 1.01053 0.00200481 1.35525e-19
0.238704 -0.0137104 0 0.223205 -0.00136002 2.30393e-19 0.290455 -0.0299616 -1.84314e-18 0.38792
-0.0501091 0 0.541405 -0.0708465 -1.30104e-18 0.740705 -0.0799562 1.73472e-18 0.937497 -0.0603821
-2.1684e-19 1.04095 -0.0132221 -5.42101e-20 1.01145 0.00327025 8.13152e-20 0.234013 -0.0180186 2.49366e-18
0.218868 -0.00183011 8.3348e-19 0.284785 -0.0395095 0 0.381405 -0.0665552 -2.81893e-18 0.536043
-0.0949231 -4.33681e-18 0.739904 -0.107721 -4.33681e-19 0.942438 -0.0810415 -6.50521e-19 1.04681 -0.0167253
-2.71051e-19 1.01261 0.00481185 8.13152e-20 0.228032 -0.0221953 -2.1684e-19 0.213358 -0.00230912 2.10064e-19
0.277447 -0.0488916 -2.60209e-18 0.37274 -0.0830926 -4.77049e-18 0.528306 -0.119705 -3.90313e-18 0.736863
-0.136756 -3.46945e-18 0.946188 -0.102593 2.1684e-18 1.05294 -0.019849 -5.25838e-18 1.01403 0.00667956
1.13841e-18 0.220812 -0.0261639 -1.0842e-18 0.206735 -0.00279329 -4.20128e-19 0.268426 -0.0579558 -2.60209e-18
0.361713 -0.0995216 -3.46945e-18 0.517214 -0.144959 -4.33681e-18 0.728865 -0.166946 1.30104e-18 0.944887
-0.125265 -4.33681e-18 1.05693 -0.022949 -9.1073e-18 1.01554 0.00885065 3.52366e-19 0.212422 -0.0298591
2.1684e-18 0.199077 -0.00327757 -2.43945e-19 0.257728 -0.0665597 4.33681e-18 0.348039 -0.115576 -1.73472e-18
0.501313 -0.17017 -5.20417e-18 0.712121 -0.197828 -8.67362e-19 0.932961 -0.149365 -5.20417e-18 1.05496
-0.0269394 -1.00831e-17 1.01678 0.0111357 1.11131e-18 0.202958 -0.0332101 -5.42101e-19 0.190485 -0.00375424
-2.57498e-19 0.245414 -0.0745228 -8.67362e-19 0.331422 -0.130799 -2.60209e-18 0.478973 -0.194376 -4.33681e-18
0.682836 -0.228387 0 0.904483 -0.175095 -6.07153e-18 1.04244 -0.0333404 -1.0842e-19 1.01721
0.0131028 -3.79471e-19 0.192544 -0.0361446 -1.95156e-18 0.181079 -0.00421334 -1.35525e-20 0.231638 -0.0816248
-5.20417e-18 0.311709 -0.144547 -4.77049e-18 0.449052 -0.21631 2.60209e-18 0.638856 -0.257151 -5.20417e-18
0.855474 -0.202485 0 1.01537 -0.0442317 1.4203e-17 1.01613 0.0140453 -2.05998e-18 0.181349
-0.0386011 -8.67362e-19 0.170993 -0.00464405 -3.52366e-19 0.216673 -0.0876305 2.38524e-18 0.289092 -0.156093
6.50521e-18 0.411639 -0.234655 3.46945e-18 0.580879 -0.282521 8.67362e-19 0.785836 -0.231421 1.73472e-18
0.971647 -0.0619682 -1.19262e-17 1.01269 0.0130156 1.40946e-18 0.169574 -0.0405411 3.03577e-18 0.160371
-0.00503677 -4.20128e-19 0.2009 -0.0923337 6.50521e-18 0.264246 -0.164796 4.33681e-18 0.368447 -0.248288
6.93889e-18 0.512352 -0.303146 0 0.699522 -0.261158 -8.67362e-18 0.910557 -0.0885559 5.63785e-18
1.00533 0.00872169 7.86047e-19 0.157443 -0.041959 1.73472e-18 0.149359 -0.00538523 -3.65918e-19 0.184757
-0.095615 2.60209e-18 0.238257 -0.170295 -8.67362e-19 0.322483 -0.256584 9.54098e-18 0.43845 -0.318095