# vtk DataFile Version 2.0
sampleSurface
ASCII
DATASET POLYDATA
POINTS 1819 float
-0.00733869 5e-05 0 -0.0075 5e-05 0 -0.0075 0 0 -0.00733869 0
0 -0.00717738 5e-05 0 -0.00717738 0 0 -0.00701607 5e-05 0
-0.00701607 0 0 -0.00685476 5e-05 0 -0.00685476 0 0 -0.00669345
5e-05 0 -0.00669345 0 0 -0.00653232 5e-05 0 -0.00653232 0
0 -0.00637155 5e-05 0 -0.00637154 0 0 -0.0062 0 0
-0.0062 5e-05 0 -0.00733869 0.0001 0 -0.0075 0.0001 0 -0.00717738
0.0001 0 -0.00701607 0.0001 0 -0.00685476 0.0001 0 -0.00669345 0.0001
0 -0.00653232 0.0001 0 -0.00637156 0.0001 0 -0.0062 0.0001 0
-0.00733869 0.00015 0 -0.0075 0.00015 0 -0.00717738 0.00015 0 -0.00701607
0.00015 0 -0.00685476 0.00015 0 -0.00669345 0.00015 0 -0.00653232 0.00015
0 -0.00637159 0.00015 0 -0.0062 0.00015 0 -0.00733869 0.0002 0
-0.0075 0.0002 0 -0.00717738 0.0002 0 -0.00701607 0.0002 0 -0.00685476
0.0002 0 -0.00669345 0.0002 0 -0.00653231 0.0002 0 -0.00637162 0.0002
0 -0.0062 0.0002 0 -0.00733869 0.00025 0 -0.0075 0.00025 0
-0.00717738 0.00025 0 -0.00701607 0.00025 0 -0.00685476 0.00025 0 -0.00669345
0.00025 0 -0.00653231 0.00025 0 -0.00637167 0.00025 0 -0.0062 0.00025
0 -0.00733869 0.0003 0 -0.0075 0.0003 0 -0.00717738 0.0003 0
-0.00701607 0.0003 0 -0.00685476 0.0003 0 -0.00669345 0.0003 0 -0.0065323
0.0003 0 -0.00637173 0.0003 0 -0.0062 0.0003 0 -0.00733869 0.00035
0 -0.0075 0.00035 0 -0.00717738 0.00035 0 -0.00701607 0.00035 0
-0.00685476 0.00035 0 -0.00669345 0.00035 0 -0.00653229 0.00035 0 -0.0063718
0.00035 0 -0.0062 0.00035 0 -0.00733869 0.0004 0 -0.0075 0.0004
0 -0.00717738 0.0004 0 -0.00701607 0.0004 0 -0.00685476 0.0004 0
-0.00669345 0.0004 0 -0.00653228 0.0004 0 -0.00637187 0.0004 0 -0.0062
0.0004 0 -0.00733869 0.00045 0 -0.0075 0.00045 0 -0.00717738 0.00045
0 -0.00701607 0.00045 0 -0.00685476 0.00045 0 -0.00669345 0.00045 0
-0.00653227 0.00045 0 -0.00637197 0.00045 0 -0.0062 0.00045 0 -0.00733869
0.0005 0 -0.0075 0.0005 0 -0.00717738 0.0005 0 -0.00701607 0.0005
0 -0.00685476 0.0005 0 -0.00669345 0.0005 0 -0.00653226 0.0005 0
-0.00637207 0.0005 0 -0.0062 0.0005 0 -0.00733869 0.00055 0 -0.0075
0.00055 0 -0.00717738 0.00055 0 -0.00701607 0.00055 0 -0.00685476 0.00055
0 -0.00669345 0.00055 0 -0.00653224 0.00055 0 -0.00637218 0.00055 0
-0.0062 0.00055 0 -0.00733869 0.0006 0 -0.0075 0.0006 0 -0.00717738
0.0006 0 -0.00701607 0.0006 0 -0.00685476 0.0006 0 -0.00669345 0.0006
0 -0.00653222 0.0006 0 -0.00637231 0.0006 0 -0.0062 0.0006 0
-0.00733869 0.00065 0 -0.0075 0.00065 0 -0.00717738 0.00065 0 -0.00701607
0.00065 0 -0.00685476 0.00065 0 -0.00669345 0.00065 0 -0.0065322 0.00065
0 -0.00637244 0.00065 0 -0.0062 0.00065 0 -0.00733869 0.0007 0
-0.0075 0.0007 0 -0.00717738 0.0007 0 -0.00701607 0.0007 0 -0.00685476
0.0007 0 -0.00669345 0.0007 0 -0.0065322 0.0007 0 -0.00637263 0.0007
0 -0.0062 0.0007 0 -0.00733869 0.00075 0 -0.0075 0.00075 0
-0.00717738 0.00075 0 -0.00701607 0.00075 0 -0.00685476 0.00075 0 -0.00669345
0.00075 0 -0.0065322 0.00075 0 -0.00637171 0.00075 0 -0.0062 0.00075
0 -0.0026077 0.000183339 0 -0.0027 0.000183339 0 -0.0027 0 0
-0.0026077 0 0 -0.00251105 0.000183339 0 -0.00251105 0 0 -0.00241061
0.000183339 0 -0.00241062 0 0 -0.0023064 0.000183339 0 -0.0023064 0
0 -0.0021983 0.000183339 0 -0.00219831 0 0 -0.00208619 0.000183339 0
-0.00208619 0 0 -0.00196991 0.000183339 0 -0.00196992 0 0 -0.00184931
0.000183339 0 -0.00184932 0 0 -0.00172423 0.000183339 0 -0.00172423 0
0 -0.0015945 0.000183339 0 -0.0015945 0 0 -0.00145995 0.000183339 0
-0.00145995 0 0 -0.0013204 0.000183339 0 -0.0013204 0 0 -0.00117566
0.000183339 0 -0.00117567 0 0 -0.00102555 0.000183339 0 -0.00102555 0
0 -0.000869855 0.000183339 0 -0.000869863 0 0 -0.000708378 0.000183339 0
-0.000708386 0 0 -0.0005409 0.000183339 0 -0.000540908 0 0 -0.0003672
0.000183339 0 -0.000367208 0 0 -0.000187043 0.000183339 0 -0.000187052 0
0 0 0 0 0 0.000183339 0 -0.00260769 0.000353777 0
-0.0027 0.000353777 0 -0.00251104 0.000353777 0 -0.0024106 0.000353777 0 -0.00230639
0.000353777 0 -0.00219829 0.000353777 0 -0.00208618 0.000353777 0 -0.0019699 0.000353777
0 -0.0018493 0.000353777 0 -0.00172422 0.000353777 0 -0.00159449 0.000353777 0
-0.00145993 0.000353777 0 -0.00132038 0.000353777 0 -0.00117565 0.000353777 0 -0.00102553
0.000353777 0 -0.000869839 0.000353777 0 -0.000708362 0.000353777 0 -0.000540884 0.000353777
0 -0.000367183 0.000353777 0 -0.000187026 0.000353777 0 0 0.000353777 0
-0.0026077 0.000512223 0 -0.0027 0.000512223 0 -0.00251104 0.000512223 0 -0.00241059
0.000512223 0 -0.00230638 0.000512223 0 -0.00219828 0.000512223 0 -0.00208617 0.000512223
0 -0.00196989 0.000512223 0 -0.00184929 0.000512223 0 -0.0017242 0.000512223 0
-0.00159447 0.000512223 0 -0.00145992 0.000512223 0 -0.00132037 0.000512223 0 -0.00117563
0.000512223 0 -0.00102552 0.000512223 0 -0.000869824 0.000512223 0 -0.000708346 0.000512223
0 -0.000540868 0.000512223 0 -0.000367167 0.000512223 0 -0.00018701 0.000512223 0
0 0.000512223 0 -0.0026077 0.000659519 0 -0.0027 0.000659519 0 -0.00251103
0.000659519 0 -0.00241059 0.000659519 0 -0.00230637 0.000659519 0 -0.00219827 0.000659519
0 -0.00208616 0.000659519 0 -0.00196988 0.000659519 0 -0.00184927 0.000659519 0
-0.00172419 0.000659519 0 -0.00159446 0.000659519 0 -0.00145991 0.000659519 0 -0.00132036
0.000659519 0 -0.00117562 0.000659519 0 -0.0010255 0.000659519 0 -0.000869809 0.000659519
0 -0.000708331 0.000659519 0 -0.000540853 0.000659519 0 -0.000367151 0.000659519 0
-0.000186994 0.000659519 0 0 0.000659519 0 -0.00260771 0.000796451 0 -0.0027
0.000796451 0 -0.00251103 0.000796451 0 -0.00241058 0.000796451 0 -0.00230636 0.000796451
0 -0.00219826 0.000796451 0 -0.00208615 0.000796451 0 -0.00196986 0.000796451 0
-0.00184926 0.000796451 0 -0.00172418 0.000796451 0 -0.00159445 0.000796451 0 -0.00145989
0.000796451 0 -0.00132034 0.000796451 0 -0.0011756 0.000796451 0 -0.00102549 0.000796451
0 -0.000869795 0.000796451 0 -0.000708317 0.000796451 0 -0.000540838 0.000796451 0
-0.000367136 0.000796451 0 -0.000186979 0.000796451 0 0 0.000796451 0 -0.00260771
0.000923748 0 -0.0027 0.000923748 0 -0.00251102 0.000923748 0 -0.00241057 0.000923748
0 -0.00230635 0.000923748 0 -0.00219825 0.000923748 0 -0.00208613 0.000923748 0
-0.00196985 0.000923748 0 -0.00184925 0.000923748 0 -0.00172417 0.000923748 0 -0.00159443
0.000923748 0 -0.00145988 0.000923748 0 -0.00132033 0.000923748 0 -0.00117559 0.000923748
0 -0.00102547 0.000923748 0 -0.000869781 0.000923748 0 -0.000708303 0.000923748 0
-0.000540824 0.000923748 0 -0.000367122 0.000923748 0 -0.000186965 0.000923748 0 0
0.000923748 0 -0.00260772 0.00104209 0 -0.0027 0.00104209 0 -0.00251102 0.00104209
0 -0.00241056 0.00104209 0 -0.00230634 0.00104209 0 -0.00219824 0.00104209 0
-0.00208612 0.00104209 0 -0.00196984 0.00104209 0 -0.00184924 0.00104209 0 -0.00172415
0.00104209 0 -0.00159442 0.00104209 0 -0.00145987 0.00104209 0 -0.00132032 0.00104209
0 -0.00117558 0.00104209 0 -0.00102546 0.00104209 0 -0.000869768 0.00104209 0
-0.00070829 0.00104209 0 -0.000540811 0.00104209 0 -0.000367109 0.00104209 0 -0.000186952
0.00104209 0 0 0.00104209 0 -0.00260773 0.0011521 0 -0.0027 0.0011521
0 -0.00251101 0.0011521 0 -0.00241055 0.0011521 0 -0.00230633 0.0011521 0
-0.00219823 0.0011521 0 -0.00208611 0.0011521 0 -0.00196983 0.0011521 0 -0.00184923
0.0011521 0 -0.00172414 0.0011521 0 -0.00159441 0.0011521 0 -0.00145986 0.0011521
0 -0.0013203 0.0011521 0 -0.00117557 0.0011521 0 -0.00102545 0.0011521 0
-0.000869756 0.0011521 0 -0.000708277 0.0011521 0 -0.000540799 0.0011521 0 -0.000367097
0.0011521 0 -0.000186941 0.0011521 0 0 0.0011521 0 -0.00260774 0.00125437
0 -0.0027 0.00125437 0 -0.00251101 0.00125437 0 -0.00241054 0.00125437 0
-0.00230632 0.00125437 0 -0.00219822 0.00125437 0 -0.0020861 0.00125437 0 -0.00196982
0.00125437 0 -0.00184922 0.00125437 0 -0.00172413 0.00125437 0 -0.0015944 0.00125437
0 -0.00145985 0.00125437 0 -0.00132029 0.00125437 0 -0.00117555 0.00125437 0
-0.00102544 0.00125437 0 -0.000869745 0.00125437 0 -0.000708266 0.00125437 0 -0.000540787
0.00125437 0 -0.000367086 0.00125437 0 -0.00018693 0.00125437 0 0 0.00125437
0 -0.00260775 0.00134945 0 -0.0027 0.00134945 0 -0.00251101 0.00134945 0
-0.00241053 0.00134945 0 -0.00230631 0.00134945 0 -0.00219821 0.00134945 0 -0.00208609
0.00134945 0 -0.00196981 0.00134945 0 -0.00184921 0.00134945 0 -0.00172412 0.00134945
0 -0.00159439 0.00134945 0 -0.00145984 0.00134945 0 -0.00132028 0.00134945 0
-0.00117554 0.00134945 0 -0.00102543 0.00134945 0 -0.000869734 0.00134945 0 -0.000708255
0.00134945 0 -0.000540777 0.00134945 0 -0.000367075 0.00134945 0 -0.00018692 0.00134945
0 0 0.00134945 0 -0.00260776 0.00143783 0 -0.0027 0.00143783 0
-0.002511 0.00143783 0 -0.00241052 0.00143783 0 -0.0023063 0.00143783 0 -0.0021982
0.00143783 0 -0.00208608 0.00143783 0 -0.0019698 0.00143783 0 -0.0018492 0.00143783
0 -0.00172411 0.00143783 0 -0.00159438 0.00143783 0 -0.00145983 0.00143783 0
-0.00132027 0.00143783 0 -0.00117553 0.00143783 0 -0.00102542 0.00143783 0 -0.000869725
0.00143783 0 -0.000708246 0.00143783 0 -0.000540767 0.00143783 0 -0.000367066 0.00143783
0 -0.000186911 0.00143783 0 0 0.00143783 0 -0.00260778 0.00152 0
-0.0027 0.00152 0 -0.002511 0.00152 0 -0.00241052 0.00152 0 -0.00230629
0.00152 0 -0.00219819 0.00152 0 -0.00208607 0.00152 0 -0.00196979 0.00152
0 -0.00184919 0.00152 0 -0.0017241 0.00152 0 -0.00159437 0.00152 0
-0.00145982 0.00152 0 -0.00132026 0.00152 0 -0.00117553 0.00152 0 -0.00102541
0.00152 0 -0.000869716 0.00152 0 -0.000708237 0.00152 0 -0.000540759 0.00152
0 -0.000367057 0.00152 0 -0.000186902 0.00152 0 0 0.00152 0
-0.00260779 0.00159638 0 -0.0027 0.00159638 0 -0.002511 0.00159638 0 -0.00241051
0.00159638 0 -0.00230628 0.00159638 0 -0.00219818 0.00159638 0 -0.00208607 0.00159638
0 -0.00196978 0.00159638 0 -0.00184918 0.00159638 0 -0.00172409 0.00159638 0
-0.00159436 0.00159638 0 -0.00145981 0.00159638 0 -0.00132025 0.00159638 0 -0.00117552
0.00159638 0 -0.0010254 0.00159638 0 -0.000869708 0.00159638 0 -0.000708229 0.00159638
[...]
POINT_DATA 1819
FIELD attributes 2
p 1 1819 float
0.0128475 -0.0366013 -0.0296367 0.0126174 0.0619515 0.061643 0.104796 0.104369 0.134162 0.133666 0.134167
0.133731 0.09904 0.0989525 0.0496504 0.050022 0.02459 0.0241459 0.0132289 -0.0351431 0.06219
0.105002 0.134322 0.134031 0.0980494 0.0478199 0.0220663 0.0136126 -0.0339361 0.0620274 0.104477
0.133536 0.132658 0.0953614 0.0440976 0.0181426 0.0141429 -0.0323828 0.0618038 0.10376 0.132469
0.130738 0.0915066 0.0387 0.0124192 0.0147762 -0.030481 0.0614639 0.102766 0.130967 0.128032
0.0862173 0.0314293 0.00476135 0.0154589 -0.0282765 0.0609358 0.101381 0.128836 0.124234 0.0791537
0.0220056 -0.00506872 0.0161382 -0.0258306 0.0601549 0.0995063 0.125885 0.119033 0.0699989 0.0101817
-0.0172994 0.0167589 -0.0232143 0.059054 0.0970254 0.121934 0.112201 0.0586303 -0.00404009 -0.0319303
0.0172636 -0.0205043 0.0575668 0.0938138 0.116852 0.103773 0.0453781 -0.0201422 -0.0484317 0.0175994
-0.017779 0.0556429 0.0897753 0.110561 0.0941499 0.0311903 -0.0369652 -0.065555 0.0177278 -0.0151131
0.0532624 0.0848879 0.103083 0.0840002 0.0176051 -0.0527898 -0.081677 0.0176298 -0.0125729 0.0504443
0.0792203 0.0946085 0.0739222 0.00636868 -0.0656611 -0.095491 0.0173004 -0.0102113 0.0472282 0.0728866
0.0853677 0.0640183 -0.00227122 -0.0782708 -0.113165 0.0167421 -0.00806641 0.0436552 0.0660134 0.075547
0.0538069 -0.0106604 -0.0951332 -0.140408 0.0157501 -0.00549929 0.0387851 0.056996 0.0630416 0.0407667
-0.0209469 -0.101696 -0.154776 4.50753 4.51077 4.51353 4.51073 4.49945 4.50274 4.48619
4.48959 4.46738 4.47086 4.44314 4.44671 4.41407 4.41771 4.38113 4.3848 4.3455
4.34914 4.30843 4.31199 4.27121 4.27461 4.23502 4.23821 4.20088 4.20382 4.16963
4.17229 4.14188 4.14426 4.11807 4.12017 4.09845 4.10031 4.08319 4.08484 4.07243
4.07392 4.06649 4.06788 4.06614 4.06497 4.49932 4.50236 4.49109 4.47762 4.45855
4.43402 4.4047 4.37161 4.33598 4.29909 4.26223 4.22655 4.19305 4.16252 4.13551
4.11242 4.09346 4.07874 4.06838 4.06269 4.06114 4.48651 4.4896 4.47813 4.46439
4.44491 4.41995 4.39025 4.35696 4.32136 4.28478 4.2485 4.21366 4.18119 4.15178
4.12595 4.10397 4.08601 4.07213 4.06239 4.05705 4.05558 4.46854 4.4717 4.45997
4.4459 4.42595 4.40051 4.37046 4.33707 4.30171 4.26576 4.23046 4.19689 4.1659
4.13809 4.11384 4.09337 4.07674 4.06395 4.05502 4.05014 4.04878 4.44536 4.4486
4.43662 4.42224 4.40185 4.37602 4.34577 4.31254 4.27776 4.24284 4.20897 4.17714
4.14809 4.1223 4.10002 4.08137 4.06633 4.05483 4.04684 4.0425 4.04129 4.4165
4.41978 4.40766 4.39309 4.37241 4.34641 4.31628 4.28362 4.24992 4.21656 4.18467
4.15511 4.12847 4.1051 4.08514 4.06857 4.05533 4.04527 4.03831 4.03455 4.0335
4.38109 4.38434 4.37234 4.35782 4.33718 4.31144 4.28196 4.2505 4.21855 4.18742
4.15813 4.1314 4.10765 4.08708 4.06971 4.05545 4.04415 4.03563 4.02977 4.02663
4.02575 4.338 4.34109 4.32968 4.31565 4.29563 4.27084 4.24282 4.2134 4.18403
4.15592 4.12992 4.10658 4.08616 4.06872 4.05419 4.04239 4.03313 4.0262 4.02147
4.01896 4.01826 4.28568 4.28836 4.27836 4.26561 4.24714 4.22435 4.1989 4.17261
4.14683 4.12261 4.10061 4.0812 4.06451 4.05047 4.03894 4.0297 4.02252 4.01721
4.01361 4.01171 4.01119 4.22204 4.2239 4.21674 4.20654 4.19108 4.17179 4.15036
4.12852 4.10746 4.08804 4.07073 4.05576 4.04312 4.03269 4.02426 4.0176 4.01251
4.00878 4.00628 4.00498 4.00464 4.14427 4.14458 4.14271 4.13714 4.12682 4.11307
4.09749 4.08164 4.06652 4.0528 4.04084 4.03071 4.02237 4.01565 4.01035 4.00626
4.0032 4.00101 3.99957 3.99884 3.99865 4.04853 4.04596 4.0537 4.05599 4.05387
4.04833 4.04078 4.0326 4.02465 4.0175 4.01141 4.00645 4.00255 3.99957 3.99737
3.99578 3.99468 3.99394 3.9935 3.9933 3.99326 3.92952 3.92151 3.94659 3.96166
3.97198 3.97793 3.98089 3.98214 3.98254 3.9827 3.98291 3.9833 3.98389 3.98462
3.98542 3.98622 3.98696 3.98758 3.98807 3.98836 3.98845 3.77976 3.7613 3.8178
3.8529 3.88125 3.9026 3.91873 3.9311 3.9409 3.94893 3.95571 3.96153 3.96655
3.97087 3.97454 3.97759 3.98004 3.98192 3.98325 3.984 3.98421 3.58857 3.5495
3.66359 3.72879 3.78232 3.82337 3.85533 3.88035 3.90037 3.91666 3.93012 3.94132
3.95065 3.95839 3.96474 3.96987 3.9739 3.97693 3.97902 3.98017 3.98049 3.34003
3.25966 3.48058 3.589 3.67648 3.74162 3.7919 3.83078 3.86157 3.88628 3.90637
3.92278 3.93621 3.94716 3.956 3.96304 3.96849 3.97255 3.97534 3.97684 3.97726
3.00995 2.84765 3.26668 3.43411 3.56572 3.65914 3.72969 3.78321 3.82499 3.85807
3.88459 3.90597 3.92325 3.93716 3.94828 3.95704 3.96377 3.96875 3.97214 3.97396
3.97446 2.55719 2.23678 3.02088 3.26671 3.45279 3.57783 3.66988 3.73833 3.79102
3.83221 3.86485 3.89089 3.91172 3.92834 3.94151 3.95181 3.95968 3.96546 3.9694
3.97149 3.97206 1.92695 1.32488 2.7447 3.0934 3.34125 3.49965 3.61355 3.6967
3.75992 3.80879 3.84715 3.87749 3.90155 3.92061 3.93561 3.94728 3.95615 3.96264
3.96704 3.96938 3.97001 1.116 -3.30997 2.44374 2.93088 3.23998 3.42997 3.56395
3.66045 3.7331 3.78879 3.83217 3.86623 3.89307 3.9142 3.93075 3.94356 3.95327
3.96035 3.96514 3.96768 3.96836 0.0136878 -0.00206423 0.0308337 0.0431588 0.044888 0.0239413
-0.0278219 -0.0855098 -0.127048 0.010934 -7.02702e-05 0.0222504 0.0291756 0.0274322 0.00950949 -0.0288807
-0.0688562 -0.0983591 0.00799059 0.00100414 0.0143308 0.0169692 0.0126269 -0.00310286 -0.0316834 -0.0615903
-0.0851048 0.00517235 0.00144951 0.00729428 0.00661984 0.000382121 -0.0139558 -0.036241 -0.0601573 -0.0803891
0.00235189 0.00126681 0.00114694 -0.00210392 -0.0097822 -0.0232345 -0.0418993 -0.0622809 -0.0804534 -0.000691387
0.000419192 -0.00418203 -0.00948733 -0.0182652 -0.0312365 -0.0479118 -0.0662562 -0.0830951 -0.00348085 -0.000537893
-0.00872513 -0.015703 -0.0253776 -0.038205 -0.0538821 -0.0711604 -0.0872539 -0.00571058 -0.0012569 -0.0125329
-0.0208748 -0.0313401 -0.0442661 -0.0595369 -0.0763566 -0.0921062 -0.00752532 -0.00184266 -0.0156873 -0.0251561
-0.0363403 -0.0495256 -0.0647513 -0.0815058 -0.0972051 -0.00898416 -0.00232417 -0.0182636 -0.0286727 -0.04051
-0.0540436 -0.0694323 -0.0863661 -0.102214 -0.0101388 -0.00271719 -0.0203365 -0.0315251 -0.0439476 -0.0578698
-0.0735318 -0.0907815 -0.106892 -0.0110313 -0.00303315 -0.0219677 -0.0337913 -0.0467297 -0.0610605 -0.0770458
-0.0946326 -0.111028 -0.0116881 -0.00327931 -0.0231908 -0.0355 -0.048849 -0.0635511 -0.0798221 -0.0975687
-0.114213 -0.0121263 -0.00346324 -0.0240277 -0.0366833 -0.050334 -0.0654242 -0.082126 -0.0996987 -0.116755
-0.0122929 -0.00439868 -0.0243535 -0.037153 -0.0509357 -0.0662514 -0.0832712 -0.100732 -0.119128 -0.139873
-0.156025 -0.137564 -0.147934 -0.137252 -0.143815 -0.139253 -0.143542 -0.142965 -0.145661 -0.148103
-0.149625 -0.154487 -0.155117 -0.161995 -0.161924 -0.170541 -0.169899 -0.180064 -0.178942 -0.190521
-0.188984 -0.201884 -0.199977 -0.214132 -0.211891 -0.22725 -0.2247 -0.241221 -0.238385 -0.256029
-0.252927 -0.27165 -0.268298 -0.288041 -0.284456 -0.305122 -0.301325 -0.322742 -0.318773 -0.340635
-0.336568 -0.358386 -0.354353 -0.375443 -0.371642 -0.391241 -0.387908 -0.40551 -0.402814 -0.418781
-0.416645 -0.433071 -0.43095 -0.452719 -0.449381 -0.485217 -0.478559 -0.541571 -0.528839 -0.639071
-0.616166 -0.801864 -0.762774 -1.05741 -0.99484 -1.43246 -1.33839 -1.94278 -1.81149 -2.57911
-2.41156 -3.2932 -3.10039 -3.99514 -3.79848 -4.57809 -4.40509 -4.96052 -4.83746 -5.11884
-5.05927 -5.0957 -5.09168 -4.97975 -5.00711 -4.86399 -4.89611 -4.81236 -4.83074 -4.85789
-4.85553 -5.01312 -4.99915 -5.28405 -5.24989 -6.56599 -6.66867 -4.68489 -0.114527 -0.120839
-0.125981 -0.131493 -0.137692 -0.144666 -0.152448 -0.161052 -0.17048 -0.180734 -0.191815 -0.203721
-0.216452 -0.230003 -0.244373 -0.259552 -0.275524 -0.292245 -0.309622 -0.327472 -0.345471 -0.363135
-0.379869 -0.395154 -0.408909 -0.42203 -0.437072 -0.459227 -0.497496 -0.563096 -0.676682 -0.867118
-1.16263 -1.59129 -2.16444 -2.86156 -3.61779 -4.32638 -4.87026 -5.17128 -5.2268 -5.10874
-4.93193 -4.80149 -4.76992 -4.84701 -5.01262 -5.29707 -5.94624 -3.91953 -0.100755 -0.110072
-0.117972 -0.125657 -0.133569 -0.141906 -0.150785 -0.160277 -0.170434 -0.181292 -0.192879 -0.205217
-0.218323 -0.232211 -0.246893 -0.262367 -0.278622 -0.295613 -0.313238 -0.331305 -0.349491 -0.367352
-0.38439 -0.400237 -0.414987 -0.429733 -0.447323 -0.47356 -0.51861 -0.59541 -0.729256 -0.950325
-1.28946 -1.77483 -2.41242 -3.16972 -3.96389 -4.67132 -5.16905 -5.38844 -5.34266 -5.12423
-4.8793 -4.72897 -4.71696 -4.82115 -4.99159 -5.21249 -5.22575 -3.09478 -0.0950986 -0.105339
-0.114386 -0.123224 -0.132202 -0.141484 -0.151181 -0.161378 -0.172139 -0.183516 -0.195552 -0.208285
-0.221748 -0.235968 -0.250965 -0.266748 -0.283311 -0.300625 -0.318611 -0.337117 -0.355898 -0.374618
-0.392925 -0.410603 -0.427899 -0.446099 -0.468423 -0.501247 -0.555451 -0.647893 -0.804213 -1.05542
-1.435 -1.9692 -2.6591 -3.46148 -4.27755 -4.97077 -5.41642 -5.55811 -5.42309 -5.12475
-4.82999 -4.66789 -4.6703 -4.78198 -4.91561 -4.96959 -4.45661 -2.34757 -0.0944678 -0.104985
-0.114522 -0.123939 -0.133517 -0.143387 -0.153644 -0.164366 -0.175617 -0.187454 -0.199927 -0.213082
-0.22696 -0.241596 -0.257022 -0.273262 -0.290332 -0.308231 -0.326923 -0.34632 -0.366262 -0.386543
-0.406989 -0.427631 -0.449018 -0.472788 -0.502566 -0.545197 -0.612182 -0.721366 -0.898024 -1.17318
-1.57951 -2.14042 -2.85304 -3.66731 -4.47666 -5.13984 -5.53521 -5.6181 -5.43144 -5.09918
-4.79131 -4.63177 -4.63102 -4.70132 -4.72241 -4.53201 -3.6409 -1.70253 -0.0966069 -0.107184
-0.116953 -0.126706 -0.136683 -0.14699 -0.157703 -0.168891 -0.180614 -0.192931 -0.205896 -0.219562
-0.233979 -0.249197 -0.265265 -0.282228 -0.30013 -0.319005 -0.338861 -0.359672 -0.381388 -0.403988
-0.427619 -0.452743 -0.480384 -0.512625 -0.55336 -0.60935 -0.691572 -0.816702 -1.00788 -1.29367
-1.70362 -2.25812 -2.95202 -3.73538 -4.50548 -5.12766 -5.48789 -5.54848 -5.35895 -5.04204
-4.75398 -4.59662 -4.55312 -4.51882 -4.37567 -3.94804 -2.85852 -1.17792 -0.100456 -0.11105
-0.120958 -0.130943 -0.141223 -0.151888 -0.163005 -0.174635 -0.186838 -0.199674 -0.213205 -0.227493
-0.242602 -0.258599 -0.275554 -0.293544 -0.312645 -0.332933 -0.354477 -0.377352 -0.40168 -0.427725
-0.456183 -0.488155 -0.525189 -0.569781 -0.625649 -0.698496 -0.79727 -0.935538 -1.1324 -1.41182
-1.79876 -2.31043 -2.94211 -3.65091 -4.34869 -4.91869 -5.25955 -5.33415 -5.18531 -4.92069
-4.66727 -4.49507 -4.37375 -4.21148 -3.91324 -3.32554 -2.2023 -0.791704 -0.105141 -0.11576
-0.125791 -0.135983 -0.146541 -0.157547 -0.169062 -0.181145 -0.193859 -0.207271 -0.221449 -0.236472
-0.252419 -0.269383 -0.287465 -0.30678 -0.327454 -0.349631 -0.373479 -0.399243 -0.427303 -0.458227
-0.493683 -0.535512 -0.585458 -0.646473 -0.721493 -0.813973 -0.929444 -1.07678 -1.26959 -1.52631
-1.86721 -2.30705 -2.8434 -3.44392 -4.04056 -4.54156 -4.8636 -4.96899 -4.88453 -4.68952
-4.47471 -4.28434 -4.0899 -3.82618 -3.42439 -2.76366 -1.70394 -0.5266 -0.110194 -0.120865
-0.131027 -0.141427 -0.15226 -0.163602 -0.175517 -0.188064 -0.201313 -0.215338 -0.230222 -0.246058
-0.262951 -0.281022 -0.300412 -0.321293 -0.343866 -0.368372 -0.395136 -0.424646 -0.457677 -0.495471
-0.539996 -0.593599 -0.659305 -0.739723 -0.836243 -0.949578 -1.08078 -1.23296 -1.41366 -1.63607
-1.91702 -2.27061 -2.69831 -3.17868 -3.66311 -4.08435 -4.37829 -4.50939 -4.48801 -4.36313
-4.19158 -3.9981 -3.76173 -3.44122 -2.98704 -2.30949 -1.34334 -0.345578 -0.115243 -0.125989
-0.136295 -0.14691 -0.158019 -0.169697 -0.182008 -0.19502 -0.208806 -0.223455 -0.239062 -0.255741
-0.273622 -0.292857 -0.313628 -0.336194 -0.360846 -0.387923 -0.417939 -0.451661 -0.490285 -0.535738
-0.589996 -0.656295 -0.738437 -0.838415 -0.956132 -1.08916 -1.23374 -1.38734 -1.55179 -1.73589
-1.9545 -2.22291 -2.54776 -2.91806 -3.30127 -3.64915 -3.91263 -4.05929 -4.08653 -4.02021
-3.89073 -3.70736 -3.45552 -3.10972 -2.6337 -1.96468 -1.08578 -0.217458 -0.120006 -0.13084
-0.141299 -0.152134 -0.163515 -0.175518 -0.188209 -0.201661 -0.21596 -0.231201 -0.247498 -0.264981
-0.283802 -0.304137 -0.326176 -0.350351 -0.377041 -0.406574 -0.43967 -0.477346 -0.521095 -0.573094
-0.636215 -0.714048 -0.81003 -0.925881 -1.06025 -1.20801 -1.3617 -1.51441 -1.66363 -1.81475
-1.98106 -2.1787 -2.41882 -2.69958 -3.00168 -3.29116 -3.52927 -3.68558 -3.7482 -3.72541
-3.62878 -3.45829 -3.20309 -2.84671 -2.3629 -1.71103 -0.902008 -0.124027 -0.124253 -0.1352
-0.145828 -0.156882 -0.168518 -0.180813 -0.193839 -0.207675 -0.222414 -0.238165 -0.255053 -0.273226
-0.292857 -0.314155 -0.337387 -0.362901 -0.391099 -0.422561 -0.458096 -0.498857 -0.546524 -0.603467
-0.672802 -0.758138 -0.862622 -0.987373 -1.13005 -1.28436 -1.44114 -1.59146 -1.73076 -1.86232
-1.99719 -2.1498 -2.33201 -2.5474 -2.78707 -3.02922 -3.2442 -3.40384 -3.49012 -3.49715
-3.42354 -3.26416 -3.00964 -2.64857 -2.16303 -1.52994 -0.77356 -0.0570189 -0.127692 -0.138836
-0.149652 -0.160902 -0.172747 -0.185274 -0.198558 -0.21268 -0.227745 -0.243867 -0.261177 -0.279834
-0.30003 -0.322007 -0.346091 -0.372493 -0.401681 -0.434422 -0.471555 -0.514292 -0.564353 -0.62409
-0.69648 -0.784807 -0.89177 -1.01806 -1.16108 -1.31456 -1.46947 -1.61736 -1.754 -1.88158
-2.0083 -2.14483 -2.30039 -2.47933 -2.678 -2.88319 -3.07383 -3.22633 -3.3207 -3.34294
-3.28285 -3.13068 -2.87718 -2.51351 -2.02825 -1.41186 -0.69227 -0.0126463 -0.130669 -0.141819
-0.152567 -0.163857 -0.175771 -0.188389 -0.201786 -0.216048 -0.231271 -0.24757 -0.26508 -0.283963
-0.304418 -0.326693 -0.351079 -0.377923 -0.407715 -0.441132 -0.479072 -0.522768 -0.573893 -0.634645
-0.707714 -0.795967 -0.901677 -1.02538 -1.16486 -1.31466 -1.46724 -1.61524 -1.75498 -1.88831
-2.02126 -2.16173 -2.31618 -2.48694 -2.67023 -2.85549 -3.02667 -3.16503 -3.25251 -3.2735
-3.21435 -3.06279 -2.80803 -2.44095 -1.95421 -1.34696 -0.646606 0.0185222 -0.132251 -0.143192
-0.153777 -0.165017 -0.176911 -0.189521 -0.202924 -0.217208 -0.23246 -0.248791 -0.266338 -0.285268
-0.305781 -0.32812 -0.352579 -0.37953 -0.40947 -0.443063 -0.481214 -0.525151 -0.576504 -0.637384
-0.710339 -0.798049 -0.902625 -1.0246 -1.16202 -1.30998 -1.46199 -1.61101 -1.7533 -1.8907
-2.02864 -2.17428 -2.33306 -2.50588 -2.68784 -2.86828 -3.03237 -3.16326 -3.24442 -3.26078
-3.19867 -3.04562 -2.78953 -2.42033 -1.93207 -1.32672 -0.631382 0.0868908 0.538776 2.17823
2.79961 3.15749 3.37375 3.52398 3.6314 3.71172 3.77294 3.82036 3.8574 3.88645
3.90923 3.92699 3.9407 3.95106 3.95859 3.96368 3.96637 3.96709 0.418206 1.98767
2.69129 3.08418 3.32367 3.48826 3.60555 3.6928 3.759 3.81004 3.84974 3.88074
3.90495 3.92377 3.93826 3.94918 3.9571 3.96245 3.96527 3.96602 0.498143 1.86696
2.59994 3.01583 3.276 3.45401 3.58081 3.67476 3.74577 3.8003 3.84254 3.8754
3.90097 3.92079 3.936 3.94745 3.95573 3.96132 3.96426 3.96504 0.59273 1.79035
2.52416 2.954 3.23148 3.42166 3.55743 3.65776 3.73336 3.79121 3.83585 3.87046
3.89731 3.91806 3.93394 3.94587 3.95449 3.96029 3.96335 3.96416 0.658301 1.73757
2.46036 2.89901 3.19052 3.39155 3.53562 3.64192 3.72186 3.78282 3.82971 3.86595
3.89398 3.91558 3.93208 3.94445 3.95338 3.95938 3.96253 3.96337 0.708261 1.70115
2.40617 2.8506 3.15334 3.36393 3.51555 3.62738 3.71133 3.77518 3.82415 3.86189
3.89099 3.91337 3.93043 3.94319 3.95239 3.95857 3.96182 3.96267 0.748598 1.67685
2.36049 2.80844 3.12004 3.33898 3.49738 3.61424 3.70186 3.76835 3.81921 3.85829
3.88837 3.91144 3.92899 3.9421 3.95154 3.95787 3.9612 3.96207 0.780399 1.66046
2.32246 2.77222 3.09074 3.31687 3.48125 3.60262 3.69353 3.76238 3.81491 3.85519
3.88611 3.90979 3.92777 3.94118 3.95083 3.95729 3.96068 3.96157 0.806629 1.64897
2.29118 2.74163 3.06552 3.29775 3.4673 3.59261 3.68641 3.75731 3.8113 3.8526
3.88424 3.90843 3.92676 3.94043 3.95024 3.95681 3.96026 3.96117 0.829721 1.64076
2.26589 2.71643 3.04447 3.28177 3.45569 3.58435 3.68058 3.75321 3.8084 3.85054
3.88277 3.90736 3.92599 3.93985 3.9498 3.95645 3.95994 3.96086 0.849888 1.63499
2.24618 2.69655 3.02778 3.26916 3.44661 3.57796 3.67614 3.75012 3.80625 3.84903
3.88171 3.9066 3.92544 3.93944 3.94949 3.9562 3.95972 3.96065 0.866413 1.63153
2.23219 2.68235 3.01589 3.2603 3.44035 3.57365 3.67321 3.74814 3.8049 3.84812
3.88107 3.90616 3.92513 3.93922 3.94932 3.95607 3.95961 3.96055 0.880798 1.6319
2.22528 2.67497 3.00973 3.25586 3.43735 3.57171 3.67199 3.74737 3.80443 3.84783
3.8809 3.90606 3.92506 3.93918 3.9493 3.95606 3.9596 3.96054 0.896464 1.63701
2.22597 2.67466 3.00937 3.25579 3.43752 3.57202 3.67234 3.74772 3.80475 3.8481
3.88112 3.90624 3.92521 3.9393 3.9494 3.95615 3.95969 3.96064 0.905603 1.64165
2.2289 2.67676 3.01098 3.25709 3.43857 3.57286 3.673 3.74824 3.80515 3.84841
3.88137 3.90643 3.92536 3.93942 3.94949 3.95622 3.95976 3.96071 
U 3 1819 float
0.306421 -0.00546069 -6.77626e-20 0.291435 -0.000522903 -3.38813e-21 0.292105 -0.000641059 -2.79624e-05 0.307297 -0.00301321
-0.000131434 0.355299 -0.0115574 9.21572e-19 0.356254 -0.00637112 -0.000277904 0.442778 -0.0184263 -2.71051e-19
0.443727 -0.0101498 -0.000442729 0.572692 -0.0249485 1.0842e-18 0.573384 -0.013704 -0.000597758 0.734847
-0.0280999 0 0.734881 -0.0154086 -0.000672114 0.900244 -0.0231337 -1.73472e-18 0.899506 -0.0126661
-0.000552487 1.00407 -0.00875068 9.21572e-19 1.00329 -0.00482509 -0.000210467 1.01264 0.00019309 8.42277e-06
1.00572 0.000191124 -7.6233e-21 0.303903 -0.0101875 -1.02999e-18 0.288978 -0.00110956 -6.77626e-21 0.352518
-0.0215789 -3.79471e-19 0.439936 -0.0345109 5.42101e-19 0.570568 -0.0470185 -1.0842e-18 0.734727 -0.0531399
-1.73472e-18 0.902503 -0.0437077 2.71051e-18 1.00651 -0.0161399 1.02999e-18 1.00684 0.000577977 -6.60686e-20
0.299806 -0.0148555 -2.00577e-18 0.285072 -0.00166593 -6.57298e-19 0.347946 -0.031522 -5.42101e-19 0.435129
-0.0506751 0 0.566872 -0.0696009 8.67362e-19 0.734477 -0.0790435 2.1684e-19 0.906421 -0.0648093
2.1684e-19 1.01084 -0.0231276 3.14419e-18 1.00767 0.00118281 -2.03288e-20 0.294089 -0.0195631 -1.51788e-18
0.279638 -0.00224352 -2.03288e-19 0.341502 -0.0416462 -1.73472e-18 0.42821 -0.0674025 0 0.561402
-0.0934222 8.67362e-19 0.733931 -0.106747 1.30104e-18 0.912005 -0.0871358 -2.1684e-18 1.01721 -0.0298452
7.69784e-18 1.00885 0.00206155 -3.52366e-19 0.286774 -0.0241558 1.30104e-18 0.272711 -0.0028341 3.93023e-19
0.333151 -0.0516479 -8.67362e-19 0.419024 -0.0843128 -3.03577e-18 0.553826 -0.118179 -1.73472e-18 0.732517
-0.136104 4.33681e-19 0.918617 -0.110507 -3.03577e-18 1.02533 -0.0359154 3.46945e-18 1.01044 0.00335106
-3.25261e-19 0.277909 -0.0285569 -6.50521e-19 0.264351 -0.00343354 5.69206e-19 0.322869 -0.0613811 -1.73472e-18
0.407363 -0.101272 -1.30104e-18 0.54352 -0.143893 -4.33681e-19 0.728706 -0.167356 -2.60209e-18 0.924092
-0.135193 -3.46945e-18 1.03391 -0.0413311 3.25261e-18 1.0124 0.00514686 -1.04354e-18 0.267563 -0.0326979
-1.6263e-18 0.254643 -0.00403558 -1.0842e-19 0.310637 -0.0707028 -1.51788e-18 0.392938 -0.118101 -1.30104e-18
0.529371 -0.170414 0 0.719397 -0.200516 -3.46945e-18 0.923681 -0.16159 1.30104e-18 1.03978
-0.0465962 1.14925e-17 1.0145 0.00740837 -8.40257e-19 0.255837 -0.0364968 -4.77049e-18 0.243698 -0.00463044
8.13152e-20 0.29645 -0.0794214 -3.68629e-18 0.375408 -0.134447 0 0.50972 -0.197075 3.46945e-18
0.699953 -0.234909 -8.67362e-19 0.909998 -0.190024 2.60209e-18 1.03762 -0.0529915 -6.50521e-19 1.01615
0.00981346 1.00289e-18 0.242865 -0.0398582 2.71051e-18 0.231655 -0.00520506 1.58565e-18 0.280378 -0.0872883
-5.63785e-18 0.354488 -0.149713 -3.46945e-18 0.482714 -0.22254 4.33681e-18 0.665583 -0.268891 2.60209e-18
0.875093 -0.220568 -8.67362e-19 1.02093 -0.0627512 -5.63785e-18 1.01645 0.0116159 9.21572e-19 0.228827
-0.0426849 6.61363e-18 0.218686 -0.00574416 1.76183e-18 0.262639 -0.0940123 1.73472e-18 0.330163 -0.163046
-8.67362e-19 0.447207 -0.245008 8.67362e-19 0.61377 -0.300048 8.67362e-19 0.814189 -0.252931 -5.20417e-18
0.984369 -0.0789574 -2.1684e-19 1.01415 0.0115796 -1.0842e-19 0.213943 -0.0448952 -6.50521e-19 0.204982
-0.00623185 -5.42101e-20 0.243647 -0.099306 -4.33681e-19 0.302945 -0.173505 -4.33681e-19 0.40381 -0.262547
-4.33681e-18 0.546145 -0.32586 -8.67362e-19 0.728665 -0.28626 0 0.92529 -0.104661 1.95156e-17
1.00742 0.00803055 -4.33681e-19 0.198486 -0.0464483 -5.20417e-18 0.190743 -0.00665459 -2.08709e-18 0.223975
-0.102967 -8.67362e-19 0.273959 -0.180364 -1.73472e-18 0.355359 -0.273677 -4.33681e-18 0.468359 -0.344453