/*--------------------------------*- C++ -*----------------------------------*\
  =========                 |
  \\      /  F ield         | OpenFOAM: The Open Source CFD Toolbox
   \\    /   O peration     | Website:  https://openfoam.org
    \\  /    A nd           | Version:  13
     \\/     M anipulation  |
\*---------------------------------------------------------------------------*/
FoamFile
{
    format      ascii;
    class       volScalarField;
    location    "0.7";
    object      alpha.oil;
}
// * * * * * * * * * * * * * * * * * * * * * * * * * * * * * * * * * * * * * //

dimensions      [];

internalField   nonuniform List<scalar> 
2268
(
4.32987e-39
9.52306e-38
3.80374e-37
6.99687e-37
1.48052e-36
4.34003e-36
8.66864e-36
2.54856e-32
8.34619e-27
1.64799e-21
3.49757e-18
1.14876e-16
2.53891e-15
4.08766e-14
4.89199e-13
4.36246e-12
2.82632e-11
1.23314e-10
2.88551e-10
1.804e-10
1.26975e-05
0.000413581
0.000569259
1.44835e-40
1.84113e-36
6.46031e-36
1.12711e-35
2.40573e-35
5.66006e-35
1.35723e-34
3.22461e-34
7.30044e-29
6.92438e-24
2.66405e-20
3.16382e-17
4.92831e-15
5.03217e-14
4.22138e-13
2.78533e-12
1.46629e-11
6.22924e-11
1.99478e-10
1.76074e-10
9.53211e-07
0.000248303
0.000569252
1.20025e-35
3.62272e-35
1.40662e-34
4.07286e-34
7.04736e-34
-3.78271e-33
-8.92576e-31
-4.27164e-29
-5.38684e-28
5.07728e-28
1.8625e-23
2.34376e-19
1.63562e-16
3.66035e-14
8.84764e-13
5.68317e-12
2.75723e-11
1.46128e-10
1.61549e-09
2.31853e-08
6.75011e-07
5.71119e-05
0.00016723
7.07332e-33
6.02625e-33
3.26503e-32
1.54734e-31
4.01694e-31
1.03101e-30
1.8289e-30
4.72126e-27
5.97296e-23
1.2022e-20
1.10415e-19
6.34543e-19
2.92899e-17
1.73324e-15
2.37573e-13
4.9547e-12
1.86663e-11
4.31211e-11
9.77345e-11
3.57381e-07
6.99404e-07
3.2534e-09
3.40524e-09
1.19181e-31
1.26234e-31
9.7713e-31
6.02803e-30
2.17308e-29
7.64456e-29
1.57944e-28
2.80793e-28
2.18561e-23
1.90674e-21
2.18523e-18
1.86606e-16
1.66477e-15
6.81134e-13
2.38636e-11
1.01641e-10
3.77689e-10
9.96204e-10
1.50759e-09
1.5251e-09
1.36483e-08
2.71546e-07
5.36332e-07
3.72384e-31
5.9466e-31
5.42441e-30
3.66487e-29
1.65823e-28
6.2142e-28
8.84744e-28
7.76479e-28
6.69723e-23
7.35833e-19
3.67628e-16
7.50131e-15
1.04407e-12
9.45389e-12
5.51741e-11
2.3766e-10
1.02686e-09
2.32374e-09
1.52468e-09
1.54203e-09
1.65878e-09
1.37605e-06
1.92989e-05
1.12152e-30
3.80683e-30
3.60755e-29
2.27317e-28
1.36179e-27
4.65781e-27
-1.46267e-28
-1.18663e-26
3.87565e-24
3.69975e-20
2.52195e-17
2.33081e-14
2.46026e-12
1.8424e-11
8.21479e-11
2.62887e-10
2.52719e-09
5.86332e-08
4.64962e-07
1.67862e-06
4.28073e-07
1.1049e-06
2.71114e-05
3.20668e-30
4.06249e-29
3.53085e-28
2.33731e-27
1.00378e-26
3.25057e-26
-7.76212e-28
-4.33782e-25
-1.15241e-25
7.95927e-23
2.77163e-19
1.24463e-15
1.93948e-13
6.28116e-12
6.04262e-11
1.16482e-10
1.70516e-11
1.45389e-07
3.49838e-06
7.6639e-06
4.39348e-06
8.05406e-08
2.72501e-05
0.826617
0.84722
0.952785
0.925955
0.868405
0.683111
0.609383
0.635096
0.686596
0.705976
0.707025
0.701203
0.684098
0.411028
0.230144
0.230138
0.142448
0.0373329
0.0371833
0.826684
0.915463
0.951944
0.950777
0.53262
0.110422
0.0670677
0.0598278
0.063682
0.06991
0.0876336
0.106139
0.216731
0.482585
0.41105
0.368208
0.240553
0.179853
0.0371457
0.829313
0.966793
0.894133
0.654882
0.158246
0.00787005
0.000236417
0.000181476
0.000184854
0.000181475
0.000184851
0.00451098
0.230554
0.521282
0.523474
0.521282
0.495776
0.191575
0.0371477
0.961551
0.925681
0.515515
0.214822
0.0141621
0.000183834
0.00018274
0.000184856
0.00640539
0.00755375
0.00525162
0.00534673
0.0531222
0.355353
0.48464
0.489275
0.343254
0.0952154
0.0371457
0.994614
0.544873
0.0972784
0.000180745
0.000183428
0.000180764
0.000401129
0.000398069
0.00139877
0.00685789
0.00740056
0.00567432
0.000632241
0.0636516
0.207056
0.213803
0.164723
0.0468085
0.0371788
0.394121
0.054593
0.000180886
0.000183833
0.000181183
0.000232175
0.000281022
0.000300449
0.000314026
0.000326967
0.000510016
0.000911038
0.000635484
0.000351795
0.000350938
0.000350807
0.000380835
0.0509721
0.0371457
3.82557e-06
4.0082e-06
0.00027108
0.000271368
0.000325183
0.000325317
0.000310141
0.000310352
0.000321432
0.000320429
0.000321511
0.00034752
0.000348095
0.000349944
0.000349757
0.000350938
0.000322703
0.0572137
0.0690621
3.60076e-06
1.79756e-05
0.000527593
0.000328654
0.000326234
0.000327039
0.00284844
0.0414533
0.141136
0.213782
0.178486
0.083786
0.000366982
0.000349757
0.000350936
0.00035079
0.161276
0.303411
0.161614
2.43238e-29
3.26824e-28
3.39474e-27
1.91737e-26
7.94232e-26
2.30032e-25
2.95779e-25
-1.29468e-25
6.78414e-26
4.12439e-21
2.65739e-18
1.62723e-16
7.64991e-15
1.38435e-12
2.76773e-11
7.12264e-11
1.82855e-11
5.40629e-08
4.06227e-06
7.60586e-06
6.46238e-06
7.54181e-08
9.43437e-06
5.13217e-28
7.62345e-27
6.03418e-26
3.22017e-25
1.2904e-24
5.0364e-24
4.03085e-23
7.79314e-22
1.79723e-20
3.67126e-17
4.38225e-15
5.11711e-14
1.20184e-13
1.81296e-13
1.74838e-12
9.07358e-12
4.02829e-11
8.93549e-10
2.39073e-08
2.54308e-06
8.0835e-07
6.69479e-07
1.02637e-06
1.84033e-24
1.07718e-22
2.89285e-21
4.77629e-20
5.54157e-19
5.35488e-18
5.47639e-17
4.68496e-16
3.06705e-15
1.83329e-14
1.00112e-13
1.45765e-12
3.88705e-12
3.95115e-12
2.92202e-12
1.02071e-11
5.20374e-12
5.02626e-12
1.14091e-08
5.67508e-17
8.82398e-10
-2.7782e-09
5.62002e-06
7.14447e-26
4.56033e-24
1.35239e-22
2.73609e-21
2.21838e-18
4.88396e-16
5.14035e-15
4.03128e-14
2.58882e-13
1.45171e-12
7.51335e-12
3.6825e-11
1.90711e-10
2.35554e-10
2.92023e-12
4.05475e-11
5.29439e-12
2.27465e-09
6.79386e-10
-1.34633e-11
2.98385e-06
4.14584e-05
9.1428e-05
2.17582e-26
2.69084e-25
1.13969e-23
2.10708e-22
8.36843e-20
1.88327e-17
2.86747e-16
2.57901e-15
1.74803e-14
1.0396e-13
1.58471e-12
1.14103e-10
1.26181e-09
1.80769e-09
1.04427e-08
4.1182e-11
1.50841e-08
3.52846e-06
3.39127e-06
-7.99536e-14
1.98209e-05
0.000111615
0.000114007
1.09211e-25
5.04864e-24
1.82508e-22
2.86424e-21
1.66607e-20
1.21406e-19
8.244e-19
4.98441e-18
2.41906e-17
6.52599e-17
7.7905e-19
-3.49322e-18
1.34554e-10
1.33983e-10
9.48453e-08
1.15164e-07
8.83017e-07
7.96814e-06
8.06381e-06
7.27143e-06
2.6559e-05
3.4905e-05
7.17721e-05
1.16276e-25
2.5268e-24
7.74686e-23
1.19801e-21
7.37367e-21
3.2057e-20
1.61131e-19
9.73853e-19
3.48131e-18
8.52631e-18
1.19579e-17
-1.60369e-17
2.72782e-10
3.82374e-09
1.02604e-07
6.23473e-07
2.54607e-06
2.44733e-06
3.83128e-06
9.1703e-06
6.27795e-09
1.3743e-07
1.32454e-06
1.90323e-25
1.64988e-24
2.41759e-23
3.061e-22
2.12182e-21
1.28132e-20
7.56725e-20
4.16325e-19
2.01376e-18
8.51454e-18
3.54966e-17
1.54603e-19
7.16292e-11
8.94752e-10
1.34379e-09
7.72696e-08
2.26217e-08
1.07577e-08
1.07964e-08
4.29765e-08
1.59809e-08
9.82824e-08
3.24185e-07
4.19405e-25
2.92318e-24
2.73721e-23
2.43619e-22
1.83504e-21
1.3615e-20
8.61442e-20
4.91783e-19
2.56432e-18
1.08357e-17
4.34619e-17
1.3229e-18
5.84546e-11
1.16608e-09
5.03863e-09
6.61872e-09
7.65524e-09
7.2313e-09
3.66014e-09
2.39035e-09
1.30716e-08
8.34812e-08
2.20957e-07
8.53291e-25
8.01098e-24
7.08963e-23
5.40076e-22
3.92307e-21
2.79815e-20
1.70567e-19
9.25134e-19
4.1149e-18
1.65938e-17
6.62636e-17
4.10756e-18
9.84068e-12
3.12606e-10
5.53999e-09
1.6851e-08
2.61354e-08
2.37088e-08
1.16861e-08
4.29781e-09
1.28918e-08
5.71403e-08
7.46252e-07
1.43301e-24
1.83167e-23
1.78877e-22
1.3995e-21
1.00215e-20
6.47089e-20
3.43545e-19
1.61682e-18
6.87159e-18
2.69993e-17
1.01238e-16
7.22396e-17
2.64903e-11
2.65715e-10
3.35983e-09
1.18976e-08
2.10337e-08
1.91263e-08
1.02436e-08
3.7313e-09
5.41673e-09
4.56386e-08
1.9938e-07
1.9863e-24
3.1902e-23
3.46875e-22
2.89167e-21
2.01357e-20
1.13062e-19
5.75487e-19
2.65735e-18
1.11286e-17
4.18603e-17
1.41727e-16
7.21061e-17
4.02482e-11
2.40694e-10
5.18497e-10
1.62017e-09
3.98725e-09
4.97801e-09
4.54243e-09
2.61832e-09
1.96966e-09
7.30599e-09
5.06231e-08
2.3328e-24
4.42822e-23
5.24813e-22
4.32771e-21
2.87835e-20
1.64132e-19
8.2477e-19
3.7339e-18
1.50204e-17
5.70985e-17
1.93223e-16
6.03754e-16
1.07997e-15
2.10044e-11
3.48505e-11
3.14168e-11
2.42788e-10
7.63442e-10
1.34861e-09
1.40506e-09
1.07887e-09
2.68011e-09
1.24754e-08
2.34963e-24
5.00117e-23
5.99703e-22
5.08158e-21
3.46942e-20
1.98141e-19
9.88328e-19
4.40542e-18
1.77181e-17
6.24601e-17
2.13478e-16
6.76436e-16
1.84682e-15
2.51592e-13
9.53991e-13
4.65284e-13
1.35079e-11
9.7583e-11
3.18972e-10
5.29687e-10
5.18415e-10
5.97084e-10
3.52245e-09
2.09455e-24
4.61937e-23
5.71493e-22
5.00221e-21
3.47156e-20
1.99048e-19
9.90444e-19
4.40594e-18
1.73137e-17
6.0402e-17
2.0677e-16
6.29231e-16
1.79135e-15
6.13423e-15
1.46003e-15
-1.2507e-13
3.69322e-13
9.66941e-12
5.81889e-11
1.49795e-10
2.15042e-10
3.07031e-10
1.14139e-09
1.63818e-24
3.67492e-23
4.64477e-22
4.14782e-21
2.90889e-20
1.67401e-19
8.26037e-19
3.72885e-18
1.44754e-17
5.06231e-17
1.67527e-16
5.10925e-16
1.44782e-15
3.27076e-15
-3.44546e-15
-4.23266e-14
-1.04005e-13
5.69297e-13
8.01149e-12
3.49285e-11
6.68082e-11
1.17271e-10
3.85234e-10
1.12691e-24
2.53896e-23
3.24495e-22
2.93041e-21
2.0617e-20
1.18788e-19
5.92894e-19
2.61784e-18
1.01172e-17
3.53276e-17
1.17243e-16
3.51975e-16
1.00513e-15
2.37268e-15
2.52205e-15
-3.322e-15
-1.86943e-14
8.24418e-15
8.6195e-13
6.45748e-12
1.74088e-11
2.94125e-11
1.18772e-10
6.95657e-25
1.52189e-23
1.95169e-22
1.75737e-21
1.23404e-20
7.11362e-20
3.56511e-19
1.53921e-18
6.0022e-18
2.13306e-17
6.81902e-17
2.09349e-16
5.91466e-16
1.45917e-15
3.04035e-15
7.52568e-15
1.74238e-14
4.61005e-14
1.89401e-13
1.17955e-12
3.82069e-12
7.84582e-12
3.32542e-11
3.73959e-25
7.96112e-24
1.00725e-22
8.95557e-22
6.26218e-21
3.63619e-20
1.80066e-19
7.78784e-19
3.03169e-18
1.06603e-17
3.42851e-17
1.07269e-16
3.13113e-16
8.51072e-16
2.49186e-15
7.26088e-15
2.01777e-14
5.35993e-14
1.45113e-13
4.37369e-13
1.2556e-12
2.63661e-12
1.0378e-11
1.81564e-25
3.67535e-24
4.51362e-23
3.9562e-22
2.73519e-21
1.59007e-20
7.76231e-20
3.36461e-19
1.30738e-18
4.67638e-18
1.57093e-17
5.20513e-17
1.70578e-16
5.52088e-16
1.8349e-15
5.83081e-15
1.74426e-14
4.80318e-14
1.32115e-13
3.30425e-13
7.47897e-13
1.6736e-12
4.49624e-12
7.98826e-26
1.60959e-24
1.84721e-23
1.56005e-22
1.04648e-21
5.9448e-21
2.91117e-20
1.29207e-19
5.20498e-19
2.01941e-18
7.61789e-18
2.94125e-17
1.12479e-16
4.21901e-16
1.52517e-15
5.06672e-15
1.56435e-14
4.38946e-14
1.18934e-13
2.84217e-13
6.22266e-13
1.24603e-12
2.84904e-12
2.83277e-26
5.79713e-25
6.86596e-24
5.84202e-23
3.92094e-22
2.21642e-21
1.12562e-20
5.37445e-20
2.45987e-19
1.10369e-18
5.01425e-18
2.27339e-17
9.67086e-17
3.89508e-16
1.44013e-15
4.8099e-15
1.46669e-14
3.97582e-14
1.03639e-13
2.38836e-13
4.99062e-13
1.05773e-12
1.98555e-12
6.88393e-27
1.50278e-25
1.90485e-24
1.75152e-23
1.2954e-22
8.56279e-22
5.15866e-21
3.00824e-20
1.65358e-19
8.7195e-19
4.43842e-18
2.10967e-17
9.07984e-17
3.61772e-16
1.29919e-15
4.21469e-15
1.24337e-14
3.2384e-14
8.13758e-14
1.84565e-13
3.85137e-13
7.58354e-13
1.49645e-12
1.24698e-27
3.09305e-26
4.60594e-25
5.12581e-24
4.74057e-23
3.84647e-22
2.90636e-21
1.96342e-20
1.21928e-19
6.9524e-19
3.62518e-18
1.71944e-17
7.29521e-17
2.81417e-16
9.88964e-16
3.13672e-15
8.97997e-15
2.31166e-14
5.6817e-14
1.30261e-13
2.6696e-13
5.87428e-13
1.12898e-12
2.12429e-28
6.87899e-27
1.28378e-25
1.78222e-24
2.07201e-23
1.97671e-22
1.64389e-21
1.20589e-20
7.8942e-20
4.6417e-19
2.4492e-18
1.15142e-17
4.82246e-17
1.82893e-16
6.31257e-16
1.97679e-15
5.63415e-15
1.42241e-14
3.5808e-14
8.38783e-14
1.85869e-13
4.22053e-13
9.82175e-13
4.53369e-29
1.82886e-27
4.18908e-26
6.7937e-25
8.63639e-24
9.02714e-23
8.03344e-22
6.19969e-21
4.19961e-20
2.51448e-19
1.33467e-18
6.28475e-18
2.63211e-17
9.96244e-17
3.42163e-16
1.08389e-15
3.10002e-15
7.86171e-15
2.02933e-14
5.18678e-14
1.26592e-13
3.38535e-13
8.98782e-13
8.97158e-30
4.60532e-28
1.18868e-26
2.13072e-25
2.93955e-24
3.30676e-23
3.11118e-22
2.51002e-21
1.75958e-20
1.08009e-19
5.81121e-19
2.81051e-18
1.19476e-17
4.57766e-17
1.59344e-16
5.07942e-16
1.478e-15
3.87732e-15
1.08825e-14
3.05681e-14
8.54051e-14
2.75638e-13
8.51365e-13
1.76266e-30
9.37315e-29
2.68003e-27
5.25371e-26
7.83236e-25
9.39812e-24
9.38715e-23
7.98959e-22
5.86508e-21
3.713e-20
2.10309e-19
1.03938e-18
4.56862e-18
1.79751e-17
6.41093e-17
2.0986e-16
6.33546e-16
1.77727e-15
5.25225e-15
1.76521e-14
5.63397e-14
2.05399e-13
7.38417e-13
2.49362e-31
1.45652e-29
4.52074e-28
9.57441e-27
1.53317e-25
1.97091e-24
2.11147e-23
1.91259e-22
1.47459e-21
1.0144e-20
5.99036e-20
3.0985e-19
1.45305e-18
6.00033e-18
2.23719e-17
7.59368e-17
2.41674e-16
7.26888e-16
2.24618e-15
8.79963e-15
3.2306e-14
1.42578e-13
5.31264e-13
2.77509e-32
1.69521e-30
5.71317e-29
1.324e-27
2.3246e-26
3.25982e-25
3.72281e-24
3.72346e-23
3.10892e-22
2.25142e-21
1.41813e-20
7.84337e-20
3.85545e-19
1.68018e-18
6.56801e-18
2.45579e-17
8.29904e-17
2.72466e-16
9.46683e-16
4.28191e-15
1.90019e-14
8.75767e-14
3.8919e-13
2.37635e-33
1.57601e-31
5.7563e-30
1.45352e-28
2.77765e-27
4.23365e-26
5.3144e-25
5.65423e-24
5.10926e-23
3.98863e-22
2.71192e-21
1.61499e-20
8.46153e-20
3.95041e-19
1.74836e-18
6.88563e-18
2.53249e-17
9.16127e-17
3.61316e-16
1.79071e-15
8.73188e-15
4.69161e-14
1.97842e-13
1.68257e-34
1.13348e-32
4.43844e-31
1.21798e-29
2.54428e-28
4.24397e-27
5.80718e-26
6.65423e-25
6.70638e-24
5.65559e-23
4.14962e-22
2.70426e-21
1.58802e-20
8.30139e-20
3.94116e-19
1.7071e-18
7.01187e-18
2.83601e-17
1.25311e-16
6.55779e-16
3.48512e-15
1.82561e-14
9.64007e-14
9.27532e-36
6.29669e-34
2.65784e-32
7.87099e-31
1.79695e-29
3.28122e-28
4.96243e-27
6.31258e-26
6.95979e-25
6.50686e-24
5.27701e-23
3.74339e-22
2.44253e-21
1.39294e-20
7.09547e-20
3.54418e-19
1.67043e-18
8.02716e-18
4.04394e-17
2.2233e-16
1.17304e-15
6.74671e-15
3.61321e-14
4.18094e-37
2.80732e-35
1.09536e-33
3.54256e-32
8.60337e-31
1.86445e-29
3.1535e-28
4.49534e-27
5.22895e-26
5.474e-25
4.84155e-24
4.20566e-23
3.01406e-22
1.92878e-21
1.15669e-20
6.31649e-20
3.47801e-19
1.86128e-18
1.01677e-17
6.37336e-17
3.81383e-16
2.24964e-15
1.32175e-14
1.59408e-38
1.0339e-36
4.21703e-35
1.45021e-33
4.08351e-32
8.93348e-31
1.67562e-29
2.72358e-28
3.7113e-27
4.38463e-26
4.59983e-25
4.23744e-24
3.37383e-23
2.38027e-22
1.5117e-21
9.38323e-21
5.77245e-20
3.6065e-19
2.38251e-18
1.59042e-17
9.82909e-17
6.91911e-16
4.32576e-15
5.18462e-40
3.19799e-38
1.33437e-36
4.75429e-35
1.41257e-33
3.18192e-32
6.9092e-31
1.24994e-29
1.86735e-28
2.54754e-27
3.08965e-26
3.24195e-25
2.97512e-24
2.42914e-23
1.83282e-22
1.28537e-21
8.8051e-21
6.17363e-20
4.51544e-19
3.38132e-18
2.61317e-17
1.94503e-16
1.344e-15
1.44578e-41
8.38368e-40
3.58103e-38
1.28798e-36
3.89873e-35
9.44914e-34
2.24013e-32
4.47431e-31
7.63217e-30
1.18745e-28
1.63691e-27
1.96553e-26
2.07687e-25
1.95655e-24
1.68755e-23
1.36356e-22
1.08418e-21
8.90451e-21
7.70008e-20
6.84619e-19
5.90996e-18
5.14866e-17
4.10893e-16
3.49121e-43
1.8807e-41
8.02426e-40
2.85523e-38
8.74072e-37
2.28721e-35
5.71311e-34
1.25342e-32
2.44066e-31
4.31949e-30
6.83561e-29
9.57354e-28
1.19083e-26
1.32634e-25
1.34639e-24
1.28516e-23
1.21004e-22
1.17861e-21
1.19998e-20
1.22868e-19
1.28577e-18
1.22587e-17
1.06836e-16
7.4453e-45
3.65339e-43
1.49993e-41
5.19018e-40
1.5961e-38
4.42455e-37
1.1605e-35
2.78519e-34
6.12289e-33
1.23707e-31
2.27411e-30
3.76917e-29
5.61325e-28
7.52443e-27
9.19544e-26
1.05812e-24
1.20714e-23
1.43519e-22
1.78712e-21
2.21902e-20
2.63386e-19
2.88063e-18
2.74116e-17
1.43353e-46
6.18221e-45
2.35525e-43
7.78769e-42
2.38645e-40
6.88462e-39
1.90403e-37
4.98325e-36
1.22804e-34
2.83973e-33
6.10412e-32
1.20678e-30
2.1766e-29
3.57537e-28
5.42147e-27
7.86977e-26
1.1534e-24
1.74003e-23
2.49379e-22
3.20715e-21
6.10741e-20
7.20344e-19
7.61266e-18
2.53813e-48
9.07936e-47
3.10741e-45
9.66934e-44
2.93664e-42
8.73471e-41
2.55486e-39
7.28307e-38
2.00842e-36
5.33134e-35
1.34776e-33
3.20559e-32
7.11046e-31
1.47427e-29
2.92274e-28
5.7567e-27
1.15587e-25
2.30535e-24
4.26948e-23
7.07727e-22
1.09736e-20
1.38235e-19
1.79655e-18
4.17734e-50
1.14256e-48
3.43065e-47
9.94964e-46
2.99035e-44
9.14636e-43
2.83521e-41
8.81361e-40
2.72678e-38
8.33576e-37
2.41793e-35
7.05863e-34
2.01974e-32
5.534e-31
1.55615e-29
4.5638e-28
1.26761e-26
2.80593e-25
7.68311e-24
1.33795e-22
1.8597e-21
2.96927e-20
3.96735e-19
4.72251e-05
4.90706e-05
4.96463e-05
2.15197e-05
2.45016e-06
9.28345e-06
1.6374e-05
1.78859e-05
1.99008e-05
3.64684e-05
7.525e-05
6.46697e-05
0.000114291
0.000114498
0.000114291
9.06869e-05
0.000114236
0.000114355
0.000112269
0.000186133
8.29689e-05
1.88944e-05
2.86306e-05
0.000683332
3.92867e-06
3.54707e-06
0.000126002
0.000534379
2.76973e-07
2.81846e-05
7.74402e-05
2.95732e-05
7.30249e-06
1.95118e-05
1.65226e-06
7.57209e-08
4.32519e-06
1.82139e-06
6.75267e-07
8.7043e-08
2.10545e-07
4.20773e-07
6.82201e-07
1.36725e-07
4.69324e-09
4.92164e-09
8.2917e-08
1.84534e-07
7.54397e-09
5.2988e-09
5.49232e-09
5.80403e-08
6.9533e-09
6.09461e-09
5.25126e-09
4.46009e-09
3.74486e-09
4.77515e-09
5.13489e-09
4.2282e-09
1.50955e-09
2.31999e-09
3.71214e-09
4.09822e-09
5.15535e-10
9.70899e-10
1.99575e-09
2.84388e-09
1.36858e-10
3.38775e-10
8.77991e-10
1.44397e-09
3.53895e-11
6.75578e-11
3.12858e-10
6.0097e-10
1.13557e-11
2.19237e-11
8.18505e-11
2.22392e-10
5.25112e-12
7.93246e-12
2.41878e-11
7.22291e-11
3.20564e-12
4.56818e-12
8.55384e-12
2.37144e-11
2.15586e-12
2.92787e-12
4.90748e-12
9.71576e-12
1.77921e-12
2.68142e-12
4.28079e-12
7.0267e-12
1.735e-12
2.61077e-12
5.0152e-12
8.53803e-12
1.85435e-12
3.43109e-12
6.98293e-12
1.18981e-11
2.03737e-12
3.84395e-12
8.64261e-12
1.59629e-11
1.99704e-12
4.12522e-12
9.82749e-12
1.80676e-11
1.64487e-12
4.02239e-12
8.9079e-12
1.80585e-11
1.30235e-12
3.09343e-12
7.64834e-12
1.49783e-11
8.40599e-13
2.14234e-12
4.85801e-12
1.07865e-11
4.28888e-13
9.83768e-13
3.00848e-12
6.356e-12
1.76241e-13
5.46669e-13
1.348e-12
3.62217e-12
7.68699e-14
2.14038e-13
6.98487e-13
1.62206e-12
2.79355e-14
8.8491e-14
2.43634e-13
7.5695e-13
9.2779e-15
3.09742e-14
1.02644e-13
2.67769e-13
2.83681e-15
1.10183e-14
3.58917e-14
1.16226e-13
8.71657e-16
3.41691e-15
1.25121e-14
3.69033e-14
2.55735e-16
1.03538e-15
3.84559e-15
1.41743e-14
7.03434e-17
3.05198e-16
1.19447e-15
4.34913e-15
1.73014e-17
8.27768e-17
3.42487e-16
1.35937e-15
4.26896e-18
1.95014e-17
8.70347e-17
3.31875e-16
3.37027e-06
2.32451e-12
0.000500239
0.00132742
0.0771865
0.234894
0.45127
0.62372
0.789117
0.842085
0.80055
0.679235
0.583296
0.532033
0.501824
0.537502
0.883385
0.94168
0.208437
5.30743e-06
4.15442e-22
-8.02287e-10
0.165245
0.679896
0.924427
0.985816
0.992983
0.998123
0.999637
0.999888
0.999906
0.999984
0.999999
0.999757
0.999424
0.999362
0.997422
0.365195
7.07328e-06
0.000228105
0.0110805
0.490605
0.87693
0.888187
0.943595
0.993254
0.999968
0.999999
0.999999
1
0.999999
0.999999
0.991699
0.980959
0.9993
0.995486
0.667151
0.000102627
0.0177729
0.183007
0.41094
0.416266
0.718162
1
0.999999
0.999999
0.999999
1
1
1
0.999999
0.959979
0.877475
0.697577
0.660353
0.581809
0.00157814
0.0207211
0.0255377
0.13632
0.800595
1
1
1
1
1
1
1
1
1
0.984154
0.917127
0.637451
0.416347
0.136705
0.00228683
0.0030511
0.0575921
0.771309
1
1
1
1
1
1
1
1
0.999998
0.999993
0.999991
0.996605
0.899412
0.415382
0.102426
0.000570198
2.99234e-07
0.0781255
0.829443
1
1
1
1
1
1
1
1
1
1
1
1
0.99998
0.754808
0.104281
7.64918e-07
3.01086e-07
0.033443
0.708623
1
1
1
1
1
1
1
0.999999
0.999999
1
1
1
0.999999
0.712008
0.0959644
1.17292e-07
1.75673e-07
0.00172962
0.508095
1
1
1
1
0.999997
0.999993
1
1
1
1
1
0.999999
0.999999
0.69124
0.0957741
7.72243e-08
3.21314e-07
2.41763e-07
0.289859
0.992639
1
1
0.999996
0.999909
0.999867
0.999958
1
1
1
1
0.999974
0.999999
0.937372
0.69457
7.97942e-08
9.1771e-08
4.55218e-07
0.0846824
0.751892
1
1
0.99999
0.99987
0.999857
0.999856
0.999993
1
1
1
0.999998
0.999994
1
1
1.3653e-07
7.33819e-08
9.6075e-08
1.58321e-09
0.275108
0.929753
1
1
0.999977
0.999887
0.999896
0.999996
1
1
1
1
1
1
1
9.00236e-08
7.04311e-08
4.71626e-09
1.30007e-08
3.64089e-09
0.349479
0.913168
1
1
1
1
1
1
1
0.999999
1
1
1
1
8.58442e-09
2.4011e-08
3.78146e-09
1.87929e-08
3.40489e-08
9.08658e-08
0.232422
0.775049
0.994403
1
1
1
1
0.999999
0.999999
1
1
1
1
3.98605e-09
3.77101e-09
3.68986e-09
1.62855e-08
3.60333e-08
8.26744e-08
2.82845e-07
0.0411654
0.456965
0.819362
0.971018
1
1
1
1
1
1
0.956236
0.802288
4.37244e-09
4.89631e-09
7.10425e-09
1.31764e-08
2.56674e-08
8.63749e-08
2.77338e-07
4.68363e-07
6.82431e-07
0.0546216
0.344528
0.597062
0.729504
0.77501
0.793309
0.764475
0.597806
0.401577
0.607424
3.79335e-09
5.78902e-09
1.06911e-08
1.56446e-08
1.95354e-08
7.22544e-08
5.61165e-07
1.49324e-06
4.434e-07
2.87862e-07
1.50083e-07
4.47712e-07
0.0198837
0.0464553
0.0546829
0.027919
2.50213e-06
0.0977826
0.847525
2.53581e-09
4.79822e-09
8.99699e-09
1.36234e-08
2.18467e-08
3.19083e-08
9.86419e-08
4.25785e-06
5.16597e-06
1.50175e-06
2.79307e-07
1.07554e-07
2.16348e-07
6.63197e-07
8.46582e-07
1.66625e-06
1.79026e-06
0.0850987
0.848154
1.49738e-09
3.38528e-09
6.4541e-09
1.21711e-08
1.8472e-08
2.27005e-08
2.29528e-08
1.64253e-06
6.93478e-06
6.86997e-06
1.15531e-06
2.34392e-07
4.10375e-07
2.12713e-06
1.25682e-05
1.4174e-05
2.28049e-06
0.0525507
0.488119
7.24995e-10
1.95084e-09
4.49356e-09
8.39036e-09
1.40572e-08
2.00012e-08
2.20133e-08
2.29523e-08
2.62845e-06
6.89389e-06
5.14925e-06
5.9686e-07
3.56477e-07
3.25279e-06
3.34609e-05
3.39903e-05
2.08433e-06
0.0947412
0.0120479
3.03584e-10
9.87454e-10
2.50384e-09
5.30443e-09
9.36674e-09
1.37814e-08
2.17242e-08
3.84458e-08
4.11177e-08
3.68189e-06
4.86214e-06
1.17176e-06
1.63285e-07
4.65531e-07
6.47173e-06
1.9656e-05
0.000320179
0.145645
0.0118426
1.11464e-10
4.34509e-10
1.2438e-09
3.01608e-09
5.77901e-09
8.7079e-09
1.44735e-08
1.80161e-08
4.37973e-08
2.92124e-07
6.74065e-07
5.2067e-07
1.09337e-07
2.71319e-08
1.04467e-08
1.05434e-08
0.00225986
0.142874
0.013538
4.00582e-11
1.71044e-10
5.5758e-10
1.50375e-09
3.14105e-09
4.82844e-09
7.90536e-09
1.01375e-08
2.54949e-08
1.00821e-07
1.59749e-07
1.41583e-07
9.38853e-08
2.35933e-08
1.26593e-08
1.04467e-08
0.00871961
0.0148202
0.00651787
1.97979e-11
6.8572e-11
2.28228e-10
6.66419e-10
1.53097e-09
2.49211e-09
3.95576e-09
5.01025e-09
1.13896e-08
2.91426e-08
5.14804e-08
4.57126e-08
3.84202e-08
2.87477e-08
1.70643e-08
1.27705e-08
0.00908095
8.5582e-06
5.62883e-06
1.91781e-11
4.23783e-11
1.0683e-10
2.93081e-10
6.73713e-10
1.1358e-09
2.05873e-09
3.45816e-09
6.9386e-09
1.0709e-08
1.41557e-08
1.61299e-08
1.71104e-08
2.12675e-08
1.76301e-08
1.22886e-08
0.00487915
0.000329992
5.55792e-06
2.62288e-11
4.88014e-11
8.94318e-11
1.7758e-10
3.47454e-10
6.15123e-10
1.20203e-09
2.36098e-09
4.92313e-09
7.78236e-09
1.05054e-08
1.28497e-08
1.57162e-08
1.84706e-08
1.66112e-08
1.25005e-08
1.0961e-08
7.56562e-05
5.8354e-06
3.52367e-11
6.71504e-11
1.1702e-10
1.94113e-10
3.10281e-10
4.90163e-10
8.45945e-10
1.55996e-09
3.10609e-09
4.89111e-09
6.8444e-09
9.02861e-09
1.2318e-08
1.57718e-08
1.5843e-08
1.30396e-08
1.04818e-08
6.83104e-09
2.16261e-06
4.11443e-11
8.52137e-11
1.5827e-10
2.64435e-10
4.04903e-10
5.86497e-10
8.43814e-10
1.28571e-09
2.18786e-09
3.36967e-09
4.84916e-09
6.93633e-09
1.00137e-08
1.34394e-08
1.45942e-08
1.31728e-08
1.37822e-08
6.19148e-09
8.2616e-09
4.07983e-11
9.41496e-11
1.91989e-10
3.45358e-10
5.54693e-10
8.11439e-10
1.09918e-09
1.48905e-09
2.13814e-09
3.04264e-09
4.23131e-09
6.01318e-09
8.72821e-09
1.1705e-08
1.32469e-08
1.26018e-08
1.76585e-08
3.74947e-08
7.68246e-09
3.43642e-11
8.77758e-11
2.01094e-10
3.99657e-10
6.97622e-10
1.07901e-09
1.53671e-09
2.05648e-09
2.71529e-09
3.51403e-09
4.55103e-09
6.10579e-09
8.44065e-09
1.09921e-08
1.22928e-08
1.09885e-08
1.5716e-08
2.77689e-07
6.39308e-07
2.40312e-11
6.93795e-11
1.79118e-10
3.96186e-10
7.65356e-10
1.28955e-09
2.00269e-09
2.80752e-09
3.69997e-09
4.62288e-09
5.70835e-09
7.16776e-09
9.11966e-09
1.10623e-08
1.18046e-08
1.09859e-08
1.71173e-08
2.11556e-06
2.44888e-06
1.52374e-11
4.7726e-11
1.35418e-10
3.29325e-10
7.22147e-10
1.34242e-09
2.31043e-09
3.50385e-09
4.85987e-09
6.19897e-09
7.71879e-09
9.33942e-09
1.07928e-08
1.18608e-08
1.10531e-08
1.09674e-08
1.27296e-07
2.4087e-06
2.46187e-06
8.07536e-12
2.80258e-11
8.65122e-11
2.35465e-10
5.63935e-10
1.17761e-09
2.26935e-09
3.89424e-09
5.86374e-09
8.05143e-09
1.05241e-08
1.24781e-08
1.35542e-08
1.38713e-08
1.14006e-08
1.09635e-08
6.48205e-07
2.41089e-06
1.72654e-06
4.01927e-12
1.48181e-11
4.92017e-11
1.45639e-10
3.81856e-10
8.95536e-10
1.91983e-09
3.60616e-09
6.04281e-09
9.72509e-09
1.46262e-08
1.87201e-08
2.22287e-08
3.30675e-08
2.96254e-08
1.25301e-08
6.692e-07
2.13345e-06
1.23464e-07
1.75347e-12
7.09471e-12
2.5288e-11
8.00996e-11
2.22454e-10
5.81767e-10
1.36536e-09
2.93909e-09
5.6253e-09
9.85121e-09
1.57055e-08
2.45643e-08
4.2189e-08
8.40576e-08
8.51223e-08
3.51436e-08
1.42796e-07
2.26281e-07
3.69599e-08
7.63909e-13
3.26681e-12
1.23825e-11
4.1725e-11
1.26011e-10
3.49523e-10
8.8441e-10
2.11055e-09
4.66712e-09
8.13919e-09
1.27086e-08
3.06935e-08
8.54459e-08
1.18838e-07
1.36818e-07
1.5655e-07
3.27902e-08
2.65294e-09
3.06304e-09
3.12132e-13
1.44541e-12
5.90023e-12
2.09798e-11
6.75511e-11
1.96229e-10
5.24735e-10
1.34442e-09
3.34629e-09
6.70916e-09
1.06001e-08
2.72129e-08
6.63898e-08
9.05758e-08
1.3182e-07
1.77114e-07
1.06413e-07
2.64396e-08
2.14793e-09
1.28979e-13
6.28001e-13
2.71483e-12
1.05878e-11
3.56542e-11
1.07353e-10
3.0754e-10
7.94129e-10
2.07081e-09
4.83298e-09
8.64083e-09
1.82503e-08
3.98114e-08
4.5716e-08
6.61821e-08
1.22364e-07
6.59783e-08
1.50073e-08
2.16957e-09
4.35296e-14
2.47241e-13
1.14265e-12
4.78245e-12
1.72147e-11
5.75016e-11
1.66903e-10
4.38164e-10
1.09085e-09
2.68222e-09
5.2891e-09
8.87254e-09
1.62403e-08
2.19862e-08
3.02959e-08
1.73929e-08
4.75849e-09
2.17272e-09
5.5236e-10
1.50305e-14
8.38216e-14
4.17241e-13
1.86901e-12
7.00646e-12
2.4651e-11
7.65113e-11
2.11946e-10
5.44206e-10
1.27964e-09
2.64705e-09
4.47096e-09
6.96071e-09
1.09675e-08
1.36318e-08
4.60131e-09
1.59856e-09
7.50174e-10
2.77548e-10
4.72033e-15
2.76706e-14
1.42488e-13
6.4825e-13
2.56982e-12
9.00502e-12
2.88587e-11
8.33888e-11
2.14528e-10
4.9059e-10
1.00851e-09
1.78444e-09
2.81221e-09
3.9435e-09
3.97778e-09
1.15385e-09
5.93447e-10
3.0891e-10
7.13475e-11
1.07253e-15
6.80557e-15
3.71247e-14
1.72442e-13
6.71509e-13
2.41276e-12
7.66119e-12
2.20707e-11
5.69197e-11
1.35039e-10
2.7969e-10
4.88833e-10
7.13627e-10
8.49271e-10
6.76199e-10
2.45311e-10
1.77582e-10
5.20668e-11
8.72983e-12
)
;

boundaryField
{
    leftWall
    {
        type            alphaContactAngle;
        contactAngleProperties 
        {
            mercury         
            {
                theta0          90;
            }
            air             
            {
                theta0          90;
            }
            water           
            {
                theta0          90;
            }
        }
        value           nonuniform List<scalar> 
50
(
4.32987e-39
1.44835e-40
1.20025e-35
7.07332e-33
1.19181e-31
3.72384e-31
1.12152e-30
3.20668e-30
2.43238e-29
5.13217e-28
1.84033e-24
7.14447e-26
2.17582e-26
1.09211e-25
1.16276e-25
1.90323e-25
4.19405e-25
8.53291e-25
1.43301e-24
1.9863e-24
2.3328e-24
2.34963e-24
2.09455e-24
1.63818e-24
1.12691e-24
6.95657e-25
3.73959e-25
1.81564e-25
7.98826e-26
2.83277e-26
6.88393e-27
1.24698e-27
2.12429e-28
4.53369e-29
8.97158e-30
1.76266e-30
2.49362e-31
2.77509e-32
2.37635e-33
1.68257e-34
9.27532e-36
4.18094e-37
1.59408e-38
5.18462e-40
1.44578e-41
3.49121e-43
7.4453e-45
1.43353e-46
2.53813e-48
4.17734e-50
)
;
    }
    rightWall
    {
        type            alphaContactAngle;
        contactAngleProperties 
        {
            mercury         
            {
                theta0          90;
            }
            air             
            {
                theta0          90;
            }
            water           
            {
                theta0          90;
            }
        }
        value           nonuniform List<scalar> 
50
(
0.0371833
0.0371457
0.0371477
0.0371457
0.0371788
0.0371457
0.0690621
0.161614
0.208437
0.365195
0.667151
0.581809
0.136705
0.102426
0.104281
0.0959644
0.0957741
0.69457
1
1
1
1
0.802288
0.607424
0.847525
0.848154
0.488119
0.0120479
0.0118426
0.013538
0.00651787
5.62883e-06
5.55792e-06
5.8354e-06
2.16261e-06
8.2616e-09
7.68246e-09
6.39308e-07
2.44888e-06
2.46187e-06
1.72654e-06
1.23464e-07
3.69599e-08
3.06304e-09
2.14793e-09
2.16957e-09
5.5236e-10
2.77548e-10
7.13475e-11
8.72983e-12
)
;
    }
    lowerWall
    {
        type            alphaContactAngle;
        contactAngleProperties 
        {
            mercury         
            {
                theta0          90;
            }
            air             
            {
                theta0          90;
            }
            water           
            {
                theta0          90;
            }
        }
        value           nonuniform List<scalar> 
62
(
4.32987e-39
9.52306e-38
3.80374e-37
6.99687e-37
1.48052e-36
4.34003e-36
8.66864e-36
2.54856e-32
8.34619e-27
1.64799e-21
3.49757e-18
1.14876e-16
2.53891e-15
4.08766e-14
4.89199e-13
4.36246e-12
2.82632e-11
1.23314e-10
2.88551e-10
1.804e-10
1.26975e-05
0.000413581
0.000569259
0.000569259
0.000569252
0.00016723
3.40524e-09
5.36332e-07
1.92989e-05
2.71114e-05
2.72501e-05
4.72251e-05
4.90706e-05
4.96463e-05
2.15197e-05
0.826617
0.826684
0.829313
0.961551
0.994614
0.394121
3.82557e-06
3.60076e-06
0.826617
0.84722
0.952785
0.925955
0.868405
0.683111
0.609383
0.635096
0.686596
0.705976
0.707025
0.701203
0.684098
0.411028
0.230144
0.230138
0.142448
0.0373329
0.0371833
)
;
    }
    atmosphere
    {
        type            inletOutlet;
        inletValue      uniform 0;
        value           nonuniform List<scalar> 
46
(
4.17734e-50
1.14256e-48
3.43065e-47
9.94963e-46
2.99035e-44
9.14636e-43
2.83521e-41
8.81361e-40
2.72678e-38
8.33576e-37
2.41793e-35
7.05863e-34
2.01974e-32
5.534e-31
1.55615e-29
4.56379e-28
1.26761e-26
2.80593e-25
7.68311e-24
1.33795e-22
1.8597e-21
2.96927e-20
3.96735e-19
4.26896e-18
1.95014e-17
8.70346e-17
3.31875e-16
1.07253e-15
6.80557e-15
3.71247e-14
0
0
0
0
0
0
0
0
0
0
0
0
0
0
0
0
)
;
    }
    defaultFaces
    {
        type            empty;
    }
}


// ************************************************************************* //
