/*--------------------------------*- C++ -*----------------------------------*\
  =========                 |
  \\      /  F ield         | OpenFOAM: The Open Source CFD Toolbox
   \\    /   O peration     | Website:  https://openfoam.org
    \\  /    A nd           | Version:  13
     \\/     M anipulation  |
\*---------------------------------------------------------------------------*/
FoamFile
{
    format      ascii;
    class       volScalarField;
    location    "0.7";
    object      alphas;
}
// * * * * * * * * * * * * * * * * * * * * * * * * * * * * * * * * * * * * * //

dimensions      [];

internalField   nonuniform List<scalar> 
2268
(
2
2
2
2
2
2
2
2
2
2
2
2
2
2
2
2
2
2
2
2
1.99999
1.99959
1.99943
2
2
2
2
2
2
2
2
2
2
2
2
2
2
2
2
2
2
2
2
2
1.99975
1.99943
2
2
2
2
2
2
2
2
2
2
2
2
2
2
2
2
2
2
2
2
2
1.99994
1.99983
1.54527
1.54401
1.61035
1.72987
1.85917
1.96999
2
2
2
2
2
2
2
2
2
2
2
2
2
2
2
2
2
0.045016
0.105373
0.169084
0.275256
0.455018
0.745688
1.19907
1.66252
1.96702
2
2
2
2
2
2
2
2
2
2
2
2
2
2
1.40875e-09
1.16794e-09
1.08705e-09
1.40718e-09
3.84338e-09
3.49508e-09
0.0339814
0.229714
0.742128
1.53394
1.96795
2
2
2
2
2
2
2
2
2
2
2
1.99998
1.67446e-09
1.4955e-09
1.44373e-09
1.45854e-09
1.47004e-09
1.95776e-09
7.91272e-09
9.57772e-10
7.32484e-10
0.125631
0.722104
1.59422
1.98547
2
2
2
2
2
2
2
2
2
1.99997
1.83528e-09
1.77087e-09
1.77543e-09
1.92422e-09
1.96119e-09
1.93458e-09
1.96308e-09
1.5224e-09
1.14087e-09
8.50272e-10
5.58584e-10
0.135801
0.715853
1.51806
1.91831
1.95626
1.92401
1.93717
1.94818
1.93314
1.8526
1.71784
1.53854
1.34325
1.29874
1.04904
1.0757
1.14554
1.34116
1.41513
1.38081
1.3138
1.29312
1.29903
1.39838
1.57335
2.16301
2.52647
2.52767
2.61541
2.72052
2.7208
1.34301
1.16537
1.05646
1.04923
1.46738
1.86749
1.8257
1.81713
1.82228
1.82729
1.83258
1.87612
2.16344
2.00484
2.16587
2.25161
2.50682
2.57811
2.72069
1.3406
1.04129
1.10607
1.3279
1.61481
1.44088
1.45787
1.44617
1.44409
1.46297
1.54213
1.63129
1.73363
1.77168
1.94108
1.94542
1.94027
2.44437
2.72039
1.0769
1.0761
1.41991
1.14399
0.700493
0.22021
0.0822559
0.0490312
0.0567114
0.0603385
0.10527
0.746357
1.31366
1.64205
1.66383
1.62028
1.70709
2.11597
2.52891
1.01077
1.2821
1.00393
0.823167
0.225237
0.000486415
0.000400492
0.000397994
0.00139865
0.0068577
0.00740036
0.0170335
0.282954
0.993177
1.49068
1.62846
1.57055
1.98134
2.46754
1.20465
0.875118
0.63519
0.0425787
0.000471752
0.000419225
0.000370205
0.00035394
0.000343547
0.000333523
0.000509986
0.00115079
0.00853845
0.114315
0.40109
0.592914
1.04463
1.50769
2.20192
0.912341
0.750465
0.0214561
0.000382752
0.00032862
0.000325959
0.00034868
0.000345635
0.000336184
0.000461025
0.000470506
0.000414569
0.000401882
0.000421913
0.00080334
0.00137337
0.150189
1.37836
2.08506
0.673963
0.00112971
0.000531422
0.000329335
0.000328085
0.000328148
0.00313603
0.0422027
0.142479
0.215728
0.180324
0.084777
0.000390868
0.00073523
0.00196124
0.00409659
0.16492
1.26601
1.95961
1.88287e-09
1.87165e-09
1.94301e-09
2.16414e-09
2.2668e-09
2.28854e-09
2.31914e-09
2.1321e-09
1.71087e-09
1.25925e-09
1.07201e-09
8.79756e-10
0.000565876
0.0477225
0.196121
0.429901
0.667255
0.801109
0.828883
0.787368
0.631729
0.475635
0.332759
1.84597e-09
1.8461e-09
1.85048e-09
1.93307e-09
2.1639e-09
2.54237e-09
3.16842e-09
3.58767e-09
3.59497e-09
3.31447e-09
2.20648e-09
1.70891e-09
6.68148e-09
4.65091e-09
7.28875e-10
9.25617e-10
1.94294e-09
4.55761e-09
2.76452e-08
2.54729e-06
8.09373e-07
6.99467e-07
1.03183e-06
1.84569e-09
1.84567e-09
1.84578e-09
1.84801e-09
1.85524e-09
1.87761e-09
2.05338e-09
2.9965e-09
6.62913e-09
1.06132e-08
8.86205e-09
4.72887e-09
2.17728e-09
1.95502e-09
3.83715e-09
5.84637e-09
9.5486e-09
1.20553e-08
2.89775e-08
8.89365e-08
5.32165e-08
6.38346e-08
5.62152e-06
0.0656207
0.14822
0.186653
0.153051
0.073227
1.82747e-09
1.88983e-09
1.88484e-09
2.1319e-09
2.34731e-09
2.03669e-09
2.17883e-09
2.12594e-08
2.4975e-08
2.61607e-08
2.33232e-08
2.06324e-08
1.49247e-08
2.74286e-08
0.00165587
0.055874
0.242084
0.643979
1.83244
2.07078
2.18635
2.17309
2.07259
1.88444
1.5492
1.13969
0.724768
0.421128
0.24655
0.164205
0.147462
0.161974
0.179995
0.244425
0.382771
0.606647
0.894849
1.33364
1.85526
2.38413
2.82572
3
3
3
3
3
3
2.99427
2.97043
2.94766
2.87583
2.70696
2.54917
2.45172
2.36421
2.33889
2.43518
2.60802
2.79976
2.96375
2.99998
2.99995
2.99993
2.99986
3
3
3
3
3
3
3
3
3
3
3
3
3
3
3
3
2.99999
3
2.99999
2.99998
3
3
3
3
3
3
3
3
3
3
3
3
3
3
3
3
3
3
3
3
3
3
3
3
3
3
3
3
3
3
3
3
3
3
3
3
3
3
3
3
3
3
3
3
3
3
3
3
3
3
3
3
3
3
3
3
3
3
3
3
3
3
3
3
3
3
3
3
3
3
3
3
3
3
3
3
3
3
3
3
3
3
3
3
3
3
3
3
3
3
3
3
3
3
3
3
3
3
3
3
3
3
3
3
3
3
3
3
3
3
3
3
3
3
3
3
3
3
3
3
3
3
3
3
3
3
3
3
3
3
3
3
3
3
3
3
3
3
3
3
3
3
3
3
3
3
3
3
3
3
3
3
3
3
3
3
3
3
3
3
3
3
3
3
3
3
3
3
3
3
3
3
3
3
3
3
3
3
3
3
3
3
3
3
3
3
3
3
3
3
3
3
3
3
3
3
3
3
3
3
3
3
3
3
3
3
3
3
3
3
3
3
3
3
3
3
3
3
3
3
3
3
3
3
3
3
3
3
3
3
3
3
3
3
3
3
3
3
3
3
3
3
3
3
3
3
3
3
3
3
3
3
3
3
3
3
3
3
3
3
3
3
3
3
3
3
3
3
3
3
3
3
3
3
3
3
3
3
3
3
3
3
3
3
3
3
3
3
3
3
3
3
3
3
3
3
3
3
3
3
3
3
3
3
3
3
3
3
3
3
3
3
3
3
3
3
3
3
3
3
3
3
3
3
3
3
3
3
3
3
3
3
3
3
3
3
3
3
3
3
3
3
3
3
3
3
3
3
3
3
3
3
3
3
3
3
3
3
3
3
3
3
3
3
3
3
3
3
3
3
3
3
3
3
3
3
3
3
3
3
3
3
3
3
3
3
3
3
3
3
3
3
3
3
3
3
3
3
3
3
3
3
3
3
3
3
3
3
3
3
3
3
3
3
3
3
3
3
3
3
3
3
3
3
3
3
3
3
3
3
3
3
3
3
3
3
3
3
3
3
3
3
3
3
3
3
3
3
3
3
3
3
3
3
3
3
3
3
3
3
3
3
3
3
3
3
3
3
3
3
3
3
3
3
3
3
3
3
3
3
3
3
3
3
3
3
3
3
3
3
3
3
3
3
3
3
3
3
3
3
3
3
3
3
3
3
3
3
3
3
3
3
3
3
3
3
3
3
3
3
3
3
3
3
3
3
3
3
3
3
3
3
3
3
3
3
3
3
3
3
3
3
3
3
3
3
3
3
3
3
3
3
3
3
3
3
3
3
3
3
3
3
3
3
3
3
3
3
3
3
3
3
3
3
3
3
3
3
3
3
3
3
3
3
3
3
3
3
3
3
3
3
3
3
3
3
3
3
3
3
3
3
3
3
3
3
3
3
3
3
3
3
3
3
3
3
3
3
3
3
3
3
3
3
3
3
3
3
3
3
3
3
3
3
3
3
3
3
3
3
3
3
3
3
3
3
3
3
3
3
3
3
3
3
3
3
3
3
3
3
3
3
3
3
3
3
3
3
3
3
3
3
3
3
3
3
3
3
3
3
3
3
3
3
3
3
3
3
3
3
3
3
3
3
3
3
3
3
3
3
3
3
3
3
3
3
3
3
3
3
3
3
3
3
3
3
3
3
3
3
3
3
3
3
3
3
3
3
3
3
3
3
3
3
3
3
3
3
3
3
3
3
3
3
3
3
3
3
3
3
3
3
3
3
3
3
3
3
3
3
3
3
3
3
3
3
3
3
3
3
3
3
3
3
3
3
3
3
3
3
3
3
3
3
3
3
3
3
3
3
3
3
3
3
3
3
3
3
3
3
3
3
3
3
3
3
3
3
0.546784
0.589456
0.909734
0.917067
2.47491e-06
0.000208429
0.00287234
0.00924195
1.99022e-05
0.00710681
0.0448361
0.152223
1.0572
1.40634
1.76815
2.21582
2.99977
2.99977
2.99978
2.99963
2.99983
2.99996
2.99994
2.99863
2.99999
2.99999
2.99975
2.99893
3
2.99994
2.99985
2.99994
2.99999
2.99996
2.99999
3
2.99999
2.99998
2.99998
2.99999
2.99999
2.99998
2.99998
2.99999
3
2.99999
2.99999
2.99998
3
3
2.99999
2.99999
3
3
3
3
3
3
3
3
3
3
3
3
3
3
3
3
3
3
3
3
3
3
3
3
3
3
3
3
3
3
3
3
3
3
3
3
3
3
3
3
3
3
3
3
3
3
3
3
3
3
3
3
3
3
3
3
3
3
3
3
3
3
3
3
3
3
3
3
3
3
3
3
3
3
3
3
3
3
3
3
3
3
3
3
3
3
3
3
3
3
3
3
3
3
3
3
3
3
3
3
3
3
3
3
3
3
3
3
3
3
3
3
3
3
3
3
0.120803
0.0017615
0.000621005
0.0013333
0.0851182
0.24724
0.469372
0.63581
0.794159
0.844603
0.802625
0.6799
0.583316
0.532109
0.502575
0.540345
0.883635
1.02734
1.89068
0.0103621
0.119626
0.515412
0.568497
0.927935
1.07421
1.02837
1.01403
1.00375
1.00073
1.00022
1.00019
1.00003
0.999999
0.999772
0.999529
0.99947
1.00258
1.639
0.683058
1.87681
2.47696
1.91555
1.24614
1.22363
1.11281
1.01349
1.00006
1
1
1
1
0.999999
1.01625
1.03594
0.999975
1.0045
1.33284
2.83446
2.95729
2.63373
2.17812
2.16747
1.56367
1
1
1
1
1
1
1
0.999999
1.07985
1.24408
1.60479
1.6696
1.47417
2.99684
2.95856
2.94892
2.72736
1.39881
1
1
1
1
1
1
1
1
1
1.03161
1.16524
1.72507
2.15783
2.36
2.99543
2.9939
2.88482
1.45738
1
1
1
1
1
1
1
1
1
1.00001
1.00002
1.00679
1.20116
2.16514
2.5487
2.99886
3
2.84375
1.34111
1
1
1
1
1
1
1
1
1
1
1
1
1.00002
1.49006
2.78379
3
3
2.93311
1.58275
1
1
1
1
1
1
1
1
1
1
1
1
1
1.5759
2.80689
3
3
2.99654
1.98381
1
1
1
1
1.00001
1.00001
1
1
1
1
1
1
1
1.6175
2.80815
2.99999
3
3
2.42028
1.01472
1
1
1.00001
1.00018
1.00027
1.00008
1
1
1
1
1.00005
1
1.12526
1.61086
2.99999
2.99999
3
2.83064
1.49622
1
1
1.00002
1.00026
1.00029
1.00029
1.00001
1
1
1
1
1.00001
1
1
2.99999
2.99999
3
3
2.44978
1.14049
1
1
1.00005
1.00023
1.00021
1.00001
1
1
1
1
1
1
1
2.99999
2.99999
3
3
3
2.30104
1.17366
1
1
1
1
1
1
1
1
1
1
1
1
2.99999
3
3
3
3
3
2.53516
1.4499
1.01119
1
1
1
1
1
1
1
1
1
1
3
3
3
3
3
3
3
2.91767
2.08607
1.36128
1.05796
1
1
1
1
1
1
1.08753
1.39542
3
3
3
3
3
3
3
3
3
2.89076
2.31094
1.80588
1.54099
1.44998
1.41338
1.47105
1.80439
2.19685
1.78515
3
3
3
3
3
3
3
3
3
3
3
3
2.96023
2.90709
2.89063
2.94416
2.99999
2.80443
1.30495
3
3
3
3
3
3
3
2.99999
2.99999
3
3
3
3
3
3
3
3
2.8298
1.30369
3
3
3
3
3
3
3
3
2.99999
2.99999
3
3
3
3
2.99997
2.99997
3
2.8949
2.02376
3
3
3
3
3
3
3
3
2.99999
2.99999
2.99999
3
3
2.99999
2.99993
2.99993
3
2.81052
2.9759
3
3
3
3
3
3
3
3
3
2.99999
2.99999
3
3
3
2.99999
2.99996
2.99936
2.70871
2.97631
3
3
3
3
3
3
3
3
3
3
3
3
3
3
3
3
2.99548
2.71425
2.97292
3
3
3
3
3
3
3
3
3
3
3
3
3
3
3
3
2.98256
2.97036
2.98696
3
3
3
3
3
3
3
3
3
3
3
3
3
3
3
3
2.98184
2.99998
2.99999
3
3
3
3
3
3
3
3
3
3
3
3
3
3
3
3
2.99024
2.99934
2.99999
3
3
3
3
3
3
3
3
3
3
3
3
3
3
3
3
3
2.99985
2.99999
3
3
3
3
3
3
3
3
3
3
3
3
3
3
3
3
3
3
3
3
3
3
3
3
3
3
3
3
3
3
3
3
3
3
3
3
3
3
3
3
3
3
3
3
3
3
3
3
3
3
3
3
3
3
3
3
3
3
3
3
3
3
3
3
3
3
3
3
3
3
3
3
3
3
3
3
3
3
3
3
3
3
3
3
3
3
3
3
3
3
3
3
3
3
3
3
3
3
3
3
3
3
3
3
3
3
3
3
3
3
3
3
3
3
3
3
3
3
3
3
3
3
3
3
3
3
3
3
3
3
3
3
3
3
3
3
3
3
3
3
3
3
3
3
3
3
3
3
3
3
3
3
3
3
3
3
3
3
3
3
3
3
3
3
3
3
3
3
3
3
3
3
3
3
3
3
3
3
3
3
3
3
3
3
3
3
3
3
3
3
3
3
3
3
3
3
3
3
3
3
3
3
3
3
3
3
3
3
3
3
3
3
3
3
3
3
3
3
3
3
3
3
3
3
3
3
3
3
3
3
3
3
3
3
3
3
3
3
3
3
3
3
3
3
3
3
3
3
3
3
3
3
3
3
3
3
3
3
3
3
3
3
3
3
3
3
3
3
3
3
3
3
3
3
3
3
3
3
3
3
3
3
3
3
3
3
3
3
3
3
3
3
3
3
3
3
3
3
3
3
3
3
3
3
)
;

boundaryField
{
    leftWall
    {
        type            calculated;
        value           nonuniform List<scalar> 
50
(
2
2
2
1.54527
0.045016
1.40875e-09
1.67446e-09
1.83528e-09
1.88287e-09
1.84597e-09
1.84569e-09
0.0656207
1.83244
3
3
3
3
3
3
3
3
3
3
3
3
3
3
3
3
3
3
3
3
3
3
3
3
3
3
3
3
3
3
3
3
3
3
3
3
3
)
;
    }
    rightWall
    {
        type            calculated;
        value           nonuniform List<scalar> 
50
(
2.7208
2.72069
2.72039
2.52891
2.46754
2.20192
2.08506
1.95961
1.89068
1.639
1.33284
1.47417
2.36
2.5487
2.78379
2.80689
2.80815
1.61086
1
1
1
1
1.39542
1.78515
1.30495
1.30369
2.02376
2.9759
2.97631
2.97292
2.98696
2.99999
2.99999
2.99999
3
3
3
3
3
3
3
3
3
3
3
3
3
3
3
3
)
;
    }
    lowerWall
    {
        type            calculated;
        value           nonuniform List<scalar> 
62
(
2
2
2
2
2
2
2
2
2
2
2
2
2
2
2
2
2
2
2
2
1.99999
1.99959
1.99943
1.99943
1.99943
1.99983
2
2
1.99998
1.99997
1.53854
0.546784
0.589456
0.909734
0.917067
1.34325
1.34301
1.3406
1.0769
1.01077
1.20465
0.912341
0.673963
1.34325
1.29874
1.04904
1.0757
1.14554
1.34116
1.41513
1.38081
1.3138
1.29312
1.29903
1.39838
1.57335
2.16301
2.52647
2.52767
2.61541
2.72052
2.7208
)
;
    }
    atmosphere
    {
        type            calculated;
        value           nonuniform List<scalar> 
46
(
3
3
3
3
3
3
3
3
3
3
3
3
3
3
3
3
3
3
3
3
3
3
3
3
3
3
3
3
3
3
3
3
3
3
3
3
3
3
3
3
3
3
3
3
3
3
)
;
    }
    defaultFaces
    {
        type            empty;
    }
}


// ************************************************************************* //
