/*--------------------------------*- C++ -*----------------------------------*\
  =========                 |
  \\      /  F ield         | OpenFOAM: The Open Source CFD Toolbox
   \\    /   O peration     | Website:  https://openfoam.org
    \\  /    A nd           | Version:  13
     \\/     M anipulation  |
\*---------------------------------------------------------------------------*/
FoamFile
{
    format      ascii;
    class       volScalarField;
    location    "0.7";
    object      alpha.water;
}
// * * * * * * * * * * * * * * * * * * * * * * * * * * * * * * * * * * * * * //

dimensions      [];

internalField   nonuniform List<scalar> 
2268
(
2.26804e-12
1.23725e-11
2.74754e-11
3.07739e-11
3.19702e-11
3.3673e-11
3.09432e-11
2.65029e-11
2.29399e-11
2.18276e-11
2.21797e-11
2.44908e-11
2.82652e-11
3.30594e-11
3.80631e-11
4.36374e-11
5.39969e-11
8.45558e-11
1.61665e-10
4.52206e-10
1.46958e-09
2.53291e-09
2.63505e-09
2.86566e-13
4.2272e-11
6.02943e-11
8.23936e-11
1.17717e-10
1.79236e-10
2.12774e-10
2.26522e-10
2.06627e-10
1.69228e-10
1.30858e-10
9.6283e-11
7.98907e-11
9.36948e-11
1.12993e-10
1.33713e-10
1.58965e-10
2.07732e-10
3.18285e-10
7.41143e-10
1.78569e-09
2.59728e-09
2.63015e-09
2.63397e-13
2.4164e-10
6.16936e-10
1.98662e-12
9.31101e-13
2.7925e-11
3.43504e-11
2.19353e-10
6.75694e-10
8.6861e-10
8.33138e-10
6.48355e-10
3.71145e-10
2.24677e-10
2.23868e-10
2.54319e-10
2.86995e-10
3.46969e-10
5.32059e-10
1.00394e-09
1.95158e-09
2.76812e-09
3.25993e-09
0.227363
0.227993
0.194826
0.135064
0.0704155
0.0150028
2.21958e-11
2.23581e-11
2.21952e-11
3.03611e-10
4.40391e-10
9.94824e-10
1.87355e-09
1.47817e-09
6.23932e-10
3.61788e-10
3.87678e-10
4.50869e-10
6.69232e-10
1.46621e-09
2.98608e-09
5.03001e-09
4.77377e-09
0.977492
0.947314
0.915458
0.862372
0.772491
0.627156
0.400464
0.168742
0.0164924
2.31665e-10
2.34772e-10
4.52584e-10
1.14994e-09
9.46835e-10
4.45267e-10
3.56459e-10
4.78667e-10
5.97052e-10
7.89534e-10
2.03273e-09
6.01062e-09
9.69313e-09
6.54013e-09
1
1
1
1
1
1
0.983009
0.885143
0.628936
0.233028
0.0160237
2.22994e-10
2.2719e-10
2.55388e-10
2.06799e-10
2.28902e-10
3.1315e-10
4.02925e-10
6.31031e-10
1.90945e-09
6.35768e-09
7.87961e-09
2.39452e-09
1
1
1
1
1
1
1
1
1
0.937184
0.638948
0.202891
0.00726609
1.6711e-10
1.66035e-10
1.66484e-10
1.64849e-10
1.66275e-10
1.64779e-10
1.66275e-10
1.64779e-10
1.66485e-10
1.65591e-10
1
1
1
1
1
1
1
1
1
1
1
0.932099
0.642073
0.240968
0.0408433
0.0218678
0.0379925
0.0314147
0.0259097
0.0334271
0.0736968
0.141082
0.230718
3.61328e-07
3.60939e-07
1.27073e-07
7.40785e-09
2.52464e-08
2.68875e-08
2.87039e-08
3.05595e-08
3.88766e-08
0.0004978
0.00101319
0.000302973
0.000149799
0.000150379
0.000130997
1.00859e-05
5.78633e-07
5.13762e-06
1.5443e-05
3.61146e-07
8.30293e-08
9.37653e-08
-1.17932e-12
-7.15601e-19
0.0110499
0.0536645
0.0615592
0.0570614
0.0514454
0.0399385
0.0293071
0.00789299
0.00036905
7.11298e-06
6.06638e-06
5.91704e-07
2.7043e-06
9.45737e-05
1.08969e-07
8.62874e-07
5.90633e-07
0.00876876
0.113685
0.275861
0.271132
0.276862
0.277919
0.268675
0.229449
0.184061
0.0395822
0.000751971
1.84316e-07
9.48677e-07
2.63506e-07
-1.26923e-08
0.000117429
1.27316e-10
1.61071e-05
0.0323883
0.320759
0.642901
0.89003
0.958945
0.975417
0.968443
0.966054
0.946257
0.627877
0.324668
0.025578
1.15131e-09
2.50678e-13
6.07741e-16
-2.02917e-08
0.000350404
1.24494e-10
0.0868657
0.449559
0.588367
0.88729
0.999666
0.999599
0.999602
0.998601
0.993142
0.9926
0.990539
0.865746
0.47951
0.159394
0.0816416
0.133659
0.0753252
0.0032793
0.20074
0.535206
0.682366
0.978634
0.999674
0.999674
0.999674
0.999673
0.999671
0.999671
0.99949
0.999009
0.99673
0.945009
0.800993
0.70366
0.477537
0.230429
0.0223372
0.543829
0.624765
0.989136
0.999673
0.999673
0.999674
0.999673
0.999672
0.999671
0.999632
0.999629
0.99963
0.999628
0.999617
0.999503
0.999318
0.924788
0.282213
0.0288044
0.663049
0.999451
0.999471
0.999671
0.999673
0.999673
0.997056
0.958297
0.858416
0.785569
0.820901
0.915884
0.999625
0.99949
0.998994
0.997968
0.83697
0.215288
0.00903477
1
1
1
1
1
1
1
1
1
1
1
1
0.999717
0.976139
0.901939
0.785049
0.666372
0.599446
0.585556
0.606312
0.684132
0.762182
0.833616
1
1
1
1
1
1
1
1
1
1
1
1
1
1
1
1
1
1
1
0.999997
0.999999
0.999999
0.999999
1
1
1
1
1
1
1
1
1
1
1
1
1
1
1
1
1
1
1
1
1
1
0.999994
0.978126
0.950593
0.937782
0.948983
0.975591
1
1
1
1
1
1
1
1
1
1
1
1
1
1
0.999448
0.981373
0.919278
0.785279
0.389187
0.309739
0.271218
0.275638
0.309136
0.371855
0.483599
0.620103
0.758411
0.859624
0.917817
0.945265
0.950846
0.946009
0.940002
0.918525
0.87241
0.797782
0.701715
0.555453
0.381566
0.205216
0.0580168
9.13938e-08
4.62648e-08
2.59571e-08
1.35499e-08
3.04486e-09
4.91946e-10
0.00190972
0.00985539
0.0174476
0.0413892
0.0976786
0.150278
0.182759
0.211931
0.220369
0.188272
0.130659
0.0667413
0.0120779
2.30933e-06
3.8909e-24
-2.43199e-10
-3.9843e-10
2.92613e-08
4.45436e-09
1.70476e-09
8.1785e-10
5.07312e-10
1.96796e-09
1.5408e-08
7.36628e-09
5.48832e-09
-1.75066e-14
1.08686e-15
9.78442e-15
4.09188e-14
8.75124e-14
-9.75963e-14
-1.39997e-13
-2.71293e-13
-3.80074e-13
-2.66549e-13
-3.97601e-13
-2.32266e-10
-9.06895e-10
-7.92221e-10
1.34031e-08
2.32293e-09
9.39633e-10
5.1774e-10
4.18444e-10
5.40585e-10
4.36956e-10
6.0142e-12
1.80166e-13
1.7426e-13
1.39589e-13
8.67243e-13
2.8681e-12
8.68186e-12
2.32678e-11
4.5615e-11
8.19011e-11
1.42211e-10
2.09844e-10
6.27386e-11
-5.91168e-10
-9.48248e-10
-5.30889e-10
4.16634e-09
9.39716e-10
4.84111e-10
2.26322e-10
1.35108e-10
8.79029e-11
5.08188e-11
5.37659e-12
4.12361e-13
-8.81224e-14
9.74937e-14
8.51507e-13
3.24439e-12
1.11095e-11
3.24e-11
7.07714e-11
1.25546e-10
2.25966e-10
3.70985e-10
4.6302e-10
4.51744e-10
7.10182e-11
7.96815e-13
7.0972e-10
2.08407e-10
1.12536e-10
4.92375e-11
2.35796e-11
9.97347e-12
3.26529e-12
2.87107e-13
-9.76048e-14
-7.15194e-14
1.49461e-13
8.05441e-13
3.01983e-12
1.06263e-11
2.93921e-11
6.15878e-11
1.0618e-10
1.61094e-10
2.7285e-10
5.33139e-10
1.16524e-09
1.88825e-09
1.94233e-11
5.33528e-11
2.511e-11
1.4434e-11
5.37943e-12
2.10285e-12
5.90259e-13
5.79988e-14
-6.26732e-14
-6.21036e-14
-1.45036e-15
2.12651e-13
8.57663e-13
2.90807e-12
9.50257e-12
2.47109e-11
4.92756e-11
7.7051e-11
1.13225e-10
1.45812e-10
3.25719e-10
1.48953e-09
6.13635e-09
-5.21218e-10
3.30985e-12
1.91742e-12
1.01526e-12
4.19646e-13
9.60282e-14
-6.28525e-15
-3.42092e-14
-3.19787e-14
-1.47618e-14
4.3263e-14
2.32526e-13
8.89338e-13
2.78503e-12
7.82534e-12
1.7523e-11
3.35297e-11
5.38944e-11
7.23191e-11
8.62523e-11
1.58462e-10
6.63602e-10
1.2696e-09
4.14171e-08
7.46999e-14
6.6972e-14
4.81173e-14
7.90711e-15
-1.00885e-14
-1.45015e-14
-1.27256e-14
-8.00935e-15
5.23911e-15
5.39511e-14
2.11653e-13
7.32936e-13
2.28017e-12
5.70334e-12
1.17534e-11
1.85775e-11
2.70033e-11
3.71744e-11
4.94887e-11
7.84377e-11
2.96344e-10
1.76392e-09
1.52543e-08
2.11862e-15
2.32702e-15
8.94634e-16
-3.38454e-15
-4.86147e-15
-4.17138e-15
-2.81893e-15
-1.94778e-16
9.10749e-15
4.19077e-14
1.5318e-13
5.08421e-13
1.47042e-12
3.20201e-12
6.11759e-12
9.27879e-12
1.22001e-11
1.63654e-11
2.38219e-11
3.5699e-11
8.89599e-11
3.14437e-10
4.286e-09
1.67925e-17
1.52259e-17
-2.05059e-16
-1.10476e-15
-1.1667e-15
-7.96409e-16
-3.01772e-16
1.04096e-15
6.30658e-15
2.43613e-14
8.75754e-14
2.66017e-13
7.10891e-13
1.49997e-12
2.52859e-12
3.7271e-12
4.96041e-12
6.6813e-12
9.95644e-12
1.48267e-11
2.99857e-11
1.10139e-10
9.46351e-10
-7.36213e-19
-9.4277e-18
-6.29905e-17
-2.36413e-16
-1.99081e-16
-9.74965e-17
6.00533e-17
6.61809e-16
3.08376e-15
1.14641e-14
3.78192e-14
1.08431e-13
2.64692e-13
5.19187e-13
8.37494e-13
1.19499e-12
1.6386e-12
2.3177e-12
3.56952e-12
5.69901e-12
9.73667e-12
3.08502e-11
2.08824e-10
-2.15739e-19
-2.14459e-18
-1.21816e-17
-3.63435e-17
-2.35614e-17
-3.82647e-18
4.14168e-17
2.4014e-16
1.04041e-15
3.72611e-15
1.21301e-14
3.22276e-14
7.26588e-14
1.29029e-13
2.00292e-13
2.90038e-13
4.22535e-13
6.42745e-13
1.05982e-12
1.8525e-12
3.28293e-12
6.62946e-12
4.44542e-11
-3.46183e-20
-3.05656e-19
-1.52719e-18
-3.73224e-18
-1.69898e-18
1.12001e-18
1.07617e-17
5.43073e-17
2.36716e-16
8.69813e-16
2.62162e-15
6.7589e-15
1.3976e-14
2.30953e-14
3.49621e-14
5.15712e-14
8.10033e-14
1.33008e-13
2.49257e-13
4.90432e-13
8.96096e-13
1.64003e-12
8.53763e-12
-2.95079e-21
-2.27729e-20
-1.00637e-19
-2.0813e-19
-5.10443e-20
2.04331e-19
1.34944e-18
6.35026e-18
3.01501e-17
1.03886e-16
3.26493e-16
8.38863e-16
1.65544e-15
2.7595e-15
4.28602e-15
6.76776e-15
1.16045e-14
2.07087e-14
4.36785e-14
1.03193e-13
2.24117e-13
3.41242e-13
1.58127e-12
-4.41387e-23
-2.66129e-22
-1.23954e-21
-2.84979e-21
-6.29899e-22
4.48024e-21
3.35516e-20
1.842e-19
1.06237e-18
4.30654e-18
1.65721e-17
5.10629e-17
1.14968e-16
2.17306e-16
3.68917e-16
6.52159e-16
1.27995e-15
2.61141e-15
5.91919e-15
1.7203e-14
3.89486e-14
6.17498e-14
2.91606e-13
-3.05764e-25
-1.31368e-24
-6.38729e-24
-1.69009e-23
-3.90952e-24
4.126e-23
3.72669e-22
2.51738e-21
1.82608e-20
9.26883e-20
4.58329e-19
1.80447e-18
5.03434e-18
1.15886e-17
2.26321e-17
4.61191e-17
1.06689e-16
2.5512e-16
6.48524e-16
2.26517e-15
5.31791e-15
7.75548e-15
5.06165e-14
-1.27293e-27
-3.56928e-27
-1.75774e-26
-5.36448e-26
-1.37926e-26
2.04367e-25
2.29317e-24
1.96356e-23
1.83737e-22
1.20569e-21
7.8602e-21
4.07701e-20
1.4697e-19
4.29651e-19
1.00229e-18
2.3991e-18
6.71012e-18
1.91827e-17
5.70396e-17
2.34643e-16
6.17699e-16
7.22207e-16
7.4482e-15
-3.58482e-30
-6.01881e-30
-2.89888e-29
-1.01275e-28
-2.96678e-29
6.07888e-28
8.62727e-27
9.55689e-26
1.17374e-24
1.01645e-23
8.89207e-23
6.19302e-22
2.9571e-21
1.12722e-20
3.22975e-20
9.19824e-20
3.16466e-19
1.09688e-18
3.8881e-18
1.90341e-17
5.6934e-17
5.20433e-17
8.55443e-16
-7.19518e-33
-6.59536e-33
-3.00673e-32
-1.19522e-31
-4.05196e-32
1.14108e-30
2.07916e-29
3.03691e-28
4.97294e-27
5.77256e-26
6.85008e-25
6.49513e-24
4.17818e-23
2.11466e-22
7.60134e-22
2.6001e-21
1.11138e-20
4.72352e-20
1.99382e-19
1.20079e-18
3.99343e-18
2.87641e-18
8.10898e-17
-1.03516e-35
-4.60775e-36
-1.93747e-35
-8.83012e-35
-3.53891e-35
1.37432e-33
3.26652e-32
6.41306e-31
1.42305e-29
2.25211e-28
3.66813e-27
4.76925e-26
4.18729e-25
2.85211e-24
1.3077e-23
5.41223e-23
2.88816e-22
1.51906e-21
7.56261e-21
5.83377e-20
2.10508e-19
1.42928e-19
6.99669e-18
-1.02522e-38
-1.83473e-39
-7.01729e-39
-3.83466e-38
-1.89299e-38
1.04739e-36
3.32555e-35
8.9992e-34
2.76136e-32
6.06967e-31
1.3762e-29
2.47712e-28
2.99032e-27
2.77179e-26
1.64298e-25
8.27794e-25
5.52446e-24
3.61808e-23
2.11067e-22
2.15749e-21
8.34828e-21
3.71167e-21
5.27569e-19
-6.25434e-42
-2.91832e-43
-9.33734e-43
-4.6129e-42
8.58685e-41
2.47751e-39
5.84834e-38
1.42755e-36
4.46192e-35
1.23529e-33
3.74005e-32
9.2637e-31
1.54036e-29
1.95201e-28
1.51346e-27
9.338e-27
7.77184e-26
6.35677e-25
4.37273e-24
6.00858e-23
2.56655e-22
2.02098e-22
1.89814e-20
-1.73584e-45
7.95254e-46
4.23361e-44
1.55929e-42
4.43605e-41
1.03115e-39
2.02727e-38
3.45313e-37
5.1859e-36
6.90393e-35
9.07556e-34
1.1612e-32
1.47827e-31
1.80018e-30
1.66508e-29
1.23468e-28
1.08076e-27
9.78622e-27
7.79375e-26
1.31e-24
6.57743e-24
2.72917e-24
8.42553e-22
1.73618e-48
1.96854e-46
1.14425e-44
4.59256e-43
1.41774e-41
3.56487e-40
7.54663e-39
1.36868e-37
2.13147e-36
3.12454e-35
3.93869e-34
4.43019e-33
4.67743e-32
4.26904e-31
3.44617e-30
2.45599e-29
1.65806e-28
1.06025e-27
6.97397e-27
6.32045e-26
2.93554e-25
1.34133e-24
1.05996e-23
2.84637e-49
3.43538e-47
2.20551e-45
9.74267e-44
3.2862e-42
8.91312e-41
1.99017e-39
4.1277e-38
7.19041e-37
1.11706e-35
1.53918e-34
1.87765e-33
2.02594e-32
1.91208e-31
1.61643e-30
1.29761e-29
8.82043e-29
5.69329e-28
3.81523e-27
2.82552e-26
1.67545e-25
9.01192e-25
4.65424e-24
3.10846e-50
4.25221e-48
2.97652e-46
1.43797e-44
5.31634e-43
1.59651e-41
4.03917e-40
8.88776e-39
1.70424e-37
2.87306e-36
4.24609e-35
5.48216e-34
6.22772e-33
6.41499e-32
6.15605e-31
4.98624e-30
3.61505e-29
2.50055e-28
1.78513e-27
1.33498e-26
8.32843e-26
5.12095e-25
2.32617e-24
2.67696e-51
3.71457e-49
2.81067e-47
1.4863e-45
6.04368e-44
1.98928e-42
5.46638e-41
1.30613e-39
2.8415e-38
5.29742e-37
8.83464e-36
1.31024e-34
1.71991e-33
2.00269e-32
2.00057e-31
1.73137e-30
1.34006e-29
9.68441e-29
7.08025e-28
5.23209e-27
3.46745e-26
2.04918e-25
1.16272e-24
1.65298e-52
2.29257e-50
1.88061e-48
1.06787e-46
4.72431e-45
1.70439e-43
5.21849e-42
1.38837e-40
3.28889e-39
6.76754e-38
1.24721e-36
2.07908e-35
3.14047e-34
4.09437e-33
4.62152e-32
4.76303e-31
4.29257e-30
3.5212e-29
2.65143e-28
1.89161e-27
1.17811e-26
7.50563e-26
4.32033e-25
7.95616e-54
1.08824e-51
8.46554e-50
5.3013e-48
2.54458e-46
1.09842e-44
3.84188e-43
1.16692e-41
3.00911e-40
7.11848e-39
1.48068e-37
2.97224e-36
4.87429e-35
6.99996e-34
8.99311e-33
9.97512e-32
1.0057e-30
8.81828e-30
6.88085e-29
5.54879e-28
3.84889e-27
2.4818e-26
1.55551e-25
3.12937e-55
4.16057e-53
3.39825e-51
2.27689e-49
1.23811e-47
5.45403e-46
2.10006e-44
7.13225e-43
2.12443e-41
5.69966e-40
1.36323e-38
2.89096e-37
5.30222e-36
8.60957e-35
1.22887e-33
1.57579e-32
1.80461e-31
1.84057e-30
1.69985e-29
1.40617e-28
9.82059e-28
7.54563e-27
4.99733e-26
1.02751e-56
1.31615e-54
1.09439e-52
7.56123e-51
4.31846e-49
1.99479e-47
8.8205e-46
3.34462e-44
1.112e-42
3.45345e-41
9.54392e-40
2.30988e-38
4.90716e-37
9.23915e-36
1.54623e-34
2.23303e-33
2.83175e-32
3.19658e-31
3.24857e-30
2.99017e-29
2.61071e-28
2.09355e-27
1.52353e-26
2.86099e-58
3.48055e-56
2.91588e-54
2.01484e-52
1.17375e-50
5.78313e-49
2.79087e-47
1.1771e-45
4.46021e-44
1.57604e-42
4.97727e-41
1.38551e-39
3.40462e-38
7.3944e-37
1.4208e-35
2.39043e-34
3.55705e-33
4.72963e-32
5.66395e-31
6.11241e-30
5.87698e-29
5.4669e-28
4.55918e-27
6.86665e-60
7.77514e-58
6.36753e-56
4.29481e-54
2.5174e-52
1.31416e-50
6.70547e-49
3.13029e-47
1.35532e-45
5.47969e-44
2.00781e-42
6.57173e-41
1.91275e-39
4.93276e-38
1.12486e-36
2.26249e-35
4.02445e-34
6.35207e-33
8.87436e-32
1.09196e-30
1.26795e-29
1.28157e-28
1.15672e-27
1.45799e-61
1.48855e-59
1.14499e-57
7.38711e-56
4.30289e-54
2.34562e-52
1.25993e-50
6.48568e-49
3.19343e-47
1.48707e-45
6.39175e-44
2.49557e-42
8.77483e-41
2.76151e-39
7.73747e-38
1.91909e-36
4.19367e-35
8.05358e-34
1.35437e-32
1.98263e-31
2.57015e-30
2.95421e-29
2.89038e-28
2.80134e-63
2.45832e-61
1.71108e-59
1.03776e-57
5.95028e-56
3.3474e-54
1.89954e-52
1.07462e-50
5.98847e-49
3.22748e-47
1.64819e-45
7.86563e-44
3.47522e-42
1.40498e-40
5.10877e-39
1.63781e-37
4.53327e-36
1.04796e-34
1.91133e-33
2.83288e-32
5.90762e-31
7.25826e-30
7.83099e-29
4.92454e-65
3.48437e-63
2.12891e-61
1.19948e-59
6.74645e-58
3.89668e-56
2.34439e-54
1.4549e-52
9.17091e-51
5.7799e-49
3.60739e-47
2.22336e-45
1.33528e-43
7.504e-42
3.7302e-40
1.56601e-38
5.40627e-37
1.51186e-35
3.3992e-34
6.3103e-33
1.04562e-31
1.36534e-30
1.80549e-29
7.91053e-67
4.1814e-65
2.2018e-63
1.14718e-61
6.34204e-60
3.76274e-58
2.40699e-56
1.6397e-54
1.17436e-52
8.8101e-51
6.38581e-49
5.83507e-47
5.6204e-45
4.58563e-43
3.13657e-41
1.68857e-39
6.83488e-38
1.88252e-36
6.11529e-35
1.16876e-33
1.7242e-32
2.86265e-31
3.8997e-30
0.726584
0.705248
0.545126
0.541586
0.999998
0.999924
0.999032
0.996907
0.99998
0.997607
0.985004
0.949216
0.647523
0.531144
0.410541
0.261333
6.82432e-13
-1.57965e-11
1.72328e-22
6.06095e-22
-3.81957e-10
2.04144e-25
5.34831e-08
3.40913e-07
-2.06485e-10
-1.37797e-25
1.57775e-08
1.55914e-07
-9.3546e-11
-1.60904e-11
1.41398e-16
1.13768e-09
6.79368e-10
4.15308e-07
2.1309e-06
1.29586e-06
6.55922e-07
3.89885e-06
4.90022e-06
4.89879e-06
2.02073e-06
4.90022e-06
4.8998e-06
4.90022e-06
4.25997e-07
4.47617e-06
4.90022e-06
4.8995e-06
9.10789e-08
4.78152e-07
3.40311e-06
4.90022e-06
2.22709e-08
7.43051e-09
1.77058e-07
1.37351e-06
6.38041e-09
1.03818e-08
7.36389e-09
6.30421e-09
1.57836e-09
2.41571e-09
6.6974e-09
7.27849e-09
3.43044e-10
7.5588e-10
3.13593e-09
5.25449e-09
5.83534e-11
1.68044e-10
8.66005e-10
1.8585e-09
8.18734e-12
1.62047e-11
1.7409e-10
4.4702e-10
1.16506e-12
1.55292e-12
2.30738e-11
7.87663e-11
1.75698e-13
2.15852e-13
2.39396e-12
1.09598e-11
2.62801e-14
2.69399e-14
2.22801e-13
1.25237e-12
2.75641e-15
2.90966e-15
1.64222e-14
1.25287e-13
2.19785e-16
1.61414e-16
1.24325e-15
1.10068e-14
2.12825e-17
1.30869e-17
3.31906e-17
5.35914e-16
2.44719e-19
3.20388e-20
3.84762e-20
4.63264e-19
1.94547e-21
2.63592e-22
1.06081e-22
1.68536e-22
1.75078e-22
5.26055e-23
1.02998e-22
1.95551e-22
2.25441e-23
4.60712e-23
1.03585e-22
2.12883e-22
1.55562e-23
3.80804e-23
9.58046e-23
1.88607e-22
1.05278e-23
2.76861e-23
6.42552e-23
1.43656e-22
5.48747e-24
1.29926e-23
4.06693e-23
8.74407e-23
2.22722e-24
7.1607e-24
1.81912e-23
5.007e-23
9.53062e-25
2.73721e-24
9.25496e-24
2.20397e-23
3.37875e-25
1.10216e-24
3.11355e-24
9.99311e-24
1.09141e-25
3.73523e-25
1.26921e-24
3.37511e-24
3.23895e-26
1.28376e-25
4.25525e-25
1.40358e-24
9.63856e-27
3.82745e-26
1.41583e-25
4.20573e-25
2.73707e-27
1.11595e-26
4.15699e-26
1.53367e-25
7.29724e-28
3.16833e-27
1.23475e-26
4.46363e-26
1.74809e-28
8.32513e-28
3.40612e-27
1.33545e-26
4.21587e-29
1.91587e-28
8.47386e-28
3.18381e-27
0.940504
0.999411
0.999448
0.99867
0.92017
0.76099
0.542696
0.37225
0.209203
0.157076
0.198758
0.320543
0.416697
0.467937
0.497844
0.461133
0.11651
0.0154893
0.000683231
0.996542
0.960125
0.828196
0.700337
0.237424
0.025644
1.78357e-21
1.27702e-21
1.75545e-25
-7.82414e-26
-9.4297e-26
9.68777e-26
1.75709e-13
7.3817e-07
0.000235404
0.000523332
0.000584033
2.18271e-06
1.82249e-06
0.772309
0.374244
0.166958
0.034414
3.43221e-20
2.24489e-20
4.60272e-08
2.16356e-08
1.10316e-07
1.37133e-07
1.08975e-07
1.07684e-07
3.28685e-08
7.01764e-07
8.63894e-05
0.000440079
0.000439165
4.88018e-06
2.19731e-06
0.0551121
0.00238791
8.49769e-05
2.76196e-08
2.73873e-07
3.57606e-07
1.21042e-07
5.3805e-08
1.82139e-07
1.82984e-07
4.27297e-08
1.15031e-09
1.02127e-07
7.90222e-07
4.77878e-06
1.01005e-05
4.6361e-06
2.64666e-06
2.4988e-06
-2.07894e-20
6.50411e-10
-5.36365e-15
4.66812e-07
5.18595e-07
3.01998e-07
4.88354e-10
9.5615e-09
1.77504e-08
1.14249e-08
1.15031e-09
1.15955e-09
2.0911e-09
1.67197e-08
1.1064e-10
8.91029e-11
5.39358e-09
1.52775e-06
1.84621e-06
3.8761e-07
3.19157e-08
7.43691e-08
5.00666e-11
2.35725e-10
2.18475e-10
4.89016e-10
4.86888e-10
4.83551e-10
5.28167e-10
1.77169e-09
2.00933e-09
1.17121e-09
5.00185e-10
1.47964e-10
9.07812e-11
9.75532e-10
3.41096e-08
6.41451e-08
1.91287e-07
3.31666e-08
8.87766e-08
6.3691e-11
5.76712e-10
6.72757e-10
7.65385e-10
1.06478e-09
1.57677e-09
1.93905e-09
2.11224e-09
1.97045e-09
1.00292e-09
3.80371e-10
1.87151e-10
1.45013e-10
1.51954e-10
1.49773e-10
1.33301e-10
1.89485e-09
8.68845e-09
1.89859e-11
3.5462e-10
7.03517e-10
6.71481e-10
5.73043e-10
1.02783e-09
1.58701e-09
1.81955e-09
1.83352e-09
1.49044e-09
7.52823e-10
3.32334e-10
1.8848e-10
1.49842e-10
1.7902e-10
1.1886e-09
3.64979e-09
1.40164e-08
1.94887e-11
3.2208e-11
3.47833e-10
5.89472e-10
3.38831e-10
1.68934e-10
3.58336e-10
5.9928e-10
8.14692e-10
9.89714e-10
1.03853e-09
7.28879e-10
4.0214e-10
2.13802e-10
1.46059e-10
1.83431e-10
1.68344e-09
4.67226e-09
3.47119e-06
2.07334e-07
4.37275e-10
1.72908e-10
4.22158e-10
2.13809e-10
6.39694e-11
1.41266e-10
2.36011e-10
3.75997e-10
5.20023e-10
5.98842e-10
6.13815e-10
4.59584e-10
2.63852e-10
1.50031e-10
1.29925e-10
6.2294e-10
2.56758e-09
4.89879e-06
3.25925e-06
-4.18289e-10
-3.33663e-28
2.09076e-10
1.46347e-10
3.05453e-11
6.32464e-11
9.77741e-11
1.56768e-10
2.37547e-10
3.17699e-10
3.63251e-10
3.73467e-10
2.94215e-10
1.71592e-10
1.0901e-10
8.94899e-11
1.994e-10
4.90022e-06
4.89502e-06
2.39076e-07
-1.74946e-17
1.82177e-10
1.06165e-10
1.51844e-11
2.90846e-11
4.18955e-11
6.1954e-11
9.49042e-11
1.40679e-10
1.88359e-10
1.88053e-10
1.82197e-10
1.57082e-10
1.05761e-10
7.67281e-11
6.73543e-11
4.89502e-06
4.58321e-06
1.59327e-07
2.67865e-10
1.10492e-09
1.21555e-10
1.00788e-11
1.4944e-11
2.15797e-11
3.01774e-11
4.24839e-11
5.70997e-11
6.9029e-11
7.285e-11
7.33862e-11
7.31231e-11
6.43315e-11
5.69296e-11
5.18864e-11
2.44375e-06
1.23177e-06
1.01579e-07
1.56343e-08
4.55058e-09
7.95624e-10
9.74769e-12
9.77651e-12
1.15391e-11
1.3486e-11
1.72402e-11
2.14322e-11
2.12503e-11
2.56329e-11
2.79153e-11
2.53539e-11
2.45985e-11
1.8328e-11
1.41187e-11
6.1527e-09
8.90562e-09
4.49717e-08
1.57834e-08
1.21394e-08
5.10443e-09
3.53602e-11
9.68287e-12
8.31908e-12
5.88058e-12
5.52591e-12
6.18187e-12
6.95631e-12
7.55047e-12
7.37409e-12
5.91022e-12
4.3142e-12
2.11471e-12
9.81558e-13
6.20363e-09
6.23422e-09
1.46147e-08
1.00666e-08
1.17549e-08
1.12094e-08
2.59825e-09
1.13841e-10
1.71881e-11
5.47731e-12
3.11982e-12
1.92642e-12
1.54224e-12
1.52977e-12
1.29122e-12
8.53131e-13
3.74386e-13
8.64382e-14
2.08828e-14
6.22054e-09
6.41976e-09
3.17303e-09
4.58412e-09
7.69243e-09
1.17757e-08
6.52909e-09
9.6876e-10
8.39515e-11
2.31638e-11
5.59042e-12
1.76504e-12
4.86924e-13
2.55916e-13
1.86223e-13
9.87915e-14
2.78846e-14
2.19083e-15
1.93492e-16
3.0931e-09
3.46904e-09
1.9409e-09
1.41846e-09
3.11066e-09
5.50552e-09
6.26481e-09
2.61774e-09
4.49453e-10
5.57542e-11
2.27428e-11
4.90478e-12
5.6792e-13
1.07615e-13
4.24986e-14
2.23942e-14
4.19584e-15
3.92114e-16
9.94869e-18
9.59533e-10
1.31806e-09
7.89571e-10
6.85801e-10
1.13569e-09
2.12381e-09
3.17724e-09
2.72505e-09
9.23464e-10
1.71101e-10
4.66491e-11
1.44833e-11
2.35878e-12
1.26897e-13
2.27086e-14
1.45672e-14
3.16106e-15
3.21805e-16
5.6964e-18
2.10772e-10
3.6383e-10
2.50552e-10
2.89844e-10
5.51983e-10
1.09893e-09
1.5405e-09
1.47373e-09
6.78713e-10
2.47174e-10
9.31922e-11
2.91656e-11
6.49968e-12
8.87817e-13
1.14927e-13
3.05767e-14
3.79079e-15
2.88067e-16
6.98711e-18
3.58485e-11
7.59598e-11
6.75889e-11
1.18532e-10
2.72814e-10
5.55823e-10
7.87695e-10
7.29657e-10
4.05441e-10
1.50154e-10
9.81096e-11
4.73625e-11
1.66165e-11
4.00078e-12
9.12728e-13
9.91197e-14
7.53461e-15
3.97462e-16
1.29374e-17
5.05286e-12
1.2714e-11
1.69141e-11
4.62649e-11
1.2932e-10
2.64936e-10
3.6882e-10
3.45578e-10
1.9552e-10
7.86279e-11
6.04599e-11
4.45132e-11
2.15111e-11
7.2638e-12
1.97914e-12
2.37131e-13
2.92309e-14
5.191e-16
1.28792e-17
6.08462e-13
1.82022e-12
4.13689e-12
1.63349e-11
5.42437e-11
1.13097e-10
1.54854e-10
1.42241e-10
7.64326e-11
3.69262e-11
3.46845e-11
3.01021e-11
1.91748e-11
7.92844e-12
3.1533e-12
3.33909e-13
5.35292e-14
1.5773e-15
1.3416e-17
6.38818e-14
2.40188e-13
9.53598e-13
4.96797e-12
1.96564e-11
4.20253e-11
5.433e-11
4.87956e-11
2.65119e-11
1.70626e-11
1.88872e-11
1.81637e-11
1.3638e-11
6.86908e-12
3.30107e-12
4.31748e-13
6.90282e-14
4.16783e-15
2.61506e-17
5.55638e-15
3.25485e-14
1.96432e-13
1.27618e-12
5.66736e-12
1.1976e-11
1.563e-11
1.37521e-11
8.09929e-12
7.61516e-12
9.40643e-12
1.0167e-11
8.93664e-12
4.99231e-12
2.71012e-12
5.59468e-13
8.70275e-14
3.29458e-15
6.09254e-17
2.24735e-17
9.22911e-16
3.07944e-14
2.75042e-13
1.32256e-12
3.18991e-12
4.25323e-12
3.84564e-12
3.23286e-12
4.10558e-12
5.47969e-12
6.20178e-12
5.95849e-12
3.88048e-12
2.2016e-12
7.81887e-13
1.36158e-13
1.09678e-14
1.56482e-16
1.81089e-21
7.09071e-19
3.94641e-16
1.90832e-14
2.57629e-13
8.37969e-13
1.12814e-12
1.14009e-12
1.35116e-12
2.12617e-12
3.1062e-12
3.69476e-12
3.71448e-12
2.89698e-12
1.70842e-12
8.00879e-13
1.6391e-13
1.82835e-14
6.25073e-16
4.59875e-22
1.05074e-21
1.87311e-19
5.24685e-17
5.42737e-15
4.26398e-14
2.10306e-13
3.31734e-13
5.76677e-13
1.1196e-12
1.7956e-12
2.25467e-12
2.36767e-12
2.10938e-12
1.27605e-12
5.8509e-13
1.81249e-13
2.24934e-14
9.63464e-16
4.82859e-22
1.12365e-21
2.42644e-21
1.40305e-20
5.07942e-18
2.30351e-16
4.28214e-15
3.07979e-14
2.3608e-13
6.57984e-13
1.17576e-12
1.47515e-12
1.54719e-12
1.44828e-12
1.03339e-12
4.23555e-13
1.36178e-13
2.23789e-14
3.11174e-16
4.31751e-22
1.09879e-21
2.53093e-21
5.26412e-21
1.01344e-20
8.00936e-20
5.40362e-18
8.44424e-16
5.41328e-14
2.34195e-13
5.04638e-13
8.03625e-13
9.69318e-13
9.56243e-13
7.47676e-13
3.32031e-13
1.02252e-13
1.06147e-14
1.12875e-16
3.20734e-22
9.19779e-22
2.35337e-21
5.21213e-21
1.03255e-20
1.8614e-20
3.29145e-20
3.84949e-18
6.34495e-15
3.86712e-14
1.15947e-13
2.91137e-13
4.86758e-13
5.65118e-13
4.60991e-13
2.35259e-13
6.42982e-14
6.91995e-15
1.26654e-16
2.1123e-22
6.63979e-22
1.87459e-21
4.53005e-21
9.88324e-21
1.87391e-20
3.36977e-20
5.78558e-20
2.18416e-16
1.63766e-15
1.04719e-14
7.67212e-14
1.89009e-13
2.41559e-13
2.24123e-13
1.01249e-13
3.19366e-14
1.82612e-15
1.15959e-16
1.1364e-22
4.01209e-22
1.24971e-21
3.40545e-21
8.12907e-21
1.70357e-20
3.28071e-20
5.72415e-20
1.10275e-18
9.15051e-18
2.52896e-16
1.00208e-14
4.00254e-14
7.14847e-14
5.97648e-14
2.57797e-14
6.42044e-15
7.56314e-16
8.97604e-18
5.59672e-23
2.12168e-22
7.21506e-22
2.17504e-21
5.76649e-21
1.36073e-20
2.87625e-20
5.37109e-20
9.19308e-20
1.46787e-19
1.19794e-18
4.40414e-16
6.0616e-15
9.82637e-15
7.67696e-15
3.34459e-15
7.69475e-16
4.36796e-17
4.54744e-18
2.36947e-23
9.909e-23
3.64957e-22
1.19373e-21
3.41702e-21
9.1137e-21
2.13983e-20
4.49852e-20
8.37301e-20
1.3939e-19
2.09619e-19
3.91863e-18
2.7204e-16
4.2119e-16
3.47995e-16
1.94225e-16
3.87387e-17
2.82411e-18
1.5064e-19
9.89846e-24
4.35814e-23
1.70474e-22
5.94881e-22
1.86651e-21
5.35567e-21
1.37792e-20
3.22701e-20
6.77759e-20
1.20026e-19
1.96309e-19
3.13693e-19
2.02275e-18
6.24333e-17
6.52031e-17
3.2391e-17
9.35733e-18
1.04615e-18
1.28452e-19
3.82886e-24
1.81142e-23
7.5842e-23
2.7749e-22
9.22759e-22
2.7706e-21
7.58352e-21
1.93601e-20
4.5697e-20
9.01718e-20
1.56819e-19
2.63047e-19
5.32263e-19
1.54569e-17
1.36865e-17
7.58763e-18
2.10165e-18
3.75511e-19
3.60279e-20
1.489e-24
7.32683e-24
3.20685e-23
1.26966e-22
4.36013e-22
1.33833e-21
3.88728e-21
1.0064e-20
2.53253e-20
5.60962e-20
1.03582e-19
1.82586e-19
3.18206e-19
3.58289e-18
3.03063e-18
9.39528e-19
1.73495e-19
4.38759e-20
1.593e-20
4.70581e-25
2.67559e-24
1.23467e-23
5.15823e-23
1.85345e-22
6.17967e-22
1.78721e-21
4.64555e-21
1.12952e-20
2.63945e-20
5.10651e-20
8.66887e-20
1.49193e-19
5.85359e-19
2.88574e-19
9.32719e-20
3.39195e-20
2.07878e-20
6.65758e-21
1.5314e-25
8.43022e-25
4.12995e-24
1.81634e-23
6.66993e-23
2.29038e-22
6.91721e-22
1.85902e-21
4.60266e-21
1.03385e-20
2.03056e-20
3.34217e-20
5.0337e-20
8.58454e-20
3.57914e-20
1.55508e-20
1.29303e-20
8.17498e-21
3.0698e-21
4.56142e-26
2.60987e-25
1.30624e-24
5.75422e-24
2.1977e-23
7.39022e-23
2.26219e-22
6.21667e-22
1.51585e-21
3.25776e-21
6.19797e-21
1.00172e-20
1.37347e-20
1.55053e-20
7.17276e-21
5.07568e-21
4.47267e-21
3.12879e-21
9.03688e-22
1.01098e-26
6.22553e-26
3.27239e-25
1.4575e-24
5.41044e-24
1.84115e-23
5.51714e-23
1.493e-22
3.59747e-22
7.87944e-22
1.48851e-21
2.31515e-21
2.89285e-21
2.79857e-21
1.66674e-21
1.47951e-21
1.25349e-21
6.02324e-22
1.20832e-22
)
;

boundaryField
{
    leftWall
    {
        type            alphaContactAngle;
        contactAngleProperties 
        {
            mercury         
            {
                theta0          90;
            }
            air             
            {
                theta0          90;
            }
            oil             
            {
                theta0          90;
            }
        }
        value           nonuniform List<scalar> 
50
(
2.26804e-12
2.86566e-13
2.63397e-13
0.227363
0.977492
1
1
1
1
1
1
0.978126
0.389187
9.13938e-08
2.92613e-08
1.34031e-08
4.16634e-09
7.0972e-10
5.33528e-11
3.30985e-12
7.46999e-14
2.11862e-15
1.67925e-17
-7.36213e-19
-2.15739e-19
-3.46183e-20
-2.95079e-21
-4.41387e-23
-3.05764e-25
-1.27293e-27
-3.58482e-30
-7.19518e-33
-1.03516e-35
-1.02522e-38
-6.25434e-42
-1.73584e-45
1.73618e-48
2.84637e-49
3.10846e-50
2.67696e-51
1.65298e-52
7.95616e-54
3.12937e-55
1.02751e-56
2.86099e-58
6.86665e-60
1.45799e-61
2.80134e-63
4.92454e-65
7.91053e-67
)
;
    }
    rightWall
    {
        type            alphaContactAngle;
        contactAngleProperties 
        {
            mercury         
            {
                theta0          90;
            }
            air             
            {
                theta0          90;
            }
            oil             
            {
                theta0          90;
            }
        }
        value           nonuniform List<scalar> 
50
(
1.5443e-05
9.45737e-05
0.000117429
0.000350404
0.0032793
0.0223372
0.0288044
0.00903477
0.000683231
1.82249e-06
2.19731e-06
2.4988e-06
1.84621e-06
6.41451e-08
1.33301e-10
3.64979e-09
4.67226e-09
2.56758e-09
1.994e-10
6.73543e-11
5.18864e-11
1.41187e-11
9.81558e-13
2.08828e-14
1.93492e-16
9.94869e-18
5.6964e-18
6.98711e-18
1.29374e-17
1.28792e-17
1.3416e-17
2.61506e-17
6.09254e-17
1.56482e-16
6.25073e-16
9.63464e-16
3.11174e-16
1.12875e-16
1.26654e-16
1.15959e-16
8.97604e-18
4.54744e-18
1.5064e-19
1.28452e-19
3.60279e-20
1.593e-20
6.65758e-21
3.0698e-21
9.03688e-22
1.20832e-22
)
;
    }
    lowerWall
    {
        type            alphaContactAngle;
        contactAngleProperties 
        {
            mercury         
            {
                theta0          90;
            }
            air             
            {
                theta0          90;
            }
            oil             
            {
                theta0          90;
            }
        }
        value           nonuniform List<scalar> 
62
(
2.26804e-12
1.23725e-11
2.74754e-11
3.07739e-11
3.19702e-11
3.3673e-11
3.09432e-11
2.65029e-11
2.29399e-11
2.18276e-11
2.21797e-11
2.44908e-11
2.82652e-11
3.30594e-11
3.80631e-11
4.36374e-11
5.39969e-11
8.45558e-11
1.61665e-10
4.52206e-10
1.46958e-09
2.53291e-09
2.63505e-09
2.63505e-09
2.63015e-09
3.25993e-09
4.77377e-09
6.54013e-09
2.39452e-09
1.65591e-10
0.230718
0.726584
0.705248
0.545126
0.541586
3.61328e-07
3.61146e-07
1.08969e-07
1.27316e-10
1.24494e-10
0.20074
0.543829
0.663049
3.61328e-07
3.60939e-07
1.27073e-07
7.40785e-09
2.52464e-08
2.68875e-08
2.87039e-08
3.05595e-08
3.88766e-08
0.0004978
0.00101319
0.000302973
0.000149799
0.000150379
0.000130997
1.00859e-05
5.78633e-07
5.13762e-06
1.5443e-05
)
;
    }
    atmosphere
    {
        type            inletOutlet;
        inletValue      uniform 0;
        value           nonuniform List<scalar> 
46
(
7.91053e-67
4.1814e-65
2.2018e-63
1.14718e-61
6.34204e-60
3.76274e-58
2.40699e-56
1.6397e-54
1.17436e-52
8.8101e-51
6.38581e-49
5.83507e-47
5.6204e-45
4.58563e-43
3.13657e-41
1.68857e-39
6.83488e-38
1.88252e-36
6.11529e-35
1.16876e-33
1.7242e-32
2.86265e-31
3.8997e-30
4.21587e-29
1.91587e-28
8.47386e-28
3.18381e-27
1.01098e-26
6.22553e-26
3.27239e-25
0
0
0
0
0
0
0
0
0
0
0
0
0
0
0
0
)
;
    }
    defaultFaces
    {
        type            empty;
    }
}

