/*--------------------------------*- C++ -*----------------------------------*\
  =========                 |
  \\      /  F ield         | OpenFOAM: The Open Source CFD Toolbox
   \\    /   O peration     | Website:  https://openfoam.org
    \\  /    A nd           | Version:  13
     \\/     M anipulation  |
\*---------------------------------------------------------------------------*/
FoamFile
{
    format      ascii;
    class       volScalarField;
    location    "0.7";
    object      alpha.air;
}
// * * * * * * * * * * * * * * * * * * * * * * * * * * * * * * * * * * * * * //

dimensions      [];

internalField   nonuniform List<scalar> 
2268
(
1.65905e-15
2.34967e-14
2.35818e-14
1.28687e-14
6.88456e-15
3.67707e-15
2.11366e-15
1.03088e-15
4.19371e-16
1.58567e-16
6.51957e-17
1.47057e-17
3.47118e-18
9.99107e-19
7.55102e-19
8.99265e-19
1.24249e-18
1.86413e-18
2.63434e-18
2.50011e-18
1.28931e-18
1.86647e-18
4.27705e-17
9.37728e-17
3.35426e-13
2.81668e-13
1.43511e-13
8.25401e-14
4.60709e-14
2.91709e-14
1.82582e-14
9.0945e-15
3.53977e-15
1.33012e-15
4.89117e-16
1.5566e-16
1.94688e-17
6.6692e-18
8.15509e-18
1.17609e-17
1.71044e-17
2.18354e-17
1.67891e-17
1.33088e-17
1.31713e-16
1.24311e-15
1.07096e-12
4.13563e-12
3.56194e-12
2.21655e-12
1.24851e-12
6.58898e-13
3.53701e-13
2.09843e-13
8.9915e-14
3.38258e-14
1.01081e-14
4.33651e-15
2.04948e-15
5.50877e-16
1.21671e-16
5.58598e-17
6.79959e-17
1.02652e-16
1.4289e-16
1.56204e-16
1.19543e-15
1.28895e-14
9.37108e-14
8.91819e-11
8.14849e-11
6.64626e-11
4.89179e-11
3.25025e-11
1.88803e-11
8.99246e-12
3.25356e-12
1.15857e-12
4.41181e-13
1.13796e-13
2.83003e-14
1.04619e-14
3.64102e-15
8.73365e-16
3.38561e-16
3.16016e-16
4.21763e-16
7.47616e-16
2.45567e-15
1.22977e-14
9.7312e-14
6.77929e-13
3.52344e-10
2.83377e-10
2.44313e-10
2.17091e-10
1.8339e-10
1.40659e-10
9.21053e-11
4.61282e-11
1.8073e-11
8.58962e-12
3.53787e-12
1.21714e-12
3.27399e-13
8.92581e-14
2.48248e-14
4.74078e-15
2.77931e-15
3.00314e-15
4.39092e-15
7.50949e-15
2.34666e-14
7.33891e-13
7.64921e-12
4.69584e-10
3.89315e-10
3.62351e-10
3.50291e-10
3.28752e-10
2.88993e-10
2.31761e-10
1.62675e-10
9.2488e-11
4.31156e-11
1.87009e-11
7.93278e-12
3.82193e-12
1.30056e-12
2.87394e-13
7.90525e-14
3.0987e-14
2.01034e-14
1.57686e-14
1.69495e-14
7.38367e-14
5.37389e-12
8.01214e-11
5.58154e-10
4.98499e-10
4.81243e-10
4.8611e-10
4.69214e-10
4.36288e-10
3.80844e-10
3.11904e-10
2.24335e-10
1.29224e-10
6.56573e-11
2.99418e-11
1.32971e-11
5.98667e-12
2.29696e-12
7.70408e-13
1.79689e-13
4.71336e-14
2.31809e-14
2.54121e-14
8.25232e-13
1.651e-11
2.4317e-10
6.1176e-10
5.9029e-10
5.91809e-10
6.41326e-10
6.51912e-10
6.08535e-10
5.56976e-10
4.62261e-10
3.60903e-10
2.65645e-10
1.68613e-10
8.97311e-11
4.30407e-11
1.98296e-11
8.31788e-12
2.90848e-12
1.7376e-14
2.97609e-15
1.73918e-14
5.79809e-12
5.43039e-11
9.91592e-11
4.36469e-10
0.169866
0.145963
0.00182636
0.00165763
0.0139456
0.0242682
0.0245099
0.0159093
0.000394085
9.28274e-05
0.00807772
0.100189
0.257751
0.574343
0.756877
0.75783
0.757859
0.757861
0.75801
0.169693
0.0808315
0.00840008
6.05874e-06
5.99828e-07
1.1777e-05
9.86193e-05
7.52077e-05
8.74235e-05
8.95198e-05
9.22165e-05
0.0408775
0.395956
0.488161
0.576932
0.619829
0.747377
0.757971
0.758024
0.169914
0.00808
0.000200757
0.000321213
0.000424707
0.000467551
0.000366046
7.84474e-05
0.000115448
0.000503284
0.00120773
0.00391946
0.0433493
0.294463
0.464558
0.466704
0.436046
0.635945
0.757776
0.0384485
0.00181324
0.000202715
0.000327368
0.000457839
0.000454434
0.000329004
5.00875e-05
3.33777e-06
8.08073e-10
0.00303484
0.00745817
0.0161142
0.0485586
0.148469
0.109552
0.0503412
0.211181
0.56676
0.00538561
0.000703307
0.000330424
8.21172e-05
2.52039e-09
1.31767e-10
1.58316e-19
-2.15987e-10
2.0002e-08
8.48972e-10
7.59702e-10
0.0037864
0.0150774
0.0158487
0.0165228
0.00554782
0.00258759
0.178803
0.511274
0.000254686
0.000122735
0.000101738
3.08369e-05
3.82854e-07
8.40123e-08
1.6502e-07
2.85711e-07
4.45411e-07
1.62267e-06
-1.01694e-08
7.99173e-05
0.00263432
0.00468503
0.00342576
0.000583941
8.39923e-05
0.0195216
0.283741
3.11164e-06
5.39581e-08
5.13017e-08
5.63701e-08
1.9166e-07
2.14089e-07
4.41264e-06
3.86091e-07
4.50841e-07
4.59515e-05
4.96333e-05
2.23497e-05
6.53177e-06
6.15414e-06
0.000159725
0.000359706
8.86626e-05
2.33688e-07
0.211732
6.55147e-05
4.96868e-05
3.94213e-07
2.27098e-07
6.18222e-07
3.69633e-07
9.58615e-05
0.000249801
0.000447572
0.000648534
0.000612681
0.000330354
7.96113e-06
6.48393e-05
0.000300427
0.000383912
0.000135763
2.68348e-09
0.139289
6.27623e-10
6.23882e-10
6.4767e-10
7.21376e-10
7.55534e-10
7.61942e-10
7.68763e-10
7.08357e-10
5.61169e-10
4.01408e-10
3.17135e-10
2.52644e-10
1.54422e-10
9.41275e-11
5.23544e-11
4.07651e-11
7.05097e-11
1.28945e-10
2.29898e-10
3.86784e-10
3.42401e-10
2.76992e-09
9.10461e-10
6.15325e-10
6.15365e-10
6.16828e-10
6.44356e-10
7.21297e-10
8.47455e-10
1.05613e-09
1.19582e-09
1.19785e-09
1.10169e-09
7.29502e-10
4.87572e-10
3.74766e-10
2.88638e-10
2.39422e-10
3.02063e-10
6.32601e-10
1.22135e-09
1.24594e-09
1.40317e-09
3.41271e-10
1.0716e-08
1.93896e-09
6.1523e-10
6.15225e-10
6.15259e-10
6.16004e-10
6.18412e-10
6.25869e-10
6.84458e-10
9.98828e-10
2.20968e-09
3.53745e-09
2.95377e-09
1.57045e-09
6.78172e-10
5.20057e-10
1.11693e-09
1.81436e-09
3.09743e-09
3.95032e-09
5.79852e-09
2.9574e-08
1.73108e-08
2.18605e-08
-1.95705e-11
0.0218736
0.0494067
0.0622176
0.051017
0.024409
6.09156e-10
6.2994e-10
6.28265e-10
7.10548e-10
7.81951e-10
6.76384e-10
7.13929e-10
7.02273e-09
8.24598e-09
8.71895e-09
7.75666e-09
6.87066e-09
4.15109e-09
8.84089e-09
0.000551956
0.0186237
0.0806808
0.214629
0.610813
0.690261
0.728782
0.724362
0.690864
0.628145
0.516401
0.379897
0.241589
0.140376
0.0821832
0.0547349
0.0491539
0.0539914
0.0599984
0.0814751
0.12759
0.202215
0.298282
0.444547
0.618414
0.794672
0.941869
1
1
1
1
1
1
0.99809
0.990145
0.982552
0.958611
0.902321
0.849722
0.817241
0.788069
0.779631
0.811728
0.86934
0.933251
0.987914
0.99999
0.999973
0.999965
0.999928
1
1
1
1
1
1
1
1
1
1
1
1
1
1
1
0.999999
0.999997
0.999998
0.999996
0.999991
1
1
0.999999
1
1
1
1
1
1
1
1
1
1
1
1
1
1
1
1
1
1
1
1
1
1
1
1
1
1
1
1
1
1
1
1
1
1
1
1
1
1
1
1
1
1
1
1
1
1
1
1
1
1
1
1
1
1
1
1
1
1
1
1
1
1
1
1
1
1
1
1
0.999999
1
1
1
1
1
1
1
1
1
1
1
1
1
1
1
1
1
1
1
1
1
1
1
1
1
1
1
1
1
1
1
1
1
1
1
1
1
1
1
1
1
1
1
1
1
1
1
1
1
1
1
1
1
1
1
1
1
1
1
1
1
1
1
1
1
1
1
1
1
1
1
1
1
1
1
1
1
1
1
1
1
1
1
1
1
1
1
1
1
1
1
1
1
1
1
1
1
1
1
1
1
1
1
1
1
1
1
1
1
1
1
1
1
1
1
1
1
1
1
1
1
1
1
1
1
1
1
1
1
1
1
1
1
1
1
1
1
1
1
1
1
1
1
1
1
1
1
1
1
1
1
1
1
1
1
1
1
1
1
1
1
1
1
1
1
1
1
1
1
1
1
1
1
1
1
1
1
1
1
1
1
1
1
1
1
1
1
1
1
1
1
1
1
1
1
1
1
1
1
1
1
1
1
1
1
1
1
1
1
1
1
1
1
1
1
1
1
1
1
1
1
1
1
1
1
1
1
1
1
1
1
1
1
1
1
1
1
1
1
1
1
1
1
1
1
1
1
1
1
1
1
1
1
1
1
1
1
1
1
1
1
1
1
1
1
1
1
1
1
1
1
1
1
1
1
1
1
1
1
1
1
1
1
1
1
1
1
1
1
1
1
1
1
1
1
1
1
1
1
1
1
1
1
1
1
1
1
1
1
1
1
1
1
1
1
1
1
1
1
1
1
1
1
1
1
1
1
1
1
1
1
1
1
1
1
1
1
1
1
1
1
1
1
1
1
1
1
1
1
1
1
1
1
1
1
1
1
1
1
1
1
1
1
1
1
1
1
1
1
1
1
1
1
1
1
1
1
1
1
1
1
1
1
1
1
1
1
1
1
1
1
1
1
1
1
1
1
1
1
1
1
1
1
1
1
1
1
1
1
1
1
1
1
1
1
1
1
1
1
1
1
1
1
1
1
1
1
1
1
1
1
1
1
1
1
1
1
1
1
1
1
1
1
1
1
1
1
1
1
1
1
1
1
1
1
1
1
1
1
1
1
1
1
1
1
1
1
1
1
1
1
1
1
1
1
1
1
1
1
1
1
1
1
1
1
1
1
1
1
1
1
1
1
1
1
1
1
1
1
1
1
1
1
1
1
1
1
1
1
1
1
1
1
1
1
1
1
1
1
1
1
1
1
1
1
1
1
1
1
1
1
1
1
1
1
1
1
1
1
1
1
1
1
1
1
1
1
1
1
1
1
1
1
1
1
1
1
1
1
1
1
1
1
1
1
1
1
1
1
1
1
1
1
1
1
1
1
1
1
1
1
1
1
1
1
1
1
1
1
1
1
1
1
1
1
1
1
1
1
1
1
1
1
1
1
1
1
1
1
1
1
1
1
1
1
1
1
1
1
1
1
1
1
1
1
1
1
1
1
1
1
1
1
1
1
1
1
1
1
1
1
1
1
1
1
1
1
1
1
1
1
1
1
1
1
1
1
1
1
1
1
1
1
1
1
1
1
1
1
1
1
1
1
1
1
1
1
1
1
1
1
1
1
1
1
1
1
1
1
1
1
1
1
1
1
1
1
1
1
1
1
1
1
1
1
1
1
1
1
1
1
1
1
1
1
1
1
1
1
1
1
1
1
1
1
1
1
1
1
1
1
1
1
1
1
1
8.8875e-10
4.94897e-07
3.61364e-05
0.000261426
8.2502e-09
6.63819e-05
0.000951989
0.00307469
-1.40388e-12
0.00235678
0.0149203
0.0507193
0.352362
0.468742
0.589345
0.738577
0.999886
0.999886
0.999888
0.999814
0.999917
0.999981
0.999971
0.999316
0.999996
0.999996
0.999874
0.999465
1
0.999972
0.999923
0.99997
0.999993
0.99998
0.999996
0.999999
0.999995
0.999994
0.999994
0.999995
0.999998
0.999995
0.999994
0.999995
1
0.999996
0.999995
0.999995
1
1
0.999997
0.999995
1
1
1
0.999999
1
1
1
1
1
1
1
1
1
1
1
1
1
1
1
1
1
1
1
1
1
1
1
1
1
1
1
1
1
1
1
1
1
1
1
1
1
1
1
1
1
1
1
1
1
1
1
1
1
1
1
1
1
1
1
1
1
1
1
1
1
1
1
1
1
1
1
1
1
1
1
1
1
1
1
1
1
1
1
1
1
1
1
1
1
1
1
1
1
1
1
1
1
1
1
1
1
1
1
1
1
1
1
1
1
1
1
1
1
1
1
1
0.00181429
0.000583208
1.6343e-05
2.55212e-07
0.0026439
0.00411516
0.00603401
0.00403013
0.00168085
0.00083908
0.00069135
0.000221622
6.64987e-06
1.67529e-05
8.58357e-05
0.000112187
3.91915e-05
2.30203e-07
0.100479
0.00345225
0.0398754
0.171804
0.134417
0.0826796
0.049929
0.0141838
0.00701716
0.00187641
0.000362311
0.000111332
9.38932e-05
1.59492e-05
2.55919e-10
3.05308e-10
6.59395e-10
9.93269e-09
9.51798e-06
0.0042003
0.227684
0.625528
0.821961
0.474981
0.12307
0.111813
0.0564047
0.00674545
3.08914e-05
3.55391e-15
2.28176e-15
2.87001e-15
7.20284e-07
2.10718e-09
0.0081177
0.0177796
0.000154066
2.88222e-20
6.11268e-12
0.944785
0.979839
0.816908
0.58906
0.583734
0.281837
3.45294e-10
3.20476e-10
3.49388e-10
3.72561e-09
9.61015e-09
1.75183e-08
1.69386e-08
2.16056e-10
0.0398391
0.121572
0.302374
0.329954
0.0559841
0.998422
0.979279
0.974462
0.863679
0.199405
9.42127e-10
9.06447e-10
4.38225e-09
1.3575e-08
1.96627e-08
2.41185e-08
1.77228e-08
3.39374e-08
4.72831e-08
0.0157686
0.0823718
0.362522
0.574179
0.496706
0.997713
0.996949
0.942408
0.228691
9.42127e-10
9.35051e-10
9.42127e-10
2.49943e-08
1.72165e-07
1.98518e-07
8.94867e-08
3.27239e-08
2.3489e-06
6.93126e-06
8.17749e-06
0.00339469
0.100567
0.580526
0.651124
0.99943
1
0.921874
0.170557
9.35052e-10
9.42127e-10
9.35052e-10
4.37091e-08
2.38194e-07
3.33001e-07
3.37438e-07
3.16689e-07
2.76145e-07
1.07083e-07
4.36426e-08
1.65777e-07
1.17786e-07
0.244871
0.888066
0.999999
1
0.966557
0.291377
1.55624e-09
1.82004e-09
2.05085e-08
2.89256e-08
3.16184e-08
3.33917e-08
3.32974e-07
5.21773e-07
5.31042e-07
3.57307e-07
2.33567e-09
4.02478e-09
4.55255e-07
0.287905
0.902854
1
1
0.99827
0.491905
3.42515e-09
1.83709e-09
1.17599e-08
3.07682e-07
3.49661e-06
7.37494e-06
5.736e-08
6.03324e-08
1.62562e-07
1.78956e-07
2.00842e-07
5.62428e-07
3.42476e-07
0.308736
0.903928
0.999996
0.999999
1
0.710141
0.00736094
3.42515e-09
6.84356e-09
4.01905e-06
9.13346e-05
0.000133135
4.20328e-05
3.94892e-08
3.12106e-08
3.46836e-08
5.2305e-08
2.58583e-05
1.34141e-06
0.0626279
0.30543
0.999995
0.999997
1
0.915318
0.248108
6.10267e-09
9.46142e-09
9.54829e-06
0.000130067
0.000143249
0.000143897
6.70345e-06
3.01457e-08
3.54442e-08
7.49812e-08
1.97692e-06
5.72644e-06
7.99129e-08
5.13057e-08
0.999995
0.999995
1
1
0.724892
0.0702474
1.83974e-08
2.84723e-08
2.32188e-05
0.000113489
0.000103778
3.5112e-06
4.4326e-08
6.34364e-08
7.90996e-08
5.87107e-08
8.26999e-08
3.19928e-07
3.39178e-08
0.999995
0.999995
1
1
1
0.650521
0.0868324
3.75591e-08
4.8505e-08
6.74951e-08
7.14774e-08
4.93607e-08
9.04818e-08
4.72153e-07
5.14446e-07
1.59696e-07
9.18283e-08
9.8571e-08
5.26346e-08
0.999998
0.999999
1
1
1
1
0.767578
0.224951
0.00559719
9.67405e-08
1.09999e-07
7.66031e-08
1.5454e-07
7.92576e-07
8.19487e-07
3.21932e-07
7.6915e-08
9.16594e-08
6.97572e-08
1
1
1
1
1
1
1
0.958835
0.543035
0.180638
0.0289816
1.05876e-07
8.4978e-08
9.27221e-08
8.76078e-08
1.0007e-07
1.02259e-07
0.0437639
0.197712
1
1
1
1
1
1
1
1
0.999999
0.945378
0.655472
0.402938
0.270496
0.22499
0.206691
0.235525
0.402194
0.598423
0.392576
1
1
1
1
1
1
0.999999
0.999999
1
1
1
1
0.980116
0.953545
0.945317
0.972081
0.999997
0.902217
0.152475
1
1
1
1
1
1
1
0.999996
0.999995
0.999998
1
1
1
0.999999
0.999999
0.999998
0.999998
0.914901
0.151846
1
1
1
1
1
1
1
0.999998
0.999993
0.999993
0.999999
1
1
0.999998
0.999987
0.999986
0.999998
0.947449
0.511881
1
1
1
1
1
1
1
1
0.999997
0.999993
0.999995
0.999999
1
0.999997
0.999967
0.999966
0.999998
0.905259
0.987952
1
1
1
1
1
1
1
1
1
0.999996
0.999995
0.999999
1
1
0.999994
0.99998
0.99968
0.854355
0.988157
1
1
1
1
1
1
1
1
1
1
0.999999
0.999999
1
1
1
1
0.99774
0.857126
0.986462
1
1
1
1
1
1
1
1
1
1
1
1
1
1
1
1
0.99128
0.98518
0.993482
1
1
1
1
1
1
1
1
1
1
1
1
1
1
1
1
0.990919
0.999991
0.999994
1
1
1
1
1
1
1
1
1
1
1
1
1
1
1
1
0.995121
0.99967
0.999994
1
1
1
1
1
1
1
1
1
1
1
1
1
1
1
1
1
0.999924
0.999994
1
1
1
1
1
1
1
1
1
1
1
1
1
1
1
1
1
1
0.999998
1
1
1
1
1
1
1
1
1
1
1
1
1
1
1
1
1
1
1
1
1
1
1
1
1
1
1
1
1
1
1
1
1
1
1
1
1
1
1
1
1
1
1
1
1
1
1
1
1
1
1
1
1
1
1
1
0.999999
1
1
1
1
1
1
1
1
1
1
1
1
1
1
1
1
1
0.999998
0.999998
1
1
1
1
1
1
1
1
1
1
1
1
1
1
1
1
1
0.999998
0.999998
1
1
1
1
1
1
1
1
1
1
1
1
1
1
1
1
0.999999
0.999998
0.999998
1
1
1
1
1
1
1
1
1
1
1
1
1
1
1
1
0.999999
0.999998
1
1
1
1
1
1
1
1
1
1
1
1
1
1
1
1
1
1
1
1
1
1
1
1
1
1
1
1
1
1
1
1
1
1
1
1
1
1
1
1
1
1
1
1
1
1
1
1
1
1
1
1
1
1
1
1
1
1
1
1
1
1
1
1
1
1
1
1
1
1
1
1
1
1
1
1
1
1
1
1
1
1
1
1
1
1
1
1
1
1
1
1
1
1
1
1
1
1
1
1
1
1
1
1
1
1
1
1
1
1
1
1
1
1
1
1
1
1
1
1
1
1
1
1
1
1
1
1
1
1
1
1
1
1
1
1
1
1
1
1
1
1
1
1
1
1
1
1
1
1
1
1
1
)
;

boundaryField
{
    leftWall
    {
        type            alphaContactAngle;
        contactAngleProperties 
        {
            mercury         
            {
                theta0          90;
            }
            water           
            {
                theta0          90;
            }
            oil             
            {
                theta0          90;
            }
        }
        value           nonuniform List<scalar> 
50
(
1.65905e-15
9.37728e-17
1.07096e-12
8.91819e-11
3.52344e-10
4.69584e-10
5.58154e-10
6.1176e-10
6.27623e-10
6.15325e-10
6.1523e-10
0.0218736
0.610813
1
1
1
1
1
1
1
1
1
1
1
1
1
1
1
1
1
1
1
1
1
1
1
1
1
1
1
1
1
1
1
1
1
1
1
1
1
)
;
    }
    rightWall
    {
        type            alphaContactAngle;
        contactAngleProperties 
        {
            mercury         
            {
                theta0          90;
            }
            water           
            {
                theta0          90;
            }
            oil             
            {
                theta0          90;
            }
        }
        value           nonuniform List<scalar> 
50
(
0.75801
0.758024
0.757776
0.56676
0.511274
0.283741
0.211732
0.139289
0.100479
0.0042003
6.11268e-12
0.0559841
0.496706
0.651124
0.888066
0.902854
0.903928
0.30543
5.13057e-08
3.39178e-08
5.26346e-08
6.97572e-08
0.197712
0.392576
0.152475
0.151846
0.511881
0.987952
0.988157
0.986462
0.993482
0.999994
0.999994
0.999994
0.999998
1
1
0.999999
0.999998
0.999998
0.999998
1
1
1
1
1
1
1
1
1
)
;
    }
    lowerWall
    {
        type            alphaContactAngle;
        contactAngleProperties 
        {
            mercury         
            {
                theta0          90;
            }
            water           
            {
                theta0          90;
            }
            oil             
            {
                theta0          90;
            }
        }
        value           nonuniform List<scalar> 
62
(
1.65905e-15
2.34967e-14
2.35818e-14
1.28687e-14
6.88456e-15
3.67707e-15
2.11366e-15
1.03088e-15
4.19371e-16
1.58567e-16
6.51957e-17
1.47057e-17
3.47118e-18
9.99107e-19
7.55102e-19
8.99265e-19
1.24249e-18
1.86413e-18
2.63434e-18
2.50011e-18
1.28931e-18
1.86647e-18
4.27705e-17
4.27705e-17
1.24311e-15
9.37108e-14
6.77929e-13
7.64921e-12
8.01214e-11
2.4317e-10
4.36469e-10
8.8875e-10
4.94897e-07
3.61364e-05
0.000261426
0.169866
0.169693
0.169914
0.0384485
0.00538561
0.000254686
3.11164e-06
6.55147e-05
0.169866
0.145963
0.00182636
0.00165763
0.0139456
0.0242682
0.0245099
0.0159093
0.000394085
9.28274e-05
0.00807772
0.100189
0.257751
0.574343
0.756877
0.75783
0.757859
0.757861
0.75801
)
;
    }
    atmosphere
    {
        type            inletOutlet;
        inletValue      uniform 1;
        value           nonuniform List<scalar> 
46
(
1
1
1
1
1
1
1
1
1
1
1
1
1
1
1
1
1
1
1
1
1
1
1
1
1
1
1
1
1
1
1
1
1
1
1
1
1
1
1
1
1
1
1
1
1
1
)
;
    }
    defaultFaces
    {
        type            empty;
    }
}


// ************************************************************************* //
