/*--------------------------------*- C++ -*----------------------------------*\
  =========                 |
  \\      /  F ield         | OpenFOAM: The Open Source CFD Toolbox
   \\    /   O peration     | Website:  https://openfoam.org
    \\  /    A nd           | Version:  13
     \\/     M anipulation  |
\*---------------------------------------------------------------------------*/
FoamFile
{
    format      ascii;
    class       volScalarField;
    location    "0.7";
    object      epsilon;
}
// * * * * * * * * * * * * * * * * * * * * * * * * * * * * * * * * * * * * * //

dimensions      [0 2 -3 0 0 0 0];

internalField   nonuniform List<scalar> 
2268
(
0.00844359
0.0301035
0.0541377
0.0754746
0.0953099
0.114121
0.131214
0.146259
0.159458
0.171603
0.183738
0.196433
0.209745
0.223149
0.236326
0.249364
0.262545
0.276283
0.280181
0.260215
0.20421
0.115714
0.0366367
0.00972852
0.0210672
0.0318731
0.042064
0.0518894
0.0615766
0.0709384
0.0797875
0.0879271
0.0952476
0.101796
0.107639
0.112759
0.11705
0.120415
0.122864
0.12461
0.126348
0.126179
0.120754
0.106881
0.0840744
0.0609793
0.0163092
0.0220575
0.0301414
0.038077
0.0457964
0.0533817
0.0608443
0.0681551
0.0751295
0.0814972
0.0870803
0.0918381
0.0958311
0.0991632
0.101996
0.104578
0.107341
0.110736
0.114273
0.116864
0.117403
0.115226
0.118432
0.0240466
0.0252419
0.0316736
0.0385204
0.0452429
0.0517879
0.0582422
0.0646573
0.0709181
0.0767537
0.0819218
0.0863751
0.0902659
0.0938348
0.0974126
0.101405
0.106358
0.11272
0.120707
0.130763
0.144352
0.164999
0.212366
0.0318067
0.0290803
0.0343484
0.0404708
0.0464816
0.0522849
0.0580083
0.0637161
0.0693388
0.0747158
0.0796734
0.0841717
0.0883962
0.0926704
0.0974306
0.103188
0.110544
0.120083
0.13264
0.150235
0.178138
0.230722
0.366305
0.0401269
0.0327441
0.0372393
0.0427858
0.0482044
0.0533993
0.0585752
0.063746
0.0688737
0.0739637
0.0788561
0.0836083
0.0884227
0.0936446
0.0997655
0.107375
0.117108
0.129746
0.146735
0.171726
0.21492
0.310974
0.626926
0.0500473
0.0361823
0.0399001
0.0449361
0.0498067
0.0543636
0.058906
0.0637121
0.0688611
0.0740889
0.0790665
0.084227
0.0897628
0.0960365
0.103563
0.112989
0.124983
0.140539
0.161722
0.19372
0.252018
0.40273
1.1249
0.0610028
0.0394332
0.0421607
0.0467103
0.0511387
0.0552508
0.0593402
0.0637917
0.0688665
0.0744545
0.0800577
0.0858469
0.0921569
0.0995122
0.108448
0.119628
0.133747
0.152063
0.177296
0.215912
0.287297
0.491629
2.30361
1.2381
2.37477
3.75786
4.11251
3.6274
3.21206
2.93252
2.7938
2.74221
2.72707
2.68495
2.47793
2.10232
1.64694
1.28401
1.3596
1.72979
1.49673
0.973996
0.824409
2.0823
2.66973
2.38832
1.61941
1.34539
1.23284
1.18893
1.17453
1.16937
1.15537
1.11137
1.07978
1.06286
1.12507
1.47463
2.32052
1.72218
0.95911
0.73259
1.57311
1.44292
1.32063
1.11991
1.01002
0.958501
0.938525
0.929771
0.921073
0.904823
0.877108
0.862608
0.868451
0.929918
1.07999
1.38027
1.33315
1.42408
0.651918
1.01958
1.03927
1.03154
0.97941
0.932289
0.907212
0.895188
0.883822
0.866845
0.84072
0.807662
0.786806
0.783919
0.810689
0.880231
1.02098
1.09065
1.71652
0.686255
1.0277
1.05774
1.03862
1.00329
0.96615
0.942546
0.924057
0.902238
0.87311
0.834761
0.791375
0.759914
0.747387
0.758812
0.808882
0.915305
1.03499
1.88297
1.7156
1.49702
1.28113
1.18239
1.119
1.06498
1.0243
0.986179
0.945544
0.900177
0.84914
0.796121
0.755253
0.735266
0.740599
0.793057
0.904698
1.04178
1.97695
3.96975
2.1344
1.58437
1.39937
1.29322
1.20967
1.14025
1.07311
1.00665
0.940215
0.873298
0.809391
0.760656
0.734675
0.736812
0.796453
0.931313
1.06268
2.00759
7.86095
2.65516
1.9063
1.66965
1.5195
1.39547
1.2851
1.17969
1.08131
0.98974
0.904069
0.827436
0.770045
0.737933
0.736804
0.797886
0.95754
1.08512
1.97143
0.0749516
0.0440939
0.0452569
0.0490354
0.0529234
0.0566648
0.0605137
0.0648071
0.0697976
0.0755874
0.0821169
0.0892915
0.0971645
0.106321
0.117456
0.131155
0.148209
0.170502
0.201855
0.250138
0.334556
0.515951
1.06182
0.092509
0.0495164
0.048742
0.0516402
0.0551226
0.0588711
0.0630905
0.0680405
0.0738826
0.0806507
0.0883077
0.0968697
0.106562
0.117893
0.131545
0.148233
0.169433
0.198221
0.2408
0.308588
0.424804
0.639145
1.06411
0.105715
0.0537502
0.0517528
0.0542027
0.0576464
0.061741
0.066671
0.0726724
0.0798618
0.088209
0.0976294
0.108078
0.119656
0.132748
0.147988
0.166587
0.191349
0.227549
0.285431
0.384851
0.564777
0.901788
1.53386
0.116855
0.0574821
0.0548407
0.057151
0.0607359
0.065275
0.0709664
0.0780389
0.0865596
0.0964968
0.107808
0.120366
0.13415
0.149198
0.16595
0.186798
0.216517
0.264641
0.350288
0.511562
0.824628
1.44182
2.63404
0.122832
0.060726
0.0584747
0.0608267
0.0644571
0.0692633
0.075526
0.0834104
0.092864
0.103939
0.116809
0.131303
0.147056
0.163826
0.183116
0.208775
0.248866
0.32037
0.459173
0.738347
1.30208
2.44719
4.73277
0.137661
0.0632878
0.0640975
0.0660409
0.0688706
0.0732384
0.0797137
0.0882094
0.0982993
0.109942
0.123845
0.140057
0.157608
0.176666
0.20012
0.234345
0.292582
0.404462
0.636322
1.12172
2.1014
4.08635
8.13724
0.109766
0.0611633
0.0631787
0.065307
0.0691024
0.0740863
0.0806726
0.0890147
0.0991782
0.111704
0.127684
0.146777
0.167143
0.189756
0.219699
0.267218
0.353066
0.526281
0.901945
1.68095
3.13615
5.58382
8.93213
0.0925313
0.0611449
0.0620824
0.0645617
0.0682258
0.0732024
0.0795102
0.0869606
0.0953876
0.105971
0.119981
0.137277
0.157915
0.184486
0.223727
0.288937
0.40822
0.647677
1.14272
2.06662
3.52203
5.36227
7.30669
0.0890019
0.0629007
0.0621598
0.06399
0.066991
0.0712302
0.0766742
0.0832756
0.0911308
0.100975
0.113739
0.129876
0.150463
0.179541
0.2257
0.305587
0.450148
0.717293
1.20883
2.04658
3.26495
4.69345
6.02521
0.0935472
0.0667578
0.0644128
0.0651098
0.0670948
0.0703065
0.0747292
0.0803595
0.0873385
0.0961647
0.107516
0.122199
0.142038
0.171821
0.220829
0.306897
0.460948
0.732275
1.19085
1.91045
2.89383
3.99535
4.95469
0.101442
0.0707291
0.0669119
0.0667157
0.0679647
0.0704167
0.0740545
0.0789188
0.0851771
0.09322
0.103642
0.117384
0.136576
0.166283
0.215718
0.302056
0.453212
0.709202
1.11894
1.72332
2.50926
3.36086
4.07877
0.109927
0.0735806
0.0684059
0.0676764
0.0686013
0.070697
0.07389
0.0782283
0.0838783
0.0911782
0.100704
0.113438
0.131542
0.159897
0.206966
0.287928
0.426757
0.655774
1.00985
1.51116
2.14016
2.80702
3.36464
0.117701
0.075243
0.0687886
0.0677048
0.0685409
0.0705547
0.0735709
0.0776007
0.0827819
0.0894062
0.0979996
0.109532
0.125995
0.151724
0.194105
0.266018
0.387297
0.583781
0.881299
1.29272
1.79841
2.32956
2.77823
0.124369
0.0760724
0.0684299
0.0670271
0.067828
0.0698613
0.0728389
0.0767097
0.0815625
0.0876328
0.0953762
0.105658
0.120214
0.142681
0.179301
0.240513
0.342302
0.505194
0.749158
1.08308
1.4907
1.9203
2.29233
0.12998
0.0764256
0.0677172
0.0659857
0.0667185
0.0687657
0.0717408
0.0755271
0.080157
0.0858035
0.0928385
0.101989
0.114692
0.133843
0.164561
0.215051
0.297892
0.429264
0.625094
0.892894
1.22116
1.57215
1.88718
0.134712
0.0765554
0.066922
0.0648576
0.0654726
0.0674877
0.0704423
0.074164
0.0786331
0.0839611
0.0904341
0.0986348
0.109706
0.12587
0.15118
0.191975
0.257942
0.361704
0.516149
0.728439
0.991884
1.28003
1.54958
0.138724
0.0766112
0.0661971
0.0638126
0.0642728
0.066208
0.0691063
0.0727544
0.0770898
0.0821708
0.088205
0.0956415
0.105364
0.119052
0.139749
0.17239
0.224265
0.305142
0.425481
0.592459
0.803545
1.03903
1.26649
0.142131
0.0766721
0.065611
0.0629324
0.0632193
0.0650392
0.0678469
0.0714013
0.0756086
0.0804844
0.0861703
0.0930014
0.101648
0.113373
0.130426
0.156516
0.19722
0.260071
0.353486
0.483831
0.65057
0.841216
1.0321
0.145018
0.076779
0.0651847
0.0622418
0.0623511
0.0640349
0.0667264
0.0701666
0.0742403
0.078931
0.0843279
0.0906743
0.098471
0.108661
0.122914
0.143991
0.176084
0.224912
0.297076
0.398071
0.528789
0.681793
0.840597
0.147527
0.0769688
0.0649186
0.0617352
0.0616703
0.0632087
0.0657679
0.0690776
0.0730082
0.0775204
0.0826635
0.0886089
0.0957254
0.104713
0.116808
0.134054
0.159571
0.197654
0.253398
0.331406
0.433374
0.555304
0.686213
0.150325
0.077372
0.0648135
0.0613921
0.0611591
0.0625506
0.0649695
0.0681377
0.0719161
0.0762493
0.081157
0.0867558
0.0933137
0.101346
0.111765
0.126079
0.146596
0.176523
0.219754
0.280053
0.359442
0.456148
0.563204
0.15274
0.0777559
0.0647949
0.0611764
0.06079
0.0620388
0.0643154
0.0673363
0.0709552
0.0751061
0.079787
0.0850732
0.0911561
0.0984123
0.107513
0.119566
0.136277
0.160033
0.193794
0.24059
0.302462
0.378997
0.466035
0.154591
0.0780509
0.0648051
0.0610408
0.0605289
0.0616488
0.0637862
0.0666555
0.0701089
0.0740744
0.0785328
0.0835278
0.0891931
0.0958013
0.103843
0.114132
0.127926
0.146999
0.173599
0.210141
0.258521
0.319098
0.389605
0.155886
0.0782446
0.0648215
0.0609578
0.0603455
0.0613504
0.063356
0.0660771
0.0693647
0.0731405
0.0773759
0.0820949
0.0873836
0.0934363
0.100609
0.109498
0.121029
0.136521
0.157682
0.186423
0.224427
0.272451
0.329461
0.156673
0.0783496
0.0648426
0.0609173
0.0602239
0.0611241
0.0630035
0.065579
0.068702
0.072291
0.0763078
0.0807576
0.0857006
0.091267
0.0977122
0.10547
0.11522
0.127943
0.144935
0.167704
0.197701
0.235852
0.281901
0.157025
0.0783952
0.0648821
0.0609235
0.0601612
0.0609621
0.0627173
0.0651478
0.0681067
0.0715108
0.0753152
0.079509
0.0841271
0.0892617
0.095087
0.101916
0.110244
0.1208
0.134563
0.152719
0.176493
0.206848
0.243998
0.157041
0.0784255
0.0649671
0.060993
0.060166
0.0608669
0.0624957
0.0647788
0.0675722
0.0707921
0.0743888
0.0783399
0.0826562
0.0874005
0.0926916
0.0987477
0.105928
0.114768
0.126006
0.140566
0.159467
0.183627
0.213525
0.156847
0.0784989
0.065137
0.0611537
0.0602578
0.0608513
0.0623461
0.0644757
0.0670997
0.0701343
0.0735264
0.0772448
0.0812833
0.0856726
0.0904983
0.0959057
0.102149
0.10962
0.118868
0.130607
0.145667
0.164879
0.188847
0.156595
0.0786892
0.0654436
0.0614444
0.0604658
0.0609372
0.0622849
0.0642507
0.0666979
0.0695438
0.0727323
0.0762255
0.0800041
0.0840754
0.0884886
0.0933474
0.0988226
0.105194
0.112867
0.122385
0.134409
0.149662
0.168775
0.156474
0.0790864
0.065951
0.0619144
0.0608288
0.0611552
0.0623366
0.0641235
0.0663834
0.0690342
0.0720176
0.0752901
0.0788224
0.0826044
0.0866556
0.0910423
0.0958826
0.101368
0.107792
0.11556
0.125189
0.137282
0.152438
0.15671
0.0797991
0.0667372
0.0626242
0.0613947
0.0615444
0.0625337
0.0641218
0.0661801
0.0686265
0.0714006
0.0744538
0.0777489
0.0812626
0.0849936
0.0889728
0.0932809
0.0980477
0.103478
0.10987
0.117618
0.127205
0.139163
0.157578
0.0809586
0.0678958
0.0636455
0.0622205
0.0621516
0.0629161
0.064281
0.0661198
0.0683497
0.0709073
0.0737396
0.0768023
0.0800621
0.083502
0.0871291
0.0909854
0.0951621
0.0997992
0.105108
0.111382
0.119
0.128405
0.159416
0.0827256
0.0695392
0.0650626
0.0633723
0.0630312
0.0635313
0.0646441
0.0662427
0.0682414
0.0705729
0.0731793
0.0760102
0.0790241
0.0821925
0.0855053
0.0889781
0.0926623
0.0966563
0.101109
0.106231
0.11231
0.119702
0.162668
0.0853035
0.0718041
0.066974
0.0649251
0.064245
0.0644341
0.0652625
0.0665981
0.0683493
0.0704427
0.072815
0.0754104
0.0781807
0.0810886
0.0841113
0.0872462
0.0905176
0.093984
0.0977477
0.101965
0.106844
0.112662
0.16793
0.088959
0.0748593
0.0694936
0.0669619
0.0658608
0.0656862
0.0661964
0.0672462
0.0687328
0.0705742
0.0727011
0.0750523
0.0775747
0.0802247
0.0829704
0.0857962
0.0887071
0.0917344
0.0949424
0.0984365
0.102371
0.10696
0.176074
0.0940628
0.0789183
0.07275
0.0695691
0.0679489
0.0673549
0.0675149
0.0682583
0.0694638
0.0710379
0.0729039
0.0749965
0.0772592
0.0796447
0.0821157
0.0846474
0.087231
0.0898779
0.0926248
0.0955398
0.0987295
0.102347
0.188498
0.101165
0.0842502
0.0768749
0.0728227
0.0705711
0.0695056
0.0692909
0.0697127
0.0706228
0.0719124
0.0734972
0.0753091
0.0772912
0.0793957
0.0815832
0.0838236
0.0860984
0.0884039
0.0907552
0.0931919
0.0957838
0.098637
0.207636
0.11112
0.0911683
0.0819604
0.0767485
0.0737516
0.0721788
0.0715809
0.0716762
0.07228
0.0732657
0.0745428
0.0760436
0.0777144
0.0795113
0.0813969
0.0833395
0.0853138
0.087304
0.0893075
0.0913405
0.0934432
0.0956858
0.238032
0.125243
0.0999365
0.0879483
0.0812378
0.0774098
0.075332
0.0743705
0.0741499
0.0744425
0.075105
0.0760447
0.0771989
0.0785228
0.0799815
0.0815439
0.0831796
0.0848589
0.0865555
0.0882511
0.0899415
0.091643
0.0933965
0.288172
0.145266
0.110488
0.0944391
0.0859172
0.0812501
0.078731
0.0774642
0.076961
0.0769524
0.0772839
0.0778672
0.0786514
0.079606
0.08071
0.081942
0.0832749
0.0846755
0.0861076
0.0875389
0.0889473
0.0903286
0.0917017
0.371756
0.172186
0.121851
0.100497
0.0900528
0.084662
0.0818277
0.0803499
0.0796273
0.07936
0.0793914
0.0796441
0.0800834
0.0806962
0.081477
0.0824147
0.0834857
0.0846535
0.0858737
0.0871014
0.0883007
0.089452
0.0905578
0.486674
0.200217
0.130885
0.104534
0.0926159
0.0867697
0.0837748
0.0821926
0.0813447
0.080916
0.0807527
0.0807879
0.0810002
0.0813892
0.0819605
0.0827104
0.0836179
0.0846442
0.0857398
0.0868526
0.0879379
0.0889671
0.0899328
4.51013
4.95843
6.0586
8.3386
1.72468
2.18615
2.70041
3.22611
2.35575
3.04817
3.8506
4.70466
4.19481
5.54268
7.14578
8.86451
7.74362
10.4394
13.9257
17.6544
12.5181
15.119
17.2324
18.1083
11.0838
12.0076
12.4957
12.6016
8.53741
9.02053
9.22267
9.2144
6.73726
6.98345
7.05823
7.02479
5.4045
5.54865
5.58576
5.56962
4.39711
4.50298
4.54042
4.55271
3.61358
3.70585
3.75224
3.78467
2.98739
3.0743
3.12808
3.17116
2.47664
2.56103
2.61994
2.66813
2.0537
2.1363
2.19878
2.25033
1.69988
1.77996
1.84428
1.89837
1.40201
1.47895
1.54365
1.59919
1.15303
1.22545
1.28879
1.34446
0.946981
1.01362
1.07392
1.12832
0.778424
0.838392
0.894347
0.946177
0.64206
0.694972
0.745712
0.793921
0.532724
0.57864
0.623755
0.667644
0.445528
0.484842
0.524306
0.56353
0.376062
0.409365
0.443428
0.47794
0.320545
0.34851
0.377586
0.407551
0.275894
0.29919
0.323765
0.349476
0.23971
0.258959
0.279522
0.30133
0.210196
0.22595
0.242971
0.261244
0.186033
0.198787
0.212702
0.227806
0.166253
0.176454
0.187675
0.199971
0.150114
0.158172
0.167092
0.176941
0.13701
0.143306
0.150299
0.158064
0.126422
0.131296
0.136715
0.142749
0.117888
0.121639
0.125801
0.130432
0.111018
0.113893
0.117069
0.120589
0.105488
0.107687
0.110097
0.112752
0.101059
0.102736
0.104557
0.106547
0.0975392
0.0988062
0.100167
0.101641
0.0948003
0.0957451
0.0967456
0.097816
0.0927596
0.0934582
0.0941849
0.0949494
0.0913742
0.0919011
0.0924377
0.0929923
0.0906254
0.0910665
0.0915104
0.091964
3.73072
2.75392
2.41629
2.16839
1.94004
1.7322
1.53962
1.36212
1.20699
1.07263
0.955835
0.858095
0.786195
0.744135
0.73704
0.793121
0.974926
1.09746
1.75928
3.70249
3.9968
3.78925
3.29777
2.78472
2.33462
1.94316
1.61816
1.36344
1.16438
1.00642
0.883182
0.79471
0.741688
0.727746
0.773559
0.92854
1.02527
1.56005
6.05892
6.95667
6.20134
4.8951
3.78149
2.92619
2.27241
1.79371
1.45045
1.20093
1.01591
0.879703
0.785336
0.730151
0.715893
0.75601
0.866675
0.943966
1.4336
11.5467
12.843
9.18931
6.39533
4.5375
3.26436
2.39929
1.83006
1.44633
1.17934
0.990345
0.857598
0.76988
0.721434
0.712389
0.754066
0.818101
0.892816
1.35977
20.7999
15.0484
10.3211
6.93391
4.53097
3.13456
2.2819
1.73233
1.36607
1.11651
0.944783
0.828292
0.754903
0.718667
0.718984
0.764802
0.796676
0.875471
1.34114
17.309
13.6365
9.98581
6.00773
3.93395
2.7559
2.03173
1.56128
1.24794
1.03633
0.893248
0.798967
0.742753
0.719792
0.729063
0.774711
0.80139
0.885936
1.35222
12.2163
10.8221
7.92135
4.97093
3.32683
2.37394
1.78078
1.39375
1.13595
0.962991
0.847849
0.774053
0.732275
0.71844
0.731321
0.77092
0.804865
0.879132
1.26925
9.00923
8.34496
6.32421
4.13793
2.86516
2.09456
1.60208
1.27626
1.05808
0.912229
0.816504
0.756604
0.723541
0.712326
0.720512
0.745121
0.770442
0.807815
1.04009
6.90698
6.58476
5.29256
3.6132
2.59901
1.94961
1.51792
1.22473
1.02506
0.890636
0.802729
0.748362
0.718304
0.706073
0.707043
0.715795
0.721033
0.723135
0.847303
5.53767
5.50462
4.71533
3.39097
2.52708
1.93864
1.52908
1.24097
1.03908
0.900099
0.807651
0.74961
0.71653
0.700852
0.696373
0.696804
0.691277
0.666371
0.692392
4.59426
4.86027
4.50556
3.4349
2.63276
2.05354
1.63167
1.32378
1.10084
0.942412
0.83329
0.761645
0.717822
0.693663
0.68205
0.675941
0.664966
0.628706
0.577489
3.8622
4.22675
4.47808
3.72286
2.90241
2.28776
1.82304
1.47311
1.21253
1.02156
0.884856
0.790079
0.726929
0.686722
0.661978
0.645538
0.627475
0.587037
0.497136
3.26129
3.61776
4.10154
4.06725
3.32891
2.63864
2.10273
1.69047
1.37766
1.14302
0.969903
0.84467
0.755706
0.693324
0.649786
0.61897
0.594463
0.560604
0.4817
2.75822
3.06088
3.57936
3.95895
3.78505
3.09942
2.47012
1.97827
1.60046
1.31189
1.09495
0.934494
0.817446
0.732937
0.673339
0.635849
0.625056
0.644767
0.642642
2.3381
2.57192
3.00861
3.5213
3.77395
3.55315
2.91701
2.33818
1.88635
1.53378
1.26476
1.06407
0.918352
0.816487
0.751914
0.727967
0.768037
0.905481
1.00458
1.98441
2.1612
2.48469
2.93504
3.36204
3.5173
3.30893
2.75521
2.23822
1.81438
1.48489
1.23725
1.0597
0.943827
0.885301
0.89687
1.0265
1.32362
1.4718
1.68435
1.82083
2.04832
2.38206
2.76286
3.07821
3.17452
2.99583
2.59211
2.14143
1.75645
1.45971
1.24124
1.10937
1.06137
1.1228
1.35569
1.71863
1.92466
1.42889
1.53988
1.69929
1.9306
2.21569
2.50271
2.7243
2.77686
2.63897
2.34873
1.99668
1.69256
1.44381
1.29141
1.24897
1.35885
1.64346
1.75323
2.28003
1.21132
1.30734
1.42348
1.58155
1.78152
2.0027
2.2159
2.36041
2.37179
2.25546
2.06078
1.81328
1.57499
1.41519
1.36697
1.48155
1.6981
1.67575
2.53476
1.02646
1.11378
1.20445
1.31543
1.45319
1.61169
1.77684
1.927
2.00652
1.99632
1.90483
1.7502
1.57885
1.43208
1.35813
1.42399
1.59368
1.61985
2.75683
0.870072
0.951736
1.02817
1.11105
1.20805
1.31978
1.44066
1.56012
1.6569
1.70002
1.68094
1.6047
1.49448
1.38243
1.32549
1.38698
1.4709
1.56799
3.02448
0.738425
0.815477
0.88397
0.951036
1.02333
1.10406
1.19241
1.28383
1.37105
1.43409
1.45885
1.44214
1.39341
1.33679
1.32419
1.40067
1.45337
1.5415
3.12556
0.628078
0.700528
0.76417
0.822629
0.880811
0.94248
1.00921
1.08008
1.15187
1.21927
1.2681
1.29332
1.29872
1.30263
1.34566
1.43918
1.45353
1.55061
3.10708
0.535811
0.603295
0.663317
0.716999
0.767452
0.818016
0.871233
0.928264
0.988842
1.05201
1.11237
1.16482
1.21162
1.26638
1.36017
1.46712
1.45845
1.58973
3.04108
0.458668
0.520802
0.577494
0.628203
0.674484
0.718852
0.763971
0.812035
0.864512
0.922349
0.986389
1.05384
1.12708
1.21649
1.34434
1.46355
1.46286
1.61033
3.03822
0.394026
0.450556
0.503809
0.552236
0.596163
0.637187
0.677637
0.720044
0.76681
0.820223
0.883
0.956738
1.04378
1.15178
1.29147
1.42587
1.47095
1.58184
3.06826
0.339664
0.390483
0.440068
0.486343
0.528736
0.567979
0.605849
0.644775
0.687514
0.73705
0.796825
0.871228
0.963365
1.07905
1.22049
1.35413
1.43135
1.53895
3.05394
0.293793
0.338911
0.384586
0.428575
0.469704
0.507962
0.544495
0.581366
0.621297
0.667517
0.72388
0.7954
0.886513
1.00105
1.13572
1.2613
1.34303
1.47735
2.98937
0.255042
0.29454
0.336079
0.377523
0.417355
0.454975
0.490895
0.526671
0.564732
0.608231
0.661052
0.728072
0.814404
0.922072
1.04504
1.15931
1.24438
1.39574
2.85498
0.222391
0.256407
0.293603
0.332167
0.37048
0.407526
0.443229
0.478572
0.515532
0.556961
0.606527
0.668685
0.748237
0.846045
0.955135
1.05632
1.13857
1.29023
2.64559
0.195074
0.223812
0.256489
0.291782
0.32821
0.364526
0.400162
0.43551
0.471991
0.512002
0.558803
0.616288
0.688281
0.774883
0.8689
0.954859
1.02695
1.16326
2.37296
0.172465
0.196224
0.224275
0.255887
0.289928
0.325145
0.36062
0.396181
0.432632
0.471785
0.516324
0.569403
0.633689
0.708449
0.786508
0.855091
0.910994
1.02118
2.05816
0.153989
0.173182
0.196626
0.224184
0.255236
0.288762
0.323697
0.359397
0.39602
0.434687
0.477344
0.526246
0.58281
0.645396
0.706948
0.756766
0.793029
0.871704
1.72282
0.139073
0.154219
0.173248
0.196509
0.223946
0.254987
0.288678
0.324078
0.360741
0.399007
0.439948
0.484773
0.533609
0.58395
0.629005
0.659902
0.675776
0.722114
1.38718
0.127144
0.13883
0.153814
0.172745
0.196054
0.223714
0.255144
0.28938
0.325507
0.36308
0.40218
0.442867
0.483978
0.522344
0.551636
0.564811
0.561955
0.579008
1.06933
0.117667
0.126487
0.137932
0.152754
0.171675
0.195151
0.223123
0.25491
0.28941
0.325505
0.362265
0.398529
0.431967
0.45903
0.474075
0.472039
0.454224
0.448496
0.787779
0.110182
0.116684
0.125156
0.136317
0.150942
0.169752
0.193157
0.220973
0.252251
0.285499
0.318894
0.35002
0.375993
0.392835
0.395966
0.382546
0.355595
0.337252
0.563332
0.104293
0.108987
0.115089
0.123169
0.133905
0.148019
0.16618
0.188645
0.214807
0.243235
0.271542
0.296742
0.315331
0.323446
0.31794
0.298483
0.270484
0.253683
0.42109
0.0997102
0.103006
0.107266
0.112918
0.120462
0.130425
0.143329
0.159548
0.178913
0.200523
0.221949
0.240075
0.251434
0.252976
0.243378
0.224884
0.205674
0.207768
0.388397
0.0962763
0.0985324
0.101425
0.105271
0.110341
0.116896
0.125252
0.135633
0.147912
0.161409
0.17459
0.185111
0.19033
0.188626
0.180344
0.169344
0.166164
0.203355
0.495823
0.0939378
0.095511
0.0975341
0.10033
0.103691
0.107578
0.112163
0.117545
0.123596
0.12993
0.135811
0.14013
0.141781
0.14021
0.136228
0.133499
0.143882
0.22059
0.796718
0.092729
0.0939949
0.0957612
0.0991359
0.100937
0.102214
0.103408
0.10469
0.106065
0.107468
0.108758
0.109702
0.11006
0.109708
0.108968
0.109606
0.119666
0.197142
1.50591
)
;

boundaryField
{
    leftWall
    {
        type            epsilonWallFunction;
        value           nonuniform List<scalar> 
50
(
0.00844359
0.00972852
0.0163092
0.0240466
0.0318067
0.0401269
0.0500473
0.0610028
0.0749516
0.092509
0.105715
0.116855
0.122832
0.137661
0.109766
0.0925313
0.0890019
0.0935472
0.101442
0.109927
0.117701
0.124369
0.12998
0.134712
0.138724
0.142131
0.145018
0.147527
0.150325
0.15274
0.154591
0.155886
0.156673
0.157025
0.157041
0.156847
0.156595
0.156474
0.15671
0.157578
0.159416
0.162668
0.16793
0.176074
0.188498
0.207636
0.238032
0.288172
0.371756
0.486674
)
;
    }
    rightWall
    {
        type            epsilonWallFunction;
        value           nonuniform List<scalar> 
50
(
0.973996
0.95911
1.42408
1.71652
1.88297
1.97695
2.00759
1.97143
1.75928
1.56005
1.4336
1.35977
1.34114
1.35222
1.26925
1.04009
0.847303
0.692392
0.577489
0.497136
0.4817
0.642642
1.00458
1.4718
1.92466
2.28003
2.53476
2.75683
3.02448
3.12556
3.10708
3.04108
3.03822
3.06826
3.05394
2.98937
2.85498
2.64559
2.37296
2.05816
1.72282
1.38718
1.06933
0.787779
0.563332
0.42109
0.388397
0.495823
0.796718
1.50591
)
;
    }
    lowerWall
    {
        type            epsilonWallFunction;
        value           nonuniform List<scalar> 
62
(
0.00844359
0.0301035
0.0541377
0.0754746
0.0953099
0.114121
0.131214
0.146259
0.159458
0.171603
0.183738
0.196433
0.209745
0.223149
0.236326
0.249364
0.262545
0.276283
0.280181
0.260215
0.20421
0.115714
0.0366367
0.0366367
0.0609793
0.118432
0.212366
0.366305
0.626926
1.1249
2.30361
4.51013
4.95843
6.0586
8.3386
1.2381
0.824409
0.73259
0.651918
0.686255
1.7156
3.96975
7.86095
1.2381
2.37477
3.75786
4.11251
3.6274
3.21206
2.93252
2.7938
2.74221
2.72707
2.68495
2.47793
2.10232
1.64694
1.28401
1.3596
1.72979
1.49673
0.973996
)
;
    }
    atmosphere
    {
        type            inletOutlet;
        inletValue      uniform 0.1;
        value           nonuniform List<scalar> 
46
(
0.486674
0.200217
0.130885
0.104534
0.0926159
0.0867697
0.0837748
0.0821926
0.0813447
0.080916
0.0807527
0.0807879
0.0810002
0.0813892
0.0819605
0.0827104
0.0836179
0.0846442
0.0857398
0.0868526
0.0879379
0.0889671
0.0899328
0.0906254
0.0910665
0.0915104
0.091964
0.092729
0.0939949
0.0957612
0.1
0.1
0.1
0.1
0.1
0.1
0.1
0.1
0.1
0.1
0.1
0.1
0.1
0.1
0.1
0.1
)
;
    }
    defaultFaces
    {
        type            empty;
    }
}


// ************************************************************************* //
