/*--------------------------------*- C++ -*----------------------------------*\
  =========                 |
  \\      /  F ield         | OpenFOAM: The Open Source CFD Toolbox
   \\    /   O peration     | Website:  https://openfoam.org
    \\  /    A nd           | Version:  13
     \\/     M anipulation  |
\*---------------------------------------------------------------------------*/
FoamFile
{
    format      ascii;
    class       volScalarField;
    location    "0.7";
    object      k;
}
// * * * * * * * * * * * * * * * * * * * * * * * * * * * * * * * * * * * * * //

dimensions      [0 2 -2 0 0 0 0];

internalField   nonuniform List<scalar> 
2268
(
0.00158318
0.00369178
0.00545769
0.00681092
0.00796066
0.0089802
0.00985853
0.0106011
0.0112333
0.0118016
0.012357
0.0129252
0.0135082
0.0140848
0.0146453
0.015197
0.0157565
0.0163294
0.0164966
0.0157073
0.0133597
0.00913346
0.00421914
0.00286565
0.00781665
0.0116388
0.0148236
0.0175619
0.0199036
0.0218989
0.023602
0.0250751
0.0263942
0.0276333
0.0288384
0.0300398
0.0312534
0.0325162
0.0338799
0.0353677
0.036678
0.0371412
0.0357794
0.0313507
0.0227157
0.00979422
0.00404321
0.00991758
0.0149949
0.0191898
0.0227429
0.0257849
0.0284073
0.030697
0.0327219
0.0345417
0.0362217
0.0378292
0.0394388
0.0411207
0.0429558
0.0450126
0.0472795
0.0493355
0.0504285
0.0494069
0.0446431
0.0340264
0.0152691
0.00524022
0.0120045
0.0179034
0.0227421
0.0268159
0.0302867
0.0332972
0.035962
0.0383651
0.0405629
0.0426092
0.044591
0.0466235
0.0488209
0.0512967
0.0541315
0.0572613
0.0602342
0.0622925
0.0622519
0.0582215
0.0469655
0.0225439
0.00631708
0.0143819
0.0207992
0.0260508
0.0304448
0.0341867
0.0374544
0.0403738
0.0430425
0.0455448
0.0479447
0.0503382
0.0528569
0.0556465
0.0588429
0.0625416
0.0666216
0.0706746
0.0739938
0.075467
0.0730903
0.0625642
0.0324178
0.00737909
0.0168235
0.0236356
0.0291346
0.0337299
0.0376505
0.0411183
0.044249
0.0471537
0.0499622
0.0527229
0.0555668
0.0586298
0.0620694
0.0660358
0.0706378
0.0757352
0.0809867
0.0858019
0.0892451
0.0894244
0.0813802
0.0464059
0.00855722
0.0192358
0.026289
0.0319603
0.036679
0.0406765
0.0442294
0.0475739
0.0508602
0.0540893
0.0572322
0.0605586
0.0641933
0.0683069
0.0730603
0.0785761
0.0847256
0.0912569
0.0977628
0.103593
0.107261
0.104095
0.0686941
0.00977091
0.0213841
0.0286795
0.0344986
0.0393333
0.0434362
0.0470973
0.0506073
0.0541881
0.0578911
0.0616051
0.0654731
0.0696792
0.0744654
0.0800128
0.086443
0.0936601
0.101538
0.109923
0.11855
0.126645
0.131457
0.111421
0.0440601
0.0680161
0.0923579
0.0983007
0.0905908
0.0835738
0.0786681
0.0761684
0.0751602
0.0747632
0.0739014
0.0701132
0.0628227
0.0532849
0.0448802
0.0468401
0.0553441
0.0503082
0.0376654
0.0593507
0.131457
0.180845
0.186846
0.163681
0.157165
0.155339
0.155359
0.155175
0.153625
0.149716
0.14148
0.125701
0.10725
0.100175
0.116016
0.162473
0.138016
0.0657546
0.0548263
0.137127
0.159265
0.181
0.190971
0.196505
0.199928
0.201844
0.201428
0.198142
0.191499
0.180576
0.163912
0.144442
0.13341
0.136019
0.152115
0.14621
0.0854557
0.050788
0.117531
0.163761
0.201655
0.223052
0.233256
0.238725
0.240725
0.238909
0.233195
0.223434
0.209613
0.191942
0.172845
0.159024
0.154876
0.158527
0.1504
0.0967195
0.0530037
0.130663
0.197918
0.240683
0.263046
0.272843
0.277209
0.277144
0.272638
0.263842
0.250788
0.233907
0.214685
0.195656
0.181044
0.174692
0.17389
0.162111
0.102888
0.099312
0.186102
0.25447
0.292486
0.310089
0.315814
0.316178
0.311843
0.303217
0.290647
0.274302
0.25472
0.233875
0.214521
0.199579
0.192943
0.190941
0.174133
0.106254
0.174349
0.266413
0.325369
0.353104
0.362383
0.361794
0.356244
0.346088
0.332161
0.315004
0.294884
0.272516
0.250082
0.230035
0.214599
0.207997
0.206774
0.183661
0.107318
0.276262
0.361365
0.404862
0.420021
0.419523
0.410877
0.397613
0.380248
0.360066
0.337664
0.313311
0.287869
0.263538
0.242384
0.226086
0.218569
0.218555
0.190786
0.10602
0.011226
0.0244038
0.0320748
0.0380972
0.0431348
0.0474974
0.0514835
0.055369
0.0593638
0.0635986
0.0681312
0.0729685
0.0781798
0.0840371
0.0908054
0.0985627
0.107318
0.117257
0.1287
0.14203
0.157663
0.175854
0.193041
0.0129315
0.0276783
0.0358181
0.0421162
0.047492
0.0523489
0.0570004
0.0616915
0.0665771
0.0717337
0.0772049
0.083057
0.0894518
0.0966434
0.104903
0.114383
0.125475
0.138873
0.155721
0.177589
0.207034
0.248249
0.307783
0.014145
0.0301918
0.0389041
0.0456075
0.0514521
0.0569298
0.0623753
0.0680225
0.073989
0.0802965
0.0869439
0.0939637
0.101473
0.109718
0.11898
0.129723
0.142893
0.159891
0.182872
0.215223
0.262462
0.333627
0.441802
0.0151229
0.0321313
0.041504
0.0487021
0.0550683
0.0611806
0.0674049
0.073972
0.0809614
0.0883782
0.0962263
0.104493
0.113252
0.122605
0.132825
0.144929
0.160522
0.18212
0.213716
0.261637
0.335993
0.453011
0.634428
0.0156382
0.0334205
0.0436684
0.0514168
0.0582512
0.0648951
0.0717794
0.0791074
0.0868927
0.0951789
0.104071
0.113526
0.12345
0.133872
0.145569
0.160047
0.179798
0.208964
0.254487
0.32724
0.443349
0.629249
0.921877
0.0168962
0.0335791
0.0456827
0.0538726
0.0608519
0.0677248
0.0751192
0.0831217
0.0915649
0.100462
0.110171
0.120747
0.131838
0.143687
0.1576
0.175828
0.20204
0.242846
0.310014
0.420653
0.595372
0.872493
1.31041
0.0145405
0.0308893
0.0437478
0.0525128
0.0604503
0.068115
0.0760191
0.0843644
0.0932438
0.102971
0.114075
0.1264
0.139208
0.153108
0.170176
0.193685
0.228775
0.285487
0.382643
0.5392
0.766852
1.07486
1.42641
0.0129459
0.028421
0.0411811
0.0506106
0.0590076
0.0671483
0.0753392
0.0836272
0.0920306
0.101221
0.111868
0.123941
0.137566
0.153942
0.175499
0.20589
0.251141
0.323287
0.441352
0.616726
0.84144
1.0795
1.29499
0.0125719
0.0278691
0.0397146
0.0491385
0.0575743
0.0656838
0.0737411
0.0818922
0.0903083
0.0994609
0.10989
0.121891
0.136056
0.15413
0.178946
0.214697
0.267217
0.345288
0.461572
0.624028
0.821027
1.01775
1.17681
0.0129713
0.0287826
0.0401008
0.0492494
0.0574043
0.0651711
0.0728552
0.0806509
0.0887734
0.0975904
0.107554
0.119164
0.133382
0.152219
0.178594
0.216884
0.27271
0.352727
0.463833
0.609127
0.777428
0.940291
1.06489
0.0136831
0.0303878
0.0415719
0.0504896
0.0583467
0.0657443
0.0730246
0.0804271
0.0881969
0.0966624
0.10625
0.117549
0.131675
0.150743
0.177587
0.216389
0.272134
0.349801
0.453096
0.581575
0.724871
0.860548
0.96229
0.0144362
0.0320729
0.0432971
0.0520952
0.0597546
0.0668766
0.0738185
0.0808417
0.0882015
0.0962121
0.105299
0.116096
0.129749
0.148333
0.174464
0.211872
0.264896
0.33746
0.431509
0.544757
0.667657
0.782498
0.868805
0.0151119
0.0335427
0.0448275
0.0535648
0.06111
0.0680546
0.074747
0.0814451
0.0883959
0.0958969
0.10436
0.114426
0.127189
0.144567
0.168938
0.203577
0.252214
0.318044
0.402157
0.501692
0.60814
0.707289
0.783122
0.0156802
0.0347278
0.0460307
0.0547106
0.0621747
0.0689996
0.0755121
0.0819506
0.088541
0.0955541
0.103372
0.112593
0.124218
0.139941
0.161923
0.192962
0.236257
0.294505
0.368498
0.455549
0.548386
0.635496
0.704107
0.0161505
0.0356606
0.0469314
0.0555329
0.0629149
0.0696406
0.0760136
0.0822473
0.0885402
0.0951297
0.102354
0.110746
0.12118
0.135089
0.154416
0.181516
0.219126
0.269582
0.333665
0.409239
0.490381
0.567782
0.631077
0.0165416
0.0364012
0.0476042
0.056105
0.0633913
0.0700176
0.0762687
0.0823347
0.0883864
0.0946258
0.101342
0.108989
0.118305
0.130465
0.147161
0.17038
0.202438
0.245391
0.300111
0.365147
0.435934
0.505026
0.563863
0.0168695
0.0370031
0.0481212
0.0565078
0.0636851
0.0702047
0.0763383
0.0822582
0.0881108
0.094065
0.100361
0.107375
0.115714
0.126327
0.140599
0.160262
0.187231
0.223328
0.269521
0.325057
0.386615
0.447935
0.501927
0.0171456
0.0375029
0.0485346
0.056804
0.0638649
0.0702707
0.0762859
0.0820703
0.0877516
0.0934701
0.0994221
0.105913
0.113433
0.122743
0.13495
0.151496
0.174032
0.204156
0.242866
0.289819
0.3426
0.396523
0.445748
0.017378
0.0379232
0.0488762
0.0570335
0.0639775
0.0702659
0.0761608
0.0818144
0.0873407
0.0928575
0.098524
0.104585
0.11143
0.119665
0.130172
0.144126
0.162908
0.187894
0.220055
0.259369
0.30422
0.351175
0.39559
0.0175787
0.0382776
0.0491623
0.0572183
0.0640502
0.0702218
0.0759956
0.0815203
0.0869006
0.0922372
0.0976593
0.103362
0.109651
0.117004
0.12612
0.137942
0.153603
0.174272
0.200852
0.233543
0.271356
0.311862
0.351476
0.0178009
0.0385627
0.0493965
0.0573678
0.0640959
0.0701543
0.0758087
0.0812061
0.0864453
0.0916143
0.0968194
0.102215
0.108041
0.114669
0.122648
0.132727
0.145824
0.16292
0.184832
0.211894
0.243574
0.278226
0.313162
0.0179925
0.038817
0.0496007
0.0574872
0.0641182
0.0700691
0.0756083
0.080881
0.0859819
0.090991
0.0959967
0.101121
0.106552
0.112577
0.119624
0.12828
0.139284
0.153448
0.171498
0.193838
0.220254
0.249687
0.280185
0.0181393
0.039021
0.0497655
0.0575822
0.0641259
0.0699756
0.0754007
0.0805485
0.0855125
0.0903672
0.0951858
0.100066
0.105152
0.110668
0.116941
0.124431
0.133726
0.145492
0.160365
0.178773
0.200713
0.225557
0.251937
0.0182421
0.0391696
0.0498844
0.0576442
0.0641116
0.0698689
0.075187
0.0802147
0.0850447
0.0897459
0.0943838
0.0990387
0.10382
0.108897
0.114522
0.121051
0.128945
0.138748
0.151008
0.166146
0.184299
0.205142
0.227764
0.0183051
0.0392646
0.0499573
0.0576709
0.0640722
0.0697452
0.074963
0.0798758
0.0845765
0.0891305
0.0935952
0.0980364
0.102543
0.107239
0.112315
0.118043
0.124785
0.132976
0.14308
0.155499
0.170448
0.187816
0.207041
0.0183342
0.0393134
0.04999
0.0576662
0.0640096
0.0696052
0.0747282
0.0795306
0.0841062
0.0885187
0.0928196
0.0970617
0.101315
0.105677
0.110284
0.115343
0.121131
0.127995
0.13632
0.146472
0.158707
0.17306
0.189228
0.0183369
0.0393277
0.0499941
0.05764
0.0639313
0.0694542
0.0744861
0.0791813
0.0836351
0.0879107
0.0920556
0.0961134
0.100136
0.104201
0.108407
0.112904
0.117903
0.123673
0.13053
0.138794
0.148732
0.160471
0.173898
0.0183229
0.0393244
0.0499872
0.0576084
0.0638514
0.0693036
0.0742454
0.0788343
0.0831677
0.0873093
0.0913044
0.09519
0.0990055
0.102804
0.106665
0.110692
0.11504
0.119913
0.125563
0.132261
0.140263
0.149746
0.160729
0.018304
0.0393255
0.049993
0.0575942
0.0637902
0.0691708
0.0740206
0.0785011
0.0827127
0.086721
0.09057
0.0942926
0.0979188
0.101485
0.105046
0.10868
0.112493
0.116636
0.121302
0.126714
0.1331
0.140656
0.149483
0.0182949
0.0393587
0.0500422
0.0576274
0.0637753
0.0690803
0.0738324
0.0781987
0.082284
0.0861563
0.08986
0.0934254
0.0968759
0.100236
0.10354
0.106843
0.11022
0.113774
0.117649
0.12202
0.127079
0.133015
0.139973
0.0183131
0.0394584
0.0501731
0.0577462
0.0638424
0.0690638
0.0737086
0.0779509
0.0819011
0.0856308
0.0891861
0.0925959
0.0958796
0.0990531
0.102137
0.105162
0.108182
0.111267
0.114515
0.118057
0.122048
0.126654
0.132029
0.0183798
0.0396665
0.0504334
0.0579979
0.0640361
0.069162
0.073685
0.0777885
0.08159
0.085166
0.088565
0.0918163
0.0949367
0.0979363
0.100825
0.10362
0.106348
0.10906
0.111818
0.114715
0.117865
0.121407
0.125482
0.0185209
0.0400349
0.0508816
0.0584412
0.0644115
0.069425
0.0738063
0.0777507
0.0813845
0.0847902
0.0880199
0.0911043
0.094059
0.0968905
0.0996018
0.102198
0.104691
0.107106
0.109486
0.111888
0.114394
0.117108
0.120148
0.0187696
0.0406287
0.0515914
0.059149
0.065037
0.0699147
0.0741274
0.0778857
0.0813264
0.0845393
0.0875808
0.090484
0.0932645
0.0959268
0.0984693
0.100889
0.103186
0.105369
0.107458
0.109487
0.11151
0.113597
0.115841
0.019169
0.0415324
0.0526573
0.0602136
0.0659966
0.0707058
0.0747141
0.0782512
0.0814663
0.0844571
0.0872852
0.0899865
0.0925778
0.0950629
0.0974374
0.099693
0.101821
0.103818
0.105686
0.107439
0.109106
0.110732
0.112381
0.0197795
0.0428622
0.0542054
0.0617522
0.0673931
0.0718862
0.075642
0.0789126
0.0818611
0.0845934
0.0871763
0.0896486
0.0920291
0.0943223
0.0965227
0.0986184
0.100595
0.102438
0.104137
0.105689
0.107101
0.108395
0.10961
0.020694
0.0447885
0.0564068
0.0639099
0.0693426
0.0735489
0.076987
0.0799343
0.0825669
0.0849976
0.0872973
0.0895081
0.091651
0.0937322
0.0957464
0.0976802
0.0995141
0.101226
0.102793
0.104199
0.105431
0.106493
0.1074
0.0220647
0.047567
0.0594776
0.0668378
0.0719447
0.0757611
0.0787985
0.0813563
0.0836185
0.0857014
0.0876781
0.0895926
0.0914689
0.0933159
0.0951299
0.0968965
0.0985928
0.100189
0.101652
0.102951
0.104058
0.104959
0.105652
0.0241566
0.0515415
0.063603
0.0705951
0.0751927
0.0784904
0.0810393
0.0831453
0.0849901
0.0866872
0.0883083
0.089899
0.0914862
0.0930821
0.0946856
0.0962824
0.0978459
0.0993391
0.100718
0.101939
0.102961
0.103752
0.104295
0.02741
0.0569379
0.0686701
0.0749315
0.0788138
0.0814873
0.083496
0.085125
0.0865392
0.0878425
0.089103
0.0903666
0.0916635
0.0930098
0.0944074
0.0958423
0.097284
0.0986883
0.100001
0.101166
0.102128
0.102845
0.103287
0.0323975
0.0632166
0.0738427
0.0790546
0.0821378
0.0842003
0.0857167
0.0869254
0.0879649
0.0889272
0.0898758
0.0908571
0.0919043
0.0930378
0.0942619
0.0955625
0.0969058
0.0982409
0.099505
0.100631
0.101555
0.102225
0.102602
0.0386026
0.0682615
0.0774146
0.0817042
0.0842085
0.0858726
0.0870843
0.088038
0.088851
0.0896064
0.0903651
0.0911741
0.0920688
0.093072
0.0941901
0.095409
0.0966929
0.0979869
0.0992231
0.100329
0.101234
0.101881
0.102226
0.177116
0.189488
0.217308
0.269637
0.37172
0.425247
0.487744
0.556798
0.558534
0.649525
0.749055
0.85092
0.828402
0.978803
1.14274
1.30726
1.23328
1.4811
1.76745
2.04408
1.68888
1.90031
2.06601
2.13852
1.61768
1.6969
1.73775
1.74829
1.41194
1.45655
1.47504
1.47556
1.24968
1.274
1.28135
1.27916
1.11543
1.1311
1.13532
1.13487
1.00215
1.01519
1.02021
1.02307
0.903615
0.91644
0.923261
0.928699
0.815589
0.829
0.837505
0.844599
0.735634
0.749921
0.759935
0.768174
0.662265
0.677488
0.688906
0.69822
0.594572
0.610565
0.623202
0.633605
0.532035
0.548627
0.562282
0.573702
0.474879
0.491712
0.506064
0.518326
0.423309
0.439977
0.454639
0.467475
0.377395
0.393511
0.408093
0.421177
0.337002
0.352248
0.366393
0.379393
0.301787
0.315931
0.329351
0.341962
0.271255
0.284151
0.296634
0.308605
0.24483
0.256404
0.26781
0.27895
0.221938
0.232172
0.24242
0.252596
0.202067
0.210978
0.220032
0.22916
0.184802
0.192431
0.200287
0.208319
0.169828
0.176235
0.182915
0.189835
0.156922
0.162183
0.167731
0.17355
0.145912
0.150124
0.15461
0.15937
0.136651
0.139928
0.143448
0.147219
0.128981
0.131456
0.134128
0.137012
0.122727
0.124537
0.126494
0.128615
0.117692
0.118972
0.120352
0.121846
0.113675
0.114551
0.115481
0.116479
0.110491
0.111066
0.111658
0.112279
0.107983
0.108339
0.108683
0.109025
0.106021
0.10622
0.106385
0.106522
0.104515
0.104602
0.104637
0.104625
0.103401
0.103409
0.103353
0.103236
0.102647
0.102604
0.102488
0.102302
0.102239
0.102172
0.10203
0.101816
0.415878
0.501836
0.531079
0.52996
0.513148
0.48951
0.461905
0.431662
0.400771
0.369699
0.338543
0.308209
0.280586
0.257259
0.239206
0.229224
0.229644
0.197385
0.0983828
0.670523
0.755422
0.763836
0.722322
0.664357
0.605153
0.547159
0.492904
0.444303
0.400506
0.360356
0.323867
0.291962
0.265521
0.244981
0.231623
0.226326
0.188848
0.0906525
1.01136
1.12543
1.07448
0.945386
0.816903
0.705787
0.610973
0.532656
0.468372
0.414323
0.367751
0.327542
0.293539
0.265858
0.244482
0.229402
0.216817
0.177542
0.085549
1.55736
1.68299
1.39478
1.13005
0.923417
0.762042
0.637723
0.544101
0.471114
0.411968
0.362964
0.322199
0.288841
0.262169
0.241517
0.226726
0.206997
0.169086
0.0824577
2.27362
1.90153
1.52815
1.20166
0.933019
0.752132
0.624807
0.529986
0.456456
0.397765
0.350125
0.311332
0.280178
0.255749
0.236857
0.223043
0.199593
0.163755
0.0815976
2.09154
1.83002
1.51623
1.11878
0.870714
0.706101
0.588934
0.500605
0.431843
0.377138
0.333073
0.297511
0.269151
0.247091
0.230094
0.216714
0.194042
0.160576
0.0820137
1.72219
1.61824
1.34205
1.01723
0.801869
0.655616
0.549679
0.469077
0.406019
0.355814
0.31544
0.28287
0.256718
0.236005
0.219742
0.205597
0.185251
0.153819
0.0792163
1.46091
1.41077
1.19794
0.931058
0.747015
0.616656
0.519621
0.444653
0.385537
0.338311
0.300272
0.26944
0.244258
0.223427
0.205673
0.188906
0.167314
0.134794
0.0693439
1.27119
1.24923
1.10024
0.875132
0.715062
0.595932
0.504205
0.431853
0.374052
0.3275
0.289789
0.259016
0.233518
0.211703
0.191899
0.171931
0.147184
0.112168
0.0604051
1.13543
1.14209
1.04352
0.853135
0.708463
0.595264
0.505111
0.432373
0.373264
0.325008
0.285471
0.2529
0.225702
0.20226
0.180779
0.159036
0.133706
0.0990165
0.0526982
1.03193
1.07379
1.02479
0.86395
0.726619
0.614412
0.52239
0.446569
0.383855
0.331808
0.28847
0.252226
0.22165
0.195336
0.171698
0.148722
0.123491
0.0911894
0.0465627
0.941793
0.995858
1.02436
0.906465
0.768002
0.652296
0.555348
0.474125
0.405974
0.348555
0.299933
0.2585
0.222912
0.192013
0.164637
0.139267
0.113514
0.0832543
0.0420189
0.859407
0.912668
0.974479
0.953449
0.830613
0.707515
0.602918
0.51433
0.439366
0.375539
0.3208
0.273412
0.231918
0.195218
0.162529
0.133089
0.105584
0.0770124
0.0416242
0.783327
0.829825
0.89999
0.938065
0.894478
0.777611
0.663618
0.566294
0.483541
0.412538
0.35126
0.297834
0.250594
0.208264
0.170188
0.13638
0.107328
0.0820553
0.0512787
0.713629
0.751065
0.813783
0.87635
0.893787
0.843979
0.734747
0.62894
0.538106
0.459274
0.390925
0.331374
0.278942
0.232207
0.190374
0.153959
0.125439
0.105921
0.0692614
0.649583
0.679296
0.728531
0.789531
0.837434
0.84211
0.795309
0.698679
0.602312
0.515516
0.439589
0.373531
0.316004
0.26601
0.222631
0.186855
0.162973
0.151956
0.0889651
0.59058
0.61493
0.651586
0.700497
0.750006
0.783098
0.78172
0.740406
0.665041
0.578194
0.496416
0.424367
0.360904
0.308052
0.264964
0.233785
0.219774
0.210374
0.10586
0.536256
0.557548
0.584878
0.621224
0.662161
0.698697
0.720695
0.715153
0.680348
0.620477
0.54711
0.476596
0.409984
0.354648
0.31298
0.290375
0.286589
0.244148
0.1181
0.486368
0.506344
0.527758
0.554358
0.585547
0.617261
0.644179
0.656874
0.64683
0.615049
0.568332
0.509631
0.447647
0.393842
0.354123
0.336019
0.327292
0.258594
0.126674
0.440743
0.460455
0.478641
0.49875
0.521923
0.546849
0.570661
0.588974
0.593088
0.580413
0.552016
0.510035
0.461448
0.413071
0.373136
0.35185
0.336388
0.266584
0.134431
0.399216
0.419126
0.435875
0.452189
0.469785
0.488804
0.508014
0.524995
0.535425
0.534276
0.520025
0.493082
0.456894
0.416719
0.382236
0.362084
0.333755
0.269777
0.142811
0.361587
0.381737
0.39806
0.412475
0.42668
0.44149
0.456706
0.471155
0.482872
0.487862
0.483453
0.468763
0.445085
0.416253
0.390601
0.373306
0.339656
0.270916
0.144998
0.327601
0.347785
0.364123
0.377796
0.390219
0.402423
0.414798
0.426999
0.437983
0.446091
0.448229
0.443025
0.430695
0.41392
0.398739
0.384331
0.344177
0.274196
0.144144
0.296954
0.316852
0.333278
0.346809
0.358481
0.369289
0.379903
0.390505
0.400751
0.409892
0.416134
0.417852
0.414756
0.408474
0.403052
0.391335
0.347415
0.28099
0.14211
0.269323
0.288588
0.30497
0.318581
0.33008
0.340294
0.349969
0.359579
0.369228
0.378646
0.387237
0.393537
0.397065
0.398637
0.400499
0.391867
0.349291
0.283715
0.14232
0.2444
0.262706
0.278814
0.292501
0.304089
0.314183
0.323476
0.33257
0.341834
0.351361
0.361018
0.370103
0.377951
0.384696
0.390418
0.385897
0.351099
0.28079
0.143059
0.221928
0.23899
0.254557
0.268189
0.279925
0.290139
0.299398
0.308311
0.317379
0.326914
0.337017
0.347634
0.35811
0.368104
0.376056
0.373217
0.344776
0.276257
0.142461
0.201726
0.217297
0.232054
0.245429
0.257248
0.267663
0.27708
0.286035
0.295061
0.304581
0.314869
0.3261
0.337882
0.349424
0.35813
0.355988
0.330504
0.269261
0.140293
0.183686
0.197566
0.211248
0.224128
0.235884
0.246475
0.256131
0.265267
0.27437
0.283893
0.294188
0.305495
0.317657
0.329517
0.338027
0.336152
0.31382
0.2594
0.135884
0.167766
0.1798
0.192158
0.204283
0.215772
0.226435
0.236327
0.245713
0.254983
0.264553
0.274782
0.285897
0.297816
0.30921
0.31697
0.315021
0.295132
0.246159
0.129005
0.153951
0.164046
0.174862
0.185958
0.196931
0.207492
0.217543
0.227185
0.236671
0.24633
0.256468
0.267259
0.278535
0.288958
0.295533
0.293037
0.274586
0.229697
0.11988
0.142213
0.150356
0.159464
0.169266
0.179434
0.189653
0.199706
0.209535
0.219231
0.228989
0.23901
0.249362
0.259739
0.268819
0.273807
0.270232
0.252307
0.210541
0.108973
0.132468
0.13874
0.146056
0.154336
0.163394
0.172966
0.182778
0.192635
0.202455
0.212264
0.222108
0.231899
0.241167
0.248602
0.251657
0.246557
0.228529
0.189363
0.0967742
0.124566
0.129134
0.134679
0.141287
0.148949
0.157523
0.166761
0.176379
0.186137
0.195865
0.205413
0.2145
0.222467
0.228027
0.228915
0.222038
0.203606
0.166852
0.0837721
0.118289
0.121388
0.125287
0.130187
0.136238
0.143463
0.15172
0.160723
0.170112
0.179524
0.188585
0.196792
0.203289
0.206844
0.205499
0.196834
0.178017
0.14375
0.0704677
0.113385
0.115279
0.11774
0.121018
0.125366
0.130961
0.137818
0.145739
0.154328
0.16307
0.17137
0.17848
0.183389
0.184945
0.181513
0.171332
0.152467
0.120972
0.0575425
0.109603
0.110548
0.11182
0.113667
0.116373
0.120204
0.125321
0.131676
0.138944
0.146546
0.153709
0.159446
0.162769
0.162517
0.157425
0.146353
0.12815
0.0999458
0.0461065
0.106713
0.10694
0.107282
0.107953
0.109215
0.111342
0.114574
0.119001
0.124433
0.130355
0.135923
0.140152
0.141986
0.140382
0.134453
0.123599
0.10723
0.0830509
0.0380963
0.104535
0.104231
0.103877
0.103657
0.103792
0.104504
0.106003
0.108434
0.111754
0.11564
0.119367
0.122041
0.122721
0.120597
0.11514
0.106101
0.0930781
0.0736733
0.0361977
0.102948
0.102272
0.101442
0.100651
0.100084
0.0998797
0.100181
0.101092
0.102624
0.104595
0.106579
0.107987
0.108152
0.10656
0.102908
0.0970235
0.0883896
0.0743057
0.0425637
0.10189
0.100996
0.0999378
0.0990489
0.0984172
0.0980003
0.0978523
0.0980122
0.098508
0.099259
0.100084
0.10073
0.100881
0.100239
0.0985989
0.0958077
0.0915
0.0834943
0.0582276
0.101353
0.10039
0.0994041
0.0994219
0.0992765
0.0990855
0.0989316
0.0988554
0.0988839
0.0990036
0.0991781
0.0993545
0.0994509
0.0993659
0.0990146
0.0983741
0.0975167
0.0960968
0.0888872
)
;

boundaryField
{
    leftWall
    {
        type            kqRWallFunction;
        value           nonuniform List<scalar> 
50
(
0.00158318
0.00286565
0.00404321
0.00524022
0.00631708
0.00737909
0.00855722
0.00977091
0.011226
0.0129315
0.014145
0.0151229
0.0156382
0.0168962
0.0145405
0.0129459
0.0125719
0.0129713
0.0136831
0.0144362
0.0151119
0.0156802
0.0161505
0.0165416
0.0168695
0.0171456
0.017378
0.0175787
0.0178009
0.0179925
0.0181393
0.0182421
0.0183051
0.0183342
0.0183369
0.0183229
0.018304
0.0182949
0.0183131
0.0183798
0.0185209
0.0187696
0.019169
0.0197795
0.020694
0.0220647
0.0241566
0.02741
0.0323975
0.0386026
)
;
    }
    rightWall
    {
        type            kqRWallFunction;
        value           nonuniform List<scalar> 
50
(
0.0376654
0.0657546
0.0854557
0.0967195
0.102888
0.106254
0.107318
0.10602
0.0983828
0.0906525
0.085549
0.0824577
0.0815976
0.0820137
0.0792163
0.0693439
0.0604051
0.0526982
0.0465627
0.0420189
0.0416242
0.0512787
0.0692614
0.0889651
0.10586
0.1181
0.126674
0.134431
0.142811
0.144998
0.144144
0.14211
0.14232
0.143059
0.142461
0.140293
0.135884
0.129005
0.11988
0.108973
0.0967742
0.0837721
0.0704677
0.0575425
0.0461065
0.0380963
0.0361977
0.0425637
0.0582276
0.0888872
)
;
    }
    lowerWall
    {
        type            kqRWallFunction;
        value           nonuniform List<scalar> 
62
(
0.00158318
0.00369178
0.00545769
0.00681092
0.00796066
0.0089802
0.00985853
0.0106011
0.0112333
0.0118016
0.012357
0.0129252
0.0135082
0.0140848
0.0146453
0.015197
0.0157565
0.0163294
0.0164966
0.0157073
0.0133597
0.00913346
0.00421914
0.00421914
0.00979422
0.0152691
0.0225439
0.0324178
0.0464059
0.0686941
0.111421
0.177116
0.189488
0.217308
0.269637
0.0440601
0.0593507
0.0548263
0.050788
0.0530037
0.099312
0.174349
0.276262
0.0440601
0.0680161
0.0923579
0.0983007
0.0905908
0.0835738
0.0786681
0.0761684
0.0751602
0.0747632
0.0739014
0.0701132
0.0628227
0.0532849
0.0448802
0.0468401
0.0553441
0.0503082
0.0376654
)
;
    }
    atmosphere
    {
        type            inletOutlet;
        inletValue      uniform 0.1;
        value           nonuniform List<scalar> 
46
(
0.0386026
0.0682615
0.0774146
0.0817042
0.0842085
0.0858726
0.0870843
0.088038
0.088851
0.0896064
0.0903651
0.0911741
0.0920688
0.093072
0.0941901
0.095409
0.0966929
0.0979869
0.0992231
0.100329
0.101234
0.101881
0.102226
0.102239
0.102172
0.10203
0.101816
0.101353
0.10039
0.0994041
0.1
0.1
0.1
0.1
0.1
0.1
0.1
0.1
0.1
0.1
0.1
0.1
0.1
0.1
0.1
0.1
)
;
    }
    defaultFaces
    {
        type            empty;
    }
}


// ************************************************************************* //
