/*--------------------------------*- C++ -*----------------------------------*\
  =========                 |
  \\      /  F ield         | OpenFOAM: The Open Source CFD Toolbox
   \\    /   O peration     | Website:  https://openfoam.org
    \\  /    A nd           | Version:  13
     \\/     M anipulation  |
\*---------------------------------------------------------------------------*/
FoamFile
{
    format      ascii;
    class       volScalarField;
    location    "0.7";
    object      nut;
}
// * * * * * * * * * * * * * * * * * * * * * * * * * * * * * * * * * * * * * //

dimensions      [0 2 -1 0 0 0 0];

internalField   nonuniform List<scalar> 
2268
(
2.67164e-05
4.07471e-05
4.95177e-05
5.53164e-05
5.98415e-05
6.3599e-05
6.66633e-05
6.91545e-05
7.12216e-05
7.30463e-05
7.47949e-05
7.65428e-05
7.82968e-05
8.0011e-05
8.16823e-05
8.33532e-05
8.51056e-05
8.68614e-05
8.74161e-05
8.53326e-05
7.86608e-05
6.48822e-05
4.37295e-05
7.59698e-05
0.000261022
0.0003825
0.00047015
0.000534942
0.000579017
0.000608426
0.000628354
0.000643584
0.00065827
0.000675114
0.000695369
0.000720252
0.000751044
0.000790247
0.000840814
0.000903451
0.000958267
0.000983937
0.000954128
0.000827631
0.000552373
0.000141579
9.02116e-05
0.000401326
0.000671381
0.000870402
0.00101649
0.00112093
0.00119367
0.00124433
0.00128265
0.00131761
0.001356
0.00140241
0.00146078
0.00153466
0.00162818
0.00174368
0.00187422
0.00197822
0.00200287
0.00187991
0.00152781
0.000904325
0.000177173
0.000102775
0.000513818
0.000910784
0.00120841
0.00143046
0.00159411
0.00171325
0.00180017
0.00186791
0.00192931
0.00199457
0.00207181
0.00216735
0.00228608
0.00243112
0.00260067
0.00277456
0.00289685
0.00289322
0.00266724
0.00211343
0.00120315
0.000215385
0.000112916
0.000640142
0.00113353
0.00150918
0.00179468
0.00201178
0.0021765
0.00230246
0.0024047
0.00249866
0.00259664
0.00270939
0.00284454
0.0030073
0.00319842
0.00341155
0.00361359
0.00374359
0.00371499
0.00341181
0.00269901
0.00152688
0.000258207
0.000122127
0.000777932
0.00135013
0.00178551
0.00212415
0.00238918
0.00259777
0.00276437
0.0029055
0.00303743
0.00317253
0.00332372
0.00349877
0.00370267
0.00393388
0.0041823
0.0044081
0.00454964
0.00451546
0.00417422
0.00334871
0.00191671
0.000309152
0.000131682
0.000920377
0.00155889
0.00204583
0.00243103
0.00273919
0.00298885
0.00319712
0.00338084
0.00355396
0.00372847
0.00391871
0.00413167
0.00437255
0.00463875
0.004918
0.00516916
0.00533307
0.00531889
0.00498573
0.00410862
0.00242155
0.000377544
0.000140852
0.00104367
0.00175581
0.00229315
0.00272279
0.00307332
0.00336423
0.0036133
0.00383745
0.00405112
0.00426651
0.00449412
0.00474155
0.00501505
0.00531299
0.00562172
0.00590293
0.00610203
0.00613368
0.00585829
0.0050244
0.00316352
0.000485029
0.000141117
0.000175325
0.000204292
0.00021147
0.000203618
0.000195704
0.000189933
0.000186895
0.000185403
0.000184469
0.000183067
0.000178547
0.000168958
0.000155158
0.000141184
0.000145233
0.000159365
0.000152187
0.00013109
0.000384549
0.000746903
0.00110252
0.00131558
0.00148896
0.00165236
0.00176155
0.00182708
0.0018451
0.0018164
0.00174606
0.00162097
0.00131699
0.000973995
0.00080275
0.000821471
0.00102381
0.000995465
0.00040572
0.000369283
0.00107579
0.00158212
0.00223265
0.00293086
0.00344078
0.00375317
0.00390688
0.0039274
0.00383621
0.00364764
0.00334589
0.00280319
0.00216214
0.00172257
0.00154178
0.00150876
0.00144317
0.000461519
0.000356099
0.00121935
0.00232237
0.00354794
0.00457181
0.0052524
0.00565364
0.00582602
0.00581224
0.00564598
0.00534428
0.00489611
0.00421419
0.00342992
0.00280745
0.00245254
0.0022153
0.00186661
0.000490481
0.000368443
0.00149514
0.00333297
0.0050197
0.00620694
0.00693462
0.00733762
0.0074809
0.00741472
0.00717567
0.00678098
0.00622225
0.0054586
0.0046098
0.00388757
0.00339551
0.00297322
0.00228523
0.000505974
0.000517404
0.00208217
0.00454906
0.00651164
0.00773364
0.00842875
0.00878369
0.00887479
0.00875119
0.0084459
0.00797481
0.00733482
0.00651807
0.00563299
0.00484047
0.00422472
0.00362692
0.00261956
0.000513971
0.000689158
0.00299279
0.00601362
0.00801891
0.00913916
0.00973863
0.010017
0.0100455
0.00986414
0.00949834
0.00896155
0.00825786
0.00739981
0.00648239
0.00562522
0.00488873
0.0041318
0.00285675
0.000516314
0.000873797
0.00442633
0.00773866
0.00950952
0.0104244
0.010888
0.011072
0.0110308
0.0107909
0.0103679
0.00977221
0.0090136
0.00811732
0.00716529
0.00624365
0.00538863
0.00448961
0.00301895
0.000513144
0.000151325
0.00121556
0.00204591
0.00266391
0.0031641
0.00358318
0.00394208
0.00425749
0.00454407
0.00481602
0.00508748
0.00536665
0.0056614
0.00597816
0.00631816
0.00666629
0.0069938
0.00725759
0.00738522
0.00725805
0.00668701
0.00539437
0.00315855
0.000162689
0.00139243
0.00236889
0.00309138
0.00368259
0.00418943
0.00463484
0.00503414
0.00539947
0.00574223
0.00607482
0.00640925
0.00675799
0.00713014
0.00752912
0.00794365
0.00836289
0.00875645
0.00906324
0.009198
0.0090811
0.00867794
0.00801207
0.000170337
0.0015263
0.00263209
0.00345377
0.0041331
0.00472442
0.00525207
0.00573031
0.00616933
0.00657843
0.00696851
0.00735233
0.00774479
0.00816146
0.00860925
0.00909149
0.00960374
0.0101115
0.0105447
0.0108325
0.0109774
0.0111086
0.0114528
0.000176143
0.00161646
0.00282696
0.00373521
0.00449366
0.00516088
0.00576198
0.00631053
0.00681528
0.00728483
0.00773002
0.00816411
0.00860484
0.00906769
0.00956803
0.0101201
0.0107108
0.0112798
0.0117352
0.0120433
0.012321
0.01281
0.0137526
0.000179187
0.00165536
0.002935
0.00391163
0.00473786
0.00547221
0.00613969
0.00675238
0.00731749
0.00784418
0.00834489
0.00883405
0.0093271
0.00984561
0.0104148
0.0110424
0.0116908
0.0122668
0.012694
0.0130532
0.0135862
0.0145619
0.0161612
0.000186642
0.00160347
0.00293026
0.00395517
0.00483902
0.00563637
0.00637106
0.00704947
0.00767627
0.008262
0.00882066
0.00936892
0.00992531
0.0105178
0.0111703
0.0118731
0.0125565
0.0131228
0.0135934
0.0141973
0.0151814
0.0167661
0.0189923
0.000173354
0.001404
0.00272637
0.00380025
0.00475933
0.00563624
0.00644706
0.00719613
0.0078898
0.00854291
0.00917252
0.00979667
0.0104348
0.0111184
0.0118634
0.0126348
0.0133414
0.0139379
0.01461
0.0155663
0.016876
0.0186215
0.0205011
0.000163011
0.00118894
0.0024585
0.00357068
0.00459314
0.00554354
0.00642483
0.00723795
0.00799125
0.00870162
0.00938736
0.0100712
0.0107855
0.0115609
0.01239
0.0132042
0.0139054
0.0145231
0.0153417
0.0165641
0.0180924
0.0195586
0.0206565
0.000159826
0.0011113
0.00228367
0.00339604
0.00445331
0.00545123
0.00638281
0.00724785
0.00805438
0.00881722
0.00955548
0.0102957
0.0110726
0.0119084
0.012769
0.0135756
0.0142763
0.0149592
0.0158619
0.0171246
0.0185815
0.0198626
0.0206862
0.000161874
0.00111686
0.00224686
0.00335273
0.00442021
0.00543698
0.00639254
0.00728491
0.00812087
0.00891335
0.0096832
0.0104584
0.0112729
0.0121369
0.0129993
0.0137945
0.0145209
0.0152913
0.0162596
0.0174793
0.0187971
0.0199165
0.0205986
0.000166109
0.00117501
0.00232455
0.00343888
0.00450808
0.00552437
0.00648082
0.00737678
0.00821914
0.00902089
0.00980312
0.0105943
0.0114254
0.0122989
0.0131576
0.0139516
0.0147065
0.0155279
0.0165126
0.017664
0.018846
0.0198309
0.0204327
0.000170625
0.00125821
0.00246642
0.00360911
0.00468439
0.00569363
0.00663724
0.00751882
0.00834727
0.00913716
0.00990932
0.0106934
0.0115181
0.0123844
0.013236
0.0140316
0.0147983
0.0156291
0.0165946
0.0176741
0.0187457
0.0196319
0.0201906
0.000174622
0.00134578
0.00262915
0.00381401
0.00490362
0.00590787
0.00683477
0.00769319
0.00849517
0.0092573
0.0100021
0.0107585
0.0115556
0.0123973
0.0132331
0.0140214
0.0147821
0.0155943
0.0165162
0.0175231
0.0185081
0.0193269
0.019867
0.000177924
0.00142682
0.00278671
0.00401916
0.00512934
0.00613336
0.0070455
0.00787946
0.00865049
0.00937723
0.0100835
0.0107986
0.011552
0.0123528
0.0131606
0.0139331
0.0146759
0.0154515
0.0163132
0.0172445
0.0181562
0.0189277
0.0194645
0.000180608
0.00149755
0.00292732
0.00420623
0.00533954
0.0063474
0.00724868
0.0080609
0.00880201
0.00949225
0.0101561
0.010823
0.0115231
0.0122711
0.0130406
0.013789
0.0145068
0.015237
0.0160295
0.0168809
0.017723
0.0184549
0.018993
0.000182806
0.00155775
0.00304764
0.00436802
0.00552385
0.00653781
0.00743192
0.0082265
0.00894145
0.00959806
0.0102209
0.0108388
0.0114821
0.0121705
0.0128924
0.0136092
0.0142989
0.0149833
0.0157048
0.0164735
0.0172434
0.0179329
0.0184661
0.000184628
0.00160852
0.0031483
0.00450353
0.00567924
0.00669983
0.00758944
0.00837031
0.00906367
0.00969128
0.0102773
0.0108494
0.0114373
0.0120642
0.012731
0.0134088
0.0140682
0.0147105
0.0153656
0.016051
0.0167413
0.0173799
0.0179028
0.000186149
0.00165095
0.00323123
0.00461451
0.00580654
0.00683306
0.00771971
0.00849002
0.00916603
0.00976959
0.0103241
0.0108556
0.0113926
0.0119598
0.0125668
0.0131974
0.0138214
0.0144236
0.0150178
0.0156243
0.0162377
0.0168218
0.017326
0.000187422
0.00168582
0.00329831
0.0047035
0.00590818
0.0069393
0.00782363
0.00858562
0.00924775
0.00983171
0.0103599
0.0108567
0.0113485
0.0118604
0.0124073
0.0129835
0.0135646
0.0141272
0.0146703
0.0152096
0.015752
0.0162794
0.0167551
0.000188514
0.00171323
0.00335071
0.00477287
0.00598698
0.00702116
0.00790326
0.00865839
0.00930929
0.00987731
0.0103838
0.0108514
0.0113042
0.0117665
0.0122558
0.0127748
0.0133072
0.013829
0.0143282
0.0148121
0.0152918
0.0157629
0.0162023
0.000189712
0.00172979
0.0033882
0.00482466
0.00604564
0.00708141
0.00796107
0.00871029
0.00935188
0.0099068
0.0103954
0.0108385
0.0112583
0.0116769
0.0121132
0.0125752
0.0130551
0.0135328
0.0139914
0.0144291
0.0148551
0.0152733
0.0156717
0.000190754
0.00174402
0.00341726
0.00486184
0.00608657
0.00712249
0.00799955
0.00874353
0.00937719
0.0099212
0.010395
0.0108177
0.0112094
0.0115903
0.0119789
0.0123865
0.0128121
0.013242
0.0136591
0.0140554
0.0144351
0.0148046
0.0151605
0.000191556
0.00175575
0.00343945
0.00488876
0.00611429
0.00714845
0.00802171
0.00876035
0.00938702
0.00992194
0.0103833
0.010789
0.0111571
0.0115057
0.0118522
0.0122093
0.0125811
0.0129601
0.0133326
0.0136878
0.0140248
0.0143493
0.0146623
0.000192126
0.00176476
0.00345503
0.00490596
0.00613015
0.00716132
0.00803046
0.00876394
0.00938423
0.00991092
0.0103617
0.0107532
0.0111013
0.0114225
0.0117324
0.012044
0.0123641
0.0126911
0.0130154
0.0133268
0.0136211
0.0139015
0.0141713
0.000192484
0.00177096
0.00346401
0.00491378
0.00613498
0.00716241
0.00802734
0.00875606
0.00937069
0.00989033
0.0103319
0.0107111
0.0110426
0.0113406
0.0116191
0.0118904
0.0121629
0.0124385
0.0127124
0.0129765
0.0132256
0.0134608
0.0136854
0.000192662
0.00177433
0.00346644
0.00491248
0.00612937
0.00715263
0.00801353
0.008738
0.00934778
0.00986146
0.0102953
0.010664
0.0109814
0.01126
0.0115119
0.0117485
0.0119784
0.0122056
0.0124289
0.0126433
0.0128442
0.0130313
0.0132078
0.000192698
0.00177493
0.00346248
0.00490242
0.00611391
0.00713278
0.00798993
0.00871075
0.00931647
0.00982519
0.0102526
0.0106127
0.0109182
0.0111807
0.0114107
0.0116181
0.0118109
0.0119943
0.0121695
0.012334
0.0124848
0.0126212
0.0127463
0.000192643
0.00177298
0.00345248
0.00488418
0.00608934
0.0071037
0.00795742
0.00867515
0.00927751
0.00978212
0.0102043
0.0105574
0.0108532
0.0111026
0.0113148
0.0114983
0.0116601
0.0118056
0.0119371
0.0120542
0.0121553
0.0122402
0.0123119
0.000192556
0.00176879
0.00343711
0.00485867
0.00605676
0.00706653
0.00791707
0.00863209
0.00923155
0.00973268
0.0101504
0.0104978
0.010786
0.011025
0.0112232
0.0113878
0.0115249
0.011639
0.0117331
0.0118077
0.0118623
0.0118973
0.0119156
0.000192514
0.00176288
0.00341738
0.00482735
0.00601781
0.00702291
0.00787032
0.00858271
0.00917939
0.00967725
0.0100911
0.0104336
0.0107158
0.0109468
0.0111344
0.0112848
0.0114031
0.0114929
0.0115567
0.0115957
0.0116096
0.0115993
0.0115674
0.000192606
0.00175599
0.00339482
0.00479233
0.00597489
0.00697518
0.00781924
0.00852862
0.00912209
0.00961635
0.0100262
0.0103643
0.0106415
0.0108665
0.0110464
0.0111868
0.0112918
0.0113642
0.0114056
0.0114169
0.0113981
0.0113495
0.0112735
0.000192943
0.00174915
0.0033716
0.00475663
0.00593142
0.00692669
0.00776674
0.0084721
0.00906119
0.00955076
0.00995579
0.0102892
0.0105618
0.0107821
0.0109568
0.0110908
0.0111875
0.0112488
0.0112756
0.011268
0.0112254
0.0111476
0.0110363
0.000193658
0.00174373
0.00335069
0.00472442
0.0058921
0.00688207
0.00771688
0.00841633
0.00899888
0.00948168
0.00988021
0.0102078
0.0104754
0.0106917
0.0108629
0.0109934
0.0110861
0.0111421
0.0111616
0.0111435
0.0110866
0.01099
0.0108537
0.000194917
0.00174157
0.00333616
0.00470145
0.00586341
0.00684762
0.00767511
0.00836555
0.00893808
0.00941077
0.00979997
0.0101196
0.0103811
0.0105931
0.0107618
0.0108912
0.0109835
0.0110392
0.0110576
0.0110372
0.0109753
0.01087
0.01072
0.000196929
0.00174512
0.0033336
0.00469555
0.00585408
0.00683164
0.00764846
0.00832512
0.0088824
0.00934008
0.00971578
0.0100244
0.0102776
0.0104844
0.0106509
0.0107807
0.0108756
0.0109353
0.0109584
0.0109423
0.0108839
0.0107797
0.0106269
0.000199977
0.00175782
0.00335081
0.00471753
0.00587566
0.00684466
0.00764537
0.0083011
0.00883574
0.00927166
0.00962828
0.00992153
0.0101637
0.0103639
0.010528
0.0106594
0.0107592
0.0108266
0.0108593
0.0108536
0.0108055
0.0107106
0.0105649
0.000204466
0.00178461
0.00339887
0.00478184
0.0059426
0.00689871
0.00767462
0.00829915
0.00880122
0.00920685
0.00953764
0.00981061
0.0100385
0.0102303
0.0103918
0.0105258
0.0106327
0.010711
0.0107573
0.010767
0.010735
0.0106559
0.0105247
0.000211026
0.00183258
0.00349225
0.00490549
0.00606974
0.00700428
0.00774228
0.00832199
0.00877956
0.00914536
0.0094433
0.00969127
0.0099021
0.0100845
0.0102435
0.0103813
0.0104974
0.0105892
0.0106522
0.010681
0.0106692
0.0106105
0.010499
0.000220637
0.00190899
0.00364312
0.00509993
0.00626377
0.00716276
0.00784611
0.00836598
0.00876736
0.00908513
0.00934494
0.00956497
0.00975759
0.00993068
0.0100884
0.0102316
0.0103588
0.0104661
0.0105479
0.0105975
0.0106078
0.0105715
0.010482
0.000234644
0.00200854
0.00384115
0.00535081
0.00650679
0.00735526
0.00796945
0.00841891
0.00875785
0.00902463
0.00924566
0.00943852
0.00961454
0.00978034
0.00993866
0.010089
0.0102285
0.0103518
0.0104523
0.0105222
0.0105536
0.0105386
0.0104702
0.000254101
0.00208885
0.00402743
0.00559685
0.00674266
0.00753671
0.00808115
0.00846351
0.0087458
0.00896829
0.00915702
0.00932838
0.00949231
0.00965402
0.00981477
0.0099727
0.0101235
0.0102608
0.010377
0.0104636
0.010512
0.010514
0.0104623
0.000275574
0.00209456
0.00412097
0.00574743
0.00689079
0.00764864
0.00814721
0.00848691
0.00873449
0.00893071
0.00910096
0.00926059
0.00941849
0.00957887
0.00974201
0.00990514
0.0100631
0.010209
0.0103344
0.0104306
0.0104887
0.0105003
0.0104581
0.000625994
0.000651724
0.000701491
0.000784707
0.00721051
0.00744468
0.0079286
0.00864885
0.0119182
0.0124565
0.0131142
0.0138513
0.0147235
0.0155566
0.016447
0.0173505
0.0176775
0.0189119
0.0201892
0.0213002
0.020507
0.0214967
0.0222927
0.0227295
0.0212491
0.0215822
0.0217497
0.0218294
0.021016
0.021167
0.0212321
0.0212661
0.0208621
0.0209177
0.0209355
0.0209632
0.0207193
0.0207518
0.0207682
0.0208118
0.0205561
0.0205985
0.0206314
0.0206911
0.0203363
0.0203968
0.0204457
0.0205099
0.0200398
0.0201189
0.0201808
0.0202453
0.0196654
0.0197632
0.0198383
0.0199047
0.0192207
0.0193368
0.0194258
0.0194976
0.0187169
0.0188494
0.0189528
0.0190326
0.0181707
0.0183165
0.0184332
0.0185232
0.0176023
0.0177569
0.0178843
0.0179846
0.0170301
0.0171881
0.0173223
0.0174311
0.0164672
0.016623
0.0167592
0.0168733
0.0159196
0.0160684
0.0162019
0.0163171
0.0153866
0.0155245
0.0156512
0.0157636
0.0148636
0.0149879
0.0151043
0.0152101
0.0143454
0.0144538
0.0145571
0.0146529
0.0138299
0.0139203
0.0140076
0.0140901
0.0133197
0.0133897
0.0134581
0.0135239
0.0128223
0.0128695
0.0129161
0.0129615
0.0123492
0.0123713
0.0123933
0.012415
0.0119129
0.0119088
0.0119042
0.0118995
0.0115254
0.0114951
0.0114634
0.0114311
0.0111956
0.011141
0.0110835
0.0110241
0.0109281
0.0108527
0.0107726
0.0106887
0.0107226
0.0106313
0.0105333
0.0104294
0.0105746
0.0104728
0.0103624
0.0102442
0.0104757
0.0103691
0.0102523
0.0101258
0.0104159
0.0103095
0.0101917
0.0100627
0.0103843
0.0102822
0.0101675
0.0100404
0.0103717
0.0102772
0.010169
0.0100474
0.0103702
0.010285
0.0101855
0.0100717
0.0103737
0.0102977
0.0102073
0.0101021
0.010378
0.0103097
0.0102268
0.010129
0.0103807
0.0103169
0.0102383
0.010145
0.00417235
0.00823027
0.0105054
0.0116571
0.0122156
0.0124499
0.0124719
0.0123116
0.0119766
0.0114681
0.0107916
0.00996317
0.00901247
0.00800447
0.00698711
0.00596242
0.00486835
0.0031951
0.000495161
0.0109289
0.0128502
0.0138577
0.0142391
0.0142647
0.0141175
0.0138663
0.0135128
0.0130306
0.0123984
0.0116126
0.0106887
0.00965354
0.008555
0.00742209
0.00624185
0.00496489
0.0031306
0.000474094
0.0151935
0.0163862
0.0167553
0.0164323
0.0158825
0.015321
0.0147842
0.0142358
0.013612
0.0128648
0.011981
0.0109759
0.00987461
0.00871221
0.00751429
0.00626481
0.0048817
0.00300532
0.000459456
0.0189043
0.019849
0.0190532
0.0179712
0.016913
0.0160104
0.0152554
0.0145591
0.013811
0.0129519
0.0119724
0.0108945
0.00975294
0.00857447
0.00736922
0.00613528
0.00471373
0.00288202
0.000450026
0.0223675
0.0216252
0.0203634
0.0187425
0.0172915
0.0162425
0.0153971
0.0145929
0.0137267
0.0127536
0.0116777
0.0105319
0.00935875
0.00819112
0.00702258
0.00585426
0.0045004
0.0027567
0.00044681
0.022746
0.0221029
0.02072
0.0187507
0.0173446
0.0162822
0.0153642
0.0144461
0.0134494
0.0123523
0.0111776
0.00997054
0.00877792
0.00763395
0.00653566
0.00545605
0.00422853
0.00261941
0.000447681
0.0218507
0.0217778
0.0204636
0.0187345
0.0173948
0.0162956
0.0152704
0.0142084
0.013061
0.0118322
0.0105623
0.00930349
0.0080999
0.00697739
0.0059424
0.00493478
0.00383744
0.00242219
0.000444963
0.0213208
0.0214649
0.0204223
0.0188544
0.0175288
0.0163394
0.0151681
0.0139426
0.0126432
0.011292
0.00993837
0.00863573
0.00742127
0.00630717
0.00528391
0.00431031
0.00327013
0.00202428
0.000416091
0.021056
0.02133
0.0205851
0.0190765
0.017706
0.0163942
0.0150733
0.0137048
0.0122845
0.0108384
0.00941537
0.00806834
0.00683241
0.00571279
0.0046875
0.00371674
0.00270402
0.00156588
0.000387571
0.0209527
0.0213264
0.0207841
0.0193176
0.0178755
0.0164499
0.0150171
0.0135581
0.0120677
0.0105619
0.0090812
0.00767902
0.00639853
0.00525336
0.00422375
0.00326681
0.00232752
0.00132416
0.000360979
0.0208608
0.0213512
0.0209779
0.0195572
0.0180487
0.0165447
0.0150522
0.0135583
0.0120462
0.0105142
0.00898768
0.00751743
0.00615973
0.00495063
0.00389006
0.002945
0.00206404
0.00119038
0.00033789
0.020669
0.0211169
0.0210891
0.019864
0.0182898
0.0167387
0.0152257
0.0137338
0.0122334
0.0107034
0.00914996
0.00761193
0.00615201
0.00483197
0.00368516
0.00270405
0.0018482
0.00106265
0.000319636
0.0203822
0.0207218
0.0208373
0.0201158
0.0186525
0.0170739
0.0155588
0.0140838
0.0126111
0.0111045
0.00954952
0.00796509
0.00640557
0.00494703
0.00365878
0.00257546
0.00168777
0.000952153
0.000323712
0.0200217
0.0202474
0.0203663
0.0200045
0.0190244
0.0175585
0.0160458
0.0145895
0.0131481
0.0116755
0.0101416
0.00854308
0.0069139
0.00532602
0.00387137
0.00263262
0.00165862
0.000939838
0.000368253
0.0196031
0.0197397
0.0198104
0.0196289
0.0190508
0.0180423
0.0166563
0.0152259
0.0138152
0.0123772
0.0108749
0.00928768
0.00762537
0.00594353
0.00433798
0.00293048
0.00184384
0.00111514
0.000429774
0.0191373
0.0192161
0.019225
0.0191147
0.0187733
0.0181456
0.0172039
0.0159457
0.0145876
0.0131826
0.0117123
0.0101493
0.00848098
0.00674752
0.00503877
0.00350366
0.00232869
0.00157006
0.000483984
0.0186367
0.0186906
0.0186547
0.0185397
0.0183237
0.0179298
0.0173247
0.0164689
0.0153563
0.0140503
0.0126269
0.0111035
0.00944434
0.00769866
0.00595316
0.00438097
0.00320651
0.00231762
0.000524026
0.0181129
0.0181686
0.0181178
0.0179907
0.0178099
0.0175553
0.0171589
0.0165763
0.0157859
0.0147523
0.0134922
0.0120782
0.0104777
0.00876544
0.00705868
0.00558454
0.00449781
0.00305993
0.000550552
0.0175758
0.0176501
0.0176101
0.017488
0.0173211
0.0171224
0.016854
0.016452
0.0158762
0.0150948
0.0141064
0.0128911
0.0114508
0.00986443
0.00825643
0.00685889
0.00567741
0.00359145
0.000569749
0.0170323
0.0171325
0.0171188
0.0170193
0.0168708
0.0166992
0.016495
0.0162014
0.0157775
0.0151875
0.0143976
0.0133769
0.012138
0.0107232
0.00922649
0.00782438
0.00639031
0.00394852
0.000589975
0.0164855
0.0166117
0.0166304
0.0165634
0.016442
0.0162934
0.0161225
0.0158999
0.015572
0.0151119
0.014479
0.013636
0.0125714
0.0113054
0.00992042
0.0085073
0.00681579
0.00417744
0.000606899
0.0159354
0.0160827
0.0161325
0.0161005
0.0160114
0.0158888
0.0157431
0.0155619
0.0153058
0.0149369
0.0144192
0.0137132
0.0127953
0.0116653
0.0103695
0.00895441
0.00714404
0.00428518
0.000605393
0.0153787
0.0155396
0.0156152
0.0156154
0.0155589
0.0154645
0.0153438
0.0151928
0.0149884
0.0146889
0.0142589
0.0136582
0.0128548
0.0118374
0.0106337
0.00923714
0.00733468
0.00436375
0.000601843
0.0148119
0.0149771
0.0150707
0.0150974
0.0150704
0.0150042
0.0149092
0.0147851
0.0146172
0.0143734
0.0140107
0.0134905
0.012778
0.0118579
0.0107491
0.00939452
0.00744814
0.00446991
0.000597674
0.0142328
0.0143922
0.0144947
0.0145406
0.0145382
0.0144981
0.0144286
0.0143303
0.0141925
0.0139899
0.0136819
0.0132263
0.0125896
0.0117568
0.0107383
0.00944305
0.00750612
0.00449875
0.00060001
0.0136433
0.0137859
0.0138869
0.0139435
0.0139598
0.0139425
0.0138973
0.0138245
0.0137147
0.0135462
0.0132843
0.0128853
0.012317
0.011564
0.0106223
0.00939954
0.00754231
0.00448586
0.000600319
0.0130503
0.0131643
0.0132524
0.0133101
0.0133379
0.0133389
0.0133161
0.0132682
0.0131862
0.01305
0.0128287
0.012484
0.0119807
0.0113017
0.0104283
0.00925778
0.00747433
0.00446319
0.0005981
0.0124659
0.0125391
0.0126017
0.0126493
0.0126801
0.0126937
0.0126899
0.0126658
0.0126115
0.0125079
0.0123264
0.0120326
0.0115901
0.0109772
0.0101637
0.00904265
0.00731999
0.00441677
0.000592566
0.0119065
0.0119267
0.0119504
0.0119754
0.0119987
0.0120171
0.0120276
0.0120245
0.011997
0.0119257
0.011783
0.0115365
0.0111512
0.0105982
0.00984042
0.00877231
0.00712281
0.00433888
0.000582073
0.0113903
0.0113472
0.0113188
0.0113071
0.0113101
0.0113233
0.0113408
0.0113541
0.0113504
0.0113095
0.0112039
0.0110012
0.0106684
0.0101708
0.00946705
0.00845524
0.00688516
0.00422674
0.000566154
0.0109348
0.0108216
0.0107292
0.0106663
0.0106345
0.0106296
0.0106438
0.010666
0.0106807
0.0106661
0.0105937
0.0104309
0.0101446
0.00969784
0.00904661
0.00809374
0.00660774
0.00408205
0.000545062
0.010554
0.0103688
0.0102044
0.010077
0.00999451
0.00995597
0.00995353
0.00997383
0.00999837
0.0100029
0.00995755
0.0098284
0.00958168
0.00918023
0.00857887
0.00768605
0.00628905
0.00390672
0.000519282
0.010256
0.0100032
0.00976428
0.0095625
0.00941401
0.00932444
0.00928868
0.00929261
0.00931503
0.00932868
0.00930118
0.00919715
0.00898156
0.0086184
0.00806255
0.00722965
0.005927
0.00370225
0.000489241
0.0100415
0.00973166
0.00942264
0.00914257
0.00891613
0.00875817
0.00866998
0.0086395
0.00864401
0.0086532
0.00863173
0.00854199
0.00834736
0.00801383
0.00749784
0.00672385
0.00552103
0.00346978
0.000455309
0.00990453
0.00955241
0.00918456
0.00883023
0.00852043
0.00827993
0.00811979
0.00803402
0.00800116
0.00798885
0.00795863
0.00787015
0.00768498
0.0073718
0.00688985
0.00617364
0.00507533
0.00321197
0.000417937
0.00983339
0.00945582
0.00904532
0.00862876
0.00823938
0.00790959
0.00766146
0.00749904
0.00740659
0.00735247
0.00729599
0.00719389
0.0070071
0.00670638
0.00625478
0.00559679
0.004606
0.00293664
0.000378283
0.00981243
0.00942619
0.00899144
0.00853029
0.0080749
0.00766062
0.00731774
0.00706183
0.00688793
0.00676998
0.00666796
0.006537
0.00634173
0.00605107
0.0056329
0.00503921
0.0041565
0.00266574
0.000339627
0.00982695
0.0094438
0.00900032
0.00851547
0.00801692
0.00753777
0.00710941
0.00675615
0.00648735
0.00628736
0.00612344
0.00595745
0.00575393
0.00548356
0.00511729
0.00460632
0.00382591
0.00244703
0.000310193
0.00986332
0.00949231
0.00905353
0.00856403
0.00804869
0.00753617
0.00705583
0.00663258
0.00628247
0.00600194
0.00577774
0.00558354
0.00539084
0.00517411
0.00490243
0.00450533
0.00379103
0.00235116
0.000303618
0.00990732
0.0095538
0.00913138
0.008661
0.00817026
0.00768063
0.0072116
0.00678122
0.00640828
0.00610006
0.00585559
0.00566956
0.00553101
0.00541783
0.00528497
0.00500296
0.00423163
0.00244361
0.000328848
0.00994636
0.00961161
0.00921607
0.00880053
0.00840703
0.00803478
0.00768308
0.00735525
0.00706614
0.00682451
0.00663799
0.00651677
0.00646015
0.00644971
0.00642275
0.00618821
0.00523696
0.00284426
0.000382997
0.00997008
0.00964984
0.00928671
0.00897379
0.00878791
0.00864474
0.00851843
0.00840112
0.00829701
0.0082085
0.00813975
0.0080985
0.00808781
0.00809987
0.0080973
0.00794635
0.00715204
0.0042158
0.000472195
)
;

boundaryField
{
    leftWall
    {
        type            nutkWallFunction;
        Cmu             0.09;
        kappa           0.41;
        E               9.8;
        value           nonuniform List<scalar> 
50
(
2.98732e-06
7.7597e-06
9.07515e-06
1.03554e-05
1.31284e-05
1.43417e-05
1.53692e-05
1.63488e-05
1.74382e-05
1.86199e-05
1.94091e-05
2.00187e-05
2.03636e-05
1.77013e-05
1.57524e-05
1.4329e-05
1.39809e-05
1.43524e-05
1.49986e-05
1.56618e-05
1.62404e-05
1.67156e-05
1.71015e-05
1.74175e-05
1.76793e-05
1.78975e-05
1.80795e-05
1.82357e-05
1.84073e-05
1.85544e-05
1.86665e-05
1.87447e-05
1.87925e-05
1.88145e-05
1.88165e-05
1.88059e-05
1.87916e-05
1.87848e-05
1.87985e-05
1.8849e-05
1.89555e-05
1.91419e-05
1.94385e-05
1.98851e-05
2.05397e-05
2.14908e-05
2.28797e-05
2.49103e-05
2.77734e-05
3.1006e-05
)
;
    }
    rightWall
    {
        type            nutkWallFunction;
        Cmu             0.09;
        kappa           0.41;
        E               9.8;
        value           nonuniform List<scalar> 
50
(
1.2762e-05
3.58788e-05
4.04479e-05
4.26478e-05
4.38644e-05
4.45195e-05
4.47797e-05
4.4605e-05
4.3144e-05
4.17978e-05
4.17005e-05
4.07672e-05
3.96993e-05
3.98646e-05
4.41548e-05
4.41913e-05
4.21661e-05
3.91269e-05
3.69388e-05
3.52467e-05
3.50951e-05
3.86017e-05
4.42998e-05
4.97003e-05
5.37342e-05
5.6478e-05
5.84321e-05
6.57093e-05
6.76176e-05
6.76777e-05
6.97164e-05
7.2095e-05
7.21499e-05
7.23426e-05
7.21832e-05
7.16131e-05
7.04427e-05
6.85739e-05
6.60081e-05
6.27904e-05
5.89678e-05
5.45804e-05
4.96767e-05
4.43838e-05
3.91076e-05
3.49541e-05
3.38988e-05
3.73254e-05
4.46802e-05
5.63478e-05
)
;
    }
    lowerWall
    {
        type            nutkWallFunction;
        Cmu             0.09;
        kappa           0.41;
        E               9.8;
        value           nonuniform List<scalar> 
62
(
2.98732e-06
4.40016e-06
5.25856e-06
5.81673e-06
6.2448e-06
6.59688e-06
6.88304e-06
7.11426e-06
7.30427e-06
7.47012e-06
7.62806e-06
7.78567e-06
7.94349e-06
8.09599e-06
8.24099e-06
8.38077e-06
8.51976e-06
8.65929e-06
8.69951e-06
8.50765e-06
7.90366e-06
6.64795e-06
4.67653e-06
4.67653e-06
1.35737e-05
1.66155e-05
1.98443e-05
2.34203e-05
2.75878e-05
3.30039e-05
4.17331e-05
5.4917e-05
5.63952e-05
5.85804e-05
6.4632e-05
1.62978e-05
4.09256e-05
3.97405e-05
3.84364e-05
3.91894e-05
4.46163e-05
5.80348e-05
7.28668e-05
1.62978e-05
1.97986e-05
2.17818e-05
2.19546e-05
2.06428e-05
1.90168e-05
1.83185e-05
1.8095e-05
1.80843e-05
1.80945e-05
1.80207e-05
1.78174e-05
1.7856e-05
1.71796e-05
1.56765e-05
1.60273e-05
1.56167e-05
1.4559e-05
1.2762e-05
)
;
    }
    atmosphere
    {
        type            calculated;
        value           nonuniform List<scalar> 
46
(
0.000275574
0.00209456
0.00412097
0.00574743
0.00689079
0.00764864
0.00814721
0.00848691
0.00873449
0.00893071
0.00910096
0.00926059
0.00941849
0.00957887
0.00974201
0.00990514
0.0100631
0.010209
0.0103344
0.0104306
0.0104887
0.0105003
0.0104581
0.0103807
0.0103169
0.0102383
0.010145
0.00997008
0.00964984
0.00928671
0.009
0.009
0.009
0.009
0.009
0.009
0.009
0.009
0.009
0.009
0.009
0.009
0.009
0.009
0.009
0.009
)
;
    }
    defaultFaces
    {
        type            empty;
    }
}


// ************************************************************************* //
