/*--------------------------------*- C++ -*----------------------------------*\
  =========                 |
  \\      /  F ield         | OpenFOAM: The Open Source CFD Toolbox
   \\    /   O peration     | Website:  https://openfoam.org
    \\  /    A nd           | Version:  13
     \\/     M anipulation  |
\*---------------------------------------------------------------------------*/
FoamFile
{
    format      ascii;
    class       volScalarField;
    location    "0.7";
    object      p;
}
// * * * * * * * * * * * * * * * * * * * * * * * * * * * * * * * * * * * * * //

dimensions      [1 -1 -2 0 0 0 0];

internalField   nonuniform List<scalar> 
2268
(
3522.74
3552.2
3621.02
3720.22
3851.3
4024.83
4235.76
4481.68
4755.08
5042.98
5331.94
5610.87
5872.84
6114.55
6334.27
6533.23
6714.13
6873.85
7008.02
7103.98
7146.73
7130.08
7054.37
2720.98
2742.46
2812.26
2910.71
3051.82
3230.35
3447.82
3700.86
3980.98
4274.03
4565.8
4844.89
5104.63
5342.23
5555.83
5746.33
5914.81
6061.17
6180.32
6264.38
6304.26
6291.9
6224.67
1914.89
1945
2006.98
2109.99
2247.29
2431.48
2657.23
2919.41
3208.14
3507.02
3801.47
4080.26
4337.14
4569.85
4775.8
4955.93
5111.86
5244.03
5349.77
5425.47
5465.44
5456.54
5394.02
1179.36
1212
1255.38
1331.36
1446.18
1613.18
1841.85
2118.76
2424.69
2734.29
3034.1
3313.53
3568.06
3796.74
3995.25
4165.25
4309.86
4430.4
4525.89
4595.18
4632.6
4618.73
4555.64
824.3
834.986
848.942
875.828
921.54
998.575
1129.73
1329.72
1607.04
1939.28
2258.91
2544.01
2797.97
3023.94
3215.58
3375.81
3510.31
3620.92
3706.77
3767.57
3796.03
3770.18
3711.09
754.298
753.347
752.945
756.033
762.914
775.454
798.8
853.357
970.674
1180.36
1462.63
1766.96
2029.67
2255.27
2439.24
2588.47
2712.41
2812.87
2887.24
2935.49
2948.77
2910.64
2865.08
692.287
690.589
690.458
692.52
697.134
704.499
713.111
722.798
734.222
763.624
868.072
1048.04
1267.89
1500.64
1675.87
1812.23
1925.12
2015.1
2075.37
2106.61
2098.66
2052.92
2020.46
630.53
627.921
627.727
629.705
634.09
640.799
648.15
654.279
658.235
659.105
656.742
666.021
739.47
860.61
972.602
1088.3
1202.69
1284.37
1326.7
1337.33
1310.14
1275.22
1261.22
1838.53
1824.14
2021.9
2253.54
2702.09
3258.69
3129.1
2826.57
2669.53
2637.49
2672.12
2704.43
2714.79
2751.41
2791.51
2805.85
2851.39
3015.8
3613.04
1793.02
1767.97
1907.72
2126.91
2302.62
2476.04
2308.05
2129.64
2061.93
2072.33
2137.9
2270.56
2524.54
2711.96
2771.21
2783.73
2788.05
2843.45
3402.26
1747.54
1717.5
1808.74
1944.56
1772.17
1565.75
1394.24
1320.92
1313.8
1347.96
1438.16
1656.8
2054.82
2547.07
2724.43
2768.03
2793.85
2867.38
3377.01
1722.63
1637.4
1572.12
1556.68
1279.36
1118.17
1044.15
1015.72
1012.27
1025.05
1059.46
1175.93
1443.69
2011.78
2489.39
2620.16
2693.66
2765.28
3429.6
1661.86
1503.26
1214.54
1121.15
1021.35
1001.67
984.297
969.55
961.48
961.211
962.674
970.39
1063.81
1340.98
1773.97
2065.35
2356.02
2555.1
3533.26
1326.74
1205.09
899.651
880.626
900.219
924.951
912.841
899.898
892.784
893.473
896.671
902.839
941.685
1026.13
1188.92
1402.68
1806.95
2210
3388.66
543.992
873.87
748.768
796.224
820.207
842.897
835.444
825.884
821.28
825.091
833.409
843.11
874.936
926.089
990.998
1094.3
1303.91
1727
2985.06
92.3329
653.003
687.501
722.371
745.65
766.201
765.331
761.488
760.696
766.102
774.89
785.639
811.053
853.446
905.384
972.234
1060.48
1234.89
2480.56
534.52
530.194
529.144
530.742
534.702
540.684
547.483
553.198
556.158
554.844
550.87
546.727
538.875
532.884
552.148
602.591
658.864
692.984
702.087
693.768
674.32
671.078
677.589
402.559
396.294
394.051
394.985
398.294
403.398
409.552
415.676
420.408
422.239
420.584
416
409.499
401.93
393.362
381.136
366.231
353.099
343.271
335.093
331.921
332.992
336.065
268.816
260.795
257.417
257.833
260.937
265.727
271.517
277.945
283.937
288.088
289.291
287.122
282.312
276.315
270.47
264.902
258.394
250.691
241.827
231.609
220.296
208.664
199.519
131.833
122.004
118.063
118.097
121.08
126.194
133.444
141.784
149.624
155.392
158.513
158.678
156.06
152.297
147.782
142.046
134.657
125.532
115.003
104.023
93.226
81.5743
64.3431
30.314
25.8903
24.7585
25.0587
26.6792
29.5369
34.2626
39.3882
43.2851
45.386
47.346
49.3338
49.396
49.139
48.3639
46.1359
42.5452
37.9612
32.6093
28.0453
23.6066
20.3122
13.8309
5.37997
5.20166
5.39441
5.37477
5.32002
5.25154
5.23843
5.44098
5.5416
6.25602
7.93116
8.98584
9.53076
10.3697
10.8844
10.2489
8.87655
7.40155
5.85133
5.22214
5.03999
6.00775
9.13952
5.10933
5.07237
5.08473
5.07997
5.07995
5.08417
5.08282
5.06219
5.01707
4.92836
4.82013
4.74881
4.73799
4.77287
4.83393
4.90099
5.02019
5.39873
5.83237
5.93507
5.94815
6.17961
6.94034
4.98279
4.97059
4.97991
4.97446
4.96674
4.95903
4.95394
4.95283
4.9626
4.9851
5.01285
5.04569
5.08293
5.12376
5.16843
5.21868
5.28449
5.39638
5.54587
5.67667
5.81096
6.11371
6.59584
4.84071
4.83806
4.84316
4.84101
4.83564
4.8287
4.82229
4.81775
4.81349
4.81762
4.82769
4.84691
4.87737
4.91852
4.96963
5.03276
5.11403
5.22199
5.34818
5.48481
5.64208
5.87696
6.17298
4.69474
4.69591
4.69927
4.6994
4.69748
4.6946
4.69201
4.69111
4.69276
4.69724
4.70666
4.72406
4.75138
4.78871
4.83638
4.89622
4.97178
5.06735
5.17858
5.29458
5.41827
5.55496
5.67924
4.54957
4.55254
4.55586
4.55742
4.5577
4.55758
4.55806
4.56022
4.56511
4.57347
4.58664
4.60639
4.63397
4.66943
4.71328
4.76695
4.83213
4.9099
4.99615
5.0812
5.15712
5.21113
5.21453
4.40465
4.40829
4.41185
4.41432
4.41602
4.41765
4.42006
4.42414
4.43081
4.44099
4.45568
4.47594
4.50259
4.53539
4.57468
4.62156
4.67624
4.73679
4.79778
4.85005
4.88178
4.87507
4.80307
4.25946
4.26307
4.26667
4.26967
4.27226
4.27503
4.27865
4.28386
4.29141
4.30208
4.31658
4.33573
4.36005
4.38919
4.42316
4.46236
4.50552
4.54941
4.58796
4.61195
4.60899
4.56194
4.4494
4.11392
4.11716
4.12061
4.12379
4.12684
4.13023
4.13448
4.14015
4.14787
4.15823
4.17176
4.18896
4.21013
4.23493
4.26281
4.29332
4.32479
4.35351
4.37328
4.37519
4.34783
4.2769
4.14699
3.96809
3.97082
3.97394
3.97705
3.98021
3.98378
3.98815
3.99376
4.00105
4.01047
4.02239
4.03707
4.05458
4.0745
4.09593
4.11793
4.13861
4.15429
4.15908
4.14491
4.10198
4.01926
3.88656
3.82202
3.82419
3.82688
3.82971
3.83271
3.83612
3.84024
3.84537
3.85182
3.85987
3.86976
3.88156
3.89515
3.91007
3.9253
3.9395
3.95076
3.95566
3.949
3.92379
3.87206
3.78605
3.65977
3.67575
3.67737
3.67956
3.68197
3.68461
3.68764
3.69124
3.69561
3.70094
3.70739
3.71506
3.72388
3.73362
3.74373
3.75324
3.76066
3.76402
3.76035
3.74527
3.7132
3.6582
3.57467
3.45847
3.52933
3.53043
3.53207
3.534
3.53616
3.53864
3.54155
3.545
3.54908
3.55385
3.55928
3.56524
3.57139
3.57714
3.58157
3.58326
3.58034
3.57026
3.54958
3.51407
3.45922
3.38052
3.27486
3.3828
3.38342
3.38453
3.38592
3.38753
3.38938
3.39152
3.39398
3.39677
3.39987
3.40318
3.40651
3.40947
3.41147
3.41162
3.40868
3.401
3.38647
3.36237
3.32544
3.27217
3.19929
3.10443
3.23619
3.23639
3.23699
3.23785
3.23888
3.24007
3.24141
3.24287
3.24441
3.24595
3.24734
3.24834
3.24856
3.24743
3.24416
3.23764
3.22648
3.20894
3.18289
3.14582
3.0951
3.0284
2.94398
3.08959
3.0894
3.08954
3.08988
3.09035
3.09089
3.09145
3.09196
3.09234
3.09248
3.09218
3.09118
3.08912
3.08546
3.07951
3.07032
3.05673
3.03731
3.01039
2.97408
2.92644
2.86587
2.79108
2.94304
2.94252
2.94224
2.94211
2.94205
2.94197
2.9418
2.94145
2.9408
2.9397
2.93796
2.93532
2.93141
2.92577
2.91779
2.90669
2.8915
2.87108
2.84411
2.80917
2.76486
2.71009
2.64394
2.7966
2.7958
2.79516
2.79461
2.79407
2.79344
2.79261
2.79149
2.78994
2.78781
2.78489
2.78092
2.77558
2.76844
2.759
2.7466
2.73047
2.7097
2.68326
2.65008
2.60915
2.55975
2.50123
2.65033
2.6493
2.64836
2.64745
2.64649
2.64537
2.64397
2.6422
2.6399
2.63692
2.63306
2.62807
2.62165
2.61344
2.60301
2.58983
2.57328
2.55264
2.52713
2.49593
2.45831
2.41382
2.36199
2.50428
2.50308
2.5019
2.50068
2.49937
2.49783
2.49597
2.49365
2.49075
2.4871
2.48252
2.47678
2.4696
2.46068
2.44966
2.43611
2.41953
2.39938
2.37505
2.34593
2.3115
2.27147
2.22551
2.3585
2.35717
2.35581
2.35435
2.35275
2.35088
2.34864
2.3459
2.34253
2.33839
2.33329
2.32702
2.31937
2.31004
2.29875
2.28515
2.26885
2.24944
2.22645
2.19944
2.16804
2.13205
2.09124
2.21303
2.21163
2.21013
2.20849
2.20667
2.20455
2.20201
2.19896
2.19526
2.19077
2.18533
2.17876
2.17084
2.16136
2.15006
2.13667
2.12089
2.1024
2.08085
2.05593
2.02736
1.99503
1.95877
2.06792
2.06648
2.06489
2.06313
2.06115
2.05884
2.05611
2.05284
2.04893
2.04423
2.03861
2.0319
2.02392
2.01449
2.0034
1.99042
1.97533
1.95787
1.93782
1.91492
1.889
1.86
1.82776
1.92317
1.92173
1.9201
1.91826
1.91619
1.91377
1.91092
1.90753
1.90351
1.89873
1.89306
1.88637
1.87849
1.86927
1.85855
1.84614
1.83186
1.81554
1.79699
1.77605
1.75261
1.72662
1.69799
1.77881
1.7774
1.77578
1.77391
1.77179
1.76932
1.76642
1.763
1.75897
1.75422
1.74862
1.74207
1.73442
1.72556
1.71533
1.7036
1.69023
1.67509
1.65805
1.639
1.61787
1.59463
1.56923
1.63485
1.6335
1.63191
1.63005
1.62793
1.62547
1.6226
1.61922
1.61526
1.61063
1.60521
1.5989
1.5916
1.58319
1.57356
1.5626
1.55021
1.53628
1.52074
1.5035
1.48452
1.46381
1.44132
1.49129
1.49002
1.48848
1.48668
1.4846
1.4822
1.47941
1.47614
1.47233
1.4679
1.46274
1.45677
1.4499
1.44204
1.43309
1.42297
1.41159
1.39889
1.38481
1.36931
1.35236
1.33397
1.31413
1.34811
1.34694
1.34548
1.34376
1.34177
1.33947
1.33681
1.33372
1.33012
1.32596
1.32113
1.31558
1.30921
1.30196
1.29376
1.28452
1.2742
1.26274
1.25009
1.23625
1.2212
1.20497
1.18754
1.20531
1.20425
1.20288
1.20126
1.19939
1.19724
1.19476
1.19189
1.18857
1.18473
1.1803
1.17523
1.16943
1.16285
1.15543
1.14712
1.13787
1.12765
1.11641
1.10416
1.09091
1.07668
1.06147
1.06287
1.0619
1.06064
1.05914
1.05742
1.05546
1.0532
1.0506
1.0476
1.04414
1.04017
1.03562
1.03044
1.02458
1.01799
1.01063
1.00247
0.993467
0.983617
0.972911
0.961368
0.949005
0.935844
0.920742
0.919858
0.918713
0.917355
0.915816
0.91407
0.912075
0.909786
0.907152
0.904121
0.900641
0.896664
0.892144
0.887039
0.881311
0.874925
0.867854
0.860077
0.851582
0.84237
0.832459
0.821866
0.810607
0.778895
0.778058
0.777033
0.775843
0.774515
0.773021
0.771324
0.769381
0.767148
0.76458
0.761633
0.758267
0.754443
0.750126
0.745284
0.739891
0.733922
0.727362
0.7202
0.71244
0.704095
0.695182
0.685706
0.637272
0.636418
0.63553
0.634542
0.633458
0.632248
0.630878
0.62931
0.627507
0.625432
0.623048
0.620323
0.617224
0.613721
0.60979
0.605404
0.600546
0.595199
0.589356
0.583016
0.576187
0.568877
0.561092
0.495793
0.49483
0.49413
0.493395
0.492589
0.491686
0.490662
0.489488
0.488136
0.486574
0.484777
0.482715
0.480363
0.477697
0.474692
0.471328
0.467587
0.463454
0.45892
0.45398
0.448634
0.44288
0.436716
0.354376
0.353208
0.352784
0.352354
0.351852
0.351275
0.350618
0.349863
0.348989
0.347974
0.346797
0.345437
0.343871
0.342077
0.340033
0.337719
0.335116
0.33221
0.328988
0.32544
0.321557
0.317316
0.312675
0.212964
0.211589
0.211489
0.211377
0.211197
0.210986
0.210754
0.21049
0.210179
0.209805
0.209354
0.208806
0.20814
0.207331
0.206354
0.205183
0.203794
0.202168
0.200287
0.198134
0.195688
0.192901
0.189616
0.0715116
0.0703801
0.0703899
0.070445
0.0705253
0.0706468
0.0708095
0.0710028
0.0712178
0.0714472
0.0716817
0.0719073
0.072104
0.0722462
0.0723049
0.0722505
0.0720555
0.071697
0.0711575
0.0704209
0.0694614
0.0682438
0.0668324
823.248
847.612
885.944
837.819
339.551
345.082
342.511
332.415
204.817
213.117
220.495
219.715
58.489
73.3385
93.4499
97.1996
5.79844
5.98351
12.4743
22.1095
9.56481
9.69289
10.07
10.5025
7.92377
8.57937
9.18735
9.39279
7.1281
7.436
7.68358
7.73704
6.38419
6.47002
6.49767
6.43557
5.72217
5.70766
5.6496
5.54654
5.15607
5.08374
4.97745
4.84745
4.68555
4.58033
4.44703
4.29482
4.30744
4.19323
4.05845
3.90877
4.00062
3.88921
3.7631
3.62658
3.7465
3.64292
3.52885
3.40749
3.53091
3.43675
3.33467
3.22725
3.34139
3.25655
3.16608
3.07166
3.16984
3.09429
3.01485
2.93243
3.01121
2.9445
2.8752
2.80364
2.86179
2.80319
2.74293
2.68103
2.71889
2.66758
2.61532
2.56186
2.58066
2.53583
2.49049
2.44435
2.44581
2.40667
2.36733
2.32745
2.31345
2.27929
2.24509
2.21057
2.18299
2.15318
2.12341
2.09345
2.05401
2.02801
2.00203
1.97596
1.92618
1.90351
1.88082
1.85809
1.79926
1.7795
1.75967
1.73982
1.67308
1.65587
1.63854
1.62119
1.5475
1.53253
1.51739
1.50223
1.42239
1.40939
1.39619
1.38296
1.29766
1.2864
1.27492
1.2634
1.17326
1.16352
1.15358
1.1436
1.04914
1.04075
1.03218
1.02358
0.925255
0.918078
0.910742
0.903389
0.801591
0.795496
0.789271
0.783041
0.67813
0.673014
0.667796
0.662581
0.554861
0.550641
0.54633
0.542012
0.431762
0.428378
0.424891
0.421365
0.308839
0.306221
0.303498
0.300692
0.186468
0.184406
0.182354
0.180265
0.0658262
0.0647445
0.063244
0.0614407
345.916
545.083
590.819
621.34
645.496
673.727
690.837
698.519
702.919
706.353
710.229
716.93
733.225
761.761
800.095
849.172
890.675
880.476
1762.66
320.259
409.936
462.939
530.416
578.031
609.585
627.37
635.183
639.376
640.766
641.786
645.505
656.33
675.291
700.876
735.596
794.305
700.841
1146.75
214.834
260.719
332.701
420.275
508.927
555.099
565.894
569.339
574.44
578.569
582.136
587.017
596.368
611.28
629.769
649.465
714.92
603.825
881.7
74.7571
103.893
176.786
302.403
413.505
464.129
485.467
499.963
511.341
519.847
526.474
533.027
541.855
554.761
570.151
579.38
640.595
534.753
754.438
30.577
47.1951
99.1866
195.104
308.211
369.757
406.027
434.484
453.24
466.154
475.928
484.562
493.833
505.781
519.635
531.854
578.672
486.794
666.998
12.5277
26.0676
57.1781
131.897
234.761
302.41
346.441
378.166
400.525
416.831
429.592
440.618
451.33
463.134
475.93
489.743
521.983
453.871
605.468
9.33669
14.8222
30.6404
102.543
200.707
256.652
295.64
327.003
351.395
370.449
385.989
399.561
412.341
425.121
438.328
451.093
465.24
420.807
420.704
7.39167
7.46476
13.8961
68.0695
158.268
210.011
246.495
277.949
304.059
325.487
343.604
359.752
375.009
390.067
405.336
419.895
429.815
411.427
410.362
6.09407
5.26248
7.55631
32.6011
107.123
161.092
197.938
229.847
257.307
280.704
301.118
319.702
337.476
355.176
373.239
391.568
406.011
405.721
405.22
5.30868
4.79689
4.81023
9.91545
59.3113
112.513
150.026
182.121
210.394
235.246
257.546
278.237
298.238
318.375
339.332
361.356
382.044
392.115
384.388
4.63898
4.25323
2.97593
2.6671
24.2934
66.5743
102.63
134.199
162.834
188.607
212.244
234.509
256.212
278.23
301.618
327.765
356.346
378.761
378.798
4.03293
3.58403
2.88383
2.66355
6.44957
27.6115
56.7347
85.6298
113.931
140.182
164.642
187.817
210.436
233.416
258.074
286.835
322.241
358.197
370.212
3.64993
3.2422
2.83019
2.65234
2.6497
8.41194
20.983
39.9295
64.1489
89.1439
113.747
137.119
159.757
182.513
206.761
235.363
273.219
317.119
334.171
3.39446
3.04443
2.73692
2.57291
2.53269
2.55606
7.26654
11.8016
22.4835
39.3178
60.2979
81.7069
102.854
123.89
145.766
170.55
204.182
250.546
274.154
3.2029
2.89671
2.63268
2.47387
2.4111
2.40905
2.4338
3.05439
7.02996
9.69866
17.7904
30.5429
45.2497
60.8512
77.0734
92.9769
112.809
161.885
197.829
3.04762
2.78105
2.54432
2.38107
2.28765
2.24431
2.23552
2.26183
1.62421
2.26673
5.86236
9.3398
12.0082
16.3521
22.016
25.4525
26.2645
80.2043
113.111
2.91483
2.68376
2.47107
2.30619
2.19197
2.11791
2.0596
2.03007
2.11166
2.1113
1.52006
1.26188
1.71518
2.38855
3.17977
3.40689
7.27921
25.125
42.7324
2.79635
2.59659
2.40645
2.24781
2.12647
2.03866
1.97522
1.92394
1.94952
1.94865
1.96239
2.0331
2.06998
2.05997
2.23505
2.60049
4.48334
7.06524
7.55797
2.6862
2.5141
2.34545
2.19784
2.07797
1.98625
1.91639
1.86289
1.8409
1.82176
1.84483
1.90032
1.97914
2.06576
2.16922
2.28787
2.97603
4.1158
5.70011
2.58015
2.43233
2.28387
2.14938
2.0352
1.94326
1.872
1.8165
1.7793
1.75552
1.74656
1.76924
1.80525
1.85448
1.89744
1.91519
2.22571
2.98016
-4.42265
2.47539
2.34869
2.21882
2.0981
1.99211
1.90331
1.83209
1.77654
1.73605
1.70569
1.68526
1.67992
1.6858
1.68882
1.68982
1.69287
1.54727
1.70454
-0.88232
2.37027
2.26173
2.14865
2.04144
1.94483
1.86136
1.79209
1.73681
1.69388
1.66041
1.6343
1.61579
1.59904
1.5802
1.57249
1.57296
1.16757
1.40026
1.6238
2.26389
2.17083
2.07266
1.97813
1.8912
1.81418
1.74833
1.69384
1.64985
1.61413
1.584
1.55776
1.53165
1.50793
1.49895
1.46018
1.10727
1.18674
1.86027
2.15588
2.07591
1.99081
1.90789
1.83036
1.76027
1.69887
1.64654
1.60273
1.56558
1.53322
1.50316
1.47347
1.44771
1.43491
1.365
1.31257
1.39243
1.55341
2.04619
1.97724
1.90351
1.83101
1.76234
1.69923
1.64287
1.59371
1.55134
1.51456
1.48188
1.45134
1.42174
1.39468
1.36961
1.29593
1.30741
1.46063
1.51759
1.93494
1.87527
1.81136
1.74812
1.6876
1.63128
1.58026
1.53501
1.49535
1.46049
1.42937
1.40107
1.3744
1.34913
1.31922
1.26021
1.26809
1.41271
1.47291
1.8223
1.77047
1.71505
1.65996
1.60685
1.55698
1.51135
1.47048
1.4344
1.40268
1.37479
1.35049
1.3293
1.31086
1.29282
1.26912
1.28053
1.36508
1.43098
1.70849
1.66332
1.61524
1.56731
1.52087
1.47701
1.43663
1.40033
1.36829
1.34042
1.31655
1.29681
1.2814
1.27009
1.26262
1.25918
1.27587
1.32934
1.39481
1.59368
1.55425
1.51252
1.47088
1.43041
1.39206
1.35668
1.32489
1.29702
1.2732
1.2535
1.2382
1.22775
1.22212
1.2214
1.22682
1.2469
1.29033
1.35576
1.47804
1.44359
1.40742
1.37129
1.33615
1.30281
1.27208
1.24458
1.22075
1.20086
1.18513
1.17382
1.16741
1.16606
1.16982
1.17986
1.20165
1.24238
1.3074
1.36171
1.33165
1.30034
1.2691
1.23871
1.2099
1.18342
1.1599
1.13982
1.12354
1.11134
1.10347
1.10031
1.1021
1.10889
1.12162
1.14421
1.18346
1.24649
1.24479
1.21864
1.19164
1.16474
1.13859
1.11388
1.09126
1.07135
1.05465
1.04158
1.0324
1.02736
1.02671
1.03069
1.03938
1.05343
1.07591
1.11316
1.17213
1.12737
1.10475
1.08158
1.05856
1.03624
1.01522
0.996088
0.97943
0.965743
0.955428
0.948772
0.945953
0.947118
0.952424
0.962009
0.976328
0.997741
1.03198
1.08509
1.00954
0.990096
0.970362
0.950833
0.931984
0.914317
0.89835
0.884604
0.873553
0.865584
0.860959
0.859811
0.862145
0.86804
0.877666
0.89129
0.910753
0.941034
0.987004
0.891341
0.874775
0.858122
0.841763
0.826093
0.811505
0.798417
0.787279
0.778528
0.772523
0.769497
0.769529
0.772475
0.77834
0.787275
0.799411
0.816177
0.841784
0.879864
0.77282
0.75884
0.744943
0.731475
0.718759
0.707038
0.696596
0.687804
0.681055
0.676685
0.674897
0.675684
0.678763
0.684123
0.691793
0.701776
0.715276
0.735816
0.765862
0.654009
0.642317
0.630849
0.620023
0.610111
0.601119
0.59314
0.586469
0.581464
0.578448
0.577594
0.578678
0.581528
0.586097
0.592092
0.599444
0.609311
0.624688
0.647381
0.534898
0.525181
0.515802
0.507425
0.500241
0.493913
0.48825
0.483485
0.479959
0.477975
0.477596
0.478717
0.481217
0.484734
0.488813
0.493333
0.499538
0.509919
0.526643
0.415501
0.407387
0.399622
0.393553
0.389176
0.385549
0.382009
0.378837
0.376416
0.37507
0.374912
0.375879
0.377723
0.379982
0.382142
0.384104
0.387102
0.392744
0.404939
0.295913
0.288719
0.281344
0.277855
0.276885
0.275985
0.274131
0.272142
0.270536
0.269577
0.269354
0.269815
0.270733
0.271657
0.272206
0.272358
0.272819
0.273365
0.282233
0.17643
0.168559
0.157874
0.157865
0.163804
0.164942
0.164334
0.163221
0.162212
0.161531
0.161189
0.161055
0.160964
0.160656
0.159995
0.159006
0.156973
0.14929
0.160035
0.0578846
0.0495463
0.0324511
0.0278445
0.04392
0.0510738
0.0530156
0.0532328
0.053024
0.0527275
0.0523543
0.0517794
0.0508319
0.0494125
0.0475051
0.0450653
0.040343
0.0171175
0.0478828
)
;

boundaryField
{
    leftWall
    {
        type            calculated;
        value           nonuniform List<scalar> 
50
(
3522.74
2720.98
1914.89
1179.36
824.3
754.298
692.287
630.53
534.52
402.559
268.816
131.833
30.314
5.37997
5.10933
4.98279
4.84071
4.69474
4.54957
4.40465
4.25946
4.11392
3.96809
3.82202
3.67575
3.52933
3.3828
3.23619
3.08959
2.94304
2.7966
2.65033
2.50428
2.3585
2.21303
2.06792
1.92317
1.77881
1.63485
1.49129
1.34811
1.20531
1.06287
0.920742
0.778895
0.637272
0.495793
0.354376
0.212964
0.0715116
)
;
    }
    rightWall
    {
        type            calculated;
        value           nonuniform List<scalar> 
50
(
3613.04
3402.26
3377.01
3429.6
3533.26
3388.66
2985.06
2480.56
1762.66
1146.75
881.7
754.438
666.998
605.468
420.704
410.362
405.22
384.388
378.798
370.212
334.171
274.154
197.829
113.111
42.7324
7.55797
5.70011
-4.42265
-0.88232
1.6238
1.86027
1.55341
1.51759
1.47291
1.43098
1.39481
1.35576
1.3074
1.24649
1.17213
1.08509
0.987004
0.879864
0.765862
0.647381
0.526643
0.404939
0.282233
0.160035
0.0478828
)
;
    }
    lowerWall
    {
        type            calculated;
        value           nonuniform List<scalar> 
62
(
3920.89
3950.35
4019.17
4118.37
4249.45
4422.98
4633.91
4879.83
5153.23
5441.13
5730.09
6009.02
6270.99
6512.7
6732.42
6931.38
7112.28
7272
7406.17
7502.12
7544.87
7528.07
7452.3
7054.37
6224.67
5394.02
4555.64
3711.09
2865.08
2020.46
1261.22
1100.24
1141.34
1305.22
1259.7
1838.53
1793.02
1747.54
1722.63
1661.86
1326.74
543.992
92.3329
1852.1
1839.32
2054
2295.99
2761.71
3385.25
3283.83
2974.87
2804.26
2764.72
2795.58
2793.71
2747.96
2763.24
2800.03
2814.04
2893.2
3097.92
3695.15
)
;
    }
    atmosphere
    {
        type            calculated;
        value           nonuniform List<scalar> 
46
(
0
0
0
0
0
0
0
0
0
0
0
0
0
0
0
0
0
0
0
0
0
0
0
0
0
0
0
0
0
0
-8.62961e-08
-5.62457e-05
-0.000173991
-0.000325195
-0.000508382
-0.000731528
-0.00102896
-0.0014691
-0.00217337
-0.00332034
-0.00509418
-0.00759635
-0.0108295
-0.0148699
-0.0218604
-0.0157332
)
;
    }
    defaultFaces
    {
        type            empty;
    }
}


// ************************************************************************* //
