/*--------------------------------*- C++ -*----------------------------------*\
  =========                 |
  \\      /  F ield         | OpenFOAM: The Open Source CFD Toolbox
   \\    /   O peration     | Website:  https://openfoam.org
    \\  /    A nd           | Version:  13
     \\/     M anipulation  |
\*---------------------------------------------------------------------------*/
FoamFile
{
    format      ascii;
    class       volScalarField;
    location    "0.7";
    object      p_rgh;
}
// * * * * * * * * * * * * * * * * * * * * * * * * * * * * * * * * * * * * * //

dimensions      [1 -1 -2 0 0 0 0];

internalField   nonuniform List<scalar> 
2268
(
3920.89
3950.35
4019.17
4118.37
4249.45
4422.98
4633.91
4879.83
5153.23
5441.13
5730.09
6009.02
6270.99
6512.7
6732.42
6931.38
7112.28
7272
7406.17
7502.12
7544.87
7528.07
7452.3
3915.43
3936.91
4006.71
4105.16
4246.27
4424.8
4642.27
4895.31
5175.43
5468.48
5760.25
6039.34
6299.08
6536.68
6750.28
6940.78
7109.26
7255.62
7374.77
7458.83
7498.71
7486.06
7418.47
3905.64
3935.75
3997.73
4100.74
4238.04
4422.23
4647.98
4910.16
5198.89
5497.76
5792.22
6071.01
6327.89
6560.6
6766.55
6946.68
7102.61
7234.78
7340.52
7416.22
7456.19
7447.18
7384.45
3379.57
3410.59
3539.58
3769.81
4051.48
4361.51
4628.9
4905.81
5211.74
5521.34
5821.14
6100.57
6355.11
6583.78
6782.3
6952.29
7096.91
7217.45
7312.94
7382.23
7419.65
7405.78
7342.69
1163.86
1274.69
1394.36
1597.41
1941.39
2500.72
3384.14
4353.1
5135.66
5522.63
5842.26
6127.36
6381.32
6607.29
6798.93
6959.16
7093.66
7204.27
7290.12
7350.91
7379.38
7353.53
7294.43
1078.02
1077.07
1076.67
1079.76
1086.64
1099.18
1191.44
1642.93
2799.4
4614.87
5777.29
6146.61
6409.31
6634.92
6818.88
6968.12
7092.06
7192.51
7266.89
7315.14
7328.41
7290.28
7244.65
1074.87
1073.17
1073.04
1075.1
1079.72
1087.08
1095.69
1105.38
1116.8
1447.3
2981.31
5251.46
6409.01
6676.59
6851.82
6988.18
7101.07
7191.05
7251.31
7282.55
7274.6
7228.86
7196.27
1071.97
1069.36
1069.17
1071.15
1075.53
1082.24
1089.59
1095.72
1099.68
1100.54
1098.18
1483.01
3160.53
5500.11
6718.95
6939.6
6964.8
7082.87
7155.62
7124.66
6874.76
6467.17
5957.26
1852.1
1839.32
2054
2295.99
2761.71
3385.25
3283.83
2974.87
2804.26
2764.72
2795.58
2793.71
2747.96
2763.24
2800.03
2814.04
2893.2
3097.92
3695.15
1833.86
1812.82
1997.11
2227.67
2884.39
3531.23
3365.87
3187.08
3119.91
3129.35
3187.25
3261.67
2988.04
2767.84
2803.75
2814.33
2813.15
2925.72
3648.52
1810.13
1838.65
2084.87
2662.98
3249.1
3031.9
2883.95
2800.74
2791.59
2842.03
3003.13
3291.76
3444.29
2950.89
2786.84
2830.37
2966.11
3224.94
3787.89
1821.68
1934.78
2891.35
2938.33
2367.77
1606.25
1354.71
1284.54
1282.53
1298.39
1381.62
2307.26
3205.26
3643.7
3561.89
3788.67
4419.1
4708.24
4536.58
1793.58
2915.51
2969.15
2751.1
1659.61
1267.01
1249.11
1234.36
1226.16
1225.17
1226.56
1233.5
1717.99
3056.64
4054.63
4620.08
4918.11
5086.29
5145.49
3228.76
3183.18
2510.47
1290.1
1224.5
1249.02
1236.7
1223.68
1216.51
1217.15
1220.31
1226.39
1264.45
1550.89
2303.32
2924.3
4247.77
5354.57
6278.44
3113.13
3055.07
1182.07
1179.02
1202.73
1225.42
1218.03
1208.49
1203.83
1207.6
1215.91
1225.62
1257.53
1308.73
1373.39
1476.54
2044.95
5265
6582.85
2396.97
1097.08
1128.83
1163.74
1187.02
1207.57
1206.1
1193.67
1170.79
1160.07
1176.67
1208.44
1252.41
1295.31
1348.58
1420.6
1475.21
4271.34
6641.51
1067.99
1063.66
1062.61
1064.21
1068.17
1074.15
1080.95
1086.66
1089.62
1088.31
1084.34
1080.19
1074.23
1225.83
1741.03
2572.75
3422.24
3903.68
4005.59
3858.52
3318.94
2794.07
2323.07
1061.22
1054.96
1052.71
1053.65
1056.96
1062.06
1068.21
1074.34
1079.07
1080.9
1079.25
1074.66
1068.16
1060.59
1052.02
1039.8
1024.89
1011.76
1001.93
993.754
990.582
991.654
994.726
1052.67
1044.65
1041.27
1041.69
1044.79
1049.58
1055.37
1061.8
1067.79
1071.94
1073.15
1070.98
1066.17
1060.17
1054.33
1048.76
1042.25
1034.55
1025.68
1015.47
1004.15
992.52
983.373
1021.02
986.187
970.611
980.817
1007.96
1035.25
1042.49
1050.83
1058.67
1064.44
1067.56
1067.73
1065.11
1061.35
1056.83
1051.1
1043.71
1034.58
1024.05
1012.57
985.362
917.337
778.438
433.461
346.951
306.018
310.885
347.116
414.776
534.956
681.12
827.917
934.593
996.679
1027.03
1032.85
1027.6
1020.62
996.2
944.963
863.274
758.665
602.98
418.89
233.436
74.8676
6.53952
6.36115
6.55388
6.53423
6.47946
6.41098
8.60986
18.0157
26.9102
55.3557
122.23
184.209
222.376
257.004
267.293
229.48
161.376
85.8707
21.0051
6.38846
6.2148
7.18738
10.3405
6.394
6.35701
6.36937
6.3646
6.36458
6.3688
6.36748
6.34684
6.30172
6.21299
6.10476
6.03344
6.02262
6.05751
6.11863
6.18602
6.30645
6.68493
7.11946
7.22559
7.23279
7.46433
8.22582
6.39264
6.38042
6.38974
6.38429
6.37657
6.36886
6.36377
6.36266
6.37243
6.39493
6.42268
6.45552
6.49275
6.53359
6.57826
6.62856
6.69433
6.80621
6.95571
7.08653
7.2208
7.52361
8.0059
6.37574
6.37308
6.37819
6.37603
6.37066
6.36372
6.35731
6.35277
6.34851
6.35264
6.36271
6.38193
6.4124
6.45354
6.50465
6.56778
6.64906
6.75702
6.88321
7.01984
7.17712
7.41205
7.70817
6.35496
6.35613
6.35948
6.35962
6.3577
6.35482
6.35222
6.35133
6.35298
6.35745
6.36688
6.38427
6.4116
6.44893
6.4966
6.55646
6.63202
6.72758
6.83881
6.9548
7.0785
7.21522
7.34008
6.33498
6.33795
6.34127
6.34283
6.34312
6.34299
6.34347
6.34563
6.35052
6.35888
6.37205
6.3918
6.41939
6.45484
6.49869
6.55237
6.61756
6.69533
6.78157
6.86662
6.94254
6.99659
7.00011
6.31525
6.3189
6.32245
6.32493
6.32662
6.32826
6.33066
6.33474
6.34142
6.3516
6.36629
6.38654
6.41319
6.446
6.48528
6.53217
6.58685
6.6474
6.70839
6.76066
6.79239
6.78568
6.71381
6.29526
6.29887
6.30247
6.30547
6.30806
6.31083
6.31445
6.31966
6.32722
6.33788
6.35239
6.37154
6.39585
6.42499
6.45896
6.49816
6.54132
6.58521
6.62376
6.64776
6.6448
6.59774
6.48525
6.27491
6.27815
6.2816
6.28478
6.28784
6.29122
6.29547
6.30115
6.30887
6.31922
6.33276
6.34995
6.37113
6.39593
6.4238
6.45431
6.48578
6.51451
6.53427
6.53619
6.50882
6.4379
6.308
6.25428
6.25701
6.26013
6.26324
6.2664
6.26997
6.27434
6.27995
6.28724
6.29666
6.30858
6.32326
6.34077
6.36069
6.38212
6.40412
6.4248
6.44048
6.44527
6.4311
6.38818
6.30545
6.17276
6.2334
6.23558
6.23827
6.2411
6.24409
6.24751
6.25163
6.25676
6.2632
6.27126
6.28114
6.29294
6.30653
6.32145
6.33669
6.35088
6.36214
6.36705
6.36038
6.33517
6.28344
6.19744
6.07115
6.21233
6.21395
6.21614
6.21855
6.22119
6.22422
6.22782
6.23219
6.23752
6.24397
6.25164
6.26046
6.2702
6.28031
6.28982
6.29724
6.3006
6.29693
6.28185
6.24978
6.19478
6.11125
5.99505
6.19111
6.1922
6.19385
6.19577
6.19793
6.20042
6.20333
6.20678
6.21086
6.21562
6.22105
6.22701
6.23316
6.23892
6.24334
6.24503
6.24211
6.23204
6.21135
6.17584
6.12099
6.04229
5.93664
6.16977
6.17038
6.1715
6.17289
6.1745
6.17635
6.17849
6.18094
6.18373
6.18684
6.19015
6.19348
6.19644
6.19844
6.19859
6.19565
6.18797
6.17343
6.14934
6.11241
6.05914
5.98625
5.8914
6.14836
6.14855
6.14916
6.15001
6.15104
6.15224
6.15357
6.15503
6.15658
6.15812
6.15951
6.1605
6.16072
6.1596
6.15632
6.14981
6.13865
6.12111
6.09505
6.05798
6.00726
5.94056
5.85614
6.12695
6.12675
6.1269
6.12724
6.12771
6.12825
6.12881
6.12932
6.1297
6.12983
6.12953
6.12854
6.12648
6.12282
6.11687
6.10768
6.09409
6.07467
6.04775
6.01144
5.9638
5.90323
5.82844
6.10559
6.10507
6.10479
6.10466
6.1046
6.10453
6.10436
6.104
6.10335
6.10225
6.10052
6.09787
6.09396
6.08832
6.08034
6.06924
6.05405
6.03363
6.00666
5.97172
5.92741
5.87264
5.80649
6.08435
6.08354
6.08291
6.08236
6.08182
6.08118
6.08036
6.07924
6.07769
6.07556
6.07264
6.06867
6.06332
6.05619
6.04674
6.03435
6.01822
5.99745
5.97101
5.93783
5.8969
5.8475
5.78898
6.06327
6.06224
6.06131
6.06039
6.05943
6.05831
6.05692
6.05514
6.05284
6.04986
6.046
6.04101
6.03459
6.02638
6.01595
6.00277
5.98622
5.96558
5.94007
5.90887
5.87125
5.82676
5.77493
6.04241
6.04121
6.04003
6.03882
6.0375
6.03597
6.0341
6.03179
6.02889
6.02524
6.02066
6.01491
6.00774
5.99882
5.9878
5.97424
5.95767
5.93751
5.91318
5.88407
5.84964
5.80961
5.76364
6.02183
6.0205
6.01914
6.01768
6.01608
6.01421
6.01197
6.00923
6.00586
6.00172
5.99662
5.99035
5.9827
5.97337
5.96208
5.94848
5.93218
5.91277
5.88978
5.86277
5.83137
5.79538
5.75457
6.00156
6.00015
5.99866
5.99702
5.99519
5.99307
5.99054
5.98749
5.98379
5.9793
5.97385
5.96728
5.95937
5.94989
5.93859
5.9252
5.90942
5.89092
5.86937
5.84445
5.81588
5.78355
5.74729
5.98164
5.98019
5.97861
5.97685
5.97487
5.97256
5.96983
5.96656
5.96265
5.95795
5.95233
5.94562
5.93764
5.92821
5.91712
5.90414
5.88905
5.87159
5.85154
5.82864
5.80272
5.77372
5.74148
5.96208
5.96064
5.95902
5.95718
5.9551
5.95268
5.94983
5.94645
5.94242
5.93764
5.93198
5.92528
5.91741
5.90819
5.89746
5.88505
5.87077
5.85445
5.8359
5.81497
5.79152
5.76553
5.7369
5.94292
5.94151
5.93988
5.93802
5.93589
5.93343
5.93053
5.92711
5.92308
5.91832
5.91273
5.90618
5.89853
5.88967
5.87944
5.86771
5.85434
5.8392
5.82216
5.80311
5.78198
5.75874
5.73334
5.92415
5.9228
5.92121
5.91935
5.91724
5.91478
5.9119
5.90852
5.90457
5.89993
5.89451
5.8882
5.8809
5.87249
5.86287
5.85191
5.83951
5.82559
5.81004
5.7928
5.77383
5.75311
5.73063
5.90578
5.90452
5.90298
5.90117
5.8991
5.8967
5.8939
5.89064
5.88683
5.88239
5.87724
5.87127
5.8644
5.85653
5.84759
5.83747
5.82609
5.81339
5.79931
5.78381
5.76686
5.74847
5.72863
5.8878
5.88663
5.88518
5.88345
5.88146
5.87917
5.8765
5.87341
5.86982
5.86565
5.86082
5.85527
5.84891
5.84166
5.83345
5.82422
5.8139
5.80243
5.78979
5.77594
5.7609
5.74466
5.72724
5.8702
5.86913
5.86777
5.86614
5.86428
5.86213
5.85965
5.85678
5.85346
5.84962
5.84519
5.84011
5.83432
5.82774
5.82032
5.81201
5.80276
5.79253
5.7813
5.76905
5.7558
5.74157
5.72636
5.85295
5.85198
5.85072
5.84922
5.8475
5.84554
5.84328
5.84068
5.83768
5.83422
5.83025
5.8257
5.82052
5.81466
5.80807
5.80071
5.79255
5.78355
5.7737
5.76299
5.75145
5.73909
5.72592
5.83602
5.83513
5.83399
5.83263
5.83109
5.82935
5.82735
5.82506
5.82243
5.8194
5.81592
5.81194
5.80742
5.80231
5.79659
5.7902
5.78313
5.77535
5.76686
5.75765
5.74773
5.73714
5.72588
5.81937
5.81853
5.8175
5.81631
5.81498
5.81349
5.81179
5.80985
5.80762
5.80505
5.8021
5.79874
5.79491
5.7906
5.78575
5.78036
5.77439
5.76783
5.76067
5.75291
5.74457
5.73565
5.72618
5.80294
5.80208
5.80119
5.80021
5.79912
5.79791
5.79654
5.79497
5.79317
5.7911
5.78871
5.78599
5.78289
5.77939
5.77545
5.77107
5.76621
5.76086
5.75502
5.74868
5.74185
5.73454
5.72676
5.78665
5.78569
5.78499
5.78425
5.78345
5.78254
5.78152
5.78035
5.77899
5.77743
5.77564
5.77357
5.77122
5.76856
5.76555
5.76219
5.75845
5.75431
5.74978
5.74484
5.73949
5.73374
5.72757
5.77043
5.76926
5.76884
5.76841
5.76791
5.76733
5.76667
5.76592
5.76504
5.76403
5.76285
5.76149
5.75992
5.75813
5.75609
5.75377
5.75117
5.74826
5.74504
5.74149
5.73761
5.73337
5.72873
5.75421
5.75284
5.75274
5.75262
5.75245
5.75223
5.752
5.75174
5.75143
5.75105
5.7506
5.75005
5.74939
5.74858
5.7476
5.74643
5.74504
5.74342
5.74153
5.73938
5.73694
5.73415
5.73086
5.73795
5.73682
5.73683
5.73689
5.73697
5.73709
5.73725
5.73745
5.73766
5.73789
5.73812
5.73835
5.73855
5.73869
5.73875
5.73869
5.7385
5.73814
5.7376
5.73686
5.7359
5.73469
5.73328
3183.84
3350.8
4459.1
4433.2
998.212
1003.7
1000.54
989.047
988.666
995.113
992.638
963.829
647.493
556.653
467.24
335.477
6.89164
7.07677
13.5664
23.2398
10.7723
10.8633
11.246
12.0577
9.21092
9.86628
10.5528
11.0202
8.53813
8.86566
9.14789
9.16768
7.92481
8.02063
8.03723
7.97264
7.38706
7.37585
7.31851
7.21496
6.94527
6.87826
6.77221
6.64172
6.59697
6.49949
6.36707
6.21495
6.34343
6.23001
6.10118
5.95459
6.16167
6.05022
5.92448
5.79055
6.03271
5.92914
5.81506
5.6937
5.9423
5.84814
5.74608
5.63866
5.87797
5.79313
5.70267
5.60825
5.83161
5.75607
5.67663
5.59421
5.79818
5.73147
5.66217
5.59061
5.77395
5.71535
5.6551
5.59319
5.75625
5.70494
5.65267
5.59922
5.74321
5.69838
5.65304
5.6069
5.73356
5.69442
5.65507
5.61519
5.72639
5.69224
5.65803
5.62351
5.72113
5.69132
5.66154
5.63158
5.71734
5.69134
5.66536
5.63929
5.71471
5.69203
5.66934
5.64661
5.71298
5.69322
5.67339
5.65354
5.71199
5.69478
5.67745
5.6601
5.7116
5.69664
5.6815
5.66633
5.71169
5.69869
5.68549
5.67226
5.71216
5.7009
5.68941
5.6779
5.71295
5.70321
5.69327
5.68329
5.71402
5.70564
5.69707
5.68847
5.71534
5.70816
5.70082
5.69347
5.71687
5.71077
5.70455
5.69832
5.7186
5.71348
5.70827
5.70305
5.72053
5.71631
5.71199
5.70768
5.72262
5.71924
5.71575
5.71222
5.72489
5.72227
5.71955
5.71675
5.72772
5.72565
5.7236
5.72151
5.73227
5.73119
5.72969
5.72788
1263.93
1078.28
1124.38
1154.47
1156.97
1142.35
1100.72
1063.47
1025.01
1014.76
1029.8
1069.11
1111.1
1153.4
1201.31
1247.59
1188.93
1449.03
6801.49
976.647
1042.36
1008.55
1046.21
958.379
930.953
952.042
962.208
968.091
969.986
971.089
974.81
985.656
1004.62
1030.35
1065.55
1124.29
1052.19
6886.34
820.394
554.652
468.559
639.905
852.718
903.293
935.76
958.631
966.368
970.509
974.075
978.945
988.296
1003.21
1019.55
1043
1108.05
1041.8
4672.95
125.762
115.033
260.787
489.721
603.239
790.809
939.995
954.494
965.873
974.377
980.999
987.552
996.381
1009.29
1008.71
989.92
958.482
954.378
5473.53
32.4258
58.9232
113.401
266.491
722.424
886.88
923.15
951.607
970.363
983.277
993.051
1001.68
1010.96
1022.9
1029.66
1013.22
909.059
835.226
5867.61
15.0106
28.9923
91.6581
579.305
814.481
882.13
926.161
957.886
980.245
996.551
1009.31
1020.34
1031.05
1042.85
1055.65
1067.5
1043.83
759.539
4531.43
10.9871
16.1071
82.0062
635.527
843.024
898.969
937.957
969.321
993.712
1012.77
1028.31
1041.88
1054.66
1067.44
1080.65
1093.41
1107.89
911.535
621.839
8.80204
8.87481
38.8333
567.999
863.182
914.926
951.409
982.863
1008.97
1030.4
1048.52
1064.67
1079.92
1094.98
1110.25
1124.81
1134.73
915.4
501.824
7.62921
6.79764
10.4162
423.325
874.635
928.604
965.45
997.359
1024.82
1048.21
1068.63
1087.21
1104.99
1122.69
1140.75
1159.08
1173.55
937.215
486.302
6.97472
6.45772
6.47065
251.709
883.322
942.622
980.134
1012.23
1040.43
1065.24
1087.62
1108.35
1128.35
1148.48
1169.44
1191.44
1212.15
1170.34
961.464
6.4332
6.04454
4.76174
79.8978
695.955
959.28
995.336
1026.9
1055.42
1081.19
1104.82
1127.21
1148.92
1170.94
1194.32
1220.47
1249.05
1271.47
1271.5
5.95302
5.50405
4.79498
4.57416
270.646
915.942
1012.04
1040.93
1069.21
1095.38
1119.85
1143.12
1165.74
1188.72
1213.38
1242.14
1277.54
1313.5
1325.51
5.69578
5.2874
4.86632
4.68815
4.68551
365.471
950.674
1057.83
1082.05
1107.04
1131.65
1155.02
1177.66
1200.41
1224.66
1253.26
1291.12
1335.02
1352.07
5.56074
5.20811
4.89814
4.73396
4.69373
4.71716
260.057
849.727
1096.95
1119.82
1140.8
1162.2
1183.35
1204.39
1226.26
1251.05
1284.68
1331.04
1354.65
5.4891
5.18293
4.91898
4.76012
4.69736
4.69535
4.72031
52.3024
530.626
946.721
1127.82
1173.64
1188.34
1203.95
1220.17
1236.07
1255.9
1255.05
1115.37
5.45902
5.19246
4.95575
4.79249
4.6991
4.65583
4.64725
4.67377
4.03642
70.4033
422.838
730.185
892.217
951.318
979.002
947.742
748.004
565.826
846.424
5.45143
5.22036
5.00767
4.8428
4.72859
4.65461
4.59691
4.56854
4.6488
4.64824
4.05683
3.79903
29.4196
63.7261
74.9315
41.282
9.81895
151.43
1118.03
5.45814
5.25838
5.06824
4.90961
4.78828
4.70049
4.63714
4.59138
4.61815
4.61242
4.62454
4.69502
4.73204
4.72262
4.89795
5.26448
7.14749
122.757
1136.76
5.47317
5.30107
5.13243
4.98483
4.86496
4.77325
4.7034
4.65215
4.63752
4.61829
4.63341
4.68762
4.76668
4.85569
4.97366
5.09455
5.76617
79.9849
687.312
5.49231
5.34449
5.19604
5.06156
4.94738
4.85545
4.7842
4.7287
4.69529
4.6777
4.6662
4.68227
4.71793
4.77137
4.85822
4.87675
5.14091
143.567
15.9971
5.51275
5.38605
5.25618
5.13547
5.02948
4.94069
4.86949
4.81396
4.77348
4.74863
4.72998
4.71905
4.7234
4.72688
4.73699
4.76002
5.06991
225.487
20.1041
5.53282
5.42428
5.3112
5.20399
5.1074
5.02393
4.95467
4.89939
4.85651
4.82343
4.79791
4.77916
4.76177
4.7428
4.73506
4.73553
7.89644
230.035
26.1508
5.55163
5.45857
5.3604
5.26588
5.17895
5.10193
5.03609
4.9816
4.93764
4.90204
4.872
4.84574
4.81955
4.79572
4.78672
4.74794
18.7003
28.7883
15.8411
5.56882
5.48885
5.40375
5.32084
5.24331
5.17321
5.11182
5.05949
5.01569
4.97857
4.94625
4.91618
4.88648
4.8607
4.84788
4.77797
20.1909
4.81995
4.97594
5.58432
5.51538
5.44165
5.36915
5.30047
5.23736
5.18101
5.13185
5.08949
5.05271
5.02004
4.98951
4.9599
4.93285
4.90778
4.83409
13.4598
5.58138
5.06554
5.59827
5.5386
5.4747
5.41145
5.35093
5.29461
5.24359
5.19835
5.15869
5.12384
5.09272
5.06442
5.03776
5.0125
4.98258
4.92356
4.93144
5.21434
5.1469
5.61083
5.559
5.50358
5.44849
5.39538
5.34551
5.29987
5.25901
5.22293
5.19122
5.16333
5.13903
5.11785
5.09941
5.08138
5.05767
5.06908
5.15362
5.2236
5.62221
5.57704
5.52896
5.48103
5.43459
5.39073
5.35035
5.31405
5.28202
5.25415
5.23028
5.21054
5.19514
5.18384
5.17637
5.17293
5.18962
5.24307
5.30855
5.6326
5.59316
5.55144
5.50979
5.46932
5.43097
5.39559
5.3638
5.33593
5.31212
5.29243
5.27712
5.26668
5.26106
5.26034
5.26576
5.28585
5.32932
5.39469
5.64215
5.6077
5.57152
5.5354
5.50026
5.46692
5.43619
5.40869
5.38486
5.36497
5.34925
5.33794
5.33154
5.33019
5.33395
5.34399
5.36579
5.40706
5.47284
5.65101
5.62095
5.58964
5.55841
5.52801
5.49921
5.47273
5.44921
5.42913
5.41285
5.40065
5.39279
5.38963
5.39143
5.39822
5.41094
5.43355
5.47729
5.54104
5.65928
5.63314
5.60614
5.57924
5.55309
5.52838
5.50576
5.48585
5.46916
5.45609
5.44692
5.44188
5.44124
5.44521
5.4539
5.46796
5.49069
5.53296
5.59205
5.66706
5.64444
5.62127
5.59825
5.57593
5.55491
5.53579
5.51913
5.50545
5.49514
5.48849
5.48567
5.48684
5.49215
5.50173
5.51605
5.5389
5.57713
5.62869
5.67443
5.65498
5.63525
5.61572
5.59687
5.57921
5.56324
5.5495
5.53845
5.53049
5.52588
5.52474
5.52708
5.533
5.54262
5.55621
5.5772
5.61089
5.65218
5.68142
5.66486
5.6482
5.63184
5.61617
5.60159
5.5885
5.57737
5.56862
5.56263
5.55962
5.55967
5.56266
5.56862
5.57756
5.58958
5.6066
5.63241
5.67003
5.6881
5.67412
5.66022
5.64675
5.63403
5.62231
5.61187
5.60308
5.59634
5.59198
5.5902
5.59103
5.59425
5.59969
5.6074
5.61744
5.63063
5.6511
5.68115
5.69448
5.68279
5.67132
5.66049
5.65058
5.64159
5.63361
5.62694
5.62194
5.61894
5.61809
5.61922
5.62216
5.62679
5.63289
5.64036
5.65005
5.66522
5.68786
5.70056
5.69085
5.68147
5.67309
5.66591
5.65958
5.65392
5.64915
5.64563
5.64365
5.64328
5.64443
5.64698
5.65052
5.65465
5.65931
5.66537
5.67562
5.69231
5.70636
5.69825
5.69048
5.68441
5.68004
5.67641
5.67287
5.6697
5.66728
5.66594
5.66578
5.66676
5.66863
5.6709
5.67308
5.67501
5.67797
5.68361
5.6958
5.71197
5.70477
5.6974
5.69391
5.69294
5.69204
5.69018
5.6882
5.68659
5.68563
5.68541
5.68588
5.68681
5.68774
5.6883
5.68842
5.68888
5.68942
5.69829
5.71768
5.70981
5.69912
5.69911
5.70505
5.70619
5.70558
5.70447
5.70346
5.70278
5.70244
5.70231
5.70222
5.70192
5.70125
5.70026
5.69822
5.69054
5.70128
5.72433
5.71599
5.69889
5.69429
5.71036
5.71752
5.71946
5.71968
5.71947
5.71917
5.7188
5.71822
5.71728
5.71586
5.71395
5.71151
5.70679
5.68356
5.71433
)
;

boundaryField
{
    leftWall
    {
        type            fixedFluxPressure;
        gradient        uniform 0;
        value           nonuniform List<scalar> 
50
(
3920.89
3915.43
3905.64
3379.57
1163.86
1078.02
1074.87
1071.97
1067.99
1061.22
1052.67
1021.02
433.461
6.53952
6.394
6.39264
6.37574
6.35496
6.33498
6.31525
6.29526
6.27491
6.25428
6.2334
6.21233
6.19111
6.16977
6.14836
6.12695
6.10559
6.08435
6.06327
6.04241
6.02183
6.00156
5.98164
5.96208
5.94292
5.92415
5.90578
5.8878
5.8702
5.85295
5.83602
5.81937
5.80294
5.78665
5.77043
5.75421
5.73795
)
;
    }
    rightWall
    {
        type            fixedFluxPressure;
        gradient        uniform 0;
        value           nonuniform List<scalar> 
50
(
3695.15
3648.52
3787.89
4536.58
5145.49
6278.44
6582.85
6641.51
6801.49
6886.34
4672.95
5473.53
5867.61
4531.43
621.839
501.824
486.302
961.464
1271.5
1325.51
1352.07
1354.65
1115.37
846.424
1118.03
1136.76
687.312
15.9971
20.1041
26.1508
15.8411
4.97594
5.06554
5.1469
5.2236
5.30855
5.39469
5.47284
5.54104
5.59205
5.62869
5.65218
5.67003
5.68115
5.68786
5.69231
5.6958
5.69829
5.70128
5.71433
)
;
    }
    lowerWall
    {
        type            fixedFluxPressure;
        gradient        uniform 0;
        value           nonuniform List<scalar> 
62
(
3920.89
3950.35
4019.17
4118.37
4249.45
4422.98
4633.91
4879.83
5153.23
5441.13
5730.09
6009.02
6270.99
6512.7
6732.42
6931.38
7112.28
7272
7406.17
7502.12
7544.87
7528.07
7452.3
7452.3
7418.47
7384.45
7342.69
7294.43
7244.65
7196.27
5957.26
3183.84
3350.8
4459.1
4433.2
1852.1
1833.86
1810.13
1821.68
1793.58
3228.76
3113.13
2396.97
1852.1
1839.32
2054
2295.99
2761.71
3385.25
3283.83
2974.87
2804.26
2764.72
2795.58
2793.71
2747.96
2763.24
2800.03
2814.04
2893.2
3097.92
3695.15
)
;
    }
    atmosphere
    {
        type            prghTotalPressure;
        rho             rho;
        psi             none;
        gamma           1;
        p0              uniform 0;
        value           nonuniform List<scalar> 
46
(
5.72904
5.72904
5.72904
5.72904
5.72904
5.72904
5.72904
5.72904
5.72904
5.72904
5.72904
5.72904
5.72904
5.72904
5.72904
5.72904
5.72904
5.72904
5.72904
5.72904
5.72904
5.72904
5.72904
5.72904
5.72904
5.72904
5.72904
5.72904
5.72904
5.72904
5.72904
5.72898
5.72887
5.72871
5.72853
5.72831
5.72801
5.72757
5.72687
5.72572
5.72395
5.72144
5.71821
5.71417
5.70718
5.71331
)
;
        rho             rho;
    }
    defaultFaces
    {
        type            empty;
    }
}


// ************************************************************************* //
