/*--------------------------------*- C++ -*----------------------------------*\
  =========                 |
  \\      /  F ield         | OpenFOAM: The Open Source CFD Toolbox
   \\    /   O peration     | Website:  https://openfoam.org
    \\  /    A nd           | Version:  13
     \\/     M anipulation  |
\*---------------------------------------------------------------------------*/
FoamFile
{
    format      ascii;
    class       volScalarField;
    location    "0.7";
    object      rho;
}
// * * * * * * * * * * * * * * * * * * * * * * * * * * * * * * * * * * * * * //

dimensions      [1 -3 0 0 0 0 0];

internalField   nonuniform List<scalar> 
2268
(
13529
13529
13529
13529
13529
13529
13529
13529
13529
13529
13529
13529
13529
13529
13529
13529
13529
13529
13529
13529
13528.8
13523.6
13521.6
13529
13529
13529
13529
13529
13529
13529
13529
13529
13529
13529
13529
13529
13529
13529
13529
13529
13529
13529
13529
13529
13525.8
13521.6
13529
13529
13529
13529
13529
13529
13529
13529
13529
13529
13529
13529
13529
13529
13529
13529
13529
13529
13529
13529
13529
13528.3
13526.8
10680.4
10672.5
11088
11836.8
12646.8
13341
13529
13529
13529
13529
13529
13529
13529
13529
13529
13529
13529
13529
13529
13529
13529
13529
13529
1282
1660.11
2059.23
2724.34
3850.46
5671.36
8511.59
11414.8
13322.4
13529
13529
13529
13529
13529
13529
13529
13529
13529
13529
13529
13529
13529
13529
1000
1000
1000
1000
1000
1000
1212.88
2439.04
5649.06
10609.4
13328.2
13529
13529
13529
13529
13529
13529
13529
13529
13529
13529
13529
13528.7
1000
1000
1000
1000
1000
1000
1000
1000
1000
1787.02
5523.62
10987
13438
13529
13529
13529
13529
13529
13529
13529
13529
13529
13528.6
1000
1000
1000
1000
1000
1000
1000
1000
1000
1000
1000
1850.73
5484.46
10509.9
13017.3
13255
13053
13135.4
13204.3
13110.1
12605.6
11761.4
10638
461.056
515.969
1090.46
1442.3
2025.9
4300.45
5257.78
5039.11
4578.01
4323.34
4195.2
3033.87
1127.16
402.116
289.773
278.479
1420.72
2790.18
2789.99
462.522
507.941
1012.48
1141.24
6589.49
11951.7
11981.5
11977.2
11983.2
11972.4
11885.6
11225.9
5249.84
632.933
368.605
346.499
284.302
931.838
2789.29
425.291
823.337
1876.62
4882.33
10037.1
9963.87
10124
10056.8
10043
10153.6
10635.5
11111.1
9442.76
2744.3
424.126
423.63
1170.71
2429.9
2792.34
480.814
1443.57
6403.82
6706.85
5283.38
2369.27
1507.54
1304.91
1311.87
1326.89
1563.87
5491.77
8551.11
7921.73
5206.15
5672.22
8375.73
9431.59
5373.51
497.313
5331.99
6624.56
6153.88
2409.76
1001.82
999.795
999.8
999.299
996.57
996.299
993.38
2469.87
6477.5
8610.7
9645.42
9673.2
9556.54
6087
5875.47
6110.45
4975.91
1264.88
1001.72
1001.05
1000.41
1000.18
1000.02
999.845
999.745
999.465
997.051
1621.02
3442.45
4700.38
7539.84
9713.76
8926.71
6715.27
5701.26
1132.58
1000.56
999.855
999.837
999.999
1000.06
999.923
999.811
999.79
999.804
1000.03
1000.15
999.505
999.11
1936.92
9247.71
9403.99
5220.72
1005.97
999.752
999.835
999.836
999.836
998.48
979.024
928.985
892.461
910.145
957.777
999.809
1000.96
1003.97
1015.69
939.508
6878.51
9425.84
1000
1000
1000
1000
1000
1000
1000
1000
1000
1000
1000
1000
1003.54
1298.96
2228.6
3693.11
5180.02
6018.55
6192.51
5932.42
4957.42
3979.62
3084.51
1000
1000
1000
1000
1000
1000
1000
1000
1000
1000
1000
1000
1000
1000
1000
1000
1000
1000
1000
999.999
1000
1000
999.999
1000
1000
1000
1000
1000
1000
1000
1000
1000
1000
1000
1000
1000
1000
1000
1000
1000
1000
1000
1000
1000
1000
999.997
978.148
950.643
937.845
949.034
975.615
1000
1000
1000
1000
1000
1000
1000
1000
1000
1000
1000
1000
1000
1000
999.449
981.393
919.379
785.54
389.798
310.43
271.947
276.362
309.827
372.483
484.115
620.483
758.652
859.764
917.899
945.32
950.895
946.063
940.062
918.606
872.537
797.986
702.015
555.898
382.195
206.067
59.0157
1.00009
1.00005
1.00003
1.00001
1
1
2.90781
10.8455
18.4301
42.3478
98.5809
151.128
183.576
212.719
221.149
189.083
131.529
67.6785
13.0699
1.00594
1.01325
1.01742
1.03581
1.00003
1
1
1
1
1
1.00002
1.00001
1.00001
1
1
1
1
1
1.00005
1.00031
1.00127
1.00122
1.00191
1.00458
1
1.00007
1.00066
1.00001
1
1
1
1
1
1
1
1
1
1
1
1
1
1
1.00004
1.00001
1.00001
1.00001
1.00002
1.00001
1.00005
1.00016
1
1
1
1
1
1
1
1
1
1
1
1
1
1
1
1
1
1
1
1
1.00001
1.00004
1.00011
1
1
1
1
1
1
1
1
1
1
1
1
1
1
1
1.00001
1.00001
1.00001
1.00001
1
1.00001
1.00003
1.00037
1
1
1
1
1
1
1
1
1
1
1
1
1
1
1
1.00001
1.00001
1.00001
1.00001
1
1
1.00003
1.0001
1
1
1
1
1
1
1
1
1
1
1
1
1
1
1
1
1
1
1
1
1
1
1.00007
1
1
1
1
1
1
1
1
1
1
1
1
1
1
1
1
1
1
1
1
1
1
1.00002
1
1
1
1
1
1
1
1
1
1
1
1
1
1
1
1
1
1
1
1
1
1
1.00001
1
1
1
1
1
1
1
1
1
1
1
1
1
1
1
1
1
1
1
1
1
1
1
1
1
1
1
1
1
1
1
1
1
1
1
1
1
1
1
1
1
1
1
1
1
1
1
1
1
1
1
1
1
1
1
1
1
1
1
1
1
1
1
1
1
1
1
1
1
1
1
1
1
1
1
1
1
1
1
1
1
1
1
1
1
1
1
1
1
1
1
1
1
1
1
1
1
1
1
1
1
1
1
1
1
1
1
1
1
1
1
1
1
1
1
1
1
1
1
1
1
1
1
1
1
1
1
1
1
1
1
1
1
1
1
1
1
1
1
1
1
1
1
1
1
1
1
1
1
1
1
1
1
1
1
1
1
1
1
1
1
1
1
1
1
1
1
1
1
1
1
1
1
1
1
1
1
1
1
1
1
1
1
1
1
1
1
1
1
1
1
1
1
1
1
1
1
1
1
1
1
1
1
1
1
1
1
1
1
1
1
1
1
1
1
1
1
1
1
1
1
1
1
1
1
1
1
1
1
1
1
1
1
1
1
1
1
1
1
1
1
1
1
1
1
1
1
1
1
1
1
1
1
1
1
1
1
1
1
1
1
1
1
1
1
1
1
1
1
1
1
1
1
1
1
1
1
1
1
1
1
1
1
1
1
1
1
1
1
1
1
1
1
1
1
1
1
1
1
1
1
1
1
1
1
1
1
1
1
1
1
1
1
1
1
1
1
1
1
1
1
1
1
1
1
1
1
1
1
1
1
1
1
1
1
1
1
1
1
1
1
1
1
1
1
1
1
1
1
1
1
1
1
1
1
1
1
1
1
1
1
1
1
1
1
1
1
1
1
1
1
1
1
1
1
1
1
1
1
1
1
1
1
1
1
1
1
1
1
1
1
1
1
1
1
1
1
1
1
1
1
1
1
1
1
1
1
1
1
1
1
1
1
1
1
1
1
1
1
1
1
1
1
1
1
1
1
1
1
1
1
1
1
1
1
1
1
1
1
1
1
1
1
1
1
1
1
1
1
1
1
1
1
1
1
1
1
1
1
1
1
1
1
1
1
1
1
1
1
1
1
1
1
1
1
1
1
1
1
1
1
1
1
1
1
1
1
1
1
1
1
1
1
1
1
1
1
1
1
1
1
1
1
1
1
1
1
1
1
1
1
1
1
1
1
1
1
1
1
1
1
1
1
1
1
1
1
1
1
1
1
1
1
1
1
1
1
1
1
1
1
1
1
1
1
1
1
1
1
1
1
1
1
1
1
1
1
1
1
1
1
1
1
1
1
1
1
1
1
1
1
1
1
1
1
1
1
1
1
1
1
1
1
1
1
1
1
1
1
1
1
1
1
1
1
1
1
1
1
1
1
1
1
1
1
1
1
1
1
1
1
1
1
1
1
1
1
1
1
1
1
1
1
1
1
1
1
1
1
1
1
1
1
1
1
1
1
1
1
1
1
1
1
1
4425.01
4692.31
6697.98
6739.65
999.999
999.929
999.041
996.919
999.99
997.627
985.057
949.299
647.933
531.67
411.188
262.117
1.057
1.05706
1.05602
1.0929
1.0414
1.00943
1.01434
1.34133
1.00196
1.00177
1.06289
1.26681
1.00014
1.01406
1.03864
1.01476
1.00364
1.01015
1.00295
1.00133
1.00281
1.0048
1.00523
1.00494
1.00212
1.00511
1.00524
1.00496
1.00043
1.00447
1.00494
1.00499
1.00009
1.00048
1.0034
1.00492
1.00003
1.00001
1.00018
1.00137
1.00001
1.00001
1.00001
1.00001
1
1
1.00001
1.00001
1
1
1
1.00001
1
1
1
1
1
1
1
1
1
1
1
1
1
1
1
1
1
1
1
1
1
1
1
1
1
1
1
1
1
1
1
1
1
1
1
1
1
1
1
1
1
1
1
1
1
1
1
1
1
1
1
1
1
1
1
1
1
1
1
1
1
1
1
1
1
1
1
1
1
1
1
1
1
1
1
1
1
1
1
1
1
1
1
1
1
1
1
1
1
1
1
1
1
1
1
1
1
1
1
1
1720.84
999.492
1000.18
999.368
958.765
878.443
768.339
684.115
603.763
578.124
599.036
660.165
708.345
734.131
752.093
746.84
559.096
1065.78
9445.44
996.549
960.165
828.368
783.094
577.455
487.911
492.926
496.499
499.066
499.832
499.958
499.961
499.992
500
500.216
500.949
500.995
533.428
8714.03
772.541
374.983
173.32
280.191
438.589
444.206
471.855
496.637
500
500.016
500.013
500.001
500
500
497.258
502.049
501.529
558.746
4836.66
56.1084
12.2542
92.4052
206.059
208.717
359.364
500.003
500.006
500.008
500.005
500
500
500.001
500
482.435
451.615
349.691
461.608
5191.23
1.78753
11.3398
13.7433
69.0242
400.497
500.001
500
500
500
500
500
500
500.001
500
493.135
465.427
319.447
336.895
5028.42
2.14152
2.52253
29.7385
385.883
500
500
500
500
500
500
500
500
499.999
499.997
500.001
498.308
450.084
263.635
3386.08
1.28472
1.00018
39.9847
414.892
500
500
500
500
500
500
500
500
500
500.001
500.002
500.001
500.257
381.998
156.57
1.00038
1.00016
17.6881
354.603
500
500
500
500
500
500
500
500
500
500.001
500.002
500.002
500.002
357.471
64.8743
1.00007
1.00009
1.86308
254.54
500
500
500
500
499.998
499.996
500
500
500
500
500
500.001
500.015
346.245
52.8214
1.00351
1.00037
1.00012
145.64
496.327
500
500
499.998
499.954
499.934
499.979
500
500
500
500
499.987
500
468.749
347.591
1.00493
1.0033
1.00023
43.2565
376.194
500
500
499.995
499.935
499.929
499.928
499.997
500
500
500
499.999
499.997
500
500
1.00496
1.00493
1.00029
1
138.279
464.947
500
500
499.988
499.943
499.948
499.998
500
500
500
500
500
500
500
1.00494
1.00461
1.00016
1.00001
1
175.39
456.671
500
500
500
500
500
500
500
500
500
500
500
500
1.00245
1.00124
1.0001
1.00003
1.00002
1.00005
116.979
387.75
497.207
500
500
500
500
500
500
500
500
500
500
1.00001
1.00001
1.00005
1.00002
1.00003
1.00005
1.00014
21.5415
229.026
409.862
485.538
500
500
500
500
500
500
478.162
401.342
1.00001
1.00001
1.00002
1.00002
1.00002
1.00005
1.00014
1.00023
1.00034
28.2562
172.92
298.934
365.022
387.73
396.861
382.473
299.305
201.387
304.104
1.00001
1.00001
1.00001
1.00001
1.00002
1.00005
1.00029
1.00075
1.00022
1.00014
1.00007
1.00022
10.922
24.1812
28.2868
14.9316
1.00125
49.7935
423.915
1
1.00001
1.00001
1.00001
1.00001
1.00002
1.00006
1.00213
1.00258
1.00075
1.00014
1.00005
1.00011
1.00033
1.00042
1.00083
1.00089
43.4643
424.229
1
1
1
1.00001
1.00001
1.00001
1.00001
1.00082
1.00346
1.00343
1.00058
1.00012
1.0002
1.00106
1.00627
1.00707
1.00114
27.2228
244.571
1
1
1
1
1.00001
1.00001
1.00001
1.00001
1.00131
1.00344
1.00257
1.0003
1.00018
1.00162
1.0167
1.01696
1.00104
48.2759
7.01189
1
1
1
1
1
1.00001
1.00001
1.00002
1.00002
1.00184
1.00243
1.00058
1.00008
1.00023
1.00323
1.00981
1.15977
73.6767
6.90945
1
1
1
1
1
1
1.00001
1.00001
1.00002
1.00015
1.00034
1.00026
1.00005
1.00001
1.00001
1.00001
2.12767
72.2943
7.75544
1
1
1
1
1
1
1
1.00001
1.00001
1.00005
1.00008
1.00007
1.00005
1.00001
1.00001
1.00001
5.35108
8.39528
4.25242
1
1
1
1
1
1
1
1
1.00001
1.00001
1.00003
1.00002
1.00002
1.00001
1.00001
1.00001
5.5314
1.00427
1.00281
1
1
1
1
1
1
1
1
1
1.00001
1.00001
1.00001
1.00001
1.00001
1.00001
1.00001
3.4347
1.16467
1.00277
1
1
1
1
1
1
1
1
1
1
1.00001
1.00001
1.00001
1.00001
1.00001
1.00001
1.00001
1.03775
1.00291
1
1
1
1
1
1
1
1
1
1
1
1
1.00001
1.00001
1.00001
1.00001
1.00001
1
1.00108
1
1
1
1
1
1
1
1
1
1
1
1
1.00001
1.00001
1.00001
1.00001
1.00001
1
1
1
1
1
1
1
1
1
1
1
1
1
1
1
1.00001
1.00001
1.00001
1.00001
1.00002
1
1
1
1
1
1
1
1
1
1
1
1
1
1
1.00001
1.00001
1.00001
1.00001
1.00014
1.00032
1
1
1
1
1
1
1
1
1
1
1
1
1
1.00001
1.00001
1.00001
1.00001
1.00106
1.00122
1
1
1
1
1
1
1
1
1
1
1
1
1.00001
1.00001
1.00001
1.00001
1.00006
1.0012
1.00123
1
1
1
1
1
1
1
1
1
1
1.00001
1.00001
1.00001
1.00001
1.00001
1.00001
1.00032
1.0012
1.00086
1
1
1
1
1
1
1
1
1
1
1.00001
1.00001
1.00001
1.00002
1.00001
1.00001
1.00033
1.00106
1.00006
1
1
1
1
1
1
1
1
1
1
1.00001
1.00001
1.00002
1.00004
1.00004
1.00002
1.00007
1.00011
1.00002
1
1
1
1
1
1
1
1
1
1
1.00001
1.00002
1.00004
1.00006
1.00007
1.00008
1.00002
1
1
1
1
1
1
1
1
1
1
1
1
1.00001
1.00001
1.00003
1.00005
1.00007
1.00009
1.00005
1.00001
1
1
1
1
1
1
1
1
1
1
1
1
1.00001
1.00002
1.00002
1.00003
1.00006
1.00003
1.00001
1
1
1
1
1
1
1
1
1
1
1
1
1
1.00001
1.00001
1.00002
1.00001
1
1
1
1
1
1
1
1
1
1
1
1
1
1
1
1
1.00001
1.00001
1
1
1
1
1
1
1
1
1
1
1
1
1
1
1
1
1
1
1
1
1
1
1
1
1
1
1
1
1
1
1
1
1
1
1
1
1
1
1
1
1
1
)
;

boundaryField
{
    leftWall
    {
        type            calculated;
        value           nonuniform List<scalar> 
50
(
13529
13529
13529
10680.4
1282
1000
1000
1000
1000
1000
1000
978.148
389.798
1.00009
1.00003
1.00001
1
1
1
1
1
1
1
1
1
1
1
1
1
1
1
1
1
1
1
1
1
1
1
1
1
1
1
1
1
1
1
1
1
1
)
;
    }
    rightWall
    {
        type            calculated;
        value           nonuniform List<scalar> 
50
(
2789.99
2789.29
2792.34
5373.51
6087
8926.71
9403.99
9425.84
9445.44
8714.03
4836.66
5191.23
5028.42
3386.08
156.57
64.8743
52.8214
347.591
500
500
500
500
401.342
304.104
423.915
424.229
244.571
7.01189
6.90945
7.75544
4.25242
1.00281
1.00277
1.00291
1.00108
1
1
1.00032
1.00122
1.00123
1.00086
1.00006
1.00002
1
1
1
1
1
1
1
)
;
    }
    lowerWall
    {
        type            calculated;
        value           nonuniform List<scalar> 
62
(
13529
13529
13529
13529
13529
13529
13529
13529
13529
13529
13529
13529
13529
13529
13529
13529
13529
13529
13529
13529
13528.8
13523.6
13521.6
13521.6
13521.6
13526.8
13529
13529
13528.7
13528.6
10638
4425.01
4692.31
6697.98
6739.65
461.056
462.522
425.291
480.814
497.313
5875.47
6715.27
5220.72
461.056
515.969
1090.46
1442.3
2025.9
4300.45
5257.78
5039.11
4578.01
4323.34
4195.2
3033.87
1127.16
402.116
289.773
278.479
1420.72
2790.18
2789.99
)
;
    }
    atmosphere
    {
        type            calculated;
        value           nonuniform List<scalar> 
46
(
1
1
1
1
1
1
1
1
1
1
1
1
1
1
1
1
1
1
1
1
1
1
1
1
1
1
1
1
1
1
1
1
1
1
1
1
1
1
1
1
1
1
1
1
1
1
)
;
    }
    defaultFaces
    {
        type            empty;
    }
}


// ************************************************************************* //
