/*--------------------------------*- C++ -*----------------------------------*\
  =========                 |
  \\      /  F ield         | OpenFOAM: The Open Source CFD Toolbox
   \\    /   O peration     | Website:  https://openfoam.org
    \\  /    A nd           | Version:  13
     \\/     M anipulation  |
\*---------------------------------------------------------------------------*/
FoamFile
{
    format      ascii;
    class       volVectorField;
    location    "0.7";
    object      U;
}
// * * * * * * * * * * * * * * * * * * * * * * * * * * * * * * * * * * * * * //

dimensions      [0 1 -1 0 0 0 0];

internalField   nonuniform List<vector> 
2268
(
(-0.0260145 0.00697322 0)
(-0.0166549 -0.00479942 0)
(-0.00524871 -0.00490576 0)
(-0.000386753 -0.00233459 0)
(-0.000625561 -0.000326319 0)
(-0.00643608 0.00136921 0)
(-0.0176413 0.00298537 0)
(-0.0337305 0.00445524 0)
(-0.0537577 0.0056481 0)
(-0.076186 0.00639744 0)
(-0.0991816 0.00662767 0)
(-0.121115 0.0063995 0)
(-0.140705 0.00577512 0)
(-0.156811 0.00490987 0)
(-0.168973 0.0038602 0)
(-0.176701 0.00250088 0)
(-0.178587 0.000502093 0)
(-0.172637 -0.00217016 0)
(-0.157313 -0.00553138 0)
(-0.132175 -0.00904327 0)
(-0.0983006 -0.0116192 0)
(-0.0599965 -0.0116368 0)
(-0.0292327 -0.0138312 0)
(-0.00516094 0.0123521 0)
(0.00535849 -0.00563146 0)
(0.00733103 -0.0043327 0)
(0.00604883 -0.000665652 0)
(0.000880843 0.00325972 0)
(-0.00899308 0.00709353 0)
(-0.0239386 0.0107689 0)
(-0.043664 0.0139814 0)
(-0.0670201 0.0161104 0)
(-0.0920285 0.0169185 0)
(-0.116529 0.0164732 0)
(-0.138708 0.0149702 0)
(-0.157298 0.0126841 0)
(-0.171346 0.00982364 0)
(-0.180353 0.00659806 0)
(-0.183961 0.0027914 0)
(-0.181257 -0.00213307 0)
(-0.171256 -0.00818948 0)
(-0.153846 -0.0148229 0)
(-0.129539 -0.0212286 0)
(-0.0991767 -0.0261203 0)
(-0.0646432 -0.0275102 0)
(-0.0285448 -0.0286724 0)
(0.0167072 0.00843732 0)
(0.0159452 -0.00670307 0)
(0.0123347 -0.00357233 0)
(0.00675242 0.00176373 0)
(-0.00164331 0.00768115 0)
(-0.0144581 0.0139518 0)
(-0.0320518 0.0200105 0)
(-0.0541015 0.0250571 0)
(-0.0791424 0.0280066 0)
(-0.104873 0.0286423 0)
(-0.129012 0.027141 0)
(-0.149768 0.02398 0)
(-0.166071 0.0196523 0)
(-0.17715 0.0144084 0)
(-0.182632 0.00865232 0)
(-0.182484 0.00213934 0)
(-0.176262 -0.00578657 0)
(-0.163682 -0.0148823 0)
(-0.145344 -0.0241954 0)
(-0.122238 -0.0328662 0)
(-0.0950769 -0.0397897 0)
(-0.0648352 -0.0440047 0)
(-0.0307028 -0.0509134 0)
(0.0273946 -0.0056511 0)
(0.0181269 -0.00700535 0)
(0.0121794 -0.00192099 0)
(0.00403946 0.00445116 0)
(-0.00663777 0.0117809 0)
(-0.0215441 0.0203118 0)
(-0.0411937 0.0290353 0)
(-0.0648919 0.0364535 0)
(-0.0907383 0.0405608 0)
(-0.11625 0.0406815 0)
(-0.139091 0.0375192 0)
(-0.157612 0.032161 0)
(-0.17106 0.0253641 0)
(-0.178834 0.0174466 0)
(-0.180769 0.00904081 0)
(-0.177203 -0.000128323 0)
(-0.168015 -0.0107994 0)
(-0.15334 -0.0224398 0)
(-0.134148 -0.0338449 0)
(-0.111633 -0.0441851 0)
(-0.0864738 -0.0526911 0)
(-0.0595382 -0.0596447 0)
(-0.0279408 -0.072904 0)
(0.0187648 -0.00909184 0)
(0.0106972 -0.00136807 0)
(0.00451003 0.00359531 0)
(-0.00520908 0.00962265 0)
(-0.0170552 0.0176803 0)
(-0.0327155 0.0271924 0)
(-0.0523008 0.0367369 0)
(-0.075748 0.0453807 0)
(-0.101131 0.0508868 0)
(-0.125822 0.0514693 0)
(-0.14669 0.0470443 0)
(-0.162469 0.0392218 0)
(-0.172761 0.0296669 0)
(-0.177144 0.0188841 0)
(-0.175704 0.00783355 0)
(-0.16909 -0.00384212 0)
(-0.157365 -0.0169893 0)
(-0.140827 -0.0307984 0)
(-0.120682 -0.0438086 0)
(-0.0982104 -0.0552786 0)
(-0.0741717 -0.0647827 0)
(-0.0496841 -0.0738865 0)
(-0.0197491 -0.0912876 0)
(0.00872553 -0.0190564 0)
(0.00449273 0.00129367 0)
(-0.00441117 0.00865653 0)
(-0.0156106 0.0170887 0)
(-0.0279135 0.0268549 0)
(-0.0434085 0.0381218 0)
(-0.064133 0.0480904 0)
(-0.0883193 0.0559592 0)
(-0.112021 0.0599963 0)
(-0.132986 0.0590655 0)
(-0.150732 0.0539144 0)
(-0.163804 0.0444947 0)
(-0.170954 0.0324222 0)
(-0.17217 0.0186921 0)
(-0.167786 0.00507818 0)
(-0.158659 -0.00892786 0)
(-0.144819 -0.024339 0)
(-0.126665 -0.0400178 0)
(-0.105608 -0.0542349 0)
(-0.0829727 -0.0664018 0)
(-0.0596984 -0.07639 0)
(-0.0371405 -0.0869996 0)
(-0.00879664 -0.103987 0)
(-0.00552082 -0.0184929 0)
(-0.00884105 0.00357217 0)
(-0.0200991 0.0128716 0)
(-0.0327374 0.0221491 0)
(-0.045459 0.0336036 0)
(-0.0585035 0.048351 0)
(-0.0730393 0.0638407 0)
(-0.0902532 0.0732858 0)
(-0.112065 0.0735388 0)
(-0.135713 0.0674499 0)
(-0.151422 0.0591401 0)
(-0.160836 0.0476188 0)
(-0.165154 0.0337802 0)
(-0.163883 0.0173445 0)
(-0.15733 0.00117024 0)
(-0.146444 -0.0150446 0)
(-0.130952 -0.0325988 0)
(-0.111513 -0.0499253 0)
(-0.0898214 -0.0650375 0)
(-0.067185 -0.0775548 0)
(-0.0447342 -0.087493 0)
(-0.023788 -0.0986655 0)
(0.00109448 -0.110796 0)
(-0.0132752 -0.0113477 0)
(-0.0212975 0.00841856 0)
(-0.0354358 0.0187478 0)
(-0.0495511 0.0276938 0)
(-0.0625594 0.0382992 0)
(-0.0738887 0.0517667 0)
(-0.0838143 0.0665999 0)
(-0.0935875 0.0792462 0)
(-0.105335 0.0868357 0)
(-0.120717 0.083742 0)
(-0.138783 0.0667201 0)
(-0.152259 0.0502362 0)
(-0.154943 0.0342604 0)
(-0.151841 0.0159212 0)
(-0.144721 -0.00212041 0)
(-0.133036 -0.0204041 0)
(-0.116254 -0.0401088 0)
(-0.0959775 -0.0588208 0)
(-0.0742053 -0.0745383 0)
(-0.0520529 -0.0872257 0)
(-0.0305875 -0.0968409 0)
(-0.0108861 -0.107693 0)
(0.00707234 -0.114498 0)
(-0.499781 0.132896 0)
(-0.607751 0.0066592 0)
(-0.449696 -0.0779396 0)
(-0.293351 -0.132622 0)
(0.252727 -0.165854 0)
(0.436756 -0.0865441 0)
(0.552001 -0.0357857 0)
(0.619416 -0.0131363 0)
(0.64657 -0.00482551 0)
(0.66055 -0.0048174 0)
(0.676062 -0.0100653 0)
(0.693218 -0.00907549 0)
(0.691657 0.0318738 0)
(0.538955 0.0957622 0)
(0.179868 0.132487 0)
(-0.221949 0.0890362 0)
(-0.464969 -0.0633697 0)
(-0.41816 -0.0922232 0)
(-0.198336 -0.162833 0)
(-0.339683 0.253588 0)
(-0.168089 0.0452965 0)
(0.157626 -0.158864 0)
(0.333065 -0.168369 0)
(0.436749 -0.167735 0)
(0.48832 -0.103351 0)
(0.545317 -0.0534796 0)
(0.590165 -0.0281794 0)
(0.621164 -0.016879 0)
(0.64361 -0.0130865 0)
(0.65867 -0.0123842 0)
(0.665254 -0.00287496 0)
(0.655051 0.048629 0)
(0.593245 0.14594 0)
(0.405134 0.204347 0)
(0.271171 0.163719 0)
(0.151432 0.0958579 0)
(-0.0817474 0.00575828 0)
(0.00933845 -0.190495 0)
(-0.220268 0.312192 0)
(0.250507 -0.126446 0)
(0.401112 -0.239699 0)
(0.457125 -0.216547 0)
(0.480199 -0.18543 0)
(0.498352 -0.117129 0)
(0.533153 -0.0663047 0)
(0.570033 -0.0391383 0)
(0.601843 -0.025441 0)
(0.625727 -0.0188949 0)
(0.637379 -0.0146225 0)
(0.63467 -6.86298e-05 0)
(0.622309 0.0618165 0)
(0.593834 0.158642 0)
(0.549219 0.234494 0)
(0.504823 0.220191 0)
(0.438275 0.151828 0)
(0.266618 0.0769943 0)
(0.17835 -0.168094 0)
(0.00216656 0.333551 0)
(0.402243 -0.235986 0)
(0.4525 -0.261709 0)
(0.472273 -0.229901 0)
(0.47799 -0.189328 0)
(0.482222 -0.12079 0)
(0.508549 -0.072386 0)
(0.543986 -0.0471806 0)
(0.576232 -0.0326811 0)
(0.600637 -0.0230554 0)
(0.609602 -0.0156955 0)
(0.603332 0.00307872 0)
(0.589378 0.0704181 0)
(0.578535 0.167253 0)
(0.570056 0.230757 0)
(0.546721 0.227098 0)
(0.489884 0.180199 0)
(0.367381 0.131727 0)
(0.298093 -0.0146377 0)
(0.396401 0.114276 0)
(0.429694 -0.258935 0)
(0.452789 -0.268748 0)
(0.455718 -0.232926 0)
(0.448715 -0.187174 0)
(0.438055 -0.124298 0)
(0.452685 -0.0907653 0)
(0.479132 -0.0690237 0)
(0.507837 -0.0516506 0)
(0.533131 -0.0356841 0)
(0.551804 -0.0170588 0)
(0.561344 0.00622495 0)
(0.550006 0.0777959 0)
(0.553964 0.171474 0)
(0.558143 0.233989 0)
(0.537606 0.239731 0)
(0.479105 0.209427 0)
(0.362003 0.18006 0)
(0.276087 0.0965412 0)
(0.389218 -0.114233 0)
(0.400879 -0.261448 0)
(0.426692 -0.26867 0)
(0.413721 -0.228245 0)
(0.385786 -0.178345 0)
(0.371941 -0.126797 0)
(0.388006 -0.0982016 0)
(0.412709 -0.0783572 0)
(0.440023 -0.0613283 0)
(0.465608 -0.0449329 0)
(0.48668 -0.0254766 0)
(0.498299 0.00623874 0)
(0.502427 0.077407 0)
(0.516489 0.172823 0)
(0.530212 0.241651 0)
(0.506688 0.256216 0)
(0.436354 0.23888 0)
(0.311634 0.235597 0)
(0.23782 0.213495 0)
(0.347544 -0.24998 0)
(0.345118 -0.277532 0)
(0.368742 -0.264699 0)
(0.32964 -0.216906 0)
(0.308022 -0.170142 0)
(0.305028 -0.129285 0)
(0.323318 -0.106188 0)
(0.348783 -0.0887973 0)
(0.376878 -0.0720117 0)
(0.403422 -0.0546981 0)
(0.425477 -0.0334248 0)
(0.438835 0.00175412 0)
(0.447985 0.0707679 0)
(0.464242 0.163867 0)
(0.479797 0.246733 0)
(0.454049 0.286327 0)
(0.366024 0.273848 0)
(0.237101 0.284197 0)
(0.194053 0.307224 0)
(0.328718 -0.374487 0)
(0.269758 -0.294912 0)
(0.277739 -0.256276 0)
(0.251991 -0.207475 0)
(0.236354 -0.166601 0)
(0.238341 -0.134169 0)
(0.258567 -0.115492 0)
(0.285569 -0.0998347 0)
(0.314957 -0.0830041 0)
(0.342776 -0.064691 0)
(0.36596 -0.0413136 0)
(0.380994 -0.00345274 0)
(0.392528 0.065171 0)
(0.407479 0.15586 0)
(0.417408 0.246473 0)
(0.393428 0.318534 0)
(0.290307 0.333047 0)
(0.15643 0.325407 0)
(0.151943 0.378937 0)
(-0.0195839 0.00357359 0)
(-0.0371197 0.0202909 0)
(-0.0562532 0.0302563 0)
(-0.0728889 0.038102 0)
(-0.0863752 0.0469009 0)
(-0.0959796 0.0579225 0)
(-0.10136 0.070229 0)
(-0.103197 0.0813845 0)
(-0.10313 0.0889954 0)
(-0.103618 0.0904178 0)
(-0.107155 0.0825149 0)
(-0.114258 0.0626858 0)
(-0.124223 0.0350484 0)
(-0.128429 0.0118716 0)
(-0.122572 -0.00848375 0)
(-0.108827 -0.028949 0)
(-0.0904984 -0.0508126 0)
(-0.0705059 -0.0706752 0)
(-0.0497905 -0.0868599 0)
(-0.0289757 -0.0997487 0)
(-0.00853753 -0.108719 0)
(0.0107887 -0.117679 0)
(0.0122884 -0.120008 0)
(-0.0261305 0.0351036 0)
(-0.0507179 0.0455317 0)
(-0.0743903 0.050868 0)
(-0.0934491 0.0545283 0)
(-0.107381 0.05878 0)
(-0.115783 0.0647194 0)
(-0.118457 0.0718319 0)
(-0.115649 0.0783106 0)
(-0.108284 0.0822448 0)
(-0.0980952 0.0816541 0)
(-0.0872685 0.074847 0)
(-0.0773272 0.0613228 0)
(-0.0688781 0.0400454 0)
(-0.0607989 0.0114344 0)
(-0.0523464 -0.0204656 0)
(-0.0427666 -0.0486822 0)
(-0.0304863 -0.0726145 0)
(-0.0147869 -0.0925044 0)
(0.00469919 -0.108927 0)
(0.0274222 -0.12251 0)
(0.0555525 -0.132142 0)
(0.0894641 -0.13977 0)
(0.128851 -0.146192 0)
(-0.0270425 0.07853 0)
(-0.0568173 0.0773265 0)
(-0.0843591 0.0752365 0)
(-0.105469 0.0725377 0)
(-0.119877 0.0704439 0)
(-0.12752 0.0698268 0)
(-0.128502 0.0704266 0)
(-0.122899 0.0708011 0)
(-0.111221 0.0697228 0)
(-0.0948135 0.0658729 0)
(-0.0754904 0.0576538 0)
(-0.0548765 0.043964 0)
(-0.0341581 0.024004 0)
(-0.0135427 -0.00205183 0)
(0.00697063 -0.032329 0)
(0.0276234 -0.063199 0)
(0.0493289 -0.0925141 0)
(0.0723238 -0.118539 0)
(0.0968224 -0.140624 0)
(0.122784 -0.158897 0)
(0.150231 -0.172749 0)
(0.177915 -0.182346 0)
(0.201971 -0.18875 0)
(-0.0285833 0.102635 0)
(-0.0571754 0.100813 0)
(-0.087248 0.0933791 0)
(-0.109782 0.0850885 0)
(-0.124721 0.0773697 0)
(-0.132135 0.0710882 0)
(-0.131884 0.0656357 0)
(-0.123685 0.0595154 0)
(-0.108446 0.0523626 0)
(-0.087954 0.0437794 0)
(-0.0638454 0.0322698 0)
(-0.0371845 0.0166122 0)
(-0.00909371 -0.00410907 0)
(0.019385 -0.0301321 0)
(0.0473045 -0.0591438 0)
(0.0745485 -0.0882237 0)
(0.100963 -0.115681 0)
(0.126485 -0.140436 0)
(0.151276 -0.161834 0)
(0.175313 -0.179398 0)
(0.198151 -0.192742 0)
(0.218825 -0.200756 0)
(0.232995 -0.201017 0)
(-0.0285972 0.139174 0)
(-0.0497365 0.128876 0)
(-0.082554 0.114525 0)
(-0.106908 0.099962 0)
(-0.122977 0.0858945 0)
(-0.130264 0.0734808 0)
(-0.127312 0.0614688 0)
(-0.114835 0.0489263 0)
(-0.0961336 0.036581 0)
(-0.0735947 0.0236416 0)
(-0.0480368 0.00852682 0)
(-0.019013 -0.0090931 0)
(0.0126472 -0.0306002 0)
(0.0445577 -0.0564207 0)
(0.0755226 -0.0844258 0)
(0.10468 -0.111628 0)
(0.131534 -0.136802 0)
(0.156061 -0.159314 0)
(0.178351 -0.178604 0)
(0.198913 -0.194428 0)
(0.216853 -0.205759 0)
(0.229291 -0.209246 0)
(0.235562 -0.193031 0)
(-0.126427 0.168606 0)
(-0.0329756 0.149045 0)
(-0.0673853 0.122909 0)
(-0.0901109 0.106074 0)
(-0.107307 0.0888357 0)
(-0.116609 0.0751527 0)
(-0.113889 0.0616459 0)
(-0.100518 0.0453067 0)
(-0.080968 0.0289918 0)
(-0.0564932 0.00975966 0)
(-0.0288744 -0.0112827 0)
(0.00208644 -0.0307688 0)
(0.0357431 -0.0527356 0)
(0.0690224 -0.0785541 0)
(0.099948 -0.105657 0)
(0.127988 -0.131011 0)
(0.152801 -0.153675 0)
(0.173765 -0.172422 0)
(0.192302 -0.184995 0)
(0.21258 -0.197013 0)
(0.2262 -0.212525 0)
(0.213863 -0.234735 0)
(0.0627081 -0.255372 0)
(-0.0126995 0.310495 0)
(0.00853762 0.184507 0)
(-0.0264834 0.231774 0)
(-0.0340322 0.196898 0)
(-0.0444263 0.145981 0)
(-0.0502541 0.0926607 0)
(-0.0527922 0.0373489 0)
(-0.0579235 0.000974731 0)
(-0.0501312 -0.018731 0)
(-0.0354313 -0.0244262 0)
(-0.0109815 -0.0323948 0)
(0.0208107 -0.0473181 0)
(0.0571636 -0.0663915 0)
(0.0931089 -0.0901141 0)
(0.124373 -0.116429 0)
(0.150503 -0.142759 0)
(0.169932 -0.169175 0)
(0.175788 -0.197746 0)
(0.129812 -0.224656 0)
(-0.010948 -0.231432 0)
(-0.160159 -0.187651 0)
(-0.396573 0.0284465 0)
(-0.697619 0.408385 0)
(0.0207437 0.217717 0)
(0.0297271 0.162824 0)
(0.0186673 0.173056 0)
(0.0254568 0.151048 0)
(0.0250773 0.121192 0)
(0.0218285 0.0894088 0)
(0.0164611 0.0552491 0)
(0.00756452 0.0190602 0)
(-0.000583187 -0.0205434 0)
(-0.00352878 -0.0683115 0)
(0.000315118 -0.12026 0)
(0.00745455 -0.163963 0)
(0.0156173 -0.193912 0)
(0.0219371 -0.21327 0)
(0.0229246 -0.225848 0)
(0.0144154 -0.23199 0)
(-0.00991577 -0.220539 0)
(-0.0551569 -0.165571 0)
(-0.127547 -0.0834193 0)
(-0.252759 -0.0104952 0)
(-0.433685 0.091925 0)
(-0.660892 0.296097 0)
(-0.892969 0.593153 0)
(0.0216498 0.187504 0)
(0.036746 0.165581 0)
(0.0460229 0.162982 0)
(0.0605462 0.143725 0)
(0.0682258 0.118615 0)
(0.0704745 0.091363 0)
(0.0683332 0.0628483 0)
(0.0625879 0.0334571 0)
(0.0539141 0.00383173 0)
(0.0438822 -0.027322 0)
(0.0332809 -0.0605663 0)
(0.02037 -0.0912779 0)
(0.00515305 -0.115972 0)
(-0.0131923 -0.134086 0)
(-0.0373459 -0.14487 0)
(-0.0718053 -0.144917 0)
(-0.121692 -0.124693 0)
(-0.188861 -0.0695437 0)
(-0.275585 0.0223486 0)
(-0.392168 0.133501 0)
(-0.544372 0.282176 0)
(-0.716545 0.49524 0)
(-0.871613 0.754277 0)
(0.019264 0.159334 0)
(0.0404686 0.153528 0)
(0.0590106 0.14805 0)
(0.0767371 0.132864 0)
(0.0885234 0.112637 0)
(0.0945554 0.0895926 0)
(0.0954079 0.0647449 0)
(0.0916494 0.038358 0)
(0.0838608 0.0104069 0)
(0.0719619 -0.0184085 0)
(0.0553514 -0.0474932 0)
(0.0333972 -0.0734248 0)
(0.00652615 -0.09312 0)
(-0.0255606 -0.104755 0)
(-0.0643493 -0.106043 0)
(-0.112987 -0.0925996 0)
(-0.174425 -0.0562052 0)
(-0.248717 0.0132325 0)
(-0.333715 0.11802 0)
(-0.432625 0.252777 0)
(-0.547442 0.421454 0)
(-0.664347 0.630312 0)
(-0.759074 0.857123 0)
(0.0169007 0.131346 0)
(0.0395722 0.131748 0)
(0.0607761 0.127488 0)
(0.0793478 0.117094 0)
(0.0929269 0.102467 0)
(0.101178 0.0848205 0)
(0.104246 0.0649079 0)
(0.102316 0.043176 0)
(0.0954746 0.0199474 0)
(0.0833077 -0.00430322 0)
(0.0650489 -0.0281077 0)
(0.0403101 -0.048531 0)
(0.0093741 -0.0626176 0)
(-0.0279908 -0.0677153 0)
(-0.0722918 -0.0605749 0)
(-0.12511 -0.0364963 0)
(-0.187338 0.0116418 0)
(-0.257339 0.0907748 0)
(-0.331913 0.202777 0)
(-0.410057 0.345098 0)
(-0.489792 0.516287 0)
(-0.561282 0.711359 0)
(-0.609834 0.907847 0)
(0.0141987 0.10566 0)
(0.0353335 0.108644 0)
(0.0558034 0.10666 0)
(0.0736683 0.100438 0)
(0.087535 0.0907475 0)
(0.0968221 0.0782372 0)
(0.101336 0.0634666 0)
(0.100936 0.0469297 0)
(0.0953909 0.0291649 0)
(0.0842063 0.0109244 0)
(0.0667533 -0.00637717 0)
(0.0426902 -0.0202219 0)
(0.0121546 -0.0278398 0)
(-0.0250074 -0.0262333 0)
(-0.0686403 -0.0117672 0)
(-0.11893 0.0201888 0)
(-0.175236 0.0750083 0)
(-0.235204 0.157736 0)
(-0.295258 0.270508 0)
(-0.352297 0.411075 0)
(-0.40262 0.574688 0)
(-0.439118 0.751703 0)
(-0.453481 0.920681 0)
(0.0114112 0.0840064 0)
(0.0296844 0.0878337 0)
(0.0478318 0.0878519 0)
(0.0639674 0.0848344 0)
(0.0770588 0.0790674 0)
(0.0864237 0.0709118 0)
(0.0916622 0.0607988 0)
(0.09243 0.0492304 0)
(0.0883433 0.0368468 0)
(0.0789172 0.0245496 0)
(0.0636231 0.0137504 0)
(0.042172 0.00646399 0)
(0.0146455 0.00527248 0)
(-0.018929 0.0131892 0)
(-0.0579837 0.0336937 0)
(-0.101793 0.0706396 0)
(-0.148869 0.128541 0)
(-0.19651 0.211298 0)
(-0.241036 0.320368 0)
(-0.27862 0.453456 0)
(-0.305206 0.604533 0)
(-0.315848 0.762467 0)
(-0.306094 0.907559 0)
(0.00879764 0.0666126 0)
(0.0238356 0.0702282 0)
(0.0390881 0.071632 0)
(0.0529822 0.0709453 0)
(0.0646615 0.06819 0)
(0.0734374 0.0635739 0)
(0.0788243 0.0574462 0)
(0.080387 0.0502924 0)
(0.0776909 0.0427766 0)
(0.0702881 0.0358213 0)
(0.0577658 0.0307412 0)
(0.0398961 0.0293386 0)
(0.0167651 0.0338463 0)
(-0.0113769 0.0469728 0)
(-0.0437665 0.0718519 0)
(-0.0791634 0.111839 0)
(-0.115741 0.170477 0)
(-0.150688 0.250661 0)
(-0.180416 0.3533 0)
(-0.201118 0.476047 0)
(-0.209104 0.612692 0)
(-0.200961 0.752268 0)
(-0.174685 0.877452 0)
(0.00648399 0.0531303 0)
(0.0183724 0.0559491 0)
(0.0306839 0.0581493 0)
(0.0421985 0.0590687 0)
(0.052181 0.0585475 0)
(0.0599918 0.0567041 0)
(0.0651413 0.0538319 0)
(0.0671852 0.050387 0)
(0.0657044 0.0470133 0)
(0.0603128 0.0445926 0)
(0.0507026 0.0443205 0)
(0.0367364 0.0477673 0)
(0.01855 0.0568806 0)
(-0.00344183 0.0740148 0)
(-0.0284064 0.101877 0)
(-0.0548906 0.143183 0)
(-0.0809738 0.200715 0)
(-0.103934 0.276607 0)
(-0.120467 0.371339 0)
(-0.127124 0.482625 0)
(-0.120802 0.604648 0)
(-0.0992466 0.727422 0)
(-0.0616547 0.836139 0)
(0.00451104 0.0430986 0)
(0.0135418 0.0448209 0)
(0.0231131 0.0473362 0)
(0.0323306 0.049274 0)
(0.0405644 0.0503331 0)
(0.0472514 0.0505704 0)
(0.0519435 0.0502365 0)
(0.0542363 0.0497503 0)
(0.0537647 0.0497121 0)
(0.0502212 0.0509333 0)
(0.0433969 0.0544797 0)
(0.0332467 0.0617091 0)
(0.0199673 0.0742842 0)
(0.00406376 0.0941766 0)
(-0.013592 0.123671 0)
(-0.031535 0.164912 0)
(-0.0479004 0.220049 0)
(-0.0601932 0.290626 0)
(-0.0654888 0.376826 0)
(-0.0608317 0.476542 0)
(-0.0437352 0.584626 0)
(-0.0126947 0.692381 0)
(0.0327991 0.787592 0)
(0.00286553 0.0360031 0)
(0.00941182 0.0365075 0)
(0.0165474 0.0389767 0)
(0.023663 0.0414678 0)
(0.0302294 0.0435679 0)
(0.0357705 0.0452849 0)
(0.0399008 0.0468306 0)
(0.0422786 0.048582 0)
(0.0426103 0.0510825 0)
(0.040672 0.0550585 0)
(0.0363456 0.061443 0)
(0.0296697 0.0713972 0)
(0.0208992 0.086319 0)
(0.0105733 0.107834 0)
(-0.000411104 0.137756 0)
(-0.0107154 0.177886 0)
(-0.0185743 0.229758 0)
(-0.0218118 0.294492 0)
(-0.0179288 0.372084 0)
(-0.00445158 0.460739 0)
(0.0207309 0.556217 0)
(0.0585547 0.650615 0)
(0.109088 0.733686 0)
(0.001529 0.0313903 0)
(0.00596659 0.030631 0)
(0.0109958 0.032789 0)
(0.0162516 0.0354712 0)
(0.0212982 0.0381747 0)
(0.025747 0.0408637 0)
(0.0292809 0.043712 0)
(0.0316278 0.0470505 0)
(0.032568 0.0513593 0)
(0.0319567 0.0572742 0)
(0.0297554 0.0655979 0)
(0.0260721 0.0773111 0)
(0.0212093 0.0935745 0)
(0.0157174 0.115714 0)
(0.010458 0.14516 0)
(0.00665187 0.183318 0)
(0.00586598 0.231388 0)
(0.00998687 0.290151 0)
(0.0211241 0.359482 0)
(0.0413249 0.437771 0)
(0.0722779 0.52134 0)
(0.114678 0.603875 0)
(0.168308 0.67684 0)
(0.000445293 0.02882 0)
(0.00313225 0.0268187 0)
(0.00638538 0.028476 0)
(0.0100352 0.0310722 0)
(0.0137359 0.0340299 0)
(0.0171822 0.0372722 0)
(0.0201234 0.0409343 0)
(0.0223539 0.0452989 0)
(0.0237227 0.0507806 0)
(0.0241538 0.0579244 0)
(0.0236734 0.0674094 0)
(0.0224424 0.0800527 0)
(0.020795 0.096806 0)
(0.019279 0.118738 0)
(0.0186986 0.146982 0)
(0.0201433 0.182625 0)
(0.0249801 0.226562 0)
(0.0348231 0.279318 0)
(0.0514382 0.340708 0)
(0.0765217 0.409377 0)
(0.111398 0.482294 0)
(0.156548 0.55434 0)
(0.211683 0.618545 0)
(-0.000378816 0.0278776 0)
(0.000844579 0.0247058 0)
(0.00261268 0.0257473 0)
(0.00490008 0.0280535 0)
(0.00743232 0.0309935 0)
(0.00997851 0.0344519 0)
(0.0123491 0.0385263 0)
(0.0143975 0.0434508 0)
(0.0160313 0.049575 0)
(0.0172309 0.0573567 0)
(0.0180715 0.0673609 0)
(0.0187502 0.0802581 0)
(0.0196162 0.0968187 0)
(0.0212011 0.117895 0)
(0.0242468 0.144377 0)
(0.0297207 0.177103 0)
(0.0388054 0.216742 0)
(0.0528672 0.26364 0)
(0.0733745 0.317581 0)
(0.101713 0.37744 0)
(0.138927 0.440772 0)
(0.18534 0.503492 0)
(0.240681 0.559994 0)
(-0.00105447 0.0282454 0)
(-0.000973695 0.0239769 0)
(-0.000433915 0.0243347 0)
(0.000714064 0.0262105 0)
(0.00224694 0.028926 0)
(0.00399596 0.0323367 0)
(0.00582574 0.0365035 0)
(0.00763948 0.0416135 0)
(0.00939269 0.0479537 0)
(0.0111088 0.055901 0)
(0.0128977 0.0659167 0)
(0.0149773 0.0785424 0)
(0.0176974 0.0943927 0)
(0.0215626 0.114139 0)
(0.0272509 0.138474 0)
(0.0356196 0.168043 0)
(0.0476911 0.203345 0)
(0.0646184 0.244608 0)
(0.0876136 0.291614 0)
(0.117805 0.343443 0)
(0.156011 0.398161 0)
(0.202466 0.452559 0)
(0.25696 0.502188 0)
(-0.0015962 0.0296614 0)
(-0.00240711 0.0243705 0)
(-0.00285167 0.0240083 0)
(-0.00264734 0.025355 0)
(-0.00196435 0.0276951 0)
(-0.000915597 0.0308585 0)
(0.000405452 0.0348724 0)
(0.00194294 0.0398788 0)
(0.00368921 0.0461057 0)
(0.00569874 0.0538562 0)
(0.00810343 0.0634998 0)
(0.0111293 0.0754663 0)
(0.0151151 0.0902374 0)
(0.0205305 0.108334 0)
(0.0279884 0.130288 0)
(0.0382462 0.156593 0)
(0.052189 0.187622 0)
(0.0707926 0.223529 0)
(0.0950613 0.264115 0)
(0.125909 0.308647 0)
(0.16399 0.355623 0)
(0.209481 0.402562 0)
(0.262251 0.445979 0)
(-0.00201111 0.0318837 0)
(-0.00351442 0.025657 0)
(-0.00474207 0.0245615 0)
(-0.00530564 0.0253183 0)
(-0.00533485 0.027183 0)
(-0.00489729 0.0299578 0)
(-0.004052 0.0336376 0)
(-0.00282305 0.0383236 0)
(-0.0011906 0.0441918 0)
(0.000920948 0.051481 0)
(0.00365569 0.06048 0)
(0.00723724 0.0715195 0)
(0.0119845 0.0849709 0)
(0.0183264 0.10123 0)
(0.0268105 0.120697 0)
(0.0381018 0.143743 0)
(0.0529667 0.170648 0)
(0.0722367 0.201521 0)
(0.0967501 0.236198 0)
(0.127258 0.274113 0)
(0.164288 0.314121 0)
(0.207993 0.354341 0)
(0.258322 0.392083 0)
(-0.0023123 0.0347181 0)
(-0.0043435 0.0276332 0)
(-0.00618515 0.0258162 0)
(-0.00736664 0.0259551 0)
(-0.00798803 0.0272812 0)
(-0.00808102 0.0295722 0)
(-0.00767716 0.0327941 0)
(-0.00677704 0.0370112 0)
(-0.00534189 0.0423528 0)
(-0.00328457 0.0489977 0)
(-0.000458847 0.0571657 0)
(0.00335363 0.0671131 0)
(0.00844567 0.079111 0)
(0.0152009 0.0934525 0)
(0.0241017 0.110431 0)
(0.0357273 0.130318 0)
(0.0507392 0.15332 0)
(0.0698492 0.179517 0)
(0.093767 0.208789 0)
(0.123119 0.240713 0)
(0.15835 0.274445 0)
(0.1996 0.308586 0)
(0.246897 0.341096 0)
(-0.00251537 0.0379951 0)
(-0.00493178 0.0301325 0)
(-0.00724354 0.0276229 0)
(-0.00891625 0.0271406 0)
(-0.0100266 0.0278965 0)
(-0.0105787 0.0296471 0)
(-0.0105829 0.0323324 0)
(-0.0100229 0.035984 0)
(-0.00884765 0.040691 0)
(-0.00696503 0.0465828 0)
(-0.0042335 0.0538179 0)
(-0.0004523 0.0625802 0)
(0.00465108 0.0730767 0)
(0.011413 0.085507 0)
(0.0202506 0.100077 0)
(0.0316627 0.116977 0)
(0.0462168 0.136353 0)
(0.0645218 0.158265 0)
(0.0871844 0.18263 0)
(0.114742 0.209152 0)
(0.147577 0.237228 0)
(0.185845 0.265849 0)
(0.229638 0.293509 0)
(-0.00262774 0.0415675 0)
(-0.00531026 0.0330163 0)
(-0.00796927 0.0298549 0)
(-0.0100247 0.0287672 0)
(-0.0115346 0.0289473 0)
(-0.0124819 0.0301324 0)
(-0.0128611 0.0322397 0)
(-0.0126441 0.0352727 0)
(-0.011773 0.0392863 0)
(-0.0101554 0.0443682 0)
(-0.00765836 0.0506278 0)
(-0.00410102 0.0581895 0)
(0.000755556 0.0671925 0)
(0.00721407 0.0777825 0)
(0.0156272 0.0900847 0)
(0.0264176 0.104222 0)
(0.0400668 0.12029 0)
(0.0570929 0.13833 0)
(0.0780165 0.158289 0)
(0.103304 0.179969 0)
(0.133304 0.202962 0)
(0.168187 0.22657 0)
(0.208106 0.249718 0)
(-0.0026579 0.0453032 0)
(-0.00550403 0.0361612 0)
(-0.00840478 0.0324031 0)
(-0.0107493 0.0307424 0)
(-0.0125805 0.0303613 0)
(-0.0138648 0.0309811 0)
(-0.0145853 0.032499 0)
(-0.0147061 0.0348948 0)
(-0.0141663 0.0381949 0)
(-0.0128769 0.0424528 0)
(-0.0107157 0.0477383 0)
(-0.0075223 0.0541287 0)
(-0.00309203 0.0617068 0)
(0.00283557 0.0705641 0)
(0.0105668 0.080779 0)
(0.02045 0.0924124 0)
(0.0328877 0.105516 0)
(0.0483159 0.120111 0)
(0.0671778 0.136162 0)
(0.0898819 0.153545 0)
(0.116749 0.172001 0)
(0.147973 0.191074 0)
(0.183758 0.210032 0)
(-0.00261451 0.049087 0)
(-0.00553585 0.0394613 0)
(-0.0085859 0.0351729 0)
(-0.0111376 0.032985 0)
(-0.0132203 0.0320739 0)
(-0.0147878 0.0321479 0)
(-0.0158145 0.0330883 0)
(-0.0162599 0.0348553 0)
(-0.0160632 0.0374518 0)
(-0.015141 0.040904 0)
(-0.0133831 0.0452498 0)
(-0.0106494 0.0505299 0)
(-0.0067655 0.0567845 0)
(-0.00151715 0.0640535 0)
(0.00536013 0.0723812 0)
(0.0141542 0.0817847 0)
(0.0251932 0.0922761 0)
(0.0388376 0.103855 0)
(0.0554599 0.116492 0)
(0.0754127 0.130113 0)
(0.0989944 0.144564 0)
(0.126411 0.159571 0)
(0.157907 0.174668 0)
(-0.00250602 0.0528158 0)
(-0.00542593 0.0428238 0)
(-0.00854436 0.0380814 0)
(-0.0112308 0.0354232 0)
(-0.0135016 0.0340258 0)
(-0.0153008 0.0335888 0)
(-0.0165964 0.0339812 0)
(-0.0173457 0.0351478 0)
(-0.0174902 0.0370733 0)
(-0.0169533 0.0397619 0)
(-0.0156376 0.0432263 0)
(-0.013422 0.0474791 0)
(-0.0101593 0.0525281 0)
(-0.00567283 0.0583762 0)
(0.000248992 0.0650252 0)
(0.00785483 0.0724747 0)
(0.0174039 0.0807 0)
(0.0291879 0.0896798 0)
(0.0435126 0.0993839 0)
(0.0606775 0.109764 0)
(0.0809491 0.120735 0)
(0.104541 0.132149 0)
(0.131717 0.143738 0)
(-0.00234148 0.0564009 0)
(-0.00519479 0.0461678 0)
(-0.00831005 0.0410556 0)
(-0.011066 0.0379917 0)
(-0.0134662 0.0361611 0)
(-0.0154466 0.035259 0)
(-0.0169711 0.035146 0)
(-0.0179964 0.0357561 0)
(-0.0184679 0.0370596 0)
(-0.0183167 0.0390439 0)
(-0.0174581 0.041702 0)
(-0.0157887 0.0450244 0)
(-0.0131848 0.0489953 0)
(-0.00950148 0.0535906 0)
(-0.00457014 0.0587811 0)
(0.00180668 0.0645379 0)
(0.00984835 0.0708273 0)
(0.0197783 0.077603 0)
(0.0318419 0.0848281 0)
(0.0462843 0.0924657 0)
(0.0633382 0.100471 0)
(0.0832041 0.108775 0)
(0.10615 0.117243 0)
(-0.00213056 0.0597664 0)
(-0.00486316 0.0494232 0)
(-0.0079132 0.0440303 0)
(-0.0106797 0.0406308 0)
(-0.0131532 0.0384261 0)
(-0.0152642 0.0371123 0)
(-0.0169738 0.0365461 0)
(-0.0182402 0.0366543 0)
(-0.0190136 0.0373969 0)
(-0.0192337 0.0387483 0)
(-0.0188276 0.0406862 0)
(-0.017708 0.0431841 0)
(-0.0157719 0.046208 0)
(-0.0129003 0.0497153 0)
(-0.0089581 0.053656 0)
(-0.00379317 0.0579773 0)
(0.00276827 0.0626306 0)
(0.0109092 0.0675651 0)
(0.0208132 0.0727304 0)
(0.0326758 0.0780913 0)
(0.0466876 0.0836218 0)
(0.0630289 0.0892955 0)
(0.0819493 0.0950616 0)
(-0.00188465 0.0628538 0)
(-0.00445511 0.0525322 0)
(-0.00738687 0.0469483 0)
(-0.0101099 0.0432845 0)
(-0.0126023 0.0407675 0)
(-0.0147915 0.0391001 0)
(-0.016638 0.0381393 0)
(-0.0181033 0.037808 0)
(-0.0191437 0.0380593 0)
(-0.0197078 0.0388578 0)
(-0.0197339 0.0401688 0)
(-0.0191491 0.0419527 0)
(-0.0178676 0.0441619 0)
(-0.015792 0.0467399 0)
(-0.0128139 0.0496238 0)
(-0.00881436 0.0527467 0)
(-0.00366366 0.0560439 0)
(0.00278149 0.0594587 0)
(0.0106674 0.0629403 0)
(0.020136 0.066447 0)
(0.0313399 0.0699577 0)
(0.0444256 0.0734652 0)
(0.059613 0.0769604 0)
(-0.00161853 0.0656181 0)
(-0.00399891 0.0554493 0)
(-0.00676996 0.0497597 0)
(-0.0093997 0.0458996 0)
(-0.0118564 0.0431314 0)
(-0.014068 0.04117 0)
(-0.0159976 0.0398769 0)
(-0.0176123 0.0391743 0)
(-0.0188757 0.0390105 0)
(-0.0197454 0.0393421 0)
(-0.0201707 0.0401246 0)
(-0.0200907 0.0413075 0)
(-0.0194347 0.0428326 0)
(-0.0181228 0.0446339 0)
(-0.0160675 0.0466397 0)
(-0.0131752 0.0487757 0)
(-0.00934737 0.0509693 0)
(-0.00448018 0.0531549 0)
(0.00153673 0.0552796 0)
(0.00881724 0.0573041 0)
(0.0174677 0.0592032 0)
(0.0276048 0.0609727 0)
(0.0394089 0.0626201 0)
(-0.00135294 0.068038 0)
(-0.00353145 0.0581444 0)
(-0.00611035 0.0524218 0)
(-0.00859943 0.0484243 0)
(-0.0109633 0.0454608 0)
(-0.0131363 0.0432644 0)
(-0.0150888 0.0417037 0)
(-0.0167957 0.0407021 0)
(-0.0182297 0.0402041 0)
(-0.0193575 0.0401598 0)
(-0.0201384 0.0405157 0)
(-0.0205225 0.0412124 0)
(-0.0204517 0.0421827 0)
(-0.0198603 0.0433537 0)
(-0.0186775 0.0446484 0)
(-0.0168291 0.0459887 0)
(-0.0142391 0.0472993 0)
(-0.0108304 0.0485119 0)
(-0.00652443 0.0495691 0)
(-0.00124089 0.0504297 0)
(0.00510979 0.0510693 0)
(0.0126062 0.0514803 0)
(0.0213918 0.0516697 0)
(-0.00111795 0.0701207 0)
(-0.00310085 0.0606056 0)
(-0.00546841 0.0548986 0)
(-0.00776894 0.0508054 0)
(-0.00997726 0.0476938 0)
(-0.0120436 0.0453187 0)
(-0.0139512 0.0435569 0)
(-0.0156862 0.0423324 0)
(-0.017231 0.041586 0)
(-0.018562 0.0412608 0)
(-0.0196472 0.0412954 0)
(-0.0204469 0.0416218 0)
(-0.0209138 0.042166 0)
(-0.0209945 0.0428491 0)
(-0.0206314 0.0435909 0)
(-0.0197648 0.0443116 0)
(-0.0183349 0.044936 0)
(-0.0162823 0.0453959 0)
(-0.0135484 0.0456337 0)
(-0.0100745 0.0456055 0)
(-0.00579899 0.0452839 0)
(-0.000658446 0.044657 0)
(0.00546251 0.0437262 0)
(-0.000964402 0.0719233 0)
(-0.00277532 0.0628427 0)
(-0.00492008 0.0571572 0)
(-0.00697711 0.0529845 0)
(-0.00895726 0.0497605 0)
(-0.0108403 0.0472608 0)
(-0.0126289 0.0453666 0)
(-0.0143227 0.0439998 0)
(-0.0159144 0.0430953 0)
(-0.0173887 0.0425887 0)
(-0.0187226 0.0424105 0)
(-0.0198855 0.0424853 0)
(-0.0208402 0.0427325 0)
(-0.0215439 0.0430689 0)
(-0.0219501 0.043411 0)
(-0.0220101 0.0436784 0)
(-0.0216744 0.0437963 0)
(-0.0208938 0.0436975 0)
(-0.0196199 0.0433255 0)
(-0.017805 0.0426364 0)
(-0.0153992 0.0415998 0)
(-0.0123543 0.0401981 0)
(-0.00858278 0.0384273 0)
(-0.000990861 0.0735878 0)
(-0.00264774 0.0648853 0)
(-0.00455467 0.059159 0)
(-0.00629539 0.0548902 0)
(-0.00796138 0.0515799 0)
(-0.00957817 0.0490113 0)
(-0.0111722 0.047059 0)
(-0.012756 0.0456362 0)
(-0.0143311 0.0446692 0)
(-0.0158897 0.0440849 0)
(-0.0174171 0.0438066 0)
(-0.0188916 0.0437518 0)
(-0.0202862 0.0438342 0)
(-0.0215681 0.0439661 0)
(-0.0227001 0.0440606 0)
(-0.023641 0.0440354 0)
(-0.0243465 0.0438144 0)
(-0.0247702 0.0433308 0)
(-0.0248652 0.0425285 0)
(-0.0245841 0.0413638 0)
(-0.0238796 0.0398056 0)
(-0.0227047 0.0378329 0)
(-0.0209856 0.035436 0)
(-0.0013761 0.0753507 0)
(-0.00283536 0.0667576 0)
(-0.00445618 0.0608353 0)
(-0.00577902 0.0564284 0)
(-0.00703625 0.053061 0)
(-0.00830886 0.0504893 0)
(-0.00964335 0.0485624 0)
(-0.0110598 0.0471766 0)
(-0.0125648 0.046247 0)
(-0.0141572 0.0456925 0)
(-0.0158301 0.0454299 0)
(-0.0175718 0.0453714 0)
(-0.0193656 0.0454249 0)
(-0.0211884 0.0454974 0)
(-0.0230104 0.0454966 0)
(-0.0247941 0.0453351 0)
(-0.026495 0.0449328 0)
(-0.0280625 0.0442202 0)
(-0.029443 0.0431397 0)
(-0.0305809 0.0416475 0)
(-0.03142 0.0397126 0)
(-0.0319091 0.0373143 0)
(-0.0319734 0.0344408 0)
(-0.00238563 0.0775601 0)
(-0.00343461 0.0684207 0)
(-0.0046443 0.0620616 0)