/*--------------------------------*- C++ -*----------------------------------*\
  =========                 |
  \\      /  F ield         | OpenFOAM: The Open Source CFD Toolbox
   \\    /   O peration     | Website:  https://openfoam.org
    \\  /    A nd           | Version:  13
     \\/     M anipulation  |
\*---------------------------------------------------------------------------*/
FoamFile
{
    format      ascii;
    class       volScalarField;
    location    "1.65";
    object      alpha.air;
}
// * * * * * * * * * * * * * * * * * * * * * * * * * * * * * * * * * * * * * //

dimensions      [];

internalField   nonuniform List<scalar> 
2268
(
1.45905e-13
2.3089e-13
3.49859e-13
2.83363e-13
2.34581e-13
1.85183e-13
1.31133e-13
8.45801e-14
4.84816e-14
2.57659e-14
1.52999e-14
9.49062e-15
5.87302e-15
3.31739e-15
1.58255e-15
8.12058e-16
7.62519e-16
1.07258e-15
2.87725e-15
1.35469e-14
2.82878e-14
4.66521e-14
1.52103e-13
7.31194e-13
1.8915e-12
2.06388e-12
1.70367e-12
1.50641e-12
1.27539e-12
9.86079e-13
6.95464e-13
4.28714e-13
2.30878e-13
1.32667e-13
7.9394e-14
5.164e-14
3.11864e-14
1.76135e-14
9.38171e-15
7.229e-15
8.20474e-15
1.4385e-14
3.44741e-14
1.10439e-13
3.3348e-13
1.01983e-12
3.00231e-12
5.59649e-12
5.22958e-12
4.40606e-12
3.76539e-12
3.35461e-12
2.85064e-12
2.20989e-12
1.46045e-12
8.49783e-13
5.1214e-13
3.1923e-13
2.08446e-13
1.56956e-13
1.04019e-13
5.81404e-14
3.63712e-14
3.20986e-14
4.38144e-14
1.1523e-13
4.05712e-13
1.20429e-12
1.97812e-12
1.27535e-11
2.24016e-11
2.54456e-11
2.3245e-11
1.80524e-11
1.29187e-11
9.60493e-12
6.91829e-12
4.68528e-12
2.98256e-12
1.88756e-12
1.22738e-12
7.57775e-13
5.46989e-13
4.32016e-13
3.01008e-13
1.91142e-13
6.34476e-13
1.37093e-13
5.17124e-13
1.0733e-12
1.50032e-12
7.46099e-11
1.10894e-10
1.30574e-10
1.35023e-10
1.24629e-10
1.01901e-10
7.36756e-11
4.95247e-11
3.36217e-11
2.44354e-11
1.73182e-11
1.13666e-11
7.26324e-12
4.73604e-12
4.05528e-12
3.89495e-12
2.7283e-12
2.9089e-12
4.71209e-11
1.75476e-10
1.79307e-10
3.89541e-11
1.20525e-11
1.64939e-09
5.32573e-10
4.19662e-10
3.52486e-10
3.20565e-10
3.08469e-10
3.20855e-10
3.18998e-10
2.76476e-10
2.22636e-10
1.62056e-10
9.28794e-11
4.98063e-11
2.94054e-11
2.19952e-11
2.36461e-11
4.29269e-11
2.01447e-10
9.78453e-10
2.21925e-09
5.03793e-09
2.37491e-09
3.44036e-08
1.49488e-08
1.4568e-09
8.98545e-10
5.91276e-10
4.83043e-10
4.8404e-10
6.27933e-10
8.58705e-10
8.39908e-10
7.42536e-10
5.98443e-10
4.5001e-10
3.01958e-10
1.82062e-10
1.06456e-10
7.66514e-11
6.74474e-11
3.00856e-10
1.87792e-09
1.07913e-08
1.04494e-07
3.90059e-08
8.0487e-07
1.41353e-08
2.64629e-09
1.6782e-09
9.45563e-10
6.8244e-10
6.84337e-10
1.07198e-09
1.85873e-09
1.93405e-09
1.78253e-09
1.31196e-09
1.01419e-09
7.16608e-10
4.69351e-10
3.05184e-10
2.4093e-10
2.29826e-10
4.66952e-10
7.67457e-10
9.56894e-11
5.50025e-07
9.45357e-06
1.19572e-05
1.52275e-08
0.000390162
0.00789236
0.0365091
0.0531412
0.0763122
0.0763494
0.0675144
0.0544449
0.0491277
0.0733033
0.172439
0.11183
0.0831815
0.0194122
0.0152885
0.0149364
0.0148484
0.0168393
0.015086
0.000368715
0.000357726
0.000125314
0.000105743
0.00668891
0.0188773
0.022308
0.0195944
0.0195393
0.0423815
0.173879
0.299331
0.301727
0.218677
0.153689
0.123232
0.110162
0.0938907
0.0195932
0.000385331
0.00555474
0.00794677
0.00237038
0.000167748
5.62746e-06
0.0400782
0.133229
0.251671
0.201707
0.250919
0.375167
0.49606
0.496191
0.489894
0.413286
0.388262
0.279232
0.0828211
0.0132022
0.0118341
0.0144465
0.0150764
0.00264407
2.63986e-05
0.00528054
0.38164
0.55655
0.555328
0.55548
0.544061
0.426321
0.18825
0.137142
0.238273
0.262104
0.188291
0.0977107
0.0278789
0.0356443
0.0142168
0.0117317
0.00773248
0.000245904
5.97741e-05
0.225053
0.558944
0.560628
0.559689
0.560318
0.389483
0.0213685
0.000581009
0.000637815
0.00126429
0.000622159
0.0300617
0.0257105
0.0458019
0.0376243
0.00820029
0.00540467
0.00163756
0.000172088
0.00446447
0.223155
0.371668
0.358122
0.337138
0.179729
0.0284026
0.00257634
0.000432221
0.0010893
0.0162138
0.102222
0.0038845
0.0264721
0.0880582
0.0945247
0.0610357
0.0117388
5.79698e-05
5.83298e-05
1.63961e-08
0.00779576
0.00522317
0.00368158
2.65079e-05
0.00065244
8.36788e-05
5.99308e-06
3.05985e-08
0.0558519
0.117854
0.00552849
0.00384229
0.0902825
0.201442
0.139439
0.086017
0.00599496
1.03775e-05
4.60112e-08
6.86882e-13
4.62025e-21
1.10373e-07
2.52921e-13
3.52995e-08
6.89217e-06
1.38608e-06
8.59669e-10
0.051477
0.117055
3.95357e-09
2.91559e-09
1.04607e-09
1.26059e-09
1.43486e-09
1.86731e-09
3.71737e-09
4.19302e-09
3.88852e-09
3.53781e-09
2.98097e-09
2.14209e-09
1.42619e-09
9.37155e-10
5.66084e-10
4.21287e-10
5.27502e-10
4.09652e-10
8.25052e-11
3.64887e-07
4.3316e-05
0.000227314
0.000505388
1.35818e-08
2.90988e-09
1.05749e-09
1.32304e-09
1.7505e-09
5.00958e-09
9.84786e-09
1.23278e-08
1.21738e-08
1.27145e-08
1.31992e-08
1.31564e-08
1.23492e-08
1.02566e-08
9.48901e-09
7.57233e-09
1.60821e-09
1.85027e-09
1.1201e-08
3.78762e-05
0.0004501
0.00223945
0.00414731
0.00016963
0.00200015
0.00190136
0.000628315
1.3749e-07
2.90045e-08
1.31778e-08
1.42629e-08
1.42906e-08
1.46046e-08
1.49714e-08
1.58225e-08
8.07116e-09
1.17188e-09
1.4215e-09
2.29005e-08
7.61062e-08
1.57557e-07
3.50826e-05
0.00153959
0.00679238
0.0243059
0.0321857
0.136094
0.0568384
0.0240267
0.00745517
0.010182
0.0214729
0.0422623
0.0558127
0.0530341
0.048963
0.0554635
0.0696612
0.0735162
0.0663777
0.0472041
0.0452475
0.0562792
0.0811041
0.107054
0.113336
0.106588
0.104609
0.101804
0.254061
0.071479
0.00820932
0.00759527
0.034258
0.160878
0.2067
0.206658
0.204128
0.214135
0.215539
0.216196
0.216741
0.216475
0.197201
0.18666
0.217005
0.220617
0.210861
0.169596
0.111138
0.077138
0.0262758
0.238655
0.0180769
0.0176364
0.0174543
0.0273082
0.107384
0.111019
0.0612061
0.0458393
0.0634973
0.0781769
0.07792
0.0669282
0.0449605
0.037431
0.0404718
0.0344845
0.0220165
0.0011401
0.000882112
0.00037442
-2.76374e-09
8.86613e-08
0.173527
0.0544613
0.0655018
0.0474664
0.0392388
0.0298581
0.0235435
0.0188381
0.0162319
0.0147331
0.0139896
0.0138448
0.0142517
0.0154075
0.0182257
0.023002
0.0289431
0.0376842
0.0499419
0.0702212
0.0997962
0.131357
0.164956
0.429484
0.551567
0.617286
0.669248
0.670441
0.646745
0.635868
0.633047
0.625586
0.615219
0.60782
0.606115
0.611492
0.623453
0.640709
0.661322
0.68718
0.721952
0.765806
0.814862
0.861111
0.897397
0.925218
0.886584
0.87766
0.9646
0.999989
1
1
1
1
1
1
1
0.999999
1
1
1
1
1
1
1
1
1
1
1
0.999999
0.986985
0.985847
0.998518
0.999995
1
1
1
1
1
0.999999
0.999999
1
1
1
1
1
1
1
1
1
1
1
0.999999
0.999999
0.994121
0.999175
0.999996
1
1
1
0.999999
0.999994
0.999896
0.999937
0.999994
1
1
1
0.999999
0.999999
0.999999
0.999999
0.999999
1
1
0.999999
0.999968
0.999824
0.99969
0.999999
1
1
1
1
0.999887
0.999826
0.999825
0.999948
0.999999
0.999999
0.999998
0.999998
0.999999
0.999999
0.999999
0.999999
1
1
0.999999
0.999999
0.999999
1
1
1
1
1
1
0.999831
0.999826
0.999825
0.999925
0.999997
0.999997
0.999997
0.999997
0.999999
1
1
1
1
1
0.999999
0.999999
0.999999
1
1
1
1
1
1
0.999958
0.999833
0.999827
0.999958
0.999997
0.999997
0.999997
0.999999
1
1
1
1
1
1
1
0.999999
1
1
1
1
1
1
0.999998
1
0.999989
0.999965
0.999995
0.999997
0.999998
0.999999
1
1
1
1
1
1
1
1
1
1
1
1
1
1
1
1
1
1
1
1
0.999998
1
1
1
1
1
1
1
1
1
1
1
1
1
1
1
1
1
1
1
1
1
0.999999
0.999998
1
1
1
1
1
1
1
1
1
1
1
1
1
1
1
1
1
1
1
1
1
0.999999
0.999999
1
1
1
1
1
1
1
1
1
1
1
1
1
1
1
1
1
1
1
1
1
1
1
1
1
1
1
1
1
1
1
1
1
1
1
1
1
1
1
1
1
1
1
1
1
1
1
1
1
1
1
1
1
1
1
1
1
1
1
1
1
1
1
1
1
1
1
1
1
1
1
1
1
1
1
1
1
1
1
1
1
1
1
1
1
1
1
1
1
1
1
1
1
1
1
1
1
1
1
1
1
1
1
1
1
1
1
1
1
1
1
1
1
1
1
1
1
1
1
1
1
1
1
1
1
1
1
1
1
1
1
1
1
1
1
1
1
1
1
1
1
1
1
1
1
1
1
1
1
1
1
1
1
1
1
1
1
1
1
1
1
1
1
1
1
1
1
1
1
1
1
1
1
1
1
1
1
1
1
1
1
1
1
1
1
1
1
1
1
1
1
1
1
1
1
1
1
1
1
1
1
1
1
1
1
1
1
1
1
1
1
1
1
1
1
1
1
1
1
1
1
1
1
1
1
1
1
1
1
1
1
1
1
1
1
1
1
1
1
1
1
1
1
1
1
1
1
1
1
1
1
1
1
1
1
1
1
1
1
1
1
1
1
1
1
1
1
1
1
1
1
1
1
1
1
1
1
1
1
1
1
1
1
1
1
1
1
1
1
1
1
1
1
1
1
1
1
1
1
1
1
1
1
1
1
1
1
1
1
1
1
1
1
1
1
1
1
1
1
1
1
1
1
1
1
1
1
1
1
1
1
1
1
1
1
1
1
1
1
1
1
1
1
1
1
1
1
1
1
1
1
1
1
1
1
1
1
1
1
1
1
1
1
1
1
1
1
1
1
1
1
1
1
1
1
1
1
1
1
1
1
1
1
1
1
1
1
1
1
1
1
1
1
1
1
1
1
1
1
1
1
1
1
1
1
1
1
1
1
1
1
1
1
1
1
1
1
1
1
1
1
1
1
1
1
1
1
1
1
1
1
1
1
1
1
1
1
1
1
1
1
1
1
1
1
1
1
1
1
1
1
1
1
1
1
1
1
1
1
1
1
1
1
1
1
1
1
1
1
1
1
1
1
1
1
1
1
1
1
1
1
1
1
1
1
1
1
1
1
1
1
1
1
1
1
1
1
1
1
1
1
1
1
1
1
1
1
1
1
1
1
1
1
1
1
1
1
1
1
1
1
1
1
1
1
1
1
1
1
1
1
1
1
1
1
1
1
1
1
1
1
1
1
1
1
1
1
1
1
1
1
1
1
1
1
1
1
1
1
1
1
0.000504213
0.000445911
0.000595328
0.00523755
0.0047595
0.00503074
0.00750143
0.0182722
0.0346675
0.0429466
0.0501879
0.146968
0.0809871
0.176964
0.218353
0.222352
0.0224086
0.100832
0.133546
0.0401781
-6.53845e-15
6.54074e-15
1.3812e-18
-5.28335e-18
0.182685
0.177892
0.170682
0.15903
0.93602
0.93721
0.934079
0.92149
1
1
1
1
1
1
1
1
1
1
1
1
1
1
1
1
1
1
1
1
1
1
1
1
1
1
1
1
1
1
1
1
1
1
1
1
1
1
1
1
1
1
1
1
1
1
1
1
1
1
1
1
1
1
1
1
1
1
1
1
1
1
1
1
1
1
1
1
1
1
1
1
1
1
1
1
1
1
1
1
1
1
1
1
1
1
1
1
1
1
1
1
1
1
1
1
1
1
1
1
1
1
1
1
1
1
1
1
1
1
1
1
1
1
1
1
1
1
1
1
1
1
1
1
1
1
1
1
1
1
1
1
1
1
1
1
0.0248581
0.00693494
0.093336
0.202787
0.178185
0.126254
0.0573683
8.65286e-05
2.17905e-05
2.23085e-07
0
1.59746e-05
6.401e-05
0.000105029
0.00011693
6.26895e-06
9.2648e-09
0.00749668
0.0227221
0.0668509
0.0529944
0.173222
0.201442
0.0962927
0.0725334
0.131763
0.0932387
0.00176739
8.11101e-05
7.8137e-05
0.00121232
0.00161474
0.000414359
1.56663e-05
0.000398326
0.000431914
-4.18435e-06
0.0115423
0.182976
0.181805
0.182971
0.177265
0.0232839
9.27798e-05
0.0921114
0.155362
0.153544
0.090738
0.0377259
0.0154929
1.73719e-05
3.97974e-05
1.85298e-05
0.000447736
0.000551923
-1.11294e-18
0.00310149
0.115374
0.0270224
0.0463263
0.0239158
0.000931111
4.39356e-06
0.000106147
0.067483
0.173363
0.169914
0.121906
0.00502699
4.48879e-06
9.51837e-05
5.47722e-05
0.000177318
0.000501865
9.63981e-08
0.0061076
-2.52912e-19
-1.45186e-12
-1.07783e-11
-2.50459e-12
9.52662e-08
1.9792e-06
1.92827e-06
0.000209957
0.0483165
0.109122
0.0613911
0.00118407
8.32167e-06
0.000117691
9.17175e-05
5.91472e-06
3.20656e-05
1.44772e-07
0.0232592
2.52724e-18
4.41258e-20
3.65272e-08
1.03774e-07
1.88101e-07
2.09981e-06
1.93319e-06
7.00884e-09
2.91835e-19
0.000871944
0.00079712
0.000452709
1.20356e-05
5.69986e-05
6.2029e-05
6.43462e-06
3.00159e-07
2.5009e-08
0.0296234
0.139366
0.0989221
0.0492652
0.0140003
0.00067306
1.5243e-06
7.0753e-12
8.20373e-17
3.03162e-16
-1.30276e-21
4.90247e-12
6.96743e-05
1.44646e-05
8.75355e-07
3.49348e-06
3.4544e-06
5.25244e-07
2.50319e-08
0.0297705
0.89753
0.849606
0.761656
0.629609
0.462745
0.290193
0.152287
0.0409394
3.30525e-07
4.90247e-12
2.1181e-07
2.78602e-07
2.37642e-06
8.76716e-07
9.20921e-07
9.58329e-07
3.93897e-07
2.45726e-08
0.0299153
1
1
1
1
1
0.976441
0.888551
0.737441
0.491194
0.22417
0.0243547
2.16255e-06
1.34057e-06
9.58526e-07
8.47657e-07
5.01447e-07
1.30345e-07
2.65184e-05
0.00808126
1
1
1
1
1
1
1
0.999998
0.996109
0.918688
0.690515
0.31994
0.0733024
1.84023e-06
1.54029e-06
2.66251e-07
1.16482e-07
5.11259e-05
0.00206363
1
1
1
1
1
1
1
1
1
0.999996
0.99999
0.970777
0.798836
0.415362
0.0735523
1.68724e-08
2.63761e-11
9.3686e-06
0.000207313
1
1
1
1
0.999999
0.999999
1
1
0.999945
0.999999
0.999992
0.999996
0.99999
0.993541
0.831712
0.34688
0.00234736
4.28574e-08
1.50045e-07
1
1
1
0.999999
0.999999
1
0.999888
0.99931
0.998996
0.999345
1
1
0.999999
0.999998
0.999989
0.984101
0.697603
0.391884
0.461408
1
1
1
1
1
0.999999
0.999774
0.998974
0.998977
0.999236
1
0.999994
0.999893
0.999179
0.99986
0.999959
0.999905
0.98877
0.982061
1
1
1
1
0.999999
0.999998
0.999941
0.999743
0.999541
0.999882
1
0.999887
0.99788
0.9977
0.997777
0.998528
0.999553
0.999958
0.999762
1
1
1
1
1
1
0.999999
0.999999
0.999999
0.999999
0.999999
0.999878
0.998794
0.998221
0.998762
0.999197
0.999483
0.999957
1
1
1
1
1
1
1
1
1
1
0.999999
0.999994
0.999947
0.999998
0.999938
1
1
0.999959
0.999989
1
1
1
1
1
1
1
1
1
1
1
0.999998
0.999999
1
0.999999
1
1
1
1
1
1
1
1
1
1
1
1
1
1
1
1
1
1
1
1
1
1
1
0.999999
1
1
1
1
1
1
1
1
1
1
1
1
1
1
1
1
1
0.999999
0.999999
1
1
1
1
1
1
1
1
1
1
1
1
1
1
1
1
1
0.999999
0.999999
1
1
1
1
1
1
1
1
1
1
1
1
1
1
1
1
1
1
1
1
1
1
1
1
1
1
1
1
1
1
1
1
1
1
1
1
1
1
1
1
1
1
1
1
1
1
1
1
1
1
1
1
1
1
1
1
1
1
1
1
1
1
1
1
1
1
1
1
1
1
1
1
1
1
1
1
1
1
1
1
1
1
1
1
1
1
1
1
1
1
1
1
1
1
1
1
1
1
1
1
1
1
1
1
1
1
1
1
1
1
1
1
1
1
1
1
1
1
1
1
1
1
1
1
1
1
1
1
1
1
1
1
1
1
1
1
1
1
1
1
1
1
1
1
1
1
1
1
1
1
1
1
1
1
1
1
1
1
1
1
1
1
1
1
1
1
1
1
1
1
1
1
1
1
1
1
1
1
1
1
1
1
1
1
1
1
1
1
1
1
1
1
1
1
1
1
1
1
1
1
1
1
1
1
1
1
1
1
1
1
1
1
1
1
1
1
1
1
1
1
1
1
1
1
1
1
1
1
1
1
1
1
1
1
1
1
1
1
1
1
1
1
1
1
1
1
1
1
1
1
1
1
1
1
1
1
1
1
1
1
1
1
1
1
1
1
1
1
1
1
1
1
1
1
1
1
1
1
1
1
1
1
1
1
1
1
1
1
1
1
1
1
1
1
1
1
1
1
1
1
1
1
1
1
1
1
1
1
1
1
1
1
1
1
1
1
1
1
1
1
1
1
1
1
1
1
1
1
1
1
1
1
1
1
1
1
1
1
1
1
1
1
1
1
1
1
1
1
1
1
1
1
1
1
1
1
1
1
1
1
1
1
1
1
1
1
1
1
1
1
1
1
1
1
1
1
1
1
1
1
1
1
1
1
1
1
1
1
1
1
1
1
1
1
1
1
1
1
1
)
;

boundaryField
{
    leftWall
    {
        type            alphaContactAngle;
        contactAngleProperties 
        {
            mercury         
            {
                theta0          90;
            }
            water           
            {
                theta0          90;
            }
            oil             
            {
                theta0          90;
            }
        }
        value           nonuniform List<scalar> 
50
(
1.45905e-13
7.31194e-13
3.00231e-12
1.27535e-11
1.10894e-10
5.32573e-10
1.4568e-09
2.64629e-09
3.95357e-09
1.35818e-08
0.00016963
0.136094
0.254061
0.238655
0.173527
0.429484
0.886584
0.999999
0.999999
0.999999
0.999999
0.999999
1
1
1
1
1
1
1
1
1
1
1
1
1
1
1
1
1
1
1
1
1
1
1
1
1
1
1
1
)
;
    }
    rightWall
    {
        type            alphaContactAngle;
        contactAngleProperties 
        {
            mercury         
            {
                theta0          90;
            }
            water           
            {
                theta0          90;
            }
            oil             
            {
                theta0          90;
            }
        }
        value           nonuniform List<scalar> 
50
(
0.015086
0.0195932
0.0828211
0.0977107
0.0300617
0.102222
0.117854
0.117055
0.0227221
0.0115423
0.00310149
0.0061076
0.0232592
0.0296234
0.0297705
0.0299153
0.00808126
0.00206363
0.000207313
1.50045e-07
0.461408
0.982061
0.999762
1
1
1
0.999999
0.999999
0.999999
1
1
1
1
1
1
1
1
1
1
1
1
1
1
1
1
1
1
1
1
1
)
;
    }
    lowerWall
    {
        type            alphaContactAngle;
        contactAngleProperties 
        {
            mercury         
            {
                theta0          90;
            }
            water           
            {
                theta0          90;
            }
            oil             
            {
                theta0          90;
            }
        }
        value           nonuniform List<scalar> 
62
(
1.45905e-13
2.3089e-13
3.49859e-13
2.83363e-13
2.34581e-13
1.85183e-13
1.31133e-13
8.45801e-14
4.84816e-14
2.57659e-14
1.52999e-14
9.49062e-15
5.87302e-15
3.31739e-15
1.58255e-15
8.12058e-16
7.62519e-16
1.07258e-15
2.87725e-15
1.35469e-14
2.82878e-14
4.66521e-14
1.52103e-13
1.52103e-13
1.01983e-12
1.97812e-12
7.46099e-11
1.64939e-09
1.49488e-08
1.41353e-08
1.52275e-08
0.000504213
0.000445911
0.000595328
0.00523755
0.000390162
0.000368715
0.000385331
0.0132022
0.0278789
0.0257105
0.0038845
0.00552849
0.000390162
0.00789236
0.0365091
0.0531412
0.0763122
0.0763494
0.0675144
0.0544449
0.0491277
0.0733033
0.172439
0.11183
0.0831815
0.0194122
0.0152885
0.0149364
0.0148484
0.0168393
0.015086
)
;
    }
    atmosphere
    {
        type            inletOutlet;
        inletValue      uniform 1;
        value           nonuniform List<scalar> 
46
(
1
1
1
1
1
1
1
1
1
1
1
1
1
1
1
1
1
1
1
1
1
1
1
1
1
1
1
1
1
1
1
1
1
1
1
1
1
1
1
1
1
1
1
1
1
1
)
;
    }
    defaultFaces
    {
        type            empty;
    }
}


// ************************************************************************* //
