/*--------------------------------*- C++ -*----------------------------------*\
  =========                 |
  \\      /  F ield         | OpenFOAM: The Open Source CFD Toolbox
   \\    /   O peration     | Website:  https://openfoam.org
    \\  /    A nd           | Version:  13
     \\/     M anipulation  |
\*---------------------------------------------------------------------------*/
FoamFile
{
    format      ascii;
    class       volScalarField;
    location    "1.65";
    object      alpha.mercury;
}
// * * * * * * * * * * * * * * * * * * * * * * * * * * * * * * * * * * * * * //

dimensions      [];

internalField   nonuniform List<scalar> 
2268
(
1
1
1
1
1
1
1
1
1
1
1
1
1
1
1
1
1
1
1
1
0.99983
0.999432
0.999432
1
1
1
1
1
1
1
1
1
1
1
1
1
1
1
1
1
1
1
1
0.999993
0.999778
0.999519
1
1
1
1
1
1
1
1
1
1
1
1
1
1
1
1
1
1
1
1
1
1
1
1
1
1
1
1
1
1
1
1
1
1
1
1
1
1
1
1
1
1
1
1
1
1
0.840056
0.827307
0.833102
0.861307
0.899054
0.936987
0.970937
0.998169
1
1
1
1
1
1
1
1
1
1
1
1
1
1
1
0.056379
0.0754379
0.0931202
0.121142
0.163166
0.220829
0.295916
0.392208
0.525745
0.665343
0.807007
0.923185
0.992531
1
1
1
1
1
1
1
1
1
1
2.03965e-11
1.39443e-09
2.03965e-11
1.40221e-09
2.09484e-11
6.63748e-08
1.54945e-07
2.60784e-07
0.00443945
0.0266778
0.0718472
0.166565
0.326735
0.562745
0.802411
0.964505
0.997692
1
1
0.999999
1
0.999999
1
1.39001e-09
1.57169e-09
1.51911e-09
1.40526e-09
1.44416e-09
1.76341e-09
3.11249e-09
1.27248e-08
4.20168e-08
1.22104e-07
2.01771e-07
2.59008e-07
2.90954e-07
0.00639891
0.052971
0.173064
0.441891
0.729956
0.859045
0.875715
0.887304
0.878785
0.878393
0.876489
0.876555
0.876323
0.875453
0.750651
0.557537
0.557151
0.569378
0.57522
0.576183
0.690998
0.707074
0.707379
0.707275
0.707142
0.704909
0.705132
0.703713
0.703479
0.876555
0.876463
0.832002
0.835422
0.840145
0.842407
0.821695
0.794028
0.79054
0.795024
0.656905
0.613584
0.591038
0.570862
0.543223
0.575553
0.618253
0.619659
0.531658
0.486827
0.61429
0.554629
0.431249
0.543843
0.758304
0.818526
0.816533
0.701704
0.593491
0.495554
0.376722
0.279269
0.248667
0.262311
0.25209
0.245863
0.297452
0.373576
0.0515671
0.102568
0.305138
0.28654
0.178854
0.208016
0.329259
0.413126
0.390471
0.247372
0.190933
0.197421
0.207585
0.154752
0.131446
0.128935
0.120926
0.126866
0.128259
0.00744944
0.0197217
0.0862138
0.189042
0.104009
0.00854493
0.00471648
0.0131427
0.0623403
0.128458
0.142209
0.113683
0.0619822
0.0482778
0.0454907
0.0684375
0.0895747
0.0649499
0.0435724
0.0308426
0.0140103
0.0287723
0.119654
0.116137
0.0135947
0.00111843
5.09688e-07
8.29262e-12
9.07482e-05
0.00379704
0.000324767
2.20114e-19
9.56521e-11
-9.10555e-17
0.000806321
0.00647958
0.00323427
0.00614101
0.0655998
0.0424164
0.0122539
0.0482065
0.108695
0.0749651
0.0033818
3.65315e-05
6.59586e-05
0.000252738
0.000204063
3.26797e-05
2.21029e-08
4.87512e-06
6.5641e-05
7.05283e-05
0.000122093
0.0025598
0.0123208
0.298675
0.0854597
0.021944
0.0161601
0.0973664
0.106307
0.0308022
7.86505e-05
0.000127531
0.000337905
0.000344345
7.61349e-05
2.10969e-07
6.52611e-05
0.000185554
0.000132721
9.53163e-05
0.00329447
0.0124378
1.34973e-09
1.83959e-09
2.26942e-09
2.44767e-09
2.50899e-09
2.48439e-09
2.21189e-09
1.77557e-09
1.37204e-09
7.69749e-10
7.56472e-10
4.4473e-09
1.45933e-08
5.86284e-08
1.6796e-07
2.01386e-07
2.00276e-07
0.0176176
0.0900552
0.17696
0.228202
0.232114
0.234942
3.63633e-10
6.22684e-10
1.14535e-09
1.66986e-09
2.31512e-09
2.70803e-09
2.72312e-09
2.53383e-09
2.00117e-09
1.40947e-09
7.44734e-10
4.62809e-10
4.82408e-10
1.4659e-10
3.41155e-09
6.81525e-09
6.99922e-08
4.17834e-08
2.46521e-08
1.3232e-09
9.48907e-10
3.61373e-10
9.48907e-10
2.45104e-10
2.72064e-10
3.69038e-10
4.61577e-10
6.18371e-10
8.87309e-10
9.93001e-10
9.4358e-10
8.43217e-10
6.9432e-10
5.1659e-10
3.65482e-10
2.37214e-10
1.4719e-10
1.06262e-10
1.17732e-10
2.21647e-10
1.54808e-09
2.70449e-09
3.7095e-09
2.21259e-09
2.67075e-10
5.15416e-08
2.66818e-10
3.19953e-10
3.50058e-10
3.59062e-10
3.35029e-10
3.31927e-10
3.34003e-10
3.97135e-10
5.04522e-10
6.20116e-10
6.64783e-10
7.00822e-10
7.69613e-10
8.69796e-10
9.79361e-10
1.14519e-09
1.2954e-09
1.29367e-09
1.2958e-09
1.29995e-09
7.25947e-10
2.74246e-10
1.68222e-07
4.02228e-10
5.20223e-10
5.51889e-10
5.83638e-10
6.78032e-10
8.16228e-10
9.95284e-10
1.20235e-09
1.45201e-09
1.69593e-09
1.824e-09
1.91815e-09
2.02987e-09
2.25736e-09
2.62118e-09
3.127e-09
3.24284e-09
3.22793e-09
3.06321e-09
2.63947e-09
1.46489e-09
2.91285e-10
9.40247e-08
5.00288e-10
5.80121e-10
5.93884e-10
6.49502e-10
7.41919e-10
9.81021e-10
1.14616e-09
1.3011e-09
1.4685e-09
1.58128e-09
1.58991e-09
1.53593e-09
1.47098e-09
1.48068e-09
1.65495e-09
1.8837e-09
1.84572e-09
1.60829e-09
1.24833e-09
1.22075e-09
1.30348e-09
6.94803e-10
3.39107e-11
5.06444e-10
5.00327e-10
3.73636e-10
3.49009e-10
3.48831e-10
3.55217e-10
3.31289e-10
3.04886e-10
2.91277e-10
2.83554e-10
2.68716e-10
2.34278e-10
2.08631e-10
1.7762e-10
1.46767e-10
1.38127e-10
1.2503e-10
1.0817e-10
1.08562e-10
1.58236e-10
3.98979e-10
5.40248e-10
1.45533e-10
5.05646e-10
5.29408e-10
3.34453e-10
1.98082e-10
1.48587e-10
1.0691e-10
7.76023e-11
5.88612e-11
4.55025e-11
3.6898e-11
3.33785e-11
3.03294e-11
2.95216e-11
2.81603e-11
2.59488e-11
2.4755e-11
2.47134e-11
2.5583e-11
2.4369e-11
2.01657e-11
1.83741e-11
2.05769e-11
2.95121e-11
4.46098e-10
5.07223e-10
4.50341e-10
2.57536e-10
1.69e-10
1.40212e-10
1.04884e-10
7.83644e-11
5.29288e-11
2.91759e-11
2.02284e-11
1.22004e-11
9.57094e-12
8.75685e-12
8.52407e-12
8.3683e-12
7.75802e-12
6.98994e-12
6.12233e-12
5.87633e-12
5.6203e-12
5.18133e-12
5.74057e-12
2.59443e-10
3.55208e-10
4.44507e-10
3.72074e-10
2.78509e-10
2.58551e-10
2.2028e-10
1.6521e-10
1.13651e-10
8.11933e-11
3.7694e-11
1.66043e-11
9.14987e-12
7.883e-12
7.18137e-12
6.07608e-12
4.68599e-12
3.47825e-12
2.52888e-12
1.8321e-12
1.44796e-12
1.15046e-12
1.21162e-12
1.32296e-10
2.55922e-10
4.49489e-10
4.16139e-10
3.82765e-10
3.68839e-10
3.22984e-10
2.6595e-10
2.17958e-10
1.64109e-10
1.09659e-10
6.02024e-11
2.41955e-11
1.42328e-11
1.14957e-11
8.09638e-12
5.19307e-12
3.33246e-12
2.33906e-12
1.62651e-12
1.10058e-12
7.15199e-13
4.63061e-13
8.20269e-11
2.50965e-10
4.47573e-10
4.48976e-10
4.43509e-10
4.16118e-10
3.48301e-10
2.86009e-10
2.52681e-10
2.14593e-10
1.64827e-10
1.07166e-10
5.94731e-11
2.83585e-11
1.79567e-11
1.1604e-11
6.79709e-12
3.97711e-12
2.76867e-12
1.63171e-12
9.73974e-13
5.60149e-13
3.38436e-13
5.08498e-11
2.2254e-10
4.08987e-10
4.49853e-10
4.34014e-10
3.84624e-10
2.99748e-10
2.65934e-10
2.51352e-10
2.18969e-10
1.78693e-10
1.2683e-10
7.66791e-11
3.79518e-11
2.21958e-11
1.45199e-11
7.82576e-12
4.74054e-12
2.98755e-12
1.6357e-12
8.73976e-13
4.70049e-13
2.61189e-13
3.78356e-11
1.7567e-10
3.28075e-10
4.00951e-10
3.62003e-10
2.86445e-10
2.44407e-10
2.37768e-10
2.27216e-10
2.02945e-10
1.73188e-10
1.27518e-10
7.86676e-11
4.04141e-11
2.43472e-11
1.51426e-11
7.92959e-12
4.56497e-12
2.78875e-12
1.44789e-12
7.54325e-13
3.93467e-13
2.11596e-13
2.96016e-11
1.29282e-10
2.59964e-10
2.99216e-10
2.67627e-10
2.26933e-10
2.06519e-10
1.89788e-10
1.69141e-10
1.6143e-10
1.41569e-10
1.11925e-10
7.31039e-11
3.92591e-11
2.41111e-11
1.32865e-11
7.25821e-12
3.77851e-12
2.37347e-12
1.23056e-12
7.13677e-13
3.64364e-13
1.95394e-13
1.76515e-11
9.0724e-11
1.70648e-10
2.02115e-10
1.87819e-10
1.69162e-10
1.48733e-10
1.30688e-10
1.21406e-10
1.12335e-10
1.00249e-10
8.2436e-11
5.94249e-11
3.21668e-11
2.03437e-11
1.09125e-11
6.46103e-12
2.87908e-12
1.80671e-12
1.063e-12
6.60465e-13
3.46909e-13
2.03867e-13
1.36272e-11
5.11355e-11
9.20256e-11
1.15e-10
1.15783e-10
1.10542e-10
9.72592e-11
8.49658e-11
7.52849e-11
6.426e-11
5.67869e-11
5.00675e-11
3.72641e-11
2.56764e-11
1.43088e-11
8.58761e-12
4.75742e-12
2.19576e-12
1.47324e-12
8.96635e-13
5.72686e-13
3.23969e-13
2.05569e-13
9.52527e-12
3.04305e-11
4.92489e-11
5.45949e-11
6.73176e-11
6.64314e-11
6.05224e-11
5.19363e-11
3.89955e-11
3.13684e-11
2.53544e-11
2.27603e-11
1.97604e-11
1.61854e-11
8.23513e-12
5.142e-12
2.87247e-12
1.82427e-12
1.20825e-12
7.12451e-13
4.76973e-13
2.96559e-13
1.95996e-13
5.98465e-12
1.88253e-11
2.9458e-11
3.51143e-11
4.17706e-11
4.2666e-11
3.7913e-11
3.03564e-11
2.2026e-11
1.64789e-11
1.19505e-11
1.02202e-11
9.06822e-12
7.56256e-12
4.45155e-12
2.95499e-12
2.08508e-12
1.55262e-12
9.89539e-13
5.80703e-13
3.89983e-13
2.57622e-13
1.82357e-13
3.33476e-12
1.02795e-11
1.72701e-11
2.13568e-11
2.44583e-11
2.51569e-11
2.49671e-11
2.11312e-11
1.57826e-11
1.05136e-11
7.484e-12
5.49885e-12
4.13092e-12
3.19078e-12
2.75948e-12
1.99208e-12
1.5049e-12
1.14922e-12
7.655e-13
4.61263e-13
3.14518e-13
2.24742e-13
1.60744e-13
1.70307e-12
5.63999e-12
9.43821e-12
1.19261e-11
1.41088e-11
1.59225e-11
1.57682e-11
1.39906e-11
1.07509e-11
7.2204e-12
4.72851e-12
2.99235e-12
2.07457e-12
1.75915e-12
1.51492e-12
1.22209e-12
9.48076e-13
7.5036e-13
5.54072e-13
3.52142e-13
2.3351e-13
1.77158e-13
1.35563e-13
8.72248e-13
2.66805e-12
4.44975e-12
5.97571e-12
7.22291e-12
8.43765e-12
9.0726e-12
8.5858e-12
7.27222e-12
5.27267e-12
3.21882e-12
1.86703e-12
1.23505e-12
9.61502e-13
7.83461e-13
6.29181e-13
5.2268e-13
4.42638e-13
3.59545e-13
2.47951e-13
1.57015e-13
1.28594e-13
1.00772e-13
3.41383e-13
1.04687e-12
1.91545e-12
2.53783e-12
3.23532e-12
3.91333e-12
4.52221e-12
4.76486e-12
4.44986e-12
3.47783e-12
2.3873e-12
1.21169e-12
7.37526e-13
5.01567e-13
3.89428e-13
3.22141e-13
2.73329e-13
2.32739e-13
2.00611e-13
1.40138e-13
1.03285e-13
7.97184e-14
6.50628e-14
1.35653e-13
4.11091e-13
6.91482e-13
9.15756e-13
1.16788e-12
1.67544e-12
1.90068e-12
2.19534e-12
2.36964e-12
2.02729e-12
1.43395e-12
8.25255e-13
4.34879e-13
2.64618e-13
1.86155e-13
1.42874e-13
1.22861e-13
1.07411e-13
9.21687e-14
7.16267e-14
5.68181e-14
4.64857e-14
3.66921e-14
4.20807e-14
1.37755e-13
2.22384e-13
2.8413e-13
3.49088e-13
5.39007e-13
7.29581e-13
8.10562e-13
1.07155e-12
1.08837e-12
7.95862e-13
5.2205e-13
2.7454e-13
1.4628e-13
8.93637e-14
6.36668e-14
4.9963e-14
4.28441e-14
3.75696e-14
3.26825e-14
2.76538e-14
2.22315e-14
1.78993e-14
1.42356e-14
3.99147e-14
6.2324e-14
7.89898e-14
9.90088e-14
1.5935e-13
2.22501e-13
2.73098e-13
3.4939e-13
4.68539e-13
3.74501e-13
2.61687e-13
1.654e-13
8.06262e-14
4.14174e-14
2.78438e-14
2.00976e-14
1.69208e-14
1.46625e-14
1.28664e-14
1.10238e-14
9.35547e-15
7.59865e-15
2.9372e-15
9.06793e-15
1.48988e-14
1.90372e-14
2.51517e-14
4.49964e-14
6.36173e-14
8.44451e-14
1.07649e-13
1.52459e-13
1.46268e-13
1.1126e-13
7.27188e-14
4.04323e-14
1.92441e-14
1.13223e-14
7.6622e-15
6.11493e-15
5.3157e-15
4.63929e-15
4.04732e-15
3.46175e-15
2.93704e-15
5.33597e-16
1.76554e-15
2.99046e-15
3.89809e-15
5.46643e-15
1.06802e-14
1.64851e-14
2.2191e-14
2.89821e-14
4.31008e-14
4.50734e-14
3.76862e-14
2.72205e-14
1.67499e-14
7.88785e-15
4.07586e-15
2.64949e-15
2.11636e-15
1.78127e-15
1.54839e-15
1.2933e-15
1.09113e-15
9.44885e-16
7.19642e-17
2.73992e-16
4.7514e-16
6.44393e-16
9.79467e-16
2.05799e-15
3.69241e-15
5.08244e-15
6.98178e-15
1.06164e-14
1.17144e-14
1.02387e-14
7.77276e-15
5.38983e-15
2.79566e-15
1.32143e-15
8.15142e-16
6.16403e-16
5.1911e-16
4.58138e-16
3.80766e-16
3.14034e-16
2.6618e-16
6.91369e-18
3.11641e-17
5.65255e-17
8.19399e-17
1.34287e-16
3.09676e-16
6.53018e-16
9.80027e-16
1.41052e-15
2.16915e-15
2.55508e-15
2.2946e-15
1.82349e-15
1.27207e-15
7.34772e-16
3.44997e-16
2.18433e-16
1.5893e-16
1.34755e-16
1.20546e-16
1.00345e-16
7.71664e-17
6.35139e-17
2.35814e-19
2.17445e-18
4.58583e-18
7.18523e-18
1.3083e-17
3.57285e-17
9.17834e-17
1.58185e-16
2.48347e-16
3.90394e-16
4.50568e-16
4.06002e-16
3.37788e-16
2.50689e-16
1.35641e-16
7.20715e-17
4.99418e-17
3.57609e-17
3.01816e-17
2.68266e-17
2.36713e-17
1.68443e-17
1.23137e-17
6.54948e-21
9.07648e-20
1.92159e-19
3.79888e-19
8.84101e-19
3.01291e-18
9.92626e-18
2.06226e-17
3.56271e-17
5.6519e-17
6.32194e-17
5.79982e-17
5.06906e-17
3.60522e-17
1.96267e-17
1.18003e-17
8.67295e-18
6.75625e-18
5.58368e-18
5.11557e-18
4.37405e-18
2.74025e-18
2.13704e-18
5.86726e-23
7.01088e-22
3.6227e-21
9.09592e-21
4.46276e-20
2.12059e-19
7.17561e-19
2.03404e-18
3.97041e-18
5.87852e-18
6.59398e-18
6.56632e-18
5.83799e-18
4.14163e-18
2.48719e-18
1.62607e-18
1.33587e-18
1.06329e-18
8.81126e-19
7.97606e-19
6.53113e-19
4.5507e-19
2.83239e-19
1.79263e-25
4.05044e-24
2.39717e-23
2.68081e-22
2.27845e-21
1.29018e-20
4.99506e-20
1.5151e-19
3.78217e-19
5.43836e-19
6.27973e-19
6.30472e-19
5.50804e-19
3.86296e-19
2.56197e-19
2.01699e-19
1.64413e-19
1.40339e-19
1.2008e-19
1.08316e-19
8.58663e-20
5.37386e-20
3.16271e-20
1.1393e-27
1.50045e-26
6.18743e-25
1.04254e-23
1.06872e-22
6.2998e-22
2.80597e-21
9.98694e-21
2.83798e-20
4.26137e-20
4.99202e-20
5.01848e-20
4.32931e-20
3.19976e-20
2.49993e-20
2.19101e-20
1.99051e-20
1.73888e-20
1.52661e-20
1.289e-20
9.15861e-21
5.56885e-21
2.89959e-21
1.82925e-29
1.20229e-28
1.62751e-26
3.69549e-25
4.11e-24
2.95741e-23
1.50692e-22
5.96492e-22
1.92664e-21
2.96994e-21
3.45047e-21
3.42392e-21
2.97625e-21
2.47619e-21
2.25073e-21
2.1326e-21
2.01349e-21
1.74536e-21
1.56338e-21
1.2189e-21
8.19638e-22
4.42112e-22
2.45859e-22
3.98338e-31
2.4574e-30
4.05422e-28
1.07946e-26
1.4e-25
1.19495e-24
6.83604e-24
2.90959e-23
1.06965e-22
1.72132e-22
2.00832e-22
2.01346e-22
1.88803e-22
1.85447e-22
1.8418e-22
1.85544e-22
1.79892e-22
1.63182e-22
1.35394e-22
9.65111e-23
5.45372e-23
3.18593e-23
8.96712e-24
7.53913e-33
4.12643e-32
8.15398e-30
2.68281e-28
4.20256e-27
3.93817e-26
2.59815e-25
1.2282e-24
5.02595e-24
8.42226e-24
1.00569e-23
1.07377e-23
1.16017e-23
1.28429e-23
1.38248e-23
1.43359e-23
1.4088e-23
1.25476e-23
9.86254e-24
6.46701e-24
3.80986e-24
1.07974e-24
1.16424e-25
1.14295e-34
5.71083e-34
1.37623e-31
5.92045e-30
1.04464e-28
1.10347e-27
8.87799e-27
4.50622e-26
1.9794e-25
3.44066e-25
4.36656e-25
5.45977e-25
6.63093e-25
7.89675e-25
9.00922e-25
9.728e-25
9.83756e-25
8.75823e-25
6.36536e-25
4.13405e-25
1.34825e-25
1.42634e-26
1.61114e-27
7.57536e-37
5.97182e-36
2.02931e-33
1.24012e-31
2.36904e-30
2.9141e-29
2.88141e-28
1.67617e-27
7.85855e-27
1.37864e-26
1.92294e-26
2.70986e-26
3.71667e-26
4.80416e-26
5.72176e-26
6.38111e-26
6.49257e-26
5.77563e-26
3.76556e-26
1.48795e-26
2.61417e-27
3.0888e-28
4.11156e-28
-6.23448e-38
2.11265e-39
2.70382e-35
2.53458e-33
5.26628e-32
7.15487e-31
8.42093e-30
5.17721e-29
2.52012e-28
4.76948e-28
7.5197e-28
1.22626e-27
1.84145e-27
2.54975e-27
3.19274e-27
3.71673e-27
3.77215e-27
3.19964e-27
1.76277e-27
5.03822e-28
6.44757e-29
4.38395e-29
2.16234e-28
-5.07589e-39
5.51508e-41
3.32371e-37
4.51408e-35
1.0393e-33
1.6086e-32
2.21102e-31
1.52468e-30
7.16086e-30
1.4207e-29
2.54421e-29
4.70973e-29
7.76762e-29
1.18143e-28
1.69886e-28
2.01397e-28
2.02679e-28
1.58138e-28
7.13008e-29
1.57752e-29
3.86996e-30
1.31735e-29
9.47344e-29
0.295879
0.241772
0.3216
0.365371
8.0019e-09
2.25215e-09
1.93594e-09
2.25215e-09
5.7689e-08
6.19796e-09
3.60036e-08
2.48385e-07
1.68152e-07
2.98571e-08
1.27014e-07
6.53029e-07
1.04726e-07
2.66364e-08
1.95237e-08
4.22873e-07
3.77448e-11
2.8299e-08
5.45584e-08
2.06658e-09
3.39091e-11
3.27169e-11
3.47843e-11
3.59671e-11
3.49688e-11
3.27277e-11
2.90168e-11
3.05994e-11
7.20007e-12
9.05768e-12
1.24866e-11
1.62832e-11
1.31504e-12
1.42248e-12
1.55245e-12
1.54723e-12
3.99443e-13
3.7443e-13
3.75739e-13
3.90226e-13
2.64725e-13
2.22453e-13
1.968e-13
1.83269e-13
1.82949e-13
1.40694e-13
1.34012e-13
1.41438e-13
1.29328e-13
1.06108e-13
1.13946e-13
2.17901e-13
1.10978e-13
9.67602e-14
1.64489e-13
6.15587e-13
1.12075e-13
9.64531e-14
1.01834e-13
5.278e-13
1.22134e-13
9.84801e-14
8.82524e-14
7.84712e-14
1.22579e-13
9.99898e-14
8.49226e-14
7.7819e-14
1.19689e-13
9.42135e-14
8.2984e-14
7.65304e-14
1.11553e-13
9.21012e-14
7.33789e-14
6.44485e-14
9.72753e-14
7.83433e-14
6.8037e-14
5.75453e-14
7.72502e-14
6.68614e-14
5.46411e-14
4.79359e-14
5.00647e-14
4.24397e-14
3.91756e-14
3.43223e-14
2.84122e-14
2.57999e-14
2.22045e-14
2.01731e-14
1.3115e-14
1.11723e-14
1.06994e-14
9.59655e-15
5.41018e-15
4.81198e-15
4.25387e-15
3.79876e-15
2.10279e-15
1.66875e-15
1.5433e-15
1.32509e-15
6.72731e-16
5.47378e-16
4.72885e-16
3.89146e-16
1.97079e-16
1.49201e-16
1.2888e-16
9.80861e-17
4.59976e-17
3.58529e-17
2.89881e-17
2.04365e-17
9.11655e-18
6.56599e-18
5.18552e-18
3.5389e-18
1.57993e-18
1.04365e-18
7.79485e-19
5.03629e-19
2.05776e-19
1.37941e-19
8.80182e-20
5.55427e-20
2.16227e-20
1.3089e-20
8.24923e-21
5.44752e-21
1.9044e-21
1.31732e-21
5.7013e-22
9.02432e-23
9.03144e-23
2.00336e-23
2.72466e-24
1.02209e-25
2.19568e-25
5.01937e-27
8.13349e-27
1.9462e-26
1.41414e-27
2.9744e-27
7.30451e-27
2.04755e-26
1.4037e-27
2.45105e-27
7.05764e-27
2.23395e-26
7.44257e-28
2.19015e-27
7.54393e-27
2.34938e-26
5.17486e-28
1.92092e-27
6.76143e-27
2.04893e-26
3.59615e-28
1.2206e-27
3.88212e-27
1.03988e-26
0.35842
0.0853433
0.0155904
0.0162761
0.05309
0.0963273
0.0610472
0.001489
0.000110356
0.000133727
0.000104357
7.30196e-05
2.16783e-05
1.16191e-05
7.50899e-05
0.000416302
0.000149739
0.00125123
0.0085426
-7.29894e-14
5.41087e-08
0.00248674
0.00226902
0.000170159
0.0287609
0.0495758
0.0169416
1.0999e-05
1.40789e-05
1.57624e-05
1.07365e-05
8.33142e-06
4.04243e-06
1.21997e-06
0.000407434
0.00041584
2.34109e-05
0.00253981
4.05917e-09
0.000159827
0.00275422
0.00282425
0.000281783
1.07413e-05
0.00571948
0.00869434
0.00235552
2.7495e-06
2.82182e-06
3.64941e-06
1.74845e-06
5.85114e-07
6.19461e-07
0.000152558
0.000327813
1.94081e-05
0.000957342
5.29009e-07
1.26459e-07
7.1861e-05
0.000530952
0.000346098
1.22185e-05
1.1568e-06
0.00110234
0.00136935
0.00113672
0.00027299
1.26899e-08
1.23702e-08
6.30245e-07
1.37157e-06
3.88448e-08
9.19559e-06
2.43641e-08
0.000378385
7.4367e-07
2.75701e-07
9.37601e-11
9.14556e-11
9.22589e-11
6.17471e-08
3.06815e-07
4.43425e-07
0.000224976
0.000605743
0.000279475
6.78195e-08
1.17774e-08
4.26439e-07
8.40119e-07
5.35354e-08
1.87083e-11
2.41973e-10
0.000513071
1.53752e-11
1.46299e-09
1.22296e-09
6.98284e-10
1.26566e-10
2.08402e-09
1.96058e-08
1.33546e-08
1.42099e-08
1.87948e-07
4.16904e-05
1.58218e-05
1.30259e-09
3.36639e-08
1.54595e-09
6.2359e-09
1.24976e-11
6.55989e-08
0.000620706
3.36522e-11
3.60249e-11
3.70086e-10
5.95528e-10
3.24522e-10
1.08699e-10
2.22358e-08
3.20495e-08
2.44763e-08
2.73866e-09
-3.89459e-09
5.40735e-06
1.90315e-06
5.25983e-10
1.34084e-09
2.40871e-12
6.20302e-08
7.78541e-08
0.000627
3.97533e-11
1.23203e-10
1.81013e-10
2.24389e-10
2.15973e-10
1.07595e-10
2.61368e-09
8.49429e-09
1.00427e-08
1.04515e-09
2.17635e-07
1.19965e-06
1.20866e-06
9.40478e-08
3.29712e-09
6.39398e-15
1.04949e-06
1.11729e-06
0.000107639
1.51439e-11
1.36222e-11
1.78906e-11
3.57134e-11
8.56482e-11
1.05355e-10
9.25328e-11
4.95181e-11
1.10948e-09
1.0365e-09
2.00763e-07
2.77312e-07
5.02427e-08
3.43371e-08
1.30801e-09
4.29103e-07
1.25258e-06
1.14575e-06
1.1853e-06
1.44637e-12
1.51723e-12
1.80618e-12
1.97863e-12
3.05614e-12
1.2297e-11
1.5829e-11
1.58313e-11
5.23534e-11
1.08219e-09
5.96663e-09
-3.7068e-24
2.32698e-12
2.08373e-10
2.34752e-08
8.57892e-07
9.44944e-07
6.23426e-05
0.00144992
3.4796e-13
2.85849e-13
2.91582e-13
3.56742e-13
4.36761e-13
6.00039e-13
1.80426e-12
6.3282e-12
1.30404e-11
1.99118e-10
6.00594e-12
9.97022e-12
2.26345e-12
9.60086e-14
1.14037e-07
2.68876e-06
2.39145e-05
0.000267942
0.00566425
1.71011e-13
1.61334e-13
1.58379e-13
1.70176e-13
2.00891e-13
2.43897e-13
3.5154e-13
1.61619e-12
4.12494e-12
6.6805e-12
6.69781e-12
9.16932e-11
7.48006e-10
2.66969e-13
4.42935e-09
1.77434e-09
0.000170069
0.00116949
0.0056647
1.48004e-13
1.7328e-13
2.2265e-13
2.4838e-13
3.58192e-13
6.86963e-13
1.10736e-12
1.87804e-12
3.20239e-12
5.66365e-12
1.39431e-11
1.3353e-11
-4.18484e-11
-4.27793e-12
-3.58966e-11
-3.67261e-23
1.66086e-05
0.0022444
0.00566468
4.53427e-13
1.48341e-12
4.14277e-12
7.12659e-12
9.75278e-12
7.99438e-12
1.16262e-12
-7.04813e-17
2.90119e-13
2.04603e-18
2.12199e-11
3.56569e-15
3.80075e-07
3.28771e-06
7.90484e-06
1.14598e-05
3.72093e-05
0.000806543
0.00121215
2.37532e-12
8.20034e-12
2.80414e-11
6.8416e-11
1.36407e-10
3.02853e-10
1.11678e-09
3.29137e-09
3.60302e-09
1.80366e-09
1.44374e-11
5.05152e-07
5.28131e-06
7.22452e-06
8.03126e-06
1.77713e-05
3.4372e-05
2.34179e-06
3.1332e-09
4.40605e-12
1.84769e-11
6.3953e-11
2.35626e-10
7.18607e-10
1.9682e-09
4.26529e-09
8.44218e-09
1.37957e-08
2.60691e-08
1.13228e-07
7.90031e-07
2.36821e-06
2.61343e-06
7.4666e-07
3.41507e-06
1.02958e-05
5.86783e-07
2.14957e-09
3.58513e-12
2.11292e-11
6.50226e-11
2.20734e-10
6.03625e-10
1.50438e-09
3.34012e-09
6.27197e-09
1.38064e-08
3.40755e-08
9.56988e-08
1.77035e-07
3.43704e-12
3.64411e-12
9.79436e-11
3.89478e-12
7.68116e-09
1.47815e-08
2.35723e-09
8.37455e-13
7.1264e-12
2.31096e-11
7.50676e-11
2.08359e-10
6.17898e-10
1.52294e-09
2.7926e-09
4.62815e-09
8.67066e-09
5.39392e-09
3.35679e-09
3.4902e-12
6.6486e-12
2.68131e-11
5.08533e-11
1.34515e-10
9.47954e-09
1.01588e-09
9.60909e-14
1.24866e-12
6.97101e-12
2.07254e-11
6.11226e-11
1.89209e-10
4.72943e-10
9.4586e-10
1.41088e-09
1.54435e-09
7.48277e-10
2.04496e-11
5.57195e-12
1.35682e-11
3.67217e-11
9.44352e-11
3.13344e-10
5.22717e-09
3.92203e-10
5.80139e-14
7.305e-14
1.04338e-12
4.45018e-12
1.37212e-11
4.4838e-11
1.15043e-10
2.41674e-10
3.70498e-10
3.793e-10
1.5223e-10
2.03178e-11
4.55347e-12
1.01237e-11
2.3718e-11
5.57103e-11
1.51407e-10
3.81608e-10
2.08249e-10
4.87232e-14
3.3855e-14
4.17019e-14
5.34115e-13
2.48273e-12
8.85603e-12
2.42436e-11
5.42395e-11
9.10025e-11
1.08981e-10
5.56092e-11
1.17235e-11
2.34851e-12
4.87768e-12
1.02165e-11
2.31014e-11
4.40992e-11
7.58915e-11
5.73942e-11
4.04053e-14
2.70764e-14
1.93582e-14
2.6248e-14
2.82736e-13
1.37887e-12
4.26016e-12
1.04606e-11
1.94863e-11
2.62177e-11
1.88027e-11
4.32235e-12
8.4469e-13
1.64902e-12
3.23557e-12
5.84121e-12
1.03978e-11
1.19339e-11
1.36733e-11
2.94042e-14
2.02341e-14
1.35832e-14
1.08603e-14
2.60116e-14
1.56991e-13
5.91165e-13
1.64231e-12
3.45549e-12
5.20632e-12
4.86135e-12
1.21953e-12
2.22896e-13
4.25867e-13
7.84942e-13
1.35575e-12
1.85586e-12
2.42042e-12
1.33685e-12
1.77191e-14
1.28229e-14
8.83651e-15
6.49029e-15
6.37439e-15
1.5935e-14
6.41511e-14
2.03819e-13
4.86898e-13
8.44954e-13
9.54924e-13
2.87759e-13
4.56959e-14
8.30456e-14
1.53589e-13
2.44398e-13
2.80347e-13
2.19996e-13
1.55481e-13
8.5582e-15
6.32424e-15
4.53127e-15
3.47261e-15
2.33405e-15
2.57037e-15
6.24454e-15
2.04274e-14
5.41528e-14
1.04655e-13
1.27114e-13
4.83824e-14
7.28204e-15
1.37274e-14
2.2189e-14
2.6813e-14
1.86203e-14
1.91398e-14
5.5231e-15
3.38636e-15
2.50889e-15
1.83369e-15
1.49039e-15
1.00195e-15
7.34169e-16
8.09832e-16
1.74778e-15
4.43918e-15
9.62328e-15
1.39917e-14
6.74696e-15
1.02784e-15
1.78239e-15
2.66305e-15
7.36349e-16
5.6407e-16
5.18214e-16
7.04094e-16
1.15657e-15
8.22525e-16
5.9077e-16
4.46778e-16
3.30568e-16
2.54475e-16
1.82076e-16
1.8151e-16
3.53757e-16
7.70924e-16
1.29799e-15
7.67201e-16
1.45739e-16
2.17504e-16
1.06867e-16
1.58798e-16
2.48514e-16
2.72948e-16
1.84068e-16
3.28069e-16
2.19266e-16
1.40441e-16
1.0832e-16
8.05698e-17
6.68937e-17
4.8509e-17
3.10307e-17
3.14492e-17
5.63515e-17
9.58914e-17
6.79708e-17
2.19171e-17
3.66991e-17
3.46892e-17
7.62078e-17
1.28757e-16
1.39517e-16
9.546e-17
7.73336e-17
4.68115e-17
2.90159e-17
1.82883e-17
1.31715e-17
1.16934e-17
9.8524e-18
5.79634e-18
3.27508e-18
3.65319e-18
5.73296e-18
4.88579e-18
3.58988e-18
8.6934e-18
1.40477e-17
3.33935e-17
6.09423e-17
7.19193e-17
4.52359e-17
1.43886e-17
8.4504e-18
4.23443e-18
2.1055e-18
1.13101e-18
1.13045e-18
1.17568e-18
7.18132e-19
3.19461e-19
2.14445e-19
2.4877e-19
1.59527e-19
5.17987e-19
2.10453e-18
5.39778e-18
1.38672e-17
2.88049e-17
4.04245e-17
2.1045e-17
2.19838e-18
1.07508e-18
5.10292e-19
1.17394e-19
3.43818e-20
5.14742e-20
7.89151e-20
5.56089e-20
3.0141e-20
2.7937e-20
4.45924e-20
9.53273e-20
2.33746e-19
6.91779e-19
2.15681e-18
5.83387e-18
1.34944e-17
2.48599e-17
1.22992e-17
2.53563e-19
1.15021e-19
2.3108e-20
1.41652e-21
5.41078e-22
1.69141e-21
4.62803e-21
6.56074e-21
1.03225e-20
2.11276e-20
4.32868e-20
8.74046e-20
1.79374e-19
4.0012e-19
1.05682e-18
2.46814e-18
6.31268e-18
1.28224e-17
8.04628e-18
2.54935e-20
4.02229e-21
1.80702e-22
1.02644e-22
2.47396e-22
6.67261e-22
1.71936e-21
4.18259e-21
9.63158e-21
2.11923e-20
4.42231e-20
8.79531e-20
1.69496e-19
3.24451e-19
6.53286e-19
1.44598e-18
3.84211e-18
6.87025e-18
4.13787e-18
1.26914e-21
3.77498e-23
2.23399e-23
6.60026e-23
2.02485e-22
5.74922e-22
1.5435e-21
3.91282e-21
9.44405e-21
2.14483e-20
4.54658e-20
8.95095e-20
1.65128e-19
2.84121e-19
4.8876e-19
1.12446e-18
2.55109e-18
3.20889e-18
2.21236e-18
5.28869e-24
3.95264e-24
1.62056e-23
5.64524e-23
1.75684e-22
5.17812e-22
1.41928e-21
3.68951e-21
9.02496e-21
2.07537e-20
4.45574e-20
8.73366e-20
1.52526e-19
2.49308e-19
4.34313e-19
8.5287e-19
1.41699e-18
1.67047e-18
9.89496e-19
4.87062e-25
3.054e-24
1.30939e-23
4.64759e-23
1.51505e-22
4.52541e-22
1.2667e-21
3.33761e-21
8.24444e-21
1.90373e-20
4.10818e-20
8.00975e-20
1.37534e-19
2.24264e-19
3.67197e-19
6.08333e-19
8.39703e-19
7.64752e-19
4.46618e-19
4.21085e-25
2.4907e-24
1.03366e-23
3.79785e-23
1.24276e-22
3.75315e-22
1.05206e-21
2.78712e-21
6.90527e-21
1.60689e-20
3.45873e-20
6.69997e-20
1.14668e-19
1.85047e-19
2.77938e-19
4.08407e-19
4.32291e-19
3.6409e-19
1.85277e-19
3.6582e-25
1.94891e-24
8.04321e-24
2.90081e-23
9.43291e-23
2.84612e-22
7.97972e-22
2.08553e-21
5.1745e-21
1.20618e-20
2.59219e-20
4.99778e-20
8.56055e-20
1.34767e-19
1.90678e-19
2.41136e-19
2.31003e-19
1.60111e-19
7.36536e-20
2.89163e-25
1.39148e-24
5.56474e-24
1.92233e-23
6.25611e-23
1.87717e-22
5.2242e-22
1.35611e-21
3.382e-21
7.86703e-21
1.69001e-20
3.2705e-20
5.59717e-20
8.67993e-20
1.11386e-19
1.33864e-19
1.06372e-19
6.50572e-20
2.93432e-20
2.03207e-25
8.51446e-25
3.13295e-24
1.03822e-23
3.21595e-23
9.53971e-23
2.704e-22
7.21644e-22
1.79581e-21
4.28933e-21
9.33313e-21
1.81008e-20
3.10459e-20
4.77669e-20
6.02695e-20
6.51082e-20
4.31893e-20
2.52228e-20
1.32233e-20
1.0607e-25
3.89779e-25
1.32198e-24
4.18778e-24
1.29702e-23
3.88791e-23
1.11939e-22
3.09127e-22
7.95898e-22
1.93992e-21
4.31994e-21
8.58242e-21
1.48762e-20
2.29592e-20
2.72069e-20
2.91869e-20
1.59034e-20
9.62277e-21
6.72053e-21
3.07734e-26
9.82978e-26
3.07014e-25
9.12996e-25
3.10276e-24
1.04524e-23
3.28973e-23
9.80183e-23
2.75078e-22
7.08522e-22
1.65468e-21
3.43345e-21
6.11064e-21
9.58005e-21
1.14521e-20
1.12021e-20
5.6085e-21
4.23486e-21
2.90942e-21
)
;

boundaryField
{
    leftWall
    {
        type            alphaContactAngle;
        contactAngleProperties 
        {
            air             
            {
                theta0          90;
            }
            water           
            {
                theta0          90;
            }
            oil             
            {
                theta0          90;
            }
        }
        value           nonuniform List<scalar> 
50
(
1
1
1
1
0.840056
0.056379
2.03965e-11
1.39001e-09
1.34973e-09
3.63633e-10
2.45104e-10
2.66818e-10
4.02228e-10
5.00288e-10
5.06444e-10
5.05646e-10
4.46098e-10
2.59443e-10
1.32296e-10
8.20269e-11
5.08498e-11
3.78356e-11
2.96016e-11
1.76515e-11
1.36272e-11
9.52527e-12
5.98465e-12
3.33476e-12
1.70307e-12
8.72248e-13
3.41383e-13
1.35653e-13
4.20807e-14
1.42356e-14
2.9372e-15
5.33597e-16
7.19642e-17
6.91369e-18
2.35814e-19
6.54948e-21
5.86726e-23
1.79263e-25
1.1393e-27
1.82925e-29
3.98338e-31
7.53913e-33
1.14295e-34
7.57536e-37
-6.23448e-38
-5.07589e-39
)
;
    }
    rightWall
    {
        type            alphaContactAngle;
        contactAngleProperties 
        {
            air             
            {
                theta0          90;
            }
            water           
            {
                theta0          90;
            }
            oil             
            {
                theta0          90;
            }
        }
        value           nonuniform List<scalar> 
50
(
0.703479
0.531658
0.373576
0.128259
0.0435724
0.00614101
0.0123208
0.0124378
0.0085426
0.00253981
0.000957342
0.000378385
0.000513071
0.000620706
0.000627
0.000107639
1.1853e-06
0.00144992
0.00566425
0.0056647
0.00566468
0.00121215
3.1332e-09
2.14957e-09
2.35723e-09
1.01588e-09
3.92203e-10
2.08249e-10
5.73942e-11
1.36733e-11
1.33685e-12
1.55481e-13
5.5231e-15
7.04094e-16
1.84068e-16
9.546e-17
4.52359e-17
2.1045e-17
1.22992e-17
8.04628e-18
4.13787e-18
2.21236e-18
9.89496e-19
4.46618e-19
1.85277e-19
7.36536e-20
2.93432e-20
1.32233e-20
6.72053e-21
2.90942e-21
)
;
    }
    lowerWall
    {
        type            alphaContactAngle;
        contactAngleProperties 
        {
            air             
            {
                theta0          90;
            }
            water           
            {
                theta0          90;
            }
            oil             
            {
                theta0          90;
            }
        }
        value           nonuniform List<scalar> 
62
(
1
1
1
1
1
1
1
1
1
1
1
1
1
1
1
1
1
1
1
1
0.99983
0.999432
0.999432
0.999432
0.999519
1
1
1
1
1
0.878393
0.295879
0.241772
0.3216
0.365371
0.876489
0.876555
0.486827
0.0515671
0.00744944
0.0308426
0.0655998
0.298675
0.876489
0.876555
0.876323
0.875453
0.750651
0.557537
0.557151
0.569378
0.57522
0.576183
0.690998
0.707074
0.707379
0.707275
0.707142
0.704909
0.705132
0.703713
0.703479
)
;
    }
    atmosphere
    {
        type            inletOutlet;
        inletValue      uniform 0;
        value           nonuniform List<scalar> 
46
(
0
0
0
0
0
0
0
0
0
0
0
0
0
0
0
0
0
0
0
0
0
0
0
0
0
0
0
0
0
0
0
3.10276e-24
1.04524e-23
3.28973e-23
9.80183e-23
2.75078e-22
7.08522e-22
1.65468e-21
3.43345e-21
6.11064e-21
9.58005e-21
1.14521e-20
1.12021e-20
5.6085e-21
4.23486e-21
2.90942e-21
)
;
    }
    defaultFaces
    {
        type            empty;
    }
}


// ************************************************************************* //
