/*--------------------------------*- C++ -*----------------------------------*\
  =========                 |
  \\      /  F ield         | OpenFOAM: The Open Source CFD Toolbox
   \\    /   O peration     | Website:  https://openfoam.org
    \\  /    A nd           | Version:  13
     \\/     M anipulation  |
\*---------------------------------------------------------------------------*/
FoamFile
{
    format      ascii;
    class       volScalarField;
    location    "1.65";
    object      alphas;
}
// * * * * * * * * * * * * * * * * * * * * * * * * * * * * * * * * * * * * * //

dimensions      [];

internalField   nonuniform List<scalar> 
2268
(
2
2
2
2
2
2
2
2
2
2
2
2
2
2
2
2
2
2
2
2
1.99983
1.99943
1.99943
2
2
2
2
2
2
2
2
2
2
2
2
2
2
2
2
2
2
2
2
1.99999
1.99978
1.99952
2
2
2
2
2
2
2
2
2
2
2
2
2
2
2
2
2
2
2
2
2
2
2
2
2
2
2
2
2
2
2
2
2
2
2
2
2
2
2
2
2
2
2
2
2
2
1.68011
1.65461
1.6662
1.72261
1.79811
1.87397
1.94187
1.99634
2
2
2
2
2
2
2
2
2
2
2
2
2
2
2
0.112758
0.150876
0.18624
0.242285
0.326332
0.441658
0.591833
0.784415
1.05149
1.33069
1.61401
1.84637
1.98506
2
2
2
2
2
2
2
2
2
2
6.89312e-09
7.18718e-09
3.1255e-09
5.33648e-09
2.35354e-09
1.35218e-07
3.12745e-07
5.24241e-07
0.00887891
0.0533555
0.143694
0.33313
0.65347
1.12549
1.60482
1.92901
1.99538
2
2
2
2
2
2
1.71165e-08
1.29456e-08
9.56014e-09
7.86478e-09
7.47753e-09
8.72219e-09
1.27882e-08
3.17749e-08
8.96717e-08
2.48284e-07
4.06674e-07
5.20264e-07
5.83495e-07
0.0127978
0.105942
0.346128
0.883781
1.45991
1.71809
1.75143
1.77464
1.75761
1.75679
1.85733
1.86192
1.8993
1.93886
1.87689
1.70485
1.69024
1.67626
1.672
1.71129
1.95845
1.80827
1.75053
1.62289
1.66284
1.71591
1.71593
1.71851
1.71476
1.86584
1.86006
1.72392
1.70059
1.74681
1.84521
1.86503
1.8321
1.82849
1.87557
1.98205
2.18351
2.14568
1.92458
1.76601
1.76781
1.81361
1.78854
1.55196
1.48762
1.62539
1.43655
1.03873
1.14691
1.52159
1.77089
2.07438
2.20393
1.99577
1.99604
2.12543
2.26963
2.21139
2.20499
1.99736
1.91077
1.75266
1.51591
1.03117
1.12572
1.33402
0.939793
0.37104
0.416472
0.67436
1.97117
2.49904
2.35691
2.30074
2.28438
1.95574
1.13586
0.935013
1.11425
1.14767
1.10479
1.06997
0.866968
1.03123
1.10915
0.958259
0.247268
0.0178276
0.00961228
0.701446
1.9053
2.18719
2.21893
2.11938
1.49134
0.314312
0.210798
0.253736
0.299311
0.3645
0.695687
0.164658
0.404234
1.03119
1.1029
0.596632
0.0340992
0.00275313
0.0133944
0.725862
1.32215
1.33618
1.26128
0.746194
0.189455
0.0723639
0.110188
0.126298
0.263457
0.796748
0.142852
0.164244
0.620297
1.18279
1.14721
0.333043
0.00693755
0.000248446
0.00107304
0.0473979
0.0946871
0.110671
0.0824179
0.0238696
0.000452009
0.269606
0.337505
0.473139
0.875158
0.614327
0.182446
0.314736
1.10806
1.37624
0.906785
0.0886186
0.000194347
0.000255754
0.000676253
0.000689298
0.000172079
9.65954e-05
0.000170151
0.000395317
0.221802
0.83187
0.724904
1.13913
2.32857e-08
2.00941e-08
1.42514e-08
1.45421e-08
1.47783e-08
1.51284e-08
1.807e-08
1.74489e-08
1.51615e-08
1.25483e-08
1.06755e-08
1.55158e-08
3.37847e-08
1.2065e-07
3.38233e-07
4.04574e-07
4.02541e-07
0.0352353
0.180112
0.353924
0.456534
0.464911
0.471404
4.85e-08
1.65508e-08
1.26395e-08
1.45059e-08
1.83232e-08
2.88671e-08
4.00072e-08
4.41063e-08
4.17524e-08
4.16781e-08
4.13933e-08
4.07007e-08
3.85955e-08
3.24496e-08
3.6942e-08
3.80972e-08
1.47125e-07
9.40101e-08
1.0894e-07
0.000113632
0.00135032
0.00671837
0.0124836
0.000508892
0.00600047
0.00570409
0.00188495
4.155e-07
9.12854e-08
4.39409e-08
4.61798e-08
4.52423e-08
4.55838e-08
4.62968e-08
4.85391e-08
2.50522e-08
4.2148e-09
4.87724e-09
7.31704e-08
2.42981e-07
5.10268e-07
0.000105252
0.00461876
0.0203771
0.0729177
0.101679
0.416209
0.268533
0.195632
0.141504
0.115533
0.0978817
0.129107
0.167438
0.159102
0.146889
0.166391
0.208983
0.220549
0.200617
0.147387
0.145189
0.181556
0.265467
0.372313
0.450171
0.518769
0.648097
0.826691
1.12989
1.02345
0.91484
0.892178
0.889778
1.0649
1.11187
1.10319
1.11783
1.1364
1.1415
1.14604
1.15273
1.15969
1.12613
1.11129
1.20265
1.25358
1.30117
1.28132
1.21657
1.15428
1.05255
1.42023
1.03615
1.03483
1.03428
1.05462
1.21477
1.22204
1.12241
1.09168
1.12699
1.15635
1.15584
1.13386
1.08992
1.07486
1.08094
1.06897
1.04403
1.00228
1.00176
1.00075
1
1
1.31304
1.10892
1.131
1.09493
1.07848
1.05972
1.04709
1.03768
1.03246
1.02947
1.02798
1.02769
1.0285
1.03081
1.03645
1.046
1.05789
1.07537
1.09988
1.14044
1.19959
1.26271
1.32991
1.85815
2.10301
2.23455
2.33849
2.34088
2.29349
2.27174
2.26609
2.25117
2.23044
2.21564
2.21223
2.22298
2.24691
2.28142
2.32264
2.37436
2.4439
2.53161
2.62972
2.72222
2.79479
2.85044
2.77317
2.75532
2.92917
2.99997
3
3
3
3
3
3
3
3
3
3
3
3
3
3
3
3
3
3
3
3
2.97397
2.97168
2.99703
2.99998
3
3
3
3
3
3
3
3
3
3
3
3
3
3
3
3
3
3
3
3
2.98824
2.99834
2.99999
3
3
3
3
2.99999
2.99979
2.99987
2.99999
3
3
3
3
3
3
3
3
3
3
3
2.99994
2.99965
2.99938
3
3
3
3
3
2.99977
2.99965
2.99965
2.99989
3
3
2.99999
2.99999
3
3
3
3
3
3
3
3
3
3
3
3
3
3
3
2.99966
2.99965
2.99965
2.99985
2.99999
2.99999
2.99999
2.99999
3
3
3
3
3
3
3
3
3
3
3
3
3
3
3
2.99992
2.99967
2.99965
2.99991
2.99999
2.99999
2.99999
3
3
3
3
3
3
3
3
3
3
3
3
3
3
3
3
3
2.99998
2.99993
2.99999
2.99999
2.99999
3
3
3
3
3
3
3
3
3
3
3
3
3
3
3
3
3
3
3
3
3
3
3
3
3
3
3
3
3
3
3
3
3
3
3
3
3
3
3
3
3
3
3
3
3
3
3
3
3
3
3
3
3
3
3
3
3
3
3
3
3
3
3
3
3
3
3
3
3
3
3
3
3
3
3
3
3
3
3
3
3
3
3
3
3
3
3
3
3
3
3
3
3
3
3
3
3
3
3
3
3
3
3
3
3
3
3
3
3
3
3
3
3
3
3
3
3
3
3
3
3
3
3
3
3
3
3
3
3
3
3
3
3
3
3
3
3
3
3
3
3
3
3
3
3
3
3
3
3
3
3
3
3
3
3
3
3
3
3
3
3
3
3
3
3
3
3
3
3
3
3
3
3
3
3
3
3
3
3
3
3
3
3
3
3
3
3
3
3
3
3
3
3
3
3
3
3
3
3
3
3
3
3
3
3
3
3
3
3
3
3
3
3
3
3
3
3
3
3
3
3
3
3
3
3
3
3
3
3
3
3
3
3
3
3
3
3
3
3
3
3
3
3
3
3
3
3
3
3
3
3
3
3
3
3
3
3
3
3
3
3
3
3
3
3
3
3
3
3
3
3
3
3
3
3
3
3
3
3
3
3
3
3
3
3
3
3
3
3
3
3
3
3
3
3
3
3
3
3
3
3
3
3
3
3
3
3
3
3
3
3
3
3
3
3
3
3
3
3
3
3
3
3
3
3
3
3
3
3
3
3
3
3
3
3
3
3
3
3
3
3
3
3
3
3
3
3
3
3
3
3
3
3
3
3
3
3
3
3
3
3
3
3
3
3
3
3
3
3
3
3
3
3
3
3
3
3
3
3
3
3
3
3
3
3
3
3
3
3
3
3
3
3
3
3
3
3
3
3
3
3
3
3
3
3
3
3
3
3
3
3
3
3
3
3
3
3
3
3
3
3
3
3
3
3
3
3
3
3
3
3
3
3
3
3
3
3
3
3
3
3
3
3
3
3
3
3
3
3
3
3
3
3
3
3
3
3
3
3
3
3
3
3
3
3
3
3
3
3
3
3
3
3
3
3
3
3
3
3
3
3
3
3
3
3
3
3
3
3
3
3
3
3
3
3
3
3
3
3
3
3
3
3
3
3
3
3
3
3
3
3
3
3
3
3
3
3
3
3
3
3
3
3
3
3
3
3
3
3
3
3
3
3
3
3
3
3
3
3
3
3
3
3
3
3
3
3
3
3
3
3
3
3
3
3
3
3
3
3
3
3
3
3
3
3
3
3
3
3
3
3
3
3
3
3
3
3
3
3
3
3
3
3
3
3
3
3
3
3
3
3
3
3
3
3
3
3
3
3
3
3
3
3
3
3
3
3
3
3
3
3
3
3
3
3
3
3
3
3
3
3
3
3
3
3
3
3
3
3
0.593319
0.484932
0.644998
0.746457
0.0156689
0.0167526
0.0232313
0.0548207
0.140953
0.172681
0.173743
0.509017
0.949046
1.19254
1.26044
1.35597
1.04482
1.20166
1.26709
1.08036
1
1
1
1
1.36537
1.35578
1.34136
1.31806
2.87204
2.87442
2.86816
2.84298
3
3
3
3
3
3
3
3
3
3
3
3
3
3
3
3
3
3
3
3
3
3
3
3
3
3
3
3
3
3
3
3
3
3
3
3
3
3
3
3
3
3
3
3
3
3
3
3
3
3
3
3
3
3
3
3
3
3
3
3
3
3
3
3
3
3
3
3
3
3
3
3
3
3
3
3
3
3
3
3
3
3
3
3
3
3
3
3
3
3
3
3
3
3
3
3
3
3
3
3
3
3
3
3
3
3
3
3
3
3
3
3
3
3
3
3
3
3
3
3
3
3
3
3
3
3
3
3
3
3
3
3
3
3
3
3
0.793595
0.192072
0.311189
0.837856
1.39991
1.28095
0.422429
0.00324807
0.000288525
0.000270045
0.000211213
0.00020063
0.000245694
0.000341858
0.000504481
0.291795
0.972299
0.997314
1.02061
0.220017
0.168659
0.524639
0.846674
1.17421
1.17381
1.1003
0.340984
0.00532412
0.00027248
0.000266496
0.00365826
0.00485907
0.099189
0.495507
0.906013
1.00127
1.00001
1.00069
1.09396
1.066
1.00417
1.25723
1.04685
1.0002
1.18994
0.961957
0.468735
0.272219
0.113183
0.169075
0.616109
0.921226
0.997613
1.00103
1.00142
1.00002
0.994589
1.23075
1.05404
1.09272
1.04836
1.00219
0.99996
1.00021
1.12649
1.1261
0.873966
0.857106
0.914883
0.999844
1.00019
1.00008
1.00035
1.00101
1
1.00519
1
1
0.999999
0.999997
0.999968
0.999929
0.999931
1.00042
1.09686
1.2168
1.12306
1.00237
1.00001
1.00023
1.00018
1.00001
1.00006
1
1.04533
1
1
1
1
1
1
0.999987
0.99997
0.999972
1.00174
1.00163
1.00092
1.00002
1.00011
1.00012
1.00001
1
1
1.05933
1.27873
1.19784
1.09853
1.028
1.00135
1
0.999998
0.999994
0.999992
0.999995
0.999999
1.00014
1.00003
1
1.00001
1.00001
1
1
1.05973
2.79506
2.69921
2.52331
2.25922
1.92549
1.58039
1.30457
1.08188
0.999999
0.999998
1
1
1.00001
1
1
1
1
1
1.0599
3
3
3
3
3
2.95288
2.7771
2.47488
1.98239
1.44834
1.04871
1
1
1
1
1
1
1.00005
1.01616
3
3
3
3
3
3
3
3
2.99222
2.83738
2.38103
1.63988
1.1466
1
1
1
1
1.00014
1.00558
3
3
3
3
3
3
3
3
3
2.99999
2.99998
2.94155
2.59767
1.83072
1.1471
0.999994
0.999939
0.999513
0.9882
3
3
3
3
3
3
3
3
2.99989
3
2.99998
2.99999
2.99998
2.98708
2.66342
1.69376
1.00424
0.996936
0.98498
3
3
3
3
3
3
2.99978
2.99862
2.99799
2.99869
3
3
3
3
2.99998
2.9682
2.39517
1.77809
1.90779
3
3
3
3
3
3
2.99955
2.99795
2.99795
2.99847
3
2.99999
2.99979
2.99836
2.99972
2.99993
2.99985
2.97541
2.95004
3
3
3
3
3
3
2.99988
2.99949
2.99908
2.99976
3
2.99977
2.99576
2.99541
2.99556
2.99707
2.99914
2.99989
2.99929
3
3
3
3
3
3
3
3
3
3
3
2.99976
2.99759
2.99644
2.99752
2.9984
2.99898
2.99991
3
3
3
3
3
3
3
3
3
3
3
2.99999
2.99989
3
2.99988
3
3
2.99992
2.99998
3
3
3
3
3
3
3
3
3
3
3
3
3
3
3
3
3
3
3
3
3
3
3
3
3
3
3
3
3
3
3
3
3
3
3
3
3
3
3
3
3
3
3
3
3
3
3
3
3
3
3
3
3
3
3
3
3
3
3
3
3
3
3
3
3
3
3
3
3
3
3
3
3
3
3
3
3
3
3
3
3
3
3
3
3
3
3
3
3
3
3
3
3
3
3
3
3
3
3
3
3
3
3
3
3
3
3
3
3
3
3
3
3
3
3
3
3
3
3
3
3
3
3
3
3
3
3
3
3
3
3
3
3
3
3
3
3
3
3
3
3
3
3
3
3
3
3
3
3
3
3
3
3
3
3
3
3
3
3
3
3
3
3
3
3
3
3
3
3
3
3
3
3
3
3
3
3
3
3
3
3
3
3
3
3
3
3
3
3
3
3
3
3
3
3
3
3
3
3
3
3
3
3
3
3
3
3
3
3
3
3
3
3
3
3
3
3
3
3
3
3
3
3
3
3
3
3
3
3
3
3
3
3
3
3
3
3
3
3
3
3
3
3
3
3
3
3
3
3
3
3
3
3
3
3
3
3
3
3
3
3
3
3
3
3
3
3
3
3
3
3
3
3
3
3
3
3
3
3
3
3
3
3
3
3
3
3
3
3
3
3
3
3
3
3
3
3
3
3
3
3
3
3
3
3
3
3
3
3
3
3
3
3
3
3
3
3
3
3
3
3
3
3
3
3
3
3
3
3
3
3
3
3
3
3
3
3
3
3
3
3
3
3
3
3
3
3
3
3
3
3
3
3
3
3
3
3
3
3
3
3
3
3
3
3
3
3
3
3
3
3
3
3
3
3
3
3
3
3
3
3
3
3
3
3
3
3
3
3
3
3
3
3
3
3
3
3
3
3
3
3
3
3
3
3
3
3
3
3
3
3
3
3
3
3
3
3
3
3
3
3
3
3
3
3
3
3
3
3
3
3
3
3
3
3
3
3
3
3
3
3
3
3
3
3
3
3
3
3
3
3
3
3
3
3
3
3
3
3
3
3
3
3
3
3
3
3
3
3
3
3
3
3
3
3
3
)
;

boundaryField
{
    leftWall
    {
        type            calculated;
        value           nonuniform List<scalar> 
50
(
2
2
2
2
1.68011
0.112758
6.89312e-09
1.71165e-08
2.32857e-08
4.85e-08
0.000508892
0.416209
1.12989
1.42023
1.31304
1.85815
2.77317
3
3
3
3
3
3
3
3
3
3
3
3
3
3
3
3
3
3
3
3
3
3
3
3
3
3
3
3
3
3
3
3
3
)
;
    }
    rightWall
    {
        type            calculated;
        value           nonuniform List<scalar> 
50
(
1.71476
1.55196
1.51591
1.06997
0.695687
0.796748
0.875158
1.13913
1.02061
1.00069
0.994589
1.00519
1.04533
1.05933
1.05973
1.0599
1.01616
1.00558
0.9882
0.98498
1.90779
2.95004
2.99929
3
3
3
3
3
3
3
3
3
3
3
3
3
3
3
3
3
3
3
3
3
3
3
3
3
3
3
)
;
    }
    lowerWall
    {
        type            calculated;
        value           nonuniform List<scalar> 
62
(
2
2
2
2
2
2
2
2
2
2
2
2
2
2
2
2
2
2
2
2
1.99983
1.99943
1.99943
1.99943
1.99952
2
2
2
2
2
1.75679
0.593319
0.484932
0.644998
0.746457
1.85733
1.86584
1.48762
1.03117
0.866968
0.164658
0.142852
0.614327
1.85733
1.86192
1.8993
1.93886
1.87689
1.70485
1.69024
1.67626
1.672
1.71129
1.95845
1.80827
1.75053
1.62289
1.66284
1.71591
1.71593
1.71851
1.71476
)
;
    }
    atmosphere
    {
        type            calculated;
        value           nonuniform List<scalar> 
46
(
3
3
3
3
3
3
3
3
3
3
3
3
3
3
3
3
3
3
3
3
3
3
3
3
3
3
3
3
3
3
3
3
3
3
3
3
3
3
3
3
3
3
3
3
3
3
)
;
    }
    defaultFaces
    {
        type            empty;
    }
}


// ************************************************************************* //
