/*--------------------------------*- C++ -*----------------------------------*\
  =========                 |
  \\      /  F ield         | OpenFOAM: The Open Source CFD Toolbox
   \\    /   O peration     | Website:  https://openfoam.org
    \\  /    A nd           | Version:  13
     \\/     M anipulation  |
\*---------------------------------------------------------------------------*/
FoamFile
{
    format      ascii;
    class       volScalarField;
    location    "1.65";
    object      alpha.oil;
}
// * * * * * * * * * * * * * * * * * * * * * * * * * * * * * * * * * * * * * //

dimensions      [];

internalField   nonuniform List<scalar> 
2268
(
1.49991e-15
8.99344e-15
4.12252e-14
1.37451e-13
3.25815e-13
6.75876e-13
1.23616e-12
2.58533e-12
5.13682e-12
9.65614e-12
1.7765e-11
3.30243e-11
6.21136e-11
1.20639e-10
2.21499e-10
4.04239e-10
7.39317e-10
1.20024e-09
1.36112e-09
1.42739e-09
0.00016987
0.000568018
0.000567943
7.48801e-16
4.89885e-15
1.63364e-14
4.83392e-14
1.82484e-13
5.77792e-13
1.25573e-12
2.8614e-12
6.0201e-12
1.34186e-11
2.81144e-11
5.35729e-11
1.01558e-10
1.99201e-10
3.82125e-10
6.96445e-10
1.30953e-09
2.9254e-09
1.17365e-08
1.63585e-08
7.39815e-06
0.000221921
0.000481324
6.6534e-16
3.01e-15
7.79825e-15
2.15624e-14
7.86992e-14
4.47275e-13
1.21159e-12
2.87192e-12
6.84992e-12
1.65851e-11
3.57112e-11
7.4307e-11
1.4531e-10
2.66132e-10
4.36262e-10
6.92455e-10
9.51475e-10
2.84363e-09
1.09477e-08
2.13784e-08
1.9924e-08
1.84007e-08
2.15175e-08
6.60611e-16
3.85069e-15
1.78931e-14
2.65997e-14
5.0355e-14
1.86648e-13
5.93726e-13
1.64674e-12
4.97638e-12
1.33304e-11
3.14646e-11
7.07563e-11
1.53188e-10
3.34033e-10
7.56177e-10
1.49442e-09
2.10609e-09
4.88674e-09
1.48836e-08
2.18752e-08
2.1942e-08
2.83643e-08
3.35733e-08
3.33603e-12
4.14228e-12
6.9098e-12
6.65442e-12
4.92733e-12
3.08267e-12
1.94138e-12
1.67899e-12
2.03153e-12
4.83552e-12
1.37272e-11
3.71532e-11
9.57259e-11
2.26488e-10
7.23551e-10
2.64273e-09
4.28691e-09
4.34882e-09
6.77696e-09
1.17321e-08
1.99822e-08
5.75272e-08
3.17316e-08
3.59454e-10
2.71684e-10
2.65593e-10
2.27224e-10
1.79711e-10
1.16732e-10
5.66615e-11
2.70046e-11
1.46791e-11
1.01628e-11
1.0933e-11
1.59536e-11
6.59093e-11
3.01083e-10
1.58724e-09
9.37943e-09
3.03198e-08
3.27794e-08
1.80305e-08
3.45174e-08
5.03488e-08
6.27071e-08
8.43914e-08
2.48194e-09
1.70268e-09
1.31087e-09
1.08292e-09
8.59522e-10
5.84465e-10
2.78489e-10
1.53571e-10
8.3152e-11
4.60658e-11
3.55599e-11
4.31233e-11
1.00214e-10
2.80141e-10
4.11502e-10
4.06751e-10
4.56588e-08
1.35043e-07
2.15803e-07
6.10821e-07
4.12966e-07
1.11267e-07
2.29602e-07
6.39759e-09
4.76761e-09
3.68524e-09
3.00695e-09
2.5362e-09
1.97943e-09
9.86997e-10
5.23063e-10
2.90569e-10
1.41126e-10
9.00566e-11
9.79682e-11
1.79145e-10
3.35522e-10
4.46606e-10
4.21517e-10
4.06708e-10
6.16353e-08
1.91385e-06
3.19272e-06
2.12617e-06
1.25683e-07
2.31665e-06
0.103183
0.0851356
0.0371236
0.0285286
0.146651
0.360725
0.373397
0.374172
0.374172
0.339018
0.0591329
0.0586311
0.0862258
0.1501
0.202688
0.261281
0.261125
0.260567
0.262547
0.111628
0.106062
0.0595389
0.0294312
0.0464542
0.103766
0.154718
0.185263
0.188788
0.158375
0.146601
0.0583459
0.0584222
0.126827
0.218496
0.247009
0.246618
0.267555
0.429861
0.512807
0.380146
0.303456
0.169118
0.0587173
0.00496534
0.0136007
0.0416258
0.0455103
0.203662
0.252179
0.24648
0.222906
0.225487
0.210687
0.253323
0.254254
0.320057
0.520298
0.888429
0.885081
0.680407
0.321484
0.00540008
0.000360415
6.96774e-07
2.31902e-08
0.0484503
0.196178
0.252438
0.257352
0.26161
0.26161
0.260693
0.14156
0.119508
0.286187
0.520322
0.768432
0.884849
0.894069
0.544979
0.0160524
-1.7264e-10
1.16466e-08
5.13592e-09
0.103784
0.248388
0.255449
0.211056
0.198925
0.153651
0.118074
0.114947
0.116369
0.232734
0.518357
0.0258414
0.238808
0.860776
0.838995
0.348144
0.00199698
7.93387e-09
8.8463e-09
0.0563962
0.206965
0.254224
0.249216
0.207007
0.104247
0.0646349
0.107279
0.110071
0.208347
0.4778
-1.45367e-06
-4.95134e-06
0.331614
0.802798
0.746712
0.147897
3.66818e-08
3.93795e-07
0.000941072
0.0235052
0.0786095
0.099561
0.0823383
0.0219025
6.96912e-05
0.269447
0.337261
0.300464
0.496954
0.000392281
-2.4292e-21
0
0.471412
0.763195
0.436121
0.0090292
5.91342e-06
5.5429e-07
4.43925e-07
6.07023e-07
1.9478e-05
9.61735e-05
3.95225e-05
3.53305e-06
0.221532
0.83168
0.563884
0.763087
8.72553e-09
7.66812e-09
6.57435e-09
5.86497e-09
5.45578e-09
4.55766e-09
2.49415e-09
1.31868e-09
7.51833e-10
3.95336e-10
2.19596e-10
1.9494e-10
3.19614e-10
5.8186e-10
6.15785e-10
5.38505e-10
4.0672e-10
7.06509e-09
1.45686e-06
3.14811e-06
6.83577e-07
3.74131e-08
4.10498e-06
7.02716e-09
6.57581e-09
7.17639e-09
7.19704e-09
8.44147e-09
8.42229e-09
5.01738e-09
2.0554e-09
1.22876e-09
7.15642e-10
3.06238e-10
3.05909e-10
5.83128e-10
1.38666e-09
1.65184e-09
1.74973e-09
2.31599e-09
4.89244e-09
2.60333e-08
7.59813e-10
2.29257e-08
2.43785e-08
4.16802e-05
1.85298e-09
1.81875e-09
1.79316e-09
1.76234e-09
1.79316e-09
2.49739e-09
2.42143e-09
1.50404e-09
6.83932e-10
3.81399e-10
3.49444e-10
3.40587e-10
3.64318e-10
4.04781e-10
4.00205e-10
4.2335e-09
1.42194e-08
3.4502e-08
-5.81361e-10
-1.24464e-09
-1.13118e-09
-3.57033e-10
0.0051212
0.00792658
0.0980178
0.123552
0.119138
0.084987
0.0334631
0.00232033
1.47403e-09
-3.08558e-10
3.79712e-10
-3.66925e-11
3.34339e-10
1.34462e-09
0.00148377
0.00577427
0.0094461
0.0127187
0.0221544
0.0511515
0.110162
0.199005
0.33427
0.521278
0.367712
0.809012
0.890212
0.869392
0.787004
0.58227
0.491765
0.483215
0.505442
0.493997
0.494885
0.49745
0.50251
0.510265
0.53453
0.551313
0.551638
0.591732
0.668586
0.772531
0.883156
0.922862
0.973724
0.704264
0.981917
0.981917
0.981917
0.972692
0.892616
0.888981
0.938794
0.954161
0.936503
0.921823
0.92208
0.933072
0.95504
0.962569
0.959528
0.965516
0.977984
0.99886
0.999118
0.999626
1
1
0.792454
0.945538
0.934493
0.952532
0.960761
0.970142
0.976456
0.981162
0.983768
0.985267
0.98601
0.986155
0.985748
0.984593
0.981774
0.976998
0.971057
0.962316
0.950058
0.929779
0.900204
0.868643
0.835044
0.569699
0.448311
0.382689
0.33075
0.329559
0.353255
0.364131
0.366953
0.374413
0.384781
0.39218
0.393885
0.388508
0.376547
0.359291
0.338678
0.31282
0.278047
0.234194
0.185138
0.138889
0.102603
0.0747821
0.113416
0.122335
0.0353732
3.10741e-08
3.68316e-07
4.3439e-14
-4.34371e-14
1.26308e-16
4.46764e-15
3.2213e-16
2.05378e-16
-8.05833e-25
0
3.82102e-18
3.20012e-19
6.56413e-20
6.47223e-18
1.10975e-16
1.95603e-15
7.29929e-15
3.46308e-15
3.52248e-15
1.11993e-15
7.44282e-07
0.0130154
0.0141417
0.00147087
1.31134e-09
1.08856e-11
5.5144e-09
5.55749e-08
2.60555e-07
2.05244e-08
2.88859e-07
-2.66607e-22
1.62292e-23
6.36421e-09
1.5305e-09
8.82393e-10
5.81362e-09
2.60821e-08
1.17138e-07
1.54177e-07
1.09458e-07
1.03158e-07
9.35797e-08
7.33742e-07
7.44281e-07
0.00587828
0.000815091
7.06197e-11
2.30228e-09
3.12447e-08
2.0833e-07
9.2726e-07
5.96112e-06
0.000102036
5.99855e-05
3.34351e-06
4.79219e-09
8.80927e-09
9.63827e-10
4.53096e-08
4.85559e-07
6.9851e-07
6.64832e-07
6.14917e-07
4.75749e-07
2.02652e-07
7.57793e-07
3.22074e-05
0.00017529
0.000307653
2.28926e-13
4.28811e-08
1.14775e-07
2.83788e-07
2.90145e-07
0.000112852
0.000171622
0.000172033
4.923e-05
1.46148e-08
1.84352e-08
6.58831e-09
7.28502e-08
6.66137e-07
6.75168e-07
5.64675e-07
4.8943e-07
3.44306e-07
1.47859e-07
7.97405e-07
8.27907e-07
9.77669e-07
1.77713e-07
3.00682e-07
1.03478e-07
1.6577e-07
3.0783e-07
2.958e-07
0.000169017
0.000172281
0.000172274
7.23866e-05
1.61168e-08
6.11557e-08
3.36264e-08
1.08276e-07
1.99318e-07
3.21944e-07
1.78156e-07
1.43518e-07
6.54501e-08
3.1596e-08
8.95378e-07
1.46399e-06
7.30406e-07
1.7115e-07
1.29532e-07
9.31325e-08
1.57553e-07
2.49497e-07
4.86078e-07
4.22912e-05
0.000166513
0.000172311
3.9623e-05
1.17807e-07
1.41286e-07
3.57613e-08
1.11801e-08
4.00896e-09
5.34178e-08
3.70804e-09
1.04538e-09
2.80236e-09
4.42531e-09
2.49744e-07
6.21201e-07
2.56432e-07
1.23284e-07
7.98834e-08
8.77699e-08
1.34636e-07
1.62254e-07
2.07841e-06
1.33048e-08
1.13067e-05
3.54516e-05
4.36707e-06
1.00843e-06
3.89928e-07
3.37181e-09
3.6787e-09
3.97528e-09
5.59167e-09
1.37596e-09
1.03558e-09
1.00779e-09
9.77242e-10
3.80537e-08
1.0123e-07
1.03367e-07
8.29236e-08
7.25185e-08
6.68019e-08
5.55458e-08
4.74773e-08
1.71626e-08
1.33217e-08
1.33048e-08
1.33488e-08
2.6057e-08
2.33642e-06
4.63049e-07
3.2398e-09
1.1019e-08
6.92924e-09
4.55128e-09
4.82835e-09
2.70423e-09
1.41985e-09
1.15001e-09
3.23452e-08
7.33799e-08
9.71236e-08
8.74047e-08
6.76197e-08
4.19682e-08
2.63419e-08
1.56884e-08
1.3654e-08
1.36762e-08
1.34512e-08
1.96997e-08
5.47837e-07
2.2534e-06
4.28272e-07
3.28674e-09
1.46508e-08
1.43719e-08
1.17858e-08
1.01321e-08
6.9692e-09
3.3552e-09
2.09373e-09
3.0146e-08
7.12859e-08
9.69535e-08
8.9045e-08
5.83404e-08
3.20915e-08
2.02701e-08
1.67763e-08
1.58951e-08
1.42083e-08
1.33271e-08
7.533e-08
8.38521e-07
1.45532e-06
1.72415e-08
1.31626e-08
1.49348e-08
1.34466e-08
1.26778e-08
1.07959e-08
8.4537e-09
4.66918e-09
3.04791e-09
2.33727e-08
6.19479e-08
8.60059e-08
8.40527e-08
5.70031e-08
3.25862e-08
2.00079e-08
1.69001e-08
1.59919e-08
1.49439e-08
2.09765e-08
7.98319e-08
5.71629e-08
5.16876e-09
1.849e-08
3.28394e-08
1.51666e-08
1.02509e-08
9.16327e-09
9.03558e-09
7.84376e-09
4.96052e-09
3.49867e-09
1.54349e-08
4.04023e-08
6.28642e-08
6.79455e-08
5.57267e-08
3.28058e-08
1.89643e-08
1.42679e-08
1.32415e-08
1.23222e-08
9.92227e-09
5.10106e-09
4.68594e-09
5.11951e-09
1.36148e-08
2.78366e-08
1.30413e-08
8.39574e-09
6.81591e-09
6.8521e-09
6.38302e-09
4.80023e-09
3.38404e-09
9.15986e-09
2.73021e-08
4.21982e-08
4.77443e-08
4.52055e-08
3.23552e-08
1.66652e-08
1.06853e-08
8.95259e-09
8.53718e-09
7.67911e-09
5.76426e-09
4.81655e-09
4.96317e-09
6.62261e-09
9.04216e-09
7.85197e-09
5.63405e-09
4.63625e-09
4.73951e-09
4.682e-09
3.90593e-09
3.12418e-09
5.65379e-09
1.54068e-08
2.35166e-08
2.93454e-08
3.19066e-08
2.66706e-08
1.5099e-08
8.22548e-09
5.86264e-09
5.12807e-09
5.21549e-09
5.09318e-09
4.58535e-09
3.92356e-09
3.4221e-09
3.44737e-09
3.71538e-09
3.21978e-09
2.94576e-09
2.94994e-09
2.89855e-09
2.8529e-09
2.421e-09
2.6129e-09
7.11434e-09
1.24977e-08
1.49712e-08
1.76071e-08
1.91179e-08
1.26358e-08
6.4766e-09
4.03147e-09
3.03712e-09
2.78665e-09
2.94982e-09
2.98913e-09
2.69048e-09
2.36591e-09
2.02602e-09
1.81251e-09
1.71013e-09
1.67771e-09
1.69598e-09
1.71603e-09
1.63139e-09
1.54648e-09
1.2522e-09
3.44341e-09
5.52211e-09
6.70163e-09
7.16445e-09
1.05943e-08
8.96349e-09
4.74222e-09
2.7522e-09
1.73006e-09
1.31106e-09
1.32393e-09
1.44567e-09
1.54625e-09
1.44617e-09
1.23915e-09
1.0746e-09
9.55919e-10
9.04695e-10
9.03031e-10
8.85377e-10
8.83066e-10
8.35007e-10
4.68684e-10
1.38597e-09
2.19047e-09
2.64568e-09
2.4387e-09
3.83818e-09
4.77594e-09
3.04002e-09
1.84011e-09
1.10823e-09
7.28394e-10
5.93204e-10
6.25204e-10
7.18156e-10
7.31304e-10
6.73753e-10
5.89924e-10
5.17879e-10
4.70829e-10
4.64932e-10
4.63956e-10
4.38965e-10
4.13386e-10
1.87507e-10
4.79899e-10
7.50288e-10
9.3529e-10
8.32395e-10
1.21789e-09
1.70767e-09
1.46635e-09
1.00357e-09
6.33548e-10
3.83046e-10
2.83882e-10
2.6125e-10
2.8355e-10
3.08231e-10
3.13447e-10
2.88522e-10
2.62312e-10
2.38163e-10
2.24048e-10
2.10821e-10
2.03302e-10
1.87203e-10
4.57781e-11
1.29569e-10
2.16808e-10
2.79685e-10
2.55489e-10
3.70399e-10
5.48113e-10
5.35108e-10
4.22158e-10
2.91538e-10
1.90084e-10
1.25586e-10
1.03249e-10
1.04609e-10
1.18919e-10
1.26137e-10
1.23634e-10
1.1371e-10
1.07158e-10
9.98174e-11
9.39349e-11
8.75528e-11
8.15617e-11
9.75953e-12
2.98865e-11
5.19509e-11
6.87e-11
6.50332e-11
9.40151e-11
1.45109e-10
1.58168e-10
1.34157e-10
1.02455e-10
7.28262e-11
5.05779e-11
3.91142e-11
3.62065e-11
4.05623e-11
4.52746e-11
4.6931e-11
4.5344e-11
4.30174e-11
4.03575e-11
3.61419e-11
3.30048e-11
3.03899e-11
1.49349e-12
5.38776e-12
9.63728e-12
1.30176e-11
1.29252e-11
1.91906e-11
3.18401e-11
3.8029e-11
3.48742e-11
2.84742e-11
2.16747e-11
1.60011e-11
1.25465e-11
1.18408e-11
1.25277e-11
1.44171e-11
1.58366e-11
1.53515e-11
1.49933e-11
1.4423e-11
1.28794e-11
1.1314e-11
1.01408e-11
1.62953e-13
7.04074e-13
1.31063e-12
1.80977e-12
1.85483e-12
2.95577e-12
5.62593e-12
7.38617e-12
7.0521e-12
6.16151e-12
5.06793e-12
4.04883e-12
3.38735e-12
3.16929e-12
3.57094e-12
4.11059e-12
4.5381e-12
4.75739e-12
4.69206e-12
4.59998e-12
4.06709e-12
3.33026e-12
2.87397e-12
6.18625e-15
5.52713e-14
1.17932e-13
1.62937e-13
1.75298e-13
3.37021e-13
7.79562e-13
1.16292e-12
1.17361e-12
1.08837e-12
9.53177e-13
8.06732e-13
7.38975e-13
7.5152e-13
8.84006e-13
1.05716e-12
1.20555e-12
1.26149e-12
1.27117e-12
1.24192e-12
1.15706e-12
8.69574e-13
6.66204e-13
1.92399e-16
2.56401e-15
5.21123e-15
8.10289e-15
1.0549e-14
2.7331e-14
8.20202e-14
1.36518e-13
1.59233e-13
1.53587e-13
1.42498e-13
1.31132e-13
1.31849e-13
1.52912e-13
1.82487e-13
2.28303e-13
2.63002e-13
2.89176e-13
2.92635e-13
2.88398e-13
2.58242e-13
1.70811e-13
1.37765e-13
1.76042e-18
2.10508e-17
9.64168e-17
1.50697e-16
4.30216e-16
1.80077e-15
5.94574e-15
1.16724e-14
1.49683e-14
1.6166e-14
1.65073e-14
1.80268e-14
2.09777e-14
2.64047e-14
3.44936e-14
4.28866e-14
5.25484e-14
5.68984e-14
5.83458e-14
5.60956e-14
4.71652e-14
3.38193e-14
2.20652e-14
4.9129e-21
1.30447e-19
3.73632e-19
2.71968e-18
1.9109e-17
1.0202e-16
3.83406e-16
7.99502e-16
1.27478e-15
1.55454e-15
1.85404e-15
2.23935e-15
2.92258e-15
4.0838e-15
5.63617e-15
7.43127e-15
8.67299e-15
9.59567e-15
1.00348e-14
9.41925e-15
7.56913e-15
4.88116e-15
3.13605e-15
1.26064e-23
3.83468e-22
6.08089e-21
8.72976e-20
8.18629e-19
4.59251e-18
1.91512e-17
4.6911e-17
9.43959e-17
1.35552e-16
1.84325e-16
2.58717e-16
3.81592e-16
5.82603e-16
8.49437e-16
1.15892e-15
1.42411e-15
1.57624e-15
1.56089e-15
1.35211e-15
9.85482e-16
6.45548e-16
4.42641e-16
1.13273e-26
1.08741e-24
1.16371e-22
2.82575e-21
2.96109e-20
1.99561e-19
9.16188e-19
2.59318e-18
6.78893e-18
1.13437e-17
1.74568e-17
2.80837e-17
4.6453e-17
7.56659e-17
1.15918e-16
1.59858e-16
1.97665e-16
2.06674e-16
1.96859e-16
1.59274e-16
1.15003e-16
8.0806e-17
9.43613e-17
1.50534e-28
1.72032e-26
2.6276e-24
8.1547e-23
9.77752e-22
7.65627e-21
3.86371e-20
1.26877e-19
4.3612e-19
8.61475e-19
1.53627e-18
2.82614e-18
5.14859e-18
8.98022e-18
1.39697e-17
1.98124e-17
2.39209e-17
2.47329e-17
2.18499e-17
1.71295e-17
1.26261e-17
1.44299e-17
3.51673e-17
1.17997e-29
3.60856e-28
5.36137e-26
2.15863e-24
3.06418e-23
2.58164e-22
1.48717e-21
5.9374e-21
2.61743e-20
6.05911e-20
1.24753e-19
2.58457e-19
5.16824e-19
9.57032e-19
1.5606e-18
2.17779e-18
2.56985e-18
2.56147e-18
2.2799e-18
2.01053e-18
2.2263e-18
4.56471e-18
1.74545e-17
2.0152e-30
2.52491e-29
1.1817e-27
5.64875e-26
9.15012e-25
8.53274e-24
5.86847e-23
2.77309e-22
1.46685e-21
3.92458e-21
9.27513e-21
2.22654e-20
4.77225e-20
9.24572e-20
1.54699e-19
2.18362e-19
2.64224e-19
2.77651e-19
2.80013e-19
3.40728e-19
6.02347e-19
1.84503e-18
1.0159e-17
3.67618e-31
4.29252e-30
5.63331e-29
1.74505e-27
3.1369e-26
3.24898e-25
2.55496e-24
1.46507e-23
8.98203e-23
2.63327e-22
7.13579e-22
1.8942e-21
4.52967e-21
9.39113e-21
1.62414e-20
2.39721e-20
3.08807e-20
3.69134e-20
4.80498e-20
8.66769e-20
2.25174e-19
1.09686e-18
6.90085e-18
6.91992e-32
7.85377e-31
7.76438e-30
1.02324e-28
1.54646e-27
1.54648e-26
1.26603e-25
8.19104e-25
5.50172e-24
1.88874e-23
5.92543e-23
1.772e-22
4.62312e-22
1.02502e-21
1.88911e-21
3.03461e-21
4.45837e-21
6.46198e-21
1.09391e-20
2.71645e-20
1.162e-19
6.34257e-19
4.31955e-18
8.68972e-33
9.89513e-32
1.08189e-30
1.14861e-29
1.24642e-28
1.1531e-27
9.37047e-27
6.89634e-26
4.28043e-25
1.66294e-24
5.86504e-24
1.87454e-23
5.21416e-23
1.23115e-22
2.5558e-22
4.44751e-22
7.3575e-22
1.22121e-21
2.48563e-21
8.79295e-21
4.49714e-20
2.61061e-19
1.94284e-18
4.81251e-05
5.01168e-05
1.09054e-05
2.35433e-06
0.00139043
0.00166041
0.000726967
4.23765e-06
0.03695
0.0438407
0.023179
0.0681119
0.706085
0.661651
0.605385
0.688912
0.977591
0.899168
0.866454
0.959821
1
1
1
1
0.817315
0.822108
0.829318
0.840969
0.0639799
0.0627895
0.0659206
0.0785104
-7.56957e-11
7.06304e-26
-7.45258e-26
2.33604e-16
8.48456e-08
6.88347e-08
5.13399e-08
4.66016e-08
1.71302e-07
1.43522e-07
1.28145e-07
1.14619e-07
1.31946e-07
1.32698e-07
1.13831e-07
1.09895e-07
3.26893e-08
2.08865e-08
3.58944e-08
3.92609e-08
4.47727e-09
3.64711e-09
5.86703e-09
1.33788e-08
9.69322e-10
1.01298e-09
4.58179e-09
1.01224e-08
9.82299e-10
9.91718e-10
1.34579e-09
3.0751e-09
1.22543e-09
1.04838e-09
1.03963e-09
1.06918e-09
1.74806e-09
1.33779e-09
1.18919e-09
1.11415e-09
2.2457e-09
1.625e-09
1.40517e-09
1.21672e-09
2.36436e-09
1.92952e-09
1.5078e-09
1.33376e-09
2.26704e-09
1.76904e-09
1.57593e-09
1.34002e-09
1.96638e-09
1.7115e-09
1.3769e-09
1.24081e-09
1.32906e-09
1.15473e-09
1.09958e-09
9.78267e-10
7.65408e-10
7.32583e-10
6.53771e-10
6.10114e-10
3.60772e-10
3.27358e-10
3.27233e-10
3.04964e-10
1.59171e-10
1.51354e-10
1.40963e-10
1.30915e-10
6.68605e-11
5.72784e-11
5.51397e-11
4.96563e-11
2.40664e-11
2.08941e-11
1.90261e-11
1.65237e-11
8.09114e-12
6.53539e-12
5.87653e-12
4.76151e-12
2.21296e-12
1.80987e-12
1.53134e-12
1.16044e-12
5.18915e-13
3.94251e-13
3.26984e-13
2.42897e-13
1.06069e-13
7.43008e-14
5.90074e-14
4.33987e-14
1.67974e-14
1.2167e-14
8.76492e-15
6.82515e-15
2.37987e-15
1.75844e-15
1.56086e-15
1.59724e-15
3.98451e-16
4.0786e-16
4.91325e-16
7.03237e-16
1.16438e-16
1.50877e-16
2.4024e-16
4.33796e-16
5.25904e-17
8.29744e-17
1.53939e-16
3.57864e-16
2.84004e-17
5.22171e-17
1.3036e-16
3.84517e-16
1.84921e-17
4.36686e-17
1.37303e-16
4.44253e-16
1.4287e-17
4.38845e-17
1.53747e-16
4.86546e-16
1.05412e-17
3.98032e-17
1.42587e-16
4.38957e-16
7.48416e-18
2.5811e-17
8.32461e-17
2.26898e-16
0.00217993
0.00058098
-2.80932e-21
0.196941
0.759178
0.709536
0.12823
1.04924e-05
2.44122e-06
1.92081e-06
2.49805e-06
6.66681e-06
1.03079e-05
3.53227e-06
3.51134e-06
0.290943
0.971999
0.972321
0.935361
0.0194644
0.00967603
-6.97749e-19
0.237811
0.884996
0.898683
0.60586
0.0273849
-3.17587e-08
9.92285e-07
5.60128e-07
-1.76294e-07
-1.81611e-06
0.0979378
0.495458
0.904003
0.999147
0.999976
0.960982
0.545028
0.520266
0.44975
0.719783
0.976433
0.999895
0.902168
0.478481
0.00339263
-8.11628e-07
-3.7332e-07
0.122589
0.616053
0.921105
0.997556
0.999383
0.99911
0.999981
0.98337
0.884625
0.972977
0.953602
0.975553
0.998704
0.999922
0.99989
0.921833
0.603269
0.361951
0.490843
0.899802
0.999831
0.999902
0.999914
0.999821
0.999489
1
0.986113
0.999999
1
0.999999
0.999997
0.999968
0.999923
0.999924
0.99979
0.951458
0.88822
0.938329
0.998816
0.999988
0.999881
0.999907
0.999994
0.999968
1
0.974531
1
1
1
1
1
0.999998
0.999982
0.99997
0.999972
0.999127
0.99916
0.999531
0.999984
0.999941
0.999938
0.999994
1
1
0.969217
0.860634
0.901078
0.950735
0.986
0.999327
0.999998
0.999998
0.999994
0.999992
0.999995
0.999999
0.999925
0.999983
0.999999
0.999996
0.999997
0.999999
1
0.969168
0.10247
0.150394
0.238344
0.370391
0.537255
0.709807
0.847713
0.95906
0.999998
0.999998
0.999999
0.999998
0.999996
0.999999
0.999999
0.999999
0.999999
0.999999
0.969942
1.83492e-16
2.96693e-16
1.63601e-23
3.63463e-12
-2.10363e-13
0.0235587
0.111449
0.262559
0.508806
0.77583
0.975645
0.999998
0.999999
0.999999
0.999999
0.999999
0.999999
0.999972
0.991918
4.36507e-08
2.41846e-08
1.30219e-08
4.80122e-09
4.36532e-09
5.99518e-09
2.30216e-07
2.09402e-06
0.00389067
0.0813118
0.309485
0.68006
0.926698
0.999998
0.999998
0.999999
0.999999
0.999862
0.996486
9.96391e-08
7.81914e-08
8.50367e-08
1.63062e-07
3.06723e-07
3.65233e-07
2.24845e-07
1.38111e-07
1.6516e-07
3.53659e-06
9.79639e-06
0.0292229
0.201164
0.584638
0.926447
0.999988
0.999892
0.998949
0.976249
9.23017e-08
7.5805e-08
1.43294e-07
4.46074e-07
7.16439e-07
7.06503e-07
7.4637e-08
7.1224e-08
5.514e-05
1.27245e-06
7.9774e-06
4.28956e-06
9.74224e-06
0.00645925
0.168288
0.65312
0.996863
0.994597
0.97365
3.86175e-08
6.73196e-08
1.83651e-07
5.09661e-07
6.64144e-07
4.59415e-07
0.000112187
0.000689855
0.00100392
0.000654984
1.6433e-07
3.25526e-07
4.21434e-07
1.49111e-06
1.05102e-05
0.0158988
0.302325
0.597949
0.512243
2.34907e-08
6.5682e-08
1.6717e-07
3.3215e-07
4.6473e-07
9.2698e-07
0.000225636
0.00102571
0.00102337
0.000764181
3.25525e-07
6.30466e-06
0.000105064
0.000814887
0.000129643
2.70738e-05
5.68549e-05
0.00749267
0.00142831
1.85204e-08
4.26673e-08
1.09103e-07
2.53052e-07
5.63049e-07
2.29605e-06
5.88416e-05
0.000257491
0.00045862
0.00011818
1.60282e-07
0.000112205
0.00211396
0.00229109
0.00221344
0.00145184
0.000411552
1.14076e-05
2.03213e-07
5.52422e-09
9.0591e-09
1.30775e-08
2.36051e-08
8.20279e-08
3.66733e-07
8.79909e-07
9.27911e-07
8.47451e-07
6.50854e-07
3.08249e-07
0.000120622
0.00120329
0.00177622
0.00123761
0.000798591
0.000505801
4.224e-05
2.07766e-07
2.05992e-09
4.31022e-09
7.59375e-09
1.85998e-08
3.82245e-08
7.27177e-08
9.12494e-08
9.07979e-08
1.17114e-07
5.27293e-07
5.44465e-06
5.2512e-05
2.38169e-06
6.23969e-05
2.92954e-07
1.21094e-08
4.09925e-05
1.12823e-05
2.0326e-07
1.27076e-09
2.9981e-09
6.0821e-09
1.3508e-08
2.57943e-08
5.43096e-08
9.14848e-08
1.17629e-07
1.66282e-07
4.81676e-07
1.74872e-06
1.18877e-06
1.26636e-08
9.01746e-07
3.14176e-08
3.13596e-08
2.77211e-08
3.4177e-08
2.65827e-07
1.10249e-09
1.23553e-09
3.08838e-09
6.14811e-09
1.25167e-08
2.79482e-08
5.01912e-08
7.79331e-08
9.88551e-08
1.23939e-07
1.96932e-07
4.37845e-08
4.05516e-08
6.07528e-08
9.92822e-08
1.87897e-07
2.90465e-07
4.00565e-07
9.11797e-07
1.12505e-09
8.14689e-10
1.06458e-09
2.33443e-09
4.5596e-09
1.01965e-08
1.91391e-08
3.15223e-08
4.1736e-08
4.30787e-08
2.7083e-08
3.36986e-08
4.74952e-08
8.20831e-08
1.46727e-07
2.26433e-07
4.71872e-07
9.81348e-07
1.04531e-06
1.13075e-09
7.46042e-10
5.75244e-10
7.51157e-10
1.5738e-09
3.34697e-09
6.3619e-09
1.09783e-08
1.58298e-08
1.89265e-08
1.80862e-08
2.22092e-08
3.52471e-08
6.16246e-08
1.04206e-07
1.94425e-07
3.46287e-07
5.75716e-07
8.63285e-07
1.05146e-09
7.12224e-10
4.82433e-10
4.07628e-10
5.30982e-10
1.11768e-09
2.09122e-09
3.65225e-09
5.63042e-09
7.51996e-09
9.04475e-09
1.17476e-08
1.88274e-08
3.11946e-08
5.49061e-08
8.26887e-08
1.29287e-07
1.39398e-07
2.77097e-07
8.49957e-10
6.04683e-10
4.1274e-10
3.14985e-10
2.81876e-10
4.25558e-10
7.81058e-10
1.34254e-09
2.14305e-09
3.12027e-09
4.23393e-09
5.75683e-09
8.66897e-09
1.35027e-08
2.22272e-08
3.46552e-08
3.90652e-08
4.02611e-08
3.37794e-08
5.51075e-10
4.23627e-10
3.06573e-10
2.33044e-10
1.92787e-10
2.20935e-10
3.53624e-10
6.13284e-10
9.94368e-10
1.53314e-09
2.26979e-09
3.26095e-09
4.68813e-09
6.64425e-09
1.03993e-08
1.45142e-08
1.43178e-08
1.20241e-08
1.46795e-08
2.81599e-10
2.25737e-10
1.72563e-10
1.41212e-10
1.21668e-10
1.36622e-10
1.97901e-10
3.41923e-10
5.79174e-10
9.28929e-10
1.43124e-09
2.17786e-09
3.25451e-09
4.96787e-09
7.13707e-09
1.04303e-08
1.37313e-08
1.48697e-08
1.18071e-08
1.2114e-10
9.81505e-11
7.72582e-11
6.71746e-11
6.55901e-11
8.16448e-11
1.26369e-10
2.2006e-10
3.87267e-10
6.57719e-10
1.08304e-09
1.73691e-09
2.75387e-09
4.37717e-09
7.31126e-09
1.14746e-08
1.70566e-08
1.92719e-08
1.74084e-08
4.50918e-11
3.53144e-11
2.78691e-11
2.63831e-11
3.11538e-11
4.72875e-11
8.37877e-11
1.56679e-10
2.9145e-10
5.20502e-10
8.92216e-10
1.48492e-09
2.45216e-09
4.11222e-09
7.04904e-09
1.36752e-08
2.70892e-08
3.10522e-08
2.74768e-08
1.46045e-11
1.1012e-11
8.76163e-12
9.69813e-12
1.53169e-11
2.91982e-11
5.98118e-11
1.21013e-10
2.35903e-10
4.4152e-10
7.87067e-10
1.34489e-09
2.25263e-09
3.92173e-09
7.61074e-09
1.67347e-08
3.73397e-08
7.55985e-08
4.09563e-08
3.98458e-12
2.88483e-12
2.69392e-12
4.03511e-12
9.17793e-12
2.08083e-11
4.65209e-11
9.97973e-11
2.0351e-10
3.97933e-10
7.37011e-10
1.28849e-09
2.15198e-09
3.71815e-09
7.4073e-09
1.9023e-08
4.96076e-08
1.10339e-07
4.6978e-08
9.03546e-13
7.3786e-13
1.09295e-12
2.48927e-12
6.45874e-12
1.6824e-11
3.8577e-11
8.65379e-11
1.85787e-10
3.7683e-10
7.24936e-10
1.29796e-09
2.17076e-09
3.62255e-09
7.80431e-09
2.34785e-08
6.47396e-08
1.10238e-07
5.17481e-08
1.82726e-13
2.21338e-13
6.70487e-13
1.94119e-12
5.17097e-12
1.41352e-11
3.42855e-11
7.89672e-11
1.74391e-10
3.66735e-10
7.38462e-10
1.36626e-09
2.29265e-09
3.69175e-09
7.86686e-09
2.74726e-08
7.64196e-08
1.10315e-07
4.96091e-08
3.83161e-14
1.10187e-13
4.81801e-13
1.58999e-12
4.61169e-12
1.21422e-11
3.02433e-11
7.39691e-11
1.6822e-10
3.70559e-10
7.67031e-10
1.47547e-09
2.53926e-09
4.04755e-09
8.76952e-09
2.97832e-08
9.85615e-08
1.10282e-07
4.71703e-08
1.31776e-14
7.55285e-14
3.72159e-13
1.29458e-12
3.93728e-12
1.07286e-11
2.77636e-11
6.9612e-11
1.65642e-10
3.76745e-10
8.10432e-10
1.60141e-09
2.82736e-09
4.72618e-09
9.60665e-09
3.2139e-08
9.42558e-08
1.10315e-07
3.34616e-08
9.74439e-15
6.49614e-14
3.10277e-13
1.08512e-12
3.34401e-12
9.53287e-12
2.5785e-11
6.63975e-11
1.65471e-10
3.90759e-10
8.61779e-10
1.72083e-09
3.14335e-09
5.33391e-09
1.07272e-08
2.87281e-08
7.71419e-08
6.17039e-08
2.31672e-08
9.24846e-15
6.21365e-14
2.75136e-13
9.57669e-13
2.99238e-12
8.88828e-12
2.46764e-11
6.56553e-11
1.66241e-10
4.03146e-10
8.96373e-10
1.79406e-09
3.33669e-09
5.64628e-09
1.025e-08
2.29734e-08
3.25044e-08
2.96281e-08
1.16055e-08
8.50805e-15
5.38323e-14
2.31394e-13
8.27232e-13
2.72139e-12
8.223e-12
2.33877e-11
6.31287e-11
1.61734e-10
3.93757e-10
8.79564e-10
1.75817e-09
3.29829e-09
5.39936e-09
8.72793e-09
1.62372e-08
1.55074e-08
1.07719e-08
5.87336e-09
7.7564e-15
4.61058e-14
1.93368e-13
7.19921e-13
2.39168e-12
7.34439e-12
2.09822e-11
5.69809e-11
1.4641e-10
3.57681e-10
7.97697e-10
1.58429e-09
2.94999e-09
4.69217e-09
6.46178e-09
1.0296e-08
5.99556e-09
4.17792e-09
2.68787e-09
7.06401e-15
3.80905e-14
1.60168e-13
5.89809e-13
1.96025e-12
6.04154e-12
1.73319e-11
4.6575e-11
1.19732e-10
2.91997e-10
6.50212e-10
1.28099e-09
2.33653e-09
3.58491e-09
4.53543e-09
5.44472e-09
3.0386e-09
1.59331e-09
1.16966e-09
5.8764e-15
2.88304e-14
1.18289e-13
4.2009e-13
1.40364e-12
4.32283e-12
1.23814e-11
3.31607e-11
8.56583e-11
2.08024e-10
4.63361e-10
9.1414e-10
1.61998e-09
2.45716e-09
2.82031e-09
2.97019e-09
1.42783e-09
5.97834e-10
4.87265e-10
4.32315e-15
1.86335e-14
7.09265e-14
2.43237e-13
7.77308e-13
2.37633e-12
6.94748e-12
1.91825e-11
4.95605e-11
1.23226e-10
2.78481e-10
5.51914e-10
9.58466e-10
1.45876e-09
1.71884e-09
1.51605e-09
6.57126e-10
2.58672e-10
2.23079e-10
2.3442e-15
8.90756e-15
3.13499e-14
1.03209e-13
3.31355e-13
1.0298e-12
3.07073e-12
8.81358e-12
2.36064e-11
6.00055e-11
1.39102e-10
2.83977e-10
4.9428e-10
7.65659e-10
8.89441e-10
7.57784e-10
3.00811e-10
1.21328e-10
1.13533e-10
6.90038e-16
2.28279e-15
7.421e-15
2.30474e-14
8.16551e-14
2.87024e-13
9.40609e-13
2.92775e-12
8.60039e-12
2.32168e-11
5.67326e-11
1.21962e-10
2.18899e-10
3.49548e-10
4.26377e-10
3.36363e-10
1.34369e-10
6.47049e-11
4.93591e-11
)
;

boundaryField
{
    leftWall
    {
        type            alphaContactAngle;
        contactAngleProperties 
        {
            mercury         
            {
                theta0          90;
            }
            air             
            {
                theta0          90;
            }
            water           
            {
                theta0          90;
            }
        }
        value           nonuniform List<scalar> 
50
(
1.49991e-15
7.48801e-16
6.6534e-16
6.60611e-16
3.33603e-12
3.59454e-10
2.48194e-09
6.39759e-09
8.72553e-09
7.02716e-09
1.85298e-09
0.00792658
0.367712
0.704264
0.792454
0.569699
0.113416
7.44282e-07
7.33742e-07
7.57793e-07
7.97405e-07
8.95378e-07
2.49744e-07
3.80537e-08
3.23452e-08
3.0146e-08
2.33727e-08
1.54349e-08
9.15986e-09
5.65379e-09
2.6129e-09
1.2522e-09
4.68684e-10
1.87507e-10
4.57781e-11
9.75953e-12
1.49349e-12
1.62953e-13
6.18625e-15
1.92399e-16
1.76042e-18
4.9129e-21
1.26064e-23
1.13273e-26
1.50534e-28
1.17997e-29
2.0152e-30
3.67618e-31
6.91992e-32
8.68972e-33
)
;
    }
    rightWall
    {
        type            alphaContactAngle;
        contactAngleProperties 
        {
            mercury         
            {
                theta0          90;
            }
            air             
            {
                theta0          90;
            }
            water           
            {
                theta0          90;
            }
        }
        value           nonuniform List<scalar> 
50
(
0.262547
0.429861
0.520298
0.520322
0.518357
0.4778
0.496954
0.763087
0.935361
0.960982
0.98337
0.986113
0.974531
0.969217
0.969168
0.969942
0.991918
0.996486
0.976249
0.97365
0.512243
0.00142831
2.03213e-07
2.07766e-07
2.0326e-07
2.65827e-07
9.11797e-07
1.04531e-06
8.63285e-07
2.77097e-07
3.37794e-08
1.46795e-08
1.18071e-08
1.74084e-08
2.74768e-08
4.09563e-08
4.6978e-08
5.17481e-08
4.96091e-08
4.71703e-08
3.34616e-08
2.31672e-08
1.16055e-08
5.87336e-09
2.68787e-09
1.16966e-09
4.87265e-10
2.23079e-10
1.13533e-10
4.93591e-11
)
;
    }
    lowerWall
    {
        type            alphaContactAngle;
        contactAngleProperties 
        {
            mercury         
            {
                theta0          90;
            }
            air             
            {
                theta0          90;
            }
            water           
            {
                theta0          90;
            }
        }
        value           nonuniform List<scalar> 
62
(
1.49991e-15
8.99344e-15
4.12252e-14
1.37451e-13
3.25815e-13
6.75876e-13
1.23616e-12
2.58533e-12
5.13682e-12
9.65614e-12
1.7765e-11
3.30243e-11
6.21136e-11
1.20639e-10
2.21499e-10
4.04239e-10
7.39317e-10
1.20024e-09
1.36112e-09
1.42739e-09
0.00016987
0.000568018
0.000567943
0.000567943
0.000481324
2.15175e-08
3.35733e-08
3.17316e-08
8.43914e-08
2.29602e-07
2.31665e-06
4.81251e-05
5.01168e-05
1.09054e-05
2.35433e-06
0.103183
0.111628
0.512807
0.888429
0.768432
0.0258414
-1.45367e-06
0.000392281
0.103183
0.0851356
0.0371236
0.0285286
0.146651
0.360725
0.373397
0.374172
0.374172
0.339018
0.0591329
0.0586311
0.0862258
0.1501
0.202688
0.261281
0.261125
0.260567
0.262547
)
;
    }
    atmosphere
    {
        type            inletOutlet;
        inletValue      uniform 0;
        value           nonuniform List<scalar> 
46
(
0
0
0
0
0
0
0
0
0
0
0
0
0
0
0
0
0
0
0
0
0
0
0
0
0
0
0
0
0
0
0
8.16551e-14
2.87024e-13
9.40609e-13
2.92775e-12
8.60039e-12
2.32168e-11
5.67326e-11
1.21962e-10
2.18899e-10
3.49548e-10
4.26377e-10
3.36363e-10
1.34369e-10
6.47049e-11
4.93591e-11
)
;
    }
    defaultFaces
    {
        type            empty;
    }
}


// ************************************************************************* //
