/*--------------------------------*- C++ -*----------------------------------*\
  =========                 |
  \\      /  F ield         | OpenFOAM: The Open Source CFD Toolbox
   \\    /   O peration     | Website:  https://openfoam.org
    \\  /    A nd           | Version:  13
     \\/     M anipulation  |
\*---------------------------------------------------------------------------*/
FoamFile
{
    format      ascii;
    class       volScalarField;
    location    "1.65";
    object      epsilon;
}
// * * * * * * * * * * * * * * * * * * * * * * * * * * * * * * * * * * * * * //

dimensions      [0 2 -3 0 0 0 0];

internalField   nonuniform List<scalar> 
2268
(
0.00572063
0.0259217
0.0497389
0.0737519
0.0974063
0.120252
0.141691
0.161239
0.178572
0.193492
0.205792
0.215273
0.222004
0.225866
0.226142
0.221679
0.211706
0.196116
0.1735
0.143897
0.108697
0.0677559
0.0266717
0.00854331
0.0180548
0.0294235
0.0407643
0.0517463
0.0622686
0.0721705
0.0812475
0.0893017
0.0961545
0.101651
0.105702
0.10825
0.109237
0.108551
0.10606
0.101755
0.0956274
0.0873885
0.0768862
0.0642206
0.0501388
0.0402411
0.0136428
0.0194262
0.0284565
0.0373838
0.0458518
0.0538211
0.0612445
0.0680277
0.0740528
0.0791969
0.0833492
0.0864366
0.088417
0.0892799
0.0890285
0.0876949
0.0853827
0.0821823
0.0779949
0.0727397
0.0666028
0.0609916
0.0666186
0.0196272
0.0226399
0.0306352
0.0385447
0.0459323
0.0527793
0.059091
0.0648352
0.0699465
0.0743454
0.0779504
0.0806972
0.0825622
0.0835681
0.0837654
0.0832475
0.0821859
0.0807633
0.0790207
0.0770938
0.0756506
0.0772822
0.0991765
0.0264315
0.0270296
0.0342723
0.0415328
0.0482537
0.0544133
0.0600434
0.0651522
0.0697109
0.0736737
0.0769825
0.079578
0.0814588
0.0826745
0.0832987
0.0834532
0.0833694
0.0833298
0.0835385
0.0844749
0.0877167
0.0985531
0.146158
0.0341484
0.0324384
0.0389629
0.045664
0.0518703
0.0575236
0.0626605
0.0673184
0.0714956
0.0751739
0.0783089
0.0808395
0.0827888
0.0842319
0.0852557
0.0859954
0.0867372
0.087865
0.0897698
0.0933657
0.101616
0.125629
0.227278
0.0432497
0.0389751
0.0444536
0.0505452
0.056309
0.0615649
0.0663308
0.0706642
0.0745933
0.078102
0.0811528
0.0836714
0.0857162
0.0873895
0.0887823
0.0900299
0.0914713
0.0935845
0.0969461
0.102884
0.115928
0.157087
0.387379
0.0550634
0.0464961
0.0505659
0.055912
0.0611623
0.0660156
0.0704437
0.0744881
0.0782098
0.0816247
0.0847164
0.087407
0.0897194
0.0917209
0.0934805
0.0951619
0.0971696
0.100086
0.104632
0.112342
0.128618
0.184521
0.737181
0.0564416
0.120263
0.173406
0.212796
0.230483
0.248646
0.263256
0.276656
0.296382
0.31849
0.348929
0.385124
0.400465
0.391524
0.356108
0.293543
0.198414
0.100795
0.0144225
0.0638096
0.0841394
0.102992
0.116647
0.126268
0.136244
0.14752
0.162066
0.179891
0.194962
0.205092
0.208834
0.204801
0.193339
0.173673
0.14341
0.102102
0.0601072
0.0300518
0.0950715
0.101975
0.111254
0.117501
0.121553
0.127661
0.137251
0.150161
0.164525
0.175232
0.179589
0.178434
0.172349
0.161904
0.146394
0.123944
0.0944861
0.0645845
0.0549392
0.132461
0.132772
0.130896
0.129744
0.129626
0.132277
0.139942
0.151189
0.162711
0.170339
0.172462
0.170174
0.16398
0.154591
0.141732
0.123376
0.0993088
0.0756472
0.0865873
0.192105
0.17897
0.159637
0.144443
0.139573
0.139495
0.144938
0.154929
0.164232
0.169244
0.17042
0.168383
0.163011
0.154758
0.144042
0.128901
0.108581
0.0890125
0.115276
0.310306
0.2413
0.194327
0.160908
0.148182
0.146142
0.148573
0.156297
0.163982
0.16808
0.169213
0.167853
0.163629
0.156885
0.1482
0.136403
0.120306
0.104612
0.132827
0.513805
0.311929
0.221005
0.176269
0.155482
0.150809
0.151171
0.155741
0.161387
0.165101
0.166618
0.166089
0.163275
0.15849
0.151954
0.143391
0.132276
0.121415
0.163771
0.795018
0.354653
0.231395
0.183718
0.16119
0.154375
0.153608
0.155813
0.159342
0.162137
0.163651
0.163849
0.162554
0.159816
0.155495
0.149427
0.142227
0.136735
0.200684
0.0757234
0.0596979
0.0612815
0.0652539
0.0695423
0.0736225
0.0773776
0.0808265
0.084048
0.0871296
0.0901206
0.0930421
0.0958897
0.0986326
0.101286
0.10396
0.1069
0.110829
0.116633
0.125724
0.142187
0.181192
0.308542
0.115207
0.0813509
0.0785857
0.0804697
0.0833101
0.0862204
0.0889865
0.0915783
0.0940387
0.0964446
0.0988777
0.101424
0.10418
0.107228
0.110634
0.114427
0.118659
0.123564
0.129923
0.138762
0.151872
0.17386
0.215599
0.166906
0.105448
0.0977065
0.0973911
0.0987484
0.100483
0.102301
0.104122
0.105948
0.107846
0.109909
0.112246
0.114968
0.118153
0.121826
0.125939
0.13041
0.135272
0.140977
0.148049
0.157024
0.168822
0.184683
0.235734
0.13244
0.118116
0.115165
0.114872
0.115353
0.116235
0.117362
0.118687
0.120267
0.122209
0.124615
0.127549
0.131032
0.135036
0.139416
0.143974
0.148712
0.153714
0.159148
0.165205
0.172089
0.179852
0.318448
0.161948
0.139455
0.133485
0.131258
0.130222
0.129989
0.130361
0.13124
0.132653
0.134682
0.137363
0.140667
0.144527
0.14877
0.153282
0.157952
0.162601
0.1671
0.17147
0.175873
0.18052
0.185519
0.380412
0.188635
0.161381
0.1529
0.148266
0.145037
0.143118
0.142362
0.142641
0.143904
0.14608
0.14904
0.152622
0.156655
0.161041
0.165695
0.170452
0.17504
0.179288
0.183201
0.186967
0.190858
0.19509
0.360587
0.207118
0.185801
0.176251
0.167793
0.160585
0.155693
0.153073
0.152385
0.153281
0.155419
0.15847
0.162188
0.166413
0.171036
0.175927
0.180876
0.185609
0.189955
0.19392
0.197683
0.20153
0.2058
0.308962
0.221498
0.213396
0.206915
0.192553
0.178049
0.168173
0.162738
0.160628
0.16097
0.163025
0.166182
0.170092
0.174592
0.179562
0.184834
0.190146
0.195197
0.199781
0.203879
0.207678
0.211548
0.216092
0.272844
0.222258
0.229572
0.243259
0.22468
0.197192
0.179969
0.171029
0.167455
0.167457
0.1697
0.173145
0.177338
0.182189
0.187615
0.193392
0.199156
0.204491
0.209123
0.213055
0.216546
0.220038
0.224296
0.319397
0.229233
0.238204
0.239061
0.23346
0.209855
0.187767
0.175409
0.170133
0.169253
0.170886
0.173784
0.177553
0.182258
0.187806
0.19391
0.200196
0.206284
0.211876
0.21683
0.221159
0.224921
0.228859
0.324682
0.221792
0.229095
0.232492
0.224663
0.207218
0.188889
0.17652
0.170103
0.167961
0.168462
0.170627
0.174109
0.178793
0.184439
0.190736
0.197369
0.204008
0.210333
0.216087
0.221132
0.225308
0.229189
0.370869
0.218234
0.210137
0.214007
0.210013
0.197898
0.184407
0.174259
0.168446
0.166089
0.166084
0.167813
0.171033
0.17553
0.18094
0.186922
0.193199
0.199511
0.205598
0.211233
0.216282
0.220664
0.224883
0.383307
0.207836
0.192616
0.193373
0.191735
0.184808
0.176204
0.169225
0.16496
0.163051
0.162962
0.164444
0.1674
0.171599
0.176622
0.182126
0.187873
0.193644
0.199225
0.204436
0.209182
0.213468
0.217605
0.364037
0.19235
0.174276
0.173419
0.173256
0.170323
0.165998
0.162199
0.15982
0.158814
0.15901
0.160427
0.163128
0.166933
0.17146
0.176408
0.181556
0.186716
0.191701
0.19636
0.200617
0.204485
0.208109
0.332454
0.175867
0.157972
0.156329
0.156994
0.156682
0.155444
0.154239
0.153576
0.153578
0.154268
0.155781
0.15827
0.161656
0.165659
0.170021
0.174542
0.17905
0.183389
0.187433
0.191113
0.194417
0.197395
0.304422
0.16216
0.144866
0.142775
0.143801
0.144926
0.145596
0.146126
0.146748
0.147605
0.148803
0.150505
0.152867
0.155895
0.159411
0.163212
0.167127
0.171007
0.174719
0.178157
0.181259
0.183984
0.186343
0.284037
0.151717
0.134758
0.132268
0.133286
0.135018
0.136677
0.1382
0.139649
0.141128
0.14275
0.144655
0.146979
0.149751
0.152869
0.156194
0.159586
0.16292
0.166087
0.168996
0.171588
0.173808
0.17566
0.267796
0.143281
0.126592
0.123743
0.124556
0.126422
0.128487
0.130503
0.132435
0.134331
0.136275
0.138371
0.140713
0.143331
0.146169
0.149134
0.152122
0.155031
0.157771
0.160268
0.162468
0.16431
0.165808
0.252574
0.135448
0.11922
0.11615
0.116735
0.118543
0.120722
0.12296
0.125165
0.127338
0.129526
0.131791
0.13419
0.136742
0.139413
0.142143
0.144855
0.14747
0.149917
0.152134
0.154074
0.155679
0.15698
0.236185
0.127218
0.111816
0.108743
0.109195
0.110927
0.113132
0.11548
0.117856
0.120229
0.122611
0.125031
0.127515
0.130068
0.132669
0.135274
0.137827
0.14027
0.142546
0.144604
0.146407
0.147905
0.149143
0.21744
0.118077
0.103947
0.101125
0.101594
0.10332
0.10556
0.107999
0.110511
0.113048
0.115598
0.118164
0.120752
0.123355
0.125955
0.128519
0.131008
0.133375
0.135577
0.137574
0.139337
0.140825
0.142097
0.196064
0.107918
0.0954987
0.0931658
0.0938037
0.0956137
0.0979388
0.100484
0.103128
0.105815
0.108519
0.111224
0.113924
0.116605
0.119249
0.12183
0.124317
0.126676
0.128872
0.130874
0.132661
0.134201
0.135562
0.17251
0.0969678
0.0865933
0.0849216
0.0858399
0.0878063
0.0902608
0.0929325
0.0957118
0.0985398
0.101383
0.104218
0.107029
0.109799
0.112509
0.115137
0.117659
0.120047
0.122275
0.124319
0.126163
0.127784
0.129253
0.148843
0.0858475
0.0775267
0.0765667
0.0778144
0.0799724
0.0825731
0.0853767
0.0882848
0.0912394
0.0942042
0.0971526
0.100064
0.102918
0.105698
0.108383
0.110953
0.113386
0.11566
0.117758
0.119667
0.121371
0.122941
0.126894
0.0751033
0.0686259
0.0683346
0.0699002
0.0722403
0.074971
0.07789
0.0809075
0.0839641
0.0870254
0.0900623
0.0930524
0.0959757
0.0988139
0.101549
0.104164
0.106639
0.108957
0.111103
0.113068
0.114841
0.116489
0.106676
0.0649048
0.0601337
0.0604558
0.0623038
0.0647939
0.0676162
0.070611
0.0736914
0.0768092
0.0799336
0.0830261
0.0860662
0.0890327
0.0919081
0.0946753
0.0973183
0.0998209
0.102168
0.104346
0.106349
0.108169
0.109866
0.0891005
0.0556694
0.0523663
0.0531961
0.0552568
0.0578398
0.0606993
0.0637193
0.0668149
0.0699427
0.0730712
0.0761732
0.079228
0.0822045
0.085088
0.0878609
0.0905085
0.093016
0.0953697
0.0975579
0.0995753
0.101416
0.103132
0.0749837
0.0478412
0.0456401
0.0468164
0.0489904
0.0515926
0.0544291
0.0574111
0.0604662
0.063552
0.0666374
0.0696968
0.0727085
0.0756524
0.0785102
0.0812567
0.0838798
0.0863649
0.0886994
0.0908725
0.0928793
0.0947148
0.0964234
0.0646877
0.0417185
0.0401836
0.0415161
0.0436935
0.0462387
0.0489908
0.0518775
0.0548378
0.0578301
0.0608237
0.0637942
0.06672
0.069582
0.0723626
0.0750451
0.0776122
0.0800447
0.082332
0.0844633
0.0864339
0.0882392
0.089915
0.0580689
0.0373656
0.0360838
0.0373988
0.0394856
0.0419123
0.0445323
0.0472787
0.0500988
0.0529525
0.0558104
0.058649
0.0614477
0.0641883
0.0668538
0.0694282
0.0718959
0.0742432
0.0764551
0.0785175
0.0804268
0.0821778
0.0837984
0.0546715
0.0346548
0.0333071
0.0344848
0.0364228
0.038695
0.0411543
0.0437312
0.0463782
0.0490583
0.0517446
0.0544151
0.057051
0.059635
0.0621513
0.0645846
0.0669206
0.0691456
0.0712466
0.0732125
0.0750365
0.0767096
0.0782539
0.0541011
0.0334148
0.0317889
0.0327713
0.0345385
0.0366422
0.0389245
0.0413131
0.0437637
0.0462444
0.0487316
0.0512058
0.05365
0.0560486
0.058387
0.0606512
0.0628277
0.0649039
0.0668674
0.0687079
0.0704175
0.071989
0.0734365
0.0561143
0.0335771
0.0315425
0.0323075
0.0338935
0.0358142
0.0379009
0.0400808
0.0423138
0.0445734
0.0468396
0.0490956
0.051326
0.053517
0.0556552
0.0577278
0.0597226
0.0616278
0.063432
0.065125
0.066699
0.0681464
0.0694737
0.0609275
0.0353256
0.0327448
0.033243
0.0346047
0.0362986
0.0381491
0.0400859
0.0420736
0.0440889
0.046114
0.0481334
0.0501329
0.0520994
0.0540207
0.055885
0.0576811
0.0593981
0.0610256
0.0625537
0.0639742
0.0652791
0.0664694
0.0692942
0.0391392
0.0357535
0.0358343
0.0368458
0.0382107
0.0397477
0.0413859
0.0430886
0.0448312
0.0465939
0.0483598
0.050114
0.0518431
0.0535351
0.0551788
0.0567638
0.0582801
0.0597178
0.0610676
0.0623209
0.0634688
0.0645079
0.0824077
0.0457658
0.0410681
0.0403984
0.0408152
0.0416769
0.0427823
0.0440443
0.0454121
0.0468492
0.0483273
0.0498238
0.0513204
0.0528018
0.0542552
0.0556695
0.0570347
0.0583412
0.05958
0.0607419
0.0618179
0.0627984
0.063676
0.102259
0.0562302
0.0493001
0.0472722
0.0466918
0.0468
0.0473246
0.0481238
0.0491061
0.0502077
0.0513827
0.0525974
0.0538273
0.0550536
0.0562621
0.0574409
0.0585803
0.0596712
0.0607049
0.0616727
0.0625653
0.063372
0.0640821
0.132257
0.0720801
0.0611181
0.0566812
0.0545323
0.0535984
0.0534037
0.0536755
0.0542428
0.0549951
0.0558597
0.0567884
0.0577483
0.0587168
0.0596774
0.060618
0.0615287
0.062401
0.0632268
0.0639978
0.0647045
0.0653356
0.0658779
0.179405
0.0957155
0.0769724
0.0684737
0.0641225
0.0619433
0.0609871
0.0607408
0.0609133
0.0613346
0.0619027
0.0625546
0.0632509
0.0639654
0.0646809
0.0653848
0.066068
0.0667227
0.0673415
0.067917
0.0684401
0.0688993
0.0692802
0.263317
0.130916
0.0962334
0.0816287
0.0748114
0.0715344
0.0700023
0.0693809
0.0692557
0.0694092
0.0697215
0.0701236
0.0705744
0.0710481
0.0715283
0.0720038
0.0724664
0.0729098
0.0733279
0.0737146
0.074062
0.0743599
0.0745944
0.471881
0.180518
0.114412
0.0935236
0.0854758
0.0820073
0.0804401
0.0797534
0.0795096
0.079502
0.079625
0.079821
0.0800571
0.0803132
0.0805768
0.0808398
0.0810964
0.0813422
0.0815732
0.081785
0.0819722
0.0821273
0.08224
1.58792
0.212794
0.116877
0.0999042
0.0950835
0.0933169
0.092568
0.0922332
0.0920928
0.0920526
0.092067
0.092112
0.092174
0.092245
0.0923199
0.0923956
0.0924698
0.092541
0.0926075
0.0926679
0.0927199
0.0927607
0.0927864
1.04635
0.919272
0.909283
0.961396
0.276596
0.293525
0.300259
0.298194
0.198051
0.204986
0.209323
0.211546
0.185563
0.189209
0.192418
0.195177
0.189278
0.19185
0.194348
0.196742
0.198403
0.200683
0.202888
0.204957
0.209364
0.211789
0.213925
0.215654
0.220285
0.223089
0.225245
0.226629
0.229002
0.232484
0.23489
0.235947
0.232813
0.235522
0.238387
0.240251
0.232681
0.23535
0.237894
0.239656
0.228474
0.230989
0.233323
0.235145
0.220857
0.222965
0.224851
0.226395
0.210727
0.212322
0.213747
0.214975
0.199372
0.200508
0.201509
0.202375
0.187778
0.188546
0.189197
0.189735
0.17669
0.177192
0.177587
0.177872
0.166577
0.166913
0.167149
0.167271
0.157625
0.157885
0.158051
0.158097
0.149772
0.150029
0.150196
0.15024
0.142785
0.143089
0.143307
0.143401
0.13635
0.136726
0.137021
0.137194
0.130149
0.130605
0.130984
0.131243
0.123934
0.124462
0.124916
0.125256
0.117556
0.11814
0.118654
0.11906
0.110979
0.111601
0.112157
0.112611
0.104265
0.104908
0.10549
0.105976
0.0975533
0.0982021
0.0987934
0.0992969
0.0910229
0.0916648
0.0922531
0.0927615
0.0848674
0.0854913
0.0860654
0.0865678
0.0792696
0.0798653
0.0804152
0.0809013
0.0743856
0.0749444
0.0754606
0.0759202
0.0703419
0.0708552
0.0713288
0.0717518
0.067243
0.0677014
0.0681229
0.0684991
0.0651762
0.0655712
0.0659317
0.066251
0.0642306
0.0645556
0.0648476
0.0651013
0.0645183
0.0647692
0.0649884
0.0651709
0.0661958
0.0663726
0.0665187
0.0666296
0.069487
0.0695949
0.069674
0.0697199
0.0747057
0.0747565
0.0747823
0.0747794
0.0822811
0.0822937
0.0822885
0.0822632
0.0927905
0.0927885
0.0927799
0.0927645
0.451861
0.288269
0.216932
0.182879
0.166888
0.159276
0.157495
0.157514
0.158326
0.159397
0.160389
0.161349
0.162193
0.162537
0.161496
0.158323
0.154185
0.157716
0.269562
0.256735
0.221097
0.195018
0.178046
0.169784
0.16581
0.164176
0.163018
0.161996
0.16138
0.161426
0.162676
0.16537
0.168607
0.170264
0.168208
0.165168
0.180051
0.358387
0.211314
0.202128
0.191178
0.18154
0.175466
0.173348
0.172391
0.170554
0.168386
0.16678
0.166321
0.167658
0.170989
0.174896
0.176685
0.175335
0.176279
0.201533
0.416416
0.198867
0.198916
0.195067
0.189437
0.18463
0.182469
0.181403
0.179333
0.176705
0.174625
0.17376
0.174448
0.176635
0.179386
0.181114
0.182046
0.188189
0.222422
0.465525
0.200464
0.202994
0.202083
0.198708
0.195144
0.192923
0.19136
0.189204
0.186582
0.184256
0.182638
0.182055
0.182703
0.184333
0.186342
0.189655
0.20035
0.242114
0.509166
0.20811
0.2106
0.210643
0.208663
0.206078
0.20393
0.202012
0.199704
0.197024
0.194393
0.192057
0.190403
0.189908
0.19074
0.192918
0.197915
0.211993
0.259506
0.544473
0.217971
0.219752
0.219947
0.218722
0.216802
0.214769
0.212597
0.210072
0.207245
0.204307
0.201459
0.199148
0.197943
0.19821
0.200391
0.206339
0.222447
0.273341
0.56579
0.228144
0.229131
0.229084
0.228122
0.226608
0.224706
0.22237
0.219667
0.216681
0.213427
0.210289
0.207763
0.206275
0.206216
0.208272
0.214487
0.231247
0.282685
0.567082
0.236712
0.236925
0.236619
0.235776
0.234724
0.232996
0.230487
0.227849
0.224958
0.221444
0.218251
0.215825
0.21426
0.214078
0.215979
0.221986
0.238424
0.288761
0.549524
0.241354
0.241527
0.241175
0.24046
0.239377
0.237916
0.23619
0.234667
0.232329
0.227844
0.225276
0.22345
0.221658
0.221171
0.222692
0.228206
0.243808
0.291935
0.522406
0.241346
0.241978
0.241675
0.240875
0.239636
0.238221
0.236684
0.234642
0.232841
0.23166
0.232593
0.230736
0.228011
0.227306
0.227881
0.232395
0.246542
0.290166
0.486022
0.236993
0.237678
0.237335
0.23652
0.235382
0.234004
0.232271
0.230454
0.229505
0.229624
0.232635
0.234358
0.233543
0.232491
0.230553
0.233965
0.246052
0.283862
0.445695
0.228192
0.229007
0.228688
0.227885
0.226908
0.225765
0.224331
0.222961
0.222466
0.223504
0.225767
0.226538
0.227262
0.229159
0.230012
0.231393
0.241418
0.275022
0.410639
0.216496
0.217225
0.216949
0.216264
0.215533
0.214717
0.213661
0.212691
0.212834
0.214752
0.216779
0.216704
0.217447
0.222021
0.223076
0.22372
0.227467
0.258534
0.405498
0.203457
0.203937
0.203631
0.20304
0.2025
0.201955
0.201191
0.200537
0.201146
0.203392
0.205419
0.205357
0.205201
0.207608
0.211068
0.214945
0.211909
0.234403
0.483411
0.190363
0.190498
0.190053
0.189423
0.188895
0.188443
0.187922
0.187641
0.188665
0.191327
0.193883
0.193809
0.192184
0.191764
0.191999
0.192539
0.191015
0.206767
0.403796
0.17813
0.17792
0.177262
0.176469
0.175791
0.175259
0.174868
0.174913
0.176169
0.178965
0.181805
0.182056
0.179282
0.176447
0.17401
0.170772
0.167776
0.177665
0.307944
0.167285
0.16682
0.165964
0.164979
0.164088
0.16337
0.162917
0.163
0.164099
0.166341
0.168682
0.16894
0.166075
0.16199
0.157791
0.152972
0.147966
0.152444
0.250305
0.158
0.157417
0.156456
0.155347
0.154269
0.153329
0.152649
0.152431
0.152925
0.154111
0.155239
0.15485
0.152078
0.147749
0.14285
0.137232
0.1316
0.132575
0.201615
0.150147
0.14959
0.148644
0.147517
0.146341
0.145214
0.144237
0.143539
0.14322
0.143188
0.142948
0.141661
0.138766
0.134642
0.129785
0.124315
0.118927
0.118375
0.168431
0.143394
0.142974
0.14215
0.141109
0.13994
0.138707
0.137479
0.136322
0.135259
0.134192
0.13283
0.13075
0.127697
0.12383
0.119429
0.11465
0.110089
0.109133
0.148159
0.137319
0.1371
0.136466
0.135582
0.134501
0.133256
0.131881
0.130404
0.128822
0.127064
0.124983
0.122407
0.119262
0.115664
0.111784
0.107776
0.104121
0.103544
0.13795
0.131514
0.131515
0.131094
0.130398
0.129452
0.128264
0.126846
0.125208
0.123343
0.121217
0.118774
0.115974
0.112839
0.109477
0.106024
0.102649
0.0998611
0.100414
0.135512
0.125662
0.125869
0.125651
0.125142
0.124346
0.123254
0.121866
0.120187
0.118215
0.115945
0.113373
0.110522
0.107457
0.104286
0.101149
0.0982727
0.0963172
0.0984879
0.137848
0.119581
0.11996
0.119919
0.119574
0.118921
0.117941
0.116627
0.114982
0.113012
0.110731
0.108163
0.105358
0.102396
0.0993939
0.0965141
0.0940596
0.0928905
0.0967968
0.14205
0.11322
0.113735
0.113837
0.11363
0.113106
0.112239
0.111021
0.109455
0.107554
0.105341
0.102854
0.100155
0.097332
0.0945104
0.0918822
0.0898262
0.0893832
0.0948796
0.146149
0.106648
0.107261
0.107475
0.107382
0.10697
0.106215
0.105106
0.103648
0.101858
0.0997637
0.0974114
0.094867
0.0922243
0.0896184
0.0872681
0.0856129
0.0858317
0.0926623
0.149188
0.100009
0.10069
0.100991
0.10099
0.100677
0.10003
0.0990374
0.0977068
0.0960564
0.0941183
0.0919405
0.0895919
0.0871701
0.0848188
0.0827773
0.0815279
0.0823408
0.090233
0.15089
0.0934933
0.0942155
0.0945799
0.0946532
0.0944264
0.0938817
0.0930096
0.0918178
0.0903263
0.0885681
0.0865927
0.0844698
0.082299
0.0802301
0.0785154
0.0776638
0.078999
0.0877025
0.151276
0.0873012
0.0880402
0.0884463
0.0885753
0.0884205
0.0879687
0.0872131
0.0861624
0.084837
0.0832702
0.0815107
0.0796279
0.0777215
0.0759438
0.0745543
0.0740764
0.075862
0.0851853
0.150634
0.0816184
0.0823496
0.082774
0.0829375
0.0828358
0.0824609
0.0818094
0.0808912
0.0797269
0.0783487
0.0768036
0.0751587
0.0735119
0.0720152
0.0709305
0.0707899
0.0729675
0.0828168
0.149539
0.0766028
0.0773003
0.077716
0.0778876
0.0778133
0.0774907
0.0769206
0.0761146
0.0750934
0.0738875
0.0725409
0.071117
0.0697092
0.0684683
0.067654
0.0677987
0.070283
0.0804953
0.147792
0.072381
0.0730162
0.0733921
0.0735387
0.0734576
0.0731523
0.0726293
0.0719032
0.0709949
0.0699329
0.0687577
0.0675271
0.0663294
0.0653078
0.0647165
0.0650817
0.0677768
0.0781723
0.145331
0.0690552
0.0695967
0.0698969
0.0699782
0.0698458
0.0695106
0.068987
0.0682955
0.0674591
0.066504
0.0654648
0.0643925
0.0633673
0.0625233
0.0621054
0.0626278
0.0654445
0.0758678
0.142331
0.0667149
0.0671318
0.0673165
0.0672843
0.067044
0.0666158
0.0660274
0.0653104
0.0644924
0.0635974
0.0626528
0.0616998
0.0608085
0.0601018
0.0598123
0.0604383
0.0633049
0.0736338
0.138991
0.0654571
0.0657206
0.0657488
0.0655475
0.0651274
0.0645215
0.0637795
0.0629555
0.0620877
0.0611976
0.0603019
0.059429
0.0586352
0.0580308
0.0578338
0.0585234
0.0613902
0.0715479
0.135571
0.0654079
0.0654958
0.0653299
0.064899
0.064209
0.0633075
0.062284
0.061239
0.060233
0.0592826
0.0583876
0.0575565
0.0568285
0.0562981
0.0561679
0.0568966
0.0597365
0.069682
0.132275
0.0667464
0.0666514
0.0662672
0.0655487
0.0644761
0.0631085
0.0616076
0.0601754
0.0589137
0.0578268
0.0568824
0.0560579
0.0553687
0.054891
0.0548112
0.0555673
0.0583735
0.068106
0.129322
0.0697295
0.0694715
0.0688764
0.0678321
0.0662386
0.0641435
0.0618465
0.0597785
0.0581076
0.0567986
0.0557561
0.0549077
0.0542356
0.0537948
0.0537552
0.0545364
0.0573173
0.0668634
0.126864
0.0747142
0.0743561
0.0736183
0.0722656
0.0699787
0.0667169
0.063084
0.0600236
0.0577646
0.0561524
0.054974
0.0540799
0.0534092
0.052993
0.0529863
0.0537935
0.0565661
0.0659825
0.125092
0.0821763
0.0818352
0.0811235
0.0796143
0.0764149
0.0710473
0.065206
0.0607482
0.0577676
0.0558179
0.0544942
0.0535477
0.052869
0.0524668
0.0524833
0.0533131
0.056091
0.0654483
0.12421
0.0927216
0.0925645
0.0921931
0.0910856
0.0871478
0.0762766
0.0673769
0.0614868
0.0578976
0.0556965
0.0542718
0.0532885
0.0526018
0.0522046
0.0522322
0.0530741
0.0558606
0.065216
0.123984
)
;

boundaryField
{
    leftWall
    {
        type            epsilonWallFunction;
        value           nonuniform List<scalar> 
50
(
0.00572063
0.00854331
0.0136428
0.0196272
0.0264315
0.0341484
0.0432497
0.0550634
0.0757234
0.115207
0.166906
0.235734
0.318448
0.380412
0.360587
0.308962
0.272844
0.319397
0.324682
0.370869
0.383307
0.364037
0.332454
0.304422
0.284037
0.267796
0.252574
0.236185
0.21744
0.196064
0.17251
0.148843
0.126894
0.106676
0.0891005
0.0749837
0.0646877
0.0580689
0.0546715
0.0541011
0.0561143
0.0609275
0.0692942
0.0824077
0.102259
0.132257
0.179405
0.263317
0.471881
1.58792
)
;
    }
    rightWall
    {
        type            epsilonWallFunction;
        value           nonuniform List<scalar> 
50
(
0.0144225
0.0300518
0.0549392
0.0865873
0.115276
0.132827
0.163771
0.200684
0.269562
0.358387
0.416416
0.465525
0.509166
0.544473
0.56579
0.567082
0.549524
0.522406
0.486022
0.445695
0.410639
0.405498
0.483411
0.403796
0.307944
0.250305
0.201615
0.168431
0.148159
0.13795
0.135512
0.137848
0.14205
0.146149
0.149188
0.15089
0.151276
0.150634
0.149539
0.147792
0.145331
0.142331
0.138991
0.135571
0.132275
0.129322
0.126864
0.125092
0.12421
0.123984
)
;
    }
    lowerWall
    {
        type            epsilonWallFunction;
        value           nonuniform List<scalar> 
62
(
0.00572063
0.0259217
0.0497389
0.0737519
0.0974063
0.120252
0.141691
0.161239
0.178572
0.193492
0.205792
0.215273
0.222004
0.225866
0.226142
0.221679
0.211706
0.196116
0.1735
0.143897
0.108697
0.0677559
0.0266717
0.0266717
0.0402411
0.0666186
0.0991765
0.146158
0.227278
0.387379
0.737181
1.04635
0.919272
0.909283
0.961396
0.0564416
0.0638096
0.0950715
0.132461
0.192105
0.310306
0.513805
0.795018
0.0564416
0.120263
0.173406
0.212796
0.230483
0.248646
0.263256
0.276656
0.296382
0.31849
0.348929
0.385124
0.400465
0.391524
0.356108
0.293543
0.198414
0.100795
0.0144225
)
;
    }
    atmosphere
    {
        type            inletOutlet;
        inletValue      uniform 0.1;
        value           nonuniform List<scalar> 
46
(
0.1
0.1
0.1
0.1
0.1
0.1
0.1
0.1
0.1
0.1
0.1
0.1
0.1
0.1
0.1
0.1
0.1
0.1
0.1
0.1
0.1
0.1
0.1
0.1
0.1
0.1
0.1
0.1
0.1
0.1
0.1
0.1
0.0762766
0.0673769
0.0614868
0.0578976
0.0556965
0.0542718
0.0532885
0.0526018
0.0522046
0.0522322
0.0530741
0.0558606
0.065216
0.123984
)
;
    }
    defaultFaces
    {
        type            empty;
    }
}


// ************************************************************************* //
